LAMMPS (29 Oct 2020)
OMP_NUM_THREADS environment is not set. Defaulting to 1 thread. (../comm.cpp:94)
  using 1 OpenMP thread(s) per MPI task
OMP_NUM_THREADS environment is not set. Defaulting to 1 thread. (../comm.cpp:94)
  using 1 OpenMP thread(s) per MPI task
Reading data file ...
  orthogonal box = (-0.44607859 -5.2976768 -0.44350866) to (27.786079 333.37768 27.783509)
  2 by 13 by 2 MPI processor grid
  reading atoms ...
  17760 atoms
  reading velocities ...
  17760 velocities
Finding 1-2 1-3 1-4 neighbors ...
  special bond factors lj:    0.0      0.0      0.0     
  special bond factors coul:  0.0      0.0      0.0     
     0 = max # of 1-2 neighbors
     0 = max # of 1-3 neighbors
     0 = max # of 1-4 neighbors
     1 = max # of special neighbors
  special bonds CPU = 0.003 seconds
  read_data CPU = 0.069 seconds
WARNING: 10 of 1000 force values in table Kr-Kr are inconsistent with -dE/dr.
  Should only be flagged at inflection points (../pair_table.cpp:461)
WARNING: 1 of 1000 force values in table Kr-O are inconsistent with -dE/dr.
  Should only be flagged at inflection points (../pair_table.cpp:461)
WARNING: 1 of 1000 force values in table Kr-Th are inconsistent with -dE/dr.
  Should only be flagged at inflection points (../pair_table.cpp:461)
Setting atom values ...
  11760 settings made for charge
Setting atom values ...
  5880 settings made for charge
Setting atom values ...
  120 settings made for charge
PPPM initialization ...
  using 12-bit tables for long-range coulomb (../kspace.cpp:328)
  G vector (1/distance) = 0.29847745
  grid = 40 240 40
  stencil order = 5
  estimated absolute RMS force accuracy = 0.0001583572
  estimated relative force accuracy = 1.0997299e-05
  using single precision MKL FFT
  3d grid and FFT values/proc = 18225 7600
Neighbor list info ...
  update every 1 steps, delay 0 steps, check yes
  max neighbors/atom: 2000, page size: 100000
  master list distance cutoff = 13
  ghost atom cutoff = 13
  binsize = 6.5, bins = 5 53 5
  3 neighbor lists, perpetual/occasional/extra = 3 0 0
  (1) pair coul/long, perpetual
      attributes: half, newton on
      pair build: half/bin/newton
      stencil: half/bin/3d/newton
      bin: standard
  (2) pair eam/alloy, perpetual, skip from (1)
      attributes: half, newton on
      pair build: skip
      stencil: none
      bin: none
  (3) pair table, perpetual, skip from (1)
      attributes: half, newton on
      pair build: skip
      stencil: none
      bin: none
Setting up Verlet run ...
  Unit style    : metal
  Current step  : 0
  Time step     : 0.001
Per MPI rank memory allocation (min/avg/max) = 9.252 | 9.923 | 10.04 Mbytes
Step Temp E_pair E_mol TotEng Press 
       0         1200   -228969.09            0   -226214.45    1863.7796 
   50000    1207.9697   -228966.39            0   -226193.46    2519.7177 
Loop time of 351.259 on 52 procs for 50000 steps with 17760 atoms

Performance: 12.299 ns/day, 1.951 hours/ns, 142.345 timesteps/s
99.8% CPU use with 52 MPI tasks x 1 OpenMP threads

MPI task timing breakdown:
Section |  min time  |  avg time  |  max time  |%varavg| %total
---------------------------------------------------------------
Pair    | 256.04     | 262.3      | 270.68     |  23.9 | 74.68
Bond    | 0.0037855  | 0.0063807  | 0.0098449  |   1.5 |  0.00
Kspace  | 67.282     | 75.305     | 81.26      |  44.2 | 21.44
Neigh   | 3.2924     | 3.5348     | 3.7587     |   5.9 |  1.01
Comm    | 7.0306     | 7.6209     | 8.6327     |  15.6 |  2.17
Output  | 5.3953e-05 | 5.8766e-05 | 0.00026697 |   0.0 |  0.00
Modify  | 0.92155    | 1.796      | 2.7291     |  46.9 |  0.51
Other   |            | 0.6913     |            |       |  0.20

Nlocal:        341.538 ave         365 max         322 min
Histogram: 1 2 5 18 12 4 4 1 2 3
Nghost:        5477.00 ave        5670 max        5262 min
Histogram: 6 9 5 0 4 4 4 4 5 11
Neighs:       105411.0 ave      114626 max       95451 min
Histogram: 4 1 3 5 9 13 9 2 2 4

Total # of neighbors = 5481375
Ave neighs/atom = 308.63598
Ave special neighs/atom = 0.0000000
Neighbor list builds = 1179
Dangerous builds = 0
11760 atoms in group oxygen
PPPM initialization ...
  using 12-bit tables for long-range coulomb (../kspace.cpp:328)
  G vector (1/distance) = 0.29847745
  grid = 40 240 40
  stencil order = 5
  estimated absolute RMS force accuracy = 0.0001583572
  estimated relative force accuracy = 1.0997299e-05
  using single precision MKL FFT
  3d grid and FFT values/proc = 18225 7600
Neighbor list info ...
  update every 1 steps, delay 0 steps, check yes
  max neighbors/atom: 2000, page size: 100000
  master list distance cutoff = 13
  ghost atom cutoff = 13
  binsize = 6.5, bins = 5 53 5
  3 neighbor lists, perpetual/occasional/extra = 3 0 0
  (1) pair coul/long, perpetual
      attributes: half, newton on
      pair build: half/bin/newton
      stencil: half/bin/3d/newton
      bin: standard
  (2) pair eam/alloy, perpetual, skip from (1)
      attributes: half, newton on
      pair build: skip
      stencil: none
      bin: none
  (3) pair table, perpetual, skip from (1)
      attributes: half, newton on
      pair build: skip
      stencil: none
      bin: none
Setting up Verlet run ...
  Unit style    : metal
  Current step  : 0
  Time step     : 0.001
Per MPI rank memory allocation (min/avg/max) = 9.502 | 10.17 | 10.29 Mbytes
Step f_2 Temp v_Tdiff v_deltaT 
       0            0    1207.9697            0            0 
  100000      1311.27    1206.9132  0.048651772    564.84256 
  200000    2550.1704    1206.4513  0.057005674    661.83058 
  300000    3782.6293     1208.566  0.057039579    662.22422 
  400000     5027.224    1211.8902  0.059534347    691.18824 
  500000    6258.8573    1205.6978  0.057669077    669.53263 
  600000    7499.9825    1209.9914  0.057207179    664.17004 
  700000    8741.8827    1212.4115  0.056740091    658.74719 
  800000    9970.2874     1207.356  0.059821859    694.52623 
  900000    11213.578     1205.659  0.057120036    663.15832 
 1000000    12466.396    1207.4839  0.057748258    670.45191 
Loop time of 7056.74 on 52 procs for 1000000 steps with 17760 atoms

Performance: 12.244 ns/day, 1.960 hours/ns, 141.708 timesteps/s
99.9% CPU use with 52 MPI tasks x 1 OpenMP threads

MPI task timing breakdown:
Section |  min time  |  avg time  |  max time  |%varavg| %total
---------------------------------------------------------------
Pair    | 5117.3     | 5278.7     | 5435.7     | 109.1 | 74.80
Bond    | 0.074561   | 0.12774    | 0.18114    |   6.3 |  0.00
Kspace  | 1352.3     | 1502.4     | 1653.8     | 195.4 | 21.29
Neigh   | 75.047     | 82.055     | 87.408     |  38.4 |  1.16
Comm    | 140.34     | 153.87     | 180.31     |  73.3 |  2.18
Output  | 0.0010317  | 0.0010924  | 0.0023684  |   0.5 |  0.00
Modify  | 5.6393     | 6.2022     | 6.73       |  11.2 |  0.09
Other   |            | 33.38      |            |       |  0.47

Nlocal:        341.538 ave         368 max         310 min
Histogram: 2 3 4 4 5 11 11 6 4 2
Nghost:        5499.27 ave        5691 max        5273 min
Histogram: 4 8 7 1 5 7 0 1 6 13
Neighs:       105435.0 ave      114566 max       87618 min
Histogram: 1 0 4 4 2 4 6 16 11 4

Total # of neighbors = 5482606
Ave neighs/atom = 308.70529
Ave special neighs/atom = 0.0000000
Neighbor list builds = 27283
Dangerous builds = 0
Total wall time: 2:03:28
