LAMMPS data file via write_data, version 29 Oct 2020, timestep = 100575

17700 atoms
3 atom types

-0.43712570747678337 27.777125707477122 xlo xhi
-5.3184245594846695 333.3984245594752 ylo yhi
-0.4466423116225266 27.786642311623307 zlo zhi

Masses

1 15.9994
2 232.0381
3 83.798

Atoms # full

1 0 2 2.2208 5.436968529219002 0.34271771963385705 5.50471075271843 0 0 0
2 0 1 -1.1104 1.0949626431591528 -3.8717821264047694 1.2680994071341294 0 0 0
6 0 1 -1.1104 1.135056651100397 -4.064929958279196 3.907064141544578 0 0 0
10 0 1 -1.1104 0.9790753515191201 -1.0487574073287038 0.9302804650399293 0 0 0
12 0 2 2.2208 5.3569077664732 -2.5915239503306475 2.4889895848357444 0 0 0
14 0 1 -1.1104 1.1440549872915962 -0.9021730411882601 3.851391191381628 0 0 0
16 0 1 -1.1104 3.8157009611095045 -3.868928107595496 1.22814168762926 0 0 0
18 0 2 2.2208 2.423378786855952 0.3222084036133358 2.479234470761864 0 0 0
19 0 1 -1.1104 4.02535784105824 -3.90979755575519 3.930316807166069 0 0 0
21 0 2 2.2208 2.6128627761695506 -2.4624002914570924 5.4133131565645405 0 0 0
23 0 1 -1.1104 3.8157357236480403 -1.1813027168626562 1.2376364742211552 0 0 0
24 0 1 -1.1104 4.063562437565438 -1.292872552627326 4.136217406236943 0 0 0
26 0 2 2.2208 -0.29678389948103717 0.29185962158336415 5.243191656418909 0 0 0
365 0 2 2.2208 2.618987082233317 -2.4954813048146534 -0.1882598852143877 0 0 0
201 0 2 2.2208 -0.3978771852386627 0.36909551151750064 11.108065461850508 0 0 0
163 0 1 -1.1104 9.62285539454011 15.776408082657431 6.590912721617104 0 0 0
368 0 2 2.2208 -0.3625731229615946 0.38745863635603905 -0.3275798127795462 0 0 0
25 0 2 2.2208 -0.4036496508669 -2.6204107021085767 2.628776697270832 0 0 0
364 0 2 2.2208 5.340862987340514 0.3852463856942243 -0.3692346530426948 0 0 0
311 0 2 2.2208 -0.37497794639464366 19.972755261306066 8.379756474069818 0 0 0
289 0 1 -1.1104 7.047007681793354 15.985204584835644 9.992132544801521 0 0 0
8 0 1 -1.1104 6.831549741840491 -3.8916074796596836 3.9352508917055853 0 0 0
4 0 1 -1.1104 6.711940552543528 -4.04550105576159 1.0970409541454098 0 0 0
15 0 1 -1.1104 6.803487300620562 -1.1023718664802349 4.0158260649415505 0 0 0
11 0 1 -1.1104 6.6486729808834895 -1.2249792146243086 1.00649436121136 0 0 0
31 0 2 2.2208 10.944862281958352 0.31739486267700984 5.205996348112649 0 0 0
32 0 1 -1.1104 12.575450809149498 -3.878530008010826 1.2312109642952282 0 0 0
34 0 1 -1.1104 12.76960355484099 -3.9064978797618104 4.054572253200545 0 0 0
36 0 1 -1.1104 12.425036731367712 -1.007146140837365 1.3167243711966778 0 0 0
37 0 2 2.2208 11.106452277799423 -2.6903064841722917 2.42322205810474 0 0 0
39 0 1 -1.1104 12.303339284534319 -1.2712796290468715 3.902923103925444 0 0 0
40 0 1 -1.1104 9.708747043246115 -3.959038180470019 0.9043212704378624 0 0 0
42 0 2 2.2208 8.167375872850366 0.28529353178087374 2.4828718031318657 0 0 0
43 0 1 -1.1104 9.7521375137975 -3.855233599221933 3.858314182045803 0 0 0
45 0 2 2.2208 8.165730595762206 -2.4948234501477624 5.459865899497651 0 0 0
47 0 1 -1.1104 9.641745227418829 -1.250968930539822 1.1835046048942248 0 0 0
48 0 1 -1.1104 9.418330009931292 -1.0217839307445866 3.9633482810912413 0 0 0
8827 0 2 2.2208 8.237644414707626 -5.3012452458149095 8.141101523061424 0 0 0
369 0 2 2.2208 11.18127229276285 0.46416169934084045 -0.29263175161019145 0 0 0
313 0 2 2.2208 -0.08453868126836642 14.132186492029547 8.318868369873815 0 0 0
7 0 1 -1.1104 1.2757198690613432 1.8376122294400727 3.8932478120381124 0 0 0
3 0 1 -1.1104 1.0685000757980494 1.75128035157363 1.168733092597436 0 0 0
13 0 2 2.2208 5.416269418788886 3.111621652113893 2.624193735521696 0 0 0
17 0 1 -1.1104 3.8972546179712313 1.7719106280692463 1.07839705911257 0 0 0
20 0 1 -1.1104 4.06826361660481 1.532695281281761 3.908086507792388 0 0 0
22 0 2 2.2208 2.542139961340759 2.995754215488167 5.199508261258519 0 0 0
54 0 2 2.2208 5.230965247250014 5.811622108367818 5.395078261470331 0 0 0
60 0 1 -1.1104 1.17087754854021 4.718176991324827 0.8376285137935767 0 0 0
67 0 1 -1.1104 1.262047627151103 4.503603781871859 3.542841658106378 0 0 0
72 0 2 2.2208 2.530533965337536 5.9690978298573505 2.4179418050434527 0 0 0
76 0 1 -1.1104 4.010749649205953 4.565119938616019 1.1757202512963012 0 0 0
79 0 1 -1.1104 3.812854424500267 4.154631855806093 3.832090567223211 0 0 0
74 0 1 -1.1104 3.9032388058603797 7.089071827388567 4.052071409463055 0 0 0
71 0 1 -1.1104 3.9288649899233725 7.4049389498937765 1.2764972091535565 0 0 0
58 0 1 -1.1104 1.106553986505306 7.305387732442558 3.6710388192464 0 0 0
56 0 1 -1.1104 1.1155772482585913 7.598754504522985 1.1003695861984635 0 0 0
366 0 2 2.2208 2.6063493187602846 3.134831211188687 -0.31552168491695953 0 0 0
81 0 2 2.2208 -0.28733088996961303 6.0912762342514535 5.291654919331915 0 0 0
346 0 2 2.2208 -0.19565275680376323 6.1238023499988214 -0.23265914934986975 0 0 0
27 0 2 2.2208 -0.17358306681323316 3.2830535200423134 2.5997086171455406 0 0 0
69 0 1 -1.1104 6.760886031462576 4.460852527814128 4.199343451121825 0 0 0
63 0 1 -1.1104 6.9008035680506365 4.491425855643318 1.2278350336693782 0 0 0
57 0 1 -1.1104 6.631500333918307 7.4211615458125575 1.2308686757119918 0 0 0
9 0 1 -1.1104 6.9461590082938685 1.771556450027668 4.117819330318518 0 0 0
5 0 1 -1.1104 6.7938242783143235 1.5630162394435172 1.1111422111559006 0 0 0
33 0 1 -1.1104 12.575958241050758 1.6760700002925186 1.1540569075368348 0 0 0
35 0 1 -1.1104 12.393188693709337 1.7412072639337222 4.1057160842351434 0 0 0
38 0 2 2.2208 11.156226888252494 3.286904263202401 2.5903181490748888 0 0 0
41 0 1 -1.1104 9.469118834682964 1.4995544619117744 1.002464987736157 0 0 0
44 0 1 -1.1104 9.750262056085997 1.6795077644648873 3.7442383285375023 0 0 0
46 0 2 2.2208 8.346430391046654 3.095698465211163 5.286532080400764 0 0 0
84 0 2 2.2208 11.075141055191256 6.002545893744724 5.405345546943647 0 0 0
88 0 1 -1.1104 12.413966153697766 4.647912703421229 1.2491486711740807 0 0 0
92 0 1 -1.1104 12.655749294020273 4.710291406754779 4.007556523890289 0 0 0
95 0 2 2.2208 8.26703461289742 6.08969673491403 2.50354285726526 0 0 0
99 0 1 -1.1104 9.861319157631852 4.339917825292046 0.9989909852334918 0 0 0
102 0 1 -1.1104 9.685804146827836 4.6643383522388 3.791756755408463 0 0 0
94 0 1 -1.1104 9.568260631008469 7.3320188290140145 1.162391527260824 0 0 0
97 0 1 -1.1104 9.578897932221416 7.351612118966192 4.072946011129369 0 0 0
86 0 1 -1.1104 12.289539008370772 7.365428658175807 1.1379548517888687 0 0 0
87 0 1 -1.1104 12.453023151217678 7.431952481869938 3.912801505407758 0 0 0
372 0 2 2.2208 8.067047827716696 2.9653264106824726 -0.21131752070264098 0 0 0
340 0 2 2.2208 10.991591174799545 5.782080000898478 -0.29929299716986413 0 0 0
82 0 2 2.2208 -0.24937271752586204 8.888563702719914 2.610613233705229 0 0 0
355 0 2 2.2208 5.222786966499882 11.587119050463311 -0.1996568260123306 0 0 0
55 0 2 2.2208 5.484008938895991 11.590919661787547 5.634338020344745 0 0 0
61 0 1 -1.1104 1.2645987600882211 10.323757064446959 1.3789007751919162 0 0 0
66 0 2 2.2208 5.248049391223248 8.812564359429677 2.6165276921497247 0 0 0
68 0 1 -1.1104 0.8676204250069527 10.228916938331677 4.0504488933460285 0 0 0
73 0 2 2.2208 2.5881740097176476 11.611027913958761 2.6580512636606746 0 0 0
75 0 2 2.2208 2.5962819800855352 8.730554382272432 5.372186529994823 0 0 0
77 0 1 -1.1104 3.8849585428783224 9.9925516825605 1.0804089380100086 0 0 0
80 0 1 -1.1104 3.902402526537431 9.902331125964329 3.9056886311481724 0 0 0
107 0 1 -1.1104 1.0080521630071317 13.030136048568355 1.2537522053769246 0 0 0
113 0 1 -1.1104 1.2300296779679658 13.001771654065235 4.048250322631348 0 0 0
123 0 1 -1.1104 3.9014893935640638 12.923719593523462 1.2342088747081208 0 0 0
128 0 1 -1.1104 4.003328115115258 12.770421550476994 4.134275277104219 0 0 0
323 0 1 -1.1104 12.288982279073547 15.7306403359972 9.646482820403731 0 0 0
376 0 2 2.2208 2.5016588559440875 8.763574290274768 -0.20287784687708396 0 0 0
320 0 2 2.2208 8.280320105224536 17.19268981645737 8.249478440310615 0 0 0
336 0 2 2.2208 7.993846495778493 8.851124725583999 -0.21428507037076988 0 0 0
59 0 1 -1.1104 6.834656214104727 7.32633128862906 3.897319193346243 0 0 0
110 0 1 -1.1104 6.6531839406267 12.85173191427672 1.336882004739145 0 0 0
70 0 1 -1.1104 6.805448349781942 10.094185057177233 4.100444932781212 0 0 0
115 0 1 -1.1104 6.720179857120572 12.83221498696444 4.260114548592328 0 0 0
64 0 1 -1.1104 6.641143309510104 10.12149669029461 1.1615847446790974 0 0 0
85 0 2 2.2208 10.979900667824133 11.603315044940427 5.2953328368727615 0 0 0
89 0 1 -1.1104 12.32982363982613 10.288580873332023 1.3144817164482325 0 0 0
91 0 2 2.2208 10.954591313585583 8.783435813284482 2.5307598185429807 0 0 0
93 0 1 -1.1104 12.274838472952748 10.020461259295002 3.9688879150281893 0 0 0
96 0 2 2.2208 8.072557306386848 11.481426931791722 2.7516836079345093 0 0 0
98 0 2 2.2208 8.23722860753318 8.80837784036199 5.660176397012708 0 0 0
100 0 1 -1.1104 9.38624474573459 10.174809057880527 1.4869736664042588 0 0 0
103 0 1 -1.1104 9.444503018504216 10.382376433540236 4.251149077832986 0 0 0
142 0 1 -1.1104 12.39927411953192 13.087401382126554 1.2840940183354799 0 0 0
146 0 1 -1.1104 12.465047092866909 12.946555825373496 3.9884362690861286 0 0 0
153 0 1 -1.1104 9.410423850854855 13.020062499657868 1.3158087709096693 0 0 0
158 0 1 -1.1104 9.903207828399427 13.099296657529422 3.9783228926344574 0 0 0
334 0 2 2.2208 11.172005451674938 11.63065086089358 -0.013014321582590724 0 0 0
135 0 2 2.2208 -0.3729445648559176 14.375224460565736 2.5308325923551767 0 0 0
373 0 2 2.2208 2.4476879598573094 14.344704412042994 -0.18482659180948413 0 0 0
374 0 2 2.2208 5.198754686335226 17.148053222179378 -0.23998915886532474 0 0 0
136 0 2 2.2208 -0.2929725305811837 19.925345098770062 2.6610196031908977 0 0 0
130 0 2 2.2208 2.616892420736768 14.249808521382613 5.4425366963179425 0 0 0
119 0 2 2.2208 5.309344582710065 14.238738464338534 2.5950459984990855 0 0 0
106 0 2 2.2208 5.395574340595397 17.284361631943774 5.487675590919552 0 0 0
109 0 1 -1.1104 1.1552453792718178 18.45435629730424 1.2582354189559894 0 0 0
114 0 1 -1.1104 0.8800159448576478 18.237881318267586 3.9084308463534883 0 0 0
116 0 1 -1.1104 1.1164656800917097 15.696501847353135 1.1429767837710911 0 0 0
120 0 2 2.2208 5.289980627492353 19.85341527291679 2.5064779014964236 0 0 0
121 0 1 -1.1104 0.9424467674681337 15.585580822929908 3.9761877715708436 0 0 0
125 0 1 -1.1104 3.9256048118466973 18.447476923383523 1.1427225691753111 0 0 0
127 0 2 2.2208 2.399474491918379 17.039653798241456 2.6008785685816136 0 0 0
129 0 1 -1.1104 4.049399161619652 18.579619812000423 4.022399477944311 0 0 0
131 0 2 2.2208 2.6291589522917698 20.000848288126118 5.47426853039093 0 0 0
132 0 1 -1.1104 3.899956918566087 15.860829144557766 1.3137744227336343 0 0 0
134 0 1 -1.1104 4.0387869409397865 15.795522892942786 4.082209865145949 0 0 0
375 0 2 2.2208 2.5778171960131964 20.02002219629663 -0.18374118475554801 0 0 0
29 0 2 2.2208 -0.18781692872775504 5.787500427077762 10.851193967024633 0 0 0
317 0 2 2.2208 8.223202307824092 14.306252465748617 11.293162456636281 0 0 0
348 0 2 2.2208 11.033384044643572 17.29474715761711 -0.32735625223535186 0 0 0
349 0 2 2.2208 8.403209039569447 19.97528392878199 -0.12142077245797249 0 0 0
347 0 2 2.2208 8.101092133840298 14.44197390704352 -0.21772962613180266 0 0 0
122 0 1 -1.1104 6.823879968266275 15.5734539510153 3.9795969111309346 0 0 0
140 0 1 -1.1104 6.568183066433692 15.771146089506239 1.125656981685662 0 0 0
160 0 2 2.2208 8.232713482921909 14.32526216999478 5.3346256609341465 0 0 0
150 0 2 2.2208 11.21786042350115 14.39848675264965 2.7249228212647556 0 0 0
139 0 1 -1.1104 6.827492333631171 18.626899961053144 3.8587914495196625 0 0 0
138 0 1 -1.1104 6.804215277759802 18.413924252649867 1.2210609556985226 0 0 0
141 0 2 2.2208 11.010470206337839 17.18755089271309 5.3961471805013455 0 0 0
144 0 1 -1.1104 12.516924617085452 18.643513472608106 0.9931931275485077 0 0 0
147 0 1 -1.1104 12.462141351484325 18.640860049731497 3.9573773018608565 0 0 0
148 0 1 -1.1104 12.655751788575193 15.777298434249127 1.2766723448569175 0 0 0
151 0 2 2.2208 10.954668899950413 19.873188115694933 2.587270940482272 0 0 0
152 0 1 -1.1104 12.416578290511135 15.747061334556115 4.074417089741176 0 0 0
155 0 1 -1.1104 9.664271939791897 18.864681276322592 1.2779576986741952 0 0 0
157 0 2 2.2208 8.0531480968536 17.06541101496286 2.690470271727597 0 0 0
159 0 1 -1.1104 9.686837276612929 18.4901254122909 3.879203326147815 0 0 0
161 0 2 2.2208 8.273206659634697 19.924809376460626 5.505776184721438 0 0 0
162 0 1 -1.1104 9.549993305862218 16.032193435750184 1.106422159725015 0 0 0
164 0 1 -1.1104 9.632432362982357 15.723600070118422 3.759089407788579 0 0 0
200 0 2 2.2208 -0.14953715122760622 -2.514247390397509 8.231968534426537 0 0 0
170 0 1 -1.1104 1.3577087939422239 -1.1104251713042597 6.709297226604484 0 0 0
166 0 1 -1.1104 1.3498521420240839 -3.9723934165520816 6.6313117689423065 0 0 0
172 0 1 -1.1104 4.222617379369653 -3.8482590852022964 6.692175729335745 0 0 0
174 0 1 -1.1104 3.873536478675575 -1.001047477772741 6.786662669885418 0 0 0
175 0 2 2.2208 5.352551508543377 0.2718026093544625 11.02853565232043 0 0 0
176 0 1 -1.1104 1.3063480963276912 -3.702441568762721 12.548920946709428 0 0 0
180 0 1 -1.1104 1.1434608131609354 -3.8683331904038982 9.641528016743333 0 0 0
184 0 1 -1.1104 1.400386896040104 -0.9541436216784255 11.995647557280192 0 0 0
186 0 2 2.2208 5.3210378555833415 -2.4769753468606392 8.219228167999052 0 0 0
188 0 1 -1.1104 0.8960962209541361 -1.1730923327755922 9.55443404885199 0 0 0
190 0 1 -1.1104 4.128233784763009 -3.9697461143006683 12.29434586578547 0 0 0
192 0 2 2.2208 2.559623681473907 0.28987062300784266 8.112822334758375 0 0 0
193 0 1 -1.1104 3.873539688180958 -4.059173542459183 9.659633896268693 0 0 0
195 0 2 2.2208 2.7192608367203177 -2.554914600604749 10.9724657935641 0 0 0
197 0 1 -1.1104 4.12873010590864 -1.0853980245673114 12.36935522405402 0 0 0
198 0 1 -1.1104 3.7996182870223723 -1.3444953973568992 9.429195414255185 0 0 0
137 0 2 2.2208 -0.2534050011880532 17.040872925991902 5.600682088588522 0 0 0
205 0 1 -1.1104 12.398760991533997 -3.961920621294001 6.795099869077678 0 0 0
168 0 1 -1.1104 6.93640910891573 -3.8646684603054426 6.853127297733968 0 0 0
207 0 1 -1.1104 12.508024819420987 -1.0921852828928469 6.690729363727204 0 0 0
210 0 1 -1.1104 9.812104905784047 -1.1560535968481676 6.650222182777489 0 0 0
171 0 1 -1.1104 6.6409197579524575 -1.0715703004970918 6.863357085229587 0 0 0
182 0 1 -1.1104 6.625286709725177 -3.943589167547511 9.532336273844106 0 0 0
208 0 1 -1.1104 9.704155777953268 -3.8411029423372285 6.620532202409474 0 0 0
185 0 1 -1.1104 6.916941709346287 -1.0934387904639677 12.346780085782202 0 0 0
178 0 1 -1.1104 6.842202794964503 -4.154439923181704 12.281340680661225 0 0 0
189 0 1 -1.1104 6.794963979038998 -0.9547852222797129 9.47635840363394 0 0 0
211 0 2 2.2208 10.95442699066508 0.2719659373854276 11.042299554550146 0 0 0
212 0 1 -1.1104 12.589919792861231 -3.9724913376157214 12.310325438278593 0 0 0
214 0 1 -1.1104 12.4365660457234 -3.894637918766699 9.367935971632809 0 0 0
216 0 1 -1.1104 12.547836832086006 -1.127659282957494 12.598294722571767 0 0 0
217 0 2 2.2208 11.088269217230872 -2.4904500626617145 8.164775756356633 0 0 0
219 0 1 -1.1104 12.295145297864869 -1.183787381931392 9.540698376578977 0 0 0
220 0 1 -1.1104 9.661118998932585 -3.670421434113199 12.186335702487673 0 0 0
222 0 2 2.2208 8.24378684784883 0.17190147390381832 8.081699718843629 0 0 0
223 0 1 -1.1104 9.685021541143724 -3.874431998846396 9.41826231790584 0 0 0
225 0 2 2.2208 8.208469955364286 -2.4121031502433707 11.066192681048397 0 0 0
227 0 1 -1.1104 9.888591821926585 -1.0633542758894945 12.36048674227452 0 0 0
228 0 1 -1.1104 9.409261717777381 -1.1715815734027326 9.435808766384048 0 0 0
83 0 2 2.2208 -0.3966304753064911 11.524368606914539 5.465199490277137 0 0 0
173 0 1 -1.1104 4.236039031723064 2.041543046954468 6.714134755130808 0 0 0
236 0 1 -1.1104 1.0588641038421396 4.476181297870393 6.4926630559432725 0 0 0
167 0 1 -1.1104 1.2607934381589379 1.6195810668739605 6.824318274845787 0 0 0
239 0 1 -1.1104 3.9445814987740246 4.65610232972225 6.875261377729152 0 0 0
234 0 1 -1.1104 1.2593935604540243 7.270124465529862 6.518515395083967 0 0 0
238 0 1 -1.1104 4.041340500779683 7.4409280883978886 6.8126570904823724 0 0 0
177 0 1 -1.1104 1.0649600823287555 1.724401152523248 12.41733328437642 0 0 0
181 0 1 -1.1104 1.002874458907967 1.7428602485373488 9.572212203046607 0 0 0
187 0 2 2.2208 5.451651851710588 3.2276213900216315 8.236322768474398 0 0 0
191 0 1 -1.1104 3.9965143108553836 1.6962933615242952 12.42030925227155 0 0 0
194 0 1 -1.1104 3.801254332327844 1.7317068517330443 9.435489354371066 0 0 0
196 0 2 2.2208 2.4151025822418717 3.1497467907871015 11.067858476095013 0 0 0
240 0 2 2.2208 5.37715229441719 6.023912172705163 10.780813752176238 0 0 0
246 0 1 -1.1104 1.1917307806924975 4.537415058186475 12.45873209154546 0 0 0
251 0 1 -1.1104 1.083274905809992 4.546138520143876 9.432690139687809 0 0 0
256 0 2 2.2208 2.6653773155340144 6.090578216212421 8.001583152102326 0 0 0
260 0 1 -1.1104 4.23063100083541 4.690840937618112 12.27709888201728 0 0 0
262 0 1 -1.1104 3.9333846223245374 4.614739047599046 9.534050328656374 0 0 0
258 0 1 -1.1104 3.8541786398834277 7.438996603337797 9.426431070798278 0 0 0
244 0 1 -1.1104 0.9037340551068599 7.212354988674116 9.401978259370207 0 0 0
255 0 1 -1.1104 3.874974105525841 7.371050220483974 12.421249715735037 0 0 0
242 0 1 -1.1104 1.012006290607454 7.111098943722227 12.54869707871599 0 0 0
326 0 1 -1.1104 12.444127853160595 15.970389157739934 12.62855671803794 0 0 0
199 0 2 2.2208 -0.23383084846429736 2.983266279188746 8.062802380644886 0 0 0
235 0 1 -1.1104 6.859610609608109 7.320197758702374 6.816512428639435 0 0 0
209 0 1 -1.1104 9.872640070706579 1.6666260372379023 6.750701521070558 0 0 0
206 0 1 -1.1104 12.673941916255886 1.7992306012184227 6.864929222383051 0 0 0
265 0 1 -1.1104 12.672233650397317 7.193290612183094 6.64651676290968 0 0 0
269 0 1 -1.1104 9.458319998317682 4.664209688121972 6.6337603904439035 0 0 0
266 0 1 -1.1104 12.242576139104473 4.45833506651429 6.905437172791055 0 0 0
237 0 1 -1.1104 6.6937774007421895 4.728882872895321 6.819074633462811 0 0 0
245 0 1 -1.1104 6.673387621212132 7.517526798236337 9.605611084756683 0 0 0
243 0 1 -1.1104 6.702150397270506 7.374854582752976 12.521864994406895 0 0 0
248 0 1 -1.1104 7.029706115811733 4.580379002403423 12.37012336210987 0 0 0
169 0 1 -1.1104 7.151997078855404 1.7457705623047852 6.7789208630638855 0 0 0
253 0 1 -1.1104 6.664532279294702 4.417987349964038 9.643411532269967 0 0 0
179 0 1 -1.1104 6.877884549069919 1.6818431816288577 12.543555064918419 0 0 0
183 0 1 -1.1104 6.57664107695685 1.6796243538997184 9.643884763700644 0 0 0
267 0 1 -1.1104 9.655820491632571 7.455761254792293 7.022422854643791 0 0 0
213 0 1 -1.1104 12.669387738306616 1.6529011828402596 12.465534033105065 0 0 0
215 0 1 -1.1104 12.317890760176994 1.6958411947144287 9.623450599892864 0 0 0
218 0 2 2.2208 11.099681557575657 2.9760873371246093 8.23220065115392 0 0 0
221 0 1 -1.1104 9.754406479981288 1.6152631047065538 12.415330306998335 0 0 0
224 0 1 -1.1104 9.369794555821567 1.4860866278282416 9.646819349972903 0 0 0
226 0 2 2.2208 8.09864745691732 3.0112738757202773 10.966234156407225 0 0 0
268 0 1 -1.1104 9.508495212689319 4.255828555199932 9.595238064135437 0 0 0
271 0 1 -1.1104 9.906642411342734 4.268714841077443 12.387988580794858 0 0 0
275 0 2 2.2208 8.154280665767718 5.971982706733779 8.194821499220916 0 0 0
276 0 2 2.2208 10.944500362561893 6.018890234898953 11.1251430788656 0 0 0
278 0 1 -1.1104 12.224516709799705 7.6074840052687165 12.45873553915631 0 0 0
280 0 1 -1.1104 12.606957484927957 4.453832481788478 12.489256195195685 0 0 0
283 0 1 -1.1104 12.301576043403887 4.525055142878594 9.570398898737166 0 0 0
285 0 1 -1.1104 9.419079345971765 7.105182355983689 12.400908441889824 0 0 0
273 0 1 -1.1104 9.702696677644303 7.134003813193564 9.648098477972546 0 0 0
279 0 1 -1.1104 12.562233628533313 7.364284316396679 9.876990002714626 0 0 0
30 0 2 2.2208 -0.3707342256773372 8.733788601952405 8.301370355651363 0 0 0
379 0 2 2.2208 5.271530952042072 5.961687334605586 -0.19395099478384709 0 0 0
62 0 1 -1.1104 1.1124085925578133 9.980637125794743 6.803456614343213 0 0 0
78 0 1 -1.1104 3.8832384933517505 10.40363606172389 6.6438890849691425 0 0 0
108 0 1 -1.1104 1.259405005303633 12.824083946021338 6.812006709876868 0 0 0
124 0 1 -1.1104 3.9879263596499777 13.088285879166751 6.958458699920595 0 0 0
241 0 2 2.2208 5.444000619142016 11.572869379238352 11.050694704459774 0 0 0
247 0 1 -1.1104 1.1623565276778207 9.869046920381383 12.620354508618723 0 0 0
250 0 2 2.2208 5.307599178644547 8.872088092194558 8.070457468967774 0 0 0
252 0 1 -1.1104 1.0067652730525936 9.990678199088107 9.8441877952403 0 0 0
257 0 2 2.2208 2.4429449322000636 11.604372720527644 8.246413645752435 0 0 0
259 0 2 2.2208 2.4889635803627543 8.648479534286995 11.007890384745247 0 0 0
261 0 1 -1.1104 3.8013359769698942 10.258545932545863 12.259210133522789 0 0 0
263 0 1 -1.1104 4.010923002414448 10.085675104300435 9.384712907267861 0 0 0
305 0 1 -1.1104 3.9402788138385154 12.851679374172065 9.69289202392894 0 0 0
299 0 1 -1.1104 1.1642426642200963 12.70130499064332 12.628963997601533 0 0 0
294 0 1 -1.1104 1.2733945520363674 12.6754598273673 9.77273400602157 0 0 0
287 0 1 -1.1104 3.9958490691779343 12.890976469828017 12.540161405515423 0 0 0
249 0 1 -1.1104 6.578400914041685 10.189908516077178 12.772652034745768 0 0 0
111 0 1 -1.1104 6.778821942146637 13.11828187529568 6.995905509145325 0 0 0
254 0 1 -1.1104 6.85508779435148 10.07089095412071 9.933350581974175 0 0 0
154 0 1 -1.1104 9.528477733133295 13.108569452356669 6.925560488384134 0 0 0
101 0 1 -1.1104 9.428818452214381 10.299840526658087 7.073231606438876 0 0 0
143 0 1 -1.1104 12.42292583314053 12.909308384496974 6.92456559496812 0 0 0
90 0 1 -1.1104 12.425147269395547 9.824289157343223 6.966008946593685 0 0 0
65 0 1 -1.1104 6.72938200239773 10.304163638825713 7.076880302263581 0 0 0
290 0 1 -1.1104 6.573261920156683 13.207327220774904 9.823576793651773 0 0 0
297 0 1 -1.1104 6.762654830558553 12.903580379089693 12.599738929453009 0 0 0
264 0 1 -1.1104 9.464683425337501 9.785075477472823 9.858446543847561 0 0 0
270 0 1 -1.1104 9.153660351658468 9.794490210897798 12.97089622447445 0 0 0
272 0 2 2.2208 7.932017660930288 8.679365471084443 11.20478938013847 0 0 0
274 0 2 2.2208 8.112263991886348 11.577373427668444 8.425005905701182 0 0 0
277 0 2 2.2208 10.984526390573436 11.527958045308432 11.150426606658732 0 0 0
281 0 1 -1.1104 12.221873972736601 10.271653235064111 12.546122667817833 0 0 0
282 0 2 2.2208 11.139333748679347 8.640997967521457 8.490859917054468 0 0 0
284 0 1 -1.1104 12.410158029828496 10.124523354968082 9.728484973045003 0 0 0
330 0 1 -1.1104 12.435202398017532 13.080965418435573 12.545883999233522 0 0 0
328 0 1 -1.1104 12.313044792866892 13.016072874079404 9.580434040130761 0 0 0
322 0 1 -1.1104 9.724882618978489 12.851386606165983 12.670098914168799 0 0 0
319 0 1 -1.1104 9.347221796272176 12.587189730927227 9.970920079845017 0 0 0
133 0 1 -1.1104 3.880609169966192 15.816212564151924 7.031580584202805 0 0 0
126 0 1 -1.1104 3.9036451763928466 18.635515865880052 6.92921269783693 0 0 0
117 0 1 -1.1104 1.085888104445672 15.520514792730538 6.804238126410502 0 0 0
302 0 1 -1.1104 1.002843806716996 18.441582593127357 6.893879612396542 0 0 0
295 0 2 2.2208 5.350010401808718 14.5335904858574 8.291054658097107 0 0 0
310 0 2 2.2208 2.686414981707706 14.123010836347374 11.22160079449954 0 0 0
286 0 1 -1.1104 3.850308169837881 18.79598589167032 12.593316665250233 0 0 0
304 0 1 -1.1104 3.8951978776892355 15.676423275274068 9.66947060031089 0 0 0
293 0 2 2.2208 5.328722498500889 20.0040463552356 8.389728137190927 0 0 0
292 0 1 -1.1104 1.1489554573317375 15.562730915991802 9.699261311637887 0 0 0
291 0 1 -1.1104 0.9818188872968605 18.299240733227773 9.736171236287738 0 0 0
307 0 1 -1.1104 1.336631947885073 15.572291854994157 12.650542545422304 0 0 0
303 0 2 2.2208 2.381252098782602 16.910729084296488 8.175096496047585 0 0 0
301 0 1 -1.1104 3.876933132819321 18.33105392456285 9.675503807295629 0 0 0
300 0 2 2.2208 5.443524042106899 17.388551899451624 11.02318829829297 0 0 0
298 0 1 -1.1104 1.2592397299584008 18.471560468678092 12.459365413988108 0 0 0
309 0 2 2.2208 2.4776950679882095 20.168359320596522 11.28293389978755 0 0 0
308 0 1 -1.1104 4.12446110991493 16.045731410085043 12.58687852096599 0 0 0
371 0 2 2.2208 -0.2635630749550841 17.127076081169694 -0.180841890378357 0 0 0
321 0 1 -1.1104 9.516141158601807 18.58575368946331 12.461714231462489 0 0 0
312 0 2 2.2208 -0.4134719331491681 16.91973230871062 11.058302353337123 0 0 0
118 0 1 -1.1104 6.760150593670688 15.879349783280626 6.847763341959228 0 0 0
314 0 1 -1.1104 9.656237507204041 15.568455533740472 9.380200010445249 0 0 0
331 0 2 2.2208 11.046619721291776 16.998149582014406 10.996144463595352 0 0 0
318 0 1 -1.1104 9.500701418733174 18.43472579378017 9.654768103630634 0 0 0
296 0 1 -1.1104 6.5865861900961065 18.676520110494742 12.570845147214015 0 0 0
288 0 1 -1.1104 6.620512000091763 18.662812630742003 9.684778356519388 0 0 0
315 0 1 -1.1104 9.563399854646505 15.882153823749459 12.216449254871588 0 0 0
329 0 1 -1.1104 12.534717119275724 18.648414869071313 12.440013424162698 0 0 0
325 0 2 2.2208 11.02129893594872 14.288009353231677 8.13638142732524 0 0 0
327 0 1 -1.1104 12.319074736869426 18.496198026102615 9.271944448963778 0 0 0
306 0 1 -1.1104 6.6788517087099155 15.778160954616363 12.944241242713641 0 0 0
316 0 2 2.2208 8.197517607514781 20.057575817807678 11.131006211062672 0 0 0
112 0 1 -1.1104 6.764192970837359 18.609340187421893 6.744628351998177 0 0 0
324 0 2 2.2208 11.03524162349448 20.05109037954063 8.262473615809403 0 0 0
145 0 1 -1.1104 12.247106381982205 19.011628132103503 6.659658457560752 0 0 0
149 0 1 -1.1104 12.436944712350057 15.739831551179451 6.824626865179014 0 0 0
156 0 1 -1.1104 9.56938897328956 18.371251686930798 6.782864756633347 0 0 0
51 0 2 2.2208 -0.37322245817222505 11.440976443621743 11.093255000691896 0 0 0
230 0 2 2.2208 13.639212921843304 8.668548523154726 -0.1534013664188384 0 0 0
350 0 2 2.2208 -0.3478330346617473 11.482137200656874 -0.12425406244505838 0 0 0
339 0 2 2.2208 2.4906905319778896 0.38945630702938083 13.579320595264116 0 0 0
8818 0 2 2.2208 2.4995927097412003 -5.257087501411775 2.6456558337021985 0 0 0
8822 0 2 2.2208 11.128796692612177 -5.3151923064081075 5.281250075388248 0 0 0
370 0 2 2.2208 8.057642611859675 -2.7666476577267143 -0.29046881312503814 0 0 0
380 0 2 2.2208 5.450953121959513 0.19985635134068544 16.73514500539623 0 0 0
381 0 1 -1.1104 1.20948895407369 -4.027162868644874 18.006391463076692 0 0 0
385 0 1 -1.1104 0.8318321460692629 -4.171938555700187 15.324062082176612 0 0 0
393 0 1 -1.1104 1.3522384366362348 -1.1099508665913789 18.1940250798519 0 0 0
395 0 2 2.2208 5.3995807822918485 -2.5010769004212006 19.59842434110108 0 0 0
397 0 1 -1.1104 1.1472546716687184 -1.4694754938338197 15.377210233206696 0 0 0
401 0 1 -1.1104 3.910696223088789 -3.786994320188702 18.26779857050853 0 0 0
403 0 2 2.2208 2.5635223761231822 0.41312377695203956 19.534577994368394 0 0 0
404 0 1 -1.1104 3.882248856129387 -4.102949285711393 15.505001334819248 0 0 0
408 0 2 2.2208 2.5218324946313695 -2.5032751450714406 16.65265424850176 0 0 0
410 0 1 -1.1104 4.154411021237831 -1.1707710663119688 18.217213513884094 0 0 0
411 0 1 -1.1104 3.7313207586453916 -1.2178772026316647 15.12736315614946 0 0 0
8873 0 2 2.2208 2.506580547179354 -5.236144566335389 24.983917226920436 0 0 0
338 0 2 2.2208 5.5334053557935166 -2.6432085501903284 13.833310550699615 0 0 0
389 0 1 -1.1104 6.956799336084025 -4.088719453679973 15.11666967746816 0 0 0
416 0 2 2.2208 -0.15032558724378636 0.2485971275929922 16.703663936660817 0 0 0
417 0 2 2.2208 -0.18107046546378297 -2.451915272711643 19.55506331791513 0 0 0
335 0 2 2.2208 -0.14083809417116863 20.106397298318342 14.021473122401082 0 0 0
9488 0 2 2.2208 -0.396957137668196 -2.5999731947152536 14.072457015533757 0 0 0
638 0 2 2.2208 -0.2931819917402301 14.259617433253005 25.263306357587194 0 0 0
399 0 1 -1.1104 6.601208479204446 -1.0237101798880777 15.247651621661646 0 0 0
394 0 1 -1.1104 6.914814374175658 -1.1355383232725538 18.29316017487269 0 0 0
383 0 1 -1.1104 6.463901706985225 -3.7935414023542964 17.932490984035578 0 0 0
423 0 2 2.2208 11.055673614925597 0.4269147154663082 16.679048942673933 0 0 0
424 0 1 -1.1104 12.345863944576001 -3.9968558160280576 18.202155642511293 0 0 0
426 0 1 -1.1104 12.433701585721328 -3.944916623963628 15.32654946288932 0 0 0
430 0 1 -1.1104 12.455902607962203 -0.9812788926765221 18.164844430147557 0 0 0
431 0 2 2.2208 11.034698164578309 -2.5559754767411405 19.477028902581637 0 0 0
433 0 1 -1.1104 12.318807018354963 -1.2005594528114796 15.372797250515342 0 0 0
435 0 1 -1.1104 9.60905518592358 -3.9521128644236536 18.115372291117623 0 0 0
437 0 2 2.2208 8.300926532686168 0.34639040676676897 19.51093726096368 0 0 0
438 0 1 -1.1104 9.681463416166407 -4.031609511907045 15.305132617344526 0 0 0
442 0 2 2.2208 8.252173789684814 -2.5301858172395137 16.83675453497285 0 0 0
444 0 1 -1.1104 9.6349757905028 -1.2407866187076613 18.09910787831257 0 0 0
445 0 1 -1.1104 9.450984247316391 -1.0736691706383092 15.04069657404791 0 0 0
343 0 2 2.2208 8.193479618014676 0.38258943902392534 13.876587620001567 0 0 0
715 0 2 2.2208 10.956890075968522 -2.479836754044211 13.822489900608497 0 0 0
8908 0 2 2.2208 -0.2587657296854518 -5.259548244214386 22.29952846798924 0 0 0
337 0 2 2.2208 -0.2574312121610327 3.1470662529023645 14.016846298832228 0 0 0
351 0 2 2.2208 2.479265624722209 6.019258651674907 13.99948287716057 0 0 0
341 0 2 2.2208 5.347499227508149 3.2759175177832787 13.864415899075224 0 0 0
382 0 1 -1.1104 0.994105274510852 1.8094502412997504 18.22408874988136 0 0 0