ITEM: TIMESTEP
100000
ITEM: NUMBER OF ATOMS
17700
ITEM: BOX BOUNDS pp pp pp
-3.1852106570771704e-01 2.7658521065708253e+01
-3.8562275320470096e+00 3.3193622753205119e+02
-3.2830240098102614e-01 2.7668302400979695e+01
ITEM: ATOMS id type q x y z
1 2 2.2208 5.30676 1.70123 5.25756
2 1 -1.1104 1.04627 -2.27263 1.07162
3 1 -1.1104 1.1583 3.31017 1.17167
6 1 -1.1104 1.05862 -2.42494 3.84019
7 1 -1.1104 1.06804 3.10974 3.95162
10 1 -1.1104 1.09951 0.500012 1.0596
12 2 2.2208 5.27007 -0.956305 2.46684
13 2 2.2208 5.27979 4.51549 2.52121
14 1 -1.1104 1.11567 0.355802 3.83112
16 1 -1.1104 3.80946 -2.39206 1.03505
17 1 -1.1104 3.89473 3.10019 1.0598
18 2 2.2208 2.43518 1.80952 2.55189
19 1 -1.1104 3.87734 -2.45131 3.89927
20 1 -1.1104 3.91249 3.08873 3.82652
21 2 2.2208 2.46205 -1.15338 5.31982
22 2 2.2208 2.46333 4.50452 5.20462
23 1 -1.1104 3.92215 0.355478 1.17301
24 1 -1.1104 3.87834 0.265669 3.98119
8 1 -1.1104 6.74727 -2.32471 3.7833
4 1 -1.1104 6.65636 -2.47032 1.10758
15 1 -1.1104 6.64898 0.39122 3.96137
172 1 -1.1104 3.8275 -2.60603 6.70415
166 1 -1.1104 1.04341 -2.50946 6.66728
167 1 -1.1104 1.06924 3.09317 6.67184
8839 2 2.2208 2.40844 -3.77231 2.4526
8840 2 2.2208 5.21609 -3.80948 5.27497
171 1 -1.1104 6.61947 0.385079 6.79243
8845 2 2.2208 2.40661 -3.90342 8.09174
17388 2 2.2208 13.5947 -3.82627 13.6361
315 1 -1.1104 9.49225 17.2375 12.3184
373 2 2.2208 2.43221 15.8462 -0.277816
8842 2 2.2208 8.05963 -3.77243 2.53231
11 1 -1.1104 6.62664 0.39271 1.23168
9 1 -1.1104 6.62362 3.13813 3.87871
5 1 -1.1104 6.71491 3.18979 1.08013
169 1 -1.1104 6.70404 3.21555 6.71646
31 2 2.2208 10.8153 1.774 5.34925
32 1 -1.1104 12.2952 -2.29929 1.15308
33 1 -1.1104 12.1832 3.18152 1.1164
34 1 -1.1104 12.2435 -2.46831 3.93258
35 1 -1.1104 12.1855 3.15086 3.91486
36 1 -1.1104 12.1209 0.505018 1.16983
37 2 2.2208 10.8259 -0.965769 2.50785
38 2 2.2208 10.7611 4.65891 2.5225
39 1 -1.1104 12.2197 0.315892 4.04059
40 1 -1.1104 9.45202 -2.42111 1.04247
41 1 -1.1104 9.45214 3.13023 1.12821
42 2 2.2208 8.11533 1.81327 2.47385
43 1 -1.1104 9.48809 -2.444 3.89503
44 1 -1.1104 9.42864 3.29837 3.92714
45 2 2.2208 8.04374 -1.04739 5.26209
46 2 2.2208 8.10866 4.58941 5.34942
47 1 -1.1104 9.37844 0.420983 1.09908
48 1 -1.1104 9.4775 0.412959 3.88576
208 1 -1.1104 9.40264 -2.4348 6.74644
28 2 2.2208 13.6137 21.3056 10.7992
8848 2 2.2208 7.98028 -3.79552 8.08489
8843 2 2.2208 10.836 -3.90042 5.37254
207 1 -1.1104 12.2988 0.380292 6.83839
8849 2 2.2208 10.7113 -3.83079 10.9277
206 1 -1.1104 12.2906 3.21849 6.65221
317 2 2.2208 7.9183 15.8497 10.9525
54 2 2.2208 5.20953 7.29949 5.35301
55 2 2.2208 5.15106 12.9275 5.27352
56 1 -1.1104 1.11979 8.7756 1.01608
58 1 -1.1104 1.02554 8.75041 3.81579
60 1 -1.1104 1.04463 6.05873 0.966889
61 1 -1.1104 1.00753 11.5667 1.11222
66 2 2.2208 5.22844 10.1276 2.48358
67 1 -1.1104 1.09214 5.93856 3.9445
68 1 -1.1104 1.03108 11.637 3.93528
71 1 -1.1104 3.80034 8.75785 1.15839
72 2 2.2208 2.485 7.32567 2.37675
73 2 2.2208 2.36475 12.954 2.48856
74 1 -1.1104 3.84214 8.78623 3.95311
75 2 2.2208 2.38713 10.106 5.27602
76 1 -1.1104 3.85364 5.92208 1.04257
77 1 -1.1104 3.84493 11.5413 1.15565
79 1 -1.1104 3.82269 5.88047 3.81788
80 1 -1.1104 3.85509 11.5726 3.92945
64 1 -1.1104 6.61477 11.634 0.930912
62 1 -1.1104 1.0923 11.3926 6.74739
69 1 -1.1104 6.67233 5.9072 3.9039
238 1 -1.1104 3.66723 8.74238 6.6369
78 1 -1.1104 3.79595 11.5775 6.66177
239 1 -1.1104 3.89833 5.91333 6.67527
57 1 -1.1104 6.59744 8.7094 1.00798
236 1 -1.1104 1.1037 5.92461 6.65373
327 1 -1.1104 12.1224 19.8819 9.49399
375 2 2.2208 2.41055 21.3454 -0.250465
314 1 -1.1104 9.41214 17.1303 9.45264
49 2 2.2208 13.5792 1.72209 2.48186
63 1 -1.1104 6.69549 5.95996 0.978782
70 1 -1.1104 6.66439 11.4816 3.79431
235 1 -1.1104 6.55862 8.74354 6.59924
323 1 -1.1104 12.1944 17.0866 9.43815
59 1 -1.1104 6.57653 8.6568 3.85461
84 2 2.2208 10.8919 7.37444 5.26804
85 2 2.2208 10.79 12.9141 5.25981
86 1 -1.1104 12.3053 8.76333 1.14801
87 1 -1.1104 12.1971 8.67076 3.87386
88 1 -1.1104 12.2401 5.99303 1.02657
89 1 -1.1104 12.1458 11.5397 1.09446
91 2 2.2208 10.8588 10.1375 2.36572
92 1 -1.1104 12.2473 5.87322 3.92982
93 1 -1.1104 12.2103 11.4261 3.9439
94 1 -1.1104 9.40473 8.7148 1.01687
95 2 2.2208 8.05519 7.33538 2.49049
96 2 2.2208 8.0947 12.9462 2.50307
97 1 -1.1104 9.39959 8.8554 3.85063
98 2 2.2208 7.95892 10.1683 5.297
99 1 -1.1104 9.42692 5.9259 1.00122
100 1 -1.1104 9.39588 11.4584 0.967923
102 1 -1.1104 9.46436 6.14471 3.92093
103 1 -1.1104 9.50025 11.6348 3.83676
101 1 -1.1104 9.40622 11.6259 6.6561
269 1 -1.1104 9.50426 5.98379 6.76863
344 2 2.2208 13.6446 15.7263 -0.351178
204 2 2.2208 13.6188 15.7757 5.2246
53 2 2.2208 13.6399 12.8968 8.09582
106 2 2.2208 5.11209 18.5919 5.23911
107 1 -1.1104 0.926564 14.4004 1.1128
109 1 -1.1104 1.06309 20.0314 1.05887
113 1 -1.1104 0.881602 14.4012 3.90008
114 1 -1.1104 0.915759 19.9819 3.80071
116 1 -1.1104 1.05268 17.2747 1.10007
119 2 2.2208 5.27629 15.616 2.41252
120 2 2.2208 5.25842 21.3337 2.38548
121 1 -1.1104 0.934822 17.2065 3.88155
123 1 -1.1104 3.82781 14.2459 1.04927
125 1 -1.1104 3.87735 19.8152 1.0234
127 2 2.2208 2.42185 18.6104 2.43954
128 1 -1.1104 3.69756 14.4235 3.86806
129 1 -1.1104 3.80714 20.028 3.86396
130 2 2.2208 2.29825 15.735 5.26244
131 2 2.2208 2.37464 21.3699 5.25411
132 1 -1.1104 3.81565 17.0589 1.05166
134 1 -1.1104 3.78619 17.1704 3.85612
115 1 -1.1104 6.60255 14.2312 3.93373
122 1 -1.1104 6.60001 17.0862 3.84879
108 1 -1.1104 1.05309 14.3122 6.71618
302 1 -1.1104 1.0448 20.0471 6.70528
203 2 2.2208 13.6628 4.55201 10.9842
325 2 2.2208 10.8832 15.8343 8.01292
232 2 2.2208 13.6461 10.0703 5.27495
138 1 -1.1104 6.79833 19.8929 1.04714
139 1 -1.1104 6.60671 19.9703 3.82834
110 1 -1.1104 6.60987 14.4268 0.987017
111 1 -1.1104 6.60478 14.2165 6.74678
140 1 -1.1104 6.58155 17.1097 1.0069
141 2 2.2208 10.8036 18.4856 5.25647
142 1 -1.1104 12.3831 14.3688 1.11659
144 1 -1.1104 12.2375 19.987 1.1476
146 1 -1.1104 12.2745 14.3246 3.87875
147 1 -1.1104 12.1036 19.9528 3.87348
148 1 -1.1104 12.1894 17.1999 1.04135
150 2 2.2208 10.7786 15.7851 2.49447
151 2 2.2208 10.7884 21.3209 2.5343
152 1 -1.1104 12.2133 17.1454 3.84154
153 1 -1.1104 9.5044 14.2414 1.1178
155 1 -1.1104 9.51956 19.8655 1.13125
157 2 2.2208 8.04982 18.4384 2.52441
158 1 -1.1104 9.40145 14.3852 3.79107
159 1 -1.1104 9.40377 19.9866 3.96366
160 2 2.2208 7.95554 15.6367 5.28284
161 2 2.2208 7.98154 21.3076 5.28197
162 1 -1.1104 9.42577 17.1099 1.13369
164 1 -1.1104 9.42844 17.0472 3.92737
154 1 -1.1104 9.38052 14.3509 6.65772
381 2 2.2208 5.21013 12.9673 -0.331482
320 2 2.2208 7.88211 18.4944 8.05477
8844 2 2.2208 13.6289 -3.81406 2.56056
170 1 -1.1104 1.01333 0.345889 6.61392
173 1 -1.1104 3.84127 3.11485 6.5757
174 1 -1.1104 3.88093 0.36739 6.83663
202 2 2.2208 13.6302 7.30013 8.17713
338 2 2.2208 5.24237 -1.05127 13.6574
360 2 2.2208 10.8563 21.4087 13.5707
156 1 -1.1104 9.37165 19.8001 6.73173
168 1 -1.1104 6.62822 -2.33744 6.64814
175 2 2.2208 5.19404 1.8041 10.8435
176 1 -1.1104 1.06725 -2.42966 12.2514
177 1 -1.1104 0.984787 3.1653 12.1628
180 1 -1.1104 0.986004 -2.50119 9.41981
181 1 -1.1104 1.09729 3.07332 9.39279
184 1 -1.1104 1.05327 0.336936 12.2235
186 2 2.2208 5.26738 -1.00151 8.16172
187 2 2.2208 5.33895 4.58743 8.10988
188 1 -1.1104 1.09076 0.299192 9.46756
190 1 -1.1104 3.83692 -2.53661 12.3765
191 1 -1.1104 3.78024 3.2124 12.2585
192 2 2.2208 2.50087 1.73982 7.98814
193 1 -1.1104 3.82075 -2.42211 9.4561
194 1 -1.1104 3.79184 3.23215 9.36943
195 2 2.2208 2.46102 -1.01628 10.8256
196 2 2.2208 2.44343 4.58897 10.8025
197 1 -1.1104 3.90124 0.345129 12.2709
198 1 -1.1104 3.84804 0.424588 9.51165
178 1 -1.1104 6.57807 -2.51014 12.2928
183 1 -1.1104 6.61656 3.1754 9.5161
182 1 -1.1104 6.67875 -2.35763 9.43939
332 2 2.2208 13.6628 18.5005 8.06113
189 1 -1.1104 6.6004 0.338526 9.56609
350 2 2.2208 10.8728 4.52981 13.7585
331 2 2.2208 10.7794 18.5577 10.8412
209 1 -1.1104 9.41423 3.30687 6.73779
201 2 2.2208 -0.326546 1.72604 10.8357
8841 2 2.2208 -0.43383 -3.73546 5.28007
185 1 -1.1104 6.66402 0.362176 12.3679
143 1 -1.1104 12.2553 14.3088 6.64717
210 1 -1.1104 9.48781 0.365661 6.73774
179 1 -1.1104 6.56817 3.10896 12.1884
205 1 -1.1104 12.2371 -2.4402 6.72849
211 2 2.2208 10.8663 1.74041 10.9768
212 1 -1.1104 12.241 -2.44566 12.2547
213 1 -1.1104 12.2064 3.13064 12.3918
214 1 -1.1104 12.3196 -2.41178 9.41188
215 1 -1.1104 12.3567 3.1889 9.4607
216 1 -1.1104 12.2934 0.323906 12.268
217 2 2.2208 10.7995 -1.05088 8.11051
218 2 2.2208 10.8973 4.58809 8.20389
219 1 -1.1104 12.2425 0.365727 9.54578
220 1 -1.1104 9.39452 -2.47368 12.3014
221 1 -1.1104 9.41548 3.16467 12.3291
222 2 2.2208 8.05116 1.78726 8.15452
223 1 -1.1104 9.36467 -2.43829 9.45458
224 1 -1.1104 9.5046 3.11006 9.62689
225 2 2.2208 8.06229 -0.9675 10.9405
226 2 2.2208 8.08625 4.59772 10.8812
227 1 -1.1104 9.53657 0.365536 12.2593
228 1 -1.1104 9.40254 0.416227 9.48827
50 2 2.2208 13.6846 -0.945845 5.35914
346 2 2.2208 10.8487 -1.12536 13.7365
234 1 -1.1104 0.934728 8.73202 6.6908
328 1 -1.1104 12.1901 14.3431 9.51969
240 2 2.2208 5.14146 7.3728 10.8585
241 2 2.2208 5.29049 12.9007 10.9207
242 1 -1.1104 1.00751 8.7368 12.2134
244 1 -1.1104 0.975758 8.81152 9.51143
246 1 -1.1104 1.0316 5.93436 12.2628
247 1 -1.1104 1.07849 11.4791 12.3821
250 2 2.2208 5.16946 10.1406 8.02115
251 1 -1.1104 1.0194 6.00782 9.42387
252 1 -1.1104 1.11561 11.6008 9.60492
255 1 -1.1104 3.85411 8.74717 12.2825
256 2 2.2208 2.40848 7.31641 8.07786
257 2 2.2208 2.46334 12.9539 8.12466
258 1 -1.1104 3.75065 8.71568 9.48843
259 2 2.2208 2.47816 10.1179 10.9083
260 1 -1.1104 3.78028 5.91285 12.2297
261 1 -1.1104 3.86592 11.6413 12.2888
262 1 -1.1104 3.89071 6.0171 9.42943
263 1 -1.1104 3.8943 11.4753 9.45819
245 1 -1.1104 6.54961 8.69161 9.47847
324 2 2.2208 10.8023 21.2971 8.07185
52 2 2.2208 13.6218 10.0571 10.9225
266 1 -1.1104 12.2373 6.02041 6.76869
65 1 -1.1104 6.55999 11.4571 6.58978
267 1 -1.1104 9.35751 8.79566 6.61776
237 1 -1.1104 6.67729 6.00963 6.68486
253 1 -1.1104 6.71603 5.90532 9.43319
249 1 -1.1104 6.58082 11.617 12.4246
254 1 -1.1104 6.73064 11.5034 9.42511
243 1 -1.1104 6.6863 8.94043 12.3167
248 1 -1.1104 6.59579 5.99001 12.246
90 1 -1.1104 12.194 11.5211 6.8122
165 2 2.2208 13.6276 18.5987 2.4292
358 2 2.2208 5.23006 21.39 13.5856
265 1 -1.1104 12.2221 8.78487 6.67653
264 1 -1.1104 9.45934 11.7147 9.51543
268 1 -1.1104 9.45811 6.01627 9.54222
270 1 -1.1104 9.44619 11.638 12.3052
271 1 -1.1104 9.44983 5.95606 12.3396
272 2 2.2208 8.09076 10.2499 10.8766
273 1 -1.1104 9.50558 8.88665 9.45737
274 2 2.2208 8.05598 12.9602 8.09817
275 2 2.2208 8.09221 7.33057 8.07589
276 2 2.2208 10.8598 7.38676 10.9057
277 2 2.2208 10.9095 13.0488 10.8659
278 1 -1.1104 12.3022 8.75336 12.3618
279 1 -1.1104 12.2856 8.70889 9.52901
280 1 -1.1104 12.2972 5.91751 12.3878
281 1 -1.1104 12.2028 11.5895 12.2752
282 2 2.2208 10.8597 10.1976 8.0968
283 1 -1.1104 12.3107 5.90981 9.61688
284 1 -1.1104 12.2556 11.5019 9.58454
285 1 -1.1104 9.53591 8.80628 12.2532
329 1 -1.1104 12.2903 19.9006 12.2219
297 1 -1.1104 6.64976 14.4139 12.2895
316 2 2.2208 8.05355 21.3485 10.8517
145 1 -1.1104 12.0999 19.8992 6.68612
133 1 -1.1104 3.7627 17.3107 6.69726
124 1 -1.1104 3.81329 14.3658 6.67047
199 2 2.2208 -0.33264 4.61617 8.12992
163 1 -1.1104 9.49513 17.074 6.60995
126 1 -1.1104 3.8706 20.0159 6.74014
117 1 -1.1104 0.920009 17.1838 6.57727
304 1 -1.1104 3.82059 17.1463 9.52607
298 1 -1.1104 0.979585 19.9167 12.2657
301 1 -1.1104 3.81407 20.0112 9.54243
293 2 2.2208 5.27608 21.3788 8.03077
287 1 -1.1104 3.90335 14.3995 12.2152
292 1 -1.1104 1.08456 17.1622 9.45728
300 2 2.2208 5.17463 18.6586 10.9116
286 1 -1.1104 3.78912 19.9918 12.348
291 1 -1.1104 1.06792 19.9542 9.47388
299 1 -1.1104 1.01069 14.3118 12.3472
303 2 2.2208 2.50714 18.6303 8.12663
295 2 2.2208 5.22578 15.812 8.11181
305 1 -1.1104 3.93304 14.2427 9.41211
310 2 2.2208 2.41078 15.7793 10.9268
309 2 2.2208 2.39564 21.4033 10.8553
308 1 -1.1104 3.82313 17.1514 12.2812
307 1 -1.1104 0.896719 17.2191 12.2372
294 1 -1.1104 1.0708 14.3702 9.5245
288 1 -1.1104 6.54627 19.9829 9.44262
290 1 -1.1104 6.70344 14.3937 9.56159
306 1 -1.1104 6.54333 17.2445 12.3097
296 1 -1.1104 6.71698 20.0035 12.2341
326 1 -1.1104 12.2493 17.0827 12.1806
330 1 -1.1104 12.3421 14.3173 12.254
319 1 -1.1104 9.37144 14.2827 9.56169
118 1 -1.1104 6.5426 17.0649 6.74312
149 1 -1.1104 12.3107 17.0554 6.63654
321 1 -1.1104 9.47933 19.9824 12.2457
318 1 -1.1104 9.25203 19.8905 9.45056
322 1 -1.1104 9.41173 14.5281 12.3105
112 1 -1.1104 6.59417 19.8967 6.63291
289 1 -1.1104 6.60626 17.2428 9.56561
333 2 2.2208 13.6646 15.6822 10.8794
357 2 2.2208 2.37347 18.5558 13.5744
8858 2 2.2208 5.29033 -3.80882 -0.210177
341 2 2.2208 5.2187 4.5715 13.6705
339 2 2.2208 2.45075 1.74548 13.495
351 2 2.2208 2.41577 7.30815 13.6974
374 2 2.2208 5.31412 18.563 -0.346732
353 2 2.2208 2.4427 12.9513 13.6381
378 2 2.2208 13.5932 4.60284 -0.321258
368 2 2.2208 -0.30485 1.76405 -0.266315
377 2 2.2208 13.675 -1.01848 -0.317953
384 2 2.2208 10.8283 7.40603 -0.40666
365 2 2.2208 2.51636 -0.923207 -0.241071
369 2 2.2208 10.8118 1.78963 -0.303441
372 2 2.2208 8.09922 4.55512 -0.361192
388 2 2.2208 5.17944 1.73156 16.4474
389 1 -1.1104 0.958493 -2.48422 17.9186
390 1 -1.1104 1.06276 3.08855 17.7969
393 1 -1.1104 0.998815 -2.50889 14.994
395 1 -1.1104 0.922603 3.12748 15.0267
401 1 -1.1104 1.06908 0.388466 17.8574
403 2 2.2208 5.1525 -1.0595 19.3692
404 2 2.2208 5.30435 4.57197 19.238
405 1 -1.1104 1.10153 0.300799 15.0393
409 1 -1.1104 3.84506 -2.35456 17.8577
410 1 -1.1104 3.91032 3.23029 17.9396
411 2 2.2208 2.4279 1.81269 19.2341
412 1 -1.1104 3.79036 -2.44064 15.0627
414 1 -1.1104 3.85527 3.12887 15.0579
416 2 2.2208 2.39528 -1.04778 16.4445
417 2 2.2208 2.38362 4.53615 16.4948
418 1 -1.1104 3.85205 0.431031 17.9366
419 1 -1.1104 3.81664 0.306724 15.1279
406 1 -1.1104 0.984017 0.379791 20.6589
415 1 -1.1104 3.88637 3.20434 20.7604
397 1 -1.1104 6.52266 -2.44672 15.1089
396 1 -1.1104 0.966882 3.20428 20.5833
420 1 -1.1104 3.71498 0.434313 20.7587
408 1 -1.1104 6.56425 0.375002 20.7733
8974 2 2.2208 5.12797 -3.86191 16.5408
343 2 2.2208 8.05591 1.64526 13.6719
621 2 2.2208 -0.25302 7.37796 16.4858
8904 2 2.2208 7.98848 -3.93014 24.8946
359 2 2.2208 5.2501 15.8236 13.6974
8906 2 2.2208 13.6077 -3.86026 24.9469
345 2 2.2208 13.5182 21.3489 27.7073
8943 2 2.2208 8.01819 -3.79422 19.3521
391 1 -1.1104 6.61761 -2.5112 17.9152
407 1 -1.1104 6.57393 0.297236 15.1526
402 1 -1.1104 6.57355 0.341614 18.0306
392 1 -1.1104 6.61618 3.23395 17.8046
399 1 -1.1104 6.57819 3.05105 15.0394
431 2 2.2208 10.8905 1.69881 16.4951
432 1 -1.1104 12.1364 -2.48552 17.9593
433 1 -1.1104 12.2512 3.12439 17.8268
434 1 -1.1104 12.2051 -2.44413 15.016
436 1 -1.1104 12.2521 3.12204 15.096
438 1 -1.1104 12.2518 0.333504 17.9442
439 2 2.2208 10.7491 -1.07829 19.3025
440 2 2.2208 10.796 4.4721 19.3313
441 1 -1.1104 12.2535 0.310709 15.1285
443 1 -1.1104 9.39194 -2.42958 17.9996
444 1 -1.1104 9.41519 3.09521 17.9189
445 2 2.2208 7.91154 1.74679 19.2148
446 1 -1.1104 9.3808 -2.45875 15.1348
448 1 -1.1104 9.31285 3.18214 15.1771
450 2 2.2208 7.95526 -1.05773 16.5074
451 2 2.2208 7.98345 4.54456 16.4135
452 1 -1.1104 9.35398 0.337056 17.926
453 1 -1.1104 9.41487 0.392978 15.1654
650 2 2.2208 13.6191 12.9163 19.3484
449 1 -1.1104 9.39862 3.15392 20.6525
447 1 -1.1104 9.4273 -2.47758 20.7096
454 1 -1.1104 9.4041 0.386918 20.8271
442 1 -1.1104 12.2361 0.39994 20.6647
462 2 2.2208 10.7855 18.538 22.0684
8908 2 2.2208 5.19074 -3.81923 22.0694
400 1 -1.1104 6.65161 3.1262 20.6967
435 1 -1.1104 12.2821 -2.32944 20.7359
428 2 2.2208 13.6167 1.82414 19.2894
616 2 2.2208 7.90709 21.4349 22.1604
464 2 2.2208 5.25317 7.40435 16.4648
465 2 2.2208 5.2806 13.0436 16.4502
466 1 -1.1104 1.07439 8.86661 17.8329
468 1 -1.1104 1.13142 8.80633 15.1091
472 1 -1.1104 1.0656 6.01187 17.8825
473 1 -1.1104 1.08021 11.7225 17.945
476 2 2.2208 5.3107 10.2716 19.2122
477 1 -1.1104 0.942336 6.0183 15.0382
479 1 -1.1104 1.02227 11.6442 15.1251
485 1 -1.1104 3.91123 8.85188 17.81
486 2 2.2208 2.50869 7.44752 19.207
487 2 2.2208 2.49629 13.0644 19.2077
488 1 -1.1104 3.86063 8.7925 15.0441
490 2 2.2208 2.45818 10.2404 16.4816
491 1 -1.1104 3.88015 5.97946 17.7929
492 1 -1.1104 3.90158 11.5975 17.8245
493 1 -1.1104 3.73641 6.04564 15.052
495 1 -1.1104 3.81156 11.5867 14.9853
494 1 -1.1104 3.87851 5.9802 20.6049
483 1 -1.1104 6.60251 11.6287 15.1444
497 1 -1.1104 12.1761 20.0323 23.5175
480 1 -1.1104 0.941497 11.7208 20.7365
489 1 -1.1104 3.94189 8.83425 20.607
496 1 -1.1104 3.77844 11.6108 20.5823
615 2 2.2208 7.94686 15.8547 22.1
710 2 2.2208 13.6639 7.34366 24.8325
712 1 -1.1104 6.64354 14.3336 26.2631
467 1 -1.1104 6.59525 8.79408 17.8574
470 1 -1.1104 6.73692 8.81104 15.099
475 1 -1.1104 6.7275 11.694 17.8336
474 1 -1.1104 6.68773 6.03531 17.7874
471 1 -1.1104 6.74691 8.72401 20.6121
481 1 -1.1104 6.56673 5.97155 15.07
500 2 2.2208 10.8277 7.29579 16.5119
501 2 2.2208 10.8369 12.9576 16.5146
502 1 -1.1104 12.2382 8.68924 17.871
503 1 -1.1104 12.2734 8.81817 15.1527
505 1 -1.1104 12.2391 5.9034 17.9435
506 1 -1.1104 12.2306 11.5137 17.9614
507 2 2.2208 10.8668 10.1534 19.2771
508 1 -1.1104 12.3055 5.95551 15.1099
510 1 -1.1104 12.2565 11.6257 15.0856
512 1 -1.1104 9.37269 8.68036 17.8207
513 2 2.2208 8.08001 7.42844 19.2091
514 2 2.2208 8.05813 13.003 19.3007
515 1 -1.1104 9.45166 8.75894 15.0727
517 2 2.2208 8.12439 10.2014 16.4355
518 1 -1.1104 9.40799 5.79797 17.9002
519 1 -1.1104 9.53633 11.5089 17.8467
520 1 -1.1104 9.44712 5.95882 14.9936
522 1 -1.1104 9.41008 11.5792 15.0493
509 1 -1.1104 12.1509 5.89304 20.6716
504 1 -1.1104 12.299 8.66289 20.6827
516 1 -1.1104 9.54386 8.67916 20.5961
523 1 -1.1104 9.43105 11.5414 20.6133
521 1 -1.1104 9.43763 5.93376 20.6033
511 1 -1.1104 12.2359 11.4347 20.6833
8862 2 2.2208 7.9647 -3.80132 13.7241
527 2 2.2208 5.23528 18.6218 16.4506
528 1 -1.1104 1.00751 14.5394 17.8588
529 1 -1.1104 0.962131 20.0066 17.7915
532 1 -1.1104 1.01787 14.4092 15.0368
534 1 -1.1104 1.05386 19.8559 15.0116
540 1 -1.1104 1.0373 17.3138 17.8989
542 2 2.2208 5.15307 15.8717 19.3273
543 2 2.2208 5.15151 21.5148 19.1733
544 1 -1.1104 0.946933 17.1427 15.1383
548 1 -1.1104 3.87784 14.5267 17.9235
549 1 -1.1104 3.77896 19.9158 17.8594
550 2 2.2208 2.40038 18.6329 19.3057
551 1 -1.1104 3.75586 14.4272 14.9608
553 1 -1.1104 3.99445 20.0276 15.0796
555 2 2.2208 2.4467 15.8368 16.4042
556 2 2.2208 2.32278 21.3329 16.3678
557 1 -1.1104 3.8047 17.1032 17.8394
558 1 -1.1104 3.78988 17.3104 15.0993
531 1 -1.1104 6.63949 20.1394 17.9315
546 1 -1.1104 6.59065 17.1891 15.1414
530 1 -1.1104 6.6463 14.5194 17.8692
526 2 2.2208 10.7237 21.4062 24.9125
552 1 -1.1104 3.91524 14.3626 20.7012
559 1 -1.1104 3.73653 17.2761 20.6498
533 1 -1.1104 1.04976 14.4865 20.6763
547 1 -1.1104 6.48042 17.2048 20.7895
539 1 -1.1104 6.57864 20.06 20.7022
589 1 -1.1104 9.45958 14.3901 26.3174
545 1 -1.1104 1.05035 17.3152 20.655
536 1 -1.1104 6.64792 14.414 15.1213
538 1 -1.1104 6.79035 19.9978 15.1298
541 1 -1.1104 6.54512 17.3321 17.9243
563 2 2.2208 10.7968 18.7647 16.5109
564 1 -1.1104 12.1973 14.2614 17.8432
565 1 -1.1104 12.2502 20.0238 17.8426
566 1 -1.1104 12.2051 14.4492 15.0072
568 1 -1.1104 12.3241 20.0867 15.0662
570 1 -1.1104 12.2349 17.1303 17.8421
571 2 2.2208 10.8242 15.809 19.2641
572 2 2.2208 10.6937 21.3758 19.3284
573 1 -1.1104 12.234 17.2732 15.0141
575 1 -1.1104 9.3861 14.383 17.9231
576 1 -1.1104 9.38583 20.104 17.8787
577 2 2.2208 7.98602 18.6667 19.3973
578 1 -1.1104 9.41704 14.4135 15.138
580 1 -1.1104 9.53549 20.0442 14.9838
582 2 2.2208 8.05714 15.832 16.5142
583 2 2.2208 8.04397 21.4702 16.3866
584 1 -1.1104 9.28086 17.267 17.9364
585 1 -1.1104 9.51358 17.3089 15.0734
581 1 -1.1104 9.44757 20.0204 20.7045
567 1 -1.1104 12.1773 14.2658 20.5808
460 2 2.2208 13.6003 21.3887 16.4111
619 2 2.2208 13.5673 15.7382 16.4429
8907 2 2.2208 2.45201 -3.79345 24.9133
394 1 -1.1104 1.00078 -2.43556 20.7206
413 1 -1.1104 3.81662 -2.50096 20.6089
362 2 2.2208 8.15203 18.6088 13.6599
422 2 2.2208 13.6829 10.1015 22.0516
347 2 2.2208 8.00515 15.7252 27.615
654 2 2.2208 13.5992 1.84135 24.9035
430 2 2.2208 13.6678 15.835 22.0314
591 2 2.2208 5.24265 1.74291 22.1236
592 1 -1.1104 1.01154 -2.4352 23.4644
593 1 -1.1104 1.12441 3.22837 23.4795
596 1 -1.1104 0.926556 -2.54876 26.2832
597 1 -1.1104 1.03204 3.22977 26.3029
600 1 -1.1104 0.993185 0.347161 23.4932
602 2 2.2208 5.23756 -1.05415 24.9699
603 2 2.2208 5.15474 4.57778 24.777
604 1 -1.1104 1.00642 0.368111 26.3417
606 1 -1.1104 3.83243 -2.38499 23.5087
607 1 -1.1104 3.82922 3.19004 23.4226
608 2 2.2208 2.43259 1.81165 24.9073
609 1 -1.1104 3.79709 -2.41616 26.3243
610 1 -1.1104 3.83566 3.25921 26.2441
611 2 2.2208 2.42326 -0.994046 22.1608
612 2 2.2208 2.45052 4.65826 21.9989
613 1 -1.1104 3.81413 0.412009 23.4958
614 1 -1.1104 3.78886 0.340727 26.3298
598 1 -1.1104 6.67939 -2.45915 26.2998
594 1 -1.1104 6.51274 -2.38361 23.5555
398 1 -1.1104 6.61239 -2.43763 20.7161
421 2 2.2208 -0.317506 7.43595 21.9536
352 2 2.2208 5.25379 10.1925 13.75
8905 2 2.2208 10.7772 -3.84714 22.186
601 1 -1.1104 6.7339 0.338495 23.5561
599 1 -1.1104 6.65901 3.14948 26.3243
605 1 -1.1104 6.48757 0.415551 26.3316
595 1 -1.1104 6.61174 3.11022 23.5024
437 1 -1.1104 12.2203 3.15062 20.6793
627 2 2.2208 10.8312 1.82854 22.1057
628 1 -1.1104 12.2342 -2.47129 23.5714
629 1 -1.1104 12.2028 3.08369 23.4669
630 1 -1.1104 12.2345 -2.40007 26.2249
631 1 -1.1104 12.2567 3.28939 26.2783
632 1 -1.1104 12.2198 0.474809 23.5784
633 2 2.2208 10.771 -0.967233 24.9395
634 2 2.2208 10.7686 4.55064 24.8074
635 1 -1.1104 12.1594 0.360649 26.419
636 1 -1.1104 9.36421 -2.5028 23.5545
637 1 -1.1104 9.46747 3.10879 23.5644
638 2 2.2208 7.99912 1.78498 24.9075
639 1 -1.1104 9.39154 -2.33627 26.2854
640 1 -1.1104 9.43996 3.20935 26.3138
641 2 2.2208 8.04069 -1.03588 22.1805
642 2 2.2208 7.99545 4.59958 22.0816
643 1 -1.1104 9.47458 0.37958 23.5477
644 1 -1.1104 9.3427 0.471677 26.3522
587 2 2.2208 8.0685 18.5926 24.9039
579 1 -1.1104 9.43663 14.3616 20.7387
364 2 2.2208 5.30184 1.79506 27.7477
8945 2 2.2208 13.5803 -3.81954 19.2966
617 1 -1.1104 9.39609 17.134 23.5918
8854 2 2.2208 10.8002 -3.77909 27.6992
469 1 -1.1104 1.12937 8.96829 20.6048
423 2 2.2208 13.6199 4.56708 22.1152
478 1 -1.1104 1.07495 6.07479 20.5836
561 1 -1.1104 9.40981 14.3551 23.4864
461 2 2.2208 13.5823 21.3774 22.0975
336 2 2.2208 13.6341 7.36228 13.6686
656 2 2.2208 5.29013 7.40698 22.0361
657 2 2.2208 5.25341 12.9397 22.0907
658 1 -1.1104 1.0152 8.84465 23.4912
660 1 -1.1104 1.0842 8.86742 26.187
662 1 -1.1104 0.980576 6.04528 23.3777
663 1 -1.1104 1.12312 11.6185 23.4988
666 2 2.2208 5.25495 10.1288 24.7774
667 1 -1.1104 1.04947 6.04571 26.1657
668 1 -1.1104 1.05728 11.5877 26.3396
671 1 -1.1104 3.79433 8.7932 23.4075
672 2 2.2208 2.43798 7.45883 24.7837
673 2 2.2208 2.46075 13.0536 24.8538
674 1 -1.1104 3.84095 8.83059 26.259
675 2 2.2208 2.44098 10.3123 21.9712
676 1 -1.1104 3.83372 6.0463 23.5203
677 1 -1.1104 3.88839 11.6127 23.5132
678 1 -1.1104 3.78153 6.0306 26.2772
679 1 -1.1104 3.81257 11.5587 26.3688
661 1 -1.1104 6.70656 8.76858 26.1283
670 1 -1.1104 6.58779 11.4512 26.1618
525 2 2.2208 10.8137 15.8651 24.8734
349 2 2.2208 8.08495 21.3977 27.7005
482 1 -1.1104 6.69498 5.97438 20.6642
659 1 -1.1104 6.67769 8.79731 23.4457
669 1 -1.1104 6.59209 5.91556 26.0428
484 1 -1.1104 6.6184 11.5029 20.6739
665 1 -1.1104 6.72328 11.605 23.4331
664 1 -1.1104 6.61453 6.0174 23.3939
687 1 -1.1104 9.45612 11.6322 26.1767
688 1 -1.1104 9.40138 6.00877 26.2577
689 1 -1.1104 9.46534 11.4864 23.3887
690 1 -1.1104 9.45363 5.91414 23.3178
691 2 2.2208 8.09001 10.147 22.0868
692 1 -1.1104 9.54107 8.82638 26.2586
693 2 2.2208 8.06217 12.9996 24.893
694 2 2.2208 8.03652 7.37721 24.7599
695 2 2.2208 10.8814 7.31876 22.0137
696 2 2.2208 10.7665 12.9654 22.0986
697 1 -1.1104 12.2269 8.79813 23.5592
698 1 -1.1104 12.3088 8.73154 26.3434
699 1 -1.1104 12.1882 5.97414 23.3532
700 1 -1.1104 12.2754 11.5818 23.3521
701 2 2.2208 10.8526 10.1349 24.8663
702 1 -1.1104 12.1479 5.98198 26.043
703 1 -1.1104 12.3966 11.5756 26.2173
704 1 -1.1104 9.47449 8.67377 23.4512
337 2 2.2208 -0.368799 4.49654 13.5661
554 1 -1.1104 3.80639 20.0668 20.6223
590 1 -1.1104 9.41265 20.055 26.2999
535 1 -1.1104 1.0618 20.0304 20.7317
537 1 -1.1104 6.60838 14.3912 20.6436
647 2 2.2208 2.41329 15.8639 22.0324
649 2 2.2208 2.37442 21.3719 22.0377
652 1 -1.1104 3.80708 17.2481 23.4537
655 1 -1.1104 0.999299 17.1738 23.413
681 1 -1.1104 3.854 14.4286 26.1898
682 1 -1.1104 3.77194 17.2506 26.2952
683 2 2.2208 2.32812 18.6044 24.9096
686 1 -1.1104 3.79443 19.9781 26.2091
705 2 2.2208 5.17385 18.7148 22.0741
706 1 -1.1104 1.08577 14.5274 23.4241
707 1 -1.1104 0.982276 19.8549 23.4849
711 1 -1.1104 3.68415 20.1136 23.4602
713 1 -1.1104 3.7968 14.444 23.4272
715 1 -1.1104 0.981922 19.9509 26.2656
716 1 -1.1104 0.991067 17.2152 26.3153
717 1 -1.1104 1.08523 14.3964 26.2927
719 2 2.2208 5.19293 21.3656 24.8799
720 2 2.2208 5.20293 15.827 24.8617
709 1 -1.1104 6.65774 14.3942 23.4516
463 1 -1.1104 12.1587 14.3857 23.3071
718 1 -1.1104 6.53146 19.969 23.4635
370 2 2.2208 8.02504 -1.01445 27.7147
574 1 -1.1104 12.2559 17.0908 20.687
569 1 -1.1104 12.1025 19.939 20.6891
586 1 -1.1104 9.357 17.1919 20.7593
524 1 -1.1104 12.2142 17.1513 23.5214
620 1 -1.1104 9.41913 17.2571 26.2982
560 1 -1.1104 12.1718 17.2649 26.2586
498 1 -1.1104 12.1767 14.3963 26.2213
562 1 -1.1104 9.32489 20.0248 23.4398
499 1 -1.1104 12.1675 19.97 26.3126
680 1 -1.1104 6.56823 17.1712 23.5583
588 1 -1.1104 6.59549 19.9984 26.2471
714 1 -1.1104 6.69313 17.1943 26.1547
426 2 2.2208 13.5862 10.1611 16.5326
429 2 2.2208 13.616 4.57273 16.5248
455 2 2.2208 13.6092 18.6274 24.952
618 2 2.2208 13.6405 18.5481 19.2607
646 2 2.2208 -0.378945 15.7735 24.8328
459 2 2.2208 13.624 -1.04027 16.5627
340 2 2.2208 13.7005 1.73436 13.7412
361 2 2.2208 10.8818 15.8149 13.603
385 2 2.2208 7.9707 10.1606 27.6152
363 2 2.2208 13.6723 18.5865 13.6458
380 2 2.2208 2.50607 10.207 27.6829
379 2 2.2208 5.2545 7.32455 27.6001
366 2 2.2208 2.45246 4.6418 27.6765
376 2 2.2208 13.5484 12.9422 13.6791
386 2 2.2208 10.8733 12.9659 27.668
355 2 2.2208 10.8313 10.1986 13.7271
356 2 2.2208 8.0588 12.9923 13.6604
348 2 2.2208 10.7744 18.6003 27.7025
354 2 2.2208 7.99746 7.37677 13.7025
721 2 2.2208 5.24989 24.1461 5.27059
722 2 2.2208 5.10516 29.7735 5.31335
723 1 -1.1104 1.05639 25.652 1.14639
724 1 -1.1104 1.01579 25.4981 3.91738
725 1 -1.1104 0.99509 22.8274 1.05412
726 1 -1.1104 0.912197 28.4571 1.10388
727 2 2.2208 5.20637 26.9129 2.45803
728 1 -1.1104 0.838516 22.7743 3.86222
729 1 -1.1104 1.03263 28.3694 3.86227
730 1 -1.1104 3.84604 25.4424 1.05901
731 2 2.2208 2.31961 24.1896 2.52746
732 2 2.2208 2.40348 29.7747 2.52488
733 1 -1.1104 3.82684 25.5878 3.93332
734 2 2.2208 2.43246 26.9633 5.31581
735 1 -1.1104 3.82946 22.6779 1.09126
736 1 -1.1104 3.75447 28.3992 1.20235
737 1 -1.1104 3.75695 22.8251 3.82892
738 1 -1.1104 3.8691 28.3095 3.96898
870 1 -1.1104 3.74843 28.3916 6.75747
742 1 -1.1104 6.69853 25.4762 1.01477
743 1 -1.1104 6.58733 25.5392 3.8662
865 1 -1.1104 1.03686 28.3983 6.68709
747 1 -1.1104 6.63927 28.3829 3.84116
863 1 -1.1104 6.73453 25.6246 6.56717
868 1 -1.1104 3.78119 25.4964 6.73923
864 1 -1.1104 0.933918 22.7578 6.62821
1006 2 2.2208 2.44275 43.8479 -0.319714
746 1 -1.1104 6.62763 22.6919 3.77017
744 1 -1.1104 6.63244 22.7255 0.919063
745 1 -1.1104 6.49073 28.3626 1.05278
748 2 2.2208 10.7229 24.0792 5.29125
749 2 2.2208 10.8379 29.7745 5.30824
750 1 -1.1104 12.1852 25.5063 1.0509
751 1 -1.1104 12.1555 25.4493 3.85944
752 1 -1.1104 12.2321 22.6596 1.12999
753 1 -1.1104 12.1373 28.3518 1.14813
754 2 2.2208 10.7804 26.9821 2.52976
755 1 -1.1104 12.1836 22.7437 3.90558
756 1 -1.1104 12.1827 28.3757 3.92262
757 1 -1.1104 9.52559 25.6519 1.10165
758 2 2.2208 7.98449 24.1587 2.47345
759 2 2.2208 7.85665 29.7949 2.49382
760 1 -1.1104 9.38507 25.531 3.95288
761 2 2.2208 8.01237 27.0686 5.27702
762 1 -1.1104 9.44505 22.7679 1.1228
763 1 -1.1104 9.39498 28.4584 1.14278
764 1 -1.1104 9.42221 22.8059 3.83255
765 1 -1.1104 9.43713 28.3168 3.85537
768 2 2.2208 13.6058 27.018 5.33847
767 2 2.2208 13.5218 29.7721 2.53977
1009 1 -1.1104 9.55402 45.3527 12.3042
1042 2 2.2208 13.6811 46.6347 8.08016
1013 2 2.2208 8.05138 46.5325 8.1009
769 2 2.2208 5.20325 35.4242 5.27718
770 1 -1.1104 0.978224 31.2525 1.13684
771 1 -1.1104 0.926481 36.7984 1.06088
773 1 -1.1104 0.936323 31.2322 3.9065
774 1 -1.1104 1.0094 36.8887 3.8784
776 1 -1.1104 0.942359 33.9849 1.04265
777 2 2.2208 5.20653 32.6329 2.54966
778 2 2.2208 5.17457 38.1063 2.39041
779 1 -1.1104 0.956558 34.0688 3.7861
781 1 -1.1104 3.79517 31.1885 1.1904
782 1 -1.1104 3.78462 36.749 1.02753
783 2 2.2208 2.32783 35.3269 2.47033
784 1 -1.1104 3.74088 31.2018 3.94107
785 1 -1.1104 3.72578 36.8298 3.85825
786 2 2.2208 2.41447 32.6501 5.27819
787 2 2.2208 2.41961 38.2498 5.26947
788 1 -1.1104 3.83086 34.0165 1.10211
789 1 -1.1104 3.75931 33.9574 3.8618
780 1 -1.1104 6.57042 34.0867 3.89262
923 1 -1.1104 0.96688 33.9793 6.64493
793 1 -1.1104 6.56325 31.2149 1.01568
1011 2 2.2208 8.07786 43.7264 10.806
775 1 -1.1104 6.5783 36.8235 3.83137
772 1 -1.1104 6.6771 36.5964 1.02384
795 1 -1.1104 6.52668 33.8864 1.02993
794 1 -1.1104 6.48782 31.2677 3.91546
922 1 -1.1104 6.43638 36.8642 6.68495
919 1 -1.1104 0.901783 31.183 6.70798
920 1 -1.1104 0.954394 36.8132 6.66705
925 1 -1.1104 3.77325 31.1742 6.78295
926 1 -1.1104 3.68274 36.7106 6.64988
1061 2 2.2208 2.41396 38.1297 -0.346855
10215 3 0 12.1643 39.9308 12.672
796 2 2.2208 10.7726 35.2969 5.38558
797 1 -1.1104 12.1559 31.1751 1.09883
798 1 -1.1104 12.2537 36.7504 1.07661
799 1 -1.1104 12.2407 31.1719 3.90023
800 1 -1.1104 12.226 36.778 3.82975
801 1 -1.1104 12.1798 33.9702 1.05342
802 2 2.2208 10.7464 32.5544 2.51424
803 2 2.2208 10.7921 38.1232 2.53467
804 1 -1.1104 12.1695 33.9516 3.93825
805 1 -1.1104 9.35969 31.2343 1.12951
806 1 -1.1104 9.47178 36.8162 0.990964
807 2 2.2208 8.06148 35.3148 2.469
808 1 -1.1104 9.33822 31.0754 3.84102