LAMMPS (29 Oct 2020)
OMP_NUM_THREADS environment is not set. Defaulting to 1 thread. (../comm.cpp:94)
  using 1 OpenMP thread(s) per MPI task
OMP_NUM_THREADS environment is not set. Defaulting to 1 thread. (../comm.cpp:94)
  using 1 OpenMP thread(s) per MPI task
Reading data file ...
  orthogonal box = (-0.36295924 -4.4945215 -0.36747234) to (27.702959 332.57452 27.707472)
  2 by 13 by 2 MPI processor grid
  reading atoms ...
  17732 atoms
  reading velocities ...
  17732 velocities
Finding 1-2 1-3 1-4 neighbors ...
  special bond factors lj:    0.0      0.0      0.0     
  special bond factors coul:  0.0      0.0      0.0     
     0 = max # of 1-2 neighbors
     0 = max # of 1-3 neighbors
     0 = max # of 1-4 neighbors
     1 = max # of special neighbors
  special bonds CPU = 0.004 seconds
  read_data CPU = 0.068 seconds
WARNING: 13 of 1000 force values in table Xe-Xe are inconsistent with -dE/dr.
  Should only be flagged at inflection points (../pair_table.cpp:461)
WARNING: 2 of 1000 force values in table Xe-O are inconsistent with -dE/dr.
  Should only be flagged at inflection points (../pair_table.cpp:461)
WARNING: 2 of 1000 force values in table Xe-Th are inconsistent with -dE/dr.
  Should only be flagged at inflection points (../pair_table.cpp:461)
Setting atom values ...
  11760 settings made for charge
Setting atom values ...
  5880 settings made for charge
Setting atom values ...
  92 settings made for charge
PPPM initialization ...
  using 12-bit tables for long-range coulomb (../kspace.cpp:328)
  G vector (1/distance) = 0.29876968
  grid = 40 240 40
  stencil order = 5
  estimated absolute RMS force accuracy = 0.00015615767
  estimated relative force accuracy = 1.084455e-05
  using single precision MKL FFT
  3d grid and FFT values/proc = 18225 7600
Neighbor list info ...
  update every 1 steps, delay 0 steps, check yes
  max neighbors/atom: 2000, page size: 100000
  master list distance cutoff = 13
  ghost atom cutoff = 13
  binsize = 6.5, bins = 5 52 5
  3 neighbor lists, perpetual/occasional/extra = 3 0 0
  (1) pair coul/long, perpetual
      attributes: half, newton on
      pair build: half/bin/newton
      stencil: half/bin/3d/newton
      bin: standard
  (2) pair eam/alloy, perpetual, skip from (1)
      attributes: half, newton on
      pair build: skip
      stencil: none
      bin: none
  (3) pair table, perpetual, skip from (1)
      attributes: half, newton on
      pair build: skip
      stencil: none
      bin: none
Setting up Verlet run ...
  Unit style    : metal
  Current step  : 0
  Time step     : 0.001
Per MPI rank memory allocation (min/avg/max) = 9.259 | 9.963 | 10.04 Mbytes
Step Temp E_pair E_mol TotEng Press 
       0          600   -230423.63            0   -229048.49   -763.23023 
  100000    594.24487   -230407.51            0   -229045.55   -351.68717 
Loop time of 708.761 on 52 procs for 100000 steps with 17732 atoms

Performance: 12.190 ns/day, 1.969 hours/ns, 141.091 timesteps/s
99.8% CPU use with 52 MPI tasks x 1 OpenMP threads

MPI task timing breakdown:
Section |  min time  |  avg time  |  max time  |%varavg| %total
---------------------------------------------------------------
Pair    | 518.72     | 533.2      | 555.79     |  36.8 | 75.23
Bond    | 0.0090557  | 0.013919   | 0.020265   |   1.9 |  0.00
Kspace  | 131.56     | 153.4      | 166.83     |  65.8 | 21.64
Neigh   | 2.1374     | 2.2887     | 2.4532     |   4.7 |  0.32
Comm    | 13.959     | 14.934     | 16.848     |  21.4 |  2.11
Output  | 6.5225e-05 | 7.0677e-05 | 0.00027416 |   0.0 |  0.00
Modify  | 1.8978     | 3.5192     | 5.2116     |  63.1 |  0.50
Other   |            | 1.399      |            |       |  0.20

Nlocal:        341.000 ave         365 max         324 min
Histogram: 1 5 9 14 10 5 4 0 1 3
Nghost:        5539.21 ave        5708 max        5397 min
Histogram: 13 5 2 2 9 5 3 1 0 12
Neighs:       107587.0 ave      116694 max       96713 min
Histogram: 3 2 1 2 11 12 10 7 0 4

Total # of neighbors = 5594532
Ave neighs/atom = 315.50485
Ave special neighs/atom = 0.0000000
Neighbor list builds = 746
Dangerous builds = 0
11760 atoms in group oxygen
PPPM initialization ...
  using 12-bit tables for long-range coulomb (../kspace.cpp:328)
  G vector (1/distance) = 0.29876968
  grid = 40 240 40
  stencil order = 5
  estimated absolute RMS force accuracy = 0.00015615767
  estimated relative force accuracy = 1.084455e-05
  using single precision MKL FFT
  3d grid and FFT values/proc = 18225 7600
Neighbor list info ...
  update every 1 steps, delay 0 steps, check yes
  max neighbors/atom: 2000, page size: 100000
  master list distance cutoff = 13
  ghost atom cutoff = 13
  binsize = 6.5, bins = 5 52 5
  3 neighbor lists, perpetual/occasional/extra = 3 0 0
  (1) pair coul/long, perpetual
      attributes: half, newton on
      pair build: half/bin/newton
      stencil: half/bin/3d/newton
      bin: standard
  (2) pair eam/alloy, perpetual, skip from (1)
      attributes: half, newton on
      pair build: skip
      stencil: none
      bin: none
  (3) pair table, perpetual, skip from (1)
      attributes: half, newton on
      pair build: skip
      stencil: none
      bin: none
Setting up Verlet run ...
  Unit style    : metal
  Current step  : 0
  Time step     : 0.001
Per MPI rank memory allocation (min/avg/max) = 9.509 | 10.19 | 10.29 Mbytes
Step f_2 Temp v_Tdiff v_deltaT 
       0            0    594.24487            0            0 
  100000    691.37983    599.00562  0.019178661    222.66248 
  200000    1360.5934    597.19696  0.021215117    246.30553 
  300000    2032.6436    600.30507  0.020611726    239.30023 
  400000    2706.1805    600.26153  0.021752348    252.54274 
  500000    3366.9865    597.20138  0.022194895    257.68067 
  600000     4033.859    597.23688  0.021387551    248.30748 
  700000    4703.4719    602.68662  0.021246332    246.66794 
  800000    5373.1188    591.15049  0.021007498    243.89511 
  900000    6049.2487    605.62419  0.021689781    251.81635 
 1000000    6714.4646    598.53058  0.021283163    247.09554 
Loop time of 7055.56 on 52 procs for 1000000 steps with 17732 atoms

Performance: 12.246 ns/day, 1.960 hours/ns, 141.732 timesteps/s
99.9% CPU use with 52 MPI tasks x 1 OpenMP threads

MPI task timing breakdown:
Section |  min time  |  avg time  |  max time  |%varavg| %total
---------------------------------------------------------------
Pair    | 5127.1     | 5293.3     | 5535.7     | 126.9 | 75.02
Bond    | 0.1003     | 0.13527    | 0.178      |   4.6 |  0.00
Kspace  | 1321.2     | 1552.3     | 1703.5     | 224.3 | 22.00
Neigh   | 21.024     | 22.559     | 24.22      |  16.8 |  0.32
Comm    | 137.99     | 148.45     | 174.62     |  74.1 |  2.10
Output  | 0.0010539  | 0.0011011  | 0.002349   |   0.5 |  0.00
Modify  | 5.5389     | 6.0338     | 6.5746     |  11.8 |  0.09
Other   |            | 32.77      |            |       |  0.46

Nlocal:        341.000 ave         367 max         322 min
Histogram: 3 3 8 13 6 11 2 2 2 2
Nghost:        5531.52 ave        5702 max        5390 min
Histogram: 13 7 2 2 5 6 2 3 0 12
Neighs:       107594.0 ave      116690 max       94903 min
Histogram: 2 4 1 1 3 12 16 6 2 5

Total # of neighbors = 5594878
Ave neighs/atom = 315.52436
Ave special neighs/atom = 0.0000000
Neighbor list builds = 7360
Dangerous builds = 0
Total wall time: 2:09:24
