ITEM: TIMESTEP
50000
ITEM: NUMBER OF ATOMS
17760
ITEM: BOX BOUNDS pp pp pp
-3.8101522457215936e-01 2.7721015224572042e+01
-4.5571871485585804e+00 3.3263718714856793e+02
-3.8076179027066276e-01 2.7720761790270430e+01
ITEM: ATOMS id type q x y z
1 2 2.2208 5.11915 0.998749 5.27509
2 1 -1.1104 1.03387 -3.16719 1.1049
3 1 -1.1104 0.747272 2.36948 1.11796
6 1 -1.1104 0.651548 -3.34418 3.77612
7 1 -1.1104 0.737012 2.47936 3.86698
10 1 -1.1104 0.940747 -0.295464 1.13825
12 2 2.2208 5.11883 -1.77092 2.5291
13 2 2.2208 5.01776 3.73692 2.42707
14 1 -1.1104 0.88692 -0.465573 3.89782
16 1 -1.1104 3.74313 -3.11421 1.08604
17 1 -1.1104 3.61406 2.37434 1.04003
18 2 2.2208 2.36146 0.923342 2.49461
19 1 -1.1104 3.55267 -3.19462 3.85535
20 1 -1.1104 3.62517 2.41545 3.81574
21 2 2.2208 2.15983 -1.88934 5.27312
22 2 2.2208 2.2802 3.79017 5.24174
23 1 -1.1104 3.80966 -0.455722 1.2153
24 1 -1.1104 3.59055 -0.410005 4.01802
4 1 -1.1104 6.47475 -3.01802 1.04272
9 1 -1.1104 6.52758 2.41758 3.79383
15 1 -1.1104 6.46668 -0.393846 3.93912
5 1 -1.1104 6.59135 2.43769 1.10516
8 1 -1.1104 6.56118 -3.03705 4.04287
165 2 2.2208 13.5022 6.68977 7.99906
538 2 2.2208 5.20524 1.07241 -0.348385
569 2 2.2208 8.00709 -1.83637 -0.346238
11 1 -1.1104 6.64278 -0.402552 1.17357
171 1 -1.1104 6.49181 -0.234887 6.71833
684 2 2.2208 13.513 3.80399 -0.197384
170 1 -1.1104 0.978113 -0.476773 6.72996
136 1 -1.1104 9.16197 13.5961 9.54493
8334 2 2.2208 7.97441 -4.49706 2.52519
53 1 -1.1104 12.073 16.5426 12.2065
9063 2 2.2208 13.5043 9.45875 5.40371
31 2 2.2208 10.6459 1.09565 5.43453
32 1 -1.1104 12.1452 -3.14035 1.28107
33 1 -1.1104 12.0497 2.3722 1.27777
34 1 -1.1104 12.0712 -2.98638 3.87594
35 1 -1.1104 12.1782 2.54435 3.93815
36 1 -1.1104 12.2061 -0.359817 1.16546
37 2 2.2208 10.7815 -1.68386 2.51485
39 1 -1.1104 12.1671 -0.24421 3.87898
40 1 -1.1104 9.2545 -3.12706 1.06394
41 1 -1.1104 9.26206 2.53657 1.17209
42 2 2.2208 7.93105 1.04769 2.53005
43 1 -1.1104 9.33376 -3.14325 3.91932
44 1 -1.1104 9.44901 2.53524 4.09013
45 2 2.2208 7.95532 -1.63689 5.36831
46 2 2.2208 7.83118 3.9087 5.39018
47 1 -1.1104 9.36041 -0.39887 1.0292
48 1 -1.1104 9.37986 -0.226737 3.98572
38 2 2.2208 10.7305 3.89673 2.56718
9062 2 2.2208 13.6214 -1.68609 5.22176
135 2 2.2208 7.83025 17.8245 8.14754
568 2 2.2208 10.8396 1.02925 -0.205311
82 2 2.2208 10.6498 20.6241 8.06755
8704 2 2.2208 10.7194 -4.56545 -0.221967
8902 2 2.2208 13.4792 4.02629 10.8845
572 2 2.2208 2.28379 20.546 -0.289975
205 1 -1.1104 12.0879 -2.91641 6.62411
8389 2 2.2208 5.1131 -4.44766 5.2493
630 2 2.2208 10.7231 12.171 -0.259717
301 2 2.2208 13.5174 3.90274 5.24304
54 2 2.2208 5.0687 6.6506 5.22987
55 2 2.2208 5.05325 12.1553 5.2575
56 1 -1.1104 0.763701 8.01782 1.16948
58 1 -1.1104 0.927044 7.95701 3.89795
60 1 -1.1104 0.88097 5.30136 0.942276
61 1 -1.1104 0.821742 10.8479 1.12532
66 2 2.2208 4.86052 9.46317 2.40088
67 1 -1.1104 0.789274 5.28994 3.97253
68 1 -1.1104 0.895605 10.8005 3.92938
71 1 -1.1104 3.56395 8.04852 1.05273
72 2 2.2208 2.1558 6.63448 2.42542
73 2 2.2208 2.32242 12.3891 2.5636
74 1 -1.1104 3.61576 8.03454 3.73677
75 2 2.2208 2.37673 9.4219 5.19472
76 1 -1.1104 3.59749 5.18997 1.0872
77 1 -1.1104 3.56243 11.0091 1.24345
79 1 -1.1104 3.51381 5.26211 3.92784
80 1 -1.1104 3.69089 10.7435 3.94304
605 2 2.2208 5.11249 12.2658 -0.314631
70 1 -1.1104 6.40191 10.83 3.85803
238 1 -1.1104 3.72133 8.14141 6.54863
63 1 -1.1104 6.53039 5.22366 1.05521
59 1 -1.1104 6.46087 8.01426 4.04463
64 1 -1.1104 6.23286 10.7026 1.05449
57 1 -1.1104 6.44781 8.00994 1.16555
69 1 -1.1104 6.32501 5.17317 3.84623
237 1 -1.1104 6.61397 5.24126 6.78267
65 1 -1.1104 6.49806 11.0157 6.80248
27 1 -1.1104 12.0917 19.5114 12.1928
603 2 2.2208 4.98559 6.51416 -0.246317
629 2 2.2208 7.91437 9.40611 -0.290296
306 2 2.2208 13.5934 1.1837 8.08728
84 2 2.2208 10.6572 6.68502 5.38185
85 2 2.2208 10.6472 12.2878 5.23906
86 1 -1.1104 12.2323 7.99444 1.22014
87 1 -1.1104 12.2002 8.1043 3.99271
88 1 -1.1104 12.1847 5.19675 1.20159
89 1 -1.1104 12.0286 10.7408 1.06436
91 2 2.2208 10.7536 9.49484 2.58102
92 1 -1.1104 12.3028 5.17915 3.82018
93 1 -1.1104 11.9892 10.9838 3.92122
94 1 -1.1104 9.31472 8.08023 1.23563
95 2 2.2208 7.81382 6.75368 2.59232
96 2 2.2208 7.82766 12.244 2.44395
97 1 -1.1104 9.20253 8.19459 4.08191
98 2 2.2208 7.78712 9.54783 5.29483
99 1 -1.1104 9.39834 5.30634 1.2238
100 1 -1.1104 9.14239 10.745 1.11578
102 1 -1.1104 9.27562 5.31384 3.88554
103 1 -1.1104 9.2076 10.9404 3.83996
267 1 -1.1104 9.33918 8.16159 6.76882
305 2 2.2208 13.5324 6.70353 2.58801
81 2 2.2208 10.6917 15.1486 7.95286
9067 2 2.2208 13.5447 12.3249 2.42752
17324 2 2.2208 13.605 -4.47496 8.22577
308 2 2.2208 13.4525 15.0207 10.9343
8208 2 2.2208 5.18547 -4.49509 11.004
106 2 2.2208 5.06001 17.8327 5.27474
107 1 -1.1104 0.962925 13.6029 1.01776
109 1 -1.1104 0.830951 19.1273 1.07305
113 1 -1.1104 0.889716 13.7433 3.83481
114 1 -1.1104 0.93099 19.2315 3.81661
116 1 -1.1104 0.739287 16.3293 1.06102
119 2 2.2208 5.07357 15.0821 2.52254
120 2 2.2208 5.08761 20.6029 2.38195
121 1 -1.1104 0.838234 16.4352 3.92646
123 1 -1.1104 3.77024 13.6262 1.08206
125 1 -1.1104 3.61653 19.1815 1.06887
127 2 2.2208 2.24403 17.6894 2.44908
128 1 -1.1104 3.7329 13.7648 3.98161
129 1 -1.1104 3.60289 19.2421 3.76016
130 2 2.2208 2.33613 15.1108 5.35043
131 2 2.2208 2.31165 20.6068 5.18439
132 1 -1.1104 3.57071 16.3378 1.02775
134 1 -1.1104 3.67203 16.3624 3.89874
110 1 -1.1104 6.61848 13.5458 1.00184
115 1 -1.1104 6.36423 13.6273 3.95085
139 1 -1.1104 6.46422 19.2669 3.87133
122 1 -1.1104 6.44043 16.3465 3.84044
140 1 -1.1104 6.37265 16.3724 0.973258
138 1 -1.1104 6.37997 19.1383 1.13523
50 1 -1.1104 12.2209 19.286 9.45035
9048 2 2.2208 13.5126 17.8264 2.37177
29 1 -1.1104 9.45266 16.4918 9.42519
233 1 -1.1104 9.24085 16.593 12.2745
141 2 2.2208 10.6574 17.893 5.21249
142 1 -1.1104 12.1562 13.5049 0.952629
144 1 -1.1104 12.2557 19.3861 0.981802
146 1 -1.1104 12.2619 13.8289 3.75774
147 1 -1.1104 12.1123 19.2813 3.72755
148 1 -1.1104 12.2174 16.3551 1.04904
150 2 2.2208 10.6556 15.1502 2.35604
151 2 2.2208 10.7362 20.688 2.41848
152 1 -1.1104 12.0729 16.4357 3.72059
153 1 -1.1104 9.44601 13.7445 1.05686
155 1 -1.1104 9.38787 19.3364 0.868988
157 2 2.2208 7.81724 17.8094 2.41991
158 1 -1.1104 9.43582 13.637 3.9551
159 1 -1.1104 9.35034 19.2627 3.69295
160 2 2.2208 7.82909 15.0467 5.30907
161 2 2.2208 7.77738 20.6341 5.1302
162 1 -1.1104 9.28271 16.5361 1.10556
164 1 -1.1104 9.16351 16.4783 3.79795
9057 2 2.2208 13.4574 15.1256 5.22489
8330 2 2.2208 10.7311 -4.46765 5.28997
229 2 2.2208 7.79417 20.6004 10.8742
9029 2 2.2208 13.5658 20.7983 10.8189
174 1 -1.1104 3.89913 -0.247794 6.75321
167 1 -1.1104 0.819228 2.31645 6.81889
166 1 -1.1104 0.949503 -3.34332 6.64771
173 1 -1.1104 3.50267 2.42307 6.68797
168 1 -1.1104 6.65326 -3.07235 6.80555
169 1 -1.1104 6.46028 2.52709 6.66964
172 1 -1.1104 3.84707 -2.99291 6.74904
175 2 2.2208 5.19315 0.935492 10.8694
176 1 -1.1104 0.877065 -3.08814 12.2856
177 1 -1.1104 0.95619 2.40327 12.2828
180 1 -1.1104 1.08267 -2.91772 9.47121
181 1 -1.1104 0.738396 2.54827 9.53655
184 1 -1.1104 0.904982 -0.250826 12.2906
186 2 2.2208 5.10946 -1.76323 8.18603
187 2 2.2208 5.19129 3.8024 8.08493
188 1 -1.1104 0.975167 -0.298663 9.47559
190 1 -1.1104 3.79893 -3.21549 12.312
191 1 -1.1104 3.76714 2.43315 12.1721
192 2 2.2208 2.35834 1.02603 7.98867
193 1 -1.1104 3.82824 -3.11119 9.60651
194 1 -1.1104 3.68838 2.53535 9.36533
195 2 2.2208 2.33904 -1.65302 10.964
196 2 2.2208 2.34851 3.92559 10.8409
197 1 -1.1104 3.80353 -0.45598 12.4676
198 1 -1.1104 3.74174 -0.362688 9.596
178 1 -1.1104 6.57862 -3.10233 12.373
179 1 -1.1104 6.62441 2.44129 12.2702
182 1 -1.1104 6.56175 -3.19318 9.4787
183 1 -1.1104 6.58112 2.3618 9.50134
185 1 -1.1104 6.65512 -0.437228 12.3204
189 1 -1.1104 6.53625 -0.351496 9.41299
199 2 2.2208 7.90326 15.0557 10.8924
209 1 -1.1104 9.22098 2.4781 6.73369
208 1 -1.1104 9.34183 -3.07816 6.77411
206 1 -1.1104 12.0089 2.55218 6.7484
210 1 -1.1104 9.36079 -0.372132 6.80885
207 1 -1.1104 12.004 -0.225518 6.82381
83 1 -1.1104 12.0788 16.4347 9.52552
211 2 2.2208 10.6651 1.09699 10.9913
212 1 -1.1104 12.3095 -3.08229 12.2234
213 1 -1.1104 12.2218 2.49702 12.3034
214 1 -1.1104 12.1432 -3.24187 9.57067
215 1 -1.1104 12.1582 2.50906 9.59288
216 1 -1.1104 12.1313 -0.321589 12.3601
217 2 2.2208 10.7776 -1.76462 8.19311
218 2 2.2208 10.6378 3.91016 8.16184
219 1 -1.1104 12.1551 -0.299195 9.40817
220 1 -1.1104 9.43692 -3.27933 12.3593
221 1 -1.1104 9.32896 2.4916 12.4184
222 2 2.2208 8.01952 0.976424 8.13513
223 1 -1.1104 9.28137 -3.0346 9.48334
224 1 -1.1104 9.46061 2.47627 9.48056
225 2 2.2208 7.95713 -1.81925 10.9285
226 2 2.2208 7.97315 3.91396 10.8411
227 1 -1.1104 9.3931 -0.532042 12.2588
228 1 -1.1104 9.36149 -0.290882 9.52839
8173 2 2.2208 7.96767 -4.53029 8.15992
9058 2 2.2208 13.4878 17.9042 8.11477
302 2 2.2208 13.5307 12.2899 8.1156
307 2 2.2208 13.568 1.15337 2.66114
105 1 -1.1104 9.19963 19.3549 12.1325
137 1 -1.1104 9.27553 19.2104 9.37352
235 1 -1.1104 6.56679 8.0458 6.72537
239 1 -1.1104 3.7342 5.2182 6.8057
236 1 -1.1104 0.978339 5.16626 6.7053
78 1 -1.1104 3.56209 10.9511 6.68995
62 1 -1.1104 0.901155 10.8635 6.65782
234 1 -1.1104 0.949199 8.09528 6.73779
240 2 2.2208 5.21117 6.76858 10.8405
241 2 2.2208 5.13924 12.2517 10.9539
242 1 -1.1104 0.864269 8.01605 12.2213
244 1 -1.1104 0.997507 8.17453 9.64104
246 1 -1.1104 0.917976 5.14828 12.2494
247 1 -1.1104 0.973075 10.9396 12.4282
250 2 2.2208 4.98092 9.56969 8.0563
251 1 -1.1104 0.952361 5.386 9.35387
252 1 -1.1104 0.924077 10.9421 9.45372
255 1 -1.1104 3.72145 8.08983 12.3081
256 2 2.2208 2.33729 6.63143 8.11947
257 2 2.2208 2.3724 12.3508 8.09453
258 1 -1.1104 3.5922 8.05154 9.39359
259 2 2.2208 2.37198 9.57359 10.9023
260 1 -1.1104 3.75814 5.33024 12.3363
261 1 -1.1104 3.65473 10.9377 12.234
262 1 -1.1104 3.77968 5.39546 9.58071
263 1 -1.1104 3.79149 10.9117 9.48162
243 1 -1.1104 6.51275 8.07924 12.2918
249 1 -1.1104 6.39666 10.9455 12.4589
253 1 -1.1104 6.49134 5.38769 9.48462
254 1 -1.1104 6.64362 10.8645 9.58069
248 1 -1.1104 6.50097 5.14654 12.2495
26 1 -1.1104 12.1181 13.6617 12.4674
49 1 -1.1104 12.0971 13.7128 9.50398
269 1 -1.1104 9.40974 5.3576 6.85267
9061 2 2.2208 13.4467 20.7428 5.3255
604 2 2.2208 2.23607 9.54781 -0.274588
265 1 -1.1104 12.1533 8.21332 6.82472
90 1 -1.1104 12.1984 11.0011 6.73482
101 1 -1.1104 9.16497 10.8792 6.71097
266 1 -1.1104 12.1626 5.33663 6.64824
245 1 -1.1104 6.52149 8.33317 9.53657
264 1 -1.1104 9.33166 10.9744 9.52367
268 1 -1.1104 9.29106 5.33443 9.55112
270 1 -1.1104 9.32276 10.8304 12.4744
271 1 -1.1104 9.30632 5.31325 12.272
272 2 2.2208 7.97736 9.49957 10.9579
273 1 -1.1104 9.2075 8.22376 9.44449
274 2 2.2208 7.85748 12.3051 8.16066
275 2 2.2208 7.83302 6.66614 8.14658
276 2 2.2208 10.7431 6.74248 10.9225
277 2 2.2208 10.6544 12.3004 10.9201
278 1 -1.1104 12.126 8.02676 12.269
279 1 -1.1104 12.0979 8.00375 9.51366
280 1 -1.1104 12.2102 5.36161 12.3296
281 1 -1.1104 12.2135 10.8788 12.2955
282 2 2.2208 10.7535 9.40018 8.14614
283 1 -1.1104 12.0912 5.24773 9.3037
284 1 -1.1104 12.2722 10.8515 9.38421
285 1 -1.1104 9.24704 8.02581 12.3717
309 2 2.2208 13.6449 9.50854 10.999
118 1 -1.1104 6.54725 16.4283 6.65958
133 1 -1.1104 3.60851 16.6618 6.68758
117 1 -1.1104 0.843296 16.4822 6.68165
126 1 -1.1104 3.74054 19.475 6.69394
28 1 -1.1104 0.829646 19.3663 6.62442
290 1 -1.1104 6.52983 13.7522 9.50208
297 1 -1.1104 6.78188 13.5892 12.3045
203 1 -1.1104 6.49179 16.4521 12.3082
124 1 -1.1104 3.71041 13.8207 6.72011
108 1 -1.1104 0.779652 13.5549 6.65146
111 1 -1.1104 6.48005 13.6287 6.85065
30 2 2.2208 2.38582 14.9586 10.8173
51 2 2.2208 2.30826 20.5964 10.9358
52 1 -1.1104 3.68794 16.4522 12.2311
202 1 -1.1104 0.858828 16.4031 12.3429
204 1 -1.1104 3.63891 13.5783 9.49687
230 1 -1.1104 3.60701 19.2535 9.51343
231 1 -1.1104 3.65348 16.2826 9.44057
232 2 2.2208 2.17925 17.8245 8.1079
286 1 -1.1104 3.68953 19.1757 12.3022
287 1 -1.1104 3.81093 13.6268 12.293
291 1 -1.1104 0.889722 19.3144 9.47023
292 1 -1.1104 0.751427 16.4355 9.47925
293 2 2.2208 5.02323 20.7384 8.07406
294 1 -1.1104 0.905396 13.7802 9.38293
295 2 2.2208 5.12891 15.0941 8.09513
298 1 -1.1104 0.920337 19.1876 12.368
299 1 -1.1104 0.926965 13.7418 12.2543
300 2 2.2208 5.07698 17.7785 11.0067
288 1 -1.1104 6.43222 19.2094 9.6255
296 1 -1.1104 6.37649 19.1865 12.3179
112 1 -1.1104 6.39493 19.2028 6.71202
289 1 -1.1104 6.44214 16.414 9.41867
104 1 -1.1104 9.32832 13.5845 12.3458
25 2 2.2208 10.7675 17.9296 10.8412
145 1 -1.1104 12.0624 19.3513 6.65898
156 1 -1.1104 9.18699 19.2867 6.42479
163 1 -1.1104 9.27172 16.5341 6.62072
143 1 -1.1104 12.0861 13.7748 6.6314
154 1 -1.1104 9.23771 13.6769 6.74545
149 1 -1.1104 11.9239 16.555 6.58235
17733 2 2.2208 13.6118 -4.53787 13.5832
8463 2 2.2208 5.09494 -4.45467 -0.265629
8531 2 2.2208 2.4459 -4.57529 13.6504
545 2 2.2208 5.11369 17.7312 -0.377409
539 2 2.2208 2.29945 -1.72544 -0.210566
628 2 2.2208 10.7841 6.60221 -0.0913408
570 2 2.2208 7.92473 3.79823 -0.25031
677 2 2.2208 13.5489 -1.84915 -0.175469
353 2 2.2208 5.16207 3.82311 13.6329
510 2 2.2208 10.6419 20.708 13.7215
422 2 2.2208 2.22216 12.1879 13.772
447 2 2.2208 7.87568 6.64175 13.7509
657 2 2.2208 13.5077 17.9193 13.5804
311 2 2.2208 5.05329 1.08083 16.5113
312 1 -1.1104 0.716105 -3.17242 17.8955
313 1 -1.1104 1.08514 2.48097 18.0014
316 1 -1.1104 0.918907 -3.27205 14.9999
318 1 -1.1104 0.791286 2.4636 15.0689
324 1 -1.1104 0.999471 -0.347333 17.8629
326 2 2.2208 5.06468 -1.89412 19.4719
327 2 2.2208 5.05076 3.76135 19.4427
328 1 -1.1104 1.04297 -0.417653 15.0343
332 1 -1.1104 3.54659 -3.16441 18.0894
333 1 -1.1104 3.81746 2.41571 17.8888
334 2 2.2208 2.43648 0.972801 19.3995
335 1 -1.1104 3.7021 -3.1114 15.0165
337 1 -1.1104 3.52534 2.33145 15.1208
339 2 2.2208 2.35152 -1.84494 16.6287
340 2 2.2208 2.29556 3.80305 16.4898
341 1 -1.1104 3.84176 -0.29966 18.0696
342 1 -1.1104 3.72086 -0.358502 15.1962
314 1 -1.1104 6.38239 -3.25896 17.8489
325 1 -1.1104 6.60773 -0.36224 17.873
315 1 -1.1104 6.66403 2.44165 18.0006
330 1 -1.1104 6.56881 -0.294372 15.27
320 1 -1.1104 6.5546 -3.22343 15.0618
509 1 -1.1104 9.37467 16.3457 20.6577
336 1 -1.1104 3.62759 -3.23803 20.8257
317 1 -1.1104 0.820514 -3.174 20.7725
674 2 2.2208 -0.425679 15.0211 19.3384
352 2 2.2208 2.29166 1.07799 13.7566
651 2 2.2208 13.5822 1.12187 13.6883
575 2 2.2208 10.8305 20.912 24.8147
9093 2 2.2208 13.6019 -1.71295 16.4673
322 1 -1.1104 6.51286 2.42265 15.0134
354 2 2.2208 10.7271 1.02516 16.6154
355 1 -1.1104 12.1934 -3.1338 17.9109
356 1 -1.1104 12.2639 2.57635 17.8974
357 1 -1.1104 12.1009 -3.11546 15.1703
359 1 -1.1104 12.2875 2.47144 15.1208
361 1 -1.1104 12.1447 -0.419288 17.9471
362 2 2.2208 10.7934 -1.80725 19.391
364 1 -1.1104 12.2738 -0.254195 15.0954
366 1 -1.1104 9.34863 -3.07772 17.9273
367 1 -1.1104 9.40354 2.33078 18.0246
368 2 2.2208 7.89282 1.03195 19.2997
369 1 -1.1104 9.42149 -3.1432 15.0707
371 1 -1.1104 9.16293 2.34655 15.2006
373 2 2.2208 7.94094 -1.79446 16.4943
374 2 2.2208 7.89814 3.79345 16.501
375 1 -1.1104 9.41866 -0.387607 17.8592
376 1 -1.1104 9.44232 -0.342946 14.9966
363 2 2.2208 10.8432 3.85935 19.3201
421 2 2.2208 4.95095 9.39693 13.7198
380 2 2.2208 13.4926 1.13505 19.2872
664 2 2.2208 13.5817 9.46369 16.5743
548 1 -1.1104 12.1634 19.3643 26.237
667 2 2.2208 13.5602 12.3398 13.7097
385 2 2.2208 10.8906 -1.86346 13.7032
384 2 2.2208 7.96062 0.901222 13.7536
387 2 2.2208 5.18285 6.71916 16.4694
388 2 2.2208 5.05255 12.1846 16.6487
389 1 -1.1104 1.05423 8.04621 17.9028
391 1 -1.1104 0.869871 7.78233 14.9229
395 1 -1.1104 0.870327 5.31921 17.9569
396 1 -1.1104 1.07765 10.8775 17.9616
399 2 2.2208 5.12208 9.40022 19.3743
400 1 -1.1104 0.978927 5.20763 15.2232
402 1 -1.1104 0.983943 10.775 15.1892
408 1 -1.1104 3.84792 8.03089 17.9163
409 2 2.2208 2.35147 6.52837 19.2598
410 2 2.2208 2.33514 12.2573 19.4501
411 1 -1.1104 3.76562 7.92116 15.0983
413 2 2.2208 2.36223 9.31854 16.5713
414 1 -1.1104 3.62325 5.09483 18.0429
415 1 -1.1104 3.79369 10.9582 18.0999
416 1 -1.1104 3.83305 5.1311 15.1647
418 1 -1.1104 3.77272 10.7388 15.1332
390 1 -1.1104 6.65694 7.96519 17.9322
397 1 -1.1104 6.29924 5.31476 17.9989
393 1 -1.1104 6.55444 8.14104 15.1346
406 1 -1.1104 6.54099 10.8273 15.304
404 1 -1.1104 6.55272 5.15092 15.1168
542 1 -1.1104 12.2327 13.5778 23.4276
401 1 -1.1104 0.828675 5.28641 20.9548
394 1 -1.1104 6.5156 8.18277 20.7258
512 2 2.2208 7.92981 17.9378 13.6567
8460 2 2.2208 8.05256 -4.61615 25.0089
448 2 2.2208 10.7765 9.33599 13.666
398 1 -1.1104 6.5492 10.8048 18.1714
423 2 2.2208 10.7806 6.59771 16.553
424 2 2.2208 10.7447 12.268 16.4557
425 1 -1.1104 12.2498 7.95743 17.9115
426 1 -1.1104 12.1333 7.98024 15.1033
428 1 -1.1104 12.2504 5.18045 18.0414
429 1 -1.1104 12.0695 10.6345 17.8548
430 2 2.2208 10.7981 9.40768 19.3558
431 1 -1.1104 12.1123 5.19401 15.0871
433 1 -1.1104 12.3412 10.8531 15.0978
435 1 -1.1104 9.40971 8.03585 17.9661
436 2 2.2208 7.95067 6.681 19.4415
437 2 2.2208 8.07881 12.2898 19.3339
438 1 -1.1104 9.40017 8.03276 15.2005
440 2 2.2208 7.97202 9.43491 16.5748
441 1 -1.1104 9.3824 5.15209 17.8022
442 1 -1.1104 9.46355 10.9556 17.9664
443 1 -1.1104 9.37038 5.23861 15.1056
445 1 -1.1104 9.48796 10.8992 15.1911
386 2 2.2208 10.7742 3.74337 13.7557
9405 2 2.2208 13.6715 20.6955 22.0936
439 1 -1.1104 9.34808 8.04727 20.7983
427 1 -1.1104 12.13 8.07896 20.7009
449 2 2.2208 7.98087 12.165 13.773
549 1 -1.1104 12.2208 16.3637 23.501
658 2 2.2208 13.6989 15.01 22.1334
483 2 2.2208 2.39432 17.8286 13.6016
541 2 2.2208 10.7851 17.8588 22.0844
609 1 -1.1104 9.48612 19.3841 26.2042
450 2 2.2208 5.16429 17.893 16.5498
451 1 -1.1104 0.878191 13.551 17.9406
452 1 -1.1104 1.07055 19.251 18.0243
455 1 -1.1104 0.964511 13.6524 15.0876
457 1 -1.1104 0.862387 19.1406 15.1074
463 1 -1.1104 0.900714 16.3771 18.0446
465 2 2.2208 5.20846 14.9673 19.2702
466 2 2.2208 5.10303 20.5778 19.3912
467 1 -1.1104 1.0162 16.3831 15.1387
471 1 -1.1104 3.74034 13.5981 17.9037
472 1 -1.1104 3.79201 19.1715 17.8302
473 2 2.2208 2.31392 17.7305 19.3375
474 1 -1.1104 3.74565 13.595 15.1133
476 1 -1.1104 3.73342 19.2313 15.1062
478 2 2.2208 2.53431 15.03 16.5717
479 2 2.2208 2.33759 20.6138 16.5962
480 1 -1.1104 3.8109 16.3722 17.9469
481 1 -1.1104 3.74804 16.5147 14.9717
469 1 -1.1104 6.59302 16.4846 15.1771
461 1 -1.1104 6.47354 19.1775 15.2552
459 1 -1.1104 6.52751 13.7204 15.1941
453 1 -1.1104 6.63569 13.6095 17.9303
571 2 2.2208 10.7398 14.9329 24.8287
608 1 -1.1104 9.26937 13.5517 26.2034
670 2 2.2208 13.5011 15.1321 16.5844
631 2 2.2208 8.01886 15.0128 22.1812
502 1 -1.1104 9.51071 13.6247 20.8495
666 2 2.2208 13.6852 12.076 19.2634
454 1 -1.1104 6.51796 19.3976 17.9091
464 1 -1.1104 6.60851 16.4492 17.8888
671 2 2.2208 13.6386 17.8524 19.2558
486 2 2.2208 10.6996 17.7629 16.449
487 1 -1.1104 12.2553 13.716 17.9108
488 1 -1.1104 12.1193 19.1943 17.7627
489 1 -1.1104 12.0505 13.6173 15.262
491 1 -1.1104 12.2373 19.5305 15.0065
493 1 -1.1104 12.1077 16.5284 17.7839
494 2 2.2208 10.7503 15.0985 19.2675
495 2 2.2208 10.7873 20.5937 19.2079
496 1 -1.1104 12.0444 16.6029 15.0481
498 1 -1.1104 9.48263 13.602 18.0456
499 1 -1.1104 9.31699 19.14 17.8416
500 2 2.2208 7.98364 17.842 19.4031
501 1 -1.1104 9.35592 13.6555 15.2163
503 1 -1.1104 9.28805 19.3235 14.9398
505 2 2.2208 7.92171 14.9514 16.5027
506 2 2.2208 7.93723 20.587 16.5612
507 1 -1.1104 9.40632 16.3795 17.8515
508 1 -1.1104 9.35929 16.5356 15.036
672 2 2.2208 13.6803 20.6032 16.5368
511 2 2.2208 10.616 15.0654 13.6733
319 1 -1.1104 0.746399 2.44279 20.9894
338 1 -1.1104 3.67774 2.24778 20.8054
329 1 -1.1104 1.06934 -0.359392 20.7079
331 1 -1.1104 6.753 -0.381054 20.6549
343 1 -1.1104 3.80174 -0.460616 20.876
321 1 -1.1104 6.45587 -3.19511 20.7389
514 2 2.2208 5.19792 0.887877 22.3422
515 1 -1.1104 0.932984 -3.14199 23.6628
516 1 -1.1104 0.719339 2.50229 23.6579
519 1 -1.1104 1.04752 -3.05269 26.4135
520 1 -1.1104 0.948327 2.45117 26.4785
523 1 -1.1104 0.903896 -0.345416 23.5943
525 2 2.2208 5.19735 -1.84634 24.9919
526 2 2.2208 5.04991 3.80755 25.0032
527 1 -1.1104 0.918725 -0.326387 26.4936
529 1 -1.1104 3.74763 -3.23432 23.5773
530 1 -1.1104 3.64688 2.39048 23.5716
531 2 2.2208 2.40344 1.0047 25.1022
532 1 -1.1104 3.85385 -3.2939 26.3265
533 1 -1.1104 3.79112 2.32093 26.4542
534 2 2.2208 2.37945 -1.90038 22.1475
535 2 2.2208 2.18966 3.76686 22.1474
536 1 -1.1104 3.7506 -0.404332 23.6562
537 1 -1.1104 3.7154 -0.41569 26.5622
528 1 -1.1104 6.5933 -0.488067 26.413
517 1 -1.1104 6.43663 -3.28782 23.6126
518 1 -1.1104 6.49121 2.42878 23.6205
522 1 -1.1104 6.46614 2.23408 26.3136
521 1 -1.1104 6.62148 -3.20247 26.4108
524 1 -1.1104 6.59175 -0.463343 23.6237
546 1 -1.1104 12.1406 19.2541 23.3372
659 2 2.2208 13.4867 0.995518 25.0479
685 2 2.2208 13.6683 9.42819 22.1578
323 1 -1.1104 6.42164 2.35316 20.739
370 1 -1.1104 9.38502 -3.13116 20.8081
360 1 -1.1104 12.0583 2.4657 20.6975
377 1 -1.1104 9.42743 -0.475578 20.6993
358 1 -1.1104 12.3065 -3.20522 20.8458
365 1 -1.1104 12.3085 -0.328279 20.7774
681 2 2.2208 13.4806 3.78826 22.2521
372 1 -1.1104 9.3458 2.51421 20.7553
550 2 2.2208 10.711 1.01212 22.1241
551 1 -1.1104 12.3391 -3.00666 23.6807
552 1 -1.1104 12.1048 2.4763 23.5197
553 1 -1.1104 12.1954 -3.27478 26.6178
554 1 -1.1104 12.0467 2.45483 26.495
555 1 -1.1104 12.1439 -0.160615 23.7109
556 2 2.2208 10.8914 -1.7771 24.9653
557 2 2.2208 10.6697 3.85791 24.9947
558 1 -1.1104 12.1435 -0.517249 26.4531
559 1 -1.1104 9.29962 -3.15394 23.5078
560 1 -1.1104 9.24778 2.30824 23.5867
561 2 2.2208 7.9741 1.10232 25.0112
562 1 -1.1104 9.38877 -3.09113 26.3831
563 1 -1.1104 9.35785 2.46899 26.5693
564 2 2.2208 7.90757 -1.88979 22.1281
565 2 2.2208 7.89929 3.76005 22.2514
566 1 -1.1104 9.4116 -0.538986 23.6387
567 1 -1.1104 9.39685 -0.298049 26.3585
656 2 2.2208 13.6632 -1.72604 22.1896
420 2 2.2208 2.40618 6.6094 13.5611
663 2 2.2208 13.5028 6.64149 13.7393
665 2 2.2208 13.6523 6.72215 19.3487
419 1 -1.1104 3.79342 10.7173 20.7922
407 1 -1.1104 6.62025 10.995 20.8183
403 1 -1.1104 0.985825 10.9024 20.8179
412 1 -1.1104 3.80888 7.98031 20.6238
392 1 -1.1104 0.949244 8.08913 20.6845
417 1 -1.1104 3.67941 5.08488 20.8129
579 2 2.2208 5.06358 6.64829 22.1855
580 2 2.2208 5.10091 12.1828 22.1728
581 1 -1.1104 0.954224 7.97791 23.4851
583 1 -1.1104 0.907775 8.06882 26.3227
585 1 -1.1104 0.763465 5.11612 23.6483
586 1 -1.1104 0.812847 10.7179 23.6263
589 2 2.2208 5.11747 9.40204 25.012
590 1 -1.1104 0.947497 5.39526 26.4733
591 1 -1.1104 0.982486 10.921 26.3622
594 1 -1.1104 3.76924 8.04584 23.4881
595 2 2.2208 2.22287 6.67117 24.9246
596 2 2.2208 2.40221 12.0852 24.9284
597 1 -1.1104 3.52955 7.8847 26.3724
598 2 2.2208 2.37537 9.39668 22.1193
599 1 -1.1104 3.5341 5.28041 23.5194
600 1 -1.1104 3.6792 10.9146 23.4432
601 1 -1.1104 3.77633 5.22351 26.3929
602 1 -1.1104 3.80313 10.6129 26.5212
588 1 -1.1104 6.38614 10.7481 23.7058
584 1 -1.1104 6.42543 7.91381 26.3653
582 1 -1.1104 6.54733 8.0535 23.499
592 1 -1.1104 6.46189 5.0293 26.5276
678 2 2.2208 13.5502 12.1011 24.8279
578 1 -1.1104 9.26615 19.431 23.4758
405 1 -1.1104 6.44862 5.2765 20.8432
446 1 -1.1104 9.44543 10.7397 20.7276
434 1 -1.1104 12.2261 10.8486 20.7534
661 2 2.2208 13.5386 6.56656 25.0896
593 1 -1.1104 6.51886 10.9202 26.4324
587 1 -1.1104 6.30793 5.30755 23.6912
432 1 -1.1104 12.1795 5.2864 20.8103
444 1 -1.1104 9.33884 5.30007 20.7278
610 1 -1.1104 9.40693 10.8279 26.4482
611 1 -1.1104 9.32613 5.13633 26.3796
612 1 -1.1104 9.25675 10.7978 23.5986
613 1 -1.1104 9.34152 5.01139 23.5116
614 2 2.2208 7.90519 9.52457 22.1323
615 1 -1.1104 9.25023 7.90135 26.4402
616 2 2.2208 7.93782 12.2081 24.8948
617 2 2.2208 7.9036 6.61167 24.9455
618 2 2.2208 10.6782 6.66143 22.045
619 2 2.2208 10.8163 12.2319 22.0905
620 1 -1.1104 12.2673 8.05787 23.583
621 1 -1.1104 12.0917 8.04928 26.5026
622 1 -1.1104 12.087 5.34182 23.5528
623 1 -1.1104 12.1821 10.7658 23.5227
624 2 2.2208 10.763 9.42457 25.0119
625 1 -1.1104 12.1258 5.30746 26.4347
626 1 -1.1104 12.1999 10.7831 26.4863
627 1 -1.1104 9.42438 7.97213 23.6372
649 2 2.2208 13.7124 3.87362 16.6084
547 1 -1.1104 12.2185 13.5955 26.2724
456 1 -1.1104 0.924474 13.6167 20.7402
482 1 -1.1104 3.57946 16.2954 20.6887
462 1 -1.1104 6.52222 19.0256 20.7649
641 1 -1.1104 6.45867 19.1703 23.6748
347 1 -1.1104 6.68073 16.5746 23.5885
477 1 -1.1104 3.74288 19.2447 20.5797
460 1 -1.1104 6.55824 13.6661 20.6732
607 1 -1.1104 6.63753 19.2778 26.4436
635 1 -1.1104 6.47556 13.574 26.2318
458 1 -1.1104 0.921321 19.2141 20.9183
475 1 -1.1104 3.70545 13.5134 20.8337
468 1 -1.1104 0.799224 16.3592 20.7898
645 1 -1.1104 0.802789 19.3087 23.6636
643 2 2.2208 5.23781 15.058 24.9275
383 1 -1.1104 3.78496 19.2067 26.2905
382 2 2.2208 2.3754 17.9111 24.9752
381 1 -1.1104 3.81409 16.4796 26.4252
379 1 -1.1104 3.58407 13.5697 26.4108
634 1 -1.1104 3.67347 19.1234 23.46
574 2 2.2208 2.34951 20.6737 22.192
639 1 -1.1104 1.08594 16.4707 26.3641
346 1 -1.1104 1.01072 16.3564 23.6123
642 2 2.2208 5.14369 20.5258 24.9571
573 2 2.2208 2.40371 15.0001 22.2851
638 1 -1.1104 0.967242 19.2005 26.3733
640 1 -1.1104 0.64286 13.7113 26.4172
647 2 2.2208 5.04951 17.6462 22.1037
646 1 -1.1104 1.0888 13.3879 23.4829
636 1 -1.1104 3.81223 13.6468 23.7011
345 1 -1.1104 3.82217 16.4507 23.5269
637 1 -1.1104 6.64863 16.3143 26.194
644 1 -1.1104 6.72641 13.6074 23.4277
633 1 -1.1104 9.40527 16.5178 23.6168
513 2 2.2208 8.03011 20.7391 27.6718
577 1 -1.1104 9.36207 13.4725 23.4866
470 1 -1.1104 6.40617 16.3793 20.7697
504 1 -1.1104 9.38541 19.0976 20.6542
492 1 -1.1104 12.2147 19.2564 20.5526
497 1 -1.1104 12.1199 16.5491 20.6982
490 1 -1.1104 12.1555 13.6216 20.5932
632 2 2.2208 7.87928 20.6364 22.0201
606 2 2.2208 7.98582 17.961 24.9585
576 1 -1.1104 12.256 16.3155 26.2743
543 1 -1.1104 9.40332 16.4428 26.4453
485 2 2.2208 5.15697 14.9395 13.7244
344 2 2.2208 7.96346 15.0093 27.5955
351 2 2.2208 5.19736 -1.74283 13.7847
662 2 2.2208 13.6531 9.41763 27.9374
9406 2 2.2208 13.5836 20.6913 27.4858
378 2 2.2208 10.8578 17.9362 27.7487
544 2 2.2208 2.19999 14.9661 27.8176
540 2 2.2208 2.0565 3.78444 27.775
9407 2 2.2208 13.5624 14.9564 27.7719
484 2 2.2208 5.08418 20.5966 13.7344
687 2 2.2208 5.05983 23.3989 5.27356
688 2 2.2208 5.18987 29.1367 5.22394
689 1 -1.1104 0.973344 24.8663 1.09488
690 1 -1.1104 1.00636 25.0149 3.75302
691 1 -1.1104 0.870665 22.0769 0.957496
692 1 -1.1104 0.899734 27.8256 1.01195
693 2 2.2208 5.1051 26.2349 2.39948
694 1 -1.1104 0.947413 22.064 3.78476
695 1 -1.1104 0.893437 27.7733 3.99456
696 1 -1.1104 3.82766 24.8033 0.980676
697 2 2.2208 2.47976 23.5447 2.4124
698 2 2.2208 2.29675 29.0374 2.44396
699 1 -1.1104 3.74051 24.8129 3.84048
700 2 2.2208 2.28412 26.3478 5.17747
701 1 -1.1104 3.76058 22.1009 1.12336
702 1 -1.1104 3.75526 27.6531 1.04249
703 1 -1.1104 3.69485 22.0632 3.97165
704 1 -1.1104 3.65046 27.7124 3.85741
708 1 -1.1104 6.58297 24.8915 1.02047
709 1 -1.1104 6.56441 24.8168 3.80927
710 1 -1.1104 6.59603 21.9277 1.04682
713 1 -1.1104 6.41636 27.6448 3.84146
712 1 -1.1104 6.43856 22.0512 3.76463
833 1 -1.1104 6.42943 27.7511 6.72253
1551 1 -1.1104 3.7499 47.2334 9.45437
1354 1 -1.1104 3.71025 47.3472 1.00824
1580 1 -1.1104 9.13675 47.3115 9.56615
711 1 -1.1104 6.50832 27.6018 1.03203
714 2 2.2208 10.7028 23.5458 5.24615
715 2 2.2208 10.471 29.1104 5.21875
716 1 -1.1104 12.0485 24.8639 0.872553
717 1 -1.1104 12.0516 24.719 3.73102
718 1 -1.1104 12.0046 22.1646 0.972113
719 1 -1.1104 12.2506 27.7252 1.25846
720 2 2.2208 10.554 26.2979 2.3801
721 1 -1.1104 12.148 22.0927 3.81391
722 1 -1.1104 11.9262 27.4929 4.09806
723 1 -1.1104 9.33942 25.017 0.883073
724 2 2.2208 7.99197 23.4276 2.40325
725 2 2.2208 7.76053 29.0904 2.41815
726 1 -1.1104 9.20649 24.8528 3.96924
727 2 2.2208 7.89514 26.2154 5.23131
728 1 -1.1104 9.23318 22.2429 0.943607
729 1 -1.1104 9.25558 27.9407 0.9202
730 1 -1.1104 9.29131 22.0537 3.85991
731 1 -1.1104 9.25841 27.5745 3.79972
865 1 -1.1104 9.30619 22.0475 6.63727
9720 2 2.2208 13.4438 26.221 5.20868
1539 1 -1.1104 6.51027 47.2479 9.33655
765 1 -1.1104 12.4526 30.1078 5.24128
1376 1 -1.1104 12.1666 47.3207 1.24322
9719 2 2.2208 13.6806 29.0536 2.60844
863 1 -1.1104 12.3063 27.4855 6.82293
9713 2 2.2208 13.5108 40.2495 8.08373
9718 2 2.2208 13.5253 23.3717 2.36774
9716 2 2.2208 13.4829 37.6861 11.0042
735 2 2.2208 4.91728 34.7524 5.33298
736 1 -1.1104 0.863719 30.4661 1.08159
737 1 -1.1104 0.753505 35.9315 0.986878
739 1 -1.1104 1.01392 30.4764 3.73236
740 1 -1.1104 0.855148 35.9167 3.78702
742 1 -1.1104 0.862125 33.1437 1.14988
743 2 2.2208 5.1221 31.8838 2.29112
744 2 2.2208 5.04305 37.5256 2.64136
745 1 -1.1104 0.76792 33.2082 3.95256
747 1 -1.1104 3.62167 30.488 0.966059
748 1 -1.1104 3.53552 36.0661 1.22487
749 2 2.2208 2.26359 34.6793 2.43566
750 1 -1.1104 3.87484 30.4454 3.7561
751 1 -1.1104 3.66074 36.1372 3.88189
752 2 2.2208 2.27471 31.8634 5.13504
753 2 2.2208 2.20075 37.4981 5.27731
754 1 -1.1104 3.72643 33.281 0.99981
755 1 -1.1104 3.56921 33.2495 3.79626
761 1 -1.1104 6.45667 33.3905 1.16459
746 1 -1.1104 6.45605 33.2867 3.95227
889 1 -1.1104 3.55132 33.1124 6.71615
738 1 -1.1104 6.37864 36.1513 1.13771
760 1 -1.1104 6.61656 30.5643 3.80775
741 1 -1.1104 6.41032 36.1864 4.18174
759 1 -1.1104 6.47329 30.4851 0.90279
886 1 -1.1104 6.39269 33.3802 6.76786
9731 2 2.2208 13.5751 23.5063 8.12367
9732 2 2.2208 13.6765 32.1517 5.13199
882 1 -1.1104 0.705751 36.1542 6.66677
888 1 -1.1104 3.45559 36.054 6.75984
9634 2 2.2208 13.3895 43.2557 10.8113
1532 1 -1.1104 3.49546 47.167 6.56462
762 2 2.2208 10.791 34.6626 5.23868
763 1 -1.1104 12.0844 30.3592 1.45039
764 1 -1.1104 11.9958 36.0715 1.09615
766 1 -1.1104 12.3997 35.9041 4.01938
767 1 -1.1104 12.066 33.1237 0.979739
768 2 2.2208 10.5012 32.0569 2.35704
769 2 2.2208 10.743 37.5389 2.41312
770 1 -1.1104 12.13 33.1651 3.66775
771 1 -1.1104 9.3345 30.5956 0.989155
772 1 -1.1104 9.32401 36.1103 1.09115
773 2 2.2208 7.90663 34.6871 2.40975
774 1 -1.1104 9.49821 30.3535 3.7638
775 1 -1.1104 9.41497 36.1754 3.90907
776 2 2.2208 7.76698 32.0841 5.37614
777 2 2.2208 7.95262 37.5599 5.27931