ITEM: TIMESTEP
90000
ITEM: NUMBER OF ATOMS
17760
ITEM: BOX BOUNDS pp pp pp
-3.8142365585018045e-01 2.7721423655850341e+01
-4.7110698365958168e+00 3.3279106983660034e+02
-3.7645669176692098e-01 2.7716456691766936e+01
ITEM: ATOMS id type q x y z
1 2 2.2208 4.99778 0.838175 5.34895
2 1 -1.1104 0.774879 -3.43891 1.25375
3 1 -1.1104 0.929357 2.38004 1.13314
6 1 -1.1104 0.875042 -3.26333 4.01223
7 1 -1.1104 0.921358 2.47363 3.80828
10 1 -1.1104 0.960899 -0.402631 1.19543
12 2 2.2208 5.05679 -1.77694 2.45036
13 2 2.2208 5.18959 3.75184 2.67282
14 1 -1.1104 0.891059 -0.386002 3.95113
16 1 -1.1104 3.65553 -3.20336 1.19239
17 1 -1.1104 3.69728 2.35794 1.10628
18 2 2.2208 2.34412 1.00963 2.50748
19 1 -1.1104 3.71648 -3.35208 3.93843
20 1 -1.1104 3.7311 2.27194 3.97342
21 2 2.2208 2.30336 -1.85473 5.26783
22 2 2.2208 2.24436 3.77098 5.28594
23 1 -1.1104 3.76526 -0.359262 1.10179
24 1 -1.1104 3.71229 -0.446885 3.94427
11 1 -1.1104 6.50089 -0.277098 1.17539
5 1 -1.1104 6.4852 2.40413 1.16055
4 1 -1.1104 6.48679 -3.21998 1.12558
15 1 -1.1104 6.45213 -0.356131 3.92611
8 1 -1.1104 6.56151 -3.22602 4.08455
540 2 2.2208 2.34706 3.80713 -0.305378
628 2 2.2208 10.7258 6.65298 -0.254463
8463 2 2.2208 5.13256 -4.63021 -0.219032
539 2 2.2208 2.30864 -1.80395 -0.246279
9 1 -1.1104 6.52654 2.42896 3.99888
31 2 2.2208 10.8484 1.11344 5.29719
32 1 -1.1104 12.1614 -3.20843 1.02153
33 1 -1.1104 12.1642 2.47572 1.10846
34 1 -1.1104 12.0862 -3.25006 3.71941
35 1 -1.1104 12.1591 2.44473 3.99332
36 1 -1.1104 12.2345 -0.393493 1.22174
37 2 2.2208 10.6746 -1.78878 2.51323
39 1 -1.1104 11.9877 -0.37841 3.9617
40 1 -1.1104 9.23971 -3.2117 1.1867
41 1 -1.1104 9.33385 2.35143 1.18018
42 2 2.2208 7.90337 1.06096 2.55139
43 1 -1.1104 9.33506 -3.18722 3.91035
44 1 -1.1104 9.32488 2.39441 3.81193
45 2 2.2208 7.89299 -1.79186 5.34622
46 2 2.2208 7.91463 3.6907 5.24606
47 1 -1.1104 9.32044 -0.453675 1.14721
48 1 -1.1104 9.30937 -0.318074 3.8008
38 2 2.2208 10.7189 3.82473 2.56789
205 1 -1.1104 12.1305 -3.14598 6.73094
301 2 2.2208 13.6559 3.87398 5.37153
569 2 2.2208 7.90018 -1.74085 -0.334827
17351 2 2.2208 13.5627 -4.68438 2.44744
307 2 2.2208 13.6153 1.11789 2.51532
8330 2 2.2208 10.8104 -4.58931 5.27075
8390 2 2.2208 2.17103 -4.67715 2.5618
9062 2 2.2208 13.4381 -1.8016 5.27535
8172 2 2.2208 10.7367 -4.67402 10.85
662 2 2.2208 13.5316 9.46773 -0.299514
8902 2 2.2208 13.5334 3.56913 10.8038
54 2 2.2208 5.08066 6.60879 5.29794
55 2 2.2208 5.02339 12.2168 5.2094
56 1 -1.1104 0.930469 8.06978 1.22723
58 1 -1.1104 1.00007 7.98298 4.00075
60 1 -1.1104 0.970701 5.25589 1.06795
61 1 -1.1104 0.915458 10.8719 1.08413
66 2 2.2208 5.16406 9.51613 2.44439
67 1 -1.1104 0.865759 5.33258 3.84623
68 1 -1.1104 0.895906 10.7523 3.92537
71 1 -1.1104 3.63369 8.07893 1.10093
72 2 2.2208 2.35457 6.68212 2.53646
73 2 2.2208 2.37015 12.2013 2.45697
74 1 -1.1104 3.77242 8.07305 3.91576
75 2 2.2208 2.32694 9.38419 5.2271
76 1 -1.1104 3.8092 5.1912 1.22962
77 1 -1.1104 3.7521 10.8425 1.16255
79 1 -1.1104 3.64661 5.06632 3.86423
80 1 -1.1104 3.6753 10.8964 3.92823
239 1 -1.1104 3.65869 5.19378 6.5316
677 2 2.2208 13.5517 -1.82923 -0.295555
63 1 -1.1104 6.50832 5.18489 1.22147
57 1 -1.1104 6.51505 7.97312 1.19486
64 1 -1.1104 6.50946 10.8562 0.988256
70 1 -1.1104 6.49988 10.8937 3.81925
238 1 -1.1104 3.73602 8.07945 6.7215
8173 2 2.2208 7.86974 -4.62407 8.26687
8334 2 2.2208 7.81934 -4.57129 2.44263
9063 2 2.2208 13.5311 9.24983 5.40603
305 2 2.2208 13.5094 6.52059 2.54366
59 1 -1.1104 6.77686 8.08735 3.96118
69 1 -1.1104 6.59698 5.3035 3.91186
84 2 2.2208 10.6545 6.4649 5.34133
85 2 2.2208 10.6584 12.146 5.34419
86 1 -1.1104 12.1768 8.08075 1.18027
87 1 -1.1104 12.2185 7.81796 4.03211
88 1 -1.1104 11.9986 5.09879 1.03424
89 1 -1.1104 12.1595 10.8214 1.04571
91 2 2.2208 10.8467 9.48306 2.48703
92 1 -1.1104 12.1633 5.18675 3.89592
93 1 -1.1104 12.1164 10.602 4.15395
94 1 -1.1104 9.37037 8.15111 1.00505
95 2 2.2208 7.9165 6.71816 2.46505
96 2 2.2208 7.86431 12.249 2.49535
97 1 -1.1104 9.51754 8.1017 3.90444
98 2 2.2208 7.89923 9.55353 5.192
99 1 -1.1104 9.28923 5.40725 1.02128
100 1 -1.1104 9.25651 10.8935 0.982904
102 1 -1.1104 9.30633 5.31148 3.64561
103 1 -1.1104 9.35875 10.9113 3.8301
9048 2 2.2208 13.5254 17.8589 2.61681
105 1 -1.1104 9.24232 19.1603 12.3677
9067 2 2.2208 13.4929 12.2394 2.49562
104 1 -1.1104 9.16281 13.5167 12.3067
9061 2 2.2208 13.5649 20.6141 5.30252
106 2 2.2208 5.00526 17.7918 5.29084
107 1 -1.1104 0.935085 13.4897 1.02155
109 1 -1.1104 0.793675 19.1661 1.12201
113 1 -1.1104 1.02442 13.6319 3.8683
114 1 -1.1104 0.867611 19.1827 3.94373
116 1 -1.1104 0.766084 16.2464 1.15534
119 2 2.2208 5.05036 15.0411 2.58954
120 2 2.2208 5.09504 20.5677 2.48994
121 1 -1.1104 0.746998 16.3631 3.84426
123 1 -1.1104 3.61992 13.7214 0.970729
125 1 -1.1104 3.63731 19.1295 1.14925
127 2 2.2208 2.21917 17.7252 2.50238
128 1 -1.1104 3.85149 13.5627 3.84526
129 1 -1.1104 3.78921 19.2142 3.94408
130 2 2.2208 2.26041 14.9519 5.34398
131 2 2.2208 2.20914 20.6645 5.23058
132 1 -1.1104 3.49953 16.4415 1.1129
134 1 -1.1104 3.46618 16.2555 3.96
138 1 -1.1104 6.62676 19.102 0.971412
140 1 -1.1104 6.37082 16.2646 1.00695
122 1 -1.1104 6.30905 16.4536 3.7825
17324 2 2.2208 13.5836 -4.56944 8.12102
28 1 -1.1104 0.596432 19.2618 6.73696
9058 2 2.2208 13.4307 17.6977 8.1938
110 1 -1.1104 6.4202 13.6469 1.1295
139 1 -1.1104 6.63998 19.1232 3.75342
115 1 -1.1104 6.52066 13.647 3.96612
141 2 2.2208 10.6297 17.8514 5.28823
142 1 -1.1104 12.0577 13.5972 1.03292
144 1 -1.1104 11.9608 19.1679 1.06465
146 1 -1.1104 12.1006 13.576 3.94289
147 1 -1.1104 12.1431 19.173 3.95769
148 1 -1.1104 12.05 16.4026 1.00716
150 2 2.2208 10.6425 14.8833 2.44845
151 2 2.2208 10.6059 20.4773 2.42557
152 1 -1.1104 12.0146 16.378 3.87934
153 1 -1.1104 9.24257 13.5997 1.10743
155 1 -1.1104 9.22129 19.0475 0.983817
157 2 2.2208 7.94571 17.7872 2.37156
158 1 -1.1104 9.39979 13.743 3.95335
159 1 -1.1104 9.29402 19.2878 3.88302
160 2 2.2208 7.9012 14.9423 5.37802
161 2 2.2208 7.83205 20.5127 5.20933
162 1 -1.1104 9.17633 16.2732 1.10646
164 1 -1.1104 9.1715 16.4216 3.89019
156 1 -1.1104 9.24242 19.0444 6.64736
149 1 -1.1104 12.0224 16.323 6.78748
83 1 -1.1104 12.1087 16.3797 9.72047
344 2 2.2208 7.98108 14.979 -0.326808
145 1 -1.1104 11.9835 19.0532 6.82875
154 1 -1.1104 9.18759 13.3916 6.65428
684 2 2.2208 13.4345 3.8771 -0.333973
82 2 2.2208 10.6476 20.4648 8.07095
9407 2 2.2208 13.5582 15.0613 -0.220704
545 2 2.2208 5.02885 17.7324 -0.220774
172 1 -1.1104 3.72313 -3.2655 6.6153
167 1 -1.1104 0.929885 2.17696 6.63576
166 1 -1.1104 0.944533 -3.42863 6.7388
538 2 2.2208 5.14969 0.977056 -0.275668
26 1 -1.1104 12.0427 13.5261 12.3554
170 1 -1.1104 0.788505 -0.498059 6.72109
168 1 -1.1104 6.55426 -3.25295 6.87624
174 1 -1.1104 3.67976 -0.456966 6.70541
173 1 -1.1104 3.66053 2.3848 6.72639
175 2 2.2208 4.98514 0.933134 11.0431
176 1 -1.1104 1.00934 -3.39564 12.311
177 1 -1.1104 0.837506 2.39436 12.4431
180 1 -1.1104 0.685153 -3.25136 9.55513
181 1 -1.1104 0.849555 2.34056 9.41677
184 1 -1.1104 0.946837 -0.60385 12.4855
186 2 2.2208 5.2142 -1.85714 8.14627
187 2 2.2208 5.15 3.78155 8.15238
188 1 -1.1104 0.926273 -0.435339 9.58054
190 1 -1.1104 3.90103 -3.25389 12.3162
191 1 -1.1104 3.74327 2.33482 12.4882
192 2 2.2208 2.37946 0.890704 8.14126
193 1 -1.1104 3.64138 -3.33709 9.67142
194 1 -1.1104 3.64135 2.39749 9.48315
195 2 2.2208 2.34358 -1.86209 11.0066
196 2 2.2208 2.2198 3.67915 10.9388
197 1 -1.1104 3.67054 -0.413848 12.38
198 1 -1.1104 3.79378 -0.47903 9.49561
182 1 -1.1104 6.54582 -3.45369 9.72558
189 1 -1.1104 6.53853 -0.483356 9.72076
178 1 -1.1104 6.59788 -3.32256 12.4735
179 1 -1.1104 6.45266 2.29275 12.254
81 2 2.2208 10.7236 14.9261 8.13513
171 1 -1.1104 6.49414 -0.343653 6.84123
210 1 -1.1104 9.41135 -0.336312 6.68266
199 2 2.2208 7.91832 14.968 11.0149
169 1 -1.1104 6.37732 2.29301 6.82661
183 1 -1.1104 6.37447 2.4269 9.56315
185 1 -1.1104 6.51135 -0.594934 12.26
570 2 2.2208 8.06416 3.75068 -0.262195
208 1 -1.1104 9.42388 -3.1196 6.76076
209 1 -1.1104 9.17763 2.31306 6.80143
207 1 -1.1104 12.2735 -0.287093 6.8699
206 1 -1.1104 12.0774 2.44862 6.75208
211 2 2.2208 10.728 0.911633 10.8191
212 1 -1.1104 12.2164 -3.14147 12.3292
213 1 -1.1104 12.1977 2.27774 12.2103
214 1 -1.1104 12.2104 -3.2842 9.70469
215 1 -1.1104 12.1831 2.26571 9.4938
216 1 -1.1104 12.1872 -0.389535 12.6459
217 2 2.2208 10.7728 -1.83997 8.16835
218 2 2.2208 10.7093 3.7549 8.11359
219 1 -1.1104 12.144 -0.539688 9.7669
220 1 -1.1104 9.48894 -3.26667 12.441
221 1 -1.1104 9.23651 2.3482 12.5159
222 2 2.2208 7.88715 0.988001 8.17512
223 1 -1.1104 9.3359 -3.22689 9.4449
224 1 -1.1104 9.19217 2.33854 9.53008
225 2 2.2208 7.87732 -1.82586 10.9853
227 1 -1.1104 9.2911 -0.270685 12.217
228 1 -1.1104 9.26049 -0.449956 9.45878
226 2 2.2208 7.86101 3.81284 10.883
49 1 -1.1104 12.1734 13.4829 9.60078
9065 2 2.2208 13.6122 -1.85826 10.996
137 1 -1.1104 9.23688 19.0741 9.66279
29 1 -1.1104 9.17211 16.4485 9.60251
78 1 -1.1104 3.68173 10.8372 6.61886
236 1 -1.1104 0.910037 5.12017 6.69392
65 1 -1.1104 6.45411 10.7937 6.62663
234 1 -1.1104 0.975208 7.87643 6.66992
62 1 -1.1104 0.747107 10.6938 6.73365
240 2 2.2208 5.02792 6.49326 10.9065
241 2 2.2208 5.08848 12.2237 10.7956
242 1 -1.1104 0.935677 8.1131 12.2808
244 1 -1.1104 0.981499 7.96899 9.51547
246 1 -1.1104 0.805148 5.19724 12.4034
247 1 -1.1104 0.828769 10.8798 12.2966
250 2 2.2208 5.12375 9.39605 8.03915
251 1 -1.1104 0.929661 5.22401 9.4223
252 1 -1.1104 0.879667 10.7702 9.44245
255 1 -1.1104 3.67049 7.81161 12.2109
256 2 2.2208 2.36212 6.74002 8.05827
257 2 2.2208 2.20535 12.1036 8.03507
258 1 -1.1104 3.70592 8.08151 9.57814
259 2 2.2208 2.25606 9.39769 10.9117
260 1 -1.1104 3.6575 5.08878 12.3668
261 1 -1.1104 3.61682 10.7701 12.3645
262 1 -1.1104 3.82294 5.12626 9.46791
263 1 -1.1104 3.64398 10.9432 9.43948
249 1 -1.1104 6.51139 11.0358 12.1429
237 1 -1.1104 6.53526 5.10839 6.67439
245 1 -1.1104 6.49518 8.11334 9.60418
243 1 -1.1104 6.54774 8.22676 12.2926
253 1 -1.1104 6.5106 5.21425 9.47452
254 1 -1.1104 6.48054 10.7708 9.42261
248 1 -1.1104 6.42488 5.20955 12.2845
233 1 -1.1104 9.35933 16.423 12.4688
235 1 -1.1104 6.48299 7.98261 6.72503
90 1 -1.1104 12.1639 10.6498 6.91664
269 1 -1.1104 9.49369 5.04277 6.55176
101 1 -1.1104 9.23883 10.6662 6.76579
306 2 2.2208 13.6157 1.00937 8.09268
267 1 -1.1104 9.43575 7.89549 6.73348
266 1 -1.1104 12.1934 5.16832 6.72683
265 1 -1.1104 12.1929 7.79765 6.71825
264 1 -1.1104 9.47187 10.8388 9.51653
268 1 -1.1104 9.35212 5.04644 9.41697
270 1 -1.1104 9.33759 10.9064 12.4093
271 1 -1.1104 9.31448 5.0643 12.3289
272 2 2.2208 8.03541 9.44019 11.0041
273 1 -1.1104 9.25229 7.97824 9.41408
274 2 2.2208 7.94586 12.1138 8.18936
275 2 2.2208 7.86502 6.64435 7.95358
276 2 2.2208 10.6905 6.44545 10.8691
277 2 2.2208 10.7391 12.1796 11.0071
278 1 -1.1104 12.0667 7.91466 12.3821
279 1 -1.1104 12.1211 7.85137 9.56246
280 1 -1.1104 12.0817 5.08871 12.4208
281 1 -1.1104 12.2277 10.786 12.3447
282 2 2.2208 10.7193 9.38177 8.1544
283 1 -1.1104 12.1057 4.97391 9.51307
284 1 -1.1104 12.2449 10.7628 9.54665
285 1 -1.1104 9.31778 7.88051 12.2244
309 2 2.2208 13.6305 9.25919 10.9147
165 2 2.2208 13.5948 6.60663 8.08476
290 1 -1.1104 6.61512 13.5721 9.5736
117 1 -1.1104 0.971607 16.5689 6.69748
108 1 -1.1104 0.769667 13.4777 6.64852
111 1 -1.1104 6.36592 13.7036 6.64298
118 1 -1.1104 6.49452 16.4916 6.62732
112 1 -1.1104 6.39556 19.1903 6.50205
203 1 -1.1104 6.53981 16.4904 12.1848
126 1 -1.1104 3.46907 19.3369 6.7245
288 1 -1.1104 6.54774 19.2769 9.29471
124 1 -1.1104 3.70751 13.6493 6.69086
289 1 -1.1104 6.64277 16.2905 9.49426
133 1 -1.1104 3.74232 16.3875 6.66651
300 2 2.2208 5.09577 17.8271 10.7529
299 1 -1.1104 0.824574 13.5848 12.2811
298 1 -1.1104 0.795353 19.1657 12.4191
30 2 2.2208 2.39573 14.8671 10.8152
51 2 2.2208 2.2753 20.5749 10.8174
52 1 -1.1104 3.63666 16.3547 12.211
202 1 -1.1104 0.802726 16.3183 12.1586
204 1 -1.1104 3.73197 13.6186 9.34153
230 1 -1.1104 3.67898 19.2718 9.4107
231 1 -1.1104 3.8157 16.39 9.40333
232 2 2.2208 2.25334 17.8796 8.06733
286 1 -1.1104 3.59159 19.2642 12.2535
287 1 -1.1104 3.68698 13.4403 12.3364
291 1 -1.1104 0.792218 19.1742 9.45615
292 1 -1.1104 0.99128 16.3698 9.45609
293 2 2.2208 5.09052 20.7676 8.08154
294 1 -1.1104 0.930665 13.5809 9.44332
295 2 2.2208 5.13625 15.1606 7.97865
297 1 -1.1104 6.51341 13.7715 12.4074
296 1 -1.1104 6.34853 19.1542 12.2188
136 1 -1.1104 9.38533 13.5283 9.47874
9029 2 2.2208 13.4635 20.6292 10.9224
308 2 2.2208 13.5332 14.8943 10.8892
25 2 2.2208 10.7633 17.7705 11.0648
229 2 2.2208 7.95918 20.4634 10.9453
135 2 2.2208 7.9452 17.7192 8.05762
163 1 -1.1104 9.31011 16.2833 6.71592
50 1 -1.1104 12.2311 19.084 9.54461
27 1 -1.1104 12.0452 19.3395 12.4078
143 1 -1.1104 12.0227 13.5314 6.77917
53 1 -1.1104 12.1056 16.4245 12.4339
629 2 2.2208 7.89392 9.42419 -0.38875
8208 2 2.2208 5.21892 -4.66178 11.0453
302 2 2.2208 13.5439 12.0758 8.18858
8389 2 2.2208 5.24721 -4.6338 5.32325
8264 2 2.2208 2.35353 -4.6451 8.07319
630 2 2.2208 10.6546 12.1447 -0.450424
9057 2 2.2208 13.3693 14.8707 5.32039
572 2 2.2208 2.25951 20.6417 -0.321661
378 2 2.2208 10.6587 17.7607 -0.348547
657 2 2.2208 13.5649 17.7908 13.7317
485 2 2.2208 5.03006 15.0473 13.7271
568 2 2.2208 10.6998 1.00993 -0.11698
605 2 2.2208 5.14169 12.3324 -0.272596
603 2 2.2208 5.12773 6.66603 -0.266344
311 2 2.2208 5.18876 0.934194 16.6714
312 1 -1.1104 0.833276 -3.18478 17.8914
313 1 -1.1104 1.04304 2.34052 18.0682
316 1 -1.1104 1.12718 -3.18869 15.1443
318 1 -1.1104 1.1041 2.50509 15.2403
324 1 -1.1104 1.04114 -0.428005 18.1906
326 2 2.2208 5.22262 -1.78622 19.5275
327 2 2.2208 5.16904 3.86397 19.5262
328 1 -1.1104 0.983198 -0.34563 15.3344
332 1 -1.1104 3.62652 -3.22092 18.0739
333 1 -1.1104 3.84841 2.3983 18.2047
334 2 2.2208 2.45623 0.99791 19.5256
335 1 -1.1104 3.82699 -3.38783 15.3328
337 1 -1.1104 3.72648 2.3013 15.2235
339 2 2.2208 2.30034 -1.83044 16.6503
340 2 2.2208 2.36924 3.80434 16.7416
341 1 -1.1104 3.81737 -0.447438 18.1555
342 1 -1.1104 3.86868 -0.541871 15.2546
320 1 -1.1104 6.54196 -3.22458 15.1908
314 1 -1.1104 6.48493 -3.2385 17.9783
325 1 -1.1104 6.67316 -0.466082 17.9807
315 1 -1.1104 6.53928 2.27957 17.9706
330 1 -1.1104 6.66865 -0.458381 15.181
663 2 2.2208 13.4379 6.5059 13.7691
384 2 2.2208 7.72106 0.885962 13.6359
319 1 -1.1104 0.944204 2.36013 20.7914
323 1 -1.1104 6.52254 2.3992 20.8553
351 2 2.2208 5.16355 -1.96343 13.8101
385 2 2.2208 10.68 -1.78818 13.6835
577 1 -1.1104 9.15866 13.7026 23.5044
8422 2 2.2208 13.5462 -4.73106 24.9865
649 2 2.2208 13.5703 3.80628 16.5257
322 1 -1.1104 6.60099 2.31642 15.1679
665 2 2.2208 13.6822 6.4825 19.426
8531 2 2.2208 2.41824 -4.68977 13.8865
354 2 2.2208 10.8611 1.0102 16.6154
355 1 -1.1104 12.0762 -3.16486 18.1021
356 1 -1.1104 12.0218 2.339 18.0086
357 1 -1.1104 12.1504 -3.22786 15.1261
359 1 -1.1104 12.2585 2.43559 15.2167
361 1 -1.1104 12.1189 -0.208244 18.2014
362 2 2.2208 10.7837 -1.7618 19.3865
364 1 -1.1104 12.336 -0.371431 15.4795
366 1 -1.1104 9.35805 -3.14806 18.027
367 1 -1.1104 9.40286 2.32929 18.1285
368 2 2.2208 8.08398 0.957295 19.4352
369 1 -1.1104 9.44721 -3.12205 15.2175
371 1 -1.1104 9.46273 2.47694 15.3159
373 2 2.2208 7.95805 -1.79578 16.636
374 2 2.2208 7.89869 3.75898 16.5052
375 1 -1.1104 9.4269 -0.523025 17.8914
376 1 -1.1104 9.3739 -0.311567 15.1122
363 2 2.2208 10.783 3.79525 19.3614
377 1 -1.1104 9.5236 -0.471111 20.8305
575 2 2.2208 10.753 20.6498 25.0022
672 2 2.2208 13.5158 20.5364 16.5909
386 2 2.2208 10.7692 3.64603 13.7052
9093 2 2.2208 13.5185 -1.78093 16.7764
380 2 2.2208 13.573 1.01341 19.4981
387 2 2.2208 5.09092 6.56592 16.4516
388 2 2.2208 5.0477 12.2962 16.5575
389 1 -1.1104 0.871694 8.18014 18.0526
391 1 -1.1104 0.973437 8.04747 15.1194
395 1 -1.1104 0.916611 5.19949 17.9131
396 1 -1.1104 0.754717 10.937 18.0064
399 2 2.2208 5.06205 9.34907 19.4184
400 1 -1.1104 0.788786 5.17332 15.1911
402 1 -1.1104 0.848221 10.8576 15.1479
408 1 -1.1104 3.57585 8.04807 17.9656
409 2 2.2208 2.33198 6.82263 19.3346
410 2 2.2208 2.26196 12.2172 19.3388
411 1 -1.1104 3.72397 7.88649 15.0415
413 2 2.2208 2.31138 9.41945 16.6084
414 1 -1.1104 3.7336 5.189 17.9401
415 1 -1.1104 3.76782 10.8051 18.1586
416 1 -1.1104 3.60278 5.06296 15.135
418 1 -1.1104 3.63409 10.7892 15.2004
398 1 -1.1104 6.35342 10.7641 17.7928
397 1 -1.1104 6.52205 5.01807 17.9387
390 1 -1.1104 6.36096 7.93002 17.8405
406 1 -1.1104 6.53577 10.9164 14.9285
393 1 -1.1104 6.46019 8.11134 15.1543
404 1 -1.1104 6.50897 5.19641 15.081
670 2 2.2208 13.5546 14.9568 16.4617
419 1 -1.1104 3.57172 10.7492 20.8606
392 1 -1.1104 0.975659 7.94709 20.8867
422 2 2.2208 2.17283 12.2919 13.7735
8534 2 2.2208 2.34429 -4.69212 19.5119
447 2 2.2208 7.91679 6.58936 13.7451
423 2 2.2208 10.7365 6.54296 16.5241
424 2 2.2208 10.7122 12.166 16.547
425 1 -1.1104 12.0504 7.98098 18.0236
426 1 -1.1104 11.9758 7.99488 15.1701
428 1 -1.1104 12.149 5.07079 17.9116
429 1 -1.1104 12.1483 10.8395 17.8727
430 2 2.2208 10.6673 9.42962 19.307
431 1 -1.1104 12.0992 5.2139 15.1406
433 1 -1.1104 12.1191 10.7067 15.1726
435 1 -1.1104 9.30715 8.05798 17.8899
436 2 2.2208 7.89927 6.54415 19.3303
437 2 2.2208 7.92719 12.1936 19.2976
438 1 -1.1104 9.24589 8.03038 15.0258
440 2 2.2208 7.8567 9.43421 16.3239
441 1 -1.1104 9.28061 5.1731 17.9734
442 1 -1.1104 9.23887 10.9542 17.7724
443 1 -1.1104 9.25342 5.35407 15.2726
445 1 -1.1104 9.31202 10.8776 15.0118
421 2 2.2208 5.00447 9.48966 13.7017
671 2 2.2208 13.5342 17.7503 19.5017
664 2 2.2208 13.3871 9.32313 16.6508
432 1 -1.1104 12.277 5.24566 20.7759
444 1 -1.1104 9.36125 5.29457 20.6956
666 2 2.2208 13.5062 12.1422 19.3735
8479 2 2.2208 8.04664 -4.66652 19.3099
667 2 2.2208 13.4986 12.1353 13.7435
450 2 2.2208 5.16841 17.7554 16.547
451 1 -1.1104 0.794458 13.591 18.009
452 1 -1.1104 0.943089 19.126 18.075
455 1 -1.1104 0.769633 13.4067 15.273
457 1 -1.1104 0.953047 19.094 15.2432
463 1 -1.1104 0.946768 16.3755 17.9498
465 2 2.2208 5.08151 14.9855 19.3872
466 2 2.2208 5.10171 20.5037 19.4332
467 1 -1.1104 1.039 16.3404 14.9363
471 1 -1.1104 3.57367 13.6113 17.9105
472 1 -1.1104 3.78584 19.0268 17.8777
473 2 2.2208 2.322 17.757 19.4634
474 1 -1.1104 3.6683 13.691 15.2337
476 1 -1.1104 3.71791 19.2621 15.0304
478 2 2.2208 2.23424 15.1274 16.5485
479 2 2.2208 2.43668 20.5144 16.5712
480 1 -1.1104 3.72876 16.3158 17.9997
481 1 -1.1104 3.77061 16.5233 15.0256
464 1 -1.1104 6.52352 16.3867 18.0249
459 1 -1.1104 6.45407 13.5945 15.223
453 1 -1.1104 6.37374 13.5864 18.0796
454 1 -1.1104 6.5285 19.1676 17.9871
469 1 -1.1104 6.40802 16.3951 15.2153
461 1 -1.1104 6.47493 19.1794 15.0334
541 2 2.2208 10.619 17.8205 22.3948
482 1 -1.1104 3.73607 16.3516 20.8469
458 1 -1.1104 0.896852 19.2007 20.8552
462 1 -1.1104 6.45162 19.2523 20.7019
9405 2 2.2208 13.4968 20.6505 22.1904
543 1 -1.1104 9.22511 16.3661 26.4472
631 2 2.2208 7.87251 15.0897 22.2176
470 1 -1.1104 6.64161 16.4607 20.6614
448 2 2.2208 10.6852 9.40385 13.6669
486 2 2.2208 10.7134 17.7446 16.6274
487 1 -1.1104 12.202 13.4893 17.9325
488 1 -1.1104 12.2231 19.1474 18.0422
489 1 -1.1104 12.043 13.6631 15.1089
491 1 -1.1104 12.1119 19.3246 15.2457
493 1 -1.1104 12.0596 16.3395 18.0419
494 2 2.2208 10.6684 14.9521 19.4443
495 2 2.2208 10.703 20.5132 19.4411
496 1 -1.1104 12.1194 16.371 15.0669
498 1 -1.1104 9.31387 13.5767 17.9195
499 1 -1.1104 9.42674 19.2449 17.8815
500 2 2.2208 8.03478 17.7323 19.3643
501 1 -1.1104 9.21696 13.7026 15.0769
503 1 -1.1104 9.45258 18.9608 15.0777
505 2 2.2208 7.87852 15.0356 16.6381
506 2 2.2208 7.81347 20.4369 16.5781
507 1 -1.1104 9.39541 16.5243 18.0264
508 1 -1.1104 9.13034 16.3853 15.2607
511 2 2.2208 10.6253 14.9197 13.8421
483 2 2.2208 2.3513 17.8762 13.6887
8741 2 2.2208 13.5769 -4.68648 19.594
509 1 -1.1104 9.42336 16.4976 20.8302
8460 2 2.2208 7.97052 -4.67933 25.0479
338 1 -1.1104 3.81713 2.35921 21.0003
317 1 -1.1104 0.868501 -3.29997 20.8837
8527 2 2.2208 10.7363 -4.65189 22.2696
9408 2 2.2208 13.5105 17.7924 25.0154
343 1 -1.1104 3.88996 -0.422545 20.8565
329 1 -1.1104 1.15373 -0.383402 20.8647
336 1 -1.1104 3.78053 -3.15231 20.8551
514 2 2.2208 5.19826 0.963448 22.2747
515 1 -1.1104 0.970942 -3.28085 23.715
516 1 -1.1104 0.88858 2.45946 23.5721
519 1 -1.1104 0.910362 -3.29307 26.4741
520 1 -1.1104 0.930085 2.39445 26.4867
523 1 -1.1104 0.968939 -0.38988 23.6779
525 2 2.2208 5.23347 -1.82475 24.9556
526 2 2.2208 5.19145 3.59585 25.15
527 1 -1.1104 0.915695 -0.41131 26.4513
529 1 -1.1104 3.889 -3.15821 23.55
530 1 -1.1104 3.6995 2.24815 23.6549
531 2 2.2208 2.34051 0.852136 25.086
532 1 -1.1104 3.68177 -3.20136 26.3224
533 1 -1.1104 3.77779 2.42937 26.574
534 2 2.2208 2.42229 -1.72396 22.2463
535 2 2.2208 2.3635 3.84716 22.167
536 1 -1.1104 3.90175 -0.503203 23.6659
537 1 -1.1104 3.64348 -0.5554 26.3438
517 1 -1.1104 6.60677 -3.19678 23.6942
521 1 -1.1104 6.50167 -3.31425 26.5101
321 1 -1.1104 6.80358 -3.36031 20.7559
522 1 -1.1104 6.6609 2.31935 26.3455
331 1 -1.1104 6.61774 -0.419412 20.9224
528 1 -1.1104 6.44397 -0.378809 26.4433
524 1 -1.1104 6.74286 -0.420373 23.762
358 1 -1.1104 12.2076 -3.05869 20.9368
549 1 -1.1104 12.2692 16.3831 23.519
609 1 -1.1104 9.36024 19.1803 26.3307
372 1 -1.1104 9.30971 2.40631 20.8002
360 1 -1.1104 12.1008 2.50246 20.9337
365 1 -1.1104 12.3001 -0.414381 20.901
659 2 2.2208 13.5231 1.10106 25.0788
370 1 -1.1104 9.45732 -3.08504 20.8335
518 1 -1.1104 6.53664 2.50189 23.64
550 2 2.2208 10.9043 1.01424 22.185
551 1 -1.1104 12.1588 -3.17456 23.6948
552 1 -1.1104 12.1634 2.59685 23.7217
553 1 -1.1104 12.1219 -3.09137 26.4469
554 1 -1.1104 12.0496 2.44941 26.5349
555 1 -1.1104 12.2773 -0.320783 23.6248
556 2 2.2208 10.7884 -1.66807 24.9023
557 2 2.2208 10.7016 3.88664 25.0741
558 1 -1.1104 12.2547 -0.360135 26.4499
559 1 -1.1104 9.4216 -3.37172 23.7071
560 1 -1.1104 9.30654 2.49889 23.6556
561 2 2.2208 8.00164 1.03427 25.0486
562 1 -1.1104 9.34837 -3.21489 26.4007
563 1 -1.1104 9.36517 2.36351 26.5746
564 2 2.2208 8.04777 -1.74874 22.1964
565 2 2.2208 8.017 3.90394 22.1607
566 1 -1.1104 9.44628 -0.290578 23.4889
567 1 -1.1104 9.53125 -0.39627 26.4804
651 2 2.2208 13.4341 1.01839 13.898
484 2 2.2208 5.05048 20.6378 13.7206
641 1 -1.1104 6.4165 19.2773 23.5267
548 1 -1.1104 12.2462 19.2145 26.3683
632 2 2.2208 7.83693 20.7161 22.197
417 1 -1.1104 3.73997 5.30362 20.6559
407 1 -1.1104 6.45803 10.7324 20.6569
412 1 -1.1104 3.74265 8.06288 20.8189
405 1 -1.1104 6.52987 5.31316 20.7553
394 1 -1.1104 6.53109 7.99681 20.7361
403 1 -1.1104 0.964502 10.7193 20.8091
401 1 -1.1104 0.950771 5.12673 20.6742
579 2 2.2208 5.08754 6.63138 22.2028
580 2 2.2208 5.06448 12.1734 22.1332
581 1 -1.1104 0.778305 8.00091 23.5734
583 1 -1.1104 0.915145 7.82937 26.4833
585 1 -1.1104 0.873408 5.07213 23.5154
586 1 -1.1104 1.00082 10.9435 23.5724
589 2 2.2208 5.12674 9.44605 24.9686
590 1 -1.1104 0.929851 5.11235 26.3085
591 1 -1.1104 0.963933 10.6916 26.4171
594 1 -1.1104 3.69973 8.02673 23.6118
595 2 2.2208 2.36529 6.47991 24.9773
596 2 2.2208 2.341 12.1668 25.1052
597 1 -1.1104 3.94959 7.93731 26.2401
598 2 2.2208 2.31338 9.41461 22.1223
599 1 -1.1104 3.7013 5.10784 23.6902
600 1 -1.1104 3.88838 10.7642 23.6522
601 1 -1.1104 3.7364 5.08843 26.4735
602 1 -1.1104 3.65297 10.703 26.4306
582 1 -1.1104 6.6053 8.015 23.6002
587 1 -1.1104 6.57791 5.27014 23.5596
592 1 -1.1104 6.49409 5.26597 26.5671
588 1 -1.1104 6.54624 10.8627 23.5674
593 1 -1.1104 6.34494 10.8273 26.3769
606 2 2.2208 7.80718 17.7776 25.0604
678 2 2.2208 13.5847 12.24 24.9249
427 1 -1.1104 12.1581 8.01298 20.7647
439 1 -1.1104 9.49361 8.10247 20.7369
661 2 2.2208 13.5635 6.71198 24.9833
446 1 -1.1104 9.27361 10.7839 20.6527
434 1 -1.1104 12.0241 10.9153 20.7692
584 1 -1.1104 6.58617 7.99961 26.5507
610 1 -1.1104 9.1094 10.9155 26.3034
611 1 -1.1104 9.24847 5.33235 26.2414
612 1 -1.1104 9.33704 10.9162 23.672
613 1 -1.1104 9.3607 5.32944 23.5496
614 2 2.2208 7.90895 9.53759 22.1006
615 1 -1.1104 9.34601 8.09722 26.3362
616 2 2.2208 7.74804 12.2075 24.9464
617 2 2.2208 7.94109 6.7352 24.9785
618 2 2.2208 10.7974 6.69734 22.0517
619 2 2.2208 10.6823 12.282 22.156
620 1 -1.1104 12.0653 7.92213 23.6423
621 1 -1.1104 12.1285 8.05803 26.4216
622 1 -1.1104 12.1182 5.28261 23.6906
623 1 -1.1104 12.0359 10.9677 23.5535
624 2 2.2208 10.6724 9.39453 24.9775
625 1 -1.1104 12.0381 5.37034 26.4275
626 1 -1.1104 12.025 10.7626 26.32
627 1 -1.1104 9.28178 8.18033 23.4855
685 2 2.2208 13.4344 9.42109 22.3264
475 1 -1.1104 3.77976 13.6278 20.7645
468 1 -1.1104 0.814221 16.3428 20.7756
456 1 -1.1104 0.9414 13.593 20.6671
477 1 -1.1104 3.69103 19.0955 20.8585
460 1 -1.1104 6.43345 13.6495 20.8291
607 1 -1.1104 6.60744 19.3406 26.1898
637 1 -1.1104 6.49773 16.4494 26.4431
645 1 -1.1104 0.995895 19.2644 23.738
643 2 2.2208 5.08939 15.0539 24.9722
383 1 -1.1104 3.77224 19.2999 26.395
382 2 2.2208 2.2787 17.7556 24.9084
381 1 -1.1104 3.67263 16.4719 26.283
379 1 -1.1104 3.72175 13.6553 26.4264
634 1 -1.1104 3.66735 19.2055 23.6445
574 2 2.2208 2.32287 20.6382 22.2878
639 1 -1.1104 0.875412 16.3689 26.4237
346 1 -1.1104 0.827145 16.364 23.6036
642 2 2.2208 5.13003 20.7357 24.9265
573 2 2.2208 2.35021 14.9245 22.2094
638 1 -1.1104 0.902365 19.1733 26.4585
640 1 -1.1104 0.837148 13.5452 26.3339
647 2 2.2208 5.09186 17.7753 22.2358
646 1 -1.1104 0.947123 13.7704 23.4763
636 1 -1.1104 3.6811 13.6444 23.5787
345 1 -1.1104 3.58432 16.412 23.5919
635 1 -1.1104 6.51289 13.6712 26.4699
644 1 -1.1104 6.45604 13.69 23.6179
347 1 -1.1104 6.42481 16.5036 23.6277
576 1 -1.1104 12.0686 16.3963 26.2487
504 1 -1.1104 9.20804 19.2186 20.8944
546 1 -1.1104 12.2338 19.2147 23.7056
492 1 -1.1104 12.1099 19.2183 20.7177
578 1 -1.1104 9.22776 19.3284 23.556
497 1 -1.1104 12.0992 16.366 20.8884
502 1 -1.1104 9.21299 13.6675 20.66
571 2 2.2208 10.6498 14.9593 25.006
633 1 -1.1104 9.18672 16.4629 23.605
608 1 -1.1104 9.39806 13.6159 26.344
542 1 -1.1104 12.0464 13.6806 23.6603
490 1 -1.1104 11.9472 13.5914 20.8017
547 1 -1.1104 12.1686 13.5853 26.3645
658 2 2.2208 13.5148 15.0299 22.1785
8459 2 2.2208 5.31618 -4.70554 22.2291
681 2 2.2208 13.4377 3.84025 22.3279
8493 2 2.2208 10.8519 -4.47827 16.5003
353 2 2.2208 5.02992 3.79828 13.8106
449 2 2.2208 7.80317 12.3464 13.7645
8569 2 2.2208 2.44341 -4.58132 24.9742
17733 2 2.2208 13.5965 -4.66359 13.7545
652 2 2.2208 -0.344661 3.75292 19.4172
604 2 2.2208 2.33269 9.29427 27.7138
17727 2 2.2208 -0.421888 -4.59021 16.5363
352 2 2.2208 2.22697 0.855588 13.7992
8704 2 2.2208 10.6993 -4.66097 27.7947
420 2 2.2208 2.21789 6.48514 13.7557
544 2 2.2208 2.28615 15.1394 27.6459
513 2 2.2208 7.86729 20.6861 27.7488
510 2 2.2208 10.6407 20.4985 13.7959
9406 2 2.2208 13.5822 20.5711 27.7589
512 2 2.2208 7.89725 17.722 13.6795
687 2 2.2208 4.96467 23.443 5.08174
688 2 2.2208 5.0068 29.0713 5.21981
689 1 -1.1104 0.827128 24.7949 1.03915
690 1 -1.1104 0.773649 24.7299 3.93811
691 1 -1.1104 0.732193 21.8717 1.0858
692 1 -1.1104 0.794609 27.5906 1.1156
693 2 2.2208 5.04593 26.2565 2.47509
694 1 -1.1104 0.767478 21.8511 3.89865
695 1 -1.1104 0.855227 27.7008 3.94822
696 1 -1.1104 3.60733 24.674 0.967462
697 2 2.2208 2.17864 23.3573 2.29851
698 2 2.2208 2.32836 29.0351 2.51619
699 1 -1.1104 3.56959 24.8127 3.78501
700 2 2.2208 2.1351 26.2285 5.36446
701 1 -1.1104 3.66823 22.0134 0.98107
702 1 -1.1104 3.60693 27.5609 1.19593
703 1 -1.1104 3.53564 22.1511 3.69067
704 1 -1.1104 3.66351 27.6915 3.87161
831 1 -1.1104 0.904959 27.7212 6.72984
712 1 -1.1104 6.24226 21.9518 3.92518
709 1 -1.1104 6.40525 24.916 3.74767
713 1 -1.1104 6.41916 27.759 3.80288
708 1 -1.1104 6.38436 24.7911 1.05466
711 1 -1.1104 6.37498 27.5738 1.05679
710 1 -1.1104 6.47418 21.9768 1.08061
9718 2 2.2208 13.4986 23.3347 2.3372
835 1 -1.1104 3.75656 22.2404 6.51116
714 2 2.2208 10.6514 23.3807 5.09178
715 2 2.2208 10.3735 28.9181 5.08751
716 1 -1.1104 12.0763 24.7397 1.14284
717 1 -1.1104 12.1828 24.5803 3.89594
718 1 -1.1104 12.046 21.9893 1.04526
719 1 -1.1104 12.1602 27.6258 1.13109
720 2 2.2208 10.7987 26.1954 2.42851
721 1 -1.1104 12.0629 21.973 3.73554
722 1 -1.1104 11.9301 27.5488 3.79126
723 1 -1.1104 9.34519 24.7468 1.02933
724 2 2.2208 7.91071 23.42 2.3023
725 2 2.2208 7.85819 28.9939 2.29006
726 1 -1.1104 9.15745 24.8596 3.76908
727 2 2.2208 7.8327 26.1334 5.12223
728 1 -1.1104 9.27218 22.0809 1.12886
729 1 -1.1104 9.34933 27.6249 0.986737
730 1 -1.1104 9.10466 22.0105 3.81601
731 1 -1.1104 9.21739 27.5802 3.57558
864 1 -1.1104 9.20876 24.7981 6.45188
866 1 -1.1104 9.25032 27.4558 6.37831
1169 2 2.2208 7.81241 43.1486 -0.291341
1580 1 -1.1104 9.23862 47.4356 9.40216
1537 1 -1.1104 0.95253 47.2705 9.5055
10070 2 2.2208 13.4835 43.1692 -0.310976
861 1 -1.1104 12.2034 24.8953 6.69519
862 1 -1.1104 12.2098 21.8547 6.72342
1577 1 -1.1104 9.19191 47.2727 12.1878
1551 1 -1.1104 3.63305 47.3253 9.52275
1379 1 -1.1104 12.2347 47.3445 3.91272
735 2 2.2208 4.95122 34.6296 5.11939
736 1 -1.1104 0.845636 30.4969 0.956052
737 1 -1.1104 0.958738 36.0782 1.04881
739 1 -1.1104 0.95041 30.4265 3.9164
740 1 -1.1104 0.819267 36.1083 3.93488
742 1 -1.1104 0.896187 33.3583 0.881058
743 2 2.2208 5.15273 31.8368 2.42452
744 2 2.2208 5.10633 37.3744 2.46086
745 1 -1.1104 0.993264 33.3244 3.83535
747 1 -1.1104 3.54892 30.3381 0.993261
748 1 -1.1104 3.70179 36.019 1.04642
749 2 2.2208 2.30506 34.6363 2.40016
750 1 -1.1104 3.73797 30.4133 3.84868
751 1 -1.1104 3.65042 35.9981 3.88284
752 2 2.2208 2.19625 31.8069 5.29469
753 2 2.2208 2.36891 37.3771 5.24748
754 1 -1.1104 3.78264 33.2157 0.993746
755 1 -1.1104 3.68889 33.2909 3.88371
741 1 -1.1104 6.46675 36.0376 3.95775
759 1 -1.1104 6.38276 30.4541 0.954681
746 1 -1.1104 6.33866 33.1735 3.65814
761 1 -1.1104 6.56684 33.1908 1.01946
886 1 -1.1104 6.2803 33.0944 6.41711
881 1 -1.1104 0.847683 30.4814 6.71112
887 1 -1.1104 3.70954 30.2974 6.58184
9720 2 2.2208 13.4932 26.0313 5.17392
9733 2 2.2208 13.4441 37.5187 5.29531
738 1 -1.1104 6.60889 36.0118 1.05558
9721 2 2.2208 13.4869 34.6157 2.39937
760 1 -1.1104 6.75511 30.4256 3.73663
765 1 -1.1104 12.3858 29.9959 5.08781
762 2 2.2208 10.6703 34.7021 5.05642
763 1 -1.1104 12.1532 30.4194 1.49333
764 1 -1.1104 12.0921 35.8681 1.10533