ITEM: TIMESTEP
10000
ITEM: NUMBER OF ATOMS
17760
ITEM: BOX BOUNDS pp pp pp
-3.7676656477996845e-01 2.7716766564779945e+01
-4.6476660492207342e+00 3.3272766604921952e+02
-3.8118593157672093e-01 2.7721185931576269e+01
ITEM: ATOMS id type q x y z
1 2 2.2208 5.13514 1.06889 5.29921
2 1 -1.1104 0.923147 -3.33855 1.16181
3 1 -1.1104 0.956973 2.44169 1.07941
6 1 -1.1104 0.997601 -3.31896 3.9221
7 1 -1.1104 0.73581 2.50923 4.1505
10 1 -1.1104 0.968052 -0.465095 1.3432
12 2 2.2208 5.13602 -1.83785 2.64329
13 2 2.2208 5.12612 3.89405 2.45757
14 1 -1.1104 0.77059 -0.31261 4.09631
16 1 -1.1104 3.80076 -3.29851 1.22066
17 1 -1.1104 3.71051 2.4699 0.83197
18 2 2.2208 2.13294 1.0171 2.70025
19 1 -1.1104 3.69189 -3.13414 4.21803
20 1 -1.1104 3.71511 2.40584 3.91354
21 2 2.2208 2.35973 -1.76489 5.43313
22 2 2.2208 2.24797 3.79409 5.22937
23 1 -1.1104 3.72063 -0.326678 1.1928
24 1 -1.1104 3.68872 -0.504422 3.9662
4 1 -1.1104 6.56997 -3.12884 1.14168
11 1 -1.1104 6.47627 -0.434234 1.22212
9 1 -1.1104 6.43214 2.5044 3.99611
5 1 -1.1104 6.57677 2.23365 1.11674
8 1 -1.1104 6.48761 -3.27112 3.89493
15 1 -1.1104 6.53777 -0.365978 4.07058
171 1 -1.1104 6.61337 -0.362549 6.85241
570 2 2.2208 7.92647 3.81636 -0.355196
9058 2 2.2208 13.5917 17.7355 7.97227
167 1 -1.1104 0.857617 2.44411 6.84789
540 2 2.2208 2.16199 3.85996 -0.306262
9406 2 2.2208 13.4765 20.7177 -0.292178
9062 2 2.2208 13.5958 -1.87347 5.26466
31 2 2.2208 10.7341 1.00147 5.31515
32 1 -1.1104 12.1493 -3.34359 1.21898
33 1 -1.1104 12.1285 2.50923 0.924103
34 1 -1.1104 12.1978 -3.18804 4.12264
35 1 -1.1104 12.0806 2.25492 3.85302
36 1 -1.1104 12.2125 -0.268917 1.02326
37 2 2.2208 10.7341 -1.81331 2.47092
38 2 2.2208 10.6657 3.74604 2.52418
39 1 -1.1104 12.2405 -0.441097 3.87661
40 1 -1.1104 9.44165 -3.15578 1.18197
41 1 -1.1104 9.32135 2.36628 1.06856
42 2 2.2208 7.96243 0.857369 2.51967
43 1 -1.1104 9.28884 -3.22249 4.04806
44 1 -1.1104 9.24389 2.30335 3.96137
45 2 2.2208 7.79131 -1.92845 5.45583
46 2 2.2208 7.91153 3.91341 5.38923
47 1 -1.1104 9.40355 -0.454146 1.03853
48 1 -1.1104 9.2551 -0.473399 3.9188
207 1 -1.1104 12.2896 -0.449985 6.68705
544 2 2.2208 2.25284 14.8611 -0.312991
137 1 -1.1104 9.208 19.2681 9.40041
301 2 2.2208 13.4641 3.73298 5.28821
206 1 -1.1104 12.2343 2.34022 6.70195
568 2 2.2208 10.7404 1.03234 -0.270384
8704 2 2.2208 10.8751 -4.63296 -0.266501
54 2 2.2208 5.07641 6.61516 5.32152
55 2 2.2208 4.94538 12.2583 5.32612
56 1 -1.1104 0.791749 8.08717 1.23506
58 1 -1.1104 0.761453 8.01575 3.91687
60 1 -1.1104 0.689904 5.29381 1.08066
61 1 -1.1104 0.750955 10.748 1.08787
66 2 2.2208 5.0351 9.51617 2.44333
67 1 -1.1104 0.798661 5.26943 3.98191
68 1 -1.1104 0.776044 10.6424 3.80014
71 1 -1.1104 3.65846 8.02791 1.00913
72 2 2.2208 2.19863 6.70303 2.52799
73 2 2.2208 2.17216 12.2383 2.50626
74 1 -1.1104 3.63676 8.02561 3.76621
75 2 2.2208 2.25696 9.40228 5.22306
76 1 -1.1104 3.6627 5.36484 1.13927
77 1 -1.1104 3.58699 10.9339 1.00066
79 1 -1.1104 3.64567 5.17943 3.80212
80 1 -1.1104 3.61941 10.751 3.96108
70 1 -1.1104 6.27869 10.9909 3.84695
64 1 -1.1104 6.58105 10.7708 1.0375
57 1 -1.1104 6.5573 8.10964 1.15969
63 1 -1.1104 6.40662 5.20908 1.03062
69 1 -1.1104 6.47001 5.34516 3.97375
59 1 -1.1104 6.40893 8.20652 3.78565
8463 2 2.2208 5.21555 -4.61133 -0.254357
513 2 2.2208 7.92494 20.762 -0.335899
9063 2 2.2208 13.5167 9.40532 5.42593
538 2 2.2208 5.08031 1.01676 -0.28641
9067 2 2.2208 13.5903 12.1837 2.5113
84 2 2.2208 10.7506 6.62237 5.2003
85 2 2.2208 10.7158 12.276 5.3621
86 1 -1.1104 12.141 7.94304 0.979126
87 1 -1.1104 12.0407 7.89847 3.70723
88 1 -1.1104 12.1955 5.26067 0.918593
89 1 -1.1104 12.1257 10.7786 1.22739
91 2 2.2208 10.6427 9.39416 2.57253
92 1 -1.1104 12.1192 5.15244 3.82626
93 1 -1.1104 12.0619 10.6699 4.06441
94 1 -1.1104 9.37983 7.98542 1.16314
95 2 2.2208 7.92512 6.77965 2.5956
96 2 2.2208 7.91044 12.2155 2.48343
97 1 -1.1104 9.19721 8.19287 3.96716
98 2 2.2208 7.77448 9.66583 5.26434
99 1 -1.1104 9.21519 5.1148 1.24641
100 1 -1.1104 9.37299 10.7978 1.01744
102 1 -1.1104 9.35072 5.2912 4.03157
103 1 -1.1104 9.22587 10.9716 3.76624
628 2 2.2208 10.7567 6.5805 -0.335034
9065 2 2.2208 13.4803 -1.79005 10.8967
8334 2 2.2208 8.0087 -4.60121 2.63597
8389 2 2.2208 5.1521 -4.64855 5.40991
630 2 2.2208 10.7232 12.1952 -0.37893
17351 2 2.2208 13.5843 -4.63864 2.68781
9061 2 2.2208 13.3909 20.6499 5.34427
106 2 2.2208 4.89891 17.7295 5.2459
107 1 -1.1104 0.897446 13.6065 1.07973
109 1 -1.1104 0.898101 19.1411 0.926195
113 1 -1.1104 0.887937 13.3385 4.02233
114 1 -1.1104 0.820146 18.9608 3.75615
116 1 -1.1104 0.83182 16.4018 1.09114
119 2 2.2208 5.09462 14.897 2.28082
120 2 2.2208 5.07852 20.6117 2.45797
121 1 -1.1104 0.690491 16.2773 3.91715
123 1 -1.1104 3.62817 13.53 1.07747
125 1 -1.1104 3.71843 18.9919 1.1014
127 2 2.2208 2.26766 17.7129 2.39767
128 1 -1.1104 3.71611 13.5387 3.76708
129 1 -1.1104 3.55022 19.288 3.79442
130 2 2.2208 2.09915 14.9983 5.39837
131 2 2.2208 2.21867 20.513 5.22279
132 1 -1.1104 3.68802 16.2332 1.06795
134 1 -1.1104 3.56748 16.2724 3.89549
122 1 -1.1104 6.43556 16.5907 3.82863
140 1 -1.1104 6.59575 16.2366 1.16423
110 1 -1.1104 6.5237 13.4476 1.0443
115 1 -1.1104 6.53927 13.7166 3.83191
139 1 -1.1104 6.24976 19.1792 3.7178
138 1 -1.1104 6.69506 19.1618 0.975501
9048 2 2.2208 13.4822 17.917 2.39836
605 2 2.2208 5.03693 12.1757 -0.316171
344 2 2.2208 7.93754 14.9669 -0.2236
9407 2 2.2208 13.5948 15.0598 -0.434462
135 2 2.2208 7.78141 17.8522 8.1022
17729 2 2.2208 -0.424441 -4.67212 -0.325723
511 2 2.2208 10.6502 15.1975 13.7117
141 2 2.2208 10.6596 17.8951 5.35093
142 1 -1.1104 12.2588 13.508 1.05764
144 1 -1.1104 12.119 19.2128 1.02692
146 1 -1.1104 12.1121 13.5312 3.94124
147 1 -1.1104 12.0014 19.2391 3.99194
148 1 -1.1104 12.1949 16.3617 1.13989
150 2 2.2208 10.7506 14.9837 2.59937
151 2 2.2208 10.6575 20.698 2.39931
152 1 -1.1104 12.1767 16.4019 4.03961
153 1 -1.1104 9.31976 13.5407 1.08583
155 1 -1.1104 9.28567 19.3967 1.00067
157 2 2.2208 7.82678 17.8003 2.481
158 1 -1.1104 9.2791 13.745 3.92516
159 1 -1.1104 9.22372 19.1152 3.95202
160 2 2.2208 7.82971 15.0388 5.25784
161 2 2.2208 7.86768 20.5036 5.35386
162 1 -1.1104 9.29514 16.5155 1.12062
164 1 -1.1104 9.14514 16.4252 4.109
9057 2 2.2208 13.4361 14.8706 5.33495
172 1 -1.1104 3.68124 -3.19238 6.85985
166 1 -1.1104 0.821946 -3.12965 6.6386
174 1 -1.1104 3.82079 -0.244813 6.81591
170 1 -1.1104 0.994458 -0.351111 6.74598
173 1 -1.1104 3.74858 2.46836 6.83311
175 2 2.2208 5.06763 0.995307 10.9485
176 1 -1.1104 0.962129 -3.11488 12.4454
177 1 -1.1104 1.03361 2.22392 12.458
180 1 -1.1104 1.06951 -3.21558 9.69077
181 1 -1.1104 0.923184 2.40627 9.46651
184 1 -1.1104 0.97428 -0.495613 12.3478
186 2 2.2208 5.00877 -1.7852 8.25362
187 2 2.2208 4.99744 3.81798 8.12309
188 1 -1.1104 0.719255 -0.415051 9.47898
190 1 -1.1104 3.69082 -3.23762 12.4202
191 1 -1.1104 3.74195 2.516 12.2904
192 2 2.2208 2.32816 1.09925 8.12665
193 1 -1.1104 3.80553 -3.2223 9.62511
194 1 -1.1104 3.71262 2.39673 9.6356
195 2 2.2208 2.40041 -1.85261 11.0385
196 2 2.2208 2.18279 3.76021 10.9964
197 1 -1.1104 3.83898 -0.286986 12.4158
198 1 -1.1104 3.60833 -0.429311 9.5009
189 1 -1.1104 6.46853 -0.442223 9.70259
169 1 -1.1104 6.57546 2.46127 6.69074
179 1 -1.1104 6.4852 2.66869 12.3896
185 1 -1.1104 6.65269 -0.526296 12.4462
182 1 -1.1104 6.59354 -3.19575 9.64531
183 1 -1.1104 6.38874 2.38223 9.38292
178 1 -1.1104 6.50028 -3.26254 12.2693
208 1 -1.1104 9.32345 -3.26665 6.69084
168 1 -1.1104 6.44807 -3.23639 6.77899
209 1 -1.1104 9.45311 2.51097 6.66442
210 1 -1.1104 9.34451 -0.340648 6.69012
205 1 -1.1104 12.111 -3.11074 6.8211
306 2 2.2208 13.5921 0.961073 8.14281
8902 2 2.2208 13.6056 3.75608 10.9854
211 2 2.2208 10.6305 1.0079 10.8864
212 1 -1.1104 12.1235 -3.3752 12.1869
213 1 -1.1104 12.2262 2.47838 12.4184
214 1 -1.1104 12.2086 -3.2846 9.61382
215 1 -1.1104 12.0741 2.27642 9.64395
216 1 -1.1104 12.0775 -0.40084 12.3913
217 2 2.2208 10.8129 -1.74935 8.0968
218 2 2.2208 10.8193 3.60607 8.10167
219 1 -1.1104 12.0169 -0.406161 9.5365
220 1 -1.1104 9.18033 -3.25158 12.4107
221 1 -1.1104 9.36004 2.42449 12.2064
222 2 2.2208 7.8619 0.987721 8.12178
223 1 -1.1104 9.37261 -3.34713 9.60008
224 1 -1.1104 9.23456 2.38303 9.52242
225 2 2.2208 7.93227 -1.84733 11.0241
226 2 2.2208 7.82159 3.93165 10.87
227 1 -1.1104 9.43765 -0.366423 12.3449
228 1 -1.1104 9.30572 -0.348467 9.51947
309 2 2.2208 13.5538 9.31922 10.974
105 1 -1.1104 9.15349 19.2721 12.4391
53 1 -1.1104 12.1083 16.6861 12.2822
234 1 -1.1104 0.85394 8.07312 6.6769
236 1 -1.1104 0.877095 5.21696 6.64559
78 1 -1.1104 3.63525 10.9756 6.77104
237 1 -1.1104 6.46606 5.20665 6.80482
235 1 -1.1104 6.38031 8.14159 6.57237
238 1 -1.1104 3.63601 8.05702 6.70775
62 1 -1.1104 0.693035 10.8235 6.77245
239 1 -1.1104 3.56751 5.21937 6.68648
240 2 2.2208 5.09792 6.67254 10.8373
241 2 2.2208 5.04468 12.2742 10.8907
242 1 -1.1104 0.838525 7.90751 12.2244
244 1 -1.1104 0.578791 7.86867 9.40477
246 1 -1.1104 0.764674 5.11915 12.3918
247 1 -1.1104 0.861298 10.8788 12.4447
250 2 2.2208 5.07145 9.39231 8.15617
251 1 -1.1104 0.786092 5.16205 9.55122
252 1 -1.1104 0.829744 10.7013 9.54893
255 1 -1.1104 3.59395 8.08532 12.3054
256 2 2.2208 2.2891 6.62475 8.11092
257 2 2.2208 2.15346 12.1868 8.24833
258 1 -1.1104 3.59548 8.11316 9.40984
259 2 2.2208 2.16817 9.37345 10.9705
260 1 -1.1104 3.70961 5.29838 12.2771
261 1 -1.1104 3.7409 10.9225 12.2786
262 1 -1.1104 3.66042 5.21137 9.49139
263 1 -1.1104 3.54709 10.8982 9.74591
65 1 -1.1104 6.33633 10.9346 6.62044
245 1 -1.1104 6.50593 7.95536 9.37544
248 1 -1.1104 6.62259 5.60454 12.2013
253 1 -1.1104 6.37627 5.19849 9.47513
254 1 -1.1104 6.42512 10.9381 9.46502
265 1 -1.1104 11.9798 7.90032 6.64789
269 1 -1.1104 9.29517 5.2982 6.57711
249 1 -1.1104 6.67635 10.8516 12.2186
243 1 -1.1104 6.63689 8.2996 12.2685
81 2 2.2208 10.5746 15.1156 8.11689
229 2 2.2208 7.8355 20.4327 10.9224
101 1 -1.1104 9.32809 10.8852 6.6479
266 1 -1.1104 12.0224 5.13807 6.57585
267 1 -1.1104 9.03476 8.21789 6.89818
165 2 2.2208 13.4391 6.57795 7.89093
90 1 -1.1104 12.1739 10.7389 6.78431
264 1 -1.1104 9.37905 10.9493 9.31001
268 1 -1.1104 9.44773 5.12926 9.51756
270 1 -1.1104 9.45367 10.9147 12.3795
271 1 -1.1104 9.34456 5.23229 12.3988
272 2 2.2208 8.01112 9.51815 10.7461
273 1 -1.1104 9.29837 8.13239 9.63353
274 2 2.2208 7.89726 12.3936 8.08526
275 2 2.2208 7.8482 6.54575 8.05339
276 2 2.2208 10.648 6.56501 10.9163
277 2 2.2208 10.775 12.3042 10.9405
278 1 -1.1104 12.1587 7.87686 12.2026
279 1 -1.1104 12.0337 7.97275 9.32777
280 1 -1.1104 12.159 5.1487 12.387
281 1 -1.1104 12.1508 10.8943 12.3249
282 2 2.2208 10.686 9.46261 8.04211
283 1 -1.1104 12.1368 5.00838 9.46774
284 1 -1.1104 12.1098 10.8376 9.57096
285 1 -1.1104 9.39136 7.93522 12.3827
112 1 -1.1104 6.4189 19.3383 6.76325
290 1 -1.1104 6.48759 13.6261 9.64861
117 1 -1.1104 0.924314 16.5041 6.66279
118 1 -1.1104 6.58328 16.436 6.60812
126 1 -1.1104 3.5063 19.1278 6.6553
133 1 -1.1104 3.79741 16.4075 6.73961
289 1 -1.1104 6.67013 16.5628 9.62862
297 1 -1.1104 6.53034 13.7148 12.4259
288 1 -1.1104 6.38835 19.3417 9.36194
108 1 -1.1104 0.69788 13.5956 6.86018
124 1 -1.1104 3.64171 13.6386 6.7141
28 1 -1.1104 0.783479 19.1607 6.68805
30 2 2.2208 2.29748 15.0293 10.9832
51 2 2.2208 2.1067 20.6051 10.9285
52 1 -1.1104 3.64609 16.378 12.3151
202 1 -1.1104 0.725048 16.402 12.211
204 1 -1.1104 3.63624 13.6934 9.49604
230 1 -1.1104 3.69771 19.291 9.56335
231 1 -1.1104 3.82873 16.3487 9.48475
232 2 2.2208 2.25423 17.7805 8.14748
286 1 -1.1104 3.55251 19.0352 12.2431
287 1 -1.1104 3.60729 13.6691 12.2696
291 1 -1.1104 0.846948 19.0941 9.57328
292 1 -1.1104 0.817727 16.2873 9.48485
293 2 2.2208 4.89331 20.6084 7.99332
294 1 -1.1104 0.782371 13.5082 9.58837
295 2 2.2208 5.0966 15.0424 8.14935
298 1 -1.1104 0.703081 19.2002 12.2917
299 1 -1.1104 0.747267 13.6053 12.3538
300 2 2.2208 5.04026 17.7471 10.9109
296 1 -1.1104 6.35685 19.2426 12.2303
111 1 -1.1104 6.4197 13.6095 6.78907
203 1 -1.1104 6.46635 16.5489 12.3908
9029 2 2.2208 13.5887 20.584 10.9281
143 1 -1.1104 12.0094 13.6503 6.78514
156 1 -1.1104 9.26024 19.2619 6.75864
149 1 -1.1104 12.1959 16.4434 6.73626
145 1 -1.1104 12.1316 19.2789 6.71039
27 1 -1.1104 12.2559 19.5562 12.4108
199 2 2.2208 7.83588 14.9812 10.9537
307 2 2.2208 13.6256 1.071 2.38839
233 1 -1.1104 9.27975 16.6773 12.4015
83 1 -1.1104 12.2208 16.4565 9.53689
104 1 -1.1104 9.43568 13.8147 12.2518
163 1 -1.1104 9.34998 16.5116 6.79931
154 1 -1.1104 9.27896 13.7085 6.67507
136 1 -1.1104 9.29496 13.6781 9.47752
25 2 2.2208 10.7254 17.9356 10.765
29 1 -1.1104 9.35344 16.3998 9.63061
49 1 -1.1104 12.049 13.6404 9.68478
50 1 -1.1104 12.1062 19.25 9.59388
26 1 -1.1104 12.0327 13.7028 12.4658
82 2 2.2208 10.7069 20.6266 8.12193
308 2 2.2208 13.5375 15.085 10.9417
604 2 2.2208 2.22609 9.36554 -0.227891
305 2 2.2208 13.4991 6.55198 2.39758
378 2 2.2208 10.6649 17.8567 -0.430873
302 2 2.2208 13.5129 12.3035 8.21573
539 2 2.2208 2.28701 -1.8892 -0.280635
677 2 2.2208 13.5593 -1.84493 -0.290128
569 2 2.2208 8.01643 -1.90724 -0.25306
447 2 2.2208 8.01054 6.69371 13.744
662 2 2.2208 13.4973 9.33743 -0.420843
572 2 2.2208 2.34957 20.5501 -0.439414
484 2 2.2208 5.16963 20.539 13.6353
663 2 2.2208 13.5171 6.51301 13.7056
545 2 2.2208 5.266 17.9413 -0.24213
667 2 2.2208 13.4631 12.2404 13.6644
629 2 2.2208 7.869 9.28842 -0.260825
603 2 2.2208 5.07042 6.56683 -0.235493
311 2 2.2208 5.23451 0.864607 16.4162
312 1 -1.1104 0.790969 -3.08605 17.8216
313 1 -1.1104 0.908841 2.45024 17.9377
316 1 -1.1104 0.952562 -3.2456 15.0465
318 1 -1.1104 0.956073 2.22349 15.1553
324 1 -1.1104 1.01787 -0.542639 18.1849
326 2 2.2208 5.13357 -1.74409 19.3302
327 2 2.2208 5.13864 3.8256 19.3319
328 1 -1.1104 0.828129 -0.446715 15.1763
332 1 -1.1104 3.60017 -3.2213 17.9543
333 1 -1.1104 3.72817 2.46003 17.8066
334 2 2.2208 2.29809 0.984874 19.3397
335 1 -1.1104 3.66427 -3.22505 15.0942
337 1 -1.1104 3.84869 2.23546 14.9928
339 2 2.2208 2.28481 -1.80362 16.5449
340 2 2.2208 2.1513 3.69309 16.5294
341 1 -1.1104 3.72912 -0.317717 17.9889
342 1 -1.1104 3.60496 -0.467817 15.1863
353 2 2.2208 5.11992 3.8744 13.7372
314 1 -1.1104 6.38506 -3.15195 17.9452
325 1 -1.1104 6.49285 -0.393648 18.0235
315 1 -1.1104 6.58241 2.38853 17.9009
322 1 -1.1104 6.69902 2.31874 15.1899
320 1 -1.1104 6.51156 -3.32009 15.1675
351 2 2.2208 5.12535 -1.88416 13.6958
331 1 -1.1104 6.63277 -0.418022 20.8178
352 2 2.2208 2.44196 0.824328 13.7412
384 2 2.2208 8.02767 0.982711 13.7109
329 1 -1.1104 0.910555 -0.469225 20.8679
672 2 2.2208 13.5711 20.3452 16.6857
17733 2 2.2208 13.6394 -4.53905 13.7312
330 1 -1.1104 6.60438 -0.526235 15.139
632 2 2.2208 7.79293 20.5765 22.373
354 2 2.2208 10.7077 1.07079 16.5474
355 1 -1.1104 12.1043 -3.15626 18.0201
356 1 -1.1104 12.2021 2.48833 18.0008
357 1 -1.1104 12.1982 -3.06877 15.1722
359 1 -1.1104 12.1821 2.37549 15.1978
361 1 -1.1104 12.2941 -0.38136 18.107
362 2 2.2208 10.8274 -1.72424 19.3746
363 2 2.2208 10.8467 3.77154 19.3233
364 1 -1.1104 12.1676 -0.323034 15.2575
366 1 -1.1104 9.41464 -3.12361 17.9275
367 1 -1.1104 9.33327 2.44822 17.8203
368 2 2.2208 7.97088 1.09609 19.4046
369 1 -1.1104 9.40617 -3.36526 14.9478
371 1 -1.1104 9.29985 2.5775 15.1056
373 2 2.2208 8.02123 -1.91256 16.4973
374 2 2.2208 7.88126 3.80392 16.5768
375 1 -1.1104 9.35619 -0.315434 17.9237
376 1 -1.1104 9.22363 -0.442691 15.1794
8527 2 2.2208 10.7517 -4.54347 22.2118
386 2 2.2208 10.704 3.76414 13.6565
649 2 2.2208 13.5374 3.74517 16.5458
666 2 2.2208 13.5117 12.14 19.3113
422 2 2.2208 2.30024 12.2167 13.639
365 1 -1.1104 12.2765 -0.429729 20.8884
372 1 -1.1104 9.53106 2.47578 20.7214
9408 2 2.2208 13.5438 17.9093 24.9717
8493 2 2.2208 10.7269 -4.56686 16.5546
420 2 2.2208 2.30371 6.51479 13.6574
387 2 2.2208 5.09632 6.52942 16.5664
388 2 2.2208 5.10908 12.1862 16.5787
389 1 -1.1104 1.04606 7.97489 17.948
391 1 -1.1104 1.04089 7.91677 15.1176
395 1 -1.1104 0.980999 5.25343 17.8559
396 1 -1.1104 0.745822 10.8384 17.8552
399 2 2.2208 5.05255 9.38037 19.4356
400 1 -1.1104 1.00475 5.11851 15.0964
402 1 -1.1104 1.01748 10.7707 15.1399
408 1 -1.1104 3.80306 8.04283 17.9712
409 2 2.2208 2.2535 6.5563 19.4161
410 2 2.2208 2.20724 12.1943 19.3262
411 1 -1.1104 3.80493 7.87369 15.0095
413 2 2.2208 2.33906 9.294 16.4773
414 1 -1.1104 3.72572 5.24628 18.0599
415 1 -1.1104 3.49813 10.7147 17.9873
416 1 -1.1104 3.78404 4.96708 15.2993
418 1 -1.1104 3.7576 10.8015 15.0117
398 1 -1.1104 6.46264 10.7996 18.0068
406 1 -1.1104 6.53876 10.7552 15.217
390 1 -1.1104 6.86492 7.92502 17.9992
397 1 -1.1104 6.54486 5.24503 17.902
393 1 -1.1104 6.54737 7.99047 14.9928
404 1 -1.1104 6.52512 5.18612 14.9862
631 2 2.2208 7.92456 14.9477 22.1675
661 2 2.2208 13.4195 6.60797 25.024
423 2 2.2208 10.8207 6.59467 16.6168
424 2 2.2208 10.82 12.2089 16.4284
425 1 -1.1104 12.23 8.14739 17.9149
426 1 -1.1104 12.2054 7.91382 15.0961
428 1 -1.1104 12.141 5.25903 18.0012
429 1 -1.1104 11.9469 10.8022 17.7926
430 2 2.2208 10.681 9.40313 19.3749
431 1 -1.1104 12.1305 5.14957 15.1674
433 1 -1.1104 12.201 10.8122 15.0688
435 1 -1.1104 9.49309 7.95055 17.9642
436 2 2.2208 7.99448 6.68847 19.4283
437 2 2.2208 7.95925 12.1491 19.3074
438 1 -1.1104 9.3383 8.01793 15.1819
440 2 2.2208 7.92717 9.29135 16.3923
441 1 -1.1104 9.35091 5.17725 18.0493
442 1 -1.1104 9.2296 10.6974 17.9369
443 1 -1.1104 9.29394 5.34148 15.0818
445 1 -1.1104 9.28673 10.7691 15.2112
434 1 -1.1104 11.9388 10.8193 20.7015
8531 2 2.2208 2.31733 -4.72357 13.7433
664 2 2.2208 13.6238 9.33634 16.5565
449 2 2.2208 8.00201 12.2525 13.6262
8534 2 2.2208 2.3681 -4.54668 19.3543
446 1 -1.1104 9.2884 10.7742 20.7629
657 2 2.2208 13.5264 17.9524 13.7584
9405 2 2.2208 13.5376 20.5518 22.2765
681 2 2.2208 13.6235 3.67766 22.1529
8741 2 2.2208 13.6102 -4.57657 19.3816
450 2 2.2208 4.99301 17.8134 16.5961
451 1 -1.1104 0.796355 13.5686 17.9883
452 1 -1.1104 0.794148 19.3198 17.8883
455 1 -1.1104 0.882573 13.6692 15.1761
457 1 -1.1104 0.644679 19.0726 15.1153
463 1 -1.1104 0.88743 16.333 17.9051
465 2 2.2208 5.00175 15.064 19.4144
466 2 2.2208 5.01914 20.6528 19.3897
467 1 -1.1104 0.786948 16.4326 15.1208
471 1 -1.1104 3.68224 13.6026 17.9644
472 1 -1.1104 3.54443 19.1714 18.0136
473 2 2.2208 2.23039 17.8244 19.5223
474 1 -1.1104 3.70207 13.5371 15.1232
476 1 -1.1104 3.60827 19.1861 15.0829
478 2 2.2208 2.30774 14.9164 16.6355
479 2 2.2208 2.26623 20.6319 16.5696
480 1 -1.1104 3.63388 16.372 18.0585
481 1 -1.1104 3.61637 16.4703 15.1924
469 1 -1.1104 6.48024 16.3825 15.0831
459 1 -1.1104 6.46824 13.4582 15.0343
454 1 -1.1104 6.47172 19.2161 17.9521
461 1 -1.1104 6.461 19.329 15.1831
462 1 -1.1104 6.41908 19.2308 20.7143
464 1 -1.1104 6.46525 16.4051 17.9363
468 1 -1.1104 0.847701 16.3424 20.87
483 2 2.2208 2.10087 17.9335 13.7282
651 2 2.2208 13.5653 1.08812 13.6072
575 2 2.2208 10.6695 20.5997 24.9164
670 2 2.2208 13.5569 14.9828 16.5295
453 1 -1.1104 6.45019 13.5664 17.9873
486 2 2.2208 10.6912 17.7871 16.5324
487 1 -1.1104 12.1144 13.5447 17.8421
488 1 -1.1104 12.033 19.169 17.9074
489 1 -1.1104 12.2134 13.8417 15.164
491 1 -1.1104 12.1223 19.2958 15.1377
493 1 -1.1104 12.1572 16.3969 17.9435
494 2 2.2208 10.7447 14.8376 19.2489
495 2 2.2208 10.6066 20.5285 19.3685
496 1 -1.1104 12.0013 16.4562 15.1544
498 1 -1.1104 9.23719 13.5475 17.933
499 1 -1.1104 9.18528 19.0473 17.8527
500 2 2.2208 7.80088 17.7578 19.363
501 1 -1.1104 9.35822 13.5711 15.0826
503 1 -1.1104 9.15545 19.2336 14.9719
505 2 2.2208 8.00787 14.9635 16.5699
506 2 2.2208 7.79647 20.5977 16.6983
507 1 -1.1104 9.30519 16.3839 18.0476
508 1 -1.1104 9.23744 16.487 15.1223
490 1 -1.1104 12.2535 13.5392 20.6397
660 2 2.2208 -0.331959 15.0676 24.9954
512 2 2.2208 7.75184 17.9516 13.7381
8422 2 2.2208 13.5809 -4.61458 24.9248
343 1 -1.1104 3.74835 -0.488735 20.7773
319 1 -1.1104 0.959746 2.44792 20.7014
8460 2 2.2208 7.87395 -4.65742 24.9794
317 1 -1.1104 0.877426 -3.20108 20.7687
336 1 -1.1104 3.64542 -3.22326 20.8402
323 1 -1.1104 6.54136 2.52362 20.7566
338 1 -1.1104 3.79854 2.3684 20.7204
514 2 2.2208 5.22815 1.09537 22.0736
515 1 -1.1104 0.995063 -3.19535 23.5808
516 1 -1.1104 1.04102 2.30854 23.6139
519 1 -1.1104 0.903466 -3.17982 26.4076
520 1 -1.1104 0.795276 2.38698 26.4999
523 1 -1.1104 0.932516 -0.49315 23.646
525 2 2.2208 5.10349 -1.68089 25.0175
526 2 2.2208 5.22584 3.84466 24.8899
527 1 -1.1104 0.923218 -0.375257 26.3741
529 1 -1.1104 3.79995 -3.13847 23.5893
530 1 -1.1104 3.89966 2.52813 23.2983
531 2 2.2208 2.27383 0.971924 25.05
532 1 -1.1104 3.60044 -3.27097 26.5062
533 1 -1.1104 3.57875 2.36381 26.2049
534 2 2.2208 2.35317 -1.87339 22.3662
535 2 2.2208 2.41148 3.87932 22.1297
536 1 -1.1104 3.68997 -0.257855 23.7013
537 1 -1.1104 3.73867 -0.369867 26.4579
521 1 -1.1104 6.5171 -3.14829 26.4592
528 1 -1.1104 6.56922 -0.460801 26.3926
524 1 -1.1104 6.50934 -0.306942 23.546
517 1 -1.1104 6.47946 -3.17354 23.6916
522 1 -1.1104 6.52268 2.58568 26.4907
321 1 -1.1104 6.43563 -3.11529 20.7502
360 1 -1.1104 12.3118 2.37784 20.7811
370 1 -1.1104 9.35872 -3.05419 20.712
518 1 -1.1104 6.65549 2.34397 23.4594
549 1 -1.1104 12.0553 16.5129 23.5394
377 1 -1.1104 9.29423 -0.231961 20.7326
358 1 -1.1104 12.2011 -3.16875 20.8532
485 2 2.2208 5.06569 15.0015 13.7439
550 2 2.2208 10.9263 0.86935 22.0866
551 1 -1.1104 12.0755 -3.2919 23.6242
552 1 -1.1104 12.2272 2.28709 23.5216
553 1 -1.1104 12.1392 -3.14489 26.5505
554 1 -1.1104 12.1854 2.31021 26.2819
555 1 -1.1104 12.1216 -0.494415 23.7164
556 2 2.2208 10.705 -1.71321 25.0943
557 2 2.2208 10.7657 3.77109 24.9241
558 1 -1.1104 12.1842 -0.377715 26.3287
559 1 -1.1104 9.31491 -3.26141 23.5019
560 1 -1.1104 9.54251 2.40445 23.4842
561 2 2.2208 7.9963 1.10528 24.9254
562 1 -1.1104 9.3474 -3.32294 26.259
563 1 -1.1104 9.38748 2.45235 26.4243
564 2 2.2208 7.90805 -1.82453 22.1689
565 2 2.2208 8.12764 3.82628 22.0195
566 1 -1.1104 9.43448 -0.41878 23.5059
567 1 -1.1104 9.23294 -0.36478 26.2874
659 2 2.2208 13.5589 0.950863 25.0382
641 1 -1.1104 6.28861 19.2815 23.5154
385 2 2.2208 10.8288 -1.96284 13.77
576 1 -1.1104 12.0638 16.5305 26.2753
417 1 -1.1104 3.80806 5.10854 20.801
578 1 -1.1104 9.26235 19.1837 23.4804
394 1 -1.1104 6.44148 8.05945 20.7125
392 1 -1.1104 0.74535 8.21742 20.8292
412 1 -1.1104 3.61235 7.94432 20.8193
401 1 -1.1104 0.888007 5.10656 20.659
403 1 -1.1104 0.769212 10.9649 20.7714
419 1 -1.1104 3.74391 10.876 20.707
579 2 2.2208 4.95789 6.69665 22.2232
580 2 2.2208 5.0064 12.2671 22.159
581 1 -1.1104 0.864222 7.9931 23.5643
583 1 -1.1104 0.825982 7.97354 26.4077
585 1 -1.1104 0.940602 5.06569 23.5471
586 1 -1.1104 0.858286 10.8102 23.6236
589 2 2.2208 5.12602 9.3977 25.0551
590 1 -1.1104 0.690184 5.23551 26.4183
591 1 -1.1104 0.858784 10.7214 26.4067
594 1 -1.1104 3.69456 8.02094 23.5864
595 2 2.2208 2.21789 6.57968 25.0471
596 2 2.2208 2.40153 12.1463 25.0089
597 1 -1.1104 3.7178 7.93019 26.3737
598 2 2.2208 2.17259 9.51619 22.2065
599 1 -1.1104 3.58141 5.31348 23.6195
600 1 -1.1104 3.75047 10.8152 23.4436
601 1 -1.1104 3.67364 5.15965 26.3271
602 1 -1.1104 3.7048 10.6643 26.3776
587 1 -1.1104 6.62726 5.06525 23.5749
593 1 -1.1104 6.5418 10.7507 26.4358
405 1 -1.1104 6.6518 5.27394 20.8428
584 1 -1.1104 6.43018 8.07586 26.5068
588 1 -1.1104 6.49031 10.8719 23.5184
685 2 2.2208 13.6489 9.32471 22.2239
407 1 -1.1104 6.5439 10.7914 20.8236
592 1 -1.1104 6.49477 5.34473 26.2763
582 1 -1.1104 6.3437 8.02501 23.7063
678 2 2.2208 13.5669 12.0956 24.9018
421 2 2.2208 5.18572 9.48003 13.6675
432 1 -1.1104 12.259 5.13989 20.7598
444 1 -1.1104 9.58339 5.28035 20.7885
427 1 -1.1104 12.2742 8.02881 20.8359
439 1 -1.1104 9.41514 8.08861 20.8027
610 1 -1.1104 9.3898 10.7219 26.2518
611 1 -1.1104 9.30973 5.18516 26.4501
612 1 -1.1104 9.37541 10.8066 23.5071
613 1 -1.1104 9.44968 5.11782 23.5664
614 2 2.2208 7.9351 9.42547 22.263
615 1 -1.1104 9.18412 7.86888 26.3703
616 2 2.2208 7.94888 12.2681 25.0189
617 2 2.2208 7.99019 6.54618 24.9889
618 2 2.2208 10.9409 6.54554 22.1029
619 2 2.2208 10.6801 12.1601 22.0583
620 1 -1.1104 11.972 7.95051 23.7529
621 1 -1.1104 11.8893 8.0269 26.3558
622 1 -1.1104 12.1952 5.14208 23.5464
623 1 -1.1104 12.2801 10.6981 23.5637
624 2 2.2208 10.5954 9.44279 24.9685
625 1 -1.1104 12.1551 5.04115 26.3282
626 1 -1.1104 12.162 10.8393 26.3935
627 1 -1.1104 9.21021 7.91714 23.4906
477 1 -1.1104 3.62067 19.2409 20.8597
644 1 -1.1104 6.60548 13.7048 23.6819
607 1 -1.1104 6.46459 19.5343 26.3615
482 1 -1.1104 3.67067 16.4295 20.968
456 1 -1.1104 0.84941 13.5977 20.7097
470 1 -1.1104 6.53936 16.4221 20.8146
637 1 -1.1104 6.63738 16.6538 26.4368
458 1 -1.1104 0.904433 19.1838 20.7729
475 1 -1.1104 3.48355 13.6346 20.6982
460 1 -1.1104 6.4377 13.6703 20.6965
635 1 -1.1104 6.46816 13.6366 26.4661
645 1 -1.1104 0.919137 19.3754 23.5308
643 2 2.2208 5.25307 14.9802 25.0687
383 1 -1.1104 3.76577 19.0433 26.4199
382 2 2.2208 2.41459 17.7439 25.1157
381 1 -1.1104 3.91507 16.2748 26.4937
379 1 -1.1104 3.7101 13.5807 26.4293
634 1 -1.1104 3.6669 19.138 23.648
574 2 2.2208 2.28099 20.6593 22.1906
639 1 -1.1104 1.07398 16.4406 26.4173
346 1 -1.1104 1.00739 16.4436 23.6292
642 2 2.2208 4.99036 20.7074 24.993
573 2 2.2208 2.31241 15.0054 22.2438
638 1 -1.1104 0.930891 19.156 26.3444
640 1 -1.1104 0.829654 13.5223 26.2289
647 2 2.2208 4.99471 17.8676 22.1429
646 1 -1.1104 0.946493 13.6658 23.5217
636 1 -1.1104 3.74054 13.584 23.5267
345 1 -1.1104 3.72524 16.3487 23.6778
347 1 -1.1104 6.3812 16.4966 23.6304
577 1 -1.1104 9.32291 13.5103 23.5056
608 1 -1.1104 9.28469 13.582 26.4744
541 2 2.2208 10.648 17.7758 22.2554
546 1 -1.1104 12.0673 19.1687 23.595
609 1 -1.1104 9.28654 19.3104 26.2957
633 1 -1.1104 9.05182 16.4545 23.6926
543 1 -1.1104 9.36903 16.4813 26.4719
509 1 -1.1104 9.44551 16.2666 21.0335
502 1 -1.1104 9.27218 13.5361 20.6033
497 1 -1.1104 12.1973 16.3271 20.7992
571 2 2.2208 10.6466 15.1122 24.8983
542 1 -1.1104 12.0323 13.608 23.5987
548 1 -1.1104 12.1998 19.2464 26.437
504 1 -1.1104 9.31609 19.2256 20.7361
492 1 -1.1104 12.06 19.0453 20.8362
606 2 2.2208 7.78395 17.9714 24.8812
547 1 -1.1104 12.1616 13.51 26.2355
658 2 2.2208 13.5864 15.0284 22.1717
671 2 2.2208 13.6034 17.681 19.4336
9093 2 2.2208 13.6369 -1.59985 16.6298
8479 2 2.2208 7.89006 -4.53491 19.3237
665 2 2.2208 13.6441 6.58181 19.5411
510 2 2.2208 10.5341 20.6941 13.7839
684 2 2.2208 13.6205 3.77435 27.7956
448 2 2.2208 10.8058 9.41758 13.7292
687 2 2.2208 4.99133 23.3749 5.23575
688 2 2.2208 4.90562 29.0053 5.20296
689 1 -1.1104 0.874197 24.7946 1.00603
690 1 -1.1104 0.937384 24.7448 3.77153
691 1 -1.1104 0.901951 21.8765 1.10487
692 1 -1.1104 1.02438 27.5388 1.1466
693 2 2.2208 5.21471 26.1401 2.33731
694 1 -1.1104 0.736284 21.8947 3.82931
695 1 -1.1104 0.691832 27.5594 4.05391
696 1 -1.1104 3.66189 24.6868 1.16825
697 2 2.2208 2.31199 23.3331 2.35301
698 2 2.2208 2.2546 28.9248 2.50003
699 1 -1.1104 3.73511 24.8195 3.83897
700 2 2.2208 2.28332 26.0933 5.18604
701 1 -1.1104 3.74454 21.8672 0.940505
702 1 -1.1104 3.74167 27.4195 0.962403
703 1 -1.1104 3.6715 21.956 3.9412
704 1 -1.1104 3.63976 27.6145 3.74813
711 1 -1.1104 6.47437 27.6385 1.08105
829 1 -1.1104 6.23341 24.7904 6.60123
709 1 -1.1104 6.48395 24.9319 3.85431
713 1 -1.1104 6.40105 27.6408 3.926
712 1 -1.1104 6.606 22.003 3.78396
710 1 -1.1104 6.28645 22.0161 1.07023
10090 2 2.2208 13.5912 31.9025 -0.313906
1537 1 -1.1104 0.909027 47.2579 9.4085
9719 2 2.2208 13.5553 28.9647 2.48396
1534 1 -1.1104 0.913372 47.1711 12.2047
708 1 -1.1104 6.6692 24.7972 1.08245
1563 1 -1.1104 9.46686 47.4444 6.66164
714 2 2.2208 10.5357 23.456 5.32586
715 2 2.2208 10.4436 28.9686 5.38101
716 1 -1.1104 12.0216 24.7781 1.0362
717 1 -1.1104 11.9039 24.8264 3.70928
718 1 -1.1104 12.0345 22.0053 1.11055
719 1 -1.1104 12.1792 27.5571 1.08419
720 2 2.2208 10.6968 26.2808 2.40075
721 1 -1.1104 12.0409 22.0728 3.82466
722 1 -1.1104 12.0078 27.7656 3.88512
723 1 -1.1104 9.3209 24.7971 0.921103
724 2 2.2208 7.9776 23.4271 2.5226
725 2 2.2208 7.85361 29.138 2.42475
726 1 -1.1104 9.16444 24.91 3.87991
727 2 2.2208 7.7036 26.3043 5.31152
728 1 -1.1104 9.31489 22.0364 1.06075
729 1 -1.1104 9.51232 27.6867 1.14533
730 1 -1.1104 9.37489 22.1124 3.87422
731 1 -1.1104 9.18581 27.6169 3.94382
864 1 -1.1104 9.09228 24.8122 6.64377
9728 3 0 13.5553 27.5889 9.95604
9717 2 2.2208 13.419 34.5888 8.14647
865 1 -1.1104 9.12809 22.0197 6.85613
861 1 -1.1104 12.1141 24.7342 6.46039
1193 2 2.2208 2.21826 26.2315 -0.302376
9720 2 2.2208 13.4523 26.1078 5.28428
735 2 2.2208 5.1095 34.7246 5.29113
736 1 -1.1104 0.834437 30.4448 1.11413
737 1 -1.1104 0.726989 36.1217 1.1766
739 1 -1.1104 0.720268 30.4303 3.94316
740 1 -1.1104 0.850442 36.0966 3.97219
742 1 -1.1104 0.765868 33.1805 1.12196
743 2 2.2208 5.03158 31.7937 2.48402
744 2 2.2208 5.00217 37.3784 2.48953
745 1 -1.1104 0.833081 33.095 3.77781
747 1 -1.1104 3.54769 30.193 1.09988
748 1 -1.1104 3.63562 36.0111 1.13216
749 2 2.2208 2.25357 34.5816 2.57791
750 1 -1.1104 3.59449 30.3414 3.73291
751 1 -1.1104 3.70803 35.8919 3.9152
752 2 2.2208 2.13998 31.8345 5.2215
753 2 2.2208 2.32603 37.4272 5.34563
754 1 -1.1104 3.5008 33.1668 1.02085
755 1 -1.1104 3.72328 33.1839 3.86296
746 1 -1.1104 6.56526 33.2116 3.93701
759 1 -1.1104 6.3524 30.4093 1.1716
888 1 -1.1104 3.9183 36.0722 6.62302
741 1 -1.1104 6.35494 35.9853 3.7841
738 1 -1.1104 6.43769 35.9295 0.854731
761 1 -1.1104 6.39978 33.1291 0.935036
882 1 -1.1104 0.850518 35.8672 6.8051
885 1 -1.1104 0.942882 33.1473 6.69136
886 1 -1.1104 6.63434 33.2141 6.71169
1282 2 2.2208 7.90092 31.8096 -0.436345
9721 2 2.2208 13.5601 34.7237 2.32596
9733 2 2.2208 13.4577 37.5652 5.2807
765 1 -1.1104 12.3844 30.2423 5.25231
760 1 -1.1104 6.59418 30.347 3.99422
762 2 2.2208 10.646 34.6352 5.38972
763 1 -1.1104 11.9672 30.4294 1.42622
764 1 -1.1104 12.011 36.1229 0.920047
766 1 -1.1104 12.0137 36.1213 3.65356
767 1 -1.1104 12.1511 33.3145 1.05119
768 2 2.2208 10.6777 32.1183 2.48313
769 2 2.2208 10.6839 37.5959 2.40001
770 1 -1.1104 12.0502 33.1905 3.91839
771 1 -1.1104 9.29958 30.6234 1.27114
772 1 -1.1104 9.28841 36.0611 0.977223
773 2 2.2208 7.78332 34.7204 2.4798
774 1 -1.1104 9.48424 30.4213 3.85765
775 1 -1.1104 9.26909 36.2643 3.89508