ITEM: TIMESTEP
80000
ITEM: NUMBER OF ATOMS
17760
ITEM: BOX BOUNDS pp pp pp
-3.8480183708946636e-01 2.7724801837089586e+01
-4.5886372873700205e+00 3.3266863728737763e+02
-3.7798796998658213e-01 2.7717987969986673e+01
ITEM: ATOMS id type q x y z
1 2 2.2208 5.17561 0.900812 5.24913
2 1 -1.1104 1.01499 -3.07105 1.03465
3 1 -1.1104 0.724926 2.47187 1.11071
6 1 -1.1104 0.905129 -3.27579 3.86098
7 1 -1.1104 0.849401 2.40712 3.81905
10 1 -1.1104 0.956764 -0.440428 1.02108
12 2 2.2208 5.0756 -1.87064 2.3782
13 2 2.2208 5.08437 3.86092 2.2383
14 1 -1.1104 0.868997 -0.528152 3.77521
16 1 -1.1104 3.81037 -3.3538 0.995906
17 1 -1.1104 3.56546 2.47277 0.931907
18 2 2.2208 2.41331 0.930358 2.50486
19 1 -1.1104 3.75052 -3.33025 3.84244
20 1 -1.1104 3.51904 2.34609 3.89234
21 2 2.2208 2.32342 -1.92832 5.24303
22 2 2.2208 2.46103 3.76072 5.3536
23 1 -1.1104 3.7765 -0.505953 1.01835
24 1 -1.1104 3.67241 -0.507642 3.85172
15 1 -1.1104 6.50359 -0.259934 3.74077
4 1 -1.1104 6.44427 -3.24547 1.14274
11 1 -1.1104 6.51875 -0.489146 1.00267
9 1 -1.1104 6.28419 2.36591 3.78548
5 1 -1.1104 6.5367 2.45262 1.02502
8 1 -1.1104 6.53927 -2.98612 3.97139
169 1 -1.1104 6.55821 2.3862 6.7328
172 1 -1.1104 3.73001 -3.28012 6.69196
173 1 -1.1104 3.7898 2.46042 6.69416
174 1 -1.1104 3.87971 -0.331176 6.63808
168 1 -1.1104 6.79711 -3.0896 6.6439
8264 2 2.2208 2.22702 -4.5573 7.96168
422 2 2.2208 2.29855 12.2365 13.6262
8390 2 2.2208 2.37611 -4.68938 2.45216
17324 2 2.2208 13.529 -4.69567 7.92211
31 2 2.2208 10.6302 1.01978 5.12414
32 1 -1.1104 12.1158 -3.15721 1.03828
33 1 -1.1104 12.2285 2.4806 0.958046
34 1 -1.1104 12.1193 -3.06991 3.91151
35 1 -1.1104 12.1512 2.46523 3.7735
36 1 -1.1104 12.1186 -0.31618 1.08551
37 2 2.2208 10.7737 -1.77152 2.40565
39 1 -1.1104 12.0767 -0.307273 3.84751
40 1 -1.1104 9.37238 -3.16817 0.973389
41 1 -1.1104 9.30895 2.54611 1.0178
42 2 2.2208 7.92881 0.871473 2.3771
43 1 -1.1104 9.4144 -3.10326 3.74605
44 1 -1.1104 9.24282 2.53244 3.83952
45 2 2.2208 8.0024 -1.76456 5.24561
46 2 2.2208 7.88352 3.84376 5.19595
47 1 -1.1104 9.26067 -0.423706 1.05386
48 1 -1.1104 9.28275 -0.42458 3.86654
38 2 2.2208 10.6536 3.87289 2.45806
307 2 2.2208 13.544 1.01333 2.46772
210 1 -1.1104 9.38493 -0.330325 6.80793
209 1 -1.1104 9.30812 2.38331 6.5852
538 2 2.2208 5.10555 1.051 -0.375057
105 1 -1.1104 9.35704 19.1205 12.2533
9062 2 2.2208 13.4191 -1.74837 5.27069
208 1 -1.1104 9.48192 -3.11686 6.65551
512 2 2.2208 7.84262 17.5682 13.5434
26 1 -1.1104 12.1286 13.6093 12.3116
54 2 2.2208 5.04689 6.55684 5.21525
55 2 2.2208 5.18454 12.2947 5.30656
56 1 -1.1104 0.93635 7.92018 1.05708
58 1 -1.1104 0.872196 8.1449 3.91317
60 1 -1.1104 0.772717 5.28669 1.134
61 1 -1.1104 0.941819 10.7708 1.03563
66 2 2.2208 5.18896 9.46387 2.37952
67 1 -1.1104 0.730802 5.43227 3.75239
68 1 -1.1104 0.914616 10.8775 3.87915
71 1 -1.1104 3.68186 7.93098 1.00703
72 2 2.2208 2.31099 6.69791 2.46675
73 2 2.2208 2.35233 12.2091 2.42148
74 1 -1.1104 3.70083 7.98618 3.89655
75 2 2.2208 2.20138 9.41962 5.21891
76 1 -1.1104 3.56588 5.22041 1.04224
77 1 -1.1104 3.72074 10.8436 1.24409
79 1 -1.1104 3.78224 5.21343 3.96462
80 1 -1.1104 3.7786 10.7874 4.00436
63 1 -1.1104 6.61903 5.27589 0.832151
70 1 -1.1104 6.64843 10.7521 3.58921
59 1 -1.1104 6.43594 7.9241 3.75823
64 1 -1.1104 6.45179 10.825 0.905071
69 1 -1.1104 6.54702 5.15324 3.70632
57 1 -1.1104 6.57925 7.97492 1.01686
238 1 -1.1104 3.66508 7.93165 6.69959
234 1 -1.1104 0.942302 7.90566 6.64944
78 1 -1.1104 3.5911 10.876 6.7668
65 1 -1.1104 6.43079 10.7823 6.50596
305 2 2.2208 13.5766 6.68465 2.4327
84 2 2.2208 10.7912 6.67817 5.16276
85 2 2.2208 10.7961 12.0898 5.18454
86 1 -1.1104 12.1796 8.06978 0.914475
87 1 -1.1104 12.2505 8.11006 3.83216
88 1 -1.1104 12.1459 5.30472 0.962499
89 1 -1.1104 12.2222 10.8322 1.09021
91 2 2.2208 10.7759 9.32796 2.39905
92 1 -1.1104 12.0984 5.28584 3.7472
93 1 -1.1104 12.1676 10.8524 3.79431
94 1 -1.1104 9.28947 7.98992 0.995666
95 2 2.2208 7.88262 6.6439 2.36439
96 2 2.2208 7.99336 12.2215 2.28642
97 1 -1.1104 9.28337 7.95243 3.79834
98 2 2.2208 7.98667 9.36116 5.14325
99 1 -1.1104 9.42188 5.27294 0.931544
100 1 -1.1104 9.40952 10.8369 0.850062
102 1 -1.1104 9.28939 5.32563 3.70594
103 1 -1.1104 9.41009 10.6004 3.74127
9067 2 2.2208 13.5497 12.1585 2.43378
449 2 2.2208 8.0545 12.2362 13.4645
266 1 -1.1104 12.1696 5.05499 6.65773
269 1 -1.1104 9.40974 5.22354 6.4413
101 1 -1.1104 9.43245 10.8222 6.59204
265 1 -1.1104 12.2197 7.99612 6.62735
267 1 -1.1104 9.55761 8.07588 6.62579
90 1 -1.1104 12.2927 10.9143 6.58894
25 2 2.2208 10.718 17.9092 10.7261
106 2 2.2208 4.97558 17.8645 5.14471
107 1 -1.1104 1.02188 13.685 1.10524
109 1 -1.1104 0.826255 19.1041 0.837243
113 1 -1.1104 0.943502 13.8336 3.93902
114 1 -1.1104 0.88779 19.5229 3.73822
116 1 -1.1104 0.836926 16.3117 0.969361
119 2 2.2208 5.15449 14.9792 2.45366
120 2 2.2208 5.15269 20.6288 2.33957
121 1 -1.1104 0.959263 16.5677 3.75635
123 1 -1.1104 3.74667 13.6265 0.921815
125 1 -1.1104 3.59147 19.2093 0.893439
127 2 2.2208 2.19539 17.862 2.28309
128 1 -1.1104 3.7316 13.5839 3.63369
129 1 -1.1104 3.6778 19.2348 3.72689
130 2 2.2208 2.36377 15.0692 5.18744
131 2 2.2208 2.31522 20.7722 5.11465
132 1 -1.1104 3.6719 16.4047 0.86914
134 1 -1.1104 3.68741 16.5691 3.6459
138 1 -1.1104 6.48266 19.301 1.02076
115 1 -1.1104 6.72719 13.4521 3.76473
140 1 -1.1104 6.54264 16.6226 1.09414
110 1 -1.1104 6.43403 13.8747 0.983982
139 1 -1.1104 6.54183 19.11 3.83427
122 1 -1.1104 6.49068 16.3404 3.90249
133 1 -1.1104 3.75304 16.354 6.51289
126 1 -1.1104 3.5526 19.4106 6.48592
118 1 -1.1104 6.52765 16.386 6.51165
124 1 -1.1104 3.82329 13.7491 6.54347
108 1 -1.1104 1.08392 13.8212 6.81353
510 2 2.2208 10.496 20.6503 13.5078
9061 2 2.2208 13.6104 20.6945 5.29617
9063 2 2.2208 13.6602 9.46663 5.23693
9048 2 2.2208 13.5829 17.9446 2.54425
141 2 2.2208 10.752 17.668 5.18998
142 1 -1.1104 12.3463 13.6772 1.08953
144 1 -1.1104 12.1803 19.1585 1.10223
146 1 -1.1104 12.1374 13.6 3.84824
147 1 -1.1104 12.1634 19.2951 3.94246
148 1 -1.1104 12.0659 16.4571 1.12509
150 2 2.2208 10.7403 15.0469 2.38439
151 2 2.2208 10.8055 20.6451 2.31539
152 1 -1.1104 12.1544 16.4657 3.79495
153 1 -1.1104 9.41219 13.6528 0.893787
155 1 -1.1104 9.40941 19.2579 0.863586
157 2 2.2208 8.09823 17.8333 2.38061
158 1 -1.1104 9.33809 13.5617 3.88946
159 1 -1.1104 9.40403 19.152 3.85657
160 2 2.2208 7.95254 14.9994 5.1401
161 2 2.2208 7.95285 20.5812 5.16808
162 1 -1.1104 9.36413 16.2743 0.983712
164 1 -1.1104 9.30163 16.3237 3.70618
145 1 -1.1104 12.1489 19.3116 6.72417
143 1 -1.1104 12.1431 13.5872 6.63174
149 1 -1.1104 11.9606 16.3915 6.57715
163 1 -1.1104 9.28393 16.4549 6.47018
156 1 -1.1104 9.20443 19.1777 6.50977
154 1 -1.1104 9.34705 13.5729 6.74512
171 1 -1.1104 6.62362 -0.322359 6.56893
166 1 -1.1104 0.876262 -3.10356 6.70227
170 1 -1.1104 0.960291 -0.535664 6.65081
167 1 -1.1104 0.958856 2.24986 6.71274
175 2 2.2208 5.21025 0.815912 10.8174
176 1 -1.1104 1.02369 -3.16517 12.3151
177 1 -1.1104 0.999364 2.45423 12.3348
180 1 -1.1104 0.949881 -3.12786 9.45921
181 1 -1.1104 0.910966 2.37821 9.48433
184 1 -1.1104 0.989504 -0.330621 12.2694
186 2 2.2208 5.07739 -1.80126 7.94628
187 2 2.2208 5.16837 3.80348 8.09977
188 1 -1.1104 0.859997 -0.317886 9.45941
190 1 -1.1104 3.90494 -3.0989 12.4163
191 1 -1.1104 3.80456 2.34668 12.2184
192 2 2.2208 2.22921 0.961146 8.01354
193 1 -1.1104 3.6709 -3.16017 9.36742
194 1 -1.1104 3.78823 2.27205 9.39503
195 2 2.2208 2.27965 -1.72862 10.9197
196 2 2.2208 2.45184 3.69997 10.8504
197 1 -1.1104 3.91856 -0.411771 12.2661
198 1 -1.1104 3.64569 -0.44043 9.37803
183 1 -1.1104 6.6294 2.45552 9.49058
189 1 -1.1104 6.57363 -0.446292 9.49822
185 1 -1.1104 6.66597 -0.470788 12.3042
182 1 -1.1104 6.5332 -3.2758 9.57963
179 1 -1.1104 6.55665 2.43381 12.1603
178 1 -1.1104 6.68646 -3.28879 12.304
310 2 2.2208 -0.512956 12.1722 10.882
135 2 2.2208 7.80831 17.7635 7.84709
83 1 -1.1104 12.0947 16.3646 9.27724
8172 2 2.2208 10.7018 -4.5458 10.8474
207 1 -1.1104 12.0624 -0.507779 6.6531
206 1 -1.1104 12.1729 2.31005 6.53005
50 1 -1.1104 12.1496 19.2735 9.44316
205 1 -1.1104 12.1471 -3.31121 6.81647
306 2 2.2208 13.4227 1.02132 8.01195
8902 2 2.2208 13.5386 3.82708 10.7415
9065 2 2.2208 13.6152 -1.70178 10.9244
211 2 2.2208 10.8045 1.04454 10.8979
212 1 -1.1104 12.2521 -3.20886 12.2111
213 1 -1.1104 12.1563 2.51685 12.1161
214 1 -1.1104 12.2081 -3.0839 9.44966
215 1 -1.1104 12.025 2.49621 9.37932
216 1 -1.1104 12.3402 -0.294018 12.2672
217 2 2.2208 10.7589 -1.73638 8.16197
218 2 2.2208 10.7108 3.78919 7.89036
219 1 -1.1104 12.1384 -0.281573 9.28999
220 1 -1.1104 9.33389 -3.12063 12.1502
221 1 -1.1104 9.44352 2.62885 12.2757
222 2 2.2208 7.97555 1.05915 8.135
223 1 -1.1104 9.34726 -3.14899 9.52245
224 1 -1.1104 9.38075 2.38825 9.41378
225 2 2.2208 7.95401 -1.86412 10.9162
226 2 2.2208 8.07438 3.86751 10.7465
227 1 -1.1104 9.43523 -0.322695 12.2924
228 1 -1.1104 9.36278 -0.281389 9.6399
29 1 -1.1104 9.33472 16.4247 9.356
9058 2 2.2208 13.5293 17.8598 7.89652
301 2 2.2208 13.6045 3.84467 5.22283
62 1 -1.1104 1.04227 10.9136 6.542
239 1 -1.1104 3.70216 5.15725 6.8289
237 1 -1.1104 6.55751 5.31117 6.47164
235 1 -1.1104 6.47695 8.07615 6.68057
236 1 -1.1104 0.920011 5.16357 6.5805
240 2 2.2208 5.10353 6.58522 10.8952
241 2 2.2208 5.07864 12.2236 10.8185
242 1 -1.1104 1.10314 7.96066 12.1608
244 1 -1.1104 0.877852 8.05424 9.3896
246 1 -1.1104 0.994883 5.16976 12.2219
247 1 -1.1104 1.00907 10.7981 12.3921
250 2 2.2208 5.16674 9.40428 8.04466
251 1 -1.1104 0.997466 5.14223 9.34467
252 1 -1.1104 0.978125 10.8446 9.43004
255 1 -1.1104 3.88305 7.98271 12.3773
256 2 2.2208 2.24536 6.62564 8.03119
257 2 2.2208 2.26114 12.2671 8.02279
258 1 -1.1104 3.76782 7.97442 9.49048
259 2 2.2208 2.3238 9.34612 10.8119
260 1 -1.1104 3.79065 5.09585 12.2994
261 1 -1.1104 3.68388 10.7265 12.2843
262 1 -1.1104 3.72649 5.15372 9.61226
263 1 -1.1104 3.77269 10.6988 9.49909
253 1 -1.1104 6.52177 5.13958 9.38617
245 1 -1.1104 6.37463 8.05775 9.5343
249 1 -1.1104 6.61683 10.6532 12.202
254 1 -1.1104 6.5743 10.8769 9.29952
233 1 -1.1104 9.31865 16.4818 12.0509
199 2 2.2208 7.93049 15.0448 10.7315
309 2 2.2208 13.7729 9.47601 10.8363
243 1 -1.1104 6.61347 7.98721 12.3667
248 1 -1.1104 6.85659 5.23558 12.2008
302 2 2.2208 13.5456 12.1778 8.03215
264 1 -1.1104 9.25872 10.7071 9.43229
268 1 -1.1104 9.4334 5.11785 9.20561
270 1 -1.1104 9.36925 10.879 12.086
271 1 -1.1104 9.50199 5.44834 12.0002
272 2 2.2208 8.00374 9.33638 10.8455
273 1 -1.1104 9.18527 8.01982 9.30956
274 2 2.2208 8.02753 12.2337 8.01772
275 2 2.2208 8.04722 6.60559 7.94723
276 2 2.2208 10.8824 6.6929 10.7382
277 2 2.2208 10.7747 12.2944 10.7991
278 1 -1.1104 12.3317 8.04309 12.1554
279 1 -1.1104 12.2368 8.06405 9.50658
280 1 -1.1104 12.171 5.21152 12.2535
281 1 -1.1104 12.3184 10.8215 12.0905
282 2 2.2208 10.7941 9.50449 7.96488
283 1 -1.1104 12.251 5.24719 9.39921
284 1 -1.1104 12.2164 10.9964 9.3716
285 1 -1.1104 9.5174 8.23198 12.2233
569 2 2.2208 7.93191 -1.74088 -0.316895
28 1 -1.1104 0.878494 19.0849 6.68307
111 1 -1.1104 6.66625 13.6072 6.51439
117 1 -1.1104 1.03101 16.4715 6.50221
288 1 -1.1104 6.58904 19.1507 9.30719
300 2 2.2208 5.11015 17.9998 10.7207
299 1 -1.1104 0.880296 13.5635 12.4393
289 1 -1.1104 6.41609 16.4706 9.31926
290 1 -1.1104 6.59865 13.6953 9.28598
298 1 -1.1104 0.936109 19.2891 12.267
203 1 -1.1104 6.61118 16.3095 12.1522
296 1 -1.1104 6.66314 19.2328 12.087
30 2 2.2208 2.37005 15.0349 10.7726
51 2 2.2208 2.30346 20.6505 10.7027
52 1 -1.1104 3.85711 16.4843 12.2074
202 1 -1.1104 1.08156 16.48 11.9751
204 1 -1.1104 3.69877 13.7617 9.28411
230 1 -1.1104 3.73155 19.3243 9.26564
231 1 -1.1104 3.7034 16.5437 9.33569
232 2 2.2208 2.29903 17.8421 7.92687
286 1 -1.1104 3.80546 19.3068 12.1837
287 1 -1.1104 3.64064 13.5053 12.2201
291 1 -1.1104 1.01966 19.2321 9.37436
292 1 -1.1104 0.879263 16.425 9.35482
293 2 2.2208 5.1808 20.6323 7.831
294 1 -1.1104 0.902972 13.6126 9.61002
295 2 2.2208 5.14521 15.135 7.99301
112 1 -1.1104 6.47458 19.1173 6.58502
511 2 2.2208 10.751 15.0429 13.5513
297 1 -1.1104 6.52568 13.6727 12.1469
483 2 2.2208 2.37823 17.7749 13.4899
448 2 2.2208 10.7947 9.58538 13.4972
53 1 -1.1104 12.2889 16.5837 12.1979
137 1 -1.1104 9.45042 19.1679 9.33918
351 2 2.2208 5.27269 -1.89476 13.7187
136 1 -1.1104 9.36664 13.5645 9.40669
49 1 -1.1104 12.0659 13.6439 9.47208
27 1 -1.1104 12.1408 19.2574 12.1792
81 2 2.2208 10.7064 15.05 7.93345
104 1 -1.1104 9.33719 13.7189 12.1348
663 2 2.2208 13.6824 6.72658 13.6499
229 2 2.2208 8.00647 20.5641 10.709
82 2 2.2208 10.6788 20.6042 7.98156
9029 2 2.2208 13.4608 20.6366 10.7765
420 2 2.2208 2.37923 6.6238 13.595
484 2 2.2208 5.23839 20.6699 13.5727
8208 2 2.2208 5.04305 -4.57664 10.8077
485 2 2.2208 5.1511 15.0579 13.6483
657 2 2.2208 13.59 17.9628 13.4857
386 2 2.2208 10.8822 3.81735 13.5191
539 2 2.2208 2.33291 -1.81587 -0.447195
8463 2 2.2208 5.13665 -4.56326 -0.39741
352 2 2.2208 2.40534 1.02025 13.7062
421 2 2.2208 5.20687 9.39001 13.7175
385 2 2.2208 10.7661 -1.83639 13.6564
540 2 2.2208 2.21595 3.69263 -0.41457
651 2 2.2208 13.6498 1.1979 13.6841
447 2 2.2208 7.94688 6.73214 13.5624
9406 2 2.2208 13.5351 20.5811 -0.530601
8704 2 2.2208 10.7084 -4.62029 -0.326557
311 2 2.2208 5.21794 1.08308 16.4827
312 1 -1.1104 0.928625 -3.2594 17.8774
313 1 -1.1104 0.991132 2.41459 17.941
316 1 -1.1104 0.906094 -3.11759 14.9987
318 1 -1.1104 0.941536 2.55008 15.133
324 1 -1.1104 0.961774 -0.205857 17.8921
326 2 2.2208 5.17036 -1.76391 19.2873
327 2 2.2208 5.18388 3.90134 19.2485
328 1 -1.1104 1.07444 -0.343654 15.176
332 1 -1.1104 3.66457 -3.17359 17.8692
333 1 -1.1104 3.72813 2.51597 17.8341
334 2 2.2208 2.4827 1.08427 19.3633
335 1 -1.1104 3.61573 -3.2034 15.0752
337 1 -1.1104 3.89622 2.27339 14.9254
339 2 2.2208 2.40226 -1.77486 16.4769
340 2 2.2208 2.2222 3.82906 16.5855
341 1 -1.1104 3.72263 -0.269501 17.9849
342 1 -1.1104 3.7663 -0.473056 15.0772
330 1 -1.1104 6.63708 -0.240486 15.0234
315 1 -1.1104 6.53867 2.42493 17.931
325 1 -1.1104 6.58636 -0.322826 17.8988
314 1 -1.1104 6.45449 -3.09622 17.9407
320 1 -1.1104 6.51884 -3.15655 15.1566
331 1 -1.1104 6.6556 -0.290444 20.6785
322 1 -1.1104 6.55524 2.45101 15.1707
8531 2 2.2208 2.42297 -4.65048 13.6257
658 2 2.2208 13.5392 15.0905 21.904
336 1 -1.1104 3.79096 -3.10374 20.6631
343 1 -1.1104 3.75875 -0.296711 20.6935
8741 2 2.2208 13.5214 -4.4753 19.4256
8464 2 2.2208 7.95609 -4.62919 13.7354
354 2 2.2208 10.745 1.00785 16.4355
355 1 -1.1104 12.2114 -3.06239 17.9752
356 1 -1.1104 12.0453 2.41165 17.8178
357 1 -1.1104 12.2156 -3.15375 15.2176
359 1 -1.1104 12.1652 2.72993 15.041
361 1 -1.1104 12.1526 -0.315264 17.9684
362 2 2.2208 10.7303 -1.84055 19.4118
364 1 -1.1104 12.1688 -0.247808 15.1254
366 1 -1.1104 9.38309 -3.1281 17.8227
367 1 -1.1104 9.3432 2.46954 17.8259
368 2 2.2208 7.95323 1.06531 19.2987
369 1 -1.1104 9.42003 -3.22318 15.0526
371 1 -1.1104 9.39329 2.39138 15.1786
373 2 2.2208 8.04252 -1.6812 16.5754
374 2 2.2208 7.9272 3.73649 16.3673
375 1 -1.1104 9.33439 -0.366071 17.9403
376 1 -1.1104 9.3707 -0.356103 15.014
363 2 2.2208 10.5804 3.9015 19.2015
8459 2 2.2208 5.0939 -4.6414 22.2852
9093 2 2.2208 13.5429 -1.67188 16.4286
8493 2 2.2208 10.7641 -4.52676 16.535
377 1 -1.1104 9.42766 -0.487459 20.8414
365 1 -1.1104 12.2514 -0.261247 20.7225
372 1 -1.1104 9.24783 2.33287 20.6524
360 1 -1.1104 12.246 2.58944 20.4981
605 2 2.2208 5.13463 12.2792 27.6833
9407 2 2.2208 13.54 15.194 27.6975
8534 2 2.2208 2.41425 -4.62005 19.2473
662 2 2.2208 13.5954 9.43016 27.751
387 2 2.2208 5.18452 6.54616 16.4564
388 2 2.2208 5.23146 12.2602 16.4498
389 1 -1.1104 0.740932 8.03585 17.6867
391 1 -1.1104 0.978891 8.14558 15.03
395 1 -1.1104 1.04788 5.15803 17.9325
396 1 -1.1104 1.13327 10.713 17.9657
399 2 2.2208 5.16302 9.42773 19.1778
400 1 -1.1104 1.00046 5.36775 15.0327
402 1 -1.1104 1.0221 10.8815 15.1504
408 1 -1.1104 3.6538 7.99119 17.8309
409 2 2.2208 2.29014 6.61176 19.2434
410 2 2.2208 2.29416 12.2109 19.2029
411 1 -1.1104 3.73534 7.93746 15.1958
413 2 2.2208 2.37235 9.38186 16.4165
414 1 -1.1104 3.8644 5.33261 17.9873
415 1 -1.1104 3.83522 10.7513 17.9589
416 1 -1.1104 3.7686 5.15901 15.3154
418 1 -1.1104 3.78536 10.841 14.9784
398 1 -1.1104 6.57406 11.012 17.8047
393 1 -1.1104 6.49219 7.94974 15.1131
390 1 -1.1104 6.60452 8.20847 17.7557
397 1 -1.1104 6.65861 5.2681 17.7863
392 1 -1.1104 0.803808 7.79525 20.7034
419 1 -1.1104 3.82443 10.7928 20.7399
394 1 -1.1104 6.32413 8.07767 20.7812
417 1 -1.1104 3.71024 5.35216 20.8319
412 1 -1.1104 3.661 8.11183 20.6093
406 1 -1.1104 6.5768 10.7878 14.9445
404 1 -1.1104 6.64064 5.26097 15.1109
513 2 2.2208 7.83694 20.7716 27.7006
380 2 2.2208 13.5064 1.17724 19.2617
681 2 2.2208 13.6024 3.79744 22.0258
423 2 2.2208 10.7491 6.73367 16.4224
424 2 2.2208 10.8643 12.3335 16.3858
425 1 -1.1104 12.1002 8.22117 17.8896
426 1 -1.1104 12.1337 8.14698 14.9861
428 1 -1.1104 12.2301 5.23791 17.897
429 1 -1.1104 12.2642 11.0202 17.9156
430 2 2.2208 10.7422 9.50505 19.3603
431 1 -1.1104 12.4765 5.56436 15.1397
433 1 -1.1104 12.1702 10.9854 15.0162
435 1 -1.1104 9.30558 8.21037 17.9391
436 2 2.2208 7.84582 6.72737 19.2589
437 2 2.2208 7.98302 12.315 19.1736
438 1 -1.1104 9.38017 8.1973 15.0998
440 2 2.2208 8.04289 9.50125 16.3019
441 1 -1.1104 9.35366 5.32284 17.7551
442 1 -1.1104 9.46388 10.9719 17.863
443 1 -1.1104 9.45116 5.19753 14.8664
445 1 -1.1104 9.57816 10.9876 14.9139
427 1 -1.1104 12.2219 8.14929 20.6311
432 1 -1.1104 12.1541 5.26117 20.7171
439 1 -1.1104 9.32144 7.96343 20.6473
444 1 -1.1104 9.28462 5.19238 20.6622
603 2 2.2208 5.03619 6.59814 27.7587
577 1 -1.1104 9.36706 13.5538 23.3342
548 1 -1.1104 12.0878 19.1656 26.2619
609 1 -1.1104 9.20599 19.2132 26.1218
450 2 2.2208 5.07554 17.8674 16.3665
451 1 -1.1104 0.83161 13.5007 17.8525
452 1 -1.1104 0.89548 19.1458 17.7289
455 1 -1.1104 0.888988 13.714 15.1273
457 1 -1.1104 0.979699 19.2166 14.9247
463 1 -1.1104 0.854125 16.2928 17.6703
465 2 2.2208 5.10186 14.9849 19.1394
466 2 2.2208 5.14729 20.488 19.1747
467 1 -1.1104 1.05086 16.5406 14.8324
471 1 -1.1104 3.67461 13.6949 17.7412
472 1 -1.1104 3.62409 19.2081 17.8139
473 2 2.2208 2.32786 17.8923 19.2104
474 1 -1.1104 3.69354 13.6653 15.0145
476 1 -1.1104 3.82955 19.1919 15.1598
478 2 2.2208 2.30154 15.035 16.4155
479 2 2.2208 2.32306 20.684 16.3988
480 1 -1.1104 3.73374 16.4443 17.751
481 1 -1.1104 3.7072 16.3299 14.9503
453 1 -1.1104 6.60822 13.7762 17.8105
454 1 -1.1104 6.48707 19.2644 17.6487
469 1 -1.1104 6.43937 16.4129 15.0821
461 1 -1.1104 6.67327 19.0528 14.8642
470 1 -1.1104 6.58004 16.268 20.5425
462 1 -1.1104 6.48778 19.0624 20.4681
460 1 -1.1104 6.47168 13.5304 20.6111
468 1 -1.1104 0.852405 16.4054 20.6351
475 1 -1.1104 3.78143 13.5215 20.3983
482 1 -1.1104 3.72071 16.312 20.6124
671 2 2.2208 13.5103 17.9041 19.2567
630 2 2.2208 10.9194 12.2067 27.691
464 1 -1.1104 6.6636 16.6626 17.8343
459 1 -1.1104 6.65129 13.5407 15.045
486 2 2.2208 10.5338 17.8251 16.3866
487 1 -1.1104 12.2826 13.7541 17.8355
488 1 -1.1104 12.0575 19.1709 17.6611
489 1 -1.1104 12.2807 13.887 14.9704
491 1 -1.1104 12.4143 20.8557 14.8128
493 1 -1.1104 12.231 16.4499 17.6656
494 2 2.2208 10.855 14.9857 19.3347
495 2 2.2208 10.6368 20.6665 19.0927
496 1 -1.1104 12.108 16.7556 14.9596
498 1 -1.1104 9.44671 13.6322 17.7611
499 1 -1.1104 9.29751 19.176 17.6417
500 2 2.2208 8.03256 17.8201 19.1194
501 1 -1.1104 9.34589 13.7127 14.8924
503 1 -1.1104 9.5585 19.2664 15.001
505 2 2.2208 7.94131 15.003 16.4617
506 2 2.2208 7.93932 20.586 16.3327
507 1 -1.1104 9.48388 16.304 17.6376
508 1 -1.1104 9.17247 16.391 14.8653
492 1 -1.1104 12.2638 19.245 20.5501
504 1 -1.1104 9.35276 19.2954 20.4251
490 1 -1.1104 12.1 13.6813 20.7122
543 1 -1.1104 9.24315 16.3603 26.275
321 1 -1.1104 6.57054 -3.12468 20.7326
319 1 -1.1104 1.10765 2.39317 20.7536
608 1 -1.1104 9.39106 13.6226 26.2134
323 1 -1.1104 6.53517 2.51641 20.7069
317 1 -1.1104 0.948089 -3.16271 20.6821
338 1 -1.1104 3.83859 2.4512 20.6632
329 1 -1.1104 1.00607 -0.31449 20.7575
514 2 2.2208 5.32141 1.07757 22.105
515 1 -1.1104 1.06188 -3.05122 23.4684
516 1 -1.1104 0.910051 2.66594 23.556
519 1 -1.1104 0.891525 -3.15289 26.3065
520 1 -1.1104 0.817945 2.30213 26.2253
523 1 -1.1104 0.918658 -0.232194 23.4459
525 2 2.2208 5.16859 -1.87224 24.9798
526 2 2.2208 5.07485 3.91297 24.9314
527 1 -1.1104 0.965665 -0.513523 26.2412
529 1 -1.1104 3.81613 -3.16991 23.5822
530 1 -1.1104 3.80874 2.63348 23.4743
531 2 2.2208 2.3932 1.04603 24.7643
532 1 -1.1104 3.76826 -3.2387 26.3527
533 1 -1.1104 3.59415 2.48421 26.164
534 2 2.2208 2.369 -1.75985 22.07
535 2 2.2208 2.37512 3.87758 22.2415
536 1 -1.1104 3.78349 -0.266284 23.4993
537 1 -1.1104 3.70506 -0.40172 26.32
517 1 -1.1104 6.46551 -3.23393 23.5817
521 1 -1.1104 6.56689 -3.12757 26.3638
522 1 -1.1104 6.53876 2.42669 26.4398
528 1 -1.1104 6.57166 -0.250687 26.3841
524 1 -1.1104 6.54803 -0.420985 23.5386
518 1 -1.1104 6.67018 2.45135 23.6142
575 2 2.2208 10.6348 20.6798 24.7893
370 1 -1.1104 9.23736 -3.31993 20.8881
358 1 -1.1104 12.0793 -3.1181 20.7871
344 2 2.2208 7.82565 15.1164 27.6553
674 2 2.2208 -0.461998 14.9936 19.2285
659 2 2.2208 13.7236 1.03841 24.8795
8535 2 2.2208 5.11304 -4.52031 16.5617
656 2 2.2208 13.5703 -1.65886 22.0258
550 2 2.2208 10.8889 0.986595 22.1506
551 1 -1.1104 12.2439 -3.24472 23.5336
552 1 -1.1104 12.3555 2.29565 23.2999
553 1 -1.1104 12.3159 -3.30789 26.3864
554 1 -1.1104 12.1824 2.36549 26.191
555 1 -1.1104 12.1309 -0.424189 23.5431
556 2 2.2208 10.8291 -1.9797 24.9731
557 2 2.2208 10.7828 3.87631 24.9305
558 1 -1.1104 12.1323 -0.604286 26.5272
559 1 -1.1104 9.23983 -3.155 23.627
560 1 -1.1104 9.48182 2.49517 23.4715
561 2 2.2208 8.04979 1.02804 24.9363
562 1 -1.1104 9.21068 -3.23308 26.4192
563 1 -1.1104 9.39149 2.36393 26.3302
564 2 2.2208 7.91084 -1.82646 22.1617
565 2 2.2208 7.98561 3.83928 22.0766
566 1 -1.1104 9.27569 -0.39219 23.5531
567 1 -1.1104 9.52841 -0.540971 26.2768
17733 2 2.2208 13.6041 -4.54885 13.6649
628 2 2.2208 10.767 6.65617 27.6663
8479 2 2.2208 7.97151 -4.55714 19.4577
378 2 2.2208 10.7445 17.7575 27.647
403 1 -1.1104 1.03462 10.6819 20.6949
401 1 -1.1104 0.857396 5.13875 20.753
405 1 -1.1104 6.50778 5.17308 20.6774
407 1 -1.1104 6.62008 10.8458 20.5877
579 2 2.2208 5.0687 6.69163 22.0774
580 2 2.2208 5.17024 12.1409 22.0942
581 1 -1.1104 0.923143 8.09482 23.4364
583 1 -1.1104 0.969075 7.93718 26.3797
585 1 -1.1104 0.959 5.34157 23.5666
586 1 -1.1104 0.924844 10.9341 23.3385
589 2 2.2208 5.09023 9.39982 24.9584
590 1 -1.1104 0.959035 5.21875 26.3951
591 1 -1.1104 1.04102 10.8366 26.2338
594 1 -1.1104 3.69325 7.97799 23.4991
595 2 2.2208 2.18984 6.70803 24.9514
596 2 2.2208 2.40347 12.1207 24.8012
597 1 -1.1104 3.65269 7.9884 26.4191
598 2 2.2208 2.39522 9.45005 22.034
599 1 -1.1104 3.72043 5.33691 23.6224
600 1 -1.1104 3.71062 10.6435 23.6446
601 1 -1.1104 3.5754 5.16702 26.3426
602 1 -1.1104 3.71878 10.7805 26.3893
592 1 -1.1104 6.46605 5.2059 26.2639
588 1 -1.1104 6.54691 10.7647 23.5225
584 1 -1.1104 6.37932 7.94806 26.2752
593 1 -1.1104 6.53988 10.9838 26.3632
582 1 -1.1104 6.58562 7.98399 23.5712
587 1 -1.1104 6.69112 5.24699 23.4729
649 2 2.2208 13.5284 3.92673 16.5273
604 2 2.2208 2.27446 9.37555 27.7711
632 2 2.2208 7.95487 20.5998 21.904
434 1 -1.1104 12.0866 10.9775 20.6977
654 2 2.2208 -0.502211 12.2012 16.4629
549 1 -1.1104 12.2192 16.3038 23.2694
446 1 -1.1104 9.32583 10.79 20.7388
678 2 2.2208 13.4716 12.319 24.8388
610 1 -1.1104 9.41086 10.7991 26.1593
611 1 -1.1104 9.36915 5.22621 26.3884
612 1 -1.1104 9.28682 10.8357 23.4747
613 1 -1.1104 9.42124 5.23922 23.4992
614 2 2.2208 7.97381 9.46771 22.0651
615 1 -1.1104 9.42729 7.9498 26.2763
616 2 2.2208 7.9448 12.1768 24.8463
617 2 2.2208 7.92527 6.63263 24.8523
618 2 2.2208 10.7289 6.63085 21.9852
619 2 2.2208 10.6674 12.2276 22.083
620 1 -1.1104 12.1216 7.9953 23.473
621 1 -1.1104 12.2051 8.07916 26.2596
622 1 -1.1104 12.323 5.09756 23.3848
623 1 -1.1104 12.1631 10.7933 23.4833
624 2 2.2208 10.7502 9.40259 24.9201
625 1 -1.1104 12.2461 5.19443 26.1441
626 1 -1.1104 12.142 10.8578 26.2667
627 1 -1.1104 9.40788 7.98132 23.4974
9405 2 2.2208 13.5528 20.7216 21.8872
542 1 -1.1104 12.1766 13.6068 23.4271
458 1 -1.1104 0.906252 19.1579 20.4947
477 1 -1.1104 3.70407 19.1443 20.6537
456 1 -1.1104 0.897715 13.5962 20.6374
347 1 -1.1104 6.46427 16.3256 23.5194
641 1 -1.1104 6.47391 19.2431 23.2438
637 1 -1.1104 6.52057 16.6794 26.2682
644 1 -1.1104 6.59715 13.629 23.5219
645 1 -1.1104 0.878235 19.0758 23.1728
643 2 2.2208 5.10632 15.0338 24.8639
383 1 -1.1104 3.64275 19.2177 26.1678
382 2 2.2208 2.30015 17.67 24.8129
381 1 -1.1104 3.64357 16.3886 26.388
379 1 -1.1104 3.7401 13.6637 26.35
634 1 -1.1104 3.66474 19.2118 23.3731
574 2 2.2208 2.27174 20.6108 21.9661
639 1 -1.1104 0.893051 16.4208 26.2483
346 1 -1.1104 0.946876 16.3192 23.4011
642 2 2.2208 5.02071 20.7566 24.8699
573 2 2.2208 2.38133 14.9868 21.9451
638 1 -1.1104 0.891325 19.1545 26.0007
640 1 -1.1104 1.01554 13.5436 26.2447
647 2 2.2208 5.16509 17.8016 22.0824
646 1 -1.1104 0.836824 13.5742 23.4842
636 1 -1.1104 3.63597 13.4994 23.2935
345 1 -1.1104 3.86405 16.3342 23.479
607 1 -1.1104 6.39174 19.3164 26.2639
635 1 -1.1104 6.59952 13.7445 26.2915
545 2 2.2208 5.07702 17.8098 27.6926
578 1 -1.1104 9.27215 19.0414 23.233
9408 2 2.2208 13.4252 17.8656 24.7588
541 2 2.2208 10.8372 17.8345 22.0577
576 1 -1.1104 12.0915 16.4217 26.1889
546 1 -1.1104 11.8139 19.2076 23.4971
661 2 2.2208 13.6094 6.66344 24.8558
547 1 -1.1104 12.1618 13.5641 26.387
509 1 -1.1104 9.40504 16.5034 20.5412
571 2 2.2208 10.7255 15.0138 24.9321
606 2 2.2208 7.80751 17.8904 24.7919
502 1 -1.1104 9.3432 13.6953 20.5899
497 1 -1.1104 12.3056 16.4795 20.5327
631 2 2.2208 7.9191 15.0355 21.901
633 1 -1.1104 9.39307 16.3229 23.3831
8527 2 2.2208 10.7874 -4.58862 22.1707
629 2 2.2208 7.99262 9.38718 27.6563
8460 2 2.2208 7.85488 -4.64946 24.9549
544 2 2.2208 2.31412 15.0118 27.6793
384 2 2.2208 8.01866 1.0161 13.5935
670 2 2.2208 13.6994 15.0306 16.477
684 2 2.2208 13.5567 3.74941 27.7013
572 2 2.2208 2.28387 20.5551 27.559
353 2 2.2208 5.34421 3.84428 13.5321
677 2 2.2208 13.6166 -1.81366 27.7742
570 2 2.2208 7.92684 3.82279 27.6507
568 2 2.2208 10.7747 0.978649 27.6324
687 2 2.2208 5.09905 23.3979 5.03364
688 2 2.2208 5.2163 29.1936 5.06145
689 1 -1.1104 0.700155 24.7743 1.01347
690 1 -1.1104 0.790112 24.8666 3.7504
691 1 -1.1104 0.858046 21.9277 1.0086
692 1 -1.1104 0.908099 27.8857 0.829336
693 2 2.2208 5.11271 26.171 2.21098
694 1 -1.1104 0.797794 22.1655 3.66033
695 1 -1.1104 0.929927 27.7463 3.74064
696 1 -1.1104 3.69648 24.8057 0.940361
697 2 2.2208 2.2223 23.3311 2.22354
698 2 2.2208 2.48927 29.1772 2.25352
699 1 -1.1104 3.61634 24.952 3.68452
700 2 2.2208 2.29467 26.2749 5.03258
701 1 -1.1104 3.82041 21.963 0.888485
702 1 -1.1104 3.75816 27.6145 1.06011
703 1 -1.1104 3.68265 22.0734 3.57969
704 1 -1.1104 3.60072 27.7306 3.70331
713 1 -1.1104 6.56489 27.4851 3.65131
712 1 -1.1104 6.49815 21.8545 3.78722
710 1 -1.1104 6.65695 22.0978 0.990262
708 1 -1.1104 6.5809 24.8455 0.886542
830 1 -1.1104 0.953172 21.9541 6.4469
711 1 -1.1104 6.61072 27.6642 0.83351
829 1 -1.1104 6.46157 24.8 6.40467
832 1 -1.1104 6.49832 22.0834 6.45096
831 1 -1.1104 0.829864 27.5988 6.53915
836 1 -1.1104 3.71637 27.5912 6.48655
834 1 -1.1104 3.5745 24.8224 6.43224
1172 2 2.2208 7.89286 40.4402 13.5291
1551 1 -1.1104 3.6368 47.3344 9.29857
709 1 -1.1104 6.43462 24.7946 3.70749
833 1 -1.1104 6.49951 27.686 6.36543
9718 2 2.2208 13.5356 23.317 2.29795
714 2 2.2208 10.7261 23.2925 5.04784
715 2 2.2208 10.5621 29.0128 5.27645
716 1 -1.1104 12.1193 24.7148 0.856313
717 1 -1.1104 12.1729 24.793 3.61129
718 1 -1.1104 12.0932 21.8805 1.00433
719 1 -1.1104 12.257 27.6386 1.03915
720 2 2.2208 10.7919 26.297 2.39852
721 1 -1.1104 12.2128 22.0177 3.75162
722 1 -1.1104 12.1897 27.5059 3.91178
723 1 -1.1104 9.35686 24.8121 0.835816
724 2 2.2208 8.04292 23.4122 2.37858
725 2 2.2208 8.04918 29.0051 2.21241
726 1 -1.1104 9.33909 24.7968 3.69776
727 2 2.2208 7.88294 26.1894 5.05872
728 1 -1.1104 9.34187 22.072 0.846657
729 1 -1.1104 9.52479 27.5235 1.07863
730 1 -1.1104 9.35056 21.8944 3.85091
731 1 -1.1104 9.21113 27.7894 3.99292
864 1 -1.1104 9.3458 24.7435 6.44174
865 1 -1.1104 9.42389 21.9514 6.53129
862 1 -1.1104 12.1996 21.999 6.61092
866 1 -1.1104 9.21966 27.4571 6.71044
861 1 -1.1104 12.0802 24.698 6.52029
9720 2 2.2208 13.4946 26.1309 5.2018
9719 2 2.2208 13.7443 29.0429 2.61215
1569 1 -1.1104 12.072 47.3716 12.2963
9711 2 2.2208 13.5314 43.203 5.22289
1020 2 2.2208 5.18245 26.1455 13.7141
735 2 2.2208 5.17824 34.838 5.13426
736 1 -1.1104 0.838176 30.5437 0.936767
737 1 -1.1104 0.889622 36.1106 0.953752
739 1 -1.1104 1.0853 30.4351 3.83352
740 1 -1.1104 0.997896 36.1445 3.7978
742 1 -1.1104 1.03301 33.2605 1.13112
743 2 2.2208 5.21021 31.9609 2.40078
744 2 2.2208 5.17645 37.5768 2.28428
745 1 -1.1104 0.754936 33.2286 3.79392
747 1 -1.1104 3.87565 30.6244 0.816151
748 1 -1.1104 3.75775 36.1129 0.870927
749 2 2.2208 2.24396 34.7466 2.50808
750 1 -1.1104 3.82655 30.5416 3.74168
751 1 -1.1104 3.68262 36.1867 3.82926
752 2 2.2208 2.2588 31.8193 5.23167
753 2 2.2208 2.33967 37.5094 5.11669
754 1 -1.1104 3.71183 33.4309 0.978531
755 1 -1.1104 3.63753 33.3281 3.84981
738 1 -1.1104 6.51742 36.0518 1.10147
741 1 -1.1104 6.63009 36.2398 3.73948
759 1 -1.1104 6.78911 30.5143 1.01092
887 1 -1.1104 3.84058 30.4098 6.51748
881 1 -1.1104 0.98506 30.5442 6.55655
882 1 -1.1104 0.997787 36.0886 6.54156
889 1 -1.1104 3.76021 33.3551 6.55592
884 1 -1.1104 6.59752 36.1052 6.50901
885 1 -1.1104 0.88361 33.274 6.46519
888 1 -1.1104 3.76957 35.9235 6.6329
1531 1 -1.1104 6.37552 47.4611 6.59521
1079 2 2.2208 4.95879 32.0818 13.5441
761 1 -1.1104 6.48299 33.3979 0.881863
746 1 -1.1104 6.72407 33.3499 3.57106
760 1 -1.1104 6.67378 30.4277 3.65254
765 1 -1.1104 12.7388 29.9495 5.03243
762 2 2.2208 10.8356 34.5452 5.14325
763 1 -1.1104 12.2192 30.4988 1.53449
764 1 -1.1104 12.1666 36.2131 0.887326
766 1 -1.1104 12.1688 36.0271 3.73059
767 1 -1.1104 12.1086 33.3556 0.884882
768 2 2.2208 10.6542 31.942 2.15046
769 2 2.2208 10.6858 37.4527 2.23625