ITEM: TIMESTEP
60000
ITEM: NUMBER OF ATOMS
17760
ITEM: BOX BOUNDS pp pp pp
-3.8627906147475144e-01 2.7726279061474830e+01
-4.6171738010674606e+00 3.3269717380107897e+02
-3.7630971144862568e-01 2.7716309711448496e+01
ITEM: ATOMS id type q x y z
1 2 2.2208 5.37223 0.993225 5.1654
2 1 -1.1104 1.25068 -3.23266 1.08922
3 1 -1.1104 1.01015 2.35263 0.995829
6 1 -1.1104 1.16725 -3.23361 3.83212
7 1 -1.1104 1.21332 2.49333 3.83341
10 1 -1.1104 1.11402 -0.266875 0.998746
12 2 2.2208 5.53479 -1.73207 2.61954
13 2 2.2208 5.28737 3.74369 2.40468
14 1 -1.1104 1.19849 -0.376958 3.87228
16 1 -1.1104 4.10022 -3.17262 1.15938
17 1 -1.1104 3.88803 2.44182 0.97004
18 2 2.2208 2.56395 1.02705 2.37959
19 1 -1.1104 4.00683 -3.09318 3.82436
20 1 -1.1104 4.0833 2.39724 3.82621
21 2 2.2208 2.5688 -1.65046 5.22546
22 2 2.2208 2.67538 3.83131 5.29241
23 1 -1.1104 3.91228 -0.166853 1.02913
24 1 -1.1104 4.02411 -0.372545 3.72221
9059 2 2.2208 -0.188623 1.05592 5.19647
167 1 -1.1104 1.26774 2.44369 6.57503
166 1 -1.1104 1.358 -3.19629 6.54812
170 1 -1.1104 1.1964 -0.38949 6.64902
174 1 -1.1104 3.88991 -0.376906 6.5888
9 1 -1.1104 6.78893 2.53979 3.68279
9060 2 2.2208 -0.176184 3.79118 2.55112
9056 2 2.2208 -0.269646 -1.87729 2.37608
172 1 -1.1104 4.10362 -3.22381 6.69274
173 1 -1.1104 4.00652 2.37303 6.58169
8264 2 2.2208 2.5927 -4.52692 8.12054
8389 2 2.2208 5.29717 -4.6322 5.29851
9054 2 2.2208 -0.393607 17.8739 5.32525
137 1 -1.1104 9.50998 19.2068 9.36694
9412 2 2.2208 -0.275205 3.78361 13.6729
15 1 -1.1104 6.90808 -0.317155 3.82582
5 1 -1.1104 6.61731 2.37345 0.875395
4 1 -1.1104 6.85455 -2.9722 0.977607
11 1 -1.1104 6.74017 -0.331658 1.13049
8 1 -1.1104 6.86283 -3.21075 3.88149
31 2 2.2208 10.9205 1.06779 5.26063
32 1 -1.1104 12.4815 -3.27614 1.1044
33 1 -1.1104 12.3928 2.29749 0.871413
34 1 -1.1104 12.4911 -3.23325 3.73577
35 1 -1.1104 12.3353 2.40079 3.81848
36 1 -1.1104 12.4848 -0.424205 1.003
37 2 2.2208 11.0132 -1.84427 2.35182
39 1 -1.1104 12.327 -0.455918 3.8638
40 1 -1.1104 9.66861 -3.15173 0.89224
41 1 -1.1104 9.48784 2.43244 0.892475
42 2 2.2208 8.25335 1.16829 2.42563
43 1 -1.1104 9.67919 -3.13829 3.75175
44 1 -1.1104 9.61605 2.46669 3.80994
45 2 2.2208 8.19897 -1.8739 5.21685
46 2 2.2208 8.09162 3.8669 5.20396
47 1 -1.1104 9.61296 -0.336942 0.917428
48 1 -1.1104 9.52674 -0.394214 3.79129
38 2 2.2208 11.0456 3.70753 2.33522
207 1 -1.1104 12.3397 -0.185802 6.64507
209 1 -1.1104 9.56338 2.39268 6.59462
8208 2 2.2208 5.44949 -4.5347 10.7784
205 1 -1.1104 12.5291 -2.99027 6.56767
168 1 -1.1104 6.77935 -3.30439 6.61484
171 1 -1.1104 6.72655 -0.564786 6.52199
420 2 2.2208 2.51493 6.73148 13.6944
9066 2 2.2208 -0.211342 12.2822 5.24227
9064 2 2.2208 -0.215708 6.69111 5.26235
54 2 2.2208 5.3487 6.57617 5.13647
55 2 2.2208 5.31568 12.1555 5.25813
56 1 -1.1104 1.01229 7.94499 1.147
58 1 -1.1104 1.02244 8.09551 3.83109
60 1 -1.1104 1.35279 5.2218 1.1459
61 1 -1.1104 1.09346 10.7682 1.01965
66 2 2.2208 5.46963 9.37635 2.29237
67 1 -1.1104 1.08744 5.19122 3.9121
68 1 -1.1104 1.01247 10.8491 3.77536
71 1 -1.1104 4.03955 8.03663 1.04482
72 2 2.2208 2.55556 6.61776 2.38871
73 2 2.2208 2.65677 12.0702 2.39746
74 1 -1.1104 3.91878 7.91048 3.68704
75 2 2.2208 2.47151 9.43205 5.13553
76 1 -1.1104 4.05138 5.22547 1.07271
77 1 -1.1104 4.07719 10.8204 0.92205
79 1 -1.1104 3.86763 5.09557 3.85242
80 1 -1.1104 3.94902 10.6641 3.70016
201 2 2.2208 -0.440408 9.45923 2.44982
238 1 -1.1104 3.98069 8.00993 6.39124
62 1 -1.1104 1.11179 10.8526 6.54597
239 1 -1.1104 3.93808 5.22189 6.76598
234 1 -1.1104 1.20618 7.94432 6.5995
236 1 -1.1104 0.998655 5.25316 6.64304
143 1 -1.1104 12.3259 13.7485 6.68812
69 1 -1.1104 6.75059 5.31747 3.83568
59 1 -1.1104 6.74033 8.08467 3.72813
57 1 -1.1104 6.85308 7.96984 1.01183
70 1 -1.1104 6.72381 10.8755 3.99939
63 1 -1.1104 6.90493 5.1876 1.13418
64 1 -1.1104 6.75642 10.8946 1.05477
84 2 2.2208 11.0192 6.57552 5.29255
85 2 2.2208 10.8349 12.2459 5.22751
86 1 -1.1104 12.5473 7.88583 1.1515
87 1 -1.1104 12.5446 8.16791 3.9064
88 1 -1.1104 12.393 5.02775 0.959299
89 1 -1.1104 12.4275 10.9433 1.11558
91 2 2.2208 11.0614 9.39315 2.37328
92 1 -1.1104 12.2908 5.33325 3.64368
93 1 -1.1104 12.4583 11.0853 3.93759
94 1 -1.1104 9.48409 8.12695 0.7634
95 2 2.2208 8.23277 6.65702 2.43745
96 2 2.2208 8.19525 12.2884 2.4548
97 1 -1.1104 9.66804 8.0713 3.72474
98 2 2.2208 8.1367 9.37038 5.12156
99 1 -1.1104 9.58222 5.19983 0.935695
100 1 -1.1104 9.55432 10.835 1.05395
102 1 -1.1104 9.49409 5.36213 3.79914
103 1 -1.1104 9.53708 10.8278 3.75821
235 1 -1.1104 6.70684 7.86879 6.55588
65 1 -1.1104 6.65362 10.8506 6.84627
267 1 -1.1104 9.43725 7.94833 6.63528
237 1 -1.1104 6.6712 5.23117 6.62178
9409 2 2.2208 -0.333474 -1.78123 13.6902
90 1 -1.1104 12.3063 10.8404 6.61853
266 1 -1.1104 12.4427 5.25128 6.66761
81 2 2.2208 10.8693 15.06 8.23662
9053 2 2.2208 -0.395963 20.7327 2.54221
17362 2 2.2208 -0.195835 -4.55796 5.17843
106 2 2.2208 5.29596 17.9271 5.15433
107 1 -1.1104 1.07876 13.5213 1.09495
109 1 -1.1104 1.23513 19.2204 0.854011
113 1 -1.1104 1.2443 13.6714 3.81561
114 1 -1.1104 0.885139 19.3516 3.8925
116 1 -1.1104 1.19166 16.3153 1.02026
119 2 2.2208 5.39166 14.9657 2.43004
120 2 2.2208 5.28383 20.7152 2.51461
121 1 -1.1104 1.14093 16.4445 3.92159
123 1 -1.1104 4.00504 13.8182 0.929391
125 1 -1.1104 3.98081 19.4623 1.11424
127 2 2.2208 2.5253 17.7811 2.38139
128 1 -1.1104 3.97605 13.5336 3.80158
129 1 -1.1104 3.77066 19.4377 3.95112
130 2 2.2208 2.57496 14.9491 5.21808
131 2 2.2208 2.44175 20.7134 5.3787
132 1 -1.1104 4.06968 16.6212 1.02809
134 1 -1.1104 3.99677 16.4219 3.76697
126 1 -1.1104 3.98962 19.389 6.62709
108 1 -1.1104 1.27081 13.629 6.8062
117 1 -1.1104 0.990827 16.4438 6.55957
200 2 2.2208 -0.267797 15.0135 2.46685
27 1 -1.1104 12.3922 19.4288 12.0579
149 1 -1.1104 12.263 16.656 6.7483
115 1 -1.1104 6.70028 13.5988 3.76434
122 1 -1.1104 6.68771 16.5543 3.73605
138 1 -1.1104 6.73704 19.4693 1.01894
110 1 -1.1104 6.77517 13.7157 0.988152
139 1 -1.1104 6.48535 19.42 3.78492
140 1 -1.1104 6.83908 16.3998 1.03971
141 2 2.2208 10.8976 17.8874 5.26337
142 1 -1.1104 12.3866 13.7608 1.06879
144 1 -1.1104 12.3606 19.233 1.0374
146 1 -1.1104 12.2914 13.6995 3.77204
147 1 -1.1104 12.1475 19.2203 3.74152
148 1 -1.1104 12.4166 16.5161 0.887393
150 2 2.2208 10.9563 15.0931 2.42269
151 2 2.2208 10.8216 20.6038 2.33312
152 1 -1.1104 12.3632 16.4891 3.88879
153 1 -1.1104 9.44398 13.513 1.12903
155 1 -1.1104 9.45446 19.2579 0.97721
157 2 2.2208 8.13089 17.8963 2.33802
158 1 -1.1104 9.53211 13.6432 3.93093
159 1 -1.1104 9.52394 19.3544 3.77033
160 2 2.2208 8.09302 15.1833 5.30502
161 2 2.2208 8.01803 20.742 5.08571
162 1 -1.1104 9.54999 16.4769 0.879222
164 1 -1.1104 9.60081 16.572 3.7265
163 1 -1.1104 9.43572 16.5651 6.68097
112 1 -1.1104 6.81166 19.289 6.63147
156 1 -1.1104 9.54114 19.4137 6.59141
145 1 -1.1104 12.3113 19.2976 6.48229
154 1 -1.1104 9.55517 13.6698 6.6066
199 2 2.2208 8.11932 15.035 10.7504
9055 2 2.2208 -0.291105 3.81279 8.06669
17357 2 2.2208 -0.199732 -4.45158 10.8477
9051 2 2.2208 -0.144445 -1.71376 8.02734
175 2 2.2208 5.30522 0.977334 10.8354
176 1 -1.1104 1.0923 -2.9994 12.2525
177 1 -1.1104 1.13677 2.43514 12.1566
180 1 -1.1104 1.08766 -3.05988 9.42382
181 1 -1.1104 1.37094 2.41655 9.44514
184 1 -1.1104 1.11949 -0.284194 12.3222
186 2 2.2208 5.46399 -1.80742 8.07119
187 2 2.2208 5.33513 3.68752 8.02922
188 1 -1.1104 1.16038 -0.386001 9.4824
190 1 -1.1104 3.90592 -3.01412 12.3475
191 1 -1.1104 3.85131 2.46834 12.4395
192 2 2.2208 2.63986 1.0433 7.94128
193 1 -1.1104 3.95024 -3.14938 9.6313
194 1 -1.1104 4.03274 2.39225 9.47983
195 2 2.2208 2.54372 -1.64427 10.9889
196 2 2.2208 2.60046 3.75036 10.955
197 1 -1.1104 4.02151 -0.365569 12.2551
198 1 -1.1104 3.96001 -0.362745 9.42316
296 1 -1.1104 6.63454 19.1769 12.2126
9052 2 2.2208 -0.152584 0.963044 10.8349
676 2 2.2208 -0.421482 15.1863 13.6227
82 2 2.2208 10.992 20.6718 7.94914
9068 2 2.2208 -0.219308 20.6981 8.07829
135 2 2.2208 8.14937 17.9594 7.99421
53 1 -1.1104 12.4303 16.5408 12.2246
210 1 -1.1104 9.48848 -0.477259 6.66241
208 1 -1.1104 9.64921 -3.17993 6.65268
206 1 -1.1104 12.2507 2.63117 6.66544
8390 2 2.2208 2.70071 -4.65126 2.41821
189 1 -1.1104 6.70838 -0.381245 9.47715
183 1 -1.1104 6.77313 2.32716 9.37672
182 1 -1.1104 6.78694 -3.15809 9.36626
169 1 -1.1104 6.80655 2.42666 6.5047
178 1 -1.1104 6.77757 -3.14693 12.1766
179 1 -1.1104 6.63004 2.39663 12.2055
185 1 -1.1104 6.83737 -0.318129 12.3002
211 2 2.2208 10.9923 1.00699 10.8305
212 1 -1.1104 12.3651 -3.11642 12.1965
213 1 -1.1104 12.3315 2.44202 12.4156
214 1 -1.1104 12.268 -3.23094 9.41072
215 1 -1.1104 12.3894 2.46267 9.58533
216 1 -1.1104 12.284 -0.418797 12.1946
217 2 2.2208 11.0108 -1.72925 7.98217
218 2 2.2208 11.0682 3.82556 8.0524
219 1 -1.1104 12.5546 -0.353774 9.54195
220 1 -1.1104 9.63377 -3.06627 12.287
221 1 -1.1104 9.64508 2.35728 12.1414
222 2 2.2208 8.12642 0.976942 8.11769
223 1 -1.1104 9.56008 -3.20037 9.35672
224 1 -1.1104 9.61316 2.37522 9.36285
225 2 2.2208 8.23608 -1.74489 10.869
226 2 2.2208 8.29515 3.80658 10.8241
227 1 -1.1104 9.64636 -0.382437 12.2064
228 1 -1.1104 9.53116 -0.389139 9.55208
8173 2 2.2208 8.23148 -4.68136 7.99915
136 1 -1.1104 9.45179 13.784 9.41135
289 1 -1.1104 6.68538 16.3356 9.52146
78 1 -1.1104 3.84674 10.8552 6.74058
310 2 2.2208 -0.247884 12.2585 10.9589
9050 2 2.2208 -0.171886 9.44498 8.05307
9049 2 2.2208 -0.157776 6.63784 10.8554
240 2 2.2208 5.33994 6.658 10.7039
241 2 2.2208 5.2898 12.2285 10.8636
242 1 -1.1104 1.17902 8.16026 12.2925
244 1 -1.1104 1.22256 7.9411 9.46959
246 1 -1.1104 1.22927 5.29317 12.3304
247 1 -1.1104 1.05338 10.8876 12.4425
250 2 2.2208 5.32783 9.35516 7.91563
251 1 -1.1104 1.30791 5.07467 9.41714
252 1 -1.1104 1.12208 10.7222 9.51527
255 1 -1.1104 4.09602 8.1525 12.1577
256 2 2.2208 2.5015 6.55711 8.06791
257 2 2.2208 2.54978 12.2484 8.14897
258 1 -1.1104 3.90414 8.15573 9.26697
259 2 2.2208 2.59582 9.46711 10.8162
260 1 -1.1104 3.8463 5.32123 12.2324
261 1 -1.1104 3.82833 10.8855 12.2584
262 1 -1.1104 4.0758 5.28362 9.43775
263 1 -1.1104 3.87285 10.924 9.5091
422 2 2.2208 2.49526 12.4269 13.617
8172 2 2.2208 11.1084 -4.55678 10.9364
29 1 -1.1104 9.49301 16.5343 9.37817
265 1 -1.1104 12.318 8.05162 6.65576
101 1 -1.1104 9.50868 10.8252 6.63692
245 1 -1.1104 6.94979 7.89512 9.57844
254 1 -1.1104 6.63319 10.654 9.51893
248 1 -1.1104 6.75757 5.23625 12.1176
243 1 -1.1104 6.92089 8.10119 12.2634
269 1 -1.1104 9.52418 5.26897 6.6728
249 1 -1.1104 6.76687 10.8353 12.318
253 1 -1.1104 6.87411 4.98175 9.42981
264 1 -1.1104 9.46027 10.7631 9.42725
268 1 -1.1104 9.6969 5.12131 9.49772
270 1 -1.1104 9.62069 10.7012 12.4945
271 1 -1.1104 9.59052 5.29962 12.2482
272 2 2.2208 8.23668 9.47625 10.9039
273 1 -1.1104 9.65442 7.81599 9.3659
274 2 2.2208 8.01265 12.2362 8.07196
275 2 2.2208 8.21302 6.56947 8.06776
276 2 2.2208 11.0452 6.61946 10.7953
277 2 2.2208 11.1761 12.2762 10.912
278 1 -1.1104 12.4524 8.11498 12.349
279 1 -1.1104 12.3696 8.13601 9.42083
280 1 -1.1104 12.3779 5.17798 12.2115
281 1 -1.1104 12.3819 10.7437 12.127
282 2 2.2208 10.9393 9.27194 8.05405
283 1 -1.1104 12.4292 5.35905 9.32789
284 1 -1.1104 12.469 10.8942 9.30949
285 1 -1.1104 9.65316 8.05308 12.1627
50 1 -1.1104 12.2318 19.2941 9.33817
124 1 -1.1104 4.14795 13.6361 6.74492
28 1 -1.1104 1.17657 19.1854 6.77111
288 1 -1.1104 6.68073 19.2328 9.48864
133 1 -1.1104 3.7196 16.4702 6.73549
233 1 -1.1104 9.5464 16.4897 12.1827
303 2 2.2208 -0.251193 15.1457 8.08217
304 2 2.2208 -0.323539 17.9577 10.8137
30 2 2.2208 2.51018 15.1198 10.759
51 2 2.2208 2.64921 20.7667 10.9159
52 1 -1.1104 3.96242 16.6456 12.35
202 1 -1.1104 1.09626 16.5999 12.1878
204 1 -1.1104 3.92758 13.6983 9.4375
230 1 -1.1104 3.98344 19.2311 9.49157
231 1 -1.1104 3.90315 16.4664 9.37768
232 2 2.2208 2.51063 17.8544 8.10231
286 1 -1.1104 3.93087 19.408 12.2138
287 1 -1.1104 3.94584 13.7554 12.2712
291 1 -1.1104 1.18326 19.3275 9.52681
292 1 -1.1104 1.0531 16.6022 9.47336
293 2 2.2208 5.32526 20.6558 8.11729
294 1 -1.1104 1.18738 13.8032 9.45177
295 2 2.2208 5.30324 15.1862 8.00125
298 1 -1.1104 1.20457 19.297 12.2755
299 1 -1.1104 1.23306 13.7632 12.1688
300 2 2.2208 5.29136 17.9114 10.8975
118 1 -1.1104 6.68499 16.5623 6.62243
203 1 -1.1104 6.79708 16.4382 12.2793
104 1 -1.1104 9.62972 13.5676 12.155
105 1 -1.1104 9.42004 19.2748 12.3071
25 2 2.2208 10.934 17.8856 10.7851
290 1 -1.1104 6.61817 13.6076 9.47416
229 2 2.2208 8.05782 20.6018 10.793
297 1 -1.1104 6.58777 13.6622 12.2497
26 1 -1.1104 12.5282 13.7535 12.4082
83 1 -1.1104 12.235 16.4476 9.45181
49 1 -1.1104 12.2464 13.6277 9.46055
111 1 -1.1104 6.74507 13.7293 6.61818
344 2 2.2208 8.20755 15.1182 -0.436668
385 2 2.2208 11.0968 -1.7479 13.6563
350 2 2.2208 -0.31897 9.50365 13.7648
628 2 2.2208 11.0577 6.54507 -0.437115
8704 2 2.2208 11.1349 -4.63905 -0.371372
9100 2 2.2208 -0.261158 17.9229 -0.484064
570 2 2.2208 8.11529 3.89639 -0.508604
605 2 2.2208 5.38152 12.2985 -0.477974
378 2 2.2208 10.9839 17.9789 -0.339303
544 2 2.2208 2.51558 15.0494 -0.425748
511 2 2.2208 11.0334 15.2005 13.6892
510 2 2.2208 10.8353 20.6396 13.6909
386 2 2.2208 10.9426 3.86291 13.7139
629 2 2.2208 8.23029 9.53758 -0.485652
448 2 2.2208 10.9798 9.39815 13.7318
311 2 2.2208 5.34884 0.969337 16.4331
312 1 -1.1104 1.05577 -3.11059 17.9585
313 1 -1.1104 1.17196 2.38409 17.6897
316 1 -1.1104 1.00146 -3.32583 15.0092
318 1 -1.1104 1.16182 2.38513 15.0519
324 1 -1.1104 1.18235 -0.413961 17.8202
326 2 2.2208 5.44461 -1.79275 19.2415
327 2 2.2208 5.32919 3.85638 19.3502
328 1 -1.1104 1.23246 -0.418799 15.129
332 1 -1.1104 3.93968 -3.22917 17.9337
333 1 -1.1104 3.82579 2.54504 17.9444
334 2 2.2208 2.51856 0.900941 19.2008
335 1 -1.1104 3.79404 -2.99985 14.9635
337 1 -1.1104 3.95832 2.49841 15.0451
339 2 2.2208 2.57803 -1.8271 16.5916
340 2 2.2208 2.59761 3.83784 16.4563
341 1 -1.1104 4.10456 -0.339268 17.8758
342 1 -1.1104 3.94019 -0.363651 15.0529
653 2 2.2208 -0.237312 0.980065 16.3714
338 1 -1.1104 3.99516 2.47579 20.6503
347 1 -1.1104 6.77672 16.5698 23.4454
9404 2 2.2208 -0.256528 -1.90888 19.3542
17727 2 2.2208 -0.280427 -4.616 16.4191
8534 2 2.2208 2.68511 -4.55397 19.3804
317 1 -1.1104 1.32181 -3.10686 20.724
329 1 -1.1104 1.11223 -0.393578 20.675
652 2 2.2208 -0.191829 3.77139 19.1759
321 1 -1.1104 6.83575 -3.10946 20.6227
315 1 -1.1104 6.65107 2.32397 17.8349
320 1 -1.1104 6.70751 -3.12041 15.075
314 1 -1.1104 6.82172 -3.16058 17.7794
330 1 -1.1104 6.80808 -0.327917 15.122
325 1 -1.1104 6.80945 -0.358153 17.7386
331 1 -1.1104 6.95052 -0.421701 20.6616
322 1 -1.1104 6.7427 2.4539 15.0344
354 2 2.2208 11.0466 1.03814 16.3546
355 1 -1.1104 12.5247 -3.20745 17.846
356 1 -1.1104 12.4184 2.45345 17.7761
357 1 -1.1104 12.4634 -3.24162 15.0113
359 1 -1.1104 12.2863 2.47797 15.0834
361 1 -1.1104 12.3664 -0.386221 17.7055
362 2 2.2208 11.0637 -1.8229 19.2753
364 1 -1.1104 12.4067 -0.498368 14.9254
366 1 -1.1104 9.55137 -3.16793 17.8434
367 1 -1.1104 9.61572 2.40284 17.7786
368 2 2.2208 8.10882 1.00349 19.1822
369 1 -1.1104 9.79047 -3.20636 15.0672
371 1 -1.1104 9.5144 2.45541 14.964
373 2 2.2208 8.32047 -1.74184 16.416
374 2 2.2208 8.15681 3.75362 16.481
375 1 -1.1104 9.63003 -0.455953 17.8454
376 1 -1.1104 9.67292 -0.273865 15.0302
363 2 2.2208 10.8319 3.92198 19.132
358 1 -1.1104 12.5281 -3.21411 20.5694
372 1 -1.1104 9.52408 2.28828 20.574
323 1 -1.1104 6.8157 2.48313 20.532
539 2 2.2208 2.64938 -1.72711 27.7862
360 1 -1.1104 12.2861 2.58703 20.638
8479 2 2.2208 8.28256 -4.60006 19.2226
8493 2 2.2208 11.0534 -4.50666 16.3774
492 1 -1.1104 12.3883 19.2999 20.8008
654 2 2.2208 -0.217067 12.368 16.4215
655 2 2.2208 -0.225639 6.66411 16.4243
387 2 2.2208 5.57045 6.63177 16.4519
388 2 2.2208 5.48189 12.3697 16.415
389 1 -1.1104 1.19712 8.17919 17.863
391 1 -1.1104 1.23428 8.04928 15.0609
395 1 -1.1104 1.13662 5.31614 17.7809
396 1 -1.1104 1.10471 10.9828 17.8375
399 2 2.2208 5.40103 9.58856 19.2487
400 1 -1.1104 1.18353 5.26099 15.0774
402 1 -1.1104 1.37935 10.9715 15.0698
408 1 -1.1104 3.89796 8.24572 17.8834
409 2 2.2208 2.52148 6.7294 19.148
410 2 2.2208 2.50081 12.1678 19.267
411 1 -1.1104 4.0717 7.99241 14.8796
413 2 2.2208 2.65028 9.48244 16.3696
414 1 -1.1104 4.1395 5.34268 17.9312
415 1 -1.1104 4.08878 11.086 17.9351
416 1 -1.1104 4.05596 5.27826 14.9766
418 1 -1.1104 4.08628 10.8944 15.0107
668 2 2.2208 -0.249507 9.40391 19.3039
392 1 -1.1104 1.21177 8.03444 20.6453
401 1 -1.1104 1.22536 5.21854 20.5419
412 1 -1.1104 4.06108 8.01722 20.6322
403 1 -1.1104 1.16914 10.8455 20.7725
644 1 -1.1104 6.79465 13.5591 23.5476
397 1 -1.1104 6.75758 5.1268 17.9346
404 1 -1.1104 6.91246 5.23934 14.9687
406 1 -1.1104 6.87697 10.7483 15.1688
398 1 -1.1104 6.79218 10.9355 17.8011
390 1 -1.1104 6.77801 8.08224 17.8167
393 1 -1.1104 6.82269 8.13502 15.0438
423 2 2.2208 10.9454 6.60156 16.4434
424 2 2.2208 10.9506 12.2976 16.5392
425 1 -1.1104 12.3332 8.00066 17.9949
426 1 -1.1104 12.3717 7.93526 15.1215
428 1 -1.1104 12.4225 5.27489 17.825
429 1 -1.1104 12.432 10.8758 17.7035
430 2 2.2208 10.9342 9.55119 19.5015
431 1 -1.1104 12.4668 5.1758 15.0475
433 1 -1.1104 12.4648 10.8982 14.8419
435 1 -1.1104 9.48301 8.02591 17.7634
436 2 2.2208 8.15311 6.6356 19.3037
437 2 2.2208 8.03816 12.2496 19.3493
438 1 -1.1104 9.58133 8.12795 14.9871
440 2 2.2208 8.21673 9.42289 16.5236
441 1 -1.1104 9.45267 5.28488 17.7412
442 1 -1.1104 9.52144 10.9153 17.9871
443 1 -1.1104 9.601 5.28534 14.8956
445 1 -1.1104 9.58675 10.9299 15.2145
444 1 -1.1104 9.59406 5.29939 20.5887
439 1 -1.1104 9.61606 7.96471 20.6949
446 1 -1.1104 9.44298 10.8133 20.7838
405 1 -1.1104 6.83247 5.21887 20.7996
427 1 -1.1104 12.2064 8.14531 20.6402
394 1 -1.1104 6.88813 8.00152 20.5991
432 1 -1.1104 12.3616 5.35048 20.6485
434 1 -1.1104 12.2795 11.085 20.5848
548 1 -1.1104 12.3759 19.4528 26.4618
549 1 -1.1104 12.539 16.5093 23.4753
674 2 2.2208 -0.234231 15.0089 19.3482
673 2 2.2208 -0.273264 20.5927 19.3725
450 2 2.2208 5.38449 17.8973 16.5226
451 1 -1.1104 1.02928 13.6303 17.9129
452 1 -1.1104 1.1274 19.3892 17.913
455 1 -1.1104 1.12199 13.8581 14.8395
457 1 -1.1104 1.22494 19.4416 15.0561
463 1 -1.1104 1.22878 16.3719 18.0328
465 2 2.2208 5.38718 15.2388 19.4316
466 2 2.2208 5.26564 20.5778 19.2939
467 1 -1.1104 1.16562 16.5134 15.1905
471 1 -1.1104 3.91452 13.8146 18.1676
472 1 -1.1104 3.87265 19.1766 17.8416
473 2 2.2208 2.51259 17.7546 19.3438
474 1 -1.1104 3.92818 13.6315 15.2092
476 1 -1.1104 3.96616 19.3232 14.9934
478 2 2.2208 2.63321 15.0645 16.4882
479 2 2.2208 2.44486 20.703 16.5167
480 1 -1.1104 3.90462 16.5424 17.7687
481 1 -1.1104 3.97951 16.4881 15.1555
675 2 2.2208 -0.209149 17.834 16.5399
482 1 -1.1104 4.02976 16.6645 20.7051
468 1 -1.1104 1.23139 16.3525 20.6642
458 1 -1.1104 0.958218 19.2432 20.6924
541 2 2.2208 11.0191 17.9372 22.156
575 2 2.2208 10.8241 20.7037 24.9647
637 1 -1.1104 6.81834 16.554 26.3272
461 1 -1.1104 6.64941 19.2958 15.0514
459 1 -1.1104 6.81865 13.7145 15.0338
453 1 -1.1104 6.65138 13.7794 17.8032
454 1 -1.1104 6.75296 19.2973 17.8085
464 1 -1.1104 6.8138 16.4646 17.907
462 1 -1.1104 6.6362 19.3003 20.7073
469 1 -1.1104 6.68494 16.5301 15.106
486 2 2.2208 10.9246 17.959 16.4983
487 1 -1.1104 12.3203 13.6844 17.8918
488 1 -1.1104 12.4175 19.1715 17.9102
489 1 -1.1104 12.3974 13.6255 15.0624
491 1 -1.1104 12.3491 19.4732 15.0245
493 1 -1.1104 12.2932 16.4475 17.8503
494 2 2.2208 10.9737 15.0805 19.2294
495 2 2.2208 10.8842 20.6589 19.4533
496 1 -1.1104 12.3786 16.482 15.055
498 1 -1.1104 9.60894 13.6912 17.8879
499 1 -1.1104 9.67806 19.2362 17.8865
500 2 2.2208 8.18277 17.9608 19.3603
501 1 -1.1104 9.46951 13.8086 15.1336
503 1 -1.1104 9.58112 19.3028 15.1073
505 2 2.2208 8.08864 15.1778 16.5524
506 2 2.2208 8.08247 20.5564 16.5481
507 1 -1.1104 9.57159 16.4118 17.8671
508 1 -1.1104 9.56843 16.5865 15.1061
504 1 -1.1104 9.59947 19.2646 20.8503
470 1 -1.1104 6.73957 16.5805 20.7181
460 1 -1.1104 6.67531 13.7489 20.6462
502 1 -1.1104 9.59623 13.6493 20.6292
509 1 -1.1104 9.41719 16.5348 20.7059
497 1 -1.1104 12.4154 16.5 20.6702
577 1 -1.1104 9.49267 13.7179 23.4772
319 1 -1.1104 1.31092 2.27418 20.6404
9411 2 2.2208 -0.271132 -1.71258 24.8427
343 1 -1.1104 4.11283 -0.442897 20.7074
336 1 -1.1104 3.98202 -3.15215 20.6458
669 2 2.2208 -0.131062 3.83286 24.8841
514 2 2.2208 5.43232 1.0297 22.0036
515 1 -1.1104 1.06112 -3.21452 23.474
516 1 -1.1104 1.22913 2.4521 23.3668
519 1 -1.1104 1.24223 -3.20096 26.4213
520 1 -1.1104 1.20891 2.51561 26.2343
523 1 -1.1104 1.1424 -0.24375 23.5838
525 2 2.2208 5.38677 -1.67353 24.9172
526 2 2.2208 5.44892 3.92164 24.8234
527 1 -1.1104 1.13148 -0.309581 26.2974
529 1 -1.1104 3.997 -2.91525 23.4011
530 1 -1.1104 4.06637 2.40078 23.365
531 2 2.2208 2.54751 1.13844 24.8316
532 1 -1.1104 3.92604 -3.00552 26.3463
533 1 -1.1104 3.88281 2.5113 26.2302
534 2 2.2208 2.5188 -1.64655 22.1043
535 2 2.2208 2.70119 3.80607 22.0577
536 1 -1.1104 3.83819 -0.231909 23.4226
537 1 -1.1104 3.92744 -0.364203 26.3316
349 2 2.2208 -0.110593 1.01727 22.0791
672 2 2.2208 13.6052 20.7185 16.5447
8460 2 2.2208 8.33781 -4.58612 24.9616
8569 2 2.2208 2.67793 -4.4657 24.7707
569 2 2.2208 8.21377 -1.79792 27.7454
571 2 2.2208 11.0119 15.0924 24.9627
607 1 -1.1104 6.67103 19.3474 26.2466
365 1 -1.1104 12.4329 -0.244026 20.5828
370 1 -1.1104 9.60857 -3.15614 20.5044
377 1 -1.1104 9.6512 -0.451356 20.6621
8535 2 2.2208 5.38071 -4.63662 16.3294
517 1 -1.1104 6.79853 -3.21601 23.5179
521 1 -1.1104 6.841 -3.00953 26.2628
518 1 -1.1104 6.84354 2.45978 23.3904
528 1 -1.1104 6.8131 -0.385982 26.3485
522 1 -1.1104 6.81499 2.4552 26.167
524 1 -1.1104 6.69647 -0.315642 23.6786
550 2 2.2208 10.9882 1.02043 21.9924
551 1 -1.1104 12.4933 -3.38791 23.4867
552 1 -1.1104 12.3827 2.33961 23.4883
553 1 -1.1104 12.4894 -3.19045 26.3124
554 1 -1.1104 12.3537 2.34243 26.183
555 1 -1.1104 12.446 -0.422937 23.5207
556 2 2.2208 11.0892 -1.70376 24.9221
557 2 2.2208 10.991 3.84606 24.7882
558 1 -1.1104 12.4177 -0.489606 26.3343
559 1 -1.1104 9.6899 -3.04571 23.5731
560 1 -1.1104 9.65012 2.44035 23.3545
561 2 2.2208 8.23426 1.13635 24.9838
562 1 -1.1104 9.61688 -3.13812 26.2647
563 1 -1.1104 9.48125 2.58957 26.2475
564 2 2.2208 8.17554 -1.76676 22.1153
565 2 2.2208 8.2638 3.83092 22.0189
566 1 -1.1104 9.61189 -0.290723 23.5731
567 1 -1.1104 9.6418 -0.262598 26.3214
641 1 -1.1104 6.72566 19.1922 23.4739
604 2 2.2208 2.60416 9.34543 27.8188
679 2 2.2208 -0.29564 6.58059 27.7183
630 2 2.2208 10.952 12.1995 27.8685
419 1 -1.1104 3.76535 10.8912 20.7011
417 1 -1.1104 3.95556 5.29805 20.7735
680 2 2.2208 -0.27104 12.2512 22.1399
682 2 2.2208 -0.208218 9.37626 24.92
579 2 2.2208 5.33543 6.6828 22.096
580 2 2.2208 5.27408 12.2605 22.1138
581 1 -1.1104 1.02666 7.91348 23.577
583 1 -1.1104 1.2177 8.02798 26.348
585 1 -1.1104 1.225 5.34395 23.3934
586 1 -1.1104 1.22113 10.7283 23.4974
589 2 2.2208 5.30061 9.4562 24.9705
590 1 -1.1104 1.30987 5.27887 26.4976
591 1 -1.1104 0.99045 10.8784 26.1672
594 1 -1.1104 3.80068 8.03869 23.5158
595 2 2.2208 2.62411 6.58723 24.8505
596 2 2.2208 2.50797 12.21 24.8943
597 1 -1.1104 4.0409 8.10348 26.3867
598 2 2.2208 2.57255 9.43062 22.1474
599 1 -1.1104 3.97417 5.35909 23.5628
600 1 -1.1104 4.06605 10.8623 23.5926
601 1 -1.1104 3.91 5.44609 26.3243
602 1 -1.1104 3.92294 10.9179 26.2472
686 2 2.2208 -0.0889687 6.57384 21.9001
545 2 2.2208 5.38848 17.9521 27.7205
608 1 -1.1104 9.65077 13.7723 26.3209
547 1 -1.1104 12.4069 13.8093 26.3199
407 1 -1.1104 6.60277 10.871 20.7549
582 1 -1.1104 6.63463 8.13924 23.4394
587 1 -1.1104 6.91896 5.2638 23.5079
584 1 -1.1104 6.84699 8.09666 26.2383
592 1 -1.1104 6.652 5.23053 26.3022
593 1 -1.1104 6.79258 10.9259 26.3386
588 1 -1.1104 6.98651 10.7623 23.5058
610 1 -1.1104 9.49329 11.0415 26.2967
611 1 -1.1104 9.55223 5.25599 26.3301
612 1 -1.1104 9.71515 11.0027 23.6058
613 1 -1.1104 9.56675 5.20578 23.5283
614 2 2.2208 8.19494 9.47113 22.1664
615 1 -1.1104 9.5847 8.11243 26.1423
616 2 2.2208 8.12445 12.3792 24.9145
617 2 2.2208 8.20935 6.72055 24.801
618 2 2.2208 10.9933 6.61704 22.0658
619 2 2.2208 10.9859 12.333 22.2741
620 1 -1.1104 12.3846 7.99787 23.4806
621 1 -1.1104 12.339 8.02845 26.3566
622 1 -1.1104 12.3892 5.22912 23.4684
623 1 -1.1104 12.4245 10.8318 23.4497
624 2 2.2208 10.9647 9.45218 24.8444
625 1 -1.1104 12.3643 5.30318 26.2077
626 1 -1.1104 12.3622 10.8342 26.294
627 1 -1.1104 9.65238 8.03052 23.4419
631 2 2.2208 8.16557 15.1312 22.0175
683 2 2.2208 -0.386887 12.094 27.7191
477 1 -1.1104 3.88392 19.226 20.7768
475 1 -1.1104 3.80633 13.8226 20.8976
456 1 -1.1104 1.0141 13.6631 20.769
650 2 2.2208 -0.297047 17.7334 22.0175
660 2 2.2208 -0.300231 14.9262 24.9238
645 1 -1.1104 1.04028 19.0362 23.5241
643 2 2.2208 5.30014 14.9912 24.9115
383 1 -1.1104 3.85606 19.2353 26.3888
382 2 2.2208 2.51464 17.8646 24.9631
381 1 -1.1104 4.08529 16.4993 26.3238
379 1 -1.1104 3.78168 13.6907 26.2784
634 1 -1.1104 4.00765 19.1063 23.6287
574 2 2.2208 2.54286 20.5187 22.2334
639 1 -1.1104 1.09796 16.4337 26.3073
346 1 -1.1104 1.12138 16.4574 23.408
642 2 2.2208 5.3131 20.6391 24.9082
573 2 2.2208 2.42129 15.0375 22.1838
638 1 -1.1104 1.13459 19.2687 26.2206
640 1 -1.1104 1.0931 13.6259 26.3339
647 2 2.2208 5.34807 17.8379 22.1174
646 1 -1.1104 1.11631 13.591 23.506
636 1 -1.1104 4.02034 13.6298 23.5354
345 1 -1.1104 3.88706 16.4231 23.5276
648 2 2.2208 -0.426284 20.6678 24.9335
483 2 2.2208 2.57073 17.9535 13.6395
538 2 2.2208 5.30998 1.02504 27.6608
633 1 -1.1104 9.50509 16.5582 23.4446
543 1 -1.1104 9.49179 16.5697 26.2984
546 1 -1.1104 12.2666 19.3451 23.636
490 1 -1.1104 12.448 13.8554 20.6639
542 1 -1.1104 12.3532 13.7085 23.5364
576 1 -1.1104 12.4084 16.5953 26.1722
578 1 -1.1104 9.64589 19.2733 23.6225
609 1 -1.1104 9.52082 19.3655 26.3674
606 2 2.2208 8.22679 17.8825 24.9181
632 2 2.2208 8.12472 20.6009 22.2717
513 2 2.2208 8.04702 20.7559 27.729
635 1 -1.1104 6.74288 13.6772 26.348
17729 2 2.2208 -0.153373 -4.58086 27.7584
657 2 2.2208 13.8914 17.8188 13.583
572 2 2.2208 2.53059 20.6481 27.7053
568 2 2.2208 10.985 0.976881 27.661
384 2 2.2208 8.09464 1.10684 13.5705
352 2 2.2208 2.59594 0.993644 13.6841
353 2 2.2208 5.36387 3.85489 13.6374
484 2 2.2208 5.27977 20.845 13.6588
447 2 2.2208 8.13712 6.61058 13.4984
9410 2 2.2208 -0.305512 0.982745 27.6541
351 2 2.2208 5.31033 -1.7125 13.5977
512 2 2.2208 8.04794 17.8545 13.6285
540 2 2.2208 2.60851 3.83433 27.768
485 2 2.2208 5.28912 15.0977 13.6212
603 2 2.2208 5.35398 6.59432 27.7789
449 2 2.2208 8.20988 12.2549 13.6963
421 2 2.2208 5.37913 9.50315 13.6192
687 2 2.2208 5.15896 23.5782 5.09271
688 2 2.2208 5.49576 29.1049 5.22652
689 1 -1.1104 1.19352 24.9138 1.22988
690 1 -1.1104 1.03981 24.8979 4.01582
691 1 -1.1104 1.13939 22.0264 0.952169
692 1 -1.1104 1.0598 27.7537 0.975402
693 2 2.2208 5.13669 26.2476 2.44834
694 1 -1.1104 0.963927 22.1129 3.75485
695 1 -1.1104 0.98394 27.7166 3.80544
696 1 -1.1104 3.91522 24.9871 0.891925
697 2 2.2208 2.45763 23.5307 2.45301
698 2 2.2208 2.46543 29.2855 2.42194
699 1 -1.1104 3.77047 24.9252 3.7693
700 2 2.2208 2.45926 26.4428 5.16321
701 1 -1.1104 4.02357 22.2188 1.1893
702 1 -1.1104 3.7493 27.7475 0.944023
703 1 -1.1104 3.63985 22.1423 3.92521
704 1 -1.1104 3.74552 27.722 3.74548
828 1 -1.1104 1.20124 24.9725 6.73533
9709 2 2.2208 -0.311869 23.5654 5.16794
1389 1 -1.1104 9.44684 47.4881 1.11947
1341 1 -1.1104 6.61295 47.3868 3.94524
830 1 -1.1104 1.14794 22.1174 6.62998
836 1 -1.1104 3.95128 27.7348 6.5508
9714 2 2.2208 -0.302807 34.7597 5.23016
984 2 2.2208 -0.327002 26.2291 2.52682
708 1 -1.1104 6.70258 24.9067 0.861814
709 1 -1.1104 6.46016 24.8196 3.72165
711 1 -1.1104 6.66991 27.6288 0.958677
712 1 -1.1104 6.53916 22.1012 3.7895
710 1 -1.1104 6.712 22.0895 0.930959
713 1 -1.1104 6.69712 27.6404 3.77224
714 2 2.2208 10.7459 23.4516 5.00308
715 2 2.2208 10.8069 29.0097 5.20442
716 1 -1.1104 12.3921 24.9063 0.811721
717 1 -1.1104 12.2381 24.8466 3.7249
718 1 -1.1104 12.4416 22.1161 0.904738
719 1 -1.1104 12.4536 27.8498 1.08778
720 2 2.2208 10.9599 26.2784 2.35356
721 1 -1.1104 12.2628 22.1033 3.76588
722 1 -1.1104 12.4479 27.6854 3.88756
723 1 -1.1104 9.50442 24.9184 1.05636
724 2 2.2208 8.05257 23.6156 2.14026
725 2 2.2208 8.11168 29.003 2.32657
726 1 -1.1104 9.27365 25.0478 3.76636
727 2 2.2208 8.03122 26.2543 5.21099
728 1 -1.1104 9.51053 22.1839 0.987001
729 1 -1.1104 9.6671 27.5686 0.865087
730 1 -1.1104 9.35092 22.206 3.70964
731 1 -1.1104 9.57303 27.7123 3.73124
864 1 -1.1104 9.31474 24.8602 6.50044
866 1 -1.1104 9.6642 27.6614 6.53777
862 1 -1.1104 12.3845 22.0094 6.48002
829 1 -1.1104 6.61897 24.9685 6.50074
863 1 -1.1104 12.3617 27.6379 6.69174
1562 1 -1.1104 12.2575 47.2771 6.73325
9727 2 2.2208 -0.285013 31.9629 2.33079
9729 2 2.2208 13.7523 29.2415 7.26479
735 2 2.2208 5.3257 34.7866 5.19992
736 1 -1.1104 1.19655 30.5543 0.963218
737 1 -1.1104 0.980743 35.9756 1.06034
739 1 -1.1104 1.16654 30.6853 3.7518
740 1 -1.1104 1.37091 36.1788 3.80728
742 1 -1.1104 1.05159 33.1577 0.943944
743 2 2.2208 5.31956 31.8867 2.46563
744 2 2.2208 5.2902 37.5867 2.38585
745 1 -1.1104 1.0864 33.3429 3.78232
747 1 -1.1104 3.99327 30.3774 1.1892
748 1 -1.1104 3.82515 36.0638 1.04964
749 2 2.2208 2.37144 34.6921 2.42753
750 1 -1.1104 3.96376 30.6455 3.9494
751 1 -1.1104 4.11493 36.2019 3.87992
752 2 2.2208 2.46508 31.9845 5.16427
753 2 2.2208 2.55066 37.6092 5.33333
754 1 -1.1104 3.78556 33.2394 1.05593
755 1 -1.1104 3.87716 33.2733 3.78189
888 1 -1.1104 3.92987 36.1124 6.61608
1334 1 -1.1104 0.993614 47.4603 1.18136
738 1 -1.1104 6.62189 36.0673 1.05566
9722 2 2.2208 -0.202495 40.2746 5.30347
885 1 -1.1104 0.992817 33.2142 6.50327
882 1 -1.1104 1.18237 36.1254 6.53102
9715 3 0 13.3972 31.3585 10.9945
1290 2 2.2208 5.23233 45.9656 -0.305238
765 1 -1.1104 12.8448 29.9679 4.97931
741 1 -1.1104 6.88046 36.0092 3.814
759 1 -1.1104 6.81085 30.3557 1.0095
760 1 -1.1104 6.81764 30.5635 3.86563
746 1 -1.1104 6.85029 33.2274 3.87714
761 1 -1.1104 6.49195 33.2782 1.05004
762 2 2.2208 10.9221 34.7237 5.26374
763 1 -1.1104 12.3922 30.6762 1.33753
764 1 -1.1104 12.1377 36.1794 1.01472
766 1 -1.1104 12.2828 36.0897 3.79618
767 1 -1.1104 12.2055 33.5113 0.964151