ITEM: TIMESTEP
100000
ITEM: NUMBER OF ATOMS
17700
ITEM: BOX BOUNDS pp pp pp
-3.9662921058407719e-01 2.7736629210584301e+01
-4.7963241804173178e+00 3.3287632418040687e+02
-4.0322471066452714e-01 2.7743224710663764e+01
ITEM: ATOMS id type q x y z
1 2 2.2208 5.68278 0.897524 5.35787
2 1 -1.1104 1.25628 -3.43704 1.21429
6 1 -1.1104 1.46014 -3.43507 3.96286
10 1 -1.1104 1.47545 -0.591614 1.48187
12 2 2.2208 5.7282 -1.88095 2.54333
14 1 -1.1104 1.51635 -0.614522 4.08101
16 1 -1.1104 4.44699 -3.36507 0.957437
18 2 2.2208 2.98347 0.907439 2.62964
19 1 -1.1104 4.19437 -3.22793 3.94172
21 2 2.2208 2.64643 -1.96225 5.41475
23 1 -1.1104 4.17648 -0.580882 1.38178
24 1 -1.1104 4.36874 -0.436163 4.18629
3 1 -1.1104 1.50693 2.20959 1.22345
7 1 -1.1104 1.47209 2.12461 4.06807
13 2 2.2208 5.75672 3.67992 2.44435
17 1 -1.1104 4.32672 2.1801 1.02729
20 1 -1.1104 4.47626 2.2837 3.94891
386 2 2.2208 0.064181 0.857268 -0.06124
382 2 2.2208 2.97173 -1.93651 -0.133715
27 2 2.2208 0.0669924 3.73899 2.65246
26 2 2.2208 0.012818 0.906362 5.40468
324 2 2.2208 11.2884 20.4891 8.04752
25 2 2.2208 0.178702 -2.10865 2.69395
329 1 -1.1104 12.7403 19.2469 12.2291
22 2 2.2208 2.92541 3.7168 5.32774
320 2 2.2208 8.54003 17.7176 8.18194
381 2 2.2208 5.70175 0.916322 -0.342999
172 1 -1.1104 4.20593 -3.44105 6.67982
319 1 -1.1104 10.0155 13.6218 9.76553
8 1 -1.1104 7.14992 -3.34463 3.94619
389 2 2.2208 8.63252 3.7298 -0.200822
11 1 -1.1104 6.89488 -0.468518 1.06524
388 2 2.2208 8.40083 -2.01509 -0.539378
4 1 -1.1104 7.22945 -3.40801 1.0326
5 1 -1.1104 7.00977 2.46547 1.08241
9 1 -1.1104 7.21277 2.18725 3.79383
15 1 -1.1104 6.96864 -0.455094 4.04444
31 2 2.2208 11.4671 0.892011 5.4443
32 1 -1.1104 12.8029 -3.2961 1.15933
34 1 -1.1104 12.6667 -3.39951 3.91605
36 1 -1.1104 12.8214 -0.505462 1.26546
37 2 2.2208 11.1241 -1.97836 2.51262
39 1 -1.1104 12.888 -0.468553 4.1166
40 1 -1.1104 9.88842 -3.16952 1.01213
42 2 2.2208 8.47037 0.870267 2.59713
43 1 -1.1104 10.0378 -3.26695 3.91211
45 2 2.2208 8.47577 -1.87573 5.53764
47 1 -1.1104 9.89959 -0.562754 1.29411
48 1 -1.1104 9.90894 -0.547394 4.17756
33 1 -1.1104 12.7321 2.42828 0.862095
35 1 -1.1104 12.6811 2.35103 3.90679
41 1 -1.1104 9.88345 2.04619 1.09268
44 1 -1.1104 9.99532 2.22376 3.91779
46 2 2.2208 8.49504 3.5484 5.12876
38 2 2.2208 11.4004 3.69948 2.47234
347 2 2.2208 3.01193 -4.77777 13.9827
169 1 -1.1104 7.10547 2.20867 6.75701
210 1 -1.1104 9.89339 -0.666174 6.9082
205 1 -1.1104 12.7035 -3.5462 6.76098
387 2 2.2208 11.1724 0.815976 -0.206424
82 2 2.2208 -0.137281 9.09374 2.5053
395 2 2.2208 5.65198 12.139 -0.228856
396 2 2.2208 -0.0891135 12.176 -0.433067
54 2 2.2208 5.70331 6.48964 5.4361
56 1 -1.1104 1.35879 7.50104 1.1727
58 1 -1.1104 1.59752 7.91967 4.03977
60 1 -1.1104 1.32848 4.92604 1.17868
67 1 -1.1104 1.44521 4.95422 3.9975
71 1 -1.1104 4.36036 7.92011 1.14616
72 2 2.2208 2.85041 6.53337 2.54895
74 1 -1.1104 4.30808 7.90537 4.10499
76 1 -1.1104 4.27427 5.05666 1.18689
79 1 -1.1104 4.25673 5.15752 3.95205
55 2 2.2208 5.62184 12.2152 5.51511
61 1 -1.1104 1.56891 10.348 1.29098
66 2 2.2208 5.77717 9.3154 2.60815
68 1 -1.1104 1.11524 10.7706 4.07203
73 2 2.2208 2.66562 12.0806 2.62501
75 2 2.2208 2.7965 9.30608 5.34903
77 1 -1.1104 4.37508 10.621 1.20476
80 1 -1.1104 4.09183 10.8415 4.01468
393 2 2.2208 5.7258 6.47576 -0.0955922
83 2 2.2208 -0.0348546 12.1353 5.35764
81 2 2.2208 0.010136 6.54626 5.55202
394 2 2.2208 2.74614 9.16711 -0.292411
403 2 2.2208 2.66069 14.8499 -0.277479
398 2 2.2208 11.176 6.51799 -0.36072
69 1 -1.1104 7.04616 4.99883 4.05123
59 1 -1.1104 6.97934 7.86763 4.02972
63 1 -1.1104 7.2724 5.1294 1.16755
57 1 -1.1104 7.04471 7.82554 1.10311
70 1 -1.1104 7.00503 10.6755 4.00355
64 1 -1.1104 7.22308 10.8039 1.20703
84 2 2.2208 11.1682 6.37285 5.26603
86 1 -1.1104 12.4902 8.09122 1.06772
87 1 -1.1104 12.5035 7.84294 3.91119
88 1 -1.1104 12.7957 5.27376 1.05988
92 1 -1.1104 12.5903 5.00679 3.91133
94 1 -1.1104 9.65951 7.67251 1.08037
95 2 2.2208 8.5017 6.50371 2.5193
97 1 -1.1104 9.85317 7.80761 3.77577
99 1 -1.1104 10.0256 4.89722 1.01368
102 1 -1.1104 9.85126 4.91645 3.78996
85 2 2.2208 11.2991 12.006 5.40552
89 1 -1.1104 12.6905 10.8204 0.991742
91 2 2.2208 11.1235 9.24497 2.45487
93 1 -1.1104 12.5744 10.6278 3.88677
96 2 2.2208 8.48285 12.1186 2.69153
98 2 2.2208 8.46866 9.31212 5.54114
100 1 -1.1104 9.80094 10.7478 1.22833
103 1 -1.1104 9.78131 10.736 4.01395
397 2 2.2208 -0.146855 6.33408 -0.192721
400 2 2.2208 11.2423 12.2541 -0.148774
401 2 2.2208 -0.0713375 17.7539 -0.261472
405 2 2.2208 2.62012 20.5165 -0.193025
136 2 2.2208 -0.0834546 20.4212 2.6123
404 2 2.2208 5.51561 17.7401 -0.0420003
399 2 2.2208 8.39046 9.22392 -0.282368
107 1 -1.1104 1.05224 13.3608 1.21477
113 1 -1.1104 1.16768 13.5406 3.96305
123 1 -1.1104 4.04629 13.3739 1.00436
128 1 -1.1104 3.92123 13.6391 3.81633
119 2 2.2208 5.57395 14.8809 2.63469
130 2 2.2208 2.85615 14.8596 5.317
106 2 2.2208 5.74402 17.6223 5.4612
109 1 -1.1104 1.2522 19.0079 1.22767
114 1 -1.1104 1.40787 19.2124 4.04861
116 1 -1.1104 1.23891 16.2066 1.20344
120 2 2.2208 5.50351 20.3738 2.63209
121 1 -1.1104 1.53285 16.3916 4.2176
125 1 -1.1104 3.78066 19.1011 1.27482
127 2 2.2208 2.74626 17.7114 2.73269
129 1 -1.1104 4.25137 19.0469 4.30166
131 2 2.2208 2.76466 20.4282 5.43597
132 1 -1.1104 4.15608 16.3416 1.41893
134 1 -1.1104 4.38771 16.3229 4.01195
135 2 2.2208 -0.18729 14.782 2.57194
137 2 2.2208 0.0144455 17.7545 5.44548
378 2 2.2208 11.2367 17.7567 -0.172457
110 1 -1.1104 6.82418 13.7054 1.19794
138 1 -1.1104 6.80083 19.056 1.20286
115 1 -1.1104 6.85151 13.6691 4.01283
122 1 -1.1104 7.27633 16.1633 4.00323
140 1 -1.1104 7.0615 16.3971 1.24274
139 1 -1.1104 6.94063 18.9523 3.96082
142 1 -1.1104 12.5828 13.5938 1.21069
146 1 -1.1104 12.5547 13.4186 4.1406
153 1 -1.1104 9.88337 13.5095 1.2325
158 1 -1.1104 9.69446 13.6317 4.14776
150 2 2.2208 11.2601 14.8876 2.68551
160 2 2.2208 8.52447 14.8149 5.49966
141 2 2.2208 11.2961 17.7311 5.39762
144 1 -1.1104 12.6879 19.1089 1.006
147 1 -1.1104 12.6061 19.188 3.91561
148 1 -1.1104 12.5557 16.3905 1.41126
151 2 2.2208 11.3412 20.4139 2.51192
152 1 -1.1104 12.6712 16.2454 3.94776
155 1 -1.1104 9.83363 19.2789 1.2311
157 2 2.2208 8.47025 17.6386 2.63633
159 1 -1.1104 9.87734 19.0282 3.9356
161 2 2.2208 8.55351 20.5967 5.41722
162 1 -1.1104 9.85234 16.4301 1.16963
164 1 -1.1104 9.85215 16.2729 4.01373
377 2 2.2208 8.35197 14.9518 -0.139761
379 2 2.2208 8.46712 20.5149 -0.223886
167 1 -1.1104 1.36448 2.13606 6.86914
199 2 2.2208 0.0753551 3.65526 8.23517
200 2 2.2208 0.083342 -1.9843 8.24042
174 1 -1.1104 3.91781 -0.486573 6.90458
170 1 -1.1104 1.23516 -0.789214 6.85471
173 1 -1.1104 4.40246 2.09247 6.88038
166 1 -1.1104 1.17837 -3.35525 6.79227
175 2 2.2208 5.46207 0.882526 10.9425
176 1 -1.1104 1.49018 -3.38438 12.4502
180 1 -1.1104 1.60548 -3.46204 9.6629
184 1 -1.1104 1.41034 -0.482605 12.4028
186 2 2.2208 5.65572 -1.88915 8.13006
188 1 -1.1104 1.59407 -0.574155 9.63767
190 1 -1.1104 4.4253 -3.5585 12.6225
192 2 2.2208 2.68715 0.854281 8.2312
193 1 -1.1104 4.37566 -3.2583 9.61198
195 2 2.2208 2.93645 -2.0926 10.9666
197 1 -1.1104 4.23318 -0.628437 12.4623
198 1 -1.1104 4.23503 -0.495698 9.56733
177 1 -1.1104 1.44489 2.18672 12.5219
181 1 -1.1104 1.45653 2.38962 9.66961
191 1 -1.1104 4.31562 2.40237 12.5214
194 1 -1.1104 4.1801 2.44272 9.64026
187 2 2.2208 5.54957 3.67944 8.12145
201 2 2.2208 -0.000203012 0.799222 10.9213
196 2 2.2208 2.77123 3.68948 11.1847
182 1 -1.1104 7.05389 -3.32767 9.53362
171 1 -1.1104 6.9461 -0.56448 6.74136
206 1 -1.1104 12.5501 2.27275 6.79044
168 1 -1.1104 7.03276 -3.34856 6.69213
189 1 -1.1104 7.09909 -0.432745 9.48385
183 1 -1.1104 7.08035 2.50261 9.60672
178 1 -1.1104 7.23105 -3.26314 12.4333
179 1 -1.1104 7.23858 2.36083 12.5374
185 1 -1.1104 7.24073 -0.418642 12.204
208 1 -1.1104 9.72148 -3.47955 6.63661
209 1 -1.1104 9.7329 2.131 6.71461
207 1 -1.1104 12.7887 -0.797784 6.8637
211 2 2.2208 11.3538 0.817174 10.7906
212 1 -1.1104 12.6328 -3.37738 12.3881
214 1 -1.1104 12.8888 -3.41946 9.49543
216 1 -1.1104 12.6809 -0.54453 12.5989
217 2 2.2208 11.2946 -2.14561 8.14203
219 1 -1.1104 12.7381 -0.719977 9.80006
220 1 -1.1104 9.88801 -3.32095 12.3737
222 2 2.2208 8.40066 0.939379 8.14511
223 1 -1.1104 9.91824 -3.42751 9.40698
225 2 2.2208 8.51486 -1.98936 10.8739
227 1 -1.1104 9.79555 -0.591119 12.0673
228 1 -1.1104 9.92825 -0.506991 9.40327
213 1 -1.1104 12.646 2.42903 12.3081
215 1 -1.1104 12.8677 2.1612 9.70462
221 1 -1.1104 9.84392 2.27926 12.461
224 1 -1.1104 10.1578 2.23562 9.58517
226 2 2.2208 8.51316 3.75609 10.9916
218 2 2.2208 11.2958 3.68812 8.22888
62 1 -1.1104 1.39512 10.8625 6.9327
343 2 2.2208 -0.0697635 9.33805 8.26859
78 1 -1.1104 4.33757 10.6966 6.87073
236 1 -1.1104 1.39802 5.12176 6.81794
344 2 2.2208 0.0197644 6.57978 11.1217
342 2 2.2208 0.0050125 12.026 10.9964
234 1 -1.1104 1.33431 8.04629 6.76848
238 1 -1.1104 4.20152 7.83244 6.80297
239 1 -1.1104 4.23927 5.10269 6.76048
240 2 2.2208 5.62023 6.4159 11.1392
242 1 -1.1104 1.4264 7.89397 12.312
244 1 -1.1104 1.46823 8.08485 9.40122
246 1 -1.1104 1.26721 5.13137 12.5976
251 1 -1.1104 1.45583 5.04295 9.66455
255 1 -1.1104 4.29581 7.98312 12.5155
256 2 2.2208 2.74454 6.66447 8.34711
258 1 -1.1104 4.30244 7.96651 9.73533
260 1 -1.1104 4.30607 5.24933 12.6779
262 1 -1.1104 4.0512 5.36124 9.87149
241 2 2.2208 5.81653 12.1746 10.9667
247 1 -1.1104 1.50186 10.7948 12.3659
250 2 2.2208 5.63174 9.34257 8.31308
252 1 -1.1104 1.52849 10.7696 9.65833
257 2 2.2208 2.87537 12.1027 8.19662
259 2 2.2208 2.92881 9.35494 11.0646
261 1 -1.1104 4.22718 10.7059 12.4123
263 1 -1.1104 4.33366 10.8768 9.63044
101 1 -1.1104 9.82937 10.6493 6.8032
237 1 -1.1104 7.04623 4.96066 6.71443
235 1 -1.1104 6.94279 7.82997 6.80639
267 1 -1.1104 9.87884 7.79206 6.82808
269 1 -1.1104 9.91235 4.75357 6.59677
253 1 -1.1104 6.67693 5.34653 9.49794
248 1 -1.1104 7.19628 5.0854 12.2386
245 1 -1.1104 7.1132 7.95578 9.60613
65 1 -1.1104 7.04906 10.7346 6.72489
90 1 -1.1104 12.6506 10.5579 6.66265
265 1 -1.1104 12.5647 7.86179 6.80614
266 1 -1.1104 12.7295 5.21947 6.8725
254 1 -1.1104 6.96586 10.7787 9.5313
243 1 -1.1104 7.09945 7.9769 12.4429
249 1 -1.1104 7.13512 10.6561 12.2679
268 1 -1.1104 9.73878 4.94973 9.46454
271 1 -1.1104 9.91409 5.06435 12.384
273 1 -1.1104 9.85822 7.86949 9.60217
275 2 2.2208 8.39991 6.49034 8.38859
276 2 2.2208 11.2561 6.43373 11.1634
278 1 -1.1104 12.6386 7.81766 12.4391
279 1 -1.1104 12.691 7.87539 9.69228
280 1 -1.1104 12.7503 5.00464 12.4815
283 1 -1.1104 12.4793 5.24134 9.60439
285 1 -1.1104 9.90477 7.81464 12.4426
264 1 -1.1104 9.84983 10.7728 9.52401
270 1 -1.1104 9.9717 10.7678 12.4321
272 2 2.2208 8.4902 9.34823 10.9334
274 2 2.2208 8.46915 12.1323 8.14426
277 2 2.2208 11.368 12.1386 11.0697
281 1 -1.1104 12.8177 10.5933 12.4781
282 2 2.2208 11.1878 9.24732 8.20652
284 1 -1.1104 12.7694 10.6474 9.75657
312 2 2.2208 0.098145 17.5505 10.9832
313 2 2.2208 0.00580491 14.931 8.15935
311 2 2.2208 0.0139732 20.6596 8.31818
302 1 -1.1104 1.34737 19.2352 6.98831
126 1 -1.1104 4.29569 19.0459 6.90458
133 1 -1.1104 4.15696 16.3111 6.79632
108 1 -1.1104 1.40152 13.4282 6.78461
117 1 -1.1104 1.33122 16.3892 6.88587
124 1 -1.1104 4.25912 13.4252 6.68906
305 1 -1.1104 4.64843 13.6229 9.75076
299 1 -1.1104 1.55107 13.5644 12.4598
294 1 -1.1104 1.51821 13.5045 9.69831
287 1 -1.1104 4.40871 13.469 12.5763
310 2 2.2208 2.90829 14.8965 11.2132
295 2 2.2208 5.6865 15.036 8.28614
309 2 2.2208 2.98477 20.4353 11.1461
308 1 -1.1104 4.51292 16.2358 12.4332
307 1 -1.1104 1.54779 16.2776 12.6462
286 1 -1.1104 4.37442 18.9319 12.3871
304 1 -1.1104 4.34092 16.4286 9.54256
303 2 2.2208 2.84241 17.7481 8.27808
301 1 -1.1104 4.15678 18.9347 9.68018
300 2 2.2208 5.74005 17.7115 10.8633
298 1 -1.1104 1.64286 19.0414 12.6083
293 2 2.2208 5.68501 20.5532 8.2277
292 1 -1.1104 1.52514 16.222 9.66501
291 1 -1.1104 1.50257 19.1227 9.56036
327 1 -1.1104 12.7634 19.1084 9.55713
331 2 2.2208 11.3309 17.7289 10.8675
111 1 -1.1104 7.01301 13.5861 6.76994
318 1 -1.1104 10.0799 19.0802 9.5083
149 1 -1.1104 12.5616 16.206 6.67217
322 1 -1.1104 9.92498 13.5336 12.4559
314 1 -1.1104 9.97581 16.4314 9.54104
317 2 2.2208 8.57981 15.0046 11.0852
315 1 -1.1104 10.0691 16.3324 12.4182
325 2 2.2208 11.3888 14.8594 8.13253
323 1 -1.1104 12.6105 16.0935 9.62592
321 1 -1.1104 9.90147 19.3974 12.5378
112 1 -1.1104 7.16803 19.1153 6.706
118 1 -1.1104 7.19205 16.2628 6.82177
145 1 -1.1104 12.6803 18.9657 6.79428
330 1 -1.1104 12.7854 13.3207 12.4264
306 1 -1.1104 7.26286 16.4443 12.3026
326 1 -1.1104 12.8424 16.3143 12.2203
328 1 -1.1104 12.7514 13.4455 9.62552
289 1 -1.1104 7.22373 16.3567 9.57145
154 1 -1.1104 9.94677 13.3404 6.80185
296 1 -1.1104 7.09773 19.3293 12.4735
297 1 -1.1104 7.10728 13.4614 12.3204
288 1 -1.1104 7.12308 19.1778 9.49696
290 1 -1.1104 7.22509 13.8491 9.4578
143 1 -1.1104 12.8264 13.4202 6.8165
316 2 2.2208 8.63929 20.5526 11.0739
163 1 -1.1104 9.97345 16.1545 6.74762
156 1 -1.1104 10.0426 19.1782 6.76285
383 2 2.2208 2.90149 3.53376 -0.233138
28 2 2.2208 2.73631 -4.9111 2.65631
203 2 2.2208 5.59471 -4.83749 11.0025
355 2 2.2208 8.38178 0.807244 13.8078
406 2 2.2208 5.62752 0.828872 16.7464
407 1 -1.1104 1.41593 -3.39584 18.0915
411 1 -1.1104 1.49096 -3.47825 15.3179
419 1 -1.1104 1.47831 -0.765634 18.1476
421 2 2.2208 5.79748 -2.1258 19.4682
423 1 -1.1104 1.46218 -0.57334 15.3078
427 1 -1.1104 4.39627 -3.37102 18.2048
429 2 2.2208 2.60804 0.75339 19.5563
430 1 -1.1104 4.20729 -3.36897 15.2866
434 2 2.2208 2.85295 -2.01743 16.7627
436 1 -1.1104 4.30504 -0.413173 18.1321
437 1 -1.1104 4.14161 -0.434095 15.2926
408 1 -1.1104 1.41713 2.24232 18.0479
413 1 -1.1104 1.34774 2.32243 15.2509
428 1 -1.1104 4.13559 2.35033 17.9835
432 1 -1.1104 4.40889 2.22631 15.087
422 2 2.2208 5.65466 3.41333 19.4826
435 2 2.2208 2.90412 3.64768 16.4532
352 2 2.2208 5.72835 3.63357 13.8146
367 2 2.2208 -0.0555984 3.52076 13.905
443 2 2.2208 0.196119 -2.12181 19.6383
349 2 2.2208 2.83799 0.863939 13.9196
442 2 2.2208 0.0196553 0.678835 16.8397
544 2 2.2208 -0.0393627 3.61022 19.5961
348 2 2.2208 5.70529 -1.97912 13.8611
412 1 -1.1104 1.52952 -3.45053 20.9565
414 1 -1.1104 1.40384 2.19843 20.8602
730 1 -1.1104 7.05474 13.5661 26.5365
346 2 2.2208 0.129646 -1.97596 13.8432
410 1 -1.1104 6.98604 2.12326 18.135
420 1 -1.1104 6.9656 -0.551154 18.0912
415 1 -1.1104 6.9913 -3.28592 15.2227
409 1 -1.1104 7.21796 -3.46227 18.0125
417 1 -1.1104 7.13436 2.13775 15.2808
425 1 -1.1104 7.02257 -0.533198 15.2936
449 2 2.2208 11.2448 0.819442 16.5866
450 1 -1.1104 12.8179 -3.37875 17.8855
452 1 -1.1104 12.5192 -3.34379 15.1659
456 1 -1.1104 12.6704 -0.653138 18.0753
457 2 2.2208 11.3118 -2.02064 19.2125
459 1 -1.1104 12.5845 -0.539636 15.172
461 1 -1.1104 9.96928 -3.47371 17.8577
463 2 2.2208 8.53724 0.551165 19.4326
464 1 -1.1104 9.76059 -3.36728 15.1462
468 2 2.2208 8.55113 -1.99464 16.4493
470 1 -1.1104 9.93249 -0.684325 17.8586
471 1 -1.1104 9.77529 -0.61853 14.9345
451 1 -1.1104 12.5597 2.14144 18.0722
454 1 -1.1104 12.6512 2.31689 15.0936
458 2 2.2208 11.2821 3.61964 19.3
462 1 -1.1104 9.92655 2.09935 17.9701
466 1 -1.1104 9.94349 2.02369 15.0501
469 2 2.2208 8.53556 3.53024 16.526
640 2 2.2208 2.8252 -4.84235 25.266
736 1 -1.1104 7.06497 19.1248 23.4645
641 2 2.2208 11.2083 20.5468 24.953
356 2 2.2208 11.211 -2.00704 13.6788
460 1 -1.1104 12.6581 -0.526494 20.7577
467 1 -1.1104 9.83323 2.28123 20.7102
360 2 2.2208 5.64982 9.14294 13.8862
515 2 2.2208 0.146761 9.14662 19.4843
482 2 2.2208 5.70334 6.34828 16.7308
484 1 -1.1104 1.37019 7.78032 17.9559
486 1 -1.1104 1.37473 7.86501 15.2108
490 1 -1.1104 1.37983 5.00857 18.2514
495 1 -1.1104 1.46832 5.22386 15.2735
503 1 -1.1104 4.2618 7.77885 18.0304
504 2 2.2208 2.81962 6.36892 19.514
506 1 -1.1104 4.25295 7.78277 15.2738
509 1 -1.1104 4.33397 4.95433 18.1612
511 1 -1.1104 4.21712 5.05799 15.3412
483 2 2.2208 5.56861 11.9764 16.567
491 1 -1.1104 1.22686 10.7796 18.0253
494 2 2.2208 5.5815 9.35756 19.4135
497 1 -1.1104 1.53194 10.7133 15.2838
505 2 2.2208 2.88441 12.0868 19.455
508 2 2.2208 2.77412 9.26146 16.6999
510 1 -1.1104 4.1388 10.4787 17.8883
513 1 -1.1104 4.34997 10.6793 15.2144
474 2 2.2208 11.2033 -4.76163 16.5237
481 2 2.2208 0.0958894 6.38136 16.68
516 2 2.2208 -0.000545493 12.2041 16.6475
357 2 2.2208 11.2832 3.59166 13.7124
670 1 -1.1104 7.21685 19.331 26.4408
363 2 2.2208 8.37672 6.36357 13.7089
488 1 -1.1104 7.02043 7.79662 15.2455
493 1 -1.1104 7.02584 10.75 17.9675
492 1 -1.1104 6.92145 4.80988 17.9187
501 1 -1.1104 7.22897 10.4945 15.1185
499 1 -1.1104 7.08618 5.10815 15.1331
485 1 -1.1104 7.17294 7.88751 18.0337
518 2 2.2208 11.0958 6.39585 16.4877
520 1 -1.1104 12.6733 7.76155 17.9923
521 1 -1.1104 12.7381 7.77737 15.2687
523 1 -1.1104 12.4866 5.05732 17.9384
526 1 -1.1104 12.6365 5.15054 15.2012
530 1 -1.1104 9.86306 7.82798 18.0497
531 2 2.2208 8.44304 6.336 19.5333
533 1 -1.1104 9.90072 7.87418 15.3239
536 1 -1.1104 9.78353 5.0029 17.9245
538 1 -1.1104 9.80781 4.97314 15.1482
527 1 -1.1104 12.6521 4.9296 20.7668
519 2 2.2208 11.2957 11.8962 16.6583
524 1 -1.1104 12.7143 10.6825 18.0521
525 2 2.2208 11.216 9.17916 19.3989
528 1 -1.1104 12.7718 10.4916 15.1483
532 2 2.2208 8.42004 12.0453 19.3408
535 2 2.2208 8.47767 9.23089 16.7415
537 1 -1.1104 9.92072 10.5143 17.983
540 1 -1.1104 9.97484 10.5868 15.2021
364 2 2.2208 11.2613 9.22809 13.8209
365 2 2.2208 8.5935 12.0826 13.8295
369 2 2.2208 5.7727 20.6046 13.794
476 2 2.2208 -0.0864071 20.4839 19.4513
546 1 -1.1104 1.74123 13.6365 18.2926
550 1 -1.1104 1.28789 13.5182 15.3404
566 1 -1.1104 4.11554 13.4229 18.1817
569 1 -1.1104 4.00276 13.4389 15.3137
573 2 2.2208 2.85351 14.876 16.7984
560 2 2.2208 5.64878 14.9381 19.5928
545 2 2.2208 5.68102 17.7382 16.7105
547 1 -1.1104 1.34417 19.1968 18.161
552 1 -1.1104 1.54932 19.0521 15.4014
558 1 -1.1104 1.47928 16.3581 18.2501
561 2 2.2208 5.60531 20.5341 19.2728
562 1 -1.1104 1.54837 16.2972 15.4267
567 1 -1.1104 4.3485 19.1243 17.9669
568 2 2.2208 2.77063 17.8021 19.5981
571 1 -1.1104 4.2479 19.1791 15.2634
574 2 2.2208 2.8328 20.4802 16.5567
575 1 -1.1104 4.41522 16.3479 18.1235
576 1 -1.1104 4.56877 16.2841 15.4021
368 2 2.2208 2.93972 17.5894 13.9851
447 2 2.2208 -0.0226892 17.563 16.7328
448 2 2.2208 -0.0195396 14.8227 19.5778
371 2 2.2208 5.77563 14.8406 13.8364
350 2 2.2208 0.0070597 20.4572 13.8702
351 2 2.2208 -0.00329944 14.7959 13.9026
373 2 2.2208 11.3539 14.8719 13.8264
372 2 2.2208 11.3582 20.5666 13.9118
549 1 -1.1104 6.99616 19.1736 17.9524
559 1 -1.1104 7.06262 16.2863 17.9644
554 1 -1.1104 7.05453 13.371 15.1479
564 1 -1.1104 7.17159 16.1678 15.1177
556 1 -1.1104 7.01109 19.2145 15.1669
548 1 -1.1104 7.05851 13.6132 18.0891
582 1 -1.1104 12.7379 13.4482 17.8976
584 1 -1.1104 12.6841 13.4435 15.1995
593 1 -1.1104 9.7706 13.4272 18.0126
596 1 -1.1104 9.8108 13.3517 15.2421
589 2 2.2208 11.2446 14.8392 19.3592
600 2 2.2208 8.4221 14.8517 16.6034
581 2 2.2208 11.2707 17.6674 16.6805
583 1 -1.1104 12.6081 19.2389 18.0335
586 1 -1.1104 12.6851 19.1409 15.2015
588 1 -1.1104 12.7773 16.2202 18.1687
590 2 2.2208 11.1602 20.6272 19.4653
591 1 -1.1104 12.6737 16.2776 15.1316
594 1 -1.1104 9.76496 19.1081 18.1335
595 2 2.2208 8.38924 17.7242 19.3597
598 1 -1.1104 9.90979 19.172 15.3268
601 2 2.2208 8.4601 20.5195 16.6075
602 1 -1.1104 9.90223 16.2323 18.0227
603 1 -1.1104 10.0287 16.3938 15.0541
376 2 2.2208 8.60066 17.761 13.9274
732 1 -1.1104 6.88983 16.3485 26.5779
700 2 2.2208 8.36691 20.4796 22.2756
431 1 -1.1104 4.44142 -3.3366 20.9931
644 2 2.2208 0.0425289 3.60111 25.2418
438 1 -1.1104 4.16262 -0.706591 20.8734
433 1 -1.1104 4.29233 2.21446 20.7169
424 1 -1.1104 1.38453 -0.6229 20.9373
609 2 2.2208 5.69866 0.798097 22.1635
610 1 -1.1104 1.34977 -3.30229 23.8505
614 1 -1.1104 1.51674 -3.51137 26.6475
618 1 -1.1104 1.55791 -0.70341 23.8156
620 2 2.2208 5.67497 -1.98709 24.9405
622 1 -1.1104 1.71462 -0.610376 26.6896
624 1 -1.1104 4.25249 -3.43127 23.7603
626 2 2.2208 2.96732 0.803953 25.166
627 1 -1.1104 4.1088 -3.19879 26.4836
629 2 2.2208 2.78005 -2.00212 22.3231
631 1 -1.1104 4.28602 -0.638153 23.7192
632 1 -1.1104 4.46931 -0.540145 26.5951
611 1 -1.1104 1.43558 2.15588 23.9765
615 1 -1.1104 1.44148 2.12185 26.6819
625 1 -1.1104 4.21575 2.1885 23.528
628 1 -1.1104 4.30416 2.2444 26.2779
630 2 2.2208 2.89802 3.57921 22.2485
621 2 2.2208 5.56568 3.75378 25.094
642 2 2.2208 0.0447401 -2.1016 25.2352
643 2 2.2208 0.0368116 0.859511 22.4856
747 1 -1.1104 7.06884 16.3006 23.6307
426 1 -1.1104 7.11149 -0.672423 20.9864
418 1 -1.1104 7.05199 2.10659 20.8554
453 1 -1.1104 12.7547 -3.24641 20.6743
455 1 -1.1104 12.537 2.23191 21.0409
472 1 -1.1104 9.84277 -0.640614 20.8695
416 1 -1.1104 7.23931 -3.64463 20.5935
623 1 -1.1104 7.08598 -0.50658 26.331
616 1 -1.1104 6.95828 -3.23705 26.288
619 1 -1.1104 7.17275 -0.787373 23.7587
613 1 -1.1104 6.92484 2.29579 23.616
612 1 -1.1104 7.14339 -3.51354 23.3472
617 1 -1.1104 7.21291 2.25702 26.4336
465 1 -1.1104 10.1014 -3.38411 20.7437
645 2 2.2208 11.1528 0.796099 22.1771
646 1 -1.1104 12.5199 -3.33002 23.6509
648 1 -1.1104 12.5571 -3.4209 26.4848
650 1 -1.1104 12.6623 -0.669076 23.6963
651 2 2.2208 11.2508 -1.92791 25.0891
653 1 -1.1104 12.5209 -0.576855 26.6274
654 1 -1.1104 9.82179 -3.4089 23.5639
656 2 2.2208 8.37294 0.832473 25.1001
657 1 -1.1104 9.83938 -3.26131 26.311
659 2 2.2208 8.55923 -2.02983 22.2903
661 1 -1.1104 9.75939 -0.477682 23.6539
662 1 -1.1104 9.84887 -0.608144 26.4226
647 1 -1.1104 12.4989 2.09796 23.7944
649 1 -1.1104 12.7959 2.21935 26.369
655 1 -1.1104 9.65609 2.2439 23.5653
658 1 -1.1104 9.85277 2.27476 26.328
660 2 2.2208 8.39231 3.63071 22.1299
652 2 2.2208 11.2315 3.60859 25.061
739 1 -1.1104 7.17257 13.4768 23.7493
487 1 -1.1104 1.52769 7.91348 21.0761
514 1 -1.1104 4.30372 10.6874 20.9138
444 2 2.2208 0.102566 6.44771 22.4869
507 1 -1.1104 4.12882 8.00086 20.7559
702 2 2.2208 0.0134532 9.1777 25.07
512 1 -1.1104 4.31036 5.0079 20.9292
496 1 -1.1104 1.49999 4.78097 20.9603
498 1 -1.1104 1.47826 10.7118 20.8366
674 2 2.2208 5.64639 6.46121 22.2721
676 1 -1.1104 1.43513 7.93467 23.9138
678 1 -1.1104 1.27265 7.72078 26.6586
680 1 -1.1104 1.51491 4.98799 23.7244
685 1 -1.1104 1.34512 4.9875 26.3685
689 1 -1.1104 4.30642 7.95241 23.6095
690 2 2.2208 2.74148 6.4562 25.1573
692 1 -1.1104 4.29317 7.85153 26.5632
694 1 -1.1104 4.22327 5.27112 23.8335
696 1 -1.1104 4.19268 4.8612 26.4452
675 2 2.2208 5.74841 12.056 22.255
681 1 -1.1104 1.40182 10.7339 23.5611
684 2 2.2208 5.5507 9.30708 24.9952
686 1 -1.1104 1.21962 10.6283 26.5112
691 2 2.2208 2.75002 11.9873 25.173
693 2 2.2208 2.8004 9.37427 22.3621
695 1 -1.1104 4.25387 10.8996 23.6853
697 1 -1.1104 3.90329 10.4896 26.3551
703 2 2.2208 -0.0388548 12.0546 22.1471
539 1 -1.1104 9.95937 5.11318 20.6678
489 1 -1.1104 7.0448 7.8868 20.7889
541 1 -1.1104 9.85225 10.6168 20.853
502 1 -1.1104 7.12554 10.6742 20.7051
522 1 -1.1104 12.5318 7.94328 20.8404
500 1 -1.1104 7.0906 5.06715 20.8799
687 1 -1.1104 6.95712 5.01047 26.5478
688 1 -1.1104 6.94862 10.7176 26.5
683 1 -1.1104 6.98707 10.5274 23.7266
677 1 -1.1104 7.01979 7.76374 23.6233
529 1 -1.1104 12.806 10.6899 20.7922
534 1 -1.1104 9.78088 7.97275 20.7956
679 1 -1.1104 7.01623 7.69365 26.5297
682 1 -1.1104 7.11913 4.96871 23.6479
706 1 -1.1104 9.85491 5.09908 26.4718
708 1 -1.1104 9.84182 5.19173 23.6664
710 1 -1.1104 9.79438 7.87815 26.4255
712 2 2.2208 8.40169 6.50382 24.9671
713 2 2.2208 11.3131 6.48302 22.0484
715 1 -1.1104 12.6023 7.85386 23.4492
716 1 -1.1104 12.5771 7.7004 26.3668
717 1 -1.1104 12.585 5.03768 23.8459
720 1 -1.1104 12.7347 4.99765 26.4397
722 1 -1.1104 9.72784 8.13843 23.683
705 1 -1.1104 9.75511 10.6538 26.5627
707 1 -1.1104 10.0209 10.7497 23.8231
709 2 2.2208 8.43806 9.33661 22.21
711 2 2.2208 8.62084 12.1422 25.1438
714 2 2.2208 11.306 12.0553 22.2017
718 1 -1.1104 12.8381 10.6861 23.5019
719 2 2.2208 11.3301 9.21528 25.023
721 1 -1.1104 12.7276 10.7219 26.5639
570 1 -1.1104 4.32648 13.253 20.9882
724 2 2.2208 0.0141274 20.5659 25.0981
563 1 -1.1104 1.6242 16.4724 21.1252
577 1 -1.1104 4.27428 16.223 21.0101
553 1 -1.1104 1.55825 19.2411 20.956
723 2 2.2208 0.120094 17.9426 22.4277
725 2 2.2208 0.0606764 15.0515 25.2148
572 1 -1.1104 4.32396 19.0594 20.992
551 1 -1.1104 1.29504 13.6052 21.118
746 1 -1.1104 4.0701 13.3982 26.5178
731 1 -1.1104 4.29545 13.6163 23.8262
735 1 -1.1104 1.37887 13.6323 26.4842
741 1 -1.1104 1.56234 13.4879 23.7336
744 2 2.2208 2.87506 17.8299 25.1822
743 1 -1.1104 4.27037 19.2419 26.6066
742 2 2.2208 5.65715 17.7362 22.3187
727 2 2.2208 2.80959 14.915 22.4355
750 2 2.2208 3.00143 20.5075 22.239
749 1 -1.1104 4.3047 16.5013 23.8949
748 1 -1.1104 1.60152 16.3724 23.9456
745 1 -1.1104 4.22846 16.2627 26.5519
729 1 -1.1104 4.22022 19.0653 23.8064
733 1 -1.1104 1.2441 19.1878 26.462
734 1 -1.1104 1.25089 16.5194 26.6028
737 2 2.2208 5.70482 20.5353 25.0503
738 2 2.2208 5.59695 14.8771 25.0962
740 1 -1.1104 1.44044 19.3198 23.7441
635 1 -1.1104 12.5544 19.3316 26.3167
604 1 -1.1104 9.75566 16.1246 20.8769
555 1 -1.1104 6.98109 13.6429 20.8774
599 1 -1.1104 9.84405 19.246 20.8843
587 1 -1.1104 12.5043 19.1177 20.7815
597 1 -1.1104 9.88189 13.4276 20.8436
557 1 -1.1104 7.00662 19.0908 20.6712
565 1 -1.1104 7.07953 16.4308 20.7909
699 2 2.2208 8.52433 14.9362 22.4047
673 1 -1.1104 9.82155 13.5409 26.5658
633 1 -1.1104 12.5105 19.0127 23.8057
608 1 -1.1104 12.6897 13.4729 23.6456
607 2 2.2208 11.0615 17.7838 22.2649
634 1 -1.1104 12.5627 13.5905 26.4896
585 1 -1.1104 12.8012 13.5454 20.8601
701 1 -1.1104 9.70888 16.341 23.9053
638 2 2.2208 11.1946 14.8978 25.2733
704 1 -1.1104 9.98204 16.2788 26.5295
698 1 -1.1104 9.89806 19.2014 26.581
663 1 -1.1104 12.6047 16.3523 26.6496
667 2 2.2208 8.39686 17.7158 25.1955
636 1 -1.1104 12.4714 16.1483 23.5773
665 1 -1.1104 9.75578 19.0357 23.6928
664 1 -1.1104 9.9991 13.5062 23.7239
592 1 -1.1104 12.5284 16.333 20.843
358 2 2.2208 0.0342795 9.31474 13.9496
361 2 2.2208 2.7213 12.1987 13.8675
353 2 2.2208 8.45689 -4.80706 13.7237
440 2 2.2208 5.78544 -4.78247 16.6995
359 2 2.2208 2.79509 6.51952 13.8359
751 2 2.2208 5.70782 23.4835 5.31449
753 1 -1.1104 1.17683 24.9087 1.02248
754 1 -1.1104 1.56498 24.7112 4.0146
755 1 -1.1104 1.324 21.816 1.1016
756 1 -1.1104 1.28994 27.5463 1.02761
757 2 2.2208 5.57225 26.224 2.43167
758 1 -1.1104 1.07502 21.8897 3.82828
759 1 -1.1104 1.3115 27.4214 3.82593
760 1 -1.1104 3.89765 24.7633 1.04742
761 2 2.2208 2.78622 23.1667 2.57135
763 1 -1.1104 4.50805 24.6333 3.65611
764 2 2.2208 2.81014 26.114 5.25034
765 1 -1.1104 4.29927 21.9723 1.25066
766 1 -1.1104 4.03375 27.6555 1.08251
767 1 -1.1104 4.05843 21.75 3.80344
768 1 -1.1104 4.30403 27.4437 3.91622
752 2 2.2208 5.64153 28.8565 5.32267
762 2 2.2208 2.74602 29.0407 2.43869
771 2 2.2208 -0.136819 26.1281 2.54352
1116 2 2.2208 5.50409 28.9953 -0.325018
1114 2 2.2208 5.63323 23.4137 -0.24775
769 2 2.2208 -0.18914 28.913 5.1967
1120 2 2.2208 -0.0482401 23.2229 -0.198529
770 2 2.2208 -0.0268791 23.3884 5.39982
1119 2 2.2208 -0.0206135 28.9213 -0.317364
1115 2 2.2208 2.63544 26.1933 -0.226431
772 1 -1.1104 6.95506 24.8379 1.21342
777 1 -1.1104 7.0526 27.4235 3.84916
774 1 -1.1104 7.16544 21.8591 1.1356
773 1 -1.1104 7.29047 24.6925 4.03388
776 1 -1.1104 7.02071 21.983 4.079
775 1 -1.1104 6.69227 27.6987 1.12267
778 2 2.2208 11.2211 23.3284 5.37723
780 1 -1.1104 12.5744 24.7958 1.07776
781 1 -1.1104 12.6864 24.6305 4.02043
782 1 -1.1104 12.679 21.9508 1.15852
784 2 2.2208 11.2337 26.087 2.57987
785 1 -1.1104 12.6083 22.0146 3.92218
787 1 -1.1104 9.79693 24.4879 1.0344
788 2 2.2208 8.46326 23.2228 2.57134
790 1 -1.1104 9.8952 24.7777 4.03984
791 2 2.2208 8.68854 26.1071 5.47769
792 1 -1.1104 9.97095 21.8668 1.24059
794 1 -1.1104 9.9698 21.8978 3.8666
783 1 -1.1104 12.6507 27.4977 1.15863
793 1 -1.1104 9.86351 27.417 1.27623
795 1 -1.1104 9.78354 27.5564 3.93595
786 1 -1.1104 12.6824 27.4526 3.91952
779 2 2.2208 11.1978 29.0062 5.29134
789 2 2.2208 8.16995 28.8852 2.54759
1121 2 2.2208 11.1522 23.309 -0.24931
1124 2 2.2208 11.3489 28.9603 -0.209001
1122 2 2.2208 8.77938 26.1829 -0.451618
822 2 2.2208 0.00805445 31.8603 2.56132
1069 2 2.2208 13.8297 42.9929 5.52299
1041 2 2.2208 -0.191214 45.9229 10.9767
800 1 -1.1104 1.42329 30.6235 1.21417
803 1 -1.1104 1.35893 30.4914 4.00864
806 1 -1.1104 1.1279 33.3008 1.1031
807 2 2.2208 5.57897 31.7744 2.49928
809 1 -1.1104 1.2878 33.3357 4.01797
811 1 -1.1104 3.97649 30.3575 1.12814
814 1 -1.1104 4.07664 30.2517 3.92819
816 2 2.2208 2.81838 31.9056 5.21592
818 1 -1.1104 4.10771 33.2307 1.2932
819 1 -1.1104 4.26586 33.2644 3.98323
799 2 2.2208 5.58165 34.7812 5.40445
801 1 -1.1104 1.32345 35.97 1.28045
804 1 -1.1104 1.1012 36.0901 4.08925
808 2 2.2208 5.44111 37.5659 2.67844
812 1 -1.1104 4.02675 35.8488 1.14453
813 2 2.2208 2.74499 34.5839 2.59725
815 1 -1.1104 4.12444 35.9114 3.77559
817 2 2.2208 2.55694 37.4755 5.35268
1126 2 2.2208 2.70495 31.8931 -0.173489
821 2 2.2208 -0.182633 37.3974 2.77152
1127 2 2.2208 5.65769 34.5999 -0.343975
1128 2 2.2208 -0.161224 34.5925 -0.228709
1522 1 -1.1104 12.349 47.3746 3.98422
810 1 -1.1104 6.88905 33.1478 3.93104
825 1 -1.1104 6.96507 33.1688 0.900016
802 1 -1.1104 6.839 36.2948 1.33459
823 1 -1.1104 6.96883 30.3848 1.12121
805 1 -1.1104 6.85721 36.2619 3.9405
824 1 -1.1104 6.91151 30.3745 3.97022
827 1 -1.1104 12.7248 30.4621 1.02106
829 1 -1.1104 12.4824 30.2979 3.87069
831 1 -1.1104 12.3973 33.0985 1.27441
832 2 2.2208 11.2139 31.7299 2.61611
834 1 -1.1104 12.6332 33.2092 3.87751
835 1 -1.1104 9.74446 30.2908 1.34534
838 1 -1.1104 9.55593 30.4367 4.01312
840 2 2.2208 8.25569 31.8512 5.29195
842 1 -1.1104 9.56489 33.2707 1.01754
843 1 -1.1104 9.73624 33.2809 3.82218
826 2 2.2208 11.0557 34.6035 5.47765
828 1 -1.1104 12.476 35.8999 1.09694
830 1 -1.1104 12.2405 35.8966 3.83548
833 2 2.2208 11.0504 37.3586 2.42635
836 1 -1.1104 9.66483 35.9771 1.07553
837 2 2.2208 8.14933 34.5388 2.50609
839 1 -1.1104 9.52173 35.9299 3.95888
841 2 2.2208 8.21391 37.4231 5.15514
1132 2 2.2208 11.0213 34.4762 -0.150381
1131 2 2.2208 8.4995 31.6678 -0.238551
952 1 -1.1104 6.9949 36.0409 6.81006