ITEM: TIMESTEP
90000
ITEM: NUMBER OF ATOMS
17700
ITEM: BOX BOUNDS pp pp pp
-4.0465599046386130e-01 2.7744655990464018e+01
-4.7957089286578123e+00 3.3287570892865085e+02
-4.0284252087932498e-01 2.7742842520878607e+01
ITEM: ATOMS id type q x y z
1 2 2.2208 5.08482 0.729889 5.08456
2 1 -1.1104 0.883708 -3.48537 0.712168
6 1 -1.1104 0.95161 -3.52613 3.65485
10 1 -1.1104 0.83073 -0.531193 0.815385
12 2 2.2208 5.18045 -2.05311 2.27947
14 1 -1.1104 1.00821 -0.699655 3.62357
16 1 -1.1104 3.80421 -3.53389 0.677804
18 2 2.2208 2.37163 0.743186 2.26011
19 1 -1.1104 3.8109 -3.37881 3.58895
21 2 2.2208 2.19535 -2.12434 5.00021
23 1 -1.1104 3.79741 -0.878211 0.910131
24 1 -1.1104 3.75945 -0.61725 3.7988
370 2 2.2208 13.5524 0.763254 13.6865
231 2 2.2208 7.88969 -4.81223 7.77444
311 2 2.2208 -0.272195 20.5224 8.01394
357 2 2.2208 10.7037 3.64525 13.5907
172 1 -1.1104 3.66209 -3.40363 6.33431
166 1 -1.1104 0.917516 -3.34355 6.49119
348 2 2.2208 5.20842 -2.06985 13.6557
230 2 2.2208 13.5916 -2.02372 10.8238
11 1 -1.1104 6.66295 -0.5634 0.771599
8 1 -1.1104 6.77549 -3.14083 3.63363
15 1 -1.1104 6.59827 -0.539177 3.56759
4 1 -1.1104 6.60824 -3.49802 0.928158
31 2 2.2208 10.9231 0.805572 5.27106
32 1 -1.1104 12.2277 -3.35776 0.951818
34 1 -1.1104 12.2246 -3.17003 3.54097
36 1 -1.1104 12.334 -0.647909 0.797596
37 2 2.2208 10.824 -1.9161 2.34702
39 1 -1.1104 12.2361 -0.506231 3.73862
40 1 -1.1104 9.38451 -3.30514 0.725352
42 2 2.2208 7.9902 0.899595 2.15115
43 1 -1.1104 9.40033 -3.35317 3.69624
45 2 2.2208 8.02576 -1.83754 5.07876
47 1 -1.1104 9.37541 -0.523027 0.71197
48 1 -1.1104 9.48132 -0.582707 3.60049
200 2 2.2208 -0.410233 -2.10992 8.07676
83 2 2.2208 -0.36242 11.8423 4.99038
168 1 -1.1104 6.46361 -3.41911 6.47512
313 2 2.2208 -0.245833 14.6983 7.97781
3 1 -1.1104 0.947152 2.27047 0.888644
7 1 -1.1104 0.926959 2.00298 3.81499
13 2 2.2208 5.18595 3.48441 2.29618
17 1 -1.1104 3.78358 2.1516 0.95953
20 1 -1.1104 3.73479 2.2553 3.79865
22 2 2.2208 2.37611 3.51363 5.10501
368 2 2.2208 2.44385 17.8835 13.5743
167 1 -1.1104 0.77089 2.08303 6.54593
54 2 2.2208 5.16556 6.26778 5.20491
56 1 -1.1104 0.83603 7.78343 0.886977
58 1 -1.1104 0.976576 7.57599 3.73974
60 1 -1.1104 1.03074 5.09143 0.827577
67 1 -1.1104 0.964086 4.9583 3.58003
71 1 -1.1104 3.81259 7.94235 0.747109
72 2 2.2208 2.37587 6.27366 2.3289
74 1 -1.1104 3.8054 7.66592 3.56111
76 1 -1.1104 3.78162 4.87996 0.809154
79 1 -1.1104 3.68741 5.0546 3.69704
339 2 2.2208 13.5067 6.40527 7.92491
352 2 2.2208 5.18751 3.62276 13.6464
105 2 2.2208 13.544 6.26825 2.21761
236 1 -1.1104 1.1088 4.90781 6.36518
238 1 -1.1104 3.78073 7.66536 6.66798
341 2 2.2208 13.6096 9.1787 10.749
9 1 -1.1104 6.6447 2.30998 3.82867
5 1 -1.1104 6.5114 2.21716 0.913041
33 1 -1.1104 11.9983 2.23401 0.848218
35 1 -1.1104 12.1265 2.21347 3.75496
41 1 -1.1104 9.38071 2.18907 0.831823
44 1 -1.1104 9.39898 2.33704 3.66637
46 2 2.2208 7.90394 3.51938 5.13394
63 1 -1.1104 6.67729 4.8556 1.10898
312 2 2.2208 -0.313606 17.7271 10.803
38 2 2.2208 10.8186 3.51222 2.31231
57 1 -1.1104 6.62369 7.78338 1.02075
69 1 -1.1104 6.59243 5.01052 3.81059
59 1 -1.1104 6.52761 7.88403 3.73526
84 2 2.2208 10.812 6.52604 5.21223
86 1 -1.1104 12.0222 7.7943 0.962153
87 1 -1.1104 12.2272 7.7754 3.61169
88 1 -1.1104 12.1971 4.9748 0.756875
92 1 -1.1104 12.0757 5.088 3.753
94 1 -1.1104 9.22131 7.60815 0.978386
95 2 2.2208 8.01454 6.18301 2.53513
97 1 -1.1104 9.43395 7.85817 3.60139
99 1 -1.1104 9.47343 4.84571 1.0397
102 1 -1.1104 9.43782 5.13654 3.81679
209 1 -1.1104 9.2879 2.29121 6.63561
266 1 -1.1104 12.318 5.05829 6.54283
237 1 -1.1104 6.7748 4.94308 6.57444
269 1 -1.1104 9.52858 5.12883 6.60999
55 2 2.2208 5.0979 11.851 5.22526
61 1 -1.1104 1.16169 10.5743 0.850044
66 2 2.2208 5.26011 9.2019 2.37453
68 1 -1.1104 0.881377 10.4765 3.33991
73 2 2.2208 2.33552 11.9569 2.31442
75 2 2.2208 2.39837 9.02806 5.16745
77 1 -1.1104 3.89956 10.6823 1.02334
80 1 -1.1104 3.70798 10.4867 3.96782
349 2 2.2208 2.30983 0.725609 13.5329
229 2 2.2208 13.6699 0.635284 8.04856
107 1 -1.1104 0.84045 13.3329 0.936283
113 1 -1.1104 0.897605 13.5354 3.68161
123 1 -1.1104 3.76746 13.5799 0.993168
128 1 -1.1104 3.67086 13.1808 3.86305
78 1 -1.1104 3.83402 10.4199 6.80856
359 2 2.2208 2.4119 6.41225 13.6376
108 1 -1.1104 1.18107 13.3338 6.35317
124 1 -1.1104 3.85533 13.4451 6.58298
70 1 -1.1104 6.58166 10.5898 3.99772
64 1 -1.1104 6.5498 10.6915 1.117
85 2 2.2208 10.7636 11.9603 5.16323
89 1 -1.1104 12.1448 10.7273 0.964474
91 2 2.2208 10.6878 9.23573 2.30877
93 1 -1.1104 12.2471 10.5163 3.70413
96 2 2.2208 7.95194 11.8717 2.49371
98 2 2.2208 8.0969 9.16428 5.17962
100 1 -1.1104 9.21389 10.5473 0.936905
103 1 -1.1104 9.40163 10.5084 3.75517
115 1 -1.1104 6.5131 13.4657 3.75526
110 1 -1.1104 6.61928 13.4592 1.0418
142 1 -1.1104 12.1762 13.4721 0.90508
146 1 -1.1104 12.2899 13.4665 3.62197
153 1 -1.1104 9.43366 13.3524 1.05864
158 1 -1.1104 9.25613 13.3964 3.74198
90 1 -1.1104 12.14 10.6741 6.53581
143 1 -1.1104 12.2894 13.3949 6.49568
154 1 -1.1104 9.34616 13.3044 6.57071
354 2 2.2208 13.484 -4.75166 13.5474
28 2 2.2208 2.46311 -4.80177 2.32458
119 2 2.2208 5.39945 14.9439 2.40786
130 2 2.2208 2.41308 14.7668 5.08821
106 2 2.2208 5.31277 17.6097 5.15333
109 1 -1.1104 0.891602 18.9004 0.830096
114 1 -1.1104 1.0684 19.1749 3.55322
116 1 -1.1104 1.27125 16.174 0.999663
120 2 2.2208 5.18615 20.4598 2.37965
121 1 -1.1104 1.11053 16.2548 3.80169
125 1 -1.1104 3.858 19.2008 1.00903
127 2 2.2208 2.39253 17.6152 2.35697
129 1 -1.1104 3.78453 18.9824 3.93676
131 2 2.2208 2.39813 20.4145 5.07312
132 1 -1.1104 3.93125 16.2724 1.02969
134 1 -1.1104 3.9753 16.1667 3.81744
376 2 2.2208 8.14511 17.5119 13.418
122 1 -1.1104 6.71173 16.4255 3.7943
49 2 2.2208 13.6028 0.752288 2.27195
302 1 -1.1104 1.10587 19.0637 6.2987
126 1 -1.1104 4.03157 18.8696 6.60058
133 1 -1.1104 3.91482 16.1815 6.65277
314 1 -1.1104 9.58374 16.2228 9.55979
326 1 -1.1104 12.4351 16.3126 12.0516
139 1 -1.1104 6.75966 19.2443 3.75793
138 1 -1.1104 6.84424 18.995 0.930068
140 1 -1.1104 6.73164 16.3027 1.07131
150 2 2.2208 10.9049 14.7062 2.28353
160 2 2.2208 8.056 14.9398 5.21982
141 2 2.2208 11.0409 17.7852 5.14773
144 1 -1.1104 12.4181 19.0762 0.987125
147 1 -1.1104 12.3958 19.1067 3.87283
148 1 -1.1104 12.2987 16.247 0.931685
151 2 2.2208 10.9757 20.4365 2.41559
152 1 -1.1104 12.3785 16.2205 3.58223
155 1 -1.1104 9.74397 19.136 0.964083
157 2 2.2208 8.26461 17.6117 2.31539
159 1 -1.1104 9.55832 19.0673 3.84251
161 2 2.2208 8.02295 20.473 5.18218
162 1 -1.1104 9.50697 16.2412 0.967277
164 1 -1.1104 9.66476 16.1583 3.66975
145 1 -1.1104 12.3737 18.961 6.66292
149 1 -1.1104 12.3817 16.1992 6.29261
156 1 -1.1104 9.55914 19.1093 6.73845
163 1 -1.1104 9.52613 16.3666 6.74423
112 1 -1.1104 6.77364 19.0735 6.5722
51 2 2.2208 7.96852 -4.72393 2.31757
343 2 2.2208 -0.328186 9.17517 8.00922
174 1 -1.1104 3.82208 -0.679842 6.53619
136 2 2.2208 -0.330238 20.3954 2.44442
170 1 -1.1104 0.9938 -0.612435 6.49228
175 2 2.2208 5.04705 0.731577 10.8124
176 1 -1.1104 0.893596 -3.49192 12.2846
180 1 -1.1104 0.92156 -3.42945 9.57243
184 1 -1.1104 1.03986 -0.684475 12.1347
186 2 2.2208 5.18885 -1.97816 7.8797
188 1 -1.1104 0.921066 -0.716529 9.14567
190 1 -1.1104 3.95166 -3.45387 12.0092
192 2 2.2208 2.27987 0.734984 7.91221
193 1 -1.1104 3.67051 -3.39475 9.25845
195 2 2.2208 2.38094 -1.95896 10.7394
197 1 -1.1104 3.74119 -0.662311 12.2866
198 1 -1.1104 3.70813 -0.633003 9.37002
178 1 -1.1104 6.7505 -3.25826 12.1507
185 1 -1.1104 6.52385 -0.581878 12.0732
353 2 2.2208 7.91504 -4.71601 13.5283
318 1 -1.1104 9.69839 18.9538 9.42666
171 1 -1.1104 6.56732 -0.572704 6.45061
207 1 -1.1104 12.2131 -0.751799 6.64996
208 1 -1.1104 9.46662 -3.33515 6.48484
182 1 -1.1104 6.43396 -3.32255 9.32421
189 1 -1.1104 6.47755 -0.486044 9.26159
210 1 -1.1104 9.4675 -0.506415 6.47551
205 1 -1.1104 12.1739 -3.44225 6.50408
211 2 2.2208 10.7111 0.850981 10.7429
212 1 -1.1104 12.2936 -3.32 12.1937
214 1 -1.1104 12.1921 -3.48209 9.38057
216 1 -1.1104 12.2195 -0.59627 12.1072
217 2 2.2208 10.8283 -2.11331 7.98426
219 1 -1.1104 12.2221 -0.717724 9.30795
220 1 -1.1104 9.54584 -3.38884 12.1511
222 2 2.2208 7.94821 0.795351 7.95446
223 1 -1.1104 9.15107 -3.53413 9.53607
225 2 2.2208 7.95685 -1.94663 10.8605
227 1 -1.1104 9.39522 -0.619397 12.1389
228 1 -1.1104 9.39533 -0.604298 9.35582
315 1 -1.1104 9.51785 16.1455 12.1745
173 1 -1.1104 3.55607 2.15477 6.57852
53 2 2.2208 13.5965 -4.76727 2.26636
177 1 -1.1104 1.03839 2.12025 12.0734
181 1 -1.1104 0.951798 2.144 9.34137
191 1 -1.1104 3.75933 2.2119 11.9791
194 1 -1.1104 3.74491 2.32623 9.34222
196 2 2.2208 2.34126 3.60434 10.84
187 2 2.2208 5.3217 3.57883 8.03439
234 1 -1.1104 1.0204 7.71598 6.6469
239 1 -1.1104 4.00747 4.83769 6.60859
240 2 2.2208 5.2438 6.51235 10.795
242 1 -1.1104 0.946988 7.88621 12.0427
244 1 -1.1104 1.1516 7.84551 9.23093
246 1 -1.1104 0.970461 5.06963 12.1568
251 1 -1.1104 0.895127 5.18233 9.25715
255 1 -1.1104 3.83657 7.75312 12.3788
256 2 2.2208 2.47867 6.38783 8.03219
258 1 -1.1104 3.8658 7.83766 9.49704
260 1 -1.1104 3.70505 4.84447 12.2788
262 1 -1.1104 3.8013 5.11872 9.4755
316 2 2.2208 8.15223 20.5754 10.8138
245 1 -1.1104 6.74578 7.74205 9.37242
329 1 -1.1104 12.3307 19.0983 12.0516
265 1 -1.1104 12.1504 7.83703 6.5695
179 1 -1.1104 6.56316 2.17963 12.24
169 1 -1.1104 6.45708 2.02453 6.66502
206 1 -1.1104 12.1233 2.25658 6.57891
183 1 -1.1104 6.57167 2.20373 9.53048
213 1 -1.1104 12.1482 2.13584 12.2233
215 1 -1.1104 12.0992 2.18994 9.42613
221 1 -1.1104 9.2026 2.02312 12.0775
224 1 -1.1104 9.34632 2.01476 9.3406
226 2 2.2208 7.88677 3.50619 10.8946
218 2 2.2208 10.7605 3.58149 8.07717
267 1 -1.1104 9.36545 7.9119 6.62377
235 1 -1.1104 6.62116 7.69283 6.58592
243 1 -1.1104 6.67581 7.78382 12.2084
253 1 -1.1104 6.64001 4.96802 9.41581
248 1 -1.1104 6.54448 4.95952 12.3042
268 1 -1.1104 9.32798 4.9646 9.28456
271 1 -1.1104 9.27386 5.03044 12.2152
273 1 -1.1104 9.38391 7.86435 9.41643
275 2 2.2208 8.04429 6.42905 7.9125
276 2 2.2208 10.6723 6.40821 10.7451
278 1 -1.1104 12.1241 7.69023 12.1595
279 1 -1.1104 12.0403 7.78955 9.38564
280 1 -1.1104 11.9373 4.96677 12.0305
283 1 -1.1104 12.2051 5.08444 9.42627
285 1 -1.1104 9.44381 7.76414 12.2056
338 2 2.2208 13.567 3.61898 10.7964
290 1 -1.1104 6.4743 13.4348 9.50395
327 1 -1.1104 12.5524 18.9891 9.38727
62 1 -1.1104 1.11966 10.4484 6.38661
325 2 2.2208 10.8424 14.7686 7.83365
241 2 2.2208 5.29567 12.2226 10.9042
247 1 -1.1104 0.91566 10.624 12.3227
250 2 2.2208 5.26067 9.09317 8.11934
252 1 -1.1104 1.0531 10.7288 9.34586
257 2 2.2208 2.47273 12.0245 7.95751
259 2 2.2208 2.4742 9.16823 10.9243
261 1 -1.1104 3.68573 10.516 12.2533
263 1 -1.1104 3.9879 10.5935 9.658
305 1 -1.1104 3.65189 13.5383 9.37277
299 1 -1.1104 0.937052 13.3399 12.4121
294 1 -1.1104 1.0274 13.3285 9.26335
287 1 -1.1104 3.6981 13.452 12.3378
50 2 2.2208 13.6038 -2.13256 5.19823
351 2 2.2208 -0.377208 14.8738 13.6351
319 1 -1.1104 9.48654 13.4995 9.41184
101 1 -1.1104 9.41484 10.4872 6.51384
328 1 -1.1104 12.1904 13.1915 9.27982
297 1 -1.1104 6.4243 13.6252 12.3639
330 1 -1.1104 12.3474 13.3315 12.2625
322 1 -1.1104 9.25595 13.3695 12.1136
65 1 -1.1104 6.53719 10.5328 6.65193
254 1 -1.1104 6.70354 10.702 9.39822
249 1 -1.1104 6.65914 10.6396 12.4003
264 1 -1.1104 9.29848 10.8425 9.39275
270 1 -1.1104 9.50814 10.4824 12.2162
272 2 2.2208 7.9685 9.28034 10.9255
274 2 2.2208 7.96666 12.0917 8.08497
277 2 2.2208 10.9352 11.9341 10.902
281 1 -1.1104 12.3309 10.6167 12.3415
282 2 2.2208 10.7937 9.37364 8.0574
284 1 -1.1104 12.0924 10.444 9.36534
111 1 -1.1104 6.52941 13.5153 6.724
137 2 2.2208 -0.351624 17.6329 5.11471
317 2 2.2208 8.06317 14.8351 10.8361
366 2 2.2208 13.5661 6.42758 13.5599
117 1 -1.1104 1.15383 16.1066 6.5846
310 2 2.2208 2.44328 14.7652 10.7952
295 2 2.2208 5.26319 14.841 7.9854
309 2 2.2208 2.75975 20.4257 10.7637
308 1 -1.1104 3.93382 16.3065 12.2633
307 1 -1.1104 1.10172 16.2501 12.0605
286 1 -1.1104 4.12455 19.1781 12.2478
304 1 -1.1104 3.96526 16.393 9.57645
303 2 2.2208 2.58667 17.4975 8.03038
301 1 -1.1104 3.96852 19.0693 9.28472
300 2 2.2208 5.34915 17.6522 10.8949
298 1 -1.1104 1.14827 19.1306 12.1977
293 2 2.2208 5.15666 20.4161 7.93116
292 1 -1.1104 1.12545 16.1167 9.51001
291 1 -1.1104 1.23776 18.9865 9.29169
331 2 2.2208 10.9547 17.6719 10.756
321 1 -1.1104 9.59524 19.163 12.1002
320 2 2.2208 8.27263 17.7227 8.04171
306 1 -1.1104 6.68626 16.2681 12.1322
323 1 -1.1104 12.4074 16.1364 9.05694
296 1 -1.1104 6.8114 18.8869 12.1398
289 1 -1.1104 6.73727 16.1446 9.37682
118 1 -1.1104 6.83158 16.2852 6.59186
324 2 2.2208 11.028 20.4191 8.00834
288 1 -1.1104 6.84809 19.1244 9.36296
26 2 2.2208 -0.456869 0.819098 5.04513
81 2 2.2208 -0.308813 6.28767 5.09962
335 2 2.2208 13.458 9.21509 5.07367
334 2 2.2208 13.5638 3.64076 5.22348
358 2 2.2208 -0.393262 9.21534 13.5779
373 2 2.2208 10.9608 14.7985 13.5662
390 2 2.2208 10.7816 -4.63907 -0.445475
355 2 2.2208 8.01792 0.823127 13.5431
363 2 2.2208 7.9571 6.28206 13.6041
395 2 2.2208 5.21353 12.135 -0.255831
403 2 2.2208 2.4661 14.8851 -0.361399
377 2 2.2208 7.96077 14.7955 -0.37283
401 2 2.2208 -0.390098 17.5848 -0.402653
406 2 2.2208 5.08827 0.716255 16.1015
407 1 -1.1104 1.04257 -3.44617 17.695
411 1 -1.1104 0.924055 -3.6781 15.0499
419 1 -1.1104 1.1129 -0.704329 17.7202
421 2 2.2208 5.26028 -1.95929 19.0778
423 1 -1.1104 0.834112 -0.679733 14.9258
427 1 -1.1104 4.02762 -3.31376 17.7892
429 2 2.2208 2.36982 0.600799 19.1663
430 1 -1.1104 3.81997 -3.4281 14.9991
434 2 2.2208 2.35041 -2.06338 16.2961
436 1 -1.1104 3.78761 -0.612239 17.7431
437 1 -1.1104 3.71955 -0.559568 14.9059
447 2 2.2208 -0.351605 17.6644 16.6211
382 2 2.2208 2.25567 -2.13762 27.5777
668 2 2.2208 10.7973 -4.6642 22.0448
393 2 2.2208 5.13226 6.38808 27.7052
431 1 -1.1104 3.77173 -3.41699 20.4469
383 2 2.2208 2.27671 3.43292 27.6159
415 1 -1.1104 6.64304 -3.42718 14.9482
409 1 -1.1104 6.73083 -3.27251 17.7838
420 1 -1.1104 6.69041 -0.473073 17.4739
425 1 -1.1104 6.5473 -0.549197 14.8144
449 2 2.2208 10.8994 0.876788 16.2912
450 1 -1.1104 12.1787 -3.31417 17.7749
452 1 -1.1104 12.0984 -3.42653 14.9899
456 1 -1.1104 12.3103 -0.418794 17.7565
457 2 2.2208 10.7733 -1.96013 19.1173
459 1 -1.1104 12.2114 -0.464015 15.1232
461 1 -1.1104 9.38907 -3.53214 17.8162
463 2 2.2208 7.92235 0.904927 19.1566
464 1 -1.1104 9.26683 -3.58256 14.9628
468 2 2.2208 7.92089 -2.04845 16.3583
470 1 -1.1104 9.4783 -0.676929 17.5941
471 1 -1.1104 9.33472 -0.679862 14.9377
672 2 2.2208 13.5943 0.780066 24.8169
397 2 2.2208 -0.391419 6.48281 27.6645
426 1 -1.1104 6.67358 -0.609728 20.4969
472 1 -1.1104 9.35243 -0.547692 20.5251
453 1 -1.1104 12.2347 -3.17316 20.5249
408 1 -1.1104 0.805122 2.15379 17.8645
413 1 -1.1104 0.759361 2.02119 15.0439
428 1 -1.1104 3.96351 2.09119 17.6322
432 1 -1.1104 3.62111 2.22812 14.682
422 2 2.2208 5.24478 3.59678 19.1418
392 2 2.2208 13.6392 3.64248 27.6719
441 2 2.2208 2.46035 -4.78586 19.0455
579 2 2.2208 13.6019 3.66018 16.3876
435 2 2.2208 2.31968 3.58389 16.315
482 2 2.2208 5.12686 6.33074 16.6269
484 1 -1.1104 0.870885 7.67368 17.6447
486 1 -1.1104 0.879459 7.75827 14.8096
490 1 -1.1104 0.935376 4.89346 17.7816
495 1 -1.1104 0.999225 4.88275 14.8557
503 1 -1.1104 3.61778 7.89002 17.9041
504 2 2.2208 2.33192 6.46759 19.303
506 1 -1.1104 3.77274 7.77029 15.0986
509 1 -1.1104 3.92949 4.99002 17.8895
511 1 -1.1104 3.7826 4.98267 15.0988
488 1 -1.1104 6.51501 7.78876 15.1456
492 1 -1.1104 6.55131 5.17124 17.8412
417 1 -1.1104 6.57082 2.19058 15.0242
410 1 -1.1104 6.66727 2.29313 17.8696
451 1 -1.1104 12.1835 2.22762 17.753
454 1 -1.1104 12.323 2.31895 14.9484
458 2 2.2208 10.9381 3.56763 19.1425
462 1 -1.1104 9.49313 2.24893 17.7834
466 1 -1.1104 9.5185 2.24481 14.956
469 2 2.2208 8.10262 3.61672 16.4844
499 1 -1.1104 6.65835 5.08137 15.1787
485 1 -1.1104 6.49239 7.96917 17.94
518 2 2.2208 10.8327 6.42176 16.545
520 1 -1.1104 12.3152 7.81595 17.8553
521 1 -1.1104 12.2016 7.74134 15.0035
523 1 -1.1104 12.2043 4.90632 17.8088
526 1 -1.1104 12.1633 4.97888 14.9621
530 1 -1.1104 9.40805 7.84492 17.9669
531 2 2.2208 7.80117 6.29178 19.2206
533 1 -1.1104 9.32629 7.4712 15.1519
536 1 -1.1104 9.3824 4.94075 17.9344
538 1 -1.1104 9.52599 5.10679 15.1368
527 1 -1.1104 12.0908 4.89391 20.5703
467 1 -1.1104 9.56428 2.16952 20.6282
489 1 -1.1104 6.47631 7.65978 20.4765
522 1 -1.1104 12.2549 7.86231 20.7096
402 2 2.2208 13.5 9.27969 27.6705
476 2 2.2208 -0.381184 20.59 19.4056
399 2 2.2208 7.89747 9.07743 27.7543
483 2 2.2208 5.1251 12.0791 16.6194
491 1 -1.1104 0.947887 10.376 17.8657
494 2 2.2208 5.1722 9.37535 19.1351
497 1 -1.1104 1.08036 10.7332 15.1483
505 2 2.2208 2.19537 12.1687 19.259
508 2 2.2208 2.31544 9.19823 16.4111
510 1 -1.1104 3.5974 10.8947 17.6852
513 1 -1.1104 3.86892 10.6649 15.1233
666 2 2.2208 13.6286 -4.84025 24.9084
546 1 -1.1104 0.941245 13.4558 17.9039
550 1 -1.1104 0.988039 13.5172 15.2057
566 1 -1.1104 3.81314 13.5658 17.9777
569 1 -1.1104 4.03613 13.4967 15.1432
514 1 -1.1104 3.76973 10.8355 20.5168
498 1 -1.1104 0.830191 10.4745 20.5779
502 1 -1.1104 6.69466 10.6273 20.7092
501 1 -1.1104 6.76985 10.5351 15.0963
493 1 -1.1104 6.52233 10.6101 17.8303
519 2 2.2208 10.8656 12.0075 16.4535
524 1 -1.1104 12.3127 10.5591 17.8955
525 2 2.2208 10.8345 9.22707 19.2231
528 1 -1.1104 12.4115 10.6377 15.0552
532 2 2.2208 8.06298 12.0081 19.2432
535 2 2.2208 7.95995 9.12541 16.4434
537 1 -1.1104 9.35669 10.725 17.8086
540 1 -1.1104 9.55973 10.5194 14.992
747 1 -1.1104 6.58145 16.31 23.4382
554 1 -1.1104 6.77074 13.2305 15.2474
548 1 -1.1104 6.46137 13.6108 17.9231
582 1 -1.1104 12.1892 13.46 17.6407
584 1 -1.1104 12.2449 13.535 15.0323
593 1 -1.1104 9.34985 13.3923 17.8184
596 1 -1.1104 9.43644 13.4042 15.0306
529 1 -1.1104 12.2252 10.5703 20.4497
597 1 -1.1104 9.35441 13.5128 20.5931
477 2 2.2208 13.613 -2.01546 16.3652
669 2 2.2208 7.96164 -4.77242 24.7399
404 2 2.2208 5.28543 17.7311 27.7695
573 2 2.2208 2.49141 14.9019 16.4673
560 2 2.2208 5.28673 14.8737 19.2814
545 2 2.2208 5.39415 17.6973 16.5001
547 1 -1.1104 1.12402 19.1951 17.7586
552 1 -1.1104 1.1933 19.0012 15.0991
558 1 -1.1104 1.04136 16.2575 17.87
561 2 2.2208 5.23886 20.3912 19.2139
562 1 -1.1104 1.06036 16.2524 14.9868
567 1 -1.1104 3.82417 18.9916 17.843
568 2 2.2208 2.46238 17.7157 19.1854
571 1 -1.1104 3.98945 19.182 15.2583
574 2 2.2208 2.52861 20.3895 16.6162
575 1 -1.1104 3.82202 16.3602 17.8989
576 1 -1.1104 4.0032 16.4533 15.038
549 1 -1.1104 6.60084 19.1948 17.7892
381 2 2.2208 5.05958 0.628174 27.6049
563 1 -1.1104 0.983106 16.1989 20.6329
577 1 -1.1104 3.77779 16.356 20.9834
389 2 2.2208 7.86654 3.54181 27.6853
587 1 -1.1104 12.2048 19.0031 20.5409
564 1 -1.1104 6.6468 16.0836 15.0069
559 1 -1.1104 6.66118 16.4685 17.93
556 1 -1.1104 6.86775 18.9804 14.9692
589 2 2.2208 10.9075 14.848 19.3521
600 2 2.2208 8.12013 14.9139 16.4991
581 2 2.2208 11.0024 17.7469 16.4665
583 1 -1.1104 12.3068 19.1482 17.8221
586 1 -1.1104 12.4174 19.0263 15.0626
588 1 -1.1104 12.0996 16.242 17.7906
590 2 2.2208 10.8921 20.4862 19.2334
591 1 -1.1104 12.1728 16.3699 14.8369
594 1 -1.1104 9.50261 18.9068 17.9131
595 2 2.2208 8.18886 17.6628 19.2613
598 1 -1.1104 9.56852 18.9921 15.0324
601 2 2.2208 8.20154 20.3034 16.4018
602 1 -1.1104 9.41286 16.2248 17.7524
603 1 -1.1104 9.44458 16.3455 14.8903
557 1 -1.1104 6.73104 18.9228 20.7205
592 1 -1.1104 12.1058 16.3293 20.7187
438 1 -1.1104 3.85965 -0.480241 20.617
641 2 2.2208 10.9043 20.4921 24.9356
607 2 2.2208 10.7626 17.7429 21.9776
636 1 -1.1104 12.3378 16.2207 23.4139
580 2 2.2208 13.6058 14.81 22.0393
424 1 -1.1104 1.04969 -0.590485 20.5042
412 1 -1.1104 1.0289 -3.30266 20.4465
609 2 2.2208 5.16807 0.842566 21.8488
610 1 -1.1104 1.06928 -3.60953 23.425
614 1 -1.1104 0.832372 -3.5036 26.2969
618 1 -1.1104 0.839675 -0.79092 23.2531
620 2 2.2208 5.14188 -2.10871 24.677
622 1 -1.1104 0.904847 -0.626517 26.1737
624 1 -1.1104 3.7479 -3.42764 23.3151
626 2 2.2208 2.30139 0.689879 24.8342
627 1 -1.1104 3.79498 -3.67641 26.0546
629 2 2.2208 2.35901 -2.04058 21.8769
631 1 -1.1104 3.58625 -0.69701 23.4122
632 1 -1.1104 3.80574 -0.86831 26.3109
446 2 2.2208 13.6127 3.60764 21.9614
725 2 2.2208 -0.404452 14.7806 24.9147
416 1 -1.1104 6.56661 -3.34733 20.4503
578 2 2.2208 13.7118 0.673065 19.2156
619 1 -1.1104 6.26131 -0.581549 23.3502
465 1 -1.1104 9.38959 -3.41045 20.6487
616 1 -1.1104 6.69297 -3.61021 26.3613
623 1 -1.1104 6.4626 -0.657513 26.1096
460 1 -1.1104 12.1462 -0.585661 20.596
612 1 -1.1104 6.50242 -3.42984 23.3426
645 2 2.2208 10.9855 0.78781 21.9322
646 1 -1.1104 12.3519 -3.29101 23.3699
648 1 -1.1104 12.1212 -3.14035 26.2763
650 1 -1.1104 12.2523 -0.590803 23.3145
651 2 2.2208 10.7824 -1.96605 24.6609
653 1 -1.1104 12.2484 -0.453718 26.1505
654 1 -1.1104 9.3272 -3.45815 23.285
656 2 2.2208 7.92967 0.819626 24.7234
657 1 -1.1104 9.45078 -3.67252 25.9981
659 2 2.2208 7.9064 -1.89832 22.0273
661 1 -1.1104 9.46197 -0.61662 23.4003
662 1 -1.1104 9.27838 -0.725005 26.0363
433 1 -1.1104 3.68033 2.21551 20.4235
633 1 -1.1104 12.1827 18.8868 23.5022
414 1 -1.1104 0.793652 2.20331 20.6975
611 1 -1.1104 0.974301 1.98944 23.4406
615 1 -1.1104 0.889373 2.01628 26.1019
625 1 -1.1104 3.80302 2.00094 23.4417
628 1 -1.1104 3.59317 1.94574 26.4885
630 2 2.2208 2.48381 3.38563 22.0404
621 2 2.2208 4.97798 3.53094 24.8425
388 2 2.2208 7.94678 -2.04098 27.5524
418 1 -1.1104 6.64894 2.23432 20.5005
512 1 -1.1104 3.50893 5.11003 20.7999
496 1 -1.1104 0.775112 4.99851 20.5732
507 1 -1.1104 3.64005 7.83538 20.5873
487 1 -1.1104 0.898872 7.80326 20.6537
674 2 2.2208 5.25858 6.52742 22.0248
676 1 -1.1104 1.0445 7.81894 23.3479
678 1 -1.1104 0.956226 7.64476 26.0018
680 1 -1.1104 1.01382 4.89458 23.3341
685 1 -1.1104 1.08308 4.8687 26.1036
689 1 -1.1104 3.72684 7.79692 23.3169
690 2 2.2208 2.22312 6.39627 24.773
692 1 -1.1104 3.87914 7.71878 25.9718
694 1 -1.1104 3.73944 4.93946 23.3529
696 1 -1.1104 3.62786 4.89926 26.3388
565 1 -1.1104 6.61285 16.2312 20.6387
613 1 -1.1104 6.65593 2.03537 23.2267
617 1 -1.1104 6.6104 2.12379 26.1545
455 1 -1.1104 12.3286 2.19509 20.6366
647 1 -1.1104 12.2558 2.20496 23.416
649 1 -1.1104 12.1945 2.29157 26.3122
655 1 -1.1104 9.47984 2.07322 23.2572
658 1 -1.1104 9.26364 2.14097 26.0901
660 2 2.2208 8.05716 3.53732 21.9667
652 2 2.2208 10.6641 3.57535 24.7639
534 1 -1.1104 9.54986 7.84628 20.822
539 1 -1.1104 9.27066 5.0165 20.7642
500 1 -1.1104 6.41864 4.91713 20.6489
679 1 -1.1104 6.43816 7.97668 26.1598
682 1 -1.1104 6.30514 5.08146 23.643
677 1 -1.1104 6.47938 7.99702 23.417
687 1 -1.1104 6.42031 4.97031 26.4352
706 1 -1.1104 9.1608 5.00245 26.2738
708 1 -1.1104 9.20121 5.08242 23.5741
710 1 -1.1104 9.16596 7.69204 26.2999
712 2 2.2208 7.85654 6.40029 24.9133
713 2 2.2208 10.9095 6.43307 21.9637
715 1 -1.1104 12.3853 7.91974 23.4905
716 1 -1.1104 12.0741 7.682 26.2882
717 1 -1.1104 12.1524 5.17787 23.3522
720 1 -1.1104 12.1488 4.91215 25.9674
722 1 -1.1104 9.35241 7.97485 23.5669
369 2 2.2208 5.33504 20.4153 13.735
394 2 2.2208 2.38955 9.19233 27.5408
675 2 2.2208 5.20084 12.0888 21.8532
681 1 -1.1104 0.978374 10.5408 23.3483
684 2 2.2208 5.02688 9.20204 24.7447
686 1 -1.1104 0.879769 10.4569 26.2812
691 2 2.2208 2.47357 12.0176 24.7539
693 2 2.2208 2.23633 9.21508 22.0063
695 1 -1.1104 3.64662 10.6788 23.4291
697 1 -1.1104 3.75063 10.6136 26.3074
570 1 -1.1104 3.83425 13.5743 20.6991
448 2 2.2208 -0.426932 14.9492 19.3286
551 1 -1.1104 0.844429 13.5136 20.5298
746 1 -1.1104 3.68163 13.511 26.2906
731 1 -1.1104 3.64437 13.5313 23.4677
735 1 -1.1104 0.834195 13.3766 26.3495
741 1 -1.1104 1.05156 13.351 23.3094
701 1 -1.1104 9.44613 16.1749 23.4368
664 1 -1.1104 9.40144 13.4289 23.3892
608 1 -1.1104 12.2018 13.367 23.4921
555 1 -1.1104 6.70584 13.4115 20.6078
739 1 -1.1104 6.50507 13.4216 23.4529
699 2 2.2208 8.00878 14.8509 22.0792
541 1 -1.1104 9.68161 10.681 20.7167
688 1 -1.1104 6.61466 10.8503 26.4557
683 1 -1.1104 6.45351 10.6914 23.5066
705 1 -1.1104 9.36462 10.7486 26.2065
707 1 -1.1104 9.31437 10.7488 23.3455
709 2 2.2208 8.01051 9.31487 21.9718
711 2 2.2208 7.8833 11.952 24.9415
714 2 2.2208 10.8501 11.9941 22.1257
718 1 -1.1104 12.2709 10.609 23.4225
719 2 2.2208 10.7396 9.10491 24.9374
721 1 -1.1104 12.1014 10.5304 26.1348
673 1 -1.1104 9.42576 13.3655 26.6068
730 1 -1.1104 6.52298 13.6411 26.4016
585 1 -1.1104 12.2522 13.3387 20.5873
634 1 -1.1104 12.1351 13.2641 26.3348
374 2 2.2208 13.5635 14.7181 27.517
378 2 2.2208 11.0401 17.7515 27.6295
606 2 2.2208 13.5563 20.4276 22.1075
572 1 -1.1104 3.88563 19.1563 20.627
553 1 -1.1104 1.02965 18.9954 20.5282
744 2 2.2208 2.45082 17.742 24.775
743 1 -1.1104 3.71393 19.074 26.3848
742 2 2.2208 5.21899 17.701 22.088
727 2 2.2208 2.30247 14.9398 22.2202
750 2 2.2208 2.44325 20.3676 21.9877
749 1 -1.1104 3.79109 16.3518 23.5839
748 1 -1.1104 0.964553 16.0368 23.4054
745 1 -1.1104 3.72322 16.3515 26.2661
729 1 -1.1104 3.93984 19.1209 23.5072
733 1 -1.1104 1.00465 18.9319 26.0634
734 1 -1.1104 1.1128 16.2449 26.5236
737 2 2.2208 5.21291 20.4501 24.9473
738 2 2.2208 5.33376 15.0315 24.8882
740 1 -1.1104 0.977098 18.867 23.2583
635 1 -1.1104 12.5139 18.9195 26.2567
665 1 -1.1104 9.55982 19.0915 23.5845
638 2 2.2208 10.7947 14.6856 24.9027
599 1 -1.1104 9.43586 19.4322 20.5869
736 1 -1.1104 6.75002 19.2111 23.6356
663 1 -1.1104 12.2472 16.183 26.2269
604 1 -1.1104 9.42093 16.3692 20.6532
698 1 -1.1104 9.4593 18.9056 26.1618
670 1 -1.1104 6.37749 19.0637 26.2741
732 1 -1.1104 6.69938 16.3872 26.331
667 2 2.2208 8.05067 17.6226 24.861
700 2 2.2208 7.99545 20.4126 22.0313
704 1 -1.1104 9.30656 16.2267 26.248
542 2 2.2208 13.596 6.30746 19.1619
365 2 2.2208 8.12153 12.0097 13.7973
728 2 2.2208 13.6304 6.43054 24.7879
400 2 2.2208 10.854 12.0147 27.6781
398 2 2.2208 10.7091 6.37421 27.6017
405 2 2.2208 2.33703 20.3431 27.6476
387 2 2.2208 10.8746 0.766551 27.5574
478 2 2.2208 13.6417 20.5183 16.398
350 2 2.2208 -0.271308 20.4874 13.7388
356 2 2.2208 10.7838 -1.98684 13.6074
644 2 2.2208 -0.374962 3.65903 24.6816
605 2 2.2208 13.6574 17.4545 24.8601
372 2 2.2208 10.8917 20.4732 13.7209
371 2 2.2208 5.27851 14.7868 13.7076
379 2 2.2208 8.12811 20.5588 27.6957
364 2 2.2208 10.7477 9.13234 13.6792
361 2 2.2208 2.42202 11.9987 13.7343
360 2 2.2208 5.33728 9.19594 13.8565
751 2 2.2208 5.22335 23.1959 5.16057
753 1 -1.1104 1.23612 24.9452 0.912408
754 1 -1.1104 1.2556 24.6587 3.76315
755 1 -1.1104 1.06819 21.8969 0.920148
756 1 -1.1104 1.14922 27.5394 0.948534
757 2 2.2208 5.27538 26.0059 2.3685
758 1 -1.1104 0.977819 21.8845 3.76691
759 1 -1.1104 1.12341 27.4253 3.68195
760 1 -1.1104 3.82776 24.6157 0.907122
761 2 2.2208 2.50736 23.3562 2.39863
763 1 -1.1104 3.87173 24.691 3.9039
764 2 2.2208 2.563 26.0218 5.29754
765 1 -1.1104 3.80331 21.8363 0.993694
766 1 -1.1104 4.00533 27.4737 1.0139
767 1 -1.1104 3.78765 21.8266 3.64603
768 1 -1.1104 3.90646 27.4208 3.75048
1040 2 2.2208 -0.326099 43.0436 7.98474
771 2 2.2208 -0.269312 25.9975 2.451
899 1 -1.1104 3.88536 21.7756 6.3901
892 1 -1.1104 1.17838 24.3599 6.62287
894 1 -1.1104 1.12585 21.7081 6.72835
770 2 2.2208 -0.247167 23.1974 5.25026
1106 2 2.2208 8.0808 45.5203 13.6009
1112 2 2.2208 10.8294 45.8425 -0.428828
776 1 -1.1104 6.71204 21.9158 3.71534
777 1 -1.1104 6.65286 27.7458 3.69837
773 1 -1.1104 6.59094 24.6594 3.76313
774 1 -1.1104 6.63097 21.6752 0.897604
775 1 -1.1104 6.68817 27.5194 0.701161
772 1 -1.1104 6.46294 24.5773 0.898596
778 2 2.2208 11.0491 23.1265 5.19741
780 1 -1.1104 12.3829 24.774 1.01053
781 1 -1.1104 12.2147 24.5922 3.82586
782 1 -1.1104 12.2054 21.7881 0.972152
784 2 2.2208 10.9744 26.2018 2.45186
785 1 -1.1104 12.4355 21.841 3.82163
787 1 -1.1104 9.29921 24.7342 0.951376
788 2 2.2208 8.18045 23.2317 2.42905
790 1 -1.1104 9.62517 24.7141 3.64997
791 2 2.2208 8.11488 26.0348 5.23214
792 1 -1.1104 9.47401 21.8637 0.945947
794 1 -1.1104 9.74245 21.8335 3.79018
783 1 -1.1104 12.331 27.5407 0.961466
793 1 -1.1104 9.47009 27.5263 0.952493
928 1 -1.1104 9.61544 24.739 6.48342
927 1 -1.1104 12.3089 27.5823 6.51321
897 1 -1.1104 6.56527 27.2722 6.56596
925 1 -1.1104 12.4203 24.8758 6.55792
893 1 -1.1104 6.6973 24.646 6.4532
929 1 -1.1104 9.48896 22.0158 6.56992
926 1 -1.1104 12.3919 21.9061 6.71646
1484 1 -1.1104 6.64201 47.2922 3.81804
752 2 2.2208 5.40283 28.8085 5.34046
762 2 2.2208 2.58197 28.8221 2.36197
1074 2 2.2208 -0.281045 26.0039 8.06702
800 1 -1.1104 0.906021 30.3736 1.09449
803 1 -1.1104 0.928429 30.1821 3.90779
806 1 -1.1104 1.18924 33.0551 1.00781
807 2 2.2208 5.41782 31.8204 2.36922
809 1 -1.1104 1.20542 33.0813 3.92068
811 1 -1.1104 3.80715 30.171 1.09041
814 1 -1.1104 4.04583 30.3818 3.78838
816 2 2.2208 2.58751 31.5333 5.0568
818 1 -1.1104 3.92638 33.0513 0.888994
819 1 -1.1104 3.93236 33.226 3.68061
822 2 2.2208 -0.299395 31.7204 2.56494
869 2 2.2208 -0.168706 43.0378 2.42347
1045 1 -1.1104 9.50176 44.3318 12.3904
955 1 -1.1104 4.08687 30.3174 6.34098
957 1 -1.1104 3.85239 32.9147 6.53183
953 1 -1.1104 1.073 32.8398 6.65814
1092 2 2.2208 5.30144 37.1288 13.5351
795 1 -1.1104 9.5437 27.6044 3.8346
786 1 -1.1104 12.3706 27.6147 3.78776
779 2 2.2208 10.9402 28.982 5.19161
789 2 2.2208 8.27582 28.9868 2.51766
954 1 -1.1104 6.62176 33.2455 6.66658
825 1 -1.1104 6.84678 33.1979 1.11923
824 1 -1.1104 6.84029 30.3628 3.77002
823 1 -1.1104 6.99487 30.5716 1.01965
810 1 -1.1104 6.66175 33.0552 3.9565
827 1 -1.1104 12.5404 30.1893 0.934612
829 1 -1.1104 12.3469 30.4488 3.74446
831 1 -1.1104 12.3667 33.2199 0.847648
832 2 2.2208 11.1232 31.8916 2.29104
834 1 -1.1104 12.417 33.3367 3.75416
835 1 -1.1104 9.81947 30.4178 1.21368
838 1 -1.1104 9.55698 30.2455 3.95
840 2 2.2208 8.12441 31.5601 5.27448
842 1 -1.1104 9.44971 33.2115 0.99454
843 1 -1.1104 9.62512 33.1883 3.68232
988 1 -1.1104 9.3155 32.9454 6.67758
951 1 -1.1104 6.95756 30.0839 6.55727
983 1 -1.1104 12.4224 30.2044 6.59695
1028 1 -1.1104 6.97815 41.5597 9.45231
799 2 2.2208 5.26428 34.5601 5.09825
801 1 -1.1104 1.04074 36.1713 0.891402
804 1 -1.1104 1.0898 35.7481 3.75585
808 2 2.2208 5.46976 37.2898 2.45448
812 1 -1.1104 3.93063 35.7315 0.881749
813 2 2.2208 2.52259 34.5628 2.32324
815 1 -1.1104 3.77484 35.9506 3.76654