ITEM: TIMESTEP
10000
ITEM: NUMBER OF ATOMS
17760
ITEM: BOX BOUNDS pp pp pp
-3.3780922616720560e-01 2.7677809226167231e+01
-4.0144440730558184e+00 3.3209444407305398e+02
-3.3298070584036066e-01 2.7672980705840111e+01
ITEM: ATOMS id type q x y z
1 2 2.2208 5.21588 1.73358 5.16443
2 1 -1.1104 0.939542 -2.40483 1.02475
3 1 -1.1104 0.980915 3.06933 0.93741
6 1 -1.1104 1.06368 -2.43395 3.9015
7 1 -1.1104 0.933279 3.02838 3.7585
10 1 -1.1104 1.0736 0.313147 0.968217
12 2 2.2208 5.14525 -1.11665 2.36951
13 2 2.2208 5.26858 4.47955 2.32493
14 1 -1.1104 1.04103 0.33753 3.75591
16 1 -1.1104 3.75112 -2.45865 0.96373
17 1 -1.1104 3.8365 2.98172 0.959456
18 2 2.2208 2.46937 1.61302 2.30878
19 1 -1.1104 3.86022 -2.5322 3.77895
20 1 -1.1104 3.77243 3.08154 3.74228
21 2 2.2208 2.50083 -1.08134 5.22614
22 2 2.2208 2.36457 4.38887 5.12266
23 1 -1.1104 3.87506 0.290753 0.922925
24 1 -1.1104 3.79574 0.300505 3.7662
174 1 -1.1104 3.86075 0.258419 6.57192
170 1 -1.1104 1.06908 0.275503 6.68805
8 1 -1.1104 6.60153 -2.55168 3.83299
9022 2 2.2208 2.39052 -3.89437 2.52588
4 1 -1.1104 6.54207 -2.54788 1.03791
28 2 2.2208 13.645 21.2672 10.8077
166 1 -1.1104 0.983103 -2.49012 6.6587
173 1 -1.1104 3.84852 2.97494 6.58037
167 1 -1.1104 1.05787 3.05223 6.56379
172 1 -1.1104 3.82109 -2.51706 6.60731
9031 2 2.2208 8.03797 -3.95196 8.11145
15 1 -1.1104 6.68222 0.35363 3.8869
11 1 -1.1104 6.61357 0.261942 1.14894
9 1 -1.1104 6.59614 3.08047 3.77911
5 1 -1.1104 6.64385 3.0338 0.927844
9026 2 2.2208 10.8283 -3.93243 5.2644
31 2 2.2208 10.8445 1.56842 5.26704
32 1 -1.1104 12.3043 -2.5896 1.03345
33 1 -1.1104 12.2449 2.97371 0.968209
34 1 -1.1104 12.1558 -2.52311 3.86321
35 1 -1.1104 12.117 3.09604 3.90566
36 1 -1.1104 12.2104 0.208513 1.02457
37 2 2.2208 10.8463 -1.08358 2.42114
38 2 2.2208 10.8025 4.46365 2.35986
39 1 -1.1104 12.1691 0.193231 3.85553
40 1 -1.1104 9.46291 -2.51268 0.919112
41 1 -1.1104 9.42996 3.08626 1.06192
42 2 2.2208 8.0134 1.70168 2.40793
43 1 -1.1104 9.37099 -2.53327 3.77523
44 1 -1.1104 9.43821 3.09681 3.92591
45 2 2.2208 8.06561 -1.12284 5.26198
46 2 2.2208 8.10792 4.47377 5.22374
47 1 -1.1104 9.46911 0.264579 0.987177
48 1 -1.1104 9.47461 0.313196 3.82733
52 2 2.2208 13.6472 10.0226 10.795
9028 2 2.2208 2.39211 -3.8729 8.08341
51 2 2.2208 -0.314307 12.8447 10.8383
168 1 -1.1104 6.66457 -2.57801 6.81401
206 1 -1.1104 12.1911 3.11949 6.73986
205 1 -1.1104 12.3331 -2.45513 6.6981
207 1 -1.1104 12.2333 0.274074 6.60483
209 1 -1.1104 9.3978 3.01174 6.66605
9025 2 2.2208 7.95285 -3.98958 2.41264
361 2 2.2208 10.805 15.7304 13.645
54 2 2.2208 5.24637 7.28507 5.15225
55 2 2.2208 5.19037 12.7866 5.20451
56 1 -1.1104 1.0808 8.63198 1.05126
58 1 -1.1104 1.11687 8.61134 3.85718
60 1 -1.1104 1.0586 5.87374 0.950001
61 1 -1.1104 0.909118 11.2942 1.04561
66 2 2.2208 5.23626 10.0589 2.29334
67 1 -1.1104 1.05432 5.87284 3.76121
68 1 -1.1104 1.0002 11.4328 3.80897
71 1 -1.1104 3.84208 8.61482 0.943476
72 2 2.2208 2.47886 7.27217 2.37963
73 2 2.2208 2.37049 12.7346 2.35342
74 1 -1.1104 3.91553 8.72484 3.74275
75 2 2.2208 2.46126 9.96042 5.28041
76 1 -1.1104 3.86934 5.80732 0.958588
77 1 -1.1104 3.75511 11.3572 0.955392
79 1 -1.1104 3.96599 5.90694 3.68775
80 1 -1.1104 3.8725 11.4056 3.83929
63 1 -1.1104 6.72523 5.85275 0.989697
62 1 -1.1104 1.09036 11.402 6.67352
236 1 -1.1104 1.06911 5.85461 6.62069
9029 2 2.2208 5.19862 -3.91562 10.8635
59 1 -1.1104 6.68995 8.72268 3.73946
64 1 -1.1104 6.66612 11.4902 0.909669
70 1 -1.1104 6.63197 11.3757 3.75153
57 1 -1.1104 6.7189 8.6763 0.893847
234 1 -1.1104 1.0291 8.66252 6.71157
78 1 -1.1104 3.8322 11.4146 6.6425
238 1 -1.1104 3.89413 8.62543 6.5892
65 1 -1.1104 6.64758 11.3861 6.62715
360 2 2.2208 10.8431 21.2554 13.6248
9027 2 2.2208 13.6036 -3.97528 2.44427
235 1 -1.1104 6.60727 8.63023 6.5367
69 1 -1.1104 6.69844 5.90706 3.81008
237 1 -1.1104 6.64842 5.90499 6.6914
84 2 2.2208 10.8553 7.31389 5.1769
85 2 2.2208 10.7772 12.9147 5.34622
86 1 -1.1104 12.2432 8.66497 0.944157
87 1 -1.1104 12.1911 8.50196 3.69118
88 1 -1.1104 12.2682 5.81018 0.98429
89 1 -1.1104 12.1942 11.5437 0.983531
91 2 2.2208 10.8503 10.1011 2.34201
92 1 -1.1104 12.1731 5.81459 3.6965
93 1 -1.1104 12.221 11.4526 3.83648
94 1 -1.1104 9.45607 8.74987 0.995237
95 2 2.2208 8.07309 7.3305 2.33608
96 2 2.2208 8.09219 12.7995 2.39283
97 1 -1.1104 9.52629 8.65018 3.78988
98 2 2.2208 8.06689 9.96236 5.19414
99 1 -1.1104 9.48599 5.90987 0.915563
100 1 -1.1104 9.46389 11.4907 0.929665
102 1 -1.1104 9.39483 5.93241 3.80912
103 1 -1.1104 9.42662 11.4238 3.80518
267 1 -1.1104 9.46067 8.57278 6.62347
265 1 -1.1104 12.2611 8.69391 6.49138
269 1 -1.1104 9.50618 5.80018 6.67317
266 1 -1.1104 12.291 5.89939 6.53057
101 1 -1.1104 9.40296 11.4427 6.60996
90 1 -1.1104 12.1801 11.4516 6.61953
49 2 2.2208 13.5731 1.67254 2.40361
9023 2 2.2208 5.24776 -3.84481 5.2636
331 2 2.2208 10.8334 18.4639 10.8263
106 2 2.2208 5.12824 18.424 5.20265
107 1 -1.1104 0.984 14.1564 1.1188
109 1 -1.1104 1.09917 19.7761 1.03045
113 1 -1.1104 0.869945 14.2111 3.91416
114 1 -1.1104 1.101 19.8667 3.88119
116 1 -1.1104 0.94908 16.9674 0.9019
119 2 2.2208 5.08881 15.5557 2.38416
120 2 2.2208 5.17126 21.202 2.47102
121 1 -1.1104 0.93618 17.0312 3.79377
123 1 -1.1104 3.77208 14.0569 0.956104
125 1 -1.1104 3.84969 19.7947 1.06867
127 2 2.2208 2.30378 18.3941 2.38039
128 1 -1.1104 3.80605 14.1544 3.65974
129 1 -1.1104 3.74745 19.7595 3.73785
130 2 2.2208 2.31134 15.5909 5.14821
131 2 2.2208 2.38708 21.2188 5.3467
132 1 -1.1104 3.69386 16.9046 0.966077
134 1 -1.1104 3.63784 16.868 3.78264
126 1 -1.1104 3.76918 19.8735 6.55608
133 1 -1.1104 3.71644 17.0305 6.50456
138 1 -1.1104 6.62212 19.7714 0.8994
115 1 -1.1104 6.59756 14.2118 3.85758
139 1 -1.1104 6.52689 19.769 3.74176
122 1 -1.1104 6.44698 17.0401 3.81558
140 1 -1.1104 6.64103 17.0022 1.12544
112 1 -1.1104 6.62796 19.8711 6.47015
9032 2 2.2208 10.8311 -3.97235 10.864
124 1 -1.1104 3.80617 14.2919 6.54173
330 1 -1.1104 12.1842 14.2573 12.2325
315 1 -1.1104 9.45266 17.1692 12.1978
346 2 2.2208 10.8656 -1.2767 13.5581
29 2 2.2208 -0.333807 7.22134 10.803
326 1 -1.1104 12.1141 17.0311 12.2876
110 1 -1.1104 6.56874 14.2206 1.12991
141 2 2.2208 10.8876 18.3956 5.21816
142 1 -1.1104 12.2522 14.2072 0.974839
144 1 -1.1104 12.2234 19.7852 0.997838
146 1 -1.1104 12.1987 14.1667 3.82397
147 1 -1.1104 12.2159 19.7408 3.82128
148 1 -1.1104 12.1986 17.0136 1.11842
150 2 2.2208 10.8915 15.5435 2.43019
151 2 2.2208 10.7533 21.1508 2.44191
152 1 -1.1104 12.2024 16.9861 3.81552
153 1 -1.1104 9.52885 14.2043 0.940771
155 1 -1.1104 9.4532 19.9823 0.934815
157 2 2.2208 8.02452 18.3491 2.42336
158 1 -1.1104 9.41753 14.2078 3.71099
159 1 -1.1104 9.40957 19.7769 3.87495
160 2 2.2208 7.92408 15.6263 5.19884
161 2 2.2208 7.99122 21.3168 5.1504
162 1 -1.1104 9.40309 17.0651 0.959058
164 1 -1.1104 9.46227 16.9503 3.84747
149 1 -1.1104 12.2865 17.0302 6.64703
111 1 -1.1104 6.57175 14.2354 6.6256
143 1 -1.1104 12.2311 14.2341 6.71643
163 1 -1.1104 9.3969 17.0568 6.48284
316 2 2.2208 8.03184 21.1773 10.7716
340 2 2.2208 13.5866 1.63037 13.6005
9049 2 2.2208 2.37779 -3.95726 13.6108
50 2 2.2208 13.6092 -1.19831 5.30131
156 1 -1.1104 9.41482 19.8686 6.62307
319 1 -1.1104 9.41216 14.1758 9.35244
169 1 -1.1104 6.55971 2.99999 6.6453
175 2 2.2208 5.30706 1.60676 10.8357
176 1 -1.1104 1.03719 -2.51196 12.1905
177 1 -1.1104 0.928081 2.9556 12.2239
180 1 -1.1104 1.05732 -2.43001 9.3623
181 1 -1.1104 0.994494 3.00312 9.4133
184 1 -1.1104 1.08422 0.233743 12.2856
186 2 2.2208 5.17453 -1.10927 8.04701
187 2 2.2208 5.20421 4.41892 7.99552
188 1 -1.1104 1.09968 0.355273 9.46071
190 1 -1.1104 3.80579 -2.57224 12.2925
191 1 -1.1104 3.76133 3.01423 12.3065
192 2 2.2208 2.42366 1.69239 8.05712
193 1 -1.1104 3.81712 -2.55548 9.54168
194 1 -1.1104 3.80771 2.99823 9.40504
195 2 2.2208 2.43215 -1.08195 10.865
196 2 2.2208 2.46851 4.38554 10.817
197 1 -1.1104 3.8767 0.252153 12.2466
198 1 -1.1104 3.86753 0.332056 9.50081
185 1 -1.1104 6.66269 0.229456 12.3359
182 1 -1.1104 6.57291 -2.57462 9.56133
350 2 2.2208 10.8381 4.46895 13.6157
332 2 2.2208 13.6701 18.3823 8.09104
338 2 2.2208 5.21617 -1.16882 13.61
104 2 2.2208 13.5832 12.8384 2.44335
321 1 -1.1104 9.48348 19.8181 12.2304
322 1 -1.1104 9.38423 14.3609 12.2097
210 1 -1.1104 9.52026 0.251073 6.67103
229 2 2.2208 13.5873 1.52838 7.95679
328 1 -1.1104 12.2793 14.3058 9.46861
183 1 -1.1104 6.66073 3.02381 9.43341
179 1 -1.1104 6.61589 3.09577 12.231
189 1 -1.1104 6.58003 0.203495 9.473
178 1 -1.1104 6.63082 -2.55235 12.2735
171 1 -1.1104 6.75192 0.204116 6.6832
208 1 -1.1104 9.40211 -2.54498 6.61548
211 2 2.2208 10.8208 1.64915 10.7812
212 1 -1.1104 12.2152 -2.64006 12.1769
213 1 -1.1104 12.1852 3.16017 12.2636
214 1 -1.1104 12.3012 -2.6102 9.49044
215 1 -1.1104 12.2998 2.87348 9.47236
216 1 -1.1104 12.2169 0.247905 12.2078
217 2 2.2208 10.8171 -1.09984 8.11218
218 2 2.2208 10.8667 4.41881 8.02759
219 1 -1.1104 12.2416 0.23896 9.4149
220 1 -1.1104 9.3587 -2.60099 12.1851
221 1 -1.1104 9.46783 3.01401 12.2174
222 2 2.2208 8.0151 1.64708 8.0787
223 1 -1.1104 9.44853 -2.53471 9.41724
224 1 -1.1104 9.45425 3.05513 9.44199
225 2 2.2208 8.03987 -1.24089 10.8715
226 2 2.2208 8.04165 4.41392 10.8135
227 1 -1.1104 9.4745 0.200119 12.1677
228 1 -1.1104 9.42861 0.251915 9.48806
318 1 -1.1104 9.37756 19.8665 9.41025
323 1 -1.1104 12.2754 17.1025 9.50263
314 1 -1.1104 9.56033 16.9809 9.37001
341 2 2.2208 5.20758 4.42146 13.66
239 1 -1.1104 3.81112 5.86991 6.45063
351 2 2.2208 2.5001 7.27403 13.6581
240 2 2.2208 5.201 7.29302 10.8256
241 2 2.2208 5.22654 12.831 10.747
242 1 -1.1104 1.17282 8.68758 12.232
244 1 -1.1104 1.03324 8.53644 9.54445
246 1 -1.1104 1.04851 5.78176 12.2537
247 1 -1.1104 1.01484 11.5603 12.2168
250 2 2.2208 5.29405 10.074 8.00324
251 1 -1.1104 1.0036 5.84516 9.35555
252 1 -1.1104 1.00319 11.4523 9.41996
255 1 -1.1104 3.84824 8.72905 12.1345
256 2 2.2208 2.46809 7.28 7.97785
257 2 2.2208 2.45144 12.8658 7.96974
258 1 -1.1104 3.91556 8.69427 9.3426
259 2 2.2208 2.39585 10.0984 10.7815
260 1 -1.1104 3.80719 5.86481 12.2959
261 1 -1.1104 3.78969 11.4631 12.1737
262 1 -1.1104 3.80258 5.81963 9.37982
263 1 -1.1104 3.9001 11.5637 9.34381
254 1 -1.1104 6.6897 11.517 9.38188
249 1 -1.1104 6.46958 11.3708 12.1785
320 2 2.2208 8.01976 18.4686 7.95347
352 2 2.2208 5.20242 10.0141 13.6015
243 1 -1.1104 6.58318 8.64557 12.2097
248 1 -1.1104 6.52933 5.90557 12.2723
324 2 2.2208 10.8203 21.22 7.94612
245 1 -1.1104 6.67311 8.68991 9.46243
253 1 -1.1104 6.61216 5.88502 9.43549
264 1 -1.1104 9.43592 11.4149 9.4524
268 1 -1.1104 9.40893 5.8487 9.57502
270 1 -1.1104 9.40245 11.5169 12.2039
271 1 -1.1104 9.41673 5.7923 12.3
272 2 2.2208 8.05361 10.0796 10.8423
273 1 -1.1104 9.47557 8.62164 9.31991
274 2 2.2208 8.01418 12.8436 7.99674
275 2 2.2208 8.02578 7.20389 8.04898
276 2 2.2208 10.8052 7.2364 10.823
277 2 2.2208 10.8153 12.9202 10.8631
278 1 -1.1104 12.2007 8.76584 12.1397
279 1 -1.1104 12.2154 8.65473 9.43437
280 1 -1.1104 12.3228 5.87808 12.2571
281 1 -1.1104 12.2477 11.4413 12.2591
282 2 2.2208 10.8249 10.0202 8.03429
283 1 -1.1104 12.1475 5.78993 9.4264
284 1 -1.1104 12.1838 11.5182 9.43486
285 1 -1.1104 9.35983 8.62196 12.1893
306 1 -1.1104 6.57869 17.0351 12.0307
337 2 2.2208 -0.3272 4.52751 13.5777
233 2 2.2208 13.4983 4.42947 5.19071
354 2 2.2208 8.00105 7.16723 13.5583
288 1 -1.1104 6.5335 19.7306 9.32283
108 1 -1.1104 0.982873 14.2391 6.69115
117 1 -1.1104 0.964568 16.9302 6.6204
302 1 -1.1104 0.997178 19.7377 6.66795
118 1 -1.1104 6.62998 17.0752 6.6219
297 1 -1.1104 6.6898 14.183 12.215
356 2 2.2208 7.99381 12.8255 13.6373
289 1 -1.1104 6.6963 17.0275 9.35194
305 1 -1.1104 3.86451 14.2959 9.38939
300 2 2.2208 5.18784 18.4091 10.8067
301 1 -1.1104 3.81274 19.7807 9.37601
304 1 -1.1104 3.8406 17.0224 9.43053
303 2 2.2208 2.3467 18.3592 8.04175
298 1 -1.1104 1.04776 19.8158 12.2925
310 2 2.2208 2.46038 15.5927 10.8659
295 2 2.2208 5.23678 15.723 7.97359
309 2 2.2208 2.4276 21.1242 10.8976
308 1 -1.1104 3.84877 17.0209 12.154
307 1 -1.1104 0.973351 16.9456 12.266
299 1 -1.1104 1.07595 14.1788 12.2604
286 1 -1.1104 3.86274 19.8303 12.333
287 1 -1.1104 3.82033 14.1997 12.2307
291 1 -1.1104 1.13407 19.7777 9.44908
292 1 -1.1104 1.00727 16.8811 9.46789
293 2 2.2208 5.17074 21.17 8.01625
294 1 -1.1104 1.0435 14.1663 9.5042
296 1 -1.1104 6.64585 19.7723 12.1481
290 1 -1.1104 6.63487 14.2205 9.42787
317 2 2.2208 8.03693 15.6416 10.7604
325 2 2.2208 10.8353 15.5949 7.97492
327 1 -1.1104 12.2661 19.8657 9.35593
329 1 -1.1104 12.2615 19.859 12.233
154 1 -1.1104 9.39645 14.2409 6.58878
145 1 -1.1104 12.155 19.8097 6.627
200 2 2.2208 -0.301856 -1.06504 7.99257
202 2 2.2208 13.5756 7.24361 8.00376
105 2 2.2208 13.5919 7.17368 2.39852
232 2 2.2208 13.598 10.114 5.16123
165 2 2.2208 13.6048 18.4325 2.4131
203 2 2.2208 13.5829 4.41691 10.812
230 2 2.2208 13.6196 -1.15616 10.8185
53 2 2.2208 13.6465 12.798 8.13337
336 2 2.2208 13.6501 7.22546 13.6686
358 2 2.2208 5.35629 21.2201 13.6373
355 2 2.2208 10.792 10.0403 13.6025
348 2 2.2208 10.7909 18.4091 -0.333393
9041 2 2.2208 5.1983 -3.92172 -0.268526
359 2 2.2208 5.18635 15.6432 13.5901
347 2 2.2208 8.00569 15.6488 -0.3134
362 2 2.2208 8.02175 18.52 13.6253
376 2 2.2208 13.5793 12.9598 13.5909
388 2 2.2208 5.22089 1.6255 16.5043
389 1 -1.1104 0.878841 -2.41057 17.8436
390 1 -1.1104 0.925936 3.12087 17.8243
393 1 -1.1104 1.05888 -2.53985 14.9576
395 1 -1.1104 1.05427 3.0631 14.9645
401 1 -1.1104 1.03087 0.306959 17.8214
403 2 2.2208 5.26896 -1.11147 19.2853
404 2 2.2208 5.19123 4.33262 19.3089
405 1 -1.1104 1.0952 0.210873 15.0647
409 1 -1.1104 3.77458 -2.55659 17.8631
410 1 -1.1104 3.72996 3.04509 17.884
411 2 2.2208 2.36291 1.61557 19.2403
412 1 -1.1104 3.86476 -2.49486 15.05
414 1 -1.1104 3.76418 3.06507 15.1231
416 2 2.2208 2.41931 -1.12508 16.4099
417 2 2.2208 2.39997 4.44647 16.4377
418 1 -1.1104 3.91354 0.234754 17.7956
419 1 -1.1104 3.79125 0.158125 14.9206
396 1 -1.1104 0.957744 2.91515 20.5376
399 1 -1.1104 6.54213 2.88512 15.0939
402 1 -1.1104 6.61473 0.32912 17.9215
407 1 -1.1104 6.71475 0.122696 15.0367
392 1 -1.1104 6.62156 2.9764 17.9508
357 2 2.2208 2.34974 18.3626 13.7745
9188 2 2.2208 5.18943 -3.891 16.4328
9120 2 2.2208 13.5695 -3.89434 24.9057
420 1 -1.1104 3.77738 0.24722 20.6006
415 1 -1.1104 3.80039 2.96767 20.7762
406 1 -1.1104 0.962912 0.221489 20.6741
394 1 -1.1104 0.985873 -2.50299 20.7065
413 1 -1.1104 3.85399 -2.52725 20.7407
408 1 -1.1104 6.71536 0.282285 20.6659
398 1 -1.1104 6.65569 -2.52853 20.6079
397 1 -1.1104 6.61709 -2.57676 15.0534
654 2 2.2208 13.649 1.61547 24.7935
391 1 -1.1104 6.63556 -2.49569 17.8206
422 2 2.2208 13.6011 9.99546 21.9351
431 2 2.2208 10.801 1.58906 16.4491
432 1 -1.1104 12.3488 -2.64432 17.8018
433 1 -1.1104 12.2195 2.93666 17.9407
434 1 -1.1104 12.29 -2.58961 14.9959
436 1 -1.1104 12.1009 2.9692 14.9774
438 1 -1.1104 12.2604 0.0599811 17.8488
439 2 2.2208 10.8182 -1.27416 19.1509
440 2 2.2208 10.8519 4.42898 19.2303
441 1 -1.1104 12.2209 0.245366 15.0188
443 1 -1.1104 9.53786 -2.60232 17.8084
444 1 -1.1104 9.46638 2.98729 17.9838
445 2 2.2208 8.11453 1.61618 19.2751
446 1 -1.1104 9.52808 -2.66591 14.9397
448 1 -1.1104 9.36098 3.01801 15.139
450 2 2.2208 8.02757 -1.19822 16.3969
451 2 2.2208 7.91232 4.38748 16.4741
452 1 -1.1104 9.36669 0.134184 17.7492
453 1 -1.1104 9.4572 0.247461 15.0004
428 2 2.2208 13.6112 1.56637 19.1584
400 1 -1.1104 6.56428 2.98102 20.6483
442 1 -1.1104 12.2512 0.26936 20.6387
454 1 -1.1104 9.50592 0.185108 20.6211
437 1 -1.1104 12.1576 2.98915 20.7264
449 1 -1.1104 9.33166 3.0871 20.7427
9159 2 2.2208 13.6367 -4.02785 19.162
426 2 2.2208 13.5288 10.0093 16.4043
464 2 2.2208 5.20445 7.13786 16.4302
465 2 2.2208 5.18771 12.8011 16.4006
466 1 -1.1104 1.03796 8.63861 17.8391
468 1 -1.1104 1.04871 8.66796 15.1053
472 1 -1.1104 1.03895 5.91359 17.8922
473 1 -1.1104 1.12338 11.4089 17.9954
476 2 2.2208 5.26938 10.0291 19.2715
477 1 -1.1104 1.04772 5.88145 15.1416
479 1 -1.1104 1.02591 11.447 14.9962
485 1 -1.1104 3.83389 8.54208 17.8902
486 2 2.2208 2.46165 7.15044 19.2676
487 2 2.2208 2.40355 12.7808 19.3294
488 1 -1.1104 3.90053 8.57556 15.005
490 2 2.2208 2.48817 10.0255 16.477
491 1 -1.1104 3.827 5.70329 17.8412
492 1 -1.1104 3.87191 11.3757 17.7552
493 1 -1.1104 3.9216 5.75575 15.0396
495 1 -1.1104 3.82034 11.385 15.05
475 1 -1.1104 6.68839 11.3775 17.8176
494 1 -1.1104 3.74993 5.71012 20.6559
489 1 -1.1104 3.91119 8.51232 20.5521
482 1 -1.1104 6.55404 5.89601 20.5559
471 1 -1.1104 6.66405 8.64465 20.6005
467 1 -1.1104 6.55044 8.57912 17.774
483 1 -1.1104 6.63191 11.4694 14.9327
481 1 -1.1104 6.6844 5.74508 15.0476
478 1 -1.1104 0.938661 5.91483 20.587
9121 2 2.2208 2.39179 -3.94474 24.8848
9187 2 2.2208 2.37064 -3.80296 19.2284
622 2 2.2208 -0.31564 9.9386 19.2634
9118 2 2.2208 8.01631 -3.87949 24.9283
9122 2 2.2208 5.23164 -3.87417 22.1349
615 2 2.2208 8.00988 15.6606 22.068
474 1 -1.1104 6.52743 5.76394 17.8858
470 1 -1.1104 6.6385 8.66576 14.9867
500 2 2.2208 10.7799 7.22793 16.4438
501 2 2.2208 10.8082 12.933 16.399
502 1 -1.1104 12.1468 8.64139 17.7429
503 1 -1.1104 12.1987 8.59563 14.9389
505 1 -1.1104 12.1722 5.79223 17.7856
506 1 -1.1104 12.2394 11.4198 17.8616
507 2 2.2208 10.7771 10.1083 19.1708
508 1 -1.1104 12.1351 5.81641 15.0071
510 1 -1.1104 12.0632 11.4867 14.9258
512 1 -1.1104 9.3514 8.60323 17.7201
513 2 2.2208 7.99195 7.23505 19.207
514 2 2.2208 8.07794 12.8605 19.1941
515 1 -1.1104 9.43818 8.65813 14.9575
517 2 2.2208 7.97331 10.0008 16.3789
518 1 -1.1104 9.37499 5.86299 17.7189
519 1 -1.1104 9.43711 11.5127 17.8042
520 1 -1.1104 9.41329 5.69632 15.0957
522 1 -1.1104 9.35392 11.3838 15.0431
511 1 -1.1104 12.2 11.5396 20.6209
523 1 -1.1104 9.43642 11.5699 20.48
521 1 -1.1104 9.41317 5.93061 20.5466
504 1 -1.1104 12.1603 8.6054 20.4599
509 1 -1.1104 12.2505 5.82204 20.6527
463 1 -1.1104 12.2487 14.2348 23.4289
366 2 2.2208 2.41654 4.51952 27.5661
527 2 2.2208 5.28818 18.3725 16.4037
528 1 -1.1104 1.07451 14.1379 17.9452
529 1 -1.1104 1.04972 19.6906 17.7693
532 1 -1.1104 1.05311 14.2035 15.1422
534 1 -1.1104 0.911309 19.5997 15.0772
540 1 -1.1104 0.972256 17.0101 17.8282
542 2 2.2208 5.15883 15.5291 19.2933
543 2 2.2208 5.29469 21.1564 19.1313
544 1 -1.1104 1.13911 16.9678 15.0592
548 1 -1.1104 3.80733 14.1502 17.9082
549 1 -1.1104 3.83928 19.7128 17.7576
550 2 2.2208 2.57197 18.3887 19.1665
551 1 -1.1104 3.86317 14.2861 15.0321
553 1 -1.1104 3.78501 19.7655 15.0463
555 2 2.2208 2.47005 15.5394 16.507
556 2 2.2208 2.36263 21.0818 16.4191
557 1 -1.1104 3.84748 16.9887 17.8468
558 1 -1.1104 3.9108 17.0692 15.0093
552 1 -1.1104 3.86535 14.1779 20.7461
554 1 -1.1104 3.88342 19.9491 20.5517
541 1 -1.1104 6.58004 17.0092 17.8395
536 1 -1.1104 6.60842 14.3255 15.0355
546 1 -1.1104 6.64512 17.0417 14.9274
377 2 2.2208 13.64 -1.11463 27.5986
653 2 2.2208 13.5456 -1.20782 22.0298
579 1 -1.1104 9.48147 14.3615 20.5793
349 2 2.2208 8.01597 21.238 27.6414
586 1 -1.1104 9.4399 17.0901 20.6948
531 1 -1.1104 6.70212 19.8225 17.8265
538 1 -1.1104 6.73096 19.8763 15.066
530 1 -1.1104 6.54696 14.1574 17.8918
563 2 2.2208 10.7551 18.4833 16.41
564 1 -1.1104 12.2986 14.2611 17.8096
565 1 -1.1104 12.2691 19.8262 17.9412
566 1 -1.1104 12.3002 14.3801 15.004
568 1 -1.1104 12.2871 19.9176 15.092
570 1 -1.1104 12.2158 17.1328 17.7232
571 2 2.2208 10.8169 15.7177 19.2211
572 2 2.2208 10.8078 21.2479 19.222
573 1 -1.1104 12.2067 17.0822 15.0418
575 1 -1.1104 9.37253 14.3122 17.8168
576 1 -1.1104 9.43139 19.8492 17.8849
577 2 2.2208 8.02962 18.3973 19.2669
578 1 -1.1104 9.50609 14.2541 14.9854
580 1 -1.1104 9.48967 19.8414 15.0592
582 2 2.2208 7.99128 15.6407 16.3147
583 2 2.2208 8.04047 21.3035 16.4644
584 1 -1.1104 9.35265 17.1019 17.7874
585 1 -1.1104 9.39382 17.0355 14.9483
581 1 -1.1104 9.49869 19.7747 20.6666
547 1 -1.1104 6.6245 16.9414 20.6418
574 1 -1.1104 12.3011 17.097 20.5533
524 1 -1.1104 12.28 16.9587 23.3998
369 2 2.2208 10.78 1.60707 27.607
459 2 2.2208 13.6379 -1.28594 16.3751
378 2 2.2208 13.5973 4.38079 27.5532
372 2 2.2208 8.13775 4.4277 27.5385
455 2 2.2208 13.6119 18.3816 24.9526
591 2 2.2208 5.25522 1.67856 22.0522
592 1 -1.1104 0.981555 -2.5652 23.3865
593 1 -1.1104 1.0179 2.94749 23.3565
596 1 -1.1104 0.982918 -2.60547 26.1638
597 1 -1.1104 0.959972 3.02976 26.1994
600 1 -1.1104 1.10962 0.226635 23.4509
602 2 2.2208 5.3544 -1.08486 24.7664
603 2 2.2208 5.23468 4.39577 24.8312
604 1 -1.1104 1.09184 0.169218 26.2397
606 1 -1.1104 3.83127 -2.48365 23.5303
607 1 -1.1104 3.87511 3.07696 23.4809
608 2 2.2208 2.46348 1.64147 24.7964
609 1 -1.1104 3.8187 -2.50649 26.2856
610 1 -1.1104 3.78508 3.08491 26.2293
611 2 2.2208 2.44758 -1.09864 21.9909
612 2 2.2208 2.34201 4.34208 21.9232
613 1 -1.1104 3.92331 0.219549 23.378
614 1 -1.1104 3.83523 0.375322 26.148
595 1 -1.1104 6.68764 3.04601 23.4237
598 1 -1.1104 6.63637 -2.50207 26.2588
599 1 -1.1104 6.6828 3.12101 26.1959
561 1 -1.1104 9.35104 14.2432 23.382
497 1 -1.1104 12.2568 19.7253 23.4837
587 2 2.2208 8.03983 18.3434 24.9081
9037 2 2.2208 10.8268 -3.98165 27.5994
9119 2 2.2208 10.7763 -3.96732 22.0142
620 1 -1.1104 9.39437 17.0374 26.2878
423 2 2.2208 13.6364 4.32249 21.9848
594 1 -1.1104 6.74953 -2.5045 23.4792
605 1 -1.1104 6.71615 0.203712 26.189
447 1 -1.1104 9.42699 -2.65553 20.5985
373 2 2.2208 2.26648 15.5967 27.563
601 1 -1.1104 6.69357 0.200145 23.3741
435 1 -1.1104 12.1489 -2.45215 20.6425
627 2 2.2208 10.8419 1.54928 22.0593
628 1 -1.1104 12.1655 -2.63269 23.384
629 1 -1.1104 12.1381 2.93322 23.4314
630 1 -1.1104 12.2998 -2.51444 26.1967
631 1 -1.1104 12.2349 2.97827 26.1687
632 1 -1.1104 12.2855 0.205339 23.4205
633 2 2.2208 10.8428 -1.07485 24.8435
634 2 2.2208 10.8266 4.36581 24.7977
635 1 -1.1104 12.2065 0.241128 26.1629
636 1 -1.1104 9.3684 -2.59223 23.4907
637 1 -1.1104 9.37124 3.04839 23.5143
638 2 2.2208 8.00442 1.75201 24.7574
639 1 -1.1104 9.56083 -2.58338 26.1923
640 1 -1.1104 9.4542 2.95511 26.2647
641 2 2.2208 8.10398 -1.14836 22.0123
642 2 2.2208 7.97559 4.51108 22.0157
643 1 -1.1104 9.41653 0.292808 23.4891
644 1 -1.1104 9.4513 0.152607 26.1719
344 2 2.2208 13.6092 15.6166 27.6229
429 2 2.2208 13.595 4.44401 16.4382
484 1 -1.1104 6.68992 11.4834 20.5935
469 1 -1.1104 1.05502 8.66515 20.7057
480 1 -1.1104 0.981674 11.4238 20.6718
496 1 -1.1104 3.79076 11.3435 20.5997
656 2 2.2208 5.26893 7.19183 22.0244
657 2 2.2208 5.29095 12.8289 22.0623
658 1 -1.1104 1.01136 8.57623 23.5392
660 1 -1.1104 1.06696 8.61434 26.2028
662 1 -1.1104 1.03846 5.81703 23.3655
663 1 -1.1104 0.990278 11.3005 23.521
666 2 2.2208 5.25412 10.0193 24.7631
667 1 -1.1104 0.89845 5.88904 26.1627
668 1 -1.1104 0.970612 11.4082 26.275
671 1 -1.1104 3.83743 8.61585 23.3362
672 2 2.2208 2.43105 7.27513 24.8635
673 2 2.2208 2.44007 12.8387 24.8461
674 1 -1.1104 3.88146 8.70373 26.165
675 2 2.2208 2.43634 10.0196 22.039
676 1 -1.1104 3.79388 5.79814 23.5371
677 1 -1.1104 3.90219 11.3699 23.4721
678 1 -1.1104 3.81243 5.95684 26.1928
679 1 -1.1104 3.84267 11.427 26.1956
669 1 -1.1104 6.68997 5.82284 26.1679
664 1 -1.1104 6.63094 5.87646 23.3666
659 1 -1.1104 6.63694 8.6551 23.3561
665 1 -1.1104 6.75902 11.463 23.2976
661 1 -1.1104 6.68934 8.69811 26.0731
9044 2 2.2208 13.6806 -3.99113 13.6901
516 1 -1.1104 9.36279 8.73872 20.552
670 1 -1.1104 6.54055 11.5051 26.0638
687 1 -1.1104 9.38752 11.3671 26.0865
688 1 -1.1104 9.43567 5.80737 26.0927
689 1 -1.1104 9.54021 11.4656 23.3494
690 1 -1.1104 9.4736 5.80871 23.2735
691 2 2.2208 8.12282 10.055 22.0339
692 1 -1.1104 9.50979 8.65297 26.1475
693 2 2.2208 7.99901 12.8499 24.7797
694 2 2.2208 8.11064 7.22217 24.7768
695 2 2.2208 10.7901 7.26609 21.9411
696 2 2.2208 10.8796 12.9578 21.9897
697 1 -1.1104 12.2817 8.59328 23.298
698 1 -1.1104 12.2116 8.61606 26.1818
699 1 -1.1104 12.1865 5.71478 23.3935
700 1 -1.1104 12.374 11.4244 23.298
701 2 2.2208 10.9399 10.074 24.7874
702 1 -1.1104 12.1944 5.75929 26.0921
703 1 -1.1104 12.2731 11.3103 26.2457
704 1 -1.1104 9.53072 8.6166 23.3732
710 2 2.2208 13.5439 7.21062 24.7613
387 2 2.2208 13.6473 9.99398 27.6046
384 2 2.2208 10.8288 7.21715 27.6001
379 2 2.2208 5.23785 7.33483 27.5265
461 2 2.2208 13.5696 21.1744 22.0753
709 1 -1.1104 6.56699 14.1913 23.4832
559 1 -1.1104 3.74636 16.9791 20.5892
537 1 -1.1104 6.727 14.285 20.5782
712 1 -1.1104 6.54532 14.2097 26.2961
680 1 -1.1104 6.70077 16.9875 23.4849
533 1 -1.1104 1.0792 14.2447 20.7108
545 1 -1.1104 1.08949 17.0804 20.7012
535 1 -1.1104 1.10186 19.8514 20.5597
647 2 2.2208 2.49778 15.614 22.0539
649 2 2.2208 2.4215 21.1534 22.0323
652 1 -1.1104 3.89218 17.063 23.3345
655 1 -1.1104 1.01843 16.9184 23.3445
681 1 -1.1104 3.71157 14.2416 26.1921
682 1 -1.1104 3.7185 17.128 26.2666
683 2 2.2208 2.4447 18.3288 24.7595
686 1 -1.1104 3.80084 19.8221 26.2331
705 2 2.2208 5.37881 18.4432 22.119
706 1 -1.1104 1.02344 14.1423 23.585
707 1 -1.1104 1.0439 19.6954 23.3363
711 1 -1.1104 3.84763 19.7738 23.406
713 1 -1.1104 3.84068 14.1429 23.443
715 1 -1.1104 0.985383 19.6852 26.1609
716 1 -1.1104 0.969345 16.9262 26.0921
717 1 -1.1104 0.977785 14.0515 26.2521
719 2 2.2208 5.22638 21.151 24.7863
720 2 2.2208 5.15131 15.6067 24.8661
588 1 -1.1104 6.65385 19.7914 26.2108
718 1 -1.1104 6.72355 19.7969 23.5132
526 2 2.2208 10.8491 21.0934 24.759
374 2 2.2208 5.19586 18.3704 27.6466
589 1 -1.1104 9.35996 14.2975 26.1478
370 2 2.2208 8.05618 -1.20852 27.6103
560 1 -1.1104 12.1113 17.0224 26.2076
539 1 -1.1104 6.6979 19.7653 20.6191
590 1 -1.1104 9.4605 19.7262 26.2262
569 1 -1.1104 12.2948 19.8469 20.5582
567 1 -1.1104 12.3234 14.2759 20.558
617 1 -1.1104 9.45021 16.8745 23.4847
462 2 2.2208 10.9399 18.4402 21.993
498 1 -1.1104 12.1805 14.2266 26.2491
562 1 -1.1104 9.48018 19.6281 23.4779
525 2 2.2208 10.816 15.6615 24.8051
499 1 -1.1104 12.2543 19.7685 26.2735
616 2 2.2208 8.06112 21.2343 22.0079
714 1 -1.1104 6.57021 16.9782 26.2302
364 2 2.2208 5.18587 1.65671 27.6579
457 2 2.2208 -0.322281 15.6595 19.2597
365 2 2.2208 2.44977 -1.15205 27.5909
619 2 2.2208 13.6583 15.7189 16.4512
651 2 2.2208 13.5699 7.15029 19.15
368 2 2.2208 -0.314487 1.642 27.5582
621 2 2.2208 -0.32128 7.24693 16.4488
386 2 2.2208 10.7695 12.8305 27.5201
375 2 2.2208 2.43879 21.1068 27.6601
353 2 2.2208 2.41377 12.854 13.6932
343 2 2.2208 7.9926 1.60449 13.7182
339 2 2.2208 2.42698 1.61982 13.6888
367 2 2.2208 -0.347926 10.0665 13.7004
381 2 2.2208 5.25248 12.8244 27.5699
363 2 2.2208 13.583 18.4891 13.6587
380 2 2.2208 2.3527 10.0425 27.6215
345 2 2.2208 13.6057 21.1981 27.5557
385 2 2.2208 8.05444 10.0942 27.5109
721 2 2.2208 5.22228 24.0185 5.18504
722 2 2.2208 5.16018 29.6024 5.175
723 1 -1.1104 0.956094 25.3275 1.18302
724 1 -1.1104 1.01188 25.4248 4.02024
725 1 -1.1104 0.992713 22.5228 1.02797
726 1 -1.1104 0.989441 28.0347 1.10864
727 2 2.2208 5.22064 26.6264 2.45264
728 1 -1.1104 1.00831 22.5996 3.90053
729 1 -1.1104 1.06041 28.2581 3.94625
730 1 -1.1104 3.78769 25.3603 1.08776
731 2 2.2208 2.38584 23.9672 2.55406
732 2 2.2208 2.44041 29.5074 2.49574
733 1 -1.1104 3.79851 25.4722 3.86378
734 2 2.2208 2.41101 26.7899 5.3806
735 1 -1.1104 3.78457 22.5923 1.07027
736 1 -1.1104 3.82868 27.99 1.06338
737 1 -1.1104 3.75974 22.6028 3.91414
738 1 -1.1104 3.78009 28.1229 3.90056
743 1 -1.1104 6.58354 25.3348 3.78555
745 1 -1.1104 6.72681 28.1123 1.02525
863 1 -1.1104 6.55671 25.4457 6.61544
867 1 -1.1104 6.50208 28.1016 6.56026
866 1 -1.1104 6.62239 22.6473 6.59992
868 1 -1.1104 3.76526 25.4264 6.64237
864 1 -1.1104 1.03027 22.5398 6.71215
869 1 -1.1104 3.84146 22.6136 6.77555
768 2 2.2208 13.6246 26.7699 5.21791
997 1 -1.1104 6.9224 42.3921 12.2454
1034 2 2.2208 13.517 43.5851 5.34451
1660 1 -1.1104 9.42853 47.673 12.2761
744 1 -1.1104 6.57512 22.5428 0.96807
746 1 -1.1104 6.61596 22.6762 3.7599
742 1 -1.1104 6.67458 25.2878 1.06247
747 1 -1.1104 6.57416 28.0991 3.70766
748 2 2.2208 10.8905 24.0209 5.15857
749 2 2.2208 10.7671 29.6282 5.17549
750 1 -1.1104 12.2388 25.3445 1.02366
751 1 -1.1104 12.2468 25.4024 3.85618
752 1 -1.1104 12.2196 22.5685 1.05769
753 1 -1.1104 12.3221 28.1784 0.962707
754 2 2.2208 10.8553 26.8498 2.39114
755 1 -1.1104 12.2942 22.5925 3.88507
756 1 -1.1104 12.2666 28.2712 3.72535
757 1 -1.1104 9.4089 25.3529 0.860666
758 2 2.2208 8.08386 23.979 2.38783
759 2 2.2208 8.02035 29.566 2.3379
760 1 -1.1104 9.43923 25.3075 3.7348
761 2 2.2208 7.96459 26.7389 5.16621
762 1 -1.1104 9.33849 22.6878 0.954356
763 1 -1.1104 9.45208 28.1723 0.940817
764 1 -1.1104 9.43189 22.5651 3.72884
765 1 -1.1104 9.51159 28.2249 3.76701
898 1 -1.1104 9.41657 25.2287 6.53641
900 1 -1.1104 9.36052 28.0762 6.51241
899 1 -1.1104 9.41172 22.5836 6.50096
897 1 -1.1104 12.1491 28.141 6.66207
1015 2 2.2208 7.95685 40.8933 8.03739
1650 1 -1.1104 12.2793 47.6691 12.2481
1049 2 2.2208 7.9978 29.6724 13.5376
769 2 2.2208 5.13461 35.1727 5.31092
770 1 -1.1104 1.0085 30.9565 1.05812
771 1 -1.1104 0.995957 36.6033 1.14575
773 1 -1.1104 1.0595 30.9262 3.8825
774 1 -1.1104 0.964561 36.5408 3.93348
776 1 -1.1104 1.05544 33.7144 1.01661
777 2 2.2208 5.23894 32.3014 2.39952
778 2 2.2208 5.16458 38.0044 2.4676
779 1 -1.1104 1.02695 33.7912 3.87849
781 1 -1.1104 3.77597 30.8972 1.04063
782 1 -1.1104 3.79356 36.5812 1.07986
783 2 2.2208 2.42629 35.1768 2.50107
784 1 -1.1104 3.82078 30.9408 3.74358
785 1 -1.1104 3.65806 36.5484 3.82887
786 2 2.2208 2.46852 32.3699 5.28085
787 2 2.2208 2.28554 38.0888 5.27253
788 1 -1.1104 3.86412 33.7751 1.13261
789 1 -1.1104 3.8491 33.7177 3.86117
921 1 -1.1104 6.51303 30.9439 6.59453
775 1 -1.1104 6.46537 36.6295 3.92295
772 1 -1.1104 6.60135 36.5731 1.05504
1078 2 2.2208 2.37251 37.9232 -0.240743
924 1 -1.1104 6.60759 33.7108 6.63969
927 1 -1.1104 3.80403 33.6831 6.68111
923 1 -1.1104 1.05926 33.8146 6.68364
780 1 -1.1104 6.5555 33.696 3.83841
794 1 -1.1104 6.63692 30.9861 3.79746
793 1 -1.1104 6.56924 30.8252 0.987048
1036 2 2.2208 13.5223 29.5676 8.10551
814 2 2.2208 13.5947 35.1681 2.42914
1080 2 2.2208 5.22018 35.1775 -0.2902
1091 2 2.2208 5.17448 40.6785 -0.286012
1084 2 2.2208 8.05185 38.0181 -0.301002
795 1 -1.1104 6.63482 33.7108 1.04022
796 2 2.2208 10.82 35.1957 5.32181
797 1 -1.1104 12.3025 30.9672 0.929121
798 1 -1.1104 12.1828 36.6259 1.02091