LAMMPS (29 Oct 2020)
OMP_NUM_THREADS environment is not set. Defaulting to 1 thread. (../comm.cpp:94)
  using 1 OpenMP thread(s) per MPI task
OMP_NUM_THREADS environment is not set. Defaulting to 1 thread. (../comm.cpp:94)
  using 1 OpenMP thread(s) per MPI task
Reading data file ...
  orthogonal box = (-0.27717828 -3.4472206 -0.27717828) to (27.617178 331.52722 27.617178)
  2 by 13 by 2 MPI processor grid
  reading atoms ...
  18000 atoms
  reading velocities ...
  18000 velocities
Finding 1-2 1-3 1-4 neighbors ...
  special bond factors lj:    0.0      0.0      0.0     
  special bond factors coul:  0.0      0.0      0.0     
     0 = max # of 1-2 neighbors
     0 = max # of 1-3 neighbors
     0 = max # of 1-4 neighbors
     1 = max # of special neighbors
  special bonds CPU = 0.004 seconds
  read_data CPU = 0.078 seconds
131 atoms in group sphere
8 atoms in group oxygen
3 atoms in group thorium
120 atoms in group cluster
6000 atoms in group Th
12000 atoms in group O
40 atoms in group Th_group
80 atoms in group O_group
Setting atom values ...
  10 settings made for type/subset
10 atoms in group Xe
110 atoms in group delete
WARNING: Ignoring 'compress yes' for molecular system (../delete_atoms.cpp:125)
Deleted 110 atoms, new total = 17890
131 atoms in group sphere
8 atoms in group oxygen
3 atoms in group thorium
120 atoms in group cluster
5960 atoms in group Th
11920 atoms in group O
40 atoms in group Th_group
80 atoms in group O_group
Setting atom values ...
  10 settings made for type/subset
20 atoms in group Xe
110 atoms in group delete
WARNING: Ignoring 'compress yes' for molecular system (../delete_atoms.cpp:125)
Deleted 110 atoms, new total = 17780
131 atoms in group sphere
8 atoms in group oxygen
3 atoms in group thorium
120 atoms in group cluster
5920 atoms in group Th
11840 atoms in group O
40 atoms in group Th_group
80 atoms in group O_group
Setting atom values ...
  10 settings made for type/subset
30 atoms in group Xe
110 atoms in group delete
WARNING: Ignoring 'compress yes' for molecular system (../delete_atoms.cpp:125)
Deleted 110 atoms, new total = 17670
Setting atom values ...
  11760 settings made for charge
Setting atom values ...
  5880 settings made for charge
Setting atom values ...
  30 settings made for charge
WARNING: 13 of 1000 force values in table Xe-Xe are inconsistent with -dE/dr.
  Should only be flagged at inflection points (../pair_table.cpp:461)
WARNING: 2 of 1000 force values in table Xe-O are inconsistent with -dE/dr.
  Should only be flagged at inflection points (../pair_table.cpp:461)
WARNING: 2 of 1000 force values in table Xe-Th are inconsistent with -dE/dr.
  Should only be flagged at inflection points (../pair_table.cpp:461)
PPPM initialization ...
  using 12-bit tables for long-range coulomb (../kspace.cpp:328)
  G vector (1/distance) = 0.29911933
  grid = 40 240 40
  stencil order = 5
  estimated absolute RMS force accuracy = 0.0001536463
  estimated relative force accuracy = 1.0670145e-05
  using single precision MKL FFT
  3d grid and FFT values/proc = 18225 7600
Neighbor list info ...
  update every 1 steps, delay 0 steps, check yes
  max neighbors/atom: 2000, page size: 100000
  master list distance cutoff = 13
  ghost atom cutoff = 13
  binsize = 6.5, bins = 5 52 5
  3 neighbor lists, perpetual/occasional/extra = 3 0 0
  (1) pair coul/long, perpetual
      attributes: half, newton on
      pair build: half/bin/newton
      stencil: half/bin/3d/newton
      bin: standard
  (2) pair eam/alloy, perpetual, skip from (1)
      attributes: half, newton on
      pair build: skip
      stencil: none
      bin: none
  (3) pair table, perpetual, skip from (1)
      attributes: half, newton on
      pair build: skip
      stencil: none
      bin: none
Setting up cg style minimization ...
  Unit style    : metal
  Current step  : 0
WARNING: Energy due to 3 extra global DOFs will be included in minimizer energies
Per MPI rank memory allocation (min/avg/max) = 10.34 | 10.98 | 11.16 Mbytes
Step Temp E_pair E_mol TotEng Press Volume 
       0            0   -231567.46            0   -231567.46   -226.53142    260641.98 
      54            0   -231802.24            0   -231802.24   -164.15185    260863.62 
Loop time of 1.41587 on 52 procs for 54 steps with 17670 atoms

98.8% CPU use with 52 MPI tasks x 1 OpenMP threads

Minimization stats:
  Stopping criterion = linesearch alpha is zero
  Energy initial, next-to-last, final = 
     -231567.463417582  -231802.238189767  -231802.238189767
  Force two-norm initial, final = 299.61495 65.387180
  Force max component initial, final = 259.89634 58.986607
  Final line search alpha, max atom move = 2.5689739e-12 1.5153505e-10
  Iterations, force evaluations = 54 125

MPI task timing breakdown:
Section |  min time  |  avg time  |  max time  |%varavg| %total
---------------------------------------------------------------
Pair    | 0.77148    | 0.8244     | 0.91605    |   3.6 | 58.23
Bond    | 9.8459e-06 | 1.5585e-05 | 2.2799e-05 |   0.0 |  0.00
Kspace  | 0.23218    | 0.32366    | 0.37698    |   5.8 | 22.86
Neigh   | 0          | 0          | 0          |   0.0 |  0.00
Comm    | 0.018985   | 0.020384   | 0.021191   |   0.3 |  1.44
Output  | 0          | 0          | 0          |   0.0 |  0.00
Modify  | 0          | 0          | 0          |   0.0 |  0.00
Other   |            | 0.2474     |            |       | 17.47

Nlocal:        339.808 ave         404 max         294 min
Histogram: 6 6 5 10 3 9 6 4 1 2
Nghost:        5555.58 ave        5833 max        5304 min
Histogram: 14 2 1 4 4 3 6 10 5 3
Neighs:       107928.0 ave      130396 max       85665 min
Histogram: 3 2 7 6 7 9 8 4 4 2

Total # of neighbors = 5612245
Ave neighs/atom = 317.61432
Ave special neighs/atom = 0.0000000
Neighbor list builds = 0
Dangerous builds = 0
Resetting atom IDs ...
PPPM initialization ...
  using 12-bit tables for long-range coulomb (../kspace.cpp:328)
  G vector (1/distance) = 0.29911047
  grid = 40 240 40
  stencil order = 5
  estimated absolute RMS force accuracy = 0.00015368444
  estimated relative force accuracy = 1.0672794e-05
  using single precision MKL FFT
  3d grid and FFT values/proc = 18225 7600
Neighbor list info ...
  update every 1 steps, delay 0 steps, check yes
  max neighbors/atom: 2000, page size: 100000
  master list distance cutoff = 13
  ghost atom cutoff = 13
  binsize = 6.5, bins = 5 52 5
  3 neighbor lists, perpetual/occasional/extra = 3 0 0
  (1) pair coul/long, perpetual
      attributes: half, newton on
      pair build: half/bin/newton
      stencil: half/bin/3d/newton
      bin: standard
  (2) pair eam/alloy, perpetual, skip from (1)
      attributes: half, newton on
      pair build: skip
      stencil: none
      bin: none
  (3) pair table, perpetual, skip from (1)
      attributes: half, newton on
      pair build: skip
      stencil: none
      bin: none
Finding 1-2 1-3 1-4 neighbors ...
  special bond factors lj:    0.0      0.0      0.0     
  special bond factors coul:  0.0      0.0      0.0     
     0 = max # of 1-2 neighbors
     0 = max # of 1-3 neighbors
     0 = max # of 1-4 neighbors
     1 = max # of special neighbors
  special bonds CPU = 0.001 seconds
PPPM initialization ...
  using 12-bit tables for long-range coulomb (../kspace.cpp:328)
  G vector (1/distance) = 0.29911047
  grid = 40 240 40
  stencil order = 5
  estimated absolute RMS force accuracy = 0.00015368444
  estimated relative force accuracy = 1.0672794e-05
  using single precision MKL FFT
  3d grid and FFT values/proc = 18225 7600
Neighbor list info ...
  update every 1 steps, delay 0 steps, check yes
  max neighbors/atom: 2000, page size: 100000
  master list distance cutoff = 13
  ghost atom cutoff = 13
  binsize = 6.5, bins = 5 52 5
  3 neighbor lists, perpetual/occasional/extra = 3 0 0
  (1) pair coul/long, perpetual
      attributes: half, newton on
      pair build: half/bin/newton
      stencil: half/bin/3d/newton
      bin: standard
  (2) pair eam/alloy, perpetual, skip from (1)
      attributes: half, newton on
      pair build: skip
      stencil: none
      bin: none
  (3) pair table, perpetual, skip from (1)
      attributes: half, newton on
      pair build: skip
      stencil: none
      bin: none
Setting up Verlet run ...
  Unit style    : metal
  Current step  : 54
  Time step     : 0.001
Per MPI rank memory allocation (min/avg/max) = 9.220 | 9.878 | 10.04 Mbytes
Step Dt Time Atoms Temp PotEng KinEng Press Volume 
      54        0.001            0    17670          600   -231802.24    1370.3385    5446.7396    260863.62 
   20000        0.001       19.946    17670    606.00414   -230495.75    1384.0513    142.17568    265017.98 
   40000        0.001       39.946    17670     597.8282   -230490.81    1365.3783    156.64242    264928.35 
   60000        0.001       59.946    17670    605.39127   -230507.42    1382.6516    1129.4899    264759.01 
   80000        0.001       79.946    17670    602.63307   -230505.11    1376.3522    -626.9421    265029.99 
  100000        0.001       99.946    17670    598.25964   -230512.26    1366.3637   -24.968827    264962.71 
  100054        0.001          100    17670    596.57396   -230511.39    1362.5138    274.01762    264925.43 
Loop time of 810.688 on 52 procs for 100000 steps with 17670 atoms

Performance: 10.658 ns/day, 2.252 hours/ns, 123.352 timesteps/s
99.8% CPU use with 52 MPI tasks x 1 OpenMP threads

MPI task timing breakdown:
Section |  min time  |  avg time  |  max time  |%varavg| %total
---------------------------------------------------------------
Pair    | 486.73     | 507.54     | 534.05     |  51.7 | 62.61
Bond    | 0.010063   | 0.016839   | 0.028373   |   2.6 |  0.00
Kspace  | 163.83     | 190.6      | 211.29     |  85.5 | 23.51
Neigh   | 2.6584     | 2.99       | 3.2561     |   7.7 |  0.37
Comm    | 15.996     | 16.607     | 17.371     |   8.6 |  2.05
Output  | 0.033507   | 0.033534   | 0.034682   |   0.1 |  0.00
Modify  | 79.803     | 84.422     | 88.305     |  24.5 | 10.41
Other   |            | 8.474      |            |       |  1.05

Nlocal:        339.808 ave         364 max         316 min
Histogram: 3 3 3 7 9 11 8 4 0 4
Nghost:        5516.65 ave        5703 max        5308 min
Histogram: 18 2 0 1 3 3 1 4 0 20
Neighs:       107286.0 ave      116635 max       90264 min
Histogram: 1 0 5 4 1 3 12 18 4 4

Total # of neighbors = 5578883
Ave neighs/atom = 315.72626
Ave special neighs/atom = 0.0000000
Neighbor list builds = 969
Dangerous builds = 0
System init for write_data ...
PPPM initialization ...
  using 12-bit tables for long-range coulomb (../kspace.cpp:328)
  G vector (1/distance) = 0.29882715
  grid = 40 240 40
  stencil order = 5
  estimated absolute RMS force accuracy = 0.00015595355
  estimated relative force accuracy = 1.0830374e-05
  using single precision MKL FFT
  3d grid and FFT values/proc = 18225 7600
Neighbor list info ...
  update every 1 steps, delay 0 steps, check yes
  max neighbors/atom: 2000, page size: 100000
  master list distance cutoff = 13
  ghost atom cutoff = 13
  binsize = 6.5, bins = 5 52 5
  3 neighbor lists, perpetual/occasional/extra = 3 0 0
  (1) pair coul/long, perpetual
      attributes: half, newton on
      pair build: half/bin/newton
      stencil: half/bin/3d/newton
      bin: standard
  (2) pair eam/alloy, perpetual, skip from (1)
      attributes: half, newton on
      pair build: skip
      stencil: none
      bin: none
  (3) pair table, perpetual, skip from (1)
      attributes: half, newton on
      pair build: skip
      stencil: none
      bin: none
Total wall time: 0:13:32
