LAMMPS (29 Oct 2020)
OMP_NUM_THREADS environment is not set. Defaulting to 1 thread. (../comm.cpp:94)
  using 1 OpenMP thread(s) per MPI task
OMP_NUM_THREADS environment is not set. Defaulting to 1 thread. (../comm.cpp:94)
  using 1 OpenMP thread(s) per MPI task
Reading data file ...
  orthogonal box = (-0.44150644 -5.2857301 -0.44599121) to (27.781506 333.36573 27.785991)
  2 by 13 by 2 MPI processor grid
  reading atoms ...
  17700 atoms
  reading velocities ...
  17700 velocities
Finding 1-2 1-3 1-4 neighbors ...
  special bond factors lj:    0.0      0.0      0.0     
  special bond factors coul:  0.0      0.0      0.0     
     0 = max # of 1-2 neighbors
     0 = max # of 1-3 neighbors
     0 = max # of 1-4 neighbors
     1 = max # of special neighbors
  special bonds CPU = 0.004 seconds
  read_data CPU = 0.080 seconds
WARNING: 13 of 1000 force values in table Xe-Xe are inconsistent with -dE/dr.
  Should only be flagged at inflection points (../pair_table.cpp:461)
WARNING: 2 of 1000 force values in table Xe-O are inconsistent with -dE/dr.
  Should only be flagged at inflection points (../pair_table.cpp:461)
WARNING: 2 of 1000 force values in table Xe-Th are inconsistent with -dE/dr.
  Should only be flagged at inflection points (../pair_table.cpp:461)
Setting atom values ...
  11760 settings made for charge
Setting atom values ...
  5880 settings made for charge
Setting atom values ...
  60 settings made for charge
PPPM initialization ...
  using 12-bit tables for long-range coulomb (../kspace.cpp:328)
  G vector (1/distance) = 0.29848558
  grid = 40 240 40
  stencil order = 5
  estimated absolute RMS force accuracy = 0.00015857524
  estimated relative force accuracy = 1.1012441e-05
  using single precision MKL FFT
  3d grid and FFT values/proc = 18225 7600
Neighbor list info ...
  update every 1 steps, delay 0 steps, check yes
  max neighbors/atom: 2000, page size: 100000
  master list distance cutoff = 13
  ghost atom cutoff = 13
  binsize = 6.5, bins = 5 53 5
  3 neighbor lists, perpetual/occasional/extra = 3 0 0
  (1) pair coul/long, perpetual
      attributes: half, newton on
      pair build: half/bin/newton
      stencil: half/bin/3d/newton
      bin: standard
  (2) pair eam/alloy, perpetual, skip from (1)
      attributes: half, newton on
      pair build: skip
      stencil: none
      bin: none
  (3) pair table, perpetual, skip from (1)
      attributes: half, newton on
      pair build: skip
      stencil: none
      bin: none
Setting up Verlet run ...
  Unit style    : metal
  Current step  : 0
  Time step     : 0.001
Per MPI rank memory allocation (min/avg/max) = 9.238 | 9.889 | 10.03 Mbytes
Step Temp E_pair E_mol TotEng Press 
       0         1200   -229045.73            0    -226300.4    127.49965 
   50000    1199.2119   -229043.54            0   -226300.02  -0.15988613 
Loop time of 351.956 on 52 procs for 50000 steps with 17700 atoms

Performance: 12.274 ns/day, 1.955 hours/ns, 142.063 timesteps/s
99.8% CPU use with 52 MPI tasks x 1 OpenMP threads

MPI task timing breakdown:
Section |  min time  |  avg time  |  max time  |%varavg| %total
---------------------------------------------------------------
Pair    | 247.48     | 264        | 269.91     |  30.2 | 75.01
Bond    | 0.0036449  | 0.0063693  | 0.010924   |   1.8 |  0.00
Kspace  | 68.845     | 74.391     | 90.608     |  55.3 | 21.14
Neigh   | 2.8514     | 3.4725     | 3.7119     |  12.0 |  0.99
Comm    | 6.9991     | 7.588      | 8.4008     |  13.1 |  2.16
Output  | 5.5278e-05 | 6.0511e-05 | 0.00027688 |   0.0 |  0.00
Modify  | 0.97079    | 1.8091     | 2.6692     |  44.9 |  0.51
Other   |            | 0.685      |            |       |  0.19

Nlocal:        340.385 ave         363 max         301 min
Histogram: 2 4 2 0 0 9 14 10 5 6
Nghost:        5451.69 ave        5646 max        5158 min
Histogram: 4 4 1 6 1 4 12 6 3 11
Neighs:       104965.0 ave      113543 max       80064 min
Histogram: 2 2 0 2 2 0 4 13 16 11

Total # of neighbors = 5458157
Ave neighs/atom = 308.37045
Ave special neighs/atom = 0.0000000
Neighbor list builds = 1173
Dangerous builds = 0
11760 atoms in group oxygen
PPPM initialization ...
  using 12-bit tables for long-range coulomb (../kspace.cpp:328)
  G vector (1/distance) = 0.29848558
  grid = 40 240 40
  stencil order = 5
  estimated absolute RMS force accuracy = 0.00015857524
  estimated relative force accuracy = 1.1012441e-05
  using single precision MKL FFT
  3d grid and FFT values/proc = 18225 7600
Neighbor list info ...
  update every 1 steps, delay 0 steps, check yes
  max neighbors/atom: 2000, page size: 100000
  master list distance cutoff = 13
  ghost atom cutoff = 13
  binsize = 6.5, bins = 5 53 5
  3 neighbor lists, perpetual/occasional/extra = 3 0 0
  (1) pair coul/long, perpetual
      attributes: half, newton on
      pair build: half/bin/newton
      stencil: half/bin/3d/newton
      bin: standard
  (2) pair eam/alloy, perpetual, skip from (1)
      attributes: half, newton on
      pair build: skip
      stencil: none
      bin: none
  (3) pair table, perpetual, skip from (1)
      attributes: half, newton on
      pair build: skip
      stencil: none
      bin: none
Setting up Verlet run ...
  Unit style    : metal
  Current step  : 0
  Time step     : 0.001
Per MPI rank memory allocation (min/avg/max) = 9.488 | 10.14 | 10.28 Mbytes
Step f_2 Temp v_Tdiff v_deltaT 
       0            0    1199.2119            0            0 
  100000    1328.1727    1203.4266   0.04920266    571.23831 
  200000    2602.8433    1194.3323  0.059291858    688.37296 
  300000    3865.2942    1200.8821  0.058377522    677.75761 
  400000    5126.5683    1210.8041  0.058300292    676.86098 
  500000    6402.0242     1198.752  0.057685215    669.71999 
  600000     7659.015    1209.1531  0.058945649    684.35351 
  700000    8926.3202      1212.29  0.058272256    676.53548 
  800000     10197.99    1200.6511  0.059143913    686.65534 
  900000    11456.543    1206.4396  0.057760774    670.59723 
 1000000    12714.449    1209.1686  0.060339668    700.53795 
Loop time of 7059.99 on 52 procs for 1000000 steps with 17700 atoms

Performance: 12.238 ns/day, 1.961 hours/ns, 141.643 timesteps/s
99.8% CPU use with 52 MPI tasks x 1 OpenMP threads

MPI task timing breakdown:
Section |  min time  |  avg time  |  max time  |%varavg| %total
---------------------------------------------------------------
Pair    | 4926.1     | 5287.7     | 5399       | 150.9 | 74.90
Bond    | 0.073985   | 0.12925    | 0.20811    |   7.4 |  0.00
Kspace  | 1392.5     | 1495.4     | 1851.6     | 275.5 | 21.18
Neigh   | 66.853     | 82.552     | 88.143     |  63.4 |  1.17
Comm    | 139.92     | 153.16     | 178.95     |  75.4 |  2.17
Output  | 0.0010544  | 0.0011101  | 0.0023136  |   0.5 |  0.00
Modify  | 5.6422     | 6.1467     | 6.7501     |  11.2 |  0.09
Other   |            | 34.85      |            |       |  0.49

Nlocal:        340.385 ave         365 max         295 min
Histogram: 2 4 2 0 0 5 13 12 9 5
Nghost:        5486.92 ave        5695 max        5172 min
Histogram: 4 0 4 8 0 0 17 7 4 8
Neighs:       104980.0 ave      113218 max       79853 min
Histogram: 3 1 0 3 1 0 3 8 17 16

Total # of neighbors = 5458954
Ave neighs/atom = 308.41548
Ave special neighs/atom = 0.0000000
Neighbor list builds = 27684
Dangerous builds = 0
Total wall time: 2:03:32
