ITEM: TIMESTEP
100000
ITEM: NUMBER OF ATOMS
17700
ITEM: BOX BOUNDS pp pp pp
-4.4899218129624613e-01 2.7788992181296859e+01
-5.2956888348279998e+00 3.3337568883484045e+02
-4.3258558635016131e-01 2.7772585586349351e+01
ITEM: ATOMS id type q x y z
1 2 2.2208 5.51123 0.185238 5.19167
2 1 -1.1104 1.17426 -3.91641 1.02116
6 1 -1.1104 1.13514 -3.91667 3.88882
10 1 -1.1104 1.33978 -1.14452 1.11507
12 2 2.2208 5.38946 -2.60912 2.53442
14 1 -1.1104 1.17857 -1.17953 3.78116
16 1 -1.1104 3.91911 -3.94144 1.22469
18 2 2.2208 2.51016 0.335083 2.41551
19 1 -1.1104 4.0066 -3.93961 3.9611
21 2 2.2208 2.60344 -2.64976 5.22728
23 1 -1.1104 3.97775 -1.05137 1.23737
24 1 -1.1104 4.11268 -1.13561 4.03841
8 1 -1.1104 6.93078 -4.16383 3.84042
11 1 -1.1104 6.75255 -1.41788 1.12132
8473 2 2.2208 -0.286328 14.4981 2.42312
4 1 -1.1104 6.82685 -4.21519 1.02763
168 1 -1.1104 6.7632 -3.99395 6.67341
174 1 -1.1104 3.93033 -1.14858 6.86456
201 2 2.2208 -0.206221 0.146865 11.0973
353 2 2.2208 2.57793 3.14168 -0.425188
351 2 2.2208 5.39767 0.25899 -0.373162
15 1 -1.1104 6.97563 -1.21245 3.82075
31 2 2.2208 11.0399 0.102259 5.34705
32 1 -1.1104 12.3183 -3.93973 1.15726
34 1 -1.1104 12.6259 -3.66067 3.89051
36 1 -1.1104 12.6138 -1.11756 1.03109
37 2 2.2208 11.0178 -2.52448 2.56109
39 1 -1.1104 12.5974 -1.05681 3.97614
40 1 -1.1104 9.59951 -4.08325 1.1763
42 2 2.2208 8.31922 0.107934 2.4836
43 1 -1.1104 9.81744 -4.18218 3.96076
45 2 2.2208 8.23854 -2.65272 5.48992
47 1 -1.1104 9.72942 -1.22733 1.04469
48 1 -1.1104 9.54694 -1.23351 3.95719
205 1 -1.1104 12.5563 -3.92436 6.61067
8472 2 2.2208 -0.154448 2.83678 8.17369
208 1 -1.1104 9.75504 -3.96927 6.79748
30 2 2.2208 -0.240105 11.4653 10.9549
8447 2 2.2208 -0.415623 17.1956 11.0193
210 1 -1.1104 9.54817 -1.19197 6.65561
8707 2 2.2208 13.475 19.9819 10.8431
8057 2 2.2208 11.0645 -5.16669 11.0503
3 1 -1.1104 1.08118 1.57951 1.05504
7 1 -1.1104 1.06515 1.81601 3.87356
13 2 2.2208 5.37884 2.92321 2.48373
17 1 -1.1104 3.88701 1.74644 1.06973
20 1 -1.1104 3.91983 1.77414 4.03052
22 2 2.2208 2.49137 3.02195 5.29553
54 2 2.2208 5.1318 5.84875 5.29313
60 1 -1.1104 1.08376 4.60705 1.06806
67 1 -1.1104 1.40411 4.49621 3.99006
72 2 2.2208 2.5913 5.79236 2.49335
76 1 -1.1104 3.87844 4.47193 1.18123
79 1 -1.1104 4.15983 4.63598 3.8008
71 1 -1.1104 3.93667 7.29845 0.849278
56 1 -1.1104 1.12954 7.39293 1.01405
74 1 -1.1104 3.82029 7.52853 3.88754
58 1 -1.1104 1.06439 7.22478 3.77266
69 1 -1.1104 7.10184 4.61803 3.92417
59 1 -1.1104 6.24254 7.14887 3.63948
236 1 -1.1104 1.40592 4.48788 6.66685
9 1 -1.1104 6.85373 1.58031 3.90241
57 1 -1.1104 6.69044 7.42626 0.856914
5 1 -1.1104 6.95615 1.51822 0.961327
8446 2 2.2208 -0.260107 14.2163 8.26449
233 1 -1.1104 12.168 15.8092 9.84399
173 1 -1.1104 4.22262 1.62979 6.84454
167 1 -1.1104 1.34351 1.61749 6.63251
358 2 2.2208 -0.221587 3.24014 13.5996
63 1 -1.1104 6.42679 4.317 0.975522
33 1 -1.1104 12.5588 1.76516 1.17351
35 1 -1.1104 12.4078 1.58563 3.80989
38 2 2.2208 11.1105 3.0122 2.37449
41 1 -1.1104 9.53866 1.58913 1.15884
44 1 -1.1104 9.64683 1.7315 3.72489
46 2 2.2208 8.34237 3.12096 5.24567
84 2 2.2208 11.0535 5.90263 5.31157
86 1 -1.1104 12.5895 7.45677 1.06089
88 1 -1.1104 12.1527 4.74051 1.11676
92 1 -1.1104 12.6833 4.29201 3.80072
95 2 2.2208 8.04932 5.92477 2.21684
99 1 -1.1104 9.44209 4.41336 0.967294
102 1 -1.1104 9.87655 4.58843 3.87822
97 1 -1.1104 9.15702 7.81554 3.84794
94 1 -1.1104 9.64048 7.2084 1.05421
87 1 -1.1104 12.4009 7.13657 3.91488
206 1 -1.1104 12.4978 1.64946 6.83365
366 2 2.2208 -0.228837 6.10025 -0.340591
314 1 -1.1104 9.35916 15.71 9.63466
267 1 -1.1104 9.60636 7.33129 7.0207
209 1 -1.1104 9.71422 1.57939 6.47756
330 2 2.2208 7.9628 19.9717 -0.121065
55 2 2.2208 5.14768 11.4412 5.29203
61 1 -1.1104 1.00552 10.2279 0.98751
66 2 2.2208 5.14363 8.6241 2.38179
68 1 -1.1104 1.02552 10.0752 3.79726
73 2 2.2208 2.54094 11.5074 2.47305
75 2 2.2208 2.35002 8.71579 5.29233
77 1 -1.1104 3.8399 10.109 1.03681
80 1 -1.1104 3.64663 10.2728 4.02729
107 1 -1.1104 0.818642 13.1275 0.677666
113 1 -1.1104 1.19245 12.8093 3.52116
123 1 -1.1104 3.91632 12.6562 1.14441
128 1 -1.1104 3.99765 12.9604 3.82532
64 1 -1.1104 6.51846 10.1911 1.21542
115 1 -1.1104 6.52199 12.9633 4.05568
110 1 -1.1104 6.68629 12.9603 0.902211
65 1 -1.1104 6.61395 10.2158 6.75548
70 1 -1.1104 6.28027 10.212 3.75276
8054 2 2.2208 5.27931 -5.25234 10.9572
85 2 2.2208 10.9305 11.5081 5.23932
89 1 -1.1104 12.3345 10.4129 0.952126
91 2 2.2208 11.0867 8.58752 2.37746
93 1 -1.1104 12.3446 10.1373 3.80268
96 2 2.2208 7.83528 11.555 2.46783
98 2 2.2208 8.00779 9.04509 5.27309
100 1 -1.1104 9.37178 10.0817 1.08075
103 1 -1.1104 9.25755 10.3397 3.72883
142 1 -1.1104 12.4259 13.1803 1.13856
146 1 -1.1104 12.283 12.8555 3.77227
153 1 -1.1104 9.43507 12.9582 0.750192
158 1 -1.1104 9.37238 13.0417 3.86417
25 2 2.2208 -0.126508 -2.51783 2.42853
90 1 -1.1104 12.2527 10.3405 6.5825
101 1 -1.1104 9.26242 9.99786 6.80657
119 2 2.2208 5.30251 14.1822 2.45436
130 2 2.2208 2.44192 14.2749 5.27282
106 2 2.2208 5.2455 17.122 5.13523
109 1 -1.1104 1.03269 18.5131 0.903781
114 1 -1.1104 1.05562 18.6151 3.93742
116 1 -1.1104 1.03445 15.8509 0.978247
120 2 2.2208 5.29962 19.9178 2.52635
121 1 -1.1104 1.02218 15.7559 3.73654
125 1 -1.1104 3.88838 18.3528 0.929494
127 2 2.2208 2.40902 17.2189 2.29622
129 1 -1.1104 4.00645 18.5107 3.54118
131 2 2.2208 2.44202 20.0194 5.16916
132 1 -1.1104 4.16498 15.2706 0.662667
134 1 -1.1104 3.88711 15.7287 3.60707
140 1 -1.1104 6.79836 15.6368 1.21456
136 2 2.2208 -0.420137 19.8282 2.65025
139 1 -1.1104 6.62764 18.5276 3.82563
156 1 -1.1104 9.33221 18.4673 6.49719
149 1 -1.1104 12.101 15.5478 6.64022
82 2 2.2208 -0.374632 8.65694 2.31559
313 1 -1.1104 12.3378 15.493 12.4424
122 1 -1.1104 6.73422 15.8351 3.83757
138 1 -1.1104 6.64586 18.413 1.19318
160 2 2.2208 8.03138 14.2953 5.17323
150 2 2.2208 10.9553 14.3174 2.50025
141 2 2.2208 10.7793 17.0489 5.4675
144 1 -1.1104 12.3064 18.7048 1.15952
147 1 -1.1104 12.464 18.324 3.99478
148 1 -1.1104 12.61 15.978 0.99313
151 2 2.2208 10.9209 19.9943 2.35791
152 1 -1.1104 12.4232 15.3959 3.68718
155 1 -1.1104 9.49887 18.45 0.904339
157 2 2.2208 8.22595 17.1333 2.50934
159 1 -1.1104 9.54384 18.5868 3.85766
161 2 2.2208 7.99447 19.8774 5.48976
162 1 -1.1104 9.7974 15.6894 1.0799
164 1 -1.1104 9.62825 15.7046 3.89048
8065 2 2.2208 5.29774 -5.19814 -0.4159
312 1 -1.1104 12.2563 18.477 9.57375
231 2 2.2208 10.8382 14.1568 8.24496
27 2 2.2208 -0.231406 3.19539 2.36211
170 1 -1.1104 1.2918 -1.14646 6.84489
166 1 -1.1104 1.29269 -3.8357 6.62415
339 2 2.2208 5.2854 16.9379 -0.211586
29 2 2.2208 -0.330423 8.56655 7.94269
288 1 -1.1104 6.59568 18.5912 9.30723
81 2 2.2208 -0.155375 5.80534 5.29138
172 1 -1.1104 4.0007 -3.86192 6.57214
175 2 2.2208 5.49205 0.102594 10.8809
176 1 -1.1104 1.33082 -3.91788 12.4865
180 1 -1.1104 1.30753 -3.94552 9.53348
184 1 -1.1104 1.13417 -1.15618 12.6098
186 2 2.2208 5.60629 -2.61043 8.09687
188 1 -1.1104 1.18843 -1.45498 9.65943
190 1 -1.1104 4.05444 -3.86466 12.5043
192 2 2.2208 2.7573 0.249039 8.19757
193 1 -1.1104 4.15844 -4.02185 9.44187
195 2 2.2208 2.41614 -2.50375 11.1886
197 1 -1.1104 3.98607 -1.17396 12.5053
198 1 -1.1104 3.96826 -1.26611 9.87615
185 1 -1.1104 6.77936 -1.02849 12.4034
355 2 2.2208 10.9325 0.220294 -0.230425
171 1 -1.1104 6.92666 -1.09427 6.77472
178 1 -1.1104 6.66318 -4.21283 12.6856
189 1 -1.1104 6.93968 -1.23096 9.47844
182 1 -1.1104 6.95355 -3.90561 9.56353
207 1 -1.1104 12.553 -1.12378 6.7805
211 2 2.2208 11.1979 0.309428 10.7071
212 1 -1.1104 12.5267 -3.78082 12.3947
214 1 -1.1104 12.5953 -3.69934 9.5263
216 1 -1.1104 12.4912 -1.09472 12.3994
217 2 2.2208 11.1734 -2.52689 8.18526
219 1 -1.1104 12.4937 -1.23874 9.71792
220 1 -1.1104 9.50954 -3.87275 12.3513
222 2 2.2208 8.23175 0.368391 7.91254
223 1 -1.1104 9.92201 -3.75509 9.80466
225 2 2.2208 8.16498 -2.57799 11.0177
227 1 -1.1104 9.48504 -1.28133 12.2082
228 1 -1.1104 9.9455 -1.02263 9.3755
357 2 2.2208 8.16932 3.01551 -0.282148
237 1 -1.1104 6.88451 4.43103 6.7288
234 1 -1.1104 1.06618 7.27269 6.74779
318 1 -1.1104 9.4989 18.6464 9.49631
8606 2 2.2208 13.5973 16.9964 8.09284
238 1 -1.1104 3.76583 7.17701 6.58307
239 1 -1.1104 4.2766 4.52573 6.92262
177 1 -1.1104 1.33218 1.66121 12.3865
181 1 -1.1104 1.20604 1.45405 9.59403
187 2 2.2208 5.57941 2.96855 8.06699
191 1 -1.1104 4.00754 1.60213 12.5554
194 1 -1.1104 3.99193 1.49774 9.61279
196 2 2.2208 2.65975 3.14046 11.0322
240 2 2.2208 5.4335 5.78855 10.837
246 1 -1.1104 1.19064 4.54142 12.3901
251 1 -1.1104 1.26582 4.34031 9.46224
256 2 2.2208 2.62887 5.95699 8.2118
260 1 -1.1104 4.08718 4.4442 12.2833
262 1 -1.1104 4.15864 4.32645 9.45339
242 1 -1.1104 1.06975 7.20154 12.437
255 1 -1.1104 4.03701 7.30368 12.2237
258 1 -1.1104 3.87459 7.22204 9.55401
244 1 -1.1104 1.22785 7.40485 9.60123
179 1 -1.1104 6.79786 1.79045 12.2792
26 2 2.2208 -0.223502 0.292824 5.20715
235 1 -1.1104 6.73422 7.18748 6.78813
265 1 -1.1104 12.3496 7.58491 6.62655
169 1 -1.1104 6.88788 1.57658 6.55605
243 1 -1.1104 6.85819 7.18131 12.3061
245 1 -1.1104 7.03897 7.20046 9.44865
248 1 -1.1104 6.90858 4.43348 12.2744
183 1 -1.1104 6.92342 1.58072 9.45288
266 1 -1.1104 12.3678 4.63806 6.68966
269 1 -1.1104 9.66729 4.61171 6.52058
253 1 -1.1104 6.8874 4.32833 9.52802
213 1 -1.1104 12.5273 1.83585 12.4235
215 1 -1.1104 12.6365 1.74397 9.62507
218 2 2.2208 11.3707 3.09291 8.16525
221 1 -1.1104 9.60998 1.5606 12.0124
224 1 -1.1104 9.64174 1.69897 9.18726
226 2 2.2208 8.24623 3.08866 10.8259
268 1 -1.1104 9.67523 4.21752 9.58089
271 1 -1.1104 9.62191 4.3509 12.5804
275 2 2.2208 8.23484 5.80141 7.87468
276 2 2.2208 11.0366 5.83709 11.0203
280 1 -1.1104 12.6854 4.66846 12.211
283 1 -1.1104 12.4699 4.4159 9.52044
278 1 -1.1104 12.5409 7.09201 12.3656
279 1 -1.1104 12.4967 7.14597 9.44701
273 1 -1.1104 9.63545 7.03495 9.50617
285 1 -1.1104 9.51252 7.20761 12.2832
78 1 -1.1104 3.94352 9.84545 6.83891
108 1 -1.1104 1.09908 12.8258 6.56401
62 1 -1.1104 0.785606 9.93525 6.4865
111 1 -1.1104 6.5406 12.7598 6.70444
124 1 -1.1104 3.92346 12.8116 6.63689
241 2 2.2208 5.23439 11.4882 10.8244
247 1 -1.1104 1.15496 10.0949 12.5054
250 2 2.2208 5.17896 8.49408 8.06738
252 1 -1.1104 0.922683 9.99348 9.40363
257 2 2.2208 2.40789 11.35 8.00284
259 2 2.2208 2.60391 8.698 10.9273
261 1 -1.1104 3.75702 10.1315 12.0465
263 1 -1.1104 3.99752 10.0383 9.54465
287 1 -1.1104 3.84554 12.8335 12.2068
294 1 -1.1104 1.13945 12.7304 9.43369
299 1 -1.1104 1.1918 12.7667 12.3038
305 1 -1.1104 3.98322 12.8795 9.35697
249 1 -1.1104 6.89749 10.0219 12.2239
290 1 -1.1104 6.74628 12.8211 9.3962
254 1 -1.1104 6.7765 10.0045 9.72614
8740 2 2.2208 -0.434824 0.407796 -0.273912
8056 2 2.2208 8.25054 -5.28356 8.15793
316 2 2.2208 7.95493 19.8943 10.9707
356 2 2.2208 8.08509 -2.66478 -0.411112
297 1 -1.1104 6.51106 13.0833 12.2864
154 1 -1.1104 9.4928 12.8652 6.53809
143 1 -1.1104 12.4025 12.9598 6.66453
322 1 -1.1104 9.5763 12.6411 12.3022
319 1 -1.1104 9.55563 12.8238 9.65144
199 1 -1.1104 12.3964 13.048 9.50037
264 1 -1.1104 9.68037 9.97517 9.59629
270 1 -1.1104 9.68647 9.9723 12.3746
272 2 2.2208 8.11156 8.47038 10.9897
274 2 2.2208 7.96876 11.4052 8.35241
277 2 2.2208 11.0627 11.3704 10.972
281 1 -1.1104 12.4438 9.97527 12.3495
282 2 2.2208 10.8525 8.825 8.10669
284 1 -1.1104 12.2352 10.0468 9.41529
105 1 -1.1104 12.4947 12.7219 12.4367
135 1 -1.1104 12.2551 18.531 12.4716
28 2 2.2208 -0.372405 5.97527 10.8474
118 1 -1.1104 6.66317 15.6147 6.60919
289 1 -1.1104 6.46757 15.6071 9.39687
8661 2 2.2208 13.658 8.52233 10.7566
133 1 -1.1104 3.93129 15.532 6.51904
112 1 -1.1104 6.62777 18.5794 6.82858
296 1 -1.1104 6.47436 18.3866 12.2412
302 1 -1.1104 0.666318 18.6585 6.69891
126 1 -1.1104 3.78077 18.4633 6.4924
295 2 2.2208 5.21556 14.1782 7.9244
117 1 -1.1104 1.19011 15.5915 6.76581
304 1 -1.1104 3.81734 15.622 9.40074
310 2 2.2208 2.41155 14.2091 10.8583
307 1 -1.1104 0.862176 15.6784 12.2476
308 1 -1.1104 3.8072 15.818 12.2669
309 2 2.2208 2.38502 20.0346 10.9369
286 1 -1.1104 3.86698 18.5733 12.3105
291 1 -1.1104 1.08509 18.7076 9.31294
292 1 -1.1104 0.960377 15.9543 9.42092
293 2 2.2208 5.20519 19.8996 8.07719
298 1 -1.1104 1.16557 18.4844 12.377
300 2 2.2208 5.07964 17.1936 10.8618
301 1 -1.1104 3.68943 18.5101 9.37788
303 2 2.2208 2.55431 16.9867 7.95152
306 1 -1.1104 6.88011 15.8283 12.0653
315 1 -1.1104 9.63245 15.7064 12.5424
320 2 2.2208 7.93322 17.0272 8.16804
232 2 2.2208 10.8587 19.8953 8.07176
321 1 -1.1104 9.28344 18.4679 12.2169
163 1 -1.1104 9.32867 15.694 7.03156
200 2 2.2208 -0.0770818 -2.50843 8.12069
317 2 2.2208 8.0128 14.191 10.9223
49 2 2.2208 10.8043 16.9603 11.0897
145 1 -1.1104 12.3032 18.4968 6.82308
363 2 2.2208 2.41653 8.75589 -0.362248
352 2 2.2208 2.60807 -2.32579 -0.231211
331 2 2.2208 8.13593 0.455895 13.6033
329 2 2.2208 11.1554 17.3746 -0.393264
350 2 2.2208 13.6432 17.0202 13.6617
344 2 2.2208 2.36467 17.1519 13.6522
340 2 2.2208 2.57651 19.894 -0.422095
370 2 2.2208 5.421 0.376146 16.6962
371 1 -1.1104 1.46584 -3.97525 18.0318
375 1 -1.1104 1.15746 -3.96431 15.2622
383 1 -1.1104 0.937522 -0.927869 17.9274
385 2 2.2208 5.37438 -2.4125 19.6172
387 1 -1.1104 1.19802 -1.03892 15.3652
391 1 -1.1104 4.20562 -4.01439 17.916
393 2 2.2208 2.66987 0.368209 19.3
394 1 -1.1104 4.14521 -3.89094 15.2581
398 2 2.2208 2.65397 -2.58401 16.5754
400 1 -1.1104 3.88957 -1.08732 18.1348
401 1 -1.1104 3.97148 -1.01082 15.3548
328 2 2.2208 5.39608 3.09953 13.815
556 1 -1.1104 12.3155 15.7931 20.7782
379 1 -1.1104 7.14777 -3.81656 15.252
389 1 -1.1104 6.6975 -1.1367 15.2522
402 1 -1.1104 3.85819 -0.918986 20.8053
337 2 2.2208 2.43989 11.6035 13.7264
395 1 -1.1104 4.06031 -3.99624 20.8976
347 2 2.2208 10.9963 20.0138 13.9441
338 2 2.2208 2.46265 14.316 27.7457
364 2 2.2208 5.32878 11.7034 27.6429
373 1 -1.1104 6.85315 -3.72974 18.0149
384 1 -1.1104 6.7149 -0.987695 18.1241
413 2 2.2208 11.2766 0.214432 16.6653
414 1 -1.1104 12.4589 -3.65937 18.0992
416 1 -1.1104 12.5344 -3.82714 15.2852
420 1 -1.1104 12.7034 -1.38571 17.9955
421 2 2.2208 10.8986 -2.58283 19.4951
423 1 -1.1104 12.4482 -1.0138 15.152
425 1 -1.1104 9.55083 -3.87688 17.9791
427 2 2.2208 8.15755 0.268843 19.4248
428 1 -1.1104 9.83605 -3.9227 15.2953
432 2 2.2208 8.33427 -2.39416 16.5491
434 1 -1.1104 9.87847 -1.01657 17.8668
435 1 -1.1104 9.4897 -0.907895 15.1482
8995 2 2.2208 13.551 19.878 22.0799
429 1 -1.1104 9.63127 -3.90296 20.76
8172 2 2.2208 5.49779 -5.26442 16.6346
390 1 -1.1104 6.63294 -1.02243 21.0393
436 1 -1.1104 9.46942 -1.20868 20.7043
568 1 -1.1104 9.45507 15.7026 20.6327
480 2 2.2208 -0.274755 14.4612 24.7947
372 1 -1.1104 1.14777 1.95367 17.9657
377 1 -1.1104 1.06715 1.87084 15.2084
386 2 2.2208 5.38385 3.14748 19.5085
392 1 -1.1104 4.01835 1.70022 17.9694
396 1 -1.1104 3.94738 1.71108 15.2478
399 2 2.2208 2.57975 3.14522 16.6935
446 2 2.2208 5.15322 5.88798 16.6571
454 1 -1.1104 1.03387 4.58827 18.0771
459 1 -1.1104 1.09194 4.50144 15.2341
468 2 2.2208 2.44974 6.0188 19.3814
473 1 -1.1104 3.80671 4.47779 18.0452
475 1 -1.1104 3.85686 4.43559 15.1557
448 1 -1.1104 1.08614 7.35938 18.1177
467 1 -1.1104 3.91961 7.25433 18.0261
381 1 -1.1104 6.87786 1.66861 15.3957
450 1 -1.1104 1.16949 7.20831 15.19
476 1 -1.1104 3.84748 4.40664 20.9076
470 1 -1.1104 3.87019 7.23662 15.0644
463 1 -1.1104 6.58563 4.55325 15.0604
452 1 -1.1104 6.65075 7.34664 15.0376
453 1 -1.1104 6.59206 7.03673 20.6428
369 2 2.2208 10.9606 5.90041 27.6391
8136 2 2.2208 8.02548 -5.27277 19.3831
397 1 -1.1104 4.03363 1.8473 20.8783
8171 2 2.2208 2.78457 -5.09585 19.489
362 2 2.2208 5.4129 6.02892 27.7338
456 1 -1.1104 6.68056 4.47942 17.7597
464 1 -1.1104 6.86678 4.44129 20.7305
374 1 -1.1104 6.87866 1.72535 18.2239
449 1 -1.1104 6.57621 7.43114 17.719
415 1 -1.1104 12.3947 1.633 18.1659
418 1 -1.1104 12.572 1.65201 15.1821
422 2 2.2208 11.1476 3.06229 19.3791
426 1 -1.1104 9.64975 1.6561 18.0524
430 1 -1.1104 9.75086 1.77268 15.108
433 2 2.2208 8.26909 2.88187 16.6043
482 2 2.2208 11.042 5.70142 16.6553
487 1 -1.1104 12.6474 4.4054 17.9088
490 1 -1.1104 12.4399 4.64635 15.1367
495 2 2.2208 8.14238 5.65755 19.3168
500 1 -1.1104 9.76429 4.3084 17.8877
502 1 -1.1104 9.60888 4.45301 15.2806
485 1 -1.1104 12.4856 7.25143 15.2181
484 1 -1.1104 12.2334 7.04613 18.0874
497 1 -1.1104 9.62557 7.19498 15.2365
486 1 -1.1104 12.2038 7.52719 20.8708
431 1 -1.1104 9.64626 1.74502 20.8471
494 1 -1.1104 9.40727 7.17913 17.9803
8170 2 2.2208 11.2836 -5.21106 16.671
498 1 -1.1104 9.41424 7.52858 20.6398
343 2 2.2208 8.282 11.326 13.7277
447 2 2.2208 5.47502 11.5762 16.5439
455 1 -1.1104 1.02833 9.98722 17.8027
458 2 2.2208 5.39604 8.75609 19.2976
461 1 -1.1104 1.16269 10.0643 15.0419
469 2 2.2208 2.33364 11.5429 19.1579
472 2 2.2208 2.43985 8.62714 16.5189
474 1 -1.1104 3.83683 10.2239 17.8874
477 1 -1.1104 4.0074 10.0382 15.1592
510 1 -1.1104 0.958097 13.1128 17.7592
514 1 -1.1104 1.16475 12.8084 15.1617
530 1 -1.1104 3.7054 12.8478 17.7477
533 1 -1.1104 3.99962 12.9067 15.0885
457 1 -1.1104 6.819 10.1037 18.0714
518 1 -1.1104 6.5322 12.978 14.9227
608 2 2.2208 -0.282662 3.07859 25.0293
341 2 2.2208 8.20245 5.90517 13.8768
478 1 -1.1104 3.70693 10.1957 20.6759
466 1 -1.1104 6.66115 10.1103 20.804
406 2 2.2208 -0.2969 0.337129 16.3985
465 1 -1.1104 6.88348 10.313 15.2178
512 1 -1.1104 6.66924 12.9409 17.7768
483 2 2.2208 10.964 11.3946 16.5314
488 1 -1.1104 12.4012 10.0291 18.0346
489 2 2.2208 10.9827 8.64884 19.3197
492 1 -1.1104 12.4234 10.1787 15.0133
496 2 2.2208 8.17599 11.5442 19.3035
499 2 2.2208 8.17729 8.68435 16.6113
501 1 -1.1104 9.58079 10.196 17.9411
504 1 -1.1104 9.48802 9.97717 15.0943
546 1 -1.1104 12.2263 13.0706 17.9275
548 1 -1.1104 12.2165 12.9803 15.1555
557 1 -1.1104 9.32466 13.1852 17.9499
560 1 -1.1104 9.36929 12.8025 15.0646
549 1 -1.1104 12.2472 13.0265 20.6912
493 1 -1.1104 12.5164 10.2875 20.6178
327 2 2.2208 2.71209 0.339866 13.9795
404 2 2.2208 -0.426534 5.935 22.3654
333 2 2.2208 11.2455 3.0494 13.7515
332 2 2.2208 10.9611 -2.39207 13.7082
537 2 2.2208 2.36869 14.2961 16.5328
524 2 2.2208 5.41602 14.5233 19.4446
509 2 2.2208 5.20751 17.141 16.633
511 1 -1.1104 1.1096 18.7099 18.2314
516 1 -1.1104 0.884453 18.5017 15.2622
522 1 -1.1104 1.11151 15.8782 17.9132
525 2 2.2208 5.39317 19.9255 19.3141
526 1 -1.1104 1.07214 15.8706 15.0637
531 1 -1.1104 3.9439 18.7386 18.0439
532 2 2.2208 2.5273 17.3125 19.2723
535 1 -1.1104 3.681 18.5506 15.3456
538 2 2.2208 2.49903 19.9465 16.5182
539 1 -1.1104 3.84547 15.9996 17.989
540 1 -1.1104 3.68638 15.5913 15.2588
523 1 -1.1104 6.64016 15.7645 17.9547
528 1 -1.1104 6.54493 15.7967 15.0328
520 1 -1.1104 6.53512 18.4284 15.0687
8066 2 2.2208 8.22429 -5.27329 13.8468
529 1 -1.1104 6.59504 16.0061 20.846
667 2 2.2208 -0.400482 11.4018 22.0854
8762 2 2.2208 -0.292707 19.9683 13.8243
542 1 -1.1104 6.6459 15.7005 23.4822
513 1 -1.1104 6.77593 18.474 17.9024
553 2 2.2208 10.9466 14.1458 19.3047
564 2 2.2208 8.04352 14.4518 16.4797
545 2 2.2208 11.1243 17.102 16.4948
547 1 -1.1104 12.206 18.7079 17.8986
550 1 -1.1104 12.174 18.5792 15.1788
552 1 -1.1104 12.6472 15.9215 17.8312
554 2 2.2208 10.7979 19.9575 19.2576
555 1 -1.1104 12.341 15.8016 14.8957
558 1 -1.1104 9.57466 18.6376 17.7782
559 2 2.2208 8.10544 17.1205 19.1877
562 1 -1.1104 9.38961 18.4853 14.9438
565 2 2.2208 8.08311 19.8309 16.2598
566 1 -1.1104 9.52087 15.8278 17.9619
567 1 -1.1104 9.49165 15.6636 15.2678
8948 2 2.2208 13.6506 14.3806 16.3369
326 2 2.2208 5.37524 -2.4871 13.9322
388 1 -1.1104 1.27401 -0.918538 20.9287
367 2 2.2208 10.9018 11.6293 27.7309
365 2 2.2208 -0.285031 11.5186 27.6569
8991 2 2.2208 -0.386206 17.2319 16.807
376 1 -1.1104 0.99622 -3.70231 20.8111
573 2 2.2208 5.31734 0.302308 22.5337
574 1 -1.1104 1.1036 -3.62403 23.5611
578 1 -1.1104 0.974419 -3.85588 26.4495
582 1 -1.1104 1.17719 -0.959328 23.752
584 2 2.2208 5.44906 -2.59252 25.0693
586 1 -1.1104 1.03642 -0.842833 26.5666
588 1 -1.1104 3.89313 -3.93381 23.804
590 2 2.2208 2.55686 0.358985 25.1612
591 1 -1.1104 3.81947 -3.77635 26.532
593 2 2.2208 2.44897 -2.26097 22.2589
595 1 -1.1104 3.98053 -1.08123 23.736
596 1 -1.1104 4.09529 -0.988494 26.4852
583 1 -1.1104 6.76901 -1.23769 23.8131
580 1 -1.1104 6.73669 -4.06301 26.3737
587 1 -1.1104 6.62937 -1.18958 26.5513
380 1 -1.1104 6.84228 -3.71926 20.6313
424 1 -1.1104 12.4074 -0.940688 20.6715
444 1 -1.1104 9.61472 15.6785 26.3456
563 1 -1.1104 9.30401 18.5134 20.7543
576 1 -1.1104 6.77288 -3.76145 23.5577
8753 2 2.2208 -0.232129 8.70799 13.8671
417 1 -1.1104 12.6197 -3.91649 20.9764
609 2 2.2208 10.9636 0.306021 22.274
610 1 -1.1104 12.3294 -4.08286 23.6929
612 1 -1.1104 12.5467 -4.1307 26.5479
614 1 -1.1104 12.2681 -1.37425 23.3843
615 2 2.2208 10.9556 -2.62427 24.9817
617 1 -1.1104 12.3825 -1.18142 26.3469
618 1 -1.1104 9.41989 -3.82034 23.7125
620 2 2.2208 8.07233 0.357897 25.1147
621 1 -1.1104 9.65817 -4.01403 26.5671
623 2 2.2208 8.13509 -2.49829 22.2949
625 1 -1.1104 9.41114 -1.09558 23.5867
626 1 -1.1104 9.35824 -1.16001 26.2689
8761 2 2.2208 -0.340757 14.4089 13.8746
451 1 -1.1104 1.07595 7.23371 20.9039
460 1 -1.1104 1.12944 4.5416 20.9306
378 1 -1.1104 1.06885 1.64403 20.7279
471 1 -1.1104 3.87545 7.27637 20.7242
575 1 -1.1104 1.0453 1.58533 23.6469
579 1 -1.1104 1.06622 1.99139 26.5274
585 2 2.2208 5.3095 3.19466 25.0026
589 1 -1.1104 3.83963 1.94423 23.632
592 1 -1.1104 3.82431 1.67071 26.4093
594 2 2.2208 2.41187 3.10341 22.2005
638 2 2.2208 5.18265 5.79403 22.2041
644 1 -1.1104 0.929089 4.4298 23.7256
649 1 -1.1104 1.12804 4.73862 26.5004
654 2 2.2208 2.41395 6.13181 25.0561
658 1 -1.1104 3.84448 4.56176 23.9412
660 1 -1.1104 3.96787 4.48388 26.6333
656 1 -1.1104 3.70191 7.46167 26.2885
640 1 -1.1104 0.910838 7.30453 23.4965
653 1 -1.1104 3.72411 7.26661 23.6775
577 1 -1.1104 6.64932 1.58039 23.7942
646 1 -1.1104 6.68416 4.30435 23.6631
642 1 -1.1104 0.946867 7.42966 26.4426
643 1 -1.1104 6.82628 7.20569 25.9654
581 1 -1.1104 6.66038 1.54814 26.4559
8845 2 2.2208 -0.19486 -2.4198 25.2353
635 2 2.2208 11.008 14.3417 24.7769
382 1 -1.1104 6.84998 1.54668 21.1428
491 1 -1.1104 12.4295 4.56002 20.8761
8763 2 2.2208 -0.144414 -2.52105 13.8225
641 1 -1.1104 6.69855 7.02088 23.3917
651 1 -1.1104 6.79143 4.49771 26.3297
419 1 -1.1104 12.5132 1.75132 21.0182
503 1 -1.1104 9.70379 4.54742 20.791
611 1 -1.1104 12.4258 1.5707 23.7979
613 1 -1.1104 12.2113 1.56625 26.4786
616 2 2.2208 10.8393 3.10863 25.1592
619 1 -1.1104 9.53328 1.61348 23.6059
622 1 -1.1104 9.64408 1.56756 26.5535
624 2 2.2208 8.25463 3.01426 22.3299
670 1 -1.1104 9.41263 4.40874 26.288
672 1 -1.1104 9.5215 4.41439 23.7031
676 2 2.2208 8.13245 5.81545 24.8528
677 2 2.2208 10.9487 6.10241 22.2989
681 1 -1.1104 12.2025 4.49458 23.6077
684 1 -1.1104 12.4025 4.72964 26.5951
674 1 -1.1104 9.61212 7.13914 26.2115
679 1 -1.1104 12.3028 7.36579 23.6365
680 1 -1.1104 12.494 7.24557 26.2278
668 1 -1.1104 9.45482 7.35035 23.5369
462 1 -1.1104 1.04211 10.1588 20.58
534 1 -1.1104 3.89143 12.9495 20.6006
515 1 -1.1104 0.813953 12.9646 20.4998
639 2 2.2208 5.18813 11.5393 21.9339
645 1 -1.1104 0.954006 10.1026 23.5092
648 2 2.2208 5.35422 8.66546 24.8309
650 1 -1.1104 0.945621 10.0742 26.3356
655 2 2.2208 2.70132 11.5329 24.7323
657 2 2.2208 2.36778 8.83678 22.0788
659 1 -1.1104 3.94503 10.011 23.4147
661 1 -1.1104 3.93812 10.3113 26.3817
543 1 -1.1104 4.10183 12.9527 26.1865
572 1 -1.1104 1.19628 12.8107 23.3268
628 1 -1.1104 1.48267 12.9497 26.1241
634 1 -1.1104 3.94107 12.8048 23.4095
637 1 -1.1104 6.71522 12.9508 26.1822
325 2 2.2208 8.0822 14.3055 27.6223
607 2 2.2208 -0.288787 0.392804 22.0798
519 1 -1.1104 6.78972 12.9819 20.7122
505 1 -1.1104 9.82246 10.0879 20.6995
652 1 -1.1104 6.81098 9.94481 26.33
598 1 -1.1104 6.64067 12.7802 23.3881
561 1 -1.1104 9.42487 12.7317 20.7367
647 1 -1.1104 6.83922 10.0074 23.5902
663 1 -1.1104 9.50701 12.9383 23.4901
669 1 -1.1104 9.52428 9.78083 26.3765
671 1 -1.1104 9.70021 10.1506 23.5186
673 2 2.2208 8.13702 8.86053 22.0681
675 2 2.2208 8.29257 11.4976 24.8611
678 2 2.2208 11.0405 11.4449 22.1612
682 1 -1.1104 12.3289 10.1188 23.7219
683 2 2.2208 10.8999 8.64849 24.9396
685 1 -1.1104 12.2656 9.98329 26.484
605 1 -1.1104 12.3473 13.0664 26.3257
411 1 -1.1104 9.53322 12.8992 26.1793
600 1 -1.1104 12.4652 12.8266 23.5473
606 1 -1.1104 12.3984 18.6078 26.5875
443 1 -1.1104 9.44779 15.699 23.5773
527 1 -1.1104 0.891194 15.8594 20.4265
536 1 -1.1104 3.94816 18.5837 20.8202
599 2 2.2208 5.29341 14.4305 24.8762
517 1 -1.1104 0.946556 18.5121 21.0209
541 1 -1.1104 3.78639 15.6305 20.9417
627 1 -1.1104 6.82823 18.3752 23.7769
481 2 2.2208 2.17651 14.3154 21.8783
506 2 2.2208 2.24884 19.9092 22.1639
507 1 -1.1104 3.6354 15.8254 23.3522
508 1 -1.1104 1.00541 15.5186 23.3284
544 1 -1.1104 3.91381 15.8501 26.3926
569 2 2.2208 2.22487 17.174 25.0056
570 1 -1.1104 3.81426 18.5277 26.3541
571 2 2.2208 5.04644 17.1793 22.3327
597 1 -1.1104 0.774216 18.2401 23.7244
604 2 2.2208 5.27418 19.7201 25.1068
629 1 -1.1104 0.814159 15.8012 26.4051
631 1 -1.1104 1.01946 18.4884 26.441
662 1 -1.1104 3.72281 18.5862 23.5448
410 1 -1.1104 6.79211 18.6373 26.6348
633 1 -1.1104 6.68546 15.7217 26.5638
9021 2 2.2208 -0.17892 -2.35878 19.27
408 2 2.2208 8.15896 17.1246 25.1731
664 1 -1.1104 12.2429 15.8068 26.2753
412 1 -1.1104 9.5357 18.4775 26.3758
521 1 -1.1104 6.60292 18.5215 20.6755
407 1 -1.1104 9.79765 18.4343 23.6597
437 2 2.2208 8.05851 14.4547 22.1428
601 1 -1.1104 12.3866 18.5315 23.5671
551 1 -1.1104 12.2913 18.5601 20.69
441 2 2.2208 8.10982 19.8918 22.2011
666 2 2.2208 10.874 19.9876 24.9586
442 2 2.2208 10.8341 17.0951 22.0708
630 1 -1.1104 12.4964 15.6957 23.5297
368 2 2.2208 8.05928 8.71373 27.7365
8809 2 2.2208 -0.431428 8.82386 24.9961
17468 2 2.2208 -0.249351 -5.01618 22.022
334 2 2.2208 2.40201 5.87067 13.9476
349 2 2.2208 8.04032 17.0354 13.672
8951 2 2.2208 13.6006 19.9366 16.4959
342 2 2.2208 11.0128 8.57069 13.6962
348 2 2.2208 10.9475 14.0397 13.7921
335 2 2.2208 5.39236 8.55961 13.679
346 2 2.2208 5.18771 14.2762 13.776
345 2 2.2208 5.17664 19.9128 13.6845
686 2 2.2208 5.09401 22.8184 5.30399
688 1 -1.1104 0.975613 24.1307 1.1579
689 1 -1.1104 0.964011 24.2818 3.89979
690 1 -1.1104 1.06401 21.1994 1.21969
692 2 2.2208 5.32975 25.4344 2.45757
693 1 -1.1104 0.879004 21.5135 3.89172
695 1 -1.1104 3.92156 24.1363 1.01293
696 2 2.2208 2.56119 22.6583 2.50235
698 1 -1.1104 3.68262 24.1379 3.95702
699 2 2.2208 2.26654 25.6284 5.34725
700 1 -1.1104 4.03056 21.1595 0.982628
702 1 -1.1104 3.78429 21.1787 3.88046
709 1 -1.1104 6.70195 21.3267 1.05023
708 1 -1.1104 6.72534 24.0867 3.6072
1351 1 -1.1104 3.63414 46.6276 1.08246
701 1 -1.1104 3.59481 26.846 0.979345
691 1 -1.1104 0.896529 27.0652 1.17892
831 1 -1.1104 6.55148 21.3687 6.92757
989 2 2.2208 13.4651 36.9822 10.864
830 1 -1.1104 0.951499 26.8681 6.7396
707 1 -1.1104 6.63041 23.9791 0.970463
711 1 -1.1104 6.49769 21.29 4.0419
9433 2 2.2208 13.6019 25.6792 -0.297824
9434 2 2.2208 -0.374488 22.7955 -0.225194
712 1 -1.1104 6.49295 26.8652 3.91413
713 2 2.2208 10.5682 22.7956 5.13158
715 1 -1.1104 12.3541 24.1898 0.922419
716 1 -1.1104 12.28 24.1332 3.91097
717 1 -1.1104 12.36 21.5086 1.02824
719 2 2.2208 10.8935 25.3646 2.5675
720 1 -1.1104 12.1343 21.1819 3.88518
722 1 -1.1104 9.50499 23.8614 1.11688
723 2 2.2208 8.16376 22.7895 2.53763
725 1 -1.1104 9.57052 24.394 3.94135
726 2 2.2208 7.9353 25.6529 5.21416
727 1 -1.1104 9.54483 21.4548 1.0181
729 1 -1.1104 9.33401 21.4725 3.88089
730 1 -1.1104 9.24173 27.367 3.62586
721 1 -1.1104 12.0195 26.8281 3.86707
728 1 -1.1104 9.3901 26.7787 1.02872
718 1 -1.1104 12.3055 27.123 0.895739
861 1 -1.1104 12.259 21.5255 6.66667
865 1 -1.1104 9.37464 27.0655 6.43526
1534 1 -1.1104 0.674057 46.7332 9.38404
703 1 -1.1104 3.83677 26.9521 3.5553
694 1 -1.1104 0.84915 26.9846 4.0736
687 2 2.2208 5.0023 28.6016 5.17669
697 2 2.2208 2.26118 28.3741 2.60436
735 1 -1.1104 0.888805 29.8544 1.04251
738 1 -1.1104 0.802164 29.6868 3.82474
741 1 -1.1104 0.957467 32.8305 0.890264
742 2 2.2208 5.06291 31.1588 2.32952
744 1 -1.1104 0.892346 32.7758 3.82685
746 1 -1.1104 3.73154 29.779 1.14596
749 1 -1.1104 3.71846 29.9276 3.96569
751 2 2.2208 2.17218 31.1755 5.22827
753 1 -1.1104 3.83471 32.5677 0.800964
754 1 -1.1104 3.88379 32.6107 3.81202
758 1 -1.1104 6.56373 29.8606 1.16061
745 1 -1.1104 6.53518 32.5076 4.19706
710 1 -1.1104 6.39386 26.9503 1.14982
760 1 -1.1104 6.63108 32.4685 1.31851
1027 2 2.2208 10.7304 33.9921 -0.286024
1376 1 -1.1104 11.9067 46.7056 3.8595
888 1 -1.1104 0.968183 32.7071 6.63497
889 1 -1.1104 6.77691 32.4684 7.03695
1011 2 2.2208 8.10798 42.5752 -0.367875
9423 2 2.2208 13.5635 31.3592 -0.365812
759 1 -1.1104 6.55988 29.5416 3.78502
714 2 2.2208 10.8825 28.337 5.25454
724 2 2.2208 7.92692 28.4014 2.37244
762 1 -1.1104 12.1219 29.9147 1.00673
764 1 -1.1104 12.4518 29.6045 3.96283
766 1 -1.1104 12.1424 32.647 0.979934
767 2 2.2208 10.8239 31.2032 2.57708
769 1 -1.1104 12.5376 32.2357 3.5308
770 1 -1.1104 9.44051 29.692 1.03411
773 1 -1.1104 9.32946 29.9086 4.10436
775 2 2.2208 7.9187 31.1647 5.33096
777 1 -1.1104 9.33535 32.5675 1.36551
778 1 -1.1104 9.56369 32.6075 4.06055
923 1 -1.1104 9.68639 32.8374 6.97661
9402 2 2.2208 13.4583 42.3483 11.0767
920 1 -1.1104 12.3969 32.8348 6.35046
1018 2 2.2208 5.20128 28.4095 -0.271292
733 2 2.2208 13.4589 25.4055 5.22687
748 2 2.2208 2.44356 33.9743 2.47381
734 2 2.2208 5.07875 34.0853 5.26168
736 1 -1.1104 0.837773 35.5556 0.984196
739 1 -1.1104 1.07898 35.5506 3.93802
743 2 2.2208 5.16887 36.9614 2.30258
747 1 -1.1104 3.9936 35.4748 1.0877
750 1 -1.1104 3.77355 35.712 3.83603
752 2 2.2208 2.29072 36.9081 5.15529
780 2 2.2208 5.07983 39.4933 5.16954
786 1 -1.1104 0.700585 38.3869 1.1618
791 1 -1.1104 0.623952 38.2157 3.92762
796 2 2.2208 2.11104 39.7854 2.53925
800 1 -1.1104 3.48525 38.2907 1.10657
802 1 -1.1104 3.70483 38.3246 3.73181
740 1 -1.1104 6.76969 35.3453 4.02796
737 1 -1.1104 6.62589 35.2821 0.958113
9245 2 2.2208 13.4791 25.5361 10.8824
9360 2 2.2208 13.4088 39.76 8.18429
1566 1 -1.1104 12.2578 46.7878 12.6644
793 1 -1.1104 6.59529 38.1154 3.79089
788 1 -1.1104 6.62483 38.0152 1.23655
9246 2 2.2208 13.648 28.2945 8.07352
772 2 2.2208 8.08587 34.055 2.49288