ITEM: TIMESTEP
50000
ITEM: NUMBER OF ATOMS
17700
ITEM: BOX BOUNDS pp pp pp
-4.3171955697337683e-01 2.7771719556973981e+01
-5.3038147102088020e+00 3.3338381471021961e+02
-4.4374709705446563e-01 2.7783747097054025e+01
ITEM: ATOMS id type q x y z
1 2 2.2208 5.01544 0.577015 5.10379
2 1 -1.1104 0.734593 -3.9216 0.86082
6 1 -1.1104 0.859529 -4.07996 3.70321
10 1 -1.1104 0.775493 -1.13781 0.866439
12 2 2.2208 5.13852 -2.3975 2.28418
14 1 -1.1104 0.773616 -1.00604 3.45202
16 1 -1.1104 3.65764 -3.72432 1.06244
18 2 2.2208 2.31139 0.44788 2.37656
19 1 -1.1104 3.52747 -3.91383 3.94437
21 2 2.2208 2.20853 -2.51082 5.05241
23 1 -1.1104 3.66495 -0.994952 0.886431
24 1 -1.1104 3.68354 -0.917693 3.73055
172 1 -1.1104 3.55897 -3.97815 6.55722
170 1 -1.1104 0.759553 -1.0574 6.31589
8058 2 2.2208 13.4296 -5.25339 7.93202
8 1 -1.1104 6.31708 -3.86813 3.7741
350 2 2.2208 13.6488 17.4575 13.7128
346 2 2.2208 5.06979 14.6219 13.6517
174 1 -1.1104 3.71788 -1.12889 6.32871
168 1 -1.1104 6.49303 -3.98626 6.33428
4 1 -1.1104 6.30712 -3.7329 0.864528
15 1 -1.1104 6.55603 -0.836511 3.72066
171 1 -1.1104 6.39963 -1.20042 6.42945
11 1 -1.1104 6.51787 -0.897019 0.688068
31 2 2.2208 10.9956 0.415949 5.10203
32 1 -1.1104 12.0065 -3.76143 0.983631
34 1 -1.1104 12.3353 -3.83044 3.63559
36 1 -1.1104 12.1825 -1.01155 0.845788
37 2 2.2208 10.6834 -2.37053 2.24333
39 1 -1.1104 12.1672 -0.970484 3.57599
40 1 -1.1104 8.87569 -3.71017 1.03191
42 2 2.2208 8.04176 0.500263 2.23063
43 1 -1.1104 9.36513 -3.80696 3.66949
45 2 2.2208 7.86719 -2.46136 5.09178
47 1 -1.1104 9.28538 -0.869268 0.893578
48 1 -1.1104 9.30963 -0.880537 3.62214
207 1 -1.1104 11.9829 -1.13555 6.45564
210 1 -1.1104 9.22804 -1.18047 6.46504
208 1 -1.1104 9.42123 -3.84077 6.73022
205 1 -1.1104 12.1882 -3.97041 6.38486
28 2 2.2208 -0.295859 5.98742 10.9383
3 1 -1.1104 0.765656 1.9183 0.832538
7 1 -1.1104 0.739757 1.72996 3.66997
13 2 2.2208 5.11253 3.19942 2.21447
17 1 -1.1104 3.59348 2.017 0.769682
20 1 -1.1104 3.64506 1.90002 3.62077
22 2 2.2208 2.27744 3.15681 5.22788
54 2 2.2208 5.15286 6.26219 5.0685
56 1 -1.1104 0.80744 7.31259 1.05192
60 1 -1.1104 0.947195 4.5775 1.20714
67 1 -1.1104 0.833966 4.3816 4.02301
72 2 2.2208 2.3481 6.08747 2.47009
74 1 -1.1104 3.76556 7.69371 3.4571
76 1 -1.1104 3.80198 4.72792 0.825243
79 1 -1.1104 3.76525 4.74258 3.81611
71 1 -1.1104 3.68714 7.69956 0.727194
238 1 -1.1104 3.63674 7.44088 6.43042
69 1 -1.1104 6.47118 4.67761 3.76816
5 1 -1.1104 6.45195 1.99354 0.798752
236 1 -1.1104 0.690368 4.63436 6.71157
169 1 -1.1104 6.61329 1.81694 6.32368
59 1 -1.1104 6.50383 7.58919 3.58088
9 1 -1.1104 6.41476 1.88314 3.39898
237 1 -1.1104 6.75182 4.72687 6.61845
17327 2 2.2208 13.4074 -5.06299 13.5688
58 1 -1.1104 0.845616 7.31726 3.7328
354 2 2.2208 13.2784 6.09258 13.5224
173 1 -1.1104 3.5958 1.85824 6.73687
235 1 -1.1104 6.59266 7.79466 6.37406
234 1 -1.1104 0.621317 7.31736 6.63767
63 1 -1.1104 6.79465 4.62577 1.14312
33 1 -1.1104 12.2217 1.52756 0.835057
35 1 -1.1104 12.1787 1.91743 3.7842
38 2 2.2208 10.8859 3.19485 2.25409
41 1 -1.1104 9.5839 1.98321 0.799656
44 1 -1.1104 9.38329 1.83597 3.74655
46 2 2.2208 8.08556 3.15942 5.16232
84 2 2.2208 10.6629 6.07952 5.15065
86 1 -1.1104 12.1963 7.20014 0.491238
87 1 -1.1104 12.3688 7.50332 3.52431
88 1 -1.1104 12.3818 4.33781 1.0126
92 1 -1.1104 12.2221 4.76398 3.8568
94 1 -1.1104 9.16842 7.64399 1.01521
95 2 2.2208 8.11713 6.08796 2.37214
99 1 -1.1104 9.66524 4.83037 0.949134
102 1 -1.1104 9.27897 4.61221 3.82014
97 1 -1.1104 9.37921 7.66528 3.75911
266 1 -1.1104 12.3378 4.72005 6.77604
209 1 -1.1104 9.46796 1.7339 6.59682
206 1 -1.1104 12.2537 1.83535 6.53114
269 1 -1.1104 9.51318 4.66085 6.64677
57 1 -1.1104 6.59776 7.5252 0.933173
55 2 2.2208 4.94647 11.6736 5.20963
61 1 -1.1104 0.928161 10.2116 0.912119
66 2 2.2208 5.09931 8.91979 2.15821
68 1 -1.1104 0.676694 10.0028 3.75602
73 2 2.2208 2.48222 11.7567 2.41467
75 2 2.2208 2.20156 8.9871 5.15478
77 1 -1.1104 3.76423 10.6498 0.922469
80 1 -1.1104 3.5767 10.3897 3.97975
107 1 -1.1104 1.13823 13.1698 0.876327
113 1 -1.1104 0.844877 12.8155 3.67237
123 1 -1.1104 3.85572 13.3514 0.841113
128 1 -1.1104 3.57249 13.235 3.8008
78 1 -1.1104 3.50645 10.1578 6.59885
111 1 -1.1104 6.10538 13.2252 6.3862
70 1 -1.1104 6.59039 10.3429 3.91449
110 1 -1.1104 6.43619 13.3695 0.962754
64 1 -1.1104 6.4698 10.4061 1.10474
62 1 -1.1104 0.758427 10.3274 6.40201
8605 2 2.2208 13.5109 5.98859 2.30058
115 1 -1.1104 6.3932 13.051 3.63
85 2 2.2208 10.937 11.7671 5.12875
89 1 -1.1104 12.0893 10.1694 0.821322
91 2 2.2208 10.7477 9.03236 2.19596
93 1 -1.1104 12.0779 10.2842 3.65708
96 2 2.2208 7.80999 11.7106 2.39372
98 2 2.2208 7.8514 9.05267 5.13581
100 1 -1.1104 9.27272 10.3219 0.900354
103 1 -1.1104 9.36818 10.5807 3.682
142 1 -1.1104 12.0525 12.8688 1.16528
146 1 -1.1104 12.2199 13.1065 3.92992
153 1 -1.1104 9.20669 13.064 1.06013
158 1 -1.1104 9.27446 13.2541 3.63427
143 1 -1.1104 12.2425 13.0352 6.77718
154 1 -1.1104 9.039 13.0743 6.59891
8054 2 2.2208 5.12739 -5.04021 10.9029
65 1 -1.1104 6.40735 10.4293 6.55446
8053 2 2.2208 2.37438 -5.11439 7.96676
8641 2 2.2208 13.5933 0.48093 2.25284
130 2 2.2208 2.17753 14.3906 5.20569
119 2 2.2208 5.15345 14.631 2.41847
106 2 2.2208 5.031 17.3121 5.31276
109 1 -1.1104 0.776144 18.6925 0.82485
114 1 -1.1104 0.82599 18.8079 3.75616
116 1 -1.1104 0.818995 15.9384 0.751673
120 2 2.2208 5.10174 20.124 2.44402
121 1 -1.1104 0.963392 16.1437 3.93051
125 1 -1.1104 3.67018 18.8859 0.880218
127 2 2.2208 2.30411 17.266 2.4386
129 1 -1.1104 3.832 18.591 3.59702
131 2 2.2208 2.40127 20.1242 5.23801
132 1 -1.1104 3.7278 16.2078 0.95685
134 1 -1.1104 3.60214 15.7941 3.9208
126 1 -1.1104 3.86723 18.5808 6.8029
117 1 -1.1104 0.919461 15.985 6.60037
133 1 -1.1104 3.64396 15.7922 6.66001
320 2 2.2208 7.95899 17.2891 8.04968
138 1 -1.1104 6.60497 19.0566 0.950687
122 1 -1.1104 6.54927 15.9373 3.85521
140 1 -1.1104 6.41787 16.2047 0.886406
139 1 -1.1104 6.684 18.765 3.69693
160 2 2.2208 7.97272 14.6139 5.03489
150 2 2.2208 10.7924 14.5749 2.39405
141 2 2.2208 10.8528 17.3198 5.15322
144 1 -1.1104 12.1891 18.7715 1.04623
147 1 -1.1104 11.9977 18.6274 3.68859
148 1 -1.1104 12.112 15.7582 0.902006
151 2 2.2208 10.5935 20.0596 2.40058
152 1 -1.1104 12.11 15.7568 3.67144
155 1 -1.1104 9.59757 18.7691 0.716158
157 2 2.2208 7.90179 17.4509 2.26203
159 1 -1.1104 9.27043 18.857 3.75297
161 2 2.2208 8.06673 20.2317 5.16849
162 1 -1.1104 9.27174 16.0371 1.01423
164 1 -1.1104 9.52885 15.8797 3.78102
149 1 -1.1104 12.2319 16.0792 6.49312
118 1 -1.1104 6.55819 15.9093 6.63511
163 1 -1.1104 9.35995 15.9702 6.5537
8051 2 2.2208 10.5879 -5.29867 4.94126
232 2 2.2208 10.7625 20.2826 8.04668
340 2 2.2208 2.2522 20.093 -0.421377
166 1 -1.1104 0.761924 -4.00821 6.56785
165 2 2.2208 13.4716 17.2722 2.39053
175 2 2.2208 4.99719 0.245562 10.5523
176 1 -1.1104 1.07569 -3.58714 12.1986
180 1 -1.1104 0.754487 -3.81455 9.43063
184 1 -1.1104 0.720564 -1.12533 12.1821
186 2 2.2208 5.0996 -2.28079 7.9312
188 1 -1.1104 0.745619 -1.00247 9.26712
190 1 -1.1104 3.75015 -3.70171 12.2088
192 2 2.2208 2.12056 0.559821 7.82011
193 1 -1.1104 3.66606 -3.69772 9.44624
195 2 2.2208 2.13385 -2.46039 10.756
197 1 -1.1104 3.53399 -0.883703 12.1305
198 1 -1.1104 3.52844 -0.947828 9.16066
182 1 -1.1104 6.5247 -3.7769 8.96518
189 1 -1.1104 6.48064 -1.06474 9.28051
178 1 -1.1104 6.51464 -3.41625 11.9981
185 1 -1.1104 6.36893 -1.0136 12.208
49 2 2.2208 10.7738 17.2309 10.7532
326 2 2.2208 4.95204 -2.28064 13.5277
8052 2 2.2208 13.6628 -5.05918 2.26603
331 2 2.2208 7.84889 0.355488 13.5417
204 2 2.2208 13.579 3.28071 5.17429
339 2 2.2208 5.05455 17.4956 -0.376951
211 2 2.2208 10.6764 0.426235 10.7138
212 1 -1.1104 12.0169 -3.8357 12.1399
214 1 -1.1104 11.8579 -3.85197 9.47702
216 1 -1.1104 12.334 -1.05425 12.0853
217 2 2.2208 10.5478 -2.40731 7.88993
219 1 -1.1104 12.0642 -1.16146 9.21654
220 1 -1.1104 9.19109 -3.75054 12.2526
222 2 2.2208 7.88275 0.596792 7.80816
223 1 -1.1104 9.33661 -3.98589 9.46415
225 2 2.2208 8.02658 -2.49062 10.7064
227 1 -1.1104 9.11926 -1.01989 12.3789
228 1 -1.1104 9.43858 -1.07108 9.4179
8606 2 2.2208 13.5465 17.4674 7.96167
341 2 2.2208 7.9299 6.08075 13.4951
239 1 -1.1104 3.73794 4.8071 6.56133
167 1 -1.1104 0.910525 1.83419 6.30957
230 2 2.2208 13.4535 -2.36169 10.6246
177 1 -1.1104 0.916241 2.00078 12.2531
181 1 -1.1104 1.05154 1.62403 9.45771
187 2 2.2208 5.10502 3.4243 8.05712
191 1 -1.1104 3.53564 1.85381 12.1914
194 1 -1.1104 3.69149 1.96042 9.40768
196 2 2.2208 2.36718 3.27453 10.8291
240 2 2.2208 5.06421 6.39228 10.889
242 1 -1.1104 1.001 7.49103 12.2964
244 1 -1.1104 0.815262 7.45786 9.4083
246 1 -1.1104 1.12213 4.70779 12.3723
251 1 -1.1104 0.739418 4.44035 9.50928
256 2 2.2208 2.01197 6.05368 7.93849
260 1 -1.1104 3.81472 4.67111 12.0279
262 1 -1.1104 3.46566 4.72469 9.30619
255 1 -1.1104 3.68158 7.45693 12.2449
258 1 -1.1104 3.59352 7.63589 9.4259
179 1 -1.1104 6.29986 1.634 11.7875
243 1 -1.1104 6.63812 7.70257 12.1131
245 1 -1.1104 6.63052 7.60647 9.3869
343 2 2.2208 8.01787 11.8473 13.4378
136 2 2.2208 -0.355064 20.1849 2.28827
265 1 -1.1104 12.2015 7.5689 6.42463
53 2 2.2208 13.6007 3.27001 10.7869
253 1 -1.1104 6.28962 4.77516 9.37041
248 1 -1.1104 6.35672 4.76391 12.2707
183 1 -1.1104 6.73531 2.10707 9.15318
267 1 -1.1104 9.36172 7.53177 6.66511
213 1 -1.1104 12.1034 1.76252 12.1619
215 1 -1.1104 12.1452 1.74884 9.12583
218 2 2.2208 10.7214 3.19527 7.95735
221 1 -1.1104 9.31466 1.90419 12.2396
224 1 -1.1104 9.37735 1.74348 9.42672
226 2 2.2208 7.80412 3.39168 10.7521
268 1 -1.1104 9.1446 4.69836 9.5015
271 1 -1.1104 9.28622 4.64948 12.3064
275 2 2.2208 8.01248 6.17483 8.02703
276 2 2.2208 10.7625 6.02633 10.7031
279 1 -1.1104 12.1874 7.44924 9.41572
280 1 -1.1104 12.037 4.62076 12.2296
283 1 -1.1104 12.0344 4.55832 9.44584
285 1 -1.1104 9.41519 7.36299 12.1501
278 1 -1.1104 12.2441 7.5854 12.1542
203 2 2.2208 13.4559 20.0388 5.23644
124 1 -1.1104 3.4784 12.9769 6.69899
108 1 -1.1104 0.719733 12.9775 6.65463
327 2 2.2208 2.36365 0.44393 13.5864
8057 2 2.2208 10.5567 -5.24886 10.6526
241 2 2.2208 5.14945 11.7508 10.8796
247 1 -1.1104 0.939123 10.4636 12.2628
250 2 2.2208 4.94411 8.95361 8.08067
252 1 -1.1104 0.999604 10.085 9.32321
257 2 2.2208 2.29669 11.5461 8.02752
259 2 2.2208 2.24625 8.99602 10.7857
261 1 -1.1104 3.72334 10.4162 12.1446
263 1 -1.1104 3.81033 10.3881 9.3198
287 1 -1.1104 3.77192 12.9382 12.4464
294 1 -1.1104 0.866972 12.9436 9.65183
299 1 -1.1104 0.977212 13.2563 12.3566
305 1 -1.1104 3.63302 13.1601 9.54208
297 1 -1.1104 6.57633 13.3215 12.0261
249 1 -1.1104 6.59134 10.5103 12.2487
321 1 -1.1104 9.35573 18.748 12.1205
358 2 2.2208 -0.453657 3.25092 13.6774
50 2 2.2208 13.4 -2.35477 4.89658
101 1 -1.1104 9.38481 10.2199 6.53643
359 2 2.2208 13.389 0.434247 13.6096
273 1 -1.1104 9.58472 7.52853 9.29806
254 1 -1.1104 6.44855 10.2722 9.43164
290 1 -1.1104 6.63607 13.2605 9.33247
90 1 -1.1104 12.2158 10.5199 6.60107
322 1 -1.1104 9.42027 12.9343 12.0624
319 1 -1.1104 9.43099 12.9746 9.30434
199 1 -1.1104 12.1614 13.2029 9.49637
264 1 -1.1104 9.50664 10.1556 9.20355
270 1 -1.1104 9.4241 10.3009 12.0222
272 2 2.2208 8.06607 8.74058 10.64
274 2 2.2208 7.80316 11.5446 7.96057
277 2 2.2208 10.8662 11.6681 10.7882
281 1 -1.1104 12.4444 10.3631 12.1247
282 2 2.2208 10.8822 8.91702 7.91156
284 1 -1.1104 12.0351 10.2741 9.43086
105 1 -1.1104 12.264 13.037 12.2243
8069 2 2.2208 2.26041 -5.15565 13.5802
8640 2 2.2208 13.6418 14.6472 10.8257
112 1 -1.1104 6.44285 18.725 6.76895
348 2 2.2208 10.6077 14.5903 13.71
365 2 2.2208 -0.412829 11.5692 -0.43793
296 1 -1.1104 6.68632 18.6036 12.1845
233 1 -1.1104 12.0848 16.0207 9.19484
310 2 2.2208 2.15977 14.5375 10.8229
302 1 -1.1104 1.08349 18.7251 6.41193
295 2 2.2208 5.03184 14.4909 7.99812
307 1 -1.1104 0.825138 16.1432 12.4665
308 1 -1.1104 3.43049 15.9908 12.1744
309 2 2.2208 2.36332 20.1972 10.755
286 1 -1.1104 3.94634 18.9191 12.1014
291 1 -1.1104 0.870862 18.6465 9.28591
292 1 -1.1104 0.65872 15.7277 9.31358
293 2 2.2208 5.19163 20.0645 8.08176
298 1 -1.1104 0.967701 18.7525 12.1724
300 2 2.2208 5.08017 17.2892 10.7996
301 1 -1.1104 3.85383 18.725 9.41309
303 2 2.2208 2.189 17.2558 7.99536
304 1 -1.1104 3.51609 15.8387 9.35767
306 1 -1.1104 6.31593 16.0087 12.2432
51 2 2.2208 13.5524 11.8098 8.07238
231 2 2.2208 10.5591 14.2859 7.81073
145 1 -1.1104 12.149 18.8039 6.78743
156 1 -1.1104 9.47354 18.9804 6.359
8474 2 2.2208 13.4782 8.82072 5.12347
315 1 -1.1104 9.24923 15.9456 12.28
314 1 -1.1104 9.38421 15.8304 9.5857
318 1 -1.1104 9.43485 18.6015 9.2692
313 1 -1.1104 12.1341 15.9178 12.2612
317 2 2.2208 7.79696 14.589 10.7998
135 1 -1.1104 12.3493 18.8691 12.3778
289 1 -1.1104 6.46817 16.0071 9.52878
52 2 2.2208 13.5075 6.12627 7.92603
316 2 2.2208 8.01614 20.0433 10.8292
288 1 -1.1104 6.66878 18.6159 9.5258
312 1 -1.1104 12.1552 18.8151 9.53287
335 2 2.2208 5.26775 9.11873 13.6228
332 2 2.2208 10.7633 -2.44668 13.5851
8066 2 2.2208 7.86466 -5.06313 13.6299
333 2 2.2208 10.7007 3.24396 13.4947
344 2 2.2208 2.32303 17.6032 13.6383
329 2 2.2208 10.8781 17.166 -0.378227
104 2 2.2208 13.5353 11.4827 2.3676
330 2 2.2208 7.87245 20.1952 -0.456723
328 2 2.2208 5.03809 3.23713 13.5098
347 2 2.2208 10.8103 20.1235 13.6388
8050 2 2.2208 7.64892 -5.22933 2.19477
342 2 2.2208 10.6819 8.87474 13.5779
202 2 2.2208 13.4547 14.6417 5.25257
368 2 2.2208 7.74627 8.82227 -0.425289
8065 2 2.2208 5.05094 -5.26885 -0.326482
349 2 2.2208 7.83889 17.3784 13.4433
370 2 2.2208 5.10216 0.671395 16.3472
371 1 -1.1104 0.88491 -3.8802 17.8937
375 1 -1.1104 0.592126 -3.80556 15.2367
383 1 -1.1104 0.866808 -0.9982 17.9706
385 2 2.2208 5.03581 -2.45484 18.9487
387 1 -1.1104 0.78669 -0.963796 15.1109
391 1 -1.1104 3.70295 -3.86802 17.8313
393 2 2.2208 2.20689 0.406268 19.2083
394 1 -1.1104 3.48192 -3.6362 15.1227
398 2 2.2208 2.06067 -2.38173 16.3915
400 1 -1.1104 3.45233 -0.908278 17.6669
401 1 -1.1104 3.85486 -0.805087 14.9521
379 1 -1.1104 6.7363 -3.83524 14.9036
376 1 -1.1104 0.992374 -3.84166 20.6849
389 1 -1.1104 6.31295 -1.14668 14.8804
373 1 -1.1104 6.47433 -3.73951 17.551
384 1 -1.1104 6.45627 -0.937009 17.5698
345 2 2.2208 5.27366 20.034 13.7138
395 1 -1.1104 3.80107 -3.81151 20.534
402 1 -1.1104 3.66611 -1.00012 20.5536
362 2 2.2208 5.05089 6.02053 27.5905
413 2 2.2208 10.5716 0.594865 16.4337
414 1 -1.1104 12.1316 -3.69348 18.0664
416 1 -1.1104 12.1269 -3.7585 15.1024
420 1 -1.1104 12.0075 -0.933788 17.7217
421 2 2.2208 10.7545 -2.28073 19.1968
423 1 -1.1104 12.0939 -1.01527 14.8779
425 1 -1.1104 9.05334 -3.81581 17.6449
427 2 2.2208 7.8315 0.258512 19.0752
428 1 -1.1104 9.4111 -3.61364 14.8799
432 2 2.2208 7.80417 -2.29934 16.2881
434 1 -1.1104 9.32079 -1.02602 17.7729
435 1 -1.1104 9.22078 -0.820527 15.1356
436 1 -1.1104 9.37767 -1.01794 20.4558
417 1 -1.1104 12.2543 -3.89375 20.8374
380 1 -1.1104 6.5708 -4.0125 20.238
429 1 -1.1104 9.17395 -3.86726 20.4571
424 1 -1.1104 12.3085 -0.995933 20.422
355 2 2.2208 10.8216 0.52454 27.5555
390 1 -1.1104 6.2962 -0.910552 20.4118
8810 2 2.2208 13.5298 0.393795 19.2265
8132 2 2.2208 7.73675 -5.16503 24.6679
323 2 2.2208 13.6211 14.4956 27.6575
372 1 -1.1104 0.747639 1.96358 17.9187
377 1 -1.1104 0.845788 1.83126 15.064
386 2 2.2208 5.01777 3.37349 19.1996
392 1 -1.1104 3.68753 2.1364 17.7908
396 1 -1.1104 3.49713 1.94269 15.0866
399 2 2.2208 2.15989 3.34378 16.5493
446 2 2.2208 5.10126 5.88551 16.3658
454 1 -1.1104 0.690672 4.71784 17.8875
459 1 -1.1104 0.696605 4.76184 15.151
467 1 -1.1104 3.61842 7.28746 17.8797
468 2 2.2208 2.17612 6.17923 19.2419
473 1 -1.1104 3.73443 4.73754 17.6681
475 1 -1.1104 3.61121 4.55331 14.8434
470 1 -1.1104 3.5956 7.28639 15.1985
450 1 -1.1104 0.794858 7.53472 14.9379
448 1 -1.1104 0.832117 7.40898 17.7926
451 1 -1.1104 0.939477 7.49282 20.7135
378 1 -1.1104 0.725037 1.98249 20.7275
476 1 -1.1104 3.64677 4.66878 20.6887
460 1 -1.1104 0.664322 4.73482 20.8283
381 1 -1.1104 6.35329 1.96635 14.7733
456 1 -1.1104 6.54964 4.714 17.828
449 1 -1.1104 6.34755 7.50879 17.6585
471 1 -1.1104 3.71933 7.61658 20.5436
636 2 2.2208 13.5417 0.252761 24.7602
464 1 -1.1104 6.36755 4.92469 20.7242
452 1 -1.1104 6.58669 7.58436 14.7638
463 1 -1.1104 6.59478 4.68538 14.9003
374 1 -1.1104 6.41246 1.86455 17.604
415 1 -1.1104 12.1937 1.92615 17.7067
418 1 -1.1104 12.0487 1.81656 15.0488
422 2 2.2208 10.6556 3.23443 19.2501
426 1 -1.1104 9.27644 1.97968 17.9198
430 1 -1.1104 9.21352 1.86295 14.9523
433 2 2.2208 7.99634 3.46664 16.2403
482 2 2.2208 10.5141 6.15003 16.4007
487 1 -1.1104 11.9228 4.83946 17.96
490 1 -1.1104 11.9589 4.74721 14.9752
495 2 2.2208 7.77906 6.10934 19.2388
500 1 -1.1104 9.13556 4.67153 17.8788
502 1 -1.1104 9.25701 4.73787 14.9846
494 1 -1.1104 9.04224 7.48123 17.6184
497 1 -1.1104 9.40931 7.43341 14.9126
484 1 -1.1104 11.9203 7.67321 17.795
491 1 -1.1104 12.1297 4.7283 20.789
419 1 -1.1104 11.8209 1.81203 20.6352
453 1 -1.1104 6.38848 7.49743 20.6374
485 1 -1.1104 12.2509 7.6537 14.8205
486 1 -1.1104 12.1531 7.44481 20.6167
498 1 -1.1104 9.26033 7.41239 20.4745
382 1 -1.1104 6.11144 1.74613 20.5017
431 1 -1.1104 8.89231 1.74929 20.5348
503 1 -1.1104 9.01371 4.61431 20.6553
8951 2 2.2208 13.6493 20.2791 16.5125
8991 2 2.2208 -0.415346 17.511 16.5243
447 2 2.2208 5.14767 11.8197 16.4639
455 1 -1.1104 0.811783 10.2868 17.8825
458 2 2.2208 5.04703 8.84286 19.2414
461 1 -1.1104 0.770497 10.1376 15.0363
469 2 2.2208 2.2858 11.8137 19.2098
472 2 2.2208 2.24724 8.79482 16.3239
474 1 -1.1104 3.50195 10.2484 17.7767
477 1 -1.1104 3.61631 10.251 14.8409
510 1 -1.1104 0.961839 13.0967 17.9814
514 1 -1.1104 0.934943 13.1645 15.2082
530 1 -1.1104 3.66245 13.2442 17.8165
533 1 -1.1104 3.70888 13.2551 15.1144
457 1 -1.1104 6.38357 10.4284 18.0159
466 1 -1.1104 6.35932 10.3153 20.6766
534 1 -1.1104 3.75242 13.1168 20.6642
465 1 -1.1104 6.40561 10.4749 15.2334
512 1 -1.1104 6.59605 13.2761 17.8892
518 1 -1.1104 6.57744 13.3156 14.8855
412 1 -1.1104 9.33882 18.8208 26.3537
478 1 -1.1104 3.70539 10.2819 20.7472
515 1 -1.1104 0.821268 13.0728 20.7768
462 1 -1.1104 0.862594 10.286 20.6517
519 1 -1.1104 6.50729 13.1284 20.7285
483 2 2.2208 10.685 11.5914 16.4768
488 1 -1.1104 12.1981 10.4041 18.0107
489 2 2.2208 10.6953 8.96242 19.2515
492 1 -1.1104 12.036 10.1748 15.2804
496 2 2.2208 7.76402 11.8127 19.398
499 2 2.2208 7.73132 8.8492 16.377
501 1 -1.1104 9.32548 10.3051 17.934
504 1 -1.1104 9.15426 10.0496 14.813
546 1 -1.1104 12.2309 13.4295 17.76
548 1 -1.1104 12.4251 12.8294 15.1294
557 1 -1.1104 9.45222 13.0148 17.7243
560 1 -1.1104 9.33908 12.9922 15.1121
549 1 -1.1104 12.1234 13.0198 20.4343
561 1 -1.1104 9.21527 13.298 20.4882
493 1 -1.1104 12.1648 10.2407 20.9068
505 1 -1.1104 9.33196 10.3963 20.7759
635 2 2.2208 10.7955 14.6086 24.8454
8880 2 2.2208 13.6877 11.84 19.1156
537 2 2.2208 2.24234 14.6775 16.4802
524 2 2.2208 4.93154 14.621 19.3131
509 2 2.2208 5.29084 17.3412 16.6713
511 1 -1.1104 1.02874 18.7177 17.9553
516 1 -1.1104 0.984749 18.79 15.1549
522 1 -1.1104 0.897774 16.096 17.8868
525 2 2.2208 5.16322 20.1803 19.1385
526 1 -1.1104 0.871891 16.0838 14.9897
531 1 -1.1104 3.86909 18.7498 17.8406
532 2 2.2208 2.22688 17.3409 19.3656
535 1 -1.1104 3.67132 18.9706 14.8619
538 2 2.2208 2.37807 20.213 16.5399
539 1 -1.1104 3.63582 15.9621 17.7741
540 1 -1.1104 3.71077 16.1872 15.1058
517 1 -1.1104 0.995475 18.7807 20.722
528 1 -1.1104 6.53628 15.8877 15.1415
408 2 2.2208 7.93651 17.4188 25.1167
541 1 -1.1104 3.4106 15.8464 20.4412
443 1 -1.1104 9.35132 16.1865 23.5672
8062 2 2.2208 10.6862 -5.06827 27.6726
364 2 2.2208 5.28718 12.0115 27.6249
521 1 -1.1104 6.76164 18.6443 20.5905
556 1 -1.1104 12.2633 15.8757 20.5627
523 1 -1.1104 6.53989 15.9494 17.7008
553 2 2.2208 10.8077 14.4975 19.0849
564 2 2.2208 7.96532 14.5205 16.3494
520 1 -1.1104 6.49256 18.6001 15.233
513 1 -1.1104 6.52224 18.7083 17.9754
545 2 2.2208 10.9145 17.3823 16.4364
547 1 -1.1104 12.211 18.8576 18.1276
550 1 -1.1104 12.3488 18.7313 15.0735
552 1 -1.1104 12.2632 16.1173 17.8588
554 2 2.2208 10.9438 20.2164 19.3647
555 1 -1.1104 12.0753 15.9692 15.0318
558 1 -1.1104 9.53016 18.7944 17.8198
559 2 2.2208 8.10471 17.3419 19.2192
562 1 -1.1104 9.52951 18.7189 14.8833
565 2 2.2208 8.11561 20.1692 16.3538
566 1 -1.1104 9.44026 15.9097 17.4772
567 1 -1.1104 9.26739 15.9869 14.8497
529 1 -1.1104 6.56891 15.9228 20.694
551 1 -1.1104 12.3 18.6501 21.18
568 1 -1.1104 9.4983 15.9885 20.421
563 1 -1.1104 9.54926 18.8876 20.472
8740 2 2.2208 -0.391349 0.3175 27.739
388 1 -1.1104 0.765 -1.07642 20.9625
8170 2 2.2208 10.6542 -5.21371 16.3844
353 2 2.2208 2.35496 3.34412 27.8133
573 2 2.2208 4.95092 0.52827 21.8396
574 1 -1.1104 0.995683 -3.84348 23.2748
578 1 -1.1104 1.04405 -3.79368 26.2624
582 1 -1.1104 1.06034 -1.01631 23.7054
584 2 2.2208 5.15889 -2.34403 24.6404
586 1 -1.1104 0.854343 -0.902118 26.2006
588 1 -1.1104 3.61581 -3.89142 23.3603
590 2 2.2208 2.14611 0.384782 24.9064
591 1 -1.1104 3.72898 -4.19246 26.2471
593 2 2.2208 2.35201 -2.38963 22.0439
595 1 -1.1104 3.85732 -1.12618 23.4262
596 1 -1.1104 3.64454 -1.20225 26.1889
576 1 -1.1104 6.33982 -3.55436 23.0665
583 1 -1.1104 6.46077 -1.09447 23.2251
587 1 -1.1104 6.28488 -0.87012 26.0862
17437 2 2.2208 13.5884 -5.01276 19.1028
666 2 2.2208 10.8039 20.0887 25.1295
480 2 2.2208 -0.450544 14.5481 24.9406
601 1 -1.1104 12.0021 18.5156 23.7443
8844 2 2.2208 13.6186 -2.35861 22.0392
352 2 2.2208 2.24063 -2.44334 27.6511
580 1 -1.1104 6.52909 -3.72938 26.0288
9021 2 2.2208 -0.451793 -2.58122 19.252
609 2 2.2208 10.7283 0.40943 22.0544
610 1 -1.1104 12.059 -3.78127 23.4782
612 1 -1.1104 12.0562 -3.74081 26.2518
614 1 -1.1104 11.9145 -1.04094 23.5545
615 2 2.2208 10.4401 -2.48912 24.7935
617 1 -1.1104 12.2215 -0.955514 26.3024
618 1 -1.1104 9.28758 -3.68269 23.297
620 2 2.2208 7.87525 0.237799 24.7801
621 1 -1.1104 9.28609 -3.82455 26.3336
623 2 2.2208 7.81723 -2.45625 21.6081
625 1 -1.1104 9.20431 -0.771644 23.3951
626 1 -1.1104 9.04707 -1.06174 26.2209
337 2 2.2208 2.378 11.8722 13.8627
633 1 -1.1104 6.52966 16.1877 26.3539
606 1 -1.1104 12.3659 18.7688 26.3805
397 1 -1.1104 3.25576 1.92168 20.7003
9070 2 2.2208 13.4987 8.77467 22.222
360 2 2.2208 13.5106 -2.37378 27.7554
575 1 -1.1104 0.610786 1.74882 23.5205
579 1 -1.1104 0.875919 1.87166 26.3218
585 2 2.2208 5.22017 3.13459 24.8624
589 1 -1.1104 3.66171 1.84853 23.6759
592 1 -1.1104 3.86316 1.73923 26.2418
594 2 2.2208 1.99453 3.16795 22.178
638 2 2.2208 4.94152 6.02787 22.0272
640 1 -1.1104 0.935395 7.47767 23.4107
642 1 -1.1104 0.61675 7.67234 26.1974
644 1 -1.1104 0.741993 4.52949 23.6342
649 1 -1.1104 0.854491 4.87248 26.5331
653 1 -1.1104 3.7169 7.346 23.5016
654 2 2.2208 2.29101 5.93172 24.9751
658 1 -1.1104 3.47235 4.61869 23.3863
660 1 -1.1104 3.72877 4.52905 26.2668
656 1 -1.1104 3.55166 7.36995 26.294
651 1 -1.1104 6.38857 4.73102 26.4158
581 1 -1.1104 6.64426 1.68975 26.2071
643 1 -1.1104 6.43686 7.63108 26.424
351 2 2.2208 5.10697 0.317478 27.5411
602 2 2.2208 13.3879 6.05902 19.1768
8172 2 2.2208 5.14049 -5.28393 16.3804
646 1 -1.1104 6.38127 4.78812 23.5136
577 1 -1.1104 6.66098 1.82074 23.4135
8948 2 2.2208 13.6014 14.6215 16.4571
641 1 -1.1104 6.72115 7.70821 23.4268
611 1 -1.1104 12.3066 1.73763 23.3613
613 1 -1.1104 12.1348 1.89694 26.3749
616 2 2.2208 10.8675 3.17174 25.0046
619 1 -1.1104 9.52627 1.97626 23.4225
622 1 -1.1104 9.45991 1.55735 26.1517
624 2 2.2208 7.71774 3.27356 21.976
670 1 -1.1104 9.25213 4.4478 26.4228
672 1 -1.1104 9.29898 4.73353 23.4492
676 2 2.2208 7.9959 5.98113 24.77
677 2 2.2208 10.635 6.01631 21.9314
681 1 -1.1104 12.2261 4.4033 23.7113
684 1 -1.1104 12.0918 4.60964 26.4262
679 1 -1.1104 11.8758 7.0909 23.5851
668 1 -1.1104 9.31179 7.53462 23.355
674 1 -1.1104 9.08828 7.37404 26.2977
437 2 2.2208 7.91969 14.6038 21.8689
325 2 2.2208 7.86738 14.6251 27.7404
361 2 2.2208 13.5186 3.11284 27.5838
639 2 2.2208 4.99862 11.7068 22.27
645 1 -1.1104 0.608057 10.4214 23.5837
648 2 2.2208 5.19601 9.01127 24.8629
650 1 -1.1104 1.07159 10.4123 26.3876
655 2 2.2208 2.23823 11.8902 24.9447
657 2 2.2208 2.24631 8.89769 22.0761
659 1 -1.1104 3.69405 10.2291 23.6477
661 1 -1.1104 3.99234 10.4492 26.2212
543 1 -1.1104 3.6911 13.2431 26.3174
572 1 -1.1104 0.884712 13.3647 23.5597
628 1 -1.1104 0.963881 13.1354 26.2498
634 1 -1.1104 3.63855 13.1717 23.5627
637 1 -1.1104 6.49844 13.3964 26.2465
598 1 -1.1104 6.65195 13.3457 23.4771
652 1 -1.1104 6.4964 10.7073 26.3813
363 2 2.2208 2.49939 8.8057 27.5819
9023 2 2.2208 13.5908 17.318 24.9377
440 2 2.2208 -0.452027 11.717 16.6711
630 1 -1.1104 12.0887 15.8927 23.2875
680 1 -1.1104 12.0447 7.49491 26.1451
647 1 -1.1104 6.6155 10.5415 23.482
663 1 -1.1104 9.56683 13.1261 23.2243
669 1 -1.1104 9.25441 10.133 26.5272
671 1 -1.1104 9.30197 10.4424 23.7001
673 2 2.2208 7.82201 9.02025 22.0619
675 2 2.2208 7.92249 11.9023 24.7953
678 2 2.2208 10.8884 11.8138 22.0007
682 1 -1.1104 12.1353 10.153 23.5009
683 2 2.2208 10.5516 8.9355 24.9117
685 1 -1.1104 12.1703 10.3288 26.1963
605 1 -1.1104 12.2112 13.027 26.541
411 1 -1.1104 9.31267 13.2274 26.0687
600 1 -1.1104 12.3642 12.9684 23.3696
441 2 2.2208 7.88705 20.2187 22.1206
665 2 2.2208 13.5129 11.6445 24.8824
8133 2 2.2208 10.8273 -5.27433 22.1426
536 1 -1.1104 3.6839 18.638 20.7668
356 2 2.2208 7.88499 -2.46632 27.7121
542 1 -1.1104 6.58409 16.152 23.5619
527 1 -1.1104 0.793758 16.0459 20.9089
481 2 2.2208 2.2007 14.5246 22.2028
599 2 2.2208 5.08157 14.7238 24.91
506 2 2.2208 2.47661 20.0349 22.1174
507 1 -1.1104 3.71191 15.9352 23.357
508 1 -1.1104 0.986993 16.1289 23.715
544 1 -1.1104 3.6416 15.9049 26.2873
569 2 2.2208 2.20791 17.3949 25.0849
570 1 -1.1104 3.62389 18.6685 26.3723
571 2 2.2208 5.05819 17.4228 22.0743
597 1 -1.1104 0.882197 18.8256 23.4352
604 2 2.2208 4.98965 20.0951 24.8973
629 1 -1.1104 0.747172 15.7937 26.3796
631 1 -1.1104 0.836351 18.7338 26.3385
662 1 -1.1104 3.58718 18.7341 23.6568
410 1 -1.1104 6.40391 18.7022 26.3798
627 1 -1.1104 6.52181 19.0043 23.3462
442 2 2.2208 10.6536 17.3677 22.0543
603 2 2.2208 13.6568 9.031 16.4733
407 1 -1.1104 9.09656 19.0019 23.6185
444 1 -1.1104 9.48981 16.1361 26.3378
664 1 -1.1104 12.1427 15.9163 26.221
369 2 2.2208 10.7218 6.13978 27.57
409 2 2.2208 13.6527 17.433 19.421
403 2 2.2208 13.4693 3.15138 16.2755
8802 2 2.2208 13.496 5.95703 24.7867
8994 2 2.2208 13.4975 -2.39417 16.4715
367 2 2.2208 10.5931 11.6574 27.7205
405 2 2.2208 13.595 3.40462 21.9964
334 2 2.2208 2.25402 6.08062 13.7596
338 2 2.2208 2.25998 14.5205 27.7261
357 2 2.2208 7.90823 3.16382 27.7103
8735 2 2.2208 13.5791 8.96617 27.679
686 2 2.2208 5.23731 22.8464 5.27911
688 1 -1.1104 0.87791 24.5104 0.885108
689 1 -1.1104 0.805452 24.3924 3.81772
690 1 -1.1104 0.918234 21.5321 0.931128
692 2 2.2208 5.26633 25.7347 2.59473
693 1 -1.1104 1.04898 21.5858 3.7616
695 1 -1.1104 3.81041 24.4642 1.10365
696 2 2.2208 2.39437 22.9379 2.26972
698 1 -1.1104 3.77788 24.2909 3.96423
699 2 2.2208 2.33717 25.7269 5.26598
700 1 -1.1104 3.6793 21.6404 0.956249
702 1 -1.1104 3.65577 21.4946 3.77538
701 1 -1.1104 3.72101 27.1508 1.19575
703 1 -1.1104 3.81989 27.2993 3.93634
1005 2 2.2208 10.9784 36.9796 13.5839
827 1 -1.1104 1.12326 24.4678 6.82324
707 1 -1.1104 6.61734 24.3986 0.860672
709 1 -1.1104 6.45739 21.7785 1.02634
832 1 -1.1104 6.62802 27.0995 6.66153
834 1 -1.1104 3.69963 21.4027 6.58616
708 1 -1.1104 6.7293 24.2589 4.08897
711 1 -1.1104 6.53718 21.5122 3.83644
713 2 2.2208 10.7568 22.9244 5.15528
715 1 -1.1104 12.2747 24.2937 0.784372
716 1 -1.1104 12.1974 24.2411 3.61991
717 1 -1.1104 12.2174 21.4775 0.761925
719 2 2.2208 10.8632 25.7586 2.23753
720 1 -1.1104 12.3234 21.7007 3.66319
722 1 -1.1104 9.45218 24.3372 0.996245
723 2 2.2208 8.05214 23.151 2.3252
725 1 -1.1104 9.58365 24.3508 3.67085
726 2 2.2208 8.13293 25.755 5.23769
727 1 -1.1104 9.16919 21.5531 0.964341
729 1 -1.1104 9.27767 21.5456 3.65122
863 1 -1.1104 9.31816 24.389 6.59488
864 1 -1.1104 9.36239 21.6243 6.64803
721 1 -1.1104 12.1721 27.0939 3.80475
862 1 -1.1104 12.0947 26.9608 6.48816
9402 2 2.2208 13.6941 42.6135 11.0601
861 1 -1.1104 12.1379 21.5431 6.33886
831 1 -1.1104 6.71392 21.4213 6.6559
860 1 -1.1104 12.188 24.2223 6.66016
9442 2 2.2208 -0.314437 42.6959 13.6647
9282 2 2.2208 -0.201502 25.8296 7.95769
694 1 -1.1104 0.973473 27.143 3.8979
691 1 -1.1104 1.00379 27.445 0.970008
687 2 2.2208 5.28811 28.4705 5.39894
697 2 2.2208 2.42376 28.7037 2.41487
735 1 -1.1104 0.651332 30.1723 0.722433
738 1 -1.1104 0.926488 30.036 3.52954
741 1 -1.1104 0.906093 33.0208 1.10227
742 2 2.2208 5.20238 31.3469 2.34034
744 1 -1.1104 1.19605 32.5321 3.62285
746 1 -1.1104 3.67897 29.9821 0.850021
749 1 -1.1104 3.76929 29.9177 3.74747
751 2 2.2208 2.45511 31.5217 5.24177
753 1 -1.1104 3.96158 32.8642 1.04296
754 1 -1.1104 3.96414 32.8809 3.89673
890 1 -1.1104 3.87222 29.9873 6.71855
760 1 -1.1104 6.83695 32.6621 0.860287
758 1 -1.1104 6.39227 29.9047 1.05348
835 1 -1.1104 3.86613 27.0307 6.56833
830 1 -1.1104 0.979323 27.3 6.78036
892 1 -1.1104 3.96877 33.1364 6.69151
888 1 -1.1104 0.92573 32.9919 6.56025
884 1 -1.1104 0.959049 29.8871 6.47279
759 1 -1.1104 6.56369 29.9694 3.8027
710 1 -1.1104 6.54303 27.1525 1.00744
745 1 -1.1104 6.60615 32.8573 3.60528
730 1 -1.1104 9.34228 27.0739 3.74012
728 1 -1.1104 9.4381 27.2166 0.917131
712 1 -1.1104 6.66348 26.9601 3.92637
718 1 -1.1104 12.2735 27.2403 0.948661
714 2 2.2208 10.5748 28.4494 5.06272
724 2 2.2208 7.82952 28.5422 2.37585
762 1 -1.1104 12.1643 30.1019 0.840285
764 1 -1.1104 11.9366 29.9095 3.62684
766 1 -1.1104 12.0351 33.0517 0.901416
767 2 2.2208 10.7717 31.4953 2.34487
769 1 -1.1104 12.3994 32.6931 3.5707
770 1 -1.1104 9.31781 30.0428 0.831293
773 1 -1.1104 9.32372 30.0096 3.7133
775 2 2.2208 8.06692 31.4578 5.12935
777 1 -1.1104 9.37029 32.8882 1.06048
778 1 -1.1104 9.56281 32.8341 3.75729
889 1 -1.1104 6.83037 32.8498 6.61612
921 1 -1.1104 9.32728 30.0833 6.47301
923 1 -1.1104 9.49065 32.8382 6.64167
920 1 -1.1104 12.2465 32.6699 6.36903
980 1 -1.1104 9.4997 43.9705 12.3917
748 2 2.2208 2.53986 34.2187 2.25632
734 2 2.2208 5.29858 34.2829 5.17153
736 1 -1.1104 0.959976 35.7544 1.06099
739 1 -1.1104 1.17652 35.3937 3.83679
743 2 2.2208 5.12891 37.0853 2.38553