ITEM: TIMESTEP
40000
ITEM: NUMBER OF ATOMS
17700
ITEM: BOX BOUNDS pp pp pp
-4.3825379969542183e-01 2.7778253799695939e+01
-5.2346900431181647e+00 3.3331469004312487e+02
-4.4992813231702872e-01 2.7789928132316902e+01
ITEM: ATOMS id type q x y z
1 2 2.2208 4.89995 0.44656 5.11493
2 1 -1.1104 0.649433 -3.84237 0.868391
6 1 -1.1104 0.752662 -3.71584 3.67143
10 1 -1.1104 0.716359 -1.04802 0.773683
12 2 2.2208 5.0128 -2.59403 2.12431
14 1 -1.1104 0.624896 -0.85577 3.75309
16 1 -1.1104 3.5147 -3.85488 0.988444
18 2 2.2208 1.91792 0.314595 2.28929
19 1 -1.1104 3.597 -3.81712 3.66182
21 2 2.2208 2.12757 -2.44815 5.14181
23 1 -1.1104 3.73218 -1.20484 1.06034
24 1 -1.1104 3.30836 -0.902895 3.81953
11 1 -1.1104 6.36136 -1.04829 0.826921
8 1 -1.1104 6.22687 -3.85235 3.69211
4 1 -1.1104 6.4064 -3.8505 0.869566
15 1 -1.1104 6.21212 -1.01988 3.77402
172 1 -1.1104 3.19511 -3.70186 6.64369
174 1 -1.1104 3.56155 -0.966735 6.58932
168 1 -1.1104 6.4711 -3.87472 6.52606
171 1 -1.1104 6.2875 -1.00791 6.41239
359 2 2.2208 13.2578 0.334974 13.4286
31 2 2.2208 10.3933 0.277679 5.16646
32 1 -1.1104 11.8567 -3.87155 0.745776
34 1 -1.1104 11.7614 -3.90447 3.65857
36 1 -1.1104 12.0369 -1.00214 0.978486
37 2 2.2208 10.5325 -2.5614 2.24061
39 1 -1.1104 12.0821 -1.0856 3.86255
40 1 -1.1104 9.08195 -4.04897 0.579189
42 2 2.2208 7.63305 0.233862 2.41158
43 1 -1.1104 9.05493 -3.74985 3.61718
45 2 2.2208 7.80385 -2.44765 4.99499
47 1 -1.1104 9.12893 -0.959847 1.00554
48 1 -1.1104 9.30684 -1.11017 3.53081
50 2 2.2208 13.3618 -2.44026 5.17321
8641 2 2.2208 13.5014 0.242544 2.21758
207 1 -1.1104 11.9823 -1.42248 6.69535
314 1 -1.1104 9.03348 15.6889 9.447
205 1 -1.1104 11.9962 -4.1002 6.54187
8051 2 2.2208 10.5323 -5.21463 4.98193
335 2 2.2208 5.05769 8.61821 13.4318
3 1 -1.1104 0.508068 1.75336 0.92879
7 1 -1.1104 0.511707 1.89628 3.78411
13 2 2.2208 4.84797 3.25328 2.26871
17 1 -1.1104 3.19869 1.78086 0.885761
20 1 -1.1104 3.38572 1.88628 3.90816
22 2 2.2208 1.94433 3.1413 5.3116
54 2 2.2208 4.88341 5.88383 5.10481
56 1 -1.1104 0.508667 7.37089 0.920496
60 1 -1.1104 0.732478 4.60225 0.991179
67 1 -1.1104 0.49238 4.79287 3.59605
72 2 2.2208 1.98333 5.9229 2.30181
74 1 -1.1104 3.44068 7.29346 3.67896
76 1 -1.1104 3.62346 4.55173 0.859458
79 1 -1.1104 3.15169 4.50011 3.55869
71 1 -1.1104 3.3159 7.41641 0.810747
59 1 -1.1104 6.20663 7.31958 3.60039
63 1 -1.1104 6.52338 4.82275 0.791039
5 1 -1.1104 6.07106 1.65691 1.02645
167 1 -1.1104 0.51647 1.85193 6.62562
9 1 -1.1104 6.29445 1.81106 3.71781
58 1 -1.1104 0.424972 7.76153 3.60141
238 1 -1.1104 3.41114 7.44922 6.39309
239 1 -1.1104 3.41941 4.42009 6.51975
234 1 -1.1104 0.627098 7.193 6.42789
69 1 -1.1104 5.95613 4.59632 3.53592
57 1 -1.1104 6.11725 7.56529 0.710231
237 1 -1.1104 6.30767 4.53403 6.43568
235 1 -1.1104 6.34401 7.29578 6.34788
169 1 -1.1104 6.27309 1.75232 6.48977
204 2 2.2208 13.283 3.10239 5.14659
8605 2 2.2208 13.3791 6.07304 2.32841
33 1 -1.1104 12.174 1.86562 0.956457
35 1 -1.1104 11.7473 1.79537 3.52395
38 2 2.2208 10.5809 3.17935 2.35782
41 1 -1.1104 9.16018 1.97968 0.921744
44 1 -1.1104 9.03419 1.76724 3.64568
46 2 2.2208 7.67284 3.29186 5.06256
84 2 2.2208 10.7684 6.09565 5.12932
86 1 -1.1104 11.967 7.45217 0.775365
87 1 -1.1104 11.8499 7.3764 3.69476
88 1 -1.1104 11.9069 4.57223 1.03878
92 1 -1.1104 11.8881 4.61493 3.79928
94 1 -1.1104 9.19953 7.39025 0.675264
95 2 2.2208 7.65471 6.1006 2.25853
99 1 -1.1104 9.3633 4.60481 1.01874
102 1 -1.1104 8.87864 4.74916 3.67484
97 1 -1.1104 9.09152 7.29356 3.671
209 1 -1.1104 9.04955 1.90456 6.56318
267 1 -1.1104 9.10597 7.27425 6.43457
206 1 -1.1104 11.8872 1.51402 6.35883
266 1 -1.1104 11.9004 4.46061 6.55539
55 2 2.2208 4.98118 11.5173 5.17084
61 1 -1.1104 0.744391 10.1141 0.735863
66 2 2.2208 4.78748 8.63062 2.29313
68 1 -1.1104 0.68905 10.3791 3.41685
73 2 2.2208 2.18803 11.5292 2.31996
75 2 2.2208 2.00561 8.76974 5.08802
77 1 -1.1104 3.53287 9.98632 0.77468
80 1 -1.1104 3.8122 10.249 3.4574
107 1 -1.1104 0.775457 12.7754 1.048
113 1 -1.1104 0.805319 13.0538 3.90781
123 1 -1.1104 3.47516 13.1361 0.7799
128 1 -1.1104 3.77566 12.9619 3.64047
70 1 -1.1104 6.43141 10.3084 3.81372
110 1 -1.1104 6.21974 13.0312 0.809265
65 1 -1.1104 6.21512 9.88638 6.59103
64 1 -1.1104 6.24646 10.3261 0.997747
62 1 -1.1104 0.644242 10.165 6.38576
115 1 -1.1104 6.60185 12.8535 3.82337
108 1 -1.1104 0.665764 12.9805 6.46395
124 1 -1.1104 3.56781 12.9505 6.79448
111 1 -1.1104 6.52425 12.9402 6.65129
78 1 -1.1104 3.42541 10.2883 6.18941
8474 2 2.2208 13.4195 8.68017 5.14106
85 2 2.2208 10.4602 11.6518 5.0423
89 1 -1.1104 12.0458 10.104 0.739759
91 2 2.2208 10.4167 8.7671 2.33319
93 1 -1.1104 11.8488 10.0638 3.59921
96 2 2.2208 7.51112 11.6025 2.25019
98 2 2.2208 7.59111 8.74926 5.12103
100 1 -1.1104 9.03892 10.0321 0.889223
103 1 -1.1104 9.0567 10.3709 3.77181
142 1 -1.1104 11.6815 12.8591 0.943104
146 1 -1.1104 12.0246 13.0855 4.00714
153 1 -1.1104 8.92698 12.8504 0.875996
158 1 -1.1104 9.26504 13.1458 3.75804
101 1 -1.1104 9.04579 10.0932 6.43392
154 1 -1.1104 9.50234 13.054 6.48097
104 2 2.2208 13.1045 11.5806 2.17769
90 1 -1.1104 11.929 10.2845 6.37864
160 2 2.2208 7.72852 14.2966 5.10404
342 2 2.2208 10.6391 8.67943 13.3057
119 2 2.2208 4.81275 14.5283 2.1211
130 2 2.2208 2.29639 14.4467 5.05233
106 2 2.2208 5.00428 17.0991 5.07233
109 1 -1.1104 0.812282 18.5927 0.578495
114 1 -1.1104 0.650244 18.4369 3.40138
116 1 -1.1104 0.571505 15.6458 0.79198
120 2 2.2208 5.02225 19.826 2.37448
121 1 -1.1104 0.628785 15.854 3.5793
125 1 -1.1104 3.65903 18.5485 0.850667
127 2 2.2208 2.11488 17.0605 2.20543
129 1 -1.1104 3.66155 18.4984 3.72111
131 2 2.2208 2.19932 19.989 5.20843
132 1 -1.1104 3.33389 15.8512 0.60674
134 1 -1.1104 3.34543 15.6416 3.45491
118 1 -1.1104 6.47564 16.0017 6.59879
138 1 -1.1104 6.40227 18.616 0.731447
139 1 -1.1104 6.28712 18.2773 3.54187
122 1 -1.1104 6.15696 15.6934 3.61912
126 1 -1.1104 3.59033 18.3582 6.67098
302 1 -1.1104 0.658235 18.6568 6.27607
112 1 -1.1104 6.29416 18.7938 6.31015
140 1 -1.1104 6.16554 15.6962 0.834201
133 1 -1.1104 3.59101 15.6162 6.50792
165 2 2.2208 13.3672 17.2482 2.1226
150 2 2.2208 10.6378 14.3349 2.33482
141 2 2.2208 10.5879 17.2469 5.03287
144 1 -1.1104 11.9239 18.6586 0.469077
147 1 -1.1104 12.0267 18.7007 3.48646
148 1 -1.1104 11.983 15.7179 0.880829
151 2 2.2208 10.5129 19.9795 2.25387
152 1 -1.1104 11.792 15.8323 3.71698
155 1 -1.1104 9.24587 18.5443 0.684874
157 2 2.2208 7.74006 17.0438 2.13892
159 1 -1.1104 9.07097 18.588 3.59475
161 2 2.2208 7.82562 20.0411 5.06202
162 1 -1.1104 9.21765 15.6089 0.708037
164 1 -1.1104 8.90391 15.8018 3.71474
149 1 -1.1104 11.9873 16.011 6.53113
8056 2 2.2208 7.70541 -5.12875 7.8977
203 2 2.2208 13.5418 20.1994 4.94912
145 1 -1.1104 12.0179 18.6584 6.39292
163 1 -1.1104 9.17388 15.947 6.50727
156 1 -1.1104 9.245 18.8335 6.35
166 1 -1.1104 0.60044 -3.64667 6.49567
170 1 -1.1104 0.690076 -0.821922 6.64032
8748 2 2.2208 13.3393 11.5441 13.4819
175 2 2.2208 4.89939 0.414566 10.8197
176 1 -1.1104 0.536925 -3.88366 12.3708
180 1 -1.1104 0.749133 -3.83722 9.37365
184 1 -1.1104 0.427385 -1.0945 12.1117
186 2 2.2208 4.83825 -2.37173 7.85695
188 1 -1.1104 0.662863 -1.02264 9.45868
190 1 -1.1104 3.42952 -3.6662 12.3037
192 2 2.2208 2.1824 0.443896 7.95989
193 1 -1.1104 3.47877 -3.80891 9.56866
195 2 2.2208 2.01157 -2.33765 10.7941
197 1 -1.1104 3.34188 -0.89653 12.1612
198 1 -1.1104 3.56365 -1.02234 9.27086
178 1 -1.1104 6.24744 -3.81409 12.1646
182 1 -1.1104 6.3068 -3.99756 9.42685
189 1 -1.1104 6.49635 -1.11613 9.16886
185 1 -1.1104 6.36666 -0.99448 12.2219
326 2 2.2208 4.86931 -2.32892 13.5442
229 2 2.2208 13.3729 0.378579 8.00903
210 1 -1.1104 8.96524 -0.935114 6.38903
8053 2 2.2208 2.18663 -5.09648 8.21824
208 1 -1.1104 9.21064 -3.59556 6.65456
230 2 2.2208 13.53 -2.40287 10.7995
232 2 2.2208 10.6453 20.1407 7.82314
211 2 2.2208 10.3769 0.227793 10.8157
212 1 -1.1104 12.2056 -3.7566 12.4004
214 1 -1.1104 11.9384 -3.50712 9.65809
216 1 -1.1104 11.9423 -1.05123 12.1774
217 2 2.2208 10.4762 -2.41024 8.09691
219 1 -1.1104 11.9286 -0.754158 9.258
220 1 -1.1104 9.18908 -3.92363 12.1474
222 2 2.2208 7.6969 0.499553 7.77651
223 1 -1.1104 9.19485 -3.82844 9.397
225 2 2.2208 7.80721 -2.64975 10.7682
227 1 -1.1104 9.04107 -1.17956 12.1695
228 1 -1.1104 9.27378 -1.0728 9.35028
202 2 2.2208 13.5248 14.4956 5.13938
328 2 2.2208 4.75181 3.32453 13.6604
313 1 -1.1104 12.0051 15.8139 12.0801
173 1 -1.1104 3.48785 1.82187 6.58377
332 2 2.2208 10.5636 -2.39629 13.6389
236 1 -1.1104 0.280645 4.49233 6.20676
177 1 -1.1104 0.528004 1.84038 12.3208
181 1 -1.1104 0.87291 1.65044 9.56695
187 2 2.2208 4.89058 3.09216 7.98707
191 1 -1.1104 3.24357 1.87411 12.2527
194 1 -1.1104 3.70099 1.84944 9.31283
196 2 2.2208 2.01546 3.11162 10.7179
240 2 2.2208 4.90998 5.87998 10.8064
242 1 -1.1104 0.633779 7.27918 12.0234
244 1 -1.1104 0.56993 7.30841 9.07698
246 1 -1.1104 0.894216 4.56807 12.0722
251 1 -1.1104 0.351088 4.51186 9.28137
256 2 2.2208 1.93594 5.86478 7.7707
260 1 -1.1104 3.57167 4.62836 12.1303
262 1 -1.1104 3.1544 4.40879 9.24334
255 1 -1.1104 3.62513 7.38137 11.9124
258 1 -1.1104 3.37084 7.05537 9.18992
253 1 -1.1104 6.16864 4.40003 9.42875
183 1 -1.1104 6.42653 1.77856 9.36127
179 1 -1.1104 6.15932 1.76702 12.3895
245 1 -1.1104 6.17465 7.20492 9.30093
248 1 -1.1104 6.38095 4.49287 12.0889
243 1 -1.1104 6.21225 7.22238 12.1401
316 2 2.2208 7.59342 20.0109 10.6296
233 1 -1.1104 12.035 15.7633 9.38089
269 1 -1.1104 9.06138 4.58588 6.76627
341 2 2.2208 7.7462 5.90538 13.5366
53 2 2.2208 13.5595 3.20394 10.8252
265 1 -1.1104 12.1096 7.47687 6.35913
213 1 -1.1104 11.8445 1.74503 11.9286
215 1 -1.1104 12.151 2.12378 9.25232
218 2 2.2208 10.3745 3.20123 8.02139
221 1 -1.1104 9.01557 1.71596 12.0806
224 1 -1.1104 9.14615 1.82471 9.3114
226 2 2.2208 7.7603 3.07133 10.6469
268 1 -1.1104 8.84092 4.61803 9.4234
271 1 -1.1104 9.04601 4.68606 12.1045
273 1 -1.1104 9.25238 7.1844 9.06306
275 2 2.2208 7.65715 5.98679 7.88188
276 2 2.2208 10.6233 6.06085 10.651
279 1 -1.1104 11.8718 7.47303 9.30846
280 1 -1.1104 12.0216 4.52451 12.2094
283 1 -1.1104 11.8918 4.71801 9.30778
285 1 -1.1104 9.15879 7.23183 11.7399
278 1 -1.1104 12.0604 7.31445 12.1726
52 2 2.2208 13.448 5.86319 7.89037
289 1 -1.1104 6.46027 15.5918 9.37728
241 2 2.2208 4.97679 11.6401 10.844
247 1 -1.1104 0.676417 10.2311 11.9886
250 2 2.2208 4.76136 8.65738 7.87161
252 1 -1.1104 0.796806 10.0138 9.09004
257 2 2.2208 2.0874 11.472 7.84451
259 2 2.2208 2.27789 8.71727 10.5906
261 1 -1.1104 3.55135 9.91055 12.1801
263 1 -1.1104 3.57778 10.1565 9.17931
287 1 -1.1104 3.37892 12.7758 12.0921
294 1 -1.1104 0.505356 12.5791 9.31911
299 1 -1.1104 0.566024 12.9916 12.1619
305 1 -1.1104 3.43872 13.0624 9.47535
249 1 -1.1104 6.35027 10.1338 12.1233
290 1 -1.1104 6.35178 12.6617 9.23712
254 1 -1.1104 6.3494 9.93256 9.33786
297 1 -1.1104 6.23283 12.9783 12.0633
320 2 2.2208 7.94424 17.2628 7.95971
310 2 2.2208 2.02085 14.2473 10.6677
8069 2 2.2208 2.08345 -5.1913 13.5899
143 1 -1.1104 12.2983 13.2251 6.65194
331 2 2.2208 7.61941 0.359626 13.5277
8661 2 2.2208 13.378 8.76959 10.5259
51 2 2.2208 13.346 11.6826 7.79783
322 1 -1.1104 9.18531 12.8719 12.2271
319 1 -1.1104 9.09276 12.899 9.1933
199 1 -1.1104 11.8592 13.0235 9.4094
264 1 -1.1104 9.0679 10.124 9.259
270 1 -1.1104 9.06234 9.99714 12.0178
272 2 2.2208 7.70248 8.62926 10.7443
274 2 2.2208 7.6603 11.3306 7.95606
277 2 2.2208 10.4392 11.5512 10.7209
281 1 -1.1104 11.8922 10.2026 11.9402
282 2 2.2208 10.5389 8.79945 7.94944
284 1 -1.1104 11.9085 10.1237 9.28848
105 1 -1.1104 12.0928 12.9216 12.2507
349 2 2.2208 7.76203 17.2566 13.3817
321 1 -1.1104 9.31675 18.5578 12.0812
317 2 2.2208 7.66222 14.1633 10.703
323 2 2.2208 13.3738 14.2517 -0.509418
344 2 2.2208 2.16904 17.1119 13.5062
117 1 -1.1104 0.436741 15.9499 6.52846
306 1 -1.1104 6.36282 15.8192 12.1431
295 2 2.2208 4.8871 14.3944 8.03916
288 1 -1.1104 6.33378 18.5863 9.11041
307 1 -1.1104 0.578274 15.7963 12.2027
308 1 -1.1104 3.35532 15.5117 12.0305
309 2 2.2208 2.10951 19.8951 10.7111
286 1 -1.1104 3.68297 18.7974 12.1844
291 1 -1.1104 0.583825 18.6072 9.1412
292 1 -1.1104 0.778893 15.6519 9.43017
293 2 2.2208 4.90148 19.8841 7.78083
298 1 -1.1104 0.773361 18.4507 12.0646
300 2 2.2208 5.00354 17.179 10.6652
301 1 -1.1104 3.45725 18.6951 9.28684
303 2 2.2208 2.0428 17.0805 7.87319
304 1 -1.1104 3.65968 15.8262 9.30908
296 1 -1.1104 6.56481 18.672 12.1082
345 2 2.2208 4.93552 20.0945 13.6453
8640 2 2.2208 13.4285 14.3985 10.7436
49 2 2.2208 10.6735 17.2888 10.7481
8707 2 2.2208 13.3858 20.1461 10.6929
8606 2 2.2208 13.3129 17.0828 7.90295
312 1 -1.1104 11.9994 18.3729 9.33028
347 2 2.2208 10.4881 20.0322 13.5616
315 1 -1.1104 9.12727 15.7684 12.1555
318 1 -1.1104 9.1247 18.7235 9.19347
231 2 2.2208 10.5816 14.4411 7.92146
135 1 -1.1104 12.1864 18.5929 12.0347
350 2 2.2208 13.533 17.2528 13.617
333 2 2.2208 10.4266 3.28184 13.4452
334 2 2.2208 2.2445 6.04604 13.3756
346 2 2.2208 4.92497 14.3385 13.4963
354 2 2.2208 13.4258 5.75466 13.5367
348 2 2.2208 10.5433 14.2149 13.5263
8047 2 2.2208 2.0653 -5.1489 2.40938
343 2 2.2208 7.67574 11.4971 13.4818
355 2 2.2208 10.542 0.589143 -0.459464
8050 2 2.2208 7.79067 -5.13127 2.1552
357 2 2.2208 7.82433 3.31654 -0.433913
337 2 2.2208 2.07897 11.4299 13.5931
370 2 2.2208 4.90108 0.483809 16.2211
371 1 -1.1104 0.842765 -3.99623 17.8887
375 1 -1.1104 0.695433 -3.83306 14.9557
383 1 -1.1104 0.608408 -1.24629 17.8976
385 2 2.2208 4.88532 -2.29947 19.1093
387 1 -1.1104 0.766804 -1.02489 15.1317
391 1 -1.1104 3.4777 -3.74928 17.7967
393 2 2.2208 2.09799 0.286577 19.1954
394 1 -1.1104 3.47228 -3.94891 15.1128
398 2 2.2208 2.10423 -2.57054 16.4387
400 1 -1.1104 3.41703 -0.822275 17.8343
401 1 -1.1104 3.44218 -1.19401 14.8117
402 1 -1.1104 3.37169 -1.17301 20.5896
379 1 -1.1104 6.64037 -3.95091 14.947
373 1 -1.1104 6.32551 -3.91347 17.718
388 1 -1.1104 0.61621 -0.998487 20.5751
390 1 -1.1104 6.41917 -1.14439 20.3409
384 1 -1.1104 6.47016 -1.00783 17.6388
389 1 -1.1104 6.30324 -1.22577 15.0954
395 1 -1.1104 3.73426 -4.09475 20.4089
380 1 -1.1104 6.48792 -3.88912 20.6648
376 1 -1.1104 0.821621 -4.08173 20.6622
9026 2 2.2208 13.5357 14.4322 21.8495
413 2 2.2208 10.5473 0.641483 16.2048
414 1 -1.1104 12.129 -3.87878 17.5389
416 1 -1.1104 12.1257 -3.97525 14.9332
420 1 -1.1104 12.0357 -1.03597 17.8463
421 2 2.2208 10.6069 -2.38744 19.1477
423 1 -1.1104 11.9185 -0.812424 15.1156
425 1 -1.1104 9.20807 -3.71533 17.7348
427 2 2.2208 7.87113 0.46578 19.2668
428 1 -1.1104 9.40825 -3.82 15.0571
432 2 2.2208 7.81089 -2.46135 16.3502
434 1 -1.1104 9.11057 -0.799237 18.0702
435 1 -1.1104 9.18951 -0.932367 14.9849
8994 2 2.2208 13.2987 -2.43943 16.4279
436 1 -1.1104 9.23796 -0.933556 20.6606
429 1 -1.1104 9.13483 -3.71399 20.373
8810 2 2.2208 13.3831 0.303735 19.16
424 1 -1.1104 11.8446 -0.930652 20.5913
372 1 -1.1104 0.499312 1.70372 17.8368
377 1 -1.1104 0.497717 1.76315 15.0332
386 2 2.2208 4.69714 3.25025 19.2455
392 1 -1.1104 3.30508 1.78275 17.8006
396 1 -1.1104 3.50631 1.68565 14.87
399 2 2.2208 1.93746 3.13545 16.4278
446 2 2.2208 5.05015 6.15779 16.4366
454 1 -1.1104 0.607659 4.75094 17.7915
459 1 -1.1104 0.517759 4.32459 14.9605
467 1 -1.1104 3.53302 7.46892 17.8748
468 2 2.2208 2.0578 6.0311 19.3088
473 1 -1.1104 3.47744 4.72525 17.7505
475 1 -1.1104 3.45399 4.63749 14.8489
448 1 -1.1104 0.794267 7.58105 17.7939
470 1 -1.1104 3.39032 7.48578 14.892
450 1 -1.1104 0.538554 7.07653 14.7582
463 1 -1.1104 6.33853 4.69309 14.7183
397 1 -1.1104 3.61748 1.59558 20.5694
381 1 -1.1104 6.55987 1.79528 15.0214
456 1 -1.1104 6.25897 4.66131 17.6964
460 1 -1.1104 0.582717 4.57244 20.8057
374 1 -1.1104 6.09634 1.69513 17.8634
476 1 -1.1104 3.3109 4.52487 20.698
452 1 -1.1104 6.40803 7.36023 14.8745
449 1 -1.1104 6.32777 7.52881 17.6287
382 1 -1.1104 6.46557 1.64299 20.5573
464 1 -1.1104 6.33686 4.41579 20.674
415 1 -1.1104 11.6485 1.87903 17.7791
418 1 -1.1104 11.8623 1.98273 14.6496
422 2 2.2208 10.5501 3.27633 19.127
426 1 -1.1104 8.99589 1.84563 17.7696
430 1 -1.1104 9.30729 1.99306 14.6877
433 2 2.2208 7.73578 3.22668 16.1686
482 2 2.2208 10.5269 5.94631 16.1952
487 1 -1.1104 11.9807 4.51426 17.5898
490 1 -1.1104 11.9961 4.549 14.8531
495 2 2.2208 7.74607 5.97764 18.9976
500 1 -1.1104 9.21941 4.66152 17.7343
502 1 -1.1104 8.9747 4.70378 14.9586
494 1 -1.1104 9.30348 7.2808 17.4474
497 1 -1.1104 9.00347 7.38763 14.5105
485 1 -1.1104 11.844 7.43342 15.0725
484 1 -1.1104 12.1705 7.26293 17.7066
602 2 2.2208 13.4028 6.08292 18.9986
419 1 -1.1104 12.0335 1.74129 20.6029
403 2 2.2208 13.513 3.06288 16.4668
503 1 -1.1104 9.22416 4.66083 20.574
498 1 -1.1104 9.0776 7.52516 20.5518
447 2 2.2208 5.07617 11.5026 16.5234
455 1 -1.1104 0.77838 10.2492 17.485
458 2 2.2208 4.8786 8.77098 19.0692
461 1 -1.1104 0.802338 10.06 14.8951
469 2 2.2208 2.01396 11.6089 19.0108
472 2 2.2208 2.1034 8.64242 16.2947
474 1 -1.1104 3.4751 10.1971 17.8012
477 1 -1.1104 3.80838 10.2152 14.9822
510 1 -1.1104 0.874758 13.3139 17.7978
514 1 -1.1104 0.994449 12.8536 14.8498
530 1 -1.1104 3.63236 12.9866 17.7982
533 1 -1.1104 3.74314 13.0218 15.0323
512 1 -1.1104 6.39465 13.0647 17.797
465 1 -1.1104 6.55182 10.1139 14.7954
534 1 -1.1104 3.45915 12.858 20.5786
518 1 -1.1104 6.48758 12.7915 14.9613
478 1 -1.1104 3.48748 10.1106 20.7894
515 1 -1.1104 0.62936 12.9263 20.4896
462 1 -1.1104 0.561375 10.253 20.4479
457 1 -1.1104 6.31732 10.0933 17.8367
519 1 -1.1104 6.23836 13.0753 20.6739
603 2 2.2208 13.2911 8.841 16.3517
483 2 2.2208 10.5376 11.5156 16.3389
488 1 -1.1104 11.9384 10.0782 17.8017
489 2 2.2208 10.6061 8.61026 19.0612
492 1 -1.1104 11.9153 10.2411 14.7858
496 2 2.2208 7.69735 11.6844 19.1848
499 2 2.2208 7.77654 8.8365 16.3049
501 1 -1.1104 9.06145 10.1655 17.697
504 1 -1.1104 9.23331 9.97053 14.9104
546 1 -1.1104 11.9777 12.9203 17.6153
548 1 -1.1104 12.0852 12.9681 15.0136
557 1 -1.1104 9.25742 13.1664 17.8306
560 1 -1.1104 9.0177 12.7566 15.073
8880 2 2.2208 13.4661 11.5784 18.9711
549 1 -1.1104 11.9575 13.083 20.4471
553 2 2.2208 10.6871 14.4511 19.1783
505 1 -1.1104 9.15876 10.0732 20.5058
493 1 -1.1104 12.0622 10.1868 20.5646
353 2 2.2208 1.97229 3.13551 27.7339
537 2 2.2208 2.12143 14.5424 16.3802
524 2 2.2208 4.84051 14.4985 19.1131
509 2 2.2208 5.00604 17.1893 16.3732
511 1 -1.1104 0.555227 18.7374 17.7115
516 1 -1.1104 0.848838 18.6275 14.8612
522 1 -1.1104 0.464855 15.9306 17.8045
525 2 2.2208 4.94849 20.1742 19.3513
526 1 -1.1104 0.768075 15.6832 14.9136
531 1 -1.1104 3.50334 18.6888 17.962
532 2 2.2208 2.12246 17.2842 19.4461
535 1 -1.1104 3.51397 18.6865 14.8437
538 2 2.2208 1.94143 20.0693 16.6265
539 1 -1.1104 3.40086 15.6987 17.7524
540 1 -1.1104 3.54742 15.8899 14.8843
536 1 -1.1104 3.56077 18.6949 20.6214
513 1 -1.1104 6.26723 18.522 17.7261
528 1 -1.1104 6.30262 15.6334 14.8598
520 1 -1.1104 6.4755 18.5989 14.9292
529 1 -1.1104 6.32088 15.697 20.4041
523 1 -1.1104 6.32219 15.8279 17.6764
527 1 -1.1104 0.704814 15.8954 20.5837
521 1 -1.1104 6.36587 18.5525 20.5789
517 1 -1.1104 0.773443 18.7484 20.6825
541 1 -1.1104 3.49904 15.7537 20.43
564 2 2.2208 7.76141 14.3155 16.2159
545 2 2.2208 10.4656 16.9693 16.4345
547 1 -1.1104 11.9563 18.6223 17.6479
550 1 -1.1104 12.1115 18.6619 14.81
552 1 -1.1104 11.917 15.7731 17.6737
554 2 2.2208 10.7167 20.2104 19.2547
555 1 -1.1104 11.8707 15.7144 14.914
558 1 -1.1104 8.79286 18.517 17.7203
559 2 2.2208 7.82886 17.1304 19.2645
562 1 -1.1104 9.13458 18.4092 14.9247
565 2 2.2208 7.59179 19.9758 16.3508
566 1 -1.1104 9.1007 15.7578 17.8735
567 1 -1.1104 9.12848 15.6302 14.8877
8948 2 2.2208 13.2636 14.3557 16.2686
551 1 -1.1104 12.3119 18.8294 20.6088
8951 2 2.2208 13.4557 19.7954 16.341
563 1 -1.1104 9.3121 18.6427 20.5741
409 2 2.2208 13.4214 17.5424 19.2035
568 1 -1.1104 9.45653 15.8266 20.5814
556 1 -1.1104 12.1182 16.0703 20.5481
444 1 -1.1104 9.09549 15.782 26.0079
573 2 2.2208 5.03316 0.200336 21.7997
574 1 -1.1104 0.792219 -3.95474 23.4557
578 1 -1.1104 0.547217 -4.02964 26.2183
582 1 -1.1104 0.906009 -1.31848 23.4648
584 2 2.2208 4.89107 -2.58255 25.0643
586 1 -1.1104 0.677165 -1.12562 26.2349
588 1 -1.1104 3.54346 -3.84767 23.4451
590 2 2.2208 2.14168 0.253307 24.9356
591 1 -1.1104 3.51711 -3.96744 26.1883
593 2 2.2208 2.00995 -2.61281 22.0244
595 1 -1.1104 3.72628 -0.904974 23.5619
596 1 -1.1104 3.60417 -1.27643 26.2571
576 1 -1.1104 6.12604 -3.90368 23.4004
580 1 -1.1104 6.28054 -3.82576 26.4416
583 1 -1.1104 6.53111 -0.873782 23.2972
587 1 -1.1104 6.29613 -1.14291 26.2147
407 1 -1.1104 9.02537 18.6294 23.3172
441 2 2.2208 7.75097 19.8362 21.9544
417 1 -1.1104 11.9083 -3.77202 20.4573
636 2 2.2208 13.4747 0.387501 24.8512
609 2 2.2208 10.4904 0.259472 21.9757
610 1 -1.1104 12.0371 -4.02885 23.4187
612 1 -1.1104 11.8775 -3.98758 25.966
614 1 -1.1104 12.1157 -0.998282 23.3104
615 2 2.2208 10.5554 -2.36703 24.4686
617 1 -1.1104 12.0593 -1.16141 26.1471
618 1 -1.1104 9.21549 -3.72068 23.1565
620 2 2.2208 7.64607 0.507062 24.9208
621 1 -1.1104 9.01127 -3.76075 26.0737
623 2 2.2208 7.69477 -2.33339 21.9473
625 1 -1.1104 9.12829 -1.1553 23.4305
626 1 -1.1104 9.29428 -0.794858 26.3652
8844 2 2.2208 13.3635 -2.56745 22.0083
408 2 2.2208 7.61717 17.1016 24.7859
471 1 -1.1104 3.35123 7.36466 20.8817
378 1 -1.1104 0.698882 1.79008 20.4752
451 1 -1.1104 0.72536 7.28063 20.6334
453 1 -1.1104 6.26353 7.30812 20.3995
575 1 -1.1104 0.861556 1.52102 23.4716
579 1 -1.1104 0.83053 1.7844 26.3802
585 2 2.2208 4.98917 3.1668 24.8518
589 1 -1.1104 3.47739 1.69917 23.4792
592 1 -1.1104 3.67597 1.60253 26.404
594 2 2.2208 2.13121 2.85028 22.1886
638 2 2.2208 4.90658 6.05192 22.0811
640 1 -1.1104 0.662652 7.61875 23.2472
642 1 -1.1104 0.862273 7.30298 26.2126
644 1 -1.1104 0.712113 4.46255 23.4541
649 1 -1.1104 0.669579 4.45097 26.3699
653 1 -1.1104 3.5852 7.29279 23.6021
654 2 2.2208 2.14416 5.89248 24.7744
658 1 -1.1104 3.60577 4.55007 23.4064
660 1 -1.1104 3.48488 4.39999 26.2131
646 1 -1.1104 6.30878 4.82882 23.3121
651 1 -1.1104 6.61403 4.61673 26.2157
581 1 -1.1104 6.55644 1.93301 26.3509
643 1 -1.1104 6.4614 7.48834 26.1255
656 1 -1.1104 3.46674 7.09483 26.4648
641 1 -1.1104 6.36793 7.5348 23.3642
577 1 -1.1104 6.57156 1.93265 23.4928
368 2 2.2208 7.72277 8.79157 27.5989
360 2 2.2208 13.3278 -2.3421 27.5293
491 1 -1.1104 11.9725 4.56805 20.6449
666 2 2.2208 10.5469 20.1064 24.7227
431 1 -1.1104 9.30492 1.81849 20.6396
364 2 2.2208 4.82192 11.549 27.5932
351 2 2.2208 4.94439 0.228375 27.7715
8802 2 2.2208 13.3001 6.01259 24.923
486 1 -1.1104 11.8992 7.54301 20.4758
611 1 -1.1104 12.1031 1.73904 23.3959
613 1 -1.1104 12.0888 1.61267 26.3821
616 2 2.2208 10.5644 3.13929 24.9239
619 1 -1.1104 9.30776 1.96807 23.5
622 1 -1.1104 9.03604 1.76569 26.3517
624 2 2.2208 7.92322 3.28465 21.8365
670 1 -1.1104 9.29162 4.63673 26.406
672 1 -1.1104 9.02611 4.60882 23.4858
674 1 -1.1104 9.17648 7.3435 26.2053
676 2 2.2208 7.95459 6.09359 24.8734
677 2 2.2208 10.554 6.07086 21.9323
680 1 -1.1104 12.0429 7.43865 26.1754
681 1 -1.1104 12.1387 4.60656 23.5546
684 1 -1.1104 12.0305 4.36321 26.3369
679 1 -1.1104 12.0437 7.26786 23.1896
668 1 -1.1104 9.10547 7.54483 23.3841
405 2 2.2208 13.3512 3.16693 21.9927
466 1 -1.1104 6.44483 10.304 20.4513
8172 2 2.2208 4.95655 -5.23961 16.4218
324 2 2.2208 13.5103 19.9897 27.7422
639 2 2.2208 4.69054 11.6523 21.86
645 1 -1.1104 0.480242 10.3254 23.3929
648 2 2.2208 4.86879 8.72642 24.7177
650 1 -1.1104 0.719995 9.92412 26.3551
655 2 2.2208 1.99353 11.6137 24.821
657 2 2.2208 1.94236 8.99136 22.0878
659 1 -1.1104 3.18022 10.2796 23.436
661 1 -1.1104 3.44225 9.95979 26.2971
543 1 -1.1104 3.35216 12.9803 26.2961
572 1 -1.1104 0.69826 13.1574 23.3454
628 1 -1.1104 0.63899 12.8691 26.2812
634 1 -1.1104 3.39584 13.0842 23.5674
652 1 -1.1104 6.27759 10.217 26.2608
598 1 -1.1104 6.37679 12.7561 23.3305
637 1 -1.1104 6.20673 13.1897 26.2944
561 1 -1.1104 9.31411 12.9699 20.5565
647 1 -1.1104 6.10441 10.1583 23.3624
665 2 2.2208 13.4379 11.5928 24.8269
9070 2 2.2208 13.4739 8.88363 21.9939
663 1 -1.1104 9.15089 13.0713 23.4748
669 1 -1.1104 9.07506 10.0293 26.0618
671 1 -1.1104 9.10187 10.3957 23.1118
673 2 2.2208 7.75091 8.95363 21.9141
675 2 2.2208 7.76814 11.4635 24.7505
678 2 2.2208 10.612 11.5359 22.0161
682 1 -1.1104 12.0929 10.172 23.5158
683 2 2.2208 10.7145 8.90814 24.9135
685 1 -1.1104 11.816 10.2846 26.3013
605 1 -1.1104 12 12.9943 26.3116
411 1 -1.1104 8.93242 13.0282 26.1313
600 1 -1.1104 11.8154 12.9952 23.2141
630 1 -1.1104 12.0149 15.8969 23.2908
356 2 2.2208 8.01095 -2.37922 27.6161
339 2 2.2208 4.82986 17.3088 27.6289
340 2 2.2208 2.31574 19.9548 27.6864
325 2 2.2208 7.64065 14.3253 27.6026
633 1 -1.1104 6.27608 15.8485 26.2253
627 1 -1.1104 6.44883 18.3864 23.3135
542 1 -1.1104 5.96391 15.6841 23.3209
481 2 2.2208 1.97949 14.3254 21.9814
599 2 2.2208 4.80137 14.2952 24.892
506 2 2.2208 2.11166 20.0362 21.9581
507 1 -1.1104 3.29514 15.7828 23.2946
508 1 -1.1104 0.55719 15.8878 23.6289
544 1 -1.1104 3.52344 15.9752 26.087
569 2 2.2208 2.1875 17.2673 24.6268
570 1 -1.1104 3.70575 18.7122 26.1608
571 2 2.2208 4.8313 17.2018 21.8456
597 1 -1.1104 0.815252 18.5398 23.4336
604 2 2.2208 4.88652 19.8403 24.7357
629 1 -1.1104 0.661803 15.4968 26.2332
631 1 -1.1104 0.873426 18.4508 26.1625
662 1 -1.1104 3.54503 18.7551 23.2216
410 1 -1.1104 6.47075 18.5563 26.3484
443 1 -1.1104 9.33091 15.8175 23.4334
8995 2 2.2208 13.4248 20.1975 22.081
664 1 -1.1104 11.7251 15.7889 26.2489
606 1 -1.1104 11.6549 18.5196 25.9042
330 2 2.2208 7.74552 20.0266 27.4932
601 1 -1.1104 11.971 18.842 23.2419
9023 2 2.2208 13.2198 17.3482 24.8087
635 2 2.2208 10.5986 14.4188 24.6735
369 2 2.2208 10.6774 5.94837 27.6691
437 2 2.2208 7.78734 14.2597 21.9885
338 2 2.2208 2.00193 14.2433 27.7603
412 1 -1.1104 9.03659 18.711 26.0618
442 2 2.2208 10.551 17.2159 21.9928
361 2 2.2208 13.5996 3.11095 27.7531
17437 2 2.2208 13.3483 -5.12792 19.2271
352 2 2.2208 2.09742 -2.54503 27.6889
8136 2 2.2208 7.64109 -5.20091 19.1026
362 2 2.2208 4.93581 5.81401 27.4974
367 2 2.2208 10.5131 11.7594 27.6086
363 2 2.2208 1.9964 8.65068 27.6127
8735 2 2.2208 13.3322 8.76006 27.6449
8133 2 2.2208 10.609 -5.18643 22.172
329 2 2.2208 10.3308 17.1665 27.4674
327 2 2.2208 1.91154 0.479536 13.6773
686 2 2.2208 5.07463 22.8065 4.97903
688 1 -1.1104 0.797839 24.1738 0.736013
689 1 -1.1104 0.630342 24.4063 3.6662
690 1 -1.1104 0.718285 21.2497 0.691882
692 2 2.2208 5.08176 25.6691 2.22445
693 1 -1.1104 0.759414 21.5025 3.59148
695 1 -1.1104 3.7598 24.5528 0.786864
696 2 2.2208 2.11702 22.8467 2.09694
698 1 -1.1104 3.44458 24.3707 3.54422
699 2 2.2208 2.14758 25.7733 4.95288
700 1 -1.1104 3.47418 21.5302 0.622045
702 1 -1.1104 3.48162 21.2708 3.34525
709 1 -1.1104 6.03943 21.5413 1.04462
711 1 -1.1104 6.20452 21.2272 3.61902
708 1 -1.1104 6.34151 24.2267 3.54375
694 1 -1.1104 0.797998 27.0294 3.56274
712 1 -1.1104 6.44778 27.1828 3.70608
701 1 -1.1104 3.76062 27.1681 0.848611
691 1 -1.1104 0.786139 26.9272 0.851404
703 1 -1.1104 3.51769 27.08 3.62169
710 1 -1.1104 6.40511 26.979 0.750051
831 1 -1.1104 6.41112 21.4198 6.31363
827 1 -1.1104 0.83317 24.3331 6.51709
835 1 -1.1104 3.7263 26.9442 6.41116
707 1 -1.1104 6.50753 24.4335 0.927983
829 1 -1.1104 0.819047 21.5166 6.47992
833 1 -1.1104 3.67214 24.3983 6.3346
828 1 -1.1104 6.3785 24.2095 6.48012
830 1 -1.1104 0.746235 27.1758 6.59334
832 1 -1.1104 6.58236 26.931 6.73643
731 2 2.2208 13.4699 22.8842 2.16992
713 2 2.2208 10.7505 22.9029 5.11404
715 1 -1.1104 12.2883 24.304 0.834537
716 1 -1.1104 12.1407 24.1171 3.73383
717 1 -1.1104 12.1486 21.2263 0.987864
719 2 2.2208 10.7297 25.4541 2.24168
720 1 -1.1104 11.9661 21.5457 3.62624
722 1 -1.1104 9.72616 23.7833 0.988637
723 2 2.2208 7.78816 22.8917 2.20368
725 1 -1.1104 8.98848 24.3559 3.3985
726 2 2.2208 7.78469 25.576 4.96558
727 1 -1.1104 8.99725 21.3251 0.828877
729 1 -1.1104 9.07118 21.615 3.88962
863 1 -1.1104 9.2558 24.3555 6.1957
730 1 -1.1104 9.36247 26.9574 3.3383
728 1 -1.1104 9.29853 26.7579 0.910054
860 1 -1.1104 12.0378 24.1907 6.55453
721 1 -1.1104 12.0958 26.8995 3.54965
718 1 -1.1104 12.0846 26.8888 0.750013
861 1 -1.1104 12.2025 21.3183 6.40493
862 1 -1.1104 12.1308 27.1728 6.5016
733 2 2.2208 13.6644 25.4633 4.98371
687 2 2.2208 4.81667 28.5127 5.01012
697 2 2.2208 2.1269 28.3486 2.13018
735 1 -1.1104 0.801644 29.847 0.751457
738 1 -1.1104 0.630988 29.6912 3.44769
741 1 -1.1104 0.650264 32.753 0.82112
742 2 2.2208 5.02864 31.1344 2.3006
744 1 -1.1104 0.726428 32.503 3.59311
746 1 -1.1104 3.57999 29.9188 0.554133
749 1 -1.1104 3.55871 29.6899 3.70064
751 2 2.2208 2.01272 31.1678 5.00671
753 1 -1.1104 3.61493 32.5462 0.773172
754 1 -1.1104 3.47675 32.5558 3.63617
745 1 -1.1104 6.35127 32.4923 3.94768
759 1 -1.1104 6.37027 29.8283 3.59511
758 1 -1.1104 6.49318 29.7789 0.868636
884 1 -1.1104 0.623631 29.9673 6.42478
892 1 -1.1104 3.53971 32.4459 6.53638
890 1 -1.1104 3.41557 29.7556 6.46134
889 1 -1.1104 6.33458 32.4481 6.58667
760 1 -1.1104 6.39437 32.4145 0.902312
888 1 -1.1104 0.768963 32.5854 6.37011
886 1 -1.1104 6.36266 29.7541 6.48399
714 2 2.2208 10.653 28.3289 4.85668
724 2 2.2208 7.74114 28.4304 2.28139
762 1 -1.1104 12.1805 29.6034 0.813441
764 1 -1.1104 11.9988 29.8061 3.80549
766 1 -1.1104 11.9391 32.5595 1.05098
767 2 2.2208 10.548 31.038 2.24799
769 1 -1.1104 11.9031 32.4812 3.7723
770 1 -1.1104 9.29241 29.7196 0.915284
773 1 -1.1104 9.27577 29.7568 3.7079
775 2 2.2208 7.71195 31.0801 5.34682
777 1 -1.1104 9.17991 32.4751 0.872316
778 1 -1.1104 9.1479 32.4331 3.66831
1355 1 -1.1104 3.58776 46.469 3.75803
923 1 -1.1104 9.07394 32.4945 6.60099
920 1 -1.1104 11.9727 32.5114 6.84457
9403 2 2.2208 13.3207 28.3878 2.22618
918 1 -1.1104 11.8719 29.7244 6.70844
748 2 2.2208 2.24608 33.9616 2.28995
734 2 2.2208 4.78115 33.9176 5.19841
736 1 -1.1104 0.9986 35.2664 0.786707
739 1 -1.1104 0.851484 35.3327 3.82701
743 2 2.2208 4.96519 36.7507 2.33212
747 1 -1.1104 3.74525 35.2717 1.10002
750 1 -1.1104 3.5726 35.2616 3.74508
752 2 2.2208 2.26673 36.7488 5.03066
780 2 2.2208 5.03832 39.6235 5.03173
786 1 -1.1104 0.892517 38.2986 0.767947
791 1 -1.1104 1.01457 37.9771 3.46213
796 2 2.2208 2.23487 39.5388 2.16435
800 1 -1.1104 3.78965 38.1639 0.713573