ITEM: TIMESTEP
60000
ITEM: NUMBER OF ATOMS
17700
ITEM: BOX BOUNDS pp pp pp
-4.2919538705811772e-01 2.7769195387058655e+01
-5.3022217362979180e+00 3.3338222173631038e+02
-4.4278614007179817e-01 2.7782786140071199e+01
ITEM: ATOMS id type q x y z
1 2 2.2208 5.53705 0.497645 5.36094
2 1 -1.1104 1.33133 -3.81285 0.978404
6 1 -1.1104 1.34999 -3.37133 3.88739
10 1 -1.1104 1.57421 -0.917576 1.13191
12 2 2.2208 5.54007 -2.10123 2.57306
14 1 -1.1104 1.28705 -0.863234 4.08582
16 1 -1.1104 4.05257 -3.65155 1.04334
18 2 2.2208 2.6504 0.564992 2.44699
19 1 -1.1104 4.19868 -3.553 3.87984
21 2 2.2208 2.7736 -2.14572 5.27881
23 1 -1.1104 4.20546 -0.615116 1.09486
24 1 -1.1104 4.24777 -0.608375 3.86555
353 2 2.2208 2.73443 3.24975 -0.253208
25 2 2.2208 -0.157893 -2.3197 2.41445
351 2 2.2208 5.58123 0.439612 -0.370663
26 2 2.2208 -0.186489 0.54781 5.26929
8066 2 2.2208 8.26015 -5.12768 13.6863
352 2 2.2208 2.61733 -2.26875 -0.395565
368 2 2.2208 8.39012 8.89897 -0.41844
4 1 -1.1104 6.8301 -3.75308 0.946652
15 1 -1.1104 6.94583 -0.615612 4.01784
8 1 -1.1104 7.1156 -3.71478 3.92221
11 1 -1.1104 7.06889 -1.13342 1.25893
31 2 2.2208 11.3048 0.399489 5.26803
32 1 -1.1104 12.4663 -3.81802 1.02812
34 1 -1.1104 12.9644 -4.07492 3.79817
36 1 -1.1104 12.6028 -1.08289 1.17982
37 2 2.2208 11.258 -2.3762 2.43454
39 1 -1.1104 12.6566 -0.945778 3.77369
40 1 -1.1104 9.72348 -3.55267 0.923146
42 2 2.2208 8.42513 0.344472 2.52818
43 1 -1.1104 10.2915 -3.8071 3.77108
45 2 2.2208 8.45524 -2.39511 5.38855
47 1 -1.1104 9.95538 -0.767493 1.10309
48 1 -1.1104 9.79735 -0.925341 3.92219
205 1 -1.1104 12.5709 -3.74248 6.61803
149 1 -1.1104 12.4282 16.1274 6.8814
355 2 2.2208 11.3583 0.593861 -0.252706
356 2 2.2208 8.3906 -2.38205 -0.41509
3 1 -1.1104 1.1951 1.84084 1.22224
7 1 -1.1104 1.22994 1.71367 3.8903
13 2 2.2208 5.58525 3.01141 2.32988
17 1 -1.1104 4.06436 2.0118 1.23021
20 1 -1.1104 4.01908 1.90444 3.94064
22 2 2.2208 2.7186 3.24087 5.21579
54 2 2.2208 5.64437 6.11988 5.32229
60 1 -1.1104 1.22686 4.66879 1.16898
67 1 -1.1104 1.14308 4.59431 4.02286
72 2 2.2208 2.65766 6.28843 2.44623
74 1 -1.1104 3.84071 7.80408 3.99435
76 1 -1.1104 4.13749 4.69804 1.00121
79 1 -1.1104 4.1014 4.91007 3.59151
71 1 -1.1104 4.10828 7.71048 1.04083
58 1 -1.1104 1.19814 7.46841 4.05595
56 1 -1.1104 1.2445 7.55693 1.13312
27 2 2.2208 -0.204609 3.37713 2.49409
366 2 2.2208 -0.133971 6.17814 -0.335058
238 1 -1.1104 4.1579 7.59374 6.87163
81 2 2.2208 -0.122233 6.06899 5.30929
59 1 -1.1104 6.61149 7.54768 3.66946
69 1 -1.1104 7.09152 4.86442 3.69471
5 1 -1.1104 6.90153 1.70377 1.18411
57 1 -1.1104 6.76088 7.36646 1.00919
63 1 -1.1104 6.71944 4.44726 0.94225
169 1 -1.1104 6.98925 1.95223 6.89525
9 1 -1.1104 7.14599 2.11709 3.75186
33 1 -1.1104 12.4634 1.9936 1.09917
35 1 -1.1104 12.7363 1.65465 3.79419
38 2 2.2208 11.0195 3.46112 2.49164
41 1 -1.1104 9.82516 2.07892 1.05342
44 1 -1.1104 9.74341 1.75669 3.96722
46 2 2.2208 8.31656 3.20588 5.34147
84 2 2.2208 10.997 6.1238 5.52521
86 1 -1.1104 12.4925 7.37841 1.19453
88 1 -1.1104 12.5856 4.62155 1.36784
92 1 -1.1104 12.3001 4.82071 3.92886
95 2 2.2208 8.39311 6.12719 2.37607
99 1 -1.1104 9.79249 4.71586 0.988085
102 1 -1.1104 9.60683 4.80523 4.00496
94 1 -1.1104 9.6751 7.61832 1.23632
97 1 -1.1104 9.5968 7.44386 3.83669
87 1 -1.1104 12.7931 7.48964 4.02485
237 1 -1.1104 6.7756 4.52266 6.53322
8047 2 2.2208 2.72626 -5.04915 2.66394
357 2 2.2208 8.19416 3.13378 -0.416564
83 2 2.2208 -0.162887 11.5793 5.30555
82 2 2.2208 -0.141684 8.93237 2.60916
8053 2 2.2208 2.81888 -5.18127 8.06063
55 2 2.2208 5.31024 11.7716 5.45985
61 1 -1.1104 1.47397 10.2779 1.217
66 2 2.2208 5.42225 8.99522 2.33454
68 1 -1.1104 1.30379 10.314 3.98519
73 2 2.2208 2.79065 11.8129 2.67326
75 2 2.2208 2.72802 8.91055 5.41
77 1 -1.1104 4.2059 10.6282 1.14162
80 1 -1.1104 4.17653 10.431 4.02018
107 1 -1.1104 1.15259 13.2836 1.27894
113 1 -1.1104 1.4111 13.1961 4.07136
123 1 -1.1104 3.96966 13.3737 1.28658
128 1 -1.1104 4.11199 13.1308 3.93958
8055 2 2.2208 -0.0415651 -5.20611 11.0223
364 2 2.2208 5.63097 11.8146 -0.430944
8065 2 2.2208 5.49944 -4.95779 -0.374292
115 1 -1.1104 6.93932 13.1423 4.29961
110 1 -1.1104 6.77983 13.2541 1.21526
64 1 -1.1104 6.88448 10.2505 0.811214
70 1 -1.1104 7.04109 10.5499 3.86874
85 2 2.2208 11.011 11.7977 5.49137
89 1 -1.1104 12.4612 10.1373 1.27537
91 2 2.2208 11.1093 9.04328 2.59513
93 1 -1.1104 12.6052 10.3921 4.44248
96 2 2.2208 8.25367 11.956 2.50026
98 2 2.2208 8.09542 8.75688 5.17456
100 1 -1.1104 9.75937 10.6371 1.0552
103 1 -1.1104 9.77266 10.2911 3.84139
142 1 -1.1104 12.1612 13.073 1.63183
146 1 -1.1104 12.2974 13.2925 4.1411
153 1 -1.1104 9.44173 13.2738 1.21851
158 1 -1.1104 9.60303 13.0442 4.12267
367 2 2.2208 10.9668 11.8702 -0.295942
136 2 2.2208 -0.133118 20.3472 2.43603
340 2 2.2208 2.48055 20.2238 -0.234757
130 2 2.2208 2.55065 14.6243 5.64401
119 2 2.2208 5.50028 14.66 2.65957
8473 2 2.2208 -0.233195 14.5681 2.84934
137 2 2.2208 -0.187287 17.4627 5.31999
106 2 2.2208 5.47696 17.4435 5.48518
109 1 -1.1104 1.22648 18.9484 1.1469
114 1 -1.1104 1.3153 18.9822 4.02262
116 1 -1.1104 1.02772 16.0934 1.29997
120 2 2.2208 5.50197 20.2505 2.64981
121 1 -1.1104 1.24161 15.9845 3.96869
125 1 -1.1104 4.05108 18.6832 1.2795
127 2 2.2208 2.66997 17.477 2.63642
129 1 -1.1104 4.16818 18.7645 4.12425
131 2 2.2208 2.64088 20.2729 5.36677
132 1 -1.1104 3.92481 16.1444 1.39803
134 1 -1.1104 4.00895 15.9328 4.15519
339 2 2.2208 5.2127 17.3455 -0.182731
296 1 -1.1104 6.79402 18.7295 12.6201
8048 2 2.2208 5.58891 -5.13243 5.19365
325 2 2.2208 8.29234 14.7904 -0.34803
150 2 2.2208 11.013 14.5731 2.8317
138 1 -1.1104 6.69557 18.9327 1.30934
139 1 -1.1104 6.97884 19.0022 4.04846
140 1 -1.1104 6.88694 16.1192 1.27145
122 1 -1.1104 6.78367 16.0033 3.96118
160 2 2.2208 8.43515 14.5113 5.48772
141 2 2.2208 11.1761 17.414 5.44581
144 1 -1.1104 12.3441 18.7536 1.13682
147 1 -1.1104 12.698 18.7795 3.98766
148 1 -1.1104 12.3435 15.8688 1.33644
151 2 2.2208 11.177 20.2159 2.53075
152 1 -1.1104 12.4761 15.9783 4.21922
155 1 -1.1104 9.63781 18.8366 1.17334
157 2 2.2208 8.31156 17.5064 2.68554
159 1 -1.1104 9.77339 18.988 4.12865
161 2 2.2208 8.16801 20.2425 5.6647
162 1 -1.1104 9.6136 16.1544 1.23764
164 1 -1.1104 9.68607 16.2184 4.01201
316 2 2.2208 8.12373 20.2749 10.9299
8051 2 2.2208 11.1489 -5.2481 5.28339
362 2 2.2208 5.35018 6.09444 -0.22402
170 1 -1.1104 1.27404 -0.920585 6.71157
166 1 -1.1104 1.01515 -3.69796 6.65421
49 2 2.2208 10.8931 17.4255 11.0444
172 1 -1.1104 3.97675 -3.70718 6.65064
201 2 2.2208 0.0623891 0.441541 11.032
174 1 -1.1104 4.12939 -0.948629 6.63247
175 2 2.2208 5.44439 0.575359 10.9787
176 1 -1.1104 1.52453 -3.82804 12.6101
180 1 -1.1104 1.24646 -3.82162 9.51779
184 1 -1.1104 1.34572 -1.23263 12.3471
186 2 2.2208 5.47527 -2.20477 8.09447
188 1 -1.1104 1.64036 -0.846585 9.4921
190 1 -1.1104 4.38703 -3.83013 12.5118
192 2 2.2208 2.58783 0.406253 8.06259
193 1 -1.1104 4.0267 -3.80263 9.4628
195 2 2.2208 2.65519 -2.43619 11.0371
197 1 -1.1104 4.11558 -0.897664 12.4352
198 1 -1.1104 4.42965 -0.7979 9.34825
210 1 -1.1104 9.59038 -0.972025 6.78894
171 1 -1.1104 6.96804 -0.917195 6.75443
200 2 2.2208 -0.126543 -2.34793 8.11257
168 1 -1.1104 6.82393 -3.82914 6.72194
182 1 -1.1104 6.9034 -3.84681 9.33889
189 1 -1.1104 7.14504 -0.74244 9.80832
208 1 -1.1104 9.67397 -3.87836 6.63424
178 1 -1.1104 7.06442 -3.87668 12.2784
185 1 -1.1104 6.83078 -1.0009 12.422
207 1 -1.1104 12.4669 -1.00902 6.63582
211 2 2.2208 11.0616 0.311529 11.1776
212 1 -1.1104 12.7601 -3.98501 12.2927
214 1 -1.1104 12.4857 -3.8681 9.40342
216 1 -1.1104 12.6129 -1.23582 12.4721
217 2 2.2208 11.1316 -2.43241 8.07826
219 1 -1.1104 12.6804 -1.19671 9.80043
220 1 -1.1104 9.76737 -3.8285 12.2849
222 2 2.2208 8.39909 0.523873 8.29428
223 1 -1.1104 9.78141 -3.87012 9.52551
225 2 2.2208 8.59696 -2.41912 11.0043
227 1 -1.1104 9.83407 -1.0452 12.5261
228 1 -1.1104 10.0127 -0.995242 9.67068
29 2 2.2208 -0.213346 9.05008 8.2553
329 2 2.2208 11.0048 17.2945 -0.157757
239 1 -1.1104 4.09999 4.52587 6.45672
236 1 -1.1104 1.05604 4.83377 6.96993
28 2 2.2208 -0.171642 6.26246 10.7897
8472 2 2.2208 -0.126324 3.27112 7.98614
234 1 -1.1104 1.22305 7.35867 6.76761
167 1 -1.1104 1.20257 2.01019 6.60198
173 1 -1.1104 4.05754 1.74122 6.77819
177 1 -1.1104 1.43255 1.75793 12.5668
181 1 -1.1104 1.45429 1.96542 9.46206
187 2 2.2208 5.34636 3.2114 8.18184
191 1 -1.1104 4.11607 1.91428 12.4192
194 1 -1.1104 4.04876 1.75171 9.52611
196 2 2.2208 2.73027 3.35997 11.0969
240 2 2.2208 5.58341 6.15118 11.1821
242 1 -1.1104 1.2733 7.39675 12.335
246 1 -1.1104 1.29036 4.64545 12.397
251 1 -1.1104 1.61221 4.90637 9.80762
256 2 2.2208 2.6453 6.12028 8.18242
260 1 -1.1104 4.07655 4.64984 12.4795
262 1 -1.1104 4.11567 4.76477 9.36339
255 1 -1.1104 4.11338 7.45881 12.4492
258 1 -1.1104 4.14372 7.56037 9.712
244 1 -1.1104 1.40839 7.51996 9.47036
253 1 -1.1104 6.87531 4.71025 9.54659
209 1 -1.1104 9.81765 1.76232 6.96367
145 1 -1.1104 12.3076 18.9757 6.86845
235 1 -1.1104 6.9391 7.4841 6.74389
266 1 -1.1104 12.3764 4.46125 6.9571
267 1 -1.1104 9.6598 7.78594 6.71432
206 1 -1.1104 12.7023 1.72892 6.66401
265 1 -1.1104 12.5796 7.16217 6.80414
245 1 -1.1104 6.86429 7.68261 9.56851
248 1 -1.1104 6.92219 4.74016 12.5777
243 1 -1.1104 6.83903 7.43888 12.5868
183 1 -1.1104 6.96902 2.00369 9.65791
269 1 -1.1104 9.67951 4.60877 6.83643
179 1 -1.1104 6.9444 1.79922 12.3915
213 1 -1.1104 12.4393 1.65969 12.5344
215 1 -1.1104 12.6479 1.93585 9.59523
218 2 2.2208 11.1781 3.12992 8.30992
221 1 -1.1104 9.77838 1.77486 12.4672
224 1 -1.1104 9.80821 1.75437 9.79191
226 2 2.2208 8.32852 3.22021 11.2887
268 1 -1.1104 9.81261 4.69717 9.66456
271 1 -1.1104 9.80003 4.69249 12.5921
275 2 2.2208 8.31361 5.97912 8.20002
276 2 2.2208 11.1891 6.14979 11.2499
279 1 -1.1104 12.4915 7.4169 9.68366
280 1 -1.1104 12.4513 4.73623 12.4368
283 1 -1.1104 12.7737 4.78098 9.65632
285 1 -1.1104 9.7423 7.61865 12.3036
278 1 -1.1104 12.5706 7.60168 12.46
273 1 -1.1104 9.64802 7.50522 9.42868
112 1 -1.1104 6.88822 18.6976 6.88962
30 2 2.2208 -0.239599 11.9604 11.1588
62 1 -1.1104 1.36164 10.1289 6.82417
124 1 -1.1104 3.93946 13.2363 6.83342
78 1 -1.1104 4.21773 10.2783 6.91485
8050 2 2.2208 8.41061 -4.88922 2.48407
108 1 -1.1104 1.14503 13.0094 6.7916
241 2 2.2208 5.23364 11.5813 10.9734
247 1 -1.1104 1.00108 10.1946 12.4246
250 2 2.2208 5.5603 8.81115 8.1152
252 1 -1.1104 1.09376 10.3714 9.57583
257 2 2.2208 2.48014 11.6329 8.29298
259 2 2.2208 2.55859 8.87972 10.9698
261 1 -1.1104 3.65035 10.1092 12.497
263 1 -1.1104 3.70616 10.4162 9.59419
287 1 -1.1104 3.85362 12.9664 12.2725
294 1 -1.1104 1.18554 13.0371 9.6524
299 1 -1.1104 1.1436 13.2481 12.3824
305 1 -1.1104 3.93773 13.2975 9.39636
8446 2 2.2208 -0.261531 14.6631 8.2578
232 2 2.2208 10.9064 20.3406 8.27314
249 1 -1.1104 6.63197 10.1975 12.3451
111 1 -1.1104 6.93112 13.0507 6.89713
101 1 -1.1104 9.79659 10.5312 7.05647
143 1 -1.1104 12.5319 13.0148 6.77841
90 1 -1.1104 12.4981 10.2008 6.91726
290 1 -1.1104 6.8862 13.2985 9.58349
154 1 -1.1104 9.5848 13.1614 7.08007
65 1 -1.1104 6.85698 10.2058 6.55385
254 1 -1.1104 6.6921 10.5655 9.50599
297 1 -1.1104 6.67904 12.9668 12.3993
322 1 -1.1104 9.55146 13.1355 12.4475
319 1 -1.1104 9.75616 13.1723 9.65297
199 1 -1.1104 12.4362 13.0214 9.54498
264 1 -1.1104 9.62134 10.3691 9.7433
270 1 -1.1104 9.39709 10.185 12.3257
272 2 2.2208 8.17269 8.7345 10.8445
274 2 2.2208 8.22742 11.7544 8.32477
277 2 2.2208 11.0077 11.7973 11.1767
281 1 -1.1104 12.514 10.3885 12.4695
282 2 2.2208 10.9943 8.97576 8.18284
284 1 -1.1104 12.5881 10.1812 9.81084
105 1 -1.1104 12.1956 13.415 12.3829
311 2 2.2208 -0.275657 20.1658 8.15415
117 1 -1.1104 1.08354 16.0277 6.93436
295 2 2.2208 5.51554 14.4556 8.18891
302 1 -1.1104 1.09876 18.6822 6.62492
133 1 -1.1104 4.02088 16.2188 6.90039
126 1 -1.1104 3.94293 18.9504 6.89347
8447 2 2.2208 -0.35161 17.5859 11.05
310 2 2.2208 2.58268 14.6957 10.8984
307 1 -1.1104 0.867785 16.1706 12.4761
308 1 -1.1104 3.80284 15.9391 12.4279
309 2 2.2208 2.49031 20.2564 11.1567
286 1 -1.1104 3.81192 18.9889 12.8738
291 1 -1.1104 0.93814 18.9449 9.52157
292 1 -1.1104 1.21863 16.2551 9.71163
293 2 2.2208 5.3345 20.1616 8.25929
298 1 -1.1104 1.21401 18.7459 12.5379
300 2 2.2208 5.30382 17.3091 11.0585
301 1 -1.1104 3.68005 18.5574 10.0938
303 2 2.2208 2.58265 17.4059 8.2341
304 1 -1.1104 3.81123 15.9099 9.53852
288 1 -1.1104 6.76044 18.8859 9.78507
156 1 -1.1104 9.49935 18.7567 6.92031
314 1 -1.1104 9.64576 16.0053 9.79666
321 1 -1.1104 9.44525 18.9919 12.406
233 1 -1.1104 12.5783 15.9359 9.59661
318 1 -1.1104 9.70415 18.9161 9.56813
135 1 -1.1104 12.2925 18.8334 12.5647
306 1 -1.1104 6.69761 15.9415 12.3574
320 2 2.2208 8.1764 17.3649 8.27633
312 1 -1.1104 12.3923 18.7317 9.75043
231 2 2.2208 11.1116 14.5628 8.25911
317 2 2.2208 8.11378 14.5234 11.0815
289 1 -1.1104 6.69243 16.1079 9.56874
163 1 -1.1104 9.77998 15.9802 7.02528
315 1 -1.1104 9.40207 16.0382 12.5107
313 1 -1.1104 12.2943 16.0743 12.4797
118 1 -1.1104 6.9945 15.9232 6.79841
330 2 2.2208 8.03065 20.2129 -0.158682
8056 2 2.2208 8.31968 -5.37431 8.15494
363 2 2.2208 2.67387 9.08074 -0.235884
229 2 2.2208 13.6681 0.269317 8.25612
365 2 2.2208 -0.0224216 11.7604 -0.320213
338 2 2.2208 2.54127 14.4361 -0.132049
8049 2 2.2208 -0.00381431 -5.05737 5.30364
332 2 2.2208 11.1977 -2.24146 13.7718
8707 2 2.2208 13.4913 20.2992 11.0248
336 2 2.2208 -0.25213 17.4357 -0.148003
369 2 2.2208 11.1704 6.12662 -0.0741241
348 2 2.2208 11.0252 14.6076 13.7466
8740 2 2.2208 -0.00761596 0.498361 -0.305127
370 2 2.2208 5.61015 0.490506 16.7936
371 1 -1.1104 1.41461 -3.76935 18.004
375 1 -1.1104 1.3874 -3.87913 15.2274
383 1 -1.1104 1.61302 -0.96167 17.8945
385 2 2.2208 5.62926 -2.3519 19.5127
387 1 -1.1104 1.46939 -1.11394 15.2553
391 1 -1.1104 4.11918 -3.87269 18.204
393 2 2.2208 2.87171 0.398997 19.5756
394 1 -1.1104 4.03712 -3.73171 15.3179
398 2 2.2208 2.71404 -2.32748 16.6699
400 1 -1.1104 4.38202 -0.870496 18.0887
401 1 -1.1104 4.27468 -1.08719 15.2708
406 2 2.2208 -0.217774 0.510969 16.8422
9021 2 2.2208 0.024393 -2.64488 19.5527
17468 2 2.2208 -0.0800882 -5.29861 22.2614
8171 2 2.2208 2.70607 -5.26799 19.4447
8069 2 2.2208 3.04042 -5.18055 13.8092
337 2 2.2208 2.64266 11.476 13.7915
326 2 2.2208 5.58094 -2.35497 13.7533
327 2 2.2208 2.75143 0.317592 13.8946
379 1 -1.1104 7.00924 -3.45258 15.1891
389 1 -1.1104 7.09671 -0.68908 15.1788
373 1 -1.1104 6.99703 -3.76935 17.9627
384 1 -1.1104 7.00866 -0.921959 18.1558
413 2 2.2208 11.2113 0.334328 16.467
414 1 -1.1104 12.5888 -3.78329 18.1796
416 1 -1.1104 12.5017 -3.67303 15.4737
420 1 -1.1104 12.8078 -0.827066 17.7615
421 2 2.2208 11.2161 -2.32586 19.2341
423 1 -1.1104 12.6766 -1.01868 15.0608
425 1 -1.1104 9.87145 -3.82925 17.9574
427 2 2.2208 8.50085 0.521859 19.3839
428 1 -1.1104 9.86965 -3.93489 14.9865
432 2 2.2208 8.41041 -2.25843 16.667
434 1 -1.1104 9.8454 -0.793314 17.8558
435 1 -1.1104 9.80901 -1.08635 15.096
429 1 -1.1104 9.68457 -3.83467 20.7636
390 1 -1.1104 6.97141 -0.749124 20.7134
424 1 -1.1104 12.6208 -0.846305 20.8019
334 2 2.2208 2.66275 6.1186 13.7643
331 2 2.2208 8.30326 0.361587 13.7071
372 1 -1.1104 1.24772 1.76548 18.4974
377 1 -1.1104 1.39332 1.66998 15.4849
386 2 2.2208 5.45449 3.24821 19.4386
392 1 -1.1104 4.02073 1.82983 17.8857
396 1 -1.1104 3.98852 1.75238 15.226
399 2 2.2208 2.62618 3.19313 16.7084
446 2 2.2208 5.4583 6.06591 16.6617
454 1 -1.1104 1.24796 4.52718 17.9717
459 1 -1.1104 1.29644 4.61007 15.113
467 1 -1.1104 4.01585 7.50902 17.827
468 2 2.2208 2.71252 6.0692 19.487
473 1 -1.1104 3.97719 4.72501 18.1511
475 1 -1.1104 4.22051 4.668 15.4289
470 1 -1.1104 4.15674 7.52051 15.1514
450 1 -1.1104 1.2823 7.46763 15.1155
448 1 -1.1104 1.23305 7.56992 17.9924
438 2 2.2208 -0.084611 6.32974 16.6604
632 2 2.2208 -0.19723 3.3688 19.4956
456 1 -1.1104 6.80907 4.77453 18.0485
8132 2 2.2208 8.43166 -5.18042 24.9355
358 2 2.2208 -0.0293447 3.27987 13.9766
471 1 -1.1104 3.88678 7.4664 20.7337
449 1 -1.1104 6.84577 7.47216 17.9046
374 1 -1.1104 7.07971 2.06238 18.098
452 1 -1.1104 7.10496 7.67807 15.2426
463 1 -1.1104 7.03072 4.92517 15.3549
381 1 -1.1104 6.91957 2.0138 15.2407
415 1 -1.1104 12.5053 1.96004 17.8695
418 1 -1.1104 12.4044 1.94089 15.1372
422 2 2.2208 11.2909 3.32333 19.3149
426 1 -1.1104 9.72132 2.0896 17.8314
430 1 -1.1104 9.54985 2.10754 15.0703
433 2 2.2208 8.38616 3.39565 16.3891
482 2 2.2208 11.1859 6.13564 16.7083
487 1 -1.1104 12.6711 4.70802 17.9655
490 1 -1.1104 12.5968 4.87872 15.0908
495 2 2.2208 8.24912 5.96381 19.3078
500 1 -1.1104 9.78846 4.66343 18.0152
502 1 -1.1104 9.9671 4.91504 15.2263
494 1 -1.1104 9.73195 7.4172 18.0688
497 1 -1.1104 9.79717 7.77474 15.1714
485 1 -1.1104 12.5509 7.60982 15.4226
484 1 -1.1104 12.5987 7.66738 18.2222
439 2 2.2208 -0.331441 8.82989 19.5763
8135 2 2.2208 5.53111 -5.08144 22.3156
447 2 2.2208 5.68246 11.7342 16.4374
455 1 -1.1104 1.09299 10.3924 17.9823
458 2 2.2208 5.40701 9.01743 19.0821
461 1 -1.1104 1.00269 10.1637 15.3124
469 2 2.2208 2.63534 11.7738 19.4818
472 2 2.2208 2.58056 8.94627 16.6629
474 1 -1.1104 3.73219 10.2626 18.0568
477 1 -1.1104 4.08138 10.3556 15.4019
510 1 -1.1104 1.48965 13.2572 17.941
514 1 -1.1104 1.11481 12.8767 15.0162
530 1 -1.1104 4.22969 13.231 17.9166
533 1 -1.1104 4.03087 13.0427 15.0906
462 1 -1.1104 1.16924 10.429 20.7762
8753 2 2.2208 -0.342104 8.84995 13.758
8990 2 2.2208 -0.217011 14.4466 19.5772
457 1 -1.1104 6.82399 10.2548 17.7958
465 1 -1.1104 6.84361 10.2456 15.1767
512 1 -1.1104 6.90577 12.9627 18.0544
518 1 -1.1104 7.10699 13.1182 15.3956
483 2 2.2208 11.0204 11.777 16.6969
488 1 -1.1104 12.6466 10.5259 18.0371
489 2 2.2208 11.2161 8.9521 19.4092
492 1 -1.1104 12.6757 10.389 15.265
496 2 2.2208 8.22251 11.6208 19.4589
499 2 2.2208 8.40607 8.88264 16.6315
501 1 -1.1104 9.72898 10.2241 17.9482
504 1 -1.1104 9.695 10.6016 15.0189
546 1 -1.1104 12.5556 13.2437 18.0101
548 1 -1.1104 12.5444 13.1652 15.1725
557 1 -1.1104 9.69539 13.0767 18.1193
560 1 -1.1104 9.94211 13.4601 15.4381
549 1 -1.1104 12.4261 13.2028 21.0597
343 2 2.2208 8.08607 11.7081 13.7667
553 2 2.2208 11.1691 14.4579 19.5655
342 2 2.2208 11.3038 8.98494 13.7937
8763 2 2.2208 0.0900903 -2.35363 13.7427
8989 2 2.2208 -0.262485 20.0974 19.463
537 2 2.2208 2.64749 14.558 16.5249
524 2 2.2208 5.42535 14.5736 19.5623
8762 2 2.2208 -0.325491 20.2943 14.0439
509 2 2.2208 5.49817 17.4485 16.7127
511 1 -1.1104 1.16836 18.8508 18.086
516 1 -1.1104 1.21069 18.653 15.2783
522 1 -1.1104 1.23423 15.9958 18.1161
525 2 2.2208 5.09143 20.3247 19.7569
526 1 -1.1104 1.28784 15.8151 15.2893
531 1 -1.1104 4.19215 18.9489 18.413
532 2 2.2208 2.64069 17.4311 19.2818
535 1 -1.1104 3.92622 18.8275 15.5405
538 2 2.2208 2.51997 20.1139 16.5174
539 1 -1.1104 4.25773 15.8634 17.9371
540 1 -1.1104 4.0867 16.1245 15.2546
344 2 2.2208 2.51695 17.2151 13.9466
479 2 2.2208 -0.115399 20.2314 25.1796
346 2 2.2208 5.23161 14.5237 13.7563
333 2 2.2208 11.1999 3.37442 13.808
8761 2 2.2208 -0.319323 14.5359 13.9015
8136 2 2.2208 8.4118 -5.14843 19.3909
564 2 2.2208 8.24667 14.527 16.7605
523 1 -1.1104 6.83437 15.8484 18.0216
528 1 -1.1104 6.71572 15.9013 15.2806
513 1 -1.1104 6.85124 18.6318 18.2598
520 1 -1.1104 6.87147 18.8587 15.5702
545 2 2.2208 11.0148 17.4235 16.8267
547 1 -1.1104 12.2373 18.8148 18.3037
550 1 -1.1104 12.3023 18.8905 15.5255
552 1 -1.1104 12.4495 16.0676 18.2015
554 2 2.2208 10.8766 20.2316 19.6586
555 1 -1.1104 12.325 15.9036 15.3174
558 1 -1.1104 9.70194 18.7772 18.2413
559 2 2.2208 8.40044 17.3104 19.5636
562 1 -1.1104 9.51637 18.9645 15.1864
565 2 2.2208 8.08133 20.338 16.8064
566 1 -1.1104 9.66948 15.9028 18.4267
567 1 -1.1104 9.65892 16.037 15.4178
347 2 2.2208 10.8266 20.2098 14.0424
551 1 -1.1104 12.4427 18.985 21.0341
349 2 2.2208 8.16661 17.3862 13.8849
8134 2 2.2208 2.66157 -5.13961 25.1182
607 2 2.2208 -0.0741669 0.458134 22.4228
8845 2 2.2208 -0.124479 -2.36643 25.0857
402 1 -1.1104 4.20629 -0.864239 20.8098
376 1 -1.1104 1.34577 -3.99856 21.0888
388 1 -1.1104 1.43579 -1.28285 20.7882
395 1 -1.1104 4.03422 -3.75389 20.7909
573 2 2.2208 5.662 0.36692 22.2948
574 1 -1.1104 1.22951 -3.58847 23.8289
578 1 -1.1104 1.20763 -3.78444 26.6316
582 1 -1.1104 1.45167 -1.17409 23.7082
584 2 2.2208 5.56481 -2.17239 25.0301
586 1 -1.1104 1.21904 -1.04761 26.5015
588 1 -1.1104 4.16943 -3.73712 23.5276
590 2 2.2208 2.89163 0.389197 25.1793
591 1 -1.1104 4.17319 -3.54821 26.4864
593 2 2.2208 2.87659 -2.36272 22.2667
595 1 -1.1104 4.31032 -0.886077 23.727
596 1 -1.1104 4.29292 -0.942835 26.4769
328 2 2.2208 5.38398 3.34573 13.935
380 1 -1.1104 6.88363 -3.6935 20.8976
580 1 -1.1104 6.87117 -3.59145 26.4576
583 1 -1.1104 7.07241 -0.987342 23.4892
417 1 -1.1104 12.5737 -3.69094 21.0039
576 1 -1.1104 7.08523 -3.60247 23.6815
587 1 -1.1104 6.97336 -0.945417 26.6877
436 1 -1.1104 9.78937 -1.01215 20.7312
609 2 2.2208 11.2792 0.550448 22.2492
610 1 -1.1104 12.5339 -3.85336 23.7816
612 1 -1.1104 12.5404 -3.83115 26.4298
614 1 -1.1104 12.5738 -0.862073 23.5385
615 2 2.2208 11.1779 -2.29758 25.0817
617 1 -1.1104 12.5691 -0.804284 26.5377
618 1 -1.1104 9.77757 -3.82936 23.5873
620 2 2.2208 8.40947 0.472338 25.1196
621 1 -1.1104 9.81071 -3.66753 26.3718
623 2 2.2208 8.41089 -2.42427 22.2241
625 1 -1.1104 9.83557 -0.805576 23.6579
626 1 -1.1104 9.86538 -1.01368 26.4134
633 1 -1.1104 6.60354 16.1021 26.4592
451 1 -1.1104 1.1229 7.64025 20.9003
476 1 -1.1104 4.15944 4.68595 20.8141
460 1 -1.1104 1.02976 4.69174 20.6664
397 1 -1.1104 4.23426 1.8673 21.0758
378 1 -1.1104 1.50328 1.60979 21.3552
608 2 2.2208 -0.289837 3.43159 25.1691
575 1 -1.1104 1.17409 1.72423 24.22
579 1 -1.1104 1.53562 1.78307 26.8543
585 2 2.2208 5.50214 3.2121 25.0005
589 1 -1.1104 4.0975 1.89482 23.7682
592 1 -1.1104 4.24344 1.97396 26.5379
594 2 2.2208 2.84593 3.14577 22.4246
638 2 2.2208 5.59647 6.21745 22.1901
640 1 -1.1104 1.31547 7.48182 23.5377
642 1 -1.1104 1.43672 7.42514 26.5164
644 1 -1.1104 1.50113 4.55488 23.5526
649 1 -1.1104 1.3373 4.78403 26.6542
653 1 -1.1104 4.20613 7.75816 23.7335
654 2 2.2208 2.71247 6.06472 25.0221
658 1 -1.1104 4.33818 4.71665 23.5931
660 1 -1.1104 3.94194 4.76233 26.4341
656 1 -1.1104 4.30428 7.60588 26.5414
404 2 2.2208 -0.135274 6.02115 22.2534
8170 2 2.2208 11.0505 -5.20271 16.5069
382 1 -1.1104 6.91078 1.82751 20.9653
503 1 -1.1104 10.0064 4.52777 20.8392
498 1 -1.1104 9.76217 7.4212 20.7708
453 1 -1.1104 6.87098 7.24948 20.7659
464 1 -1.1104 6.97717 4.58717 20.7566
581 1 -1.1104 6.86551 1.74238 26.5273
646 1 -1.1104 6.9171 4.58767 23.4783
641 1 -1.1104 7.02311 7.28594 23.471
651 1 -1.1104 6.80488 4.61957 26.2239
431 1 -1.1104 10.0376 1.85883 20.6381
491 1 -1.1104 12.8186 4.9457 20.8084
486 1 -1.1104 12.7867 7.85724 20.9389
577 1 -1.1104 7.1966 1.84845 23.7214
643 1 -1.1104 7.14146 7.3737 26.4541
419 1 -1.1104 12.7368 1.92688 20.8099
611 1 -1.1104 12.7644 2.00336 23.5783
613 1 -1.1104 12.5909 2.1809 26.6553
616 2 2.2208 11.164 3.32354 25.3994
619 1 -1.1104 9.98472 1.97956 23.6092
622 1 -1.1104 9.75232 1.84624 26.4462
624 2 2.2208 8.59723 3.12083 22.3088
670 1 -1.1104 9.67072 4.61355 26.4718
672 1 -1.1104 9.78695 4.7281 23.7124
676 2 2.2208 8.28928 6.08253 24.9626
677 2 2.2208 11.1413 6.11377 22.1826
681 1 -1.1104 12.4355 4.54326 23.7491
684 1 -1.1104 12.4165 4.93241 26.4157
668 1 -1.1104 9.96575 7.47636 23.7082
680 1 -1.1104 12.5325 7.56548 26.6289
679 1 -1.1104 12.8389 7.68161 23.7584
674 1 -1.1104 9.84182 7.50577 26.6289
667 2 2.2208 -0.124951 11.7816 22.3989
534 1 -1.1104 4.00682 13.2703 20.9237
515 1 -1.1104 1.23997 13.1749 21.0592
8809 2 2.2208 -0.0447325 8.91944 25.2342
478 1 -1.1104 4.18807 10.1699 20.8868
639 2 2.2208 5.41517 11.819 22.2603
645 1 -1.1104 1.37762 10.2262 23.8423
648 2 2.2208 5.48255 8.99401 25.1783
650 1 -1.1104 1.44606 10.0888 26.5202
655 2 2.2208 2.65307 11.7431 25.1245
657 2 2.2208 2.60501 8.93987 22.3235
659 1 -1.1104 4.15388 10.2828 23.5528
661 1 -1.1104 4.03995 10.3967 26.5102
543 1 -1.1104 4.02298 13.1268 26.5136
572 1 -1.1104 1.06944 12.9311 23.8103
628 1 -1.1104 1.1959 13.0203 26.6199
634 1 -1.1104 3.86823 13.1037 23.6673
652 1 -1.1104 6.86545 10.2571 26.4791
519 1 -1.1104 6.70937 13.304 21.1067
561 1 -1.1104 9.48071 12.8993 20.9152
466 1 -1.1104 6.86778 10.2191 20.6261
505 1 -1.1104 9.7502 10.1075 20.8926
437 2 2.2208 8.30537 14.4054 22.2806
493 1 -1.1104 12.5377 10.4587 20.8605
637 1 -1.1104 6.85091 13.2593 26.5416
598 1 -1.1104 6.87773 12.8335 23.8407
647 1 -1.1104 6.93524 10.188 23.6714
663 1 -1.1104 9.7488 13.1561 23.734
669 1 -1.1104 9.60371 10.4404 26.5209
671 1 -1.1104 9.6158 10.3491 23.7161
673 2 2.2208 8.24708 8.75569 22.2047
675 2 2.2208 8.3506 11.6565 25.1543
678 2 2.2208 11.145 11.633 22.2163
682 1 -1.1104 12.533 10.3666 23.933
683 2 2.2208 11.1685 8.98945 25.1358
685 1 -1.1104 12.6962 10.6188 26.6826
605 1 -1.1104 12.4008 13.2851 26.6126
411 1 -1.1104 9.59798 13.1371 26.5968
600 1 -1.1104 12.4617 13.1952 23.9458
541 1 -1.1104 3.9313 15.8427 20.8333
481 2 2.2208 2.51549 14.5719 22.4475
599 2 2.2208 5.26974 14.5637 25.2943
536 1 -1.1104 3.6775 18.615 21.1567
440 2 2.2208 -0.314445 11.6741 16.4005
517 1 -1.1104 0.925798 18.9733 20.9376
527 1 -1.1104 1.10801 15.9519 20.8615
506 2 2.2208 2.59498 20.2452 22.4068
507 1 -1.1104 3.95827 15.9283 23.8904
508 1 -1.1104 1.14686 15.7998 23.791
544 1 -1.1104 3.81425 15.8524 26.7425
569 2 2.2208 2.46537 17.4336 25.2448
570 1 -1.1104 4.07666 18.8624 26.6975
571 2 2.2208 5.25737 17.3409 22.3852
597 1 -1.1104 1.06127 18.8335 23.6508
604 2 2.2208 5.30689 20.3047 25.3199
629 1 -1.1104 1.07122 15.9069 26.5842
631 1 -1.1104 1.23522 18.8438 26.588
662 1 -1.1104 3.85209 18.7433 23.8686
445 2 2.2208 -0.275313 17.3332 22.2105
407 1 -1.1104 9.25076 19.0825 24.0554
444 1 -1.1104 9.55059 16.0328 26.5218
556 1 -1.1104 12.5861 16.052 21.2819
568 1 -1.1104 9.86173 15.6686 20.982
542 1 -1.1104 6.67018 15.6609 23.8367
635 2 2.2208 10.9085 14.4095 25.2393
442 2 2.2208 11.0188 17.4263 22.535
627 1 -1.1104 6.6092 18.7021 24.0112
443 1 -1.1104 9.61133 15.9828 23.8029
666 2 2.2208 10.928 20.2975 25.2957
529 1 -1.1104 6.83621 16.0851 20.9636
521 1 -1.1104 6.81016 19.0091 21.2041
408 2 2.2208 8.00528 17.4612 25.2705
563 1 -1.1104 9.54494 18.6115 21.0771
410 1 -1.1104 6.79419 18.6266 26.8527
441 2 2.2208 8.2838 20.2274 22.265
601 1 -1.1104 12.4264 18.8039 23.7171
664 1 -1.1104 12.3396 15.837 26.7385
630 1 -1.1104 12.5081 16.1586 23.9253
412 1 -1.1104 9.65616 18.96 26.6591
606 1 -1.1104 12.4811 18.836 26.5499
335 2 2.2208 5.50956 8.93075 13.838
8948 2 2.2208 13.6985 14.4991 16.7089
480 2 2.2208 -0.23777 14.4626 25.2315
8991 2 2.2208 -0.134347 17.4243 16.6528
17406 2 2.2208 -0.0792034 -5.23877 16.5115
8133 2 2.2208 11.1859 -5.25083 22.1587
341 2 2.2208 8.53965 6.34244 13.9814
345 2 2.2208 5.37673 20.3168 13.954
8062 2 2.2208 11.1926 -5.33687 27.7719
17328 2 2.2208 -0.237602 -5.30129 27.7774
686 2 2.2208 5.10468 23.0419 5.62303
688 1 -1.1104 1.05246 24.6226 1.18216
689 1 -1.1104 0.912552 24.4417 4.03638
690 1 -1.1104 1.0715 21.9307 1.16792
692 2 2.2208 5.30458 25.8255 2.73968
693 1 -1.1104 1.21451 21.6138 4.09426
695 1 -1.1104 3.99986 24.2228 1.41416
696 2 2.2208 2.50974 22.9882 2.70732
698 1 -1.1104 3.72803 24.7036 4.16972
699 2 2.2208 2.30508 26.0367 5.71112
700 1 -1.1104 3.77114 21.2765 1.3071
702 1 -1.1104 4.07407 21.6661 4.1594
701 1 -1.1104 3.86027 27.0105 1.29912
691 1 -1.1104 1.05857 27.4903 1.196
694 1 -1.1104 1.0261 27.1177 4.06754
708 1 -1.1104 6.57248 24.4326 3.98705
703 1 -1.1104 4.04724 27.4762 4.37129
988 2 2.2208 -0.35551 22.9647 11.1511
9282 2 2.2208 -0.234167 25.7128 8.21543
9404 2 2.2208 -0.324243 37.212 2.51457
1021 2 2.2208 10.927 28.657 -0.0882352
710 1 -1.1104 6.76695 27.3046 1.16342
711 1 -1.1104 6.84709 21.6974 3.98226
709 1 -1.1104 6.66509 21.8265 1.04126
707 1 -1.1104 6.78462 24.5283 1.29954
713 2 2.2208 10.8036 22.9825 5.51901
715 1 -1.1104 12.4765 24.4107 1.23387
716 1 -1.1104 12.2579 24.3438 4.07539
717 1 -1.1104 12.4466 21.6019 1.34757
719 2 2.2208 10.7238 25.71 2.55827
720 1 -1.1104 12.4084 21.5175 4.16206
722 1 -1.1104 9.55405 24.4421 1.22449
723 2 2.2208 8.08529 22.8375 2.63552
725 1 -1.1104 9.524 24.5589 4.07815
726 2 2.2208 8.00927 25.8753 5.41554
727 1 -1.1104 9.50034 21.5316 1.23647
729 1 -1.1104 9.70663 21.673 4.12388
712 1 -1.1104 6.71175 27.2499 4.12847
730 1 -1.1104 9.68412 27.2993 3.82927
718 1 -1.1104 12.1266 27.1159 1.20076
728 1 -1.1104 9.30485 27.2828 1.2354
721 1 -1.1104 12.4045 27.1812 3.91873
705 2 2.2208 -0.308872 22.9095 5.27839
1019 2 2.2208 10.8288 23.0565 -0.197249
828 1 -1.1104 6.6601 24.4596 6.64656
860 1 -1.1104 12.2392 24.5372 6.92677
1024 2 2.2208 5.26253 34.2169 -0.36728
687 2 2.2208 5.42643 28.6621 5.56978
697 2 2.2208 2.37179 28.6517 2.81735
735 1 -1.1104 1.19066 30.3048 1.207
738 1 -1.1104 1.0677 29.9776 4.01203
741 1 -1.1104 1.19732 33.0921 1.25105
742 2 2.2208 5.28542 31.5045 2.562
744 1 -1.1104 0.943403 32.6984 3.94981
746 1 -1.1104 3.85973 30.0761 1.53902
749 1 -1.1104 3.96538 30.1385 4.29212
751 2 2.2208 2.44662 31.4421 5.50183
753 1 -1.1104 4.08151 32.8112 1.01429
754 1 -1.1104 3.85844 32.9515 4.15617
1023 2 2.2208 2.46554 31.6244 -0.269034
745 1 -1.1104 6.75091 32.8793 3.92106
760 1 -1.1104 6.66274 32.953 1.06043
759 1 -1.1104 6.67617 30.0667 4.20858
9435 2 2.2208 -0.195932 28.9045 -0.246233
986 1 -1.1104 9.36801 41.4754 12.3281
889 1 -1.1104 6.87461 32.7458 6.98118
758 1 -1.1104 6.86763 29.962 1.38813
714 2 2.2208 11.0654 28.5199 5.27733
724 2 2.2208 8.1818 28.5469 2.75016
762 1 -1.1104 12.3439 30.0817 1.11361
764 1 -1.1104 12.348 30.2572 4.00321
766 1 -1.1104 12.2724 32.8856 1.10104
767 2 2.2208 10.8354 31.4577 2.46368
769 1 -1.1104 12.2662 33.041 3.97905
770 1 -1.1104 9.43435 30.0327 1.22658
773 1 -1.1104 9.52966 30.2207 4.03177
775 2 2.2208 8.11575 31.4382 5.37878
777 1 -1.1104 9.39113 32.9395 1.24039
778 1 -1.1104 9.55955 32.9 3.98641
1026 2 2.2208 8.13843 31.6031 -0.210646
9402 2 2.2208 13.6586 42.8608 10.9915
1027 2 2.2208 10.8116 34.3195 -0.130716
1022 2 2.2208 2.43301 36.9967 -0.124886
748 2 2.2208 2.50501 34.2027 2.69608
734 2 2.2208 5.37163 34.0964 5.5432
736 1 -1.1104 1.01304 35.7624 1.11024
739 1 -1.1104 0.983198 35.6131 3.98835