ITEM: TIMESTEP
40000
ITEM: NUMBER OF ATOMS
17700
ITEM: BOX BOUNDS pp pp pp
-4.4265291230118731e-01 2.7782652912300982e+01
-5.2952114882996204e+00 3.3337521148829535e+02
-4.5108307869239234e-01 2.7791083078693280e+01
ITEM: ATOMS id type q x y z
1 2 2.2208 5.03017 0.204563 5.33124
2 1 -1.1104 0.798795 -3.93819 1.0723
6 1 -1.1104 0.837926 -3.98655 3.96695
10 1 -1.1104 0.997396 -1.01664 1.0284
12 2 2.2208 5.04668 -2.71104 2.44848
14 1 -1.1104 0.890388 -1.20896 3.80537
16 1 -1.1104 3.42065 -3.94949 1.05616
18 2 2.2208 2.28791 0.439638 2.40649
19 1 -1.1104 3.75147 -4.14474 3.83776
21 2 2.2208 2.16531 -2.64271 5.31274
23 1 -1.1104 3.63881 -1.01086 1.09196
24 1 -1.1104 3.76698 -1.33545 3.92554
174 1 -1.1104 3.59667 -1.11683 6.60325
8 1 -1.1104 6.48317 -4.01661 3.98665
15 1 -1.1104 6.4335 -1.25102 3.96463
170 1 -1.1104 0.764974 -1.15829 6.82687
11 1 -1.1104 6.30781 -1.13842 0.935464
231 2 2.2208 7.97891 -5.11654 8.18969
172 1 -1.1104 3.6895 -3.9582 6.61197
345 2 2.2208 13.5388 19.9034 10.7974
233 2 2.2208 13.376 -5.24021 8.04044
4 1 -1.1104 6.40253 -4.01405 1.37138
31 2 2.2208 10.6599 0.264836 5.2986
32 1 -1.1104 11.8436 -3.98405 1.03484
34 1 -1.1104 12.1488 -3.85711 3.7608
36 1 -1.1104 12.1416 -1.23366 1.09035
37 2 2.2208 10.4705 -2.51579 2.49278
39 1 -1.1104 11.9484 -0.996717 3.7522
40 1 -1.1104 9.09923 -3.8252 0.853433
42 2 2.2208 7.85684 0.314775 2.30331
43 1 -1.1104 9.28351 -4.06836 3.91715
45 2 2.2208 7.68924 -2.52305 5.27581
47 1 -1.1104 9.27005 -1.13263 1.02336
48 1 -1.1104 9.14684 -0.894011 3.75527
52 2 2.2208 10.7195 -5.36132 5.27966
365 2 2.2208 7.82755 11.6793 13.6742
229 2 2.2208 13.4475 0.350278 8.0443
208 1 -1.1104 9.40317 -3.88387 6.78133
338 2 2.2208 13.4013 3.16685 10.9693
363 2 2.2208 7.96835 6.06188 13.6465
3 1 -1.1104 0.975482 1.74287 0.838985
7 1 -1.1104 0.739713 1.63991 3.81642
13 2 2.2208 5.06176 3.05786 2.41905
17 1 -1.1104 3.75065 1.84695 0.967921
20 1 -1.1104 3.77287 1.64218 3.95333
22 2 2.2208 2.29889 3.22157 5.19732
54 2 2.2208 4.90991 5.82998 5.24098
56 1 -1.1104 0.921662 7.49715 0.863423
60 1 -1.1104 0.91944 4.65341 1.06519
67 1 -1.1104 0.912863 4.49842 3.96895
72 2 2.2208 2.37164 5.93412 2.41521
74 1 -1.1104 3.41248 7.36749 3.81957
76 1 -1.1104 3.73345 4.61331 0.911736
79 1 -1.1104 3.53534 4.48507 3.75855
71 1 -1.1104 3.90656 7.30404 1.00288
58 1 -1.1104 0.610703 7.3311 3.65485
5 1 -1.1104 6.61305 1.84804 1.00607
238 1 -1.1104 3.44824 7.2371 6.83892
69 1 -1.1104 6.31645 4.44964 3.75169
59 1 -1.1104 6.30549 7.37547 3.82234
63 1 -1.1104 6.63587 4.56215 0.927386
57 1 -1.1104 6.65232 7.25015 1.03643
390 2 2.2208 10.5115 -5.25693 -0.438606
232 2 2.2208 10.5627 -5.29092 11.1318
9 1 -1.1104 6.44354 1.5607 3.75379
33 1 -1.1104 12.0428 1.569 0.85832
35 1 -1.1104 12.2289 1.99756 3.48295
38 2 2.2208 10.5951 3.18625 2.33562
41 1 -1.1104 9.28531 1.58516 1.06697
44 1 -1.1104 9.41573 1.81038 3.81224
46 2 2.2208 7.7986 2.95287 5.00112
84 2 2.2208 10.5935 6.08079 5.13923
86 1 -1.1104 12.2471 7.45932 0.830547
88 1 -1.1104 12.0177 4.76672 1.16319
92 1 -1.1104 12.0945 4.7692 3.77547
95 2 2.2208 7.78588 6.10071 2.50033
97 1 -1.1104 8.94332 7.56174 3.81939
99 1 -1.1104 9.46639 4.56076 1.05538
102 1 -1.1104 9.18472 4.6354 3.77623
87 1 -1.1104 12.0519 7.67804 3.86554
94 1 -1.1104 9.42388 7.37321 1.18
375 2 2.2208 13.5451 20.0809 -0.420668
165 2 2.2208 13.4614 17.0961 2.48282
267 1 -1.1104 9.25638 7.29344 6.74752
340 2 2.2208 13.5016 11.6264 8.05458
55 2 2.2208 4.97269 11.5019 5.24127
61 1 -1.1104 1.08374 10.3153 0.935559
66 2 2.2208 5.06055 8.82036 2.44385
68 1 -1.1104 0.696296 10.0311 3.78609
73 2 2.2208 2.17795 11.5389 2.60402
75 2 2.2208 1.97154 8.63221 5.1424
77 1 -1.1104 3.68578 10.2516 1.05256
80 1 -1.1104 3.59297 10.197 3.78362
107 1 -1.1104 0.797203 12.9148 1.00641
113 1 -1.1104 0.746052 12.8969 4.1166
123 1 -1.1104 3.66691 13.07 0.829966
128 1 -1.1104 3.66461 13.0226 3.69378
62 1 -1.1104 0.767876 10.0622 6.80081
64 1 -1.1104 6.67374 10.2874 0.816692
115 1 -1.1104 6.60665 13.0048 3.70048
110 1 -1.1104 6.28118 13.0767 0.945333
392 2 2.2208 13.5225 2.9852 -0.287264
399 2 2.2208 7.95464 8.79246 -0.414243
49 2 2.2208 13.4371 0.356222 2.47398
381 2 2.2208 5.07027 0.41042 -0.297752
70 1 -1.1104 6.45388 10.4164 3.65423
85 2 2.2208 10.6177 11.4852 5.25553
89 1 -1.1104 12.1255 10.3536 1.04152
91 2 2.2208 10.782 8.84118 2.34178
93 1 -1.1104 12.0031 10.5595 3.99251
96 2 2.2208 7.946 11.6266 2.27657
98 2 2.2208 7.81911 8.88923 5.25521
100 1 -1.1104 9.39909 10.2358 1.05988
103 1 -1.1104 9.30706 10.097 3.78961
142 1 -1.1104 11.913 13.1233 0.9287
146 1 -1.1104 12.1058 13.196 3.60463
153 1 -1.1104 9.17287 13.0492 0.883626
158 1 -1.1104 9.27386 12.9241 3.87646
327 1 -1.1104 12.2974 18.5595 9.32408
394 2 2.2208 2.4329 8.81919 -0.354119
333 2 2.2208 13.6713 14.3084 10.8745
130 2 2.2208 2.11003 14.4947 5.14346
119 2 2.2208 5.08935 14.4835 2.22315
106 2 2.2208 5.03941 17.3065 5.11249
109 1 -1.1104 0.673616 18.741 1.08324
114 1 -1.1104 0.779374 18.6174 3.75638
116 1 -1.1104 0.794279 15.8758 0.961358
120 2 2.2208 5.0875 20.0569 2.34482
121 1 -1.1104 0.897449 15.8023 3.86698
125 1 -1.1104 3.48209 18.8114 0.950475
127 2 2.2208 2.25981 17.4159 2.3652
129 1 -1.1104 3.50662 18.6313 3.82217
131 2 2.2208 2.09579 20.0347 5.19641
132 1 -1.1104 3.51651 15.9758 0.794336
134 1 -1.1104 3.7451 15.8755 3.53084
126 1 -1.1104 3.44667 18.8496 6.81776
140 1 -1.1104 6.51736 15.785 0.812245
383 2 2.2208 2.11316 3.23179 -0.386919
336 2 2.2208 13.4179 19.9176 5.22781
133 1 -1.1104 3.46975 16.1157 6.31566
139 1 -1.1104 6.06442 18.5041 3.58678
337 2 2.2208 13.4272 14.3562 5.16147
306 1 -1.1104 6.73037 15.8248 12.1002
334 2 2.2208 13.4961 3.1495 5.02615
335 2 2.2208 13.4453 8.99204 5.22172
138 1 -1.1104 6.23375 18.5512 0.805498
122 1 -1.1104 6.43028 15.7487 3.77287
160 2 2.2208 7.91327 14.4206 5.06241
150 2 2.2208 10.6203 14.5592 2.42401
141 2 2.2208 10.6496 17.1178 5.05618
144 1 -1.1104 12.0925 18.8334 0.929654
147 1 -1.1104 11.7077 18.6179 3.80172
148 1 -1.1104 12.001 15.9859 1.02015
151 2 2.2208 10.7388 20.0759 2.28602
152 1 -1.1104 12.0739 15.9425 4.02444
155 1 -1.1104 9.24009 18.6106 0.70588
157 2 2.2208 7.5187 17.2062 2.28332
159 1 -1.1104 8.83636 18.6463 3.645
161 2 2.2208 7.93077 20.1008 5.24996
162 1 -1.1104 9.20898 15.8954 0.972923
164 1 -1.1104 9.26196 15.8136 3.80634
149 1 -1.1104 11.851 15.8195 6.7007
156 1 -1.1104 9.50053 18.4802 6.51626
296 1 -1.1104 6.2808 18.3974 12.1647
315 1 -1.1104 9.32691 15.7406 12.1167
397 2 2.2208 -0.415266 5.98716 -0.339993
104 2 2.2208 13.4083 11.8228 2.38017
168 1 -1.1104 6.51654 -3.94972 6.75557
166 1 -1.1104 0.75479 -3.97209 6.81773
175 2 2.2208 5.09825 0.420606 10.7789
176 1 -1.1104 0.862262 -3.81956 12.3824
180 1 -1.1104 0.903937 -4.01698 9.49708
184 1 -1.1104 0.78819 -1.1962 12.2239
186 2 2.2208 5.03552 -2.52306 8.16051
188 1 -1.1104 0.667889 -0.92766 9.68075
190 1 -1.1104 3.57591 -4.04419 12.3462
192 2 2.2208 2.19171 0.376034 8.20945
193 1 -1.1104 3.60175 -3.92824 9.64998
195 2 2.2208 2.21915 -2.58022 10.8532
197 1 -1.1104 3.5701 -1.18485 12.1941
198 1 -1.1104 3.65858 -1.14966 9.49316
189 1 -1.1104 6.294 -1.1452 9.64783
171 1 -1.1104 6.36212 -1.11609 6.92449
178 1 -1.1104 6.35487 -3.8022 12.5049
185 1 -1.1104 6.423 -1.07032 12.3594
332 2 2.2208 13.5124 17.035 7.98014
105 2 2.2208 13.5556 6.09519 2.2921
395 2 2.2208 5.02743 11.7591 -0.457321
205 1 -1.1104 12.0208 -3.80715 6.73884
207 1 -1.1104 12.3279 -1.01778 6.61052
182 1 -1.1104 6.21541 -3.7767 9.65787
371 2 2.2208 5.07243 14.7774 13.5457
210 1 -1.1104 9.36073 -0.995784 6.56173
211 2 2.2208 10.7242 0.1588 10.8875
212 1 -1.1104 12.1676 -3.86194 12.4295
214 1 -1.1104 11.949 -4.10381 9.67916
216 1 -1.1104 12.2568 -1.24179 12.3224
217 2 2.2208 10.6535 -2.41075 8.17326
219 1 -1.1104 12.0386 -1.06678 9.35547
220 1 -1.1104 9.19071 -3.8284 12.4285
222 2 2.2208 7.81119 0.383804 8.17724
223 1 -1.1104 9.26833 -3.79905 9.67728
225 2 2.2208 7.73447 -2.49523 11.0812
227 1 -1.1104 9.20638 -1.04093 12.326
228 1 -1.1104 9.22212 -1.01936 9.45817
323 1 -1.1104 12.2846 15.756 9.45819
341 2 2.2208 13.3254 8.768 11.2335
173 1 -1.1104 3.69513 1.64119 6.70024
236 1 -1.1104 0.811605 4.47949 6.7063
234 1 -1.1104 0.594856 7.11572 6.47938
239 1 -1.1104 3.62632 4.47365 6.77922
167 1 -1.1104 1.05272 1.69906 6.58575
235 1 -1.1104 6.33558 7.2294 6.51773
177 1 -1.1104 0.755036 1.64064 12.3869
181 1 -1.1104 0.885425 1.72716 9.54821
187 2 2.2208 5.14591 3.15103 7.8781
191 1 -1.1104 3.65097 1.83352 12.3335
194 1 -1.1104 3.7511 1.84719 9.56348
196 2 2.2208 2.13619 3.09274 10.9093
240 2 2.2208 5.10463 5.90231 10.7734
246 1 -1.1104 0.610423 4.45378 12.4002
251 1 -1.1104 0.688376 4.47711 9.57167
255 1 -1.1104 3.65229 7.21614 12.5823
256 2 2.2208 2.09558 5.78877 8.24475
260 1 -1.1104 3.361 4.55647 12.3254
262 1 -1.1104 3.48764 4.498 9.50235
244 1 -1.1104 0.771498 7.26491 9.35267
242 1 -1.1104 0.788796 7.3912 12.1472
258 1 -1.1104 3.62406 7.12983 9.63557
183 1 -1.1104 6.42882 1.71063 9.36492
248 1 -1.1104 6.57869 4.50923 12.2079
245 1 -1.1104 6.60139 7.4329 9.70081
169 1 -1.1104 6.54172 1.70729 6.52475
237 1 -1.1104 6.51714 4.36442 6.41443
253 1 -1.1104 6.46037 4.4918 9.37582
380 2 2.2208 13.5334 17.1661 13.7214
269 1 -1.1104 9.33149 4.59618 6.62617
265 1 -1.1104 12.0002 7.25992 6.47399
243 1 -1.1104 6.38948 7.38642 12.4497
209 1 -1.1104 9.27658 1.88594 6.97339
266 1 -1.1104 12.0608 4.40979 6.61215
206 1 -1.1104 12.0533 1.65305 6.43803
179 1 -1.1104 6.36611 1.72573 12.0239
213 1 -1.1104 12.2044 1.56849 12.2023
215 1 -1.1104 12.0678 1.84421 9.24566
218 2 2.2208 10.7667 3.1412 8.03493
221 1 -1.1104 9.44827 1.69378 12.5519
224 1 -1.1104 9.37282 1.66865 9.7309
226 2 2.2208 7.89566 2.94487 10.8277
268 1 -1.1104 9.4748 4.57954 9.49495
271 1 -1.1104 9.45978 4.38192 12.3125
275 2 2.2208 7.97022 5.77114 8.12425
276 2 2.2208 10.806 6.00928 10.7834
278 1 -1.1104 12.014 7.32937 12.499
280 1 -1.1104 12.0151 4.56566 12.1938
283 1 -1.1104 12.1325 4.5784 9.46384
285 1 -1.1104 9.12089 7.42032 12.2451
273 1 -1.1104 9.42047 7.42742 9.65725
279 1 -1.1104 12.1569 7.59101 9.61302
339 2 2.2208 13.4448 5.84174 7.85862
50 2 2.2208 13.5161 -2.59997 5.25209
78 1 -1.1104 3.52053 10.0864 6.73379
108 1 -1.1104 0.529561 12.8246 6.74508
124 1 -1.1104 3.46829 13.0619 6.62278
111 1 -1.1104 6.53694 13.1404 6.65289
305 1 -1.1104 3.77788 12.8868 9.37395
299 1 -1.1104 0.668918 13.1671 12.2611
294 1 -1.1104 0.975354 12.9718 9.30208
241 2 2.2208 4.93493 11.7445 11.002
247 1 -1.1104 0.814964 10.1941 12.2728
250 2 2.2208 5.07081 8.78685 8.26447
252 1 -1.1104 0.723497 10.0049 9.63254
257 2 2.2208 2.1969 11.595 8.02651
259 2 2.2208 2.13038 8.63219 10.8837
261 1 -1.1104 3.63645 10.0814 12.3212
263 1 -1.1104 3.38522 9.91888 9.59377
287 1 -1.1104 3.28224 13.1143 12.2317
254 1 -1.1104 6.35493 10.3501 9.48298
290 1 -1.1104 6.58379 13.1469 9.35301
329 1 -1.1104 12.0005 18.7305 12.1732
65 1 -1.1104 6.48908 10.2458 6.46526
154 1 -1.1104 9.44983 12.7892 6.6979
90 1 -1.1104 12.1741 10.1124 6.7513
143 1 -1.1104 12.2125 12.9503 6.6279
249 1 -1.1104 6.41232 10.2604 12.3942
297 1 -1.1104 6.36977 12.9528 12.3401
101 1 -1.1104 9.4135 10.165 6.61301
330 1 -1.1104 12.1634 13.0256 12.2258
328 1 -1.1104 11.9756 12.9629 9.64788
322 1 -1.1104 9.18674 13.089 12.2647
319 1 -1.1104 9.13023 12.9747 9.23742
264 1 -1.1104 8.99459 10.0546 9.51358
270 1 -1.1104 9.25198 10.1637 12.3575
272 2 2.2208 7.65107 8.95213 10.9381
274 2 2.2208 7.84487 11.5763 8.00918
277 2 2.2208 10.5962 11.5876 10.9225
281 1 -1.1104 12.0727 10.3735 12.6026
282 2 2.2208 10.622 8.78389 8.15582
284 1 -1.1104 11.9598 10.1691 9.66469
230 2 2.2208 13.6154 -2.47987 11.0015
117 1 -1.1104 0.758144 15.7816 7.03369
302 1 -1.1104 0.827443 18.406 6.58377
321 1 -1.1104 9.3635 18.4639 12.264
326 1 -1.1104 12.4036 15.8624 12.2889
320 2 2.2208 8.03342 17.2303 7.94246
288 1 -1.1104 6.50972 18.5347 9.23179
293 2 2.2208 4.94019 20.2242 8.00996
307 1 -1.1104 0.923151 15.7704 12.3317
298 1 -1.1104 0.476443 18.4872 12.5441
286 1 -1.1104 3.46341 18.4494 12.3986
300 2 2.2208 4.97421 17.2792 10.6844
292 1 -1.1104 0.70341 15.7265 9.3753
304 1 -1.1104 3.62037 15.7346 9.26836
291 1 -1.1104 0.80729 18.5988 9.5882
295 2 2.2208 5.00496 14.4274 7.87272
301 1 -1.1104 3.80136 18.5677 9.41063
303 2 2.2208 2.327 17.2532 7.96267
310 2 2.2208 2.16769 14.6175 10.7971
309 2 2.2208 2.27955 20.1046 11.0636
308 1 -1.1104 3.66236 15.8579 12.1738
317 2 2.2208 7.98715 14.4507 10.664
324 2 2.2208 10.9948 19.7659 8.05638
318 1 -1.1104 9.39141 18.716 9.40972
331 2 2.2208 10.7572 16.9831 10.8246
325 2 2.2208 10.688 14.2847 7.9722
314 1 -1.1104 9.34343 15.9051 9.41947
112 1 -1.1104 6.43104 18.5799 6.55854
118 1 -1.1104 6.42689 15.8427 6.5074
145 1 -1.1104 12.3907 18.353 6.52091
163 1 -1.1104 9.12476 15.6465 6.51717
289 1 -1.1104 6.36615 15.8459 9.47569
316 2 2.2208 7.97312 19.8465 10.8128
352 2 2.2208 4.95362 3.24648 13.6671
391 2 2.2208 13.4302 -2.61487 -0.117418
400 2 2.2208 10.7348 11.8285 -0.204158
372 2 2.2208 10.6952 20.0008 13.6595
393 2 2.2208 5.22489 5.91468 -0.290972
389 2 2.2208 7.99326 3.2882 -0.356536
361 2 2.2208 2.26427 11.5781 13.66
405 2 2.2208 2.22606 20.1269 -0.345442
398 2 2.2208 10.7375 5.99056 -0.389498
387 2 2.2208 10.5363 0.136504 -0.352769
370 2 2.2208 13.4741 0.32394 13.5828
376 2 2.2208 8.13625 17.1749 13.6026
406 2 2.2208 5.05864 0.333395 16.6274
407 1 -1.1104 0.436209 -3.70246 17.9727
411 1 -1.1104 0.844485 -4.17419 15.2184
419 1 -1.1104 0.752515 -0.971642 17.9367
421 2 2.2208 5.09536 -2.43993 19.5276
423 1 -1.1104 0.753019 -1.32158 14.9809
427 1 -1.1104 3.3366 -3.87616 17.8881
429 2 2.2208 2.27875 0.465469 19.4259
430 1 -1.1104 3.53477 -3.8943 15.1441
434 2 2.2208 2.33936 -2.43772 16.5965
436 1 -1.1104 3.72478 -1.03361 17.7497
437 1 -1.1104 3.44862 -1.05557 15.1491
415 1 -1.1104 6.3212 -3.75017 15.3985
412 1 -1.1104 0.810227 -4.00865 20.7029
420 1 -1.1104 6.46823 -1.16107 17.9912
424 1 -1.1104 0.969763 -1.07351 20.9092
425 1 -1.1104 6.30325 -0.894386 15.0511
726 2 2.2208 13.4378 11.5608 24.9631
606 2 2.2208 13.5247 20.0765 22.0744
479 2 2.2208 13.5385 17.1694 19.3226
362 2 2.2208 13.5909 11.8473 13.8126
605 2 2.2208 13.5916 17.1641 25.1343
578 2 2.2208 13.4637 0.394309 19.3267
409 1 -1.1104 6.31028 -3.95084 18.2817
449 2 2.2208 10.8317 0.375039 16.7074
450 1 -1.1104 12.0567 -3.89711 17.7401
452 1 -1.1104 11.8927 -4.07602 15.0295
456 1 -1.1104 11.9684 -1.12649 18.0161
457 2 2.2208 10.6538 -2.60801 19.3741
459 1 -1.1104 12.1382 -1.04211 15.158
461 1 -1.1104 8.99017 -3.85697 18.2473
463 2 2.2208 7.90163 0.464517 19.3704
464 1 -1.1104 9.09536 -4.03952 15.2259
468 2 2.2208 7.95705 -2.42881 16.4401
470 1 -1.1104 9.07529 -1.07205 17.7521
471 1 -1.1104 9.25011 -1.04755 15.1072
666 2 2.2208 13.5884 -5.2801 25.1981
460 1 -1.1104 11.9278 -1.09436 20.5074
543 2 2.2208 13.6896 8.7282 16.6239
465 1 -1.1104 9.41109 -3.76866 21.0221
441 2 2.2208 2.08445 -5.22542 19.2231
369 2 2.2208 4.95229 19.9283 13.7949
580 2 2.2208 13.576 14.5028 22.271
579 2 2.2208 13.5203 3.25539 16.4396
635 1 -1.1104 12.2072 18.6078 26.3569
359 2 2.2208 2.18179 5.80061 13.8178
517 2 2.2208 13.609 11.6727 19.4912
408 1 -1.1104 0.947797 1.81614 17.9257
413 1 -1.1104 0.875506 1.53872 15.1921
422 2 2.2208 5.08849 3.3385 19.4657
428 1 -1.1104 3.8461 1.68025 18.215
432 1 -1.1104 3.69723 1.80674 15.3147
435 2 2.2208 2.37789 3.13855 16.6697
482 2 2.2208 4.98818 5.99273 16.4334
490 1 -1.1104 0.720898 4.6215 17.8985
495 1 -1.1104 0.756813 4.43409 15.3798
504 2 2.2208 2.33678 5.94176 19.336
509 1 -1.1104 3.76748 4.55642 17.8264
511 1 -1.1104 3.71525 4.57381 15.1812
484 1 -1.1104 0.851374 7.38867 18.098
506 1 -1.1104 3.75398 7.34813 15.4563
503 1 -1.1104 3.64212 7.28892 18.2304
485 1 -1.1104 6.70969 7.40359 17.911
492 1 -1.1104 6.538 4.57172 18.0441
488 1 -1.1104 6.52149 7.36165 15.1737
486 1 -1.1104 0.800304 7.27514 15.0591
487 1 -1.1104 1.01432 7.3019 20.9934
373 2 2.2208 10.8256 14.4941 13.805
672 2 2.2208 13.565 0.411974 25.0845
542 2 2.2208 13.5153 6.03237 19.3679
499 1 -1.1104 6.40002 4.8184 15.0695
410 1 -1.1104 6.6359 1.67267 17.7571
417 1 -1.1104 6.34679 1.81448 15.026
451 1 -1.1104 12.418 1.78719 17.8448
454 1 -1.1104 12.1991 1.5828 15.1848
458 2 2.2208 11.0454 3.23814 19.2218
462 1 -1.1104 9.47275 1.94488 17.9087
466 1 -1.1104 9.5026 1.58068 15.3608
469 2 2.2208 7.82482 3.16897 16.4595
518 2 2.2208 10.8386 5.81436 16.4941
520 1 -1.1104 12.2568 7.46893 18.0588
521 1 -1.1104 12.3823 7.26283 15.336
523 1 -1.1104 12.1233 4.52057 17.7042
526 1 -1.1104 12.0902 4.46955 15.0023
530 1 -1.1104 9.45195 7.48957 17.7221
531 2 2.2208 8.10238 6.20905 19.231
536 1 -1.1104 9.30709 4.78414 17.7022
538 1 -1.1104 9.27036 4.57557 15.0276
533 1 -1.1104 9.49595 7.24754 15.03
480 2 2.2208 13.6473 14.5807 16.529
638 2 2.2208 10.6759 14.4999 25.1362
355 2 2.2208 7.85936 0.426075 13.7285
515 2 2.2208 -0.416626 8.60565 19.6171
360 2 2.2208 5.09968 8.71611 13.7865
665 1 -1.1104 9.36645 18.8545 23.5
483 2 2.2208 5.19063 11.7408 16.4263
491 1 -1.1104 0.922572 9.95501 18.1841
494 2 2.2208 5.36164 8.82062 19.2579
497 1 -1.1104 0.792914 10.1236 15.124
505 2 2.2208 2.35585 11.5911 19.4048
508 2 2.2208 2.18713 8.72447 16.6835
510 1 -1.1104 3.8353 10.0659 17.9554
513 1 -1.1104 3.76396 10.4442 15.1011
546 1 -1.1104 0.763834 12.7705 18.1635
550 1 -1.1104 0.826833 13.0351 15.1356
566 1 -1.1104 3.81026 12.9551 18.0035
569 1 -1.1104 3.88126 13.112 15.0244
554 1 -1.1104 6.64149 13.1394 15.3101
378 2 2.2208 10.8804 17.2326 27.8676
354 2 2.2208 13.4402 -5.24316 13.8349
700 2 2.2208 7.9361 20.1055 22.2288
501 1 -1.1104 6.49453 10.1387 14.9033
493 1 -1.1104 6.52722 10.276 17.6253
548 1 -1.1104 6.71295 13.0982 18.0991
519 2 2.2208 10.6906 11.6669 16.5893
524 1 -1.1104 12.1228 10.2365 17.8695
525 2 2.2208 10.7838 8.8611 19.2902
528 1 -1.1104 12.047 10.1092 15.3095
532 2 2.2208 8.07652 11.7078 19.3378
535 2 2.2208 7.88593 8.88449 16.3657
537 1 -1.1104 9.25205 10.1109 18.3335
540 1 -1.1104 9.27115 10.2962 15.3375
582 1 -1.1104 12.1407 12.9344 18.0656
584 1 -1.1104 12.1965 13.0735 15.0868
593 1 -1.1104 9.29887 13.1651 17.744
596 1 -1.1104 9.47568 13.0805 14.8697
597 1 -1.1104 9.24431 13.1051 20.7849
446 2 2.2208 13.494 3.08235 22.3659
704 1 -1.1104 9.38388 15.7579 26.4342
402 2 2.2208 13.429 8.81358 27.7153
560 2 2.2208 5.15327 14.4447 19.2801
573 2 2.2208 2.45117 14.2496 16.526
545 2 2.2208 5.10876 17.2348 16.5593
547 1 -1.1104 0.901269 18.4658 18.1534
552 1 -1.1104 0.628655 18.537 15.3403
558 1 -1.1104 1.04118 15.3378 18.13
561 2 2.2208 5.0662 20.041 19.1431
562 1 -1.1104 0.685736 15.7961 15.1434
567 1 -1.1104 3.71858 18.5909 17.8288
568 2 2.2208 2.42825 17.2798 19.3245
571 1 -1.1104 3.47195 18.5905 15.1807
574 2 2.2208 2.06211 20.1361 16.548
575 1 -1.1104 3.80728 15.8676 17.8571
576 1 -1.1104 3.65465 15.7562 15.1266
572 1 -1.1104 3.68315 18.7278 20.7144
559 1 -1.1104 6.6917 15.6488 18.0167
564 1 -1.1104 6.44813 16.0169 14.8379
671 2 2.2208 13.5607 -2.58683 22.1288
377 2 2.2208 7.86532 14.4443 27.6577
699 2 2.2208 7.84677 14.5012 22.0427
349 2 2.2208 2.1527 0.24781 13.7145
473 2 2.2208 13.2764 -5.30385 19.2996
366 2 2.2208 13.5711 5.87989 13.7378
356 2 2.2208 10.7015 -2.46947 13.8116
556 1 -1.1104 6.45693 18.7134 15.1304
549 1 -1.1104 6.33565 18.5304 18.0078
589 2 2.2208 10.7509 14.4499 19.3808
600 2 2.2208 8.00667 14.5047 16.5045
581 2 2.2208 10.8859 17.1877 16.5521
583 1 -1.1104 12.299 18.4596 17.8053
586 1 -1.1104 12.0103 18.7201 15.0617
588 1 -1.1104 12.1729 15.6236 17.8842
590 2 2.2208 10.5496 19.9131 19.3618
591 1 -1.1104 12.2357 15.8451 14.9873
594 1 -1.1104 9.24998 18.5216 17.8908
595 2 2.2208 7.91303 17.2332 19.4369
598 1 -1.1104 9.35904 18.5883 15.181
601 2 2.2208 7.94508 19.9939 16.426
602 1 -1.1104 9.48291 16.0493 17.9662
603 1 -1.1104 9.42819 15.9093 15.1182
663 1 -1.1104 12.0858 15.677 26.5228
478 2 2.2208 13.5303 19.9866 16.3129
592 1 -1.1104 12.303 15.9437 20.7817
587 1 -1.1104 12.0239 18.5632 20.6044
701 1 -1.1104 9.34231 16.0415 23.4529
438 1 -1.1104 3.67138 -0.870632 20.66
431 1 -1.1104 3.65848 -3.84474 20.547
732 1 -1.1104 6.58969 15.7491 26.36
416 1 -1.1104 6.54096 -3.87846 21.1859
609 2 2.2208 5.05432 0.342045 22.2042
610 1 -1.1104 0.970227 -3.91852 23.7793
614 1 -1.1104 0.820689 -4.03274 26.6152
618 1 -1.1104 0.668078 -1.29873 23.594
620 2 2.2208 4.91307 -2.48126 25.2517
622 1 -1.1104 0.684255 -0.999496 26.5097
624 1 -1.1104 3.63123 -3.94902 23.6032
626 2 2.2208 2.19371 0.258668 25.0231
627 1 -1.1104 3.64391 -3.9193 26.5091
629 2 2.2208 2.34109 -2.45915 22.1856
631 1 -1.1104 3.49254 -1.06196 23.7037
632 1 -1.1104 3.60363 -1.14353 26.6406
612 1 -1.1104 6.363 -3.87714 23.946
426 1 -1.1104 6.35135 -0.954498 21.0586
619 1 -1.1104 6.54558 -1.23665 23.5775
616 1 -1.1104 6.29953 -4.06179 26.5983
623 1 -1.1104 6.40159 -0.976561 26.4454
747 1 -1.1104 6.5416 16.0537 23.5929
368 2 2.2208 1.92059 17.2665 13.7835
477 2 2.2208 13.356 -2.43697 16.5771
472 1 -1.1104 9.05963 -0.97941 20.5702
453 1 -1.1104 12.0488 -3.87839 20.7913
645 2 2.2208 10.4296 0.356681 21.9795
646 1 -1.1104 12.0356 -3.78403 23.5766
648 1 -1.1104 12.1515 -3.88158 26.3726
650 1 -1.1104 12.1792 -0.984724 23.591
651 2 2.2208 10.7255 -2.32934 25.019
653 1 -1.1104 12.1603 -1.1441 26.4623
654 1 -1.1104 9.26001 -3.83634 23.5996
656 2 2.2208 7.96282 0.517183 25.0422
657 1 -1.1104 9.36476 -3.85214 26.4458
659 2 2.2208 7.98755 -2.37976 22.2723
661 1 -1.1104 9.38146 -1.15533 23.4456
662 1 -1.1104 9.08415 -1.04662 26.2589
728 2 2.2208 13.5109 5.89762 25.1121
633 1 -1.1104 12.4582 18.3253 23.4352
507 1 -1.1104 3.74129 7.47485 20.7764
512 1 -1.1104 3.39289 4.4515 20.8398
496 1 -1.1104 0.740437 4.53565 20.9225
414 1 -1.1104 0.867537 1.7516 20.8205
500 1 -1.1104 6.50461 4.84912 20.7588
433 1 -1.1104 3.57671 1.77889 20.956
611 1 -1.1104 0.785342 1.5225 23.6413
615 1 -1.1104 0.707472 1.73016 26.2809
621 2 2.2208 5.31501 3.16187 25.0081
625 1 -1.1104 3.87751 1.55261 23.7875
628 1 -1.1104 3.75875 1.74374 26.5238
630 2 2.2208 2.18435 2.95057 22.3103
674 2 2.2208 4.99491 5.99306 22.1668
678 1 -1.1104 0.932114 7.29253 26.5848
680 1 -1.1104 0.70787 4.46261 23.6121
685 1 -1.1104 0.771331 4.36612 26.4658
690 2 2.2208 2.36339 6.05746 24.9626
692 1 -1.1104 3.57581 7.35703 26.528
694 1 -1.1104 3.56173 4.69007 23.2688
696 1 -1.1104 3.68076 4.56494 26.2063
689 1 -1.1104 3.62897 7.50608 23.9029
676 1 -1.1104 0.833925 7.30429 23.8104
613 1 -1.1104 6.60575 1.75739 23.5899
682 1 -1.1104 6.60641 4.52098 23.4265
617 1 -1.1104 6.73063 1.93384 26.5929
679 1 -1.1104 6.72897 7.52801 26.5317
687 1 -1.1104 6.55844 4.57849 26.2311
489 1 -1.1104 6.57793 7.68258 20.7245
539 1 -1.1104 9.37354 4.64125 20.6108
522 1 -1.1104 12.1808 7.73115 20.8306
534 1 -1.1104 9.42967 7.42105 20.7416
455 1 -1.1104 12.142 1.84972 20.7526
467 1 -1.1104 9.1557 1.93133 20.7606
418 1 -1.1104 6.4976 1.8415 20.5725
677 1 -1.1104 6.50157 7.38161 23.4891
527 1 -1.1104 12.1531 4.67238 20.7547
647 1 -1.1104 11.8018 1.81955 23.5501
649 1 -1.1104 12.1132 1.88598 26.3106
652 2 2.2208 10.7955 3.25032 25.1416
655 1 -1.1104 9.18961 1.67438 23.5736
658 1 -1.1104 9.40192 1.86186 26.4123
660 2 2.2208 7.95056 3.20673 22.0859
706 1 -1.1104 9.31109 4.63092 26.5965
708 1 -1.1104 9.34484 4.62403 23.5968
712 2 2.2208 7.8143 6.08142 25.094
713 2 2.2208 10.867 6.0147 22.2223
715 1 -1.1104 12.2623 7.28664 23.7468
717 1 -1.1104 12.3061 4.57468 23.686
720 1 -1.1104 12.1813 4.63022 26.4805
722 1 -1.1104 9.5659 7.51225 23.4732
710 1 -1.1104 9.21668 7.54061 26.2922
716 1 -1.1104 11.9783 7.28873 26.3397
636 1 -1.1104 12.0017 15.7324 23.573
348 2 2.2208 4.85165 -2.4491 13.7417
514 1 -1.1104 3.54314 10.2252 21.1363
570 1 -1.1104 3.66563 13.1503 20.7825
551 1 -1.1104 0.902355 13.0917 21.0336
498 1 -1.1104 0.727851 10.1952 20.8192
675 2 2.2208 5.07233 11.7181 22.3524
681 1 -1.1104 0.713777 10.0638 23.5695
684 2 2.2208 5.06341 8.8728 24.9626
686 1 -1.1104 0.824199 10.2894 26.2801
691 2 2.2208 2.23443 11.6468 25.0417
693 2 2.2208 2.32448 8.74133 22.4151
695 1 -1.1104 3.63533 10.2893 23.7735
697 1 -1.1104 3.66131 10.2596 26.4901
731 1 -1.1104 3.54717 13.1443 23.5235
735 1 -1.1104 0.77387 13.1638 26.4223
741 1 -1.1104 0.794161 12.8422 23.8917
746 1 -1.1104 3.6805 13.1769 26.3279
683 1 -1.1104 6.49487 10.3865 23.5249
502 1 -1.1104 6.70345 10.3724 20.8089
555 1 -1.1104 6.53634 13.0047 20.8724
529 1 -1.1104 12.1834 10.4997 20.9181
541 1 -1.1104 9.36943 10.3565 20.966
585 1 -1.1104 11.9903 13.129 20.7692
688 1 -1.1104 6.27091 10.2751 26.3186
730 1 -1.1104 6.48453 12.9446 26.3274
739 1 -1.1104 6.4061 13.2334 23.488
608 1 -1.1104 12.0472 13.0102 23.7358
673 1 -1.1104 9.24987 13.1999 26.4378
664 1 -1.1104 9.34449 13.2116 23.6806
705 1 -1.1104 9.09276 10.3724 26.707
707 1 -1.1104 9.25607 10.1236 23.9638
709 2 2.2208 7.93894 8.80639 22.1506
711 2 2.2208 7.82104 11.6801 25.1404
714 2 2.2208 10.6878 11.6304 22.1971
718 1 -1.1104 12.0587 10.1252 23.4977
719 2 2.2208 10.6853 8.81699 24.8782
721 1 -1.1104 12.0195 10.2681 26.3133
634 1 -1.1104 12.2099 12.9617 26.4225
667 2 2.2208 8.05103 17.2232 24.8862
698 1 -1.1104 9.38885 18.4919 26.3204
577 1 -1.1104 3.73602 15.9618 20.713
553 1 -1.1104 0.745632 18.5675 20.7688
563 1 -1.1104 0.769953 15.7404 20.8553
557 1 -1.1104 6.49776 18.6844 20.878
670 1 -1.1104 6.80132 18.5733 26.1857
727 2 2.2208 2.28362 14.6416 22.1543
736 1 -1.1104 6.48374 18.7722 23.494
738 2 2.2208 4.97867 14.5291 25.0086
750 2 2.2208 2.22022 20.124 22.0803
749 1 -1.1104 3.59571 15.9716 23.4473
748 1 -1.1104 0.714415 15.7729 23.5096
729 1 -1.1104 3.58301 18.6559 23.6851
733 1 -1.1104 0.888143 18.6501 26.6985
734 1 -1.1104 0.853489 15.9649 26.3443
737 2 2.2208 5.16715 20.0011 25.0394
740 1 -1.1104 0.881776 18.7335 23.6716
742 2 2.2208 5.18709 17.3303 22.2552
743 1 -1.1104 3.60132 18.9666 26.2987
744 2 2.2208 2.20889 17.3732 24.9405
745 1 -1.1104 3.63405 15.8954 26.1938
607 2 2.2208 10.8429 17.2639 22.1589
641 2 2.2208 10.7474 19.9209 25.0132
565 1 -1.1104 6.48275 15.749 20.7879
604 1 -1.1104 9.49583 15.8788 20.6297
599 1 -1.1104 9.12439 18.6328 20.8119
404 2 2.2208 4.98605 17.1361 27.6961
379 2 2.2208 7.93275 20.001 27.6099
668 2 2.2208 10.7753 -5.2551 22.3823
388 2 2.2208 7.77824 -2.4219 27.6903
374 2 2.2208 13.6013 14.2624 27.7703
357 2 2.2208 10.7824 3.03936 13.8846
445 2 2.2208 13.6784 8.7592 22.2348
669 2 2.2208 7.84836 -5.22464 25.0954
364 2 2.2208 10.6574 8.94751 13.8886
382 2 2.2208 2.31669 -2.50468 27.8204
403 2 2.2208 2.1773 14.6125 27.7303
751 2 2.2208 5.1966 22.8395 5.25643
753 1 -1.1104 0.739136 24.4389 1.06173
754 1 -1.1104 0.933053 24.3668 3.87624
755 1 -1.1104 0.904911 21.732 1.08021
757 2 2.2208 4.94076 25.5434 2.4453
758 1 -1.1104 0.847142 21.5493 3.82757
760 1 -1.1104 3.82825 24.1039 1.30469
761 2 2.2208 2.24937 22.8162 2.40707
763 1 -1.1104 3.52528 24.126 4.24382
764 2 2.2208 2.29367 25.5886 5.33821
765 1 -1.1104 3.70137 21.4519 1.14566
767 1 -1.1104 3.57045 21.3252 4.06607
772 1 -1.1104 6.49005 24.2023 1.10208
898 1 -1.1104 3.64855 24.4243 6.94186
759 1 -1.1104 0.850521 26.9976 4.03696
756 1 -1.1104 0.670371 27.2709 1.23246
766 1 -1.1104 3.77065 26.9181 1.02161
768 1 -1.1104 3.65882 27.242 3.91445
894 1 -1.1104 0.984486 21.271 6.83095
774 1 -1.1104 6.49078 21.4617 0.898314
777 1 -1.1104 6.29169 27.0008 3.6576
900 1 -1.1104 3.82868 27.2501 7.06951
776 1 -1.1104 6.47642 21.4122 3.93869
1091 2 2.2208 5.23719 36.8467 13.6302
895 1 -1.1104 0.986519 27.1306 6.74112
891 2 2.2208 13.5981 39.7058 2.33674
773 1 -1.1104 6.49124 24.3181 3.86106
778 2 2.2208 10.6128 22.7439 5.41903
780 1 -1.1104 12.255 24.216 0.96417
781 1 -1.1104 12.0409 24.174 3.91768
782 1 -1.1104 12.114 21.4972 0.862735
784 2 2.2208 10.6392 25.5928 2.39717
785 1 -1.1104 12.0029 21.318 3.80798
787 1 -1.1104 9.35137 24.0405 0.885887
788 2 2.2208 7.88564 22.8418 2.38912
790 1 -1.1104 9.20869 24.1444 3.9206
791 2 2.2208 7.81816 25.4564 5.43328
792 1 -1.1104 9.1707 21.1643 0.762913
794 1 -1.1104 9.18132 21.372 3.76175
793 1 -1.1104 9.51211 27.2088 0.941115
926 1 -1.1104 12.275 21.4 6.56722
896 1 -1.1104 6.4032 21.3092 6.6194
928 1 -1.1104 9.20574 23.9748 6.62237
929 1 -1.1104 9.49893 21.271 6.67507
925 1 -1.1104 12.1179 24.0136 6.63398
927 1 -1.1104 12.0161 26.9984 6.42937
1017 1 -1.1104 6.62785 46.6521 12.1801
1103 2 2.2208 2.71432 45.4698 13.4948
1040 2 2.2208 -0.280156 42.5032 7.80236
752 2 2.2208 5.02899 28.5273 5.23649
762 2 2.2208 2.27169 28.5922 2.56522
800 1 -1.1104 0.857585 30.0484 1.17391
803 1 -1.1104 0.898127 29.854 4.09444
806 1 -1.1104 0.842778 32.916 1.01649
807 2 2.2208 5.00978 31.1115 2.5641
809 1 -1.1104 0.59818 32.6993 3.85515
811 1 -1.1104 3.73752 29.6454 1.18324
814 1 -1.1104 3.60629 29.9488 4.02525
816 2 2.2208 2.27842 31.2321 5.43876
818 1 -1.1104 4.01377 32.8188 1.33946
819 1 -1.1104 3.4659 32.6285 4.0966
824 1 -1.1104 6.36855 29.7756 4.05476
949 1 -1.1104 0.797516 29.9055 6.82107
810 1 -1.1104 6.28792 32.4182 3.93486
796 2 2.2208 13.5456 22.943 2.4689
1066 2 2.2208 13.7272 42.7369 10.709
953 1 -1.1104 0.94414 32.7873 6.6379
951 1 -1.1104 6.5394 29.7084 6.82187
1098 2 2.2208 -0.40252 42.4593 13.3712
775 1 -1.1104 6.67646 26.9975 0.906815
786 1 -1.1104 11.7802 27.0382 3.83266
783 1 -1.1104 12.1889 26.9577 0.934263
795 1 -1.1104 9.00217 26.878 3.92294
823 1 -1.1104 6.68406 29.7856 0.968995
825 1 -1.1104 6.92343 32.4026 1.32094
779 2 2.2208 10.4192 28.371 5.16031
789 2 2.2208 7.78687 28.4047 2.32753
827 1 -1.1104 12.2253 29.6484 0.802047
829 1 -1.1104 12.0529 29.8902 3.63958
831 1 -1.1104 12.1977 32.4887 1.01356
832 2 2.2208 10.7945 31.3007 2.26021
834 1 -1.1104 12.4164 32.5807 3.74417
835 1 -1.1104 9.31495 29.8492 0.938973
838 1 -1.1104 9.05519 29.7627 3.80519
840 2 2.2208 7.98656 31.1538 5.31103
842 1 -1.1104 9.56695 32.7376 1.00645
843 1 -1.1104 9.26569 32.6802 3.94724
985 1 -1.1104 12.1655 32.7112 6.57145
986 1 -1.1104 9.43512 29.6236 6.85975
983 1 -1.1104 12.1182 29.7132 6.60951
1108 2 2.2208 10.8266 42.6378 13.6289
1077 2 2.2208 13.5883 36.7185 10.7285
813 2 2.2208 2.3431 34.0756 2.37402
799 2 2.2208 5.13847 34.047 5.28766
801 1 -1.1104 0.819106 35.6093 1.10098
804 1 -1.1104 0.834184 35.379 3.97809
808 2 2.2208 5.16734 36.7174 2.52113
812 1 -1.1104 3.73349 35.4683 1.04751
815 1 -1.1104 3.77229 35.5594 4.01684
817 2 2.2208 2.29537 36.9135 5.15929
845 2 2.2208 5.06326 39.6296 5.29316
851 1 -1.1104 0.855025 38.2666 1.30253