ITEM: TIMESTEP
80000
ITEM: NUMBER OF ATOMS
17700
ITEM: BOX BOUNDS pp pp pp
-4.5249069419962062e-01 2.7792490694199351e+01
-5.3471769060890546e+00 3.3342717690607850e+02
-4.4724185657388771e-01 2.7787241856575182e+01
ITEM: ATOMS id type q x y z
1 2 2.2208 5.27837 0.190332 5.10803
2 1 -1.1104 0.535143 -4.15405 1.14217
6 1 -1.1104 0.958439 -3.93212 4.02031
10 1 -1.1104 0.998204 -1.22321 0.971778
12 2 2.2208 5.16421 -2.57503 2.42578
14 1 -1.1104 1.05044 -1.24828 3.69914
16 1 -1.1104 3.7408 -4.0569 1.05965
18 2 2.2208 2.38178 0.291042 2.43421
19 1 -1.1104 3.81657 -4.07283 3.77942
21 2 2.2208 2.39097 -2.7296 5.27363
23 1 -1.1104 3.4919 -1.16144 0.949649
24 1 -1.1104 3.85907 -1.25596 3.84208
170 1 -1.1104 0.839972 -1.35492 6.55276
11 1 -1.1104 6.37366 -1.19845 0.936254
174 1 -1.1104 3.62661 -1.11635 6.48552
171 1 -1.1104 6.34853 -1.13801 6.72437
26 2 2.2208 -0.408044 0.0658685 5.31311
332 2 2.2208 13.6669 17.1041 8.16052
166 1 -1.1104 0.837398 -4.06257 6.57985
8 1 -1.1104 6.72923 -3.94757 3.94632
15 1 -1.1104 6.70736 -1.09839 3.64282
4 1 -1.1104 6.67852 -3.86602 0.841723
31 2 2.2208 10.8439 0.237423 5.04842
32 1 -1.1104 12.1735 -4.12976 0.80339
34 1 -1.1104 12.2734 -3.93378 3.56162
36 1 -1.1104 12.3155 -1.06761 0.879851
37 2 2.2208 11.0226 -2.37227 2.3859
39 1 -1.1104 12.3295 -1.04672 3.80978
40 1 -1.1104 9.33775 -4.20525 1.06909
42 2 2.2208 7.88517 0.0648288 2.13644
43 1 -1.1104 9.5151 -3.94333 3.75398
45 2 2.2208 7.94274 -2.6095 5.28132
47 1 -1.1104 9.53226 -1.42002 0.946023
48 1 -1.1104 9.59511 -1.00006 3.70349
210 1 -1.1104 9.32843 -1.19691 6.44248
202 2 2.2208 2.22659 -5.28507 8.07653
168 1 -1.1104 6.53061 -4.09765 6.81545
205 1 -1.1104 12.0662 -3.84758 6.54968
208 1 -1.1104 9.44283 -4.02719 6.5713
3 1 -1.1104 0.862298 1.46259 1.00107
7 1 -1.1104 0.987816 1.52543 3.72281
13 2 2.2208 5.18623 3.11722 2.24381
17 1 -1.1104 3.70683 1.69265 0.752063
20 1 -1.1104 3.7684 1.61902 3.83001
22 2 2.2208 2.43089 3.09774 5.01281
54 2 2.2208 5.21821 6.10804 5.38557
60 1 -1.1104 0.893122 4.36352 0.928619
67 1 -1.1104 0.970196 4.44708 3.45184
72 2 2.2208 2.30934 6.09809 2.2962
74 1 -1.1104 3.70942 7.35176 3.99179
76 1 -1.1104 3.76057 4.59335 1.04256
79 1 -1.1104 3.72762 4.59662 3.91977
71 1 -1.1104 3.62478 7.42474 0.800626
56 1 -1.1104 0.837984 7.49669 1.03179
239 1 -1.1104 3.74112 4.7536 6.60433
238 1 -1.1104 3.83293 7.43404 6.6376
5 1 -1.1104 6.37432 1.696 0.912052
57 1 -1.1104 6.62824 7.61502 0.930409
69 1 -1.1104 6.60394 4.54486 3.76302
169 1 -1.1104 6.47559 1.54161 6.3026
234 1 -1.1104 0.728065 7.22634 6.57457
173 1 -1.1104 3.90317 1.78946 6.41114
167 1 -1.1104 1.16196 1.63533 6.41959
63 1 -1.1104 6.5348 4.63139 1.10843
235 1 -1.1104 6.47105 7.38236 6.74263
58 1 -1.1104 0.765833 7.50425 3.77488
59 1 -1.1104 6.45439 7.44088 3.70783
9 1 -1.1104 6.48817 1.66612 3.43533
33 1 -1.1104 11.9951 1.69815 0.845765
35 1 -1.1104 12.1256 1.61869 3.80878
38 2 2.2208 10.681 3.02208 2.19778
41 1 -1.1104 9.24357 1.43002 0.721416
44 1 -1.1104 9.03781 1.65723 3.64386
46 2 2.2208 8.03155 3.07401 4.92869
84 2 2.2208 10.9014 5.87018 5.27473
88 1 -1.1104 12.3891 4.39913 1.17387
92 1 -1.1104 12.1062 4.39869 4.00284
95 2 2.2208 7.81508 5.95548 2.38426
97 1 -1.1104 9.2324 7.14252 4.0407
99 1 -1.1104 9.39917 4.19931 0.839081
102 1 -1.1104 9.41287 4.58109 3.7121
87 1 -1.1104 12.1993 7.36096 3.89161
94 1 -1.1104 9.3307 7.0879 0.981163
86 1 -1.1104 12.1827 7.01201 0.941661
237 1 -1.1104 6.51749 4.49956 6.48254
265 1 -1.1104 12.1043 7.43322 6.5588
266 1 -1.1104 12.2941 4.40456 6.77617
206 1 -1.1104 12.1087 1.54569 6.50709
209 1 -1.1104 9.22191 1.5719 6.40878
267 1 -1.1104 9.25925 7.53308 6.83462
269 1 -1.1104 9.31928 4.4511 6.63863
27 2 2.2208 -0.295598 3.00714 2.47844
55 2 2.2208 4.99992 11.328 5.16427
61 1 -1.1104 0.719732 10.3517 1.15627
66 2 2.2208 5.00832 8.68659 2.32348
68 1 -1.1104 0.927179 10.5101 3.82534
73 2 2.2208 2.19524 11.8282 2.53058
75 2 2.2208 2.33007 8.84139 5.04824
77 1 -1.1104 3.63257 10.2118 0.958871
80 1 -1.1104 3.67508 10.1841 3.88517
107 1 -1.1104 0.680973 13.1266 0.922715
113 1 -1.1104 0.814755 13.2743 3.79246
123 1 -1.1104 3.69905 13.0642 1.17719
128 1 -1.1104 3.74635 13.0888 4.08839
110 1 -1.1104 6.55154 12.9947 1.02475
78 1 -1.1104 3.39243 10.0672 6.6002
108 1 -1.1104 0.805511 12.9704 6.55779
124 1 -1.1104 3.61252 12.9923 6.57045
115 1 -1.1104 6.52252 12.7881 3.73208
70 1 -1.1104 6.41749 10.104 3.74904
64 1 -1.1104 6.55106 10.2928 0.862043
111 1 -1.1104 6.34153 13.1076 6.36079
62 1 -1.1104 0.674772 9.99273 6.53271
335 2 2.2208 13.5069 8.76466 5.20693
333 2 2.2208 13.6053 14.3317 10.9721
85 2 2.2208 10.63 11.5671 5.03872
89 1 -1.1104 12.0317 9.94686 1.04358
91 2 2.2208 10.5402 8.52114 2.45524
93 1 -1.1104 11.975 10.2398 3.90893
96 2 2.2208 7.93025 11.5377 2.33105
98 2 2.2208 7.82039 8.69912 5.22273
100 1 -1.1104 9.3086 9.78096 1.07681
103 1 -1.1104 9.20037 10.0553 3.54796
142 1 -1.1104 11.8698 12.5495 1.06453
146 1 -1.1104 12.1405 12.9049 3.7962
153 1 -1.1104 9.226 12.8838 0.958821
158 1 -1.1104 9.04809 12.8202 3.72728
65 1 -1.1104 6.22709 10.2864 6.67975
143 1 -1.1104 12.0393 13.1367 6.34215
154 1 -1.1104 9.27846 13.0892 6.51707
150 2 2.2208 10.7415 14.1654 2.47799
101 1 -1.1104 9.26549 10.416 6.56984
382 2 2.2208 2.22969 -2.57936 -0.35394
28 2 2.2208 2.32806 -5.30706 2.38934
119 2 2.2208 5.13677 14.3139 2.38916
130 2 2.2208 2.18109 14.4681 5.19563
106 2 2.2208 5.08753 17.1895 5.19715
109 1 -1.1104 1.03775 18.575 0.971978
114 1 -1.1104 0.900771 18.5745 3.98997
116 1 -1.1104 0.966283 15.9183 0.92209
120 2 2.2208 5.36802 19.9829 2.49866
121 1 -1.1104 0.797395 15.8914 4.04291
125 1 -1.1104 3.83794 18.6447 1.14807
127 2 2.2208 2.43271 17.289 2.38784
129 1 -1.1104 3.80853 18.6989 3.7062
131 2 2.2208 2.43307 20.0924 5.05546
132 1 -1.1104 3.77327 15.7962 0.932638
134 1 -1.1104 3.71848 15.7844 3.76148
126 1 -1.1104 3.78772 18.673 6.55357
302 1 -1.1104 1.06918 18.8243 6.51127
117 1 -1.1104 0.929105 15.7032 6.86857
138 1 -1.1104 6.58167 18.3208 1.00715
140 1 -1.1104 6.59841 15.7457 1.25734
325 2 2.2208 10.7202 14.4451 7.80662
341 2 2.2208 13.5953 8.62624 10.7353
323 1 -1.1104 12.1879 15.6706 9.17201
49 2 2.2208 13.6518 0.245649 2.24156
139 1 -1.1104 6.52829 18.6944 3.88718
122 1 -1.1104 6.50409 15.9042 3.86525
160 2 2.2208 7.76404 14.4832 5.17239
141 2 2.2208 10.8768 17.1866 5.16439
144 1 -1.1104 12.2202 18.5442 0.888435
147 1 -1.1104 12.2527 18.6157 3.46761
148 1 -1.1104 12.2876 15.8204 0.886626
151 2 2.2208 10.7902 19.9262 2.19988
152 1 -1.1104 12.0618 15.9334 3.62462
155 1 -1.1104 9.31381 18.4956 0.856387
157 2 2.2208 7.99913 17.1084 2.38368
159 1 -1.1104 9.49691 18.4842 3.85575
161 2 2.2208 8.03021 19.9278 5.29673
162 1 -1.1104 9.37552 15.773 0.875549
164 1 -1.1104 9.2718 15.6123 3.76642
149 1 -1.1104 12.2911 15.9673 6.57208
145 1 -1.1104 12.3029 18.7023 6.43184
163 1 -1.1104 9.26806 15.7055 6.6814
331 2 2.2208 10.6939 17.0092 10.8798
349 2 2.2208 2.23508 0.211943 13.6208
172 1 -1.1104 3.7543 -4.1273 6.49887
104 2 2.2208 13.5087 11.4567 2.32839
405 2 2.2208 2.26684 19.962 -0.368355
312 2 2.2208 -0.278966 17.1281 10.8703
175 2 2.2208 4.97598 0.298503 10.6947
176 1 -1.1104 0.774971 -3.9556 12.4137
180 1 -1.1104 0.802511 -4.04748 9.56566
184 1 -1.1104 0.779426 -1.01435 12.3216
186 2 2.2208 5.18705 -2.50124 8.18592
188 1 -1.1104 0.888585 -1.35551 9.38743
190 1 -1.1104 3.36348 -3.92525 12.2705
192 2 2.2208 2.35306 0.276665 7.76468
193 1 -1.1104 3.62068 -3.91001 9.286
195 2 2.2208 2.21023 -2.55625 10.7168
197 1 -1.1104 3.53299 -1.22108 12.1756
198 1 -1.1104 3.73613 -1.28215 9.35691
178 1 -1.1104 6.24597 -3.86124 12.0478
185 1 -1.1104 6.1516 -1.30962 12.0556
182 1 -1.1104 6.65264 -3.8041 9.47977
189 1 -1.1104 6.45053 -1.0002 9.42991
394 2 2.2208 2.34418 8.88789 -0.373838
311 2 2.2208 -0.374324 20.0664 7.95449
52 2 2.2208 10.7765 -5.32022 5.10243
317 2 2.2208 7.7948 14.255 10.8284
207 1 -1.1104 12.2224 -1.05644 6.59173
211 2 2.2208 10.7741 0.22307 10.8152
212 1 -1.1104 12.0309 -3.85138 12.1799
214 1 -1.1104 12.2276 -3.96193 9.38413
216 1 -1.1104 11.9876 -1.19274 11.9933
217 2 2.2208 10.7221 -2.61955 7.87156
219 1 -1.1104 12.0176 -1.19608 9.28223
220 1 -1.1104 9.08159 -3.87922 12.1813
222 2 2.2208 7.90938 0.411929 8.05899
223 1 -1.1104 9.53161 -3.91878 9.35086
225 2 2.2208 7.79016 -2.48425 10.7873
227 1 -1.1104 9.12532 -1.09643 12.1069
228 1 -1.1104 9.07199 -1.23866 9.02448
53 2 2.2208 13.657 -5.3197 2.30615
25 2 2.2208 -0.44497 -2.49342 2.59073
236 1 -1.1104 0.576352 4.37432 6.45201
334 2 2.2208 13.4967 2.88606 5.21471
318 1 -1.1104 9.47431 18.7769 9.43782
177 1 -1.1104 0.744123 1.62572 12.2175
181 1 -1.1104 0.86616 1.56508 9.41584
187 2 2.2208 5.09263 2.96622 7.74007
191 1 -1.1104 3.59159 1.61894 12.3732
194 1 -1.1104 3.71092 1.49816 9.27248
196 2 2.2208 2.28408 2.87431 10.6971
240 2 2.2208 4.95585 5.76116 10.9395
246 1 -1.1104 0.620747 4.36085 12.1908
251 1 -1.1104 0.822326 4.28783 9.43507
256 2 2.2208 2.29387 5.83363 8.03598
260 1 -1.1104 3.39525 4.36906 12.1189
262 1 -1.1104 3.7185 4.1701 9.33185
244 1 -1.1104 0.977281 7.35463 9.28365
242 1 -1.1104 0.881406 7.34457 12.1862
258 1 -1.1104 3.57 7.35751 9.50912
243 1 -1.1104 6.53849 7.19442 12.3058
255 1 -1.1104 3.68159 7.26076 12.465
179 1 -1.1104 6.38206 1.38543 12.0772
248 1 -1.1104 6.48231 4.5637 12.2745
183 1 -1.1104 6.5639 1.65443 9.36835
245 1 -1.1104 6.35327 7.12266 9.38615
327 1 -1.1104 12.0528 18.4463 9.41092
253 1 -1.1104 6.48557 4.45166 9.42889
213 1 -1.1104 12.0044 1.65268 12.2269
215 1 -1.1104 12.1646 1.65852 9.29156
218 2 2.2208 10.5803 3.23462 8.10691
221 1 -1.1104 9.18826 1.72588 12.3688
224 1 -1.1104 9.1623 1.8137 9.3654
226 2 2.2208 7.91857 3.0545 10.9
268 1 -1.1104 9.25093 4.59545 9.56366
271 1 -1.1104 9.57013 4.64812 12.2239
275 2 2.2208 7.70857 5.8968 8.12334
276 2 2.2208 10.7981 5.9448 10.8276
280 1 -1.1104 12.3621 4.33581 12.3426
283 1 -1.1104 12.0941 4.5736 9.45909
279 1 -1.1104 12.1737 7.17881 9.31869
278 1 -1.1104 12.1941 7.03474 12.1857
273 1 -1.1104 9.33303 7.24315 9.50417
340 2 2.2208 13.5206 11.5896 8.04526
364 2 2.2208 10.7904 8.53658 13.6267
285 1 -1.1104 9.35843 7.47426 12.3466
360 2 2.2208 5.18112 8.7685 13.5561
105 2 2.2208 13.5702 5.75384 2.52308
337 2 2.2208 13.6169 14.3825 5.19265
355 2 2.2208 7.78141 0.206087 13.6451
305 1 -1.1104 3.63983 13.1486 9.32748
299 1 -1.1104 0.730764 12.8158 12.3967
294 1 -1.1104 0.835045 12.9739 9.45952
241 2 2.2208 5.04089 11.6699 10.8851
247 1 -1.1104 0.978796 10.1989 12.0441
250 2 2.2208 5.08376 8.76829 8.09675
252 1 -1.1104 0.878539 10.1632 9.28332
257 2 2.2208 2.22193 11.5655 7.9484
259 2 2.2208 2.50978 8.8089 10.8309
261 1 -1.1104 3.79913 10.1274 12.3102
263 1 -1.1104 3.63342 10.2562 9.41986
287 1 -1.1104 3.66766 12.9477 12.1017
254 1 -1.1104 6.51954 10.117 9.45516
249 1 -1.1104 6.65341 10.0166 12.1849
290 1 -1.1104 6.57067 12.961 9.32949
338 2 2.2208 13.5657 3.04673 10.9947
315 1 -1.1104 9.41821 15.593 12.2283
90 1 -1.1104 12.2502 10.013 6.75307
297 1 -1.1104 6.39271 12.8689 12.2777
330 1 -1.1104 12.2276 12.6609 12.3177
328 1 -1.1104 12.3969 12.8927 9.59187
322 1 -1.1104 9.06121 12.8724 12.275
319 1 -1.1104 9.56956 12.9548 9.22601
264 1 -1.1104 9.28512 10.2041 9.31643
270 1 -1.1104 9.42115 10.047 12.1147
272 2 2.2208 7.85688 8.72307 10.7709
274 2 2.2208 7.94221 11.6778 7.83302
277 2 2.2208 10.7255 11.5003 11.1009
281 1 -1.1104 12.2179 9.96709 12.42
282 2 2.2208 10.6264 8.75777 8.09987
284 1 -1.1104 12.0948 10.0094 9.41971
369 2 2.2208 5.1833 19.7544 13.5724
230 2 2.2208 13.4695 -2.44233 10.7386
320 2 2.2208 8.02181 17.2188 8.09282
329 1 -1.1104 12.4632 18.3389 12.1864
133 1 -1.1104 3.67544 15.8638 6.629
326 1 -1.1104 12.0917 15.5303 12.0512
136 2 2.2208 -0.289235 19.9992 2.43446
288 1 -1.1104 6.59355 18.5438 9.39393
306 1 -1.1104 6.6038 15.9918 12.4249
310 2 2.2208 2.31133 14.3474 10.9326
309 2 2.2208 2.27557 20.0027 10.7561
308 1 -1.1104 3.73575 15.541 12.4362
303 2 2.2208 2.32559 17.0996 7.85042
301 1 -1.1104 3.78832 18.4784 9.62488
295 2 2.2208 4.91633 14.4663 8.00534
293 2 2.2208 5.18909 20.0715 8.16209
307 1 -1.1104 0.759825 15.7747 12.4564
298 1 -1.1104 1.0232 18.632 12.001
286 1 -1.1104 3.84305 18.557 12.3415
300 2 2.2208 5.07984 17.1765 10.8146
292 1 -1.1104 0.832217 15.6405 9.655
304 1 -1.1104 3.49234 15.8714 9.42592
291 1 -1.1104 0.83626 18.4311 9.12629
112 1 -1.1104 6.50149 18.4591 6.67015
296 1 -1.1104 6.8381 18.6637 12.2346
359 2 2.2208 2.17889 5.95704 13.6185
229 2 2.2208 13.5366 0.251302 7.91352
321 1 -1.1104 9.52528 18.4969 12.2958
314 1 -1.1104 9.22105 15.6674 9.63519
50 2 2.2208 13.616 -2.56057 5.1653
289 1 -1.1104 6.28301 15.7506 9.57998
118 1 -1.1104 6.43041 15.72 6.62898
156 1 -1.1104 9.34204 18.4087 6.58629
324 2 2.2208 10.9785 19.9795 7.9722
316 2 2.2208 8.00703 20.0755 10.8003
165 2 2.2208 13.6006 17.1931 2.35203
392 2 2.2208 13.5381 3.09731 -0.426618
403 2 2.2208 2.40126 14.4229 -0.430411
365 2 2.2208 7.84627 11.4936 13.6219
339 2 2.2208 13.6376 5.7506 7.99488
400 2 2.2208 10.5938 11.4047 -0.280849
371 2 2.2208 5.29985 14.2943 13.5946
395 2 2.2208 5.1523 11.5691 -0.38751
380 2 2.2208 13.6489 17.0351 13.5234
353 2 2.2208 7.73376 -5.18103 13.5195
356 2 2.2208 10.5784 -2.5363 13.4083
357 2 2.2208 10.7109 3.01185 13.6465
372 2 2.2208 10.8844 19.8989 13.6649
390 2 2.2208 10.6876 -5.31097 -0.392877
366 2 2.2208 13.519 5.82531 13.6476
352 2 2.2208 4.92541 3.09343 13.5966
378 2 2.2208 10.793 17.2947 -0.428513
389 2 2.2208 7.70752 2.98972 -0.396564
406 2 2.2208 5.0849 0.3162 16.5614
407 1 -1.1104 0.946806 -4.21641 18.1426
411 1 -1.1104 1.11462 -3.93948 15.3293
419 1 -1.1104 1.11929 -1.20662 17.9614
421 2 2.2208 5.1801 -2.62548 19.3667
423 1 -1.1104 0.80531 -1.19724 15.3438
427 1 -1.1104 3.60112 -4.04204 18.0933
429 2 2.2208 2.32044 0.414981 19.3397
430 1 -1.1104 3.68985 -3.79197 15.0505
434 2 2.2208 2.30725 -2.51406 16.6342
436 1 -1.1104 3.7269 -1.0874 17.9781
437 1 -1.1104 3.64883 -1.07743 14.9424
409 1 -1.1104 6.48425 -3.93258 17.9226
420 1 -1.1104 6.48334 -1.1603 17.9674
412 1 -1.1104 1.07118 -3.93017 20.9472
475 2 2.2208 8.22047 -5.26955 19.4254
544 2 2.2208 -0.290738 3.11095 19.3425
442 2 2.2208 -0.403677 0.248301 16.5648
415 1 -1.1104 6.41474 -3.89168 15.0749
416 1 -1.1104 6.7811 -3.87059 20.764
425 1 -1.1104 6.41559 -1.21851 15.1555
449 2 2.2208 10.7183 0.189247 16.2619
450 1 -1.1104 12.1738 -4.13744 17.9782
452 1 -1.1104 12.1204 -4.06588 14.9886
456 1 -1.1104 12.2326 -1.20486 17.6818
457 2 2.2208 10.9338 -2.68864 19.2895
459 1 -1.1104 11.9469 -1.00731 14.5628
461 1 -1.1104 9.34563 -3.95915 17.8822
463 2 2.2208 8.02606 0.223935 19.1569
464 1 -1.1104 9.39474 -3.9484 14.9862
468 2 2.2208 7.85295 -2.60969 16.5818
470 1 -1.1104 9.4701 -1.21421 17.8064
471 1 -1.1104 9.18215 -1.10012 15.0071
472 1 -1.1104 9.39288 -1.00546 20.5436
460 1 -1.1104 12.093 -1.05333 20.5306
465 1 -1.1104 9.47399 -4.12218 20.7908
402 2 2.2208 13.4654 8.66702 27.793
408 1 -1.1104 0.987941 1.64977 18.006
413 1 -1.1104 1.06534 1.68461 15.1918
422 2 2.2208 5.11803 3.19806 19.3518
428 1 -1.1104 3.85122 1.54063 17.9652
432 1 -1.1104 3.74444 1.57493 15.2428
435 2 2.2208 2.48798 3.03484 16.5376
482 2 2.2208 5.00252 5.87338 16.3988
490 1 -1.1104 0.944309 4.36097 17.718
495 1 -1.1104 0.85171 4.51401 14.814
504 2 2.2208 2.21432 6.04288 19.4216
509 1 -1.1104 3.72035 4.56299 17.9248
511 1 -1.1104 3.57713 4.53841 14.8689
506 1 -1.1104 3.57616 7.21766 15.0662
503 1 -1.1104 3.50498 7.40741 18.0693
486 1 -1.1104 0.604663 7.32415 14.8821
484 1 -1.1104 0.936099 7.26394 17.8331
492 1 -1.1104 6.53658 4.52444 17.7593
499 1 -1.1104 6.59812 4.40906 14.9412
418 1 -1.1104 6.43791 1.71707 20.7449
496 1 -1.1104 1.02341 4.6 20.601
507 1 -1.1104 3.61298 7.59022 20.7197
500 1 -1.1104 6.54752 4.6474 20.533
488 1 -1.1104 6.29879 7.11934 15.035
414 1 -1.1104 0.945932 1.5939 20.8256
487 1 -1.1104 0.759494 7.59023 20.6059
410 1 -1.1104 6.64678 1.6328 18.1316
485 1 -1.1104 6.39719 7.25903 17.7806
417 1 -1.1104 6.57605 1.73368 15.1195
451 1 -1.1104 12.0703 1.73535 17.6457
454 1 -1.1104 12.3549 1.68934 15.0836
458 2 2.2208 10.7361 3.329 19.3098
462 1 -1.1104 9.40372 1.63343 17.5077
466 1 -1.1104 9.29049 1.43908 14.9545
469 2 2.2208 7.84659 3.14988 16.5675
518 2 2.2208 10.6671 5.89704 16.5996
520 1 -1.1104 12.1858 7.39482 17.8356
523 1 -1.1104 12.1786 4.73118 18.027
526 1 -1.1104 12.0591 4.68462 15.4032
531 2 2.2208 7.92792 6.01632 19.4674
536 1 -1.1104 9.28379 4.61566 18.1171
538 1 -1.1104 9.48538 4.36354 15.1693
530 1 -1.1104 9.36115 7.24661 17.8876
533 1 -1.1104 9.10609 7.05651 15.1677
521 1 -1.1104 12.1061 7.31005 15.1729
467 1 -1.1104 9.19055 1.85152 20.3735
539 1 -1.1104 9.34951 4.65889 20.9243
489 1 -1.1104 6.53728 7.53342 20.7747
534 1 -1.1104 9.37934 7.60654 20.6965
522 1 -1.1104 12.2622 7.40396 20.4864
399 2 2.2208 7.85941 8.74122 27.7685
455 1 -1.1104 12.0562 1.81091 20.57
527 1 -1.1104 12.2133 4.61332 20.9106
672 2 2.2208 13.4457 0.282213 24.8622
517 2 2.2208 13.6373 11.5599 19.4434
483 2 2.2208 5.14418 11.6223 16.4465
491 1 -1.1104 1.00659 10.3331 17.8251
494 2 2.2208 5.11991 8.92838 19.3812
497 1 -1.1104 0.782938 10.1584 15.0821
505 2 2.2208 2.25974 11.679 19.3689
508 2 2.2208 2.44822 8.76376 16.4781
510 1 -1.1104 3.59804 10.2949 17.8391
513 1 -1.1104 3.64568 10.1184 14.9223
546 1 -1.1104 0.996348 13.1277 17.9981
550 1 -1.1104 0.887417 13.0233 15.0713
566 1 -1.1104 3.68931 13.023 18.0079
569 1 -1.1104 3.74137 12.7675 15.0895
551 1 -1.1104 1.17911 13.4277 20.7014
502 1 -1.1104 6.43203 10.2521 20.9531
548 1 -1.1104 6.59491 13.0274 17.8652
554 1 -1.1104 6.79609 12.948 15.0355
514 1 -1.1104 3.68916 10.3606 20.9796
555 1 -1.1104 6.6343 13.1395 20.5511
724 2 2.2208 -0.407765 20.0206 24.8979
501 1 -1.1104 6.54691 10.1974 15.0592
493 1 -1.1104 6.39912 10.1245 17.8476
519 2 2.2208 10.8958 11.5483 16.5567
524 1 -1.1104 12.1866 10.2253 17.9844
525 2 2.2208 10.9158 8.81047 19.2465
528 1 -1.1104 12.1562 10.1355 15.4275
532 2 2.2208 8.13934 11.6204 19.1228
535 2 2.2208 7.95519 8.83496 16.4069
537 1 -1.1104 9.26771 9.98145 17.7636
540 1 -1.1104 9.08586 10.1218 14.8505
582 1 -1.1104 12.053 12.8196 18.0293
584 1 -1.1104 12.2664 13.0541 15.0796
593 1 -1.1104 9.36422 12.8703 17.5935
596 1 -1.1104 9.59771 12.948 14.8909
585 1 -1.1104 12.0904 12.9347 20.7312
597 1 -1.1104 9.34211 13.0435 20.6465
529 1 -1.1104 12.102 10.1689 20.694
541 1 -1.1104 9.41103 10.2343 20.6168
560 2 2.2208 5.23679 14.5006 19.4385
573 2 2.2208 2.41818 14.3545 16.4845
545 2 2.2208 5.26682 17.0725 16.435
547 1 -1.1104 1.27089 18.5921 17.7017
552 1 -1.1104 0.796349 18.7283 14.8359
558 1 -1.1104 0.949237 15.9613 17.8281
561 2 2.2208 5.42668 19.8799 19.2713
562 1 -1.1104 1.08729 15.8392 15.196
567 1 -1.1104 3.93914 18.375 17.7537
568 2 2.2208 2.38643 17.2549 19.2435
571 1 -1.1104 3.86918 18.3981 15.0324
574 2 2.2208 2.58477 19.9637 16.409
575 1 -1.1104 3.75912 15.7187 17.8678
576 1 -1.1104 3.95214 15.653 15.0376
577 1 -1.1104 3.72752 15.722 20.8389
553 1 -1.1104 0.979413 18.9179 20.6189
556 1 -1.1104 6.46711 18.6872 14.9676
564 1 -1.1104 6.80878 15.6431 15.1158
549 1 -1.1104 6.79372 18.2866 18.1101
559 1 -1.1104 6.61307 15.5546 17.8589
600 2 2.2208 8.13111 14.25 16.3935
589 2 2.2208 10.8185 14.3473 19.2808
581 2 2.2208 10.908 17.1195 16.4994
583 1 -1.1104 12.3256 18.4892 17.8109
586 1 -1.1104 12.2338 18.5026 14.9918
588 1 -1.1104 12.3964 15.6545 17.8096
590 2 2.2208 10.8713 20.0956 19.2051
591 1 -1.1104 12.2892 15.7186 14.832
594 1 -1.1104 9.56853 18.6091 17.5965
595 2 2.2208 8.27563 17.2023 19.2611
598 1 -1.1104 9.36111 18.6179 14.9421
601 2 2.2208 7.98708 20.1451 16.2608
602 1 -1.1104 9.59935 15.7578 18.0696
603 1 -1.1104 9.61661 15.6676 15.2653
604 1 -1.1104 9.58821 15.8304 20.7074
599 1 -1.1104 9.26734 18.7534 20.5739
347 2 2.2208 2.20281 -5.21137 13.6854
557 1 -1.1104 6.4591 18.9456 20.806
377 2 2.2208 7.88944 14.3922 27.6533
663 1 -1.1104 12.11 15.7714 26.3632
424 1 -1.1104 0.915293 -1.14115 20.6911
438 1 -1.1104 3.94806 -1.10356 20.6653
431 1 -1.1104 3.81682 -4.03365 20.6064
641 2 2.2208 10.7837 19.9707 24.638
633 1 -1.1104 12.1461 18.5192 23.3728
609 2 2.2208 5.10248 0.360669 22.0425
610 1 -1.1104 0.857014 -3.93315 23.8495
614 1 -1.1104 1.04688 -4.14989 26.5933
618 1 -1.1104 0.735044 -1.10199 23.4461
620 2 2.2208 5.07683 -2.55268 24.9065
622 1 -1.1104 0.965287 -1.30774 26.3495
624 1 -1.1104 3.73371 -3.8124 23.3548
626 2 2.2208 2.11402 0.167218 24.9754
627 1 -1.1104 3.89698 -4.12606 26.4591
629 2 2.2208 2.43896 -2.54973 22.1264
631 1 -1.1104 3.7 -1.26682 23.4732
632 1 -1.1104 3.71236 -1.30323 26.467
623 1 -1.1104 6.26536 -1.03552 26.2945
398 2 2.2208 10.7542 5.82112 27.7752
383 2 2.2208 2.37099 3.11157 27.7258
578 2 2.2208 13.6091 0.386043 19.2013
443 2 2.2208 -0.437073 -2.55311 19.2067
387 2 2.2208 10.8405 0.158688 27.7137
616 1 -1.1104 6.63142 -3.88746 26.364
426 1 -1.1104 6.79638 -1.06513 20.8034
453 1 -1.1104 12.4361 -4.05514 20.6541
619 1 -1.1104 6.28078 -1.1249 23.4954
612 1 -1.1104 6.76389 -3.85635 23.5139
645 2 2.2208 10.7512 0.472934 22.0008
646 1 -1.1104 12.2887 -3.58586 23.3325
648 1 -1.1104 12.0703 -3.82881 26.2908
650 1 -1.1104 12.0767 -0.933882 23.6743
651 2 2.2208 10.6895 -2.36172 25.024
653 1 -1.1104 12.2304 -1.03242 26.3293
654 1 -1.1104 9.46629 -3.80882 23.694
656 2 2.2208 7.95067 0.17342 24.9819
657 1 -1.1104 9.30896 -3.55465 26.2715
659 2 2.2208 7.87706 -2.38764 22.1037
661 1 -1.1104 9.24894 -1.0881 23.4893
662 1 -1.1104 9.21643 -0.984506 26.4849
361 2 2.2208 2.08883 11.4208 13.7491
698 1 -1.1104 9.31679 18.6229 26.0185
512 1 -1.1104 3.70812 4.58128 20.6086
669 2 2.2208 8.10179 -5.20041 25.0621
543 2 2.2208 13.6144 8.60616 16.5248
433 1 -1.1104 3.82046 1.75368 20.7612
611 1 -1.1104 0.912727 1.49642 23.6061
615 1 -1.1104 0.859103 1.99905 26.4761
621 2 2.2208 5.11166 2.91971 24.806
625 1 -1.1104 3.80181 1.68436 23.3402
628 1 -1.1104 3.53223 1.38011 26.1269
630 2 2.2208 2.37009 2.98327 22.1188
674 2 2.2208 5.07086 6.01495 22.1083
680 1 -1.1104 0.917932 4.56441 23.4909
685 1 -1.1104 1.03994 4.69948 26.4305
690 2 2.2208 2.21847 5.98981 24.9424
692 1 -1.1104 3.39763 7.36967 26.212
694 1 -1.1104 3.84714 4.49301 23.4479
696 1 -1.1104 3.74194 4.21814 26.269
689 1 -1.1104 3.69692 7.28725 23.6029
676 1 -1.1104 0.860074 7.35197 23.5351
678 1 -1.1104 0.722794 7.25255 26.3069
687 1 -1.1104 6.61125 4.41435 26.5045
617 1 -1.1104 6.39151 1.5358 26.4808
679 1 -1.1104 6.33363 7.41246 26.4534
542 2 2.2208 13.6627 5.83719 19.2059
636 1 -1.1104 12.1438 15.7831 23.6177
726 2 2.2208 13.6634 11.5397 25.193
638 2 2.2208 10.7089 14.3375 25.0345
640 2 2.2208 2.40311 -5.30979 25.0293
439 2 2.2208 -0.437874 -5.23931 16.6551
613 1 -1.1104 6.71233 1.63887 23.4057
682 1 -1.1104 6.62432 4.38379 23.537
677 1 -1.1104 6.42566 7.14093 23.8391
647 1 -1.1104 12.1429 1.85745 23.1564
649 1 -1.1104 12.093 1.64388 26.545
652 2 2.2208 10.6356 2.94655 24.9412
655 1 -1.1104 9.35509 1.50195 23.5009
658 1 -1.1104 9.21941 1.72051 26.2993
660 2 2.2208 7.90469 3.07422 22.1347
706 1 -1.1104 9.34558 4.57437 26.2977
708 1 -1.1104 9.34909 4.33711 23.5711
712 2 2.2208 8.12666 5.90265 24.9201
713 2 2.2208 10.7548 5.93015 22.0498
715 1 -1.1104 11.9929 7.2199 23.3557
717 1 -1.1104 12.3282 4.43571 23.6057
720 1 -1.1104 12.3167 4.25058 26.2437
710 1 -1.1104 9.31718 7.42824 26.3573
716 1 -1.1104 12.1737 7.19515 26.3747
722 1 -1.1104 9.38565 7.40288 23.6426
570 1 -1.1104 3.95644 13.011 21.0444
498 1 -1.1104 0.859264 10.4949 20.7409
675 2 2.2208 5.27422 11.5701 22.2586
681 1 -1.1104 0.791546 10.136 23.6623
684 2 2.2208 5.11561 8.75716 24.9073
686 1 -1.1104 0.829247 10.0785 26.4821
691 2 2.2208 2.17728 11.4837 25.1609
693 2 2.2208 2.00325 8.91128 22.2294
695 1 -1.1104 3.73313 10.0631 23.8624
697 1 -1.1104 3.70213 10.1185 26.643
731 1 -1.1104 3.63528 13.0538 23.7854
735 1 -1.1104 0.948669 12.8036 26.6043
741 1 -1.1104 0.870646 13.11 23.3275
746 1 -1.1104 3.81769 12.8943 26.6058
688 1 -1.1104 6.4972 10.1337 26.4788
739 1 -1.1104 6.54763 12.6702 23.5667
683 1 -1.1104 6.69481 9.90837 23.6475
479 2 2.2208 13.6164 17.2669 19.4128
730 1 -1.1104 6.48246 12.8314 26.3483
477 2 2.2208 13.5521 -2.5831 16.4965
447 2 2.2208 -0.328883 17.2142 16.4787
474 2 2.2208 10.6767 -5.19686 16.5209
580 2 2.2208 13.5127 14.2773 22.3028
393 2 2.2208 5.08578 5.87421 27.6501
579 2 2.2208 13.5485 3.17332 16.5639
608 1 -1.1104 12.054 12.9507 23.4403
673 1 -1.1104 9.26701 13.0757 26.2054
664 1 -1.1104 9.30936 12.8986 23.4701
705 1 -1.1104 9.58973 9.95023 26.4694
707 1 -1.1104 9.19061 10.1475 23.4827
709 2 2.2208 7.97737 8.6729 22.2136
711 2 2.2208 8.04005 11.322 24.9898
714 2 2.2208 10.7652 11.4981 22.0521
718 1 -1.1104 12.2498 10.103 23.4667
719 2 2.2208 10.9031 8.73234 25.0861
721 1 -1.1104 12.2126 10.1085 26.5162
634 1 -1.1104 12.0557 12.983 26.3297
445 2 2.2208 13.4679 8.63562 22.2024
607 2 2.2208 10.6997 17.1438 22.0716
700 2 2.2208 7.91639 20.1408 22.0103
572 1 -1.1104 3.72677 18.2728 20.8123
563 1 -1.1104 0.929529 16.1823 20.7858
565 1 -1.1104 6.80094 16.3071 20.7749
670 1 -1.1104 6.61572 18.3749 26.5156
606 2 2.2208 13.5929 19.9749 22.0351
736 1 -1.1104 6.60665 18.6665 23.6464
727 2 2.2208 2.46449 14.4174 22.3064
738 2 2.2208 5.20483 14.2237 25.1277
750 2 2.2208 2.46595 19.9599 22.3036
749 1 -1.1104 3.91427 15.9179 23.6386
748 1 -1.1104 1.09116 15.9221 23.554
729 1 -1.1104 3.92755 18.6411 23.7651
733 1 -1.1104 1.03024 18.651 26.2077
734 1 -1.1104 0.868093 15.7311 26.3505
737 2 2.2208 5.35415 19.9808 25.2594
740 1 -1.1104 0.958002 18.6245 23.5005
742 2 2.2208 5.20287 17.3822 22.1329
743 1 -1.1104 3.87308 18.7001 26.5032
744 2 2.2208 2.50552 17.2214 24.9538
745 1 -1.1104 3.65348 15.7535 26.5158
747 1 -1.1104 6.55405 15.7469 23.2784
732 1 -1.1104 6.50539 15.7466 26.2167
476 2 2.2208 -0.409338 20.0728 19.2441
635 1 -1.1104 12.2039 18.7772 26.2829
699 2 2.2208 7.94795 14.3873 22.0721
587 1 -1.1104 12.1376 18.6377 20.716
701 1 -1.1104 9.44908 15.8781 23.4492
379 2 2.2208 8.04001 19.9266 27.6348
592 1 -1.1104 12.2825 15.7702 20.7402
704 1 -1.1104 9.27806 16.0105 26.2818
348 2 2.2208 5.023 -2.28461 13.7629
665 1 -1.1104 9.25733 18.642 23.3675
667 2 2.2208 7.81408 17.213 24.8063
446 2 2.2208 13.6467 3.147 22.0089
391 2 2.2208 13.6187 -2.46213 27.6964
666 2 2.2208 13.4832 -5.24397 25.0863
478 2 2.2208 13.6031 19.8487 16.4511
605 2 2.2208 13.4914 17.3191 24.8312
381 2 2.2208 5.00704 0.271891 27.7219
374 2 2.2208 13.5292 14.4335 27.755
373 2 2.2208 10.9762 14.3121 13.7035
404 2 2.2208 5.17469 17.0883 27.7481
388 2 2.2208 7.90432 -2.65106 27.7791
363 2 2.2208 7.95042 5.84789 13.6792
368 2 2.2208 2.34303 17.2097 13.7612
376 2 2.2208 7.99473 17.0559 13.7476
751 2 2.2208 5.32892 22.8803 5.0849
753 1 -1.1104 0.895198 24.2827 1.11077
754 1 -1.1104 0.841939 24.1842 3.91111
755 1 -1.1104 0.978407 21.3781 0.960194
757 2 2.2208 5.26187 25.6681 2.2981
758 1 -1.1104 1.07636 21.4318 3.55587
760 1 -1.1104 3.89346 24.1473 0.984211
761 2 2.2208 2.43764 22.8355 2.40172
763 1 -1.1104 3.63943 24.1968 3.74606
764 2 2.2208 2.36618 25.5454 5.22304
765 1 -1.1104 3.98263 21.6424 0.82617
767 1 -1.1104 4.03032 21.2515 3.49642
766 1 -1.1104 3.93524 26.9404 0.844771
759 1 -1.1104 0.883951 26.8941 3.87948
898 1 -1.1104 3.81374 24.2572 6.30332
892 1 -1.1104 1.03165 24.4627 6.8236
899 1 -1.1104 3.82502 21.4693 6.35479
773 1 -1.1104 6.79885 24.2684 3.55526
768 1 -1.1104 3.67199 26.8782 3.70436
774 1 -1.1104 6.83167 21.198 1.04178
775 1 -1.1104 6.87635 27.0265 0.989318
772 1 -1.1104 6.98602 24.1118 1.05776
896 1 -1.1104 6.84084 21.4094 6.68151
777 1 -1.1104 6.51479 27.0662 3.56918
893 1 -1.1104 6.56932 24.3052 6.48012
895 1 -1.1104 0.852317 27.1838 6.72016
1112 2 2.2208 5.29391 22.9047 -0.428678
1086 2 2.2208 10.9407 25.7642 13.56
776 1 -1.1104 6.73978 21.537 3.99455
778 2 2.2208 11.012 22.5307 5.04926
780 1 -1.1104 12.4974 24.1412 0.850426
781 1 -1.1104 12.323 24.1633 3.75535
782 1 -1.1104 12.4659 21.446 0.824181
784 2 2.2208 10.9129 25.7214 2.47638
785 1 -1.1104 12.1231 21.2644 3.69746
787 1 -1.1104 9.69911 24.3404 1.04144
788 2 2.2208 8.31854 22.831 2.27291
790 1 -1.1104 9.6073 23.9552 3.73694
791 2 2.2208 8.09426 25.5248 4.91281
792 1 -1.1104 9.77065 21.3586 0.729985
794 1 -1.1104 9.34586 21.1156 3.69069
795 1 -1.1104 9.49034 27.0672 3.70436
930 1 -1.1104 9.3772 26.873 6.30487
926 1 -1.1104 12.5571 21.564 6.44571
1040 2 2.2208 -0.332741 42.5605 7.8589
783 1 -1.1104 12.2924 26.9499 0.750513
793 1 -1.1104 9.5126 26.9301 0.818717
927 1 -1.1104 12.2431 27.0495 6.38589
897 1 -1.1104 6.58775 26.9377 6.41713
929 1 -1.1104 9.70484 21.1753 6.49312
928 1 -1.1104 9.49183 24.1578 6.2107
925 1 -1.1104 12.4624 24.3485 6.50383
1091 2 2.2208 5.20137 37.0461 13.6304
756 1 -1.1104 1.02952 26.989 0.929266
752 2 2.2208 5.22414 28.4599 5.06359
762 2 2.2208 2.50942 28.3562 2.16425
800 1 -1.1104 1.06797 29.6628 1.08698
803 1 -1.1104 0.648438 29.8359 3.83739
806 1 -1.1104 1.03156 32.6761 0.568538
807 2 2.2208 5.17159 31.2082 2.40551
809 1 -1.1104 0.950502 32.5282 3.50388
811 1 -1.1104 3.92858 29.8518 0.940297
814 1 -1.1104 3.5849 29.8161 3.67559
816 2 2.2208 2.33309 31.1574 5.05954
818 1 -1.1104 3.79844 32.708 0.991237
819 1 -1.1104 3.71045 32.7556 3.60026
1048 1 -1.1104 9.53927 41.3886 9.18296
824 1 -1.1104 6.72032 29.8059 3.52008
900 1 -1.1104 3.70967 27.0083 6.83884
1108 2 2.2208 10.9764 42.8204 13.4168
1094 2 2.2208 2.32568 34.0873 13.4942
786 1 -1.1104 12.2807 27.2817 3.71694
954 1 -1.1104 6.51258 32.5597 6.43412
825 1 -1.1104 6.63928 32.7625 1.03866
823 1 -1.1104 6.68034 29.9321 0.817407
810 1 -1.1104 6.39688 32.8812 3.70857
779 2 2.2208 10.8156 28.324 5.09161
789 2 2.2208 7.98905 28.509 2.22129
827 1 -1.1104 12.3866 29.8116 0.669391
829 1 -1.1104 12.4339 29.9252 3.61879
831 1 -1.1104 12.2644 32.7278 0.793877
832 2 2.2208 10.999 31.3698 2.3589
834 1 -1.1104 12.1672 32.8243 3.51913
835 1 -1.1104 9.53638 30.0923 1.03088
838 1 -1.1104 9.54099 30.041 3.82299
840 2 2.2208 8.08081 31.3573 5.05472
842 1 -1.1104 9.56317 32.7729 0.915522
843 1 -1.1104 9.44734 32.8171 3.58734
988 1 -1.1104 9.28367 32.5391 6.38951
951 1 -1.1104 6.72027 29.6185 6.27097
986 1 -1.1104 9.4921 29.6609 6.41283
983 1 -1.1104 12.3758 29.8128 6.59274
1089 2 2.2208 4.98102 31.2989 13.4094
1106 2 2.2208 8.16552 39.8388 13.5843
813 2 2.2208 2.36523 34.1623 2.24164
799 2 2.2208 5.00625 34.1032 5.16084
801 1 -1.1104 0.893438 35.6505 0.94362