ITEM: TIMESTEP
10000
ITEM: NUMBER OF ATOMS
17640
ITEM: BOX BOUNDS pp pp pp
-3.6012652739552892e-01 2.7700126527395597e+01
-4.3346525861951388e+00 3.3241465258619439e+02
-3.6280845757338026e-01 2.7702808457573834e+01
ITEM: ATOMS id type q x y z
1 2 2.2208 5.25505 1.25448 5.22453
2 1 -1.1104 1.00778 -2.91065 1.15425
3 1 -1.1104 1.01148 2.66028 1.12818
6 1 -1.1104 1.03243 -2.9651 3.9788
7 1 -1.1104 1.21228 2.6348 3.95333
10 1 -1.1104 1.11629 -0.130248 1.09796
12 2 2.2208 5.23211 -1.62582 2.3793
13 2 2.2208 5.28996 3.98313 2.37721
14 1 -1.1104 1.07223 -0.123857 3.92124
16 1 -1.1104 3.74083 -2.99017 1.1091
17 1 -1.1104 3.92604 2.61332 0.915802
18 2 2.2208 2.38519 1.19835 2.46363
19 1 -1.1104 3.82036 -2.99408 3.83288
20 1 -1.1104 3.94284 2.62291 3.85908
21 2 2.2208 2.4691 -1.50711 5.22021
22 2 2.2208 2.3759 4.05491 5.38408
23 1 -1.1104 3.75434 -0.10858 0.978758
24 1 -1.1104 3.86583 -0.144805 3.74798
167 1 -1.1104 1.03542 2.75627 6.70991
9 1 -1.1104 6.68249 2.56082 3.83987
8 1 -1.1104 6.5188 -3.03259 3.81342
4 1 -1.1104 6.57162 -2.91276 1.04677
5 1 -1.1104 6.71289 2.72561 1.05941
635 2 2.2208 8.1336 9.59422 -0.371667
166 1 -1.1104 0.925727 -2.78905 6.77326
171 1 -1.1104 6.65125 -0.15073 6.58476
169 1 -1.1104 6.65586 2.73359 6.60862
8448 2 2.2208 2.39086 -4.38906 2.46847
8453 2 2.2208 5.10789 -4.26148 10.9833
15 1 -1.1104 6.82576 -0.151712 3.74477
11 1 -1.1104 6.69379 -0.132243 0.950888
31 2 2.2208 10.8134 1.23806 5.18206
32 1 -1.1104 12.1053 -3.08372 0.989111
33 1 -1.1104 12.1322 2.64598 1.16266
34 1 -1.1104 12.2845 -2.92571 3.72709
35 1 -1.1104 12.1904 2.71116 3.82349
36 1 -1.1104 12.2483 -0.248571 0.977891
37 2 2.2208 10.8436 -1.5665 2.49451
38 2 2.2208 10.7957 4.12435 2.46569
39 1 -1.1104 12.3454 -0.0392863 3.87114
40 1 -1.1104 9.30738 -2.93927 1.1172
41 1 -1.1104 9.44363 2.61583 0.927086
42 2 2.2208 8.05358 1.25306 2.35931
43 1 -1.1104 9.48218 -2.95069 3.72675
44 1 -1.1104 9.28998 2.66466 3.78098
45 2 2.2208 7.92866 -1.61944 5.32935
46 2 2.2208 7.92464 4.04947 5.21852
47 1 -1.1104 9.45821 -0.177974 1.04674
48 1 -1.1104 9.63944 -0.075861 3.77045
209 1 -1.1104 9.47146 2.5796 6.65055
8835 2 2.2208 5.17926 -4.3079 -0.287925
8452 2 2.2208 2.30675 -4.3265 8.12204
9152 2 2.2208 13.6183 -1.50583 5.16396
206 1 -1.1104 12.3853 2.60755 6.68264
230 2 2.2208 13.5614 -1.63431 10.8624
545 2 2.2208 2.43515 -1.52089 -0.474534
9053 2 2.2208 -0.344002 9.69959 2.56077
54 2 2.2208 5.26126 6.8287 5.28365
55 2 2.2208 5.1858 12.4718 5.31628
56 1 -1.1104 1.17473 8.18936 0.864653
58 1 -1.1104 0.986215 8.28856 3.71502
60 1 -1.1104 1.01432 5.39173 1.08042
61 1 -1.1104 1.00837 10.9939 1.21392
66 2 2.2208 5.24155 9.68365 2.47672
67 1 -1.1104 0.964073 5.53092 4.01757
68 1 -1.1104 1.26107 11.099 3.97626
71 1 -1.1104 3.89052 8.30621 1.13071
72 2 2.2208 2.37529 6.79395 2.49857
73 2 2.2208 2.73995 12.4396 2.54616
74 1 -1.1104 3.81643 8.34725 3.93139
75 2 2.2208 2.46313 9.74066 5.30011
76 1 -1.1104 3.87246 5.44709 1.08326
77 1 -1.1104 3.83782 11.0938 1.01289
79 1 -1.1104 3.72344 5.51391 3.8674
80 1 -1.1104 3.99914 11.0617 3.90904
64 1 -1.1104 6.63805 11.0792 1.01634
78 1 -1.1104 3.85167 11.1707 6.72862
239 1 -1.1104 3.86529 5.48553 6.61262
69 1 -1.1104 6.55931 5.4742 3.80604
238 1 -1.1104 3.94701 8.33203 6.74503
135 2 2.2208 -0.190995 15.1968 2.4099
311 2 2.2208 8.10609 18.114 7.90234
81 1 -1.1104 12.2391 19.6781 9.28331
665 2 2.2208 2.48191 15.263 -0.261009
229 2 2.2208 13.721 1.20514 8.24462
8525 2 2.2208 10.6893 -4.29511 -0.384539
8859 2 2.2208 -0.384854 21.0572 8.21603
57 1 -1.1104 6.66186 8.2644 1.01495
59 1 -1.1104 6.81631 8.25538 3.86284
70 1 -1.1104 6.74275 11.0603 4.00143
575 2 2.2208 8.00666 -1.53546 -0.259751
63 1 -1.1104 6.74284 5.40139 0.964063
84 2 2.2208 10.9062 6.78151 5.29214
85 2 2.2208 10.945 12.2931 5.30025
86 1 -1.1104 12.427 8.19021 1.05662
87 1 -1.1104 12.2992 8.24727 3.83112
88 1 -1.1104 12.2097 5.44779 1.07421
89 1 -1.1104 12.2644 11.068 1.06138
91 2 2.2208 10.9396 9.75012 2.59634
92 1 -1.1104 12.1626 5.46634 3.98721
93 1 -1.1104 12.4031 11.0043 3.85125
94 1 -1.1104 9.47513 8.19287 1.02822
95 2 2.2208 8.0078 6.78494 2.44507
96 2 2.2208 8.1758 12.4641 2.50673
97 1 -1.1104 9.40235 8.38358 3.7492
98 2 2.2208 8.20093 9.62173 5.2802
99 1 -1.1104 9.46471 5.39453 1.1418
100 1 -1.1104 9.47003 11.1043 1.10453
102 1 -1.1104 9.37586 5.50337 3.91947
103 1 -1.1104 9.59631 11.0896 3.8251
667 2 2.2208 -0.237599 18.1681 -0.268893
269 1 -1.1104 9.26995 5.49654 6.72726
17273 2 2.2208 13.4903 -4.29904 2.45241
106 2 2.2208 5.31942 18.1219 5.19688
107 1 -1.1104 1.20799 13.7113 1.08119
109 1 -1.1104 1.12161 19.6064 1.1786
113 1 -1.1104 1.25791 13.9592 3.87015
114 1 -1.1104 0.97431 19.5647 4.0022
116 1 -1.1104 1.13076 16.7263 1.03492
119 2 2.2208 5.44329 15.1541 2.37723
120 2 2.2208 5.3029 20.8528 2.38922
121 1 -1.1104 1.00239 16.6867 3.89819
123 1 -1.1104 3.96147 13.8198 1.02579
125 1 -1.1104 3.89229 19.3978 1.11985
127 2 2.2208 2.43196 18.2417 2.63519
128 1 -1.1104 3.9698 13.9669 3.93834
129 1 -1.1104 3.94697 19.5899 3.76599
130 2 2.2208 2.47013 15.3112 5.29533
131 2 2.2208 2.41825 20.9776 5.31403
132 1 -1.1104 3.88807 16.5489 1.26189
134 1 -1.1104 3.71621 16.851 4.09113
110 1 -1.1104 6.86637 13.8321 1.0459
124 1 -1.1104 3.80442 13.8939 6.73818
140 1 -1.1104 6.68302 16.736 0.987529
122 1 -1.1104 6.64548 16.591 3.71305
115 1 -1.1104 6.70741 13.754 3.72761
117 1 -1.1104 1.10511 16.7704 6.69298
108 1 -1.1104 1.11294 14.0487 6.6775
8455 2 2.2208 7.92695 -4.42715 8.02497
8457 2 2.2208 13.5038 -4.44379 7.99225
576 2 2.2208 8.16208 3.99211 -0.433083
138 1 -1.1104 6.64682 19.6054 0.92618
139 1 -1.1104 6.59246 19.4895 3.80566
141 2 2.2208 10.9236 17.9488 5.16456
142 1 -1.1104 12.2483 13.8537 0.906202
144 1 -1.1104 12.1256 19.5492 1.0088
146 1 -1.1104 12.4379 13.7827 3.83584
147 1 -1.1104 12.3215 19.4957 3.80085
148 1 -1.1104 12.3436 16.7378 0.91687
150 2 2.2208 10.9574 15.2056 2.37615
151 2 2.2208 10.8277 20.9383 2.47366
152 1 -1.1104 12.1788 16.7258 3.68741
153 1 -1.1104 9.45128 13.9497 1.02741
155 1 -1.1104 9.38376 19.4829 0.898963
157 2 2.2208 8.18585 18.1125 2.33247
158 1 -1.1104 9.67704 13.7751 3.94738
159 1 -1.1104 9.49226 19.4994 3.70464
160 2 2.2208 8.05199 15.2022 5.10016
161 2 2.2208 7.99562 20.8249 5.08388
162 1 -1.1104 9.45255 16.6975 0.971591
164 1 -1.1104 9.40107 16.6282 3.60502
9086 2 2.2208 -0.416883 9.75307 8.2038
233 2 2.2208 8.08584 15.2723 10.8381
581 2 2.2208 13.7059 -1.58457 -0.418915
8449 2 2.2208 5.09166 -4.33627 5.28695
156 1 -1.1104 9.47455 19.398 6.53969
170 1 -1.1104 0.917324 -0.0597827 6.61343
173 1 -1.1104 3.80184 2.67719 6.61385
172 1 -1.1104 3.779 -2.8889 6.62123
174 1 -1.1104 3.91694 -0.0680443 6.56446
390 2 2.2208 8.00268 1.30468 13.7726
168 1 -1.1104 6.53162 -2.83638 6.66614
610 2 2.2208 2.55683 9.62667 -0.424122
175 2 2.2208 5.10402 1.19357 10.8429
176 1 -1.1104 1.06972 -2.71766 12.4302
177 1 -1.1104 0.974747 2.68205 12.4936
180 1 -1.1104 0.895809 -2.93664 9.60239
181 1 -1.1104 1.10232 2.66933 9.73681
184 1 -1.1104 1.01344 0.0574732 12.2068
186 2 2.2208 5.23461 -1.56082 8.01235
187 2 2.2208 5.15203 3.97 8.08494
188 1 -1.1104 0.784469 -0.0524023 9.51064
190 1 -1.1104 3.70793 -2.89051 12.2475
191 1 -1.1104 3.67561 2.71765 12.297
192 2 2.2208 2.32828 1.32369 8.0518
193 1 -1.1104 3.89823 -3.13783 9.42254
194 1 -1.1104 3.78066 2.60251 9.43599
195 2 2.2208 2.40948 -1.49741 10.9097
196 2 2.2208 2.34892 4.07792 11.053
197 1 -1.1104 3.9665 -0.2107 12.2445
198 1 -1.1104 3.81796 -0.192539 9.3653
178 1 -1.1104 6.61475 -2.80513 12.4698
189 1 -1.1104 6.60754 -0.172512 9.41922
182 1 -1.1104 6.70507 -2.9318 9.54234
183 1 -1.1104 6.55722 2.50277 9.57079
9017 2 2.2208 -0.432168 3.96391 8.03093
210 1 -1.1104 9.49059 -0.195724 6.6503
208 1 -1.1104 9.33183 -3.03263 6.41943
199 1 -1.1104 12.3166 16.7502 9.45659
185 1 -1.1104 6.68863 -0.0586852 12.0809
179 1 -1.1104 6.46923 2.64707 12.342
544 2 2.2208 5.16066 1.3597 -0.428883
83 2 2.2208 -0.335297 12.5575 5.31955
205 1 -1.1104 12.1832 -3.06756 6.57977
207 1 -1.1104 12.2809 -0.222351 6.61102
211 2 2.2208 10.6986 1.28169 10.9116
212 1 -1.1104 12.2162 -2.8864 12.3323
213 1 -1.1104 12.1972 2.74169 12.3139
214 1 -1.1104 12.1309 -2.93302 9.52401
215 1 -1.1104 12.2405 2.59807 9.4763
216 1 -1.1104 12.111 0.0261979 12.295
217 2 2.2208 10.8429 -1.56199 7.9848
218 2 2.2208 10.7697 4.04318 8.07931
219 1 -1.1104 12.2042 -0.224411 9.53079
220 1 -1.1104 9.45711 -2.91431 12.1837
221 1 -1.1104 9.43363 2.51785 12.4328
222 2 2.2208 8.10809 1.28444 8.1462
223 1 -1.1104 9.3939 -3.03681 9.34471
224 1 -1.1104 9.3068 2.66575 9.63143
225 2 2.2208 8.01562 -1.39052 10.8154
226 2 2.2208 7.93363 3.96609 11.0192
227 1 -1.1104 9.38153 -0.0642387 12.1377
228 1 -1.1104 9.37718 -0.0903631 9.28535
313 2 2.2208 -0.304604 15.4096 8.14322
149 1 -1.1104 12.2021 16.578 6.65646
234 1 -1.1104 1.14417 8.45029 6.73202
236 1 -1.1104 1.0565 5.56572 6.71709
62 1 -1.1104 0.979056 11.1358 6.69865
240 2 2.2208 5.27013 6.79685 10.8574
241 2 2.2208 5.2819 12.3838 10.874
242 1 -1.1104 0.995739 8.30554 12.3663
244 1 -1.1104 0.946273 8.26307 9.48834
246 1 -1.1104 0.822224 5.63525 12.377
247 1 -1.1104 1.22262 11.1243 12.1013
250 2 2.2208 5.37624 9.6836 8.13261
251 1 -1.1104 1.1444 5.51396 9.49513
252 1 -1.1104 0.991863 11.2382 9.31657
255 1 -1.1104 3.85821 8.21487 12.2555
256 2 2.2208 2.38562 6.83741 8.14564
257 2 2.2208 2.48912 12.6266 8.19737
258 1 -1.1104 3.88058 8.16653 9.435
259 2 2.2208 2.5176 9.59727 10.8336
260 1 -1.1104 3.84328 5.41469 12.3184
261 1 -1.1104 3.97674 10.9777 12.2758
262 1 -1.1104 3.74309 5.33735 9.50877
263 1 -1.1104 3.87684 10.8541 9.42953
249 1 -1.1104 6.60217 11.1402 12.4117
254 1 -1.1104 6.83724 11.0186 9.43201
248 1 -1.1104 6.74775 5.38549 12.3872
245 1 -1.1104 6.7347 8.17258 9.63016
235 1 -1.1104 6.80045 8.30131 6.69617
65 1 -1.1104 6.61952 11.1081 6.82264
266 1 -1.1104 12.1501 5.42782 6.66515
267 1 -1.1104 9.61278 8.1834 6.70855
265 1 -1.1104 12.2766 8.13984 6.64436
30 2 2.2208 10.8632 18.2832 10.9033
253 1 -1.1104 6.54842 5.27837 9.62539
90 1 -1.1104 12.3596 10.9474 6.5755
237 1 -1.1104 6.58154 5.41093 6.83374
101 1 -1.1104 9.48941 10.9534 6.61446
243 1 -1.1104 6.69996 8.31811 12.3623
264 1 -1.1104 9.5122 11.1381 9.38712
268 1 -1.1104 9.39129 5.49307 9.48276
270 1 -1.1104 9.72049 11.1532 12.4313
271 1 -1.1104 9.47381 5.31998 12.2174
272 2 2.2208 8.0903 9.74244 10.8499
273 1 -1.1104 9.40001 8.30973 9.45323
274 2 2.2208 8.12965 12.4791 7.98284
275 2 2.2208 7.97886 6.74241 8.19671
276 2 2.2208 10.8043 6.7153 10.8685
277 2 2.2208 10.9143 12.4724 10.8457
278 1 -1.1104 12.1577 8.40665 12.4109
279 1 -1.1104 12.2336 8.17478 9.45964
280 1 -1.1104 12.3079 5.51145 12.4022
281 1 -1.1104 12.3551 11.3042 12.188
282 2 2.2208 10.8492 9.69186 8.05277
283 1 -1.1104 12.2167 5.39913 9.45243
284 1 -1.1104 12.2664 11.0015 9.36721
285 1 -1.1104 9.47059 8.30912 12.249
49 1 -1.1104 12.2219 14.0774 12.1744
302 1 -1.1104 0.951652 19.7277 6.80367
126 1 -1.1104 3.78594 19.5448 6.76491
133 1 -1.1104 3.89809 16.7653 6.67836
111 1 -1.1104 6.46912 13.9375 6.48029
288 1 -1.1104 6.73061 19.5644 9.4537
290 1 -1.1104 6.66772 13.7006 9.45062
286 1 -1.1104 3.92259 19.4221 12.172
287 1 -1.1104 4.02227 13.7591 12.3691
291 1 -1.1104 1.11233 19.5152 9.74855
292 1 -1.1104 1.09378 16.8851 9.49771
293 2 2.2208 5.32937 20.9745 8.08292
294 1 -1.1104 1.07401 13.9996 9.54786
295 2 2.2208 5.38249 15.4184 7.91917
298 1 -1.1104 1.1415 19.3833 12.3776
299 1 -1.1104 1.1304 13.8035 12.403
300 2 2.2208 5.34049 18.034 10.7757
301 1 -1.1104 4.00047 19.5198 9.50012
303 2 2.2208 2.48912 18.2098 8.12046
304 1 -1.1104 3.8124 16.7136 9.52876
305 1 -1.1104 3.84952 13.7661 9.58459
307 1 -1.1104 1.07211 16.6684 12.3873
308 1 -1.1104 3.94674 16.7391 12.2802
309 2 2.2208 2.52856 20.8511 10.9779
310 2 2.2208 2.54413 15.3638 10.9352
296 1 -1.1104 6.70954 19.3172 12.1868
118 1 -1.1104 6.78686 16.7605 6.62338
112 1 -1.1104 6.71745 19.5346 6.53171
297 1 -1.1104 6.77386 13.9071 12.2976
50 1 -1.1104 12.288 19.7211 12.2968
552 2 2.2208 8.0574 20.9642 -0.37554
201 1 -1.1104 9.42573 19.5361 12.3582
53 1 -1.1104 12.084 13.8522 9.32301
316 2 2.2208 8.00526 20.8163 10.7727
145 1 -1.1104 12.2411 19.3446 6.45573
143 1 -1.1104 12.1811 13.7742 6.67555
315 1 -1.1104 9.29109 16.8372 12.0502
306 1 -1.1104 6.53243 16.4973 12.2389
200 1 -1.1104 9.51896 13.851 12.334
82 1 -1.1104 12.0908 16.9633 12.1404
105 2 2.2208 10.7987 15.1858 7.98749
136 2 2.2208 10.8315 20.8852 7.94125
289 1 -1.1104 6.58798 16.7001 9.40463
314 1 -1.1104 9.49421 16.5389 9.24831
232 1 -1.1104 9.37115 19.53 9.24815
312 1 -1.1104 9.43934 13.8246 9.37691
154 1 -1.1104 9.27432 13.894 6.66894
163 1 -1.1104 9.53572 16.6322 6.47116
663 2 2.2208 2.48712 20.8766 -0.208222
9087 2 2.2208 -0.428295 6.95623 10.8296
611 2 2.2208 5.41187 12.514 -0.404718
584 2 2.2208 13.6903 4.11556 -0.306494
636 2 2.2208 10.9054 12.5362 -0.342918
8858 2 2.2208 -0.261529 18.0673 10.9883
137 2 2.2208 -0.479277 17.9544 5.29635
455 2 2.2208 8.11887 12.4735 13.8377
634 2 2.2208 10.9512 6.81087 -0.382257
392 2 2.2208 10.8956 3.95309 13.7455
25 2 2.2208 -0.358934 -1.57232 2.54169
8992 2 2.2208 13.5733 3.90872 10.8971
28 2 2.2208 -0.212952 12.5821 10.8535
52 2 2.2208 13.6296 6.81379 8.13385
612 2 2.2208 -0.187299 12.4555 -0.288377
9119 2 2.2208 13.4758 21.1139 10.8209
638 2 2.2208 13.748 9.55469 -0.281175
517 2 2.2208 10.8782 15.3242 13.5975
428 2 2.2208 2.53667 12.4603 13.7361
453 2 2.2208 8.04401 6.83176 13.7234
664 2 2.2208 5.29343 18.1622 -0.337976
454 2 2.2208 10.8915 9.64568 13.8505
518 2 2.2208 7.89341 17.9952 13.698
615 2 2.2208 -0.314481 6.87044 -0.27206
574 2 2.2208 10.8461 1.23017 -0.314223
9367 2 2.2208 -0.357747 15.2541 13.758
546 2 2.2208 2.51759 4.03723 -0.381563
317 2 2.2208 5.24989 1.09267 16.493
318 1 -1.1104 0.811179 -2.82476 17.7568
319 1 -1.1104 0.965299 2.70059 17.9769
322 1 -1.1104 0.803793 -2.88982 15.1751
324 1 -1.1104 0.919295 2.56892 15.1475
330 1 -1.1104 1.04562 -0.106188 17.8953
332 2 2.2208 5.09359 -1.62652 19.3619
333 2 2.2208 5.19317 4.09698 19.2389
334 1 -1.1104 1.06119 -0.191262 14.9695
338 1 -1.1104 3.62435 -3.10587 17.8717
339 1 -1.1104 3.74669 2.61041 17.8609
340 2 2.2208 2.45705 1.35809 19.19
341 1 -1.1104 3.65572 -2.92162 15.0612
343 1 -1.1104 3.77458 2.6837 15.2335
345 2 2.2208 2.29927 -1.59867 16.3513
346 2 2.2208 2.3591 4.04466 16.4481
347 1 -1.1104 3.70007 -0.249435 17.8339
348 1 -1.1104 3.94243 -0.152163 15.0869
328 1 -1.1104 6.56311 2.55346 15.1734
320 1 -1.1104 6.40418 -2.98205 17.9088
326 1 -1.1104 6.50297 -2.97734 15.0713
331 1 -1.1104 6.51513 -0.263879 17.9359
321 1 -1.1104 6.47161 2.5505 17.8857
8827 2 2.2208 5.11923 -4.3498 16.5732
673 2 2.2208 8.02872 15.2652 22.0801
342 1 -1.1104 3.72096 -2.97072 20.7194
337 1 -1.1104 6.37727 -0.129553 20.8234
329 1 -1.1104 6.60641 2.6562 20.836
358 2 2.2208 2.43082 1.26208 13.6815
336 1 -1.1104 6.62032 -0.249972 14.924
353 2 2.2208 13.788 15.2069 27.7322
360 2 2.2208 10.8283 1.1417 16.6096
361 1 -1.1104 11.9758 -3.02212 17.9501
362 1 -1.1104 12.0499 2.64745 17.9167
363 1 -1.1104 12.0313 -3.15072 15.0162
365 1 -1.1104 12.2606 2.52412 15.098
367 1 -1.1104 12.2616 -0.102 17.8881
368 2 2.2208 10.7108 -1.51843 19.2828
369 2 2.2208 10.8423 4.12404 19.3912
370 1 -1.1104 12.1522 -0.315128 15.0674
372 1 -1.1104 9.22981 -3.01761 17.8994
373 1 -1.1104 9.26416 2.51302 17.8001
374 2 2.2208 7.8978 1.2451 19.3591
375 1 -1.1104 9.37478 -2.98739 15.0305
377 1 -1.1104 9.36826 2.63813 14.9909
379 2 2.2208 7.90156 -1.65023 16.3313
380 2 2.2208 7.86784 3.99445 16.3459
381 1 -1.1104 9.30844 -0.243613 18.0988
382 1 -1.1104 9.48499 -0.170209 14.9933
391 2 2.2208 10.8461 -1.54578 13.6178
9364 2 2.2208 -0.468582 20.9397 19.3366
366 1 -1.1104 12.1772 2.70119 20.7143
357 2 2.2208 5.22058 -1.5367 13.7161
8836 2 2.2208 5.20405 -4.41699 22.1792
9184 2 2.2208 -0.507015 -1.50974 24.8735
352 2 2.2208 -0.350218 15.2222 19.3167
393 2 2.2208 5.22711 6.76785 16.4516
394 2 2.2208 5.13877 12.3845 16.5574
395 1 -1.1104 0.996077 8.30495 17.7519
397 1 -1.1104 1.11865 8.1773 15.1621
401 1 -1.1104 0.944845 5.37408 17.8803
402 1 -1.1104 0.979154 11.0012 17.8952
405 2 2.2208 5.14374 9.70582 19.4184
406 1 -1.1104 0.956956 5.44424 15.1206
408 1 -1.1104 1.07756 11.1082 14.9953
414 1 -1.1104 3.87503 8.20448 17.8499
415 2 2.2208 2.51819 6.82739 19.2629
416 2 2.2208 2.45896 12.4215 19.3242
417 1 -1.1104 3.86088 8.24279 15.003
419 2 2.2208 2.48314 9.56941 16.496
420 1 -1.1104 3.73869 5.41908 17.8817
421 1 -1.1104 3.88817 11.0195 18.0396
422 1 -1.1104 3.79722 5.48228 15.0728
424 1 -1.1104 3.80494 10.971 15.1569
410 1 -1.1104 6.6157 5.40934 14.976
404 1 -1.1104 6.60542 11.0569 17.9264
412 1 -1.1104 6.55017 10.8611 15.2513
413 1 -1.1104 6.62007 11.1551 20.7955
400 1 -1.1104 6.74876 8.31652 20.612
403 1 -1.1104 6.49907 5.35728 17.6428
396 1 -1.1104 6.47817 8.29726 17.9227
411 1 -1.1104 6.77448 5.41032 20.5739
8837 2 2.2208 2.31169 -4.35295 24.8347
613 2 2.2208 -0.45691 9.72811 24.9342
418 1 -1.1104 3.91402 8.24464 20.7375
409 1 -1.1104 1.11791 11.1194 20.7167
384 2 2.2208 13.7505 18.09 19.1931
8838 2 2.2208 13.3851 -4.35911 24.9369
8830 2 2.2208 13.5245 -4.42353 19.3161
399 1 -1.1104 6.66053 8.14372 15.1457
614 2 2.2208 -0.405243 12.6262 22.1042
429 2 2.2208 10.9464 6.89564 16.4942
430 2 2.2208 10.8806 12.457 16.3693
431 1 -1.1104 12.2395 8.36809 17.7608
432 1 -1.1104 12.4271 8.36068 15.1653
434 1 -1.1104 12.389 5.47123 17.896
435 1 -1.1104 12.1595 11.2515 17.6831
436 2 2.2208 10.9386 9.80082 19.1671
437 1 -1.1104 12.1472 5.3778 15.157
439 1 -1.1104 12.202 11.1414 15.0501
441 1 -1.1104 9.37627 8.23809 17.9494
442 2 2.2208 8.1022 6.94547 19.2669
443 2 2.2208 7.95927 12.4196 19.345
444 1 -1.1104 9.49485 8.20357 15.0716
446 2 2.2208 7.95014 9.62378 16.5859
447 1 -1.1104 9.47947 5.4484 17.9325
448 1 -1.1104 9.39289 11.0529 17.8178
449 1 -1.1104 9.36977 5.46474 15.1105
451 1 -1.1104 9.28221 11.0634 15.2339
450 1 -1.1104 9.60654 5.64106 20.4945
674 1 -1.1104 9.52414 19.5549 26.1817
445 1 -1.1104 9.42206 8.36413 20.717
9368 2 2.2208 -0.359754 20.8832 13.7384
356 2 2.2208 13.7176 20.9256 16.6211
456 2 2.2208 5.36563 18.0049 16.4918
457 1 -1.1104 0.969119 13.7756 17.9748
458 1 -1.1104 1.10642 19.5707 17.9455
461 1 -1.1104 1.10455 13.8726 15.196
463 1 -1.1104 0.993857 19.4537 15.1868
469 1 -1.1104 1.12566 16.6895 17.8594
471 2 2.2208 5.30387 15.2786 19.2668
472 2 2.2208 5.22098 20.8337 19.2214
473 1 -1.1104 1.19532 16.621 15.0316
477 1 -1.1104 3.847 13.9412 17.8583
478 1 -1.1104 3.92908 19.3782 17.9704
479 2 2.2208 2.49726 18.0716 19.3718
480 1 -1.1104 3.86564 13.8093 15.1147
482 1 -1.1104 3.88298 19.5708 15.1041
484 2 2.2208 2.40206 15.2761 16.4361
485 2 2.2208 2.38391 20.9174 16.4246
486 1 -1.1104 3.98872 16.6576 17.9411
487 1 -1.1104 3.99039 16.7324 15.0426
467 1 -1.1104 6.66895 19.4135 15.1448
470 1 -1.1104 6.71733 16.7117 17.7489
475 1 -1.1104 6.83836 16.5048 15.0967
460 1 -1.1104 6.7183 19.5636 17.9495
459 1 -1.1104 6.69124 13.8684 17.8072
465 1 -1.1104 6.69109 13.8763 15.0558
491 2 2.2208 5.33162 15.2702 13.6683
359 2 2.2208 5.19441 4.0579 13.6108
672 2 2.2208 8.07599 20.7635 22.1374
490 2 2.2208 5.35475 20.8218 13.6534
492 2 2.2208 10.7808 18.1774 16.4223
493 1 -1.1104 12.2866 13.9538 17.6542
494 1 -1.1104 12.4288 19.5063 17.8176
495 1 -1.1104 12.2898 13.9328 14.9349
497 1 -1.1104 12.1899 19.8039 15.0448
499 1 -1.1104 12.3026 16.7673 17.7314
500 2 2.2208 10.9298 15.2727 19.1362
501 2 2.2208 10.8903 20.8462 19.1904
502 1 -1.1104 12.3443 16.7994 15.012
504 1 -1.1104 9.42245 13.7357 17.9767
505 1 -1.1104 9.45972 19.4367 17.7579
506 2 2.2208 8.06721 18.0322 19.3677
507 1 -1.1104 9.54141 13.8229 15.0955
509 1 -1.1104 9.40146 19.7311 15.0673
511 2 2.2208 8.05499 15.2544 16.4247
512 2 2.2208 8.00107 20.9128 16.53
513 1 -1.1104 9.54982 16.5972 17.8139
514 1 -1.1104 9.42549 16.7098 14.9327
508 1 -1.1104 9.416 13.7429 20.7394
498 1 -1.1104 12.3665 19.5667 20.5587
466 1 -1.1104 6.67575 13.9013 20.6363
551 2 2.2208 13.6017 12.5727 19.3196
468 1 -1.1104 6.82085 19.4044 20.8898
577 2 2.2208 13.7042 6.91342 19.2989
639 2 2.2208 13.767 6.88946 24.8441
327 1 -1.1104 6.51527 -2.94435 20.7526
325 1 -1.1104 1.23667 2.92179 20.6925
335 1 -1.1104 0.95647 0.0649449 20.6713
323 1 -1.1104 0.845059 -2.69954 20.7295
344 1 -1.1104 3.7763 2.56968 20.5449
349 1 -1.1104 3.7249 -0.132472 20.6811
520 2 2.2208 5.17631 1.21578 22.1234
521 1 -1.1104 0.875234 -2.94596 23.5351
522 1 -1.1104 1.32484 2.6161 23.5124
525 1 -1.1104 0.949878 -2.91541 26.3167
526 1 -1.1104 0.96 2.78258 26.3766
529 1 -1.1104 1.17558 -0.181003 23.4861
531 2 2.2208 5.17823 -1.63324 24.8478
532 2 2.2208 5.37945 4.13348 24.7385
533 1 -1.1104 0.988033 -0.0316572 26.2985
535 1 -1.1104 3.71987 -2.925 23.4386
536 1 -1.1104 3.98407 2.81195 23.3412
537 2 2.2208 2.54687 1.31882 24.8694
538 1 -1.1104 3.83012 -2.81483 26.2389
539 1 -1.1104 3.9726 2.72499 26.2572
540 2 2.2208 2.33639 -1.48529 22.123
541 2 2.2208 2.45189 4.19337 22.0204
542 1 -1.1104 3.80429 -0.240803 23.5146
543 1 -1.1104 3.69251 -0.114058 26.3385
523 1 -1.1104 6.58945 -3.2122 23.6515
524 1 -1.1104 6.73427 2.55271 23.4627
528 1 -1.1104 6.66411 2.62161 26.2315
530 1 -1.1104 6.62863 -0.393533 23.5919
527 1 -1.1104 6.65267 -2.95176 26.4751
534 1 -1.1104 6.56436 -0.142287 26.189
670 1 -1.1104 9.48311 16.6681 26.2396
671 1 -1.1104 9.46129 16.6569 23.6344
688 2 2.2208 13.5937 1.26663 19.302
583 2 2.2208 13.6522 1.27213 24.9311
553 2 2.2208 10.8454 18.0647 22.1304
378 1 -1.1104 9.48734 2.64527 20.5354
371 1 -1.1104 11.9895 -0.226378 20.7634
681 2 2.2208 10.8941 20.9109 24.8953
385 2 2.2208 13.6986 15.3041 16.3481
680 1 -1.1104 12.1873 16.528 26.2488
510 1 -1.1104 9.51707 19.5588 20.6742
364 1 -1.1104 11.9482 -3.03621 20.6864
383 1 -1.1104 9.22651 -0.0648449 20.8444
376 1 -1.1104 9.25127 -3.07098 20.6252
556 2 2.2208 10.8162 1.30287 22.143
557 1 -1.1104 12.2062 -3.08315 23.424
558 1 -1.1104 12.2917 2.65916 23.6112
559 1 -1.1104 12.0387 -2.89749 26.346
560 1 -1.1104 12.1736 2.73882 26.4668
561 1 -1.1104 12.1068 -0.206446 23.4384
562 2 2.2208 10.7624 -1.53331 24.8335
563 2 2.2208 10.8376 3.98176 24.8764
564 1 -1.1104 12.2267 0.000418071 26.2677
565 1 -1.1104 9.32891 -3.03261 23.6078
566 1 -1.1104 9.47361 2.62473 23.4485
567 2 2.2208 7.99823 1.09333 24.9617
568 1 -1.1104 9.46613 -2.87358 26.4128
569 1 -1.1104 9.39504 2.69137 26.2486
570 2 2.2208 8.07958 -1.66064 22.0838
571 2 2.2208 8.08183 3.94458 22.0524
572 1 -1.1104 9.37807 -0.191846 23.5665
573 1 -1.1104 9.45078 -0.134494 26.3451
650 1 -1.1104 6.67926 13.9911 23.4417
676 1 -1.1104 6.68816 19.277 26.3777
503 1 -1.1104 12.2555 16.6163 20.747
423 1 -1.1104 4.01963 5.47031 20.6942
425 1 -1.1104 3.85539 11.09 20.8225
683 1 -1.1104 12.2942 16.4706 23.3763
398 1 -1.1104 1.10983 8.39568 20.5527
407 1 -1.1104 1.06101 5.69111 20.749
585 2 2.2208 5.33192 6.84707 22.0264
586 2 2.2208 5.24736 12.485 22.1214
587 1 -1.1104 1.12433 8.41392 23.4717
589 1 -1.1104 1.10243 8.36022 26.3557
591 1 -1.1104 1.04025 5.56772 23.5128
592 1 -1.1104 0.9703 11.2053 23.5067
595 2 2.2208 5.33406 9.67206 24.8267
596 1 -1.1104 1.16246 5.57113 26.3606
597 1 -1.1104 1.04843 11.0918 26.3835
600 1 -1.1104 3.91454 8.42832 23.4305
601 2 2.2208 2.43198 6.96283 24.9309
602 2 2.2208 2.47752 12.531 24.866
603 1 -1.1104 3.93528 8.23365 26.3888
604 2 2.2208 2.50573 9.67303 22.0575
605 1 -1.1104 3.7305 5.60203 23.4776
606 1 -1.1104 3.89172 11.081 23.4865
607 1 -1.1104 3.84411 5.43703 26.2658
608 1 -1.1104 3.8092 11.093 26.2647
590 1 -1.1104 6.73598 8.10075 26.3096
588 1 -1.1104 6.78538 8.16593 23.3835
594 1 -1.1104 6.81639 11.2066 23.3591
669 1 -1.1104 12.3454 19.4749 23.3392
452 1 -1.1104 9.38402 11.0857 20.6001
599 1 -1.1104 6.59975 11.1142 26.2541
593 1 -1.1104 6.69781 5.45496 23.3091
598 1 -1.1104 6.77619 5.29361 26.118
440 1 -1.1104 12.4484 11.1433 20.6758
433 1 -1.1104 12.2297 8.34933 20.5693
438 1 -1.1104 12.372 5.5673 20.7529
616 1 -1.1104 9.53585 11.0479 26.3223
617 1 -1.1104 9.54421 5.30091 26.1652
618 1 -1.1104 9.5841 11.1453 23.5434
619 1 -1.1104 9.39956 5.36531 23.3126
620 2 2.2208 8.16284 9.6936 22.1487
621 1 -1.1104 9.60677 8.27391 26.3685
622 2 2.2208 8.03726 12.4819 24.8437
623 2 2.2208 8.1887 6.83406 24.8362
624 2 2.2208 10.9197 7.00354 22.0319
625 2 2.2208 10.8148 12.5356 22.0766
626 1 -1.1104 12.3459 8.20812 23.4105
627 1 -1.1104 12.4676 8.25279 26.4075
628 1 -1.1104 12.3293 5.379 23.4141
629 1 -1.1104 12.2146 10.9694 23.512
630 2 2.2208 10.9971 9.70057 24.9232
631 1 -1.1104 12.4275 5.68239 26.2765
632 1 -1.1104 12.4127 11.0658 26.3763
633 1 -1.1104 9.60612 8.20903 23.5625
582 2 2.2208 13.4924 -1.53017 21.9732
637 1 -1.1104 12.3265 13.81 23.5418
641 1 -1.1104 6.76681 13.8839 26.3736
476 1 -1.1104 6.75702 16.6833 20.6887
647 1 -1.1104 6.60745 19.4301 23.5385
483 1 -1.1104 3.84389 19.5013 20.7409
462 1 -1.1104 1.015 14.0098 20.8171
488 1 -1.1104 3.81551 16.7167 20.7197
643 1 -1.1104 6.69399 16.618 26.3062
464 1 -1.1104 1.0347 19.4375 20.8014
658 1 -1.1104 6.71364 16.5798 23.5248
474 1 -1.1104 1.0079 16.774 20.6641
481 1 -1.1104 3.79761 13.9444 20.6365
662 2 2.2208 2.4498 15.409 22.1661
661 2 2.2208 2.3609 20.8705 22.1091
660 1 -1.1104 3.9312 16.7009 23.5532
659 1 -1.1104 1.0225 16.8825 23.5737
657 1 -1.1104 4.06422 13.922 26.2726
656 1 -1.1104 3.80254 16.7481 26.3597
655 2 2.2208 2.41304 18.2226 25.018
654 1 -1.1104 3.88563 19.3938 26.4229
653 2 2.2208 5.22498 18.11 22.1324
652 1 -1.1104 1.12556 13.9289 23.546
651 1 -1.1104 1.04901 19.642 23.6304
649 2 2.2208 5.29932 15.3492 24.8203
640 1 -1.1104 3.93518 19.3238 23.6434
642 1 -1.1104 3.94365 14.034 23.3845
644 1 -1.1104 1.03227 19.5686 26.3549
645 1 -1.1104 0.965346 16.84 26.3322
646 1 -1.1104 1.23127 14.0144 26.2863
648 2 2.2208 5.341 20.8151 24.8854
515 1 -1.1104 9.41239 16.6418 20.6279
685 1 -1.1104 12.3721 13.9109 26.2296
496 1 -1.1104 12.2162 13.9725 20.622
684 1 -1.1104 12.3267 19.41 26.1442
682 2 2.2208 10.925 15.126 24.9418
678 1 -1.1104 9.43114 19.5571 23.471
679 1 -1.1104 9.40717 13.9222 23.4712
675 1 -1.1104 9.66237 13.7679 26.3257
677 2 2.2208 8.06426 18.1597 24.9652
549 2 2.2208 -0.422625 12.4357 16.601
388 2 2.2208 13.5227 -1.70589 16.4556
427 2 2.2208 5.29591 9.57301 13.6825
9370 2 2.2208 13.8042 15.2772 22.1745
350 2 2.2208 -0.4567 6.87595 22.0806
489 2 2.2208 2.53875 18.0174 13.7379
686 2 2.2208 13.6452 4.10848 16.5005
548 2 2.2208 10.9011 18.0822 27.6282
609 2 2.2208 5.34431 6.72465 27.6654
426 2 2.2208 2.37011 6.85739 13.8367
687 2 2.2208 13.6022 1.15872 13.658
516 2 2.2208 10.8133 20.997 13.7767
547 2 2.2208 8.00103 15.2736 27.6813
9219 2 2.2208 -0.49408 1.26105 27.7606
689 2 2.2208 5.19667 23.6947 5.30993
690 2 2.2208 5.07114 29.4377 5.14921
691 1 -1.1104 1.09843 25.1693 1.16922
692 1 -1.1104 1.08111 25.0411 3.9958
693 1 -1.1104 1.11014 22.3894 1.17119
694 1 -1.1104 0.888391 27.9421 1.06954
695 2 2.2208 5.19844 26.5862 2.43466
696 1 -1.1104 1.02031 22.1892 3.89155
697 1 -1.1104 1.02541 27.8571 3.81818
698 1 -1.1104 3.92671 25.1092 1.12653
699 2 2.2208 2.48741 23.7166 2.53183
700 2 2.2208 2.442 29.2855 2.51472
701 1 -1.1104 3.7719 25.0956 3.93129
702 2 2.2208 2.51243 26.5189 5.26204
703 1 -1.1104 3.82806 22.3714 1.05457
704 1 -1.1104 3.76214 27.9346 1.14845
705 1 -1.1104 3.86485 22.2881 3.96239
706 1 -1.1104 3.85854 27.912 3.87256
832 1 -1.1104 1.00659 22.4241 6.79412
833 1 -1.1104 1.13415 27.8932 6.57764
837 1 -1.1104 3.88853 22.3106 6.65971
714 1 -1.1104 6.63777 22.2598 3.73828
713 1 -1.1104 6.59399 27.9928 1.05765
711 1 -1.1104 6.74346 25.0072 3.83865
807 2 2.2208 -0.434742 40.4571 5.33466
838 1 -1.1104 3.92224 27.9863 6.76011
834 1 -1.1104 6.61078 22.4041 6.61836
831 1 -1.1104 6.61725 25.1212 6.70271
1315 2 2.2208 2.40426 43.4708 -0.30857
9702 2 2.2208 13.5368 34.8339 8.32224
710 1 -1.1104 6.67683 25.1591 1.05802
712 1 -1.1104 6.5873 22.3706 1.03962
715 1 -1.1104 6.78606 27.757 3.72007
716 2 2.2208 10.7869 23.6669 5.14422
717 2 2.2208 10.705 29.3785 5.2582
718 1 -1.1104 12.2417 25.1414 1.15128
719 1 -1.1104 12.282 24.9896 3.9888
720 1 -1.1104 12.4091 22.2718 1.03155
721 1 -1.1104 12.3846 27.9388 1.13979
722 2 2.2208 10.9196 26.5217 2.37112
723 1 -1.1104 12.3109 22.1866 3.87586
724 1 -1.1104 12.2519 28.0765 3.95885
725 1 -1.1104 9.42172 25.0954 1.09324
726 2 2.2208 8.09753 23.766 2.48536
727 2 2.2208 8.02452 29.4052 2.33369
728 1 -1.1104 9.55264 25.2129 3.73904
729 2 2.2208 8.02209 26.5111 5.13994
730 1 -1.1104 9.55615 22.252 0.941015
731 1 -1.1104 9.54009 27.9401 1.16484
732 1 -1.1104 9.43517 22.2866 3.65254
733 1 -1.1104 9.48447 27.983 3.83868
867 1 -1.1104 9.44996 22.2959 6.49504
866 1 -1.1104 9.33392 24.982 6.49239
868 1 -1.1104 9.46259 27.822 6.69829
9685 2 2.2208 -0.44499 26.5798 8.07572
1534 1 -1.1104 6.66021 47.5205 12.2948
1256 2 2.2208 2.49708 32.0433 -0.372946
737 2 2.2208 5.09032 35.0127 5.32507
738 1 -1.1104 1.06708 30.6579 1.20529
739 1 -1.1104 1.13139 36.2573 1.01769
741 1 -1.1104 0.899637 30.743 3.93372
742 1 -1.1104 0.988719 36.4721 3.9365
744 1 -1.1104 0.839837 33.5315 1.20477
745 2 2.2208 5.15193 32.1626 2.4225
746 2 2.2208 5.30427 37.7402 2.57033
747 1 -1.1104 0.989084 33.573 3.95574
749 1 -1.1104 3.89487 30.635 1.00886
750 1 -1.1104 3.81035 36.3035 1.09742
751 2 2.2208 2.31792 34.9135 2.45036
752 1 -1.1104 3.74278 30.8167 3.7618
753 1 -1.1104 3.78944 36.297 3.81451
754 2 2.2208 2.31002 32.1683 5.29761
755 2 2.2208 2.42388 37.8033 5.2072
756 1 -1.1104 3.77019 33.506 1.00813
757 1 -1.1104 3.69381 33.5394 3.92459
743 1 -1.1104 6.65121 36.4237 4.01759
889 1 -1.1104 3.83039 36.4837 6.53766
885 1 -1.1104 6.51526 36.3508 6.7554
886 1 -1.1104 0.878459 33.5113 6.74472
883 1 -1.1104 0.940794 36.38 6.6732
1335 1 -1.1104 6.48233 47.5264 0.951507
748 1 -1.1104 6.51522 33.4405 3.82217
762 1 -1.1104 6.51287 30.6928 3.76872
884 1 -1.1104 6.67097 30.8128 6.60919
1292 2 2.2208 5.08017 46.3676 -0.437646
888 1 -1.1104 3.93632 30.7808 6.56805
9813 2 2.2208 13.5848 46.1765 2.42051
761 1 -1.1104 6.55767 30.7308 0.984765
887 1 -1.1104 6.42337 33.6318 6.59077
740 1 -1.1104 6.53429 36.2432 1.13041
763 1 -1.1104 6.59756 33.5256 1.17969
764 2 2.2208 10.73 34.8751 5.28658
765 1 -1.1104 12.1403 30.77 1.15118
766 1 -1.1104 12.3313 36.4044 1.25761
767 1 -1.1104 12.3289 30.7651 3.93541
768 1 -1.1104 12.1643 36.3708 3.93606
769 1 -1.1104 12.2382 33.5264 1.1075