ITEM: TIMESTEP
60000
ITEM: NUMBER OF ATOMS
17640
ITEM: BOX BOUNDS pp pp pp
-3.6242627556849205e-01 2.7702426275568612e+01
-4.3176815898828300e+00 3.3239768158987863e+02
-3.6008621434774846e-01 2.7700086214349014e+01
ITEM: ATOMS id type q x y z
1 2 2.2208 5.45106 1.11262 5.24579
2 1 -1.1104 1.18259 -2.93887 0.891534
3 1 -1.1104 1.14055 2.71518 1.05701
6 1 -1.1104 1.07061 -2.8712 3.75164
7 1 -1.1104 1.09974 2.75374 4.02788
10 1 -1.1104 1.0992 -0.0913004 0.840563
12 2 2.2208 5.38429 -1.52713 2.37886
13 2 2.2208 5.2917 4.02533 2.42817
14 1 -1.1104 1.11506 -0.133633 3.70838
16 1 -1.1104 3.91352 -2.96169 1.07514
17 1 -1.1104 4.037 2.5277 0.939489
18 2 2.2208 2.52746 1.28687 2.26377
19 1 -1.1104 3.93383 -2.88508 3.77848
20 1 -1.1104 3.88896 2.71689 3.75425
21 2 2.2208 2.5433 -1.4824 5.05532
22 2 2.2208 2.5902 3.93142 5.21769
23 1 -1.1104 3.81041 -0.235059 1.0343
24 1 -1.1104 4.12414 -0.0222078 3.75402
4 1 -1.1104 6.79915 -2.96458 0.98333
167 1 -1.1104 1.18372 2.6865 6.72467
172 1 -1.1104 3.94588 -2.90365 6.54162
174 1 -1.1104 3.9978 -0.228673 6.55083
8525 2 2.2208 10.91 -4.37278 -0.424505
168 1 -1.1104 6.79672 -3.01342 6.55844
173 1 -1.1104 3.99751 2.68679 6.77314
170 1 -1.1104 1.03792 -0.171026 6.44235
25 2 2.2208 -0.308995 -1.49317 2.45461
8455 2 2.2208 8.11986 -4.36849 8.06681
17272 2 2.2208 -0.392316 -4.25204 5.28575
5 1 -1.1104 6.73467 2.5544 1.07208
9 1 -1.1104 6.6438 2.70161 3.83608
15 1 -1.1104 6.82758 -0.149518 3.78053
11 1 -1.1104 6.66139 -0.24773 1.01659
8 1 -1.1104 6.75989 -3.04783 3.70021
31 2 2.2208 10.8978 1.27408 5.19267
32 1 -1.1104 12.2971 -3.02374 0.898207
33 1 -1.1104 12.2795 2.70351 0.996281
34 1 -1.1104 12.4083 -3.10794 3.83147
35 1 -1.1104 12.1468 2.64894 3.81524
36 1 -1.1104 12.3614 -0.156275 1.10014
37 2 2.2208 10.9346 -1.58192 2.34043
38 2 2.2208 10.8285 3.9966 2.46036
39 1 -1.1104 12.226 -0.144637 3.86095
40 1 -1.1104 9.63068 -2.8428 1.02257
41 1 -1.1104 9.4878 2.59874 0.912529
42 2 2.2208 8.04865 1.18265 2.47071
43 1 -1.1104 9.5636 -2.97335 3.82371
44 1 -1.1104 9.35365 2.7024 3.73841
45 2 2.2208 8.21163 -1.61768 5.21109
46 2 2.2208 8.08257 4.1146 5.20021
47 1 -1.1104 9.55366 -0.213239 1.01072
48 1 -1.1104 9.58381 -0.269314 3.89504
210 1 -1.1104 9.49009 -0.0780532 6.63118
205 1 -1.1104 12.1499 -3.03823 6.6892
207 1 -1.1104 12.3535 -0.298002 6.70294
9368 2 2.2208 -0.213894 20.9014 13.6294
358 2 2.2208 2.43978 1.3505 13.6228
9086 2 2.2208 -0.442192 9.78189 8.0455
8451 2 2.2208 10.8986 -4.40904 5.29384
54 2 2.2208 5.24648 6.913 5.112
55 2 2.2208 5.25921 12.4969 5.28505
56 1 -1.1104 1.05015 8.27607 1.04251
58 1 -1.1104 1.16495 8.38323 3.88929
60 1 -1.1104 1.04342 5.45368 0.939348
61 1 -1.1104 1.11347 11.2157 0.974276
66 2 2.2208 5.27794 9.72352 2.55438
67 1 -1.1104 1.23169 5.59838 3.88545
68 1 -1.1104 0.980781 11.0581 3.78911
71 1 -1.1104 3.87998 8.24782 1.10937
72 2 2.2208 2.43929 6.88201 2.3165
73 2 2.2208 2.43807 12.5896 2.31098
74 1 -1.1104 3.91285 8.31254 3.84325
75 2 2.2208 2.51409 9.85842 5.2079
76 1 -1.1104 3.94071 5.40828 0.95079
77 1 -1.1104 3.95753 10.9657 1.07957
79 1 -1.1104 3.97837 5.45161 3.80023
80 1 -1.1104 3.83701 11.0693 3.88852
236 1 -1.1104 1.11467 5.58088 6.61511
238 1 -1.1104 3.95502 8.2074 6.49563
235 1 -1.1104 6.79099 8.16697 6.46168
62 1 -1.1104 1.08318 11.1975 6.62243
65 1 -1.1104 6.66837 11.109 6.56415
8456 2 2.2208 10.9774 -4.31105 10.7963
78 1 -1.1104 3.85629 11.0558 6.7164
428 2 2.2208 2.54051 12.3955 13.6427
9018 2 2.2208 -0.408901 20.9874 2.34709
63 1 -1.1104 6.80175 5.46788 0.964515
69 1 -1.1104 6.78716 5.47255 3.71975
57 1 -1.1104 6.69959 8.26326 0.955886
70 1 -1.1104 6.68092 11.0661 3.88563
59 1 -1.1104 6.67603 8.33776 3.63703
64 1 -1.1104 6.7007 11.1061 1.09266
84 2 2.2208 10.9505 6.849 5.29687
85 2 2.2208 10.833 12.397 5.35635
86 1 -1.1104 12.2147 8.37663 0.996562
87 1 -1.1104 12.411 8.19677 3.91078
88 1 -1.1104 12.4216 5.47239 0.926979
89 1 -1.1104 12.2862 11.0202 1.16772
91 2 2.2208 10.9045 9.74757 2.47933
92 1 -1.1104 12.1558 5.40947 3.81964
93 1 -1.1104 12.2496 11.035 3.97443
94 1 -1.1104 9.38822 8.38196 1.10407
95 2 2.2208 8.0346 6.94316 2.43418
96 2 2.2208 8.15373 12.6085 2.42302
97 1 -1.1104 9.57889 8.314 3.84993
98 2 2.2208 8.08347 9.73409 5.18624
99 1 -1.1104 9.56857 5.41529 0.905489
100 1 -1.1104 9.56535 11.1799 1.00143
102 1 -1.1104 9.53208 5.5069 3.88393
103 1 -1.1104 9.55608 11.0347 3.8483
265 1 -1.1104 12.3783 8.26908 6.64828
267 1 -1.1104 9.5647 8.18228 6.61464
101 1 -1.1104 9.38921 11.0515 6.69165
266 1 -1.1104 12.2638 5.43435 6.66684
90 1 -1.1104 12.3081 10.9619 6.64101
269 1 -1.1104 9.5297 5.56658 6.79882
106 2 2.2208 5.2922 18.0808 5.2237
107 1 -1.1104 1.07854 14.0866 0.97687
109 1 -1.1104 1.06911 19.5995 0.942039
113 1 -1.1104 1.14259 13.9335 3.74655
114 1 -1.1104 0.986472 19.6264 3.74079
116 1 -1.1104 1.04737 16.8562 1.02939
119 2 2.2208 5.27609 15.3602 2.3718
120 2 2.2208 5.16563 21.0263 2.50842
121 1 -1.1104 1.24347 16.8961 3.74587
123 1 -1.1104 3.84164 13.9921 0.887419
125 1 -1.1104 3.68782 19.6597 0.964626
127 2 2.2208 2.42129 18.2119 2.3562
128 1 -1.1104 3.93031 13.844 3.76585
129 1 -1.1104 3.85716 19.517 3.87466
130 2 2.2208 2.42167 15.3576 5.10676
131 2 2.2208 2.38003 20.9101 5.21571
132 1 -1.1104 3.78866 16.8412 1.07938
134 1 -1.1104 3.96415 16.7953 3.72795
122 1 -1.1104 6.76817 16.6538 3.83229
117 1 -1.1104 1.07514 16.749 6.39869
154 1 -1.1104 9.49513 13.7407 6.56725
108 1 -1.1104 1.05181 14.0112 6.55095
126 1 -1.1104 3.92007 19.4693 6.64345
111 1 -1.1104 6.75085 13.9881 6.70328
302 1 -1.1104 1.09754 19.554 6.63135
140 1 -1.1104 6.63754 16.7545 1.03278
115 1 -1.1104 6.71625 13.9015 3.87655
200 1 -1.1104 9.33203 13.8242 12.1437
139 1 -1.1104 6.65039 19.3578 3.90802
118 1 -1.1104 6.7153 16.6969 6.59848
138 1 -1.1104 6.59023 19.4744 1.03923
110 1 -1.1104 6.73894 13.9316 1.12938
141 2 2.2208 10.8601 17.9279 5.23011
142 1 -1.1104 12.1099 13.7925 1.05404
144 1 -1.1104 12.3098 19.7358 0.922447
146 1 -1.1104 12.1484 13.8132 3.87101
147 1 -1.1104 12.2699 19.4512 3.72379
148 1 -1.1104 12.253 16.748 1.15639
150 2 2.2208 10.8951 15.2646 2.48399
151 2 2.2208 10.9645 20.9263 2.42747
152 1 -1.1104 12.3431 16.6012 3.74353
153 1 -1.1104 9.39866 14.0359 1.10397
155 1 -1.1104 9.37944 19.5328 1.10157
157 2 2.2208 7.9994 18.0402 2.38226
158 1 -1.1104 9.57772 13.6903 3.77052
159 1 -1.1104 9.55493 19.455 3.74233
160 2 2.2208 8.09732 15.2474 5.28348
161 2 2.2208 8.10753 20.735 5.1454
162 1 -1.1104 9.52475 16.839 1.03869
164 1 -1.1104 9.43353 16.5623 3.89879
163 1 -1.1104 9.55761 16.5471 6.69108
156 1 -1.1104 9.57087 19.3002 6.61321
29 2 2.2208 13.5935 9.67615 10.7105
199 1 -1.1104 12.1086 16.7581 9.48534
143 1 -1.1104 12.2212 13.9605 6.67307
145 1 -1.1104 12.3104 19.4654 6.51739
149 1 -1.1104 12.2864 16.6792 6.71516
112 1 -1.1104 6.68284 19.5486 6.64384
26 2 2.2208 13.7469 15.3418 10.9554
311 2 2.2208 8.05237 18.0125 7.91599
166 1 -1.1104 1.06491 -2.94658 6.70034
8885 2 2.2208 -0.179358 -1.48718 8.02035
390 2 2.2208 8.14459 1.35458 13.6512
8448 2 2.2208 2.52596 -4.45045 2.36783
169 1 -1.1104 6.66564 2.57357 6.66469
27 2 2.2208 13.6823 18.0999 8.00627
175 2 2.2208 5.29555 1.19498 10.8057
176 1 -1.1104 1.24 -2.92838 12.3943
177 1 -1.1104 1.18342 2.70189 12.2387
180 1 -1.1104 0.957747 -2.68692 9.40403
181 1 -1.1104 1.08087 2.51408 9.36346
184 1 -1.1104 1.05978 -0.14489 12.2322
186 2 2.2208 5.34506 -1.596 8.04647
187 2 2.2208 5.30741 4.09073 8.02187
188 1 -1.1104 1.23219 -0.122062 9.3978
190 1 -1.1104 4.07821 -2.86278 12.0989
191 1 -1.1104 3.95037 2.71631 12.0489
192 2 2.2208 2.65319 1.14314 8.00673
193 1 -1.1104 3.86127 -2.90735 9.26445
194 1 -1.1104 3.86936 2.59246 9.44006
195 2 2.2208 2.50825 -1.4855 10.8586
196 2 2.2208 2.60968 4.07081 10.7414
197 1 -1.1104 3.80615 -0.0316794 12.3112
198 1 -1.1104 3.995 -0.23881 9.48945
137 2 2.2208 -0.344793 18.2342 5.13362
8884 2 2.2208 -0.261842 1.30116 10.8484
297 1 -1.1104 6.57054 13.9925 12.3592
232 1 -1.1104 9.51775 19.3285 9.40582
171 1 -1.1104 6.8114 -0.316094 6.55838
490 2 2.2208 5.33161 20.8057 13.6787
208 1 -1.1104 9.44885 -3.05062 6.58541
209 1 -1.1104 9.51227 2.82159 6.41683
8833 2 2.2208 8.07951 -4.26422 13.5662
81 1 -1.1104 12.3545 19.504 9.29346
185 1 -1.1104 6.7369 -0.0490157 12.2137
189 1 -1.1104 6.81589 -0.225873 9.25246
178 1 -1.1104 6.79164 -2.88339 12.0728
206 1 -1.1104 12.1824 2.59641 6.70321
296 1 -1.1104 6.586 19.4286 12.2833
182 1 -1.1104 6.69274 -2.98161 9.23714
179 1 -1.1104 6.78944 2.70267 12.2002
183 1 -1.1104 6.69523 2.66195 9.43763
211 2 2.2208 10.8711 1.39077 10.8219
212 1 -1.1104 12.2543 -2.78322 12.2352
213 1 -1.1104 12.3931 2.89858 12.3881
214 1 -1.1104 12.2152 -2.88244 9.52917
215 1 -1.1104 12.2684 2.6011 9.60538
216 1 -1.1104 12.281 0.0715771 12.1868
217 2 2.2208 10.8599 -1.59026 8.09654
218 2 2.2208 10.8888 4.01977 8.05051
219 1 -1.1104 12.2331 -0.0710988 9.43312
220 1 -1.1104 9.55638 -2.9186 12.2265
221 1 -1.1104 9.58897 2.72118 12.2726
222 2 2.2208 8.07426 1.29463 7.99828
223 1 -1.1104 9.50613 -2.97743 9.44441
224 1 -1.1104 9.40863 2.65046 9.31903
225 2 2.2208 8.20973 -1.60446 10.8149
226 2 2.2208 8.1539 4.06847 10.8684
227 1 -1.1104 9.57339 -0.0295648 12.289
228 1 -1.1104 9.55599 -0.176018 9.54829
290 1 -1.1104 6.42961 13.8957 9.41768
203 2 2.2208 13.7108 20.9275 5.34962
239 1 -1.1104 3.82813 5.43749 6.50265
234 1 -1.1104 1.14052 8.42624 6.62376
240 2 2.2208 5.4168 7.09261 10.9883
241 2 2.2208 5.1918 12.452 10.842
242 1 -1.1104 1.02751 8.34635 12.0994
244 1 -1.1104 1.09719 8.18468 9.3679
246 1 -1.1104 1.00522 5.506 12.1467
247 1 -1.1104 1.13017 11.2358 12.1544
250 2 2.2208 5.3243 9.69702 8.00214
251 1 -1.1104 1.15974 5.29639 9.42682
252 1 -1.1104 1.07433 11.1753 9.45881
255 1 -1.1104 3.90572 8.45114 12.194
256 2 2.2208 2.55666 6.8494 7.84544
257 2 2.2208 2.53027 12.5471 8.10712
258 1 -1.1104 4.03189 8.4131 9.34375
259 2 2.2208 2.30451 9.57164 10.8224
260 1 -1.1104 3.8256 5.6122 12.3024
261 1 -1.1104 3.72516 11.1374 12.1511
262 1 -1.1104 3.91925 5.64391 9.4139
263 1 -1.1104 3.96775 11.156 9.39861
253 1 -1.1104 6.85132 5.55771 9.52333
314 1 -1.1104 9.3001 16.6434 9.42505
8454 2 2.2208 -0.214669 -4.26946 10.8087
105 2 2.2208 10.912 15.3037 8.0925
237 1 -1.1104 6.65403 5.45017 6.67659
455 2 2.2208 8.07968 12.49 13.6789
243 1 -1.1104 6.63995 8.48514 12.3693
245 1 -1.1104 6.74609 8.43739 9.5309
254 1 -1.1104 6.81224 11.1933 9.47901
249 1 -1.1104 6.45892 11.2269 12.3618
248 1 -1.1104 6.81191 5.61268 12.1516
264 1 -1.1104 9.57395 11.1023 9.50409
268 1 -1.1104 9.58544 5.45835 9.51564
270 1 -1.1104 9.45378 11.1624 12.3646
271 1 -1.1104 9.47766 5.55397 12.3395
272 2 2.2208 8.08994 9.82693 10.8936
273 1 -1.1104 9.53224 8.44929 9.5905
274 2 2.2208 8.01845 12.4775 8.05462
275 2 2.2208 8.07633 6.9794 8.12053
276 2 2.2208 10.9114 6.81177 10.822
277 2 2.2208 10.7895 12.5035 10.9223
278 1 -1.1104 12.3367 8.33153 12.1417
279 1 -1.1104 12.2258 8.23248 9.46627
280 1 -1.1104 12.2562 5.58206 12.2884
281 1 -1.1104 12.0438 11.0571 12.0531
282 2 2.2208 10.9172 9.7008 8.16134
283 1 -1.1104 12.451 5.38566 9.44935
284 1 -1.1104 12.2649 11.147 9.47002
285 1 -1.1104 9.46816 8.31853 12.371
357 2 2.2208 5.34938 -1.51379 13.5668
136 2 2.2208 10.818 20.8034 8.00575
427 2 2.2208 5.29008 9.67053 13.6408
288 1 -1.1104 6.80849 19.4815 9.47498
124 1 -1.1104 3.82016 13.8669 6.57229
133 1 -1.1104 3.83518 16.6036 6.49782
289 1 -1.1104 6.51749 16.6392 9.45662
28 2 2.2208 -0.402332 12.6148 10.7307
316 2 2.2208 7.98582 20.8562 10.8439
391 2 2.2208 10.8895 -1.49 13.59
286 1 -1.1104 4.03764 19.6504 12.172
287 1 -1.1104 3.83206 13.8819 12.171
291 1 -1.1104 1.04362 19.5996 9.36384
292 1 -1.1104 0.950639 16.8141 9.18428
293 2 2.2208 5.27628 20.8729 7.9759
294 1 -1.1104 0.987277 13.9822 9.40794
295 2 2.2208 5.14249 15.2737 7.97081
298 1 -1.1104 1.14929 19.5883 12.2348
299 1 -1.1104 1.18954 14.0743 12.3197
300 2 2.2208 5.31576 18.0759 10.7831
301 1 -1.1104 3.95664 19.4547 9.35994
303 2 2.2208 2.38542 18.1245 7.82527
304 1 -1.1104 3.84592 16.7541 9.27821
305 1 -1.1104 3.73845 14.0114 9.26381
307 1 -1.1104 1.182 16.8199 12.127
308 1 -1.1104 3.99038 16.7585 12.1714
309 2 2.2208 2.5831 20.9362 10.9355
310 2 2.2208 2.51557 15.2316 10.7592
392 2 2.2208 10.9137 4.22057 13.7043
491 2 2.2208 5.23878 15.3618 13.6627
312 1 -1.1104 9.44034 13.8104 9.46524
53 1 -1.1104 12.326 14.0022 9.50171
233 2 2.2208 7.99399 15.3597 10.7882
30 2 2.2208 10.9766 18.1243 10.8213
306 1 -1.1104 6.757 16.7618 12.3173
50 1 -1.1104 12.2908 19.4976 12.1522
313 2 2.2208 -0.382271 15.3196 7.97371
201 1 -1.1104 9.44617 19.5825 12.1316
82 1 -1.1104 12.3144 16.6707 12.1838
315 1 -1.1104 9.4613 16.8274 12.1439
49 1 -1.1104 12.1647 13.9659 12.1956
9149 2 2.2208 -0.243868 4.15017 2.40373
579 2 2.2208 13.7318 6.84703 13.7183
135 2 2.2208 -0.411846 15.431 2.38242
8859 2 2.2208 -0.267457 20.961 7.98071
517 2 2.2208 10.7648 15.4641 13.6203
9119 2 2.2208 13.7454 20.8427 10.8374
453 2 2.2208 8.13 6.99261 13.6399
8992 2 2.2208 13.8524 4.09633 10.914
204 2 2.2208 13.7246 9.69599 5.10533
104 2 2.2208 13.657 12.445 2.32954
9148 2 2.2208 -0.329965 1.27061 5.25095
83 2 2.2208 -0.353939 12.521 5.19523
165 2 2.2208 13.7596 18.1059 2.42609
202 2 2.2208 13.5936 15.1696 5.17752
51 2 2.2208 13.6905 12.4729 7.96235
8452 2 2.2208 2.49227 -4.31535 8.02356
544 2 2.2208 5.25459 1.22825 -0.514402
546 2 2.2208 2.49147 3.91095 -0.490625
426 2 2.2208 2.49773 6.99202 13.6286
489 2 2.2208 2.48969 18.1085 13.664
615 2 2.2208 -0.300449 6.84197 -0.378218
8829 2 2.2208 2.58065 -4.31281 13.6035
317 2 2.2208 5.23651 1.32192 16.3638
318 1 -1.1104 1.0816 -2.87257 17.7639
319 1 -1.1104 1.20518 2.68841 17.8856
322 1 -1.1104 1.09293 -2.94789 14.8573
324 1 -1.1104 1.04675 2.61217 15.0504
330 1 -1.1104 1.15319 -0.0403844 17.8329
332 2 2.2208 5.33492 -1.53753 19.2098
333 2 2.2208 5.37145 4.0496 19.1781
334 1 -1.1104 0.916779 -0.160514 15.1407
338 1 -1.1104 3.71068 -2.91129 17.7415
339 1 -1.1104 3.97532 2.52934 17.6973
340 2 2.2208 2.54677 1.30691 19.3387
341 1 -1.1104 3.90536 -2.9066 14.9509
343 1 -1.1104 3.80812 2.72419 14.973
345 2 2.2208 2.43712 -1.49514 16.4381
346 2 2.2208 2.48957 4.10602 16.4674
347 1 -1.1104 4.00099 -0.048126 17.849
348 1 -1.1104 3.88229 -0.105276 15.0772
8827 2 2.2208 5.16969 -4.2441 16.3828
8524 2 2.2208 10.963 -4.39967 21.983
323 1 -1.1104 1.17871 -2.80058 20.6247
344 1 -1.1104 3.98028 2.66077 20.5334
547 2 2.2208 8.14951 15.3726 27.6509
8828 2 2.2208 2.53083 -4.2683 19.1987
9371 2 2.2208 -0.355577 1.29296 16.4571
635 2 2.2208 8.0702 9.85314 27.7485
9219 2 2.2208 -0.278598 1.23127 27.6576
336 1 -1.1104 6.63985 -0.113929 15.0316
326 1 -1.1104 6.67973 -3.00688 15.0185
331 1 -1.1104 6.72182 0.0580583 17.7694
320 1 -1.1104 6.64856 -2.81276 17.803
328 1 -1.1104 6.73344 2.77486 15.1102
321 1 -1.1104 6.67628 2.69589 17.8458
360 2 2.2208 10.8445 1.32741 16.5386
361 1 -1.1104 12.4197 -2.88036 17.8081
362 1 -1.1104 12.348 2.76673 17.9291
363 1 -1.1104 12.2094 -2.91817 15.1216
365 1 -1.1104 12.3088 2.67532 15.0524
367 1 -1.1104 12.3764 -0.075761 17.9148
368 2 2.2208 10.8598 -1.59762 19.237
369 2 2.2208 10.9775 4.11757 19.2833
370 1 -1.1104 12.0867 -0.15873 15.1053
372 1 -1.1104 9.55072 -3.02142 17.7639
373 1 -1.1104 9.58785 2.64492 17.8098
374 2 2.2208 8.04486 1.36969 19.2325
375 1 -1.1104 9.44359 -2.78108 15.0229
377 1 -1.1104 9.51506 2.84523 15.0338
379 2 2.2208 8.01316 -1.52618 16.4432
380 2 2.2208 8.20995 4.2047 16.405
381 1 -1.1104 9.42185 -0.151467 17.8009
382 1 -1.1104 9.41204 -0.0944041 14.9981
366 1 -1.1104 12.3663 2.67152 20.7121
364 1 -1.1104 12.2356 -3.08701 20.5462
327 1 -1.1104 6.76138 -3.01013 20.4946
613 2 2.2208 -0.266927 9.68224 24.8204
329 1 -1.1104 6.73992 2.69161 20.6418
337 1 -1.1104 6.71004 -0.140193 20.7155
376 1 -1.1104 9.48802 -2.91169 20.5829
371 1 -1.1104 12.1742 -0.170091 20.7873
9386 2 2.2208 13.7931 4.11399 22.032
548 2 2.2208 10.9718 18.1879 27.7092
393 2 2.2208 5.30678 6.85203 16.4361
394 2 2.2208 5.19703 12.5057 16.5904
395 1 -1.1104 1.16538 8.29551 17.8019
397 1 -1.1104 1.09902 8.4447 14.9598
401 1 -1.1104 1.02885 5.43508 17.7185
402 1 -1.1104 1.06955 11.0833 17.9411
405 2 2.2208 5.23097 9.70199 19.2414
406 1 -1.1104 1.06773 5.54567 14.9946
408 1 -1.1104 1.12115 11.2579 15.0999
414 1 -1.1104 3.99159 8.15784 17.9672
415 2 2.2208 2.47668 6.87517 19.289
416 2 2.2208 2.50157 12.4532 19.1864
417 1 -1.1104 3.77478 8.36221 14.9054
419 2 2.2208 2.4138 9.65599 16.487
420 1 -1.1104 3.97786 5.38285 17.8062
421 1 -1.1104 3.82026 11.0574 17.7841
422 1 -1.1104 3.83664 5.49985 14.9015
424 1 -1.1104 3.8377 11.0179 15.0752
407 1 -1.1104 0.971842 5.55654 20.4796
404 1 -1.1104 6.60397 11.1305 18.0742
396 1 -1.1104 6.62778 8.43365 17.8526
612 2 2.2208 -0.297673 12.5995 27.6496
418 1 -1.1104 3.93051 8.32663 20.7822
685 1 -1.1104 12.343 13.9485 26.1831
9366 2 2.2208 -0.452196 18.1005 16.5247
686 2 2.2208 13.7238 4.16576 16.4346
578 2 2.2208 13.7738 9.8246 16.3578
412 1 -1.1104 6.69001 11.2797 15.164
399 1 -1.1104 6.6867 8.29424 15.0728
403 1 -1.1104 6.77915 5.55922 17.8499
410 1 -1.1104 6.70687 5.55015 15.0051
429 2 2.2208 10.9582 6.9669 16.378
430 2 2.2208 10.9135 12.4772 16.4454
431 1 -1.1104 12.348 8.3516 17.674
432 1 -1.1104 12.3138 8.3459 14.8409
434 1 -1.1104 12.3091 5.55438 17.6709
435 1 -1.1104 12.2473 11.0967 17.9072
436 2 2.2208 10.857 9.68738 19.193
437 1 -1.1104 12.284 5.51564 15.0574
439 1 -1.1104 12.3531 11.1891 15.1312
441 1 -1.1104 9.52736 8.26403 17.9233
442 2 2.2208 8.03925 6.9794 19.2339
443 2 2.2208 8.12428 12.4651 19.3778
444 1 -1.1104 9.4146 8.46316 15.137
446 2 2.2208 8.04208 9.80549 16.4607
447 1 -1.1104 9.5449 5.47475 17.8813
448 1 -1.1104 9.36319 11.0309 17.9274
449 1 -1.1104 9.63944 5.63246 15.0536
451 1 -1.1104 9.55146 11.0958 15.1092
452 1 -1.1104 9.58613 11.1338 20.5978
438 1 -1.1104 12.3401 5.48994 20.562
450 1 -1.1104 9.48578 5.40773 20.69
400 1 -1.1104 6.71536 8.3835 20.7957
671 1 -1.1104 9.51136 16.7317 23.3731
440 1 -1.1104 12.364 11.2034 20.8074
445 1 -1.1104 9.48636 8.3579 20.725
545 2 2.2208 2.50814 -1.48302 27.6188
611 2 2.2208 5.26708 12.5735 27.6855
456 2 2.2208 5.29815 18.0265 16.3747
457 1 -1.1104 1.08016 13.8629 17.9073
458 1 -1.1104 1.06235 19.4679 17.7905
461 1 -1.1104 1.06331 13.9498 15.0775
463 1 -1.1104 1.11738 19.506 15.0721
469 1 -1.1104 1.13254 16.5934 17.8405
471 2 2.2208 5.15554 15.2076 19.305
472 2 2.2208 5.30043 20.7985 19.3053
473 1 -1.1104 1.01162 16.8058 15.0555
477 1 -1.1104 3.70201 13.8884 17.9199
478 1 -1.1104 3.88321 19.4595 17.7805
479 2 2.2208 2.45192 18.0872 19.1792
480 1 -1.1104 3.86984 13.7609 15.0308
482 1 -1.1104 3.91623 19.3793 14.9586
484 2 2.2208 2.37587 15.2936 16.5359
485 2 2.2208 2.61791 20.8282 16.3745
486 1 -1.1104 3.86039 16.6389 17.7763
487 1 -1.1104 3.80827 16.6778 14.9433
464 1 -1.1104 0.929953 19.3815 20.5885
8832 2 2.2208 8.09642 -4.41053 19.1138
468 1 -1.1104 6.65174 19.5621 20.745
474 1 -1.1104 0.902312 16.7258 20.544
488 1 -1.1104 3.64035 16.7151 20.7581
483 1 -1.1104 3.7436 19.4071 20.6235
688 2 2.2208 13.7918 1.29629 19.2352
609 2 2.2208 5.35729 6.93131 27.695
683 1 -1.1104 12.3818 16.6303 23.5445
496 1 -1.1104 12.2083 13.9116 20.6223
466 1 -1.1104 6.6238 13.8831 20.7241
475 1 -1.1104 6.71869 16.5909 15.1978
460 1 -1.1104 6.67762 19.518 17.894
465 1 -1.1104 6.70233 13.9588 15.1322
470 1 -1.1104 6.46696 16.6619 17.7898
459 1 -1.1104 6.58971 13.8736 18.02
467 1 -1.1104 6.69517 19.4196 15.0422
492 2 2.2208 10.8509 18.1305 16.431
493 1 -1.1104 12.371 13.8147 17.8126
494 1 -1.1104 12.3063 19.3913 17.7951
495 1 -1.1104 12.2902 14.0339 14.997
497 1 -1.1104 12.3233 19.6987 15.0208
499 1 -1.1104 12.2168 16.6194 17.8993
500 2 2.2208 10.8952 15.1573 19.201
501 2 2.2208 10.8125 20.8041 19.3011
502 1 -1.1104 12.3689 16.8992 15.1229
504 1 -1.1104 9.58434 13.8493 17.7857
505 1 -1.1104 9.37709 19.4351 17.7989
506 2 2.2208 7.99154 18.0792 19.3273
507 1 -1.1104 9.485 13.7548 14.8749
509 1 -1.1104 9.63878 19.4427 15.028
511 2 2.2208 8.04919 15.2651 16.4857
512 2 2.2208 8.04025 20.7513 16.4191
513 1 -1.1104 9.40302 16.7572 17.8328
514 1 -1.1104 9.47367 16.6134 14.9844
503 1 -1.1104 12.2379 16.5689 20.6716
508 1 -1.1104 9.50202 13.945 20.6759
510 1 -1.1104 9.53458 19.3988 20.7623
476 1 -1.1104 6.47485 16.6725 20.6291
498 1 -1.1104 12.351 19.5393 20.4959
342 1 -1.1104 4.05013 -2.91139 20.5902
681 2 2.2208 10.7462 21.0343 24.7608
9370 2 2.2208 13.7713 15.3662 21.9558
610 2 2.2208 2.4798 9.64516 27.6684
684 1 -1.1104 12.3713 19.5695 26.1894
335 1 -1.1104 0.928564 -0.0188851 20.571
325 1 -1.1104 1.12914 2.62769 20.7663
349 1 -1.1104 3.88517 -0.239835 20.7436
669 1 -1.1104 12.2311 19.5036 23.2401
520 2 2.2208 5.31672 1.36127 22.0764
521 1 -1.1104 1.11226 -2.90582 23.3915
522 1 -1.1104 1.00281 2.67596 23.6277
525 1 -1.1104 1.15102 -2.95459 26.3069
526 1 -1.1104 0.916403 2.64586 26.3667
529 1 -1.1104 0.986721 -0.0390204 23.347
531 2 2.2208 5.28862 -1.48163 24.8847
532 2 2.2208 5.29293 4.18877 24.8413
533 1 -1.1104 1.1505 -0.175053 26.0805
535 1 -1.1104 3.90293 -2.79168 23.3846
536 1 -1.1104 3.8815 2.90825 23.3043
537 2 2.2208 2.45355 1.27175 24.6478
538 1 -1.1104 3.87483 -2.9199 26.3051
539 1 -1.1104 3.78039 2.68031 26.1314
540 2 2.2208 2.48574 -1.58012 21.987
541 2 2.2208 2.48309 4.19989 22.025
542 1 -1.1104 3.89462 0.0384681 23.4182
543 1 -1.1104 3.88118 -0.124823 26.2577
678 1 -1.1104 9.43168 19.3714 23.5045
668 2 2.2208 -0.308994 21.0142 24.8979
383 1 -1.1104 9.43507 -0.0927887 20.6376
637 1 -1.1104 12.1837 13.9573 23.1993
530 1 -1.1104 6.5897 -0.156653 23.6011
527 1 -1.1104 6.74928 -2.94443 26.1598
528 1 -1.1104 6.7564 2.63472 26.3649
523 1 -1.1104 6.76912 -2.92992 23.3094
378 1 -1.1104 9.51146 2.51254 20.6688
524 1 -1.1104 6.73641 2.7832 23.6289
534 1 -1.1104 6.68928 -0.225064 26.3551
556 2 2.2208 10.8979 1.26303 22.0166
557 1 -1.1104 12.3358 -3.05078 23.2889
558 1 -1.1104 12.2761 2.77475 23.3921
559 1 -1.1104 12.4689 -2.6995 26.1114
560 1 -1.1104 12.4064 2.82743 26.1742
561 1 -1.1104 12.3706 -0.0677932 23.4968
562 2 2.2208 10.9005 -1.52046 24.7987
563 2 2.2208 10.9165 4.10958 24.8628
564 1 -1.1104 12.4086 0.0462414 26.4516
565 1 -1.1104 9.56705 -3.00402 23.3686
566 1 -1.1104 9.59418 2.6691 23.4242
567 2 2.2208 8.18466 1.21801 24.9717
568 1 -1.1104 9.57529 -2.90477 26.2225
569 1 -1.1104 9.66121 2.6501 26.2908
570 2 2.2208 8.11096 -1.47699 21.9536
571 2 2.2208 8.08631 4.09938 22.0507
572 1 -1.1104 9.55215 -0.214375 23.4912
573 1 -1.1104 9.5347 -0.0218788 26.2705
423 1 -1.1104 3.93928 5.47028 20.6609
398 1 -1.1104 1.04988 8.28367 20.6417
386 2 2.2208 -0.394577 9.71031 13.5618
555 2 2.2208 -0.314188 4.02788 24.8368
674 1 -1.1104 9.61727 19.4708 26.229
425 1 -1.1104 3.88194 11.0201 20.6897
409 1 -1.1104 1.15052 11.0254 20.6872
585 2 2.2208 5.35507 6.93866 22.1624
586 2 2.2208 5.21438 12.5184 22.0763
587 1 -1.1104 1.20667 8.44825 23.5309
589 1 -1.1104 1.17179 8.31787 26.3141
591 1 -1.1104 1.17129 5.46755 23.3336
592 1 -1.1104 1.10452 11.0712 23.5402
595 2 2.2208 5.22898 9.71615 24.8994
596 1 -1.1104 1.01391 5.46946 26.1972
597 1 -1.1104 1.22074 11.0114 26.1915
600 1 -1.1104 3.96093 8.36568 23.4878
601 2 2.2208 2.46264 6.81928 24.9092
602 2 2.2208 2.41294 12.5946 25.0034
603 1 -1.1104 3.81239 8.41878 26.1885
604 2 2.2208 2.49566 9.72868 22.2383
605 1 -1.1104 3.98276 5.63457 23.2871
606 1 -1.1104 4.00282 11.2358 23.6787
607 1 -1.1104 3.84442 5.39995 26.2423
608 1 -1.1104 3.87449 11.1785 26.3531
588 1 -1.1104 6.73559 8.25877 23.5865
593 1 -1.1104 6.66021 5.47723 23.4969
594 1 -1.1104 6.77235 11.1 23.3602
590 1 -1.1104 6.72262 8.3704 26.1933
663 2 2.2208 2.47627 21.0083 27.6932
599 1 -1.1104 6.67545 11.1201 26.2209
413 1 -1.1104 6.73348 11.0099 20.6043
433 1 -1.1104 12.2456 8.42179 20.496
411 1 -1.1104 6.75938 5.42966 20.4596
598 1 -1.1104 6.56988 5.4847 26.2156
616 1 -1.1104 9.4912 11.0236 26.1463
617 1 -1.1104 9.54604 5.56548 26.2666
618 1 -1.1104 9.52686 11.1159 23.4486
619 1 -1.1104 9.50182 5.37638 23.4804
620 2 2.2208 8.07044 9.78001 22.0646
621 1 -1.1104 9.45941 8.3079 26.3118
622 2 2.2208 7.98636 12.6247 24.8141
623 2 2.2208 8.1158 6.87549 24.8245
624 2 2.2208 10.9182 6.94796 22.0761
625 2 2.2208 10.8371 12.5369 22.0674
626 1 -1.1104 12.2319 8.27446 23.48
627 1 -1.1104 12.2426 8.13128 26.3351
628 1 -1.1104 12.3122 5.49669 23.3632
629 1 -1.1104 12.2086 11.208 23.7016
630 2 2.2208 10.7971 9.64188 24.9938
631 1 -1.1104 12.4467 5.47252 26.1817
632 1 -1.1104 12.3252 11.1532 26.3605
633 1 -1.1104 9.42114 8.28203 23.4699
647 1 -1.1104 6.50965 19.6177 23.4615
670 1 -1.1104 9.46869 16.7377 26.1563
515 1 -1.1104 9.20909 16.7624 20.5964
574 2 2.2208 10.8894 1.23047 27.7102
665 2 2.2208 2.42314 15.4996 27.7121
676 1 -1.1104 6.57095 19.5792 26.1818
680 1 -1.1104 12.3049 16.7421 26.44
553 2 2.2208 10.8843 18.0228 22.0292
576 2 2.2208 8.22123 4.10199 27.6897
481 1 -1.1104 3.66475 13.8118 20.6413
672 2 2.2208 8.05351 20.9487 22.1066
641 1 -1.1104 6.62382 13.9443 26.327
462 1 -1.1104 0.819361 13.9211 20.723
646 1 -1.1104 1.08444 13.9765 26.3782
648 2 2.2208 5.18478 20.9518 24.8499
662 2 2.2208 2.36102 15.2853 22.0087
661 2 2.2208 2.32097 20.9992 22.0173
660 1 -1.1104 3.86825 16.7014 23.5044
659 1 -1.1104 1.03082 16.6298 23.5188
657 1 -1.1104 3.9205 13.9236 26.1504
656 1 -1.1104 3.85347 16.7119 26.2883
655 2 2.2208 2.45661 18.1861 24.9389
654 1 -1.1104 3.854 19.5656 26.297
653 2 2.2208 5.16646 18.0561 22.0459
652 1 -1.1104 1.02049 13.832 23.567
651 1 -1.1104 1.08645 19.7176 23.4263
649 2 2.2208 5.21799 15.2042 24.8107
640 1 -1.1104 3.77045 19.4845 23.4598
642 1 -1.1104 3.81429 13.9365 23.303
644 1 -1.1104 0.964079 19.5661 26.2577
645 1 -1.1104 1.01742 16.8529 26.3619
658 1 -1.1104 6.63409 16.74 23.4787
643 1 -1.1104 6.63573 16.7288 26.3653
664 2 2.2208 5.20342 18.0929 27.6674
673 2 2.2208 8.13931 15.4086 22.09
667 2 2.2208 -0.437843 18.2512 27.6337
552 2 2.2208 8.04163 20.8824 27.6757
682 2 2.2208 10.9379 15.2592 24.7827
679 1 -1.1104 9.46263 13.8953 23.4563
677 2 2.2208 8.06941 18.2174 24.8891
650 1 -1.1104 6.67955 13.9172 23.5171
675 1 -1.1104 9.59948 13.949 26.2878
551 2 2.2208 13.576 12.4522 19.3656
666 2 2.2208 -0.404456 15.399 24.9419
9184 2 2.2208 -0.399341 -1.66201 24.8321
359 2 2.2208 5.24719 4.20433 13.5672
554 2 2.2208 -0.408239 1.22989 21.9999
636 2 2.2208 11.0255 12.4315 27.6068
575 2 2.2208 8.17411 -1.47491 27.6157
614 2 2.2208 -0.389985 12.5657 22.1441
634 2 2.2208 10.8674 6.8432 27.7473
9369 2 2.2208 13.8598 18.139 24.7922
8826 2 2.2208 -0.329133 -4.25635 16.4584
8830 2 2.2208 13.7284 -4.40556 19.1979
518 2 2.2208 8.15341 17.9961 13.5729
516 2 2.2208 10.9786 20.9434 13.5317
454 2 2.2208 10.8685 9.79236 13.5859
689 2 2.2208 5.27192 23.64 5.20006
690 2 2.2208 5.24097 29.228 5.15365
691 1 -1.1104 1.11121 25.1137 1.02521
692 1 -1.1104 1.13831 25.1731 3.90056
693 1 -1.1104 1.03473 22.3799 0.932237
694 1 -1.1104 1.08159 27.8507 1.11027
695 2 2.2208 5.34678 26.4406 2.49558
696 1 -1.1104 1.07475 22.2965 3.72566
697 1 -1.1104 0.90694 27.9478 3.8439
698 1 -1.1104 3.9092 25.0576 1.01821
699 2 2.2208 2.43399 23.6895 2.4062
700 2 2.2208 2.5392 29.3192 2.41312
701 1 -1.1104 3.80904 25.0615 3.84881
702 2 2.2208 2.5045 26.5022 5.35326
703 1 -1.1104 3.90861 22.3786 0.923062
704 1 -1.1104 3.75399 27.8688 1.05935
705 1 -1.1104 3.75081 22.2326 3.79833
706 1 -1.1104 3.84933 27.8814 3.79899
837 1 -1.1104 3.80707 22.2078 6.61426
713 1 -1.1104 6.65522 27.8469 1.07115
712 1 -1.1104 6.66929 22.3541 0.865022
710 1 -1.1104 6.72195 24.9866 0.995236
715 1 -1.1104 6.72636 27.8078 3.91057
711 1 -1.1104 6.79052 24.978 3.72852
831 1 -1.1104 6.72042 24.8952 6.56828
834 1 -1.1104 6.66212 22.1596 6.63237
836 1 -1.1104 3.89279 25.1338 6.58594
832 1 -1.1104 1.10506 22.3449 6.54792
807 2 2.2208 -0.396941 40.4638 5.04507
987 2 2.2208 13.6617 46.1019 8.01457
714 1 -1.1104 6.58236 22.3279 3.7981
716 2 2.2208 10.8466 23.6151 5.1861
717 2 2.2208 10.7265 29.2257 5.2787
718 1 -1.1104 12.2877 25.114 1.26079
719 1 -1.1104 12.2746 25.0746 3.95577
720 1 -1.1104 12.336 22.305 1.00849
721 1 -1.1104 12.1851 27.7998 1.09489
722 2 2.2208 11.0632 26.4626 2.48939
723 1 -1.1104 12.2107 22.1794 3.94355
724 1 -1.1104 12.4443 27.9758 4.05978
725 1 -1.1104 9.41416 25.1144 0.936154
726 2 2.2208 8.04674 23.6171 2.42343
727 2 2.2208 8.18689 29.2517 2.42475
728 1 -1.1104 9.42224 25.1189 3.68439
729 2 2.2208 8.08223 26.4194 5.19923
730 1 -1.1104 9.60842 22.2707 0.997313
731 1 -1.1104 9.40441 27.781 0.91084
732 1 -1.1104 9.26679 22.293 3.8
733 1 -1.1104 9.61629 27.8121 3.79725
866 1 -1.1104 9.52987 24.9473 6.49416
864 1 -1.1104 12.3557 22.2771 6.74137
867 1 -1.1104 9.61601 22.214 6.43363
835 1 -1.1104 6.66189 27.8078 6.63495
868 1 -1.1104 9.38466 27.7486 6.73806
9804 2 2.2208 -0.309606 23.7765 5.15062
9805 2 2.2208 13.7242 23.6776 2.48939
986 2 2.2208 13.6994 43.2901 5.22999
737 2 2.2208 5.25656 34.8186 5.17468
738 1 -1.1104 1.18468 30.6908 0.976679
739 1 -1.1104 1.10718 36.2784 0.828427
741 1 -1.1104 1.04097 30.7407 3.82551
742 1 -1.1104 1.08714 36.3528 3.63832
744 1 -1.1104 1.11937 33.4601 0.889761
745 2 2.2208 5.31943 32.0706 2.26894
746 2 2.2208 5.25077 37.5908 2.33128
747 1 -1.1104 1.02429 33.5805 3.73908
749 1 -1.1104 3.87654 30.6725 0.974736
750 1 -1.1104 3.96656 36.1663 0.931367
751 2 2.2208 2.41208 34.8421 2.31983
752 1 -1.1104 3.89742 30.7295 3.75685
753 1 -1.1104 3.83418 36.0706 3.72143
754 2 2.2208 2.45269 32.1028 5.15476
755 2 2.2208 2.43714 37.5829 5.13134
756 1 -1.1104 3.85665 33.4711 0.863287
757 1 -1.1104 3.96695 33.3796 3.60745
882 1 -1.1104 0.958207 30.7323 6.62219
888 1 -1.1104 3.88791 30.6343 6.44863
748 1 -1.1104 6.69378 33.34 3.81911
761 1 -1.1104 6.66354 30.6724 0.933305
743 1 -1.1104 6.6215 36.0745 3.77247
890 1 -1.1104 3.88858 33.4566 6.64239
889 1 -1.1104 3.88099 36.341 6.59654
884 1 -1.1104 6.68051 30.7653 6.66443
885 1 -1.1104 6.76214 36.2882 6.63938
1085 2 2.2208 2.4465 34.8933 13.4472
740 1 -1.1104 6.84916 36.2914 1.07021
9719 2 2.2208 -0.302727 34.9284 10.7506
763 1 -1.1104 6.73068 33.4446 0.973906
762 1 -1.1104 6.58395 30.5578 3.76737
764 2 2.2208 10.9708 34.8443 5.25385
765 1 -1.1104 12.4005 30.5522 1.13179
766 1 -1.1104 12.4347 36.2035 1.10735
767 1 -1.1104 12.1317 30.6272 3.98271
768 1 -1.1104 12.4769 36.2668 3.88603
769 1 -1.1104 12.2971 33.374 1.04352
770 2 2.2208 10.8393 31.9363 2.36655
771 2 2.2208 10.9507 37.6085 2.3306