ITEM: TIMESTEP
100000
ITEM: NUMBER OF ATOMS
17640
ITEM: BOX BOUNDS pp pp pp
-3.5630032543254980e-01 2.7696300325432787e+01
-4.3472555194556541e+00 3.3242725551945477e+02
-3.5505382560690857e-01 2.7695053825607896e+01
ITEM: ATOMS id type q x y z
1 2 2.2208 5.23797 1.26157 5.33734
2 1 -1.1104 0.995218 -3.10554 1.25522
3 1 -1.1104 1.1028 2.65138 0.865357
6 1 -1.1104 0.990697 -3.02073 3.94726
7 1 -1.1104 0.921075 2.688 3.77157
10 1 -1.1104 1.21273 -0.184266 1.13929
12 2 2.2208 5.36433 -1.64475 2.45328
13 2 2.2208 5.22738 4.05154 2.41781
14 1 -1.1104 1.0034 -0.198009 3.79795
16 1 -1.1104 3.97749 -2.96574 1.13029
17 1 -1.1104 3.84239 2.71873 0.966994
18 2 2.2208 2.43656 1.1779 2.46304
19 1 -1.1104 3.72688 -3.09625 3.93498
20 1 -1.1104 3.94836 2.71795 3.86672
21 2 2.2208 2.34847 -1.56061 5.27367
22 2 2.2208 2.58032 4.0577 5.29285
23 1 -1.1104 3.93458 -0.181611 1.05222
24 1 -1.1104 3.76112 -0.0880335 3.96217
166 1 -1.1104 1.04475 -2.96463 6.62672
170 1 -1.1104 0.888277 -0.214225 6.61864
172 1 -1.1104 3.83404 -2.78887 6.69674
9 1 -1.1104 6.85689 2.52103 3.89642
8 1 -1.1104 6.60442 -2.93955 3.98298
26 2 2.2208 13.7365 15.3823 10.7633
173 1 -1.1104 3.9028 2.69817 6.74062
314 1 -1.1104 9.44137 16.7073 9.41119
8455 2 2.2208 8.1422 -4.35741 8.05887
290 1 -1.1104 6.68037 13.906 9.388
11 1 -1.1104 6.71738 -0.204087 0.999003
15 1 -1.1104 6.61775 -0.0991292 3.78204
4 1 -1.1104 6.69584 -3.18763 1.19721
5 1 -1.1104 6.79325 2.70435 1.10381
31 2 2.2208 10.9657 1.25865 5.21589
32 1 -1.1104 12.2636 -3.05466 1.06797
33 1 -1.1104 12.2761 2.66603 0.925415
34 1 -1.1104 12.3744 -2.82063 3.86415
35 1 -1.1104 12.2814 2.63452 3.67987
36 1 -1.1104 12.4405 -0.083563 0.830189
37 2 2.2208 10.9668 -1.45821 2.39452
38 2 2.2208 10.8794 4.07629 2.4086
39 1 -1.1104 12.2911 -0.0785257 3.6599
40 1 -1.1104 9.45775 -2.77683 1.08091
41 1 -1.1104 9.50892 2.61483 1.04
42 2 2.2208 8.12741 1.20409 2.48792
43 1 -1.1104 9.40125 -2.73641 3.91667
44 1 -1.1104 9.42014 2.76589 3.87515
45 2 2.2208 8.06367 -1.42081 5.21812
46 2 2.2208 8.12812 4.12455 5.27038
47 1 -1.1104 9.73446 -0.0513452 0.976533
48 1 -1.1104 9.54879 0.00190948 3.84632
206 1 -1.1104 12.3044 2.7121 6.56109
207 1 -1.1104 12.3361 -0.04639 6.60328
8450 2 2.2208 8.13286 -4.32402 2.54301
17273 2 2.2208 13.7161 -4.39509 2.36663
171 1 -1.1104 6.70677 -0.0434797 6.68435
289 1 -1.1104 6.73714 16.642 9.39164
169 1 -1.1104 6.60625 2.69692 6.65548
205 1 -1.1104 12.354 -2.78579 6.59332
9119 2 2.2208 13.8003 21.1618 10.8755
8829 2 2.2208 2.56842 -4.4111 13.5606
54 2 2.2208 5.29421 6.83614 5.2849
55 2 2.2208 5.2538 12.4722 5.29889
56 1 -1.1104 0.949639 8.36016 1.02266
58 1 -1.1104 1.10976 8.32766 3.7442
60 1 -1.1104 1.13761 5.35077 0.885568
61 1 -1.1104 1.11491 11.0203 0.933854
66 2 2.2208 5.18386 9.71631 2.62454
67 1 -1.1104 1.14549 5.5199 3.71814
68 1 -1.1104 0.750268 11.1875 3.83847
71 1 -1.1104 3.84987 8.47308 1.06359
72 2 2.2208 2.50064 6.96274 2.26927
73 2 2.2208 2.42071 12.5379 2.45377
74 1 -1.1104 3.92278 8.19014 4.00222
75 2 2.2208 2.36258 9.56284 5.34255
76 1 -1.1104 4.02974 5.66186 1.02033
77 1 -1.1104 3.74842 11.0807 1.28391
79 1 -1.1104 3.92187 5.35423 3.90157
80 1 -1.1104 3.76026 11.0154 4.1152
236 1 -1.1104 1.1561 5.43706 6.61019
70 1 -1.1104 6.69571 11.0286 3.87971
69 1 -1.1104 6.70767 5.47492 3.86539
296 1 -1.1104 6.68938 19.3322 12.2161
78 1 -1.1104 3.77926 11.1851 6.76591
238 1 -1.1104 3.87206 8.36075 6.79485
8833 2 2.2208 8.26019 -4.37945 13.579
29 2 2.2208 13.7468 9.76099 10.7874
9052 2 2.2208 13.7326 6.88985 2.51511
64 1 -1.1104 6.42602 11.1143 1.15394
237 1 -1.1104 6.66644 5.55557 6.47206
57 1 -1.1104 6.57476 8.13732 1.16326
59 1 -1.1104 6.56923 8.31514 3.99655
63 1 -1.1104 6.69659 5.35035 1.05358
84 2 2.2208 10.9332 6.84604 5.23874
85 2 2.2208 10.798 12.6267 5.16888
86 1 -1.1104 12.201 8.25447 1.02629
87 1 -1.1104 12.2169 8.37196 3.8681
88 1 -1.1104 12.2882 5.5456 0.917341
89 1 -1.1104 12.079 11.2851 0.906664
91 2 2.2208 10.5326 9.68397 2.41902
92 1 -1.1104 12.3666 5.43839 3.73287
93 1 -1.1104 12.2161 10.9985 3.67055
94 1 -1.1104 9.31657 8.40322 1.14744
95 2 2.2208 8.00023 6.89266 2.58138
96 2 2.2208 7.97391 12.5327 2.45354
97 1 -1.1104 9.29708 8.23231 3.93497
98 2 2.2208 8.00707 9.64412 5.25492
99 1 -1.1104 9.55423 5.49373 1.04466
100 1 -1.1104 9.31918 11.1875 1.0131
102 1 -1.1104 9.5564 5.53392 3.69752
103 1 -1.1104 9.40756 11.0795 3.82743
265 1 -1.1104 12.3775 8.31139 6.4887
269 1 -1.1104 9.54904 5.56648 6.59146
267 1 -1.1104 9.47842 8.23735 6.6508
65 1 -1.1104 6.62501 11.0874 6.695
266 1 -1.1104 12.3438 5.4447 6.48143
311 2 2.2208 8.01725 18.1014 8.02907
106 2 2.2208 5.30286 18.1353 5.16728
107 1 -1.1104 0.897992 14.0516 1.11994
109 1 -1.1104 1.10237 19.7565 1.08513
113 1 -1.1104 1.23274 13.7983 3.90521
114 1 -1.1104 1.11602 19.4128 3.68977
116 1 -1.1104 0.927901 16.8857 1.15599
119 2 2.2208 5.26955 15.3212 2.61192
120 2 2.2208 5.28341 20.8545 2.33399
121 1 -1.1104 1.23227 16.4927 3.84017
123 1 -1.1104 3.68991 13.8359 1.00579
125 1 -1.1104 3.84903 19.3573 0.896547
127 2 2.2208 2.48404 18.0298 2.37786
128 1 -1.1104 4.01157 13.7695 3.7442
129 1 -1.1104 3.79649 19.4499 3.86322
130 2 2.2208 2.52958 15.3197 5.18258
131 2 2.2208 2.46895 20.7917 5.15428
132 1 -1.1104 3.80075 16.7016 1.02746
134 1 -1.1104 3.89854 16.5028 3.7227
133 1 -1.1104 3.98992 16.736 6.67607
117 1 -1.1104 1.19938 16.7565 6.66076
140 1 -1.1104 6.56075 16.608 0.934905
122 1 -1.1104 6.76901 16.6763 4.00228
118 1 -1.1104 6.56499 16.7532 6.58527
124 1 -1.1104 3.99392 13.964 6.6584
302 1 -1.1104 1.10966 19.5772 6.64067
8449 2 2.2208 5.1241 -4.29865 5.31514
139 1 -1.1104 6.6164 19.4938 3.7346
115 1 -1.1104 6.707 13.7983 4.05602
111 1 -1.1104 6.77901 13.8809 6.72911
126 1 -1.1104 3.84821 19.4744 6.59808
9149 2 2.2208 -0.329365 4.07578 2.26233
112 1 -1.1104 6.69582 19.5489 6.53682
110 1 -1.1104 6.51048 13.8343 1.30224
138 1 -1.1104 6.76399 19.4588 1.10805
141 2 2.2208 10.9045 18.1572 5.28729
142 1 -1.1104 12.2907 13.9446 1.00753
144 1 -1.1104 12.2264 19.3405 0.918527
146 1 -1.1104 12.1836 13.8818 3.88465
147 1 -1.1104 12.3026 19.4155 3.76859
148 1 -1.1104 12.4349 16.5234 1.08821
150 2 2.2208 10.8184 15.1632 2.36818
151 2 2.2208 10.8618 20.8328 2.47271
152 1 -1.1104 12.2596 16.7042 3.90701
153 1 -1.1104 9.37167 13.9718 0.971944
155 1 -1.1104 9.49864 19.4252 1.11172
157 2 2.2208 8.08591 18.069 2.40985
158 1 -1.1104 9.33055 13.8293 3.64531
159 1 -1.1104 9.43801 19.4503 3.97203
160 2 2.2208 8.09313 15.3069 5.24743
161 2 2.2208 8.09807 20.8779 5.08638
162 1 -1.1104 9.44764 16.6652 0.937956
164 1 -1.1104 9.48953 16.5742 3.70646
143 1 -1.1104 12.1927 14.0384 6.56677
149 1 -1.1104 12.2432 16.8117 6.60962
145 1 -1.1104 12.2095 19.5177 6.62487
154 1 -1.1104 9.43103 13.8078 6.60306
156 1 -1.1104 9.45817 19.3959 6.66993
163 1 -1.1104 9.45134 16.54 6.49808
8885 2 2.2208 -0.364544 -1.69518 8.01665
168 1 -1.1104 6.86769 -2.8561 6.67707
8453 2 2.2208 5.37824 -4.24518 10.8624
202 2 2.2208 13.6594 15.3128 5.17419
9017 2 2.2208 -0.3179 4.02206 8.06471
167 1 -1.1104 1.16605 2.66148 6.76887
174 1 -1.1104 3.83574 -0.0156778 6.70968
175 2 2.2208 5.23847 1.22517 10.8288
176 1 -1.1104 1.04336 -3.03237 12.2715
177 1 -1.1104 1.10535 2.55038 12.122
180 1 -1.1104 1.18095 -2.93783 9.55215
181 1 -1.1104 0.990771 2.60833 9.53266
184 1 -1.1104 1.15812 -0.222906 12.3067
186 2 2.2208 5.38063 -1.50697 8.05725
187 2 2.2208 5.23219 4.0404 8.16741
188 1 -1.1104 0.927501 -0.186057 9.47836
190 1 -1.1104 4.08645 -2.92305 12.1762
191 1 -1.1104 3.96331 2.53305 12.2907
192 2 2.2208 2.44969 1.26807 7.99929
193 1 -1.1104 3.96895 -3.0191 9.38737
194 1 -1.1104 3.83693 2.49142 9.28795
195 2 2.2208 2.52636 -1.51715 10.8775
196 2 2.2208 2.48894 3.93545 10.9285
197 1 -1.1104 3.91534 -0.150914 12.2407
198 1 -1.1104 3.81789 -0.124246 9.46083
8884 2 2.2208 -0.292573 1.11732 10.8452
28 2 2.2208 -0.391057 12.555 10.8036
210 1 -1.1104 9.58091 -0.127724 6.70495
209 1 -1.1104 9.53133 2.64879 6.75411
208 1 -1.1104 9.64411 -2.99075 6.83183
8858 2 2.2208 -0.194341 18.0724 10.7508
25 2 2.2208 -0.376258 -1.63697 2.50208
392 2 2.2208 10.9336 4.0533 13.5421
183 1 -1.1104 6.7681 2.625 9.43582
189 1 -1.1104 6.68936 -0.0728334 9.47984
185 1 -1.1104 6.69371 0.0151036 12.243
182 1 -1.1104 6.77754 -2.78769 9.5363
179 1 -1.1104 6.66514 2.719 12.295
178 1 -1.1104 6.82039 -2.89579 12.1826
211 2 2.2208 10.9615 1.21143 10.7925
212 1 -1.1104 12.3219 -2.95019 12.3112
213 1 -1.1104 12.4437 2.57731 12.1817
214 1 -1.1104 12.4874 -2.93738 9.48581
215 1 -1.1104 12.4502 2.7927 9.42423
216 1 -1.1104 12.3393 -0.136014 12.055
217 2 2.2208 11.0047 -1.60752 8.18847
218 2 2.2208 10.9234 4.10975 8.06583
219 1 -1.1104 12.5004 -0.193895 9.40867
220 1 -1.1104 9.69508 -2.87084 12.3106
221 1 -1.1104 9.57526 2.67368 12.3006
222 2 2.2208 8.15182 1.3233 7.98683
223 1 -1.1104 9.5508 -2.95482 9.5848
224 1 -1.1104 9.63171 2.68419 9.49191
225 2 2.2208 8.06089 -1.40578 10.8376
226 2 2.2208 8.13808 4.05822 10.8528
227 1 -1.1104 9.42781 -0.0420022 12.2518
228 1 -1.1104 9.48086 -0.155721 9.48543
204 2 2.2208 13.6399 9.70684 5.09363
9086 2 2.2208 -0.335396 9.62386 8.07721
104 2 2.2208 13.5765 12.5092 2.34631
234 1 -1.1104 1.02355 8.19807 6.80279
9087 2 2.2208 -0.201463 6.68907 10.7216
83 2 2.2208 -0.401278 12.4935 5.30782
62 1 -1.1104 0.964602 10.9135 6.65837
239 1 -1.1104 3.90649 5.44945 6.75147
240 2 2.2208 5.2286 6.76603 10.8594
241 2 2.2208 5.28039 12.356 10.8612
242 1 -1.1104 1.02769 8.16222 12.185
244 1 -1.1104 1.19645 8.17702 9.47304
246 1 -1.1104 1.15431 5.37228 12.2481
247 1 -1.1104 1.09803 11.1643 12.2038
250 2 2.2208 5.37616 9.6976 8.02981
251 1 -1.1104 1.14251 5.39763 9.30356
252 1 -1.1104 1.01614 11.0665 9.38364
255 1 -1.1104 3.84525 8.25698 12.2825
256 2 2.2208 2.60322 6.82956 8.14639
257 2 2.2208 2.49705 12.4881 8.17031
258 1 -1.1104 4.01914 8.20874 9.50093
259 2 2.2208 2.45159 9.67719 10.8901
260 1 -1.1104 3.82469 5.41406 12.3215
261 1 -1.1104 3.81858 10.9143 12.3457
262 1 -1.1104 3.86597 5.28813 9.60827
263 1 -1.1104 3.90468 10.9854 9.47896
248 1 -1.1104 6.75167 5.40421 12.3803
235 1 -1.1104 6.75109 8.2862 6.80983
254 1 -1.1104 6.77539 11.0805 9.45164
253 1 -1.1104 6.65251 5.42018 9.4246
491 2 2.2208 5.2588 15.3836 13.6412
90 1 -1.1104 12.3383 11.1523 6.49789
200 1 -1.1104 9.77998 13.9404 12.1515
30 2 2.2208 10.8117 18.1959 10.8828
243 1 -1.1104 6.60575 8.12736 12.2412
101 1 -1.1104 9.63114 11.0082 6.53654
245 1 -1.1104 6.87078 8.19958 9.35821
249 1 -1.1104 6.71163 10.7594 12.3046
264 1 -1.1104 9.50633 11.0479 9.23045
268 1 -1.1104 9.45656 5.40995 9.43565
270 1 -1.1104 9.40921 11.2215 12.0612
271 1 -1.1104 9.46131 5.4464 12.1876
272 2 2.2208 8.22974 9.48699 10.7435
273 1 -1.1104 9.58693 8.1803 9.37056
274 2 2.2208 8.12483 12.5079 8.01336
275 2 2.2208 8.10707 6.79397 8.03246
276 2 2.2208 10.8985 6.89303 10.851
277 2 2.2208 10.9631 12.5159 10.7916
278 1 -1.1104 12.3081 8.1911 12.2763
279 1 -1.1104 12.318 8.15025 9.37609
280 1 -1.1104 12.279 5.42 12.1749
281 1 -1.1104 12.2208 11.1258 12.2384
282 2 2.2208 10.983 9.70607 8.01375
283 1 -1.1104 12.3206 5.48197 9.31411
284 1 -1.1104 12.1624 11.1844 9.42325
285 1 -1.1104 9.46196 8.32398 12.2535
53 1 -1.1104 12.3983 13.858 9.34659
312 1 -1.1104 9.53452 13.9635 9.42123
108 1 -1.1104 0.944341 13.9722 6.59873
8859 2 2.2208 -0.287184 20.9721 8.06505
313 2 2.2208 -0.280984 15.2785 8.01924
310 2 2.2208 2.44945 15.2824 10.8943
309 2 2.2208 2.40398 21.0124 10.8887
286 1 -1.1104 3.87097 19.5077 12.2479
287 1 -1.1104 3.89434 13.856 12.1703
291 1 -1.1104 1.09575 19.4553 9.49361
292 1 -1.1104 1.10021 16.5426 9.54674
293 2 2.2208 5.34255 20.8378 7.98317
294 1 -1.1104 1.18027 13.8076 9.44554
295 2 2.2208 5.25035 15.3103 8.07462
298 1 -1.1104 1.09269 19.544 12.3287
299 1 -1.1104 1.17993 13.8241 12.1514
300 2 2.2208 5.22302 18.037 10.8305
301 1 -1.1104 3.85464 19.4942 9.40684
303 2 2.2208 2.55835 18.1413 8.02953
304 1 -1.1104 3.86048 16.6549 9.42576
305 1 -1.1104 3.93239 13.918 9.52153
307 1 -1.1104 1.02407 16.7275 12.1912
308 1 -1.1104 3.81515 16.7955 12.3353
288 1 -1.1104 6.46957 19.4139 9.39057
489 2 2.2208 2.50596 18.1531 13.5788
9053 2 2.2208 -0.373769 9.63703 2.48059
9150 2 2.2208 -0.367769 6.8417 5.16118
518 2 2.2208 8.12058 18.0886 13.5436
232 1 -1.1104 9.39126 19.467 9.59358
297 1 -1.1104 6.69292 13.7748 12.1592
50 1 -1.1104 12.0877 19.7691 12.0727
316 2 2.2208 7.97608 20.8036 10.7394
49 1 -1.1104 12.3564 13.9887 12.1644
306 1 -1.1104 6.82889 16.7925 12.1282
105 2 2.2208 10.9402 15.2398 8.02965
233 2 2.2208 8.13866 15.3245 10.7899
201 1 -1.1104 9.53199 19.4642 12.3734
516 2 2.2208 10.7945 20.9853 13.6471
81 1 -1.1104 12.2521 19.5489 9.39653
82 1 -1.1104 12.3371 16.8908 12.3627
315 1 -1.1104 9.5343 16.6798 12.2078
199 1 -1.1104 12.1953 16.7299 9.56989
136 2 2.2208 10.9578 20.8249 8.11915
517 2 2.2208 11.0475 15.4427 13.6679
359 2 2.2208 5.23384 4.09412 13.7217
490 2 2.2208 5.21007 20.9415 13.4299
453 2 2.2208 8.10443 6.91793 13.648
455 2 2.2208 8.13765 12.5921 13.5776
426 2 2.2208 2.43027 6.81599 13.7068
667 2 2.2208 -0.453846 18.1437 -0.328629
428 2 2.2208 2.61538 12.4204 13.6947
663 2 2.2208 2.40759 20.9028 -0.546892
547 2 2.2208 8.11542 15.3389 -0.513421
545 2 2.2208 2.46433 -1.45417 -0.274011
635 2 2.2208 7.98967 9.82668 -0.301376
584 2 2.2208 13.7294 4.18047 -0.481693
317 2 2.2208 5.20045 1.25589 16.5668
318 1 -1.1104 1.24689 -2.94837 17.9247
319 1 -1.1104 1.21922 2.61108 17.8978
322 1 -1.1104 1.19583 -3.05182 15.1649
324 1 -1.1104 1.19548 2.46134 15.0972
330 1 -1.1104 1.0313 -0.0916152 17.8165
332 2 2.2208 5.21668 -1.70563 19.2313
333 2 2.2208 5.24322 4.07528 19.327
334 1 -1.1104 1.03226 -0.247168 15.1137
338 1 -1.1104 4.0955 -3.16377 17.7989
339 1 -1.1104 3.8877 2.69045 17.9066
340 2 2.2208 2.4856 1.08235 19.2726
341 1 -1.1104 4.06478 -3.01547 14.916
343 1 -1.1104 3.8898 2.65779 15.084
345 2 2.2208 2.52808 -1.57707 16.3298
346 2 2.2208 2.4752 4.05559 16.5622
347 1 -1.1104 3.83225 -0.30612 17.8963
348 1 -1.1104 3.96954 -0.308434 15.0867
328 1 -1.1104 6.58178 2.73398 15.1141
320 1 -1.1104 6.78177 -2.85542 17.7275
8524 2 2.2208 10.6827 -4.35766 21.8941
327 1 -1.1104 6.61683 -2.94328 20.663
9371 2 2.2208 -0.353431 1.2341 16.4307
344 1 -1.1104 3.83897 2.51947 20.8243
335 1 -1.1104 0.98618 -0.158096 20.7222
354 2 2.2208 -0.234638 -1.54217 19.3315
352 2 2.2208 -0.41596 15.2487 19.2238
8828 2 2.2208 2.44247 -4.39978 19.2627
9184 2 2.2208 -0.279247 -1.48419 24.8167
321 1 -1.1104 6.76598 2.78144 17.9327
326 1 -1.1104 6.919 -2.99448 14.9541
331 1 -1.1104 6.82318 -0.183641 17.9031
336 1 -1.1104 6.7553 -0.168807 15.1103
360 2 2.2208 10.9762 1.28105 16.4289
361 1 -1.1104 12.4092 -2.89242 17.8648
362 1 -1.1104 12.3943 2.59309 17.8456
363 1 -1.1104 12.2831 -3.09195 15.0489
365 1 -1.1104 12.3107 2.64521 14.9128
367 1 -1.1104 12.3374 -0.200304 17.8287
368 2 2.2208 10.9081 -1.54735 19.2342
369 2 2.2208 10.9119 4.10417 19.2924
370 1 -1.1104 12.4054 -0.216573 15.099
372 1 -1.1104 9.50819 -3.1088 17.8593
373 1 -1.1104 9.72074 2.7188 17.8082
374 2 2.2208 8.05997 1.17943 19.2992
375 1 -1.1104 9.52691 -2.87748 15.1241
377 1 -1.1104 9.409 2.52479 15.0787
379 2 2.2208 8.15421 -1.5536 16.4619
380 2 2.2208 8.07322 4.04841 16.4242
381 1 -1.1104 9.5179 -0.102145 17.9868
382 1 -1.1104 9.69534 -0.161375 15.1246
9369 2 2.2208 13.7614 18.0588 24.7691
371 1 -1.1104 12.2499 -0.244092 20.6153
366 1 -1.1104 12.4101 2.58705 20.6829
615 2 2.2208 -0.38765 6.97413 27.6499
364 1 -1.1104 12.1689 -2.97055 20.5317
329 1 -1.1104 6.75432 2.68544 20.6453
9366 2 2.2208 -0.27738 18.1704 16.3693
389 2 2.2208 -0.402519 9.59319 19.1826
393 2 2.2208 5.26275 6.84263 16.5894
394 2 2.2208 5.29725 12.4973 16.4365
395 1 -1.1104 1.0421 8.25455 17.873
397 1 -1.1104 1.29101 8.12955 15.0504
401 1 -1.1104 1.17188 5.41483 17.8864
402 1 -1.1104 1.0904 11.1052 17.7628
405 2 2.2208 5.24118 9.76234 19.3036
406 1 -1.1104 1.00262 5.28325 15.1126
408 1 -1.1104 1.16437 10.9337 14.9089
414 1 -1.1104 3.8114 8.3098 17.8961
415 2 2.2208 2.55748 6.90877 19.1483
416 2 2.2208 2.44312 12.5786 19.1836
417 1 -1.1104 4.00643 8.35963 15.121
419 2 2.2208 2.58765 9.64996 16.4734
420 1 -1.1104 3.86457 5.50407 17.936
421 1 -1.1104 3.88801 11.0993 18.1579
422 1 -1.1104 3.82394 5.48738 15.2725
424 1 -1.1104 3.91282 11.107 15.1437
398 1 -1.1104 1.15376 8.33438 20.5833
410 1 -1.1104 6.82896 5.38658 15.0569
409 1 -1.1104 0.893829 11.0818 20.7897
423 1 -1.1104 3.74462 5.45244 20.7465
418 1 -1.1104 3.87633 8.21602 20.746
407 1 -1.1104 0.903647 5.5702 20.6001
404 1 -1.1104 6.67541 11.0332 17.7539
387 2 2.2208 -0.222109 6.78981 16.4852
637 1 -1.1104 12.1635 13.7528 23.4635
425 1 -1.1104 3.72567 11.2035 20.5775
400 1 -1.1104 6.73006 8.20217 20.6942
413 1 -1.1104 6.69823 11.2225 20.6137
427 2 2.2208 5.33591 9.62195 13.6178
399 1 -1.1104 6.78892 8.30522 15.1236
403 1 -1.1104 6.61554 5.43186 17.7185
396 1 -1.1104 6.57887 8.28628 18.0383
412 1 -1.1104 6.60681 11.2072 14.9004
429 2 2.2208 10.9897 6.9482 16.3558
430 2 2.2208 10.9785 12.5193 16.4304
431 1 -1.1104 12.4343 8.44385 18.065
432 1 -1.1104 12.3681 8.27566 15.1122
434 1 -1.1104 12.3107 5.52824 17.8727
435 1 -1.1104 12.3882 11.1694 17.7424
436 2 2.2208 10.9228 9.69427 19.2342
437 1 -1.1104 12.3249 5.3087 15.0768
439 1 -1.1104 12.2933 11.1537 14.9805
441 1 -1.1104 9.43628 8.31589 17.8099
442 2 2.2208 8.10672 6.98393 19.2151
443 2 2.2208 8.14148 12.4736 19.1633
444 1 -1.1104 9.61068 8.39141 14.9163
446 2 2.2208 8.13715 9.74449 16.3739
447 1 -1.1104 9.53776 5.67081 17.6343
448 1 -1.1104 9.58837 11.1287 17.7963
449 1 -1.1104 9.69895 5.53618 14.907
451 1 -1.1104 9.41636 11.1323 15.0954
440 1 -1.1104 12.2503 11.3248 20.5756
438 1 -1.1104 12.2301 5.39832 20.6253
445 1 -1.1104 9.43909 8.3006 20.5615
433 1 -1.1104 12.2313 8.28399 20.7254
675 1 -1.1104 9.3751 13.9857 26.2927
456 2 2.2208 5.24718 18.1232 16.4536
457 1 -1.1104 0.981973 14.0517 17.8505
458 1 -1.1104 0.897648 19.4212 17.8877
461 1 -1.1104 1.11239 13.845 15.1233
463 1 -1.1104 1.15934 19.6793 14.9946
469 1 -1.1104 1.04818 16.744 17.7724
471 2 2.2208 5.20329 15.1809 19.1958
472 2 2.2208 5.24586 20.9336 19.218
473 1 -1.1104 1.08048 16.7492 14.9367
477 1 -1.1104 3.87372 13.8521 17.7138
478 1 -1.1104 3.80229 19.4445 17.8571
479 2 2.2208 2.41867 18.0334 19.263
480 1 -1.1104 3.89147 13.9717 14.9967
482 1 -1.1104 4.04661 19.6143 15.0513
484 2 2.2208 2.45913 15.3404 16.4547
485 2 2.2208 2.52008 20.9001 16.3824
486 1 -1.1104 3.89471 16.6543 17.8147
487 1 -1.1104 3.6672 16.789 15.007
481 1 -1.1104 3.7933 13.9706 20.5808
474 1 -1.1104 1.10789 16.6504 20.5522
462 1 -1.1104 1.02973 13.8887 20.6834
464 1 -1.1104 1.08166 19.6806 20.6388
460 1 -1.1104 6.66797 19.4458 17.91
467 1 -1.1104 6.70909 19.6448 14.9454
475 1 -1.1104 6.55313 16.8511 14.9758
9364 2 2.2208 -0.46711 20.8886 19.182
488 1 -1.1104 3.92726 16.6845 20.6324
483 1 -1.1104 3.76453 19.5062 20.5019
468 1 -1.1104 6.57935 19.5037 20.7379
682 2 2.2208 10.9195 15.259 24.8554
8837 2 2.2208 2.391 -4.40955 24.8411
476 1 -1.1104 6.65537 16.7498 20.6242
459 1 -1.1104 6.70359 13.7941 17.879
466 1 -1.1104 6.62555 13.8356 20.5036
470 1 -1.1104 6.61393 16.5806 17.9126
465 1 -1.1104 6.64187 14.0659 15.1287
492 2 2.2208 10.8808 18.1275 16.3744
493 1 -1.1104 12.247 13.9117 17.9136
494 1 -1.1104 12.2778 19.4204 17.851
495 1 -1.1104 12.3135 14.0702 15.0601
497 1 -1.1104 12.1857 19.7322 14.9192
499 1 -1.1104 12.416 16.8086 17.6805
500 2 2.2208 10.8823 15.3355 19.2015
501 2 2.2208 10.7835 20.843 19.3538
502 1 -1.1104 12.2207 16.8027 15.0504
504 1 -1.1104 9.61318 13.8332 17.8051
505 1 -1.1104 9.5973 19.5608 17.7628
506 2 2.2208 8.12024 18.0793 19.1345
507 1 -1.1104 9.54997 14.0349 14.8688
509 1 -1.1104 9.48854 19.4749 14.978
511 2 2.2208 8.06245 15.3905 16.3964
512 2 2.2208 8.10561 20.8505 16.4259
513 1 -1.1104 9.48493 16.6599 17.7402
514 1 -1.1104 9.41753 16.7259 14.9542
508 1 -1.1104 9.31859 13.996 20.6734
503 1 -1.1104 12.3878 16.8608 20.7107
498 1 -1.1104 12.1937 19.5543 20.6386
510 1 -1.1104 9.36449 19.5085 20.6401
496 1 -1.1104 12.2278 13.9812 20.6514
515 1 -1.1104 9.57082 16.72 20.5357
677 2 2.2208 7.94604 18.2122 24.8729
679 1 -1.1104 9.4085 13.9258 23.6204
325 1 -1.1104 1.07621 2.70935 20.6072
349 1 -1.1104 3.80479 -0.205174 20.6424
337 1 -1.1104 6.62016 -0.131897 20.6761
546 2 2.2208 2.57516 4.06879 27.6736
323 1 -1.1104 1.12512 -2.96767 20.7363
342 1 -1.1104 3.77769 -2.7863 20.5822
520 2 2.2208 5.20341 1.22269 22.098
521 1 -1.1104 1.02443 -3.09524 23.4234
522 1 -1.1104 1.04588 2.85243 23.4734
525 1 -1.1104 0.981427 -3.06192 26.3908
526 1 -1.1104 0.9949 2.64464 26.2576
529 1 -1.1104 1.11744 -0.332352 23.5085
531 2 2.2208 5.26041 -1.58136 24.9409
532 2 2.2208 5.20461 4.02941 24.8816
533 1 -1.1104 1.05369 -0.179621 26.2538
535 1 -1.1104 3.75162 -2.9549 23.5463
536 1 -1.1104 3.67486 2.61599 23.4555
537 2 2.2208 2.46954 1.26523 24.8751
538 1 -1.1104 3.74352 -3.02964 26.375
539 1 -1.1104 3.92865 2.66194 26.2045
540 2 2.2208 2.39651 -1.63393 22.1897
541 2 2.2208 2.38114 3.98506 21.9627
542 1 -1.1104 3.87381 -0.242241 23.5069
543 1 -1.1104 3.81313 -0.165095 26.3655
528 1 -1.1104 6.84993 2.49864 26.3929
554 2 2.2208 -0.399642 1.35221 22.0438
673 2 2.2208 7.96921 15.2824 22.0264
668 2 2.2208 -0.452746 21.0103 24.8203
551 2 2.2208 13.727 12.4666 19.184
580 2 2.2208 -0.3183 4.09123 19.3573
383 1 -1.1104 9.44383 -0.134218 20.6675
685 1 -1.1104 12.1752 13.9305 26.2311
553 2 2.2208 10.8056 18.0749 22.0517
524 1 -1.1104 6.60931 2.77368 23.5665
523 1 -1.1104 6.72864 -2.79356 23.5769
527 1 -1.1104 6.68761 -2.918 26.3148
378 1 -1.1104 9.52279 2.86526 20.7019
534 1 -1.1104 6.70113 -0.108083 26.2559
376 1 -1.1104 9.33173 -3.06346 20.5702
530 1 -1.1104 6.60362 -0.0301373 23.4945
556 2 2.2208 10.8445 1.25118 22.049
557 1 -1.1104 12.2864 -3.07505 23.1961
558 1 -1.1104 12.2589 2.53784 23.5353
559 1 -1.1104 12.3301 -2.84004 26.0682
560 1 -1.1104 12.4067 2.67335 26.1216
561 1 -1.1104 12.3975 -0.306888 23.3875
562 2 2.2208 10.9125 -1.61391 24.8559
563 2 2.2208 10.9164 4.07413 24.8159
564 1 -1.1104 12.1728 -0.123373 26.2267
565 1 -1.1104 9.47637 -2.99116 23.4256
566 1 -1.1104 9.52483 2.54372 23.3921
567 2 2.2208 8.16785 1.26571 24.7723
568 1 -1.1104 9.48479 -2.90793 26.2345
569 1 -1.1104 9.61369 2.67663 26.1604
570 2 2.2208 8.00946 -1.5031 22.0239
571 2 2.2208 7.97775 3.99472 22.0711
572 1 -1.1104 9.54611 -0.217057 23.3993
573 1 -1.1104 9.50352 -0.0186622 26.2874
671 1 -1.1104 9.36731 16.7242 23.4363
683 1 -1.1104 12.2262 16.5685 23.4576
585 2 2.2208 5.09965 6.85532 22.2243
586 2 2.2208 5.20891 12.3796 22.0396
587 1 -1.1104 1.1375 8.30403 23.473
589 1 -1.1104 1.15644 8.39018 26.1783
591 1 -1.1104 1.06806 5.56708 23.4324
592 1 -1.1104 1.05148 11.064 23.5355
595 2 2.2208 5.18043 9.7227 24.9554
596 1 -1.1104 1.11643 5.72075 26.3921
597 1 -1.1104 0.899933 11.1947 26.2537
600 1 -1.1104 3.82277 8.13995 23.557
601 2 2.2208 2.52848 6.80525 24.7773
602 2 2.2208 2.38897 12.4921 24.8836
603 1 -1.1104 3.80852 8.22 26.3847
604 2 2.2208 2.3949 9.70728 22.129
605 1 -1.1104 3.77505 5.36864 23.3118
606 1 -1.1104 3.70222 11.0427 23.417
607 1 -1.1104 3.79822 5.42538 26.1659
608 1 -1.1104 3.89187 11.1333 26.3687
594 1 -1.1104 6.5296 11.0095 23.3261
599 1 -1.1104 6.65094 11.1241 26.1039
588 1 -1.1104 6.53334 8.23311 23.5602
610 2 2.2208 2.47463 9.75519 27.6889
350 2 2.2208 -0.3596 6.85169 22.0346
611 2 2.2208 5.18556 12.5605 27.9086
612 2 2.2208 -0.430064 12.406 27.7728
634 2 2.2208 10.8281 6.94015 27.788
411 1 -1.1104 6.67257 5.37002 20.5023
598 1 -1.1104 6.63391 5.45584 26.2601
452 1 -1.1104 9.52721 11.0252 20.6299
450 1 -1.1104 9.51101 5.61851 20.5573
593 1 -1.1104 6.55645 5.54274 23.4968
590 1 -1.1104 6.60984 8.35203 26.3344
616 1 -1.1104 9.45204 11.2221 26.3705
617 1 -1.1104 9.52905 5.39242 26.2135
618 1 -1.1104 9.33708 11.1545 23.5955
619 1 -1.1104 9.36914 5.35255 23.3134
620 2 2.2208 8.10795 9.66308 22.0942
621 1 -1.1104 9.43668 8.30649 26.2779
622 2 2.2208 8.00731 12.5919 24.8741
623 2 2.2208 8.05594 6.83773 24.9104
624 2 2.2208 10.808 6.85344 22.029
625 2 2.2208 10.7283 12.4972 22.1169
626 1 -1.1104 12.2719 8.29777 23.3898
627 1 -1.1104 12.2323 8.39621 26.2527
628 1 -1.1104 12.3618 5.39911 23.5285
629 1 -1.1104 12.2771 11.0267 23.3918
630 2 2.2208 10.8788 9.685 24.8808
631 1 -1.1104 12.3202 5.48556 26.2256
632 1 -1.1104 12.3273 11.0029 26.2818
633 1 -1.1104 9.43991 8.29974 23.4064
614 2 2.2208 -0.397284 12.4387 22.1708
674 1 -1.1104 9.55277 19.5425 26.4129
636 2 2.2208 10.8551 12.5315 27.6917
647 1 -1.1104 6.77003 19.6554 23.6437
678 1 -1.1104 9.53087 19.4452 23.4478
351 2 2.2208 13.8065 9.70032 22.033
681 2 2.2208 10.8712 20.8483 24.8724
643 1 -1.1104 6.69746 16.6802 26.2345
658 1 -1.1104 6.7153 16.7779 23.3619
641 1 -1.1104 6.52888 13.8851 26.5004
646 1 -1.1104 0.950333 13.9838 26.3871
648 2 2.2208 5.22505 20.8404 24.8533
662 2 2.2208 2.51364 15.2561 22.0582
661 2 2.2208 2.37416 21.0093 22.1142
660 1 -1.1104 3.92973 16.6299 23.4128
659 1 -1.1104 1.04251 16.7161 23.5123
657 1 -1.1104 3.80662 13.8861 26.2831
656 1 -1.1104 3.86343 16.7426 26.1899
655 2 2.2208 2.47616 18.0529 24.8699
654 1 -1.1104 3.96582 19.4342 26.2376
653 2 2.2208 5.30899 18.1946 21.9831
652 1 -1.1104 1.18429 13.9542 23.48
651 1 -1.1104 0.97475 19.6215 23.4062
649 2 2.2208 5.26383 15.288 24.9005
640 1 -1.1104 3.83362 19.487 23.5078
642 1 -1.1104 3.82902 13.794 23.5231
644 1 -1.1104 1.00901 19.4565 26.1749
645 1 -1.1104 1.076 16.7404 26.2309
680 1 -1.1104 12.3356 16.7672 26.2555
650 1 -1.1104 6.60439 13.8347 23.4907
669 1 -1.1104 12.4323 19.5112 23.4063
9386 2 2.2208 13.756 4.0937 22.0355
684 1 -1.1104 12.3562 19.542 26.1306
676 1 -1.1104 6.71146 19.4998 26.3475
670 1 -1.1104 9.42451 16.8126 26.18
672 2 2.2208 7.9949 20.8813 22.0286
552 2 2.2208 8.11174 20.8084 27.8104
582 2 2.2208 13.7357 -1.59005 21.9866
576 2 2.2208 8.3273 4.07559 27.7459
356 2 2.2208 13.7172 20.7759 16.6099
665 2 2.2208 2.34008 15.3214 27.6558
353 2 2.2208 13.7742 15.2557 27.6078
391 2 2.2208 10.9954 -1.45582 13.6016
358 2 2.2208 2.61012 1.16944 13.6759
688 2 2.2208 13.7007 1.14758 19.2465
9367 2 2.2208 -0.22484 15.3152 13.6155
8835 2 2.2208 5.28989 -4.46205 27.7145
609 2 2.2208 5.3444 6.89551 27.7615
17637 2 2.2208 -0.339421 -4.38621 27.8251
548 2 2.2208 10.9539 17.9352 27.5717
664 2 2.2208 5.30308 18.0236 27.7912
575 2 2.2208 8.21 -1.39724 27.7125
390 2 2.2208 8.00418 1.36143 13.7508
574 2 2.2208 10.9858 1.41989 27.5148
544 2 2.2208 5.38795 1.30163 27.6535
386 2 2.2208 -0.261933 9.55569 13.584
357 2 2.2208 5.5122 -1.53353 13.668
454 2 2.2208 10.9412 9.86394 13.5119
689 2 2.2208 5.2493 23.5949 5.03533
690 2 2.2208 5.29686 29.4204 5.31822
691 1 -1.1104 1.0533 25.186 1.04098
692 1 -1.1104 1.13147 25.1143 3.8416
693 1 -1.1104 1.00203 22.4629 0.839015
694 1 -1.1104 1.20925 27.973 0.898195
695 2 2.2208 5.37185 26.5631 2.39246
696 1 -1.1104 1.12841 22.1554 3.65183
697 1 -1.1104 1.03783 27.8656 3.70591
698 1 -1.1104 3.8858 25.0465 1.05131
699 2 2.2208 2.46866 23.6516 2.40698
700 2 2.2208 2.443 29.4383 2.32603
701 1 -1.1104 3.9354 25.034 3.72588
702 2 2.2208 2.61567 26.5957 5.1974
703 1 -1.1104 3.7982 22.1898 0.940033
704 1 -1.1104 3.96151 27.8481 1.02526
705 1 -1.1104 3.90984 22.0976 3.77675
706 1 -1.1104 3.78526 28.0817 3.78526
711 1 -1.1104 6.59741 25.0106 3.73023
837 1 -1.1104 3.89635 22.2502 6.45834
9802 2 2.2208 -0.266192 26.6189 2.17967
838 1 -1.1104 3.94402 27.9813 6.53304
836 1 -1.1104 4.07891 25.1665 6.42209
833 1 -1.1104 0.9694 27.9767 6.67701
832 1 -1.1104 1.05641 22.3828 6.42097
712 1 -1.1104 6.56519 22.4394 0.927897
713 1 -1.1104 6.69933 28.1134 0.960008
715 1 -1.1104 6.7246 27.9233 3.85235
9804 2 2.2208 -0.312156 23.8098 5.17947
834 1 -1.1104 6.62198 22.2381 6.44385
710 1 -1.1104 6.76711 25.2874 1.11891
714 1 -1.1104 6.64324 22.3494 3.66175
1174 2 2.2208 8.08964 46.2394 13.6019
716 2 2.2208 10.7533 23.7364 5.15141
717 2 2.2208 10.8485 29.3649 5.16361
718 1 -1.1104 12.3209 25.0062 0.918268
719 1 -1.1104 12.2741 25.0603 3.80619
720 1 -1.1104 12.1295 22.1714 1.00226
721 1 -1.1104 12.2484 28.0192 1.08994
722 2 2.2208 10.9042 26.4593 2.32467
723 1 -1.1104 12.2778 22.2176 3.71617
724 1 -1.1104 12.4745 28.0417 3.87918
725 1 -1.1104 9.52902 25.1748 0.849721
726 2 2.2208 8.04979 23.7731 2.2854
727 2 2.2208 8.00289 29.2992 2.36352
728 1 -1.1104 9.50395 25.2367 3.73399
729 2 2.2208 8.13547 26.4692 5.20271
730 1 -1.1104 9.34492 22.2284 0.99701
731 1 -1.1104 9.42597 27.9239 0.966851
732 1 -1.1104 9.33811 22.2745 3.70974
733 1 -1.1104 9.54108 27.9363 3.73216
866 1 -1.1104 9.53365 25.0036 6.42844
835 1 -1.1104 6.75981 28.0795 6.57548
864 1 -1.1104 12.2998 22.2566 6.58214
867 1 -1.1104 9.44324 22.2423 6.42409
831 1 -1.1104 6.72485 25.1965 6.43942
863 1 -1.1104 12.2325 25.0695 6.68795
868 1 -1.1104 9.61095 27.8811 6.7639
9806 2 2.2208 13.5904 29.4183 2.49489
1339 1 -1.1104 6.73592 47.7922 3.78125
737 2 2.2208 5.27321 35.0943 5.19223
738 1 -1.1104 0.975888 30.8739 0.824589
739 1 -1.1104 0.9327 36.6853 0.940371
741 1 -1.1104 1.1072 30.8217 3.83668
742 1 -1.1104 1.12094 36.4324 3.72903
744 1 -1.1104 1.10024 33.7353 1.06797
745 2 2.2208 5.24006 32.2572 2.3744
746 2 2.2208 5.15696 37.8847 2.36634
747 1 -1.1104 0.982852 33.7425 3.88786
749 1 -1.1104 3.87304 30.8209 0.949214
750 1 -1.1104 3.76045 36.4999 0.958651
751 2 2.2208 2.50845 35.1088 2.32692
752 1 -1.1104 3.82425 30.9702 3.83784
753 1 -1.1104 3.89123 36.389 3.8493
754 2 2.2208 2.47146 32.2907 5.21195
755 2 2.2208 2.52756 37.7782 5.2316
756 1 -1.1104 3.88652 33.7534 0.940211
757 1 -1.1104 3.86657 33.7956 3.72742
890 1 -1.1104 3.75103 33.6481 6.6163
883 1 -1.1104 1.08576 36.4829 6.64986
888 1 -1.1104 3.7305 30.7902 6.60925
886 1 -1.1104 0.939925 33.5918 6.67178
889 1 -1.1104 3.88305 36.3545 6.72856
743 1 -1.1104 6.56144 36.4748 3.87292
9809 2 2.2208 -0.389571 32.2722 2.3539
761 1 -1.1104 6.59269 30.8415 0.908404
740 1 -1.1104 6.45328 36.4711 1.11209
748 1 -1.1104 6.66983 33.6696 3.66781
762 1 -1.1104 6.61441 30.6984 3.87429
763 1 -1.1104 6.66825 33.6377 0.983101
764 2 2.2208 10.779 35.0925 5.16016
765 1 -1.1104 12.1847 30.8436 1.0746
766 1 -1.1104 12.2017 36.4255 1.03414
767 1 -1.1104 12.276 30.7977 3.93491
768 1 -1.1104 12.2631 36.4876 3.76449
769 1 -1.1104 12.2939 33.5703 1.00527
770 2 2.2208 10.8808 32.206 2.4705
771 2 2.2208 10.9313 37.8298 2.53521
772 1 -1.1104 12.118 33.6464 3.76188