ITEM: TIMESTEP
70000
ITEM: NUMBER OF ATOMS
17640
ITEM: BOX BOUNDS pp pp pp
-3.5971784390380779e-01 2.7699717843904121e+01
-4.3388012743746369e+00 3.3241880127437099e+02
-3.5122943766143605e-01 2.7691229437662699e+01
ITEM: ATOMS id type q x y z
1 2 2.2208 5.29156 1.28923 5.27353
2 1 -1.1104 1.06791 -2.96034 1.0852
3 1 -1.1104 1.08616 2.67171 0.952677
6 1 -1.1104 1.1399 -2.9176 3.89812
7 1 -1.1104 0.994331 2.71522 3.89083
10 1 -1.1104 1.00074 -0.110627 1.14699
12 2 2.2208 5.22981 -1.5741 2.45009
13 2 2.2208 5.22414 4.05205 2.31226
14 1 -1.1104 1.08596 -0.109208 3.9806
16 1 -1.1104 3.84298 -3.02767 1.04504
17 1 -1.1104 3.9141 2.59276 0.897359
18 2 2.2208 2.44302 1.31396 2.45579
19 1 -1.1104 3.95437 -2.91656 3.91319
20 1 -1.1104 3.73111 2.68748 3.81456
21 2 2.2208 2.54204 -1.47406 5.18208
22 2 2.2208 2.40075 4.02511 5.3268
23 1 -1.1104 3.69175 -0.20348 1.20675
24 1 -1.1104 3.90186 -0.0698651 3.94972
174 1 -1.1104 3.9558 -0.155962 6.78056
170 1 -1.1104 1.02776 -0.0969584 6.72362
455 2 2.2208 8.15209 12.5355 13.6228
9149 2 2.2208 -0.325093 4.20346 2.35536
9148 2 2.2208 -0.225712 1.31383 5.24937
166 1 -1.1104 1.0801 -2.83944 6.64129
25 2 2.2208 -0.348113 -1.55195 2.50702
8449 2 2.2208 5.29143 -4.2216 5.24134
81 1 -1.1104 12.3031 19.5372 9.4553
8884 2 2.2208 -0.173979 1.28076 10.8192
8 1 -1.1104 6.87459 -2.88897 3.83462
11 1 -1.1104 6.54079 -0.246069 1.0679
4 1 -1.1104 6.64748 -2.96419 1.01017
5 1 -1.1104 6.59145 2.63148 0.975739
312 1 -1.1104 9.55433 14.1332 9.46848
168 1 -1.1104 6.68025 -2.97385 6.62113
15 1 -1.1104 6.81596 -0.17857 3.88039
9 1 -1.1104 6.57424 2.64819 3.78399
31 2 2.2208 10.8247 1.18395 5.30928
32 1 -1.1104 12.3721 -2.91784 0.998897
33 1 -1.1104 12.1385 2.75471 0.965468
34 1 -1.1104 12.3979 -2.94373 3.74668
35 1 -1.1104 12.2171 2.71155 3.78222
36 1 -1.1104 12.3374 -0.0148433 1.09303
37 2 2.2208 10.9544 -1.47952 2.40473
38 2 2.2208 10.784 4.04895 2.49288
39 1 -1.1104 12.2531 -0.102262 3.98655
40 1 -1.1104 9.5331 -3.06998 1.08315
41 1 -1.1104 9.36558 2.63974 0.995245
42 2 2.2208 8.09106 1.23218 2.4612
43 1 -1.1104 9.64822 -2.78968 3.93507
44 1 -1.1104 9.44445 2.75919 3.97126
45 2 2.2208 8.13737 -1.51874 5.34295
46 2 2.2208 8.13034 4.12063 5.23549
47 1 -1.1104 9.53044 -0.0942001 1.08223
48 1 -1.1104 9.56364 -0.0794816 3.9714
208 1 -1.1104 9.64123 -3.01463 6.7299
210 1 -1.1104 9.39564 -0.302142 7.02901
171 1 -1.1104 6.68251 -0.156565 6.74596
53 1 -1.1104 12.2907 13.9081 9.23087
205 1 -1.1104 12.3359 -2.94217 6.62384
638 2 2.2208 13.6229 9.6446 -0.275702
359 2 2.2208 5.45484 4.09154 13.6381
8451 2 2.2208 10.9409 -4.28192 5.23026
52 2 2.2208 13.5681 6.84958 8.11526
54 2 2.2208 5.15937 6.81122 5.36338
55 2 2.2208 5.23909 12.4323 5.24072
56 1 -1.1104 1.20634 8.20264 1.05393
58 1 -1.1104 0.996859 8.25251 3.78901
60 1 -1.1104 0.951391 5.45298 0.956263
61 1 -1.1104 0.863743 11.0908 1.08155
66 2 2.2208 5.24899 9.78553 2.46403
67 1 -1.1104 1.21632 5.61316 3.90076
68 1 -1.1104 0.899742 11.1404 3.87019
71 1 -1.1104 3.94974 8.27991 1.01998
72 2 2.2208 2.51127 6.84843 2.49643
73 2 2.2208 2.33928 12.5672 2.48372
74 1 -1.1104 3.81003 8.32555 3.84984
75 2 2.2208 2.43539 9.64714 5.20563
76 1 -1.1104 3.67499 5.38226 1.06935
77 1 -1.1104 3.661 11.1236 1.04351
79 1 -1.1104 3.84339 5.51201 3.82282
80 1 -1.1104 3.76506 11.0474 3.7419
238 1 -1.1104 3.88258 8.08072 6.66573
239 1 -1.1104 3.83328 5.31823 6.74303
78 1 -1.1104 3.86034 11.0136 6.6504
57 1 -1.1104 6.76374 8.15797 1.05608
236 1 -1.1104 1.08549 5.29676 6.81764
201 1 -1.1104 9.54778 19.5335 12.1301
59 1 -1.1104 6.70865 8.27152 3.81336
63 1 -1.1104 6.70383 5.35245 0.915603
64 1 -1.1104 6.65487 11.0483 0.84101
69 1 -1.1104 6.66281 5.39443 3.81993
70 1 -1.1104 6.64902 11.1195 3.79171
84 2 2.2208 10.8198 7.00271 5.22289
85 2 2.2208 10.9295 12.4919 5.22986
86 1 -1.1104 12.3582 8.219 1.10155
87 1 -1.1104 12.4384 8.35036 3.80273
88 1 -1.1104 12.2715 5.56019 1.30246
89 1 -1.1104 12.1431 10.9823 0.987657
91 2 2.2208 11.0096 9.65065 2.42254
92 1 -1.1104 12.2373 5.56087 4.06027
93 1 -1.1104 12.3556 11.1392 3.79925
94 1 -1.1104 9.58792 8.31411 1.09582
95 2 2.2208 8.03344 6.81332 2.54311
96 2 2.2208 8.04796 12.5444 2.3522
97 1 -1.1104 9.60037 8.38296 3.95492
98 2 2.2208 8.21448 9.59068 5.21188
99 1 -1.1104 9.51737 5.40076 1.11022
100 1 -1.1104 9.34995 11.1331 1.04081
102 1 -1.1104 9.50149 5.65921 3.96691
103 1 -1.1104 9.56784 11.1316 3.73425
90 1 -1.1104 12.2932 11.1614 6.59315
235 1 -1.1104 6.65043 8.38314 6.45817
266 1 -1.1104 12.1376 5.54299 6.51229
101 1 -1.1104 9.51928 11.0473 6.61081
269 1 -1.1104 9.55112 5.46568 6.86086
267 1 -1.1104 9.59759 8.25141 6.73998
65 1 -1.1104 6.7931 11.2101 6.689
517 2 2.2208 10.9779 15.3092 13.6404
229 2 2.2208 13.6185 1.20168 8.048
8452 2 2.2208 2.54524 -4.32238 8.03445
106 2 2.2208 5.13618 18.0907 5.122
107 1 -1.1104 1.03651 13.9241 0.99441
109 1 -1.1104 1.01429 19.6992 0.92184
113 1 -1.1104 0.9519 13.7954 3.93804
114 1 -1.1104 1.12205 19.4194 3.55742
116 1 -1.1104 0.812382 16.7622 0.895525
119 2 2.2208 5.24877 15.3632 2.42412
120 2 2.2208 5.21364 20.8864 2.29227
121 1 -1.1104 0.898006 16.628 3.63572
123 1 -1.1104 3.84664 13.8406 1.10227
125 1 -1.1104 3.80069 19.463 0.944772
127 2 2.2208 2.4399 17.9262 2.24989
128 1 -1.1104 3.66352 13.8158 3.82142
129 1 -1.1104 3.84036 19.6514 3.72524
130 2 2.2208 2.3737 15.1998 5.30406
131 2 2.2208 2.45163 20.9258 5.14288
132 1 -1.1104 3.74482 16.5351 0.980519
134 1 -1.1104 3.70666 16.718 3.88
126 1 -1.1104 3.73714 19.3038 6.46522
133 1 -1.1104 3.80704 16.5287 6.71831
117 1 -1.1104 0.824093 16.6151 6.48683
140 1 -1.1104 6.39905 16.6729 0.875037
139 1 -1.1104 6.56259 19.5523 3.65373
302 1 -1.1104 1.01421 19.3735 6.60977
108 1 -1.1104 1.07766 13.9094 6.68666
124 1 -1.1104 3.97694 13.7542 6.59526
118 1 -1.1104 6.54461 16.8043 6.59414
111 1 -1.1104 6.76151 14.0974 6.61668
112 1 -1.1104 6.75456 19.5128 6.6112
138 1 -1.1104 6.59522 19.4881 0.925563
110 1 -1.1104 6.63887 13.9046 1.06208
122 1 -1.1104 6.43174 16.8588 3.77512
115 1 -1.1104 6.49492 13.898 3.71169
141 2 2.2208 10.8342 18.1201 5.16381
142 1 -1.1104 12.2944 13.875 1.00494
144 1 -1.1104 12.3369 19.5431 0.906475
146 1 -1.1104 12.345 13.9845 3.77924
147 1 -1.1104 12.1232 19.7518 3.88399
148 1 -1.1104 12.2647 16.8781 0.928898
150 2 2.2208 10.9092 15.4274 2.38639
151 2 2.2208 10.9705 20.9223 2.38651
152 1 -1.1104 12.2438 16.902 3.52348
153 1 -1.1104 9.35569 13.9691 1.02434
155 1 -1.1104 9.50978 19.4575 0.87228
157 2 2.2208 8.06701 18.168 2.26787
158 1 -1.1104 9.53176 14.0438 3.76474
159 1 -1.1104 9.41748 19.3708 3.64332
160 2 2.2208 8.06638 15.351 5.15171
161 2 2.2208 8.04813 20.9545 5.18161
162 1 -1.1104 9.48325 16.6895 0.989533
164 1 -1.1104 9.28342 16.7144 3.61456
156 1 -1.1104 9.53479 19.4923 6.62388
154 1 -1.1104 9.55784 14.0421 6.58164
145 1 -1.1104 12.2352 19.5206 6.5291
149 1 -1.1104 12.2986 16.7521 6.46767
163 1 -1.1104 9.45857 16.6665 6.48542
143 1 -1.1104 12.2779 13.9713 6.55126
173 1 -1.1104 3.97359 2.55081 6.79425
167 1 -1.1104 1.13629 2.57671 6.64374
172 1 -1.1104 3.88551 -2.77779 6.63745
9017 2 2.2208 -0.260085 4.12486 8.17256
231 2 2.2208 13.58 4.08068 5.32037
175 2 2.2208 5.36082 1.17633 10.9215
176 1 -1.1104 1.3316 -3.07476 12.2632
177 1 -1.1104 1.29726 2.74147 12.38
180 1 -1.1104 1.47969 -2.96687 9.49048
181 1 -1.1104 1.16451 2.64566 9.59113
184 1 -1.1104 1.36865 -0.239553 12.2118
186 2 2.2208 5.32038 -1.513 8.15124
187 2 2.2208 5.27939 3.9895 8.08873
188 1 -1.1104 1.24091 -0.298384 9.56115
190 1 -1.1104 4.24702 -2.9733 12.2417
191 1 -1.1104 3.99231 2.79336 12.2407
192 2 2.2208 2.52255 1.29568 8.10932
193 1 -1.1104 4.06635 -2.99437 9.4945
194 1 -1.1104 3.87405 2.55876 9.59878
195 2 2.2208 2.71137 -1.59865 10.9292
196 2 2.2208 2.48611 4.08599 11.0094
197 1 -1.1104 4.16163 -0.0442329 12.3606
198 1 -1.1104 4.08251 -0.195322 9.56795
185 1 -1.1104 6.85426 -0.0922524 12.2109
179 1 -1.1104 6.69636 2.74075 12.2561
8885 2 2.2208 -0.193355 -1.54841 8.14903
50 1 -1.1104 12.358 19.5935 12.2295
9150 2 2.2208 -0.238503 6.87928 5.29229
615 2 2.2208 -0.234823 6.98848 -0.339773
233 2 2.2208 8.06239 15.334 10.8278
9053 2 2.2208 -0.287538 9.74759 2.42616
575 2 2.2208 8.13031 -1.60577 -0.242318
82 1 -1.1104 12.2874 16.754 12.0885
316 2 2.2208 8.28042 20.8445 10.6661
169 1 -1.1104 6.70715 2.78517 6.69578
209 1 -1.1104 9.43602 2.50128 6.60209
207 1 -1.1104 12.3079 -0.128612 6.77398
206 1 -1.1104 12.2153 2.67139 6.6005
178 1 -1.1104 6.8937 -2.81881 12.2223
189 1 -1.1104 6.77703 -0.163669 9.42734
182 1 -1.1104 6.87215 -3.04653 9.5427
183 1 -1.1104 6.74261 2.75772 9.51393
211 2 2.2208 10.9544 1.2741 11.0256
212 1 -1.1104 12.4129 -2.99079 12.2463
213 1 -1.1104 12.4399 2.6522 12.3449
214 1 -1.1104 12.3488 -2.84667 9.52851
215 1 -1.1104 12.3943 2.75741 9.48881
216 1 -1.1104 12.3447 -0.0524801 12.3819
217 2 2.2208 10.8855 -1.50031 8.13812
218 2 2.2208 10.9481 4.10834 8.07572
219 1 -1.1104 12.4377 0.0663733 9.68894
220 1 -1.1104 9.54382 -3.03773 12.3889
221 1 -1.1104 9.53618 2.60467 12.3102
222 2 2.2208 8.00028 1.28093 8.14409
223 1 -1.1104 9.57452 -2.88176 9.59692
224 1 -1.1104 9.58051 2.70166 9.49029
225 2 2.2208 8.26099 -1.58394 10.8852
226 2 2.2208 8.11368 3.9921 10.9564
227 1 -1.1104 9.63019 -0.203727 12.4522
228 1 -1.1104 9.52707 -0.111949 9.69965
49 1 -1.1104 12.2712 14.0348 12.2074
9087 2 2.2208 -0.260972 6.83869 11.0008
454 2 2.2208 10.8561 9.70119 13.635
62 1 -1.1104 1.09428 10.9698 6.57007
234 1 -1.1104 1.05622 8.29548 6.77791
136 2 2.2208 10.8883 20.9248 7.94855
8859 2 2.2208 -0.280635 20.8774 8.00229
240 2 2.2208 5.34527 6.82246 10.8165
241 2 2.2208 5.32524 12.3527 10.8708
242 1 -1.1104 1.07506 8.33187 12.4041
244 1 -1.1104 1.08091 8.20739 9.55851
246 1 -1.1104 1.0049 5.55242 12.4902
247 1 -1.1104 1.04892 11.0853 12.3007
250 2 2.2208 5.1838 9.60566 8.08398
251 1 -1.1104 1.0376 5.48656 9.62974
252 1 -1.1104 1.05796 11.0415 9.44498
255 1 -1.1104 3.8551 8.19631 12.2304
256 2 2.2208 2.37558 6.7917 8.08492
257 2 2.2208 2.48518 12.3794 8.05193
258 1 -1.1104 3.76246 8.08108 9.50087
259 2 2.2208 2.42857 9.62989 10.8449
260 1 -1.1104 3.91324 5.29009 12.4083
261 1 -1.1104 3.91851 11.006 12.2295
262 1 -1.1104 3.75296 5.3654 9.46004
263 1 -1.1104 3.74209 10.9611 9.34357
8858 2 2.2208 -0.24528 18.0984 10.751
243 1 -1.1104 6.74087 8.28511 12.1416
315 1 -1.1104 9.44901 16.7291 12.1589
289 1 -1.1104 6.57536 16.7055 9.4298
237 1 -1.1104 6.63136 5.68055 6.63659
265 1 -1.1104 12.356 8.29933 6.77633
8457 2 2.2208 13.671 -4.28653 8.11904
489 2 2.2208 2.53685 18.1589 13.5688
253 1 -1.1104 6.67683 5.47384 9.41771
248 1 -1.1104 6.72412 5.53802 12.2298
249 1 -1.1104 6.72887 11.0541 12.2005
254 1 -1.1104 6.67512 11.0537 9.5734
245 1 -1.1104 6.55345 8.25867 9.23744
264 1 -1.1104 9.44644 11.2345 9.49401
268 1 -1.1104 9.59404 5.54736 9.54063
270 1 -1.1104 9.54112 11.1622 12.2713
271 1 -1.1104 9.4624 5.46749 12.2618
272 2 2.2208 8.12562 9.75046 11.0025
273 1 -1.1104 9.50587 8.34886 9.45765
274 2 2.2208 8.12407 12.6555 8.09368
275 2 2.2208 8.14631 6.92251 8.11991
276 2 2.2208 10.8011 6.91366 10.9396
277 2 2.2208 10.8838 12.6226 10.755
278 1 -1.1104 12.292 8.28353 12.2971
279 1 -1.1104 12.2002 8.277 9.49991
280 1 -1.1104 12.282 5.55543 12.3257
281 1 -1.1104 12.2098 11.1692 12.1621
282 2 2.2208 10.8967 9.69948 8.04529
283 1 -1.1104 12.3872 5.45281 9.52001
284 1 -1.1104 12.2808 10.9745 9.46642
285 1 -1.1104 9.55274 8.23039 12.3036
288 1 -1.1104 6.76297 19.345 9.49298
518 2 2.2208 8.05891 18.1499 13.4937
200 1 -1.1104 9.4352 14.0579 12.2158
290 1 -1.1104 6.75408 13.8487 9.46176
490 2 2.2208 5.4171 20.958 13.5627
286 1 -1.1104 4.06113 19.4621 12.1058
287 1 -1.1104 3.90414 13.8627 12.2944
291 1 -1.1104 1.0884 19.4792 9.29314
292 1 -1.1104 1.14522 16.6345 9.32828
293 2 2.2208 5.34525 20.8255 7.96873
294 1 -1.1104 1.13409 13.938 9.44756
295 2 2.2208 5.1983 15.2964 8.0872
298 1 -1.1104 1.0844 19.5226 12.0662
299 1 -1.1104 1.09621 13.9205 12.3895
300 2 2.2208 5.32288 17.9997 10.8466
301 1 -1.1104 3.928 19.549 9.32392
303 2 2.2208 2.35874 17.9722 7.96457
304 1 -1.1104 3.66432 16.8237 9.43079
305 1 -1.1104 3.93824 13.8496 9.42998
307 1 -1.1104 1.08636 16.6608 12.1682
308 1 -1.1104 3.91476 16.5952 12.3454
309 2 2.2208 2.51884 20.846 10.8196
310 2 2.2208 2.47831 15.244 10.9506
311 2 2.2208 8.06538 18.077 7.90701
296 1 -1.1104 6.78128 19.5014 12.2253
314 1 -1.1104 9.5783 16.9811 9.19503
30 2 2.2208 10.9606 18.2087 10.7112
199 1 -1.1104 12.3741 16.7591 9.22288
232 1 -1.1104 9.48191 19.5059 9.37746
105 2 2.2208 10.9246 15.4383 7.96002
306 1 -1.1104 6.71045 16.6335 12.1997
297 1 -1.1104 6.5341 13.8598 12.2099
545 2 2.2208 2.34568 -1.5057 -0.287741
358 2 2.2208 2.64253 1.36025 13.6384
453 2 2.2208 8.12882 6.85501 13.66
544 2 2.2208 5.17509 1.15149 -0.320822
634 2 2.2208 10.8707 6.85594 -0.269695
355 2 2.2208 -0.122065 -1.54252 13.6031
317 2 2.2208 5.55003 1.37735 16.4448
318 1 -1.1104 1.2311 -2.92468 17.9128
319 1 -1.1104 1.22747 2.73329 17.8818
322 1 -1.1104 1.11724 -2.83871 15.1241
324 1 -1.1104 1.27811 2.66678 15.1207
330 1 -1.1104 1.21403 -0.258436 17.8007
332 2 2.2208 5.25275 -1.54182 19.3764
333 2 2.2208 5.34792 4.10512 19.2262
334 1 -1.1104 1.29467 -0.0256501 15.0199
338 1 -1.1104 3.96535 -2.82955 17.873
339 1 -1.1104 4.08982 2.65731 17.9056
340 2 2.2208 2.5122 1.23558 19.3234
341 1 -1.1104 3.9263 -2.84932 14.9807
343 1 -1.1104 3.99686 2.79216 15.01
345 2 2.2208 2.68125 -1.43969 16.37
346 2 2.2208 2.64549 4.0142 16.502
347 1 -1.1104 4.00978 -0.0813029 17.8221
348 1 -1.1104 4.16275 -0.0361224 15.0136
323 1 -1.1104 1.11532 -3.04776 20.5986
552 2 2.2208 8.12276 20.8012 27.5644
349 1 -1.1104 3.85982 -0.18253 20.7529
547 2 2.2208 8.03703 15.312 27.6234
8827 2 2.2208 5.39299 -4.27591 16.5105
8837 2 2.2208 2.53875 -4.30837 24.8975
668 2 2.2208 -0.195001 20.9474 24.8162
553 2 2.2208 10.9006 18.1602 21.9106
325 1 -1.1104 1.12175 2.61481 20.6601
344 1 -1.1104 3.88256 2.78243 20.668
335 1 -1.1104 1.12222 -0.17581 20.666
681 2 2.2208 10.9124 21.0178 24.8294
326 1 -1.1104 6.78443 -2.86013 15.069
321 1 -1.1104 6.81759 2.69841 17.9021
328 1 -1.1104 6.80596 2.81485 15.0682
336 1 -1.1104 6.95405 -0.0518295 15.1464
320 1 -1.1104 6.87263 -2.91367 17.9411
331 1 -1.1104 6.85186 -0.00168543 17.8267
360 2 2.2208 10.9406 1.30219 16.4467
361 1 -1.1104 12.3968 -2.84954 17.916
362 1 -1.1104 12.4985 2.8383 17.9073
363 1 -1.1104 12.2205 -2.89516 15.0185
365 1 -1.1104 12.1509 2.72969 15.2566
367 1 -1.1104 12.4061 -0.0118 17.9618
368 2 2.2208 10.9427 -1.42598 19.3761
369 2 2.2208 10.9107 4.20659 19.2813
370 1 -1.1104 12.6344 -0.0872215 15.0332
372 1 -1.1104 9.57888 -2.95124 17.9332
373 1 -1.1104 9.58088 2.78605 17.9331
374 2 2.2208 8.16633 1.28833 19.2582
375 1 -1.1104 9.4781 -3.05948 15.1128
377 1 -1.1104 9.43204 2.71994 15.204
379 2 2.2208 8.21686 -1.59241 16.5581
380 2 2.2208 8.29784 4.14136 16.4751
381 1 -1.1104 9.54025 -0.156749 17.867
382 1 -1.1104 9.75065 -0.0876533 15.0888
378 1 -1.1104 9.52298 2.5651 20.8268
371 1 -1.1104 12.1841 -0.0266119 20.7047
329 1 -1.1104 6.70524 2.81959 20.6596
366 1 -1.1104 12.412 2.80225 20.6838
9370 2 2.2208 13.6529 15.2371 22.0135
327 1 -1.1104 6.75546 -2.89729 20.5836
354 2 2.2208 -0.289464 -1.56609 19.2151
665 2 2.2208 2.30413 15.3053 27.5992
393 2 2.2208 5.44197 6.86679 16.3947
394 2 2.2208 5.20688 12.504 16.554
395 1 -1.1104 1.18445 8.38308 17.944
397 1 -1.1104 1.0603 8.32215 15.132
401 1 -1.1104 1.1135 5.67194 17.9845
402 1 -1.1104 1.10022 11.2111 17.8506
405 2 2.2208 5.33531 9.67113 19.3351
406 1 -1.1104 1.13997 5.47236 15.2154
408 1 -1.1104 1.22584 11.235 15.2086
414 1 -1.1104 4.02244 8.39764 17.8251
415 2 2.2208 2.5027 7.02653 19.1528
416 2 2.2208 2.49401 12.4376 19.2685
417 1 -1.1104 3.98257 8.23738 15.0239
419 2 2.2208 2.43496 9.77361 16.5581
420 1 -1.1104 3.90269 5.49109 17.8074
421 1 -1.1104 3.85722 11.071 17.9539
422 1 -1.1104 4.09561 5.49973 15.1483
424 1 -1.1104 3.93321 11.0585 15.0953
8826 2 2.2208 -0.208192 -4.28092 16.5504
423 1 -1.1104 3.84984 5.64033 20.6806
407 1 -1.1104 1.04044 5.4536 20.7475
8523 2 2.2208 8.14323 -4.31595 24.837
17634 2 2.2208 -0.279622 -4.28718 22.0373
425 1 -1.1104 3.94568 11.1392 20.7658
409 1 -1.1104 1.0644 11.1898 20.7004
398 1 -1.1104 1.02914 8.24889 20.6917
400 1 -1.1104 6.75439 8.35605 20.6312
412 1 -1.1104 6.72777 11.2097 14.9939
396 1 -1.1104 6.68664 8.36341 17.8162
399 1 -1.1104 6.66038 8.34482 15.0233
410 1 -1.1104 6.90982 5.48422 15.0856
404 1 -1.1104 6.58679 11.2116 17.8628
403 1 -1.1104 6.66876 5.52783 17.8962
429 2 2.2208 11.0166 7.08646 16.515
430 2 2.2208 10.854 12.5744 16.4628
431 1 -1.1104 12.3932 8.40011 17.8385
432 1 -1.1104 12.4619 8.40614 15.0586
434 1 -1.1104 12.3416 5.49508 17.9872
435 1 -1.1104 12.2531 11.1448 17.742
436 2 2.2208 10.9247 9.74313 19.2205
437 1 -1.1104 12.2931 5.58193 15.0846
439 1 -1.1104 12.2903 11.0031 15.0262
441 1 -1.1104 9.52682 8.42041 17.9231
442 2 2.2208 8.09344 6.95905 19.3793
443 2 2.2208 8.00748 12.607 19.3124
444 1 -1.1104 9.53635 8.28908 15.072
446 2 2.2208 8.04677 9.76119 16.5192
447 1 -1.1104 9.55006 5.508 17.9478
448 1 -1.1104 9.58023 11.1451 17.9492
449 1 -1.1104 9.49555 5.58595 14.9882
451 1 -1.1104 9.56736 11.0227 15.1404
445 1 -1.1104 9.47763 8.30177 20.704
440 1 -1.1104 12.3334 11.0077 20.5401
413 1 -1.1104 6.76646 11.1965 20.6388
433 1 -1.1104 12.2629 8.29577 20.5856
411 1 -1.1104 6.62136 5.53629 20.8355
450 1 -1.1104 9.41808 5.44558 20.6627
438 1 -1.1104 12.289 5.58244 20.7874
452 1 -1.1104 9.61993 11.1236 20.6403
9364 2 2.2208 -0.28695 21.0073 19.1925
456 2 2.2208 5.30963 18.1077 16.3692
457 1 -1.1104 0.980437 14.0066 17.8154
458 1 -1.1104 0.978165 19.6388 17.6639
461 1 -1.1104 1.2022 13.9606 15.0397
463 1 -1.1104 1.11644 19.3709 14.8134
469 1 -1.1104 1.13503 16.7284 17.9794
471 2 2.2208 5.23864 15.4245 19.2474
472 2 2.2208 5.27199 20.9108 19.3149
473 1 -1.1104 1.00443 16.6883 15.1441
477 1 -1.1104 3.82011 14.0098 17.9857
478 1 -1.1104 3.80165 19.5182 17.7799
479 2 2.2208 2.36653 18.2792 19.1585
480 1 -1.1104 3.91549 13.9312 15.1656
482 1 -1.1104 4.08312 19.616 14.9113
484 2 2.2208 2.47631 15.2835 16.4446
485 2 2.2208 2.55479 20.9779 16.4279
486 1 -1.1104 3.82746 16.8807 17.7864
487 1 -1.1104 3.77312 16.7173 15.0321
462 1 -1.1104 0.858159 13.99 20.7004
464 1 -1.1104 0.960585 19.4473 20.6329
467 1 -1.1104 6.76597 19.3956 15.0463
459 1 -1.1104 6.53432 13.9218 18.0441
685 1 -1.1104 12.3543 13.8423 26.3615
483 1 -1.1104 3.80646 19.6262 20.5624
481 1 -1.1104 3.77897 13.8857 20.7156
474 1 -1.1104 0.81442 16.6698 20.7309
488 1 -1.1104 3.60839 16.7348 20.5529
460 1 -1.1104 6.57048 19.4969 17.7557
475 1 -1.1104 6.63435 16.5921 15.0004
470 1 -1.1104 6.79762 16.6671 17.7425
466 1 -1.1104 6.65363 13.8905 20.8252
465 1 -1.1104 6.59061 13.8599 15.3262
492 2 2.2208 10.8696 18.0845 16.3468
493 1 -1.1104 12.3164 14.0156 17.8443
494 1 -1.1104 12.1056 19.4707 17.8512
495 1 -1.1104 12.2875 13.9021 14.9449
497 1 -1.1104 12.2294 19.4509 14.9198
499 1 -1.1104 12.463 16.76 17.8119
500 2 2.2208 10.8695 15.2919 19.2746
501 2 2.2208 10.7881 20.8769 19.1813
502 1 -1.1104 12.2948 16.6325 14.8625
504 1 -1.1104 9.47289 13.9196 17.6672
505 1 -1.1104 9.4723 19.5038 17.7202
506 2 2.2208 8.08556 18.0711 19.2528
507 1 -1.1104 9.49078 13.8383 14.7992
509 1 -1.1104 9.41609 19.4314 15.0505
511 2 2.2208 7.99849 15.2268 16.4526
512 2 2.2208 8.03706 20.965 16.4078
513 1 -1.1104 9.5835 16.6132 17.8704
514 1 -1.1104 9.51094 16.6825 15.049
510 1 -1.1104 9.40323 19.5095 20.6199
496 1 -1.1104 12.1042 13.8763 20.6681
503 1 -1.1104 12.2677 16.7321 20.5711
684 1 -1.1104 12.3188 19.4075 26.0957
498 1 -1.1104 12.3407 19.509 20.557
476 1 -1.1104 6.41125 16.672 20.6894
515 1 -1.1104 9.27663 16.7141 20.5664
508 1 -1.1104 9.3941 14.123 20.5692
468 1 -1.1104 6.61289 19.3726 20.6289
9371 2 2.2208 -0.106588 1.2149 16.5217
611 2 2.2208 5.21229 12.4693 27.573
8833 2 2.2208 8.13192 -4.31821 13.7642
342 1 -1.1104 3.94083 -3.05568 20.6264
520 2 2.2208 5.23833 1.34018 21.9771
521 1 -1.1104 1.05343 -2.91866 23.5179
522 1 -1.1104 0.909987 2.7044 23.3563
525 1 -1.1104 1.04087 -2.94423 26.3524
526 1 -1.1104 0.87511 2.5799 26.1816
529 1 -1.1104 0.97322 -0.17814 23.5425
531 2 2.2208 5.17822 -1.53096 24.843
532 2 2.2208 5.37087 4.11957 24.9204
533 1 -1.1104 1.04339 -0.0754557 26.3544
535 1 -1.1104 3.8392 -2.91183 23.4519
536 1 -1.1104 3.67479 2.61739 23.279
537 2 2.2208 2.33643 1.37085 24.763
538 1 -1.1104 3.75499 -3.00118 26.2953
539 1 -1.1104 3.92204 2.6944 26.2325
540 2 2.2208 2.41497 -1.6613 22.0839
541 2 2.2208 2.42075 4.12156 22.0669
542 1 -1.1104 3.71531 -0.196527 23.474
543 1 -1.1104 3.84621 -0.186568 26.3297
9366 2 2.2208 -0.31705 18.1329 16.3988
664 2 2.2208 5.27051 18.0293 27.4779
9184 2 2.2208 -0.219974 -1.59432 24.9877
663 2 2.2208 2.4483 20.9113 27.5773
337 1 -1.1104 6.62304 -0.0935993 20.6866
376 1 -1.1104 9.71381 -2.93091 20.6939
364 1 -1.1104 12.5491 -2.83835 20.7518
383 1 -1.1104 9.47831 -0.0739643 20.7029
609 2 2.2208 5.24722 6.88585 27.6175
530 1 -1.1104 6.59237 -0.14843 23.4297
523 1 -1.1104 6.74106 -2.94834 23.442
528 1 -1.1104 6.61454 2.72611 26.169
527 1 -1.1104 6.65527 -2.85512 26.3204
534 1 -1.1104 6.69876 -0.201696 26.2478
524 1 -1.1104 6.63438 2.71908 23.5523
556 2 2.2208 10.9194 1.32378 22.1988
557 1 -1.1104 12.3241 -2.92061 23.6305
558 1 -1.1104 12.2807 2.72585 23.5018
559 1 -1.1104 12.2596 -2.88587 26.3177
560 1 -1.1104 12.3325 2.51857 26.305
561 1 -1.1104 12.1884 -0.200665 23.4476
562 2 2.2208 10.8905 -1.698 24.9153
563 2 2.2208 10.8042 4.09772 25.0257
564 1 -1.1104 12.4007 -0.174753 26.3885
565 1 -1.1104 9.54198 -2.89167 23.5433
566 1 -1.1104 9.55947 2.80279 23.5964
567 2 2.2208 7.94106 1.23252 24.9402
568 1 -1.1104 9.58076 -2.98052 26.2373
569 1 -1.1104 9.44931 2.65922 26.2807
570 2 2.2208 8.163 -1.53967 22.0922
571 2 2.2208 8.08594 4.14643 22.2338
572 1 -1.1104 9.27165 -0.119239 23.4579
573 1 -1.1104 9.53396 0.0269911 26.332
8524 2 2.2208 11.009 -4.33277 22.0973
669 1 -1.1104 12.3601 19.8058 23.4497
418 1 -1.1104 3.83001 8.30889 20.7381
585 2 2.2208 5.25154 6.95313 22.1633
586 2 2.2208 5.22628 12.5883 22.0092
587 1 -1.1104 0.951855 8.30818 23.6132
589 1 -1.1104 1.17183 8.28846 26.3496
591 1 -1.1104 0.979511 5.65777 23.4716
592 1 -1.1104 0.961811 11.1274 23.4794
595 2 2.2208 5.23569 9.74624 24.831
596 1 -1.1104 0.966194 5.46184 26.1579
597 1 -1.1104 0.886555 11.0186 26.389
600 1 -1.1104 3.72078 8.33334 23.4236
601 2 2.2208 2.39811 6.89185 24.8107
602 2 2.2208 2.32914 12.5263 24.9148
603 1 -1.1104 3.92357 8.11893 26.1939
604 2 2.2208 2.38202 9.69881 22.0353
605 1 -1.1104 3.77422 5.531 23.5242
606 1 -1.1104 3.81294 11.15 23.5767
607 1 -1.1104 3.7823 5.39709 26.412
608 1 -1.1104 3.82265 10.9229 26.2376
643 1 -1.1104 6.70063 16.597 26.1735
588 1 -1.1104 6.5977 8.37696 23.6009
580 2 2.2208 -0.336442 4.20008 19.1743
8831 2 2.2208 10.9069 -4.32051 16.4538
639 2 2.2208 13.6503 6.88074 24.913
384 2 2.2208 13.6627 18.1118 19.3175
614 2 2.2208 -0.308639 12.5576 22.0648
9386 2 2.2208 13.6262 4.1083 22.1402
636 2 2.2208 10.8216 12.5766 27.6618
8829 2 2.2208 2.58383 -4.34773 13.7054
598 1 -1.1104 6.76089 5.66487 26.3682
599 1 -1.1104 6.61615 11.1195 26.1871
590 1 -1.1104 6.66417 8.43904 26.2104
594 1 -1.1104 6.73282 11.1712 23.3645
593 1 -1.1104 6.63388 5.62881 23.6157
616 1 -1.1104 9.43431 11.0638 26.1428
617 1 -1.1104 9.42619 5.5593 26.2049
618 1 -1.1104 9.60697 11.1132 23.4998
619 1 -1.1104 9.49654 5.68467 23.3979
620 2 2.2208 8.11549 9.64067 22.0543
621 1 -1.1104 9.55854 8.21032 26.2602
622 2 2.2208 8.06041 12.4544 24.8877
623 2 2.2208 8.11561 7.0146 24.8917
624 2 2.2208 10.8597 6.93767 22.0774
625 2 2.2208 10.83 12.5327 22.0978
626 1 -1.1104 12.2174 8.3746 23.3414
627 1 -1.1104 12.3192 8.20624 26.2546
628 1 -1.1104 12.3319 5.50532 23.5633
629 1 -1.1104 12.3017 11.2006 23.3471
630 2 2.2208 10.9351 9.6995 24.7459
631 1 -1.1104 12.3745 5.31942 26.3931
632 1 -1.1104 12.2496 10.9093 26.1064
633 1 -1.1104 9.37589 8.43261 23.3792
677 2 2.2208 8.07824 18.0643 24.8585
548 2 2.2208 10.8921 18.2616 27.4782
351 2 2.2208 13.6241 9.68549 22.0061
637 1 -1.1104 12.4314 13.9001 23.4972
650 1 -1.1104 6.90921 14.1175 23.6421
647 1 -1.1104 6.70753 19.5691 23.4034
646 1 -1.1104 0.933726 13.8316 26.2126
648 2 2.2208 5.26844 20.9103 24.7609
662 2 2.2208 2.29433 15.3357 22.0442
661 2 2.2208 2.42917 21.0117 22.0419
660 1 -1.1104 3.69355 16.8606 23.2531
659 1 -1.1104 1.13224 16.6886 23.6054
657 1 -1.1104 3.69674 13.9335 26.3075
656 1 -1.1104 3.93641 16.7698 26.2201
655 2 2.2208 2.52271 18.125 24.8095
654 1 -1.1104 3.96452 19.6114 26.1728
653 2 2.2208 5.17087 18.05 21.9629
652 1 -1.1104 0.962852 13.8793 23.4247
651 1 -1.1104 1.0858 19.5487 23.4287
649 2 2.2208 5.25561 15.2673 24.8678
640 1 -1.1104 3.90277 19.4778 23.4154
642 1 -1.1104 3.84406 14.0864 23.4763
644 1 -1.1104 1.17669 19.466 26.1501
645 1 -1.1104 1.02603 16.6561 26.3559
658 1 -1.1104 6.6254 16.7567 23.4226
676 1 -1.1104 6.64408 19.3575 26.1732
641 1 -1.1104 6.56104 13.7613 26.3386
675 1 -1.1104 9.33266 13.9771 26.3286
673 2 2.2208 7.97199 15.3011 22.1291
683 1 -1.1104 12.232 16.7176 23.3164
679 1 -1.1104 9.58519 13.851 23.3832
682 2 2.2208 10.8807 15.3261 24.6976
678 1 -1.1104 9.57254 19.6307 23.4645
670 1 -1.1104 9.40586 16.8177 26.2922
671 1 -1.1104 9.51507 16.8202 23.5117
674 1 -1.1104 9.52093 19.6174 26.1795
680 1 -1.1104 12.4064 16.7235 26.1291
672 2 2.2208 8.06685 20.9133 22.0299
387 2 2.2208 -0.220311 6.94469 16.5536
389 2 2.2208 -0.295881 9.75605 19.4578
356 2 2.2208 13.6216 20.8968 16.4608
9177 2 2.2208 -0.339154 18.2146 22.1096
426 2 2.2208 2.53435 6.81351 13.8193
427 2 2.2208 5.35527 9.71518 13.7498
491 2 2.2208 5.41987 15.0918 13.6822
357 2 2.2208 5.44691 -1.34265 13.692
610 2 2.2208 2.48525 9.60265 27.6656
576 2 2.2208 7.99048 4.03373 27.6269
574 2 2.2208 10.9305 1.20227 27.6004
516 2 2.2208 10.7302 20.9451 13.638
9368 2 2.2208 -0.386409 20.9686 13.686
635 2 2.2208 8.09549 9.74574 27.6704
392 2 2.2208 10.9344 4.03217 13.6818
428 2 2.2208 2.53767 12.5196 13.7854
390 2 2.2208 8.18398 1.24815 13.7149
9226 2 2.2208 -0.198599 4.12083 13.7543
546 2 2.2208 2.36161 4.11455 27.5917
9367 2 2.2208 -0.288893 15.2993 13.7289
391 2 2.2208 10.9704 -1.54315 13.6901
689 2 2.2208 5.25831 23.6649 5.17225
690 2 2.2208 5.34877 29.466 5.08715
691 1 -1.1104 1.10747 25.2502 0.976835
692 1 -1.1104 0.862259 25.0872 3.79649
693 1 -1.1104 1.12252 22.31 0.931929
694 1 -1.1104 1.05819 27.9982 1.0431
695 2 2.2208 5.36676 26.3911 2.27946
696 1 -1.1104 1.03572 22.2739 3.77374
697 1 -1.1104 1.15381 27.9772 3.90272
698 1 -1.1104 3.99131 25.0606 1.01783
699 2 2.2208 2.55845 23.7243 2.28481
700 2 2.2208 2.49155 29.3174 2.36455
701 1 -1.1104 3.83488 25.1202 3.72914
702 2 2.2208 2.55315 26.5538 5.26234
703 1 -1.1104 3.90791 22.1401 0.869675
704 1 -1.1104 4.02375 27.8062 0.975339
705 1 -1.1104 3.80471 22.3542 3.63465
706 1 -1.1104 4.09721 27.9435 3.82997
833 1 -1.1104 0.986338 27.957 6.69171
1535 1 -1.1104 1.02282 47.3968 9.28834
708 2 2.2208 10.9926 40.6039 10.9276
714 1 -1.1104 6.79079 22.3279 3.80239
715 1 -1.1104 6.79888 27.9195 3.69661
710 1 -1.1104 6.67725 25.0501 0.982114
711 1 -1.1104 6.6931 25.0538 3.7646
712 1 -1.1104 6.79337 22.1897 0.995341
713 1 -1.1104 6.72189 27.8663 0.792836
716 2 2.2208 10.9562 23.6373 5.13804
717 2 2.2208 10.8283 29.4832 5.24135
718 1 -1.1104 12.2347 25.1926 0.85817
719 1 -1.1104 12.2893 25.3346 3.66935
720 1 -1.1104 12.3873 22.4205 0.973655
721 1 -1.1104 12.2307 27.9773 1.13703
722 2 2.2208 10.7173 26.5143 2.3313
723 1 -1.1104 12.3535 22.5091 3.81237
724 1 -1.1104 12.5048 28.0365 4.18612
725 1 -1.1104 9.36742 25.1069 0.855407
726 2 2.2208 8.06576 23.5797 2.35208
727 2 2.2208 8.11744 29.2849 2.24695
728 1 -1.1104 9.55615 25.1494 3.73269
729 2 2.2208 8.07888 26.4277 5.21932
730 1 -1.1104 9.48036 22.2766 0.907722
731 1 -1.1104 9.53677 27.8797 0.87493
732 1 -1.1104 9.51035 22.2871 3.72714
733 1 -1.1104 9.57549 28.0048 3.48042
868 1 -1.1104 9.67579 27.8285 6.4054
866 1 -1.1104 9.46541 24.9909 6.51798
835 1 -1.1104 6.70661 27.8163 6.59613
864 1 -1.1104 12.2452 22.4175 6.66852
982 1 -1.1104 12.1383 44.8445 9.34665
831 1 -1.1104 6.51821 24.9892 6.46028
863 1 -1.1104 12.2314 24.9943 6.60717
9802 2 2.2208 -0.377572 26.513 2.47896
737 2 2.2208 5.1622 34.9119 5.32781
738 1 -1.1104 1.03457 30.7194 0.957122
739 1 -1.1104 1.1033 36.2267 0.930452
741 1 -1.1104 0.994495 30.7685 3.84388
742 1 -1.1104 1.03126 36.2945 3.73801
744 1 -1.1104 1.20914 33.4961 1.01224
745 2 2.2208 5.25704 32.0208 2.19583
746 2 2.2208 5.24403 37.604 2.36428
747 1 -1.1104 1.06184 33.4534 3.92098
749 1 -1.1104 3.89124 30.7458 0.859919
750 1 -1.1104 3.92431 36.2932 1.12055
751 2 2.2208 2.44213 34.9574 2.4055
752 1 -1.1104 3.8725 30.6548 3.58082
753 1 -1.1104 3.77293 36.3342 3.84309
754 2 2.2208 2.5307 32.1289 5.24332
755 2 2.2208 2.4104 37.6881 5.26077
756 1 -1.1104 3.95276 33.5797 0.970427
757 1 -1.1104 3.81624 33.4467 3.74687
761 1 -1.1104 6.70912 30.7507 0.859889
882 1 -1.1104 1.08018 30.7252 6.65174
890 1 -1.1104 3.73599 33.5494 6.74498
886 1 -1.1104 1.11024 33.5535 6.62905
883 1 -1.1104 0.98717 36.2537 6.69898
888 1 -1.1104 3.94793 30.7676 6.55985
762 1 -1.1104 6.71525 30.7982 3.62752
887 1 -1.1104 6.60938 33.5659 6.55092
1047 2 2.2208 7.92519 29.4628 13.6031
740 1 -1.1104 6.60777 36.1627 1.05017
885 1 -1.1104 6.69329 36.3845 6.52112
748 1 -1.1104 6.64032 33.4225 3.73154
763 1 -1.1104 6.86501 33.5361 0.95717
743 1 -1.1104 6.63531 36.3771 3.83102
764 2 2.2208 10.9049 34.99 5.29971
765 1 -1.1104 12.5443 30.8181 1.1967
766 1 -1.1104 12.4381 36.4664 1.16209
767 1 -1.1104 12.1826 30.8621 4.09214
768 1 -1.1104 12.2984 36.2732 3.90891
769 1 -1.1104 12.3346 33.6379 0.932482
770 2 2.2208 10.9193 32.1641 2.45711
771 2 2.2208 11.0551 37.7335 2.49733
772 1 -1.1104 12.2664 33.6038 3.73515
773 1 -1.1104 9.68893 30.7205 1.21989
774 1 -1.1104 9.51796 36.1995 1.16267
775 2 2.2208 8.16563 34.8082 2.37827
776 1 -1.1104 9.51107 30.7932 3.8927
777 1 -1.1104 9.47235 36.4137 3.96777
778 2 2.2208 8.02062 32.1866 5.10567
779 2 2.2208 8.06312 37.7025 5.2129
780 1 -1.1104 9.55988 33.5468 0.977637
781 1 -1.1104 9.47577 33.517 3.7833
919 1 -1.1104 9.24291 30.6782 6.54771
921 1 -1.1104 9.34069 33.5441 6.52142
920 1 -1.1104 9.41593 36.3729 6.70824
985 1 -1.1104 12.1825 44.7657 12.091
803 1 -1.1104 3.83467 39.0234 0.962131
783 2 2.2208 5.29581 40.5955 5.29631