ITEM: TIMESTEP
30000
ITEM: NUMBER OF ATOMS
17640
ITEM: BOX BOUNDS pp pp pp
-3.5996052542197360e-01 2.7699960525421631e+01
-4.3842991788545218e+00 3.3246429917885234e+02
-3.5642644064031986e-01 2.7696426440640955e+01
ITEM: ATOMS id type q x y z
1 2 2.2208 5.32691 1.30409 5.22541
2 1 -1.1104 1.13147 -3.07988 1.09788
3 1 -1.1104 1.18027 2.49978 0.873852
6 1 -1.1104 1.08756 -2.98185 3.94136
7 1 -1.1104 1.09197 2.69833 3.8452
10 1 -1.1104 1.13986 -0.256608 0.943164
12 2 2.2208 5.19486 -1.44694 2.46718
13 2 2.2208 5.22549 4.04773 2.4341
14 1 -1.1104 1.07472 -0.0681047 3.88369
16 1 -1.1104 3.82458 -2.99824 1.21673
17 1 -1.1104 4.0338 2.59819 1.09985
18 2 2.2208 2.38119 1.21438 2.36317
19 1 -1.1104 3.93011 -2.88272 3.98305
20 1 -1.1104 3.89828 2.70688 3.89522
21 2 2.2208 2.4589 -1.58718 5.32815
22 2 2.2208 2.55016 4.08443 5.24956
23 1 -1.1104 3.91525 -0.12577 1.03086
24 1 -1.1104 3.85626 -0.0292025 3.74362
167 1 -1.1104 1.1218 2.72556 6.53523
9149 2 2.2208 -0.348934 4.06777 2.49089
8453 2 2.2208 5.27115 -4.33215 10.6983
53 1 -1.1104 12.0972 13.8917 9.3537
8455 2 2.2208 8.24753 -4.34022 7.98915
25 2 2.2208 -0.206459 -1.44831 2.39718
166 1 -1.1104 1.16605 -2.87962 6.65099
9148 2 2.2208 -0.330143 1.22932 5.39292
4 1 -1.1104 6.61961 -2.9841 0.869884
9 1 -1.1104 6.78262 2.70933 3.69126
11 1 -1.1104 6.73093 -0.0980314 1.20169
8 1 -1.1104 6.63444 -3.03569 3.6496
5 1 -1.1104 6.89974 2.74124 0.923079
15 1 -1.1104 6.76825 -0.0773864 3.90081
31 2 2.2208 10.9456 1.27065 5.08321
32 1 -1.1104 12.3252 -2.88402 0.976082
33 1 -1.1104 12.4628 2.53237 1.01633
34 1 -1.1104 12.2831 -3.07332 3.78177
35 1 -1.1104 12.4583 2.52982 3.73821
36 1 -1.1104 12.4001 -0.227612 0.988046
37 2 2.2208 10.9217 -1.47405 2.25897
38 2 2.2208 10.9287 4.05204 2.36331
39 1 -1.1104 12.4795 -0.277777 3.77013
40 1 -1.1104 9.43844 -3.04675 0.961084
41 1 -1.1104 9.57881 2.66011 1.06085
42 2 2.2208 8.12265 1.33151 2.48604
43 1 -1.1104 9.36107 -2.79582 3.82899
44 1 -1.1104 9.40929 2.6556 3.80977
45 2 2.2208 8.04069 -1.60293 5.18022
46 2 2.2208 8.10064 4.04113 5.21113
47 1 -1.1104 9.6285 -0.133394 0.856423
48 1 -1.1104 9.63564 -0.0871152 3.63055
208 1 -1.1104 9.44372 -2.91321 6.58631
207 1 -1.1104 12.2982 -0.346783 6.45653
205 1 -1.1104 12.3054 -3.21296 6.56527
81 1 -1.1104 12.3997 19.6088 9.53848
210 1 -1.1104 9.60064 -0.133713 6.53774
169 1 -1.1104 6.7959 2.67671 6.74507
206 1 -1.1104 12.356 2.34179 6.64971
390 2 2.2208 8.21353 1.29713 13.6951
54 2 2.2208 5.41645 6.82016 5.16964
55 2 2.2208 5.24822 12.4546 5.23016
56 1 -1.1104 1.14006 8.18987 0.916653
58 1 -1.1104 1.12186 8.12098 3.72318
60 1 -1.1104 1.21336 5.36106 1.13965
61 1 -1.1104 1.13436 11.0835 0.995242
66 2 2.2208 5.28065 9.68266 2.34507
67 1 -1.1104 1.01185 5.54456 3.64974
68 1 -1.1104 1.05539 11.0707 3.78297
71 1 -1.1104 3.88327 8.2027 0.918748
72 2 2.2208 2.57124 6.83627 2.40288
73 2 2.2208 2.45285 12.3701 2.42892
74 1 -1.1104 3.95456 8.24001 3.85899
75 2 2.2208 2.60586 9.69392 5.20204
76 1 -1.1104 3.95336 5.45521 0.96789
77 1 -1.1104 3.86523 10.9577 0.759616
79 1 -1.1104 3.9505 5.46794 3.89407
80 1 -1.1104 4.01174 11.0227 3.77548
83 2 2.2208 -0.319094 12.3862 5.24273
8450 2 2.2208 8.06914 -4.34702 2.42227
9150 2 2.2208 -0.40667 6.81433 5.16143
234 1 -1.1104 1.1425 8.25826 6.44086
239 1 -1.1104 4.07669 5.59468 6.68802
62 1 -1.1104 1.28502 11.0953 6.65089
78 1 -1.1104 3.96218 11.0915 6.76937
238 1 -1.1104 4.00738 8.29743 6.62962
236 1 -1.1104 1.10568 5.45506 6.50262
9053 2 2.2208 -0.298322 9.6569 2.30161
237 1 -1.1104 6.71923 5.60183 6.76727
59 1 -1.1104 6.73191 8.17898 3.75727
63 1 -1.1104 6.76009 5.40543 0.908321
57 1 -1.1104 6.73825 8.28043 0.957153
69 1 -1.1104 6.89213 5.46712 3.93878
70 1 -1.1104 6.75798 11.0633 3.87807
64 1 -1.1104 6.56586 10.9875 0.950888
84 2 2.2208 10.989 6.85887 5.2567
85 2 2.2208 10.9729 12.4468 5.0377
86 1 -1.1104 12.593 8.20738 1.2064
87 1 -1.1104 12.3724 8.20879 3.93442
88 1 -1.1104 12.4134 5.49085 1.06313
89 1 -1.1104 12.4045 10.9885 0.999837
91 2 2.2208 10.8384 9.56637 2.44574
92 1 -1.1104 12.4404 5.39107 3.88538
93 1 -1.1104 12.2228 11.261 3.73677
94 1 -1.1104 9.49204 8.25034 1.02317
95 2 2.2208 8.00505 6.85588 2.38856
96 2 2.2208 8.03417 12.5426 2.47085
97 1 -1.1104 9.46654 8.1431 3.85622
98 2 2.2208 8.12704 9.6737 5.1397
99 1 -1.1104 9.51434 5.43603 0.906264
100 1 -1.1104 9.55807 11.1909 1.02968
102 1 -1.1104 9.73579 5.46668 3.93079
103 1 -1.1104 9.56514 11.0221 3.74425
101 1 -1.1104 9.53243 11.2935 6.43563
267 1 -1.1104 9.56263 8.37831 6.64819
269 1 -1.1104 9.51594 5.40006 6.50518
265 1 -1.1104 12.2714 8.22694 6.58665
235 1 -1.1104 6.89543 8.38821 6.54782
65 1 -1.1104 6.82149 11.1503 6.52492
266 1 -1.1104 12.4181 5.27699 6.63781
135 2 2.2208 -0.256657 15.2189 2.37694
106 2 2.2208 5.25722 18.0211 5.18643
107 1 -1.1104 1.19094 13.8227 1.08084
109 1 -1.1104 0.861547 19.4396 1.11419
113 1 -1.1104 1.07153 13.886 3.81604
114 1 -1.1104 1.24712 19.3304 3.98568
116 1 -1.1104 0.988677 16.5115 0.942368
119 2 2.2208 5.28303 15.2771 2.33836
120 2 2.2208 5.24533 20.8653 2.29047
121 1 -1.1104 1.08542 16.6254 3.86273
123 1 -1.1104 3.87674 13.7996 1.10413
125 1 -1.1104 3.73552 19.3885 1.03593
127 2 2.2208 2.40496 18.1169 2.41798
128 1 -1.1104 3.86514 13.8599 3.81993
129 1 -1.1104 3.96484 19.5199 3.73035
130 2 2.2208 2.52438 15.3671 5.17503
131 2 2.2208 2.62242 20.8074 5.23151
132 1 -1.1104 3.84837 16.605 0.833275
134 1 -1.1104 3.81789 16.7187 3.80084
115 1 -1.1104 6.72739 13.7679 3.8197
137 2 2.2208 -0.36304 17.9128 5.10781
108 1 -1.1104 1.07373 13.82 6.47961
117 1 -1.1104 1.09638 16.6603 6.64814
9018 2 2.2208 -0.338804 20.8029 2.55418
149 1 -1.1104 12.2612 16.8242 6.4319
455 2 2.2208 8.1201 12.434 13.5423
139 1 -1.1104 6.591 19.3714 3.70311
140 1 -1.1104 6.54638 16.6469 0.993581
138 1 -1.1104 6.62443 19.4561 0.864859
110 1 -1.1104 6.64856 13.8771 1.00879
122 1 -1.1104 6.57888 16.5785 3.74081
141 2 2.2208 10.8896 18.2108 5.09125
142 1 -1.1104 12.3383 13.862 0.920443
144 1 -1.1104 12.2455 19.4398 0.869984
146 1 -1.1104 12.3598 14.1024 3.70483
147 1 -1.1104 12.2809 19.5644 3.71897
148 1 -1.1104 12.3023 16.7327 0.902464
150 2 2.2208 10.8615 15.3796 2.32789
151 2 2.2208 10.8701 20.8138 2.3305
152 1 -1.1104 12.2342 16.9629 3.80708
153 1 -1.1104 9.45569 13.8705 0.993935
155 1 -1.1104 9.38038 19.4372 0.93443
157 2 2.2208 8.01877 18.0802 2.42555
158 1 -1.1104 9.47974 14.0755 3.71869
159 1 -1.1104 9.4699 19.5275 3.83086
160 2 2.2208 8.06673 15.2788 5.03404
161 2 2.2208 8.00866 20.8153 5.20667
162 1 -1.1104 9.46865 16.6575 0.877973
164 1 -1.1104 9.52883 16.8289 3.65425
154 1 -1.1104 9.43606 14.0526 6.42612
111 1 -1.1104 6.53874 14.0236 6.67895
112 1 -1.1104 6.61359 19.5562 6.58696
143 1 -1.1104 12.3941 13.8363 6.52225
517 2 2.2208 10.7654 15.326 13.5658
8884 2 2.2208 -0.298574 1.23242 10.9373
26 2 2.2208 13.6338 15.2518 10.77
174 1 -1.1104 3.91137 0.0692524 6.55311
173 1 -1.1104 4.00757 2.74368 6.70512
170 1 -1.1104 1.18574 -0.220498 6.78175
172 1 -1.1104 3.86193 -2.93929 6.65914
491 2 2.2208 5.40052 15.2483 13.6407
545 2 2.2208 2.61613 -1.57568 -0.382986
9017 2 2.2208 -0.282166 4.11602 7.9867
175 2 2.2208 5.39734 1.22127 10.8128
176 1 -1.1104 1.22608 -3.05827 12.3499
177 1 -1.1104 1.10352 2.60712 12.4681
180 1 -1.1104 1.0794 -2.87451 9.63141
181 1 -1.1104 1.05164 2.83016 9.50237
184 1 -1.1104 1.01892 -0.142346 12.314
186 2 2.2208 5.15953 -1.48072 8.05381
187 2 2.2208 5.43638 4.17998 8.03881
188 1 -1.1104 1.13232 -0.0437219 9.54448
190 1 -1.1104 3.89878 -3.13187 12.1382
191 1 -1.1104 3.92375 2.73208 12.3161
192 2 2.2208 2.54831 1.2565 8.07822
193 1 -1.1104 3.80844 -2.96524 9.45314
194 1 -1.1104 3.94948 2.53006 9.45748
195 2 2.2208 2.58909 -1.58216 10.9279
196 2 2.2208 2.57145 4.05334 10.974
197 1 -1.1104 3.90841 -0.229424 12.2488
198 1 -1.1104 3.83577 -0.0557621 9.42927
454 2 2.2208 10.9955 9.71082 13.4739
386 2 2.2208 -0.336515 9.61769 13.6271
8858 2 2.2208 -0.285966 17.9303 10.8324
200 1 -1.1104 9.46844 14.0374 12.3333
171 1 -1.1104 6.78059 -0.143014 6.61815
168 1 -1.1104 6.57859 -2.8967 6.58333
179 1 -1.1104 6.89203 2.61181 12.068
183 1 -1.1104 6.70002 2.63958 9.35023
185 1 -1.1104 6.69749 -0.262551 12.1258
209 1 -1.1104 9.66086 2.62152 6.52466
182 1 -1.1104 6.62592 -3.00624 9.35573
178 1 -1.1104 6.69914 -3.05264 12.2136
189 1 -1.1104 6.62525 -0.0544285 9.35074
211 2 2.2208 10.9772 1.21074 10.8172
212 1 -1.1104 12.2855 -2.89493 12.1566
213 1 -1.1104 12.3674 2.6128 12.2193
214 1 -1.1104 12.4736 -2.99807 9.26543
215 1 -1.1104 12.2957 2.49782 9.38026
216 1 -1.1104 12.3445 -0.298919 12.1962
217 2 2.2208 10.8792 -1.51291 7.89477
218 2 2.2208 11.0774 4.00665 7.96951
219 1 -1.1104 12.2668 -0.303087 9.48015
220 1 -1.1104 9.55051 -3.09594 12.217
221 1 -1.1104 9.56055 2.61278 12.445
222 2 2.2208 8.16843 1.23438 7.95176
223 1 -1.1104 9.54843 -2.87068 9.3284
224 1 -1.1104 9.60586 2.66126 9.39003
225 2 2.2208 8.16094 -1.71856 10.7816
226 2 2.2208 8.18387 3.92639 10.7699
227 1 -1.1104 9.44118 -0.271124 12.305
228 1 -1.1104 9.54747 -0.222753 9.30435
8452 2 2.2208 2.49263 -4.41787 8.01939
49 1 -1.1104 12.3473 13.8008 12.1685
9226 2 2.2208 -0.242217 4.12326 13.6807
28 2 2.2208 -0.26104 12.4047 10.6939
51 2 2.2208 13.7533 12.4305 7.95393
9086 2 2.2208 -0.314901 9.72847 7.94355
240 2 2.2208 5.34135 6.93081 10.7971
241 2 2.2208 5.34552 12.5139 10.8146
242 1 -1.1104 1.00992 8.31368 12.2849
244 1 -1.1104 1.1441 8.39887 9.32717
246 1 -1.1104 1.31994 5.52209 12.1643
247 1 -1.1104 1.10888 11.0848 11.9973
250 2 2.2208 5.35945 9.62383 7.99211
251 1 -1.1104 0.912179 5.6026 9.14455
252 1 -1.1104 1.07515 11.0247 9.3474
255 1 -1.1104 3.93529 8.23493 12.029
256 2 2.2208 2.43954 6.88433 7.92833
257 2 2.2208 2.59976 12.5351 8.005
258 1 -1.1104 3.91979 8.21553 9.30329
259 2 2.2208 2.45279 9.70849 10.7535
260 1 -1.1104 4.08626 5.4647 12.2654
261 1 -1.1104 3.93555 11.0848 12.3258
262 1 -1.1104 3.9322 5.42467 9.43996
263 1 -1.1104 3.86504 11.1078 9.58373
231 2 2.2208 13.8294 3.84852 5.25583
546 2 2.2208 2.55847 3.90664 -0.343525
315 1 -1.1104 9.5965 16.7107 12.0479
254 1 -1.1104 6.66582 11.0537 9.29552
90 1 -1.1104 12.3682 11.2147 6.50108
245 1 -1.1104 6.90946 8.27498 9.29607
243 1 -1.1104 6.93845 8.18556 12.0517
248 1 -1.1104 6.81446 5.40106 12.2428
253 1 -1.1104 6.70673 5.42389 9.5033
249 1 -1.1104 6.67495 11.0103 12.1066
264 1 -1.1104 9.49664 11.1295 9.22828
268 1 -1.1104 9.6466 5.35841 9.33406
270 1 -1.1104 9.48157 11.0183 12.1553
271 1 -1.1104 9.53999 5.2407 12.1968
272 2 2.2208 8.16988 9.59284 10.8297
273 1 -1.1104 9.57356 8.31851 9.51018
274 2 2.2208 8.15686 12.543 7.85882
275 2 2.2208 8.16154 6.9143 8.0394
276 2 2.2208 10.9445 6.82559 10.8626
277 2 2.2208 10.7814 12.4847 10.6815
278 1 -1.1104 12.3997 8.27517 12.0173
279 1 -1.1104 12.3797 8.17748 9.43594
280 1 -1.1104 12.261 5.41684 12.207
281 1 -1.1104 12.1787 11.0853 12.125
282 2 2.2208 10.9412 9.78094 7.8913
283 1 -1.1104 12.4502 5.32479 9.34183
284 1 -1.1104 12.2597 11.1807 9.24019
285 1 -1.1104 9.66795 8.28492 12.2617
289 1 -1.1104 6.73483 16.7649 9.28065
50 1 -1.1104 12.3358 19.5428 12.2525
133 1 -1.1104 3.98493 16.6798 6.55962
290 1 -1.1104 6.63386 13.9703 9.38472
391 2 2.2208 10.9509 -1.60474 13.5679
302 1 -1.1104 1.23127 19.5074 6.71804
126 1 -1.1104 3.97309 19.4922 6.59036
313 2 2.2208 -0.335976 15.2052 8.08924
9087 2 2.2208 -0.374073 6.89017 10.8201
124 1 -1.1104 3.90916 14.0009 6.62249
286 1 -1.1104 3.84645 19.4166 12.0659
287 1 -1.1104 3.88751 13.9191 12.2565
291 1 -1.1104 0.989486 19.4338 9.4504
292 1 -1.1104 1.12613 16.7811 9.59749
293 2 2.2208 5.26452 21.009 7.91039
294 1 -1.1104 1.07081 13.9712 9.30313
295 2 2.2208 5.33909 15.3671 7.94044
298 1 -1.1104 1.13176 19.3831 12.2971
299 1 -1.1104 1.16232 13.9435 12.0166
300 2 2.2208 5.28186 18.0982 10.6843
301 1 -1.1104 3.80483 19.488 9.2434
303 2 2.2208 2.47554 18.0279 8.01727
304 1 -1.1104 3.94781 16.7056 9.41431
305 1 -1.1104 3.84589 13.9005 9.43097
307 1 -1.1104 1.21024 16.4802 12.2928
308 1 -1.1104 4.11981 16.6735 12.3861
309 2 2.2208 2.46014 20.7673 10.7335
310 2 2.2208 2.51291 15.3111 10.6903
9367 2 2.2208 -0.235026 15.1741 13.5587
156 1 -1.1104 9.52025 19.5987 6.57302
30 2 2.2208 10.9584 18.1873 10.6942
297 1 -1.1104 6.6877 13.8198 12.2016
201 1 -1.1104 9.39095 19.5121 12.1116
314 1 -1.1104 9.52721 16.6256 9.4075
145 1 -1.1104 12.1899 19.6382 6.57327
288 1 -1.1104 6.66448 19.4981 9.4472
311 2 2.2208 7.985 18.2032 8.02489
105 2 2.2208 10.8606 15.3154 7.85918
118 1 -1.1104 6.68899 16.7557 6.48256
312 1 -1.1104 9.43299 13.924 9.40016
136 2 2.2208 10.7321 20.9241 7.95465
199 1 -1.1104 12.3221 16.7968 9.38797
316 2 2.2208 8.00679 20.8285 10.8516
232 1 -1.1104 9.52692 19.4886 9.40121
306 1 -1.1104 6.77301 16.7096 12.1388
163 1 -1.1104 9.43349 16.8839 6.45438
233 2 2.2208 8.07625 15.3875 10.7642
82 1 -1.1104 12.3806 16.6459 12.047
296 1 -1.1104 6.75835 19.3817 12.0142
518 2 2.2208 8.11905 18.1067 13.6644
427 2 2.2208 5.40494 9.64025 13.5081
9368 2 2.2208 -0.333278 20.8679 13.6624
453 2 2.2208 8.24333 6.79158 13.5594
426 2 2.2208 2.61182 6.82075 13.542
17637 2 2.2208 -0.298951 -4.31553 -0.254834
665 2 2.2208 2.34453 15.1514 -0.423459
638 2 2.2208 13.8213 9.60432 -0.319446
634 2 2.2208 10.9726 6.79726 -0.2736
317 2 2.2208 5.4056 1.14317 16.4981
318 1 -1.1104 1.23278 -2.96878 17.8815
319 1 -1.1104 1.17095 2.69446 17.7864
322 1 -1.1104 1.14433 -3.08847 15.1928
324 1 -1.1104 1.09932 2.54267 15.0446
330 1 -1.1104 1.24074 -0.105997 17.9277
332 2 2.2208 5.41052 -1.61975 19.4781
333 2 2.2208 5.38398 3.93509 19.293
334 1 -1.1104 1.20927 -0.233114 15.1363
338 1 -1.1104 4.14614 -2.99808 17.9956
339 1 -1.1104 4.02633 2.73565 17.8854
340 2 2.2208 2.66817 1.2597 19.2234
341 1 -1.1104 3.97298 -2.99995 15.0542
343 1 -1.1104 4.01517 2.60625 15.0654
345 2 2.2208 2.68063 -1.57288 16.6924
346 2 2.2208 2.55515 4.02474 16.4525
347 1 -1.1104 3.9406 -0.0613363 17.9374
348 1 -1.1104 3.89571 -0.259038 15.0551
323 1 -1.1104 1.16815 -2.94796 20.7407
354 2 2.2208 -0.229817 -1.66787 19.3035
325 1 -1.1104 1.2481 2.57124 20.4465
549 2 2.2208 -0.296479 12.2598 16.429
575 2 2.2208 8.14345 -1.48348 27.6086
342 1 -1.1104 3.84264 -2.90729 20.7073
344 1 -1.1104 3.99881 2.63037 20.7534
615 2 2.2208 -0.254315 6.79113 27.6034
674 1 -1.1104 9.32894 19.3569 26.211
331 1 -1.1104 6.68741 -0.108942 17.9236
328 1 -1.1104 6.74043 2.67719 15.1068
321 1 -1.1104 6.80942 2.58421 17.756
326 1 -1.1104 6.80881 -3.09879 15.1829
336 1 -1.1104 6.87831 -0.149113 14.9279
320 1 -1.1104 6.73243 -2.8464 17.9721
360 2 2.2208 11.0135 1.20278 16.4982
361 1 -1.1104 12.335 -3.04304 17.8324
362 1 -1.1104 12.3175 2.50441 17.8165
363 1 -1.1104 12.2897 -3.01953 15.0486
365 1 -1.1104 12.3623 2.54965 15.1251
367 1 -1.1104 12.3039 -0.299337 17.9728
368 2 2.2208 10.9018 -1.62498 19.4227
369 2 2.2208 10.9444 3.9878 19.3283
370 1 -1.1104 12.4249 -0.142937 15.0923
372 1 -1.1104 9.6062 -3.07112 17.9061
373 1 -1.1104 9.56511 2.60178 17.9567
374 2 2.2208 8.13744 1.19674 19.2619
375 1 -1.1104 9.64892 -3.00272 15.0533
377 1 -1.1104 9.50097 2.71866 15.0832
379 2 2.2208 8.28032 -1.66751 16.3561
380 2 2.2208 8.12862 4.125 16.4142
381 1 -1.1104 9.57844 -0.34416 17.7996
382 1 -1.1104 9.67626 -0.169749 15.011
337 1 -1.1104 6.96331 -0.256117 20.7429
329 1 -1.1104 6.67525 2.57664 20.8062
376 1 -1.1104 9.58949 -3.06432 20.6872
366 1 -1.1104 12.2943 2.7021 20.6428
383 1 -1.1104 9.62944 -0.170042 20.7762
371 1 -1.1104 12.3933 -0.268743 20.7613
680 1 -1.1104 12.3201 16.8095 26.183
364 1 -1.1104 12.4497 -2.96663 20.7035
327 1 -1.1104 6.71509 -2.98322 20.708
611 2 2.2208 5.25463 12.2719 27.5756
389 2 2.2208 -0.287745 9.54242 19.1748
683 1 -1.1104 12.2151 16.6208 23.3893
393 2 2.2208 5.36183 6.7474 16.3919
394 2 2.2208 5.29736 12.3431 16.4068
395 1 -1.1104 1.19556 8.14434 17.557
397 1 -1.1104 1.21172 8.12736 14.9043
401 1 -1.1104 1.08493 5.42835 17.8369
402 1 -1.1104 1.23692 10.9086 17.7774
405 2 2.2208 5.39038 9.45306 19.2018
406 1 -1.1104 1.28716 5.37738 15.0805
408 1 -1.1104 1.10197 10.9856 14.8833
414 1 -1.1104 3.89041 8.14809 17.7826
415 2 2.2208 2.56545 6.63678 19.186
416 2 2.2208 2.51943 12.4253 19.2887
417 1 -1.1104 4.15276 8.26158 14.8866
419 2 2.2208 2.66254 9.62009 16.3496
420 1 -1.1104 4.02982 5.35136 17.8275
421 1 -1.1104 4.02008 10.9588 17.9446
422 1 -1.1104 3.99014 5.43461 15.0253
424 1 -1.1104 3.95117 10.9534 15.0637
423 1 -1.1104 3.85284 5.51363 20.614
398 1 -1.1104 1.13756 8.08825 20.3992
407 1 -1.1104 1.1156 5.22399 20.69
392 2 2.2208 10.9088 3.97491 13.6758
418 1 -1.1104 3.8985 8.26565 20.6189
425 1 -1.1104 3.99635 10.9147 20.6183
409 1 -1.1104 1.05339 10.9956 20.6861
387 2 2.2208 -0.225863 6.7854 16.3711
404 1 -1.1104 6.70892 10.9288 17.742
412 1 -1.1104 6.74092 11.1013 15.0199
410 1 -1.1104 6.75707 5.44893 15.0445
399 1 -1.1104 6.92783 8.16239 14.8141
396 1 -1.1104 6.78766 8.09733 17.696
403 1 -1.1104 6.7483 5.45527 17.9023
429 2 2.2208 10.9873 6.79826 16.4157
430 2 2.2208 11.0425 12.444 16.467
431 1 -1.1104 12.3411 8.14696 17.6476
432 1 -1.1104 12.4097 8.18147 14.8524
434 1 -1.1104 12.2233 5.46333 17.9935
435 1 -1.1104 12.4308 10.9755 17.9538
436 2 2.2208 10.9534 9.57851 19.1857
437 1 -1.1104 12.3497 5.38114 15.0638
439 1 -1.1104 12.4016 11.04 15.0691
441 1 -1.1104 9.5394 8.28489 17.8301
442 2 2.2208 8.16219 6.83012 19.2363
443 2 2.2208 8.02686 12.3007 19.172
444 1 -1.1104 9.63346 8.33179 14.9845
446 2 2.2208 8.19817 9.71382 16.3386
447 1 -1.1104 9.60145 5.44189 17.9085
448 1 -1.1104 9.49936 10.941 17.7843
449 1 -1.1104 9.59072 5.49382 14.9276
451 1 -1.1104 9.63357 11.084 14.9791
433 1 -1.1104 12.4634 8.28319 20.4544
411 1 -1.1104 6.70467 5.33755 20.5782
400 1 -1.1104 6.82995 8.18592 20.5754
452 1 -1.1104 9.56029 10.9549 20.6109
438 1 -1.1104 12.387 5.48739 20.7789
440 1 -1.1104 12.4849 11.0087 20.7046
413 1 -1.1104 6.7556 10.9524 20.7524
666 2 2.2208 -0.319771 15.2467 24.7329
456 2 2.2208 5.28302 18.1444 16.4106
457 1 -1.1104 1.11766 13.8565 17.8949
458 1 -1.1104 1.01981 19.6961 17.8001
461 1 -1.1104 0.957511 13.7747 15.0115
463 1 -1.1104 1.09056 19.4763 15.0489
469 1 -1.1104 0.917913 16.8208 17.8167
471 2 2.2208 5.22757 15.2701 19.1199
472 2 2.2208 5.31187 20.9168 19.2518
473 1 -1.1104 0.96842 16.7926 14.9536
477 1 -1.1104 3.95936 13.9193 17.6374
478 1 -1.1104 3.81358 19.566 17.8669
479 2 2.2208 2.42319 18.1113 19.1987
480 1 -1.1104 3.80223 13.8212 14.9852
482 1 -1.1104 3.86787 19.4982 15.0273
484 2 2.2208 2.47845 15.2043 16.3269
485 2 2.2208 2.45705 20.977 16.3827
486 1 -1.1104 3.75152 16.6748 17.7356
487 1 -1.1104 3.91546 16.64 15.0822
488 1 -1.1104 3.81492 16.6879 20.5611
352 2 2.2208 -0.332277 15.3555 19.2038
9364 2 2.2208 -0.361727 20.9322 19.2237
609 2 2.2208 5.34193 6.87115 27.6372
462 1 -1.1104 1.10087 13.8989 20.7391
481 1 -1.1104 3.98235 13.7338 20.7107
350 2 2.2208 -0.181736 6.73268 21.9445
664 2 2.2208 5.24412 18.0449 27.497
508 1 -1.1104 9.5487 13.4911 20.5237
459 1 -1.1104 6.64517 13.8917 17.8387
475 1 -1.1104 6.70063 16.597 14.9841
467 1 -1.1104 6.66085 19.4348 14.805
460 1 -1.1104 6.6105 19.4416 17.7481
465 1 -1.1104 6.65699 13.7844 15.1825
470 1 -1.1104 6.60894 16.6728 17.7735
492 2 2.2208 10.9861 18.044 16.5155
493 1 -1.1104 12.3941 13.7136 17.6386
494 1 -1.1104 12.4171 19.4098 17.7973
495 1 -1.1104 12.309 13.9103 14.9916
497 1 -1.1104 12.1983 19.662 15.0719
499 1 -1.1104 12.3106 16.5252 17.8279
500 2 2.2208 10.9514 15.1344 19.2206
501 2 2.2208 11.0372 20.9105 19.2255
502 1 -1.1104 12.258 16.7758 14.9906
504 1 -1.1104 9.45907 13.5934 17.6279
505 1 -1.1104 9.61927 19.3639 17.7648
506 2 2.2208 8.11687 18.097 19.2216
507 1 -1.1104 9.55097 13.7309 14.9642
509 1 -1.1104 9.43278 19.436 15.0093
511 2 2.2208 8.05379 15.2019 16.3643
512 2 2.2208 8.14107 20.9125 16.4288
513 1 -1.1104 9.53238 16.3998 17.8403
514 1 -1.1104 9.49491 16.7576 14.9935
476 1 -1.1104 6.68557 16.6145 20.6363
515 1 -1.1104 9.54336 16.4329 20.8005
466 1 -1.1104 6.72404 13.9221 20.4741
496 1 -1.1104 12.3343 13.8272 20.5523
682 2 2.2208 10.8468 15.2931 24.8861
349 1 -1.1104 4.05305 -0.100124 20.7225
635 2 2.2208 8.18873 9.62983 27.5728
8835 2 2.2208 5.28301 -4.36448 27.695
552 2 2.2208 8.16953 20.8172 27.5949
547 2 2.2208 7.96952 15.1973 27.6352
677 2 2.2208 7.95615 18.0091 24.872
335 1 -1.1104 1.13744 -0.306516 20.6093
520 2 2.2208 5.45071 1.17151 22.09
521 1 -1.1104 1.20305 -2.89368 23.5867
522 1 -1.1104 1.25401 2.55339 23.3972
525 1 -1.1104 1.19623 -2.96995 26.4503
526 1 -1.1104 1.06343 2.48105 26.2514
529 1 -1.1104 1.06463 -0.214991 23.5892
531 2 2.2208 5.22494 -1.58081 24.991
532 2 2.2208 5.35377 3.88459 24.8487
533 1 -1.1104 1.22117 -0.207814 26.4205
535 1 -1.1104 4.10161 -2.82083 23.3639
536 1 -1.1104 4.05043 2.74201 23.4049
537 2 2.2208 2.60937 1.20239 24.8869
538 1 -1.1104 3.87321 -2.97462 26.1974
539 1 -1.1104 3.95668 2.46286 26.2622
540 2 2.2208 2.56192 -1.50632 22.0201
541 2 2.2208 2.59165 3.8827 21.9242
542 1 -1.1104 4.00884 -0.110389 23.5952
543 1 -1.1104 4.01352 -0.234757 26.3462
643 1 -1.1104 6.5119 16.5086 26.2228
672 2 2.2208 8.01603 20.8141 21.9389
510 1 -1.1104 9.37084 19.4656 20.5744
678 1 -1.1104 9.35621 19.4419 23.4771
516 2 2.2208 10.9189 20.9261 13.7162
675 1 -1.1104 9.62997 13.931 26.2116
530 1 -1.1104 6.79488 -0.231395 23.496
523 1 -1.1104 6.86692 -2.92699 23.4329
528 1 -1.1104 6.68362 2.64633 26.1638
524 1 -1.1104 6.81544 2.58162 23.4378
527 1 -1.1104 6.66836 -2.90215 26.3156
378 1 -1.1104 9.57257 2.46748 20.7955
534 1 -1.1104 6.82898 -0.0639015 26.3013
556 2 2.2208 10.9937 1.10166 22.0567
557 1 -1.1104 12.3289 -3.07331 23.4962
558 1 -1.1104 12.5528 2.59031 23.6277
559 1 -1.1104 12.365 -2.79939 26.2507
560 1 -1.1104 12.4325 2.71998 26.3176
561 1 -1.1104 12.3543 -0.251682 23.5281
562 2 2.2208 10.9396 -1.6348 24.8631
563 2 2.2208 11.0163 3.98613 24.8334
564 1 -1.1104 12.2643 -0.0999448 26.2941
565 1 -1.1104 9.5637 -3.02816 23.4967
566 1 -1.1104 9.68697 2.7006 23.5823
567 2 2.2208 8.17326 1.30504 24.9151
568 1 -1.1104 9.4944 -2.96065 26.3135
569 1 -1.1104 9.51537 2.66859 26.3029
570 2 2.2208 8.25417 -1.53974 22.0989
571 2 2.2208 8.06372 4.06062 22.0907
572 1 -1.1104 9.58755 -0.158298 23.4956
573 1 -1.1104 9.56045 -0.155158 26.2281
428 2 2.2208 2.47415 12.4995 13.5221
684 1 -1.1104 12.3178 19.5837 26.082
544 2 2.2208 5.48213 1.25087 27.7264
614 2 2.2208 -0.354048 12.5435 22.0226
613 2 2.2208 -0.371949 9.54012 24.7859
585 2 2.2208 5.40782 6.75211 22.0987
586 2 2.2208 5.37505 12.3708 21.9669
587 1 -1.1104 1.14364 8.18457 23.2516
589 1 -1.1104 1.1982 8.22736 26.1741
591 1 -1.1104 1.15667 5.24016 23.5334
592 1 -1.1104 1.02275 10.8289 23.4627
595 2 2.2208 5.34586 9.62366 24.7742
596 1 -1.1104 1.11357 5.31394 26.3283
597 1 -1.1104 0.9794 10.9467 26.3141
600 1 -1.1104 3.95636 8.25825 23.3245
601 2 2.2208 2.57588 6.80073 24.8197
602 2 2.2208 2.53473 12.4446 24.8079
603 1 -1.1104 4.03547 8.23129 26.206
604 2 2.2208 2.58672 9.56218 21.9959
605 1 -1.1104 3.95201 5.46403 23.3778
606 1 -1.1104 3.85228 11.1335 23.4603
607 1 -1.1104 3.94079 5.43777 26.2504
608 1 -1.1104 3.90179 11.0749 26.1038
637 1 -1.1104 12.3058 13.9583 23.4485
671 1 -1.1104 9.27937 16.6105 23.5581
636 2 2.2208 10.7995 12.4826 27.6681
588 1 -1.1104 6.93759 8.27692 23.4153
590 1 -1.1104 6.83045 8.20435 26.3698
593 1 -1.1104 6.7178 5.31726 23.4125
445 1 -1.1104 9.71665 8.18456 20.6901
599 1 -1.1104 6.70544 11.0658 26.2043
598 1 -1.1104 6.79986 5.40372 26.1772
450 1 -1.1104 9.52004 5.36639 20.8556
594 1 -1.1104 6.78398 11.1256 23.4986
616 1 -1.1104 9.53961 11.1116 26.2117
617 1 -1.1104 9.62888 5.49741 26.2388
618 1 -1.1104 9.56778 11.0246 23.4266
619 1 -1.1104 9.52674 5.4046 23.5419
620 2 2.2208 8.26577 9.53853 22.0074
621 1 -1.1104 9.61405 8.16899 26.1831
622 2 2.2208 8.15166 12.4683 24.7172
623 2 2.2208 8.11089 6.81651 24.9434
624 2 2.2208 10.9984 6.90195 22.1105
625 2 2.2208 10.9557 12.3957 22.0898
626 1 -1.1104 12.441 8.21877 23.3717
627 1 -1.1104 12.5569 8.23506 26.2918
628 1 -1.1104 12.4741 5.45735 23.4263
629 1 -1.1104 12.3752 11.0966 23.4376
630 2 2.2208 11.1038 9.64768 24.753
631 1 -1.1104 12.3854 5.34519 26.4701
632 1 -1.1104 12.3569 11.0123 26.2739
633 1 -1.1104 9.6665 8.17867 23.4836
553 2 2.2208 10.8616 17.9752 22.0335
676 1 -1.1104 6.69623 19.5146 26.1607
663 2 2.2208 2.46371 20.8231 27.6628
503 1 -1.1104 12.297 16.7025 20.5826
679 1 -1.1104 9.54802 13.8966 23.3594
658 1 -1.1104 6.5262 16.5954 23.4121
9221 2 2.2208 13.8149 20.9901 27.5891
474 1 -1.1104 1.17869 16.6444 20.6293
464 1 -1.1104 1.11137 19.49 20.6032
355 2 2.2208 -0.269771 -1.69462 13.7847
667 2 2.2208 -0.262493 18.0092 27.7705
483 1 -1.1104 3.95461 19.637 20.7799
646 1 -1.1104 1.08466 13.791 26.2076
648 2 2.2208 5.33419 20.9565 24.7652
662 2 2.2208 2.45085 15.2348 22.0077
661 2 2.2208 2.58666 20.8656 22.0515
660 1 -1.1104 3.69651 16.5472 23.3971
659 1 -1.1104 0.968525 16.6424 23.4623
657 1 -1.1104 3.87375 13.8406 26.2989
656 1 -1.1104 3.70504 16.7997 26.2434
655 2 2.2208 2.44017 18.0702 24.8231
654 1 -1.1104 3.86957 19.631 26.2758
653 2 2.2208 5.23713 18.0309 21.9203
652 1 -1.1104 1.14668 13.8174 23.4065
651 1 -1.1104 1.15669 19.6136 23.4275
649 2 2.2208 5.19306 15.1579 24.8899
640 1 -1.1104 3.95163 19.4967 23.3656
642 1 -1.1104 3.86928 13.9036 23.3947
644 1 -1.1104 1.13903 19.3525 26.3513
645 1 -1.1104 1.03353 16.6418 26.1833
670 1 -1.1104 9.49548 16.6446 26.1729
673 2 2.2208 8.02 15.2076 22.0512
669 1 -1.1104 12.2098 19.2869 23.36
681 2 2.2208 10.847 20.8388 24.7569
468 1 -1.1104 6.63561 19.5343 20.546
498 1 -1.1104 12.3137 19.4558 20.5059
685 1 -1.1104 12.5055 13.8624 26.2401
650 1 -1.1104 6.71563 13.865 23.4316
641 1 -1.1104 6.72982 13.7538 26.2569
647 1 -1.1104 6.67501 19.4243 23.4175
9220 2 2.2208 13.7989 20.9016 22.0961
555 2 2.2208 -0.170118 3.87833 24.8198
580 2 2.2208 -0.25709 3.98447 19.1252
548 2 2.2208 10.8311 17.9918 27.5948
9366 2 2.2208 -0.470943 18.0984 16.4001
574 2 2.2208 10.9917 1.26669 27.6176
576 2 2.2208 8.15474 4.14313 27.5565
610 2 2.2208 2.46493 9.61341 27.4763
357 2 2.2208 5.44324 -1.58441 13.6993
554 2 2.2208 -0.148973 1.15001 22.0508
9184 2 2.2208 -0.174032 -1.56495 24.9606
8828 2 2.2208 2.56417 -4.38916 19.3225
358 2 2.2208 2.4919 1.14383 13.7617
359 2 2.2208 5.3393 4.05533 13.6849
490 2 2.2208 5.2498 20.9291 13.6668
489 2 2.2208 2.49845 18.0662 13.8034
689 2 2.2208 5.21574 23.6338 5.12262
690 2 2.2208 5.25626 29.311 5.29662
691 1 -1.1104 1.20178 25.0903 1.05531
692 1 -1.1104 0.887233 25.0427 3.6774
693 1 -1.1104 1.24435 22.2577 0.908187
694 1 -1.1104 0.998462 27.8328 1.08525
695 2 2.2208 5.22817 26.5178 2.3811
696 1 -1.1104 1.06213 22.0678 3.86681
697 1 -1.1104 1.0313 27.8713 3.81392
698 1 -1.1104 3.88427 25.2272 1.04994
699 2 2.2208 2.52033 23.6731 2.44786
700 2 2.2208 2.52836 29.2551 2.50355
701 1 -1.1104 3.80571 25.0878 3.92869
702 2 2.2208 2.45028 26.4696 5.26933
703 1 -1.1104 3.88783 22.2575 1.03838
704 1 -1.1104 3.77845 27.9719 1.03604
705 1 -1.1104 3.90908 22.2399 3.75042
706 1 -1.1104 3.84548 27.8679 3.88512
710 1 -1.1104 6.65252 25.0105 1.05003
1175 2 2.2208 8.07143 40.4588 13.595
9807 2 2.2208 13.5395 26.4665 5.29641
714 1 -1.1104 6.51816 22.2423 3.68785
711 1 -1.1104 6.70472 24.9805 3.80277
837 1 -1.1104 3.82307 22.3851 6.50205
833 1 -1.1104 1.15627 28.0382 6.56434
830 1 -1.1104 1.09823 25.1989 6.70052
831 1 -1.1104 6.62428 24.9667 6.5202
9811 2 2.2208 -0.255302 46.2288 5.07818
1146 2 2.2208 2.46195 46.1454 13.5975
715 1 -1.1104 6.68667 27.9112 3.84039
712 1 -1.1104 6.84311 22.2199 0.861712
713 1 -1.1104 6.59527 27.8745 1.0471
716 2 2.2208 10.8017 23.6546 5.24817
717 2 2.2208 10.7884 29.3003 5.16969
718 1 -1.1104 12.3185 24.9782 0.94331
719 1 -1.1104 12.3573 25.0496 3.75494
720 1 -1.1104 12.2412 22.305 1.11234
721 1 -1.1104 12.2705 27.8763 1.21444
722 2 2.2208 10.8599 26.3194 2.40744
723 1 -1.1104 12.1892 22.2028 3.85348
724 1 -1.1104 12.2459 27.903 3.95215
725 1 -1.1104 9.43959 24.9841 0.931204
726 2 2.2208 8.0287 23.628 2.31069
727 2 2.2208 8.04572 29.2957 2.38217
728 1 -1.1104 9.62169 24.9795 3.81865
729 2 2.2208 7.99194 26.4249 5.17639
730 1 -1.1104 9.45658 22.1314 0.948937
731 1 -1.1104 9.52582 27.7337 1.01864
732 1 -1.1104 9.39833 22.275 3.67163
733 1 -1.1104 9.44543 27.8699 3.89828
864 1 -1.1104 12.1537 22.2971 6.72999
866 1 -1.1104 9.47086 25.07 6.61201
9685 2 2.2208 -0.273496 26.5943 7.96288
834 1 -1.1104 6.65064 22.3044 6.59526
868 1 -1.1104 9.46645 27.8652 6.72587
867 1 -1.1104 9.40182 22.2995 6.52146
1026 2 2.2208 5.37824 26.4343 13.6422
1294 2 2.2208 -0.272575 46.1731 -0.504357
971 2 2.2208 -0.474041 46.2323 10.723
737 2 2.2208 5.31556 34.9801 5.35213
738 1 -1.1104 1.10722 30.6709 1.10036
739 1 -1.1104 1.03878 36.3194 1.23107
741 1 -1.1104 1.06941 30.6578 3.73724
742 1 -1.1104 1.19551 36.0858 4.05225
744 1 -1.1104 1.04569 33.5651 1.26234
745 2 2.2208 5.2508 32.1358 2.3989
746 2 2.2208 5.27278 37.7804 2.45608
747 1 -1.1104 1.17217 33.4376 3.85459
749 1 -1.1104 3.86478 30.7223 1.09711
750 1 -1.1104 3.93915 36.2471 1.09235
751 2 2.2208 2.51405 34.838 2.52435
752 1 -1.1104 3.93868 30.7669 3.77994
753 1 -1.1104 4.0572 36.3318 3.92903
754 2 2.2208 2.50123 32.17 5.18931
755 2 2.2208 2.39579 37.7718 5.16369
756 1 -1.1104 3.94059 33.429 0.98398
757 1 -1.1104 3.95095 33.4237 3.84803
886 1 -1.1104 1.00142 33.5452 6.50797
889 1 -1.1104 3.77341 36.381 6.77685
763 1 -1.1104 6.71594 33.3987 0.960899
887 1 -1.1104 6.74812 33.4604 6.74164
885 1 -1.1104 6.69983 36.364 6.77608
890 1 -1.1104 3.94312 33.6576 6.73852
888 1 -1.1104 3.81114 30.6345 6.52701
988 2 2.2208 10.9201 37.6937 13.6078
740 1 -1.1104 6.68475 36.5027 1.08429
762 1 -1.1104 6.87845 30.6081 3.76152
9950 2 2.2208 -0.315775 32.1156 13.5471
748 1 -1.1104 6.76002 33.3985 3.68824
743 1 -1.1104 6.78318 36.3635 3.85644
761 1 -1.1104 6.69954 30.6321 1.12562
764 2 2.2208 10.9128 34.9519 5.23817
765 1 -1.1104 12.2156 30.6537 1.14488
766 1 -1.1104 12.1458 36.2308 1.05974
767 1 -1.1104 12.3759 30.5911 3.99708
768 1 -1.1104 12.2358 36.3437 3.88796
769 1 -1.1104 12.267 33.3576 0.956909
770 2 2.2208 10.9002 32.1502 2.35791
771 2 2.2208 10.9321 37.6724 2.4129
772 1 -1.1104 12.2797 33.4266 3.84469
773 1 -1.1104 9.53536 30.6972 1.09946
774 1 -1.1104 9.33903 36.261 0.99047
775 2 2.2208 8.06688 34.9193 2.29999
776 1 -1.1104 9.56198 30.769 3.72356
777 1 -1.1104 9.5197 36.1686 3.58985
778 2 2.2208 8.17925 32.1691 5.16086
779 2 2.2208 8.1397 37.7253 5.11023