ITEM: TIMESTEP
40000
ITEM: NUMBER OF ATOMS
17640
ITEM: BOX BOUNDS pp pp pp
-3.5329832219974072e-01 2.7693298322199539e+01
-4.2820901419891921e+00 3.3236209014198892e+02
-3.6543456235756311e-01 2.7705434562358466e+01
ITEM: ATOMS id type q x y z
1 2 2.2208 5.16618 1.20255 5.31183
2 1 -1.1104 1.06157 -3.0793 1.08675
3 1 -1.1104 0.972823 2.7621 1.08458
6 1 -1.1104 0.885701 -2.89714 3.91101
7 1 -1.1104 0.975511 2.58378 3.88677
10 1 -1.1104 1.01778 -0.103546 1.10198
12 2 2.2208 5.10516 -1.59362 2.70881
13 2 2.2208 5.17435 4.05064 2.52117
14 1 -1.1104 0.964032 -0.0607214 3.87769
16 1 -1.1104 3.80672 -2.99874 1.01493
17 1 -1.1104 3.85435 2.73633 1.05032
18 2 2.2208 2.35678 1.35175 2.37265
19 1 -1.1104 3.63405 -3.01569 3.90521
20 1 -1.1104 3.67862 2.60536 3.8222
21 2 2.2208 2.24553 -1.48456 5.37017
22 2 2.2208 2.31469 4.01606 5.31329
23 1 -1.1104 3.81205 -0.172777 1.10141
24 1 -1.1104 3.79018 -0.265322 3.97023
9 1 -1.1104 6.52585 2.61218 3.96124
26 2 2.2208 13.5961 15.506 10.8803
4 1 -1.1104 6.64024 -2.93184 1.17537
5 1 -1.1104 6.6904 2.65212 1.04798
15 1 -1.1104 6.58682 -0.205333 3.93092
166 1 -1.1104 0.952188 -2.89635 6.84652
168 1 -1.1104 6.55998 -3.02764 6.75435
11 1 -1.1104 6.59902 -0.0725916 1.18044
634 2 2.2208 10.7543 6.991 -0.406285
8 1 -1.1104 6.51494 -2.93327 3.93993
8453 2 2.2208 5.14304 -4.36376 10.9265
9152 2 2.2208 13.6079 -1.5799 5.34481
173 1 -1.1104 3.91383 2.77125 6.6358
167 1 -1.1104 1.03951 2.70628 6.73353
174 1 -1.1104 3.64206 -0.278327 6.82615
8448 2 2.2208 2.45363 -4.37301 2.50358
229 2 2.2208 13.676 1.27801 8.10435
31 2 2.2208 10.8303 1.29812 5.32179
32 1 -1.1104 12.3343 -2.79757 1.12028
33 1 -1.1104 12.2775 2.81884 1.15934
34 1 -1.1104 12.2349 -3.02511 3.87224
35 1 -1.1104 12.1259 2.69625 4.04602
36 1 -1.1104 12.3318 0.0451072 0.987293
37 2 2.2208 10.8265 -1.47014 2.47534
38 2 2.2208 10.7489 4.14218 2.45484
39 1 -1.1104 12.2233 -0.181532 3.80719
40 1 -1.1104 9.60438 -2.81881 0.928626
41 1 -1.1104 9.43581 2.54804 1.15771
42 2 2.2208 7.98029 1.18629 2.55628
43 1 -1.1104 9.41334 -2.98737 3.90602
44 1 -1.1104 9.26595 2.71997 3.88168
45 2 2.2208 7.93621 -1.61354 5.33506
46 2 2.2208 8.10031 4.15044 5.28217
47 1 -1.1104 9.51741 -0.0782281 1.09492
48 1 -1.1104 9.53042 -0.157161 3.93857
8449 2 2.2208 5.13234 -4.43496 5.46093
9151 2 2.2208 13.5096 1.31043 2.3717
9221 2 2.2208 13.6153 20.9784 -0.463368
635 2 2.2208 7.97107 9.75132 -0.432343
208 1 -1.1104 9.38547 -3.03202 6.73256
8454 2 2.2208 -0.392595 -4.19107 10.8587
204 2 2.2208 13.8004 9.69281 5.16741
54 2 2.2208 5.09927 6.8735 5.21355
55 2 2.2208 5.20218 12.5254 5.25431
56 1 -1.1104 0.832785 8.34253 1.03025
58 1 -1.1104 0.818296 8.14901 3.91005
60 1 -1.1104 0.976545 5.62134 0.932382
61 1 -1.1104 0.897291 11.0881 1.09169
66 2 2.2208 5.3207 9.77961 2.46868
67 1 -1.1104 0.888094 5.38771 3.8433
68 1 -1.1104 0.939178 10.9744 3.88407
71 1 -1.1104 3.70243 8.20126 1.05398
72 2 2.2208 2.32552 6.89821 2.35777
73 2 2.2208 2.32436 12.4843 2.51358
74 1 -1.1104 3.78694 8.33285 3.88268
75 2 2.2208 2.38609 9.6605 5.25475
76 1 -1.1104 3.70238 5.33722 1.07446
77 1 -1.1104 3.82207 11.1794 1.10329
79 1 -1.1104 3.72174 5.36583 3.88185
80 1 -1.1104 3.78521 11.1267 3.96107
69 1 -1.1104 6.46131 5.4933 3.89053
64 1 -1.1104 6.47936 11.17 0.760434
239 1 -1.1104 3.80992 5.57244 6.67636
70 1 -1.1104 6.66246 11.0815 3.76904
59 1 -1.1104 6.74152 8.43292 3.78792
237 1 -1.1104 6.73098 5.65399 6.57061
8457 2 2.2208 13.5936 -4.4575 7.95292
63 1 -1.1104 6.52772 5.73235 1.22949
57 1 -1.1104 6.60922 8.31106 1.03533
489 2 2.2208 2.39958 17.8958 13.7842
236 1 -1.1104 0.914658 5.40422 6.58963
9052 2 2.2208 13.5402 6.98873 2.37066
316 2 2.2208 8.05438 20.992 10.786
84 2 2.2208 10.8973 6.99649 5.20254
85 2 2.2208 10.9044 12.5204 5.15202
86 1 -1.1104 12.1795 8.40045 1.08745
87 1 -1.1104 12.2621 8.35878 3.8295
88 1 -1.1104 12.1404 5.58429 1.06403
89 1 -1.1104 12.2797 11.3009 0.994525
91 2 2.2208 10.6754 9.68597 2.4455
92 1 -1.1104 12.1815 5.61608 3.97295
93 1 -1.1104 12.3046 11.1358 3.73414
94 1 -1.1104 9.26612 8.23176 0.984738
95 2 2.2208 7.94303 6.89195 2.43504
96 2 2.2208 7.91967 12.4749 2.3462
97 1 -1.1104 9.60067 8.26697 3.74499
98 2 2.2208 8.04052 9.633 5.33322
99 1 -1.1104 9.34351 5.55221 1.14598
100 1 -1.1104 9.38911 11.0701 1.15474
102 1 -1.1104 9.44579 5.48595 3.94119
103 1 -1.1104 9.33672 11.158 3.84778
265 1 -1.1104 12.3758 8.32201 6.46594
165 2 2.2208 13.6688 18.0633 2.36865
9086 2 2.2208 -0.457431 9.86501 7.99319
269 1 -1.1104 9.52287 5.54616 6.80755
665 2 2.2208 2.34694 15.3392 -0.420974
81 1 -1.1104 12.4465 19.6246 9.64398
137 2 2.2208 -0.496846 18.0455 5.35363
231 2 2.2208 13.5676 4.08937 5.25333
519 2 2.2208 13.6638 18.1196 13.6965
106 2 2.2208 5.21536 17.9751 5.17049
107 1 -1.1104 0.840749 13.8738 1.17632
109 1 -1.1104 0.96595 19.4104 1.08038
113 1 -1.1104 1.02486 13.8222 4.01683
114 1 -1.1104 1.00102 19.3804 4.01095
116 1 -1.1104 0.99001 16.6784 1.07098
119 2 2.2208 5.11871 15.3755 2.40856
120 2 2.2208 5.29899 20.8813 2.43431
121 1 -1.1104 0.934071 16.7065 3.95157
123 1 -1.1104 3.67827 13.89 0.902402
125 1 -1.1104 3.74617 19.5649 1.13698
127 2 2.2208 2.31659 17.987 2.47071
128 1 -1.1104 3.83588 13.8117 3.75531
129 1 -1.1104 3.79839 19.3189 3.94269
130 2 2.2208 2.44067 15.2245 5.3429
131 2 2.2208 2.56441 20.7555 5.3246
132 1 -1.1104 3.82388 16.7358 0.947688
134 1 -1.1104 3.73267 16.581 3.88923
139 1 -1.1104 6.57276 19.4679 3.94533
110 1 -1.1104 6.52998 14.0017 1.24811
122 1 -1.1104 6.63051 16.6843 3.71106
138 1 -1.1104 6.48931 19.6166 1.036
140 1 -1.1104 6.5904 16.7489 0.874576
115 1 -1.1104 6.44663 13.9456 3.96067
302 1 -1.1104 1.07142 19.4879 6.73281
203 2 2.2208 13.6696 20.949 5.06802
8525 2 2.2208 10.8806 -4.31317 -0.428128
145 1 -1.1104 12.2795 19.5197 6.5348
141 2 2.2208 10.8994 18.1131 5.15299
142 1 -1.1104 12.1305 13.9471 0.9049
144 1 -1.1104 12.1396 19.6741 0.826359
146 1 -1.1104 12.182 13.9307 3.78505
147 1 -1.1104 12.1401 19.556 3.74604
148 1 -1.1104 12.0992 16.7558 1.04483
150 2 2.2208 10.7717 15.3617 2.46776
151 2 2.2208 10.8059 20.9049 2.24609
152 1 -1.1104 12.4092 16.6955 3.76596
153 1 -1.1104 9.21591 13.9684 1.146
155 1 -1.1104 9.36248 19.6265 0.930758
157 2 2.2208 7.91819 18.1768 2.48438
158 1 -1.1104 9.30606 13.9306 3.78191
159 1 -1.1104 9.18081 19.5917 3.73783
160 2 2.2208 8.12269 15.2734 5.21793
161 2 2.2208 7.99699 20.8583 5.14585
162 1 -1.1104 9.35778 16.7412 1.06004
164 1 -1.1104 9.51241 16.6969 3.76787
552 2 2.2208 7.99245 20.9881 -0.433184
143 1 -1.1104 12.2957 13.8786 6.64574
202 2 2.2208 13.705 15.2838 5.23841
311 2 2.2208 8.089 18.1925 7.96179
172 1 -1.1104 3.83012 -2.91138 6.69673
169 1 -1.1104 6.66373 2.67749 6.72452
170 1 -1.1104 0.891571 -0.0551105 6.69863
175 2 2.2208 5.286 1.32501 10.947
176 1 -1.1104 1.04133 -2.72305 12.3302
177 1 -1.1104 0.976578 2.90941 12.4319
180 1 -1.1104 1.03277 -2.81562 9.49583
181 1 -1.1104 0.903805 2.74444 9.57323
184 1 -1.1104 0.978478 0.0319306 12.3715
186 2 2.2208 5.16613 -1.60091 8.23105
187 2 2.2208 5.16731 4.08402 8.05179
188 1 -1.1104 1.0135 -0.043968 9.60539
190 1 -1.1104 3.9614 -2.82603 12.3191
191 1 -1.1104 3.82165 2.64688 12.3893
192 2 2.2208 2.54055 1.2953 8.1647
193 1 -1.1104 3.80798 -2.94201 9.56803
194 1 -1.1104 3.84761 2.75308 9.39374
195 2 2.2208 2.39464 -1.4734 10.8658
196 2 2.2208 2.41662 4.08274 10.908
197 1 -1.1104 3.80143 -0.00797015 12.3089
198 1 -1.1104 3.85553 -0.081706 9.56116
182 1 -1.1104 6.60801 -2.8848 9.58206
171 1 -1.1104 6.52287 -0.320815 6.67235
178 1 -1.1104 6.66505 -2.89036 12.3876
185 1 -1.1104 6.61877 -0.00409166 12.3743
179 1 -1.1104 6.74078 2.7385 12.4031
189 1 -1.1104 6.6039 -0.144399 9.53991
313 2 2.2208 -0.341221 15.2631 8.03759
579 2 2.2208 13.6471 7.01213 13.695
207 1 -1.1104 12.1638 -0.223018 6.65918
206 1 -1.1104 12.2188 2.55006 6.74225
205 1 -1.1104 12.0919 -3.02537 6.63652
210 1 -1.1104 9.34677 -0.157815 6.86583
183 1 -1.1104 6.63592 2.61583 9.58489
163 1 -1.1104 9.51197 16.7843 6.50971
209 1 -1.1104 9.39535 2.59638 6.66636
211 2 2.2208 10.9799 1.40965 10.9681
212 1 -1.1104 12.1216 -2.96238 12.4135
213 1 -1.1104 12.3956 2.89557 12.3716
214 1 -1.1104 12.2916 -2.8829 9.46239
215 1 -1.1104 12.2669 2.73632 9.50322
216 1 -1.1104 12.2553 -0.0316567 12.4111
217 2 2.2208 10.747 -1.47974 8.17351
218 2 2.2208 10.9006 4.04122 8.19224
219 1 -1.1104 12.3306 -0.104292 9.62365
220 1 -1.1104 9.51585 -3.00723 12.1204
221 1 -1.1104 9.50219 2.69192 12.2536
222 2 2.2208 8.01315 1.28081 8.18186
223 1 -1.1104 9.50996 -2.95443 9.52613
224 1 -1.1104 9.42323 2.69353 9.48854
225 2 2.2208 8.10044 -1.35274 10.9156
226 2 2.2208 8.0811 4.02644 10.8744
227 1 -1.1104 9.30297 -0.111336 12.4819
228 1 -1.1104 9.5477 -0.0481329 9.69148
238 1 -1.1104 3.79656 8.35089 6.6913
234 1 -1.1104 0.936345 8.28767 6.65458
62 1 -1.1104 0.982234 10.9957 6.5619
78 1 -1.1104 3.80581 11.1895 6.71517
235 1 -1.1104 6.50318 8.34417 6.54443
65 1 -1.1104 6.64424 11.2161 6.579
240 2 2.2208 5.28638 6.83 10.7409
241 2 2.2208 5.32089 12.5677 10.8287
242 1 -1.1104 0.955137 8.43827 12.2894
244 1 -1.1104 1.05901 8.30079 9.45925
246 1 -1.1104 0.876136 5.71156 12.108
247 1 -1.1104 1.05457 11.1429 12.1019
250 2 2.2208 5.15462 9.7608 7.99376
251 1 -1.1104 1.05879 5.5307 9.38861
252 1 -1.1104 0.91164 11.1198 9.44475
255 1 -1.1104 3.85301 8.21691 12.2925
256 2 2.2208 2.32918 6.8776 7.92222
257 2 2.2208 2.45313 12.5008 8.12348
258 1 -1.1104 3.91492 8.1349 9.38758
259 2 2.2208 2.35673 9.76115 10.8169
260 1 -1.1104 3.79821 5.5079 12.2899
261 1 -1.1104 3.80236 11.1645 12.3074
262 1 -1.1104 3.87275 5.40432 9.48139
263 1 -1.1104 3.84105 11.1125 9.52527
249 1 -1.1104 6.64671 11.2887 12.2349
245 1 -1.1104 6.63209 8.21414 9.39615
248 1 -1.1104 6.62882 5.5201 12.2308
253 1 -1.1104 6.64767 5.23835 9.33417
254 1 -1.1104 6.62921 11.1656 9.37234
243 1 -1.1104 6.47434 8.37179 12.1805
267 1 -1.1104 9.53613 8.33589 6.74103
101 1 -1.1104 9.3946 11.1373 6.57783
90 1 -1.1104 12.1585 11.2338 6.65918
266 1 -1.1104 12.275 5.48302 6.73555
28 2 2.2208 -0.338387 12.5085 11.0584
264 1 -1.1104 9.43182 11.1861 9.5325
268 1 -1.1104 9.50513 5.50204 9.53185
270 1 -1.1104 9.5215 11.2655 12.3364
271 1 -1.1104 9.49307 5.41405 12.2652
272 2 2.2208 7.9741 9.68513 10.7969
273 1 -1.1104 9.26483 8.34645 9.50089
274 2 2.2208 8.11384 12.4385 8.01958
275 2 2.2208 7.98888 6.86524 8.07571
276 2 2.2208 10.8519 7.05873 10.9145
277 2 2.2208 10.9173 12.6841 10.9078
278 1 -1.1104 11.9681 8.55574 12.2264
279 1 -1.1104 12.1519 8.35138 9.27097
280 1 -1.1104 12.1789 5.70704 12.436
281 1 -1.1104 12.183 11.2739 12.2572
282 2 2.2208 10.7266 9.77859 8.16006
283 1 -1.1104 12.1621 5.51187 9.4639
284 1 -1.1104 12.1999 11.135 9.47468
285 1 -1.1104 9.22533 8.47111 12.3324
546 2 2.2208 2.27849 3.98719 -0.407275
386 2 2.2208 -0.4342 9.6078 13.6475
136 2 2.2208 10.9414 20.8877 8.0231
49 1 -1.1104 12.2632 14.1526 12.2866
111 1 -1.1104 6.61486 13.7801 6.68054
289 1 -1.1104 6.84039 16.8317 9.3741
112 1 -1.1104 6.73999 19.4969 6.59614
296 1 -1.1104 6.66517 19.5696 12.2021
297 1 -1.1104 6.66749 14.101 12.2302
108 1 -1.1104 1.10307 13.8137 6.6619
133 1 -1.1104 3.81399 16.6753 6.64421
117 1 -1.1104 0.928125 16.6311 6.78221
126 1 -1.1104 4.00569 19.4439 6.68426
124 1 -1.1104 3.84212 13.9345 6.70743
286 1 -1.1104 3.78747 19.5177 12.2682
287 1 -1.1104 3.85001 13.8366 12.2743
291 1 -1.1104 1.14308 19.3577 9.48463
292 1 -1.1104 1.2305 16.6375 9.54251
293 2 2.2208 5.19057 20.8556 7.96378
294 1 -1.1104 1.02235 13.726 9.44669
295 2 2.2208 5.43708 15.3241 8.0201
298 1 -1.1104 0.951344 19.4194 12.36
299 1 -1.1104 1.11721 13.916 12.3452
300 2 2.2208 5.34129 18.1182 10.7002
301 1 -1.1104 3.89505 19.4327 9.47765
303 2 2.2208 2.42507 18.1593 8.05878
304 1 -1.1104 4.08256 16.7556 9.31156
305 1 -1.1104 3.90802 14.0364 9.43644
307 1 -1.1104 1.10056 16.6223 12.3199
308 1 -1.1104 3.91155 16.5265 12.2451
309 2 2.2208 2.41402 20.7191 10.8806
310 2 2.2208 2.52647 15.2468 10.7381
306 1 -1.1104 6.71631 16.7358 12.1324
118 1 -1.1104 6.70472 16.714 6.56551
288 1 -1.1104 6.60991 19.5645 9.37036
290 1 -1.1104 6.80247 14.038 9.31524
353 2 2.2208 13.5225 15.4413 -0.370864
154 1 -1.1104 9.4559 13.9358 6.77535
27 2 2.2208 13.6047 18.0408 8.12325
149 1 -1.1104 12.2454 16.6601 6.64227
200 1 -1.1104 9.58569 14.019 12.3643
105 2 2.2208 10.9086 15.2861 8.06778
199 1 -1.1104 12.2887 16.8097 9.48637
82 1 -1.1104 12.2053 16.9458 12.2708
53 1 -1.1104 12.2263 13.9582 9.43674
312 1 -1.1104 9.50166 13.9963 9.42261
233 2 2.2208 8.11724 15.3859 10.8291
50 1 -1.1104 12.1613 19.7033 12.3067
315 1 -1.1104 9.42372 16.8385 12.1599
232 1 -1.1104 9.47908 19.5973 9.3737
609 2 2.2208 5.17563 6.92559 -0.345317
201 1 -1.1104 9.47235 19.5977 12.199
156 1 -1.1104 9.64835 19.3994 6.5377
30 2 2.2208 10.8574 18.2964 10.803
314 1 -1.1104 9.58281 16.8651 9.39467
687 2 2.2208 13.606 1.3969 13.885
455 2 2.2208 8.24299 12.7063 13.7352
104 2 2.2208 13.5971 12.4802 2.34592
83 2 2.2208 -0.433806 12.5296 5.28548
491 2 2.2208 5.22874 15.2821 13.693
358 2 2.2208 2.37352 1.47943 13.737
359 2 2.2208 5.17651 4.14788 13.8344
664 2 2.2208 5.17498 18.1402 -0.456017
517 2 2.2208 10.7794 15.4467 13.5715
453 2 2.2208 7.9582 6.91152 13.7034
545 2 2.2208 2.48285 -1.47882 -0.353612
574 2 2.2208 10.8039 1.41107 -0.357762
490 2 2.2208 5.21473 20.8408 13.7738
427 2 2.2208 5.24388 9.74541 13.6841
428 2 2.2208 2.39243 12.5439 13.6838
638 2 2.2208 13.5993 9.77298 -0.429519
548 2 2.2208 10.7239 18.2244 -0.457215
392 2 2.2208 10.8051 4.22043 13.697
667 2 2.2208 -0.54168 18.0979 -0.286014
610 2 2.2208 2.25845 9.78296 -0.375607
576 2 2.2208 8.12103 4.1372 -0.314743
544 2 2.2208 5.23229 1.37012 -0.284743
575 2 2.2208 8.04408 -1.37994 -0.247916
317 2 2.2208 5.22914 1.42388 16.5228
318 1 -1.1104 1.0612 -2.9213 17.8067
319 1 -1.1104 0.909726 2.85307 17.9299
322 1 -1.1104 0.931451 -2.83091 15.1101
324 1 -1.1104 0.951895 2.82251 15.1836
330 1 -1.1104 1.19656 0.00998739 17.9167
332 2 2.2208 5.12749 -1.41285 19.312
333 2 2.2208 5.10954 4.24869 19.2711
334 1 -1.1104 0.99223 0.0493444 15.1568
338 1 -1.1104 3.79673 -2.97034 17.909
339 1 -1.1104 3.89713 2.77379 17.9294
340 2 2.2208 2.3077 1.39821 19.2671
341 1 -1.1104 3.81773 -2.75057 15.0485
343 1 -1.1104 3.76379 2.78874 15.061
345 2 2.2208 2.49359 -1.34988 16.3577
346 2 2.2208 2.3305 4.3207 16.4574
347 1 -1.1104 3.95441 -0.0708653 17.8625
348 1 -1.1104 3.87853 0.0735399 15.1194
583 2 2.2208 13.6407 1.38752 24.9923
326 1 -1.1104 6.64424 -2.81773 15.2627
336 1 -1.1104 6.63931 -0.0745303 15.0228
331 1 -1.1104 6.69032 0.030143 17.9847
327 1 -1.1104 6.47045 -2.78677 20.6442
8832 2 2.2208 7.98549 -4.33417 19.3298
337 1 -1.1104 6.46944 -0.0239742 20.7871
320 1 -1.1104 6.63693 -2.80806 17.9437
321 1 -1.1104 6.71688 2.73139 17.8991
8837 2 2.2208 2.40872 -4.31584 25.0582
349 1 -1.1104 3.73589 -0.0278282 20.6277
342 1 -1.1104 3.66113 -2.90859 20.7885
686 2 2.2208 13.6354 4.1571 16.3928
663 2 2.2208 2.40106 20.8759 27.7852
8831 2 2.2208 10.848 -4.40835 16.5075
328 1 -1.1104 6.59743 2.86563 15.2069
360 2 2.2208 10.8105 1.39577 16.7656
361 1 -1.1104 12.2817 -2.99786 17.8756
362 1 -1.1104 12.2826 2.86024 17.9713
363 1 -1.1104 12.3886 -2.91346 15.101
365 1 -1.1104 12.2122 2.7426 15.1293
367 1 -1.1104 12.2724 0.0276974 17.9642
368 2 2.2208 10.7597 -1.56268 19.365
369 2 2.2208 10.8336 4.20839 19.2886
370 1 -1.1104 12.3364 -0.253849 15.2021
372 1 -1.1104 9.53596 -2.85916 17.9694
373 1 -1.1104 9.43134 2.75847 17.858
374 2 2.2208 8.01953 1.30795 19.2904
375 1 -1.1104 9.44461 -2.92549 15.1871
377 1 -1.1104 9.44326 2.91122 15.1379
379 2 2.2208 8.01398 -1.42628 16.5378
380 2 2.2208 8.0946 4.17638 16.5231
381 1 -1.1104 9.46254 -0.0141817 18.0846
382 1 -1.1104 9.50105 0.0192677 15.3773
357 2 2.2208 5.20001 -1.34916 13.646
388 2 2.2208 13.6269 -1.48468 16.6472
8836 2 2.2208 5.15063 -4.23203 22.1208
8827 2 2.2208 5.14228 -4.28049 16.5229
8829 2 2.2208 2.33409 -4.21163 13.7186
8838 2 2.2208 13.5641 -4.3461 24.8578
371 1 -1.1104 12.278 -0.0141569 20.7831
547 2 2.2208 7.94842 15.3397 27.714
683 1 -1.1104 12.2739 16.7555 23.3278
669 1 -1.1104 12.0952 19.6018 23.4547
670 1 -1.1104 9.31593 16.908 26.4085
8828 2 2.2208 2.34682 -4.27337 19.2779
8523 2 2.2208 7.87933 -4.19568 24.977
393 2 2.2208 5.1513 6.92279 16.4472
394 2 2.2208 5.22736 12.4351 16.587
395 1 -1.1104 1.12261 8.30469 17.8907
397 1 -1.1104 1.01468 8.35487 15.1347
401 1 -1.1104 1.12708 5.58826 17.8949
402 1 -1.1104 0.916358 11.1339 17.9004
405 2 2.2208 5.31349 9.60504 19.2763
406 1 -1.1104 1.00002 5.57775 14.8949
408 1 -1.1104 1.047 11.1316 15.0395
414 1 -1.1104 3.83972 8.3727 17.9305
415 2 2.2208 2.455 7.06463 19.3382
416 2 2.2208 2.53935 12.5667 19.3675
417 1 -1.1104 3.76859 8.30441 15.0342
419 2 2.2208 2.47213 9.71991 16.4442
420 1 -1.1104 3.82852 5.65385 17.8581
421 1 -1.1104 3.84656 11.1127 17.9387
422 1 -1.1104 3.8657 5.5193 15.1408
424 1 -1.1104 3.815 11.1553 15.1684
412 1 -1.1104 6.61104 11.0698 15.1649
396 1 -1.1104 6.59149 8.23158 17.9339
411 1 -1.1104 6.49958 5.65072 20.7275
404 1 -1.1104 6.60029 11.1197 17.8954
399 1 -1.1104 6.63585 8.28025 15.0758
582 2 2.2208 13.6218 -1.45016 22.1918
636 2 2.2208 10.6865 12.5631 27.7517
403 1 -1.1104 6.75191 5.4757 17.8518
410 1 -1.1104 6.47136 5.54232 15.1206
8524 2 2.2208 10.7451 -4.28306 22.1895
9220 2 2.2208 13.6787 21.104 22.0463
429 2 2.2208 10.8415 7.03931 16.4555
430 2 2.2208 10.928 12.6328 16.4063
431 1 -1.1104 12.1882 8.49447 17.9139
432 1 -1.1104 12.2873 8.34599 15.0272
434 1 -1.1104 12.1115 5.75389 17.9611
435 1 -1.1104 12.2461 11.1732 17.8492
436 2 2.2208 10.9453 9.84512 19.3965
437 1 -1.1104 12.2362 5.64687 15.2317
439 1 -1.1104 12.2185 11.2166 15.0639
441 1 -1.1104 9.43755 8.34875 17.8612
442 2 2.2208 8.02261 6.91851 19.3095
443 2 2.2208 8.0311 12.5884 19.2314
444 1 -1.1104 9.6212 8.43339 14.9492
446 2 2.2208 7.99927 9.69995 16.4638
447 1 -1.1104 9.38152 5.54047 17.9925
448 1 -1.1104 9.40487 11.2015 17.8254
449 1 -1.1104 9.40157 5.67944 15.0301
451 1 -1.1104 9.39192 11.2413 15.0554
613 2 2.2208 -0.532325 9.82074 24.9785
440 1 -1.1104 12.4538 11.1904 20.6947
452 1 -1.1104 9.61329 11.2687 20.7154
551 2 2.2208 13.7329 12.7262 19.226
680 1 -1.1104 12.1094 16.7666 26.1991
637 1 -1.1104 12.3421 13.9944 23.4548
456 2 2.2208 5.27556 18.1885 16.5177
457 1 -1.1104 1.10865 13.7981 17.9474
458 1 -1.1104 0.991862 19.5011 17.9682
461 1 -1.1104 0.988627 13.7751 15.0977
463 1 -1.1104 0.87942 19.4513 15.1509
469 1 -1.1104 0.931422 16.6323 17.9462
471 2 2.2208 5.32794 15.382 19.3207
472 2 2.2208 5.37362 20.9753 19.3024
473 1 -1.1104 1.13714 16.6623 15.1724
477 1 -1.1104 3.88517 14.0618 17.9934
478 1 -1.1104 3.79933 19.6126 17.8546
479 2 2.2208 2.52739 18.2185 19.3304
480 1 -1.1104 4.00732 13.9379 15.2392
482 1 -1.1104 3.67027 19.4756 15.0475
484 2 2.2208 2.44942 15.2491 16.6834
485 2 2.2208 2.44764 20.8757 16.4255
486 1 -1.1104 3.91686 16.7622 17.8747
487 1 -1.1104 3.76993 16.6184 15.1928
470 1 -1.1104 6.7808 16.778 17.9796
465 1 -1.1104 6.79656 13.9701 15.104
459 1 -1.1104 6.57872 13.8089 17.9654
460 1 -1.1104 6.5461 19.7043 17.7372
475 1 -1.1104 6.62531 16.7686 15.154
467 1 -1.1104 6.67434 19.3643 15.0613
685 1 -1.1104 12.0788 13.9859 26.1267
468 1 -1.1104 6.69904 19.5562 20.6696
464 1 -1.1104 1.16876 19.6587 20.6355
474 1 -1.1104 0.928876 16.8244 20.6622
466 1 -1.1104 6.7072 13.9529 20.6304
488 1 -1.1104 3.82179 16.7214 20.7516
462 1 -1.1104 0.943948 13.7922 20.6886
674 1 -1.1104 9.2743 19.7014 26.1237
688 2 2.2208 13.6092 1.41898 19.3233
9184 2 2.2208 -0.464851 -1.46798 24.97
508 1 -1.1104 9.25946 14.0189 20.5223
385 2 2.2208 13.6416 15.523 16.4525
492 2 2.2208 10.7914 18.154 16.4274
493 1 -1.1104 12.2382 13.9809 17.9637
494 1 -1.1104 12.1523 19.4912 17.8588
495 1 -1.1104 12.1991 14.0736 15.0222
497 1 -1.1104 12.3127 19.6865 15.0699
499 1 -1.1104 12.1221 16.8255 17.8614
500 2 2.2208 10.7875 15.3455 19.2599
501 2 2.2208 10.8869 20.9281 19.2948
502 1 -1.1104 12.3345 16.7869 14.9675
504 1 -1.1104 9.4696 13.9103 17.7781
505 1 -1.1104 9.45695 19.5575 17.8122
506 2 2.2208 8.12853 18.1266 19.3877
507 1 -1.1104 9.51608 14.0234 15.1396
509 1 -1.1104 9.36727 19.6226 15.0229
511 2 2.2208 7.98464 15.3166 16.4594
512 2 2.2208 8.07708 21.0096 16.5164
513 1 -1.1104 9.46076 16.7537 17.7556
514 1 -1.1104 9.59123 16.7845 15.056
676 1 -1.1104 6.58106 19.7086 26.2508
503 1 -1.1104 12.2058 16.9034 20.7121
496 1 -1.1104 12.2472 13.9439 20.7167
510 1 -1.1104 9.45557 19.5769 20.6884
515 1 -1.1104 9.40156 16.856 20.72
9366 2 2.2208 -0.309735 18.1604 16.6674
344 1 -1.1104 3.83409 2.93692 20.7175
673 2 2.2208 8.05162 15.4584 22.0626
679 1 -1.1104 9.51229 14.0396 23.3897
325 1 -1.1104 1.01945 2.75497 20.917
323 1 -1.1104 0.935552 -2.82767 20.6857
335 1 -1.1104 0.96806 -0.103186 20.6677
520 2 2.2208 5.2538 1.41964 22.1335
521 1 -1.1104 0.97357 -2.95272 23.5977
522 1 -1.1104 1.05517 2.74488 23.5375
525 1 -1.1104 1.04799 -2.91807 26.3479
526 1 -1.1104 0.972181 2.53855 26.3628
529 1 -1.1104 0.917924 -0.0890927 23.5342
531 2 2.2208 5.20061 -1.422 25.0588
532 2 2.2208 5.14886 4.16598 25.0389
533 1 -1.1104 1.14093 -0.182989 26.279
535 1 -1.1104 3.73725 -2.85552 23.6869
536 1 -1.1104 3.86009 2.83668 23.546
537 2 2.2208 2.41127 1.24566 24.946
538 1 -1.1104 3.85795 -2.8501 26.4473
539 1 -1.1104 3.81307 2.70955 26.3159
540 2 2.2208 2.31304 -1.5386 22.1263
541 2 2.2208 2.46532 4.22328 22.2149
542 1 -1.1104 3.77204 -0.12857 23.6303
543 1 -1.1104 3.82612 0.0105741 26.3841
530 1 -1.1104 6.58999 0.000339302 23.4841
528 1 -1.1104 6.70196 2.80378 26.352
527 1 -1.1104 6.6041 -2.76626 26.3734
524 1 -1.1104 6.60007 2.74065 23.6885
329 1 -1.1104 6.79676 2.81584 20.7379
523 1 -1.1104 6.48517 -2.90631 23.4844
534 1 -1.1104 6.60585 0.0533343 26.4103
682 2 2.2208 10.6548 15.3157 24.9908
376 1 -1.1104 9.31266 -2.804 20.7544
383 1 -1.1104 9.40768 -0.135107 20.78
364 1 -1.1104 12.0755 -2.86444 20.6879
684 1 -1.1104 12.1027 19.5885 26.2843
426 2 2.2208 2.38854 7.04706 13.4997
366 1 -1.1104 12.1635 2.70286 20.7015
378 1 -1.1104 9.48053 2.71544 20.7232
556 2 2.2208 10.7505 1.39795 22.183
557 1 -1.1104 12.1625 -2.73708 23.4796
558 1 -1.1104 12.1977 2.74184 23.5373
559 1 -1.1104 12.258 -2.90146 26.331
560 1 -1.1104 12.2639 2.89915 26.3017
561 1 -1.1104 12.2044 -0.0235844 23.4981
562 2 2.2208 10.7977 -1.45568 24.939
563 2 2.2208 10.7865 4.13153 24.9171
564 1 -1.1104 12.1425 0.0925267 26.2137
565 1 -1.1104 9.27133 -2.79581 23.7111
566 1 -1.1104 9.45881 2.6978 23.6205
567 2 2.2208 8.08028 1.23303 25.0489
568 1 -1.1104 9.45025 -2.83552 26.3623
569 1 -1.1104 9.4549 2.77985 26.5036
570 2 2.2208 7.96433 -1.4751 22.0615
571 2 2.2208 8.00385 4.13798 22.1929
572 1 -1.1104 9.44704 -0.112393 23.6672
573 1 -1.1104 9.485 0.034836 26.5316
677 2 2.2208 7.97015 18.2215 24.9321
672 2 2.2208 8.09766 21.01 22.0279
678 1 -1.1104 9.32734 19.6282 23.3438
418 1 -1.1104 3.85829 8.36942 20.7355
407 1 -1.1104 1.04113 5.51349 20.6338
425 1 -1.1104 3.84369 11.2997 20.8439
398 1 -1.1104 0.813915 8.32244 20.6575
423 1 -1.1104 3.78966 5.68337 20.8212
409 1 -1.1104 1.22943 11.0456 20.7477
585 2 2.2208 5.18885 6.95266 22.2135
586 2 2.2208 5.35242 12.5978 22.1086
587 1 -1.1104 0.942718 8.42571 23.6937
589 1 -1.1104 0.885056 8.31286 26.2973
591 1 -1.1104 0.965422 5.6379 23.5108
592 1 -1.1104 0.955171 11.2392 23.5904
595 2 2.2208 5.16351 9.77079 24.9058
596 1 -1.1104 1.09665 5.33163 26.1893
597 1 -1.1104 0.946343 11.0535 26.4236
600 1 -1.1104 3.63675 8.38483 23.5874
601 2 2.2208 2.35926 6.93674 25.0591
602 2 2.2208 2.40417 12.4927 24.8687
603 1 -1.1104 3.81227 8.35371 26.2948
604 2 2.2208 2.43954 9.77721 22.2648
605 1 -1.1104 3.83449 5.56051 23.5519
606 1 -1.1104 3.87084 11.1548 23.4897
607 1 -1.1104 3.66637 5.47105 26.339
608 1 -1.1104 3.65738 11.177 26.2819
588 1 -1.1104 6.43583 8.39264 23.4762
598 1 -1.1104 6.69177 5.70944 26.4943
599 1 -1.1104 6.48967 11.2885 26.0816
400 1 -1.1104 6.71994 8.3338 20.7096
413 1 -1.1104 6.67657 11.2536 20.4628
594 1 -1.1104 6.7725 11.105 23.3148
681 2 2.2208 10.7558 21.0673 24.8278
450 1 -1.1104 9.38971 5.57072 20.8568
9178 2 2.2208 13.5488 12.5402 24.8553
351 2 2.2208 13.7027 9.79145 21.9745
593 1 -1.1104 6.75594 5.50582 23.6191
438 1 -1.1104 12.1693 5.62523 20.7329
433 1 -1.1104 12.1902 8.40569 20.7342
639 2 2.2208 13.6485 7.01283 24.841
590 1 -1.1104 6.73045 8.36804 26.436
445 1 -1.1104 9.51236 8.44797 20.6568
616 1 -1.1104 9.22651 11.268 26.4444
617 1 -1.1104 9.43942 5.65276 26.3695
618 1 -1.1104 9.55021 11.1683 23.5478
619 1 -1.1104 9.48891 5.49706 23.5597
620 2 2.2208 8.13177 9.78034 21.961
621 1 -1.1104 9.45808 8.37372 26.1727
622 2 2.2208 7.97831 12.5197 24.8506
623 2 2.2208 8.10478 6.95364 24.9486
624 2 2.2208 10.8744 6.96274 22.0929
625 2 2.2208 10.8412 12.6663 22.1655
626 1 -1.1104 12.1013 8.44086 23.4634
627 1 -1.1104 12.121 8.49393 26.2978
628 1 -1.1104 12.2939 5.58623 23.3939
629 1 -1.1104 12.3701 11.0664 23.4411
630 2 2.2208 10.905 9.73287 24.7741
631 1 -1.1104 12.153 5.6414 26.2237
632 1 -1.1104 12.149 11.2063 26.3795
633 1 -1.1104 9.42546 8.44487 23.4895
650 1 -1.1104 6.71231 13.9239 23.366
658 1 -1.1104 6.75968 16.7095 23.4506
643 1 -1.1104 6.63717 16.8117 26.1535
476 1 -1.1104 6.55405 16.7903 20.7032
483 1 -1.1104 4.02346 19.5779 20.8943
481 1 -1.1104 3.75403 14.0724 20.7271
646 1 -1.1104 0.95538 13.8944 26.2725
648 2 2.2208 5.21721 20.9521 24.9248
662 2 2.2208 2.42931 15.3028 22.1205
661 2 2.2208 2.48467 20.9701 22.1684
660 1 -1.1104 3.97025 16.6971 23.4877
659 1 -1.1104 1.08322 16.7718 23.5243
657 1 -1.1104 3.77853 13.8651 26.1822
656 1 -1.1104 3.90586 16.577 26.1482
655 2 2.2208 2.40653 18.0589 24.9772
654 1 -1.1104 3.77091 19.4791 26.3741
653 2 2.2208 5.281 18.0598 22.04
652 1 -1.1104 0.837574 14.0045 23.4269
651 1 -1.1104 0.9357 19.4791 23.6432
649 2 2.2208 5.249 15.2889 24.762
640 1 -1.1104 3.79053 19.588 23.6661
642 1 -1.1104 3.86368 13.9751 23.3675
644 1 -1.1104 0.88782 19.4597 26.4281
645 1 -1.1104 1.02298 16.6802 26.2676
641 1 -1.1104 6.46425 13.9931 26.3292
647 1 -1.1104 6.49436 19.586 23.4549
553 2 2.2208 10.83 18.2701 22.1138
498 1 -1.1104 12.3581 19.6501 20.7987
9370 2 2.2208 13.7407 15.3596 22.2271
675 1 -1.1104 9.24009 14.0645 26.1783
671 1 -1.1104 9.42443 16.8437 23.7389
8835 2 2.2208 5.17816 -4.25995 27.8388
584 2 2.2208 13.5516 4.14711 27.6365
516 2 2.2208 10.8029 21.0725 13.6407
518 2 2.2208 8.06595 18.2678 13.5873
390 2 2.2208 8.10001 1.38427 13.7113
391 2 2.2208 10.8692 -1.48484 13.8018
9367 2 2.2208 -0.315186 15.2455 13.7342
454 2 2.2208 10.7781 9.89658 13.6981
9368 2 2.2208 -0.377441 20.9341 13.7109
611 2 2.2208 5.05848 12.59 27.7166
689 2 2.2208 5.39813 23.7688 5.23827
690 2 2.2208 5.2112 29.3633 5.33326
691 1 -1.1104 1.06608 24.9721 1.23428
692 1 -1.1104 0.913997 25.2032 3.9657
693 1 -1.1104 1.09666 22.241 1.12819
694 1 -1.1104 0.993641 28.0648 0.879058
695 2 2.2208 5.2689 26.5307 2.45375
696 1 -1.1104 0.968991 22.1736 3.94308
697 1 -1.1104 1.00414 27.893 3.74671
698 1 -1.1104 3.78041 25.3333 1.10398
699 2 2.2208 2.48122 23.8403 2.53934
700 2 2.2208 2.50228 29.353 2.45983
701 1 -1.1104 3.80677 25.1136 3.88449
702 2 2.2208 2.50237 26.5846 5.33502
703 1 -1.1104 3.8337 22.3507 1.06001
704 1 -1.1104 3.91337 27.8787 1.06283
705 1 -1.1104 3.87394 22.1584 3.89988
706 1 -1.1104 3.92852 27.9316 3.94974
838 1 -1.1104 3.8144 27.9589 6.64859
712 1 -1.1104 6.60559 22.3403 1.05809
714 1 -1.1104 6.7296 22.3251 3.81385
711 1 -1.1104 6.67929 25.1289 3.87776
710 1 -1.1104 6.72749 25.3029 1.00515
713 1 -1.1104 6.71913 28.0531 0.85416
837 1 -1.1104 3.87704 22.3434 6.67218
836 1 -1.1104 3.83144 25.1071 6.64474
830 1 -1.1104 0.893168 25.0111 6.77449
828 2 2.2208 13.5928 40.5567 2.53428
715 1 -1.1104 6.70686 27.9265 3.85383
716 2 2.2208 10.8246 23.663 5.14234
717 2 2.2208 10.6498 29.417 5.40915
718 1 -1.1104 12.2343 25.2615 1.04966
719 1 -1.1104 12.2484 25.2213 3.92739
720 1 -1.1104 12.2135 22.4383 1.05014
721 1 -1.1104 12.3553 28.1598 1.36683
722 2 2.2208 10.8027 26.6389 2.60367
723 1 -1.1104 12.1127 22.4332 3.83631
724 1 -1.1104 12.255 27.9955 4.28395
725 1 -1.1104 9.45304 25.3692 1.07457
726 2 2.2208 8.10184 23.814 2.31607
727 2 2.2208 7.98049 29.3311 2.56805
728 1 -1.1104 9.47283 25.2063 3.84986
729 2 2.2208 8.091 26.5436 5.27441
730 1 -1.1104 9.51389 22.427 0.94185
731 1 -1.1104 9.52851 28.0358 1.12403
732 1 -1.1104 9.38912 22.3507 3.73132
733 1 -1.1104 9.4162 27.9257 3.90334
9805 2 2.2208 13.6189 23.8003 2.42604
1356 1 -1.1104 3.93268 47.8091 3.83929
866 1 -1.1104 9.4173 25.055 6.64346
864 1 -1.1104 12.347 22.2765 6.74519
835 1 -1.1104 6.63527 27.8231 6.62612
868 1 -1.1104 9.26074 28.1303 6.54402
1255 2 2.2208 2.24322 37.8607 -0.25141
9807 2 2.2208 13.7342 26.4493 5.24078
737 2 2.2208 5.23596 34.9314 5.25304
738 1 -1.1104 0.999158 30.7423 1.0639
739 1 -1.1104 0.991004 36.481 1.13713
741 1 -1.1104 1.03244 30.6244 3.98974
742 1 -1.1104 1.16439 36.3042 3.9572
744 1 -1.1104 0.908675 33.5272 1.0293
745 2 2.2208 5.34459 32.206 2.36927
746 2 2.2208 5.16794 37.8371 2.51461
747 1 -1.1104 1.03789 33.4489 3.79936
749 1 -1.1104 3.95449 30.8391 1.02347
750 1 -1.1104 3.82723 36.4868 1.13938
751 2 2.2208 2.35634 34.9558 2.42166
752 1 -1.1104 3.69716 30.7681 3.908
753 1 -1.1104 3.87747 36.3747 3.87077
754 2 2.2208 2.41152 32.2114 5.2971
755 2 2.2208 2.41458 37.8605 5.38714
756 1 -1.1104 3.75475 33.6527 1.06814
757 1 -1.1104 3.78381 33.4545 3.86066
748 1 -1.1104 6.74075 33.6544 3.88669
743 1 -1.1104 6.65384 36.4435 3.88683
882 1 -1.1104 1.0541 30.9041 6.88164
889 1 -1.1104 3.93295 36.4191 6.64277
888 1 -1.1104 3.78125 30.7467 6.70882
887 1 -1.1104 6.55755 33.5513 6.78481
883 1 -1.1104 1.07181 36.3778 6.87956
890 1 -1.1104 3.86561 33.5816 6.70109
885 1 -1.1104 6.60609 36.3244 6.72253
884 1 -1.1104 6.46352 30.7573 6.65054
740 1 -1.1104 6.6462 36.3606 1.08038
761 1 -1.1104 6.69355 30.7383 1.13451
763 1 -1.1104 6.67556 33.6606 0.956149
762 1 -1.1104 6.49201 30.7505 3.96351
764 2 2.2208 10.7399 35.1481 5.24297
765 1 -1.1104 12.2172 30.8116 1.08485
766 1 -1.1104 12.3913 36.5158 1.15079
767 1 -1.1104 12.1854 30.8312 4.08229
768 1 -1.1104 12.2531 36.4753 3.80383
769 1 -1.1104 12.4232 33.7418 0.937853
770 2 2.2208 10.9132 32.1998 2.45378
771 2 2.2208 10.8299 37.7872 2.3975
772 1 -1.1104 12.1762 33.7843 3.90601
773 1 -1.1104 9.39678 30.7517 1.20823
774 1 -1.1104 9.49342 36.415 0.983539
775 2 2.2208 8.06748 35.1368 2.43855