ITEM: TIMESTEP
80000
ITEM: NUMBER OF ATOMS
17640
ITEM: BOX BOUNDS pp pp pp
-3.6834551148030320e-01 2.7708345511480463e+01
-4.3142663102412602e+00 3.3239426631023900e+02
-3.5343871336782912e-01 2.7693438713369101e+01
ITEM: ATOMS id type q x y z
1 2 2.2208 5.17582 1.28875 5.36573
2 1 -1.1104 1.10438 -2.89542 0.930445
3 1 -1.1104 0.931078 2.83026 1.15634
6 1 -1.1104 0.939269 -2.98595 3.8216
7 1 -1.1104 1.08834 2.65605 3.96014
10 1 -1.1104 1.00427 0.0751398 1.1156
12 2 2.2208 5.24513 -1.59236 2.519
13 2 2.2208 5.33523 4.10698 2.40478
14 1 -1.1104 0.851712 -0.152857 3.8421
16 1 -1.1104 3.85167 -2.90785 1.17206
17 1 -1.1104 3.90502 2.59054 1.09336
18 2 2.2208 2.43629 1.3038 2.4806
19 1 -1.1104 3.66672 -3.08871 4.01144
20 1 -1.1104 3.85684 2.80643 3.77942
21 2 2.2208 2.23889 -1.56351 5.362
22 2 2.2208 2.33017 4.01594 5.31038
23 1 -1.1104 3.89615 -0.170039 0.985306
24 1 -1.1104 3.61324 -0.195635 3.85748
29 2 2.2208 13.6296 9.73399 10.934
8 1 -1.1104 6.72456 -2.80247 3.74748
5 1 -1.1104 6.60871 2.62385 1.09896
11 1 -1.1104 6.68456 -0.0336698 1.05469
9 1 -1.1104 6.70384 2.64797 3.80111
167 1 -1.1104 0.772375 2.75832 6.76213
173 1 -1.1104 3.72038 2.53662 6.63665
17273 2 2.2208 13.5581 -4.26156 2.56131
546 2 2.2208 2.40236 4.14009 -0.28869
15 1 -1.1104 6.56582 -0.12371 3.97902
4 1 -1.1104 6.50344 -2.89873 1.1322
174 1 -1.1104 3.70146 -0.368709 6.77029
545 2 2.2208 2.48619 -1.49564 -0.291204
664 2 2.2208 5.41198 17.992 -0.318444
9152 2 2.2208 13.6214 -1.53857 5.35402
31 2 2.2208 10.7208 1.22041 5.44853
32 1 -1.1104 12.1567 -2.95624 1.0572
33 1 -1.1104 12.3179 2.4626 1.12023
34 1 -1.1104 12.2182 -2.8123 3.97741
35 1 -1.1104 12.2458 2.6399 3.8884
36 1 -1.1104 12.2627 -0.240928 1.14725
37 2 2.2208 10.7162 -1.42274 2.50786
38 2 2.2208 10.9455 3.91303 2.53694
39 1 -1.1104 12.0997 -0.135826 4.11568
40 1 -1.1104 9.3896 -2.84948 1.06351
41 1 -1.1104 9.6182 2.63432 1.04795
42 2 2.2208 8.03269 1.35302 2.49777
43 1 -1.1104 9.33815 -2.95005 3.98794
44 1 -1.1104 9.39511 2.5942 3.88806
45 2 2.2208 7.85261 -1.5209 5.32629
46 2 2.2208 7.96533 4.05216 5.32193
47 1 -1.1104 9.38626 -0.10112 1.08826
48 1 -1.1104 9.24585 -0.10088 3.9513
491 2 2.2208 5.12389 15.396 13.683
9151 2 2.2208 13.6333 1.27858 2.56362
26 2 2.2208 13.5636 15.3406 11.009
8525 2 2.2208 10.7769 -4.22602 -0.321818
82 1 -1.1104 12.0568 16.7809 12.3257
232 1 -1.1104 9.49358 19.444 9.42347
54 2 2.2208 5.05554 6.738 5.27747
55 2 2.2208 5.06605 12.5081 5.33535
56 1 -1.1104 0.941815 8.29771 1.32609
58 1 -1.1104 1.02825 8.35812 4.12714
60 1 -1.1104 1.10864 5.60454 1.20619
61 1 -1.1104 0.910256 11.06 1.09002
66 2 2.2208 5.10984 9.6569 2.67733
67 1 -1.1104 0.947973 5.46568 4.01346
68 1 -1.1104 0.810767 11.0607 3.87364
71 1 -1.1104 3.83592 8.23197 1.12094
72 2 2.2208 2.3533 6.8861 2.60294
73 2 2.2208 2.41025 12.3703 2.35516
74 1 -1.1104 3.76076 8.30727 3.94588
75 2 2.2208 2.29136 9.67804 5.49338
76 1 -1.1104 3.82267 5.52367 1.11876
77 1 -1.1104 3.77161 11.0389 1.12835
79 1 -1.1104 3.79085 5.52464 3.90088
80 1 -1.1104 3.69686 11.068 3.93189
63 1 -1.1104 6.75797 5.47837 1.04397
59 1 -1.1104 6.48019 8.25135 3.79113
57 1 -1.1104 6.61544 8.31834 1.02507
70 1 -1.1104 6.47329 11.1184 3.89509
78 1 -1.1104 3.82445 11.0482 6.83314
236 1 -1.1104 0.702019 5.49712 6.79604
237 1 -1.1104 6.44495 5.4829 6.72674
64 1 -1.1104 6.58279 11.074 1.01474
239 1 -1.1104 3.59059 5.33973 6.7174
289 1 -1.1104 6.70481 16.6644 9.52443
316 2 2.2208 7.93188 20.8945 10.7117
9119 2 2.2208 13.6144 21.0391 10.9194
204 2 2.2208 13.3569 9.84221 5.34605
69 1 -1.1104 6.63663 5.44094 3.74772
9052 2 2.2208 13.5981 6.88583 2.56991
84 2 2.2208 10.795 6.87141 5.30196
85 2 2.2208 10.7295 12.4573 5.26272
86 1 -1.1104 12.144 8.19417 0.899782
87 1 -1.1104 12.0313 8.17589 3.79169
88 1 -1.1104 12.1519 5.39425 1.0488
89 1 -1.1104 12.2414 10.9276 1.05436
91 2 2.2208 10.7596 9.63495 2.40069
92 1 -1.1104 12.2376 5.42284 4.02314
93 1 -1.1104 11.9772 11.0943 3.85294
94 1 -1.1104 9.47039 8.05855 0.99393
95 2 2.2208 8.10058 6.83321 2.38862
96 2 2.2208 7.8509 12.4849 2.50911
97 1 -1.1104 9.31646 8.23938 3.97568
98 2 2.2208 7.87414 9.66357 5.19704
99 1 -1.1104 9.39871 5.384 0.94041
100 1 -1.1104 9.35121 11.0203 0.973386
102 1 -1.1104 9.48046 5.44042 3.8159
103 1 -1.1104 9.28092 10.9292 3.89479
104 2 2.2208 13.5492 12.5015 2.52829
267 1 -1.1104 9.10948 8.33409 6.76249
265 1 -1.1104 11.9861 8.28065 6.77499
266 1 -1.1104 12.0914 5.43589 6.82186
106 2 2.2208 5.11996 18.0633 5.23015
107 1 -1.1104 0.956319 13.9012 1.10895
109 1 -1.1104 1.04492 19.4836 1.19486
113 1 -1.1104 0.962005 13.8731 3.88736
114 1 -1.1104 0.998538 19.4938 3.82059
116 1 -1.1104 0.996071 16.6127 1.11318
119 2 2.2208 5.15723 15.2015 2.65636
120 2 2.2208 5.22223 20.9705 2.27932
121 1 -1.1104 0.82272 16.6271 3.94267
123 1 -1.1104 3.80362 13.9576 1.22837
125 1 -1.1104 3.85863 19.516 0.927552
127 2 2.2208 2.3662 18.0693 2.54986
128 1 -1.1104 3.78619 13.8101 3.8223
129 1 -1.1104 3.7285 19.5583 3.81346
130 2 2.2208 2.31121 15.174 5.35409
131 2 2.2208 2.42416 20.7492 5.21114
132 1 -1.1104 3.80312 16.7599 1.15938
134 1 -1.1104 3.62873 16.5597 3.9089
110 1 -1.1104 6.61539 13.9392 1.22534
140 1 -1.1104 6.71079 16.6557 1.10939
139 1 -1.1104 6.82568 19.4718 3.67689
122 1 -1.1104 6.58113 16.7857 3.94422
115 1 -1.1104 6.54486 13.9367 3.90657
302 1 -1.1104 0.8996 19.5526 6.59703
117 1 -1.1104 1.03286 16.8253 6.71552
111 1 -1.1104 6.4827 13.8676 6.71373
126 1 -1.1104 3.76519 19.5015 6.60405
118 1 -1.1104 6.72943 16.6086 6.73555
165 2 2.2208 13.5731 18.168 2.49259
138 1 -1.1104 6.58494 19.4677 1.01658
141 2 2.2208 10.7656 18.1769 5.34741
142 1 -1.1104 12.1758 13.9468 1.06141
144 1 -1.1104 12.3085 19.476 1.0075
146 1 -1.1104 12.2554 13.8903 3.92819
147 1 -1.1104 12.2908 19.6336 3.88537
148 1 -1.1104 12.2477 16.7026 0.997294
150 2 2.2208 10.9385 15.3048 2.53096
151 2 2.2208 10.8069 20.937 2.50436
152 1 -1.1104 12.263 16.7354 4.01023
153 1 -1.1104 9.2727 13.9143 1.02051
155 1 -1.1104 9.35481 19.4845 1.04738
157 2 2.2208 8.06558 18.0544 2.47517
158 1 -1.1104 9.35728 13.7486 3.88067
159 1 -1.1104 9.53336 19.5371 3.89183
160 2 2.2208 7.88917 15.1367 5.24441
161 2 2.2208 7.84249 20.9262 5.23473
162 1 -1.1104 9.48304 16.7329 1.10382
164 1 -1.1104 9.44384 16.5594 3.87463
8451 2 2.2208 10.7106 -4.20817 5.25579
203 2 2.2208 13.5182 21.0051 5.30714
149 1 -1.1104 12.2228 16.6767 6.74691
145 1 -1.1104 12.1888 19.4943 6.66339
143 1 -1.1104 12.1479 13.9254 6.74925
154 1 -1.1104 9.36338 13.8329 6.58491
156 1 -1.1104 9.32991 19.7455 6.63771
166 1 -1.1104 0.972644 -2.94606 6.64304
171 1 -1.1104 6.50284 -0.0386204 6.74378
172 1 -1.1104 3.80791 -2.98404 6.86781
170 1 -1.1104 0.965806 0.062182 6.54517
168 1 -1.1104 6.56416 -2.92356 6.67883
27 2 2.2208 13.4951 18.0726 8.12991
169 1 -1.1104 6.48478 2.76134 6.68493
175 2 2.2208 5.17347 1.20847 10.8531
176 1 -1.1104 0.818455 -2.95719 12.2885
177 1 -1.1104 1.01226 2.68914 12.2776
180 1 -1.1104 1.01912 -2.94657 9.511
181 1 -1.1104 1.03201 2.66214 9.5658
184 1 -1.1104 0.893055 -0.034247 12.3181
186 2 2.2208 5.27743 -1.56496 8.2167
187 2 2.2208 5.17736 4.0948 8.09094
188 1 -1.1104 0.963565 0.0135176 9.57845
190 1 -1.1104 3.73918 -2.80064 12.331
191 1 -1.1104 3.82749 2.80611 12.2752
192 2 2.2208 2.38495 1.13644 8.05258
193 1 -1.1104 3.80642 -2.87649 9.56155
194 1 -1.1104 3.89763 2.64033 9.5074
195 2 2.2208 2.35027 -1.47473 10.928
196 2 2.2208 2.32398 4.12135 10.8872
197 1 -1.1104 3.74783 -0.0636642 12.2679
198 1 -1.1104 3.76954 -0.217083 9.37831
182 1 -1.1104 6.61496 -3.07867 9.69156
185 1 -1.1104 6.47164 -0.166257 12.2834
183 1 -1.1104 6.71559 2.6371 9.59576
179 1 -1.1104 6.62979 2.60302 12.3947
207 1 -1.1104 12.1441 -0.209954 6.90312
208 1 -1.1104 9.24099 -2.9435 6.64828
209 1 -1.1104 9.26419 2.62708 6.63429
205 1 -1.1104 12.1905 -2.97589 6.55247
229 2 2.2208 13.4715 1.22891 8.21164
189 1 -1.1104 6.45091 -0.146969 9.4498
230 2 2.2208 13.6342 -1.5121 10.8857
8992 2 2.2208 13.4914 3.99329 10.7853
178 1 -1.1104 6.57404 -3.12214 12.3218
210 1 -1.1104 9.3255 -0.0924658 6.80045
206 1 -1.1104 12.1611 2.72869 6.69311
211 2 2.2208 10.73 1.27211 10.8723
212 1 -1.1104 12.2139 -2.83318 12.3584
213 1 -1.1104 12.1983 2.64016 12.3132
214 1 -1.1104 12.0795 -2.93188 9.51299
215 1 -1.1104 12.0713 2.56649 9.39138
216 1 -1.1104 12.1305 -0.0846173 12.3491
217 2 2.2208 10.5947 -1.61055 8.17343
218 2 2.2208 10.6539 4.11325 7.99205
219 1 -1.1104 12.2431 -0.156834 9.71222
220 1 -1.1104 9.45122 -2.91324 12.3427
221 1 -1.1104 9.4125 2.69629 12.2072
222 2 2.2208 7.94096 1.25471 8.26774
223 1 -1.1104 9.25897 -2.94145 9.53733
224 1 -1.1104 9.43339 2.65291 9.54085
225 2 2.2208 7.96625 -1.53772 10.9704
226 2 2.2208 7.95112 4.06391 10.9341
227 1 -1.1104 9.37555 -0.131025 12.2953
228 1 -1.1104 9.35007 -0.184683 9.55905
136 2 2.2208 10.7813 20.9911 8.07205
238 1 -1.1104 3.62769 8.06633 6.65569
234 1 -1.1104 0.806539 8.29749 6.81037
235 1 -1.1104 6.32812 8.34694 6.57871
62 1 -1.1104 1.08419 11.1798 6.73963
240 2 2.2208 5.07677 6.87106 10.8391
241 2 2.2208 5.04718 12.4524 10.9389
242 1 -1.1104 0.916977 8.269 12.3696
244 1 -1.1104 0.850668 8.4015 9.58542
246 1 -1.1104 0.853835 5.47852 12.3076
247 1 -1.1104 0.886929 11.0374 12.2093
250 2 2.2208 5.10324 9.51202 7.993
251 1 -1.1104 0.933773 5.55984 9.59529
252 1 -1.1104 0.74053 11.1163 9.47012
255 1 -1.1104 3.63239 8.29436 12.3046
256 2 2.2208 2.12283 6.92282 8.14278
257 2 2.2208 2.22436 12.5381 8.11392
258 1 -1.1104 3.67557 8.41144 9.55957
259 2 2.2208 2.25917 9.65404 10.8821
260 1 -1.1104 3.62731 5.46528 12.2748
261 1 -1.1104 3.63167 10.9568 12.3276
262 1 -1.1104 3.75805 5.6209 9.37463
263 1 -1.1104 3.42675 11.244 9.5106
254 1 -1.1104 6.35259 10.8879 9.43003
253 1 -1.1104 6.59445 5.50132 9.53762
248 1 -1.1104 6.42703 5.50678 12.3567
65 1 -1.1104 6.37617 10.9479 6.50091
243 1 -1.1104 6.36729 8.24283 12.2711
245 1 -1.1104 6.47345 8.21442 9.48919
101 1 -1.1104 9.31847 11.1352 6.73058
269 1 -1.1104 9.2103 5.52724 6.59748
249 1 -1.1104 6.42881 11.1661 12.3075
52 2 2.2208 13.429 6.83076 8.08762
90 1 -1.1104 12.0954 11.105 6.66848
51 2 2.2208 13.4822 12.5626 8.17641
264 1 -1.1104 9.15564 11.0317 9.47565
268 1 -1.1104 9.35459 5.36261 9.4308
270 1 -1.1104 9.29249 11.0646 12.3215
271 1 -1.1104 9.20921 5.5181 12.1831
272 2 2.2208 7.76295 9.68232 10.9072
273 1 -1.1104 9.42175 8.33499 9.58246
274 2 2.2208 7.80808 12.3022 7.9787
275 2 2.2208 7.86867 6.81601 8.12376
276 2 2.2208 10.6492 6.87254 10.9329
277 2 2.2208 10.709 12.4888 10.8252
278 1 -1.1104 12.147 8.21695 12.302
279 1 -1.1104 12.1545 8.34683 9.4435
280 1 -1.1104 12.0235 5.46779 12.1879
281 1 -1.1104 11.998 11.1359 12.3374
282 2 2.2208 10.627 9.73212 8.1555
283 1 -1.1104 12.1254 5.39548 9.52017
284 1 -1.1104 12.0521 11.214 9.40943
285 1 -1.1104 9.21553 8.30534 12.3745
105 2 2.2208 10.7257 15.2437 7.96581
81 1 -1.1104 12.2569 19.4402 9.61695
8456 2 2.2208 10.8435 -4.29961 10.9322
296 1 -1.1104 6.62195 19.4503 12.1749
112 1 -1.1104 6.54703 19.4516 6.56729
108 1 -1.1104 0.947979 13.903 6.76344
133 1 -1.1104 3.8552 16.757 6.63445
124 1 -1.1104 3.78069 13.9236 6.70496
306 1 -1.1104 6.57484 16.8929 12.2381
290 1 -1.1104 6.52194 13.6773 9.44868
297 1 -1.1104 6.58731 14.1158 12.2117
286 1 -1.1104 3.71563 19.8361 12.317
287 1 -1.1104 3.76242 14.0044 12.4139
291 1 -1.1104 1.01908 19.4473 9.54086
292 1 -1.1104 0.967556 16.6554 9.38032
293 2 2.2208 5.11096 20.8985 8.02486
294 1 -1.1104 0.896084 13.9948 9.57138
295 2 2.2208 5.15674 15.2729 8.16717
298 1 -1.1104 0.929096 19.7721 12.3688
299 1 -1.1104 0.905415 14.0452 12.2921
300 2 2.2208 5.17028 18.1275 10.845
301 1 -1.1104 3.86051 19.6497 9.50337
303 2 2.2208 2.29005 18.1404 8.06996
304 1 -1.1104 3.78836 16.9461 9.33683
305 1 -1.1104 3.78022 14.0936 9.57215
307 1 -1.1104 0.963125 16.8449 12.296
308 1 -1.1104 3.70971 16.9181 12.2861
309 2 2.2208 2.42769 21.0155 10.9006
310 2 2.2208 2.30422 15.4209 10.8191
288 1 -1.1104 6.59706 19.4765 9.39635
199 1 -1.1104 12.1394 16.7317 9.44026
311 2 2.2208 8.11691 18.0288 8.03825
233 2 2.2208 7.99652 15.3839 10.8646
200 1 -1.1104 9.4433 13.791 12.1812
315 1 -1.1104 9.43566 16.634 12.2683
312 1 -1.1104 9.27061 13.8191 9.23473
163 1 -1.1104 9.40249 16.7669 6.62929
49 1 -1.1104 12.288 13.9062 12.2587
53 1 -1.1104 12.1569 13.9709 9.55046
30 2 2.2208 10.792 18.2027 10.8979
314 1 -1.1104 9.45822 16.596 9.40357
50 1 -1.1104 12.1581 19.7471 12.2967
201 1 -1.1104 9.32975 19.5751 12.1786
8452 2 2.2208 2.38263 -4.15065 8.17169
8450 2 2.2208 7.92337 -4.18159 2.40766
518 2 2.2208 7.96535 18.2574 13.6492
9149 2 2.2208 -0.414044 4.19395 2.49596
544 2 2.2208 5.27841 1.27895 -0.244776
202 2 2.2208 13.6178 15.2769 5.30884
581 2 2.2208 13.5906 -1.50962 -0.34835
490 2 2.2208 5.23501 21.0799 13.5667
575 2 2.2208 7.87966 -1.47788 -0.343031
8829 2 2.2208 2.18399 -4.29329 13.7062
609 2 2.2208 5.26429 6.97382 -0.323121
426 2 2.2208 2.31956 6.97389 13.69
455 2 2.2208 7.87835 12.3965 13.6774
610 2 2.2208 2.25999 9.58932 -0.194351
358 2 2.2208 2.37922 1.27573 13.6156
359 2 2.2208 5.11821 4.13089 13.6318
517 2 2.2208 10.7474 15.2943 13.5889
392 2 2.2208 10.7741 3.95421 13.5869
548 2 2.2208 10.7645 18.0734 -0.201582
611 2 2.2208 5.11331 12.557 -0.173969
665 2 2.2208 2.42778 15.3867 -0.354895
663 2 2.2208 2.46237 20.8316 -0.2981
317 2 2.2208 5.08377 1.25007 16.5056
318 1 -1.1104 1.05639 -3.14742 17.8801
319 1 -1.1104 0.945715 2.6481 17.8791
322 1 -1.1104 0.728716 -2.86082 15.1379
324 1 -1.1104 0.902804 2.7373 15.098
330 1 -1.1104 0.824411 -0.164316 17.9352
332 2 2.2208 5.14034 -1.54521 19.2851
333 2 2.2208 5.20608 4.09846 19.2949
334 1 -1.1104 0.990458 -0.0687958 15.062
338 1 -1.1104 3.81507 -3.08744 17.849
339 1 -1.1104 3.75904 2.53307 17.9546
340 2 2.2208 2.37971 1.23302 19.3533
341 1 -1.1104 3.59919 -2.82848 14.9481
343 1 -1.1104 3.65065 2.7226 15.1737
345 2 2.2208 2.21206 -1.57339 16.4959
346 2 2.2208 2.3246 4.10534 16.5693
347 1 -1.1104 3.63075 -0.22773 17.8534
348 1 -1.1104 3.81116 -0.0770167 15.0326
321 1 -1.1104 6.59712 2.67015 17.8001
328 1 -1.1104 6.51635 2.57907 15.0219
325 1 -1.1104 0.888052 2.63704 20.7227
326 1 -1.1104 6.58205 -2.97658 15.1222
8837 2 2.2208 2.39341 -4.22423 24.8706
336 1 -1.1104 6.503 -0.265533 15.1609
8523 2 2.2208 7.9185 -4.28012 24.8544
342 1 -1.1104 3.73577 -2.86456 20.6178
9370 2 2.2208 13.5218 15.2813 22.2299
389 2 2.2208 -0.351477 9.77803 19.3147
9386 2 2.2208 13.5607 4.07127 22.1269
331 1 -1.1104 6.52522 -0.193871 17.9118
320 1 -1.1104 6.56912 -3.03631 17.8778
8836 2 2.2208 4.99143 -4.28655 21.9706
8838 2 2.2208 13.6249 -4.2502 25.0051
360 2 2.2208 10.7739 1.20961 16.5688
361 1 -1.1104 12.0887 -2.86434 17.8933
362 1 -1.1104 12.0838 2.76949 17.8604
363 1 -1.1104 12.1434 -2.97121 15.1491
365 1 -1.1104 12.1127 2.73724 15.1678
367 1 -1.1104 12.0723 -0.0387023 17.9222
368 2 2.2208 10.7669 -1.48536 19.3619
369 2 2.2208 10.765 3.98377 19.3557
370 1 -1.1104 12.3235 -0.112642 15.1602
372 1 -1.1104 9.28725 -2.82556 17.93
373 1 -1.1104 9.47859 2.66664 17.9999
374 2 2.2208 7.91687 1.28836 19.3283
375 1 -1.1104 9.36369 -3.08389 15.0724
377 1 -1.1104 9.41961 2.38651 15.2169
379 2 2.2208 7.89413 -1.60638 16.5144
380 2 2.2208 8.08832 3.99334 16.4796
381 1 -1.1104 9.29958 -0.00252544 17.8687
382 1 -1.1104 9.44656 -0.299482 15.1244
9220 2 2.2208 13.6264 21.0204 22.1282
582 2 2.2208 13.5661 -1.54355 22.1924
364 1 -1.1104 12.1219 -2.91994 20.7611
378 1 -1.1104 9.2865 2.5939 20.7204
549 2 2.2208 -0.350646 12.6771 16.4494
383 1 -1.1104 9.36368 -0.113467 20.6056
8830 2 2.2208 13.4736 -4.25746 19.2937
9371 2 2.2208 -0.321985 1.37274 16.5015
551 2 2.2208 13.5731 12.5949 19.445
393 2 2.2208 5.11045 6.85906 16.5509
394 2 2.2208 5.27948 12.6489 16.4995
395 1 -1.1104 1.12991 8.43222 17.9921
397 1 -1.1104 0.915709 8.37879 15.2648
401 1 -1.1104 0.945368 5.42156 17.9143
402 1 -1.1104 1.02083 11.1112 17.9268
405 2 2.2208 5.18099 9.71754 19.2906
406 1 -1.1104 0.878823 5.60915 15.0456
408 1 -1.1104 1.05434 11.1931 14.9714
414 1 -1.1104 3.82495 8.27244 17.9289
415 2 2.2208 2.22316 6.8823 19.1783
416 2 2.2208 2.45018 12.5586 19.4353
417 1 -1.1104 3.64589 8.21448 15.2573
419 2 2.2208 2.393 9.76755 16.5328
420 1 -1.1104 3.76242 5.46568 17.879
421 1 -1.1104 3.81694 11.4067 17.8665
422 1 -1.1104 3.72044 5.39909 15.1015
424 1 -1.1104 3.74762 10.9932 15.0378
404 1 -1.1104 6.4304 11.0298 17.7945
412 1 -1.1104 6.57082 11.2389 15.0537
399 1 -1.1104 6.5556 8.37739 15.0586
396 1 -1.1104 6.51712 8.22496 17.9503
407 1 -1.1104 1.11657 5.34169 20.7477
400 1 -1.1104 6.47758 8.24271 20.7821
428 2 2.2208 2.33243 12.5723 13.6569
410 1 -1.1104 6.54426 5.4173 15.1002
403 1 -1.1104 6.56034 5.50164 17.8245
425 1 -1.1104 3.81284 11.1524 20.7174
423 1 -1.1104 3.75861 5.56645 20.6677
398 1 -1.1104 0.857867 8.35275 20.6788
390 2 2.2208 7.89475 1.13292 13.7918
385 2 2.2208 13.5159 15.24 16.5324
578 2 2.2208 13.4855 9.72442 16.5686
679 1 -1.1104 9.48077 14.0378 23.4804
429 2 2.2208 10.7798 6.92424 16.5273
430 2 2.2208 10.5946 12.3617 16.4832
431 1 -1.1104 12.1773 8.19465 17.7374
432 1 -1.1104 12.2384 8.45953 15.077
434 1 -1.1104 12.2128 5.45529 17.8834
435 1 -1.1104 12.0063 10.9967 17.9147
436 2 2.2208 10.7097 9.71301 19.362
437 1 -1.1104 12.2149 5.60707 15.0065
439 1 -1.1104 12.1841 11.1059 15.1588
441 1 -1.1104 9.31244 8.17198 17.98
442 2 2.2208 7.97498 6.82071 19.2471
443 2 2.2208 8.03445 12.4873 19.393
444 1 -1.1104 9.29999 8.16058 15.1316
446 2 2.2208 7.96929 9.71821 16.5121
447 1 -1.1104 9.33244 5.52346 17.8705
448 1 -1.1104 9.19378 11.013 17.9569
449 1 -1.1104 9.28281 5.28612 14.9701
451 1 -1.1104 9.42076 11.0222 15.0453
440 1 -1.1104 12.1065 11.0907 20.7244
388 2 2.2208 13.4746 -1.488 16.4827
577 2 2.2208 13.5534 6.85412 19.3393
452 1 -1.1104 9.45882 11.1602 20.7343
450 1 -1.1104 9.32429 5.35331 20.7261
456 2 2.2208 5.16202 18.1452 16.4641
457 1 -1.1104 1.02714 13.9941 17.9241
458 1 -1.1104 1.05167 19.481 17.8135
461 1 -1.1104 0.855015 13.9681 15.0459
463 1 -1.1104 0.995895 19.6399 15.0908
469 1 -1.1104 0.781623 16.8655 17.9615
471 2 2.2208 5.08131 15.2988 19.3196
472 2 2.2208 5.33117 20.9196 19.1832
473 1 -1.1104 1.07449 16.6932 15.0937
477 1 -1.1104 3.85989 14.0293 18.0088
478 1 -1.1104 3.86094 19.5337 17.9091
479 2 2.2208 2.41096 18.0887 19.3458
480 1 -1.1104 3.75046 13.9818 15.041
482 1 -1.1104 3.7848 19.4145 15.1375
484 2 2.2208 2.29642 15.2784 16.466
485 2 2.2208 2.4797 20.7973 16.4249
486 1 -1.1104 3.75869 16.7144 17.9313
487 1 -1.1104 3.79601 16.7696 15.1225
475 1 -1.1104 6.69108 16.8345 14.9966
460 1 -1.1104 6.55083 19.5229 17.7499
488 1 -1.1104 3.73568 16.823 20.7304
465 1 -1.1104 6.43774 14.1396 15.1983
467 1 -1.1104 6.54071 19.6978 14.8984
462 1 -1.1104 1.05839 13.8895 20.6576
464 1 -1.1104 1.0373 19.4589 20.5897
550 2 2.2208 13.496 12.5174 13.6681
468 1 -1.1104 6.64264 19.6273 20.5487
483 1 -1.1104 3.84882 19.6345 20.6585
688 2 2.2208 13.6476 1.30991 19.2849
674 1 -1.1104 9.46829 19.4197 26.3831
681 2 2.2208 10.8617 20.9926 24.8494
459 1 -1.1104 6.86304 13.8715 17.9147
470 1 -1.1104 6.62173 16.6099 17.8482
498 1 -1.1104 12.3869 19.5356 20.8342
384 2 2.2208 13.5952 18.0407 19.3665
492 2 2.2208 10.7657 18.0381 16.6362
493 1 -1.1104 12.0703 13.8733 17.8666
494 1 -1.1104 12.2871 19.5492 17.9687
495 1 -1.1104 12.0341 13.7669 14.8998
497 1 -1.1104 12.0707 19.7064 15.1647
499 1 -1.1104 12.2937 16.7095 17.8463
500 2 2.2208 10.721 15.2018 19.3026
501 2 2.2208 10.8805 20.9863 19.2633
502 1 -1.1104 12.1005 16.5841 15.1875
504 1 -1.1104 9.41681 13.8427 17.7634
505 1 -1.1104 9.33456 19.4927 17.9232
506 2 2.2208 8.0077 18.085 19.2425
507 1 -1.1104 9.18681 13.8321 15.0718
509 1 -1.1104 9.33683 19.5449 15.1488
511 2 2.2208 8.02772 15.3553 16.4777
512 2 2.2208 7.8189 20.894 16.3067
513 1 -1.1104 9.42533 16.6884 17.911
514 1 -1.1104 9.39267 16.7846 15.02
496 1 -1.1104 12.0864 13.8344 20.6825
476 1 -1.1104 6.65075 16.8225 20.7032
503 1 -1.1104 12.2529 16.6769 20.6266
671 1 -1.1104 9.50479 16.8579 23.3295
329 1 -1.1104 6.44729 2.59671 20.6708
349 1 -1.1104 3.73512 -0.171003 20.8154
356 2 2.2208 13.6444 20.8229 16.6061
335 1 -1.1104 0.89863 0.0407452 20.7386
323 1 -1.1104 0.921806 -2.79623 20.8232
327 1 -1.1104 6.51266 -2.85936 20.6538
337 1 -1.1104 6.53413 -0.134706 20.709
344 1 -1.1104 3.68281 2.633 20.7054
520 2 2.2208 5.1283 1.29039 22.1323
521 1 -1.1104 0.859623 -2.92076 23.5611
522 1 -1.1104 0.945882 2.6655 23.5702
525 1 -1.1104 1.03356 -3.02415 26.2815
526 1 -1.1104 1.11672 2.64775 26.3231
529 1 -1.1104 0.910224 -0.0784779 23.5569
531 2 2.2208 5.1065 -1.51627 24.894
532 2 2.2208 5.19893 3.97885 24.9925
533 1 -1.1104 0.983036 -0.221588 26.3666
535 1 -1.1104 3.68194 -2.99972 23.3865
536 1 -1.1104 3.73474 2.60824 23.5938
537 2 2.2208 2.47665 1.23265 25.0659
538 1 -1.1104 3.8121 -2.92153 26.2949
539 1 -1.1104 3.77618 2.66738 26.4496
540 2 2.2208 2.2228 -1.44905 22.281
541 2 2.2208 2.34096 3.97316 22.177
542 1 -1.1104 3.77394 -0.176183 23.6256
543 1 -1.1104 3.68011 -0.165395 26.2952
528 1 -1.1104 6.57739 2.55682 26.408
534 1 -1.1104 6.51157 -0.183563 26.3408
530 1 -1.1104 6.52287 -0.1833 23.3409
527 1 -1.1104 6.49625 -2.9039 26.3166
523 1 -1.1104 6.56186 -2.8213 23.4082
524 1 -1.1104 6.62184 2.61958 23.6539
673 2 2.2208 8.06276 15.2287 22.2979
675 1 -1.1104 9.46232 13.9357 26.3079
669 1 -1.1104 12.2573 19.546 23.4755
371 1 -1.1104 12.2925 -0.0896001 20.8416
376 1 -1.1104 9.36786 -2.86126 20.763
683 1 -1.1104 12.2222 16.7281 23.5699
574 2 2.2208 10.7068 1.16023 27.6743
366 1 -1.1104 12.2031 2.61627 20.6559
556 2 2.2208 10.8735 1.11377 22.1921
557 1 -1.1104 12.2251 -2.96607 23.7016
558 1 -1.1104 12.2368 2.64674 23.4988
559 1 -1.1104 12.1173 -2.89189 26.4012
560 1 -1.1104 12.0526 2.64554 26.3084
561 1 -1.1104 12.1864 -0.114327 23.628
562 2 2.2208 10.8601 -1.53787 25.0271
563 2 2.2208 10.7842 3.97768 24.832
564 1 -1.1104 12.2848 -0.0380926 26.4201
565 1 -1.1104 9.31503 -2.88859 23.522
566 1 -1.1104 9.39346 2.59596 23.4839
567 2 2.2208 7.9833 1.2739 24.9526
568 1 -1.1104 9.42711 -2.82052 26.3217
569 1 -1.1104 9.32521 2.66701 26.1794
570 2 2.2208 7.87121 -1.5349 22.0867
571 2 2.2208 7.99986 4.01401 22.1611
572 1 -1.1104 9.40212 -0.103434 23.6012
573 1 -1.1104 9.41167 -0.119421 26.2423
677 2 2.2208 8.10737 18.1212 25.0748
418 1 -1.1104 3.62575 8.35267 20.7735
409 1 -1.1104 1.09552 11.1213 20.7515
413 1 -1.1104 6.57417 11.1458 20.5803
585 2 2.2208 5.18068 6.89351 22.165
586 2 2.2208 5.09085 12.4623 22.1747
587 1 -1.1104 0.997813 8.27392 23.7118
589 1 -1.1104 0.94572 8.30455 26.6238
591 1 -1.1104 0.802619 5.47677 23.5351
592 1 -1.1104 0.789442 11.1099 23.5696
595 2 2.2208 5.05214 9.55354 24.9824
596 1 -1.1104 0.918136 5.4349 26.2873
597 1 -1.1104 0.957051 11.094 26.2925
600 1 -1.1104 3.74106 8.17703 23.5788
601 2 2.2208 2.36101 6.86801 24.9996
602 2 2.2208 2.42611 12.4986 25.0377
603 1 -1.1104 3.65568 8.3711 26.3748
604 2 2.2208 2.33479 9.68567 22.1801
605 1 -1.1104 3.74887 5.27159 23.4195
606 1 -1.1104 3.68667 11.1413 23.4107
607 1 -1.1104 3.79377 5.50636 26.3105
608 1 -1.1104 3.73919 11.0428 26.3812
599 1 -1.1104 6.6657 11.0099 26.331
588 1 -1.1104 6.47569 8.16114 23.5185
598 1 -1.1104 6.56751 5.37564 26.4618
590 1 -1.1104 6.60226 8.15348 26.2398
411 1 -1.1104 6.6003 5.41476 20.7218
593 1 -1.1104 6.54023 5.30911 23.521
438 1 -1.1104 12.0261 5.45521 20.7063
672 2 2.2208 7.97315 20.9197 22.0147
685 1 -1.1104 12.1525 13.9024 26.4085
594 1 -1.1104 6.51887 10.9875 23.4259
639 2 2.2208 13.5674 6.76451 24.9244
445 1 -1.1104 9.30849 8.35044 20.6464
433 1 -1.1104 12.1075 8.35174 20.6311
616 1 -1.1104 9.31066 11.1002 26.3896
617 1 -1.1104 9.33931 5.30213 26.2041
618 1 -1.1104 9.27062 11.0086 23.5159
619 1 -1.1104 9.40995 5.463 23.4443
620 2 2.2208 7.92408 9.68849 22.0895
621 1 -1.1104 9.32564 8.12856 26.1624
622 2 2.2208 7.96202 12.453 24.9373
623 2 2.2208 7.8706 6.77447 24.8414
624 2 2.2208 10.6638 6.90982 22.1009
625 2 2.2208 10.8588 12.433 22.1881
626 1 -1.1104 12.1202 8.14339 23.446
627 1 -1.1104 12.1692 8.24915 26.1584
628 1 -1.1104 12.1599 5.42941 23.5191
629 1 -1.1104 12.1722 10.9427 23.5055
630 2 2.2208 10.7368 9.50585 24.9285
631 1 -1.1104 12.1764 5.39768 26.3295
632 1 -1.1104 12.039 11.1821 26.3069
633 1 -1.1104 9.19768 8.34194 23.3863
351 2 2.2208 13.5556 9.54645 22.1874
9178 2 2.2208 13.6036 12.4433 24.9871
553 2 2.2208 10.7863 18.2871 21.9606
684 1 -1.1104 12.2013 19.4856 26.2256
481 1 -1.1104 3.87866 13.8776 20.8482
466 1 -1.1104 6.65118 13.8288 20.8567
680 1 -1.1104 12.2018 16.7205 26.2525
678 1 -1.1104 9.3741 19.5123 23.5017
474 1 -1.1104 0.82869 16.6464 20.7346
658 1 -1.1104 6.72861 16.5522 23.5607
643 1 -1.1104 6.71501 16.7025 26.356
676 1 -1.1104 6.75303 19.5818 26.3756
647 1 -1.1104 6.63862 19.5036 23.5749
646 1 -1.1104 0.931578 13.9323 26.248
648 2 2.2208 5.1797 20.9991 24.9141
662 2 2.2208 2.38281 15.3827 22.1984
661 2 2.2208 2.32498 20.927 21.977
660 1 -1.1104 3.77207 16.8003 23.5312
659 1 -1.1104 0.922648 16.8342 23.5725
657 1 -1.1104 3.72547 13.8425 26.5874
656 1 -1.1104 3.85234 16.6286 26.2514
655 2 2.2208 2.46571 18.1913 24.8299
654 1 -1.1104 3.91889 19.4899 26.1229
653 2 2.2208 5.32601 18.2954 22.0945
652 1 -1.1104 0.939952 13.9031 23.5725
651 1 -1.1104 0.938023 19.4645 23.4606
649 2 2.2208 5.17353 15.3754 24.8682
640 1 -1.1104 3.82689 19.5429 23.3543
642 1 -1.1104 3.77892 13.9515 23.6045
644 1 -1.1104 0.865422 19.5852 26.3842
645 1 -1.1104 1.15581 16.6919 26.264
650 1 -1.1104 6.52249 13.7833 23.5948
641 1 -1.1104 6.41351 14.0192 26.3677
682 2 2.2208 10.9001 15.4129 24.9779
515 1 -1.1104 9.62537 16.8276 20.5785
510 1 -1.1104 9.43728 19.5801 20.632
508 1 -1.1104 9.41242 14.0224 20.7186
670 1 -1.1104 9.5158 16.7445 26.254
552 2 2.2208 8.01091 21.0263 27.6849
637 1 -1.1104 12.1935 13.7419 23.5685
519 2 2.2208 13.4846 18.1408 13.6399
686 2 2.2208 13.4482 3.9754 16.538
453 2 2.2208 7.93893 6.81826 13.702
489 2 2.2208 2.34087 18.1944 13.7955
579 2 2.2208 13.5858 6.97054 13.8126
636 2 2.2208 10.7675 12.4949 27.6406
635 2 2.2208 8.0412 9.69986 27.6462
576 2 2.2208 8.06978 3.96601 27.6212
634 2 2.2208 10.7994 6.68867 27.5862
353 2 2.2208 13.6896 15.3971 27.6598
667 2 2.2208 -0.39174 18.13 27.6236
516 2 2.2208 10.7693 21.0619 13.732
9221 2 2.2208 13.587 20.7595 27.6616
584 2 2.2208 13.6441 3.90669 27.6472
547 2 2.2208 8.11326 15.3168 27.6946
391 2 2.2208 10.8804 -1.5992 13.7799
357 2 2.2208 5.06001 -1.45341 13.7529
454 2 2.2208 10.6528 9.58525 13.7306
427 2 2.2208 5.03423 9.58518 13.755
687 2 2.2208 13.5898 1.38428 13.7927
689 2 2.2208 5.1667 23.6944 5.11
690 2 2.2208 5.39496 29.3166 5.26624
691 1 -1.1104 0.977811 25.1732 0.96535
692 1 -1.1104 1.13315 25.1019 3.8891
693 1 -1.1104 1.0535 22.323 1.05365
694 1 -1.1104 1.15464 28.0648 1.23201
695 2 2.2208 5.40494 26.7312 2.41567
696 1 -1.1104 1.01565 22.3539 3.87628
697 1 -1.1104 1.15172 28.0372 3.95523
698 1 -1.1104 3.8608 25.4054 1.10177
699 2 2.2208 2.40273 23.7715 2.4367
700 2 2.2208 2.42429 29.3748 2.517
701 1 -1.1104 3.87605 25.0244 3.72656
702 2 2.2208 2.55755 26.4932 5.20575
703 1 -1.1104 3.72656 22.456 0.924328
704 1 -1.1104 3.90006 28.176 1.00743
705 1 -1.1104 3.72731 22.2778 3.76026
706 1 -1.1104 3.89632 27.8503 3.82863
714 1 -1.1104 6.47201 22.3404 3.76942
715 1 -1.1104 6.66074 27.9447 3.85241
713 1 -1.1104 6.76346 28.0145 0.991745
710 1 -1.1104 6.61792 25.2452 1.1114
711 1 -1.1104 6.59844 25.2417 3.88687
1546 1 -1.1104 3.77086 47.7573 12.335
712 1 -1.1104 6.48895 22.4958 1.14161
9950 2 2.2208 -0.355682 32.1721 13.6448
837 1 -1.1104 3.83424 22.1923 6.58581
834 1 -1.1104 6.6778 22.3512 6.59748
9705 2 2.2208 13.7058 37.7672 10.8045
9810 2 2.2208 13.6188 35.0803 2.4655
716 2 2.2208 10.8789 23.6864 5.31991
717 2 2.2208 10.8264 29.4009 5.342
718 1 -1.1104 12.2165 25.1426 1.09501
719 1 -1.1104 12.3351 25.0365 3.81213
720 1 -1.1104 12.246 22.2769 1.00759
721 1 -1.1104 12.273 28.0137 1.12188
722 2 2.2208 10.7704 26.4742 2.4411
723 1 -1.1104 12.0891 22.3182 3.80733
724 1 -1.1104 12.1848 27.9048 4.09703
725 1 -1.1104 9.4218 25.1493 1.0797
726 2 2.2208 7.91432 23.8077 2.56111
727 2 2.2208 8.40743 29.4953 2.35031
728 1 -1.1104 9.44601 25.1199 3.8406
729 2 2.2208 8.15369 26.5053 5.18014
730 1 -1.1104 9.38904 22.4537 0.985361
731 1 -1.1104 9.60738 28.0616 1.11502
732 1 -1.1104 9.22474 22.2405 3.84696
733 1 -1.1104 9.48717 27.8722 3.75477
990 2 2.2208 10.9078 29.4802 -0.34428
760 2 2.2208 -0.314704 37.7718 2.35933
866 1 -1.1104 9.63853 25.0407 6.63855
863 1 -1.1104 12.4383 25.1782 6.86901
868 1 -1.1104 9.71358 27.8646 6.62211
736 1 -1.1104 9.5432 44.8577 6.58398
737 2 2.2208 5.18196 34.9837 5.34153
738 1 -1.1104 1.07786 30.8258 1.0577
739 1 -1.1104 0.995721 36.3658 0.839078
741 1 -1.1104 1.0655 30.7177 3.81822
742 1 -1.1104 1.03642 36.2978 3.86798
744 1 -1.1104 0.948567 33.5667 0.918516
745 2 2.2208 5.33858 32.1775 2.40144
746 2 2.2208 5.24194 37.7952 2.36584
747 1 -1.1104 1.22307 33.5304 3.66395
749 1 -1.1104 3.83165 30.8179 0.999729
750 1 -1.1104 3.78157 36.5522 1.00852
751 2 2.2208 2.48474 34.9859 2.44148
752 1 -1.1104 3.97551 30.7515 3.76429
753 1 -1.1104 3.81711 36.2867 3.91693
754 2 2.2208 2.48302 32.1136 5.14583
755 2 2.2208 2.36483 37.7181 5.29461
756 1 -1.1104 3.86755 33.6308 1.11627
757 1 -1.1104 3.97853 33.4272 3.75149
748 1 -1.1104 6.75018 33.5634 3.85413
762 1 -1.1104 6.81825 30.8203 3.79625
761 1 -1.1104 6.91871 30.89 1.00396
886 1 -1.1104 1.20258 33.5929 6.53937
743 1 -1.1104 6.75726 36.4497 3.94007
887 1 -1.1104 6.69593 33.7649 6.71816
885 1 -1.1104 6.51698 36.5775 6.65192
888 1 -1.1104 3.732 30.6569 6.48814
740 1 -1.1104 6.60665 36.3634 0.865173
763 1 -1.1104 6.77265 33.5139 1.16744
9685 2 2.2208 -0.264511 26.624 8.01106
764 2 2.2208 10.8562 35.0848 5.34345
765 1 -1.1104 12.366 30.872 1.21357
766 1 -1.1104 12.1485 36.4615 1.13022
767 1 -1.1104 12.2796 30.6583 4.10924
768 1 -1.1104 12.2183 36.546 3.92966
769 1 -1.1104 12.4374 33.7872 1.05698
770 2 2.2208 11.0054 32.3343 2.4923
771 2 2.2208 10.8768 37.9149 2.49747
772 1 -1.1104 12.3539 33.5909 3.9005
773 1 -1.1104 9.66365 30.9704 1.01962
774 1 -1.1104 9.48713 36.4482 1.00573
775 2 2.2208 8.08712 35.0169 2.54451
776 1 -1.1104 9.53903 30.8362 3.83346
777 1 -1.1104 9.43275 36.588 3.81623
778 2 2.2208 8.10948 32.2219 5.26574
779 2 2.2208 8.05441 37.8629 5.2821
780 1 -1.1104 9.60109 33.7618 1.20424
781 1 -1.1104 9.56906 33.726 3.93645
9804 2 2.2208 -0.306478 23.6783 5.30534