ITEM: TIMESTEP
90000
ITEM: NUMBER OF ATOMS
17640
ITEM: BOX BOUNDS pp pp pp
-3.5823721120001373e-01 2.7698237211200272e+01
-4.2455091482370779e+00 3.3232550914823793e+02
-3.6880124935082897e-01 2.7708801249351989e+01
ITEM: ATOMS id type q x y z
1 2 2.2208 5.35955 1.26248 5.27359
2 1 -1.1104 0.912918 -2.93543 1.11237
3 1 -1.1104 1.01907 2.82278 0.993183
6 1 -1.1104 1.06513 -2.88501 4.01085
7 1 -1.1104 1.0764 2.70247 3.82686
10 1 -1.1104 1.15789 -0.128692 1.14441
12 2 2.2208 5.25695 -1.60434 2.43078
13 2 2.2208 5.41232 4.11133 2.61711
14 1 -1.1104 1.12129 -0.130153 3.99155
16 1 -1.1104 3.59585 -2.8591 1.00211
17 1 -1.1104 3.89059 2.80685 1.14361
18 2 2.2208 2.46485 1.27595 2.51827
19 1 -1.1104 3.82756 -2.93508 3.92898
20 1 -1.1104 3.8722 2.69573 3.96254
21 2 2.2208 2.51089 -1.48726 5.34049
22 2 2.2208 2.51093 4.19158 5.18134
23 1 -1.1104 3.91391 -0.129502 1.15011
24 1 -1.1104 3.80978 -0.0897747 3.97388
167 1 -1.1104 1.07654 2.82943 6.62224
11 1 -1.1104 6.68594 -0.127921 1.10593
169 1 -1.1104 6.89172 2.81767 6.53354
545 2 2.2208 2.34801 -1.52398 -0.340465
8452 2 2.2208 2.42226 -4.13401 8.08868
544 2 2.2208 5.26199 1.3308 -0.328803
5 1 -1.1104 6.62964 2.78641 1.08336
4 1 -1.1104 6.63608 -3.0111 1.06657
9 1 -1.1104 6.89063 2.80176 3.78955
15 1 -1.1104 6.67013 -0.0684042 3.81417
8 1 -1.1104 6.66068 -2.84635 3.93677
31 2 2.2208 10.8943 1.32171 5.41204
32 1 -1.1104 12.3316 -2.87666 1.25605
33 1 -1.1104 12.2543 2.57393 1.21738
34 1 -1.1104 12.4062 -2.92355 3.98186
35 1 -1.1104 12.3231 2.76896 4.00938
36 1 -1.1104 12.2292 -0.223497 1.15675
37 2 2.2208 10.893 -1.47816 2.59436
38 2 2.2208 10.8208 4.16148 2.64203
39 1 -1.1104 12.0899 -0.0773582 4.02916
40 1 -1.1104 9.44773 -2.97671 1.01335
41 1 -1.1104 9.53376 2.75915 1.28832
42 2 2.2208 8.09167 1.30494 2.44618
43 1 -1.1104 9.48629 -2.832 3.77808
44 1 -1.1104 9.50905 2.80962 4.02451
45 2 2.2208 8.10825 -1.46963 5.22943
46 2 2.2208 8.12512 4.22851 5.32415
47 1 -1.1104 9.45532 -0.128582 1.09602
48 1 -1.1104 9.45757 -0.0616336 3.78709
574 2 2.2208 10.7962 1.2896 -0.267174
8449 2 2.2208 5.2963 -4.22975 5.30061
137 2 2.2208 -0.281754 18.1037 5.25032
209 1 -1.1104 9.52918 2.90171 6.75735
575 2 2.2208 8.18683 -1.49596 -0.389848
576 2 2.2208 7.98914 4.14334 -0.246995
54 2 2.2208 5.34923 7.01106 5.40338
55 2 2.2208 5.29436 12.5797 5.31767
56 1 -1.1104 0.878877 8.46678 1.09084
58 1 -1.1104 1.0808 8.26702 3.81735
60 1 -1.1104 1.00131 5.6011 1.11975
61 1 -1.1104 1.10203 11.1666 1.01996
66 2 2.2208 5.24027 9.75343 2.65603
67 1 -1.1104 1.19595 5.51473 3.98226
68 1 -1.1104 1.08804 11.1692 3.8821
71 1 -1.1104 3.79345 8.30417 1.27135
72 2 2.2208 2.54536 6.87819 2.54054
73 2 2.2208 2.451 12.4408 2.55516
74 1 -1.1104 3.80781 8.2618 4.00983
75 2 2.2208 2.37829 9.68309 5.3696
76 1 -1.1104 3.81556 5.49882 1.17289
77 1 -1.1104 4.01491 11.0809 1.07188
79 1 -1.1104 3.89568 5.51684 3.88968
80 1 -1.1104 3.83922 11.036 3.94989
59 1 -1.1104 6.70984 8.48268 3.94607
69 1 -1.1104 6.74201 5.48123 4.08167
78 1 -1.1104 3.73505 11.1951 6.73567
70 1 -1.1104 6.59979 11.2179 3.96388
64 1 -1.1104 6.65888 11.3223 1.22085
63 1 -1.1104 6.55876 5.60633 1.19379
52 2 2.2208 13.5236 7.02258 8.32804
234 1 -1.1104 1.03192 8.43164 6.6751
239 1 -1.1104 3.96997 5.56665 6.69688
610 2 2.2208 2.41144 9.74867 -0.320231
634 2 2.2208 10.71 6.88823 -0.269825
9148 2 2.2208 -0.379936 1.29098 5.35645
65 1 -1.1104 6.59498 11.2576 6.73956
57 1 -1.1104 6.6132 8.37827 1.2377
84 2 2.2208 10.9412 6.98 5.37368
85 2 2.2208 10.9739 12.4983 5.42031
86 1 -1.1104 12.3289 8.5149 1.24472
87 1 -1.1104 12.2772 8.42522 4.2654
88 1 -1.1104 12.0493 5.44377 0.995916
89 1 -1.1104 12.2239 11.2204 1.00193
91 2 2.2208 10.798 9.83971 2.56717
92 1 -1.1104 12.3056 5.56906 3.8233
93 1 -1.1104 12.0965 11.1101 3.90432
94 1 -1.1104 9.52354 8.36385 1.22509
95 2 2.2208 8.01712 7.06759 2.5591
96 2 2.2208 8.09504 12.7423 2.56522
97 1 -1.1104 9.39164 8.49471 3.87812
98 2 2.2208 8.08679 9.77261 5.2617
99 1 -1.1104 9.30531 5.54298 1.24449
100 1 -1.1104 9.35512 11.1332 1.09662
102 1 -1.1104 9.57809 5.65985 3.96574
103 1 -1.1104 9.37622 11.297 3.91663
101 1 -1.1104 9.49858 11.1968 6.61185
266 1 -1.1104 12.1947 5.59015 6.92709
288 1 -1.1104 6.66009 19.6102 9.62371
9151 2 2.2208 13.5983 1.25022 2.54825
106 2 2.2208 5.19549 18.203 5.37561
107 1 -1.1104 1.02529 13.8726 1.19061
109 1 -1.1104 0.882169 19.5813 1.19141
113 1 -1.1104 1.19491 14.0301 4.0426
114 1 -1.1104 1.05326 19.5036 3.9792
116 1 -1.1104 1.10229 16.7118 1.19718
119 2 2.2208 5.22098 15.2816 2.56703
120 2 2.2208 5.16487 20.8853 2.48084
121 1 -1.1104 0.967011 16.6259 4.02574
123 1 -1.1104 3.80835 13.9767 1.14515
125 1 -1.1104 3.73185 19.4821 1.17207
127 2 2.2208 2.4654 18.0811 2.62255
128 1 -1.1104 3.98252 13.863 3.88662
129 1 -1.1104 3.8613 19.529 4.14792
130 2 2.2208 2.48481 15.2653 5.39878
131 2 2.2208 2.38344 20.9387 5.37049
132 1 -1.1104 3.90077 16.745 1.31213
134 1 -1.1104 3.73037 16.7716 4.09822
302 1 -1.1104 0.996847 19.5142 6.6895
115 1 -1.1104 6.70258 13.9833 4.04304
133 1 -1.1104 3.86263 16.6802 6.84029
138 1 -1.1104 6.64104 19.4937 1.04438
118 1 -1.1104 6.57001 16.8739 6.79889
110 1 -1.1104 6.60588 14.0384 1.28283
289 1 -1.1104 6.6645 16.9367 9.65165
108 1 -1.1104 1.05238 13.9089 6.75417
111 1 -1.1104 6.66824 13.9912 6.87136
156 1 -1.1104 9.48236 19.6327 6.76922
154 1 -1.1104 9.47048 13.9616 6.65802
297 1 -1.1104 6.64533 13.9201 12.5325
122 1 -1.1104 6.41384 16.645 4.06419
112 1 -1.1104 6.65927 19.572 6.67913
140 1 -1.1104 6.79681 16.7828 1.05041
139 1 -1.1104 6.66061 19.6459 3.88903
163 1 -1.1104 9.37284 16.9686 6.75096
141 2 2.2208 10.7928 18.1761 5.40892
142 1 -1.1104 12.2907 13.9066 1.01512
144 1 -1.1104 12.4114 19.5951 1.07792
146 1 -1.1104 12.378 13.8309 3.87332
147 1 -1.1104 12.4001 19.4998 4.04658
148 1 -1.1104 12.4071 16.6702 0.999112
150 2 2.2208 10.9712 15.3692 2.46279
151 2 2.2208 10.9221 20.9984 2.54976
152 1 -1.1104 12.2806 16.6416 3.97729
153 1 -1.1104 9.52404 13.995 1.26571
155 1 -1.1104 9.59288 19.491 1.24828
157 2 2.2208 8.02359 18.2313 2.60078
158 1 -1.1104 9.50645 14.0479 3.97213
159 1 -1.1104 9.501 19.5263 3.95894
160 2 2.2208 8.04441 15.4129 5.43502
161 2 2.2208 8.126 20.9324 5.29676
162 1 -1.1104 9.68153 16.7042 1.08159
164 1 -1.1104 9.33023 16.7925 4.00531
149 1 -1.1104 12.3554 16.8249 6.80325
143 1 -1.1104 12.4207 13.9671 6.79277
306 1 -1.1104 6.54229 16.6726 12.3978
166 1 -1.1104 0.905588 -2.81055 6.61177
547 2 2.2208 8.04779 15.4465 -0.19132
609 2 2.2208 5.24258 7.05032 -0.157908
548 2 2.2208 10.9249 18.1605 -0.281305
9087 2 2.2208 -0.217009 6.88174 10.9559
232 1 -1.1104 9.58195 19.6477 9.62397
174 1 -1.1104 3.86794 -0.0776417 6.73107
168 1 -1.1104 6.55526 -2.73484 6.81913
171 1 -1.1104 6.70503 0.0612252 6.62853
172 1 -1.1104 3.84402 -2.90995 6.64612
173 1 -1.1104 3.98374 2.78361 6.67679
170 1 -1.1104 1.10208 0.0954907 6.83674
175 2 2.2208 5.22306 1.49213 10.9494
176 1 -1.1104 0.847184 -2.81048 12.1969
177 1 -1.1104 1.09666 2.7362 12.313
180 1 -1.1104 1.08969 -2.6524 9.35213
181 1 -1.1104 1.31621 2.96911 9.36701
184 1 -1.1104 1.00507 0.0413694 12.3436
186 2 2.2208 5.23922 -1.33145 8.15974
187 2 2.2208 5.20636 4.12592 8.13535
188 1 -1.1104 1.02399 0.178487 9.68315
190 1 -1.1104 3.75509 -2.70761 12.4314
191 1 -1.1104 3.86297 2.89535 12.2919
192 2 2.2208 2.5044 1.41728 8.0314
193 1 -1.1104 3.76881 -2.7602 9.53078
194 1 -1.1104 4.08095 2.76386 9.44252
195 2 2.2208 2.43268 -1.37182 10.945
196 2 2.2208 2.49429 4.23232 10.8887
197 1 -1.1104 3.75775 -0.00948735 12.2975
198 1 -1.1104 3.80972 0.0398391 9.59932
189 1 -1.1104 6.59107 0.0303806 9.48955
185 1 -1.1104 6.61516 0.0686933 12.3878
82 1 -1.1104 12.2881 16.9142 12.4192
205 1 -1.1104 12.3092 -2.78944 6.79595
165 2 2.2208 13.6412 18.1019 2.56351
312 1 -1.1104 9.4505 14.0481 9.45312
182 1 -1.1104 6.46116 -2.77688 9.62406
316 2 2.2208 8.19789 20.9738 11.0263
210 1 -1.1104 9.58499 0.0166543 6.80776
208 1 -1.1104 9.24055 -2.82188 6.64499
179 1 -1.1104 6.58996 2.80007 12.2477
207 1 -1.1104 12.2341 -0.103128 6.73993
206 1 -1.1104 12.4491 2.74596 6.6795
178 1 -1.1104 6.43968 -2.8818 12.4787
183 1 -1.1104 6.89033 2.80498 9.55363
211 2 2.2208 10.7638 1.4252 10.9288
212 1 -1.1104 12.2408 -3.00757 12.3661
213 1 -1.1104 12.2232 2.64059 12.3493
214 1 -1.1104 12.1279 -2.8788 9.57965
215 1 -1.1104 12.3484 2.7809 9.43276
216 1 -1.1104 12.1247 -0.167082 12.4643
217 2 2.2208 10.8024 -1.33701 8.20474
218 2 2.2208 10.8645 4.24791 8.22767
219 1 -1.1104 12.17 0.0138226 9.60276
220 1 -1.1104 9.09101 -2.86914 12.2383
221 1 -1.1104 9.40574 2.79349 12.3948
222 2 2.2208 8.13988 1.41989 8.08655
223 1 -1.1104 9.47669 -2.81474 9.38132
224 1 -1.1104 9.63025 2.96531 9.72128
225 2 2.2208 7.92077 -1.39537 10.894
226 2 2.2208 7.95864 4.26402 11.1401
227 1 -1.1104 9.47661 -0.104252 12.3247
228 1 -1.1104 9.31952 0.0624473 9.65902
81 1 -1.1104 12.2392 19.4902 9.57693
62 1 -1.1104 0.95313 11.178 6.79976
546 2 2.2208 2.47885 4.10237 -0.271677
238 1 -1.1104 4.02751 8.54727 6.79473
236 1 -1.1104 1.04701 5.74883 6.73672
240 2 2.2208 5.18226 6.96706 10.991
241 2 2.2208 5.3058 12.5652 11.0162
242 1 -1.1104 1.11168 8.33159 12.3889
244 1 -1.1104 0.950105 8.35899 9.44236
246 1 -1.1104 1.13746 5.63759 12.34
247 1 -1.1104 0.988062 11.2503 12.3528
250 2 2.2208 5.28224 9.89182 8.13527
251 1 -1.1104 1.05894 5.71061 9.50238
252 1 -1.1104 0.907728 11.1594 9.60593
255 1 -1.1104 3.84362 8.30004 12.3756
256 2 2.2208 2.47434 6.99237 8.08037
257 2 2.2208 2.49028 12.5726 8.09974
258 1 -1.1104 3.77823 8.55424 9.50033
259 2 2.2208 2.36378 9.74673 10.9628
260 1 -1.1104 3.91627 5.56093 12.3347
261 1 -1.1104 3.81546 11.2335 12.3517
262 1 -1.1104 3.75653 5.69431 9.72538
263 1 -1.1104 3.96394 11.202 9.58049
249 1 -1.1104 6.75108 11.1267 12.4406
237 1 -1.1104 6.66349 5.60643 6.90206
245 1 -1.1104 6.47821 8.48669 9.54378
253 1 -1.1104 6.51561 5.51313 9.71228
8450 2 2.2208 8.00702 -4.27536 2.46132
269 1 -1.1104 9.48492 5.75511 6.65961
90 1 -1.1104 12.2097 11.167 6.97948
265 1 -1.1104 12.2852 8.28991 6.89032
315 1 -1.1104 9.47612 16.9432 12.4771
235 1 -1.1104 6.81364 8.40337 6.77988
254 1 -1.1104 6.78702 11.3535 9.51505
243 1 -1.1104 6.69352 8.42057 12.4256
267 1 -1.1104 9.50945 8.34225 6.66768
248 1 -1.1104 6.73627 5.65489 12.42
264 1 -1.1104 9.59724 11.1092 9.41672
268 1 -1.1104 9.42476 5.70867 9.45427
270 1 -1.1104 9.66956 11.254 12.2991
271 1 -1.1104 9.47961 5.61395 12.3938
272 2 2.2208 8.0448 9.87879 10.8777
273 1 -1.1104 9.22865 8.38888 9.41044
274 2 2.2208 8.1392 12.5425 8.06228
275 2 2.2208 8.0933 7.06622 8.08718
276 2 2.2208 10.748 6.90356 10.9634
277 2 2.2208 10.8758 12.5553 10.9431
278 1 -1.1104 12.2159 8.09704 12.2789
279 1 -1.1104 12.0437 8.37255 9.57759
280 1 -1.1104 12.2157 5.40759 12.4768
281 1 -1.1104 12.3272 11.0805 12.4391
282 2 2.2208 10.8907 9.68616 8.08614
283 1 -1.1104 12.242 5.6873 9.78935
284 1 -1.1104 12.3452 11.1453 9.5811
285 1 -1.1104 9.37393 8.32596 12.3184
8451 2 2.2208 10.8047 -4.31118 5.27056
126 1 -1.1104 3.84054 19.5623 6.91793
117 1 -1.1104 1.21954 16.5907 6.76421
9152 2 2.2208 13.651 -1.45132 5.30419
310 2 2.2208 2.53619 15.4203 11.001
124 1 -1.1104 3.98569 13.8379 6.80424
290 1 -1.1104 6.81891 14.1195 9.58079
309 2 2.2208 2.43429 20.8274 10.9345
286 1 -1.1104 3.84629 19.4682 12.3211
287 1 -1.1104 3.86726 14.0178 12.3893
291 1 -1.1104 1.00919 19.5974 9.37817
292 1 -1.1104 1.10087 16.8954 9.55522
293 2 2.2208 5.19627 20.8299 8.2201
294 1 -1.1104 1.05878 14.1287 9.74783
295 2 2.2208 5.19115 15.3941 8.3203
298 1 -1.1104 0.930298 19.6043 12.3162
299 1 -1.1104 1.0562 13.9861 12.4764
300 2 2.2208 5.28973 18.1296 11.0338
301 1 -1.1104 3.7856 19.3963 9.62973
303 2 2.2208 2.48569 18.1251 8.15422
304 1 -1.1104 3.86164 16.7828 9.66092
305 1 -1.1104 3.9147 13.846 9.6819
307 1 -1.1104 1.04939 16.8589 12.3347
308 1 -1.1104 3.81307 16.6536 12.6269
105 2 2.2208 10.7975 15.4929 8.07352
30 2 2.2208 10.9591 18.1812 10.8677
552 2 2.2208 8.02219 20.9523 -0.332437
29 2 2.2208 13.6183 9.73929 10.9948
9018 2 2.2208 -0.286929 21.0141 2.53371
233 2 2.2208 8.05896 15.4052 11.0429
200 1 -1.1104 9.39245 14.0231 12.2478
296 1 -1.1104 6.64546 19.6504 12.4186
53 1 -1.1104 12.206 14.0358 9.56221
314 1 -1.1104 9.53751 16.8921 9.51798
49 1 -1.1104 12.2144 13.9788 12.2654
50 1 -1.1104 12.3023 19.7911 12.3191
145 1 -1.1104 12.2382 19.6056 6.63071
201 1 -1.1104 9.62054 19.5076 12.5052
311 2 2.2208 8.07108 18.2158 8.1585
199 1 -1.1104 12.3504 16.6889 9.48244
136 2 2.2208 10.9086 20.986 8.06073
665 2 2.2208 2.4313 15.1766 -0.150532
9017 2 2.2208 -0.321946 4.16879 8.06195
230 2 2.2208 13.6662 -1.51131 10.9197
104 2 2.2208 13.6223 12.4404 2.52201
615 2 2.2208 -0.377682 6.89775 -0.230608
229 2 2.2208 13.7492 1.37501 8.10785
664 2 2.2208 5.21828 18.1384 -0.207931
8453 2 2.2208 5.13902 -4.24846 10.9894
26 2 2.2208 13.664 15.3538 10.957
25 2 2.2208 -0.190313 -1.43528 2.47804
8859 2 2.2208 -0.362515 20.9591 8.07329
9149 2 2.2208 -0.267922 4.09731 2.46978
83 2 2.2208 -0.281324 12.5402 5.40068
51 2 2.2208 13.6123 12.5648 8.24527
612 2 2.2208 -0.414538 12.5449 -0.265736
8992 2 2.2208 13.6434 4.11115 10.9614
9052 2 2.2208 13.636 6.98799 2.57457
581 2 2.2208 13.6725 -1.51721 -0.225938
427 2 2.2208 5.26573 9.7321 13.7487
584 2 2.2208 13.6034 4.0347 -0.214779
635 2 2.2208 8.01285 9.7278 -0.0757532
317 2 2.2208 5.30135 1.37059 16.5369
318 1 -1.1104 0.911255 -2.92038 18.0626
319 1 -1.1104 1.1009 2.78757 17.9146
322 1 -1.1104 0.953701 -2.86005 15.1416
324 1 -1.1104 1.10164 2.83114 15.1406
330 1 -1.1104 0.926563 -0.0617344 17.9157
332 2 2.2208 5.16083 -1.46797 19.4524
333 2 2.2208 5.27739 4.17051 19.4701
334 1 -1.1104 1.10465 -0.0210263 15.2688
338 1 -1.1104 3.80365 -2.83687 17.9066
339 1 -1.1104 4.0429 2.81997 17.9656
340 2 2.2208 2.46187 1.44774 19.3358
341 1 -1.1104 3.72155 -2.92888 15.2232
343 1 -1.1104 3.86833 2.79832 15.1552
345 2 2.2208 2.40467 -1.41376 16.5148
346 2 2.2208 2.44702 4.11491 16.5778
347 1 -1.1104 3.75016 0.00240511 17.8548
348 1 -1.1104 3.99805 0.0601339 15.2002
8829 2 2.2208 2.45216 -4.19398 13.7898
357 2 2.2208 5.30005 -1.26059 13.7886
391 2 2.2208 10.82 -1.4947 13.7327
8831 2 2.2208 10.7319 -4.08543 16.5487
358 2 2.2208 2.53974 1.47962 13.7465
335 1 -1.1104 1.1323 0.118965 20.7192
390 2 2.2208 8.04335 1.31438 13.8263
325 1 -1.1104 1.08486 2.94892 20.791
329 1 -1.1104 6.62268 2.74351 20.8314
8830 2 2.2208 13.4849 -4.21104 19.3616
359 2 2.2208 5.3386 4.29896 13.6687
680 1 -1.1104 12.4327 16.7916 26.2011
321 1 -1.1104 6.71405 2.82477 17.9874
328 1 -1.1104 6.70274 2.84726 15.0548
336 1 -1.1104 6.72853 0.00105786 15.2428
320 1 -1.1104 6.55157 -3.00005 17.9261
331 1 -1.1104 6.55836 -0.0355164 18.0772
517 2 2.2208 10.8492 15.4449 13.8513
326 1 -1.1104 6.53199 -2.89525 15.3665
360 2 2.2208 10.9124 1.40194 16.5373
361 1 -1.1104 12.1435 -2.80217 18.0244
362 1 -1.1104 12.1953 2.80555 18.0097
363 1 -1.1104 12.189 -2.69338 15.1165
365 1 -1.1104 12.245 2.79276 15.1129
367 1 -1.1104 12.3101 -0.0854409 18.0948
368 2 2.2208 10.8815 -1.41589 19.4476
369 2 2.2208 10.7776 4.13063 19.4467
370 1 -1.1104 12.3067 0.0574087 15.266
372 1 -1.1104 9.43693 -2.83025 18.0486
373 1 -1.1104 9.41477 2.71847 17.9342
374 2 2.2208 8.03536 1.39243 19.3561
375 1 -1.1104 9.37016 -2.88793 15.0294
377 1 -1.1104 9.45917 2.84874 15.2172
379 2 2.2208 8.07809 -1.51376 16.6223
380 2 2.2208 8.18353 4.29057 16.5005
381 1 -1.1104 9.45928 -0.0964464 17.959
382 1 -1.1104 9.401 -0.14926 15.1805
383 1 -1.1104 9.39534 -0.0102755 20.5898
392 2 2.2208 10.8332 4.12386 13.8316
577 2 2.2208 13.6614 7.00211 19.4891
9226 2 2.2208 -0.208883 4.12415 13.7771
378 1 -1.1104 9.48423 2.75577 20.7727
371 1 -1.1104 12.2078 0.111664 20.7816
376 1 -1.1104 9.40315 -3.01745 20.79
9371 2 2.2208 -0.305553 1.45929 16.5492
673 2 2.2208 8.14052 15.3545 22.3075
675 1 -1.1104 9.42124 14.1188 26.4744
683 1 -1.1104 12.2864 16.6791 23.5931
393 2 2.2208 5.23011 7.04153 16.649
394 2 2.2208 5.22161 12.4545 16.703
395 1 -1.1104 1.03169 8.17188 17.9377
397 1 -1.1104 0.846023 8.34752 15.1591
401 1 -1.1104 1.06164 5.57402 17.9339
402 1 -1.1104 1.09543 10.9208 18.1081
405 2 2.2208 5.36417 9.78006 19.3589
406 1 -1.1104 1.08079 5.60052 15.1276
408 1 -1.1104 1.04609 10.9754 15.1546
414 1 -1.1104 3.99311 8.29107 18.0462
415 2 2.2208 2.52241 6.96297 19.4069
416 2 2.2208 2.4381 12.401 19.3505
417 1 -1.1104 3.76136 8.41186 15.3036
419 2 2.2208 2.38319 9.81077 16.635
420 1 -1.1104 3.87366 5.52862 18.1279
421 1 -1.1104 3.82999 11.0552 18.0128
422 1 -1.1104 3.88392 5.59455 15.1551
424 1 -1.1104 3.77975 11.2363 15.1822
399 1 -1.1104 6.46464 8.28399 15.1688
404 1 -1.1104 6.65894 11.1424 17.9505
555 2 2.2208 -0.353348 4.20486 24.9898
398 1 -1.1104 1.0693 8.31077 20.7253
409 1 -1.1104 1.15318 11.0257 20.7471
396 1 -1.1104 6.78335 8.41553 17.9432
407 1 -1.1104 1.08145 5.62328 20.8504
425 1 -1.1104 3.90334 11.173 20.7983
423 1 -1.1104 3.86577 5.73754 20.9065
686 2 2.2208 13.6255 4.25834 16.7531
428 2 2.2208 2.49595 12.6171 13.7492
614 2 2.2208 -0.3379 12.4618 22.1844
412 1 -1.1104 6.73535 10.9978 15.1874
410 1 -1.1104 6.71991 5.66313 15.2738
403 1 -1.1104 6.72703 5.58474 18.027
429 2 2.2208 10.9106 7.06919 16.6693
430 2 2.2208 10.9302 12.6303 16.5647
431 1 -1.1104 12.3811 8.38107 18
432 1 -1.1104 12.2282 8.32498 15.1769
434 1 -1.1104 12.1791 5.6783 17.9875
435 1 -1.1104 12.4247 11.2685 17.9766
436 2 2.2208 10.9924 9.75567 19.4216
437 1 -1.1104 12.3103 5.54263 15.1891
439 1 -1.1104 12.3895 11.2523 15.1497
441 1 -1.1104 9.48068 8.56492 18.1751
442 2 2.2208 8.07214 6.94332 19.4234
443 2 2.2208 8.04583 12.4003 19.3715
444 1 -1.1104 9.37651 8.304 15.0959
446 2 2.2208 8.15531 9.80172 16.5663
447 1 -1.1104 9.48318 5.54731 18.0965
448 1 -1.1104 9.72278 11.2906 18.1179
449 1 -1.1104 9.50471 5.56141 15.3459
451 1 -1.1104 9.57894 10.9546 15.2024
452 1 -1.1104 9.54683 11.2136 20.7902
677 2 2.2208 8.10202 18.1565 24.9669
489 2 2.2208 2.43607 18.1482 13.7734
450 1 -1.1104 9.37941 5.55958 20.8125
453 2 2.2208 8.00511 7.06814 13.7054
8524 2 2.2208 10.7116 -4.30608 22.2125
583 2 2.2208 13.5604 1.36056 24.9194
352 2 2.2208 -0.304519 15.2943 19.4918
456 2 2.2208 5.21658 18.1656 16.5994
457 1 -1.1104 1.20623 13.9018 18.0149
458 1 -1.1104 1.05632 19.6226 17.9799
461 1 -1.1104 1.01167 13.9879 15.2509
463 1 -1.1104 1.12537 19.469 15.1362
469 1 -1.1104 1.02096 16.7958 17.9776
471 2 2.2208 5.21544 15.3466 19.3493
472 2 2.2208 5.30163 21.0339 19.3509
473 1 -1.1104 1.03858 16.7436 15.1778
477 1 -1.1104 3.93069 13.9359 18.0089
478 1 -1.1104 3.82106 19.5941 17.9554
479 2 2.2208 2.38555 18.1683 19.2787
480 1 -1.1104 3.86175 13.9115 15.1629
482 1 -1.1104 3.77862 19.6406 15.1541
484 2 2.2208 2.49122 15.2954 16.6764
485 2 2.2208 2.46363 21.0707 16.5996
486 1 -1.1104 3.9509 16.7766 18.0411
487 1 -1.1104 3.78726 16.7818 15.2981
483 1 -1.1104 3.79493 19.5258 20.841
462 1 -1.1104 1.12802 13.9077 20.8024
488 1 -1.1104 3.95446 16.6937 20.7757
481 1 -1.1104 3.88352 13.882 20.8582
464 1 -1.1104 1.01704 19.497 20.7869
490 2 2.2208 5.26886 20.9026 13.782
650 1 -1.1104 6.70285 14.0114 23.6826
9364 2 2.2208 -0.295086 21.0064 19.3681
460 1 -1.1104 6.66081 19.7847 18.0018
465 1 -1.1104 6.57425 13.9276 15.2844
475 1 -1.1104 6.61235 16.8289 15.2498
459 1 -1.1104 6.67509 13.9662 18.0093
467 1 -1.1104 6.71775 19.5633 15.1519
470 1 -1.1104 6.68036 16.8517 18.0271
492 2 2.2208 10.9121 18.2652 16.7027
493 1 -1.1104 12.2345 14.0223 17.9933
494 1 -1.1104 12.3725 19.4187 18.0707
495 1 -1.1104 12.308 14.0657 15.2786
497 1 -1.1104 12.3021 19.7751 15.1673
499 1 -1.1104 12.3771 16.7119 18.0339
500 2 2.2208 10.8976 15.2873 19.391
501 2 2.2208 10.9462 20.9407 19.3599
502 1 -1.1104 12.2318 16.871 15.2349
504 1 -1.1104 9.40527 13.9509 18.0496
505 1 -1.1104 9.41306 19.6376 18.0894
506 2 2.2208 7.96238 18.2002 19.3562
507 1 -1.1104 9.35813 13.9025 15.01
509 1 -1.1104 9.43371 19.5284 15.3224
511 2 2.2208 8.03391 15.3652 16.752
512 2 2.2208 7.94461 21.049 16.5858
513 1 -1.1104 9.44469 16.8546 18.2196
514 1 -1.1104 9.52434 16.7335 15.2542
503 1 -1.1104 12.2911 16.8536 20.7351
498 1 -1.1104 12.3748 19.559 20.9248
476 1 -1.1104 6.73138 16.6995 20.8129
466 1 -1.1104 6.79378 13.9573 20.8211
510 1 -1.1104 9.51753 19.5501 20.7026
323 1 -1.1104 1.08076 -2.84213 20.876
344 1 -1.1104 3.83931 2.91644 20.7527
9386 2 2.2208 13.6854 4.12186 22.1478
643 1 -1.1104 6.78111 16.7789 26.363
519 2 2.2208 13.6485 18.1727 13.8376
342 1 -1.1104 3.79305 -2.61491 20.8057
349 1 -1.1104 3.76104 0.0699427 20.6434
520 2 2.2208 5.28684 1.31172 22.0861
521 1 -1.1104 0.927942 -2.83021 23.5659
522 1 -1.1104 1.01743 2.7919 23.5244
525 1 -1.1104 0.920911 -2.88207 26.4567
526 1 -1.1104 1.21024 2.72717 26.3205
529 1 -1.1104 1.06536 0.0245938 23.3899
531 2 2.2208 5.18737 -1.43416 24.9398
532 2 2.2208 5.26154 4.16106 25.0386
533 1 -1.1104 1.03442 -0.156493 26.1914
535 1 -1.1104 3.67596 -2.92265 23.6448
536 1 -1.1104 3.83187 2.66629 23.6146
537 2 2.2208 2.4547 1.39225 24.9293
538 1 -1.1104 3.814 -2.99229 26.3004
539 1 -1.1104 3.99002 2.62715 26.3483
540 2 2.2208 2.39968 -1.38222 22.1482
541 2 2.2208 2.47569 4.13423 22.2383
542 1 -1.1104 3.89152 -0.137948 23.4086
543 1 -1.1104 3.80269 -0.118373 26.3917
523 1 -1.1104 6.73089 -2.73876 23.7331
524 1 -1.1104 6.5142 2.66699 23.6727
528 1 -1.1104 6.76626 2.80357 26.3321
426 2 2.2208 2.45375 7.04599 13.8562
337 1 -1.1104 6.60395 -0.160156 20.7752
613 2 2.2208 -0.32986 9.6703 24.9046
364 1 -1.1104 12.073 -2.9167 20.8399
678 1 -1.1104 9.51129 19.5393 23.4971
327 1 -1.1104 6.66032 -2.87634 20.8403
366 1 -1.1104 12.1817 2.62292 20.7467
530 1 -1.1104 6.60516 -0.0732343 23.5478
527 1 -1.1104 6.53436 -2.92707 26.4693
534 1 -1.1104 6.6025 -0.126553 26.4104
556 2 2.2208 10.8229 1.34374 22.208
557 1 -1.1104 12.3563 -2.95891 23.5007
558 1 -1.1104 12.1674 2.58984 23.6715
559 1 -1.1104 12.2363 -2.90992 26.2952
560 1 -1.1104 12.1792 2.65631 26.4482
561 1 -1.1104 12.1445 -0.13726 23.5165
562 2 2.2208 10.9702 -1.38333 25.0189
563 2 2.2208 10.7021 4.23719 25.0213
564 1 -1.1104 12.3165 -0.215082 26.4765
565 1 -1.1104 9.41721 -2.97324 23.4814
566 1 -1.1104 9.47742 2.72715 23.6137
567 2 2.2208 7.99331 1.3079 24.8948
568 1 -1.1104 9.54688 -2.77992 26.2587
569 1 -1.1104 9.38673 2.73003 26.5204
570 2 2.2208 8.13055 -1.54768 22.0541
571 2 2.2208 7.9941 4.24628 22.1743
572 1 -1.1104 9.35524 -0.155468 23.3628
573 1 -1.1104 9.48415 -0.0309951 26.3152
454 2 2.2208 10.9175 9.70558 13.7061
674 1 -1.1104 9.50189 19.7207 26.2662
418 1 -1.1104 3.97079 8.42861 20.7477
411 1 -1.1104 6.60788 5.5666 20.7444
585 2 2.2208 5.24581 7.00049 22.2253
586 2 2.2208 5.39171 12.4621 22.2264
587 1 -1.1104 1.03372 8.24524 23.4742
589 1 -1.1104 1.03778 8.21252 26.2354
591 1 -1.1104 1.22249 5.59242 23.5727
592 1 -1.1104 1.06418 11.1183 23.6038
595 2 2.2208 5.2904 9.75498 25.0826
596 1 -1.1104 0.954914 5.53939 26.3048
597 1 -1.1104 1.10144 11.1473 26.3902
600 1 -1.1104 3.89016 8.37055 23.6049
601 2 2.2208 2.56038 6.92817 24.9176
602 2 2.2208 2.49316 12.5279 24.8274
603 1 -1.1104 3.9298 8.34398 26.5007
604 2 2.2208 2.41739 9.66837 22.1702
605 1 -1.1104 3.90877 5.44409 23.6807
606 1 -1.1104 3.90349 11.1428 23.6613
607 1 -1.1104 3.84458 5.62812 26.5568
608 1 -1.1104 3.76376 11.2115 26.4023
598 1 -1.1104 6.56609 5.62857 26.3706
593 1 -1.1104 6.64521 5.50995 23.5838
594 1 -1.1104 6.71619 11.0196 23.6049
658 1 -1.1104 6.67766 16.7413 23.5781
433 1 -1.1104 12.3626 8.25155 20.8451
400 1 -1.1104 6.67595 8.3493 20.9296
687 2 2.2208 13.5854 1.2371 13.8051
413 1 -1.1104 6.81732 11.0382 20.8404
590 1 -1.1104 6.72816 8.24219 26.4944
445 1 -1.1104 9.48095 8.37788 20.9004
440 1 -1.1104 12.2761 11.2353 20.721
438 1 -1.1104 12.2041 5.62495 20.9543
599 1 -1.1104 6.73368 11.2477 26.4601
588 1 -1.1104 6.66879 8.21315 23.6206
616 1 -1.1104 9.36386 11.0652 26.3826
617 1 -1.1104 9.38715 5.47185 26.427
618 1 -1.1104 9.55592 11.0985 23.6119
619 1 -1.1104 9.39645 5.65889 23.7141
620 2 2.2208 8.16632 9.57569 22.2194
621 1 -1.1104 9.50351 8.40249 26.3901
622 2 2.2208 8.13826 12.4844 24.9521
623 2 2.2208 8.0239 6.96137 25.0529
624 2 2.2208 10.8543 6.95895 22.35
625 2 2.2208 10.8277 12.5828 22.1653
626 1 -1.1104 12.2271 8.35578 23.5587
627 1 -1.1104 12.3646 8.25367 26.4903
628 1 -1.1104 12.2545 5.37794 23.6497
629 1 -1.1104 12.3593 11.021 23.4582
630 2 2.2208 10.8544 9.77809 24.9244
631 1 -1.1104 12.1008 5.49276 26.3628
632 1 -1.1104 12.315 11.2008 26.3433
633 1 -1.1104 9.45067 8.29644 23.6366
681 2 2.2208 10.9445 21.0561 24.9898
682 2 2.2208 10.9152 15.4425 24.9736
553 2 2.2208 10.9337 18.1429 22.2812
666 2 2.2208 -0.307918 15.3638 25.0977
641 1 -1.1104 6.55443 14.0222 26.5417
672 2 2.2208 8.13155 20.9126 22.0176
474 1 -1.1104 1.13383 16.7094 20.7807
676 1 -1.1104 6.71581 19.5679 26.303
646 1 -1.1104 1.11256 13.9977 26.3745
648 2 2.2208 5.26744 20.9365 24.9531
662 2 2.2208 2.47584 15.3862 22.2366
661 2 2.2208 2.48252 20.8272 22.1852
660 1 -1.1104 3.95689 16.622 23.4988
659 1 -1.1104 1.11474 16.657 23.6827
657 1 -1.1104 3.93901 13.8055 26.3246
656 1 -1.1104 3.94463 16.5826 26.4674
655 2 2.2208 2.48942 17.944 25.0444
654 1 -1.1104 3.9801 19.5507 26.4655
653 2 2.2208 5.29251 18.0931 22.1778
652 1 -1.1104 1.12707 14.083 23.6109
651 1 -1.1104 1.19904 19.5188 23.6116
649 2 2.2208 5.29302 15.2789 24.9544
640 1 -1.1104 4.04948 19.5015 23.6014
642 1 -1.1104 3.95908 13.9424 23.5577
644 1 -1.1104 1.02086 19.5515 26.3768
645 1 -1.1104 1.09125 16.7007 26.4154
647 1 -1.1104 6.7143 19.4972 23.5756
389 2 2.2208 -0.286321 9.70026 19.4343
637 1 -1.1104 12.3234 13.912 23.6103
670 1 -1.1104 9.55744 16.8107 26.3151
515 1 -1.1104 9.38022 16.7445 20.8635
669 1 -1.1104 12.3023 19.6026 23.6079
685 1 -1.1104 12.3264 13.978 26.3805
671 1 -1.1104 9.43391 16.6889 23.6536
684 1 -1.1104 12.2642 19.6213 26.3525
679 1 -1.1104 9.52021 13.9573 23.669
468 1 -1.1104 6.55714 19.6272 20.823
508 1 -1.1104 9.43995 13.9561 20.827
496 1 -1.1104 12.3353 13.9326 20.7498
688 2 2.2208 13.6396 1.38552 19.3395
668 2 2.2208 -0.380445 20.8708 24.8863
385 2 2.2208 13.6628 15.4856 16.5973
9177 2 2.2208 -0.300658 18.1219 22.1853
351 2 2.2208 13.6888 9.82027 22.1564
9367 2 2.2208 -0.30887 15.3937 13.8652
9366 2 2.2208 -0.306511 18.2028 16.5337
639 2 2.2208 13.5933 6.93382 24.9997
582 2 2.2208 13.6337 -1.48963 22.1991
554 2 2.2208 -0.337935 1.40575 22.1378
516 2 2.2208 10.9057 21.0442 13.8524
491 2 2.2208 5.26392 15.368 13.9053
518 2 2.2208 8.12199 18.2538 13.7659
636 2 2.2208 10.8318 12.6185 27.796
611 2 2.2208 5.21008 12.5744 27.7716
455 2 2.2208 7.99047 12.4964 13.798
663 2 2.2208 2.4476 20.9283 27.7152
9219 2 2.2208 -0.326386 1.36306 27.6401
689 2 2.2208 5.26278 23.6337 5.33606
690 2 2.2208 5.39602 29.3103 5.34769
691 1 -1.1104 1.10377 25.0882 1.1045
692 1 -1.1104 1.1369 25.1988 3.84532
693 1 -1.1104 1.12413 22.3121 0.980734
694 1 -1.1104 1.02332 27.9088 1.1687
695 2 2.2208 5.41323 26.6337 2.39283
696 1 -1.1104 1.14995 22.3837 3.86851
697 1 -1.1104 1.0198 27.9262 3.7348
698 1 -1.1104 3.9262 25.3671 1.15732
699 2 2.2208 2.47092 23.85 2.41364
700 2 2.2208 2.60882 29.2913 2.57413
701 1 -1.1104 3.75777 25.0182 3.90023
702 2 2.2208 2.52305 26.5314 5.31709
703 1 -1.1104 3.83661 22.5209 1.27587
704 1 -1.1104 3.96175 28.0179 1.05314
705 1 -1.1104 3.93951 22.2662 4.04517
706 1 -1.1104 3.95988 27.9031 3.88541
837 1 -1.1104 3.96828 22.3093 6.89316
834 1 -1.1104 6.72019 22.244 6.7694
831 1 -1.1104 6.72582 25.0019 6.59384
836 1 -1.1104 3.90519 25.1816 6.80572
838 1 -1.1104 3.89972 27.9731 6.60557
712 1 -1.1104 6.67125 22.401 1.01672
9804 2 2.2208 -0.296212 23.7882 5.36395
987 2 2.2208 13.6266 46.2127 7.94886
1387 1 -1.1104 9.36605 47.7557 1.10102
830 1 -1.1104 1.07123 25.3285 6.71988
833 1 -1.1104 1.25147 28.0474 6.63061
832 1 -1.1104 1.13286 22.489 6.77246
9702 2 2.2208 13.6875 34.7901 8.30476
9803 2 2.2208 -0.24586 29.4288 5.23815
713 1 -1.1104 6.71082 28.0208 1.02029
714 1 -1.1104 6.68706 22.4324 3.9188
715 1 -1.1104 6.70983 27.994 3.87019
711 1 -1.1104 6.5456 25.1608 3.84325
710 1 -1.1104 6.6782 25.2022 0.970342
716 2 2.2208 10.9569 23.7169 5.44263
717 2 2.2208 10.7229 29.3782 5.47403
718 1 -1.1104 12.1924 24.9585 1.22636
719 1 -1.1104 12.4176 25.0043 4.04028
720 1 -1.1104 12.3804 22.2463 1.29772
721 1 -1.1104 12.2187 27.8642 1.25355
722 2 2.2208 10.9243 26.4576 2.62157
723 1 -1.1104 12.3038 22.2135 3.97903
724 1 -1.1104 12.2731 27.9491 4.28452
725 1 -1.1104 9.51115 25.1434 1.08607
726 2 2.2208 7.97567 23.7846 2.39501
727 2 2.2208 8.14023 29.3369 2.49181
728 1 -1.1104 9.52735 25.0283 3.74857
729 2 2.2208 8.06032 26.4579 5.20029
730 1 -1.1104 9.50027 22.3027 1.02925
731 1 -1.1104 9.52441 27.9248 1.04055
732 1 -1.1104 9.61708 22.2787 3.95379
733 1 -1.1104 9.45596 27.867 4.03397
866 1 -1.1104 9.37963 25.0766 6.67185
864 1 -1.1104 12.3079 22.385 6.66623
867 1 -1.1104 9.44704 22.4381 6.75074
915 2 2.2208 -0.372304 37.6792 8.10151
737 2 2.2208 5.24753 34.9275 5.08354
738 1 -1.1104 1.11839 30.7767 1.08099
739 1 -1.1104 1.03833 36.3959 1.00506
741 1 -1.1104 1.05756 30.8403 3.93718
742 1 -1.1104 0.870057 36.3678 3.73538
744 1 -1.1104 1.06081 33.6999 0.852326
745 2 2.2208 5.22971 32.0669 2.4187
746 2 2.2208 5.38345 37.7986 2.21933
747 1 -1.1104 1.11763 33.4889 3.74645
749 1 -1.1104 3.8463 30.7677 0.996387
750 1 -1.1104 3.94734 36.4485 1.05863
751 2 2.2208 2.41807 35.0665 2.46529
752 1 -1.1104 3.9384 30.7168 3.82518
753 1 -1.1104 3.81313 36.2993 4.01782
754 2 2.2208 2.52768 32.219 5.40478
755 2 2.2208 2.53406 37.9453 5.2871
756 1 -1.1104 3.94047 33.6295 1.15986
757 1 -1.1104 3.8799 33.4884 3.81002
882 1 -1.1104 1.06852 30.8717 6.84716
740 1 -1.1104 6.74063 36.3799 0.878182
748 1 -1.1104 6.69533 33.64 3.81594
890 1 -1.1104 3.81273 33.5854 6.74432
883 1 -1.1104 1.06554 36.5197 6.58285
9719 2 2.2208 -0.247624 34.9902 10.9256
761 1 -1.1104 6.76901 30.7689 1.10486
762 1 -1.1104 6.66304 30.7973 3.89624
743 1 -1.1104 6.7729 36.5156 3.69507
887 1 -1.1104 6.55363 33.56 6.46202
942 1 -1.1104 6.64615 39.1969 9.36072
886 1 -1.1104 1.16756 33.6319 6.7977
828 2 2.2208 13.5056 40.4918 2.45975
884 1 -1.1104 6.75486 30.7351 6.76463
763 1 -1.1104 6.63871 33.5118 0.982802
764 2 2.2208 10.8762 34.8436 5.27039
765 1 -1.1104 12.4518 30.5698 1.22602
766 1 -1.1104 12.2283 36.1763 1.00688
767 1 -1.1104 12.1213 30.6804 4.12299
768 1 -1.1104 12.3067 36.2575 3.91926
769 1 -1.1104 12.2281 33.4575 1.32961
770 2 2.2208 10.8706 31.9703 2.55876