ITEM: TIMESTEP
20000
ITEM: NUMBER OF ATOMS
17730
ITEM: BOX BOUNDS pp pp pp
-3.9857363197600937e-01 2.7738573631975949e+01
-4.9201901159325727e+00 3.3300019011593787e+02
-3.9575519910152157e-01 2.7735755199101380e+01
ITEM: ATOMS id type q x y z
1 2 2.2208 5.24222 0.637382 5.41126
2 1 -1.1104 1.06367 -3.41533 0.801176
6 1 -1.1104 1.04023 -3.56353 3.70746
10 1 -1.1104 0.889738 -0.564041 0.89377
12 2 2.2208 5.2987 -2.15173 2.44448
14 1 -1.1104 1.25972 -0.755783 3.68104
16 1 -1.1104 3.87002 -3.55239 0.982502
18 2 2.2208 2.5262 0.728169 2.40706
19 1 -1.1104 3.75605 -3.54611 4.02789
21 2 2.2208 2.39633 -2.01725 5.13011
23 1 -1.1104 3.90815 -0.800235 1.09426
24 1 -1.1104 3.92839 -0.571732 3.76826
3 1 -1.1104 1.09128 2.15746 0.99704
7 1 -1.1104 0.976886 2.11808 3.78928
13 2 2.2208 5.23032 3.46064 2.63727
17 1 -1.1104 4.00776 1.88582 1.07309
20 1 -1.1104 3.76412 2.08472 3.93315
22 2 2.2208 2.26858 3.40743 5.23575
52 2 2.2208 10.8941 -4.96848 5.27692
356 2 2.2208 5.22381 9.3433 13.7297
345 2 2.2208 13.6383 20.3959 10.9668
173 1 -1.1104 3.7823 2.10359 6.72523
353 2 2.2208 10.8469 -2.20422 13.8109
630 2 2.2208 -0.485735 -4.71811 -0.369924
172 1 -1.1104 3.7805 -3.56702 6.68319
378 2 2.2208 10.8545 17.6118 -0.360728
174 1 -1.1104 3.92847 -0.71905 6.56614
170 1 -1.1104 1.23006 -0.753448 6.50698
167 1 -1.1104 0.996475 1.98164 6.5354
166 1 -1.1104 1.04756 -3.44242 6.6083
169 1 -1.1104 6.71721 2.02182 6.60272
330 1 -1.1104 12.1592 13.4817 12.4092
5 1 -1.1104 6.54562 2.30462 1.00295
9 1 -1.1104 6.66967 2.13788 3.8448
8 1 -1.1104 6.69533 -3.54215 3.76659
11 1 -1.1104 6.76368 -0.902968 0.916762
15 1 -1.1104 6.70364 -0.80106 3.88559
4 1 -1.1104 6.70121 -3.55102 1.14265
31 2 2.2208 10.9784 0.669442 5.26791
32 1 -1.1104 12.2 -3.3876 0.950678
34 1 -1.1104 12.3883 -3.45322 3.74675
36 1 -1.1104 12.3939 -0.51917 1.21778
37 2 2.2208 10.9887 -2.05108 2.44543
39 1 -1.1104 12.4837 -0.526645 4.01543
40 1 -1.1104 9.64049 -3.31129 1.24101
42 2 2.2208 8.05726 0.729756 2.39981
43 1 -1.1104 9.4209 -3.59805 4.01612
45 2 2.2208 8.14624 -2.1313 5.25379
47 1 -1.1104 9.56551 -0.591069 1.15805
48 1 -1.1104 9.56099 -0.741119 3.86894
33 1 -1.1104 12.2927 2.26794 1.02085
35 1 -1.1104 12.0784 2.21531 3.85311
38 2 2.2208 10.787 3.57011 2.51567
41 1 -1.1104 9.31275 2.0821 0.980396
44 1 -1.1104 9.47328 2.03458 3.77676
46 2 2.2208 8.06456 3.3484 5.20399
208 1 -1.1104 9.68597 -3.37104 6.72313
168 1 -1.1104 6.64106 -3.59255 6.76064
171 1 -1.1104 6.52083 -0.80557 6.6784
205 1 -1.1104 12.3018 -3.43942 6.65151
206 1 -1.1104 12.3634 2.00482 6.52124
329 1 -1.1104 12.1229 19.0245 12.3391
396 2 2.2208 2.30385 20.5171 -0.44186
382 2 2.2208 10.879 0.859759 -0.397762
316 2 2.2208 7.91587 20.4642 10.831
54 2 2.2208 5.20951 6.33205 5.18691
56 1 -1.1104 0.910153 7.82834 1.21642
58 1 -1.1104 0.954073 7.74943 3.8093
60 1 -1.1104 1.19718 4.99759 1.05193
67 1 -1.1104 1.05807 4.95011 3.93283
71 1 -1.1104 3.78766 7.79285 1.39946
72 2 2.2208 2.44783 6.29845 2.52274
74 1 -1.1104 3.84125 7.67154 4.09654
76 1 -1.1104 3.74977 4.52755 1.1436
79 1 -1.1104 3.93685 4.95865 3.8061
55 2 2.2208 5.2585 11.867 5.29866
61 1 -1.1104 1.09114 10.6603 1.1087
66 2 2.2208 5.39859 9.34784 2.40921
68 1 -1.1104 0.852351 10.3908 3.75812
73 2 2.2208 2.46695 12.0276 2.43669
75 2 2.2208 2.39304 9.08619 5.16427
77 1 -1.1104 3.99979 10.4634 0.928246
80 1 -1.1104 3.76879 10.5187 3.88692
380 2 2.2208 2.52403 3.5319 -0.388938
62 1 -1.1104 1.10683 10.2197 6.59418
393 2 2.2208 8.09444 9.16314 -0.440634
333 2 2.2208 13.3547 14.897 10.9601
30 2 2.2208 -0.38046 -4.77629 5.34139
78 1 -1.1104 3.79374 10.5112 6.72547
231 2 2.2208 8.03995 -4.87392 8.05653
397 2 2.2208 5.27266 17.6601 -0.447637
69 1 -1.1104 6.774 5.08088 4.02725
64 1 -1.1104 6.62468 10.7911 1.09921
63 1 -1.1104 6.53542 5.0255 1.14006
59 1 -1.1104 6.65812 7.82809 3.74811
70 1 -1.1104 6.72635 10.5629 3.84039
57 1 -1.1104 6.71624 7.97682 0.994463
84 2 2.2208 11.0421 6.28101 5.27708
86 1 -1.1104 12.3298 7.68463 1.04211
87 1 -1.1104 12.3362 7.97174 3.6448
88 1 -1.1104 12.377 5.11402 0.954356
92 1 -1.1104 12.3378 4.97444 3.88497
94 1 -1.1104 9.51195 7.73367 0.992514
95 2 2.2208 8.12106 6.44548 2.46536
97 1 -1.1104 9.46868 7.61312 3.7747
99 1 -1.1104 9.33343 4.96092 1.12678
102 1 -1.1104 9.51094 4.75207 3.91499
85 2 2.2208 10.969 11.9982 5.40488
89 1 -1.1104 12.1483 10.565 1.13933
91 2 2.2208 10.8003 9.11182 2.39824
93 1 -1.1104 12.2151 10.6103 3.97864
96 2 2.2208 8.22751 12.0177 2.57847
98 2 2.2208 8.08378 8.9668 5.25434
100 1 -1.1104 9.57912 10.4738 0.946358
103 1 -1.1104 9.47249 10.4836 3.79614
237 1 -1.1104 6.37154 4.64758 6.55706
65 1 -1.1104 6.64322 10.2613 6.66058
288 1 -1.1104 6.49812 18.8677 9.60842
347 2 2.2208 5.30251 -2.08569 13.8578
372 2 2.2208 13.3803 17.6529 13.8812
81 2 2.2208 -0.454021 6.32216 5.27592
104 2 2.2208 13.6773 11.9909 2.51559
107 1 -1.1104 1.11749 13.4293 1.12394
113 1 -1.1104 0.965618 13.3229 3.82259
123 1 -1.1104 3.84153 13.4018 0.910223
128 1 -1.1104 3.8447 13.414 3.79749
119 2 2.2208 5.39209 14.8399 2.51788
106 2 2.2208 5.19969 17.7275 5.20787
109 1 -1.1104 0.930569 19.1223 1.06087
114 1 -1.1104 1.01427 18.9972 3.85076
116 1 -1.1104 1.13145 16.245 0.953339
120 2 2.2208 5.24834 20.4731 2.3168
121 1 -1.1104 1.25107 16.0942 3.82232
125 1 -1.1104 4.04752 19.0496 0.800834
127 2 2.2208 2.37597 17.6456 2.49278
129 1 -1.1104 3.83106 19.1634 3.70526
130 2 2.2208 2.37498 14.6949 5.30434
131 2 2.2208 2.50566 20.5652 5.14708
132 1 -1.1104 3.84074 16.1995 1.1039
134 1 -1.1104 4.03819 16.2259 4.03375
360 2 2.2208 10.7202 9.18357 13.651
138 1 -1.1104 6.7942 18.9501 1.03653
115 1 -1.1104 6.75469 13.4984 4.0134
140 1 -1.1104 6.60679 16.2503 1.22311
318 1 -1.1104 9.45083 19.0107 9.42712
344 2 2.2208 -0.376223 6.3418 10.8407
334 2 2.2208 13.7809 3.54583 5.24273
154 1 -1.1104 9.46137 13.2883 6.77238
323 1 -1.1104 12.1579 16.308 9.56398
110 1 -1.1104 6.63582 13.5025 1.129
142 1 -1.1104 12.1683 13.3608 1.14096
146 1 -1.1104 12.3505 13.36 3.94925
153 1 -1.1104 9.41598 13.3359 1.20194
158 1 -1.1104 9.60092 13.4406 4.05328
122 1 -1.1104 6.70978 16.2511 3.98928
139 1 -1.1104 6.58826 19.1596 3.82866
150 2 2.2208 10.8082 14.8692 2.62251
160 2 2.2208 8.03608 14.8917 5.4344
141 2 2.2208 10.7865 17.631 5.36676
144 1 -1.1104 12.2181 18.849 0.835457
147 1 -1.1104 12.219 18.9762 3.69986
148 1 -1.1104 12.2344 16.2576 0.976439
151 2 2.2208 10.7915 20.2346 2.41045
152 1 -1.1104 12.2328 16.1983 3.83812
155 1 -1.1104 9.35262 18.8166 1.06596
157 2 2.2208 8.00272 17.7429 2.5466
159 1 -1.1104 9.41287 18.9489 3.91795
161 2 2.2208 8.04125 20.5562 5.11035
162 1 -1.1104 9.57274 16.193 1.11265
164 1 -1.1104 9.4385 16.1172 4.0406
390 2 2.2208 -0.465091 11.914 -0.307139
118 1 -1.1104 6.40182 16.3647 6.83983
395 2 2.2208 13.5601 9.03524 -0.238327
331 2 2.2208 10.8854 17.5942 10.886
328 1 -1.1104 12.1465 13.3927 9.58565
232 2 2.2208 10.7321 -4.82724 10.9021
175 2 2.2208 5.21317 0.713595 10.6789
176 1 -1.1104 0.909204 -3.59577 12.4736
180 1 -1.1104 0.99718 -3.58143 9.49851
184 1 -1.1104 0.823338 -0.843099 12.0053
186 2 2.2208 5.17636 -2.14728 8.1033
188 1 -1.1104 1.12042 -0.598757 9.29839
190 1 -1.1104 3.64387 -3.50828 12.4637
192 2 2.2208 2.37568 0.809581 8.08468
193 1 -1.1104 3.93531 -3.36956 9.52451
195 2 2.2208 2.39415 -2.0925 10.8623
197 1 -1.1104 3.79271 -0.660164 12.1994
198 1 -1.1104 3.86775 -0.766132 9.49953
177 1 -1.1104 0.93213 1.89964 12.3006
181 1 -1.1104 1.0112 2.2673 9.45427
191 1 -1.1104 3.73153 2.38107 12.32
194 1 -1.1104 3.86081 2.26469 9.46932
196 2 2.2208 2.3806 3.49442 10.9095
187 2 2.2208 5.34058 3.36579 8.02236
374 2 2.2208 13.564 14.6797 -0.377421
163 1 -1.1104 9.42284 16.394 6.84496
324 2 2.2208 10.7823 20.4315 8.12173
325 2 2.2208 11.0079 14.6651 8.08425
320 2 2.2208 7.90234 17.6974 8.0773
210 1 -1.1104 9.20875 -0.501468 6.53215
207 1 -1.1104 12.078 -0.698166 6.61371
185 1 -1.1104 6.67109 -0.826269 12.4578
182 1 -1.1104 6.70604 -3.49412 9.52131
183 1 -1.1104 6.56809 1.89724 9.30565
209 1 -1.1104 9.39529 2.10263 6.69602
178 1 -1.1104 6.55743 -3.48342 12.2051
189 1 -1.1104 6.65952 -0.756255 9.5555
211 2 2.2208 10.7808 0.689964 10.9307
212 1 -1.1104 12.1986 -3.52642 12.3825
214 1 -1.1104 12.4029 -3.28326 9.46511
216 1 -1.1104 12.2212 -0.684394 12.1325
217 2 2.2208 10.8443 -1.90513 8.08763
219 1 -1.1104 12.0917 -0.452559 9.42506
220 1 -1.1104 9.51857 -3.53499 12.3544
222 2 2.2208 8.04645 0.62323 8.0581
223 1 -1.1104 9.47765 -3.44539 9.53128
225 2 2.2208 7.91718 -2.16707 10.956
227 1 -1.1104 9.55569 -0.714596 12.3013
228 1 -1.1104 9.35367 -0.732128 9.48686
179 1 -1.1104 6.42046 1.91548 12.0351
213 1 -1.1104 12.2564 2.24859 12.4192
215 1 -1.1104 12.2773 2.26498 9.28191
218 2 2.2208 10.8175 3.62957 8.04224
221 1 -1.1104 9.27377 2.11474 12.4997
224 1 -1.1104 9.43698 2.1224 9.52353
226 2 2.2208 7.81533 3.60209 10.8689
327 1 -1.1104 12.2492 19.0271 9.37664
326 1 -1.1104 12.0611 16.2687 12.4993
239 1 -1.1104 3.63987 4.80074 6.69085
319 1 -1.1104 9.47369 13.3497 9.59977
112 1 -1.1104 6.58786 19.066 6.71046
234 1 -1.1104 0.806554 7.49352 6.68856
238 1 -1.1104 3.80412 7.58803 6.81584
236 1 -1.1104 0.898308 4.73374 6.55579
240 2 2.2208 5.17389 6.42969 10.9482
242 1 -1.1104 0.88719 7.72118 12.2157
244 1 -1.1104 1.15932 7.81085 9.41978
246 1 -1.1104 0.819559 4.91691 12.3164
251 1 -1.1104 0.902092 4.91026 9.28071
255 1 -1.1104 3.75846 7.90008 12.4199
256 2 2.2208 2.50974 6.23597 8.05415
258 1 -1.1104 3.83606 7.74195 9.53058
260 1 -1.1104 3.69093 5.10981 12.4365
262 1 -1.1104 3.85386 5.02515 9.52223
241 2 2.2208 5.19449 11.9687 10.9803
247 1 -1.1104 1.10519 10.4434 12.3652
250 2 2.2208 5.43085 9.08624 8.12297
252 1 -1.1104 1.00894 10.547 9.55518
257 2 2.2208 2.45791 11.858 8.12883
259 2 2.2208 2.46558 9.24049 10.9804
261 1 -1.1104 3.85796 10.5578 12.4306
263 1 -1.1104 3.89145 10.6532 9.61963
243 1 -1.1104 6.48644 7.82698 12.3999
249 1 -1.1104 6.70903 10.6802 12.2336
254 1 -1.1104 6.70027 10.5168 9.46051
248 1 -1.1104 6.5399 5.03899 12.3066
245 1 -1.1104 6.62214 7.65163 9.52703
83 2 2.2208 -0.298349 11.9201 5.09069
297 1 -1.1104 6.55356 13.5348 12.257
290 1 -1.1104 6.50162 13.2737 9.67893
321 1 -1.1104 9.38879 19.0599 12.3172
269 1 -1.1104 9.48912 5.00639 6.5966
253 1 -1.1104 6.48482 4.70768 9.37133
101 1 -1.1104 9.33349 10.5116 6.63175
90 1 -1.1104 12.2263 10.6101 6.76341
235 1 -1.1104 6.66843 7.70234 6.55286
266 1 -1.1104 12.4183 4.9038 6.53456
265 1 -1.1104 12.2715 7.81438 6.59802
267 1 -1.1104 9.48381 7.75464 6.56323
285 1 -1.1104 9.28555 7.60402 12.1341
280 1 -1.1104 12.1822 4.93885 12.0818
283 1 -1.1104 12.0911 5.07699 9.27779
268 1 -1.1104 9.27561 4.96299 9.47898
271 1 -1.1104 9.2987 4.8848 12.2108
273 1 -1.1104 9.40317 7.80071 9.26788
275 2 2.2208 7.96912 6.2658 8.02771
276 2 2.2208 10.8022 6.3768 10.8638
278 1 -1.1104 12.2592 7.92846 12.3548
279 1 -1.1104 12.3057 7.84983 9.50526
284 1 -1.1104 12.1097 10.6506 9.56625
282 2 2.2208 10.8091 9.18766 8.03337
281 1 -1.1104 12.3963 10.6576 12.1858
264 1 -1.1104 9.53248 10.4136 9.38407
270 1 -1.1104 9.37261 10.6112 12.2944
272 2 2.2208 7.99615 9.21105 10.979
274 2 2.2208 8.07889 11.9527 8.12417
277 2 2.2208 10.7854 11.9956 10.9229
156 1 -1.1104 9.28874 19.3447 6.75759
306 1 -1.1104 6.45677 16.2659 12.2447
317 2 2.2208 8.03469 14.8242 10.9817
111 1 -1.1104 6.89201 13.4318 6.9238
117 1 -1.1104 0.866193 16.2288 6.8083
124 1 -1.1104 3.96873 13.0896 6.84892
133 1 -1.1104 3.70354 16.1458 6.90258
302 1 -1.1104 0.830288 19.1651 6.61082
126 1 -1.1104 3.61181 18.9852 6.61346
108 1 -1.1104 1.20607 13.1963 6.57155
305 1 -1.1104 3.61032 13.3758 9.54754
299 1 -1.1104 1.04111 13.3757 12.354
287 1 -1.1104 3.81926 13.3228 12.3356
294 1 -1.1104 0.888776 13.4272 9.7721
310 2 2.2208 2.33904 14.804 10.9684
309 2 2.2208 2.2837 20.2691 10.9474
308 1 -1.1104 3.78856 16.0827 12.4739
307 1 -1.1104 0.8573 16.2886 12.3716
292 1 -1.1104 0.793913 16.2797 9.59554
304 1 -1.1104 3.70427 16.1962 9.65496
303 2 2.2208 2.40641 17.6668 8.11467
301 1 -1.1104 3.75954 18.9364 9.47287
300 2 2.2208 5.16333 17.4711 10.9457
291 1 -1.1104 0.998487 19.0939 9.46298
298 1 -1.1104 0.922558 18.9383 12.2725
295 2 2.2208 5.0752 14.6873 8.10397
286 1 -1.1104 3.81127 18.8409 12.3019
293 2 2.2208 5.11459 20.3233 8.17207
296 1 -1.1104 6.62803 19.004 12.3088
289 1 -1.1104 6.56338 16.016 9.60539
145 1 -1.1104 12.1137 19.1172 6.82417
392 2 2.2208 10.8228 6.25324 -0.443593
315 1 -1.1104 9.27862 16.2132 12.5661
322 1 -1.1104 9.38091 13.453 12.3357
314 1 -1.1104 9.47845 16.0318 9.52983
149 1 -1.1104 12.1914 16.2359 6.63078
143 1 -1.1104 12.3142 13.4213 6.64669
311 2 2.2208 -0.457093 20.4046 8.0496
340 2 2.2208 13.5734 12.0823 8.24481
337 2 2.2208 13.712 14.7372 5.21682
137 2 2.2208 -0.418952 17.6261 5.29764
387 2 2.2208 5.12338 6.37705 -0.332815
82 2 2.2208 -0.512705 9.02967 2.46247
135 2 2.2208 -0.261769 14.8093 2.38338
398 2 2.2208 2.42247 14.842 -0.389908
359 2 2.2208 7.94675 6.46234 13.7665
199 2 2.2208 -0.56764 3.55832 8.02498
313 2 2.2208 -0.419294 14.7913 8.1175
343 2 2.2208 -0.418626 9.31113 8.22523
377 2 2.2208 8.05809 14.7696 -0.232573
661 2 2.2208 10.9106 -4.84188 -0.15164
388 2 2.2208 2.48085 9.29298 -0.20889
354 2 2.2208 10.8054 3.74259 13.4923
394 2 2.2208 10.9082 11.9548 -0.249438
361 2 2.2208 7.84547 12.067 13.6451
384 2 2.2208 7.92769 3.56316 -0.246675
383 2 2.2208 8.20397 -2.13601 -0.21306
366 2 2.2208 13.5528 6.46493 13.7442
400 2 2.2208 5.2311 0.706313 16.3962
401 1 -1.1104 0.968864 -3.65738 17.8283
405 1 -1.1104 0.910658 -3.56026 15.216
413 1 -1.1104 1.15732 -0.792189 17.6797
415 2 2.2208 5.23465 -2.14221 19.2022
417 1 -1.1104 1.00551 -0.702154 14.9265
421 1 -1.1104 3.91233 -3.63426 17.8968
423 2 2.2208 2.46927 0.713252 19.2538
424 1 -1.1104 4.02666 -3.44421 15.0507
428 2 2.2208 2.49282 -2.18919 16.4056
430 1 -1.1104 3.82597 -0.832316 17.6554
431 1 -1.1104 3.78965 -0.54633 14.8458
402 1 -1.1104 0.947099 2.16209 17.7843
407 1 -1.1104 1.0208 2.05786 15.0816
416 2 2.2208 5.06327 3.5248 19.257
422 1 -1.1104 3.86666 2.01294 17.8237
426 1 -1.1104 3.63676 2.15778 15.086
441 2 2.2208 13.6868 3.48848 22.0176
600 2 2.2208 13.7444 3.65845 16.4485
429 2 2.2208 2.24428 3.45136 16.3813
432 1 -1.1104 3.87973 -0.600356 20.7271
418 1 -1.1104 1.09493 -0.737792 20.4779
665 2 2.2208 13.6786 -2.27525 22.0599
409 1 -1.1104 6.79675 -3.45754 15.0088
662 2 2.2208 10.7629 -4.89474 22.0614
364 2 2.2208 5.13781 20.4736 13.6828
371 2 2.2208 8.00302 17.6608 13.7794
696 2 2.2208 -0.424365 9.28454 24.8631
425 1 -1.1104 3.74907 -3.57016 20.6743
408 1 -1.1104 1.13802 2.23771 20.6833
411 1 -1.1104 6.57921 2.09915 14.93
414 1 -1.1104 6.66046 -0.753248 17.8349
403 1 -1.1104 6.49387 -3.57241 17.9048
419 1 -1.1104 6.67761 -0.655823 14.9782
443 2 2.2208 10.7652 0.724179 16.4443
444 1 -1.1104 12.1669 -3.39152 17.8923
446 1 -1.1104 12.3377 -3.71516 15.0916
450 1 -1.1104 12.1598 -0.752566 17.8444
451 2 2.2208 10.7991 -2.12261 19.215
453 1 -1.1104 12.1044 -0.935916 15.1163
455 1 -1.1104 9.34934 -3.56499 18.0546
457 2 2.2208 8.14385 0.654247 19.3188
458 1 -1.1104 9.47934 -3.66897 15.0833
462 2 2.2208 8.05938 -2.15571 16.6306
464 1 -1.1104 9.55492 -0.641237 18.0222
465 1 -1.1104 9.3009 -0.756733 15.2553
404 1 -1.1104 6.84866 2.00627 17.8243
445 1 -1.1104 12.2002 2.0762 17.9078
448 1 -1.1104 12.1924 2.1049 15.0496
452 2 2.2208 11.0082 3.46236 19.3125
456 1 -1.1104 9.49575 2.18311 18.1039
460 1 -1.1104 9.46166 2.31409 15.1371
463 2 2.2208 8.05447 3.52923 16.5284
410 1 -1.1104 6.45983 -3.55922 20.6049
509 2 2.2208 13.714 17.5132 19.451
363 2 2.2208 2.47999 17.5512 13.8464
749 2 2.2208 -0.369732 14.9676 24.9131
476 2 2.2208 5.39519 6.34804 16.5151
478 1 -1.1104 0.852949 7.76158 17.8398
480 1 -1.1104 1.05984 7.78707 15.1276
484 1 -1.1104 0.865952 5.03525 17.9854
489 1 -1.1104 0.971704 5.03801 15.0456
497 1 -1.1104 3.80706 7.56162 17.9736
498 2 2.2208 2.40466 6.32217 19.1894
500 1 -1.1104 3.84146 7.86726 15.2471
503 1 -1.1104 3.70027 4.75988 17.7418
505 1 -1.1104 3.85115 4.92906 15.0769
477 2 2.2208 5.1288 12.079 16.6379
485 1 -1.1104 1.10823 10.7079 17.9453
488 2 2.2208 5.25581 9.16033 19.1374
491 1 -1.1104 0.933075 10.7246 15.0132
499 2 2.2208 2.41149 11.9665 19.357
502 2 2.2208 2.33832 9.15706 16.5538
504 1 -1.1104 3.75549 10.5036 17.9513
507 1 -1.1104 3.71568 10.9474 15.1564
481 1 -1.1104 0.865976 7.71841 20.5737
487 1 -1.1104 6.77488 10.3953 17.8219
479 1 -1.1104 6.57744 7.69677 18.0514
495 1 -1.1104 6.61517 10.6973 15.1583
501 1 -1.1104 3.7756 7.85889 20.8606
490 1 -1.1104 1.12289 5.03056 20.7619
506 1 -1.1104 4.04337 5.18693 20.5969
750 2 2.2208 -0.325299 20.4694 25.0328
362 2 2.2208 13.695 12.023 13.791
741 1 -1.1104 6.51879 16.018 23.6947
493 1 -1.1104 6.59646 4.92414 15.1282
474 2 2.2208 -0.412685 20.4741 19.4369
482 1 -1.1104 6.57421 7.83306 15.2326
486 1 -1.1104 6.576 4.71657 17.9912
512 2 2.2208 10.8989 6.41198 16.605
514 1 -1.1104 12.2484 7.7279 17.9772
515 1 -1.1104 12.2055 7.88961 15.2453
517 1 -1.1104 12.18 4.81373 17.9212
520 1 -1.1104 12.3543 5.10457 14.9327
524 1 -1.1104 9.38094 7.91295 17.7834
525 2 2.2208 8.03264 6.26775 19.3008
527 1 -1.1104 9.46214 7.71573 15.0285
530 1 -1.1104 9.34373 5.00342 17.7732
532 1 -1.1104 9.31238 4.84269 14.9461
513 2 2.2208 10.7215 12.1214 16.438
518 1 -1.1104 12.0393 10.6334 17.894
519 2 2.2208 10.7597 9.18494 19.295
522 1 -1.1104 12.3055 10.7198 15.1415
526 2 2.2208 8.06693 11.8004 19.3766
529 2 2.2208 7.93188 9.2441 16.4699
531 1 -1.1104 9.38768 10.6166 17.9744
534 1 -1.1104 9.29725 10.5495 15.0107
535 1 -1.1104 9.39455 10.5122 20.7746
521 1 -1.1104 12.4347 4.93322 20.7114
523 1 -1.1104 12.2763 10.5512 20.8892
581 1 -1.1104 12.0215 18.9092 20.8563
469 2 2.2208 8.00442 -4.89978 19.1673
369 2 2.2208 10.781 14.8618 13.6381
663 2 2.2208 8.05013 -4.83425 24.9407
719 2 2.2208 7.92272 14.5655 22.269
540 1 -1.1104 0.938771 13.3777 18.0139
544 1 -1.1104 0.929939 13.3144 15.2191
560 1 -1.1104 3.70089 13.3014 17.9466
563 1 -1.1104 3.81399 13.4565 15.098
554 2 2.2208 5.22378 14.8116 19.2974
539 2 2.2208 5.06848 17.7704 16.5804
541 1 -1.1104 1.16044 18.9759 18.0051
546 1 -1.1104 0.9252 18.8438 15.144
552 1 -1.1104 0.996533 16.1747 18.0317
555 2 2.2208 5.17782 20.4247 19.5033
556 1 -1.1104 1.01525 16.2078 15.1964
561 1 -1.1104 3.68174 18.9333 18.187
562 2 2.2208 2.33052 17.3866 19.4209
565 1 -1.1104 3.79902 19.1925 15.0646
567 2 2.2208 2.38848 14.7441 16.546
568 2 2.2208 2.26368 20.4504 16.5064
569 1 -1.1104 3.89612 16.176 18.0751
570 1 -1.1104 3.83782 16.3301 15.1912
548 1 -1.1104 6.52448 13.4056 15.2493
542 1 -1.1104 6.32661 13.2931 18.0464
543 1 -1.1104 6.5369 19.1417 18.1795
558 1 -1.1104 6.62493 16.0801 15.1259
572 2 2.2208 13.7396 6.41198 19.4066
633 2 2.2208 5.15838 -4.8938 22.1893
473 2 2.2208 -0.378239 14.7943 19.4132
692 1 -1.1104 12.1506 16.2985 26.2095
576 1 -1.1104 12.2773 13.2979 17.8382
578 1 -1.1104 12.3217 13.323 14.9936
587 1 -1.1104 9.33189 13.4931 17.9376
590 1 -1.1104 9.2746 13.5017 15.1074
594 2 2.2208 7.95092 14.8858 16.5761
553 1 -1.1104 6.42004 16.1979 17.9771
550 1 -1.1104 6.43082 18.9455 15.2856
583 2 2.2208 10.6279 14.6849 19.4011
575 2 2.2208 10.6907 17.6351 16.6819
577 1 -1.1104 12.2725 18.8135 17.8869
580 1 -1.1104 11.9805 18.8474 15.1796
582 1 -1.1104 12.1758 16.0415 18.0141
584 2 2.2208 10.8962 20.2548 19.277
585 1 -1.1104 12.2821 16.0706 15.2406
588 1 -1.1104 9.55032 18.8691 18.113
589 2 2.2208 8.01812 17.586 19.377
592 1 -1.1104 9.4123 19.1077 15.0953
595 2 2.2208 7.96932 20.3348 16.5749
596 1 -1.1104 9.43982 16.167 18.1632
597 1 -1.1104 9.29652 16.4075 15.4843
602 2 2.2208 13.5347 17.6043 24.9372
538 2 2.2208 13.577 12.0332 19.4225
598 1 -1.1104 9.34803 16.0954 20.9327
637 2 2.2208 -0.439133 0.805368 22.0008
406 1 -1.1104 0.974504 -3.62468 20.561
427 1 -1.1104 3.7152 2.24112 20.611
434 2 2.2208 5.25556 -4.99541 16.5157
603 2 2.2208 5.21426 0.800236 22.1075
604 1 -1.1104 1.04919 -3.42762 23.409
608 1 -1.1104 1.13506 -3.54816 26.284
612 1 -1.1104 0.905523 -0.657598 23.3078
614 2 2.2208 5.36885 -2.06772 24.9229
616 1 -1.1104 0.980708 -0.908458 26.4629
618 1 -1.1104 3.90499 -3.41621 23.4658
620 2 2.2208 2.33378 0.728947 24.872
621 1 -1.1104 3.81493 -3.55934 26.3522
623 2 2.2208 2.30491 -2.10657 22.0553
625 1 -1.1104 3.78309 -0.562499 23.4687
626 1 -1.1104 3.86786 -0.829663 26.3054
605 1 -1.1104 1.02813 2.11324 23.6146
609 1 -1.1104 1.21867 2.05142 26.4406
615 2 2.2208 5.2359 3.51114 24.999
619 1 -1.1104 3.79837 2.30739 23.5189
622 1 -1.1104 3.92374 1.99887 26.3092
624 2 2.2208 2.50201 3.72196 22.1292
627 2 2.2208 13.5154 20.4928 22.2624
636 2 2.2208 -0.387285 -2.19719 24.8288
638 2 2.2208 -0.292441 3.64379 24.9315
357 2 2.2208 2.37508 11.9163 13.6821
459 1 -1.1104 9.39472 -3.45169 20.8785
449 1 -1.1104 12.2145 1.9059 20.5881
628 2 2.2208 10.7385 17.3535 22.2303
717 1 -1.1104 9.75397 13.3854 26.387
613 1 -1.1104 6.5482 -0.750722 23.4382
610 1 -1.1104 6.97664 -3.31228 26.4357
447 1 -1.1104 12.2697 -3.6505 20.5532
466 1 -1.1104 9.39096 -0.527188 20.9018
412 1 -1.1104 6.63057 2.19423 20.6114
420 1 -1.1104 6.50969 -0.887401 20.721
454 1 -1.1104 12.3048 -0.911967 20.7439
461 1 -1.1104 9.65908 2.13943 20.8217
611 1 -1.1104 6.49527 2.05981 26.1976
606 1 -1.1104 6.65477 -3.5806 23.5508
617 1 -1.1104 6.68726 -0.575891 26.2303
639 2 2.2208 11.0299 0.697751 22.0684
640 1 -1.1104 12.1601 -3.49517 23.3563
642 1 -1.1104 12.4883 -3.57595 26.4623
644 1 -1.1104 12.3888 -0.841128 23.5581
645 2 2.2208 10.923 -2.10517 25.0339
647 1 -1.1104 12.2874 -0.761385 26.4102
648 1 -1.1104 9.28407 -3.56686 23.5377
650 2 2.2208 8.14301 0.712411 24.9643
651 1 -1.1104 9.5852 -3.64978 26.5135
653 2 2.2208 7.94094 -2.10153 22.0768
655 1 -1.1104 9.5971 -0.683743 23.691
656 1 -1.1104 9.65141 -0.671675 26.555
607 1 -1.1104 6.67018 2.00965 23.3232
641 1 -1.1104 12.5716 2.02924 23.4579
643 1 -1.1104 12.3005 2.08436 26.393
646 2 2.2208 10.9516 3.44936 24.9142
649 1 -1.1104 9.59849 2.01208 23.6011
652 1 -1.1104 9.48419 2.11595 26.339
654 2 2.2208 8.0439 3.62762 22.0904
376 2 2.2208 2.41982 -2.12771 27.7381
579 1 -1.1104 12.1447 13.3462 20.7361
365 2 2.2208 5.20498 14.6707 13.6733
492 1 -1.1104 0.965707 10.585 20.9057
508 1 -1.1104 3.85382 10.429 20.6679
668 2 2.2208 5.33771 6.43812 21.9933
670 1 -1.1104 1.02034 7.86837 23.5651
672 1 -1.1104 1.016 7.84922 26.396
674 1 -1.1104 0.958088 5.13169 23.5768
679 1 -1.1104 1.17859 4.93594 26.4641
683 1 -1.1104 4.01781 7.68777 23.5196
684 2 2.2208 2.44402 6.46215 25.0615
686 1 -1.1104 3.79101 7.60571 26.5353
688 1 -1.1104 3.76343 5.05317 23.418
690 1 -1.1104 3.94527 4.84964 26.3648
669 2 2.2208 5.12545 11.8425 22.1628
675 1 -1.1104 0.99305 10.7228 23.6054
678 2 2.2208 5.23083 9.10733 24.8493
680 1 -1.1104 0.942435 10.6126 26.3975
685 2 2.2208 2.2386 11.9904 25.2743
687 2 2.2208 2.44856 9.08419 22.2949
689 1 -1.1104 3.72054 10.6127 23.62
691 1 -1.1104 3.8708 10.4776 26.4267
682 1 -1.1104 6.68251 10.4786 26.3232
676 1 -1.1104 6.42589 4.9468 23.5412
681 1 -1.1104 6.8071 4.92097 26.4198
671 1 -1.1104 6.69918 7.81086 23.5
494 1 -1.1104 6.65072 4.9117 20.6964
528 1 -1.1104 9.37574 7.70389 20.8121
496 1 -1.1104 6.55972 10.4629 20.6189
483 1 -1.1104 6.65643 7.69471 20.6912
533 1 -1.1104 9.55175 5.02313 20.6948
677 1 -1.1104 6.6827 10.3859 23.4938
516 1 -1.1104 12.2485 7.84435 20.8915
673 1 -1.1104 6.60469 7.75081 26.1712
700 1 -1.1104 9.58039 4.81314 26.4266
702 1 -1.1104 9.39629 5.06117 23.4689
704 1 -1.1104 9.41145 7.59394 26.4763
706 2 2.2208 8.0673 6.27425 24.9994
707 2 2.2208 10.8535 6.39833 22.1478
709 1 -1.1104 12.1857 7.44407 23.6236
710 1 -1.1104 12.1407 7.64797 26.4724
711 1 -1.1104 12.1956 4.87875 23.3993
714 1 -1.1104 12.309 4.90593 26.3611
716 1 -1.1104 9.49347 7.77788 23.7329
699 1 -1.1104 9.46458 10.665 26.4964
701 1 -1.1104 9.52077 10.4914 23.4518
703 2 2.2208 7.96506 9.22821 22.0371
705 2 2.2208 8.19284 11.7634 24.9797
708 2 2.2208 10.9092 11.9863 22.3131
712 1 -1.1104 12.2262 10.3283 23.6103
713 2 2.2208 10.9304 8.95425 24.8971
715 1 -1.1104 12.1349 10.5302 26.3449
664 2 2.2208 10.8333 14.7426 25.1026
368 2 2.2208 10.768 20.4004 13.6699
730 1 -1.1104 6.76342 18.8497 23.6379
667 2 2.2208 10.8959 20.3868 24.8979
549 1 -1.1104 6.52443 13.258 20.9142
746 1 -1.1104 9.47683 15.9557 23.6101
559 1 -1.1104 6.676 16.1206 20.6668
557 1 -1.1104 1.11248 16.192 20.9702
545 1 -1.1104 0.904689 13.2923 20.6335
547 1 -1.1104 0.836722 18.9389 20.709
571 1 -1.1104 3.77994 16.0316 20.8564
566 1 -1.1104 3.6866 18.9798 20.8323
564 1 -1.1104 3.68573 13.2904 20.8711
725 1 -1.1104 3.93244 13.5104 23.6499
729 1 -1.1104 0.816201 13.4537 26.4717
735 1 -1.1104 0.920136 13.3311 23.6561
740 1 -1.1104 3.82939 13.2722 26.3798
732 2 2.2208 5.31447 14.62 25.1453
723 1 -1.1104 4.03661 19.2098 23.4543
727 1 -1.1104 1.09357 19.0385 26.3928
728 1 -1.1104 0.973519 16.2353 26.3409
731 2 2.2208 5.24061 20.4722 25.0233
734 1 -1.1104 1.02238 19.0153 23.7038
736 2 2.2208 5.15001 17.4783 22.2063
737 1 -1.1104 3.99487 19.1167 26.1551
738 2 2.2208 2.4169 17.6125 24.8678
739 1 -1.1104 3.64348 16.1265 26.4036
742 1 -1.1104 0.894938 16.1245 23.6594
743 1 -1.1104 3.78142 16.1988 23.6223
744 2 2.2208 2.4889 20.4203 22.1474
745 2 2.2208 2.41689 14.6112 22.3592
551 1 -1.1104 6.47186 18.9511 20.9878
698 1 -1.1104 6.81064 18.8395 26.4996
733 1 -1.1104 6.62271 13.224 23.6181
693 1 -1.1104 9.60454 13.2092 23.6028
695 2 2.2208 8.09377 17.5305 25.1282
635 1 -1.1104 12.2098 18.9622 23.5144
657 1 -1.1104 12.3641 13.4216 26.3906
724 1 -1.1104 6.86417 13.3027 26.4237
629 1 -1.1104 12.4305 13.2574 23.4286
573 2 2.2208 13.597 9.25332 16.6027
586 1 -1.1104 12.2599 16.2414 20.8461
694 1 -1.1104 9.37742 18.8412 23.5293
659 1 -1.1104 12.1751 16.1062 23.6029
721 2 2.2208 8.04912 20.3472 22.165
591 1 -1.1104 9.35276 13.3039 20.8807
726 1 -1.1104 6.57905 16.0675 26.5082
718 1 -1.1104 9.44698 18.8844 26.3299
593 1 -1.1104 9.38938 18.972 20.7796
747 1 -1.1104 9.421 16.0419 26.4878
658 1 -1.1104 12.2374 19.2556 26.2452
373 2 2.2208 5.21582 0.591935 27.6732
666 2 2.2208 13.5233 0.816811 24.9539
349 2 2.2208 5.19623 3.58858 13.6322
510 2 2.2208 13.5118 14.8099 16.5887
631 2 2.2208 -0.463525 -4.87409 22.0881
352 2 2.2208 8.07655 0.76361 13.7346
439 2 2.2208 2.46155 -4.85411 13.6665
389 2 2.2208 5.45496 12.089 27.7415
348 2 2.2208 2.52107 0.783628 13.6886
399 2 2.2208 -0.317602 17.6109 27.7542
355 2 2.2208 2.35955 6.50878 13.7436
379 2 2.2208 8.22571 20.2897 27.6224
751 2 2.2208 5.28545 23.3618 5.32244
753 1 -1.1104 0.879856 24.7923 1.21876
754 1 -1.1104 0.983579 24.7496 4.0079
755 1 -1.1104 1.02706 22.0007 0.97538
757 2 2.2208 5.23247 26.1843 2.48156
758 1 -1.1104 0.854754 21.9884 3.76793
760 1 -1.1104 3.80186 24.6791 1.12324
761 2 2.2208 2.26304 23.452 2.44567
763 1 -1.1104 3.9154 24.8592 3.93981
764 2 2.2208 2.48139 26.2355 5.31229
765 1 -1.1104 3.83321 21.8223 0.884845
766 1 -1.1104 3.65981 27.5005 0.992824
767 1 -1.1104 3.67584 22.0234 3.77505
759 1 -1.1104 0.839956 27.5358 3.83461
768 1 -1.1104 3.91074 27.547 3.91447
756 1 -1.1104 0.890643 27.4206 1.12813
752 2 2.2208 5.19325 28.8715 5.30631
762 2 2.2208 2.45948 28.9364 2.33148
1676 1 -1.1104 3.70847 47.2741 9.60781
894 1 -1.1104 0.966682 22.0563 6.61474
772 1 -1.1104 6.69388 24.6058 1.03133
1481 1 -1.1104 3.80489 47.1526 1.06187
892 1 -1.1104 1.01582 24.7346 6.74644
898 1 -1.1104 3.9152 24.6914 6.78643
869 2 2.2208 -0.364573 42.8834 2.68717
1689 1 -1.1104 9.163 46.7295 6.64586
776 1 -1.1104 6.67202 21.8371 3.86541
1104 2 2.2208 10.7568 40.1323 -0.157598
775 1 -1.1104 6.5085 27.5161 1.02587
774 1 -1.1104 6.8358 21.7372 0.956
773 1 -1.1104 6.6501 24.7197 3.91383
777 1 -1.1104 6.70398 27.4979 3.96561
778 2 2.2208 10.874 23.2671 5.23362
780 1 -1.1104 12.4231 24.6088 0.982287
781 1 -1.1104 12.4464 24.6857 3.78145
782 1 -1.1104 12.2855 21.7202 0.96686
783 1 -1.1104 12.2436 27.5985 1.02713
784 2 2.2208 11.1211 26.1968 2.43776
785 1 -1.1104 12.1232 21.7824 3.68183
787 1 -1.1104 9.72707 24.5448 0.929707
788 2 2.2208 8.15033 23.293 2.54259
790 1 -1.1104 9.66237 24.7352 3.75941
791 2 2.2208 8.20805 25.9932 5.26868
792 1 -1.1104 9.3859 21.7473 1.01167
794 1 -1.1104 9.3615 21.84 3.75611
786 1 -1.1104 12.2798 27.5095 3.82518
793 1 -1.1104 9.54747 27.4048 0.846536
795 1 -1.1104 9.62773 27.3595 3.69824
779 2 2.2208 10.8154 28.8738 5.23088
789 2 2.2208 8.05503 28.9424 2.53209
1064 2 2.2208 13.5685 37.333 5.27576
798 2 2.2208 13.7627 26.1548 5.12332
930 1 -1.1104 9.64163 27.544 6.7436
1687 1 -1.1104 12.275 47.0676 6.69691
1076 2 2.2208 -0.452094 31.6409 8.16601
800 1 -1.1104 1.05866 30.3932 1.01101
803 1 -1.1104 0.980509 30.1786 3.89374
806 1 -1.1104 0.942554 33.2038 0.959092
807 2 2.2208 4.98845 31.7179 2.4243
809 1 -1.1104 0.91158 33.1362 3.69951
811 1 -1.1104 3.71446 30.391 1.02506
814 1 -1.1104 3.69262 30.3289 3.83651
816 2 2.2208 2.29992 31.489 5.2881
818 1 -1.1104 3.69792 33.1966 1.12361
819 1 -1.1104 3.71785 33.1228 3.90446
799 2 2.2208 5.10195 34.4498 5.15718
801 1 -1.1104 0.882091 36.0118 1.11899
804 1 -1.1104 1.05383 35.7719 4.11345
808 2 2.2208 5.15805 37.3868 2.5326
812 1 -1.1104 3.77725 35.8415 0.903283
813 2 2.2208 2.23556 34.4878 2.56364
815 1 -1.1104 3.66821 35.9863 3.87989
817 2 2.2208 2.35549 37.3579 5.43272
810 1 -1.1104 6.57485 32.9165 3.85521
1129 2 2.2208 -0.348326 40.0256 -0.204555
1118 2 2.2208 2.4068 31.6207 -0.399368
1119 2 2.2208 5.20433 34.383 -0.306601
825 1 -1.1104 6.45647 32.949 1.06689
824 1 -1.1104 6.8607 30.2466 3.89387
805 1 -1.1104 6.57818 35.8405 3.70492
797 2 2.2208 13.7041 28.8923 2.3689
1109 2 2.2208 5.13027 28.7777 -0.405219
802 1 -1.1104 6.44991 35.9241 1.04224
823 1 -1.1104 6.47782 30.2369 1.07988
827 1 -1.1104 12.3441 30.3464 0.942101
829 1 -1.1104 12.3025 30.3458 3.88345
831 1 -1.1104 12.3863 33.2108 1.02647
832 2 2.2208 10.938 31.8071 2.37951
834 1 -1.1104 12.2555 33.2479 3.94555
835 1 -1.1104 9.41666 30.4001 1.17484
838 1 -1.1104 9.44147 30.3442 3.93583
840 2 2.2208 8.09708 31.5692 5.25017
842 1 -1.1104 9.37507 33.0619 1.04387
843 1 -1.1104 9.44441 33.128 3.88727
826 2 2.2208 10.8316 34.4874 5.27315
828 1 -1.1104 12.1604 36.1264 1.24962
830 1 -1.1104 12.1601 36.0787 3.85261
833 2 2.2208 10.7425 37.3158 2.62321
836 1 -1.1104 9.3239 35.7833 1.01633
837 2 2.2208 7.95647 34.3914 2.54228
839 1 -1.1104 9.37814 35.7084 3.82401
841 2 2.2208 8.00152 37.2237 5.30168
1110 2 2.2208 -0.341237 28.8531 -0.232423
1117 2 2.2208 2.26043 37.2488 -0.268108