ITEM: TIMESTEP
70000
ITEM: NUMBER OF ATOMS
17760
ITEM: BOX BOUNDS pp pp pp
-4.4745600536752284e-01 2.7787456005368128e+01
-5.4633471995852609e+00 3.3354334719959076e+02
-4.4526367561039792e-01 2.7785263675610093e+01
ITEM: ATOMS id type q x y z
1 2 2.2208 5.04139 -0.118937 5.2954
2 1 -1.1104 0.974728 -4.18429 1.10677
6 1 -1.1104 0.929134 -4.22384 3.89447
10 1 -1.1104 0.857316 -1.16942 1.09405
12 2 2.2208 5.04952 -2.80015 2.44302
14 1 -1.1104 0.898728 -1.55576 3.93008
16 1 -1.1104 3.65596 -4.13924 1.13849
18 2 2.2208 2.47936 0.0587847 2.2884
19 1 -1.1104 3.90604 -4.13962 4.10472
21 2 2.2208 2.34651 -2.74003 5.28294
23 1 -1.1104 3.70368 -1.28727 0.745416
24 1 -1.1104 3.64384 -1.53541 3.8251
329 2 2.2208 8.05598 2.71819 -0.155819
11 1 -1.1104 6.5252 -1.45082 1.04675
168 1 -1.1104 6.37199 -4.08542 6.76966
4 1 -1.1104 6.55946 -4.11385 1.01171
15 1 -1.1104 6.30811 -1.25667 3.88304
8 1 -1.1104 6.69693 -4.0875 3.94982
327 2 2.2208 10.7159 -0.123433 -0.0930334
170 1 -1.1104 1.03957 -1.17408 6.65984
373 2 2.2208 2.56232 14.1015 -0.474867
31 2 2.2208 11.0026 0.134116 5.20859
32 1 -1.1104 12.0553 -4.24135 1.24753
34 1 -1.1104 12.2353 -4.10255 4.0247
36 1 -1.1104 12.2784 -1.38466 0.903035
37 2 2.2208 10.7143 -2.90595 2.47848
39 1 -1.1104 12.1536 -1.47124 3.77421
40 1 -1.1104 9.36337 -4.19188 1.08435
42 2 2.2208 7.83299 -0.23954 2.47559
43 1 -1.1104 9.34909 -4.26244 3.9528
45 2 2.2208 8.01019 -2.69853 5.4962
47 1 -1.1104 9.3126 -1.41624 1.20178
48 1 -1.1104 9.32712 -1.51831 4.10801
207 1 -1.1104 12.1949 -1.39699 6.65792
8816 2 2.2208 -0.42974 0.116303 -0.146916
8517 2 2.2208 -0.278132 13.9641 8.18913
205 1 -1.1104 12.1147 -4.11046 6.74887
8651 2 2.2208 13.4485 2.85387 10.8975
328 2 2.2208 7.97063 -2.83838 -0.292788
288 1 -1.1104 6.44259 18.3094 9.68902
53 1 -1.1104 12.2808 18.3453 9.29452
8614 2 2.2208 13.5383 13.8405 5.1998
7 1 -1.1104 1.1552 1.05354 3.7609
3 1 -1.1104 0.76784 1.6278 0.959013
13 2 2.2208 5.17212 2.8252 2.55198
17 1 -1.1104 3.5177 1.71856 1.14135
20 1 -1.1104 3.72882 1.39744 3.98625
22 2 2.2208 2.48606 2.86649 5.2663
54 2 2.2208 5.30436 5.71643 5.32295
56 1 -1.1104 1.19849 7.33982 1.33195
60 1 -1.1104 0.928316 4.44117 1.02896
67 1 -1.1104 0.815221 3.98848 3.91763
71 1 -1.1104 4.03132 6.99753 0.975286
72 2 2.2208 2.4082 5.70695 2.36847
76 1 -1.1104 3.79817 4.21295 0.890449
79 1 -1.1104 3.65535 4.22483 4.02631
58 1 -1.1104 1.01438 6.95017 3.92618
74 1 -1.1104 3.93108 7.07808 3.83069
57 1 -1.1104 6.66851 6.97583 1.02793
9 1 -1.1104 6.615 1.33395 3.61738
59 1 -1.1104 6.74415 6.96135 3.80103
5 1 -1.1104 6.487 1.3619 1.06267
69 1 -1.1104 6.52337 4.31742 3.88049
136 2 2.2208 -0.360578 19.7329 2.48537
236 1 -1.1104 1.24134 4.22782 6.63054
234 1 -1.1104 0.985333 7.0977 6.97388
237 1 -1.1104 6.84959 4.28855 6.86558
318 2 2.2208 7.86927 19.699 -0.427043
440 2 2.2208 2.37712 5.38614 13.5918
135 2 2.2208 -0.167047 14.0764 2.43155
63 1 -1.1104 6.67125 4.07081 0.91784
326 2 2.2208 -0.456612 2.64386 13.6072
33 1 -1.1104 12.134 1.39945 0.969827
35 1 -1.1104 12.1726 1.3219 3.7654
38 2 2.2208 10.7948 2.84111 2.3728
41 1 -1.1104 9.51338 1.37476 1.19724
44 1 -1.1104 9.39032 1.39622 3.93616
46 2 2.2208 7.95673 2.54714 5.14787
84 2 2.2208 10.8662 5.29565 5.15749
88 1 -1.1104 12.3517 4.16881 0.795489
92 1 -1.1104 12.3729 3.91653 3.85677
94 1 -1.1104 9.39543 7.14005 0.954635
95 2 2.2208 8.08272 5.66241 2.45295
99 1 -1.1104 9.45196 4.33268 1.17952
102 1 -1.1104 9.3449 4.18162 3.7975
97 1 -1.1104 9.59485 6.96031 3.84564
267 1 -1.1104 9.29933 6.94798 6.68682
87 1 -1.1104 12.3788 6.80937 3.88116
86 1 -1.1104 12.2227 6.99494 1.15518
209 1 -1.1104 9.4645 1.29665 6.60851
235 1 -1.1104 6.68077 7.02884 6.76419
266 1 -1.1104 12.4932 3.968 6.79902
55 2 2.2208 5.33027 11.0283 5.0753
61 1 -1.1104 0.776811 10.0081 1.0557
66 2 2.2208 5.25355 8.40186 2.44167
68 1 -1.1104 1.14209 9.6601 3.898
73 2 2.2208 2.30803 11.1694 2.44833
75 2 2.2208 2.50488 8.34308 5.28629
77 1 -1.1104 3.84071 9.91407 1.09949
80 1 -1.1104 3.94705 9.87954 3.82884
107 1 -1.1104 1.04972 12.8427 0.930311
113 1 -1.1104 0.926613 12.5033 4.03002
123 1 -1.1104 3.77564 12.6524 1.05831
128 1 -1.1104 3.81502 12.665 3.77532
64 1 -1.1104 6.61888 9.79135 0.903427
108 1 -1.1104 1.13426 12.6586 6.8356
115 1 -1.1104 6.54135 12.4041 3.72962
110 1 -1.1104 6.67268 12.846 1.04117
8728 2 2.2208 13.5369 11.2533 7.9938
65 1 -1.1104 6.59362 9.70155 6.66
8677 2 2.2208 13.6498 -2.69172 5.3447
8866 2 2.2208 13.6239 8.58318 -0.152721
70 1 -1.1104 6.77882 9.73209 3.71602
85 2 2.2208 10.5868 11.2335 5.18597
89 1 -1.1104 12.1734 9.82792 1.00904
91 2 2.2208 10.8854 8.28897 2.49234
93 1 -1.1104 12.2195 9.86061 3.92329
96 2 2.2208 8.00156 11.2415 2.38939
98 2 2.2208 8.10799 8.41187 5.29088
100 1 -1.1104 9.3863 9.89378 1.09554
103 1 -1.1104 9.4325 9.69798 4.03096
142 1 -1.1104 12.3244 12.7696 1.22844
146 1 -1.1104 12.0275 12.4853 3.89544
153 1 -1.1104 9.37728 12.6707 0.698243
158 1 -1.1104 9.14029 12.8957 3.81371
25 2 2.2208 13.5694 16.8086 8.03266
143 1 -1.1104 12.3639 12.6956 6.72831
154 1 -1.1104 9.6628 12.5062 6.82175
101 1 -1.1104 9.41713 9.77353 6.7445
149 1 -1.1104 12.0386 15.5222 6.53509
130 2 2.2208 2.53685 14.0211 5.3335
119 2 2.2208 5.11364 14.0731 2.42065
106 2 2.2208 5.16587 16.8027 5.20304
109 1 -1.1104 0.874326 18.244 0.96318
114 1 -1.1104 0.856837 18.1508 3.71005
116 1 -1.1104 1.06809 15.3698 0.938411
120 2 2.2208 5.17772 19.5573 2.42353
121 1 -1.1104 1.24549 15.3949 3.87528
125 1 -1.1104 3.85998 18.3905 1.01536
127 2 2.2208 2.40132 16.8584 2.39527
129 1 -1.1104 3.61848 18.3574 3.92296
131 2 2.2208 2.39116 19.6907 5.28104
132 1 -1.1104 3.71163 15.4054 0.974434
134 1 -1.1104 3.90475 15.6415 3.63368
140 1 -1.1104 6.50971 15.5818 1.0558
112 1 -1.1104 6.46752 18.0771 6.75447
139 1 -1.1104 6.3627 18.2661 3.90704
118 1 -1.1104 6.42038 15.4351 6.60883
117 1 -1.1104 1.03404 15.3999 6.58909
325 2 2.2208 2.3504 3.03953 -0.367522
650 2 2.2208 10.9011 11.2302 -0.345138
313 2 2.2208 8.06104 16.8764 8.10366
27 2 2.2208 10.9352 17.0339 10.9477
138 1 -1.1104 6.60461 18.2335 0.857996
160 2 2.2208 7.97641 14.3262 5.17684
122 1 -1.1104 6.65917 15.4194 3.94949
150 2 2.2208 10.9206 14.1258 2.4625
141 2 2.2208 10.9871 16.9045 5.0953
144 1 -1.1104 12.0732 18.2399 0.848824
147 1 -1.1104 12.2934 18.3797 3.8555
148 1 -1.1104 12.41 15.6153 1.02939
151 2 2.2208 10.8253 19.5225 2.17212
152 1 -1.1104 12.2878 15.2066 3.83915
155 1 -1.1104 9.23692 18.0685 0.893722
157 2 2.2208 7.93795 16.8702 2.33236
159 1 -1.1104 9.42386 18.3498 3.57032
161 2 2.2208 8.0651 19.5701 5.29563
162 1 -1.1104 9.43851 15.415 1.09366
164 1 -1.1104 9.55273 15.5947 3.86578
163 1 -1.1104 9.1775 15.5131 6.6183
145 1 -1.1104 12.3606 18.1407 6.48226
156 1 -1.1104 9.60789 18.3699 6.60059
201 2 2.2208 -0.393254 0.0398697 10.8797
104 2 2.2208 10.8495 14.044 8.13263
166 1 -1.1104 0.732515 -4.03153 6.57515
174 1 -1.1104 3.70062 -1.52645 6.88916
172 1 -1.1104 3.65819 -4.39016 6.8127
175 2 2.2208 5.34945 0.0536658 10.8889
176 1 -1.1104 0.763335 -4.22313 12.2848
180 1 -1.1104 0.881258 -4.29608 9.59049
184 1 -1.1104 0.990478 -1.50164 12.2193
186 2 2.2208 5.01752 -2.77713 8.15695
188 1 -1.1104 0.999643 -1.39483 9.42138
190 1 -1.1104 3.79681 -4.08504 12.3811
192 2 2.2208 2.25735 0.146691 8.07233
193 1 -1.1104 3.55025 -4.06707 9.5241
195 2 2.2208 2.31227 -2.87107 10.9589
197 1 -1.1104 3.69724 -1.41348 12.2829
198 1 -1.1104 3.72457 -1.3681 9.58597
171 1 -1.1104 6.60595 -1.35951 6.65127
178 1 -1.1104 6.4678 -4.17842 12.2246
182 1 -1.1104 6.45484 -4.25066 9.45098
185 1 -1.1104 6.54885 -1.33994 12.1538
203 2 2.2208 7.92256 19.6405 10.8402
8676 2 2.2208 -0.412164 11.2402 5.15641
8518 2 2.2208 13.5575 -0.210401 8.26534
82 2 2.2208 -0.384895 8.36053 2.52996
202 2 2.2208 8.00211 14.2629 10.7979
189 1 -1.1104 6.58952 -1.45372 9.30038
210 1 -1.1104 9.43728 -1.38819 6.8054
208 1 -1.1104 9.09734 -4.22462 6.73056
211 2 2.2208 10.6113 -0.0790839 11.0639
212 1 -1.1104 12.1767 -4.14705 12.2313
214 1 -1.1104 12.438 -4.03581 9.51851
216 1 -1.1104 12.2977 -1.28966 12.44
217 2 2.2208 10.9278 -2.85217 8.08814
219 1 -1.1104 12.1195 -1.30679 9.71631
220 1 -1.1104 9.27643 -4.20918 12.3518
222 2 2.2208 7.93086 0.0442305 7.95495
223 1 -1.1104 9.52124 -4.25605 9.51469
225 2 2.2208 8.01519 -2.81397 10.9007
227 1 -1.1104 9.29387 -1.52998 12.3361
228 1 -1.1104 9.30827 -1.5865 9.42435
306 1 -1.1104 6.61407 15.3759 12.3273
231 1 -1.1104 9.59854 15.2873 12.1324
8711 2 2.2208 13.5071 0.0714683 2.18217
52 1 -1.1104 9.37399 18.2766 9.62316
173 1 -1.1104 3.62139 1.39242 6.62341
239 1 -1.1104 3.95196 4.31589 6.67381
167 1 -1.1104 0.826783 1.56411 6.70476
238 1 -1.1104 3.8615 7.19026 6.86686
177 1 -1.1104 0.827082 1.2534 12.448
181 1 -1.1104 0.826743 1.47723 9.61629
187 2 2.2208 5.2383 2.93735 7.96047
191 1 -1.1104 3.52026 1.4015 12.2945
194 1 -1.1104 3.65282 1.43501 9.38246
196 2 2.2208 2.39437 2.8214 10.7015
240 2 2.2208 5.12344 5.67836 11.0391
246 1 -1.1104 1.01303 4.10121 12.2507
251 1 -1.1104 0.92168 4.37545 9.34892
256 2 2.2208 2.45701 5.7278 8.16635
260 1 -1.1104 3.85185 4.26114 12.2775
262 1 -1.1104 3.82252 4.36858 9.47922
242 1 -1.1104 0.747859 6.77707 12.4351
244 1 -1.1104 0.863007 7.1088 9.52674
255 1 -1.1104 3.66539 7.04953 12.2391
258 1 -1.1104 3.67928 6.94359 9.49409
183 1 -1.1104 6.57004 1.4429 9.30579
243 1 -1.1104 6.51722 7.09833 12.3795
245 1 -1.1104 6.57793 7.08191 9.56723
265 1 -1.1104 12.2628 6.87676 6.5222
179 1 -1.1104 6.54081 1.48436 12.2686
248 1 -1.1104 6.55196 4.26475 12.2523
169 1 -1.1104 6.34337 1.55807 6.49038
206 1 -1.1104 12.3482 1.07987 6.58415
269 1 -1.1104 9.56563 4.12142 6.55411
253 1 -1.1104 6.54921 4.16223 9.55275
213 1 -1.1104 12.1527 1.34069 12.3935
215 1 -1.1104 12.1182 1.36506 9.47581
218 2 2.2208 10.9428 2.7366 8.00249
221 1 -1.1104 9.24341 1.3629 12.3659
224 1 -1.1104 9.28435 1.21015 9.43358
226 2 2.2208 8.07171 2.86208 10.9312
268 1 -1.1104 9.40769 4.06512 9.25202
271 1 -1.1104 9.47393 4.2516 12.07
275 2 2.2208 8.05059 5.54261 8.01574
276 2 2.2208 10.9398 5.70098 10.9101
278 1 -1.1104 12.3255 7.12152 12.1319
279 1 -1.1104 12.4511 6.99939 9.3152
280 1 -1.1104 12.3639 4.07296 12.4067
283 1 -1.1104 12.2265 4.17798 9.61352
273 1 -1.1104 9.31888 7.04049 9.27578
285 1 -1.1104 9.41348 6.84775 12.0393
26 2 2.2208 -0.301304 -0.105688 5.24063
83 1 -1.1104 12.4378 15.6537 12.1168
78 1 -1.1104 3.92353 9.70659 6.55282
124 1 -1.1104 3.97404 12.5362 6.60404
62 1 -1.1104 0.867707 9.69438 6.59255
111 1 -1.1104 6.85621 12.7268 6.66658
241 2 2.2208 5.11438 11.2498 10.8328
247 1 -1.1104 0.874107 9.70004 12.2486
250 2 2.2208 5.26436 8.50773 8.13032
252 1 -1.1104 0.911676 9.96352 9.36711
257 2 2.2208 2.42766 11.0403 7.94578
259 2 2.2208 2.38837 8.39922 10.8794
261 1 -1.1104 3.50625 9.76566 12.1608
263 1 -1.1104 3.92753 9.84993 9.5124
287 1 -1.1104 3.84842 12.5272 12.2679
294 1 -1.1104 0.917414 12.6433 9.72419
299 1 -1.1104 1.04844 12.5051 12.646
305 1 -1.1104 3.6955 12.5407 9.3759
297 1 -1.1104 6.72162 12.6008 12.0526
249 1 -1.1104 6.50645 9.98167 12.3557
254 1 -1.1104 6.66446 10.0427 9.56323
49 1 -1.1104 12.3066 18.4802 12.2024
204 1 -1.1104 12.3664 15.2895 9.39094
90 1 -1.1104 12.2841 9.94359 6.64533
290 1 -1.1104 6.43584 12.8842 9.59657
229 1 -1.1104 9.61968 12.4301 12.4539
264 1 -1.1104 9.54328 9.77524 9.62569
270 1 -1.1104 9.20975 9.57673 12.2964
272 2 2.2208 7.96732 8.30043 10.7347
274 2 2.2208 7.96677 11.3243 8.07996
277 2 2.2208 10.6676 11.3101 10.9639
281 1 -1.1104 12.2053 9.97064 12.3337
282 2 2.2208 10.8555 8.46635 8.01799
284 1 -1.1104 12.4333 9.84187 9.44783
30 1 -1.1104 12.181 12.6911 12.4649
50 1 -1.1104 12.0144 12.6901 9.61363
51 1 -1.1104 9.22304 12.7034 9.39513
105 2 2.2208 10.7676 19.6866 8.18594
398 2 2.2208 10.8023 16.7998 -0.474081
126 1 -1.1104 3.66203 18.2428 6.41834
133 1 -1.1104 3.73049 15.4048 6.58684
649 2 2.2208 8.02684 8.35541 -0.387713
8544 2 2.2208 13.6116 11.2603 2.50761
296 1 -1.1104 6.68054 18.309 12.3144
302 1 -1.1104 0.867961 18.3077 6.67897
310 2 2.2208 2.43746 14.0533 10.8167
295 2 2.2208 5.27202 14.0404 7.92804
309 2 2.2208 2.2807 19.7599 10.998
286 1 -1.1104 3.89618 18.1995 12.2498
291 1 -1.1104 0.616983 18.4886 9.81697
292 1 -1.1104 1.08917 15.309 9.30734
293 2 2.2208 5.13828 19.637 8.15511
298 1 -1.1104 1.15467 18.185 12.3684
300 2 2.2208 5.07561 16.7088 10.794
301 1 -1.1104 3.60425 18.3013 9.27254
303 2 2.2208 2.40251 16.8804 7.84836
304 1 -1.1104 3.82542 15.3743 9.42313
307 1 -1.1104 0.909233 15.2887 12.3369
308 1 -1.1104 3.75672 15.502 12.2121
289 1 -1.1104 6.61065 15.5752 9.43691
233 1 -1.1104 9.61339 18.2469 12.3998
137 2 2.2208 -0.439113 16.8412 5.23184
232 1 -1.1104 9.62432 15.5817 9.41994
467 2 2.2208 7.82409 5.66125 13.5419
625 2 2.2208 5.24781 11.3488 -0.21752
441 2 2.2208 5.09866 8.47755 13.5331
648 2 2.2208 11.0226 5.72272 -0.380113
322 2 2.2208 10.6332 2.84587 13.6508
315 2 2.2208 5.09049 -2.89954 13.6506
624 2 2.2208 2.48222 8.48227 -0.308989
320 2 2.2208 2.30195 19.5599 -0.317978
331 2 2.2208 5.05974 -0.00362386 16.631
332 1 -1.1104 1.00469 -4.18947 17.9239
336 1 -1.1104 0.883533 -4.10321 15.1348
344 1 -1.1104 1.09218 -1.36114 17.8878
346 2 2.2208 5.12422 -2.60075 19.57
348 1 -1.1104 0.866569 -1.50177 15.2334
352 1 -1.1104 3.83559 -4.16858 18.1663
354 2 2.2208 2.28054 -0.131621 19.3236
355 1 -1.1104 3.72338 -4.29071 15.2307
359 2 2.2208 2.36623 -2.86282 16.5811
361 1 -1.1104 3.7231 -1.44117 17.9991
362 1 -1.1104 3.74165 -1.53601 15.1924
334 1 -1.1104 6.54728 -4.04308 17.8914
627 1 -1.1104 6.50076 18.4494 26.2718
345 1 -1.1104 6.54836 -1.26532 18.0407
340 1 -1.1104 6.71922 -4.28565 15.0549
319 2 2.2208 7.7588 0.0529885 13.9303
9050 2 2.2208 -0.375885 19.6217 13.8585
337 1 -1.1104 0.850423 -4.34278 20.7898
351 1 -1.1104 6.46272 -1.45205 20.9968
8863 2 2.2208 13.4871 -2.62824 16.5357
350 1 -1.1104 6.37239 -1.44968 15.1111
8207 2 2.2208 10.7101 -5.43136 22.1374
374 2 2.2208 10.8339 0.136764 16.4429
375 1 -1.1104 12.3014 -4.11285 18.0256
377 1 -1.1104 12.2133 -4.34882 15.0349
381 1 -1.1104 12.1757 -1.2242 17.949
382 2 2.2208 10.8841 -2.73548 19.5775
384 1 -1.1104 12.2331 -1.36337 15.2419
386 1 -1.1104 9.40402 -4.10709 17.9831
388 2 2.2208 7.89754 0.0166828 19.4305
389 1 -1.1104 9.51725 -3.95953 15.2498
393 2 2.2208 8.02869 -2.72664 16.5544
395 1 -1.1104 9.35026 -1.15066 17.7485
396 1 -1.1104 9.47564 -1.17842 14.9559
401 2 2.2208 -0.384108 5.50141 16.5554
378 1 -1.1104 12.2771 -4.05901 20.9743
390 1 -1.1104 9.45125 -4.1855 20.7397
397 1 -1.1104 9.36953 -1.14854 20.7155
333 1 -1.1104 1.02237 1.31764 18.0394
338 1 -1.1104 0.940616 1.38323 15.1944
347 2 2.2208 5.1355 2.7867 19.3402
353 1 -1.1104 3.62559 1.30375 17.8341
357 1 -1.1104 3.75793 1.45468 15.2351
360 2 2.2208 2.21944 2.8509 16.4241
407 2 2.2208 5.1398 5.46338 16.4
411 1 -1.1104 0.897287 6.9184 15.263
415 1 -1.1104 1.0389 3.95117 17.9455
420 1 -1.1104 0.961257 4.00994 14.9505
429 2 2.2208 2.36333 5.5269 19.334
434 1 -1.1104 3.5902 4.09807 17.9967
436 1 -1.1104 3.8139 4.14678 15.1236
428 1 -1.1104 3.89863 6.98362 17.8692
431 1 -1.1104 3.80721 6.88318 15.0096
409 1 -1.1104 0.978945 6.79568 17.9844
342 1 -1.1104 6.43481 1.38923 15.2305
335 1 -1.1104 6.64438 1.50047 18.0315
424 1 -1.1104 6.49815 4.16296 14.9223
417 1 -1.1104 6.53701 4.24985 17.7072
410 1 -1.1104 6.58842 6.94945 17.8773
413 1 -1.1104 6.58995 7.02399 15.0464
365 2 2.2208 13.6496 8.23844 22.1626
437 1 -1.1104 3.72148 4.0538 20.6605
316 2 2.2208 2.35115 0.0243174 13.9089
366 2 2.2208 13.6073 2.77638 22.1628
376 1 -1.1104 11.9927 1.59577 17.9022
379 1 -1.1104 12.0041 1.39667 15.0519
383 2 2.2208 10.7052 2.92649 19.3172
387 1 -1.1104 9.42738 1.50924 17.9607
391 1 -1.1104 9.18798 1.56465 15.0201
394 2 2.2208 7.97153 2.88707 16.3739
443 2 2.2208 10.7508 5.60804 16.5156
448 1 -1.1104 12.1271 4.22421 17.7962
451 1 -1.1104 12.1487 4.13127 14.9182
456 2 2.2208 8.10013 5.80538 19.3516
461 1 -1.1104 9.29836 4.38836 17.9838
463 1 -1.1104 9.21522 4.29587 15.0791
458 1 -1.1104 9.67744 7.19355 15.1014
455 1 -1.1104 9.56236 7.15045 17.9422
445 1 -1.1104 12.3532 7.28547 18.0047
446 1 -1.1104 12.2721 6.88203 15.1121
531 2 2.2208 10.8527 13.8619 13.7212
593 2 2.2208 13.6153 0.13811 19.2488
569 1 -1.1104 12.2744 15.1444 23.3198
380 1 -1.1104 12.1259 1.46655 20.6859
595 2 2.2208 10.859 19.626 24.8843
408 2 2.2208 5.37791 11.2863 16.3892
416 1 -1.1104 0.944011 9.47311 17.9571
419 2 2.2208 5.10721 8.3914 19.375
422 1 -1.1104 1.18174 9.76798 15.3275
430 2 2.2208 2.28489 11.2968 19.3784
433 2 2.2208 2.49835 8.27355 16.5644
435 1 -1.1104 3.69179 9.62622 17.9946
438 1 -1.1104 3.85258 9.89177 14.9502
471 1 -1.1104 0.848335 12.5009 18.0104
475 1 -1.1104 1.1947 12.594 15.2675
491 1 -1.1104 3.86807 12.5817 17.9317
494 1 -1.1104 4.03322 12.7174 15.0988
479 1 -1.1104 6.75282 12.8657 15.219
439 1 -1.1104 3.82974 9.77795 20.923
426 1 -1.1104 6.69343 9.82504 15.1314
418 1 -1.1104 6.53775 9.67899 17.9004
473 1 -1.1104 6.88713 12.5425 17.9251
427 1 -1.1104 6.52048 9.74542 20.8914
480 1 -1.1104 6.57866 12.5466 20.8266
468 2 2.2208 10.8749 8.61851 13.6879
9051 2 2.2208 -0.426975 8.46372 25.02
423 1 -1.1104 1.02295 9.71638 20.5815
596 1 -1.1104 12.2435 15.5155 26.429
505 2 2.2208 5.27813 14.0236 13.6762
504 2 2.2208 5.11336 19.5528 13.7339
444 2 2.2208 11.0179 11.0676 16.4944
449 1 -1.1104 12.4462 10.0193 17.7215
450 2 2.2208 10.8836 8.48561 19.3564
453 1 -1.1104 12.4953 9.81103 15.058
457 2 2.2208 7.89663 11.1468 19.4233
460 2 2.2208 7.98227 8.35813 16.4333
462 1 -1.1104 9.45955 9.86678 18.0084
465 1 -1.1104 9.54217 9.8544 15.108
507 1 -1.1104 12.4066 12.5997 17.8101
509 1 -1.1104 12.1886 12.6142 15.1815
518 1 -1.1104 9.56449 12.4921 17.7916
521 1 -1.1104 9.46699 12.626 15.0052
317 2 2.2208 5.05712 2.67456 13.6937
454 1 -1.1104 12.3818 9.77969 20.8037
498 2 2.2208 2.54059 14.0618 16.4455
485 2 2.2208 5.15123 14.0605 19.318
470 2 2.2208 5.15232 16.8572 16.541
472 1 -1.1104 0.760046 18.1328 17.8203
477 1 -1.1104 1.23297 18.5813 15.1488
483 1 -1.1104 1.33879 15.3132 18.1349
486 2 2.2208 5.16507 19.8437 19.2289
487 1 -1.1104 0.840701 15.7346 15.2663
492 1 -1.1104 3.66307 18.4129 17.8194
493 2 2.2208 2.25111 17.0281 19.3332
496 1 -1.1104 4.00288 18.1425 15.1802
499 2 2.2208 2.40775 19.8917 16.6013
500 1 -1.1104 3.99983 15.423 17.8304
501 1 -1.1104 3.76877 15.3579 15.2016
489 1 -1.1104 6.63998 15.4212 14.9607
484 1 -1.1104 6.83792 15.2645 17.6768
474 1 -1.1104 6.62283 18.2325 17.9112
8168 2 2.2208 8.01453 -5.35502 25.0097
370 2 2.2208 -0.386999 19.7815 19.3039
369 2 2.2208 -0.37693 19.5799 24.845
530 2 2.2208 10.8619 19.9613 13.798
481 1 -1.1104 6.72592 18.2894 15.0726
490 1 -1.1104 6.7026 15.4313 20.4829
525 2 2.2208 8.2409 13.8967 16.504
514 2 2.2208 10.9164 13.9842 19.3688
506 2 2.2208 11.0465 16.7989 16.4069
508 1 -1.1104 12.508 18.1521 17.8194
511 1 -1.1104 12.4468 18.3868 14.8305
513 1 -1.1104 12.2325 15.593 17.9713
515 2 2.2208 10.6534 19.6211 19.1512
516 1 -1.1104 12.3491 15.437 14.9985
519 1 -1.1104 9.42496 18.2647 17.6956
520 2 2.2208 8.02137 16.7877 19.306
523 1 -1.1104 9.52698 18.1904 15.0138
526 2 2.2208 7.85437 19.6957 16.4499
527 1 -1.1104 9.43687 15.3097 18.0251
528 1 -1.1104 9.6966 15.4381 15.002
367 2 2.2208 8.06754 13.9084 27.6848
356 1 -1.1104 3.62825 -4.09792 21.0139
8942 2 2.2208 -0.475206 10.9263 16.4959
349 1 -1.1104 0.949289 -1.5714 20.6801
363 1 -1.1104 3.65369 -1.33265 20.8489
534 2 2.2208 5.15654 0.155721 22.3919
535 1 -1.1104 0.994711 -4.10931 23.6306
539 1 -1.1104 0.758097 -4.08708 26.559
543 1 -1.1104 0.817626 -1.38418 23.6018
545 2 2.2208 5.26321 -2.8756 24.9609
547 1 -1.1104 1.01962 -1.15561 26.6528
549 1 -1.1104 4.06467 -4.12109 23.6328
551 2 2.2208 2.40016 0.0230405 25.1189
552 1 -1.1104 3.51948 -4.13892 26.4406
554 2 2.2208 2.2087 -2.72183 22.1657
556 1 -1.1104 3.76044 -1.25245 23.6475
557 1 -1.1104 3.75064 -1.49066 26.2683
341 1 -1.1104 6.62165 -4.22152 20.7237
544 1 -1.1104 6.62515 -1.30108 23.6044
548 1 -1.1104 6.69161 -1.38568 26.3243
541 1 -1.1104 6.50481 -4.19868 26.4449
8821 2 2.2208 13.5689 19.8194 27.7767
364 2 2.2208 13.5978 16.8433 25.1492
537 1 -1.1104 6.78845 -4.13279 23.5351
385 1 -1.1104 12.2732 -1.21235 20.6465
570 2 2.2208 10.8027 0.0985115 22.1388
571 1 -1.1104 12.4702 -4.05214 23.6442
573 1 -1.1104 12.3864 -4.08177 26.4627
575 1 -1.1104 12.0158 -1.18247 23.3286
576 2 2.2208 10.8133 -2.54427 25.0119
578 1 -1.1104 12.3258 -1.49275 26.1377
579 1 -1.1104 9.45966 -4.22225 23.7719
581 2 2.2208 8.03818 0.123696 24.9393
582 1 -1.1104 9.48658 -4.14726 26.4995
584 2 2.2208 7.87587 -2.55188 22.1375
586 1 -1.1104 9.16298 -1.42329 23.5776
587 1 -1.1104 9.55694 -1.61861 26.5906
324 2 2.2208 2.1151 -2.71007 27.815
421 1 -1.1104 0.853746 4.09732 20.7886
414 1 -1.1104 6.68039 7.10342 20.5486
412 1 -1.1104 1.00306 6.91149 20.7274
339 1 -1.1104 0.768004 1.26572 20.7219
432 1 -1.1104 3.93343 6.96422 20.601
358 1 -1.1104 4.10847 1.44854 20.8562
536 1 -1.1104 0.836891 1.3844 23.5759
540 1 -1.1104 1.13859 1.66678 26.3502
546 2 2.2208 5.04834 2.98285 25.3081
550 1 -1.1104 3.74684 1.4408 23.7684
553 1 -1.1104 3.70105 1.45835 26.621
555 2 2.2208 2.41267 2.74546 22.3226
599 2 2.2208 5.30519 5.60696 22.0305
605 1 -1.1104 0.890935 4.19043 23.818
610 1 -1.1104 0.840348 4.37459 26.5933
614 1 -1.1104 3.97722 7.06672 23.4775
615 2 2.2208 2.37406 5.67626 24.8889
619 1 -1.1104 3.91468 4.24155 23.308
621 1 -1.1104 3.72564 4.56988 26.3002
603 1 -1.1104 1.1575 7.25336 26.5739
601 1 -1.1104 0.942537 7.12683 23.6718
612 1 -1.1104 6.8167 4.30593 26.5745
602 1 -1.1104 6.79584 6.70403 23.5038
542 1 -1.1104 6.44675 1.45838 26.4857
617 1 -1.1104 3.92531 7.37726 26.4743
425 1 -1.1104 6.65134 4.27187 20.7479
538 1 -1.1104 6.51429 1.38587 23.9719
607 1 -1.1104 6.69271 4.10226 23.7379
604 1 -1.1104 6.58744 7.2552 26.5225
512 1 -1.1104 12.0276 18.1911 20.616
343 1 -1.1104 6.57625 1.43168 20.9624
447 1 -1.1104 12.1527 7.05955 20.6262
452 1 -1.1104 12.1238 4.23037 20.77
459 1 -1.1104 9.32364 7.06692 20.988
8865 2 2.2208 13.6081 19.5841 22.0934
464 1 -1.1104 9.4341 4.37643 20.7996
392 1 -1.1104 9.46556 1.42137 20.7867
572 1 -1.1104 12.3206 1.42549 23.5093
574 1 -1.1104 12.2219 1.47437 26.2994
577 2 2.2208 11.0413 2.84291 24.9602
580 1 -1.1104 9.52887 1.39676 23.5665
583 1 -1.1104 9.23526 1.1081 26.7982
585 2 2.2208 8.03499 2.85612 22.2374
631 1 -1.1104 9.4212 3.85855 26.4674
633 1 -1.1104 9.47386 4.40884 23.7097
635 1 -1.1104 9.38272 6.70047 26.4652
637 2 2.2208 8.15343 5.49748 25.1572
638 2 2.2208 10.8004 5.76352 22.1735
640 1 -1.1104 12.255 6.99156 23.7229
642 1 -1.1104 12.2471 4.40347 23.4155
645 1 -1.1104 12.3033 4.27046 26.2102
647 1 -1.1104 9.3774 7.32583 23.659
641 1 -1.1104 12.1918 7.39253 26.6701
533 2 2.2208 10.6868 16.803 22.1355
8903 2 2.2208 -0.443751 11.1248 22.2343
476 1 -1.1104 0.967625 12.6695 20.7031
567 1 -1.1104 12.2576 18.3653 26.1749
495 1 -1.1104 3.72829 12.6538 21.0122
600 2 2.2208 5.30917 11.2205 22.1601
606 1 -1.1104 1.02114 9.90328 23.6536
609 2 2.2208 5.3795 8.61662 24.9258
611 1 -1.1104 0.927469 9.88557 26.694
616 2 2.2208 2.3598 11.2627 24.9543
618 2 2.2208 2.49132 8.61554 22.3166
620 1 -1.1104 3.93809 9.81404 23.6736
622 1 -1.1104 3.89452 9.88439 26.7701
560 1 -1.1104 3.88033 12.6314 26.5585
623 1 -1.1104 1.12497 12.7133 23.6049
656 1 -1.1104 3.95034 12.56 23.6883
660 1 -1.1104 0.834395 12.5944 26.2696
613 1 -1.1104 6.72232 10.053 26.2798
664 1 -1.1104 6.90259 12.5131 23.4971
655 1 -1.1104 6.7488 12.9363 26.1303
608 1 -1.1104 6.70541 10.0047 23.4832
403 2 2.2208 -0.344588 8.12456 19.3821
510 1 -1.1104 12.241 12.4529 20.7386
466 1 -1.1104 9.60188 9.66875 20.8651
522 1 -1.1104 9.24097 12.3924 20.9005
368 2 2.2208 -0.330058 -2.69427 19.2988
8861 2 2.2208 13.499 2.8172 16.4458
628 1 -1.1104 9.66172 12.4903 26.4583
630 1 -1.1104 9.59068 9.54702 26.5636
632 1 -1.1104 9.69497 9.98056 23.8925
634 2 2.2208 8.11863 8.42169 22.1859
636 2 2.2208 8.27451 11.2981 25.0298
639 2 2.2208 10.9172 11.2183 22.2089
643 1 -1.1104 12.5608 9.76332 23.549
644 2 2.2208 10.8726 8.37933 25.0162
646 1 -1.1104 12.2675 10.1096 26.4225
597 1 -1.1104 9.46453 12.8401 23.8085
561 1 -1.1104 12.1216 12.3862 23.6419
566 1 -1.1104 12.5531 12.7644 26.5741
442 2 2.2208 2.41674 11.1216 13.7416
651 2 2.2208 8.12145 13.8652 22.165
629 1 -1.1104 9.61495 17.8539 26.2013
598 1 -1.1104 9.22004 18.3535 23.6165
502 1 -1.1104 3.79566 15.4281 20.882
478 1 -1.1104 1.05929 18.5794 20.7946
482 1 -1.1104 6.65264 18.2006 20.5022
653 1 -1.1104 9.3936 15.5113 23.8343
488 1 -1.1104 0.914989 15.5323 20.7098
497 1 -1.1104 3.811 18.2212 20.4705
657 1 -1.1104 6.69265 15.7404 26.5231
663 2 2.2208 5.33338 13.9553 24.9022
404 2 2.2208 2.32913 14.0571 22.0962
662 2 2.2208 5.14804 19.5903 24.8308
659 1 -1.1104 1.11918 15.5399 26.5691
665 1 -1.1104 0.956754 18.1313 23.3405
405 2 2.2208 2.70503 19.6217 21.9893
406 1 -1.1104 3.93546 15.4469 23.6743
558 1 -1.1104 1.22288 15.2673 23.4671
565 1 -1.1104 3.97174 15.4581 26.4841
588 2 2.2208 2.36813 16.8063 24.9742
589 1 -1.1104 3.65469 18.085 26.3958
590 2 2.2208 5.27171 16.7683 22.0669
654 1 -1.1104 3.90466 18.1089 23.2041
658 1 -1.1104 0.999828 18.2066 26.3595
559 1 -1.1104 6.5514 15.2641 23.3659
661 1 -1.1104 6.63016 18.2021 23.3266
564 2 2.2208 13.6588 5.53514 19.5616
469 2 2.2208 8.08633 11.1828 13.7512
562 1 -1.1104 12.2343 18.2913 23.4158
524 1 -1.1104 9.52615 18.2536 20.6233
517 1 -1.1104 12.32 15.3469 20.6946
529 1 -1.1104 9.35232 15.3701 20.7199
626 2 2.2208 8.05523 16.7076 25.0352
652 2 2.2208 8.04101 19.6746 22.1935
591 2 2.2208 10.9851 14.0216 25.054
372 1 -1.1104 9.50456 15.2388 26.5007
8934 2 2.2208 13.5718 5.6928 13.8273
8859 2 2.2208 -0.436099 14.0805 25.0517
9078 2 2.2208 13.6383 0.0524571 24.9414
321 2 2.2208 10.7581 -2.61507 13.7455
330 2 2.2208 5.36432 5.72348 27.7918
323 2 2.2208 5.21465 -0.160798 27.5966
532 2 2.2208 8.25428 16.8771 13.7823
402 2 2.2208 5.20058 16.9194 27.7061
9052 2 2.2208 -0.353874 11.3524 27.7375
503 2 2.2208 2.3837 16.8094 13.7487
8832 2 2.2208 13.6338 -2.71727 27.7152
8819 2 2.2208 13.6204 0.07976 13.7746
666 2 2.2208 5.19459 22.4351 5.15163
668 1 -1.1104 0.879993 23.8698 0.896615
669 1 -1.1104 0.841788 23.8082 3.6078
670 1 -1.1104 0.902651 21.056 0.883501
672 2 2.2208 5.26999 25.3339 2.45076
673 1 -1.1104 1.09125 21.0687 3.79199
675 1 -1.1104 3.74027 23.9365 1.09115
676 2 2.2208 2.1635 22.4415 2.26439
678 1 -1.1104 3.81188 23.9648 3.99335
679 2 2.2208 2.26381 25.2816 5.17071
680 1 -1.1104 3.72168 21.0746 1.03671
682 1 -1.1104 3.79651 21.0734 3.68765
681 1 -1.1104 3.6692 26.8051 0.970703
683 1 -1.1104 3.5766 26.5779 3.79836
671 1 -1.1104 0.833678 26.7821 1.00915
688 1 -1.1104 6.55398 23.9346 3.73585
691 1 -1.1104 6.59125 21.022 3.96708
690 1 -1.1104 6.4528 26.8388 0.975904
811 1 -1.1104 6.8258 21.0687 6.646
674 1 -1.1104 0.872045 26.9494 3.8142
692 1 -1.1104 6.63005 26.6212 3.82175
1046 2 2.2208 2.51628 28.1393 13.5077
737 2 2.2208 -0.313332 33.6928 5.22064
1375 1 -1.1104 3.89171 46.6481 3.82852
1010 2 2.2208 5.1613 39.2436 -0.382514
687 1 -1.1104 6.59791 23.9095 0.847171
689 1 -1.1104 6.35853 21.13 1.08277
693 2 2.2208 10.8198 22.2781 5.1093
695 1 -1.1104 12.1392 23.6906 0.927539
696 1 -1.1104 12.2235 24.0552 3.66445
697 1 -1.1104 12.5014 20.9476 1.08412
699 2 2.2208 10.6841 25.2867 2.41265
702 1 -1.1104 9.4502 23.6169 1.22745
703 2 2.2208 7.92982 22.5767 2.52899
705 1 -1.1104 9.43296 23.7838 3.85738
706 2 2.2208 8.22127 25.4208 5.20656
707 1 -1.1104 9.2775 20.8055 1.00297
709 1 -1.1104 9.36933 21.0945 3.7148
700 1 -1.1104 12.3732 20.9468 3.99063
701 1 -1.1104 12.147 26.917 3.77053
698 1 -1.1104 12.001 26.5829 1.159
708 1 -1.1104 9.2422 26.6568 1.01669
1410 1 -1.1104 9.60071 46.0317 3.83487
844 1 -1.1104 9.46344 20.9989 6.59157
812 1 -1.1104 6.83643 26.7048 6.79072
974 2 2.2208 -0.410684 22.3974 10.9774
1568 1 -1.1104 3.67435 46.5459 9.61226
667 2 2.2208 5.11729 28.0319 5.34575
677 2 2.2208 2.39626 28.0059 2.44674
715 1 -1.1104 0.762217 29.3955 1.01361
718 1 -1.1104 0.967964 29.7133 3.92017
721 1 -1.1104 0.941959 32.2588 0.825566
722 2 2.2208 5.21289 31.04 2.44188
724 1 -1.1104 0.855403 32.4092 3.58081
726 1 -1.1104 3.62126 29.433 1.00002
729 1 -1.1104 3.74267 29.5512 3.75633
731 2 2.2208 2.36093 31.0494 5.02945
733 1 -1.1104 3.84188 32.5312 1.23291
734 1 -1.1104 3.99284 32.379 3.82066
972 2 2.2208 -0.382513 28.2264 10.9244
712 2 2.2208 13.6131 28.0906 2.46041
9338 2 2.2208 13.5657 22.4457 8.1041
1006 2 2.2208 8.08201 36.5745 -0.364231
740 1 -1.1104 6.56039 32.2268 0.937594
710 1 -1.1104 9.44041 26.7048 3.78787
739 1 -1.1104 6.52958 29.5242 4.0224
738 1 -1.1104 6.78046 29.5574 1.17096
725 1 -1.1104 6.76699 32.4358 3.63996
694 2 2.2208 10.8772 28.0205 5.19205
704 2 2.2208 7.95413 28.0683 2.34554
742 1 -1.1104 12.191 29.5698 0.963793
744 1 -1.1104 12.1579 29.5396 3.88037
746 1 -1.1104 12.2904 32.1299 1.0376
747 2 2.2208 10.783 30.883 2.59915
749 1 -1.1104 12.3441 32.244 3.89206
750 1 -1.1104 9.47037 29.4788 1.09036
753 1 -1.1104 9.26142 29.5344 3.88762
755 2 2.2208 7.8872 30.9141 5.12397
757 1 -1.1104 9.26317 32.2531 1.13103
758 1 -1.1104 9.57168 32.1435 3.93257
1580 1 -1.1104 9.24207 46.4513 6.74686
1393 1 -1.1104 12.004 45.9974 1.20399
1547 1 -1.1104 1.09722 46.5636 6.85686
1588 1 -1.1104 12.297 46.1899 9.31352
728 2 2.2208 2.30187 34.0032 2.26617
714 2 2.2208 5.25778 33.8041 5.40182
716 1 -1.1104 0.920799 35.152 0.971113
719 1 -1.1104 1.14064 35.3856 3.69493
723 2 2.2208 5.00114 36.5929 2.42141
727 1 -1.1104 3.86653 35.2645 0.999558
730 1 -1.1104 3.84607 35.1452 3.93123
732 2 2.2208 2.46539 36.8389 5.40118
766 1 -1.1104 0.748145 38.0451 1.14893
771 1 -1.1104 0.765281 38.1324 4.07119
780 1 -1.1104 3.38566 37.7464 1.07513
782 1 -1.1104 3.77329 38.2386 3.9274
776 2 2.2208 2.4285 39.3966 2.37762
760 2 2.2208 5.41099 39.4971 5.20604
871 1 -1.1104 3.80798 35.2441 6.75574
960 1 -1.1104 9.4908 43.6728 12.3557
9492 2 2.2208 -0.298108 42.3266 2.47807
1000 2 2.2208 13.649 25.3792 -0.305434
1358 1 -1.1104 6.70885 46.4796 3.74989
9490 2 2.2208 13.5762 42.126 11.0077
720 1 -1.1104 6.49911 35.3133 3.74904
768 1 -1.1104 6.3967 38.0743 1.2702
773 1 -1.1104 6.59663 37.9755 4.09572
717 1 -1.1104 6.74097 35.1389 0.960154
752 2 2.2208 8.08755 33.8768 2.41988
741 2 2.2208 10.9725 33.7359 5.11124
743 1 -1.1104 11.9613 34.9626 0.929581
745 1 -1.1104 12.0625 35.0035 3.713
748 2 2.2208 10.7132 36.537 2.37364