ITEM: TIMESTEP
60000
ITEM: NUMBER OF ATOMS
17760
ITEM: BOX BOUNDS pp pp pp
-4.3880692889525152e-01 2.7778806928895815e+01
-5.4426493161048901e+00 3.3352264931611165e+02
-4.4921909469506016e-01 2.7789219094694811e+01
ITEM: ATOMS id type q x y z
1 2 2.2208 5.19513 0.286106 5.11838
2 1 -1.1104 1.10588 -3.908 0.947845
6 1 -1.1104 1.11481 -4.01422 3.83894
10 1 -1.1104 0.987623 -1.2092 0.839383
12 2 2.2208 5.27659 -2.60291 2.22443
14 1 -1.1104 0.89735 -1.28679 3.92596
16 1 -1.1104 3.897 -4.06042 0.883774
18 2 2.2208 2.4233 0.294335 2.31654
19 1 -1.1104 3.75785 -3.84573 3.457
21 2 2.2208 2.3397 -2.50631 5.15108
23 1 -1.1104 3.8742 -1.36518 0.737148
24 1 -1.1104 3.70376 -1.09557 3.69365
8110 2 2.2208 11.0026 -5.44849 11.0106
8 1 -1.1104 6.71624 -4.10413 3.68672
442 2 2.2208 2.31462 11.5178 13.5606
170 1 -1.1104 0.954309 -0.942122 6.56088
8728 2 2.2208 13.6172 11.6945 8.11891
317 2 2.2208 5.1109 3.15428 13.5216
532 2 2.2208 7.91942 17.1538 13.4688
11 1 -1.1104 6.51486 -1.43902 0.7426
4 1 -1.1104 6.784 -3.96257 0.967415
15 1 -1.1104 6.50661 -1.19924 3.72528
31 2 2.2208 10.9374 0.167263 5.07112
32 1 -1.1104 12.4306 -4.00521 0.822038
34 1 -1.1104 12.3699 -3.87378 3.67848
36 1 -1.1104 12.2833 -1.27047 0.813253
37 2 2.2208 10.824 -2.40693 2.26637
39 1 -1.1104 12.3129 -1.02316 3.84622
40 1 -1.1104 9.73855 -3.80726 0.76185
42 2 2.2208 7.93921 0.0673038 2.39496
43 1 -1.1104 9.55442 -4.03712 3.61423
45 2 2.2208 8.1152 -2.81073 4.90991
47 1 -1.1104 9.52958 -1.13483 0.967609
48 1 -1.1104 9.37314 -1.24791 3.77931
8821 2 2.2208 13.5963 19.9655 -0.351026
205 1 -1.1104 12.098 -3.85866 6.34505
7 1 -1.1104 1.04572 1.63466 3.66258
3 1 -1.1104 0.910408 1.42784 0.934626
13 2 2.2208 5.25717 3.04951 2.43805
17 1 -1.1104 3.89764 1.64594 1.03043
20 1 -1.1104 3.82531 1.60757 3.89125
22 2 2.2208 2.45153 3.32378 5.14348
54 2 2.2208 5.22881 6.04236 5.11923
56 1 -1.1104 0.917256 7.07584 0.96369
60 1 -1.1104 1.02703 4.17569 0.851011
67 1 -1.1104 0.937922 4.56891 3.51822
71 1 -1.1104 3.68347 7.09554 0.767052
72 2 2.2208 2.29946 5.91546 2.40051
76 1 -1.1104 3.74795 4.33997 1.13299
79 1 -1.1104 3.80465 4.51988 4.06408
58 1 -1.1104 0.9529 7.30732 3.64043
74 1 -1.1104 3.81529 7.25373 3.53814
57 1 -1.1104 6.87574 7.21019 1.01217
167 1 -1.1104 0.940982 1.81469 6.52874
236 1 -1.1104 0.866618 4.34472 6.36353
239 1 -1.1104 3.82518 4.67236 6.65222
504 2 2.2208 5.01705 20.0713 13.5656
8862 2 2.2208 13.4887 17.1383 13.3561
5 1 -1.1104 6.59349 1.68491 1.0153
69 1 -1.1104 6.60688 4.45939 3.68412
59 1 -1.1104 6.51961 7.27365 3.7461
63 1 -1.1104 6.70061 4.26591 0.938989
9 1 -1.1104 6.62437 1.65139 3.90978
33 1 -1.1104 12.2394 1.77108 0.631515
35 1 -1.1104 12.4027 1.83776 3.47744
38 2 2.2208 10.8616 2.96711 2.13302
41 1 -1.1104 9.13515 1.5698 0.940413
44 1 -1.1104 9.49656 1.58196 3.69886
46 2 2.2208 7.924 3.04626 5.3121
84 2 2.2208 10.9523 5.87767 5.1128
87 1 -1.1104 12.2595 7.29429 3.68683
88 1 -1.1104 12.5532 4.37073 0.952964
92 1 -1.1104 12.2534 4.55241 3.93744
94 1 -1.1104 9.63136 7.47017 0.781225
95 2 2.2208 8.08726 5.66575 2.26088
99 1 -1.1104 9.51016 4.51247 0.545842
102 1 -1.1104 9.36868 4.47478 3.59135
86 1 -1.1104 12.2821 7.27674 0.920504
97 1 -1.1104 9.51873 7.41575 4.04128
266 1 -1.1104 12.2193 4.42261 6.75986
265 1 -1.1104 12.3233 7.32766 6.54202
269 1 -1.1104 9.34887 4.72189 6.5408
267 1 -1.1104 9.3034 7.52507 6.79905
206 1 -1.1104 12.5358 1.61281 6.44554
235 1 -1.1104 6.58439 7.11715 6.62552
8105 2 2.2208 8.19763 -5.34846 2.39547
55 2 2.2208 5.10689 11.3602 4.96212
61 1 -1.1104 1.07152 10.0193 0.755373
66 2 2.2208 5.22788 8.42982 1.97836
68 1 -1.1104 0.961501 10.1862 3.77886
73 2 2.2208 2.26874 11.6077 2.29803
75 2 2.2208 2.28609 8.60371 5.02928
77 1 -1.1104 3.77837 9.9212 0.905251
80 1 -1.1104 3.55967 10.0764 3.74426
107 1 -1.1104 0.696033 12.8679 1.0884
113 1 -1.1104 0.815441 12.9065 3.80851
123 1 -1.1104 3.81596 12.8406 0.943049
128 1 -1.1104 3.63592 13.047 3.60385
130 2 2.2208 2.22283 14.3452 5.14904
505 2 2.2208 5.16023 14.291 13.5668
78 1 -1.1104 3.71913 9.91514 6.57933
8122 2 2.2208 2.37382 -5.40436 13.5094
124 1 -1.1104 3.78706 12.764 6.5395
17394 2 2.2208 13.6263 -5.28869 2.38525
17390 2 2.2208 -0.347814 -5.30538 10.7467
8651 2 2.2208 13.6166 3.13527 10.7965
64 1 -1.1104 6.71009 10.0942 0.916486
110 1 -1.1104 6.47203 12.8676 0.731824
115 1 -1.1104 6.32266 13.0206 3.75941
70 1 -1.1104 6.48986 9.83389 3.56296
85 2 2.2208 10.6911 11.5271 5.14182
89 1 -1.1104 12.0909 10.247 0.867663
91 2 2.2208 10.677 8.70887 2.338
93 1 -1.1104 12.0421 10.2001 3.90571
96 2 2.2208 8.03958 11.5956 2.07178
98 2 2.2208 7.94993 8.58822 5.12922
100 1 -1.1104 9.53156 10.2957 0.908263
103 1 -1.1104 9.18836 10.0646 3.60701
142 1 -1.1104 12.2121 13.0508 0.830518
146 1 -1.1104 12.1763 12.9751 3.62335
153 1 -1.1104 9.45966 13.2373 0.865467
158 1 -1.1104 9.11658 12.7598 3.94654
65 1 -1.1104 6.67842 9.94997 6.79302
8545 2 2.2208 13.6935 8.723 5.03527
90 1 -1.1104 12.2755 10.1604 6.66221
314 2 2.2208 -0.322944 -2.6269 13.6033
8543 2 2.2208 13.5534 5.8679 2.2345
28 2 2.2208 13.4722 20.1547 10.6687
119 2 2.2208 5.02147 14.4036 2.25094
106 2 2.2208 4.99016 16.9889 5.16052
109 1 -1.1104 0.85104 18.6834 0.897488
114 1 -1.1104 0.903945 18.6997 3.748
116 1 -1.1104 0.931401 15.8643 1.11045
120 2 2.2208 4.91809 19.8791 2.22454
121 1 -1.1104 0.715721 15.9248 3.9921
125 1 -1.1104 3.55409 18.4585 0.875124
127 2 2.2208 2.13432 17.2887 2.40645
129 1 -1.1104 3.55535 18.595 3.69818
131 2 2.2208 2.27741 20.0314 5.05419
132 1 -1.1104 3.72151 15.7775 1.0298
134 1 -1.1104 3.67049 15.886 3.78196
140 1 -1.1104 6.60399 15.7196 1.02241
302 1 -1.1104 0.756379 18.7629 6.51986
8676 2 2.2208 -0.416343 11.5858 5.18209
8814 2 2.2208 13.5417 14.1886 10.8678
29 2 2.2208 -0.312281 5.66621 10.5897
289 1 -1.1104 6.51444 15.7771 9.24449
138 1 -1.1104 6.48065 18.3744 0.910315
150 2 2.2208 10.999 14.4834 2.18789
139 1 -1.1104 6.26401 18.5323 3.85695
160 2 2.2208 7.91063 14.3973 4.97249
122 1 -1.1104 6.5946 15.8579 3.61211
141 2 2.2208 10.6925 17.0957 5.06238
144 1 -1.1104 11.9999 18.6417 0.886394
147 1 -1.1104 12.1521 18.4766 3.76457
148 1 -1.1104 12.4157 15.8502 0.761107
151 2 2.2208 10.7808 19.9639 2.14925
152 1 -1.1104 12.3043 15.8406 3.64957
155 1 -1.1104 9.16788 18.5815 0.877863
157 2 2.2208 8.1203 17.1282 2.29787
159 1 -1.1104 9.11748 18.6479 3.56648
161 2 2.2208 7.7783 19.825 5.12371
162 1 -1.1104 9.56218 15.8353 0.625244
164 1 -1.1104 9.58517 15.6351 3.58327
232 1 -1.1104 9.63687 15.7225 9.37179
8732 2 2.2208 13.6218 8.75 10.6027
166 1 -1.1104 1.07457 -3.83525 6.50199
174 1 -1.1104 4.02909 -1.21827 6.3398
316 2 2.2208 2.43137 0.116869 13.6009
168 1 -1.1104 6.57623 -4.24647 6.54551
440 2 2.2208 2.51098 5.97658 13.3738
468 2 2.2208 10.9981 8.74577 13.5679
27 2 2.2208 10.8356 17.2366 10.6363
172 1 -1.1104 3.78501 -4.08182 6.41032
175 2 2.2208 5.21423 0.229104 10.691
176 1 -1.1104 0.983117 -4.05374 12.1765
180 1 -1.1104 1.11235 -3.92987 9.28128
184 1 -1.1104 0.869827 -1.17668 12.2282
186 2 2.2208 5.36618 -2.57335 7.76623
188 1 -1.1104 1.26477 -1.09816 9.48813
190 1 -1.1104 3.88482 -4.09296 11.8852
192 2 2.2208 2.36837 0.415159 7.9327
193 1 -1.1104 3.83303 -4.00678 9.22222
195 2 2.2208 2.62886 -2.58606 10.7336
197 1 -1.1104 3.74834 -1.23613 12.039
198 1 -1.1104 4.01635 -1.04982 9.22734
171 1 -1.1104 6.90679 -1.35591 6.48543
199 2 2.2208 -0.426851 2.98504 7.97697
530 2 2.2208 10.5899 19.9899 13.4813
208 1 -1.1104 9.44643 -4.07445 6.58018
210 1 -1.1104 9.52939 -1.17632 6.51305
202 2 2.2208 7.97487 14.4414 10.7683
182 1 -1.1104 6.84181 -4.03664 9.47402
189 1 -1.1104 6.74709 -1.10294 9.39081
178 1 -1.1104 6.46424 -4.09139 12.2429
207 1 -1.1104 12.3211 -1.1708 6.79823
185 1 -1.1104 6.57819 -1.10068 12.175
211 2 2.2208 10.8277 0.224763 10.9715
212 1 -1.1104 12.3154 -4.047 12.3932
214 1 -1.1104 12.4467 -3.8601 9.59952
216 1 -1.1104 12.2314 -1.18666 12.2568
217 2 2.2208 10.8892 -2.50238 8.12427
219 1 -1.1104 12.2959 -1.08529 9.70294
220 1 -1.1104 9.44204 -3.89447 12.1942
222 2 2.2208 8.18024 0.24894 7.89175
223 1 -1.1104 9.62085 -4.02548 9.31638
225 2 2.2208 8.22786 -2.62525 10.7403
227 1 -1.1104 9.35408 -1.01123 12.3099
228 1 -1.1104 9.56167 -0.967143 9.4076
313 2 2.2208 7.77065 17.2332 7.80613
52 1 -1.1104 9.44237 18.7507 8.87578
173 1 -1.1104 3.71787 1.77243 6.55498
118 1 -1.1104 6.57042 15.7532 6.33913
234 1 -1.1104 0.912132 7.35044 6.3389
238 1 -1.1104 3.7968 7.35984 6.35918
177 1 -1.1104 0.776844 1.5781 12.2704
181 1 -1.1104 0.888623 1.7928 9.48631
187 2 2.2208 5.24298 3.17379 7.99156
191 1 -1.1104 3.66379 1.66522 12.0446
194 1 -1.1104 3.74411 1.63133 9.478
196 2 2.2208 2.41838 3.16533 10.7315
240 2 2.2208 5.22006 5.97342 10.808
246 1 -1.1104 0.981086 4.34799 12.1495
251 1 -1.1104 0.979209 4.59961 9.12352
256 2 2.2208 2.3322 5.95919 7.82641
260 1 -1.1104 3.76025 4.40061 12.121
262 1 -1.1104 3.78627 4.67828 9.3225
242 1 -1.1104 1.29794 7.3345 12.0985
244 1 -1.1104 0.990678 7.3099 9.33436
255 1 -1.1104 3.88022 7.22811 12.1381
183 1 -1.1104 6.55276 1.58428 9.40978
163 1 -1.1104 9.46605 15.7155 6.52104
53 1 -1.1104 12.1507 18.5769 9.24112
503 2 2.2208 2.2891 17.102 13.6573
209 1 -1.1104 9.63139 1.71541 6.64136
156 1 -1.1104 9.26308 18.5102 6.36142
169 1 -1.1104 6.81472 1.61689 6.74011
243 1 -1.1104 6.59225 7.33214 12.56
179 1 -1.1104 6.60262 1.59355 12.4237
237 1 -1.1104 6.56784 4.39822 6.64652
245 1 -1.1104 6.54222 7.23058 9.67904
248 1 -1.1104 6.6302 4.44659 12.245
253 1 -1.1104 6.58302 4.30306 9.59145
213 1 -1.1104 12.4487 1.78661 12.4022
215 1 -1.1104 11.9191 1.77094 9.44805
218 2 2.2208 10.7802 3.21082 8.05544
221 1 -1.1104 9.6074 1.67983 12.2277
224 1 -1.1104 9.31415 1.80294 9.57783
226 2 2.2208 7.89969 2.98788 10.929
268 1 -1.1104 9.40361 4.6595 9.21466
271 1 -1.1104 9.33559 4.49228 12.1691
275 2 2.2208 7.90783 5.81922 8.1402
276 2 2.2208 10.809 5.99655 10.5585
278 1 -1.1104 12.2728 7.16322 11.9708
279 1 -1.1104 12.2143 7.43947 9.26875
280 1 -1.1104 12.2453 4.58331 12.2604
283 1 -1.1104 12.1395 4.38016 9.40563
285 1 -1.1104 9.51846 7.46767 12.3162
273 1 -1.1104 9.31056 7.40386 9.37945
322 2 2.2208 10.7959 3.32405 13.5448
108 1 -1.1104 0.847911 12.942 6.5286
258 1 -1.1104 3.82991 7.29599 9.33775
62 1 -1.1104 0.892096 10.0024 6.55898
241 2 2.2208 5.07914 11.6577 10.8722
247 1 -1.1104 0.96755 10.1242 12.1907
250 2 2.2208 5.23667 8.5389 7.98534
252 1 -1.1104 0.767678 10.2799 9.35324
257 2 2.2208 2.42918 11.5378 7.92286
259 2 2.2208 2.44149 8.88275 10.7972
261 1 -1.1104 3.66073 9.99342 12.1916
263 1 -1.1104 3.79091 10.1509 9.358
287 1 -1.1104 3.57807 12.7628 12.0321
294 1 -1.1104 0.730989 13.0756 9.28185
299 1 -1.1104 0.860416 13.144 12.1907
305 1 -1.1104 3.8125 12.9015 9.34706
249 1 -1.1104 6.28079 10.2408 12.308
154 1 -1.1104 9.37906 12.953 6.41018
101 1 -1.1104 9.41583 10.3301 6.70996
290 1 -1.1104 6.51735 13.0437 9.49081
297 1 -1.1104 6.37798 13.0924 12.2129
111 1 -1.1104 6.70119 13.1134 6.77018
143 1 -1.1104 12.1376 12.9146 6.71908
254 1 -1.1104 6.48486 10.0165 9.50662
229 1 -1.1104 9.28164 12.8898 12.2079
264 1 -1.1104 9.27397 10.2035 9.7976
270 1 -1.1104 9.26858 10.1118 12.5065
272 2 2.2208 7.85516 8.84 11.0747
274 2 2.2208 8.1482 11.4725 8.02407
277 2 2.2208 10.6522 11.6085 10.8882
281 1 -1.1104 12.2599 10.1352 12.3033
282 2 2.2208 10.8029 8.67466 7.84616
284 1 -1.1104 12.3678 10.5126 9.67829
30 1 -1.1104 12.0711 13.0302 12.3217
50 1 -1.1104 12.1792 13.0212 9.39851
51 1 -1.1104 9.30063 12.9104 9.34951
233 1 -1.1104 9.22751 18.4989 11.7467
149 1 -1.1104 12.2014 15.8212 6.37903
306 1 -1.1104 6.58578 15.7682 12.0759
117 1 -1.1104 0.83204 15.8932 6.70505
133 1 -1.1104 3.50969 15.7205 6.42888
126 1 -1.1104 3.81055 18.5208 6.64201
296 1 -1.1104 6.58723 18.5724 12.3409
112 1 -1.1104 6.37204 18.7466 6.56762
310 2 2.2208 2.21678 14.4298 10.7803
8813 2 2.2208 -0.333601 -2.66889 2.28897
309 2 2.2208 2.1662 20.0059 10.7576
288 1 -1.1104 6.59586 18.6641 9.34135
295 2 2.2208 5.16463 14.364 8.01859
286 1 -1.1104 3.66448 18.3237 12.293
291 1 -1.1104 0.828202 18.6952 9.17672
292 1 -1.1104 1.02475 16.0578 9.54527
293 2 2.2208 4.99642 20.1753 7.80192
298 1 -1.1104 0.806254 18.687 12.1646
300 2 2.2208 5.07998 17.2736 10.8698
301 1 -1.1104 3.75008 18.7878 9.44094
303 2 2.2208 2.27201 17.2639 7.89266
304 1 -1.1104 3.69003 15.7672 9.23211
307 1 -1.1104 0.834793 15.607 12.015
308 1 -1.1104 3.92822 15.7552 12.2029
49 1 -1.1104 12.1558 18.8481 12.2359
145 1 -1.1104 12.1838 18.6986 6.4941
204 1 -1.1104 12.2935 15.78 9.16128
105 2 2.2208 10.8037 19.9453 7.58436
231 1 -1.1104 9.34441 15.8845 12.0942
203 2 2.2208 8.0813 19.9257 10.5698
83 1 -1.1104 12.0307 15.8793 12.2087
104 2 2.2208 10.7632 14.4236 7.83804
200 2 2.2208 -0.109146 -2.44035 8.04235
8544 2 2.2208 13.6043 11.6491 2.30752
8614 2 2.2208 13.6255 14.5179 5.09986
8518 2 2.2208 13.5419 0.238025 8.03741
8593 2 2.2208 13.5828 20.0579 5.16926
8712 2 2.2208 -0.362706 2.99476 2.3185
330 2 2.2208 5.04159 5.69023 -0.399422
325 2 2.2208 2.43351 2.97554 -0.370834
8119 2 2.2208 7.92159 -5.39474 13.5614
315 2 2.2208 5.14551 -2.70181 13.504
469 2 2.2208 7.88217 11.6268 13.5445
323 2 2.2208 5.17872 0.0784205 -0.378994
8819 2 2.2208 13.5881 0.269552 13.6134
82 2 2.2208 -0.344903 8.782 2.40956
321 2 2.2208 10.8493 -2.50337 13.6096
8939 2 2.2208 13.6277 11.4625 13.4856
319 2 2.2208 7.78088 0.145014 13.6477
331 2 2.2208 5.05217 0.250348 16.4962
332 1 -1.1104 0.924839 -3.93155 17.8679
336 1 -1.1104 0.800283 -3.99225 14.9898
344 1 -1.1104 0.922779 -1.18377 17.6492
346 2 2.2208 5.23592 -2.52567 19.3053
348 1 -1.1104 1.10122 -1.24212 14.7947
352 1 -1.1104 3.70904 -4.1082 17.5502
354 2 2.2208 2.18973 0.251686 19.1434
355 1 -1.1104 3.73841 -3.93202 14.7231
359 2 2.2208 2.39016 -2.72019 16.4138
361 1 -1.1104 3.55441 -1.26353 17.958
362 1 -1.1104 3.66054 -1.27813 15.1736
349 1 -1.1104 0.885977 -0.997282 20.402
441 2 2.2208 4.96523 8.59479 13.6411
8865 2 2.2208 13.5127 20.0555 21.9174
350 1 -1.1104 6.35283 -1.28054 15.1608
340 1 -1.1104 6.6883 -4.06205 14.9332
648 2 2.2208 10.9991 5.90192 27.6665
328 2 2.2208 8.33648 -2.57261 27.743
363 1 -1.1104 3.85056 -1.31295 20.7626
8901 2 2.2208 13.4907 11.5834 24.8991
334 1 -1.1104 6.47572 -4.09497 17.9302
345 1 -1.1104 6.37733 -1.16185 17.9419
374 2 2.2208 10.9164 0.22501 16.5224
375 1 -1.1104 12.2999 -4.07766 18.006
377 1 -1.1104 12.4971 -3.88345 15.0843
381 1 -1.1104 12.3438 -1.17565 18.0839
382 2 2.2208 10.788 -2.64645 19.4684
384 1 -1.1104 12.3613 -1.08774 15.1673
386 1 -1.1104 9.45165 -4.01156 17.666
388 2 2.2208 8.02271 0.226544 19.2743
389 1 -1.1104 9.57313 -3.96263 14.7783
393 2 2.2208 8.03197 -2.50806 16.4603
395 1 -1.1104 9.38746 -1.26288 18.0573
396 1 -1.1104 9.38529 -1.22915 15.0334
390 1 -1.1104 9.64811 -4.20717 20.6421
8816 2 2.2208 -0.320759 0.327541 27.5245
351 1 -1.1104 6.71118 -1.29046 20.5924
385 1 -1.1104 12.2711 -1.01636 20.7992
397 1 -1.1104 9.66189 -1.2954 20.8007
341 1 -1.1104 6.64008 -3.84566 20.8341
467 2 2.2208 8.08202 5.9538 13.7096
333 1 -1.1104 0.718602 1.78495 17.8028
338 1 -1.1104 1.12121 1.57804 14.9915
347 2 2.2208 4.9822 3.1573 19.3548
353 1 -1.1104 3.62079 1.60657 17.7334
357 1 -1.1104 3.79348 1.60144 14.8497
360 2 2.2208 2.12292 3.1723 16.4507
407 2 2.2208 5.18864 5.92387 16.4656
411 1 -1.1104 0.813143 7.4623 15.1399
415 1 -1.1104 0.795816 4.53618 17.7324
420 1 -1.1104 1.11633 4.47648 15.0129
429 2 2.2208 2.1193 5.85217 19.3158
434 1 -1.1104 3.69543 4.71197 17.8756
436 1 -1.1104 4.07015 4.35523 14.9062
428 1 -1.1104 3.68362 7.49514 18.0087
431 1 -1.1104 3.61848 7.27726 14.9303
409 1 -1.1104 1.02218 7.36279 18.0037
410 1 -1.1104 6.66204 7.21968 17.9921
358 1 -1.1104 3.51654 1.49903 20.5281
421 1 -1.1104 0.836611 4.39948 20.3093
424 1 -1.1104 6.85444 4.60623 15.1146
8368 2 2.2208 10.8892 -5.26671 16.5644
649 2 2.2208 8.05415 8.66702 27.7152
417 1 -1.1104 6.3888 4.46732 17.9201
343 1 -1.1104 6.47775 1.74321 20.8291
335 1 -1.1104 6.66374 1.75864 18.0737
342 1 -1.1104 6.70576 1.40908 15.2567
413 1 -1.1104 6.61546 7.42259 15.155
376 1 -1.1104 12.4975 1.69813 17.8083
379 1 -1.1104 12.3068 1.70984 14.9557
383 2 2.2208 11.0475 3.05655 19.203
387 1 -1.1104 9.82212 1.63015 17.9678
391 1 -1.1104 9.28704 1.77508 15.1857
394 2 2.2208 7.99602 3.17106 16.6974
443 2 2.2208 11.039 6.0718 16.4609
448 1 -1.1104 12.4217 4.47325 17.5749
451 1 -1.1104 12.3181 4.65896 15.0107
456 2 2.2208 7.94473 5.95829 19.2349
461 1 -1.1104 9.33936 4.76542 17.9288
463 1 -1.1104 9.33681 4.70486 14.9371
458 1 -1.1104 9.5983 7.48729 15.0756
455 1 -1.1104 9.4685 7.4778 17.8539
446 1 -1.1104 12.3295 7.56766 14.885
445 1 -1.1104 12.2603 7.55984 17.9828
464 1 -1.1104 9.43128 4.55924 20.8019
452 1 -1.1104 12.3421 4.65484 20.4838
8207 2 2.2208 10.7885 -5.42069 22.2033
408 2 2.2208 5.13874 11.4795 16.4401
416 1 -1.1104 0.823191 10.269 17.8473
419 2 2.2208 5.05545 8.81925 19.3449
422 1 -1.1104 0.806976 10.3795 14.9892
430 2 2.2208 2.45138 11.5591 19.3349
433 2 2.2208 2.15088 8.70521 16.5082
435 1 -1.1104 3.87092 10.3673 17.9811
438 1 -1.1104 3.60524 10.1028 15.1848
471 1 -1.1104 0.810724 12.9711 18.1256
475 1 -1.1104 0.906111 13.0569 15.081
491 1 -1.1104 3.74607 12.8945 17.8416
494 1 -1.1104 3.56703 12.9027 15.0995
479 1 -1.1104 6.60615 12.9324 14.9576
473 1 -1.1104 6.31972 13.0405 17.7629
498 2 2.2208 2.27339 14.2954 16.6564
476 1 -1.1104 0.817585 12.9247 20.6795
423 1 -1.1104 0.82147 10.0547 20.5772
401 2 2.2208 -0.442984 5.94214 16.4411
326 2 2.2208 -0.354325 3.0282 13.67
624 2 2.2208 2.35799 8.62286 27.6659
399 2 2.2208 13.3729 19.9602 16.4909
426 1 -1.1104 6.49587 10.1046 15.0334
418 1 -1.1104 6.51764 10.0974 17.9552
444 2 2.2208 10.7307 11.5661 16.3317
449 1 -1.1104 12.2243 10.0915 17.6341
450 2 2.2208 10.7728 8.76869 19.3336
453 1 -1.1104 12.0846 10.3152 14.8292
457 2 2.2208 7.88626 11.6663 19.4154
460 2 2.2208 8.00508 8.6901 16.3814
462 1 -1.1104 9.53327 10.069 17.925
465 1 -1.1104 9.1905 10.2514 15.1695
507 1 -1.1104 12.0241 12.9787 17.8442
509 1 -1.1104 11.9617 13.1261 15.0036
518 1 -1.1104 9.30425 12.941 17.8734
521 1 -1.1104 9.19146 13.0372 15.0169
525 2 2.2208 7.9187 14.3846 16.3604
427 1 -1.1104 6.56686 10.1983 20.7248
466 1 -1.1104 9.52575 10.2695 20.7034
533 2 2.2208 10.6707 17.3159 22.0451
651 2 2.2208 7.72011 14.5392 22.0232
485 2 2.2208 5.08835 14.4762 19.213
470 2 2.2208 5.05517 17.1495 16.2789
472 1 -1.1104 0.871528 18.4637 17.6113
477 1 -1.1104 0.773313 18.5138 14.9118
483 1 -1.1104 0.741697 15.6816 17.8466
486 2 2.2208 5.17039 19.9291 19.1799
487 1 -1.1104 0.800477 15.6869 15.1376
492 1 -1.1104 3.53948 18.5611 17.7866
493 2 2.2208 2.20012 17.2258 19.3121
496 1 -1.1104 3.6287 18.4722 15.0051
499 2 2.2208 2.2886 19.911 16.2167
500 1 -1.1104 3.49601 15.8863 17.9909
501 1 -1.1104 3.68238 15.5979 15.1463
474 1 -1.1104 6.52068 18.6579 17.8074
481 1 -1.1104 6.32695 18.6392 15.0506
484 1 -1.1104 6.45497 15.8507 17.6378
489 1 -1.1104 6.45667 15.7425 15.0478
8860 2 2.2208 13.5984 5.94555 24.5907
497 1 -1.1104 3.67474 18.6438 20.742
398 2 2.2208 10.699 17.3544 27.6197
514 2 2.2208 10.482 14.5234 19.1635
506 2 2.2208 10.663 17.1331 16.4175
508 1 -1.1104 11.8563 18.5636 17.8566
511 1 -1.1104 11.724 18.5943 15.1051
513 1 -1.1104 11.9195 15.768 17.8227
515 2 2.2208 10.6827 19.8181 19.3392
516 1 -1.1104 12.2037 15.8443 14.9018
519 1 -1.1104 9.33902 18.546 17.8544
520 2 2.2208 7.96039 17.1916 19.2863
523 1 -1.1104 9.05246 18.6519 14.8377
526 2 2.2208 7.96788 19.9462 16.4061
527 1 -1.1104 9.16828 15.7895 17.7446
528 1 -1.1104 9.27207 15.7317 14.9548
512 1 -1.1104 12.1571 18.4888 20.5892
529 1 -1.1104 9.24654 15.8188 20.5994
8114 2 2.2208 11.1038 -5.38085 27.7751
625 2 2.2208 5.15872 11.4887 27.6491
318 2 2.2208 7.74864 20.0598 27.6125
356 1 -1.1104 3.9135 -4.13076 20.5237
320 2 2.2208 2.37522 19.9863 27.6737
400 2 2.2208 13.5365 14.4206 16.483
337 1 -1.1104 0.816717 -4.12186 20.6148
534 2 2.2208 5.17839 0.396532 22.1078
535 1 -1.1104 0.776945 -3.90167 23.5773
539 1 -1.1104 1.00792 -4.06531 26.3759
543 1 -1.1104 0.88517 -1.0687 23.2924
545 2 2.2208 5.19712 -2.52295 25.0078
547 1 -1.1104 1.01476 -1.2609 26.0798
549 1 -1.1104 3.58891 -3.75623 23.4002
551 2 2.2208 2.1901 0.33009 24.8088
552 1 -1.1104 3.85134 -3.84645 26.3996
554 2 2.2208 2.1935 -2.27824 22.0333
556 1 -1.1104 3.71113 -0.981816 23.3724
557 1 -1.1104 3.80207 -1.16489 26.2768
541 1 -1.1104 6.73892 -4.12981 26.4364
8370 2 2.2208 5.34107 -5.41589 16.4423
8866 2 2.2208 13.5894 8.83587 27.5714
327 2 2.2208 10.9032 0.303861 27.7596
8209 2 2.2208 5.22748 -5.28468 22.0413
329 2 2.2208 7.87771 2.81066 27.7035
544 1 -1.1104 6.62123 -1.2096 23.4059
537 1 -1.1104 6.3238 -3.96667 23.5797
548 1 -1.1104 6.83668 -1.51873 26.1228
378 1 -1.1104 12.3168 -3.94428 20.8378
570 2 2.2208 10.7631 0.326152 22.0859
571 1 -1.1104 12.1759 -4.10858 23.691
573 1 -1.1104 12.4879 -3.91238 26.3385
575 1 -1.1104 12.3371 -1.20541 23.6337
576 2 2.2208 10.7658 -2.58793 24.8993
578 1 -1.1104 12.3637 -1.08484 26.4584
579 1 -1.1104 9.2656 -4.02899 23.4169
581 2 2.2208 8.15437 0.0568766 25.1162
582 1 -1.1104 9.34011 -4.14487 26.246
584 2 2.2208 7.92135 -2.55276 22.0402
586 1 -1.1104 9.41382 -1.19745 23.4227
587 1 -1.1104 9.57588 -1.27079 26.2083
403 2 2.2208 -0.422041 8.83472 19.2842
437 1 -1.1104 3.46518 4.43217 20.699
432 1 -1.1104 3.5208 7.27664 20.7504
339 1 -1.1104 0.688242 1.67433 20.8166
536 1 -1.1104 0.932194 1.80352 23.5729
540 1 -1.1104 1.03716 1.80256 26.326
546 2 2.2208 5.09151 3.05612 25.0363
550 1 -1.1104 3.72168 1.97884 23.5491
553 1 -1.1104 3.93259 1.52488 26.5124
555 2 2.2208 2.23022 3.1376 21.7924
599 2 2.2208 5.21399 6.05311 22.2083
605 1 -1.1104 0.923492 4.51862 23.1732
610 1 -1.1104 1.09075 4.52169 26.1633
614 1 -1.1104 3.74472 7.44259 23.3169
615 2 2.2208 2.22781 6.02272 24.9007
619 1 -1.1104 4.01292 4.74923 23.5276
621 1 -1.1104 3.76186 4.60253 26.4024
617 1 -1.1104 3.75135 7.39666 26.2324
603 1 -1.1104 0.927716 7.36669 26.3512
601 1 -1.1104 1.01864 7.41387 23.5639
412 1 -1.1104 0.830979 7.33934 20.8782
607 1 -1.1104 6.72136 4.35333 23.7535
612 1 -1.1104 6.27364 4.23708 26.4611
569 1 -1.1104 12.213 15.9558 23.4094
324 2 2.2208 2.38574 -2.48741 27.7771
447 1 -1.1104 12.5268 7.33341 20.5225
538 1 -1.1104 6.51045 1.422 23.7024
414 1 -1.1104 6.63296 7.66884 20.859
602 1 -1.1104 6.73111 7.19299 23.6521
604 1 -1.1104 6.62022 6.99866 26.5666
380 1 -1.1104 12.2604 1.71972 20.7352
425 1 -1.1104 6.45956 4.4957 20.7936
392 1 -1.1104 9.29752 1.6018 20.6247
542 1 -1.1104 6.73509 1.27548 26.5552
459 1 -1.1104 9.52653 7.37903 20.9001
572 1 -1.1104 12.2684 1.68501 23.5044
574 1 -1.1104 12.3168 1.84045 26.2245
577 2 2.2208 10.9293 3.08513 25.0166
580 1 -1.1104 9.45067 1.50172 23.6298
583 1 -1.1104 9.55464 1.64575 26.3822
585 2 2.2208 8.1598 3.04129 22.1672
631 1 -1.1104 9.23248 4.23599 26.1381
633 1 -1.1104 9.47842 4.49573 23.4339
635 1 -1.1104 9.48058 7.34048 26.2988
637 2 2.2208 8.15045 5.74991 24.882
638 2 2.2208 10.8361 5.80721 22.2419
640 1 -1.1104 12.3436 7.50272 23.4712
642 1 -1.1104 12.4488 4.49264 23.341
645 1 -1.1104 12.2855 4.68334 26.0301
647 1 -1.1104 9.64017 7.28138 23.656
641 1 -1.1104 12.3174 7.27199 26.3023
364 2 2.2208 13.6049 17.3376 24.9579
629 1 -1.1104 9.37459 18.7063 26.258
8208 2 2.2208 2.30722 -5.1776 24.8435
495 1 -1.1104 3.64024 12.9476 20.8084
480 1 -1.1104 6.31303 13.0832 20.7809
439 1 -1.1104 3.58375 10.1535 20.7781
600 2 2.2208 5.16479 11.5066 22.2293
606 1 -1.1104 1.04232 10.2231 23.4663
609 2 2.2208 5.27636 8.62071 24.8508
611 1 -1.1104 0.73474 10.0437 26.3328
616 2 2.2208 2.18075 11.4867 25.0307
618 2 2.2208 2.17389 8.74304 22.0544
620 1 -1.1104 3.85715 10.2674 23.6443
622 1 -1.1104 3.41761 10.1345 26.2998
560 1 -1.1104 3.75159 12.9529 26.684
623 1 -1.1104 0.942174 13.0074 23.481
656 1 -1.1104 3.56022 13.0409 23.6232
660 1 -1.1104 0.772508 12.9052 26.4331
613 1 -1.1104 6.44239 10.1742 26.2743
8906 2 2.2208 13.4889 14.4005 22.1094
510 1 -1.1104 11.8631 13.12 20.6619
531 2 2.2208 10.7372 14.4806 13.7735
664 1 -1.1104 6.38851 13.0355 23.3569
454 1 -1.1104 12.2587 10.4034 20.5286
608 1 -1.1104 6.6279 10.1143 23.5625
655 1 -1.1104 6.53074 13.0414 26.2588
522 1 -1.1104 9.10843 13.0779 20.5789
628 1 -1.1104 9.26671 12.9823 26.4953
630 1 -1.1104 9.33053 10.1354 26.0984
632 1 -1.1104 9.3556 10.3909 23.4583
634 2 2.2208 8.14945 8.80936 22.0798
636 2 2.2208 7.89016 11.7613 24.8995
639 2 2.2208 10.6332 11.6874 22.0017
643 1 -1.1104 12.2509 10.3671 23.4982
644 2 2.2208 10.8225 8.9178 24.9901
646 1 -1.1104 12.1136 10.0969 26.3983
597 1 -1.1104 9.41084 13.0049 23.6412
561 1 -1.1104 12.1397 13.0433 23.5153
566 1 -1.1104 12.1122 12.895 26.0662
591 2 2.2208 10.825 14.3842 24.9387
9051 2 2.2208 -0.40376 8.701 24.8693
627 1 -1.1104 6.27379 18.7479 26.2066
482 1 -1.1104 6.58835 18.613 20.4616
9080 2 2.2208 13.6469 -2.46742 22.307
404 2 2.2208 2.16845 14.3028 22.0987
663 2 2.2208 4.99255 14.3531 24.7886
478 1 -1.1104 0.78047 18.7544 20.6668
488 1 -1.1104 0.614557 15.7966 20.6182
502 1 -1.1104 3.61248 15.795 20.5292
662 2 2.2208 4.88491 20.006 24.8126
659 1 -1.1104 0.639087 15.6502 26.5947
665 1 -1.1104 0.741727 18.7418 23.6339
405 2 2.2208 2.12094 20.3326 21.9538
406 1 -1.1104 3.67833 15.7838 23.3393
558 1 -1.1104 0.683694 15.9403 23.474
565 1 -1.1104 3.73937 15.7225 26.2095
588 2 2.2208 2.17933 17.3248 24.7952
589 1 -1.1104 3.70475 18.7096 26.3688
590 2 2.2208 5.20152 17.3523 21.855
654 1 -1.1104 3.54328 18.5975 23.5205
658 1 -1.1104 0.791496 18.2917 26.4047
490 1 -1.1104 6.50663 15.9098 20.4136
559 1 -1.1104 6.39727 15.8562 23.3379
562 1 -1.1104 12.1844 18.8919 23.5278
653 1 -1.1104 9.3256 15.9348 23.3247
650 2 2.2208 10.8847 11.6894 27.7125
517 1 -1.1104 12.3623 15.6278 20.4464
626 2 2.2208 7.82434 17.2045 24.7943
567 1 -1.1104 12.2788 18.6523 26.3089
596 1 -1.1104 12.3086 15.8305 26.3841
657 1 -1.1104 6.47753 15.7301 26.3186
595 2 2.2208 10.6762 20.1481 24.8561
598 1 -1.1104 9.52747 18.6555 23.4393
372 1 -1.1104 9.37653 15.8959 26.2208
661 1 -1.1104 6.61316 18.7618 23.2292
652 2 2.2208 8.024 20.1344 22.0066
524 1 -1.1104 9.34299 18.6563 20.8266
8861 2 2.2208 13.6522 3.09528 16.1784
8117 2 2.2208 5.31054 -5.40142 27.6224
8902 2 2.2208 -0.441219 6.09252 27.5655
563 2 2.2208 13.5385 11.4856 19.0873
402 2 2.2208 5.13626 17.1372 27.5018
9007 2 2.2208 13.5768 17.064 18.9511
367 2 2.2208 7.90612 14.4598 27.726
373 2 2.2208 2.17973 14.1783 27.7723
666 2 2.2208 4.9421 22.9274 5.20475
668 1 -1.1104 0.87171 24.3494 1.04264
669 1 -1.1104 0.501386 24.1715 3.7937
670 1 -1.1104 0.59807 21.6362 0.896108
672 2 2.2208 5.09641 25.5648 2.46602
673 1 -1.1104 0.737195 21.2129 3.68276
675 1 -1.1104 3.50024 24.1293 0.949993
676 2 2.2208 2.07624 22.7765 2.31737
678 1 -1.1104 3.72069 24.3046 3.79689
679 2 2.2208 2.32452 25.7661 5.17757
680 1 -1.1104 3.46735 21.3541 0.899843
682 1 -1.1104 3.37891 21.6069 3.8574
681 1 -1.1104 3.80904 26.9979 0.993478
671 1 -1.1104 0.909728 27.2817 0.766361
683 1 -1.1104 3.74645 27.0786 3.78915
674 1 -1.1104 0.881964 27.2143 3.58826
1396 1 -1.1104 11.8903 46.7576 3.73257
690 1 -1.1104 6.36972 27.0895 0.995791
688 1 -1.1104 6.51028 24.2579 3.69405
692 1 -1.1104 6.62748 27.288 3.87399
689 1 -1.1104 6.30764 21.3229 0.914269
687 1 -1.1104 6.24799 24.3358 0.92749
985 2 2.2208 2.12836 45.4114 13.6369
812 1 -1.1104 6.45161 27.1795 6.38882
691 1 -1.1104 6.43782 21.6699 3.72564
693 2 2.2208 10.6207 22.7431 5.01798
695 1 -1.1104 12.0595 24.21 0.720863
696 1 -1.1104 12.0113 24.3007 3.6212
697 1 -1.1104 12.2024 21.4959 0.883093
699 2 2.2208 10.7679 25.5672 2.17768
702 1 -1.1104 9.17921 24.0305 0.67335
703 2 2.2208 7.91378 22.7615 2.23837
705 1 -1.1104 9.29245 24.2073 3.40012
706 2 2.2208 7.85406 25.6384 5.028
707 1 -1.1104 9.19966 21.256 0.761933
709 1 -1.1104 9.34768 21.3617 3.71174
698 1 -1.1104 12.1552 27.1056 0.784858
710 1 -1.1104 9.24322 27.0462 3.65997
708 1 -1.1104 9.24375 27.0298 0.885372
701 1 -1.1104 11.8717 27.0996 3.75068
845 1 -1.1104 9.47228 26.9954 6.46651
700 1 -1.1104 11.9444 21.3297 3.64711
844 1 -1.1104 9.31721 21.4242 6.30964
995 2 2.2208 4.99809 28.4915 -0.26252
840 1 -1.1104 11.9078 24.1142 6.35896
808 1 -1.1104 6.34287 24.4617 6.58318
980 2 2.2208 10.3475 37.1372 13.6235
667 2 2.2208 4.96339 28.549 5.14572
677 2 2.2208 2.13122 28.4534 2.19384
715 1 -1.1104 0.563298 29.8737 0.909688
718 1 -1.1104 0.86392 30.0264 3.64944
721 1 -1.1104 0.789736 32.6765 0.976902
722 2 2.2208 5.07584 31.4158 2.32083
724 1 -1.1104 0.589914 32.9177 3.78746
726 1 -1.1104 3.31799 29.9273 1.17822
729 1 -1.1104 3.7329 29.8377 3.93269
731 2 2.2208 1.95948 31.3999 5.12032
733 1 -1.1104 3.57277 32.6273 1.12973
734 1 -1.1104 3.53583 32.7297 3.86533
868 1 -1.1104 0.576538 32.7912 6.4402
870 1 -1.1104 3.43762 30.1601 6.58268
738 1 -1.1104 6.43272 29.9888 0.979719
740 1 -1.1104 6.34088 32.8159 0.826182
872 1 -1.1104 3.5453 32.8323 6.63229
864 1 -1.1104 0.63397 29.8163 6.61569
869 1 -1.1104 6.38114 32.6046 6.4825
9491 2 2.2208 13.424 34.1384 2.34744
926 1 -1.1104 6.24517 43.7836 9.66085
711 2 2.2208 13.521 22.943 2.39332
739 1 -1.1104 6.44913 30.0457 3.78375
725 1 -1.1104 6.47167 32.5249 3.52309
694 2 2.2208 10.5991 28.4567 5.01322
704 2 2.2208 7.93245 28.4033 2.25569
742 1 -1.1104 11.9521 29.8178 1.09821
744 1 -1.1104 11.9688 29.8763 3.76319
746 1 -1.1104 12.0661 32.7807 0.879938
747 2 2.2208 10.6267 31.2905 2.3535
749 1 -1.1104 12.0811 32.6447 3.72557
750 1 -1.1104 9.27936 30.0721 0.787007
753 1 -1.1104 9.16543 29.9179 3.6659
755 2 2.2208 7.95436 31.236 5.12308
757 1 -1.1104 9.28608 32.7684 0.844616
758 1 -1.1104 9.23574 32.6821 3.72913
898 1 -1.1104 12.1337 29.932 6.63
981 2 2.2208 7.84705 34.2915 13.5282
1047 2 2.2208 2.25622 22.7223 13.5327
728 2 2.2208 2.03779 34.1505 2.38091
714 2 2.2208 4.80965 33.9982 5.02338
716 1 -1.1104 1.05227 35.4907 1.03381
719 1 -1.1104 0.643035 35.7308 3.92985
723 2 2.2208 4.95819 37.0028 2.36466
727 1 -1.1104 3.75009 35.4859 0.748314
730 1 -1.1104 3.39081 35.5199 3.62389
732 2 2.2208 1.96727 36.9112 5.3218
766 1 -1.1104 0.810468 38.4894 1.24551
771 1 -1.1104 0.925795 38.5118 4.03268
780 1 -1.1104 3.72376 38.4512 1.12668
782 1 -1.1104 3.47679 38.211 3.94567
776 2 2.2208 2.17681 39.8252 2.47197
760 2 2.2208 5.00002 39.7029 5.24111
768 1 -1.1104 6.40535 38.3768 0.755549
720 1 -1.1104 6.47876 35.4277 3.7412
773 1 -1.1104 6.29961 38.4178 3.69274
717 1 -1.1104 6.36481 35.6255 0.923998
865 1 -1.1104 0.681767 35.4913 6.5977