ITEM: TIMESTEP
90000
ITEM: NUMBER OF ATOMS
17760
ITEM: BOX BOUNDS pp pp pp
-4.5026984443873130e-01 2.7790269844439319e+01
-5.3012429846804956e+00 3.3338124298468097e+02
-4.4112705602018848e-01 2.7781127056020210e+01
ITEM: ATOMS id type q x y z
1 2 2.2208 5.22162 0.349896 5.23634
2 1 -1.1104 0.614845 -4.20195 0.905513
6 1 -1.1104 1.28097 -3.79148 3.60551
10 1 -1.1104 0.876067 -1.41163 1.17871
12 2 2.2208 5.12937 -2.48114 2.6206
14 1 -1.1104 0.89902 -0.831296 3.94113
16 1 -1.1104 3.71061 -3.82859 0.974452
18 2 2.2208 2.39206 0.404817 2.50946
19 1 -1.1104 3.91292 -4.04773 3.7265
21 2 2.2208 2.21026 -2.41051 5.21006
23 1 -1.1104 3.65178 -1.13624 1.29416
24 1 -1.1104 3.87371 -1.30091 4.1501
166 1 -1.1104 0.659938 -3.6872 6.34303
29 2 2.2208 -0.482377 6.04829 10.9215
15 1 -1.1104 6.61825 -1.09967 3.86712
4 1 -1.1104 6.40763 -4.14569 0.91424
11 1 -1.1104 6.84166 -1.18177 1.27923
8543 2 2.2208 13.6633 5.72385 2.47075
330 2 2.2208 5.27104 6.01505 -0.431168
8825 2 2.2208 13.6463 2.819 -0.270087
145 1 -1.1104 12.2634 18.5885 6.72943
320 2 2.2208 2.30959 19.8135 -0.221266
8 1 -1.1104 6.90613 -4.00701 3.86709
31 2 2.2208 10.7386 0.330385 5.28371
32 1 -1.1104 12.0978 -3.97607 1.26134
34 1 -1.1104 12.4625 -3.95594 4.02588
36 1 -1.1104 12.2665 -1.04067 0.930527
37 2 2.2208 10.9054 -2.45487 2.48397
39 1 -1.1104 12.1119 -1.07092 3.96211
40 1 -1.1104 9.36077 -4.00301 1.21179
42 2 2.2208 7.99908 0.37303 2.53378
43 1 -1.1104 9.53171 -3.9726 3.83715
45 2 2.2208 8.01502 -2.41693 5.19684
47 1 -1.1104 9.52031 -1.06584 1.19968
48 1 -1.1104 9.21885 -0.993175 4.0532
402 2 2.2208 5.19344 17.0271 -0.22465
137 2 2.2208 -0.396111 17.0838 5.42129
210 1 -1.1104 9.47163 -1.08241 6.76779
27 2 2.2208 10.9472 17.0994 11.109
8651 2 2.2208 13.4707 3.10744 11.0946
7 1 -1.1104 1.01474 1.97919 3.73151
3 1 -1.1104 0.795905 1.6013 1.03677
13 2 2.2208 5.07958 3.17897 2.34108
17 1 -1.1104 3.78979 1.70802 1.15712
20 1 -1.1104 3.7609 1.87904 3.91119
22 2 2.2208 2.39503 3.27115 5.14173
54 2 2.2208 5.00451 5.97257 5.32257
56 1 -1.1104 0.851397 7.11094 0.972794
60 1 -1.1104 1.14803 4.35481 0.982679
67 1 -1.1104 0.796115 4.51369 3.74404
71 1 -1.1104 3.67456 7.25494 1.10493
72 2 2.2208 2.36228 5.81031 2.42423
76 1 -1.1104 3.77351 4.4711 1.0082
79 1 -1.1104 3.7531 4.50173 3.92014
58 1 -1.1104 0.688984 7.0896 3.54561
74 1 -1.1104 3.55624 7.44925 3.87816
234 1 -1.1104 0.967263 7.3967 6.46926
5 1 -1.1104 6.66041 1.58607 1.15401
63 1 -1.1104 6.52192 4.42285 1.07618
9 1 -1.1104 6.44879 1.90095 3.92512
57 1 -1.1104 6.59616 7.13348 0.979399
8867 2 2.2208 13.5735 14.4157 -0.327644
650 2 2.2208 10.7618 11.5158 -0.340101
8728 2 2.2208 13.5892 11.712 8.28549
319 2 2.2208 7.86957 0.340457 13.5901
59 1 -1.1104 6.50708 7.33496 3.78906
69 1 -1.1104 6.52103 4.60438 3.8452
169 1 -1.1104 6.41276 1.89844 6.72722
33 1 -1.1104 12.3121 1.61778 1.12979
35 1 -1.1104 12.2027 1.99606 3.84539
38 2 2.2208 10.722 3.18718 2.43127
41 1 -1.1104 9.39418 1.61819 0.801865
44 1 -1.1104 9.47051 1.80747 3.93286
46 2 2.2208 7.80634 3.2017 5.23971
84 2 2.2208 10.7673 5.92647 5.18986
88 1 -1.1104 12.0786 4.18441 0.912326
92 1 -1.1104 12.0163 4.49837 3.6289
94 1 -1.1104 9.17047 7.46113 1.05903
95 2 2.2208 7.89607 5.86098 2.5048
99 1 -1.1104 9.236 4.47318 1.05245
102 1 -1.1104 9.21376 4.63454 3.94264
97 1 -1.1104 9.45394 7.50038 3.93834
87 1 -1.1104 12.1947 7.19525 3.98626
86 1 -1.1104 12.1933 7.29114 1.09079
156 1 -1.1104 9.64311 18.2943 6.72694
648 2 2.2208 10.6654 5.90041 -0.349676
204 1 -1.1104 12.3509 15.5931 9.32183
232 1 -1.1104 9.38526 15.8843 9.49278
55 2 2.2208 5.26595 11.5907 5.28798
61 1 -1.1104 0.97796 9.95972 1.05874
66 2 2.2208 5.02411 8.68303 2.47797
68 1 -1.1104 0.815904 10.283 3.83261
73 2 2.2208 2.36134 11.5444 2.441
75 2 2.2208 2.19373 8.90913 5.31985
77 1 -1.1104 3.78086 10.0794 0.962709
80 1 -1.1104 3.8154 10.3259 3.85428
107 1 -1.1104 0.880926 12.9307 1.2594
113 1 -1.1104 0.99242 12.8664 3.93922
123 1 -1.1104 3.76524 12.7891 0.954516
128 1 -1.1104 3.86111 13.1198 3.95414
398 2 2.2208 10.8458 17.1234 -0.133254
201 2 2.2208 -0.317565 0.447743 10.8398
112 1 -1.1104 6.66243 18.7138 6.83414
49 1 -1.1104 12.3106 18.4477 12.5582
318 2 2.2208 7.9784 20.1604 -0.395775
8813 2 2.2208 -0.402568 -2.61352 2.6061
115 1 -1.1104 6.61176 12.8654 3.9595
64 1 -1.1104 6.48206 10.3854 1.00128
110 1 -1.1104 6.60039 12.888 1.16289
70 1 -1.1104 6.71378 10.1009 3.86388
85 2 2.2208 10.7572 11.4246 5.17217
89 1 -1.1104 12.3426 10.0542 1.14225
91 2 2.2208 10.8062 8.82783 2.52311
93 1 -1.1104 12.222 10.0399 3.93675
96 2 2.2208 7.99539 11.5196 2.45212
98 2 2.2208 7.95596 8.59767 5.26518
100 1 -1.1104 9.42231 10.1806 1.03251
103 1 -1.1104 9.36382 10.0705 3.84254
142 1 -1.1104 12.1535 12.824 1.19833
146 1 -1.1104 12.4596 12.6495 4.00326
153 1 -1.1104 9.26162 13.078 1.21525
158 1 -1.1104 9.57776 12.838 3.93788
150 2 2.2208 10.935 14.1933 2.61063
649 2 2.2208 7.94344 8.91038 -0.296068
8676 2 2.2208 -0.427704 11.7702 5.21988
367 2 2.2208 7.99498 14.4191 -0.421955
25 2 2.2208 13.5541 17.1272 8.04295
8516 2 2.2208 13.532 2.96747 5.32391
8109 2 2.2208 7.82506 -5.26259 7.85175
130 2 2.2208 2.44074 14.4184 5.2931
119 2 2.2208 5.16576 14.4495 2.46732
106 2 2.2208 5.28586 17.3612 5.16673
109 1 -1.1104 0.946074 18.5989 1.27148
114 1 -1.1104 1.19613 18.6383 4.08114
116 1 -1.1104 0.668364 15.7201 1.16089
120 2 2.2208 5.18673 20.0165 2.59371
121 1 -1.1104 0.776068 16.0099 3.76168
125 1 -1.1104 3.8391 18.697 1.19947
127 2 2.2208 2.27198 17.3126 2.50677
129 1 -1.1104 3.84276 18.6051 3.87756
131 2 2.2208 2.42427 20.175 5.45095
132 1 -1.1104 3.68671 15.8124 1.24912
134 1 -1.1104 3.75929 15.8971 3.81431
139 1 -1.1104 6.65414 18.559 3.69134
288 1 -1.1104 6.61074 18.5413 9.64988
126 1 -1.1104 3.7196 18.6113 6.96729
83 1 -1.1104 12.4504 15.7235 12.3629
8738 2 2.2208 -0.382176 11.7381 10.9714
122 1 -1.1104 6.54562 15.8248 3.73852
138 1 -1.1104 6.6283 18.4839 0.899785
140 1 -1.1104 6.43624 15.7259 1.07624
160 2 2.2208 8.06045 14.1971 5.27869
141 2 2.2208 10.7751 17.0393 5.19096
144 1 -1.1104 12.2695 18.692 1.24099
147 1 -1.1104 12.5904 18.2676 4.05028
148 1 -1.1104 12.2274 15.5537 1.01081
151 2 2.2208 10.9383 19.8889 2.64272
152 1 -1.1104 12.3549 15.5885 3.9203
155 1 -1.1104 9.75875 18.4471 1.37868
157 2 2.2208 8.10294 17.1179 2.42098
159 1 -1.1104 9.35769 18.5957 3.89894
161 2 2.2208 7.9912 19.9345 5.31938
162 1 -1.1104 9.35201 15.7669 1.01053
164 1 -1.1104 9.4914 15.6602 3.81806
149 1 -1.1104 12.342 15.7442 6.54321
373 2 2.2208 2.26192 14.4152 -0.0952582
230 2 2.2208 13.5374 -2.662 10.9202
170 1 -1.1104 0.664011 -1.14342 6.80643
172 1 -1.1104 3.43534 -3.98713 6.47642
174 1 -1.1104 3.494 -1.15289 6.68308
175 2 2.2208 5.11261 0.361211 10.7281
176 1 -1.1104 1.03117 -3.8724 12.494
180 1 -1.1104 1.022 -3.82035 9.4089
184 1 -1.1104 1.08394 -0.851204 12.1477
186 2 2.2208 4.9058 -2.38211 7.94594
188 1 -1.1104 0.983927 -1.22083 9.75588
190 1 -1.1104 3.55886 -3.89245 12.2574
192 2 2.2208 2.2421 0.484575 8.2037
193 1 -1.1104 3.669 -4.00223 9.44795
195 2 2.2208 2.47776 -2.38985 10.8055
197 1 -1.1104 3.83126 -0.93731 12.2886
198 1 -1.1104 3.97261 -1.13921 9.54838
324 2 2.2208 2.17469 -2.72969 -0.334556
327 2 2.2208 10.7627 0.308625 -0.394176
171 1 -1.1104 6.58834 -1.19439 6.47016
208 1 -1.1104 9.18333 -3.82537 6.76168
205 1 -1.1104 11.9886 -4.06141 6.83166
168 1 -1.1104 6.45 -3.79442 6.60673
207 1 -1.1104 12.4007 -0.958397 6.7247
189 1 -1.1104 6.65586 -1.15619 9.41799
182 1 -1.1104 6.52729 -4.07498 9.75849
178 1 -1.1104 6.3016 -4.04234 12.3541
185 1 -1.1104 6.5562 -1.06412 12.0589
211 2 2.2208 10.7443 0.242701 10.9874
212 1 -1.1104 12.1357 -3.94041 12.347
214 1 -1.1104 12.2218 -3.9068 9.5606
216 1 -1.1104 12.0823 -1.18998 12.5822
217 2 2.2208 10.8616 -2.52854 8.21144
219 1 -1.1104 12.3328 -1.09204 9.60605
220 1 -1.1104 9.18237 -3.84593 12.1507
222 2 2.2208 7.95703 0.174331 8.13393
223 1 -1.1104 9.24672 -3.78805 9.44171
225 2 2.2208 7.95714 -2.46559 10.8591
227 1 -1.1104 9.16995 -1.2007 12.5572
228 1 -1.1104 9.37473 -1.04851 9.65841
104 2 2.2208 10.8691 14.2251 8.09118
313 2 2.2208 7.99761 17.2048 8.02912
105 2 2.2208 10.8257 19.8474 8.20613
236 1 -1.1104 0.807848 4.57059 6.67947
167 1 -1.1104 0.85912 1.73201 6.64646
173 1 -1.1104 3.63602 1.70525 6.68308
238 1 -1.1104 3.66411 7.59703 6.70226
239 1 -1.1104 3.49168 4.60388 6.66264
177 1 -1.1104 0.75219 1.80998 12.3105
181 1 -1.1104 0.915704 1.60244 9.48247
187 2 2.2208 5.02518 3.3122 8.11991
191 1 -1.1104 3.54564 1.72089 12.1459
194 1 -1.1104 3.62466 1.85816 9.52519
196 2 2.2208 2.27694 3.28255 10.9855
240 2 2.2208 4.95789 5.95979 11.0668
246 1 -1.1104 0.796137 4.67812 12.3508
251 1 -1.1104 1.07953 4.49655 9.5006
256 2 2.2208 2.37684 5.95303 8.13851
260 1 -1.1104 3.69698 4.60914 12.4543
262 1 -1.1104 3.72588 4.70027 9.74707
244 1 -1.1104 0.902426 7.48724 9.17735
255 1 -1.1104 3.72728 7.33541 12.4297
258 1 -1.1104 3.72175 7.51729 9.68777
242 1 -1.1104 0.84507 7.39676 12.2339
248 1 -1.1104 6.63176 4.54074 12.5092
183 1 -1.1104 6.48991 1.91848 9.54227
53 1 -1.1104 12.3382 18.514 9.56397
296 1 -1.1104 6.76581 18.5825 12.3242
163 1 -1.1104 9.51699 15.4916 6.55477
237 1 -1.1104 6.38738 4.65336 6.71808
235 1 -1.1104 6.33119 7.48265 6.45126
269 1 -1.1104 9.2757 4.58581 6.74804
265 1 -1.1104 12.3104 7.44497 6.73885
267 1 -1.1104 9.28772 7.38224 6.74365
253 1 -1.1104 6.46657 4.66633 9.36178
179 1 -1.1104 6.59318 1.65741 12.3322
209 1 -1.1104 9.12583 1.77506 6.61109
266 1 -1.1104 12.1942 4.73476 6.71743
206 1 -1.1104 11.9362 1.96806 6.67578
245 1 -1.1104 6.38106 7.27614 9.31442
243 1 -1.1104 6.68023 7.30849 12.1697
213 1 -1.1104 11.9427 1.85343 12.3216
215 1 -1.1104 12.0961 1.78896 9.61048
218 2 2.2208 10.6415 3.23526 8.02312
221 1 -1.1104 9.27823 1.56237 12.445
224 1 -1.1104 9.15342 1.68751 9.62699
226 2 2.2208 7.79509 3.11046 10.9199
268 1 -1.1104 9.22903 4.62769 9.6562
271 1 -1.1104 9.46176 4.31735 12.3144
275 2 2.2208 8.01488 5.97712 8.17936
276 2 2.2208 10.8969 5.89397 10.8679
278 1 -1.1104 12.4195 7.128 12.4183
280 1 -1.1104 12.187 4.48582 12.4533
283 1 -1.1104 11.9453 4.56999 9.29198
273 1 -1.1104 9.40188 7.51266 9.53543
285 1 -1.1104 9.38915 7.34086 12.5795
279 1 -1.1104 12.1123 7.32185 9.67069
124 1 -1.1104 3.57983 13.3041 6.88264
108 1 -1.1104 0.966051 13.1643 6.587
78 1 -1.1104 3.80123 10.4497 6.61224
231 1 -1.1104 9.34262 15.7506 12.3096
312 2 2.2208 -0.429065 17.1684 11.0164
62 1 -1.1104 0.876178 10.4032 6.63807
241 2 2.2208 5.12142 11.3866 11.1548
247 1 -1.1104 0.937703 10.1062 12.328
250 2 2.2208 5.17593 8.84577 8.03571
252 1 -1.1104 0.90626 10.2934 9.52824
257 2 2.2208 2.3656 11.7389 8.03316
259 2 2.2208 2.26305 8.80885 10.8397
261 1 -1.1104 3.80293 10.0672 12.394
263 1 -1.1104 3.72694 10.1985 9.36333
287 1 -1.1104 3.75557 12.9564 12.4031
294 1 -1.1104 0.966115 12.9724 9.61393
299 1 -1.1104 0.794019 12.9123 12.2899
305 1 -1.1104 3.86203 13.0429 9.69607
254 1 -1.1104 6.48097 10.2265 9.71443
249 1 -1.1104 6.56713 9.95076 12.4333
290 1 -1.1104 6.52259 13.061 9.62522
52 1 -1.1104 9.46856 18.6377 9.726
202 2 2.2208 7.88203 14.3898 10.8707
154 1 -1.1104 9.34123 12.6697 6.82282
90 1 -1.1104 12.3631 10.0073 6.93914
65 1 -1.1104 6.81759 10.0817 6.56817
101 1 -1.1104 9.65003 10.0838 6.53191
297 1 -1.1104 6.60463 12.7635 12.4038
111 1 -1.1104 6.54276 13.047 6.76578
143 1 -1.1104 12.0951 12.9211 6.74003
229 1 -1.1104 9.20409 12.9432 12.1798
264 1 -1.1104 9.20223 10.2827 9.6097
270 1 -1.1104 9.37985 10.0514 12.342
272 2 2.2208 7.82133 8.71279 10.9535
274 2 2.2208 7.95774 11.5035 8.1056
277 2 2.2208 10.6829 11.6022 10.901
281 1 -1.1104 12.1534 10.0971 12.1807
282 2 2.2208 10.8529 8.66257 8.35739
284 1 -1.1104 12.2593 10.0255 9.73064
30 1 -1.1104 12.1013 12.6995 12.5681
50 1 -1.1104 12.1448 12.9025 9.70482
51 1 -1.1104 9.26286 13.1561 9.53608
289 1 -1.1104 6.57933 15.796 9.52827
117 1 -1.1104 1.17007 15.9367 6.66939
133 1 -1.1104 4.08414 15.8217 6.65794
118 1 -1.1104 6.8547 15.7836 6.54894
203 2 2.2208 7.88644 19.9709 11.0303
300 2 2.2208 5.45096 17.1831 11.0018
298 1 -1.1104 0.933427 18.4007 12.2542
293 2 2.2208 5.31113 20.0261 8.32264
308 1 -1.1104 4.03038 15.7361 12.3567
307 1 -1.1104 0.929624 15.84 12.2797
304 1 -1.1104 3.8223 15.8546 9.58502
303 2 2.2208 2.42962 17.2542 8.13357
301 1 -1.1104 3.80592 18.5669 9.58415
292 1 -1.1104 0.885478 15.8571 9.50742
306 1 -1.1104 6.58136 15.6497 12.5404
302 1 -1.1104 0.88314 18.6805 6.7522
310 2 2.2208 2.39657 14.471 11.1381
295 2 2.2208 5.24969 14.4398 8.1784
309 2 2.2208 2.44437 19.9343 11.0452
286 1 -1.1104 4.02032 18.4362 12.3503
291 1 -1.1104 0.874622 18.5135 9.58442
233 1 -1.1104 9.64009 18.4859 12.361
323 2 2.2208 5.09245 0.268422 -0.199607
328 2 2.2208 7.83358 -2.57872 -0.341078
8544 2 2.2208 13.5678 11.4013 2.48788
82 2 2.2208 -0.450054 8.64495 2.36907
8732 2 2.2208 13.5409 8.70491 11.0779
625 2 2.2208 5.21214 11.6281 -0.377407
317 2 2.2208 5.08714 3.14527 13.6252
8832 2 2.2208 13.6523 -2.41637 -0.297625
329 2 2.2208 7.97415 3.03114 -0.354313
8902 2 2.2208 -0.441401 5.83045 -0.395891
331 2 2.2208 5.09717 0.290642 16.4977
332 1 -1.1104 1.0846 -3.99446 18.2135
336 1 -1.1104 0.913516 -3.95025 15.3317
344 1 -1.1104 0.785884 -1.24633 17.9643
346 2 2.2208 5.11059 -2.67018 19.3593
348 1 -1.1104 0.739478 -1.07369 15.0132
352 1 -1.1104 3.75673 -4.06725 17.7711
354 2 2.2208 2.2761 0.14746 19.3944
355 1 -1.1104 3.64498 -3.98635 14.9597
359 2 2.2208 2.43143 -2.60042 16.5802
361 1 -1.1104 3.69628 -1.28116 17.9497
362 1 -1.1104 3.72094 -1.29345 15.1237
345 1 -1.1104 6.67253 -1.21247 17.9321
403 2 2.2208 -0.402239 8.56905 19.3585
340 1 -1.1104 6.35521 -3.96538 15.2306
341 1 -1.1104 6.5636 -3.86954 20.7518
563 2 2.2208 13.5859 11.786 19.5596
349 1 -1.1104 0.892932 -1.11935 20.8414
8862 2 2.2208 13.5513 17.0243 13.8065
350 1 -1.1104 6.52992 -1.00499 14.9781
334 1 -1.1104 6.60565 -4.06951 17.798
374 2 2.2208 10.8048 0.0396555 16.8497
375 1 -1.1104 11.8643 -4.05781 17.9463
377 1 -1.1104 12.1069 -3.95208 15.0751
381 1 -1.1104 12.2461 -1.45763 18.2197
382 2 2.2208 10.5903 -2.63545 19.5021
384 1 -1.1104 12.305 -1.31175 15.4865
386 1 -1.1104 9.28921 -3.97626 18.0703
388 2 2.2208 7.87604 0.376103 19.5125
389 1 -1.1104 9.33884 -4.1786 15.2096
393 2 2.2208 7.78514 -2.38428 16.4138
395 1 -1.1104 9.44968 -0.917957 18.3014
396 1 -1.1104 9.35672 -1.44274 15.5254
385 1 -1.1104 12.1476 -1.35805 20.9294
567 1 -1.1104 12.1918 18.5221 26.5984
503 2 2.2208 2.48875 17.0741 13.8316
333 1 -1.1104 0.971856 1.82094 17.8734
338 1 -1.1104 1.07056 1.64731 15.1475
347 2 2.2208 5.11095 3.02501 19.5412
353 1 -1.1104 3.74758 1.52821 18.064
357 1 -1.1104 3.78411 1.82924 15.0631
360 2 2.2208 2.34389 3.12328 16.4295
407 2 2.2208 5.21134 5.95853 16.5851
411 1 -1.1104 1.06847 7.27576 15.0253
415 1 -1.1104 0.85733 4.65989 17.9732
420 1 -1.1104 0.882202 4.47435 15.131
429 2 2.2208 2.35442 5.93876 19.314
434 1 -1.1104 3.76363 4.3897 17.9847
436 1 -1.1104 3.58193 4.59071 15.0839
431 1 -1.1104 3.84236 7.46183 15.1883
409 1 -1.1104 1.01889 7.30082 17.8877
428 1 -1.1104 3.7589 7.1413 17.8311
339 1 -1.1104 0.738367 1.81533 20.7396
412 1 -1.1104 0.997113 7.46385 20.862
432 1 -1.1104 3.79463 7.17681 20.8509
424 1 -1.1104 6.49063 4.48042 14.9828
437 1 -1.1104 3.70984 4.57827 20.8283
425 1 -1.1104 6.49628 4.37509 20.8222
8207 2 2.2208 10.7766 -5.22552 22.172
564 2 2.2208 13.5266 5.82785 19.3622
9080 2 2.2208 13.4817 -2.75939 22.3392
410 1 -1.1104 6.57806 7.2008 18.0668
413 1 -1.1104 6.64118 7.12498 15.0942
417 1 -1.1104 6.473 4.59683 17.9242
335 1 -1.1104 6.51001 1.70633 18.0529
342 1 -1.1104 6.21856 1.85124 15.1874
376 1 -1.1104 12.1279 1.68972 18.1875
379 1 -1.1104 12.0088 1.59436 15.277
383 2 2.2208 10.6467 3.03076 19.4465
387 1 -1.1104 9.2131 1.54809 18.0393
391 1 -1.1104 9.25901 1.39204 15.1931
394 2 2.2208 8.00076 2.9656 16.5517
443 2 2.2208 10.8639 6.06028 16.6945
448 1 -1.1104 12.1328 4.54723 17.9339
451 1 -1.1104 12.3302 4.37474 15.3414
456 2 2.2208 8.06797 5.92699 19.4744
461 1 -1.1104 9.38302 4.52667 18.0315
463 1 -1.1104 9.51006 4.30618 15.1779
446 1 -1.1104 12.1893 7.33161 15.3686
455 1 -1.1104 9.52039 7.361 18.1219
445 1 -1.1104 12.3203 7.36274 18.1534
458 1 -1.1104 9.42054 7.25208 15.3767
452 1 -1.1104 12.1634 4.54923 20.5798
464 1 -1.1104 9.42291 4.46414 20.9169
343 1 -1.1104 6.49894 1.66665 20.7044
8819 2 2.2208 13.6062 0.28821 14.0273
408 2 2.2208 5.1601 11.5703 16.6203
416 1 -1.1104 1.14302 10.3763 18.0589
419 2 2.2208 5.12684 8.55388 19.391
422 1 -1.1104 1.00241 9.9062 15.1559
430 2 2.2208 2.35718 11.647 19.4236
433 2 2.2208 2.36423 8.77692 16.5329
435 1 -1.1104 3.73387 10.0654 18.2027
438 1 -1.1104 3.74645 10.2285 15.3124
471 1 -1.1104 1.08981 12.7947 17.9545
475 1 -1.1104 0.840035 12.9782 15.047
491 1 -1.1104 3.90263 12.9779 17.9338
494 1 -1.1104 3.7083 12.9015 15.198
426 1 -1.1104 6.57497 10.0644 15.3425
479 1 -1.1104 6.66471 12.9055 15.4415
418 1 -1.1104 6.57835 9.77079 18.1531
505 2 2.2208 5.39424 14.1483 13.849
485 2 2.2208 5.17451 14.1926 19.5594
594 2 2.2208 -0.433433 17.0645 22.1224
9155 2 2.2208 -0.404847 5.85433 22.1642
8861 2 2.2208 13.5501 3.03675 16.7119
473 1 -1.1104 6.54878 12.8167 18.1985
444 2 2.2208 10.9364 11.4079 16.509
449 1 -1.1104 12.0743 10.2382 18.1975
450 2 2.2208 10.789 8.66768 19.3661
453 1 -1.1104 12.4381 10.0508 15.0303
457 2 2.2208 8.04188 11.4439 19.4061
460 2 2.2208 8.10188 8.6976 16.7771
462 1 -1.1104 9.36815 10.0326 17.9713
465 1 -1.1104 9.36179 10.0713 15.3959
507 1 -1.1104 12.2207 13.0773 18.0088
509 1 -1.1104 12.2805 12.9889 15.1031
518 1 -1.1104 9.4578 12.8991 18.0985
521 1 -1.1104 9.49686 13.0262 15.1895
514 2 2.2208 10.6248 14.4704 19.6749
467 2 2.2208 8.11738 5.85519 13.8197
468 2 2.2208 10.7814 8.79971 13.7117
441 2 2.2208 5.33372 8.67365 13.7692
9007 2 2.2208 13.5248 17.1665 19.4193
504 2 2.2208 5.10911 20.0179 13.7844
365 2 2.2208 13.5605 8.77431 22.2192
400 2 2.2208 13.5288 14.3621 16.7142
498 2 2.2208 2.47515 14.1671 16.4986
470 2 2.2208 5.13183 17.1239 16.764
472 1 -1.1104 1.1682 18.4738 17.7558
477 1 -1.1104 1.1253 18.5243 15.0439
483 1 -1.1104 0.696293 15.6284 17.9951
486 2 2.2208 5.02944 20.0385 19.3941
487 1 -1.1104 0.986104 15.7316 15.1413
492 1 -1.1104 3.81593 18.6825 17.9112
493 2 2.2208 2.2607 17.0359 19.4225
496 1 -1.1104 3.8904 18.7857 15.148
499 2 2.2208 2.41331 20.0591 16.6108
500 1 -1.1104 3.46235 15.5722 18.1755
501 1 -1.1104 3.97943 15.7855 15.1326
489 1 -1.1104 6.60227 15.6989 15.1557
481 1 -1.1104 6.32536 18.419 15.2072
364 2 2.2208 13.6752 17.1455 25.0787
316 2 2.2208 2.42063 0.312706 13.779
8903 2 2.2208 -0.286321 11.3784 22.0726
474 1 -1.1104 6.8349 18.4887 18.1027
484 1 -1.1104 6.45981 15.5811 17.8229
525 2 2.2208 8.1123 14.4091 16.591
506 2 2.2208 10.9851 17.1714 16.504
508 1 -1.1104 12.2928 18.7665 17.7986
511 1 -1.1104 12.0487 18.5723 15.0834
513 1 -1.1104 12.1924 15.8922 18.1516
515 2 2.2208 10.7091 19.929 19.3475
516 1 -1.1104 12.1736 15.6973 15.2464
519 1 -1.1104 9.51746 18.3428 18.1652
520 2 2.2208 8.01676 17.0646 19.5146
523 1 -1.1104 9.31113 18.5975 15.1509
526 2 2.2208 8.10915 19.8142 16.7193
527 1 -1.1104 9.45648 15.6918 17.9717
528 1 -1.1104 9.40994 15.7199 14.988
322 2 2.2208 10.8341 3.13054 13.742
532 2 2.2208 7.9887 17.0956 13.8097
337 1 -1.1104 0.800017 -3.85768 20.9372
363 1 -1.1104 3.53217 -1.25109 20.8714
356 1 -1.1104 3.67715 -4.01247 20.7541
653 1 -1.1104 9.20831 15.7521 23.7104
534 2 2.2208 5.12273 0.0821243 22.27
535 1 -1.1104 0.576044 -4.18327 24.0389
539 1 -1.1104 0.907175 -4.10499 26.6094
543 1 -1.1104 0.675488 -1.21234 23.608
545 2 2.2208 4.90693 -2.66358 25.0052
547 1 -1.1104 0.909376 -1.19117 26.4949
549 1 -1.1104 3.70474 -3.7686 23.4418
551 2 2.2208 2.23894 0.182761 25.1224
552 1 -1.1104 3.57204 -4.06137 26.2858
554 2 2.2208 2.19581 -2.59412 22.3147
556 1 -1.1104 3.37683 -1.20469 23.7085
557 1 -1.1104 3.83701 -1.40195 26.6088
544 1 -1.1104 6.28822 -1.4065 23.7369
537 1 -1.1104 6.3529 -4.06962 23.5737
9048 2 2.2208 -0.445214 16.9217 16.6278
652 2 2.2208 7.93706 19.7908 22.4421
351 1 -1.1104 6.4651 -1.15876 20.8553
397 1 -1.1104 9.25235 -1.34615 20.8827
378 1 -1.1104 12.4831 -4.25983 20.8883
390 1 -1.1104 9.29531 -4.05344 20.8962
548 1 -1.1104 6.52163 -1.13173 26.6057
541 1 -1.1104 6.59919 -3.96964 26.3644
570 2 2.2208 10.6414 0.0484416 22.4359
571 1 -1.1104 12.1871 -4.1118 23.6445
573 1 -1.1104 12.27 -3.99667 26.4501
575 1 -1.1104 12.1417 -1.36506 23.6399
576 2 2.2208 10.6755 -2.79561 25.2796
578 1 -1.1104 12.0729 -1.0985 26.5283
579 1 -1.1104 9.29761 -4.16224 23.7143
581 2 2.2208 7.86907 0.275749 25.0988
582 1 -1.1104 9.40877 -4.33024 26.6082
584 2 2.2208 7.81768 -2.60909 22.3687
586 1 -1.1104 9.21928 -1.33903 23.6269
587 1 -1.1104 9.33589 -1.49887 26.558
8860 2 2.2208 13.6486 6.09528 25.1353
358 1 -1.1104 3.75511 1.45976 20.985
421 1 -1.1104 1.05608 4.61749 20.8415
414 1 -1.1104 6.64484 7.2825 20.7397
536 1 -1.1104 0.858733 1.60868 23.5993
540 1 -1.1104 0.614645 1.68905 26.5469
546 2 2.2208 5.11383 3.18481 25.1409
550 1 -1.1104 3.80997 1.60432 23.7965
553 1 -1.1104 3.57622 1.4605 26.5334
555 2 2.2208 2.30977 2.99395 22.3085
599 2 2.2208 5.22438 5.99308 22.0508
605 1 -1.1104 0.791254 4.37977 23.7131
610 1 -1.1104 0.846375 4.76435 26.396
615 2 2.2208 2.19018 5.96584 24.8442
619 1 -1.1104 3.74108 4.40315 23.52
621 1 -1.1104 3.58254 4.27222 26.4527
603 1 -1.1104 0.636654 7.35822 26.4132
601 1 -1.1104 0.829941 7.2517 23.6483
617 1 -1.1104 3.79934 7.15289 26.4608
614 1 -1.1104 3.79076 7.31581 23.5945
607 1 -1.1104 6.79801 4.46038 23.7507
602 1 -1.1104 6.4049 7.3044 23.4512
612 1 -1.1104 6.37911 4.58521 26.6155
459 1 -1.1104 9.49849 7.40241 20.8954
447 1 -1.1104 12.183 7.43169 20.8496
392 1 -1.1104 9.25542 1.60852 20.8941
380 1 -1.1104 11.9346 1.62673 20.7697
8935 2 2.2208 13.632 8.82961 16.7535
604 1 -1.1104 6.52888 7.40722 26.5017
542 1 -1.1104 6.48341 1.84562 26.4896
538 1 -1.1104 6.69033 1.59917 23.6995
572 1 -1.1104 11.9276 1.67159 23.605
574 1 -1.1104 12.2266 1.55393 26.4954
577 2 2.2208 10.8369 3.18697 25.2408
580 1 -1.1104 9.31278 1.45622 23.5387
583 1 -1.1104 9.37587 1.65694 26.3623
585 2 2.2208 7.94122 3.08396 22.1946
631 1 -1.1104 9.30676 4.56092 26.6292
633 1 -1.1104 9.35199 4.44251 23.6868
637 2 2.2208 7.95928 5.93995 25.0695
638 2 2.2208 10.6813 5.9097 22.2765
640 1 -1.1104 12.0669 7.43945 23.7105
642 1 -1.1104 12.0474 4.65707 23.6673
645 1 -1.1104 12.1343 4.57834 26.5173
641 1 -1.1104 12.1648 7.35612 26.5149
647 1 -1.1104 9.19888 7.23803 23.6805
635 1 -1.1104 9.45582 7.35396 26.3173
476 1 -1.1104 1.04514 13.0381 20.7716
423 1 -1.1104 1.09276 10.1435 20.8391
439 1 -1.1104 3.86972 9.76151 20.9506
495 1 -1.1104 3.62413 12.7865 20.8402
600 2 2.2208 5.02459 11.2305 22.1108
606 1 -1.1104 0.862301 10.1044 23.7926
609 2 2.2208 5.22722 8.8039 25.0363
611 1 -1.1104 0.946317 9.86517 26.5354
616 2 2.2208 2.3339 11.5808 25.2077
618 2 2.2208 2.32252 8.60255 22.3381
620 1 -1.1104 3.80229 10.0064 23.7186
622 1 -1.1104 3.80795 9.95832 26.4038
560 1 -1.1104 3.78265 12.8932 26.3503
623 1 -1.1104 1.08811 12.837 23.7251
656 1 -1.1104 3.73879 12.8822 23.6435
660 1 -1.1104 0.852648 12.9893 26.5049
404 2 2.2208 2.25854 14.4017 22.3565
469 2 2.2208 7.96192 11.3905 13.8604
9078 2 2.2208 13.5326 0.266365 24.9811
651 2 2.2208 8.02305 14.3949 22.1506
427 1 -1.1104 6.56128 10.0455 21.0569
466 1 -1.1104 9.50772 10.2513 20.6852
510 1 -1.1104 12.0875 12.9845 20.7654
454 1 -1.1104 12.2345 10.0646 20.9694
522 1 -1.1104 9.17077 13.1999 20.6694
480 1 -1.1104 6.56887 12.8054 20.8543
613 1 -1.1104 6.54116 10.3988 26.4627
608 1 -1.1104 6.74987 10.1234 23.8469
664 1 -1.1104 6.78661 12.8747 23.7073
655 1 -1.1104 6.71326 12.9265 26.6083
628 1 -1.1104 9.38232 12.8813 26.5064
630 1 -1.1104 9.4344 9.99108 26.5615
632 1 -1.1104 9.37394 10.1149 23.6271
634 2 2.2208 7.98749 8.81435 22.3685
636 2 2.2208 8.02328 11.5538 25.3067
639 2 2.2208 11.0855 11.5703 22.3657
643 1 -1.1104 12.2021 10.0067 23.7282
644 2 2.2208 10.8341 8.55848 25.0207
646 1 -1.1104 12.1306 10.1868 26.5129
597 1 -1.1104 9.58376 12.863 23.7039
561 1 -1.1104 12.3814 13.0034 23.7358
566 1 -1.1104 12.1479 13.0605 26.6524
591 2 2.2208 10.7738 14.4244 24.9685
9050 2 2.2208 -0.380949 19.8693 13.7351
488 1 -1.1104 1.11246 15.7222 20.9221
502 1 -1.1104 3.99894 15.6812 20.9124
478 1 -1.1104 0.728942 18.3065 20.4586
8934 2 2.2208 13.6128 5.92524 13.9178
530 2 2.2208 10.8733 19.9288 13.75
657 1 -1.1104 6.54453 15.5842 26.4839
590 2 2.2208 5.20947 17.0827 22.2579
654 1 -1.1104 3.57432 18.3459 23.6067
497 1 -1.1104 3.66899 18.4747 20.7762
658 1 -1.1104 1.17841 18.4521 26.5673
663 2 2.2208 5.24261 14.3114 25.0661
662 2 2.2208 5.25551 19.8555 25.1559
659 1 -1.1104 0.666703 15.6943 26.5182
665 1 -1.1104 0.814098 18.5467 23.3839
405 2 2.2208 2.06886 20.0725 22.1985
406 1 -1.1104 3.58378 15.6211 23.8485
558 1 -1.1104 0.737665 15.8727 23.6579
565 1 -1.1104 3.70109 15.579 26.6877
588 2 2.2208 2.30604 17.0785 25.1326
589 1 -1.1104 3.79012 18.3492 26.3619
559 1 -1.1104 6.45181 15.7319 23.4996
372 1 -1.1104 9.61447 15.6563 26.4348
533 2 2.2208 10.8239 17.3883 22.2756
562 1 -1.1104 12.212 18.6222 23.5396
490 1 -1.1104 6.82611 15.5635 20.7164
529 1 -1.1104 9.51011 15.8764 20.8969
524 1 -1.1104 9.318 18.3436 20.871
595 2 2.2208 10.8755 20.0193 25.1962
517 1 -1.1104 12.1747 15.6835 20.9474
482 1 -1.1104 6.6503 18.3434 20.9577
598 1 -1.1104 9.36872 18.5607 23.8575
661 1 -1.1104 6.5519 18.4973 23.7126
627 1 -1.1104 6.96404 18.2795 26.5632
596 1 -1.1104 12.3075 15.7266 26.4525
512 1 -1.1104 12.0499 18.602 20.6046
569 1 -1.1104 12.1372 15.8354 23.7484
626 2 2.2208 8.14966 17.0026 25.2318
629 1 -1.1104 9.54968 18.6131 26.9262
593 2 2.2208 13.5036 0.188067 19.5178
366 2 2.2208 13.5697 2.98024 22.157
8906 2 2.2208 13.6753 14.5382 22.2661
531 2 2.2208 10.7211 14.3485 13.7259
8942 2 2.2208 -0.293812 11.5153 16.453
624 2 2.2208 2.33572 8.54229 27.8112
399 2 2.2208 13.6393 19.8829 16.4209
321 2 2.2208 10.7399 -2.63595 13.9822
8863 2 2.2208 13.4736 -2.75913 16.5645
401 2 2.2208 -0.428734 5.81379 16.5753
314 2 2.2208 -0.336406 -2.66789 13.7819
9049 2 2.2208 -0.415847 14.4429 13.7157
592 2 2.2208 -0.341744 3.14483 19.5276
9047 2 2.2208 -0.436378 14.2921 19.4306
325 2 2.2208 2.25335 2.94599 27.7451
442 2 2.2208 2.34825 11.4006 13.701
315 2 2.2208 5.00344 -2.49415 13.7059
440 2 2.2208 2.15773 6.10869 13.6965
666 2 2.2208 5.20655 22.7988 5.43213
668 1 -1.1104 1.04995 24.1455 1.36804
669 1 -1.1104 0.789178 24.267 4.02107
670 1 -1.1104 0.990449 21.2545 1.26463
672 2 2.2208 5.18455 25.693 2.52802
673 1 -1.1104 0.925297 21.4666 4.09473
675 1 -1.1104 3.98212 24.1943 1.19135
676 2 2.2208 2.43902 22.8597 2.70005
678 1 -1.1104 3.51587 24.3693 3.87468
679 2 2.2208 2.33426 25.7115 5.39017
680 1 -1.1104 3.74384 21.2232 1.29516
682 1 -1.1104 3.84597 21.4334 4.03103
674 1 -1.1104 0.86257 27.1316 3.94544
683 1 -1.1104 3.55189 27.1276 4.13321
691 1 -1.1104 6.56346 21.4361 4.07703
681 1 -1.1104 3.78064 26.8689 1.11699
671 1 -1.1104 0.75699 26.8995 1.28051
690 1 -1.1104 6.65081 26.7822 1.09018
687 1 -1.1104 6.69133 23.8457 0.899783
692 1 -1.1104 6.26979 27.1079 3.99231
9489 2 2.2208 -0.410605 37.0398 2.42187
993 2 2.2208 5.07914 22.5624 -0.189566
736 2 2.2208 -0.233354 31.1992 2.40627
9506 2 2.2208 13.6863 36.813 -0.261884
1006 2 2.2208 8.13112 36.8366 -0.296863
689 1 -1.1104 6.59925 21.2493 1.19804
688 1 -1.1104 6.65161 24.3442 3.68753
700 1 -1.1104 12.369 21.1136 4.006
693 2 2.2208 10.8197 22.7578 5.22369
695 1 -1.1104 12.2033 24.228 0.748208
696 1 -1.1104 12.2866 24.097 3.82745
697 1 -1.1104 12.2164 21.57 1.06343
699 2 2.2208 10.7471 25.6751 2.43677
702 1 -1.1104 9.69628 24.098 1.10607
703 2 2.2208 7.98799 22.6863 2.43487
705 1 -1.1104 9.43245 24.1479 4.08361
706 2 2.2208 8.05432 25.6094 5.36458
707 1 -1.1104 9.33313 21.259 1.10189
709 1 -1.1104 9.36708 21.4111 4.01265
708 1 -1.1104 9.46066 27.0147 1.14607
698 1 -1.1104 12.2986 27.1306 1.16849
710 1 -1.1104 9.31322 27.1531 3.88119
842 1 -1.1104 12.3617 26.871 6.75337
701 1 -1.1104 12.2671 27.0283 4.17624
1556 1 -1.1104 6.86421 46.6768 9.50838
995 2 2.2208 5.21052 28.1992 -0.248765
667 2 2.2208 5.19704 28.5102 5.38034
677 2 2.2208 2.20361 28.3914 2.63923
715 1 -1.1104 1.00854 29.6788 1.02889
718 1 -1.1104 0.947449 30.0587 3.80435
721 1 -1.1104 1.15166 32.7329 1.04495
722 2 2.2208 5.23286 31.1529 2.48568
724 1 -1.1104 1.06912 32.6869 3.8314
726 1 -1.1104 3.86741 29.7592 0.972035
729 1 -1.1104 3.87074 29.9499 4.00917
731 2 2.2208 2.36065 31.2432 5.1007
733 1 -1.1104 4.00354 32.5574 0.986104
734 1 -1.1104 3.77788 32.6433 3.67523
738 1 -1.1104 6.6798 29.5787 1.1374
740 1 -1.1104 6.70216 32.5196 1.16643
714 2 2.2208 5.29781 34.1074 5.28843
1005 2 2.2208 -0.336347 34.1112 -0.254562
872 1 -1.1104 3.93555 32.6358 6.65391
976 2 2.2208 -0.476531 31.1658 8.16871
737 2 2.2208 -0.405498 34.1098 5.21492
759 2 2.2208 10.9704 45.3894 11.0515
9244 2 2.2208 13.6589 31.3761 5.45249
739 1 -1.1104 6.78814 29.8184 4.00007
725 1 -1.1104 6.68062 32.672 4.01402
694 2 2.2208 11.0108 28.408 5.34531
704 2 2.2208 7.96788 28.3241 2.38247
742 1 -1.1104 12.4491 29.8149 1.19782
744 1 -1.1104 12.3528 29.8109 4.03078
746 1 -1.1104 12.3354 32.5697 1.12255
747 2 2.2208 10.9188 31.2372 2.56382
749 1 -1.1104 12.1178 32.7917 4.19062
750 1 -1.1104 9.39657 29.7819 1.08753
753 1 -1.1104 9.70032 29.7568 3.94615
755 2 2.2208 8.28795 31.1632 5.38051
757 1 -1.1104 9.7048 32.6217 0.941255
758 1 -1.1104 9.41758 32.7759 3.92908
1007 2 2.2208 8.08152 31.1074 -0.30901
1001 2 2.2208 10.9523 28.4464 -0.335475
903 1 -1.1104 9.39518 32.9107 6.66228
9497 2 2.2208 -0.315286 36.8158 8.1246
728 2 2.2208 2.47546 34.098 2.30407
716 1 -1.1104 1.15916 35.6047 1.16377
719 1 -1.1104 0.972404 35.4773 3.94019
723 2 2.2208 5.1562 36.9574 2.33304
727 1 -1.1104 3.99065 35.4873 0.879328
730 1 -1.1104 3.90768 35.471 3.62779
732 2 2.2208 2.45247 36.8604 5.16362
766 1 -1.1104 1.05482 38.5555 0.987263
771 1 -1.1104 1.15863 38.4509 3.93134
780 1 -1.1104 3.87865 38.7069 1.06726
782 1 -1.1104 3.79041 38.306 3.85676
776 2 2.2208 2.54905 39.8293 2.54614
760 2 2.2208 5.13623 39.8483 5.53233
768 1 -1.1104 6.71885 38.0279 1.08834
773 1 -1.1104 6.63521 38.3589 3.87804
720 1 -1.1104 6.66006 35.5049 3.94632
717 1 -1.1104 6.62962 35.2997 1.19873
9511 2 2.2208 13.6474 42.3041 -0.153534
944 1 -1.1104 3.92178 38.4028 6.81985
938 1 -1.1104 0.925745 38.2645 6.82133