ITEM: TIMESTEP
100000
ITEM: NUMBER OF ATOMS
17760
ITEM: BOX BOUNDS pp pp pp
-4.4751912497992496e-01 2.7787519124980243e+01
-5.4854466171230785e+00 3.3356544661712502e+02
-4.2360084922557523e-01 2.7763600849225259e+01
ITEM: ATOMS id type q x y z
1 2 2.2208 5.22258 0.0950294 5.2128
2 1 -1.1104 0.891519 -4.10429 0.907835
6 1 -1.1104 0.821908 -4.12293 3.48418
10 1 -1.1104 0.898778 -1.38362 0.68461
12 2 2.2208 5.0236 -2.78029 2.32591
14 1 -1.1104 0.901378 -1.2097 3.43367
16 1 -1.1104 3.73413 -4.18649 0.820329
18 2 2.2208 2.09087 0.284996 2.11764
19 1 -1.1104 3.72161 -4.32274 3.78462
21 2 2.2208 2.26323 -2.74723 5.18598
23 1 -1.1104 3.78857 -1.2409 0.756954
24 1 -1.1104 3.75542 -1.42086 3.53077
170 1 -1.1104 0.878481 -1.29776 6.36008
8106 2 2.2208 10.7251 -5.33982 5.33806
174 1 -1.1104 3.5919 -1.28421 6.21616
4 1 -1.1104 6.48858 -4.02458 0.833426
8119 2 2.2208 7.86833 -5.41479 13.6372
650 2 2.2208 10.91 11.4787 -0.384369
11 1 -1.1104 6.30723 -1.05046 0.970972
200 2 2.2208 -0.368294 -2.63484 7.97414
15 1 -1.1104 6.4928 -1.0942 3.7488
8 1 -1.1104 6.49578 -4.08333 3.68027
31 2 2.2208 10.8344 -0.00707021 5.08608
32 1 -1.1104 12.2677 -4.00625 0.988807
34 1 -1.1104 12.3433 -4.12326 3.8372
36 1 -1.1104 11.9979 -1.01412 1.11858
37 2 2.2208 10.6739 -2.79549 2.31988
39 1 -1.1104 12.2313 -1.35388 3.69783
40 1 -1.1104 9.40582 -4.08586 0.958714
42 2 2.2208 7.85837 0.103924 2.26993
43 1 -1.1104 9.24049 -4.14045 3.71671
45 2 2.2208 7.86763 -2.50419 5.00913
47 1 -1.1104 9.18263 -1.30626 0.786321
48 1 -1.1104 9.36036 -1.42408 3.69898
208 1 -1.1104 9.21283 -3.86726 6.52891
9050 2 2.2208 -0.3123 19.5805 13.6145
8104 2 2.2208 5.03079 -5.45346 5.26357
210 1 -1.1104 9.30963 -1.04937 6.63561
205 1 -1.1104 12.1476 -3.81815 6.69986
442 2 2.2208 2.38894 11.3572 13.3909
8814 2 2.2208 13.6074 14.2907 10.7669
7 1 -1.1104 0.964001 1.66548 3.71782
3 1 -1.1104 0.94377 1.69321 0.897548
13 2 2.2208 4.852 3.00226 2.15824
17 1 -1.1104 3.82501 1.76328 0.802131
20 1 -1.1104 3.66402 1.48602 3.65139
22 2 2.2208 2.55719 2.92804 5.03437
54 2 2.2208 5.29494 5.70809 5.04252
56 1 -1.1104 0.878698 7.19796 0.957741
60 1 -1.1104 0.807285 4.58969 0.840449
67 1 -1.1104 1.01896 4.41733 3.85568
71 1 -1.1104 3.63725 7.17864 0.934155
72 2 2.2208 2.15548 5.85288 2.16388
76 1 -1.1104 3.83293 4.51601 0.609328
79 1 -1.1104 3.57514 4.20459 3.43477
58 1 -1.1104 1.18528 7.15055 3.59515
74 1 -1.1104 4.02648 7.34166 3.64474
239 1 -1.1104 3.78956 4.45588 6.09689
57 1 -1.1104 6.62421 7.2549 0.6713
59 1 -1.1104 6.76616 7.17323 3.73306
63 1 -1.1104 6.57982 4.5452 0.672806
5 1 -1.1104 6.72181 1.46659 0.869471
9 1 -1.1104 6.38539 1.59384 3.68825
69 1 -1.1104 6.33779 4.4605 3.52471
173 1 -1.1104 3.94595 1.469 6.55839
169 1 -1.1104 6.68545 1.6697 6.60433
33 1 -1.1104 12.4637 1.68433 1.07789
35 1 -1.1104 12.0909 1.42966 3.64578
38 2 2.2208 10.8318 2.87325 2.37766
41 1 -1.1104 9.57417 1.45489 0.819908
44 1 -1.1104 9.26558 1.34913 3.90663
46 2 2.2208 7.81413 2.82576 5.08197
84 2 2.2208 10.739 5.73583 5.2144
88 1 -1.1104 11.8964 4.33728 0.775188
92 1 -1.1104 12.1188 4.40012 3.91354
94 1 -1.1104 9.43888 7.048 1.26552
95 2 2.2208 7.92549 5.64987 2.17431
99 1 -1.1104 9.30369 4.08282 0.736517
102 1 -1.1104 9.1658 4.22584 3.64294
97 1 -1.1104 9.29318 6.9095 3.90386
87 1 -1.1104 12.1369 7.16825 3.78778
86 1 -1.1104 12.1896 7.15891 0.751931
440 2 2.2208 2.26271 5.72245 13.3766
265 1 -1.1104 12.1655 7.18632 6.64605
269 1 -1.1104 9.3026 4.45609 6.40187
266 1 -1.1104 12.0122 4.26658 6.52806
209 1 -1.1104 9.42321 1.55928 6.43469
8516 2 2.2208 13.6046 2.85203 4.97635
27 2 2.2208 10.6853 16.9088 10.9937
17394 2 2.2208 13.5702 -5.31377 2.43387
55 2 2.2208 4.8979 11.3195 5.11052
61 1 -1.1104 0.989322 10.1407 0.885721
66 2 2.2208 5.28819 8.53801 2.12366
68 1 -1.1104 0.865553 10.0229 3.994
73 2 2.2208 2.44961 11.281 2.47452
75 2 2.2208 2.38118 8.63924 5.16046
77 1 -1.1104 3.983 10.0874 0.946131
80 1 -1.1104 3.7096 9.83067 3.58416
107 1 -1.1104 0.658373 12.9509 1.08244
113 1 -1.1104 1.06253 12.8794 3.89393
123 1 -1.1104 3.58798 12.8269 0.953365
128 1 -1.1104 3.86729 12.756 3.75714
64 1 -1.1104 6.63107 10.161 0.856631
110 1 -1.1104 6.4109 12.8781 0.751767
70 1 -1.1104 6.54054 10.1335 3.79825
165 2 2.2208 13.6132 17.2117 2.4225
115 1 -1.1104 6.62893 12.9756 3.29718
108 1 -1.1104 0.805454 12.7745 6.61771
65 1 -1.1104 6.40365 9.99851 6.79518
124 1 -1.1104 3.76795 12.9009 6.45167
8105 2 2.2208 7.87658 -5.35134 2.12005
85 2 2.2208 10.7379 11.3426 5.23314
89 1 -1.1104 12.2321 10.0772 0.939846
91 2 2.2208 10.7434 8.55422 2.36569
93 1 -1.1104 12.2234 10.0113 3.74382
96 2 2.2208 7.94013 11.4004 2.25698
98 2 2.2208 7.80431 8.54129 5.16903
100 1 -1.1104 9.44823 10.0124 0.754523
103 1 -1.1104 9.51255 9.84161 3.79009
142 1 -1.1104 12.2978 12.822 1.06913
146 1 -1.1104 12.1746 12.8294 4.01284
153 1 -1.1104 9.41583 12.7175 0.999905
158 1 -1.1104 9.46077 12.6439 3.64604
101 1 -1.1104 9.25556 10.0202 6.56779
8544 2 2.2208 13.5843 11.5985 2.46629
267 1 -1.1104 9.1805 7.13156 6.56946
8545 2 2.2208 13.5452 8.74956 5.09698
130 2 2.2208 2.28187 14.3386 5.06457
119 2 2.2208 4.98149 14.3576 2.35301
106 2 2.2208 5.08607 17.2416 5.0598
109 1 -1.1104 0.857159 18.5427 0.772433
114 1 -1.1104 0.761102 18.4233 3.67999
116 1 -1.1104 0.850316 15.6357 0.829452
120 2 2.2208 5.20028 19.9586 2.21918
121 1 -1.1104 0.620608 15.7033 3.67853
125 1 -1.1104 3.75768 18.3736 1.02504
127 2 2.2208 2.24727 17.0094 2.26356
129 1 -1.1104 3.73702 18.6931 3.80061
131 2 2.2208 2.23317 19.9181 5.13419
132 1 -1.1104 3.63498 15.5434 0.927282
134 1 -1.1104 3.52749 15.7526 3.82831
139 1 -1.1104 6.59661 18.5976 3.69351
17388 2 2.2208 13.6125 -5.36996 7.97068
138 1 -1.1104 6.37968 18.4417 0.860273
122 1 -1.1104 6.37602 15.6983 3.78925
302 1 -1.1104 0.979347 18.5607 6.4276
49 1 -1.1104 12.1874 18.3901 12.1556
25 2 2.2208 13.4503 17.0292 7.79009
306 1 -1.1104 6.47218 15.8272 12.2964
321 2 2.2208 10.7427 -2.52314 13.5279
8593 2 2.2208 13.4506 19.9232 5.17371
8711 2 2.2208 13.6248 0.201715 2.37549
315 2 2.2208 5.08962 -2.80408 13.6551
150 2 2.2208 10.6763 14.1694 2.56839
140 1 -1.1104 6.6977 15.7288 0.931348
160 2 2.2208 7.73789 14.277 5.12507
141 2 2.2208 10.728 17.1002 5.17819
144 1 -1.1104 12.2243 18.4318 1.08224
147 1 -1.1104 12.1554 18.3562 3.62629
148 1 -1.1104 12.1618 15.7231 1.19857
151 2 2.2208 10.6121 19.9669 2.50168
152 1 -1.1104 12.2281 15.6638 3.77705
155 1 -1.1104 9.38909 18.5836 0.961682
157 2 2.2208 7.89113 17.1069 2.38921
159 1 -1.1104 9.25448 18.524 3.71482
161 2 2.2208 7.91956 19.7501 5.18688
162 1 -1.1104 9.45917 15.3981 1.0454
164 1 -1.1104 9.18781 15.6146 3.58902
145 1 -1.1104 12.1447 18.4714 6.46572
8738 2 2.2208 -0.437803 11.3119 10.6017
149 1 -1.1104 11.9857 15.6301 6.40826
163 1 -1.1104 9.07293 15.7926 6.64852
52 1 -1.1104 9.38647 18.2967 9.42844
104 2 2.2208 10.6309 14.2881 7.85833
8728 2 2.2208 13.6437 11.5721 7.81642
172 1 -1.1104 3.55093 -4.06993 6.59381
105 2 2.2208 10.7599 19.8225 8.0693
202 2 2.2208 7.96503 14.3737 10.8834
171 1 -1.1104 6.42462 -1.42383 6.40247
156 1 -1.1104 9.27461 18.5093 6.46369
168 1 -1.1104 6.50175 -4.11112 6.58614
166 1 -1.1104 0.678986 -4.11234 6.15598
175 2 2.2208 5.10268 0.111348 10.7738
176 1 -1.1104 1.04392 -3.97113 12.5526
180 1 -1.1104 0.947384 -4.1713 9.64854
184 1 -1.1104 0.885707 -1.19876 11.9842
186 2 2.2208 4.91478 -2.80459 7.86851
188 1 -1.1104 1.01397 -1.35229 9.18791
190 1 -1.1104 3.94289 -3.96871 11.8765
192 2 2.2208 2.35815 0.14123 7.89257
193 1 -1.1104 3.53669 -4.17621 9.32721
195 2 2.2208 2.2685 -2.72741 10.9036
197 1 -1.1104 3.56205 -1.14966 12.3784
198 1 -1.1104 3.75033 -1.06636 9.23939
178 1 -1.1104 6.6541 -4.18574 12.0182
185 1 -1.1104 6.44451 -1.47348 12.1303
189 1 -1.1104 6.34868 -1.17627 9.30597
203 2 2.2208 8.08631 19.6369 10.7386
8939 2 2.2208 13.5314 11.2502 13.4132
8614 2 2.2208 13.5442 14.3077 5.19014
207 1 -1.1104 12.411 -1.19115 6.46218
204 1 -1.1104 12.3129 15.5289 9.3347
28 2 2.2208 13.5926 19.7073 10.893
83 1 -1.1104 12.0983 15.3925 12.2381
8867 2 2.2208 13.513 14.3166 -0.189783
8832 2 2.2208 13.5151 -2.62746 -0.306294
367 2 2.2208 7.98543 14.2267 -0.293707
182 1 -1.1104 6.67326 -4.10249 9.38832
211 2 2.2208 10.7579 0.352092 10.6519
212 1 -1.1104 12.2299 -3.97073 12.1655
214 1 -1.1104 12.0221 -4.07022 9.52729
216 1 -1.1104 12.2056 -0.970893 12.253
217 2 2.2208 10.7172 -2.58118 7.84516
219 1 -1.1104 12.4956 -1.34694 9.27663
220 1 -1.1104 9.28264 -3.82995 12.4667
222 2 2.2208 7.88282 0.288862 7.96107
223 1 -1.1104 9.41845 -3.88052 9.35782
225 2 2.2208 7.94869 -2.51126 10.7834
227 1 -1.1104 9.1847 -1.05726 12.0534
228 1 -1.1104 9.46726 -1.0666 9.14569
313 2 2.2208 7.77532 16.9915 8.06171
317 2 2.2208 5.1179 2.92646 13.4896
319 2 2.2208 7.85235 0.250053 13.4354
53 1 -1.1104 12.2789 18.3165 9.35248
234 1 -1.1104 0.806757 7.26573 6.51006
167 1 -1.1104 1.06798 1.53158 6.64086
236 1 -1.1104 1.08503 4.22137 6.49063
177 1 -1.1104 0.638232 1.57184 12.0793
181 1 -1.1104 0.916233 1.29937 9.30083
187 2 2.2208 5.03022 2.89501 7.86652
191 1 -1.1104 3.59639 1.54649 12.115
194 1 -1.1104 3.78925 1.60486 9.38095
196 2 2.2208 2.33563 2.87348 10.6086
240 2 2.2208 5.05486 5.81537 10.7811
246 1 -1.1104 0.927059 4.2704 11.9452
251 1 -1.1104 0.788824 4.27669 9.24744
256 2 2.2208 2.25119 5.82982 7.87148
260 1 -1.1104 3.82122 4.45071 12.0956
262 1 -1.1104 3.69039 4.40299 9.16664
244 1 -1.1104 0.87289 7.01814 9.48633
258 1 -1.1104 3.6465 7.03449 9.3385
242 1 -1.1104 0.83401 7.1293 12.2332
183 1 -1.1104 6.62886 1.4575 9.48332
237 1 -1.1104 6.61113 4.3945 6.44718
255 1 -1.1104 3.808 6.90414 12.2224
253 1 -1.1104 6.28114 4.31006 9.18809
238 1 -1.1104 3.5309 7.29985 6.60202
230 2 2.2208 13.4622 -2.54966 10.7556
441 2 2.2208 5.07559 8.53862 13.571
245 1 -1.1104 6.56591 6.98197 9.45804
206 1 -1.1104 12.3791 1.51195 6.3511
248 1 -1.1104 6.50686 4.45553 12.1442
179 1 -1.1104 6.45655 1.53773 12.0224
213 1 -1.1104 12.3689 1.7595 11.9714
215 1 -1.1104 12.052 1.44301 9.16071
218 2 2.2208 10.7043 3.02619 7.85878
221 1 -1.1104 9.19804 1.59944 11.9646
224 1 -1.1104 9.17917 1.78661 9.34991
226 2 2.2208 7.77974 3.22139 10.6818
268 1 -1.1104 9.14498 4.64557 9.37204
271 1 -1.1104 9.39854 4.3765 12.0499
275 2 2.2208 7.96435 5.7816 7.88757
276 2 2.2208 10.7135 5.819 10.8062
278 1 -1.1104 12.039 7.28941 12.2373
280 1 -1.1104 12.4679 4.50616 12.0681
283 1 -1.1104 12.1285 4.54739 9.19125
273 1 -1.1104 9.42069 7.30471 9.34183
279 1 -1.1104 12.3296 7.53352 9.10437
243 1 -1.1104 6.49103 7.33236 12.1009
235 1 -1.1104 6.28028 7.07608 6.54376
285 1 -1.1104 9.41336 7.18721 12.235
468 2 2.2208 10.7984 8.65902 13.6083
398 2 2.2208 10.7866 17.1483 -0.269855
62 1 -1.1104 0.918845 10.0741 6.62359
78 1 -1.1104 3.52297 10.0628 6.30648
241 2 2.2208 5.36911 11.4218 10.8084
247 1 -1.1104 0.899157 9.69389 12.2871
250 2 2.2208 5.05839 8.59568 7.81504
252 1 -1.1104 1.03046 9.74295 9.42418
257 2 2.2208 2.24442 11.3257 8.1819
259 2 2.2208 2.28417 8.33845 10.8215
261 1 -1.1104 3.76574 9.81935 12.0778
263 1 -1.1104 3.61691 9.77746 9.13495
287 1 -1.1104 3.78286 12.6968 12.1644
294 1 -1.1104 1.10645 12.7472 9.54551
299 1 -1.1104 0.753163 12.5766 12.2122
305 1 -1.1104 3.8882 12.6278 9.51203
297 1 -1.1104 6.61038 12.9027 12.2113
111 1 -1.1104 6.648 12.6633 6.35132
254 1 -1.1104 6.51196 10.0874 9.52295
290 1 -1.1104 6.56608 12.865 9.3134
112 1 -1.1104 6.55565 18.348 6.70575
232 1 -1.1104 9.19789 15.6229 9.25999
143 1 -1.1104 11.9705 12.799 6.6043
90 1 -1.1104 12.0025 9.88124 6.42001
233 1 -1.1104 9.14577 18.181 12.0284
467 2 2.2208 7.9281 5.83836 13.5284
249 1 -1.1104 6.63792 10.1662 12.234
154 1 -1.1104 9.31163 12.8877 6.44512
229 1 -1.1104 9.63545 12.7091 12.3219
264 1 -1.1104 9.37577 10.0279 9.29408
270 1 -1.1104 9.2462 9.86717 12.2984
272 2 2.2208 7.97698 8.61668 10.661
274 2 2.2208 8.0352 11.4532 7.93256
277 2 2.2208 10.7272 11.4726 10.7902
281 1 -1.1104 12.1027 10.0098 12.119
282 2 2.2208 10.6798 8.69494 7.75306
284 1 -1.1104 12.0983 10.3593 9.23438
30 1 -1.1104 12.097 12.7757 12.198
50 1 -1.1104 12.1651 12.8923 9.25633
51 1 -1.1104 9.29878 12.8478 9.38931
296 1 -1.1104 6.46702 18.4899 12.4005
288 1 -1.1104 6.45535 18.2477 9.54173
231 1 -1.1104 9.32786 15.3888 12.4837
126 1 -1.1104 3.60517 18.5406 6.76121
117 1 -1.1104 0.933181 15.5675 6.66164
118 1 -1.1104 6.28022 15.492 6.51396
133 1 -1.1104 3.70001 15.6614 6.5258
295 2 2.2208 5.00384 14.1863 7.97045
300 2 2.2208 5.09983 17.2392 10.9789
298 1 -1.1104 0.989907 18.3439 12.4262
293 2 2.2208 5.16788 19.802 8.09168
308 1 -1.1104 3.83414 15.6066 12.2565
307 1 -1.1104 0.914847 15.4286 11.9953
304 1 -1.1104 3.81851 15.7244 9.38884
303 2 2.2208 2.24863 17.1981 8.07068
301 1 -1.1104 3.71667 18.5197 9.45071
292 1 -1.1104 0.813929 15.628 9.30184
310 2 2.2208 2.48297 14.3069 10.8083
309 2 2.2208 2.25325 19.8711 10.8654
286 1 -1.1104 3.69454 18.4508 12.2372
291 1 -1.1104 0.948657 18.539 9.58981
289 1 -1.1104 6.52433 15.5045 9.48815
8862 2 2.2208 13.5412 16.7647 13.5778
322 2 2.2208 10.8412 3.01266 13.4561
8745 2 2.2208 -0.442648 8.60322 7.9446
8108 2 2.2208 5.06657 -5.38379 10.552
8109 2 2.2208 8.018 -5.30794 7.97638
312 2 2.2208 -0.402584 16.8876 10.8841
8732 2 2.2208 13.6289 8.72565 10.7302
8543 2 2.2208 13.3337 5.86277 2.34327
8118 2 2.2208 13.4701 -5.29093 13.5587
530 2 2.2208 10.8295 19.7408 13.5775
316 2 2.2208 2.03413 0.292056 13.489
8727 2 2.2208 13.4378 5.90668 7.94636
505 2 2.2208 5.30346 14.1525 13.6637
8819 2 2.2208 13.6379 0.143797 13.5912
9052 2 2.2208 -0.411261 11.5962 -0.387445
331 2 2.2208 5.10003 0.176336 16.4788
332 1 -1.1104 0.855393 -3.97693 17.8869
336 1 -1.1104 0.895993 -3.99718 15.1944
344 1 -1.1104 0.939877 -1.20563 17.9104
346 2 2.2208 5.03602 -2.75059 19.1831
348 1 -1.1104 0.842222 -1.24072 15.172
352 1 -1.1104 3.83451 -4.30576 17.6956
354 2 2.2208 2.3046 0.149151 19.1548
355 1 -1.1104 3.80161 -4.29922 14.7729
359 2 2.2208 2.30726 -2.6062 16.6294
361 1 -1.1104 3.78216 -1.45298 17.8532
362 1 -1.1104 3.73795 -1.39649 15.0264
345 1 -1.1104 6.47742 -1.05729 17.985
340 1 -1.1104 6.69831 -3.99584 14.9039
341 1 -1.1104 6.48833 -4.18289 20.7482
334 1 -1.1104 6.48608 -4.16152 17.8246
532 2 2.2208 7.83112 16.9698 13.756
356 1 -1.1104 3.68783 -3.91569 20.6683
337 1 -1.1104 0.909251 -4.14797 20.6157
363 1 -1.1104 3.69859 -1.21721 20.6289
350 1 -1.1104 6.31405 -1.4969 15.338
374 2 2.2208 10.7743 0.284487 16.1751
375 1 -1.1104 12.0825 -4.05258 17.8652
377 1 -1.1104 12.2242 -4.0225 15.1065
381 1 -1.1104 12.2569 -0.923042 17.7213
382 2 2.2208 10.7294 -2.68249 19.2367
384 1 -1.1104 12.1663 -1.1578 14.9204
386 1 -1.1104 9.47143 -4.18429 17.8432
388 2 2.2208 8.01906 0.0623665 19.19
389 1 -1.1104 9.37963 -4.28665 15.1061
393 2 2.2208 7.93006 -2.75563 16.4766
395 1 -1.1104 9.44517 -1.42023 17.6878
396 1 -1.1104 9.36037 -1.03451 14.8378
8368 2 2.2208 10.9444 -5.41475 16.3627
8942 2 2.2208 -0.375976 11.3757 16.318
390 1 -1.1104 9.28421 -4.24055 20.5745
385 1 -1.1104 12.1189 -1.27756 20.5895
333 1 -1.1104 1.26152 1.69158 17.9554
338 1 -1.1104 0.762321 1.68252 15.0383
347 2 2.2208 5.11797 2.97672 19.2767
353 1 -1.1104 3.7671 1.40504 17.7856
357 1 -1.1104 3.61705 1.44767 14.8908
360 2 2.2208 2.16326 3.03017 16.4282
407 2 2.2208 4.96399 5.78028 16.236
411 1 -1.1104 0.9059 7.30236 15.0139
415 1 -1.1104 0.837967 4.37256 17.7859
420 1 -1.1104 0.805046 4.41798 15.0134
429 2 2.2208 2.41783 5.75715 19.1339
434 1 -1.1104 3.73819 4.41001 17.729
436 1 -1.1104 3.59349 4.28653 14.8148
431 1 -1.1104 3.56781 7.31601 14.9862
409 1 -1.1104 0.851785 7.20349 17.6842
428 1 -1.1104 3.85688 7.17632 17.8558
413 1 -1.1104 6.47347 7.18274 15.0762
342 1 -1.1104 6.59112 1.22772 15.115
424 1 -1.1104 6.44487 4.27836 14.9946
417 1 -1.1104 6.55812 4.34645 17.7306
410 1 -1.1104 6.52943 6.97517 17.8289
335 1 -1.1104 6.32447 1.73259 17.7676
9078 2 2.2208 13.3976 0.195678 24.886
358 1 -1.1104 3.84142 1.55844 20.4759
414 1 -1.1104 6.36981 7.21728 20.8375
343 1 -1.1104 6.68363 1.31191 20.5511
8821 2 2.2208 13.4756 19.9253 27.7563
402 2 2.2208 5.04988 17.1703 27.7008
365 2 2.2208 13.6136 8.5091 22.3005
568 2 2.2208 -0.406741 0.232911 22.1852
376 1 -1.1104 12.0947 1.73651 17.5138
379 1 -1.1104 12.3486 1.81261 14.7653
383 2 2.2208 10.926 2.86371 19.1817
387 1 -1.1104 9.3365 1.60713 17.6811
391 1 -1.1104 9.45801 1.72753 14.8026
394 2 2.2208 7.8346 2.80919 16.3345
443 2 2.2208 10.7649 5.73376 16.303
448 1 -1.1104 12.1163 4.37227 17.7887
451 1 -1.1104 12.3314 4.50319 14.9782
456 2 2.2208 7.91349 5.59932 19.0392
461 1 -1.1104 9.47407 4.39371 17.7364
463 1 -1.1104 9.29631 4.39372 14.8775
446 1 -1.1104 12.4535 7.33392 15.0193
455 1 -1.1104 9.38363 7.23849 17.6689
445 1 -1.1104 12.1689 7.17373 17.5675
458 1 -1.1104 9.27709 7.11374 14.9269
17468 2 2.2208 13.365 -5.46562 24.9902
452 1 -1.1104 12.0226 4.44973 20.5932
8860 2 2.2208 13.5808 5.9083 25.0286
625 2 2.2208 5.19969 11.4371 27.6074
408 2 2.2208 5.17411 11.4069 16.5148
416 1 -1.1104 0.935683 10.0332 18.0018
419 2 2.2208 5.08075 8.64917 19.5705
422 1 -1.1104 0.898028 10.0098 15.0945
430 2 2.2208 2.1227 11.3598 19.4413
433 2 2.2208 2.22799 8.75485 16.3135
435 1 -1.1104 3.54647 9.98583 17.9562
438 1 -1.1104 3.87883 10.0288 14.971
471 1 -1.1104 1.0307 12.8717 18.106
475 1 -1.1104 0.887621 13.0375 15.047
491 1 -1.1104 3.86931 12.9573 17.8679
494 1 -1.1104 3.66736 12.4649 15.0985
479 1 -1.1104 6.82428 12.7595 15.1714
426 1 -1.1104 6.60758 9.88932 15.0866
418 1 -1.1104 6.37166 9.86091 17.9501
473 1 -1.1104 6.56619 12.8053 17.8686
427 1 -1.1104 6.57496 9.93013 20.6706
423 1 -1.1104 0.893499 10.0627 20.5968
476 1 -1.1104 0.779854 12.8773 20.7812
480 1 -1.1104 6.57662 13.0308 20.4478
8866 2 2.2208 13.6142 8.6721 27.7073
327 2 2.2208 10.5013 0.0488367 27.5377
444 2 2.2208 10.8191 11.4816 16.518
449 1 -1.1104 12.3348 10.0583 17.9156
450 2 2.2208 10.8391 8.61985 19.2119
453 1 -1.1104 12.2842 10.0712 15.1173
457 2 2.2208 8.01467 11.2865 19.1907
460 2 2.2208 8.09051 8.47824 16.4025
462 1 -1.1104 9.43749 9.92541 18.0051
465 1 -1.1104 9.48214 10.0341 15.1284
507 1 -1.1104 12.3763 12.695 17.7863
509 1 -1.1104 12.2278 12.8047 15.0038
518 1 -1.1104 9.35956 12.6951 17.8798
521 1 -1.1104 9.47072 12.7504 15.0003
522 1 -1.1104 9.35343 13.1081 20.8252
510 1 -1.1104 12.1907 13.0982 20.5102
330 2 2.2208 5.06187 5.95367 27.5305
485 2 2.2208 5.09923 14.3776 19.3515
498 2 2.2208 2.38196 14.1488 16.5208
470 2 2.2208 5.01438 17.0702 16.4718
472 1 -1.1104 0.805429 18.549 17.7595
477 1 -1.1104 0.832765 18.219 15.1504
483 1 -1.1104 0.867746 15.5548 17.8867
486 2 2.2208 5.06368 19.8591 19.4366
487 1 -1.1104 0.865651 15.6307 14.7317
492 1 -1.1104 3.72483 18.4638 17.9901
493 2 2.2208 2.24358 17.1864 19.3885
496 1 -1.1104 3.59458 18.6508 15.0102
499 2 2.2208 2.27263 19.9107 16.4446
500 1 -1.1104 3.66612 15.8353 17.9272
501 1 -1.1104 3.59849 15.6745 15.194
481 1 -1.1104 6.38728 18.2763 15.1236
489 1 -1.1104 6.50186 15.5205 15.2599
564 2 2.2208 13.5514 5.83611 19.0571
484 1 -1.1104 6.52016 15.6772 17.9839
488 1 -1.1104 0.751629 15.7861 20.5467
478 1 -1.1104 0.952508 18.4769 20.8004
490 1 -1.1104 6.64697 15.7647 20.9124
325 2 2.2208 2.24542 3.1836 27.5571
372 1 -1.1104 9.27768 15.7966 26.633
373 2 2.2208 2.08105 14.2353 27.7387
474 1 -1.1104 6.6539 18.3562 18.0556
324 2 2.2208 2.37679 -2.7485 27.7212
514 2 2.2208 10.6532 14.3258 19.4312
525 2 2.2208 7.91924 14.153 16.5866
506 2 2.2208 10.6612 16.8974 16.2981
508 1 -1.1104 12.3988 18.6987 17.9086
511 1 -1.1104 12.1648 18.2502 14.8455
513 1 -1.1104 12.2229 15.5829 18.113
515 2 2.2208 10.7331 19.6533 19.271
516 1 -1.1104 12.4399 15.5747 15.0663
519 1 -1.1104 9.3628 18.5049 17.6527
520 2 2.2208 7.88242 16.962 19.3418
523 1 -1.1104 9.38709 18.4313 15.0255
526 2 2.2208 7.95419 19.6917 16.3553
527 1 -1.1104 9.37852 15.6522 17.8718
528 1 -1.1104 9.38318 15.4436 15.0129
517 1 -1.1104 12.0743 15.7073 20.7451
529 1 -1.1104 9.42894 15.8409 20.9305
351 1 -1.1104 6.52506 -1.42378 20.794
8370 2 2.2208 5.20795 -5.31801 16.3468
320 2 2.2208 2.2104 20.0531 27.6437
349 1 -1.1104 0.830633 -1.30782 20.6525
534 2 2.2208 5.25316 -0.0145039 21.929
535 1 -1.1104 0.883918 -3.78746 23.396
539 1 -1.1104 0.891455 -4.08663 26.1313
543 1 -1.1104 1.09559 -1.09112 23.4519
545 2 2.2208 4.98228 -2.66377 25.1248
547 1 -1.1104 1.07945 -1.25922 26.3666
549 1 -1.1104 3.61167 -4.36057 23.4946
551 2 2.2208 2.41652 0.219722 24.9749
552 1 -1.1104 3.772 -4.30689 26.3088
554 2 2.2208 2.42365 -2.48246 22.1753
556 1 -1.1104 3.87968 -1.32707 23.6278
557 1 -1.1104 3.72241 -1.28474 26.3354
541 1 -1.1104 6.56311 -4.20644 26.3634
537 1 -1.1104 6.26752 -4.18405 23.688
548 1 -1.1104 6.48586 -1.27006 26.299
593 2 2.2208 13.3208 0.236392 19.1247
397 1 -1.1104 9.21741 -1.35777 20.4806
469 2 2.2208 7.87877 11.3642 13.732
8825 2 2.2208 13.5525 2.93399 27.6671
8863 2 2.2208 13.4616 -2.4243 16.4473
378 1 -1.1104 12.1171 -4.08134 20.6658
544 1 -1.1104 6.50619 -1.26378 23.4306
570 2 2.2208 10.7477 0.184981 21.849
571 1 -1.1104 12.0388 -3.94504 23.5529
573 1 -1.1104 12.1135 -4.01458 26.4545
575 1 -1.1104 12.0482 -1.22807 23.5456
576 2 2.2208 10.7048 -2.89309 25.0891
578 1 -1.1104 12.0692 -1.15288 26.3805
579 1 -1.1104 9.22129 -4.39273 23.4597
581 2 2.2208 7.88957 0.234443 24.7334
582 1 -1.1104 9.18879 -4.11202 26.4405
584 2 2.2208 7.7822 -2.79962 22.0815
586 1 -1.1104 9.3654 -1.20181 23.2546
587 1 -1.1104 9.29421 -1.3651 26.0432
649 2 2.2208 8.03052 8.74101 27.5425
8861 2 2.2208 13.5774 3.08727 16.2527
339 1 -1.1104 1.06043 1.63952 20.6536
421 1 -1.1104 0.790086 4.31645 20.4872
412 1 -1.1104 0.623094 7.13931 20.9221
437 1 -1.1104 3.68445 4.41959 20.6508
432 1 -1.1104 3.56778 7.11422 20.7008
536 1 -1.1104 1.12886 1.59055 23.4742
540 1 -1.1104 0.823623 1.45812 26.112
546 2 2.2208 5.16595 2.88057 24.8285
550 1 -1.1104 4.04094 1.55139 23.3637
553 1 -1.1104 3.48293 1.54505 26.3056
555 2 2.2208 2.24272 2.9492 21.859
599 2 2.2208 5.08556 5.65905 22.2065
605 1 -1.1104 0.788986 4.22948 23.2518
610 1 -1.1104 0.895985 4.38397 26.1026
615 2 2.2208 2.13576 5.65188 24.6674
619 1 -1.1104 3.69394 4.2758 23.3698
621 1 -1.1104 3.67772 4.222 26.1573
542 1 -1.1104 6.6113 1.72084 26.1276
604 1 -1.1104 6.35725 7.33716 26.0893
612 1 -1.1104 6.41873 4.46222 26.1056
538 1 -1.1104 6.45485 1.57022 23.2914
607 1 -1.1104 6.66892 4.4181 23.2757
425 1 -1.1104 6.36698 4.21904 20.6516
602 1 -1.1104 6.43419 7.19939 23.2942
617 1 -1.1104 3.65881 7.13713 26.1066
328 2 2.2208 7.78045 -2.68285 27.7063
567 1 -1.1104 11.9696 18.402 26.3933
329 2 2.2208 7.88545 2.9997 27.4141
459 1 -1.1104 9.39347 7.481 20.8092
447 1 -1.1104 12.2758 7.30273 20.4557
392 1 -1.1104 9.47983 1.57764 20.4887
380 1 -1.1104 12.2792 1.37148 20.5812
464 1 -1.1104 9.20845 4.4094 20.6388
572 1 -1.1104 12.0153 1.72471 23.3731
574 1 -1.1104 12.1589 1.53085 26.2569
577 2 2.2208 10.8441 3.01621 24.9361
580 1 -1.1104 9.30099 1.52277 23.4947
583 1 -1.1104 9.30827 1.52508 26.1752
585 2 2.2208 7.95572 3.12855 21.9662
631 1 -1.1104 9.35701 4.41431 26.3451
633 1 -1.1104 9.41561 4.4347 23.373
637 2 2.2208 8.06145 5.67248 24.8902
638 2 2.2208 10.8649 5.86063 21.8747
640 1 -1.1104 12.2306 6.99787 23.5243
642 1 -1.1104 12.2209 4.39366 23.4609
645 1 -1.1104 12.2225 4.37183 26.2686
647 1 -1.1104 9.45732 7.27941 23.4425
635 1 -1.1104 9.19512 6.99906 26.3372
641 1 -1.1104 12.101 7.21357 26.288
9080 2 2.2208 13.4574 -2.72378 22.202
614 1 -1.1104 3.71292 7.05573 23.4177
603 1 -1.1104 0.664271 7.37257 26.4873
495 1 -1.1104 3.51585 12.7627 20.7537
601 1 -1.1104 0.650327 6.91574 23.7319
439 1 -1.1104 3.73103 10.0121 20.8148
600 2 2.2208 5.02758 11.4006 22.1796
606 1 -1.1104 0.614215 10.0041 23.5379
609 2 2.2208 4.9635 8.65191 24.7962
611 1 -1.1104 0.718987 10.133 26.2283
616 2 2.2208 2.2509 11.4823 24.8036
618 2 2.2208 2.21587 8.451 22.1707
620 1 -1.1104 3.51558 9.86576 23.4495
622 1 -1.1104 3.59268 10.0353 26.212
560 1 -1.1104 3.56463 12.7226 26.257
623 1 -1.1104 0.719575 12.7518 23.6068
656 1 -1.1104 3.63677 12.6481 23.5022
660 1 -1.1104 0.847609 12.9738 26.2646
655 1 -1.1104 6.38805 12.7785 25.8829
608 1 -1.1104 6.45405 9.87578 23.4536
664 1 -1.1104 6.43196 12.8229 23.2599
613 1 -1.1104 6.52093 10.1874 26.2647
323 2 2.2208 5.14146 0.124528 27.6497
8901 2 2.2208 13.5633 11.3411 24.9606
653 1 -1.1104 9.45245 15.7143 23.8077
466 1 -1.1104 9.57468 10.1378 20.7979
454 1 -1.1104 12.303 10.293 20.8902
628 1 -1.1104 9.27939 13.0457 26.5481
630 1 -1.1104 9.34534 10.0228 26.1823
632 1 -1.1104 9.39342 10.2781 23.2348
634 2 2.2208 7.83666 8.56089 22.0319
636 2 2.2208 7.73888 11.5298 24.6246
639 2 2.2208 10.8803 11.6515 22.0509
643 1 -1.1104 12.2197 9.8887 23.7867
644 2 2.2208 10.6783 8.659 24.8196
646 1 -1.1104 11.8872 10.0426 26.3707
597 1 -1.1104 9.21501 13.0163 23.6244
561 1 -1.1104 12.0829 12.7661 23.4173
566 1 -1.1104 12.052 12.8336 26.392
366 2 2.2208 13.5211 3.01082 22.0936
651 2 2.2208 8.01708 14.3651 22.2698
559 1 -1.1104 6.48502 15.6965 23.8001
497 1 -1.1104 3.87986 18.1803 20.7076
663 2 2.2208 5.0208 14.3774 24.9273
502 1 -1.1104 3.61499 15.4817 20.7473
404 2 2.2208 2.13336 14.2575 21.992
590 2 2.2208 5.07526 17.1658 22.2893
654 1 -1.1104 3.48038 18.8543 23.6177
658 1 -1.1104 0.828206 18.5237 26.1909
662 2 2.2208 5.05127 19.8941 25.0453
659 1 -1.1104 0.735493 15.6673 26.182
665 1 -1.1104 0.608505 18.3667 23.4509
405 2 2.2208 2.0643 19.8997 22.2335
406 1 -1.1104 3.6988 15.8125 23.6071
558 1 -1.1104 0.681622 15.5639 23.2562
565 1 -1.1104 3.58879 15.8754 26.4945
588 2 2.2208 2.32426 17.365 24.9466
589 1 -1.1104 3.69048 18.587 26.3956
482 1 -1.1104 6.467 18.5534 20.8848
627 1 -1.1104 6.51687 18.5811 26.3369
661 1 -1.1104 6.63442 18.4457 23.5876
657 1 -1.1104 6.4295 15.5003 26.4928
364 2 2.2208 13.6759 16.9696 24.9379
569 1 -1.1104 12.0239 15.8076 23.7094
591 2 2.2208 10.7054 14.3173 25.0547
652 2 2.2208 7.99804 19.89 22.181
8906 2 2.2208 13.445 14.3323 22.1154
629 1 -1.1104 9.23852 18.5684 26.4098
562 1 -1.1104 12.2276 18.6715 23.5817
533 2 2.2208 10.9156 17.0924 22.2938
626 2 2.2208 7.86943 17.0375 25.1571
596 1 -1.1104 12.1187 15.7091 26.3435
8865 2 2.2208 13.5647 19.8598 22.2125
598 1 -1.1104 9.36562 18.4236 23.4984
595 2 2.2208 10.5507 19.9072 24.8514
524 1 -1.1104 9.49881 18.4201 20.6616
512 1 -1.1104 12.4524 18.3971 20.8621
531 2 2.2208 10.7463 14.1301 13.7734
624 2 2.2208 2.11374 8.64295 27.6831
503 2 2.2208 2.41123 16.8861 13.7598
318 2 2.2208 8.06631 19.8996 27.7159
648 2 2.2208 10.7109 5.7378 27.729
504 2 2.2208 5.05606 19.8744 13.6839
17400 2 2.2208 -0.2654 -5.42773 27.7413
666 2 2.2208 4.84887 22.8127 5.32267
668 1 -1.1104 0.8133 24.1941 0.796222
669 1 -1.1104 0.780731 24.0904 3.78344
670 1 -1.1104 0.764703 21.348 0.852687
672 2 2.2208 4.9957 25.4397 2.39997
673 1 -1.1104 0.898307 21.3548 3.74342
675 1 -1.1104 3.55271 24.2136 1.11417
676 2 2.2208 2.16424 22.7943 2.23671
678 1 -1.1104 3.40895 24.178 3.76532
679 2 2.2208 2.15829 25.5721 5.2893
680 1 -1.1104 3.5978 21.2715 1.03065
682 1 -1.1104 3.61786 21.4287 3.93074
689 1 -1.1104 6.57597 21.2702 0.800803
692 1 -1.1104 6.32291 26.8074 3.64547
688 1 -1.1104 6.74734 23.9799 3.97954
691 1 -1.1104 6.53689 21.2663 3.62201
687 1 -1.1104 6.63307 24.2928 1.03839
683 1 -1.1104 3.58097 27.0855 4.0553
671 1 -1.1104 0.986298 27.0742 0.862275
690 1 -1.1104 6.57371 26.9137 0.842268
1565 1 -1.1104 3.61787 46.5923 12.3636
1548 1 -1.1104 6.47187 46.6156 6.57906
700 1 -1.1104 12.1948 21.3417 3.89865
693 2 2.2208 10.8612 22.58 5.44687
695 1 -1.1104 12.4009 24.197 1.0136
696 1 -1.1104 12.4834 24.2154 4.01057
697 1 -1.1104 12.1415 21.2257 1.09408
699 2 2.2208 10.9244 25.4341 2.36154
702 1 -1.1104 9.69339 24.3404 0.884625
703 2 2.2208 8.07961 22.7208 2.59969
705 1 -1.1104 9.54167 23.7728 4.00726
706 2 2.2208 7.98227 25.4017 5.29478
707 1 -1.1104 9.30102 21.3555 0.951139
709 1 -1.1104 9.41932 21.1908 3.99376
845 1 -1.1104 9.33937 26.9861 6.80766
708 1 -1.1104 9.32502 26.9586 0.988803
1547 1 -1.1104 0.889887 46.5859 6.50398
1596 1 -1.1104 9.35097 46.4547 12.5545
9491 2 2.2208 13.4912 34.0346 2.1879
840 1 -1.1104 12.2437 23.9426 6.71251
842 1 -1.1104 12.0693 26.8311 6.65788
712 2 2.2208 13.3868 28.3568 2.21086
1554 1 -1.1104 0.985523 46.5981 9.40265
674 1 -1.1104 0.73097 26.9866 3.81304
681 1 -1.1104 3.65738 27.2121 1.17385
667 2 2.2208 4.96249 28.4327 5.28581
677 2 2.2208 2.21551 28.5537 2.45775
715 1 -1.1104 0.555173 29.8343 1.08115
718 1 -1.1104 0.683874 29.6598 3.88848
721 1 -1.1104 0.651195 32.4341 1.01136
722 2 2.2208 5.01866 31.1275 2.64059
724 1 -1.1104 0.883751 32.43 3.73567
726 1 -1.1104 3.65138 29.9039 1.09715
729 1 -1.1104 3.56201 29.9518 3.79563
731 2 2.2208 2.14855 31.2308 5.16988
733 1 -1.1104 3.46188 32.7657 1.15395
734 1 -1.1104 3.65815 32.5732 3.75532
738 1 -1.1104 6.62348 29.5909 0.897942
740 1 -1.1104 6.38975 32.4871 0.896307
725 1 -1.1104 6.45993 32.4038 3.91739
739 1 -1.1104 6.40805 29.5926 3.65798
869 1 -1.1104 6.39855 32.6128 6.83524
1007 2 2.2208 8.04274 31.2531 -0.319224
9396 2 2.2208 13.473 36.7452 10.8286
701 1 -1.1104 12.2473 26.6532 3.83818
710 1 -1.1104 9.46801 26.617 3.87067
698 1 -1.1104 11.9493 27.2215 0.853066
694 2 2.2208 10.763 28.1736 5.31381
704 2 2.2208 7.72409 28.2311 2.24468
742 1 -1.1104 12.0304 29.9013 1.2697
744 1 -1.1104 12.1437 29.6075 4.05604
746 1 -1.1104 11.9473 32.6603 1.06196
747 2 2.2208 10.6551 30.8825 2.57519
749 1 -1.1104 11.9018 32.392 3.83478
750 1 -1.1104 9.31196 29.8187 1.09669
753 1 -1.1104 9.28846 29.3585 3.86514
755 2 2.2208 8.0073 30.9 5.32198
757 1 -1.1104 9.29695 32.6645 1.36304
758 1 -1.1104 9.20984 32.2929 4.05567
901 1 -1.1104 9.11444 29.7333 6.77946
900 1 -1.1104 11.8932 32.6002 6.68349
898 1 -1.1104 11.918 29.6335 6.82129
9336 2 2.2208 13.3863 25.1124 10.7505
9462 2 2.2208 13.3533 45.1678 8.00704
981 2 2.2208 7.88494 33.8639 13.5533
714 2 2.2208 5.05786 34.0032 5.25442
728 2 2.2208 2.00465 33.971 2.3719
716 1 -1.1104 0.65432 35.3659 0.95819
719 1 -1.1104 0.961755 35.3162 3.9437
723 2 2.2208 5.073 36.7036 2.35898
727 1 -1.1104 3.52987 35.5539 1.37453
730 1 -1.1104 3.5382 35.2562 4.07496
732 2 2.2208 2.35702 36.712 5.1669
766 1 -1.1104 1.08388 38.2379 0.999592
771 1 -1.1104 0.886286 38.1618 3.96176
780 1 -1.1104 3.80763 38.135 0.866839
782 1 -1.1104 3.72195 38.0889 3.84722
776 2 2.2208 2.41194 39.6147 2.37827
760 2 2.2208 5.25469 39.5421 5.30646
720 1 -1.1104 6.41812 35.2029 3.68884
773 1 -1.1104 6.7617 38.1311 3.65882
768 1 -1.1104 6.49263 38.2196 0.750631