ITEM: TIMESTEP
30000
ITEM: NUMBER OF ATOMS
17760
ITEM: BOX BOUNDS pp pp pp
-4.4623687886312363e-01 2.7786236878863221e+01
-5.3460404251531166e+00 3.3342604042516211e+02
-4.4463902259553473e-01 2.7784639022595155e+01
ITEM: ATOMS id type q x y z
1 2 2.2208 5.26191 0.535951 5.36381
2 1 -1.1104 0.936427 -3.75493 1.11398
6 1 -1.1104 1.05354 -3.85665 3.81005
10 1 -1.1104 1.24656 -0.937781 0.958879
12 2 2.2208 5.42775 -2.3358 2.58624
14 1 -1.1104 0.885866 -0.951782 3.91507
16 1 -1.1104 4.05862 -3.83813 1.10084
18 2 2.2208 2.54369 0.465226 2.37645
19 1 -1.1104 3.90575 -3.76401 4.21406
21 2 2.2208 2.66831 -2.30942 5.39203
23 1 -1.1104 3.86209 -1.00134 1.05311
24 1 -1.1104 3.77881 -1.00759 3.91903
4 1 -1.1104 6.76776 -3.63755 0.765404
172 1 -1.1104 4.14408 -3.66884 6.88279
442 2 2.2208 2.5164 11.629 13.544
166 1 -1.1104 1.35387 -3.70283 6.59278
26 2 2.2208 -0.246458 0.428857 5.26705
8106 2 2.2208 10.827 -5.2721 4.97098
11 1 -1.1104 6.72345 -1.00837 1.02213
8 1 -1.1104 6.84031 -3.60754 3.63175
15 1 -1.1104 6.74982 -0.882754 3.98129
31 2 2.2208 10.9789 0.451131 5.38181
32 1 -1.1104 12.5896 -3.61432 1.26108
34 1 -1.1104 12.418 -3.89711 3.99725
36 1 -1.1104 12.5615 -0.750902 1.15237
37 2 2.2208 11.1496 -2.33174 2.42699
39 1 -1.1104 12.3754 -0.900462 3.91932
40 1 -1.1104 9.6314 -3.75471 0.947639
42 2 2.2208 8.22982 0.441557 2.46319
43 1 -1.1104 9.67578 -3.77462 3.69349
45 2 2.2208 8.14277 -2.33981 5.33646
47 1 -1.1104 9.75583 -0.733486 0.9657
48 1 -1.1104 9.46466 -1.05221 3.83704
171 1 -1.1104 6.75587 -0.863837 6.71193
205 1 -1.1104 12.242 -3.91173 6.70698
207 1 -1.1104 12.3992 -1.03359 6.71819
83 1 -1.1104 12.4358 15.9156 12.1596
168 1 -1.1104 6.79576 -3.66237 6.71074
208 1 -1.1104 9.57955 -3.78311 6.45667
323 2 2.2208 5.52346 0.391219 -0.332781
7 1 -1.1104 1.25615 1.99939 3.76368
3 1 -1.1104 0.802105 1.93511 1.13702
13 2 2.2208 5.43435 3.25349 2.56857
17 1 -1.1104 3.68584 1.9905 1.40453
20 1 -1.1104 3.79409 1.76277 4.06073
22 2 2.2208 2.52947 3.28115 5.00136
54 2 2.2208 5.42331 6.20444 5.15445
56 1 -1.1104 1.33111 7.3594 0.652935
58 1 -1.1104 1.12356 7.53687 3.66215
60 1 -1.1104 1.19 4.74594 0.932699
67 1 -1.1104 1.02677 4.82683 3.72298
71 1 -1.1104 4.14894 7.48522 0.872568
72 2 2.2208 2.60371 6.21587 2.32822
74 1 -1.1104 3.86919 7.4183 3.77097
76 1 -1.1104 4.01292 4.77745 1.28052
79 1 -1.1104 4.2609 4.58723 4.026
5 1 -1.1104 6.72148 1.73077 1.06203
9 1 -1.1104 6.70044 1.90026 3.98104
320 2 2.2208 2.48481 20.2072 -0.411497
8712 2 2.2208 -0.304653 3.30423 2.43119
81 2 2.2208 -0.281015 6.17205 5.03919
234 1 -1.1104 1.1876 7.56458 6.23389
8104 2 2.2208 5.37014 -5.14452 5.35988
57 1 -1.1104 6.8304 7.0939 1.05032
69 1 -1.1104 6.98601 4.65358 3.7253
59 1 -1.1104 6.90038 7.54192 3.63631
237 1 -1.1104 6.74994 4.86693 6.44951
33 1 -1.1104 12.3618 1.84473 0.717801
63 1 -1.1104 6.80391 4.38196 0.794408
35 1 -1.1104 12.3528 1.90402 3.62901
38 2 2.2208 10.9711 3.01751 2.24777
41 1 -1.1104 9.58886 1.83503 0.870475
44 1 -1.1104 9.57276 1.90645 4.00591
46 2 2.2208 8.12185 3.26701 5.13726
84 2 2.2208 10.9374 6.05714 5.00121
87 1 -1.1104 12.302 7.48331 3.52454
88 1 -1.1104 12.4505 4.63498 0.84249
92 1 -1.1104 12.4624 4.50372 3.6124
94 1 -1.1104 9.81113 7.25324 0.858451
95 2 2.2208 8.28312 5.84114 2.22244
97 1 -1.1104 9.53183 7.33071 3.8533
99 1 -1.1104 9.71197 4.57398 1.02677
102 1 -1.1104 9.69371 4.64725 3.76804
86 1 -1.1104 12.7823 7.33807 0.546562
169 1 -1.1104 6.67323 1.91342 6.67612
206 1 -1.1104 12.4115 1.72407 6.68062
209 1 -1.1104 9.5914 1.60965 7.00508
265 1 -1.1104 12.4316 7.53848 6.22664
8517 2 2.2208 -0.2266 14.7114 7.92489
8107 2 2.2208 2.68136 -5.2552 7.95585
55 2 2.2208 5.45742 11.7697 4.9928
61 1 -1.1104 1.42658 10.365 0.916236
66 2 2.2208 5.41642 8.89676 2.2958
68 1 -1.1104 1.30607 10.3326 3.90996
73 2 2.2208 2.49583 11.8659 2.30504
75 2 2.2208 2.68506 8.84638 4.98743
77 1 -1.1104 4.19486 10.2877 0.757432
80 1 -1.1104 4.30858 10.3112 3.63608
107 1 -1.1104 1.21716 13.114 0.830359
113 1 -1.1104 1.131 13.1663 3.62531
123 1 -1.1104 3.78541 13.2294 0.952413
128 1 -1.1104 4.09175 13.2297 3.74877
115 1 -1.1104 6.87474 13.397 3.55506
78 1 -1.1104 4.06853 10.4096 6.25545
8676 2 2.2208 -0.0748716 11.5463 5.11074
62 1 -1.1104 1.49717 10.333 6.4659
441 2 2.2208 5.56077 9.14538 13.565
82 2 2.2208 -0.324463 8.97599 2.18705
469 2 2.2208 8.43398 11.6588 13.6578
8103 2 2.2208 2.59928 -5.16963 2.45264
318 2 2.2208 8.13695 20.2432 -0.322966
110 1 -1.1104 6.78198 13.0118 0.584641
70 1 -1.1104 6.89811 10.3858 3.7219
64 1 -1.1104 6.93406 10.0684 0.934844
85 2 2.2208 11.0279 11.7373 5.10914
89 1 -1.1104 12.3787 10.0564 0.596893
91 2 2.2208 11.1119 8.99391 2.01084
93 1 -1.1104 12.7136 10.2884 3.59875
96 2 2.2208 8.29163 11.8409 2.18238
98 2 2.2208 8.24017 8.81457 5.05794
100 1 -1.1104 9.70431 10.3865 0.692837
103 1 -1.1104 9.77733 10.4275 3.43788
142 1 -1.1104 12.1804 13.0456 0.877919
146 1 -1.1104 12.4625 13.0453 3.56093
153 1 -1.1104 9.37129 13.4702 0.948324
158 1 -1.1104 9.6715 13.1235 3.74743
65 1 -1.1104 6.83973 10.3454 6.52905
90 1 -1.1104 12.3819 10.2155 6.53589
143 1 -1.1104 12.501 12.9841 6.43265
119 2 2.2208 5.46223 14.6265 2.28717
130 2 2.2208 2.62359 14.5227 5.0484
106 2 2.2208 5.44859 17.4037 5.18986
109 1 -1.1104 0.896622 18.7347 0.961956
114 1 -1.1104 1.03049 18.8436 3.91512
116 1 -1.1104 1.25012 16.0956 1.17074
120 2 2.2208 5.13457 20.5226 2.30852
121 1 -1.1104 1.09562 16.1313 3.80862
125 1 -1.1104 3.79419 18.9167 0.979002
127 2 2.2208 2.59372 17.5278 2.39212
129 1 -1.1104 3.95794 18.9394 3.87851
131 2 2.2208 2.47162 20.1114 5.26464
132 1 -1.1104 4.09447 16.1246 1.00974
134 1 -1.1104 4.0254 15.9215 3.90583
136 2 2.2208 -0.230928 20.1774 2.40109
135 2 2.2208 -0.290443 14.5581 2.20968
8109 2 2.2208 8.18798 -5.11997 8.11301
201 2 2.2208 -0.234734 0.274424 10.9468
17390 2 2.2208 -0.22496 -5.1475 10.7554
150 2 2.2208 10.9458 14.7253 2.38031
122 1 -1.1104 6.89504 16.2882 4.06588
138 1 -1.1104 6.60455 18.8131 1.11132
140 1 -1.1104 6.84373 15.9186 0.959846
139 1 -1.1104 6.8609 19.0421 4.0322
8813 2 2.2208 -0.388798 -2.22046 2.47835
160 2 2.2208 8.27227 14.6234 5.19731
141 2 2.2208 10.9947 17.5535 5.32032
144 1 -1.1104 12.3513 18.8129 0.984634
147 1 -1.1104 12.3032 18.7818 3.85911
148 1 -1.1104 12.2572 15.9235 0.93412
151 2 2.2208 10.9976 20.2128 2.47102
152 1 -1.1104 12.5755 16.069 3.65737
155 1 -1.1104 9.61934 18.9812 1.15475
157 2 2.2208 8.1644 17.5741 2.54666
159 1 -1.1104 9.61222 18.8047 3.91276
161 2 2.2208 8.19818 20.1842 5.36096
162 1 -1.1104 9.63059 16.2221 1.11009
164 1 -1.1104 9.61859 16.0902 3.8355
163 1 -1.1104 9.51449 16.0725 6.76969
149 1 -1.1104 12.3362 16.1458 6.59393
145 1 -1.1104 12.532 18.7143 6.59825
156 1 -1.1104 9.65322 18.757 6.61169
170 1 -1.1104 1.32895 -0.903103 6.73408
8108 2 2.2208 5.40495 -5.24479 11.0771
174 1 -1.1104 4.05849 -0.857947 6.71762
175 2 2.2208 5.29022 0.38083 11.0472
176 1 -1.1104 0.969743 -3.88952 12.3912
180 1 -1.1104 1.00371 -3.65247 9.38055
184 1 -1.1104 1.04604 -0.843476 12.6095
186 2 2.2208 5.22231 -2.38024 8.16792
188 1 -1.1104 1.05668 -0.896255 9.54015
190 1 -1.1104 3.99437 -3.96106 12.3372
192 2 2.2208 2.4005 0.591101 8.04073
193 1 -1.1104 3.98222 -3.9928 9.62196
195 2 2.2208 2.28909 -2.32624 11.0327
197 1 -1.1104 4.00939 -1.16263 12.1745
198 1 -1.1104 3.76902 -1.00338 9.46421
182 1 -1.1104 6.80207 -3.76941 9.46909
189 1 -1.1104 6.73247 -0.903306 9.67897
200 2 2.2208 -0.195201 -2.43143 7.87167
204 1 -1.1104 12.476 16.1064 9.5153
8980 2 2.2208 -0.410393 8.94438 13.5328
178 1 -1.1104 6.75623 -3.77992 12.4888
185 1 -1.1104 6.72734 -0.993237 12.4417
210 1 -1.1104 9.58278 -1.04932 6.78611
211 2 2.2208 11.0736 0.189733 10.7464
212 1 -1.1104 12.5824 -3.67507 12.352
214 1 -1.1104 12.4488 -3.9828 9.50256
216 1 -1.1104 12.5273 -1.06467 12.324
217 2 2.2208 11.083 -2.56438 7.93974
219 1 -1.1104 12.4681 -1.15618 9.63694
220 1 -1.1104 9.69989 -3.82569 12.2116
222 2 2.2208 8.10156 0.373055 8.19134
223 1 -1.1104 9.62787 -3.91635 9.32652
225 2 2.2208 8.26029 -2.49914 10.9438
227 1 -1.1104 9.65529 -1.09338 12.1805
228 1 -1.1104 9.62141 -1.24305 9.43497
467 2 2.2208 8.1491 6.12956 13.6558
233 1 -1.1104 9.60348 18.9323 12.2178
52 1 -1.1104 9.72686 18.9566 9.56706
468 2 2.2208 11.1894 8.88231 13.6527
239 1 -1.1104 4.23219 4.91882 6.95171
167 1 -1.1104 1.05418 1.79336 6.58061
199 2 2.2208 -0.262278 3.09215 8.01678
236 1 -1.1104 1.24446 4.38826 6.65395
238 1 -1.1104 3.98679 7.5142 6.59627
173 1 -1.1104 4.0303 2.14556 6.77928
177 1 -1.1104 1.05499 1.79518 12.1978
181 1 -1.1104 1.15398 1.7827 9.43573
187 2 2.2208 5.36682 3.23605 8.25611
191 1 -1.1104 3.88866 1.91825 12.4389
194 1 -1.1104 3.99816 1.60166 9.51988
196 2 2.2208 2.49983 3.17335 10.8381
240 2 2.2208 5.30128 5.91999 10.9059
244 1 -1.1104 1.01689 7.51504 9.36899
246 1 -1.1104 1.162 4.72057 12.1351
251 1 -1.1104 1.26104 4.71248 9.31419
255 1 -1.1104 3.73893 7.26334 12.1316
256 2 2.2208 2.62067 6.05242 8.11483
258 1 -1.1104 3.89834 7.4606 9.39191
260 1 -1.1104 4.00991 4.6764 12.4521
262 1 -1.1104 4.03335 4.46331 9.62046
248 1 -1.1104 6.81078 4.61301 12.3304
242 1 -1.1104 1.04826 7.55064 12.2075
29 2 2.2208 -0.24368 5.91838 10.7471
49 1 -1.1104 12.2597 18.8211 12.4534
235 1 -1.1104 7.00282 7.46295 6.64099
266 1 -1.1104 12.4348 4.57608 6.54535
245 1 -1.1104 6.79185 7.57251 9.51049
179 1 -1.1104 6.88483 1.7147 12.3518
183 1 -1.1104 6.68053 1.94393 9.61088
8105 2 2.2208 8.02138 -4.96553 2.28001
243 1 -1.1104 6.72826 7.52022 12.1382
253 1 -1.1104 6.89725 4.67499 9.51693
267 1 -1.1104 9.72747 7.29233 6.52687
269 1 -1.1104 9.50266 4.4403 6.74575
213 1 -1.1104 12.5244 1.68058 12.0373
215 1 -1.1104 12.4935 1.71536 9.27987
218 2 2.2208 11.0423 3.06528 8.04115
221 1 -1.1104 9.62247 1.8511 12.3252
224 1 -1.1104 9.61447 1.62397 9.56369
226 2 2.2208 8.137 3.1301 11.0635
268 1 -1.1104 9.73442 4.53507 9.47974
271 1 -1.1104 9.7578 4.4916 12.1048
275 2 2.2208 8.2697 6.01228 7.93749
276 2 2.2208 10.9855 6.08876 10.7328
278 1 -1.1104 12.51 7.43648 11.8522
279 1 -1.1104 12.3376 7.34177 9.16996
280 1 -1.1104 12.5574 4.7042 12.1368
283 1 -1.1104 12.3455 4.63751 9.36224
285 1 -1.1104 9.81108 7.32258 12.2146
273 1 -1.1104 9.54915 7.69759 9.31823
231 1 -1.1104 9.71378 16.0506 12.1854
124 1 -1.1104 4.22995 13.1666 6.58764
108 1 -1.1104 1.16212 13.1414 6.48068
8738 2 2.2208 -0.223289 11.7384 10.5476
8745 2 2.2208 -0.135483 8.75422 7.95088
241 2 2.2208 5.37586 11.6969 10.6656
247 1 -1.1104 0.961083 10.4594 12.1551
250 2 2.2208 5.29591 9.07095 7.80628
252 1 -1.1104 1.16895 10.1952 9.44274
257 2 2.2208 2.65338 11.9805 7.89246
259 2 2.2208 2.47118 8.77083 10.6876
261 1 -1.1104 4.11436 10.2329 12.024
263 1 -1.1104 4.00809 10.3716 9.18309
287 1 -1.1104 4.18874 12.8919 12.3064
294 1 -1.1104 1.25981 13.1883 9.24606
299 1 -1.1104 1.22031 13.2058 12.2342
305 1 -1.1104 3.992 13.2442 9.52568
398 2 2.2208 10.9607 17.5019 -0.235249
154 1 -1.1104 9.92747 13.1608 6.61464
101 1 -1.1104 9.61709 10.3928 6.34844
111 1 -1.1104 7.07961 13.1064 6.50374
297 1 -1.1104 7.07158 13.2488 12.289
254 1 -1.1104 6.8337 10.4874 9.31498
290 1 -1.1104 6.93672 13.2526 9.29017
249 1 -1.1104 7.0329 10.3457 12.1377
229 1 -1.1104 9.99304 12.884 12.0572
264 1 -1.1104 10.0552 10.3521 9.25469
270 1 -1.1104 9.8136 10.1139 12.2287
272 2 2.2208 8.26753 8.79072 10.7707
274 2 2.2208 8.31848 11.9128 8.15318
277 2 2.2208 11.3799 11.683 10.6049
281 1 -1.1104 12.4757 10.409 12.3001
282 2 2.2208 11.1083 8.80563 7.74455
284 1 -1.1104 12.782 10.4402 9.28559
30 1 -1.1104 12.6715 13.2015 11.9862
50 1 -1.1104 12.6727 13.4429 9.12513
51 1 -1.1104 9.7365 13.1449 9.34875
105 2 2.2208 11.3634 20.2974 8.04162
313 2 2.2208 8.28064 17.5117 8.07196
311 2 2.2208 -0.200363 20.2195 8.05884
126 1 -1.1104 3.94586 18.4914 6.64066
117 1 -1.1104 1.08863 16.0521 6.6467
302 1 -1.1104 1.18673 18.8112 6.58363
133 1 -1.1104 3.71421 15.7596 6.5687
137 2 2.2208 -0.167545 17.3824 5.18713
312 2 2.2208 -0.248534 17.2457 10.9998
310 2 2.2208 2.68486 14.6028 11.0047
295 2 2.2208 5.40346 14.6458 7.87329
286 1 -1.1104 3.7923 18.8885 12.1722
291 1 -1.1104 1.1649 18.8527 9.28107
292 1 -1.1104 1.23341 16.1712 9.46578
293 2 2.2208 5.2236 20.1653 8.00899
298 1 -1.1104 1.08557 18.7584 12.5478
300 2 2.2208 5.41284 17.3902 10.8087
301 1 -1.1104 3.85578 18.7549 9.39416
303 2 2.2208 2.45207 17.3553 8.01861
304 1 -1.1104 4.10325 16.0873 9.64615
307 1 -1.1104 1.17575 15.9073 12.3476
308 1 -1.1104 4.05093 15.8359 12.3394
309 2 2.2208 2.50456 20.3342 10.9776
27 2 2.2208 11.0081 17.4438 10.8329
202 2 2.2208 8.35581 14.462 10.8539
104 2 2.2208 11.2143 14.8559 8.04063
203 2 2.2208 8.21558 20.3694 10.825
112 1 -1.1104 6.88864 18.8395 6.68346
232 1 -1.1104 9.49705 16.1312 9.64338
288 1 -1.1104 6.64408 18.7655 9.45023
118 1 -1.1104 6.62991 15.9323 6.58414
296 1 -1.1104 6.67071 18.929 12.0582
289 1 -1.1104 6.67891 15.9778 9.41194
306 1 -1.1104 7.06532 16.0487 12.2708
53 1 -1.1104 12.473 18.9411 9.60231
328 2 2.2208 8.31795 -2.11309 -0.479658
324 2 2.2208 2.61616 -2.3454 -0.424026
504 2 2.2208 5.4647 20.1962 13.4798
402 2 2.2208 5.37126 17.4258 -0.425985
325 2 2.2208 2.382 3.23617 -0.27043
532 2 2.2208 8.30527 17.2984 13.5433
8119 2 2.2208 8.13431 -5.25629 13.5217
531 2 2.2208 11.2944 14.436 13.4797
530 2 2.2208 10.8636 20.3752 13.5787
8114 2 2.2208 10.8488 -5.30669 -0.395365
9049 2 2.2208 -0.120748 14.4104 13.5008
17400 2 2.2208 -0.296944 -5.32262 -0.382488
326 2 2.2208 -0.422456 3.34893 13.6143
322 2 2.2208 10.9478 3.22735 13.5006
8902 2 2.2208 -0.22956 6.12462 -0.320418
8117 2 2.2208 5.19598 -5.21239 -0.38997
503 2 2.2208 2.57386 17.2379 13.6555
321 2 2.2208 10.9927 -2.48542 13.6516
330 2 2.2208 5.2816 5.82807 -0.34029
315 2 2.2208 5.26916 -2.47667 13.6674
331 2 2.2208 5.30915 0.373584 16.6849
332 1 -1.1104 1.35774 -3.75512 17.7854
336 1 -1.1104 1.33405 -3.59471 15.1127
344 1 -1.1104 1.16346 -0.917983 18.0095
346 2 2.2208 5.41068 -2.26181 19.605
348 1 -1.1104 0.997983 -0.75539 15.3817
352 1 -1.1104 4.11653 -3.89072 18.0821
354 2 2.2208 2.23127 0.374475 19.4747
355 1 -1.1104 4.22612 -4.20162 15.1227
359 2 2.2208 2.71497 -2.39039 16.6308
361 1 -1.1104 3.87777 -0.842717 18.115
362 1 -1.1104 3.84581 -1.07667 15.2033
345 1 -1.1104 6.53098 -1.06543 17.9603
8368 2 2.2208 11.0584 -5.12055 16.458
349 1 -1.1104 0.905816 -0.977045 20.7974
356 1 -1.1104 3.98273 -3.74258 20.7655
8863 2 2.2208 13.6604 -2.15446 16.5466
8905 2 2.2208 -0.394225 0.567039 16.6109
350 1 -1.1104 6.59101 -1.11366 15.295
340 1 -1.1104 6.87454 -3.95569 15.2391
334 1 -1.1104 6.8182 -3.89736 18.1482
374 2 2.2208 10.8909 0.500998 16.5547
375 1 -1.1104 12.5121 -3.74821 17.8872
377 1 -1.1104 12.2999 -3.84492 15.1095
381 1 -1.1104 12.4759 -0.853313 18.08
382 2 2.2208 11.0229 -2.34283 19.3365
384 1 -1.1104 12.3415 -0.986588 14.949
386 1 -1.1104 9.87355 -3.94561 17.8992
388 2 2.2208 8.15095 0.360226 19.2194
389 1 -1.1104 9.48601 -3.82945 14.9118
393 2 2.2208 8.1305 -2.51049 16.3527
395 1 -1.1104 9.44872 -1.18214 17.8099
396 1 -1.1104 9.51017 -1.18176 14.9775
385 1 -1.1104 12.2859 -0.886394 20.7157
378 1 -1.1104 12.5088 -3.77255 20.8593
351 1 -1.1104 6.94355 -0.827718 20.8376
341 1 -1.1104 6.83788 -3.8372 20.8213
390 1 -1.1104 9.72291 -3.75816 20.8103
625 2 2.2208 5.46674 11.5755 27.5103
333 1 -1.1104 0.913174 1.91073 17.9997
338 1 -1.1104 1.02799 2.01296 15.0505
347 2 2.2208 5.3665 3.21385 19.306
353 1 -1.1104 3.93987 1.94166 18.1793
357 1 -1.1104 3.88906 1.73097 15.3572
360 2 2.2208 2.49342 3.34697 16.7096
407 2 2.2208 5.40647 5.96029 16.6195
411 1 -1.1104 1.12417 7.39389 15.0414
415 1 -1.1104 1.13874 4.70273 17.9611
420 1 -1.1104 0.918445 4.65 15.0757
429 2 2.2208 2.45769 5.84596 19.4134
431 1 -1.1104 4.22765 7.52798 14.8713
434 1 -1.1104 3.89795 4.65346 18.1903
436 1 -1.1104 3.97702 4.83658 15.5077
428 1 -1.1104 3.88136 7.27533 18.0002
409 1 -1.1104 1.1032 7.47357 17.7762
339 1 -1.1104 1.09104 1.85704 20.9572
421 1 -1.1104 1.04402 4.68297 20.8392
319 2 2.2208 7.87906 0.269295 13.9045
358 1 -1.1104 3.74205 1.65923 20.8608
414 1 -1.1104 6.77146 7.35548 20.7419
8208 2 2.2208 2.71476 -5.05106 24.8609
9051 2 2.2208 -0.280421 9.03294 24.9633
424 1 -1.1104 6.76638 4.68129 14.9885
413 1 -1.1104 6.97221 7.70612 14.9683
410 1 -1.1104 6.70615 7.58697 17.8674
335 1 -1.1104 6.97749 1.72453 17.8037
417 1 -1.1104 6.70661 4.72128 18.043
342 1 -1.1104 6.54907 1.87712 15.2743
376 1 -1.1104 12.2781 1.7126 18.0182
379 1 -1.1104 12.2313 1.82709 15.1337
383 2 2.2208 10.9085 3.11745 19.3844
387 1 -1.1104 9.63927 1.90844 17.7482
391 1 -1.1104 9.24846 1.39568 15.2042
394 2 2.2208 8.2589 3.32772 16.5389
443 2 2.2208 10.9068 6.10075 16.4644
448 1 -1.1104 12.3191 4.68669 17.9824
451 1 -1.1104 12.5652 4.63459 15.0932
456 2 2.2208 8.13317 6.06406 19.294
461 1 -1.1104 9.62277 4.8117 18.0333
463 1 -1.1104 9.65845 4.65039 15.112
446 1 -1.1104 12.3641 7.25874 14.5564
458 1 -1.1104 9.51334 7.50759 15.0962
455 1 -1.1104 9.58782 7.60311 17.7926
445 1 -1.1104 12.3339 7.44798 17.5727
452 1 -1.1104 12.4304 4.77091 20.6729
425 1 -1.1104 6.68589 4.83095 20.6682
343 1 -1.1104 6.67967 1.86432 20.5736
447 1 -1.1104 12.2057 7.46538 20.6098
592 2 2.2208 -0.208569 3.31199 19.3433
408 2 2.2208 5.47598 11.5592 16.5262
416 1 -1.1104 1.49191 10.4174 18.0475
419 2 2.2208 5.28621 8.77132 19.3227
422 1 -1.1104 0.975736 10.103 15.0566
430 2 2.2208 2.64999 11.7323 19.3519
433 2 2.2208 2.60878 8.91007 16.5776
435 1 -1.1104 4.06507 10.1991 17.776
438 1 -1.1104 3.97919 10.2943 14.8467
471 1 -1.1104 1.11315 13.3549 17.9327
475 1 -1.1104 1.12629 12.941 14.9538
491 1 -1.1104 3.93632 13.0187 17.8477
494 1 -1.1104 3.90458 13.0205 15.2138
476 1 -1.1104 1.15532 13.3814 20.7151
439 1 -1.1104 3.72883 10.1884 20.6807
480 1 -1.1104 6.8585 13.2153 20.6945
412 1 -1.1104 1.20214 7.5848 20.6162
403 2 2.2208 -0.222765 8.86925 19.3324
8942 2 2.2208 -0.254489 11.6967 16.5148
8209 2 2.2208 5.32826 -5.26943 22.1457
479 1 -1.1104 6.71277 13.0588 15.0566
418 1 -1.1104 6.80939 10.2638 17.6145
473 1 -1.1104 6.82987 13.2317 17.7801
426 1 -1.1104 7.06326 10.5173 14.8849
444 2 2.2208 11.0785 11.706 16.4881
449 1 -1.1104 12.4926 10.093 18.1176
450 2 2.2208 10.926 8.86612 19.2681
453 1 -1.1104 12.5617 10.1341 15.0113
457 2 2.2208 8.13488 11.7227 19.2958
460 2 2.2208 8.16737 8.90252 16.4659
462 1 -1.1104 9.70113 10.3685 17.9418
465 1 -1.1104 9.80926 10.1108 15.296
507 1 -1.1104 12.4625 13.3178 17.7158
509 1 -1.1104 12.6169 13.0019 14.8875
518 1 -1.1104 9.81917 13.2104 17.8958
521 1 -1.1104 9.86457 13.1143 14.7979
427 1 -1.1104 6.74176 10.2707 20.4441
454 1 -1.1104 12.3763 10.21 20.7229
9048 2 2.2208 -0.186435 17.2098 16.5393
9047 2 2.2208 -0.27063 14.6568 19.3074
498 2 2.2208 2.58679 14.4956 16.5659
485 2 2.2208 5.43981 14.5083 19.2626
470 2 2.2208 5.52885 17.1888 16.4192
472 1 -1.1104 1.29093 18.8464 18.0779
477 1 -1.1104 1.10175 18.7049 15.0907
483 1 -1.1104 1.30482 16.1499 17.9516
486 2 2.2208 5.27215 20.0348 19.4209
487 1 -1.1104 1.17733 15.839 15.0289
492 1 -1.1104 3.96829 18.7898 17.9574
493 2 2.2208 2.72616 17.3207 19.4637
496 1 -1.1104 3.97914 18.4672 15.1968
499 2 2.2208 2.63485 20.1683 16.4302
500 1 -1.1104 4.09499 15.9684 17.8319
501 1 -1.1104 4.15363 15.7631 15.0678
401 2 2.2208 -0.238381 5.98357 16.5391
17466 2 2.2208 -0.411251 -5.22996 22.319
8282 2 2.2208 8.18913 -5.23107 19.3801
370 2 2.2208 -0.209306 20.213 19.2595
327 2 2.2208 11.127 0.497451 27.7109
316 2 2.2208 2.44487 0.468545 13.815
481 1 -1.1104 6.5013 18.5356 14.754
484 1 -1.1104 6.84587 16.0544 18.0311
489 1 -1.1104 6.99358 15.8713 15.1293
474 1 -1.1104 6.88326 18.7912 17.753
514 2 2.2208 11.2464 14.9106 19.5038
525 2 2.2208 8.29624 14.4782 16.5505
506 2 2.2208 10.7809 17.407 16.2612
508 1 -1.1104 12.5733 18.7704 17.9029
511 1 -1.1104 12.5398 18.8368 15.2208
513 1 -1.1104 12.7787 16.0111 18.1549
515 2 2.2208 10.866 20.203 19.3213
516 1 -1.1104 12.2802 15.8913 15.073
519 1 -1.1104 9.832 18.908 17.7785
520 2 2.2208 8.08244 17.446 19.2683
523 1 -1.1104 9.41708 18.7534 15.0291
526 2 2.2208 8.28473 20.3432 16.4357
527 1 -1.1104 9.79975 16.0974 17.9255
528 1 -1.1104 9.53145 15.8143 15.0895
482 1 -1.1104 6.78124 18.6054 20.6103
512 1 -1.1104 12.4366 18.831 20.7922
17495 2 2.2208 -0.35375 -5.14536 16.5105
648 2 2.2208 11.1021 5.9255 27.784
363 1 -1.1104 3.97611 -0.999046 20.9963
9078 2 2.2208 13.6515 0.690124 24.9333
337 1 -1.1104 1.31002 -3.65238 20.8473
534 2 2.2208 5.56839 0.542456 21.9746
535 1 -1.1104 1.02573 -3.85663 23.7964
539 1 -1.1104 0.950753 -3.88554 26.4551
543 1 -1.1104 1.03078 -1.03298 23.6289
545 2 2.2208 5.22835 -2.26084 24.9977
547 1 -1.1104 1.09226 -0.990416 26.5346
549 1 -1.1104 3.77002 -3.80126 23.4561
551 2 2.2208 2.50563 0.412762 25.2835
552 1 -1.1104 3.9549 -3.70321 26.5472
554 2 2.2208 2.43556 -2.29376 22.1148
556 1 -1.1104 3.90164 -0.800781 23.7931
557 1 -1.1104 3.93596 -0.836436 26.4954
8369 2 2.2208 2.49236 -5.1674 19.2953
8864 2 2.2208 -0.38473 -2.30648 25.0993
596 1 -1.1104 12.3559 16.1737 26.5799
567 1 -1.1104 12.3173 18.9476 26.4525
624 2 2.2208 2.58647 8.84323 27.7512
626 2 2.2208 8.3064 17.205 24.9767
8168 2 2.2208 8.10901 -5.22075 24.9627
8859 2 2.2208 -0.311923 14.5351 24.7672
544 1 -1.1104 6.74193 -0.855793 23.4262
537 1 -1.1104 6.71425 -3.56208 23.4767
541 1 -1.1104 6.37811 -3.94037 26.0772
367 2 2.2208 8.39065 14.7292 27.771
548 1 -1.1104 6.88524 -0.9292 26.2598
397 1 -1.1104 9.56403 -0.978026 20.5331
570 2 2.2208 10.9894 0.615208 22.0898
571 1 -1.1104 12.7033 -3.53733 23.7741
573 1 -1.1104 12.2978 -3.67377 26.6231
575 1 -1.1104 12.3189 -0.788172 23.7033
576 2 2.2208 11.0557 -2.2181 25.0988
578 1 -1.1104 12.5146 -0.857084 26.6328
579 1 -1.1104 9.86366 -3.64452 23.6865
581 2 2.2208 8.13525 0.486819 24.8866
582 1 -1.1104 9.51862 -3.78637 26.4567
584 2 2.2208 8.24713 -2.35069 22.2076
586 1 -1.1104 9.65507 -0.75989 23.6128
587 1 -1.1104 9.60716 -0.897484 26.3435
649 2 2.2208 8.17741 8.82177 27.7597
8907 2 2.2208 -0.213843 3.39936 25.029
432 1 -1.1104 3.98171 7.42253 20.7863
437 1 -1.1104 3.66714 4.58675 21.0822
536 1 -1.1104 1.1319 1.67476 23.7562
540 1 -1.1104 1.12074 1.84981 26.4933
546 2 2.2208 5.303 3.38743 24.9803
550 1 -1.1104 3.89781 1.85768 23.7311
553 1 -1.1104 3.88057 2.01301 26.8111
555 2 2.2208 2.5495 3.00939 22.2559
599 2 2.2208 5.33223 6.11838 22.1383
605 1 -1.1104 0.934327 4.74818 23.5415
610 1 -1.1104 1.21084 4.81049 26.4268
614 1 -1.1104 4.18367 7.42334 23.7977
615 2 2.2208 2.68133 6.15149 25.0528
619 1 -1.1104 4.0255 4.7259 23.774
621 1 -1.1104 3.96527 4.73625 26.3998
603 1 -1.1104 1.1612 7.59855 26.1232
601 1 -1.1104 1.13108 7.32899 23.4081
617 1 -1.1104 4.04615 7.42351 26.5264
604 1 -1.1104 6.78489 7.3814 26.2244
538 1 -1.1104 6.63548 2.03747 23.4338
612 1 -1.1104 6.87057 4.42 26.2763
595 2 2.2208 10.8951 20.4693 25.083
9155 2 2.2208 -0.275927 6.10011 22.234
459 1 -1.1104 9.46546 7.49025 20.7544
607 1 -1.1104 6.93167 4.86856 23.4368
602 1 -1.1104 6.8885 7.59574 23.4975
542 1 -1.1104 6.5905 1.7084 26.3331
464 1 -1.1104 9.60978 4.40979 20.7203
380 1 -1.1104 12.3969 2.07773 20.6275
392 1 -1.1104 9.44319 1.67747 20.7325
572 1 -1.1104 12.4229 2.03104 23.4223
574 1 -1.1104 12.2382 2.04351 26.2504
577 2 2.2208 10.9212 3.40126 24.8937
580 1 -1.1104 9.52182 1.79059 23.5398
583 1 -1.1104 9.3678 2.10896 26.1119
585 2 2.2208 8.27016 3.31348 22.1583
631 1 -1.1104 9.76312 4.71247 26.4961
633 1 -1.1104 9.47323 4.56702 23.5668
635 1 -1.1104 9.6771 7.55668 26.1392
637 2 2.2208 8.34127 6.08482 25.0186
638 2 2.2208 11.0583 6.2219 22.0754
640 1 -1.1104 12.4602 7.86505 23.3177
641 1 -1.1104 12.4994 7.59384 26.0816
642 1 -1.1104 12.3158 4.96831 23.3163
645 1 -1.1104 12.8221 4.74579 26.4217
647 1 -1.1104 9.71315 7.36769 23.423
364 2 2.2208 13.6758 17.5994 25.0812
423 1 -1.1104 1.29927 10.6677 20.763
495 1 -1.1104 3.99909 13.0455 20.7106
600 2 2.2208 5.33381 11.556 22.0117
606 1 -1.1104 1.26206 10.275 23.6416
609 2 2.2208 5.56559 8.74431 24.8542
611 1 -1.1104 1.14185 10.2875 26.3999
616 2 2.2208 2.74782 11.7634 24.9718
618 2 2.2208 2.45147 8.93992 22.2028
620 1 -1.1104 4.23865 10.1929 23.5186
622 1 -1.1104 4.13537 10.2133 26.0721
560 1 -1.1104 4.23638 12.9485 26.1519
623 1 -1.1104 1.15388 13.2187 23.6979
656 1 -1.1104 4.07534 13.0053 23.4234
660 1 -1.1104 1.3832 13.2542 26.3652
8903 2 2.2208 -0.0148418 11.957 22.0459
510 1 -1.1104 12.301 13.1553 20.6253
522 1 -1.1104 9.49556 13.1695 20.7014
466 1 -1.1104 9.42372 10.444 20.6928
664 1 -1.1104 6.83609 13.2031 23.458
613 1 -1.1104 6.8256 10.116 26.3506
655 1 -1.1104 6.91441 13.144 26.1815
608 1 -1.1104 6.90385 10.4169 23.3065
628 1 -1.1104 9.58328 13.3705 26.4397
630 1 -1.1104 9.61079 10.6721 26.0716
632 1 -1.1104 9.53574 10.2769 23.3742
634 2 2.2208 8.16649 8.87743 22.0242
636 2 2.2208 8.16277 11.9543 24.6319
639 2 2.2208 11.0033 11.598 22.1374
643 1 -1.1104 12.3932 10.3479 23.4958
644 2 2.2208 11.068 8.95285 24.7606
646 1 -1.1104 12.3368 10.226 26.2214
597 1 -1.1104 9.62936 13.1777 23.45
561 1 -1.1104 12.4752 13.168 23.4352
566 1 -1.1104 12.557 13.1696 26.2051
650 2 2.2208 11.0556 11.769 27.4316
8122 2 2.2208 2.61646 -5.24014 13.7839
653 1 -1.1104 9.83107 15.9965 23.4869
478 1 -1.1104 1.14306 18.7503 20.6406
488 1 -1.1104 1.27649 15.9714 20.7891
502 1 -1.1104 4.00452 15.7711 20.7361
497 1 -1.1104 3.92836 18.6712 20.9249
594 2 2.2208 -0.117598 17.2447 22.1504
8207 2 2.2208 10.8263 -5.17704 22.1419
663 2 2.2208 5.46898 14.513 24.8578
490 1 -1.1104 7.00137 15.8753 20.8045
404 2 2.2208 2.61974 14.4385 22.1207
405 2 2.2208 2.42591 20.2558 22.0109
406 1 -1.1104 3.90874 15.8402 23.6613
558 1 -1.1104 1.27198 16.0528 23.6943
565 1 -1.1104 4.32901 15.7675 26.499
588 2 2.2208 2.64163 17.4582 24.9895
589 1 -1.1104 4.12929 18.5911 26.458
590 2 2.2208 5.45549 17.3226 22.158
654 1 -1.1104 3.94452 18.7578 23.6793
658 1 -1.1104 1.33768 18.7975 26.2174
659 1 -1.1104 1.27597 16.0891 26.4194
662 2 2.2208 5.22418 20.1621 25.0945
665 1 -1.1104 1.24901 18.8723 23.4028
369 2 2.2208 -0.277267 20.2653 25.0218
657 1 -1.1104 7.09452 16.088 26.3195
598 1 -1.1104 9.41931 18.6855 23.6976
372 1 -1.1104 9.74017 16.0759 26.3053
661 1 -1.1104 6.72208 18.8037 23.3571
533 2 2.2208 11.1807 17.3446 22.3164
627 1 -1.1104 6.68771 19.0849 26.2907
629 1 -1.1104 9.49994 18.8152 26.6348
652 2 2.2208 8.1667 20.4747 22.2767
651 2 2.2208 8.34366 14.5509 22.0543
559 1 -1.1104 6.78414 15.8123 23.5108
524 1 -1.1104 9.65954 19.0066 20.8123
517 1 -1.1104 12.6833 16.0266 20.8063
529 1 -1.1104 9.68171 16.1031 20.9701
569 1 -1.1104 12.6053 15.9536 23.6717
591 2 2.2208 11.0633 14.6519 24.8538
562 1 -1.1104 12.3048 19.0308 23.719
373 2 2.2208 2.71015 14.6684 27.6964
568 2 2.2208 -0.374506 0.491148 22.3442
9052 2 2.2208 -0.163798 11.8605 27.5002
9050 2 2.2208 -0.246473 20.0504 13.6838
505 2 2.2208 5.52067 14.4338 13.7454
368 2 2.2208 -0.139624 -2.52843 19.4413
314 2 2.2208 -0.229163 -2.34553 14.0195
440 2 2.2208 2.55985 6.12539 13.756
564 2 2.2208 13.6432 6.17131 19.2777
317 2 2.2208 5.26495 3.19255 13.7142
329 2 2.2208 8.21444 3.19347 27.7411
371 2 2.2208 -0.231018 17.3587 27.7025
666 2 2.2208 5.14491 23.056 5.12108
668 1 -1.1104 1.05319 24.6282 0.870094
669 1 -1.1104 0.854574 24.5629 3.95276
670 1 -1.1104 1.08794 21.7426 0.772999
672 2 2.2208 5.27346 25.952 2.40329
673 1 -1.1104 1.00077 21.7073 3.81317
675 1 -1.1104 3.94457 24.6024 0.853405
676 2 2.2208 2.29802 23.2462 2.38528
678 1 -1.1104 3.83939 24.5743 3.66079
679 2 2.2208 2.49797 25.8212 5.18539
680 1 -1.1104 3.70921 21.7053 0.950777
682 1 -1.1104 3.86619 21.8283 3.70124
681 1 -1.1104 4.1333 27.3271 0.795368
683 1 -1.1104 3.90697 27.2039 3.79665
674 1 -1.1104 1.35585 27.1826 3.54079
671 1 -1.1104 1.18808 27.3031 0.860062
686 2 2.2208 -0.200993 25.9518 2.48183
685 2 2.2208 -0.375757 23.0691 5.28996
807 1 -1.1104 1.15337 24.3617 6.72389
974 2 2.2208 -0.0748613 23.1937 10.9245
688 1 -1.1104 6.57621 24.5861 3.70587
687 1 -1.1104 6.79374 24.4518 1.02189
692 1 -1.1104 6.6388 27.4751 3.81574
811 1 -1.1104 6.69567 21.7786 6.68864
689 1 -1.1104 6.70392 21.7573 0.943599
691 1 -1.1104 6.88596 21.7237 3.73606
690 1 -1.1104 6.72989 27.52 1.01196
693 2 2.2208 10.9015 23.1212 5.1388
695 1 -1.1104 12.1808 24.4312 1.25785
696 1 -1.1104 12.6353 24.443 3.91274
697 1 -1.1104 12.2886 21.7898 0.930256
699 2 2.2208 10.9982 26.0358 2.49991
700 1 -1.1104 12.3748 21.7681 3.80842
702 1 -1.1104 9.53642 24.6287 0.67269
703 2 2.2208 8.25751 23.1904 2.36367
705 1 -1.1104 9.49168 24.6128 3.66788
706 2 2.2208 8.23514 25.8385 5.17214
707 1 -1.1104 9.63618 21.6676 0.997673
709 1 -1.1104 9.48956 21.714 3.75681
1075 2 2.2208 8.09097 23.2367 13.544
986 2 2.2208 -0.312354 31.4387 13.5424
969 2 2.2208 10.9317 42.783 8.07976
667 2 2.2208 5.17855 28.6353 5.13203
677 2 2.2208 2.54656 28.7397 2.28824
715 1 -1.1104 1.21698 30.062 0.937122
718 1 -1.1104 1.08481 29.8748 3.56891
721 1 -1.1104 1.09844 32.8621 1.03539
722 2 2.2208 5.32709 31.5392 2.38534
724 1 -1.1104 1.07154 32.6653 3.78801
726 1 -1.1104 3.93612 30.1216 0.892153
729 1 -1.1104 3.93132 30.1737 3.84506
731 2 2.2208 2.62636 31.5501 5.23066
733 1 -1.1104 3.95401 33.1292 0.938591
734 1 -1.1104 3.7895 33.0317 3.68557
864 1 -1.1104 0.982311 30.3033 6.37734
736 2 2.2208 -0.193886 31.4192 2.3518
1229 2 2.2208 13.7066 23.0736 13.5649
785 1 -1.1104 12.3889 41.608 9.48906
9497 2 2.2208 -0.330896 37.1138 8.02743
9336 2 2.2208 13.6734 25.9538 10.9534
970 1 -1.1104 12.3808 44.416 12.1981
710 1 -1.1104 9.48247 27.2688 3.70037
708 1 -1.1104 9.69147 27.3001 1.13841
698 1 -1.1104 12.5854 27.4458 1.08608
701 1 -1.1104 12.4157 27.1703 3.92436
740 1 -1.1104 6.59126 33.0248 1.0678
725 1 -1.1104 6.77323 33.0732 3.90266
738 1 -1.1104 6.69654 30.4158 1.01636
739 1 -1.1104 6.51146 30.2076 3.75158
694 2 2.2208 10.9168 28.7058 5.179
704 2 2.2208 8.09664 28.7737 2.41654
742 1 -1.1104 12.5016 29.972 1.15051
744 1 -1.1104 12.3867 29.9597 3.9581
746 1 -1.1104 12.4143 32.8023 1.23396
747 2 2.2208 11.0536 31.5832 2.40183
749 1 -1.1104 12.4889 33.1202 4.09571
750 1 -1.1104 9.52037 30.0156 1.0229
753 1 -1.1104 9.58469 30.0728 3.82247
755 2 2.2208 8.07586 31.6002 5.18577
757 1 -1.1104 9.76283 33.0752 1.11676
758 1 -1.1104 9.58899 32.7579 3.74969
900 1 -1.1104 12.5141 32.7231 6.98309
898 1 -1.1104 12.222 29.8685 6.62527
901 1 -1.1104 9.32519 30.3018 6.75125
9500 2 2.2208 -0.371989 39.751 10.6956
971 2 2.2208 13.6087 28.5793 7.94516
728 2 2.2208 2.52453 34.3315 2.32196
714 2 2.2208 5.33184 34.4251 5.12652