ITEM: TIMESTEP
80000
ITEM: NUMBER OF ATOMS
17760
ITEM: BOX BOUNDS pp pp pp
-4.5431164893348730e-01 2.7794311648934105e+01
-5.3047304149722816e+00 3.3338473041497332e+02
-4.5878571892765801e-01 2.7798785718927682e+01
ITEM: ATOMS id type q x y z
1 2 2.2208 5.30247 0.393114 5.0654
2 1 -1.1104 0.89856 -4.07059 0.981977
6 1 -1.1104 0.950749 -3.74052 3.94915
10 1 -1.1104 1.06761 -1.20752 0.71149
12 2 2.2208 5.43277 -2.31024 2.38988
14 1 -1.1104 0.962858 -0.949635 3.76986
16 1 -1.1104 3.95784 -3.96269 1.05394
18 2 2.2208 2.46639 0.410468 2.31733
19 1 -1.1104 3.83324 -3.74552 3.785
21 2 2.2208 2.56714 -2.30311 5.22603
23 1 -1.1104 3.95206 -1.23118 1.03793
24 1 -1.1104 3.84395 -0.950101 4.0171
15 1 -1.1104 6.68194 -1.08406 3.62935
8 1 -1.1104 6.75626 -4.01421 3.63992
168 1 -1.1104 6.6449 -3.81812 6.25536
11 1 -1.1104 6.74197 -1.03027 0.835523
8517 2 2.2208 -0.1516 14.7658 7.88448
8109 2 2.2208 8.06876 -5.0978 7.8884
170 1 -1.1104 1.26831 -0.763035 6.40831
174 1 -1.1104 4.07064 -1.05917 6.59097
4 1 -1.1104 6.85465 -3.80412 0.911628
467 2 2.2208 8.16354 6.07982 13.5523
171 1 -1.1104 6.8041 -1.14512 6.76935
31 2 2.2208 10.9801 0.244668 5.17322
32 1 -1.1104 12.4491 -3.94203 1.01064
34 1 -1.1104 12.4615 -3.87241 3.76451
36 1 -1.1104 12.2498 -1.26069 0.801895
37 2 2.2208 10.9952 -2.23297 2.30303
39 1 -1.1104 12.3313 -1.02786 3.70605
40 1 -1.1104 9.66553 -3.60267 0.902279
42 2 2.2208 8.17791 0.530152 2.29338
43 1 -1.1104 9.6154 -3.8509 3.60668
45 2 2.2208 8.16567 -2.39909 4.96863
47 1 -1.1104 9.47767 -1.02356 0.851224
48 1 -1.1104 9.36975 -0.974894 3.59116
530 2 2.2208 10.9719 20.3462 13.6449
17397 2 2.2208 -0.333374 -5.24848 5.27535
205 1 -1.1104 12.5684 -3.66231 6.48632
8110 2 2.2208 10.9893 -5.21584 10.866
8104 2 2.2208 5.16988 -5.2756 5.2454
7 1 -1.1104 1.13053 1.74065 3.70751
3 1 -1.1104 1.1543 1.58815 0.965745
13 2 2.2208 5.42644 3.26567 2.28893
17 1 -1.1104 3.75833 1.79866 0.70837
20 1 -1.1104 3.89712 1.80146 3.46957
22 2 2.2208 2.46454 3.19237 5.16623
54 2 2.2208 5.3771 6.01244 5.14497
56 1 -1.1104 1.04578 7.30646 0.937121
60 1 -1.1104 1.05883 4.48912 0.796433
67 1 -1.1104 1.24448 4.59813 3.73465
71 1 -1.1104 3.93976 7.5138 0.790652
72 2 2.2208 2.58596 6.01898 2.31547
76 1 -1.1104 3.81723 4.79344 0.581453
79 1 -1.1104 3.93108 4.75942 3.77649
58 1 -1.1104 1.19201 7.66629 3.65146
74 1 -1.1104 3.98369 7.63658 3.74054
9 1 -1.1104 6.81685 1.79844 3.73472
239 1 -1.1104 3.93055 4.66872 6.33608
169 1 -1.1104 6.70662 1.8407 6.55239
173 1 -1.1104 3.98147 1.65845 6.35034
234 1 -1.1104 1.08845 7.33285 6.50067
236 1 -1.1104 1.25344 4.60481 6.58771
238 1 -1.1104 3.97948 7.41429 6.51048
8103 2 2.2208 2.4621 -5.29181 2.45868
503 2 2.2208 2.6311 17.4731 13.5201
59 1 -1.1104 6.71525 7.36462 3.71791
5 1 -1.1104 6.75724 1.77171 1.01
57 1 -1.1104 6.76619 7.51741 0.962009
69 1 -1.1104 6.71739 4.69985 3.64117
63 1 -1.1104 6.60874 4.70424 1.04252
33 1 -1.1104 12.1788 1.60151 0.895243
35 1 -1.1104 12.5035 1.93102 3.62295
38 2 2.2208 10.8821 3.202 2.25998
41 1 -1.1104 9.46596 1.77875 0.689702
44 1 -1.1104 9.72828 1.72264 3.57521
46 2 2.2208 8.05919 3.15534 5.19201
84 2 2.2208 10.9754 5.96863 5.08386
88 1 -1.1104 12.3033 4.48462 1.05777
92 1 -1.1104 12.1271 4.81345 3.50633
94 1 -1.1104 9.91681 7.18635 1.08377
95 2 2.2208 8.07552 6.01558 2.20349
99 1 -1.1104 9.5132 4.72832 0.654748
102 1 -1.1104 9.27715 4.52613 3.64728
97 1 -1.1104 9.66451 7.45 3.7478
87 1 -1.1104 12.4299 7.46991 3.62819
86 1 -1.1104 12.6009 7.57802 0.808578
267 1 -1.1104 9.45415 7.38714 6.54252
265 1 -1.1104 12.0576 7.5495 6.48892
266 1 -1.1104 12.3742 4.35203 6.49954
269 1 -1.1104 9.62531 4.56638 6.506
55 2 2.2208 5.04598 11.8323 5.16095
61 1 -1.1104 0.913596 10.0192 0.822276
66 2 2.2208 5.32445 8.92241 2.2359
68 1 -1.1104 0.796961 10.444 3.6292
73 2 2.2208 2.37893 11.7988 2.32863
75 2 2.2208 2.60472 8.95677 5.16158
77 1 -1.1104 3.77168 10.3558 1.03485
80 1 -1.1104 4.09641 10.248 3.80622
107 1 -1.1104 0.962442 13.013 0.943493
113 1 -1.1104 0.738431 13.4252 3.56864
123 1 -1.1104 3.88577 13.1644 0.825057
128 1 -1.1104 3.68914 13.138 3.73161
70 1 -1.1104 6.79996 10.132 3.37172
108 1 -1.1104 1.29206 13.0128 6.29303
62 1 -1.1104 1.00525 10.3905 6.44325
115 1 -1.1104 6.63557 12.9032 3.68097
317 2 2.2208 5.30014 3.27517 13.2769
124 1 -1.1104 3.95207 13.3435 6.51076
78 1 -1.1104 3.74918 10.4726 6.70968
111 1 -1.1104 6.55528 13.2108 6.49928
532 2 2.2208 8.15147 17.464 13.4962
64 1 -1.1104 6.73328 10.5024 0.795098
110 1 -1.1104 6.6515 13.3009 0.790176
85 2 2.2208 10.8842 11.7169 5.23895
89 1 -1.1104 12.3859 10.495 0.66307
91 2 2.2208 10.8993 8.84583 2.33002
93 1 -1.1104 12.4152 10.2783 3.47957
96 2 2.2208 8.02126 11.7601 2.37078
98 2 2.2208 8.014 8.77168 5.02161
100 1 -1.1104 9.44169 10.1381 1.20407
103 1 -1.1104 9.60249 10.2078 4.04325
142 1 -1.1104 12.0757 13.2302 0.809993
146 1 -1.1104 12.4011 13.294 3.68757
153 1 -1.1104 9.09732 13.0216 0.828427
158 1 -1.1104 9.44628 12.9424 3.83039
154 1 -1.1104 9.40039 13.1992 6.5625
143 1 -1.1104 12.2321 12.9839 6.73478
90 1 -1.1104 12.3003 10.3953 6.44793
65 1 -1.1104 6.57072 10.3818 6.49046
101 1 -1.1104 9.38203 10.4023 6.84592
8105 2 2.2208 8.21915 -5.21864 2.13095
17390 2 2.2208 -0.427838 -5.02196 10.9791
119 2 2.2208 5.23154 14.4532 2.22566
8107 2 2.2208 2.31306 -5.11277 8.05947
130 2 2.2208 2.43027 14.7366 5.00878
106 2 2.2208 5.3125 17.3042 5.08172
109 1 -1.1104 0.96289 18.8001 1.05378
114 1 -1.1104 0.876902 19.0924 3.66938
116 1 -1.1104 0.92219 15.9802 0.949664
120 2 2.2208 4.99137 20.1812 2.4583
121 1 -1.1104 0.87162 16.1049 3.72734
125 1 -1.1104 3.71205 18.9627 0.933176
127 2 2.2208 2.09945 17.4532 2.28258
129 1 -1.1104 3.69159 18.8495 3.79704
131 2 2.2208 2.24293 20.2262 5.0016
132 1 -1.1104 3.65266 16.0544 0.973759
134 1 -1.1104 3.88484 16.052 3.7784
126 1 -1.1104 3.64045 18.8938 6.71901
122 1 -1.1104 6.72354 15.8 3.64138
133 1 -1.1104 3.76724 16.1912 6.42697
138 1 -1.1104 6.56908 18.7922 0.957835
117 1 -1.1104 1.21531 16.0412 6.5252
302 1 -1.1104 1.05991 18.7199 6.32249
112 1 -1.1104 6.56251 19.0453 6.53166
322 2 2.2208 10.9762 3.34315 13.4272
118 1 -1.1104 6.59894 16.072 6.56304
160 2 2.2208 7.90621 14.4982 5.02374
150 2 2.2208 10.7051 14.4107 2.37688
163 1 -1.1104 9.0941 15.9361 6.32485
139 1 -1.1104 6.48153 18.7365 3.78819
140 1 -1.1104 6.40389 16.0065 0.763755
141 2 2.2208 10.6715 17.4838 4.94586
144 1 -1.1104 12.3043 18.9433 0.818365
147 1 -1.1104 12.2392 18.6223 3.60321
148 1 -1.1104 12.1431 16.0491 0.83165
151 2 2.2208 11.0319 20.225 2.27757
152 1 -1.1104 12.2507 16.021 3.5651
155 1 -1.1104 9.29395 18.8547 0.969069
157 2 2.2208 7.92599 17.401 2.19948
159 1 -1.1104 9.33895 18.5521 3.62225
161 2 2.2208 7.95224 20.2191 5.08182
162 1 -1.1104 9.53685 15.9311 0.755842
164 1 -1.1104 9.40326 15.8637 3.48324
149 1 -1.1104 12.0186 15.8863 6.45257
156 1 -1.1104 9.47498 18.9638 6.53048
8745 2 2.2208 -0.357651 9.04591 8.03004
8867 2 2.2208 13.4851 14.574 -0.489556
105 2 2.2208 10.7874 20.333 8.00032
231 1 -1.1104 9.60864 16.0918 12.1892
316 2 2.2208 2.52241 0.279892 13.4482
649 2 2.2208 8.27079 8.77726 -0.369823
172 1 -1.1104 3.93795 -3.73409 6.46737
166 1 -1.1104 1.19161 -3.71796 6.47569
175 2 2.2208 5.40644 0.274063 10.4889
176 1 -1.1104 0.93484 -3.80791 12.2184
180 1 -1.1104 0.980428 -3.81711 9.20809
184 1 -1.1104 0.858849 -1.26632 12.0495
186 2 2.2208 5.2759 -2.51093 7.96775
188 1 -1.1104 0.698911 -1.09282 9.32833
190 1 -1.1104 3.74273 -3.9663 12.279
192 2 2.2208 2.43903 0.326155 7.87527
193 1 -1.1104 3.89476 -3.90131 9.37828
195 2 2.2208 2.42558 -2.44422 10.7323
197 1 -1.1104 3.81327 -1.28109 12.0878
198 1 -1.1104 3.64963 -1.0285 9.29454
182 1 -1.1104 6.76153 -3.84425 9.40468
145 1 -1.1104 12.128 18.7468 6.36318
165 2 2.2208 13.6067 17.3321 2.3732
17394 2 2.2208 13.6393 -5.16414 2.31461
207 1 -1.1104 12.3419 -1.14555 6.5344
8813 2 2.2208 -0.294342 -2.60348 2.39673
26 2 2.2208 -0.418258 0.440144 4.98511
185 1 -1.1104 6.60259 -1.03278 12.0219
189 1 -1.1104 6.7307 -1.07086 9.35634
178 1 -1.1104 6.57918 -3.80949 12.3163
210 1 -1.1104 9.60369 -1.08623 6.40067
208 1 -1.1104 9.63622 -3.80884 6.62083
211 2 2.2208 10.7829 0.377706 10.7305
212 1 -1.1104 12.3047 -3.73629 12.1931
214 1 -1.1104 12.3083 -3.89517 9.42566
216 1 -1.1104 12.0184 -0.820444 12.0491
217 2 2.2208 11.0337 -2.56121 8.08823
219 1 -1.1104 12.3738 -1.11162 9.24713
220 1 -1.1104 9.48819 -3.72579 12.2225
222 2 2.2208 8.06024 0.385553 7.96294
223 1 -1.1104 9.72607 -3.91341 9.40472
225 2 2.2208 8.10512 -2.58762 10.6875
227 1 -1.1104 9.30538 -1.05746 12.0307
228 1 -1.1104 9.55846 -1.12154 9.17775
373 2 2.2208 2.49302 14.5732 -0.513223
52 1 -1.1104 9.36694 18.9142 9.62749
8732 2 2.2208 13.621 9.00602 10.7599
167 1 -1.1104 0.902404 2.0146 6.59815
177 1 -1.1104 0.971809 1.74943 11.9765
181 1 -1.1104 0.900874 1.93989 9.28787
187 2 2.2208 5.23584 3.21517 7.93887
191 1 -1.1104 3.91481 1.61066 12.1577
194 1 -1.1104 3.61736 1.88606 9.12484
196 2 2.2208 2.32822 3.30558 10.6794
240 2 2.2208 5.20372 6.26144 10.7663
246 1 -1.1104 0.765868 4.56418 12.066
251 1 -1.1104 1.0652 4.6755 9.33616
256 2 2.2208 2.45506 5.98784 7.9243
260 1 -1.1104 3.75349 4.81503 12.0802
262 1 -1.1104 3.84261 4.75935 9.25101
242 1 -1.1104 1.05578 7.69677 12.2743
244 1 -1.1104 1.18566 7.52998 9.41567
255 1 -1.1104 3.77836 7.73732 12.193
258 1 -1.1104 4.18113 7.82576 9.49696
253 1 -1.1104 6.67563 4.58836 9.19451
319 2 2.2208 8.18234 0.467563 13.554
8119 2 2.2208 8.34531 -5.28174 13.464
237 1 -1.1104 6.71798 4.55669 6.47348
206 1 -1.1104 12.386 1.71275 6.50519
505 2 2.2208 5.17496 14.5325 13.5629
243 1 -1.1104 6.54766 7.49685 12.3252
245 1 -1.1104 6.96636 7.41958 9.40485
209 1 -1.1104 9.38837 1.81979 6.48825
235 1 -1.1104 6.66066 7.27671 6.53099
248 1 -1.1104 6.67466 4.70795 11.9089
179 1 -1.1104 6.75348 1.82479 11.7711
183 1 -1.1104 6.46262 1.73531 9.23586
213 1 -1.1104 12.4394 1.89087 12.1369
215 1 -1.1104 12.3535 1.71358 9.23546
218 2 2.2208 11.0268 3.08266 7.85991
221 1 -1.1104 9.59231 1.75627 12.2401
224 1 -1.1104 9.51392 1.81515 9.30574
226 2 2.2208 7.97493 3.30449 10.5952
268 1 -1.1104 9.70127 4.80488 9.13729
271 1 -1.1104 9.52425 4.85123 12.028
275 2 2.2208 8.11652 5.95541 7.85529
276 2 2.2208 10.9635 6.138 10.6846
278 1 -1.1104 12.3331 7.54557 12.2455
280 1 -1.1104 12.3816 4.65422 12.259
283 1 -1.1104 12.4352 4.65651 9.35618
273 1 -1.1104 9.62131 7.52764 9.36508
285 1 -1.1104 9.51083 7.7294 12.143
279 1 -1.1104 12.2438 7.58444 9.38602
104 2 2.2208 10.9015 14.5491 7.9933
441 2 2.2208 5.45849 9.04896 13.6219
468 2 2.2208 10.991 9.13511 13.5689
313 2 2.2208 8.04247 17.5228 7.85973
241 2 2.2208 5.31957 11.819 10.5926
247 1 -1.1104 0.828405 10.4153 12.2239
250 2 2.2208 5.33846 9.10478 7.9597
252 1 -1.1104 0.970445 10.2296 9.65953
257 2 2.2208 2.26464 11.8465 7.83783
259 2 2.2208 2.53292 8.98795 10.8395
261 1 -1.1104 3.7325 10.5372 12.164
263 1 -1.1104 3.6761 10.4539 9.38605
287 1 -1.1104 3.81957 13.2231 12.2936
294 1 -1.1104 1.08713 13.2856 9.28663
299 1 -1.1104 1.02169 13.2359 12.3161
305 1 -1.1104 3.747 13.32 9.16196
249 1 -1.1104 6.71124 10.3426 12.0826
28 2 2.2208 13.5894 20.0785 10.7579
27 2 2.2208 10.9972 17.3676 10.859
8614 2 2.2208 13.5145 14.5977 5.28623
25 2 2.2208 13.5956 17.3185 7.94049
297 1 -1.1104 6.77698 13.3008 12.0917
254 1 -1.1104 6.70544 10.2492 9.45574
290 1 -1.1104 6.58381 13.3953 9.28672
229 1 -1.1104 9.79442 13.1559 12.252
264 1 -1.1104 9.54193 10.3696 9.61458
270 1 -1.1104 9.58043 10.593 12.1254
272 2 2.2208 8.22809 8.97404 10.7416
274 2 2.2208 7.99287 11.902 7.99207
277 2 2.2208 11.0295 11.9411 10.7411
281 1 -1.1104 12.4297 10.4862 12.2925
282 2 2.2208 10.9364 9.01963 7.92279
284 1 -1.1104 12.4284 10.3644 9.28316
30 1 -1.1104 12.4257 13.3963 12.2031
50 1 -1.1104 12.2424 13.2927 9.39719
51 1 -1.1104 9.35397 13.4213 9.20535
232 1 -1.1104 9.58156 16.1359 9.20143
504 2 2.2208 5.13848 20.1619 13.4563
315 2 2.2208 5.3458 -2.21551 13.7111
49 1 -1.1104 12.4501 18.9327 12.2523
289 1 -1.1104 6.84496 16.2018 9.39758
288 1 -1.1104 6.813 18.9004 9.15289
310 2 2.2208 2.4063 14.7831 10.72
295 2 2.2208 5.2953 14.7497 8.01231
296 1 -1.1104 6.42791 18.8929 12.024
306 1 -1.1104 6.72726 15.9362 12.0287
309 2 2.2208 2.43189 20.4553 10.8246
286 1 -1.1104 3.80368 18.9312 12.1305
291 1 -1.1104 0.865353 19.1077 9.16505
292 1 -1.1104 1.2327 16.3375 9.39072
293 2 2.2208 5.03507 20.4373 7.96993
298 1 -1.1104 1.06993 18.9044 11.9692
300 2 2.2208 5.26599 17.3671 10.6584
301 1 -1.1104 3.77177 18.7408 9.43889
303 2 2.2208 2.45722 17.591 7.90394
304 1 -1.1104 4.11464 15.957 9.35013
307 1 -1.1104 0.882252 16.1566 12.0502
308 1 -1.1104 3.95456 16.0611 12.1703
82 2 2.2208 -0.469771 8.84492 2.31854
233 1 -1.1104 9.449 18.8566 12.2594
204 1 -1.1104 12.4125 15.9015 9.36751
53 1 -1.1104 12.2409 18.6643 9.38648
203 2 2.2208 8.10138 20.1434 10.9786
321 2 2.2208 11.0636 -2.27775 13.5175
83 1 -1.1104 12.2796 16.2096 12.1502
202 2 2.2208 8.16718 14.8241 10.7657
199 2 2.2208 -0.299568 3.44439 7.8956
8712 2 2.2208 -0.231782 3.41306 2.33573
8544 2 2.2208 13.6858 11.7079 2.24861
8593 2 2.2208 13.6636 20.0393 5.3248
323 2 2.2208 5.17911 0.232658 -0.533165
8814 2 2.2208 13.744 14.685 10.9023
81 2 2.2208 -0.22715 6.02629 5.13015
402 2 2.2208 5.14419 17.6355 -0.422371
326 2 2.2208 -0.400651 3.21703 13.5916
9049 2 2.2208 -0.235485 14.6925 13.5596
8825 2 2.2208 13.6498 2.98462 -0.347915
9052 2 2.2208 -0.374734 11.7553 -0.415348
531 2 2.2208 11.0432 14.6456 13.6349
331 2 2.2208 5.33732 0.591246 16.4006
332 1 -1.1104 1.18267 -3.55834 17.6557
336 1 -1.1104 1.18577 -3.90518 15.1324
344 1 -1.1104 1.17776 -0.774226 17.8263
346 2 2.2208 5.2303 -2.34895 19.3654
348 1 -1.1104 1.07991 -1.0527 14.9187
352 1 -1.1104 3.78811 -3.78886 17.7302
354 2 2.2208 2.4565 0.493904 19.2978
355 1 -1.1104 3.86633 -3.7239 15.0252
359 2 2.2208 2.57415 -2.19169 16.516
361 1 -1.1104 3.99002 -0.862169 17.8899
362 1 -1.1104 3.80369 -1.03463 15.0059
356 1 -1.1104 3.78888 -3.72234 20.7257
596 1 -1.1104 12.081 15.834 26.3
340 1 -1.1104 7.02283 -3.79561 14.9224
350 1 -1.1104 6.6033 -0.853295 15.1123
652 2 2.2208 8.07637 20.2658 22.0711
8282 2 2.2208 7.89519 -5.12284 19.2121
592 2 2.2208 -0.449709 3.07802 19.1888
568 2 2.2208 -0.306849 0.383506 22.11
345 1 -1.1104 6.67485 -1.04724 18.0097
334 1 -1.1104 6.65397 -3.67993 17.728
374 2 2.2208 10.8223 0.533377 16.5206
375 1 -1.1104 12.264 -3.93727 17.6313
377 1 -1.1104 12.2196 -3.86681 14.92
381 1 -1.1104 12.3032 -1.0171 17.814
382 2 2.2208 10.7899 -2.33663 19.0442
384 1 -1.1104 12.3866 -1.01386 15.0324
386 1 -1.1104 9.41993 -3.77455 17.7792
388 2 2.2208 7.92833 0.658144 19.2077
389 1 -1.1104 9.6138 -3.89501 15.0701
393 2 2.2208 8.24349 -2.37671 16.3585
395 1 -1.1104 9.50527 -0.906974 17.8442
396 1 -1.1104 9.48235 -0.940008 14.999
328 2 2.2208 8.22085 -2.3486 27.7092
390 1 -1.1104 9.69418 -3.62597 20.6033
398 2 2.2208 10.8083 17.3897 27.7756
327 2 2.2208 10.8156 0.249776 27.6357
324 2 2.2208 2.5104 -2.53046 27.6719
333 1 -1.1104 0.90988 1.84392 17.8096
338 1 -1.1104 0.96657 1.67288 14.8222
347 2 2.2208 5.24183 3.52922 19.1109
353 1 -1.1104 3.97475 1.7985 17.76
357 1 -1.1104 3.78919 1.72649 14.9419
360 2 2.2208 2.53535 3.21425 16.3424
407 2 2.2208 5.35333 6.22079 16.3229
411 1 -1.1104 1.0254 7.45666 14.9551
415 1 -1.1104 1.15199 4.83431 17.7831
420 1 -1.1104 1.2601 4.703 14.7995
429 2 2.2208 2.4086 6.07768 19.2199
434 1 -1.1104 3.9701 4.8035 17.6553
436 1 -1.1104 4.1108 4.6021 15.0495
428 1 -1.1104 3.73249 7.65085 18.0169
431 1 -1.1104 3.9215 7.68149 14.967
409 1 -1.1104 0.940047 7.44204 18.0863
342 1 -1.1104 6.40766 1.70776 14.6892
417 1 -1.1104 6.89618 4.77116 17.7154
437 1 -1.1104 3.66423 4.73569 20.4287
8114 2 2.2208 10.9324 -5.2141 27.5774
432 1 -1.1104 3.79974 7.38611 20.8401
8208 2 2.2208 2.58437 -5.0888 24.9757
335 1 -1.1104 6.78035 1.79496 17.5182
424 1 -1.1104 6.79216 4.51664 14.9694
413 1 -1.1104 6.86172 7.49832 15.0863
410 1 -1.1104 6.3587 7.54917 18.1357
414 1 -1.1104 6.5404 7.44892 20.8866
376 1 -1.1104 12.4049 1.75293 17.8194
379 1 -1.1104 12.1445 1.80001 14.9785
383 2 2.2208 10.8962 3.40708 19.2861
387 1 -1.1104 9.63175 1.96404 17.7358
391 1 -1.1104 9.36157 2.12053 14.7331
394 2 2.2208 8.09679 3.31744 16.362
443 2 2.2208 10.8759 5.94167 16.3571
448 1 -1.1104 12.3758 4.74787 17.9088
451 1 -1.1104 12.5667 4.56165 15.2446
456 2 2.2208 8.07246 6.09906 19.2531
461 1 -1.1104 9.48131 4.64918 17.5539
463 1 -1.1104 9.56015 4.62442 14.7575
458 1 -1.1104 9.29369 7.61288 14.7742
455 1 -1.1104 9.35213 7.64879 17.8096
445 1 -1.1104 12.2235 7.40326 17.8515
446 1 -1.1104 11.9867 7.4423 15.0206
464 1 -1.1104 9.28425 4.80353 20.4239
447 1 -1.1104 12.0208 7.46911 20.5872
459 1 -1.1104 9.29197 7.56038 20.9587
380 1 -1.1104 12.0961 1.57888 20.5
364 2 2.2208 13.6562 17.3349 24.9349
408 2 2.2208 5.2946 11.8207 16.552
416 1 -1.1104 0.944311 10.1882 17.8218
419 2 2.2208 5.10627 9.0309 19.2729
422 1 -1.1104 0.877569 10.4632 15.0933
430 2 2.2208 2.18844 11.73 19.2868
433 2 2.2208 2.37408 8.98862 16.5525
435 1 -1.1104 3.60107 10.3564 17.8338
438 1 -1.1104 4.12607 10.3079 15.1584
471 1 -1.1104 0.853355 13.1446 17.855
475 1 -1.1104 1.02383 13.0844 15.021
491 1 -1.1104 3.88573 13.2626 17.8485
494 1 -1.1104 3.75691 13.0788 15.2413
418 1 -1.1104 6.66507 10.5022 17.8677
476 1 -1.1104 1.00243 12.9576 20.8201
495 1 -1.1104 3.72988 13.2725 20.5479
423 1 -1.1104 1.13011 10.1632 20.9049
439 1 -1.1104 3.8675 10.582 20.5629
329 2 2.2208 7.90986 3.1811 27.7725
426 1 -1.1104 6.71858 10.5533 15.1976
479 1 -1.1104 6.57478 13.3988 15.1561
480 1 -1.1104 6.55684 13.1379 20.6225
473 1 -1.1104 6.7635 13.3073 17.8548
444 2 2.2208 11.0111 11.8289 16.3457
449 1 -1.1104 12.2859 10.2589 17.7805
450 2 2.2208 10.7521 8.98652 19.2237
453 1 -1.1104 12.2237 10.3004 14.9552
457 2 2.2208 8.11449 11.7702 19.2911
460 2 2.2208 8.26929 9.05195 16.3864
462 1 -1.1104 9.47739 10.1096 17.9124
465 1 -1.1104 9.56329 10.5983 14.9819
507 1 -1.1104 12.2989 12.9935 17.9992
509 1 -1.1104 12.2954 13.1855 15.0841
518 1 -1.1104 9.30263 12.96 17.7836
521 1 -1.1104 9.29603 13.4402 14.8408
510 1 -1.1104 12.4075 13.0735 20.7324
427 1 -1.1104 6.52567 10.2613 20.7364
466 1 -1.1104 9.57611 10.5579 20.6303
369 2 2.2208 -0.275462 20.3022 24.8034
485 2 2.2208 5.28241 14.519 19.2914
498 2 2.2208 2.48477 14.5533 16.5232
470 2 2.2208 5.17579 17.5421 16.2477
472 1 -1.1104 0.85814 18.7058 17.8327
477 1 -1.1104 0.908735 18.7784 14.8375
483 1 -1.1104 1.15836 16.0394 17.7601
486 2 2.2208 5.24888 20.172 19.1956
487 1 -1.1104 1.18101 15.9386 14.8725
492 1 -1.1104 3.63692 18.9122 17.7531
493 2 2.2208 2.37354 17.4876 19.268
496 1 -1.1104 3.63372 18.9656 14.976
499 2 2.2208 2.15341 20.1487 16.2696
500 1 -1.1104 3.8991 16.279 17.8831
501 1 -1.1104 3.77938 15.9995 15.001
481 1 -1.1104 6.6836 18.9627 14.9112
474 1 -1.1104 6.60378 19.0504 17.841
484 1 -1.1104 6.67609 16.2291 17.5011
478 1 -1.1104 1.23168 18.8703 20.7438
490 1 -1.1104 6.55812 15.9306 20.5678
488 1 -1.1104 1.15402 15.7799 20.496
497 1 -1.1104 3.80125 18.8397 20.6127
502 1 -1.1104 3.93523 16.0044 20.7521
489 1 -1.1104 6.55698 16.2793 14.6652
330 2 2.2208 5.20654 6.09918 27.7706
514 2 2.2208 10.841 14.5352 19.2361
525 2 2.2208 7.94348 14.7672 16.2227
506 2 2.2208 10.7989 17.3559 16.4657
508 1 -1.1104 12.2463 18.815 17.9168
511 1 -1.1104 12.3087 18.9521 14.9363
513 1 -1.1104 12.36 15.9407 17.8042
515 2 2.2208 10.8426 20.0936 19.2782
516 1 -1.1104 12.4749 16.0362 15.0436
519 1 -1.1104 9.50683 18.6517 17.8512
520 2 2.2208 7.87471 17.3175 19.183
523 1 -1.1104 9.41094 18.8383 15.0945
526 2 2.2208 8.20988 20.3386 16.4898
527 1 -1.1104 9.34951 15.7895 17.6264
528 1 -1.1104 9.61693 16.1162 14.857
524 1 -1.1104 9.57921 18.8556 20.7386
482 1 -1.1104 6.63737 18.7174 20.7837
512 1 -1.1104 12.3119 18.7595 20.553
337 1 -1.1104 1.03046 -3.79573 20.5134
363 1 -1.1104 3.93472 -0.785929 20.5483
325 2 2.2208 2.43245 3.4142 27.6755
8209 2 2.2208 5.27153 -5.26878 22.1316
8369 2 2.2208 2.39141 -5.07438 19.1461
349 1 -1.1104 1.2462 -1.23281 20.6696
534 2 2.2208 5.27423 0.357606 22.0101
535 1 -1.1104 1.0334 -3.83532 23.4858
539 1 -1.1104 1.06373 -3.70629 26.4656
543 1 -1.1104 0.832547 -1.12711 23.4476
545 2 2.2208 5.44178 -2.26059 25.0171
547 1 -1.1104 0.984845 -0.927827 26.3269
549 1 -1.1104 3.87273 -3.79584 23.5606
551 2 2.2208 2.41789 0.452071 24.9704
552 1 -1.1104 3.8546 -4.00263 26.4045
554 2 2.2208 2.30315 -2.4142 22.0917
556 1 -1.1104 3.79731 -1.00919 23.6211
557 1 -1.1104 3.75247 -0.959094 26.3058
318 2 2.2208 8.05144 20.2255 27.7928
548 1 -1.1104 6.77008 -0.977897 26.4055
541 1 -1.1104 6.63182 -3.83218 26.3555
8207 2 2.2208 10.8997 -5.24373 22.1834
8903 2 2.2208 -0.37568 11.7377 22.2969
351 1 -1.1104 6.61943 -0.8116 20.8057
442 2 2.2208 2.31011 11.6578 13.6249
341 1 -1.1104 6.67899 -3.70685 20.592
648 2 2.2208 11.058 5.86446 27.7504
397 1 -1.1104 9.13408 -0.708163 20.6706
378 1 -1.1104 12.421 -3.63156 20.3766
544 1 -1.1104 6.70595 -0.994025 23.638
537 1 -1.1104 6.81033 -3.8016 23.5621
385 1 -1.1104 12.1178 -1.04162 20.7204
570 2 2.2208 10.8585 0.511708 21.9254
571 1 -1.1104 12.3677 -3.77683 23.3591
573 1 -1.1104 12.3607 -3.99287 26.2629
575 1 -1.1104 12.6043 -0.932436 23.3011
576 2 2.2208 10.8782 -2.51184 24.8688
578 1 -1.1104 12.5121 -1.19713 26.3178
579 1 -1.1104 9.64022 -3.81439 23.4776
581 2 2.2208 8.10172 0.548729 24.7724
582 1 -1.1104 9.42493 -3.83429 26.2345
584 2 2.2208 8.10187 -2.22608 22.0828
586 1 -1.1104 9.65135 -1.11345 23.5237
587 1 -1.1104 9.57377 -1.22079 26.2075
624 2 2.2208 2.43339 8.76693 27.7293
358 1 -1.1104 3.89219 1.86429 20.624
339 1 -1.1104 0.98051 1.8713 20.696
412 1 -1.1104 0.949747 7.55757 20.4675
421 1 -1.1104 0.741749 4.71656 20.4482
536 1 -1.1104 1.05872 1.76632 23.4216
540 1 -1.1104 1.09995 2.11465 26.2657
546 2 2.2208 5.08729 3.29158 24.8733
550 1 -1.1104 3.72043 1.793 23.7271
553 1 -1.1104 3.92636 2.01353 26.4483
555 2 2.2208 2.54011 3.1718 22.146
599 2 2.2208 5.20813 6.15756 22.2099
605 1 -1.1104 1.11332 4.58928 23.2713
610 1 -1.1104 1.07906 4.73161 26.31
614 1 -1.1104 3.56185 7.73566 23.6457
615 2 2.2208 2.25751 6.20036 24.6445
619 1 -1.1104 3.84338 4.89859 23.339
621 1 -1.1104 3.69283 4.67243 25.8364
603 1 -1.1104 1.01035 7.4815 26.0391
601 1 -1.1104 0.829015 7.58938 23.1694
617 1 -1.1104 3.66327 7.33733 26.33
538 1 -1.1104 6.55646 1.74348 23.2958
401 2 2.2208 -0.472893 6.24245 16.5224
8905 2 2.2208 -0.484389 0.392053 16.359
392 1 -1.1104 9.46045 2.0422 20.5559
343 1 -1.1104 6.52701 1.84795 20.6276
425 1 -1.1104 6.56454 4.49875 20.7657
602 1 -1.1104 6.70357 7.74061 23.6726
604 1 -1.1104 6.5432 7.40057 26.3778
612 1 -1.1104 6.58359 4.65907 26.5746
607 1 -1.1104 6.65997 4.82205 23.5596
452 1 -1.1104 12.4138 4.62916 20.7909
542 1 -1.1104 6.65841 1.8436 26.3509
572 1 -1.1104 12.2806 1.913 23.2814
574 1 -1.1104 12.2869 1.7627 26.3475
577 2 2.2208 10.9757 3.13407 24.8571
580 1 -1.1104 9.40936 1.73802 23.4016
583 1 -1.1104 9.48706 1.76456 26.2041
585 2 2.2208 7.96077 3.15229 22.0466
631 1 -1.1104 9.55214 4.61321 26.1615
633 1 -1.1104 9.48091 4.62224 23.4921
635 1 -1.1104 9.45728 7.36122 26.6171
637 2 2.2208 8.07424 6.09809 24.9123
638 2 2.2208 10.8047 5.89413 21.9728
640 1 -1.1104 12.351 7.52005 23.5398
642 1 -1.1104 12.3696 4.69005 23.6497
645 1 -1.1104 12.23 4.40111 26.4143
641 1 -1.1104 12.1187 7.20585 26.2157
647 1 -1.1104 9.4923 7.38873 23.6691
625 2 2.2208 5.27492 11.7881 27.5488
657 1 -1.1104 6.51759 16.0947 26.1588
440 2 2.2208 2.48167 6.3419 13.6515
653 1 -1.1104 9.31892 15.8644 23.5495
399 2 2.2208 13.5765 20.2634 16.5211
600 2 2.2208 5.15945 11.7791 22.0495
606 1 -1.1104 1.22843 10.1165 23.6115
609 2 2.2208 5.12525 8.8383 25.1405
611 1 -1.1104 1.09419 10.2703 26.3847
616 2 2.2208 2.46578 11.7452 24.8396
618 2 2.2208 2.41016 8.76396 22.0304
620 1 -1.1104 4.01603 10.4593 23.6331
622 1 -1.1104 3.81213 10.2963 26.3303
560 1 -1.1104 3.73596 13.4312 26.4386
623 1 -1.1104 1.02068 13.2353 23.6303
656 1 -1.1104 3.85362 13.2125 23.3919
660 1 -1.1104 0.84484 13.1588 26.3712
664 1 -1.1104 6.63204 13.3349 23.5592
613 1 -1.1104 6.67831 10.3851 26.3262
533 2 2.2208 10.719 17.3401 22.1001
598 1 -1.1104 9.78061 18.4829 23.78
368 2 2.2208 -0.316305 -2.55608 19.1559
650 2 2.2208 10.7582 11.6238 27.7724
608 1 -1.1104 6.6213 10.3722 23.3619
522 1 -1.1104 9.4744 13.1779 20.5617
454 1 -1.1104 12.2762 10.3062 20.5043
655 1 -1.1104 6.42186 13.3987 26.433
628 1 -1.1104 9.37334 12.8959 26.3234
630 1 -1.1104 9.43499 10.1581 26.5302
632 1 -1.1104 9.40003 10.4244 23.5613
634 2 2.2208 8.04496 8.94129 22.0892
636 2 2.2208 8.04284 11.7607 25.019
639 2 2.2208 10.8135 11.6576 22.0445
643 1 -1.1104 12.2071 10.3918 23.5292
644 2 2.2208 10.8895 8.75116 25.0411
646 1 -1.1104 12.2984 10.2059 26.4439
597 1 -1.1104 9.38269 12.986 23.5907
561 1 -1.1104 12.0912 13.0941 23.5047
566 1 -1.1104 12.2706 13.1418 26.3319
629 1 -1.1104 9.53422 18.8904 26.3329
593 2 2.2208 13.5969 0.307354 19.2515
9051 2 2.2208 -0.374008 8.93677 24.8503
559 1 -1.1104 6.52252 16.0196 23.2977
663 2 2.2208 5.06245 14.8289 24.948
404 2 2.2208 2.29935 14.4921 22.2531
661 1 -1.1104 7.03544 18.8806 23.5296
662 2 2.2208 5.34451 20.3035 24.8567
659 1 -1.1104 0.941651 15.8717 26.5451
665 1 -1.1104 1.10588 19.0406 23.5733
405 2 2.2208 2.4689 20.2433 22.0238
406 1 -1.1104 3.77497 15.9359 23.3841
558 1 -1.1104 1.14519 16.1761 23.5052
565 1 -1.1104 3.89528 16.4075 26.3426
588 2 2.2208 2.43776 17.5513 24.8411
589 1 -1.1104 4.09784 19.0962 26.2274
590 2 2.2208 5.24427 17.3945 21.9874
654 1 -1.1104 4.00509 18.7377 23.5472
658 1 -1.1104 1.22369 18.7205 26.4652
365 2 2.2208 13.5795 9.0032 22.0276
371 2 2.2208 -0.387783 17.4101 27.7468
567 1 -1.1104 12.1508 18.7191 26.3724
367 2 2.2208 7.87806 14.716 27.6403
529 1 -1.1104 9.42945 16.1374 20.4869
517 1 -1.1104 12.1612 15.6644 20.5905
8370 2 2.2208 5.3835 -5.1764 16.129
651 2 2.2208 7.8822 14.3075 22.0099
591 2 2.2208 10.7851 14.6319 24.7523
627 1 -1.1104 6.8277 18.7648 26.3266
595 2 2.2208 11.0658 20.2546 24.8066
562 1 -1.1104 12.4044 18.9417 23.3942
372 1 -1.1104 9.4468 15.8782 26.331
626 2 2.2208 8.06604 17.3112 24.8041
569 1 -1.1104 12.1348 15.8616 23.3843
9047 2 2.2208 -0.447285 14.8251 19.1394
594 2 2.2208 -0.273207 17.5013 22.1018
8902 2 2.2208 -0.309137 6.04586 27.612
8901 2 2.2208 13.5988 11.8116 24.9373
320 2 2.2208 2.51516 20.2656 27.6919
8816 2 2.2208 -0.344202 0.477281 27.7162
8906 2 2.2208 13.5652 14.4537 22.1128
8935 2 2.2208 13.5548 8.91546 16.256
9155 2 2.2208 -0.351361 6.00398 21.959
17400 2 2.2208 -0.260248 -5.26825 27.7123
8122 2 2.2208 2.47371 -5.11223 13.8086
469 2 2.2208 8.22635 11.815 13.7274
666 2 2.2208 5.11899 23.2445 5.31371
668 1 -1.1104 0.665753 24.685 0.820681
669 1 -1.1104 1.02883 24.5963 3.77087
670 1 -1.1104 0.830526 21.7744 0.562822
672 2 2.2208 5.23165 26.0199 2.32874
673 1 -1.1104 0.710718 21.7389 3.38031
675 1 -1.1104 3.78563 24.4798 0.894626
676 2 2.2208 2.22722 23.2376 2.20767
678 1 -1.1104 3.80928 24.619 3.75739
679 2 2.2208 2.3083 25.9663 5.27196
680 1 -1.1104 3.33686 21.6337 1.05339
682 1 -1.1104 3.62998 21.6756 3.68522
681 1 -1.1104 3.69649 26.9936 1.01829
671 1 -1.1104 0.985195 27.4352 1.01059
674 1 -1.1104 0.845279 27.309 3.53885
683 1 -1.1104 3.89346 27.3265 3.63233
809 1 -1.1104 0.785386 21.7465 6.32907
689 1 -1.1104 6.31988 21.7754 0.802041
814 1 -1.1104 3.6923 21.6043 6.46669
808 1 -1.1104 6.17802 24.5068 6.64176
688 1 -1.1104 6.9182 24.5184 3.76582
813 1 -1.1104 3.57384 24.5063 6.45629
687 1 -1.1104 6.6837 24.5055 1.12333
690 1 -1.1104 6.79409 27.2517 1.07593
691 1 -1.1104 6.30257 21.6901 3.8832
700 1 -1.1104 12.1579 21.4765 3.77118
693 2 2.2208 10.8043 23.1156 5.15858
695 1 -1.1104 12.4325 24.5409 0.946168
696 1 -1.1104 12.4175 24.3676 4.01335
697 1 -1.1104 12.3754 21.7765 0.875914
699 2 2.2208 10.8771 25.9216 2.16228
702 1 -1.1104 9.53329 24.3939 0.826483
703 2 2.2208 7.86773 22.7618 2.17026
705 1 -1.1104 9.7234 24.4062 3.54471
706 2 2.2208 8.13775 25.8434 5.07793
707 1 -1.1104 9.59959 21.5995 1.06021
709 1 -1.1104 9.24076 21.423 3.687
692 1 -1.1104 6.79822 27.3207 3.75383
698 1 -1.1104 12.3109 27.3737 0.618842
841 1 -1.1104 12.097 21.5412 6.51057
711 2 2.2208 13.7047 22.9867 2.52225
844 1 -1.1104 9.30524 21.7068 6.58469
840 1 -1.1104 12.0466 24.3421 6.65773
843 1 -1.1104 9.27151 24.3465 6.54761
9513 2 2.2208 -0.456529 42.8245 13.6737
992 2 2.2208 13.5814 34.2841 13.4374
667 2 2.2208 5.11714 28.6922 5.21346
677 2 2.2208 2.36281 28.6365 2.38193
715 1 -1.1104 0.927981 30.419 0.866803
718 1 -1.1104 0.839076 30.2368 3.75603
721 1 -1.1104 0.90379 32.9618 0.977658
722 2 2.2208 4.87878 31.5087 2.40926
724 1 -1.1104 0.906708 33.0214 3.71388
726 1 -1.1104 3.74766 29.9677 1.03256
729 1 -1.1104 3.58598 30.1399 3.77252
731 2 2.2208 2.21721 31.615 5.21291
733 1 -1.1104 3.66419 32.8554 0.859787
734 1 -1.1104 3.57958 32.8559 3.79331
868 1 -1.1104 0.975839 32.9139 6.78254
870 1 -1.1104 3.92062 30.2892 6.62586
866 1 -1.1104 6.54939 29.8994 6.58489
739 1 -1.1104 6.38269 29.8584 3.76356
725 1 -1.1104 6.29339 32.9103 3.58011
738 1 -1.1104 6.64818 30.1013 0.934658
740 1 -1.1104 6.45463 32.8752 0.695597
864 1 -1.1104 0.890358 30.1594 6.73503
701 1 -1.1104 12.5406 27.2987 3.63103
708 1 -1.1104 9.50031 27.1295 0.839472
710 1 -1.1104 9.74543 27.4241 3.76357
694 2 2.2208 11.0875 28.6632 5.17511
704 2 2.2208 8.1603 28.7611 2.21532
742 1 -1.1104 12.3943 30.1873 0.907746
744 1 -1.1104 12.166 30.1592 3.65709
746 1 -1.1104 12.0383 32.9243 1.14301
747 2 2.2208 10.6054 31.7333 2.43094
749 1 -1.1104 12.1863 33.0253 3.88806
750 1 -1.1104 9.47154 30.1645 0.64589
753 1 -1.1104 9.39595 30.1613 3.61507
755 2 2.2208 7.87222 31.2578 4.97624
757 1 -1.1104 9.17827 33.1617 1.00614
758 1 -1.1104 9.09699 32.8028 3.78953
9279 2 2.2208 13.6074 42.8175 5.03097
9451 2 2.2208 13.6958 40.0817 7.92462
1255 2 2.2208 13.6167 28.713 13.5567
845 1 -1.1104 9.5945 27.3834 6.59184
842 1 -1.1104 12.3239 27.0265 6.68596
812 1 -1.1104 6.87618 27.2791 6.59028
901 1 -1.1104 9.47534 29.9853 6.55646
900 1 -1.1104 12.162 32.9978 6.71867
728 2 2.2208 2.55862 34.3244 2.2655
714 2 2.2208 5.26227 34.2613 5.1337
716 1 -1.1104 0.96106 35.5749 0.954584
719 1 -1.1104 0.894982 35.7389 3.53059
723 2 2.2208 5.17481 37.3365 2.25302
727 1 -1.1104 3.7747 35.9455 0.975965
730 1 -1.1104 3.8777 35.7497 3.74375
732 2 2.2208 2.42056 37.07 4.89867
766 1 -1.1104 0.662337 38.5086 0.816065