ITEM: TIMESTEP
40000
ITEM: NUMBER OF ATOMS
17760
ITEM: BOX BOUNDS pp pp pp
-4.3652997936386140e-01 2.7776529979364184e+01
-5.5321756609563231e+00 3.3361217566096360e+02
-4.4350035460424353e-01 2.7783500354603987e+01
ITEM: ATOMS id type q x y z
1 2 2.2208 5.20257 -0.0215368 5.395
2 1 -1.1104 1.02552 -4.43128 1.00285
6 1 -1.1104 1.09042 -4.26314 3.94158
10 1 -1.1104 1.09145 -1.52933 1.04526
12 2 2.2208 5.22867 -2.81186 2.65183
14 1 -1.1104 0.850033 -1.66146 4.12827
16 1 -1.1104 3.92485 -4.13627 1.18564
18 2 2.2208 2.29678 -0.0397654 2.76924
19 1 -1.1104 3.59853 -4.18628 3.98873
21 2 2.2208 2.34294 -2.67345 5.48513
23 1 -1.1104 3.88735 -1.15537 1.31085
24 1 -1.1104 3.78175 -1.05026 4.22164
15 1 -1.1104 6.70806 -1.41281 4.15506
170 1 -1.1104 0.959935 -1.32417 6.68585
4 1 -1.1104 6.51434 -4.05531 1.25058
8728 2 2.2208 13.5831 11.1705 8.23638
8 1 -1.1104 6.6882 -4.163 4.08552
11 1 -1.1104 6.70607 -1.37509 1.14116
8105 2 2.2208 8.11974 -5.36765 2.59963
174 1 -1.1104 3.76181 -1.28435 6.95031
201 2 2.2208 -0.567031 0.214874 11.0842
8543 2 2.2208 13.3408 5.74669 2.39287
8711 2 2.2208 13.7231 0.0779789 2.69461
31 2 2.2208 10.7902 0.154121 5.34153
32 1 -1.1104 12.2348 -4.3496 1.15863
34 1 -1.1104 12.5909 -4.2671 4.07221
36 1 -1.1104 12.3174 -1.51101 1.02708
37 2 2.2208 10.9924 -3.00584 2.73914
39 1 -1.1104 12.3109 -1.48585 3.98133
40 1 -1.1104 9.51401 -4.18374 1.23155
42 2 2.2208 8.12394 0.121521 2.68428
43 1 -1.1104 9.61734 -4.07288 4.14699
45 2 2.2208 8.15188 -2.63706 5.56954
47 1 -1.1104 9.54905 -1.30746 1.46417
48 1 -1.1104 9.57208 -1.19933 4.09083
208 1 -1.1104 9.65603 -4.06647 7.04395
328 2 2.2208 8.0944 -2.72858 -0.213448
207 1 -1.1104 12.3008 -1.20105 6.7837
649 2 2.2208 8.15895 8.62684 -0.350325
8518 2 2.2208 13.6692 -0.0108866 8.15269
7 1 -1.1104 0.94878 1.07501 4.12233
3 1 -1.1104 0.67913 1.4594 1.33667
13 2 2.2208 5.13224 2.8408 2.48373
17 1 -1.1104 3.29925 1.51219 1.3465
20 1 -1.1104 3.97087 1.44411 3.88372
22 2 2.2208 2.3883 2.80795 5.29995
54 2 2.2208 5.10691 5.54614 5.38908
56 1 -1.1104 0.881517 7.14572 1.58323
60 1 -1.1104 1.14454 4.36948 1.06429
67 1 -1.1104 1.06032 3.9715 3.87864
71 1 -1.1104 3.54261 7.15013 1.32717
72 2 2.2208 2.328 5.55834 2.69124
74 1 -1.1104 3.64722 6.98137 4.09642
76 1 -1.1104 3.50432 4.3048 1.2303
79 1 -1.1104 3.91551 4.27279 4.03653
239 1 -1.1104 3.81383 4.21316 6.71022
57 1 -1.1104 6.49243 7.25351 1.24398
59 1 -1.1104 6.57388 7.00482 4.05404
58 1 -1.1104 0.833101 6.78205 4.10443
9 1 -1.1104 6.68159 1.29283 3.90032
63 1 -1.1104 6.58814 4.44161 1.08768
69 1 -1.1104 6.54541 4.04224 4.00781
5 1 -1.1104 6.48897 1.40967 1.17954
238 1 -1.1104 3.88679 6.96533 6.67406
324 2 2.2208 2.38445 -2.92686 -0.129396
325 2 2.2208 2.18455 2.79778 -0.0477778
33 1 -1.1104 12.2073 1.25816 1.0009
35 1 -1.1104 12.23 1.59126 3.81078
38 2 2.2208 10.7045 2.9204 2.53976
41 1 -1.1104 9.3454 1.50146 1.27593
44 1 -1.1104 9.3696 1.65522 3.80797
46 2 2.2208 7.96968 2.80137 5.3377
84 2 2.2208 10.6519 5.74999 5.50604
87 1 -1.1104 12.0088 7.20452 3.98293
88 1 -1.1104 12.1758 4.16293 0.888044
92 1 -1.1104 12.2175 4.42515 3.99556
94 1 -1.1104 9.23601 7.17303 1.15776
95 2 2.2208 7.87728 5.64969 2.65209
97 1 -1.1104 9.17043 7.14671 3.97811
99 1 -1.1104 9.34156 4.49513 1.07069
102 1 -1.1104 9.27497 4.48961 3.91784
86 1 -1.1104 11.8487 6.99329 0.969884
209 1 -1.1104 9.42336 1.4618 6.59005
269 1 -1.1104 9.40926 4.1433 6.77688
267 1 -1.1104 9.10197 7.02888 6.71901
624 2 2.2208 2.16975 8.46758 -0.0951419
49 1 -1.1104 12.1271 18.2325 12.2754
234 1 -1.1104 1.22103 6.74618 6.84576
55 2 2.2208 5.03884 11.0892 5.31365
61 1 -1.1104 0.8033 9.91748 1.18588
66 2 2.2208 5.1486 8.44158 2.72878
68 1 -1.1104 0.967293 10.0235 4.06757
73 2 2.2208 2.2824 11.3135 2.3473
75 2 2.2208 2.25003 8.38224 5.47642
77 1 -1.1104 3.75369 9.84159 1.47111
80 1 -1.1104 3.59079 9.80245 4.11994
107 1 -1.1104 0.905556 12.7228 0.87136
113 1 -1.1104 0.602462 12.62 3.7977
123 1 -1.1104 3.81423 12.6744 0.866796
128 1 -1.1104 3.62173 12.728 3.86129
124 1 -1.1104 3.65805 12.4617 6.54268
115 1 -1.1104 6.27757 12.5712 3.81532
108 1 -1.1104 0.643076 12.448 6.81211
64 1 -1.1104 6.78581 9.92509 1.1313
70 1 -1.1104 6.53552 9.84585 3.81291
119 2 2.2208 5.1872 14.1716 2.5898
8109 2 2.2208 8.24972 -5.46137 8.26153
110 1 -1.1104 6.40893 12.7949 1.2157
85 2 2.2208 10.5954 11.5258 5.17499
89 1 -1.1104 12.4047 9.77446 1.15731
91 2 2.2208 10.6431 8.53553 2.53798
93 1 -1.1104 12.1875 10.0662 4.09955
96 2 2.2208 7.9886 11.3912 2.41334
98 2 2.2208 7.78096 8.4266 5.34784
100 1 -1.1104 9.54018 10.0193 1.09327
103 1 -1.1104 9.31686 9.93242 3.84913
142 1 -1.1104 12.1511 12.6475 1.27276
146 1 -1.1104 11.912 12.9474 3.88844
153 1 -1.1104 9.28604 13.0328 1.05189
158 1 -1.1104 9.11107 12.7525 3.85601
90 1 -1.1104 11.9319 9.83574 6.83906
650 2 2.2208 10.7396 11.3974 -0.187485
154 1 -1.1104 9.19829 12.7285 6.54006
8117 2 2.2208 5.35351 -5.53722 -0.231506
648 2 2.2208 10.4202 5.68779 -0.431235
130 2 2.2208 2.12969 13.9165 5.38424
106 2 2.2208 5.10565 16.8246 5.30505
109 1 -1.1104 0.877949 18.2653 1.13223
114 1 -1.1104 0.765747 18.1969 3.97464
116 1 -1.1104 0.986862 15.4021 0.929513
120 2 2.2208 5.02683 19.7292 2.45574
121 1 -1.1104 0.772901 15.3746 3.91061
125 1 -1.1104 3.68842 18.3114 1.2389
127 2 2.2208 2.1129 16.7878 2.65587
129 1 -1.1104 3.58984 18.049 4.03505
131 2 2.2208 2.15543 19.57 5.38797
132 1 -1.1104 3.82051 15.2941 1.18968
134 1 -1.1104 3.69246 15.431 4.03502
302 1 -1.1104 0.668005 18.3852 6.68078
117 1 -1.1104 0.759565 15.1517 6.82991
138 1 -1.1104 6.34803 18.4291 1.02246
139 1 -1.1104 6.58059 18.3999 3.94896
625 2 2.2208 5.25925 11.2836 -0.272252
504 2 2.2208 4.95436 19.7111 13.6296
150 2 2.2208 10.7158 14.1751 2.31409
122 1 -1.1104 6.64342 15.6638 4.05195
140 1 -1.1104 6.54978 15.7766 1.28
160 2 2.2208 7.65425 13.9362 5.2942
141 2 2.2208 10.8219 16.9851 5.34012
144 1 -1.1104 12.4788 18.2561 0.98868
147 1 -1.1104 12.2507 18.3032 4.07885
148 1 -1.1104 12.1802 15.5148 0.975445
151 2 2.2208 10.94 19.6868 2.54833
152 1 -1.1104 12.215 15.6538 3.65413
155 1 -1.1104 9.50218 18.4189 1.04507
157 2 2.2208 7.92684 17.0759 2.6647
159 1 -1.1104 9.3548 18.3083 4.06873
161 2 2.2208 7.90578 19.5871 5.53179
162 1 -1.1104 9.47272 15.6139 0.886939
164 1 -1.1104 9.34521 15.2689 3.89763
112 1 -1.1104 6.21086 18.3659 6.84726
163 1 -1.1104 9.17854 15.4624 6.77952
149 1 -1.1104 12.056 15.4401 6.5889
118 1 -1.1104 6.54599 15.3383 6.89011
323 2 2.2208 5.33496 0.184032 -0.20942
330 2 2.2208 5.04092 5.85624 -0.2684
166 1 -1.1104 0.977145 -4.17179 6.82047
171 1 -1.1104 6.59961 -1.24499 6.9087
8825 2 2.2208 13.563 2.73959 -0.204342
168 1 -1.1104 6.90807 -4.20589 6.62104
172 1 -1.1104 4.04439 -3.99881 6.81717
175 2 2.2208 5.18282 0.125665 11.1281
176 1 -1.1104 1.29115 -4.18778 12.2508
180 1 -1.1104 1.1768 -4.03799 9.53721
184 1 -1.1104 1.27217 -1.57675 12.4706
186 2 2.2208 5.37057 -2.68593 8.29503
188 1 -1.1104 0.963862 -1.43198 9.69824
190 1 -1.1104 3.95094 -4.02238 12.5839
192 2 2.2208 2.24337 0.0545515 8.09877
193 1 -1.1104 4.03598 -4.02819 9.73621
195 2 2.2208 2.56634 -2.73277 11.0012
197 1 -1.1104 3.98097 -1.34104 12.4733
198 1 -1.1104 3.99734 -1.21102 9.6297
178 1 -1.1104 6.64778 -4.07858 12.3938
8107 2 2.2208 2.44841 -5.45485 8.19631
182 1 -1.1104 6.57742 -4.17633 9.43786
189 1 -1.1104 6.5923 -1.23751 9.85896
8108 2 2.2208 5.33646 -5.44713 11.007
205 1 -1.1104 12.4122 -4.01402 7.14056
210 1 -1.1104 9.45239 -1.21108 6.91027
232 1 -1.1104 9.11889 15.8048 9.81253
185 1 -1.1104 6.58393 -1.20106 12.4445
211 2 2.2208 10.9363 0.0875222 10.9643
212 1 -1.1104 11.9762 -4.10697 12.549
214 1 -1.1104 12.3777 -4.0212 9.91406
216 1 -1.1104 12.2792 -1.23515 12.4469
217 2 2.2208 10.9583 -2.66545 8.31412
219 1 -1.1104 12.2912 -1.41949 9.56511
220 1 -1.1104 9.31744 -4.10484 12.6353
222 2 2.2208 7.83852 0.0908061 8.42862
223 1 -1.1104 9.54712 -4.11218 9.7106
225 2 2.2208 8.17509 -2.83097 11.1994
227 1 -1.1104 9.37685 -1.47405 12.6006
228 1 -1.1104 9.35433 -1.46172 9.88472
373 2 2.2208 2.43906 14.1907 -0.297869
8614 2 2.2208 13.4479 14.3546 5.07496
167 1 -1.1104 0.858794 1.41647 6.83628
233 1 -1.1104 9.10096 18.4226 12.4346
236 1 -1.1104 1.05315 4.12989 6.65065
173 1 -1.1104 3.60537 1.47149 6.76348
169 1 -1.1104 6.57989 1.6737 6.72816
177 1 -1.1104 0.821684 1.15879 12.3566
181 1 -1.1104 0.832445 1.58309 9.66117
187 2 2.2208 5.04531 2.7849 8.23757
191 1 -1.1104 3.7439 1.44781 12.4871
194 1 -1.1104 3.73224 1.47076 9.64385
196 2 2.2208 2.32475 2.77495 11.0377
240 2 2.2208 5.01107 5.67753 11.0022
246 1 -1.1104 0.783924 4.14495 12.3524
251 1 -1.1104 0.896413 4.15574 9.37073
255 1 -1.1104 3.49613 6.9856 12.2955
256 2 2.2208 2.48069 5.58764 8.18282
258 1 -1.1104 3.84024 6.98309 9.45004
260 1 -1.1104 3.64616 4.13488 12.4364
262 1 -1.1104 3.67088 4.21939 9.67066
179 1 -1.1104 6.8142 1.58419 12.6723
244 1 -1.1104 1.01944 6.78917 9.60979
242 1 -1.1104 0.482103 6.91961 12.3209
235 1 -1.1104 6.57407 7.08323 6.85363
253 1 -1.1104 6.28674 4.25817 9.77531
230 2 2.2208 13.7785 -2.50696 11.1405
202 2 2.2208 7.7838 14.1037 11.0647
8651 2 2.2208 13.6043 2.84175 10.8395
237 1 -1.1104 6.61985 4.19259 6.9917
265 1 -1.1104 12.0818 7.22861 6.7947
206 1 -1.1104 12.2357 1.74009 6.89556
266 1 -1.1104 12.1426 4.47892 6.78386
8866 2 2.2208 13.4571 8.38347 -0.294125
248 1 -1.1104 6.36916 4.52459 12.4262
245 1 -1.1104 6.47049 6.94556 9.45003
183 1 -1.1104 6.53771 1.45749 9.65118
243 1 -1.1104 6.25606 7.14786 12.381
213 1 -1.1104 12.338 1.62392 12.586
215 1 -1.1104 12.0635 1.31917 9.48288
218 2 2.2208 10.716 2.94463 8.25475
221 1 -1.1104 9.46911 1.50319 12.2771
224 1 -1.1104 9.53364 1.33264 9.734
226 2 2.2208 7.76077 2.87709 10.8642
268 1 -1.1104 9.36633 4.12778 9.78214
271 1 -1.1104 9.22374 4.33885 12.4507
275 2 2.2208 7.94199 5.59578 8.24046
276 2 2.2208 10.6249 5.56734 11.1566
278 1 -1.1104 12.0638 7.05712 12.4138
279 1 -1.1104 12.0944 6.85308 9.61763
280 1 -1.1104 12.1074 4.40108 12.3609
283 1 -1.1104 12.2558 4.27399 9.58557
285 1 -1.1104 9.07001 7.15388 12.3804
273 1 -1.1104 9.23469 6.95736 9.74548
27 2 2.2208 10.8506 16.8021 10.8592
62 1 -1.1104 0.890001 9.63749 6.85103
288 1 -1.1104 6.41827 18.3356 9.48477
8814 2 2.2208 13.3126 14.0691 10.913
367 2 2.2208 7.7229 14.1451 -0.274834
78 1 -1.1104 3.66585 9.57293 6.82201
241 2 2.2208 4.90157 11.194 10.7668
247 1 -1.1104 0.837706 10.033 12.4067
250 2 2.2208 4.9938 8.3752 8.09363
252 1 -1.1104 0.763479 9.88876 9.65463
257 2 2.2208 2.03489 11.1402 8.09646
259 2 2.2208 1.9795 8.45738 11.0025
261 1 -1.1104 3.64444 9.76341 12.5086
263 1 -1.1104 3.5486 9.94638 9.4629
287 1 -1.1104 3.63607 12.3459 12.2383
294 1 -1.1104 0.903409 12.6434 9.71005
299 1 -1.1104 0.9908 12.7447 12.5297
305 1 -1.1104 3.47939 12.4044 9.51358
111 1 -1.1104 6.36617 12.5487 6.60098
290 1 -1.1104 6.24227 12.5555 9.63066
297 1 -1.1104 6.62283 12.7122 12.6667
143 1 -1.1104 12.1676 12.6165 6.65856
101 1 -1.1104 9.17049 9.94452 6.62941
65 1 -1.1104 6.35995 9.82693 6.88113
254 1 -1.1104 6.28769 9.8419 9.6468
249 1 -1.1104 6.36556 9.9934 12.4168
229 1 -1.1104 9.39578 12.6022 12.3095
264 1 -1.1104 9.20213 10.0299 9.48407
270 1 -1.1104 9.39325 9.81968 12.3117
272 2 2.2208 7.8234 8.61484 11.0618
274 2 2.2208 7.96732 11.2984 7.88037
277 2 2.2208 10.8124 11.2756 10.8187
281 1 -1.1104 12.1294 9.81251 12.5289
282 2 2.2208 10.632 8.4192 8.23131
284 1 -1.1104 12.1617 9.75249 9.49949
30 1 -1.1104 12.1064 12.6324 12.2442
50 1 -1.1104 12.0841 12.455 9.3937
51 1 -1.1104 8.92208 13.1417 9.22881
327 2 2.2208 10.9287 -0.230359 -0.182847
8516 2 2.2208 13.4994 3.04358 5.31917
313 2 2.2208 7.79601 16.8094 8.29044
52 1 -1.1104 9.51791 18.2857 9.55905
133 1 -1.1104 3.67042 15.6172 6.71468
105 2 2.2208 10.77 19.7135 8.14342
126 1 -1.1104 3.44386 18.2572 6.65407
289 1 -1.1104 6.2418 15.5596 9.65521
295 2 2.2208 4.98744 14.1026 8.12589
310 2 2.2208 2.15788 14.0768 11.0254
286 1 -1.1104 3.51458 18.2525 12.5456
291 1 -1.1104 0.848848 18.1941 9.52973
292 1 -1.1104 0.840572 15.5101 9.71021
293 2 2.2208 5.00284 19.6614 8.12172
298 1 -1.1104 0.802083 18.2351 12.442
300 2 2.2208 5.1089 16.808 11.0567
301 1 -1.1104 3.7552 18.1795 9.48538
303 2 2.2208 2.23708 16.7681 8.03645
304 1 -1.1104 3.68919 15.3591 9.45608
307 1 -1.1104 1.10252 15.5212 12.4995
308 1 -1.1104 3.60597 15.385 12.3309
309 2 2.2208 2.19024 19.4904 10.9181
204 1 -1.1104 11.7821 15.4128 9.45094
83 1 -1.1104 12.0041 15.2461 12.2519
203 2 2.2208 7.90946 19.7531 11.0451
104 2 2.2208 10.5612 14.0151 7.9934
156 1 -1.1104 9.18283 18.2477 6.86334
145 1 -1.1104 12.0238 18.3126 6.77139
306 1 -1.1104 6.5711 15.511 12.417
231 1 -1.1104 9.18992 15.6139 12.5656
296 1 -1.1104 6.24343 18.1493 12.3903
53 1 -1.1104 12.4537 18.1868 9.61121
320 2 2.2208 2.38092 19.7342 -0.396795
8110 2 2.2208 10.8199 -5.59383 11.2502
329 2 2.2208 8.11099 2.88165 -0.274285
8732 2 2.2208 13.4514 8.32257 10.9897
8727 2 2.2208 13.5027 5.7673 8.12991
8104 2 2.2208 5.2674 -5.52616 5.44193
318 2 2.2208 8.02168 19.7862 -0.312454
402 2 2.2208 4.99883 17.0109 -0.284634
165 2 2.2208 13.6096 17.0574 2.45577
199 2 2.2208 -0.373526 2.85238 8.03569
8545 2 2.2208 13.4812 8.36252 5.25817
8738 2 2.2208 -0.278406 11.4791 11.0725
81 2 2.2208 -0.446988 5.50117 5.28417
8816 2 2.2208 -0.329964 -0.0308447 -0.182993
531 2 2.2208 10.6128 13.9516 13.6018
331 2 2.2208 5.14703 0.0298766 16.7341
332 1 -1.1104 1.19937 -4.24784 18.0997
336 1 -1.1104 0.995996 -3.90838 15.36
344 1 -1.1104 1.1248 -1.31719 17.9699
346 2 2.2208 5.14087 -2.90727 19.6061
348 1 -1.1104 0.997445 -1.2275 15.0732
352 1 -1.1104 3.9161 -4.15976 17.9654
354 2 2.2208 2.42898 -0.128651 19.4419
355 1 -1.1104 3.79671 -4.2642 15.2441
359 2 2.2208 2.53992 -2.88379 16.5903
361 1 -1.1104 3.88242 -1.52157 18.0449
362 1 -1.1104 3.90502 -1.49144 15.4383
363 1 -1.1104 3.93043 -1.40724 20.7542
337 1 -1.1104 0.886839 -4.41312 20.7634
400 2 2.2208 13.5059 13.8704 16.6174
8939 2 2.2208 13.4977 11.1933 13.8242
442 2 2.2208 2.16339 11.304 13.927
626 2 2.2208 7.95013 16.8603 25.2251
340 1 -1.1104 6.68893 -4.21868 15.4242
334 1 -1.1104 6.73456 -4.01926 18.1952
350 1 -1.1104 6.43837 -1.23927 15.2311
345 1 -1.1104 6.59966 -1.29593 18.0422
374 2 2.2208 11.0864 0.142443 16.7928
375 1 -1.1104 12.4438 -4.10797 18.4239
377 1 -1.1104 12.484 -4.2377 15.4025
381 1 -1.1104 12.4775 -1.33559 18.1402
382 2 2.2208 11.0178 -2.6083 19.6435
384 1 -1.1104 12.1578 -1.45701 15.3485
386 1 -1.1104 9.44419 -4.00342 18.0751
388 2 2.2208 8.00383 -0.110864 19.531
389 1 -1.1104 9.63835 -3.9944 15.3461
393 2 2.2208 8.02774 -2.81511 16.6412
395 1 -1.1104 9.63669 -1.04603 18.2931
396 1 -1.1104 9.35108 -1.33287 15.3664
341 1 -1.1104 6.66495 -4.18165 20.9185
398 2 2.2208 10.7162 16.9551 27.7656
399 2 2.2208 13.4717 19.5773 16.5135
8168 2 2.2208 8.19513 -5.38246 25.1124
333 1 -1.1104 1.05342 1.47689 17.8802
338 1 -1.1104 1.23611 1.59103 15.0358
347 2 2.2208 5.30941 2.86663 19.4587
353 1 -1.1104 3.96817 1.5341 18.0824
357 1 -1.1104 3.85062 1.31266 15.3548
360 2 2.2208 2.48508 2.85669 16.6571
407 2 2.2208 5.22288 5.59308 16.7573
411 1 -1.1104 0.927948 7.17566 15.1764
415 1 -1.1104 1.12634 4.05341 18.068
420 1 -1.1104 0.934324 4.41423 15.1588
429 2 2.2208 2.45316 5.61103 19.5146
431 1 -1.1104 3.57296 7.0333 15.3259
434 1 -1.1104 4.01074 4.19898 18.2107
436 1 -1.1104 3.68213 4.24502 15.2347
409 1 -1.1104 0.974897 6.86684 18.1616
342 1 -1.1104 6.71834 1.66799 15.3893
428 1 -1.1104 3.67194 6.87637 18.2081
437 1 -1.1104 3.97093 4.21563 20.9191
339 1 -1.1104 0.8835 1.42706 20.8414
432 1 -1.1104 3.69297 6.92498 20.891
413 1 -1.1104 6.51021 7.10865 15.0227
425 1 -1.1104 6.87376 4.10661 20.7168
468 2 2.2208 10.8294 8.37623 13.8638
335 1 -1.1104 6.73053 1.33068 18.2801
417 1 -1.1104 6.66746 4.30879 18.0061
424 1 -1.1104 6.56634 4.31612 15.1995
410 1 -1.1104 6.47729 7.21072 18.0223
376 1 -1.1104 12.4322 1.4757 18.1968
379 1 -1.1104 12.506 1.41904 15.3625
383 2 2.2208 10.9658 2.87388 19.4639
387 1 -1.1104 9.52186 1.63996 17.9469
391 1 -1.1104 9.59787 1.65194 15.2431
394 2 2.2208 8.02684 2.93851 16.6626
443 2 2.2208 10.9059 5.63002 16.4706
448 1 -1.1104 12.2651 4.19306 17.9842
451 1 -1.1104 12.4055 4.20361 15.2326
456 2 2.2208 8.01777 5.78683 19.3868
461 1 -1.1104 9.43396 4.55205 18.142
463 1 -1.1104 9.41471 4.33496 15.1574
446 1 -1.1104 12.2752 6.95773 15.1877
458 1 -1.1104 9.53436 7.32286 15.3039
455 1 -1.1104 9.23966 7.26839 18.0081
445 1 -1.1104 12.21 7.03108 17.9612
447 1 -1.1104 12.1441 7.14326 20.7036
459 1 -1.1104 9.34811 6.91703 20.8074
452 1 -1.1104 12.3985 4.42256 20.8178
464 1 -1.1104 9.81457 4.02556 21.1679
392 1 -1.1104 9.42018 1.41714 20.7567
317 2 2.2208 5.20592 2.90639 14.0106
408 2 2.2208 5.12265 11.3346 16.667
416 1 -1.1104 0.964311 9.77147 17.9216
419 2 2.2208 5.14822 8.40162 19.2798
422 1 -1.1104 1.04487 9.92921 15.4123
430 2 2.2208 2.35602 11.242 19.2265
433 2 2.2208 2.44212 8.35333 16.6816
435 1 -1.1104 3.89589 9.74879 18.1148
438 1 -1.1104 3.77063 9.92523 15.3034
471 1 -1.1104 1.04898 12.7003 18.1299
475 1 -1.1104 0.8176 12.7378 15.3957
491 1 -1.1104 3.86139 12.4716 18.1529
494 1 -1.1104 3.78691 12.6641 15.2353
423 1 -1.1104 0.967722 9.79256 20.7488
439 1 -1.1104 3.80696 9.64418 20.9908
418 1 -1.1104 6.59149 9.75985 17.8995
479 1 -1.1104 6.41442 12.6765 15.2602
495 1 -1.1104 3.66373 12.4575 20.9501
473 1 -1.1104 6.71956 12.7476 17.9237
426 1 -1.1104 6.52125 9.91276 15.2786
427 1 -1.1104 6.53252 9.90509 20.8643
315 2 2.2208 5.16786 -2.66337 13.8143
476 1 -1.1104 0.766471 12.6722 20.7905
444 2 2.2208 10.8875 11.1902 16.7118
449 1 -1.1104 12.2063 9.71851 18.0643
450 2 2.2208 10.7556 8.45681 19.502
453 1 -1.1104 12.1983 9.6967 15.3844
457 2 2.2208 7.908 11.211 19.3435
460 2 2.2208 7.90922 8.45264 16.5168
462 1 -1.1104 9.58063 9.91415 17.827
465 1 -1.1104 9.33886 10.0376 15.2422
507 1 -1.1104 12.2673 12.4006 18.102
509 1 -1.1104 12.0592 12.5244 15.3221
518 1 -1.1104 9.38094 12.6009 17.9704
521 1 -1.1104 9.35681 12.7006 15.2012
454 1 -1.1104 12.0661 9.75443 20.9575
522 1 -1.1104 9.37422 12.5741 20.8203
525 2 2.2208 7.94626 14.0621 16.4381
480 1 -1.1104 6.4281 12.6 20.8044
485 2 2.2208 5.12192 14.1895 19.3811
498 2 2.2208 2.26043 14.293 16.4838
470 2 2.2208 5.30954 16.7816 16.4929
472 1 -1.1104 0.840828 18.2275 18.2874
477 1 -1.1104 0.830019 18.4279 15.3552
483 1 -1.1104 0.733893 15.4011 17.9427
486 2 2.2208 5.15027 19.6802 19.3083
487 1 -1.1104 0.839697 15.5326 15.3199
492 1 -1.1104 3.79134 18.1378 18.1043
493 2 2.2208 2.34617 16.8095 19.6661
496 1 -1.1104 3.51767 18.0981 15.3604
499 2 2.2208 2.32801 19.584 16.6809
500 1 -1.1104 3.70907 15.299 18.2531
501 1 -1.1104 3.85939 15.3817 15.3805
478 1 -1.1104 1.04493 18.2347 20.9705
481 1 -1.1104 6.53825 18.309 15.017
489 1 -1.1104 6.7189 15.4494 14.9772
484 1 -1.1104 6.60786 15.5266 17.8093
474 1 -1.1104 6.6578 18.2362 18.1034
482 1 -1.1104 6.54016 18.6808 20.9046
8821 2 2.2208 13.6018 19.7737 27.8142
403 2 2.2208 -0.422523 8.58874 19.4082
505 2 2.2208 5.13652 13.9314 13.7388
514 2 2.2208 10.866 13.8326 19.5101
506 2 2.2208 10.8567 16.8207 16.5496
508 1 -1.1104 12.2792 18.2596 17.8951
511 1 -1.1104 12.2407 18.1531 15.1571
513 1 -1.1104 12.3091 15.4625 17.9137
515 2 2.2208 10.8974 19.7447 19.2667
516 1 -1.1104 12.1694 15.3167 15.1581
519 1 -1.1104 9.53559 18.4453 17.9654
520 2 2.2208 8.21917 16.9162 19.301
523 1 -1.1104 9.44375 18.5313 15.1728
526 2 2.2208 7.9405 19.6207 16.5454
527 1 -1.1104 9.50947 15.5068 18.0341
528 1 -1.1104 9.36794 15.6706 15.3001
529 1 -1.1104 9.40183 15.3483 20.5795
517 1 -1.1104 12.2675 15.2735 20.7835
512 1 -1.1104 11.9933 18.1913 20.6302
440 2 2.2208 2.38027 5.75272 13.7301
532 2 2.2208 7.88669 16.9318 13.7767
316 2 2.2208 2.40168 0.126672 13.7279
349 1 -1.1104 1.01499 -1.76574 20.9202
356 1 -1.1104 3.67033 -4.31072 20.8856
351 1 -1.1104 6.90758 -1.37589 21.1635
534 2 2.2208 5.14695 0.123906 22.4825
535 1 -1.1104 0.79647 -4.23497 23.7505
539 1 -1.1104 1.17522 -4.34048 26.7046
543 1 -1.1104 1.05693 -1.34872 23.722
545 2 2.2208 5.20178 -2.76834 25.417
547 1 -1.1104 0.900875 -1.50356 26.5089
549 1 -1.1104 3.77572 -4.00963 23.7035
551 2 2.2208 2.44991 0.11371 25.1813
552 1 -1.1104 3.85151 -4.25236 26.6628
554 2 2.2208 2.34905 -3.01083 22.2511
556 1 -1.1104 3.83504 -1.39013 23.6261
557 1 -1.1104 3.76515 -1.30237 26.6724
548 1 -1.1104 6.57429 -1.1938 26.7406
541 1 -1.1104 6.77588 -4.08944 26.5925
537 1 -1.1104 6.59003 -4.1971 23.7279
629 1 -1.1104 9.34503 18.2099 26.4349
503 2 2.2208 2.37284 16.7961 13.8801
569 1 -1.1104 12.1752 15.2992 23.6986
378 1 -1.1104 12.291 -4.04064 21.2585
390 1 -1.1104 9.64194 -4.04421 20.819
397 1 -1.1104 9.65187 -1.38337 21.0179
385 1 -1.1104 12.5834 -1.23595 21.0697
544 1 -1.1104 6.63935 -1.49419 23.9232
570 2 2.2208 10.8263 0.0651159 22.2454
571 1 -1.1104 12.3511 -4.10817 23.7033
573 1 -1.1104 12.4634 -4.04139 26.5906
575 1 -1.1104 12.2204 -1.35462 23.7566
576 2 2.2208 11.0371 -2.74058 25.0255
578 1 -1.1104 12.4584 -1.35782 26.582
579 1 -1.1104 9.37454 -4.17343 23.62
581 2 2.2208 8.08641 0.0268127 25.0292
582 1 -1.1104 9.81728 -4.27243 26.3855
584 2 2.2208 8.13557 -2.68887 22.4688
586 1 -1.1104 9.67864 -1.32526 24.1686
587 1 -1.1104 9.5447 -1.55262 26.6884
8119 2 2.2208 8.07921 -5.38242 13.7571
9078 2 2.2208 13.6463 0.0247615 25.1326
358 1 -1.1104 3.79811 1.48176 21.17
412 1 -1.1104 0.89525 7.15739 21.0585
421 1 -1.1104 1.00904 4.10914 20.9543
414 1 -1.1104 6.34883 7.04063 20.7848
563 2 2.2208 13.6653 11.185 19.5329
536 1 -1.1104 1.15009 1.588 23.7623
540 1 -1.1104 0.80185 1.54097 26.6162
546 2 2.2208 5.12948 2.93718 25.3309
550 1 -1.1104 3.87373 1.52365 23.8262
553 1 -1.1104 3.7728 1.31313 26.7202
555 2 2.2208 2.52648 2.97454 22.3636
599 2 2.2208 5.18865 5.76 22.2184
605 1 -1.1104 1.09484 4.14406 23.8361
610 1 -1.1104 0.552971 4.45447 26.3935
614 1 -1.1104 3.6108 6.98516 23.7526
615 2 2.2208 1.95133 5.81707 25.1284
619 1 -1.1104 3.99746 4.37576 23.5241
621 1 -1.1104 3.58714 4.23067 26.6627
603 1 -1.1104 0.600829 7.23483 26.721
601 1 -1.1104 0.841584 7.16712 23.921
542 1 -1.1104 6.47004 1.64034 26.6935
617 1 -1.1104 3.31562 7.08684 26.713
607 1 -1.1104 6.6709 4.50522 23.2598
538 1 -1.1104 6.57412 1.39097 23.923
604 1 -1.1104 6.58982 7.18886 26.657
602 1 -1.1104 6.54406 7.05607 23.9126
380 1 -1.1104 12.1056 1.31673 20.8179
612 1 -1.1104 6.68167 4.31774 26.3604
343 1 -1.1104 6.62596 1.27541 21.1149
572 1 -1.1104 12.1432 1.46673 23.5461
574 1 -1.1104 12.2314 1.48912 26.3896
577 2 2.2208 10.8131 2.73904 25.1078
580 1 -1.1104 9.25548 1.51523 23.7174
583 1 -1.1104 9.35285 1.28774 26.5978
585 2 2.2208 8.01801 2.78735 22.3352
631 1 -1.1104 9.34997 4.26591 26.4734
633 1 -1.1104 9.24232 4.08959 23.7752
635 1 -1.1104 9.18576 7.14385 26.4007
637 2 2.2208 8.01022 5.59754 24.9617
638 2 2.2208 10.9352 5.75013 22.1959
640 1 -1.1104 12.361 7.03798 23.6304
641 1 -1.1104 11.9589 7.02276 26.3552
642 1 -1.1104 12.044 4.27366 23.8002
645 1 -1.1104 12.146 4.18605 26.4937
647 1 -1.1104 9.43678 7.02848 23.6461
596 1 -1.1104 12.0933 15.375 26.4473
469 2 2.2208 7.76519 11.2432 13.9577
441 2 2.2208 5.02155 8.50887 13.8834
8860 2 2.2208 13.528 5.56777 25.1458
8209 2 2.2208 5.21148 -5.50503 22.4842
600 2 2.2208 5.07985 11.183 22.2029
606 1 -1.1104 0.628042 9.86147 23.6905
609 2 2.2208 5.17921 8.53729 25.2259
611 1 -1.1104 0.870111 9.83215 26.6024
616 2 2.2208 2.34168 11.2673 25.0074
618 2 2.2208 2.29223 8.42103 22.488
620 1 -1.1104 3.47068 9.85255 23.9239
622 1 -1.1104 3.93176 9.86922 26.8374
560 1 -1.1104 3.67316 12.7231 26.3892
623 1 -1.1104 0.756437 12.5943 23.5906
656 1 -1.1104 3.87497 12.6496 23.6514
660 1 -1.1104 1.06095 12.6887 26.4088
613 1 -1.1104 6.63159 10.0639 26.3669
655 1 -1.1104 6.51942 12.7754 26.5451
664 1 -1.1104 6.71138 12.861 23.7841
663 2 2.2208 5.07564 14.1248 25.0341
404 2 2.2208 2.35365 13.8642 22.1915
365 2 2.2208 13.5407 8.4902 22.2184
530 2 2.2208 10.7829 19.6486 13.7065
510 1 -1.1104 12.2915 12.4254 20.8892
466 1 -1.1104 9.28757 9.72622 20.6871
467 2 2.2208 7.80948 5.73455 13.7917
608 1 -1.1104 6.38586 9.89782 23.5729
628 1 -1.1104 9.47627 12.6561 26.5265
630 1 -1.1104 9.5291 10.013 26.5549
632 1 -1.1104 9.32956 9.94922 23.5302
634 2 2.2208 7.94592 8.4091 22.3318
636 2 2.2208 7.94171 11.4305 25.0153
639 2 2.2208 10.721 11.1545 22.2165
643 1 -1.1104 12.0116 9.73817 23.742
644 2 2.2208 10.669 8.47098 24.9214
646 1 -1.1104 12.3183 9.59539 26.5107
597 1 -1.1104 9.5283 12.5733 23.6066
561 1 -1.1104 12.5517 12.6382 23.7903
566 1 -1.1104 12.099 12.6089 26.7761
651 2 2.2208 7.96535 13.9117 22.1327
488 1 -1.1104 0.744692 15.5234 20.674
497 1 -1.1104 3.65328 18.243 20.8557
502 1 -1.1104 3.65773 15.2239 21.0438
591 2 2.2208 10.7238 14.0717 25.0973
322 2 2.2208 10.9165 2.80581 13.8156
321 2 2.2208 10.7612 -2.5935 13.944
657 1 -1.1104 6.35993 15.3383 26.4183
661 1 -1.1104 6.2157 17.9516 24.0057
665 1 -1.1104 0.971202 18.3125 23.7302
405 2 2.2208 2.22045 19.7051 22.1527
406 1 -1.1104 3.60173 15.5536 23.8155
558 1 -1.1104 0.826832 15.3318 23.4283
565 1 -1.1104 3.6733 15.4379 26.4587
588 2 2.2208 2.27458 16.8071 25.1983
589 1 -1.1104 3.66698 18.1715 26.4607
590 2 2.2208 5.10436 16.8653 22.3623
654 1 -1.1104 3.67281 18.3687 23.5489
658 1 -1.1104 0.991447 18.3445 26.5461
659 1 -1.1104 0.796357 15.4431 26.3809
662 2 2.2208 5.23036 19.6494 24.9535
627 1 -1.1104 6.64616 18.3075 26.4126
559 1 -1.1104 6.56498 15.3091 23.1999
364 2 2.2208 13.5067 16.8272 25.0188
568 2 2.2208 -0.401482 -0.033318 22.2816
326 2 2.2208 -0.331849 2.81431 13.9007
567 1 -1.1104 12.1102 18.3246 26.2977
595 2 2.2208 10.4991 19.7032 24.7375
653 1 -1.1104 9.32023 15.5513 23.6776
533 2 2.2208 10.7187 16.9014 22.0959
524 1 -1.1104 9.26113 18.4071 20.6337
490 1 -1.1104 6.50004 15.7258 20.4555
652 2 2.2208 7.98809 19.8987 22.0394
598 1 -1.1104 9.00543 18.5572 23.6963
372 1 -1.1104 9.18567 15.4946 26.43
8906 2 2.2208 13.6143 13.9715 22.2852
562 1 -1.1104 12.2493 17.9624 23.346
319 2 2.2208 8.1769 0.137435 13.7948
8282 2 2.2208 8.09604 -5.38775 19.4011
9007 2 2.2208 13.6675 16.6635 19.2972
8865 2 2.2208 13.5517 19.6971 22.1435
368 2 2.2208 -0.463839 -2.73717 19.3599
401 2 2.2208 -0.43322 5.69766 16.6269
8942 2 2.2208 -0.354468 11.3082 16.7672
8819 2 2.2208 13.609 0.0658704 13.8416
592 2 2.2208 -0.295988 2.87566 19.3792
366 2 2.2208 13.509 2.90238 22.2542
564 2 2.2208 13.4841 5.6099 19.3198
8934 2 2.2208 13.5352 5.50199 13.8054
8905 2 2.2208 -0.181921 0.223474 16.4697
314 2 2.2208 -0.228621 -2.58672 13.7943
8862 2 2.2208 13.7388 16.627 13.8528
666 2 2.2208 4.9963 22.4095 5.26642
668 1 -1.1104 0.912055 23.62 1.13416
669 1 -1.1104 0.732672 24.0663 3.78101
670 1 -1.1104 0.838472 20.966 0.93273
672 2 2.2208 5.11913 25.2433 2.49167
673 1 -1.1104 0.771203 21.0351 3.96683
675 1 -1.1104 3.84693 23.9378 1.04292
676 2 2.2208 2.25564 22.4829 2.46526
678 1 -1.1104 3.65562 23.8901 3.9031
679 2 2.2208 2.20274 25.4898 5.30509
680 1 -1.1104 3.73355 20.9272 0.898594
682 1 -1.1104 3.59393 21.3621 3.78112
674 1 -1.1104 0.995396 26.8102 3.8478
681 1 -1.1104 3.69439 26.5939 0.900777
815 1 -1.1104 3.66609 26.6266 6.72706
671 1 -1.1104 1.00064 26.5564 1.06281
687 1 -1.1104 6.65524 24.0386 1.10078
813 1 -1.1104 3.56792 23.8475 6.65572
689 1 -1.1104 6.6223 21.2055 0.987151
688 1 -1.1104 6.39636 23.7402 3.88235
690 1 -1.1104 6.42408 26.8736 0.936135
683 1 -1.1104 3.76135 26.7291 3.75474
807 1 -1.1104 1.00043 23.9455 6.64533
810 1 -1.1104 0.696002 26.6431 6.62575
1568 1 -1.1104 3.87117 46.7335 9.29747
1599 1 -1.1104 9.60281 46.6521 9.52168
1549 1 -1.1104 3.74939 46.1979 6.56884
691 1 -1.1104 6.32221 20.9981 3.80369
693 2 2.2208 10.7266 22.507 5.40583
695 1 -1.1104 12.3437 23.8383 1.32432
696 1 -1.1104 12.1967 23.9007 3.98226
697 1 -1.1104 11.983 20.9073 0.93115
699 2 2.2208 10.7532 25.3642 2.59598
700 1 -1.1104 12.3429 20.9459 3.6781
702 1 -1.1104 9.51681 23.7723 1.01915
703 2 2.2208 7.84954 22.488 2.53315
705 1 -1.1104 9.21267 23.9277 3.86919
706 2 2.2208 7.97025 25.4707 5.29418
707 1 -1.1104 9.19494 20.9516 1.00021
709 1 -1.1104 9.37868 20.9655 4.03271
701 1 -1.1104 12.176 26.7822 3.85055
710 1 -1.1104 9.23447 26.7478 3.9297
708 1 -1.1104 9.41799 26.5647 1.04111
698 1 -1.1104 12.2518 26.6326 1.08098
692 1 -1.1104 6.55708 26.754 3.65925
1351 1 -1.1104 1.17107 46.4602 0.693026
1551 1 -1.1104 0.96639 46.2892 12.3189
667 2 2.2208 5.14782 28.0958 5.08333
677 2 2.2208 2.42545 28.076 2.41828
715 1 -1.1104 0.815839 29.3782 0.90452
718 1 -1.1104 1.31332 29.514 3.72987
721 1 -1.1104 0.791908 32.1377 0.94729
722 2 2.2208 5.07028 31.1129 2.29373
724 1 -1.1104 0.828893 32.3251 3.88497
726 1 -1.1104 3.83374 29.5525 1.11358
729 1 -1.1104 4.0442 29.4883 3.70646
731 2 2.2208 2.37097 31.0897 5.3046
733 1 -1.1104 3.55122 32.4244 0.944843
734 1 -1.1104 3.68531 32.2698 3.72109
740 1 -1.1104 6.32466 32.4933 1.07827
738 1 -1.1104 6.65037 29.8047 0.947947
725 1 -1.1104 6.54423 32.2863 3.77214
739 1 -1.1104 6.73225 29.4992 3.95306
869 1 -1.1104 6.70585 32.0953 6.55394
785 1 -1.1104 12.1774 40.7618 9.18055
1586 1 -1.1104 12.3731 46.484 12.2015
694 2 2.2208 10.7799 28.1181 5.11831
704 2 2.2208 7.97572 28.1239 2.34538
742 1 -1.1104 12.0161 29.638 0.855526
744 1 -1.1104 12.1137 29.511 3.61444
746 1 -1.1104 11.9365 32.5087 0.951274
747 2 2.2208 10.6775 31.0429 2.29707
749 1 -1.1104 12.2571 32.1702 3.67573
750 1 -1.1104 9.24642 29.4203 0.803514
753 1 -1.1104 9.56768 29.3279 3.61102
755 2 2.2208 8.06336 30.8458 5.14541
757 1 -1.1104 9.31804 32.3504 0.793411
758 1 -1.1104 9.42372 32.237 3.64229
900 1 -1.1104 12.3724 32.3271 6.49974
903 1 -1.1104 9.59949 32.1095 6.54287
901 1 -1.1104 9.21842 29.3675 6.75906
9507 2 2.2208 13.5914 39.3032 13.6241
1004 2 2.2208 5.01305 33.6681 -0.512397
728 2 2.2208 2.15328 33.7815 2.47961
714 2 2.2208 5.31297 33.6079 5.13564
716 1 -1.1104 0.942408 35.1201 1.02303
719 1 -1.1104 0.889022 35.0656 3.77998
723 2 2.2208 5.26319 36.4519 2.32171
727 1 -1.1104 3.60753 35.2469 1.13755
730 1 -1.1104 3.77271 35.068 3.98809
732 2 2.2208 2.31958 36.4566 5.3284
760 2 2.2208 5.09999 39.3733 5.10114
766 1 -1.1104 0.856976 38.0757 0.960095
771 1 -1.1104 1.01271 37.9064 3.83414
780 1 -1.1104 3.73835 38.0834 0.855265
782 1 -1.1104 3.91028 37.8753 3.63286
776 2 2.2208 2.42694 39.3179 2.55842
720 1 -1.1104 6.39455 35.1991 3.79135
768 1 -1.1104 6.62526 37.8764 0.606343
1396 1 -1.1104 12.295 46.243 3.86453
713 2 2.2208 13.5819 25.2741 5.40753
9401 2 2.2208 13.592 30.757 10.8247