ITEM: TIMESTEP
20000
ITEM: NUMBER OF ATOMS
17760
ITEM: BOX BOUNDS pp pp pp
-4.3883350863180476e-01 2.7778833508631813e+01
-5.5277002820086798e+00 3.3360770028201529e+02
-4.4509576823747216e-01 2.7785095768237344e+01
ITEM: ATOMS id type q x y z
1 2 2.2208 5.29887 -0.344956 4.93074
2 1 -1.1104 0.939548 -4.11899 0.803149
6 1 -1.1104 0.82832 -4.3294 3.78759
10 1 -1.1104 0.978221 -1.38629 0.835723
12 2 2.2208 5.29548 -2.91561 2.31453
14 1 -1.1104 0.885853 -1.48823 3.77179
16 1 -1.1104 3.69002 -4.26265 1.06127
18 2 2.2208 2.3587 0.104025 2.25355
19 1 -1.1104 3.69101 -4.19231 3.75808
21 2 2.2208 2.20272 -2.83321 5.20418
23 1 -1.1104 3.88792 -1.23826 0.772885
24 1 -1.1104 3.36601 -1.36464 3.70586
8 1 -1.1104 6.68659 -4.36888 3.72991
11 1 -1.1104 6.63851 -1.25287 0.993077
15 1 -1.1104 6.56585 -1.78422 3.92026
4 1 -1.1104 6.59901 -3.9859 0.777964
166 1 -1.1104 0.804464 -4.28232 6.68994
441 2 2.2208 5.21022 8.38706 13.6601
171 1 -1.1104 6.51821 -1.46074 6.59421
8727 2 2.2208 13.5447 5.64802 8.03922
25 2 2.2208 13.5808 16.8882 8.01341
31 2 2.2208 10.8315 0.18429 5.14103
32 1 -1.1104 12.0226 -4.17889 0.983262
34 1 -1.1104 12.0988 -4.13892 3.84136
36 1 -1.1104 12.1901 -1.32262 0.997844
37 2 2.2208 10.6681 -2.74192 2.51279
39 1 -1.1104 12.32 -1.47687 3.81458
40 1 -1.1104 9.32501 -3.97875 1.08416
42 2 2.2208 8.06303 0.0919462 2.29655
43 1 -1.1104 9.33632 -4.17587 3.89911
45 2 2.2208 8.05082 -2.90724 5.39038
47 1 -1.1104 9.36402 -1.31709 0.765009
48 1 -1.1104 9.1353 -1.22311 3.87095
8934 2 2.2208 13.7185 5.39367 13.6814
469 2 2.2208 8.15758 11.3722 13.3876
135 2 2.2208 -0.377687 14.2221 2.43967
311 2 2.2208 -0.452978 19.6673 7.89756
205 1 -1.1104 12.1937 -4.22852 6.46136
320 2 2.2208 2.16335 19.7614 -0.430167
503 2 2.2208 2.41899 16.9361 13.583
3 1 -1.1104 0.823608 1.36534 1.24796
7 1 -1.1104 1.07591 1.2987 3.86248
13 2 2.2208 5.17877 2.7791 2.47714
17 1 -1.1104 3.71061 1.48178 1.09049
20 1 -1.1104 3.85199 1.3946 3.84532
22 2 2.2208 2.38706 2.68675 5.16505
54 2 2.2208 5.09075 5.52484 5.05447
56 1 -1.1104 1.13706 6.97632 0.874417
58 1 -1.1104 0.822671 7.10882 3.87258
60 1 -1.1104 0.820409 4.29041 0.969339
67 1 -1.1104 0.899236 4.0413 3.9245
71 1 -1.1104 3.81616 7.1715 1.06202
72 2 2.2208 2.21912 5.63047 2.38811
74 1 -1.1104 3.96109 7.01846 3.71742
76 1 -1.1104 3.54971 4.4443 1.05054
79 1 -1.1104 3.75264 4.19554 3.65944
238 1 -1.1104 3.78083 6.8943 6.34749
5 1 -1.1104 6.75015 1.5119 0.931512
69 1 -1.1104 6.52747 4.0323 3.88238
59 1 -1.1104 6.53731 7.12655 3.72787
239 1 -1.1104 3.55143 4.16556 6.63472
9 1 -1.1104 6.61268 1.18109 3.75593
235 1 -1.1104 6.56227 7.03278 6.35739
57 1 -1.1104 6.59316 7.10222 0.987644
169 1 -1.1104 6.52074 1.32578 6.45672
236 1 -1.1104 0.881412 4.26165 6.77099
49 1 -1.1104 12.1999 18.5023 12.3551
468 2 2.2208 10.7322 8.57716 13.4153
316 2 2.2208 2.54916 0.00467453 13.5984
63 1 -1.1104 6.71504 4.21485 0.990153
33 1 -1.1104 12.3666 1.61334 0.937622
35 1 -1.1104 12.182 1.28197 3.69893
38 2 2.2208 10.7463 2.8363 2.26078
41 1 -1.1104 9.43876 1.44382 0.968417
44 1 -1.1104 9.29792 1.77686 3.69889
46 2 2.2208 7.89353 2.84058 5.14516
84 2 2.2208 10.8524 5.9132 5.15221
87 1 -1.1104 12.0719 7.36072 3.69544
88 1 -1.1104 12.1681 4.31042 1.03785
92 1 -1.1104 12.3291 4.46546 3.84175
94 1 -1.1104 9.36874 7.02799 1.04022
95 2 2.2208 7.80687 5.67315 2.44092
97 1 -1.1104 9.16801 7.32505 3.57423
99 1 -1.1104 9.37428 4.15021 0.939453
102 1 -1.1104 9.43755 4.28529 3.74636
86 1 -1.1104 12.1968 7.13445 0.919564
267 1 -1.1104 9.49697 7.34257 6.33982
206 1 -1.1104 12.1999 1.29599 6.63016
266 1 -1.1104 12.1042 4.1198 6.5444
209 1 -1.1104 9.41105 1.53944 6.47261
55 2 2.2208 5.21427 11.3772 5.23289
61 1 -1.1104 1.12272 9.77222 1.04806
66 2 2.2208 5.16127 8.65871 2.32733
68 1 -1.1104 1.10257 10.042 3.90642
73 2 2.2208 2.40926 11.289 2.5828
75 2 2.2208 2.36206 8.51939 5.22543
77 1 -1.1104 3.70804 9.94768 0.862005
80 1 -1.1104 3.77671 10.0055 3.89384
107 1 -1.1104 1.0609 12.696 1.01865
113 1 -1.1104 0.87255 12.6599 3.73176
123 1 -1.1104 3.73849 13.0235 1.00272
128 1 -1.1104 3.91519 12.732 3.98389
124 1 -1.1104 3.86286 12.6054 6.5684
70 1 -1.1104 6.38117 10.1076 3.60331
110 1 -1.1104 6.52031 12.7973 0.971278
115 1 -1.1104 6.62825 13.0588 3.67717
64 1 -1.1104 6.45137 10.1545 0.814138
532 2 2.2208 7.84004 17.0995 13.5732
78 1 -1.1104 3.8893 9.93407 6.62681
65 1 -1.1104 6.71395 9.99147 6.46625
85 2 2.2208 10.8222 11.4754 5.16138
89 1 -1.1104 12.1179 10.0194 0.652858
91 2 2.2208 10.6757 8.49435 2.25074
93 1 -1.1104 11.8061 9.9625 3.92086
96 2 2.2208 7.81493 11.486 2.33271
98 2 2.2208 7.98598 8.55075 5.09147
100 1 -1.1104 9.30079 9.78614 1.0961
103 1 -1.1104 9.03226 10.2476 3.85733
142 1 -1.1104 12.1763 12.8578 0.685563
146 1 -1.1104 12.1827 12.5192 3.64504
153 1 -1.1104 9.37761 12.6762 0.967868
158 1 -1.1104 9.43095 12.9222 3.82312
101 1 -1.1104 9.54116 10.1727 6.74486
8939 2 2.2208 13.6443 11.3608 13.643
8516 2 2.2208 13.3964 2.93398 5.06061
160 2 2.2208 7.96078 14.2379 5.17507
53 1 -1.1104 12.1676 18.1952 9.29654
90 1 -1.1104 12.4521 9.82485 6.5115
143 1 -1.1104 12.3867 12.6408 6.38753
330 2 2.2208 5.19854 5.67518 -0.340887
119 2 2.2208 5.20276 14.1775 2.37681
130 2 2.2208 2.52886 14.0899 5.2597
106 2 2.2208 5.30014 16.9981 5.19889
109 1 -1.1104 0.808943 18.4974 1.00836
114 1 -1.1104 1.13723 18.3779 3.80401
116 1 -1.1104 0.857804 15.5522 1.01075
120 2 2.2208 5.16978 19.8256 2.30496
121 1 -1.1104 0.928198 15.5935 3.71178
125 1 -1.1104 3.73347 18.3973 1.02301
127 2 2.2208 2.37426 16.8724 2.34423
129 1 -1.1104 3.87814 18.2973 3.74375
131 2 2.2208 2.40417 19.7527 5.16259
132 1 -1.1104 3.81182 15.5897 0.910677
134 1 -1.1104 3.68194 15.3441 3.78927
122 1 -1.1104 6.61262 15.7947 3.87771
138 1 -1.1104 6.48852 18.3867 0.872045
140 1 -1.1104 6.44498 15.601 0.971841
118 1 -1.1104 6.74078 15.8252 6.65456
139 1 -1.1104 6.71924 18.472 3.77706
117 1 -1.1104 1.1578 15.4292 6.53366
133 1 -1.1104 3.73531 15.617 6.6473
137 2 2.2208 -0.301997 16.9744 5.10643
649 2 2.2208 8.03157 8.64178 -0.35905
313 2 2.2208 7.99997 17.1988 8.10033
8114 2 2.2208 10.6778 -5.45207 -0.339869
150 2 2.2208 10.9564 13.9991 2.32963
141 2 2.2208 10.7429 17.0403 5.20194
144 1 -1.1104 12.2774 18.4438 0.904392
147 1 -1.1104 12.2292 18.567 3.81163
148 1 -1.1104 11.9759 15.624 1.00769
151 2 2.2208 10.8052 19.8411 2.17823
152 1 -1.1104 12.2428 15.5108 3.51863
155 1 -1.1104 9.06197 18.3719 0.934112
157 2 2.2208 7.94517 16.9122 2.15328
159 1 -1.1104 9.57782 18.6661 3.84386
161 2 2.2208 7.93121 19.7921 4.85988
162 1 -1.1104 9.18023 15.6401 0.708465
164 1 -1.1104 9.28597 15.7638 3.69719
8593 2 2.2208 13.4918 19.6256 5.17401
145 1 -1.1104 12.1702 18.1741 6.67477
8676 2 2.2208 -0.387052 11.1924 5.20373
531 2 2.2208 10.7907 14.2541 13.5201
170 1 -1.1104 0.842426 -1.28456 6.51422
168 1 -1.1104 6.66899 -4.23392 6.96574
174 1 -1.1104 3.87406 -1.83563 6.66011
172 1 -1.1104 3.82156 -4.49323 6.77848
175 2 2.2208 5.35819 0.249107 10.7997
176 1 -1.1104 0.920205 -4.35771 12.1882
180 1 -1.1104 1.19462 -4.19977 9.46288
184 1 -1.1104 1.03658 -1.50503 12.0633
186 2 2.2208 5.07766 -2.85263 8.22763
188 1 -1.1104 0.995586 -1.4724 9.32991
190 1 -1.1104 3.62477 -4.16894 12.523
192 2 2.2208 2.30186 -0.0753799 7.96718
193 1 -1.1104 3.87989 -4.31327 9.78821
195 2 2.2208 2.49425 -2.80905 10.9142
197 1 -1.1104 3.83667 -1.29523 12.2844
198 1 -1.1104 3.73585 -1.25179 9.35313
182 1 -1.1104 6.5501 -4.21467 9.70847
189 1 -1.1104 6.5812 -1.3364 9.36667
178 1 -1.1104 6.46352 -4.17684 12.3379
8711 2 2.2208 13.6481 -0.0381506 2.38026
82 2 2.2208 -0.303834 8.63359 2.31165
210 1 -1.1104 9.29765 -1.65214 6.59994
208 1 -1.1104 9.45897 -4.40499 6.75127
207 1 -1.1104 12.1495 -1.60853 6.48297
136 2 2.2208 -0.437897 19.7885 2.42399
8543 2 2.2208 13.5025 5.76643 2.13422
185 1 -1.1104 6.33089 -1.30272 12.2963
211 2 2.2208 10.8071 0.0297133 10.6436
212 1 -1.1104 12.1769 -4.11342 12.0068
214 1 -1.1104 12.3805 -4.1944 9.2118
216 1 -1.1104 12.154 -1.4162 12.175
217 2 2.2208 10.8049 -2.9728 7.95085
219 1 -1.1104 12.3257 -1.39746 9.35078
220 1 -1.1104 9.36989 -4.0179 12.1918
222 2 2.2208 7.97634 -0.00842369 7.7906
223 1 -1.1104 9.21018 -4.35271 9.58408
225 2 2.2208 7.88271 -2.65277 10.8397
227 1 -1.1104 9.23148 -1.27002 11.8059
228 1 -1.1104 9.44311 -1.35216 9.19634
234 1 -1.1104 0.975575 7.08284 6.63901
173 1 -1.1104 3.87732 1.42094 6.48664
167 1 -1.1104 0.960828 1.4964 6.64442
237 1 -1.1104 6.52251 4.33747 6.46588
177 1 -1.1104 0.801032 1.299 12.3107
181 1 -1.1104 0.993061 1.2272 9.41449
187 2 2.2208 5.14074 2.79666 7.76662
191 1 -1.1104 3.722 1.34415 12.1272
194 1 -1.1104 3.84392 1.53276 9.39238
196 2 2.2208 2.3834 2.57776 10.8533
240 2 2.2208 5.06223 5.76956 10.6809
244 1 -1.1104 0.887635 7.07426 9.37398
246 1 -1.1104 1.16926 4.25879 12.2763
251 1 -1.1104 0.733419 4.20902 9.56012
255 1 -1.1104 3.72276 6.87609 12.2271
256 2 2.2208 2.33447 5.54505 8.13423
258 1 -1.1104 3.76536 7.0133 9.26117
260 1 -1.1104 3.86728 4.15397 12.4652
262 1 -1.1104 3.56223 4.3701 9.68087
242 1 -1.1104 1.08548 7.00918 12.1124
245 1 -1.1104 6.52549 6.97019 9.16001
243 1 -1.1104 6.38453 7.04622 12.0712
248 1 -1.1104 6.65093 4.28428 11.8479
179 1 -1.1104 6.59747 1.67819 12.0892
183 1 -1.1104 6.69574 1.41542 9.19381
253 1 -1.1104 6.50021 4.15289 9.08771
203 2 2.2208 8.02989 19.8525 10.9459
265 1 -1.1104 12.3448 7.17644 6.56699
269 1 -1.1104 9.41241 4.4769 6.62023
319 2 2.2208 7.71989 -0.0585757 13.5997
321 2 2.2208 10.8687 -2.75451 13.6081
156 1 -1.1104 9.44254 18.4367 6.52454
232 1 -1.1104 9.31617 15.7397 9.45684
213 1 -1.1104 12.2156 1.31087 11.9991
215 1 -1.1104 12.3474 1.52859 9.28152
218 2 2.2208 10.7107 2.92995 7.93625
221 1 -1.1104 9.35103 1.22361 12.324
224 1 -1.1104 9.47894 1.45622 9.44419
226 2 2.2208 7.92287 2.87821 10.6174
268 1 -1.1104 9.44207 4.22807 9.37861
271 1 -1.1104 9.45594 4.3437 12.2082
275 2 2.2208 7.76498 5.64738 7.91675
276 2 2.2208 10.8244 5.67056 10.8657
278 1 -1.1104 12.1668 7.01242 12.3181
279 1 -1.1104 12.1505 7.08107 9.4578
280 1 -1.1104 12.2908 4.00472 12.2326
283 1 -1.1104 12.2747 4.25923 9.45406
273 1 -1.1104 9.2444 6.91932 9.32663
285 1 -1.1104 9.47128 7.05153 12.1943
111 1 -1.1104 6.56831 12.7668 6.56021
204 1 -1.1104 12.0591 15.446 9.60673
505 2 2.2208 5.10757 14.1176 13.5947
108 1 -1.1104 1.11083 12.5952 6.45186
62 1 -1.1104 0.894 9.88126 6.59348
241 2 2.2208 5.05762 11.184 10.7578
247 1 -1.1104 0.729709 9.91335 12.2763
250 2 2.2208 5.3757 8.439 7.69668
252 1 -1.1104 1.01249 10.024 9.54777
257 2 2.2208 2.34546 11.2818 7.94488
259 2 2.2208 2.22793 8.37623 10.5808
261 1 -1.1104 3.75475 9.90422 12.2465
263 1 -1.1104 3.60462 9.78206 9.35285
287 1 -1.1104 3.6279 12.6519 12.2249
294 1 -1.1104 1.00418 12.7175 9.53656
299 1 -1.1104 0.706165 12.8117 12.3143
305 1 -1.1104 3.78902 12.6451 9.24705
254 1 -1.1104 6.7048 9.93874 9.1945
290 1 -1.1104 6.45146 12.7 9.37044
249 1 -1.1104 6.4937 9.87696 12.2794
297 1 -1.1104 6.43642 12.6355 11.9997
8732 2 2.2208 13.4927 8.5591 10.7686
154 1 -1.1104 9.47859 12.8336 6.71833
229 1 -1.1104 9.40349 12.7063 12.2275
264 1 -1.1104 9.36402 9.90289 9.5323
270 1 -1.1104 9.24835 9.93926 12.1511
272 2 2.2208 7.69906 8.36168 10.6803
274 2 2.2208 8.14067 11.3154 8.0775
277 2 2.2208 10.796 11.3975 10.6986
281 1 -1.1104 12.0905 10.0153 12.029
282 2 2.2208 10.7994 8.4925 8.04997
284 1 -1.1104 12.2921 9.89167 9.27546
30 1 -1.1104 12.242 12.71 11.9406
50 1 -1.1104 12.2826 12.7371 9.08732
51 1 -1.1104 9.54438 12.8006 9.3491
149 1 -1.1104 12.2252 15.5898 6.54043
231 1 -1.1104 9.3676 15.4343 12.0234
104 2 2.2208 10.6785 14.2902 8.03351
112 1 -1.1104 6.47776 18.6562 6.85473
306 1 -1.1104 6.57269 15.6263 12.0702
296 1 -1.1104 6.26082 18.4713 12.367
288 1 -1.1104 6.52845 18.3893 9.56016
126 1 -1.1104 3.91987 18.325 6.58768
302 1 -1.1104 1.0013 18.4478 6.52795
295 2 2.2208 5.21487 14.1847 8.1546
289 1 -1.1104 6.56975 15.8025 9.42299
310 2 2.2208 2.30399 14.1874 10.8956
286 1 -1.1104 3.5204 18.4402 12.2705
291 1 -1.1104 0.800011 18.3831 9.48381
292 1 -1.1104 0.808745 15.6313 9.42481
293 2 2.2208 5.16929 19.8569 8.04762
298 1 -1.1104 0.80506 18.346 12.3503
300 2 2.2208 5.06971 17.0449 10.8616
301 1 -1.1104 3.67682 18.4257 9.32036
303 2 2.2208 2.39128 16.9947 8.01759
304 1 -1.1104 3.81206 15.5462 9.48183
307 1 -1.1104 0.909125 15.5775 12.3189
308 1 -1.1104 3.60932 15.3832 12.253
309 2 2.2208 2.09067 19.9059 10.7322
27 2 2.2208 10.8181 16.9155 10.7663
233 1 -1.1104 9.29443 18.2809 12.3079
17394 2 2.2208 13.4324 -5.47267 2.42606
625 2 2.2208 5.19188 11.4137 -0.484269
105 2 2.2208 10.7809 19.7356 7.91072
202 2 2.2208 7.80616 14.0824 10.7678
52 1 -1.1104 9.49892 18.4541 9.48248
28 2 2.2208 13.5734 19.7085 10.8441
8544 2 2.2208 13.6159 11.2073 2.14081
163 1 -1.1104 9.46053 15.5396 6.63742
83 1 -1.1104 12.3036 15.4795 12.1824
201 2 2.2208 -0.47673 -0.0617617 10.9802
442 2 2.2208 2.25959 11.2449 13.5376
8545 2 2.2208 13.5287 8.32205 5.28765
530 2 2.2208 10.7172 19.9289 13.5892
317 2 2.2208 5.35969 3.02858 13.5783
467 2 2.2208 7.89244 5.55326 13.5785
230 2 2.2208 13.5543 -2.82194 10.6772
81 2 2.2208 -0.360551 5.50616 5.33946
8518 2 2.2208 13.5813 -0.10268 8.00086
8832 2 2.2208 13.5912 -2.47312 -0.247956
8614 2 2.2208 13.6152 14.1067 5.3068
8517 2 2.2208 -0.349429 14.1373 8.02824
29 2 2.2208 -0.232082 5.75389 11.0661
165 2 2.2208 13.5039 17.0383 2.10868
8738 2 2.2208 -0.427827 11.4045 10.8211
648 2 2.2208 10.968 5.91959 -0.346814
325 2 2.2208 2.25264 3.02756 -0.263719
373 2 2.2208 2.17318 14.1595 -0.377328
323 2 2.2208 5.24246 0.181322 -0.433183
331 2 2.2208 5.3113 -0.0530101 16.546
332 1 -1.1104 1.10019 -4.53142 17.8083
336 1 -1.1104 0.916106 -3.97804 15.015
344 1 -1.1104 0.897421 -1.88843 17.735
346 2 2.2208 5.02209 -2.89263 19.2736
348 1 -1.1104 0.874561 -1.25761 14.6515
352 1 -1.1104 3.87625 -4.34034 17.9387
354 2 2.2208 2.42044 -0.0252186 19.2232
355 1 -1.1104 3.83345 -4.22848 15.2322
359 2 2.2208 2.5083 -3.01212 16.5064
361 1 -1.1104 3.87643 -1.49077 17.8946
362 1 -1.1104 3.88379 -1.28669 15.1545
341 1 -1.1104 6.7789 -4.10992 20.6786
345 1 -1.1104 6.73394 -1.30671 17.921
334 1 -1.1104 6.66022 -3.91174 17.8861
350 1 -1.1104 6.5415 -1.24049 15.1351
340 1 -1.1104 6.82091 -4.01099 15.1262
653 1 -1.1104 9.20956 15.5045 23.4318
592 2 2.2208 -0.336776 2.68618 19.2258
374 2 2.2208 10.9052 0.102463 16.4607
375 1 -1.1104 12.303 -4.18647 17.8072
377 1 -1.1104 12.194 -4.12263 15.0781
381 1 -1.1104 12.387 -1.26345 17.9606
382 2 2.2208 11.009 -2.66274 19.1233
384 1 -1.1104 12.2538 -1.30266 15.042
386 1 -1.1104 9.28791 -4.12357 17.7155
388 2 2.2208 8.12914 0.0322134 19.2589
389 1 -1.1104 9.60427 -4.31061 14.9755
393 2 2.2208 8.08333 -2.75535 16.3868
395 1 -1.1104 9.5469 -1.34783 17.6259
396 1 -1.1104 9.39867 -1.34011 14.6485
378 1 -1.1104 12.4953 -4.01152 20.7659
385 1 -1.1104 12.2741 -1.14659 20.7693
315 2 2.2208 5.15053 -2.85911 13.6914
8207 2 2.2208 10.8922 -5.23238 22.1696
8119 2 2.2208 8.08742 -5.45296 13.7102
8821 2 2.2208 13.5226 19.8769 27.6179
8935 2 2.2208 13.6134 8.45504 16.2267
333 1 -1.1104 1.09014 1.11736 18.0506
338 1 -1.1104 0.850414 1.45756 15.1048
347 2 2.2208 5.35665 2.65187 19.4472
353 1 -1.1104 4.10191 1.33752 17.8356
357 1 -1.1104 3.90969 1.45903 14.9033
360 2 2.2208 2.45912 2.8528 16.504
407 2 2.2208 5.17754 5.75045 16.4699
411 1 -1.1104 1.02768 7.24704 15.0967
415 1 -1.1104 0.980081 4.29943 17.9977
420 1 -1.1104 0.9733 4.36447 15.1893
429 2 2.2208 2.52389 5.57596 19.3349
431 1 -1.1104 3.76327 7.20585 14.959
434 1 -1.1104 3.79425 4.19881 17.9825
436 1 -1.1104 3.72423 4.26112 15.2272
428 1 -1.1104 3.67372 7.11728 17.805
424 1 -1.1104 6.56488 4.49359 14.9894
335 1 -1.1104 6.97163 1.52026 18.0844
414 1 -1.1104 6.4279 7.05873 20.5404
410 1 -1.1104 6.46691 7.11312 17.6008
413 1 -1.1104 6.64395 7.06181 14.978
421 1 -1.1104 1.04328 4.41366 20.6863
343 1 -1.1104 6.68787 1.31194 20.8893
417 1 -1.1104 6.43393 4.32457 17.747
342 1 -1.1104 6.50971 1.44703 14.8937
409 1 -1.1104 1.01443 7.09248 17.8656
440 2 2.2208 2.31892 5.60106 13.6895
432 1 -1.1104 3.76353 7.08586 20.7946
412 1 -1.1104 1.03252 7.10062 20.7835
376 1 -1.1104 12.2379 1.59523 17.8138
379 1 -1.1104 12.1987 1.37347 14.9946
383 2 2.2208 10.7703 3.00694 19.2521
387 1 -1.1104 9.63694 1.51154 17.9805
391 1 -1.1104 9.31404 1.42355 15.1713
394 2 2.2208 8.08421 2.88836 16.3598
443 2 2.2208 10.7938 5.68302 16.4755
448 1 -1.1104 12.3027 4.35621 17.8126
451 1 -1.1104 12.2093 4.14756 15.2283
456 2 2.2208 7.84258 5.6965 19.1434
461 1 -1.1104 9.253 4.34902 17.813
463 1 -1.1104 9.3694 4.24017 14.935
445 1 -1.1104 12.1347 6.93373 18.0487
446 1 -1.1104 12.1051 7.1077 15.1295
464 1 -1.1104 9.47799 4.36135 20.5617
458 1 -1.1104 9.41439 6.91115 15.1238
455 1 -1.1104 9.36816 7.15267 17.8496
459 1 -1.1104 9.33133 7.34027 20.5876
447 1 -1.1104 12.0263 7.4793 20.6928
402 2 2.2208 5.06176 17.0499 27.78
8903 2 2.2208 -0.387586 11.183 22.153
392 1 -1.1104 9.39162 1.52538 20.999
8901 2 2.2208 13.6035 11.4292 24.9987
8282 2 2.2208 8.09661 -5.54854 19.1436
408 2 2.2208 5.25858 11.3548 16.3317
416 1 -1.1104 0.903722 10.0588 17.9148
419 2 2.2208 5.0243 8.42098 19.3949
422 1 -1.1104 0.900826 9.81015 15.0624
430 2 2.2208 2.44941 11.3305 19.1813
433 2 2.2208 2.42451 8.62591 16.518
435 1 -1.1104 3.82962 9.87042 18.0276
438 1 -1.1104 3.69202 10.067 15.0212
471 1 -1.1104 0.721187 12.8659 17.8588
475 1 -1.1104 1.0678 12.6725 15.1605
491 1 -1.1104 3.56241 12.6497 17.7692
494 1 -1.1104 3.75341 12.6053 14.8409
476 1 -1.1104 0.970931 12.6249 20.5677
426 1 -1.1104 6.59893 9.80322 15.0708
473 1 -1.1104 6.52098 12.6826 17.9317
479 1 -1.1104 6.62877 12.6842 15.0392
427 1 -1.1104 6.65247 9.99011 20.5957
439 1 -1.1104 3.69375 9.94529 20.7927
418 1 -1.1104 6.68182 9.8285 17.9532
17468 2 2.2208 13.5741 -5.31384 25.061
8867 2 2.2208 13.4375 14.2989 27.5827
444 2 2.2208 10.7597 11.4429 16.3302
449 1 -1.1104 12.3698 9.80038 17.7665
450 2 2.2208 10.7824 8.86498 19.2994
453 1 -1.1104 12.2994 10.0961 14.9726
457 2 2.2208 8.00135 11.4907 19.212
460 2 2.2208 7.9815 8.52938 16.4502
462 1 -1.1104 9.3862 10.1036 17.7629
465 1 -1.1104 9.36606 9.89889 14.8572
507 1 -1.1104 12.307 12.7018 17.8227
509 1 -1.1104 12.2181 12.5602 15.1916
518 1 -1.1104 9.33493 12.9718 17.9491
521 1 -1.1104 9.39275 12.8182 15.0173
399 2 2.2208 13.5846 19.7626 16.6195
466 1 -1.1104 9.50927 10.0153 20.6918
510 1 -1.1104 12.0503 12.8004 20.554
522 1 -1.1104 8.96343 12.7347 20.8086
498 2 2.2208 2.25064 14.1442 16.4366
485 2 2.2208 5.08511 14.1868 19.293
470 2 2.2208 5.04925 16.8528 16.3877
472 1 -1.1104 0.6459 18.4266 17.7688
477 1 -1.1104 0.901277 18.2698 15.105
483 1 -1.1104 0.994418 15.661 17.9517
486 2 2.2208 5.19852 19.8722 19.3069
487 1 -1.1104 1.01961 15.5169 15.0383
492 1 -1.1104 3.52665 18.3554 18.0353
493 2 2.2208 2.25787 16.9456 19.3118
496 1 -1.1104 3.77264 18.3856 15.1453
499 2 2.2208 2.23315 19.7959 16.5735
500 1 -1.1104 3.76862 15.3969 17.7579
501 1 -1.1104 3.96691 15.3821 15.0561
489 1 -1.1104 6.57701 15.646 14.9847
481 1 -1.1104 6.50866 18.1696 15.0807
474 1 -1.1104 6.40625 18.2424 17.9737
482 1 -1.1104 6.45319 18.6184 20.8498
502 1 -1.1104 3.72446 15.46 20.8216
478 1 -1.1104 0.78487 18.27 20.7758
490 1 -1.1104 6.61542 15.7593 20.8307
524 1 -1.1104 9.2482 18.3599 20.576
484 1 -1.1104 6.58296 15.5604 17.885
364 2 2.2208 13.637 17.1017 24.8799
514 2 2.2208 10.8155 14.17 19.2259
525 2 2.2208 7.98253 14.1243 16.4884
506 2 2.2208 10.7331 16.9877 16.3923
508 1 -1.1104 12.0732 18.4124 17.8347
511 1 -1.1104 12.2966 18.2904 15.1302
513 1 -1.1104 12.1415 15.6035 17.8711
515 2 2.2208 10.6975 19.7806 19.1589
516 1 -1.1104 12.2761 15.4346 14.8357
519 1 -1.1104 9.31598 18.2368 17.7291
520 2 2.2208 7.96099 17.0891 19.2633
523 1 -1.1104 9.34895 18.4773 14.8945
526 2 2.2208 7.94588 19.6122 16.336
527 1 -1.1104 9.39063 15.5582 17.7664
528 1 -1.1104 9.36409 15.5183 14.9585
529 1 -1.1104 9.60726 15.5693 20.6011
322 2 2.2208 10.8407 2.76903 13.6514
517 1 -1.1104 12.4306 15.2966 20.664
650 2 2.2208 10.8355 11.3994 27.5035
337 1 -1.1104 0.893463 -4.33465 20.586
349 1 -1.1104 1.11402 -1.43111 20.5284
363 1 -1.1104 3.91239 -1.39897 20.7361
356 1 -1.1104 3.83681 -4.27963 20.7057
534 2 2.2208 5.21947 0.0376664 22.0393
535 1 -1.1104 0.969442 -4.18339 23.4063
539 1 -1.1104 1.04274 -4.47937 26.3095
543 1 -1.1104 0.893718 -1.426 23.4171
545 2 2.2208 5.14532 -2.65735 24.9478
547 1 -1.1104 0.725904 -1.4388 26.3891
549 1 -1.1104 3.85318 -4.31115 23.562
551 2 2.2208 2.29763 0.142635 24.9501
552 1 -1.1104 4.04345 -4.21247 26.5249
554 2 2.2208 2.38523 -2.82253 22.072
556 1 -1.1104 3.54846 -1.35223 23.6797
557 1 -1.1104 3.68752 -1.25243 26.242
544 1 -1.1104 6.35537 -1.39158 23.3586
541 1 -1.1104 6.93521 -3.93434 26.225
548 1 -1.1104 6.6894 -1.07977 26.1635
351 1 -1.1104 6.72334 -1.33168 20.7017
537 1 -1.1104 6.61538 -4.13119 23.5904
624 2 2.2208 2.42946 8.37072 27.7509
657 1 -1.1104 6.52814 15.4284 26.3232
390 1 -1.1104 9.56567 -3.82302 20.547
397 1 -1.1104 9.55262 -1.15686 20.714
652 2 2.2208 8.10463 19.7135 22.1781
9007 2 2.2208 13.5757 16.795 19.2687
8368 2 2.2208 10.8782 -5.53625 16.681
324 2 2.2208 2.23203 -2.71914 27.6766
570 2 2.2208 10.9034 0.0443882 22.25
571 1 -1.1104 12.0536 -3.99295 23.6332
573 1 -1.1104 12.271 -3.85306 26.3277
575 1 -1.1104 12.2045 -1.13207 23.6855
576 2 2.2208 10.864 -2.55874 25.0645
578 1 -1.1104 12.4772 -1.06893 26.4623
579 1 -1.1104 9.40259 -3.93239 23.5326
581 2 2.2208 8.0557 0.262665 24.8934
582 1 -1.1104 9.71749 -3.9306 26.4885
584 2 2.2208 8.02635 -2.54679 22.1661
586 1 -1.1104 9.4284 -1.17815 23.3422
587 1 -1.1104 9.46767 -1.05824 26.2916
651 2 2.2208 7.79688 14.1864 22.1337
339 1 -1.1104 1.05643 1.54326 20.7475
425 1 -1.1104 6.80002 4.15164 20.7779
358 1 -1.1104 3.74453 1.25738 20.6229
437 1 -1.1104 3.85316 4.1433 20.629
536 1 -1.1104 0.878737 1.39746 23.5558
540 1 -1.1104 1.00703 1.47058 26.5521
546 2 2.2208 4.96085 2.98125 24.97
550 1 -1.1104 3.7118 1.55137 23.5841
553 1 -1.1104 3.78341 1.61135 26.5732
555 2 2.2208 2.42241 3.00398 22.0966
599 2 2.2208 5.22185 5.58316 22.2152
605 1 -1.1104 1.02667 4.26926 23.4601
610 1 -1.1104 0.911369 4.0729 26.2596
614 1 -1.1104 3.67306 7.13457 23.5279
615 2 2.2208 2.31098 5.65794 25.1384
619 1 -1.1104 3.75572 4.24654 23.4695
621 1 -1.1104 3.77689 4.20793 26.4661
603 1 -1.1104 0.919047 7.00335 26.3987
601 1 -1.1104 0.92778 7.02349 23.7356
617 1 -1.1104 3.83901 6.95593 26.328
607 1 -1.1104 6.56628 4.4195 23.5679
612 1 -1.1104 6.68083 4.50234 26.3948
602 1 -1.1104 6.49597 7.11104 23.5244
542 1 -1.1104 6.7324 1.69324 26.2862
538 1 -1.1104 6.55697 1.4725 23.4187
8168 2 2.2208 8.0252 -5.42586 24.965
365 2 2.2208 13.6123 8.68812 22.012
452 1 -1.1104 12.2917 4.44147 20.691
380 1 -1.1104 12.1251 1.53096 20.6956
8864 2 2.2208 -0.38217 -2.77648 24.9476
604 1 -1.1104 6.59616 7.1076 26.4701
366 2 2.2208 13.5319 2.97025 21.9901
572 1 -1.1104 12.2504 1.4743 23.6225
574 1 -1.1104 12.1772 1.66951 26.3338
577 2 2.2208 10.9058 3.00051 24.9968
580 1 -1.1104 9.38935 1.6281 23.5732
583 1 -1.1104 9.5721 1.75312 26.2547
585 2 2.2208 8.09163 3.06296 22.1254
631 1 -1.1104 9.43152 4.4898 26.4525
633 1 -1.1104 9.44219 4.35995 23.3215
635 1 -1.1104 9.54677 7.31372 26.338
637 2 2.2208 8.01265 5.80318 24.9025
638 2 2.2208 10.9037 5.7928 22.0373
640 1 -1.1104 12.0534 7.12792 23.5141
641 1 -1.1104 12.2684 6.96472 26.2509
642 1 -1.1104 12.3479 4.51624 23.3973
645 1 -1.1104 12.1549 4.30842 26.4061
647 1 -1.1104 9.1687 7.21513 23.4217
8860 2 2.2208 13.5408 5.60905 24.8363
423 1 -1.1104 0.840999 9.9153 20.5525
495 1 -1.1104 3.70459 12.7491 20.699
480 1 -1.1104 6.31444 12.8744 20.8161
600 2 2.2208 5.11187 11.3788 22.0063
606 1 -1.1104 0.857829 9.95632 23.6923
609 2 2.2208 5.21004 8.3127 24.9922
611 1 -1.1104 0.81275 9.63191 26.3353
616 2 2.2208 2.31699 11.2513 24.9493
618 2 2.2208 2.15858 8.50345 22.158
620 1 -1.1104 3.63798 9.92586 23.5662
622 1 -1.1104 3.65744 10.0346 26.2267
560 1 -1.1104 3.61978 12.8946 26.4113
623 1 -1.1104 0.842834 12.6112 23.607
656 1 -1.1104 3.69563 12.6869 23.4288
660 1 -1.1104 0.961933 12.9123 26.5058
613 1 -1.1104 6.57072 9.93701 26.4589
664 1 -1.1104 6.57838 12.6725 23.4967
655 1 -1.1104 6.48635 12.697 26.2678
608 1 -1.1104 6.63531 9.83041 23.4532
598 1 -1.1104 9.46075 18.0443 23.5763
454 1 -1.1104 12.4614 10.0791 20.5177
367 2 2.2208 7.93193 13.9879 27.7134
8865 2 2.2208 13.6829 19.9086 21.9865
628 1 -1.1104 9.39148 12.8316 26.3191
630 1 -1.1104 9.43281 9.90431 26.4116
632 1 -1.1104 9.23391 9.99078 23.358
634 2 2.2208 8.06032 8.5444 21.7955
636 2 2.2208 7.73191 11.2728 24.7526
639 2 2.2208 10.7244 11.4873 22.1179
643 1 -1.1104 11.9797 10.1924 23.4001
644 2 2.2208 10.6608 8.58644 24.7524
646 1 -1.1104 12.2523 9.88809 26.2502
597 1 -1.1104 9.33398 12.6456 23.5498
561 1 -1.1104 12.2684 12.8827 23.3913
566 1 -1.1104 12.2049 12.7719 26.072
595 2 2.2208 10.8381 19.8544 24.8527
401 2 2.2208 -0.394087 5.88921 16.5333
497 1 -1.1104 3.63427 18.3195 20.6586
488 1 -1.1104 0.767053 15.5916 20.7296
9080 2 2.2208 13.5974 -2.43308 22.2204
398 2 2.2208 10.715 16.9327 27.5863
627 1 -1.1104 6.67564 18.3994 26.3035
661 1 -1.1104 6.77306 18.304 23.5567
663 2 2.2208 4.96889 14.1238 24.9653
404 2 2.2208 2.32543 14.1799 22.0092
405 2 2.2208 2.24697 19.8894 22.0458
406 1 -1.1104 3.68817 15.7958 23.7722
558 1 -1.1104 1.03106 15.352 23.4907
565 1 -1.1104 3.66051 15.5242 26.3007
588 2 2.2208 2.25529 16.8173 25.1139
589 1 -1.1104 3.64875 18.3249 26.0901
590 2 2.2208 5.1448 17.0684 22.1798
654 1 -1.1104 3.78878 18.642 23.245
658 1 -1.1104 0.83571 18.4475 26.2778
659 1 -1.1104 0.667499 15.7425 26.4312
662 2 2.2208 5.04197 19.6283 24.8258
665 1 -1.1104 0.863474 18.089 23.588
559 1 -1.1104 6.22699 15.5023 23.5586
569 1 -1.1104 12.2101 15.6443 23.4844
596 1 -1.1104 12.0104 15.6047 26.2214
512 1 -1.1104 12.1862 18.0579 20.6436
626 2 2.2208 7.93676 16.791 25.0411
567 1 -1.1104 12.143 18.3528 26.2875
629 1 -1.1104 9.5108 18.281 26.2976
327 2 2.2208 10.929 0.243365 27.706
591 2 2.2208 10.6289 14.0567 24.7247
533 2 2.2208 10.7581 17.014 22.0509
372 1 -1.1104 9.27161 15.5422 26.3033
562 1 -1.1104 12.2576 18.5918 23.3014
318 2 2.2208 8.16824 19.8467 27.5897
504 2 2.2208 4.97584 19.8994 13.8573
329 2 2.2208 8.06191 2.95016 27.6774
9155 2 2.2208 -0.333392 5.59739 21.9795
326 2 2.2208 -0.369524 2.92514 13.6302
8866 2 2.2208 13.5269 8.54059 27.6612
593 2 2.2208 13.5904 0.24656 19.1747
400 2 2.2208 13.5946 14.0884 16.2978
8906 2 2.2208 13.5906 14.1889 22.1515
328 2 2.2208 8.02475 -2.67661 27.7117
8980 2 2.2208 -0.355987 8.50062 13.7188
666 2 2.2208 5.01474 22.5437 5.26912
668 1 -1.1104 0.861774 24.3239 1.09223
669 1 -1.1104 0.987388 24.1027 3.67182
670 1 -1.1104 1.10968 21.2228 0.91873
672 2 2.2208 5.21666 25.4668 2.28251
673 1 -1.1104 0.933971 21.1526 3.67754
675 1 -1.1104 3.58764 24.1068 0.752626
676 2 2.2208 2.31741 22.7611 2.29236
678 1 -1.1104 3.78116 24.0516 3.76823
679 2 2.2208 2.227 25.4125 5.21303
680 1 -1.1104 3.88675 21.1832 1.04184
682 1 -1.1104 3.58018 21.35 3.7344
687 1 -1.1104 6.39383 23.9478 1.13541
689 1 -1.1104 6.8087 21.233 0.92647
691 1 -1.1104 6.19687 21.1405 3.84601
690 1 -1.1104 6.49562 26.8487 0.84647
813 1 -1.1104 3.71761 23.9934 6.63939
688 1 -1.1104 6.484 24.1454 3.76047
674 1 -1.1104 0.751475 26.8603 3.87235
681 1 -1.1104 3.51078 26.9481 1.01838
692 1 -1.1104 6.45315 27.0382 3.67605
808 1 -1.1104 6.38977 24.259 6.57585
807 1 -1.1104 0.746776 24.0308 6.58256
810 1 -1.1104 0.612867 26.935 6.67428
693 2 2.2208 10.7019 22.5201 5.01085
695 1 -1.1104 12.063 24.4884 0.945654
696 1 -1.1104 12.0635 23.9919 3.8101
697 1 -1.1104 12.2857 21.3883 0.719733
699 2 2.2208 10.675 25.6666 2.61236
700 1 -1.1104 11.9602 21.218 3.50324
702 1 -1.1104 9.10732 23.8143 0.879326
703 2 2.2208 7.84609 22.6475 2.38217
705 1 -1.1104 9.23939 24.3091 3.72565
706 2 2.2208 8.01479 25.366 5.32174
707 1 -1.1104 9.71164 21.318 0.723018
709 1 -1.1104 9.33908 21.3022 3.63669
708 1 -1.1104 9.30375 26.9289 1.00366
842 1 -1.1104 12.1095 26.8301 6.63179
1580 1 -1.1104 9.33264 46.3275 6.74887
701 1 -1.1104 12.0758 26.8104 3.91328
698 1 -1.1104 12.0403 27.2179 0.980799
710 1 -1.1104 9.4266 26.9399 3.88638
9239 2 2.2208 13.6556 36.7139 5.23118
843 1 -1.1104 9.16919 23.7401 6.54642
1375 1 -1.1104 3.59933 46.579 3.75349
1554 1 -1.1104 1.03448 46.4366 9.37556
671 1 -1.1104 0.821122 27.0902 1.00351
683 1 -1.1104 3.4989 26.9206 3.81944
667 2 2.2208 4.97349 28.2536 5.10403
677 2 2.2208 2.25849 28.3643 2.42115
715 1 -1.1104 0.923378 29.8914 1.05391
718 1 -1.1104 0.997284 29.7376 3.78482
721 1 -1.1104 0.646413 32.6921 1.20166
722 2 2.2208 5.04084 31.0277 2.38818
724 1 -1.1104 0.855169 32.5594 3.86987
726 1 -1.1104 3.80327 29.698 0.874888
729 1 -1.1104 3.78046 29.5959 3.6657
731 2 2.2208 2.23155 31.0822 5.33675
733 1 -1.1104 3.68686 32.3638 0.809553
734 1 -1.1104 3.8215 32.4763 3.65421
725 1 -1.1104 6.35317 32.425 3.74457
864 1 -1.1104 0.5152 29.7719 6.61287
739 1 -1.1104 6.44835 29.5718 3.62051
738 1 -1.1104 6.46399 29.479 0.994549
869 1 -1.1104 6.75195 32.5039 6.46414
872 1 -1.1104 4.02579 32.5067 6.85991
868 1 -1.1104 0.832893 32.2679 6.6587
870 1 -1.1104 3.50896 29.5447 6.47801
866 1 -1.1104 6.13587 29.6501 6.43356
713 2 2.2208 13.4576 25.5019 5.16006
1548 1 -1.1104 6.55559 46.5472 6.66864
740 1 -1.1104 6.74514 32.4153 1.02214
694 2 2.2208 10.7656 28.3654 5.23506
704 2 2.2208 7.90953 28.2238 2.44824
742 1 -1.1104 11.8854 29.9196 0.752057
744 1 -1.1104 12.1335 29.5958 3.68906
746 1 -1.1104 12.2097 32.5963 0.956957
747 2 2.2208 10.6697 31.1421 2.42111
749 1 -1.1104 11.9765 32.4585 3.92505
750 1 -1.1104 9.31646 29.6323 1.17879
753 1 -1.1104 9.44008 29.6995 4.02728
755 2 2.2208 7.88193 31.0545 5.14356
757 1 -1.1104 9.40608 32.4468 1.11822
758 1 -1.1104 9.2203 32.6256 3.94837
900 1 -1.1104 12.5001 32.5125 6.69736
712 2 2.2208 13.4418 28.3242 2.45877
1599 1 -1.1104 9.54334 46.6695 9.43969
711 2 2.2208 13.5876 22.7239 2.25449
903 1 -1.1104 9.60661 32.5061 6.73603
898 1 -1.1104 12.1083 29.7957 6.59186
728 2 2.2208 2.27529 33.8971 2.43923
714 2 2.2208 5.30932 33.8699 5.29321
716 1 -1.1104 0.939821 35.209 1.07197
719 1 -1.1104 0.862531 35.4455 3.84659
723 2 2.2208 5.20059 36.495 2.44427
727 1 -1.1104 3.64024 35.0902 0.92068
730 1 -1.1104 3.67049 35.2809 3.56793
732 2 2.2208 2.28443 36.731 5.17245
760 2 2.2208 5.0143 39.5626 5.15883
766 1 -1.1104 1.01343 37.9089 0.928044