ITEM: TIMESTEP
100000
ITEM: NUMBER OF ATOMS
17700
ITEM: BOX BOUNDS pp pp pp
-3.6511991371161234e-01 2.7705119913710483e+01
-4.3193566543285549e+00 3.3239935665432245e+02
-3.6327992560380529e-01 2.7703279925604186e+01
ITEM: ATOMS id type q x y z
1 2 2.2208 5.52162 1.32154 5.23284
2 1 -1.1104 1.06865 -2.88264 1.05755
3 1 -1.1104 1.25687 2.73526 0.827058
6 1 -1.1104 1.03955 -2.7964 3.81226
7 1 -1.1104 1.32259 2.69931 3.78188
10 1 -1.1104 1.15748 -0.143832 0.940498
12 2 2.2208 5.38399 -1.55607 2.41419
14 1 -1.1104 1.25841 -0.0136491 3.84561
16 1 -1.1104 4.02537 -2.94543 0.887951
17 1 -1.1104 4.0528 2.76667 0.923005
18 2 2.2208 2.63336 1.28882 2.30647
19 1 -1.1104 3.95541 -2.92149 3.94545
20 1 -1.1104 4.08524 2.60737 3.89142
21 2 2.2208 2.52071 -1.46673 5.26334
22 2 2.2208 2.58097 4.10355 5.16104
23 1 -1.1104 4.01212 -0.0733815 0.870355
24 1 -1.1104 4.03315 -0.081682 3.71819
13 2 2.2208 5.46073 4.14122 2.36246
8975 2 2.2208 13.9779 -1.5301 10.8095
301 2 2.2208 -0.338529 -1.46844 2.28359
8984 2 2.2208 -0.0862278 4.12026 2.39933
8983 2 2.2208 -0.143673 1.28716 5.19471
167 1 -1.1104 1.27718 2.58851 6.56473
170 1 -1.1104 1.17205 -0.15499 6.6872
172 1 -1.1104 3.89776 -2.90642 6.6833
8746 2 2.2208 -0.113111 9.50791 2.50335
309 2 2.2208 8.18412 1.33782 13.6189
5 1 -1.1104 6.98558 2.52978 0.873609
8 1 -1.1104 6.87876 -2.789 3.81514
9 1 -1.1104 6.89642 2.63311 3.62093
11 1 -1.1104 6.86018 -0.207384 0.993632
15 1 -1.1104 6.81107 -0.0575863 3.81297
4 1 -1.1104 6.77755 -2.81372 0.968005
31 2 2.2208 10.9639 1.27788 5.14786
32 1 -1.1104 12.5576 -3.05223 1.01534
33 1 -1.1104 12.563 2.64868 1.01941
34 1 -1.1104 12.4509 -2.91516 3.77719
35 1 -1.1104 12.3954 2.70099 3.72652
36 1 -1.1104 12.5854 -0.116978 0.858719
37 2 2.2208 11.0202 -1.53992 2.3137
38 2 2.2208 11.1196 4.05399 2.49367
39 1 -1.1104 12.384 -0.238887 3.72007
40 1 -1.1104 9.69604 -2.81484 0.865713
41 1 -1.1104 9.72735 2.83021 0.902857
42 2 2.2208 8.16223 1.31195 2.30331
43 1 -1.1104 9.7079 -2.87705 3.67527
44 1 -1.1104 9.57602 2.60561 3.76616
45 2 2.2208 8.27373 -1.44744 5.16698
46 2 2.2208 8.25503 4.08107 5.22912
47 1 -1.1104 9.71118 -0.0885417 0.878599
48 1 -1.1104 9.65261 -0.140551 3.63039
8697 2 2.2208 -0.151612 20.9124 2.3765
208 1 -1.1104 9.69471 -2.89309 6.36203
209 1 -1.1104 9.55305 2.81953 6.57779
8980 2 2.2208 -0.229742 1.29252 10.6753
17319 2 2.2208 -0.299823 -4.25693 5.16875
169 1 -1.1104 6.81396 2.89081 6.62612
210 1 -1.1104 9.6273 0.105496 6.50178
206 1 -1.1104 12.4233 2.79456 6.48209
17307 2 2.2208 -0.203318 -4.4564 10.7492
54 2 2.2208 5.3391 7.0194 5.33623
55 2 2.2208 5.46217 12.416 5.36934
56 1 -1.1104 1.14492 8.25701 1.03149
58 1 -1.1104 1.32653 8.28759 3.89361
60 1 -1.1104 1.13425 5.5111 0.852021
61 1 -1.1104 0.972962 10.9491 0.985559
66 2 2.2208 5.48138 9.68888 2.4074
67 1 -1.1104 1.35265 5.50726 3.70767
68 1 -1.1104 1.05684 11.2188 3.8072
71 1 -1.1104 3.98579 8.2959 1.0734
72 2 2.2208 2.62321 6.86638 2.22892
73 2 2.2208 2.54305 12.5377 2.46719
74 1 -1.1104 4.05423 8.52274 3.81118
75 2 2.2208 2.58177 9.73395 5.18496
76 1 -1.1104 4.0237 5.41521 0.848918
77 1 -1.1104 4.04803 11.0429 0.999179
79 1 -1.1104 4.07234 5.51532 3.68097
80 1 -1.1104 3.95921 11.2437 3.76423
8804 2 2.2208 -0.234699 15.271 2.60619
238 1 -1.1104 3.81448 8.21157 6.51925
236 1 -1.1104 1.16222 5.38982 6.52412
78 1 -1.1104 4.05747 11.1474 6.62689
239 1 -1.1104 4.09699 5.44701 6.52873
8671 2 2.2208 -0.273391 18.209 10.8084
69 1 -1.1104 6.73705 5.43087 3.9317
70 1 -1.1104 6.70449 10.9049 3.974
59 1 -1.1104 6.95591 8.16973 4.00314
63 1 -1.1104 6.92941 5.47359 1.2454
57 1 -1.1104 6.73184 8.29625 1.06035
64 1 -1.1104 6.99149 10.983 1.01175
84 2 2.2208 11.1263 6.89123 5.23269
85 2 2.2208 11.0582 12.5096 5.22392
86 1 -1.1104 12.4691 8.28376 1.0117
87 1 -1.1104 12.2017 8.33964 3.83214
88 1 -1.1104 12.3615 5.50454 0.858788
89 1 -1.1104 12.3237 11.1867 1.06053
91 2 2.2208 11.0246 9.77771 2.35338
92 1 -1.1104 12.4854 5.5582 3.64426
93 1 -1.1104 12.3093 11.1364 3.83412
94 1 -1.1104 9.67692 8.26593 0.94836
95 2 2.2208 8.26055 6.95976 2.45102
96 2 2.2208 8.21564 12.4089 2.4994
97 1 -1.1104 9.67204 8.3686 3.78733
98 2 2.2208 8.28892 9.69712 5.25082
99 1 -1.1104 9.64584 5.57773 1.0017
100 1 -1.1104 9.66457 11.0309 1.02436
102 1 -1.1104 9.57909 5.43476 3.70752
103 1 -1.1104 9.51359 11.1072 3.77907
235 1 -1.1104 6.61201 8.37138 6.80227
49 1 -1.1104 12.4931 13.9468 9.31228
237 1 -1.1104 7.13817 5.60573 6.64925
101 1 -1.1104 9.78625 11.0731 6.65207
266 1 -1.1104 12.5474 5.50016 6.54234
265 1 -1.1104 12.3641 8.37791 6.60862
267 1 -1.1104 9.55849 8.28275 6.64422
28 1 -1.1104 9.66118 16.625 9.66475
136 2 2.2208 8.1234 18.1402 8.0751
8696 2 2.2208 -0.32549 20.9107 8.10046
8865 2 2.2208 -0.379165 18.1394 5.27814
106 2 2.2208 5.38726 18.1102 5.14793
107 1 -1.1104 1.10986 13.9286 1.13142
109 1 -1.1104 1.15323 19.534 0.929742
113 1 -1.1104 1.31841 14.094 3.83564
114 1 -1.1104 1.16488 19.634 3.79046
116 1 -1.1104 1.23651 16.7635 1.09597
119 2 2.2208 5.38845 15.2272 2.43045
120 2 2.2208 5.38189 20.9079 2.45433
121 1 -1.1104 1.1088 16.6923 3.82484
123 1 -1.1104 4.00309 13.8426 1.05225
125 1 -1.1104 4.02998 19.4646 1.08697
127 2 2.2208 2.48198 18.0743 2.41035
128 1 -1.1104 4.15199 13.8548 3.95455
129 1 -1.1104 3.9791 19.4746 3.81247
130 2 2.2208 2.65257 15.3692 5.25246
131 2 2.2208 2.54708 20.9789 5.32073
132 1 -1.1104 3.98388 16.4397 0.945258
134 1 -1.1104 3.86044 16.7231 3.7483
139 1 -1.1104 6.90475 19.5233 3.67994
122 1 -1.1104 6.65373 16.8277 3.87289
140 1 -1.1104 6.85042 16.699 1.20607
557 2 2.2208 8.12962 20.7741 -0.496765
231 1 -1.1104 0.958835 19.589 6.74823
118 1 -1.1104 6.66226 16.6099 6.54496
163 1 -1.1104 9.60463 16.7115 6.71319
145 1 -1.1104 12.393 19.5613 6.76429
110 1 -1.1104 6.84619 13.8058 1.18247
138 1 -1.1104 6.76292 19.5814 0.967559
115 1 -1.1104 6.81379 13.8659 3.82042
141 2 2.2208 10.9785 18.1614 5.25798
142 1 -1.1104 12.3874 13.8531 0.978159
144 1 -1.1104 12.4947 19.4796 0.997143
146 1 -1.1104 12.34 13.8994 3.84692
147 1 -1.1104 12.4305 19.4779 3.8566
148 1 -1.1104 12.3401 16.6846 0.909053
150 2 2.2208 11.0469 15.3019 2.44033
151 2 2.2208 11.1651 20.8798 2.44656
152 1 -1.1104 12.3477 16.6795 3.69897
153 1 -1.1104 9.61251 13.8256 1.12574
155 1 -1.1104 9.62073 19.4116 0.977197
157 2 2.2208 8.25082 18.1264 2.49332
158 1 -1.1104 9.62447 13.9149 3.96449
159 1 -1.1104 9.63615 19.5826 3.91504
160 2 2.2208 8.23371 15.4079 5.14659
161 2 2.2208 8.20761 20.9607 5.21054
162 1 -1.1104 9.53864 16.639 1.07763
164 1 -1.1104 9.62585 16.7913 3.87268
111 1 -1.1104 6.82909 13.9405 6.70017
297 1 -1.1104 6.68567 13.926 12.1987
8155 2 2.2208 2.71233 -4.42132 8.07153
166 1 -1.1104 1.20775 -2.93194 6.62614
8979 2 2.2208 -0.193385 -1.4972 7.98688
8899 2 2.2208 -0.218859 12.4925 5.24471
8968 2 2.2208 -0.244534 6.89631 10.7531
174 1 -1.1104 4.04915 -0.162391 6.559
173 1 -1.1104 4.12464 2.6175 6.69545
175 2 2.2208 5.407 1.27151 10.8929
176 1 -1.1104 1.10985 -2.94051 12.232
177 1 -1.1104 0.996355 2.64707 12.0972
180 1 -1.1104 1.14891 -2.93552 9.32085
181 1 -1.1104 1.29785 2.78531 9.26653
184 1 -1.1104 1.18323 -0.0709162 12.2185
186 2 2.2208 5.44809 -1.46817 8.05754
187 2 2.2208 5.38408 4.22966 8.06783
188 1 -1.1104 1.28037 -0.180946 9.367
190 1 -1.1104 3.96745 -2.95706 12.161
191 1 -1.1104 3.89746 2.60934 12.3115
192 2 2.2208 2.76686 1.31465 7.9547
193 1 -1.1104 4.05008 -3.03775 9.52907
194 1 -1.1104 4.28231 2.6413 9.56977
195 2 2.2208 2.54201 -1.72692 10.699
196 2 2.2208 2.55966 4.07942 10.8734
197 1 -1.1104 4.06362 -0.283026 12.2183
198 1 -1.1104 4.04486 -0.157698 9.404
81 1 -1.1104 12.2411 16.7295 12.3233
183 1 -1.1104 6.94252 2.81883 9.3763
8830 2 2.2208 -0.203766 4.02292 8.00979
8670 2 2.2208 -0.307879 15.2521 8.07817
229 1 -1.1104 9.36471 16.6836 12.3714
8898 2 2.2208 -0.240062 9.81876 8.09022
8227 2 2.2208 8.3995 -4.28912 7.94401
27 1 -1.1104 12.368 19.6449 12.1569
182 1 -1.1104 6.85428 -2.81803 9.54136
171 1 -1.1104 6.82833 -0.0704275 6.71072
168 1 -1.1104 6.82559 -2.83683 6.76998
178 1 -1.1104 6.94964 -2.85873 12.263
205 1 -1.1104 12.5108 -2.71532 6.61044
207 1 -1.1104 12.5491 0.0689858 6.56792
179 1 -1.1104 6.63764 2.81525 12.2856
189 1 -1.1104 6.88714 -0.0255256 9.42287
185 1 -1.1104 6.88257 -0.0131873 12.255
211 2 2.2208 11.07 1.28065 10.8506
212 1 -1.1104 12.4358 -2.98673 12.1907
213 1 -1.1104 12.4361 2.73618 12.3576
214 1 -1.1104 12.4963 -2.84598 9.34833
215 1 -1.1104 12.4894 2.6584 9.40188
216 1 -1.1104 12.443 -0.16349 12.2799
217 2 2.2208 11.1099 -1.42744 8.01073
218 2 2.2208 11.0872 4.11134 7.9132
219 1 -1.1104 12.3894 -0.0628162 9.31087
220 1 -1.1104 9.66954 -2.88779 12.102
221 1 -1.1104 9.51949 2.70687 12.3058
222 2 2.2208 8.26416 1.31861 8.05634
223 1 -1.1104 9.76668 -2.81037 9.35017
224 1 -1.1104 9.71047 2.58577 9.52416
225 2 2.2208 8.36551 -1.52987 10.7868
226 2 2.2208 8.16451 4.19732 10.8198
227 1 -1.1104 9.71169 -0.0252753 12.1358
228 1 -1.1104 9.62766 -0.149998 9.31967
234 1 -1.1104 0.993878 8.20249 6.79436
8319 2 2.2208 8.42651 -4.27943 13.6208
8284 2 2.2208 5.302 -4.19642 5.26645
316 2 2.2208 2.63763 4.04853 -0.617554
62 1 -1.1104 1.30826 11.1217 6.57775
240 2 2.2208 5.3123 6.86845 10.9214
241 2 2.2208 5.41813 12.6812 10.8111
242 1 -1.1104 1.20883 8.19315 12.3803
244 1 -1.1104 1.07946 8.43411 9.50965
246 1 -1.1104 1.16085 5.38729 12.2658
247 1 -1.1104 1.13489 11.1262 12.0752
250 2 2.2208 5.35879 9.7388 8.06676
251 1 -1.1104 1.26174 5.49546 9.44534
252 1 -1.1104 1.0169 11.2871 9.38587
255 1 -1.1104 4.07485 8.29763 12.2362
256 2 2.2208 2.56585 6.8227 8.0754
257 2 2.2208 2.55927 12.5206 8.00837
258 1 -1.1104 3.92873 8.38238 9.38586
259 2 2.2208 2.62477 9.72336 10.8161
260 1 -1.1104 3.94142 5.49425 12.331
261 1 -1.1104 3.83149 11.1026 12.3277
262 1 -1.1104 3.83181 5.4805 9.40659
263 1 -1.1104 3.89879 11.1922 9.39425
53 1 -1.1104 6.52371 16.6105 12.1201
313 2 2.2208 8.25475 6.92164 13.6803
269 1 -1.1104 9.8612 5.65346 6.60239
65 1 -1.1104 7.00965 11.1387 6.58496
253 1 -1.1104 6.76536 5.72202 9.34707
248 1 -1.1104 6.62403 5.55645 12.2421
90 1 -1.1104 12.5151 11.1231 6.5923
243 1 -1.1104 6.74986 8.35681 12.1254
254 1 -1.1104 6.79291 11.2484 9.3791
249 1 -1.1104 6.67795 11.2047 12.088
245 1 -1.1104 6.80275 8.36329 9.48846
264 1 -1.1104 9.57091 11.0698 9.37766
268 1 -1.1104 9.58261 5.57726 9.40876
270 1 -1.1104 9.56572 11.0034 12.1842
271 1 -1.1104 9.5959 5.33342 12.258
272 2 2.2208 8.14129 9.80231 10.7818
273 1 -1.1104 9.62933 8.29342 9.43692
274 2 2.2208 8.22869 12.5642 8.04441
275 2 2.2208 8.28669 6.88667 7.99993
276 2 2.2208 10.9799 6.89937 10.9137
277 2 2.2208 11.0288 12.5541 10.8366
278 1 -1.1104 12.3733 8.32993 12.2036
279 1 -1.1104 12.3379 8.23496 9.4191
280 1 -1.1104 12.4268 5.56251 12.2914
281 1 -1.1104 12.3732 11.154 12.2407
282 2 2.2208 11.026 9.61544 8.01755
283 1 -1.1104 12.2476 5.5037 9.38518
284 1 -1.1104 12.4135 11.2343 9.47017
285 1 -1.1104 9.62848 8.22331 12.2822
112 1 -1.1104 6.69779 19.4661 6.63633
8829 2 2.2208 -0.091286 6.80229 5.15112
83 2 2.2208 11.0881 20.9855 8.092
296 1 -1.1104 6.69578 19.5087 12.3128
104 1 -1.1104 12.4576 16.7963 9.57398
126 1 -1.1104 3.86554 19.4503 6.60234
124 1 -1.1104 3.97823 13.9496 6.67205
117 1 -1.1104 1.11401 16.7366 6.58741
108 1 -1.1104 1.11821 14.0166 6.62217
133 1 -1.1104 4.07107 16.7746 6.70238
29 2 2.2208 2.39671 15.2763 10.8737
30 2 2.2208 2.45466 20.9488 10.8382
51 1 -1.1104 3.81067 16.7304 12.3141
52 1 -1.1104 1.00952 16.778 12.177
200 1 -1.1104 1.14926 13.9367 12.2674
202 1 -1.1104 3.96377 13.9866 9.26872
203 1 -1.1104 3.75892 16.6633 9.49172
204 2 2.2208 2.54988 18.0536 8.04918
232 1 -1.1104 3.93416 19.403 9.3173
233 2 2.2208 5.11475 18.1533 10.7951
286 1 -1.1104 3.97453 19.7054 12.1285
287 1 -1.1104 3.83131 13.8021 11.9916
291 1 -1.1104 1.08728 19.6997 9.60196
292 1 -1.1104 0.97785 16.7273 9.39955
293 2 2.2208 5.18075 20.9256 8.09752
294 1 -1.1104 1.03042 14.0093 9.44784
295 2 2.2208 5.45444 15.3396 8.03463
298 1 -1.1104 1.22001 19.545 12.2574
289 1 -1.1104 6.67311 16.726 9.4095
288 1 -1.1104 6.63052 19.4839 9.52425
105 1 -1.1104 9.45962 13.9764 12.3058
137 1 -1.1104 9.64454 13.858 9.47308
201 2 2.2208 8.02785 20.9219 10.9229
156 1 -1.1104 9.60759 19.5495 6.67819
82 2 2.2208 11.1027 15.327 8.13764
135 1 -1.1104 9.44625 19.4384 12.2652
50 1 -1.1104 12.3172 19.5849 9.52258
154 1 -1.1104 9.70478 13.9589 6.68316
143 1 -1.1104 12.5599 13.9513 6.50121
199 2 2.2208 8.13801 15.4543 10.783
25 2 2.2208 10.8634 18.2153 10.8677
26 1 -1.1104 12.3511 13.863 12.2215
149 1 -1.1104 12.3359 16.7799 6.67489
290 1 -1.1104 6.81588 13.9545 9.39227
165 1 -1.1104 9.42871 19.4527 9.50111
9221 2 2.2208 -0.175941 6.86384 -0.560479
299 2 2.2208 11.1257 4.13005 13.7134
312 2 2.2208 5.32965 9.67132 13.5428
433 2 2.2208 2.42247 12.4584 13.7132
311 2 2.2208 2.7027 6.94302 13.5911
308 2 2.2208 5.29386 4.03818 13.7789
524 2 2.2208 10.9246 18.1679 -0.55198
307 2 2.2208 2.62278 1.20923 13.5182
358 2 2.2208 8.18818 15.3103 -0.419172
317 2 2.2208 11.1321 1.36306 -0.504424
460 2 2.2208 8.1894 12.5531 13.631
521 2 2.2208 10.884 21.0227 13.766
314 2 2.2208 5.46949 1.37447 -0.524119
394 2 2.2208 2.4822 20.9764 -0.413455
9219 2 2.2208 -0.399492 20.8376 13.7158
8994 2 2.2208 -0.262662 -1.54542 13.4944
322 2 2.2208 5.32192 1.17983 16.4174
323 1 -1.1104 1.29616 -3.05063 17.6944
324 1 -1.1104 1.15472 2.49997 17.8474
327 1 -1.1104 1.25226 -2.81 14.9366
329 1 -1.1104 1.3102 2.59834 14.9602
335 1 -1.1104 1.17547 -0.297267 17.6883
337 2 2.2208 5.48399 -1.55064 19.1973
338 2 2.2208 5.41792 4.19878 19.151
339 1 -1.1104 1.26116 -0.230783 14.8874
343 1 -1.1104 4.00423 -2.94927 17.8984
344 1 -1.1104 4.01984 2.6242 17.7835
345 2 2.2208 2.65982 1.27028 19.1659
346 1 -1.1104 4.09779 -2.98774 15.0926
348 1 -1.1104 4.00199 2.5743 15.0567
350 2 2.2208 2.58323 -1.541 16.3556
352 1 -1.1104 4.02613 -0.136518 17.6917
353 1 -1.1104 4.05992 -0.235283 15.0005
351 2 2.2208 2.65366 3.90124 16.4717
9110 2 2.2208 -0.223659 -1.56055 19.0497
349 1 -1.1104 4.01173 2.78751 20.5491
340 1 -1.1104 1.28853 -0.137905 20.4465
9032 2 2.2208 -0.256966 1.30178 16.3771
9075 2 2.2208 -0.233035 4.04347 24.7268
9248 2 2.2208 13.8912 9.7404 22.0068
319 2 2.2208 8.29735 4.07102 27.7019
332 1 -1.1104 6.93332 -2.94999 20.6098
9033 2 2.2208 -0.243859 3.99188 19.3949
9028 2 2.2208 -0.155842 18.1063 22.1647
325 1 -1.1104 6.70411 -2.95039 17.8769
341 1 -1.1104 6.86698 -0.147002 15.0043
331 1 -1.1104 7.04683 -3.02985 15.1156
333 1 -1.1104 6.74792 2.64868 14.9276
326 1 -1.1104 6.79849 2.73354 17.6132
336 1 -1.1104 6.79209 -0.0874588 17.9215
365 2 2.2208 11.0568 1.2097 16.4346
366 1 -1.1104 12.4352 -2.81249 17.7643
367 1 -1.1104 12.443 2.65027 17.8355
368 1 -1.1104 12.4195 -3.10739 14.9772
370 1 -1.1104 12.5325 2.71094 15.0339
372 1 -1.1104 12.5211 -0.0484126 17.916
373 2 2.2208 11.0267 -1.40882 19.3598
374 2 2.2208 11.0199 4.01966 19.3069
375 1 -1.1104 12.5373 -0.206288 15.1236
377 1 -1.1104 9.64221 -2.91714 17.9988
378 1 -1.1104 9.65576 2.58064 17.8555
379 2 2.2208 8.1461 1.36301 19.1799
380 1 -1.1104 9.67392 -2.90013 14.9518
382 1 -1.1104 9.71335 2.62457 15.0615
384 2 2.2208 8.27654 -1.5395 16.4698
385 2 2.2208 8.16797 4.04708 16.3733
386 1 -1.1104 9.65015 -0.108174 17.9113
387 1 -1.1104 9.63064 -0.0409453 14.9401
320 2 2.2208 5.42206 6.83846 27.7037
9216 2 2.2208 -0.251274 15.3121 19.3013
369 1 -1.1104 12.5131 -2.85052 20.6657
376 1 -1.1104 12.4074 -0.0423259 20.7288
388 1 -1.1104 9.68714 -0.141163 20.6956
9029 2 2.2208 -0.215387 20.9949 24.8824
9243 2 2.2208 -0.336517 9.61251 19.1694
9249 2 2.2208 -0.296146 12.4381 27.8168
398 2 2.2208 5.34655 6.87508 16.3963
399 2 2.2208 5.23403 12.4106 16.3879
400 1 -1.1104 1.07362 8.24656 17.8042
402 1 -1.1104 1.16378 8.28364 15.1075
406 1 -1.1104 1.30846 5.30224 17.71
407 1 -1.1104 1.27396 11.1123 17.677
410 2 2.2208 5.44023 9.71389 19.3357
411 1 -1.1104 1.24115 5.47703 14.9812
413 1 -1.1104 0.964496 11.1063 14.9583
419 1 -1.1104 3.85966 8.19945 17.6641
420 2 2.2208 2.49732 6.80669 19.0665
421 2 2.2208 2.63488 12.6298 19.3327
422 1 -1.1104 4.03285 8.39701 14.9064
424 2 2.2208 2.50765 9.54107 16.4418
425 1 -1.1104 3.98663 5.46955 17.6972
426 1 -1.1104 3.97237 11.0429 17.9495
427 1 -1.1104 3.97406 5.48806 15.009
429 1 -1.1104 3.93131 11.1478 14.9979
401 1 -1.1104 6.6973 8.39333 17.8742
9244 2 2.2208 -0.283965 6.77623 16.3944
417 1 -1.1104 6.74078 11.0841 14.8962
494 2 2.2208 2.53719 18.1649 13.6668
412 1 -1.1104 1.23779 5.47924 20.5591
318 2 2.2208 8.28197 -1.49082 27.7222
9275 2 2.2208 -0.189336 6.82458 22.0601
495 2 2.2208 5.28065 21.0557 13.6108
408 1 -1.1104 6.67917 5.48847 17.7544
409 1 -1.1104 6.71539 11.2464 17.9408
415 1 -1.1104 6.73383 5.56223 14.9663
404 1 -1.1104 6.68306 8.42068 15.0392
434 2 2.2208 11.0116 6.927 16.3828
435 2 2.2208 10.9624 12.4457 16.4651
436 1 -1.1104 12.3642 8.24224 17.6912
437 1 -1.1104 12.2067 8.35348 15.0175
439 1 -1.1104 12.38 5.43808 17.8502
440 1 -1.1104 12.341 11.0223 17.9145
441 2 2.2208 10.9296 9.68427 19.3222
442 1 -1.1104 12.3267 5.52828 15.0485
444 1 -1.1104 12.434 11.1007 15.0895
446 1 -1.1104 9.48258 8.29565 17.7751
447 2 2.2208 8.1328 6.90334 19.0837
448 2 2.2208 8.08661 12.4833 19.3282
449 1 -1.1104 9.39293 8.37997 15.1116
451 2 2.2208 8.15783 9.82278 16.53
452 1 -1.1104 9.63353 5.52797 17.7735
453 1 -1.1104 9.5203 11.0699 18.0016
454 1 -1.1104 9.60176 5.51003 15.0296
456 1 -1.1104 9.61825 11.1473 15.0423
587 1 -1.1104 12.308 19.6932 26.1023
589 2 2.2208 11.0975 15.3466 24.9386
418 1 -1.1104 6.75936 11.1539 20.7333
457 1 -1.1104 9.61207 11.2022 20.7521
443 1 -1.1104 12.2675 5.75229 20.5977
438 1 -1.1104 12.3723 8.52675 20.5999
405 1 -1.1104 6.6771 8.37149 20.5878
450 1 -1.1104 9.5272 8.33853 20.7015
508 1 -1.1104 12.4248 16.8507 20.747
616 2 2.2208 5.52531 12.3707 27.8141
461 2 2.2208 5.42426 18.1311 16.3476
462 1 -1.1104 1.06321 13.9835 18.0201
463 1 -1.1104 1.1171 19.4846 17.8309
466 1 -1.1104 1.24696 14.0666 15.102
468 1 -1.1104 1.21449 19.6109 14.9945
474 1 -1.1104 1.25324 16.739 17.933
476 2 2.2208 5.46076 15.3037 19.1256
477 2 2.2208 5.34786 20.8602 19.2236
478 1 -1.1104 1.17651 16.7903 15.1448
482 1 -1.1104 3.98899 13.8468 17.8636
483 1 -1.1104 3.92687 19.6158 17.8757
484 2 2.2208 2.62421 18.0202 19.2783
485 1 -1.1104 3.89792 13.9929 15.021
487 1 -1.1104 3.91913 19.5247 14.9544
489 2 2.2208 2.61385 15.4152 16.4814
490 2 2.2208 2.56125 20.8605 16.3614
491 1 -1.1104 4.08349 16.8324 17.8094
492 1 -1.1104 3.96803 16.7987 15.0223
475 1 -1.1104 6.85797 16.6908 17.8289
470 1 -1.1104 6.70961 13.9714 15.0337
464 1 -1.1104 6.7619 13.912 17.95
488 1 -1.1104 3.95875 19.4375 20.7066
479 1 -1.1104 1.12213 16.6428 20.7636
467 1 -1.1104 1.23631 13.8966 20.7567
469 1 -1.1104 1.18187 19.3762 20.6717
473 1 -1.1104 6.68159 19.5958 20.6375
8457 2 2.2208 8.18582 -4.27574 19.2602
363 1 -1.1104 6.80235 13.7987 23.5498
471 1 -1.1104 6.79696 13.8483 20.7411
472 1 -1.1104 6.71889 19.5264 14.9569
480 1 -1.1104 6.70252 16.6492 15.1211
465 1 -1.1104 6.7539 19.5347 17.8454
497 2 2.2208 10.9136 18.169 16.5385
498 1 -1.1104 12.4017 14.0127 17.9473
499 1 -1.1104 12.4028 19.5514 17.8901
500 1 -1.1104 12.3251 13.8663 15.0395
502 1 -1.1104 12.3939 19.3986 15.0557
504 1 -1.1104 12.3955 16.7141 17.9605
505 2 2.2208 10.8693 15.3389 19.2269
506 2 2.2208 11.0051 21.0283 19.3047
507 1 -1.1104 12.415 16.626 15.0796
509 1 -1.1104 9.53514 13.8079 17.9542
510 1 -1.1104 9.435 19.4632 18.0167
511 2 2.2208 8.2045 18.0864 19.3338
512 1 -1.1104 9.52388 13.8399 15.1158
514 1 -1.1104 9.51203 19.567 15.0872
516 2 2.2208 8.07148 15.239 16.5403
517 2 2.2208 8.22284 20.8353 16.5179
518 1 -1.1104 9.49706 16.611 17.9307
519 1 -1.1104 9.53943 16.6245 15.1458
503 1 -1.1104 12.3276 19.6596 20.5585
515 1 -1.1104 9.41405 19.5766 20.9474
9247 2 2.2208 -0.18137 9.71235 24.8988
330 1 -1.1104 1.28051 2.62313 20.4705
328 1 -1.1104 1.17922 -2.82734 20.5214
618 1 -1.1104 12.4043 16.8099 26.3835
8382 2 2.2208 8.15694 -4.17142 24.8495
347 1 -1.1104 4.02629 -2.99481 20.6924
9076 2 2.2208 -0.249593 1.05407 21.9462
354 1 -1.1104 4.08558 0.0359493 20.5531
525 2 2.2208 5.51224 1.37234 22.0066
526 1 -1.1104 1.15462 -3.04054 23.4021
527 1 -1.1104 1.11321 2.66643 23.2439
530 1 -1.1104 1.31079 -2.86162 26.2322
531 1 -1.1104 1.16355 2.63341 26.1162
534 1 -1.1104 1.30506 -0.134842 23.2661
536 2 2.2208 5.36079 -1.49179 24.8711
537 2 2.2208 5.42799 4.09461 24.7198
538 1 -1.1104 1.09791 -0.116641 26.0888
540 1 -1.1104 4.01185 -2.85523 23.5542
541 1 -1.1104 3.9684 2.6482 23.4378
542 2 2.2208 2.57825 1.26572 24.6837
543 1 -1.1104 4.11634 -2.99097 26.326
544 1 -1.1104 4.01209 2.69502 26.1814
545 2 2.2208 2.63011 -1.40482 21.8637
546 2 2.2208 2.64202 4.00003 21.9848
547 1 -1.1104 4.16861 -0.0279695 23.2661
548 1 -1.1104 4.03178 -0.0332548 26.0767
360 2 2.2208 -0.0733185 -1.53844 24.8399
496 2 2.2208 5.30512 15.2224 13.4721
529 1 -1.1104 6.82793 2.81662 23.4531
357 1 -1.1104 9.60034 16.8012 23.4709
8453 2 2.2208 2.58289 -4.40412 24.7528
614 2 2.2208 8.10014 18.112 24.8448
533 1 -1.1104 6.8663 2.68981 26.2333
342 1 -1.1104 6.9445 -0.0496121 20.5614
535 1 -1.1104 6.71677 -0.0396589 23.5176
528 1 -1.1104 6.76343 -2.66343 23.3648
539 1 -1.1104 6.7856 -0.126334 26.283
334 1 -1.1104 6.86522 2.71356 20.605
371 1 -1.1104 12.3152 2.88546 20.7056
383 1 -1.1104 9.61183 2.61249 20.6062
532 1 -1.1104 6.79527 -2.8372 26.2343
381 1 -1.1104 9.62815 -2.85392 20.7006
561 2 2.2208 11.0305 1.3837 22.0392
562 1 -1.1104 12.5711 -2.97192 23.5096
563 1 -1.1104 12.47 2.71262 23.5381
564 1 -1.1104 12.4663 -2.78966 26.3242
565 1 -1.1104 12.4407 2.83366 26.2061
566 1 -1.1104 12.5197 -0.120056 23.4856
567 2 2.2208 11.0623 -1.44737 24.8463
568 2 2.2208 10.9955 4.07834 24.7006
569 1 -1.1104 12.4641 7.28617e-06 26.1515
570 1 -1.1104 9.59237 -2.81886 23.6083
571 1 -1.1104 9.55033 2.72959 23.3694
572 2 2.2208 8.23847 1.23161 24.9697
573 1 -1.1104 9.50314 -2.92082 26.3165
574 1 -1.1104 9.71008 2.67603 26.1497
575 2 2.2208 8.19962 -1.37905 22.0271
576 2 2.2208 8.28857 4.08208 21.9912
577 1 -1.1104 9.61433 -0.048068 23.5445
578 1 -1.1104 9.71982 -0.110664 26.2607
501 1 -1.1104 12.3571 14.0536 20.6838
361 2 2.2208 8.11595 20.9889 22.1052
520 1 -1.1104 9.5381 16.8651 20.5749
513 1 -1.1104 9.56588 14.044 20.8079
9222 2 2.2208 -0.207664 12.3735 22.058
430 1 -1.1104 3.88142 11.2526 20.7149
428 1 -1.1104 4.06287 5.48602 20.5577
403 1 -1.1104 1.21635 8.15926 20.6039
414 1 -1.1104 1.11745 10.9579 20.5414
423 1 -1.1104 4.06615 8.36328 20.4222
590 2 2.2208 5.37255 6.94118 21.8685
591 2 2.2208 5.29006 12.5757 22.1738
592 1 -1.1104 1.21939 8.20186 23.4051
594 1 -1.1104 1.33619 8.18923 26.2387
596 1 -1.1104 1.10336 5.39379 23.3511
597 1 -1.1104 1.18644 10.9816 23.3476
600 2 2.2208 5.43059 9.66238 24.8294
601 1 -1.1104 1.18138 5.3404 26.1083
602 1 -1.1104 1.18273 11.0004 26.2917
605 1 -1.1104 4.12224 8.34608 23.3134
606 2 2.2208 2.61351 6.91304 24.7768
607 2 2.2208 2.56669 12.5406 24.9414
608 1 -1.1104 3.90163 8.2668 26.3783
609 2 2.2208 2.56639 9.67547 21.9856
610 1 -1.1104 3.85856 5.48515 23.3265
611 1 -1.1104 4.01377 11.1197 23.6074
612 1 -1.1104 4.03616 5.53645 26.1825
613 1 -1.1104 3.97745 11.0535 26.4217
603 1 -1.1104 6.84335 5.39052 26.1456
599 1 -1.1104 6.84255 11.1306 23.5486
416 1 -1.1104 6.8176 5.66246 20.5924
619 1 -1.1104 9.78258 13.9689 23.5109
558 2 2.2208 10.9679 18.2193 22.1585
588 1 -1.1104 12.3533 16.8686 23.5582
598 1 -1.1104 6.73817 5.54553 23.4284
593 1 -1.1104 6.86028 8.3233 23.4396
455 1 -1.1104 9.45897 5.49213 20.5476
595 1 -1.1104 6.79388 8.18662 26.2491
604 1 -1.1104 6.86163 11.0575 26.3553
445 1 -1.1104 12.2552 11.156 20.7288
621 1 -1.1104 9.66219 11.1434 26.3439
622 1 -1.1104 9.65543 5.61274 26.2208
623 1 -1.1104 9.68193 11.0978 23.5444
624 1 -1.1104 9.67715 5.59662 23.2053
625 2 2.2208 8.11285 9.64454 22.0298
626 1 -1.1104 9.59822 8.40739 26.1999
627 2 2.2208 8.35135 12.5911 24.9302
628 2 2.2208 8.2222 6.87818 24.817
629 2 2.2208 10.9221 6.99934 22.0944
630 2 2.2208 11.0006 12.5384 22.13
631 1 -1.1104 12.2636 8.32213 23.5105
632 1 -1.1104 12.4584 8.28183 26.2793
633 1 -1.1104 12.3236 5.37419 23.3739
634 1 -1.1104 12.4292 11.1991 23.4481
635 2 2.2208 11.0498 9.66115 24.9253
636 1 -1.1104 12.3201 5.60432 26.1534
637 1 -1.1104 12.3891 11.0435 26.244
638 1 -1.1104 9.62865 8.37093 23.3785
586 1 -1.1104 12.4434 13.8305 26.2694
9070 2 2.2208 -0.259487 15.1865 24.9539
493 1 -1.1104 3.96513 16.5905 20.4958
486 1 -1.1104 4.0429 13.9529 20.78
8386 2 2.2208 10.943 -4.24922 16.5422
581 1 -1.1104 6.73859 19.3851 26.2778
556 1 -1.1104 6.85962 16.6714 23.6773
551 1 -1.1104 6.75047 13.9357 26.4473
355 2 2.2208 5.32091 18.1367 22.1097
364 2 2.2208 5.36143 15.2753 25.0308
393 1 -1.1104 1.14483 13.8624 23.4809
395 2 2.2208 5.26046 20.8358 24.9701
431 1 -1.1104 1.12938 13.8334 26.3501
432 1 -1.1104 1.20299 16.5247 26.3979
458 1 -1.1104 1.09665 19.636 26.2898
459 1 -1.1104 1.16022 19.4102 23.5405
550 1 -1.1104 4.06571 14.0016 23.6038
552 2 2.2208 2.67264 15.2775 22.0896
553 2 2.2208 2.52298 20.9431 22.0435
554 1 -1.1104 4.07393 16.7245 23.3767
555 1 -1.1104 1.35648 16.6214 23.6362
579 1 -1.1104 3.92939 19.5214 23.5786
582 1 -1.1104 3.85755 14.0192 26.4169
583 1 -1.1104 3.92448 16.7141 26.273
584 2 2.2208 2.60178 18.0964 25.0285
585 1 -1.1104 3.86658 19.5661 26.3996
481 1 -1.1104 6.68409 16.6695 20.7994
549 1 -1.1104 6.6804 16.7593 26.44
617 2 2.2208 10.9846 20.9244 24.7664
620 1 -1.1104 9.33847 19.6911 23.7058
560 1 -1.1104 12.6801 19.3966 23.276
390 1 -1.1104 9.5053 19.4124 26.2777
389 2 2.2208 8.1767 15.2228 22.0399
580 1 -1.1104 9.67352 13.9016 26.2949
396 1 -1.1104 6.65048 19.5256 23.4792
559 1 -1.1104 12.4843 14.0025 23.4701
356 1 -1.1104 9.55006 16.7668 26.2364
8454 2 2.2208 5.42739 -4.27094 21.9734
523 2 2.2208 7.96732 18.0945 13.5879
9215 2 2.2208 -0.165176 20.8463 19.2589
391 2 2.2208 2.52614 15.2773 27.8841
615 2 2.2208 2.6072 9.61973 27.7601
315 2 2.2208 2.66664 -1.67942 27.7109
392 2 2.2208 5.32664 18.1518 27.8779
321 2 2.2208 11.0587 6.83719 27.611
230 2 2.2208 10.9685 9.72236 13.6584
17324 2 2.2208 -0.249585 -4.43178 27.6352
306 2 2.2208 5.52013 -1.58367 13.4286
8987 2 2.2208 -0.231743 4.10388 13.5121
640 2 2.2208 8.27959 9.66048 27.6673
359 2 2.2208 -0.210593 1.27219 27.5978
310 2 2.2208 11.0196 -1.41566 13.5095
522 2 2.2208 10.8471 15.3068 13.6621
9035 2 2.2208 -0.284894 17.8609 27.796
8312 2 2.2208 5.46763 -4.28078 27.6726
639 2 2.2208 10.9422 12.4264 27.697
641 2 2.2208 5.29367 23.6912 5.1795
642 2 2.2208 5.29981 29.3052 5.15765
643 1 -1.1104 1.03509 25.2649 0.901984
644 1 -1.1104 1.19005 24.9818 3.79608
645 1 -1.1104 1.16855 22.4332 1.03864
646 1 -1.1104 1.16473 27.964 0.929881
647 2 2.2208 5.32065 26.6084 2.29121
648 1 -1.1104 1.30268 22.3658 3.83303
649 1 -1.1104 0.992745 27.8953 3.79373
650 1 -1.1104 3.95586 25.2305 0.979976
651 2 2.2208 2.63081 23.7136 2.43873
652 2 2.2208 2.33078 29.324 2.39245
653 1 -1.1104 4.03504 25.0957 3.79861
654 2 2.2208 2.58258 26.5306 5.14671
655 1 -1.1104 3.89552 22.3418 1.01248
656 1 -1.1104 3.89543 27.881 0.97267
657 1 -1.1104 4.03534 22.3096 3.8183
658 1 -1.1104 3.82058 27.948 3.84007
930 2 2.2208 8.07312 43.3903 10.8198
667 1 -1.1104 6.58147 27.9839 3.80885
666 1 -1.1104 6.7886 22.3196 3.88756
783 1 -1.1104 6.67241 25.0724 6.68989
785 1 -1.1104 1.07438 27.9823 6.71557
790 1 -1.1104 3.76844 27.9365 6.78178
1472 1 -1.1104 6.72916 47.6413 12.2534
1312 1 -1.1104 12.2769 47.5675 1.13396
9664 2 2.2208 -0.361008 26.5399 2.39556
9668 2 2.2208 13.7255 46.2139 7.99869
781 1 -1.1104 12.3682 39.2822 9.46816
665 1 -1.1104 6.76447 27.9902 0.988809
663 1 -1.1104 6.80824 24.9853 3.87676
664 1 -1.1104 6.80025 22.2511 0.903132
662 1 -1.1104 6.79634 25.1839 1.12058
668 2 2.2208 10.963 23.6525 5.15607
669 2 2.2208 10.7311 29.2287 5.14047
670 1 -1.1104 12.2478 25.1194 1.1191
671 1 -1.1104 12.3019 25.1017 3.83575
672 1 -1.1104 12.4262 22.4068 1.08671
673 1 -1.1104 12.3277 27.9833 1.04115
674 2 2.2208 10.9441 26.5212 2.44197
675 1 -1.1104 12.4665 22.2772 3.94241
676 1 -1.1104 12.135 27.7994 4.06059
677 1 -1.1104 9.47014 25.002 0.913682
678 2 2.2208 8.1786 23.6342 2.34919
679 2 2.2208 8.07014 29.4181 2.3632
680 1 -1.1104 9.56641 25.0775 3.79254
681 2 2.2208 7.95721 26.4519 5.22171
682 1 -1.1104 9.82569 22.1402 0.974896
683 1 -1.1104 9.68162 27.9204 1.03579
684 1 -1.1104 9.66361 22.3224 3.9608
685 1 -1.1104 9.31892 27.9291 3.66118
787 1 -1.1104 6.51189 27.8828 6.5554
818 1 -1.1104 9.39877 24.9493 6.63711
815 1 -1.1104 12.2837 25.1519 6.69492
926 1 -1.1104 9.43889 44.9265 9.27722
9667 2 2.2208 13.8289 46.3962 2.57699
689 2 2.2208 5.2239 34.9465 5.16392
690 1 -1.1104 1.09521 30.8554 1.11494
691 1 -1.1104 1.17042 36.3745 0.995448
693 1 -1.1104 1.20827 30.7316 3.88571
694 1 -1.1104 1.24327 36.2091 3.82424
696 1 -1.1104 1.05983 33.7114 0.918415
697 2 2.2208 5.3155 32.194 2.45284
698 2 2.2208 5.22546 37.83 2.31113
699 1 -1.1104 1.19285 33.6255 3.74898
701 1 -1.1104 3.81162 30.6388 0.964916
702 1 -1.1104 3.83173 36.2849 1.00282
703 2 2.2208 2.45823 35.0494 2.34492
704 1 -1.1104 3.90716 30.7883 3.87354
705 1 -1.1104 3.99806 36.4274 3.70097
706 2 2.2208 2.539 32.2375 5.31404
707 2 2.2208 2.54948 37.841 5.22522
708 1 -1.1104 3.98335 33.6786 1.14269
709 1 -1.1104 3.81531 33.5305 3.8181
692 1 -1.1104 6.55767 36.4238 0.991969
9665 2 2.2208 -0.294536 29.4334 5.46566
715 1 -1.1104 6.71519 33.4365 1.06054
714 1 -1.1104 6.69159 30.7488 3.69468
9683 2 2.2208 -0.28754 46.2555 10.886
711 1 -1.1104 9.50211 41.8872 6.66346
841 1 -1.1104 4.09219 30.7047 6.56329
835 1 -1.1104 1.0903 30.9079 6.75338
9666 2 2.2208 -0.285616 23.7209 5.25843
9565 2 2.2208 13.7671 37.8667 10.7302
695 1 -1.1104 6.77576 36.4977 3.67403
713 1 -1.1104 6.56801 30.6792 1.09234
700 1 -1.1104 6.68928 33.6898 3.84126
716 2 2.2208 10.9117 34.8266 5.24082
717 1 -1.1104 12.2829 30.7656 1.01363
718 1 -1.1104 12.3142 36.3803 1.09249
719 1 -1.1104 12.3123 30.6484 3.90934
720 1 -1.1104 12.27 36.3719 3.71355
721 1 -1.1104 12.4208 33.5785 0.915749
722 2 2.2208 10.9909 32.1771 2.18471
723 2 2.2208 10.9525 37.7316 2.38118
724 1 -1.1104 12.4325 33.5028 3.71618
725 1 -1.1104 9.57418 30.6714 0.891674
726 1 -1.1104 9.49015 36.3861 0.971264
727 2 2.2208 8.12444 34.9677 2.34831
728 1 -1.1104 9.4821 30.7362 3.67516
729 1 -1.1104 9.45261 36.1662 3.59246
730 2 2.2208 8.05165 32.1229 5.06996
731 2 2.2208 8.09674 37.7481 5.21298