ITEM: TIMESTEP
30000
ITEM: NUMBER OF ATOMS
17700
ITEM: BOX BOUNDS pp pp pp
-3.6586947080153687e-01 2.7705869470801250e+01
-4.3427156043296549e+00 3.3242271560432590e+02
-3.5947793439723075e-01 2.7699477934397386e+01
ITEM: ATOMS id type q x y z
1 2 2.2208 5.56986 1.25014 5.49167
2 1 -1.1104 1.20827 -2.91018 1.21069
3 1 -1.1104 1.30829 2.70348 1.16335
6 1 -1.1104 1.30293 -2.93046 4.07787
7 1 -1.1104 1.4334 2.70223 3.90294
10 1 -1.1104 1.32958 -0.215302 1.12403
12 2 2.2208 5.47399 -1.61102 2.724
13 2 2.2208 5.40353 4.07058 2.71653
14 1 -1.1104 1.40865 -0.134594 3.97342
16 1 -1.1104 4.01326 -3.03928 1.12096
17 1 -1.1104 4.07858 2.54218 1.2533
18 2 2.2208 2.70171 1.20355 2.62604
19 1 -1.1104 4.22264 -2.89385 4.12982
20 1 -1.1104 4.27997 2.61528 4.04445
21 2 2.2208 2.55073 -1.59214 5.51364
22 2 2.2208 2.66582 4.11087 5.50297
23 1 -1.1104 4.13736 -0.226112 1.38518
24 1 -1.1104 4.19442 -0.206455 4.20701
8984 2 2.2208 -0.0407458 4.09186 2.5957
8983 2 2.2208 -0.0729789 1.34733 5.44245
316 2 2.2208 2.85938 3.98784 -0.124287
301 2 2.2208 -0.0241491 -1.66032 2.58317
81 1 -1.1104 12.5147 16.9028 12.6581
359 2 2.2208 -0.140525 1.26763 -0.153594
315 2 2.2208 2.68062 -1.57321 -0.180443
314 2 2.2208 5.62746 1.18417 -0.0684194
5 1 -1.1104 6.9161 2.64819 1.18145
4 1 -1.1104 6.95022 -2.97579 1.22534
9 1 -1.1104 6.89417 2.71106 4.18181
15 1 -1.1104 6.97785 -0.163571 3.99443
8 1 -1.1104 6.9441 -2.94957 3.99037
11 1 -1.1104 6.83634 -0.278645 1.33369
31 2 2.2208 11.0318 1.3008 5.33748
32 1 -1.1104 12.5251 -2.97447 1.29321
33 1 -1.1104 12.5773 2.66292 1.2581
34 1 -1.1104 12.4887 -3.04491 4.10429
35 1 -1.1104 12.6263 2.54957 3.99972
36 1 -1.1104 12.4941 -0.130046 1.05358
37 2 2.2208 11.1128 -1.48397 2.64669
38 2 2.2208 11.1648 4.0654 2.60773
39 1 -1.1104 12.4732 -0.207349 4.01559
40 1 -1.1104 9.81462 -2.85702 1.18515
41 1 -1.1104 9.76961 2.66354 1.3386
42 2 2.2208 8.34154 1.30341 2.58335
43 1 -1.1104 9.78478 -2.87353 3.98772
44 1 -1.1104 9.76965 2.77754 3.99234
45 2 2.2208 8.29243 -1.56383 5.41195
46 2 2.2208 8.36474 4.1051 5.45854
47 1 -1.1104 9.73039 -0.00676135 1.13759
48 1 -1.1104 9.68762 -0.197543 4.0354
136 2 2.2208 8.17634 18.185 8.37129
317 2 2.2208 11.2223 1.27793 -0.16118
319 2 2.2208 8.38757 4.03538 -0.103013
8155 2 2.2208 2.67018 -4.50602 8.28306
137 1 -1.1104 9.60159 14.0125 9.7093
8746 2 2.2208 -0.0428999 9.74125 2.78353
8899 2 2.2208 -0.11732 12.5549 5.63929
54 2 2.2208 5.4209 6.89331 5.54076
55 2 2.2208 5.54491 12.4189 5.45692
56 1 -1.1104 1.22042 8.31525 1.34388
58 1 -1.1104 1.3109 8.32013 4.13337
60 1 -1.1104 1.41557 5.41848 1.28271
61 1 -1.1104 1.33246 11.2072 1.39304
66 2 2.2208 5.57117 9.73299 2.69491
67 1 -1.1104 1.30968 5.60453 4.10553
68 1 -1.1104 1.44178 11.1992 4.20222
71 1 -1.1104 3.90276 8.20893 1.35084
72 2 2.2208 2.64452 7.03823 2.73936
73 2 2.2208 2.68519 12.6221 2.76179
74 1 -1.1104 4.13429 8.38678 4.19179
75 2 2.2208 2.80345 9.65577 5.52291
76 1 -1.1104 4.13396 5.49572 1.30228
77 1 -1.1104 4.11243 11.0206 1.35152
79 1 -1.1104 4.10744 5.4585 4.07609
80 1 -1.1104 4.17794 11.1713 4.09987
320 2 2.2208 5.56594 6.80945 0.0495176
8829 2 2.2208 -0.112831 6.98944 5.4154
616 2 2.2208 5.49794 12.4634 -0.207906
615 2 2.2208 2.68912 9.60811 0.0183736
9221 2 2.2208 -0.0623474 6.80238 -0.12607
9249 2 2.2208 -0.0768147 12.5828 -0.0957335
639 2 2.2208 11.1626 12.4517 -0.0626905
321 2 2.2208 11.1113 6.88268 -0.220643
69 1 -1.1104 6.95459 5.56318 4.17762
70 1 -1.1104 6.92255 11.1318 4.01184
63 1 -1.1104 6.91697 5.49656 1.47325
64 1 -1.1104 6.99674 11.0271 1.24953
57 1 -1.1104 6.85776 8.27898 1.36562
59 1 -1.1104 6.94622 8.27006 4.2132
84 2 2.2208 11.2015 7.10412 5.38733
85 2 2.2208 11.0635 12.4036 5.46379
86 1 -1.1104 12.4732 8.38051 1.17153
87 1 -1.1104 12.518 8.28625 3.99853
88 1 -1.1104 12.3924 5.43807 1.2383
89 1 -1.1104 12.443 11.1576 1.15313
91 2 2.2208 11.1826 9.77387 2.62099
92 1 -1.1104 12.5146 5.58115 3.9989
93 1 -1.1104 12.4662 10.9995 4.10794
94 1 -1.1104 9.70833 8.289 1.25972
95 2 2.2208 8.35289 6.98638 2.70339
96 2 2.2208 8.31341 12.4849 2.57141
97 1 -1.1104 9.89467 8.32866 3.97138
98 2 2.2208 8.36912 9.72549 5.38978
99 1 -1.1104 9.6369 5.45339 1.23573
100 1 -1.1104 9.75249 11.0122 1.16213
102 1 -1.1104 9.80295 5.70301 4.02039
103 1 -1.1104 9.63792 11.114 3.97857
65 1 -1.1104 6.92552 10.9895 6.8661
90 1 -1.1104 12.5011 11.1285 7.03682
640 2 2.2208 8.29624 9.65027 -0.225633
8804 2 2.2208 -0.227785 15.4064 2.62259
9035 2 2.2208 -0.176844 18.1048 -0.220058
8865 2 2.2208 -0.231291 18.1859 5.28236
392 2 2.2208 5.47643 18.0872 -0.189286
106 2 2.2208 5.41344 18.0108 5.41094
107 1 -1.1104 1.29584 13.978 1.21746
109 1 -1.1104 1.2502 19.6982 1.2098
113 1 -1.1104 1.3176 13.9577 4.03791
114 1 -1.1104 1.11073 19.6674 4.00723
116 1 -1.1104 1.13969 16.7969 1.28854
119 2 2.2208 5.43087 15.2599 2.59534
120 2 2.2208 5.28581 20.9293 2.62778
121 1 -1.1104 1.23519 16.7469 4.12798
123 1 -1.1104 4.0532 13.7653 1.12664
125 1 -1.1104 3.98049 19.3757 1.05695
127 2 2.2208 2.66867 18.1028 2.56922
128 1 -1.1104 4.09982 13.9886 4.0891
129 1 -1.1104 3.98477 19.4411 3.93343
130 2 2.2208 2.61192 15.3097 5.46352
131 2 2.2208 2.54375 21.0257 5.33275
132 1 -1.1104 4.21045 16.5651 1.10661
134 1 -1.1104 4.09172 16.7705 4.03894
133 1 -1.1104 4.02029 16.5645 6.75182
8697 2 2.2208 -0.165081 21.0295 2.46331
391 2 2.2208 2.70713 15.3405 -0.163891
394 2 2.2208 2.51193 21.0177 -0.208465
122 1 -1.1104 6.9071 16.5434 3.98462
138 1 -1.1104 6.69133 19.4343 1.13185
110 1 -1.1104 6.87272 13.9473 1.30353
115 1 -1.1104 6.95312 13.8607 4.0856
140 1 -1.1104 6.95015 16.6872 1.13553
139 1 -1.1104 6.82854 19.494 4.00314
141 2 2.2208 11.0549 18.0981 5.48159
142 1 -1.1104 12.5382 13.9043 1.26157
144 1 -1.1104 12.3933 19.5362 1.18146
146 1 -1.1104 12.473 13.8193 4.07354
147 1 -1.1104 12.351 19.5245 4.02206
148 1 -1.1104 12.5135 16.6734 1.37805
150 2 2.2208 11.1115 15.3429 2.71827
151 2 2.2208 10.9391 20.8935 2.58645
152 1 -1.1104 12.4931 16.6799 4.08203
153 1 -1.1104 9.74967 13.8557 1.33373
155 1 -1.1104 9.62429 19.5061 1.08365
157 2 2.2208 8.17028 18.0512 2.75595
158 1 -1.1104 9.6693 13.9369 4.0431
159 1 -1.1104 9.5569 19.5004 4.00494
160 2 2.2208 8.25784 15.3921 5.46508
161 2 2.2208 8.14126 20.9095 5.39339
162 1 -1.1104 9.77072 16.8737 1.22837
164 1 -1.1104 9.72968 16.5837 4.16515
163 1 -1.1104 9.58437 16.8549 6.99661
111 1 -1.1104 6.76313 13.8503 6.8915
557 2 2.2208 8.09944 20.7774 -0.24183
358 2 2.2208 8.3133 15.2702 -0.143467
524 2 2.2208 11.0416 18.0979 -0.147808
174 1 -1.1104 3.93328 -0.322199 7.04084
173 1 -1.1104 4.21182 2.65155 6.8542
172 1 -1.1104 4.13213 -3.01437 6.84016
166 1 -1.1104 1.34213 -2.93115 6.96603
167 1 -1.1104 1.28882 2.71935 6.79924
170 1 -1.1104 1.14172 -0.125179 6.87049
8979 2 2.2208 -0.174096 -1.61675 8.26847
8830 2 2.2208 -0.156499 3.91671 8.25494
175 2 2.2208 5.48 1.26736 11.1006
176 1 -1.1104 1.28403 -2.73409 12.4705
177 1 -1.1104 1.26427 2.80673 12.3864
180 1 -1.1104 1.32539 -3.03981 9.66678
181 1 -1.1104 1.2248 2.70916 9.6394
184 1 -1.1104 1.31457 0.0391098 12.428
186 2 2.2208 5.42095 -1.66822 8.35412
187 2 2.2208 5.49734 3.9375 8.2565
188 1 -1.1104 1.24233 -0.230124 9.7112
190 1 -1.1104 4.04583 -2.92341 12.4895
191 1 -1.1104 4.02294 2.71818 12.5559
192 2 2.2208 2.66366 1.29426 8.17812
193 1 -1.1104 3.97884 -2.92794 9.76772
194 1 -1.1104 3.91843 2.58332 9.65468
195 2 2.2208 2.65464 -1.4885 11.1069
196 2 2.2208 2.6456 4.06647 10.9275
197 1 -1.1104 4.05908 -0.0893664 12.4858
198 1 -1.1104 4.16651 -0.184256 9.80979
8980 2 2.2208 -0.139891 1.25553 11.0644
318 2 2.2208 8.34583 -1.6463 -0.306523
207 1 -1.1104 12.3805 0.0190704 7.00013
206 1 -1.1104 12.5334 2.71939 6.78461
210 1 -1.1104 9.63766 -0.127074 6.81342
171 1 -1.1104 6.74627 -0.0710425 6.96657
209 1 -1.1104 9.67628 2.64128 6.74494
205 1 -1.1104 12.5059 -2.91694 6.92963
104 1 -1.1104 12.4213 16.7869 9.64175
288 1 -1.1104 6.84778 19.7087 9.50311
169 1 -1.1104 6.99166 2.67632 6.94831
168 1 -1.1104 6.9815 -3.00705 7.07948
183 1 -1.1104 6.77855 2.6164 9.71515
182 1 -1.1104 6.8764 -3.02321 9.71543
179 1 -1.1104 6.75321 2.78398 12.5231
189 1 -1.1104 6.85131 -0.182304 9.76688
185 1 -1.1104 6.89813 -0.0452988 12.5308
208 1 -1.1104 9.66254 -3.02946 6.78479
178 1 -1.1104 6.80707 -2.80304 12.466
211 2 2.2208 11.0972 1.27344 10.9938
212 1 -1.1104 12.603 -2.9338 12.3858
213 1 -1.1104 12.4261 2.4838 12.546
214 1 -1.1104 12.4463 -2.9622 9.7081
215 1 -1.1104 12.4327 2.73784 9.64857
216 1 -1.1104 12.5652 -0.200051 12.395
217 2 2.2208 10.9828 -1.6038 8.35248
218 2 2.2208 11.0339 4.18256 8.17759
219 1 -1.1104 12.6073 -0.150525 9.68265
220 1 -1.1104 9.75633 -2.8867 12.482
221 1 -1.1104 9.53135 2.72911 12.5065
222 2 2.2208 8.32415 1.34319 8.38364
223 1 -1.1104 9.59253 -2.85689 9.70234
224 1 -1.1104 9.546 2.77845 9.60393
225 2 2.2208 8.28625 -1.48852 11.0475
226 2 2.2208 8.27881 4.1014 11.1803
227 1 -1.1104 9.73032 -0.105305 12.3552
228 1 -1.1104 9.65866 -0.0681918 9.56235
8898 2 2.2208 -0.0416952 9.70164 8.23911
8968 2 2.2208 -0.16386 6.84602 11.0124
234 1 -1.1104 1.24314 8.3655 6.81382
8891 2 2.2208 -0.111749 12.5963 11.0786
62 1 -1.1104 1.34126 11.1375 6.93916
236 1 -1.1104 1.05726 5.46843 6.89737
78 1 -1.1104 4.17869 11.0315 6.9855
238 1 -1.1104 4.13952 8.2774 7.02665
239 1 -1.1104 3.92828 5.42097 6.86971
240 2 2.2208 5.38104 6.86898 11.0824
241 2 2.2208 5.48557 12.6123 11.1195
242 1 -1.1104 1.34392 8.38418 12.4657
244 1 -1.1104 1.21365 8.23837 9.61507
246 1 -1.1104 1.17921 5.51593 12.5052
247 1 -1.1104 1.28826 11.0859 12.54
250 2 2.2208 5.59368 9.58256 8.3042
251 1 -1.1104 1.11837 5.32731 9.65932
252 1 -1.1104 1.33327 11.1388 9.8062
255 1 -1.1104 3.96772 8.47329 12.5582
256 2 2.2208 2.59553 6.68347 8.26091
257 2 2.2208 2.80396 12.4552 8.2693
258 1 -1.1104 4.06731 8.17781 9.65076
259 2 2.2208 2.65062 9.6624 11.0847
260 1 -1.1104 3.99005 5.55202 12.5027
261 1 -1.1104 4.16766 11.3998 12.3869
262 1 -1.1104 4.013 5.37652 9.65502
263 1 -1.1104 4.01222 11.1451 9.72931
101 1 -1.1104 9.66306 11.1464 6.8415
269 1 -1.1104 9.74269 5.47897 6.80786
265 1 -1.1104 12.6694 8.42384 6.95125
267 1 -1.1104 9.75663 8.394 6.75902
266 1 -1.1104 12.5579 5.597 6.75388
243 1 -1.1104 6.55266 8.46062 12.3707
245 1 -1.1104 6.86608 8.1132 9.75386
235 1 -1.1104 6.97342 8.25699 6.91652
249 1 -1.1104 6.86012 11.0697 12.444
253 1 -1.1104 7.00034 5.33488 9.8074
254 1 -1.1104 6.86544 11.088 9.48361
237 1 -1.1104 6.86161 5.50826 6.88161
248 1 -1.1104 6.76894 5.60519 12.5294
264 1 -1.1104 9.74615 11.3625 9.6437
268 1 -1.1104 9.64344 5.60533 9.69292
270 1 -1.1104 9.58805 11.1444 12.4423
271 1 -1.1104 9.74723 5.50074 12.6221
272 2 2.2208 8.20192 9.78626 11.0821
273 1 -1.1104 9.75582 8.49745 9.73595
274 2 2.2208 8.19404 12.5275 8.25844
275 2 2.2208 8.23434 6.98092 8.28198
276 2 2.2208 11.1152 6.89573 11.0925
277 2 2.2208 11.0539 12.6241 11.07
278 1 -1.1104 12.3974 8.28116 12.4992
279 1 -1.1104 12.454 8.27759 9.67852
280 1 -1.1104 12.6138 5.47758 12.4389
281 1 -1.1104 12.3711 11.1706 12.4208
282 2 2.2208 11.0118 9.72169 8.29442
283 1 -1.1104 12.4251 5.52018 9.58599
284 1 -1.1104 12.5601 11.1288 9.80014
285 1 -1.1104 9.47138 8.27018 12.5036
199 2 2.2208 8.25558 15.4685 11.112
126 1 -1.1104 4.11259 19.4495 6.74139
124 1 -1.1104 4.06201 13.929 6.85341
108 1 -1.1104 1.14937 13.9708 6.79076
117 1 -1.1104 1.20668 16.7856 6.89333
8696 2 2.2208 -0.235484 21.0105 8.26126
231 1 -1.1104 1.33921 19.5015 6.84375
8671 2 2.2208 -0.194361 18.213 11.0302
8670 2 2.2208 -0.0776679 15.4139 8.3075
29 2 2.2208 2.59313 15.287 11.0554
30 2 2.2208 2.64707 20.9632 10.9564
51 1 -1.1104 3.94673 16.7788 12.4212
52 1 -1.1104 1.1305 16.6984 12.4808
200 1 -1.1104 1.19227 13.8323 12.5223
202 1 -1.1104 4.0983 14.1614 9.74237
203 1 -1.1104 4.03661 16.8799 9.53778
204 2 2.2208 2.65154 18.0941 8.21493
232 1 -1.1104 4.09897 19.5694 9.46446
233 2 2.2208 5.47143 18.258 10.8703
286 1 -1.1104 3.89739 19.6083 12.4191
287 1 -1.1104 4.07681 13.9903 12.5728
291 1 -1.1104 1.17739 19.4916 9.56534
292 1 -1.1104 1.28668 16.7374 9.62371
293 2 2.2208 5.43767 20.9725 8.13275
294 1 -1.1104 1.25338 13.8607 9.67413
295 2 2.2208 5.55539 15.3175 8.1
298 1 -1.1104 1.04784 19.5388 12.3528
289 1 -1.1104 6.8322 16.8194 9.59316
118 1 -1.1104 6.88449 16.8056 6.71527
156 1 -1.1104 9.67062 19.5419 6.89384
149 1 -1.1104 12.3611 16.6241 6.88344
25 2 2.2208 10.9439 18.3199 11.0024
143 1 -1.1104 12.2999 13.8848 6.81037
165 1 -1.1104 9.59502 19.5115 9.70887
145 1 -1.1104 12.4965 19.4546 6.84474
135 1 -1.1104 9.61764 19.5733 12.4545
297 1 -1.1104 6.80538 14.0345 12.3043
201 2 2.2208 8.25051 21.0021 11.0335
105 1 -1.1104 9.67108 13.9456 12.6012
112 1 -1.1104 6.93081 19.5584 6.76882
154 1 -1.1104 9.60747 14.0802 6.95673
27 1 -1.1104 12.5127 19.7099 12.541
82 2 2.2208 11.0519 15.3945 8.26617
49 1 -1.1104 12.5447 14.0271 9.62265
229 1 -1.1104 9.56275 16.8182 12.4228
50 1 -1.1104 12.2928 19.6661 9.59773
26 1 -1.1104 12.3675 14.1067 12.4856
28 1 -1.1104 9.64662 16.7847 9.66508
83 2 2.2208 11.0437 20.99 8.10801
296 1 -1.1104 6.78719 19.6154 12.4107
290 1 -1.1104 6.8812 14.0153 9.59611
53 1 -1.1104 6.79847 16.8247 12.466
8226 2 2.2208 11.1583 -4.42005 11.0355
8285 2 2.2208 2.74255 -4.33101 2.72194
8157 2 2.2208 11.0459 -4.25462 5.41485
322 2 2.2208 5.4981 1.22979 16.7605
323 1 -1.1104 1.30097 -2.9677 18.1245
324 1 -1.1104 1.26022 2.67886 18.1467
327 1 -1.1104 1.32597 -2.90712 15.2475
329 1 -1.1104 1.3351 2.79162 15.1908
335 1 -1.1104 1.33063 -0.0413412 17.9685
337 2 2.2208 5.532 -1.60062 19.3678
338 2 2.2208 5.40849 4.07439 19.6203
339 1 -1.1104 1.41874 -0.155613 15.1444
343 1 -1.1104 4.05288 -2.9481 18.0943
344 1 -1.1104 4.08712 2.53819 18.1189
345 2 2.2208 2.71651 1.24822 19.4744
346 1 -1.1104 4.19446 -2.94378 15.2313
348 1 -1.1104 4.07556 2.6674 15.4171
350 2 2.2208 2.70729 -1.41735 16.7256
351 2 2.2208 2.6518 3.96584 16.7297
352 1 -1.1104 4.12853 -0.0840293 18.0661
353 1 -1.1104 4.16598 -0.130217 15.2981
9032 2 2.2208 -0.106427 1.37255 16.6224
307 2 2.2208 2.67894 1.31638 13.8924
312 2 2.2208 5.4497 9.61185 13.8983
9033 2 2.2208 -0.146904 4.0442 19.5041
9110 2 2.2208 -0.15612 -1.56217 19.5285
361 2 2.2208 8.21588 20.9825 22.2768
8345 2 2.2208 2.67367 -4.41418 19.4851
8994 2 2.2208 -0.145322 -1.53425 13.9626
8987 2 2.2208 -0.117635 4.14779 13.7671
308 2 2.2208 5.328 4.07998 13.7975
331 1 -1.1104 6.94989 -2.85268 15.1285
336 1 -1.1104 6.84976 -0.0920396 18.1975
341 1 -1.1104 6.9438 -0.197928 15.4586
333 1 -1.1104 6.83932 2.70844 15.3814
326 1 -1.1104 6.84848 2.65283 18.3138
325 1 -1.1104 6.9445 -2.73554 17.9334
365 2 2.2208 11.1383 1.25536 16.6291
366 1 -1.1104 12.5103 -2.85515 18.0149
367 1 -1.1104 12.5197 2.83288 18.0938
368 1 -1.1104 12.7451 -2.9844 15.2966
370 1 -1.1104 12.3534 2.57828 15.2881
372 1 -1.1104 12.5897 -0.127951 17.9704
373 2 2.2208 11.245 -1.48615 19.407
374 2 2.2208 11.2065 4.12776 19.5468
375 1 -1.1104 12.5395 -0.198954 15.1648
377 1 -1.1104 9.72002 -2.96732 17.9479
378 1 -1.1104 9.64615 2.74866 18.1293
379 2 2.2208 8.22811 1.27315 19.6568
380 1 -1.1104 9.77999 -2.87372 15.2635
382 1 -1.1104 9.75713 2.79217 15.222
384 2 2.2208 8.49256 -1.47958 16.5864
385 2 2.2208 8.19947 3.98938 16.7738
386 1 -1.1104 9.80149 -0.0349896 17.9548
387 1 -1.1104 9.71897 -0.144474 15.1445
588 1 -1.1104 12.4863 16.7191 23.6594
357 1 -1.1104 9.75909 16.6817 23.8163
310 2 2.2208 11.1252 -1.51926 13.8157
299 2 2.2208 11.0588 4.08051 13.8866
17403 2 2.2208 -0.116464 -4.3363 22.2422
311 2 2.2208 2.57334 6.85858 13.9441
9243 2 2.2208 -0.201247 9.67184 19.4773
398 2 2.2208 5.3522 6.84949 16.7411
399 2 2.2208 5.50943 12.5065 16.6601
400 1 -1.1104 1.28694 8.36182 18.2176
402 1 -1.1104 1.14262 8.21268 15.4151
406 1 -1.1104 1.19436 5.55188 18.2051
407 1 -1.1104 1.19626 11.1222 18.1415
410 2 2.2208 5.38858 9.78288 19.5253
411 1 -1.1104 1.20466 5.55681 15.2862
413 1 -1.1104 1.30874 10.9262 15.3204
419 1 -1.1104 4.03771 8.20919 18.1863
420 2 2.2208 2.59188 6.74451 19.4987
421 2 2.2208 2.60632 12.5355 19.5681
422 1 -1.1104 4.00974 8.13587 15.2848
424 2 2.2208 2.62159 9.80244 16.7835
425 1 -1.1104 3.81399 5.25674 18.0933
426 1 -1.1104 4.04872 11.2353 18.0423
427 1 -1.1104 4.03131 5.43107 15.1872
429 1 -1.1104 4.21377 10.9755 15.1237
9111 2 2.2208 -0.13085 12.5516 16.6951
9244 2 2.2208 -0.230998 6.91006 16.808
423 1 -1.1104 3.95969 8.23724 21.0029
309 2 2.2208 8.1286 1.34425 13.9583
433 2 2.2208 2.65657 12.5299 13.9117
9245 2 2.2208 -0.0893079 9.62155 13.9652
417 1 -1.1104 6.97336 11.2549 15.3123
409 1 -1.1104 6.96791 11.0906 18.1542
415 1 -1.1104 6.86144 5.44303 15.354
404 1 -1.1104 6.88552 8.32207 15.2183
408 1 -1.1104 6.7384 5.54012 18.1988
401 1 -1.1104 6.8954 8.36088 17.8895
434 2 2.2208 11.0177 6.80425 16.7245
435 2 2.2208 11.0715 12.5196 16.5034
436 1 -1.1104 12.5111 8.31768 18.1775
437 1 -1.1104 12.4484 8.32285 15.2945
439 1 -1.1104 12.3211 5.55233 18.2269
440 1 -1.1104 12.642 10.9414 18.1612
441 2 2.2208 11.0822 9.73598 19.5361
442 1 -1.1104 12.3538 5.54584 15.2442
444 1 -1.1104 12.5061 11.0446 15.3576
446 1 -1.1104 9.60153 8.2201 18.0709
447 2 2.2208 8.15602 6.89157 19.436
448 2 2.2208 8.25755 12.4542 19.4563
449 1 -1.1104 9.7653 8.21488 15.2648
451 2 2.2208 8.32687 9.69541 16.6214
452 1 -1.1104 9.55833 5.42588 18.0805
453 1 -1.1104 9.71441 11.1937 17.9868
454 1 -1.1104 9.59105 5.55155 15.289
456 1 -1.1104 9.71581 11.143 15.1318
313 2 2.2208 8.2641 6.89253 13.8495
230 2 2.2208 11.0942 9.6274 13.7825
9215 2 2.2208 -0.107502 20.9855 19.493
9218 2 2.2208 -0.241073 15.3706 13.9717
461 2 2.2208 5.42963 18.1452 16.7139
462 1 -1.1104 1.30801 13.8816 17.9441
463 1 -1.1104 1.30596 19.506 18.0586
466 1 -1.1104 1.09781 13.851 15.1524
468 1 -1.1104 1.25146 19.623 15.1611
474 1 -1.1104 1.19478 16.8509 18.131
476 2 2.2208 5.3744 15.3018 19.4895
477 2 2.2208 5.50315 21.0175 19.3261
478 1 -1.1104 1.22737 16.7641 15.4067
482 1 -1.1104 4.16717 13.9797 18.0273
483 1 -1.1104 4.00971 19.4925 17.9792
484 2 2.2208 2.63265 18.1089 19.4672
485 1 -1.1104 3.94031 13.8396 15.3292
487 1 -1.1104 4.04756 19.4674 15.1922
489 2 2.2208 2.59662 15.2724 16.6454
490 2 2.2208 2.59126 20.9366 16.5989
491 1 -1.1104 3.95463 16.7383 18.0797
492 1 -1.1104 4.04516 16.6702 15.286
9216 2 2.2208 -0.208731 15.325 19.4743
9217 2 2.2208 -0.251729 18.1945 16.617
496 2 2.2208 5.40817 15.411 13.795
494 2 2.2208 2.53649 18.1463 13.7911
9219 2 2.2208 -0.323685 21.0458 13.8423
480 1 -1.1104 6.87498 16.7892 15.4798
470 1 -1.1104 6.85527 14.1617 15.1601
465 1 -1.1104 6.72736 19.5012 18.03
472 1 -1.1104 6.82953 19.6253 15.2169
475 1 -1.1104 6.83547 16.5964 18.2693
464 1 -1.1104 6.9684 13.8685 18.0106
497 2 2.2208 11.0789 18.1553 16.6967
498 1 -1.1104 12.5317 13.789 18.0309
499 1 -1.1104 12.4521 19.6808 18.0791
500 1 -1.1104 12.4397 13.8862 15.1678
502 1 -1.1104 12.5024 19.5376 15.2784
504 1 -1.1104 12.4208 16.778 18.1508
505 2 2.2208 11.1212 15.1063 19.3073
506 2 2.2208 11.0091 20.9476 19.4459
507 1 -1.1104 12.5953 16.7349 15.4876
509 1 -1.1104 9.65324 13.878 17.9436
510 1 -1.1104 9.45839 19.565 17.9745
511 2 2.2208 8.29621 18.0898 19.3696
512 1 -1.1104 9.60633 13.9229 15.2789
514 1 -1.1104 9.68986 19.5793 15.2563
516 2 2.2208 8.25815 15.3506 16.582
517 2 2.2208 8.09944 20.9959 16.6785
518 1 -1.1104 9.75094 16.706 17.9989
519 1 -1.1104 9.8012 16.7714 15.2431
471 1 -1.1104 6.98653 13.8268 20.8956
523 2 2.2208 8.26702 18.217 13.8921
522 2 2.2208 11.0796 15.3991 13.7164
521 2 2.2208 10.8988 20.8802 13.8972
349 1 -1.1104 4.02591 2.6753 20.9181
340 1 -1.1104 1.20913 -0.0986718 20.7944
9075 2 2.2208 -0.0751104 4.08536 25.0993
347 1 -1.1104 4.0331 -2.83037 20.7158
354 1 -1.1104 4.19635 -0.159128 20.9147
9076 2 2.2208 -0.166738 1.19727 22.3611
328 1 -1.1104 1.28847 -2.88175 20.8724
330 1 -1.1104 1.33125 2.82309 20.9848
525 2 2.2208 5.51975 1.30716 22.3167
526 1 -1.1104 1.38156 -2.98521 23.5613
527 1 -1.1104 1.19765 2.79849 23.7256
530 1 -1.1104 1.2154 -3.00741 26.472
531 1 -1.1104 1.44351 2.69385 26.5544
534 1 -1.1104 1.30079 -0.0514645 23.6363
536 2 2.2208 5.31979 -1.60143 25.1211
537 2 2.2208 5.57048 3.92155 25.1285
538 1 -1.1104 1.33471 -0.0857295 26.3899
540 1 -1.1104 3.9894 -2.95049 23.6035
541 1 -1.1104 4.1682 2.70835 23.6576
542 2 2.2208 2.78025 1.31518 25.1822
543 1 -1.1104 4.03289 -2.93556 26.4022
544 1 -1.1104 4.3281 2.57904 26.5787
545 2 2.2208 2.74223 -1.56111 22.2692
546 2 2.2208 2.76374 4.06744 22.2969
547 1 -1.1104 3.95383 0.0143899 23.657
548 1 -1.1104 4.10389 -0.230052 26.4912
360 2 2.2208 -0.0955727 -1.42062 25.142
334 1 -1.1104 6.93704 2.74521 21.0696
539 1 -1.1104 6.84556 -0.191876 26.4358
389 2 2.2208 8.2271 15.2517 22.3012
388 1 -1.1104 9.72095 -0.171881 20.7526
371 1 -1.1104 12.5863 2.72712 20.8322
342 1 -1.1104 6.9651 -0.276952 20.9393
381 1 -1.1104 9.60367 -2.85168 20.8629
383 1 -1.1104 9.80669 2.66484 21.0257
332 1 -1.1104 6.89914 -2.97579 20.7834
535 1 -1.1104 6.85677 -0.102378 23.6461
369 1 -1.1104 12.5213 -2.96848 20.8256
376 1 -1.1104 12.5829 0.021279 20.8739
532 1 -1.1104 6.83731 -2.96452 26.4021
529 1 -1.1104 7.03779 2.705 23.7811
528 1 -1.1104 6.84062 -2.85713 23.6842
533 1 -1.1104 7.01437 2.5803 26.6885
561 2 2.2208 11.0542 1.1751 22.3467
562 1 -1.1104 12.4769 -2.93138 23.6804
563 1 -1.1104 12.4774 2.60729 23.672
564 1 -1.1104 12.5501 -3.0327 26.5576
565 1 -1.1104 12.5523 2.56457 26.5364
566 1 -1.1104 12.4562 -0.0928748 23.5668
567 2 2.2208 11.0611 -1.63 24.9988
568 2 2.2208 11.1522 4.09033 25.1874
569 1 -1.1104 12.5151 -0.205282 26.4504
570 1 -1.1104 9.70121 -3.03747 23.679
571 1 -1.1104 9.75902 2.66125 23.7667
572 2 2.2208 8.31713 1.10093 25.1446
573 1 -1.1104 9.6866 -3.11239 26.4068
574 1 -1.1104 9.81499 2.60276 26.5078
575 2 2.2208 8.23425 -1.65582 22.2952
576 2 2.2208 8.32805 4.2019 22.508
577 1 -1.1104 9.54702 -0.20989 23.6464
578 1 -1.1104 9.76627 -0.276401 26.3428
428 1 -1.1104 4.14861 5.48539 20.7981
414 1 -1.1104 1.18833 11.0585 21.083
412 1 -1.1104 1.11291 5.51814 20.8085
9275 2 2.2208 -0.15257 6.80064 22.3075
9222 2 2.2208 -0.155617 12.4475 22.4256
430 1 -1.1104 3.89002 10.9485 20.962
403 1 -1.1104 1.30834 8.15735 20.9195
590 2 2.2208 5.56419 6.92286 22.2583
591 2 2.2208 5.46409 12.4211 22.3118
592 1 -1.1104 1.2496 8.26483 23.8105
594 1 -1.1104 1.33578 8.3111 26.4735
596 1 -1.1104 1.43726 5.39328 23.6613
597 1 -1.1104 1.17625 11.1504 23.8204
600 2 2.2208 5.50522 9.64574 25.1004
601 1 -1.1104 1.38388 5.46678 26.5552
602 1 -1.1104 1.29885 11.2041 26.7727
605 1 -1.1104 4.16755 8.29716 23.6994
606 2 2.2208 2.87257 6.86893 25.1917
607 2 2.2208 2.69599 12.3958 25.1909
608 1 -1.1104 4.21989 8.29108 26.7564
609 2 2.2208 2.5234 9.61563 22.4098
610 1 -1.1104 4.12317 5.60077 23.7165
611 1 -1.1104 4.04959 11.013 23.6906
612 1 -1.1104 4.10606 5.35795 26.5521
613 1 -1.1104 4.05789 10.9527 26.4373
9247 2 2.2208 -0.183806 9.7423 25.1319
443 1 -1.1104 12.5195 5.53684 21.0075
438 1 -1.1104 12.5139 8.29142 20.9648
450 1 -1.1104 9.62081 8.20549 21.0805
455 1 -1.1104 9.6883 5.52382 20.9424
416 1 -1.1104 6.96564 5.48264 20.941
405 1 -1.1104 6.72779 8.27544 20.7483
457 1 -1.1104 9.70347 11.0735 20.9659
598 1 -1.1104 6.92274 5.48396 23.7567
418 1 -1.1104 6.7598 11.1258 20.9046
595 1 -1.1104 6.86694 8.25073 26.5274
593 1 -1.1104 6.92863 8.2175 23.7024
603 1 -1.1104 6.96272 5.46157 26.6277
604 1 -1.1104 6.85794 11.08 26.4793
445 1 -1.1104 12.5666 11.0993 20.9697
599 1 -1.1104 6.90266 10.9631 23.6565
621 1 -1.1104 9.72678 11.0542 26.4951
622 1 -1.1104 9.76034 5.4764 26.521
623 1 -1.1104 9.68216 11.153 23.6058
624 1 -1.1104 9.78778 5.48444 23.7195
625 2 2.2208 8.25002 9.68777 22.2774
626 1 -1.1104 9.73808 8.25646 26.5747
627 2 2.2208 8.32221 12.5244 25.2023
628 2 2.2208 8.25335 6.87524 25.0479
629 2 2.2208 11.1211 6.87847 22.3319
630 2 2.2208 11.1159 12.4312 22.336
631 1 -1.1104 12.5729 8.34006 23.8135
632 1 -1.1104 12.5738 8.22099 26.4963
633 1 -1.1104 12.4993 5.42807 23.7314
634 1 -1.1104 12.5413 10.9804 23.7518
635 2 2.2208 11.0932 9.68119 25.1367
636 1 -1.1104 12.5565 5.46991 26.4718
637 1 -1.1104 12.6064 11.0112 26.4646
638 1 -1.1104 9.81799 8.38179 23.742
479 1 -1.1104 1.3468 16.8279 20.9329
488 1 -1.1104 4.00463 19.6138 20.8297
486 1 -1.1104 4.04628 13.7986 20.8675
9029 2 2.2208 -0.115483 20.883 25.0153
9070 2 2.2208 -0.143576 15.4227 25.0672
467 1 -1.1104 1.10182 14.0084 20.8071
469 1 -1.1104 1.37173 19.586 20.9081
9028 2 2.2208 -0.112934 18.1094 22.281
493 1 -1.1104 4.0805 16.7456 20.89
355 2 2.2208 5.48347 18.1114 22.1754
364 2 2.2208 5.47599 15.3439 25.134
393 1 -1.1104 1.15481 13.9242 23.585
395 2 2.2208 5.41237 20.9171 25.0664
431 1 -1.1104 1.31085 14.0303 26.4143
432 1 -1.1104 1.15099 16.7313 26.4845
458 1 -1.1104 1.23067 19.5928 26.4812
459 1 -1.1104 1.31358 19.4387 23.705
550 1 -1.1104 4.04764 13.8641 23.6533
552 2 2.2208 2.75593 15.3438 22.3281
553 2 2.2208 2.71695 21.0469 22.2701
554 1 -1.1104 4.1668 16.7325 23.6367
555 1 -1.1104 1.37762 16.6365 23.7431
579 1 -1.1104 4.05193 19.5478 23.6067
582 1 -1.1104 4.13432 13.9164 26.3767
583 1 -1.1104 3.91129 16.6782 26.3853
584 2 2.2208 2.69971 18.1769 25.0112
585 1 -1.1104 3.92897 19.536 26.414
556 1 -1.1104 7.05106 16.6529 23.7669
551 1 -1.1104 6.88879 13.8354 26.4609
396 1 -1.1104 6.83529 19.5294 23.7043
587 1 -1.1104 12.52 19.6089 26.4682
549 1 -1.1104 6.80518 16.5727 26.4893
614 2 2.2208 8.26281 17.9823 25.027
363 1 -1.1104 6.7631 13.9769 23.6801
473 1 -1.1104 6.91366 19.4257 20.6823
581 1 -1.1104 6.66664 19.4495 26.4949
558 2 2.2208 11.0628 18.0881 22.2401
481 1 -1.1104 6.9607 16.7801 21.0077
515 1 -1.1104 9.62343 19.6281 20.9332
503 1 -1.1104 12.5296 19.472 20.819
501 1 -1.1104 12.5707 13.7701 20.7593
513 1 -1.1104 9.66877 13.7776 20.883
508 1 -1.1104 12.337 16.5179 20.9489
520 1 -1.1104 9.60394 16.6863 20.812
620 1 -1.1104 9.73923 19.5559 23.5984
589 2 2.2208 11.1262 15.2548 25.0018
618 1 -1.1104 12.4329 16.706 26.3621
390 1 -1.1104 9.52548 19.518 26.3041
356 1 -1.1104 9.68437 16.7401 26.5609
580 1 -1.1104 9.72039 13.8695 26.5092
617 2 2.2208 10.9846 20.9941 25.1274
586 1 -1.1104 12.3672 13.8967 26.483
619 1 -1.1104 9.59874 13.93 23.7858
559 1 -1.1104 12.4583 13.8402 23.5073
560 1 -1.1104 12.4571 19.5257 23.7498
495 2 2.2208 5.36695 20.8438 13.761
306 2 2.2208 5.40816 -1.44115 13.8736
460 2 2.2208 8.30901 12.498 13.8465
8384 2 2.2208 5.50064 -4.35852 16.7063
8307 2 2.2208 2.72296 -4.28706 13.8429
8319 2 2.2208 8.21561 -4.25314 13.6762
17688 2 2.2208 -0.0799242 -4.28463 16.7281
8457 2 2.2208 8.37267 -4.34031 19.466
641 2 2.2208 5.37333 23.7949 5.30096
642 2 2.2208 5.29697 29.479 5.50186
643 1 -1.1104 1.28802 25.2602 1.30512
644 1 -1.1104 1.34794 25.1892 4.03875
645 1 -1.1104 1.26668 22.4453 1.20885
646 1 -1.1104 1.15524 28.0922 1.16998
647 2 2.2208 5.40849 26.5654 2.65882
648 1 -1.1104 1.15593 22.4055 4.02928
649 1 -1.1104 1.2453 27.9745 4.054
650 1 -1.1104 4.07887 25.1913 1.26896
651 2 2.2208 2.62565 23.7856 2.57655
652 2 2.2208 2.64119 29.4669 2.72586
653 1 -1.1104 4.11578 25.1426 4.00443
654 2 2.2208 2.52055 26.503 5.34149
655 1 -1.1104 3.86906 22.2056 1.20383
656 1 -1.1104 4.14911 27.9659 1.18932
657 1 -1.1104 3.93712 22.3732 3.94337
658 1 -1.1104 3.9878 27.8818 4.07584
785 1 -1.1104 1.29804 28.0363 6.80569
789 1 -1.1104 3.93346 22.2564 6.93115
1153 2 2.2208 5.48266 23.6994 -0.119974
9666 2 2.2208 -0.265355 23.7629 5.38519
9664 2 2.2208 -0.222457 26.6084 2.61139
1155 2 2.2208 5.39277 29.3705 -0.150229
10042 2 2.2208 -0.16418 23.9461 -0.124466
1154 2 2.2208 2.62809 26.5689 -0.201918
1185 2 2.2208 5.40946 40.5574 -0.188312
666 1 -1.1104 6.6534 22.2724 4.07086
664 1 -1.1104 6.88582 22.342 1.29599
667 1 -1.1104 6.63458 27.9929 4.16757
783 1 -1.1104 6.73846 25.1494 6.66092
663 1 -1.1104 6.97385 25.1872 4.02856
662 1 -1.1104 6.70778 25.0573 1.37461
665 1 -1.1104 6.86267 27.9542 1.25713
668 2 2.2208 11.162 23.713 5.46969
669 2 2.2208 10.9435 29.4018 5.587
670 1 -1.1104 12.3985 25.1739 1.27435
671 1 -1.1104 12.517 25.1039 4.28253
672 1 -1.1104 12.4745 22.1917 1.29809
673 1 -1.1104 12.3045 27.921 1.32813
674 2 2.2208 10.972 26.4268 2.66232
675 1 -1.1104 12.4002 22.187 3.95645
676 1 -1.1104 12.4652 27.8488 4.3839
677 1 -1.1104 9.61511 24.9445 1.26329
678 2 2.2208 8.26536 23.8185 2.65916
679 2 2.2208 8.12431 29.362 2.81024
680 1 -1.1104 9.9263 25.0652 3.96924
681 2 2.2208 8.17287 26.5576 5.56771
682 1 -1.1104 9.76991 22.1959 1.13661
683 1 -1.1104 9.48771 27.7559 1.43214
684 1 -1.1104 9.49531 22.2513 4.13605
685 1 -1.1104 9.56041 27.9468 4.20536
1184 2 2.2208 8.25913 26.5611 -0.0395201
936 2 2.2208 11.0375 29.3988 -0.103486
786 1 -1.1104 6.75952 22.2741 6.85067
1183 2 2.2208 11.0509 23.6566 -0.156256
9778 2 2.2208 -0.321206 40.5458 -0.207635
1214 2 2.2208 2.71296 32.103 -0.123652
689 2 2.2208 5.35391 35.0597 5.35792
690 1 -1.1104 1.16665 30.87 1.2583
691 1 -1.1104 1.1509 36.3116 1.15907
693 1 -1.1104 1.25889 30.6985 3.9777
694 1 -1.1104 1.18727 36.322 4.13318
696 1 -1.1104 1.21625 33.6352 1.19701
697 2 2.2208 5.44995 32.2029 2.63201
698 2 2.2208 5.29805 37.8602 2.66476
699 1 -1.1104 1.34713 33.5035 3.98001
701 1 -1.1104 3.97944 30.6666 1.1781
702 1 -1.1104 3.8709 36.2763 1.19135
703 2 2.2208 2.60794 34.9569 2.51373
704 1 -1.1104 3.97778 30.7516 3.96212
705 1 -1.1104 3.93021 36.2903 3.94518
706 2 2.2208 2.64724 32.1898 5.43876
707 2 2.2208 2.47097 37.7075 5.36123
708 1 -1.1104 4.06191 33.4817 1.18148
709 1 -1.1104 4.08692 33.6049 4.03369
1213 2 2.2208 2.53683 37.7107 -0.211925
9677 2 2.2208 -0.215315 40.6031 10.8981
9671 2 2.2208 -0.196768 32.1219 2.60013
9754 2 2.2208 -0.22593 34.9599 -0.166682
700 1 -1.1104 6.82992 33.5827 4.04337
925 2 2.2208 8.15804 46.3056 8.28088
695 1 -1.1104 6.75977 36.4411 3.92919
714 1 -1.1104 6.78421 30.5917 4.18872
692 1 -1.1104 6.5829 36.3872 1.06474
713 1 -1.1104 6.74213 30.8478 1.26587
715 1 -1.1104 6.8006 33.573 1.19249
716 2 2.2208 10.935 35.0924 5.46405
717 1 -1.1104 12.3469 30.7846 1.40873
718 1 -1.1104 12.3252 36.35 1.34008
719 1 -1.1104 12.3986 30.7522 4.19177
720 1 -1.1104 12.4023 36.4869 4.03265
721 1 -1.1104 12.4533 33.6536 1.24159
722 2 2.2208 10.9668 32.0744 2.75836
723 2 2.2208 10.9341 37.7428 2.64021
724 1 -1.1104 12.412 33.654 3.95706
725 1 -1.1104 9.6345 30.5851 1.31342
726 1 -1.1104 9.45037 36.2647 1.12996
727 2 2.2208 8.13242 34.9024 2.68572
728 1 -1.1104 9.56175 30.8042 4.11877
729 1 -1.1104 9.4901 36.3522 3.96961
730 2 2.2208 8.18489 32.2366 5.42458