ITEM: TIMESTEP
20000
ITEM: NUMBER OF ATOMS
17700
ITEM: BOX BOUNDS pp pp pp
-3.6629603488955637e-01 2.7706296034889309e+01
-4.3640724775443136e+00 3.3244407247754452e+02
-3.6702161328534150e-01 2.7707021613285253e+01
ITEM: ATOMS id type q x y z
1 2 2.2208 5.44859 1.32623 5.21512
2 1 -1.1104 1.23734 -2.83172 0.958298
3 1 -1.1104 1.19076 2.78415 0.879858
6 1 -1.1104 1.19307 -3.02518 3.70381
7 1 -1.1104 1.29164 2.71966 3.81629
10 1 -1.1104 1.34348 -0.111841 1.11171
12 2 2.2208 5.42983 -1.55792 2.43992
13 2 2.2208 5.48929 4.02029 2.39968
14 1 -1.1104 1.14345 0.0744945 3.94864
16 1 -1.1104 3.98225 -2.83708 1.02307
17 1 -1.1104 4.06621 2.77416 1.10126
18 2 2.2208 2.69992 1.3883 2.45991
19 1 -1.1104 3.93233 -2.97481 3.81324
20 1 -1.1104 4.05967 2.71153 3.93045
21 2 2.2208 2.6552 -1.45955 5.33561
22 2 2.2208 2.62421 4.08864 5.21136
23 1 -1.1104 4.05706 -0.149454 1.00296
24 1 -1.1104 4.00642 -0.179608 3.81923
301 2 2.2208 -0.0998345 -1.41488 2.48268
8984 2 2.2208 -0.253422 4.01365 2.29281
167 1 -1.1104 1.12321 2.56583 6.57199
8983 2 2.2208 -0.168794 1.29219 5.3734
8284 2 2.2208 5.46563 -4.34386 5.19142
8891 2 2.2208 -0.33591 12.3107 10.8516
8804 2 2.2208 -0.312911 15.19 2.54616
8671 2 2.2208 -0.220039 18.1118 10.9636
174 1 -1.1104 3.96176 0.115305 6.50146
173 1 -1.1104 3.95227 2.75602 6.67653
170 1 -1.1104 1.19208 -0.157075 6.87393
172 1 -1.1104 4.20799 -2.7701 6.68264
8224 2 2.2208 8.22883 -4.40116 2.47247
8865 2 2.2208 -0.37586 18.0841 5.25718
5 1 -1.1104 6.87212 2.65306 1.13514
11 1 -1.1104 6.73457 -0.142545 1.04059
4 1 -1.1104 6.76521 -2.98946 1.10369
15 1 -1.1104 6.9123 -0.112854 3.79679
9 1 -1.1104 6.97508 2.74426 3.72753
8 1 -1.1104 6.94078 -2.95621 3.85179
31 2 2.2208 11.0559 1.20491 5.21154
32 1 -1.1104 12.4785 -2.97556 0.972755
33 1 -1.1104 12.2854 2.7109 1.07473
34 1 -1.1104 12.6119 -2.93338 3.82564
35 1 -1.1104 12.5046 2.61076 3.90213
36 1 -1.1104 12.5531 -0.170989 0.992086
37 2 2.2208 11.1319 -1.53719 2.47464
38 2 2.2208 11.0058 4.09143 2.57429
39 1 -1.1104 12.555 -0.191815 3.66435
40 1 -1.1104 9.55169 -2.92012 1.06484
41 1 -1.1104 9.62231 2.69912 1.20528
42 2 2.2208 8.2965 1.24821 2.44626
43 1 -1.1104 9.75645 -2.86565 3.68484
44 1 -1.1104 9.61442 2.46715 4.07003
45 2 2.2208 8.36155 -1.59065 5.11597
46 2 2.2208 8.22618 4.05353 5.22888
47 1 -1.1104 9.7362 -0.027286 1.00664
48 1 -1.1104 9.78524 -0.178873 3.75471
521 2 2.2208 10.7356 20.9358 13.6459
210 1 -1.1104 9.72787 -0.145529 6.69999
171 1 -1.1104 7.0086 -0.108302 6.53865
209 1 -1.1104 9.51531 2.61649 6.75995
205 1 -1.1104 12.5574 -2.85776 6.80734
8227 2 2.2208 8.19643 -4.34995 8.04051
54 2 2.2208 5.39355 6.77355 5.19641
55 2 2.2208 5.19098 12.503 5.28102
56 1 -1.1104 1.22205 8.15636 1.07404
58 1 -1.1104 1.17034 8.20832 3.75043
60 1 -1.1104 1.25949 5.5421 0.873849
61 1 -1.1104 1.05353 11.108 0.974828
66 2 2.2208 5.30753 9.58308 2.43219
67 1 -1.1104 1.11949 5.47495 3.86953
68 1 -1.1104 1.09105 10.8556 3.92114
71 1 -1.1104 4.01051 8.19784 1.06956
72 2 2.2208 2.6567 6.78235 2.37563
73 2 2.2208 2.47583 12.3526 2.4164
74 1 -1.1104 3.91763 8.33439 3.79826
75 2 2.2208 2.61533 9.61826 5.32613
76 1 -1.1104 3.97129 5.37286 0.932444
77 1 -1.1104 3.88031 10.9847 1.05033
79 1 -1.1104 4.11956 5.4393 3.74119
80 1 -1.1104 3.8857 11.0805 3.95938
8829 2 2.2208 -0.160439 6.75283 5.17942
8746 2 2.2208 -0.317516 9.58788 2.33485
239 1 -1.1104 4.04447 5.51037 6.5186
236 1 -1.1104 1.29187 5.2288 6.84955
8307 2 2.2208 2.51998 -4.32617 13.6463
118 1 -1.1104 6.89989 16.6613 6.72639
143 1 -1.1104 12.3275 13.7566 6.56875
57 1 -1.1104 6.8532 8.33152 1.0798
70 1 -1.1104 6.67484 11.0568 3.71647
64 1 -1.1104 6.56708 11.1203 0.992139
59 1 -1.1104 6.80894 8.16293 3.81189
63 1 -1.1104 6.70361 5.56248 1.03125
69 1 -1.1104 6.92957 5.47475 3.82555
84 2 2.2208 10.9134 6.94489 5.41595
85 2 2.2208 10.9165 12.4079 5.14943
86 1 -1.1104 12.3576 8.18726 1.24239
87 1 -1.1104 12.1909 8.34598 4.04561
88 1 -1.1104 12.2657 5.36119 1.13318
89 1 -1.1104 12.3095 10.9953 0.99052
91 2 2.2208 10.8479 9.54511 2.45429
92 1 -1.1104 12.3 5.6137 3.79923
93 1 -1.1104 12.3575 11.0506 3.78729
94 1 -1.1104 9.57868 8.21787 1.08214
95 2 2.2208 8.25338 6.88179 2.44703
96 2 2.2208 8.03718 12.4367 2.46584
97 1 -1.1104 9.64456 8.26988 3.90165
98 2 2.2208 8.06191 9.68557 5.17338
99 1 -1.1104 9.52329 5.45493 1.09842
100 1 -1.1104 9.4281 11.1033 1.00708
102 1 -1.1104 9.6689 5.39844 3.88399
103 1 -1.1104 9.50274 11.1702 3.82572
27 1 -1.1104 12.3149 19.5928 12.2792
267 1 -1.1104 9.64413 8.41209 6.68242
101 1 -1.1104 9.5434 11.0717 6.72818
269 1 -1.1104 9.64516 5.39485 6.63237
235 1 -1.1104 6.79477 8.10641 6.575
265 1 -1.1104 12.618 8.19243 6.7982
237 1 -1.1104 6.76483 5.40244 6.68475
154 1 -1.1104 9.4514 13.8332 6.73391
8285 2 2.2208 2.54929 -4.30273 2.34719
8697 2 2.2208 -0.226445 21.0165 2.47279
106 2 2.2208 5.24436 18.0428 5.27872
107 1 -1.1104 0.956505 13.9595 0.954922
109 1 -1.1104 1.12392 19.4563 1.01003
113 1 -1.1104 1.111 13.7681 3.87287
114 1 -1.1104 1.0016 19.4596 3.79067
116 1 -1.1104 1.02525 16.8406 1.17608
119 2 2.2208 5.25886 15.1305 2.44449
120 2 2.2208 5.34666 20.8028 2.54969
121 1 -1.1104 1.12938 16.6433 3.96494
123 1 -1.1104 3.82577 13.724 0.918769
125 1 -1.1104 3.98277 19.288 1.07827
127 2 2.2208 2.52763 18.0448 2.53803
128 1 -1.1104 3.80697 13.8476 3.73155
129 1 -1.1104 3.98965 19.4864 3.8837
130 2 2.2208 2.54433 15.1985 5.23076
131 2 2.2208 2.44243 20.8198 5.34166
132 1 -1.1104 3.9157 16.4943 1.06988
134 1 -1.1104 3.97091 16.4995 3.81904
81 1 -1.1104 12.3137 16.6822 12.2419
26 1 -1.1104 12.476 13.8329 12.2055
8157 2 2.2208 11.119 -4.31342 5.16737
126 1 -1.1104 3.80139 19.3985 6.66038
133 1 -1.1104 3.9388 16.7564 6.75009
124 1 -1.1104 3.94482 14.0178 6.55216
138 1 -1.1104 6.68321 19.5345 0.973841
115 1 -1.1104 6.72277 13.74 3.95427
110 1 -1.1104 6.6937 13.8497 1.0719
140 1 -1.1104 6.69983 16.6319 1.05881
122 1 -1.1104 6.90667 16.651 3.97145
139 1 -1.1104 6.61433 19.2644 3.83872
141 2 2.2208 10.9115 18.1097 5.29795
142 1 -1.1104 12.2765 13.8329 1.14407
144 1 -1.1104 12.3405 19.417 1.16351
146 1 -1.1104 12.2066 13.9911 3.89176
147 1 -1.1104 12.2483 19.4792 3.86703
148 1 -1.1104 12.2063 16.6876 0.998478
150 2 2.2208 10.7981 15.3877 2.41853
151 2 2.2208 10.8889 20.8217 2.46474
152 1 -1.1104 12.3891 16.753 3.89643
153 1 -1.1104 9.5244 13.8902 1.18172
155 1 -1.1104 9.40919 19.4068 1.12009
157 2 2.2208 8.03406 18.1179 2.50451
158 1 -1.1104 9.41596 13.7959 3.88456
159 1 -1.1104 9.34674 19.5355 3.8219
160 2 2.2208 8.10372 15.1013 5.30095
161 2 2.2208 7.9775 20.8551 5.1564
162 1 -1.1104 9.41633 16.7646 1.16416
164 1 -1.1104 9.51141 16.6085 3.97219
201 2 2.2208 8.08844 20.8816 10.8963
288 1 -1.1104 6.63277 19.4637 9.52714
111 1 -1.1104 6.66482 13.9019 6.62242
8899 2 2.2208 -0.265346 12.3396 5.31371
321 2 2.2208 11.0017 6.78802 -0.393491
163 1 -1.1104 9.65649 16.6498 6.67374
166 1 -1.1104 1.29762 -2.85615 6.66083
8980 2 2.2208 -0.232724 1.16962 10.7775
175 2 2.2208 5.37423 1.15487 10.7955
176 1 -1.1104 1.21231 -2.94928 12.2958
177 1 -1.1104 1.20982 2.67328 12.2392
180 1 -1.1104 1.18096 -2.9076 9.37503
181 1 -1.1104 1.18384 2.72933 9.42302
184 1 -1.1104 1.16582 -0.205835 12.2807
186 2 2.2208 5.55063 -1.46459 7.90503
187 2 2.2208 5.34779 4.07304 8.03186
188 1 -1.1104 1.41581 -0.068333 9.58039
190 1 -1.1104 4.03513 -3.00104 12.3483
191 1 -1.1104 3.95518 2.68874 12.2449
192 2 2.2208 2.65586 1.3562 8.03388
193 1 -1.1104 4.07895 -2.79967 9.57782
194 1 -1.1104 3.91973 2.62912 9.3804
195 2 2.2208 2.67739 -1.61223 10.8942
196 2 2.2208 2.56147 4.02763 10.8115
197 1 -1.1104 4.11825 -0.161845 12.1587
198 1 -1.1104 4.1238 -0.146809 9.25228
8830 2 2.2208 -0.265902 3.98777 8.11535
8979 2 2.2208 -0.165931 -1.66376 8.10832
8288 2 2.2208 5.42793 -4.344 10.8992
8994 2 2.2208 -0.187982 -1.64057 13.6077
104 1 -1.1104 12.3505 16.6984 9.43058
165 1 -1.1104 9.43667 19.5154 9.52775
297 1 -1.1104 6.61312 13.9405 12.2562
50 1 -1.1104 12.2376 19.5934 9.55046
182 1 -1.1104 6.94479 -2.91815 9.56809
169 1 -1.1104 6.68788 2.60684 6.70275
208 1 -1.1104 9.73211 -2.86913 6.47907
206 1 -1.1104 12.3567 2.64644 6.57176
168 1 -1.1104 6.93585 -3.06286 6.5628
179 1 -1.1104 6.77126 2.8444 12.3163
183 1 -1.1104 6.83483 2.56246 9.6547
189 1 -1.1104 6.82282 -0.109408 9.3427
178 1 -1.1104 6.89148 -3.0053 12.3767
185 1 -1.1104 6.95157 -0.0893171 12.0539
207 1 -1.1104 12.6501 -0.0287844 6.39306
211 2 2.2208 10.9982 1.32046 10.9013
212 1 -1.1104 12.3959 -2.88201 12.2671
213 1 -1.1104 12.4805 2.84663 12.3526
214 1 -1.1104 12.3672 -2.82624 9.54433
215 1 -1.1104 12.4212 2.63277 9.40501
216 1 -1.1104 12.4287 0.0245533 12.2998
217 2 2.2208 11.1436 -1.52532 8.07324
218 2 2.2208 10.9421 4.00927 8.11795
219 1 -1.1104 12.2878 -0.082996 9.54623
220 1 -1.1104 9.65963 -2.82154 12.1747
221 1 -1.1104 9.65729 2.7192 12.3054
222 2 2.2208 8.31264 1.24298 8.04156
223 1 -1.1104 9.73392 -2.91729 9.25078
224 1 -1.1104 9.58645 2.67993 9.5966
225 2 2.2208 8.28269 -1.51763 10.8045
226 2 2.2208 8.18474 4.0939 10.8657
227 1 -1.1104 9.6054 -0.131722 12.2087
228 1 -1.1104 9.56023 -0.257606 9.28197
28 1 -1.1104 9.48133 16.7545 9.57862
238 1 -1.1104 4.0644 8.21329 6.60397
8898 2 2.2208 -0.305829 9.60419 8.03527
234 1 -1.1104 1.2848 8.05108 6.4857
78 1 -1.1104 3.85198 11.1667 6.6954
62 1 -1.1104 1.10771 11.044 6.71109
240 2 2.2208 5.36545 6.69437 10.8311
241 2 2.2208 5.31626 12.5393 10.8425
242 1 -1.1104 1.23164 8.29429 12.1176
244 1 -1.1104 1.12207 8.29896 9.26805
246 1 -1.1104 1.05407 5.40401 12.1515
247 1 -1.1104 1.25779 11.0493 12.2888
250 2 2.2208 5.50528 9.63781 7.97759
251 1 -1.1104 1.09413 5.39766 9.57956
252 1 -1.1104 1.18999 11.0871 9.45659
255 1 -1.1104 4.11139 8.3884 12.2224
256 2 2.2208 2.49535 6.86651 8.04879
257 2 2.2208 2.52805 12.5643 8.16376
258 1 -1.1104 3.86279 8.31731 9.54888
259 2 2.2208 2.57054 9.65292 10.8179
260 1 -1.1104 3.91032 5.45397 12.1356
261 1 -1.1104 4.08683 11.1704 12.2844
262 1 -1.1104 3.83789 5.50296 9.39792
263 1 -1.1104 3.88673 11.1894 9.45137
310 2 2.2208 10.9924 -1.58229 13.5411
315 2 2.2208 2.64315 -1.56746 -0.364693
145 1 -1.1104 12.2813 19.4323 6.75186
136 2 2.2208 8.10198 18.0187 7.99404
65 1 -1.1104 6.76903 11.1838 6.45435
243 1 -1.1104 6.84398 8.3856 12.322
90 1 -1.1104 12.3031 10.9837 6.51801
266 1 -1.1104 12.3786 5.4546 6.73085
245 1 -1.1104 6.66019 8.32967 9.32915
249 1 -1.1104 6.81738 11.1526 12.0509
254 1 -1.1104 6.60512 11.1103 9.27554
253 1 -1.1104 6.80439 5.49386 9.37892
248 1 -1.1104 6.71558 5.44314 12.3882
264 1 -1.1104 9.55805 11.1511 9.50663
268 1 -1.1104 9.67584 5.40284 9.51047
270 1 -1.1104 9.67377 11.1324 12.2719
271 1 -1.1104 9.55514 5.48 12.3299
272 2 2.2208 8.12353 9.63757 10.7831
273 1 -1.1104 9.49896 8.24742 9.38653
274 2 2.2208 8.12019 12.4815 8.00565
275 2 2.2208 8.25534 6.81484 8.02965
276 2 2.2208 10.9422 6.94724 10.8153
277 2 2.2208 11.0419 12.461 10.8729
278 1 -1.1104 12.4477 8.38353 12.2785
279 1 -1.1104 12.2721 8.21965 9.4971
280 1 -1.1104 12.3775 5.67573 12.2602
281 1 -1.1104 12.461 11.1106 12.1791
282 2 2.2208 10.9507 9.77426 8.06804
283 1 -1.1104 12.4209 5.46848 9.4415
284 1 -1.1104 12.4391 11.2436 9.43509
285 1 -1.1104 9.5653 8.19121 12.2624
306 2 2.2208 5.48166 -1.64631 13.6228
135 1 -1.1104 9.41645 19.6074 12.1837
82 2 2.2208 10.9268 15.2198 8.09832
149 1 -1.1104 12.3917 16.7292 6.68757
108 1 -1.1104 1.06986 13.8835 6.78708
117 1 -1.1104 1.02747 16.6709 6.69902
231 1 -1.1104 0.97728 19.4455 6.62245
29 2 2.2208 2.46432 15.2587 10.8013
30 2 2.2208 2.47862 21.0248 11.0012
51 1 -1.1104 3.99904 16.8582 12.2318
52 1 -1.1104 1.03291 16.6904 12.3171
200 1 -1.1104 1.021 13.9312 12.3291
202 1 -1.1104 3.93169 13.8389 9.4671
203 1 -1.1104 3.86797 16.6049 9.4584
204 2 2.2208 2.42301 18.0302 8.15575
232 1 -1.1104 3.88042 19.4998 9.56778
233 2 2.2208 5.32739 18.1309 10.9801
286 1 -1.1104 3.89368 19.6221 12.2662
287 1 -1.1104 4.02337 13.9008 12.0574
291 1 -1.1104 1.15589 19.6096 9.50017
292 1 -1.1104 1.03603 16.6481 9.55239
293 2 2.2208 5.24555 20.7554 8.06824
294 1 -1.1104 1.08662 13.8851 9.71871
295 2 2.2208 5.37292 15.3391 7.99301
298 1 -1.1104 1.20203 19.4888 12.3625
112 1 -1.1104 6.63349 19.4268 6.74885
53 1 -1.1104 6.74264 16.6123 12.259
290 1 -1.1104 6.93434 13.825 9.40829
289 1 -1.1104 6.7057 16.7064 9.37004
25 2 2.2208 10.8636 17.9742 10.929
49 1 -1.1104 12.3817 13.9744 9.42382
156 1 -1.1104 9.49867 19.4675 6.67368
83 2 2.2208 10.8146 20.8317 7.9531
137 1 -1.1104 9.68009 13.9427 9.43699
199 2 2.2208 8.14683 15.2628 10.8788
229 1 -1.1104 9.56133 16.6358 12.4463
105 1 -1.1104 9.57452 13.7907 12.2525
296 1 -1.1104 6.71426 19.3646 12.3751
394 2 2.2208 2.49631 20.7821 -0.414762
303 2 2.2208 13.5395 20.938 10.8557
496 2 2.2208 5.30062 15.2879 13.5901
312 2 2.2208 5.5454 9.80616 13.66
460 2 2.2208 8.21553 12.4784 13.6982
317 2 2.2208 10.997 1.33006 -0.236369
311 2 2.2208 2.55238 7.01515 13.5737
391 2 2.2208 2.51538 15.2663 -0.376934
318 2 2.2208 8.2436 -1.50365 -0.340013
230 2 2.2208 10.9989 9.57898 13.7964
9249 2 2.2208 -0.341912 12.4734 -0.358575
639 2 2.2208 10.9886 12.435 -0.389774
392 2 2.2208 5.37703 18.1472 -0.43849
359 2 2.2208 -0.092455 1.25404 -0.424636
433 2 2.2208 2.54793 12.3878 13.6993
615 2 2.2208 2.50209 9.59345 -0.444881
640 2 2.2208 8.12081 9.72649 -0.300115
314 2 2.2208 5.4106 1.34981 -0.348204
307 2 2.2208 2.59436 1.18919 13.5268
319 2 2.2208 8.22544 4.09618 -0.327408
9035 2 2.2208 -0.304798 18.1676 -0.237906
358 2 2.2208 8.19015 15.3093 -0.264954
322 2 2.2208 5.34383 1.31835 16.4831
323 1 -1.1104 1.10984 -2.88632 17.8538
324 1 -1.1104 1.32508 2.66847 17.9567
327 1 -1.1104 1.16445 -3.05377 15.0306
329 1 -1.1104 1.16438 2.65502 15.1034
335 1 -1.1104 1.24144 -0.143103 17.8346
337 2 2.2208 5.43194 -1.58397 19.2838
338 2 2.2208 5.37326 4.09993 19.2338
339 1 -1.1104 1.24392 -0.0651611 14.9991
343 1 -1.1104 4.02975 -3.05791 17.9079
344 1 -1.1104 4.01051 2.68228 18.0009
345 2 2.2208 2.54812 1.29044 19.2953
346 1 -1.1104 3.99396 -2.85816 15.1549
348 1 -1.1104 3.83946 2.8572 15.121
350 2 2.2208 2.56778 -1.56612 16.3951
351 2 2.2208 2.50669 4.09289 16.4385
352 1 -1.1104 3.99 -0.128995 17.8457
353 1 -1.1104 3.96035 -0.0103333 14.9519
9110 2 2.2208 -0.231354 -1.56613 19.3521
9111 2 2.2208 -0.268836 12.367 16.551
9217 2 2.2208 -0.239039 18.0542 16.5003
9033 2 2.2208 -0.27405 4.10263 19.2209
354 1 -1.1104 4.05922 -0.149051 20.5373
340 1 -1.1104 1.21083 -0.0108657 20.7162
328 1 -1.1104 1.06691 -2.94523 20.6578
347 1 -1.1104 3.99729 -2.81935 20.6901
8382 2 2.2208 8.26758 -4.34205 24.8565
9076 2 2.2208 -0.331883 1.26192 22.0606
9032 2 2.2208 -0.0978916 1.26382 16.4552
341 1 -1.1104 6.7967 -0.0962704 14.9383
331 1 -1.1104 6.77224 -3.04734 15.1429
336 1 -1.1104 6.76665 -0.16078 17.8269
333 1 -1.1104 6.66627 2.5616 14.8814
325 1 -1.1104 6.88013 -2.80913 17.8934
326 1 -1.1104 6.76567 2.78756 17.7746
365 2 2.2208 11.0809 1.30391 16.3416
366 1 -1.1104 12.39 -2.85237 17.9934
367 1 -1.1104 12.4497 2.64023 17.7395
368 1 -1.1104 12.3008 -2.90083 15.0241
370 1 -1.1104 12.4337 2.68133 15.0203
372 1 -1.1104 12.2818 -0.133781 17.7481
373 2 2.2208 10.9726 -1.34337 19.232
374 2 2.2208 10.9346 4.04088 19.2892
375 1 -1.1104 12.4101 -0.298567 14.9485
377 1 -1.1104 9.64249 -2.96454 17.7614
378 1 -1.1104 9.72028 2.59269 17.8425
379 2 2.2208 8.12841 1.18178 19.1989
380 1 -1.1104 9.57734 -3.08698 14.8993
382 1 -1.1104 9.69604 2.85425 15.1291
384 2 2.2208 8.18729 -1.56328 16.3021
385 2 2.2208 8.28506 3.98737 16.507
386 1 -1.1104 9.61943 -0.135065 17.7425
387 1 -1.1104 9.56842 -0.0886313 14.9954
617 2 2.2208 10.9293 20.7967 24.9111
334 1 -1.1104 6.67787 2.58391 20.6808
342 1 -1.1104 6.82793 -0.172064 20.727
388 1 -1.1104 9.56981 -0.00623588 20.5074
383 1 -1.1104 9.569 2.55328 20.7258
8386 2 2.2208 10.9737 -4.36425 16.4414
17688 2 2.2208 -0.119223 -4.29279 16.509
9244 2 2.2208 -0.222784 6.89349 16.4825
9243 2 2.2208 -0.18184 9.57985 19.2645
398 2 2.2208 5.40519 6.88923 16.4695
399 2 2.2208 5.46019 12.4314 16.4461
400 1 -1.1104 1.23452 8.16059 17.8709
402 1 -1.1104 1.00564 8.3609 15.126
406 1 -1.1104 1.0787 5.3687 17.7844
407 1 -1.1104 1.23463 10.9189 17.8498
410 2 2.2208 5.46549 9.67909 19.1622
411 1 -1.1104 1.05287 5.53219 14.9953
413 1 -1.1104 1.18407 11.0224 15.0276
419 1 -1.1104 4.03611 8.26401 17.8037
420 2 2.2208 2.65314 6.82561 19.23
421 2 2.2208 2.58559 12.2919 19.1441
422 1 -1.1104 3.97336 8.40828 15.1154
424 2 2.2208 2.64212 9.7268 16.4381
425 1 -1.1104 3.91791 5.62619 17.8553
426 1 -1.1104 4.10021 10.9807 17.849
427 1 -1.1104 3.99075 5.6451 14.989
429 1 -1.1104 4.12353 11.1481 15.1154
417 1 -1.1104 6.95265 10.968 14.9991
309 2 2.2208 8.24972 1.31712 13.5681
414 1 -1.1104 1.19846 11.0794 20.5362
423 1 -1.1104 4.07536 8.19332 20.6814
9216 2 2.2208 -0.210679 15.2243 19.348
409 1 -1.1104 6.86148 11.0713 17.7303
408 1 -1.1104 6.84598 5.53561 17.9843
415 1 -1.1104 6.83424 5.4255 15.1847
401 1 -1.1104 6.86487 8.24057 17.8833
404 1 -1.1104 7.06066 8.25435 15.1458
434 2 2.2208 10.9919 6.90928 16.5267
435 2 2.2208 11.067 12.339 16.5046
436 1 -1.1104 12.4745 8.29451 17.9999
437 1 -1.1104 12.388 8.19563 15.1304
439 1 -1.1104 12.299 5.42929 17.953
440 1 -1.1104 12.2923 10.9393 17.9666
441 2 2.2208 10.9597 9.67517 19.392
442 1 -1.1104 12.5519 5.48334 15.1528
444 1 -1.1104 12.4755 10.9259 15.1517
446 1 -1.1104 9.6213 8.26715 17.8912
447 2 2.2208 8.26087 6.8003 19.3517
448 2 2.2208 8.26439 12.4225 19.1848
449 1 -1.1104 9.72305 8.27204 15.1508
451 2 2.2208 8.37082 9.59325 16.4155
452 1 -1.1104 9.64648 5.37061 17.9488
453 1 -1.1104 9.66826 11.0073 18.0834
454 1 -1.1104 9.83442 5.49423 15.0388
456 1 -1.1104 9.66577 10.9998 15.2188
580 1 -1.1104 9.63061 14.0198 26.3426
445 1 -1.1104 12.3883 11.0391 20.8465
8345 2 2.2208 2.56331 -4.31919 19.3156
586 1 -1.1104 12.3758 13.8163 26.2905
9215 2 2.2208 -0.455326 20.9246 19.3145
461 2 2.2208 5.25333 18.0192 16.448
462 1 -1.1104 1.24208 13.7384 17.8856
463 1 -1.1104 1.00947 19.45 18.0002
466 1 -1.1104 1.1161 13.7421 15.1299
468 1 -1.1104 1.02956 19.4624 15.0547
474 1 -1.1104 1.15202 16.4358 17.9869
476 2 2.2208 5.27016 15.204 19.385
477 2 2.2208 5.31408 20.8328 19.4594
478 1 -1.1104 1.07301 16.5308 15.1522
482 1 -1.1104 3.92814 13.8692 17.7737
483 1 -1.1104 3.8285 19.3693 17.9167
484 2 2.2208 2.42088 18.0758 19.3007
485 1 -1.1104 4.01316 13.982 15.0088
487 1 -1.1104 3.81917 19.4946 15.1471
489 2 2.2208 2.53962 15.1895 16.3735
490 2 2.2208 2.48725 20.7626 16.5359
491 1 -1.1104 3.74134 16.6036 17.7047
492 1 -1.1104 3.84739 16.6825 14.9877
8453 2 2.2208 2.72337 -4.3329 24.9885
356 1 -1.1104 9.62217 16.6964 26.3505
475 1 -1.1104 6.6679 16.5425 17.7092
493 1 -1.1104 3.79975 16.7369 20.6631
486 1 -1.1104 3.95275 13.8336 20.6178
467 1 -1.1104 1.27508 13.8089 20.664
17403 2 2.2208 -0.202581 -4.41587 22.1494
618 1 -1.1104 12.4552 16.6822 26.3106
481 1 -1.1104 6.63329 16.6382 20.6976
503 1 -1.1104 12.2816 19.2338 20.6146
472 1 -1.1104 6.59902 19.4855 15.0473
480 1 -1.1104 6.75189 16.6732 15.0489
470 1 -1.1104 6.7729 13.9781 15.0004
464 1 -1.1104 6.85369 13.7298 17.9102
465 1 -1.1104 6.75118 19.4081 17.8799
497 2 2.2208 10.9182 18.0082 16.4166
498 1 -1.1104 12.3386 13.8102 17.8159
499 1 -1.1104 12.3177 19.4189 17.8715
500 1 -1.1104 12.356 13.913 15.06
502 1 -1.1104 12.2963 19.655 15.129
504 1 -1.1104 12.2784 16.6271 17.8668
505 2 2.2208 10.8062 15.2433 19.2738
506 2 2.2208 10.8313 20.8062 19.302
507 1 -1.1104 12.4214 16.7778 15.0567
509 1 -1.1104 9.5097 13.7573 17.7647
510 1 -1.1104 9.53525 19.4214 17.7516
511 2 2.2208 8.05211 17.9712 19.2951
512 1 -1.1104 9.4483 13.8497 15.1648
514 1 -1.1104 9.48096 19.4683 14.9306
516 2 2.2208 8.15762 15.2314 16.3961
517 2 2.2208 8.11062 20.8391 16.5589
518 1 -1.1104 9.46597 16.6414 17.9504
519 1 -1.1104 9.50258 16.6825 15.1451
515 1 -1.1104 9.558 19.4339 20.729
501 1 -1.1104 12.3456 13.7502 20.5951
473 1 -1.1104 6.76607 19.4965 20.7185
513 1 -1.1104 9.53654 13.8782 20.8101
9028 2 2.2208 -0.222928 17.9139 22.1225
558 2 2.2208 10.8848 17.9838 22.179
8457 2 2.2208 8.17162 -4.10775 19.2378
508 1 -1.1104 12.4759 16.4682 20.7063
330 1 -1.1104 0.960069 2.65331 20.6054
349 1 -1.1104 3.93936 2.65544 20.7265
360 2 2.2208 -0.213161 -1.65332 25.0664
9073 2 2.2208 13.7775 17.9291 24.8875
9075 2 2.2208 -0.267951 3.94769 24.7038
525 2 2.2208 5.41237 1.22815 22.034
526 1 -1.1104 1.15792 -2.94286 23.6889
527 1 -1.1104 1.01812 2.85714 23.2698
530 1 -1.1104 1.28419 -3.08844 26.3656
531 1 -1.1104 1.13416 2.45948 26.0845
534 1 -1.1104 1.10363 -0.042094 23.4543
536 2 2.2208 5.50374 -1.46463 24.9649
537 2 2.2208 5.34554 4.08609 24.7664
538 1 -1.1104 1.17758 -0.224618 26.3119
540 1 -1.1104 4.05641 -2.74395 23.5236
541 1 -1.1104 4.0263 2.63425 23.4792
542 2 2.2208 2.6056 1.21476 24.7369
543 1 -1.1104 4.11558 -3.00921 26.3033
544 1 -1.1104 3.89885 2.59512 26.3576
545 2 2.2208 2.55354 -1.36074 21.9888
546 2 2.2208 2.38161 4.02993 21.9029
547 1 -1.1104 3.97431 -0.102764 23.3732
548 1 -1.1104 3.99265 -0.106905 26.2453
363 1 -1.1104 6.73517 13.8485 23.4794
9247 2 2.2208 -0.156078 9.7086 24.8881
369 1 -1.1104 12.5276 -2.97513 20.6191
376 1 -1.1104 12.4021 -0.20698 20.6482
332 1 -1.1104 6.90062 -2.8643 20.7222
532 1 -1.1104 6.85196 -2.94698 26.4164
529 1 -1.1104 6.80155 2.67058 23.5084
533 1 -1.1104 6.81445 2.65586 26.3151
539 1 -1.1104 6.79256 -0.152653 26.3506
535 1 -1.1104 6.76604 -0.0809148 23.4866
528 1 -1.1104 6.83479 -2.83122 23.4224
371 1 -1.1104 12.2994 2.63723 20.5602
381 1 -1.1104 9.69599 -2.89176 20.6044
561 2 2.2208 11.0487 1.36381 22.0013
562 1 -1.1104 12.5636 -2.8706 23.4768
563 1 -1.1104 12.4027 2.65372 23.4674
564 1 -1.1104 12.4658 -2.83662 26.3768
565 1 -1.1104 12.3452 2.76723 26.3959
566 1 -1.1104 12.3636 -0.156204 23.4448
567 2 2.2208 11.0894 -1.49976 24.9042
568 2 2.2208 10.9722 4.04784 25.0667
569 1 -1.1104 12.3404 -0.0621261 26.3097
570 1 -1.1104 9.77699 -2.91235 23.4357
571 1 -1.1104 9.6162 2.67305 23.4591
572 2 2.2208 8.25657 1.26923 24.9218
573 1 -1.1104 9.64352 -2.99946 26.2286
574 1 -1.1104 9.68444 2.68058 26.3871
575 2 2.2208 8.34602 -1.52422 22.0591
576 2 2.2208 8.12163 4.06425 22.1294
577 1 -1.1104 9.58801 -0.185486 23.6563
578 1 -1.1104 9.69892 -0.069585 26.3435
9245 2 2.2208 -0.248022 9.66572 13.6209
614 2 2.2208 8.27133 18.0502 25.0105
9222 2 2.2208 -0.245547 12.4129 22.1151
9275 2 2.2208 -0.222124 6.8982 22.0496
412 1 -1.1104 1.11229 5.59418 20.5418
9070 2 2.2208 -0.314794 15.2175 24.9587
428 1 -1.1104 3.91365 5.32599 20.6388
403 1 -1.1104 1.27126 8.29037 20.7086
430 1 -1.1104 4.01061 11.0543 20.5691
590 2 2.2208 5.33133 6.89015 21.9823
591 2 2.2208 5.24924 12.4127 22.0322
592 1 -1.1104 1.20987 8.33458 23.5057
594 1 -1.1104 1.05747 8.30607 26.3022
596 1 -1.1104 1.19295 5.56953 23.3387
597 1 -1.1104 1.1787 11.0297 23.3424
600 2 2.2208 5.3018 9.73122 24.8623
601 1 -1.1104 1.18865 5.36191 26.2202
602 1 -1.1104 1.06015 11.0311 26.2931
605 1 -1.1104 4.09552 8.13174 23.5503
606 2 2.2208 2.52257 6.80283 24.7611
607 2 2.2208 2.42121 12.3335 24.8841
608 1 -1.1104 4.10457 8.23101 26.3746
609 2 2.2208 2.69355 9.68319 22.0781
610 1 -1.1104 3.84552 5.35698 23.2394
611 1 -1.1104 3.78191 11.0042 23.6266
612 1 -1.1104 3.98445 5.44659 26.1899
613 1 -1.1104 3.97923 11.069 26.2644
599 1 -1.1104 6.65426 11.2103 23.4471
418 1 -1.1104 6.78431 10.9058 20.5486
598 1 -1.1104 6.65307 5.57541 23.4817
595 1 -1.1104 6.78548 8.37491 26.2704
8454 2 2.2208 5.36249 -4.23347 22.0826
560 1 -1.1104 12.4463 19.3918 23.4503
438 1 -1.1104 12.3508 8.20636 20.7175
9219 2 2.2208 -0.338446 20.9104 13.7284
405 1 -1.1104 6.74748 8.08623 20.5095
416 1 -1.1104 6.64856 5.42978 20.6995
455 1 -1.1104 9.46615 5.32701 20.7223
443 1 -1.1104 12.4372 5.47162 20.7436
603 1 -1.1104 6.72055 5.57075 26.3497
593 1 -1.1104 6.77692 8.47669 23.3848
450 1 -1.1104 9.50151 8.13733 20.6832
604 1 -1.1104 6.69259 11.1524 26.1644
457 1 -1.1104 9.65533 11.0037 20.7359
621 1 -1.1104 9.58942 11.1419 26.3025
622 1 -1.1104 9.57642 5.52308 26.4044
623 1 -1.1104 9.48525 11.1838 23.4762
624 1 -1.1104 9.55003 5.53071 23.5048
625 2 2.2208 8.19902 9.64092 21.9431
626 1 -1.1104 9.68127 8.25538 26.337
627 2 2.2208 8.08477 12.5357 24.8977
628 2 2.2208 8.15759 7.14869 24.9264
629 2 2.2208 10.9819 6.77345 22.1085
630 2 2.2208 11.0144 12.4483 22.0765
631 1 -1.1104 12.4429 8.24672 23.5079
632 1 -1.1104 12.4581 8.07541 26.3426
633 1 -1.1104 12.4052 5.51005 23.5369
634 1 -1.1104 12.4741 10.9119 23.696
635 2 2.2208 11.0546 9.63945 24.9743
636 1 -1.1104 12.3427 5.34655 26.3905
637 1 -1.1104 12.4862 10.9348 26.3641
638 1 -1.1104 9.60373 8.3031 23.4992
520 1 -1.1104 9.50369 16.6043 20.6695
587 1 -1.1104 12.3819 19.4311 26.3462
390 1 -1.1104 9.56214 19.4915 26.3919
479 1 -1.1104 1.23145 16.7045 20.8124
469 1 -1.1104 1.05545 19.4678 20.8896
488 1 -1.1104 3.75922 19.3207 20.773
549 1 -1.1104 6.82663 16.7135 26.3697
355 2 2.2208 5.36623 18.0813 22.1606
364 2 2.2208 5.31653 15.298 24.901
393 1 -1.1104 1.08258 13.7815 23.408
395 2 2.2208 5.26353 20.913 24.9378
431 1 -1.1104 1.05666 13.7527 26.1379
432 1 -1.1104 0.951832 16.5115 26.3957
458 1 -1.1104 1.19719 19.3388 26.3132
459 1 -1.1104 1.02193 19.3234 23.6167
550 1 -1.1104 3.86201 13.8742 23.5852
552 2 2.2208 2.54063 15.2328 22.1026
553 2 2.2208 2.43783 20.7728 22.2479
554 1 -1.1104 3.99704 16.7221 23.5351
555 1 -1.1104 1.19528 16.5085 23.5606
579 1 -1.1104 3.93134 19.455 23.6253
582 1 -1.1104 3.85732 13.9527 26.153
583 1 -1.1104 4.01012 16.595 26.3431
584 2 2.2208 2.52997 17.9816 24.8729
585 1 -1.1104 3.86378 19.5344 26.3676
620 1 -1.1104 9.47102 19.4397 23.6521
551 1 -1.1104 6.868 13.8854 26.3745
619 1 -1.1104 9.6159 13.7998 23.4987
588 1 -1.1104 12.3722 16.5588 23.4963
556 1 -1.1104 6.70967 16.6133 23.5122
357 1 -1.1104 9.63466 16.514 23.5371
559 1 -1.1104 12.4351 13.7845 23.4086
471 1 -1.1104 6.66499 13.8265 20.7105
389 2 2.2208 8.1288 15.2917 22.2069
581 1 -1.1104 6.74587 19.5345 26.2765
396 1 -1.1104 6.63511 19.4358 23.5172
361 2 2.2208 8.05809 20.9064 22.2929
589 2 2.2208 11.0282 15.1811 24.8835
494 2 2.2208 2.41386 18.016 13.6262
320 2 2.2208 5.32499 6.87534 27.5832
397 2 2.2208 13.714 18.0917 13.6529
9221 2 2.2208 -0.217472 6.75417 27.5597
495 2 2.2208 5.20008 20.8698 13.7357
8987 2 2.2208 -0.234636 4.00482 13.6636
316 2 2.2208 2.64285 4.10597 27.614
557 2 2.2208 8.11371 20.8314 27.8031
299 2 2.2208 11.0542 4.13132 13.6969
313 2 2.2208 8.20332 6.79699 13.7399
522 2 2.2208 11.0067 15.2676 13.7691
524 2 2.2208 10.9507 18.0956 27.7579
308 2 2.2208 5.32026 4.03112 13.7216
616 2 2.2208 5.20232 12.438 27.5487
523 2 2.2208 7.97862 18.0449 13.8035
641 2 2.2208 5.19411 23.6298 5.34428
642 2 2.2208 5.18465 29.1909 5.35292
643 1 -1.1104 1.19389 24.9821 1.14675
644 1 -1.1104 0.995189 25.0398 3.83473
645 1 -1.1104 1.17925 22.1474 1.0124
646 1 -1.1104 0.900059 27.9838 1.07317
647 2 2.2208 5.29573 26.3703 2.43459
648 1 -1.1104 1.1822 22.3191 3.86726
649 1 -1.1104 1.02184 27.8869 3.90954
650 1 -1.1104 3.96088 25.092 1.04858
651 2 2.2208 2.47819 23.4691 2.4126
652 2 2.2208 2.4596 29.2371 2.58408
653 1 -1.1104 3.80186 24.8792 3.86082
654 2 2.2208 2.41228 26.2747 5.31489
655 1 -1.1104 3.91647 22.191 1.08063
656 1 -1.1104 3.72319 27.8913 1.10967
657 1 -1.1104 3.84876 22.1236 3.9702
658 1 -1.1104 3.80932 27.5879 3.8477
1153 2 2.2208 5.16139 23.5731 -0.307934
1294 1 -1.1104 3.61906 47.3569 4.07613
665 1 -1.1104 6.55683 27.836 1.18803
1487 1 -1.1104 3.72884 47.3782 9.7269
667 1 -1.1104 6.53871 27.7832 3.99737
662 1 -1.1104 6.62849 25.0523 1.05617
9565 2 2.2208 13.4865 37.7583 10.9886
789 1 -1.1104 3.9134 22.324 6.71519
784 1 -1.1104 1.14166 22.1605 6.7721
786 1 -1.1104 6.66524 22.1608 6.61574
1154 2 2.2208 2.49875 26.4774 -0.312336
9674 2 2.2208 -0.443502 40.4677 5.30643
1214 2 2.2208 2.37228 32.1331 -0.395264
666 1 -1.1104 6.66692 22.2195 3.98385
663 1 -1.1104 6.60973 25.0385 3.83085
664 1 -1.1104 6.61344 22.2897 1.22804
668 2 2.2208 10.8104 23.6382 5.21601
669 2 2.2208 10.5772 29.2794 5.17676
670 1 -1.1104 12.2697 25.0055 1.10514
671 1 -1.1104 12.2998 25.14 3.91514
672 1 -1.1104 12.3767 22.2504 1.02582
673 1 -1.1104 12.2807 27.845 1.07977
674 2 2.2208 10.9207 26.4085 2.42168
675 1 -1.1104 12.3189 22.3018 3.85297
676 1 -1.1104 12.23 27.8783 3.79334
677 1 -1.1104 9.40706 25.1082 1.01437
678 2 2.2208 8.05953 23.6888 2.39961
679 2 2.2208 8.07589 29.167 2.45078
680 1 -1.1104 9.52174 25.0611 3.82013
681 2 2.2208 7.9903 26.4827 5.24511
682 1 -1.1104 9.40681 22.3022 1.00008
683 1 -1.1104 9.45986 27.8939 1.07177
684 1 -1.1104 9.42882 22.2772 3.86981
685 1 -1.1104 9.44853 27.9397 3.81893
1183 2 2.2208 10.9867 23.7043 -0.456936
9665 2 2.2208 -0.304826 29.1935 5.31521
783 1 -1.1104 6.69762 24.9446 6.54588
818 1 -1.1104 9.31806 25.0313 6.63864
1215 2 2.2208 5.27461 34.8758 -0.350853
868 1 -1.1104 12.1383 44.6997 9.67076
689 2 2.2208 5.22076 34.8698 5.28198
690 1 -1.1104 1.02652 30.6678 0.961208
691 1 -1.1104 0.993469 36.4253 1.01631
693 1 -1.1104 0.994934 30.6618 3.99095
694 1 -1.1104 1.06719 36.2718 3.85366
696 1 -1.1104 1.09967 33.6005 1.02891
697 2 2.2208 5.28068 31.9846 2.40369
698 2 2.2208 5.42776 37.5533 2.40754
699 1 -1.1104 1.18409 33.3122 3.84459
701 1 -1.1104 3.74537 30.6107 1.06939
702 1 -1.1104 3.89977 36.383 1.03095
703 2 2.2208 2.37634 34.9129 2.47122
704 1 -1.1104 3.85139 30.4596 3.96698
705 1 -1.1104 3.91645 36.1244 3.78595
706 2 2.2208 2.46599 31.9877 5.3984
707 2 2.2208 2.47055 37.6081 5.31397
708 1 -1.1104 3.88284 33.4746 1.21015
709 1 -1.1104 3.93219 33.1611 4.12086
1213 2 2.2208 2.41392 37.7828 -0.318342
9670 2 2.2208 -0.230621 34.9412 5.28752
1155 2 2.2208 5.23548 29.1841 -0.310497
695 1 -1.1104 6.67195 36.3129 4.01428
713 1 -1.1104 6.62181 30.5818 1.06137
700 1 -1.1104 6.62987 33.4636 3.76732
715 1 -1.1104 6.68652 33.3666 1.06111
741 1 -1.1104 0.982036 39.2427 1.0486
711 1 -1.1104 9.47019 41.9384 6.66609
939 2 2.2208 13.6179 26.3786 5.20352
714 1 -1.1104 6.73316 30.6757 3.8942
692 1 -1.1104 6.80797 36.1804 1.17064
716 2 2.2208 10.8649 34.8051 5.19545
717 1 -1.1104 12.3486 30.5728 1.15894
718 1 -1.1104 12.1588 36.1948 1.12456
719 1 -1.1104 12.3168 30.6861 3.95955
720 1 -1.1104 12.3132 36.3158 3.91845
721 1 -1.1104 12.1998 33.2748 1.12939
722 2 2.2208 10.8654 31.9759 2.43545
723 2 2.2208 10.7822 37.5571 2.47025
724 1 -1.1104 12.1755 33.4029 3.86866
725 1 -1.1104 9.45446 30.5498 1.116
726 1 -1.1104 9.36365 36.0176 0.951989