ITEM: TIMESTEP
60000
ITEM: NUMBER OF ATOMS
17700
ITEM: BOX BOUNDS pp pp pp
-3.6371112055672716e-01 2.7703711120555884e+01
-4.2936702162808675e+00 3.3237367021627330e+02
-3.6934131460207587e-01 2.7709341314602582e+01
ITEM: ATOMS id type q x y z
1 2 2.2208 5.51232 1.43977 5.27105
2 1 -1.1104 1.21183 -2.85926 1.0317
3 1 -1.1104 1.22942 2.65309 1.03596
6 1 -1.1104 1.2874 -2.77571 3.87737
7 1 -1.1104 1.11509 2.80785 3.73355
10 1 -1.1104 1.24625 -0.0394445 0.976235
12 2 2.2208 5.45244 -1.49087 2.37232
14 1 -1.1104 1.21442 -0.00832175 3.85735
16 1 -1.1104 3.92991 -2.92348 1.07538
17 1 -1.1104 4.09959 2.6624 0.997221
18 2 2.2208 2.54044 1.27409 2.4076
19 1 -1.1104 4.10133 -2.86232 3.78441
20 1 -1.1104 3.95585 2.70235 3.88283
21 2 2.2208 2.70029 -1.34164 5.17355
22 2 2.2208 2.65341 4.10764 5.18323
23 1 -1.1104 4.06018 -0.101085 1.09389
24 1 -1.1104 4.03621 -0.0573485 3.9238
13 2 2.2208 5.51416 4.15095 2.43563
8983 2 2.2208 -0.115466 1.46202 5.15202
8670 2 2.2208 -0.285604 15.326 8.02244
8671 2 2.2208 -0.451886 18.1328 10.74
8226 2 2.2208 11.0343 -4.2775 10.9067
8984 2 2.2208 -0.212279 4.16178 2.35945
8696 2 2.2208 -0.317307 20.9234 7.94938
301 2 2.2208 -0.100515 -1.475 2.2419
166 1 -1.1104 1.17847 -2.8785 6.62597
174 1 -1.1104 4.06085 0.0455947 6.68222
170 1 -1.1104 1.37123 -0.089167 6.67785
173 1 -1.1104 4.00324 2.89493 6.63903
8697 2 2.2208 -0.204942 20.8227 2.28176
8157 2 2.2208 10.9703 -4.32956 5.28501
8891 2 2.2208 -0.230981 12.5556 10.8414
15 1 -1.1104 6.83409 -0.0569288 3.94694
9 1 -1.1104 6.83795 2.78918 3.76684
8 1 -1.1104 6.8235 -2.79362 3.83336
4 1 -1.1104 6.7714 -2.94568 1.00009
11 1 -1.1104 6.8978 -0.05801 0.971153
5 1 -1.1104 6.9363 2.69807 0.979498
31 2 2.2208 11.036 1.33047 5.13646
32 1 -1.1104 12.5712 -2.72967 1.04913
33 1 -1.1104 12.372 2.92809 1.0485
34 1 -1.1104 12.3365 -2.97153 3.83304
35 1 -1.1104 12.3787 2.80996 3.83122
36 1 -1.1104 12.6138 0.0105661 0.893015
37 2 2.2208 11.1231 -1.50911 2.44051
38 2 2.2208 10.9832 4.16187 2.44066
39 1 -1.1104 12.6431 -0.0137215 3.67255
40 1 -1.1104 9.67455 -2.85105 1.15982
41 1 -1.1104 9.64169 2.65909 1.04327
42 2 2.2208 8.23057 1.2354 2.38429
43 1 -1.1104 9.51664 -3.01462 3.8441
44 1 -1.1104 9.57376 2.75289 3.68905
45 2 2.2208 8.20002 -1.54597 5.21196
46 2 2.2208 8.23931 4.00008 5.22772
47 1 -1.1104 9.74053 -0.0572734 1.04046
48 1 -1.1104 9.86526 -0.0797708 3.62011
8288 2 2.2208 5.48755 -4.26883 10.9021
171 1 -1.1104 6.80303 0.00348368 6.65725
206 1 -1.1104 12.5482 2.8113 6.52513
209 1 -1.1104 9.72803 2.71627 6.53942
205 1 -1.1104 12.3684 -2.92738 6.73737
83 2 2.2208 10.9827 21.0335 8.02022
8829 2 2.2208 -0.188951 7.05556 5.29034
302 2 2.2208 13.9156 15.416 10.9478
54 2 2.2208 5.46462 6.84897 5.25325
55 2 2.2208 5.33979 12.548 5.16362
56 1 -1.1104 1.01723 8.31276 0.991491
58 1 -1.1104 1.04 8.16755 3.73434
60 1 -1.1104 1.37434 5.50436 0.900776
61 1 -1.1104 1.12617 11.0959 1.01109
66 2 2.2208 5.39699 9.75322 2.41009
67 1 -1.1104 1.36815 5.46543 3.73484
68 1 -1.1104 1.21279 11.1291 3.69673
71 1 -1.1104 3.83347 8.29043 1.10065
72 2 2.2208 2.62505 6.89968 2.37401
73 2 2.2208 2.61993 12.4802 2.40141
74 1 -1.1104 4.13233 8.17035 3.84178
75 2 2.2208 2.70885 9.60995 5.31089
76 1 -1.1104 4.24491 5.45249 0.906516
77 1 -1.1104 4.0325 11.0024 0.986714
79 1 -1.1104 3.98624 5.54311 3.80823
80 1 -1.1104 3.91333 11.0435 3.75173
521 2 2.2208 10.8991 21.0641 13.7193
17307 2 2.2208 -0.202889 -4.23682 10.9961
8746 2 2.2208 -0.253091 9.72271 2.51677
62 1 -1.1104 1.25463 11.0898 6.53389
8865 2 2.2208 -0.350995 18.109 5.19332
239 1 -1.1104 3.97477 5.51705 6.63853
236 1 -1.1104 1.21182 5.504 6.61012
8284 2 2.2208 5.32052 -4.18403 5.32893
135 1 -1.1104 9.46926 19.5792 12.2906
28 1 -1.1104 9.46628 16.7874 9.24433
69 1 -1.1104 6.75849 5.61572 3.95523
64 1 -1.1104 6.94351 11.1177 0.991487
63 1 -1.1104 6.96886 5.4466 1.16656
70 1 -1.1104 6.66122 11.2108 3.87719
59 1 -1.1104 6.88698 8.33843 3.83272
57 1 -1.1104 6.70871 8.2211 1.12631
84 2 2.2208 11.0843 7.02845 5.2586
85 2 2.2208 10.9572 12.5412 5.15607
86 1 -1.1104 12.2897 8.42939 0.824253
87 1 -1.1104 12.4843 8.49135 3.74098
88 1 -1.1104 12.4771 5.6099 0.937823
89 1 -1.1104 12.3937 11.2814 0.904248
91 2 2.2208 10.9582 9.83415 2.42988
92 1 -1.1104 12.4995 5.65395 3.74112
93 1 -1.1104 12.3878 11.3235 3.70704
94 1 -1.1104 9.495 8.38066 0.903252
95 2 2.2208 8.19353 6.93823 2.59371
96 2 2.2208 8.16468 12.617 2.41368
97 1 -1.1104 9.68284 8.341 3.90571
98 2 2.2208 8.31961 9.76875 5.1128
99 1 -1.1104 9.73448 5.6729 1.03075
100 1 -1.1104 9.71801 11.3156 1.01633
102 1 -1.1104 9.69653 5.50486 3.92962
103 1 -1.1104 9.54461 11.1379 3.93145
8899 2 2.2208 -0.157448 12.5006 5.04241
101 1 -1.1104 9.74283 11.1523 6.66066
8155 2 2.2208 2.59253 -4.27967 8.10114
303 2 2.2208 13.8278 20.8023 10.7872
106 2 2.2208 5.31201 18.0986 5.17981
107 1 -1.1104 1.25575 13.8511 0.917361
109 1 -1.1104 1.03767 19.4773 1.10336
113 1 -1.1104 1.22094 13.8704 3.66389
114 1 -1.1104 1.14826 19.6197 3.95383
116 1 -1.1104 1.21994 16.636 0.985714
119 2 2.2208 5.33569 15.3882 2.45994
120 2 2.2208 5.20868 20.8481 2.53642
121 1 -1.1104 1.19195 16.8315 3.86426
123 1 -1.1104 3.9132 13.829 0.912882
125 1 -1.1104 3.93355 19.412 1.10179
127 2 2.2208 2.51776 18.1342 2.48691
128 1 -1.1104 3.97064 13.9714 3.89104
129 1 -1.1104 3.88408 19.5341 3.9358
130 2 2.2208 2.52867 15.3094 5.20969
131 2 2.2208 2.38762 20.9068 5.29354
132 1 -1.1104 3.99505 16.7183 1.07181
134 1 -1.1104 3.89694 16.7596 3.81821
8285 2 2.2208 2.63933 -4.31786 2.38861
122 1 -1.1104 6.78204 16.757 3.83162
124 1 -1.1104 4.03035 13.9267 6.62615
108 1 -1.1104 1.25281 13.9365 6.55515
495 2 2.2208 5.25159 21.0272 13.6962
460 2 2.2208 8.11487 12.5484 13.6484
290 1 -1.1104 6.67297 13.9479 9.45085
110 1 -1.1104 6.80272 13.9068 1.05798
112 1 -1.1104 6.68265 19.4624 6.5397
140 1 -1.1104 6.75525 16.6841 1.00313
138 1 -1.1104 6.71651 19.4559 0.985961
115 1 -1.1104 6.73653 13.9769 3.8551
139 1 -1.1104 6.74371 19.412 3.80227
141 2 2.2208 10.895 18.1527 5.27608
142 1 -1.1104 12.4513 13.9263 0.999469
144 1 -1.1104 12.1703 19.3734 1.09169
146 1 -1.1104 12.3816 13.9615 3.75142
147 1 -1.1104 12.3103 19.5987 3.85473
148 1 -1.1104 12.3747 16.6632 1.03871
150 2 2.2208 10.995 15.3632 2.38184
151 2 2.2208 10.9459 20.8961 2.42496
152 1 -1.1104 12.2472 16.6834 3.96253
153 1 -1.1104 9.63319 13.9786 0.915514
155 1 -1.1104 9.40167 19.6664 1.00689
157 2 2.2208 8.19164 18.2046 2.42727
158 1 -1.1104 9.51358 13.89 3.73146
159 1 -1.1104 9.67878 19.5759 3.80052
160 2 2.2208 8.15527 15.3934 5.23252
161 2 2.2208 8.09456 20.8904 5.15432
162 1 -1.1104 9.76743 16.6455 1.01008
164 1 -1.1104 9.43225 16.8796 3.74941
199 2 2.2208 8.03239 15.4388 10.7186
118 1 -1.1104 6.82561 16.6481 6.66402
149 1 -1.1104 12.229 16.7423 6.80025
156 1 -1.1104 9.54965 19.5514 6.61018
297 1 -1.1104 6.69925 14.0652 12.3243
8898 2 2.2208 -0.0920541 9.76643 8.10877
9245 2 2.2208 -0.173382 9.73059 13.7107
8830 2 2.2208 -0.206675 4.1939 8.14147
8980 2 2.2208 -0.201941 1.33276 10.7912
167 1 -1.1104 1.17414 2.73827 6.61121
172 1 -1.1104 3.77916 -2.84872 6.56092
175 2 2.2208 5.28296 1.37276 10.8328
176 1 -1.1104 1.25395 -2.81176 12.3748
177 1 -1.1104 1.22555 2.6838 12.235
180 1 -1.1104 1.27585 -2.90292 9.50719
181 1 -1.1104 1.07217 2.82296 9.36545
184 1 -1.1104 1.24211 -0.0258915 12.3591
186 2 2.2208 5.27909 -1.40762 8.00066
187 2 2.2208 5.45441 4.22488 8.06873
188 1 -1.1104 1.06513 -0.0900448 9.58462
190 1 -1.1104 4.05173 -2.90594 12.2312
191 1 -1.1104 4.03305 2.78253 12.2711
192 2 2.2208 2.59266 1.41738 8.0173
193 1 -1.1104 4.06965 -2.93572 9.36756
194 1 -1.1104 3.85276 2.85367 9.44554
195 2 2.2208 2.49521 -1.58331 10.7543
196 2 2.2208 2.522 4.22369 10.8977
197 1 -1.1104 3.99044 -0.246085 12.127
198 1 -1.1104 3.85741 0.0395253 9.3977
8979 2 2.2208 -0.343425 -1.3247 8.01424
185 1 -1.1104 6.82868 -0.150623 12.1734
26 1 -1.1104 12.2934 14.0216 12.182
50 1 -1.1104 12.2841 19.6747 9.44479
289 1 -1.1104 6.68364 16.8117 9.39321
82 2 2.2208 10.8911 15.3144 8.13866
168 1 -1.1104 6.67946 -2.76348 6.71101
207 1 -1.1104 12.3533 -0.0071098 6.70641
210 1 -1.1104 9.54473 -0.0412973 6.52357
208 1 -1.1104 9.6193 -2.80022 6.6456
169 1 -1.1104 6.88328 2.7243 6.63241
189 1 -1.1104 6.63189 -0.0376344 9.40937
178 1 -1.1104 6.83442 -2.81121 12.3003
179 1 -1.1104 6.72245 2.74788 12.1645
183 1 -1.1104 6.79631 2.72812 9.40589
182 1 -1.1104 6.8021 -2.80319 9.4487
211 2 2.2208 10.9331 1.42914 10.9157
212 1 -1.1104 12.4075 -2.86615 12.3428
213 1 -1.1104 12.4379 2.73887 12.3955
214 1 -1.1104 12.2603 -2.76956 9.56359
215 1 -1.1104 12.2602 2.92427 9.56792
216 1 -1.1104 12.3945 0.0523315 12.2332
217 2 2.2208 11.1197 -1.48248 8.01339
218 2 2.2208 11.0143 4.2221 8.00773
219 1 -1.1104 12.4558 0.0294768 9.36225
220 1 -1.1104 9.67232 -2.72253 12.3717
221 1 -1.1104 9.50817 2.8994 12.2949
222 2 2.2208 8.10985 1.26035 7.95806
223 1 -1.1104 9.51312 -2.79995 9.65679
224 1 -1.1104 9.41079 2.72549 9.42632
225 2 2.2208 8.19824 -1.31186 10.8171
226 2 2.2208 8.28189 4.17218 10.8504
227 1 -1.1104 9.57935 0.213483 12.2559
228 1 -1.1104 9.70019 -0.127537 9.32676
494 2 2.2208 2.5692 18.1921 13.7125
136 2 2.2208 8.17431 18.1554 8.06115
78 1 -1.1104 4.01622 11.2004 6.47344
238 1 -1.1104 3.99631 8.34989 6.86081
234 1 -1.1104 1.22167 8.47475 6.60504
240 2 2.2208 5.44031 7.00671 10.7193
241 2 2.2208 5.28784 12.603 10.9709
242 1 -1.1104 1.34434 8.41488 12.2316
244 1 -1.1104 1.04967 8.38362 9.49849
246 1 -1.1104 1.06242 5.6085 12.2811
247 1 -1.1104 1.13286 11.0377 12.275
250 2 2.2208 5.52311 9.8457 7.99853
251 1 -1.1104 1.41788 5.55381 9.43597
252 1 -1.1104 1.32388 11.2812 9.3672
255 1 -1.1104 4.02972 8.30552 12.1867
256 2 2.2208 2.61969 6.92156 8.11643
257 2 2.2208 2.68627 12.6291 8.07813
258 1 -1.1104 3.8502 8.44367 9.53106
259 2 2.2208 2.57065 9.81869 10.8436
260 1 -1.1104 3.89574 5.62845 12.2979
261 1 -1.1104 3.98752 11.0916 12.1514
262 1 -1.1104 4.16597 5.58199 9.42858
263 1 -1.1104 4.01229 11.169 9.32833
8968 2 2.2208 -0.191934 7.00957 10.908
104 1 -1.1104 12.5508 16.8929 9.62696
311 2 2.2208 2.66889 6.81003 13.6983
53 1 -1.1104 6.77274 16.8714 12.138
249 1 -1.1104 6.79381 11.1953 12.2252
254 1 -1.1104 6.77322 11.1978 9.42214
235 1 -1.1104 6.83117 8.28815 6.62225
65 1 -1.1104 6.91897 11.137 6.58687
237 1 -1.1104 6.87578 5.59469 6.70928
267 1 -1.1104 9.75127 8.37211 6.58942
265 1 -1.1104 12.5271 8.382 6.65403
269 1 -1.1104 9.68491 5.65495 6.64753
90 1 -1.1104 12.4433 11.0423 6.53393
266 1 -1.1104 12.5 5.47145 6.6011
245 1 -1.1104 6.95311 8.48497 9.32862
243 1 -1.1104 6.84156 8.4497 12.125
253 1 -1.1104 6.95044 5.46231 9.41289
248 1 -1.1104 6.82762 5.62663 12.1901
264 1 -1.1104 9.54617 11.1259 9.42836
268 1 -1.1104 9.70217 5.42083 9.43493
270 1 -1.1104 9.56223 11.3016 12.2661
271 1 -1.1104 9.58607 5.6292 12.3979
272 2 2.2208 8.26959 9.88167 10.8904
273 1 -1.1104 9.593 8.32984 9.30981
274 2 2.2208 8.09278 12.4682 8.07502
275 2 2.2208 8.33411 6.98264 8.01243
276 2 2.2208 10.9944 7.03164 10.8592
277 2 2.2208 10.9577 12.6441 10.7308
278 1 -1.1104 12.4046 8.42678 12.4402
279 1 -1.1104 12.3164 8.30959 9.36702
280 1 -1.1104 12.3371 5.60729 12.2099
281 1 -1.1104 12.3662 11.096 12.2134
282 2 2.2208 11.0862 9.77102 8.02404
283 1 -1.1104 12.4143 5.69373 9.38059
284 1 -1.1104 12.4098 11.1851 9.48326
285 1 -1.1104 9.60287 8.36391 12.2597
117 1 -1.1104 1.10935 16.7827 6.69524
288 1 -1.1104 6.68281 19.6143 9.47147
126 1 -1.1104 4.0206 19.5733 6.58118
133 1 -1.1104 4.00215 16.7839 6.49829
231 1 -1.1104 1.20829 19.6101 6.6897
29 2 2.2208 2.38506 15.4833 10.8365
30 2 2.2208 2.4204 20.7722 10.8184
51 1 -1.1104 3.908 16.6147 12.189
52 1 -1.1104 1.15991 16.7857 12.2988
200 1 -1.1104 1.18014 13.8786 12.3122
202 1 -1.1104 3.97211 14.0097 9.48255
203 1 -1.1104 3.80626 16.8618 9.39008
204 2 2.2208 2.57127 18.2374 7.94655
232 1 -1.1104 3.79097 19.5033 9.45925
233 2 2.2208 5.19264 18.086 10.7631
286 1 -1.1104 3.86431 19.5311 12.3046
287 1 -1.1104 3.87519 13.8265 12.2656
291 1 -1.1104 1.03664 19.5942 9.39065
292 1 -1.1104 0.970811 16.7192 9.36277
293 2 2.2208 5.34742 20.9189 7.94601
294 1 -1.1104 1.17442 13.9771 9.52292
295 2 2.2208 5.31876 15.4455 7.96183
298 1 -1.1104 0.987069 19.3993 12.3249
296 1 -1.1104 6.73031 19.5711 12.2543
49 1 -1.1104 12.4472 14.0702 9.28159
27 1 -1.1104 12.3367 19.6289 12.3216
313 2 2.2208 8.21663 6.85787 13.6605
25 2 2.2208 11.0554 18.1771 10.9591
229 1 -1.1104 9.48714 16.8132 12.2
111 1 -1.1104 6.80379 13.8985 6.64443
105 1 -1.1104 9.47995 13.9422 12.09
143 1 -1.1104 12.3032 13.7181 6.62989
163 1 -1.1104 9.5591 16.7235 6.46541
154 1 -1.1104 9.62509 13.9547 6.61229
145 1 -1.1104 12.4112 19.5811 6.66353
81 1 -1.1104 12.4369 16.7626 12.3317
137 1 -1.1104 9.57475 13.8987 9.41188
201 2 2.2208 8.11172 20.9297 10.839
165 1 -1.1104 9.66166 19.62 9.54284
316 2 2.2208 2.7805 4.02151 -0.483281
8987 2 2.2208 -0.294651 4.18163 13.622
8994 2 2.2208 -0.221801 -1.42859 13.6966
8312 2 2.2208 5.32371 -4.34519 -0.278197
309 2 2.2208 8.22011 1.34228 13.661
522 2 2.2208 10.8939 15.3814 13.5983
9218 2 2.2208 -0.278161 15.3856 13.6377
17324 2 2.2208 -0.0849093 -4.26487 -0.344578
524 2 2.2208 10.9163 18.0527 -0.379183
299 2 2.2208 10.919 4.23153 13.6888
9221 2 2.2208 -0.205368 6.88424 -0.399116
9249 2 2.2208 -0.151757 12.3989 -0.383617
321 2 2.2208 10.9729 7.01783 -0.443472
9219 2 2.2208 -0.329715 20.9417 13.5393
616 2 2.2208 5.34512 12.4698 -0.536889
615 2 2.2208 2.53718 9.71772 -0.432763
230 2 2.2208 11.0391 9.6703 13.8144
640 2 2.2208 8.26408 9.69487 -0.480923
322 2 2.2208 5.50857 1.34514 16.409
323 1 -1.1104 1.32447 -2.66407 17.9469
324 1 -1.1104 1.33191 2.66833 17.8461
327 1 -1.1104 1.31074 -2.75946 15.0834
329 1 -1.1104 1.16839 2.62077 14.9073
335 1 -1.1104 1.17803 -0.061774 17.8939
337 2 2.2208 5.41066 -1.34133 19.2957
338 2 2.2208 5.47629 4.22305 19.3784
339 1 -1.1104 1.34985 0.0800883 15.1788
343 1 -1.1104 4.0374 -3.00395 17.9481
344 1 -1.1104 4.13078 2.74851 17.8833
345 2 2.2208 2.57122 1.3104 19.2353
346 1 -1.1104 3.87953 -2.95001 15.0556
348 1 -1.1104 3.91514 2.59665 15.119
350 2 2.2208 2.65221 -1.39944 16.4469
351 2 2.2208 2.70322 4.0122 16.5302
352 1 -1.1104 4.057 -0.117698 17.9049
353 1 -1.1104 4.13977 -0.234418 15.0847
9110 2 2.2208 -0.106196 -1.40057 19.3587
9033 2 2.2208 -0.245148 4.1302 19.2944
9032 2 2.2208 -0.277356 1.38778 16.3651
318 2 2.2208 8.2199 -1.53863 27.7369
9029 2 2.2208 -0.29312 20.8765 24.8998
9215 2 2.2208 -0.381331 20.9901 19.2135
330 1 -1.1104 1.20765 2.59637 20.6289
9070 2 2.2208 -0.207591 15.2642 24.8306
9217 2 2.2208 -0.259884 18.1744 16.5064
356 1 -1.1104 9.45211 16.7215 26.2863
326 1 -1.1104 7.10204 2.75906 17.8364
9028 2 2.2208 -0.237804 18.1279 22.1441
341 1 -1.1104 6.84849 -0.00871791 15.0359
325 1 -1.1104 6.89859 -2.90105 17.8219
331 1 -1.1104 6.81995 -2.88797 15.1158
336 1 -1.1104 6.89492 -0.0301988 17.9677
333 1 -1.1104 6.76245 2.6478 14.9373
365 2 2.2208 11.0827 1.41961 16.6081
366 1 -1.1104 12.4436 -2.74453 18.0292
367 1 -1.1104 12.5669 2.87569 17.9296
368 1 -1.1104 12.4126 -2.65435 15.1887
370 1 -1.1104 12.3945 2.84637 15.048
372 1 -1.1104 12.5383 0.152722 17.926
373 2 2.2208 11.0646 -1.35873 19.3602
374 2 2.2208 11.1478 4.14818 19.3672
375 1 -1.1104 12.5182 0.0521843 15.1098
377 1 -1.1104 9.80265 -2.7308 17.989
378 1 -1.1104 9.7274 2.80702 17.9197
379 2 2.2208 8.25984 1.25294 19.2994
380 1 -1.1104 9.73634 -2.84848 15.0284
382 1 -1.1104 9.62593 2.76899 15.0642
384 2 2.2208 8.32298 -1.44553 16.4079
385 2 2.2208 8.22877 4.09916 16.4902
386 1 -1.1104 9.70383 0.105807 17.9397
387 1 -1.1104 9.62304 -0.0647441 15.1023
8457 2 2.2208 8.35743 -4.24948 19.2815
332 1 -1.1104 6.98387 -2.81479 20.6606
388 1 -1.1104 9.64402 -0.0386813 20.7687
334 1 -1.1104 6.77332 2.8075 20.5914
306 2 2.2208 5.35814 -1.55385 13.6085
618 1 -1.1104 12.3092 16.88 26.2575
398 2 2.2208 5.49314 6.90667 16.4693
399 2 2.2208 5.4358 12.5215 16.5505
400 1 -1.1104 1.10351 8.38 17.869
402 1 -1.1104 1.30607 8.14666 15.0046
406 1 -1.1104 1.35119 5.55565 17.8611
407 1 -1.1104 1.20419 11.2408 17.8951
410 2 2.2208 5.39415 9.64084 19.3207
411 1 -1.1104 1.20701 5.45911 15.1606
413 1 -1.1104 1.15338 11.0865 15.1133
419 1 -1.1104 3.8647 8.29167 17.881
420 2 2.2208 2.53284 6.88708 19.3782
421 2 2.2208 2.57219 12.5964 19.2806
422 1 -1.1104 4.21469 8.23945 15.0273
424 2 2.2208 2.70238 9.62763 16.3275
425 1 -1.1104 4.18311 5.59112 17.891
426 1 -1.1104 4.03609 11.1924 17.8922
427 1 -1.1104 4.03233 5.51749 15.208
429 1 -1.1104 3.88204 11.1938 14.9234
415 1 -1.1104 6.77616 5.5555 14.9314
428 1 -1.1104 4.02495 5.51386 20.7601
403 1 -1.1104 1.15976 8.19497 20.6987
9111 2 2.2208 -0.170361 12.4872 16.4864
9244 2 2.2208 -0.184389 6.95087 16.4378
9222 2 2.2208 -0.209589 12.5461 22.1278
515 1 -1.1104 9.52362 19.5044 20.7279
586 1 -1.1104 12.2906 13.99 26.1961
404 1 -1.1104 6.88541 8.32586 15.1357
409 1 -1.1104 6.894 11.0985 17.7737
17688 2 2.2208 -0.0206303 -4.23749 16.4914
417 1 -1.1104 6.71728 11.1669 14.923
408 1 -1.1104 7.04506 5.57019 17.8403
401 1 -1.1104 6.75381 8.31634 17.9479
434 2 2.2208 10.9865 6.84319 16.5286
435 2 2.2208 11.0268 12.6795 16.4126
436 1 -1.1104 12.3955 8.41359 17.9343
437 1 -1.1104 12.3593 8.27084 15.1356
439 1 -1.1104 12.4851 5.71106 17.9882
440 1 -1.1104 12.2906 11.1069 17.7955
441 2 2.2208 11.0286 9.76232 19.252
442 1 -1.1104 12.421 5.43144 15.2797
444 1 -1.1104 12.3442 11.1644 15.0314
446 1 -1.1104 9.65345 8.50049 17.8807
447 2 2.2208 8.31465 6.93782 19.3324
448 2 2.2208 8.2332 12.5633 19.3078
449 1 -1.1104 9.61007 8.28481 15.1504
451 2 2.2208 8.25311 9.79927 16.3631
452 1 -1.1104 9.79294 5.56817 18.0202
453 1 -1.1104 9.65483 11.2677 17.8733
454 1 -1.1104 9.57629 5.50225 15.0675
456 1 -1.1104 9.51673 11.1497 14.9909
581 1 -1.1104 6.69669 19.6531 26.2954
307 2 2.2208 2.67054 1.23547 13.5959
523 2 2.2208 8.08947 18.2387 13.571
513 1 -1.1104 9.53325 14.0696 20.7458
559 1 -1.1104 12.3084 13.9838 23.401
461 2 2.2208 5.33756 18.1736 16.3812
462 1 -1.1104 1.24249 14.0104 17.9637
463 1 -1.1104 1.03918 19.694 17.8478
466 1 -1.1104 1.21884 13.9933 15.0759
468 1 -1.1104 1.1116 19.6511 15.1093
474 1 -1.1104 1.16803 16.7176 17.8509
476 2 2.2208 5.36638 15.3048 19.2107
477 2 2.2208 5.20522 21.0185 19.2337
478 1 -1.1104 1.18958 16.8243 15.1511
482 1 -1.1104 3.95908 13.9512 17.8311
483 1 -1.1104 3.8133 19.6045 17.7779
484 2 2.2208 2.38518 18.1258 19.3164
485 1 -1.1104 3.92984 13.9653 15.0115
487 1 -1.1104 3.84319 19.6316 14.9467
489 2 2.2208 2.57079 15.3012 16.5055
490 2 2.2208 2.51061 21.0514 16.4574
491 1 -1.1104 3.93555 16.7252 17.8308
492 1 -1.1104 4.02043 16.884 15.0502
472 1 -1.1104 6.67945 19.5654 15.0313
465 1 -1.1104 6.61711 19.6933 17.8221
470 1 -1.1104 6.79609 13.9537 15.0748
480 1 -1.1104 6.61387 16.858 14.943
9075 2 2.2208 -0.195136 4.07189 24.9172
9216 2 2.2208 -0.227291 15.4304 19.2369
589 2 2.2208 10.8608 15.4091 24.7642
558 2 2.2208 10.8139 18.2214 21.9601
620 1 -1.1104 9.53002 19.5581 23.5117
551 1 -1.1104 6.85173 13.7722 26.277
475 1 -1.1104 6.73054 16.8216 17.7215
464 1 -1.1104 6.85224 13.8831 18.001
497 2 2.2208 10.8526 18.1102 16.4754
498 1 -1.1104 12.377 14.0972 17.9748
499 1 -1.1104 12.3542 19.5727 17.973
500 1 -1.1104 12.4488 14.045 15.0234
502 1 -1.1104 12.3993 19.3486 15.1952
504 1 -1.1104 12.3609 16.7436 17.8862
505 2 2.2208 10.8797 15.3596 19.2911
506 2 2.2208 11.0199 21.008 19.2264
507 1 -1.1104 12.3288 16.7963 15.1209
509 1 -1.1104 9.57275 14.0701 17.8845
510 1 -1.1104 9.42165 19.592 17.8965
511 2 2.2208 8.09039 18.092 19.2518
512 1 -1.1104 9.62881 13.7718 14.9646
514 1 -1.1104 9.34312 19.5657 15.0705
516 2 2.2208 8.04025 15.4029 16.4847
517 2 2.2208 8.07051 20.9216 16.4597
518 1 -1.1104 9.44797 16.7921 17.9497
519 1 -1.1104 9.47588 16.7497 15.1245
392 2 2.2208 5.32817 18.198 27.7055
503 1 -1.1104 12.3054 19.5638 20.5937
508 1 -1.1104 12.2086 16.7111 20.6517
481 1 -1.1104 6.61635 16.5349 20.469
8319 2 2.2208 8.28889 -4.17882 13.7221
317 2 2.2208 11.1005 1.43241 27.6806
9076 2 2.2208 -0.201105 1.39452 22.1149
8384 2 2.2208 5.44859 -4.21478 16.4865
354 1 -1.1104 4.07297 -0.0369276 20.7128
340 1 -1.1104 1.23094 -0.0934325 20.679
347 1 -1.1104 4.09606 -2.67361 20.8103
328 1 -1.1104 1.32598 -2.93743 20.8011
349 1 -1.1104 4.11467 2.73162 20.6297
525 2 2.2208 5.39003 1.29833 22.1458
526 1 -1.1104 1.44131 -2.80285 23.5884
527 1 -1.1104 1.08647 2.7671 23.4723
530 1 -1.1104 1.37361 -2.88215 26.182
531 1 -1.1104 1.19984 2.83352 26.191
534 1 -1.1104 1.3154 0.050491 23.5415
536 2 2.2208 5.50287 -1.47032 24.9284
537 2 2.2208 5.36616 4.15458 24.7362
538 1 -1.1104 1.29572 -0.045176 26.3551
540 1 -1.1104 4.14621 -2.91995 23.5417
541 1 -1.1104 3.94959 2.80539 23.4728
542 2 2.2208 2.60809 1.36936 24.8954
543 1 -1.1104 4.08519 -2.94343 26.2949
544 1 -1.1104 4.09121 2.60783 26.137
545 2 2.2208 2.55625 -1.41213 22.1645
546 2 2.2208 2.57807 4.09747 22.0388
547 1 -1.1104 4.04303 -0.168865 23.5235
548 1 -1.1104 4.08017 -0.14716 26.2732
360 2 2.2208 -0.0916321 -1.30389 24.9757
357 1 -1.1104 9.43216 16.7202 23.4285
614 2 2.2208 8.1618 18.1364 24.8721
9243 2 2.2208 -0.108688 9.81188 19.2731
520 1 -1.1104 9.55127 16.8531 20.7032
533 1 -1.1104 6.85411 2.66811 26.3344
371 1 -1.1104 12.4284 2.81362 20.7713
381 1 -1.1104 9.74767 -2.65382 20.719
342 1 -1.1104 6.80326 0.0774125 20.7265
535 1 -1.1104 6.94397 0.0482464 23.5124
539 1 -1.1104 6.89119 -0.12206 26.3975
383 1 -1.1104 9.66914 2.57186 20.7527
532 1 -1.1104 6.76111 -2.91153 26.4408
529 1 -1.1104 6.65193 2.7454 23.4204
528 1 -1.1104 6.81104 -2.70317 23.4305
369 1 -1.1104 12.5223 -2.69809 20.7491
376 1 -1.1104 12.4281 -0.0169373 20.7945
561 2 2.2208 11.0964 1.38688 22.2221
562 1 -1.1104 12.4457 -2.80521 23.6776
563 1 -1.1104 12.505 2.95232 23.5608
564 1 -1.1104 12.4483 -2.88128 26.4708
565 1 -1.1104 12.399 2.74312 26.3423
566 1 -1.1104 12.4537 -0.133984 23.5756
567 2 2.2208 11.0952 -1.42027 25.0557
568 2 2.2208 10.896 4.2346 25.0284
569 1 -1.1104 12.4406 0.0194879 26.3078
570 1 -1.1104 9.57094 -2.82543 23.5631
571 1 -1.1104 9.53538 2.84028 23.5977
572 2 2.2208 8.30753 1.31606 24.899
573 1 -1.1104 9.62738 -2.8192 26.349
574 1 -1.1104 9.62689 2.61118 26.3806
575 2 2.2208 8.39321 -1.31275 22.1447
576 2 2.2208 8.13982 4.05737 22.0605
577 1 -1.1104 9.70684 0.0675244 23.6282
578 1 -1.1104 9.71655 -0.112086 26.3631
361 2 2.2208 8.09466 20.7975 22.0108
358 2 2.2208 8.11247 15.2196 27.695
617 2 2.2208 10.9039 20.9394 24.8898
423 1 -1.1104 4.07071 8.30321 20.7025
9275 2 2.2208 -0.21951 6.87096 22.0923
396 1 -1.1104 6.74131 19.2794 23.4889
9247 2 2.2208 -0.264375 9.77773 24.9549
414 1 -1.1104 1.24557 11.0882 20.6678
430 1 -1.1104 3.98826 11.0635 20.7488
412 1 -1.1104 1.14472 5.34614 20.6453
590 2 2.2208 5.47192 6.98493 22.0732
591 2 2.2208 5.45562 12.3955 22.0672
592 1 -1.1104 1.20489 8.41178 23.3981
594 1 -1.1104 1.22524 8.38842 26.2889
596 1 -1.1104 1.14743 5.51405 23.369
597 1 -1.1104 1.23304 11.2231 23.5265
600 2 2.2208 5.4008 9.75212 24.8626
601 1 -1.1104 1.06312 5.69894 26.1562
602 1 -1.1104 1.28481 11.1667 26.3466
605 1 -1.1104 3.89904 8.36757 23.6416
606 2 2.2208 2.40846 6.87252 24.7585
607 2 2.2208 2.62231 12.4496 24.8689
608 1 -1.1104 4.14224 8.2007 26.344
609 2 2.2208 2.53921 9.78425 22.2139
610 1 -1.1104 3.93299 5.49311 23.4323
611 1 -1.1104 4.00586 11.0285 23.5591
612 1 -1.1104 3.93275 5.36087 26.2545
613 1 -1.1104 4.06555 10.937 26.3711
587 1 -1.1104 12.4164 19.6589 26.3792
418 1 -1.1104 6.7838 11.2064 20.6063
598 1 -1.1104 6.73519 5.51536 23.4103
604 1 -1.1104 6.68521 11.067 26.2349
599 1 -1.1104 6.8376 11.1507 23.3952
438 1 -1.1104 12.3591 8.41324 20.6365
405 1 -1.1104 6.91434 8.37567 20.6382
445 1 -1.1104 12.4031 11.2886 20.624
455 1 -1.1104 9.55702 5.4562 20.6861
595 1 -1.1104 6.87145 8.29135 26.2664
593 1 -1.1104 6.86403 8.46052 23.4722
443 1 -1.1104 12.4481 5.68324 20.7834
450 1 -1.1104 9.56684 8.30882 20.6365
457 1 -1.1104 9.62505 11.1071 20.7101
416 1 -1.1104 6.784 5.66493 20.7132
603 1 -1.1104 6.73261 5.39627 26.4044
621 1 -1.1104 9.68853 11.1229 26.2502
622 1 -1.1104 9.52331 5.4795 26.2524
623 1 -1.1104 9.55225 11.0309 23.5013
624 1 -1.1104 9.39521 5.57821 23.4955
625 2 2.2208 8.31656 9.70562 22.0678
626 1 -1.1104 9.53518 8.32288 26.3189
627 2 2.2208 8.28335 12.459 24.8727
628 2 2.2208 8.23907 6.90903 24.9581
629 2 2.2208 10.9798 6.97292 22.09
630 2 2.2208 11.0446 12.6191 22.0613
631 1 -1.1104 12.4244 8.45845 23.3454
632 1 -1.1104 12.2949 8.33699 26.0835
633 1 -1.1104 12.2539 5.77495 23.5566
634 1 -1.1104 12.1995 11.1381 23.4194
635 2 2.2208 11.0322 9.76953 24.8241
636 1 -1.1104 12.4133 5.44891 26.3489
637 1 -1.1104 12.3902 11.2052 26.1716
638 1 -1.1104 9.63816 8.26374 23.4059
588 1 -1.1104 12.339 16.7538 23.4286
493 1 -1.1104 3.84802 16.641 20.5553
486 1 -1.1104 4.03596 13.7943 20.6649
479 1 -1.1104 1.12069 16.7431 20.6713
488 1 -1.1104 3.7725 19.6872 20.6856
469 1 -1.1104 0.897095 19.5659 20.5746
467 1 -1.1104 1.1919 13.932 20.6534
355 2 2.2208 5.35077 18.1009 21.9627
364 2 2.2208 5.28554 15.2235 24.8457
393 1 -1.1104 1.23508 13.9388 23.5054
395 2 2.2208 5.20737 20.8419 24.8523
431 1 -1.1104 1.27588 13.9221 26.3339
432 1 -1.1104 1.07141 16.7597 26.1686
458 1 -1.1104 1.09212 19.3761 26.3083
459 1 -1.1104 1.19881 19.5498 23.6366
550 1 -1.1104 3.98659 13.7482 23.4124
552 2 2.2208 2.61867 15.1966 22.1675
553 2 2.2208 2.47838 20.9689 22.0002
554 1 -1.1104 3.9136 16.6842 23.4318
555 1 -1.1104 1.23007 16.6894 23.4012
579 1 -1.1104 3.92745 19.3534 23.5059
582 1 -1.1104 4.03486 13.8322 26.1933
583 1 -1.1104 3.85272 16.6211 26.2974
584 2 2.2208 2.51143 17.9987 24.8185
585 1 -1.1104 3.97975 19.458 26.2811
363 1 -1.1104 6.68537 13.8356 23.6078
549 1 -1.1104 6.61248 16.7733 26.3186
471 1 -1.1104 6.86067 13.9608 20.7296
390 1 -1.1104 9.60688 19.4486 26.2381
501 1 -1.1104 12.4951 14.0239 20.6272
560 1 -1.1104 12.4694 19.5824 23.4011
580 1 -1.1104 9.54365 13.8395 26.3149
389 2 2.2208 8.10772 15.324 22.1332
556 1 -1.1104 6.71897 16.4567 23.4335
619 1 -1.1104 9.508 13.8392 23.544
473 1 -1.1104 6.70676 19.3466 20.6259
9035 2 2.2208 -0.192184 18.027 27.6915
394 2 2.2208 2.56 20.7508 27.6007
391 2 2.2208 2.64537 15.197 27.6604
496 2 2.2208 5.3356 15.3712 13.7237
314 2 2.2208 5.48964 1.3573 27.7042
557 2 2.2208 8.10262 20.9787 27.6874
359 2 2.2208 -0.101897 1.42397 27.7503
315 2 2.2208 2.71319 -1.44117 27.6566
320 2 2.2208 5.4289 6.9373 27.6745
433 2 2.2208 2.47329 12.5835 13.675
639 2 2.2208 10.9698 12.5645 27.7146
312 2 2.2208 5.36387 9.77616 13.5941
308 2 2.2208 5.45745 4.19435 13.5785
319 2 2.2208 8.21937 4.12886 27.8194
8307 2 2.2208 2.71714 -4.22621 13.5905
310 2 2.2208 10.9431 -1.43978 13.6617
641 2 2.2208 5.34944 23.6563 5.31249
642 2 2.2208 5.32921 29.3135 5.32219
643 1 -1.1104 1.03322 25.1971 0.959263
644 1 -1.1104 1.24316 25.2016 3.76597
645 1 -1.1104 1.2534 22.2312 0.816655
646 1 -1.1104 1.15625 27.808 1.17917
647 2 2.2208 5.43679 26.5394 2.52344
648 1 -1.1104 1.00198 22.4189 3.77526
649 1 -1.1104 1.14672 28.0597 4.1842
650 1 -1.1104 4.03673 25.0402 1.06914
651 2 2.2208 2.56482 23.692 2.38929
652 2 2.2208 2.54439 29.2711 2.55025
653 1 -1.1104 3.92415 25.0102 3.95338
654 2 2.2208 2.5784 26.4942 5.3338
655 1 -1.1104 4.05132 22.3145 0.883262
656 1 -1.1104 3.91575 27.923 1.06188
657 1 -1.1104 3.85377 22.2073 3.79811
658 1 -1.1104 4.03932 27.8011 3.97676
665 1 -1.1104 6.74456 27.9679 1.13349
664 1 -1.1104 6.68289 22.3918 0.904741
663 1 -1.1104 6.76582 24.9983 3.97324
660 2 2.2208 10.9584 40.4787 10.9627
783 1 -1.1104 6.7319 25.2112 6.63367
687 1 -1.1104 12.2294 41.9963 9.44589
9668 2 2.2208 13.7377 46.1268 8.11828
9679 2 2.2208 -0.453136 37.8303 7.97957
667 1 -1.1104 6.74203 27.9064 3.8198
666 1 -1.1104 6.65232 22.2072 3.71214
9545 2 2.2208 -0.30601 26.6356 7.90052
662 1 -1.1104 6.73254 25.1815 1.18115
668 2 2.2208 11.0014 23.7714 5.21911
669 2 2.2208 10.8219 29.3199 5.30389
670 1 -1.1104 12.2881 25.1122 0.952224
671 1 -1.1104 12.4486 25.0627 3.67982
672 1 -1.1104 12.3833 22.2213 1.10891
673 1 -1.1104 12.3822 27.8904 0.95019
674 2 2.2208 10.9052 26.5791 2.34654
675 1 -1.1104 12.3596 22.2912 3.83844
676 1 -1.1104 12.3765 27.859 3.97388
677 1 -1.1104 9.46617 25.1731 0.949879
678 2 2.2208 8.10735 23.6788 2.43171
679 2 2.2208 8.16427 29.4083 2.50164
680 1 -1.1104 9.63302 25.2178 3.65016
681 2 2.2208 8.1451 26.5272 5.23967
682 1 -1.1104 9.55396 22.4066 1.11525
683 1 -1.1104 9.55479 28.0166 1.0958
684 1 -1.1104 9.48882 22.3232 3.74265
685 1 -1.1104 9.48357 27.9533 3.85169
1213 2 2.2208 2.4588 37.8442 -0.257593
815 1 -1.1104 12.172 25.2026 6.6301
9671 2 2.2208 -0.443273 32.1578 2.53286
939 2 2.2208 13.8368 26.4182 5.24707
689 2 2.2208 5.20174 35.0637 5.26887
690 1 -1.1104 1.14701 30.6747 1.12788
691 1 -1.1104 1.1207 36.2435 0.990952
693 1 -1.1104 1.03918 30.8028 3.84956
694 1 -1.1104 1.11559 36.447 3.89789
696 1 -1.1104 1.01997 33.3639 1.09074
697 2 2.2208 5.18061 32.1159 2.52977
698 2 2.2208 5.23196 37.7681 2.46624
699 1 -1.1104 1.03679 33.6175 4.00481
701 1 -1.1104 3.73515 30.6114 0.983537
702 1 -1.1104 3.82599 36.3333 1.21502
703 2 2.2208 2.39777 34.85 2.54189
704 1 -1.1104 3.78875 30.706 3.9589
705 1 -1.1104 3.88613 36.4306 3.91966
706 2 2.2208 2.49897 32.2594 5.26014
707 2 2.2208 2.45163 37.8182 5.22502
708 1 -1.1104 3.81064 33.5104 1.22406
709 1 -1.1104 3.90863 33.5119 3.91997
700 1 -1.1104 6.59021 33.5253 4.02209
714 1 -1.1104 6.67014 30.6136 4.00811
713 1 -1.1104 6.66849 30.7498 1.14827
841 1 -1.1104 3.8082 30.8381 6.626
840 1 -1.1104 6.63232 33.5649 6.72021
688 1 -1.1104 9.55217 44.7986 6.75825
1243 2 2.2208 8.06859 32.2475 -0.324605
695 1 -1.1104 6.6836 36.3333 3.84686
715 1 -1.1104 6.57089 33.5328 1.19133
692 1 -1.1104 6.53531 36.33 1.10644
716 2 2.2208 10.7622 34.9584 5.37482
717 1 -1.1104 12.2369 30.7132 1.07573
718 1 -1.1104 12.1971 36.3173 0.88898
719 1 -1.1104 12.3667 30.635 3.75101
720 1 -1.1104 12.0884 36.3097 3.80816
721 1 -1.1104 12.2058 33.5659 1.15751
722 2 2.2208 10.7238 32.1513 2.48489
723 2 2.2208 10.8124 37.7854 2.44484
724 1 -1.1104 12.2148 33.5759 3.84725
725 1 -1.1104 9.39446 30.7579 1.03728
726 1 -1.1104 9.3796 36.4784 0.99643
727 2 2.2208 8.07709 34.9118 2.41333
728 1 -1.1104 9.45111 30.9214 4.02228
729 1 -1.1104 9.46125 36.4243 3.84493
730 2 2.2208 7.97191 32.1238 5.38769
731 2 2.2208 8.04379 37.721 5.14552
732 1 -1.1104 9.35805 33.5203 1.06467
733 1 -1.1104 9.50236 33.5823 3.83237