LAMMPS data file via write_data, version 29 Oct 2020, timestep = 100016

17760 atoms
3 atom types

-0.3320875781606811 27.67208757816123 xlo xhi
-4.08362525830648 332.1636252583083 ylo yhi
-0.3287316762071985 27.668731676207432 zlo zhi

Masses

1 15.9994
2 232.0381
3 131.293

Atoms # full

1 0 2 2.2208 5.2621154700666555 1.5383934544948645 5.346135010097847 0 0 0
2 0 1 -1.1104 1.0261678932680496 -2.7489464856998036 1.1915571837426582 0 0 0
3 0 1 -1.1104 0.9745465417604601 2.915936418611222 1.0484129930332804 0 0 0
6 0 1 -1.1104 1.1359565437006443 -2.75034021768287 3.914198273686082 0 0 0
7 0 1 -1.1104 0.969152393187104 2.9180162041627784 3.9079892600998813 0 0 0
10 0 1 -1.1104 0.9946024377075329 0.10737039424498475 1.0927987720961714 0 0 0
12 0 2 2.2208 5.280061807477412 -1.3908633829357646 2.5045376505609025 0 0 0
13 0 2 2.2208 5.292560900284239 4.316677218816325 2.450506631320459 0 0 0
14 0 1 -1.1104 1.085870472607248 0.18925563270994772 3.842986537534651 0 0 0
16 0 1 -1.1104 3.91821216641566 -2.7122474853723633 1.1046420342189949 0 0 0
17 0 1 -1.1104 3.8456775026808683 2.8318975544148417 1.1054938005668742 0 0 0
18 0 2 2.2208 2.4595090476801365 1.46998325147087 2.4109049010878616 0 0 0
19 0 1 -1.1104 3.769848593779344 -2.712375673318747 3.9362622362345836 0 0 0
20 0 1 -1.1104 3.8807590649999817 2.788739146554899 3.867696043163288 0 0 0
21 0 2 2.2208 2.499683779679613 -1.190436742781027 5.294400457012049 0 0 0
22 0 2 2.2208 2.4832030881986067 4.246786927188439 5.1623237050293085 0 0 0
23 0 1 -1.1104 3.767484423846134 0.01763409979822106 1.1620501321090355 0 0 0
24 0 1 -1.1104 3.940510759849777 -0.06659740386093839 3.8785770961815524 0 0 0
11 0 1 -1.1104 6.645759342292305 0.17546416042828744 1.0790207229064177 0 0 0
170 0 1 -1.1104 1.0529498646247122 0.18599246029601862 6.641783027949775 0 0 0
5 0 1 -1.1104 6.592367675403653 2.8420411651578052 1.071926722611388 0 0 0
9 0 1 -1.1104 6.655474084881131 2.8618042054685406 3.969932407500706 0 0 0
166 0 1 -1.1104 1.1144381014771085 -2.7529922465517283 6.713182889541144 0 0 0
577 0 2 2.2208 5.349145093266872 -4.077839631134969 -0.2475190141774163 0 0 0
333 0 2 2.2208 5.219621106272367 1.4754994010875035 -0.259847295148145 0 0 0
4 0 1 -1.1104 6.721552770257931 -2.731494463851201 1.0947347007673376 0 0 0
15 0 1 -1.1104 6.671078267010092 0.06892196374685053 3.9424415053178796 0 0 0
8 0 1 -1.1104 6.742054312563005 -2.7585937354220937 3.953198900125971 0 0 0
31 0 2 2.2208 10.861150894967414 1.5578193944528549 5.295317096287495 0 0 0
32 0 1 -1.1104 12.254160353999035 -2.6757545100215427 1.1747003778304188 0 0 0
33 0 1 -1.1104 12.395281569724359 2.9232383289464865 1.1610163051426425 0 0 0
34 0 1 -1.1104 12.215772311620775 -2.647077402045913 3.914793569737198 0 0 0
35 0 1 -1.1104 12.224944186215195 2.9309527926921066 3.9410480646883266 0 0 0
36 0 1 -1.1104 12.252251599812148 0.10703077374506977 1.0315942009313144 0 0 0
37 0 2 2.2208 10.859285326149926 -1.2821798810810279 2.5893452924112057 0 0 0
38 0 2 2.2208 10.865630387683291 4.287561347358164 2.504943570004018 0 0 0
39 0 1 -1.1104 12.32130110379367 0.19926042751868928 3.780652848275855 0 0 0
40 0 1 -1.1104 9.478562124307086 -2.6516591246136842 1.029211393231562 0 0 0
41 0 1 -1.1104 9.522750536429818 2.8543938043746775 1.078903125418346 0 0 0
42 0 2 2.2208 8.116190592579306 1.4523837098602388 2.4998152581740696 0 0 0
43 0 1 -1.1104 9.497194472167832 -2.5881194537634533 3.856322990152502 0 0 0
44 0 1 -1.1104 9.474698828034578 2.8556278036003357 3.8716320390398025 0 0 0
45 0 2 2.2208 8.02176618602416 -1.3232627975295719 5.327118717600004 0 0 0
46 0 2 2.2208 8.05942093539269 4.295731846044196 5.28316358961422 0 0 0
47 0 1 -1.1104 9.359014798329252 0.10375895426289261 1.0591806325367326 0 0 0
48 0 1 -1.1104 9.481948007827345 0.14089874674767672 3.9426617176890066 0 0 0
336 0 2 2.2208 10.890685682990759 1.463858360346015 -0.2820398433366031 0 0 0
606 0 2 2.2208 10.888769209857692 -4.019751223883364 -0.2560406395020033 0 0 0
9265 0 2 2.2208 13.579979320876825 18.2273772676906 13.629921000070995 0 0 0
208 0 1 -1.1104 9.39950360617957 -2.729418041661138 6.735616975602413 0 0 0
207 0 1 -1.1104 12.255913616264937 0.06204646659655126 6.636710761859711 0 0 0
51 0 2 2.2208 8.144557321251861 -4.043604911564318 2.4118759415987823 0 0 0
338 0 2 2.2208 8.073892857123354 4.262125542440497 -0.27301989634893853 0 0 0
54 0 2 2.2208 5.202030682325727 7.080258516776375 5.340877584476746 0 0 0
55 0 2 2.2208 5.284393637867211 12.605236731599723 5.317451198927355 0 0 0
56 0 1 -1.1104 1.0242764620699754 8.516732610509864 1.1493993924977994 0 0 0
58 0 1 -1.1104 1.045340630477633 8.521412599227842 3.901691815938389 0 0 0
60 0 1 -1.1104 1.068634504522624 5.640057977181572 1.0495865453624347 0 0 0
61 0 1 -1.1104 1.0091403231347165 11.195275651177724 1.0578864419125027 0 0 0
66 0 2 2.2208 5.180745283328401 9.841632426608646 2.5449510070168415 0 0 0
67 0 1 -1.1104 1.0349148947466607 5.685020624459936 3.868656684696514 0 0 0
68 0 1 -1.1104 1.0175532227110404 11.220216733704953 3.8563516407951965 0 0 0
71 0 1 -1.1104 3.904601281097019 8.438489679420663 1.0070659211918047 0 0 0
72 0 2 2.2208 2.40997065606907 7.073727367469105 2.4669798799810376 0 0 0
73 0 2 2.2208 2.3965555625873742 12.550749408148128 2.4368950523686825 0 0 0
74 0 1 -1.1104 3.731109339048679 8.349251573434966 3.8923074718348363 0 0 0
75 0 2 2.2208 2.4158243528603593 9.808890764286625 5.279324396396743 0 0 0
76 0 1 -1.1104 3.86186546706351 5.618760016716894 1.0697972293453653 0 0 0
77 0 1 -1.1104 3.79628601643146 11.153191761635453 1.0630943620325104 0 0 0
79 0 1 -1.1104 3.8282655305859215 5.64281487285744 3.932166528845296 0 0 0
80 0 1 -1.1104 3.8215448854103196 11.131400802276774 3.902848840944951 0 0 0
343 0 2 2.2208 2.4089263458494896 9.780477041480083 -0.3248649069297828 0 0 0
70 0 1 -1.1104 6.687076741656044 11.261820064926653 3.925481021084953 0 0 0
238 0 1 -1.1104 3.809578137978759 8.522639504578514 6.71544296256014 0 0 0
344 0 2 2.2208 5.229560441749259 12.64004490206547 -0.2461637839747532 0 0 0
59 0 1 -1.1104 6.509554990198657 8.407120017590938 3.9784387403943233 0 0 0
78 0 1 -1.1104 3.7716560804200103 11.260610282527383 6.687590294642777 0 0 0
236 0 1 -1.1104 0.9376955853901672 5.597658053316139 6.528832588548727 0 0 0
234 0 1 -1.1104 1.0050590348938508 8.447152070569723 6.628587461371678 0 0 0
64 0 1 -1.1104 6.712247391295096 11.249592068209827 1.1920909115579856 0 0 0
57 0 1 -1.1104 6.609777216479153 8.521559129670884 1.110236399793545 0 0 0
69 0 1 -1.1104 6.5925623216828475 5.642757582001061 3.823578691200417 0 0 0
340 0 2 2.2208 10.89099716906312 12.689483248254897 -0.2382320367338154 0 0 0
63 0 1 -1.1104 6.676097349635933 5.662165433456837 0.9564240759317275 0 0 0
84 0 2 2.2208 10.847784329729334 7.0927318107351285 5.253270731900117 0 0 0
85 0 2 2.2208 10.841325240518914 12.642665038430968 5.392753135817707 0 0 0
86 0 1 -1.1104 12.27027730012695 8.450539286091743 1.1382179302977085 0 0 0
87 0 1 -1.1104 12.215778615747153 8.472712149047366 3.9940877336126963 0 0 0
88 0 1 -1.1104 12.245796295838602 5.752104864876244 1.063171156364071 0 0 0
89 0 1 -1.1104 12.224538337146345 11.279689316373767 1.0665982193614496 0 0 0
91 0 2 2.2208 10.811759421518616 9.843497440581949 2.5153083384943256 0 0 0
92 0 1 -1.1104 12.266214629802109 5.666164634822981 3.8514488712874915 0 0 0
93 0 1 -1.1104 12.211697076847324 11.28290484099023 3.937266577628667 0 0 0
94 0 1 -1.1104 9.42952363160994 8.50054826364484 1.1909977098915696 0 0 0
95 0 2 2.2208 8.044027461997551 7.047920219575174 2.548311554827216 0 0 0
96 0 2 2.2208 8.0628666212859 12.643193551150937 2.60031583975333 0 0 0
97 0 1 -1.1104 9.324086063358848 8.46739860319318 3.9524431282219097 0 0 0
98 0 2 2.2208 7.9270632923725275 9.835364459745666 5.305502793282064 0 0 0
99 0 1 -1.1104 9.481790492531818 5.629864672930492 1.0045258667582477 0 0 0
100 0 1 -1.1104 9.488480104632455 11.317566806041505 1.2058938298942123 0 0 0
102 0 1 -1.1104 9.422812002097292 5.619882632073118 3.9010739346663517 0 0 0
103 0 1 -1.1104 9.434146186071247 11.252292244509245 4.003631200148385 0 0 0
9180 0 2 2.2208 13.65810473938975 21.085631934392904 10.913104096511836 0 0 0
341 0 2 2.2208 8.105598468742746 9.859353509960508 -0.26532046582618674 0 0 0
8947 0 2 2.2208 13.568304285516122 9.77734102319419 5.308992869556026 0 0 0
266 0 1 -1.1104 12.236461413203063 5.634771418127516 6.805102157308917 0 0 0
9230 0 2 2.2208 13.657850370168292 7.046080027944326 2.430351439148349 0 0 0
9229 0 2 2.2208 13.617968020766114 12.661957347636777 2.547991497770538 0 0 0
118 0 1 -1.1104 6.64376931354197 16.958551794638094 6.673494676692297 0 0 0
106 0 2 2.2208 5.290025393998079 18.29422801608012 5.340674596039016 0 0 0
107 0 1 -1.1104 1.0402043710751774 14.04378860949719 1.172518097587914 0 0 0
109 0 1 -1.1104 1.057189347560856 19.512789275938133 1.069498289035073 0 0 0
113 0 1 -1.1104 1.0464177880325016 14.001132013010379 3.8498230001930134 0 0 0
114 0 1 -1.1104 0.9823466001503314 19.591886956642504 3.9650925457291533 0 0 0
116 0 1 -1.1104 1.0213796975309957 16.811275778310225 1.0598851283360926 0 0 0
119 0 2 2.2208 5.223055504626903 15.42581370950824 2.498971866171479 0 0 0
120 0 2 2.2208 5.264762507166578 20.919234199125935 2.540986075679364 0 0 0
121 0 1 -1.1104 1.0642695177525434 16.748158652205788 3.8820928512637893 0 0 0
123 0 1 -1.1104 3.835888288115174 14.02907937246077 1.0331810760967417 0 0 0
125 0 1 -1.1104 3.8207382749257217 19.538393305216314 1.1816276506625862 0 0 0
127 0 2 2.2208 2.461677573267728 18.197939085252198 2.5982266438392574 0 0 0
128 0 1 -1.1104 3.8671925557693902 13.942802522694505 3.8856010895648274 0 0 0
129 0 1 -1.1104 3.8994294835515313 19.67589594863978 3.930615131583358 0 0 0
130 0 2 2.2208 2.400950410023752 15.344633126489702 5.280680271406715 0 0 0
131 0 2 2.2208 2.4085182008348274 21.076011040274494 5.2136287800303505 0 0 0
132 0 1 -1.1104 3.881856093256707 16.770454092713134 1.1608493345457138 0 0 0
134 0 1 -1.1104 3.9208841859155834 16.85621304902376 3.9145765209385557 0 0 0
313 0 2 2.2208 2.47199952953558 20.957520178234688 -0.28326484740590774 0 0 0
312 0 2 2.2208 5.2448076769502086 18.2090046026532 -0.2839545980092047 0 0 0
115 0 1 -1.1104 6.6313346343180015 14.11669137516643 4.014263152091877 0 0 0
108 0 1 -1.1104 1.1108764940113915 13.996972233021518 6.663577031666687 0 0 0
311 0 2 2.2208 2.4443889204094478 15.399934693932956 -0.26267770991576866 0 0 0
110 0 1 -1.1104 6.698438109612806 13.998276980925334 1.227819359904078 0 0 0
138 0 1 -1.1104 6.680729241673539 19.60428772413605 1.1783431895579342 0 0 0
112 0 1 -1.1104 6.6359149516596725 19.695101988583936 6.656441866639697 0 0 0
156 0 1 -1.1104 9.474128949689817 19.630714689031535 6.633078478275641 0 0 0
122 0 1 -1.1104 6.636065210873004 16.78188129422243 3.84530950653935 0 0 0
139 0 1 -1.1104 6.757955138549972 19.54718521953256 3.8545570167939784 0 0 0
140 0 1 -1.1104 6.631860360724784 16.75116251972638 0.9583624250365963 0 0 0
141 0 2 2.2208 10.85748926986022 18.284660070057274 5.297086483312425 0 0 0
142 0 1 -1.1104 12.250709316107015 14.074469727741546 1.1519107106388657 0 0 0
144 0 1 -1.1104 12.218622449630786 19.65120706512163 1.107138024168948 0 0 0
146 0 1 -1.1104 12.254508294285827 14.019773794836363 3.867515021645234 0 0 0
147 0 1 -1.1104 12.29919646026703 19.58477777183237 3.9288640407743647 0 0 0
148 0 1 -1.1104 12.228728385238346 16.887364127147862 1.1752490926404535 0 0 0
150 0 2 2.2208 10.874359693736332 15.483401146335122 2.5368338628173217 0 0 0
151 0 2 2.2208 10.86545456357965 21.088523203489927 2.432578279831753 0 0 0
152 0 1 -1.1104 12.179630920439921 16.837781077868446 3.950960837553793 0 0 0
153 0 1 -1.1104 9.467726358173536 14.012150025031863 1.1303339121049911 0 0 0
155 0 1 -1.1104 9.439963470526152 19.556967125137454 1.0189746160069473 0 0 0
157 0 2 2.2208 8.113793757059662 18.144485666016426 2.4964959439136667 0 0 0
158 0 1 -1.1104 9.46122973524065 14.05896203303579 3.991847152106441 0 0 0
159 0 1 -1.1104 9.548847988862494 19.575172049982445 3.809076252102834 0 0 0
160 0 2 2.2208 7.992934764730647 15.431171239815809 5.373605804238287 0 0 0
161 0 2 2.2208 8.109266179442429 21.05229744103232 5.206823414547861 0 0 0
162 0 1 -1.1104 9.490676731185594 16.75242607976274 1.188839600816559 0 0 0
164 0 1 -1.1104 9.39547365576128 16.827296415866584 3.926858384833765 0 0 0
317 0 2 2.2208 7.96039239810351 21.064140158293725 -0.26110841741013596 0 0 0
316 0 2 2.2208 10.828283549727741 18.210752918058624 -0.31520938679802885 0 0 0
9234 0 2 2.2208 13.639361911199046 18.22020274744831 2.496032328105195 0 0 0
9269 0 2 2.2208 13.647162729473152 20.95196427044859 -0.30361604053553254 0 0 0
9270 0 2 2.2208 13.626655256655162 15.519084336818167 -0.2042111988572059 0 0 0
167 0 1 -1.1104 1.0937124132467957 2.914608094245364 6.6683577511126 0 0 0
172 0 1 -1.1104 3.860828933977351 -2.7561259457422276 6.75621104996537 0 0 0
174 0 1 -1.1104 3.8290026197303146 0.11894944227401016 6.636464444504473 0 0 0
168 0 1 -1.1104 6.575379649881358 -2.8159980138534926 6.765384087245573 0 0 0
9235 0 2 2.2208 -0.2730401177507144 4.261321095394738 8.079451998500467 0 0 0
173 0 1 -1.1104 3.8291009070782835 2.9159275835034957 6.6905568609857715 0 0 0
175 0 2 2.2208 5.288435704333698 1.5177241111370299 10.81490806680834 0 0 0
176 0 1 -1.1104 1.1011431780148075 -2.7415204001014097 12.331523730595945 0 0 0
177 0 1 -1.1104 1.0942063420986798 2.906683980591544 12.190549690327583 0 0 0
180 0 1 -1.1104 0.9941540984547586 -2.6966965658460955 9.508923429639061 0 0 0
181 0 1 -1.1104 0.9774936903169926 2.8119842499527885 9.499166376245098 0 0 0
184 0 1 -1.1104 1.0818467149582398 -0.02009617116203842 12.322363571370342 0 0 0
186 0 2 2.2208 5.2290517204053515 -1.3481086265557893 8.17714625627992 0 0 0
187 0 2 2.2208 5.258850321044449 4.239745291686735 8.118136975692204 0 0 0
188 0 1 -1.1104 1.0337854700206854 0.03181497547689435 9.43861279593128 0 0 0
190 0 1 -1.1104 3.964496055608342 -2.697917631077825 12.130126447768824 0 0 0
191 0 1 -1.1104 3.817649660483482 2.8596765003277547 12.208187200140237 0 0 0
192 0 2 2.2208 2.4642544549716687 1.431259984673152 8.084175649961622 0 0 0
193 0 1 -1.1104 3.7067463354302688 -2.7028011125346785 9.44138623035393 0 0 0
194 0 1 -1.1104 3.7479043518754693 2.922025378194184 9.44389759209276 0 0 0
195 0 2 2.2208 2.466779649687891 -1.301015286941702 10.840427857323096 0 0 0
196 0 2 2.2208 2.456952793033646 4.25212537102364 10.875970275488514 0 0 0
197 0 1 -1.1104 3.8337076087110913 0.11885224024358312 12.2086282822366 0 0 0
198 0 1 -1.1104 3.896925754906617 0.04692558189113069 9.375648881550825 0 0 0
171 0 1 -1.1104 6.617661787335872 0.09097502401019325 6.787399707088351 0 0 0
179 0 1 -1.1104 6.673100708720923 2.967815619134806 12.23530938595871 0 0 0
310 0 2 2.2208 5.270389582301734 -1.2980160479145535 13.57686406312025 0 0 0
182 0 1 -1.1104 6.56520864706482 -2.667513811245918 9.630222834013123 0 0 0
169 0 1 -1.1104 6.591770488147079 2.9149296957460082 6.798704485140817 0 0 0
183 0 1 -1.1104 6.607403330663594 2.875177961712845 9.50353685840607 0 0 0
315 0 2 2.2208 5.279107539252507 4.287406455481682 13.643123709937187 0 0 0
314 0 2 2.2208 2.460338244641622 1.4497552104882985 13.609522829348974 0 0 0
232 0 2 2.2208 10.855392625708266 -4.048349056879678 10.861169998107549 0 0 0
210 0 1 -1.1104 9.420455786023128 0.1312370305333392 6.693132556928053 0 0 0
9242 0 2 2.2208 13.504849308066012 -4.067443364309815 8.082396762467958 0 0 0
189 0 1 -1.1104 6.694581224346426 0.04160001165131753 9.542991924139363 0 0 0
185 0 1 -1.1104 6.709622946785806 0.23130019400628843 12.201791023228576 0 0 0
205 0 1 -1.1104 12.248405111567168 -2.6962991730765786 6.7510618883110505 0 0 0
9053 0 2 2.2208 13.611321761416754 4.319626421206342 10.931425220345114 0 0 0
178 0 1 -1.1104 6.659095266172101 -2.7576363359265916 12.276477797185303 0 0 0
209 0 1 -1.1104 9.376368416921409 2.8277850143504186 6.80791951174031 0 0 0
206 0 1 -1.1104 12.249535123941483 2.8925826930442455 6.735297636680503 0 0 0
211 0 2 2.2208 10.741221216473155 1.5061213717988355 10.958452284165322 0 0 0
212 0 1 -1.1104 12.326207747530352 -2.6482889807671324 12.317182887664142 0 0 0
213 0 1 -1.1104 12.217278686177117 2.9463590751458564 12.26426869642381 0 0 0
214 0 1 -1.1104 12.236450372251385 -2.6663976730367467 9.506142197778594 0 0 0
215 0 1 -1.1104 12.12485851629727 2.8480256704936036 9.43985305467261 0 0 0
216 0 1 -1.1104 12.16078599308604 0.105331886689012 12.228506213262898 0 0 0
217 0 2 2.2208 10.861337081695702 -1.3376928521521345 8.147361241876812 0 0 0
218 0 2 2.2208 10.862109957620934 4.261630005359227 8.16304460033027 0 0 0
219 0 1 -1.1104 12.229720338577176 0.12717465908268005 9.438986943590901 0 0 0
220 0 1 -1.1104 9.46511901264539 -2.714265389784605 12.363530430406412 0 0 0
221 0 1 -1.1104 9.361388299234672 3.0091435673450166 12.299554324295931 0 0 0
222 0 2 2.2208 8.086006273339141 1.4265952099577999 8.08438174989706 0 0 0
223 0 1 -1.1104 9.426493471526898 -2.731155791716906 9.462813649236725 0 0 0
224 0 1 -1.1104 9.413854194280333 2.9650900444182997 9.618671566008684 0 0 0
225 0 2 2.2208 8.108405618335674 -1.3040227246665728 10.975244507112826 0 0 0
226 0 2 2.2208 8.019936624017067 4.380208856247199 10.808950619095482 0 0 0
227 0 1 -1.1104 9.481330653446328 0.18623930552715917 12.344400661795769 0 0 0
228 0 1 -1.1104 9.430299099883412 0.11446287948813637 9.534654510741849 0 0 0
9237 0 2 2.2208 13.512390087796007 1.5254971583926245 8.17245305676283 0 0 0
320 0 2 2.2208 10.89785557821265 4.348990308015355 13.637653766355614 0 0 0
62 0 1 -1.1104 1.008270112262088 11.16511454502753 6.695090562374852 0 0 0
65 0 1 -1.1104 6.643529841755747 11.195627530746455 6.80115455836142 0 0 0
239 0 1 -1.1104 3.8415923315629668 5.594387535283972 6.5800419509050085 0 0 0
240 0 2 2.2208 5.258879062868632 7.05769462560058 10.886400035292864 0 0 0
241 0 2 2.2208 5.2405597653599125 12.722650444844861 10.901730459839268 0 0 0
242 0 1 -1.1104 1.0219226731388236 8.400406911473402 12.203331437176317 0 0 0
244 0 1 -1.1104 1.0712044152335463 8.385972080171998 9.379613644652343 0 0 0
246 0 1 -1.1104 0.9838237260902365 5.633781324279175 12.298738341455307 0 0 0
247 0 1 -1.1104 0.9893850892082594 11.232183473882134 12.365264303159954 0 0 0
250 0 2 2.2208 5.189193873256953 9.815427818239694 8.160762988345853 0 0 0
251 0 1 -1.1104 1.1538186580328567 5.602410225005213 9.458218263616894 0 0 0
252 0 1 -1.1104 1.0344872994658891 11.216837521827363 9.549200718646011 0 0 0
255 0 1 -1.1104 3.8739346392581795 8.403763383254446 12.367074009286407 0 0 0
256 0 2 2.2208 2.4433980484589015 6.988504981831777 8.00411747075988 0 0 0
257 0 2 2.2208 2.4576044516205693 12.6077873368843 8.12394626742262 0 0 0
258 0 1 -1.1104 3.8983056412511177 8.44667372313555 9.461305140502143 0 0 0
259 0 2 2.2208 2.410977736309315 9.862861623715688 10.885047381478984 0 0 0
260 0 1 -1.1104 3.837289534724103 5.624443397611064 12.215248245192244 0 0 0
261 0 1 -1.1104 3.7380193554885954 11.227622514790728 12.201547780163168 0 0 0
262 0 1 -1.1104 3.9033546638155623 5.646787517935954 9.377065023306866 0 0 0
263 0 1 -1.1104 3.7708280818326885 11.288122879995608 9.43147508669307 0 0 0
9148 0 2 2.2208 -0.31501137898299125 6.982840489017414 10.837447116680053 0 0 0
235 0 1 -1.1104 6.601815972763768 8.413112500044182 6.701454460413379 0 0 0
254 0 1 -1.1104 6.614451260238578 11.267329491171571 9.547959916518199 0 0 0
249 0 1 -1.1104 6.688117721684354 11.334639527418197 12.317979674998194 0 0 0
237 0 1 -1.1104 6.677254409482362 5.754300231143599 6.696315952513375 0 0 0
253 0 1 -1.1104 6.7228257641146385 5.657198107072722 9.448059634442117 0 0 0
248 0 1 -1.1104 6.590852595520265 5.790956424635732 12.38002633194155 0 0 0
53 0 2 2.2208 10.890490126916026 15.468747839060951 8.100322041273477 0 0 0
321 0 2 2.2208 2.394403583423406 6.997900581446709 13.595205337409489 0 0 0
267 0 1 -1.1104 9.358753829260268 8.535595318523514 6.775879715270306 0 0 0
101 0 1 -1.1104 9.46031790054153 11.289970451625068 6.748563365599352 0 0 0
269 0 1 -1.1104 9.46422357105951 5.673379147060719 6.744557169207686 0 0 0
243 0 1 -1.1104 6.6467137572982535 8.495125944057483 12.30745965297959 0 0 0
9134 0 2 2.2208 13.565613379639444 9.853521181583925 10.891392942162309 0 0 0
245 0 1 -1.1104 6.643923945922534 8.384858043699447 9.552508632250813 0 0 0
90 0 1 -1.1104 12.220525039869774 11.160104624578047 6.670288795500703 0 0 0
265 0 1 -1.1104 12.204785186976764 8.371535451366334 6.665304042921787 0 0 0
264 0 1 -1.1104 9.456059133172065 11.20145389758734 9.622632821310928 0 0 0
268 0 1 -1.1104 9.48263319844468 5.639619856687836 9.548039857884755 0 0 0
270 0 1 -1.1104 9.418360349541993 11.373520547310738 12.320008270195876 0 0 0
271 0 1 -1.1104 9.407325130733987 5.7715472133696135 12.29763696373993 0 0 0
272 0 2 2.2208 8.020905975284373 9.912554480834128 10.916950193901247 0 0 0
273 0 1 -1.1104 9.465050720013515 8.415628311130657 9.55391942628502 0 0 0
274 0 2 2.2208 8.062830862767948 12.576360216060628 8.151167618698448 0 0 0
275 0 2 2.2208 8.051690267043513 7.04835191451487 8.004677344510913 0 0 0
276 0 2 2.2208 10.848995229639534 7.066837171306548 10.95948248050882 0 0 0
277 0 2 2.2208 10.939473486413522 12.635956718232109 10.926507399470498 0 0 0
278 0 1 -1.1104 12.267542487322297 8.460983206694051 12.242097356038506 0 0 0
279 0 1 -1.1104 12.26893510336121 8.418177554402122 9.478655052610408 0 0 0
280 0 1 -1.1104 12.307027489242301 5.760569285492798 12.321729217588713 0 0 0
281 0 1 -1.1104 12.248851955622149 11.214700012693074 12.350117826238064 0 0 0
282 0 2 2.2208 10.765205245742274 9.835935343543444 8.131316880294325 0 0 0
283 0 1 -1.1104 12.221283295104685 5.691864395908153 9.587369788237895 0 0 0
284 0 1 -1.1104 12.187364778107552 11.19773488327297 9.551760517946553 0 0 0
285 0 1 -1.1104 9.508809765531307 8.595381750614415 12.289376614895286 0 0 0
9258 0 2 2.2208 13.651628251732614 7.120915098012572 13.634146403694897 0 0 0
9129 0 2 2.2208 13.606974595431861 7.043610575184273 8.177342323928213 0 0 0
324 0 2 2.2208 8.047948788663286 7.075195341131114 13.64182872602106 0 0 0
325 0 2 2.2208 10.8012842175814 9.861056086506578 13.666133242060713 0 0 0
124 0 1 -1.1104 3.802971801453783 14.058568150429284 6.700354702159402 0 0 0
126 0 1 -1.1104 3.845218486923217 19.622237505826778 6.711562604605018 0 0 0
296 0 1 -1.1104 6.632756199108621 19.65533441324988 12.33780189898295 0 0 0
117 0 1 -1.1104 1.0533454168117458 16.859396530025787 6.748240432812449 0 0 0
302 0 1 -1.1104 0.978530906860178 19.744278381976795 6.673061514797844 0 0 0
133 0 1 -1.1104 3.8418479098511322 16.707841636739015 6.801433271392402 0 0 0
307 0 1 -1.1104 0.871002964089024 16.892949748029746 12.450088320248193 0 0 0
305 0 1 -1.1104 3.772474762128521 14.01509230461915 9.522985099182886 0 0 0
229 0 2 2.2208 2.331370963120706 15.466958408984953 11.03838878935883 0 0 0
230 0 2 2.2208 2.3154116878794673 21.015152960965423 10.913544862582743 0 0 0
233 0 1 -1.1104 3.81272405219974 16.829295194023995 12.420340298612638 0 0 0
286 0 1 -1.1104 3.822680992606387 19.677742907160404 12.297819601536338 0 0 0
287 0 1 -1.1104 3.8131797558955483 14.004927228138646 12.339749869444256 0 0 0
291 0 1 -1.1104 0.9656027756763041 19.652100418936094 9.475158067708636 0 0 0
292 0 1 -1.1104 0.9304647434857238 16.819538506633414 9.636437064746891 0 0 0
293 0 2 2.2208 5.187436140811022 21.02396947549162 8.158529666489692 0 0 0
294 0 1 -1.1104 0.9689355310287888 14.062093733383103 9.43706742227899 0 0 0
295 0 2 2.2208 5.1650079101234985 15.445701752743954 8.180004879181636 0 0 0
298 0 1 -1.1104 1.0506952241766379 19.616689106668392 12.331605641644861 0 0 0
299 0 1 -1.1104 1.0092405699332483 14.083477004591668 12.403201923779822 0 0 0
300 0 2 2.2208 5.236436812151422 18.213554650883786 10.936133204361088 0 0 0
301 0 1 -1.1104 3.689266047690333 19.55328835400198 9.571038624128441 0 0 0
303 0 2 2.2208 2.4339300202052785 18.262181453880054 8.154895513329247 0 0 0
304 0 1 -1.1104 3.804911090589589 16.83328775208566 9.669574531601878 0 0 0
288 0 1 -1.1104 6.685977517964955 19.60457685396127 9.547560304762548 0 0 0
289 0 1 -1.1104 6.592394039560774 16.799411510675125 9.505536863956056 0 0 0
290 0 1 -1.1104 6.660444496472235 14.050143527080433 9.516588164000641 0 0 0
165 0 2 2.2208 7.997015383523992 21.01392899723687 10.916044611778913 0 0 0
82 0 1 -1.1104 12.199043491595281 16.87413375194179 9.52978060546056 0 0 0
306 0 1 -1.1104 6.697113286745455 16.793975760323043 12.289956450675932 0 0 0
135 0 1 -1.1104 9.498479257876346 13.989131774306221 9.434390955757625 0 0 0
26 0 1 -1.1104 12.37723036431944 14.007138961503191 12.211258109764131 0 0 0
83 0 1 -1.1104 9.544930658129992 14.069683006897124 12.314395330908802 0 0 0
145 0 1 -1.1104 12.304634294458738 19.601749702337848 6.7756669005124515 0 0 0
149 0 1 -1.1104 12.24049948789033 16.75201873048754 6.709275182574392 0 0 0
143 0 1 -1.1104 12.353825845704149 14.036597502879223 6.654987979105398 0 0 0
27 0 1 -1.1104 12.185319660932231 19.619649498374372 12.275109211810632 0 0 0
200 0 1 -1.1104 9.352935061509932 16.887140762995283 9.506498086692876 0 0 0
30 0 1 -1.1104 12.310024119618994 14.067477715654768 9.501478977775811 0 0 0
154 0 1 -1.1104 9.4983243260453 14.146852973798683 6.728881803952611 0 0 0
136 0 1 -1.1104 9.471604152921214 19.68869922925064 9.459131306975205 0 0 0
199 0 1 -1.1104 9.483588508890595 16.91451511668019 12.290679992035821 0 0 0
111 0 1 -1.1104 6.690719569554384 13.965753522660723 6.803926559819231 0 0 0
297 0 1 -1.1104 6.614646635188095 14.078496484668234 12.300218124262836 0 0 0
137 0 2 2.2208 8.030398062467626 15.404552556639258 10.893053465090754 0 0 0
81 0 2 2.2208 10.917429339119682 21.007563616126433 8.11967002391597 0 0 0
105 0 2 2.2208 8.03627455545749 18.35182900931591 8.064930504170317 0 0 0
50 0 1 -1.1104 12.272490245259661 16.85334344793399 12.26247090784238 0 0 0
9219 0 2 2.2208 13.659018967520552 18.24311332029389 8.046310694476162 0 0 0
104 0 1 -1.1104 9.419523089070301 19.643082449925853 12.329887550630717 0 0 0
25 0 2 2.2208 10.831843359106552 18.25403685914582 10.946542597348891 0 0 0
163 0 1 -1.1104 9.408687692219944 16.89311512079403 6.647001049247029 0 0 0
49 0 1 -1.1104 12.279871705691207 19.667254829585964 9.507985884521812 0 0 0
339 0 2 2.2208 5.366823177974667 7.088587436772034 -0.2892930907132474 0 0 0
9257 0 2 2.2208 13.66491796114802 -1.2816507330161464 -0.3132794037136435 0 0 0
345 0 2 2.2208 5.29484534021614 1.4307750438154336 16.441966707687573 0 0 0
346 0 1 -1.1104 1.0689411344818633 -2.8107122086386167 17.801743747349807 0 0 0
347 0 1 -1.1104 1.044336260270645 2.843518532535455 17.837077246455898 0 0 0
350 0 1 -1.1104 1.0968825171689054 -2.636307144326513 15.044643438343707 0 0 0
352 0 1 -1.1104 1.1339949478212774 2.8691493340512726 15.058268177634686 0 0 0
358 0 1 -1.1104 1.1820491368786223 0.0936496653656577 17.879454795261207 0 0 0
360 0 2 2.2208 5.388595232173984 -1.230564709091469 19.35389668733266 0 0 0
361 0 2 2.2208 5.2619194052605565 4.21688483182331 19.257653654292273 0 0 0
362 0 1 -1.1104 1.131039642552628 0.1074127936643536 14.991961445964481 0 0 0
366 0 1 -1.1104 3.920943343554777 -2.6719711679566136 17.921178678466916 0 0 0
367 0 1 -1.1104 3.8940613883702615 2.8522375039529746 17.844665998492893 0 0 0
368 0 2 2.2208 2.5310609165040163 1.5244384875012125 19.232012310756705 0 0 0
369 0 1 -1.1104 3.9338121909052295 -2.8457269158170355 15.003427129680441 0 0 0
371 0 1 -1.1104 3.856678765664977 2.8489395500599692 15.025849899982129 0 0 0
373 0 2 2.2208 2.480621617043604 -1.3425991853031012 16.41061363406158 0 0 0
374 0 2 2.2208 2.4466102454720504 4.246661317682309 16.452623905756813 0 0 0
375 0 1 -1.1104 3.9496090078837796 0.005155346064760796 17.802410656991388 0 0 0
376 0 1 -1.1104 3.8941675707989205 0.04311214220406245 14.973006249808348 0 0 0
9255 0 2 2.2208 -0.3215789372871618 4.2295730557008735 13.729573643987289 0 0 0
381 0 2 2.2208 -0.2601518003830273 1.472658451106107 16.52072940095472 0 0 0
9470 0 2 2.2208 -0.2582273511018801 -1.3490330035325206 19.316986398482864 0 0 0
363 0 1 -1.1104 1.1370002421006236 0.003145437989155358 20.733057821626968 0 0 0
372 0 1 -1.1104 3.9199729647910586 2.801119838382689 20.707608335159765 0 0 0
364 0 1 -1.1104 6.692299157456384 0.14680388459844118 15.090479577481485 0 0 0
356 0 1 -1.1104 6.669940541386987 2.8272828763230184 15.131043167842813 0 0 0
354 0 1 -1.1104 6.650086960579934 -2.5201707370418247 15.019982947310766 0 0 0
380 0 2 2.2208 2.493536354558971 -4.068384711913178 19.21886218340239 0 0 0
379 0 2 2.2208 5.258982678256195 -4.026903590392548 16.463430445619387 0 0 0
353 0 1 -1.1104 1.1261933288401524 2.747239166129932 20.636492577934465 0 0 0
580 0 1 -1.1104 12.219715320025674 14.159311481904638 26.425126338991227 0 0 0
413 0 2 2.2208 10.91796729215512 -3.993901845659461 16.43628808346128 0 0 0
348 0 1 -1.1104 6.881810486546623 -2.757630512840987 17.783933132492997 0 0 0
349 0 1 -1.1104 6.664100554087564 2.7848393919190935 18.021278093267927 0 0 0
359 0 1 -1.1104 6.754534223076593 0.10669653055681522 17.867425494124266 0 0 0
388 0 2 2.2208 10.87565846411806 1.4882561420335478 16.595623578761433 0 0 0
389 0 1 -1.1104 12.312868732729315 -2.588638695130131 17.85539698313157 0 0 0
390 0 1 -1.1104 12.22833235225132 2.8764739959868932 17.94148480799154 0 0 0
391 0 1 -1.1104 12.22770842306945 -2.7335798700408396 15.09041955673292 0 0 0
393 0 1 -1.1104 12.338437198486698 2.7408887006060176 15.082861423450124 0 0 0
395 0 1 -1.1104 12.37542021040005 0.05481597213384282 17.98682072773674 0 0 0
396 0 2 2.2208 10.97856074579895 -1.2755847392767725 19.30731259423916 0 0 0
397 0 2 2.2208 10.96372020573426 4.301798565959576 19.31100400955015 0 0 0
398 0 1 -1.1104 12.34395584299556 0.08352061008104204 15.108150765693962 0 0 0
400 0 1 -1.1104 9.491274120711168 -2.7269472430843216 17.91496304173331 0 0 0
401 0 1 -1.1104 9.48534027406095 2.9175723912473512 17.927692653266945 0 0 0
402 0 2 2.2208 8.136270659767048 1.4896428648415072 19.295339716716054 0 0 0