LAMMPS (29 Oct 2020)
OMP_NUM_THREADS environment is not set. Defaulting to 1 thread. (../comm.cpp:94)
  using 1 OpenMP thread(s) per MPI task
OMP_NUM_THREADS environment is not set. Defaulting to 1 thread. (../comm.cpp:94)
  using 1 OpenMP thread(s) per MPI task
Reading data file ...
  orthogonal box = (-0.27717828 -3.4472206 -0.27717828) to (27.617178 331.52722 27.617178)
  2 by 13 by 2 MPI processor grid
  reading atoms ...
  18000 atoms
  reading velocities ...
  18000 velocities
Finding 1-2 1-3 1-4 neighbors ...
  special bond factors lj:    0.0      0.0      0.0     
  special bond factors coul:  0.0      0.0      0.0     
     0 = max # of 1-2 neighbors
     0 = max # of 1-3 neighbors
     0 = max # of 1-4 neighbors
     1 = max # of special neighbors
  special bonds CPU = 0.004 seconds
  read_data CPU = 0.064 seconds
45 atoms in group sphere
8 atoms in group oxygen
1 atoms in group thorium
9 atoms in group 1
36 atoms in group cluster
6000 atoms in group Th
12000 atoms in group O
12 atoms in group Th_group
24 atoms in group O_group
Setting atom values ...
  6 settings made for type/subset
6 atoms in group Xe
30 atoms in group delete
WARNING: Ignoring 'compress yes' for molecular system (../delete_atoms.cpp:125)
Deleted 30 atoms, new total = 17970
45 atoms in group sphere
8 atoms in group oxygen
1 atoms in group thorium
9 atoms in group 1
36 atoms in group cluster
5988 atoms in group Th
11976 atoms in group O
12 atoms in group Th_group
24 atoms in group O_group
Setting atom values ...
  6 settings made for type/subset
12 atoms in group Xe
30 atoms in group delete
WARNING: Ignoring 'compress yes' for molecular system (../delete_atoms.cpp:125)
Deleted 30 atoms, new total = 17940
45 atoms in group sphere
8 atoms in group oxygen
1 atoms in group thorium
9 atoms in group 1
36 atoms in group cluster
5976 atoms in group Th
11952 atoms in group O
12 atoms in group Th_group
24 atoms in group O_group
Setting atom values ...
  6 settings made for type/subset
18 atoms in group Xe
30 atoms in group delete
WARNING: Ignoring 'compress yes' for molecular system (../delete_atoms.cpp:125)
Deleted 30 atoms, new total = 17910
45 atoms in group sphere
8 atoms in group oxygen
1 atoms in group thorium
9 atoms in group 1
36 atoms in group cluster
5964 atoms in group Th
11928 atoms in group O
12 atoms in group Th_group
24 atoms in group O_group
Setting atom values ...
  6 settings made for type/subset
24 atoms in group Xe
30 atoms in group delete
WARNING: Ignoring 'compress yes' for molecular system (../delete_atoms.cpp:125)
Deleted 30 atoms, new total = 17880
45 atoms in group sphere
8 atoms in group oxygen
1 atoms in group thorium
9 atoms in group 1
36 atoms in group cluster
5952 atoms in group Th
11904 atoms in group O
12 atoms in group Th_group
24 atoms in group O_group
Setting atom values ...
  6 settings made for type/subset
30 atoms in group Xe
30 atoms in group delete
WARNING: Ignoring 'compress yes' for molecular system (../delete_atoms.cpp:125)
Deleted 30 atoms, new total = 17850
45 atoms in group sphere
8 atoms in group oxygen
1 atoms in group thorium
9 atoms in group 1
36 atoms in group cluster
5940 atoms in group Th
11880 atoms in group O
12 atoms in group Th_group
24 atoms in group O_group
Setting atom values ...
  6 settings made for type/subset
36 atoms in group Xe
30 atoms in group delete
WARNING: Ignoring 'compress yes' for molecular system (../delete_atoms.cpp:125)
Deleted 30 atoms, new total = 17820
45 atoms in group sphere
8 atoms in group oxygen
1 atoms in group thorium
9 atoms in group 1
36 atoms in group cluster
5928 atoms in group Th
11856 atoms in group O
12 atoms in group Th_group
24 atoms in group O_group
Setting atom values ...
  6 settings made for type/subset
42 atoms in group Xe
30 atoms in group delete
WARNING: Ignoring 'compress yes' for molecular system (../delete_atoms.cpp:125)
Deleted 30 atoms, new total = 17790
45 atoms in group sphere
8 atoms in group oxygen
1 atoms in group thorium
9 atoms in group 1
36 atoms in group cluster
5916 atoms in group Th
11832 atoms in group O
12 atoms in group Th_group
24 atoms in group O_group
Setting atom values ...
  6 settings made for type/subset
48 atoms in group Xe
30 atoms in group delete
WARNING: Ignoring 'compress yes' for molecular system (../delete_atoms.cpp:125)
Deleted 30 atoms, new total = 17760
45 atoms in group sphere
8 atoms in group oxygen
1 atoms in group thorium
9 atoms in group 1
36 atoms in group cluster
5904 atoms in group Th
11808 atoms in group O
12 atoms in group Th_group
24 atoms in group O_group
Setting atom values ...
  6 settings made for type/subset
54 atoms in group Xe
30 atoms in group delete
WARNING: Ignoring 'compress yes' for molecular system (../delete_atoms.cpp:125)
Deleted 30 atoms, new total = 17730
45 atoms in group sphere
8 atoms in group oxygen
1 atoms in group thorium
9 atoms in group 1
36 atoms in group cluster
5892 atoms in group Th
11784 atoms in group O
12 atoms in group Th_group
24 atoms in group O_group
Setting atom values ...
  6 settings made for type/subset
60 atoms in group Xe
30 atoms in group delete
WARNING: Ignoring 'compress yes' for molecular system (../delete_atoms.cpp:125)
Deleted 30 atoms, new total = 17700
Setting atom values ...
  11760 settings made for charge
Setting atom values ...
  5880 settings made for charge
Setting atom values ...
  60 settings made for charge
WARNING: 10 of 1000 force values in table Kr-Kr are inconsistent with -dE/dr.
  Should only be flagged at inflection points (../pair_table.cpp:461)
WARNING: 1 of 1000 force values in table Kr-O are inconsistent with -dE/dr.
  Should only be flagged at inflection points (../pair_table.cpp:461)
WARNING: 1 of 1000 force values in table Kr-Th are inconsistent with -dE/dr.
  Should only be flagged at inflection points (../pair_table.cpp:461)
PPPM initialization ...
  using 12-bit tables for long-range coulomb (../kspace.cpp:328)
  G vector (1/distance) = 0.29911702
  grid = 40 240 40
  stencil order = 5
  estimated absolute RMS force accuracy = 0.00015352568
  estimated relative force accuracy = 1.0661769e-05
  using single precision MKL FFT
  3d grid and FFT values/proc = 18225 7600
Neighbor list info ...
  update every 1 steps, delay 0 steps, check yes
  max neighbors/atom: 2000, page size: 100000
  master list distance cutoff = 13
  ghost atom cutoff = 13
  binsize = 6.5, bins = 5 52 5
  3 neighbor lists, perpetual/occasional/extra = 3 0 0
  (1) pair coul/long, perpetual
      attributes: half, newton on
      pair build: half/bin/newton
      stencil: half/bin/3d/newton
      bin: standard
  (2) pair eam/alloy, perpetual, skip from (1)
      attributes: half, newton on
      pair build: skip
      stencil: none
      bin: none
  (3) pair table, perpetual, skip from (1)
      attributes: half, newton on
      pair build: skip
      stencil: none
      bin: none
Setting up cg style minimization ...
  Unit style    : metal
  Current step  : 0
WARNING: Energy due to 3 extra global DOFs will be included in minimizer energies
Per MPI rank memory allocation (min/avg/max) = 10.35 | 10.95 | 11.16 Mbytes
Step Temp E_pair E_mol TotEng Press Volume 
       0            0    -231267.9            0    -231267.9    106.85712    260641.98 
     334            0   -231670.81            0   -231670.81    17.158441    261083.42 
Loop time of 7.30105 on 52 procs for 334 steps with 17700 atoms

99.5% CPU use with 52 MPI tasks x 1 OpenMP threads

Minimization stats:
  Stopping criterion = linesearch alpha is zero
  Energy initial, next-to-last, final = 
     -231267.901747932  -231670.814409242  -231670.814409242
  Force two-norm initial, final = 331.34844 5.9141248
  Force max component initial, final = 217.24657 4.3480819
  Final line search alpha, max atom move = 3.3305672e-10 1.4481579e-09
  Iterations, force evaluations = 334 666

MPI task timing breakdown:
Section |  min time  |  avg time  |  max time  |%varavg| %total
---------------------------------------------------------------
Pair    | 4.2452     | 4.4643     | 4.7209     |   5.7 | 61.15
Bond    | 5.0293e-05 | 8.9628e-05 | 0.00013145 |   0.0 |  0.00
Kspace  | 1.0905     | 1.3487     | 1.5722     |  10.4 | 18.47
Neigh   | 0.010695   | 0.012568   | 0.014393   |   1.0 |  0.17
Comm    | 0.10532    | 0.1107     | 0.11514    |   0.7 |  1.52
Output  | 0          | 0          | 0          |   0.0 |  0.00
Modify  | 0          | 0          | 0          |   0.0 |  0.00
Other   |            | 1.365      |            |       | 18.69

Nlocal:        340.385 ave         381 max         298 min
Histogram: 3 5 6 4 8 6 3 8 5 4
Nghost:        5543.92 ave        5695 max        5400 min
Histogram: 3 8 8 4 2 4 6 7 8 2
Neighs:       108074.0 ave      122249 max       92911 min
Histogram: 5 5 4 7 5 6 2 5 8 5

Total # of neighbors = 5619870
Ave neighs/atom = 317.50678
Ave special neighs/atom = 0.0000000
Neighbor list builds = 4
Dangerous builds = 0
Resetting atom IDs ...
PPPM initialization ...
  using 12-bit tables for long-range coulomb (../kspace.cpp:328)
  G vector (1/distance) = 0.29909316
  grid = 40 240 40
  stencil order = 5
  estimated absolute RMS force accuracy = 0.00015368154
  estimated relative force accuracy = 1.0672593e-05
  using single precision MKL FFT
  3d grid and FFT values/proc = 18225 7600
Neighbor list info ...
  update every 1 steps, delay 0 steps, check yes
  max neighbors/atom: 2000, page size: 100000
  master list distance cutoff = 13
  ghost atom cutoff = 13
  binsize = 6.5, bins = 5 52 5
  3 neighbor lists, perpetual/occasional/extra = 3 0 0
  (1) pair coul/long, perpetual
      attributes: half, newton on
      pair build: half/bin/newton
      stencil: half/bin/3d/newton
      bin: standard
  (2) pair eam/alloy, perpetual, skip from (1)
      attributes: half, newton on
      pair build: skip
      stencil: none
      bin: none
  (3) pair table, perpetual, skip from (1)
      attributes: half, newton on
      pair build: skip
      stencil: none
      bin: none
Finding 1-2 1-3 1-4 neighbors ...
  special bond factors lj:    0.0      0.0      0.0     
  special bond factors coul:  0.0      0.0      0.0     
     0 = max # of 1-2 neighbors
     0 = max # of 1-3 neighbors
     0 = max # of 1-4 neighbors
     1 = max # of special neighbors
  special bonds CPU = 0.001 seconds
PPPM initialization ...
  using 12-bit tables for long-range coulomb (../kspace.cpp:328)
  G vector (1/distance) = 0.29909316
  grid = 40 240 40
  stencil order = 5
  estimated absolute RMS force accuracy = 0.00015368154
  estimated relative force accuracy = 1.0672593e-05
  using single precision MKL FFT
  3d grid and FFT values/proc = 18225 7600
Neighbor list info ...
  update every 1 steps, delay 0 steps, check yes
  max neighbors/atom: 2000, page size: 100000
  master list distance cutoff = 13
  ghost atom cutoff = 13
  binsize = 6.5, bins = 5 52 5
  3 neighbor lists, perpetual/occasional/extra = 3 0 0
  (1) pair coul/long, perpetual
      attributes: half, newton on
      pair build: half/bin/newton
      stencil: half/bin/3d/newton
      bin: standard
  (2) pair eam/alloy, perpetual, skip from (1)
      attributes: half, newton on
      pair build: skip
      stencil: none
      bin: none
  (3) pair table, perpetual, skip from (1)
      attributes: half, newton on
      pair build: skip
      stencil: none
      bin: none
Setting up Verlet run ...
  Unit style    : metal
  Current step  : 334
  Time step     : 0.001
Per MPI rank memory allocation (min/avg/max) = 9.228 | 9.878 | 10.03 Mbytes
Step Dt Time Atoms Temp PotEng KinEng Press Volume 
     334        0.001            0    17700          600   -231670.82    1372.6652     5632.812    261083.42 
   10000        0.001        9.666    17700    605.27313   -230292.35    1384.7289    399.34456    265270.03 
   20000        0.001       19.666    17700    601.01553   -230318.45    1374.9885   -604.53597    265442.26 
   30000        0.001       29.666    17700    599.85416   -230325.68    1372.3315    382.34471     265257.9 
   40000        0.001       39.666    17700    596.61859    -230341.9    1364.9293     178.9494    265163.49 
   50000        0.001       49.666    17700    598.62214   -230356.02    1369.5129   -887.81421    265242.95 
   60000        0.001       59.666    17700    595.55467   -230335.43    1362.4953   -358.90433    265326.27 
   70000        0.001       69.666    17700    607.25134   -230347.58    1389.2546    -444.6278     265276.7 
   80000        0.001       79.666    17700    598.10358   -230337.76    1368.3266     101.1996    265169.87 
   90000        0.001       89.666    17700    592.76131   -230351.64    1356.1047   -312.44322    265209.74 
  100000        0.001       99.666    17700    595.15236   -230342.09    1361.5749   -506.28518    265278.81 
  100334        0.001          100    17700    604.93253   -230360.14    1383.9497    791.90999    265033.93 
Loop time of 829.956 on 52 procs for 100000 steps with 17700 atoms

Performance: 10.410 ns/day, 2.305 hours/ns, 120.488 timesteps/s
99.8% CPU use with 52 MPI tasks x 1 OpenMP threads

MPI task timing breakdown:
Section |  min time  |  avg time  |  max time  |%varavg| %total
---------------------------------------------------------------
Pair    | 523.35     | 538.8      | 557.63     |  34.1 | 64.92
Bond    | 0.011626   | 0.015171   | 0.020014   |   2.0 |  0.00
Kspace  | 148.21     | 167.23     | 182.74     |  61.9 | 20.15
Neigh   | 3.1763     | 3.3581     | 3.6085     |   6.4 |  0.40
Comm    | 15.485     | 16.093     | 16.742     |   8.1 |  1.94
Output  | 0.041745   | 0.041787   | 0.043723   |   0.1 |  0.01
Modify  | 90.874     | 96.04      | 101.52     |  23.8 | 11.57
Other   |            | 8.374      |            |       |  1.01

Nlocal:        340.385 ave         370 max         323 min
Histogram: 6 9 9 7 5 7 3 2 3 1
Nghost:        5536.27 ave        5635 max        5418 min
Histogram: 4 10 2 4 1 7 2 4 8 10
Neighs:       107211.0 ave      118794 max       98944 min
Histogram: 7 4 5 10 7 6 8 2 0 3

Total # of neighbors = 5574950
Ave neighs/atom = 314.96893
Ave special neighs/atom = 0.0000000
Neighbor list builds = 1074
Dangerous builds = 0
WARNING: Shell command 'mkdir' failed with error 'File exists' (../input.cpp:1197)
System init for write_data ...
PPPM initialization ...
  using 12-bit tables for long-range coulomb (../kspace.cpp:328)
  G vector (1/distance) = 0.298816
  grid = 40 240 40
  stencil order = 5
  estimated absolute RMS force accuracy = 0.00015590943
  estimated relative force accuracy = 1.0827311e-05
  using single precision MKL FFT
  3d grid and FFT values/proc = 18225 7600
Neighbor list info ...
  update every 1 steps, delay 0 steps, check yes
  max neighbors/atom: 2000, page size: 100000
  master list distance cutoff = 13
  ghost atom cutoff = 13
  binsize = 6.5, bins = 5 52 5
  3 neighbor lists, perpetual/occasional/extra = 3 0 0
  (1) pair coul/long, perpetual
      attributes: half, newton on
      pair build: half/bin/newton
      stencil: half/bin/3d/newton
      bin: standard
  (2) pair eam/alloy, perpetual, skip from (1)
      attributes: half, newton on
      pair build: skip
      stencil: none
      bin: none
  (3) pair table, perpetual, skip from (1)
      attributes: half, newton on
      pair build: skip
      stencil: none
      bin: none
Total wall time: 0:13:57
