ITEM: TIMESTEP
80000
ITEM: NUMBER OF ATOMS
17732
ITEM: BOX BOUNDS pp pp pp
-3.3223662318676700e-01 2.7672236623186269e+01
-3.8800631817749540e+00 3.3196006318177581e+02
-3.3262806058617361e-01 2.7672628060585776e+01
ITEM: ATOMS id type q x y z
1 2 2.2208 5.24143 1.74251 5.22021
2 1 -1.1104 0.949679 -2.59823 1.14631
3 1 -1.1104 1.08048 3.09599 1.23221
6 1 -1.1104 1.07396 -2.53256 3.87798
7 1 -1.1104 1.10432 3.03554 3.91426
10 1 -1.1104 1.12516 0.204272 1.16763
12 2 2.2208 5.25549 -1.18209 2.48194
13 2 2.2208 5.35367 4.48486 2.51118
14 1 -1.1104 1.02637 0.221222 3.91711
16 1 -1.1104 3.83406 -2.53435 1.18116
17 1 -1.1104 3.90231 3.04273 1.07877
18 2 2.2208 2.46898 1.66373 2.46236
19 1 -1.1104 3.87153 -2.61845 3.96229
20 1 -1.1104 3.86458 3.02282 3.77099
21 2 2.2208 2.45292 -1.14806 5.33109
22 2 2.2208 2.55962 4.44197 5.22554
23 1 -1.1104 3.7997 0.275226 0.955379
24 1 -1.1104 3.77699 0.235981 3.79344
4 1 -1.1104 6.61968 -2.47411 1.02453
166 1 -1.1104 1.09218 -2.62827 6.64031
312 2 2.2208 -0.300011 18.531 10.8919
53 2 2.2208 13.7163 -3.90705 2.45685
52 2 2.2208 10.9145 -3.94907 5.21778
340 2 2.2208 13.7791 12.882 8.15139
27 2 2.2208 -0.334189 4.48103 2.5261
26 2 2.2208 -0.336294 1.69104 5.28614
336 2 2.2208 13.6999 21.2557 5.23788
381 2 2.2208 5.32003 1.65641 -0.335152
11 1 -1.1104 6.78636 0.266314 1.17416
5 1 -1.1104 6.80537 3.08089 1.10875
15 1 -1.1104 6.67236 0.313467 3.86466
8 1 -1.1104 6.57655 -2.64812 3.92433
9 1 -1.1104 6.73161 3.07107 3.82675
31 2 2.2208 10.9066 1.74778 5.23024
32 1 -1.1104 12.327 -2.36548 1.01951
33 1 -1.1104 12.2533 3.15306 1.05245
34 1 -1.1104 12.2512 -2.5215 3.89434
35 1 -1.1104 12.2176 3.17451 3.85777
36 1 -1.1104 12.4727 0.341524 0.938071
37 2 2.2208 10.8958 -1.04456 2.42672
38 2 2.2208 10.9347 4.53623 2.53958
39 1 -1.1104 12.2391 0.285258 3.72595
40 1 -1.1104 9.471 -2.46279 1.0832
41 1 -1.1104 9.52811 3.21941 1.02834
42 2 2.2208 8.07815 1.68122 2.50887
43 1 -1.1104 9.50413 -2.53238 3.83053
44 1 -1.1104 9.47824 3.10486 3.82924
45 2 2.2208 8.15387 -1.15766 5.31474
46 2 2.2208 8.16965 4.47891 5.27104
47 1 -1.1104 9.54403 0.500118 1.07453
48 1 -1.1104 9.53113 0.299289 3.89619
207 1 -1.1104 12.2492 0.320665 6.53778
230 2 2.2208 13.78 -1.08064 10.8767
50 2 2.2208 13.6665 -1.04281 5.24369
208 1 -1.1104 9.60464 -2.60046 6.69292
325 2 2.2208 10.9117 15.6286 8.09172
201 2 2.2208 -0.451823 1.71268 10.8218
54 2 2.2208 5.33984 7.30513 5.34246
55 2 2.2208 5.32273 12.8451 5.33997
56 1 -1.1104 1.17217 8.65923 1.14352
58 1 -1.1104 1.10453 8.73479 3.95096
60 1 -1.1104 1.03958 5.82761 1.08598
61 1 -1.1104 1.16024 11.5449 1.05929
66 2 2.2208 5.32731 10.1404 2.41488
67 1 -1.1104 1.12399 5.81062 3.91128
68 1 -1.1104 1.14321 11.5109 3.84293
71 1 -1.1104 3.96712 8.65035 1.09445
72 2 2.2208 2.50529 7.28918 2.53553
73 2 2.2208 2.51766 12.8911 2.51429
74 1 -1.1104 3.94672 8.7451 3.93725
75 2 2.2208 2.53477 10.1196 5.33532
76 1 -1.1104 3.98813 5.8234 1.13718
77 1 -1.1104 3.99147 11.4741 1.05998
79 1 -1.1104 3.99143 5.88661 3.89769
80 1 -1.1104 3.98815 11.3994 3.87796
64 1 -1.1104 6.76242 11.4771 1.18867
83 2 2.2208 -0.25402 12.8481 5.21654
395 2 2.2208 5.27517 12.9388 -0.340039
63 1 -1.1104 6.68181 5.93864 1.18538
70 1 -1.1104 6.83742 11.5129 3.91912
57 1 -1.1104 6.77916 8.69347 1.04312
69 1 -1.1104 6.8225 5.90766 3.91245
59 1 -1.1104 6.75126 8.73088 3.88539
84 2 2.2208 10.9076 7.27566 5.38208
85 2 2.2208 10.9855 12.7768 5.3529
86 1 -1.1104 12.2888 8.68705 1.03084
87 1 -1.1104 12.3357 8.69 3.82733
88 1 -1.1104 12.3081 5.8904 1.13039
89 1 -1.1104 12.2067 11.414 1.0167
91 2 2.2208 10.9337 10.0424 2.4988
92 1 -1.1104 12.3441 5.91186 4.03308
93 1 -1.1104 12.3449 11.4103 3.94795
94 1 -1.1104 9.57831 8.72539 1.19326
95 2 2.2208 8.13911 7.33779 2.51428
96 2 2.2208 8.2224 12.8757 2.47213
97 1 -1.1104 9.51821 8.68261 3.93316
98 2 2.2208 8.08334 10.1332 5.28865
99 1 -1.1104 9.50608 5.99281 1.07339
100 1 -1.1104 9.50631 11.3938 1.00673
102 1 -1.1104 9.51578 5.89854 3.92052
103 1 -1.1104 9.58108 11.4453 3.87744
267 1 -1.1104 9.59149 8.57714 6.75509
269 1 -1.1104 9.46424 5.7725 6.7169
235 1 -1.1104 6.74748 8.70111 6.72807
265 1 -1.1104 12.3267 8.64743 6.68324
101 1 -1.1104 9.4803 11.46 6.70274
398 2 2.2208 10.883 7.30481 -0.353609
396 2 2.2208 -0.248568 12.8785 -0.36431
394 2 2.2208 2.53875 10.102 -0.283714
136 2 2.2208 -0.284281 21.2852 2.489
106 2 2.2208 5.37865 18.4445 5.37384
107 1 -1.1104 1.08098 14.2894 1.03631
109 1 -1.1104 1.02906 19.9294 1.12184
113 1 -1.1104 1.1392 14.2875 3.80893
114 1 -1.1104 1.22146 19.9205 3.84188
116 1 -1.1104 1.18498 17.026 1.06316
119 2 2.2208 5.3241 15.6866 2.4435
120 2 2.2208 5.38296 21.2184 2.62069
121 1 -1.1104 1.05617 17.113 3.84637
123 1 -1.1104 3.94088 14.3219 0.983711
125 1 -1.1104 3.90936 19.8209 1.11843
127 2 2.2208 2.48299 18.4203 2.49893
128 1 -1.1104 3.9508 14.2397 3.78167
129 1 -1.1104 4.00562 19.7707 3.9865
130 2 2.2208 2.48316 15.7839 5.23955
131 2 2.2208 2.49266 21.3122 5.33235
132 1 -1.1104 3.94685 17.0562 1.08404
134 1 -1.1104 3.88004 17.0488 3.83894
115 1 -1.1104 6.70575 14.2838 3.84376
139 1 -1.1104 6.80279 19.8311 3.94272
122 1 -1.1104 6.72172 17.0998 3.94653
108 1 -1.1104 1.02618 14.3368 6.62969
140 1 -1.1104 6.7697 17.0287 1.134
135 2 2.2208 -0.341919 15.7126 2.47896
110 1 -1.1104 6.75898 14.2395 1.02035
118 1 -1.1104 6.81612 17.0597 6.78202
117 1 -1.1104 1.11465 17.1382 6.68733
200 2 2.2208 -0.325488 -1.14881 8.07101
81 2 2.2208 -0.317183 7.24125 5.30378
320 2 2.2208 8.07709 18.4491 8.13959
138 1 -1.1104 6.69584 19.8132 1.15039
154 1 -1.1104 9.42771 14.1895 6.55074
141 2 2.2208 10.9553 18.3908 5.34256
142 1 -1.1104 12.4153 14.2444 1.0507
144 1 -1.1104 12.3913 19.8623 1.06454
146 1 -1.1104 12.2815 14.1984 3.91587
147 1 -1.1104 12.3365 19.858 3.8731
148 1 -1.1104 12.3291 17.1088 1.10298
150 2 2.2208 10.9548 15.7013 2.50003
151 2 2.2208 10.8931 21.2806 2.53678
152 1 -1.1104 12.3365 17.0424 3.89047
153 1 -1.1104 9.53564 14.3461 0.985984
155 1 -1.1104 9.47144 19.8899 1.13802
157 2 2.2208 8.17065 18.4292 2.5463
158 1 -1.1104 9.56857 14.34 3.7937
159 1 -1.1104 9.62329 19.9348 3.96415
160 2 2.2208 8.11031 15.7102 5.30963
161 2 2.2208 8.15121 21.1512 5.33303
162 1 -1.1104 9.46952 17.1282 1.08912
164 1 -1.1104 9.52992 17.0871 3.888
143 1 -1.1104 12.3465 14.23 6.76097
331 2 2.2208 10.9305 18.4577 10.9169
25 2 2.2208 -0.388075 -1.13146 2.55412
82 2 2.2208 -0.271555 10.0341 2.53351
167 1 -1.1104 1.13971 3.10374 6.64608
174 1 -1.1104 3.79288 0.28166 6.63533
172 1 -1.1104 3.86889 -2.43211 6.72302
326 1 -1.1104 12.2974 17.0105 12.345
403 2 2.2208 2.59052 15.6997 -0.294304
199 2 2.2208 -0.288694 4.52086 8.03857
173 1 -1.1104 3.95169 3.03358 6.60487
170 1 -1.1104 1.12968 0.255638 6.71242
175 2 2.2208 5.30645 1.62073 10.907
176 1 -1.1104 1.13722 -2.38313 12.3928
177 1 -1.1104 1.13655 3.13796 12.3189
180 1 -1.1104 1.08108 -2.51387 9.52177
181 1 -1.1104 1.09334 3.06914 9.46799
184 1 -1.1104 0.960085 0.300558 12.2772
186 2 2.2208 5.27319 -1.06254 8.0442
187 2 2.2208 5.36119 4.46649 8.04608
188 1 -1.1104 1.05674 0.323487 9.5093
190 1 -1.1104 3.90509 -2.524 12.3917
191 1 -1.1104 3.8434 3.07238 12.2877
192 2 2.2208 2.46748 1.72423 8.01865
193 1 -1.1104 3.91124 -2.53342 9.64229
194 1 -1.1104 3.90654 3.03069 9.43493
195 2 2.2208 2.46363 -1.00647 10.9443
196 2 2.2208 2.4879 4.47033 10.7957
197 1 -1.1104 3.83942 0.358925 12.3921
198 1 -1.1104 3.90522 0.216934 9.45192
189 1 -1.1104 6.71156 0.343156 9.5465
171 1 -1.1104 6.59079 0.357883 6.64443
182 1 -1.1104 6.68778 -2.48932 9.64782
185 1 -1.1104 6.67243 0.305157 12.243
183 1 -1.1104 6.71001 3.14301 9.47732
365 2 2.2208 8.03018 12.9715 13.6919
169 1 -1.1104 6.77043 3.06906 6.67755
209 1 -1.1104 9.49769 2.89163 6.65248
210 1 -1.1104 9.33569 0.132184 6.64993
206 1 -1.1104 12.279 3.09408 6.74639
344 2 2.2208 -0.285546 7.29683 10.9074
168 1 -1.1104 6.77011 -2.50464 6.83425
179 1 -1.1104 6.72202 3.07176 12.3425
178 1 -1.1104 6.69452 -2.5774 12.3442
205 1 -1.1104 12.3285 -2.43019 6.68687
211 2 2.2208 10.8486 1.75119 10.931
212 1 -1.1104 12.3003 -2.55634 12.3331
213 1 -1.1104 12.3424 3.11615 12.3333
214 1 -1.1104 12.4032 -2.44022 9.50658
215 1 -1.1104 12.319 3.03592 9.59713
216 1 -1.1104 12.2997 0.298883 12.3822
217 2 2.2208 10.8601 -1.08754 8.07656
218 2 2.2208 10.8436 4.4692 8.07044
219 1 -1.1104 12.2752 0.250158 9.41788
220 1 -1.1104 9.52706 -2.51754 12.2103
221 1 -1.1104 9.49257 3.11055 12.3338
222 2 2.2208 8.03371 1.60748 8.06549
223 1 -1.1104 9.56015 -2.43849 9.47496
224 1 -1.1104 9.50159 3.08174 9.4697
225 2 2.2208 8.07193 -1.14663 10.9574
226 2 2.2208 8.04789 4.43674 10.7871
227 1 -1.1104 9.43734 0.312469 12.2418
228 1 -1.1104 9.35948 0.361487 9.57452
137 2 2.2208 -0.286768 18.4641 5.2463
288 1 -1.1104 6.69574 19.7711 9.54915
112 1 -1.1104 6.74293 19.8702 6.73132
62 1 -1.1104 1.04161 11.4522 6.60122
238 1 -1.1104 3.891 8.65676 6.73381
364 2 2.2208 10.9116 10.1115 13.6695
234 1 -1.1104 1.04688 8.52969 6.61752
343 2 2.2208 -0.230817 10.1214 8.08568
236 1 -1.1104 1.10675 5.82186 6.74131
78 1 -1.1104 3.86544 11.4855 6.68361
239 1 -1.1104 3.97675 5.80927 6.64748
240 2 2.2208 5.34765 7.24819 10.8744
241 2 2.2208 5.26715 12.7881 10.8379
242 1 -1.1104 1.16341 8.69311 12.2995
244 1 -1.1104 1.1312 8.76403 9.42646
246 1 -1.1104 1.13987 5.82334 12.2932
247 1 -1.1104 1.11731 11.4511 12.3379
250 2 2.2208 5.28031 10.0664 8.14902
251 1 -1.1104 1.12956 5.83063 9.49179
252 1 -1.1104 1.19551 11.56 9.51499
255 1 -1.1104 4.06207 8.75645 12.2675
256 2 2.2208 2.42627 7.23964 8.05303
257 2 2.2208 2.45157 12.8983 8.02851
258 1 -1.1104 3.9568 8.5258 9.49445
259 2 2.2208 2.54468 10.076 10.9594
260 1 -1.1104 3.89205 5.8756 12.2334
261 1 -1.1104 3.9152 11.4615 12.2869
262 1 -1.1104 3.94988 5.7699 9.40541
263 1 -1.1104 3.76171 11.4472 9.47
243 1 -1.1104 6.78538 8.69441 12.2925
401 2 2.2208 -0.228195 18.4228 -0.291016
90 1 -1.1104 12.3709 11.4378 6.75258
65 1 -1.1104 6.66067 11.5196 6.70662
237 1 -1.1104 6.75854 5.91841 6.71597
254 1 -1.1104 6.59622 11.4735 9.43739
245 1 -1.1104 6.75924 8.66348 9.43441
249 1 -1.1104 6.65836 11.5057 12.2688
248 1 -1.1104 6.69839 5.89585 12.2566
253 1 -1.1104 6.72707 5.81064 9.43833
266 1 -1.1104 12.1682 5.80217 6.72191
264 1 -1.1104 9.44362 11.4696 9.46939
268 1 -1.1104 9.59613 5.78092 9.54961
270 1 -1.1104 9.37836 11.4898 12.2565
271 1 -1.1104 9.46785 5.85145 12.2592
272 2 2.2208 8.12953 10.1335 10.9204
273 1 -1.1104 9.47562 8.67364 9.51938
274 2 2.2208 7.97288 12.8884 8.12704
275 2 2.2208 8.09129 7.29952 8.10839
276 2 2.2208 10.9392 7.32682 10.9144
277 2 2.2208 10.9168 12.8387 10.9048
278 1 -1.1104 12.2423 8.64925 12.3455
279 1 -1.1104 12.3376 8.74852 9.58197
280 1 -1.1104 12.2599 5.97818 12.3852
281 1 -1.1104 12.3282 11.4547 12.3045
282 2 2.2208 10.9356 10.0638 8.08742
283 1 -1.1104 12.2808 5.91738 9.4555
284 1 -1.1104 12.2862 11.412 9.50581
285 1 -1.1104 9.43967 8.65263 12.3011
290 1 -1.1104 6.67767 14.2658 9.54652
302 1 -1.1104 1.11076 19.8251 6.71707
124 1 -1.1104 3.83232 14.2166 6.59072
360 2 2.2208 5.37827 10.0185 13.7075
289 1 -1.1104 6.71658 16.933 9.602
297 1 -1.1104 6.83005 14.2204 12.2417
126 1 -1.1104 3.89303 19.9032 6.80601
111 1 -1.1104 6.62881 14.254 6.75345
133 1 -1.1104 3.92324 17.1114 6.59776
310 2 2.2208 2.49679 15.6478 10.8858
309 2 2.2208 2.49302 21.1678 10.8835
308 1 -1.1104 3.96062 17.0465 12.1811
307 1 -1.1104 1.0604 17.0138 12.2397
305 1 -1.1104 3.79005 14.2891 9.4568
304 1 -1.1104 3.88452 17.1095 9.40196
303 2 2.2208 2.51148 18.5108 8.03217
301 1 -1.1104 3.92062 19.7893 9.51788
300 2 2.2208 5.28559 18.4105 10.8699
299 1 -1.1104 1.22244 14.1488 12.2866
298 1 -1.1104 1.04244 19.8403 12.3611
287 1 -1.1104 3.96459 14.3321 12.2204
295 2 2.2208 5.18777 15.6111 8.11135
294 1 -1.1104 1.0936 14.3808 9.47288
293 2 2.2208 5.26966 21.1874 8.1405
292 1 -1.1104 1.01356 17.2225 9.4094
286 1 -1.1104 3.86521 19.7814 12.2677
291 1 -1.1104 1.18979 19.8537 9.45678
306 1 -1.1104 6.72448 17.0604 12.3611
327 1 -1.1104 12.3023 19.9157 9.48867
296 1 -1.1104 6.64027 19.9488 12.2871
317 2 2.2208 8.15342 15.6584 10.9686
145 1 -1.1104 12.307 19.8808 6.65718
149 1 -1.1104 12.3558 17.0398 6.72362
156 1 -1.1104 9.56541 19.7594 6.65246
323 1 -1.1104 12.3743 17.0412 9.42936
324 2 2.2208 10.9524 21.2734 8.07136
315 1 -1.1104 9.47941 16.9883 12.4156
329 1 -1.1104 12.2742 19.8907 12.1853
319 1 -1.1104 9.46009 14.3113 9.50063
330 1 -1.1104 12.3614 14.1585 12.3188
322 1 -1.1104 9.58599 14.272 12.3075
314 1 -1.1104 9.48334 16.9994 9.47297
321 1 -1.1104 9.47052 19.8773 12.2094
163 1 -1.1104 9.521 17.0958 6.64755
316 2 2.2208 8.06677 21.2785 10.8605
328 1 -1.1104 12.3349 14.2448 9.52642
318 1 -1.1104 9.49576 19.7794 9.36483
361 2 2.2208 2.5667 12.8677 13.7168
358 2 2.2208 -0.22829 10.0761 13.7393
367 2 2.2208 -0.292161 4.44031 13.7224
373 2 2.2208 10.92 15.685 13.7503
377 2 2.2208 8.16436 15.6613 -0.342789
357 2 2.2208 10.8477 4.45746 13.7429
391 2 2.2208 13.7587 -1.12997 -0.382883
388 2 2.2208 8.137 -1.0762 -0.290767
368 2 2.2208 2.50844 18.4584 13.7254
372 2 2.2208 10.9199 21.2157 13.7057
399 2 2.2208 8.08627 10.1385 -0.317637
400 2 2.2208 10.8904 12.8657 -0.380184
382 2 2.2208 2.49344 -1.20301 -0.315107
351 2 2.2208 -0.289999 15.6043 13.737
406 2 2.2208 5.2957 1.66295 16.4815
407 1 -1.1104 1.07354 -2.51059 17.9192
408 1 -1.1104 1.09507 3.12676 17.9698
411 1 -1.1104 1.12476 -2.5115 15.0786
413 1 -1.1104 1.09907 3.00219 15.1954
419 1 -1.1104 1.12415 0.293184 17.9396
421 2 2.2208 5.2896 -1.13024 19.2546
422 2 2.2208 5.28348 4.51046 19.3015
423 1 -1.1104 1.03119 0.20054 15.1179
427 1 -1.1104 3.89919 -2.52438 17.907
428 1 -1.1104 3.87799 3.1614 18.0157
429 2 2.2208 2.49639 1.69361 19.4243
430 1 -1.1104 3.96499 -2.49991 15.1751
432 1 -1.1104 3.86613 3.01669 15.2236
434 2 2.2208 2.4627 -1.13277 16.4927
435 2 2.2208 2.58178 4.53842 16.5184
436 1 -1.1104 3.84566 0.168744 17.9996
437 1 -1.1104 3.90327 0.194915 15.2127
410 1 -1.1104 6.69314 3.11364 17.9443
425 1 -1.1104 6.70169 0.274821 15.1078
418 1 -1.1104 6.78391 3.19569 20.8202
412 1 -1.1104 0.990382 -2.48341 20.7209
673 1 -1.1104 9.66535 14.324 26.2312
633 1 -1.1104 12.299 19.8583 23.5109
439 2 2.2208 -0.361476 -3.95287 16.5941
544 2 2.2208 -0.310465 4.46786 19.2753
356 2 2.2208 10.8943 -1.19467 13.7
443 2 2.2208 -0.365505 -1.15232 19.3152
431 1 -1.1104 3.81257 -2.41916 20.6754
348 2 2.2208 5.27877 -1.1446 13.7463
417 1 -1.1104 6.67663 3.11912 15.1377
702 2 2.2208 -0.242037 10.0562 24.9331
409 1 -1.1104 6.6421 -2.46945 17.8758
415 1 -1.1104 6.7761 -2.64875 15.0186
420 1 -1.1104 6.69005 0.243914 17.8678
449 2 2.2208 10.8338 1.64272 16.4278
450 1 -1.1104 12.214 -2.62085 17.8686
451 1 -1.1104 12.3311 2.98179 17.8704
452 1 -1.1104 12.2742 -2.51586 15.1428
454 1 -1.1104 12.2892 3.08056 15.0458
456 1 -1.1104 12.2973 0.201932 17.9221
457 2 2.2208 10.9061 -1.1846 19.2995
458 2 2.2208 10.9002 4.44149 19.2396
459 1 -1.1104 12.2909 0.200739 15.0953
461 1 -1.1104 9.34704 -2.62188 17.9649
462 1 -1.1104 9.42758 3.01271 17.8479
463 2 2.2208 8.03551 1.6829 19.3552
464 1 -1.1104 9.44691 -2.55221 15.0766
466 1 -1.1104 9.46301 3.15527 15.0294
468 2 2.2208 8.08235 -1.07918 16.4498
469 2 2.2208 8.08081 4.44908 16.4588
470 1 -1.1104 9.52771 0.207256 17.8379
471 1 -1.1104 9.41601 0.350292 14.9945
472 1 -1.1104 9.55093 0.295545 20.6934
453 1 -1.1104 12.2479 -2.61092 20.6143
444 2 2.2208 -0.305527 7.27246 22.1147
460 1 -1.1104 12.3452 0.256643 20.746
482 2 2.2208 5.36801 7.2447 16.5165
483 2 2.2208 5.33192 12.7945 16.4878
484 1 -1.1104 1.12954 8.61042 17.8808
486 1 -1.1104 1.25043 8.65329 15.0877
490 1 -1.1104 1.22839 5.86617 17.8501
491 1 -1.1104 1.21096 11.4689 17.9433
494 2 2.2208 5.37122 10.0602 19.3099
495 1 -1.1104 1.13158 5.97046 14.9955
497 1 -1.1104 1.23843 11.4336 15.1277
503 1 -1.1104 4.07865 8.69466 17.8826
504 2 2.2208 2.58913 7.3659 19.2644
505 2 2.2208 2.58303 12.8868 19.3538
506 1 -1.1104 4.03182 8.55971 15.0998
508 2 2.2208 2.59839 10.0004 16.5136
509 1 -1.1104 3.86356 5.92067 17.9831
510 1 -1.1104 3.98055 11.3552 17.9467
511 1 -1.1104 4.00399 5.87707 15.0213
513 1 -1.1104 3.98395 11.4997 14.9833
488 1 -1.1104 6.94979 8.70453 15.1132
496 1 -1.1104 1.11845 5.83273 20.653
501 1 -1.1104 6.78874 11.5199 15.2472
493 1 -1.1104 6.72699 11.4451 18.0022
481 2 2.2208 -0.268784 7.28593 16.4757
440 2 2.2208 5.31402 -3.92653 16.5693
349 2 2.2208 2.3941 1.69051 13.6756
512 1 -1.1104 4.00783 5.95344 20.696
515 2 2.2208 -0.19679 10.0295 19.342
724 2 2.2208 -0.245559 21.2107 24.8834
476 2 2.2208 -0.329973 21.2599 19.2947
492 1 -1.1104 6.68128 5.87951 17.8558
499 1 -1.1104 6.79318 5.90048 14.9948
485 1 -1.1104 6.87508 8.69216 17.8792
518 2 2.2208 10.9599 7.29516 16.4858
519 2 2.2208 10.8818 12.831 16.4393
520 1 -1.1104 12.47 8.70077 17.8831
521 1 -1.1104 12.5024 8.76808 15.0707
523 1 -1.1104 12.3096 5.8235 17.9709
524 1 -1.1104 12.5036 11.4936 17.9668
525 2 2.2208 10.9787 10.089 19.3364
526 1 -1.1104 12.3587 5.87749 15.1202
528 1 -1.1104 12.3668 11.491 14.987
530 1 -1.1104 9.56389 8.64403 17.9207
531 2 2.2208 8.18303 7.35801 19.3564
532 2 2.2208 8.10453 12.8926 19.3132
533 1 -1.1104 9.69333 8.71441 15.0967
535 2 2.2208 8.2311 10.0361 16.5328
536 1 -1.1104 9.57609 5.89074 17.8729
537 1 -1.1104 9.62106 11.5218 17.8022
538 1 -1.1104 9.6167 5.95553 15.0516
540 1 -1.1104 9.55159 11.3942 14.9867
539 1 -1.1104 9.50895 5.82516 20.619
527 1 -1.1104 12.2777 5.89361 20.8086
489 1 -1.1104 6.90516 8.84786 20.7602
667 2 2.2208 8.14421 18.3674 24.9295
643 2 2.2208 -0.352232 1.68506 22.1413
725 2 2.2208 -0.215035 15.6921 24.8486
723 2 2.2208 -0.232607 18.4591 22.1387
380 2 2.2208 13.7958 18.3925 13.581
448 2 2.2208 -0.233366 15.6329 19.3042
545 2 2.2208 5.34678 18.396 16.4668
546 1 -1.1104 1.10502 14.2637 17.8475
547 1 -1.1104 1.19044 19.8519 17.9375
550 1 -1.1104 1.13975 14.1367 15.1519
552 1 -1.1104 1.15493 19.8398 15.1301
558 1 -1.1104 1.12599 17.0414 17.8526
560 2 2.2208 5.39634 15.6303 19.2851
561 2 2.2208 5.32383 21.2734 19.3942
562 1 -1.1104 1.13182 17.066 15.0868
566 1 -1.1104 3.99314 14.1368 17.8545
567 1 -1.1104 3.99319 19.7474 17.8024
568 2 2.2208 2.63622 18.4419 19.3544
569 1 -1.1104 3.91761 14.2808 15.1065
571 1 -1.1104 3.94993 19.9089 15.0891
573 2 2.2208 2.55434 15.6939 16.4401
574 2 2.2208 2.55401 21.2218 16.5238
575 1 -1.1104 3.94304 17.001 17.8515
576 1 -1.1104 3.94133 17.1233 14.9655
565 1 -1.1104 6.86246 17.05 20.645
447 2 2.2208 -0.243946 18.5024 16.522
553 1 -1.1104 1.15015 19.9397 20.6824
577 1 -1.1104 4.13241 17.0599 20.666
563 1 -1.1104 1.13665 17.077 20.7748
478 2 2.2208 13.7686 21.2213 16.4156
551 1 -1.1104 1.16352 14.2608 20.702
404 2 2.2208 5.32342 18.4692 27.7677
665 1 -1.1104 9.51533 19.8578 23.4639
548 1 -1.1104 6.75241 14.3648 17.8128
559 1 -1.1104 6.70388 17.0919 17.8741
564 1 -1.1104 6.74647 17.0164 15.0724
554 1 -1.1104 6.64449 14.2464 15.018
549 1 -1.1104 6.68513 19.9021 17.7546
556 1 -1.1104 6.83281 19.851 15.0942
581 2 2.2208 10.9236 18.4428 16.471
582 1 -1.1104 12.2921 14.2558 17.7826
583 1 -1.1104 12.3138 19.9387 17.756
584 1 -1.1104 12.3001 14.3369 15.037
586 1 -1.1104 12.4056 19.8809 15.0309
588 1 -1.1104 12.271 17.0596 17.8729
589 2 2.2208 10.9023 15.7393 19.1922
590 2 2.2208 10.9221 21.3058 19.2632
591 1 -1.1104 12.309 17.1729 15.0997
593 1 -1.1104 9.45325 14.2799 17.8848
594 1 -1.1104 9.52736 19.8968 17.8501
595 2 2.2208 8.15099 18.4938 19.1542
596 1 -1.1104 9.44613 14.1626 15.1151
598 1 -1.1104 9.58945 19.8621 14.9776
600 2 2.2208 8.05305 15.6282 16.4685
601 2 2.2208 8.0912 21.2952 16.4737
602 1 -1.1104 9.45493 17.1168 17.7623
603 1 -1.1104 9.38903 16.9551 15.12
587 1 -1.1104 12.3434 19.8824 20.6422
698 1 -1.1104 9.53136 19.7699 26.2491
597 1 -1.1104 9.59978 14.2613 20.6418
592 1 -1.1104 12.2443 17.0124 20.6159
607 2 2.2208 10.8802 18.4874 22.0103
516 2 2.2208 -0.201031 12.7755 16.5437
424 1 -1.1104 1.10834 0.245883 20.7537
438 1 -1.1104 3.93496 0.358094 20.7009
414 1 -1.1104 1.15415 3.05105 20.8602
433 1 -1.1104 4.04268 3.01781 20.835
703 2 2.2208 -0.239986 12.8437 22.0785
644 2 2.2208 -0.307862 4.49031 24.9733
704 1 -1.1104 9.48797 16.9838 26.2018
609 2 2.2208 5.37806 1.6502 22.1225
610 1 -1.1104 1.08856 -2.48493 23.585
611 1 -1.1104 1.13822 3.16231 23.5929
614 1 -1.1104 1.05165 -2.56901 26.3148
615 1 -1.1104 0.995841 3.12426 26.4679
618 1 -1.1104 1.15209 0.3148 23.6096
620 2 2.2208 5.27575 -1.14558 24.9096
621 2 2.2208 5.30816 4.49331 24.9603
622 1 -1.1104 1.17953 0.332734 26.3966
624 1 -1.1104 3.86407 -2.56887 23.4945
625 1 -1.1104 3.98243 3.04194 23.518
626 2 2.2208 2.55995 1.74621 24.9094
627 1 -1.1104 3.88967 -2.50936 26.3721
628 1 -1.1104 3.9692 3.00952 26.2576
629 2 2.2208 2.49736 -1.12598 22.1498
630 2 2.2208 2.59325 4.49409 22.0475
631 1 -1.1104 3.97647 0.244286 23.4576
632 1 -1.1104 3.94785 0.253036 26.2778
616 1 -1.1104 6.58685 -2.61368 26.3048
619 1 -1.1104 6.78461 0.167307 23.4402
617 1 -1.1104 6.70247 3.0916 26.3745
467 1 -1.1104 9.4845 3.05157 20.7208
416 1 -1.1104 6.66067 -2.57815 20.6899
455 1 -1.1104 12.2781 3.0017 20.6081
465 1 -1.1104 9.46239 -2.53635 20.7225
612 1 -1.1104 6.58708 -2.45225 23.4362
426 1 -1.1104 6.75028 0.302344 20.673
623 1 -1.1104 6.74761 0.287441 26.2895
613 1 -1.1104 6.69881 2.97908 23.4715
645 2 2.2208 10.8801 1.70439 22.039
646 1 -1.1104 12.1572 -2.44019 23.4886
647 1 -1.1104 12.3858 3.12072 23.344
648 1 -1.1104 12.3204 -2.44253 26.1516
649 1 -1.1104 12.2062 3.10798 26.2646
650 1 -1.1104 12.3149 0.259983 23.4807
651 2 2.2208 10.8786 -1.08518 24.827
652 2 2.2208 10.8626 4.50133 24.8727
653 1 -1.1104 12.2879 0.386969 26.2191
654 1 -1.1104 9.36407 -2.46836 23.5264
655 1 -1.1104 9.47477 3.17105 23.5558
656 2 2.2208 8.05761 1.68319 24.8593
657 1 -1.1104 9.45353 -2.56303 26.3806
658 1 -1.1104 9.43421 3.10099 26.3003
659 2 2.2208 8.09173 -1.19485 21.9781
660 2 2.2208 8.0919 4.58287 22.1013
661 1 -1.1104 9.51859 0.332765 23.4164
662 1 -1.1104 9.51419 0.221665 26.3345
379 2 2.2208 8.15229 21.1544 27.679
635 1 -1.1104 12.363 19.9327 26.2909
442 2 2.2208 -0.273953 1.63193 16.4725
699 2 2.2208 8.16124 15.713 22.1267
507 1 -1.1104 3.98038 8.74588 20.6925
487 1 -1.1104 1.23 8.64423 20.601
664 1 -1.1104 9.6537 14.4311 23.3827
739 1 -1.1104 6.74443 14.3442 23.4852
514 1 -1.1104 3.99446 11.4837 20.697
498 1 -1.1104 1.1705 11.5151 20.7094
674 2 2.2208 5.35934 7.28733 22.0849
675 2 2.2208 5.39597 12.8842 22.1425
676 1 -1.1104 1.24909 8.73267 23.4233
678 1 -1.1104 1.0551 8.64444 26.3057
680 1 -1.1104 1.01413 5.89945 23.5553
681 1 -1.1104 1.2494 11.4656 23.5819
684 2 2.2208 5.27568 9.99807 24.9467
685 1 -1.1104 1.14082 5.94051 26.3
686 1 -1.1104 1.2287 11.4496 26.3396
689 1 -1.1104 3.96322 8.63669 23.4921
690 2 2.2208 2.54654 7.28497 24.8852
691 2 2.2208 2.56513 12.8668 24.8992
692 1 -1.1104 3.94535 8.57084 26.2378
693 2 2.2208 2.62115 10.0501 22.1399
694 1 -1.1104 3.95566 5.86666 23.536
695 1 -1.1104 3.96761 11.4437 23.5497
696 1 -1.1104 3.9656 5.87343 26.3414
697 1 -1.1104 3.90521 11.4813 26.3319
679 1 -1.1104 6.64238 8.73791 26.2544
500 1 -1.1104 6.69973 6.07139 20.5974
682 1 -1.1104 6.74637 5.87277 23.4232
701 1 -1.1104 9.54774 17.0805 23.4334
522 1 -1.1104 12.4911 8.7414 20.7034
541 1 -1.1104 9.61384 11.5192 20.6872
502 1 -1.1104 6.68566 11.4705 20.7127
688 1 -1.1104 6.74355 11.5578 26.3555
529 1 -1.1104 12.3854 11.495 20.7532
534 1 -1.1104 9.62805 8.68686 20.7182
677 1 -1.1104 6.66953 8.53996 23.5078
683 1 -1.1104 6.76479 11.4861 23.4695
687 1 -1.1104 6.72805 5.92163 26.2898
705 1 -1.1104 9.43905 11.5121 26.0692
706 1 -1.1104 9.39732 5.87518 26.2745
707 1 -1.1104 9.52813 11.5526 23.376
708 1 -1.1104 9.48163 5.98341 23.4336
709 2 2.2208 8.21043 10.1904 22.1474
710 1 -1.1104 9.43277 8.68451 26.4117
711 2 2.2208 8.10695 12.9528 24.8367
712 2 2.2208 8.05423 7.25449 24.861
713 2 2.2208 10.9567 7.33021 22.0706
714 2 2.2208 10.9578 12.9674 22.0986
715 1 -1.1104 12.3553 8.61358 23.5461
716 1 -1.1104 12.2405 8.62043 26.3113
717 1 -1.1104 12.3545 5.94826 23.5166
718 1 -1.1104 12.2876 11.4672 23.4652
719 2 2.2208 10.976 10.0562 24.8445
720 1 -1.1104 12.3607 5.97733 26.3316
721 1 -1.1104 12.3278 11.4947 26.2988
722 1 -1.1104 9.5518 8.72543 23.5196
700 2 2.2208 8.20312 21.2654 22.0905
747 1 -1.1104 6.78411 17.0934 23.4207
638 2 2.2208 11.0098 15.7492 24.9243
570 1 -1.1104 4.06543 14.2112 20.6678
572 1 -1.1104 3.95546 19.8533 20.7778
555 1 -1.1104 6.82973 14.268 20.7153
736 1 -1.1104 6.71367 19.82 23.4277
748 1 -1.1104 1.22033 17.0791 23.4919
746 1 -1.1104 3.97028 14.2797 26.2102
745 1 -1.1104 3.87849 17.0626 26.2482
744 2 2.2208 2.54076 18.4496 24.869
750 2 2.2208 2.56693 21.2714 22.1005
749 1 -1.1104 3.97436 17.0878 23.4634
727 2 2.2208 2.67641 15.7099 22.1137
729 1 -1.1104 3.9601 19.8413 23.5025
731 1 -1.1104 4.04656 14.3191 23.4354
733 1 -1.1104 1.14009 19.8186 26.3865
734 1 -1.1104 1.11488 17.016 26.3477
735 1 -1.1104 1.20623 14.3086 26.2269
737 2 2.2208 5.30846 21.1808 24.9057
738 2 2.2208 5.35126 15.6723 24.8611
740 1 -1.1104 1.28071 19.8854 23.4769
741 1 -1.1104 1.20539 14.2539 23.5117
742 2 2.2208 5.44199 18.419 22.0788
743 1 -1.1104 3.96003 19.8741 26.3435
732 1 -1.1104 6.72594 16.9605 26.2712
608 1 -1.1104 12.3984 14.3047 23.4844
670 1 -1.1104 6.66047 19.6384 26.2961
663 1 -1.1104 12.3764 17.232 26.3126
730 1 -1.1104 6.80758 14.2785 26.2649
636 1 -1.1104 12.3387 17.0993 23.4363
585 1 -1.1104 12.3926 14.2944 20.7076
604 1 -1.1104 9.45169 17.164 20.5711
557 1 -1.1104 6.72377 19.9079 20.5699
634 1 -1.1104 12.4653 14.4341 26.2491
641 2 2.2208 11.0009 21.2377 24.8224
599 1 -1.1104 9.53345 19.9626 20.6511
397 2 2.2208 -0.23916 7.21875 27.8124
405 2 2.2208 2.53059 21.2802 27.7377
353 2 2.2208 8.07291 -4.01354 13.6653
376 2 2.2208 8.13643 18.551 13.6556
383 2 2.2208 2.59046 4.53102 27.728
350 2 2.2208 -0.347279 21.2193 13.6438
393 2 2.2208 5.43071 7.22956 27.7358
387 2 2.2208 10.9374 1.68088 27.7022
389 2 2.2208 8.14227 4.48696 27.7311
352 2 2.2208 5.32677 4.51096 13.6187
346 2 2.2208 -0.355355 -1.1365 13.6482
363 2 2.2208 8.23096 7.21121 13.6472
369 2 2.2208 5.3515 21.3033 13.6953
378 2 2.2208 10.9142 18.5412 27.7062
355 2 2.2208 8.09447 1.76623 13.653
371 2 2.2208 5.30598 15.6129 13.5601
359 2 2.2208 2.53991 7.29031 13.6919
751 2 2.2208 5.30194 23.9923 5.36419
752 2 2.2208 5.35965 29.5777 5.26478
753 1 -1.1104 1.28584 25.4409 1.05233
754 1 -1.1104 1.1314 25.4067 3.94656
755 1 -1.1104 1.25772 22.6898 1.10355
756 1 -1.1104 1.15519 28.1614 1.10996
757 2 2.2208 5.39195 26.8608 2.5504
758 1 -1.1104 1.08441 22.6899 3.82673
759 1 -1.1104 1.24454 28.1586 3.8003
760 1 -1.1104 4.02012 25.4794 1.11712
761 2 2.2208 2.63255 24.0104 2.50707
762 2 2.2208 2.58985 29.6125 2.47326
763 1 -1.1104 3.96174 25.4126 3.99017
764 2 2.2208 2.53315 26.7759 5.3278
765 1 -1.1104 3.94392 22.6758 1.06761
766 1 -1.1104 3.93713 28.2575 1.03824
767 1 -1.1104 3.92947 22.6089 3.9471
768 1 -1.1104 4.0744 28.2059 3.84311
895 1 -1.1104 1.134 28.2318 6.65079
772 1 -1.1104 6.73302 25.3147 1.01732
892 1 -1.1104 1.03756 25.397 6.75809
894 1 -1.1104 1.09282 22.6124 6.70382
1480 1 -1.1104 6.67088 47.8958 1.04566
1484 1 -1.1104 6.61446 47.8771 3.83834
1482 1 -1.1104 1.04839 47.9055 3.94679
1718 3 0 10.107 47.9319 10.7766
775 1 -1.1104 6.68851 28.2416 1.09625
773 1 -1.1104 6.74059 25.3577 3.8973
776 1 -1.1104 6.82875 22.6629 3.98153
777 1 -1.1104 6.75833 28.193 4.03455
774 1 -1.1104 6.86765 22.582 1.15828
778 2 2.2208 10.9241 24.0425 5.37677
779 2 2.2208 10.9688 29.6582 5.39057
780 1 -1.1104 12.3759 25.4221 1.09573
781 1 -1.1104 12.3806 25.4595 3.87939
782 1 -1.1104 12.3158 22.5865 1.08999
783 1 -1.1104 12.3449 28.1277 1.09472
784 2 2.2208 10.9897 26.8244 2.54522
785 1 -1.1104 12.4003 22.7203 3.89331
786 1 -1.1104 12.3526 28.254 3.89326
787 1 -1.1104 9.57356 25.4658 1.17338
788 2 2.2208 8.20457 24.0405 2.48346
789 2 2.2208 8.14175 29.591 2.53686
790 1 -1.1104 9.56639 25.4464 4.03318
791 2 2.2208 8.13867 26.7002 5.33333
792 1 -1.1104 9.59888 22.5497 1.07105
793 1 -1.1104 9.45697 28.1811 1.13129
794 1 -1.1104 9.57129 22.6617 3.92953
795 1 -1.1104 9.56424 28.1248 3.91429
928 1 -1.1104 9.56169 25.4028 6.80054
926 1 -1.1104 12.3297 22.7104 6.65798
822 2 2.2208 -0.200357 32.3748 2.56446
769 2 2.2208 -0.258146 29.6376 5.25178
925 1 -1.1104 12.3092 25.5905 6.63753
927 1 -1.1104 12.3208 28.2701 6.69573
930 1 -1.1104 9.46004 28.2214 6.63413
1108 2 2.2208 8.05485 46.2031 13.646
929 1 -1.1104 9.47024 22.6128 6.7739
1056 1 -1.1104 12.3887 39.5079 12.1899
799 2 2.2208 5.39774 35.2342 5.29116
800 1 -1.1104 1.15305 30.9219 1.15956
801 1 -1.1104 1.11107 36.6028 1.11534
803 1 -1.1104 1.15366 31.088 3.86421
804 1 -1.1104 1.15777 36.5445 3.87028
806 1 -1.1104 1.2259 33.8148 1.20757
807 2 2.2208 5.30267 32.3832 2.4151
808 2 2.2208 5.36733 38.1285 2.36575
809 1 -1.1104 1.06965 33.857 3.86426
811 1 -1.1104 3.97207 30.9951 0.979531
812 1 -1.1104 4.04669 36.6593 1.1337
813 2 2.2208 2.61676 35.2204 2.57576
814 1 -1.1104 3.87607 31.0156 3.79785
815 1 -1.1104 3.98971 36.6459 3.95114
816 2 2.2208 2.53382 32.4597 5.2825
817 2 2.2208 2.59446 38.0454 5.20507
818 1 -1.1104 3.91157 33.709 1.02894
819 1 -1.1104 3.9437 33.7712 3.8208
825 1 -1.1104 6.70564 33.7767 1.03603
1064 1 -1.1104 12.5149 42.2182 12.1374
805 1 -1.1104 6.78138 36.6482 3.8642
802 1 -1.1104 6.84547 36.7113 1.09486
856 1 -1.1104 1.28761 39.3486 3.71068
956 1 -1.1104 4.02801 36.5215 6.70005
869 2 2.2208 -0.403489 43.6928 2.29277
870 2 2.2208 -0.306081 46.38 5.23539
820 2 2.2208 -0.256245 35.2868 5.24853
821 2 2.2208 -0.333269 37.9772 2.36668
810 1 -1.1104 6.78428 33.8267 3.83569
823 1 -1.1104 6.8008 30.9749 1.13878
824 1 -1.1104 6.69965 31.0215 3.83804
826 2 2.2208 11.0072 35.1951 5.26292
827 1 -1.1104 12.3859 30.9027 1.15376
828 1 -1.1104 12.3492 36.6728 1.08153
829 1 -1.1104 12.458 30.9493 4.05396
830 1 -1.1104 12.3262 36.5984 3.84765
831 1 -1.1104 12.3779 33.8609 1.09745
832 2 2.2208 11.0235 32.4246 2.52201
833 2 2.2208 10.9667 38.0804 2.43544
834 1 -1.1104 12.3584 33.7476 3.85826
835 1 -1.1104 9.75089 31.0798 1.03785
836 1 -1.1104 9.65738 36.6139 1.1977
837 2 2.2208 8.16595 35.2238 2.43029
838 1 -1.1104 9.61823 30.9418 3.74607
839 1 -1.1104 9.50096 36.6101 3.86774
840 2 2.2208 8.14899 32.5143 5.33773
841 2 2.2208 8.17576 38.017 5.19088
842 1 -1.1104 9.62562 33.7046 1.11147
843 1 -1.1104 9.45627 33.7961 3.90174
986 1 -1.1104 9.53987 31.0171 6.7368
1054 2 2.2208 10.7899 43.656 7.96078