ITEM: TIMESTEP
100000
ITEM: NUMBER OF ATOMS
17732
ITEM: BOX BOUNDS pp pp pp
-3.2947262285648315e-01 2.7669472622855988e+01
-4.0160289318376465e+00 3.3209602893184388e+02
-3.2561696435389031e-01 2.7665616964353653e+01
ITEM: ATOMS id type q x y z
1 2 2.2208 5.28298 1.57028 5.35222
2 1 -1.1104 1.01832 -2.48245 1.14298
3 1 -1.1104 0.978621 2.96888 1.12796
6 1 -1.1104 1.01475 -2.58628 3.91587
7 1 -1.1104 1.02859 3.03418 3.91648
10 1 -1.1104 1.04558 0.232823 1.15351
12 2 2.2208 5.21537 -1.22996 2.52819
13 2 2.2208 5.26286 4.44466 2.51455
14 1 -1.1104 0.964222 0.199103 3.89958
16 1 -1.1104 3.77874 -2.61766 1.21836
17 1 -1.1104 3.86016 2.90664 1.18488
18 2 2.2208 2.42097 1.54054 2.62453
19 1 -1.1104 3.80825 -2.62811 3.89396
20 1 -1.1104 3.89429 3.06962 3.96155
21 2 2.2208 2.39229 -1.24913 5.28889
22 2 2.2208 2.43317 4.47492 5.37179
23 1 -1.1104 3.83949 0.162029 1.15094
24 1 -1.1104 3.84385 0.191997 4.05513
5 1 -1.1104 6.61466 3.05822 1.17127
9 1 -1.1104 6.73489 3.04827 3.92842
15 1 -1.1104 6.63082 0.198959 3.86974
11 1 -1.1104 6.58022 0.120639 1.04694
8 1 -1.1104 6.58924 -2.63458 3.81463
4 1 -1.1104 6.71467 -2.58083 1.0668
167 1 -1.1104 1.12354 2.99033 6.65724
382 2 2.2208 2.47795 -1.13133 -0.203841
169 1 -1.1104 6.75292 2.88953 6.80334
381 2 2.2208 5.28451 1.62653 -0.263915
203 2 2.2208 5.25482 -3.97217 10.8899
30 2 2.2208 -0.321105 -4.01979 5.37753
52 2 2.2208 10.8244 -3.96371 5.25687
31 2 2.2208 10.8675 1.60126 5.36247
32 1 -1.1104 12.312 -2.49953 1.12893
33 1 -1.1104 12.3077 2.98241 1.12848
34 1 -1.1104 12.2026 -2.49923 3.87675
35 1 -1.1104 12.2933 3.10444 3.91911
36 1 -1.1104 12.2056 0.211155 0.981722
37 2 2.2208 10.7995 -1.17636 2.41769
38 2 2.2208 10.8928 4.42536 2.52097
39 1 -1.1104 12.2235 0.249966 3.87763
40 1 -1.1104 9.53248 -2.61404 1.07978
41 1 -1.1104 9.45929 3.05785 1.06595
42 2 2.2208 8.14815 1.61316 2.49783
43 1 -1.1104 9.40616 -2.54911 3.83322
44 1 -1.1104 9.54373 3.07985 3.88048
45 2 2.2208 7.9611 -1.26711 5.28623
46 2 2.2208 8.10268 4.38737 5.26463
47 1 -1.1104 9.40519 0.206051 1.10579
48 1 -1.1104 9.4643 0.249625 3.91203
388 2 2.2208 8.13679 -1.17686 -0.323429
51 2 2.2208 8.0731 -3.95071 2.42664
371 2 2.2208 5.32401 15.5547 13.6167
206 1 -1.1104 12.2873 2.96402 6.70903
385 2 2.2208 5.24164 -3.94068 -0.289909
389 2 2.2208 8.09655 4.50977 -0.292918
28 2 2.2208 2.41183 -3.92945 2.56281
54 2 2.2208 5.17547 7.12954 5.19441
55 2 2.2208 5.31183 12.7386 5.17967
56 1 -1.1104 1.09022 8.447 1.0099
58 1 -1.1104 0.944524 8.66504 3.85836
60 1 -1.1104 1.11332 5.65627 1.15386
61 1 -1.1104 1.15188 11.2783 1.01529
66 2 2.2208 5.25347 9.90761 2.35893
67 1 -1.1104 1.09517 5.79042 3.88137
68 1 -1.1104 1.06583 11.3853 3.83479
71 1 -1.1104 3.79305 8.51009 1.07193
72 2 2.2208 2.35838 7.14175 2.5158
73 2 2.2208 2.52778 12.746 2.41281
74 1 -1.1104 3.7895 8.52323 3.85943
75 2 2.2208 2.44043 9.95045 5.2287
76 1 -1.1104 3.85378 5.76744 1.17188
77 1 -1.1104 3.9463 11.4174 0.972873
79 1 -1.1104 3.82459 5.84643 3.94627
80 1 -1.1104 3.9487 11.2433 3.74737
361 2 2.2208 2.59433 12.6729 13.6201
57 1 -1.1104 6.69665 8.63412 1.04027
64 1 -1.1104 6.73932 11.4319 0.925003
69 1 -1.1104 6.66314 5.76478 3.82223
63 1 -1.1104 6.62508 5.85771 1.07357
59 1 -1.1104 6.58496 8.58432 3.7747
70 1 -1.1104 6.72653 11.4023 3.71454
201 2 2.2208 -0.291313 1.60322 10.9168
84 2 2.2208 10.8743 7.30651 5.24621
85 2 2.2208 10.9378 12.8343 5.28183
86 1 -1.1104 12.2828 8.64663 1.13925
87 1 -1.1104 12.2334 8.70865 3.88552
88 1 -1.1104 12.31 5.78631 1.04334
89 1 -1.1104 12.3594 11.4361 1.1216
91 2 2.2208 10.8851 10.0555 2.46874
92 1 -1.1104 12.3443 5.81378 3.76577
93 1 -1.1104 12.3356 11.4352 3.90616
94 1 -1.1104 9.50519 8.65684 0.97052
95 2 2.2208 8.04497 7.12983 2.44287
96 2 2.2208 8.21657 12.765 2.53981
97 1 -1.1104 9.43264 8.63244 3.82993
98 2 2.2208 8.12598 9.94765 5.18661
99 1 -1.1104 9.54493 5.82768 1.0854
100 1 -1.1104 9.60753 11.4966 1.04497
102 1 -1.1104 9.49551 5.86393 3.79142
103 1 -1.1104 9.51528 11.3527 3.81471
231 2 2.2208 8.04698 -4.01198 8.16218
265 1 -1.1104 12.2598 8.57431 6.61761
267 1 -1.1104 9.48188 8.56127 6.64118
237 1 -1.1104 6.64384 5.73499 6.58779
90 1 -1.1104 12.3744 11.3879 6.69145
399 2 2.2208 8.07236 10.0804 -0.299249
338 2 2.2208 13.6596 4.33218 10.8349
328 1 -1.1104 12.4379 14.1874 9.50835
344 2 2.2208 -0.299873 7.16936 10.9345
343 2 2.2208 -0.274126 9.95291 7.95923
401 2 2.2208 -0.317888 18.2823 -0.307071
202 2 2.2208 2.45691 -3.96506 8.12333
199 2 2.2208 -0.319504 4.34923 8.11939
53 2 2.2208 13.6301 -3.89451 2.57869
106 2 2.2208 5.28363 18.3099 5.27048
107 1 -1.1104 1.06323 14.1155 1.03386
109 1 -1.1104 1.14688 19.758 1.04129
113 1 -1.1104 1.14683 14.172 3.8076
114 1 -1.1104 1.06182 19.73 3.82165
116 1 -1.1104 1.07312 17.0086 1.04559
119 2 2.2208 5.38101 15.4737 2.45343
120 2 2.2208 5.35339 21.0987 2.45039
121 1 -1.1104 1.14933 16.9673 3.8348
123 1 -1.1104 3.82244 14.1587 1.0516
125 1 -1.1104 3.8855 19.535 1.07064
127 2 2.2208 2.49107 18.2865 2.42089
128 1 -1.1104 3.9443 13.988 3.82245
129 1 -1.1104 3.82496 19.6939 3.93496
130 2 2.2208 2.53101 15.5365 5.10481
131 2 2.2208 2.49199 21.0996 5.26526
132 1 -1.1104 3.90699 16.8347 1.00485
134 1 -1.1104 3.9222 16.97 3.77419
110 1 -1.1104 6.69158 14.1095 1.03519
230 2 2.2208 13.6305 -1.20147 10.9477
133 1 -1.1104 3.84558 16.9307 6.55383
139 1 -1.1104 6.77007 19.6246 3.9732
302 1 -1.1104 1.09269 19.7306 6.6213
137 2 2.2208 -0.328771 18.3531 5.31927
122 1 -1.1104 6.71985 16.9766 3.75998
115 1 -1.1104 6.70913 14.2347 3.92137
140 1 -1.1104 6.75693 16.8684 1.07885
138 1 -1.1104 6.75187 19.6811 1.01795
141 2 2.2208 10.8228 18.3451 5.36467
142 1 -1.1104 12.2388 14.2688 1.0978
144 1 -1.1104 12.3115 19.8062 1.18771
146 1 -1.1104 12.3886 14.1916 3.91491
147 1 -1.1104 12.2324 19.7993 3.94267
148 1 -1.1104 12.3263 16.9709 1.18941
150 2 2.2208 10.8453 15.5836 2.50348
151 2 2.2208 10.871 21.1235 2.58761
152 1 -1.1104 12.2781 16.9972 4.00858
153 1 -1.1104 9.54842 14.2392 1.05897
155 1 -1.1104 9.58066 19.6762 1.1152
157 2 2.2208 8.13722 18.2993 2.42864
158 1 -1.1104 9.53542 14.1281 3.88407
159 1 -1.1104 9.43826 19.7375 3.93241
160 2 2.2208 8.06866 15.575 5.38236
161 2 2.2208 8.07099 21.0828 5.35586
162 1 -1.1104 9.55116 16.9065 0.990483
164 1 -1.1104 9.52448 16.8842 3.99145
232 2 2.2208 10.7957 -3.98142 10.8558
337 2 2.2208 13.6434 15.6259 5.27602
332 2 2.2208 13.659 18.3125 8.14989
145 1 -1.1104 12.2306 19.6911 6.71454
326 1 -1.1104 12.3489 16.9023 12.3924
319 1 -1.1104 9.68174 14.2305 9.50893
166 1 -1.1104 1.07471 -2.64481 6.77689
364 2 2.2208 10.9322 9.98404 13.6271
170 1 -1.1104 1.04714 0.137404 6.72427
174 1 -1.1104 3.73259 0.180628 6.72836
172 1 -1.1104 3.85521 -2.6721 6.65049
173 1 -1.1104 3.91903 2.98628 6.73448
175 2 2.2208 5.37489 1.64384 10.8147
176 1 -1.1104 1.04811 -2.5161 12.2723
177 1 -1.1104 1.03758 3.03166 12.2444
180 1 -1.1104 1.03233 -2.49872 9.55739
181 1 -1.1104 1.11389 3.03351 9.58827
184 1 -1.1104 1.17097 0.177738 12.3552
186 2 2.2208 5.19913 -1.32624 8.0558
187 2 2.2208 5.37215 4.42774 8.10888
188 1 -1.1104 1.05364 0.284534 9.43424
190 1 -1.1104 3.89142 -2.57865 12.2334
191 1 -1.1104 3.87986 2.93491 12.2995
192 2 2.2208 2.49406 1.59802 8.09216
193 1 -1.1104 3.81576 -2.5947 9.41286
194 1 -1.1104 4.02274 3.04537 9.46528
195 2 2.2208 2.53625 -1.1392 10.8641
196 2 2.2208 2.52819 4.36296 10.8973
197 1 -1.1104 3.91127 0.303371 12.2654
198 1 -1.1104 3.95084 0.180284 9.45419
168 1 -1.1104 6.66553 -2.75915 6.64323
182 1 -1.1104 6.59894 -2.71243 9.42449
185 1 -1.1104 6.70737 0.180811 12.3228
183 1 -1.1104 6.78394 2.98167 9.50189
315 1 -1.1104 9.47149 16.9863 12.331
118 1 -1.1104 6.67697 16.912 6.60389
352 2 2.2208 5.28009 4.35575 13.6747
329 1 -1.1104 12.3515 19.6657 12.2843
209 1 -1.1104 9.49245 2.97363 6.63237
207 1 -1.1104 12.2757 0.232428 6.71391
205 1 -1.1104 12.248 -2.57464 6.64218
171 1 -1.1104 6.66876 0.0563332 6.64324
210 1 -1.1104 9.4685 0.0420228 6.72412
179 1 -1.1104 6.71802 3.06035 12.3754
208 1 -1.1104 9.45048 -2.7127 6.68183
189 1 -1.1104 6.68663 -0.0098499 9.44171
178 1 -1.1104 6.62825 -2.59739 12.2135
211 2 2.2208 10.8695 1.59634 10.9173
212 1 -1.1104 12.287 -2.50699 12.3189
213 1 -1.1104 12.2362 3.02604 12.3153
214 1 -1.1104 12.1187 -2.60931 9.51854
215 1 -1.1104 12.3153 2.98026 9.44552
216 1 -1.1104 12.2215 0.277717 12.4287
217 2 2.2208 10.8167 -1.21517 8.13413
218 2 2.2208 10.8994 4.40787 8.03796
219 1 -1.1104 12.255 0.193405 9.4821
220 1 -1.1104 9.4229 -2.61231 12.3218
221 1 -1.1104 9.50932 2.98683 12.2068
222 2 2.2208 8.13508 1.56234 8.10802
223 1 -1.1104 9.45064 -2.59546 9.47303
224 1 -1.1104 9.57268 3.02113 9.44378
225 2 2.2208 8.09908 -1.18742 10.9257
226 2 2.2208 8.08177 4.40001 10.8843
227 1 -1.1104 9.49441 0.185423 12.2384
228 1 -1.1104 9.47069 0.159111 9.47559
390 2 2.2208 10.857 -3.87228 -0.304071
327 1 -1.1104 12.2904 19.7676 9.53792
234 1 -1.1104 1.05969 8.527 6.583
236 1 -1.1104 0.915187 5.84686 6.79486
239 1 -1.1104 3.76017 5.73177 6.78444
62 1 -1.1104 1.0756 11.2505 6.62903
78 1 -1.1104 3.89378 11.3153 6.5384
238 1 -1.1104 3.83744 8.55204 6.71832
240 2 2.2208 5.31705 7.18219 10.9684
241 2 2.2208 5.33716 12.6864 10.809
242 1 -1.1104 1.13934 8.58655 12.3908
244 1 -1.1104 1.195 8.59297 9.51939
246 1 -1.1104 1.00079 5.91207 12.4006
247 1 -1.1104 1.05441 11.3427 12.2225
250 2 2.2208 5.35654 9.99317 7.95659
251 1 -1.1104 1.07218 5.77525 9.60877
252 1 -1.1104 1.19298 11.3139 9.46908
255 1 -1.1104 3.88933 8.50297 12.3081
256 2 2.2208 2.43516 7.23979 8.1467
257 2 2.2208 2.50251 12.7784 7.9973
258 1 -1.1104 3.8595 8.59278 9.48046
259 2 2.2208 2.61179 10.0154 10.8581
260 1 -1.1104 3.92332 5.7451 12.3105
261 1 -1.1104 3.9379 11.4055 12.2465
262 1 -1.1104 3.86035 5.8176 9.50046
263 1 -1.1104 4.09655 11.2613 9.4047
253 1 -1.1104 6.67029 5.7422 9.49464
65 1 -1.1104 6.7316 11.3407 6.52233
235 1 -1.1104 6.68403 8.50178 6.56572
245 1 -1.1104 6.73394 8.57566 9.47161
248 1 -1.1104 6.71465 5.7631 12.297
269 1 -1.1104 9.46078 5.77227 6.59399
101 1 -1.1104 9.58361 11.3915 6.6786
249 1 -1.1104 6.6817 11.3908 12.2795
266 1 -1.1104 12.2923 5.92051 6.68671
254 1 -1.1104 6.79002 11.2366 9.44384
243 1 -1.1104 6.81402 8.6201 12.2295
264 1 -1.1104 9.60439 11.3511 9.42837
268 1 -1.1104 9.42176 5.75874 9.44455
270 1 -1.1104 9.42513 11.3708 12.2918
271 1 -1.1104 9.36687 5.7909 12.3029
272 2 2.2208 8.12198 9.9735 10.8668
273 1 -1.1104 9.52821 8.59238 9.39775
274 2 2.2208 8.22921 12.7444 8.04598
275 2 2.2208 8.02658 7.19019 8.05232
276 2 2.2208 10.8749 7.14128 10.7939
277 2 2.2208 10.9608 12.7317 10.9628
278 1 -1.1104 12.3667 8.55848 12.2076
279 1 -1.1104 12.3754 8.49764 9.39577
280 1 -1.1104 12.2103 5.75176 12.2438
281 1 -1.1104 12.2681 11.3547 12.1864
282 2 2.2208 10.9864 9.91559 8.10289
283 1 -1.1104 12.2788 5.6996 9.51876
284 1 -1.1104 12.334 11.362 9.43266
285 1 -1.1104 9.61752 8.48789 12.2135
316 2 2.2208 8.07416 21.1312 10.9415
296 1 -1.1104 6.72083 19.7974 12.1964
136 2 2.2208 -0.26292 21.0418 2.52572
325 2 2.2208 10.9368 15.599 8.15501
306 1 -1.1104 6.69866 16.9475 12.3104
290 1 -1.1104 6.84612 14.0999 9.45562
124 1 -1.1104 3.91656 14.2135 6.56661
112 1 -1.1104 6.64821 19.6449 6.7778
317 2 2.2208 8.13541 15.5142 10.8903
126 1 -1.1104 3.93879 19.7664 6.72004
117 1 -1.1104 1.11545 16.9333 6.58784
108 1 -1.1104 1.04892 14.105 6.63291
310 2 2.2208 2.3977 15.509 10.8881
309 2 2.2208 2.51487 21.0304 10.9047
308 1 -1.1104 3.9112 16.8765 12.1947
307 1 -1.1104 1.00366 16.8741 12.277
305 1 -1.1104 3.91244 14.1314 9.47819
304 1 -1.1104 3.88103 16.8626 9.40726
303 2 2.2208 2.53079 18.3208 8.06637
301 1 -1.1104 3.8478 19.6913 9.56889
300 2 2.2208 5.3476 18.2441 10.8496
299 1 -1.1104 1.04014 14.0269 12.2734
298 1 -1.1104 1.14697 19.6316 12.255
287 1 -1.1104 3.7756 14.0702 12.2008
295 2 2.2208 5.24087 15.4627 8.09518
294 1 -1.1104 1.13594 14.1675 9.39874
293 2 2.2208 5.26303 21.0903 8.11255
292 1 -1.1104 1.11797 16.8587 9.52899
286 1 -1.1104 3.95071 19.7245 12.2964
291 1 -1.1104 1.0082 19.6244 9.33031
288 1 -1.1104 6.77698 19.671 9.52803
318 1 -1.1104 9.61433 19.7525 9.44757
314 1 -1.1104 9.55293 16.9231 9.55887
320 2 2.2208 8.13909 18.3323 8.13069
163 1 -1.1104 9.39471 17.0189 6.74156
322 1 -1.1104 9.63015 14.0956 12.2558
149 1 -1.1104 12.2105 16.9917 6.87453
324 2 2.2208 10.938 21.1185 8.09103
289 1 -1.1104 6.73811 16.8605 9.48641
156 1 -1.1104 9.44739 19.7854 6.74646
143 1 -1.1104 12.4046 14.175 6.6524
330 1 -1.1104 12.4038 14.1769 12.3031
154 1 -1.1104 9.50365 14.1797 6.69245
331 2 2.2208 10.897 18.2829 10.9554
321 1 -1.1104 9.5322 19.837 12.2485
323 1 -1.1104 12.3182 16.9533 9.61691
111 1 -1.1104 6.6195 14.0901 6.72658
297 1 -1.1104 6.79487 14.1255 12.2781
312 2 2.2208 -0.305688 18.3226 10.8435
83 2 2.2208 -0.269743 12.7694 5.22284
342 2 2.2208 -0.329541 12.7589 10.8639
311 2 2.2208 -0.309842 21.1079 8.09596
82 2 2.2208 -0.279249 9.98511 2.47994
50 2 2.2208 13.6397 -1.11353 5.33324
336 2 2.2208 13.6751 21.1834 5.33965
233 2 2.2208 13.5813 -3.9034 8.02308
135 2 2.2208 -0.255148 15.5672 2.39797
345 2 2.2208 13.6642 21.166 10.9423
334 2 2.2208 13.6792 4.48693 5.31784
49 2 2.2208 13.6312 1.55421 2.44864
200 2 2.2208 -0.285018 -1.16951 8.07808
313 2 2.2208 -0.226772 15.5098 8.04211
353 2 2.2208 8.00686 -3.9457 13.6704
379 2 2.2208 8.15214 21.1174 -0.274484
355 2 2.2208 8.13151 1.59172 13.5884
360 2 2.2208 5.32377 9.92863 13.6422
375 2 2.2208 13.6322 21.0833 -0.247209
363 2 2.2208 8.17646 7.17036 13.641
351 2 2.2208 -0.310256 15.4951 13.6615
368 2 2.2208 2.49698 18.3008 13.6585
392 2 2.2208 13.6257 4.50493 -0.337921
405 2 2.2208 2.53276 21.0719 -0.261968
358 2 2.2208 -0.287475 9.88912 13.6494
396 2 2.2208 -0.284513 12.7367 -0.232728
387 2 2.2208 10.8776 1.61927 -0.30731
383 2 2.2208 2.47319 4.30145 -0.229669
406 2 2.2208 5.26113 1.64859 16.5149
407 1 -1.1104 1.08852 -2.66404 17.9654
408 1 -1.1104 1.00694 2.85967 17.9195
411 1 -1.1104 1.0309 -2.49152 15.0519
413 1 -1.1104 1.1015 2.95449 15.1295
419 1 -1.1104 1.11296 0.1044 17.9781
421 2 2.2208 5.29662 -1.18762 19.2514
422 2 2.2208 5.31708 4.40265 19.2962
423 1 -1.1104 1.09062 0.250602 15.2097
427 1 -1.1104 3.88156 -2.55221 17.8872
428 1 -1.1104 3.82343 2.96089 17.9346
429 2 2.2208 2.49079 1.54629 19.2954
430 1 -1.1104 3.87442 -2.51484 15.1784
432 1 -1.1104 3.88415 2.98908 15.1181
434 2 2.2208 2.4385 -1.19167 16.5793
435 2 2.2208 2.48011 4.39345 16.5568
436 1 -1.1104 3.9367 0.251156 17.8785
437 1 -1.1104 3.87492 0.170828 15.1301
666 2 2.2208 13.623 -3.93736 24.8802
417 1 -1.1104 6.72045 2.9943 15.2075
415 1 -1.1104 6.6605 -2.47864 15.0562
420 1 -1.1104 6.74324 0.266806 17.8711
348 2 2.2208 5.21902 -1.17416 13.6919
409 1 -1.1104 6.63116 -2.576 17.8508
410 1 -1.1104 6.59592 2.96974 17.9961
441 2 2.2208 2.49121 -4.02592 19.3186
414 1 -1.1104 1.18383 2.8812 20.823
433 1 -1.1104 3.89334 2.96192 20.6552
349 2 2.2208 2.56297 1.57117 13.7501
425 1 -1.1104 6.66805 0.247451 14.9865
449 2 2.2208 10.8659 1.59459 16.5131
450 1 -1.1104 12.2324 -2.49227 17.8229
451 1 -1.1104 12.3623 3.00876 17.8782
452 1 -1.1104 12.2915 -2.66153 15.0742
454 1 -1.1104 12.1679 3.00841 15.0838
456 1 -1.1104 12.2648 0.235935 17.927
457 2 2.2208 10.9118 -1.18962 19.192
458 2 2.2208 10.8764 4.36916 19.3035
459 1 -1.1104 12.333 0.141401 15.1148
461 1 -1.1104 9.43518 -2.63472 17.9273
462 1 -1.1104 9.40436 3.01563 17.8595
463 2 2.2208 8.13247 1.56847 19.2343
464 1 -1.1104 9.45127 -2.53773 15.0652
466 1 -1.1104 9.41248 2.82896 15.0078
468 2 2.2208 8.00473 -1.17818 16.5571
469 2 2.2208 8.11586 4.32112 16.4404
470 1 -1.1104 9.48176 0.150352 17.8774
471 1 -1.1104 9.48196 0.1646 15.1494
474 2 2.2208 10.8464 -3.9535 16.4534
700 2 2.2208 8.05435 21.1433 22.0938
440 2 2.2208 5.30067 -3.93832 16.5151
453 1 -1.1104 12.2367 -2.64563 20.7607
460 1 -1.1104 12.3116 0.139016 20.7415
418 1 -1.1104 6.66845 2.88907 20.8145
356 2 2.2208 10.8173 -1.21445 13.6768
359 2 2.2208 2.49195 7.20277 13.7308
482 2 2.2208 5.39989 7.06408 16.4942
483 2 2.2208 5.30019 12.7385 16.4081
484 1 -1.1104 1.08561 8.50449 17.8145
486 1 -1.1104 1.14584 8.58983 15.0551
490 1 -1.1104 1.07663 5.71829 17.8632
491 1 -1.1104 1.14317 11.4424 17.855
494 2 2.2208 5.21496 9.94397 19.3256
495 1 -1.1104 1.09793 5.77367 15.1283
497 1 -1.1104 1.15047 11.3128 14.9993
503 1 -1.1104 3.78385 8.56284 17.928
504 2 2.2208 2.51826 7.17293 19.1961
505 2 2.2208 2.46784 12.7593 19.2747
506 1 -1.1104 3.95932 8.49796 15.0563
508 2 2.2208 2.53416 10.0182 16.4687
509 1 -1.1104 3.94811 5.70019 17.9172
510 1 -1.1104 3.87639 11.369 17.8275
511 1 -1.1104 3.93444 5.71925 15.1511
513 1 -1.1104 3.96569 11.2273 15.0192
492 1 -1.1104 6.80662 5.80101 17.8148
606 2 2.2208 13.6676 21.0522 22.111
473 2 2.2208 13.6273 -3.98515 19.4152
499 1 -1.1104 6.72954 5.76445 15.0662
599 1 -1.1104 9.4592 19.7269 20.697
487 1 -1.1104 1.0941 8.59409 20.5988
585 1 -1.1104 12.3037 14.1659 20.5429
378 2 2.2208 10.8454 18.3393 27.6633
544 2 2.2208 -0.273921 4.34724 19.3413
493 1 -1.1104 6.69601 11.3464 17.9524
488 1 -1.1104 6.74792 8.58953 15.0058
501 1 -1.1104 6.66513 11.393 15.1653
485 1 -1.1104 6.56392 8.55645 17.9245
518 2 2.2208 10.9106 7.22997 16.4882
519 2 2.2208 10.8567 12.6979 16.5077
520 1 -1.1104 12.2774 8.63466 17.9173
521 1 -1.1104 12.2812 8.49983 15.0426
523 1 -1.1104 12.383 5.75915 17.8778
524 1 -1.1104 12.3375 11.2349 17.7953
525 2 2.2208 10.8859 9.96902 19.2349
526 1 -1.1104 12.3605 5.79276 14.9796
528 1 -1.1104 12.3767 11.4093 15.0198
530 1 -1.1104 9.41794 8.65056 17.815
531 2 2.2208 8.15564 7.1813 19.2211
532 2 2.2208 8.09528 12.7745 19.2356
533 1 -1.1104 9.4972 8.60447 15.0586
535 2 2.2208 7.95394 9.92653 16.5053
536 1 -1.1104 9.61865 5.81422 17.9757
537 1 -1.1104 9.57157 11.3657 17.8439
538 1 -1.1104 9.53064 5.85115 15.0491
540 1 -1.1104 9.34463 11.3669 15.1567
442 2 2.2208 -0.33456 1.61752 16.5726
539 1 -1.1104 9.55223 5.7375 20.7493
446 2 2.2208 13.6281 4.37384 22.077
357 2 2.2208 10.9025 4.40797 13.6777
447 2 2.2208 -0.278896 18.3783 16.4691
545 2 2.2208 5.22755 18.3649 16.5235
546 1 -1.1104 1.05647 14.1582 17.7584
547 1 -1.1104 1.14513 19.8347 17.9636
550 1 -1.1104 1.21209 14.1157 15.0258
552 1 -1.1104 1.00115 19.6843 15.0924
558 1 -1.1104 1.13685 16.9296 17.8555
560 2 2.2208 5.32112 15.5072 19.2633
561 2 2.2208 5.22955 21.0751 19.2753
562 1 -1.1104 1.08415 16.933 15.0122
566 1 -1.1104 3.85465 14.1546 17.8046
567 1 -1.1104 3.8673 19.7221 17.921
568 2 2.2208 2.44782 18.2706 19.2601
569 1 -1.1104 3.97006 14.0869 14.9441
571 1 -1.1104 3.80982 19.6721 15.0999
573 2 2.2208 2.47945 15.592 16.4354
574 2 2.2208 2.52746 21.1117 16.5156
575 1 -1.1104 3.85782 17.0484 17.7838
576 1 -1.1104 3.88213 16.8869 14.9643
444 2 2.2208 -0.222649 7.10574 22.0687
565 1 -1.1104 6.62208 16.9201 20.6565
671 2 2.2208 13.636 -1.20876 22.0825
557 1 -1.1104 6.65818 19.7983 20.6724
556 1 -1.1104 6.57769 19.7196 15.0082
372 2 2.2208 10.8295 21.2016 13.7025
549 1 -1.1104 6.70787 19.7899 17.9324
554 1 -1.1104 6.8438 14.1137 15.0504
559 1 -1.1104 6.68788 16.9425 17.853
564 1 -1.1104 6.56461 16.9611 15.1155
548 1 -1.1104 6.65028 14.1791 17.7998
581 2 2.2208 10.852 18.357 16.4243
582 1 -1.1104 12.3388 14.0864 17.873
583 1 -1.1104 12.2844 19.6101 17.827
584 1 -1.1104 12.2669 14.1224 15.1207
586 1 -1.1104 12.2376 19.8762 15.0939
588 1 -1.1104 12.2419 16.8916 17.8711
589 2 2.2208 10.8559 15.5053 19.2649
590 2 2.2208 10.8743 21.0792 19.3165
591 1 -1.1104 12.2238 16.9831 15.0421
593 1 -1.1104 9.5539 14.1774 17.8503
594 1 -1.1104 9.51501 19.826 17.9023
595 2 2.2208 8.01885 18.3249 19.2917
596 1 -1.1104 9.47086 14.1196 15.0336
598 1 -1.1104 9.39919 19.7954 14.9926
600 2 2.2208 8.15483 15.5642 16.5359
601 2 2.2208 8.02015 21.1683 16.4968
602 1 -1.1104 9.42752 17.0558 17.9503
603 1 -1.1104 9.37754 17.008 15.2157
640 2 2.2208 2.47629 -3.85386 24.9723
377 2 2.2208 8.08358 15.5079 27.6716
639 2 2.2208 5.31798 -4.00402 22.0694
424 1 -1.1104 0.957049 0.163871 20.7017
438 1 -1.1104 3.9215 0.171597 20.5899
412 1 -1.1104 1.11686 -2.61074 20.8523
431 1 -1.1104 3.92781 -2.57476 20.6929
609 2 2.2208 5.27909 1.53391 22.1222
610 1 -1.1104 1.02506 -2.40007 23.5774
611 1 -1.1104 1.03437 3.03732 23.5608
614 1 -1.1104 1.09282 -2.44988 26.4007
615 1 -1.1104 1.06427 2.87409 26.2892
618 1 -1.1104 1.01873 0.354031 23.5267
620 2 2.2208 5.26432 -1.19683 24.8588
621 2 2.2208 5.30466 4.28015 24.9336
622 1 -1.1104 1.09699 0.215703 26.3024
624 1 -1.1104 3.94468 -2.65825 23.5102
625 1 -1.1104 3.91807 2.9157 23.4537
626 2 2.2208 2.40527 1.58357 24.8513
627 1 -1.1104 3.76341 -2.4662 26.3342
628 1 -1.1104 3.88976 2.97264 26.3893
629 2 2.2208 2.48399 -1.20775 22.0896
630 2 2.2208 2.57599 4.41198 22.197
631 1 -1.1104 3.89294 0.173361 23.4449
632 1 -1.1104 3.89675 0.267664 26.2326
616 1 -1.1104 6.72052 -2.63387 26.2047
612 1 -1.1104 6.77706 -2.65507 23.5295
623 1 -1.1104 6.72642 0.0708041 26.3144
617 1 -1.1104 6.72842 3.04025 26.3813
613 1 -1.1104 6.69308 3.11197 23.6493
465 1 -1.1104 9.53005 -2.58923 20.6686
665 1 -1.1104 9.41437 19.8048 23.4944
668 2 2.2208 10.7753 -3.96747 22.0569
673 1 -1.1104 9.47258 14.1401 26.1972
664 1 -1.1104 9.57792 14.1987 23.45
636 1 -1.1104 12.1432 16.9566 23.4449
426 1 -1.1104 6.70081 0.252689 20.6981
619 1 -1.1104 6.69025 0.185286 23.4788
467 1 -1.1104 9.53168 2.89344 20.6657
416 1 -1.1104 6.71642 -2.62679 20.717
472 1 -1.1104 9.60538 0.168397 20.5471
455 1 -1.1104 12.2979 3.08564 20.6736
645 2 2.2208 10.966 1.58012 22.0646
646 1 -1.1104 12.3041 -2.50718 23.4952
647 1 -1.1104 12.3839 3.01758 23.4262
648 1 -1.1104 12.3139 -2.62499 26.2774
649 1 -1.1104 12.2159 2.97718 26.2678
650 1 -1.1104 12.3556 0.212001 23.5285
651 2 2.2208 10.8602 -1.18069 24.9066
652 2 2.2208 10.8711 4.39056 24.8229
653 1 -1.1104 12.3121 0.182433 26.195
654 1 -1.1104 9.47246 -2.60542 23.5432
655 1 -1.1104 9.42832 2.93729 23.4378
656 2 2.2208 8.10603 1.60021 24.9362
657 1 -1.1104 9.52209 -2.58703 26.3297
658 1 -1.1104 9.56653 2.96422 26.2769
659 2 2.2208 8.16526 -1.23272 22.0844
660 2 2.2208 8.11848 4.40852 22.1481
661 1 -1.1104 9.57791 0.15928 23.471
662 1 -1.1104 9.42074 0.258397 26.3774
514 1 -1.1104 3.90165 11.3994 20.7079
512 1 -1.1104 3.9683 5.85097 20.7166
507 1 -1.1104 3.86848 8.62743 20.7222
496 1 -1.1104 1.11016 5.70802 20.6446
498 1 -1.1104 1.11634 11.3103 20.6707
674 2 2.2208 5.35548 7.16758 22.0994
675 2 2.2208 5.27597 12.7622 22.0143
676 1 -1.1104 1.08597 8.53844 23.4653
678 1 -1.1104 1.04058 8.38959 26.2054
680 1 -1.1104 1.09959 5.81702 23.3808
681 1 -1.1104 0.949387 11.3173 23.4711
684 2 2.2208 5.32105 9.94091 24.8604
685 1 -1.1104 1.10006 5.68432 26.2457
686 1 -1.1104 1.11343 11.2819 26.302
689 1 -1.1104 3.85861 8.59781 23.5377
690 2 2.2208 2.47125 7.1096 24.8892
691 2 2.2208 2.45238 12.7386 24.8547
692 1 -1.1104 3.92499 8.52343 26.2654
693 2 2.2208 2.39851 9.96284 22.1191
694 1 -1.1104 3.92445 5.74055 23.5679
695 1 -1.1104 3.93473 11.4338 23.5075
696 1 -1.1104 3.86334 5.67841 26.2337
697 1 -1.1104 3.96347 11.2887 26.2848
682 1 -1.1104 6.70023 5.86214 23.4383
500 1 -1.1104 6.75754 5.71504 20.6492
687 1 -1.1104 6.68876 5.77718 26.3345
489 1 -1.1104 6.67481 8.52353 20.6783
688 1 -1.1104 6.62941 11.3791 26.3202
677 1 -1.1104 6.71721 8.67235 23.5007
522 1 -1.1104 12.3369 8.71044 20.6519
516 2 2.2208 -0.297229 12.644 16.3819
702 2 2.2208 -0.33216 9.99405 24.8762
633 1 -1.1104 12.2184 19.5953 23.5061
502 1 -1.1104 6.72479 11.3235 20.6825
679 1 -1.1104 6.69115 8.60085 26.2778
541 1 -1.1104 9.43958 11.4303 20.7359
534 1 -1.1104 9.47097 8.56806 20.6555
529 1 -1.1104 12.2596 11.4694 20.6392
527 1 -1.1104 12.2683 5.86795 20.6162
683 1 -1.1104 6.67899 11.4181 23.4874
705 1 -1.1104 9.50983 11.4225 26.1796
706 1 -1.1104 9.45044 5.81404 26.3207
707 1 -1.1104 9.52225 11.3009 23.4288
708 1 -1.1104 9.45265 5.76487 23.5517
709 2 2.2208 8.05306 9.97137 21.9934
710 1 -1.1104 9.48983 8.59208 26.1639
711 2 2.2208 8.09525 12.723 24.7981
712 2 2.2208 8.13988 7.22305 24.9081
713 2 2.2208 10.9121 7.22219 22.0267
714 2 2.2208 10.9011 12.7883 22.0084
715 1 -1.1104 12.3299 8.60051 23.4816
716 1 -1.1104 12.283 8.59462 26.3914
717 1 -1.1104 12.2211 5.81673 23.4321
718 1 -1.1104 12.2994 11.285 23.4583
719 2 2.2208 10.94 10.0023 24.8154
720 1 -1.1104 12.2368 5.75519 26.2354
721 1 -1.1104 12.4 11.4147 26.3052
722 1 -1.1104 9.49128 8.60687 23.3612
553 1 -1.1104 0.947149 19.6232 20.7678
732 1 -1.1104 6.64471 17.0106 26.1716
670 1 -1.1104 6.67945 19.859 26.3809
747 1 -1.1104 6.59922 16.9686 23.346
739 1 -1.1104 6.69537 14.1788 23.4568
563 1 -1.1104 0.99298 16.8755 20.7673
572 1 -1.1104 3.8132 19.5205 20.6499
570 1 -1.1104 3.86073 14.2022 20.5329
551 1 -1.1104 0.928491 14.0044 20.6246
577 1 -1.1104 3.8897 16.8374 20.6704
748 1 -1.1104 0.99415 16.948 23.5177
746 1 -1.1104 3.90057 14.1634 26.2482
745 1 -1.1104 3.82852 16.8978 26.296
744 2 2.2208 2.54361 18.3691 24.934
750 2 2.2208 2.4729 21.0021 22.124
749 1 -1.1104 3.83512 17.0131 23.4127
727 2 2.2208 2.39077 15.5289 22.0869
729 1 -1.1104 3.90796 19.8403 23.4869
731 1 -1.1104 3.82813 14.1375 23.2659
733 1 -1.1104 1.0997 19.6664 26.3237
734 1 -1.1104 1.13717 16.9566 26.249
735 1 -1.1104 1.02752 14.1685 26.2494
737 2 2.2208 5.26303 21.1306 25.002
738 2 2.2208 5.20755 15.4778 24.7458
740 1 -1.1104 1.16883 19.7114 23.5514
741 1 -1.1104 1.0077 14.1968 23.4946
742 2 2.2208 5.23075 18.4268 22.1261
743 1 -1.1104 3.99019 19.6221 26.3121
730 1 -1.1104 6.69612 14.1476 26.2663
555 1 -1.1104 6.69815 14.1291 20.6065
736 1 -1.1104 6.58416 19.7317 23.47
608 1 -1.1104 12.3222 14.0947 23.4218
592 1 -1.1104 12.2915 17.0052 20.6473
635 1 -1.1104 12.1684 19.7002 26.297
641 2 2.2208 10.8846 21.1208 24.88
634 1 -1.1104 12.362 14.2601 26.3651
638 2 2.2208 10.8536 15.5016 24.86
604 1 -1.1104 9.47213 16.9301 20.7225
699 2 2.2208 8.05021 15.5719 22.0119
704 1 -1.1104 9.50703 16.892 26.2162
597 1 -1.1104 9.44573 14.0927 20.62
701 1 -1.1104 9.32651 17.0134 23.4194
667 2 2.2208 8.04473 18.397 24.8566
607 2 2.2208 10.8461 18.3686 22.1003
698 1 -1.1104 9.49129 19.6991 26.2676
663 1 -1.1104 12.4043 17.0195 26.2946
587 1 -1.1104 12.1778 19.698 20.7385
478 2 2.2208 13.6532 21.1562 16.493
404 2 2.2208 5.34031 18.2725 27.6492
347 2 2.2208 2.43356 -3.97065 13.7265
395 2 2.2208 5.33582 12.7836 27.6172
393 2 2.2208 5.22485 7.05277 27.6632
481 2 2.2208 -0.284359 7.17778 16.4879
394 2 2.2208 2.63659 9.94928 27.6206
365 2 2.2208 8.09745 12.7154 13.6859
515 2 2.2208 -0.239244 9.99112 19.2356
384 2 2.2208 -0.353309 -3.91512 27.6443
400 2 2.2208 10.9421 12.8206 27.6038
398 2 2.2208 10.9363 7.1994 27.6421
403 2 2.2208 2.49589 15.5455 27.6296
376 2 2.2208 7.98737 18.329 13.7135
373 2 2.2208 10.9451 15.5042 13.8096
369 2 2.2208 5.23037 21.0792 13.7299
350 2 2.2208 -0.297684 21.0456 13.7573
354 2 2.2208 13.6412 -3.95824 13.7216
367 2 2.2208 -0.309935 4.41888 13.6653
751 2 2.2208 5.24026 23.9734 5.28855
752 2 2.2208 5.34811 29.4329 5.23847
753 1 -1.1104 0.986602 25.3626 1.03023
754 1 -1.1104 1.15119 25.36 3.9022
755 1 -1.1104 1.06037 22.4678 1.17028
756 1 -1.1104 0.977857 28.1116 1.16966
757 2 2.2208 5.31649 26.6697 2.48138
758 1 -1.1104 1.04563 22.5828 3.98704
759 1 -1.1104 1.09791 28.0431 3.88047
760 1 -1.1104 3.71989 25.2228 1.05363
761 2 2.2208 2.45057 24.0593 2.55076
762 2 2.2208 2.4327 29.4272 2.47875
763 1 -1.1104 3.93617 25.4009 3.83843
764 2 2.2208 2.56704 26.7509 5.3037
765 1 -1.1104 3.89827 22.4331 1.20364
766 1 -1.1104 3.84489 28.0714 1.15176
767 1 -1.1104 3.84317 22.5244 3.91856
768 1 -1.1104 3.84914 28.1192 3.90514
1484 1 -1.1104 6.57621 47.5454 3.84199
1477 1 -1.1104 1.16631 47.6287 1.03807
773 1 -1.1104 6.66802 25.2764 3.93224
1680 1 -1.1104 0.968787 47.5855 9.44976
774 1 -1.1104 6.67165 22.4367 0.9943
776 1 -1.1104 6.6376 22.539 3.89329
1673 1 -1.1104 1.02613 47.522 6.58976
1482 1 -1.1104 1.09562 47.5913 3.8051
1480 1 -1.1104 6.71068 47.5888 1.12418
1095 2 2.2208 2.45871 35.1484 13.6548
1117 2 2.2208 2.51659 26.6412 -0.284688
772 1 -1.1104 6.58926 25.333 1.03645
777 1 -1.1104 6.7672 28.0959 3.80365
775 1 -1.1104 6.62845 28.1698 1.00354
778 2 2.2208 10.8974 23.9452 5.30171
779 2 2.2208 10.9552 29.5173 5.21951
780 1 -1.1104 12.2199 25.3624 1.10443
781 1 -1.1104 12.279 25.3092 3.97052
782 1 -1.1104 12.2596 22.5873 1.14725
783 1 -1.1104 12.3687 28.1295 1.03044
784 2 2.2208 10.9005 26.7266 2.45251
785 1 -1.1104 12.2157 22.5247 3.95606
786 1 -1.1104 12.3296 28.1389 3.76242
787 1 -1.1104 9.41034 25.1885 1.09897
788 2 2.2208 8.06209 23.8422 2.5547
789 2 2.2208 8.18743 29.4792 2.41643
790 1 -1.1104 9.51 25.3221 3.84499
791 2 2.2208 8.05078 26.7285 5.26132
792 1 -1.1104 9.47339 22.4923 1.09951
793 1 -1.1104 9.52782 28.0548 0.978488
794 1 -1.1104 9.42477 22.5293 4.00106
795 1 -1.1104 9.53398 28.1262 3.88855
1084 1 -1.1104 12.2815 47.6614 6.57336
1675 1 -1.1104 3.8206 47.6253 6.6926
929 1 -1.1104 9.56204 22.5615 6.7473
925 1 -1.1104 12.2693 25.3903 6.67193
930 1 -1.1104 9.50824 28.1489 6.65156
799 2 2.2208 5.27138 35.0298 5.26575
800 1 -1.1104 1.21822 30.8602 1.02818
801 1 -1.1104 1.1069 36.3813 1.10853
803 1 -1.1104 0.956969 30.8056 3.82854
804 1 -1.1104 1.1122 36.4709 3.83686
806 1 -1.1104 1.11528 33.6852 0.950844
807 2 2.2208 5.27502 32.171 2.46321
808 2 2.2208 5.25122 37.8483 2.53917
809 1 -1.1104 1.04032 33.7137 3.84615
811 1 -1.1104 3.89231 30.8359 1.01451
812 1 -1.1104 3.85855 36.5602 1.149
813 2 2.2208 2.47219 34.9857 2.48673
814 1 -1.1104 3.88323 30.902 3.85248
815 1 -1.1104 3.91813 36.3853 4.04574
816 2 2.2208 2.45158 32.2683 5.25856
817 2 2.2208 2.47863 37.8276 5.33474
818 1 -1.1104 3.86761 33.6791 1.05445
819 1 -1.1104 3.79711 33.5451 3.76449
822 2 2.2208 -0.258827 32.3019 2.41581
824 1 -1.1104 6.69464 30.802 3.87156
1120 2 2.2208 10.9255 40.5793 -0.229791
1522 1 -1.1104 12.2216 47.6531 3.78629
957 1 -1.1104 3.96909 33.5992 6.66114
956 1 -1.1104 3.85071 36.4424 6.74158
950 1 -1.1104 1.03266 36.3861 6.71411
1050 2 2.2208 8.06537 40.7875 8.13281
1674 1 -1.1104 6.62083 47.7723 6.69061
821 2 2.2208 -0.258937 37.8638 2.60089
823 1 -1.1104 6.73161 30.8641 1.05099
805 1 -1.1104 6.66245 36.4098 3.87604
802 1 -1.1104 6.73642 36.542 1.15383
810 1 -1.1104 6.70983 33.5466 3.84939
825 1 -1.1104 6.63433 33.7266 1.20052
826 2 2.2208 10.9168 35.0345 5.29773
827 1 -1.1104 12.3864 30.9176 1.03945
828 1 -1.1104 12.3168 36.5122 1.08955
829 1 -1.1104 12.3325 30.8731 3.86065
830 1 -1.1104 12.2913 36.4426 3.90802
831 1 -1.1104 12.3325 33.7267 1.02968