ITEM: TIMESTEP
60000
ITEM: NUMBER OF ATOMS
17732
ITEM: BOX BOUNDS pp pp pp
-3.3157801075605575e-01 2.7671578010755326e+01
-3.8825903140883202e+00 3.3196259031408539e+02
-3.2395231888082332e-01 2.7663952318880398e+01
ITEM: ATOMS id type q x y z
1 2 2.2208 5.24663 1.73052 5.41788
2 1 -1.1104 1.00552 -2.4787 1.11047
3 1 -1.1104 1.10637 3.11314 1.13828
6 1 -1.1104 0.991816 -2.59389 3.99187
7 1 -1.1104 1.01649 3.2144 3.96289
10 1 -1.1104 1.08152 0.383309 1.17082
12 2 2.2208 5.23743 -0.997287 2.50609
13 2 2.2208 5.23281 4.53814 2.57768
14 1 -1.1104 0.878442 0.258365 4.04088
16 1 -1.1104 3.89548 -2.3454 1.1453
17 1 -1.1104 3.89586 3.14823 1.18838
18 2 2.2208 2.43202 1.83909 2.62737
19 1 -1.1104 3.7658 -2.4507 3.95007
20 1 -1.1104 3.8742 3.12283 4.03007
21 2 2.2208 2.38269 -1.05826 5.3787
22 2 2.2208 2.37245 4.45419 5.33402
23 1 -1.1104 3.79066 0.437361 1.27998
24 1 -1.1104 3.80347 0.333765 4.08753
28 2 2.2208 2.42237 -3.83139 2.53894
382 2 2.2208 2.33872 -0.991518 -0.303693
15 1 -1.1104 6.65841 0.319017 3.95485
9 1 -1.1104 6.66403 3.10663 3.90355
5 1 -1.1104 6.68592 3.15372 1.06161
404 2 2.2208 5.20165 18.3919 -0.213023
383 2 2.2208 2.38018 4.44177 -0.231204
11 1 -1.1104 6.58598 0.432111 1.09617
4 1 -1.1104 6.63903 -2.45777 1.16667
8 1 -1.1104 6.60935 -2.47327 3.93383
29 2 2.2208 5.1903 -3.84645 5.39071
82 2 2.2208 -0.278537 10.0159 2.65406
297 1 -1.1104 6.68434 14.3273 12.4461
385 2 2.2208 5.23092 -3.88228 -0.279892
311 2 2.2208 -0.252975 21.3052 8.16372
31 2 2.2208 10.8869 1.73632 5.33082
32 1 -1.1104 12.2192 -2.57067 1.18141
33 1 -1.1104 12.2545 3.09856 1.159
34 1 -1.1104 12.2436 -2.48533 3.94943
35 1 -1.1104 12.2779 3.10981 3.9114
36 1 -1.1104 12.1479 0.322148 1.14055
37 2 2.2208 10.818 -1.07378 2.56785
38 2 2.2208 10.7467 4.5801 2.5034
39 1 -1.1104 12.2639 0.310235 3.88732
40 1 -1.1104 9.36943 -2.47239 1.08913
41 1 -1.1104 9.37453 3.05608 1.23502
42 2 2.2208 8.04233 1.7109 2.57734
43 1 -1.1104 9.37248 -2.45636 3.93654
44 1 -1.1104 9.45 3.17445 3.98193
45 2 2.2208 8.05428 -1.07409 5.37236
46 2 2.2208 7.97923 4.53133 5.39014
47 1 -1.1104 9.42506 0.308722 1.18041
48 1 -1.1104 9.53797 0.284899 3.98442
52 2 2.2208 10.8072 -3.79749 5.34046
335 2 2.2208 13.6206 10.2258 5.44539
387 2 2.2208 10.8108 1.6911 -0.202243
388 2 2.2208 8.02785 -1.13909 -0.221373
389 2 2.2208 7.99617 4.55237 -0.243069
334 2 2.2208 13.6473 4.47419 5.34146
49 2 2.2208 13.6558 1.7779 2.56946
395 2 2.2208 5.24293 12.8497 -0.0847999
394 2 2.2208 2.48531 9.99497 -0.16063
54 2 2.2208 5.19878 7.27152 5.45157
55 2 2.2208 5.20349 12.886 5.40328
56 1 -1.1104 1.02725 8.67423 1.18072
58 1 -1.1104 1.05216 8.70536 4.01859
60 1 -1.1104 1.03238 5.86141 1.23689
61 1 -1.1104 1.00954 11.3949 1.25136
66 2 2.2208 5.30757 9.99079 2.59732
67 1 -1.1104 1.01897 5.94728 3.99595
68 1 -1.1104 1.0728 11.4661 4.06108
71 1 -1.1104 3.87223 8.65267 1.22653
72 2 2.2208 2.41837 7.32564 2.56119
73 2 2.2208 2.41904 12.8292 2.60425
74 1 -1.1104 3.81525 8.66868 4.02395
75 2 2.2208 2.43273 10.1184 5.42754
76 1 -1.1104 3.79173 5.89855 1.09646
77 1 -1.1104 3.90012 11.484 1.24442
79 1 -1.1104 3.68059 5.89217 3.9699
80 1 -1.1104 3.80066 11.5198 3.92883
393 2 2.2208 5.27635 7.35394 -0.155132
69 1 -1.1104 6.50045 5.91274 4.06566
63 1 -1.1104 6.61829 5.95272 1.25517
70 1 -1.1104 6.61062 11.4985 3.98721
64 1 -1.1104 6.68288 11.4427 1.20746
59 1 -1.1104 6.57543 8.70355 4.02973
57 1 -1.1104 6.6647 8.78033 1.14758
65 1 -1.1104 6.61194 11.4022 6.74263
321 1 -1.1104 9.55624 19.8199 12.3861
400 2 2.2208 10.7632 12.8907 -0.211592
398 2 2.2208 10.7878 7.3184 -0.226894
84 2 2.2208 10.911 7.28209 5.45646
85 2 2.2208 10.8568 12.879 5.2646
86 1 -1.1104 12.2041 8.70397 1.32398
87 1 -1.1104 12.2473 8.67297 4.16701
88 1 -1.1104 12.237 5.86236 1.18478
89 1 -1.1104 12.188 11.5435 1.25635
91 2 2.2208 10.8881 10.1392 2.60917
92 1 -1.1104 12.2503 5.87406 4.00545
93 1 -1.1104 12.3037 11.5668 4.03223
94 1 -1.1104 9.35943 8.70686 1.29528
95 2 2.2208 7.9252 7.32902 2.59027
96 2 2.2208 8.01248 12.8526 2.56392
97 1 -1.1104 9.41984 8.74324 4.04804
98 2 2.2208 8.04685 10.0895 5.41576
99 1 -1.1104 9.41359 5.94322 1.05698
100 1 -1.1104 9.36676 11.5063 1.08624
102 1 -1.1104 9.36572 5.95336 3.89612
103 1 -1.1104 9.45766 11.5166 3.94802
331 2 2.2208 10.8443 18.4298 11.0206
265 1 -1.1104 12.2573 8.62824 6.8528
51 2 2.2208 8.05204 -3.90154 2.59988
137 2 2.2208 -0.408375 18.4306 5.36491
106 2 2.2208 5.27636 18.4127 5.43673
107 1 -1.1104 1.05178 14.1754 1.21416
109 1 -1.1104 1.09855 19.8778 1.23588
113 1 -1.1104 0.990744 14.276 3.99921
114 1 -1.1104 1.0683 19.8072 4.11103
116 1 -1.1104 1.09507 17.05 1.23861
119 2 2.2208 5.21634 15.7125 2.68234
120 2 2.2208 5.27556 21.2574 2.61488
121 1 -1.1104 1.04532 17.0457 3.94192
123 1 -1.1104 3.82455 14.3131 1.28287
125 1 -1.1104 3.91821 19.7127 1.22865
127 2 2.2208 2.42455 18.4861 2.57033
128 1 -1.1104 3.79099 14.2938 4.08102
129 1 -1.1104 3.9462 19.8808 3.96169
130 2 2.2208 2.38934 15.6333 5.39438
131 2 2.2208 2.50164 21.2906 5.38258
132 1 -1.1104 3.82549 17.1121 1.21565
134 1 -1.1104 3.86037 16.9885 4.01134
105 2 2.2208 13.6295 7.307 2.5417
405 2 2.2208 2.51158 21.1213 -0.271827
139 1 -1.1104 6.66696 19.9572 4.10262
138 1 -1.1104 6.73737 19.8378 1.15564
403 2 2.2208 2.44513 15.6359 -0.22738
115 1 -1.1104 6.65736 14.3367 4.07572
110 1 -1.1104 6.64446 14.2434 1.25029
126 1 -1.1104 3.98832 19.849 6.74574
108 1 -1.1104 1.06014 14.1993 6.84879
229 2 2.2208 13.6422 1.70417 8.13699
140 1 -1.1104 6.66019 17.1044 1.20996
377 2 2.2208 8.00848 15.6574 -0.159715
122 1 -1.1104 6.76688 17.0809 3.97868
141 2 2.2208 10.8782 18.513 5.40381
142 1 -1.1104 12.1979 14.3547 1.16096
144 1 -1.1104 12.3108 19.967 1.16781
146 1 -1.1104 12.1106 14.2538 3.81813
147 1 -1.1104 12.2761 19.8038 3.84034
148 1 -1.1104 12.34 17.1513 1.28193
150 2 2.2208 10.8311 15.7518 2.60194
151 2 2.2208 10.8708 21.267 2.51655
152 1 -1.1104 12.2478 17.0054 4.06202
153 1 -1.1104 9.36491 14.2396 1.21351
155 1 -1.1104 9.49911 19.9024 1.14976
157 2 2.2208 8.10631 18.5512 2.58707
158 1 -1.1104 9.43834 14.2994 4.01899
159 1 -1.1104 9.49307 19.8886 3.94494
160 2 2.2208 8.07902 15.7048 5.32252
161 2 2.2208 8.05158 21.2918 5.38127
162 1 -1.1104 9.47754 17.0483 1.14957
164 1 -1.1104 9.47207 17.1099 4.0511
378 2 2.2208 10.842 18.5264 -0.239901
111 1 -1.1104 6.64417 14.2607 6.83045
112 1 -1.1104 6.63761 19.8445 6.79328
163 1 -1.1104 9.53227 17.14 6.76211
402 2 2.2208 13.6205 10.1422 -0.172363
379 2 2.2208 8.0428 21.2694 -0.199553
166 1 -1.1104 1.09445 -2.40895 6.8237
174 1 -1.1104 3.8417 0.347591 6.87371
172 1 -1.1104 3.89625 -2.43501 6.7898
170 1 -1.1104 0.954245 0.350141 6.8184
173 1 -1.1104 3.77565 3.07487 6.71238
167 1 -1.1104 1.0146 3.06283 6.78543
175 2 2.2208 5.19519 1.64704 10.987
176 1 -1.1104 0.955801 -2.44307 12.2991
177 1 -1.1104 1.07842 3.01137 12.4068
180 1 -1.1104 1.00811 -2.47765 9.49911
181 1 -1.1104 0.913072 3.06419 9.57843
184 1 -1.1104 1.00728 0.255329 12.3174
186 2 2.2208 5.32472 -1.10398 8.16798
187 2 2.2208 5.16009 4.46592 8.15088
188 1 -1.1104 1.04175 0.269655 9.52898
190 1 -1.1104 3.78533 -2.52191 12.3959
191 1 -1.1104 3.76771 2.98261 12.4091
192 2 2.2208 2.30976 1.67772 8.1028
193 1 -1.1104 3.86299 -2.44924 9.58841
194 1 -1.1104 3.82429 3.16058 9.53747
195 2 2.2208 2.43793 -1.08925 10.8931
196 2 2.2208 2.43377 4.48487 11.0011
197 1 -1.1104 3.81873 0.276423 12.4862
198 1 -1.1104 3.8207 0.31027 9.63826
169 1 -1.1104 6.66818 3.14121 6.6807
179 1 -1.1104 6.60152 3.07295 12.3051
168 1 -1.1104 6.7829 -2.47279 6.65024
171 1 -1.1104 6.66274 0.347129 6.81587
189 1 -1.1104 6.60578 0.190855 9.67356
178 1 -1.1104 6.59366 -2.48658 12.4679
156 1 -1.1104 9.40304 19.9518 6.70419
392 2 2.2208 13.6121 4.43904 -0.257792
149 1 -1.1104 12.3085 17.0577 6.87465
230 2 2.2208 13.6049 -1.07288 10.9737
182 1 -1.1104 6.66574 -2.44654 9.57429
183 1 -1.1104 6.69312 2.99982 9.54588
340 2 2.2208 13.5836 12.8956 8.11537
185 1 -1.1104 6.61835 0.262283 12.4896
208 1 -1.1104 9.4475 -2.44682 6.75047
209 1 -1.1104 9.51646 3.17298 6.68176
206 1 -1.1104 12.2992 3.15543 6.72507
207 1 -1.1104 12.1577 0.385182 6.79451
210 1 -1.1104 9.44258 0.364407 6.64623
205 1 -1.1104 12.2845 -2.44619 6.76564
211 2 2.2208 10.8787 1.80041 10.897
212 1 -1.1104 12.1117 -2.37786 12.3172
213 1 -1.1104 12.182 3.08397 12.4658
214 1 -1.1104 12.2081 -2.48733 9.56259
215 1 -1.1104 12.2248 3.10098 9.58412
216 1 -1.1104 12.302 0.344103 12.335
217 2 2.2208 10.8468 -1.12356 8.2038
218 2 2.2208 10.8512 4.50921 8.14859
219 1 -1.1104 12.2166 0.312398 9.54957
220 1 -1.1104 9.41333 -2.45555 12.4469
221 1 -1.1104 9.37748 3.20169 12.2688
222 2 2.2208 8.0295 1.66468 8.1921
223 1 -1.1104 9.35776 -2.50036 9.54198
224 1 -1.1104 9.43868 3.09033 9.49929
225 2 2.2208 8.02502 -1.16647 11.0239
226 2 2.2208 8.03938 4.54878 10.9659
227 1 -1.1104 9.51824 0.459401 12.3914
228 1 -1.1104 9.45982 0.269009 9.63332
338 2 2.2208 13.5997 4.49681 11.037
233 2 2.2208 13.6441 -3.81806 8.10477
374 2 2.2208 13.575 15.7024 -0.210381
239 1 -1.1104 3.7227 5.80714 6.72718
234 1 -1.1104 1.07358 8.6456 6.84154
78 1 -1.1104 3.86916 11.4642 6.77673
62 1 -1.1104 1.21709 11.4454 6.82936
236 1 -1.1104 1.00273 5.86403 6.77928
238 1 -1.1104 3.86474 8.72081 6.82428
240 2 2.2208 5.16275 7.19224 10.9549
241 2 2.2208 5.21177 12.8542 11.0431
242 1 -1.1104 1.06469 8.64808 12.4651
244 1 -1.1104 1.0771 8.65253 9.71383
246 1 -1.1104 1.10768 5.83898 12.3396
247 1 -1.1104 1.01014 11.4383 12.4712
250 2 2.2208 5.26251 10.0433 8.16707
251 1 -1.1104 1.01398 5.85634 9.61061
252 1 -1.1104 0.912363 11.3819 9.65728
255 1 -1.1104 3.75408 8.63361 12.3911
256 2 2.2208 2.46308 7.23517 8.2141
257 2 2.2208 2.33563 12.8397 8.28848
258 1 -1.1104 3.80372 8.57906 9.53761
259 2 2.2208 2.3749 9.96132 10.9638
260 1 -1.1104 3.83306 5.79184 12.4454
261 1 -1.1104 3.76577 11.4753 12.4292
262 1 -1.1104 3.73851 5.81599 9.52588
263 1 -1.1104 3.71498 11.4637 9.6008
245 1 -1.1104 6.57903 8.59405 9.55398
235 1 -1.1104 6.71474 8.58335 6.81127
237 1 -1.1104 6.65881 5.86767 6.85093
243 1 -1.1104 6.59101 8.75648 12.3148
249 1 -1.1104 6.42487 11.4584 12.3638
391 2 2.2208 13.5704 -1.09237 -0.264754
267 1 -1.1104 9.48514 8.81045 6.88102
339 2 2.2208 13.5993 7.36247 8.2257
143 1 -1.1104 12.1897 14.1701 6.7186
253 1 -1.1104 6.59091 5.79243 9.54933
341 2 2.2208 13.5256 10.1071 11.0371
101 1 -1.1104 9.39385 11.5074 6.74164
248 1 -1.1104 6.54279 5.88069 12.3421
266 1 -1.1104 12.1861 5.88146 6.82398
269 1 -1.1104 9.36967 5.95114 6.72859
254 1 -1.1104 6.63746 11.4574 9.59694
90 1 -1.1104 12.2043 11.4552 6.79498
264 1 -1.1104 9.43229 11.5577 9.59872
268 1 -1.1104 9.35754 5.961 9.59276
270 1 -1.1104 9.33949 11.4256 12.3575
271 1 -1.1104 9.40064 6.02182 12.3978
272 2 2.2208 7.94912 10.057 11.0215
273 1 -1.1104 9.46093 8.77105 9.67396
274 2 2.2208 8.04826 12.9288 8.14039
275 2 2.2208 8.07701 7.32907 8.24377
276 2 2.2208 10.7934 7.32056 10.8821
277 2 2.2208 10.7896 12.8396 10.9534
278 1 -1.1104 12.2214 8.76058 12.3999
279 1 -1.1104 12.1546 8.71069 9.57078
280 1 -1.1104 12.1813 5.99136 12.4294
281 1 -1.1104 12.21 11.5038 12.4257
282 2 2.2208 10.8291 10.1515 8.25761
283 1 -1.1104 12.1349 5.77091 9.65502
284 1 -1.1104 12.2765 11.5398 9.60674
285 1 -1.1104 9.47187 8.63195 12.3843
288 1 -1.1104 6.68901 19.8038 9.62864
124 1 -1.1104 3.83402 14.261 6.81044
302 1 -1.1104 1.08931 19.899 6.85089
133 1 -1.1104 3.89342 17.0898 6.85741
117 1 -1.1104 1.11319 16.9949 6.88826
310 2 2.2208 2.55117 15.704 11.0454
309 2 2.2208 2.43463 21.3629 11.0307
308 1 -1.1104 3.88731 17.1073 12.4628
307 1 -1.1104 1.06201 17.1381 12.4872
305 1 -1.1104 3.8185 14.1259 9.51201
304 1 -1.1104 3.791 17.0103 9.61053
303 2 2.2208 2.50562 18.4609 8.26585
301 1 -1.1104 3.85257 19.9164 9.62808
300 2 2.2208 5.23188 18.5157 11.039
299 1 -1.1104 1.00845 14.2542 12.3431
298 1 -1.1104 1.02305 19.8335 12.493
287 1 -1.1104 3.82634 14.3289 12.4154
295 2 2.2208 5.16497 15.6025 8.19694
294 1 -1.1104 0.999704 14.2644 9.65209
293 2 2.2208 5.24857 21.2383 8.20071
292 1 -1.1104 1.07408 17.1219 9.6404
286 1 -1.1104 3.81626 19.8718 12.3476
291 1 -1.1104 1.05275 19.9502 9.63226
290 1 -1.1104 6.70893 14.1628 9.7107
306 1 -1.1104 6.64612 17.0793 12.4665
154 1 -1.1104 9.42901 14.2992 6.79496
318 1 -1.1104 9.45758 19.7858 9.45545
136 2 2.2208 -0.267828 21.1238 2.57203
315 1 -1.1104 9.36488 17.0369 12.3539
333 2 2.2208 13.5687 15.6837 10.9207
327 1 -1.1104 12.1806 19.8793 9.6872
316 2 2.2208 8.11247 21.1291 10.9762
145 1 -1.1104 12.3073 19.9074 6.79146
322 1 -1.1104 9.48674 14.1744 12.4446
326 1 -1.1104 12.2411 16.9432 12.4395
323 1 -1.1104 12.1927 17.0775 9.63664
319 1 -1.1104 9.54226 14.2741 9.54631
330 1 -1.1104 12.2587 14.2161 12.3327
320 2 2.2208 7.95162 18.4816 8.18367
325 2 2.2208 10.8022 15.685 8.16297
328 1 -1.1104 12.1762 14.4102 9.54403
296 1 -1.1104 6.69547 19.799 12.3942
118 1 -1.1104 6.6904 17.0094 6.82285
289 1 -1.1104 6.53339 16.93 9.7535
324 2 2.2208 10.8859 21.2752 8.0966
314 1 -1.1104 9.34739 17.1024 9.56014
317 2 2.2208 8.00964 15.6397 11.0512
329 1 -1.1104 12.3441 19.76 12.4469
104 2 2.2208 13.6109 12.893 2.56362
401 2 2.2208 -0.271165 18.4268 -0.235221
165 2 2.2208 13.6454 18.4853 2.621
345 2 2.2208 13.6813 21.2178 10.9683
396 2 2.2208 -0.325306 12.8316 -0.164261
332 2 2.2208 13.6459 18.4212 8.31835
343 2 2.2208 -0.308462 10.0881 8.14229
232 2 2.2208 10.8243 -3.88951 10.9407
231 2 2.2208 8.05465 -3.85559 8.17975
390 2 2.2208 10.8408 -3.90696 -0.208507
381 2 2.2208 5.19591 1.75907 -0.195077
406 2 2.2208 5.21368 1.7551 16.5582
407 1 -1.1104 0.968045 -2.42887 17.9333
408 1 -1.1104 0.990374 3.19176 17.8808
411 1 -1.1104 0.963344 -2.40524 15.1375
413 1 -1.1104 0.980297 3.2088 15.1635
419 1 -1.1104 1.21555 0.272785 17.9801
421 2 2.2208 5.24624 -1.05523 19.3544
422 2 2.2208 5.19322 4.5391 19.3171
423 1 -1.1104 0.922029 0.395359 15.1884
427 1 -1.1104 3.71151 -2.46435 17.9815
428 1 -1.1104 3.86156 3.12258 17.9755
429 2 2.2208 2.52173 1.71068 19.3544
430 1 -1.1104 3.77308 -2.49849 15.1722
432 1 -1.1104 3.78887 3.06687 15.1899
434 2 2.2208 2.41914 -1.1034 16.5737
435 2 2.2208 2.42466 4.50158 16.6222
436 1 -1.1104 3.9104 0.266981 17.9798
437 1 -1.1104 3.84666 0.279693 15.2738
476 2 2.2208 -0.266279 21.2671 19.3785
352 2 2.2208 5.27479 4.40856 13.8731
441 2 2.2208 2.36696 -3.81767 19.3428
349 2 2.2208 2.37671 1.6439 13.7992
415 1 -1.1104 6.59348 -2.47104 15.2108
409 1 -1.1104 6.60431 -2.40836 17.8948
704 1 -1.1104 9.49628 17.1571 26.4265
348 2 2.2208 5.20209 -1.02841 13.8077
638 2 2.2208 10.8449 15.8333 24.9876
417 1 -1.1104 6.62839 3.06427 15.2555
356 2 2.2208 10.8033 -0.96513 13.7595
420 1 -1.1104 6.65223 0.414867 17.8607
425 1 -1.1104 6.71586 0.344025 15.188
410 1 -1.1104 6.59804 3.16677 17.939
449 2 2.2208 10.8346 1.63416 16.5031
450 1 -1.1104 12.241 -2.50422 17.8442
451 1 -1.1104 12.2719 3.053 17.9767
452 1 -1.1104 12.2429 -2.44101 15.1018
454 1 -1.1104 12.2405 3.11224 15.257
456 1 -1.1104 12.2251 0.233567 17.8265
457 2 2.2208 10.7878 -1.00686 19.2165
458 2 2.2208 10.9132 4.52481 19.3228
459 1 -1.1104 12.2401 0.249455 15.0855
461 1 -1.1104 9.38607 -2.47875 17.918
462 1 -1.1104 9.45875 3.13603 17.9187
463 2 2.2208 8.06382 1.71871 19.3772
464 1 -1.1104 9.42367 -2.48308 15.0844
466 1 -1.1104 9.37186 3.13475 15.1767
468 2 2.2208 8.03051 -1.00868 16.5797
469 2 2.2208 8.08616 4.51467 16.6122
470 1 -1.1104 9.4296 0.399101 17.8853
471 1 -1.1104 9.46598 0.311107 15.1043
354 2 2.2208 13.5995 -3.88488 13.6902
445 2 2.2208 13.582 10.151 22.1601
473 2 2.2208 13.6188 -3.86887 19.327
474 2 2.2208 10.7596 -3.82453 16.5049
578 2 2.2208 13.5984 1.68863 19.314
355 2 2.2208 8.00003 1.76403 13.7219
370 2 2.2208 13.5822 1.80884 13.7999
477 2 2.2208 13.7093 -1.15294 16.4805
482 2 2.2208 5.20669 7.23149 16.4854
483 2 2.2208 5.1704 12.9041 16.603
484 1 -1.1104 0.992609 8.65717 18.0236
486 1 -1.1104 1.0147 8.6275 15.1968
490 1 -1.1104 0.999081 5.94223 17.9834
491 1 -1.1104 1.05954 11.4365 18.0459
494 2 2.2208 5.30709 10.0571 19.3872
495 1 -1.1104 1.08797 5.86431 15.1554
497 1 -1.1104 1.01279 11.5062 15.2258
503 1 -1.1104 3.81965 8.83404 17.9464
504 2 2.2208 2.50889 7.42539 19.369
505 2 2.2208 2.35185 12.8534 19.4418
506 1 -1.1104 3.85586 8.64098 15.2292
508 2 2.2208 2.4175 10.0466 16.5894
509 1 -1.1104 3.81125 6.03912 17.9105
510 1 -1.1104 3.8652 11.517 18.0141
511 1 -1.1104 3.92598 5.80473 15.216
513 1 -1.1104 3.6949 11.3961 15.2079
359 2 2.2208 2.43386 7.22718 13.8132
488 1 -1.1104 6.64013 8.72544 15.0121
723 2 2.2208 -0.341918 18.5376 22.236
360 2 2.2208 5.11425 10.0446 13.7903
499 1 -1.1104 6.65208 5.8371 15.1188
485 1 -1.1104 6.58418 8.70042 17.8495
501 1 -1.1104 6.55935 11.4625 15.1629
493 1 -1.1104 6.70618 11.5113 17.9194
514 1 -1.1104 3.87403 11.3984 20.8474
350 2 2.2208 -0.321718 21.2973 13.8632
542 2 2.2208 13.5663 7.3059 19.3511
371 2 2.2208 5.246 15.7106 13.8444
492 1 -1.1104 6.60344 5.90313 17.8706
364 2 2.2208 10.8972 10.1533 13.8251
518 2 2.2208 10.8062 7.33792 16.5429
519 2 2.2208 10.8426 12.8976 16.6618
520 1 -1.1104 12.1635 8.73227 18.0488
521 1 -1.1104 12.2359 8.76094 15.1879
523 1 -1.1104 12.2499 5.85674 17.9579
524 1 -1.1104 12.3 11.5067 18.0562
525 2 2.2208 10.7885 10.1063 19.4119
526 1 -1.1104 12.264 5.819 15.1568
528 1 -1.1104 12.2245 11.6069 15.3342
530 1 -1.1104 9.38851 8.70364 17.9227
531 2 2.2208 7.99201 7.32759 19.3068
532 2 2.2208 8.01856 12.9911 19.4089
533 1 -1.1104 9.44954 8.81858 15.146
535 2 2.2208 7.97788 10.1324 16.4937
536 1 -1.1104 9.48926 5.95203 18.0055
537 1 -1.1104 9.4659 11.5173 18.0018
538 1 -1.1104 9.38924 6.05399 15.195
540 1 -1.1104 9.3879 11.5836 15.0972
365 2 2.2208 7.98179 12.8605 13.7559
363 2 2.2208 7.96368 7.32919 13.7082
369 2 2.2208 5.22237 21.2633 13.699
368 2 2.2208 2.51428 18.4822 13.7833
545 2 2.2208 5.26641 18.5331 16.5949
546 1 -1.1104 1.0333 14.2862 18.0167
547 1 -1.1104 1.01315 19.8935 18.0601
550 1 -1.1104 1.05768 14.3743 15.2031
552 1 -1.1104 1.08083 19.9807 15.2199
558 1 -1.1104 0.997808 17.1539 17.9195
560 2 2.2208 5.23832 15.7499 19.4242
561 2 2.2208 5.17582 21.3194 19.2176
562 1 -1.1104 1.0927 17.1725 15.209
566 1 -1.1104 3.78646 14.3298 18.0782
567 1 -1.1104 3.74461 19.8715 17.9358
568 2 2.2208 2.4008 18.5322 19.3719
569 1 -1.1104 3.79809 14.1446 15.2241
571 1 -1.1104 3.92363 19.9186 15.1706
573 2 2.2208 2.46337 15.7467 16.5801
574 2 2.2208 2.49892 21.3442 16.5192
575 1 -1.1104 3.82238 17.1647 17.9781
576 1 -1.1104 3.86116 16.9762 15.2296
548 1 -1.1104 6.54671 14.3301 18.0566
559 1 -1.1104 6.66617 17.1846 18.0269
551 1 -1.1104 1.00794 14.3494 20.7534
557 1 -1.1104 6.6111 19.9149 20.7925
570 1 -1.1104 3.87654 14.1719 20.875
699 2 2.2208 8.05191 15.7447 22.2356
585 1 -1.1104 12.1759 14.3906 20.8728
549 1 -1.1104 6.59116 19.9673 18.0153
554 1 -1.1104 6.55933 14.3041 15.212
556 1 -1.1104 6.75576 19.8209 15.2032
564 1 -1.1104 6.61951 17.0598 15.2633
581 2 2.2208 10.7869 18.5071 16.565
582 1 -1.1104 12.251 14.2661 17.968
583 1 -1.1104 12.2666 19.8394 18.0648
584 1 -1.1104 12.3235 14.3246 15.1683
586 1 -1.1104 12.2854 19.9095 15.2219
588 1 -1.1104 12.1676 17.0631 17.9853
589 2 2.2208 10.8311 15.7297 19.429
590 2 2.2208 10.9202 21.3046 19.3837
591 1 -1.1104 12.2761 17.1093 15.1146
593 1 -1.1104 9.41956 14.3061 18.1146
594 1 -1.1104 9.41386 19.9324 17.9481
595 2 2.2208 8.05907 18.5051 19.3706
596 1 -1.1104 9.42702 14.259 15.2504
598 1 -1.1104 9.4933 19.8689 15.1182
600 2 2.2208 8.00269 15.6189 16.5799
601 2 2.2208 8.03236 21.3935 16.5532
602 1 -1.1104 9.38496 17.1124 18.0974
603 1 -1.1104 9.45317 17.0681 15.2394
357 2 2.2208 10.8553 4.5364 13.835
587 1 -1.1104 12.2867 19.9867 20.7104
376 2 2.2208 8.10296 18.4157 13.7761
373 2 2.2208 10.8706 15.5986 13.7863
372 2 2.2208 10.9117 21.1415 13.7104
414 1 -1.1104 1.11372 3.05375 20.7433
639 2 2.2208 5.17298 -3.82109 22.0886
433 1 -1.1104 3.77807 3.16283 20.7068
431 1 -1.1104 3.87013 -2.44474 20.757
424 1 -1.1104 0.925816 0.358066 20.7654
438 1 -1.1104 3.83057 0.292193 20.718
412 1 -1.1104 1.03891 -2.40031 20.7095
609 2 2.2208 5.22722 1.72333 22.1659
610 1 -1.1104 1.00813 -2.51907 23.505
611 1 -1.1104 0.953933 3.12304 23.5181
614 1 -1.1104 0.933286 -2.46451 26.3106
615 1 -1.1104 1.05572 3.07742 26.4395
618 1 -1.1104 1.05901 0.354052 23.5659
620 2 2.2208 5.20017 -1.08224 24.9802
621 2 2.2208 5.31851 4.55148 24.9592
622 1 -1.1104 1.03796 0.376858 26.2998
624 1 -1.1104 3.77245 -2.5301 23.6226
625 1 -1.1104 3.85134 3.09893 23.5329
626 2 2.2208 2.43487 1.76034 24.9668
627 1 -1.1104 3.76816 -2.42185 26.3861
628 1 -1.1104 3.86195 3.16923 26.3866
629 2 2.2208 2.34904 -1.04223 22.1396
630 2 2.2208 2.38568 4.46966 22.1534
631 1 -1.1104 3.77516 0.293512 23.4598
632 1 -1.1104 3.85113 0.363803 26.3532
426 1 -1.1104 6.55099 0.301071 20.8996
613 1 -1.1104 6.59074 3.12952 23.5399
623 1 -1.1104 6.52524 0.369933 26.3324
619 1 -1.1104 6.66306 0.316274 23.6525
666 2 2.2208 13.591 -3.81174 24.925
416 1 -1.1104 6.66078 -2.48386 20.7938
465 1 -1.1104 9.43403 -2.46588 20.6423
671 2 2.2208 13.6019 -1.07408 22.0701
617 1 -1.1104 6.63713 3.15894 26.361
418 1 -1.1104 6.68312 3.10325 20.8536
366 2 2.2208 13.5893 7.28005 13.7979
725 2 2.2208 -0.378627 15.7742 24.9893
455 1 -1.1104 12.2888 3.15076 20.773
472 1 -1.1104 9.36548 0.295653 20.7214
616 1 -1.1104 6.58132 -2.49394 26.3133
612 1 -1.1104 6.57731 -2.39418 23.5905
467 1 -1.1104 9.45276 3.09207 20.6253
453 1 -1.1104 12.1963 -2.57673 20.7028
460 1 -1.1104 12.1728 0.344765 20.5773
645 2 2.2208 10.8082 1.79002 22.0463
646 1 -1.1104 12.2303 -2.4721 23.5115
647 1 -1.1104 12.261 3.14 23.5104
648 1 -1.1104 12.1822 -2.45326 26.3203
649 1 -1.1104 12.1723 3.0369 26.2998
650 1 -1.1104 12.2065 0.325874 23.4657
651 2 2.2208 10.7792 -1.10141 24.9135
652 2 2.2208 10.8098 4.49244 24.8615
653 1 -1.1104 12.2027 0.275826 26.3587
654 1 -1.1104 9.37808 -2.51439 23.5607
655 1 -1.1104 9.43343 3.11954 23.4912
656 2 2.2208 8.02263 1.76334 24.9818
657 1 -1.1104 9.42314 -2.62023 26.4304
658 1 -1.1104 9.42536 3.13498 26.3063
659 2 2.2208 8.06322 -1.1443 22.1877
660 2 2.2208 7.98427 4.5123 22.1368
661 1 -1.1104 9.46251 0.232536 23.4452
662 1 -1.1104 9.43135 0.293254 26.3374
672 2 2.2208 13.5426 1.76498 24.9728
446 2 2.2208 13.5971 4.57294 22.1505
487 1 -1.1104 1.11708 8.74157 20.851
496 1 -1.1104 1.04831 5.89466 20.7971
507 1 -1.1104 3.881 8.69843 20.7827
447 2 2.2208 -0.32146 18.504 16.5231
512 1 -1.1104 3.80117 5.91273 20.6334
498 1 -1.1104 0.975353 11.5753 20.8613
674 2 2.2208 5.16436 7.25864 22.1796
675 2 2.2208 5.29632 12.9083 22.2595
676 1 -1.1104 1.01669 8.60454 23.6056
678 1 -1.1104 1.00246 8.67043 26.3919
680 1 -1.1104 1.03328 5.85891 23.5528
681 1 -1.1104 1.06246 11.472 23.5272
684 2 2.2208 5.21093 10.1266 24.9918
685 1 -1.1104 1.04534 5.90224 26.3871
686 1 -1.1104 0.965729 11.4609 26.3489
689 1 -1.1104 3.8078 8.68428 23.687
690 2 2.2208 2.33807 7.2758 25.0459
691 2 2.2208 2.40875 12.9227 24.9338
692 1 -1.1104 3.85192 8.70422 26.3962
693 2 2.2208 2.50613 10.1211 22.1453
694 1 -1.1104 3.76738 5.84747 23.4473
695 1 -1.1104 3.90839 11.5041 23.5769
696 1 -1.1104 3.8548 5.93091 26.318
697 1 -1.1104 3.86281 11.4862 26.3795
500 1 -1.1104 6.5792 5.97083 20.789
688 1 -1.1104 6.55479 11.4421 26.4433
677 1 -1.1104 6.57496 8.7068 23.4713
687 1 -1.1104 6.7576 6.01837 26.3286
527 1 -1.1104 12.1997 5.90994 20.8571
539 1 -1.1104 9.43641 5.92023 20.7865
726 2 2.2208 13.5938 12.9194 24.9864
502 1 -1.1104 6.61212 11.5328 20.7407
489 1 -1.1104 6.65836 8.68252 20.7526
683 1 -1.1104 6.64889 11.4838 23.5899
440 2 2.2208 5.27484 -3.91093 16.5116
541 1 -1.1104 9.47925 11.6262 20.7664
534 1 -1.1104 9.42138 8.71144 20.7363
529 1 -1.1104 12.2325 11.5551 20.8971
522 1 -1.1104 12.2492 8.78485 20.7591
682 1 -1.1104 6.63957 5.7929 23.5199
679 1 -1.1104 6.58509 8.69319 26.3138
705 1 -1.1104 9.41168 11.5157 26.3081
706 1 -1.1104 9.46703 5.9445 26.3021
707 1 -1.1104 9.384 11.4765 23.5327
708 1 -1.1104 9.41427 5.89069 23.4701
709 2 2.2208 8.04573 10.1349 22.1584
710 1 -1.1104 9.47974 8.69636 26.368
711 2 2.2208 8.07944 12.9077 25.0173
712 2 2.2208 8.11764 7.31377 24.9115
713 2 2.2208 10.8354 7.43669 22.1881
714 2 2.2208 10.8217 13.0002 22.2103
715 1 -1.1104 12.2688 8.63784 23.6323
716 1 -1.1104 12.268 8.70757 26.4214
717 1 -1.1104 12.1852 5.98337 23.5631
718 1 -1.1104 12.234 11.5371 23.6982
719 2 2.2208 10.8163 10.0298 24.9849
720 1 -1.1104 12.2096 5.92452 26.4018
721 1 -1.1104 12.1471 11.3687 26.5029
722 1 -1.1104 9.37422 8.71558 23.5865
543 2 2.2208 13.653 10.2075 16.5595
636 1 -1.1104 12.0936 17.1816 23.5967
565 1 -1.1104 6.6917 17.0446 20.8458
563 1 -1.1104 1.03993 17.1413 20.7387
553 1 -1.1104 1.04634 19.8633 20.8607
577 1 -1.1104 3.88876 17.1119 20.7117
572 1 -1.1104 3.82213 19.9253 20.8254
748 1 -1.1104 1.00997 17.0895 23.5006
746 1 -1.1104 3.96492 14.2055 26.4365
745 1 -1.1104 3.76472 16.9143 26.3569
744 2 2.2208 2.47502 18.4984 25.0335
750 2 2.2208 2.42118 21.2586 22.2589
749 1 -1.1104 3.7878 17.0578 23.4705
727 2 2.2208 2.48757 15.715 22.1269
729 1 -1.1104 3.8791 19.8673 23.5612
731 1 -1.1104 3.7648 14.4083 23.6468
733 1 -1.1104 1.0326 19.804 26.4321
734 1 -1.1104 1.12755 17.1006 26.389
735 1 -1.1104 1.0599 14.2601 26.3774
737 2 2.2208 5.30702 21.1965 24.9161
738 2 2.2208 5.2814 15.7093 24.9458
740 1 -1.1104 1.04236 19.941 23.6256
741 1 -1.1104 0.957144 14.2905 23.6262
742 2 2.2208 5.25036 18.468 22.112
743 1 -1.1104 3.91428 19.785 26.3256
670 1 -1.1104 6.68079 19.8702 26.4289
736 1 -1.1104 6.75154 19.7869 23.5823
732 1 -1.1104 6.64811 17.101 26.374
739 1 -1.1104 6.59169 14.2792 23.6776
747 1 -1.1104 6.72155 17.0546 23.568
361 2 2.2208 2.3217 12.8831 13.7764
579 2 2.2208 13.6283 4.47897 16.5999
700 2 2.2208 8.174 21.2928 22.1439
673 1 -1.1104 9.40964 14.3477 26.4117
664 1 -1.1104 9.28164 14.2667 23.6454
641 2 2.2208 10.9099 21.3188 25.0282
597 1 -1.1104 9.42766 14.3723 20.8457
667 2 2.2208 8.03335 18.5462 25.0192
635 1 -1.1104 12.1725 19.899 26.3303
701 1 -1.1104 9.34853 17.153 23.6479
634 1 -1.1104 12.2033 14.307 26.306
698 1 -1.1104 9.50429 20.0201 26.4133
730 1 -1.1104 6.60122 14.2251 26.4994
665 1 -1.1104 9.47217 19.9268 23.602
608 1 -1.1104 12.1324 14.4182 23.4959
607 2 2.2208 10.7397 18.5506 22.1564
663 1 -1.1104 12.3019 17.0725 26.3909
599 1 -1.1104 9.44342 19.933 20.706
555 1 -1.1104 6.66477 14.3416 20.8306
604 1 -1.1104 9.44938 17.0932 20.8855
592 1 -1.1104 12.3165 17.1938 20.8097
633 1 -1.1104 12.2789 19.8943 23.5175
605 2 2.2208 13.6596 18.5264 24.9633
724 2 2.2208 -0.322553 21.2023 25.0104
515 2 2.2208 -0.301033 10.096 19.486
380 2 2.2208 13.6317 18.4573 13.8481
580 2 2.2208 13.6339 15.7343 22.1902
517 2 2.2208 13.6206 12.9112 19.4713
475 2 2.2208 8.01848 -3.87283 19.329
399 2 2.2208 8.01749 10.1003 27.6473
751 2 2.2208 5.27331 24.0922 5.34324
752 2 2.2208 5.27678 29.7123 5.46991
753 1 -1.1104 0.953185 25.425 1.15047
754 1 -1.1104 1.10533 25.5088 3.96372
755 1 -1.1104 1.19709 22.6347 1.24241
756 1 -1.1104 1.104 28.2726 1.28557
757 2 2.2208 5.26971 26.8653 2.53783
758 1 -1.1104 1.04485 22.6886 3.93477
759 1 -1.1104 1.1162 28.1702 3.9807
760 1 -1.1104 3.84518 25.4551 1.13973
761 2 2.2208 2.42997 24.0522 2.51728
762 2 2.2208 2.4882 29.5887 2.61587
763 1 -1.1104 3.8821 25.4331 3.93835
764 2 2.2208 2.49716 26.8302 5.39814
765 1 -1.1104 3.95031 22.5493 1.09997
766 1 -1.1104 3.8995 28.3574 1.25747
767 1 -1.1104 3.87791 22.6515 3.8872
768 1 -1.1104 3.90183 28.2278 4.08874
1124 2 2.2208 8.07988 26.8352 -0.213023
1117 2 2.2208 2.48573 26.9404 -0.218216
1118 2 2.2208 5.35759 29.6526 -0.226632
1114 2 2.2208 5.29967 24.0246 -0.193987
773 1 -1.1104 6.68006 25.4284 4.01281
898 1 -1.1104 3.86243 25.3756 6.74326
894 1 -1.1104 1.0562 22.7047 6.81648
822 2 2.2208 -0.344593 32.4287 2.57519
769 2 2.2208 -0.295368 29.6039 5.38562
776 1 -1.1104 6.72213 22.7785 3.95732
774 1 -1.1104 6.63937 22.5931 1.16555
772 1 -1.1104 6.66044 25.4178 1.15277
777 1 -1.1104 6.63792 28.3275 3.94853
775 1 -1.1104 6.69356 28.1007 1.13265
778 2 2.2208 10.8613 24.1055 5.32322
779 2 2.2208 10.8645 29.6433 5.29191
780 1 -1.1104 12.3419 25.5248 1.15145
781 1 -1.1104 12.3566 25.3948 3.97933
782 1 -1.1104 12.3391 22.7257 1.22084
783 1 -1.1104 12.3197 28.3073 1.15873
784 2 2.2208 10.9223 26.8079 2.51943
785 1 -1.1104 12.329 22.6716 3.88733
786 1 -1.1104 12.2431 28.1739 3.8699
787 1 -1.1104 9.47593 25.4984 1.14375
788 2 2.2208 8.06689 24.0971 2.531
789 2 2.2208 8.04334 29.6469 2.56255
790 1 -1.1104 9.48576 25.3814 3.80802
791 2 2.2208 8.09477 26.8194 5.24057
792 1 -1.1104 9.52837 22.6125 1.06579
793 1 -1.1104 9.57147 28.3466 1.1577
794 1 -1.1104 9.54161 22.7181 3.95233
795 1 -1.1104 9.48886 28.1994 3.90676
926 1 -1.1104 12.292 22.6985 6.69945
1123 2 2.2208 10.9572 24.095 -0.207732
797 2 2.2208 13.5966 29.6311 2.50949
1127 2 2.2208 2.48011 38.0348 -0.271008
799 2 2.2208 5.19457 35.2153 5.37722
800 1 -1.1104 1.10596 31.0273 1.11389
801 1 -1.1104 1.07691 36.709 1.12657
803 1 -1.1104 1.03355 30.954 4.0381
804 1 -1.1104 1.07339 36.7027 3.84853
806 1 -1.1104 1.06884 33.8556 1.17214
807 2 2.2208 5.26069 32.4476 2.6001
808 2 2.2208 5.30304 38.0168 2.56949
809 1 -1.1104 1.10622 33.909 3.94193
811 1 -1.1104 3.86164 31.0657 1.22322
812 1 -1.1104 3.81049 36.6378 1.17207
813 2 2.2208 2.44541 35.2137 2.60828
814 1 -1.1104 3.8675 30.9619 4.05213
815 1 -1.1104 3.8961 36.5689 4.05802
816 2 2.2208 2.5197 32.3362 5.41612
817 2 2.2208 2.44844 38.1263 5.31574
818 1 -1.1104 3.93972 33.8902 1.24417
819 1 -1.1104 3.92512 33.8093 4.00311
1128 2 2.2208 2.48948 32.4558 -0.183752
823 1 -1.1104 6.66667 31.0336 1.2319
1129 2 2.2208 5.29082 35.2153 -0.186621
824 1 -1.1104 6.79394 31.0542 4.01595
1082 2 2.2208 13.6731 46.2551 7.79306
802 1 -1.1104 6.68565 36.5683 1.09319
805 1 -1.1104 6.7898 36.6961 3.98066
825 1 -1.1104 6.73906 33.8092 1.15893
810 1 -1.1104 6.753 33.8987 3.97097
826 2 2.2208 10.9182 35.3301 5.32314
827 1 -1.1104 12.2439 31.1234 1.15743
828 1 -1.1104 12.3281 36.6399 1.09504
829 1 -1.1104 12.2477 31.0925 3.85277
830 1 -1.1104 12.2962 36.6618 3.87855
831 1 -1.1104 12.2631 33.7802 1.0536
832 2 2.2208 10.8646 32.5087 2.49875
833 2 2.2208 10.9434 38.0567 2.51872
834 1 -1.1104 12.3415 33.8376 3.93847
835 1 -1.1104 9.41369 31.0518 1.08481
836 1 -1.1104 9.51123 36.6582 1.14016
837 2 2.2208 8.12124 35.3059 2.51236
838 1 -1.1104 9.49913 31.0597 4.04166
839 1 -1.1104 9.52432 36.7056 3.93018
840 2 2.2208 8.07794 32.5537 5.38418
841 2 2.2208 8.15428 38.1024 5.36436