ITEM: TIMESTEP
40000
ITEM: NUMBER OF ATOMS
17732
ITEM: BOX BOUNDS pp pp pp
-3.2628475136804458e-01 2.7666284751367826e+01
-3.9795162542918687e+00 3.3205951625428770e+02
-3.2738728458332061e-01 2.7667387284582819e+01
ITEM: ATOMS id type q x y z
1 2 2.2208 5.17012 1.66578 5.37959
2 1 -1.1104 1.15575 -2.52696 1.182
3 1 -1.1104 0.979354 3.02594 1.18218
6 1 -1.1104 1.09341 -2.52222 4.03035
7 1 -1.1104 1.00934 2.95221 3.91953
10 1 -1.1104 1.00781 0.237783 0.994904
12 2 2.2208 5.3693 -1.15695 2.53194
13 2 2.2208 5.19021 4.41039 2.47183
14 1 -1.1104 1.12825 0.255351 3.95695
16 1 -1.1104 3.88102 -2.47391 1.18682
17 1 -1.1104 3.82913 3.01616 1.12087
18 2 2.2208 2.52189 1.60936 2.52218
19 1 -1.1104 3.94097 -2.48388 3.91826
20 1 -1.1104 3.7193 3.13588 3.89551
21 2 2.2208 2.45139 -1.09553 5.3482
22 2 2.2208 2.44799 4.42928 5.30603
23 1 -1.1104 3.8534 0.265771 1.00609
24 1 -1.1104 3.8034 0.278023 3.87901
11 1 -1.1104 6.6059 0.235342 1.208
168 1 -1.1104 6.79489 -2.46239 6.65428
15 1 -1.1104 6.57578 0.342024 3.95612
4 1 -1.1104 6.68139 -2.5257 1.14142
9 1 -1.1104 6.52699 3.10147 3.87317
171 1 -1.1104 6.68647 0.309646 6.79916
5 1 -1.1104 6.62299 2.97884 1.03015
333 2 2.2208 13.698 15.6987 10.8288
167 1 -1.1104 1.0217 3.15472 6.72778
172 1 -1.1104 3.86296 -2.55766 6.73958
137 2 2.2208 -0.304224 18.3545 5.28279
381 2 2.2208 5.29709 1.59821 -0.310985
400 2 2.2208 10.8973 12.7513 -0.420794
326 1 -1.1104 12.2928 17.1124 12.2636
231 2 2.2208 8.11144 -3.94827 8.06007
8 1 -1.1104 6.6767 -2.52312 3.8913
31 2 2.2208 10.8745 1.75326 5.27073
32 1 -1.1104 12.2178 -2.55002 0.996083
33 1 -1.1104 12.1486 3.07415 1.23551
34 1 -1.1104 12.1801 -2.45901 3.85136
35 1 -1.1104 12.326 3.16223 3.95917
36 1 -1.1104 12.3321 0.333156 1.12952
37 2 2.2208 10.8585 -1.08868 2.50917
38 2 2.2208 10.8539 4.4863 2.47432
39 1 -1.1104 12.1824 0.373061 3.98297
40 1 -1.1104 9.53378 -2.59331 1.19032
41 1 -1.1104 9.38672 3.16788 1.09474
42 2 2.2208 8.04025 1.72956 2.51565
43 1 -1.1104 9.43572 -2.52493 3.85221
44 1 -1.1104 9.40708 3.10742 3.91639
45 2 2.2208 8.14982 -1.07829 5.34071
46 2 2.2208 8.04439 4.46913 5.29708
47 1 -1.1104 9.43802 0.265189 1.13637
48 1 -1.1104 9.4922 0.377565 3.9606
207 1 -1.1104 12.1404 0.268409 6.72781
202 2 2.2208 2.52108 -3.87056 8.13267
209 1 -1.1104 9.46055 3.10051 6.66531
169 1 -1.1104 6.51207 3.12705 6.78366
206 1 -1.1104 12.2698 3.09919 6.73054
208 1 -1.1104 9.52933 -2.50926 6.66009
319 1 -1.1104 9.54479 14.2285 9.52695
389 2 2.2208 8.10788 4.35765 -0.350713
54 2 2.2208 5.25478 7.29521 5.37156
55 2 2.2208 5.2492 12.9009 5.42196
56 1 -1.1104 1.17323 8.66292 1.15302
58 1 -1.1104 1.08255 8.69816 3.97406
60 1 -1.1104 1.02036 5.96481 1.07788
61 1 -1.1104 1.10481 11.4456 1.07163
66 2 2.2208 5.26621 10.0377 2.5395
67 1 -1.1104 1.07447 5.78837 3.94011
68 1 -1.1104 1.04163 11.4591 3.94542
71 1 -1.1104 3.88583 8.58933 1.08439
72 2 2.2208 2.49313 7.21473 2.53113
73 2 2.2208 2.53682 12.7944 2.47733
74 1 -1.1104 3.88353 8.62943 3.87448
75 2 2.2208 2.56267 10.0586 5.28457
76 1 -1.1104 3.83696 5.84007 1.13147
77 1 -1.1104 3.91439 11.4247 1.09484
79 1 -1.1104 3.77122 5.92354 4.02572
80 1 -1.1104 3.94381 11.3758 3.93142
234 1 -1.1104 1.02578 8.60953 6.73472
69 1 -1.1104 6.56 5.93088 3.93122
239 1 -1.1104 3.92981 5.99632 6.81408
315 1 -1.1104 9.45178 17.0354 12.3738
395 2 2.2208 5.32097 12.8284 -0.239777
290 1 -1.1104 6.6078 14.2539 9.52508
330 1 -1.1104 12.2751 14.1959 12.324
70 1 -1.1104 6.65795 11.434 3.88011
64 1 -1.1104 6.67537 11.4424 1.1036
63 1 -1.1104 6.63548 5.80568 1.08706
235 1 -1.1104 6.59891 8.65447 6.68931
59 1 -1.1104 6.72686 8.64675 3.95436
57 1 -1.1104 6.66169 8.56927 1.10161
84 2 2.2208 10.8372 7.34128 5.28199
85 2 2.2208 10.9144 12.8171 5.28716
86 1 -1.1104 12.2804 8.5501 1.00221
87 1 -1.1104 12.3432 8.72778 3.877
88 1 -1.1104 12.3177 5.76903 1.08109
89 1 -1.1104 12.245 11.3719 1.05907
91 2 2.2208 10.8282 10.0304 2.4775
92 1 -1.1104 12.2052 5.95945 3.8664
93 1 -1.1104 12.256 11.4954 3.87168
94 1 -1.1104 9.34067 8.67545 1.10049
95 2 2.2208 7.9732 7.17526 2.46287
96 2 2.2208 8.03644 12.8742 2.6186
97 1 -1.1104 9.50952 8.60643 3.91369
98 2 2.2208 8.09372 10.1076 5.27271
99 1 -1.1104 9.49876 5.91144 1.07904
100 1 -1.1104 9.44685 11.4344 1.18228
102 1 -1.1104 9.45746 5.82551 3.89404
103 1 -1.1104 9.4959 11.497 3.9371
265 1 -1.1104 12.3587 8.61775 6.72315
90 1 -1.1104 12.2566 11.4152 6.6388
104 2 2.2208 13.6409 12.778 2.44309
325 2 2.2208 10.9178 15.7108 8.12555
267 1 -1.1104 9.44564 8.76041 6.73963
101 1 -1.1104 9.44014 11.4481 6.70409
317 2 2.2208 8.13889 15.645 10.9371
289 1 -1.1104 6.71492 16.9783 9.58122
106 2 2.2208 5.25994 18.532 5.31113
107 1 -1.1104 0.982698 14.3052 1.08066
109 1 -1.1104 1.11844 19.9232 1.01715
113 1 -1.1104 1.11059 14.1247 3.84887
114 1 -1.1104 1.11348 19.8052 3.87647
116 1 -1.1104 1.14027 17.2188 1.17783
119 2 2.2208 5.29929 15.6669 2.59291
120 2 2.2208 5.27324 21.2587 2.53378
121 1 -1.1104 1.09092 17.0237 3.88356
123 1 -1.1104 3.89952 14.2444 1.15374
125 1 -1.1104 3.84489 19.8898 1.1839
127 2 2.2208 2.50258 18.4899 2.53867
128 1 -1.1104 3.85026 14.1983 3.9759
129 1 -1.1104 3.87274 19.9232 3.9844
130 2 2.2208 2.44082 15.6387 5.32517
131 2 2.2208 2.46979 21.2539 5.34981
132 1 -1.1104 3.86926 16.9644 1.13027
134 1 -1.1104 3.88473 17.1147 3.84584
126 1 -1.1104 3.93372 19.8112 6.73556
122 1 -1.1104 6.7074 17.1052 3.97176
138 1 -1.1104 6.63684 19.923 1.20128
112 1 -1.1104 6.71848 19.8488 6.79373
133 1 -1.1104 3.8984 17.118 6.68436
302 1 -1.1104 1.16111 19.7996 6.62408
139 1 -1.1104 6.67539 19.906 3.97847
403 2 2.2208 2.47582 15.6803 -0.225213
149 1 -1.1104 12.2814 17.0896 6.71751
165 2 2.2208 13.7317 18.4161 2.55106
140 1 -1.1104 6.6473 17.0352 1.18316
115 1 -1.1104 6.62664 14.2071 3.99918
110 1 -1.1104 6.73175 14.2459 1.25007
141 2 2.2208 10.8944 18.5416 5.27229
142 1 -1.1104 12.1934 14.1063 1.18756
144 1 -1.1104 12.3868 19.7873 1.10866
146 1 -1.1104 12.245 14.1863 3.86441
147 1 -1.1104 12.1692 19.797 3.88479
148 1 -1.1104 12.2709 16.9672 1.17256
150 2 2.2208 10.8113 15.542 2.5152
151 2 2.2208 10.9137 21.2599 2.49728
152 1 -1.1104 12.3159 17.0531 3.92952
153 1 -1.1104 9.47221 14.3026 1.14499
155 1 -1.1104 9.55148 19.8935 1.12418
157 2 2.2208 8.08417 18.4744 2.55291
158 1 -1.1104 9.50488 14.2278 3.99873
159 1 -1.1104 9.37762 19.9236 3.91666
160 2 2.2208 8.105 15.6358 5.36812
161 2 2.2208 8.076 21.293 5.4083
162 1 -1.1104 9.40726 17.1107 1.18189
164 1 -1.1104 9.39654 17.0845 4.03163
163 1 -1.1104 9.53088 17.1075 6.8765
143 1 -1.1104 12.2715 14.2562 6.64643
154 1 -1.1104 9.59358 14.2441 6.69625
404 2 2.2208 5.21964 18.406 -0.228058
331 2 2.2208 10.8368 18.5011 10.8971
327 1 -1.1104 12.2242 19.8866 9.49613
321 1 -1.1104 9.45292 19.8861 12.3523
174 1 -1.1104 3.78118 0.28035 6.696
173 1 -1.1104 3.7895 3.08321 6.75932
166 1 -1.1104 1.00559 -2.51854 6.75918
204 2 2.2208 -0.353076 -3.93447 10.8981
170 1 -1.1104 0.995195 0.280735 6.79649
175 2 2.2208 5.29201 1.71793 10.9764
176 1 -1.1104 1.13148 -2.65513 12.2923
177 1 -1.1104 1.10785 3.09551 12.3453
180 1 -1.1104 1.10703 -2.581 9.54579
181 1 -1.1104 1.05132 3.0579 9.61431
184 1 -1.1104 1.0959 0.338454 12.3749
186 2 2.2208 5.27387 -1.19463 8.19099
187 2 2.2208 5.25508 4.50916 8.19937
188 1 -1.1104 1.07397 0.210023 9.62269
190 1 -1.1104 3.97294 -2.52203 12.3543
191 1 -1.1104 3.85639 3.02994 12.3743
192 2 2.2208 2.45683 1.66986 8.17309
193 1 -1.1104 3.85042 -2.51107 9.56061
194 1 -1.1104 3.93453 3.09959 9.53638
195 2 2.2208 2.55142 -1.14266 10.9963
196 2 2.2208 2.51209 4.51156 10.9629
197 1 -1.1104 3.87154 0.246495 12.3554
198 1 -1.1104 3.83265 0.158957 9.47472
179 1 -1.1104 6.5978 3.10874 12.3222
182 1 -1.1104 6.70403 -2.56606 9.45705
185 1 -1.1104 6.67472 0.301045 12.3631
52 2 2.2208 10.9133 -3.88423 5.24595
28 2 2.2208 2.52586 -3.8978 2.56911
29 2 2.2208 5.31163 -3.87987 5.38565
210 1 -1.1104 9.43395 0.297229 6.80891
205 1 -1.1104 12.2624 -2.57573 6.64069
178 1 -1.1104 6.83726 -2.50738 12.3349
183 1 -1.1104 6.68546 3.11258 9.57909
189 1 -1.1104 6.63265 0.239588 9.54683
211 2 2.2208 10.8408 1.69729 10.8498
212 1 -1.1104 12.2607 -2.58105 12.2887
213 1 -1.1104 12.248 3.07399 12.2214
214 1 -1.1104 12.1965 -2.39905 9.45977
215 1 -1.1104 12.2296 3.12962 9.50337
216 1 -1.1104 12.3109 0.176372 12.2804
217 2 2.2208 10.869 -1.1276 8.13295
218 2 2.2208 10.8956 4.55658 8.07476
219 1 -1.1104 12.3102 0.31455 9.53429
220 1 -1.1104 9.54981 -2.35636 12.2134
221 1 -1.1104 9.39 3.10571 12.3415
222 2 2.2208 8.02434 1.69698 8.10656
223 1 -1.1104 9.46888 -2.46861 9.49727
224 1 -1.1104 9.45027 3.12767 9.43534
225 2 2.2208 8.0773 -1.1409 10.9032
226 2 2.2208 7.99892 4.55777 10.9319
227 1 -1.1104 9.43846 0.36764 12.2387
228 1 -1.1104 9.39681 0.26762 9.46834
323 1 -1.1104 12.2566 17.0533 9.54597
338 2 2.2208 13.6357 4.43738 10.8569
314 1 -1.1104 9.47744 17.1694 9.54383
30 2 2.2208 -0.241761 -3.94787 5.30683
236 1 -1.1104 1.12423 5.86459 6.64288
78 1 -1.1104 3.84105 11.5539 6.77316
62 1 -1.1104 1.07506 11.3811 6.68896
238 1 -1.1104 3.84225 8.73917 6.69897
240 2 2.2208 5.3071 7.23512 10.9512
241 2 2.2208 5.26806 12.859 11.0081
242 1 -1.1104 1.11905 8.77644 12.3204
244 1 -1.1104 1.10122 8.61858 9.58032
246 1 -1.1104 0.973306 5.97972 12.368
247 1 -1.1104 1.05197 11.4629 12.4147
250 2 2.2208 5.29199 10.1001 8.1916
251 1 -1.1104 1.10775 5.84389 9.55248
252 1 -1.1104 1.11017 11.4066 9.60961
255 1 -1.1104 3.93848 8.67488 12.3898
256 2 2.2208 2.46501 7.30136 8.08843
257 2 2.2208 2.4076 12.8416 8.17405
258 1 -1.1104 3.97683 8.63994 9.57579
259 2 2.2208 2.39769 10.0378 10.9509
260 1 -1.1104 3.88952 5.88564 12.3433
261 1 -1.1104 3.8464 11.4647 12.2994
262 1 -1.1104 3.81165 5.87361 9.49858
263 1 -1.1104 3.76566 11.394 9.55498
249 1 -1.1104 6.71857 11.5328 12.3193
377 2 2.2208 8.0114 15.6575 -0.230343
356 2 2.2208 10.9316 -1.08663 13.6589
269 1 -1.1104 9.48843 5.93128 6.68527
266 1 -1.1104 12.2978 5.88413 6.60785
254 1 -1.1104 6.58254 11.5377 9.6226
248 1 -1.1104 6.6697 5.9139 12.3883
243 1 -1.1104 6.72078 8.67716 12.3342
65 1 -1.1104 6.66338 11.4804 6.75989
245 1 -1.1104 6.66709 8.67859 9.59345
253 1 -1.1104 6.54466 5.9459 9.56997
53 2 2.2208 13.6608 -3.8896 2.46219
324 2 2.2208 10.8984 21.3176 8.18631
237 1 -1.1104 6.76566 5.87499 6.72821
264 1 -1.1104 9.57328 11.5344 9.59889
268 1 -1.1104 9.37942 5.87146 9.53807
270 1 -1.1104 9.48228 11.4275 12.4058
271 1 -1.1104 9.46964 5.98878 12.1969
272 2 2.2208 8.06965 10.0917 10.985
273 1 -1.1104 9.47221 8.6285 9.47601
274 2 2.2208 8.08206 12.8418 8.12327
275 2 2.2208 8.07926 7.2646 8.06447
276 2 2.2208 10.8551 7.2599 10.8658
277 2 2.2208 10.9657 12.8396 10.9314
278 1 -1.1104 12.2352 8.54921 12.3275
279 1 -1.1104 12.2688 8.64131 9.49117
280 1 -1.1104 12.248 5.79626 12.2005
281 1 -1.1104 12.2864 11.4417 12.3051
282 2 2.2208 10.8993 10.0339 8.24742
283 1 -1.1104 12.2834 5.89395 9.45
284 1 -1.1104 12.2726 11.414 9.47718
285 1 -1.1104 9.49917 8.65452 12.3133
329 1 -1.1104 12.2042 19.8827 12.3698
332 2 2.2208 13.5827 18.5108 8.18135
51 2 2.2208 8.12026 -4.01011 2.52584
117 1 -1.1104 1.07536 16.8937 6.67949
118 1 -1.1104 6.77338 17.0176 6.71552
288 1 -1.1104 6.68741 19.8586 9.57507
124 1 -1.1104 3.91925 14.2723 6.83607
108 1 -1.1104 1.12781 14.1908 6.67315
111 1 -1.1104 6.6867 14.2402 6.78024
296 1 -1.1104 6.61525 19.948 12.3315
306 1 -1.1104 6.68279 17.0969 12.4058
310 2 2.2208 2.54205 15.649 10.9799
309 2 2.2208 2.38406 21.3339 10.8494
308 1 -1.1104 3.85141 17.1006 12.2539
307 1 -1.1104 1.07813 17.0867 12.45
305 1 -1.1104 3.86839 14.212 9.62811
304 1 -1.1104 3.96294 17.0784 9.54458
303 2 2.2208 2.53999 18.384 8.15093
301 1 -1.1104 3.85338 19.9285 9.5281
300 2 2.2208 5.28665 18.4701 10.9455
299 1 -1.1104 1.13378 14.2408 12.3527
298 1 -1.1104 0.997736 19.8904 12.2158
287 1 -1.1104 3.90065 14.2673 12.4919
295 2 2.2208 5.2946 15.6517 8.18048
294 1 -1.1104 0.927938 14.2088 9.54033
293 2 2.2208 5.321 21.2828 8.16681
292 1 -1.1104 1.13823 17.0251 9.48228
286 1 -1.1104 3.86092 19.9987 12.1815
291 1 -1.1104 1.05538 19.8596 9.46118
297 1 -1.1104 6.73002 14.3586 12.3435
322 1 -1.1104 9.57562 14.2158 12.2956
320 2 2.2208 8.1331 18.5107 8.13847
316 2 2.2208 8.08738 21.3862 10.9411
328 1 -1.1104 12.3545 14.2573 9.4406
156 1 -1.1104 9.51585 20.0107 6.65968
145 1 -1.1104 12.2882 19.9392 6.71502
318 1 -1.1104 9.52143 19.9931 9.56144
203 2 2.2208 5.45412 -3.93245 10.9711
379 2 2.2208 8.11092 21.2921 -0.220583
232 2 2.2208 10.9508 -3.93494 10.9108
135 2 2.2208 -0.304092 15.6415 2.53231
82 2 2.2208 -0.250817 10.0449 2.50768
340 2 2.2208 13.6377 12.8346 8.09718
50 2 2.2208 13.6756 -1.0875 5.33076
229 2 2.2208 13.6081 1.66306 8.12591
397 2 2.2208 -0.24962 7.36135 -0.33356
312 2 2.2208 -0.330803 18.5155 10.9384
230 2 2.2208 13.6457 -1.13075 10.8835
199 2 2.2208 -0.34721 4.48704 8.12527
201 2 2.2208 -0.307272 1.60989 10.9978
378 2 2.2208 10.9383 18.4229 -0.269987
385 2 2.2208 5.2743 -3.95602 -0.296958
390 2 2.2208 10.8434 -3.94559 -0.360652
396 2 2.2208 -0.27201 12.8259 -0.328609
388 2 2.2208 8.08629 -1.22906 -0.209572
394 2 2.2208 2.55621 10.0462 -0.279997
366 2 2.2208 13.5647 7.19449 13.6952
399 2 2.2208 8.11563 10.0113 -0.31527
406 2 2.2208 5.32215 1.60075 16.5881
407 1 -1.1104 1.05756 -2.51706 17.8807
408 1 -1.1104 0.962424 3.08025 17.9415
411 1 -1.1104 1.13 -2.44735 15.0228
413 1 -1.1104 0.982955 3.15644 15.1346
419 1 -1.1104 1.09468 0.299534 17.8774
421 2 2.2208 5.31475 -1.10344 19.3831
422 2 2.2208 5.32833 4.42046 19.3868
423 1 -1.1104 1.03286 0.380386 15.0831
427 1 -1.1104 3.92416 -2.55728 17.9685
428 1 -1.1104 3.88856 3.0224 17.991
429 2 2.2208 2.47509 1.68901 19.2567
430 1 -1.1104 3.86445 -2.56454 15.1886
432 1 -1.1104 3.85885 3.04584 15.1854
434 2 2.2208 2.51022 -1.06723 16.4772
435 2 2.2208 2.4388 4.50501 16.5891
436 1 -1.1104 3.88758 0.234412 17.9339
437 1 -1.1104 3.85342 0.242224 15.1145
425 1 -1.1104 6.71483 0.138402 15.2463
433 1 -1.1104 3.80617 3.07612 20.7968
438 1 -1.1104 3.92672 0.274205 20.688
410 1 -1.1104 6.69129 2.92718 17.9059
414 1 -1.1104 1.10599 3.05868 20.7353
424 1 -1.1104 1.10674 0.302977 20.6483
475 2 2.2208 8.0841 -3.96561 19.362
639 2 2.2208 5.266 -3.95425 22.1775
346 2 2.2208 -0.292085 -1.1195 13.6953
441 2 2.2208 2.46295 -3.90537 19.235
724 2 2.2208 -0.356462 21.2151 24.8894
605 2 2.2208 13.7153 18.4751 24.8844
642 2 2.2208 -0.384128 -1.18358 24.9328
439 2 2.2208 -0.332708 -3.902 16.509
409 1 -1.1104 6.68779 -2.64572 17.9474
417 1 -1.1104 6.62893 2.99441 15.0659
418 1 -1.1104 6.67766 3.02782 20.7761
415 1 -1.1104 6.60426 -2.63645 15.1926
420 1 -1.1104 6.63265 0.176444 17.9561
449 2 2.2208 10.7946 1.62332 16.4472
450 1 -1.1104 12.3519 -2.54623 17.9683
451 1 -1.1104 12.3004 2.95854 17.8787
452 1 -1.1104 12.227 -2.55553 15.0574
454 1 -1.1104 12.2032 3.07464 14.96
456 1 -1.1104 12.2723 0.272176 17.8775
457 2 2.2208 10.8491 -1.21996 19.3235
458 2 2.2208 10.8403 4.30754 19.2808
459 1 -1.1104 12.2777 0.305806 15.0973
461 1 -1.1104 9.4748 -2.6322 18.021
462 1 -1.1104 9.45319 2.92295 17.9177
463 2 2.2208 8.09827 1.61774 19.3407
464 1 -1.1104 9.44138 -2.56205 15.1937
466 1 -1.1104 9.42872 2.96053 15.1833
468 2 2.2208 8.05613 -1.19553 16.5409
469 2 2.2208 8.05349 4.37082 16.4742
470 1 -1.1104 9.47185 0.00182248 17.8091
471 1 -1.1104 9.44638 0.116282 15.1458
426 1 -1.1104 6.77919 0.266853 20.7653
455 1 -1.1104 12.2421 2.94467 20.6462
472 1 -1.1104 9.56192 0.279098 20.5972
416 1 -1.1104 6.643 -2.43982 20.8165
635 1 -1.1104 12.2823 19.871 26.3104
465 1 -1.1104 9.41958 -2.50575 20.774
453 1 -1.1104 12.241 -2.5127 20.7773
701 1 -1.1104 9.49714 16.9551 23.5079
638 2 2.2208 10.8931 15.591 24.9826
482 2 2.2208 5.33353 7.28642 16.6037
483 2 2.2208 5.28716 12.8195 16.674
484 1 -1.1104 1.11926 8.70278 17.9508
486 1 -1.1104 1.0424 8.7239 15.1574
490 1 -1.1104 1.12434 5.88937 17.9442
491 1 -1.1104 1.08923 11.4306 17.9558
494 2 2.2208 5.3139 10.0531 19.3555
495 1 -1.1104 1.05936 5.94834 15.1101
497 1 -1.1104 1.05992 11.4382 15.1708
503 1 -1.1104 3.98277 8.6959 17.9521
504 2 2.2208 2.5278 7.24765 19.3689
505 2 2.2208 2.45457 12.8573 19.4403
506 1 -1.1104 3.84191 8.77689 15.1601
508 2 2.2208 2.44801 10.1029 16.5356
509 1 -1.1104 3.85049 5.81689 17.9636
510 1 -1.1104 3.79243 11.4098 18.0333
511 1 -1.1104 3.81614 5.91843 15.0976
513 1 -1.1104 3.92246 11.5065 15.1116
499 1 -1.1104 6.63817 5.84099 15.204
488 1 -1.1104 6.66981 8.62615 15.0747
485 1 -1.1104 6.70879 8.73119 17.873
493 1 -1.1104 6.66972 11.4518 17.9893
501 1 -1.1104 6.79027 11.4673 15.04
579 2 2.2208 13.7115 4.4378 16.4474
641 2 2.2208 10.8935 21.2684 24.9479
361 2 2.2208 2.53134 12.8481 13.7187
543 2 2.2208 13.6636 10.047 16.4569
492 1 -1.1104 6.69273 5.80932 17.9814
518 2 2.2208 10.7799 7.18078 16.4844
519 2 2.2208 10.9959 12.7719 16.4737
520 1 -1.1104 12.1588 8.55898 17.8612
521 1 -1.1104 12.2153 8.57785 15.1163
523 1 -1.1104 12.3305 5.7605 17.8559
524 1 -1.1104 12.2652 11.4392 17.9311
525 2 2.2208 10.9199 10.064 19.282
526 1 -1.1104 12.0916 5.77713 15.1367
528 1 -1.1104 12.249 11.4317 15.0039
530 1 -1.1104 9.386 8.61014 17.85
531 2 2.2208 8.13392 7.22504 19.2985
532 2 2.2208 8.11934 12.7477 19.3099
533 1 -1.1104 9.53629 8.56977 15.0735
535 2 2.2208 8.13359 10.0453 16.5024
536 1 -1.1104 9.56517 5.81171 17.9037
537 1 -1.1104 9.47913 11.3137 17.9906
538 1 -1.1104 9.37297 5.72463 15.0621
540 1 -1.1104 9.51714 11.3867 15.1605
539 1 -1.1104 9.48872 5.74069 20.7404
527 1 -1.1104 12.24 5.70116 20.6169
534 1 -1.1104 9.52424 8.57719 20.7049
529 1 -1.1104 12.4204 11.5049 20.7084
542 2 2.2208 13.671 7.13608 19.2708
541 1 -1.1104 9.48698 11.503 20.7507
522 1 -1.1104 12.3661 8.63069 20.6447
363 2 2.2208 8.07035 7.26745 13.7261
365 2 2.2208 8.16662 12.8735 13.7633
364 2 2.2208 10.8634 9.98711 13.5964
360 2 2.2208 5.24404 10.0921 13.713
545 2 2.2208 5.32874 18.5031 16.5125
546 1 -1.1104 1.04223 14.1782 17.9981
547 1 -1.1104 1.10271 19.9442 17.81
550 1 -1.1104 1.13937 14.2294 15.1689
552 1 -1.1104 1.08705 19.8813 15.0092
558 1 -1.1104 1.0883 17.0246 17.9259
560 2 2.2208 5.32893 15.6227 19.3751
561 2 2.2208 5.30459 21.3105 19.3803
562 1 -1.1104 1.0615 17.0987 15.1963
566 1 -1.1104 3.91488 14.304 17.9774
567 1 -1.1104 3.89596 19.8517 17.7728
568 2 2.2208 2.56139 18.5259 19.2334
569 1 -1.1104 3.90009 14.1617 15.167
571 1 -1.1104 3.92173 19.8929 14.955
573 2 2.2208 2.50821 15.6565 16.5165
574 2 2.2208 2.39082 21.176 16.3853
575 1 -1.1104 3.87943 17.0505 17.8664
576 1 -1.1104 3.89791 16.9272 15.2488
572 1 -1.1104 3.92367 19.8539 20.7072
548 1 -1.1104 6.69795 14.2663 17.9285
564 1 -1.1104 6.64742 17.1464 15.1379
577 1 -1.1104 3.97967 16.9954 20.6953
565 1 -1.1104 6.78905 16.9723 20.7941
556 1 -1.1104 6.63651 19.8774 15.1448
549 1 -1.1104 6.72379 19.9337 18.0215
368 2 2.2208 2.46458 18.4559 13.6452
369 2 2.2208 5.30666 21.2129 13.6771
382 2 2.2208 2.47306 -1.19282 27.7248
559 1 -1.1104 6.66292 17.128 17.9771
554 1 -1.1104 6.70572 14.2613 15.1825
581 2 2.2208 10.949 18.4398 16.5502
582 1 -1.1104 12.2634 14.3095 17.963
583 1 -1.1104 12.3416 19.831 17.9374
584 1 -1.1104 12.2839 14.1999 15.1708
586 1 -1.1104 12.2782 19.7604 15.1968
588 1 -1.1104 12.1661 17.0356 17.9146
589 2 2.2208 10.9271 15.6903 19.3343
590 2 2.2208 10.8985 21.2657 19.3705
591 1 -1.1104 12.3075 16.9978 15.0889
593 1 -1.1104 9.49969 14.133 17.8984
594 1 -1.1104 9.47947 19.8547 17.8845
595 2 2.2208 8.03727 18.4818 19.3037
596 1 -1.1104 9.54882 14.2607 15.0416
598 1 -1.1104 9.46571 19.8656 15.1586
600 2 2.2208 8.07026 15.6516 16.5503
601 2 2.2208 8.12153 21.3058 16.5943
602 1 -1.1104 9.41647 17.0292 17.9651
603 1 -1.1104 9.41763 17.0781 15.2601
592 1 -1.1104 12.3452 17.1431 20.7694
599 1 -1.1104 9.3845 19.95 20.7133
480 2 2.2208 13.6647 15.6606 16.5233
474 2 2.2208 10.8406 -3.96303 16.5316
373 2 2.2208 10.9322 15.6987 13.71
380 2 2.2208 13.6365 18.5068 13.6621
704 1 -1.1104 9.49621 16.9261 26.3402
637 2 2.2208 -0.331155 -3.84965 22.0599
431 1 -1.1104 3.89851 -2.48549 20.7567
352 2 2.2208 5.19308 4.45745 13.772
412 1 -1.1104 1.16062 -2.52953 20.7565
609 2 2.2208 5.40686 1.64306 22.1873
610 1 -1.1104 1.0266 -2.49011 23.5454
611 1 -1.1104 1.04487 3.12152 23.4309
614 1 -1.1104 0.996009 -2.6136 26.3815
615 1 -1.1104 1.0152 3.02092 26.3018
618 1 -1.1104 1.02042 0.115372 23.4045
620 2 2.2208 5.25947 -1.0658 24.9417
621 2 2.2208 5.33919 4.47352 24.8411
622 1 -1.1104 1.0823 0.293945 26.2623
624 1 -1.1104 3.87116 -2.49696 23.5671
625 1 -1.1104 3.88631 3.08039 23.5413
626 2 2.2208 2.43827 1.61127 24.8499
627 1 -1.1104 3.89238 -2.53818 26.3429
628 1 -1.1104 3.91584 2.98369 26.2526
629 2 2.2208 2.51878 -1.13112 22.102
630 2 2.2208 2.50723 4.48586 22.2094
631 1 -1.1104 3.95406 0.37913 23.514
632 1 -1.1104 3.88345 0.185702 26.2501
617 1 -1.1104 6.70483 3.03177 26.2725
623 1 -1.1104 6.66495 0.155558 26.4383
613 1 -1.1104 6.78323 3.08733 23.5174
477 2 2.2208 13.6016 -1.17032 16.455
633 1 -1.1104 12.2535 19.8812 23.431
383 2 2.2208 2.39062 4.39782 27.7427
728 2 2.2208 13.7096 7.33413 24.7957
608 1 -1.1104 12.2427 14.2514 23.5587
664 1 -1.1104 9.45423 14.1595 23.6591
640 2 2.2208 2.49797 -3.91378 24.8661
619 1 -1.1104 6.73889 0.326752 23.5051
612 1 -1.1104 6.6687 -2.42749 23.5732
616 1 -1.1104 6.69367 -2.52775 26.3701
467 1 -1.1104 9.45485 3.00558 20.8287
460 1 -1.1104 12.2885 0.237612 20.6906
645 2 2.2208 10.8963 1.57645 22.1781
646 1 -1.1104 12.208 -2.53203 23.4509
647 1 -1.1104 12.3837 2.94127 23.4446
648 1 -1.1104 12.2125 -2.55298 26.247
649 1 -1.1104 12.2643 3.09375 26.3195
650 1 -1.1104 12.2194 0.191747 23.5446
651 2 2.2208 10.8417 -1.12672 24.9747
652 2 2.2208 10.9332 4.48243 24.9267
653 1 -1.1104 12.2365 0.290029 26.367
654 1 -1.1104 9.49394 -2.58122 23.5357
655 1 -1.1104 9.55455 3.02334 23.582
656 2 2.2208 8.14807 1.73783 24.9415
657 1 -1.1104 9.44338 -2.53145 26.346
658 1 -1.1104 9.59253 3.14285 26.3588
659 2 2.2208 8.1361 -1.08191 22.1488
660 2 2.2208 8.18873 4.41872 22.1009
661 1 -1.1104 9.4741 0.192194 23.5102
662 1 -1.1104 9.48931 0.363595 26.2727
723 2 2.2208 -0.307136 18.4001 22.0113
699 2 2.2208 8.16967 15.6366 22.2462
514 1 -1.1104 4.01502 11.3854 20.7436
512 1 -1.1104 3.8614 5.86849 20.791
507 1 -1.1104 3.93305 8.62691 20.7667
502 1 -1.1104 6.67264 11.4573 20.7226
487 1 -1.1104 1.12971 8.71401 20.7867
500 1 -1.1104 6.71834 5.74957 20.6884
489 1 -1.1104 6.74518 8.55284 20.7399
636 1 -1.1104 12.2736 17.066 23.4977
498 1 -1.1104 1.06073 11.4435 20.7223
496 1 -1.1104 1.118 5.91457 20.8272
674 2 2.2208 5.35934 7.28749 22.0726
675 2 2.2208 5.3609 12.8343 22.2064
676 1 -1.1104 1.09101 8.73719 23.6167
678 1 -1.1104 1.07773 8.67643 26.3278
680 1 -1.1104 0.985358 5.98321 23.6601
681 1 -1.1104 1.07049 11.4705 23.5385
684 2 2.2208 5.30291 10.0877 25.0319
685 1 -1.1104 1.0781 5.75293 26.3314
686 1 -1.1104 1.1229 11.4764 26.2603
689 1 -1.1104 4.00304 8.79064 23.5409
690 2 2.2208 2.45432 7.24758 24.901
691 2 2.2208 2.53342 12.8406 24.8335
692 1 -1.1104 3.86007 8.60782 26.3446
693 2 2.2208 2.58552 10.0773 22.1708
694 1 -1.1104 4.00293 5.91708 23.4999
695 1 -1.1104 3.84297 11.5073 23.5444
696 1 -1.1104 3.83833 5.86282 26.2339
697 1 -1.1104 3.97044 11.4687 26.3529
687 1 -1.1104 6.618 5.7904 26.2883
688 1 -1.1104 6.70293 11.5438 26.4105
673 1 -1.1104 9.449 14.1814 26.3874
393 2 2.2208 5.25129 7.19729 27.7417
663 1 -1.1104 12.3361 16.9515 26.3714
587 1 -1.1104 12.3046 19.8605 20.5676
683 1 -1.1104 6.76281 11.4624 23.5984
730 1 -1.1104 6.69642 14.2797 26.3965
444 2 2.2208 -0.343718 7.31776 22.0858
679 1 -1.1104 6.65818 8.61909 26.323
677 1 -1.1104 6.77899 8.64292 23.4211
682 1 -1.1104 6.71654 5.83683 23.4198
705 1 -1.1104 9.51117 11.4976 26.3024
706 1 -1.1104 9.40596 5.81727 26.3265
707 1 -1.1104 9.404 11.4015 23.5034
708 1 -1.1104 9.49624 5.80402 23.5373
709 2 2.2208 8.1104 10.0295 22.0633
710 1 -1.1104 9.46127 8.68477 26.2349
711 2 2.2208 8.12493 12.8033 24.9272
712 2 2.2208 8.12105 7.1981 24.9358
713 2 2.2208 10.9253 7.18116 22.0758
714 2 2.2208 10.9687 12.9358 22.1252
715 1 -1.1104 12.3878 8.53696 23.4006
716 1 -1.1104 12.2397 8.5853 26.2445
717 1 -1.1104 12.2907 5.7965 23.4751
718 1 -1.1104 12.2708 11.4335 23.3828
719 2 2.2208 10.874 10.0736 24.8132
720 1 -1.1104 12.305 5.8546 26.2701
721 1 -1.1104 12.3322 11.3635 26.1242
722 1 -1.1104 9.58804 8.68808 23.3921
698 1 -1.1104 9.49387 19.7569 26.4102
557 1 -1.1104 6.5904 19.8281 20.8594
570 1 -1.1104 3.95349 14.2074 20.7735
551 1 -1.1104 1.09367 14.245 20.7114
563 1 -1.1104 1.07168 17.1117 20.6746
739 1 -1.1104 6.69061 14.2133 23.5667
665 1 -1.1104 9.57862 19.6891 23.5369
736 1 -1.1104 6.82183 19.7972 23.6278
553 1 -1.1104 0.965275 19.8237 20.639
732 1 -1.1104 6.68818 17.0609 26.442
747 1 -1.1104 6.73457 16.9925 23.6995
748 1 -1.1104 1.11608 17.0427 23.4299
746 1 -1.1104 3.91782 14.2295 26.3342
745 1 -1.1104 3.95128 17.0528 26.3123
744 2 2.2208 2.44787 18.4264 24.821
750 2 2.2208 2.56308 21.1526 22.1526
749 1 -1.1104 3.91741 17.0063 23.4987
727 2 2.2208 2.54375 15.6283 22.0582
729 1 -1.1104 3.96608 19.7038 23.5402
731 1 -1.1104 3.88026 14.2136 23.538
733 1 -1.1104 1.0459 19.904 26.292
734 1 -1.1104 1.14655 17.0835 26.3457
735 1 -1.1104 1.18528 14.298 26.2665
737 2 2.2208 5.27887 21.0952 25.0097
738 2 2.2208 5.29932 15.6642 24.9755
740 1 -1.1104 1.11702 19.8819 23.4688
741 1 -1.1104 0.969712 14.2799 23.4657
742 2 2.2208 5.36348 18.394 22.1156
743 1 -1.1104 3.8063 19.8057 26.3353
670 1 -1.1104 6.74915 19.8511 26.4839
585 1 -1.1104 12.2855 14.2755 20.7971
634 1 -1.1104 12.2722 14.2744 26.2856
667 2 2.2208 8.21746 18.3829 24.9651
607 2 2.2208 10.8585 18.5157 22.0636
700 2 2.2208 8.08389 21.1722 22.171
555 1 -1.1104 6.76205 14.2141 20.7378
597 1 -1.1104 9.54582 14.3336 20.7407
604 1 -1.1104 9.55484 17.1436 20.7134
516 2 2.2208 -0.268754 12.8813 16.5423
448 2 2.2208 -0.382265 15.6907 19.2989
476 2 2.2208 -0.293166 21.3251 19.2838
725 2 2.2208 -0.383259 15.6647 24.8718
702 2 2.2208 -0.332331 10.0079 24.87
351 2 2.2208 -0.297665 15.6907 13.7592
578 2 2.2208 13.716 1.61411 19.2514
398 2 2.2208 10.8298 7.2444 27.6708
387 2 2.2208 10.8637 1.74917 27.7782
372 2 2.2208 10.8242 21.286 13.7468
376 2 2.2208 7.99786 18.4791 13.7444
371 2 2.2208 5.34511 15.5807 13.7769
405 2 2.2208 2.50538 21.346 27.6912
355 2 2.2208 8.09395 1.64796 13.7401
359 2 2.2208 2.42048 7.3516 13.7784
357 2 2.2208 10.7494 4.42338 13.6706
349 2 2.2208 2.53078 1.6702 13.6905
348 2 2.2208 5.26244 -1.16822 13.7429
370 2 2.2208 13.6003 1.6643 13.6962
751 2 2.2208 5.26826 24.0504 5.34428
752 2 2.2208 5.29674 29.6722 5.22593
753 1 -1.1104 1.07508 25.5461 1.06045
754 1 -1.1104 1.12553 25.484 3.77735
755 1 -1.1104 1.14796 22.7314 1.08221
756 1 -1.1104 1.04704 28.2948 1.08493
757 2 2.2208 5.27813 26.8796 2.50451
758 1 -1.1104 1.1493 22.5679 3.78493
759 1 -1.1104 1.07422 28.2794 3.84548
760 1 -1.1104 3.96045 25.4348 1.13902
761 2 2.2208 2.48151 24.0136 2.44158
762 2 2.2208 2.44804 29.6308 2.44605
763 1 -1.1104 3.88675 25.5364 3.90318
764 2 2.2208 2.4777 26.8742 5.31183
765 1 -1.1104 3.92927 22.6254 1.07552
766 1 -1.1104 3.77415 28.3638 1.13063
767 1 -1.1104 3.99247 22.715 3.79872
768 1 -1.1104 3.79221 28.3652 3.94769
895 1 -1.1104 1.047 28.1405 6.60548
896 1 -1.1104 6.72489 22.7152 6.7398
776 1 -1.1104 6.83345 22.6327 4.05309
774 1 -1.1104 6.73806 22.7911 1.26403
899 1 -1.1104 3.98891 22.6876 6.68794
773 1 -1.1104 6.77702 25.4691 3.90293
893 1 -1.1104 6.67317 25.4701 6.7398
772 1 -1.1104 6.68789 25.5478 1.16169
777 1 -1.1104 6.6731 28.2918 3.86739
898 1 -1.1104 3.88032 25.4417 6.76656
1114 2 2.2208 5.3652 24.0199 -0.264268
1071 2 2.2208 13.6105 29.6604 8.15225
775 1 -1.1104 6.55757 28.3175 1.1167
778 2 2.2208 10.9351 24.0753 5.36391
779 2 2.2208 10.8772 29.6565 5.30599
780 1 -1.1104 12.2059 25.5747 1.0303
781 1 -1.1104 12.3717 25.4144 3.81956
782 1 -1.1104 12.2546 22.6498 1.06144
783 1 -1.1104 12.2609 28.3595 1.14589
784 2 2.2208 10.9131 26.9312 2.52101
785 1 -1.1104 12.4314 22.6333 3.92241
786 1 -1.1104 12.2677 28.2717 3.95556
787 1 -1.1104 9.44768 25.4843 0.981655
788 2 2.2208 8.19394 24.0856 2.4971
789 2 2.2208 8.0351 29.8347 2.50165
790 1 -1.1104 9.53742 25.5098 3.96357
791 2 2.2208 8.05096 26.8113 5.35022
792 1 -1.1104 9.53077 22.6823 1.13612
793 1 -1.1104 9.51217 28.3313 1.18478
794 1 -1.1104 9.57058 22.7189 3.92325
795 1 -1.1104 9.46881 28.272 3.90437
928 1 -1.1104 9.44923 25.5092 6.83275
930 1 -1.1104 9.49696 28.2564 6.79138
925 1 -1.1104 12.1654 25.5744 6.67794
1046 1 -1.1104 9.45647 39.574 12.1293
821 2 2.2208 -0.179218 38.0904 2.5473
796 2 2.2208 13.7144 24.0714 2.496
1102 2 2.2208 -0.264065 43.7317 13.6104
1126 2 2.2208 10.8718 29.6858 -0.314422
799 2 2.2208 5.35697 35.2857 5.29371
800 1 -1.1104 1.11471 31.0936 1.09813
801 1 -1.1104 1.03259 36.7101 1.19803
803 1 -1.1104 1.0983 31.0923 3.90553
804 1 -1.1104 1.34954 36.7107 3.9026
806 1 -1.1104 1.13064 33.855 1.07476
807 2 2.2208 5.23033 32.577 2.44056
808 2 2.2208 5.34095 38.2388 2.41824
809 1 -1.1104 1.10233 33.8946 4.03885
811 1 -1.1104 3.92271 31.1486 1.03376
812 1 -1.1104 3.86288 36.6932 0.985855
813 2 2.2208 2.52712 35.2729 2.53814
814 1 -1.1104 3.92777 31.0981 3.91303
815 1 -1.1104 4.07381 36.8109 3.79239
816 2 2.2208 2.48857 32.4419 5.36031
817 2 2.2208 2.53939 38.1921 5.2764
818 1 -1.1104 3.89615 33.9425 1.07117
819 1 -1.1104 3.87699 33.9138 3.84945
949 1 -1.1104 1.01735 31.0654 6.75183
950 1 -1.1104 1.18737 36.7775 6.57858
953 1 -1.1104 1.1006 33.9398 6.81406
823 1 -1.1104 6.72836 31.2974 1.07574
810 1 -1.1104 6.65709 33.8883 3.89251
824 1 -1.1104 6.63018 31.1761 3.90867
805 1 -1.1104 6.75122 36.7108 3.86653
957 1 -1.1104 3.87718 33.9165 6.63559
952 1 -1.1104 6.82587 36.7015 6.66227
825 1 -1.1104 6.70035 34.052 1.10005
955 1 -1.1104 3.78929 31.2103 6.80058
956 1 -1.1104 3.97388 36.8253 6.60207
869 2 2.2208 -0.242053 43.7416 2.37014
870 2 2.2208 -0.307374 46.6234 5.14398
871 2 2.2208 -0.289617 40.9282 5.21963
802 1 -1.1104 6.6905 36.8296 1.12579
826 2 2.2208 10.8963 35.3257 5.30823
827 1 -1.1104 12.1967 31.1196 1.18328
828 1 -1.1104 12.3052 36.6931 1.11226
829 1 -1.1104 12.3416 31.0187 3.8814
830 1 -1.1104 12.2566 36.6937 3.8687
831 1 -1.1104 12.2057 33.9454 1.17608
832 2 2.2208 10.8798 32.5132 2.56648
833 2 2.2208 10.9176 38.0958 2.44437
834 1 -1.1104 12.2927 33.8727 3.93333
835 1 -1.1104 9.49112 31.1555 1.15496
836 1 -1.1104 9.42537 36.6693 0.940791
837 2 2.2208 8.06756 35.3277 2.48698
838 1 -1.1104 9.45452 31.0542 3.81419