ITEM: TIMESTEP
10000
ITEM: NUMBER OF ATOMS
17730
ITEM: BOX BOUNDS pp pp pp
-3.6669543144640027e-01 2.7706695431446398e+01
-4.4396885000784323e+00 3.3251968850008262e+02
-3.6327545351584856e-01 2.7703275453515552e+01
ITEM: ATOMS id type q x y z
1 2 2.2208 5.16817 1.34376 5.29364
2 1 -1.1104 1.05466 -3.00169 0.950768
3 1 -1.1104 0.999546 2.41791 0.963644
6 1 -1.1104 1.1119 -3.11981 3.80409
7 1 -1.1104 1.15511 2.55274 3.67351
10 1 -1.1104 1.03893 -0.342128 0.947841
12 2 2.2208 5.3736 -1.54101 2.40226
14 1 -1.1104 0.984439 -0.343925 3.82709
16 1 -1.1104 4.01253 -2.97184 0.997694
17 1 -1.1104 3.95729 2.44772 0.996001
18 2 2.2208 2.40677 0.951179 2.41835
19 1 -1.1104 3.91014 -3.07158 3.80812
20 1 -1.1104 3.79674 2.66742 3.80337
21 2 2.2208 2.42107 -1.59673 5.14618
23 1 -1.1104 3.74882 -0.382801 1.02336
24 1 -1.1104 3.84642 -0.150561 3.83335
13 2 2.2208 5.29124 3.95537 2.28012
5 1 -1.1104 6.67079 2.51998 1.07415
22 2 2.2208 2.41074 3.98686 5.12023
11 1 -1.1104 6.48142 -0.146123 1.0124
8 1 -1.1104 6.74559 -2.74885 3.79757
15 1 -1.1104 6.72043 -0.062179 3.94665
172 1 -1.1104 4.12394 -2.84667 6.54406
166 1 -1.1104 1.16833 -2.86645 6.6229
171 1 -1.1104 6.64234 -0.109356 6.65134
83 2 2.2208 -0.383148 12.4672 5.05147
9004 2 2.2208 2.38941 -4.43083 2.39701
4 1 -1.1104 6.52933 -3.06612 0.910137
9007 2 2.2208 7.99994 -4.35243 2.40714
9005 2 2.2208 5.37136 -4.32006 5.15029
9 1 -1.1104 6.47045 2.73066 3.82933
31 2 2.2208 10.8964 1.20504 5.2588
32 1 -1.1104 12.2311 -2.9408 1.02939
33 1 -1.1104 12.1861 2.56887 1.13492
34 1 -1.1104 12.2051 -3.11677 3.83714
35 1 -1.1104 12.2215 2.50147 3.87654
36 1 -1.1104 12.3054 -0.258439 1.0331
37 2 2.2208 10.8579 -1.60071 2.41851
38 2 2.2208 10.7367 3.93144 2.51712
39 1 -1.1104 12.3887 -0.245946 3.76976
40 1 -1.1104 9.45754 -2.9851 1.00496
41 1 -1.1104 9.38228 2.55135 1.10743
42 2 2.2208 8.01798 1.1788 2.48247
43 1 -1.1104 9.39115 -3.08856 3.84405
44 1 -1.1104 9.35291 2.42485 4.00498
45 2 2.2208 8.19208 -1.61917 5.30853
46 2 2.2208 8.04589 4.07724 5.20154
47 1 -1.1104 9.42739 -0.229181 1.13048
48 1 -1.1104 9.50387 -0.291468 3.79121
208 1 -1.1104 9.49386 -3.07223 6.77554
207 1 -1.1104 12.3096 -0.18028 6.58497
9014 2 2.2208 10.8551 -4.3324 10.7448
206 1 -1.1104 12.1291 2.57636 6.73999
209 1 -1.1104 9.45544 2.80938 6.75358
205 1 -1.1104 12.3355 -3.04504 6.63511
54 2 2.2208 5.26294 6.75423 5.19736
55 2 2.2208 5.29676 12.3542 5.21321
56 1 -1.1104 1.21953 8.32197 0.959059
58 1 -1.1104 0.980382 8.11248 3.84417
60 1 -1.1104 1.08972 5.3153 1.02438
61 1 -1.1104 1.30138 10.996 0.942588
66 2 2.2208 5.20521 9.60464 2.48833
67 1 -1.1104 1.01657 5.33279 3.77453
68 1 -1.1104 1.16886 10.9505 3.82997
71 1 -1.1104 3.93104 8.11778 1.05047
72 2 2.2208 2.50201 6.74749 2.35098
73 2 2.2208 2.50023 12.3762 2.4732
74 1 -1.1104 3.90265 8.14478 3.963
75 2 2.2208 2.44688 9.60388 5.21549
76 1 -1.1104 3.8714 5.22795 0.983269
77 1 -1.1104 3.97553 11.116 0.910751
79 1 -1.1104 3.76981 5.33888 3.7118
80 1 -1.1104 4.01455 10.9739 3.9229
62 1 -1.1104 1.12722 11.0564 6.61782
78 1 -1.1104 3.80401 10.9626 6.62641
238 1 -1.1104 3.86911 8.09484 6.70441
69 1 -1.1104 6.70292 5.53238 3.86739
70 1 -1.1104 6.75434 11.1192 3.86671
65 1 -1.1104 6.65619 11.0154 6.70537
235 1 -1.1104 6.66548 8.16763 6.65582
239 1 -1.1104 3.73144 5.38765 6.64385
237 1 -1.1104 6.69081 5.47433 6.62011
236 1 -1.1104 0.895296 5.51512 6.78603
316 2 2.2208 7.94934 20.6906 10.8564
357 2 2.2208 2.45242 18.0968 13.5446
9008 2 2.2208 10.7339 -4.36311 5.31252
319 1 -1.1104 9.39 13.7199 9.46731
323 1 -1.1104 12.1146 16.6004 9.3238
59 1 -1.1104 6.7589 8.35189 3.80526
64 1 -1.1104 6.76287 11.1106 1.07051
57 1 -1.1104 6.6057 8.13152 1.02148
63 1 -1.1104 6.67464 5.43211 1.03319
84 2 2.2208 11.0035 6.69017 5.24389
85 2 2.2208 10.9224 12.271 5.17881
86 1 -1.1104 12.217 8.35515 0.756307
87 1 -1.1104 12.3521 8.07978 3.76964
88 1 -1.1104 12.2814 5.47765 1.05653
89 1 -1.1104 12.3407 11.07 0.872124
91 2 2.2208 10.9129 9.59485 2.29053
92 1 -1.1104 12.2941 5.27328 3.87805
93 1 -1.1104 12.3476 10.9681 3.64753
94 1 -1.1104 9.49309 8.26451 1.06269
95 2 2.2208 8.03164 6.86118 2.42462
96 2 2.2208 8.18205 12.4339 2.40494
97 1 -1.1104 9.53224 8.26036 3.81584
98 2 2.2208 8.11252 9.56973 5.25476
99 1 -1.1104 9.35334 5.41835 1.09147
100 1 -1.1104 9.49509 11.0116 0.918504
102 1 -1.1104 9.47734 5.42473 3.77141
103 1 -1.1104 9.53277 11.0816 3.90893
266 1 -1.1104 12.4101 5.3829 6.80842
267 1 -1.1104 9.56961 8.15223 6.72573
101 1 -1.1104 9.57844 10.8342 6.63901
90 1 -1.1104 12.4496 11.0033 6.59631
265 1 -1.1104 12.4722 8.08559 6.53417
82 2 2.2208 -0.288176 9.63199 2.35597
9011 2 2.2208 5.32446 -4.41939 10.8785
106 2 2.2208 5.13721 18.0474 5.0904
107 1 -1.1104 1.0857 13.7093 1.03132
109 1 -1.1104 0.980874 19.3412 1.05969
113 1 -1.1104 1.25677 13.6947 3.72012
114 1 -1.1104 1.13743 19.3733 3.77789
116 1 -1.1104 1.12765 16.6245 0.947316
119 2 2.2208 5.37897 15.1421 2.30981
120 2 2.2208 5.23173 20.8308 2.34587
121 1 -1.1104 0.974657 16.6066 3.69753
123 1 -1.1104 3.92204 13.7937 0.937443
125 1 -1.1104 3.87158 19.5742 1.03014
127 2 2.2208 2.38724 18.0183 2.34242
128 1 -1.1104 3.92961 13.9183 3.76238
129 1 -1.1104 3.78674 19.502 3.75401
130 2 2.2208 2.53128 15.1466 5.07688
131 2 2.2208 2.45676 20.8267 5.15052
132 1 -1.1104 4.00623 16.607 1.01039
134 1 -1.1104 3.7977 16.6364 3.73733
139 1 -1.1104 6.58975 19.5388 3.89811
117 1 -1.1104 0.938996 16.5503 6.39762
124 1 -1.1104 3.91465 13.7292 6.63301
126 1 -1.1104 3.70285 19.2405 6.50247
133 1 -1.1104 3.74674 16.5335 6.4509
108 1 -1.1104 1.0704 13.6652 6.44979
140 1 -1.1104 6.81102 16.4812 0.918261
111 1 -1.1104 6.66735 13.6922 6.46743
9012 2 2.2208 -0.274179 -4.37027 10.9189
302 1 -1.1104 0.96681 19.3473 6.536
138 1 -1.1104 6.81428 19.5801 1.12948
115 1 -1.1104 6.80724 13.9127 3.56264
122 1 -1.1104 6.71383 16.7638 3.6853
110 1 -1.1104 6.84448 13.836 0.824662
141 2 2.2208 10.923 18.0026 5.188
142 1 -1.1104 12.4532 13.7917 0.967741
144 1 -1.1104 12.349 19.523 1.08615
146 1 -1.1104 12.2374 13.9059 3.92939
147 1 -1.1104 12.1526 19.498 3.75106
148 1 -1.1104 12.4327 16.6394 0.920832
150 2 2.2208 10.9503 15.259 2.42934
151 2 2.2208 10.8931 20.8239 2.47071
152 1 -1.1104 12.2821 16.646 3.84792
153 1 -1.1104 9.72084 13.9413 0.853163
155 1 -1.1104 9.56456 19.3493 0.884097
157 2 2.2208 8.15205 18.066 2.24686
158 1 -1.1104 9.52763 13.8427 3.74149
159 1 -1.1104 9.38691 19.3782 3.63929
160 2 2.2208 8.12856 15.1981 5.12326
161 2 2.2208 8.09767 20.7362 5.13922
162 1 -1.1104 9.62774 16.6305 1.01975
164 1 -1.1104 9.57659 16.4829 3.92857
145 1 -1.1104 12.2096 19.3707 6.65794
112 1 -1.1104 6.73249 19.3317 6.60864
143 1 -1.1104 12.2519 13.7781 6.57315
289 1 -1.1104 6.61164 16.4935 9.46153
156 1 -1.1104 9.59967 19.3468 6.50212
163 1 -1.1104 9.48942 16.6167 6.57117
149 1 -1.1104 12.2896 16.6205 6.61176
154 1 -1.1104 9.54348 13.5948 6.58721
118 1 -1.1104 6.52196 16.475 6.42714
229 2 2.2208 13.6722 1.15212 8.09394
167 1 -1.1104 0.98489 2.7551 6.49801
173 1 -1.1104 3.86968 2.63156 6.52623
315 1 -1.1104 9.41916 16.6209 12.3372
320 2 2.2208 8.08431 17.9304 7.92242
170 1 -1.1104 1.01511 -0.125046 6.6256
174 1 -1.1104 3.79861 -0.244109 6.66744
175 2 2.2208 5.39131 1.13859 10.8307
176 1 -1.1104 1.07552 -2.93888 12.2851
177 1 -1.1104 1.0276 2.66264 12.2983
180 1 -1.1104 1.06602 -2.989 9.58182
181 1 -1.1104 0.96259 2.70991 9.37136
184 1 -1.1104 1.05938 -0.157367 12.3134
186 2 2.2208 5.39697 -1.48456 7.89706
187 2 2.2208 5.23034 3.98716 8.13932
188 1 -1.1104 0.908554 -0.0379482 9.41883
190 1 -1.1104 3.96586 -2.92279 12.2615
191 1 -1.1104 3.818 2.5529 12.1754
192 2 2.2208 2.43404 1.23467 8.07923
193 1 -1.1104 3.7966 -3.0768 9.53425
194 1 -1.1104 3.84275 2.72273 9.45928
195 2 2.2208 2.49807 -1.5529 10.8513
196 2 2.2208 2.36743 4.09669 10.9045
197 1 -1.1104 3.83526 -0.149863 12.3759
198 1 -1.1104 3.84012 -0.192123 9.60264
185 1 -1.1104 6.6679 -0.0934872 12.318
183 1 -1.1104 6.78535 2.50533 9.6234
169 1 -1.1104 6.71116 2.52856 6.79596
168 1 -1.1104 6.88244 -3.01789 6.70158
178 1 -1.1104 6.78988 -3.00758 12.2911
189 1 -1.1104 6.77286 -0.217746 9.44603
179 1 -1.1104 6.78502 2.60071 12.2615
233 2 2.2208 13.7049 4.05732 5.30521
353 2 2.2208 2.45191 12.359 13.6746
296 1 -1.1104 6.69057 19.3696 12.4024
27 2 2.2208 -0.282072 3.98679 2.39983
182 1 -1.1104 6.65095 -3.09637 9.53132
210 1 -1.1104 9.55595 -0.193477 6.57687
211 2 2.2208 10.8769 1.27889 10.8819
212 1 -1.1104 12.3941 -3.10087 12.1727
213 1 -1.1104 12.4338 2.68737 12.1762
214 1 -1.1104 12.2299 -3.00355 9.40588
215 1 -1.1104 12.2437 2.62062 9.42705
216 1 -1.1104 12.2636 -0.178951 12.2436
217 2 2.2208 10.9045 -1.57601 8.09891
218 2 2.2208 10.926 4.06767 8.08545
219 1 -1.1104 12.3123 -0.158813 9.50122
220 1 -1.1104 9.56301 -2.89798 12.321
221 1 -1.1104 9.43596 2.69001 12.3522
222 2 2.2208 8.16388 1.38059 8.15047
223 1 -1.1104 9.41313 -3.1159 9.51367
224 1 -1.1104 9.50062 2.74692 9.56462
225 2 2.2208 8.11547 -1.60293 10.8094
226 2 2.2208 8.11631 4.08688 10.8297
227 1 -1.1104 9.52263 -0.07854 12.1746
228 1 -1.1104 9.45609 -0.103785 9.44674
290 1 -1.1104 6.54157 13.7184 9.41188
322 1 -1.1104 9.47162 13.7965 12.2302
234 1 -1.1104 1.12806 8.27582 6.59802
240 2 2.2208 5.19135 6.92751 10.857
241 2 2.2208 5.13706 12.3769 10.864
242 1 -1.1104 1.16062 8.19724 12.2671
244 1 -1.1104 0.960186 8.32293 9.4812
246 1 -1.1104 0.974258 5.31282 12.2997
247 1 -1.1104 1.04278 10.8559 12.3389
250 2 2.2208 5.30072 9.50443 8.12147
251 1 -1.1104 1.07427 5.41332 9.53884
252 1 -1.1104 0.969927 11.0316 9.47967
255 1 -1.1104 3.91806 8.12135 12.2969
256 2 2.2208 2.55698 6.75516 8.10517
257 2 2.2208 2.47585 12.442 8.0012
258 1 -1.1104 3.78406 8.26733 9.44988
259 2 2.2208 2.4247 9.56658 10.8853
260 1 -1.1104 3.64577 5.39801 12.2
261 1 -1.1104 3.91201 11.0658 12.3378
262 1 -1.1104 3.88689 5.51222 9.57833
263 1 -1.1104 3.73564 11.0446 9.37539
243 1 -1.1104 6.63669 8.35635 12.4645
245 1 -1.1104 6.74622 8.21561 9.45311
248 1 -1.1104 6.57439 5.48769 12.288
249 1 -1.1104 6.73399 11.1481 12.3333
9010 2 2.2208 2.66462 -4.42667 8.0678
359 2 2.2208 4.99393 15.2405 13.657
328 1 -1.1104 12.146 13.8541 9.50212
231 2 2.2208 13.5917 20.8283 5.24288
370 2 2.2208 8.06542 -1.65089 -0.331312
321 1 -1.1104 9.39234 19.4226 12.3365
253 1 -1.1104 6.69708 5.35725 9.36834
254 1 -1.1104 6.65539 10.9571 9.58994
269 1 -1.1104 9.56439 5.44703 6.57521
264 1 -1.1104 9.27994 10.9508 9.5075
268 1 -1.1104 9.49401 5.45728 9.36088
270 1 -1.1104 9.46929 11.1911 12.3739
271 1 -1.1104 9.50105 5.4746 12.1325
272 2 2.2208 8.05486 9.52239 10.899
273 1 -1.1104 9.60593 8.24766 9.38329
274 2 2.2208 8.0761 12.3606 8.01861
275 2 2.2208 8.07078 6.92151 8.01531
276 2 2.2208 10.9668 6.84336 10.7673
277 2 2.2208 10.9193 12.4633 10.7877
278 1 -1.1104 12.4053 8.25506 12.2486
279 1 -1.1104 12.3488 8.49337 9.40917
280 1 -1.1104 12.2336 5.44121 12.158
281 1 -1.1104 12.2432 10.9834 12.1247
282 2 2.2208 10.8953 9.72803 8.10614
283 1 -1.1104 12.3041 5.52302 9.49481
284 1 -1.1104 12.3263 11.1231 9.38457
285 1 -1.1104 9.55623 8.16762 12.25
49 2 2.2208 13.6469 1.26915 2.53399
325 2 2.2208 10.8107 15.1775 8.06597
314 1 -1.1104 9.37176 16.4636 9.33547
50 2 2.2208 13.6342 -1.55197 5.19552
358 2 2.2208 5.37479 20.8405 13.5441
288 1 -1.1104 6.54674 19.2808 9.46059
309 2 2.2208 2.40402 20.8499 10.7476
299 1 -1.1104 1.0288 13.7421 12.2533
298 1 -1.1104 1.07258 19.4594 12.1059
310 2 2.2208 2.31656 15.1479 10.7895
295 2 2.2208 5.15509 15.1365 8.00293
308 1 -1.1104 3.66406 16.4433 12.1911
301 1 -1.1104 3.81821 19.4132 9.26008
300 2 2.2208 5.1628 17.8411 10.7566
307 1 -1.1104 0.912208 16.5225 12.2085
305 1 -1.1104 3.73642 13.868 9.40524
294 1 -1.1104 0.918357 13.7694 9.28069
303 2 2.2208 2.35401 17.9702 7.92248
304 1 -1.1104 3.67174 16.6045 9.32583
286 1 -1.1104 3.88507 19.3783 12.0341
287 1 -1.1104 3.71277 13.7575 12.2437
291 1 -1.1104 0.993671 19.3228 9.35967
292 1 -1.1104 0.887862 16.5148 9.31488
293 2 2.2208 5.35029 20.8194 7.94998
333 2 2.2208 13.6829 15.2642 10.7255
312 2 2.2208 -0.358635 17.9453 10.8413
306 1 -1.1104 6.4013 16.6851 12.3057
200 2 2.2208 -0.308073 -1.60588 8.02539
329 1 -1.1104 12.2082 19.4244 12.4593
330 1 -1.1104 12.2718 13.907 12.2857
318 1 -1.1104 9.37662 19.3768 9.33239
297 1 -1.1104 6.54062 13.7094 12.231
331 2 2.2208 10.7645 18.0737 10.8417
326 1 -1.1104 12.137 16.6794 12.0658
317 2 2.2208 7.9337 15.0994 10.7759
324 2 2.2208 10.8861 20.6935 8.0987
327 1 -1.1104 12.1601 19.4273 9.4855
201 2 2.2208 -0.332704 1.25248 10.8519
136 2 2.2208 -0.373389 20.8175 2.35918
230 2 2.2208 13.6506 -1.56448 10.853
25 2 2.2208 -0.37371 -1.592 2.31336
204 2 2.2208 13.6349 15.2446 5.2465
332 2 2.2208 13.5672 18.0751 8.05362
81 2 2.2208 -0.387666 6.95889 5.21691
53 2 2.2208 13.7036 12.4786 8.0386
335 2 2.2208 -0.368134 20.7009 13.5631
356 2 2.2208 8.01316 12.4786 13.6507
343 2 2.2208 7.92001 1.11762 13.5891
369 2 2.2208 10.7762 1.19701 -0.313062
9019 2 2.2208 10.8032 -4.33644 -0.306997
373 2 2.2208 2.57368 15.1698 -0.312471
374 2 2.2208 5.22539 18.0893 -0.411625
346 2 2.2208 10.8609 -1.4889 13.6233
384 2 2.2208 10.9857 6.86157 -0.455394
379 2 2.2208 5.22419 6.68102 -0.419857
350 2 2.2208 10.9219 4.10326 13.5339
351 2 2.2208 2.4145 6.79567 13.6684
378 2 2.2208 13.7075 3.85096 -0.397492
388 2 2.2208 5.3296 1.22866 16.4709
389 1 -1.1104 0.918685 -2.92278 17.7833
390 1 -1.1104 1.01912 2.50349 18.0661
393 1 -1.1104 1.02712 -3.06103 15.0633
395 1 -1.1104 1.15441 2.55393 15.1852
401 1 -1.1104 1.07525 -0.290057 18.0557
403 2 2.2208 5.29806 -1.56662 19.3402
404 2 2.2208 4.98801 4.09268 19.2463
405 1 -1.1104 0.994183 -0.261832 15.1197
409 1 -1.1104 3.72034 -2.91075 17.9523
410 1 -1.1104 3.67018 2.60093 17.9304
411 2 2.2208 2.37502 1.17948 19.4119
412 1 -1.1104 3.83897 -3.01824 15.203
414 1 -1.1104 3.95822 2.59706 15.1134
416 2 2.2208 2.50604 -1.64464 16.5463
417 2 2.2208 2.44598 4.10633 16.4236
418 1 -1.1104 3.75903 -0.189824 17.9116
419 1 -1.1104 3.74134 -0.162236 15.1325
9138 2 2.2208 8.00702 -4.23629 19.3647
399 1 -1.1104 6.74248 2.62697 15.1315
392 1 -1.1104 6.66638 2.6814 18.0377
391 1 -1.1104 6.73372 -2.92196 17.9035
461 2 2.2208 13.7092 20.8104 22.06
408 1 -1.1104 6.65506 -0.191252 20.626
368 2 2.2208 -0.346313 1.18563 27.6648
9168 2 2.2208 2.24691 -4.29686 19.2836
407 1 -1.1104 6.47178 -0.124874 15.0521
397 1 -1.1104 6.63144 -2.88531 15.0802
9140 2 2.2208 13.6377 -4.36167 19.2404
402 1 -1.1104 6.63681 -0.143174 17.7742
431 2 2.2208 10.8758 1.30592 16.4488
432 1 -1.1104 12.2603 -2.79015 17.6976
433 1 -1.1104 12.4466 2.52537 17.9899
434 1 -1.1104 12.2109 -3.00294 14.9962
436 1 -1.1104 12.3361 2.67129 15.1218
438 1 -1.1104 12.251 -0.216111 17.9524
439 2 2.2208 10.8166 -1.45762 19.2573
440 2 2.2208 10.9669 3.90557 19.0925
441 1 -1.1104 12.3364 -0.179997 15.0501
443 1 -1.1104 9.46523 -3.00282 17.7614
444 1 -1.1104 9.52967 2.60836 17.7614
445 2 2.2208 8.07087 1.42728 19.3165
446 1 -1.1104 9.49011 -2.90459 14.949
448 1 -1.1104 9.50992 2.66534 14.9353
450 2 2.2208 8.02135 -1.59097 16.4833
451 2 2.2208 8.1784 4.10258 16.4568
452 1 -1.1104 9.49566 -0.16783 17.9933
453 1 -1.1104 9.40944 -0.0803838 15.048
458 2 2.2208 -0.389518 20.8552 19.269
435 1 -1.1104 12.2857 -3.00996 20.6163
437 1 -1.1104 12.3474 2.51547 20.6855
447 1 -1.1104 9.44848 -2.92297 20.6083
454 1 -1.1104 9.41841 -0.119698 20.6752
398 1 -1.1104 6.53884 -2.91037 20.5228
363 2 2.2208 13.6463 17.9686 13.7277
9137 2 2.2208 -0.331792 -4.36957 22.1677
464 2 2.2208 5.13429 6.88575 16.3911
465 2 2.2208 5.12312 12.3312 16.5479
466 1 -1.1104 0.994545 8.2179 17.7946
468 1 -1.1104 0.996427 8.2743 15.1237
472 1 -1.1104 1.06156 5.40773 17.9499
473 1 -1.1104 1.02654 11.0466 17.9467
476 2 2.2208 5.17054 9.64376 19.3315
477 1 -1.1104 1.0456 5.35244 15.2161
479 1 -1.1104 0.987622 10.9593 15.2037
485 1 -1.1104 3.80806 8.27775 17.8628
486 2 2.2208 2.46587 6.90198 19.3766
487 2 2.2208 2.46134 12.4373 19.3966
488 1 -1.1104 3.73291 8.15836 15.165
490 2 2.2208 2.38292 9.59655 16.5153
491 1 -1.1104 3.83674 5.59624 17.8049
492 1 -1.1104 3.64509 10.8519 18.0382
493 1 -1.1104 3.80741 5.37421 15.1043
495 1 -1.1104 3.75571 10.9138 15.183
470 1 -1.1104 6.5582 8.29914 15.1009
469 1 -1.1104 1.04249 8.31308 20.7262
467 1 -1.1104 6.85713 8.21098 17.8933
494 1 -1.1104 3.85877 5.50702 20.7385
489 1 -1.1104 3.8417 8.35086 20.7323
480 1 -1.1104 1.05049 11.0195 20.7871
484 1 -1.1104 6.56987 10.7945 20.7222
482 1 -1.1104 6.6724 5.17439 20.74
9103 2 2.2208 5.28098 -4.41953 22.0909
483 1 -1.1104 6.5917 11.0182 15.2781
481 1 -1.1104 6.51041 5.52101 15.012
474 1 -1.1104 6.6005 5.40696 17.9787
475 1 -1.1104 6.53331 10.9661 17.8307
500 2 2.2208 10.8006 6.81094 16.522
501 2 2.2208 10.8439 12.4086 16.4208
502 1 -1.1104 12.3016 8.23989 17.7679
503 1 -1.1104 12.2616 8.03817 15.0659
505 1 -1.1104 12.3468 5.42597 17.7925
506 1 -1.1104 12.4113 10.9642 17.8651
507 2 2.2208 10.9633 9.702 19.2512
508 1 -1.1104 12.3775 5.33313 14.9434
510 1 -1.1104 12.2884 11.0278 15.0483
512 1 -1.1104 9.59567 8.25682 17.8614
513 2 2.2208 8.06893 6.66116 19.2647
514 2 2.2208 8.05943 12.3416 19.4351
515 1 -1.1104 9.42275 8.27895 15.048
517 2 2.2208 8.11573 9.57667 16.4428
518 1 -1.1104 9.55741 5.34897 17.9513
519 1 -1.1104 9.40401 11.0484 17.8825
520 1 -1.1104 9.40667 5.40939 15.0205
522 1 -1.1104 9.38499 11.0273 15.128
523 1 -1.1104 9.3504 10.9121 20.7329
471 1 -1.1104 6.58793 8.06734 20.6944
525 2 2.2208 10.8849 15.2139 25.0052
9099 2 2.2208 8.06353 -4.33215 24.7703
380 2 2.2208 2.5043 9.58501 27.6602
521 1 -1.1104 9.43752 5.27176 20.692
511 1 -1.1104 12.2725 11.1233 20.674
516 1 -1.1104 9.68477 8.04479 20.4995
527 2 2.2208 5.26488 18.0875 16.3587
528 1 -1.1104 1.06569 13.8075 17.8039
529 1 -1.1104 1.08077 19.4168 17.8786
532 1 -1.1104 0.872846 13.6683 15.0527
534 1 -1.1104 0.974423 19.5249 15.0254
540 1 -1.1104 0.933939 16.5817 17.7229
542 2 2.2208 5.29369 15.2575 19.1675
543 2 2.2208 5.14011 20.8222 19.2452
544 1 -1.1104 0.951848 16.6281 14.9702
548 1 -1.1104 3.86357 13.8944 17.8377
549 1 -1.1104 3.84245 19.5978 17.9027
550 2 2.2208 2.56983 17.9907 19.113
551 1 -1.1104 3.7619 13.7589 15.1093
553 1 -1.1104 3.90913 19.4141 15.0082
555 2 2.2208 2.40762 15.2215 16.3852
556 2 2.2208 2.45361 20.9369 16.4091
557 1 -1.1104 3.88668 16.7241 17.735
558 1 -1.1104 3.61643 16.6141 15.0115
535 1 -1.1104 1.05589 19.4879 20.64
533 1 -1.1104 1.04509 13.6888 20.6521
536 1 -1.1104 6.43183 13.7204 14.9929
530 1 -1.1104 6.63777 13.7416 17.8626
338 2 2.2208 5.1677 -1.64105 13.7403
554 1 -1.1104 3.7888 19.3621 20.6147
552 1 -1.1104 3.96704 13.8166 20.6362
559 1 -1.1104 3.86084 16.5108 20.5022
545 1 -1.1104 1.06935 16.7576 20.4846
361 2 2.2208 10.8847 15.1417 13.6529
579 1 -1.1104 9.54929 13.8451 20.5469
569 1 -1.1104 12.1975 19.4738 20.8244
541 1 -1.1104 6.57868 16.6714 17.901
531 1 -1.1104 6.63802 19.3476 17.7089
546 1 -1.1104 6.56689 16.5943 15.1794
538 1 -1.1104 6.70673 19.4926 15.0181
563 2 2.2208 10.7762 17.8495 16.5313
564 1 -1.1104 12.3773 13.9307 17.8222
565 1 -1.1104 12.3719 19.5116 18.1161
566 1 -1.1104 12.2513 13.7498 15.0587
568 1 -1.1104 12.2027 19.4787 15.3129
570 1 -1.1104 12.302 16.6024 17.8909
571 2 2.2208 10.8314 15.2107 19.2441
572 2 2.2208 10.9253 20.8483 19.2956
573 1 -1.1104 12.1792 16.544 14.9902
575 1 -1.1104 9.42914 13.7584 17.8001
576 1 -1.1104 9.59001 19.3804 17.9474
577 2 2.2208 8.00742 17.9601 19.2496
578 1 -1.1104 9.3457 13.7285 15.0817
580 1 -1.1104 9.59967 19.4132 15.2411
582 2 2.2208 7.96933 15.0669 16.4365
583 2 2.2208 8.04428 20.8729 16.538
584 1 -1.1104 9.36192 16.4914 17.852
585 1 -1.1104 9.35624 16.5996 15.1293
537 1 -1.1104 6.69157 13.6837 20.6816
539 1 -1.1104 6.51528 19.3548 20.5975
590 1 -1.1104 9.40191 19.3894 26.2527
547 1 -1.1104 6.6326 16.5348 20.5927
581 1 -1.1104 9.24838 19.3194 20.6514
574 1 -1.1104 12.2075 16.7711 20.5801
588 1 -1.1104 6.61158 19.5032 26.3415
415 1 -1.1104 3.69004 2.73382 20.6555
400 1 -1.1104 6.71832 2.45362 20.8949
561 1 -1.1104 9.47714 13.8507 23.4741
406 1 -1.1104 0.913505 -0.291368 20.7606
394 1 -1.1104 0.960505 -3.03852 20.6091
420 1 -1.1104 3.81362 -0.101049 20.645
396 1 -1.1104 0.934875 2.46144 20.7671
413 1 -1.1104 3.76228 -2.87959 20.465
591 2 2.2208 5.14875 1.31972 22.1689
592 1 -1.1104 1.00438 -3.05412 23.3974
593 1 -1.1104 0.943504 2.60462 23.4256
596 1 -1.1104 1.09089 -3.02994 26.2081
597 1 -1.1104 1.0762 2.59476 26.211
600 1 -1.1104 1.16414 -0.257298 23.5667
602 2 2.2208 5.24106 -1.66477 24.8751
603 2 2.2208 5.19617 4.03335 24.9007
604 1 -1.1104 0.909253 -0.313321 26.2572
606 1 -1.1104 3.71092 -3.02498 23.4883
607 1 -1.1104 3.68904 2.7521 23.4839
608 2 2.2208 2.44192 1.14166 24.9264
609 1 -1.1104 3.88217 -3.08189 26.4244
610 1 -1.1104 3.93961 2.51672 26.3447
611 2 2.2208 2.50002 -1.58231 22.0118
612 2 2.2208 2.31334 4.06975 22.1288
613 1 -1.1104 3.95857 -0.226129 23.527
614 1 -1.1104 3.65096 -0.291993 26.2701
599 1 -1.1104 6.77554 2.68815 26.3331
605 1 -1.1104 6.5879 -0.273698 26.1795
595 1 -1.1104 6.55787 2.71137 23.6461
601 1 -1.1104 6.73561 -0.146956 23.52
594 1 -1.1104 6.58303 -2.72603 23.2952
560 1 -1.1104 12.2493 16.7371 26.2817
718 1 -1.1104 6.48783 19.3996 23.6521
442 1 -1.1104 12.16 -0.177103 20.7198
449 1 -1.1104 9.50029 2.68039 20.612
462 2 2.2208 10.873 18.0043 22.1266
617 1 -1.1104 9.51491 16.7231 23.6342
498 1 -1.1104 12.3089 13.8719 26.1763
598 1 -1.1104 6.81056 -3.0546 26.1122
627 2 2.2208 10.8602 1.23702 22.0855
628 1 -1.1104 12.2778 -3.03134 23.4767
629 1 -1.1104 12.3313 2.56212 23.5347
630 1 -1.1104 12.2431 -3.02711 26.3198
631 1 -1.1104 12.2244 2.59885 26.3428
632 1 -1.1104 12.2424 -0.292225 23.453
633 2 2.2208 10.8818 -1.7123 24.899
634 2 2.2208 10.718 4.07222 24.8724
635 1 -1.1104 12.2226 -0.175168 26.2266
636 1 -1.1104 9.49901 -3.0173 23.4418
637 1 -1.1104 9.55637 2.61715 23.4289
638 2 2.2208 8.15902 1.27209 24.9637
639 1 -1.1104 9.49067 -3.14316 26.3039
640 1 -1.1104 9.48179 2.63149 26.2415
641 2 2.2208 8.05674 -1.40816 21.972
642 2 2.2208 8.08915 3.96677 22.0692
643 1 -1.1104 9.49862 -0.253274 23.5075
644 1 -1.1104 9.37446 -0.194229 26.374
354 2 2.2208 7.91239 6.8416 13.6875
9101 2 2.2208 13.6489 -4.38495 24.8949
499 1 -1.1104 12.2117 19.4063 26.2796
616 2 2.2208 7.95735 20.7752 22.1318
526 2 2.2208 10.8057 20.6939 24.8902
478 1 -1.1104 1.05641 5.53476 20.6907
496 1 -1.1104 3.93818 11.0939 20.8545
656 2 2.2208 5.27305 6.79129 22.1806
657 2 2.2208 5.30309 12.4048 22.1484
658 1 -1.1104 1.00867 8.3579 23.416
660 1 -1.1104 1.07003 8.20356 26.3199
662 1 -1.1104 0.952142 5.53189 23.4677
663 1 -1.1104 1.05131 11.1946 23.4599
666 2 2.2208 5.29543 9.60717 24.8089
667 1 -1.1104 0.949984 5.38742 26.3007
668 1 -1.1104 1.01179 10.9413 26.3936
671 1 -1.1104 3.74709 8.28287 23.465
672 2 2.2208 2.55521 6.8074 24.9068
673 2 2.2208 2.54938 12.4915 24.9436
674 1 -1.1104 3.91303 8.27183 26.145
675 2 2.2208 2.46683 9.62736 22.1825
676 1 -1.1104 3.80062 5.45489 23.4535
677 1 -1.1104 3.90526 10.9506 23.5332
678 1 -1.1104 3.83836 5.40327 26.3064
679 1 -1.1104 4.00983 11.039 26.3334
661 1 -1.1104 6.73072 8.18214 26.2559
659 1 -1.1104 6.60317 8.24489 23.4485
665 1 -1.1104 6.65709 11.1152 23.5085
669 1 -1.1104 6.55884 5.31694 26.3611
664 1 -1.1104 6.6888 5.47259 23.6079
366 2 2.2208 2.42515 3.90961 27.6809
9100 2 2.2208 10.8918 -4.30021 22.0481
504 1 -1.1104 12.474 8.30551 20.7017
524 1 -1.1104 12.3433 16.5542 23.4488
589 1 -1.1104 9.53127 13.8597 26.1034
509 1 -1.1104 12.1563 5.3392 20.5109
670 1 -1.1104 6.75884 11.0644 26.2236
687 1 -1.1104 9.38047 10.9756 26.2661
688 1 -1.1104 9.42239 5.52954 26.4406
689 1 -1.1104 9.3133 11.0404 23.3794
690 1 -1.1104 9.36753 5.38387 23.609
691 2 2.2208 8.05854 9.56686 22.1109
692 1 -1.1104 9.46018 8.17804 26.1009
693 2 2.2208 8.09169 12.4509 24.7735
694 2 2.2208 8.04116 6.85139 24.9199
695 2 2.2208 10.9163 6.76665 22.1032
696 2 2.2208 10.8192 12.4646 22.0517
697 1 -1.1104 12.5307 8.16694 23.4616
698 1 -1.1104 12.3214 8.22779 26.1901
699 1 -1.1104 12.2554 5.39156 23.5164
700 1 -1.1104 12.1259 11.0347 23.5652
701 2 2.2208 10.8437 9.55992 24.8832
702 1 -1.1104 12.263 5.30737 26.347
703 1 -1.1104 12.2748 11.1198 26.1574
704 1 -1.1104 9.5224 8.23553 23.3602
621 2 2.2208 -0.310298 6.87268 16.5239
385 2 2.2208 8.01978 9.64 27.6215
375 2 2.2208 2.30866 20.9989 27.6419
622 2 2.2208 -0.294881 9.70907 19.3034
623 2 2.2208 -0.437391 18.0239 22.04
714 1 -1.1104 6.57781 16.8794 26.3256
712 1 -1.1104 6.75106 13.8933 26.1598
720 2 2.2208 5.1695 15.3158 24.7858
647 2 2.2208 2.42814 15.3401 22.0078
649 2 2.2208 2.39992 20.8305 22.0699
652 1 -1.1104 3.70752 16.4675 23.5367
655 1 -1.1104 1.02194 16.8003 23.4059
681 1 -1.1104 3.83485 13.8762 26.232
682 1 -1.1104 3.88422 16.7531 26.2129
683 2 2.2208 2.32518 17.9472 24.9274
686 1 -1.1104 3.7213 19.4685 26.342
705 2 2.2208 5.29419 18.0643 22.0007
706 1 -1.1104 1.03859 14.0176 23.478
707 1 -1.1104 0.928747 19.5807 23.3527
711 1 -1.1104 3.71077 19.3178 23.3568
713 1 -1.1104 3.89284 13.8341 23.387
715 1 -1.1104 0.939848 19.4784 26.2446
716 1 -1.1104 1.09768 16.5325 26.3814
717 1 -1.1104 1.1959 13.6772 26.1946
719 2 2.2208 5.14868 20.867 24.8277
372 2 2.2208 8.04666 4.06674 27.6934
680 1 -1.1104 6.80447 16.6856 23.4192
620 1 -1.1104 9.44027 16.6135 26.2205
341 2 2.2208 5.24051 3.96839 13.7162
463 1 -1.1104 12.365 13.8345 23.5214
587 2 2.2208 7.96097 18.0324 24.9266
586 1 -1.1104 9.45062 16.4899 20.7205
567 1 -1.1104 12.1522 13.8157 20.5959
497 1 -1.1104 12.299 19.4666 23.6444
562 1 -1.1104 9.39359 19.484 23.4531
457 2 2.2208 -0.371161 15.404 19.2168
615 2 2.2208 8.12926 15.2672 22.0196
709 1 -1.1104 6.63579 14.0438 23.424
360 2 2.2208 10.8884 20.7585 13.8066
619 2 2.2208 13.5907 15.2692 16.4634
650 2 2.2208 13.7319 12.4741 19.2206
654 2 2.2208 13.658 1.16945 24.85
648 2 2.2208 -0.422399 12.3923 16.5334
334 2 2.2208 -0.347354 -1.5447 13.6139
685 2 2.2208 -0.280358 12.5814 22.1366
423 2 2.2208 13.5476 3.88285 22.1197
684 2 2.2208 -0.417426 9.67646 24.7983
460 2 2.2208 13.5564 20.9966 16.4813
626 2 2.2208 -0.32062 4.02474 24.8625
371 2 2.2208 -0.345081 18.0966 27.7017
9031 2 2.2208 2.49762 -4.36404 13.6442
349 2 2.2208 8.05882 20.9078 27.716
348 2 2.2208 10.9855 18.0017 27.6978
347 2 2.2208 8.12018 15.2488 27.511
376 2 2.2208 13.6926 12.2611 13.6126
9027 2 2.2208 8.14541 -4.38565 13.6591
382 2 2.2208 -0.279217 12.3906 27.648
355 2 2.2208 10.9407 9.67231 13.6985
352 2 2.2208 5.26209 9.64353 13.8586
381 2 2.2208 5.34976 12.474 27.6229
362 2 2.2208 8.01305 17.9855 13.6681
365 2 2.2208 2.39033 -1.7776 27.6767
339 2 2.2208 2.43032 1.11595 13.7738
364 2 2.2208 5.15975 1.04044 27.6342
386 2 2.2208 10.8997 12.4448 27.5797
367 2 2.2208 -0.363287 9.5319 13.7466
721 2 2.2208 5.35637 23.5076 5.2019
722 2 2.2208 5.16463 29.2926 5.19159
723 1 -1.1104 0.866506 24.9521 0.974816
724 1 -1.1104 1.03727 24.9132 3.728
725 1 -1.1104 1.0046 22.2028 0.975796
726 1 -1.1104 1.03695 27.8105 1.03695
727 2 2.2208 5.12928 26.4281 2.36125
728 1 -1.1104 0.998719 22.2268 3.72689
729 1 -1.1104 1.1773 27.8163 3.88528
730 1 -1.1104 3.71706 24.9959 0.896818
731 2 2.2208 2.46542 23.6744 2.38432
732 2 2.2208 2.36947 29.3016 2.29221
733 1 -1.1104 3.87126 24.9023 3.78952
734 2 2.2208 2.4717 26.2992 5.22201
735 1 -1.1104 3.84432 22.418 1.00111
736 1 -1.1104 3.77561 27.929 0.987357
737 1 -1.1104 3.88277 22.2634 3.82865
738 1 -1.1104 3.8712 27.7167 3.85396
869 1 -1.1104 3.85565 22.1695 6.57865
868 1 -1.1104 3.94147 25.0131 6.69997
862 1 -1.1104 1.00245 24.9197 6.51943
866 1 -1.1104 6.69107 22.1245 6.64839
865 1 -1.1104 0.792507 27.9072 6.51818
870 1 -1.1104 3.70988 27.7498 6.66346
864 1 -1.1104 1.04051 22.343 6.53944
743 1 -1.1104 6.5716 24.9703 3.93004
747 1 -1.1104 6.62274 27.7602 3.92203
867 1 -1.1104 6.46758 27.7267 6.7378
1075 2 2.2208 10.9467 23.6565 -0.304977
1049 2 2.2208 8.00352 29.237 13.6378
742 1 -1.1104 6.6971 25.149 1.15897
863 1 -1.1104 6.77156 24.9129 6.6489
744 1 -1.1104 6.58529 22.2463 0.946837
746 1 -1.1104 6.75623 22.2725 3.76217
745 1 -1.1104 6.47267 27.8395 0.947759
748 2 2.2208 10.8842 23.5358 5.22182
749 2 2.2208 10.7893 29.3882 5.2667
750 1 -1.1104 12.2728 24.858 1.0888
751 1 -1.1104 12.2893 25.0277 3.97702
752 1 -1.1104 12.338 22.288 1.04994
753 1 -1.1104 12.0601 27.8132 1.16998
754 2 2.2208 10.8595 26.3559 2.60116
755 1 -1.1104 12.2975 22.3099 3.88326
756 1 -1.1104 12.1363 27.7986 3.98789
757 1 -1.1104 9.51297 25.0054 0.949233
758 2 2.2208 8.0187 23.6396 2.40687
759 2 2.2208 7.80961 29.2285 2.42259
760 1 -1.1104 9.37446 25.0075 3.65669
761 2 2.2208 8.01373 26.4888 5.23144
762 1 -1.1104 9.51963 22.1527 1.15942
763 1 -1.1104 9.29891 27.8257 1.17006
764 1 -1.1104 9.55465 22.1507 3.8875
765 1 -1.1104 9.46247 27.7963 4.01041
895 1 -1.1104 12.2843 24.9511 6.68004
897 1 -1.1104 12.0974 27.8598 6.78048
900 1 -1.1104 9.32899 27.9967 6.70935
1020 1 -1.1104 12.2796 44.3263 12.404
898 1 -1.1104 9.47978 25.0233 6.57902
1017 1 -1.1104 12.4206 45.0939 9.74808
769 2 2.2208 5.0447 34.8119 5.28154
770 1 -1.1104 1.10777 30.366 0.874109
771 1 -1.1104 0.904933 36.1831 1.11866
773 1 -1.1104 0.845388 30.5894 3.68094
774 1 -1.1104 1.02007 36.3572 4.00442
776 1 -1.1104 1.1179 33.5059 1.05923
777 2 2.2208 5.13111 32.181 2.43182
778 2 2.2208 5.13655 37.6601 2.40485
779 1 -1.1104 1.0384 33.4561 3.8157
781 1 -1.1104 3.8057 30.7927 1.17982
782 1 -1.1104 3.63447 36.5169 1.03365
783 2 2.2208 2.40895 34.9309 2.50951
784 1 -1.1104 3.66808 30.6313 3.89666
785 1 -1.1104 3.69108 36.2702 3.94698
786 2 2.2208 2.29053 32.0517 5.24195
787 2 2.2208 2.39679 37.764 5.33484
788 1 -1.1104 3.79309 33.5601 1.00573
789 1 -1.1104 3.61144 33.3504 3.80309
920 1 -1.1104 0.90964 36.3536 6.65965
772 1 -1.1104 6.36151 36.2708 1.016
780 1 -1.1104 6.55259 33.4299 3.76988
925 1 -1.1104 3.79901 30.6241 6.64061
927 1 -1.1104 3.57896 33.5445 6.74207
923 1 -1.1104 0.894445 33.5074 6.6365
922 1 -1.1104 6.41674 36.3925 6.51409
921 1 -1.1104 6.62396 30.6539 6.67776
1031 2 2.2208 5.23288 40.5204 -0.318721
1014 2 2.2208 7.97756 46.2333 8.0221
1030 3 0 12.3336 40.2055 11.8706
793 1 -1.1104 6.54207 30.6217 1.10704
775 1 -1.1104 6.53714 36.1931 3.76443
795 1 -1.1104 6.48633 33.501 1.0698
794 1 -1.1104 6.53515 30.6538 3.90225
796 2 2.2208 10.7122 34.915 5.3522
797 1 -1.1104 12.1191 30.7501 1.05849
798 1 -1.1104 11.975 36.3443 1.06635
799 1 -1.1104 12.1796 30.6282 3.86685
800 1 -1.1104 12.1192 36.2788 3.89361
801 1 -1.1104 12.1704 33.5376 1.1543