ITEM: TIMESTEP
50000
ITEM: NUMBER OF ATOMS
17730
ITEM: BOX BOUNDS pp pp pp
-3.6233162545788106e-01 2.7702331625457827e+01
-4.4451270990763989e+00 3.3252512709908018e+02
-3.5896641523197892e-01 2.7698966415231332e+01
ITEM: ATOMS id type q x y z
1 2 2.2208 5.2682 1.04195 5.18811
2 1 -1.1104 1.09917 -3.08476 0.971111
3 1 -1.1104 1.0578 2.66985 1.01663
6 1 -1.1104 0.894992 -3.05611 3.76329
7 1 -1.1104 1.05854 2.69946 3.85081
10 1 -1.1104 1.0212 -0.210334 1.22938
12 2 2.2208 5.14171 -1.59275 2.35762
14 1 -1.1104 0.959818 -0.14761 3.88361
16 1 -1.1104 3.75942 -3.04689 1.00633
17 1 -1.1104 3.82007 2.52701 0.968547
18 2 2.2208 2.32513 1.23335 2.45361
19 1 -1.1104 3.71228 -3.10266 3.80258
20 1 -1.1104 3.79359 2.39725 3.95725
21 2 2.2208 2.31986 -1.70853 5.22109
23 1 -1.1104 3.77075 -0.336094 1.09301
24 1 -1.1104 3.81649 -0.309849 3.8953
22 2 2.2208 2.40002 3.95082 5.3405
167 1 -1.1104 0.962959 2.66958 6.68736
5 1 -1.1104 6.62386 2.45416 0.992276
13 2 2.2208 5.32654 3.83497 2.39409
166 1 -1.1104 1.08131 -3.19828 6.68966
170 1 -1.1104 0.938282 -0.421085 6.64322
174 1 -1.1104 3.50406 -0.354308 6.67837
173 1 -1.1104 3.85447 2.43541 6.68977
169 1 -1.1104 6.59647 2.47584 6.66049
171 1 -1.1104 6.65583 -0.316119 6.55659
9013 2 2.2208 8.04623 -4.42602 8.02279
375 2 2.2208 2.26007 20.7001 -0.38673
172 1 -1.1104 3.89817 -3.09337 6.5094
326 1 -1.1104 12.2343 16.6719 12.2013
316 2 2.2208 8.01259 20.7231 10.8743
377 2 2.2208 13.6293 -1.77917 -0.400813
348 2 2.2208 10.955 18.0942 -0.328935
4 1 -1.1104 6.52636 -3.02196 1.13573
168 1 -1.1104 6.66691 -3.07957 6.73572
15 1 -1.1104 6.70743 -0.265537 3.83537
9 1 -1.1104 6.62016 2.41554 3.78342
11 1 -1.1104 6.51745 -0.205026 1.02765
8 1 -1.1104 6.67845 -2.92419 3.88914
31 2 2.2208 10.7864 0.969506 5.20279
32 1 -1.1104 12.3312 -3.34937 1.01873
33 1 -1.1104 12.383 2.45432 1.18296
34 1 -1.1104 12.3672 -3.28797 3.92355
35 1 -1.1104 12.2398 2.47956 3.89322
36 1 -1.1104 12.3109 -0.441196 0.987249
37 2 2.2208 10.9977 -1.81842 2.43748
38 2 2.2208 10.6938 3.85457 2.48458
39 1 -1.1104 12.2278 -0.435858 3.86613
40 1 -1.1104 9.43345 -3.12556 0.873423
41 1 -1.1104 9.46111 2.46112 0.98413
42 2 2.2208 8.06596 1.04825 2.33827
43 1 -1.1104 9.59127 -3.0967 3.84967
44 1 -1.1104 9.37116 2.51 3.86468
45 2 2.2208 8.03911 -1.64593 5.25367
46 2 2.2208 8.01577 3.7835 5.22366
47 1 -1.1104 9.52269 -0.356664 1.08888
48 1 -1.1104 9.4672 -0.219999 3.81752
205 1 -1.1104 12.2849 -3.11912 6.6753
206 1 -1.1104 12.3526 2.4207 6.77039
207 1 -1.1104 12.3391 -0.365808 6.58002
232 2 2.2208 13.7705 9.47668 5.26206
209 1 -1.1104 9.48009 2.38265 6.63964
210 1 -1.1104 9.37626 -0.376413 6.70056
321 1 -1.1104 9.33325 19.4481 12.2318
322 1 -1.1104 9.44233 13.8792 12.3198
328 1 -1.1104 12.2945 13.8776 9.47539
54 2 2.2208 5.24556 6.73342 5.23234
55 2 2.2208 5.23215 12.3674 5.26274
56 1 -1.1104 0.934789 8.17448 1.22147
58 1 -1.1104 1.10621 8.23654 3.89904
60 1 -1.1104 0.964549 5.43776 1.11274
61 1 -1.1104 1.01851 11.0575 1.01333
66 2 2.2208 5.28805 9.59567 2.35925
67 1 -1.1104 1.21328 5.45654 3.99374
68 1 -1.1104 0.977656 11.0043 3.90683
71 1 -1.1104 3.77207 8.25183 1.09496
72 2 2.2208 2.50228 6.78846 2.51579
73 2 2.2208 2.38594 12.316 2.38484
74 1 -1.1104 3.7747 8.0659 3.85654
75 2 2.2208 2.45553 9.62736 5.33716
76 1 -1.1104 3.89602 5.33546 0.932599
77 1 -1.1104 3.92002 10.9932 0.957442
79 1 -1.1104 3.82888 5.25554 3.79308
80 1 -1.1104 3.67074 10.8236 3.89365
62 1 -1.1104 0.99213 10.8877 6.78888
234 1 -1.1104 1.05643 8.24323 6.71226
238 1 -1.1104 3.75963 8.13151 6.67822
59 1 -1.1104 6.67093 8.17641 4.06751
78 1 -1.1104 4.0445 10.9113 6.66506
65 1 -1.1104 6.74671 11.0856 6.72575
314 1 -1.1104 9.51819 16.6628 9.48053
318 1 -1.1104 9.42735 19.3053 9.3986
369 2 2.2208 10.997 1.03048 -0.365262
57 1 -1.1104 6.61773 8.12194 1.15861
64 1 -1.1104 6.60428 10.9869 1.11986
70 1 -1.1104 6.64941 11.0089 3.88238
63 1 -1.1104 6.68994 5.40376 0.989625
69 1 -1.1104 6.54974 5.26177 3.81567
84 2 2.2208 10.7942 6.77488 5.29042
85 2 2.2208 10.9381 12.2449 5.2859
86 1 -1.1104 12.1601 7.98368 1.05661
87 1 -1.1104 12.2138 8.16661 3.80265
88 1 -1.1104 12.3314 5.3642 1.08255
89 1 -1.1104 12.1942 10.7848 1.08949
91 2 2.2208 10.8702 9.6052 2.52443
92 1 -1.1104 12.0609 5.31684 3.82175
93 1 -1.1104 12.3517 10.8136 3.93221
94 1 -1.1104 9.46251 8.32041 1.14077
95 2 2.2208 7.99862 6.8589 2.55657
96 2 2.2208 7.94395 12.4043 2.48589
97 1 -1.1104 9.43871 8.09103 3.80686
98 2 2.2208 8.10126 9.56133 5.37317
99 1 -1.1104 9.3535 5.41332 1.10032
100 1 -1.1104 9.38097 11.1141 1.07365
102 1 -1.1104 9.22322 5.30622 3.79222
103 1 -1.1104 9.49426 10.8418 3.94779
269 1 -1.1104 9.50111 5.20701 6.5534
90 1 -1.1104 12.2659 11.0269 6.66654
237 1 -1.1104 6.60945 5.1976 6.69363
267 1 -1.1104 9.42652 8.06354 6.76827
235 1 -1.1104 6.74768 8.20208 6.77605
265 1 -1.1104 12.2892 8.02693 6.59105
101 1 -1.1104 9.56906 10.6978 6.63453
315 1 -1.1104 9.40416 16.6856 12.3602
230 2 2.2208 13.5552 -1.61103 10.9306
338 2 2.2208 5.11378 -1.63005 13.7279
204 2 2.2208 13.7118 15.009 5.19669
106 2 2.2208 5.23753 17.9396 5.14946
107 1 -1.1104 1.19881 13.8073 0.998394
109 1 -1.1104 0.861898 19.3023 1.09006
113 1 -1.1104 0.906492 13.7125 3.69251
114 1 -1.1104 0.850087 19.3421 3.79674
116 1 -1.1104 1.06077 16.7004 0.942479
119 2 2.2208 5.14602 15.27 2.38078
120 2 2.2208 5.18196 20.7547 2.4188
121 1 -1.1104 0.876926 16.5376 3.81336
123 1 -1.1104 3.89215 13.8515 1.0813
125 1 -1.1104 3.65736 19.4373 1.02915
127 2 2.2208 2.21988 17.8897 2.61576
128 1 -1.1104 3.734 13.7834 3.86149
129 1 -1.1104 3.74413 19.2404 3.8581
130 2 2.2208 2.2695 14.9758 5.22731
131 2 2.2208 2.42022 20.8362 5.16987
132 1 -1.1104 3.76526 16.6103 1.08839
134 1 -1.1104 3.67345 16.3999 4.03912
108 1 -1.1104 0.873768 13.6565 6.6662
124 1 -1.1104 3.77577 13.6568 6.58146
140 1 -1.1104 6.54585 16.7226 0.948781
111 1 -1.1104 6.63789 13.8187 6.59767
118 1 -1.1104 6.70753 16.6646 6.46823
110 1 -1.1104 6.56118 13.713 1.20076
122 1 -1.1104 6.67977 16.6735 3.77708
115 1 -1.1104 6.64378 13.8647 3.93957
133 1 -1.1104 3.68471 16.5226 6.7066
302 1 -1.1104 0.831866 19.3677 6.52458
112 1 -1.1104 6.67081 19.2546 6.60423
29 2 2.2208 -0.39982 6.79933 10.9786
154 1 -1.1104 9.48909 13.7215 6.7861
138 1 -1.1104 6.657 19.433 1.1253
139 1 -1.1104 6.58455 19.4484 3.9159
141 2 2.2208 10.7819 17.918 5.37945
142 1 -1.1104 11.9735 13.7027 1.13608
144 1 -1.1104 12.2705 19.3492 1.02458
146 1 -1.1104 12.2616 13.5846 3.93807
147 1 -1.1104 12.148 19.338 3.94861
148 1 -1.1104 12.2186 16.6771 1.06691
150 2 2.2208 10.7431 15.1824 2.46174
151 2 2.2208 10.8775 20.8024 2.45427
152 1 -1.1104 12.2038 16.585 3.81386
153 1 -1.1104 9.19889 13.9272 1.11854
155 1 -1.1104 9.34506 19.49 0.978458
157 2 2.2208 8.11903 18.135 2.41842
158 1 -1.1104 9.53805 13.7411 3.84891
159 1 -1.1104 9.41469 19.5339 3.84628
160 2 2.2208 8.05982 15.2211 5.20111
161 2 2.2208 8.07876 20.7992 5.24184
162 1 -1.1104 9.43907 16.7155 1.08014
164 1 -1.1104 9.52237 16.5746 3.90211
145 1 -1.1104 12.0518 19.4667 6.68153
143 1 -1.1104 12.2121 13.6745 6.738
384 2 2.2208 10.838 6.81255 -0.383597
379 2 2.2208 5.28169 6.71078 -0.377482
9026 2 2.2208 13.6138 -4.56259 13.7224
52 2 2.2208 13.7126 9.4347 10.9991
175 2 2.2208 5.19427 0.985667 10.8848
176 1 -1.1104 0.921212 -3.0524 12.3341
177 1 -1.1104 0.926611 2.58038 12.2505
180 1 -1.1104 0.831463 -3.07221 9.55353
181 1 -1.1104 0.915563 2.58948 9.5764
184 1 -1.1104 0.814505 -0.374615 12.1733
186 2 2.2208 5.19745 -1.70291 7.98232
187 2 2.2208 5.28962 3.92586 8.07974
188 1 -1.1104 0.880826 -0.211761 9.43546
190 1 -1.1104 3.70853 -2.93522 12.1639
191 1 -1.1104 3.89831 2.55076 12.3742
192 2 2.2208 2.28991 1.21042 8.07988
193 1 -1.1104 3.64916 -2.945 9.17577
194 1 -1.1104 3.83515 2.51565 9.67306
195 2 2.2208 2.2594 -1.56047 10.7037
196 2 2.2208 2.44969 3.95568 11.0368
197 1 -1.1104 3.64094 -0.21686 12.3048
198 1 -1.1104 3.73431 -0.238754 9.51314
182 1 -1.1104 6.57573 -3.0111 9.38586
183 1 -1.1104 6.58515 2.33583 9.47326
178 1 -1.1104 6.49656 -2.93126 12.0337
179 1 -1.1104 6.7167 2.46044 12.2922
189 1 -1.1104 6.5361 -0.30181 9.43039
330 1 -1.1104 12.1245 13.7863 12.3025
317 2 2.2208 8.04276 15.1069 10.9098
229 2 2.2208 13.685 1.06826 8.02054
347 2 2.2208 7.9614 15.331 -0.414155
208 1 -1.1104 9.5238 -3.05248 6.55827
233 2 2.2208 13.6203 3.92026 5.27118
163 1 -1.1104 9.55849 16.5219 6.69881
324 2 2.2208 10.7095 20.8223 8.00752
105 2 2.2208 13.6124 6.69396 2.51112
185 1 -1.1104 6.57038 -0.344847 12.2246
211 2 2.2208 10.7117 1.21194 10.829
212 1 -1.1104 12.1235 -3.07314 12.247
213 1 -1.1104 12.1973 2.63301 12.2621
214 1 -1.1104 12.0871 -3.11007 9.42603
215 1 -1.1104 12.148 2.48423 9.5277
216 1 -1.1104 12.0799 -0.146926 12.2716
217 2 2.2208 10.8815 -1.61681 8.06484
218 2 2.2208 10.7414 3.94374 7.9715
219 1 -1.1104 12.1597 -0.282818 9.45968
220 1 -1.1104 9.43319 -2.97719 12.2247
221 1 -1.1104 9.31881 2.56932 12.2241
222 2 2.2208 8.03415 1.08112 8.01314
223 1 -1.1104 9.43616 -2.95035 9.39497
224 1 -1.1104 9.39865 2.56611 9.49949
225 2 2.2208 7.97783 -1.62014 10.7664
226 2 2.2208 7.94873 3.85125 10.8259
227 1 -1.1104 9.36784 -0.238051 12.4352
228 1 -1.1104 9.30467 -0.157239 9.43744
49 2 2.2208 13.7491 1.14434 2.62623
28 2 2.2208 13.654 20.7297 10.7618
231 2 2.2208 13.5503 20.6105 5.36338
360 2 2.2208 10.8436 20.7843 13.6933
311 2 2.2208 -0.474001 20.7095 8.00863
236 1 -1.1104 0.972882 5.40566 6.7787
239 1 -1.1104 3.87683 5.33846 6.62319
240 2 2.2208 5.25454 6.77681 10.9869
241 2 2.2208 5.24996 12.3984 10.8054
242 1 -1.1104 1.01239 8.1544 12.1906
244 1 -1.1104 1.01956 8.13926 9.49199
246 1 -1.1104 1.08025 5.4799 12.3393
247 1 -1.1104 0.95829 11.0249 12.3711
250 2 2.2208 5.34419 9.50212 8.12642
251 1 -1.1104 1.11441 5.36404 9.69154
252 1 -1.1104 0.898659 10.8856 9.6895
255 1 -1.1104 3.80509 8.24589 12.324
256 2 2.2208 2.38557 6.73419 8.11361
257 2 2.2208 2.47829 12.2396 8.20758
258 1 -1.1104 3.89729 8.07457 9.5016
259 2 2.2208 2.43823 9.51991 10.9469
260 1 -1.1104 3.96057 5.36687 12.1809
261 1 -1.1104 3.9434 10.912 12.1956
262 1 -1.1104 3.93734 5.22948 9.38498
263 1 -1.1104 3.85859 10.646 9.5293
254 1 -1.1104 6.6869 11.0165 9.35441
245 1 -1.1104 6.76151 8.06561 9.61772
249 1 -1.1104 6.65726 11.0765 12.1506
248 1 -1.1104 6.64502 5.27474 12.4396
165 2 2.2208 13.5725 18.0499 2.50392
202 2 2.2208 13.6294 6.70268 8.07512
320 2 2.2208 8.12498 18.0502 8.09998
329 1 -1.1104 12.1258 19.3514 12.2058
343 2 2.2208 8.06733 1.05166 13.8028
266 1 -1.1104 12.2261 5.3996 6.51592
243 1 -1.1104 6.67031 8.26912 12.2734
253 1 -1.1104 6.65847 5.35181 9.53253
264 1 -1.1104 9.49363 11.028 9.34378
268 1 -1.1104 9.35632 5.28655 9.486
270 1 -1.1104 9.31765 10.9008 12.1742
271 1 -1.1104 9.51657 5.32437 12.4753
272 2 2.2208 8.00442 9.56341 10.8058
273 1 -1.1104 9.47442 8.14001 9.41556
274 2 2.2208 8.07974 12.4077 8.05332
275 2 2.2208 8.03556 6.68699 8.0931
276 2 2.2208 10.7475 6.6495 10.9578
277 2 2.2208 10.8473 12.2944 10.8185
278 1 -1.1104 12.2778 8.19171 12.3241
279 1 -1.1104 12.3591 8.07665 9.45906
280 1 -1.1104 12.3291 5.3588 12.2263
281 1 -1.1104 12.1421 10.8818 12.0934
282 2 2.2208 10.9448 9.50403 8.14391
283 1 -1.1104 12.159 5.16467 9.40202
284 1 -1.1104 12.3646 10.9861 9.52119
285 1 -1.1104 9.37948 8.19242 12.277
296 1 -1.1104 6.40017 19.3574 12.299
332 2 2.2208 13.701 17.8262 8.00112
126 1 -1.1104 3.74978 19.3608 6.63678
289 1 -1.1104 6.46096 16.586 9.27529
297 1 -1.1104 6.5143 13.702 12.2719
306 1 -1.1104 6.72354 16.4079 12.1388
117 1 -1.1104 0.861968 16.4725 6.54096
292 1 -1.1104 1.00816 16.473 9.40409
291 1 -1.1104 1.04506 19.3296 9.3998
287 1 -1.1104 3.79108 13.8073 12.1986
286 1 -1.1104 3.74513 19.268 12.3123
293 2 2.2208 5.09877 20.6244 7.9729
309 2 2.2208 2.35956 20.6942 10.8521
299 1 -1.1104 0.913155 13.6841 12.3838
298 1 -1.1104 1.00985 19.1673 12.2782
310 2 2.2208 2.45561 15.1737 10.984
295 2 2.2208 5.18067 15.2049 8.00219
308 1 -1.1104 3.94206 16.3938 12.2437
301 1 -1.1104 3.86266 19.2666 9.37931
300 2 2.2208 5.20389 17.8437 10.8929
307 1 -1.1104 1.09051 16.4946 12.2829
305 1 -1.1104 3.77206 13.6905 9.50909
294 1 -1.1104 0.852182 13.5912 9.53293
303 2 2.2208 2.32694 17.9589 7.99262
304 1 -1.1104 3.8256 16.5083 9.56269
288 1 -1.1104 6.67694 19.4137 9.49633
81 2 2.2208 -0.344211 6.77044 5.30767
319 1 -1.1104 9.43346 13.7973 9.48679
331 2 2.2208 10.7626 18.0207 10.7864
325 2 2.2208 10.9482 15.1241 7.98175
342 2 2.2208 -0.337078 15.1938 13.6905
327 1 -1.1104 12.4543 19.0998 9.57743
378 2 2.2208 13.6419 3.97586 -0.30935
156 1 -1.1104 9.46884 19.3802 6.63992
149 1 -1.1104 12.2966 16.6115 6.6276
290 1 -1.1104 6.72181 13.7457 9.50048
323 1 -1.1104 12.2386 16.5508 9.47868
362 2 2.2208 7.85725 17.9495 13.6745
358 2 2.2208 5.17262 20.7711 13.7034
346 2 2.2208 10.7716 -1.65307 13.6277
356 2 2.2208 7.99555 12.3883 13.6321
385 2 2.2208 7.98388 9.53075 -0.252274
344 2 2.2208 13.6354 15.0838 -0.280452
370 2 2.2208 7.93993 -1.66391 -0.267688
372 2 2.2208 8.07698 3.974 -0.330478
9031 2 2.2208 2.398 -4.52685 13.554
388 2 2.2208 5.18117 1.09498 16.3908
389 1 -1.1104 0.874684 -3.01682 17.7638
390 1 -1.1104 1.10608 2.47218 17.8086
393 1 -1.1104 0.912223 -3.10743 15.0418
395 1 -1.1104 0.961011 2.52017 14.9377
401 1 -1.1104 0.846332 -0.285833 17.8074
403 2 2.2208 5.19672 -1.73368 19.3556
404 2 2.2208 5.238 3.8793 19.3694
405 1 -1.1104 0.883952 -0.257047 15.0339
409 1 -1.1104 3.67047 -3.01475 17.8541
410 1 -1.1104 3.91084 2.46141 17.8866
411 2 2.2208 2.29378 1.16786 19.2549
412 1 -1.1104 3.80553 -3.15782 14.8949
414 1 -1.1104 3.83403 2.51861 15.1151
416 2 2.2208 2.34526 -1.63732 16.4887
417 2 2.2208 2.50246 3.98682 16.4309
418 1 -1.1104 3.60867 -0.269619 17.904
419 1 -1.1104 3.67703 -0.258068 15.1055
397 1 -1.1104 6.5613 -2.94806 14.9981
420 1 -1.1104 3.79958 -0.268245 20.7415
406 1 -1.1104 0.886985 -0.315202 20.6625
391 1 -1.1104 6.65816 -3.06342 17.7986
402 1 -1.1104 6.46926 -0.435889 17.8826
407 1 -1.1104 6.55214 -0.15101 15.0635
415 1 -1.1104 3.68979 2.53202 20.6041
392 1 -1.1104 6.74634 2.43362 17.8772
399 1 -1.1104 6.65812 2.57064 15.0892
413 1 -1.1104 3.62487 -3.13596 20.6567
396 1 -1.1104 0.974304 2.69641 20.5825
398 1 -1.1104 6.60786 -3.0287 20.5852
9138 2 2.2208 8.08102 -4.38484 19.2082
394 1 -1.1104 0.986452 -3.04725 20.5235
9103 2 2.2208 5.09007 -4.4668 22.1305
9139 2 2.2208 10.7917 -4.53862 16.463
9102 2 2.2208 2.36941 -4.39791 24.8716
364 2 2.2208 5.12208 1.15909 27.6671
431 2 2.2208 10.85 1.01595 16.4546
432 1 -1.1104 12.4097 -3.15994 17.8429
433 1 -1.1104 12.1963 2.36854 17.8777
434 1 -1.1104 12.1794 -3.18564 15.0004
436 1 -1.1104 12.3334 2.58576 15.0582
438 1 -1.1104 12.1793 -0.409491 17.8044
439 2 2.2208 10.8782 -1.63142 19.1567
440 2 2.2208 10.8582 3.90292 19.1922
441 1 -1.1104 12.2036 -0.268828 15.1095
443 1 -1.1104 9.56543 -3.08283 17.9128
444 1 -1.1104 9.47959 2.4623 17.72
445 2 2.2208 7.98867 1.16668 19.2622
446 1 -1.1104 9.48492 -3.02019 15.0359
448 1 -1.1104 9.47494 2.44798 15.0982
450 2 2.2208 8.02531 -1.68727 16.5321
451 2 2.2208 8.08373 3.88573 16.4663
452 1 -1.1104 9.34553 -0.29571 17.8205
453 1 -1.1104 9.41167 -0.310477 15.1546
437 1 -1.1104 12.3776 2.58865 20.6798
454 1 -1.1104 9.38368 -0.0844762 20.5174
368 2 2.2208 -0.387663 1.17853 27.7206
447 1 -1.1104 9.41 -2.83549 20.6101
449 1 -1.1104 9.32285 2.6161 20.635
9169 2 2.2208 5.0902 -4.4682 16.3113
685 2 2.2208 -0.384762 12.4054 22.1271
442 1 -1.1104 12.1371 -0.281204 20.5483
435 1 -1.1104 12.1428 -3.00435 20.6046
455 2 2.2208 13.6122 17.9905 25.0242
354 2 2.2208 8.01657 6.7671 13.7284
339 2 2.2208 2.35241 1.13067 13.4972
464 2 2.2208 5.28233 6.64377 16.5104
465 2 2.2208 5.20308 12.3967 16.5557
466 1 -1.1104 1.10549 8.22676 17.8937
468 1 -1.1104 1.06533 8.24379 15.0917
472 1 -1.1104 1.19855 5.4085 17.7384
473 1 -1.1104 0.959681 10.9364 17.9123
476 2 2.2208 5.29131 9.47445 19.4063
477 1 -1.1104 1.08564 5.37654 14.9763
479 1 -1.1104 0.949624 11.0082 15.1161
485 1 -1.1104 3.89375 8.09928 17.8951
486 2 2.2208 2.54075 6.76861 19.2403
487 2 2.2208 2.43329 12.4063 19.3116
488 1 -1.1104 3.77522 8.18708 15.0826
490 2 2.2208 2.52259 9.57376 16.5
491 1 -1.1104 3.90621 5.22613 17.9427
492 1 -1.1104 3.76924 10.8397 17.8716
493 1 -1.1104 3.93076 5.29048 15.1011
495 1 -1.1104 3.80356 10.9776 15.1305
475 1 -1.1104 6.52029 11.0379 17.9169
494 1 -1.1104 3.98874 5.37084 20.6703
469 1 -1.1104 1.09028 8.37283 20.6746
474 1 -1.1104 6.72291 5.35155 17.9394
480 1 -1.1104 0.990879 11.1116 20.6244
481 1 -1.1104 6.69896 5.21378 15.0056
470 1 -1.1104 6.55517 8.00995 15.1536
489 1 -1.1104 3.8707 8.03998 20.7508
478 1 -1.1104 1.10684 5.56298 20.6139
482 1 -1.1104 6.63996 5.40907 20.8434
421 2 2.2208 -0.378423 6.77846 22.0051
654 2 2.2208 13.5739 1.14799 24.8262
467 1 -1.1104 6.62589 8.18825 17.8998
483 1 -1.1104 6.51506 11.0243 15.1086
500 2 2.2208 10.7476 6.87327 16.496
501 2 2.2208 10.8093 12.3367 16.5813
502 1 -1.1104 11.9936 8.23932 17.9001
503 1 -1.1104 12.238 8.11771 15.1852
505 1 -1.1104 12.1521 5.36675 17.7425
506 1 -1.1104 12.2783 10.823 17.9965
507 2 2.2208 10.7648 9.52137 19.3362
508 1 -1.1104 12.0724 5.35655 15.0405
510 1 -1.1104 12.2765 10.9577 15.0974
512 1 -1.1104 9.31894 8.17013 18.0307
513 2 2.2208 8.04301 6.72073 19.2759
514 2 2.2208 7.89206 12.2569 19.2944
515 1 -1.1104 9.42202 8.28924 15.0906
517 2 2.2208 8.07174 9.67789 16.5093
518 1 -1.1104 9.43443 5.30886 17.8883
519 1 -1.1104 9.37239 10.8769 17.841
520 1 -1.1104 9.44591 5.39783 15.2503
522 1 -1.1104 9.42169 10.9828 15.172
516 1 -1.1104 9.444 8.05437 20.7697
509 1 -1.1104 12.3276 5.35919 20.7288
650 2 2.2208 13.6725 12.3443 19.4461
651 2 2.2208 13.6511 6.75007 19.254
484 1 -1.1104 6.59822 10.9375 20.74
521 1 -1.1104 9.56248 5.33996 20.7825
504 1 -1.1104 12.1767 8.30588 20.6252
523 1 -1.1104 9.38262 10.9592 20.7277
708 2 2.2208 13.5705 12.2204 24.9529
527 2 2.2208 5.21426 17.9154 16.4762
528 1 -1.1104 0.944519 13.8125 17.8985
529 1 -1.1104 1.01017 19.4003 17.848
532 1 -1.1104 1.15679 13.8621 14.9982
534 1 -1.1104 0.741209 19.4908 15.1801
540 1 -1.1104 0.930065 16.4853 17.7866
542 2 2.2208 5.18028 15.2141 19.3192
543 2 2.2208 5.09689 20.7442 19.1977
544 1 -1.1104 0.859654 16.7041 15.0353
548 1 -1.1104 3.65886 13.8529 17.9009
549 1 -1.1104 3.80506 19.4305 17.9314
550 2 2.2208 2.46459 17.9196 19.2044
551 1 -1.1104 3.80385 13.7075 15.1229
553 1 -1.1104 3.67754 19.3907 15.0843
555 2 2.2208 2.3573 15.1574 16.4382
556 2 2.2208 2.28775 20.8282 16.5187
557 1 -1.1104 3.86011 16.6671 17.911
558 1 -1.1104 3.80081 16.6015 15.1092
531 1 -1.1104 6.56834 19.2736 17.8648
530 1 -1.1104 6.41331 13.8129 17.9656
552 1 -1.1104 3.83074 13.8587 20.7138
554 1 -1.1104 3.78455 19.3693 20.747
457 2 2.2208 -0.464361 15.1501 19.192
539 1 -1.1104 6.62146 19.4081 20.588
538 1 -1.1104 6.48727 19.3924 15.0089
536 1 -1.1104 6.63314 13.8219 15.1123
533 1 -1.1104 0.965613 13.8635 20.8099
559 1 -1.1104 3.81449 16.5571 20.7491
537 1 -1.1104 6.58972 13.8598 20.6489
653 2 2.2208 13.5867 -1.73618 22.0259
541 1 -1.1104 6.72259 16.6965 17.7888
546 1 -1.1104 6.74367 16.3827 14.9797
574 1 -1.1104 12.1058 16.7085 20.801
563 2 2.2208 10.7152 17.9469 16.5902
564 1 -1.1104 12.2113 13.6595 17.9479
565 1 -1.1104 12.1579 19.3379 18.0347
566 1 -1.1104 12.0909 13.7456 15.0888
568 1 -1.1104 12.0727 19.1908 15.1204
570 1 -1.1104 12.2758 16.5975 17.8109
571 2 2.2208 10.7969 15.197 19.4576
572 2 2.2208 10.7778 20.7252 19.2582
573 1 -1.1104 12.2022 16.3991 15.1252
575 1 -1.1104 9.2754 13.6724 17.9642
576 1 -1.1104 9.39251 19.3665 17.9152
577 2 2.2208 8.00499 17.9672 19.3118
578 1 -1.1104 9.39243 13.7769 15.1159
580 1 -1.1104 9.36826 19.5476 15.1753
582 2 2.2208 8.0203 15.243 16.5592
583 2 2.2208 8.05809 20.7665 16.4513
584 1 -1.1104 9.40084 16.4693 18.1009
585 1 -1.1104 9.43197 16.5672 15.1803
569 1 -1.1104 12.1734 19.5127 20.7931
567 1 -1.1104 11.9806 13.831 20.9271
426 2 2.2208 13.5939 9.51908 16.526
547 1 -1.1104 6.64837 16.6398 20.6574
587 2 2.2208 8.00097 18.0442 24.9143
400 1 -1.1104 6.49255 2.49689 20.7337
497 1 -1.1104 12.2044 19.3111 23.6102
498 1 -1.1104 12.2799 13.6298 26.5429
408 1 -1.1104 6.64974 -0.275421 20.6991
591 2 2.2208 5.1328 1.17437 22.1317
592 1 -1.1104 1.02078 -2.97977 23.4982
593 1 -1.1104 0.98478 2.5486 23.3708
596 1 -1.1104 1.08981 -3.04969 26.2579
597 1 -1.1104 0.916791 2.55452 26.2548
600 1 -1.1104 1.05782 -0.204149 23.5738
602 2 2.2208 5.25609 -1.73784 24.8029
603 2 2.2208 5.18714 3.89609 24.9118
604 1 -1.1104 1.07704 -0.193561 26.3843
606 1 -1.1104 3.95127 -3.06564 23.5417
607 1 -1.1104 3.79759 2.57118 23.4981
608 2 2.2208 2.39473 1.07167 24.7952
609 1 -1.1104 3.7605 -3.21391 26.3597
610 1 -1.1104 3.61051 2.58539 26.2068
611 2 2.2208 2.37349 -1.61718 22.0134
612 2 2.2208 2.48475 4.0078 22.0353
613 1 -1.1104 3.95183 -0.371904 23.4659
614 1 -1.1104 3.812 -0.421125 26.3463
594 1 -1.1104 6.61683 -3.11234 23.3187
601 1 -1.1104 6.70789 -0.308589 23.4687
598 1 -1.1104 6.48716 -3.14213 26.1344
499 1 -1.1104 12.2789 19.3631 26.2718
589 1 -1.1104 9.41256 13.7967 26.3254
714 1 -1.1104 6.63946 16.6359 26.4193
586 1 -1.1104 9.37095 16.5439 20.93
712 1 -1.1104 6.51506 13.7947 26.2974
524 1 -1.1104 12.1498 16.7177 23.7322
562 1 -1.1104 9.31803 19.4205 23.5582
617 1 -1.1104 9.39486 16.7113 23.5458
595 1 -1.1104 6.5343 2.48342 23.4105
605 1 -1.1104 6.60045 -0.20806 26.3825
599 1 -1.1104 6.62751 2.5235 26.3896
627 2 2.2208 10.7458 1.11945 22.1145
628 1 -1.1104 12.3933 -3.11862 23.4697
629 1 -1.1104 12.1331 2.44887 23.4242
630 1 -1.1104 12.2018 -3.04392 26.3146
631 1 -1.1104 12.2296 2.55644 26.2656
632 1 -1.1104 12.136 -0.361288 23.332
633 2 2.2208 10.7166 -1.75825 24.9579
634 2 2.2208 10.8763 3.85798 24.932
635 1 -1.1104 12.1954 -0.288587 26.3089
636 1 -1.1104 9.51478 -3.00859 23.435
637 1 -1.1104 9.37969 2.52645 23.4433
638 2 2.2208 8.0361 1.05364 25.0657
639 1 -1.1104 9.27595 -2.98757 26.1919
640 1 -1.1104 9.3608 2.55435 26.2661
641 2 2.2208 7.97223 -1.54889 22.0764
642 2 2.2208 8.0221 3.86928 22.0678
643 1 -1.1104 9.38502 -0.197503 23.6242
644 1 -1.1104 9.41896 -0.28457 26.4376
525 2 2.2208 10.8832 15.2638 25.02
579 1 -1.1104 9.38682 13.8005 20.6623
560 1 -1.1104 12.2548 16.5692 26.477
496 1 -1.1104 3.83377 11.0332 20.6517
471 1 -1.1104 6.71322 8.07061 20.6393
381 2 2.2208 5.26445 12.4293 27.7873
9137 2 2.2208 -0.417334 -4.4056 22.0575
590 1 -1.1104 9.44261 19.5423 26.3004
656 2 2.2208 5.26207 6.76706 22.1787
657 2 2.2208 5.19161 12.4668 22.025
658 1 -1.1104 1.03837 8.06478 23.5502
660 1 -1.1104 0.871543 8.24111 26.5278
662 1 -1.1104 1.00453 5.37451 23.3914
663 1 -1.1104 1.10248 10.8991 23.4693
666 2 2.2208 5.22055 9.72722 24.9453
667 1 -1.1104 1.01716 5.4776 26.2083
668 1 -1.1104 1.04594 11.0692 26.202
671 1 -1.1104 3.94715 8.2 23.5002
672 2 2.2208 2.39522 6.72252 24.7853
673 2 2.2208 2.46911 12.3658 24.8303
674 1 -1.1104 3.88829 8.16235 26.3267
675 2 2.2208 2.33896 9.57383 22.1445
676 1 -1.1104 3.82916 5.31188 23.4449
677 1 -1.1104 3.80348 10.9338 23.4344
678 1 -1.1104 3.84507 5.2633 26.2093
679 1 -1.1104 3.87523 10.9833 26.3657
664 1 -1.1104 6.66339 5.34249 23.5837
670 1 -1.1104 6.64107 10.9244 26.3991
620 1 -1.1104 9.42779 16.625 26.3141
561 1 -1.1104 9.33856 13.7952 23.5438
710 2 2.2208 13.4958 6.82165 24.8229
581 1 -1.1104 9.4657 19.3097 20.7391
511 1 -1.1104 12.1478 11.1074 20.8292
665 1 -1.1104 6.70417 11.1143 23.5129
659 1 -1.1104 6.56354 8.30778 23.6062
669 1 -1.1104 6.55907 5.22173 26.3097
661 1 -1.1104 6.72526 8.05031 26.3941
687 1 -1.1104 9.47367 10.9187 26.1652
688 1 -1.1104 9.5052 5.26614 26.2805
689 1 -1.1104 9.27188 11.0247 23.3968
690 1 -1.1104 9.45969 5.43585 23.4969
691 2 2.2208 7.97698 9.4572 22.2015
692 1 -1.1104 9.49302 8.17253 26.3008
693 2 2.2208 7.95809 12.3995 25.031
694 2 2.2208 8.0309 6.67787 24.9405
695 2 2.2208 10.8098 6.75338 22.106
696 2 2.2208 10.7232 12.3847 22.1464
697 1 -1.1104 12.127 8.03699 23.4783
698 1 -1.1104 12.2012 8.18819 26.3272
699 1 -1.1104 12.1982 5.24367 23.7715
700 1 -1.1104 12.0237 11.1051 23.5271
701 2 2.2208 10.8436 9.61016 24.9013
702 1 -1.1104 12.2117 5.4152 26.3054
703 1 -1.1104 12.2424 10.8226 26.3102
704 1 -1.1104 9.47422 8.15845 23.4491
545 1 -1.1104 0.973891 16.7788 20.6881
535 1 -1.1104 0.885708 19.3861 20.8187
718 1 -1.1104 6.62361 19.4911 23.6086
615 2 2.2208 7.93407 15.1473 22.1434
680 1 -1.1104 6.63231 16.6998 23.5565
463 1 -1.1104 12.2231 13.8617 23.6253
709 1 -1.1104 6.54538 13.8856 23.4398
616 2 2.2208 8.00054 20.7642 21.9501
588 1 -1.1104 6.55365 19.4211 26.3819
717 1 -1.1104 1.15931 13.7664 26.29
719 2 2.2208 5.29154 20.7777 24.9039
716 1 -1.1104 0.937358 16.6435 26.1714
715 1 -1.1104 0.851291 19.4562 26.2327
720 2 2.2208 5.21729 15.2674 24.9034
647 2 2.2208 2.46161 15.2866 22.0816
649 2 2.2208 2.39177 20.7293 22.1567
652 1 -1.1104 3.86415 16.7197 23.4471
655 1 -1.1104 1.05739 16.6285 23.492
681 1 -1.1104 3.81253 13.8735 26.3137
682 1 -1.1104 3.85061 16.5658 26.3464
683 2 2.2208 2.39291 17.9735 24.8432
686 1 -1.1104 3.6658 19.3005 26.3012
705 2 2.2208 5.24099 18.1594 22.1104
706 1 -1.1104 1.05815 13.7115 23.5425
707 1 -1.1104 0.954779 19.4944 23.4022
711 1 -1.1104 3.79477 19.5141 23.4153
713 1 -1.1104 3.87299 13.8758 23.4441
462 2 2.2208 10.7655 17.9905 22.2871
428 2 2.2208 13.7349 1.19609 19.4405
526 2 2.2208 10.8871 20.7859 24.9696
373 2 2.2208 2.46462 15.1622 27.7291
430 2 2.2208 13.5887 15.2113 22.0894
345 2 2.2208 13.6721 20.8082 27.7696
366 2 2.2208 2.37355 4.02368 27.6726
341 2 2.2208 5.24095 3.85279 13.6085
460 2 2.2208 13.5376 20.7468 16.4912
351 2 2.2208 2.50866 6.85311 13.6762
365 2 2.2208 2.45176 -1.67235 27.7256
355 2 2.2208 10.8044 9.56004 13.5868
353 2 2.2208 2.44331 12.4267 13.6828
423 2 2.2208 13.5442 4.0402 22.1696
427 2 2.2208 -0.34028 4.14724 19.2379
374 2 2.2208 5.14924 18.0018 27.7907
359 2 2.2208 5.33043 15.1351 13.697
336 2 2.2208 13.5567 6.72183 13.7791
376 2 2.2208 13.4639 12.4456 13.7653
357 2 2.2208 2.37899 17.8673 13.6969
380 2 2.2208 2.40342 9.56339 27.6944
9023 2 2.2208 5.20202 -4.54796 27.6768
350 2 2.2208 10.777 3.84991 13.7763
349 2 2.2208 8.04473 20.9255 27.658
361 2 2.2208 10.8208 15.2001 13.7365
352 2 2.2208 5.24252 9.59215 13.7657
386 2 2.2208 10.837 12.3152 27.6844
721 2 2.2208 5.3766 23.5987 5.20884
722 2 2.2208 5.05302 29.1624 5.181
723 1 -1.1104 0.921607 24.9794 1.10936
724 1 -1.1104 1.29378 24.8136 3.84517
725 1 -1.1104 0.926975 22.0935 0.968044
726 1 -1.1104 0.825662 27.8607 1.0711
727 2 2.2208 5.06469 26.44 2.53176
728 1 -1.1104 0.979955 22.1875 3.72651
729 1 -1.1104 0.839244 27.552 3.92971
730 1 -1.1104 3.87442 24.9165 1.06215
731 2 2.2208 2.42944 23.571 2.37234
732 2 2.2208 2.24329 29.289 2.46149
733 1 -1.1104 3.93676 24.9218 3.86908
734 2 2.2208 2.47279 26.245 5.29209
735 1 -1.1104 3.76519 22.204 0.944064
736 1 -1.1104 3.54653 27.7892 1.03054
737 1 -1.1104 3.84346 22.1983 3.82645
738 1 -1.1104 3.66985 27.7222 3.8349
745 1 -1.1104 6.5087 27.8294 1.00955
747 1 -1.1104 6.54544 27.868 3.78677
744 1 -1.1104 6.54033 22.2222 0.959848
870 1 -1.1104 3.84628 27.684 6.6565
869 1 -1.1104 3.85382 22.232 6.62915
864 1 -1.1104 0.970111 22.1123 6.51307
862 1 -1.1104 0.940744 24.941 6.64033
863 1 -1.1104 6.81612 24.9001 6.43842
1032 2 2.2208 13.5684 37.6451 5.4059
742 1 -1.1104 6.51042 25.1402 0.903178
1008 1 -1.1104 9.4908 44.7946 9.31184
868 1 -1.1104 3.94741 25.028 6.64504
1016 1 -1.1104 9.30864 42.0134 12.4753
841 2 2.2208 -0.400479 43.2498 2.38765
867 1 -1.1104 6.5446 27.7149 6.49636
746 1 -1.1104 6.69061 22.3224 3.80854
743 1 -1.1104 6.55364 25.058 3.65176
748 2 2.2208 10.841 23.5268 5.21063
749 2 2.2208 10.7619 29.1666 5.12329
750 1 -1.1104 12.1575 24.8827 1.03073
751 1 -1.1104 12.3243 24.9128 3.8277
752 1 -1.1104 12.2687 22.2593 0.965907
753 1 -1.1104 12.1572 27.6852 0.950424
754 2 2.2208 10.893 26.2797 2.44981
755 1 -1.1104 12.3331 22.0417 3.85831
756 1 -1.1104 12.257 27.6711 3.81091
757 1 -1.1104 9.21898 24.973 0.985076
758 2 2.2208 8.02702 23.6264 2.3672
759 2 2.2208 7.95381 29.1447 2.36261
760 1 -1.1104 9.37584 24.9778 3.77153
761 2 2.2208 8.00764 26.481 5.20274
762 1 -1.1104 9.45098 22.1315 1.01642
763 1 -1.1104 9.43013 27.7509 0.965346
764 1 -1.1104 9.48452 22.2948 3.80988
765 1 -1.1104 9.4407 27.838 3.63674
898 1 -1.1104 9.52797 24.9989 6.65644
897 1 -1.1104 12.0567 27.7925 6.6904
896 1 -1.1104 12.1891 22.1617 6.75044
1014 2 2.2208 8.03604 46.0122 8.1246
766 2 2.2208 13.6468 23.4988 2.40925
10377 2 2.2208 13.546 40.3115 8.23952
1085 2 2.2208 8.09526 37.5992 -0.504359
769 2 2.2208 5.20167 34.8784 5.13714
770 1 -1.1104 0.789358 30.5549 1.05136
771 1 -1.1104 1.032 36.0673 1.06065
773 1 -1.1104 0.884833 30.6515 3.92725
774 1 -1.1104 0.951522 36.261 3.91032
776 1 -1.1104 0.964808 33.349 1.05788
777 2 2.2208 5.13891 31.9478 2.43214
778 2 2.2208 5.22287 37.6956 2.45441
779 1 -1.1104 1.04557 33.4071 3.78386
781 1 -1.1104 3.84582 30.5461 1.16879
782 1 -1.1104 3.84442 36.3239 0.949216
783 2 2.2208 2.32126 34.8422 2.49066
784 1 -1.1104 3.61732 30.4852 3.8092
785 1 -1.1104 3.64512 36.3213 3.82386
786 2 2.2208 2.28842 31.9164 5.21985
787 2 2.2208 2.30342 37.6732 5.12192
788 1 -1.1104 3.80051 33.503 1.00217
789 1 -1.1104 3.69791 33.3804 3.86346
927 1 -1.1104 3.80341 33.4207 6.61128
924 1 -1.1104 6.6832 33.4408 6.64647
793 1 -1.1104 6.58613 30.4696 0.969644
1033 2 2.2208 13.6254 31.8936 5.37315
1411 1 -1.1104 1.02039 47.3712 1.00268
1611 1 -1.1104 0.9343 47.341 12.2806
1026 1 -1.1104 9.41366 44.7023 6.69695
1023 1 -1.1104 12.2431 44.6383 6.67266
1069 2 2.2208 5.23799 23.5119 -0.511423
775 1 -1.1104 6.47334 36.219 3.79104
794 1 -1.1104 6.41968 30.7684 3.83886
922 1 -1.1104 6.38239 36.2575 6.50864
780 1 -1.1104 6.37174 33.4876 3.76337
795 1 -1.1104 6.62409 33.2544 1.07869
772 1 -1.1104 6.66704 36.3227 0.937411
796 2 2.2208 10.7225 34.8423 5.29823
797 1 -1.1104 12.0303 30.4529 0.961223
798 1 -1.1104 12.2038 36.0923 0.968331
799 1 -1.1104 12.158 30.5109 3.95271
800 1 -1.1104 12.1099 36.2049 3.87178
801 1 -1.1104 12.163 33.1423 1.14084
802 2 2.2208 10.6838 32.0217 2.51317
803 2 2.2208 10.7814 37.5653 2.34895
804 1 -1.1104 12.1095 33.329 3.84105
805 1 -1.1104 9.38037 30.607 0.875201
806 1 -1.1104 9.40877 36.2302 1.02499
807 2 2.2208 7.76282 34.7554 2.51963
808 1 -1.1104 9.26221 30.5592 3.71496
809 1 -1.1104 9.08008 36.1854 3.61034
810 2 2.2208 7.90188 32.0119 5.29537
811 2 2.2208 7.91323 37.5507 5.16829
812 1 -1.1104 9.29786 33.5418 1.00579