ITEM: TIMESTEP
60000
ITEM: NUMBER OF ATOMS
17730
ITEM: BOX BOUNDS pp pp pp
-3.6189863389283222e-01 2.7701898633892814e+01
-4.3976023123693047e+00 3.3247760231237407e+02
-3.6833763562978816e-01 2.7708337635629249e+01
ITEM: ATOMS id type q x y z
1 2 2.2208 5.33404 1.14503 5.43953
2 1 -1.1104 1.04602 -3.0693 1.01347
3 1 -1.1104 1.12337 2.43259 1.19591
6 1 -1.1104 1.04328 -3.08251 3.85504
7 1 -1.1104 1.21005 2.54219 3.90842
10 1 -1.1104 1.17966 -0.310324 0.927214
12 2 2.2208 5.35345 -1.56311 2.50001
14 1 -1.1104 0.987263 -0.210436 3.75426
16 1 -1.1104 3.77752 -2.95232 1.10534
17 1 -1.1104 3.90742 2.54128 1.11679
18 2 2.2208 2.56291 1.15695 2.55145
19 1 -1.1104 3.94372 -3.0028 3.86349
20 1 -1.1104 3.96081 2.49742 3.99083
21 2 2.2208 2.47586 -1.48483 5.24959
23 1 -1.1104 3.86584 -0.270083 1.17691
24 1 -1.1104 3.80297 -0.184086 3.93498
22 2 2.2208 2.51846 3.99746 5.30195
13 2 2.2208 5.3107 4.00154 2.51055
167 1 -1.1104 1.22155 2.68404 6.80029
8 1 -1.1104 6.67668 -2.9042 3.83207
172 1 -1.1104 3.97743 -3.10177 6.5887
11 1 -1.1104 6.67906 0.00751536 1.23824
9004 2 2.2208 2.54825 -4.33586 2.54193
9011 2 2.2208 5.20248 -4.26189 10.863
9007 2 2.2208 8.17489 -4.30446 2.55428
51 2 2.2208 -0.290773 12.4894 10.9135
366 2 2.2208 2.53924 3.91395 -0.321241
364 2 2.2208 5.28049 1.22702 -0.293551
9009 2 2.2208 13.6635 -4.34363 2.61883
369 2 2.2208 10.752 1.21247 -0.38695
9008 2 2.2208 10.8798 -4.27564 5.3708
9 1 -1.1104 6.76678 2.44676 3.69426
5 1 -1.1104 6.76265 2.62227 0.964591
4 1 -1.1104 6.75373 -3.01784 1.11169
15 1 -1.1104 6.65918 -0.182862 4.03488
9015 2 2.2208 13.6781 -4.3745 8.14118
31 2 2.2208 10.8108 1.27432 5.24847
32 1 -1.1104 12.2131 -2.73049 1.07814
33 1 -1.1104 12.2197 2.60612 1.0452
34 1 -1.1104 12.1847 -2.85203 3.83501
35 1 -1.1104 12.2682 2.60727 3.9968
36 1 -1.1104 12.2645 -0.0737832 1.00335
37 2 2.2208 10.8147 -1.53488 2.33336
38 2 2.2208 10.8977 4.06409 2.45667
39 1 -1.1104 12.1901 -0.0972219 3.8268
40 1 -1.1104 9.45214 -2.95668 0.936218
41 1 -1.1104 9.4663 2.59036 1.06851
42 2 2.2208 8.04768 1.16348 2.54196
43 1 -1.1104 9.44089 -2.99253 3.91904
44 1 -1.1104 9.46001 2.71035 3.81998
45 2 2.2208 8.07205 -1.53849 5.35906
46 2 2.2208 8.12535 4.01985 5.16302
47 1 -1.1104 9.40215 -0.0998777 1.01194
48 1 -1.1104 9.38981 -0.205051 3.87771
384 2 2.2208 10.986 6.93901 -0.230291
25 2 2.2208 -0.301346 -1.64909 2.32169
205 1 -1.1104 12.437 -2.87505 6.6997
171 1 -1.1104 6.68583 -0.20626 6.74847
208 1 -1.1104 9.53414 -2.90973 6.82452
9013 2 2.2208 8.16895 -4.29911 8.1221
319 1 -1.1104 9.48716 13.852 9.37332
143 1 -1.1104 12.2369 13.7658 6.84198
311 2 2.2208 -0.35234 20.7104 8.0537
145 1 -1.1104 12.2274 19.4757 6.69385
54 2 2.2208 5.22534 6.79944 5.30881
55 2 2.2208 5.28903 12.4554 5.18604
56 1 -1.1104 1.12074 7.95863 1.07787
58 1 -1.1104 1.07361 8.13628 3.8138
60 1 -1.1104 1.1599 5.31479 1.09896
61 1 -1.1104 1.19856 10.7938 1.24378
66 2 2.2208 5.24325 9.56055 2.54505
67 1 -1.1104 1.1403 5.3785 3.81487
68 1 -1.1104 0.932239 11.0027 4.01095
71 1 -1.1104 3.97446 8.31447 1.16582
72 2 2.2208 2.54671 6.8115 2.41042
73 2 2.2208 2.4183 12.5253 2.41337
74 1 -1.1104 3.67169 8.05552 3.8935
75 2 2.2208 2.38705 9.61495 5.14282
76 1 -1.1104 3.96438 5.43337 1.00634
77 1 -1.1104 3.96916 11.1035 1.07731
79 1 -1.1104 3.89991 5.28387 3.9098
80 1 -1.1104 3.78733 10.9135 3.71786
57 1 -1.1104 6.68828 8.2766 0.918116
239 1 -1.1104 3.84497 5.23957 6.81363
64 1 -1.1104 6.7508 11.1782 0.97506
59 1 -1.1104 6.64206 8.14841 3.85117
359 2 2.2208 5.2725 15.158 13.66
199 2 2.2208 -0.365591 3.95406 8.02476
65 1 -1.1104 6.66352 10.9448 6.63181
324 2 2.2208 10.8092 20.8096 8.08155
9005 2 2.2208 5.38177 -4.29407 5.23525
329 1 -1.1104 12.3563 19.3639 12.3364
70 1 -1.1104 6.67458 11.0786 3.84024
63 1 -1.1104 6.73178 5.42549 1.03546
9014 2 2.2208 10.8746 -4.35189 10.978
69 1 -1.1104 6.63978 5.39844 3.78275
84 2 2.2208 10.8282 6.86762 5.36895
85 2 2.2208 10.8906 12.4223 5.29039
86 1 -1.1104 12.3401 8.24743 1.07599
87 1 -1.1104 12.3154 8.36969 3.9771
88 1 -1.1104 12.4857 5.39012 1.10681
89 1 -1.1104 12.191 10.9284 1.15163
91 2 2.2208 10.949 9.68296 2.49597
92 1 -1.1104 12.3547 5.44602 3.85571
93 1 -1.1104 12.5149 11.2049 3.97194
94 1 -1.1104 9.49547 8.35585 1.0475
95 2 2.2208 8.07349 6.91234 2.4166
96 2 2.2208 8.13807 12.4276 2.42429
97 1 -1.1104 9.4604 8.25915 3.91148
98 2 2.2208 8.14403 9.72271 5.42037
99 1 -1.1104 9.57837 5.49321 1.17692
100 1 -1.1104 9.51672 11.0381 0.990585
102 1 -1.1104 9.54681 5.42322 3.89059
103 1 -1.1104 9.60662 11.1594 3.80769
27 2 2.2208 -0.246487 3.87181 2.6135
90 1 -1.1104 12.2802 10.9865 6.7538
203 2 2.2208 13.654 4.16766 10.8866
49 2 2.2208 13.6283 1.25685 2.38987
327 1 -1.1104 12.3854 19.4204 9.52432
106 2 2.2208 5.29099 18.0265 5.19137
107 1 -1.1104 0.865255 13.7965 1.02057
109 1 -1.1104 1.06428 19.2654 1.17444
113 1 -1.1104 0.960871 13.807 3.80633
114 1 -1.1104 0.896024 19.4431 4.05029
116 1 -1.1104 1.08275 16.6367 0.878285
119 2 2.2208 5.21921 15.34 2.3989
120 2 2.2208 5.08602 20.8694 2.56305
121 1 -1.1104 0.995062 16.5641 3.71394
123 1 -1.1104 3.68835 13.9064 1.18891
125 1 -1.1104 3.73252 19.4613 0.998282
127 2 2.2208 2.45095 18.0166 2.55038
128 1 -1.1104 3.84712 13.693 3.85457
129 1 -1.1104 3.79915 19.3932 3.81087
130 2 2.2208 2.48726 15.1152 5.16574
131 2 2.2208 2.48539 20.7834 5.31538
132 1 -1.1104 3.76438 16.6873 1.18052
134 1 -1.1104 3.83757 16.5907 3.84331
140 1 -1.1104 6.66463 16.7042 1.00627
110 1 -1.1104 6.58892 14.0189 0.860488
122 1 -1.1104 6.78963 16.7391 3.8775
138 1 -1.1104 6.52575 19.4259 1.08987
328 1 -1.1104 12.2954 13.821 9.51704
115 1 -1.1104 6.61188 13.9938 3.72697
117 1 -1.1104 1.17038 16.5035 6.52692
112 1 -1.1104 6.54135 19.5053 6.51945
118 1 -1.1104 6.65014 16.6008 6.71653
302 1 -1.1104 1.022 19.2536 6.80574
163 1 -1.1104 9.36108 16.6513 6.72373
139 1 -1.1104 6.70134 19.4969 3.83027
326 1 -1.1104 12.3084 16.4622 12.218
141 2 2.2208 10.7687 18.0244 5.27041
142 1 -1.1104 12.1085 13.6677 1.15247
144 1 -1.1104 11.9872 19.4145 1.12806
146 1 -1.1104 12.2772 13.8885 3.88667
147 1 -1.1104 12.1992 19.5366 3.76878
148 1 -1.1104 12.1636 16.5606 1.18064
150 2 2.2208 10.9379 15.1471 2.52144
151 2 2.2208 10.7583 20.9383 2.50111
152 1 -1.1104 12.1441 16.6489 3.89779
153 1 -1.1104 9.3438 13.8758 0.932517
155 1 -1.1104 9.35147 19.463 0.941093
157 2 2.2208 8.01628 18.1214 2.35877
158 1 -1.1104 9.35788 13.8276 3.76291
159 1 -1.1104 9.27809 19.4863 3.79091
160 2 2.2208 8.10436 15.2769 5.1442
161 2 2.2208 7.95981 20.8978 5.24423
162 1 -1.1104 9.43974 16.7442 1.01864
164 1 -1.1104 9.57362 16.6427 4.00483
156 1 -1.1104 9.49405 19.2809 6.68069
204 2 2.2208 13.6331 15.3011 5.21468
316 2 2.2208 8.12139 20.907 10.9483
323 1 -1.1104 12.3064 16.6576 9.40739
331 2 2.2208 10.9644 18.0094 10.8515
322 1 -1.1104 9.57094 13.8215 12.3163
168 1 -1.1104 6.78141 -3.00805 6.60882
231 2 2.2208 13.5405 20.8907 5.38277
166 1 -1.1104 1.05183 -2.92949 6.64649
173 1 -1.1104 3.97716 2.51064 6.88849
174 1 -1.1104 3.80711 -0.27835 6.71205
169 1 -1.1104 6.76093 2.68542 6.54912
200 2 2.2208 -0.375424 -1.63897 8.1387
9006 2 2.2208 -0.278463 -4.38276 5.13773
170 1 -1.1104 1.03818 -0.29035 6.68076
175 2 2.2208 5.24524 1.31855 10.9378
176 1 -1.1104 1.03028 -3.06281 12.3546
177 1 -1.1104 1.0364 2.57625 12.5328
180 1 -1.1104 1.07171 -2.96095 9.49983
181 1 -1.1104 1.08761 2.50591 9.6602
184 1 -1.1104 1.21916 -0.194269 12.2345
186 2 2.2208 5.22434 -1.67777 8.11935
187 2 2.2208 5.28474 4.07833 8.26184
188 1 -1.1104 0.979945 -0.197029 9.57504
190 1 -1.1104 3.88991 -3.02751 12.3062
191 1 -1.1104 3.9212 2.71152 12.318
192 2 2.2208 2.54056 1.19792 8.18172
193 1 -1.1104 4.01555 -2.92828 9.52097
194 1 -1.1104 3.8351 2.54172 9.6024
195 2 2.2208 2.36029 -1.61588 10.9206
196 2 2.2208 2.39728 4.03332 10.8821
197 1 -1.1104 3.97541 -0.121089 12.3109
198 1 -1.1104 3.73116 -0.274647 9.50205
183 1 -1.1104 6.75876 2.73403 9.56152
320 2 2.2208 8.03279 17.815 8.03532
165 2 2.2208 13.6839 18.2397 2.60225
185 1 -1.1104 6.85715 -0.130533 12.3248
178 1 -1.1104 6.63147 -3.0743 12.3269
179 1 -1.1104 6.80816 2.87796 12.4054
345 2 2.2208 13.4749 20.7672 -0.226706
207 1 -1.1104 12.3962 -0.27255 6.72035
210 1 -1.1104 9.69018 -0.222459 6.81955
189 1 -1.1104 6.65614 -0.0619139 9.63916
206 1 -1.1104 12.3218 2.65387 6.79347
209 1 -1.1104 9.44703 2.59295 6.70807
182 1 -1.1104 6.79211 -2.9647 9.54339
211 2 2.2208 10.8574 1.30211 10.9804
212 1 -1.1104 12.4787 -2.89022 12.2725
213 1 -1.1104 12.1652 2.70032 12.3097
214 1 -1.1104 12.435 -3.00569 9.54742
215 1 -1.1104 12.2792 2.60884 9.52971
216 1 -1.1104 12.2327 -0.115026 12.4035
217 2 2.2208 11.0303 -1.5213 8.15714
218 2 2.2208 10.7782 4.05798 8.1065
219 1 -1.1104 12.3142 -0.182896 9.4955
220 1 -1.1104 9.62185 -2.99808 12.3281
221 1 -1.1104 9.48259 2.72237 12.1976
222 2 2.2208 8.07574 1.24268 8.15955
223 1 -1.1104 9.54827 -2.75643 9.59898
224 1 -1.1104 9.49674 2.61847 9.50563
225 2 2.2208 8.09912 -1.47989 10.9001
226 2 2.2208 8.10872 4.1627 10.9135
227 1 -1.1104 9.386 -0.198416 12.2672
228 1 -1.1104 9.48981 0.0895709 9.52269
26 2 2.2208 -0.320964 1.10326 5.31038
321 1 -1.1104 9.53818 19.5533 12.2414
332 2 2.2208 13.6217 18.1047 8.00449
62 1 -1.1104 1.03482 10.9677 6.71824
234 1 -1.1104 0.970329 8.37908 6.56392
238 1 -1.1104 3.65935 8.13819 6.57366
236 1 -1.1104 0.937525 5.50805 6.55543
78 1 -1.1104 3.79494 10.955 6.45309
240 2 2.2208 5.17649 6.97923 10.9372
241 2 2.2208 5.19011 12.453 10.8983
242 1 -1.1104 1.1027 8.23533 12.3748
244 1 -1.1104 1.0808 8.14751 9.58088
246 1 -1.1104 1.01887 5.47983 12.2243
247 1 -1.1104 1.02318 11.078 12.2709
250 2 2.2208 5.23984 9.73069 8.10658
251 1 -1.1104 0.947573 5.40501 9.31518
252 1 -1.1104 1.01679 11.0083 9.4051
255 1 -1.1104 3.78284 8.29138 12.2342
256 2 2.2208 2.30571 6.8685 8.02484
257 2 2.2208 2.45201 12.4441 8.00036
258 1 -1.1104 3.85574 8.27985 9.50307
259 2 2.2208 2.3516 9.64071 10.9526
260 1 -1.1104 3.70985 5.34408 12.1367
261 1 -1.1104 3.85336 11.0702 12.275
262 1 -1.1104 3.82762 5.38329 9.61323
263 1 -1.1104 3.7108 11.0111 9.4611
248 1 -1.1104 6.47051 5.61158 12.4158
253 1 -1.1104 6.6825 5.57323 9.53117
237 1 -1.1104 6.64595 5.38293 6.69749
245 1 -1.1104 6.58527 8.3617 9.59966
254 1 -1.1104 6.57286 11.1124 9.55382
243 1 -1.1104 6.61071 8.23056 12.3453
312 2 2.2208 -0.263293 18.0573 10.8597
149 1 -1.1104 12.3655 16.6131 6.67778
202 2 2.2208 13.6148 6.77967 8.0847
235 1 -1.1104 6.61073 8.12781 6.65533
101 1 -1.1104 9.61253 11.1898 6.72427
265 1 -1.1104 12.3228 8.18047 6.71619
249 1 -1.1104 6.69713 10.9568 12.2495
266 1 -1.1104 12.1465 5.34775 6.74578
317 2 2.2208 8.08322 15.2203 10.9023
269 1 -1.1104 9.4462 5.41256 6.5952
267 1 -1.1104 9.29773 8.17604 6.7277
264 1 -1.1104 9.556 11.0827 9.5038
268 1 -1.1104 9.4845 5.5637 9.38976
270 1 -1.1104 9.39198 11.0517 12.3715
271 1 -1.1104 9.4039 5.6326 12.188
272 2 2.2208 8.07201 9.64548 10.9716
273 1 -1.1104 9.31792 8.24055 9.39548
274 2 2.2208 8.01399 12.3422 8.16426
275 2 2.2208 7.96008 6.79271 8.08255
276 2 2.2208 10.8184 6.92615 10.8391
277 2 2.2208 11.0126 12.388 10.8295
278 1 -1.1104 12.3555 8.25932 12.322
279 1 -1.1104 12.1344 8.01324 9.32086
280 1 -1.1104 12.1523 5.56022 12.1736
281 1 -1.1104 12.2131 10.9784 12.2939
282 2 2.2208 10.8786 9.5946 8.19746
283 1 -1.1104 12.2658 5.3745 9.56644
284 1 -1.1104 12.2572 10.8266 9.46242
285 1 -1.1104 9.61466 8.32962 12.1917
325 2 2.2208 10.8938 15.2216 8.10965
289 1 -1.1104 6.57723 16.5159 9.461
124 1 -1.1104 3.73778 13.8212 6.6757
126 1 -1.1104 3.83547 19.3354 6.62467
133 1 -1.1104 3.82985 16.513 6.63639
111 1 -1.1104 6.62735 13.8005 6.56315
288 1 -1.1104 6.58541 19.3715 9.22104
108 1 -1.1104 1.0505 13.8195 6.71537
297 1 -1.1104 6.67758 13.8176 12.2529
292 1 -1.1104 1.15674 16.5806 9.39344
291 1 -1.1104 0.973306 19.4358 9.5191
287 1 -1.1104 3.85563 13.817 12.352
286 1 -1.1104 3.87004 19.3605 12.1767
293 2 2.2208 5.23693 20.8012 7.96357
309 2 2.2208 2.45462 20.8012 10.8262
299 1 -1.1104 1.08116 13.967 12.1164
298 1 -1.1104 0.99127 19.6362 12.4468
310 2 2.2208 2.41503 15.2805 10.8563
295 2 2.2208 5.29568 15.1298 8.05921
308 1 -1.1104 3.87672 16.5477 12.2094
301 1 -1.1104 3.73807 19.4145 9.44905
300 2 2.2208 5.28656 17.9042 10.7599
307 1 -1.1104 1.05452 16.7756 12.1872
305 1 -1.1104 3.83765 13.914 9.58982
294 1 -1.1104 1.07183 13.975 9.38336
303 2 2.2208 2.51485 17.8683 8.00016
304 1 -1.1104 3.83032 16.5575 9.45446
296 1 -1.1104 6.53835 19.4327 12.1001
306 1 -1.1104 6.81804 16.6065 12.2263
290 1 -1.1104 6.59176 13.7911 9.46159
330 1 -1.1104 12.3837 13.8171 12.3989
315 1 -1.1104 9.54074 16.6888 12.3957
314 1 -1.1104 9.62412 16.6363 9.46397
154 1 -1.1104 9.49451 13.892 6.55926
318 1 -1.1104 9.503 19.3337 9.53229
82 2 2.2208 -0.322526 9.5318 2.44246
30 2 2.2208 -0.341518 9.57394 8.05894
373 2 2.2208 2.51642 15.3972 -0.334074
341 2 2.2208 5.1903 4.07093 13.656
9031 2 2.2208 2.4284 -4.32911 13.635
368 2 2.2208 -0.354927 1.06644 -0.336652
362 2 2.2208 8.09574 18.0557 13.6012
351 2 2.2208 2.33251 6.94159 13.6556
350 2 2.2208 10.8502 4.10933 13.5904
356 2 2.2208 7.98056 12.4417 13.6518
340 2 2.2208 13.6083 1.23036 13.6507
357 2 2.2208 2.46975 18.1231 13.6455
375 2 2.2208 2.32995 20.8342 -0.335438
349 2 2.2208 7.90138 20.8698 -0.302821
358 2 2.2208 5.22455 20.7745 13.6236
381 2 2.2208 5.30816 12.5154 -0.31969
344 2 2.2208 13.5527 15.176 -0.226341
342 2 2.2208 -0.263422 15.1679 13.5316
380 2 2.2208 2.48445 9.60919 -0.327997
382 2 2.2208 -0.398695 12.3662 -0.341538
372 2 2.2208 8.06093 4.07426 -0.205848
9023 2 2.2208 5.27144 -4.34074 -0.256716
388 2 2.2208 5.1696 1.22674 16.571
389 1 -1.1104 1.06405 -2.86027 17.9355
390 1 -1.1104 1.18888 2.53988 17.8723
393 1 -1.1104 1.15021 -3.08581 15.0816
395 1 -1.1104 1.09361 2.63469 15.1601
401 1 -1.1104 0.975672 -0.271222 17.708
403 2 2.2208 5.2659 -1.61215 19.4016
404 2 2.2208 5.3112 4.06331 19.4108
405 1 -1.1104 1.11678 -0.117759 14.8559
409 1 -1.1104 3.76579 -3.16867 17.9568
410 1 -1.1104 3.99484 2.61454 18.139
411 2 2.2208 2.44678 1.09239 19.3707
412 1 -1.1104 3.83279 -2.83909 15.1032
414 1 -1.1104 3.79297 2.67559 15.1593
416 2 2.2208 2.46463 -1.71253 16.5522
417 2 2.2208 2.49548 4.06358 16.4377
418 1 -1.1104 3.7953 -0.284911 17.9464
419 1 -1.1104 3.8394 -0.136576 15.1165
391 1 -1.1104 6.65629 -2.79173 18.0382
9137 2 2.2208 -0.292649 -4.35006 22.1723
9099 2 2.2208 8.10901 -4.35071 24.9998
646 2 2.2208 -0.395988 15.2258 25.0545
338 2 2.2208 5.27666 -1.62509 13.7177
424 2 2.2208 -0.193938 1.17704 16.4558
339 2 2.2208 2.54545 1.24492 13.6727
402 1 -1.1104 6.62122 -0.0381727 18.0529
397 1 -1.1104 6.60551 -3.05285 15.3376
407 1 -1.1104 6.57626 -0.106806 15.1872
399 1 -1.1104 6.59483 2.58144 15.1746
392 1 -1.1104 6.6955 2.78489 17.893
9138 2 2.2208 8.11863 -4.33088 19.2464
684 2 2.2208 -0.341597 9.68753 24.8354
431 2 2.2208 10.7669 1.18269 16.5371
432 1 -1.1104 12.2162 -2.93491 17.814
433 1 -1.1104 12.2233 2.65156 17.8289
434 1 -1.1104 12.223 -3.05745 15.1625
436 1 -1.1104 12.106 2.62113 15.0658
438 1 -1.1104 12.2905 -0.0389946 17.8855
439 2 2.2208 10.8281 -1.53758 19.2088
440 2 2.2208 10.8229 3.91924 19.3356
441 1 -1.1104 12.2652 -0.28447 15.1608
443 1 -1.1104 9.56235 -2.94986 17.8903
444 1 -1.1104 9.45045 2.81786 17.9684
445 2 2.2208 7.99436 1.32953 19.378
446 1 -1.1104 9.33652 -2.77744 15.1804
448 1 -1.1104 9.39428 2.83848 14.9344
450 2 2.2208 7.95646 -1.5192 16.5316
451 2 2.2208 7.9482 4.11366 16.4524
452 1 -1.1104 9.47286 -0.0776271 17.9365
453 1 -1.1104 9.35414 -0.0343581 15.1874
421 2 2.2208 -0.254786 6.75104 22.0634
9103 2 2.2208 5.25492 -4.36792 22.2527
429 2 2.2208 13.6013 4.10393 16.4128
348 2 2.2208 10.775 17.9039 27.696
457 2 2.2208 -0.287992 15.2731 19.394
685 2 2.2208 -0.340075 12.4441 22.0441
624 2 2.2208 -0.239577 -1.57266 24.8229
464 2 2.2208 5.07597 6.75553 16.5401
465 2 2.2208 5.37161 12.3058 16.5206
466 1 -1.1104 1.12542 8.32513 17.8357
468 1 -1.1104 1.08917 8.29888 15.1083
472 1 -1.1104 1.0167 5.42295 17.9032
473 1 -1.1104 1.13273 11.1366 17.7427
476 2 2.2208 5.32033 9.59606 19.4198
477 1 -1.1104 0.942613 5.46091 14.9718
479 1 -1.1104 1.05995 11.1569 15.075
485 1 -1.1104 3.94134 8.14455 17.9142
486 2 2.2208 2.53202 6.80243 19.412
487 2 2.2208 2.53742 12.5133 19.1677
488 1 -1.1104 3.78571 8.21807 15.0325
490 2 2.2208 2.49572 9.64255 16.4808
491 1 -1.1104 3.86047 5.42792 17.9364
492 1 -1.1104 3.81688 10.9972 17.9508
493 1 -1.1104 3.75307 5.49665 15.022
495 1 -1.1104 3.85109 10.9769 15.0806
475 1 -1.1104 6.79087 11.0852 17.821
474 1 -1.1104 6.53262 5.58919 17.96
483 1 -1.1104 6.58456 11.0706 15.1058
470 1 -1.1104 6.64567 8.24567 15.0775
352 2 2.2208 5.23245 9.58267 13.7135
481 1 -1.1104 6.62579 5.3251 15.1537
428 2 2.2208 13.4965 1.18331 19.2734
480 1 -1.1104 1.03021 11.1026 20.5932
626 2 2.2208 -0.275171 3.9474 24.8802
343 2 2.2208 8.17413 1.31152 13.7536
467 1 -1.1104 6.75121 8.3868 17.7608
354 2 2.2208 8.01017 6.92708 13.7155
500 2 2.2208 10.8782 6.72891 16.5126
501 2 2.2208 10.957 12.3222 16.4078
502 1 -1.1104 12.3238 8.14645 17.8058
503 1 -1.1104 12.3983 8.06403 15.0342
505 1 -1.1104 12.2695 5.45074 17.9376
506 1 -1.1104 12.3106 11.0035 17.9543
507 2 2.2208 10.8668 9.56671 19.2213
508 1 -1.1104 12.2076 5.32998 14.9347
510 1 -1.1104 12.346 11.0624 14.9906
512 1 -1.1104 9.5399 8.15871 17.7608
513 2 2.2208 8.04962 6.86511 19.2472
514 2 2.2208 8.12455 12.355 19.3404
515 1 -1.1104 9.5648 8.26542 14.999
517 2 2.2208 8.08379 9.64579 16.3423
518 1 -1.1104 9.33654 5.43245 17.89
519 1 -1.1104 9.57205 10.8479 17.8624
520 1 -1.1104 9.36584 5.51503 14.9761
522 1 -1.1104 9.50396 11.0292 15.1116
423 2 2.2208 13.5992 4.14679 22.1245
360 2 2.2208 10.9174 21.0591 13.6565
525 2 2.2208 10.9284 15.2526 24.9001
625 2 2.2208 -0.298168 1.28261 22.0341
616 2 2.2208 8.04967 20.9561 22.1319
523 1 -1.1104 9.53517 11.0065 20.7899
562 1 -1.1104 9.34459 19.6448 23.7029
587 2 2.2208 7.97838 18.0647 24.8783
527 2 2.2208 5.25253 18.0503 16.4477
528 1 -1.1104 1.11398 13.9977 17.8946
529 1 -1.1104 1.11463 19.4954 18.0268
532 1 -1.1104 1.11775 13.8134 15.1281
534 1 -1.1104 1.08834 19.4343 15.2976
540 1 -1.1104 0.960315 16.6558 17.9537
542 2 2.2208 5.32712 15.3278 19.2737
543 2 2.2208 5.28772 20.8082 19.2508
544 1 -1.1104 0.990952 16.7765 15.2356
548 1 -1.1104 4.00471 13.841 17.9116
549 1 -1.1104 3.94129 19.3723 17.9281
550 2 2.2208 2.46384 18.0161 19.2618
551 1 -1.1104 3.88227 13.8631 15.0434
553 1 -1.1104 3.79096 19.5296 15.1962
555 2 2.2208 2.48385 15.3751 16.4902
556 2 2.2208 2.40676 20.8589 16.5588
557 1 -1.1104 3.93035 16.6056 17.8191
558 1 -1.1104 3.93002 16.7265 14.9911
530 1 -1.1104 6.85027 13.8467 17.9965
559 1 -1.1104 3.87502 16.6656 20.6275
538 1 -1.1104 6.77669 19.4282 15.0142
536 1 -1.1104 6.72916 13.9309 15.0911
531 1 -1.1104 6.7133 19.2672 17.8881
546 1 -1.1104 6.49373 16.6774 15.1472
590 1 -1.1104 9.43358 19.3469 26.3822
539 1 -1.1104 6.64896 19.533 20.7234
545 1 -1.1104 1.02982 16.7268 20.7268
552 1 -1.1104 4.04881 13.8336 20.5794
535 1 -1.1104 0.979131 19.3597 20.6567
497 1 -1.1104 12.027 19.4727 23.4051
620 1 -1.1104 9.5537 16.6317 26.1797
541 1 -1.1104 6.72478 16.5759 17.9312
498 1 -1.1104 12.2142 13.8277 26.3025
563 2 2.2208 10.9318 18.0792 16.4613
564 1 -1.1104 12.3561 13.876 17.8207
565 1 -1.1104 12.2859 19.4259 17.9691
566 1 -1.1104 12.4171 13.7071 15.1875
568 1 -1.1104 12.2572 19.3837 15.1177
570 1 -1.1104 12.2951 16.6528 17.9456
571 2 2.2208 11.0275 15.1311 19.2305
572 2 2.2208 10.8386 20.7367 19.3487
573 1 -1.1104 12.4287 16.5066 15.1041
575 1 -1.1104 9.65957 13.5322 17.8898
576 1 -1.1104 9.52519 19.3434 17.8138
577 2 2.2208 8.06443 18.0116 19.2429
578 1 -1.1104 9.49756 13.9046 15.1258
580 1 -1.1104 9.57635 19.6061 15.1107
582 2 2.2208 8.0957 15.1977 16.6328
583 2 2.2208 8.11412 20.8405 16.3775
584 1 -1.1104 9.4893 16.4691 18.0409
585 1 -1.1104 9.39524 16.6876 15.1778
710 2 2.2208 13.5318 6.82456 24.8858
621 2 2.2208 -0.299436 6.82254 16.519
499 1 -1.1104 12.157 19.326 26.3248
567 1 -1.1104 12.4639 13.8015 20.6011
569 1 -1.1104 12.1365 19.2543 20.6521
581 1 -1.1104 9.36875 19.5182 20.6634
586 1 -1.1104 9.38675 16.7122 20.6842
415 1 -1.1104 3.9491 2.47139 20.7451
408 1 -1.1104 6.71799 -0.244646 20.8965
413 1 -1.1104 3.88835 -2.99049 20.7567
406 1 -1.1104 1.04601 -0.233847 20.5996
420 1 -1.1104 3.96484 -0.276487 20.7449
396 1 -1.1104 1.09111 2.58568 20.5802
579 1 -1.1104 9.65386 13.6359 20.7288
680 1 -1.1104 6.58079 16.7436 23.4968
561 1 -1.1104 9.59669 14.0092 23.2941
589 1 -1.1104 9.62382 14.0051 26.3083
394 1 -1.1104 1.03148 -2.97647 20.7735
591 2 2.2208 5.20161 1.10443 22.2893
592 1 -1.1104 1.07794 -2.93635 23.5669
593 1 -1.1104 0.944893 2.5387 23.3904
596 1 -1.1104 1.17499 -2.89847 26.2775
597 1 -1.1104 1.14946 2.67565 26.3431
600 1 -1.1104 0.958131 -0.117707 23.4442
602 2 2.2208 5.22691 -1.63179 24.9242
603 2 2.2208 5.38027 4.06824 24.8231
604 1 -1.1104 0.976881 -0.176522 26.1661
606 1 -1.1104 3.80514 -3.01024 23.4966
607 1 -1.1104 3.79499 2.53696 23.5757
608 2 2.2208 2.42642 1.27579 25.0074
609 1 -1.1104 4.00228 -2.9703 26.3276
610 1 -1.1104 3.82503 2.661 26.4498
611 2 2.2208 2.40995 -1.5947 21.9763
612 2 2.2208 2.48675 4.02443 21.9792
613 1 -1.1104 3.70924 -0.235372 23.5897
614 1 -1.1104 3.9085 -0.0993676 26.393
400 1 -1.1104 6.74173 2.77994 20.8061
595 1 -1.1104 6.70716 2.50879 23.5419
594 1 -1.1104 6.63416 -2.99549 23.5387
599 1 -1.1104 6.77417 2.53007 26.348
622 2 2.2208 -0.192773 9.62278 19.2111
650 2 2.2208 13.6537 12.3921 19.2117
447 1 -1.1104 9.54399 -3.03454 20.7929
449 1 -1.1104 9.51204 2.56516 20.8115
435 1 -1.1104 12.3732 -3.17138 20.6841
437 1 -1.1104 12.3776 2.53697 20.6739
9027 2 2.2208 8.04178 -4.33953 13.7212
560 1 -1.1104 12.2605 16.5368 26.4387
442 1 -1.1104 12.2202 -0.24969 20.5675
605 1 -1.1104 6.55001 -0.17251 26.3086
398 1 -1.1104 6.59781 -3.19306 20.7563
454 1 -1.1104 9.5863 -0.181045 20.663
601 1 -1.1104 6.59955 -0.264261 23.5889
598 1 -1.1104 6.69752 -2.96544 26.3627
627 2 2.2208 10.8654 1.21346 22.12
628 1 -1.1104 12.3177 -3.02059 23.4487
629 1 -1.1104 12.3543 2.67997 23.5143
630 1 -1.1104 12.3921 -2.83303 26.3312
631 1 -1.1104 12.1672 2.52193 26.2849
632 1 -1.1104 12.2716 -0.138194 23.3107
633 2 2.2208 10.8499 -1.57677 24.974
634 2 2.2208 10.9363 3.97942 24.8993
635 1 -1.1104 12.219 -0.0780295 26.3365
636 1 -1.1104 9.45529 -2.94114 23.6044
637 1 -1.1104 9.64477 2.5582 23.585
638 2 2.2208 8.18233 1.25477 24.9232
639 1 -1.1104 9.41621 -2.9126 26.2851
640 1 -1.1104 9.46977 2.7001 26.3154
641 2 2.2208 8.1731 -1.66325 22.1002
642 2 2.2208 8.05697 4.04038 22.1586
643 1 -1.1104 9.60309 -0.136692 23.5216
644 1 -1.1104 9.32672 -0.303392 26.2653
489 1 -1.1104 3.90876 8.1951 20.7154
478 1 -1.1104 0.967861 5.36887 20.597
496 1 -1.1104 3.78429 11.0263 20.7697
469 1 -1.1104 1.16358 8.27053 20.7
494 1 -1.1104 3.84389 5.32128 20.6836
656 2 2.2208 5.27646 6.94964 22.2242
657 2 2.2208 5.28515 12.5213 22.0777
658 1 -1.1104 1.15598 8.20152 23.4109
660 1 -1.1104 1.39121 8.21502 26.1977
662 1 -1.1104 1.12714 5.44029 23.4562
663 1 -1.1104 1.01203 10.9854 23.4719
666 2 2.2208 5.27857 9.76064 24.9451
667 1 -1.1104 1.15592 5.39666 26.2393
668 1 -1.1104 0.954704 11.0486 26.4498
671 1 -1.1104 3.92258 8.31441 23.5131
672 2 2.2208 2.46163 6.83721 24.8126
673 2 2.2208 2.4579 12.4746 25.0308
674 1 -1.1104 3.9698 8.33804 26.3533
675 2 2.2208 2.47111 9.69655 22.0114
676 1 -1.1104 3.78758 5.37619 23.3163
677 1 -1.1104 3.82072 11.1624 23.524
678 1 -1.1104 4.01308 5.53226 26.1388
679 1 -1.1104 3.86951 11.0583 26.3609
471 1 -1.1104 6.77643 8.33811 20.6614
659 1 -1.1104 6.71613 8.40454 23.5359
670 1 -1.1104 6.55586 11.1294 26.1953
484 1 -1.1104 6.67336 11.1554 20.7223
669 1 -1.1104 6.68057 5.35802 26.3456
664 1 -1.1104 6.65102 5.50904 23.6097
665 1 -1.1104 6.69903 11.219 23.4907
482 1 -1.1104 6.70566 5.54734 20.7765
504 1 -1.1104 12.3108 8.1883 20.66
516 1 -1.1104 9.45638 8.3373 20.4979
521 1 -1.1104 9.41322 5.43127 20.7304
509 1 -1.1104 12.3302 5.36532 20.7157
661 1 -1.1104 6.72908 8.217 26.2045
511 1 -1.1104 12.4217 10.9661 20.6845
687 1 -1.1104 9.49925 11.0738 26.1852
688 1 -1.1104 9.47302 5.35661 26.3807
689 1 -1.1104 9.51797 10.9729 23.5086
690 1 -1.1104 9.49677 5.42776 23.6158
691 2 2.2208 8.16335 9.77112 22.1344
692 1 -1.1104 9.6082 8.20311 26.3344
693 2 2.2208 8.0219 12.5755 24.8178
694 2 2.2208 8.11639 6.83162 24.9832
695 2 2.2208 10.7321 6.86292 22.0483
696 2 2.2208 10.9955 12.3767 22.0228
697 1 -1.1104 12.3251 8.24815 23.4417
698 1 -1.1104 12.2961 8.36192 26.4208
699 1 -1.1104 12.1715 5.51054 23.3963
700 1 -1.1104 12.3375 11.0622 23.5535
701 2 2.2208 11.0265 9.60038 24.8379
702 1 -1.1104 12.2898 5.44386 26.3789
703 1 -1.1104 12.3114 11.0513 26.2962
704 1 -1.1104 9.4941 8.1666 23.4365
537 1 -1.1104 6.85569 13.9623 20.7674
709 1 -1.1104 6.78033 13.982 23.5232
533 1 -1.1104 1.24957 13.842 20.7138
547 1 -1.1104 6.50407 16.7381 20.659
712 1 -1.1104 6.84601 14.092 26.2379
554 1 -1.1104 3.79424 19.5516 20.6023
717 1 -1.1104 1.11461 13.8757 26.4104
719 2 2.2208 5.1551 20.8201 24.9687
716 1 -1.1104 0.857185 16.7751 26.3384
715 1 -1.1104 0.841844 19.5364 26.3023
720 2 2.2208 5.30852 15.2507 24.8959
647 2 2.2208 2.50106 15.3509 22.0309
649 2 2.2208 2.37682 20.7416 21.9598
652 1 -1.1104 3.85713 16.5715 23.475
655 1 -1.1104 0.996659 16.6892 23.5695
681 1 -1.1104 4.06089 13.847 26.2246
682 1 -1.1104 3.87728 16.7286 26.348
683 2 2.2208 2.32816 18.1828 24.8516
686 1 -1.1104 3.7253 19.3437 26.3105
705 2 2.2208 5.1576 18.0468 22.1124
706 1 -1.1104 1.0733 13.871 23.5573
707 1 -1.1104 0.937558 19.4793 23.4111
711 1 -1.1104 3.70889 19.4616 23.5159
713 1 -1.1104 3.89257 13.8762 23.5226
588 1 -1.1104 6.61065 19.5041 26.3036
714 1 -1.1104 6.56117 16.8322 26.3
718 1 -1.1104 6.53878 19.5577 23.5409
463 1 -1.1104 12.317 13.8502 23.4554
618 2 2.2208 13.6103 17.992 19.3739
574 1 -1.1104 12.3179 16.5984 20.7685
526 2 2.2208 10.8356 20.702 25.0785
524 1 -1.1104 12.2484 16.692 23.4917
617 1 -1.1104 9.34974 16.6942 23.4279
615 2 2.2208 8.06061 15.3549 22.0695
462 2 2.2208 10.8124 17.907 22.0979
374 2 2.2208 5.19629 18.0366 27.698
653 2 2.2208 13.6093 -1.60027 21.979
455 2 2.2208 13.571 18.1351 25.0177
383 2 2.2208 -0.255447 6.71368 27.6618
334 2 2.2208 -0.290113 -1.50042 13.6597
654 2 2.2208 13.6324 1.18039 24.8561
461 2 2.2208 13.5723 20.6547 22.1352
367 2 2.2208 -0.26482 9.60993 13.7071
361 2 2.2208 10.9465 15.2052 13.7114
9019 2 2.2208 11.05 -4.37535 27.7176
370 2 2.2208 7.98835 -1.45426 27.6704
385 2 2.2208 7.99572 9.67078 27.5815
379 2 2.2208 5.33912 6.78667 27.6932
355 2 2.2208 10.9507 9.67815 13.6837
353 2 2.2208 2.44909 12.4418 13.7126
386 2 2.2208 10.9121 12.4334 27.6599
346 2 2.2208 10.8689 -1.60002 13.794
335 2 2.2208 -0.384191 20.8651 13.8118
347 2 2.2208 8.07082 15.3048 27.5643
365 2 2.2208 2.61862 -1.6967 27.7036
721 2 2.2208 5.2292 23.6917 5.25945
722 2 2.2208 5.19381 29.2643 5.24012
723 1 -1.1104 0.905148 25.1081 1.03204
724 1 -1.1104 1.04754 25.0312 3.88536
725 1 -1.1104 0.81537 22.2111 0.932882
726 1 -1.1104 1.04653 27.9752 0.987925
727 2 2.2208 5.07365 26.4354 2.39944
728 1 -1.1104 0.960101 22.1734 3.80281
729 1 -1.1104 0.938687 27.7132 3.71542
730 1 -1.1104 3.61497 25.0341 1.02923
731 2 2.2208 2.27235 23.6561 2.48502
732 2 2.2208 2.41276 29.1911 2.44512
733 1 -1.1104 3.82633 25.1034 3.95887
734 2 2.2208 2.47141 26.4824 5.28274
735 1 -1.1104 3.65617 22.1385 1.10517
736 1 -1.1104 3.78433 27.667 1.01491
737 1 -1.1104 3.71812 22.2861 4.06075
738 1 -1.1104 3.82936 27.8107 3.81946
743 1 -1.1104 6.58682 25.0379 3.82131
744 1 -1.1104 6.46325 22.3793 1.01685
746 1 -1.1104 6.59768 22.2527 3.69629
742 1 -1.1104 6.59255 25.094 0.994823
861 2 2.2208 13.6191 40.5703 2.53991
745 1 -1.1104 6.49008 27.9037 1.04538
747 1 -1.1104 6.51538 27.9064 3.79301
1065 2 2.2208 8.00581 46.3425 13.5875
865 1 -1.1104 1.03847 27.7597 6.57468
867 1 -1.1104 6.61623 27.7527 6.65631
862 1 -1.1104 0.866083 24.8179 6.74092
748 2 2.2208 10.8419 23.7002 5.35503
749 2 2.2208 10.8613 29.2212 5.24671
750 1 -1.1104 12.1429 25.0222 1.10569
751 1 -1.1104 12.2733 25.0762 3.93439
752 1 -1.1104 12.2519 22.1881 1.21492
753 1 -1.1104 12.1594 27.8778 1.0182
754 2 2.2208 10.8333 26.3749 2.4493
755 1 -1.1104 12.1661 22.2316 3.95506
756 1 -1.1104 12.2045 27.7659 3.85531
757 1 -1.1104 9.47785 25.138 1.08933
758 2 2.2208 7.98429 23.665 2.37817
759 2 2.2208 8.03375 29.2737 2.42042
760 1 -1.1104 9.11488 25.0329 3.93038
761 2 2.2208 7.92948 26.3566 5.24369
762 1 -1.1104 9.40335 22.2886 0.975821
763 1 -1.1104 9.42458 27.7989 0.957998
764 1 -1.1104 9.40157 22.4348 3.97856
765 1 -1.1104 9.43919 27.8133 3.81419
1034 2 2.2208 13.6292 43.5006 5.31656
768 2 2.2208 13.6533 26.493 5.29869
766 2 2.2208 13.6109 23.7246 2.66577
1039 2 2.2208 -0.375165 26.4015 8.0741
897 1 -1.1104 12.328 27.8981 6.59858
899 1 -1.1104 9.30813 22.1102 6.78112
1411 1 -1.1104 1.13853 47.4493 0.8783
769 2 2.2208 5.22862 34.8394 5.2565
770 1 -1.1104 1.03305 30.6984 0.952671
771 1 -1.1104 1.13544 36.2035 1.09184
773 1 -1.1104 0.845921 30.5884 3.72072
774 1 -1.1104 0.954461 36.158 3.85618
776 1 -1.1104 1.14666 33.3549 1.08336
777 2 2.2208 5.25352 32.051 2.2807
778 2 2.2208 5.14161 37.6409 2.47361
779 1 -1.1104 1.06178 33.4849 3.8514
781 1 -1.1104 3.77369 30.541 1.01361
782 1 -1.1104 3.87817 36.3255 0.88292
783 2 2.2208 2.41475 34.7736 2.45575
784 1 -1.1104 3.8751 30.6228 3.77513
785 1 -1.1104 3.63761 36.2909 3.87638
786 2 2.2208 2.34398 32.0908 5.14613
787 2 2.2208 2.42482 37.6162 5.3107
788 1 -1.1104 3.85131 33.4683 0.914607
789 1 -1.1104 3.99712 33.4155 3.8423
794 1 -1.1104 6.71507 30.8119 3.67379
1609 1 -1.1104 3.81521 47.4897 6.54732
921 1 -1.1104 6.34097 30.585 6.57983
775 1 -1.1104 6.48754 36.1725 3.76351
795 1 -1.1104 6.56748 33.4452 0.943585
924 1 -1.1104 6.4369 33.445 6.70234
793 1 -1.1104 6.70609 30.749 0.80582
772 1 -1.1104 6.59976 36.3225 0.965128
1019 2 2.2208 10.8903 43.3778 7.9914
925 1 -1.1104 3.70556 30.7081 6.48866
920 1 -1.1104 0.910069 36.1562 6.54389
923 1 -1.1104 0.787312 33.3955 6.66109
767 2 2.2208 13.4962 29.2827 2.50351
780 1 -1.1104 6.67985 33.5507 3.7952
1038 2 2.2208 -0.29681 23.5712 10.8481
796 2 2.2208 10.8519 34.9418 5.24572
797 1 -1.1104 12.1592 30.8526 0.952688
798 1 -1.1104 12.2312 36.4228 1.0906
799 1 -1.1104 12.1471 30.7176 3.92965
800 1 -1.1104 12.1403 36.3366 3.8969
801 1 -1.1104 12.3878 33.6001 0.841162
802 2 2.2208 10.6437 32.1547 2.28868