ITEM: TIMESTEP
30000
ITEM: NUMBER OF ATOMS
17730
ITEM: BOX BOUNDS pp pp pp
-3.6911425038190598e-01 2.7709114250381806e+01
-4.3500209932718867e+00 3.3243002099327759e+02
-3.7211427876308611e-01 2.7712114278762812e+01
ITEM: ATOMS id type q x y z
1 2 2.2208 5.41117 1.31041 5.20558
2 1 -1.1104 1.19479 -2.76408 0.889829
3 1 -1.1104 1.06154 2.88777 1.05701
6 1 -1.1104 1.0107 -2.91373 3.8889
7 1 -1.1104 1.0489 2.65736 3.91671
10 1 -1.1104 1.03107 0.0599022 0.956202
12 2 2.2208 5.27484 -1.53829 2.38208
14 1 -1.1104 1.25437 -0.0925865 3.8008
16 1 -1.1104 4.14319 -3.01095 0.946043
17 1 -1.1104 4.02832 2.80888 0.840839
18 2 2.2208 2.63636 1.27043 2.39478
19 1 -1.1104 3.81146 -3.04182 3.82438
20 1 -1.1104 3.87603 2.78964 3.86659
21 2 2.2208 2.45427 -1.5148 5.2272
23 1 -1.1104 3.93512 -0.140829 0.929686
24 1 -1.1104 3.98865 -0.0148838 3.79175
13 2 2.2208 5.3771 4.10534 2.28362
22 2 2.2208 2.46433 4.13022 5.2458
351 2 2.2208 2.51146 6.92921 13.5107
25 2 2.2208 -0.235865 -1.4377 2.33988
361 2 2.2208 10.97 15.1095 13.5695
137 2 2.2208 -0.310944 18.0127 5.2302
362 2 2.2208 8.26176 18.0471 13.657
201 2 2.2208 -0.329472 1.41927 10.75
174 1 -1.1104 4.0105 -0.138981 6.5495
172 1 -1.1104 3.95982 -2.9551 6.63625
170 1 -1.1104 0.961592 -0.0811804 6.86147
166 1 -1.1104 1.05987 -2.87593 6.65965
173 1 -1.1104 3.77108 2.6016 6.63647
200 2 2.2208 -0.364236 -1.60821 8.04552
297 1 -1.1104 6.78083 13.832 12.1196
154 1 -1.1104 9.44202 13.933 6.63374
324 2 2.2208 10.8122 21.0297 7.99007
233 2 2.2208 13.6074 4.13802 5.18166
4 1 -1.1104 6.83636 -2.91705 0.933095
15 1 -1.1104 6.85554 -0.159032 3.75933
11 1 -1.1104 6.67705 -0.0935529 0.993646
8 1 -1.1104 6.61261 -2.97793 3.82072
9 1 -1.1104 6.77424 2.6131 3.7844
5 1 -1.1104 6.78961 2.76724 0.902143
31 2 2.2208 10.9735 1.26849 5.31521
32 1 -1.1104 12.4223 -2.88763 0.957817
33 1 -1.1104 12.2922 2.70883 1.0596
34 1 -1.1104 12.3625 -2.98068 4.02049
35 1 -1.1104 12.1965 2.64823 3.81126
36 1 -1.1104 12.374 -0.138341 1.04309
37 2 2.2208 10.9268 -1.48912 2.50138
38 2 2.2208 10.892 4.10977 2.41774
39 1 -1.1104 12.2644 -0.0794138 3.9187
40 1 -1.1104 9.60213 -2.99741 1.03073
41 1 -1.1104 9.59085 2.54899 1.08008
42 2 2.2208 8.16066 1.27658 2.3669
43 1 -1.1104 9.46889 -3.04489 3.90147
44 1 -1.1104 9.55844 2.67647 3.92674
45 2 2.2208 8.19218 -1.48501 5.40231
46 2 2.2208 8.08345 4.09598 5.08593
47 1 -1.1104 9.50384 -0.163594 1.06115
48 1 -1.1104 9.56663 -0.234794 3.95021
171 1 -1.1104 6.81666 -0.0817562 6.64397
30 2 2.2208 -0.3318 9.85557 8.04424
169 1 -1.1104 6.68082 2.65701 6.61908
209 1 -1.1104 9.45952 2.70314 6.60869
206 1 -1.1104 12.2388 2.61658 6.74454
322 1 -1.1104 9.50053 13.7756 12.16
359 2 2.2208 5.3393 15.2432 13.6702
54 2 2.2208 5.19139 6.82654 5.17732
55 2 2.2208 5.40747 12.4501 5.16908
56 1 -1.1104 1.09465 8.38512 0.855358
58 1 -1.1104 1.10357 8.34715 3.80925
60 1 -1.1104 1.14135 5.69826 1.0761
61 1 -1.1104 1.22757 11.2849 0.917012
66 2 2.2208 5.36258 9.7908 2.42119
67 1 -1.1104 0.987331 5.49696 3.81297
68 1 -1.1104 0.960136 11.0122 3.83592
71 1 -1.1104 3.87492 8.27895 1.0136
72 2 2.2208 2.48938 6.89562 2.5175
73 2 2.2208 2.58161 12.5141 2.38463
74 1 -1.1104 3.99355 8.3396 3.81092
75 2 2.2208 2.35538 9.82496 5.35595
76 1 -1.1104 3.89036 5.5913 1.02504
77 1 -1.1104 4.0099 11.0419 0.979924
79 1 -1.1104 3.84237 5.49594 3.72712
80 1 -1.1104 3.94347 11.1385 3.80637
82 2 2.2208 -0.290373 9.66871 2.34073
83 2 2.2208 -0.287925 12.4686 5.09244
62 1 -1.1104 1.08268 11.3028 6.56522
239 1 -1.1104 3.83045 5.54424 6.63357
59 1 -1.1104 6.67663 8.25451 3.94144
70 1 -1.1104 6.78785 11.0547 3.88212
78 1 -1.1104 3.92897 11.239 6.51493
236 1 -1.1104 1.00263 5.43502 6.64087
238 1 -1.1104 3.73557 8.3966 6.54361
323 1 -1.1104 12.385 16.7945 9.37357
235 1 -1.1104 6.73576 8.39634 6.74868
69 1 -1.1104 6.68717 5.4364 3.73091
64 1 -1.1104 6.71877 11.0474 0.948095
63 1 -1.1104 6.81652 5.47791 0.910941
57 1 -1.1104 6.72699 8.35698 0.957796
84 2 2.2208 10.7816 6.9103 5.16527
85 2 2.2208 10.8919 12.469 5.29874
86 1 -1.1104 12.4749 8.38777 0.992381
87 1 -1.1104 12.1867 8.2767 3.90837
88 1 -1.1104 12.2846 5.60503 0.891225
89 1 -1.1104 12.2322 11.2941 0.969958
91 2 2.2208 10.9803 9.62344 2.47939
92 1 -1.1104 12.1361 5.46674 3.74424
93 1 -1.1104 12.3621 11.1562 3.77524
94 1 -1.1104 9.68304 8.21152 0.973192
95 2 2.2208 8.09561 6.84683 2.31951
96 2 2.2208 8.10232 12.4954 2.41055
97 1 -1.1104 9.511 8.33255 3.7624
98 2 2.2208 8.0587 9.75318 5.29196
99 1 -1.1104 9.66715 5.34098 0.854631
100 1 -1.1104 9.39654 11.0391 0.993214
102 1 -1.1104 9.40179 5.56167 3.76892
103 1 -1.1104 9.65574 10.9948 3.8437
269 1 -1.1104 9.4825 5.42943 6.58888
319 1 -1.1104 9.68088 13.999 9.39808
266 1 -1.1104 12.2651 5.47871 6.56812
237 1 -1.1104 6.59462 5.44806 6.48974
267 1 -1.1104 9.34295 8.2716 6.45574
101 1 -1.1104 9.41068 11.2366 6.58116
325 2 2.2208 10.9494 15.3571 8.01757
354 2 2.2208 8.00598 6.87191 13.6808
106 2 2.2208 5.35632 18.1139 5.31907
107 1 -1.1104 1.15124 13.9935 0.934417
109 1 -1.1104 1.15189 19.5183 0.968345
113 1 -1.1104 1.17176 13.896 3.6856
114 1 -1.1104 1.26767 19.4581 3.69595
116 1 -1.1104 1.2221 16.7529 1.1521
119 2 2.2208 5.37538 15.2559 2.39465
120 2 2.2208 5.22085 20.8661 2.49357
121 1 -1.1104 1.09227 16.7229 3.80186
123 1 -1.1104 3.93779 13.9225 0.989471
125 1 -1.1104 3.83442 19.5056 1.1593
127 2 2.2208 2.56541 18.0532 2.56519
128 1 -1.1104 3.86392 13.8556 3.93357
129 1 -1.1104 3.99078 19.4257 4.12632
130 2 2.2208 2.67428 15.2745 5.24244
131 2 2.2208 2.37309 20.8026 5.17741
132 1 -1.1104 3.95974 16.7039 1.08007
134 1 -1.1104 4.11566 16.6034 4.00425
117 1 -1.1104 1.15396 16.7402 6.58675
339 2 2.2208 2.47056 1.11238 13.5255
136 2 2.2208 -0.296773 20.9631 2.36016
126 1 -1.1104 3.79683 19.4749 6.79703
124 1 -1.1104 3.95695 13.9747 6.69373
108 1 -1.1104 1.18333 13.901 6.45775
133 1 -1.1104 3.93263 16.769 6.64079
316 2 2.2208 8.18296 20.8897 10.9269
315 1 -1.1104 9.53254 16.5282 12.3545
138 1 -1.1104 6.59276 19.5268 1.21886
115 1 -1.1104 6.72028 13.8807 3.82484
149 1 -1.1104 12.3202 16.7701 6.59036
139 1 -1.1104 6.71978 19.425 3.93501
140 1 -1.1104 6.83876 16.6651 1.05149
110 1 -1.1104 6.75193 13.8056 1.10289
122 1 -1.1104 6.74593 16.7418 3.91711
141 2 2.2208 10.9326 18.0971 5.25643
142 1 -1.1104 12.4262 14.0103 0.987118
144 1 -1.1104 12.317 19.6181 0.956873
146 1 -1.1104 12.2809 13.8887 3.9117
147 1 -1.1104 12.2733 19.5698 3.91422
148 1 -1.1104 12.4109 16.8186 0.930529
150 2 2.2208 10.9582 15.3053 2.54455
151 2 2.2208 10.7336 20.8925 2.47935
152 1 -1.1104 12.2761 16.6769 3.90751
153 1 -1.1104 9.51628 14.0495 1.11906
155 1 -1.1104 9.37961 19.5006 1.21516
157 2 2.2208 8.02683 18.0944 2.50941
158 1 -1.1104 9.55932 13.8538 3.90032
159 1 -1.1104 9.32115 19.3915 3.80324
160 2 2.2208 8.0839 15.3585 5.24281
161 2 2.2208 8.04779 20.9613 5.19972
162 1 -1.1104 9.61618 16.6791 1.0271
164 1 -1.1104 9.56174 16.6461 3.8237
112 1 -1.1104 6.79168 19.6395 6.68696
111 1 -1.1104 6.70926 13.9591 6.51396
145 1 -1.1104 12.3525 19.4729 6.59567
156 1 -1.1104 9.57225 19.658 6.49053
143 1 -1.1104 12.3711 13.971 6.67622
163 1 -1.1104 9.50216 16.7142 6.6784
314 1 -1.1104 9.64434 16.8022 9.51583
318 1 -1.1104 9.63944 19.5813 9.45936
167 1 -1.1104 0.930076 2.79293 6.60248
9019 2 2.2208 10.9113 -4.27973 -0.311177
232 2 2.2208 13.6111 9.74811 5.24434
27 2 2.2208 -0.356817 4.14706 2.46762
306 1 -1.1104 6.8117 16.6483 12.2343
175 2 2.2208 5.46922 1.15833 10.9175
176 1 -1.1104 1.04641 -2.99405 12.2506
177 1 -1.1104 1.09608 2.73005 12.0502
180 1 -1.1104 1.07769 -2.96313 9.32655
181 1 -1.1104 1.17074 2.7328 9.32238
184 1 -1.1104 0.978216 -0.101012 12.251
186 2 2.2208 5.38245 -1.67312 8.01773
187 2 2.2208 5.25292 3.87492 7.99776
188 1 -1.1104 1.12782 -0.0625644 9.46535
190 1 -1.1104 3.9142 -2.99395 12.3315
191 1 -1.1104 3.74841 2.69614 12.2742
192 2 2.2208 2.56167 1.15594 8.1278
193 1 -1.1104 3.88471 -3.11376 9.49072
194 1 -1.1104 4.17015 2.43444 9.32965
195 2 2.2208 2.51958 -1.72415 10.8482
196 2 2.2208 2.4921 4.10007 10.8256
197 1 -1.1104 3.90791 -0.248615 12.1881
198 1 -1.1104 3.93613 -0.340572 9.4232
331 2 2.2208 11.0794 18.1518 10.739
341 2 2.2208 5.21686 4.09669 13.5025
182 1 -1.1104 6.77046 -3.06865 9.60369
313 2 2.2208 -0.274666 15.25 7.89627
326 1 -1.1104 12.3061 16.5281 12.1085
290 1 -1.1104 6.74635 13.891 9.40522
135 2 2.2208 -0.281276 15.3137 2.37946
29 2 2.2208 -0.304232 6.86313 10.8743
168 1 -1.1104 6.87426 -2.9842 6.63518
207 1 -1.1104 12.4127 -0.235716 6.70743
179 1 -1.1104 6.67699 2.56246 12.2962
183 1 -1.1104 6.79429 2.61832 9.474
189 1 -1.1104 6.89623 -0.161314 9.54105
210 1 -1.1104 9.50054 -0.138228 6.84017
185 1 -1.1104 6.73489 -0.157336 12.4024
178 1 -1.1104 6.70818 -3.00573 12.4432
205 1 -1.1104 12.4786 -2.99832 6.73709
208 1 -1.1104 9.67812 -2.95661 6.80376
211 2 2.2208 10.9388 1.4114 10.9111
212 1 -1.1104 12.5048 -3.06682 12.1743
213 1 -1.1104 12.3602 2.72045 12.1509
214 1 -1.1104 12.3608 -3.02061 9.36441
215 1 -1.1104 12.3638 2.77073 9.49835
216 1 -1.1104 12.2293 -0.209908 12.194
217 2 2.2208 11.0032 -1.59344 8.20405
218 2 2.2208 10.8329 4.14169 8.03352
219 1 -1.1104 12.2802 0.0246801 9.48112
220 1 -1.1104 9.66577 -2.90372 12.4158
221 1 -1.1104 9.48271 2.81123 12.2156
222 2 2.2208 8.12851 1.35917 8.06937
223 1 -1.1104 9.53669 -3.08738 9.52612
224 1 -1.1104 9.4454 2.57762 9.50942
225 2 2.2208 8.13123 -1.66112 10.9575
226 2 2.2208 8.03156 4.06561 10.8609
227 1 -1.1104 9.50914 -0.0425949 12.3008
228 1 -1.1104 9.555 -0.325233 9.57053
320 2 2.2208 8.20337 18.2356 8.06921
321 1 -1.1104 9.50848 19.4726 12.2688
234 1 -1.1104 1.00991 8.33136 6.56697
296 1 -1.1104 6.68794 19.3817 12.3016
375 2 2.2208 2.54338 20.9763 -0.350688
360 2 2.2208 10.9636 20.8686 13.4987
330 1 -1.1104 12.4331 13.7812 12.2873
240 2 2.2208 5.28157 6.93131 10.762
241 2 2.2208 5.16984 12.4887 10.8761
242 1 -1.1104 1.15335 8.27432 12.3635
244 1 -1.1104 0.97086 8.22468 9.4423
246 1 -1.1104 1.13141 5.47947 12.0659
247 1 -1.1104 0.893866 10.9859 12.0596
250 2 2.2208 5.34008 9.68963 7.78614
251 1 -1.1104 1.2543 5.60249 9.41837
252 1 -1.1104 1.22987 11.1876 9.2987
255 1 -1.1104 3.94513 8.3406 12.0444
256 2 2.2208 2.45105 6.94938 8.09991
257 2 2.2208 2.51338 12.5586 8.06806
258 1 -1.1104 3.87774 8.30999 9.23484
259 2 2.2208 2.43614 9.69598 10.6727
260 1 -1.1104 3.83163 5.59225 12.1556
261 1 -1.1104 3.90717 11.0583 12.2861
262 1 -1.1104 3.85221 5.39259 9.4239
263 1 -1.1104 3.86305 11.0517 9.42454
248 1 -1.1104 6.53035 5.52754 12.2357
288 1 -1.1104 6.74318 19.7917 9.49023
327 1 -1.1104 12.3564 19.5539 9.31482
265 1 -1.1104 12.2136 8.36776 6.68908
254 1 -1.1104 6.68496 11.0394 9.26023
243 1 -1.1104 6.59421 8.23626 12.2831
245 1 -1.1104 6.59935 8.13495 9.38872
65 1 -1.1104 6.73887 11.1199 6.65913
249 1 -1.1104 6.68009 11.0658 12.2512
253 1 -1.1104 6.59099 5.28378 9.3965
90 1 -1.1104 12.295 11.1106 6.49219
264 1 -1.1104 9.69348 10.9488 9.39823
268 1 -1.1104 9.43228 5.37838 9.3803
270 1 -1.1104 9.4501 10.9498 12.217
271 1 -1.1104 9.41007 5.54686 12.0831
272 2 2.2208 8.06696 9.78179 10.8362
273 1 -1.1104 9.44504 8.28499 9.4334
274 2 2.2208 8.14551 12.5986 7.97821
275 2 2.2208 8.05908 6.73624 7.87103
276 2 2.2208 10.7606 6.84741 10.8159
277 2 2.2208 10.982 12.5251 10.7485
278 1 -1.1104 12.4225 8.36404 12.2831
279 1 -1.1104 12.2147 8.32084 9.52559
280 1 -1.1104 12.2365 5.56501 12.2542
281 1 -1.1104 12.313 11.1239 12.1859
282 2 2.2208 10.8014 9.68112 7.88371
283 1 -1.1104 12.1855 5.53719 9.33757
284 1 -1.1104 12.2876 11.3104 9.27347
285 1 -1.1104 9.5155 8.15336 12.277
317 2 2.2208 8.19244 15.259 10.7753
51 2 2.2208 -0.254391 12.582 10.7845
230 2 2.2208 13.6479 -1.46795 10.7138
302 1 -1.1104 0.975248 19.4093 6.54704
293 2 2.2208 5.30676 20.9166 7.99536
309 2 2.2208 2.5146 20.8214 10.7178
299 1 -1.1104 1.14929 13.8131 12.253
298 1 -1.1104 1.04574 19.5072 12.1867
310 2 2.2208 2.58907 15.3125 10.6958
295 2 2.2208 5.43757 15.2844 8.03183
308 1 -1.1104 3.86279 16.8291 12.3606
301 1 -1.1104 4.03051 19.4408 9.46169
300 2 2.2208 5.30054 18.0647 10.923
307 1 -1.1104 1.12946 16.5361 12.3423
305 1 -1.1104 4.01655 13.7719 9.54039
294 1 -1.1104 1.18566 13.9867 9.29318
303 2 2.2208 2.50933 17.9858 8.02572
304 1 -1.1104 4.16326 16.7686 9.34213
286 1 -1.1104 3.84095 19.5861 12.2492
287 1 -1.1104 3.85548 13.893 12.3143
291 1 -1.1104 1.11617 19.2806 9.41099
292 1 -1.1104 1.18225 16.5647 9.4015
355 2 2.2208 10.913 9.62755 13.6358
118 1 -1.1104 6.84769 16.7007 6.7613
328 1 -1.1104 12.4372 14.0639 9.39093
9006 2 2.2208 -0.333892 -4.32297 5.20305
9008 2 2.2208 10.8894 -4.35089 5.48826
329 1 -1.1104 12.4902 19.3467 12.1196
347 2 2.2208 8.18786 15.2923 -0.359453
289 1 -1.1104 6.87516 16.7339 9.58697
334 2 2.2208 -0.271946 -1.60018 13.6248
352 2 2.2208 5.27037 9.64747 13.5872
202 2 2.2208 13.5883 6.93805 8.03499
343 2 2.2208 8.15963 1.24254 13.6309
311 2 2.2208 -0.164697 20.8625 7.97246
356 2 2.2208 8.12804 12.3515 13.4867
337 2 2.2208 -0.316093 4.19723 13.6542
374 2 2.2208 5.31911 18.0913 -0.362532
358 2 2.2208 5.33499 20.8268 13.6561
350 2 2.2208 10.875 4.11777 13.6155
338 2 2.2208 5.39263 -1.51728 13.586
373 2 2.2208 2.54771 15.354 -0.374853
366 2 2.2208 2.4682 4.13567 -0.356638
388 2 2.2208 5.39107 1.19216 16.4268
389 1 -1.1104 0.923099 -2.94526 17.8941
390 1 -1.1104 1.15775 2.66029 17.7635
393 1 -1.1104 1.00913 -3.05159 15.0894
395 1 -1.1104 1.06682 2.65885 15.015
401 1 -1.1104 1.20678 -0.263506 17.7202
403 2 2.2208 5.4289 -1.49382 19.2537
404 2 2.2208 5.2245 4.10368 19.2128
405 1 -1.1104 0.97573 -0.224815 14.967
409 1 -1.1104 3.81208 -2.81445 17.8881
410 1 -1.1104 3.88879 2.81831 17.8187
411 2 2.2208 2.56119 1.2025 19.205
412 1 -1.1104 3.86455 -3.03276 15.0762
414 1 -1.1104 3.99307 2.68709 15.0464
416 2 2.2208 2.52433 -1.52885 16.4609
417 2 2.2208 2.49221 4.10624 16.358
418 1 -1.1104 4.01023 0.0159914 17.7908
419 1 -1.1104 3.98255 -0.230483 14.8569
368 2 2.2208 -0.360117 1.41022 27.6007
9102 2 2.2208 2.46841 -4.26263 24.7662
381 2 2.2208 5.23131 12.5119 27.7115
399 1 -1.1104 6.71991 2.62353 15.0529
9138 2 2.2208 8.16719 -4.29979 19.1165
406 1 -1.1104 1.09246 -0.121128 20.6018
394 1 -1.1104 0.950842 -2.90868 20.6091
9099 2 2.2208 8.19381 -4.2402 24.7073
384 2 2.2208 11.0177 7.03372 27.7038
378 2 2.2208 13.6169 4.12699 27.6581
714 1 -1.1104 6.70348 16.6877 26.4341
402 1 -1.1104 6.81494 -0.233985 17.8332
392 1 -1.1104 6.74285 2.76925 17.7871
391 1 -1.1104 6.73401 -3.08846 17.7943
407 1 -1.1104 6.86029 -0.146849 15.1422
397 1 -1.1104 6.67855 -2.92119 15.0758
431 2 2.2208 11.0522 1.21668 16.5227
432 1 -1.1104 12.2753 -2.9764 17.8384
433 1 -1.1104 12.3274 2.87522 17.8947
434 1 -1.1104 12.3376 -2.83324 14.9878
436 1 -1.1104 12.337 2.69016 15.0681
438 1 -1.1104 12.4104 -0.112868 17.9348
439 2 2.2208 10.9768 -1.53246 19.1734
440 2 2.2208 10.8947 4.05444 19.1797
441 1 -1.1104 12.3523 -0.106638 15.0071
443 1 -1.1104 9.55727 -3.10067 17.8309
444 1 -1.1104 9.63988 2.61166 17.7801
445 2 2.2208 8.03239 1.37483 19.1601
446 1 -1.1104 9.54137 -3.08528 15.1066
448 1 -1.1104 9.52442 2.47944 15.0314
450 2 2.2208 8.21471 -1.66531 16.4487
451 2 2.2208 8.07135 4.02351 16.4246
452 1 -1.1104 9.72331 -0.238188 17.8522
453 1 -1.1104 9.62331 -0.272332 15.1688
442 1 -1.1104 12.3885 -0.181689 20.7017
400 1 -1.1104 6.6962 2.73048 20.5251
454 1 -1.1104 9.47209 -0.0055441 20.7139
449 1 -1.1104 9.494 2.76168 20.4779
435 1 -1.1104 12.3492 -2.90038 20.7339
447 1 -1.1104 9.5779 -2.69231 20.4907
427 2 2.2208 -0.277749 4.11035 19.158
709 1 -1.1104 6.71069 13.9326 23.5939
615 2 2.2208 8.15504 15.3314 22.0565
464 2 2.2208 5.31301 6.83995 16.3148
465 2 2.2208 5.31216 12.5277 16.4676
466 1 -1.1104 1.07857 8.33577 17.9736
468 1 -1.1104 0.893485 8.33625 15.1238
472 1 -1.1104 1.08665 5.51249 17.8769
473 1 -1.1104 1.13743 11.0396 17.7571
476 2 2.2208 5.2367 9.65711 19.2767
477 1 -1.1104 1.13475 5.48812 14.9104
479 1 -1.1104 1.10599 11.1219 15.0051
485 1 -1.1104 3.95563 8.3057 17.7208
486 2 2.2208 2.46238 6.7785 19.27
487 2 2.2208 2.45625 12.5381 19.1941
488 1 -1.1104 3.77961 8.19315 14.7579
490 2 2.2208 2.50545 9.63257 16.424
491 1 -1.1104 3.81691 5.50811 17.85
492 1 -1.1104 3.95894 11.2218 17.8793
493 1 -1.1104 3.89146 5.52582 14.9748
495 1 -1.1104 3.83147 11.008 15.1358
480 1 -1.1104 1.09782 11.2214 20.6196
621 2 2.2208 -0.352503 6.90757 16.5257
478 1 -1.1104 1.09503 5.31101 20.4943
458 2 2.2208 -0.24701 20.936 19.3473
622 2 2.2208 -0.337745 9.79518 19.2818
475 1 -1.1104 6.79056 11.1926 17.9792
489 1 -1.1104 3.789 8.25444 20.4876
496 1 -1.1104 3.76487 11.0677 20.6101
590 1 -1.1104 9.56527 19.5027 26.368
588 1 -1.1104 6.85073 19.4685 26.3672
474 1 -1.1104 6.60048 5.45653 17.7508
470 1 -1.1104 6.60817 8.40498 15.045
467 1 -1.1104 6.63334 8.30119 17.8531
481 1 -1.1104 6.5775 5.4286 15.0429
483 1 -1.1104 6.67374 11.11 15.0231
500 2 2.2208 10.8125 6.8438 16.4747
501 2 2.2208 10.8766 12.3533 16.2779
502 1 -1.1104 12.3555 8.19311 17.7602
503 1 -1.1104 12.3728 8.14761 14.98
505 1 -1.1104 12.2134 5.5621 17.9449
506 1 -1.1104 12.4104 10.7978 17.7378
507 2 2.2208 10.8869 9.67643 19.1808
508 1 -1.1104 12.2614 5.45526 15.1358
510 1 -1.1104 12.3815 10.7589 14.9477
512 1 -1.1104 9.54721 8.32335 17.7573
513 2 2.2208 8.04985 6.77843 19.2576
514 2 2.2208 8.11134 12.5532 19.2285
515 1 -1.1104 9.42508 8.12453 15.0385
517 2 2.2208 8.03815 9.6908 16.4626
518 1 -1.1104 9.35977 5.56498 17.7603
519 1 -1.1104 9.55334 11.0791 17.7992
520 1 -1.1104 9.37566 5.41329 14.8963
522 1 -1.1104 9.49689 10.8387 14.9593
482 1 -1.1104 6.63632 5.41999 20.6068
471 1 -1.1104 6.54174 8.2396 20.5475
484 1 -1.1104 6.64207 11.0449 20.662
516 1 -1.1104 9.38843 8.23153 20.451
511 1 -1.1104 12.3495 11.0577 20.647
499 1 -1.1104 12.3397 19.7192 26.1836
562 1 -1.1104 9.65544 19.3469 23.3519
567 1 -1.1104 12.2195 13.8345 20.5356
383 2 2.2208 -0.335634 6.88708 27.7182
9170 2 2.2208 -0.297747 -4.31541 16.4534
708 2 2.2208 13.6429 12.4292 24.7539
527 2 2.2208 5.41818 18.021 16.4645
528 1 -1.1104 1.01744 13.7856 17.8747
529 1 -1.1104 1.07712 19.4152 17.8679
532 1 -1.1104 1.02609 13.8719 15.0268
534 1 -1.1104 1.15494 19.4774 15.0534
540 1 -1.1104 1.10412 16.6683 17.9757
542 2 2.2208 5.4193 15.265 19.1521
543 2 2.2208 5.35159 20.7806 19.3513
544 1 -1.1104 1.12347 16.7489 15.2405
548 1 -1.1104 3.9562 13.9888 17.7652
549 1 -1.1104 3.97351 19.4336 17.9657
550 2 2.2208 2.48061 18.0846 19.3204
551 1 -1.1104 4.00272 13.7571 15.0334
553 1 -1.1104 3.93042 19.5168 15.1272
555 2 2.2208 2.56401 15.3662 16.5406
556 2 2.2208 2.56129 20.7388 16.5891
557 1 -1.1104 3.95428 16.6842 17.9057
558 1 -1.1104 4.02953 16.618 15.0554
552 1 -1.1104 3.93196 13.928 20.4882
545 1 -1.1104 1.11492 16.7901 20.7475
559 1 -1.1104 3.97072 16.5377 20.5824
533 1 -1.1104 0.988585 13.9805 20.6935
535 1 -1.1104 1.13863 19.5702 20.7471
586 1 -1.1104 9.60769 16.6335 20.5763
530 1 -1.1104 6.75793 13.9731 17.6778
536 1 -1.1104 6.75747 13.8735 14.9336
531 1 -1.1104 6.79268 19.4254 17.8266
546 1 -1.1104 6.68971 16.6195 14.8443
541 1 -1.1104 6.7154 16.7649 17.739
538 1 -1.1104 6.77953 19.4452 14.9505
563 2 2.2208 10.9717 17.9084 16.2932
564 1 -1.1104 12.3967 13.8261 17.6732
565 1 -1.1104 12.326 19.3999 17.7264
566 1 -1.1104 12.2394 13.6111 15.0018
568 1 -1.1104 12.1992 19.4688 14.8165
570 1 -1.1104 12.3183 16.6153 18.0066
571 2 2.2208 10.8678 15.1863 19.1607
572 2 2.2208 11.0311 20.7524 19.2062
573 1 -1.1104 12.3598 16.4399 15.0782
575 1 -1.1104 9.46796 13.841 17.8295
576 1 -1.1104 9.52804 19.338 17.6949
577 2 2.2208 8.07845 17.9963 19.2191
578 1 -1.1104 9.55933 13.6906 14.9535
580 1 -1.1104 9.49592 19.4487 15.0705
582 2 2.2208 8.06535 15.2639 16.1586
583 2 2.2208 8.22325 20.8353 16.3618
584 1 -1.1104 9.53303 16.5664 17.6416
585 1 -1.1104 9.65335 16.5351 14.9124
569 1 -1.1104 12.331 19.4275 20.6654
574 1 -1.1104 12.3373 16.6701 20.7024
581 1 -1.1104 9.4672 19.4012 20.6079
579 1 -1.1104 9.47041 13.8482 20.4984
537 1 -1.1104 6.73387 13.8801 20.6377
547 1 -1.1104 6.71958 16.5892 20.5856
462 2 2.2208 10.8929 18.0861 21.952
349 2 2.2208 8.0914 20.8937 27.7046
413 1 -1.1104 3.83317 -2.84289 20.6099
620 1 -1.1104 9.56007 16.6835 26.2621
626 2 2.2208 -0.349193 4.11607 24.7807
365 2 2.2208 2.54073 -1.49368 27.6323
415 1 -1.1104 3.83915 2.63153 20.7016
420 1 -1.1104 3.89182 -0.140897 20.5897
396 1 -1.1104 1.10026 2.5445 20.5608
648 2 2.2208 -0.349718 12.4831 16.3558
591 2 2.2208 5.25844 1.33075 22.0415
592 1 -1.1104 1.2048 -2.78071 23.5177
593 1 -1.1104 1.15386 2.62607 23.3471
596 1 -1.1104 1.09133 -2.89963 26.1788
597 1 -1.1104 0.842707 2.76423 26.3721
600 1 -1.1104 1.00256 -0.14993 23.2843
602 2 2.2208 5.42817 -1.64976 24.8494
603 2 2.2208 5.30416 4.01384 24.881
604 1 -1.1104 1.07565 -0.133424 26.2662
606 1 -1.1104 3.99883 -2.95059 23.3156
607 1 -1.1104 3.83718 2.60829 23.478
608 2 2.2208 2.52676 1.25399 24.8618
609 1 -1.1104 3.78309 -2.99215 26.2268
610 1 -1.1104 3.97659 2.68243 26.3054
611 2 2.2208 2.53337 -1.41792 22.0586
612 2 2.2208 2.42412 4.0116 22.0703
613 1 -1.1104 3.91807 -0.135049 23.3569
614 1 -1.1104 3.82311 -0.127507 26.3723
625 2 2.2208 -0.244459 1.29006 22.0026
398 1 -1.1104 6.74351 -2.93907 20.5225
9103 2 2.2208 5.33266 -4.38049 21.8967
684 2 2.2208 -0.285857 9.67988 24.8233
372 2 2.2208 8.24584 4.03151 27.6283
408 1 -1.1104 6.60839 0.0421412 20.6163
560 1 -1.1104 12.2529 16.8085 26.2502
437 1 -1.1104 12.2442 2.69094 20.6135
599 1 -1.1104 6.82722 2.7586 26.3177
594 1 -1.1104 6.75625 -2.97364 23.4089
598 1 -1.1104 6.68367 -2.98779 26.3372
601 1 -1.1104 6.58428 0.00337061 23.5653
595 1 -1.1104 6.72334 2.71855 23.4339
605 1 -1.1104 6.69644 -0.0935708 26.2872
627 2 2.2208 10.8424 1.28201 22.1274
628 1 -1.1104 12.3364 -2.83834 23.5825
629 1 -1.1104 12.3325 2.64956 23.3414
630 1 -1.1104 12.271 -3.13931 26.2452
631 1 -1.1104 12.325 2.77248 26.1505
632 1 -1.1104 12.2571 -0.0421216 23.5851
633 2 2.2208 10.9246 -1.44931 24.9267
634 2 2.2208 10.9287 4.20147 24.7882
635 1 -1.1104 12.215 -0.196935 26.3113
636 1 -1.1104 9.61785 -2.79441 23.481
637 1 -1.1104 9.5687 2.74699 23.4577
638 2 2.2208 8.0475 1.27162 25.0082
639 1 -1.1104 9.48844 -2.94438 26.2878
640 1 -1.1104 9.59332 2.63146 26.2825
641 2 2.2208 8.14914 -1.45941 22.1202
642 2 2.2208 8.07379 4.03454 21.9918
643 1 -1.1104 9.42865 -0.0822159 23.6459
644 1 -1.1104 9.49414 -0.120423 26.4524
348 2 2.2208 10.8181 18.1412 27.7199
712 1 -1.1104 6.69734 13.9949 26.3149
455 2 2.2208 13.637 18.1776 24.7761
424 2 2.2208 -0.216385 1.20326 16.3598
623 2 2.2208 -0.195403 18.0267 22.2577
421 2 2.2208 -0.327705 6.87569 22.0007
685 2 2.2208 -0.362115 12.5369 22.0379
469 1 -1.1104 1.02388 8.29558 20.7169
494 1 -1.1104 3.81523 5.55314 20.6454
656 2 2.2208 5.22144 6.85666 22.0539
657 2 2.2208 5.34801 12.4889 21.9561
658 1 -1.1104 1.0443 8.21572 23.4892
660 1 -1.1104 1.2315 8.19304 26.2218
662 1 -1.1104 0.956149 5.38884 23.3412
663 1 -1.1104 1.14636 11.0992 23.3937
666 2 2.2208 5.33584 9.73921 24.8274
667 1 -1.1104 1.16036 5.55591 26.2364
668 1 -1.1104 1.1127 11.1178 26.2157
671 1 -1.1104 3.89079 8.40981 23.3286
672 2 2.2208 2.55571 6.84916 24.8565
673 2 2.2208 2.52163 12.5233 24.8967
674 1 -1.1104 4.07294 8.19529 26.2788
675 2 2.2208 2.48985 9.76875 21.9977
676 1 -1.1104 3.82475 5.43851 23.3881
677 1 -1.1104 3.9637 11.2163 23.4445
678 1 -1.1104 4.05721 5.50274 26.2338
679 1 -1.1104 3.95853 10.9047 26.2412
661 1 -1.1104 6.77931 8.49176 26.1315
9100 2 2.2208 10.9846 -4.18491 22.0186
561 1 -1.1104 9.48224 13.874 23.4568
498 1 -1.1104 12.1357 13.8639 26.1147
523 1 -1.1104 9.44455 11.1751 20.577
509 1 -1.1104 12.3114 5.46216 20.6627
665 1 -1.1104 6.87944 11.0094 23.3643
669 1 -1.1104 6.5849 5.50624 26.1418
659 1 -1.1104 6.61916 8.08712 23.3532
504 1 -1.1104 12.2849 8.2316 20.5694
664 1 -1.1104 6.69601 5.19995 23.5274
670 1 -1.1104 6.728 11.2354 26.2434
521 1 -1.1104 9.50396 5.49409 20.6009
687 1 -1.1104 9.49339 11.0774 26.2
688 1 -1.1104 9.46153 5.40165 26.1609
689 1 -1.1104 9.63453 10.9271 23.4363
690 1 -1.1104 9.45814 5.48121 23.2354
691 2 2.2208 8.06317 9.6466 21.8757
692 1 -1.1104 9.44512 8.20322 26.281
693 2 2.2208 8.22586 12.4486 24.8962
694 2 2.2208 7.99431 6.8375 24.7438
695 2 2.2208 10.8539 6.89193 21.9744
696 2 2.2208 10.7904 12.3988 21.8984
697 1 -1.1104 12.2071 8.15389 23.4619
698 1 -1.1104 12.3169 8.47525 26.2161
699 1 -1.1104 12.3688 5.47816 23.5327
700 1 -1.1104 12.3246 10.9529 23.6428
701 2 2.2208 10.8749 9.63223 24.8799
702 1 -1.1104 12.1978 5.62466 26.198
703 1 -1.1104 12.3411 11.1766 26.3313
704 1 -1.1104 9.43693 8.23481 23.3107
382 2 2.2208 -0.212362 12.5209 27.5942
646 2 2.2208 -0.298156 15.3176 24.859
616 2 2.2208 8.17963 20.9235 21.922
554 1 -1.1104 3.91659 19.3532 20.8508
380 2 2.2208 2.59522 9.6669 27.7043
456 2 2.2208 -0.319607 18.1965 16.4563
717 1 -1.1104 1.11631 13.8403 26.2027
719 2 2.2208 5.43073 20.8592 24.783
716 1 -1.1104 1.14535 16.5562 26.2569
715 1 -1.1104 1.16471 19.3667 26.2014
720 2 2.2208 5.26714 15.2796 24.884
647 2 2.2208 2.36369 15.3435 21.9716
649 2 2.2208 2.52501 20.8672 22.1416
652 1 -1.1104 3.91287 16.6028 23.4247
655 1 -1.1104 1.27732 16.8255 23.5099
681 1 -1.1104 3.89977 13.8765 26.1835
682 1 -1.1104 4.01128 16.7289 26.4988
683 2 2.2208 2.58838 18.0729 24.9056
686 1 -1.1104 3.99916 19.612 26.3504
705 2 2.2208 5.20652 17.9894 22.234
706 1 -1.1104 0.906194 14.0631 23.3833
707 1 -1.1104 1.14163 19.5053 23.5628
711 1 -1.1104 3.99491 19.4548 23.5266
713 1 -1.1104 3.97236 13.8852 23.2933
539 1 -1.1104 6.69635 19.498 20.8363
718 1 -1.1104 6.82716 19.4881 23.5776
385 2 2.2208 8.16032 9.67153 27.6866
526 2 2.2208 10.7928 20.9147 24.8269
525 2 2.2208 10.9317 15.3693 24.8744
463 1 -1.1104 12.3728 13.8858 23.2439
497 1 -1.1104 12.3878 19.4463 23.4107
587 2 2.2208 8.11026 18.0259 24.9561
680 1 -1.1104 6.73148 16.6292 23.6238
589 1 -1.1104 9.34566 13.8199 26.4004
617 1 -1.1104 9.60486 16.7087 23.4354
524 1 -1.1104 12.5225 16.5622 23.5112
386 2 2.2208 10.8555 12.4911 27.7271
369 2 2.2208 10.9741 1.26715 27.6989
379 2 2.2208 5.36238 6.87658 27.6852
342 2 2.2208 -0.315168 15.2265 13.6673
335 2 2.2208 -0.318899 20.9332 13.7416
353 2 2.2208 2.49761 12.3568 13.7711
357 2 2.2208 2.48585 18.1418 13.7486
364 2 2.2208 5.37872 1.38176 27.6555
370 2 2.2208 8.15167 -1.63225 27.7193
346 2 2.2208 10.9826 -1.41441 13.7658
371 2 2.2208 -0.251583 18.035 27.5843
721 2 2.2208 5.35442 23.6637 5.17882
722 2 2.2208 5.26788 29.2781 5.26561
723 1 -1.1104 1.12311 25.017 1.0456
724 1 -1.1104 1.27066 25.0364 3.76909
725 1 -1.1104 1.02823 22.3067 1.06801
726 1 -1.1104 1.08599 27.9282 1.01063
727 2 2.2208 5.19235 26.6284 2.49311
728 1 -1.1104 0.989463 22.2732 3.84559
729 1 -1.1104 0.975486 27.7923 3.85061
730 1 -1.1104 3.95908 25.2729 1.01582
731 2 2.2208 2.47868 23.7086 2.40663
732 2 2.2208 2.49326 29.4433 2.50913
733 1 -1.1104 3.92091 25.0722 3.81666
734 2 2.2208 2.55697 26.4632 5.2422
735 1 -1.1104 3.93332 22.422 1.16672
736 1 -1.1104 3.99337 28.0382 1.07903
737 1 -1.1104 3.76503 22.1802 3.80579
738 1 -1.1104 3.7827 27.9852 3.82541
864 1 -1.1104 1.21763 22.1878 6.55749
869 1 -1.1104 4.02132 22.3182 6.74088
745 1 -1.1104 6.8361 28.009 0.749141
1083 2 2.2208 10.8856 46.2599 -0.243734
741 2 2.2208 -0.35688 26.4893 2.27266
865 1 -1.1104 0.960868 28.0248 6.60176
868 1 -1.1104 3.75995 25.129 6.58401
747 1 -1.1104 6.63508 27.8001 3.80587
1058 2 2.2208 2.47515 40.6376 13.6082
991 1 -1.1104 6.71408 44.7788 6.5723
1039 2 2.2208 -0.30177 26.532 7.95247
743 1 -1.1104 6.6528 25.0288 3.78915
742 1 -1.1104 6.70574 25.1676 1.08744
744 1 -1.1104 6.67453 22.3321 0.928473
746 1 -1.1104 6.67835 22.2168 3.85884
867 1 -1.1104 6.64117 27.9374 6.59706
748 2 2.2208 10.8944 23.727 5.26915
749 2 2.2208 10.9844 29.2545 5.22729
750 1 -1.1104 12.3007 25.2056 0.939514
751 1 -1.1104 12.3026 25.0005 3.78043
752 1 -1.1104 12.1414 22.4074 1.0539
753 1 -1.1104 12.29 28.0017 0.984572
754 2 2.2208 10.8634 26.5456 2.31781
755 1 -1.1104 12.2727 22.1812 3.87395
756 1 -1.1104 12.3588 27.9157 3.73054
757 1 -1.1104 9.43399 25.1611 0.786696
758 2 2.2208 8.03938 23.6516 2.29916
759 2 2.2208 8.15072 29.2047 2.30267
760 1 -1.1104 9.50446 25.0914 3.59909
761 2 2.2208 8.18373 26.4419 5.21963
762 1 -1.1104 9.38929 22.2731 0.965167
763 1 -1.1104 9.59336 28.035 0.829206
764 1 -1.1104 9.4326 22.3474 3.82372
765 1 -1.1104 9.5027 27.813 3.6
897 1 -1.1104 12.3411 27.8561 6.45785
900 1 -1.1104 9.50959 27.7926 6.61889
899 1 -1.1104 9.37576 22.2495 6.76495
863 1 -1.1104 6.54279 25.0559 6.71723
895 1 -1.1104 12.35 25.0474 6.60474
896 1 -1.1104 12.1556 22.3577 6.72802
769 2 2.2208 5.21449 34.9932 5.29823
770 1 -1.1104 1.10226 30.7047 1.04187
771 1 -1.1104 0.895987 36.3648 1.04998
773 1 -1.1104 1.03277 30.7262 3.87687
774 1 -1.1104 1.02417 36.3769 3.80362
776 1 -1.1104 1.03238 33.5101 0.88679
777 2 2.2208 5.19677 32.2268 2.33296
778 2 2.2208 5.0355 37.873 2.36352
779 1 -1.1104 0.902754 33.6011 3.81807
781 1 -1.1104 3.90321 30.7332 0.931187
782 1 -1.1104 3.76358 36.4023 1.0648
783 2 2.2208 2.31999 34.9938 2.43212
784 1 -1.1104 3.84594 30.8253 3.9793
785 1 -1.1104 3.75539 36.4486 3.87054
786 2 2.2208 2.50452 32.1006 5.31871
787 2 2.2208 2.43629 37.8107 5.23008
788 1 -1.1104 3.83782 33.5638 0.934982
789 1 -1.1104 3.63227 33.6249 3.67295
924 1 -1.1104 6.64091 33.5733 6.62713
923 1 -1.1104 0.990881 33.7137 6.81603
922 1 -1.1104 6.65104 36.4205 6.7137
775 1 -1.1104 6.46222 36.4224 3.77654
780 1 -1.1104 6.65285 33.5481 3.82245
839 2 2.2208 -0.339281 40.6713 5.16376
1055 2 2.2208 -0.251118 32.2484 13.6539
1047 2 2.2208 5.28367 26.5892 13.633
1007 2 2.2208 -0.358726 40.4537 10.9054
926 1 -1.1104 3.80968 36.3806 6.68532
1067 2 2.2208 -0.35569 23.7099 -0.338348
952 2 2.2208 -0.226022 37.7655 7.99406
772 1 -1.1104 6.43615 36.4623 1.02381
1027 1 -1.1104 12.4773 42.3771 9.31336
921 1 -1.1104 6.59271 30.884 6.65332
793 1 -1.1104 6.6402 30.8132 0.874742
795 1 -1.1104 6.5464 33.6821 0.927948
794 1 -1.1104 6.55011 30.5703 3.65371
796 2 2.2208 10.8521 34.8941 5.12439
797 1 -1.1104 12.3182 30.7589 1.05187
798 1 -1.1104 12.3634 36.4551 0.735129
799 1 -1.1104 12.3739 30.8164 3.77059
800 1 -1.1104 12.0477 36.2799 3.56195
801 1 -1.1104 12.0346 33.6318 0.90163
802 2 2.2208 10.8118 32.1368 2.33493
803 2 2.2208 10.7213 37.6873 2.40772
804 1 -1.1104 12.2332 33.4744 3.76579
805 1 -1.1104 9.40169 30.8525 0.936464
806 1 -1.1104 9.2723 36.4138 0.811297
807 2 2.2208 7.84755 34.921 2.38693
808 1 -1.1104 9.45653 30.5401 3.91874