ITEM: TIMESTEP
20000
ITEM: NUMBER OF ATOMS
17730
ITEM: BOX BOUNDS pp pp pp
-3.6798965906638648e-01 2.7707989659066257e+01
-4.3374667177599227e+00 3.3241746671776298e+02
-3.6591300003033234e-01 2.7705913000029870e+01
ITEM: ATOMS id type q x y z
1 2 2.2208 5.29534 1.313 5.18546
2 1 -1.1104 1.01655 -2.9252 1.1881
3 1 -1.1104 1.13434 2.53622 1.10255
6 1 -1.1104 1.01782 -3.01759 3.7554
7 1 -1.1104 0.893936 2.61985 3.80688
10 1 -1.1104 0.874605 -0.261963 1.05967
12 2 2.2208 5.25671 -1.5954 2.43552
14 1 -1.1104 1.08058 -0.1874 3.95851
16 1 -1.1104 3.83729 -3.02632 1.08179
17 1 -1.1104 3.96414 2.60697 1.22156
18 2 2.2208 2.46906 1.08526 2.50246
19 1 -1.1104 3.71878 -3.02406 3.97903
20 1 -1.1104 3.83337 2.64995 3.98041
21 2 2.2208 2.29417 -1.65349 5.32633
23 1 -1.1104 3.8819 -0.193845 1.09433
24 1 -1.1104 3.96338 -0.26021 3.83026
13 2 2.2208 5.26148 4.05175 2.49002
22 2 2.2208 2.38819 4.00959 5.22199
166 1 -1.1104 0.921449 -2.99442 6.58804
355 2 2.2208 10.7694 9.61239 13.6861
9 1 -1.1104 6.70506 2.78344 3.91944
5 1 -1.1104 6.53378 2.69387 0.93686
4 1 -1.1104 6.68498 -2.87042 1.03662
377 2 2.2208 13.7398 -1.55697 -0.390859
379 2 2.2208 5.25869 6.83433 -0.284985
172 1 -1.1104 3.73075 -3.08416 6.8357
173 1 -1.1104 4.00371 2.3327 6.69764
167 1 -1.1104 0.991918 2.51947 6.70105
174 1 -1.1104 3.73893 -0.373789 6.58621
169 1 -1.1104 6.61408 2.63048 6.66199
321 1 -1.1104 9.50477 19.4893 12.3786
323 1 -1.1104 12.2562 16.7038 9.4317
365 2 2.2208 2.38672 -1.64184 -0.315616
381 2 2.2208 5.23433 12.3686 -0.390509
11 1 -1.1104 6.60318 0.0289456 1.12507
15 1 -1.1104 6.76272 -0.0518793 3.90492
204 2 2.2208 13.5926 15.3683 5.2122
369 2 2.2208 10.8532 1.25968 -0.30083
8 1 -1.1104 6.70401 -2.8397 3.89402
31 2 2.2208 10.8358 1.24204 5.25074
32 1 -1.1104 12.3726 -2.9846 1.11703
33 1 -1.1104 12.2218 2.75149 1.16324
34 1 -1.1104 12.2532 -2.99376 3.86387
35 1 -1.1104 12.2048 2.7607 3.95521
36 1 -1.1104 12.2264 -0.150282 1.06922
37 2 2.2208 10.9021 -1.50112 2.45266
38 2 2.2208 10.8279 4.02816 2.45322
39 1 -1.1104 12.1846 -0.141234 3.81063
40 1 -1.1104 9.58625 -2.81517 1.09361
41 1 -1.1104 9.39973 2.45435 0.998777
42 2 2.2208 8.04441 1.33401 2.52138
43 1 -1.1104 9.44975 -2.90491 3.84295
44 1 -1.1104 9.39915 2.73774 3.77713
45 2 2.2208 8.14825 -1.61158 5.32662
46 2 2.2208 7.9368 4.07217 5.27757
47 1 -1.1104 9.32437 -0.136353 1.05727
48 1 -1.1104 9.47766 -0.0600458 3.94828
205 1 -1.1104 12.2624 -2.93729 6.73518
81 2 2.2208 -0.357472 7.00079 5.28181
206 1 -1.1104 12.2416 2.47958 6.64264
208 1 -1.1104 9.52882 -2.92493 6.76437
209 1 -1.1104 9.54065 2.60554 6.71984
210 1 -1.1104 9.48014 -0.155974 6.75513
316 2 2.2208 8.1754 20.8007 10.9526
318 1 -1.1104 9.37586 19.4572 9.5507
9008 2 2.2208 10.9245 -4.35273 5.24395
54 2 2.2208 5.15758 6.86363 5.33716
55 2 2.2208 5.34853 12.3757 5.29547
56 1 -1.1104 1.02006 8.14857 1.07304
58 1 -1.1104 1.10759 8.33439 3.863
60 1 -1.1104 0.862029 5.30085 1.01031
61 1 -1.1104 1.10968 11.0204 0.910838
66 2 2.2208 5.31142 9.54898 2.54089
67 1 -1.1104 0.978448 5.46602 3.89783
68 1 -1.1104 1.10158 11.1133 3.73277
71 1 -1.1104 3.95649 8.25428 1.05111
72 2 2.2208 2.42367 6.82569 2.46482
73 2 2.2208 2.51267 12.4393 2.54535
74 1 -1.1104 3.93648 8.10894 3.86996
75 2 2.2208 2.48752 9.60813 5.38862
76 1 -1.1104 3.62474 5.47049 0.958797
77 1 -1.1104 3.7692 11.0123 1.17137
79 1 -1.1104 3.75153 5.39102 3.67804
80 1 -1.1104 3.86706 10.9399 3.83224
70 1 -1.1104 6.71237 11.0253 3.79778
63 1 -1.1104 6.51821 5.39007 1.04459
64 1 -1.1104 6.53407 10.9913 0.992854
69 1 -1.1104 6.64734 5.54883 3.8285
65 1 -1.1104 6.6495 10.9755 6.73553
238 1 -1.1104 3.7664 8.16519 6.67205
59 1 -1.1104 6.65316 8.19918 3.81579
239 1 -1.1104 3.89085 5.29101 6.63877
235 1 -1.1104 6.64262 8.23742 6.7703
9010 2 2.2208 2.36702 -4.46412 8.17853
320 2 2.2208 8.10343 18.0718 8.16859
370 2 2.2208 7.85911 -1.48474 -0.265609
57 1 -1.1104 6.76693 8.16213 0.979435
84 2 2.2208 10.8752 6.80285 5.27247
85 2 2.2208 10.8327 12.5465 5.30381
86 1 -1.1104 12.3378 8.24619 1.14706
87 1 -1.1104 12.1681 8.33137 3.85191
88 1 -1.1104 12.2022 5.52434 0.981646
89 1 -1.1104 12.2305 11.0564 1.07932
91 2 2.2208 10.9231 9.68399 2.47048
92 1 -1.1104 12.3388 5.55064 3.80315
93 1 -1.1104 12.2981 11.2484 3.86099
94 1 -1.1104 9.50584 8.47592 0.972202
95 2 2.2208 8.12699 6.98903 2.46271
96 2 2.2208 8.01661 12.5484 2.60841
97 1 -1.1104 9.43281 8.34728 3.84931
98 2 2.2208 8.01743 9.61312 5.35509
99 1 -1.1104 9.32733 5.47744 1.08818
100 1 -1.1104 9.31306 11.3032 1.03983
102 1 -1.1104 9.4831 5.48552 3.93872
103 1 -1.1104 9.42587 11.0956 3.7662
269 1 -1.1104 9.35386 5.32505 6.69736
90 1 -1.1104 12.1769 11.0501 6.7484
354 2 2.2208 8.00493 6.86052 13.7704
360 2 2.2208 10.8302 20.9144 13.7176
237 1 -1.1104 6.64411 5.47209 6.78389
313 2 2.2208 -0.309338 15.2332 7.94175
165 2 2.2208 13.7853 17.9526 2.43663
314 1 -1.1104 9.45974 16.5323 9.59468
106 2 2.2208 5.28158 17.96 5.22977
107 1 -1.1104 1.14504 13.7354 0.997822
109 1 -1.1104 1.02816 19.4357 0.951614
113 1 -1.1104 0.979406 13.9167 3.81183
114 1 -1.1104 1.02309 19.3999 3.83057
116 1 -1.1104 1.22539 16.67 0.998978
119 2 2.2208 5.30798 15.2226 2.51735
120 2 2.2208 5.28372 20.761 2.45325
121 1 -1.1104 1.07074 16.5855 3.7871
123 1 -1.1104 3.92556 13.8227 1.04439
125 1 -1.1104 3.83463 19.4351 1.13118
127 2 2.2208 2.52078 18.0149 2.40454
128 1 -1.1104 4.0993 13.7781 3.94302
129 1 -1.1104 3.9464 19.3092 3.80898
130 2 2.2208 2.51598 15.2253 5.27834
131 2 2.2208 2.42425 20.828 5.1052
132 1 -1.1104 4.13097 16.6209 1.01171
134 1 -1.1104 3.72139 16.5105 3.85581
108 1 -1.1104 1.01245 13.8054 6.52287
139 1 -1.1104 6.66621 19.4602 3.68743
115 1 -1.1104 6.69611 13.8234 3.94214
122 1 -1.1104 6.6107 16.6187 3.84996
117 1 -1.1104 1.20914 16.6429 6.65648
110 1 -1.1104 6.64746 13.9858 1.12908
9007 2 2.2208 8.18319 -4.33736 2.60063
138 1 -1.1104 6.78511 19.5305 0.941876
104 2 2.2208 13.5697 12.482 2.45917
328 1 -1.1104 12.2152 13.868 9.51491
333 2 2.2208 13.6252 15.2064 10.9527
140 1 -1.1104 6.77104 16.7649 1.0657
324 2 2.2208 10.8722 20.751 8.08913
141 2 2.2208 10.8141 18.1167 5.2354
142 1 -1.1104 12.4494 14.0285 1.07739
144 1 -1.1104 12.1988 19.4647 0.951635
146 1 -1.1104 12.2672 14.0197 3.87702
147 1 -1.1104 12.239 19.4987 3.8095
148 1 -1.1104 12.2259 16.6375 1.06333
150 2 2.2208 10.8833 15.3065 2.46232
151 2 2.2208 10.8635 20.8781 2.37736
152 1 -1.1104 12.2383 16.6719 3.869
153 1 -1.1104 9.52567 13.938 1.07651
155 1 -1.1104 9.44932 19.414 1.00717
157 2 2.2208 8.09494 18.0466 2.43124
158 1 -1.1104 9.46384 13.9416 3.91637
159 1 -1.1104 9.46431 19.572 3.93535
160 2 2.2208 7.95759 15.2618 5.29285
161 2 2.2208 8.06685 20.8321 5.33201
162 1 -1.1104 9.52261 16.536 1.1113
164 1 -1.1104 9.29357 16.8561 3.92747
156 1 -1.1104 9.48598 19.4372 6.73771
380 2 2.2208 2.61479 9.5637 -0.398966
111 1 -1.1104 6.57053 13.7677 6.69279
359 2 2.2208 5.08268 15.1302 13.7391
9011 2 2.2208 5.30967 -4.324 10.9738
384 2 2.2208 10.79 6.86995 -0.312667
26 2 2.2208 -0.384585 1.22647 5.34149
170 1 -1.1104 0.972651 -0.223861 6.72421
175 2 2.2208 5.20223 1.31032 10.8622
176 1 -1.1104 1.12427 -2.92237 12.2456
177 1 -1.1104 1.00115 2.65446 12.2321
180 1 -1.1104 1.035 -2.97965 9.48674
181 1 -1.1104 1.06141 2.69449 9.35849
184 1 -1.1104 1.00712 -0.0505898 12.2994
186 2 2.2208 5.24209 -1.49796 8.17018
187 2 2.2208 5.39933 4.00918 8.07042
188 1 -1.1104 0.996721 -0.214009 9.5499
190 1 -1.1104 3.99942 -2.92633 12.3993
191 1 -1.1104 3.8532 2.75341 12.2771
192 2 2.2208 2.38499 1.15374 8.04409
193 1 -1.1104 3.77103 -2.83546 9.51537
194 1 -1.1104 3.84767 2.73218 9.45024
195 2 2.2208 2.45173 -1.47205 10.9899
196 2 2.2208 2.42097 4.03791 10.7759
197 1 -1.1104 3.76929 -0.17503 12.3981
198 1 -1.1104 3.81638 -0.156511 9.58164
189 1 -1.1104 6.63089 -0.196918 9.5341
178 1 -1.1104 6.85798 -3.01243 12.3429
317 2 2.2208 8.08839 15.1685 10.9121
331 2 2.2208 10.8173 17.9381 11.0271
168 1 -1.1104 6.7285 -2.93377 6.79037
207 1 -1.1104 12.1566 -0.0683914 6.585
329 1 -1.1104 12.1633 19.3919 12.2911
199 2 2.2208 -0.307989 4.14725 8.13231
325 2 2.2208 10.9099 15.2426 8.17116
179 1 -1.1104 6.70448 2.61448 12.2058
185 1 -1.1104 6.56871 -0.233116 12.2052
183 1 -1.1104 6.72457 2.69465 9.43121
319 1 -1.1104 9.51485 13.7956 9.57684
171 1 -1.1104 6.77435 -0.256524 6.71079
182 1 -1.1104 6.65171 -2.98251 9.64757
211 2 2.2208 10.9054 1.27139 10.748
212 1 -1.1104 12.3538 -2.97469 12.2417
213 1 -1.1104 12.1635 2.71943 12.2114
214 1 -1.1104 12.1641 -3.0675 9.50904
215 1 -1.1104 12.2567 2.69937 9.43755
216 1 -1.1104 12.4044 -0.150518 12.4134
217 2 2.2208 10.8874 -1.5764 8.08128
218 2 2.2208 10.9304 3.86951 8.11075
219 1 -1.1104 12.2823 -0.312741 9.51473
220 1 -1.1104 9.57904 -3.05121 12.2967
221 1 -1.1104 9.47826 2.48149 12.2204
222 2 2.2208 8.04851 1.14849 8.00376
223 1 -1.1104 9.46541 -3.0886 9.54567
224 1 -1.1104 9.47918 2.56873 9.51773
225 2 2.2208 8.00759 -1.6037 10.9225
226 2 2.2208 8.14769 3.88553 11.001
227 1 -1.1104 9.48296 -0.199246 12.2332
228 1 -1.1104 9.39315 -0.0887817 9.46013
327 1 -1.1104 12.3217 19.4277 9.64368
163 1 -1.1104 9.39312 16.6368 6.69764
149 1 -1.1104 12.2486 16.6287 6.65757
236 1 -1.1104 1.18369 5.51763 6.66604
62 1 -1.1104 1.04847 11.0119 6.4961
234 1 -1.1104 0.92839 8.34579 6.67453
78 1 -1.1104 3.87472 10.9489 6.69022
240 2 2.2208 5.25334 6.83673 11.0118
241 2 2.2208 5.2617 12.4331 10.8447
242 1 -1.1104 1.07246 8.3419 12.2046
244 1 -1.1104 1.10767 8.31038 9.44327
246 1 -1.1104 0.925919 5.62097 12.22
247 1 -1.1104 0.932217 11.1044 12.2393
250 2 2.2208 5.23311 9.64395 8.27195
251 1 -1.1104 1.17334 5.50631 9.58789
252 1 -1.1104 1.03881 11.058 9.39071
255 1 -1.1104 3.87971 8.33817 12.4736
256 2 2.2208 2.55876 6.82211 8.14112
257 2 2.2208 2.39663 12.3193 8.02825
258 1 -1.1104 3.88633 8.20322 9.41219
259 2 2.2208 2.3936 9.72222 10.9239
260 1 -1.1104 3.76767 5.51053 12.3724
261 1 -1.1104 3.75868 11.2164 12.332
262 1 -1.1104 3.87687 5.57754 9.52445
263 1 -1.1104 3.88839 10.9671 9.66209
243 1 -1.1104 6.53372 8.26012 12.2764
253 1 -1.1104 6.74015 5.48936 9.58295
249 1 -1.1104 6.62571 10.9078 12.3535
254 1 -1.1104 6.67139 11.0756 9.61791
245 1 -1.1104 6.71739 8.21514 9.4109
385 2 2.2208 8.06324 9.74416 -0.289673
312 2 2.2208 -0.333084 18.1746 10.7485
248 1 -1.1104 6.7165 5.49416 12.3961
101 1 -1.1104 9.47484 11.095 6.58688
265 1 -1.1104 12.313 8.16654 6.66837
267 1 -1.1104 9.43821 8.09733 6.57104
266 1 -1.1104 12.162 5.39581 6.70574
264 1 -1.1104 9.3117 11.0603 9.46272
268 1 -1.1104 9.54388 5.34591 9.51667
270 1 -1.1104 9.30565 10.9757 12.3564
271 1 -1.1104 9.44262 5.37101 12.3082
272 2 2.2208 8.09354 9.5985 10.895
273 1 -1.1104 9.41574 8.22475 9.41643
274 2 2.2208 8.01415 12.437 8.16125
275 2 2.2208 8.09607 6.77581 8.17343
276 2 2.2208 10.9084 6.90655 10.9117
277 2 2.2208 10.8565 12.5594 10.8318
278 1 -1.1104 12.4253 8.32023 12.375
279 1 -1.1104 12.2147 8.47075 9.57581
280 1 -1.1104 12.2486 5.56065 12.274
281 1 -1.1104 12.1944 11.1342 12.2779
282 2 2.2208 10.7975 9.70804 7.98551
283 1 -1.1104 12.3211 5.52625 9.41626
284 1 -1.1104 12.2086 11.1931 9.47527
285 1 -1.1104 9.52478 8.15064 12.27
83 2 2.2208 -0.418399 12.388 5.13557
200 2 2.2208 -0.382894 -1.61544 7.99103
315 1 -1.1104 9.35656 16.5617 12.2911
112 1 -1.1104 6.72602 19.3512 6.53522
297 1 -1.1104 6.49558 13.6887 12.3529
306 1 -1.1104 6.55812 16.4991 12.1789
289 1 -1.1104 6.51142 16.4893 9.51259
302 1 -1.1104 1.0685 19.4712 6.43644
126 1 -1.1104 3.95306 19.6531 6.56791
124 1 -1.1104 3.82291 13.8015 6.65851
133 1 -1.1104 3.95777 16.5947 6.66058
288 1 -1.1104 6.65775 19.2495 9.50611
118 1 -1.1104 6.71855 16.6532 6.84504
309 2 2.2208 2.44412 20.8618 10.8289
299 1 -1.1104 0.8175 13.9934 12.0999
298 1 -1.1104 1.12402 19.6084 12.1026
310 2 2.2208 2.4072 15.2596 10.8985
295 2 2.2208 5.17933 15.237 8.10844
308 1 -1.1104 3.75334 16.8395 12.0103
301 1 -1.1104 3.90285 19.3935 9.26139
300 2 2.2208 5.31874 17.9728 10.7978
307 1 -1.1104 0.906382 16.9204 12.1838
305 1 -1.1104 3.90961 13.7151 9.44709
294 1 -1.1104 1.11505 13.9195 9.27177
303 2 2.2208 2.61798 18.0734 8.01225
304 1 -1.1104 3.85912 16.4952 9.37027
286 1 -1.1104 3.97289 19.455 12.1744
287 1 -1.1104 3.75211 13.8931 12.3149
291 1 -1.1104 1.08566 19.4204 9.28355
292 1 -1.1104 1.06243 16.7424 9.43608
293 2 2.2208 5.14392 20.8913 8.01984
296 1 -1.1104 6.77163 19.4288 12.2244
290 1 -1.1104 6.69724 13.7698 9.49679
233 2 2.2208 13.6005 4.19229 5.32526
378 2 2.2208 13.5968 4.18199 -0.340404
322 1 -1.1104 9.21014 13.7771 12.3485
154 1 -1.1104 9.49293 13.8612 6.83138
143 1 -1.1104 12.1069 13.8335 6.58618
387 2 2.2208 13.5891 9.5042 -0.365014
330 1 -1.1104 12.1208 13.7798 12.1965
326 1 -1.1104 12.188 16.4837 12.3488
145 1 -1.1104 12.2745 19.4331 6.72226
52 2 2.2208 13.5661 9.64601 11.0688
382 2 2.2208 -0.181211 12.4109 -0.400117
137 2 2.2208 -0.317183 17.9414 5.39345
338 2 2.2208 5.17183 -1.50373 13.881
375 2 2.2208 2.34122 20.7917 -0.483738
82 2 2.2208 -0.238813 9.62055 2.39023
28 2 2.2208 13.6549 20.9175 10.9651
202 2 2.2208 13.6184 6.97362 8.17389
27 2 2.2208 -0.384816 4.10285 2.54859
332 2 2.2208 13.6284 18.0194 8.1704
53 2 2.2208 13.5234 12.4691 8.1299
366 2 2.2208 2.38888 4.03529 -0.295697
358 2 2.2208 5.32514 20.8351 13.5373
372 2 2.2208 8.06347 3.98581 -0.230574
364 2 2.2208 5.24222 1.19049 -0.253338
341 2 2.2208 5.17242 4.1944 13.6808
362 2 2.2208 7.98809 18.0599 13.6004
386 2 2.2208 10.8209 12.6162 -0.340543
9031 2 2.2208 2.38366 -4.28623 13.6239
374 2 2.2208 5.3858 18.1235 -0.346591
9027 2 2.2208 8.05432 -4.30331 13.7117
373 2 2.2208 2.60699 15.1937 -0.355776
371 2 2.2208 -0.168274 18.1018 -0.372676
367 2 2.2208 -0.350726 9.721 13.6342
388 2 2.2208 5.20255 1.29832 16.4877
389 1 -1.1104 1.04129 -2.86022 17.9454
390 1 -1.1104 1.00045 2.68138 17.9689
393 1 -1.1104 0.857507 -2.83219 15.178
395 1 -1.1104 1.15448 2.80214 15.1108
401 1 -1.1104 0.970761 0.000894172 17.9784
403 2 2.2208 5.09873 -1.46111 19.2229
404 2 2.2208 5.33401 4.20039 19.3287
405 1 -1.1104 1.07815 -0.0546114 15.1308
409 1 -1.1104 3.86353 -2.88252 17.754
410 1 -1.1104 3.88383 2.86376 17.8838
411 2 2.2208 2.50151 1.40928 19.3746
412 1 -1.1104 3.785 -2.9622 15.0844
414 1 -1.1104 3.8646 2.74451 15.0773
416 2 2.2208 2.3407 -1.42915 16.4672
417 2 2.2208 2.46301 4.19327 16.4437
418 1 -1.1104 3.82741 -0.0181026 17.8406
419 1 -1.1104 3.92944 -0.0403112 15.1938
460 2 2.2208 13.5739 21.0839 16.4898
397 1 -1.1104 6.75412 -2.91295 15.1311
9101 2 2.2208 13.5954 -4.30291 25.034
415 1 -1.1104 3.82082 2.78777 20.7046
684 2 2.2208 -0.408117 9.68031 24.9352
351 2 2.2208 2.42846 6.96283 13.6381
339 2 2.2208 2.46322 1.35639 13.711
402 1 -1.1104 6.63499 -0.14787 18.0534
391 1 -1.1104 6.49308 -2.93121 18.0752
399 1 -1.1104 6.77259 2.56903 15.0657
407 1 -1.1104 6.57288 -0.0800777 14.9936
392 1 -1.1104 6.69883 2.62929 17.6884
9170 2 2.2208 -0.33219 -4.31138 16.5002
431 2 2.2208 10.9569 1.25086 16.5206
432 1 -1.1104 12.1713 -2.86077 17.8735
433 1 -1.1104 12.1989 2.74466 17.8311
434 1 -1.1104 12.2416 -2.99607 15.0145
436 1 -1.1104 12.3718 2.65269 15.1197
438 1 -1.1104 12.1931 -0.0877598 18.0435
439 2 2.2208 10.8861 -1.52436 19.3348
440 2 2.2208 10.8508 4.07115 19.2886
441 1 -1.1104 12.3326 -0.232023 15.265
443 1 -1.1104 9.45255 -2.77783 17.8743
444 1 -1.1104 9.60235 2.59207 17.7967
445 2 2.2208 8.07076 1.24496 19.2343
446 1 -1.1104 9.61607 -2.85538 15.208
448 1 -1.1104 9.47506 2.79739 15.1018
450 2 2.2208 8.07993 -1.49841 16.5491
451 2 2.2208 8.02518 4.02958 16.4948
452 1 -1.1104 9.38037 -0.049019 17.7197
453 1 -1.1104 9.52177 -0.103255 15.058
437 1 -1.1104 12.3594 2.56332 20.5902
346 2 2.2208 10.9413 -1.56172 13.6502
398 1 -1.1104 6.55991 -2.93363 20.7495
447 1 -1.1104 9.42429 -2.92272 20.8189
442 1 -1.1104 12.2577 -0.203519 20.7927
581 1 -1.1104 9.52216 19.3841 20.7593
9139 2 2.2208 10.8086 -4.34487 16.4994
9100 2 2.2208 10.8162 -4.25047 22.1507
464 2 2.2208 5.1981 6.91841 16.5965
465 2 2.2208 5.10776 12.4536 16.5889
466 1 -1.1104 0.848036 8.25167 17.8982
468 1 -1.1104 0.929994 8.35704 15.1065
472 1 -1.1104 1.06271 5.48694 18.0972
473 1 -1.1104 0.887051 11.1381 17.7579
476 2 2.2208 5.13595 9.67851 19.3555
477 1 -1.1104 1.10167 5.70608 15.177
479 1 -1.1104 0.879734 11.2624 14.9898
485 1 -1.1104 3.7111 8.45072 17.9799
486 2 2.2208 2.33125 6.9608 19.3164
487 2 2.2208 2.33357 12.3874 19.2201
488 1 -1.1104 3.86541 8.34339 15.1904
490 2 2.2208 2.38177 9.7473 16.4646
491 1 -1.1104 3.83505 5.59687 17.9119
492 1 -1.1104 3.67861 11.079 17.8928
493 1 -1.1104 3.83222 5.50198 14.9656
495 1 -1.1104 3.6071 11.1636 15.0566
481 1 -1.1104 6.54312 5.41264 15.126
470 1 -1.1104 6.63002 8.30465 15.2063
480 1 -1.1104 1.05035 11.1709 20.6786
475 1 -1.1104 6.60442 10.8987 17.9786
9168 2 2.2208 2.53637 -4.30063 19.2252
483 1 -1.1104 6.51166 11.0739 15.1998
467 1 -1.1104 6.55589 8.23101 17.9251
615 2 2.2208 8.14329 15.2835 22.0997
494 1 -1.1104 4.04412 5.47043 20.7516
489 1 -1.1104 3.86157 8.18868 20.805
653 2 2.2208 13.6871 -1.51416 21.9952
9138 2 2.2208 7.97019 -4.38158 19.2212
484 1 -1.1104 6.48723 11.1464 20.7086
474 1 -1.1104 6.65997 5.6601 17.9688
500 2 2.2208 10.7588 6.80507 16.5616
501 2 2.2208 10.8605 12.397 16.4836
502 1 -1.1104 11.9979 8.17137 17.9749
503 1 -1.1104 12.1267 8.15498 15.1549
505 1 -1.1104 12.3063 5.47488 18.0366
506 1 -1.1104 12.0882 11.0072 17.909
507 2 2.2208 10.8088 9.6958 19.2596
508 1 -1.1104 12.2283 5.4164 15.1145
510 1 -1.1104 12.1559 10.9404 15.0577
512 1 -1.1104 9.37889 8.30794 17.8753
513 2 2.2208 8.00427 7.06054 19.3265
514 2 2.2208 7.88412 12.5767 19.1811
515 1 -1.1104 9.31543 8.41386 15.1862
517 2 2.2208 8.02943 9.63588 16.5561
518 1 -1.1104 9.32463 5.47017 18.0025
519 1 -1.1104 9.31719 11.2303 17.9335
520 1 -1.1104 9.42528 5.54696 15.1567
522 1 -1.1104 9.44751 10.9484 15.136
504 1 -1.1104 12.2471 8.37472 20.6781
511 1 -1.1104 12.0257 11.2621 20.6259
428 2 2.2208 13.7825 1.13548 19.3731
547 1 -1.1104 6.67325 16.7387 20.6496
9137 2 2.2208 -0.359168 -4.3514 22.1604
9169 2 2.2208 5.20329 -4.31838 16.3284
651 2 2.2208 13.6022 6.85202 19.3464
579 1 -1.1104 9.29644 13.802 20.6965
709 1 -1.1104 6.79845 13.8344 23.4164
619 2 2.2208 13.4747 15.3164 16.5129
9103 2 2.2208 5.25739 -4.3062 22.2337
527 2 2.2208 5.22149 18.1097 16.4331
528 1 -1.1104 1.00099 13.9574 17.9125
529 1 -1.1104 1.09522 19.5721 17.7487
532 1 -1.1104 1.01044 14.0605 14.9415
534 1 -1.1104 0.913512 19.5033 14.979
540 1 -1.1104 1.07586 16.7401 17.9462
542 2 2.2208 5.19976 15.2693 19.3309
543 2 2.2208 5.15153 20.8206 19.2071
544 1 -1.1104 0.951269 16.8524 15.1225
548 1 -1.1104 3.68535 13.8773 17.8877
549 1 -1.1104 3.78007 19.5458 17.942
550 2 2.2208 2.40684 18.1116 19.3512
551 1 -1.1104 3.80855 13.858 15.2028
553 1 -1.1104 3.8222 19.5282 15.1236
555 2 2.2208 2.35106 15.3398 16.5535
556 2 2.2208 2.39493 20.9683 16.494
557 1 -1.1104 3.88215 16.7969 17.8363
558 1 -1.1104 3.85861 16.741 14.8883
546 1 -1.1104 6.53871 16.7443 15.1375
530 1 -1.1104 6.52208 13.8228 17.7783
541 1 -1.1104 6.59278 16.6856 17.8312
536 1 -1.1104 6.72663 13.9439 15.0351
538 1 -1.1104 6.66435 19.5785 15.0556
426 2 2.2208 13.6048 9.49746 16.6209
499 1 -1.1104 12.312 19.5498 26.2126
569 1 -1.1104 12.298 19.5918 20.784
561 1 -1.1104 9.61125 13.8195 23.5476
531 1 -1.1104 6.60946 19.484 17.858
563 2 2.2208 10.8812 18.0586 16.6434
564 1 -1.1104 12.1988 13.9361 17.8973
565 1 -1.1104 12.3042 19.5687 17.8909
566 1 -1.1104 12.2065 13.7006 15.0373
568 1 -1.1104 12.1934 19.4672 15.0499
570 1 -1.1104 12.2034 16.7568 18.0401
571 2 2.2208 10.7953 15.3092 19.3506
572 2 2.2208 10.8765 20.9247 19.2874
573 1 -1.1104 12.2898 16.672 15.0825
575 1 -1.1104 9.46968 13.9844 17.917
576 1 -1.1104 9.59393 19.3052 17.9938
577 2 2.2208 8.01162 18.0303 19.2404
578 1 -1.1104 9.42912 13.8246 15.1235
580 1 -1.1104 9.40937 19.4712 15.3652
582 2 2.2208 7.95437 15.3619 16.4668
583 2 2.2208 8.08456 20.8277 16.4382
584 1 -1.1104 9.39965 16.69 17.8419
585 1 -1.1104 9.3859 16.7199 14.9607
574 1 -1.1104 12.437 16.8367 20.7742
590 1 -1.1104 9.44244 19.6226 26.3926
562 1 -1.1104 9.43283 19.4268 23.546
459 2 2.2208 13.5983 -1.64525 16.5411
422 2 2.2208 13.6796 9.70609 22.0809
420 1 -1.1104 3.7847 -0.0546205 20.7256
334 2 2.2208 -0.356838 -1.44444 13.6238
524 1 -1.1104 12.2634 16.642 23.5904
406 1 -1.1104 1.2104 0.0977911 20.853
394 1 -1.1104 0.968625 -2.91257 20.797
396 1 -1.1104 0.981303 2.69048 20.7521
413 1 -1.1104 3.9065 -2.80469 20.5901
408 1 -1.1104 6.4752 -0.102108 20.8364
400 1 -1.1104 6.61104 2.66047 20.7042
591 2 2.2208 5.26127 1.33325 21.9721
592 1 -1.1104 0.926236 -2.85883 23.6112
593 1 -1.1104 1.14978 2.64313 23.4631
596 1 -1.1104 1.01718 -2.98892 26.3965
597 1 -1.1104 1.09463 2.58367 26.2353
600 1 -1.1104 1.0495 -0.181133 23.6272
602 2 2.2208 5.23535 -1.44875 24.9707
603 2 2.2208 5.38891 4.08392 24.8785
604 1 -1.1104 0.975795 -0.255905 26.4225
606 1 -1.1104 3.86058 -2.94026 23.5538
607 1 -1.1104 3.91987 2.78212 23.5737
608 2 2.2208 2.48114 1.26557 25.0796
609 1 -1.1104 3.84836 -2.87207 26.3236
610 1 -1.1104 3.74122 2.56136 26.4637
611 2 2.2208 2.41666 -1.47676 22.2019
612 2 2.2208 2.58252 4.12954 22.3264
613 1 -1.1104 3.81315 0.0218874 23.8157
614 1 -1.1104 3.8226 -0.0804087 26.4715
595 1 -1.1104 6.70057 2.75806 23.4564
594 1 -1.1104 6.72239 -2.80499 23.5698
455 2 2.2208 13.6532 18.1167 24.9331
498 1 -1.1104 12.1691 13.8545 26.3094
588 1 -1.1104 6.54585 19.4475 26.2148
454 1 -1.1104 9.39827 -0.103703 20.4967
463 1 -1.1104 12.3408 13.8289 23.4754
449 1 -1.1104 9.4214 2.58314 20.8276
435 1 -1.1104 12.2475 -2.86143 20.6711
599 1 -1.1104 6.62707 2.55999 26.3098
598 1 -1.1104 6.63948 -3.02388 26.3217
601 1 -1.1104 6.66259 -0.0996617 23.4293
605 1 -1.1104 6.62023 -0.152707 26.1857
627 2 2.2208 10.9029 1.17335 22.1211
628 1 -1.1104 12.1969 -2.7722 23.5877
629 1 -1.1104 12.2713 2.72085 23.585
630 1 -1.1104 12.3195 -2.88772 26.5109
631 1 -1.1104 12.1921 2.65506 26.376
632 1 -1.1104 12.1881 -0.045583 23.6109
633 2 2.2208 10.8156 -1.49863 25.0639
634 2 2.2208 10.7896 4.02789 24.9734
635 1 -1.1104 12.2586 -0.133901 26.2986
636 1 -1.1104 9.58739 -3.03823 23.5499
637 1 -1.1104 9.40439 2.61404 23.6597
638 2 2.2208 7.9754 1.28296 24.8576
639 1 -1.1104 9.37584 -2.9733 26.3173
640 1 -1.1104 9.45546 2.68184 26.4246
641 2 2.2208 7.98788 -1.52766 22.0486
642 2 2.2208 8.08707 4.11733 22.173
643 1 -1.1104 9.48681 -0.119559 23.4822
644 1 -1.1104 9.24784 -0.0679122 26.4057
620 1 -1.1104 9.67789 16.6039 26.3188
497 1 -1.1104 12.2032 19.443 23.5441
471 1 -1.1104 6.59195 8.45354 20.6874
496 1 -1.1104 3.7278 11.0412 20.7666
478 1 -1.1104 1.14614 5.55457 20.8099
469 1 -1.1104 1.11897 8.36012 20.7019
656 2 2.2208 5.34639 6.90173 21.9556
657 2 2.2208 5.2641 12.4255 22.0927
658 1 -1.1104 1.09006 8.29273 23.5297
660 1 -1.1104 0.987289 8.29649 26.4219
662 1 -1.1104 0.951751 5.60273 23.5851
663 1 -1.1104 1.04858 11.1775 23.4794
666 2 2.2208 5.33546 9.71224 24.8481
667 1 -1.1104 1.14701 5.42218 26.2611
668 1 -1.1104 1.13233 11.2476 26.2362
671 1 -1.1104 3.97875 8.27737 23.6483
672 2 2.2208 2.54061 6.76925 24.8558
673 2 2.2208 2.48462 12.559 24.8574
674 1 -1.1104 3.86999 8.1767 26.448
675 2 2.2208 2.44451 9.5993 22.2
676 1 -1.1104 3.93457 5.55365 23.4605
677 1 -1.1104 3.84097 11.0262 23.5181
678 1 -1.1104 3.92795 5.4481 26.2586
679 1 -1.1104 3.97265 11.0701 26.2527
670 1 -1.1104 6.7803 11.0663 26.2089
661 1 -1.1104 6.43749 8.14067 26.2762
659 1 -1.1104 6.71235 8.32684 23.4935
665 1 -1.1104 6.64657 11.1205 23.5096
616 2 2.2208 8.11471 20.6972 22.0234
589 1 -1.1104 9.40981 13.8946 26.2106
617 1 -1.1104 9.56778 16.6505 23.518
560 1 -1.1104 12.3494 16.6994 26.403
526 2 2.2208 10.7653 20.9396 24.8387
482 1 -1.1104 6.81985 5.54722 20.6952
516 1 -1.1104 9.42317 8.3465 20.6043
523 1 -1.1104 9.23584 11.0214 20.5543
664 1 -1.1104 6.79676 5.57836 23.5483
669 1 -1.1104 6.72512 5.47058 26.1508
521 1 -1.1104 9.59377 5.39263 20.674
509 1 -1.1104 12.2101 5.3573 20.8303
687 1 -1.1104 9.65742 10.9262 26.4534
688 1 -1.1104 9.41998 5.39581 26.2343
689 1 -1.1104 9.5258 11.0332 23.4818
690 1 -1.1104 9.49855 5.50489 23.5705
691 2 2.2208 8.00714 9.73783 22.0633
692 1 -1.1104 9.39168 8.32587 26.2894
693 2 2.2208 8.11011 12.364 24.996
694 2 2.2208 8.13337 6.93697 24.881
695 2 2.2208 10.7684 6.91289 22.0582
696 2 2.2208 10.7876 12.5381 22.0741
697 1 -1.1104 12.2758 8.36202 23.3594
698 1 -1.1104 12.1538 8.24445 26.3609
699 1 -1.1104 12.2266 5.49202 23.521
700 1 -1.1104 12.3527 11.1107 23.4876
701 2 2.2208 10.8936 9.7762 24.805
702 1 -1.1104 12.0967 5.4322 26.4048
703 1 -1.1104 12.4422 10.8679 26.2379
704 1 -1.1104 9.48759 8.32811 23.4785
586 1 -1.1104 9.42982 16.5159 20.8046
567 1 -1.1104 12.2101 13.9956 20.5796
462 2 2.2208 10.8489 18.0808 22.1629
714 1 -1.1104 6.70862 16.7394 26.2301
539 1 -1.1104 6.56757 19.5108 20.6039
545 1 -1.1104 0.86185 16.6888 20.5919
533 1 -1.1104 0.887641 13.8881 20.7063
559 1 -1.1104 3.68066 16.604 20.7059
552 1 -1.1104 3.79819 13.8168 20.6465
537 1 -1.1104 6.50759 13.8736 20.6039
718 1 -1.1104 6.69433 19.3766 23.3114
712 1 -1.1104 6.60812 13.8446 26.2741
554 1 -1.1104 3.66675 19.4168 20.6703
535 1 -1.1104 0.889284 19.4759 20.6362
680 1 -1.1104 6.86961 16.6369 23.4118
720 2 2.2208 5.2729 15.2669 24.824
647 2 2.2208 2.48661 15.0637 22.1584
649 2 2.2208 2.37012 20.8025 21.8302
652 1 -1.1104 3.89269 16.6901 23.4992
655 1 -1.1104 1.15962 16.6095 23.5176
681 1 -1.1104 3.92946 13.8298 26.1951
682 1 -1.1104 3.98685 16.6801 26.3314
683 2 2.2208 2.47331 18.0226 24.9166
686 1 -1.1104 3.87867 19.3495 26.2486
705 2 2.2208 5.24563 17.9749 22.0505
706 1 -1.1104 0.908874 13.9034 23.5529
707 1 -1.1104 1.02048 19.4078 23.3899
711 1 -1.1104 3.70659 19.2955 23.4693
713 1 -1.1104 3.92687 13.9045 23.4083
715 1 -1.1104 1.06398 19.4678 26.2134
716 1 -1.1104 1.11561 16.795 26.3113
717 1 -1.1104 1.24726 14.0547 26.2964
719 2 2.2208 5.16376 20.8233 24.7803
525 2 2.2208 10.9448 15.2302 24.9913
587 2 2.2208 8.04813 18.108 24.8463
625 2 2.2208 -0.291377 1.25386 22.2562
654 2 2.2208 13.6018 1.31492 24.9988
337 2 2.2208 -0.392679 4.07694 13.729
650 2 2.2208 13.6055 12.4192 19.2378
710 2 2.2208 13.5828 6.88523 24.9379
425 2 2.2208 -0.258911 -1.43816 19.3648
708 2 2.2208 13.6256 12.4581 24.8795
363 2 2.2208 13.5532 18.048 13.6364
361 2 2.2208 10.7635 15.2057 13.843
347 2 2.2208 8.00086 15.3549 27.7166
348 2 2.2208 10.9143 18.0513 27.7451
349 2 2.2208 7.98526 20.8981 27.7955
345 2 2.2208 13.6658 20.9436 27.7868
357 2 2.2208 2.47838 18.1591 13.5756
356 2 2.2208 8.05938 12.344 13.749
343 2 2.2208 8.03399 1.20812 13.6491
350 2 2.2208 10.8906 4.00531 13.7097
352 2 2.2208 5.15483 9.81554 13.67
353 2 2.2208 2.3599 12.5655 13.64
376 2 2.2208 13.603 12.4206 13.6838
336 2 2.2208 13.6853 6.83053 13.7644
721 2 2.2208 5.13 23.6218 5.27807
722 2 2.2208 5.23628 29.2729 5.06615
723 1 -1.1104 1.02663 25.0184 0.919155
724 1 -1.1104 1.0421 25.0291 3.72391
725 1 -1.1104 1.04635 22.2697 1.03093
726 1 -1.1104 0.978721 27.8905 1.02066
727 2 2.2208 5.34756 26.3842 2.37581
728 1 -1.1104 1.05252 22.2699 3.77493
729 1 -1.1104 1.05015 27.8702 3.84891
730 1 -1.1104 3.82657 25.0711 0.974585
731 2 2.2208 2.49664 23.6205 2.35262
732 2 2.2208 2.30977 29.2385 2.408
733 1 -1.1104 3.81991 25.145 3.84246
734 2 2.2208 2.44969 26.4469 5.21165
735 1 -1.1104 3.87714 22.15 1.00953
736 1 -1.1104 3.69738 27.8012 1.04976
737 1 -1.1104 4.01705 22.152 3.85817
738 1 -1.1104 3.9647 27.8657 3.82639
745 1 -1.1104 6.49698 27.8577 0.955503
868 1 -1.1104 3.77309 25.1515 6.50661
864 1 -1.1104 1.05035 22.1762 6.5967
747 1 -1.1104 6.65568 27.7963 3.748
744 1 -1.1104 6.59961 22.2556 1.1063
746 1 -1.1104 6.67639 22.0744 4.02113
1608 1 -1.1104 6.60081 47.3945 6.65874
1418 1 -1.1104 6.63983 47.5667 3.90652
1613 1 -1.1104 6.6817 47.3138 12.2856
742 1 -1.1104 6.68502 25.013 0.848134
743 1 -1.1104 6.46451 24.8742 3.70336
748 2 2.2208 10.7953 23.733 5.22896
749 2 2.2208 10.727 29.3662 5.23623
750 1 -1.1104 12.151 25.1382 1.31127
751 1 -1.1104 12.3371 25.0028 3.98317
752 1 -1.1104 12.1859 22.2949 1.05183
753 1 -1.1104 12.0997 27.9978 0.98667
754 2 2.2208 10.8004 26.5389 2.48886
755 1 -1.1104 12.3452 22.3262 3.86112
756 1 -1.1104 12.2517 27.811 3.75822
757 1 -1.1104 9.52671 25.0443 0.921862
758 2 2.2208 8.0554 23.6467 2.4993
759 2 2.2208 8.09028 29.2351 2.41902
760 1 -1.1104 9.33308 25.0151 3.88569
761 2 2.2208 8.0589 26.4305 5.18823
762 1 -1.1104 9.43032 22.1557 1.13095
763 1 -1.1104 9.273 27.828 0.921067
764 1 -1.1104 9.4785 22.3617 3.82512
765 1 -1.1104 9.43746 27.9222 3.85386
1008 1 -1.1104 9.59483 44.8458 9.50689
1089 2 2.2208 5.21756 45.9973 -0.342044
1431 1 -1.1104 3.80137 47.3874 0.884483
1005 2 2.2208 -0.287344 43.3111 8.09078
899 1 -1.1104 9.38947 22.3083 6.59213
1032 2 2.2208 13.6124 37.6155 5.43454
769 2 2.2208 5.18339 34.9189 5.16465
770 1 -1.1104 0.805133 30.6807 0.85796
771 1 -1.1104 0.763 36.2958 1.04444
773 1 -1.1104 1.04781 30.6111 3.75357
774 1 -1.1104 1.0868 36.2632 3.73738
776 1 -1.1104 0.970273 33.4182 0.935473
777 2 2.2208 5.24317 32.0873 2.27038
778 2 2.2208 5.2138 37.7269 2.36727
779 1 -1.1104 0.97689 33.4403 3.66124
781 1 -1.1104 3.74863 30.766 1.06919
782 1 -1.1104 3.58683 36.3977 1.10291
783 2 2.2208 2.43468 34.9026 2.43043
784 1 -1.1104 3.86721 30.7092 3.71435
785 1 -1.1104 3.8359 36.3331 3.75837
786 2 2.2208 2.51349 32.1198 5.07542
787 2 2.2208 2.41269 37.6705 5.16812
788 1 -1.1104 3.72668 33.6504 0.853433
789 1 -1.1104 3.74962 33.6462 3.72229
775 1 -1.1104 6.55549 36.3389 3.7555
780 1 -1.1104 6.42509 33.6399 3.66453
921 1 -1.1104 6.68883 30.6481 6.67389
794 1 -1.1104 6.69955 30.6621 3.68118
793 1 -1.1104 6.58204 30.7093 0.85741
922 1 -1.1104 6.46849 36.3131 6.61003
795 1 -1.1104 6.68882 33.4838 0.772758
919 1 -1.1104 0.909169 30.5126 6.46389
924 1 -1.1104 6.51597 33.4678 6.53341
1016 1 -1.1104 9.36004 42.0554 12.6146
1416 1 -1.1104 1.09787 47.4601 3.72523
1033 2 2.2208 13.4665 32.1434 5.3161
1056 2 2.2208 2.33689 34.7517 13.6233
772 1 -1.1104 6.36748 36.283 1.03397
1045 2 2.2208 2.34393 29.1739 13.6207
1456 1 -1.1104 12.264 47.4806 3.93777
796 2 2.2208 10.8412 35.0811 5.33941
797 1 -1.1104 11.9921 30.812 0.993189
798 1 -1.1104 12.216 36.3321 1.00382
799 1 -1.1104 12.2675 30.5622 3.86999
800 1 -1.1104 12.1403 36.2556 3.82235
801 1 -1.1104 12.163 33.5068 0.771639
802 2 2.2208 10.7828 32.1037 2.39411
803 2 2.2208 10.9143 37.8173 2.45086
804 1 -1.1104 12.1057 33.4062 3.65014