ITEM: TIMESTEP
80000
ITEM: NUMBER OF ATOMS
17730
ITEM: BOX BOUNDS pp pp pp
-3.6610870834263365e-01 2.7706108708342224e+01
-4.4165790545953953e+00 3.3249657905459890e+02
-3.6238127480797094e-01 2.7702381274807358e+01
ITEM: ATOMS id type q x y z
1 2 2.2208 5.24082 1.26741 5.22142
2 1 -1.1104 1.11661 -2.99608 1.22909
3 1 -1.1104 1.14585 2.77833 0.95487
6 1 -1.1104 1.07352 -2.92981 3.89552
7 1 -1.1104 1.07798 2.71428 3.7948
10 1 -1.1104 0.942725 0.0157727 1.16592
12 2 2.2208 5.15832 -1.54129 2.40286
14 1 -1.1104 0.987717 -0.149219 3.94026
16 1 -1.1104 3.89697 -3.02856 1.00666
17 1 -1.1104 3.95641 2.70402 1.05699
18 2 2.2208 2.38633 1.35969 2.43191
19 1 -1.1104 3.88923 -3.01723 3.72747
20 1 -1.1104 3.8356 2.63891 3.80531
21 2 2.2208 2.45249 -1.69328 5.23417
23 1 -1.1104 3.89859 -0.16953 1.13751
24 1 -1.1104 3.81279 -0.190778 3.98367
22 2 2.2208 2.44226 3.96318 5.2243
13 2 2.2208 5.29772 4.05287 2.491
11 1 -1.1104 6.63867 -0.280387 1.00632
15 1 -1.1104 6.60228 -0.186904 3.84267
4 1 -1.1104 6.61857 -3.06515 0.908545
5 1 -1.1104 6.83617 2.53358 0.84594
9 1 -1.1104 6.69069 2.49676 3.78725
9009 2 2.2208 13.639 -4.42128 2.35437
50 2 2.2208 13.7069 -1.64624 5.28977
360 2 2.2208 10.8489 20.8572 13.5863
357 2 2.2208 2.59453 18.0974 13.671
9014 2 2.2208 10.7082 -4.27831 10.8624
353 2 2.2208 2.47182 12.3594 13.5931
8 1 -1.1104 6.65299 -2.92529 3.67445
9015 2 2.2208 13.5354 -4.52903 7.99456
364 2 2.2208 5.22371 1.23244 -0.286987
31 2 2.2208 10.8249 1.14889 5.16582
32 1 -1.1104 12.2289 -3.09389 1.01665
33 1 -1.1104 12.3267 2.54194 0.935232
34 1 -1.1104 12.1838 -2.89908 3.87135
35 1 -1.1104 12.1618 2.65245 3.83138
36 1 -1.1104 12.1882 -0.141121 0.903517
37 2 2.2208 10.8252 -1.71682 2.43496
38 2 2.2208 10.8492 3.83587 2.39341
39 1 -1.1104 12.2691 -0.166284 3.73109
40 1 -1.1104 9.32931 -3.10963 0.916596
41 1 -1.1104 9.44308 2.59692 1.04309
42 2 2.2208 8.02126 1.12028 2.41504
43 1 -1.1104 9.35975 -3.25474 3.88225
44 1 -1.1104 9.42961 2.4535 3.80494
45 2 2.2208 7.97388 -1.50895 5.32363
46 2 2.2208 8.01609 4.03162 5.26512
47 1 -1.1104 9.50509 -0.275724 1.05811
48 1 -1.1104 9.34876 -0.361709 3.92771
137 2 2.2208 -0.249249 18.0838 5.23996
206 1 -1.1104 12.3516 2.59722 6.70653
205 1 -1.1104 12.3323 -2.94424 6.72628
324 2 2.2208 10.7581 20.8029 7.88708
207 1 -1.1104 12.2161 -0.104967 6.60665
209 1 -1.1104 9.43916 2.51746 6.52304
319 1 -1.1104 9.5131 13.643 9.47019
30 2 2.2208 -0.200792 9.61669 8.09471
231 2 2.2208 13.6517 20.6692 5.20013
329 1 -1.1104 12.321 19.4053 12.4116
27 2 2.2208 -0.277415 4.14149 2.47273
54 2 2.2208 5.33437 6.81344 5.18769
55 2 2.2208 5.28216 12.4922 5.25398
56 1 -1.1104 0.964324 8.36031 1.06528
58 1 -1.1104 0.979388 8.22734 3.98427
60 1 -1.1104 1.11999 5.64315 1.11623
61 1 -1.1104 1.06415 11.0004 0.982933
66 2 2.2208 5.30397 9.72055 2.44975
67 1 -1.1104 1.16828 5.51991 3.8704
68 1 -1.1104 1.06203 11.0944 3.79863
71 1 -1.1104 3.87836 8.19986 0.969648
72 2 2.2208 2.54903 6.8702 2.51033
73 2 2.2208 2.45547 12.6066 2.42442
74 1 -1.1104 3.9279 8.30982 3.78098
75 2 2.2208 2.54041 9.74668 5.18095
76 1 -1.1104 3.99784 5.49928 1.05697
77 1 -1.1104 3.81503 11.0394 1.25087
79 1 -1.1104 3.97146 5.55323 3.9503
80 1 -1.1104 3.87555 11.1208 3.87996
63 1 -1.1104 6.71224 5.41923 0.987968
234 1 -1.1104 1.16102 8.21698 6.82519
69 1 -1.1104 6.70523 5.36407 3.81565
59 1 -1.1104 6.58022 8.2248 3.8253
57 1 -1.1104 6.62154 8.30474 1.02325
70 1 -1.1104 6.65355 11.018 3.89066
62 1 -1.1104 0.912956 11.1036 6.56621
236 1 -1.1104 1.25952 5.29346 6.74701
64 1 -1.1104 6.66726 11.1074 0.946534
84 2 2.2208 10.9454 6.66556 5.13118
85 2 2.2208 10.9123 12.3445 5.249
86 1 -1.1104 12.2462 8.11624 0.904511
87 1 -1.1104 12.2869 8.20756 3.7472
88 1 -1.1104 12.2325 5.31785 1.0436
89 1 -1.1104 12.2705 10.8734 0.869631
91 2 2.2208 10.8893 9.58708 2.42838
92 1 -1.1104 12.3305 5.43714 3.75185
93 1 -1.1104 12.2657 10.9904 3.82887
94 1 -1.1104 9.50234 8.06727 1.10349
95 2 2.2208 8.05383 6.73888 2.38277
96 2 2.2208 7.89871 12.4384 2.43555
97 1 -1.1104 9.50294 8.12593 3.82436
98 2 2.2208 8.16567 9.52944 5.24961
99 1 -1.1104 9.45157 5.34244 1.05626
100 1 -1.1104 9.51541 11.0947 1.12425
102 1 -1.1104 9.47667 5.24532 3.88159
103 1 -1.1104 9.45381 10.9038 3.76928
65 1 -1.1104 6.74625 10.7877 6.79429
365 2 2.2208 2.41603 -1.5501 -0.273746
375 2 2.2208 2.56379 20.7994 -0.370061
9031 2 2.2208 2.51163 -4.41787 13.6455
362 2 2.2208 8.06459 17.998 13.5262
266 1 -1.1104 12.1498 5.38961 6.68923
269 1 -1.1104 9.45031 5.17243 6.80018
101 1 -1.1104 9.48126 10.9286 6.57109
265 1 -1.1104 12.3664 8.19984 6.53578
81 2 2.2208 -0.285485 6.79933 5.26798
232 2 2.2208 13.7731 9.56989 5.19806
106 2 2.2208 5.31381 18.0686 5.22039
107 1 -1.1104 0.968166 13.7164 1.16283
109 1 -1.1104 1.17876 19.2305 0.847541
113 1 -1.1104 0.981081 13.8341 3.91192
114 1 -1.1104 0.967507 19.4942 3.79985
116 1 -1.1104 0.975132 16.4489 1.01044
119 2 2.2208 5.25558 15.2549 2.40185
120 2 2.2208 5.3126 20.8164 2.42537
121 1 -1.1104 1.14351 16.667 3.7564
123 1 -1.1104 3.79819 13.7901 1.05692
125 1 -1.1104 3.99245 19.2778 1.00172
127 2 2.2208 2.5905 18.1003 2.2617
128 1 -1.1104 3.78961 13.968 3.833
129 1 -1.1104 3.85432 19.4656 3.86084
130 2 2.2208 2.39703 15.3684 5.19369
131 2 2.2208 2.40795 20.9053 5.2701
132 1 -1.1104 3.85781 16.6196 0.874621
134 1 -1.1104 4.01697 16.7495 3.74845
139 1 -1.1104 6.63678 19.4315 3.89202
110 1 -1.1104 6.59356 13.8009 1.02206
124 1 -1.1104 3.82296 13.7435 6.51885
115 1 -1.1104 6.56339 13.821 4.00266
118 1 -1.1104 6.42951 16.4477 6.4208
133 1 -1.1104 3.77032 16.5391 6.68382
108 1 -1.1104 1.09054 14.0681 6.8472
111 1 -1.1104 6.60661 13.6978 6.69427
316 2 2.2208 8.12142 20.9058 10.6646
374 2 2.2208 5.34426 17.9786 -0.469412
143 1 -1.1104 12.2506 13.7661 6.57499
140 1 -1.1104 6.55281 16.5858 0.927635
122 1 -1.1104 6.70416 16.6173 3.74638
138 1 -1.1104 6.80715 19.2656 0.917607
296 1 -1.1104 6.52424 19.419 12.2207
141 2 2.2208 10.8976 17.8417 5.20742
142 1 -1.1104 12.2444 13.6951 1.113
144 1 -1.1104 12.3765 19.4004 1.02259
146 1 -1.1104 12.1111 13.7492 3.89235
147 1 -1.1104 12.1959 19.3307 3.8139
148 1 -1.1104 12.1541 16.5315 0.989976
150 2 2.2208 10.7744 15.1573 2.36341
151 2 2.2208 10.8982 20.8669 2.25602
152 1 -1.1104 12.2229 16.521 3.69934
153 1 -1.1104 9.32386 13.7735 1.02005
155 1 -1.1104 9.5772 19.3314 1.04176
157 2 2.2208 8.07759 18.0575 2.40474
158 1 -1.1104 9.43994 13.9143 3.76708
159 1 -1.1104 9.44985 19.5974 3.69578
160 2 2.2208 8.02222 15.0944 5.18265
161 2 2.2208 7.99053 20.8831 5.14241
162 1 -1.1104 9.26898 16.5724 1.01802
164 1 -1.1104 9.46028 16.59 3.81517
165 2 2.2208 13.5694 17.9443 2.32086
154 1 -1.1104 9.43607 13.7234 6.8086
322 1 -1.1104 9.38786 13.7298 12.1306
318 1 -1.1104 9.50138 19.5003 9.37936
361 2 2.2208 10.8394 15.0514 13.6106
326 1 -1.1104 12.2077 16.5787 12.3275
170 1 -1.1104 1.21209 -0.278629 6.72639
171 1 -1.1104 6.65385 -0.202291 6.58645
166 1 -1.1104 1.12794 -3.16864 6.74489
169 1 -1.1104 6.65815 2.63787 6.69665
156 1 -1.1104 9.47948 19.3433 6.3809
355 2 2.2208 10.8752 9.59623 13.5356
167 1 -1.1104 1.21923 2.5432 6.70115
173 1 -1.1104 3.88193 2.60475 6.59837
172 1 -1.1104 3.77695 -2.88227 6.60649
174 1 -1.1104 3.97836 -0.235369 6.68824
168 1 -1.1104 6.57555 -2.96588 6.66757
175 2 2.2208 5.21136 1.17553 10.8918
176 1 -1.1104 1.17899 -3.07854 12.3334
177 1 -1.1104 0.973047 2.54124 12.327
180 1 -1.1104 0.95081 -3.1742 9.44307
181 1 -1.1104 1.01608 2.45683 9.42432
184 1 -1.1104 0.988274 -0.172382 12.3651
186 2 2.2208 5.30008 -1.60333 8.12888
188 1 -1.1104 1.07243 -0.453785 9.40961
190 1 -1.1104 3.88861 -2.95362 12.3151
191 1 -1.1104 3.78604 2.71305 12.3388
192 2 2.2208 2.46592 1.06153 8.11491
193 1 -1.1104 3.78577 -3.10889 9.50386
194 1 -1.1104 3.99999 2.6908 9.49546
195 2 2.2208 2.39207 -1.71909 10.9393
196 2 2.2208 2.44558 4.07336 10.8944
197 1 -1.1104 3.76075 -0.23253 12.3684
198 1 -1.1104 3.76917 -0.22807 9.57454
187 2 2.2208 5.3132 4.04671 8.06032
182 1 -1.1104 6.62099 -3.18912 9.49856
185 1 -1.1104 6.5868 -0.248621 12.4098
183 1 -1.1104 6.79364 2.70766 9.48871
189 1 -1.1104 6.6341 -0.248953 9.43829
178 1 -1.1104 6.57858 -2.98165 12.275
163 1 -1.1104 9.2945 16.6355 6.61087
210 1 -1.1104 9.46735 -0.282281 6.49379
203 2 2.2208 13.6009 3.86089 10.8115
356 2 2.2208 8.1613 12.2655 13.62
354 2 2.2208 8.04327 6.75418 13.6364
315 1 -1.1104 9.50322 16.5065 12.1877
179 1 -1.1104 6.5944 2.64921 12.2963
338 2 2.2208 5.24969 -1.62345 13.7124
208 1 -1.1104 9.48799 -2.99338 6.54976
211 2 2.2208 10.8339 1.04661 10.875
212 1 -1.1104 12.1208 -3.02275 12.3656
213 1 -1.1104 12.3165 2.51811 12.2079
214 1 -1.1104 12.1551 -2.98753 9.57778
215 1 -1.1104 12.2039 2.48595 9.46612
216 1 -1.1104 12.2201 -0.220913 12.3498
217 2 2.2208 10.8521 -1.55936 7.97385
218 2 2.2208 10.8794 3.94569 8.14107
219 1 -1.1104 12.2151 -0.237526 9.51633
220 1 -1.1104 9.42047 -2.91296 12.1213
221 1 -1.1104 9.46209 2.53024 12.224
222 2 2.2208 8.09668 1.28561 8.03953
223 1 -1.1104 9.33454 -2.88249 9.389
224 1 -1.1104 9.46776 2.46715 9.52612
225 2 2.2208 7.93421 -1.50713 10.9522
226 2 2.2208 8.04453 3.99452 10.9242
227 1 -1.1104 9.54389 -0.1701 12.3894
228 1 -1.1104 9.43199 -0.229206 9.43118
312 2 2.2208 -0.396824 17.9258 10.7997
149 1 -1.1104 12.1832 16.6276 6.58217
238 1 -1.1104 4.05599 8.16631 6.65025
325 2 2.2208 10.9395 15.1502 8.1179
235 1 -1.1104 6.75545 8.09859 6.61457
239 1 -1.1104 3.95863 5.39995 6.54339
78 1 -1.1104 3.94104 11.0693 6.60213
237 1 -1.1104 6.683 5.27914 6.66953
240 2 2.2208 5.24233 6.78743 10.8105
241 2 2.2208 5.27609 12.4283 10.8709
242 1 -1.1104 0.978773 8.10136 12.3043
244 1 -1.1104 1.10114 8.27554 9.51424
246 1 -1.1104 0.994098 5.32352 12.3057
247 1 -1.1104 0.992221 10.8733 12.3598
250 2 2.2208 5.25403 9.64393 8.09109
251 1 -1.1104 0.910999 5.33155 9.47917
252 1 -1.1104 1.0621 11.0778 9.45855
255 1 -1.1104 3.84181 8.16324 12.2963
256 2 2.2208 2.53409 6.72483 7.94563
257 2 2.2208 2.3767 12.4784 8.06005
258 1 -1.1104 3.82978 8.23199 9.42335
259 2 2.2208 2.40348 9.5195 10.86
260 1 -1.1104 3.76243 5.47705 12.1669
261 1 -1.1104 3.88926 10.9484 12.3684
262 1 -1.1104 3.75528 5.3369 9.44808
263 1 -1.1104 3.65894 11.1 9.41307
243 1 -1.1104 6.68235 8.31313 12.2934
249 1 -1.1104 6.8221 11.0633 12.1631
253 1 -1.1104 6.74392 5.45362 9.49534
248 1 -1.1104 6.63591 5.52013 12.2226
245 1 -1.1104 6.53092 8.2191 9.57978
254 1 -1.1104 6.53765 11.0231 9.40361
321 1 -1.1104 9.2973 19.3847 12.0464
53 2 2.2208 13.6088 12.467 8.09644
145 1 -1.1104 12.1803 19.2039 6.82595
52 2 2.2208 13.4704 9.64423 10.7128
90 1 -1.1104 12.2802 11.0187 6.60785
267 1 -1.1104 9.66864 8.0318 6.60551
264 1 -1.1104 9.29197 10.8421 9.44138
268 1 -1.1104 9.3703 5.5622 9.54026
270 1 -1.1104 9.53936 10.907 12.3755
271 1 -1.1104 9.5981 5.35353 12.317
272 2 2.2208 8.00023 9.53511 10.9205
273 1 -1.1104 9.47831 8.2393 9.4197
274 2 2.2208 7.99827 12.4022 8.09809
275 2 2.2208 8.16696 6.85952 8.03993
276 2 2.2208 10.8724 6.75142 10.8838
277 2 2.2208 10.8344 12.3676 10.7504
278 1 -1.1104 12.2027 8.23422 12.3142
279 1 -1.1104 12.2002 8.07967 9.36486
280 1 -1.1104 12.3262 5.37993 12.2028
281 1 -1.1104 12.2153 11.0073 12.0893
282 2 2.2208 10.8865 9.58141 7.91224
283 1 -1.1104 12.1174 5.25778 9.40628
284 1 -1.1104 12.0996 10.9507 9.30586
285 1 -1.1104 9.53707 8.0941 12.3117
314 1 -1.1104 9.48245 16.6074 9.31387
302 1 -1.1104 1.12854 19.4904 6.6287
290 1 -1.1104 6.71988 13.6976 9.46626
305 1 -1.1104 3.88934 13.7669 9.47151
307 1 -1.1104 1.12923 16.4516 12.26
300 2 2.2208 5.26778 17.922 10.7666
117 1 -1.1104 1.06576 16.8096 6.62446
126 1 -1.1104 3.76894 19.4173 6.69874
297 1 -1.1104 6.75334 13.7827 12.2874
288 1 -1.1104 6.79389 19.4596 9.48339
306 1 -1.1104 6.69964 16.5291 11.9485
289 1 -1.1104 6.8361 16.4925 9.237
304 1 -1.1104 3.79396 16.5032 9.28534
303 2 2.2208 2.51204 17.9122 8.07812
294 1 -1.1104 1.04631 13.91 9.46659
292 1 -1.1104 0.983551 16.7042 9.46694
291 1 -1.1104 1.12547 19.4224 9.5791
287 1 -1.1104 3.75716 13.8044 12.2579
286 1 -1.1104 3.7587 19.3697 12.1202
293 2 2.2208 5.27925 20.8868 7.94908
309 2 2.2208 2.33366 20.8091 10.8999
299 1 -1.1104 0.916412 13.7236 12.104
298 1 -1.1104 0.963187 19.2691 12.3576
310 2 2.2208 2.40588 15.2075 10.784
295 2 2.2208 5.21663 15.0475 8.01808
308 1 -1.1104 3.91649 16.6648 12.143
301 1 -1.1104 3.98514 19.3165 9.4533
135 2 2.2208 -0.312176 15.2723 2.5366
328 1 -1.1104 12.2544 13.7894 9.4469
331 2 2.2208 10.8828 18.1204 10.9156
28 2 2.2208 13.7168 20.8559 10.8461
320 2 2.2208 7.97016 18.0095 8.02789
327 1 -1.1104 12.2736 19.4146 9.49814
323 1 -1.1104 12.3446 16.5112 9.59027
317 2 2.2208 8.12931 15.1507 10.6585
112 1 -1.1104 6.60437 19.4372 6.58821
330 1 -1.1104 12.3028 13.8883 12.2099
359 2 2.2208 5.21045 15.1767 13.6092
104 2 2.2208 13.5504 12.3119 2.50224
333 2 2.2208 13.5943 15.2546 10.8854
82 2 2.2208 -0.33276 9.66014 2.51978
29 2 2.2208 -0.276925 6.72868 10.9748
136 2 2.2208 -0.317713 20.8191 2.3406
200 2 2.2208 -0.289659 -1.67163 8.04905
376 2 2.2208 13.6306 12.4336 13.6879
341 2 2.2208 5.08734 3.99048 13.703
358 2 2.2208 5.14905 20.8213 13.6835
352 2 2.2208 5.18257 9.6851 13.6882
366 2 2.2208 2.5188 4.17701 -0.312717
335 2 2.2208 -0.378234 20.7485 13.5792
388 2 2.2208 5.21263 1.07844 16.5004
389 1 -1.1104 1.10969 -3.14402 18.0606
390 1 -1.1104 0.936154 2.57188 17.8275
393 1 -1.1104 0.976507 -2.8939 15.1392
395 1 -1.1104 0.894167 2.65731 15.0764
401 1 -1.1104 0.980188 -0.300655 17.9009
403 2 2.2208 5.12646 -1.58693 19.3856
404 2 2.2208 5.12369 4.03424 19.2888
405 1 -1.1104 0.839234 -0.127178 15.1692
409 1 -1.1104 3.9615 -2.99939 18.0127
410 1 -1.1104 3.87024 2.60344 17.8308
411 2 2.2208 2.39005 1.22154 19.2999
412 1 -1.1104 3.8684 -3.04602 15.1008
414 1 -1.1104 3.68843 2.61198 15.0005
416 2 2.2208 2.47129 -1.72222 16.549
417 2 2.2208 2.49715 4.08633 16.4217
418 1 -1.1104 3.78102 -0.174318 17.954
419 1 -1.1104 3.58507 -0.244222 15.2138
391 1 -1.1104 6.54365 -2.93317 18.0236
399 1 -1.1104 6.59029 2.58667 15.161
407 1 -1.1104 6.50385 -0.218022 15.0586
397 1 -1.1104 6.64297 -2.99394 15.1932
392 1 -1.1104 6.60639 2.64808 17.7903
402 1 -1.1104 6.69843 -0.21995 17.8962
455 2 2.2208 13.719 17.9036 24.962
350 2 2.2208 10.9389 4.00006 13.6812
9138 2 2.2208 7.97867 -4.43075 19.271
413 1 -1.1104 3.86361 -3.12512 20.7694
394 1 -1.1104 1.01105 -3.02599 20.7384
398 1 -1.1104 6.69666 -3.04473 20.7796
408 1 -1.1104 6.6206 -0.163984 20.6057
645 2 2.2208 -0.256485 20.8243 24.7716
380 2 2.2208 2.41687 9.69442 27.8623
347 2 2.2208 7.99345 15.0888 27.6345
625 2 2.2208 -0.242725 1.0165 22.1614
590 1 -1.1104 9.62105 19.4065 26.2206
431 2 2.2208 10.8503 1.10138 16.451
432 1 -1.1104 12.2212 -3.05419 17.9872
433 1 -1.1104 12.3504 2.63609 17.8689
434 1 -1.1104 12.2001 -3.03287 15.1047
436 1 -1.1104 12.3596 2.53028 15.0226
438 1 -1.1104 12.2408 -0.26802 17.8922
439 2 2.2208 10.708 -1.6006 19.3156
440 2 2.2208 10.8431 4.00831 19.2164
441 1 -1.1104 12.1743 -0.280937 15.0997
443 1 -1.1104 9.48639 -3.01227 17.8278
444 1 -1.1104 9.38665 2.63827 17.8442
445 2 2.2208 7.98707 1.29326 19.3348
446 1 -1.1104 9.40827 -3.09747 14.9755
448 1 -1.1104 9.58113 2.4935 14.887
450 2 2.2208 8.05486 -1.65247 16.4868
451 2 2.2208 7.88542 4.02801 16.5586
452 1 -1.1104 9.41914 -0.14245 18.0056
453 1 -1.1104 9.43596 -0.362002 15.1568
459 2 2.2208 13.6206 -1.79182 16.6164
457 2 2.2208 -0.364951 15.2215 19.2997
684 2 2.2208 -0.28505 9.54917 24.8693
442 1 -1.1104 12.3025 -0.23496 20.7653
429 2 2.2208 13.6759 3.95655 16.4435
447 1 -1.1104 9.48926 -2.94141 20.6571
562 1 -1.1104 9.52943 19.3618 23.4532
561 1 -1.1104 9.53775 13.8724 23.3258
464 2 2.2208 5.27669 6.95886 16.449
465 2 2.2208 5.40897 12.4065 16.3804
466 1 -1.1104 1.05031 8.24734 17.8509
468 1 -1.1104 1.10586 8.34953 15.0523
472 1 -1.1104 0.877509 5.36672 17.8104
473 1 -1.1104 0.983946 10.9991 17.7866
476 2 2.2208 5.29163 9.58131 19.244
477 1 -1.1104 1.07711 5.53363 15.1221
479 1 -1.1104 1.19355 11.1448 15.0707
485 1 -1.1104 3.85781 8.26567 17.6523
486 2 2.2208 2.35594 6.7759 19.2596
487 2 2.2208 2.41975 12.474 19.0999
488 1 -1.1104 3.89986 8.15902 15.0162
490 2 2.2208 2.50552 9.64309 16.3635
491 1 -1.1104 3.91081 5.46709 17.7544
492 1 -1.1104 3.84743 11.1345 17.8977
493 1 -1.1104 3.71153 5.37678 15.0085
495 1 -1.1104 4.06284 11.021 15.2184
467 1 -1.1104 6.70949 8.22414 17.9211
475 1 -1.1104 6.59424 10.9972 17.9195
481 1 -1.1104 6.50752 5.33068 14.9504
474 1 -1.1104 6.60558 5.46013 17.8841
478 1 -1.1104 1.10793 5.33312 20.6545
483 1 -1.1104 6.68673 11.0245 15.0845
378 2 2.2208 13.6982 4.04955 27.6158
480 1 -1.1104 1.1459 10.9987 20.6408
496 1 -1.1104 3.95527 10.9704 20.622
497 1 -1.1104 12.3623 19.42 23.628
623 2 2.2208 -0.40931 18.0101 22.0425
470 1 -1.1104 6.63355 8.2312 15.0623
500 2 2.2208 10.6788 6.79319 16.3227
501 2 2.2208 10.8008 12.4243 16.5132
502 1 -1.1104 12.2201 8.24524 17.7748
503 1 -1.1104 12.114 8.18565 15.0242
505 1 -1.1104 12.1709 5.45464 17.7429
506 1 -1.1104 12.1014 11.0186 17.762
507 2 2.2208 10.7391 9.50615 19.3544
508 1 -1.1104 12.3686 5.28763 14.9959
510 1 -1.1104 12.2168 11.0538 14.9002
512 1 -1.1104 9.34981 8.15266 17.8528
513 2 2.2208 8.15972 6.78684 19.2044
514 2 2.2208 7.93874 12.2208 19.3822
515 1 -1.1104 9.28965 8.37205 15.0379
517 2 2.2208 8.05175 9.6932 16.485
518 1 -1.1104 9.32317 5.3922 17.6659
519 1 -1.1104 9.40296 10.9636 17.9169
520 1 -1.1104 9.3564 5.43141 15.0702
522 1 -1.1104 9.55171 10.9531 15.1922
426 2 2.2208 13.5153 9.59646 16.3426
511 1 -1.1104 12.2139 10.859 20.6382
504 1 -1.1104 12.3042 8.15791 20.7255
708 2 2.2208 13.647 12.348 24.7736
373 2 2.2208 2.45324 15.2768 27.5962
461 2 2.2208 13.6514 20.8919 22.179
351 2 2.2208 2.44337 6.79762 13.6929
527 2 2.2208 5.30785 18.0455 16.4107
528 1 -1.1104 1.03188 13.8608 17.789
529 1 -1.1104 1.0581 19.4767 17.947
532 1 -1.1104 0.799785 13.7916 15.0338
534 1 -1.1104 1.08431 19.511 15.1151
540 1 -1.1104 1.02736 16.709 17.7747
542 2 2.2208 5.18538 15.1542 19.2082
543 2 2.2208 5.32743 20.8788 19.1924
544 1 -1.1104 1.29579 16.6334 14.9506
548 1 -1.1104 3.8068 13.8617 17.7217
549 1 -1.1104 3.76052 19.632 17.8813
550 2 2.2208 2.45897 17.9976 19.2779
551 1 -1.1104 3.83336 13.7246 15.0185
553 1 -1.1104 3.93688 19.3579 15.0706
555 2 2.2208 2.41151 15.3081 16.4043
556 2 2.2208 2.36608 20.8504 16.4428
557 1 -1.1104 3.94559 16.7115 17.8901
558 1 -1.1104 4.00207 16.4752 15.1126
541 1 -1.1104 6.69642 16.5995 17.7068
538 1 -1.1104 6.65696 19.3709 14.9665
530 1 -1.1104 6.6758 13.8235 18.0254
536 1 -1.1104 6.66856 13.7951 15.0448
545 1 -1.1104 1.12236 16.5697 20.4823
531 1 -1.1104 6.6658 19.4742 17.8408
559 1 -1.1104 3.90224 16.7441 20.708
712 1 -1.1104 6.63846 13.672 26.2261
546 1 -1.1104 6.63909 16.6802 14.9249
563 2 2.2208 10.8051 17.9698 16.4198
564 1 -1.1104 12.2612 13.6812 17.9085
565 1 -1.1104 12.2268 19.5001 17.9289
566 1 -1.1104 12.1909 13.8805 15.1117
568 1 -1.1104 12.3209 19.4519 14.9878
570 1 -1.1104 12.2468 16.632 17.9189
571 2 2.2208 10.7939 15.0972 19.2247
572 2 2.2208 10.9507 20.8985 19.2614
573 1 -1.1104 12.2461 16.6079 15.1488
575 1 -1.1104 9.37496 13.8458 17.7717
576 1 -1.1104 9.56881 19.3873 17.7614
577 2 2.2208 8.10032 18.0279 19.1007
578 1 -1.1104 9.45999 13.7495 15.0885
580 1 -1.1104 9.43397 19.4744 14.8661
582 2 2.2208 8.02472 15.2112 16.3129
583 2 2.2208 8.02976 20.7176 16.3271
584 1 -1.1104 9.54422 16.6902 17.8069
585 1 -1.1104 9.52181 16.6835 14.925
567 1 -1.1104 12.2203 13.6472 20.5847
574 1 -1.1104 12.2438 16.5058 20.6556
619 2 2.2208 13.6124 15.2847 16.4546
714 1 -1.1104 6.64853 16.5942 26.1902
586 1 -1.1104 9.42801 16.516 20.6192
460 2 2.2208 13.715 20.7612 16.5255
710 2 2.2208 13.6625 6.42603 24.7174
369 2 2.2208 10.7911 1.0673 27.6811
569 1 -1.1104 12.2691 19.4631 20.7323
539 1 -1.1104 6.67132 19.3852 20.5695
622 2 2.2208 -0.287808 9.63316 19.2061
463 1 -1.1104 12.2922 13.6828 23.4243
396 1 -1.1104 1.14826 2.62931 20.7448
406 1 -1.1104 1.01063 -0.17427 20.7609
420 1 -1.1104 3.88743 -0.394466 20.816
400 1 -1.1104 6.73155 2.75453 20.7065
415 1 -1.1104 4.01616 2.46397 20.5836
591 2 2.2208 5.25433 1.14864 22.0972
592 1 -1.1104 0.993054 -3.06361 23.7056
593 1 -1.1104 1.10946 2.53788 23.6046
596 1 -1.1104 1.09231 -2.94646 26.4252
597 1 -1.1104 0.935336 2.73938 26.1468
600 1 -1.1104 0.962728 -0.258236 23.74
602 2 2.2208 5.02378 -1.6983 25.0329
603 2 2.2208 5.08247 4.02353 25.0253
604 1 -1.1104 0.918526 -0.3124 26.4095
606 1 -1.1104 3.70828 -3.25383 23.661
607 1 -1.1104 3.86627 2.55194 23.5995
608 2 2.2208 2.41641 1.10849 25.055
609 1 -1.1104 3.69549 -2.87986 26.3464
610 1 -1.1104 3.74118 2.52351 26.3743
611 2 2.2208 2.27888 -1.72505 22.2676
612 2 2.2208 2.3804 4.05519 22.107
613 1 -1.1104 3.73732 -0.348389 23.5488
614 1 -1.1104 3.77716 -0.122694 26.46
599 1 -1.1104 6.64407 2.53881 26.273
601 1 -1.1104 6.52238 -0.175867 23.4845
594 1 -1.1104 6.6725 -2.90051 23.5957
462 2 2.2208 10.7674 17.9615 22.0184
435 1 -1.1104 12.3933 -3.09633 20.6989
437 1 -1.1104 12.071 2.53921 20.4979
454 1 -1.1104 9.41004 -0.27825 20.7228
449 1 -1.1104 9.43649 2.58445 20.6642
344 2 2.2208 13.5379 14.9619 27.663
423 2 2.2208 13.5364 3.80339 22.0004
595 1 -1.1104 6.52173 2.72991 23.5801
605 1 -1.1104 6.47703 -0.146361 26.306
598 1 -1.1104 6.54036 -3.0518 26.1562
581 1 -1.1104 9.40446 19.4316 20.5599
627 2 2.2208 10.7831 1.23769 22.0255
628 1 -1.1104 12.3325 -2.88553 23.6497
629 1 -1.1104 12.2755 2.53752 23.5194
630 1 -1.1104 12.1333 -2.90654 26.3976
631 1 -1.1104 12.3469 2.66867 26.2389
632 1 -1.1104 12.1843 -0.169596 23.3571
633 2 2.2208 10.8498 -1.58836 24.8506
634 2 2.2208 10.816 3.84478 24.9698
635 1 -1.1104 12.4069 -0.286956 26.2842
636 1 -1.1104 9.41206 -2.9215 23.3969
637 1 -1.1104 9.33572 2.57766 23.4688
638 2 2.2208 7.91254 1.14322 24.9206
639 1 -1.1104 9.51166 -3.04895 26.231
640 1 -1.1104 9.50639 2.45317 26.3312
641 2 2.2208 8.03959 -1.59875 22.1372
642 2 2.2208 7.98245 4.12712 22.0986
643 1 -1.1104 9.4379 -0.169605 23.5649
644 1 -1.1104 9.3977 -0.414859 26.3121
615 2 2.2208 7.98828 15.1785 21.9681
499 1 -1.1104 12.3558 19.319 26.3561
494 1 -1.1104 3.82724 5.30112 20.7181
471 1 -1.1104 6.55102 8.2065 20.6511
489 1 -1.1104 3.77176 8.21393 20.5564
469 1 -1.1104 1.06265 8.12865 20.7412
656 2 2.2208 5.21312 6.78423 22.051
657 2 2.2208 5.14651 12.3744 22.0053
658 1 -1.1104 1.01329 8.05436 23.5455
660 1 -1.1104 1.13854 8.26157 26.3526
662 1 -1.1104 0.94871 5.46027 23.5289
663 1 -1.1104 1.15884 11.059 23.4773
666 2 2.2208 5.20102 9.64461 24.8583
667 1 -1.1104 1.02953 5.41824 26.4456
668 1 -1.1104 0.958923 10.9797 26.3591
671 1 -1.1104 3.79118 7.97941 23.5462
672 2 2.2208 2.53245 6.72729 24.8857
673 2 2.2208 2.43967 12.4301 24.8023
674 1 -1.1104 3.91107 8.33501 26.2303
675 2 2.2208 2.48363 9.54083 22.105
676 1 -1.1104 3.84906 5.30395 23.3953
677 1 -1.1104 3.80736 10.9786 23.5041
678 1 -1.1104 3.96947 5.59278 26.2993
679 1 -1.1104 3.76644 11.0121 26.2973
670 1 -1.1104 6.76765 10.9214 26.3408
661 1 -1.1104 6.7649 8.21679 26.175
665 1 -1.1104 6.51534 10.9109 23.5081
659 1 -1.1104 6.71394 8.21953 23.3876
669 1 -1.1104 6.68589 5.50695 26.3806
482 1 -1.1104 6.57731 5.49521 20.6668
484 1 -1.1104 6.73572 11.0422 20.8539
526 2 2.2208 10.8385 20.7723 24.8162
560 1 -1.1104 12.3327 16.6218 26.227
523 1 -1.1104 9.52724 10.8484 20.7185
509 1 -1.1104 12.2771 5.23164 20.4892
524 1 -1.1104 12.2171 16.568 23.6037
498 1 -1.1104 12.0125 13.9188 26.3989
525 2 2.2208 10.7957 15.1961 24.8462
516 1 -1.1104 9.28133 8.01219 20.6287
521 1 -1.1104 9.46536 5.33173 20.6613
664 1 -1.1104 6.52252 5.46749 23.561
687 1 -1.1104 9.66966 10.9496 26.2209
688 1 -1.1104 9.40869 5.27115 26.3472
689 1 -1.1104 9.50415 11.0185 23.5084
690 1 -1.1104 9.47245 5.49415 23.3344
691 2 2.2208 8.10239 9.52729 22.1665
692 1 -1.1104 9.45512 8.19656 26.3443
693 2 2.2208 8.10283 12.2581 24.8876
694 2 2.2208 8.06652 6.7855 24.8684
695 2 2.2208 10.8657 6.73492 22.0071
696 2 2.2208 10.7683 12.3099 22.0842
697 1 -1.1104 12.2855 8.04002 23.5221
698 1 -1.1104 12.2584 8.03459 26.2301
699 1 -1.1104 12.1295 5.31921 23.408
700 1 -1.1104 12.2933 10.8444 23.391
701 2 2.2208 10.9264 9.46477 24.8004
702 1 -1.1104 12.2817 5.25962 26.1608
703 1 -1.1104 12.3689 11.1447 26.2052
704 1 -1.1104 9.51973 8.17999 23.4281
650 2 2.2208 13.5125 12.2431 19.2983
533 1 -1.1104 0.998532 13.7907 20.568
547 1 -1.1104 6.66163 16.7458 20.3771
554 1 -1.1104 3.8253 19.3963 20.6368
537 1 -1.1104 6.52218 13.8763 20.7521
552 1 -1.1104 3.63741 13.943 20.5089
535 1 -1.1104 0.934609 19.3953 20.7383
718 1 -1.1104 6.76731 19.2969 23.3549
588 1 -1.1104 6.70441 19.422 26.2788
709 1 -1.1104 6.66723 13.6371 23.4053
717 1 -1.1104 0.873956 13.766 26.1491
719 2 2.2208 5.27299 20.7666 24.8502
716 1 -1.1104 1.06438 16.5834 26.2087
715 1 -1.1104 1.10583 19.449 26.139
720 2 2.2208 5.26216 15.178 24.8493
647 2 2.2208 2.46903 15.1878 21.9565
649 2 2.2208 2.47472 20.7804 21.9676
652 1 -1.1104 3.82107 16.7587 23.5356
655 1 -1.1104 0.941972 16.514 23.2648
681 1 -1.1104 3.80389 13.7836 26.3704
682 1 -1.1104 3.75599 16.5938 26.2468
683 2 2.2208 2.41534 18.0257 24.8781
686 1 -1.1104 3.92764 19.2576 26.2295
705 2 2.2208 5.22736 17.9675 22.0508
706 1 -1.1104 1.18556 13.7602 23.3623
707 1 -1.1104 0.941553 19.4291 23.3207
711 1 -1.1104 3.86125 19.4236 23.522
713 1 -1.1104 3.84736 13.848 23.4821
680 1 -1.1104 6.5365 16.4945 23.3489
579 1 -1.1104 9.31851 13.5776 20.6697
616 2 2.2208 8.05723 20.8092 22.0543
589 1 -1.1104 9.37594 13.7193 26.2447
617 1 -1.1104 9.43176 16.5578 23.3392
620 1 -1.1104 9.4427 16.6018 26.2231
587 2 2.2208 8.09987 17.9917 24.8623
387 2 2.2208 13.6456 9.5752 27.5773
372 2 2.2208 8.11617 3.96943 27.578
379 2 2.2208 5.34774 6.86779 27.7389
381 2 2.2208 5.16384 12.3897 27.7644
385 2 2.2208 7.94993 9.6068 27.6881
430 2 2.2208 13.6322 15.1217 22.1858
626 2 2.2208 -0.421322 4.10981 24.8492
422 2 2.2208 13.7532 9.44061 22.1079
654 2 2.2208 13.7645 1.12721 24.9011
427 2 2.2208 -0.310087 3.89053 19.1573
425 2 2.2208 -0.377676 -1.6513 19.3738
458 2 2.2208 -0.341814 20.8056 19.283
421 2 2.2208 -0.4837 6.74198 22.0569
648 2 2.2208 -0.300425 12.3558 16.4662
348 2 2.2208 10.845 18.0116 27.6282
9027 2 2.2208 7.94837 -4.38913 13.6471
346 2 2.2208 10.8221 -1.54738 13.6345
370 2 2.2208 7.96244 -1.62989 27.6205
343 2 2.2208 8.10868 1.2307 13.6408
384 2 2.2208 10.8397 6.73554 27.6776
386 2 2.2208 10.8481 12.2672 27.7414
339 2 2.2208 2.3771 1.27213 13.6373
349 2 2.2208 8.21909 20.8299 27.5083
721 2 2.2208 5.32838 23.6848 5.13637
722 2 2.2208 5.18729 29.374 5.21759
723 1 -1.1104 1.07871 25.1009 0.945039
724 1 -1.1104 0.941182 25.0911 3.64937
725 1 -1.1104 1.01144 22.263 1.09671
726 1 -1.1104 0.9413 27.8505 1.0998
727 2 2.2208 5.30894 26.4722 2.41316
728 1 -1.1104 1.0786 22.2101 3.8937
729 1 -1.1104 1.02017 27.9611 3.72458
730 1 -1.1104 3.80059 25.0698 1.0155
731 2 2.2208 2.37694 23.7421 2.40339
732 2 2.2208 2.38019 29.1512 2.32046
733 1 -1.1104 3.87869 25.0483 3.74404
734 2 2.2208 2.42139 26.4934 5.16139
735 1 -1.1104 3.86932 22.1527 1.00398
736 1 -1.1104 3.91383 27.8111 0.89683
737 1 -1.1104 3.86588 22.2352 3.7887
738 1 -1.1104 3.8349 27.769 3.79496
743 1 -1.1104 6.7131 25.1526 3.87218
746 1 -1.1104 6.61658 22.438 3.79756
745 1 -1.1104 6.74646 27.8567 0.95722
866 1 -1.1104 6.66768 22.1257 6.59104
742 1 -1.1104 6.76638 25.1116 1.11603
869 1 -1.1104 3.93735 22.2788 6.62147
870 1 -1.1104 3.86824 27.8523 6.59718
747 1 -1.1104 6.57048 27.9326 3.64239
744 1 -1.1104 6.74594 22.1456 0.882196
1087 2 2.2208 10.9409 34.9557 -0.381584
865 1 -1.1104 1.19944 27.9682 6.55178
862 1 -1.1104 1.05672 25.1475 6.4006
1069 2 2.2208 5.24764 23.6534 -0.319856
1072 2 2.2208 10.9241 40.5113 -0.310898
748 2 2.2208 10.9096 23.5948 5.10928
749 2 2.2208 10.761 29.297 5.20573
750 1 -1.1104 12.4149 25.0405 0.926982
751 1 -1.1104 12.2086 24.9604 3.68211
752 1 -1.1104 12.2572 22.2526 0.995763
753 1 -1.1104 12.431 27.7607 0.949051
754 2 2.2208 10.8115 26.3666 2.36788
755 1 -1.1104 12.2853 22.136 3.77466
756 1 -1.1104 12.1751 27.9281 3.83077
757 1 -1.1104 9.55431 25.0449 0.923538
758 2 2.2208 8.10853 23.7424 2.36268
759 2 2.2208 8.0266 29.2836 2.53529
760 1 -1.1104 9.53097 25.095 3.7758
761 2 2.2208 8.16862 26.3855 5.19126
762 1 -1.1104 9.49242 22.3029 1.03993
763 1 -1.1104 9.59189 27.8939 0.981852
764 1 -1.1104 9.50581 22.3777 3.79317
765 1 -1.1104 9.28628 27.7829 3.87262
1646 1 -1.1104 12.4025 47.5651 12.3453
1614 1 -1.1104 1.18602 47.5349 9.41292
899 1 -1.1104 9.46389 22.1473 6.5922
898 1 -1.1104 9.54441 24.8087 6.51502
895 1 -1.1104 12.356 24.9028 6.41562
1006 2 2.2208 -0.314295 46.1558 10.9466
1088 2 2.2208 13.7478 32.1708 -0.406786
769 2 2.2208 5.28338 34.9067 5.05243
770 1 -1.1104 1.01294 30.6161 0.838594
771 1 -1.1104 1.09336 36.2393 1.07505
773 1 -1.1104 1.10697 30.6233 3.74809
774 1 -1.1104 0.862891 36.2969 3.85528
776 1 -1.1104 1.05853 33.3506 1.03071
777 2 2.2208 5.25369 31.9263 2.47039
778 2 2.2208 5.32767 37.5873 2.39203
779 1 -1.1104 1.04824 33.6107 3.7793
781 1 -1.1104 3.92033 30.4299 1.07094
782 1 -1.1104 3.83127 35.9363 0.829372
783 2 2.2208 2.45702 34.8423 2.45966
784 1 -1.1104 3.84398 30.6396 3.80442
785 1 -1.1104 3.9127 36.3272 3.7095
786 2 2.2208 2.27827 32.0266 5.19519
787 2 2.2208 2.48253 37.731 5.25381
788 1 -1.1104 3.82708 33.2443 1.21073
789 1 -1.1104 3.85032 33.4932 3.87015
924 1 -1.1104 6.39604 33.5173 6.54984
920 1 -1.1104 1.05975 36.2825 6.69411
927 1 -1.1104 3.64772 33.4528 6.54498
926 1 -1.1104 3.71352 36.2562 6.54645
772 1 -1.1104 6.65119 36.1841 0.859341
775 1 -1.1104 6.749 36.1223 3.64467
795 1 -1.1104 6.60917 33.4222 0.92391
1080 2 2.2208 2.5806 32.1235 -0.432988
919 1 -1.1104 0.94166 30.694 6.63576
921 1 -1.1104 6.5567 30.6061 6.57482
1418 1 -1.1104 6.71653 47.5039 3.87089
1085 2 2.2208 8.08276 37.7217 -0.357478
794 1 -1.1104 6.5357 30.648 3.8532
1456 1 -1.1104 12.2019 47.544 3.65516
780 1 -1.1104 6.67025 33.3507 3.71783
793 1 -1.1104 6.73472 30.6933 0.993722
796 2 2.2208 10.8667 35.016 5.40754
797 1 -1.1104 12.2735 30.6679 1.11347
798 1 -1.1104 12.247 36.2645 1.01111
799 1 -1.1104 12.2752 30.7339 3.76301
800 1 -1.1104 12.2609 36.2899 3.97299
801 1 -1.1104 12.239 33.4221 0.808664
802 2 2.2208 10.9146 32.1035 2.41632
803 2 2.2208 11.0177 37.7171 2.5168
804 1 -1.1104 12.3474 33.2957 3.79964
805 1 -1.1104 9.52145 30.7626 1.10257
806 1 -1.1104 9.62963 36.2731 1.084
807 2 2.2208 8.16346 34.8165 2.33858
808 1 -1.1104 9.39615 30.499 3.78633