ITEM: TIMESTEP
100000
ITEM: NUMBER OF ATOMS
17730
ITEM: BOX BOUNDS pp pp pp
-3.6831367138267068e-01 2.7708313671382300e+01
-4.3158094758405046e+00 3.3239580947584125e+02
-3.7244223303364132e-01 2.7712442233033034e+01
ITEM: ATOMS id type q x y z
1 2 2.2208 5.3032 1.22979 5.20738
2 1 -1.1104 1.09966 -2.9372 1.18532
3 1 -1.1104 1.18047 2.71563 0.987184
6 1 -1.1104 1.22308 -3.00902 3.93556
7 1 -1.1104 1.09448 2.68687 3.9238
10 1 -1.1104 1.02343 -0.104383 1.17208
12 2 2.2208 5.31187 -1.60954 2.4869
14 1 -1.1104 1.21687 -0.304539 3.91337
16 1 -1.1104 3.86676 -2.94391 1.14744
17 1 -1.1104 3.87136 2.85414 0.929925
18 2 2.2208 2.48126 1.21105 2.43994
19 1 -1.1104 3.95814 -3.04206 3.93324
20 1 -1.1104 4.04471 2.62814 3.79691
21 2 2.2208 2.54401 -1.54591 5.33089
23 1 -1.1104 3.91764 -0.0905422 0.956651
24 1 -1.1104 3.93863 -0.141201 3.80862
22 2 2.2208 2.49149 4.10244 5.25994
13 2 2.2208 5.30253 4.1951 2.44146
11 1 -1.1104 6.49761 -0.0856554 1.05982
15 1 -1.1104 6.73159 -0.15074 3.85496
8 1 -1.1104 6.63984 -2.98321 4.00005
5 1 -1.1104 6.65432 2.70653 1.06187
9 1 -1.1104 6.63856 2.71499 3.71508
9015 2 2.2208 13.7665 -4.30905 8.04839
167 1 -1.1104 1.04952 2.65555 6.74108
173 1 -1.1104 3.89479 2.7418 6.54976
171 1 -1.1104 6.80304 -0.106808 6.71042
9011 2 2.2208 5.16996 -4.38918 10.9512
230 2 2.2208 13.6579 -1.29315 10.8779
4 1 -1.1104 6.63782 -2.86237 1.03488
31 2 2.2208 10.8751 1.34178 5.23413
32 1 -1.1104 12.0914 -2.99861 0.853836
33 1 -1.1104 12.1432 2.64306 0.956967
34 1 -1.1104 12.2641 -2.96123 3.82532
35 1 -1.1104 12.3075 2.6302 3.85416
36 1 -1.1104 12.4381 -0.332559 1.11785
37 2 2.2208 10.9077 -1.58544 2.47459
39 1 -1.1104 12.2745 -0.26213 3.9074
40 1 -1.1104 9.29376 -2.842 1.13516
41 1 -1.1104 9.40917 2.78641 1.00803
42 2 2.2208 8.00075 1.25626 2.41719
43 1 -1.1104 9.49511 -2.88701 3.92592
44 1 -1.1104 9.37814 2.55389 3.88536
45 2 2.2208 8.06813 -1.477 5.26842
46 2 2.2208 8.06284 4.10809 5.15045
47 1 -1.1104 9.34683 -0.0479328 0.999341
48 1 -1.1104 9.46417 -0.142555 3.84057
38 2 2.2208 10.7687 4.07942 2.43193
206 1 -1.1104 12.3063 2.68422 6.68026
232 2 2.2208 13.5383 9.6672 5.22911
9013 2 2.2208 7.95072 -4.36374 8.11322
233 2 2.2208 13.6297 4.12938 5.26778
372 2 2.2208 8.05505 4.08658 -0.561475
311 2 2.2208 -0.396899 21.0442 8.09249
229 2 2.2208 13.7788 1.35157 7.98484
370 2 2.2208 8.02783 -1.5005 -0.278454
54 2 2.2208 5.04603 6.88512 5.27752
55 2 2.2208 5.18335 12.5612 5.3507
56 1 -1.1104 0.930401 8.27779 1.00797
58 1 -1.1104 1.01254 8.30392 3.82666
60 1 -1.1104 0.999185 5.52915 1.02331
61 1 -1.1104 1.12286 11.1136 1.23248
66 2 2.2208 5.05448 9.75657 2.46522
67 1 -1.1104 0.99544 5.55768 3.84129
68 1 -1.1104 0.744953 11.1558 3.7899
71 1 -1.1104 3.85262 8.38584 1.12076
72 2 2.2208 2.39546 6.97975 2.44434
73 2 2.2208 2.40595 12.5561 2.47404
74 1 -1.1104 3.8473 8.2066 3.84147
75 2 2.2208 2.27669 9.76842 5.26655
76 1 -1.1104 3.85725 5.61672 0.947014
77 1 -1.1104 3.77075 11.0818 1.15114
79 1 -1.1104 3.77997 5.45143 3.83267
80 1 -1.1104 3.59702 11.0854 3.90279
238 1 -1.1104 3.61441 8.46291 6.62992
64 1 -1.1104 6.58029 11.2388 0.960121
70 1 -1.1104 6.46992 11.1044 3.95124
59 1 -1.1104 6.65113 8.28999 3.82825
63 1 -1.1104 6.61029 5.44394 1.00758
69 1 -1.1104 6.6132 5.51186 3.7375
364 2 2.2208 5.2543 1.31445 -0.355048
9014 2 2.2208 10.891 -4.26893 10.8266
239 1 -1.1104 3.86041 5.5592 6.6995
78 1 -1.1104 3.72725 11.2858 6.69915
62 1 -1.1104 0.932894 11.2413 6.64214
366 2 2.2208 2.55881 4.18904 -0.352264
57 1 -1.1104 6.52319 8.33675 0.957202
235 1 -1.1104 6.49589 8.32128 6.61535
84 2 2.2208 10.7282 7.00469 5.17461
85 2 2.2208 10.8099 12.5107 5.40855
86 1 -1.1104 12.3897 8.16089 0.971927
87 1 -1.1104 12.2258 8.19519 3.72921
88 1 -1.1104 12.1388 5.42193 0.999978
89 1 -1.1104 12.2081 10.9349 0.960423
91 2 2.2208 10.7836 9.66644 2.44032
92 1 -1.1104 12.1081 5.29514 3.8825
93 1 -1.1104 12.0394 11.0782 3.91209
94 1 -1.1104 9.40298 8.29813 0.948829
95 2 2.2208 7.90621 7.02987 2.26479
96 2 2.2208 8.19325 12.5383 2.45893
97 1 -1.1104 9.36365 8.51284 3.91366
98 2 2.2208 7.93819 9.88472 5.3183
99 1 -1.1104 9.34171 5.51169 0.833567
100 1 -1.1104 9.40108 11.0327 1.09703
102 1 -1.1104 9.37039 5.57272 3.66402
103 1 -1.1104 9.26693 11.3008 4.02463
267 1 -1.1104 9.36508 8.28158 6.62719
266 1 -1.1104 12.3281 5.58291 6.52405
101 1 -1.1104 9.41712 11.1116 6.62426
349 2 2.2208 8.15874 21.0433 -0.42642
137 2 2.2208 -0.461094 18.1347 5.25575
343 2 2.2208 8.0474 1.3126 13.6581
106 2 2.2208 5.20381 18.1862 5.33829
107 1 -1.1104 0.86273 14.0402 1.07223
109 1 -1.1104 1.07482 19.6647 0.871795
113 1 -1.1104 1.10389 14.0092 3.90513
114 1 -1.1104 1.18996 19.4529 3.83965
116 1 -1.1104 1.15278 16.9276 0.96707
119 2 2.2208 5.37254 15.2561 2.4121
120 2 2.2208 5.18914 20.8123 2.38979
121 1 -1.1104 1.13125 16.7082 3.83266
123 1 -1.1104 3.83774 13.9721 1.12028
125 1 -1.1104 3.87098 19.6156 0.993119
127 2 2.2208 2.53025 18.1948 2.46624
128 1 -1.1104 4.00371 13.772 3.83387
129 1 -1.1104 3.80576 19.5544 3.84348
130 2 2.2208 2.41365 15.4295 5.23392
131 2 2.2208 2.23108 20.9601 5.30102
132 1 -1.1104 3.98058 16.6877 1.05447
134 1 -1.1104 3.84605 16.7837 3.98145
126 1 -1.1104 3.87547 19.5278 6.67743
140 1 -1.1104 6.75495 16.7753 1.06756
115 1 -1.1104 6.75184 13.8373 3.71157
138 1 -1.1104 6.73278 19.4937 0.957799
110 1 -1.1104 6.75033 13.9352 0.961624
365 2 2.2208 2.52055 -1.57253 -0.27961
133 1 -1.1104 3.75063 16.869 6.78262
124 1 -1.1104 3.70671 14.044 6.60463
9007 2 2.2208 8.08212 -4.36402 2.58315
122 1 -1.1104 6.63101 16.6841 3.87994
139 1 -1.1104 6.65088 19.5434 3.72948
141 2 2.2208 10.7577 18.0278 5.31943
142 1 -1.1104 12.3566 13.7367 1.01523
144 1 -1.1104 12.3261 19.5639 1.02157
146 1 -1.1104 12.201 13.8045 3.88059
147 1 -1.1104 12.0969 19.4348 3.66181
148 1 -1.1104 12.3108 16.7204 0.980981
150 2 2.2208 10.8838 15.309 2.50616
151 2 2.2208 10.8298 20.9274 2.27229
152 1 -1.1104 12.2194 16.6503 3.82782
153 1 -1.1104 9.59115 13.979 1.11445
155 1 -1.1104 9.47592 19.4925 1.06129
157 2 2.2208 8.03187 18.0639 2.53721
158 1 -1.1104 9.52093 13.9338 3.91449
159 1 -1.1104 9.3893 19.4161 3.87459
160 2 2.2208 7.96619 15.2887 5.2246
161 2 2.2208 8.08947 20.8325 5.31134
162 1 -1.1104 9.54166 16.6596 1.08131
164 1 -1.1104 9.34887 16.6689 3.95125
145 1 -1.1104 12.1659 19.5718 6.45794
156 1 -1.1104 9.33223 19.3734 6.61553
149 1 -1.1104 12.2438 16.7359 6.65238
143 1 -1.1104 12.154 13.9327 6.6518
118 1 -1.1104 6.67406 16.7651 6.65803
154 1 -1.1104 9.35893 13.8757 6.6789
315 1 -1.1104 9.59838 16.8218 12.2492
322 1 -1.1104 9.5284 14.0184 12.3134
199 2 2.2208 -0.389005 4.10083 8.00844
321 1 -1.1104 9.31257 19.5596 12.1882
166 1 -1.1104 1.15136 -2.94557 6.65422
202 2 2.2208 13.622 6.84437 7.96529
174 1 -1.1104 4.07653 -0.138343 6.64229
170 1 -1.1104 1.14244 -0.0324991 6.65769
169 1 -1.1104 6.68837 2.88144 6.60928
172 1 -1.1104 3.97466 -2.93511 6.82505
175 2 2.2208 5.1704 1.25906 10.9291
176 1 -1.1104 0.804106 -2.92672 12.2779
177 1 -1.1104 1.11798 2.66899 12.2626
180 1 -1.1104 1.10955 -2.91865 9.52079
181 1 -1.1104 1.06303 2.7217 9.53526
184 1 -1.1104 1.069 -0.0472375 12.3152
186 2 2.2208 5.22898 -1.51663 8.14443
188 1 -1.1104 1.09108 -0.190452 9.34788
190 1 -1.1104 3.67185 -3.07643 12.3183
191 1 -1.1104 3.8698 2.57291 12.37
192 2 2.2208 2.53409 1.32636 8.02498
193 1 -1.1104 3.85299 -2.90897 9.67794
194 1 -1.1104 3.81237 2.67058 9.44178
195 2 2.2208 2.38309 -1.48938 10.94
196 2 2.2208 2.46592 4.00584 10.8998
197 1 -1.1104 3.73533 -0.364678 12.3427
198 1 -1.1104 3.7985 -0.106126 9.51545
187 2 2.2208 5.25765 4.14595 8.05242
183 1 -1.1104 6.6103 2.73363 9.5518
182 1 -1.1104 6.68861 -3.08121 9.55278
189 1 -1.1104 6.65345 -0.203036 9.49116
185 1 -1.1104 6.5026 -0.131984 12.2571
179 1 -1.1104 6.61594 2.7352 12.2864
178 1 -1.1104 6.54125 -2.83839 12.2037
333 2 2.2208 13.6928 15.4097 10.9027
207 1 -1.1104 12.2667 -0.017902 6.64587
209 1 -1.1104 9.48856 2.73052 6.68754
326 1 -1.1104 12.3846 16.7519 12.2293
168 1 -1.1104 6.62012 -2.97808 6.73508
205 1 -1.1104 12.4475 -2.84691 6.62711
210 1 -1.1104 9.36836 -0.138194 6.69605
208 1 -1.1104 9.52877 -2.95778 6.65856
211 2 2.2208 10.7945 1.35539 10.8485
212 1 -1.1104 12.2595 -2.91001 12.3848
213 1 -1.1104 12.2788 2.72829 12.2559
214 1 -1.1104 12.2296 -2.73542 9.49319
215 1 -1.1104 12.2863 2.7077 9.34795
216 1 -1.1104 12.1857 -0.042305 12.3783
217 2 2.2208 10.9182 -1.40547 8.02487
218 2 2.2208 10.792 4.08034 8.03089
219 1 -1.1104 12.2856 -0.0439058 9.64402
220 1 -1.1104 9.28653 -2.80374 12.3795
221 1 -1.1104 9.42611 2.93408 12.2756
222 2 2.2208 8.15153 1.33301 8.10978
223 1 -1.1104 9.41244 -2.81686 9.56335
224 1 -1.1104 9.34942 2.7783 9.44472
225 2 2.2208 7.93379 -1.53432 10.9354
226 2 2.2208 8.05663 4.2222 10.8863
227 1 -1.1104 9.34373 0.0598403 12.2763
228 1 -1.1104 9.55721 0.0611606 9.50329
203 2 2.2208 13.7774 3.92222 10.8076
358 2 2.2208 5.34737 20.9694 13.8198
9006 2 2.2208 -0.277045 -4.28007 5.29031
163 1 -1.1104 9.42892 16.6465 6.68315
65 1 -1.1104 6.43015 11.2925 6.77347
236 1 -1.1104 1.05488 5.52809 6.69771
297 1 -1.1104 6.62142 14.0704 12.1984
237 1 -1.1104 6.55399 5.63901 6.4429
234 1 -1.1104 0.888063 8.26739 6.62113
240 2 2.2208 5.03497 6.93506 10.774
241 2 2.2208 5.24854 12.5935 10.8338
242 1 -1.1104 0.886226 8.20415 12.1648
244 1 -1.1104 0.977287 8.29109 9.48226
246 1 -1.1104 1.01062 5.36529 12.331
247 1 -1.1104 1.06113 10.9048 12.1903
250 2 2.2208 5.20609 9.73919 8.12604
251 1 -1.1104 0.972099 5.49991 9.5161
252 1 -1.1104 1.05135 11.1637 9.3534
255 1 -1.1104 3.8032 8.41898 12.2207
256 2 2.2208 2.29788 6.83175 8.11431
257 2 2.2208 2.34513 12.5833 8.09564
258 1 -1.1104 3.75697 8.33265 9.27358
259 2 2.2208 2.48719 9.69147 10.7843
260 1 -1.1104 3.8133 5.60771 12.2873
261 1 -1.1104 3.75295 11.1117 12.1723
262 1 -1.1104 3.77689 5.46104 9.53734
263 1 -1.1104 3.86228 11.1854 9.39739
245 1 -1.1104 6.65082 8.33341 9.34159
243 1 -1.1104 6.52751 8.30782 12.1474
254 1 -1.1104 6.60569 11.0658 9.44918
249 1 -1.1104 6.49433 11.2196 12.2874
253 1 -1.1104 6.68019 5.48658 9.35991
320 2 2.2208 8.12085 18.1296 8.09564
317 2 2.2208 8.18225 15.4146 10.8508
316 2 2.2208 8.0182 20.9206 10.7522
319 1 -1.1104 9.38618 13.9508 9.4477
248 1 -1.1104 6.62895 5.51686 12.2568
90 1 -1.1104 12.1802 11.063 6.67804
269 1 -1.1104 9.38237 5.46321 6.54539
265 1 -1.1104 12.0741 8.26646 6.55824
264 1 -1.1104 9.46902 11.1005 9.43026
268 1 -1.1104 9.454 5.58737 9.38941
270 1 -1.1104 9.35955 11.0693 12.4164
271 1 -1.1104 9.29072 5.7363 12.1634
272 2 2.2208 8.03436 9.64458 10.8272
273 1 -1.1104 9.46703 8.34523 9.49104
274 2 2.2208 7.898 12.6809 8.1091
275 2 2.2208 8.00494 6.84181 7.93974
276 2 2.2208 10.8238 6.85908 10.7974
277 2 2.2208 10.8277 12.4024 10.8429
278 1 -1.1104 12.2857 8.36536 12.2521
279 1 -1.1104 12.2364 8.3102 9.50749
280 1 -1.1104 12.2864 5.51636 12.1253
281 1 -1.1104 12.1302 11.0407 12.3103
282 2 2.2208 10.8463 9.74292 8.09208
283 1 -1.1104 12.262 5.54221 9.22919
284 1 -1.1104 12.1923 11.0142 9.51143
285 1 -1.1104 9.40466 8.42553 12.4027
165 2 2.2208 13.6241 18.0727 2.44849
327 1 -1.1104 12.2277 19.4314 9.2913
49 2 2.2208 13.6911 1.25166 2.39181
329 1 -1.1104 12.2462 19.5915 12.1296
26 2 2.2208 -0.333112 1.24259 5.25661
325 2 2.2208 10.73 15.2256 8.02546
318 1 -1.1104 9.43712 19.5695 9.53698
306 1 -1.1104 6.72428 16.8721 12.1856
117 1 -1.1104 0.962208 16.7944 6.52999
290 1 -1.1104 6.69645 14.1315 9.45297
302 1 -1.1104 1.02386 19.5603 6.64285
108 1 -1.1104 0.922677 14.0038 6.65644
289 1 -1.1104 6.59603 16.7478 9.55316
305 1 -1.1104 3.94259 14.0678 9.52954
307 1 -1.1104 0.988085 16.7294 12.2912
300 2 2.2208 5.25296 18.2139 10.8504
304 1 -1.1104 3.79353 16.9761 9.64732
303 2 2.2208 2.47283 18.1854 7.97684
294 1 -1.1104 1.15912 14.0867 9.69065
292 1 -1.1104 1.01144 16.8997 9.51039
291 1 -1.1104 1.17168 19.7417 9.41213
287 1 -1.1104 3.91309 13.9723 12.2872
286 1 -1.1104 3.86745 19.5122 12.4543
293 2 2.2208 5.23241 21.0508 8.12786
309 2 2.2208 2.45558 20.9972 10.9629
299 1 -1.1104 1.0427 13.9741 12.4874
298 1 -1.1104 0.873607 19.6048 12.3697
310 2 2.2208 2.50631 15.4024 10.928
295 2 2.2208 5.25612 15.572 8.13977
308 1 -1.1104 3.93497 16.7767 12.3864
301 1 -1.1104 4.04159 19.6267 9.58822
111 1 -1.1104 6.56909 13.9854 6.50255
112 1 -1.1104 6.62707 19.4989 6.74424
288 1 -1.1104 6.75207 19.5613 9.48934
314 1 -1.1104 9.46313 16.6912 9.44435
331 2 2.2208 10.9284 18.1311 10.6847
328 1 -1.1104 12.2037 13.9262 9.40725
323 1 -1.1104 12.3032 16.7159 9.50052
296 1 -1.1104 6.5798 19.5251 12.177
330 1 -1.1104 12.2594 13.8903 12.1958
324 2 2.2208 10.8245 20.9031 8.01196
83 2 2.2208 -0.511575 12.5049 5.27447
332 2 2.2208 13.772 18.0565 7.99798
104 2 2.2208 13.5579 12.2893 2.4816
25 2 2.2208 -0.291514 -1.49325 2.57817
105 2 2.2208 13.6507 6.76301 2.40513
383 2 2.2208 -0.336233 6.82358 -0.388456
312 2 2.2208 -0.376056 18.1891 10.8894
27 2 2.2208 -0.402968 4.01887 2.44674
52 2 2.2208 13.694 9.70253 10.8369
373 2 2.2208 2.42082 15.4532 -0.269616
352 2 2.2208 5.19762 9.83531 13.6651
375 2 2.2208 2.34777 20.9899 -0.395913
341 2 2.2208 5.19506 4.12667 13.7504
360 2 2.2208 10.9095 20.9488 13.5783
368 2 2.2208 -0.252363 1.33066 -0.431278
380 2 2.2208 2.45153 9.74762 -0.286186
381 2 2.2208 5.19791 12.5983 -0.371196
356 2 2.2208 7.98091 12.6048 13.659
340 2 2.2208 13.6111 1.3089 13.7612
371 2 2.2208 -0.364713 18.1628 -0.488375
346 2 2.2208 10.8538 -1.48818 13.6431
382 2 2.2208 -0.409046 12.5271 -0.279945
386 2 2.2208 11.0244 12.4804 -0.384626
374 2 2.2208 5.24902 18.1502 -0.391331
336 2 2.2208 13.7101 6.96896 13.6796
348 2 2.2208 10.9956 18.1541 -0.352836
355 2 2.2208 10.7179 9.68875 13.7895
388 2 2.2208 5.35342 1.29081 16.4597
389 1 -1.1104 1.10877 -3.01756 17.8636
390 1 -1.1104 1.07911 2.75878 17.9531
393 1 -1.1104 1.09625 -2.87693 15.1015
395 1 -1.1104 0.949178 2.64485 15.1769
401 1 -1.1104 0.896273 -0.107174 17.8106
403 2 2.2208 5.4283 -1.50651 19.2616
404 2 2.2208 5.26477 4.00065 19.2786
405 1 -1.1104 1.07312 -0.0507656 15.0341
409 1 -1.1104 3.91053 -3.01437 17.9721
410 1 -1.1104 4.019 2.72586 17.7301
411 2 2.2208 2.44675 1.23368 19.2561
412 1 -1.1104 3.77992 -2.88039 15.1197
414 1 -1.1104 3.82063 2.64491 15.0162
416 2 2.2208 2.48251 -1.52115 16.5279
417 2 2.2208 2.40001 4.07589 16.5254
418 1 -1.1104 3.98988 -0.222297 17.9498
419 1 -1.1104 3.98106 -0.086067 15.1793
407 1 -1.1104 6.81771 -0.217073 15.1163
399 1 -1.1104 6.6991 2.72074 15.0739
392 1 -1.1104 6.7277 2.70426 17.8371
397 1 -1.1104 6.44922 -2.99957 15.012
391 1 -1.1104 6.68956 -2.96504 17.8283
402 1 -1.1104 6.75122 -0.0369102 17.9396
654 2 2.2208 13.7383 1.25755 24.9717
9103 2 2.2208 5.33715 -4.32339 22.1784
406 1 -1.1104 1.04739 -0.309612 20.6302
424 2 2.2208 -0.382984 1.29999 16.3985
408 1 -1.1104 6.57752 -0.0887934 20.7119
9027 2 2.2208 8.0502 -4.25808 13.7493
9138 2 2.2208 8.0508 -4.27594 19.4065
9169 2 2.2208 5.31956 -4.28495 16.5677
431 2 2.2208 10.8522 1.22744 16.5444
432 1 -1.1104 12.4431 -2.88465 17.9698
433 1 -1.1104 12.4107 2.73898 17.8505
434 1 -1.1104 12.238 -2.90128 15.1265
436 1 -1.1104 12.1215 2.6387 15.0868
438 1 -1.1104 12.2711 0.0602925 18.0233
439 2 2.2208 10.9482 -1.57483 19.268
440 2 2.2208 10.9243 4.2024 19.1214
441 1 -1.1104 12.2856 -0.119361 15.1188
443 1 -1.1104 9.57812 -2.73835 17.9356
444 1 -1.1104 9.64295 2.77769 17.8789
445 2 2.2208 8.09457 1.46376 19.3206
446 1 -1.1104 9.50855 -3.02232 15.1381
448 1 -1.1104 9.35847 2.7218 15.1647
450 2 2.2208 8.14322 -1.55813 16.6304
451 2 2.2208 7.96006 4.10783 16.4043
452 1 -1.1104 9.4379 -0.0797592 17.7926
453 1 -1.1104 9.52212 -0.205689 15.084
437 1 -1.1104 12.2364 2.63587 20.6785
442 1 -1.1104 12.3206 -0.162633 20.6173
9099 2 2.2208 8.10674 -4.4031 25.0413
624 2 2.2208 -0.18928 -1.50408 24.9629
9031 2 2.2208 2.43305 -4.22947 13.8515
9102 2 2.2208 2.48857 -4.33825 24.9571
9139 2 2.2208 11.0036 -4.28497 16.5594
464 2 2.2208 5.18662 6.92054 16.445
465 2 2.2208 5.20408 12.5098 16.6388
466 1 -1.1104 0.995888 8.3675 17.8835
468 1 -1.1104 1.13112 8.37931 15.0649
472 1 -1.1104 0.971675 5.47695 17.9479
473 1 -1.1104 1.04581 11.1735 18.0212
476 2 2.2208 5.22986 9.72904 19.3159
477 1 -1.1104 0.868777 5.57325 15.0957
479 1 -1.1104 0.952822 11.0895 15.1563
485 1 -1.1104 3.88283 8.20704 17.9136
486 2 2.2208 2.33505 6.77281 19.2506
487 2 2.2208 2.41572 12.4777 19.4509
488 1 -1.1104 3.79819 8.21633 15.0776
490 2 2.2208 2.47067 9.68045 16.4606
491 1 -1.1104 3.77032 5.43659 17.7385
492 1 -1.1104 3.76378 11.2558 18
493 1 -1.1104 3.67266 5.4797 14.9725
495 1 -1.1104 3.82597 11.0274 15.1645
467 1 -1.1104 6.67498 8.30588 17.9467
481 1 -1.1104 6.59546 5.58993 15.0881
475 1 -1.1104 6.57536 11.0759 17.9963
494 1 -1.1104 3.80544 5.4087 20.5802
470 1 -1.1104 6.53696 8.4915 15.1149
474 1 -1.1104 6.6355 5.53539 17.8421
353 2 2.2208 2.4303 12.5101 13.7899
478 1 -1.1104 1.00016 5.35923 20.6975
496 1 -1.1104 3.84879 10.9503 20.7751
480 1 -1.1104 1.03475 11.1133 20.8447
483 1 -1.1104 6.698 11.2492 15.1402
500 2 2.2208 10.9768 7.08087 16.5077
501 2 2.2208 10.9393 12.5597 16.4662
502 1 -1.1104 12.3701 8.43184 17.8477
503 1 -1.1104 12.4298 8.46753 15.1339
505 1 -1.1104 12.3104 5.65276 17.7459
506 1 -1.1104 12.1698 11.1762 17.7239
507 2 2.2208 10.9068 9.8558 19.2595
508 1 -1.1104 12.3127 5.60836 15.027
510 1 -1.1104 12.2175 11.2196 14.9424
512 1 -1.1104 9.48211 8.45583 17.975
513 2 2.2208 8.07016 6.96448 19.1205
514 2 2.2208 8.17168 12.6076 19.259
515 1 -1.1104 9.40947 8.35409 15.169
517 2 2.2208 8.04424 9.81621 16.5383
518 1 -1.1104 9.50626 5.6315 17.829
519 1 -1.1104 9.45003 11.2396 17.7991
520 1 -1.1104 9.42495 5.60852 15.0541
522 1 -1.1104 9.45746 11.1551 15.1232
509 1 -1.1104 12.2903 5.54464 20.625
523 1 -1.1104 9.48229 11.2325 20.6648
516 1 -1.1104 9.4651 8.41186 20.699
334 2 2.2208 -0.575764 -1.50918 13.6186
427 2 2.2208 -0.474831 4.06959 19.2848
379 2 2.2208 5.21275 6.89601 27.6631
504 1 -1.1104 12.06 8.28167 20.5446
527 2 2.2208 5.28207 18.16 16.5541
528 1 -1.1104 0.953792 14.1029 17.8492
529 1 -1.1104 0.97884 19.6906 18.0342
532 1 -1.1104 1.04326 13.8457 15.1375
534 1 -1.1104 0.937972 19.4551 15.1723
540 1 -1.1104 1.17795 16.9765 17.9342
542 2 2.2208 5.35724 15.2779 19.2959
543 2 2.2208 5.17628 21.0141 19.4002
544 1 -1.1104 1.02773 16.7247 15.1837
548 1 -1.1104 3.81982 14.0527 17.9025
549 1 -1.1104 3.73626 19.5207 17.8338
550 2 2.2208 2.56314 18.1664 19.3576
551 1 -1.1104 3.76014 13.8595 15.1665
553 1 -1.1104 3.70454 19.6741 15.1828
555 2 2.2208 2.56149 15.3342 16.4787
556 2 2.2208 2.35306 20.9897 16.5319
557 1 -1.1104 3.92375 16.8202 18.0122
558 1 -1.1104 3.83697 16.769 15.1064
554 1 -1.1104 3.72445 19.6438 20.7779
541 1 -1.1104 6.78273 16.6167 17.9121
530 1 -1.1104 6.73031 13.8568 17.9082
539 1 -1.1104 6.65447 19.6873 20.779
536 1 -1.1104 6.4714 13.8784 15.1582
625 2 2.2208 -0.356034 1.2819 22.0575
537 1 -1.1104 6.67934 13.8589 20.7676
545 1 -1.1104 1.08996 16.8211 20.7719
559 1 -1.1104 3.96703 16.745 20.7744
535 1 -1.1104 0.911892 19.5915 20.8194
538 1 -1.1104 6.82863 19.5167 15.0919
546 1 -1.1104 6.67009 16.5843 15.0008
531 1 -1.1104 6.5717 19.5948 17.8893
563 2 2.2208 10.9101 18.2673 16.4463
564 1 -1.1104 12.3797 14.0069 18.0165
565 1 -1.1104 12.3575 19.494 17.6959
566 1 -1.1104 12.4002 13.917 15.1456
568 1 -1.1104 12.3534 19.5936 15.0003
570 1 -1.1104 12.3115 16.7726 17.9031
571 2 2.2208 10.9498 15.4531 19.3385
572 2 2.2208 10.8637 20.9942 19.3328
573 1 -1.1104 12.3761 16.718 15.0387
575 1 -1.1104 9.34441 13.8566 17.9225
576 1 -1.1104 9.42533 19.5932 17.7936
577 2 2.2208 8.16849 18.1066 19.3204
578 1 -1.1104 9.60979 13.9431 15.2229
580 1 -1.1104 9.53388 19.5417 15.0945
582 2 2.2208 8.0908 15.308 16.4362
583 2 2.2208 8.10284 21.0069 16.5639
584 1 -1.1104 9.51997 16.678 17.9712
585 1 -1.1104 9.46368 16.8389 15.0347
581 1 -1.1104 9.35049 19.5604 20.6221
579 1 -1.1104 9.45618 14.0398 20.8696
586 1 -1.1104 9.68912 16.8836 20.7287
421 2 2.2208 -0.4251 6.80652 22.1397
396 1 -1.1104 1.08248 2.53369 20.6021
425 2 2.2208 -0.269625 -1.72415 19.1969
415 1 -1.1104 3.82074 2.66491 20.6282
626 2 2.2208 -0.375532 4.17911 24.9567
400 1 -1.1104 6.59379 2.78644 20.5625
394 1 -1.1104 1.10902 -3.09904 20.5097
420 1 -1.1104 3.80662 -0.0537195 20.6772
413 1 -1.1104 4.0129 -2.97698 20.7336
591 2 2.2208 5.28568 1.40691 22.0796
592 1 -1.1104 0.988774 -2.78263 23.4639
593 1 -1.1104 0.924454 2.81314 23.4964
596 1 -1.1104 1.08134 -2.99657 26.3152
597 1 -1.1104 1.12721 2.83448 26.3023
600 1 -1.1104 1.09545 0.0434838 23.551
602 2 2.2208 5.21107 -1.45128 24.9987
603 2 2.2208 5.15113 4.03608 24.7834
604 1 -1.1104 1.07593 0.0331857 26.4316
606 1 -1.1104 3.71278 -2.91402 23.5492
607 1 -1.1104 3.74483 2.70258 23.4387
608 2 2.2208 2.40384 1.32482 24.9209
609 1 -1.1104 3.77294 -2.94795 26.4082
610 1 -1.1104 3.85709 2.61967 26.2289
611 2 2.2208 2.47142 -1.6089 22.0251
612 2 2.2208 2.40515 4.10451 22.0224
613 1 -1.1104 3.98196 -0.00247852 23.4853
614 1 -1.1104 3.76411 -0.118047 26.1689
594 1 -1.1104 6.67199 -2.94735 23.497
398 1 -1.1104 6.71075 -2.83456 20.6345
601 1 -1.1104 6.58951 -0.147521 23.4149
599 1 -1.1104 6.63704 2.62297 26.2783
598 1 -1.1104 6.75766 -2.93542 26.2129
449 1 -1.1104 9.58022 2.76629 20.724
646 2 2.2208 -0.282082 15.3995 24.9543
457 2 2.2208 -0.345457 15.3429 19.3889
456 2 2.2208 -0.286786 18.0904 16.5883
435 1 -1.1104 12.1277 -2.95398 20.6826
454 1 -1.1104 9.43773 -0.168598 20.643
447 1 -1.1104 9.45689 -2.89559 20.7701
595 1 -1.1104 6.52421 2.54994 23.5325
605 1 -1.1104 6.4914 -0.262832 26.4635
627 2 2.2208 10.7946 1.15893 22.1867
628 1 -1.1104 12.236 -3.02757 23.4265
629 1 -1.1104 12.3259 2.57034 23.4713
630 1 -1.1104 12.4523 -2.99731 26.1423
631 1 -1.1104 12.3395 2.77743 26.245
632 1 -1.1104 12.281 -0.208697 23.482
633 2 2.2208 10.8378 -1.45444 24.9015
634 2 2.2208 10.8326 4.09791 24.8104
635 1 -1.1104 12.2542 -0.0441976 26.2742
636 1 -1.1104 9.49217 -2.92563 23.5755
637 1 -1.1104 9.36292 2.63514 23.4835
638 2 2.2208 7.97588 1.34571 24.9073
639 1 -1.1104 9.55066 -2.958 26.3759
640 1 -1.1104 9.50671 2.63857 26.2658
641 2 2.2208 8.03117 -1.53713 22.0621
642 2 2.2208 8.05463 4.11615 22.0426
643 1 -1.1104 9.42874 -0.124117 23.5055
644 1 -1.1104 9.32647 -0.0898162 26.2963
489 1 -1.1104 3.74523 8.17558 20.6355
616 2 2.2208 8.04727 21.0623 22.2268
469 1 -1.1104 0.873154 8.18417 20.7434
656 2 2.2208 5.25051 6.89637 21.9809
657 2 2.2208 5.1218 12.4323 22.2049
658 1 -1.1104 0.936984 8.35706 23.547
660 1 -1.1104 0.948175 8.28147 26.3313
662 1 -1.1104 1.08675 5.58456 23.4641
663 1 -1.1104 1.01321 11.1679 23.6918
666 2 2.2208 5.3033 9.81304 24.9052
667 1 -1.1104 1.15648 5.50176 26.1828
668 1 -1.1104 0.941348 11.0594 26.5271
671 1 -1.1104 3.7802 8.31858 23.484
672 2 2.2208 2.41584 7.0271 24.8799
673 2 2.2208 2.39835 12.5951 24.9937
674 1 -1.1104 3.89691 8.50429 26.4194
675 2 2.2208 2.37729 9.64447 22.1442
676 1 -1.1104 3.82142 5.53382 23.3694
677 1 -1.1104 3.87427 11.1855 23.7789
678 1 -1.1104 3.88674 5.50319 26.1094
679 1 -1.1104 3.80442 11.2734 26.4415
669 1 -1.1104 6.60676 5.33179 26.2537
661 1 -1.1104 6.7607 8.25399 26.2882
665 1 -1.1104 6.63206 11.1068 23.4737
428 2 2.2208 13.6274 1.40433 19.225
484 1 -1.1104 6.70812 10.9787 20.7695
482 1 -1.1104 6.64851 5.60071 20.5353
471 1 -1.1104 6.5474 8.28981 20.7741
511 1 -1.1104 12.4302 11.1763 20.6989
361 2 2.2208 10.9937 15.3958 13.7393
618 2 2.2208 13.6822 18.166 19.313
363 2 2.2208 13.7205 18.2069 13.6705
567 1 -1.1104 12.1893 14.0633 20.7958
670 1 -1.1104 6.57077 11.1198 26.3128
664 1 -1.1104 6.74772 5.36779 23.5184
659 1 -1.1104 6.62031 8.36421 23.6032
521 1 -1.1104 9.29974 5.56486 20.6386
687 1 -1.1104 9.5079 11.2264 26.38
688 1 -1.1104 9.33193 5.58961 26.2377
689 1 -1.1104 9.49121 11.2343 23.5044
690 1 -1.1104 9.37603 5.61832 23.3531
691 2 2.2208 7.98383 9.63366 22.1546
692 1 -1.1104 9.52653 8.34047 26.2182
693 2 2.2208 8.03952 12.5443 25.0255
694 2 2.2208 7.94577 6.90268 24.8221
695 2 2.2208 10.8026 7.02771 22.0434
696 2 2.2208 10.9677 12.617 22.0743
697 1 -1.1104 12.2332 8.38319 23.3515
698 1 -1.1104 12.2397 8.18246 26.2272
699 1 -1.1104 12.2965 5.54992 23.549
700 1 -1.1104 12.2984 11.0743 23.48
701 2 2.2208 10.8353 9.77553 24.934
702 1 -1.1104 12.0881 5.49889 26.2709
703 1 -1.1104 12.3471 11.2161 26.1889
704 1 -1.1104 9.44825 8.49853 23.5292
574 1 -1.1104 12.4438 16.8294 20.6646
533 1 -1.1104 0.951505 13.8506 20.7267
497 1 -1.1104 12.3276 19.6195 23.5193
617 1 -1.1104 9.72666 16.7781 23.5503
714 1 -1.1104 6.77968 16.7999 26.2225
712 1 -1.1104 6.647 13.8598 26.2701
547 1 -1.1104 6.91681 16.9016 20.8177
680 1 -1.1104 6.77148 16.6999 23.5544
552 1 -1.1104 3.78034 13.838 20.9509
717 1 -1.1104 0.967412 13.9865 26.3895
719 2 2.2208 5.20505 21.1244 24.9376
716 1 -1.1104 1.21827 16.8923 26.2061
715 1 -1.1104 1.01783 19.4792 26.2626
720 2 2.2208 5.29262 15.3783 24.9784
647 2 2.2208 2.3879 15.3647 22.0995
649 2 2.2208 2.40045 20.9609 22.1468
652 1 -1.1104 3.93922 16.7336 23.5328
655 1 -1.1104 1.18341 16.7404 23.5071
681 1 -1.1104 3.77877 14.1247 26.4716
682 1 -1.1104 3.92952 16.7754 26.3289
683 2 2.2208 2.53393 18.1827 24.9634
686 1 -1.1104 3.86142 19.6507 26.2718
705 2 2.2208 5.2219 18.1278 22.2046
706 1 -1.1104 1.07645 13.8957 23.6207
707 1 -1.1104 1.04466 19.5885 23.6841
711 1 -1.1104 3.91362 19.4399 23.547
713 1 -1.1104 3.95201 13.8387 23.7346
588 1 -1.1104 6.53364 19.6273 26.3644
709 1 -1.1104 6.71943 13.9723 23.5505
458 2 2.2208 -0.499678 21.0372 19.4277
462 2 2.2208 10.9565 18.1318 22.0887
560 1 -1.1104 12.3861 16.8466 26.243
463 1 -1.1104 12.4143 13.8399 23.4492
499 1 -1.1104 12.3226 19.5414 26.3335
561 1 -1.1104 9.48739 13.8338 23.6564
526 2 2.2208 10.9707 20.828 24.8341
524 1 -1.1104 12.3506 16.7469 23.4882
569 1 -1.1104 12.1727 19.6157 20.6432
589 1 -1.1104 9.3875 14.0303 26.3578
562 1 -1.1104 9.5827 19.5492 23.4122
587 2 2.2208 8.08612 18.2543 24.896
590 1 -1.1104 9.53509 19.656 26.3579
498 1 -1.1104 12.3448 14.0963 26.3283
615 2 2.2208 8.10063 15.3456 22.2688
525 2 2.2208 10.913 15.3527 24.9439
718 1 -1.1104 6.74722 19.5915 23.6322
620 1 -1.1104 9.52825 16.9027 26.2085
648 2 2.2208 -0.365385 12.6353 16.5076
623 2 2.2208 -0.407291 18.1339 22.0707
645 2 2.2208 -0.334786 20.9198 25.0873
384 2 2.2208 10.7519 6.92903 27.62
429 2 2.2208 13.682 4.08996 16.399
423 2 2.2208 13.6697 4.04741 22.1119
461 2 2.2208 13.7446 20.9997 22.1008
362 2 2.2208 8.14121 18.0801 13.623
347 2 2.2208 8.08553 15.3907 27.6905
369 2 2.2208 10.7943 1.33294 27.6451
387 2 2.2208 13.7677 9.59546 27.7714
351 2 2.2208 2.30451 6.92134 13.7147
354 2 2.2208 8.02952 6.95823 13.6991
385 2 2.2208 7.9683 9.77877 27.7723
377 2 2.2208 13.6391 -1.57748 27.711
357 2 2.2208 2.40155 18.2334 13.7741
359 2 2.2208 5.20533 15.3504 13.6846
335 2 2.2208 -0.389983 20.9629 13.764
342 2 2.2208 -0.342102 15.4463 13.7377
378 2 2.2208 13.5358 4.01558 27.7013
339 2 2.2208 2.43786 1.23524 13.7818
350 2 2.2208 10.9087 4.09913 13.7512
337 2 2.2208 -0.407251 4.09585 13.7175
338 2 2.2208 5.22286 -1.56761 13.7408
721 2 2.2208 5.26212 23.6338 5.22758
722 2 2.2208 5.40753 29.2686 5.14793
723 1 -1.1104 1.07053 25.4941 0.95073
724 1 -1.1104 1.05051 25.0617 3.75863
725 1 -1.1104 1.0173 22.4503 1.20624
726 1 -1.1104 1.13172 28.1251 1.00924
727 2 2.2208 5.28642 26.5221 2.3179
728 1 -1.1104 0.965939 22.3037 3.89825
729 1 -1.1104 0.946076 27.9948 3.75309
730 1 -1.1104 3.76097 25.167 0.953285
731 2 2.2208 2.44238 23.7473 2.41854
732 2 2.2208 2.41783 29.3473 2.47687
733 1 -1.1104 3.89661 25.2479 3.77661
734 2 2.2208 2.5693 26.4297 5.24723
735 1 -1.1104 3.66587 22.4674 0.896767
736 1 -1.1104 3.9058 28.0122 1.07613
737 1 -1.1104 3.83716 22.4154 3.83962
738 1 -1.1104 3.84552 27.9823 3.92308
745 1 -1.1104 6.72363 27.9425 0.837495
742 1 -1.1104 6.71918 25.0577 0.943617
747 1 -1.1104 6.65552 27.9426 3.72977
744 1 -1.1104 6.64182 22.2337 1.08002
743 1 -1.1104 6.78451 25.1488 3.65345
865 1 -1.1104 1.25633 27.613 6.76762
864 1 -1.1104 0.911736 22.3931 6.68574
867 1 -1.1104 6.79277 27.782 6.59308
746 1 -1.1104 6.68772 22.3338 3.83026
1006 2 2.2208 -0.229888 46.4327 10.915
870 1 -1.1104 3.99392 27.7426 6.59525
863 1 -1.1104 6.76815 24.9494 6.5388
1016 1 -1.1104 9.43332 41.9715 12.3525
1656 1 -1.1104 9.37698 47.6245 12.2679
748 2 2.2208 10.7717 23.6146 5.17954
749 2 2.2208 10.837 29.3158 5.15058
750 1 -1.1104 12.3731 25.1805 0.913103
751 1 -1.1104 12.1582 24.9531 3.71886
752 1 -1.1104 12.25 22.3292 0.82578
753 1 -1.1104 12.5122 28.159 0.944628
754 2 2.2208 10.879 26.5141 2.36383
755 1 -1.1104 12.2237 22.178 3.65027
756 1 -1.1104 12.233 27.9128 3.72698
757 1 -1.1104 9.58126 25.1071 0.984599
758 2 2.2208 8.09126 23.6941 2.49419
759 2 2.2208 8.15932 29.3321 2.45697
760 1 -1.1104 9.44161 25.0645 3.85218
761 2 2.2208 8.18531 26.4651 5.11633
762 1 -1.1104 9.58843 22.4251 0.92462
763 1 -1.1104 9.578 27.9705 1.07125
764 1 -1.1104 9.51842 22.1895 3.88613
765 1 -1.1104 9.52062 27.9891 3.8068
1646 1 -1.1104 12.217 47.3715 12.267
1035 2 2.2208 13.5411 23.7871 8.08869
897 1 -1.1104 12.2841 28.0417 6.59256
896 1 -1.1104 12.2197 22.4608 6.6257
895 1 -1.1104 12.3666 25.1736 6.53124
792 2 2.2208 -0.281672 37.8671 2.38545
1022 1 -1.1104 12.2205 39.1973 6.4912
1042 2 2.2208 -0.303719 32.0964 7.89783
768 2 2.2208 13.6742 26.5116 5.06309
769 2 2.2208 5.27058 34.8971 5.19277
770 1 -1.1104 1.04582 30.8263 0.967556
771 1 -1.1104 1.00034 36.5144 1.1158
773 1 -1.1104 0.967796 30.6856 3.73358
774 1 -1.1104 1.11824 36.5723 3.85023
776 1 -1.1104 1.04495 33.6873 0.992166
777 2 2.2208 5.27334 32.1748 2.41244
778 2 2.2208 5.12569 37.7223 2.30437
779 1 -1.1104 1.02539 33.4924 3.90173
781 1 -1.1104 3.79063 30.9017 1.12427
782 1 -1.1104 3.82757 36.383 0.924183
783 2 2.2208 2.39713 34.9498 2.43641
784 1 -1.1104 3.92801 30.6906 3.75845
785 1 -1.1104 3.81531 36.3618 3.78679
786 2 2.2208 2.48994 32.03 5.17931
787 2 2.2208 2.57932 37.8274 5.19906
788 1 -1.1104 3.8626 33.6213 0.952247
789 1 -1.1104 3.89761 33.5534 3.9109
795 1 -1.1104 6.64045 33.6147 0.892583
794 1 -1.1104 6.82825 30.8476 3.77495
793 1 -1.1104 6.7061 30.8273 1.03967
780 1 -1.1104 6.59736 33.6565 3.7874
775 1 -1.1104 6.58756 36.4269 3.81171
772 1 -1.1104 6.73947 36.354 1.0825
923 1 -1.1104 1.06736 33.5357 6.70345
924 1 -1.1104 6.5852 33.5119 6.47782
922 1 -1.1104 6.70478 36.2018 6.65462
921 1 -1.1104 6.48103 30.6529 6.5428
840 2 2.2208 -0.413297 46.2502 5.3809
983 1 -1.1104 7.09072 39.3464 12.2644