ITEM: TIMESTEP
100000
ITEM: NUMBER OF ATOMS
17640
ITEM: BOX BOUNDS pp pp pp
-4.4142739870066233e-01 2.7781427398700878e+01
-5.2780096785131212e+00 3.3335800967851623e+02
-4.5027157321610478e-01 2.7790271573216845e+01
ITEM: ATOMS id type q x y z
1 2 2.2208 5.20797 0.348052 5.35335
2 1 -1.1104 1.18861 -3.9264 0.952171
6 1 -1.1104 1.25516 -3.80509 3.75478
10 1 -1.1104 1.19149 -1.06304 0.73153
12 2 2.2208 5.47089 -2.47832 2.34994
14 1 -1.1104 0.967057 -0.797586 3.37207
16 1 -1.1104 4.23341 -3.85265 0.716721
18 2 2.2208 2.6794 0.548033 2.28713
19 1 -1.1104 3.96513 -3.75319 3.43969
21 2 2.2208 2.61968 -2.41297 5.09388
23 1 -1.1104 3.98031 -0.966284 1.0122
24 1 -1.1104 3.86277 -0.883818 3.8463
26 2 2.2208 13.5687 14.4015 10.8006
166 1 -1.1104 1.2296 -3.96354 6.48989
172 1 -1.1104 3.98387 -3.82971 6.4876
170 1 -1.1104 0.92163 -1.29995 6.28545
17637 2 2.2208 -0.275477 -5.26073 -0.426997
174 1 -1.1104 3.78392 -1.08515 6.53328
8885 2 2.2208 -0.443042 -2.23567 7.87292
8452 2 2.2208 2.43669 -5.3119 7.96396
4 1 -1.1104 6.84497 -3.98318 1.03327
15 1 -1.1104 6.77051 -1.10663 3.83441
171 1 -1.1104 6.61726 -1.12632 6.52826
11 1 -1.1104 6.79781 -1.12933 0.942741
168 1 -1.1104 6.5414 -3.95607 6.64076
8 1 -1.1104 6.6801 -4.19242 3.66863
31 2 2.2208 11.0227 0.516464 5.13313
32 1 -1.1104 12.5437 -3.96172 0.987574
34 1 -1.1104 12.4078 -3.94351 3.77058
36 1 -1.1104 12.5107 -1.03778 1.0374
37 2 2.2208 10.8634 -2.36926 2.37913
39 1 -1.1104 12.3203 -1.11095 3.69756
40 1 -1.1104 9.56651 -4.01519 0.972276
42 2 2.2208 8.12314 0.49045 2.25656
43 1 -1.1104 9.49962 -3.64109 3.82031
45 2 2.2208 8.26297 -2.52563 5.24975
47 1 -1.1104 9.51133 -1.07203 0.970572
48 1 -1.1104 9.44249 -0.857556 3.67657
9086 2 2.2208 -0.231756 8.75398 8.00924
357 2 2.2208 5.32823 -2.2942 13.4504
3 1 -1.1104 1.13373 1.6678 1.12868
7 1 -1.1104 1.11681 1.93571 4.02206
13 2 2.2208 5.40656 3.33803 2.4888
17 1 -1.1104 4.16706 1.90324 0.709597
20 1 -1.1104 3.97533 1.98302 3.69906
22 2 2.2208 2.37469 3.23499 5.32238
54 2 2.2208 5.2521 6.16429 5.17849
56 1 -1.1104 0.977411 7.44111 0.826797
60 1 -1.1104 0.825721 4.70591 1.00562
67 1 -1.1104 1.12714 4.51893 3.63106
72 2 2.2208 2.21672 6.07807 2.28196
76 1 -1.1104 3.74878 4.86945 1.03329
79 1 -1.1104 3.84829 4.60404 3.88697
58 1 -1.1104 0.979241 7.42659 3.8897
71 1 -1.1104 3.92294 7.72558 0.801596
59 1 -1.1104 6.65586 7.5262 3.67964
74 1 -1.1104 3.84662 7.33204 3.55407
167 1 -1.1104 0.900438 1.60865 6.73554
173 1 -1.1104 3.5501 1.93049 6.84748
238 1 -1.1104 3.71608 7.40275 6.60459
236 1 -1.1104 0.972118 4.47435 6.52218
234 1 -1.1104 1.00426 7.29745 6.6424
29 2 2.2208 13.5473 8.76454 10.8434
5 1 -1.1104 6.79096 1.79826 1.13674
57 1 -1.1104 6.70629 7.27124 0.896723
235 1 -1.1104 6.46523 7.82565 6.49522
63 1 -1.1104 6.61015 4.74362 0.948989
69 1 -1.1104 6.54987 4.78662 3.8324
9 1 -1.1104 6.63391 1.77311 3.7451
33 1 -1.1104 12.5626 1.78483 0.912697
35 1 -1.1104 12.7901 1.90255 3.52106
38 2 2.2208 10.9446 3.17039 2.27922
41 1 -1.1104 9.63596 1.76585 0.917564
44 1 -1.1104 9.75914 2.01253 3.86516
46 2 2.2208 8.09621 3.12574 5.1414
84 2 2.2208 10.8186 6.08469 5.27318
86 1 -1.1104 12.2499 7.48862 0.900954
88 1 -1.1104 12.27 4.66232 0.805454
92 1 -1.1104 12.2097 4.70355 3.63737
95 2 2.2208 8.05147 6.02321 2.35254
97 1 -1.1104 9.36379 7.66621 3.70346
99 1 -1.1104 9.42673 4.74817 1.10172
102 1 -1.1104 9.29119 4.7646 3.89352
87 1 -1.1104 12.2302 7.43304 3.49673
94 1 -1.1104 9.45268 7.42583 0.945556
266 1 -1.1104 12.6027 4.66488 6.31023
8449 2 2.2208 5.32339 -5.21846 5.19687
206 1 -1.1104 12.4444 1.64625 6.4937
55 2 2.2208 5.23765 11.6999 4.95586
61 1 -1.1104 1.00145 10.1081 0.60061
66 2 2.2208 5.25145 8.79362 2.33146
68 1 -1.1104 1.05991 10.1801 3.64632
73 2 2.2208 2.33437 11.7306 2.13744
75 2 2.2208 2.29734 8.79159 5.19627
77 1 -1.1104 3.66871 10.3984 0.884307
80 1 -1.1104 3.77028 10.1167 3.64871
107 1 -1.1104 0.933942 12.9543 0.927612
113 1 -1.1104 0.88713 12.9166 3.5882
123 1 -1.1104 3.91919 13.0829 0.618645
128 1 -1.1104 3.62073 13.2178 3.57801
62 1 -1.1104 0.854399 10.1046 6.42963
110 1 -1.1104 6.71919 13.1883 0.902672
70 1 -1.1104 6.60086 10.4272 3.67435
545 2 2.2208 2.72062 -2.52806 -0.264342
8456 2 2.2208 10.9201 -5.28621 10.8491
454 2 2.2208 10.7951 8.76579 13.4581
124 1 -1.1104 3.84471 13.0521 6.44261
9087 2 2.2208 -0.231757 6.16453 10.6982
64 1 -1.1104 6.37841 10.045 0.796798
115 1 -1.1104 6.65006 13.278 3.51969
85 2 2.2208 10.6847 11.7934 4.97608
89 1 -1.1104 12.3083 10.1216 0.775806
91 2 2.2208 10.8512 8.86169 2.30883
93 1 -1.1104 12.0683 10.2106 3.6963
96 2 2.2208 8.01466 11.7234 2.23767
98 2 2.2208 8.0406 8.96824 5.07247
100 1 -1.1104 9.43936 10.3613 0.805155
103 1 -1.1104 9.39355 10.3594 3.7885
142 1 -1.1104 12.3589 13.2451 0.920322
146 1 -1.1104 12.1858 12.8646 3.60752
153 1 -1.1104 9.57691 12.9906 0.968251
158 1 -1.1104 9.28157 13.1122 3.60839
154 1 -1.1104 9.5178 13.6415 6.43324
101 1 -1.1104 9.38228 10.5284 6.51848
90 1 -1.1104 12.2944 10.1547 6.54919
143 1 -1.1104 12.1659 13.0184 6.55387
105 2 2.2208 10.9712 14.7237 7.91981
8448 2 2.2208 2.54683 -5.20915 2.35895
119 2 2.2208 5.36252 14.5633 2.12002
130 2 2.2208 2.5035 14.4889 5.07483
106 2 2.2208 5.09571 17.455 5.07713
109 1 -1.1104 0.944132 18.5211 0.736384
114 1 -1.1104 0.830463 18.6295 3.57314
116 1 -1.1104 1.12381 15.5851 0.787101
120 2 2.2208 5.30565 20.1834 2.49712
121 1 -1.1104 1.08055 15.9248 3.54956
125 1 -1.1104 3.8757 18.9806 0.879132
127 2 2.2208 2.47397 17.2534 2.12198
129 1 -1.1104 3.63091 18.6605 4.02114
131 2 2.2208 2.277 20.2085 5.12077
132 1 -1.1104 3.78019 15.8039 0.804896
134 1 -1.1104 3.85825 15.9052 3.81878
140 1 -1.1104 6.75985 15.9438 0.807058
138 1 -1.1104 6.57187 18.5952 0.833063
139 1 -1.1104 6.65964 18.7309 3.85243
9368 2 2.2208 -0.179723 20.2387 13.532
126 1 -1.1104 4.12676 18.5597 6.83862
117 1 -1.1104 1.1662 16.049 6.60797
9052 2 2.2208 13.5754 6.02983 2.26416
232 1 -1.1104 9.60867 18.7179 9.49353
122 1 -1.1104 6.63033 15.9217 3.55804
160 2 2.2208 7.90474 14.8087 5.07951
150 2 2.2208 10.9896 14.6067 2.42774
141 2 2.2208 10.8803 17.3036 5.08009
144 1 -1.1104 12.4917 18.6163 0.954571
147 1 -1.1104 12.2893 18.8187 3.9608
148 1 -1.1104 12.2966 15.9733 0.936626
151 2 2.2208 10.9128 20.0795 2.5083
152 1 -1.1104 12.188 15.8514 3.71182
155 1 -1.1104 9.4857 18.8166 1.07909
157 2 2.2208 8.17908 17.1979 2.31754
159 1 -1.1104 9.47501 18.6081 3.75072
161 2 2.2208 8.15153 20.1788 5.24531
162 1 -1.1104 9.59215 16.0689 0.908218
164 1 -1.1104 9.45964 16.1199 3.80045
156 1 -1.1104 9.70262 18.785 6.47854
50 1 -1.1104 12.4159 18.7496 11.9724
118 1 -1.1104 6.4894 16.0814 6.43769
112 1 -1.1104 6.7781 18.7776 6.45467
145 1 -1.1104 12.4055 18.6471 6.46024
149 1 -1.1104 12.3477 15.8892 6.43975
296 1 -1.1104 6.82018 18.7784 12.3422
202 2 2.2208 13.624 14.457 5.06842
28 2 2.2208 -0.192791 11.5138 10.8235
8884 2 2.2208 -0.393212 0.514825 10.8236
175 2 2.2208 5.43882 0.321779 10.6165
176 1 -1.1104 1.14946 -3.90097 12.1874
180 1 -1.1104 1.22358 -3.91336 9.39694
184 1 -1.1104 1.03071 -1.06155 11.8808
186 2 2.2208 5.27387 -2.46341 8.01411
188 1 -1.1104 0.83628 -0.657174 8.94263
190 1 -1.1104 4.06024 -3.7273 11.9717
192 2 2.2208 2.45599 0.511862 8.01092
193 1 -1.1104 3.8314 -3.6891 9.25489
195 2 2.2208 2.3566 -2.31494 10.6398
197 1 -1.1104 3.94773 -0.981711 11.9031
198 1 -1.1104 3.71487 -1.00382 9.37621
306 1 -1.1104 6.766 15.8117 12.1154
201 1 -1.1104 9.78385 18.3598 12.3874
311 2 2.2208 8.10468 17.5175 7.8509
205 1 -1.1104 12.4678 -4.26044 6.57834
210 1 -1.1104 9.302 -0.920579 6.37712
208 1 -1.1104 9.66579 -3.99024 6.4768
207 1 -1.1104 12.3806 -1.14585 6.55708
313 2 2.2208 -0.438187 14.4031 7.93281
185 1 -1.1104 6.98143 -1.0959 12.2493
178 1 -1.1104 6.79147 -3.91081 12.0652
182 1 -1.1104 6.66154 -3.91571 9.29099
189 1 -1.1104 6.90321 -1.06927 9.53273
211 2 2.2208 11.1003 0.152718 10.799
212 1 -1.1104 12.4218 -3.96947 12.5274
214 1 -1.1104 12.5356 -3.97226 9.52643
216 1 -1.1104 12.4428 -1.23108 12.2115
217 2 2.2208 11.1501 -2.60694 8.23683
219 1 -1.1104 12.4415 -1.11738 9.41199
220 1 -1.1104 9.71465 -3.8709 12.1765
222 2 2.2208 8.11477 0.349708 8.00089
223 1 -1.1104 9.64094 -4.01006 9.21019
225 2 2.2208 8.04793 -2.53523 10.8572
227 1 -1.1104 9.66889 -1.29116 12.1476
228 1 -1.1104 9.67876 -1.14551 9.13532
239 1 -1.1104 4.08261 4.70434 6.73025
204 2 2.2208 13.6846 8.90129 5.04103
177 1 -1.1104 1.14648 1.54361 12.3043
181 1 -1.1104 0.990892 1.99779 9.59245
187 2 2.2208 5.23348 3.12148 7.96374
191 1 -1.1104 4.07384 1.69552 12.2239
194 1 -1.1104 4.0052 1.7653 9.51815
196 2 2.2208 2.50723 3.23262 10.9112
240 2 2.2208 5.22137 6.04135 10.8275
244 1 -1.1104 1.34091 7.46247 9.28988
246 1 -1.1104 0.988319 4.67808 12.1821
251 1 -1.1104 1.11649 4.63492 9.42962
256 2 2.2208 2.58451 5.97209 7.96025
260 1 -1.1104 3.83092 4.67543 12.4899
262 1 -1.1104 3.82758 4.78529 9.51319
258 1 -1.1104 4.07074 7.50179 9.58029
255 1 -1.1104 3.75456 7.35386 12.1803
242 1 -1.1104 0.885781 7.59102 12.0599
243 1 -1.1104 6.72604 7.22366 12.1997
245 1 -1.1104 6.66183 7.30447 9.21787
9018 2 2.2208 -0.388937 20.0059 2.29613
386 2 2.2208 -0.209349 8.76627 13.5911
489 2 2.2208 2.35134 17.2853 13.5546
209 1 -1.1104 9.34619 1.76535 6.70167
265 1 -1.1104 12.1402 7.39475 6.44751
267 1 -1.1104 9.30287 7.34037 6.6154
237 1 -1.1104 7.08839 4.44584 6.57642
169 1 -1.1104 6.61177 1.73318 6.57144
179 1 -1.1104 6.85949 1.69764 11.9643
253 1 -1.1104 6.46729 4.54956 9.39236
248 1 -1.1104 6.7857 4.65516 12.227
269 1 -1.1104 9.60327 4.63588 6.62902
183 1 -1.1104 6.89975 1.71096 9.18317
213 1 -1.1104 12.4617 1.72989 12.0727
215 1 -1.1104 12.5046 1.63538 9.50267
218 2 2.2208 10.6861 3.10371 8.03621
221 1 -1.1104 9.67852 1.66589 12.3711
224 1 -1.1104 9.76625 1.54866 9.35202
226 2 2.2208 8.23632 3.09003 10.8516
268 1 -1.1104 9.49326 4.51959 9.3355
271 1 -1.1104 9.69236 4.43163 12.1581
275 2 2.2208 8.00611 5.91135 8.11091
276 2 2.2208 10.7985 5.89881 10.7557
278 1 -1.1104 12.1571 7.18905 12.1991
280 1 -1.1104 12.4067 4.38616 12.0738
283 1 -1.1104 12.2491 4.68991 9.13045
285 1 -1.1104 9.36075 7.35232 12.4434
273 1 -1.1104 9.59788 7.46614 9.48275
316 2 2.2208 8.06829 20.0078 10.9219
279 1 -1.1104 12.388 7.56999 9.27655
81 1 -1.1104 12.3833 18.8183 9.35376
108 1 -1.1104 1.02565 12.8224 6.54688
78 1 -1.1104 3.80748 9.97073 6.46546
8859 2 2.2208 -0.385943 19.9192 7.96999
241 2 2.2208 5.16949 11.8279 10.6966
247 1 -1.1104 1.29747 10.3812 12.5084
250 2 2.2208 5.26981 8.91499 8.09006
252 1 -1.1104 0.920885 9.89714 9.56176
257 2 2.2208 2.52761 11.5811 7.94454
259 2 2.2208 2.54454 8.84157 10.8356
261 1 -1.1104 3.97143 10.3424 12.1377
263 1 -1.1104 3.70972 10.2248 9.52289
287 1 -1.1104 3.83833 13.1506 11.9811
294 1 -1.1104 0.79234 12.8364 9.34753
299 1 -1.1104 1.01029 13.1367 12.2138
305 1 -1.1104 3.89867 13.169 9.37719
290 1 -1.1104 6.55025 13.1123 9.24337
355 2 2.2208 -0.248465 -2.62421 13.6437
295 2 2.2208 5.34822 14.8309 7.80324
392 2 2.2208 11.1014 3.22026 13.5025
314 1 -1.1104 9.57518 16.1545 9.24567
111 1 -1.1104 6.45883 13.2385 6.36862
65 1 -1.1104 6.52518 10.4783 6.50377
254 1 -1.1104 6.50069 10.4519 9.21114
297 1 -1.1104 6.70035 12.883 12.188
249 1 -1.1104 6.63032 10.2014 12.1943
312 1 -1.1104 9.54278 13.2219 9.0994
264 1 -1.1104 9.52122 10.1221 9.24696
270 1 -1.1104 9.58753 10.2359 12.0999
272 2 2.2208 8.05234 8.87087 10.8579
274 2 2.2208 7.93132 11.7939 7.74326
277 2 2.2208 10.7473 11.7957 10.4905
281 1 -1.1104 12.3806 10.0828 12.1748
282 2 2.2208 10.9101 8.7307 7.84966
284 1 -1.1104 12.2011 10.122 9.24164
200 1 -1.1104 9.45399 13.162 12.1821
49 1 -1.1104 12.2482 13.0424 12.0993
53 1 -1.1104 12.6075 13.0545 9.23898
9226 2 2.2208 -0.210608 3.43054 13.5881
82 1 -1.1104 12.4077 15.7442 12.1306
51 2 2.2208 13.5338 11.5314 7.92459
133 1 -1.1104 3.70526 15.898 6.64618
233 2 2.2208 8.1643 14.5886 10.5348
8858 2 2.2208 -0.37409 17.1911 10.8896
310 2 2.2208 2.493 14.5465 10.7135
302 1 -1.1104 1.0701 18.8911 6.49675
298 1 -1.1104 0.929635 18.7896 12.3357
293 2 2.2208 5.35199 20.1559 7.96356
292 1 -1.1104 1.22954 15.9409 9.39907
291 1 -1.1104 0.886017 18.5962 9.51804
286 1 -1.1104 3.8537 18.6211 12.2563
304 1 -1.1104 3.9629 15.8922 9.47096
301 1 -1.1104 3.60489 18.655 9.41253
307 1 -1.1104 1.13755 16.0187 12.08
300 2 2.2208 5.23496 17.2904 10.7913
303 2 2.2208 2.52628 17.3249 7.85426
308 1 -1.1104 3.94803 16.085 12.3792
309 2 2.2208 2.4287 19.8981 10.8335
315 1 -1.1104 9.59619 15.8828 11.8898
137 2 2.2208 -0.365226 17.1883 5.0634
9150 2 2.2208 -0.458283 5.92212 5.18914
199 1 -1.1104 12.2712 15.8648 9.32915
163 1 -1.1104 9.35249 16.0759 6.42201
289 1 -1.1104 6.94811 15.7566 9.05242
288 1 -1.1104 6.65863 18.5951 9.6132
30 2 2.2208 11.0247 17.3477 10.6218
136 2 2.2208 11.0932 20.1816 8.06592
358 2 2.2208 2.57724 0.200373 13.3647
8829 2 2.2208 2.54935 -5.31704 13.4996
9148 2 2.2208 -0.375196 0.460768 4.96965
9053 2 2.2208 -0.305876 8.76275 2.21979
574 2 2.2208 10.9632 0.445817 -0.50006
552 2 2.2208 8.08556 19.9638 -0.42302
455 2 2.2208 8.07851 11.6311 13.5072
517 2 2.2208 10.9144 14.3074 13.4988
427 2 2.2208 5.32052 8.86875 13.5826
104 2 2.2208 13.6723 11.364 2.38362
491 2 2.2208 5.5175 14.6303 13.5863
9219 2 2.2208 -0.194358 0.26441 -0.448406
9149 2 2.2208 -0.406907 3.27434 2.38275
516 2 2.2208 10.7954 20.1434 13.5626
575 2 2.2208 8.24032 -2.52677 -0.330602
609 2 2.2208 5.2495 5.88322 -0.415812
391 2 2.2208 11.1382 -2.45441 13.5623
317 2 2.2208 5.16254 0.268622 16.4281
318 1 -1.1104 1.05062 -3.76402 17.8529
322 1 -1.1104 1.07589 -3.91013 14.947
330 1 -1.1104 1.29137 -1.04887 17.6487
332 2 2.2208 5.32007 -2.36832 19.2309
334 1 -1.1104 1.26546 -1.22091 14.7865
338 1 -1.1104 3.84568 -3.9475 17.7069
340 2 2.2208 2.55718 0.294819 19.2392
341 1 -1.1104 3.90895 -3.63824 14.8082
345 2 2.2208 2.6064 -2.56544 16.288
347 1 -1.1104 4.03566 -1.1338 17.852
348 1 -1.1104 4.01998 -0.978015 14.8171
549 2 2.2208 -0.391352 11.5271 16.6521
354 2 2.2208 -0.260117 -2.55612 19.2065
335 1 -1.1104 1.38629 -1.18094 20.576
342 1 -1.1104 4.04575 -3.77625 20.7087
9371 2 2.2208 -0.195414 0.444632 16.4065
665 2 2.2208 2.4595 14.3179 27.6313
320 1 -1.1104 6.59836 -3.67604 17.6764
336 1 -1.1104 6.73779 -0.933192 15.0804
326 1 -1.1104 6.6925 -3.79069 14.8294
331 1 -1.1104 6.78494 -0.947726 17.8682
360 2 2.2208 10.9086 0.432279 16.5662
361 1 -1.1104 12.1704 -3.85531 17.9534
363 1 -1.1104 12.186 -3.85732 15.2725
367 1 -1.1104 12.1049 -0.734693 18.1088
368 2 2.2208 10.8438 -2.38934 19.3405
370 1 -1.1104 12.3275 -1.18961 15.1201
372 1 -1.1104 9.41254 -3.84275 18.1938
374 2 2.2208 8.16524 0.412121 19.309
375 1 -1.1104 9.34156 -3.73532 15.05
379 2 2.2208 8.10848 -2.39389 16.454
381 1 -1.1104 9.58127 -0.835103 17.9479
382 1 -1.1104 9.63059 -1.12249 15.0061
376 1 -1.1104 9.50058 -3.86855 20.7872
683 1 -1.1104 12.2471 15.7666 23.4878
636 2 2.2208 11.0286 11.7856 27.7654
8826 2 2.2208 -0.386798 -5.16751 16.3169
319 1 -1.1104 1.10973 1.82165 17.9702
324 1 -1.1104 0.952766 1.84002 14.9204
333 2 2.2208 5.19697 3.10062 19.2588
339 1 -1.1104 3.93741 1.62708 17.8244
343 1 -1.1104 3.9402 1.67008 14.7938
346 2 2.2208 2.34208 3.09028 16.4441
393 2 2.2208 5.29254 5.92782 16.5553
397 1 -1.1104 1.13205 7.34669 15.0495
401 1 -1.1104 1.13231 4.61122 18.0362
406 1 -1.1104 1.25664 4.63213 15.0753
415 2 2.2208 2.46579 5.98724 19.4123
420 1 -1.1104 3.69134 4.4997 17.8652
422 1 -1.1104 3.93842 4.69033 15.2904
417 1 -1.1104 3.90999 7.41557 14.9994
414 1 -1.1104 3.95841 7.22373 18.0055
395 1 -1.1104 0.952652 7.39574 17.9193
344 1 -1.1104 3.90236 1.74573 20.6482
553 2 2.2208 10.8993 17.3356 22.1015
399 1 -1.1104 6.56418 7.2882 14.8503
403 1 -1.1104 6.66753 4.76661 18.0007
321 1 -1.1104 6.65846 1.86677 17.7278
396 1 -1.1104 7.00756 7.40511 17.5123
410 1 -1.1104 7.08571 4.76694 15.3441
328 1 -1.1104 6.86317 1.77367 14.9057
411 1 -1.1104 6.83445 4.59153 20.6716
362 1 -1.1104 12.2479 1.93053 17.8139
365 1 -1.1104 12.3978 1.746 15.1552
369 2 2.2208 10.9865 3.36875 19.2986
373 1 -1.1104 9.45669 1.85401 17.8722
377 1 -1.1104 9.44582 1.83973 15.0539
380 2 2.2208 8.10342 3.2154 16.5896
429 2 2.2208 11.065 6.22754 16.6123
432 1 -1.1104 12.521 7.47258 15.0875
434 1 -1.1104 12.4105 4.76083 18.0941
437 1 -1.1104 12.2801 4.41964 15.1165
441 1 -1.1104 9.59655 7.62175 18.023
442 2 2.2208 8.17091 6.03802 19.0238
447 1 -1.1104 9.426 4.853 17.6237
449 1 -1.1104 9.68629 4.78073 14.9285
431 1 -1.1104 12.4855 7.69117 17.8892
444 1 -1.1104 9.379 7.58134 15.2218
329 1 -1.1104 6.84034 1.84154 20.613
450 1 -1.1104 9.60507 4.78261 20.479
438 1 -1.1104 12.4665 4.62763 20.8364
387 2 2.2208 -0.240398 6.03404 16.5724
394 2 2.2208 5.36336 11.6141 16.3436
402 1 -1.1104 1.23564 9.99261 17.9989
405 2 2.2208 5.39384 8.69478 19.067
408 1 -1.1104 0.796149 10.0408 15.2531
416 2 2.2208 2.75458 11.6935 19.2304
419 2 2.2208 2.34692 8.89703 16.4361
421 1 -1.1104 4.04644 10.1645 17.7196
424 1 -1.1104 3.59613 10.2426 14.9237
457 1 -1.1104 1.02596 12.8174 18.2078
461 1 -1.1104 0.952804 12.9506 15.4602
477 1 -1.1104 3.86875 12.9007 17.7342
480 1 -1.1104 3.99872 13.0689 14.9359
425 1 -1.1104 4.2702 10.3033 20.3596
412 1 -1.1104 6.76792 10.2185 14.9862
8523 2 2.2208 8.30319 -5.20282 24.8379
610 2 2.2208 2.41726 8.82643 27.6413
404 1 -1.1104 6.85886 10.1602 17.9428
465 1 -1.1104 6.73939 13.1644 14.9479
459 1 -1.1104 6.71829 12.7425 17.8929
430 2 2.2208 11.0192 11.5129 16.2265
435 1 -1.1104 12.69 10.4572 17.804
436 2 2.2208 11.0834 8.83334 19.2805
439 1 -1.1104 12.2694 10.0955 15.0347
443 2 2.2208 8.2664 11.5289 19.2714
446 2 2.2208 8.16203 9.05256 16.3586
448 1 -1.1104 9.85245 10.3034 17.7005
451 1 -1.1104 9.43203 10.2145 14.873
493 1 -1.1104 12.289 13.2493 17.5521
495 1 -1.1104 12.2119 13.043 15.0424
504 1 -1.1104 9.68992 12.9216 17.661
507 1 -1.1104 9.54181 13.0669 14.8951
658 1 -1.1104 6.69388 15.9451 23.3819
496 1 -1.1104 12.4606 13.1937 20.6634
508 1 -1.1104 9.51789 13.3542 20.5295
452 1 -1.1104 9.84659 10.3998 20.5804
440 1 -1.1104 12.4641 10.2955 20.5326
8524 2 2.2208 11.0055 -5.18836 22.1546
615 2 2.2208 -0.363436 6.05308 27.6624
484 2 2.2208 2.58301 14.4655 16.2964
471 2 2.2208 5.28064 14.4367 19.0285
456 2 2.2208 5.30554 17.2678 16.3938
458 1 -1.1104 0.947382 18.7594 17.988
463 1 -1.1104 1.12246 18.697 15.0565
469 1 -1.1104 0.947119 15.5222 17.6964
472 2 2.2208 5.25324 20.1625 19.308
473 1 -1.1104 1.07794 15.8615 15.0398
478 1 -1.1104 3.89442 18.5444 17.9223
479 2 2.2208 2.47603 17.2044 19.1501
482 1 -1.1104 3.71992 18.5963 15.0986
485 2 2.2208 2.30849 20.2009 16.4275
486 1 -1.1104 3.869 15.8545 17.6616
487 1 -1.1104 4.17152 15.717 15.0504
483 1 -1.1104 4.07715 18.5782 20.5172
460 1 -1.1104 6.67529 18.3958 17.9187
476 1 -1.1104 6.68833 15.7532 20.3709
467 1 -1.1104 6.59158 18.6875 15.1014
668 2 2.2208 -0.342368 20.1325 24.9007
488 1 -1.1104 3.92246 16.0283 20.6797
666 2 2.2208 -0.473342 14.5499 24.7001
389 2 2.2208 -0.325132 8.82622 19.26
475 1 -1.1104 6.93212 15.9678 15.0808
470 1 -1.1104 6.51223 15.4965 17.3843
511 2 2.2208 8.14883 14.3258 16.5181
500 2 2.2208 10.9597 14.4594 19.1194
492 2 2.2208 10.9985 17.254 16.3829
494 1 -1.1104 12.3935 18.9198 17.8048
497 1 -1.1104 12.2957 18.9485 14.9948
499 1 -1.1104 12.3338 16.0756 17.7708
501 2 2.2208 11.0018 20.0701 19.43
502 1 -1.1104 12.4201 15.8402 14.956
505 1 -1.1104 9.64222 18.5671 17.8089
506 2 2.2208 8.19472 17.3514 19.2161
509 1 -1.1104 9.53718 18.7581 15.0901
512 2 2.2208 8.20527 19.9994 16.6558
513 1 -1.1104 9.32385 15.7661 17.9808
514 1 -1.1104 9.81547 15.987 14.9796
515 1 -1.1104 9.17559 16.1484 20.9182
498 1 -1.1104 12.4301 18.621 20.6875
647 1 -1.1104 6.62944 18.6539 23.4624
390 2 2.2208 8.31798 0.141336 13.7159
670 1 -1.1104 9.65817 15.9034 26.3219
327 1 -1.1104 6.85518 -3.82438 20.7533
9184 2 2.2208 -0.385259 -2.7671 24.8285
349 1 -1.1104 3.88115 -1.0676 20.6853
323 1 -1.1104 0.931156 -4.09632 20.5376
520 2 2.2208 5.13715 0.373121 22.1354
521 1 -1.1104 0.921253 -4.04143 23.3848
525 1 -1.1104 0.889186 -3.88058 26.3407
529 1 -1.1104 1.0664 -1.15673 23.4
531 2 2.2208 5.28124 -2.48261 24.9512
533 1 -1.1104 0.860883 -1.14043 26.2888
535 1 -1.1104 3.79188 -3.70526 23.6329
537 2 2.2208 2.175 0.247236 24.9859
538 1 -1.1104 3.81723 -4.00842 26.3658
540 2 2.2208 2.55373 -2.45533 22.1118
542 1 -1.1104 3.9299 -1.04422 23.5538
543 1 -1.1104 3.61612 -1.25055 26.3691
667 2 2.2208 -0.257695 17.081 27.5622
613 2 2.2208 -0.415545 8.71598 24.7093
580 2 2.2208 -0.213698 3.24148 19.2999
681 2 2.2208 11.037 20.0396 24.9282
371 1 -1.1104 12.462 -0.877085 21.0769
364 1 -1.1104 12.3151 -3.82266 20.7338
676 1 -1.1104 6.82973 18.6653 26.4847
337 1 -1.1104 6.84374 -0.90981 20.6975
527 1 -1.1104 7.00289 -3.69902 26.4126
534 1 -1.1104 6.46462 -1.05312 26.4602
523 1 -1.1104 6.71688 -3.96774 23.5552
530 1 -1.1104 6.63107 -1.31958 23.5064
383 1 -1.1104 9.52696 -0.689508 20.6786
556 2 2.2208 10.9637 0.498417 22.168
557 1 -1.1104 12.2871 -3.81362 23.5286
559 1 -1.1104 12.5407 -3.86717 26.4218
561 1 -1.1104 12.4854 -0.96223 23.6442
562 2 2.2208 11.0754 -2.54102 24.8813
564 1 -1.1104 12.2861 -1.25974 26.3436
565 1 -1.1104 9.60663 -3.8796 23.5498
567 2 2.2208 8.05591 0.241243 24.9732
568 1 -1.1104 9.67753 -3.89429 26.4873
570 2 2.2208 8.21684 -2.34045 22.1344
572 1 -1.1104 9.65207 -1.09928 23.3283
573 1 -1.1104 9.21633 -1.22245 26.2976
325 1 -1.1104 1.17952 1.75879 20.6186
418 1 -1.1104 4.09967 7.27919 20.6719
407 1 -1.1104 1.32811 4.68427 20.8527
398 1 -1.1104 0.994609 7.53779 20.7948
359 2 2.2208 5.58484 3.13931 13.6963
350 2 2.2208 -0.40224 5.88873 22.004
423 1 -1.1104 3.89034 4.72147 20.7391
522 1 -1.1104 0.855608 1.50196 23.3652
526 1 -1.1104 0.94669 1.77479 26.131
532 2 2.2208 5.1876 3.05936 24.9112
536 1 -1.1104 3.63603 1.78543 23.4637
539 1 -1.1104 3.95522 1.7699 26.2842
541 2 2.2208 2.36608 3.1507 22.104
585 2 2.2208 5.41886 5.91156 21.922
591 1 -1.1104 1.26843 4.23767 23.8591
596 1 -1.1104 1.11288 4.56383 26.702
601 2 2.2208 2.50324 5.86504 25.0763
603 1 -1.1104 3.62419 7.43892 26.2478
605 1 -1.1104 3.92245 4.90264 23.7224
607 1 -1.1104 3.74269 4.50799 26.4936
589 1 -1.1104 1.11554 7.38399 26.2859
600 1 -1.1104 3.81932 7.46482 23.5239
587 1 -1.1104 1.05189 6.86804 23.5339
8828 2 2.2208 2.51964 -5.13229 19.3005
634 2 2.2208 10.8647 6.22854 27.7751
356 2 2.2208 13.6761 20.2918 16.2847
378 1 -1.1104 9.80677 2.0274 20.8203
400 1 -1.1104 6.79481 7.31749 20.5231
366 1 -1.1104 12.539 1.89256 20.8007
528 1 -1.1104 6.92109 1.645 26.3987
433 1 -1.1104 12.4423 7.23622 20.5025
445 1 -1.1104 9.57975 7.693 20.841
588 1 -1.1104 6.67153 7.31709 23.456
593 1 -1.1104 6.63589 4.34504 23.674
590 1 -1.1104 6.41547 7.1354 26.2933
598 1 -1.1104 6.7104 4.44411 26.4343
524 1 -1.1104 6.4691 1.52305 23.4671
558 1 -1.1104 12.149 1.85719 23.517
560 1 -1.1104 12.3554 1.97696 26.2749
563 2 2.2208 10.9792 3.30813 24.9742
566 1 -1.1104 9.3069 2.01673 23.7998
569 1 -1.1104 9.68973 1.64444 26.3081
571 2 2.2208 8.09199 3.24205 22.2177
617 1 -1.1104 9.78956 4.38967 26.3209
619 1 -1.1104 9.38251 4.6199 23.3694
621 1 -1.1104 9.42491 7.22067 26.3855
623 2 2.2208 8.11991 5.73271 24.9472
624 2 2.2208 10.7838 6.01283 22.0516
628 1 -1.1104 12.2257 4.55129 23.5015
631 1 -1.1104 12.6599 4.67538 26.3244
633 1 -1.1104 9.42686 7.24043 23.5481
626 1 -1.1104 12.2946 7.29053 23.3885
627 1 -1.1104 12.3145 7.41341 26.1228
684 1 -1.1104 12.4195 18.7761 26.2422
611 2 2.2208 5.21707 11.4982 27.6907
462 1 -1.1104 1.30022 13.1232 20.8276
409 1 -1.1104 1.1069 10.2826 20.4961
9366 2 2.2208 -0.251845 17.319 16.5394
481 1 -1.1104 4.08388 13.2163 20.6124
657 1 -1.1104 3.86975 13.1866 26.1561
586 2 2.2208 5.57493 11.56 21.9104
592 1 -1.1104 0.935571 9.96954 23.2489
595 2 2.2208 5.26981 8.73019 24.8852
597 1 -1.1104 0.860063 10.2676 26.0816
602 2 2.2208 2.45049 11.8094 24.7738
604 2 2.2208 2.60098 8.80334 22.0227
606 1 -1.1104 3.95659 10.2722 23.2288
608 1 -1.1104 3.69843 10.3808 26.0561
652 1 -1.1104 1.04627 12.9107 23.4205
642 1 -1.1104 3.9659 12.9768 23.5154
646 1 -1.1104 1.00669 12.9905 26.3409
518 2 2.2208 8.11332 17.2044 13.675
466 1 -1.1104 6.72479 13.1704 20.3866
413 1 -1.1104 6.97283 10.1675 20.6959
8827 2 2.2208 5.28063 -5.10385 16.2844
673 2 2.2208 8.31768 14.6138 22.0542
641 1 -1.1104 6.71151 12.9764 26.2936
594 1 -1.1104 6.80782 10.1144 23.531
599 1 -1.1104 6.39867 10.0109 26.3516
650 1 -1.1104 6.78237 13.0485 23.5039
685 1 -1.1104 12.3785 12.9905 26.3673
679 1 -1.1104 9.7738 12.9422 23.365
637 1 -1.1104 12.4321 13.1621 23.4786
675 1 -1.1104 9.58448 13.0211 26.1994
616 1 -1.1104 9.35194 10.3171 26.5075
618 1 -1.1104 9.60814 10.0207 23.3641
620 2 2.2208 8.19064 8.73773 22.1127
622 2 2.2208 8.16384 11.7176 24.7469
625 2 2.2208 11.3933 11.6601 21.9306
629 1 -1.1104 12.3358 10.3886 23.6333
630 2 2.2208 10.8 8.84548 24.9341
632 1 -1.1104 12.2483 10.2478 26.3773
464 1 -1.1104 1.07249 18.5759 20.8268
9364 2 2.2208 -0.287586 20.126 19.282
8836 2 2.2208 5.39089 -5.20949 22.1934
663 2 2.2208 2.49768 20.0528 27.5219
474 1 -1.1104 0.916951 15.9091 20.5203
645 1 -1.1104 1.18522 15.9403 26.2722
648 2 2.2208 5.28837 19.9281 24.9747
662 2 2.2208 2.70876 14.4979 22.0601
649 2 2.2208 5.5267 14.3971 24.7886
660 1 -1.1104 4.17343 15.9101 23.7367
659 1 -1.1104 1.29581 15.627 23.3909
656 1 -1.1104 4.10456 16.0559 26.3457
655 2 2.2208 2.53505 17.2036 24.9308
654 1 -1.1104 3.8887 18.8292 26.2454
653 2 2.2208 5.33929 17.3319 22.089
651 1 -1.1104 0.952814 18.4576 23.4866
661 2 2.2208 2.62817 19.9584 22.0867
640 1 -1.1104 3.77673 18.5337 23.3441
644 1 -1.1104 1.00631 18.7108 26.1952
468 1 -1.1104 6.64774 18.8579 20.412
554 2 2.2208 -0.247201 0.102486 21.9303
635 2 2.2208 7.8894 8.78052 27.6837
672 2 2.2208 8.10572 20.1734 22.1603
674 1 -1.1104 9.52485 18.6268 26.3
669 1 -1.1104 12.4151 18.5035 23.4794
678 1 -1.1104 9.62865 18.8174 23.3151
680 1 -1.1104 12.4364 15.8147 26.3213
671 1 -1.1104 9.56338 15.8964 23.6546
503 1 -1.1104 12.2685 15.9239 20.7172
510 1 -1.1104 9.5544 18.6955 20.6691
682 2 2.2208 10.9907 14.3456 24.867
643 1 -1.1104 6.84034 15.7317 26.164
677 2 2.2208 8.11815 17.3008 24.893
614 2 2.2208 -0.333875 11.5446 22.0258
352 2 2.2208 -0.335444 14.3355 19.3322
9177 2 2.2208 -0.340789 17.2299 21.9543
544 2 2.2208 5.32269 0.339652 27.7557
664 2 2.2208 5.40393 17.2352 27.6632
547 2 2.2208 8.26968 14.4905 27.6945
612 2 2.2208 -0.417752 11.6574 27.7228
8837 2 2.2208 2.48797 -5.1782 24.9921
384 2 2.2208 13.6228 17.296 19.3054
8525 2 2.2208 11.0186 -5.27675 27.8182
548 2 2.2208 10.9423 17.3453 27.6398
576 2 2.2208 8.14398 3.13558 27.6819
426 2 2.2208 2.54127 5.99208 13.7768
428 2 2.2208 2.52875 11.8182 13.6804
453 2 2.2208 8.07141 6.04436 13.7585
546 2 2.2208 2.40861 3.0133 27.7441
490 2 2.2208 5.31286 19.9409 13.726
8833 2 2.2208 8.28254 -5.24945 13.833
689 2 2.2208 5.14795 22.8744 5.32303
691 1 -1.1104 0.985273 24.3911 1.08764
692 1 -1.1104 0.833798 24.2473 3.91671
693 1 -1.1104 1.04935 21.2695 0.892326
695 2 2.2208 5.23459 25.7504 2.4168
696 1 -1.1104 1.20957 21.6045 3.80698
698 1 -1.1104 4.0301 24.143 1.02152
699 2 2.2208 2.53005 22.8297 2.3168
701 1 -1.1104 3.59545 24.2189 3.83562
702 2 2.2208 2.3125 25.659 5.26116
703 1 -1.1104 3.84005 21.5604 0.861975
705 1 -1.1104 4.09352 21.5046 3.79521
706 1 -1.1104 3.7731 27.2207 3.72915
704 1 -1.1104 3.55258 26.941 0.871364
836 1 -1.1104 3.82486 24.2928 6.63573
838 1 -1.1104 3.73173 27.2607 6.47475
715 1 -1.1104 6.55779 27.346 3.69839
694 1 -1.1104 0.778067 26.9984 0.861117
697 1 -1.1104 0.856347 26.9944 3.86986
9562 2 2.2208 13.5664 31.2946 5.26889
830 1 -1.1104 1.09367 24.2588 6.75273
848 1 -1.1104 8.97507 27.035 12.6837
711 1 -1.1104 6.35596 24.2093 3.90083
710 1 -1.1104 6.81713 24.2704 0.89246
712 1 -1.1104 6.51688 21.5662 1.10085
714 1 -1.1104 6.85888 21.4141 3.92767
716 2 2.2208 11.0855 22.9765 5.29723
718 1 -1.1104 12.4743 24.3726 1.08959
719 1 -1.1104 12.3449 24.4159 3.99305
720 1 -1.1104 12.5038 21.5477 1.11493
722 2 2.2208 10.9389 25.8365 2.22119
723 1 -1.1104 12.3515 21.6292 3.93184
725 1 -1.1104 9.70437 24.4168 0.751086
726 2 2.2208 8.23572 22.9962 2.50395
728 1 -1.1104 9.22496 24.391 3.71693
729 2 2.2208 8.10802 25.7328 5.2925
730 1 -1.1104 9.49613 21.4902 0.87077
732 1 -1.1104 9.74966 21.7117 3.60902
863 1 -1.1104 12.2208 24.366 7.21386
724 1 -1.1104 12.1609 27.2795 3.73806
713 1 -1.1104 6.54064 27.1427 1.01996
721 1 -1.1104 12.1835 27.1525 0.681536
868 1 -1.1104 9.3751 27.2857 6.67133
731 1 -1.1104 9.34777 27.2398 1.09861
990 2 2.2208 10.7519 28.5362 -0.417031
864 1 -1.1104 12.426 21.6652 6.6516
834 1 -1.1104 6.77547 21.5346 6.69165
690 2 2.2208 5.23497 28.6304 5.23537
700 2 2.2208 2.27893 28.3335 2.62778
738 1 -1.1104 0.818462 29.8253 1.09561
741 1 -1.1104 1.02128 29.9877 3.73081
744 1 -1.1104 1.14744 32.775 1.06459
745 2 2.2208 5.17295 31.3425 2.57269
747 1 -1.1104 0.969678 32.9986 3.74984
749 1 -1.1104 3.52285 29.7173 1.24922
752 1 -1.1104 3.86083 29.9933 3.74079
754 2 2.2208 2.36749 31.6018 5.06947
756 1 -1.1104 3.81689 32.7817 1.27335
757 1 -1.1104 3.77829 33.0544 3.98262
763 1 -1.1104 6.7367 32.9579 1.04072
888 1 -1.1104 3.61663 30.1147 6.53166
887 1 -1.1104 6.75208 32.9422 6.56175
735 1 -1.1104 12.3064 41.1533 9.64353
886 1 -1.1104 1.07431 32.7049 6.76224
1537 1 -1.1104 6.63405 46.6705 9.54938
733 1 -1.1104 9.47367 27.0255 3.75394
748 1 -1.1104 6.58575 32.9366 3.79936
865 1 -1.1104 12.2299 27.3045 6.38429
761 1 -1.1104 6.63735 30.2842 1.22418
762 1 -1.1104 6.71302 30.2088 4.03607
717 2 2.2208 10.7281 28.5573 5.18544
727 2 2.2208 8.05327 28.7471 2.52078
765 1 -1.1104 12.3284 30.0497 1.05174
767 1 -1.1104 12.4007 30.0045 3.97373
769 1 -1.1104 12.0754 32.7195 0.903793
770 2 2.2208 10.9161 31.3623 2.31669
772 1 -1.1104 12.2261 32.7816 3.70471
773 1 -1.1104 9.53311 30.075 0.988633
776 1 -1.1104 9.50923 30.0054 3.55164
778 2 2.2208 8.03969 31.6602 5.2463
780 1 -1.1104 9.38008 32.8514 0.940781
781 1 -1.1104 9.4564 32.6558 3.85589
918 1 -1.1104 12.0968 32.9329 6.54634
919 1 -1.1104 9.45061 29.9243 6.53981
9759 2 2.2208 13.6263 39.727 8.15965
9685 2 2.2208 -0.224493 25.7952 8.11752
751 2 2.2208 2.41846 34.303 2.44084
737 2 2.2208 5.22042 34.3463 5.242
739 1 -1.1104 0.92263 35.821 0.797486
742 1 -1.1104 0.799715 35.8117 3.78047
746 2 2.2208 5.01358 37.0857 2.36473
750 1 -1.1104 3.66915 35.733 1.16004
753 1 -1.1104 3.69356 35.7364 3.92651
755 2 2.2208 2.69215 37.1867 5.36028
783 2 2.2208 5.22299 39.9557 5.12659