ITEM: TIMESTEP
30000
ITEM: NUMBER OF ATOMS
17640
ITEM: BOX BOUNDS pp pp pp
-4.4533969090342035e-01 2.7785339690903360e+01
-5.3068611650001847e+00 3.3338686116500321e+02
-4.3942042173309614e-01 2.7779420421733406e+01
ITEM: ATOMS id type q x y z
1 2 2.2208 5.27632 0.433901 5.05071
2 1 -1.1104 0.992653 -4.04794 0.788419
6 1 -1.1104 1.26458 -4.00295 3.62007
10 1 -1.1104 1.3083 -0.922259 0.97496
12 2 2.2208 5.38646 -2.47684 2.58226
14 1 -1.1104 1.20255 -1.40952 3.72813
16 1 -1.1104 4.18437 -4.17749 1.05456
18 2 2.2208 2.50466 0.264734 2.53902
19 1 -1.1104 3.98628 -3.78036 3.92654
21 2 2.2208 2.62846 -2.46981 5.2304
23 1 -1.1104 4.00775 -1.25251 0.996396
24 1 -1.1104 3.94006 -0.879609 3.88674
170 1 -1.1104 1.2761 -1.18167 6.84429
15 1 -1.1104 6.7387 -1.16397 3.99871
8884 2 2.2208 -0.124421 0.261208 11.0375
172 1 -1.1104 4.05311 -3.73003 6.65414
168 1 -1.1104 6.6637 -3.94427 6.7975
9053 2 2.2208 -0.222121 8.64554 2.34109
9149 2 2.2208 -0.18982 3.10409 2.37881
9148 2 2.2208 -0.274477 0.266038 5.20501
171 1 -1.1104 6.80676 -1.11143 6.86163
4 1 -1.1104 7.02898 -3.84521 1.0956
8 1 -1.1104 6.9536 -3.98108 4.07595
11 1 -1.1104 6.98793 -0.913996 1.1505
31 2 2.2208 11.0368 0.360228 5.19312
32 1 -1.1104 12.6028 -3.78696 0.966856
34 1 -1.1104 12.4922 -3.87691 3.85597
36 1 -1.1104 12.5224 -1.0576 0.729289
37 2 2.2208 11.0473 -2.53055 2.4195
39 1 -1.1104 12.2551 -1.04758 3.83796
40 1 -1.1104 9.75451 -3.9444 0.83065
42 2 2.2208 8.21951 0.293813 2.70963
43 1 -1.1104 9.86149 -4.00069 3.92686
45 2 2.2208 8.18305 -2.41703 5.28521
47 1 -1.1104 9.84305 -1.22339 1.03741
48 1 -1.1104 9.51095 -0.966475 3.9632
208 1 -1.1104 9.57818 -3.70873 6.69023
205 1 -1.1104 12.3347 -3.92227 6.56758
137 2 2.2208 -0.121394 17.3698 5.17984
3 1 -1.1104 1.33586 1.70917 1.09942
7 1 -1.1104 1.32862 1.46302 3.79758
13 2 2.2208 5.34351 3.15603 2.36357
17 1 -1.1104 4.05805 1.74688 0.930012
20 1 -1.1104 3.86418 1.83005 3.68895
22 2 2.2208 2.56283 3.18751 5.1966
54 2 2.2208 5.31418 5.87136 5.06054
56 1 -1.1104 1.369 7.30963 1.00188
60 1 -1.1104 1.20337 4.3211 0.859326
67 1 -1.1104 1.09696 4.40396 3.73681
72 2 2.2208 2.66358 5.86666 2.23392
74 1 -1.1104 3.91409 7.15738 3.76086
76 1 -1.1104 4.09579 4.32202 0.949864
79 1 -1.1104 3.95115 4.50746 3.70998
71 1 -1.1104 4.10285 7.42972 1.08345
69 1 -1.1104 6.87112 4.37701 3.6184
5 1 -1.1104 6.7064 1.8904 0.96716
236 1 -1.1104 1.07072 4.53349 6.7615
167 1 -1.1104 1.18184 1.60353 6.58962
9150 2 2.2208 -0.328904 5.91936 5.22617
386 2 2.2208 -0.257237 8.69318 13.6356
8456 2 2.2208 10.9729 -5.26404 11.2137
9087 2 2.2208 -0.0753779 6.05187 10.7841
59 1 -1.1104 6.79498 7.12898 3.90448
63 1 -1.1104 6.79957 4.47837 1.02943
169 1 -1.1104 6.71901 1.72203 6.75237
57 1 -1.1104 6.73478 7.3375 0.85764
9 1 -1.1104 6.93134 1.56396 3.99175
33 1 -1.1104 12.4604 1.94673 0.997112
35 1 -1.1104 12.4555 1.76642 3.4952
38 2 2.2208 10.9163 3.12364 2.16035
41 1 -1.1104 9.39761 1.64385 0.975852
44 1 -1.1104 9.59756 1.94549 4.02514
46 2 2.2208 8.14187 3.23644 5.23172
84 2 2.2208 10.9261 5.80684 5.15382
86 1 -1.1104 12.2565 7.44679 1.08172
87 1 -1.1104 12.4554 7.3264 3.76182
88 1 -1.1104 12.5846 4.73584 0.399454
92 1 -1.1104 12.6374 4.48244 3.22967
95 2 2.2208 8.24368 5.9974 2.24764
97 1 -1.1104 9.52118 7.54054 3.52747
99 1 -1.1104 9.78638 4.38207 0.670254
102 1 -1.1104 9.56298 4.60322 3.31385
94 1 -1.1104 9.67643 7.44656 0.641412
209 1 -1.1104 9.60787 1.90615 6.78039
266 1 -1.1104 12.6293 4.59269 6.39981
454 2 2.2208 11.1262 8.70873 13.4538
58 1 -1.1104 1.30555 7.22898 3.7414
8885 2 2.2208 -0.356183 -2.47461 8.04137
55 2 2.2208 5.31449 11.5112 5.1408
61 1 -1.1104 1.22841 10.2174 0.741056
66 2 2.2208 5.4869 8.70592 2.30453
68 1 -1.1104 1.0387 10.0652 3.6291
73 2 2.2208 2.53935 11.4889 2.35482
75 2 2.2208 2.63141 8.56606 5.16009
77 1 -1.1104 4.02411 10.3084 0.819895
80 1 -1.1104 3.82151 10.0771 3.8949
107 1 -1.1104 0.995176 12.947 0.892222
113 1 -1.1104 1.38348 13.1302 3.7055
123 1 -1.1104 4.14543 13.1204 0.812069
128 1 -1.1104 4.0924 12.9253 3.57436
70 1 -1.1104 6.68969 9.9547 3.85998
124 1 -1.1104 4.02958 13.2474 6.52116
119 2 2.2208 5.50643 14.3938 2.22364
105 2 2.2208 11.1416 14.4863 8.11682
518 2 2.2208 8.35892 17.0979 13.6714
108 1 -1.1104 1.15741 13.0866 6.2963
149 1 -1.1104 12.5466 16.0738 6.61226
64 1 -1.1104 6.83383 10.042 0.967327
110 1 -1.1104 7.02723 12.9581 0.86549
115 1 -1.1104 6.93342 12.6908 3.83515
85 2 2.2208 10.7889 11.7439 5.00829
89 1 -1.1104 12.6183 10.2704 0.794353
91 2 2.2208 11.1276 8.9662 2.33338
93 1 -1.1104 12.5617 10.1275 3.56518
96 2 2.2208 8.25581 11.5142 2.28803
98 2 2.2208 8.22731 8.67771 5.15652
100 1 -1.1104 9.77127 10.2489 0.807895
103 1 -1.1104 9.57504 10.3746 3.71949
142 1 -1.1104 12.7488 12.9416 0.875661
146 1 -1.1104 12.6766 12.9153 3.64524
153 1 -1.1104 9.87742 12.8935 1.03306
158 1 -1.1104 9.69521 13.0873 3.64153
101 1 -1.1104 9.51073 10.088 6.2465
65 1 -1.1104 6.87428 10.2208 6.64956
90 1 -1.1104 12.4372 10.3692 6.34784
609 2 2.2208 5.36172 6.0067 -0.34318
135 2 2.2208 -0.209134 14.4078 2.35201
118 1 -1.1104 6.65874 15.6329 6.36784
25 2 2.2208 -0.264798 -2.65614 2.28831
552 2 2.2208 8.18203 20.1805 -0.231048
106 2 2.2208 5.50166 17.3985 5.08157
109 1 -1.1104 1.31757 18.7117 1.05636
114 1 -1.1104 1.3977 18.6396 3.62836
116 1 -1.1104 1.50973 15.9496 0.748452
120 2 2.2208 5.43124 20.347 2.57822
121 1 -1.1104 0.90688 15.8801 3.61672
125 1 -1.1104 4.10018 18.825 0.952569
127 2 2.2208 2.66975 17.2482 2.24892
129 1 -1.1104 4.17149 18.7842 3.69548
130 2 2.2208 2.56923 14.4225 5.08651
131 2 2.2208 2.57446 20.2284 5.04175
132 1 -1.1104 4.16908 15.8231 0.720445
134 1 -1.1104 3.99184 15.8986 3.53537
139 1 -1.1104 6.76422 18.5746 3.76916
138 1 -1.1104 6.89852 18.6461 0.859616
126 1 -1.1104 4.06471 19.0671 6.42976
8449 2 2.2208 5.27442 -5.28683 5.36157
9018 2 2.2208 -0.261455 20.016 2.39539
8454 2 2.2208 -0.153979 -5.20825 10.6468
122 1 -1.1104 6.94283 15.7243 3.58373
140 1 -1.1104 6.7648 15.9802 0.895436
150 2 2.2208 11.2534 14.4096 2.33281
141 2 2.2208 11.1094 17.3432 5.1635
144 1 -1.1104 12.3942 18.5131 1.04587
147 1 -1.1104 12.7878 18.6033 3.78274
148 1 -1.1104 12.6388 15.8208 1.03419
151 2 2.2208 10.9245 20.1527 2.3831
152 1 -1.1104 12.5632 15.7749 3.86802
155 1 -1.1104 9.66654 18.8948 1.0274
157 2 2.2208 8.21366 17.2287 2.32484
159 1 -1.1104 9.62558 18.8102 3.98849
160 2 2.2208 8.27094 14.4697 5.06368
161 2 2.2208 8.09155 20.1184 5.29783
162 1 -1.1104 9.595 16.0073 0.883619
164 1 -1.1104 9.78957 15.8394 3.64329
112 1 -1.1104 7.05712 18.356 6.76267
156 1 -1.1104 9.7229 18.6439 6.71091
665 2 2.2208 2.68941 14.4249 -0.417132
201 1 -1.1104 9.69767 18.7062 12.1281
174 1 -1.1104 4.07249 -1.00434 6.71575
166 1 -1.1104 1.17469 -3.84339 6.55134
83 2 2.2208 -0.128673 11.5225 5.15153
175 2 2.2208 5.41941 0.425488 10.8605
176 1 -1.1104 1.27565 -3.86587 12.1391
180 1 -1.1104 1.07486 -3.98931 9.50306
184 1 -1.1104 1.3739 -0.957482 12.1788
186 2 2.2208 5.45681 -2.30913 8.12632
188 1 -1.1104 1.29506 -1.33303 9.44711
190 1 -1.1104 4.18877 -3.91488 12.3347
192 2 2.2208 2.55059 0.24726 8.10002
193 1 -1.1104 3.97336 -3.82442 9.37665
195 2 2.2208 2.64258 -2.65717 10.7812
197 1 -1.1104 4.02412 -1.18492 12.3029
198 1 -1.1104 4.04925 -1.06183 9.50615
189 1 -1.1104 7.05014 -0.868637 9.65233
185 1 -1.1104 6.71273 -0.842394 12.4227
517 2 2.2208 11.2328 14.4906 13.6498
453 2 2.2208 8.46953 6.00556 13.6043
8453 2 2.2208 5.37504 -5.20723 10.9082
207 1 -1.1104 12.3656 -1.13867 6.43663
210 1 -1.1104 9.62686 -0.928561 6.65539
313 2 2.2208 -0.132693 14.3857 7.89228
182 1 -1.1104 6.82326 -3.52501 9.6413
178 1 -1.1104 6.9138 -3.7795 12.496
211 2 2.2208 11.2049 0.313097 10.819
212 1 -1.1104 12.4482 -4.07037 12.1772
214 1 -1.1104 12.5754 -3.58414 9.36848
216 1 -1.1104 12.4622 -1.16483 12.3241
217 2 2.2208 10.9 -2.4454 7.99087
219 1 -1.1104 12.4783 -0.512999 9.082
220 1 -1.1104 9.61295 -3.9058 12.4859
222 2 2.2208 8.32838 0.372459 7.97436
223 1 -1.1104 9.59321 -3.91222 9.69769
225 2 2.2208 8.3535 -2.27501 10.8659
227 1 -1.1104 9.6227 -1.02348 12.2464
228 1 -1.1104 9.89718 -1.14661 9.55627
296 1 -1.1104 7.03636 18.3808 12.3213
455 2 2.2208 8.27843 11.623 13.5998
575 2 2.2208 8.23749 -2.54262 -0.349071
237 1 -1.1104 6.75475 4.67517 6.6282
238 1 -1.1104 3.63486 7.64509 6.76152
9017 2 2.2208 -0.212542 3.20557 8.05141
136 2 2.2208 10.9643 20.3114 7.9492
239 1 -1.1104 3.78513 4.87892 6.43381
235 1 -1.1104 6.57471 7.34052 6.29544
173 1 -1.1104 3.7757 1.87415 6.44265
177 1 -1.1104 1.31005 1.79705 12.2794
181 1 -1.1104 1.3024 1.608 9.36465
187 2 2.2208 5.5259 3.21624 8.24965
191 1 -1.1104 4.1324 1.82265 12.3012
194 1 -1.1104 4.17189 1.73077 9.50662
196 2 2.2208 2.56988 3.2808 11.0572
240 2 2.2208 5.79581 6.08947 10.9299
242 1 -1.1104 1.41391 7.37204 12.1734
244 1 -1.1104 1.1615 7.64673 9.54403
246 1 -1.1104 1.27169 4.69945 12.4134
251 1 -1.1104 1.32388 4.72239 9.54926
255 1 -1.1104 4.60148 7.30021 12.3356
256 2 2.2208 2.47971 6.11136 8.15894
260 1 -1.1104 4.06807 4.69833 12.1769
262 1 -1.1104 3.96371 4.52281 9.41491
258 1 -1.1104 4.08089 7.35758 9.40817
183 1 -1.1104 6.94974 1.70028 9.62149
428 2 2.2208 2.61485 11.6185 13.6558
8858 2 2.2208 -0.159929 17.2782 10.5677
490 2 2.2208 5.44989 20.0171 13.587
315 1 -1.1104 10.0721 16.0264 12.2067
265 1 -1.1104 12.3474 7.45538 6.57363
245 1 -1.1104 7.015 7.36464 9.35122
243 1 -1.1104 7.2511 7.4166 12.2126
248 1 -1.1104 7.14529 4.49864 12.4288
206 1 -1.1104 12.5979 1.85638 6.31196
269 1 -1.1104 9.51491 4.49436 6.55132
179 1 -1.1104 6.79372 1.73817 12.4053
267 1 -1.1104 9.48742 7.10943 6.49351
253 1 -1.1104 6.97808 4.51726 9.5368
213 1 -1.1104 12.5596 1.69365 12.2847
215 1 -1.1104 12.5308 2.0792 9.30257
218 2 2.2208 11.1297 3.13843 7.93951
221 1 -1.1104 9.6729 1.80106 12.2914
224 1 -1.1104 9.65612 1.51999 9.33049
226 2 2.2208 8.34241 3.03067 10.8434
268 1 -1.1104 9.78988 4.29682 9.2994
271 1 -1.1104 9.92646 4.7695 12.1454
273 1 -1.1104 9.82865 7.47608 9.40838
275 2 2.2208 8.10977 6.09765 7.92946
276 2 2.2208 11.2483 6.07061 10.5809
278 1 -1.1104 12.4993 7.4631 12.1912
279 1 -1.1104 12.5081 7.56267 9.3057
280 1 -1.1104 12.5209 4.74219 12.2558
283 1 -1.1104 12.539 4.79751 9.14532
285 1 -1.1104 9.70811 7.51697 12.043
28 2 2.2208 -0.219511 11.6984 10.6321
234 1 -1.1104 0.923472 7.29048 6.68495
78 1 -1.1104 4.08649 10.2546 6.40842
289 1 -1.1104 7.00305 15.9478 9.4582
62 1 -1.1104 1.33435 10.4376 6.59406
241 2 2.2208 5.54435 11.6861 10.7556
247 1 -1.1104 1.51401 9.97838 12.3966
250 2 2.2208 5.45744 8.72111 7.9041
252 1 -1.1104 1.21779 10.4385 9.59541
257 2 2.2208 2.81763 11.7076 7.76348
259 2 2.2208 2.85342 8.83724 10.927
261 1 -1.1104 4.22865 10.362 12.1735
263 1 -1.1104 4.03857 10.3122 9.39462
287 1 -1.1104 4.19087 12.9406 12.2082
294 1 -1.1104 1.26775 13.0161 9.22035
299 1 -1.1104 1.17102 12.8272 12.3621
305 1 -1.1104 4.06083 12.9919 9.41833
9086 2 2.2208 -0.226744 8.88431 8.14704
111 1 -1.1104 6.89449 12.9478 6.61832
154 1 -1.1104 9.63716 13.1821 6.67898
143 1 -1.1104 12.4505 13.222 6.51773
290 1 -1.1104 6.99106 13.1596 9.37387
254 1 -1.1104 6.80539 10.1983 9.44472
297 1 -1.1104 6.9808 13.0767 12.2793
249 1 -1.1104 6.81814 10.3851 12.3639
312 1 -1.1104 9.72265 12.8649 9.42345
264 1 -1.1104 9.49072 10.2068 9.27904
270 1 -1.1104 9.55739 10.3833 12.053
272 2 2.2208 8.32041 8.81371 10.8432
274 2 2.2208 8.16464 11.6482 7.99965
277 2 2.2208 11.0782 11.6458 10.7668
281 1 -1.1104 12.492 10.3719 11.9858
282 2 2.2208 11.0654 8.92763 7.80052
284 1 -1.1104 12.4487 10.2628 9.13351
200 1 -1.1104 9.54025 13.1672 12.3626
49 1 -1.1104 12.5439 12.9995 12.1081
53 1 -1.1104 12.4795 12.9759 9.29576
548 2 2.2208 11.0988 17.1756 -0.353102
311 2 2.2208 8.47166 17.2352 8.19699
302 1 -1.1104 1.228 18.8705 6.77586
117 1 -1.1104 1.24294 16.074 6.63313
8859 2 2.2208 -0.177698 20.2046 8.02418
133 1 -1.1104 4.00084 15.9636 6.59969
295 2 2.2208 5.36243 14.5396 7.99285
288 1 -1.1104 6.74412 18.7415 9.43107
310 2 2.2208 2.49326 14.3632 10.8207
308 1 -1.1104 4.04221 15.7995 12.2198
309 2 2.2208 2.59482 20.0329 10.7893
307 1 -1.1104 1.29352 15.8072 12.2532
304 1 -1.1104 3.9929 16.0445 9.48687
286 1 -1.1104 4.23471 18.5309 12.1527
291 1 -1.1104 1.3614 18.7621 9.27491
292 1 -1.1104 1.39173 15.7737 9.39836
293 2 2.2208 5.26393 20.2855 7.99765
298 1 -1.1104 1.28986 18.5151 12.1125
300 2 2.2208 5.50265 17.2437 10.8014
301 1 -1.1104 3.9875 18.8254 9.33254
303 2 2.2208 2.62314 17.4929 7.88145
306 1 -1.1104 6.89296 15.7343 12.1776
81 1 -1.1104 12.5592 18.7669 9.51421
82 1 -1.1104 12.8503 15.7243 12.1735
145 1 -1.1104 12.4438 18.9068 6.71771
163 1 -1.1104 9.65416 16.0226 6.69609
232 1 -1.1104 9.90263 18.5036 9.43857
233 2 2.2208 8.25225 14.4908 10.8506
30 2 2.2208 11.2811 17.2803 10.8008
314 1 -1.1104 9.79852 15.8552 9.63128
50 1 -1.1104 12.4545 18.503 12.3801
199 1 -1.1104 12.6464 16.0047 9.31663
316 2 2.2208 8.2581 20.0467 10.9786
8452 2 2.2208 2.54406 -5.25624 8.1883
491 2 2.2208 5.46038 14.4665 13.566
8455 2 2.2208 8.0965 -5.21813 8.39617
392 2 2.2208 11.1737 3.34207 13.558
663 2 2.2208 2.69123 20.0446 -0.421529
516 2 2.2208 10.9729 20.0386 13.5845
317 2 2.2208 5.37529 0.339563 16.698
318 1 -1.1104 1.05651 -3.87977 18.0794
322 1 -1.1104 1.03683 -3.7059 15.0974
330 1 -1.1104 1.04365 -0.98302 17.9251
332 2 2.2208 5.3845 -2.51055 19.3262
334 1 -1.1104 1.07019 -1.04286 15.0515
338 1 -1.1104 3.99753 -3.76351 18.1169
340 2 2.2208 2.6189 0.274328 19.3366
341 1 -1.1104 3.97569 -3.90125 15.1922
345 2 2.2208 2.49596 -2.28612 16.56
347 1 -1.1104 3.75016 -0.862133 17.9067
348 1 -1.1104 4.02378 -1.2319 15.1299
331 1 -1.1104 6.48084 -1.12784 18.1755
349 1 -1.1104 3.99367 -1.24342 20.7761
327 1 -1.1104 6.68157 -4.03559 20.8518
337 1 -1.1104 6.74415 -1.0804 20.7974
335 1 -1.1104 1.14528 -1.06744 20.701
323 1 -1.1104 1.20592 -3.8096 21.0096
9226 2 2.2208 0.00567808 3.15581 13.7149
634 2 2.2208 11.0217 6.10809 27.5617
9184 2 2.2208 -0.374179 -2.59576 25.0131
326 1 -1.1104 6.55078 -3.99071 15.1098
336 1 -1.1104 6.91834 -1.32302 15.107
320 1 -1.1104 6.84583 -3.78319 17.7653
360 2 2.2208 10.9732 0.21574 16.3342
361 1 -1.1104 12.4814 -3.88159 17.8551
363 1 -1.1104 12.4099 -4.14928 15.0085
367 1 -1.1104 12.4656 -1.27492 17.9345
368 2 2.2208 10.9499 -2.37146 19.2578
370 1 -1.1104 12.4848 -1.09971 15.1049
372 1 -1.1104 9.62999 -3.9756 17.8912
374 2 2.2208 8.388 0.437302 19.3006
375 1 -1.1104 9.69928 -3.98886 15.2156
379 2 2.2208 8.22478 -2.53314 16.4827
381 1 -1.1104 9.50926 -1.0079 17.8573
382 1 -1.1104 9.73018 -1.23922 15.07
9219 2 2.2208 0.0261608 0.23125 27.6979
364 1 -1.1104 12.0503 -3.85939 20.5504
376 1 -1.1104 9.51084 -3.71065 20.8071
554 2 2.2208 -0.25409 0.05377 22.1138
371 1 -1.1104 12.4313 -1.0138 20.7125
549 2 2.2208 -0.0516514 11.6827 16.3572
354 2 2.2208 -0.221134 -2.48332 19.387
8833 2 2.2208 8.1507 -5.22832 13.7446
319 1 -1.1104 1.43483 1.74491 17.8311
324 1 -1.1104 1.0984 1.5704 15.1282
333 2 2.2208 5.47966 3.27281 19.2443
339 1 -1.1104 4.09312 1.98188 17.7735
343 1 -1.1104 4.04922 1.57929 15.1219
346 2 2.2208 2.69628 3.14084 16.4857
393 2 2.2208 5.65237 5.95683 16.4037
395 1 -1.1104 1.18603 7.46796 17.6878
397 1 -1.1104 1.27739 7.48854 15.1054
401 1 -1.1104 1.33062 4.54285 17.7895
406 1 -1.1104 1.44918 4.55124 15.1591
415 2 2.2208 2.74845 6.12475 19.1657
420 1 -1.1104 4.07924 4.82609 17.7256
422 1 -1.1104 4.43098 4.46351 14.9436
414 1 -1.1104 4.11719 7.47008 18.049
321 1 -1.1104 6.92025 1.50777 17.9009
417 1 -1.1104 4.20067 7.29639 15.0843
418 1 -1.1104 4.06436 7.6384 20.8697
325 1 -1.1104 1.21098 1.60796 20.586
407 1 -1.1104 1.14826 4.5638 20.5766
387 2 2.2208 -0.134009 6.03985 16.2241
580 2 2.2208 -0.238742 3.11541 19.257
545 2 2.2208 2.62685 -2.59634 27.7878
403 1 -1.1104 6.92367 4.40244 17.8064
328 1 -1.1104 6.80485 1.68701 15.1401
410 1 -1.1104 7.21384 4.72038 15.1967
396 1 -1.1104 6.94028 7.37765 17.9195
400 1 -1.1104 6.59987 7.39695 20.6295
399 1 -1.1104 7.01949 7.56172 14.9967
362 1 -1.1104 12.5278 1.56048 17.7351
365 1 -1.1104 12.5276 1.69894 15.0615
369 2 2.2208 11.2513 3.03267 19.1782
373 1 -1.1104 9.79179 1.62916 17.8988
377 1 -1.1104 9.68744 1.57497 15.039
380 2 2.2208 8.2788 3.1399 16.4506
429 2 2.2208 11.1137 6.02352 16.4644
431 1 -1.1104 12.4377 7.21414 17.7866
432 1 -1.1104 12.6185 7.32778 15.0413
434 1 -1.1104 12.5788 4.53941 17.7871
437 1 -1.1104 12.4965 4.64596 15.0792
441 1 -1.1104 9.61476 7.31609 17.9452
442 2 2.2208 8.12284 6.10233 19.2979
444 1 -1.1104 9.79027 7.32064 15.179
447 1 -1.1104 9.86334 4.31705 17.9081
449 1 -1.1104 9.75936 4.41943 15.0015
329 1 -1.1104 6.80867 1.84274 20.7631
438 1 -1.1104 12.2179 4.38141 20.6115
433 1 -1.1104 12.5538 7.15754 20.6397
450 1 -1.1104 9.22445 4.46446 20.8324
378 1 -1.1104 9.59213 1.69898 20.9961
366 1 -1.1104 12.4328 1.73072 20.7381
445 1 -1.1104 9.72417 7.4234 20.7652
394 2 2.2208 5.53076 11.7556 16.3589
402 1 -1.1104 1.12744 10.31 17.9185
405 2 2.2208 5.41545 8.99675 19.2289
408 1 -1.1104 1.48902 10.2712 15.0054
416 2 2.2208 2.64358 11.6062 19.3505
419 2 2.2208 2.66828 8.8301 16.4986
421 1 -1.1104 3.8635 10.3054 17.8343
424 1 -1.1104 4.13653 10.093 15.1654
457 1 -1.1104 1.35095 13.0529 17.8753
461 1 -1.1104 1.31754 13.0949 15.1801
477 1 -1.1104 4.15802 13.1611 17.8607
480 1 -1.1104 4.01398 13.04 14.8982
425 1 -1.1104 3.95959 10.4128 20.836
462 1 -1.1104 1.34527 13.1148 20.7104
664 2 2.2208 5.47895 17.3393 27.712
635 2 2.2208 8.2308 8.92495 27.7143
8524 2 2.2208 11.0148 -5.15191 22.2217
427 2 2.2208 5.64721 8.98913 13.694
465 1 -1.1104 6.81289 13.0087 15.0635
412 1 -1.1104 7.06951 10.2455 15.1579
459 1 -1.1104 6.6386 12.9771 17.9949
404 1 -1.1104 6.97891 10.255 17.789
430 2 2.2208 11.0949 11.4754 16.3801
435 1 -1.1104 12.5558 10.1937 17.7613
436 2 2.2208 11.0612 8.75198 19.2368
439 1 -1.1104 12.5596 10.0552 14.8848
443 2 2.2208 8.0971 11.6154 19.2552
446 2 2.2208 8.29577 8.80155 16.5704
448 1 -1.1104 9.61586 10.2991 17.8339
451 1 -1.1104 9.79619 10.0812 14.891
493 1 -1.1104 12.6839 13.0473 17.761
495 1 -1.1104 12.4099 13.1126 15.0565
504 1 -1.1104 9.76696 13.2317 17.6862
507 1 -1.1104 9.67968 12.8254 14.8962
440 1 -1.1104 12.5262 10.26 20.3865
508 1 -1.1104 9.94541 12.7222 20.2007
683 1 -1.1104 12.5871 15.9411 23.5385
658 1 -1.1104 6.86067 15.8804 23.533
553 2 2.2208 11.0931 17.339 22.0675
515 1 -1.1104 9.72721 15.6039 20.645
471 2 2.2208 5.55174 14.4875 19.3019
484 2 2.2208 2.73008 14.4159 16.5149
456 2 2.2208 5.48293 17.2282 16.5212
458 1 -1.1104 1.24962 18.7988 17.796
463 1 -1.1104 1.03891 18.6503 14.9728
469 1 -1.1104 1.04231 15.7626 17.6329
472 2 2.2208 5.45959 20.0686 19.2751
473 1 -1.1104 1.25702 15.7927 14.9235
478 1 -1.1104 4.18529 18.8465 17.6541
479 2 2.2208 2.48013 17.3625 19.1946
482 1 -1.1104 4.1379 18.6994 14.9675
485 2 2.2208 2.64881 20.0765 16.335
486 1 -1.1104 3.92849 16.0807 18.0641
487 1 -1.1104 3.92223 15.9313 15.0423
460 1 -1.1104 6.82791 18.7299 17.7475
352 2 2.2208 -0.246839 14.399 19.1738
9366 2 2.2208 -0.273938 17.2223 16.3325
647 1 -1.1104 6.7177 18.7195 23.4969
9364 2 2.2208 -0.345584 20.153 19.1187
555 2 2.2208 -0.191593 2.99133 24.9034
547 2 2.2208 8.28296 14.5421 27.779
673 2 2.2208 8.25944 14.4934 22.1837
475 1 -1.1104 6.59811 15.7983 15.1031
467 1 -1.1104 6.99742 18.5877 15.0699
470 1 -1.1104 6.86915 15.9156 17.6708
468 1 -1.1104 6.85042 18.7423 20.6679
492 2 2.2208 11.1343 17.1592 16.5948
494 1 -1.1104 12.4167 18.7592 17.8117
497 1 -1.1104 12.5257 18.7216 15.0193
499 1 -1.1104 12.7221 15.8657 17.748
500 2 2.2208 11.0506 14.4006 19.0696
501 2 2.2208 11.1079 20.1195 19.4369
502 1 -1.1104 12.6391 15.8045 15.0112
505 1 -1.1104 9.72256 18.6391 17.7262
506 2 2.2208 8.11088 17.3634 19.1069
509 1 -1.1104 9.84313 18.3442 15.1085
511 2 2.2208 8.29247 14.3422 16.3364
512 2 2.2208 8.30593 19.9849 16.3879
513 1 -1.1104 9.61644 15.8392 17.771
514 1 -1.1104 9.69951 15.6008 14.9451
8525 2 2.2208 10.9339 -5.28361 27.759
671 1 -1.1104 9.85395 15.8835 23.6352
498 1 -1.1104 12.3739 18.7467 20.7231
670 1 -1.1104 9.77798 15.77 26.4104
342 1 -1.1104 3.92414 -3.99509 20.8422
680 1 -1.1104 12.6159 15.8652 26.3202
520 2 2.2208 5.56182 0.451975 22.1358
521 1 -1.1104 1.02823 -4.13988 23.6339
525 1 -1.1104 1.36826 -3.83487 26.1647
529 1 -1.1104 1.34306 -1.42803 23.624
531 2 2.2208 5.41282 -2.54745 25.1078
533 1 -1.1104 1.13254 -1.18676 26.24
535 1 -1.1104 4.15776 -3.94979 23.7
537 2 2.2208 2.62114 0.208232 24.8663
538 1 -1.1104 4.16178 -3.86172 26.7309
540 2 2.2208 2.75099 -2.52989 22.2362
542 1 -1.1104 4.23671 -1.11421 23.6539
543 1 -1.1104 3.97815 -1.04457 26.2704
527 1 -1.1104 6.8351 -4.01897 26.6423
530 1 -1.1104 6.80983 -0.99636 23.4808
510 1 -1.1104 9.5433 18.6229 20.4874
676 1 -1.1104 6.80889 18.8493 26.3849
615 2 2.2208 -0.255955 5.89827 27.6623
357 2 2.2208 5.23404 -2.54356 13.6876
389 2 2.2208 -0.340897 8.77764 19.1915
523 1 -1.1104 7.03283 -3.89148 23.8552
534 1 -1.1104 6.78754 -1.19283 26.62
383 1 -1.1104 9.52182 -0.948136 20.758
556 2 2.2208 11.2269 0.304175 22.2489
557 1 -1.1104 12.5303 -3.91325 23.467
559 1 -1.1104 12.5532 -3.85991 26.2692
561 1 -1.1104 12.5999 -1.18533 23.2718
562 2 2.2208 11.1013 -2.51024 24.9807
564 1 -1.1104 12.6227 -0.914972 26.2566
565 1 -1.1104 9.7116 -3.73949 23.579
567 2 2.2208 8.27872 0.480468 24.9196
568 1 -1.1104 9.55181 -4.2679 26.3098
570 2 2.2208 8.11223 -2.47885 22.2137
572 1 -1.1104 9.81912 -0.833191 23.8529
573 1 -1.1104 9.67251 -1.36449 26.4956
678 1 -1.1104 9.69504 18.7081 23.6271
672 2 2.2208 8.23254 19.9593 22.1095
681 2 2.2208 10.9773 20.1542 24.8816
344 1 -1.1104 3.98968 1.89601 20.553
398 1 -1.1104 1.31575 7.5542 20.4483
423 1 -1.1104 4.04747 4.79012 20.4519
350 2 2.2208 -0.135475 6.12691 21.9371
426 2 2.2208 2.75534 6.079 13.6601
9371 2 2.2208 -0.0816404 0.270062 16.4828
522 1 -1.1104 1.35506 1.64371 23.2814
526 1 -1.1104 1.1433 1.53082 26.2229
532 2 2.2208 5.19374 3.13446 25.0432
536 1 -1.1104 3.97607 1.92487 23.3962
539 1 -1.1104 3.98532 1.69323 26.0942
541 2 2.2208 2.58852 3.16199 22.0008
585 2 2.2208 5.36132 5.95674 22.0786
587 1 -1.1104 1.22124 7.57637 23.1903
591 1 -1.1104 1.2775 4.59098 23.5218
596 1 -1.1104 1.14235 4.42485 26.2851
601 2 2.2208 2.42081 5.99046 24.7616
603 1 -1.1104 4.06198 7.32999 26.491
605 1 -1.1104 3.92084 4.47629 23.4482
607 1 -1.1104 3.80948 4.50446 26.4129
589 1 -1.1104 1.05832 7.29291 26.3498
600 1 -1.1104 3.96301 7.26049 23.7155
524 1 -1.1104 6.95792 1.73999 23.6248
669 1 -1.1104 12.5175 18.7618 23.4026
643 1 -1.1104 6.94606 15.9393 26.296
411 1 -1.1104 6.60772 4.68303 20.5683
593 1 -1.1104 6.5662 4.53659 23.6972
598 1 -1.1104 6.68549 4.55343 26.4528
528 1 -1.1104 6.72973 1.80424 26.3093
590 1 -1.1104 6.77637 7.22976 26.4959
588 1 -1.1104 6.81639 7.23313 23.717
558 1 -1.1104 12.6208 1.58371 23.6126
560 1 -1.1104 12.4606 1.89461 26.4433
563 2 2.2208 11.0845 3.08863 24.9386
566 1 -1.1104 9.65426 1.66335 23.6239
569 1 -1.1104 9.51916 1.8628 26.4134
571 2 2.2208 8.10374 3.05071 22.199
617 1 -1.1104 9.51754 4.44643 26.2481
619 1 -1.1104 9.54627 4.60618 23.3418
621 1 -1.1104 9.578 7.29474 26.0325
623 2 2.2208 8.13193 5.84425 24.9936
624 2 2.2208 10.9753 5.7784 22.0876
627 1 -1.1104 12.4805 7.5069 26.5323
628 1 -1.1104 12.3145 4.3794 23.2695
631 1 -1.1104 12.673 4.78927 25.895
633 1 -1.1104 9.60195 7.73057 23.4941
626 1 -1.1104 12.3876 7.21227 23.3915
636 2 2.2208 11.2028 11.4839 27.7162
481 1 -1.1104 4.1848 13.0905 20.6417
409 1 -1.1104 1.01697 10.2214 20.7153
613 2 2.2208 -0.13782 8.7712 24.6908
657 1 -1.1104 4.12146 12.9496 26.3624
586 2 2.2208 5.5367 11.6121 22.1162
592 1 -1.1104 1.15608 10.3975 23.345
595 2 2.2208 5.30886 8.68604 25.041
597 1 -1.1104 1.30956 10.0361 26.2741
602 2 2.2208 2.61602 11.7025 25.0104
604 2 2.2208 2.59332 9.10953 21.9253
606 1 -1.1104 3.91987 10.0386 23.5183
608 1 -1.1104 3.94593 10.1686 26.3152
652 1 -1.1104 1.29864 13.125 23.3737
642 1 -1.1104 4.18931 12.8876 23.5651
646 1 -1.1104 1.25792 13.1397 26.213
649 2 2.2208 5.5757 14.4517 24.9862
614 2 2.2208 -0.410865 11.6298 22.0189
684 1 -1.1104 12.529 18.6924 26.3253
496 1 -1.1104 12.5932 13.242 20.5496
413 1 -1.1104 6.8045 10.0168 20.5288
466 1 -1.1104 7.15074 13.2186 20.7616
452 1 -1.1104 9.54645 10.0931 20.642
650 1 -1.1104 7.0089 13.095 23.5472
641 1 -1.1104 6.88369 13.2232 26.279
599 1 -1.1104 7.00369 10.1522 26.267
594 1 -1.1104 7.00075 10.1767 23.4951
685 1 -1.1104 12.4541 12.9392 26.1348
679 1 -1.1104 9.82262 13.16 23.1495
637 1 -1.1104 12.4639 13.1449 23.4076
675 1 -1.1104 9.7778 13.189 26.1741
616 1 -1.1104 9.62065 10.2834 26.2812
618 1 -1.1104 9.88536 10.4776 23.5537
620 2 2.2208 8.14706 8.79808 22.1969
622 2 2.2208 8.45231 11.7694 24.78
625 2 2.2208 11.0294 11.5758 21.8823
629 1 -1.1104 12.6403 10.1466 23.1294
630 2 2.2208 11.1748 8.59787 24.9204
632 1 -1.1104 12.426 10.2176 26.1199
674 1 -1.1104 9.55879 18.9601 26.4443
9177 2 2.2208 -0.227283 17.2793 22.0004
483 1 -1.1104 4.0629 18.5441 20.4891
474 1 -1.1104 1.06534 15.8936 20.5862
488 1 -1.1104 3.93644 15.7257 20.6607
464 1 -1.1104 1.23291 18.6463 20.6866
668 2 2.2208 -0.130524 20.2561 24.7867
660 1 -1.1104 3.93484 15.889 23.4811
659 1 -1.1104 1.12039 15.8669 23.5028
656 1 -1.1104 4.16719 15.8707 26.2933
655 2 2.2208 2.59407 17.3393 24.9184
654 1 -1.1104 3.91353 18.7764 26.3832
653 2 2.2208 5.39021 17.3365 21.9775
651 1 -1.1104 1.13669 18.7402 23.3855
662 2 2.2208 2.65512 14.4702 21.9677
661 2 2.2208 2.56031 20.0491 21.9143
640 1 -1.1104 3.95797 18.7215 23.3483
644 1 -1.1104 1.14173 18.7987 26.2624
645 1 -1.1104 1.18945 16.0662 25.9959
648 2 2.2208 5.41255 20.1277 24.7768
503 1 -1.1104 12.4743 15.9512 20.7439
666 2 2.2208 -0.144715 14.598 24.8862
682 2 2.2208 11.0308 14.3939 24.79
677 2 2.2208 8.27907 17.2813 24.8197
476 1 -1.1104 6.86918 15.8251 20.5837
8832 2 2.2208 8.20373 -5.05317 19.4276
359 2 2.2208 5.68398 3.07781 13.6985
17634 2 2.2208 -0.231393 -5.21761 22.0723
355 2 2.2208 -0.365139 -2.50883 13.708
390 2 2.2208 8.37263 0.399265 13.7576
8829 2 2.2208 2.53553 -5.25876 13.7841
667 2 2.2208 -0.172275 17.1617 27.5397
612 2 2.2208 -0.192086 11.4538 27.5576
574 2 2.2208 11.0917 0.270218 27.6621
391 2 2.2208 11.1891 -2.62261 13.7295
546 2 2.2208 2.57185 2.96137 27.5814
544 2 2.2208 5.50553 0.287364 27.7948
610 2 2.2208 2.50116 8.69732 27.6956
576 2 2.2208 8.22164 3.10395 27.7627
9368 2 2.2208 -0.238661 20.1079 13.7641
358 2 2.2208 2.74253 0.235355 13.6683
489 2 2.2208 2.77063 17.2843 13.665
611 2 2.2208 5.43416 11.5897 27.6957
9367 2 2.2208 -0.0861387 14.5784 13.7235
689 2 2.2208 5.43109 22.9438 5.04983
691 1 -1.1104 1.24826 24.4095 0.894673
692 1 -1.1104 1.08308 24.5723 3.72788
693 1 -1.1104 1.01751 21.4075 1.10283
695 2 2.2208 5.45503 25.8793 2.35281
696 1 -1.1104 1.31309 21.7098 3.67483
698 1 -1.1104 3.93923 24.2714 0.834606
699 2 2.2208 2.56495 22.965 2.37555
701 1 -1.1104 4.08145 24.4247 3.66611
702 2 2.2208 2.48557 25.9185 5.06695
703 1 -1.1104 3.91651 21.6523 1.14405
705 1 -1.1104 4.02826 21.4237 3.94505
694 1 -1.1104 1.23504 27.1368 0.797424
706 1 -1.1104 3.9526 27.1223 3.80522
697 1 -1.1104 1.14492 27.3372 3.61696
838 1 -1.1104 3.89987 26.9468 6.71209
832 1 -1.1104 0.937307 21.6353 6.3038
714 1 -1.1104 6.88681 21.8143 3.71495
1374 1 -1.1104 12.1263 46.7615 0.864354
836 1 -1.1104 3.98559 24.2585 6.75623
1144 2 2.2208 5.27971 42.5877 13.5088
9804 2 2.2208 -0.215704 23.2255 5.01036
1317 2 2.2208 -0.259222 39.9209 -0.431996
712 1 -1.1104 6.73813 21.4559 1.03783
715 1 -1.1104 6.76185 27.1827 3.65244
710 1 -1.1104 6.76843 24.2312 0.935804
711 1 -1.1104 6.88234 24.4866 3.62858
713 1 -1.1104 6.97442 27.3003 0.885695
716 2 2.2208 11.0464 23.0477 5.27785
718 1 -1.1104 12.4543 24.328 0.973272
719 1 -1.1104 12.594 24.3453 3.79355
720 1 -1.1104 12.3598 21.3842 0.973875
722 2 2.2208 11.0642 25.8776 2.34386
723 1 -1.1104 12.3113 21.4845 3.88175
724 1 -1.1104 12.25 27.2205 3.935
725 1 -1.1104 9.63053 24.453 0.948348
726 2 2.2208 8.30064 23.2003 2.35987
728 1 -1.1104 9.83969 24.6271 3.71347
729 2 2.2208 8.08005 25.9726 5.14732
730 1 -1.1104 9.53071 21.7114 0.985428
732 1 -1.1104 9.41569 21.6969 3.80435
733 1 -1.1104 9.71529 27.4254 3.8435
731 1 -1.1104 9.41465 27.1909 1.14679
866 1 -1.1104 9.59526 24.4613 6.44183
863 1 -1.1104 12.359 24.4008 6.55126
721 1 -1.1104 12.3374 27.0784 0.948659
1177 2 2.2208 8.11198 42.5875 -0.29374
1532 1 -1.1104 0.846752 46.7284 12.125
704 1 -1.1104 3.85342 27.2923 0.951693
760 2 2.2208 -0.286501 36.923 2.35552
690 2 2.2208 5.46689 28.5888 5.11336
700 2 2.2208 2.45128 28.7144 2.18937
738 1 -1.1104 1.02297 30.0444 0.828268
741 1 -1.1104 0.961446 30.1529 3.76558
744 1 -1.1104 1.16506 32.7832 0.898641
745 2 2.2208 5.31006 31.4049 2.40181
747 1 -1.1104 1.1058 32.8288 3.82739
749 1 -1.1104 3.93175 30.0667 0.831651
752 1 -1.1104 3.98014 30.1515 3.74421
754 2 2.2208 2.45919 31.5025 5.25551
756 1 -1.1104 3.98232 32.7423 0.982462
757 1 -1.1104 3.83965 33.0438 3.9268
886 1 -1.1104 1.227 32.6705 6.56702
884 1 -1.1104 6.72366 30.0054 6.80705
1025 2 2.2208 2.60422 23.0093 13.6152
979 2 2.2208 8.0541 45.6341 7.90756
888 1 -1.1104 3.87884 29.8024 6.47693
890 1 -1.1104 4.05634 32.6787 6.68712
882 1 -1.1104 1.11523 29.9076 6.74346
762 1 -1.1104 6.67191 29.9877 3.85527
748 1 -1.1104 6.63208 32.8211 3.84782
763 1 -1.1104 6.60465 32.6006 0.885549
761 1 -1.1104 6.63486 29.9616 1.16981
717 2 2.2208 11.076 28.7328 5.23234
727 2 2.2208 8.32915 28.5405 2.42742
765 1 -1.1104 12.2378 29.7255 1.01081
767 1 -1.1104 12.6938 29.893 3.91821
769 1 -1.1104 12.3996 32.6376 0.786902
770 2 2.2208 10.9561 31.3735 2.27101
772 1 -1.1104 12.5116 32.8881 3.49794
773 1 -1.1104 9.50528 29.8498 0.918922
776 1 -1.1104 9.61117 30.1352 3.77657
778 2 2.2208 8.00777 31.3287 5.32299
780 1 -1.1104 9.58264 32.6735 1.0385
781 1 -1.1104 9.74883 32.8952 3.709
919 1 -1.1104 9.53007 30.2078 6.63445
921 1 -1.1104 9.4384 32.8791 6.54808
887 1 -1.1104 6.73571 32.8882 6.75983
1175 2 2.2208 8.23712 40.0849 13.5506
9702 2 2.2208 13.5888 34.1019 8.08578
1316 2 2.2208 5.3303 39.8611 -0.292901
1176 2 2.2208 10.7881 42.8846 13.4557
737 2 2.2208 5.3992 34.2625 5.20153
739 1 -1.1104 1.16308 35.8361 0.982387
742 1 -1.1104 1.21915 35.7836 3.7053
746 2 2.2208 5.63325 37.0198 2.53745
750 1 -1.1104 4.05695 35.3674 0.779145
751 2 2.2208 2.56084 34.1737 2.2249
753 1 -1.1104 3.93077 35.7538 3.57701
755 2 2.2208 2.58081 37.154 5.12993
783 2 2.2208 5.43326 39.8099 5.2022
789 1 -1.1104 1.17672 38.4688 0.925066