ITEM: TIMESTEP
40000
ITEM: NUMBER OF ATOMS
17640
ITEM: BOX BOUNDS pp pp pp
-4.4139501135469505e-01 2.7781395011354540e+01
-5.3297509448943057e+00 3.3340975094489255e+02
-4.3327922627098725e-01 2.7773279226271182e+01
ITEM: ATOMS id type q x y z
1 2 2.2208 4.96313 0.0863036 5.31976
2 1 -1.1104 0.784971 -3.7498 1.03605
6 1 -1.1104 0.817485 -3.74938 4.03347
10 1 -1.1104 0.762412 -0.975015 1.17961
12 2 2.2208 5.08512 -2.43856 2.31843
14 1 -1.1104 0.85437 -1.05443 3.88049
16 1 -1.1104 3.75466 -3.74204 1.13906
18 2 2.2208 2.02127 0.296886 2.48318
19 1 -1.1104 3.5201 -3.89323 4.05827
21 2 2.2208 2.29477 -2.48668 5.29941
23 1 -1.1104 3.25251 -1.01473 1.0103
24 1 -1.1104 3.81714 -1.31356 3.95565
15 1 -1.1104 6.4353 -1.3703 3.80931
4 1 -1.1104 6.34307 -3.91047 0.953043
11 1 -1.1104 6.287 -1.09467 1.09969
172 1 -1.1104 3.69607 -4.10761 6.76007
8 1 -1.1104 6.56679 -4.07558 3.68003
8452 2 2.2208 2.14604 -5.37859 7.87727
174 1 -1.1104 3.69352 -1.17277 6.88355
168 1 -1.1104 6.55269 -4.17688 6.50591
171 1 -1.1104 6.35058 -1.24552 6.74838
17273 2 2.2208 13.4764 -5.22784 2.18424
230 2 2.2208 13.5677 -2.50648 10.9733
52 2 2.2208 13.4313 5.81275 8.2119
31 2 2.2208 10.6435 0.0961556 5.18492
32 1 -1.1104 11.9434 -3.79132 1.07933
34 1 -1.1104 12.3127 -4.16413 3.94957
36 1 -1.1104 11.8941 -0.967418 1.05686
37 2 2.2208 10.4425 -2.37704 2.36793
39 1 -1.1104 11.9783 -1.39879 3.85409
40 1 -1.1104 9.0387 -3.82016 1.01113
42 2 2.2208 7.73475 0.275966 2.41383
43 1 -1.1104 9.42428 -4.04823 3.70581
45 2 2.2208 7.83716 -2.67836 5.173
47 1 -1.1104 9.06861 -1.0582 0.946313
48 1 -1.1104 9.17267 -1.24129 4.07753
9151 2 2.2208 13.5631 0.320457 2.72946
8457 2 2.2208 13.4747 -5.42297 8.24535
202 2 2.2208 13.6092 14.4523 5.30858
205 1 -1.1104 12.0361 -3.9804 6.70862
207 1 -1.1104 12.2009 -1.14391 6.64177
210 1 -1.1104 9.50363 -1.50283 6.68314
163 1 -1.1104 9.11723 15.9751 6.78128
8992 2 2.2208 13.2704 2.89158 10.8153
3 1 -1.1104 0.96428 1.53459 0.731384
7 1 -1.1104 0.521353 1.57641 3.88419
13 2 2.2208 4.9953 3.01181 2.59563
17 1 -1.1104 3.82528 1.85197 1.18718
20 1 -1.1104 3.31034 1.40628 3.82031
22 2 2.2208 2.035 3.03222 5.28089
54 2 2.2208 4.8083 6.03444 5.27368
56 1 -1.1104 0.810548 7.28274 0.893472
60 1 -1.1104 0.670637 4.46441 1.10794
67 1 -1.1104 0.65206 4.61816 3.80544
72 2 2.2208 2.05887 5.82217 2.27509
74 1 -1.1104 3.60464 7.31776 3.69555
76 1 -1.1104 3.51528 4.35806 0.999893
79 1 -1.1104 3.39388 4.28571 3.85261
71 1 -1.1104 3.54079 7.28197 0.988044
58 1 -1.1104 0.619702 7.36233 3.80129
69 1 -1.1104 6.32846 4.47614 3.92292
9 1 -1.1104 6.20747 1.5095 3.83748
57 1 -1.1104 6.36539 7.47297 1.14273
63 1 -1.1104 6.29752 4.3309 1.2211
167 1 -1.1104 0.470939 1.75575 6.63852
59 1 -1.1104 6.35888 7.22034 4.07441
576 2 2.2208 7.88008 3.09142 -0.414857
236 1 -1.1104 0.851178 4.56559 6.68342
169 1 -1.1104 6.3479 1.49119 6.57682
81 1 -1.1104 12.1271 18.763 9.48228
5 1 -1.1104 6.62046 1.56001 1.06812
33 1 -1.1104 12.288 1.8108 1.38009
35 1 -1.1104 12.0842 1.64505 4.06316
38 2 2.2208 10.7453 3.13029 2.37898
41 1 -1.1104 9.38427 1.72894 1.0552
44 1 -1.1104 9.24792 1.59149 3.79256
46 2 2.2208 7.65543 2.95502 5.29389
84 2 2.2208 10.5582 5.8521 5.33226
86 1 -1.1104 11.9908 7.31943 1.17863
87 1 -1.1104 11.9832 7.20297 3.9749
88 1 -1.1104 12.0143 4.49471 0.913773
92 1 -1.1104 11.9628 4.3873 3.62857
95 2 2.2208 7.64444 5.85035 2.47079
97 1 -1.1104 9.3211 7.27099 3.74991
99 1 -1.1104 9.27303 4.85061 1.17605
102 1 -1.1104 9.06552 4.4022 4.0143
94 1 -1.1104 9.11747 7.63938 1.04787
9052 2 2.2208 13.4912 5.98605 2.51045
265 1 -1.1104 12.0426 7.2198 6.67663
9119 2 2.2208 13.4143 20.1974 10.9578
55 2 2.2208 5.02468 11.717 5.22002
61 1 -1.1104 0.814961 10.3861 0.905614
66 2 2.2208 4.94244 8.76462 2.44493
68 1 -1.1104 0.842849 10.121 3.74223
73 2 2.2208 2.41707 11.595 2.32228
75 2 2.2208 2.13796 8.75654 5.2893
77 1 -1.1104 3.50065 10.1708 0.973132
80 1 -1.1104 3.66904 10.1352 3.7736
107 1 -1.1104 0.801719 12.9784 1.05563
113 1 -1.1104 1.00344 12.914 3.74561
123 1 -1.1104 3.80056 12.8828 0.990952
128 1 -1.1104 3.62736 12.9962 3.67732
124 1 -1.1104 3.58231 13.0531 6.41478
110 1 -1.1104 6.31836 13.3804 0.980664
70 1 -1.1104 6.5995 10.1477 3.95244
115 1 -1.1104 6.61578 12.9383 4.0442
8448 2 2.2208 2.21189 -5.15365 2.52714
8450 2 2.2208 7.84264 -5.23369 2.39216
78 1 -1.1104 3.70373 10.323 6.45538
203 2 2.2208 13.4604 20.1129 5.12229
204 2 2.2208 13.4294 8.65881 5.38585
64 1 -1.1104 6.26415 10.5673 1.37355
85 2 2.2208 10.878 11.5733 5.29717
89 1 -1.1104 11.9408 10.1303 0.901849
91 2 2.2208 10.6346 8.5893 2.49376
93 1 -1.1104 12.2293 10.1643 3.85567
96 2 2.2208 7.91976 11.8052 2.64717
98 2 2.2208 7.90055 8.90245 5.29074
100 1 -1.1104 9.2451 10.4864 1.24252
103 1 -1.1104 9.56281 9.98397 4.03173
142 1 -1.1104 12.0968 13.1802 1.28232
146 1 -1.1104 12.1824 12.9915 3.95192
153 1 -1.1104 9.25105 12.9406 1.04263
158 1 -1.1104 9.38531 13.1907 3.86625
154 1 -1.1104 9.45508 12.862 6.42378
231 2 2.2208 13.3503 3.21133 5.27468
8453 2 2.2208 5.10885 -5.34907 10.8697
145 1 -1.1104 12.0545 18.6728 6.53027
119 2 2.2208 4.86837 14.4995 2.31059
106 2 2.2208 5.11382 17.3219 5.13519
109 1 -1.1104 0.580191 18.8259 1.21033
114 1 -1.1104 0.813606 18.6315 3.82881
116 1 -1.1104 0.773592 16.0654 0.95808
120 2 2.2208 5.03792 20.1638 2.33043
121 1 -1.1104 0.66303 15.6883 3.73672
125 1 -1.1104 3.50684 18.8552 1.2827
127 2 2.2208 2.09235 17.2975 2.437
129 1 -1.1104 3.56578 18.7439 4.01986
130 2 2.2208 2.13677 14.5466 5.17237
131 2 2.2208 2.07436 19.9457 5.37198
132 1 -1.1104 3.68584 15.771 0.989902
134 1 -1.1104 3.58081 16.2506 3.82165
140 1 -1.1104 6.62738 16.0397 1.07506
139 1 -1.1104 6.65966 18.5117 3.64577
118 1 -1.1104 6.23096 15.7766 6.47638
138 1 -1.1104 6.46816 18.8637 0.95536
636 2 2.2208 10.786 11.5741 -0.383565
112 1 -1.1104 6.51395 18.7237 6.5784
117 1 -1.1104 0.858086 15.8583 6.53282
126 1 -1.1104 3.69902 18.6615 6.76308
105 2 2.2208 10.7121 14.3761 8.05549
550 2 2.2208 13.3795 11.755 13.6338
165 2 2.2208 13.5282 17.2545 2.47774
634 2 2.2208 10.4394 6.21957 -0.291205
584 2 2.2208 13.528 3.13146 -0.414935
491 2 2.2208 5 14.4971 13.5588
26 2 2.2208 13.4815 14.4736 10.8668
122 1 -1.1104 6.24389 15.5981 3.85731
150 2 2.2208 10.8037 14.4605 2.60848
141 2 2.2208 10.7114 17.3418 5.11484
144 1 -1.1104 12.4444 18.5857 0.615088
147 1 -1.1104 12.0112 18.7311 3.72274
148 1 -1.1104 12.2616 16.1245 1.15572
151 2 2.2208 10.5287 20.1152 2.25275
152 1 -1.1104 12.3018 15.7904 4.04063
155 1 -1.1104 9.3024 18.5695 0.896911
157 2 2.2208 7.98902 17.1783 2.38183
159 1 -1.1104 9.37883 18.5106 3.63217
160 2 2.2208 7.71303 14.5336 5.40011
161 2 2.2208 7.89759 19.9771 5.1179
162 1 -1.1104 9.27974 15.6496 0.932205
164 1 -1.1104 9.37069 15.8994 3.67513
544 2 2.2208 4.75642 0.252772 -0.421509
232 1 -1.1104 9.19395 18.4634 9.54749
29 2 2.2208 13.5667 8.76084 11.0101
546 2 2.2208 2.28386 2.9946 -0.341605
552 2 2.2208 7.69408 20.1218 -0.43223
166 1 -1.1104 0.592452 -3.91604 6.92742
170 1 -1.1104 0.872901 -0.892446 6.73393
175 2 2.2208 5.03844 0.258599 10.6846
176 1 -1.1104 0.895527 -4.06704 12.4237
180 1 -1.1104 0.817855 -3.8069 9.50684
184 1 -1.1104 0.492524 -0.956647 12.3486
186 2 2.2208 4.95558 -2.45438 8.20704
188 1 -1.1104 0.707653 -0.953734 9.6078
190 1 -1.1104 3.68737 -4.02265 12.3135
192 2 2.2208 2.15791 0.328505 8.15812
193 1 -1.1104 3.64653 -3.9448 9.51434
195 2 2.2208 2.08019 -2.48665 10.9387
197 1 -1.1104 3.56089 -0.984936 12.3348
198 1 -1.1104 3.71592 -1.21062 9.65154
182 1 -1.1104 6.48771 -3.96541 9.5871
189 1 -1.1104 6.50309 -1.14002 9.56454
9152 2 2.2208 13.5565 -2.67849 5.47864
104 2 2.2208 13.5602 11.6827 2.52808
136 2 2.2208 10.4527 20.1558 8.02613
178 1 -1.1104 6.23569 -4.0278 12.4294
185 1 -1.1104 6.24336 -1.26466 12.2696
208 1 -1.1104 9.47207 -4.3832 6.85152
211 2 2.2208 10.5418 -0.0978461 10.9412
212 1 -1.1104 11.9732 -3.75469 12.484
214 1 -1.1104 11.9613 -3.96453 9.60431
216 1 -1.1104 12.0373 -0.910723 12.519
217 2 2.2208 10.6072 -2.84456 8.09148
219 1 -1.1104 12.1153 -1.27212 9.64011
220 1 -1.1104 9.296 -3.91991 12.7887
222 2 2.2208 7.82795 0.135832 7.92372
223 1 -1.1104 9.25747 -4.08778 9.77431
225 2 2.2208 7.75161 -2.63076 11.0634
227 1 -1.1104 8.98938 -1.1123 12.3514
228 1 -1.1104 9.35471 -1.44878 9.58147
229 2 2.2208 13.2365 0.248482 8.19791
548 2 2.2208 10.7269 17.0742 -0.432291
574 2 2.2208 10.5507 0.263296 -0.259474
173 1 -1.1104 3.41558 1.62167 6.75895
234 1 -1.1104 0.769271 7.42505 6.52931
238 1 -1.1104 3.64352 7.42404 6.56872
235 1 -1.1104 6.44716 7.27145 6.73005
239 1 -1.1104 3.47711 4.55847 6.5496
177 1 -1.1104 0.498798 1.84064 12.253
181 1 -1.1104 0.575588 1.65431 9.30043
187 2 2.2208 4.90768 3.17663 7.83224
191 1 -1.1104 3.29934 1.765 12.3016
194 1 -1.1104 3.48887 1.72975 9.41417
196 2 2.2208 2.27957 3.04424 10.8093
240 2 2.2208 5.08863 5.72029 10.7493
242 1 -1.1104 0.811207 7.70089 12.3126
244 1 -1.1104 0.776239 7.37849 9.25451
246 1 -1.1104 0.884212 4.7265 12.3963
251 1 -1.1104 0.870973 4.81184 9.68221
255 1 -1.1104 3.54276 7.46426 12.2326
256 2 2.2208 2.17648 5.93535 8.07328
260 1 -1.1104 3.58437 4.47827 12.1554
262 1 -1.1104 3.57803 4.31152 9.41058
258 1 -1.1104 3.65301 7.21811 9.2941
248 1 -1.1104 6.42469 4.76288 12.5177
183 1 -1.1104 6.32144 1.73778 9.28995
179 1 -1.1104 6.19865 1.7552 12.2827
253 1 -1.1104 6.32981 4.30939 9.44865
237 1 -1.1104 6.38772 4.44499 6.76624
243 1 -1.1104 6.28297 7.43661 12.2175
156 1 -1.1104 9.29662 18.9526 6.55232
547 2 2.2208 7.96225 14.5422 -0.423654
269 1 -1.1104 9.09134 4.58564 6.92412
311 2 2.2208 7.57019 17.294 8.17984
245 1 -1.1104 6.65512 7.11461 9.66291
209 1 -1.1104 9.09727 1.50735 6.51881
267 1 -1.1104 9.43642 7.3389 6.60918
206 1 -1.1104 11.9655 1.65806 6.57886
266 1 -1.1104 11.9042 4.45635 6.93457
213 1 -1.1104 12.0206 1.73303 12.2519
215 1 -1.1104 11.754 1.54598 9.55855
218 2 2.2208 10.454 3.04367 8.16539
221 1 -1.1104 8.99679 1.70238 12.2722
224 1 -1.1104 9.10165 1.49585 9.28603
226 2 2.2208 7.75942 3.1122 10.9565
268 1 -1.1104 9.03781 4.47466 9.7067
271 1 -1.1104 9.1022 4.5466 12.3356
273 1 -1.1104 9.36068 7.38765 9.27166
275 2 2.2208 7.83014 5.7965 8.16997
276 2 2.2208 10.7009 5.94053 10.9027
278 1 -1.1104 11.9108 7.26059 12.3481
280 1 -1.1104 11.9175 4.49115 12.3367
283 1 -1.1104 12.1494 4.35209 9.43492
285 1 -1.1104 9.14696 7.49076 12.3247
279 1 -1.1104 12.1533 7.15945 9.54151
581 2 2.2208 13.3626 -2.4417 -0.480192
62 1 -1.1104 0.719316 10.1829 6.63101
111 1 -1.1104 6.36939 12.9513 6.66497
108 1 -1.1104 0.713566 13.0112 6.50992
241 2 2.2208 5.0555 11.7245 10.818
247 1 -1.1104 0.909614 10.4976 11.8785
250 2 2.2208 5.04649 8.8917 7.95659
252 1 -1.1104 0.610968 10.13 9.16233
257 2 2.2208 2.13074 11.4504 7.90268
259 2 2.2208 2.20365 8.73391 10.6779
261 1 -1.1104 3.8277 10.2949 12.0964
263 1 -1.1104 3.48487 10.1073 9.38863
287 1 -1.1104 3.47267 13.034 12.1818
294 1 -1.1104 0.656078 12.9384 9.52654
299 1 -1.1104 0.425367 13.1194 12.3566
305 1 -1.1104 3.61173 12.9478 9.30548
249 1 -1.1104 6.48267 10.3281 12.1576
290 1 -1.1104 6.46404 12.7218 9.34963
65 1 -1.1104 6.48482 9.98678 6.73413
254 1 -1.1104 6.31842 9.94278 9.43321
143 1 -1.1104 12.2222 13.1087 6.62252
663 2 2.2208 2.36401 20.1612 -0.276331
297 1 -1.1104 6.53942 13.2723 12.2893
101 1 -1.1104 9.425 10.1837 6.77557
90 1 -1.1104 12.1846 10.0603 6.63752
312 1 -1.1104 9.15023 12.946 8.95868
264 1 -1.1104 9.17129 10.078 9.40175
270 1 -1.1104 9.36192 10.3123 12.3244
272 2 2.2208 7.77287 8.8077 10.767
274 2 2.2208 7.84973 11.3546 7.84794
277 2 2.2208 10.7171 11.4334 11.0721
281 1 -1.1104 12.2428 10.1163 12.2568
282 2 2.2208 10.6406 8.67584 8.08825
284 1 -1.1104 11.9738 9.8956 9.65831
200 1 -1.1104 9.39483 13.1294 12.3078
49 1 -1.1104 12.0272 12.8164 12.2615
53 1 -1.1104 11.7202 12.9133 9.46119
51 2 2.2208 13.3732 11.4702 8.22099
306 1 -1.1104 6.36364 15.8456 12.1993
133 1 -1.1104 3.66522 16.0375 6.68463
302 1 -1.1104 0.593178 18.4863 6.64859
296 1 -1.1104 6.44023 18.6092 12.0556
289 1 -1.1104 6.33111 15.6319 9.32231
310 2 2.2208 2.07274 14.2626 10.9265
295 2 2.2208 4.95474 14.3593 8.00172
308 1 -1.1104 3.75353 15.8365 12.2918
309 2 2.2208 2.23463 20.1179 11.0558
307 1 -1.1104 0.950222 15.8115 12.2822
304 1 -1.1104 3.56315 15.8581 9.33894
286 1 -1.1104 3.4452 18.7132 12.4359
291 1 -1.1104 0.662284 18.4668 9.63125
292 1 -1.1104 0.593019 15.7193 9.25126
293 2 2.2208 4.8978 20.2504 8.1799
298 1 -1.1104 0.613667 18.5879 12.4132
300 2 2.2208 4.97846 17.1486 10.7994
301 1 -1.1104 3.24467 18.6713 9.37404
303 2 2.2208 2.16561 17.2378 8.10823
288 1 -1.1104 6.4537 18.8445 9.39387
27 2 2.2208 13.2167 17.1588 8.009
82 1 -1.1104 12.207 15.6921 12.2783
314 1 -1.1104 9.25193 15.7323 9.36814
199 1 -1.1104 11.9534 15.8508 9.3631
315 1 -1.1104 9.24013 15.8633 12.1429
428 2 2.2208 2.10184 11.5905 13.6401
149 1 -1.1104 11.9936 15.8187 6.70353
50 1 -1.1104 12.0367 18.7039 12.1567
30 2 2.2208 10.6954 17.4028 10.8851
201 1 -1.1104 9.26168 18.7142 12.3996
316 2 2.2208 7.87576 20.0312 10.8458
233 2 2.2208 8.02381 14.2264 10.6832
427 2 2.2208 5.08306 8.86253 13.5424
353 2 2.2208 13.6961 14.4234 -0.400876
518 2 2.2208 7.92134 17.1863 13.6658
392 2 2.2208 10.4808 3.13438 13.7363
635 2 2.2208 7.80458 9.09893 -0.135201
453 2 2.2208 7.61439 6.16476 13.802
359 2 2.2208 4.76381 3.33245 13.6227
665 2 2.2208 2.29568 14.4382 -0.470066
317 2 2.2208 4.82369 0.381596 16.3823
318 1 -1.1104 0.779146 -3.76025 17.9733
322 1 -1.1104 0.807333 -3.69551 15.098
330 1 -1.1104 0.676924 -1.16274 17.8693
332 2 2.2208 5.17872 -2.58265 19.3695
334 1 -1.1104 0.767211 -0.929306 14.9607
338 1 -1.1104 3.57257 -3.71001 17.793
340 2 2.2208 2.2062 0.356092 19.4069
341 1 -1.1104 3.59894 -3.97883 15.109
345 2 2.2208 2.13712 -2.4039 16.5634
347 1 -1.1104 3.48353 -1.0724 17.9593
348 1 -1.1104 3.23126 -1.07945 14.9037
320 1 -1.1104 6.45215 -4.04243 17.798
326 1 -1.1104 6.52486 -4.01062 15.1826
336 1 -1.1104 6.22907 -1.22567 15.1598
9386 2 2.2208 13.4726 3.13461 22.2361
358 2 2.2208 2.15631 0.376724 13.6528
337 1 -1.1104 6.54363 -1.26573 20.7287
609 2 2.2208 4.82668 6.02715 27.8679
331 1 -1.1104 6.61871 -1.15756 17.9653
360 2 2.2208 10.4051 0.343712 16.9184
361 1 -1.1104 12.0971 -3.70923 18.1619
363 1 -1.1104 12.3665 -3.97136 15.233
367 1 -1.1104 12.0756 -0.994487 18.2528
368 2 2.2208 10.6367 -2.63481 19.5264
370 1 -1.1104 11.9039 -0.982138 15.4166
372 1 -1.1104 9.44167 -4.07752 17.9925
374 2 2.2208 7.77169 0.364669 19.4429
375 1 -1.1104 9.57482 -3.86268 15.3421
379 2 2.2208 8.05043 -2.64202 16.5545
381 1 -1.1104 9.30872 -1.09397 18.1705
382 1 -1.1104 9.16921 -0.965744 15.2253
8829 2 2.2208 2.27299 -5.20541 13.7238
388 2 2.2208 13.4195 -2.33154 16.608
577 2 2.2208 13.4954 6.15749 19.2955
639 2 2.2208 13.4929 5.98846 24.9984
383 1 -1.1104 9.11089 -0.830437 20.9492
376 1 -1.1104 9.3097 -3.98501 20.9606
578 2 2.2208 13.4878 8.87364 16.621
583 2 2.2208 13.2881 0.538635 25.0296
8830 2 2.2208 13.5293 -5.07361 19.4834
688 2 2.2208 13.3257 0.447578 19.3573
319 1 -1.1104 0.731125 1.80562 17.8745
324 1 -1.1104 0.655516 2.03766 15.0034
333 2 2.2208 5.01276 3.27331 19.3775
339 1 -1.1104 3.42749 1.72538 18.0568
343 1 -1.1104 3.47154 1.72011 15.1413
346 2 2.2208 2.15873 3.22377 16.2556
393 2 2.2208 4.89978 6.16494 16.5529
395 1 -1.1104 0.681845 7.26302 17.8869
397 1 -1.1104 0.619086 7.56387 15.0159
401 1 -1.1104 0.733081 4.62224 18.0956
406 1 -1.1104 0.661444 4.5775 15.3165
415 2 2.2208 2.04395 5.94723 19.3572
420 1 -1.1104 3.61376 4.83021 18.1841
422 1 -1.1104 3.35492 4.71232 15.1437
414 1 -1.1104 3.65213 7.8246 17.8287
417 1 -1.1104 3.17525 7.4256 15.0094
399 1 -1.1104 6.1793 7.45491 15.0281
328 1 -1.1104 6.33693 1.7073 14.9822
321 1 -1.1104 6.18859 1.66664 17.8544
403 1 -1.1104 6.47951 4.61447 17.8503
410 1 -1.1104 6.14426 4.56176 15.0359
396 1 -1.1104 6.562 7.4761 17.9032
398 1 -1.1104 0.843337 7.46855 20.6594
423 1 -1.1104 3.52879 4.77325 20.9711
344 1 -1.1104 3.64431 2.00091 20.7293
418 1 -1.1104 3.79063 7.53907 20.7253
8836 2 2.2208 4.99428 -5.39991 22.1724
8838 2 2.2208 13.4434 -5.3353 24.8983
362 1 -1.1104 11.6843 1.69177 18.0593
365 1 -1.1104 12.143 1.6599 15.2675
369 2 2.2208 10.7898 3.26909 19.4266
373 1 -1.1104 9.04365 1.83875 17.8872
377 1 -1.1104 9.03729 1.89353 15.2186
380 2 2.2208 7.84806 3.28821 16.4655
429 2 2.2208 10.7529 6.03239 16.5601
432 1 -1.1104 12.2112 7.6294 15.1526
434 1 -1.1104 11.9844 4.55204 18.0248
437 1 -1.1104 12.0717 4.52027 15.1175
441 1 -1.1104 9.31642 7.48252 17.913
442 2 2.2208 7.92648 6.03325 19.2442
444 1 -1.1104 9.27347 7.54408 15.1219
447 1 -1.1104 9.33511 4.78352 17.7644
449 1 -1.1104 9.18283 4.81432 15.2087
445 1 -1.1104 9.30534 7.33552 20.8246
579 2 2.2208 13.4599 6.04887 13.6676
686 2 2.2208 13.4226 3.34261 16.5474
610 2 2.2208 2.1578 8.70591 27.92
394 2 2.2208 4.95545 11.6976 16.3102
402 1 -1.1104 0.691007 10.1892 17.8852
405 2 2.2208 5.06455 8.95091 19.2037
408 1 -1.1104 0.687548 10.1667 15.0283
416 2 2.2208 2.17267 11.6559 19.2215
419 2 2.2208 1.90952 8.88663 16.5883
421 1 -1.1104 3.62763 10.3797 17.7537
424 1 -1.1104 3.57459 10.2849 14.8343
457 1 -1.1104 0.773593 13.1542 17.8317
461 1 -1.1104 0.646803 13.2794 15.0638
477 1 -1.1104 3.74033 12.8362 18.0947
480 1 -1.1104 3.64365 13.0929 15.0565
465 1 -1.1104 6.33091 13.1916 15.0342
545 2 2.2208 2.07719 -2.6205 27.716
404 1 -1.1104 6.46151 10.2606 17.8244
412 1 -1.1104 6.51539 10.2287 14.8218
459 1 -1.1104 6.52255 12.9854 17.8949
409 1 -1.1104 0.652356 10.1875 20.6501
462 1 -1.1104 0.572244 13.1929 20.7708
481 1 -1.1104 3.57083 13.0817 20.7041
672 2 2.2208 7.98338 20.2246 22.3288
611 2 2.2208 4.99283 11.5698 27.7774
551 2 2.2208 13.44 11.6093 19.2308
431 1 -1.1104 12.1887 7.43852 17.9154
9369 2 2.2208 13.6293 17.31 24.9538
430 2 2.2208 10.7527 11.7829 16.367
435 1 -1.1104 12.0639 10.2712 17.7597
436 2 2.2208 10.5135 8.85446 19.3534
439 1 -1.1104 11.9413 10.3817 14.979
443 2 2.2208 7.85433 11.7334 19.3722
446 2 2.2208 8.06345 8.86041 16.4443
448 1 -1.1104 9.3258 10.5041 17.9455
451 1 -1.1104 9.32987 10.3544 15.1393
493 1 -1.1104 11.9999 13.0063 17.9394
495 1 -1.1104 12.0484 13.2708 15.1808
504 1 -1.1104 9.2488 13.1136 17.8658
507 1 -1.1104 9.3111 13.2223 15.0029
496 1 -1.1104 11.8757 13.0333 20.637
466 1 -1.1104 6.48079 13.0993 20.7103
508 1 -1.1104 9.07289 12.9211 20.634
677 2 2.2208 7.89499 17.3004 24.9995
669 1 -1.1104 12.102 18.717 23.5876
503 1 -1.1104 12.0961 15.9006 20.7599
356 2 2.2208 13.4255 20.2393 16.4041
471 2 2.2208 5.11488 14.5464 19.4086
484 2 2.2208 2.19942 14.4371 16.5537
456 2 2.2208 5.05563 17.0985 16.4673
458 1 -1.1104 0.659754 18.6269 18.0079
463 1 -1.1104 1.06149 18.6128 15.4262
469 1 -1.1104 0.906701 15.8476 17.8887
472 2 2.2208 4.7217 20.1488 19.2713
473 1 -1.1104 0.676996 15.93 14.992
478 1 -1.1104 3.61515 18.6749 17.9073
479 2 2.2208 2.32479 17.3556 19.3261
482 1 -1.1104 3.72271 18.6532 15.2629
485 2 2.2208 2.36504 20.2018 16.5487
486 1 -1.1104 3.73025 15.6701 17.8486
487 1 -1.1104 3.54528 15.9382 15.2401
468 1 -1.1104 6.39191 18.7364 20.6703
470 1 -1.1104 6.27246 15.7508 17.9285
467 1 -1.1104 6.37991 18.4787 15.0404
460 1 -1.1104 6.35727 18.547 17.9425
474 1 -1.1104 0.671421 16.1087 20.7387
454 2 2.2208 10.7796 8.75217 13.7104
384 2 2.2208 13.613 17.3121 19.4534
681 2 2.2208 10.7453 20.1041 25.1532
671 1 -1.1104 9.11741 15.7914 23.5809
475 1 -1.1104 6.74292 15.7448 15.1374
516 2 2.2208 10.6628 20.151 13.749
492 2 2.2208 10.599 17.2824 16.6071
494 1 -1.1104 12.1808 18.6949 18.076
497 1 -1.1104 12.0989 18.7601 15.0856
499 1 -1.1104 11.8916 15.8684 17.8124
500 2 2.2208 10.5622 14.5291 19.3217
501 2 2.2208 10.7187 20.1606 19.397
502 1 -1.1104 12.3635 16.2587 15.231
505 1 -1.1104 9.17817 18.5597 18.0033
506 2 2.2208 7.87392 17.3048 19.3779
509 1 -1.1104 9.31586 18.6377 15.2045
511 2 2.2208 7.84976 14.4232 16.5038
512 2 2.2208 7.83641 19.9461 16.6394
513 1 -1.1104 8.94775 15.815 17.9587
514 1 -1.1104 9.42676 15.9759 15.1804
553 2 2.2208 10.4451 17.1188 22.2039
515 1 -1.1104 9.25952 15.8077 20.6156
390 2 2.2208 7.57697 0.29334 13.7637
670 1 -1.1104 9.27874 15.8758 26.3222
327 1 -1.1104 6.37155 -4.00339 20.7129
335 1 -1.1104 0.768884 -1.03996 20.9838
342 1 -1.1104 3.65441 -3.77195 20.7395
349 1 -1.1104 3.70576 -1.05753 20.844
323 1 -1.1104 0.891432 -3.88985 20.7323
520 2 2.2208 4.93449 0.388985 22.2077
521 1 -1.1104 0.574872 -3.85333 23.74
525 1 -1.1104 0.622953 -3.88895 26.6469
529 1 -1.1104 0.681019 -0.970899 23.5851
531 2 2.2208 5.01797 -2.31058 24.8034
533 1 -1.1104 0.614063 -1.11102 26.3505
535 1 -1.1104 3.48226 -3.87603 23.4384
537 2 2.2208 1.81442 0.516686 24.87
538 1 -1.1104 3.6717 -3.95632 26.5772
540 2 2.2208 1.9959 -2.55457 22.3122
542 1 -1.1104 3.60325 -0.870664 23.5842
543 1 -1.1104 3.48808 -1.09567 26.381
523 1 -1.1104 6.58408 -3.70594 23.5245
534 1 -1.1104 6.21561 -0.848761 26.5188
527 1 -1.1104 6.47134 -3.602 26.357
498 1 -1.1104 11.9723 18.5144 20.8623
530 1 -1.1104 6.22413 -0.962844 23.581
391 2 2.2208 10.7077 -2.45827 14.0429
678 1 -1.1104 9.29725 18.4422 23.6031
683 1 -1.1104 12.2216 15.7968 23.6608
582 2 2.2208 13.3237 -2.43718 22.4265
371 1 -1.1104 11.904 -1.12997 20.798
364 1 -1.1104 12.0897 -3.71628 21.0843
556 2 2.2208 10.6909 0.350752 22.2602
557 1 -1.1104 12.2341 -3.95838 23.6055
559 1 -1.1104 12.196 -3.98538 26.6447
561 1 -1.1104 11.9544 -1.00163 23.712
562 2 2.2208 10.6539 -2.33764 24.99
564 1 -1.1104 11.9304 -1.04503 26.4204
565 1 -1.1104 9.33836 -3.92782 23.6832
567 2 2.2208 7.76861 0.472851 24.7824
568 1 -1.1104 9.30656 -3.65471 26.3508
570 2 2.2208 7.94118 -2.55752 22.3769
572 1 -1.1104 9.2411 -1.19245 23.6664
573 1 -1.1104 9.2686 -0.911159 26.3051
455 2 2.2208 7.85997 11.8128 13.7097
329 1 -1.1104 6.34529 1.82717 20.893
325 1 -1.1104 0.842649 1.65926 20.6719
407 1 -1.1104 0.629433 4.52386 20.755
522 1 -1.1104 0.437207 1.76912 23.4716
526 1 -1.1104 0.859096 1.91808 26.2621
532 2 2.2208 4.88253 3.10187 24.9017
536 1 -1.1104 3.48057 1.79464 23.4132
539 1 -1.1104 3.48293 1.78493 26.328
541 2 2.2208 2.15068 3.17919 22.2901
585 2 2.2208 4.94412 6.03751 22.1135
587 1 -1.1104 0.77299 7.30638 23.5395
591 1 -1.1104 0.785354 4.67713 23.6
596 1 -1.1104 0.839687 4.78081 26.3578
601 2 2.2208 2.38179 6.017 24.8166
603 1 -1.1104 3.53369 7.27647 26.2791
605 1 -1.1104 3.61576 4.67521 23.5803
607 1 -1.1104 3.68106 4.53802 26.3529
589 1 -1.1104 0.904886 7.51144 26.4539
600 1 -1.1104 3.74343 7.49142 23.415
588 1 -1.1104 6.39896 7.63644 23.7223
598 1 -1.1104 6.31159 4.51634 26.2723
528 1 -1.1104 6.4584 1.87856 26.3502
590 1 -1.1104 6.45305 7.50269 26.3018
8828 2 2.2208 2.15145 -5.05309 19.3317
385 2 2.2208 13.556 14.579 16.5445
433 1 -1.1104 12.0859 7.4426 20.8584
438 1 -1.1104 12.0207 4.64785 20.6738
366 1 -1.1104 12.2031 1.72297 21.0168
450 1 -1.1104 9.41385 4.57216 20.6698
8833 2 2.2208 7.72738 -5.25322 13.7812
684 1 -1.1104 12.0898 18.6592 26.3158
411 1 -1.1104 6.52599 4.60922 20.6831
524 1 -1.1104 6.1601 2.05088 23.5079
593 1 -1.1104 6.38006 4.69341 23.4238
378 1 -1.1104 9.14292 1.7579 20.626
558 1 -1.1104 12.0197 1.76311 23.8594
560 1 -1.1104 11.8962 1.80845 26.3852
563 2 2.2208 10.4529 3.38657 25.1662
566 1 -1.1104 8.99444 1.80205 23.5084
569 1 -1.1104 9.13679 1.73103 26.4043
571 2 2.2208 7.86134 3.29674 22.1468
617 1 -1.1104 9.2117 4.86458 26.7295
619 1 -1.1104 9.27657 4.58658 23.5173
621 1 -1.1104 9.11017 7.63483 26.3902
623 2 2.2208 7.80057 6.24714 24.8753
624 2 2.2208 10.8409 6.0178 22.1412
627 1 -1.1104 12.2953 7.45907 26.5132
628 1 -1.1104 12.0594 4.67023 23.6097
631 1 -1.1104 12.306 4.55878 26.369
633 1 -1.1104 9.25816 7.48013 23.5444
626 1 -1.1104 12.0281 7.59956 23.5217
400 1 -1.1104 6.62736 7.11584 20.9079
425 1 -1.1104 3.49121 10.3085 20.6004
657 1 -1.1104 3.48105 12.9336 26.4397
586 2 2.2208 5.19166 11.6655 22.1812
592 1 -1.1104 0.695988 10.3101 23.4304
595 2 2.2208 4.86372 8.8982 25.1927
597 1 -1.1104 0.740501 10.2466 26.4112
602 2 2.2208 1.94147 11.6019 25.047
604 2 2.2208 2.28121 8.82748 22.0374
606 1 -1.1104 3.41222 10.0577 23.7301
608 1 -1.1104 3.5838 10.1992 26.5912
652 1 -1.1104 0.811407 13.0756 23.471
642 1 -1.1104 3.62125 12.922 23.6753
646 1 -1.1104 0.890486 13.1182 26.5174
413 1 -1.1104 6.42826 10.1943 20.6506
594 1 -1.1104 6.38182 10.3202 23.5154
641 1 -1.1104 6.42402 12.9044 26.3647
673 2 2.2208 8.03369 14.5225 22.1399
682 2 2.2208 10.6135 14.5361 24.9361
599 1 -1.1104 6.47617 10.2223 26.5096
452 1 -1.1104 9.29038 10.1038 20.763
650 1 -1.1104 6.72484 13.0701 23.6755
440 1 -1.1104 12.076 10.2713 20.5072
685 1 -1.1104 12.1019 13.1132 26.4536
679 1 -1.1104 9.27321 12.9064 23.5844
637 1 -1.1104 11.8455 13.2105 23.5442
675 1 -1.1104 9.37719 13.0965 26.4326
616 1 -1.1104 9.25631 10.2693 26.5326
618 1 -1.1104 9.31283 10.1517 23.5862
620 2 2.2208 7.68373 8.67059 22.1005
622 2 2.2208 7.90813 11.5697 25.1083
625 2 2.2208 10.7218 11.6035 22.2494
629 1 -1.1104 12.1528 10.4711 23.6085
630 2 2.2208 10.5601 8.95437 25.052
632 1 -1.1104 12.1019 10.138 26.1947
351 2 2.2208 13.4539 8.81774 22.0971
9178 2 2.2208 13.649 11.6773 24.8012
643 1 -1.1104 6.26925 16.0224 26.1948
488 1 -1.1104 3.68273 15.9394 20.639
680 1 -1.1104 12.0671 16.0353 26.3146
483 1 -1.1104 3.7055 18.8105 20.8674
464 1 -1.1104 1.06009 18.8735 20.7024
649 2 2.2208 4.92248 14.4995 24.7851
660 1 -1.1104 3.60838 15.7214 23.4197
659 1 -1.1104 0.954419 15.8573 23.6854
656 1 -1.1104 3.708 15.807 26.2894
655 2 2.2208 2.04321 17.4126 25.1028
654 1 -1.1104 3.56009 18.9734 26.5316
653 2 2.2208 4.97296 17.2729 22.1861
651 1 -1.1104 0.798129 18.5358 23.6498
662 2 2.2208 2.29445 14.5014 22.0531
661 2 2.2208 2.16385 20.2057 22.0943
640 1 -1.1104 3.64569 18.4824 23.6781
644 1 -1.1104 1.0181 18.9236 26.5187
645 1 -1.1104 0.905875 16.0599 26.4106
648 2 2.2208 4.9658 20.1852 25.0486
676 1 -1.1104 6.28805 18.884 26.3511
647 1 -1.1104 6.523 18.7085 23.518
476 1 -1.1104 6.42532 16.0182 20.8278
674 1 -1.1104 9.13818 18.8459 26.3142
9370 2 2.2208 13.4263 14.4213 22.1217
658 1 -1.1104 6.3838 15.7372 23.5286
9220 2 2.2208 13.4177 19.944 22.127
510 1 -1.1104 9.2321 18.8354 20.8107
8525 2 2.2208 10.7551 -5.34358 27.7036
687 2 2.2208 13.4126 0.463445 13.8794
357 2 2.2208 4.76208 -2.60402 13.7667
489 2 2.2208 2.18683 17.1914 13.7821
8834 2 2.2208 13.612 -5.14458 13.8165
664 2 2.2208 4.94265 17.2664 27.4781
575 2 2.2208 7.81629 -2.38326 27.6615
9221 2 2.2208 13.5523 20.1067 27.7231
517 2 2.2208 10.6806 14.5122 13.8163
638 2 2.2208 13.4864 9.04692 27.6523
490 2 2.2208 5.24059 20.0183 13.7522
426 2 2.2208 2.07313 6.01133 13.7375
689 2 2.2208 4.96469 22.7308 5.1071
691 1 -1.1104 0.95799 24.2634 1.17384
692 1 -1.1104 0.788269 24.1746 4.06983
693 1 -1.1104 0.826893 21.5593 0.964703
695 2 2.2208 5.0382 25.7798 2.32868
696 1 -1.1104 0.714257 21.4635 3.80595
698 1 -1.1104 3.64433 24.3972 1.08583
699 2 2.2208 2.10354 22.8711 2.48739
701 1 -1.1104 3.61174 24.3824 3.80573
702 2 2.2208 2.33293 25.642 5.26716
703 1 -1.1104 3.70718 21.525 0.95436
705 1 -1.1104 3.58815 21.574 3.63891
704 1 -1.1104 3.69289 27.251 1.12076
694 1 -1.1104 0.505309 27.0888 1.07025
706 1 -1.1104 3.65006 27.2194 3.6747
712 1 -1.1104 6.56321 21.7509 1.06053
714 1 -1.1104 6.45567 21.443 3.7849
836 1 -1.1104 3.63111 24.2855 6.43179
710 1 -1.1104 6.4402 24.5844 1.02528
711 1 -1.1104 6.37331 24.2474 3.85982
713 1 -1.1104 6.55194 27.4755 1.29749
697 1 -1.1104 0.767619 27.1815 3.93021
986 2 2.2208 13.6147 42.7453 5.28715
1316 2 2.2208 5.13062 39.6006 -0.5629
833 1 -1.1104 0.794245 27.1402 6.65142
834 1 -1.1104 6.27434 21.5892 6.71478
989 2 2.2208 8.04669 34.2752 13.595
716 2 2.2208 10.5477 22.8156 5.20224
718 1 -1.1104 12.086 24.387 1.05796
719 1 -1.1104 12.0077 24.0519 3.74104
720 1 -1.1104 11.974 21.3369 0.942754
722 2 2.2208 10.6343 25.6715 2.43565
723 1 -1.1104 12.066 21.4886 3.72447
725 1 -1.1104 9.47842 24.2939 0.920701
726 2 2.2208 7.83221 23.1444 2.44307
728 1 -1.1104 9.23819 24.4632 3.74601
729 2 2.2208 7.83677 25.8555 5.10544
730 1 -1.1104 9.26433 21.414 0.713195
732 1 -1.1104 9.10244 21.4925 3.68694
724 1 -1.1104 12.1921 26.8617 4.03792
721 1 -1.1104 12.0391 27.0667 1.00995
731 1 -1.1104 9.17846 26.9958 1.05147
733 1 -1.1104 9.22366 27.2107 3.75474
970 2 2.2208 -0.389584 42.7062 8.17118
9807 2 2.2208 13.5341 25.5252 5.21199
1196 2 2.2208 5.20177 22.95 -0.326746
1225 2 2.2208 10.8914 22.9348 -0.43362
1177 2 2.2208 8.01151 42.6089 -0.312831
715 1 -1.1104 6.37745 27.1821 3.82999
690 2 2.2208 5.03517 28.5342 5.23399
700 2 2.2208 2.26007 28.6146 2.4516
738 1 -1.1104 1.01034 29.8252 1.03111
741 1 -1.1104 0.760402 29.9813 3.68226
744 1 -1.1104 0.929281 32.6002 1.1909
745 2 2.2208 5.22307 31.3542 2.40732
747 1 -1.1104 0.860358 32.7791 3.98215
749 1 -1.1104 3.69472 29.9645 0.920976
752 1 -1.1104 3.73099 29.8457 3.77853
754 2 2.2208 2.25147 31.2865 5.47102
756 1 -1.1104 3.75631 32.6709 0.889711
757 1 -1.1104 3.78438 32.6649 3.75979
1174 2 2.2208 8.03044 45.4283 13.7254
761 1 -1.1104 6.65102 30.0641 1.00239
763 1 -1.1104 6.51132 32.8932 1.08773
748 1 -1.1104 6.49502 32.8049 3.98336
882 1 -1.1104 0.787481 29.855 6.67698
884 1 -1.1104 6.54821 29.9148 6.95196
1175 2 2.2208 8.08841 40.1528 13.627
1084 2 2.2208 5.34646 37.1038 13.5308
1256 2 2.2208 2.3558 31.4661 -0.295523
762 1 -1.1104 6.60448 29.9857 3.68679
717 2 2.2208 10.4361 28.3487 5.33928
727 2 2.2208 7.98386 28.6666 2.37123
765 1 -1.1104 12.222 29.8681 1.12866
767 1 -1.1104 12.1479 29.7906 3.97042
769 1 -1.1104 11.9671 32.635 1.01351
770 2 2.2208 10.6689 31.4207 2.43273
772 1 -1.1104 12.1537 32.6554 3.74087
773 1 -1.1104 9.34708 29.8557 0.975638
776 1 -1.1104 9.50482 29.9331 3.92072
778 2 2.2208 7.76078 31.4109 5.3134
780 1 -1.1104 9.28855 32.7944 0.84235
781 1 -1.1104 9.28382 32.7679 3.77349
985 1 -1.1104 12.2286 44.4229 12.3202
921 1 -1.1104 9.20781 32.8055 6.6481
919 1 -1.1104 9.19922 29.8559 6.72926
9810 2 2.2208 13.423 34.1617 2.47255
10172 2 2.2208 -0.416276 34.1263 -0.347047
737 2 2.2208 5.2113 34.1496 5.15224
739 1 -1.1104 1.01609 35.3835 1.03988
742 1 -1.1104 0.78961 35.4252 3.86923
746 2 2.2208 5.02207 36.7933 2.3451
750 1 -1.1104 3.79665 35.4469 0.960827
751 2 2.2208 2.35301 34.0744 2.52915
753 1 -1.1104 3.61483 35.5673 3.64179
755 2 2.2208 2.27157 37.0374 5.18444
783 2 2.2208 5.1339 39.572 5.26327
789 1 -1.1104 1.08098 38.3377 1.06904
794 1 -1.1104 1.06948 38.1845 3.75131
799 2 2.2208 2.46125 39.6744 2.47393
803 1 -1.1104 3.79889 38.2107 0.896986
805 1 -1.1104 3.9955 38.2554 3.89187