ITEM: TIMESTEP
10000
ITEM: NUMBER OF ATOMS
17640
ITEM: BOX BOUNDS pp pp pp
-4.4765761618786237e-01 2.7787657616188181e+01
-5.2651731778713762e+00 3.3334517317787072e+02
-4.4852017099411978e-01 2.7788520170994062e+01
ITEM: ATOMS id type q x y z
1 2 2.2208 4.97191 0.317356 5.24296
2 1 -1.1104 0.587999 -3.49684 1.05
6 1 -1.1104 0.786257 -3.80936 3.80383
10 1 -1.1104 0.884805 -0.854931 1.05632
12 2 2.2208 5.15795 -2.54247 2.44935
14 1 -1.1104 0.903401 -1.03026 3.83215
16 1 -1.1104 3.46039 -3.62109 1.00895
18 2 2.2208 2.36581 0.326822 2.50655
19 1 -1.1104 3.58613 -3.61422 3.83006
21 2 2.2208 2.18158 -2.41091 5.15172
23 1 -1.1104 3.7719 -1.02125 1.14371
24 1 -1.1104 3.79218 -0.878654 3.81108
15 1 -1.1104 6.61216 -1.08545 3.90402
8 1 -1.1104 6.61264 -3.8733 3.92291
4 1 -1.1104 6.26786 -4.06239 1.10607
11 1 -1.1104 6.53564 -1.1639 1.20345
29 2 2.2208 13.6259 8.89339 11.0598
581 2 2.2208 13.4059 -2.40686 -0.338928
31 2 2.2208 10.7392 0.405766 5.37481
32 1 -1.1104 12.1925 -3.81402 0.976247
34 1 -1.1104 12.0119 -3.82557 3.92798
36 1 -1.1104 12.1785 -0.962102 0.929965
37 2 2.2208 10.6732 -2.44883 2.58058
39 1 -1.1104 12.0943 -1.03104 3.87246
40 1 -1.1104 9.27655 -4.00613 1.07944
42 2 2.2208 7.96601 0.351618 2.60013
43 1 -1.1104 9.39169 -3.67867 3.87664
45 2 2.2208 7.90705 -2.34259 5.49134
47 1 -1.1104 9.36826 -0.972405 1.2101
48 1 -1.1104 9.36595 -1.07243 4.02439
207 1 -1.1104 11.9089 -0.985329 6.61499
205 1 -1.1104 12.2073 -3.8355 6.93869
136 2 2.2208 10.6032 20.2968 8.03913
202 2 2.2208 13.6529 14.3564 5.14594
8455 2 2.2208 7.94388 -5.07133 8.2422
552 2 2.2208 7.94056 20.0907 -0.448488
208 1 -1.1104 9.50771 -3.68731 6.75287
8452 2 2.2208 2.37481 -5.03653 8.2933
229 2 2.2208 13.4947 0.362459 8.04605
9221 2 2.2208 13.5053 20.352 -0.33663
3 1 -1.1104 0.870118 1.81507 1.17817
7 1 -1.1104 0.689684 1.81838 4.05272
13 2 2.2208 5.16038 3.10764 2.73905
17 1 -1.1104 3.87084 1.73127 1.25473
20 1 -1.1104 3.59647 1.80535 3.97538
22 2 2.2208 2.07461 3.21134 5.26442
54 2 2.2208 5.14087 6.13977 5.3958
56 1 -1.1104 0.914031 7.24237 1.17877
58 1 -1.1104 0.793943 7.44052 3.93238
60 1 -1.1104 0.584481 4.62861 1.0415
67 1 -1.1104 0.847929 4.87176 3.9439
71 1 -1.1104 3.39804 7.44048 1.24402
72 2 2.2208 2.32023 5.96642 2.54157
74 1 -1.1104 3.61065 7.5602 4.01493
76 1 -1.1104 3.76235 4.56712 1.32501
79 1 -1.1104 3.6025 4.60423 3.98876
235 1 -1.1104 6.46081 7.65863 6.83326
5 1 -1.1104 6.62783 1.56713 1.23243
63 1 -1.1104 6.67097 4.63808 1.12943
57 1 -1.1104 6.06134 7.57288 1.03327
69 1 -1.1104 6.61744 4.73193 3.92707
59 1 -1.1104 6.58254 7.56105 3.91676
167 1 -1.1104 0.73017 1.70988 6.89529
9 1 -1.1104 6.34829 1.71054 4.14983
51 2 2.2208 13.4852 11.817 8.03924
238 1 -1.1104 3.5977 7.47219 6.74229
239 1 -1.1104 3.43882 4.72902 6.75873
636 2 2.2208 10.8628 11.8823 -0.467892
33 1 -1.1104 12.0972 1.95699 1.35754
35 1 -1.1104 12.0116 1.91883 4.10424
38 2 2.2208 10.6688 3.34093 2.58359
41 1 -1.1104 9.50907 2.03091 0.873277
44 1 -1.1104 9.05456 1.89589 3.98171
46 2 2.2208 7.93608 3.18518 5.41389
84 2 2.2208 10.8194 6.05254 5.21686
86 1 -1.1104 12.2474 7.59993 0.851212
87 1 -1.1104 12.247 7.54071 3.60007
88 1 -1.1104 12.0379 4.84886 0.97458
92 1 -1.1104 12.2491 4.74253 3.88449
95 2 2.2208 7.91111 6.16301 2.56574
97 1 -1.1104 9.49176 7.34192 3.63327
99 1 -1.1104 9.29776 4.87746 1.13958
102 1 -1.1104 9.192 4.44482 3.94747
94 1 -1.1104 8.88271 7.79281 1.18588
544 2 2.2208 5.10648 0.507268 -0.209794
269 1 -1.1104 9.39364 4.5494 6.81423
27 2 2.2208 13.6301 17.3688 8.27479
490 2 2.2208 5.1627 20.367 13.6819
9119 2 2.2208 13.6271 20.1572 10.8202
55 2 2.2208 5.12488 11.763 5.02473
61 1 -1.1104 0.743864 10.4194 0.963633
66 2 2.2208 5.08166 8.85338 2.61006
68 1 -1.1104 0.687323 10.2017 3.86483
73 2 2.2208 2.19383 11.7395 2.42389
75 2 2.2208 1.97879 9.03877 5.22212
77 1 -1.1104 3.48424 10.3894 0.972547
80 1 -1.1104 3.77715 10.4808 3.78396
107 1 -1.1104 0.871291 13.1824 1.0278
113 1 -1.1104 0.579934 13.1009 3.98884
123 1 -1.1104 3.58926 13.1175 1.06789
128 1 -1.1104 3.45753 13.0947 3.77934
64 1 -1.1104 6.16982 10.4905 1.18725
70 1 -1.1104 6.69623 10.318 3.8866
110 1 -1.1104 6.47395 13.2119 1.10691
115 1 -1.1104 6.39343 13.2811 3.97922
576 2 2.2208 8.17546 3.32601 -0.129654
111 1 -1.1104 6.36858 12.8801 6.79585
8449 2 2.2208 5.08315 -5.14974 5.36504
85 2 2.2208 10.5989 11.8239 5.23994
89 1 -1.1104 12.3127 10.2636 0.981996
91 2 2.2208 10.7869 9.00793 2.42869
93 1 -1.1104 12.1895 10.3174 3.57549
96 2 2.2208 7.84427 11.7064 2.52854
98 2 2.2208 7.84265 8.97002 5.38891
100 1 -1.1104 8.81744 10.4854 0.803802
103 1 -1.1104 9.35128 10.4071 3.88703
142 1 -1.1104 12.3615 13.1441 0.816457
146 1 -1.1104 12.1878 13.0984 3.48139
153 1 -1.1104 9.2886 12.8812 1.11408
158 1 -1.1104 9.20745 13.0759 3.80289
143 1 -1.1104 12.1952 13.123 6.43902
8451 2 2.2208 10.8325 -5.06279 5.42561
105 2 2.2208 10.9418 14.5732 8.12549
90 1 -1.1104 12.2025 10.3602 6.56718
610 2 2.2208 2.15547 8.97315 -0.192286
609 2 2.2208 4.96034 6.0075 -0.144317
106 2 2.2208 5.13217 17.2484 5.36059
109 1 -1.1104 0.829931 18.5608 0.891386
114 1 -1.1104 0.870415 18.5287 3.86319
116 1 -1.1104 0.710123 15.7736 0.857902
119 2 2.2208 5.05249 14.4409 2.52797
120 2 2.2208 5.1858 20.0355 2.34821
121 1 -1.1104 0.855891 15.8319 3.83583
125 1 -1.1104 3.60194 18.6235 0.98074
127 2 2.2208 2.24034 17.2585 2.44682
129 1 -1.1104 3.55946 18.5665 3.89862
130 2 2.2208 2.21809 14.4966 5.23531
131 2 2.2208 2.22808 20.043 5.2008
132 1 -1.1104 3.9292 15.8673 0.998446
134 1 -1.1104 3.58564 15.7733 3.80285
138 1 -1.1104 6.49401 18.7389 1.06756
122 1 -1.1104 6.66434 16.1868 3.90952
139 1 -1.1104 6.42166 18.72 4.00825
140 1 -1.1104 6.78228 15.9588 1.0807
311 2 2.2208 7.95239 17.2282 8.13188
9152 2 2.2208 13.4218 -2.49363 5.12636
316 2 2.2208 7.99342 20.2884 11.0033
150 2 2.2208 10.6799 14.6499 2.35601
141 2 2.2208 10.9375 17.0957 5.22151
144 1 -1.1104 12.3447 18.7843 1.04942
147 1 -1.1104 12.188 18.4408 4.01167
148 1 -1.1104 12.2398 16.0099 0.863179
151 2 2.2208 10.9338 20.1596 2.31738
152 1 -1.1104 12.4749 15.8164 3.66685
155 1 -1.1104 9.5422 18.8192 0.983042
157 2 2.2208 7.94267 17.4172 2.40866
159 1 -1.1104 9.43082 18.6792 3.71198
160 2 2.2208 7.83895 14.4753 5.14555
161 2 2.2208 7.90553 20.0314 5.28762
162 1 -1.1104 9.57098 16.0007 1.13384
164 1 -1.1104 9.28735 15.9847 3.92633
156 1 -1.1104 9.32324 18.48 6.56444
17273 2 2.2208 13.5815 -5.17647 2.42549
8448 2 2.2208 2.09502 -4.95026 2.4541
112 1 -1.1104 6.56774 18.6116 6.79993
149 1 -1.1104 12.1445 15.8865 6.54322
163 1 -1.1104 9.54691 15.6958 6.48909
204 2 2.2208 13.6061 9.0251 5.05549
50 1 -1.1104 12.0865 18.5114 12.2929
315 1 -1.1104 9.68777 15.9426 12.251
166 1 -1.1104 0.658166 -3.7121 6.7771
174 1 -1.1104 3.82392 -1.10556 6.56811
171 1 -1.1104 6.63201 -0.931685 6.89565
168 1 -1.1104 6.52297 -3.94416 6.80049
172 1 -1.1104 3.38431 -3.81748 6.55463
170 1 -1.1104 0.911514 -1.01439 6.70572
175 2 2.2208 5.16031 0.628501 10.9153
176 1 -1.1104 0.985025 -3.6888 12.4039
180 1 -1.1104 0.997245 -3.6077 9.57257
184 1 -1.1104 0.747 -0.979267 12.4012
186 2 2.2208 5.11411 -2.42118 8.08559
188 1 -1.1104 0.763191 -0.874852 9.51962
190 1 -1.1104 3.71363 -3.8359 12.1282
192 2 2.2208 2.14451 0.406966 8.01616
193 1 -1.1104 3.67508 -3.68759 9.51883
195 2 2.2208 2.2512 -2.13719 10.9534
197 1 -1.1104 3.59615 -0.840111 12.3394
198 1 -1.1104 3.61135 -0.77465 9.52591
185 1 -1.1104 6.47875 -0.977696 12.5026
182 1 -1.1104 6.62947 -3.59904 9.51728
611 2 2.2208 4.9247 11.6966 -0.363186
189 1 -1.1104 6.43883 -0.904008 9.46873
201 1 -1.1104 9.30085 18.7673 12.363
178 1 -1.1104 6.60134 -3.92625 12.514
210 1 -1.1104 9.26309 -0.855393 6.64956
211 2 2.2208 10.7962 0.507179 11.0241
212 1 -1.1104 12.0716 -3.45732 12.4441
214 1 -1.1104 12.1105 -3.87273 9.48321
216 1 -1.1104 12.004 -0.760281 12.5564
217 2 2.2208 10.7762 -2.44318 8.32339
219 1 -1.1104 11.925 -0.870111 9.43204
220 1 -1.1104 9.45674 -3.58023 12.5135
222 2 2.2208 7.95803 0.449551 8.37986
223 1 -1.1104 9.32549 -3.83058 9.69149
225 2 2.2208 7.97208 -2.34934 11.0703
227 1 -1.1104 9.26177 -0.902537 12.4168
228 1 -1.1104 9.15002 -0.928984 9.6567
546 2 2.2208 2.03111 3.19379 -0.262282
230 2 2.2208 13.5335 -2.53271 11.0143
9151 2 2.2208 13.491 0.418655 2.52081
8525 2 2.2208 10.6699 -5.08703 -0.321492
169 1 -1.1104 6.58039 1.71576 6.80521
236 1 -1.1104 0.720568 4.71866 6.68825
173 1 -1.1104 3.6193 1.82011 6.6661
234 1 -1.1104 0.722079 7.51473 6.62029
177 1 -1.1104 0.554939 2.12562 12.277
181 1 -1.1104 1.01081 1.81343 9.53278
187 2 2.2208 5.16834 3.18452 7.79323
191 1 -1.1104 3.31581 1.88885 12.3411
194 1 -1.1104 3.77984 1.96169 9.31639
196 2 2.2208 2.36465 3.13546 10.758
240 2 2.2208 5.24262 6.14936 10.8283
242 1 -1.1104 1.05174 7.44384 12.3841
244 1 -1.1104 0.946422 7.46774 9.52806
246 1 -1.1104 0.98914 4.71648 12.0922
251 1 -1.1104 0.922307 4.6972 9.23086
255 1 -1.1104 3.90716 7.3872 12.2416
256 2 2.2208 2.26895 6.21348 7.9883
260 1 -1.1104 3.8551 4.6006 12.3386
262 1 -1.1104 3.81669 4.70991 9.6677
245 1 -1.1104 6.45765 7.64792 9.61052
179 1 -1.1104 6.2955 1.76638 12.4801
258 1 -1.1104 3.78443 7.42152 9.29249
253 1 -1.1104 6.63882 4.67362 9.21474
183 1 -1.1104 6.77675 1.96656 9.58358
243 1 -1.1104 6.77486 7.53241 12.273
266 1 -1.1104 12.2277 4.62297 6.97806
635 2 2.2208 7.5522 8.92093 -0.201528
237 1 -1.1104 6.53206 4.677 6.56849
206 1 -1.1104 12.2103 1.96331 6.81112
267 1 -1.1104 9.18293 7.34356 6.41385
248 1 -1.1104 6.66521 4.43559 12.454
265 1 -1.1104 12.2712 7.47501 6.50404
209 1 -1.1104 9.56721 1.8531 6.87263
213 1 -1.1104 12.1058 1.84348 12.4473
215 1 -1.1104 12.1681 1.95382 9.43286
218 2 2.2208 10.6962 3.29091 8.15875
221 1 -1.1104 9.18161 2.03774 12.3678
224 1 -1.1104 9.3287 1.90052 9.56352
226 2 2.2208 7.96402 3.30651 11.0515
268 1 -1.1104 9.24134 4.77137 9.61578
271 1 -1.1104 9.51068 4.70467 12.4244
273 1 -1.1104 9.63624 7.53468 9.12352
275 2 2.2208 7.96918 5.94026 8.09222
276 2 2.2208 10.7656 6.08244 10.855
278 1 -1.1104 12.2536 7.44593 12.3193
279 1 -1.1104 12.3431 7.25805 9.4531
280 1 -1.1104 12.3166 4.66611 12.4596
283 1 -1.1104 12.0469 4.60237 9.59622
285 1 -1.1104 9.35833 7.44874 12.1739
8992 2 2.2208 13.6155 3.23388 10.8773
81 1 -1.1104 12.2934 18.8765 9.58222
108 1 -1.1104 1.06232 12.9129 6.65632
124 1 -1.1104 3.7047 13.0024 6.68627
78 1 -1.1104 3.53798 10.3912 6.357
65 1 -1.1104 6.30442 10.2165 6.62111
62 1 -1.1104 0.786082 10.2245 6.85113
241 2 2.2208 5.07114 11.514 10.9092
247 1 -1.1104 0.891635 10.1052 12.5272
250 2 2.2208 5.16661 8.99539 8.23858
252 1 -1.1104 0.793041 10.2882 9.48611
257 2 2.2208 2.3725 11.6856 8.06471
259 2 2.2208 2.35641 8.8775 10.8844
261 1 -1.1104 3.71734 10.3114 12.3264
263 1 -1.1104 3.64246 10.1364 9.56933
287 1 -1.1104 4.10156 12.9494 12.4018
294 1 -1.1104 0.820751 12.9584 9.56636
299 1 -1.1104 1.31317 12.9834 12.3716
305 1 -1.1104 3.77438 13.1703 9.38883
249 1 -1.1104 6.57517 10.4811 12.4779
297 1 -1.1104 6.95134 13.2653 12.3115
310 2 2.2208 2.41501 14.4899 10.9934
295 2 2.2208 5.17931 14.4982 7.9366
8456 2 2.2208 10.7561 -5.11789 11.0128
101 1 -1.1104 9.36728 10.272 6.6284
232 1 -1.1104 9.21644 18.7386 9.40049
254 1 -1.1104 6.62162 10.4534 9.60342
290 1 -1.1104 6.47791 13.0059 9.64014
154 1 -1.1104 9.47341 13.0267 6.71023
312 1 -1.1104 9.46202 13.1731 9.45288
264 1 -1.1104 9.38923 10.0972 9.6032
270 1 -1.1104 9.58345 10.343 12.3765
272 2 2.2208 8.11709 9.02121 11.0343
274 2 2.2208 7.99597 11.6927 8.21652
277 2 2.2208 10.7838 11.5409 10.8595
281 1 -1.1104 12.2796 10.1783 12.4032
282 2 2.2208 10.9433 8.86584 7.8608
284 1 -1.1104 12.2663 10.3094 9.50239
200 1 -1.1104 9.60066 13.0544 12.2224
49 1 -1.1104 12.3634 12.9357 12.0596
53 1 -1.1104 12.349 13.3987 9.37309
26 2 2.2208 13.5644 14.6988 10.9201
30 2 2.2208 10.6832 17.5109 10.843
302 1 -1.1104 1.1084 18.6103 6.76237
233 2 2.2208 7.94643 14.5579 10.7879
117 1 -1.1104 0.715304 15.9123 6.62905
126 1 -1.1104 3.75002 18.4886 6.96779
133 1 -1.1104 3.81534 15.8295 6.64605
306 1 -1.1104 6.69127 16.0736 12.1705
308 1 -1.1104 3.98981 15.799 12.332
309 2 2.2208 2.18652 20.1319 10.8609
307 1 -1.1104 1.10593 15.9428 12.2559
304 1 -1.1104 4.01887 15.8221 9.69241
286 1 -1.1104 3.70398 18.8089 12.2251
291 1 -1.1104 0.851718 18.649 9.38468
292 1 -1.1104 0.964455 15.8024 9.52637
293 2 2.2208 5.02647 20.0082 8.28405
298 1 -1.1104 0.685715 18.9023 12.2266
300 2 2.2208 5.0876 17.279 11.0652
301 1 -1.1104 3.77184 18.6735 9.69118
303 2 2.2208 2.34439 17.1008 8.17793
8858 2 2.2208 -0.420591 17.3646 10.9189
289 1 -1.1104 6.73199 15.6552 9.30212
118 1 -1.1104 6.54982 15.6618 6.57908
199 1 -1.1104 12.1817 16.068 9.56482
665 2 2.2208 2.23424 14.5934 -0.325884
145 1 -1.1104 12.0662 18.8552 6.93394
82 1 -1.1104 12.3152 15.8547 12.2422
288 1 -1.1104 6.4182 18.4537 9.46163
575 2 2.2208 7.76049 -2.3698 -0.143566
314 1 -1.1104 9.36276 16.0338 9.46619
296 1 -1.1104 6.786 19.1135 12.516
203 2 2.2208 13.5409 19.7913 5.35805
52 2 2.2208 13.6685 6.07251 8.17522
9052 2 2.2208 13.5052 6.08662 2.29077
634 2 2.2208 10.7984 6.27646 -0.370153
545 2 2.2208 2.14926 -2.26954 -0.295229
9018 2 2.2208 -0.366114 19.9259 2.42711
165 2 2.2208 13.5396 17.2161 2.34377
547 2 2.2208 7.85431 14.4302 -0.258107
517 2 2.2208 10.8311 14.6071 13.5332
353 2 2.2208 13.6134 14.5337 -0.407015
663 2 2.2208 2.3013 20.0735 -0.340302
519 2 2.2208 13.6076 17.229 13.6026
548 2 2.2208 10.7577 17.4003 -0.416652
317 2 2.2208 5.16801 0.416139 16.6754
318 1 -1.1104 1.12936 -3.80364 17.953
322 1 -1.1104 0.743287 -3.90447 15.124
330 1 -1.1104 1.03363 -1.20807 18.1975
332 2 2.2208 5.07848 -2.32707 19.6034
334 1 -1.1104 0.946628 -1.08614 15.2484
338 1 -1.1104 3.68553 -3.65631 17.8853
340 2 2.2208 2.30285 0.38848 19.4298
341 1 -1.1104 3.51988 -3.66548 14.9632
345 2 2.2208 2.1936 -2.37357 16.5042
347 1 -1.1104 3.78361 -0.893384 17.9927
348 1 -1.1104 3.67499 -0.868594 15.0523
331 1 -1.1104 6.62206 -0.828421 18.0397
8836 2 2.2208 5.13443 -5.05498 22.3771
336 1 -1.1104 6.70712 -0.951235 15.356
320 1 -1.1104 6.61288 -3.85595 18.085
326 1 -1.1104 6.44443 -3.61785 15.3055
8831 2 2.2208 10.7246 -5.20046 16.5405
8837 2 2.2208 2.27019 -5.21193 25.1902
687 2 2.2208 13.5929 0.432133 13.8872
428 2 2.2208 2.63966 11.7312 13.8897
360 2 2.2208 10.7455 0.474759 16.8042
361 1 -1.1104 12.504 -3.71185 18.1724
363 1 -1.1104 12.1464 -3.49207 15.4717
367 1 -1.1104 12.1372 -1.27591 18.1016
368 2 2.2208 10.761 -2.41941 19.4502
370 1 -1.1104 12.3849 -0.923354 15.2142
372 1 -1.1104 9.39363 -3.73946 18.0867
374 2 2.2208 7.85054 0.611917 19.474
375 1 -1.1104 9.30088 -4.0206 15.342
379 2 2.2208 8.0269 -2.42186 16.5633
381 1 -1.1104 9.37088 -0.900126 17.9913
382 1 -1.1104 9.39956 -1.24988 15.2342
516 2 2.2208 10.794 20.155 13.7141
392 2 2.2208 10.7071 3.36445 13.8224
388 2 2.2208 13.5084 -2.2754 16.8275
371 1 -1.1104 12.2121 -0.777579 20.9229
664 2 2.2208 5.09414 17.3301 27.6752
8828 2 2.2208 2.40373 -5.13005 19.4407
9370 2 2.2208 13.5304 14.5547 22.1933
574 2 2.2208 10.7859 0.395566 27.7307
319 1 -1.1104 0.976018 1.71696 18.0651
324 1 -1.1104 1.00269 1.82389 15.1189
333 2 2.2208 5.09003 3.25727 19.3276
339 1 -1.1104 3.62979 1.90534 17.897
343 1 -1.1104 3.57978 1.83324 15.1559
346 2 2.2208 2.2293 3.29572 16.573
393 2 2.2208 5.16898 6.23289 16.7412
395 1 -1.1104 1.09021 7.4089 17.7638
397 1 -1.1104 1.12395 7.52442 15.1249
401 1 -1.1104 0.879963 4.7606 17.9121
406 1 -1.1104 1.15999 4.6494 15.1167
415 2 2.2208 2.31813 6.01436 19.2464
417 1 -1.1104 3.99234 7.69735 15.3205
420 1 -1.1104 3.52932 4.78377 17.8571
422 1 -1.1104 3.88047 4.9751 15.0484
414 1 -1.1104 3.6137 7.61508 18.0945
403 1 -1.1104 6.37823 4.67351 18.1071
328 1 -1.1104 6.54283 1.94978 15.2718
396 1 -1.1104 6.37452 7.57933 18.0007
399 1 -1.1104 6.57188 7.5045 15.262
321 1 -1.1104 6.64493 1.96577 18.2301
410 1 -1.1104 6.5478 4.65034 15.3335
515 1 -1.1104 9.47179 15.9402 20.7734
411 1 -1.1104 6.54219 4.775 20.9496
613 2 2.2208 -0.48103 8.90415 24.9885
686 2 2.2208 13.5073 3.2012 16.5923
671 1 -1.1104 9.36372 15.9764 23.6559
362 1 -1.1104 12.0736 1.84218 18.1598
365 1 -1.1104 12.0788 1.92112 15.3111
369 2 2.2208 10.6852 3.43558 19.4941
373 1 -1.1104 9.24884 2.0795 17.9604
377 1 -1.1104 9.38771 1.74634 15.3278
380 2 2.2208 7.99654 3.36636 16.6561
429 2 2.2208 10.818 6.12227 16.6899
431 1 -1.1104 12.233 7.64754 18.0545
432 1 -1.1104 12.0917 7.56106 15.1668
434 1 -1.1104 12.1307 4.64064 18.0035
437 1 -1.1104 12.1213 4.80917 15.3161
441 1 -1.1104 9.43438 7.61408 18.0901
442 2 2.2208 7.66308 6.17842 19.481
444 1 -1.1104 9.2305 7.55932 14.9411
447 1 -1.1104 9.38665 4.87756 18.1968
449 1 -1.1104 9.34455 4.64685 15.4084
366 1 -1.1104 12.0949 2.18197 21.1117
582 2 2.2208 13.5734 -2.23989 22.3785
394 2 2.2208 5.35683 11.6975 16.6008
402 1 -1.1104 1.02648 10.4547 18.2768
405 2 2.2208 5.27253 9.03394 19.4896
408 1 -1.1104 1.23457 10.441 15.3404
416 2 2.2208 2.58603 11.7761 19.5628
419 2 2.2208 2.64366 9.12584 16.6101
421 1 -1.1104 3.82749 10.3697 18.2198
424 1 -1.1104 4.11238 10.4103 15.2289
457 1 -1.1104 1.05641 13.3532 18.1923
461 1 -1.1104 0.972485 13.142 15.1811
477 1 -1.1104 3.87005 13.0488 18.0042
480 1 -1.1104 3.79213 13.209 15.3458
404 1 -1.1104 6.73401 10.3497 17.9876
465 1 -1.1104 6.50918 13.1156 15.1543
459 1 -1.1104 6.77557 13.0338 18.029
672 2 2.2208 7.99676 20.0526 22.2595
8524 2 2.2208 10.6001 -5.13541 22.446
9369 2 2.2208 13.4222 17.2604 24.918
412 1 -1.1104 6.7868 10.2323 15.2483
430 2 2.2208 10.7842 11.6109 16.4762
435 1 -1.1104 12.3339 10.5024 17.7097
436 2 2.2208 10.9152 9.09862 19.3927
439 1 -1.1104 12.3464 10.1519 15.0099
443 2 2.2208 8.08794 11.6439 19.4758
446 2 2.2208 8.01411 8.7131 16.6866
448 1 -1.1104 9.42059 10.1667 18.0866
451 1 -1.1104 9.41003 10.1188 15.0386
493 1 -1.1104 12.1657 13.1711 17.7193
495 1 -1.1104 12.1328 13.2427 14.7769
504 1 -1.1104 9.44337 13.0264 18.041
507 1 -1.1104 9.34899 13.0055 15.1958
496 1 -1.1104 12.1348 13.1104 20.5858
354 2 2.2208 -0.474047 -2.34966 19.3924
677 2 2.2208 7.96605 17.1095 24.9761
390 2 2.2208 7.8514 0.434475 13.9911
456 2 2.2208 5.33455 17.2778 16.5813
458 1 -1.1104 0.935247 18.8447 17.9253
463 1 -1.1104 1.01966 18.8804 15.1765
469 1 -1.1104 1.03949 15.9813 17.7554
471 2 2.2208 5.25657 14.5543 19.5389
472 2 2.2208 5.30242 20.0989 19.3769
473 1 -1.1104 0.915614 15.9387 15.0484
478 1 -1.1104 3.69517 18.8427 17.9251
479 2 2.2208 2.36298 17.3346 19.2454
482 1 -1.1104 3.87078 18.9078 15.2605
484 2 2.2208 2.46873 14.4779 16.6518
485 2 2.2208 2.49926 20.313 16.4838
486 1 -1.1104 3.83879 15.8905 18.1042
487 1 -1.1104 3.61303 16.0253 15.1716
467 1 -1.1104 6.714 18.6489 15.4334
475 1 -1.1104 6.52266 16.0384 15.1184
470 1 -1.1104 6.7683 15.7391 18.1331
488 1 -1.1104 3.73399 16.0132 20.8309
8827 2 2.2208 5.19757 -5.21872 16.6159
674 1 -1.1104 9.31062 18.7581 26.3192
483 1 -1.1104 3.80681 18.8926 20.8079
678 1 -1.1104 9.31001 18.6713 23.5882
460 1 -1.1104 6.65668 18.7957 18.0315
492 2 2.2208 10.8357 17.4021 16.5581
494 1 -1.1104 12.0323 18.6819 18.1365
497 1 -1.1104 12.3047 18.7182 15.0746
499 1 -1.1104 12.195 15.8702 18.0372
500 2 2.2208 10.6802 14.4234 19.2806
501 2 2.2208 10.8264 19.9936 19.5509
502 1 -1.1104 12.1367 16.0096 15.2641
505 1 -1.1104 9.21079 18.7378 18.0587
506 2 2.2208 8.00862 17.4313 19.3644
509 1 -1.1104 9.51098 18.6898 15.1218
511 2 2.2208 7.95715 14.4631 16.5787
512 2 2.2208 8.04328 20.145 16.5416
513 1 -1.1104 9.46905 16.0772 17.9639
514 1 -1.1104 9.21003 15.6876 14.9698
510 1 -1.1104 9.29678 18.6122 20.8506
578 2 2.2208 13.6619 8.91345 16.459
357 2 2.2208 4.99879 -2.38164 13.7595
342 1 -1.1104 3.66568 -3.72013 21.0583
349 1 -1.1104 3.46123 -0.944424 21.0977
323 1 -1.1104 0.90899 -3.78335 20.6792
676 1 -1.1104 6.63222 18.6164 26.4043
335 1 -1.1104 0.767939 -0.956866 21.0744
327 1 -1.1104 6.43372 -3.53998 20.9343
520 2 2.2208 4.94332 0.422229 22.4168
521 1 -1.1104 0.815898 -3.66141 23.6357
525 1 -1.1104 0.658587 -3.90619 26.3832
529 1 -1.1104 0.785353 -0.80696 23.6403
531 2 2.2208 4.9823 -2.47196 25.3251
533 1 -1.1104 0.798511 -1.24018 26.5548
535 1 -1.1104 3.81801 -3.88287 23.858
537 2 2.2208 2.22703 0.48314 25.0845
538 1 -1.1104 3.83519 -3.89867 26.6411
540 2 2.2208 2.1217 -2.23141 22.1922
542 1 -1.1104 3.48096 -1.04663 23.9458
543 1 -1.1104 3.68632 -0.927475 26.6598
530 1 -1.1104 6.22418 -0.956094 23.6486
527 1 -1.1104 6.57484 -3.4843 26.5984
523 1 -1.1104 6.50891 -3.79531 23.7174
534 1 -1.1104 6.28607 -0.892484 26.6754
355 2 2.2208 -0.407238 -2.35038 13.7684
364 1 -1.1104 12.1661 -3.76378 20.8411
376 1 -1.1104 9.16327 -3.69182 21.0193
8834 2 2.2208 13.44 -5.07607 13.9161
337 1 -1.1104 6.5227 -0.984803 20.8448
383 1 -1.1104 9.17453 -0.953405 20.8913
556 2 2.2208 10.4529 0.41182 22.1779
557 1 -1.1104 12.0324 -3.73307 23.6315
559 1 -1.1104 11.6733 -3.88948 26.2279
561 1 -1.1104 12.0022 -0.758927 23.8434
562 2 2.2208 10.6163 -2.33158 25.0288
564 1 -1.1104 12.0743 -1.2391 26.4112
565 1 -1.1104 9.36914 -3.89216 23.5812
567 2 2.2208 7.84331 0.543805 25.2258
568 1 -1.1104 9.10449 -3.94738 26.4006
570 2 2.2208 7.73262 -2.34562 22.3584
572 1 -1.1104 8.98355 -0.895237 23.7597
573 1 -1.1104 9.24113 -0.886309 26.4018
389 2 2.2208 -0.398771 8.7999 19.3899
8832 2 2.2208 7.98776 -5.05987 19.5057
325 1 -1.1104 0.77766 1.84846 20.7277
407 1 -1.1104 0.926491 4.70377 20.8383
344 1 -1.1104 3.78072 1.72016 20.7354
329 1 -1.1104 6.40225 2.09198 21.0223
423 1 -1.1104 3.67341 4.5738 20.6888
400 1 -1.1104 6.57421 7.48846 20.9426
391 2 2.2208 10.7759 -2.30592 13.801
398 1 -1.1104 0.878204 7.4256 20.7376
418 1 -1.1104 3.75611 7.31559 20.8397
522 1 -1.1104 1.05775 1.86313 23.5294
526 1 -1.1104 0.79846 1.85057 26.51
532 2 2.2208 5.17591 3.20751 25.1946
536 1 -1.1104 3.66165 1.95405 23.6636
539 1 -1.1104 3.58207 1.80629 26.4588
541 2 2.2208 2.27938 3.19448 22.2218
585 2 2.2208 5.03569 5.93859 22.3185
587 1 -1.1104 0.913485 7.39651 23.7086
589 1 -1.1104 1.11636 7.44449 26.5269
591 1 -1.1104 0.848046 4.56723 23.7116
596 1 -1.1104 0.738701 4.55599 26.4415
600 1 -1.1104 3.78627 7.39245 23.6855
601 2 2.2208 2.30707 5.89258 25.2071
603 1 -1.1104 3.69805 7.28129 26.5232
605 1 -1.1104 3.68004 4.61889 23.661
607 1 -1.1104 3.51881 4.51422 26.7549
590 1 -1.1104 6.29043 7.50711 26.6168
598 1 -1.1104 6.41049 4.72938 26.6681
524 1 -1.1104 6.58428 1.95476 23.8338
528 1 -1.1104 6.55395 1.89754 26.694
588 1 -1.1104 6.45839 7.38172 23.7845
593 1 -1.1104 6.37451 4.61749 23.662
438 1 -1.1104 12.1435 4.86944 20.7126
450 1 -1.1104 9.28037 4.46855 21.0234
445 1 -1.1104 9.3329 7.27308 20.6859
359 2 2.2208 4.92448 3.39272 13.8899
491 2 2.2208 5.18605 14.4657 13.7108
433 1 -1.1104 12.0371 7.61549 20.9588
549 2 2.2208 -0.28662 11.6543 16.6883
378 1 -1.1104 9.24093 1.75907 20.6718
558 1 -1.1104 12.4933 2.26864 23.9104
560 1 -1.1104 11.9643 1.67937 26.6137
563 2 2.2208 10.7066 3.37933 25.0758
566 1 -1.1104 9.34531 1.85301 23.6465
569 1 -1.1104 9.33372 2.0586 26.4487
571 2 2.2208 7.79607 3.37303 22.271
617 1 -1.1104 9.34557 4.77026 26.5682
619 1 -1.1104 9.20571 4.77404 23.9048
621 1 -1.1104 9.13171 7.56896 26.6245
623 2 2.2208 7.86131 6.15951 25.178
624 2 2.2208 10.754 6.13712 22.2056
626 1 -1.1104 12.055 7.59154 23.6364
627 1 -1.1104 12.0368 7.53636 26.4069
628 1 -1.1104 11.8921 4.99065 23.7204
631 1 -1.1104 12.2653 4.67461 26.4301
633 1 -1.1104 9.40354 7.59952 23.7395
409 1 -1.1104 1.13387 10.3184 21.0031
481 1 -1.1104 4.03575 13.1443 21.0554
413 1 -1.1104 6.67724 10.2485 20.6855
462 1 -1.1104 1.11744 13.1667 20.8292
425 1 -1.1104 3.83645 10.2027 21.056
657 1 -1.1104 3.89526 13.1119 26.3612
586 2 2.2208 5.19039 11.6528 22.4148
592 1 -1.1104 0.995083 10.4604 23.6755
595 2 2.2208 5.01559 8.74833 25.1708
597 1 -1.1104 0.803721 10.0793 26.5378
602 2 2.2208 2.2191 11.6456 25.152
604 2 2.2208 2.3755 8.94068 22.3621
606 1 -1.1104 3.83142 10.1391 23.7312
608 1 -1.1104 3.51764 10.4048 26.5846
652 1 -1.1104 0.977005 13.4341 23.4592
642 1 -1.1104 3.67856 13.1404 23.7843
646 1 -1.1104 0.939129 13.0139 26.2064
594 1 -1.1104 6.75086 10.2226 23.7573
641 1 -1.1104 6.68425 12.9991 26.6051
650 1 -1.1104 6.52382 13.3229 23.6598
599 1 -1.1104 6.43546 10.5202 26.6152
681 2 2.2208 10.8003 20.3808 24.9472
508 1 -1.1104 9.49458 13.0861 20.8127
452 1 -1.1104 9.45409 10.2309 20.8536
440 1 -1.1104 12.3133 10.4562 20.6413
670 1 -1.1104 9.12326 16.1176 26.6001
466 1 -1.1104 6.82806 13.2106 20.7024
685 1 -1.1104 12.2471 13.1499 26.3926
679 1 -1.1104 9.30919 13.192 23.7634
637 1 -1.1104 12.0901 13.1503 23.6056
675 1 -1.1104 9.50278 13.3065 26.6385
616 1 -1.1104 9.42403 10.4725 26.3588
618 1 -1.1104 9.42845 10.2198 23.6065
620 2 2.2208 8.07425 8.69434 22.3296
622 2 2.2208 7.95578 11.7835 25.0568
625 2 2.2208 10.7492 11.5854 22.137
629 1 -1.1104 12.1513 10.0348 23.6444
630 2 2.2208 10.8493 9.0033 25.1571
632 1 -1.1104 12.2062 10.4137 26.3779
518 2 2.2208 8.0043 17.4138 13.668
673 2 2.2208 7.87791 14.5959 22.1807
688 2 2.2208 13.4983 0.466761 19.6146
474 1 -1.1104 0.988694 15.957 20.6237
476 1 -1.1104 6.57049 15.8132 20.7633
464 1 -1.1104 1.2004 18.6085 20.6912
647 1 -1.1104 6.44352 18.842 23.5691
658 1 -1.1104 6.58883 16.0161 23.5037
660 1 -1.1104 3.78095 16.0618 23.5988
659 1 -1.1104 0.962541 16.0834 23.707
656 1 -1.1104 3.66137 16.0152 26.4323
655 2 2.2208 2.37926 17.4553 25.0661
654 1 -1.1104 3.66104 18.6323 26.6095
653 2 2.2208 4.97038 17.5172 22.2309
651 1 -1.1104 1.04174 18.8479 23.5835
662 2 2.2208 2.43528 14.5598 22.2721
661 2 2.2208 2.32301 20.237 21.989
649 2 2.2208 5.25294 14.512 25.1077
640 1 -1.1104 3.76724 18.9693 23.5963
644 1 -1.1104 0.852576 18.711 26.1408
645 1 -1.1104 0.93265 15.9791 26.5323
648 2 2.2208 5.1698 20.279 24.9833
643 1 -1.1104 6.56113 15.6791 26.4547
468 1 -1.1104 6.67226 18.8657 20.7212
680 1 -1.1104 11.9028 16.017 26.4947
683 1 -1.1104 12.2055 15.9733 23.4946
553 2 2.2208 10.8457 17.2802 22.0928
684 1 -1.1104 12.414 18.7477 26.5613
498 1 -1.1104 12.2007 18.7973 20.7481
503 1 -1.1104 12.3126 16.2028 20.7299
669 1 -1.1104 12.0185 18.8627 23.5903
682 2 2.2208 10.7103 14.6025 25.1331
453 2 2.2208 7.89023 5.9409 13.854
639 2 2.2208 13.5173 6.09784 24.9046
614 2 2.2208 -0.279564 11.752 22.2008
454 2 2.2208 10.799 8.7886 13.7125
489 2 2.2208 2.40067 17.5406 13.8671
583 2 2.2208 13.5322 0.470177 25.1291
8523 2 2.2208 7.72731 -5.15407 25.0936
351 2 2.2208 13.6758 8.92242 22.2702
9386 2 2.2208 13.5469 3.41916 22.0019
386 2 2.2208 -0.385358 8.65918 13.7776
551 2 2.2208 13.6461 11.6498 19.2443
385 2 2.2208 13.5907 14.6125 16.4285
350 2 2.2208 -0.34346 5.99756 22.2826
579 2 2.2208 13.5665 5.98173 13.9287
577 2 2.2208 13.4858 6.27886 19.3803
584 2 2.2208 13.4842 3.30152 27.7958
455 2 2.2208 8.09627 11.821 13.7838
9178 2 2.2208 13.5658 11.9181 24.9059
8833 2 2.2208 7.82054 -5.25412 13.9872
9177 2 2.2208 -0.404602 17.407 22.4295
387 2 2.2208 -0.283351 6.20839 16.408
9220 2 2.2208 13.5455 20.1133 22.129
352 2 2.2208 -0.274892 14.5744 19.2626
9366 2 2.2208 -0.322794 17.3824 16.5166
426 2 2.2208 2.37146 6.02641 13.7197
358 2 2.2208 2.20592 0.425005 13.7587
427 2 2.2208 5.54858 8.97808 13.8105
689 2 2.2208 5.22064 22.7782 5.13805
691 1 -1.1104 0.862921 24.28 1.04359
692 1 -1.1104 0.89079 24.5296 3.74507
693 1 -1.1104 0.958337 21.2492 0.952113
694 1 -1.1104 0.849021 27.1928 1.11967
695 2 2.2208 4.90823 25.8272 2.2906
696 1 -1.1104 1.16503 21.5412 3.80671
698 1 -1.1104 3.80371 24.1992 1.1241
699 2 2.2208 2.37825 22.8629 2.36935
701 1 -1.1104 3.55783 24.0298 4.0101
702 2 2.2208 2.36404 25.8336 5.27684
703 1 -1.1104 3.7777 21.561 1.04389
705 1 -1.1104 3.87505 21.2602 3.86084
836 1 -1.1104 3.804 24.2397 6.61554
711 1 -1.1104 6.56549 24.1926 3.98395
697 1 -1.1104 0.794155 27.5261 3.88868
712 1 -1.1104 6.65029 21.4072 1.072
715 1 -1.1104 6.39382 27.3507 3.48508
714 1 -1.1104 6.60776 21.5138 3.84109
834 1 -1.1104 6.66814 21.4821 6.66389
706 1 -1.1104 3.58309 27.181 3.76107
704 1 -1.1104 3.63044 27.1064 0.902849
713 1 -1.1104 6.53284 27.129 0.778279
9810 2 2.2208 13.6191 34.2038 2.40054
837 1 -1.1104 3.69781 21.3704 6.66151
710 1 -1.1104 6.43845 24.2761 0.974096
835 1 -1.1104 6.41711 27.1349 6.53834
716 2 2.2208 10.7995 22.896 5.20341
718 1 -1.1104 11.9848 24.6665 1.00364
719 1 -1.1104 12.3662 24.3237 3.8049
720 1 -1.1104 12.0897 21.5411 0.925678
722 2 2.2208 10.779 25.7862 2.52599
723 1 -1.1104 12.24 21.4018 3.96586
724 1 -1.1104 12.1638 27.0888 3.97812
725 1 -1.1104 9.27362 24.6272 0.987493
726 2 2.2208 7.91967 22.9334 2.31464
728 1 -1.1104 9.23265 24.3871 3.67905
729 2 2.2208 7.84706 25.6688 5.29682
730 1 -1.1104 9.38124 21.7267 0.990559
731 1 -1.1104 9.30342 27.3065 0.956068
732 1 -1.1104 9.44419 21.4649 3.72493
721 1 -1.1104 12.2079 27.4022 0.818426
866 1 -1.1104 9.49842 24.2487 6.5155
864 1 -1.1104 12.2647 21.7438 6.99808
1231 2 2.2208 13.5891 45.5862 13.666
978 1 -1.1104 9.36872 41.3774 9.7403
868 1 -1.1104 9.30427 27.0176 6.33997
9818 2 2.2208 13.5182 25.878 -0.34142
988 2 2.2208 10.7996 37.0038 13.6374
9951 2 2.2208 -0.31379 37.066 13.644
690 2 2.2208 5.18022 28.6821 5.21026
700 2 2.2208 2.08573 28.645 2.42348
738 1 -1.1104 0.897143 30.0032 0.821514
741 1 -1.1104 0.87503 30.1404 3.74712
744 1 -1.1104 0.982635 32.8818 1.00383
745 2 2.2208 5.16991 31.2534 2.4565
747 1 -1.1104 0.840548 32.8343 3.95363
749 1 -1.1104 3.76413 30.1611 1.12375
752 1 -1.1104 3.58463 30.1059 3.91776
754 2 2.2208 2.16568 31.4821 5.24416
756 1 -1.1104 3.9257 32.9175 0.757069
757 1 -1.1104 3.8487 33.0103 3.75585
888 1 -1.1104 3.61656 30.1438 6.43636
762 1 -1.1104 6.4724 29.9692 3.8346
761 1 -1.1104 6.54914 30.0035 1.11701
890 1 -1.1104 3.70718 32.8673 6.66911
9644 2 2.2208 13.4852 28.4895 8.08801
887 1 -1.1104 6.44598 32.7873 6.58667
886 1 -1.1104 0.711306 32.7452 6.78385
1197 2 2.2208 2.1747 25.6529 -0.19607
733 1 -1.1104 9.38001 27.2675 3.76928
748 1 -1.1104 6.49555 32.8708 3.87
763 1 -1.1104 6.65531 32.7137 1.08867
10162 2 2.2208 13.4661 42.5906 -0.405363
717 2 2.2208 10.8838 28.6429 5.29488
727 2 2.2208 7.99457 28.6891 2.37124
765 1 -1.1104 12.2566 30.0248 1.2851
767 1 -1.1104 12.324 30.0085 3.96163
769 1 -1.1104 12.2651 32.913 0.976196
770 2 2.2208 10.8561 31.4157 2.35676
772 1 -1.1104 12.3274 32.7077 3.68567
773 1 -1.1104 9.33529 30.2055 1.16559
776 1 -1.1104 9.43237 30.2133 3.74724
778 2 2.2208 7.88927 31.5332 5.00722
780 1 -1.1104 9.50808 32.9556 0.94817
781 1 -1.1104 9.29914 32.9472 3.92402
919 1 -1.1104 9.09588 30.1406 6.31458