ITEM: TIMESTEP
70000
ITEM: NUMBER OF ATOMS
17640
ITEM: BOX BOUNDS pp pp pp
-4.5903355152988334e-01 2.7799033551529597e+01
-5.1350384017623298e+00 3.3321503840177098e+02
-4.4632050556949110e-01 2.7786320505569936e+01
ITEM: ATOMS id type q x y z
1 2 2.2208 5.26885 0.567873 5.05304
2 1 -1.1104 0.949158 -3.59141 0.787046
6 1 -1.1104 1.10817 -3.93112 3.70731
10 1 -1.1104 1.06125 -0.929748 0.931439
12 2 2.2208 5.37279 -2.4197 2.16311
14 1 -1.1104 1.01428 -0.945903 3.75157
16 1 -1.1104 3.60741 -3.79671 0.882993
18 2 2.2208 2.45818 0.58409 2.38494
19 1 -1.1104 3.7757 -3.81225 3.55834
21 2 2.2208 2.3715 -2.45493 5.08354
23 1 -1.1104 3.98735 -0.687085 0.908401
24 1 -1.1104 3.62907 -0.862644 3.83556
8 1 -1.1104 6.60967 -3.90118 3.61056
15 1 -1.1104 6.56812 -1.06538 3.55198
168 1 -1.1104 6.75202 -3.621 6.36316
4 1 -1.1104 6.50597 -3.77114 0.566227
166 1 -1.1104 1.09676 -3.84319 6.58863
171 1 -1.1104 6.61939 -0.739453 6.29673
104 2 2.2208 13.6668 11.8064 2.28719
9150 2 2.2208 -0.276845 6.12372 5.38444
11 1 -1.1104 6.79449 -0.894096 0.653451
31 2 2.2208 11.0355 0.553584 5.05364
32 1 -1.1104 12.4168 -3.61048 0.903565
34 1 -1.1104 12.2639 -3.84641 3.89124
36 1 -1.1104 12.0776 -0.917533 0.859094
37 2 2.2208 10.9449 -2.30577 2.45117
39 1 -1.1104 12.1628 -0.815478 3.69306
40 1 -1.1104 9.48172 -3.72933 0.757923
42 2 2.2208 7.88019 0.634172 2.02637
43 1 -1.1104 9.57479 -3.77435 3.74927
45 2 2.2208 7.9949 -2.29304 4.93898
47 1 -1.1104 9.39164 -0.910328 0.936604
48 1 -1.1104 9.36384 -0.897557 3.77982
210 1 -1.1104 9.67855 -0.620548 6.70988
205 1 -1.1104 12.4115 -3.91557 6.59386
17272 2 2.2208 -0.399952 -5.12113 5.33109
8448 2 2.2208 2.38465 -5.10619 2.32553
81 1 -1.1104 12.3784 18.851 9.45297
50 1 -1.1104 12.2378 18.6884 12.3304
201 1 -1.1104 9.24839 18.9961 12.6527
3 1 -1.1104 0.827874 2.03055 0.936822
7 1 -1.1104 1.00194 2.00035 3.84657
13 2 2.2208 5.1253 3.46331 2.4145
17 1 -1.1104 3.86148 2.10702 1.01611
20 1 -1.1104 3.82375 1.98604 3.68733
22 2 2.2208 2.46557 3.40248 5.29491
54 2 2.2208 5.0401 6.22836 5.29228
56 1 -1.1104 1.15355 7.44453 1.01198
60 1 -1.1104 1.1787 4.74802 0.977457
67 1 -1.1104 1.16204 4.91201 3.87986
72 2 2.2208 2.58066 6.09933 2.30428
74 1 -1.1104 3.91718 7.59119 3.72613
76 1 -1.1104 3.85527 4.92062 0.965061
79 1 -1.1104 3.89372 4.65878 3.72919
58 1 -1.1104 0.89978 7.57329 3.85509
9 1 -1.1104 6.68491 2.13455 3.65167
5 1 -1.1104 6.569 1.93882 0.830492
63 1 -1.1104 6.68699 4.82288 0.907268
59 1 -1.1104 6.71595 7.6475 3.76167
57 1 -1.1104 6.57811 7.45987 0.899187
69 1 -1.1104 6.53327 4.85708 3.80408
173 1 -1.1104 3.96904 1.96229 6.62123
234 1 -1.1104 1.12262 7.34775 6.50745
71 1 -1.1104 3.86196 7.64982 1.19102
167 1 -1.1104 1.08283 1.82001 6.6273
236 1 -1.1104 1.24154 4.61994 6.87323
9018 2 2.2208 -0.185774 20.2829 2.42803
453 2 2.2208 8.01785 6.07973 13.6091
33 1 -1.1104 12.126 1.84461 0.90703
35 1 -1.1104 12.6388 1.95525 3.94468
38 2 2.2208 10.7429 3.35286 2.1728
41 1 -1.1104 9.25117 1.78524 0.740908
44 1 -1.1104 9.72793 1.76741 3.45591
46 2 2.2208 8.10397 3.26528 5.00959
84 2 2.2208 10.7565 5.94657 5.02278
86 1 -1.1104 12.2405 7.52779 1.19229
87 1 -1.1104 12.2547 7.31383 3.83077
88 1 -1.1104 12.1187 4.9044 0.653957
92 1 -1.1104 12.0749 4.59139 3.54723
95 2 2.2208 7.9554 6.23777 2.23569
97 1 -1.1104 9.50008 7.23159 3.75389
99 1 -1.1104 9.55212 4.68728 0.815467
102 1 -1.1104 9.22937 4.55097 3.75366
94 1 -1.1104 9.33784 7.63203 0.903508
265 1 -1.1104 12.518 7.45477 6.68285
358 2 2.2208 2.29767 0.41771 13.6197
269 1 -1.1104 9.30801 4.60775 6.70886
169 1 -1.1104 6.72422 2.03475 6.64241
209 1 -1.1104 9.6031 1.9506 6.38209
266 1 -1.1104 12.3512 4.61098 6.64981
82 1 -1.1104 12.5295 15.8422 12.3857
55 2 2.2208 5.33814 11.7606 4.98041
61 1 -1.1104 1.30668 10.2859 1.12888
66 2 2.2208 5.20996 9.01618 2.35617
68 1 -1.1104 1.10039 10.5111 4.0167
73 2 2.2208 2.43171 11.8742 2.44947
75 2 2.2208 2.46178 9.05608 5.24816
77 1 -1.1104 4.03286 10.4359 0.990771
80 1 -1.1104 3.86867 10.2187 3.84615
107 1 -1.1104 0.97398 13.096 1.23963
113 1 -1.1104 0.993607 13.3178 4.08279
123 1 -1.1104 3.81744 13.1282 0.896106
128 1 -1.1104 3.84296 13.2974 3.80376
115 1 -1.1104 6.68261 13.1501 3.76552
70 1 -1.1104 6.67651 10.4367 3.7627
64 1 -1.1104 6.64291 10.5117 0.868576
110 1 -1.1104 6.59872 13.3546 0.789102
8456 2 2.2208 10.7117 -5.03 10.9404
137 2 2.2208 -0.409498 17.703 5.21571
108 1 -1.1104 0.859894 13.0523 6.89011
111 1 -1.1104 6.45208 13.3194 6.36573
62 1 -1.1104 0.855456 10.3445 6.62105
311 2 2.2208 8.1811 17.4415 8.08255
85 2 2.2208 10.797 11.5944 5.23144
89 1 -1.1104 12.4359 10.8062 0.539176
91 2 2.2208 10.8833 8.77864 2.39697
93 1 -1.1104 12.4884 10.344 3.6806
96 2 2.2208 7.98861 11.7251 2.28559
98 2 2.2208 8.22203 8.91326 5.26099
100 1 -1.1104 9.71849 10.2059 0.986254
103 1 -1.1104 9.73421 10.2236 3.915
142 1 -1.1104 12.2636 13.5266 0.93295
146 1 -1.1104 12.3796 13.0285 3.92843
153 1 -1.1104 9.40747 12.9553 1.02838
158 1 -1.1104 9.37782 13.0384 3.89461
101 1 -1.1104 9.71163 10.2358 6.63949
150 2 2.2208 10.8476 14.6318 2.37094
8452 2 2.2208 2.35121 -5.09492 8.15117
199 1 -1.1104 12.3802 16.0576 9.6171
9017 2 2.2208 -0.44307 3.28396 7.95961
135 2 2.2208 -0.416621 14.7127 2.37821
489 2 2.2208 2.35948 17.4883 13.5981
490 2 2.2208 5.25029 20.4397 13.596
130 2 2.2208 2.52221 14.6014 5.21473
119 2 2.2208 5.32126 14.5838 2.32836
106 2 2.2208 5.31581 17.501 5.21766
109 1 -1.1104 1.04807 18.7534 0.829426
114 1 -1.1104 1.12231 19.1006 3.94126
116 1 -1.1104 1.29652 16.0683 0.902028
120 2 2.2208 5.28255 20.2095 2.48156
121 1 -1.1104 1.25449 16.1688 3.708
125 1 -1.1104 3.82713 19.0606 1.08458
127 2 2.2208 2.47569 17.4709 2.378
129 1 -1.1104 3.98553 18.6007 3.79003
131 2 2.2208 2.51145 20.3719 5.31434
132 1 -1.1104 3.84191 16.029 1.03304
134 1 -1.1104 4.15801 15.8633 3.87491
122 1 -1.1104 6.8344 16.0532 3.69978
302 1 -1.1104 0.964147 18.9475 6.52896
357 2 2.2208 5.26418 -2.40615 13.5303
136 2 2.2208 10.943 20.2148 7.99924
8455 2 2.2208 8.09106 -5.06474 7.74567
426 2 2.2208 2.48096 6.17274 13.6326
139 1 -1.1104 6.87886 18.9073 3.9857
140 1 -1.1104 6.68485 16.0666 1.08156
138 1 -1.1104 6.59259 18.9656 1.01662
163 1 -1.1104 9.48087 16.1077 6.49172
141 2 2.2208 10.9527 17.468 5.21156
144 1 -1.1104 12.4291 19.0188 1.14405
147 1 -1.1104 12.3856 18.7206 3.99237
148 1 -1.1104 12.3496 16.3948 0.804331
151 2 2.2208 10.9828 20.2971 2.57386
152 1 -1.1104 12.4668 15.7864 3.56926
155 1 -1.1104 9.58019 18.6707 1.22556
157 2 2.2208 8.08611 17.6067 2.44586
159 1 -1.1104 9.60227 18.8061 3.88003
160 2 2.2208 8.05346 14.5409 5.19956
161 2 2.2208 8.04935 20.2008 5.34444
162 1 -1.1104 9.38657 15.7917 0.825826
164 1 -1.1104 9.7688 16.14 3.61977
314 1 -1.1104 9.50393 16.0835 9.3599
156 1 -1.1104 9.40479 18.6799 6.59781
491 2 2.2208 5.11138 14.7417 13.602
579 2 2.2208 13.5258 6.23598 13.649
149 1 -1.1104 12.2248 15.9907 6.59566
174 1 -1.1104 3.69976 -0.901238 6.57414
172 1 -1.1104 3.92451 -3.55634 6.22881
170 1 -1.1104 1.06862 -1.09481 6.5937
175 2 2.2208 5.13193 0.519536 10.6428
176 1 -1.1104 0.840609 -3.75929 12.4011
180 1 -1.1104 0.977136 -3.89902 9.50081
184 1 -1.1104 0.847774 -0.808903 12.2088
186 2 2.2208 5.20945 -2.32617 7.78195
188 1 -1.1104 0.875012 -0.979513 9.39739
190 1 -1.1104 3.61772 -4.00527 12.1634
192 2 2.2208 2.44627 0.502404 7.87836
193 1 -1.1104 3.76922 -3.92641 9.15493
195 2 2.2208 2.38196 -2.3571 10.8104
197 1 -1.1104 3.81233 -1.25237 11.9243
198 1 -1.1104 3.59871 -1.00688 9.20715
189 1 -1.1104 6.77009 -0.983124 9.0511
182 1 -1.1104 6.55284 -3.63432 9.26325
185 1 -1.1104 6.60524 -0.865644 12.0774
517 2 2.2208 10.8989 14.5285 13.6452
178 1 -1.1104 6.48588 -3.74034 12.0596
316 2 2.2208 7.98291 20.3371 10.8315
428 2 2.2208 2.36827 11.7141 13.4588
145 1 -1.1104 12.2775 18.717 6.69954
610 2 2.2208 2.52874 8.97151 -0.364766
9052 2 2.2208 13.5683 6.0225 2.39335
208 1 -1.1104 9.44425 -3.48876 6.35567
207 1 -1.1104 12.3662 -1.00478 6.62546
211 2 2.2208 10.8128 0.41264 10.8259
212 1 -1.1104 12.2861 -3.76577 12.1488
214 1 -1.1104 12.3168 -3.83245 9.48963
216 1 -1.1104 12.257 -1.006 12.2303
217 2 2.2208 10.9105 -2.20766 7.98595
219 1 -1.1104 12.4043 -0.929206 9.41161
220 1 -1.1104 9.2205 -3.75881 12.1615
222 2 2.2208 8.02533 0.660443 7.88183
223 1 -1.1104 9.43644 -3.82244 9.4472
225 2 2.2208 7.95512 -2.29845 10.681
227 1 -1.1104 9.54113 -0.913766 12.215
228 1 -1.1104 9.48152 -1.02837 9.5236
30 2 2.2208 10.9856 17.4247 10.8419
519 2 2.2208 13.6039 17.478 13.5774
232 1 -1.1104 9.68967 18.8037 9.54518
296 1 -1.1104 6.4658 18.9463 12.3025
238 1 -1.1104 3.8088 7.60632 6.64593
239 1 -1.1104 3.85656 4.98208 6.58267
237 1 -1.1104 6.50452 4.81653 6.61639
177 1 -1.1104 1.19335 1.91801 12.3454
181 1 -1.1104 0.974373 1.85619 9.36579
187 2 2.2208 5.21429 3.32721 8.02366
191 1 -1.1104 3.92629 1.61845 12.1686
194 1 -1.1104 3.62728 2.09534 9.3232
196 2 2.2208 2.28897 3.32899 10.7349
240 2 2.2208 5.23365 6.10155 10.8319
244 1 -1.1104 0.953958 7.37593 9.43952
246 1 -1.1104 0.976619 4.79792 12.2808
251 1 -1.1104 1.07117 4.65764 9.44246
256 2 2.2208 2.50378 6.01932 8.1288
260 1 -1.1104 3.73545 4.65814 12.1499
262 1 -1.1104 3.83087 4.71783 9.34808
258 1 -1.1104 3.76944 7.52043 9.60954
255 1 -1.1104 3.71675 7.54332 12.4044
242 1 -1.1104 0.903833 7.5625 12.1739
245 1 -1.1104 6.62691 7.39161 9.32356
243 1 -1.1104 6.54215 7.75925 12.0951
179 1 -1.1104 6.59413 1.99407 12.2392
183 1 -1.1104 6.52962 1.92181 9.41344
248 1 -1.1104 6.44611 4.71363 12.323
253 1 -1.1104 6.56129 4.69315 9.61747
235 1 -1.1104 6.76361 7.68355 6.62454
267 1 -1.1104 9.67736 7.26502 6.63714
206 1 -1.1104 12.3738 1.85389 6.77486
230 2 2.2208 13.609 -2.48632 10.7154
213 1 -1.1104 12.2191 1.85308 12.415
215 1 -1.1104 12.1472 1.80604 9.55655
218 2 2.2208 10.8461 3.30264 7.83938
221 1 -1.1104 9.52551 2.07882 12.1072
224 1 -1.1104 9.3551 1.945 9.33212
226 2 2.2208 7.95842 3.26406 10.8138
268 1 -1.1104 9.38896 4.6284 9.4154
271 1 -1.1104 9.31846 4.57407 12.072
273 1 -1.1104 9.31343 7.50168 9.34597
275 2 2.2208 8.0022 5.94547 8.00743
276 2 2.2208 10.8142 5.98214 10.9304
278 1 -1.1104 12.2549 7.51111 12.3483
280 1 -1.1104 12.3332 4.69544 12.4129
283 1 -1.1104 12.1198 4.80315 9.51203
279 1 -1.1104 12.2324 7.55094 9.60749
285 1 -1.1104 9.40434 7.56995 12.2019
455 2 2.2208 7.98686 11.8053 13.4083
634 2 2.2208 10.7312 6.25804 -0.397848
454 2 2.2208 10.7675 8.97682 13.6575
306 1 -1.1104 6.5575 16.1013 12.1273
9219 2 2.2208 -0.450803 0.584548 -0.354952
124 1 -1.1104 3.80302 13.2246 6.72107
78 1 -1.1104 4.037 10.4142 6.61614
241 2 2.2208 5.24927 11.5583 10.6594
247 1 -1.1104 1.13033 10.2857 12.2405
250 2 2.2208 5.31293 9.03304 7.80929
252 1 -1.1104 0.849024 10.2495 9.53632
257 2 2.2208 2.36848 11.9226 8.05145
259 2 2.2208 2.20008 9.04373 10.9753
261 1 -1.1104 3.79899 10.4085 12.2193
263 1 -1.1104 3.60357 10.3393 9.27301
287 1 -1.1104 3.79903 13.2231 12.3423
294 1 -1.1104 1.11591 13.0888 9.4513
299 1 -1.1104 0.816445 13.1531 12.1396
305 1 -1.1104 3.95426 13.1426 9.6494
297 1 -1.1104 6.58914 13.1565 11.9572
249 1 -1.1104 6.58376 10.3427 11.9867
254 1 -1.1104 6.84042 10.3876 8.98847
290 1 -1.1104 7.00769 13.3018 9.19956
315 1 -1.1104 9.52635 16.0931 12.2966
112 1 -1.1104 6.63685 19.0887 6.94953
65 1 -1.1104 6.9564 10.3565 6.50581
9086 2 2.2208 -0.313666 8.97935 8.10644
143 1 -1.1104 12.216 13.1618 6.7267
90 1 -1.1104 12.5163 10.3308 6.56633
154 1 -1.1104 9.45889 13.3548 6.75118
312 1 -1.1104 9.63962 13.0089 9.57935
264 1 -1.1104 9.87044 10.2303 9.41877
270 1 -1.1104 9.38436 10.2782 12.1951
272 2 2.2208 8.13421 9.05622 10.6298
274 2 2.2208 8.31557 11.8244 7.88089
277 2 2.2208 10.9989 11.7281 10.8093
281 1 -1.1104 12.5174 10.2222 12.3731
282 2 2.2208 10.9894 8.75199 8.02088
284 1 -1.1104 12.6531 10.3703 9.5136
200 1 -1.1104 9.53254 13.0781 12.3198
49 1 -1.1104 12.4246 13.049 12.288
53 1 -1.1104 12.4447 13.1726 9.55143
289 1 -1.1104 6.65145 15.9201 9.23108
288 1 -1.1104 6.77307 18.7196 9.54081
126 1 -1.1104 3.77359 18.9196 6.46608
118 1 -1.1104 6.7771 16.3951 6.46067
9087 2 2.2208 -0.238728 6.18945 10.9731
105 2 2.2208 11.0138 14.737 8.23331
233 2 2.2208 8.04269 14.687 10.8115
133 1 -1.1104 3.94771 15.9665 6.60457
117 1 -1.1104 1.03458 16.1863 6.56814
310 2 2.2208 2.47846 14.5629 10.7927
295 2 2.2208 5.35975 14.6781 7.89833
308 1 -1.1104 3.61292 16.0953 12.1618
309 2 2.2208 2.43058 20.2998 10.7404
307 1 -1.1104 0.763593 15.9454 12.2841
304 1 -1.1104 3.83119 15.8207 9.45719
286 1 -1.1104 3.75715 19.0932 12.3725
291 1 -1.1104 0.8985 18.9379 9.20947
292 1 -1.1104 1.10245 15.9576 9.45693
293 2 2.2208 5.3006 20.5273 8.09623
298 1 -1.1104 0.967697 18.7374 12.2128
300 2 2.2208 5.21271 17.4102 10.7362
301 1 -1.1104 3.77338 18.7761 9.5011
303 2 2.2208 2.38142 17.5209 7.9848
25 2 2.2208 -0.370083 -2.20916 2.34012
9148 2 2.2208 -0.322914 0.397115 5.29625
664 2 2.2208 5.11786 17.5995 -0.381455
83 2 2.2208 -0.45493 11.8567 5.11324
9368 2 2.2208 -0.356398 20.3079 13.6344
359 2 2.2208 4.98369 3.1076 13.5688
9149 2 2.2208 -0.332689 3.36171 2.40183
9119 2 2.2208 13.6291 20.1991 10.9029
552 2 2.2208 8.02302 20.3479 -0.370075
548 2 2.2208 10.6822 17.4502 -0.284359
9053 2 2.2208 -0.191553 8.83968 2.30162
202 2 2.2208 13.6449 14.7187 5.22364
8858 2 2.2208 -0.399911 17.143 10.8341
391 2 2.2208 10.8335 -2.35862 13.4868
386 2 2.2208 -0.277361 8.90502 13.5873
615 2 2.2208 -0.15556 6.17086 -0.330952
317 2 2.2208 5.1492 0.373786 16.5836
318 1 -1.1104 0.815033 -3.88305 17.6829
322 1 -1.1104 0.760646 -3.7957 14.906
330 1 -1.1104 1.03528 -0.944362 17.8123
332 2 2.2208 5.27946 -2.39964 19.2927
334 1 -1.1104 0.941851 -0.874435 14.96
338 1 -1.1104 3.72422 -3.93591 17.7678
340 2 2.2208 2.47855 0.606399 19.3702
341 1 -1.1104 3.90707 -3.84448 15.0624
345 2 2.2208 2.38063 -2.35798 16.4855
347 1 -1.1104 3.69711 -0.986723 17.8668
348 1 -1.1104 3.70284 -1.05357 14.9109
326 1 -1.1104 6.50759 -3.59661 15.0345
331 1 -1.1104 6.65976 -0.874655 18.0179
320 1 -1.1104 6.54108 -3.86513 18.0842
336 1 -1.1104 6.60486 -0.723266 14.9599
349 1 -1.1104 3.88951 -0.77936 20.7297
8830 2 2.2208 13.5648 -5.07095 19.3865
9369 2 2.2208 13.5884 17.5582 25.0819
545 2 2.2208 2.32064 -2.25056 27.6882
668 2 2.2208 -0.453208 20.1841 24.915
360 2 2.2208 10.7911 0.623865 16.4575
361 1 -1.1104 12.3048 -3.64527 17.8995
363 1 -1.1104 12.3166 -3.76862 15.0632
367 1 -1.1104 12.3891 -0.871639 17.9493
368 2 2.2208 10.8315 -2.36461 19.3715
370 1 -1.1104 11.9704 -1.05754 15.0269
372 1 -1.1104 9.47402 -3.76109 17.8278
374 2 2.2208 8.17629 0.624506 19.1527
375 1 -1.1104 9.25126 -3.75056 15.0448
379 2 2.2208 7.98047 -2.28715 16.4499
381 1 -1.1104 9.36411 -0.795844 17.8811
382 1 -1.1104 9.3868 -0.802529 15.1494
635 2 2.2208 7.99672 9.11291 27.7282
546 2 2.2208 2.35371 3.31605 27.6127
337 1 -1.1104 6.76446 -1.04995 20.6344
371 1 -1.1104 12.3364 -0.572198 20.7767
376 1 -1.1104 9.61878 -3.96721 20.7078
611 2 2.2208 5.16147 11.925 27.6302
319 1 -1.1104 1.06258 1.97321 17.8398
324 1 -1.1104 1.07933 2.11584 14.9187
333 2 2.2208 5.19021 3.47331 19.1846
339 1 -1.1104 3.97901 1.85841 18.0475
343 1 -1.1104 3.70944 1.66044 15.0156
346 2 2.2208 2.36034 3.37838 16.5341
393 2 2.2208 5.16547 6.18031 16.3683
395 1 -1.1104 1.22475 7.55105 17.6569
397 1 -1.1104 0.853213 7.56434 14.9377
401 1 -1.1104 1.10275 4.77388 17.9891
406 1 -1.1104 1.21728 4.87911 15.2143
415 2 2.2208 2.46271 6.37542 19.2294
420 1 -1.1104 3.8083 4.88435 17.7724
422 1 -1.1104 3.67508 4.4655 14.916
417 1 -1.1104 3.76735 7.75667 15.0976
414 1 -1.1104 3.80568 7.77922 17.8001
410 1 -1.1104 6.49038 4.90068 15.1493
321 1 -1.1104 6.59416 1.80507 17.8006
403 1 -1.1104 6.62614 4.5778 17.8894
398 1 -1.1104 0.88148 7.43824 20.5385
418 1 -1.1104 3.93987 7.64491 20.5565
328 1 -1.1104 6.59468 2.07376 15.0287
396 1 -1.1104 6.42481 7.40812 17.7624
325 1 -1.1104 1.0068 2.00573 20.8437
329 1 -1.1104 6.80824 1.99823 20.6608
399 1 -1.1104 6.64014 7.75256 14.9087
613 2 2.2208 -0.216727 8.92159 25.006
344 1 -1.1104 4.00617 1.94481 20.6952
400 1 -1.1104 6.66269 7.52474 20.5396
9371 2 2.2208 -0.196604 0.451688 16.4127
362 1 -1.1104 12.4108 1.95757 17.679
365 1 -1.1104 12.1726 1.92529 15.109
369 2 2.2208 10.8841 3.35436 19.2489
373 1 -1.1104 9.66273 1.92479 17.8079
377 1 -1.1104 9.2721 2.03012 15.0835
380 2 2.2208 8.01043 3.26177 16.3704
429 2 2.2208 10.6964 6.36354 16.336
432 1 -1.1104 12.303 7.70334 15.0548
434 1 -1.1104 11.9853 4.63384 17.7782
437 1 -1.1104 12.2011 5.04342 15.1467
441 1 -1.1104 9.24646 7.8689 17.9168
442 2 2.2208 7.96335 6.0465 18.9988
444 1 -1.1104 9.33076 7.70262 15.0369
447 1 -1.1104 9.20592 4.69013 17.6177
449 1 -1.1104 9.2983 4.86926 14.8498
431 1 -1.1104 12.4908 7.58383 17.701
445 1 -1.1104 9.30492 7.52636 20.8621
366 1 -1.1104 12.6201 2.25129 20.5266
438 1 -1.1104 12.3763 5.1011 20.5053
378 1 -1.1104 9.48048 2.0225 20.7821
555 2 2.2208 -0.347043 3.08826 24.8928
350 2 2.2208 -0.224167 5.95983 22.183
394 2 2.2208 5.18352 11.8475 16.405
402 1 -1.1104 0.790123 10.4234 18.0136
405 2 2.2208 5.2376 9.06642 19.2838
408 1 -1.1104 0.918718 10.4519 15.1222
416 2 2.2208 2.3533 11.8403 19.4002
419 2 2.2208 2.40952 9.14882 16.421
421 1 -1.1104 3.85751 10.6223 17.7611
424 1 -1.1104 3.74255 10.6349 15.1256
457 1 -1.1104 0.891937 13.1047 17.8379
461 1 -1.1104 1.11607 13.2243 14.8884
477 1 -1.1104 3.70027 13.221 18.0302
480 1 -1.1104 4.04573 13.3655 15.0675
412 1 -1.1104 6.61298 10.5459 15.0412
481 1 -1.1104 3.67487 13.0801 20.7744
459 1 -1.1104 6.5349 12.9609 17.7751
462 1 -1.1104 0.766317 13.1782 20.6912
466 1 -1.1104 6.77067 13.3233 20.5105
409 1 -1.1104 1.01945 10.3206 20.9009
413 1 -1.1104 6.61617 10.4789 20.8507
385 2 2.2208 13.5813 14.6976 16.3934
465 1 -1.1104 6.74118 13.1586 14.77
404 1 -1.1104 6.63433 10.2793 17.8337
430 2 2.2208 10.7132 12.0084 16.4256
435 1 -1.1104 12.323 10.3756 17.7189
436 2 2.2208 10.9819 9.26674 19.216
439 1 -1.1104 12.4147 10.4796 15.117
443 2 2.2208 7.99143 11.7508 19.2219
446 2 2.2208 7.92581 9.14567 16.4032
448 1 -1.1104 9.43083 10.3012 17.8928
451 1 -1.1104 9.75307 10.565 14.9996
493 1 -1.1104 12.1449 13.1689 17.9328
495 1 -1.1104 12.0222 13.2647 15.0979
504 1 -1.1104 9.21494 13.1084 17.9565
507 1 -1.1104 9.34937 13.49 15.0084
388 2 2.2208 13.6472 -2.17703 16.5734
500 2 2.2208 10.8379 14.6199 19.2608
8525 2 2.2208 10.7514 -5.10711 27.6591
544 2 2.2208 5.33635 0.393639 27.6552
452 1 -1.1104 9.33294 10.6512 20.6601
8523 2 2.2208 7.76473 -5.04812 24.915
554 2 2.2208 -0.415624 0.445819 22.0837
609 2 2.2208 5.11336 6.1779 27.6812
471 2 2.2208 5.26399 14.5627 19.3186
484 2 2.2208 2.37042 14.5016 16.3687
456 2 2.2208 5.28048 17.3182 16.6136
458 1 -1.1104 0.674282 18.8748 17.7614
463 1 -1.1104 0.84012 18.7991 14.9737
469 1 -1.1104 0.773863 16.0101 17.9701
472 2 2.2208 5.22776 20.2166 19.5028
473 1 -1.1104 0.92673 15.8717 15.183
478 1 -1.1104 3.59379 18.6512 17.9902
479 2 2.2208 2.16849 17.4568 19.4235
482 1 -1.1104 3.81181 19.0367 14.9466
485 2 2.2208 2.3575 19.923 16.4844
486 1 -1.1104 3.83308 15.7719 17.5376
487 1 -1.1104 3.80524 16.2527 14.766
475 1 -1.1104 6.60449 15.8976 15.0694
470 1 -1.1104 6.62304 15.8486 17.7573
488 1 -1.1104 3.70493 15.8923 20.6609
474 1 -1.1104 0.903327 15.949 20.7807
9184 2 2.2208 -0.380958 -2.21908 24.7333
460 1 -1.1104 6.61558 18.5949 18.0871
467 1 -1.1104 6.48486 19.0889 15.4318
518 2 2.2208 8.15769 17.4093 13.7711
511 2 2.2208 7.87163 14.5772 16.4696
492 2 2.2208 10.8916 17.4155 16.4566
494 1 -1.1104 12.2618 18.7473 17.8944
497 1 -1.1104 12.3198 18.8494 15.2879
499 1 -1.1104 12.168 16.0155 17.8502
501 2 2.2208 10.8924 20.166 19.4728
502 1 -1.1104 12.2557 16.1213 15.2001
505 1 -1.1104 9.54006 18.7314 18.0046
506 2 2.2208 8.15379 17.4663 19.2117
509 1 -1.1104 9.54218 18.9143 15.1899
512 2 2.2208 8.14857 20.1006 16.5585
513 1 -1.1104 9.29732 15.9404 18.1232
514 1 -1.1104 9.48726 16.0709 15.2182
677 2 2.2208 8.00301 17.5115 25.0357
503 1 -1.1104 12.3977 16.0882 20.5766
476 1 -1.1104 6.73733 16.0371 20.6013
498 1 -1.1104 12.2622 18.8346 20.7954
389 2 2.2208 -0.329953 8.91297 19.2516
9370 2 2.2208 13.6225 14.624 22.0585
356 2 2.2208 13.6138 20.3187 16.5199
342 1 -1.1104 3.74592 -3.73145 20.6955
335 1 -1.1104 1.03448 -0.968041 20.4497
323 1 -1.1104 0.817013 -3.69924 20.6508
520 2 2.2208 5.20096 0.434756 22.1166
521 1 -1.1104 0.6214 -3.74837 23.377
525 1 -1.1104 1.01721 -3.49853 26.1637
529 1 -1.1104 1.02455 -0.88965 23.1664
531 2 2.2208 5.12894 -2.44707 24.7715
533 1 -1.1104 1.25644 -0.895137 26.2392
535 1 -1.1104 3.7664 -3.87666 23.4527
537 2 2.2208 2.73171 0.580547 24.928
538 1 -1.1104 3.90014 -3.64052 26.4583
540 2 2.2208 2.28572 -2.46659 22.0586
542 1 -1.1104 3.68824 -0.926745 23.3505
543 1 -1.1104 3.98834 -0.761614 26.2308
534 1 -1.1104 6.94052 -1.03584 26.2122
530 1 -1.1104 6.54422 -0.989361 23.457
523 1 -1.1104 6.4274 -3.82256 23.3451
327 1 -1.1104 6.60222 -3.81382 20.7481
527 1 -1.1104 6.54431 -3.60308 26.2554
636 2 2.2208 10.9461 11.9932 27.6822
576 2 2.2208 7.96308 3.45838 27.7093
667 2 2.2208 -0.312693 17.3852 27.7078
686 2 2.2208 13.5695 3.43599 16.4126
383 1 -1.1104 9.44898 -0.920227 20.6613
364 1 -1.1104 12.4351 -3.57246 20.5252
556 2 2.2208 10.8983 0.651218 22.1562
557 1 -1.1104 12.3135 -3.75641 23.2907
559 1 -1.1104 12.1736 -3.43665 26.349
561 1 -1.1104 12.4286 -1.03225 23.5668
562 2 2.2208 10.8043 -2.27636 24.8887
564 1 -1.1104 12.2744 -0.847896 26.1622
565 1 -1.1104 9.38218 -3.54711 23.3834
567 2 2.2208 8.0967 0.551934 24.9377
568 1 -1.1104 9.52455 -3.67252 26.2644
570 2 2.2208 8.11666 -2.21115 21.99
572 1 -1.1104 9.33982 -0.599999 23.339
573 1 -1.1104 9.63271 -0.821994 26.2425
580 2 2.2208 -0.334801 3.22143 19.3422
407 1 -1.1104 1.04523 4.88759 20.77
423 1 -1.1104 3.92017 4.73508 20.7
522 1 -1.1104 1.10704 1.74482 23.6398
526 1 -1.1104 1.05168 1.9943 26.4078
532 2 2.2208 5.23231 3.49891 24.9274
536 1 -1.1104 3.8173 1.82396 23.426
539 1 -1.1104 3.93116 1.88498 26.4377
541 2 2.2208 2.55183 3.23842 22.2091
585 2 2.2208 5.38989 6.18784 21.9712
591 1 -1.1104 1.02518 4.4454 23.5176
596 1 -1.1104 1.21602 4.82464 26.2794
601 2 2.2208 2.63753 6.05905 24.8786
603 1 -1.1104 4.11297 7.71507 26.2579
605 1 -1.1104 3.78416 4.78013 23.505
607 1 -1.1104 3.80892 4.72656 26.4584
589 1 -1.1104 1.33785 7.63691 26.2331
600 1 -1.1104 3.86648 7.57791 23.2438
588 1 -1.1104 6.70712 7.81334 23.4528
524 1 -1.1104 6.75423 1.91423 23.4807
598 1 -1.1104 6.5294 5.18726 26.009
528 1 -1.1104 6.64804 1.99873 26.2529
587 1 -1.1104 1.14957 7.33247 23.4316
516 2 2.2208 10.6606 20.1923 13.7585
387 2 2.2208 -0.292502 6.25059 16.4381
450 1 -1.1104 9.50107 4.74435 20.6442
411 1 -1.1104 6.61323 4.7562 20.4873
593 1 -1.1104 6.47299 4.86648 23.5059
590 1 -1.1104 6.77782 7.64317 26.2736
433 1 -1.1104 12.4122 7.75601 20.5039
558 1 -1.1104 12.5043 1.94643 23.3954
560 1 -1.1104 12.0762 1.88449 26.3316
563 2 2.2208 10.8137 3.65191 24.7932
566 1 -1.1104 9.64456 2.09424 23.6955
569 1 -1.1104 9.23795 2.17299 26.3416
571 2 2.2208 8.12042 3.42803 21.9462
617 1 -1.1104 9.64679 4.84812 26.2567
619 1 -1.1104 9.44711 4.86815 23.314
621 1 -1.1104 9.45939 7.77686 26.2022
623 2 2.2208 7.9571 6.46976 24.7912
624 2 2.2208 10.9491 6.28431 21.964
628 1 -1.1104 12.3245 4.74339 23.3984
631 1 -1.1104 12.4158 4.97237 26.2312
633 1 -1.1104 9.68996 7.52921 23.57
626 1 -1.1104 12.3318 7.58514 23.698
627 1 -1.1104 12.3442 7.65839 26.6414
8524 2 2.2208 10.8083 -5.11887 22.2124
425 1 -1.1104 3.75971 10.4211 20.7881
657 1 -1.1104 3.67873 13.0537 26.2919
586 2 2.2208 5.06295 11.8495 22.1552
592 1 -1.1104 1.0032 10.3871 23.7736
595 2 2.2208 5.23254 9.06936 24.8942
597 1 -1.1104 0.873016 10.274 26.7703
602 2 2.2208 2.29861 11.8958 25.046
604 2 2.2208 2.30555 8.8573 22.1644
606 1 -1.1104 3.67245 10.2039 23.5577
608 1 -1.1104 3.7153 10.4644 26.0441
652 1 -1.1104 0.956117 13.2589 23.5728
642 1 -1.1104 3.59218 13.3397 23.4638
646 1 -1.1104 0.988064 13.1076 26.6245
650 1 -1.1104 6.33411 13.2813 23.5655
599 1 -1.1104 6.36806 10.6571 26.3205
440 1 -1.1104 12.1734 10.6599 20.6669
508 1 -1.1104 9.50229 13.3178 20.6091
496 1 -1.1104 12.2285 13.3288 20.9423
663 2 2.2208 2.29537 20.2884 27.6649
641 1 -1.1104 6.54756 13.3818 26.2701
9178 2 2.2208 13.615 11.8334 25.0914
594 1 -1.1104 6.61912 10.4509 23.7018
392 2 2.2208 10.8804 3.33686 13.7267
685 1 -1.1104 12.3619 13.1974 26.3809
679 1 -1.1104 9.35124 13.32 23.4876
637 1 -1.1104 12.3637 13.5154 23.5373
675 1 -1.1104 9.37162 13.3467 26.4263
616 1 -1.1104 9.34512 10.5195 26.3691
618 1 -1.1104 9.43341 10.3783 23.5751
620 2 2.2208 7.85429 9.04727 22.0088
622 2 2.2208 7.92973 12.0431 24.8015
625 2 2.2208 10.8454 12.002 22.1
629 1 -1.1104 12.3159 10.3874 23.46
630 2 2.2208 10.9098 9.0356 24.9928
632 1 -1.1104 12.1966 10.4826 26.2674
483 1 -1.1104 3.67103 18.7485 20.8714
464 1 -1.1104 0.902764 18.8337 20.6658
676 1 -1.1104 6.50635 18.829 26.2896
662 2 2.2208 2.07241 14.5648 22.1599
649 2 2.2208 5.15001 14.524 24.986
660 1 -1.1104 3.8104 16.0599 23.6131
659 1 -1.1104 0.603632 15.9085 23.5758
656 1 -1.1104 3.76202 15.7901 26.5788
655 2 2.2208 2.47734 17.3248 25.0077
654 1 -1.1104 3.75089 18.8088 26.3127
653 2 2.2208 5.22562 17.329 22.1622
651 1 -1.1104 1.20462 18.6522 23.4745
661 2 2.2208 2.25442 20.2177 22.1935
640 1 -1.1104 3.85743 18.671 23.623
644 1 -1.1104 0.95697 18.6218 26.1535
645 1 -1.1104 0.894392 15.8914 26.3545
648 2 2.2208 5.07578 20.2442 24.9863
647 1 -1.1104 6.7266 18.7138 23.6282
643 1 -1.1104 6.51649 16.0262 26.4273
658 1 -1.1104 6.77209 15.9909 23.5131
682 2 2.2208 10.9471 14.7013 24.9984
681 2 2.2208 10.9764 20.2716 25.1612
468 1 -1.1104 6.71742 18.7476 20.8511
510 1 -1.1104 9.47555 18.7634 20.7185
515 1 -1.1104 9.84356 16.1234 21.0592
672 2 2.2208 8.16337 20.0802 22.2415
553 2 2.2208 11.0004 17.6037 22.3483
683 1 -1.1104 12.1987 16.0721 23.6168
669 1 -1.1104 12.2981 18.9818 23.6945
674 1 -1.1104 9.46064 18.9053 26.6742
678 1 -1.1104 9.44009 18.7496 23.7819
673 2 2.2208 8.1807 14.8569 21.9905
684 1 -1.1104 12.2073 19.0046 26.734
670 1 -1.1104 9.36936 16.106 26.4152
671 1 -1.1104 9.40816 16.013 23.8604
680 1 -1.1104 12.2542 16.0949 26.4076
9226 2 2.2208 -0.223599 3.36947 13.7055
390 2 2.2208 8.06268 0.537443 13.6817
575 2 2.2208 8.13657 -2.33449 27.6476
353 2 2.2208 13.6077 14.8897 27.7784
665 2 2.2208 2.41448 14.4201 27.78
427 2 2.2208 5.27944 9.10497 13.679
574 2 2.2208 10.7741 0.498899 27.6289
581 2 2.2208 13.6186 -2.16387 27.6832
547 2 2.2208 7.79644 14.649 27.779
689 2 2.2208 5.35275 23.0868 5.25265
691 1 -1.1104 0.973604 24.2178 1.0611
692 1 -1.1104 1.09881 24.5816 3.84498
693 1 -1.1104 1.07142 21.5275 1.03621
695 2 2.2208 5.30556 26.0633 2.38951
696 1 -1.1104 1.28498 21.639 3.91882
698 1 -1.1104 3.81041 24.5813 0.977806
699 2 2.2208 2.53177 23.2285 2.35866
701 1 -1.1104 3.91878 24.3931 4.01908
702 2 2.2208 2.47384 25.9005 5.26414
703 1 -1.1104 3.92523 21.7312 1.16959
705 1 -1.1104 4.06701 21.3625 4.0222
714 1 -1.1104 6.9622 21.8453 4.00357
704 1 -1.1104 3.72709 27.2734 1.00514
711 1 -1.1104 6.61795 24.4341 3.73515
713 1 -1.1104 6.65644 27.3343 0.941546
712 1 -1.1104 6.63112 21.8657 1.08377
697 1 -1.1104 1.11196 27.246 4.08438
694 1 -1.1104 1.21561 26.9894 1.20917
715 1 -1.1104 6.61942 27.4032 3.93368
706 1 -1.1104 3.87045 27.2489 3.68038
833 1 -1.1104 1.00614 27.4387 6.74336
830 1 -1.1104 1.11879 24.5209 6.74454
988 2 2.2208 11.0122 37.0663 13.5899
9951 2 2.2208 -0.296738 37.2145 13.5807
760 2 2.2208 -0.343003 37.1319 2.59507
710 1 -1.1104 6.53041 24.6398 0.848749
716 2 2.2208 11.0527 22.9731 5.17259
718 1 -1.1104 12.1601 24.3411 0.905973
719 1 -1.1104 12.292 24.4446 3.70502
720 1 -1.1104 12.397 21.7492 0.97643
722 2 2.2208 10.7748 25.8193 2.40471
723 1 -1.1104 12.5963 21.6434 3.95136
725 1 -1.1104 9.45381 24.4265 1.13316
726 2 2.2208 8.10094 23.057 2.45882
728 1 -1.1104 9.58801 24.3957 3.70335
729 2 2.2208 8.14006 25.7938 5.17018
730 1 -1.1104 9.42017 21.3343 1.05238
732 1 -1.1104 9.65516 21.7685 3.80229
724 1 -1.1104 12.3853 27.2822 3.59696
721 1 -1.1104 12.3618 27.3575 0.719887
733 1 -1.1104 9.68316 27.1879 3.80779
731 1 -1.1104 9.62781 27.1656 0.820935
868 1 -1.1104 9.46924 27.19 6.61865
865 1 -1.1104 12.1363 27.4637 6.47108
1294 2 2.2208 -0.399315 45.6578 -0.438914
835 1 -1.1104 6.78564 27.217 6.65263
915 2 2.2208 -0.298762 37.0207 8.1328
690 2 2.2208 5.20469 28.6686 5.22803
700 2 2.2208 2.26755 28.4337 2.57985
738 1 -1.1104 0.730928 30.1059 1.02485
741 1 -1.1104 0.652419 30.2495 3.84761
744 1 -1.1104 0.915678 32.7433 0.831396
745 2 2.2208 4.93196 31.4439 2.39577
747 1 -1.1104 1.04161 32.9511 3.71355
749 1 -1.1104 3.58652 29.9176 1.15727
752 1 -1.1104 3.56817 29.9876 4.01508
754 2 2.2208 2.06866 31.5059 5.15405
756 1 -1.1104 3.78328 32.762 0.870408
757 1 -1.1104 3.65893 32.9002 3.86546
763 1 -1.1104 6.68131 33.0058 0.751181
887 1 -1.1104 6.73859 32.6439 6.67084
890 1 -1.1104 4.11081 33.0571 6.56126
888 1 -1.1104 3.88631 30.1869 6.64106
762 1 -1.1104 6.64264 30.132 3.5733
886 1 -1.1104 1.1816 32.9656 6.63115
884 1 -1.1104 6.87825 29.7925 6.20578
1144 2 2.2208 5.36189 42.7282 13.6024
970 2 2.2208 -0.425487 42.8685 7.84482
748 1 -1.1104 6.65864 33.1307 3.65376
761 1 -1.1104 6.33443 30.1658 0.932206
717 2 2.2208 10.9022 28.7984 5.08864
727 2 2.2208 8.04779 28.5924 2.30743
765 1 -1.1104 12.0356 30.2155 0.872673
767 1 -1.1104 12.4195 30.0308 3.65357
769 1 -1.1104 12.2464 33.0533 1.25429
770 2 2.2208 10.7991 31.4523 2.33158
772 1 -1.1104 12.2292 32.861 3.8111
773 1 -1.1104 9.05292 29.9893 0.751083
776 1 -1.1104 9.55057 30.1372 3.65294
778 2 2.2208 7.92234 31.4938 5.16251
780 1 -1.1104 9.16981 32.8207 0.764222
781 1 -1.1104 9.60622 33.2671 3.58569
918 1 -1.1104 12.4736 33.0559 6.67385
921 1 -1.1104 9.28961 33.0693 6.38193
9832 2 2.2208 13.5788 22.8163 13.5455
1560 1 -1.1104 12.1435 46.7319 6.74773
919 1 -1.1104 9.68843 30.1972 6.45807
737 2 2.2208 5.16971 34.2905 5.2247
739 1 -1.1104 1.26701 35.7219 1.02176
742 1 -1.1104 0.96537 35.7554 4.01422
746 2 2.2208 5.28016 37.071 2.31058
750 1 -1.1104 3.88761 35.56 0.91258
751 2 2.2208 2.43697 34.2609 2.33625
753 1 -1.1104 3.76436 35.7527 3.6761
755 2 2.2208 2.45933 36.9719 5.29399
783 2 2.2208 5.29017 40.0147 5.21394
789 1 -1.1104 1.17895 38.5422 0.935078
794 1 -1.1104 0.999777 38.4572 3.9012
799 2 2.2208 2.58585 39.9356 2.4784
803 1 -1.1104 3.92407 38.3485 0.914318
805 1 -1.1104 4.11079 38.5653 3.79938
959 1 -1.1104 3.77408 38.5549 6.62521
796 1 -1.1104 6.74646 38.6379 3.6766