ITEM: TIMESTEP
90000
ITEM: NUMBER OF ATOMS
17640
ITEM: BOX BOUNDS pp pp pp
-4.5220810366597919e-01 2.7792208103665924e+01
-5.2855209106492911e+00 3.3336552091065357e+02
-4.3025032728510726e-01 2.7770250327285702e+01
ITEM: ATOMS id type q x y z
1 2 2.2208 5.10044 0.506337 5.03699
2 1 -1.1104 0.947782 -4.12497 1.06923
6 1 -1.1104 0.99285 -3.89734 3.99185
10 1 -1.1104 0.878706 -1.15604 0.905492
12 2 2.2208 5.19886 -2.59757 2.57519
14 1 -1.1104 1.03424 -1.09025 3.86892
16 1 -1.1104 3.74139 -4.03592 1.19821
18 2 2.2208 2.35636 0.31496 2.35774
19 1 -1.1104 3.82746 -3.81402 4.03441
21 2 2.2208 2.31275 -2.39719 5.21823
23 1 -1.1104 4.05576 -1.41754 0.919358
24 1 -1.1104 3.8078 -1.01356 3.75233
135 2 2.2208 -0.339589 14.1926 2.48985
489 2 2.2208 2.49287 17.2785 13.5502
453 2 2.2208 8.05789 5.97704 13.494
172 1 -1.1104 3.74797 -3.86748 6.76507
170 1 -1.1104 1.16202 -0.964115 6.59755
8456 2 2.2208 10.99 -5.21403 10.8649
9149 2 2.2208 -0.362234 3.1206 2.12335
15 1 -1.1104 6.77614 -0.889753 3.92731
4 1 -1.1104 6.54805 -3.71405 1.0496
11 1 -1.1104 6.81854 -0.962438 0.959824
8 1 -1.1104 6.66065 -3.80182 3.98501
31 2 2.2208 10.7007 0.318526 5.19029
32 1 -1.1104 12.3374 -3.73275 0.926466
34 1 -1.1104 12.1371 -3.7168 4.15443
36 1 -1.1104 12.42 -0.956596 1.12662
37 2 2.2208 10.7852 -2.38887 2.4437
39 1 -1.1104 12.1271 -0.948113 3.77357
40 1 -1.1104 9.3768 -3.53192 0.857412
42 2 2.2208 8.05671 0.345625 2.29859
43 1 -1.1104 9.35191 -3.95407 3.75079
45 2 2.2208 8.08501 -2.28714 5.35701
47 1 -1.1104 9.60537 -0.958842 0.991125
48 1 -1.1104 9.46371 -1.16238 3.95896
491 2 2.2208 5.20502 14.5016 13.5723
427 2 2.2208 5.08096 8.76413 13.5372
171 1 -1.1104 6.64422 -1.01751 6.71653
210 1 -1.1104 9.41444 -0.959694 6.59042
207 1 -1.1104 12.3252 -1.20799 6.66761
233 2 2.2208 7.95539 14.4709 10.6661
391 2 2.2208 10.8376 -2.22377 13.4354
9368 2 2.2208 -0.298872 20.1378 13.542
28 2 2.2208 -0.32218 11.422 10.7547
3 1 -1.1104 1.02082 1.74507 0.917946
7 1 -1.1104 0.699267 1.89255 3.64203
13 2 2.2208 5.20441 3.09522 2.32465
17 1 -1.1104 3.79499 1.42134 0.80998
20 1 -1.1104 3.67281 1.63343 3.67258
22 2 2.2208 2.35529 3.37744 4.91956
54 2 2.2208 5.00223 6.00629 5.29095
56 1 -1.1104 0.984228 7.41486 0.736512
60 1 -1.1104 1.11484 4.49038 0.752999
67 1 -1.1104 1.04766 4.61907 3.5385
72 2 2.2208 2.27306 6.12028 2.14892
76 1 -1.1104 3.62598 4.56458 0.914021
79 1 -1.1104 3.83076 4.67863 3.65457
58 1 -1.1104 0.889997 7.29347 3.58566
74 1 -1.1104 3.64244 7.4057 3.61375
71 1 -1.1104 3.77591 7.4568 0.95018
236 1 -1.1104 0.88595 4.91891 6.48308
5 1 -1.1104 6.53077 1.64795 0.934888
169 1 -1.1104 6.62307 1.74791 6.41032
8451 2 2.2208 10.8546 -5.19562 5.34766
167 1 -1.1104 1.03394 2.16155 6.32181
173 1 -1.1104 3.5652 1.82322 6.5714
238 1 -1.1104 3.44596 7.40731 6.52466
234 1 -1.1104 0.693654 7.52041 6.27741
239 1 -1.1104 3.89339 4.53107 6.39481
8835 2 2.2208 5.15496 -5.2322 -0.25385
57 1 -1.1104 6.7662 7.46989 1.08442
69 1 -1.1104 6.71784 4.70926 3.8533
9 1 -1.1104 6.7399 2.02964 3.7162
59 1 -1.1104 6.41893 7.55813 3.80031
63 1 -1.1104 6.33542 4.72241 0.890967
33 1 -1.1104 12.2659 1.86194 1.01307
35 1 -1.1104 12.2525 1.85335 3.76313
38 2 2.2208 10.8129 3.15212 2.43487
41 1 -1.1104 9.40308 2.01993 0.882978
44 1 -1.1104 9.43905 1.9763 3.79511
46 2 2.2208 7.91185 3.31892 5.10382
84 2 2.2208 10.9319 5.87626 5.28209
86 1 -1.1104 12.1298 7.4598 0.922541
88 1 -1.1104 12.2033 4.66502 0.901186
92 1 -1.1104 12.3685 4.39601 3.71297
95 2 2.2208 7.92631 6.05135 2.39353
97 1 -1.1104 9.34018 7.38253 3.72292
99 1 -1.1104 9.22971 4.71199 1.03822
102 1 -1.1104 9.39587 4.61128 3.73207
206 1 -1.1104 11.997 1.75111 6.49867
232 1 -1.1104 9.53004 18.9226 9.26727
269 1 -1.1104 9.61885 4.53389 6.61539
265 1 -1.1104 12.3678 7.42637 6.66941
267 1 -1.1104 9.34218 7.38823 6.51618
209 1 -1.1104 9.31901 1.76544 6.62792
82 1 -1.1104 12.5102 15.9373 12.1318
8453 2 2.2208 5.16495 -5.24335 10.7577
55 2 2.2208 5.18422 11.597 5.08735
61 1 -1.1104 0.965985 10.3046 0.85266
66 2 2.2208 5.27123 8.63641 2.35509
68 1 -1.1104 0.988425 10.2257 3.42395
73 2 2.2208 2.56332 11.3942 2.18854
75 2 2.2208 2.33958 8.71594 5.00893
77 1 -1.1104 3.95251 10.2294 0.969845
80 1 -1.1104 3.9245 10.0611 3.68349
107 1 -1.1104 1.06755 12.9808 0.850874
113 1 -1.1104 0.991869 13.0623 3.86872
123 1 -1.1104 3.83538 13.1089 0.682716
128 1 -1.1104 3.86763 12.7895 3.61951
62 1 -1.1104 0.953764 10.1508 6.50427
110 1 -1.1104 6.73326 13.0214 0.899797
124 1 -1.1104 3.79608 13.0809 6.49169
78 1 -1.1104 3.51572 10.1205 6.3192
306 1 -1.1104 6.5809 16.0054 12.0701
87 1 -1.1104 12.2548 7.2991 3.82702
94 1 -1.1104 9.56093 7.39825 0.930906
70 1 -1.1104 6.73878 10.2286 3.75724
64 1 -1.1104 6.69888 10.4569 0.825679
115 1 -1.1104 6.7416 12.9976 3.56359
85 2 2.2208 10.7015 11.5499 5.06414
89 1 -1.1104 12.1345 10.1954 1.33406
91 2 2.2208 10.8506 8.76434 2.4033
93 1 -1.1104 12.1946 10.2903 3.87914
96 2 2.2208 8.00196 11.5861 2.35783
98 2 2.2208 7.87176 8.87329 5.24653
100 1 -1.1104 9.49673 10.1507 0.821251
103 1 -1.1104 9.43047 10.1316 3.65492
142 1 -1.1104 11.9665 13.2039 0.846049
146 1 -1.1104 12.2242 13.1565 3.86392
153 1 -1.1104 9.35175 13.0807 0.802045
158 1 -1.1104 9.44686 13.1107 3.91656
154 1 -1.1104 9.41088 12.884 6.54952
90 1 -1.1104 12.054 10.1743 6.48332
30 2 2.2208 10.8693 17.3632 10.7281
311 2 2.2208 8.10036 17.5293 8.18359
156 1 -1.1104 9.38937 18.6022 6.66332
9087 2 2.2208 -0.359503 5.99647 10.9248
149 1 -1.1104 12.3758 15.8374 6.45998
130 2 2.2208 2.37532 14.3898 5.00563
119 2 2.2208 5.18824 14.2807 2.32164
106 2 2.2208 4.92043 17.2305 5.24134
109 1 -1.1104 0.837827 18.5425 0.816223
114 1 -1.1104 0.913166 18.7992 3.62504
116 1 -1.1104 1.00684 15.843 0.958523
120 2 2.2208 5.40654 20.0044 2.46932
121 1 -1.1104 1.11902 15.937 3.92371
125 1 -1.1104 3.84402 18.4772 0.894989
127 2 2.2208 2.36177 17.2554 2.23783
129 1 -1.1104 3.68779 18.5952 3.57682
131 2 2.2208 2.27181 20.2398 5.00717
132 1 -1.1104 3.78189 15.8264 0.827777
134 1 -1.1104 3.87014 15.7219 3.90403
136 2 2.2208 10.9062 20.2058 8.05708
575 2 2.2208 7.90177 -2.49333 -0.434272
122 1 -1.1104 6.73201 15.9006 3.78559
139 1 -1.1104 6.58242 18.7695 3.85812
138 1 -1.1104 6.60531 18.485 0.911726
140 1 -1.1104 6.47185 15.7272 0.814255
160 2 2.2208 8.22388 14.4581 5.30281
150 2 2.2208 10.6997 14.5383 2.24589
141 2 2.2208 10.9462 17.1628 5.15163
144 1 -1.1104 12.1929 18.8378 0.914098
147 1 -1.1104 12.3104 18.71 3.70478
148 1 -1.1104 12.281 15.9111 1.00963
151 2 2.2208 11.0325 20.092 2.36713
152 1 -1.1104 12.3222 15.8503 3.67402
155 1 -1.1104 9.43921 18.7208 1.01661
157 2 2.2208 7.93671 17.2977 2.30607
159 1 -1.1104 9.35554 18.5432 3.72166
161 2 2.2208 8.09039 20.0749 5.06933
162 1 -1.1104 9.54542 15.864 0.885082
164 1 -1.1104 9.59491 15.7991 3.8548
163 1 -1.1104 9.55385 15.7006 6.49476
50 1 -1.1104 12.3494 18.8063 12.5151
9151 2 2.2208 13.6342 0.393646 2.44062
81 1 -1.1104 12.2784 18.6592 9.44215
166 1 -1.1104 1.04485 -3.80342 6.75853
315 1 -1.1104 9.35336 16.0711 12.046
118 1 -1.1104 6.69446 15.829 6.5682
545 2 2.2208 2.4888 -2.49796 -0.387621
174 1 -1.1104 3.87102 -1.11135 6.61536
175 2 2.2208 5.36822 0.50099 10.6481
176 1 -1.1104 0.962879 -3.92958 12.3345
180 1 -1.1104 1.07189 -4.12083 9.64775
184 1 -1.1104 1.22487 -1.11763 12.3329
186 2 2.2208 5.40534 -2.50133 7.90109
188 1 -1.1104 0.766034 -1.1565 9.46838
190 1 -1.1104 3.92883 -3.9847 12.1794
192 2 2.2208 2.39061 0.372025 8.16338
193 1 -1.1104 3.94425 -3.85679 9.37481
195 2 2.2208 2.61809 -2.66002 10.9031
197 1 -1.1104 3.77776 -1.07678 12.2889
198 1 -1.1104 3.77134 -0.815471 9.75583
189 1 -1.1104 6.56636 -0.860808 9.39639
185 1 -1.1104 6.75731 -1.05553 12.2379
178 1 -1.1104 6.68853 -3.73178 12.3743
548 2 2.2208 10.8095 17.2483 -0.460497
145 1 -1.1104 12.207 18.9123 6.52322
390 2 2.2208 8.02714 0.392486 13.6393
392 2 2.2208 10.8948 3.26746 13.559
201 1 -1.1104 9.55689 18.9297 11.8776
9018 2 2.2208 -0.421815 19.9192 2.29495
182 1 -1.1104 6.67368 -3.77709 9.64606
208 1 -1.1104 9.34063 -3.8156 6.70639
168 1 -1.1104 6.63404 -3.71451 6.81624
205 1 -1.1104 12.1465 -3.89918 6.85131
211 2 2.2208 10.9492 0.663434 10.7033
212 1 -1.1104 12.1705 -3.75539 12.1364
214 1 -1.1104 12.3076 -3.85041 9.45201
216 1 -1.1104 12.3597 -1.04702 12.4968
217 2 2.2208 10.7755 -2.22438 8.05364
219 1 -1.1104 12.2915 -0.861424 9.4521
220 1 -1.1104 9.41915 -3.81298 12.1666
222 2 2.2208 7.91407 0.442562 7.76288
223 1 -1.1104 9.31677 -3.5979 9.46803
225 2 2.2208 7.88052 -2.36321 10.8771
227 1 -1.1104 9.62646 -0.871025 12.1386
228 1 -1.1104 9.44009 -0.635061 9.19847
9367 2 2.2208 -0.4095 14.255 13.6396
314 1 -1.1104 9.35523 16.1533 9.41699
454 2 2.2208 10.8339 8.79087 13.5552
237 1 -1.1104 6.81673 4.53468 6.62704
177 1 -1.1104 1.07228 1.55713 12.4687
181 1 -1.1104 1.05858 1.65137 9.62957
187 2 2.2208 5.31343 3.37614 7.96372
191 1 -1.1104 3.83157 1.78142 12.0524
194 1 -1.1104 3.89468 2.07821 9.12383
196 2 2.2208 2.56373 3.30204 10.8794
240 2 2.2208 5.12945 6.17727 10.7415
244 1 -1.1104 0.847738 7.34586 9.09741
246 1 -1.1104 0.88186 4.54866 12.1529
251 1 -1.1104 1.17656 4.16418 9.24045
256 2 2.2208 2.36332 5.94301 8.0101
260 1 -1.1104 3.36592 4.60195 12.3446
262 1 -1.1104 3.86673 4.81863 9.17782
258 1 -1.1104 3.77285 7.41076 9.41874
255 1 -1.1104 3.5993 7.34226 12.1892
242 1 -1.1104 1.07282 7.45645 12.0832
179 1 -1.1104 6.67847 2.0055 12.1186
455 2 2.2208 7.93505 11.6201 13.5804
288 1 -1.1104 6.64698 18.607 9.44972
25 2 2.2208 -0.427953 -2.57348 2.27419
235 1 -1.1104 6.54057 7.31299 6.53465
518 2 2.2208 8.12038 17.4326 13.4819
248 1 -1.1104 6.35238 4.75256 12.2511
243 1 -1.1104 6.64476 7.52465 12.3034
266 1 -1.1104 12.4477 4.46347 6.59589
245 1 -1.1104 6.62854 7.59483 9.38633
183 1 -1.1104 6.72429 2.04071 9.29718
253 1 -1.1104 6.4966 4.69887 9.44649
213 1 -1.1104 12.4134 1.64612 12.2615
215 1 -1.1104 12.416 1.92076 9.29351
218 2 2.2208 10.9374 3.29314 7.96541
221 1 -1.1104 9.48474 1.81947 12.3282
224 1 -1.1104 9.59354 2.11686 9.5768
226 2 2.2208 8.04635 3.33687 10.7896
268 1 -1.1104 9.54348 4.85995 9.49597
271 1 -1.1104 9.40886 4.73671 12.2058
275 2 2.2208 8.06295 6.09152 8.02466
276 2 2.2208 11.0483 6.15672 10.892
278 1 -1.1104 12.505 7.44865 12.2409
280 1 -1.1104 12.4582 4.61298 12.089
283 1 -1.1104 12.4679 4.60732 9.30208
279 1 -1.1104 12.2839 7.40301 9.44088
285 1 -1.1104 9.48215 7.52056 11.9325
273 1 -1.1104 9.44571 7.55606 9.39145
289 1 -1.1104 6.24385 15.7953 9.06845
8885 2 2.2208 -0.433897 -2.55143 8.16046
105 2 2.2208 10.8723 14.4931 8.00198
108 1 -1.1104 1.02123 12.7996 6.6292
241 2 2.2208 5.2414 11.7248 10.7412
247 1 -1.1104 1.00962 10.2117 12.1758
250 2 2.2208 4.84333 8.74547 7.77099
252 1 -1.1104 0.976038 10.0301 9.21117
257 2 2.2208 2.53419 11.5774 7.78772
259 2 2.2208 2.33586 8.9644 10.6336
261 1 -1.1104 3.86937 10.1352 11.7106
263 1 -1.1104 3.8969 10.3365 9.22856
287 1 -1.1104 4.05621 12.9131 12.1745
294 1 -1.1104 1.01918 12.8768 9.2052
299 1 -1.1104 0.914934 13.1134 12.1159
305 1 -1.1104 3.74752 13.1214 9.23862
249 1 -1.1104 6.8333 10.0929 12.303
290 1 -1.1104 6.54675 13.1186 9.2819
297 1 -1.1104 6.58893 13.1206 12.0025
101 1 -1.1104 9.4717 10.1229 6.67671
143 1 -1.1104 12.3615 13.068 6.61032
111 1 -1.1104 6.36092 13.0451 6.31403
65 1 -1.1104 6.48398 10.3315 6.54198
254 1 -1.1104 6.91458 10.3893 9.54281
312 1 -1.1104 9.45829 13.0587 9.38443
264 1 -1.1104 9.78705 10.0484 9.51833
270 1 -1.1104 9.53126 10.3436 12.1306
272 2 2.2208 8.08016 8.83615 10.6921
274 2 2.2208 8.07879 11.7791 8.08349
277 2 2.2208 10.862 11.7682 10.7916
281 1 -1.1104 12.4153 10.1933 12.2065
282 2 2.2208 10.9363 8.91674 7.96317
284 1 -1.1104 12.5383 10.2667 9.34731
200 1 -1.1104 9.39662 13.2451 12.1094
49 1 -1.1104 11.9036 13.2037 12.0976
53 1 -1.1104 12.3728 13.1347 9.36845
8859 2 2.2208 -0.375437 20.0489 8.11145
316 2 2.2208 8.11933 20.1514 10.7336
516 2 2.2208 10.7426 20.2381 13.6508
428 2 2.2208 2.47323 11.745 13.3362
112 1 -1.1104 6.58954 18.5795 6.75106
296 1 -1.1104 6.76593 18.887 12.2264
199 1 -1.1104 12.1118 15.9348 9.37546
302 1 -1.1104 1.1049 18.4718 6.53462
126 1 -1.1104 3.8781 18.891 6.44865
298 1 -1.1104 0.966351 18.6194 12.1608
293 2 2.2208 5.23155 20.0806 7.81082
117 1 -1.1104 1.02756 15.5551 6.59552
292 1 -1.1104 0.761356 15.812 9.3264
291 1 -1.1104 0.91581 18.5952 9.27236
286 1 -1.1104 3.86452 18.5796 12.1913
304 1 -1.1104 3.63159 16.0781 9.60966
301 1 -1.1104 3.65119 18.8881 9.47343
307 1 -1.1104 0.892445 15.7551 12.1225
300 2 2.2208 5.23258 17.3107 10.6974
133 1 -1.1104 3.71352 15.9492 6.61833
310 2 2.2208 2.23962 14.6232 10.7335
295 2 2.2208 5.11514 14.5549 7.76411
303 2 2.2208 2.25123 17.2205 7.93278
308 1 -1.1104 3.68517 15.6986 12.3448
309 2 2.2208 2.31357 19.9548 10.8697
231 2 2.2208 13.7387 3.31018 5.18799
9017 2 2.2208 -0.369865 3.1946 7.8591
83 2 2.2208 -0.405585 11.5241 5.12543
358 2 2.2208 2.47042 0.250551 13.6191
27 2 2.2208 13.5743 17.3561 7.95128
137 2 2.2208 -0.324916 17.2506 5.19178
104 2 2.2208 13.5192 11.628 2.15626
9052 2 2.2208 13.5888 6.0273 2.33251
203 2 2.2208 13.6177 20.0668 5.19144
636 2 2.2208 10.666 11.5503 -0.357154
8525 2 2.2208 10.9793 -5.2346 -0.356826
357 2 2.2208 5.32485 -2.51337 13.5409
576 2 2.2208 8.0709 3.15568 -0.399852
317 2 2.2208 5.24145 0.450872 16.5206
318 1 -1.1104 0.980698 -3.88851 18.1831
322 1 -1.1104 1.10092 -3.9031 14.9378
330 1 -1.1104 0.774096 -0.972918 18.1435
332 2 2.2208 5.26345 -2.41085 19.3035
334 1 -1.1104 0.952154 -1.4238 15.0538
338 1 -1.1104 3.7919 -3.74138 18.1946
340 2 2.2208 2.46418 0.344249 19.3695
341 1 -1.1104 4.02878 -3.89654 15.3305
345 2 2.2208 2.39792 -2.55713 16.5894
347 1 -1.1104 3.79186 -1.148 17.8634
348 1 -1.1104 3.85323 -1.21048 14.937
326 1 -1.1104 6.64395 -3.92951 15.0441
359 2 2.2208 5.22416 3.21042 13.7155
8832 2 2.2208 8.34407 -5.19286 19.2692
684 1 -1.1104 12.1498 18.8513 26.4095
349 1 -1.1104 4.04138 -1.22249 20.7578
335 1 -1.1104 1.13147 -1.03022 21.0105
686 2 2.2208 13.6434 3.19186 16.4335
336 1 -1.1104 6.72505 -0.893559 14.9192
337 1 -1.1104 6.82767 -0.76793 20.5487
320 1 -1.1104 6.43213 -3.94096 17.8561
331 1 -1.1104 6.79252 -0.974984 17.7116
360 2 2.2208 10.9516 0.508484 16.2864
361 1 -1.1104 12.3654 -3.86752 17.9039
363 1 -1.1104 12.4385 -3.77033 14.927
367 1 -1.1104 12.5152 -0.959862 17.913
368 2 2.2208 11.1205 -2.46271 19.3518
370 1 -1.1104 12.4864 -0.904989 15.2191
372 1 -1.1104 9.65697 -3.91195 17.8574
374 2 2.2208 8.29089 0.287852 18.9688
375 1 -1.1104 9.41217 -4.04306 15.1432
379 2 2.2208 8.02969 -2.61835 16.3968
381 1 -1.1104 9.78694 -1.32246 17.7152
382 1 -1.1104 9.52688 -1.17309 14.8708
383 1 -1.1104 9.63786 -1.08359 20.5082
663 2 2.2208 2.33485 20.1948 27.7396
371 1 -1.1104 12.5055 -1.0177 20.6856
364 1 -1.1104 12.2761 -3.68915 20.6877
8523 2 2.2208 8.15988 -5.1873 24.8719
319 1 -1.1104 0.875211 1.68393 17.9309
324 1 -1.1104 1.20034 1.38587 15.1788
333 2 2.2208 5.24579 3.2701 19.2753
339 1 -1.1104 3.88861 1.65513 17.9229
343 1 -1.1104 4.01856 1.84016 15.1516
346 2 2.2208 2.33427 3.10542 16.4207
393 2 2.2208 5.3401 6.22577 16.3731
395 1 -1.1104 0.994691 7.47661 17.5201
397 1 -1.1104 0.800572 7.2376 15.0294
401 1 -1.1104 0.876433 4.5933 17.9351
406 1 -1.1104 0.901516 4.41703 15.1125
415 2 2.2208 2.39811 5.88666 19.1336
420 1 -1.1104 3.68654 4.51347 17.7914
422 1 -1.1104 3.87379 4.62684 15.018
417 1 -1.1104 3.79241 7.46041 14.9308
414 1 -1.1104 3.81419 7.50677 17.6757
325 1 -1.1104 0.934628 1.71114 20.8458
387 2 2.2208 -0.449253 5.93407 16.4416
423 1 -1.1104 3.7837 4.53265 20.6347
407 1 -1.1104 1.06024 4.49007 20.6376
344 1 -1.1104 3.83088 1.81921 20.7306
329 1 -1.1104 6.43183 2.07995 20.7551
9177 2 2.2208 -0.410546 17.4172 21.9214
396 1 -1.1104 6.77573 7.70039 18.071
410 1 -1.1104 6.63422 4.61869 15.0515
321 1 -1.1104 6.6729 1.88513 17.8312
403 1 -1.1104 6.67738 4.71285 17.9284
328 1 -1.1104 6.94135 1.85449 14.9285
399 1 -1.1104 6.67581 7.45943 15.0143
362 1 -1.1104 12.063 1.84753 17.792
365 1 -1.1104 12.2976 2.01164 15.1831
369 2 2.2208 11.0345 3.35456 19.2622
373 1 -1.1104 9.46554 1.82411 17.7768
377 1 -1.1104 9.73952 1.69728 14.95
380 2 2.2208 8.34544 3.29525 16.472
429 2 2.2208 10.9772 6.02896 16.454
432 1 -1.1104 12.3426 7.26422 15.0659
434 1 -1.1104 12.3548 4.80675 17.808
437 1 -1.1104 12.4361 4.57042 15.145
441 1 -1.1104 9.56867 7.55149 17.7128
442 2 2.2208 8.11994 6.19058 19.2117
447 1 -1.1104 9.5625 4.66608 17.7994
449 1 -1.1104 9.68681 4.58413 14.835
431 1 -1.1104 12.3892 7.48686 17.7597
433 1 -1.1104 12.2674 7.53259 20.5903
438 1 -1.1104 12.3514 4.83354 20.5484
378 1 -1.1104 9.62306 1.80296 20.5248
667 2 2.2208 -0.361865 17.1107 27.6789
8826 2 2.2208 -0.295305 -5.24745 16.5542
394 2 2.2208 5.09411 11.698 16.1567
402 1 -1.1104 1.05519 10.2266 17.9358
405 2 2.2208 5.03926 8.94308 19.2425
408 1 -1.1104 0.970843 10.3251 14.923
416 2 2.2208 2.30387 11.7535 19.2244
419 2 2.2208 2.40023 8.91756 16.2332
421 1 -1.1104 3.63069 10.3592 17.8342
424 1 -1.1104 3.83595 10.2357 14.6841
457 1 -1.1104 1.01538 12.86 17.6584
461 1 -1.1104 0.876551 13.1208 14.9252
477 1 -1.1104 3.74177 13.1294 17.6808
480 1 -1.1104 3.73237 12.8795 14.8724
404 1 -1.1104 6.36976 10.131 17.4602
412 1 -1.1104 6.65014 10.2374 15.0178
354 2 2.2208 -0.392293 -2.44923 19.5163
510 1 -1.1104 9.3908 18.5546 20.6218
481 1 -1.1104 3.69957 13.3292 20.5611
409 1 -1.1104 0.740808 10.1909 20.6225
425 1 -1.1104 3.51902 10.5314 20.7156
574 2 2.2208 10.8152 0.422347 27.7012
444 1 -1.1104 9.29537 7.34497 14.9146
465 1 -1.1104 6.68254 13.1933 14.9057
459 1 -1.1104 6.53634 13.0614 17.6912
430 2 2.2208 10.8197 11.7872 16.4086
435 1 -1.1104 12.349 10.2248 17.8172
436 2 2.2208 10.7952 8.95537 19.2061
439 1 -1.1104 12.239 10.1722 14.9866
443 2 2.2208 7.99133 11.5923 19.211
446 2 2.2208 8.16882 8.85762 16.3514
448 1 -1.1104 9.53443 10.2188 17.7098
451 1 -1.1104 9.56492 10.2664 14.9473
493 1 -1.1104 12.3612 13.1211 17.8093
495 1 -1.1104 12.1555 12.9287 15.0497
504 1 -1.1104 9.42229 13.1556 17.7346
507 1 -1.1104 9.27177 12.9976 15.0496
452 1 -1.1104 9.21758 10.3252 20.7385
496 1 -1.1104 12.054 12.8963 20.5344
508 1 -1.1104 9.41362 13.035 20.4261
466 1 -1.1104 6.63528 12.9286 20.5018
9371 2 2.2208 -0.37908 0.249867 16.4715
611 2 2.2208 5.33316 11.7754 27.5442
614 2 2.2208 -0.428595 11.9124 21.8464
9184 2 2.2208 -0.294152 -2.43368 25.1318
9178 2 2.2208 13.4801 11.756 25.0243
484 2 2.2208 2.25599 14.4153 16.2207
471 2 2.2208 5.09422 14.4356 19.1383
456 2 2.2208 5.32702 17.3318 16.3641
458 1 -1.1104 1.00191 18.7451 17.7408
463 1 -1.1104 0.923508 18.866 14.9303
469 1 -1.1104 0.93248 15.7809 17.6953
472 2 2.2208 5.2262 20.0316 19.2877
473 1 -1.1104 0.898459 16.0437 14.8555
478 1 -1.1104 4.01503 18.7024 17.7282
479 2 2.2208 2.4718 17.4905 19.1379
482 1 -1.1104 3.72806 18.7705 15.0448
485 2 2.2208 2.46115 20.1677 16.471
486 1 -1.1104 3.81098 16.0839 17.9491
487 1 -1.1104 3.75054 15.8037 15.0593
475 1 -1.1104 6.49857 16.1113 15.0176
682 2 2.2208 10.667 14.4326 24.7061
549 2 2.2208 -0.379007 11.4793 16.5313
609 2 2.2208 5.15143 5.80607 27.6257
8829 2 2.2208 2.61906 -5.28241 13.802
500 2 2.2208 10.7985 14.4568 19.0299
470 1 -1.1104 6.62778 15.9669 17.7604
467 1 -1.1104 6.68334 18.6741 14.9737
460 1 -1.1104 6.5636 18.7316 17.6426
511 2 2.2208 7.91348 14.4849 16.354
492 2 2.2208 10.7655 17.4748 16.4294
494 1 -1.1104 12.2587 18.6971 17.9834
497 1 -1.1104 12.1873 18.9809 15.3421
499 1 -1.1104 12.0038 15.9126 17.8014
501 2 2.2208 10.7854 20.0964 19.2732
502 1 -1.1104 12.2621 15.8349 14.9534
505 1 -1.1104 9.56634 18.7569 17.8355
506 2 2.2208 8.01845 17.237 19.1611
509 1 -1.1104 9.48821 18.555 14.7727
512 2 2.2208 8.07394 20.2322 16.4073
513 1 -1.1104 9.25521 15.8638 17.817
514 1 -1.1104 9.50188 15.7157 15.0077
613 2 2.2208 -0.263715 8.96654 24.8406
323 1 -1.1104 1.1915 -3.83832 20.9255
342 1 -1.1104 4.32234 -3.91595 20.9248
9370 2 2.2208 13.4895 14.5046 21.9193
384 2 2.2208 13.5525 17.2063 19.1077
668 2 2.2208 -0.403284 20.1499 24.9037
610 2 2.2208 2.53473 8.78445 27.7023
520 2 2.2208 5.27956 0.338458 22.0851
521 1 -1.1104 0.980354 -3.83137 23.5838
525 1 -1.1104 1.2333 -3.94962 26.3493
529 1 -1.1104 1.10756 -1.01524 23.6565
531 2 2.2208 5.32115 -2.3946 24.8068
533 1 -1.1104 1.10433 -0.954128 26.2527
535 1 -1.1104 3.84948 -3.69045 23.5418
537 2 2.2208 2.33703 0.461672 24.946
538 1 -1.1104 4.01159 -3.94471 26.3907
540 2 2.2208 2.56545 -2.35644 22.3112
542 1 -1.1104 3.97589 -0.917788 23.4404
543 1 -1.1104 3.98461 -1.03398 26.4011
9366 2 2.2208 -0.287802 17.4202 16.3117
683 1 -1.1104 12.1402 15.7631 23.4304
376 1 -1.1104 9.57577 -3.9112 20.5522
356 2 2.2208 13.7283 20.2536 16.3992
527 1 -1.1104 6.8151 -3.89572 26.3111
327 1 -1.1104 6.95229 -3.78239 20.6795
530 1 -1.1104 6.94722 -1.09151 23.7331
534 1 -1.1104 6.655 -1.10761 26.3366
523 1 -1.1104 6.81467 -3.77655 23.4325
556 2 2.2208 10.9383 0.503207 22.1033
557 1 -1.1104 12.0957 -3.97116 23.6575
559 1 -1.1104 12.3404 -3.79631 26.4708
561 1 -1.1104 12.3602 -0.970422 23.389
562 2 2.2208 11.0264 -2.47969 24.9759
564 1 -1.1104 12.3197 -1.00587 26.4291
565 1 -1.1104 9.57834 -3.76911 23.4842
567 2 2.2208 8.19742 0.317985 24.9354
568 1 -1.1104 9.5712 -3.87449 26.4144
570 2 2.2208 8.37658 -2.46131 22.1265
572 1 -1.1104 9.71243 -0.936112 23.4081
573 1 -1.1104 9.52509 -0.983744 26.3588
8833 2 2.2208 8.13089 -5.31422 13.6643
400 1 -1.1104 6.51921 7.53456 20.7959
8524 2 2.2208 10.899 -5.08295 22.0854
418 1 -1.1104 3.71901 7.58938 20.5377
398 1 -1.1104 0.987098 7.48347 20.4554
411 1 -1.1104 6.6851 4.85008 20.6589
552 2 2.2208 8.11375 20.208 27.7381
522 1 -1.1104 0.923097 1.82871 23.6317
526 1 -1.1104 0.883237 1.56664 26.325
532 2 2.2208 5.1319 3.17731 24.7649
536 1 -1.1104 3.58553 1.75077 23.613
539 1 -1.1104 3.97758 1.79619 26.3822
541 2 2.2208 2.34724 3.18625 22.095
585 2 2.2208 5.10512 6.12282 21.9356
591 1 -1.1104 0.916727 4.50162 23.4609
596 1 -1.1104 0.778699 4.48596 26.2809
601 2 2.2208 2.20352 5.81556 24.9125
603 1 -1.1104 3.7391 7.0093 26.245
605 1 -1.1104 3.61732 4.70262 23.3871
607 1 -1.1104 3.83926 4.41157 26.2719
589 1 -1.1104 0.933505 7.26833 26.2687
600 1 -1.1104 3.59729 7.37994 23.4929
587 1 -1.1104 0.931689 7.58622 23.3948
528 1 -1.1104 6.72321 1.76001 26.2886
588 1 -1.1104 6.42803 7.43879 23.5053
593 1 -1.1104 6.673 4.58994 23.6411
554 2 2.2208 -0.322695 0.31535 22.143
450 1 -1.1104 9.45433 4.60604 20.866
590 1 -1.1104 6.67899 7.4745 26.5085
366 1 -1.1104 12.4527 1.70979 20.5713
445 1 -1.1104 9.4335 7.3782 20.6412
598 1 -1.1104 6.63835 4.51699 26.2521
524 1 -1.1104 6.58513 1.6715 23.355
558 1 -1.1104 12.3013 1.82599 23.4089
560 1 -1.1104 12.189 1.66343 26.2851
563 2 2.2208 11.0799 3.09308 25.012
566 1 -1.1104 9.48726 1.63723 23.516
569 1 -1.1104 9.37481 1.75803 26.3563
571 2 2.2208 8.1548 3.14642 22.2338
617 1 -1.1104 9.70085 4.47166 26.3943
619 1 -1.1104 9.62125 4.3195 23.5006
621 1 -1.1104 9.56914 7.36625 26.3508
623 2 2.2208 8.08458 6.11112 25.0724
624 2 2.2208 10.8917 6.06972 21.9684
628 1 -1.1104 12.4952 4.79935 23.232
631 1 -1.1104 12.3054 4.40057 26.3562
633 1 -1.1104 9.45293 7.5311 23.3358
626 1 -1.1104 12.3393 7.38906 23.5293
627 1 -1.1104 12.3621 7.37878 26.1666
551 2 2.2208 13.6618 11.654 19.1589
462 1 -1.1104 0.927094 13.3067 20.5462
413 1 -1.1104 6.31157 10.3209 20.4854
657 1 -1.1104 3.89714 13.1203 26.1872
586 2 2.2208 5.04191 11.745 22.0452
592 1 -1.1104 1.00834 10.4065 23.4394
595 2 2.2208 4.98624 8.74651 24.9657
597 1 -1.1104 1.23366 10.0526 26.2481
602 2 2.2208 2.31132 11.7585 24.923
604 2 2.2208 2.10053 8.94294 21.9469
606 1 -1.1104 3.70963 10.2111 23.6843
608 1 -1.1104 3.80005 10.247 26.271
652 1 -1.1104 0.861252 13.187 23.6683
642 1 -1.1104 3.65852 13.0118 23.2627
646 1 -1.1104 0.773438 13.0825 26.3772
650 1 -1.1104 6.42815 13.0565 23.3615
680 1 -1.1104 12.0587 16.0781 26.288
440 1 -1.1104 11.9952 10.1877 20.671
641 1 -1.1104 6.68335 12.7923 26.2219
599 1 -1.1104 6.46547 10.2177 26.1869
594 1 -1.1104 6.5985 10.2372 23.5506
685 1 -1.1104 12.1336 13.2061 26.2847
679 1 -1.1104 9.15413 12.8585 23.409
637 1 -1.1104 12.017 12.9225 23.536
675 1 -1.1104 9.27292 12.9557 26.3261
616 1 -1.1104 9.44268 10.0839 26.2289
618 1 -1.1104 9.40436 10.1059 23.6568
620 2 2.2208 7.86552 8.73895 21.9943
622 2 2.2208 7.9702 11.555 24.8743
625 2 2.2208 10.7824 11.5195 22.0169
629 1 -1.1104 12.1381 10.2906 23.6076
630 2 2.2208 10.9534 8.8772 24.8997
632 1 -1.1104 12.2124 10.2349 26.496
8828 2 2.2208 2.55851 -5.18049 19.3868
678 1 -1.1104 9.36753 18.6349 23.5671
669 1 -1.1104 12.3766 18.5205 23.4044
464 1 -1.1104 0.743438 18.8625 20.6719
474 1 -1.1104 1.07634 15.9888 20.5302
672 2 2.2208 8.08097 20.1813 21.9585
643 1 -1.1104 6.46115 15.6121 26.1714
488 1 -1.1104 3.68218 16.1583 20.6853
483 1 -1.1104 3.6139 18.7527 20.7681
645 1 -1.1104 0.824487 15.8014 25.9749
648 2 2.2208 5.22658 20.0218 24.9369
662 2 2.2208 2.36578 14.6789 22.0246
649 2 2.2208 5.24841 14.4357 24.652
660 1 -1.1104 3.63638 16.099 23.39
659 1 -1.1104 0.993807 16.2822 23.2198
656 1 -1.1104 3.67999 15.7501 26.3104
655 2 2.2208 2.3629 17.3135 24.7948
654 1 -1.1104 3.78911 18.6971 26.4356
653 2 2.2208 5.1472 17.3484 21.9902
651 1 -1.1104 0.958802 18.943 23.6456
661 2 2.2208 2.46568 20.3198 22.1722
640 1 -1.1104 3.7171 18.9444 23.5124
644 1 -1.1104 0.875554 18.453 26.2817
634 2 2.2208 10.8519 5.84997 27.76
671 1 -1.1104 9.33949 15.8256 23.2929
673 2 2.2208 8.05433 14.3017 21.8865
350 2 2.2208 -0.393755 6.05523 21.9956
670 1 -1.1104 9.18489 15.8815 26.2473
468 1 -1.1104 6.48518 18.669 20.5925
676 1 -1.1104 6.64598 18.499 26.3056
503 1 -1.1104 12.1515 15.8035 20.6021
515 1 -1.1104 9.32152 15.8031 20.5744
677 2 2.2208 7.92774 17.2972 24.893
681 2 2.2208 10.8585 20.1632 24.8996
498 1 -1.1104 11.9549 18.628 20.7247
674 1 -1.1104 9.33871 18.7995 26.2155
476 1 -1.1104 6.38196 15.8092 20.497
553 2 2.2208 10.748 17.2238 21.975
647 1 -1.1104 6.53656 18.6346 23.3448
658 1 -1.1104 6.41313 16.0652 23.4484
353 2 2.2208 13.5 14.5143 27.7104
546 2 2.2208 2.40029 2.93975 27.6979
665 2 2.2208 2.54027 14.4391 27.696
9369 2 2.2208 13.5976 17.4215 24.8579
547 2 2.2208 7.9636 14.2607 27.564
426 2 2.2208 2.35975 6.03634 13.7968
517 2 2.2208 10.8187 14.4479 13.7529
490 2 2.2208 5.32422 20.2203 13.7443
9226 2 2.2208 -0.395949 3.09203 13.6683
550 2 2.2208 13.5989 11.7437 13.7317
544 2 2.2208 5.31794 0.315547 27.6961
664 2 2.2208 5.23345 17.2195 27.6297
635 2 2.2208 8.10261 8.96896 27.6126
9219 2 2.2208 -0.350988 0.238458 27.616
689 2 2.2208 5.24332 22.8441 5.10071
691 1 -1.1104 0.867831 24.178 1.05707
692 1 -1.1104 0.996329 24.5092 3.85554
693 1 -1.1104 0.955428 21.5083 0.948234
695 2 2.2208 5.28345 25.6051 2.1213
696 1 -1.1104 0.822437 21.732 3.73657
698 1 -1.1104 3.95436 24.082 0.929744
699 2 2.2208 2.41138 22.8478 2.31305
701 1 -1.1104 3.93118 24.1888 3.68469
702 2 2.2208 2.30076 25.7437 5.23838
703 1 -1.1104 3.84048 21.3002 1.04075
705 1 -1.1104 3.56714 21.4483 3.81407
706 1 -1.1104 3.63911 27.0291 3.79461
712 1 -1.1104 6.76228 21.374 1.03612
694 1 -1.1104 1.16046 27.0226 1.04346
704 1 -1.1104 3.96116 26.9465 0.878718
710 1 -1.1104 6.80234 24.2656 0.873257
714 1 -1.1104 6.43542 21.5322 3.80714
711 1 -1.1104 6.61816 24.4376 3.63538
971 2 2.2208 -0.259811 45.6988 10.8743
832 1 -1.1104 1.01369 21.51 6.69877
838 1 -1.1104 3.97979 26.8836 6.44004
1286 2 2.2208 10.8213 33.9985 -0.340663
715 1 -1.1104 6.30123 27.1313 3.53483
716 2 2.2208 10.8646 23.0816 5.03305
718 1 -1.1104 12.4771 24.225 0.750387
719 1 -1.1104 12.1901 24.295 3.76166
720 1 -1.1104 12.3701 21.5496 1.03315
722 2 2.2208 11.0127 25.6806 2.25184
723 1 -1.1104 12.2643 21.4395 3.70402
725 1 -1.1104 9.53003 24.2856 0.892828
726 2 2.2208 7.91681 22.942 2.30983
728 1 -1.1104 9.40549 24.4012 3.61077
729 2 2.2208 7.9059 25.8099 4.92799
730 1 -1.1104 9.55332 21.4702 1.003
732 1 -1.1104 9.12388 21.6616 3.68206
724 1 -1.1104 12.1652 27.2561 3.79959
731 1 -1.1104 9.5817 26.9315 0.991519
721 1 -1.1104 12.464 27.0845 0.88435
9809 2 2.2208 -0.411144 31.2788 2.2117
834 1 -1.1104 6.41829 21.3354 6.43808
864 1 -1.1104 12.3442 21.7091 6.67833
1294 2 2.2208 -0.41462 45.3234 -0.386444
697 1 -1.1104 0.889757 27.1571 4.03634
690 2 2.2208 5.12159 28.5455 4.91753
700 2 2.2208 2.3125 28.4672 2.38986
738 1 -1.1104 1.02718 29.9577 1.0016
741 1 -1.1104 0.792034 29.714 3.5795
744 1 -1.1104 1.03813 32.6632 1.02543
745 2 2.2208 4.91852 31.3319 2.34986
747 1 -1.1104 0.722139 32.4153 3.89814
749 1 -1.1104 3.7641 29.6753 1.0428
752 1 -1.1104 3.49041 30.0038 3.84518
754 2 2.2208 2.33052 31.184 5.38812
756 1 -1.1104 3.70954 32.6238 0.932551
757 1 -1.1104 3.7763 32.8622 3.66711
886 1 -1.1104 0.761678 32.941 6.58291
761 1 -1.1104 6.43948 29.9072 1.16397
763 1 -1.1104 6.73338 32.5931 0.943818
748 1 -1.1104 6.53641 32.8525 3.77824
762 1 -1.1104 6.32075 30.2229 3.87581
9810 2 2.2208 13.656 34.2812 2.54185
890 1 -1.1104 3.67882 33.0499 6.50831
888 1 -1.1104 4.04442 29.9708 6.6449
887 1 -1.1104 6.60238 32.8262 6.49617
884 1 -1.1104 6.73287 29.9926 6.37635
760 2 2.2208 -0.42072 37.1779 2.49712
713 1 -1.1104 6.7714 27.0176 0.743452
733 1 -1.1104 9.1375 27.1591 3.6524
865 1 -1.1104 12.1841 27.3831 6.73
717 2 2.2208 10.9309 28.678 5.20104
727 2 2.2208 8.02972 28.392 2.01754
765 1 -1.1104 12.3472 29.9004 1.05704
767 1 -1.1104 12.1661 30.1801 3.90683
769 1 -1.1104 12.1891 32.5947 0.865703
770 2 2.2208 10.8402 31.2872 2.31897
772 1 -1.1104 12.437 32.7965 3.75516
773 1 -1.1104 9.49163 29.9297 0.930023
776 1 -1.1104 9.29247 30.0104 3.57884
778 2 2.2208 7.95733 31.4858 5.18324
780 1 -1.1104 9.51614 32.7604 1.16472
781 1 -1.1104 9.33788 32.9287 3.83
921 1 -1.1104 9.31103 32.7979 6.61539
919 1 -1.1104 9.63325 30.0009 6.48699
1257 2 2.2208 5.20815 34.089 -0.477098
9811 2 2.2208 -0.342132 45.5784 5.34642
751 2 2.2208 2.3782 34.2883 2.27313
737 2 2.2208 5.10898 34.2776 5.16754
739 1 -1.1104 0.902619 35.6001 0.930111
742 1 -1.1104 0.620639 35.4415 3.8372
746 2 2.2208 5.40167 37.1196 2.23247
750 1 -1.1104 3.83779 35.4515 1.10048
753 1 -1.1104 3.5017 35.704 3.85988
755 2 2.2208 2.4153 37.0033 5.26123
783 2 2.2208 5.25226 39.9354 5.06564
789 1 -1.1104 0.783922 38.4952 0.948556
794 1 -1.1104 1.08556 38.3543 3.71118
799 2 2.2208 2.58416 39.8971 2.48131
803 1 -1.1104 3.6015 38.4063 1.00671
805 1 -1.1104 3.90463 38.5081 3.63463
883 1 -1.1104 0.900906 35.7132 6.64573
740 1 -1.1104 6.63742 35.6301 0.924163
743 1 -1.1104 6.28637 35.6438 3.94073
791 1 -1.1104 6.73625 38.5051 0.776867