ITEM: TIMESTEP
20000
ITEM: NUMBER OF ATOMS
17640
ITEM: BOX BOUNDS pp pp pp
-4.4455815297944490e-01 2.7784558152979510e+01
-5.4867180736852186e+00 3.3356671807368394e+02
-4.3049559229067563e-01 2.7770495592290725e+01
ITEM: ATOMS id type q x y z
1 2 2.2208 5.32403 0.232589 5.10355
2 1 -1.1104 1.25264 -4.19736 1.01905
6 1 -1.1104 0.906256 -4.10691 3.81604
10 1 -1.1104 0.95203 -1.09206 1.01613
12 2 2.2208 5.19443 -2.58322 2.51969
14 1 -1.1104 1.404 -1.31692 3.73822
16 1 -1.1104 3.9844 -3.80534 1.14238
18 2 2.2208 2.44382 0.147558 2.2604
19 1 -1.1104 3.79604 -4.20624 3.79946
21 2 2.2208 2.57981 -2.70194 5.22938
23 1 -1.1104 3.83605 -1.08751 0.863347
24 1 -1.1104 3.98089 -1.3075 3.77338
166 1 -1.1104 0.925041 -3.93554 6.67512
170 1 -1.1104 1.15776 -1.29009 6.56356
174 1 -1.1104 3.9943 -1.17367 6.53715
8448 2 2.2208 2.44894 -5.49593 2.55414
8454 2 2.2208 -0.249765 -5.43662 10.8889
8835 2 2.2208 5.31624 -5.2961 -0.35554
231 2 2.2208 13.5755 2.74317 5.05237
8 1 -1.1104 6.70124 -3.89141 3.71343
15 1 -1.1104 6.65753 -1.2611 3.77944
4 1 -1.1104 6.55324 -3.92802 0.989298
11 1 -1.1104 6.57638 -1.08906 1.0425
31 2 2.2208 11.0872 -0.059307 5.31225
32 1 -1.1104 12.4874 -4.01443 1.18255
34 1 -1.1104 12.4161 -4.07433 3.93188
36 1 -1.1104 12.639 -1.21248 0.884381
37 2 2.2208 10.9261 -2.7199 2.58359
39 1 -1.1104 12.39 -1.33862 3.83337
40 1 -1.1104 9.70299 -3.85989 1.23909
42 2 2.2208 8.20101 0.209841 2.34054
43 1 -1.1104 9.64118 -4.15217 4.01751
45 2 2.2208 8.20354 -2.50504 5.34057
47 1 -1.1104 9.51162 -1.04314 1.01302
48 1 -1.1104 9.44802 -1.26852 3.79972
210 1 -1.1104 9.76552 -1.24495 6.55446
8859 2 2.2208 -0.393035 19.7268 7.87823
83 2 2.2208 -0.453975 11.3665 5.2541
9150 2 2.2208 -0.351535 5.70481 5.17914
3 1 -1.1104 1.21179 1.74375 0.781004
7 1 -1.1104 1.08835 1.43734 3.52564
13 2 2.2208 5.38772 2.78983 2.24826
17 1 -1.1104 3.69348 1.74362 1.07778
20 1 -1.1104 3.92687 1.36591 3.98294
22 2 2.2208 2.41977 2.94125 5.14885
54 2 2.2208 5.44326 5.6235 5.22054
56 1 -1.1104 1.0993 7.10814 0.886946
58 1 -1.1104 0.96281 7.24137 3.66347
60 1 -1.1104 1.16559 4.52894 0.723171
67 1 -1.1104 1.15531 4.4056 3.73873
71 1 -1.1104 3.89663 7.15611 0.763892
72 2 2.2208 2.48825 5.78247 2.16842
74 1 -1.1104 3.92319 6.93837 3.70259
76 1 -1.1104 3.87322 4.35297 0.737975
79 1 -1.1104 3.9044 4.17138 3.79082
239 1 -1.1104 3.80029 4.28787 6.69596
57 1 -1.1104 6.66916 7.31077 0.890595
236 1 -1.1104 1.00376 4.35608 6.49932
167 1 -1.1104 1.06506 1.6809 6.39889
8449 2 2.2208 5.29894 -5.45164 5.15968
235 1 -1.1104 6.79151 7.26992 6.4063
238 1 -1.1104 3.89041 7.0869 6.41656
9018 2 2.2208 -0.339804 19.8087 2.4243
145 1 -1.1104 12.5386 18.5519 6.55326
237 1 -1.1104 6.61246 4.10897 6.63871
63 1 -1.1104 6.92106 4.35968 0.989582
9 1 -1.1104 6.6578 1.52892 3.74187
59 1 -1.1104 6.67312 7.02702 3.73082
169 1 -1.1104 6.73688 1.62633 6.80095
69 1 -1.1104 6.78465 4.35894 3.73329
5 1 -1.1104 6.86113 1.5975 1.00502
33 1 -1.1104 12.4079 1.6688 0.84671
35 1 -1.1104 12.1977 1.41185 3.99294
38 2 2.2208 11.066 2.9758 2.45851
41 1 -1.1104 9.55643 1.75686 1.08017
44 1 -1.1104 9.50184 1.50492 4.03114
46 2 2.2208 8.15629 2.91983 5.21789
84 2 2.2208 10.8378 5.61115 5.18062
86 1 -1.1104 12.5157 7.18109 0.868287
87 1 -1.1104 12.3156 7.14323 3.83172
88 1 -1.1104 12.439 4.37477 0.961308
92 1 -1.1104 12.2644 4.27506 3.59695
95 2 2.2208 8.11107 5.74068 2.38555
97 1 -1.1104 9.52753 7.08643 3.84483
99 1 -1.1104 9.63994 4.49127 0.901356
102 1 -1.1104 9.49479 4.26028 3.84628
94 1 -1.1104 9.44809 7.27629 0.759247
269 1 -1.1104 9.44819 4.36104 6.82737
265 1 -1.1104 12.42 7.27039 6.68869
267 1 -1.1104 9.50506 7.13146 6.82752
266 1 -1.1104 12.2907 4.24646 6.43743
355 2 2.2208 -0.262218 -2.73857 13.5729
55 2 2.2208 5.25388 11.4054 5.03263
61 1 -1.1104 1.02337 9.87884 1.00563
66 2 2.2208 5.39055 8.46999 2.25461
68 1 -1.1104 0.982179 9.99417 3.78676
73 2 2.2208 2.24657 11.4756 2.32967
75 2 2.2208 2.56247 8.415 4.95712
77 1 -1.1104 3.95774 9.91454 0.587315
80 1 -1.1104 3.70064 9.85653 3.54388
107 1 -1.1104 0.947923 12.8941 1.08924
113 1 -1.1104 1.08452 13.0271 3.94357
123 1 -1.1104 3.66234 12.7329 0.716771
128 1 -1.1104 3.96406 12.8182 3.63425
70 1 -1.1104 6.91382 9.80584 3.78447
64 1 -1.1104 7.04252 9.96703 0.908269
62 1 -1.1104 0.9735 10.1898 6.83602
110 1 -1.1104 6.58034 12.8101 0.777445
359 2 2.2208 5.29497 2.98088 13.5902
124 1 -1.1104 3.81205 12.8243 6.69987
8452 2 2.2208 2.47516 -5.37189 7.86574
25 2 2.2208 -0.369102 -2.70763 2.27398
314 1 -1.1104 9.46328 15.6125 9.32156
115 1 -1.1104 6.63286 12.8143 3.58675
85 2 2.2208 10.9221 11.5152 5.14905
89 1 -1.1104 12.5256 10.0322 1.04373
91 2 2.2208 10.8988 8.53974 2.3031
93 1 -1.1104 12.2194 10.0387 3.74872
96 2 2.2208 8.25028 11.3676 2.46226
98 2 2.2208 8.2867 8.60414 5.15268
100 1 -1.1104 9.78528 10.1728 0.910744
103 1 -1.1104 9.66243 9.96079 3.95154
142 1 -1.1104 12.0917 13.0035 0.922146
146 1 -1.1104 12.2442 12.7822 3.79019
153 1 -1.1104 9.60108 12.931 0.819475
158 1 -1.1104 9.44217 13.1505 3.60693
90 1 -1.1104 12.3266 9.8629 6.59341
111 1 -1.1104 6.72343 12.7342 6.49526
101 1 -1.1104 9.63293 10.1012 6.69407
17272 2 2.2208 -0.388443 -5.34981 5.26967
9086 2 2.2208 -0.24237 8.58706 7.95623
106 2 2.2208 5.24696 17.0206 5.15703
109 1 -1.1104 0.978353 18.5918 0.908716
114 1 -1.1104 1.24558 18.3295 3.68312
116 1 -1.1104 0.985065 15.7497 0.982702
119 2 2.2208 5.17677 14.0687 2.20419
120 2 2.2208 5.36637 19.8739 2.43871
121 1 -1.1104 0.944269 15.7137 3.7463
125 1 -1.1104 4.05687 18.4664 0.914168
127 2 2.2208 2.56899 17.1073 2.409
129 1 -1.1104 3.94158 18.2804 3.69345
130 2 2.2208 2.51537 14.3077 5.18081
131 2 2.2208 2.36171 19.8677 5.20153
132 1 -1.1104 3.55285 15.3593 1.25881
134 1 -1.1104 3.86216 15.688 3.89467
140 1 -1.1104 6.41386 15.5203 0.971215
122 1 -1.1104 6.82545 15.582 3.70503
139 1 -1.1104 6.56767 18.5707 3.69347
138 1 -1.1104 6.66455 18.4159 0.913052
8453 2 2.2208 5.36111 -5.41192 11.0714
9053 2 2.2208 -0.304665 8.49952 2.31436
126 1 -1.1104 3.94564 18.4417 6.61917
233 2 2.2208 8.2337 14.2607 10.7226
288 1 -1.1104 6.8359 18.2478 9.36243
150 2 2.2208 10.6887 14.2702 2.18178
141 2 2.2208 11.0055 17.1423 5.1865
144 1 -1.1104 12.2592 18.4493 0.774812
147 1 -1.1104 12.3644 18.3849 3.64509
148 1 -1.1104 12.342 15.6576 0.691356
151 2 2.2208 10.8235 19.9345 2.3581
152 1 -1.1104 12.4584 15.7154 3.69836
155 1 -1.1104 9.59633 18.7679 0.786657
157 2 2.2208 8.05907 17.0404 2.35993
159 1 -1.1104 9.57682 18.4708 3.61377
160 2 2.2208 8.1872 14.39 5.13443
161 2 2.2208 8.18484 19.8658 5.26464
162 1 -1.1104 9.33797 15.7019 1.04067
164 1 -1.1104 9.49876 15.6132 3.78636
149 1 -1.1104 12.5079 15.8365 6.53056
118 1 -1.1104 6.81242 15.5133 6.59434
199 1 -1.1104 12.3298 15.6498 9.39751
163 1 -1.1104 9.59368 15.711 6.46448
313 2 2.2208 -0.347005 14.2187 7.93158
172 1 -1.1104 3.91577 -4.11382 6.54879
8450 2 2.2208 8.02961 -5.31947 2.48499
9017 2 2.2208 -0.201819 2.81383 7.94249
175 2 2.2208 5.25837 0.185221 10.9652
176 1 -1.1104 0.957325 -4.07895 12.1161
180 1 -1.1104 1.05118 -4.05563 9.38854
184 1 -1.1104 1.13245 -1.23289 12.1424
186 2 2.2208 5.47722 -2.67484 8.0647
188 1 -1.1104 1.04765 -1.29713 9.38064
190 1 -1.1104 3.76646 -4.13287 12.3588
192 2 2.2208 2.56325 0.0214586 8.04061
193 1 -1.1104 4.10571 -3.94837 9.45924
195 2 2.2208 2.48007 -2.58929 10.9329
197 1 -1.1104 4.1371 -1.02305 12.3356
198 1 -1.1104 3.9823 -1.20752 9.61461
185 1 -1.1104 6.98246 -1.2563 12.2507
178 1 -1.1104 6.54885 -3.93727 12.2259
189 1 -1.1104 6.7484 -1.2693 9.57427
9149 2 2.2208 -0.225567 2.98416 2.35605
517 2 2.2208 10.9491 14.077 13.4243
52 2 2.2208 13.7193 5.80614 8.05207
168 1 -1.1104 6.92391 -3.89804 6.53452
29 2 2.2208 13.7261 8.64511 10.7858
207 1 -1.1104 12.4246 -1.32401 6.66697
205 1 -1.1104 12.253 -3.98801 6.68512
203 2 2.2208 13.6313 19.9059 5.0905
208 1 -1.1104 9.64063 -4.19906 6.79638
8884 2 2.2208 -0.339074 0.0491016 10.7984
171 1 -1.1104 6.99643 -1.13087 6.73866
182 1 -1.1104 6.7606 -4.05725 9.53629
211 2 2.2208 10.8863 0.283257 10.9998
212 1 -1.1104 12.5591 -4.13616 12.0951
214 1 -1.1104 12.1578 -4.08711 9.53967
216 1 -1.1104 12.4573 -1.2237 12.3495
217 2 2.2208 10.8746 -2.60481 8.1118
219 1 -1.1104 12.4395 -1.13882 9.53968
220 1 -1.1104 9.60944 -4.10993 12.3088
222 2 2.2208 8.13802 0.24289 8.17558
223 1 -1.1104 9.44127 -3.96493 9.50411
225 2 2.2208 8.07709 -2.70418 10.8188
227 1 -1.1104 9.65888 -1.06668 12.3106
228 1 -1.1104 9.63268 -1.19738 9.5905
491 2 2.2208 5.36881 14.1331 13.6186
9219 2 2.2208 -0.35173 0.136169 -0.396221
234 1 -1.1104 1.08933 7.18392 6.62223
173 1 -1.1104 3.98586 1.47308 6.8249
552 2 2.2208 8.01016 20.1039 -0.455501
177 1 -1.1104 1.12192 1.65892 12.1836
181 1 -1.1104 1.05034 1.44585 9.22467
187 2 2.2208 5.20844 2.98299 8.15066
191 1 -1.1104 3.91802 1.58535 12.1241
194 1 -1.1104 3.6991 1.43577 9.52155
196 2 2.2208 2.28459 2.92525 10.8778
240 2 2.2208 5.32387 5.7545 10.7836
242 1 -1.1104 0.952654 7.13046 12.039
244 1 -1.1104 0.921789 7.03801 9.35144
246 1 -1.1104 0.90335 4.44509 12.1906
251 1 -1.1104 0.932562 4.18855 9.259
255 1 -1.1104 3.88985 7.30224 11.9851
256 2 2.2208 2.50832 5.86262 7.92068
260 1 -1.1104 3.90917 4.43369 12.2405
262 1 -1.1104 3.89508 4.3912 9.62993
258 1 -1.1104 3.762 7.22011 9.29953
183 1 -1.1104 6.73254 1.61474 9.64763
9368 2 2.2208 -0.233656 19.7051 13.6824
243 1 -1.1104 6.48569 7.08019 12.2506
665 2 2.2208 2.3368 14.3498 -0.421603
209 1 -1.1104 9.52135 1.55652 6.86121
206 1 -1.1104 12.1816 1.46188 6.58599
253 1 -1.1104 6.6282 4.48634 9.51676
248 1 -1.1104 6.79282 4.36061 12.385
179 1 -1.1104 6.79711 1.65066 12.2286
245 1 -1.1104 6.65395 7.2655 9.40898
213 1 -1.1104 12.5278 1.84782 12.3474
215 1 -1.1104 12.3785 1.39754 9.49734
218 2 2.2208 11.0682 2.8951 8.08719
221 1 -1.1104 9.58216 1.64131 12.2697
224 1 -1.1104 9.42064 1.46527 9.61445
226 2 2.2208 8.01389 3.15108 10.7929
268 1 -1.1104 9.57655 4.2314 9.45999
271 1 -1.1104 9.3723 4.69181 12.3686
273 1 -1.1104 9.53744 7.195 9.29849
275 2 2.2208 8.14151 5.85399 8.17527
276 2 2.2208 10.8073 5.79753 10.925
278 1 -1.1104 12.2871 7.38026 12.1886
279 1 -1.1104 12.5037 7.17864 9.39751
280 1 -1.1104 12.324 4.57476 12.1541
283 1 -1.1104 12.3937 4.49975 9.23664
285 1 -1.1104 9.51741 7.28463 12.1401
28 2 2.2208 -0.488415 11.4153 10.7617
108 1 -1.1104 0.88257 12.9087 6.61689
78 1 -1.1104 3.70327 9.99839 6.35872
241 2 2.2208 5.47655 11.4488 10.8583
247 1 -1.1104 1.16634 9.92291 12.3139
250 2 2.2208 5.13835 8.75619 8.01508
252 1 -1.1104 1.18555 9.89631 9.53813
257 2 2.2208 2.38219 11.2873 8.18414
259 2 2.2208 2.47976 8.64275 10.8159
261 1 -1.1104 3.78127 10.2502 12.1073
263 1 -1.1104 3.893 10.1725 9.26954
287 1 -1.1104 4.04186 12.7923 12.3294
294 1 -1.1104 1.16238 12.5982 9.56533
299 1 -1.1104 0.832093 12.8205 12.3588
305 1 -1.1104 4.02218 12.847 9.59088
65 1 -1.1104 6.82357 10.0362 6.64918
290 1 -1.1104 6.79355 12.7182 9.35077
249 1 -1.1104 6.69531 10.0412 12.2222
137 2 2.2208 -0.270761 16.9081 5.1206
453 2 2.2208 8.05922 5.99214 13.5872
518 2 2.2208 8.19107 16.9989 13.6676
154 1 -1.1104 9.78556 12.9555 6.5295
316 2 2.2208 8.16539 19.819 10.9229
297 1 -1.1104 6.81994 12.9079 12.1951
254 1 -1.1104 6.61813 9.9838 9.63723
143 1 -1.1104 12.59 12.8604 6.5811
312 1 -1.1104 9.58629 12.8852 9.29696
264 1 -1.1104 9.43152 9.92845 9.29417
270 1 -1.1104 9.52017 10.093 11.9916
272 2 2.2208 8.17947 8.65989 10.6879
274 2 2.2208 8.1182 11.4921 7.96979
277 2 2.2208 11.0224 11.5149 10.7088
281 1 -1.1104 12.4662 10.173 12.335
282 2 2.2208 10.9465 8.56132 7.9576
284 1 -1.1104 12.2031 9.91634 9.387
200 1 -1.1104 9.44813 12.8191 12.018
49 1 -1.1104 12.4001 12.9366 12.0327
53 1 -1.1104 12.2472 12.8138 9.29678
232 1 -1.1104 9.73285 18.2952 9.28373
117 1 -1.1104 0.995699 15.7268 6.67374
133 1 -1.1104 4.09217 15.6663 6.61525
302 1 -1.1104 1.04627 18.567 6.44552
289 1 -1.1104 6.70193 15.388 9.51649
310 2 2.2208 2.46966 14.2158 10.993
295 2 2.2208 5.37494 14.1639 7.82248
308 1 -1.1104 4.04659 15.5795 12.2584
309 2 2.2208 2.45212 19.8332 10.7659
307 1 -1.1104 1.24925 15.6736 12.3298
304 1 -1.1104 3.60003 15.841 9.34242
286 1 -1.1104 3.84652 18.2965 12.2083
291 1 -1.1104 0.988792 18.4627 9.33033
292 1 -1.1104 0.93684 15.6104 9.45666
293 2 2.2208 5.27297 19.9039 7.98352
298 1 -1.1104 1.15133 18.5777 12.2439
300 2 2.2208 5.33191 16.9463 10.7545
301 1 -1.1104 4.06061 18.4284 9.25481
303 2 2.2208 2.4328 17.1648 7.93568
306 1 -1.1104 6.97568 15.6052 12.4457
8858 2 2.2208 -0.231069 17.0451 10.9049
296 1 -1.1104 6.49587 18.3461 12.0826
357 2 2.2208 5.38394 -2.35195 13.6085
82 1 -1.1104 12.3114 15.9083 12.3789
112 1 -1.1104 6.70632 18.2822 6.53299
136 2 2.2208 10.9536 19.8098 7.94809
315 1 -1.1104 9.65184 15.6811 12.1237
311 2 2.2208 8.0526 16.9906 7.8846
201 1 -1.1104 9.59044 18.4228 12.2085
30 2 2.2208 11.0402 17.1642 10.7204
81 1 -1.1104 12.5468 18.5733 9.40243
156 1 -1.1104 9.66453 18.4082 6.3748
105 2 2.2208 11.0112 14.3995 7.9503
50 1 -1.1104 12.5737 18.5126 12.4422
392 2 2.2208 10.832 3.17027 13.493
386 2 2.2208 -0.366508 8.57748 13.6392
8457 2 2.2208 13.5707 -5.23668 8.02491
426 2 2.2208 2.27702 5.67038 13.5889
428 2 2.2208 2.40222 11.3154 13.6703
663 2 2.2208 2.57223 19.9744 -0.359682
8525 2 2.2208 10.9057 -5.35723 -0.216395
454 2 2.2208 10.8412 8.71129 13.4834
9148 2 2.2208 -0.0195738 -0.0685479 5.20823
427 2 2.2208 5.15028 8.76698 13.5804
9367 2 2.2208 -0.242194 14.3037 13.6453
8829 2 2.2208 2.36479 -5.42188 13.612
615 2 2.2208 -0.323406 5.7343 -0.375423
390 2 2.2208 8.20381 0.328279 13.6165
609 2 2.2208 5.39551 5.85175 -0.327388
545 2 2.2208 2.70069 -2.54679 -0.372747
490 2 2.2208 5.48391 19.6918 13.6
317 2 2.2208 5.31291 0.118316 16.4567
318 1 -1.1104 1.13191 -4.04243 17.8163
322 1 -1.1104 1.30823 -3.95195 15.1192
330 1 -1.1104 1.13053 -1.29701 17.8114
332 2 2.2208 5.23918 -2.45276 19.3115
334 1 -1.1104 1.19753 -1.37585 14.9928
338 1 -1.1104 3.76223 -4.04108 18.1465
340 2 2.2208 2.511 0.248511 19.281
341 1 -1.1104 3.94072 -3.65955 15.078
345 2 2.2208 2.56916 -2.66772 16.5606
347 1 -1.1104 3.87532 -1.17283 17.8086
348 1 -1.1104 4.03793 -0.917118 15.0235
342 1 -1.1104 4.05392 -3.89489 20.6151
349 1 -1.1104 4.00873 -1.16228 20.7334
688 2 2.2208 13.6246 0.176885 19.2734
613 2 2.2208 -0.423898 8.49768 25.0087
549 2 2.2208 -0.363671 11.4076 16.3819
354 2 2.2208 -0.36796 -2.70083 19.2038
389 2 2.2208 -0.0622014 8.61864 19.241
554 2 2.2208 -0.269124 0.235368 22.2257
326 1 -1.1104 6.73189 -4.06792 15.0517
320 1 -1.1104 6.59106 -3.92524 17.8902
336 1 -1.1104 6.94257 -1.24991 15.0521
331 1 -1.1104 6.74795 -1.05465 17.9646
360 2 2.2208 11.0162 0.224695 16.5389
361 1 -1.1104 12.2946 -3.97608 17.7813
363 1 -1.1104 12.4333 -3.85814 15.1121
367 1 -1.1104 12.6292 -1.23795 17.9691
368 2 2.2208 10.8755 -2.56561 19.3555
370 1 -1.1104 12.5764 -1.02708 15.3391
372 1 -1.1104 9.4131 -4.1956 17.948
374 2 2.2208 8.11021 0.282715 19.2452
375 1 -1.1104 9.68071 -3.85716 15.0697
379 2 2.2208 8.27721 -2.59366 16.5248
381 1 -1.1104 9.74564 -1.2008 17.9049
382 1 -1.1104 9.70396 -1.21376 15.2176
364 1 -1.1104 12.4609 -3.75256 20.9049
8523 2 2.2208 8.04038 -5.43871 25.1579
576 2 2.2208 8.31728 3.14875 27.8313
678 1 -1.1104 9.23385 18.3059 23.2707
319 1 -1.1104 1.16272 1.55623 17.6309
324 1 -1.1104 1.16446 1.59204 14.971
333 2 2.2208 5.25869 3.01606 19.0947
339 1 -1.1104 3.85238 1.69334 17.74
343 1 -1.1104 4.02261 1.83447 15.0577
346 2 2.2208 2.48865 3.04278 16.2895
393 2 2.2208 5.33179 5.78361 16.2108
395 1 -1.1104 1.27016 7.18136 17.7267
397 1 -1.1104 0.834305 6.93321 14.9452
401 1 -1.1104 0.943276 4.35405 17.5225
406 1 -1.1104 0.811346 4.23582 14.9385
415 2 2.2208 2.63233 5.94073 19.21
420 1 -1.1104 3.74621 4.66074 17.7437
422 1 -1.1104 3.60365 4.60213 15.1347
414 1 -1.1104 4.09901 7.28866 17.7361
417 1 -1.1104 3.67682 7.51215 14.8494
398 1 -1.1104 1.14467 7.11145 20.5685
418 1 -1.1104 3.88605 7.33673 20.6162
321 1 -1.1104 6.7788 1.67051 17.7525
328 1 -1.1104 6.7235 1.47511 14.9162
399 1 -1.1104 6.72586 7.4103 15.023
667 2 2.2208 -0.353947 17.1709 27.6939
325 1 -1.1104 1.00981 1.61717 20.6134
555 2 2.2208 -0.359567 2.97735 24.9015
580 2 2.2208 -0.216395 3.01959 19.0778
666 2 2.2208 -0.198912 14.1813 25.0591
403 1 -1.1104 6.80139 4.3872 17.918
410 1 -1.1104 6.76716 4.28123 15.1101
396 1 -1.1104 6.94102 7.03792 17.6243
362 1 -1.1104 12.3752 1.72102 17.8691
365 1 -1.1104 12.4054 1.81829 15.2565
369 2 2.2208 11.1405 3.19398 19.183
373 1 -1.1104 9.53435 1.65455 17.9275
377 1 -1.1104 9.64723 1.6187 15.0759
380 2 2.2208 8.20471 3.08016 16.3662
429 2 2.2208 11.2145 5.85554 16.3526
431 1 -1.1104 12.5268 7.31601 17.721
432 1 -1.1104 12.6689 7.31043 15.1923
434 1 -1.1104 12.2677 4.51285 17.7331
437 1 -1.1104 12.5636 4.49162 15.054
441 1 -1.1104 9.71679 7.22328 17.9823
442 2 2.2208 8.1943 5.7405 19.1555
444 1 -1.1104 9.58679 7.26589 14.8798
447 1 -1.1104 9.65446 4.62048 17.6939
449 1 -1.1104 9.75512 4.64063 14.7548
378 1 -1.1104 9.48235 1.58763 20.8627
411 1 -1.1104 6.92801 4.31439 20.5828
366 1 -1.1104 12.1724 1.55526 20.6462
450 1 -1.1104 9.64728 4.29624 20.7041
400 1 -1.1104 6.90884 7.29996 20.7834
614 2 2.2208 -0.24432 11.3511 22.0626
394 2 2.2208 5.26865 11.4843 16.3816
402 1 -1.1104 1.31953 10.1638 17.9484
405 2 2.2208 5.61368 8.70135 19.2671
408 1 -1.1104 0.901583 9.99567 14.951
416 2 2.2208 2.5333 11.4364 19.2817
419 2 2.2208 2.54551 8.66291 16.5265
421 1 -1.1104 4.05505 10.0746 17.8573
424 1 -1.1104 3.88666 10.0186 14.9995
457 1 -1.1104 0.985685 12.8946 17.8596
461 1 -1.1104 1.17567 12.9261 15.0091
477 1 -1.1104 3.8342 12.743 17.7005
480 1 -1.1104 3.6508 12.6617 14.9733
404 1 -1.1104 6.93526 9.99647 18.0465
465 1 -1.1104 6.60715 12.7943 15.072
681 2 2.2208 10.957 19.7912 24.9375
468 1 -1.1104 6.59178 18.7161 20.7668
8831 2 2.2208 11.1061 -5.46001 16.6489
462 1 -1.1104 1.00053 12.7201 20.6053
498 1 -1.1104 12.2338 18.3341 20.5803
412 1 -1.1104 6.6287 10.0436 15.0376
459 1 -1.1104 6.79947 12.8311 17.8735
430 2 2.2208 10.8188 11.4723 16.332
435 1 -1.1104 12.6305 10.0928 17.7714
436 2 2.2208 11.1077 8.7596 19.2406
439 1 -1.1104 12.2156 10.063 14.9727
443 2 2.2208 8.30708 11.4874 19.4086
446 2 2.2208 8.22822 8.70013 16.5087
448 1 -1.1104 9.59326 10.2199 17.8444
451 1 -1.1104 9.38749 10.0909 14.8351
493 1 -1.1104 12.1766 12.777 17.7724
495 1 -1.1104 12.3619 12.8662 14.749
504 1 -1.1104 9.39087 12.9095 17.7199
507 1 -1.1104 9.56738 12.9163 14.8854
496 1 -1.1104 12.6214 12.8339 20.5655
508 1 -1.1104 9.57994 12.945 20.4913
413 1 -1.1104 6.86039 9.91889 20.6744
674 1 -1.1104 9.40133 18.5539 25.9953
510 1 -1.1104 9.45595 18.4965 20.4955
548 2 2.2208 10.8945 17.1443 27.6611
484 2 2.2208 2.30827 14.302 16.6052
471 2 2.2208 5.33139 13.9789 19.22
456 2 2.2208 5.17614 17.139 16.4203
458 1 -1.1104 0.873654 18.3278 18.0265
463 1 -1.1104 1.19726 18.4006 15.0668
469 1 -1.1104 0.997867 15.7988 18.1659
472 2 2.2208 5.18909 19.8141 19.3166
473 1 -1.1104 1.12417 15.6731 15.32
478 1 -1.1104 3.65532 18.4331 17.7173
479 2 2.2208 2.41181 17.0469 19.3673
482 1 -1.1104 3.90142 18.5673 15.0041
485 2 2.2208 2.36927 19.8534 16.5314
486 1 -1.1104 3.57727 15.6996 17.9469
487 1 -1.1104 3.96608 15.4095 14.9846
464 1 -1.1104 1.01655 18.4566 21.0771
488 1 -1.1104 3.91105 15.7833 20.6504
672 2 2.2208 8.01225 20.0453 22.0143
634 2 2.2208 11.1896 5.94317 27.7014
8837 2 2.2208 2.70166 -5.39272 25.1319
8828 2 2.2208 2.54858 -5.38883 19.3114
489 2 2.2208 2.46108 16.9767 13.738
467 1 -1.1104 6.77008 18.3235 14.9763
460 1 -1.1104 6.60276 18.2026 17.7979
475 1 -1.1104 6.71686 15.6576 15.2164
470 1 -1.1104 6.54653 15.4914 17.8955
492 2 2.2208 10.9802 17.0462 16.3559
494 1 -1.1104 12.3787 18.2406 17.8224
497 1 -1.1104 12.6942 18.4891 15.097
499 1 -1.1104 12.3137 15.4262 17.8966
500 2 2.2208 10.9788 14.1299 19.1378
501 2 2.2208 10.8479 19.6885 19.3344
502 1 -1.1104 12.2498 15.5099 15.0505
505 1 -1.1104 9.56965 18.3932 17.74
506 2 2.2208 8.11439 16.9876 19.2496
509 1 -1.1104 9.52459 18.4121 15.1143
511 2 2.2208 8.1855 14.4064 16.3642
512 2 2.2208 8.00917 19.6127 16.5445
513 1 -1.1104 9.50011 15.6372 17.8654
514 1 -1.1104 9.70562 15.6621 14.9118
515 1 -1.1104 9.59883 15.7105 20.6652
503 1 -1.1104 12.4893 15.4129 20.8614
682 2 2.2208 10.949 14.1971 24.8528
323 1 -1.1104 1.20193 -4.00426 20.8457
350 2 2.2208 -0.170766 5.86819 22.0256
8836 2 2.2208 5.3432 -5.32921 22.1494
643 1 -1.1104 6.80779 15.7028 26.3867
335 1 -1.1104 1.12261 -1.34003 20.5376
520 2 2.2208 5.57366 0.169676 22.0671
521 1 -1.1104 1.11455 -4.24835 23.5619
525 1 -1.1104 1.23555 -3.91068 26.4336
529 1 -1.1104 1.07985 -1.31803 23.6057
531 2 2.2208 5.47124 -2.55494 24.9661
533 1 -1.1104 0.940633 -1.08487 26.3947
535 1 -1.1104 3.92108 -4.16995 23.5171
537 2 2.2208 2.6187 0.177661 24.8948
538 1 -1.1104 4.07214 -3.90341 26.2099
540 2 2.2208 2.63722 -2.58863 22.1522
542 1 -1.1104 4.01756 -1.26617 23.5436
543 1 -1.1104 4.02128 -1.03255 26.3214
8524 2 2.2208 10.9945 -5.42898 22.3033
673 2 2.2208 8.05049 14.5193 22.016
9177 2 2.2208 -0.266741 17.0217 22.2513
9371 2 2.2208 -0.217897 0.0717525 16.3491
337 1 -1.1104 6.66265 -1.22588 20.6855
327 1 -1.1104 6.84184 -4.1757 20.9976
376 1 -1.1104 9.67654 -3.94469 20.8553
530 1 -1.1104 6.8617 -1.15728 23.3721
534 1 -1.1104 6.84913 -1.26896 26.2689
371 1 -1.1104 12.2776 -1.11525 20.7382
383 1 -1.1104 9.49939 -1.26828 20.5672
523 1 -1.1104 6.57742 -4.20391 23.7181
527 1 -1.1104 6.82427 -3.82925 26.4169
556 2 2.2208 11.05 0.295116 22.1418
557 1 -1.1104 12.4784 -4.05703 23.7772
559 1 -1.1104 12.5009 -4.02713 26.5742
561 1 -1.1104 12.6499 -1.25486 23.5058
562 2 2.2208 11.0506 -2.56287 24.8377
564 1 -1.1104 12.7489 -0.907159 26.3287
565 1 -1.1104 9.45711 -3.98954 23.5216
567 2 2.2208 8.39998 0.10146 24.6962
568 1 -1.1104 9.65566 -3.9761 26.3914
570 2 2.2208 8.15589 -2.83653 22.0515
572 1 -1.1104 9.76204 -1.28288 23.3423
573 1 -1.1104 9.86301 -1.24555 26.2445
387 2 2.2208 -0.413939 5.77091 16.3923
670 1 -1.1104 9.72344 15.5811 26.2488
407 1 -1.1104 1.14379 4.36509 20.6474
635 2 2.2208 8.39266 8.66394 27.658
423 1 -1.1104 3.98346 4.6275 20.6736
671 1 -1.1104 9.46362 15.8318 23.5245
9366 2 2.2208 -0.322092 17.1666 16.5745
344 1 -1.1104 3.84937 1.63469 20.5377
522 1 -1.1104 0.983226 1.61969 23.44
526 1 -1.1104 1.08153 1.48995 26.2067
532 2 2.2208 5.53791 3.11691 25.0274
536 1 -1.1104 3.87472 1.54601 23.3178
539 1 -1.1104 4.0097 1.72255 26.1757
541 2 2.2208 2.41781 3.01773 22.146
585 2 2.2208 5.59071 5.79712 22.0123
587 1 -1.1104 1.11459 7.07068 23.5975
591 1 -1.1104 1.09538 4.20654 23.4303
596 1 -1.1104 1.35632 4.2449 26.2358
601 2 2.2208 2.71589 5.65069 25.03
603 1 -1.1104 4.03284 7.13915 26.3627
605 1 -1.1104 3.84094 4.28148 23.5783
607 1 -1.1104 4.31109 4.41297 26.4315
589 1 -1.1104 1.09484 7.03225 26.357
600 1 -1.1104 4.0191 7.05924 23.3441
588 1 -1.1104 6.79739 7.09281 23.5679
683 1 -1.1104 12.2922 15.4476 23.5064
438 1 -1.1104 12.6171 4.59002 20.6551
680 1 -1.1104 12.5042 15.6671 26.2
658 1 -1.1104 6.62325 15.7864 23.5493
598 1 -1.1104 6.85199 4.67969 26.4481
329 1 -1.1104 6.64204 1.6117 20.4828
590 1 -1.1104 6.85966 7.38597 26.3001
445 1 -1.1104 9.71638 6.98341 20.8378
433 1 -1.1104 12.5897 7.27815 20.6096
528 1 -1.1104 7.01018 1.44579 26.2599
593 1 -1.1104 6.83353 4.27036 23.4857
524 1 -1.1104 6.92069 1.50211 23.3547
558 1 -1.1104 12.4793 1.49856 23.4279
560 1 -1.1104 12.4826 1.65559 26.4974
563 2 2.2208 11.1212 2.97049 25.0642
566 1 -1.1104 9.75942 1.60825 23.5688
569 1 -1.1104 9.67974 1.64364 26.4515
571 2 2.2208 8.261 3.01097 22.0859
617 1 -1.1104 9.43028 4.41132 26.259
619 1 -1.1104 9.90298 4.35977 23.6979
621 1 -1.1104 9.74818 7.19876 26.1785
623 2 2.2208 8.17826 5.77914 24.8411
624 2 2.2208 11.0264 5.75443 22.0383
627 1 -1.1104 12.5616 7.22489 26.3117
628 1 -1.1104 12.8048 4.27622 23.7216
631 1 -1.1104 12.217 4.38248 26.5063
633 1 -1.1104 9.54593 7.41054 23.5241
626 1 -1.1104 12.3941 7.23018 23.4825
9184 2 2.2208 -0.220723 -2.66569 24.8967
9226 2 2.2208 -0.379844 2.763 13.7438
425 1 -1.1104 3.93538 10.0839 20.8269
481 1 -1.1104 3.80087 12.8265 20.6503
466 1 -1.1104 6.74102 12.7465 20.738
409 1 -1.1104 1.25925 9.9666 20.8522
657 1 -1.1104 4.03329 12.819 26.2866
586 2 2.2208 5.34373 11.4952 22.0003
592 1 -1.1104 0.847854 9.70373 23.4263
595 2 2.2208 5.2949 8.47297 24.9109
597 1 -1.1104 1.04373 9.8457 26.2006
602 2 2.2208 2.48063 11.5063 24.9047
604 2 2.2208 2.50643 8.51081 22.1635
606 1 -1.1104 3.70719 9.91695 23.4564
608 1 -1.1104 3.78293 10.0842 26.0624
652 1 -1.1104 1.22283 12.7345 23.4559
642 1 -1.1104 4.02922 12.8287 23.4672
646 1 -1.1104 1.09536 12.607 26.5555
599 1 -1.1104 6.91034 10.1292 26.4866
641 1 -1.1104 6.67077 12.8989 26.329
452 1 -1.1104 9.61129 9.92415 20.8617
553 2 2.2208 10.9628 17.0524 22
440 1 -1.1104 12.4622 10.0624 20.6147
650 1 -1.1104 6.75229 13.1619 23.4174
594 1 -1.1104 6.58999 10.1158 23.4311
685 1 -1.1104 12.2576 12.8802 26.3059
679 1 -1.1104 9.43323 12.9637 23.1506
637 1 -1.1104 12.4335 12.6984 23.4129
675 1 -1.1104 9.56564 12.6355 26.05
616 1 -1.1104 9.90477 9.96325 26.2419
618 1 -1.1104 9.57343 10.1542 23.532
620 2 2.2208 8.1741 8.57386 22.0943
622 2 2.2208 8.12107 11.5722 24.8194
625 2 2.2208 10.9955 11.4886 22.0835
629 1 -1.1104 12.3275 9.98138 23.3227
630 2 2.2208 11.1991 8.57824 24.8899
632 1 -1.1104 12.5021 10.0604 26.231
677 2 2.2208 8.08516 17.1734 24.8669
669 1 -1.1104 12.2511 18.5216 23.3318
8827 2 2.2208 5.34191 -5.30674 16.4611
476 1 -1.1104 6.46829 15.7943 20.549
676 1 -1.1104 6.71523 18.5342 26.0762
483 1 -1.1104 3.69723 18.6956 20.5581
474 1 -1.1104 1.07027 15.3981 20.8486
660 1 -1.1104 3.72957 15.7016 23.4774
659 1 -1.1104 1.04287 15.6924 23.5907
656 1 -1.1104 3.87709 15.7019 26.5284
655 2 2.2208 2.48098 17.1172 24.8626
654 1 -1.1104 4.07923 18.4323 26.4785
653 2 2.2208 5.34439 17.2675 22.1885
651 1 -1.1104 1.08162 18.64 23.5051
662 2 2.2208 2.49948 14.1455 22.1007
661 2 2.2208 2.47792 20.043 22.1528
649 2 2.2208 5.43445 14.3739 25.1517
640 1 -1.1104 3.85063 18.4428 23.582
644 1 -1.1104 1.36347 18.6228 26.3508
645 1 -1.1104 1.14387 15.6857 26.3509
648 2 2.2208 5.28851 19.9384 24.8809
684 1 -1.1104 12.3061 18.334 26.223
647 1 -1.1104 6.61842 18.716 23.466
17634 2 2.2208 -0.278318 -5.38226 22.1399
8826 2 2.2208 -0.256672 -5.40412 16.3766
664 2 2.2208 5.37215 17.0587 27.5615
668 2 2.2208 -0.150923 19.9489 24.8939
612 2 2.2208 -0.42456 11.2888 27.6886
610 2 2.2208 2.37623 8.52235 27.6502
9220 2 2.2208 13.6621 19.8722 21.9333
384 2 2.2208 13.6141 16.8418 19.2246
391 2 2.2208 11.0235 -2.67194 13.7421
516 2 2.2208 11.009 19.7238 13.7573
546 2 2.2208 2.57939 2.98898 27.685
544 2 2.2208 5.38768 0.205068 27.6526
611 2 2.2208 5.44266 11.3063 27.7742
574 2 2.2208 11.2733 0.259824 27.76
8833 2 2.2208 7.93142 -5.39221 13.8245
575 2 2.2208 8.28287 -2.45152 27.7749
547 2 2.2208 7.93846 14.0688 27.717
455 2 2.2208 8.01356 11.4909 13.7725
636 2 2.2208 11.0972 11.3273 27.7272
8834 2 2.2208 13.6862 -5.34282 13.8775
358 2 2.2208 2.51174 0.245788 13.7167
689 2 2.2208 5.1541 22.5802 5.2521
691 1 -1.1104 0.982405 24.2672 0.739876
692 1 -1.1104 0.85834 24.1445 3.59705
693 1 -1.1104 0.955719 21.2141 0.927907
695 2 2.2208 5.23533 25.5079 2.40953
696 1 -1.1104 0.86952 21.3702 3.66616
698 1 -1.1104 3.96328 24.1499 0.878512
699 2 2.2208 2.47809 22.7521 2.29016
701 1 -1.1104 3.7243 24.0935 3.96631
702 2 2.2208 2.25401 25.5257 5.14376
703 1 -1.1104 4.02528 21.5078 1.13937
705 1 -1.1104 3.90533 21.3726 3.74272
706 1 -1.1104 3.49725 26.71 3.48098
704 1 -1.1104 3.6401 26.9887 0.722423
697 1 -1.1104 0.872742 27.0511 3.92946
694 1 -1.1104 0.802695 26.7408 0.912802
9951 2 2.2208 -0.270589 36.8348 13.5439
836 1 -1.1104 3.45478 24.3821 6.62973
832 1 -1.1104 0.976409 21.3397 6.32236
830 1 -1.1104 0.540126 24.2131 6.52653
833 1 -1.1104 0.944421 26.9071 6.84414
1198 2 2.2208 -0.226766 22.7673 -0.411187
9719 2 2.2208 -0.264661 33.9857 10.7061
970 2 2.2208 -0.402584 42.3371 7.83148
1174 2 2.2208 7.90467 45.4071 13.4099
712 1 -1.1104 6.5134 21.2637 0.952978
710 1 -1.1104 6.52336 24.055 1.18501
711 1 -1.1104 6.68823 24.0568 3.95007
714 1 -1.1104 6.70001 21.4104 3.78467
716 2 2.2208 10.7122 22.6246 5.27096
718 1 -1.1104 12.1756 24.2963 1.00323
719 1 -1.1104 12.5043 24.2112 3.61572
720 1 -1.1104 12.3654 21.2628 0.889048
722 2 2.2208 10.7508 25.6334 2.42314
723 1 -1.1104 11.9882 21.0952 3.98833
724 1 -1.1104 12.2213 27.0035 4.09202
725 1 -1.1104 9.42718 23.9673 0.998659
726 2 2.2208 8.03849 22.6847 2.45806
728 1 -1.1104 9.51573 24.238 3.62971
729 2 2.2208 7.78872 25.544 5.17022
730 1 -1.1104 9.45017 21.3388 0.960368
732 1 -1.1104 9.28641 21.2419 3.78079
863 1 -1.1104 11.9426 24.3343 6.35343
868 1 -1.1104 9.28522 26.934 6.25389
713 1 -1.1104 6.52335 26.8963 1.02505
835 1 -1.1104 6.46914 27.1873 6.67693
731 1 -1.1104 9.38518 26.8941 0.937972
864 1 -1.1104 12.372 21.2369 6.56629
733 1 -1.1104 9.3062 27.0359 3.70522
866 1 -1.1104 9.07407 23.9695 6.41319
867 1 -1.1104 9.53849 21.1719 6.62732
10162 2 2.2208 13.4107 42.4976 -0.399377
1083 2 2.2208 5.11428 31.375 13.579
1537 1 -1.1104 6.48274 46.7426 9.29199
690 2 2.2208 5.28838 28.4554 5.17608
700 2 2.2208 2.29736 28.3105 2.43858
738 1 -1.1104 1.02826 29.4755 0.872497
741 1 -1.1104 1.03364 29.8274 4.02993
744 1 -1.1104 1.11276 32.2187 1.02659
745 2 2.2208 5.20014 31.0861 2.35526
747 1 -1.1104 1.08305 32.5799 3.64025
749 1 -1.1104 3.88292 29.8885 0.918585
752 1 -1.1104 3.92281 29.4929 3.49426
754 2 2.2208 2.47903 31.0685 5.19593
756 1 -1.1104 3.96482 32.75 1.01496
757 1 -1.1104 3.77291 32.2828 3.61027
888 1 -1.1104 3.99914 29.9736 6.48202
763 1 -1.1104 6.69602 32.8718 0.756426
9759 2 2.2208 13.5749 39.6833 8.23896
890 1 -1.1104 3.60111 32.5682 6.50685
9660 2 2.2208 -0.452634 22.5282 10.769
887 1 -1.1104 6.55871 32.6285 6.75167
9950 2 2.2208 -0.432393 31.1798 13.5613
1535 1 -1.1104 0.652809 46.4886 9.29985
1339 1 -1.1104 6.51724 46.4438 3.91179
715 1 -1.1104 6.597 26.9365 3.74165
721 1 -1.1104 12.2016 26.9297 1.0901
761 1 -1.1104 6.56293 29.9627 0.90787
748 1 -1.1104 6.63096 32.5662 3.73341
762 1 -1.1104 6.6673 29.7243 3.71246
717 2 2.2208 10.8374 28.2817 5.23826
727 2 2.2208 8.13776 28.3951 2.37303
765 1 -1.1104 12.2193 29.698 0.98249
767 1 -1.1104 12.5169 29.4012 3.74227
769 1 -1.1104 12.3674 32.6114 0.802261
770 2 2.2208 10.7737 31.2237 2.41495
772 1 -1.1104 12.3595 32.2365 3.59556
773 1 -1.1104 9.5333 29.5589 1.03445
776 1 -1.1104 9.46132 29.9931 3.70999