LAMMPS (29 Oct 2020)
OMP_NUM_THREADS environment is not set. Defaulting to 1 thread. (../comm.cpp:94)
  using 1 OpenMP thread(s) per MPI task
OMP_NUM_THREADS environment is not set. Defaulting to 1 thread. (../comm.cpp:94)
  using 1 OpenMP thread(s) per MPI task
Reading data file ...
  orthogonal box = (-0.34077351 -4.0351798 -0.33257322) to (27.680774 332.11518 27.672573)
  2 by 13 by 2 MPI processor grid
  reading atoms ...
  17760 atoms
  reading velocities ...
  17760 velocities
Finding 1-2 1-3 1-4 neighbors ...
  special bond factors lj:    0.0      0.0      0.0     
  special bond factors coul:  0.0      0.0      0.0     
     0 = max # of 1-2 neighbors
     0 = max # of 1-3 neighbors
     0 = max # of 1-4 neighbors
     1 = max # of special neighbors
  special bonds CPU = 0.004 seconds
  read_data CPU = 0.074 seconds
WARNING: 13 of 1000 force values in table Xe-Xe are inconsistent with -dE/dr.
  Should only be flagged at inflection points (../pair_table.cpp:461)
WARNING: 2 of 1000 force values in table Xe-O are inconsistent with -dE/dr.
  Should only be flagged at inflection points (../pair_table.cpp:461)
WARNING: 2 of 1000 force values in table Xe-Th are inconsistent with -dE/dr.
  Should only be flagged at inflection points (../pair_table.cpp:461)
Setting atom values ...
  11760 settings made for charge
Setting atom values ...
  5880 settings made for charge
Setting atom values ...
  120 settings made for charge
PPPM initialization ...
  using 12-bit tables for long-range coulomb (../kspace.cpp:328)
  G vector (1/distance) = 0.29889861
  grid = 40 240 40
  stencil order = 5
  estimated absolute RMS force accuracy = 0.00015496244
  estimated relative force accuracy = 1.0761546e-05
  using single precision MKL FFT
  3d grid and FFT values/proc = 18225 7600
Neighbor list info ...
  update every 1 steps, delay 0 steps, check yes
  max neighbors/atom: 2000, page size: 100000
  master list distance cutoff = 13
  ghost atom cutoff = 13
  binsize = 6.5, bins = 5 52 5
  3 neighbor lists, perpetual/occasional/extra = 3 0 0
  (1) pair coul/long, perpetual
      attributes: half, newton on
      pair build: half/bin/newton
      stencil: half/bin/3d/newton
      bin: standard
  (2) pair eam/alloy, perpetual, skip from (1)
      attributes: half, newton on
      pair build: skip
      stencil: none
      bin: none
  (3) pair table, perpetual, skip from (1)
      attributes: half, newton on
      pair build: skip
      stencil: none
      bin: none
Setting up Verlet run ...
  Unit style    : metal
  Current step  : 0
  Time step     : 0.001
Per MPI rank memory allocation (min/avg/max) = 9.258 | 9.979 | 10.04 Mbytes
Step Temp E_pair E_mol TotEng Press 
       0          300   -231085.45            0   -230396.79   -549.98816 
  100000    302.19375   -231086.63            0   -230392.94   -821.01611 
Loop time of 708.95 on 52 procs for 100000 steps with 17760 atoms

Performance: 12.187 ns/day, 1.969 hours/ns, 141.054 timesteps/s
99.8% CPU use with 52 MPI tasks x 1 OpenMP threads

MPI task timing breakdown:
Section |  min time  |  avg time  |  max time  |%varavg| %total
---------------------------------------------------------------
Pair    | 522.34     | 536.83     | 554.02     |  39.9 | 75.72
Bond    | 0.0083886  | 0.01339    | 0.017879   |   1.8 |  0.00
Kspace  | 134.16     | 151.76     | 166.87     |  73.3 | 21.41
Neigh   | 0.51691    | 0.5539     | 0.59818    |   3.6 |  0.08
Comm    | 13.513     | 14.898     | 17.588     |  22.8 |  2.10
Output  | 5.0547e-05 | 5.6031e-05 | 0.00029938 |   0.0 |  0.00
Modify  | 1.8295     | 3.5521     | 5.0965     |  61.2 |  0.50
Other   |            | 1.343      |            |       |  0.19

Nlocal:        341.538 ave         370 max         316 min
Histogram: 4 6 10 3 5 5 3 8 5 3
Nghost:        5554.08 ave        5663 max        5457 min
Histogram: 6 7 9 4 2 0 5 10 5 4
Neighs:       108615.0 ave      119939 max       98393 min
Histogram: 4 8 10 1 3 6 5 4 8 3

Total # of neighbors = 5648000
Ave neighs/atom = 318.01802
Ave special neighs/atom = 0.0000000
Neighbor list builds = 183
Dangerous builds = 0
11760 atoms in group oxygen
PPPM initialization ...
  using 12-bit tables for long-range coulomb (../kspace.cpp:328)
  G vector (1/distance) = 0.29889861
  grid = 40 240 40
  stencil order = 5
  estimated absolute RMS force accuracy = 0.00015496244
  estimated relative force accuracy = 1.0761546e-05
  using single precision MKL FFT
  3d grid and FFT values/proc = 18225 7600
Neighbor list info ...
  update every 1 steps, delay 0 steps, check yes
  max neighbors/atom: 2000, page size: 100000
  master list distance cutoff = 13
  ghost atom cutoff = 13
  binsize = 6.5, bins = 5 52 5
  3 neighbor lists, perpetual/occasional/extra = 3 0 0
  (1) pair coul/long, perpetual
      attributes: half, newton on
      pair build: half/bin/newton
      stencil: half/bin/3d/newton
      bin: standard
  (2) pair eam/alloy, perpetual, skip from (1)
      attributes: half, newton on
      pair build: skip
      stencil: none
      bin: none
  (3) pair table, perpetual, skip from (1)
      attributes: half, newton on
      pair build: skip
      stencil: none
      bin: none
Setting up Verlet run ...
  Unit style    : metal
  Current step  : 0
  Time step     : 0.001
Per MPI rank memory allocation (min/avg/max) = 9.508 | 10.22 | 10.29 Mbytes
Step f_2 Temp v_Tdiff v_deltaT 
       0            0    302.19375            0            0 
  100000    357.75494    302.05421 0.0077923423    90.468371 
  200000    709.20159    301.62052 0.0088206431    102.40685 
  300000    1058.8184    303.20467 0.0089761226    104.21195 
  400000    1409.3858    300.60416 0.0081305661    94.395117 
  500000    1764.9494    301.77572 0.0082111188    95.330326 
  600000    2120.1671    300.21266  0.008107023    94.121784 
  700000    2472.1902    300.38903 0.0086118934    99.983283 
  800000    2828.8403    303.09214 0.0079204305    91.955462 
  900000    3182.5239     302.8795 0.0084074265    97.609441 
 1000000    3538.8163    300.41657  0.008210327    95.321134 
Loop time of 7022.82 on 52 procs for 1000000 steps with 17760 atoms

Performance: 12.303 ns/day, 1.951 hours/ns, 142.393 timesteps/s
99.9% CPU use with 52 MPI tasks x 1 OpenMP threads

MPI task timing breakdown:
Section |  min time  |  avg time  |  max time  |%varavg| %total
---------------------------------------------------------------
Pair    | 5169.1     | 5320.6     | 5472.7     | 121.6 | 75.76
Bond    | 0.078858   | 0.13369    | 0.19339    |   5.7 |  0.00
Kspace  | 1371       | 1511.1     | 1677.5     | 222.5 | 21.52
Neigh   | 4.8982     | 5.2487     | 5.6165     |  10.8 |  0.07
Comm    | 136.3      | 147.7      | 167.18     |  65.9 |  2.10
Output  | 0.0010329  | 0.0010911  | 0.0023951  |   0.6 |  0.00
Modify  | 5.4341     | 6.0877     | 6.7367     |  13.6 |  0.09
Other   |            | 31.93      |            |       |  0.45

Nlocal:        341.538 ave         373 max         318 min
Histogram: 3 10 9 4 4 5 6 7 3 1
Nghost:        5551.63 ave        5668 max        5460 min
Histogram: 8 12 5 3 0 0 8 9 4 3
Neighs:       108606.0 ave      120195 max       99432 min
Histogram: 7 7 8 2 4 5 7 6 2 4

Total # of neighbors = 5647493
Ave neighs/atom = 317.98947
Ave special neighs/atom = 0.0000000
Neighbor list builds = 1737
Dangerous builds = 0
Total wall time: 2:08:52
