ITEM: TIMESTEP
30000
ITEM: NUMBER OF ATOMS
17760
ITEM: BOX BOUNDS pp pp pp
-3.6758118956460528e-01 2.7707581189564422e+01
-4.6382761802061667e+00 3.3271827618019995e+02
-3.7059846877101260e-01 2.7710598468771046e+01
ITEM: ATOMS id type q x y z
1 2 2.2208 5.30306 1.05891 5.25152
2 1 -1.1104 1.1463 -3.23322 1.18552
3 1 -1.1104 1.08 2.38582 1.06935
6 1 -1.1104 1.0784 -3.40171 4.04097
7 1 -1.1104 1.09053 2.44855 3.8977
10 1 -1.1104 1.11773 -0.344524 1.14881
12 2 2.2208 5.25022 -1.86487 2.48798
13 2 2.2208 5.31942 3.87885 2.59554
14 1 -1.1104 1.11849 -0.347425 3.92311
16 1 -1.1104 3.85128 -3.32677 1.18567
17 1 -1.1104 3.91825 2.47667 1.13074
18 2 2.2208 2.41601 1.03034 2.50786
19 1 -1.1104 3.89383 -3.32285 3.98128
20 1 -1.1104 3.8088 2.35694 3.88392
21 2 2.2208 2.54468 -1.88384 5.46011
22 2 2.2208 2.57731 3.78769 5.26514
23 1 -1.1104 3.88385 -0.414787 1.06849
24 1 -1.1104 3.90109 -0.439129 3.86874
81 2 2.2208 -0.365206 6.69442 5.30204
166 1 -1.1104 1.00152 -3.16951 6.78247
173 1 -1.1104 4.0004 2.33305 6.63594
170 1 -1.1104 0.9785 -0.384932 6.57849
167 1 -1.1104 1.12917 2.47759 6.8473
4 1 -1.1104 6.7121 -3.09891 1.12722
618 2 2.2208 -0.309372 12.2651 -0.365912
51 2 2.2208 8.08937 15.2073 10.6798
172 1 -1.1104 3.99314 -3.14508 6.84264
169 1 -1.1104 6.67568 2.33738 6.82463
8077 2 2.2208 5.28844 -4.59394 5.3152
320 2 2.2208 5.31343 9.57159 13.6294
17392 2 2.2208 -0.232964 -4.5993 5.30882
11 1 -1.1104 6.72919 -0.396037 1.27877
26 2 2.2208 -0.351749 0.957724 5.35137
8 1 -1.1104 6.62335 -3.29028 3.78855
9 1 -1.1104 6.7323 2.43888 3.88648
5 1 -1.1104 6.8236 2.59554 1.18011
15 1 -1.1104 6.79838 -0.330149 3.88935
31 2 2.2208 11.0324 0.957979 5.2419
32 1 -1.1104 12.2821 -3.34772 0.976554
33 1 -1.1104 12.5181 2.51337 0.98791
34 1 -1.1104 12.2677 -3.05439 3.76768
35 1 -1.1104 12.1983 2.48444 3.89628
36 1 -1.1104 12.3581 -0.374018 0.945163
37 2 2.2208 11.0206 -1.76419 2.31409
38 2 2.2208 10.8545 3.85792 2.47435
39 1 -1.1104 12.4635 -0.274874 3.80821
40 1 -1.1104 9.5071 -3.26957 1.15467
41 1 -1.1104 9.72016 2.43621 1.09797
42 2 2.2208 8.28313 1.00387 2.51801
43 1 -1.1104 9.48021 -3.32352 3.95656
44 1 -1.1104 9.41552 2.46851 3.89647
45 2 2.2208 8.18409 -1.71959 5.22698
47 1 -1.1104 9.53485 -0.518767 1.01679
48 1 -1.1104 9.63919 -0.383175 3.78417
168 1 -1.1104 6.76719 -3.00922 6.72067
207 1 -1.1104 12.2337 -0.287838 6.60937
205 1 -1.1104 12.2961 -3.18274 6.66195
296 1 -1.1104 6.6411 19.3728 12.2091
8079 2 2.2208 10.9166 -4.50623 5.25622
136 2 2.2208 -0.284995 20.7986 2.41577
27 2 2.2208 -0.331489 3.88083 2.506
30 1 -1.1104 12.3901 13.6392 12.204
54 2 2.2208 5.29745 6.65313 5.22179
55 2 2.2208 5.23807 12.2764 5.22097
56 1 -1.1104 1.21726 8.11086 1.2089
58 1 -1.1104 1.17404 7.90889 4.00969
60 1 -1.1104 1.0779 5.27272 1.1619
61 1 -1.1104 1.143 10.8945 1.14892
66 2 2.2208 5.37812 9.43472 2.35091
67 1 -1.1104 1.10145 5.23009 3.98382
68 1 -1.1104 1.10306 10.8186 3.98877
71 1 -1.1104 3.99531 8.15071 1.06404
72 2 2.2208 2.56402 6.6347 2.54081
73 2 2.2208 2.54598 12.2702 2.50129
74 1 -1.1104 4.0277 8.09013 3.85682
75 2 2.2208 2.56607 9.43731 5.23947
76 1 -1.1104 3.84625 5.27839 1.16533
77 1 -1.1104 4.1715 11.1344 1.30997
79 1 -1.1104 3.79523 5.21151 3.8833
80 1 -1.1104 3.92667 10.7454 3.89616
236 1 -1.1104 0.93055 5.30404 6.79652
234 1 -1.1104 0.995855 8.19876 6.65032
229 1 -1.1104 12.4396 16.5533 9.42206
238 1 -1.1104 3.82916 7.92244 6.55942
59 1 -1.1104 6.75121 8.09927 3.73495
235 1 -1.1104 6.69635 8.01797 6.71458
69 1 -1.1104 6.70977 5.2742 4.0421
57 1 -1.1104 6.75187 8.00524 0.999424
64 1 -1.1104 6.74642 10.9511 0.770896
8513 2 2.2208 -0.308121 20.8086 8.02437
78 1 -1.1104 4.0637 10.9015 6.70694
239 1 -1.1104 3.87738 5.24268 6.55452
46 2 2.2208 8.13622 3.83882 5.32744
237 1 -1.1104 6.65911 5.13875 6.66874
70 1 -1.1104 6.69714 11.0185 3.71066
63 1 -1.1104 6.75607 5.19704 1.24106
84 2 2.2208 11.0471 6.58704 5.1617
85 2 2.2208 10.9282 12.2907 5.1929
86 1 -1.1104 12.4617 8.27121 1.03545
87 1 -1.1104 12.2168 8.03059 3.87001
88 1 -1.1104 12.2974 5.3072 0.991711
89 1 -1.1104 12.4958 11.062 0.975483
91 2 2.2208 10.9468 9.59846 2.32627
92 1 -1.1104 12.3753 5.20813 3.80033
93 1 -1.1104 12.2607 10.9673 3.71284
94 1 -1.1104 9.71249 8.07208 0.825075
95 2 2.2208 8.12436 6.74342 2.40622
96 2 2.2208 8.03602 12.339 2.35498
97 1 -1.1104 9.5882 8.10289 3.70213
98 2 2.2208 8.19361 9.49353 5.19567
99 1 -1.1104 9.51991 5.18862 1.08894
100 1 -1.1104 9.5409 10.8977 1.00511
102 1 -1.1104 9.54228 5.26922 3.88528
103 1 -1.1104 9.37012 10.9528 3.76257
266 1 -1.1104 12.4815 5.14107 6.70588
265 1 -1.1104 12.3473 7.96604 6.54355
203 1 -1.1104 9.50845 16.5055 9.2179
90 1 -1.1104 12.3005 10.8844 6.62937
230 1 -1.1104 9.49467 13.7331 12.0584
106 2 2.2208 5.29736 18.0587 5.20383
107 1 -1.1104 1.21185 13.6018 1.06223
109 1 -1.1104 0.93483 19.5071 1.02874
113 1 -1.1104 0.923004 13.5944 3.72305
114 1 -1.1104 1.15193 19.4676 3.88492
116 1 -1.1104 0.950171 16.5762 0.980367
119 2 2.2208 5.21677 15.1846 2.38189
120 2 2.2208 5.27407 20.8043 2.42801
121 1 -1.1104 1.05965 16.5584 3.66358
123 1 -1.1104 3.97172 13.8308 0.952244
125 1 -1.1104 3.8163 19.5466 1.04694
127 2 2.2208 2.48949 18.0523 2.45798
128 1 -1.1104 3.72504 13.7796 3.71262
129 1 -1.1104 3.88743 19.4534 3.90558
130 2 2.2208 2.43635 15.1422 5.21993
131 2 2.2208 2.49324 20.785 5.20307
132 1 -1.1104 3.74011 16.7147 1.03924
134 1 -1.1104 3.87653 16.7155 3.88514
117 1 -1.1104 1.0174 16.415 6.58783
112 1 -1.1104 6.70721 19.4877 6.71274
122 1 -1.1104 6.64418 16.6489 3.91505
105 2 2.2208 10.8823 15.1551 7.88728
50 1 -1.1104 12.3323 13.8822 9.41875
126 1 -1.1104 3.91632 19.452 6.59867
615 2 2.2208 5.30379 6.64606 -0.356643
8078 2 2.2208 8.10668 -4.55015 2.45582
8082 2 2.2208 -0.178696 -4.61892 11.031
523 2 2.2208 10.8376 15.1623 13.5397
140 1 -1.1104 6.7512 16.6339 0.941812
138 1 -1.1104 6.50045 19.4158 1.12907
115 1 -1.1104 6.56583 13.7661 3.78404
139 1 -1.1104 6.60473 19.3995 3.84439
110 1 -1.1104 6.80465 13.798 1.0687
141 2 2.2208 10.9009 17.9043 5.06188
142 1 -1.1104 12.3775 13.7358 1.05157
144 1 -1.1104 12.2385 19.503 1.1226
146 1 -1.1104 12.4849 13.7124 3.65328
147 1 -1.1104 12.2433 19.3878 3.8786
148 1 -1.1104 12.2787 16.7134 0.844204
150 2 2.2208 10.9534 15.1473 2.34057
151 2 2.2208 10.7709 20.8642 2.45655
152 1 -1.1104 12.2882 16.5903 3.68709
153 1 -1.1104 9.57435 13.7892 0.894166
155 1 -1.1104 9.4367 19.2855 0.744754
157 2 2.2208 8.08039 17.8968 2.41141
158 1 -1.1104 9.53369 13.7095 3.78636
159 1 -1.1104 9.52542 19.3164 3.77802
160 2 2.2208 8.03732 15.0814 5.15106
161 2 2.2208 7.95278 20.7889 5.18428
162 1 -1.1104 9.6142 16.6303 0.897089
164 1 -1.1104 9.43437 16.4982 3.55168
154 1 -1.1104 9.5181 13.5193 6.599
53 1 -1.1104 12.4597 19.2516 9.51727
49 1 -1.1104 12.3666 19.3971 12.2173
163 1 -1.1104 9.38615 16.4307 6.40875
145 1 -1.1104 12.2589 19.446 6.68966
156 1 -1.1104 9.47916 19.3204 6.60043
8083 2 2.2208 8.16632 -4.51917 8.11035
171 1 -1.1104 6.63637 -0.372039 6.62053
174 1 -1.1104 3.88481 -0.420671 6.78867
8232 2 2.2208 5.4075 -4.60411 -0.351597
52 2 2.2208 8.08564 20.7914 11.0054
175 2 2.2208 5.35615 1.12566 10.966
176 1 -1.1104 1.23814 -3.22864 12.4166
177 1 -1.1104 1.17304 2.45908 12.3005
180 1 -1.1104 1.07423 -3.23464 9.47277
181 1 -1.1104 1.1051 2.19245 9.54989
184 1 -1.1104 1.14951 -0.429742 12.2645
186 2 2.2208 5.41893 -1.69802 8.09953
188 1 -1.1104 1.20687 -0.484137 9.45452
190 1 -1.1104 3.97581 -3.23734 12.4187
191 1 -1.1104 4.13001 2.5234 12.2276
192 2 2.2208 2.52027 0.995503 8.17497
193 1 -1.1104 3.91898 -3.22658 9.53028
194 1 -1.1104 3.95923 2.32645 9.53818
195 2 2.2208 2.61035 -1.81136 10.9175
196 2 2.2208 2.49098 3.84931 10.9252
197 1 -1.1104 3.91484 -0.243787 12.1614
198 1 -1.1104 4.05271 -0.347995 9.57649
200 2 2.2208 -0.345311 -1.79548 8.06212
290 1 -1.1104 6.61098 13.7704 9.36191
183 1 -1.1104 6.75917 2.30185 9.59672
189 1 -1.1104 6.83502 -0.537789 9.55126
185 1 -1.1104 6.67442 -0.405369 12.3112
149 1 -1.1104 12.1366 16.5913 6.57742
8708 2 2.2208 -0.331253 12.2963 10.9338
206 1 -1.1104 12.3697 2.43243 6.70496
210 1 -1.1104 9.40916 -0.399691 6.67832
209 1 -1.1104 9.5881 2.40311 6.81204
208 1 -1.1104 9.56885 -3.067 6.69731
8563 2 2.2208 13.595 20.8447 5.37107
104 1 -1.1104 12.3794 16.5201 12.1815
178 1 -1.1104 6.67587 -3.23566 12.2913
179 1 -1.1104 6.88919 2.50901 12.4165
8905 2 2.2208 13.6637 12.3366 13.6736
182 1 -1.1104 6.78586 -3.17119 9.45483
211 2 2.2208 10.9677 0.963471 10.9076
212 1 -1.1104 12.3265 -3.24454 12.1855
213 1 -1.1104 12.4551 2.34247 12.1813
214 1 -1.1104 12.3224 -3.29764 9.43034
215 1 -1.1104 12.4634 2.42323 9.51489
216 1 -1.1104 12.3792 -0.484734 12.2077
217 2 2.2208 10.8825 -1.74055 8.07495
218 2 2.2208 11.0173 3.86477 8.14863
219 1 -1.1104 12.2848 -0.404733 9.27879
220 1 -1.1104 9.39198 -3.27044 12.4013
221 1 -1.1104 9.63117 2.27069 12.3536
222 2 2.2208 8.16369 0.973572 8.19946
223 1 -1.1104 9.50964 -3.15809 9.42255
224 1 -1.1104 9.39889 2.37303 9.65864
225 2 2.2208 8.15969 -1.84613 10.8696
226 2 2.2208 8.13508 3.91761 10.8572
227 1 -1.1104 9.56239 -0.379945 12.2366
228 1 -1.1104 9.50195 -0.43319 9.50678
231 1 -1.1104 9.51031 13.8162 9.30853
201 2 2.2208 -0.276996 0.923114 10.8956
8783 2 2.2208 -0.245599 -1.83964 2.53619
82 2 2.2208 -0.239707 9.52163 2.46272
62 1 -1.1104 1.14389 10.9454 6.7695
65 1 -1.1104 6.79568 10.8768 6.51996
233 1 -1.1104 9.53514 19.322 12.2739
187 2 2.2208 5.36265 3.7942 7.97794
240 2 2.2208 5.22229 6.659 10.8297
241 2 2.2208 5.41971 12.3776 10.8537
242 1 -1.1104 1.14935 8.03063 12.182
244 1 -1.1104 1.1148 8.08446 9.36638
246 1 -1.1104 1.06074 5.24574 12.3815
247 1 -1.1104 1.25301 10.8465 12.4046
250 2 2.2208 5.43808 9.48594 7.89939
251 1 -1.1104 1.02591 5.2749 9.60652
252 1 -1.1104 0.969549 10.8526 9.59475
255 1 -1.1104 3.8174 8.17193 12.3547
256 2 2.2208 2.4554 6.67492 8.21223
257 2 2.2208 2.41393 12.3336 8.03452
258 1 -1.1104 3.8529 7.99855 9.46171
259 2 2.2208 2.50399 9.61424 10.8749
260 1 -1.1104 3.7692 5.29346 12.3074
261 1 -1.1104 3.99503 11.0074 12.4738
262 1 -1.1104 3.79392 5.23595 9.48795
263 1 -1.1104 3.89608 10.9313 9.51163
243 1 -1.1104 6.76133 8.03801 12.2048
245 1 -1.1104 6.72154 8.11031 9.48356
249 1 -1.1104 6.82471 10.9129 12.1652
289 1 -1.1104 6.75071 16.732 9.5119
267 1 -1.1104 9.47038 8.04904 6.56866
269 1 -1.1104 9.5104 5.28298 6.66556
101 1 -1.1104 9.55853 10.8692 6.69209
28 2 2.2208 -0.328554 6.72619 10.8226
253 1 -1.1104 6.76428 5.19383 9.32798
248 1 -1.1104 6.70667 5.38896 12.0893
254 1 -1.1104 6.71626 10.8807 9.48014
264 1 -1.1104 9.60111 10.9077 9.428
268 1 -1.1104 9.78363 5.32041 9.61165
270 1 -1.1104 9.5822 10.948 12.4053
271 1 -1.1104 9.50073 5.23647 12.3027
272 2 2.2208 8.119 9.44841 10.7782
273 1 -1.1104 9.49031 8.03972 9.45288
274 2 2.2208 8.1428 12.287 8.08816
275 2 2.2208 8.17769 6.56997 8.00021
276 2 2.2208 11.1683 6.61499 10.8655
277 2 2.2208 10.9733 12.4001 10.8764
278 1 -1.1104 12.492 8.04957 12.1735
279 1 -1.1104 12.4804 8.09726 9.34653
280 1 -1.1104 12.2861 5.15826 12.3386
281 1 -1.1104 12.3436 10.9704 12.3473
282 2 2.2208 10.9715 9.36492 8.0875
283 1 -1.1104 12.4455 5.26802 9.49567
284 1 -1.1104 12.3207 11.0138 9.40728
285 1 -1.1104 9.63054 8.16607 12.2537
461 2 2.2208 8.00734 12.3152 13.5224
550 2 2.2208 5.28121 1.10724 -0.277746
108 1 -1.1104 1.01433 13.5875 6.4921
302 1 -1.1104 1.06268 19.2248 6.48023
124 1 -1.1104 3.83485 13.7693 6.45016
25 2 2.2208 10.9224 17.9344 10.8197
202 1 -1.1104 9.43215 16.5817 12.0549
133 1 -1.1104 3.91182 16.5798 6.65993
286 1 -1.1104 3.73461 19.4132 12.2617
287 1 -1.1104 3.91936 13.715 12.0718
291 1 -1.1104 1.1421 19.5037 9.25228
292 1 -1.1104 1.04214 16.7874 9.35672
293 2 2.2208 5.29205 20.9798 8.07362
294 1 -1.1104 1.00384 13.8048 9.37603
295 2 2.2208 5.17947 15.1394 8.04234
298 1 -1.1104 1.10372 19.4688 12.148
299 1 -1.1104 1.15596 13.7423 12.2421
300 2 2.2208 5.22472 18.0307 10.7233
301 1 -1.1104 3.98484 19.4001 9.38842
303 2 2.2208 2.39683 18.0543 7.96677
304 1 -1.1104 3.81672 16.6199 9.53404
305 1 -1.1104 3.69946 13.7169 9.39708
307 1 -1.1104 1.14789 16.637 12.2313
308 1 -1.1104 3.85257 16.6312 12.2642
309 2 2.2208 2.50537 20.8463 10.8879
310 2 2.2208 2.33023 15.1409 10.7249
306 1 -1.1104 6.77745 16.739 12.03
552 2 2.2208 2.51676 3.9188 -0.29388
204 1 -1.1104 9.72755 19.3086 9.41416
497 2 2.2208 5.22976 15.1993 13.5859
232 2 2.2208 8.11991 17.9665 8.0885
118 1 -1.1104 6.64595 16.6396 6.61921
111 1 -1.1104 6.62857 13.7584 6.69813
143 1 -1.1104 12.3566 13.7281 6.5571
165 2 2.2208 10.8591 20.7844 8.02073
297 1 -1.1104 6.74872 13.9056 12.2463
288 1 -1.1104 6.72294 19.4935 9.38243
522 2 2.2208 10.835 20.8981 13.6607
551 2 2.2208 2.43679 -1.6862 -0.341909
8515 2 2.2208 13.6665 9.47635 5.14616
321 2 2.2208 8.11163 6.70272 13.5473
319 2 2.2208 2.55153 6.68525 13.5725
8785 2 2.2208 13.6429 18.049 8.09774
8487 2 2.2208 -0.347417 15.0302 8.03994
83 2 2.2208 -0.320033 12.245 5.08995
8488 2 2.2208 -0.270746 18.023 10.8026
322 2 2.2208 10.9812 9.56761 13.6254
316 2 2.2208 8.19165 1.00039 13.6572
496 2 2.2208 5.13164 20.7661 13.5454
616 2 2.2208 2.47591 9.40042 -0.325072
524 2 2.2208 8.06769 18.0203 13.4951
556 2 2.2208 2.33972 20.9548 -0.345067
9018 2 2.2208 -0.274774 6.63583 -0.341846
642 2 2.2208 11.0457 12.3451 -0.359425
582 2 2.2208 8.15775 3.74619 -0.285074
640 2 2.2208 10.8888 6.59276 -0.329487
314 2 2.2208 2.58265 0.978842 13.5891
313 2 2.2208 5.2967 -1.82098 13.6218
581 2 2.2208 8.09463 -1.80146 -0.251348
617 2 2.2208 5.21856 12.3441 -0.317727
323 2 2.2208 5.27982 0.926502 16.562
324 1 -1.1104 1.04139 -3.34541 18.0226
325 1 -1.1104 1.24187 2.45606 17.9431
328 1 -1.1104 1.15504 -3.28248 15.2059
330 1 -1.1104 1.07309 2.39103 15.1104
336 1 -1.1104 1.09581 -0.50978 17.9033
338 2 2.2208 5.34193 -1.7391 19.2797
339 2 2.2208 5.36955 3.83192 19.4228
340 1 -1.1104 1.07082 -0.450097 15.0286
344 1 -1.1104 3.92308 -3.45509 17.9053
345 1 -1.1104 3.92481 2.22808 18.0159
346 2 2.2208 2.50889 0.957584 19.3894
347 1 -1.1104 3.94257 -3.21952 15.1422
349 1 -1.1104 3.72878 2.49458 15.0814
351 2 2.2208 2.46683 -1.76234 16.5484
352 2 2.2208 2.53205 3.80043 16.5071
353 1 -1.1104 3.8689 -0.591466 17.9716
354 1 -1.1104 3.93022 -0.493253 15.1273
350 1 -1.1104 4.05474 2.35918 20.7372
348 1 -1.1104 3.84639 -3.03889 20.7198
341 1 -1.1104 1.23101 -0.501048 20.7593
331 1 -1.1104 1.1101 2.37556 20.7353
329 1 -1.1104 1.11628 -3.32523 20.825
337 1 -1.1104 6.74395 -0.312473 17.9177
332 1 -1.1104 6.86879 -2.99805 14.9774
342 1 -1.1104 6.64773 -0.303136 15.0964
333 1 -1.1104 6.75327 -3.1419 20.6042
326 1 -1.1104 6.76403 -3.12136 17.8364
334 1 -1.1104 6.70367 2.33039 15.2839
343 1 -1.1104 6.72633 -0.353437 20.7394
8973 2 2.2208 13.6327 18.0251 19.2323
8227 2 2.2208 2.40654 -4.56189 24.9484
8118 2 2.2208 8.14542 -4.60755 24.8427
8827 2 2.2208 13.6607 3.70281 16.4501
327 1 -1.1104 6.76543 2.58932 17.9345
366 2 2.2208 10.9168 1.043 16.5007
367 1 -1.1104 12.3821 -3.36341 17.8624
368 1 -1.1104 12.313 2.48614 17.9398
369 1 -1.1104 12.2811 -3.38281 15.0557
371 1 -1.1104 12.354 2.15314 15.0534
373 1 -1.1104 12.4164 -0.486426 17.8402
374 2 2.2208 11.0309 -1.88849 19.2712
376 1 -1.1104 12.3073 -0.574109 15.1758
378 1 -1.1104 9.61475 -3.16578 18.053
379 1 -1.1104 9.50715 2.45856 17.8016
380 2 2.2208 8.09512 0.980717 19.2276
381 1 -1.1104 9.63502 -3.23058 15.1994
383 1 -1.1104 9.4964 2.49136 15.0181
385 2 2.2208 8.18026 -1.71479 16.4489
386 2 2.2208 8.10909 3.85759 16.5267
387 1 -1.1104 9.4876 -0.314424 17.835
388 1 -1.1104 9.45038 -0.468515 15.0264
375 2 2.2208 10.9686 3.84997 19.1783
389 1 -1.1104 9.56582 -0.410993 20.773
372 1 -1.1104 12.2707 2.31016 20.5883
370 1 -1.1104 12.3783 -3.22918 20.7782
390 2 2.2208 8.21736 15.164 27.6841
9034 2 2.2208 13.641 3.72749 21.9999
8230 2 2.2208 5.32506 -4.49618 22.1834
357 2 2.2208 -0.235995 6.56126 16.4074
399 2 2.2208 5.38681 6.69079 16.4414
400 2 2.2208 5.26899 12.347 16.4534
401 1 -1.1104 1.05026 8.10071 17.8686
403 1 -1.1104 1.20233 8.10483 15.112
407 1 -1.1104 1.04293 5.31651 17.8772
408 1 -1.1104 1.12213 10.9923 18.0659
411 2 2.2208 5.28337 9.36623 19.2906
412 1 -1.1104 1.29655 5.18891 15.098
414 1 -1.1104 1.108 11.008 15.2132
420 1 -1.1104 3.90584 8.03387 18.0064
421 2 2.2208 2.49085 6.68133 19.1999
422 2 2.2208 2.54158 12.2727 19.4213
423 1 -1.1104 4.00793 8.12075 15.1675
425 2 2.2208 2.59713 9.48256 16.4795
426 1 -1.1104 3.90126 5.10218 17.9067
427 1 -1.1104 3.97608 10.8739 17.9383
428 1 -1.1104 4.09347 5.40476 14.9454
430 1 -1.1104 3.94933 11.033 15.2274
413 1 -1.1104 1.17527 5.20055 20.6978
424 1 -1.1104 3.95211 7.94605 20.6951
429 1 -1.1104 4.08069 5.25009 20.7886
8908 2 2.2208 -0.268625 12.3677 16.55
418 1 -1.1104 6.79838 10.9905 14.8858
416 1 -1.1104 6.80793 5.23814 14.9855
409 1 -1.1104 6.63986 5.39004 18.0173
8830 2 2.2208 -0.229604 3.98787 24.923
431 1 -1.1104 3.92886 11.0001 20.6933
404 1 -1.1104 1.21887 7.98787 20.7118
415 1 -1.1104 1.05041 10.986 20.815
8867 2 2.2208 -0.32004 15.2713 25.021
555 2 2.2208 5.22614 17.9823 27.6175
410 1 -1.1104 6.75267 11.0114 17.7806
402 1 -1.1104 6.65846 7.98407 17.9001
405 1 -1.1104 6.80187 8.15644 15.0172
435 2 2.2208 10.9943 6.58083 16.5332
436 2 2.2208 10.9245 12.4045 16.3495
437 1 -1.1104 12.3484 7.95009 17.9132
438 1 -1.1104 12.3935 8.05943 14.9068
440 1 -1.1104 12.3502 5.26461 17.7412
441 1 -1.1104 12.4912 10.8456 17.8374
442 2 2.2208 11.0077 9.5212 19.2405
443 1 -1.1104 12.229 5.00348 15.0837
445 1 -1.1104 12.3103 10.9439 15.0971
447 1 -1.1104 9.6836 7.99439 17.9237
448 2 2.2208 8.09907 6.63277 19.3088
449 2 2.2208 8.101 12.4075 19.1721
450 1 -1.1104 9.62059 8.05787 15.0875
452 2 2.2208 8.08973 9.49303 16.4224
453 1 -1.1104 9.48532 5.23749 17.878
454 1 -1.1104 9.55987 10.9013 17.86
455 1 -1.1104 9.52284 5.27964 15.1556
457 1 -1.1104 9.56882 10.9334 15.1263
439 1 -1.1104 12.3871 7.97866 20.738
446 1 -1.1104 12.3921 10.8747 20.5293
451 1 -1.1104 9.65238 8.1462 20.6777
417 1 -1.1104 6.86568 5.23188 20.7979
444 1 -1.1104 12.3442 5.0977 20.6283
456 1 -1.1104 9.5497 5.15455 20.5796
8829 2 2.2208 -0.344176 -1.84501 25.029
419 1 -1.1104 6.69241 10.7157 20.6104
9044 2 2.2208 -0.343236 9.39024 24.9134
462 2 2.2208 5.21656 17.9687 16.3958
463 1 -1.1104 0.816541 13.9818 17.7219
464 1 -1.1104 0.936837 19.6173 17.7807
467 1 -1.1104 1.1374 13.7519 15.0716
469 1 -1.1104 1.04597 19.283 15.0569
475 1 -1.1104 0.993808 16.7537 17.8551
477 2 2.2208 5.30971 15.1977 19.3223
478 2 2.2208 5.17282 20.9221 19.1882
479 1 -1.1104 0.904454 16.5512 15.1693
483 1 -1.1104 3.8144 13.5516 17.9167
484 1 -1.1104 3.76764 19.402 17.9341
485 2 2.2208 2.49327 18.1065 19.3028
486 1 -1.1104 3.83595 13.8619 15.0713
488 1 -1.1104 3.68135 19.3381 15.2206
490 2 2.2208 2.45239 15.2571 16.6089
491 2 2.2208 2.43639 20.9473 16.4378
492 1 -1.1104 3.84547 16.5706 17.8531
493 1 -1.1104 3.7054 16.4703 15.0474
468 1 -1.1104 1.11423 13.6553 20.6613
471 1 -1.1104 6.58504 13.8625 15.1112
473 1 -1.1104 6.66936 19.4077 15.1144
8899 2 2.2208 13.643 20.9266 27.6916
487 1 -1.1104 3.93578 13.8808 20.7955
494 1 -1.1104 4.00021 16.9234 20.6403
470 1 -1.1104 0.932072 19.5328 20.6124
489 1 -1.1104 3.79322 19.6275 20.7369
589 1 -1.1104 9.63394 13.7837 23.3741
559 1 -1.1104 12.3962 19.4168 26.4101
9019 2 2.2208 -0.279929 12.2204 22.1342
466 1 -1.1104 6.76567 19.5626 17.8705
465 1 -1.1104 6.68134 13.9094 17.7907
481 1 -1.1104 6.66098 16.5866 14.9008
476 1 -1.1104 6.61008 16.6859 17.9853
498 2 2.2208 10.8177 17.9083 16.4814
499 1 -1.1104 12.2801 13.6889 17.9249
500 1 -1.1104 12.2086 19.3517 17.8509
501 1 -1.1104 12.2566 13.8988 15.0693
503 1 -1.1104 12.1956 19.5144 15.0525
505 1 -1.1104 12.0997 16.4127 17.7436
506 2 2.2208 10.9181 15.123 19.2473
507 2 2.2208 10.8327 20.9766 19.2878
508 1 -1.1104 12.3087 16.6502 15.1065
510 1 -1.1104 9.57056 13.7714 17.9226
511 1 -1.1104 9.56379 19.4633 17.8128
512 2 2.2208 8.00975 18.0744 19.2873
513 1 -1.1104 9.54569 13.6383 14.9032
515 1 -1.1104 9.41148 19.3987 14.9485
517 2 2.2208 8.2596 15.2047 16.3142
518 2 2.2208 8.0346 20.8497 16.5003
519 1 -1.1104 9.33485 16.6296 17.7047
520 1 -1.1104 9.4989 16.6245 14.9033
514 1 -1.1104 9.44698 13.8362 20.6404
647 1 -1.1104 6.78313 13.7793 26.3789
521 1 -1.1104 9.57478 16.6231 20.4766
516 1 -1.1104 9.4043 19.5418 20.6293
502 1 -1.1104 12.1787 13.8238 20.702
620 1 -1.1104 6.55216 19.5678 26.4293
362 2 2.2208 -0.316296 3.86009 19.3304
317 2 2.2208 10.8325 -1.95618 13.7364
460 1 -1.1104 6.59828 19.3697 23.6514
355 1 -1.1104 3.91316 -0.354716 20.8259
472 1 -1.1104 6.67874 13.6813 20.6725
358 1 -1.1104 6.78798 16.5876 23.5507
8873 2 2.2208 13.6071 20.8929 22.111
392 1 -1.1104 9.71014 16.5911 23.2448
526 2 2.2208 5.32805 0.934218 22.2014
527 1 -1.1104 1.09284 -3.20748 23.5327
528 1 -1.1104 1.09508 2.45099 23.4643
531 1 -1.1104 1.15846 -3.18557 26.2615
532 1 -1.1104 1.22874 2.55001 26.3602
535 1 -1.1104 1.00865 -0.384714 23.5181
537 2 2.2208 5.33796 -1.79102 24.9852
538 2 2.2208 5.34664 3.66297 24.953
539 1 -1.1104 1.12932 -0.306941 26.4101
541 1 -1.1104 3.94768 -3.18764 23.5651
542 1 -1.1104 4.08804 2.41161 23.6607
543 2 2.2208 2.40872 0.958532 24.9854
544 1 -1.1104 4.00393 -3.15823 26.2684
545 1 -1.1104 3.85027 2.43253 26.3689
546 2 2.2208 2.41954 -1.83814 22.1797
547 2 2.2208 2.61349 3.81184 22.0946
548 1 -1.1104 3.84263 -0.443183 23.5078
549 1 -1.1104 3.96342 -0.291545 26.3246
534 1 -1.1104 6.71719 2.44456 26.3709
540 1 -1.1104 6.76876 -0.298373 26.5562
529 1 -1.1104 6.78408 -3.08962 23.4275
561 1 -1.1104 12.3688 16.7085 23.4189
590 1 -1.1104 9.4756 19.4355 23.47
315 2 2.2208 5.3334 3.84011 13.7889
377 1 -1.1104 12.2886 -0.37914 20.562
382 1 -1.1104 9.57498 -3.24581 20.7933
335 1 -1.1104 6.72305 2.42407 20.7362
384 1 -1.1104 9.49024 2.35127 20.7436
356 2 2.2208 -0.32469 6.68166 21.9736
360 2 2.2208 -0.290285 -1.87312 19.2393
359 2 2.2208 -0.251801 1.03218 16.4339
553 1 -1.1104 12.4099 13.9582 23.5314
533 1 -1.1104 6.73786 -3.19644 26.2934
530 1 -1.1104 6.86164 2.48789 23.4617
536 1 -1.1104 6.63593 -0.279633 23.7698
562 2 2.2208 10.785 1.04197 22.0218
563 1 -1.1104 12.2831 -3.36707 23.4958
564 1 -1.1104 12.2625 2.38745 23.4094
565 1 -1.1104 12.3656 -3.28179 26.474
566 1 -1.1104 12.3435 2.48288 26.3976
567 1 -1.1104 12.343 -0.4093 23.4192
568 2 2.2208 10.9084 -1.88715 24.9339
570 1 -1.1104 12.399 -0.461654 26.3108
571 1 -1.1104 9.56394 -3.34674 23.6019
572 1 -1.1104 9.5719 2.30424 23.5246
573 2 2.2208 8.1249 1.08197 24.8924
574 1 -1.1104 9.62277 -3.12065 26.4598
575 1 -1.1104 9.51113 2.46643 26.4332
576 2 2.2208 8.12733 -1.77647 22.0652
577 2 2.2208 8.17503 3.80828 22.0281
578 1 -1.1104 9.44381 -0.594491 23.4626
579 1 -1.1104 9.45183 -0.209979 26.3596
569 2 2.2208 10.9739 3.96756 24.8332
643 1 -1.1104 9.46616 19.4785 26.2503
558 1 -1.1104 12.418 13.8037 26.2202
621 1 -1.1104 9.63137 13.6364 26.174
393 2 2.2208 2.39189 15.2429 27.6588
591 2 2.2208 5.35397 6.72172 22.0301
592 2 2.2208 5.42373 12.2863 22.1155
593 1 -1.1104 1.17639 8.07074 23.5369
595 1 -1.1104 1.01653 8.18712 26.4421
597 1 -1.1104 1.01905 5.37661 23.5145
598 1 -1.1104 1.24435 10.8406 23.6437
601 2 2.2208 5.42253 9.50272 24.8883
602 1 -1.1104 1.08544 5.3221 26.483
603 1 -1.1104 1.2193 11.0366 26.4243
606 1 -1.1104 3.91818 8.10206 23.4543
607 2 2.2208 2.51883 6.71079 24.8075
608 2 2.2208 2.58604 12.366 24.8994
609 1 -1.1104 3.78271 7.95952 26.1912
610 2 2.2208 2.47215 9.5358 22.1221
611 1 -1.1104 3.97695 5.13971 23.5506
612 1 -1.1104 3.98071 11.0186 23.6098
613 1 -1.1104 3.86791 5.28416 26.3336
614 1 -1.1104 3.8888 10.7481 26.5297
594 1 -1.1104 6.78637 8.04166 23.4633
8825 2 2.2208 -0.334821 18.1412 22.1356
583 2 2.2208 10.9568 15.1921 24.8398
525 2 2.2208 10.9045 18.0591 22.0722
432 1 -1.1104 6.78814 13.7691 23.4973
588 1 -1.1104 12.3443 16.5815 26.1465
482 1 -1.1104 6.77646 16.6283 20.7715
458 1 -1.1104 9.3881 11.0224 20.7089
644 2 2.2208 8.19872 15.2503 22.0545
600 1 -1.1104 6.77692 10.7903 23.356
599 1 -1.1104 6.73011 5.24694 23.709
596 1 -1.1104 6.605 8.16603 26.3724
406 1 -1.1104 6.84427 7.92464 20.602
605 1 -1.1104 6.82279 10.9784 26.1523
604 1 -1.1104 6.73243 5.23942 26.4634
622 1 -1.1104 9.62302 10.8814 26.1523
623 1 -1.1104 9.52436 5.26673 26.3454
624 1 -1.1104 9.66814 10.9029 23.3345
625 1 -1.1104 9.49415 5.25133 23.3688
626 2 2.2208 8.09449 9.3672 22.0808
627 1 -1.1104 9.44962 7.92779 26.3612
628 2 2.2208 8.23736 12.4426 24.8977
629 2 2.2208 8.04864 6.61795 24.9858
630 2 2.2208 10.8789 6.6921 22.1775
631 2 2.2208 10.816 12.3776 21.949
632 1 -1.1104 12.2859 8.24246 23.4344
633 1 -1.1104 12.3763 8.17327 26.2422
634 1 -1.1104 12.3357 5.27312 23.4404
635 1 -1.1104 12.4162 11.1807 23.4041
636 2 2.2208 10.8901 9.6307 24.7752
637 1 -1.1104 12.3537 5.44078 26.2785
638 1 -1.1104 12.4545 10.959 26.3606
639 1 -1.1104 9.45441 8.05376 23.5524
649 1 -1.1104 6.7466 16.5897 26.33
554 1 -1.1104 12.2158 19.5099 23.5056
480 1 -1.1104 1.19181 16.4838 20.6977
361 1 -1.1104 3.89193 13.5951 26.3077
363 1 -1.1104 3.86342 16.4732 26.3379
364 2 2.2208 2.36345 18.126 25.0009
365 1 -1.1104 3.66452 19.4882 26.3542
396 2 2.2208 5.28579 18.1282 22.0584
397 1 -1.1104 1.1293 13.9064 23.5241
398 1 -1.1104 1.03262 19.6133 23.4899
433 2 2.2208 5.31799 15.2545 24.9775
459 2 2.2208 5.15146 20.9992 24.9679
557 2 2.2208 2.45273 15.188 22.1338
584 2 2.2208 2.40155 20.9796 22.141
585 1 -1.1104 3.86363 16.5964 23.6021
586 1 -1.1104 1.02625 16.7522 23.4834
646 1 -1.1104 3.84512 19.5551 23.6729
648 1 -1.1104 3.96937 13.8455 23.5866
650 1 -1.1104 0.688863 19.4135 26.2959
651 1 -1.1104 1.05137 16.6327 26.2011
652 1 -1.1104 1.09447 13.7313 26.3042
504 1 -1.1104 12.1851 19.6371 20.6748
587 2 2.2208 10.918 20.8526 24.9823
474 1 -1.1104 6.63141 19.4968 20.7715
509 1 -1.1104 12.3357 16.7272 20.5799
391 1 -1.1104 9.49593 16.5722 26.1711
619 2 2.2208 8.09471 18.0245 24.9245
645 2 2.2208 7.97311 20.8863 22.1313
394 2 2.2208 10.9294 17.9402 27.5168
580 2 2.2208 10.9878 1.10868 27.6595
318 2 2.2208 10.9282 3.83065 13.7581
641 2 2.2208 8.14452 9.5214 27.6386
9015 2 2.2208 -0.267426 15.1477 13.6857
311 2 2.2208 -0.258947 3.85681 13.7556
9016 2 2.2208 -0.356131 20.6644 13.7183
434 2 2.2208 2.50485 12.3778 13.7995
495 2 2.2208 2.44677 17.9988 13.695
8800 2 2.2208 -0.318508 9.44549 13.7288
395 2 2.2208 8.04103 20.8495 27.6824
8831 2 2.2208 13.5319 17.9783 13.7339
653 2 2.2208 5.28013 23.653 5.2458
654 2 2.2208 5.20402 29.2327 5.24394
655 1 -1.1104 0.910413 25.0669 0.948453
656 1 -1.1104 0.894715 25.0823 3.73039
657 1 -1.1104 0.991603 22.2459 1.04927
658 1 -1.1104 1.02818 28.0572 1.05038
659 2 2.2208 5.11102 26.5363 2.45697
660 1 -1.1104 1.09227 22.2881 3.85333
661 1 -1.1104 0.934979 27.935 3.70568
662 1 -1.1104 3.9378 25.1376 1.01808
663 2 2.2208 2.35415 23.6836 2.38107
664 2 2.2208 2.31136 29.4982 2.44232
665 1 -1.1104 3.64591 25.2366 3.79398
666 2 2.2208 2.27792 26.5354 5.15701
667 1 -1.1104 3.74317 22.3218 0.922566
668 1 -1.1104 3.6575 27.9787 1.09695
669 1 -1.1104 4.02825 22.3965 3.72426
670 1 -1.1104 3.74097 28.0154 3.90366
800 1 -1.1104 3.94975 24.9511 6.58018
1143 2 2.2208 2.50343 40.5946 13.553
802 1 -1.1104 3.82313 27.8735 6.56061
795 1 -1.1104 6.75363 25.0556 6.77286
674 1 -1.1104 6.70204 25.0999 1.06152
677 1 -1.1104 6.49111 27.946 1.19499
675 1 -1.1104 6.45046 24.9964 3.8406
679 1 -1.1104 6.64668 27.7943 3.91227
1172 2 2.2208 8.09056 40.6379 13.5893
797 1 -1.1104 0.953192 28.0163 6.56373
801 1 -1.1104 3.81231 22.2397 6.72087
794 1 -1.1104 1.05744 25.1317 6.47769
796 1 -1.1104 1.02656 22.2245 6.68747
799 1 -1.1104 6.61674 27.8393 6.71131
798 1 -1.1104 6.70532 22.3501 6.63635
676 1 -1.1104 6.62286 22.4045 1.1072
678 1 -1.1104 6.72731 22.2015 3.8842
680 2 2.2208 10.8179 23.6491 5.31084
681 2 2.2208 10.7168 29.2291 5.28216
682 1 -1.1104 12.2097 25.0824 0.997995
683 1 -1.1104 12.064 24.9954 3.86472
684 1 -1.1104 12.3708 22.4034 1.01045
685 1 -1.1104 12.0502 27.9195 0.985817
686 2 2.2208 10.7294 26.4405 2.56129
687 1 -1.1104 12.2144 22.2175 3.81917
688 1 -1.1104 12.2954 27.7936 3.68628
689 1 -1.1104 9.4351 25.1316 1.07913
690 2 2.2208 8.00791 23.6448 2.44833
691 2 2.2208 7.89186 29.2729 2.51623
692 1 -1.1104 9.33682 24.9984 3.90671
693 2 2.2208 7.92238 26.4253 5.36668
694 1 -1.1104 9.47577 22.2398 0.9665
695 1 -1.1104 9.29765 27.9222 1.05893
696 1 -1.1104 9.36897 22.296 3.82707
697 1 -1.1104 9.44245 27.8504 3.89714
830 1 -1.1104 9.46183 25.0363 6.67634
832 1 -1.1104 9.42202 27.8743 6.63943
829 1 -1.1104 12.2748 27.8615 6.51616
827 1 -1.1104 12.2519 25.1791 6.63854
828 1 -1.1104 12.2748 22.3116 6.52975
9262 2 2.2208 13.6558 43.3424 5.15472
969 2 2.2208 13.568 34.8931 7.98967
713 1 -1.1104 3.70358 30.8054 0.917831
716 1 -1.1104 3.87872 30.8037 3.81151
702 1 -1.1104 0.79585 30.8422 0.932245
705 1 -1.1104 1.11978 30.931 3.64795
701 2 2.2208 5.20651 35.019 5.1843
703 1 -1.1104 0.953461 36.307 1.09719
706 1 -1.1104 1.00179 36.3951 3.79956
708 1 -1.1104 1.00745 33.5241 0.939798
709 2 2.2208 5.17108 32.0969 2.44921
710 2 2.2208 5.31615 37.8814 2.35103
711 1 -1.1104 1.071 33.5964 3.72742
714 1 -1.1104 3.84131 36.3095 0.974983
715 2 2.2208 2.47058 35.0318 2.34251
717 1 -1.1104 3.72908 36.4066 3.74515
718 2 2.2208 2.36317 32.3232 5.22522
719 2 2.2208 2.37759 37.8013 5.25848
720 1 -1.1104 3.82004 33.5182 1.06641
721 1 -1.1104 3.88675 33.6757 3.86996
858 1 -1.1104 3.95546 36.3355 6.73277
855 1 -1.1104 0.982442 33.6269 6.64315
859 1 -1.1104 3.84608 33.5801 6.67996
954 1 -1.1104 12.1929 44.6599 9.26656
9474 2 2.2208 13.6288 46.1587 2.44856
727 1 -1.1104 6.66178 33.4978 1.18474
851 1 -1.1104 0.997681 30.8231 6.52917
857 1 -1.1104 3.8228 30.7076 6.71707
9471 2 2.2208 13.5846 43.3288 10.8728
707 1 -1.1104 6.47602 36.3377 3.81793
725 1 -1.1104 6.54846 30.8149 1.02053
704 1 -1.1104 6.64863 36.3227 1.02858
712 1 -1.1104 6.70546 33.5522 3.90999
726 1 -1.1104 6.57143 30.539 3.88637
729 1 -1.1104 12.2265 30.8138 0.821769
731 1 -1.1104 12.1461 30.6647 3.81456
740 1 -1.1104 9.3186 30.5826 3.85193
728 2 2.2208 10.7768 35.0349 5.27385
730 1 -1.1104 12.2355 36.3682 0.894492
732 1 -1.1104 12.1379 36.2164 3.93083
733 1 -1.1104 12.2214 33.5459 1.08115
734 2 2.2208 10.7811 32.2257 2.53751
735 2 2.2208 10.8713 37.6482 2.42021
736 1 -1.1104 12.3415 33.4161 3.88545
737 1 -1.1104 9.4574 30.8267 1.12911
738 1 -1.1104 9.42988 36.2488 1.02791
739 2 2.2208 7.97521 34.9617 2.46978
741 1 -1.1104 9.41073 36.4451 3.70703
742 2 2.2208 8.06573 32.0705 5.15054