LAMMPS data file via write_data, version 29 Oct 2020, timestep = 100203

17700 atoms
3 atom types

-0.4450145130265928 27.785014513026468 xlo xhi
-5.512761992037994 333.59276199202355 ylo yhi
-0.4662037022409088 27.80620370224138 zlo zhi

Masses

1 15.9994
2 232.0381
3 131.293

Atoms # full

1 0 2 2.2208 5.013902254779665 0.12788011332796737 4.950371697271329 0 0 0
2 0 1 -1.1104 1.000069786373855 -3.9183689535909654 0.9239154656139303 0 0 0
6 0 1 -1.1104 0.9575910116526248 -4.113576010725279 3.598753743308819 0 0 0
10 0 1 -1.1104 0.8971414238309874 -1.0855776308617422 0.9134508781417018 0 0 0
12 0 2 2.2208 5.138193616704686 -2.707322081379839 2.041177670076889 0 0 0
14 0 1 -1.1104 1.0228339254517824 -1.4678917554669728 3.567250220697385 0 0 0
16 0 1 -1.1104 3.6934068496293255 -3.9818016900123347 0.9208914800345896 0 0 0
18 0 2 2.2208 2.3378156505956613 0.17394178306754585 2.244394039288606 0 0 0
19 0 1 -1.1104 3.880994061060232 -4.331585477523333 3.7136422771541344 0 0 0
21 0 2 2.2208 2.3861648848108814 -2.7834252834261166 5.056243625842562 0 0 0
23 0 1 -1.1104 3.9926300705327753 -1.2832358138449151 0.7127272146195004 0 0 0
24 0 1 -1.1104 3.856097865638713 -1.5927166398883954 3.609365958602947 0 0 0
166 0 1 -1.1104 0.7373028056629379 -4.033585892334743 6.425540146244341 0 0 0
4 0 1 -1.1104 6.630781449351033 -4.301811492292928 0.7281690643204579 0 0 0
172 0 1 -1.1104 3.817400762446296 -4.086455875207747 6.581275290952007 0 0 0
8957 0 2 2.2208 13.447186533303691 19.713347389153327 5.030293085849506 0 0 0
11 0 1 -1.1104 6.550272276115783 -1.435556574950113 0.7367945948826975 0 0 0
8938 0 2 2.2208 13.469637822084293 11.43027437440555 7.869672861861939 0 0 0
200 0 2 2.2208 -0.37959410595895654 -2.675913195789852 7.946402789153195 0 0 0
8959 0 2 2.2208 -0.43292518420972215 19.90717872585352 2.452913928868032 0 0 0
8 0 1 -1.1104 6.5645980467571485 -4.245370751421752 3.6417968506844596 0 0 0
8881 0 2 2.2208 -0.3614365339638031 5.735852162831235 10.9197183760515 0 0 0
171 0 1 -1.1104 6.563767357167042 -1.1853385978807933 6.52603180863558 0 0 0
15 0 1 -1.1104 6.657072800475077 -1.442586929342426 3.6986935133097294 0 0 0
31 0 2 2.2208 10.649217192622826 0.04609160842382636 4.882666853320791 0 0 0
32 0 1 -1.1104 12.07521269272353 -4.165199468355847 0.861345065416936 0 0 0
34 0 1 -1.1104 12.321153297482914 -4.202755031028499 3.581144240430782 0 0 0
36 0 1 -1.1104 12.42952699678003 -1.370498942582796 0.8563661410374968 0 0 0
37 0 2 2.2208 10.720723351567408 -2.688978613730273 2.224006097734559 0 0 0
39 0 1 -1.1104 12.052840824549406 -1.46357321643216 3.589362440158914 0 0 0
40 0 1 -1.1104 9.248592111504575 -3.87171398251908 1.0877200867592245 0 0 0
42 0 2 2.2208 7.939618021723156 0.12141535355622282 2.1500567431674353 0 0 0
43 0 1 -1.1104 9.46596242320566 -4.324121854004105 3.7379455217043467 0 0 0
45 0 2 2.2208 7.8330410093684115 -2.778981499936916 5.001805748309747 0 0 0
47 0 1 -1.1104 9.464119964548093 -1.0314506633385114 1.0816201999696833 0 0 0
48 0 1 -1.1104 9.118414212177772 -1.205602316976196 3.7545249006918446 0 0 0
8652 0 2 2.2208 13.468238344357314 14.191491560204073 10.739778450218544 0 0 0
205 0 1 -1.1104 11.992211384525868 -4.352093894693606 6.577904393819596 0 0 0
168 0 1 -1.1104 6.454464177674752 -4.099094901935755 6.590730395226122 0 0 0
210 0 1 -1.1104 9.593760336995558 -1.330793334282081 6.4289701740412175 0 0 0
208 0 1 -1.1104 9.243922332266491 -3.984040109122929 6.37383229365113 0 0 0
3 0 1 -1.1104 0.906731984432199 1.5303159034703242 0.937551335746674 0 0 0
7 0 1 -1.1104 0.7602829782040176 1.1575882665598114 3.7170170863750784 0 0 0
13 0 2 2.2208 5.144602850831064 2.9527071400021643 2.0682311492507495 0 0 0
17 0 1 -1.1104 3.66652226162449 1.4743296413706157 0.8140149557665725 0 0 0
20 0 1 -1.1104 3.713326740752168 1.573597823232666 3.5828228169285454 0 0 0
22 0 2 2.2208 2.346049412843107 3.198889878059571 4.921984972215646 0 0 0
54 0 2 2.2208 5.192492056320905 5.856682862205609 4.900565637281702 0 0 0
56 0 1 -1.1104 0.6797104477741579 7.319453904834935 0.8320485448710053 0 0 0
58 0 1 -1.1104 0.8247834746174043 7.292017074832943 3.7506508429967953 0 0 0
60 0 1 -1.1104 0.9200614625584507 4.459599440659196 0.9628575175434196 0 0 0
67 0 1 -1.1104 0.6914378677537553 4.2544643624984015 3.699486237724569 0 0 0
72 0 2 2.2208 2.1392142485083117 5.874104867604414 2.159066332284169 0 0 0
76 0 1 -1.1104 3.48395750590696 4.2965456277141385 0.6769261696171118 0 0 0
79 0 1 -1.1104 3.764905927852052 4.5653073705458365 3.559041791488922 0 0 0
74 0 1 -1.1104 3.5938592799451956 7.165535671280703 3.6172707585675155 0 0 0
71 0 1 -1.1104 3.6676661367371053 7.228727407297159 0.7668909505522001 0 0 0
239 0 1 -1.1104 3.838973137356636 4.343903301432564 6.501585277308376 0 0 0
59 0 1 -1.1104 6.765678629754662 7.040086392403075 4.117855067811145 0 0 0
234 0 1 -1.1104 0.9734742338135549 7.146562914009544 6.556682083180085 0 0 0
5 0 1 -1.1104 6.661527031444731 1.3124632468529152 0.5782951657164778 0 0 0
236 0 1 -1.1104 0.8617661452683093 4.326530139081406 6.546581698675549 0 0 0
8913 0 2 2.2208 13.501029612553749 19.70317103783884 10.544497434833401 0 0 0
69 0 1 -1.1104 6.58103620320914 4.1271301111469265 3.4659840528009496 0 0 0
232 0 1 -1.1104 11.794059537632368 18.244351781219823 12.25055315843987 0 0 0
238 0 1 -1.1104 3.5315624808891344 7.153812267662592 6.371008937848087 0 0 0
8128 0 2 2.2208 2.3835919409321336 -5.473795094564542 7.912270961914319 0 0 0
9 0 1 -1.1104 6.447793714321844 1.5201314496738771 3.4349944910529766 0 0 0
57 0 1 -1.1104 6.5113755116394385 7.181848790447641 1.1491424158862666 0 0 0
63 0 1 -1.1104 6.467260924198743 4.442385470695222 0.7112428140047024 0 0 0
33 0 1 -1.1104 12.301294553432342 1.4179303667654442 0.9080160282634324 0 0 0
35 0 1 -1.1104 12.301072839059133 1.510843547126142 3.55897976600936 0 0 0
38 0 2 2.2208 10.920299227959076 2.8348643667940294 2.232096608721351 0 0 0
41 0 1 -1.1104 9.445692662499187 1.5995369224861566 0.8953280334739968 0 0 0
44 0 1 -1.1104 9.42996081455635 1.4767722055346295 3.5018049718975433 0 0 0
46 0 2 2.2208 8.074260710544227 2.924765537645468 4.959109841727665 0 0 0
84 0 2 2.2208 11.01461933183762 5.618271546567216 5.1123443171416065 0 0 0
88 0 1 -1.1104 12.175957856304818 4.221099994098239 0.8189281793032133 0 0 0
92 0 1 -1.1104 12.391597972064611 4.3491055842767565 3.4768233931403825 0 0 0
95 0 2 2.2208 7.999172243339575 5.551340590579756 2.266539386925528 0 0 0
99 0 1 -1.1104 9.36768800549669 4.27149876158091 0.8306202693857032 0 0 0
102 0 1 -1.1104 9.549877035748606 4.136177965561367 3.7018772316267343 0 0 0
94 0 1 -1.1104 9.214866928859024 7.063458729691149 0.920119669437448 0 0 0
86 0 1 -1.1104 12.222197546722581 7.011821091363067 0.7372931528202995 0 0 0
97 0 1 -1.1104 9.409484246257275 6.924089334563229 3.7322119901926265 0 0 0
206 0 1 -1.1104 12.255795366742806 1.6348413515093183 6.301350783272013 0 0 0
87 0 1 -1.1104 12.302980035489169 7.147225254516721 3.760627190843369 0 0 0
209 0 1 -1.1104 9.417027778746807 1.5879977918140011 6.507366746452735 0 0 0
266 0 1 -1.1104 12.37658531595395 4.333714711482767 6.533535917434102 0 0 0
9341 0 2 2.2208 13.573045341980075 19.96521586570735 -0.3346522758406734 0 0 0
235 0 1 -1.1104 6.609757937911968 7.363783336995175 6.598325120565425 0 0 0
265 0 1 -1.1104 12.109898168529929 7.244790669001694 6.644743248202271 0 0 0
267 0 1 -1.1104 9.600039368480585 7.329048036652642 6.320269930128202 0 0 0
374 0 2 2.2208 2.2489558752271357 14.099343869713044 -0.45777733716710756 0 0 0
55 0 2 2.2208 5.141371604366097 11.291859530131013 5.1590004613781 0 0 0
61 0 1 -1.1104 0.8064906171463024 9.949337268955631 0.931124413606399 0 0 0
66 0 2 2.2208 5.0820328273240225 8.743375331776313 2.198504664601729 0 0 0
68 0 1 -1.1104 1.089960081187003 9.988696199499122 3.466656846926964 0 0 0
73 0 2 2.2208 2.400677211152732 11.486741494472325 2.413242425730186 0 0 0
75 0 2 2.2208 2.254045611453907 8.644415258728777 5.053957926928 0 0 0
77 0 1 -1.1104 3.6152257930149134 10.084574472970806 0.9541435714546614 0 0 0
80 0 1 -1.1104 3.693809679377697 9.976612429884435 3.826095416735083 0 0 0
107 0 1 -1.1104 0.9696710486770102 12.740025539829213 1.064246054991063 0 0 0
113 0 1 -1.1104 0.7684513085852892 12.797966954149407 3.7285711342125487 0 0 0
123 0 1 -1.1104 3.9138677479301505 12.91617938864768 0.9433233038323151 0 0 0
128 0 1 -1.1104 3.7257274815486636 12.8475781391418 3.6598860456559428 0 0 0
115 0 1 -1.1104 6.573004191745171 12.64597912115968 3.8688013967901167 0 0 0
65 0 1 -1.1104 6.41311552595026 10.223906944336633 6.925274916012187 0 0 0
111 0 1 -1.1104 6.451218159876776 13.107215063594492 6.4379964283498285 0 0 0
70 0 1 -1.1104 6.170530762004198 9.974737037857649 3.7287093417520305 0 0 0
78 0 1 -1.1104 3.6097028916746927 9.918649855330134 6.611407063754608 0 0 0
108 0 1 -1.1104 0.8791256497247404 12.846615255965611 6.611340106279243 0 0 0
62 0 1 -1.1104 0.7762572000628489 10.038382864794045 6.2927320365721675 0 0 0
8051 0 2 2.2208 2.237487559592441 -5.511643361333881 2.216496786594598 0 0 0
64 0 1 -1.1104 6.645180181533097 10.123228618037178 0.940440147761952 0 0 0
110 0 1 -1.1104 6.649786813584644 12.78399108344202 0.9420001532398516 0 0 0
85 0 2 2.2208 10.648192132499304 11.379314684634272 4.9811031432311985 0 0 0
89 0 1 -1.1104 12.223220272553661 9.753028164948626 0.8100109793963898 0 0 0
91 0 2 2.2208 10.758979251360815 8.245920694427793 2.3937479653034828 0 0 0
93 0 1 -1.1104 11.9797558894066 9.85275191994493 3.6850792179011824 0 0 0
96 0 2 2.2208 7.920377762086303 11.288308936470868 2.2012955490986887 0 0 0
98 0 2 2.2208 7.94126649404187 8.535467243698772 5.275829879387744 0 0 0
100 0 1 -1.1104 9.640921569590292 9.740234141053726 0.8907606213357929 0 0 0
103 0 1 -1.1104 9.099902256633701 9.941436326439367 3.659296647904546 0 0 0
142 0 1 -1.1104 12.186695420028816 12.80048810643261 0.6786597751652264 0 0 0
146 0 1 -1.1104 12.358710616613404 12.643795960424756 3.550178644190357 0 0 0
153 0 1 -1.1104 9.321585131330135 12.547375916531085 0.7280610562427371 0 0 0
158 0 1 -1.1104 9.442155198655144 12.74522300030345 3.4856738386737693 0 0 0
90 0 1 -1.1104 12.193581277582197 9.823902332026297 6.597673154370602 0 0 0
154 0 1 -1.1104 9.325343456738873 12.880557848964882 6.548144332587284 0 0 0
119 0 2 2.2208 5.236401938983601 14.151325300712951 2.4488213847513425 0 0 0
130 0 2 2.2208 2.265126911592463 14.183999805909377 5.085101718411022 0 0 0
106 0 2 2.2208 5.138467261054156 16.925267961310304 5.232433403484719 0 0 0
109 0 1 -1.1104 0.848336159413846 18.45287798341528 0.8837174769424321 0 0 0
114 0 1 -1.1104 0.8410333463279417 18.526965208881787 3.707919563453339 0 0 0
116 0 1 -1.1104 0.7501891192570688 15.689055628862892 1.0415118352144148 0 0 0
120 0 2 2.2208 5.373923055200514 19.758480252357742 2.1943255831572013 0 0 0
121 0 1 -1.1104 0.8345313387621552 15.691963625719014 3.6166066574876905 0 0 0
125 0 1 -1.1104 3.6845470728193064 18.340944917281195 0.7973092323206381 0 0 0
127 0 2 2.2208 2.235017174308809 17.085633758317538 2.3291318263453564 0 0 0
129 0 1 -1.1104 3.8941840690413234 18.58258993971468 3.797208846387776 0 0 0
131 0 2 2.2208 2.463730405675361 19.950719965920747 5.195952732582352 0 0 0
132 0 1 -1.1104 3.7519660252675155 15.624725917313393 1.0504929046565818 0 0 0
134 0 1 -1.1104 3.8210814450506208 15.577473601937387 3.8240623625131382 0 0 0
133 0 1 -1.1104 3.9226981832353194 15.671273303780255 6.62133019489572 0 0 0
140 0 1 -1.1104 6.564313025391017 15.64079172152211 0.9827930264473698 0 0 0
165 0 1 -1.1104 0.8106615351827473 18.55645374382211 6.260767795036237 0 0 0
138 0 1 -1.1104 6.653980532950006 18.386686550263782 0.8044170314251945 0 0 0
139 0 1 -1.1104 6.690145060818296 18.317067319182875 3.7233681671740944 0 0 0
122 0 1 -1.1104 6.5221609072238 15.415225505184354 3.892046666823052 0 0 0
112 0 1 -1.1104 6.531157350192073 18.542526039463624 6.500270668249636 0 0 0
25 0 2 2.2208 -0.4229924635300817 -2.619607217040035 2.3645321356173956 0 0 0
126 0 1 -1.1104 3.532231685749827 18.444194417667845 6.469634095823746 0 0 0
537 0 2 2.2208 5.140293244960777 17.01432255513783 -0.38126180054023134 0 0 0
8961 0 2 2.2208 13.630380029792994 16.96118919894163 2.185620475482296 0 0 0
156 0 1 -1.1104 9.43046735705571 18.487659756301923 6.49538655291668 0 0 0
150 0 2 2.2208 10.841433217801542 14.219706584829328 2.1348755456595283 0 0 0
160 0 2 2.2208 8.038498330004268 14.360480936644269 5.284968965459662 0 0 0
141 0 2 2.2208 10.845630403054587 17.055345504466292 5.021534242233856 0 0 0
144 0 1 -1.1104 12.13020562181319 18.479607527671448 0.9686985729209632 0 0 0
147 0 1 -1.1104 12.14518744505977 18.24638400217588 3.779971828434134 0 0 0
148 0 1 -1.1104 12.103871773938932 15.648368731082213 0.7482510713150414 0 0 0
151 0 2 2.2208 10.753685699114277 19.993513840036996 2.3975204243686017 0 0 0
152 0 1 -1.1104 12.433513273546819 15.428293584351918 3.682023076199113 0 0 0
155 0 1 -1.1104 9.428150080888871 18.495797430836518 0.6184633656669888 0 0 0
157 0 2 2.2208 7.873646485940824 16.929101950880526 2.277568428512365 0 0 0
159 0 1 -1.1104 9.492483539790506 18.51048320952899 3.5129636010093686 0 0 0
161 0 2 2.2208 7.960560557105778 19.73872856811587 5.149298513592483 0 0 0
162 0 1 -1.1104 9.33369977957777 15.649473664607836 0.9050069019469329 0 0 0
164 0 1 -1.1104 9.44702580702846 15.49754996698005 3.5127108045003586 0 0 0
149 0 1 -1.1104 12.117333111926598 15.694465183598345 6.395711853133025 0 0 0
8079 0 2 2.2208 8.012305047670838 -5.448324782090646 7.86794861505313 0 0 0
163 0 1 -1.1104 9.56821440485273 15.732591633193774 6.4875270079304705 0 0 0
28 0 1 -1.1104 12.01014884175739 15.590136215356402 12.220805409202923 0 0 0
8052 0 2 2.2208 5.338430995068217 -5.488521897751395 10.594611033446201 0 0 0
174 0 1 -1.1104 3.6380934156592772 -1.5994916110909276 6.509300848969526 0 0 0
50 0 2 2.2208 13.565673469515705 -2.6839744705916493 5.084983626301713 0 0 0
170 0 1 -1.1104 0.8092591324808984 -1.3302525617346284 6.3437146693679995 0 0 0
175 0 2 2.2208 5.30186837284178 0.12273688067258123 10.499066769613618 0 0 0
176 0 1 -1.1104 0.9155813393728643 -4.017993681581408 12.300004391888978 0 0 0
180 0 1 -1.1104 0.8934153519069813 -4.022518928402318 9.302099944953401 0 0 0
184 0 1 -1.1104 0.8812068970044022 -1.265227325319088 12.355574665345399 0 0 0
186 0 2 2.2208 5.210294694751722 -2.606783953087509 7.840278904218608 0 0 0
188 0 1 -1.1104 1.1299698548619228 -1.239116792467726 9.515645571387864 0 0 0
190 0 1 -1.1104 3.968993804459609 -4.049565628150727 12.128346027468366 0 0 0
192 0 2 2.2208 2.279823145758749 0.30140690685678095 7.737563775669633 0 0 0
193 0 1 -1.1104 3.7613560427851565 -3.9928239599352477 9.266773136137447 0 0 0
195 0 2 2.2208 2.4725144434510296 -2.642674155795901 10.81316260112641 0 0 0
197 0 1 -1.1104 3.7700615734102216 -1.236580767918095 12.016394400072953 0 0 0
198 0 1 -1.1104 3.964422305418952 -1.1862484103849769 9.179464897522923 0 0 0
185 0 1 -1.1104 6.737478655386157 -1.3532541849256783 12.10159109735223 0 0 0
8017 0 2 2.2208 5.1385088263747924 -5.499777768676701 5.112323853074159 0 0 0
343 0 2 2.2208 2.3920011003218318 0.09369824862290943 13.632868802112453 0 0 0
207 0 1 -1.1104 12.195257985604272 -1.2442201527388888 6.566008088423921 0 0 0
501 0 2 2.2208 10.502936754090266 19.895007187054244 13.588040902306037 0 0 0
230 0 2 2.2208 13.639891292069475 -2.688749954222129 10.643651447846851 0 0 0
178 0 1 -1.1104 6.710763256740675 -4.08495643075812 11.754642181246846 0 0 0
189 0 1 -1.1104 6.768394204425821 -1.3705998397600487 9.456931093943282 0 0 0
182 0 1 -1.1104 6.699048630035362 -4.024577255455329 9.119723207343851 0 0 0
211 0 2 2.2208 10.834879564562605 0.14128433257260897 10.755986720522928 0 0 0
212 0 1 -1.1104 12.532020951918355 -3.8738103905839965 12.40324086735138 0 0 0
214 0 1 -1.1104 12.074401391374742 -4.219291172487261 9.231657647843965 0 0 0
216 0 1 -1.1104 12.361479662450575 -1.331562630091884 12.039023484325318 0 0 0
217 0 2 2.2208 10.722089100958351 -2.8329076843663206 7.815334967149384 0 0 0
219 0 1 -1.1104 12.12649348794832 -1.3475763640453289 9.167647902600915 0 0 0
220 0 1 -1.1104 9.478760316560098 -4.1174826155575985 12.405409278063289 0 0 0
222 0 2 2.2208 8.066629071824787 0.024221618959939312 7.913480811336923 0 0 0
223 0 1 -1.1104 9.522133607627561 -4.029744626558274 9.477655123735923 0 0 0
225 0 2 2.2208 8.249057142776282 -2.671183227786134 10.792932627480667 0 0 0
227 0 1 -1.1104 9.66138610341719 -1.3046353998172877 12.371185297010397 0 0 0
228 0 1 -1.1104 9.454717134371917 -1.3407054440918351 9.327948454836605 0 0 0
376 0 2 2.2208 10.981206996371846 -2.574480482538283 13.655547052130128 0 0 0
8954 0 2 2.2208 13.540414592618717 11.186557056761535 2.2050986176886505 0 0 0
375 0 2 2.2208 8.03957101702671 0.14170310161417093 13.644010175264318 0 0 0
9066 0 2 2.2208 13.271543987733418 11.492901218928148 13.494891419033753 0 0 0
173 0 1 -1.1104 3.8786723889029697 1.6139928024885473 6.348616936683519 0 0 0
167 0 1 -1.1104 0.6116756759803235 1.418252659399589 6.671106907423633 0 0 0
8937 0 2 2.2208 -0.3212834446134566 8.498671416739345 7.81697163602373 0 0 0
237 0 1 -1.1104 6.605481494231338 4.330801928056921 6.127947864831286 0 0 0
177 0 1 -1.1104 1.0235452880175 1.2542094848601972 12.039622068052049 0 0 0
181 0 1 -1.1104 0.9037744262369829 1.4844686888029497 9.133284253631944 0 0 0
187 0 2 2.2208 5.132785248242299 2.926418133032708 7.794960844652941 0 0 0
191 0 1 -1.1104 3.8849839062629687 1.6271547670551785 12.207623583968937 0 0 0
194 0 1 -1.1104 3.7335065937734235 1.6212323467202083 9.108556252266267 0 0 0
196 0 2 2.2208 2.3594088683524412 2.7648397182676887 10.860265983416273 0 0 0
240 0 2 2.2208 5.096493544335101 5.851163096196742 10.657944807480057 0 0 0
246 0 1 -1.1104 0.8443278679204362 4.315480125446407 12.408987733959059 0 0 0
251 0 1 -1.1104 0.9075998513439401 4.418376726677692 9.457255213861508 0 0 0
256 0 2 2.2208 2.4442580812718653 5.801071569056959 8.02119189540608 0 0 0
260 0 1 -1.1104 3.5415247120682936 4.480601418799705 12.087115827696111 0 0 0
262 0 1 -1.1104 3.6293515689909013 4.14686249961279 9.35716650600239 0 0 0
244 0 1 -1.1104 0.8863509527409014 7.29677984435778 9.530079423891058 0 0 0
242 0 1 -1.1104 0.8355874739541016 6.964220589311689 12.491472233244114 0 0 0
255 0 1 -1.1104 3.673021403964463 7.524135909027815 12.115605861310053 0 0 0
258 0 1 -1.1104 3.787586642567726 7.279592954877126 9.287575453897357 0 0 0
183 0 1 -1.1104 6.654793041594136 1.5081330128255186 9.169920423085218 0 0 0
253 0 1 -1.1104 6.372551258191397 4.475850386514193 9.267830748245352 0 0 0
245 0 1 -1.1104 6.605805869531833 7.112214440691361 9.59310327071134 0 0 0
105 0 1 -1.1104 9.076592438276077 18.77653612911745 12.311533244799937 0 0 0
8940 0 2 2.2208 13.649944744257107 2.838903512483352 10.727412689233496 0 0 0
438 0 2 2.2208 7.900919744698371 5.648921689392876 13.536933796932452 0 0 0
169 0 1 -1.1104 6.613329937677704 1.386235901760735 6.484144477874605 0 0 0
248 0 1 -1.1104 6.432612396333012 4.360568397361634 12.223268773883866 0 0 0
179 0 1 -1.1104 6.556345510374365 1.5774037220546735 12.211710779078906 0 0 0
377 0 2 2.2208 10.971940737272334 2.9308160221946276 13.535699513516875 0 0 0
269 0 1 -1.1104 9.317704667098246 4.5763622474915175 6.404640563192599 0 0 0
243 0 1 -1.1104 6.438289761879572 7.240707798197902 12.448848991277329 0 0 0
213 0 1 -1.1104 12.31415798591719 1.4169424254232776 12.209500943038163 0 0 0
215 0 1 -1.1104 12.311816606726218 1.5907494854921402 9.281823085312737 0 0 0
218 0 2 2.2208 10.736940647536512 2.946911532953339 7.913765893474387 0 0 0
221 0 1 -1.1104 9.329537790532296 1.401196152206111 12.036130661185709 0 0 0
224 0 1 -1.1104 9.488833893448469 1.5181814075358828 9.31025032890302 0 0 0
226 0 2 2.2208 7.850556747487664 2.947131109964578 10.753351086573307 0 0 0
268 0 1 -1.1104 9.093737676535747 4.401760674191959 9.272232788245052 0 0 0
271 0 1 -1.1104 9.293947309815566 4.080769590624008 12.031627199391568 0 0 0
275 0 2 2.2208 7.8640038393631215 5.78806280674986 7.707380992949244 0 0 0
276 0 2 2.2208 10.755379708271807 5.798739114902887 10.71807773194921 0 0 0
279 0 1 -1.1104 12.120965138708591 7.049790203553682 9.287160546256077 0 0 0
280 0 1 -1.1104 12.197875067001593 4.249694070374451 12.095285560256668 0 0 0
283 0 1 -1.1104 12.294380601528644 4.272395225398078 9.242546107852013 0 0 0
285 0 1 -1.1104 9.18690214092532 7.061761748252375 12.066179620995898 0 0 0
273 0 1 -1.1104 9.185956555428012 7.112368248854375 9.221740704554438 0 0 0
278 0 1 -1.1104 12.100860384899114 7.1009018770739685 12.001513859251403 0 0 0
8939 0 2 2.2208 13.585297051836452 5.705015134378465 8.048265469160484 0 0 0
30 0 2 2.2208 11.000124835484238 20.035099198753716 7.887251845496729 0 0 0
342 0 2 2.2208 5.222398281448603 -2.62427018288918 13.453574624280115 0 0 0
124 0 1 -1.1104 3.653077729208049 12.826221282315805 6.290654952154931 0 0 0
241 0 2 2.2208 5.2014912766902635 11.522888342924329 10.677713396283693 0 0 0
247 0 1 -1.1104 0.7621761109001558 10.11286449454671 12.138533509356744 0 0 0
250 0 2 2.2208 5.176091209108544 8.672184488288165 8.003657856997254 0 0 0
252 0 1 -1.1104 1.0826760704156988 9.942753613296821 9.199323854612512 0 0 0
257 0 2 2.2208 2.0700495295538714 11.487050955670352 7.921403661573208 0 0 0
259 0 2 2.2208 2.225458745767141 8.778616914818212 10.779535162647598 0 0 0
261 0 1 -1.1104 3.5819907604072623 10.169254883081246 12.085268273189138 0 0 0
263 0 1 -1.1104 3.8116094735092636 9.96464577331917 9.63541407695439 0 0 0
135 0 1 -1.1104 3.8076048745783746 12.63191114141955 9.181343495506841 0 0 0
287 0 1 -1.1104 3.597409466737889 12.931724943694647 12.055381457436694 0 0 0
294 0 1 -1.1104 0.6301654369403923 12.849758550041061 9.556320322534022 0 0 0
299 0 1 -1.1104 0.77266837101218 12.957439252294044 12.477802129519825 0 0 0
254 0 1 -1.1104 6.583859838959097 10.003928401462668 9.593111410102404 0 0 0
249 0 1 -1.1104 6.411820328366336 9.971008882425116 12.307949158395864 0 0 0
297 0 1 -1.1104 6.396638708896807 12.808826678478123 12.152285733039294 0 0 0
26 0 1 -1.1104 9.33322352706194 15.632229824686554 9.414909659224534 0 0 0
101 0 1 -1.1104 9.149765620638702 10.091754388869282 6.453224235669597 0 0 0
290 0 1 -1.1104 6.474433349800483 12.823145508702046 9.259721336605901 0 0 0
29 0 2 2.2208 10.739743825788475 14.288219122184493 7.870525405257737 0 0 0
143 0 1 -1.1104 12.01190826155994 12.669793342209527 6.452983881617797 0 0 0
264 0 1 -1.1104 9.521722345408305 9.771391268553995 9.136632935818112 0 0 0
270 0 1 -1.1104 9.37199536832941 9.982852634038393 12.1433383981872 0 0 0
272 0 2 2.2208 7.911504600257755 8.387236908574904 10.949672458845292 0 0 0
274 0 2 2.2208 7.897355041279012 11.45816914859075 7.903976890286747 0 0 0
277 0 2 2.2208 10.542651795714288 11.145947874693155 10.590222700412086 0 0 0
281 0 1 -1.1104 12.01449146129469 9.912251925515623 12.0307960888127 0 0 0
282 0 2 2.2208 10.85601195375846 8.676446150966594 7.856805255895679 0 0 0
284 0 1 -1.1104 12.326960678581194 9.920970146061876 9.311029478673836 0 0 0
81 0 1 -1.1104 9.08311411414543 12.742658755689652 12.323357041707991 0 0 0
201 0 1 -1.1104 9.177318072994781 12.77186131056126 9.268882955478187 0 0 0
231 0 1 -1.1104 11.86105902523373 12.707003519781027 11.913686519089262 0 0 0
233 0 1 -1.1104 11.936258596991385 12.65557385157407 9.050558796859326 0 0 0
440 0 2 2.2208 7.892465552301393 11.441058610642644 13.553477961888591 0 0 0
474 0 2 2.2208 2.275669533228644 16.998564171599334 13.566636229776302 0 0 0
439 0 2 2.2208 10.78712965547399 8.662147566600618 13.557961069787938 0 0 0
118 0 1 -1.1104 6.603115518611695 15.848781144398904 6.6911815117781686 0 0 0
288 0 1 -1.1104 6.487326084104136 18.484919887360974 9.406504283937554 0 0 0
9061 0 2 2.2208 13.55628050872126 5.647180845442612 13.378890602116833 0 0 0
117 0 1 -1.1104 0.9029117611242077 15.64165439349016 6.4835739148302975 0 0 0
83 0 2 2.2208 2.059912907269982 14.234778069489222 11.080576203388471 0 0 0
295 0 2 2.2208 5.145690563799646 14.246093822037508 7.890357861933918 0 0 0
301 0 1 -1.1104 3.6051687155068253 18.43427175353435 9.339781040575037 0 0 0
292 0 1 -1.1104 0.8769544706984523 15.60544470938714 9.586022765894503 0 0 0
300 0 2 2.2208 5.040656677365925 17.011719975336863 10.815387421996062 0 0 0
298 0 1 -1.1104 0.7830207277326181 18.661764327787704 12.116710150241163 0 0 0
293 0 2 2.2208 5.056423590129557 19.927644151058956 8.086219791782222 0 0 0
291 0 1 -1.1104 0.7388892660582362 18.491442997354635 9.259302998245943 0 0 0
52 0 1 -1.1104 0.7869335909793457 15.764904520264505 12.399234286732835 0 0 0
104 0 2 2.2208 2.1029251529234165 19.94121104616196 10.807703659232722 0 0 0
136 0 1 -1.1104 3.6367341925316334 15.743780475658752 9.322867166120872 0 0 0
137 0 2 2.2208 2.26776958208416 17.115818581117118 7.8215403722823 0 0 0
229 0 1 -1.1104 3.609246344668581 15.486335165555953 12.275971781094976 0 0 0
286 0 1 -1.1104 3.501512366818701 18.14858341518947 12.156494834373266 0 0 0
53 0 1 -1.1104 6.467511240273137 15.74204542484627 12.298921014336981 0 0 0
289 0 1 -1.1104 6.504473726503786 15.639551587912795 9.595809195248778 0 0 0
296 0 1 -1.1104 6.300580164277509 18.45472952206929 12.087794043299034 0 0 0
620 0 2 2.2208 8.085958265708511 8.486106775517609 -0.408240978959102 0 0 0
475 0 2 2.2208 5.068606073638254 19.963856462268843 13.597977699009022 0 0 0
503 0 2 2.2208 7.7745260553356506 17.028243369501197 13.661902372305546 0 0 0
8947 0 2 2.2208 13.577541056560454 16.8717272575104 7.804452386781723 0 0 0
502 0 2 2.2208 10.563246674149434 14.151032629117424 13.469738646376006 0 0 0
199 0 2 2.2208 7.870203873929091 17.191247132668636 8.074770764902071 0 0 0
145 0 1 -1.1104 12.170139395844311 18.49654695010213 6.633199530323851 0 0 0
49 0 1 -1.1104 9.041442908951506 15.862297986900405 12.10034024507088 0 0 0
27 0 1 -1.1104 12.17392643270249 18.428289219741576 9.294320750384927 0 0 0
202 0 1 -1.1104 9.352978352616654 18.59355164507733 9.409618237452795 0 0 0
51 0 1 -1.1104 12.201756149267487 15.587037187017813 9.379555935151613 0 0 0
204 0 2 2.2208 10.591389816617713 17.170872046884224 10.759763726566797 0 0 0
203 0 2 2.2208 7.900639231352438 14.238453069740212 10.814027384547668 0 0 0
82 0 2 2.2208 7.762712224103541 19.98580067385782 10.762259969510085 0 0 0
8986 0 2 2.2208 13.503873320147596 16.989252193197025 13.470352379702536 0 0 0
8955 0 2 2.2208 13.599063452252821 0.26222444073409223 7.8139451044578765 0 0 0
8945 0 2 2.2208 13.564756592726157 8.458885585108188 5.269431019546602 0 0 0
476 0 2 2.2208 5.098103013909579 14.228511821140192 13.611050842300449 0 0 0
344 0 2 2.2208 5.140035127446519 2.908445836551564 13.583841920526385 0 0 0
302 0 2 2.2208 5.090538866519541 -0.21440632426836614 16.429491896130415 0 0 0
303 0 1 -1.1104 0.9253766669945486 -4.223659229384913 17.914770424030852 0 0 0
307 0 1 -1.1104 0.8879834744683185 -4.064877674388269 14.95956157749288 0 0 0
315 0 1 -1.1104 0.9729261218159333 -1.4633334214611655 17.94799611270041 0 0 0
317 0 2 2.2208 5.206562010843989 -2.661341320443393 19.298533220100758 0 0 0
319 0 1 -1.1104 0.9532995831675972 -1.0557538867509073 15.161254369878923 0 0 0
323 0 1 -1.1104 3.7610120668520426 -4.100010953198649 17.67605095147075 0 0 0
325 0 2 2.2208 2.4332121818962777 0.08447837829734818 19.327438160484114 0 0 0
326 0 1 -1.1104 3.59353109357274 -4.2246739002115525 14.953773740497853 0 0 0
330 0 2 2.2208 2.454493553897663 -2.6417142396189996 16.458327732534627 0 0 0
332 0 1 -1.1104 3.816828300310528 -1.3168979752115482 17.838812947883007 0 0 0
333 0 1 -1.1104 3.6520757630904805 -1.4690914052356447 15.020123829595256 0 0 0
320 0 1 -1.1104 0.89551807164555 -1.1564384856043615 20.737838008095885 0 0 0
413 0 2 2.2208 2.3274432268063716 11.473376654029606 13.738443131597439 0 0 0
8566 0 2 2.2208 2.4863395728542965 -5.440213228887353 19.241387195107 0 0 0
621 0 2 2.2208 10.697525060884692 11.260739979986038 27.703921383358534 0 0 -1
8567 0 2 2.2208 5.31145749003321 -5.454182867212143 16.15635801818798 0 0 0
334 0 1 -1.1104 3.7482908359686915 -1.3083643635045867 20.676200881433804 0 0 0
308 0 1 -1.1104 0.9282232044072187 -4.021988412405166 20.759105690018256 0 0 0
305 0 1 -1.1104 6.4643579755439 -4.116725611273781 17.862080170410312 0 0 0
321 0 1 -1.1104 6.669656024093514 -1.4614990253376514 15.042872312531413 0 0 0
316 0 1 -1.1104 6.6895818055958145 -1.3626222264346701 18.02829282435248 0 0 0
311 0 1 -1.1104 6.575002372254611 -4.108364886412411 14.64882229708978 0 0 0
345 0 2 2.2208 10.946058540133054 0.0996608600661532 16.51443270820546 0 0 0
346 0 1 -1.1104 12.16009197996792 -4.278510606477145 17.893722180369625 0 0 0
348 0 1 -1.1104 12.269410449141912 -3.8917245210845985 15.219374641037682 0 0 0
352 0 1 -1.1104 12.300297957102732 -1.4485967148059464 17.89515514711421 0 0 0
353 0 2 2.2208 10.726092930069917 -2.6952499694247245 19.177129359452195 0 0 0
355 0 1 -1.1104 12.28256922017554 -1.1459196785909849 15.033608672404757 0 0 0
357 0 1 -1.1104 9.405474045262213 -4.186210056528079 17.76761496921997 0 0 0
359 0 2 2.2208 8.029318109375032 0.1803910700272234 19.210047248413257 0 0 0
360 0 1 -1.1104 9.200030981597765 -4.08430178554022 15.259072669356817 0 0 0
364 0 2 2.2208 8.024231793390834 -2.682045834896104 16.521218556295075 0 0 0
366 0 1 -1.1104 9.399844806146662 -1.2338683341654662 17.660746010442338 0 0 0
367 0 1 -1.1104 9.476289614541168 -1.1393080067704844 15.050537737270156 0 0 0
356 0 1 -1.1104 12.315314048181104 -1.2092078756033355 20.79319961422402 0 0 0
8534 0 2 2.2208 7.887363729405509 -5.414794704796683 19.012138332812338 0 0 0
536 0 2 2.2208 10.74218335972611 17.046019712355108 27.624333372675633 0 0 -1
9132 0 2 2.2208 13.596928510772324 14.31046220058774 16.381644705249627 0 0 0
304 0 1 -1.1104 1.1473855490154314 1.4858176111662553 17.99492519898098 0 0 0
309 0 1 -1.1104 1.1457048081506187 1.6713576631949825 14.848300159517313 0 0 0
318 0 2 2.2208 5.16259794253773 2.7824570935968858 19.39619305313425 0 0 0
324 0 1 -1.1104 3.7889111904582786 1.2603758581901212 17.994818990406486 0 0 0