LAMMPS (29 Oct 2020)
OMP_NUM_THREADS environment is not set. Defaulting to 1 thread. (../comm.cpp:94)
  using 1 OpenMP thread(s) per MPI task
OMP_NUM_THREADS environment is not set. Defaulting to 1 thread. (../comm.cpp:94)
  using 1 OpenMP thread(s) per MPI task
Reading data file ...
  orthogonal box = (-0.27717828 -3.4472206 -0.27717828) to (27.617178 331.52722 27.617178)
  2 by 13 by 2 MPI processor grid
  reading atoms ...
  18000 atoms
  reading velocities ...
  18000 velocities
Finding 1-2 1-3 1-4 neighbors ...
  special bond factors lj:    0.0      0.0      0.0     
  special bond factors coul:  0.0      0.0      0.0     
     0 = max # of 1-2 neighbors
     0 = max # of 1-3 neighbors
     0 = max # of 1-4 neighbors
     1 = max # of special neighbors
  special bonds CPU = 0.004 seconds
  read_data CPU = 0.067 seconds
75 atoms in group sphere
16 atoms in group oxygen
1 atoms in group thorium
59 atoms in group 1
60 atoms in group cluster
6000 atoms in group Th
12000 atoms in group O
20 atoms in group Th_group
40 atoms in group O_group
Setting atom values ...
  20 settings made for type/subset
20 atoms in group Xe
40 atoms in group delete
WARNING: Ignoring 'compress yes' for molecular system (../delete_atoms.cpp:125)
Deleted 40 atoms, new total = 17960
75 atoms in group sphere
1 atoms in group oxygen
16 atoms in group thorium
59 atoms in group 1
60 atoms in group cluster
5980 atoms in group Th
11960 atoms in group O
20 atoms in group Th_group
40 atoms in group O_group
Setting atom values ...
  20 settings made for type/subset
40 atoms in group Xe
40 atoms in group delete
WARNING: Ignoring 'compress yes' for molecular system (../delete_atoms.cpp:125)
Deleted 40 atoms, new total = 17920
75 atoms in group sphere
1 atoms in group oxygen
16 atoms in group thorium
59 atoms in group 1
60 atoms in group cluster
5960 atoms in group Th
11920 atoms in group O
20 atoms in group Th_group
40 atoms in group O_group
Setting atom values ...
  20 settings made for type/subset
60 atoms in group Xe
40 atoms in group delete
WARNING: Ignoring 'compress yes' for molecular system (../delete_atoms.cpp:125)
Deleted 40 atoms, new total = 17880
75 atoms in group sphere
1 atoms in group oxygen
16 atoms in group thorium
59 atoms in group 1
60 atoms in group cluster
5940 atoms in group Th
11880 atoms in group O
20 atoms in group Th_group
40 atoms in group O_group
Setting atom values ...
  20 settings made for type/subset
80 atoms in group Xe
40 atoms in group delete
WARNING: Ignoring 'compress yes' for molecular system (../delete_atoms.cpp:125)
Deleted 40 atoms, new total = 17840
75 atoms in group sphere
1 atoms in group oxygen
16 atoms in group thorium
59 atoms in group 1
60 atoms in group cluster
5920 atoms in group Th
11840 atoms in group O
20 atoms in group Th_group
40 atoms in group O_group
Setting atom values ...
  20 settings made for type/subset
100 atoms in group Xe
40 atoms in group delete
WARNING: Ignoring 'compress yes' for molecular system (../delete_atoms.cpp:125)
Deleted 40 atoms, new total = 17800
75 atoms in group sphere
1 atoms in group oxygen
16 atoms in group thorium
59 atoms in group 1
60 atoms in group cluster
5900 atoms in group Th
11800 atoms in group O
20 atoms in group Th_group
40 atoms in group O_group
Setting atom values ...
  20 settings made for type/subset
120 atoms in group Xe
40 atoms in group delete
WARNING: Ignoring 'compress yes' for molecular system (../delete_atoms.cpp:125)
Deleted 40 atoms, new total = 17760
Setting atom values ...
  11760 settings made for charge
Setting atom values ...
  5880 settings made for charge
Setting atom values ...
  120 settings made for charge
WARNING: 13 of 1000 force values in table Xe-Xe are inconsistent with -dE/dr.
  Should only be flagged at inflection points (../pair_table.cpp:461)
WARNING: 2 of 1000 force values in table Xe-O are inconsistent with -dE/dr.
  Should only be flagged at inflection points (../pair_table.cpp:461)
WARNING: 2 of 1000 force values in table Xe-Th are inconsistent with -dE/dr.
  Should only be flagged at inflection points (../pair_table.cpp:461)
PPPM initialization ...
  using 12-bit tables for long-range coulomb (../kspace.cpp:328)
  G vector (1/distance) = 0.29911239
  grid = 40 240 40
  stencil order = 5
  estimated absolute RMS force accuracy = 0.00015328544
  estimated relative force accuracy = 1.0645085e-05
  using single precision MKL FFT
  3d grid and FFT values/proc = 18225 7600
Neighbor list info ...
  update every 1 steps, delay 0 steps, check yes
  max neighbors/atom: 2000, page size: 100000
  master list distance cutoff = 13
  ghost atom cutoff = 13
  binsize = 6.5, bins = 5 52 5
  3 neighbor lists, perpetual/occasional/extra = 3 0 0
  (1) pair coul/long, perpetual
      attributes: half, newton on
      pair build: half/bin/newton
      stencil: half/bin/3d/newton
      bin: standard
  (2) pair eam/alloy, perpetual, skip from (1)
      attributes: half, newton on
      pair build: skip
      stencil: none
      bin: none
  (3) pair table, perpetual, skip from (1)
      attributes: half, newton on
      pair build: skip
      stencil: none
      bin: none
Setting up cg style minimization ...
  Unit style    : metal
  Current step  : 0
WARNING: Energy due to 3 extra global DOFs will be included in minimizer energies
Per MPI rank memory allocation (min/avg/max) = 10.36 | 10.98 | 11.16 Mbytes
Step Temp E_pair E_mol TotEng Press Volume 
       0            0   -230342.26            0   -230342.26    6330.8171    260641.98 
     163            0    -231330.8            0    -231330.8    148.56552    262127.72 
Loop time of 3.1846 on 52 procs for 163 steps with 17760 atoms

99.4% CPU use with 52 MPI tasks x 1 OpenMP threads

Minimization stats:
  Stopping criterion = linesearch alpha is zero
  Energy initial, next-to-last, final = 
     -230342.263478741  -231330.797710969  -231330.797710969
  Force two-norm initial, final = 1914.5713 49.415094
  Force max component initial, final = 1404.7499 33.120328
  Final line search alpha, max atom move = 2.7657802e-12 9.1603548e-11
  Iterations, force evaluations = 163 273

MPI task timing breakdown:
Section |  min time  |  avg time  |  max time  |%varavg| %total
---------------------------------------------------------------
Pair    | 1.8154     | 1.8913     | 1.9745     |   3.0 | 59.39
Bond    | 2.5987e-05 | 3.6281e-05 | 5.2831e-05 |   0.0 |  0.00
Kspace  | 0.57317    | 0.65768    | 0.73464    |   5.1 | 20.65
Neigh   | 0.002783   | 0.0033795  | 0.004034   |   0.5 |  0.11
Comm    | 0.058123   | 0.0599     | 0.061345   |   0.3 |  1.88
Output  | 0          | 0          | 0          |   0.0 |  0.00
Modify  | 0          | 0          | 0          |   0.0 |  0.00
Other   |            | 0.5723     |            |       | 17.97

Nlocal:        341.538 ave         412 max         290 min
Histogram: 7 3 9 8 6 6 6 1 0 6
Nghost:        5546.00 ave        5703 max        5398 min
Histogram: 2 6 6 9 7 4 6 5 6 1
Neighs:       108806.0 ave      132563 max       93213 min
Histogram: 7 4 14 2 6 12 0 1 0 6

Total # of neighbors = 5657892
Ave neighs/atom = 318.57500
Ave special neighs/atom = 0.0000000
Neighbor list builds = 1
Dangerous builds = 0
Resetting atom IDs ...
PPPM initialization ...
  using 12-bit tables for long-range coulomb (../kspace.cpp:328)
  G vector (1/distance) = 0.29901009
  grid = 40 240 40
  stencil order = 5
  estimated absolute RMS force accuracy = 0.00015409319
  estimated relative force accuracy = 1.070118e-05
  using single precision MKL FFT
  3d grid and FFT values/proc = 18225 7600
Neighbor list info ...
  update every 1 steps, delay 0 steps, check yes
  max neighbors/atom: 2000, page size: 100000
  master list distance cutoff = 13
  ghost atom cutoff = 13
  binsize = 6.5, bins = 5 52 5
  3 neighbor lists, perpetual/occasional/extra = 3 0 0
  (1) pair coul/long, perpetual
      attributes: half, newton on
      pair build: half/bin/newton
      stencil: half/bin/3d/newton
      bin: standard
  (2) pair eam/alloy, perpetual, skip from (1)
      attributes: half, newton on
      pair build: skip
      stencil: none
      bin: none
  (3) pair table, perpetual, skip from (1)
      attributes: half, newton on
      pair build: skip
      stencil: none
      bin: none
Finding 1-2 1-3 1-4 neighbors ...
  special bond factors lj:    0.0      0.0      0.0     
  special bond factors coul:  0.0      0.0      0.0     
     0 = max # of 1-2 neighbors
     0 = max # of 1-3 neighbors
     0 = max # of 1-4 neighbors
     1 = max # of special neighbors
  special bonds CPU = 0.001 seconds
PPPM initialization ...
  using 12-bit tables for long-range coulomb (../kspace.cpp:328)
  G vector (1/distance) = 0.29901009
  grid = 40 240 40
  stencil order = 5
  estimated absolute RMS force accuracy = 0.00015409319
  estimated relative force accuracy = 1.070118e-05
  using single precision MKL FFT
  3d grid and FFT values/proc = 18225 7600
Neighbor list info ...
  update every 1 steps, delay 0 steps, check yes
  max neighbors/atom: 2000, page size: 100000
  master list distance cutoff = 13
  ghost atom cutoff = 13
  binsize = 6.5, bins = 5 52 5
  3 neighbor lists, perpetual/occasional/extra = 3 0 0
  (1) pair coul/long, perpetual
      attributes: half, newton on
      pair build: half/bin/newton
      stencil: half/bin/3d/newton
      bin: standard
  (2) pair eam/alloy, perpetual, skip from (1)
      attributes: half, newton on
      pair build: skip
      stencil: none
      bin: none
  (3) pair table, perpetual, skip from (1)
      attributes: half, newton on
      pair build: skip
      stencil: none
      bin: none
Setting up Verlet run ...
  Unit style    : metal
  Current step  : 163
  Time step     : 0.001
Per MPI rank memory allocation (min/avg/max) = 9.231 | 9.879 | 10.03 Mbytes
Step Dt Time Atoms Temp PotEng KinEng Press Volume 
     163        0.001            0    17760         1200    -231330.8    2754.6371    11372.936    262127.72 
   20000        0.001       19.837    17760    1186.5775   -228868.46    2723.8254    252.82773    270651.85 
   40000        0.001       39.837    17760    1195.5987   -228877.04    2744.5339   -687.73734     270851.6 
   60000        0.001       59.837    17760    1194.3615   -228878.38    2741.6937   -1508.3449    270943.61 
   80000        0.001       79.837    17760    1210.0335   -228906.88    2777.6693    549.20296    270585.68 
  100000        0.001       99.837    17760    1198.1371   -228870.86    2750.3608   -884.36315    270880.99 
  100163        0.001          100    17760     1195.618   -228908.37    2744.5781    335.61024    270600.54 
Loop time of 876.406 on 52 procs for 100000 steps with 17760 atoms

Performance: 9.858 ns/day, 2.434 hours/ns, 114.102 timesteps/s
99.8% CPU use with 52 MPI tasks x 1 OpenMP threads

MPI task timing breakdown:
Section |  min time  |  avg time  |  max time  |%varavg| %total
---------------------------------------------------------------
Pair    | 526.8      | 539.79     | 556.05     |  31.9 | 61.59
Bond    | 0.0085544  | 0.01522    | 0.023261   |   2.3 |  0.00
Kspace  | 180.21     | 197.27     | 210.95     |  55.5 | 22.51
Neigh   | 7.706      | 8.3242     | 8.8531     |  12.8 |  0.95
Comm    | 23.52      | 24.499     | 25.482     |  10.2 |  2.80
Output  | 0.032173   | 0.032196   | 0.033251   |   0.1 |  0.00
Modify  | 92.865     | 98.107     | 102.53     |  22.4 | 11.19
Other   |            | 8.373      |            |       |  0.96

Nlocal:        341.538 ave         366 max         325 min
Histogram: 10 5 4 4 9 9 4 3 2 2
Nghost:        5466.79 ave        5585 max        5379 min
Histogram: 6 11 6 2 7 5 3 4 3 5
Neighs:       105022.0 ave      114891 max       95224 min
Histogram: 4 4 6 6 0 10 11 7 2 2

Total # of neighbors = 5461122
Ave neighs/atom = 307.49561
Ave special neighs/atom = 0.0000000
Neighbor list builds = 2666
Dangerous builds = 0
WARNING: Shell command 'mkdir' failed with error 'File exists' (../input.cpp:1197)
System init for write_data ...
PPPM initialization ...
  using 12-bit tables for long-range coulomb (../kspace.cpp:328)
  G vector (1/distance) = 0.29843045
  grid = 40 240 40
  stencil order = 5
  estimated absolute RMS force accuracy = 0.0001587317
  estimated relative force accuracy = 1.1023307e-05
  using single precision MKL FFT
  3d grid and FFT values/proc = 18225 7600
Neighbor list info ...
  update every 1 steps, delay 0 steps, check yes
  max neighbors/atom: 2000, page size: 100000
  master list distance cutoff = 13
  ghost atom cutoff = 13
  binsize = 6.5, bins = 5 53 5
  3 neighbor lists, perpetual/occasional/extra = 3 0 0
  (1) pair coul/long, perpetual
      attributes: half, newton on
      pair build: half/bin/newton
      stencil: half/bin/3d/newton
      bin: standard
  (2) pair eam/alloy, perpetual, skip from (1)
      attributes: half, newton on
      pair build: skip
      stencil: none
      bin: none
  (3) pair table, perpetual, skip from (1)
      attributes: half, newton on
      pair build: skip
      stencil: none
      bin: none
Total wall time: 0:14:40
