ITEM: TIMESTEP
80000
ITEM: NUMBER OF ATOMS
17760
ITEM: BOX BOUNDS pp pp pp
-3.7044017135661433e-01 2.7710440171356190e+01
-4.5693885319587775e+00 3.3264938853194747e+02
-3.6662435867568860e-01 2.7706624358675946e+01
ITEM: ATOMS id type q x y z
1 2 2.2208 5.19123 0.93504 5.26172
2 1 -1.1104 1.00332 -3.33071 0.994168
3 1 -1.1104 0.934897 2.37914 0.993673
6 1 -1.1104 1.17283 -3.30405 3.84778
7 1 -1.1104 1.21523 2.2789 3.7086
10 1 -1.1104 0.938364 -0.604219 0.989339
12 2 2.2208 5.20935 -1.839 2.49299
13 2 2.2208 5.20668 3.71638 2.39329
14 1 -1.1104 0.854204 -0.574471 3.89283
16 1 -1.1104 3.73843 -3.0616 1.04252
17 1 -1.1104 3.86718 2.30119 1.18198
18 2 2.2208 2.37718 0.837329 2.38169
19 1 -1.1104 3.87018 -3.15054 3.84917
20 1 -1.1104 3.77452 2.31983 3.95593
21 2 2.2208 2.37769 -1.74153 5.35695
22 2 2.2208 2.45097 3.72522 5.20705
23 1 -1.1104 3.71974 -0.435349 0.911005
24 1 -1.1104 3.72408 -0.41789 3.85521
15 1 -1.1104 6.62536 -0.379856 3.89178
8 1 -1.1104 6.61931 -3.2144 3.91708
8081 2 2.2208 5.15488 -4.70967 10.9237
8681 2 2.2208 13.7002 6.47015 2.52186
393 2 2.2208 2.39972 14.9785 -0.30919
51 2 2.2208 7.96178 14.8043 10.7289
11 1 -1.1104 6.58958 -0.437672 1.06735
9016 2 2.2208 -0.441907 20.4801 13.8141
83 2 2.2208 -0.348112 12.1303 5.31739
30 1 -1.1104 12.2433 13.3835 12.214
173 1 -1.1104 3.86073 2.26086 6.66364
169 1 -1.1104 6.64867 2.12634 6.48903
9 1 -1.1104 6.63683 2.32713 3.70099
5 1 -1.1104 6.66688 2.21663 1.04391
4 1 -1.1104 6.60302 -3.24727 1.06672
8078 2 2.2208 8.04247 -4.56298 2.36572
8486 2 2.2208 13.6738 3.6743 5.31937
31 2 2.2208 10.7829 0.816737 5.28773
32 1 -1.1104 12.1713 -3.07142 0.962513
33 1 -1.1104 12.1791 2.31338 1.07787
34 1 -1.1104 12.2869 -3.32456 3.76849
35 1 -1.1104 12.1876 2.25705 3.8779
36 1 -1.1104 12.2381 -0.409495 1.17305
37 2 2.2208 10.7852 -1.82818 2.5072
39 1 -1.1104 12.1241 -0.571809 3.95722
40 1 -1.1104 9.4738 -3.28412 1.06053
41 1 -1.1104 9.50398 2.37755 0.915687
42 2 2.2208 8.00968 0.934577 2.54155
43 1 -1.1104 9.40805 -3.19996 3.80878
44 1 -1.1104 9.36244 2.31091 3.96475
45 2 2.2208 7.98806 -1.94987 5.28294
47 1 -1.1104 9.43004 -0.561942 1.20287
48 1 -1.1104 9.35996 -0.474714 3.81715
46 2 2.2208 7.94757 3.71749 5.24688
38 2 2.2208 10.7547 3.6856 2.514
8786 2 2.2208 13.6897 -1.79949 5.28142
210 1 -1.1104 9.35028 -0.392803 6.6507
17387 2 2.2208 13.546 -4.60939 8.08033
8702 2 2.2208 13.699 9.35104 10.8541
82 2 2.2208 -0.337796 9.33016 2.54763
229 1 -1.1104 12.1307 16.2847 9.50619
54 2 2.2208 5.3152 6.50724 5.36255
55 2 2.2208 5.28324 12.0298 5.2261
56 1 -1.1104 1.02183 7.93811 1.18275
58 1 -1.1104 1.00918 8.03471 3.99447
60 1 -1.1104 1.09593 5.07848 1.20549
61 1 -1.1104 0.940335 10.8571 1.14987
66 2 2.2208 5.17189 9.41568 2.43904
67 1 -1.1104 1.04476 5.10753 3.89507
68 1 -1.1104 1.04133 10.7319 3.81476
71 1 -1.1104 3.73401 7.99771 0.985584
72 2 2.2208 2.45408 6.58335 2.4753
73 2 2.2208 2.51639 12.1936 2.55081
74 1 -1.1104 3.9507 8.01093 3.96221
75 2 2.2208 2.31917 9.27379 5.36113
76 1 -1.1104 3.7742 5.15302 0.924024
77 1 -1.1104 3.78872 10.795 1.1234
79 1 -1.1104 3.72377 5.08722 3.83159
80 1 -1.1104 3.83909 10.6245 3.87076
69 1 -1.1104 6.50491 5.20652 3.81417
62 1 -1.1104 0.983124 10.7844 6.6284
59 1 -1.1104 6.59878 8.01944 3.65437
70 1 -1.1104 6.60727 10.6856 3.80269
57 1 -1.1104 6.638 8.09222 1.00153
64 1 -1.1104 6.54277 10.8161 1.05593
8785 2 2.2208 13.6844 17.7208 8.07407
8079 2 2.2208 10.7842 -4.58846 5.2629
63 1 -1.1104 6.68872 5.20693 1.07781
84 2 2.2208 10.9469 6.61221 5.12232
85 2 2.2208 10.7677 12.1143 5.16659
86 1 -1.1104 12.1023 7.95585 1.0478
87 1 -1.1104 12.377 7.96457 3.88093
88 1 -1.1104 12.19 5.19554 1.08102
89 1 -1.1104 12.2515 10.7384 0.931325
91 2 2.2208 10.7516 9.26457 2.47023
92 1 -1.1104 12.3154 5.08548 3.8535
93 1 -1.1104 12.2195 10.659 3.72896
94 1 -1.1104 9.35868 8.03875 1.15466
95 2 2.2208 7.90052 6.53048 2.47324
96 2 2.2208 7.9721 12.1321 2.49279
97 1 -1.1104 9.50761 7.99115 3.84944
98 2 2.2208 7.98637 9.31551 5.27205
99 1 -1.1104 9.38927 5.1354 1.13116
100 1 -1.1104 9.52986 10.8408 0.995372
102 1 -1.1104 9.41274 5.13595 3.7625
103 1 -1.1104 9.40859 10.7113 3.78108
267 1 -1.1104 9.50566 7.97603 6.54797
269 1 -1.1104 9.42214 5.2737 6.62165
8682 2 2.2208 13.5932 12.0979 2.4236
90 1 -1.1104 12.2206 10.6887 6.48063
265 1 -1.1104 12.3471 7.96011 6.6933
555 2 2.2208 5.23331 17.573 -0.389297
106 2 2.2208 5.28769 17.55 5.20485
107 1 -1.1104 1.0159 13.6487 1.22373
109 1 -1.1104 0.990759 18.8916 0.973791
113 1 -1.1104 1.03858 13.5431 3.93539
114 1 -1.1104 0.984214 19.077 3.72516
116 1 -1.1104 0.919152 16.2945 0.949007
119 2 2.2208 5.15268 14.8509 2.5335
120 2 2.2208 5.15211 20.2931 2.38974
121 1 -1.1104 1.07023 16.2489 3.9049
123 1 -1.1104 3.90268 13.5039 1.02225
125 1 -1.1104 3.90114 18.912 1.10574
127 2 2.2208 2.3534 17.6566 2.43893
128 1 -1.1104 3.82912 13.5064 3.9184
129 1 -1.1104 3.77456 19.0497 3.83975
130 2 2.2208 2.41302 14.8917 5.31285
131 2 2.2208 2.43217 20.4321 5.12324
132 1 -1.1104 3.74042 16.2581 1.10591
134 1 -1.1104 3.891 16.2178 3.95596
138 1 -1.1104 6.59182 19.0117 0.982341
133 1 -1.1104 3.83318 16.204 6.74559
140 1 -1.1104 6.57899 16.1759 1.07463
111 1 -1.1104 6.60778 13.5211 6.49957
122 1 -1.1104 6.72217 16.2723 3.83533
110 1 -1.1104 6.59862 13.5024 0.970349
118 1 -1.1104 6.7942 16.1639 6.58328
8748 2 2.2208 13.6807 20.4867 10.857
115 1 -1.1104 6.64739 13.4879 3.79306
139 1 -1.1104 6.54827 19.1303 3.79935
141 2 2.2208 10.9391 17.6873 5.22954
142 1 -1.1104 12.3954 13.5572 1.14143
144 1 -1.1104 12.2458 19.0585 1.21185
146 1 -1.1104 12.2731 13.4507 3.90525
147 1 -1.1104 12.3181 19.0765 3.85787
148 1 -1.1104 12.2775 16.3024 0.925164
150 2 2.2208 10.9249 14.9726 2.42942
151 2 2.2208 10.9226 20.5374 2.58719
152 1 -1.1104 12.3574 16.3192 3.85903
153 1 -1.1104 9.51703 13.6774 1.01838
155 1 -1.1104 9.50867 19.0299 1.11471
157 2 2.2208 8.10752 17.6854 2.45144
158 1 -1.1104 9.45733 13.456 3.83609
159 1 -1.1104 9.45078 19.1742 3.8172
160 2 2.2208 8.12359 14.884 5.20258
161 2 2.2208 8.10929 20.3401 5.20971
162 1 -1.1104 9.49701 16.399 1.00844
164 1 -1.1104 9.55839 16.3116 3.9089
163 1 -1.1104 9.56715 16.2347 6.57651
8515 2 2.2208 13.6944 9.3886 5.20116
154 1 -1.1104 9.45339 13.5681 6.6953
143 1 -1.1104 12.2621 13.238 6.71931
149 1 -1.1104 12.2996 16.1775 6.63567
26 2 2.2208 -0.418863 0.968372 5.30338
8084 2 2.2208 10.7518 -4.67484 10.8525
296 1 -1.1104 6.57279 19.1923 12.1139
174 1 -1.1104 3.72495 -0.330788 6.83545
104 1 -1.1104 12.2199 16.1959 12.2383
8869 2 2.2208 13.6843 9.34126 -0.415047
172 1 -1.1104 3.72318 -3.32574 6.63463
167 1 -1.1104 1.07502 2.32864 6.69312
171 1 -1.1104 6.61249 -0.570097 6.66161
170 1 -1.1104 0.983098 -0.495621 6.72688
166 1 -1.1104 1.04196 -3.24049 6.72457
175 2 2.2208 5.18704 1.0173 10.8738
176 1 -1.1104 0.942707 -3.16358 12.2376
177 1 -1.1104 1.01746 2.47719 12.3288
180 1 -1.1104 1.06384 -3.30083 9.53898
181 1 -1.1104 0.983673 2.31587 9.57126
184 1 -1.1104 0.955476 -0.428731 12.2915
186 2 2.2208 5.07653 -1.85656 8.09322
188 1 -1.1104 1.11157 -0.587904 9.58731
190 1 -1.1104 3.85763 -3.31575 12.3077
191 1 -1.1104 3.76341 2.42954 12.4469
192 2 2.2208 2.36058 0.990281 8.19139
193 1 -1.1104 3.80074 -3.25961 9.44911
194 1 -1.1104 3.87045 2.44862 9.5012
195 2 2.2208 2.45778 -1.84755 10.7888
197 1 -1.1104 3.71959 -0.465187 12.2944
198 1 -1.1104 3.87867 -0.323326 9.51301
187 2 2.2208 5.16819 3.70063 8.04791
196 2 2.2208 2.37585 3.71347 10.9376
179 1 -1.1104 6.52605 2.20948 12.2794
182 1 -1.1104 6.51007 -3.25453 9.49618
178 1 -1.1104 6.50594 -3.43349 12.2441
199 2 2.2208 -0.400704 3.766 8.14046
8621 2 2.2208 13.5646 3.71264 10.8608
205 1 -1.1104 12.1541 -3.31068 6.64916
206 1 -1.1104 12.0152 2.34653 6.55605
8646 2 2.2208 13.5794 0.939922 8.01766
168 1 -1.1104 6.77374 -3.35916 6.54253
189 1 -1.1104 6.50048 -0.602524 9.49479
185 1 -1.1104 6.47268 -0.616745 12.1863
183 1 -1.1104 6.61732 2.2543 9.35008
8791 2 2.2208 13.6675 1.13473 13.7514
207 1 -1.1104 12.2468 -0.381418 6.64119
209 1 -1.1104 9.33061 2.60551 6.81776
208 1 -1.1104 9.4944 -3.16464 6.66152
211 2 2.2208 10.8408 0.931098 10.8029
212 1 -1.1104 12.099 -3.12979 12.2826
213 1 -1.1104 12.1913 2.36285 12.3303
214 1 -1.1104 12.2976 -3.14071 9.46525
215 1 -1.1104 12.3198 2.41446 9.39602
216 1 -1.1104 12.1124 -0.436919 12.2722
217 2 2.2208 10.8737 -1.93743 8.09103
218 2 2.2208 10.8193 3.67931 8.20996
219 1 -1.1104 12.2561 -0.469929 9.52742
220 1 -1.1104 9.27686 -3.16279 12.1522
221 1 -1.1104 9.35146 2.39411 12.3026
222 2 2.2208 8.00529 0.807905 8.08807
223 1 -1.1104 9.3899 -3.35504 9.30865
224 1 -1.1104 9.39021 2.28537 9.55279
225 2 2.2208 7.92685 -1.93193 10.7936
226 2 2.2208 7.9507 3.72957 10.8851
227 1 -1.1104 9.34071 -0.42483 12.1988
228 1 -1.1104 9.47872 -0.501908 9.52164
290 1 -1.1104 6.57067 13.5748 9.29684
8697 2 2.2208 13.5058 6.54705 8.05532
234 1 -1.1104 1.09605 7.87921 6.78644
236 1 -1.1104 1.06578 5.16985 6.8263
235 1 -1.1104 6.59609 7.80771 6.56608
238 1 -1.1104 3.80861 8.04861 6.98503
239 1 -1.1104 4.001 5.14747 6.6144
78 1 -1.1104 3.68405 10.7146 6.78995
240 2 2.2208 5.17756 6.46653 10.9183
241 2 2.2208 5.20485 12.1657 10.9286
242 1 -1.1104 1.01452 7.71569 12.3201
244 1 -1.1104 0.930936 7.87164 9.66712
246 1 -1.1104 1.0888 4.92988 12.3366
247 1 -1.1104 1.02841 10.6513 12.3842
250 2 2.2208 5.15289 9.41376 8.20657
251 1 -1.1104 1.02296 5.08211 9.6092
252 1 -1.1104 0.971703 10.695 9.47529
255 1 -1.1104 3.8574 8.02919 12.4543
256 2 2.2208 2.33671 6.58432 8.23787
257 2 2.2208 2.39304 12.0767 8.14113
258 1 -1.1104 3.7148 8.0216 9.74254
259 2 2.2208 2.44185 9.33697 10.9973
260 1 -1.1104 3.82495 5.10481 12.3639
261 1 -1.1104 3.80104 10.8468 12.2731
262 1 -1.1104 3.78341 5.22894 9.52859
263 1 -1.1104 3.71714 10.83 9.51006
248 1 -1.1104 6.59966 5.08217 12.1711
253 1 -1.1104 6.50921 4.93199 9.37585
254 1 -1.1104 6.61348 10.8236 9.6826
243 1 -1.1104 6.45568 7.9098 12.2722
249 1 -1.1104 6.51829 10.7034 12.4969
245 1 -1.1104 6.56618 7.85461 9.4691
165 2 2.2208 10.7876 20.4484 8.08849
8514 2 2.2208 13.7132 -1.70011 10.9268
266 1 -1.1104 12.2916 5.08353 6.7139
101 1 -1.1104 9.4095 10.7813 6.57108
8487 2 2.2208 -0.4298 14.7886 8.1015
145 1 -1.1104 12.3404 18.8971 6.64075
65 1 -1.1104 6.53155 10.6896 6.8458
237 1 -1.1104 6.56867 5.14339 6.6333
264 1 -1.1104 9.29559 10.7709 9.38224
268 1 -1.1104 9.38059 5.0857 9.5377
270 1 -1.1104 9.277 10.685 12.1972
271 1 -1.1104 9.26565 5.0604 12.3332
272 2 2.2208 7.95566 9.33137 10.8438
273 1 -1.1104 9.28756 7.88802 9.35153
274 2 2.2208 8.01631 12.1462 8.061
275 2 2.2208 8.03305 6.42801 8.07003
276 2 2.2208 10.7717 6.53699 10.9783
277 2 2.2208 10.7452 12.0583 10.8491
278 1 -1.1104 12.2349 7.88875 12.3349
279 1 -1.1104 12.2047 7.79085 9.57381
280 1 -1.1104 12.1132 5.1815 12.1954
281 1 -1.1104 12.2734 10.6572 12.3492
282 2 2.2208 10.7801 9.37496 7.91351
283 1 -1.1104 12.1995 5.24953 9.48734
284 1 -1.1104 12.1129 10.5956 9.47987
285 1 -1.1104 9.27436 7.93021 12.157
156 1 -1.1104 9.47078 19.0107 6.55925
204 1 -1.1104 9.41911 18.9398 9.34229
231 1 -1.1104 9.42071 13.5221 9.45622
126 1 -1.1104 4.0121 18.9103 6.71597
302 1 -1.1104 0.997913 18.9905 6.69545
297 1 -1.1104 6.66829 13.4913 12.287
112 1 -1.1104 6.79373 19.0086 6.62181
108 1 -1.1104 0.94353 13.5484 6.75294
117 1 -1.1104 1.0831 16.2604 6.72478
306 1 -1.1104 6.7125 16.368 12.1933
124 1 -1.1104 3.76957 13.4061 6.61179
288 1 -1.1104 6.64906 19.0299 9.31712
289 1 -1.1104 6.5666 16.2917 9.39517
310 2 2.2208 2.46945 14.9333 10.9854
309 2 2.2208 2.41949 20.4346 10.7768
308 1 -1.1104 3.76624 16.4168 12.3856
286 1 -1.1104 3.9287 19.1356 12.1626
287 1 -1.1104 3.79454 13.5668 12.2569
291 1 -1.1104 0.986563 19.0331 9.54092
292 1 -1.1104 0.915657 16.2683 9.57727
293 2 2.2208 5.24968 20.3664 7.83907
294 1 -1.1104 0.982044 13.4717 9.46237
295 2 2.2208 5.18223 14.7852 7.96094
298 1 -1.1104 1.05947 19.1776 12.1859
299 1 -1.1104 0.829502 13.5518 12.2928
300 2 2.2208 5.2108 17.7753 10.7483
301 1 -1.1104 3.69029 18.9739 9.40894
303 2 2.2208 2.28218 17.6996 8.07536
304 1 -1.1104 3.78531 16.3508 9.47133
305 1 -1.1104 3.82123 13.5057 9.52934
307 1 -1.1104 0.912031 16.3549 12.4335
232 2 2.2208 8.05284 17.5334 7.99367
49 1 -1.1104 12.3488 18.9954 12.3649
202 1 -1.1104 9.63199 16.3638 12.3221
203 1 -1.1104 9.36741 16.2618 9.37482
52 2 2.2208 8.13331 20.4641 10.6805
25 2 2.2208 10.8907 17.6148 10.8853
233 1 -1.1104 9.43466 19.0855 12.1649
105 2 2.2208 10.9978 14.9319 8.02326
230 1 -1.1104 9.42279 13.3997 12.2765
50 1 -1.1104 12.1904 13.5547 9.41419
53 1 -1.1104 12.5438 19.1799 9.42348
8584 2 2.2208 13.6937 14.699 5.16168
8488 2 2.2208 -0.358205 17.5987 10.997
8698 2 2.2208 13.6006 12.1279 8.13331
615 2 2.2208 5.36605 6.66993 -0.416939
523 2 2.2208 10.846 14.8583 13.6776
552 2 2.2208 2.40934 3.73184 -0.278847
17398 2 2.2208 13.5887 -4.59025 13.7535
316 2 2.2208 7.99679 0.988879 13.7689
618 2 2.2208 -0.405043 12.0378 -0.314915
461 2 2.2208 7.93016 12.1114 13.6605
580 2 2.2208 10.9405 0.920377 -0.37931
320 2 2.2208 5.29413 9.25802 13.8
8871 2 2.2208 13.7282 -1.8015 -0.294937
314 2 2.2208 2.42652 0.836752 13.7694
319 2 2.2208 2.54374 6.45233 13.7568
8796 2 2.2208 13.5898 6.44802 13.7958
617 2 2.2208 5.38148 12.198 -0.348463
550 2 2.2208 5.20584 0.946343 -0.425327
323 2 2.2208 5.11921 1.02027 16.6379
324 1 -1.1104 0.955841 -3.24169 17.9395
325 1 -1.1104 0.868695 2.3683 17.9753
328 1 -1.1104 1.04911 -3.21556 15.0475
330 1 -1.1104 1.02214 2.16793 15.1094
336 1 -1.1104 1.08441 -0.421467 17.7912
338 2 2.2208 5.07651 -1.64719 19.3192
339 2 2.2208 5.1903 3.79318 19.2931
340 1 -1.1104 0.982065 -0.501177 14.9825
344 1 -1.1104 3.77816 -3.10542 17.8207
345 1 -1.1104 3.66513 2.5296 17.9906
346 2 2.2208 2.38362 1.09425 19.3602
347 1 -1.1104 3.7308 -3.24734 15.0559
349 1 -1.1104 3.82498 2.39195 15.1192
351 2 2.2208 2.30141 -1.84363 16.4039
353 1 -1.1104 3.78125 -0.342745 17.8975
354 1 -1.1104 3.761 -0.403983 15.0557
352 2 2.2208 2.35524 3.6572 16.4418
326 1 -1.1104 6.4724 -3.10568 17.9236
334 1 -1.1104 6.59806 2.52595 15.1939
332 1 -1.1104 6.60108 -3.27204 15.1469
327 1 -1.1104 6.58876 2.32518 18.059
342 1 -1.1104 6.56255 -0.389549 14.9804
337 1 -1.1104 6.52771 -0.383017 18.0003
335 1 -1.1104 6.66416 2.43458 20.8127
8093 2 2.2208 2.40791 -4.7463 13.6395
333 1 -1.1104 6.48174 -3.14956 20.6407
8230 2 2.2208 5.07702 -4.55546 22.1872
366 2 2.2208 10.7392 0.937857 16.5835
367 1 -1.1104 12.3271 -3.34475 17.7688
368 1 -1.1104 12.3627 2.3128 17.9154
369 1 -1.1104 12.2404 -3.25 15.1625
371 1 -1.1104 12.1898 2.31222 15.1891
373 1 -1.1104 12.1394 -0.475902 18.0042
374 2 2.2208 10.7988 -1.74466 19.3663
376 1 -1.1104 12.1152 -0.38929 15.161
378 1 -1.1104 9.46124 -3.03582 17.8967
379 1 -1.1104 9.31736 2.32779 18.0559
380 2 2.2208 7.9954 1.03027 19.4304
381 1 -1.1104 9.43334 -3.26383 15.1342
383 1 -1.1104 9.46199 2.3732 15.1507
385 2 2.2208 7.85931 -1.84364 16.5128
386 2 2.2208 8.13432 3.6894 16.6185
387 1 -1.1104 9.36931 -0.292196 17.969
388 1 -1.1104 9.38542 -0.580089 15.1686
375 2 2.2208 10.8304 3.79126 19.3351
8118 2 2.2208 8.01093 -4.62491 24.8946
17448 2 2.2208 13.7073 -4.67642 24.9338
8227 2 2.2208 2.39676 -4.65096 24.884
9044 2 2.2208 -0.350631 9.29208 25.0859
8872 2 2.2208 13.49 -1.8203 16.4177
8298 2 2.2208 7.98419 -4.59342 19.3093
377 1 -1.1104 12.2464 -0.469656 20.7171
370 1 -1.1104 12.1704 -3.17882 20.6492
382 1 -1.1104 9.41538 -3.12523 20.5834
434 2 2.2208 2.33272 12.0788 13.6713
8833 2 2.2208 13.6089 0.891677 19.298
8158 2 2.2208 10.8039 -4.6272 22.1001
399 2 2.2208 5.28411 6.38867 16.4044
400 2 2.2208 5.37702 12.0847 16.3914
401 1 -1.1104 1.02001 7.89326 17.9341
403 1 -1.1104 1.0457 7.92611 15.1214
407 1 -1.1104 0.988274 5.08031 17.9568
408 1 -1.1104 1.14158 10.7532 17.9808
411 2 2.2208 5.27853 9.38732 19.213
412 1 -1.1104 0.99832 5.02 15.0903
414 1 -1.1104 1.01203 10.6575 15.2752
420 1 -1.1104 3.84153 7.97205 17.8152
421 2 2.2208 2.479 6.63788 19.2869
422 2 2.2208 2.47724 12.0899 19.2277
423 1 -1.1104 3.84307 7.77318 15.1129
425 2 2.2208 2.49415 9.25646 16.3754
426 1 -1.1104 3.782 5.26574 17.931
427 1 -1.1104 3.89949 10.7655 17.8421
428 1 -1.1104 3.86316 4.9694 15.1403
430 1 -1.1104 3.7992 10.6875 14.9989
416 1 -1.1104 6.82435 5.08127 14.9372
429 1 -1.1104 3.73032 5.17854 20.5819
402 1 -1.1104 6.6136 7.98709 17.7968
409 1 -1.1104 6.54525 5.14528 17.9254
410 1 -1.1104 6.80514 10.5722 17.8431
356 2 2.2208 -0.607479 6.72614 22.1047
9093 2 2.2208 13.6842 9.33215 22.0853
8873 2 2.2208 13.7218 20.5067 21.9936
418 1 -1.1104 6.67015 10.5549 15.1166
405 1 -1.1104 6.64351 7.78989 14.9625
435 2 2.2208 10.8308 6.47859 16.4215
436 2 2.2208 10.8702 12.1042 16.46
437 1 -1.1104 12.2068 7.90248 17.8141
438 1 -1.1104 12.0532 7.99835 15.066
440 1 -1.1104 12.3461 5.08089 17.8804
441 1 -1.1104 12.2211 10.825 17.7827
442 2 2.2208 10.8501 9.4606 19.2262
443 1 -1.1104 12.2144 5.21702 14.9475
445 1 -1.1104 12.2721 10.7146 15.0596
447 1 -1.1104 9.45148 7.84555 17.8436
448 2 2.2208 7.99754 6.65665 19.3175
449 2 2.2208 8.16775 12.15 19.2121
450 1 -1.1104 9.43318 7.89796 14.9778
452 2 2.2208 8.09573 9.11124 16.3824
453 1 -1.1104 9.47123 5.06754 17.9025
454 1 -1.1104 9.48512 10.6807 17.7402
455 1 -1.1104 9.48028 5.08622 15.1438
457 1 -1.1104 9.51979 10.7808 14.9393
496 2 2.2208 5.34016 20.4877 13.588
456 1 -1.1104 9.29202 5.19391 20.5643
451 1 -1.1104 9.43262 8.07089 20.6433
522 2 2.2208 10.852 20.4258 13.6511
315 2 2.2208 5.13265 3.71521 13.6349
8827 2 2.2208 13.6241 3.73977 16.5643
313 2 2.2208 5.08591 -1.89408 13.5788
8971 2 2.2208 13.7387 14.8248 16.4457
9014 2 2.2208 -0.330187 17.5869 16.6786
462 2 2.2208 5.17484 17.7382 16.4319
463 1 -1.1104 0.940438 13.5085 17.9062
464 1 -1.1104 0.907606 19.1634 17.8453
467 1 -1.1104 1.1603 13.469 15.0527
469 1 -1.1104 1.11875 18.9867 15.041
475 1 -1.1104 1.10648 16.2124 17.9563
477 2 2.2208 5.32433 14.9573 19.2502
478 2 2.2208 5.20846 20.4181 19.2705
479 1 -1.1104 1.01939 16.1862 15.0782
483 1 -1.1104 3.95013 13.4795 17.8439
484 1 -1.1104 3.58803 19.122 17.9311
485 2 2.2208 2.35842 17.6495 19.2421
486 1 -1.1104 3.91045 13.4727 14.9995
488 1 -1.1104 3.91356 19.2119 15.0623
490 2 2.2208 2.5187 14.8738 16.4446
491 2 2.2208 2.42908 20.53 16.424
492 1 -1.1104 3.91206 16.4057 17.6952
493 1 -1.1104 3.84823 16.373 15.0731
473 1 -1.1104 6.78572 18.9428 14.8454
465 1 -1.1104 6.78644 13.5251 17.8621
489 1 -1.1104 3.80556 19.1231 20.7526
481 1 -1.1104 6.65171 16.2283 15.05
474 1 -1.1104 6.59351 18.9773 20.4894
494 1 -1.1104 3.73193 16.3704 20.6852
480 1 -1.1104 0.995206 16.2149 20.7042
497 2 2.2208 5.19847 14.9513 13.6362
587 2 2.2208 10.8887 20.3759 24.8068
582 2 2.2208 8.05824 3.70759 27.8312
643 1 -1.1104 9.26325 19.042 26.2125
466 1 -1.1104 6.56699 19.0156 17.6434
476 1 -1.1104 6.70866 16.3638 17.9132
471 1 -1.1104 6.62744 13.4824 15.0357
498 2 2.2208 10.9489 17.5839 16.3896
499 1 -1.1104 12.4118 13.4748 17.7785
500 1 -1.1104 12.1238 19.1233 17.8303
501 1 -1.1104 12.2363 13.5012 15.0827
503 1 -1.1104 12.1817 18.9136 14.9079
505 1 -1.1104 12.4045 16.2062 17.8129
506 2 2.2208 10.8187 14.9826 19.4159
507 2 2.2208 10.8488 20.5147 19.2028
508 1 -1.1104 12.2348 16.245 15.1036
510 1 -1.1104 9.59168 13.5594 17.932
511 1 -1.1104 9.45777 19.268 17.846
512 2 2.2208 8.13639 17.8918 19.2995
513 1 -1.1104 9.38498 13.5643 15.0888
515 1 -1.1104 9.49145 19.1693 14.9552
517 2 2.2208 8.13366 15.0613 16.4682
518 2 2.2208 8.09134 20.494 16.4047
519 1 -1.1104 9.52939 16.566 17.943
520 1 -1.1104 9.42692 16.2659 15.0303
514 1 -1.1104 9.27089 13.4594 20.7335
583 2 2.2208 10.8782 14.9213 24.8585
502 1 -1.1104 12.2319 13.6386 20.7473
524 2 2.2208 8.20787 17.7148 13.5371
644 2 2.2208 7.98226 14.9296 22.0247
516 1 -1.1104 9.54513 19.1199 20.6385
554 1 -1.1104 12.2791 19.0074 23.5218
521 1 -1.1104 9.30563 16.3674 20.591
343 1 -1.1104 6.71727 -0.352852 20.7873
348 1 -1.1104 3.69254 -3.0437 20.7755
355 1 -1.1104 3.78603 -0.287083 20.6177
350 1 -1.1104 3.72616 2.44116 20.7904
331 1 -1.1104 1.00248 2.38319 20.8259
341 1 -1.1104 0.872414 -0.33699 20.5252
329 1 -1.1104 1.02671 -3.10618 20.6641
526 2 2.2208 5.21108 1.06672 22.1204
527 1 -1.1104 1.07242 -3.15945 23.4008
528 1 -1.1104 1.01648 2.47247 23.5348
531 1 -1.1104 0.843707 -3.27311 26.214
532 1 -1.1104 1.03257 2.55691 26.2674
535 1 -1.1104 1.01402 -0.329726 23.4634
537 2 2.2208 5.13747 -1.74482 25.0007
539 1 -1.1104 1.15048 -0.474603 26.2349
541 1 -1.1104 3.82933 -3.1306 23.539
542 1 -1.1104 3.81808 2.4132 23.4811
543 2 2.2208 2.41995 1.03998 24.8364
544 1 -1.1104 3.60972 -3.23929 26.4413
545 1 -1.1104 3.78051 2.30381 26.2681
546 2 2.2208 2.35929 -1.74434 22.1589
547 2 2.2208 2.39979 3.86818 22.2244
548 1 -1.1104 3.76067 -0.417303 23.4929
549 1 -1.1104 3.76339 -0.394179 26.289
538 2 2.2208 5.33226 3.8466 24.9468
529 1 -1.1104 6.65683 -3.24271 23.3616
540 1 -1.1104 6.66875 -0.403613 26.2638
645 2 2.2208 8.17672 20.3938 22.1471
530 1 -1.1104 6.71284 2.37064 23.6778
534 1 -1.1104 6.56745 2.40479 26.4164
392 1 -1.1104 9.4601 16.2599 23.4627
9034 2 2.2208 13.7504 3.69265 22.0699
384 1 -1.1104 9.60044 2.41134 20.8039
372 1 -1.1104 12.2737 2.37648 20.6582
509 1 -1.1104 12.1166 16.3313 20.6538
9049 2 2.2208 13.77 0.978169 24.8971
536 1 -1.1104 6.64413 -0.450455 23.5309
533 1 -1.1104 6.53619 -3.20337 26.3099
389 1 -1.1104 9.3818 -0.373543 20.9671
562 2 2.2208 10.9475 0.914174 22.1123
563 1 -1.1104 12.2283 -3.32137 23.572
564 1 -1.1104 12.4042 2.24902 23.4501
565 1 -1.1104 12.3261 -3.1889 26.2558
566 1 -1.1104 12.3 2.21782 26.2728
567 1 -1.1104 12.1547 -0.540296 23.5435
568 2 2.2208 10.8201 -1.92101 24.8819
570 1 -1.1104 12.4006 -0.540566 26.2931
571 1 -1.1104 9.39476 -3.35494 23.5992
572 1 -1.1104 9.56808 2.43493 23.426
573 2 2.2208 8.19646 0.971707 24.9003
574 1 -1.1104 9.42576 -3.3575 26.3561
575 1 -1.1104 9.46844 2.34141 26.1916
576 2 2.2208 7.98566 -1.8096 22.1417
578 1 -1.1104 9.46643 -0.456898 23.6017
579 1 -1.1104 9.50898 -0.737446 26.3329
569 2 2.2208 10.9231 3.7726 24.8882
577 2 2.2208 8.00228 3.77396 22.1132
8945 2 2.2208 13.6472 -1.79705 22.163
559 1 -1.1104 12.1344 19.0328 26.4433
561 1 -1.1104 12.2673 16.3691 23.4686
558 1 -1.1104 12.2274 13.3033 26.2419
424 1 -1.1104 3.85164 8.03835 20.7401
417 1 -1.1104 6.62774 5.27302 20.7582
404 1 -1.1104 1.0018 7.87235 20.6968
413 1 -1.1104 0.830189 5.35966 20.7485
406 1 -1.1104 6.63384 8.00392 20.7274
588 1 -1.1104 12.264 16.1234 26.2151
431 1 -1.1104 3.89929 10.6299 20.533
415 1 -1.1104 1.02015 10.6972 20.8252
591 2 2.2208 5.16835 6.6421 21.9454
592 2 2.2208 5.24038 12.069 21.9669
593 1 -1.1104 0.835307 8.03775 23.5769
595 1 -1.1104 1.24013 8.05597 26.3521
597 1 -1.1104 1.09229 5.34182 23.6172
598 1 -1.1104 1.08082 10.6915 23.6856
601 2 2.2208 5.3221 9.29604 24.8795
602 1 -1.1104 1.2381 5.44647 26.5878
603 1 -1.1104 1.0288 10.7188 26.3947
606 1 -1.1104 3.66142 7.9716 23.4455
607 2 2.2208 2.53561 6.74678 24.9794
608 2 2.2208 2.48536 12.0052 24.9678
609 1 -1.1104 3.95517 8.09712 26.1499
610 2 2.2208 2.40835 9.27126 22.0994
611 1 -1.1104 3.9346 5.16925 23.5393
612 1 -1.1104 3.89116 10.5572 23.5971
613 1 -1.1104 3.99018 5.20344 26.3041
614 1 -1.1104 3.82825 10.8517 26.3696
596 1 -1.1104 6.74 7.99453 26.281
605 1 -1.1104 6.64722 10.768 26.2336
594 1 -1.1104 6.60646 7.84697 23.5003
604 1 -1.1104 6.68124 5.23631 26.4203
599 1 -1.1104 6.62207 5.06463 23.4642
391 1 -1.1104 9.39639 16.2916 26.3576
8901 2 2.2208 13.6993 9.35155 16.4589
419 1 -1.1104 6.82347 10.7297 20.4919
504 1 -1.1104 12.2879 19.1161 20.6966
444 1 -1.1104 12.3333 5.19709 20.6874
446 1 -1.1104 12.243 10.8693 20.6173
600 1 -1.1104 6.60695 10.5059 23.2104
458 1 -1.1104 9.49357 10.7504 20.6338
439 1 -1.1104 12.3166 7.97509 20.7276
622 1 -1.1104 9.51973 10.7327 26.2586
623 1 -1.1104 9.46667 5.13767 26.4472
624 1 -1.1104 9.32006 10.8272 23.4694
625 1 -1.1104 9.46455 5.24597 23.689
626 2 2.2208 8.12113 9.39073 22.0791
627 1 -1.1104 9.421 7.95438 26.2948
628 2 2.2208 7.98938 12.1093 24.806
629 2 2.2208 8.04614 6.55402 24.9728
630 2 2.2208 10.7311 6.40011 22.166
631 2 2.2208 10.7873 12.1883 22.1241
632 1 -1.1104 12.1735 7.85749 23.4962
633 1 -1.1104 12.1776 7.86068 26.324
634 1 -1.1104 12.1893 5.06067 23.4454
635 1 -1.1104 12.2792 10.6116 23.429
636 2 2.2208 10.8627 9.27906 24.9175
637 1 -1.1104 12.3233 5.03605 26.4045
638 1 -1.1104 12.2359 10.635 26.0888
639 1 -1.1104 9.35258 8.00225 23.4625
8868 2 2.2208 13.7049 6.67519 24.8966
589 1 -1.1104 9.46305 13.5183 23.484
590 1 -1.1104 9.4331 18.9863 23.4724
619 2 2.2208 8.0521 17.574 24.8346
472 1 -1.1104 6.55874 13.5261 20.487
358 1 -1.1104 6.62921 16.2371 23.4764
553 1 -1.1104 12.1725 13.592 23.5264
460 1 -1.1104 6.61021 18.9871 23.4831
487 1 -1.1104 3.83665 13.6696 20.6188
620 1 -1.1104 6.40903 18.9866 26.2745
432 1 -1.1104 6.54541 13.3899 23.4246
470 1 -1.1104 1.08283 19.0351 20.6102
468 1 -1.1104 1.13229 13.4139 20.8219
398 1 -1.1104 1.02109 19.1371 23.4601
397 1 -1.1104 1.14377 13.5713 23.6744
396 2 2.2208 5.10961 17.7421 22.1062
651 1 -1.1104 1.12318 16.3367 26.2479
650 1 -1.1104 1.00196 19.0615 26.1737
648 1 -1.1104 3.90561 13.3041 23.4297
646 1 -1.1104 3.7473 19.0988 23.5798
586 1 -1.1104 0.979795 16.2952 23.5951
585 1 -1.1104 3.92936 16.2473 23.5041
652 1 -1.1104 1.04656 13.4441 26.4602
584 2 2.2208 2.33446 20.4885 21.9523
557 2 2.2208 2.44211 14.9284 22.0654
459 2 2.2208 5.15701 20.3511 24.8791
433 2 2.2208 5.24693 14.9774 24.8681
361 1 -1.1104 3.84803 13.4623 26.2393
363 1 -1.1104 3.68486 16.2646 26.3398
364 2 2.2208 2.40813 17.6676 24.8856
365 1 -1.1104 3.7748 18.9659 26.3551
649 1 -1.1104 6.61736 16.1494 26.3274
482 1 -1.1104 6.56996 16.3369 20.675
647 1 -1.1104 6.67523 13.4379 26.2726
395 2 2.2208 8.00425 20.5144 27.6957
621 1 -1.1104 9.55154 13.4545 26.2483
525 2 2.2208 10.8534 17.7461 21.9842
9015 2 2.2208 -0.357225 14.9207 13.7588
551 2 2.2208 2.29707 -1.77719 27.709
322 2 2.2208 10.8792 9.35983 13.6331
556 2 2.2208 2.42979 20.4297 27.6903
640 2 2.2208 10.7983 6.59155 27.7565
495 2 2.2208 2.4379 17.721 13.7086
390 2 2.2208 8.11601 14.8575 27.8
642 2 2.2208 10.9597 12.0278 27.6155
616 2 2.2208 2.51305 9.40959 27.7717
641 2 2.2208 8.09529 9.3355 27.7325
317 2 2.2208 10.8423 -1.84373 13.6244
321 2 2.2208 8.01451 6.55643 13.6713
581 2 2.2208 8.12752 -1.77273 27.8185
394 2 2.2208 10.9464 17.6389 27.7952
318 2 2.2208 10.8217 3.75537 13.7288
653 2 2.2208 5.25884 23.3846 5.16391
654 2 2.2208 5.13567 28.7261 5.19644
655 1 -1.1104 1.14574 24.5793 0.927917
656 1 -1.1104 1.14751 24.455 3.75568
657 1 -1.1104 1.00434 21.8218 1.07876
658 1 -1.1104 1.05832 27.38 0.985817
659 2 2.2208 5.29865 26.1204 2.34758
660 1 -1.1104 1.06127 21.6491 3.77627
661 1 -1.1104 0.906439 27.3658 3.78074
662 1 -1.1104 3.88878 24.6822 0.974055
663 2 2.2208 2.42811 23.1769 2.38836
664 2 2.2208 2.42768 28.7417 2.25582
665 1 -1.1104 3.75674 24.6632 3.97931
666 2 2.2208 2.44335 25.9966 5.21262
667 1 -1.1104 3.83789 21.8709 1.04738
668 1 -1.1104 3.99621 27.403 0.81704
669 1 -1.1104 3.98132 21.88 3.78429
670 1 -1.1104 3.81351 27.4046 3.64859
679 1 -1.1104 6.68744 27.4976 3.8431
674 1 -1.1104 6.71588 24.696 0.874581
801 1 -1.1104 3.63916 21.6415 6.54418
675 1 -1.1104 6.50096 24.7019 3.63429
799 1 -1.1104 6.59589 27.3777 6.53755
1529 1 -1.1104 0.766321 46.8343 6.84432
1327 2 2.2208 -0.545603 26.0325 13.8103
724 2 2.2208 -0.44058 34.3014 5.12873
1568 1 -1.1104 12.3224 46.9411 12.3808
746 1 -1.1104 12.3238 41.4267 12.4091
884 2 2.2208 -0.453344 37.0243 8.08106
1570 1 -1.1104 12.3553 46.9623 9.3788
677 1 -1.1104 6.68096 27.5019 1.12484
676 1 -1.1104 6.75975 21.8985 0.944918
678 1 -1.1104 6.62673 21.8196 3.69382
680 2 2.2208 10.7402 23.3155 5.26357
681 2 2.2208 10.8537 28.82 5.24828
682 1 -1.1104 12.2811 24.6852 1.07978
683 1 -1.1104 12.1183 24.7151 3.78191
684 1 -1.1104 12.2848 21.8444 1.23454
685 1 -1.1104 12.3105 27.4618 1.06898
686 2 2.2208 10.7593 25.9978 2.42074
687 1 -1.1104 12.2807 21.8754 3.99096
688 1 -1.1104 12.3267 27.5197 3.75631
689 1 -1.1104 9.56182 24.6009 1.01473
690 2 2.2208 8.02016 23.3195 2.4654
691 2 2.2208 8.16797 28.8492 2.32137
692 1 -1.1104 9.3646 24.646 3.8679
693 2 2.2208 7.97783 26.1255 5.1991
694 1 -1.1104 9.5182 21.7421 0.925577
695 1 -1.1104 9.47705 27.2894 0.99682
696 1 -1.1104 9.48479 21.9138 3.9363
697 1 -1.1104 9.44787 27.3406 3.7942
952 2 2.2208 8.14013 39.9847 8.08217
671 2 2.2208 -0.457844 28.7599 5.25927
950 1 -1.1104 9.46591 41.5309 9.55511
828 1 -1.1104 12.0766 21.9324 6.82778
944 2 2.2208 -0.420889 39.9374 10.9162
956 2 2.2208 10.8639 42.85 8.20991
971 2 2.2208 -0.451567 31.5586 8.08588
705 1 -1.1104 0.977283 30.0992 3.76682
713 1 -1.1104 3.84776 30.1716 1.00324
716 1 -1.1104 3.6411 30.2321 3.69689
702 1 -1.1104 1.00657 30.1507 0.974198
701 2 2.2208 5.05576 34.393 5.29012
703 1 -1.1104 1.02378 35.7556 0.931827
706 1 -1.1104 1.02692 35.7022 3.7373
708 1 -1.1104 0.991245 32.9824 0.952798
709 2 2.2208 5.35577 31.6578 2.34669
710 2 2.2208 5.21789 37.1313 2.50525
711 1 -1.1104 1.00407 32.984 3.69161
714 1 -1.1104 3.88079 35.7945 1.08447
715 2 2.2208 2.37614 34.35 2.40832
717 1 -1.1104 3.77658 35.7366 3.89415
718 2 2.2208 2.39619 31.5468 5.18636
719 2 2.2208 2.29443 37.1286 5.1525
720 1 -1.1104 3.72519 32.8809 1.16026
721 1 -1.1104 3.88598 32.9115 3.91951
725 1 -1.1104 6.60741 30.1808 0.906206
859 1 -1.1104 3.67325 32.8711 6.67699
726 1 -1.1104 6.59685 30.3158 3.68875
769 1 -1.1104 3.79129 38.6572 3.87483
855 1 -1.1104 0.827198 32.8984 6.57646
723 2 2.2208 -0.442405 31.4794 2.39207
9473 2 2.2208 13.6429 34.2977 2.43534
943 2 2.2208 -0.355461 45.6258 10.948
707 1 -1.1104 6.60157 35.5806 3.80189
712 1 -1.1104 6.65649 33.0026 3.63412
704 1 -1.1104 6.70133 35.7763 1.03261
727 1 -1.1104 6.59722 33.0033 0.91856
729 1 -1.1104 12.3925 30.3282 1.04667
731 1 -1.1104 12.2337 30.2677 3.87884
740 1 -1.1104 9.46389 30.0569 3.75801
728 2 2.2208 10.8994 34.4333 5.19891
730 1 -1.1104 12.3325 35.8814 1.09109
732 1 -1.1104 12.186 35.6096 3.79111
733 1 -1.1104 12.3502 33.1223 1.02448
734 2 2.2208 10.8835 31.6137 2.34374
735 2 2.2208 10.7345 37.1322 2.45165
736 1 -1.1104 12.3557 33.0618 3.89336
737 1 -1.1104 9.55835 30.1391 1.01215
738 1 -1.1104 9.33319 35.7865 1.04276
739 2 2.2208 8.00065 34.2844 2.479
741 1 -1.1104 9.48739 35.5945 3.78489
742 2 2.2208 8.01584 31.5354 5.14728
743 2 2.2208 7.99276 37.0433 5.26567
744 1 -1.1104 9.56523 32.8912 1.05767
745 1 -1.1104 9.4209 32.8277 3.75839