ITEM: TIMESTEP
100000
ITEM: NUMBER OF ATOMS
17760
ITEM: BOX BOUNDS pp pp pp
-3.7212242579992855e-01 2.7712122425798817e+01
-4.5234367930070301e+00 3.3260343679299626e+02
-3.6679989956609294e-01 2.7706799899566448e+01
ITEM: ATOMS id type q x y z
1 2 2.2208 5.20226 1.10225 5.23171
2 1 -1.1104 1.09245 -3.11941 0.946153
3 1 -1.1104 0.837795 2.47395 0.967807
6 1 -1.1104 1.005 -3.27605 3.60372
7 1 -1.1104 1.06812 2.55121 3.84424
10 1 -1.1104 0.806674 -0.284531 1.04307
12 2 2.2208 5.22102 -1.72366 2.4238
13 2 2.2208 5.12181 3.76039 2.40597
14 1 -1.1104 0.953649 -0.415431 3.83722
16 1 -1.1104 3.81808 -3.29312 1.08732
17 1 -1.1104 3.51605 2.44925 1.0749
18 2 2.2208 2.38517 1.01585 2.37886
19 1 -1.1104 3.84417 -3.16156 3.83637
20 1 -1.1104 3.78079 2.35563 3.87869
21 2 2.2208 2.46185 -1.76781 5.15738
22 2 2.2208 2.27203 3.96505 5.17404
23 1 -1.1104 3.71876 -0.344138 0.999813
24 1 -1.1104 3.83359 -0.422252 3.70802
167 1 -1.1104 0.897329 2.5271 6.52224
172 1 -1.1104 3.93367 -3.1432 6.69869
11 1 -1.1104 6.57409 -0.252878 0.986408
8084 2 2.2208 10.9308 -4.57924 10.9427
15 1 -1.1104 6.70107 -0.296449 3.96453
8078 2 2.2208 8.10269 -4.3554 2.48903
8698 2 2.2208 13.5896 12.3876 8.1138
174 1 -1.1104 3.8222 -0.372513 6.6151
8646 2 2.2208 13.6131 1.17176 8.03533
4 1 -1.1104 6.58402 -3.09053 1.06659
5 1 -1.1104 6.26419 2.43757 1.04616
169 1 -1.1104 6.6092 2.60635 6.64449
9 1 -1.1104 6.47915 2.47546 3.85588
8 1 -1.1104 6.80396 -2.9236 3.87892
31 2 2.2208 10.7364 1.14288 5.21354
32 1 -1.1104 12.1699 -3.11812 1.12228
33 1 -1.1104 12.1439 2.41846 0.917913
34 1 -1.1104 12.2768 -3.08509 3.89011
35 1 -1.1104 12.111 2.46667 3.835
36 1 -1.1104 12.2372 -0.333322 1.08101
37 2 2.2208 10.8168 -1.67282 2.53358
39 1 -1.1104 12.3036 -0.295823 3.94807
40 1 -1.1104 9.42413 -3.08851 1.13784
41 1 -1.1104 9.27431 2.4509 1.21044
42 2 2.2208 7.93393 1.05835 2.49612
43 1 -1.1104 9.54699 -3.02902 3.99124
44 1 -1.1104 9.33394 2.47193 3.80369
45 2 2.2208 8.00798 -1.64819 5.33629
47 1 -1.1104 9.4341 -0.279719 0.96422
48 1 -1.1104 9.53474 -0.219192 3.69276
46 2 2.2208 7.89369 3.82422 5.19283
38 2 2.2208 10.6512 3.86044 2.33321
168 1 -1.1104 6.67307 -3.07924 6.74404
209 1 -1.1104 9.3623 2.59163 6.62011
208 1 -1.1104 9.48247 -3.1688 6.81964
207 1 -1.1104 12.1573 -0.0883567 6.76049
205 1 -1.1104 12.3073 -2.94068 6.52727
210 1 -1.1104 9.43778 -0.319326 6.55603
8787 2 2.2208 13.7354 1.16797 2.41219
232 2 2.2208 7.95612 18.0581 8.16817
8076 2 2.2208 2.42222 -4.54447 2.4505
54 2 2.2208 5.11437 6.56948 5.17306
55 2 2.2208 5.15041 12.1884 5.2319
56 1 -1.1104 0.992708 7.9927 0.955946
58 1 -1.1104 1.02912 8.10225 3.864
60 1 -1.1104 1.04454 5.30439 0.882994
61 1 -1.1104 0.986377 10.8903 0.966768
66 2 2.2208 5.09726 9.58652 2.48117
67 1 -1.1104 0.878062 5.25112 3.86938
68 1 -1.1104 0.93115 10.7895 3.66391
71 1 -1.1104 3.64591 8.32518 1.08691
72 2 2.2208 2.43581 6.63187 2.39004
73 2 2.2208 2.33654 12.1739 2.4785
74 1 -1.1104 3.93209 7.96702 3.72921
75 2 2.2208 2.30719 9.41615 5.24431
76 1 -1.1104 3.81923 5.40719 0.825914
77 1 -1.1104 3.69453 11.118 0.975641
79 1 -1.1104 3.59561 5.3054 3.66212
80 1 -1.1104 3.69109 10.9073 3.93461
236 1 -1.1104 0.895507 5.43296 6.65698
238 1 -1.1104 3.56592 7.97223 6.61138
57 1 -1.1104 6.41469 8.11748 0.907993
64 1 -1.1104 6.57619 10.8295 1.03846
59 1 -1.1104 6.50316 8.08258 3.70604
69 1 -1.1104 6.4351 5.32643 3.67817
237 1 -1.1104 6.38296 5.33318 6.60243
9046 2 2.2208 13.4948 3.81294 -0.301302
8079 2 2.2208 10.8871 -4.46946 5.33879
8681 2 2.2208 13.5103 6.65477 2.51516
63 1 -1.1104 6.44438 5.25351 0.992118
70 1 -1.1104 6.59152 10.8465 3.78032
84 2 2.2208 10.5908 6.68183 5.2151
85 2 2.2208 10.6732 12.2904 5.2324
86 1 -1.1104 12.2165 8.21153 1.01136
87 1 -1.1104 12.0665 8.11727 3.89434
88 1 -1.1104 12.0647 5.40483 1.05247
89 1 -1.1104 12.0637 11.0227 1.04082
91 2 2.2208 10.7386 9.49934 2.4963
92 1 -1.1104 12.022 5.18866 3.81239
93 1 -1.1104 12.2309 10.9799 3.76523
94 1 -1.1104 9.29243 8.1173 1.04227
95 2 2.2208 7.86369 6.69059 2.37989
96 2 2.2208 7.93997 12.2949 2.34704
97 1 -1.1104 9.24507 8.05811 3.7521
98 2 2.2208 7.99908 9.418 5.177
99 1 -1.1104 9.2703 5.33611 1.15879
100 1 -1.1104 9.31419 10.9115 1.13883
102 1 -1.1104 9.1898 5.06503 3.76921
103 1 -1.1104 9.4315 10.8966 3.83187
8786 2 2.2208 13.743 -1.65008 5.20412
9016 2 2.2208 -0.238196 20.7384 13.5435
25 2 2.2208 10.9179 17.9162 10.8754
204 1 -1.1104 9.3385 19.3457 9.36641
53 1 -1.1104 12.3528 19.2687 9.46788
8702 2 2.2208 13.6855 9.51341 10.8257
582 2 2.2208 7.9089 3.95934 -0.4433
106 2 2.2208 5.31042 17.9414 5.2388
107 1 -1.1104 0.937662 13.724 1.01045
109 1 -1.1104 0.816633 19.2154 0.887917
113 1 -1.1104 1.02285 13.6405 3.77502
114 1 -1.1104 0.891683 19.1662 3.82289
116 1 -1.1104 0.896995 16.3986 1.03208
119 2 2.2208 5.15894 14.9919 2.33284
120 2 2.2208 5.16972 20.7138 2.43279
121 1 -1.1104 0.860352 16.3275 3.7034
123 1 -1.1104 3.72844 13.7343 0.984445
125 1 -1.1104 3.68692 19.1915 1.05477
127 2 2.2208 2.3573 17.8191 2.38329
128 1 -1.1104 3.84791 13.6418 3.81797
129 1 -1.1104 3.65046 19.2031 3.83439
130 2 2.2208 2.4175 15.1037 5.15005
131 2 2.2208 2.30699 20.7553 5.12788
132 1 -1.1104 3.79 16.498 1.07305
134 1 -1.1104 3.80168 16.5829 3.84373
139 1 -1.1104 6.44388 19.3531 3.84655
138 1 -1.1104 6.39042 19.4127 0.97257
140 1 -1.1104 6.54769 16.4751 1.04271
302 1 -1.1104 0.950297 19.2264 6.6175
122 1 -1.1104 6.69444 16.5639 3.90957
110 1 -1.1104 6.51228 13.745 1.01177
8077 2 2.2208 5.29625 -4.48669 5.36433
497 2 2.2208 5.20704 15.251 13.6064
8900 2 2.2208 13.5622 15.16 -0.33927
115 1 -1.1104 6.55895 13.6731 3.8954
141 2 2.2208 10.8674 17.919 5.24879
142 1 -1.1104 12.1989 13.8194 1.04543
144 1 -1.1104 12.2123 19.3409 1.3015
146 1 -1.1104 12.0414 13.6731 3.81396
147 1 -1.1104 12.3051 19.3726 3.96039
148 1 -1.1104 12.2032 16.6543 1.05175
150 2 2.2208 10.804 15.1372 2.52185
151 2 2.2208 10.7827 20.7359 2.4037
152 1 -1.1104 12.2995 16.5729 3.93823
153 1 -1.1104 9.22065 13.7464 0.936845
155 1 -1.1104 9.21998 19.2656 0.943702
157 2 2.2208 8.08768 17.9057 2.39487
158 1 -1.1104 9.40662 13.734 3.75142
159 1 -1.1104 9.38577 19.3727 3.7228
160 2 2.2208 8.0416 15.2207 5.39609
161 2 2.2208 7.9474 20.7952 5.25552
162 1 -1.1104 9.47849 16.5664 0.989129
164 1 -1.1104 9.49307 16.541 3.98772
143 1 -1.1104 12.1912 13.6148 6.85275
163 1 -1.1104 9.29965 16.5071 6.83468
154 1 -1.1104 9.37107 13.7819 6.62786
8488 2 2.2208 -0.307943 17.8242 10.8066
8697 2 2.2208 13.5349 6.74158 8.07338
394 2 2.2208 10.8292 17.9848 -0.359079
104 1 -1.1104 12.1645 16.5952 12.2995
166 1 -1.1104 1.1909 -3.07364 6.56696
170 1 -1.1104 1.07575 -0.440415 6.60467
173 1 -1.1104 3.64208 2.49901 6.61615
175 2 2.2208 5.23719 1.04066 10.8432
176 1 -1.1104 0.870268 -3.10957 12.1591
177 1 -1.1104 1.05239 2.51179 12.2211
180 1 -1.1104 0.842702 -3.01611 9.39593
181 1 -1.1104 1.02744 2.60263 9.39351
184 1 -1.1104 1.00712 -0.332895 12.1698
186 2 2.2208 5.21469 -1.62177 8.02579
188 1 -1.1104 0.874431 -0.164481 9.45094
190 1 -1.1104 3.65899 -3.21326 12.2684
191 1 -1.1104 3.89447 2.39006 12.1914
192 2 2.2208 2.32807 1.08082 7.94931
193 1 -1.1104 3.783 -3.10816 9.38284
194 1 -1.1104 3.77644 2.46966 9.38895
195 2 2.2208 2.35332 -1.76 10.8576
197 1 -1.1104 3.81528 -0.326733 12.0851
198 1 -1.1104 3.71681 -0.363883 9.29474
187 2 2.2208 5.14388 3.77714 8.03653
196 2 2.2208 2.53767 3.93515 10.8007
580 2 2.2208 10.7676 1.08046 -0.277048
179 1 -1.1104 6.44939 2.35683 12.3213
189 1 -1.1104 6.64336 -0.283616 9.44388
178 1 -1.1104 6.52896 -3.14848 12.1891
185 1 -1.1104 6.69928 -0.305409 12.2494
182 1 -1.1104 6.7059 -3.04388 9.4351
288 1 -1.1104 6.51928 19.457 9.47625
8682 2 2.2208 13.6653 12.2581 2.38382
171 1 -1.1104 6.68157 -0.259196 6.65407
206 1 -1.1104 12.1925 2.70162 6.66511
8515 2 2.2208 13.5233 9.59687 5.36726
8647 2 2.2208 13.5899 17.9405 2.52013
165 2 2.2208 10.8252 20.6656 8.04261
231 1 -1.1104 9.3895 13.693 9.49464
183 1 -1.1104 6.49364 2.67439 9.60672
211 2 2.2208 10.8247 1.11366 10.8799
212 1 -1.1104 12.246 -3.18038 12.3197
213 1 -1.1104 12.2282 2.421 12.2652
214 1 -1.1104 12.2106 -3.26011 9.45183
215 1 -1.1104 12.02 2.52049 9.47802
216 1 -1.1104 12.246 -0.33334 12.215
217 2 2.2208 10.9027 -1.67592 8.00435
218 2 2.2208 10.6781 3.90385 8.00364
219 1 -1.1104 12.2965 -0.397257 9.52874
220 1 -1.1104 9.32784 -3.06498 12.1679
221 1 -1.1104 9.39895 2.62757 12.216
222 2 2.2208 8.10462 1.15936 8.07209
223 1 -1.1104 9.55354 -2.98725 9.56512
224 1 -1.1104 9.36588 2.52673 9.41306
225 2 2.2208 8.0376 -1.70853 10.8844
226 2 2.2208 8.03326 4.02466 10.7629
227 1 -1.1104 9.40279 -0.311305 12.222
228 1 -1.1104 9.36585 -0.313308 9.3953
203 1 -1.1104 9.52415 16.5387 9.52381
296 1 -1.1104 6.67782 19.3255 12.2609
8514 2 2.2208 13.7462 -1.53082 10.9488
230 1 -1.1104 9.51611 13.668 12.2359
78 1 -1.1104 3.80873 11.0043 6.67748
62 1 -1.1104 1.00166 10.913 6.57297
239 1 -1.1104 3.71029 5.14546 6.51815
234 1 -1.1104 0.864589 8.148 6.59672
235 1 -1.1104 6.37689 8.08297 6.52573
65 1 -1.1104 6.53765 10.8917 6.67767
51 2 2.2208 8.07118 14.9821 10.8449
240 2 2.2208 5.34628 6.62703 10.8069
241 2 2.2208 5.11336 12.2474 10.8213
242 1 -1.1104 1.11914 8.10989 12.1361
244 1 -1.1104 0.895154 8.08783 9.33177
246 1 -1.1104 0.937622 5.37257 12.2747
247 1 -1.1104 0.954175 11.0079 12.1014
250 2 2.2208 5.18353 9.47937 8.04421
251 1 -1.1104 1.11659 5.37069 9.43003
252 1 -1.1104 0.903039 10.8416 9.27285
255 1 -1.1104 3.93768 8.10162 12.1463
256 2 2.2208 2.46006 6.6774 8.07932
257 2 2.2208 2.43165 12.3774 7.95645
258 1 -1.1104 3.80088 8.07849 9.41848
259 2 2.2208 2.29473 9.45641 10.7669
260 1 -1.1104 3.9689 5.27354 12.2776
261 1 -1.1104 3.83013 11.0576 12.3635
262 1 -1.1104 3.88291 5.29683 9.50672
263 1 -1.1104 3.68072 10.9353 9.52926
269 1 -1.1104 9.13377 5.26316 6.57503
90 1 -1.1104 12.0347 10.9354 6.68754
267 1 -1.1104 9.24516 8.04148 6.62704
101 1 -1.1104 9.29434 10.8406 6.57856
266 1 -1.1104 11.9766 5.44778 6.66399
8486 2 2.2208 13.4963 3.95269 5.21261
265 1 -1.1104 12.11 8.15415 6.68373
249 1 -1.1104 6.61256 10.778 12.0837
254 1 -1.1104 6.50509 10.8584 9.42788
253 1 -1.1104 6.62242 5.29801 9.29936
248 1 -1.1104 6.71842 5.23359 12.243
243 1 -1.1104 6.68231 8.08854 12.2683
245 1 -1.1104 6.51697 7.95738 9.2823
264 1 -1.1104 9.3514 10.8963 9.55017
268 1 -1.1104 9.48767 5.33676 9.46963
270 1 -1.1104 9.53206 10.8811 12.2028
271 1 -1.1104 9.40813 5.27656 12.3599
272 2 2.2208 7.99013 9.52618 10.875
273 1 -1.1104 9.42182 8.09694 9.60438
274 2 2.2208 7.93075 12.4062 8.12075
275 2 2.2208 7.92541 6.63363 8.00891
276 2 2.2208 10.8665 6.68719 10.8625
277 2 2.2208 10.8642 12.2981 11.0201
278 1 -1.1104 12.2196 7.97584 12.2
279 1 -1.1104 12.3688 8.15706 9.4374
280 1 -1.1104 12.1719 5.15008 12.2186
281 1 -1.1104 12.2797 10.8244 12.2917
282 2 2.2208 10.7366 9.53858 8.01288
283 1 -1.1104 12.3036 5.33411 9.44828
284 1 -1.1104 12.1918 10.8637 9.45581
285 1 -1.1104 9.56756 8.0599 12.3889
124 1 -1.1104 3.7885 13.7333 6.48708
117 1 -1.1104 1.03522 16.4585 6.53633
133 1 -1.1104 3.85297 16.4372 6.72601
306 1 -1.1104 6.54088 16.3418 12.2319
229 1 -1.1104 12.2833 16.5116 9.47875
297 1 -1.1104 6.58958 13.6324 12.2714
126 1 -1.1104 3.62182 19.3965 6.61015
289 1 -1.1104 6.76525 16.5618 9.52522
108 1 -1.1104 1.03366 13.7372 6.58749
310 2 2.2208 2.31342 15.2482 10.7964
309 2 2.2208 2.49071 20.6529 10.7544
308 1 -1.1104 3.70485 16.4971 12.2191
286 1 -1.1104 3.77271 19.2918 12.1742
287 1 -1.1104 3.7764 13.8375 12.1242
291 1 -1.1104 1.23568 19.0871 9.47383
292 1 -1.1104 1.1071 16.286 9.37149
293 2 2.2208 5.23006 20.8255 7.94001
294 1 -1.1104 0.946443 13.6883 9.29659
295 2 2.2208 5.21344 15.1104 8.03277
298 1 -1.1104 1.01021 19.394 12.2115
299 1 -1.1104 1.0255 13.7321 12.1541
300 2 2.2208 5.24662 17.9925 10.8769
301 1 -1.1104 3.85524 19.3717 9.37396
303 2 2.2208 2.45533 17.835 7.95124
304 1 -1.1104 3.81279 16.7154 9.46627
305 1 -1.1104 3.94929 13.7729 9.45836
307 1 -1.1104 0.997918 16.639 12.2595
290 1 -1.1104 6.66625 13.8273 9.44981
105 2 2.2208 10.7357 15.1008 8.11037
111 1 -1.1104 6.65798 13.7035 6.64524
112 1 -1.1104 6.64069 19.3912 6.61935
52 2 2.2208 8.07344 20.8058 10.9256
118 1 -1.1104 6.69185 16.5867 6.78666
149 1 -1.1104 12.1696 16.3956 6.55288
156 1 -1.1104 9.56206 19.3783 6.47142
145 1 -1.1104 12.3028 19.2913 6.66696
50 1 -1.1104 12.3507 13.7311 9.59919
49 1 -1.1104 12.2594 19.3864 12.271
233 1 -1.1104 9.39384 19.3417 12.1588
202 1 -1.1104 9.40484 16.5762 12.2511
30 1 -1.1104 12.2602 13.6174 12.2263
314 2 2.2208 2.3435 1.0981 13.568
524 2 2.2208 8.0227 17.8055 13.4995
322 2 2.2208 11.0117 9.52969 13.6616
200 2 2.2208 -0.415061 -1.66184 8.07378
434 2 2.2208 2.38242 12.3612 13.5287
319 2 2.2208 2.53352 6.6584 13.5526
320 2 2.2208 5.14285 9.45127 13.5151
8584 2 2.2208 13.5707 14.9852 5.20419
461 2 2.2208 8.00245 12.3299 13.6044
8563 2 2.2208 13.7371 20.7388 5.32668
495 2 2.2208 2.4677 17.9228 13.6523
315 2 2.2208 5.23916 3.86374 13.6731
496 2 2.2208 5.23567 20.7937 13.5118
8621 2 2.2208 13.4618 3.86412 10.7673
8796 2 2.2208 13.6863 6.67893 13.6029
8092 2 2.2208 7.95222 -4.51237 13.6729
8093 2 2.2208 2.33167 -4.63518 13.6171
522 2 2.2208 10.8297 20.6575 13.6396
642 2 2.2208 10.7581 12.3409 -0.31005
641 2 2.2208 7.93247 9.45047 -0.371045
313 2 2.2208 5.14471 -1.75209 13.5859
317 2 2.2208 10.8196 -1.63886 13.6219
616 2 2.2208 2.36784 9.64635 -0.405529
8869 2 2.2208 13.5803 9.52816 -0.345244
323 2 2.2208 5.15002 1.10579 16.3125
324 1 -1.1104 0.982498 -3.16808 17.9932
325 1 -1.1104 0.957151 2.5767 17.8749
328 1 -1.1104 1.02378 -3.15719 14.9806
330 1 -1.1104 0.855612 2.49418 15.0326
336 1 -1.1104 0.956391 -0.429477 17.7552
338 2 2.2208 5.16218 -1.76975 19.1358
339 2 2.2208 5.25963 3.92544 19.2509
340 1 -1.1104 0.942027 -0.242181 14.972
344 1 -1.1104 3.72303 -3.04411 17.9606
345 1 -1.1104 3.80778 2.39593 17.8672
346 2 2.2208 2.38213 0.976688 19.2236
347 1 -1.1104 3.62981 -3.24087 15.1308
349 1 -1.1104 3.71927 2.44585 15.0714
351 2 2.2208 2.40442 -1.87972 16.4647
353 1 -1.1104 3.82608 -0.186834 17.8119
354 1 -1.1104 3.65147 -0.476705 15.1101
352 2 2.2208 2.31538 3.90821 16.4172
341 1 -1.1104 1.06779 -0.587527 20.5543
337 1 -1.1104 6.47484 -0.297462 17.628
343 1 -1.1104 6.44059 -0.342583 20.4572
350 1 -1.1104 3.76205 2.36127 20.7093
342 1 -1.1104 6.656 -0.309462 14.8771
332 1 -1.1104 6.50539 -3.02519 14.858
327 1 -1.1104 6.63246 2.42673 17.7005
326 1 -1.1104 6.6193 -3.10467 17.6746
334 1 -1.1104 6.65611 2.49258 15.0996
8945 2 2.2208 13.5086 -1.70293 22.137
9017 2 2.2208 13.4955 12.232 24.8896
8467 2 2.2208 10.7051 -4.3553 16.4229
366 2 2.2208 10.8703 1.00386 16.5325
367 1 -1.1104 12.1 -3.09345 17.868
368 1 -1.1104 12.2428 2.57078 17.7702
369 1 -1.1104 12.1432 -2.91129 14.9703
371 1 -1.1104 12.3163 2.55138 14.9535
373 1 -1.1104 12.2135 -0.376739 18.0226
374 2 2.2208 10.6523 -1.72349 19.3438
376 1 -1.1104 12.3051 -0.206916 15.2087
378 1 -1.1104 9.33069 -3.13995 17.8801
379 1 -1.1104 9.47751 2.6204 18.0024
380 2 2.2208 7.93064 1.13836 19.2224
381 1 -1.1104 9.26191 -3.0127 15.0942
383 1 -1.1104 9.5044 2.45031 15.156
385 2 2.2208 7.77403 -1.63385 16.4125
387 1 -1.1104 9.40598 -0.258133 17.8299
388 1 -1.1104 9.48547 -0.309502 15.0435
375 2 2.2208 10.8434 4.04923 19.2186
386 2 2.2208 8.1818 3.81115 16.5085
377 1 -1.1104 11.9557 -0.342639 20.8214
370 1 -1.1104 12.0857 -3.10525 20.8266
372 1 -1.1104 12.1052 2.40561 20.6073
384 1 -1.1104 9.34354 2.37443 20.818
9012 2 2.2208 -0.373851 20.7282 19.1856
316 2 2.2208 8.02109 1.12964 13.6415
8872 2 2.2208 13.594 -1.7936 16.5358
399 2 2.2208 5.22565 6.68304 16.4142
400 2 2.2208 5.26576 12.2788 16.4837
401 1 -1.1104 0.966608 8.13284 17.7505
403 1 -1.1104 1.03937 8.17286 15.0412
407 1 -1.1104 0.874735 5.36767 17.8997
408 1 -1.1104 1.18447 10.8267 17.79
411 2 2.2208 5.14111 9.49824 19.2481
412 1 -1.1104 1.07894 5.33539 15.0381
414 1 -1.1104 0.96697 10.9363 14.8967
420 1 -1.1104 3.7301 8.10924 17.8819
421 2 2.2208 2.45515 6.76109 19.2038
422 2 2.2208 2.36896 12.2368 19.3144
423 1 -1.1104 3.82605 8.05917 15.0322
425 2 2.2208 2.36856 9.49393 16.3764
426 1 -1.1104 3.77217 5.20475 17.8295
427 1 -1.1104 3.8881 10.9973 17.953
428 1 -1.1104 3.84416 5.28823 15.0599
430 1 -1.1104 3.80286 10.763 15.0811
404 1 -1.1104 0.921345 8.0464 20.5826
431 1 -1.1104 3.85515 10.9483 20.7179
410 1 -1.1104 6.57128 10.7913 17.7722
409 1 -1.1104 6.70614 5.26534 17.8758
405 1 -1.1104 6.65641 8.00195 15.1174
406 1 -1.1104 6.5064 8.08574 20.6077
8906 2 2.2208 13.6635 17.9311 24.8604
556 2 2.2208 2.36821 20.6292 27.6162
649 1 -1.1104 6.43446 16.4104 26.3464
8827 2 2.2208 13.7008 3.93763 16.5682
393 2 2.2208 2.39046 15.1686 27.7066
8465 2 2.2208 5.17197 -4.47736 16.4759
418 1 -1.1104 6.64413 10.8948 14.9642
416 1 -1.1104 6.75631 5.32548 15.0335
402 1 -1.1104 6.66748 8.11283 17.9558
435 2 2.2208 10.8695 6.86874 16.4769
436 2 2.2208 10.9013 12.3294 16.5495
437 1 -1.1104 12.2603 8.30258 17.8306
438 1 -1.1104 12.4196 8.08084 15.0075
440 1 -1.1104 12.2848 5.4219 17.8637
441 1 -1.1104 12.262 11.028 17.8513
442 2 2.2208 10.6912 9.68072 19.4453
443 1 -1.1104 12.3333 5.48172 15.0634
445 1 -1.1104 12.2372 10.9718 15.1777
447 1 -1.1104 9.49254 8.27869 17.9798
448 2 2.2208 7.97135 6.75077 19.3065
449 2 2.2208 8.05381 12.4911 19.2343
450 1 -1.1104 9.65307 8.12011 15.1395
452 2 2.2208 7.97179 9.51724 16.489
453 1 -1.1104 9.49597 5.48635 17.856
454 1 -1.1104 9.4769 11.1107 18.0387
455 1 -1.1104 9.46948 5.22166 15.1072
457 1 -1.1104 9.50245 10.974 15.1136
444 1 -1.1104 12.2246 5.24004 20.7825
451 1 -1.1104 9.34238 8.06499 20.6659
456 1 -1.1104 9.36678 5.23341 20.6331
645 2 2.2208 8.03983 20.7818 21.9944
439 1 -1.1104 12.1393 8.09515 20.6755
432 1 -1.1104 6.61234 13.6234 23.5067
472 1 -1.1104 6.58056 13.9339 20.6307
8833 2 2.2208 13.5447 1.10022 19.3622
9034 2 2.2208 13.5152 3.89212 22.2258
8825 2 2.2208 -0.358773 17.8984 22.0629
462 2 2.2208 5.3541 17.9677 16.4512
463 1 -1.1104 1.05505 13.6323 17.8929
464 1 -1.1104 1.12956 19.2124 17.7392
467 1 -1.1104 1.10342 13.687 14.8559
469 1 -1.1104 1.1421 19.2249 14.8841
475 1 -1.1104 1.22146 16.4526 17.8136
477 2 2.2208 5.17046 15.1177 19.1937
478 2 2.2208 5.3341 20.8661 19.2577
479 1 -1.1104 1.041 16.452 15.0996
483 1 -1.1104 3.8723 13.6663 17.9399
484 1 -1.1104 3.82307 19.2077 17.9151
485 2 2.2208 2.4219 17.8948 19.2697
486 1 -1.1104 3.969 13.6278 15.0751
488 1 -1.1104 3.90337 19.4108 15.0678
490 2 2.2208 2.49643 15.0905 16.4011
491 2 2.2208 2.56516 20.6895 16.4718
492 1 -1.1104 3.99036 16.4023 17.7861
493 1 -1.1104 3.86625 16.6066 14.9479
480 1 -1.1104 0.940492 16.6011 20.5601
481 1 -1.1104 6.65713 16.581 14.9492
471 1 -1.1104 6.73969 13.7673 14.961
473 1 -1.1104 6.72593 19.3247 15.05
476 1 -1.1104 6.70367 16.4515 17.6827
502 1 -1.1104 12.1931 13.7602 20.7694
8873 2 2.2208 13.7291 20.8619 21.9728
9014 2 2.2208 -0.257286 17.8989 16.3063
9093 2 2.2208 13.5291 9.56498 22.1927
8298 2 2.2208 7.90032 -4.64521 19.3069
8971 2 2.2208 13.6606 15.1383 16.4832
466 1 -1.1104 6.69286 19.2084 17.873
465 1 -1.1104 6.70136 13.7236 17.759
498 2 2.2208 10.8186 17.8135 16.4156
499 1 -1.1104 12.2309 13.771 17.888
500 1 -1.1104 12.2402 19.2383 17.9066
501 1 -1.1104 12.2432 13.6423 15.0622
503 1 -1.1104 12.1944 19.1889 15.0744
505 1 -1.1104 12.2354 16.4699 17.8389
506 2 2.2208 10.8795 15.0968 19.2799
507 2 2.2208 10.8238 20.7557 19.3453
508 1 -1.1104 12.2353 16.5167 14.9779
510 1 -1.1104 9.56811 13.8096 17.6855
511 1 -1.1104 9.49561 19.2983 17.8134
512 2 2.2208 8.09161 17.8645 19.2148
513 1 -1.1104 9.42635 13.731 14.9595
515 1 -1.1104 9.47427 19.2135 15.0686
517 2 2.2208 8.11819 15.1541 16.3789
518 2 2.2208 8.11735 20.6389 16.4638
519 1 -1.1104 9.44727 16.4567 17.896
520 1 -1.1104 9.56505 16.4021 15.0608
9049 2 2.2208 13.5881 0.967927 24.9306
9019 2 2.2208 -0.227264 12.3431 22.0081
329 1 -1.1104 0.909811 -3.36637 20.6559
355 1 -1.1104 3.73898 -0.420252 20.5496
331 1 -1.1104 0.937834 2.32174 20.6555
348 1 -1.1104 3.73208 -3.33371 20.764
335 1 -1.1104 6.65694 2.53499 20.6198
333 1 -1.1104 6.45004 -3.19609 20.4331
357 2 2.2208 -0.432795 6.68006 16.3759
8868 2 2.2208 13.622 6.8612 24.8601
526 2 2.2208 5.19621 1.06891 22.1218
527 1 -1.1104 0.905689 -3.20694 23.4554
528 1 -1.1104 0.953342 2.35506 23.3853
531 1 -1.1104 0.92583 -3.19248 26.2353
532 1 -1.1104 0.926985 2.50991 26.3777
535 1 -1.1104 0.929538 -0.561156 23.3862
537 2 2.2208 5.19387 -1.76519 24.8695
539 1 -1.1104 0.986973 -0.399312 26.2748
541 1 -1.1104 3.75994 -3.14108 23.4686
542 1 -1.1104 3.75899 2.41839 23.431
543 2 2.2208 2.42793 0.900203 24.7735
544 1 -1.1104 3.75028 -3.1392 26.4616
545 1 -1.1104 3.63448 2.53174 26.2092
546 2 2.2208 2.36063 -1.92658 21.9814
547 2 2.2208 2.33195 3.91918 21.9683
548 1 -1.1104 3.71217 -0.400497 23.4962
549 1 -1.1104 3.8619 -0.446078 26.2704
538 2 2.2208 5.23223 3.86645 24.8028
644 2 2.2208 7.92155 15.1656 22.0756
529 1 -1.1104 6.60266 -3.12272 23.446
530 1 -1.1104 6.6122 2.48348 23.3155
533 1 -1.1104 6.55196 -3.09068 26.2141
540 1 -1.1104 6.57452 -0.351166 26.327
536 1 -1.1104 6.54519 -0.313488 23.4601
8902 2 2.2208 13.6542 6.65222 19.3115
382 1 -1.1104 9.30264 -3.19211 20.6838
389 1 -1.1104 9.19074 -0.436522 20.6671
318 2 2.2208 10.8418 3.88696 13.6601
589 1 -1.1104 9.39447 13.8006 23.5013
8942 2 2.2208 -0.380491 9.57413 19.2193
504 1 -1.1104 12.2842 19.5018 20.5998
534 1 -1.1104 6.52864 2.53067 26.1852
562 2 2.2208 10.711 1.16899 22.1637
563 1 -1.1104 12.1313 -3.12063 23.5104
564 1 -1.1104 12.1672 2.50945 23.4706
565 1 -1.1104 12.0196 -2.99895 26.3771
566 1 -1.1104 12.1367 2.42737 26.3885
567 1 -1.1104 12.1782 -0.223451 23.586
568 2 2.2208 10.7583 -1.68294 24.9732
570 1 -1.1104 12.261 -0.261262 26.341
571 1 -1.1104 9.3554 -3.08524 23.4502
572 1 -1.1104 9.26448 2.57556 23.6288
573 2 2.2208 7.95934 1.0543 24.8468
574 1 -1.1104 9.31454 -3.00284 26.2848
575 1 -1.1104 9.2529 2.60201 26.4805
576 2 2.2208 7.99544 -1.77295 22.0648
578 1 -1.1104 9.31099 -0.349711 23.5075
579 1 -1.1104 9.39017 -0.19032 26.2357
569 2 2.2208 10.7822 3.89819 25.008
577 2 2.2208 8.05715 3.89002 22.0366
553 1 -1.1104 12.152 13.8319 23.5863
590 1 -1.1104 9.48352 19.4595 23.5189
588 1 -1.1104 12.1827 16.6583 26.3333
9013 2 2.2208 -0.378174 15.2021 19.1157
619 2 2.2208 7.96516 17.9597 24.8506
391 1 -1.1104 9.31116 16.5833 26.325
415 1 -1.1104 1.11622 10.7937 20.6188
424 1 -1.1104 3.71058 8.08841 20.5747
429 1 -1.1104 3.77035 5.24088 20.5443
417 1 -1.1104 6.60721 5.31597 20.7309
413 1 -1.1104 0.854789 5.08383 20.7444
591 2 2.2208 5.19386 6.71382 21.992
592 2 2.2208 5.16868 12.2648 22.0367
593 1 -1.1104 0.983161 7.96182 23.5451
595 1 -1.1104 1.06686 8.13673 26.2595
597 1 -1.1104 0.929375 5.1955 23.4609
598 1 -1.1104 1.06789 10.7783 23.4016
601 2 2.2208 5.2311 9.43249 24.9019
602 1 -1.1104 1.00392 5.39241 26.2487
603 1 -1.1104 0.968902 10.8912 26.169
606 1 -1.1104 3.77268 8.01128 23.4143
607 2 2.2208 2.37787 6.66327 24.901
608 2 2.2208 2.45796 12.2854 24.8337
609 1 -1.1104 3.89093 8.11535 26.3065
610 2 2.2208 2.48504 9.40237 22.0835
611 1 -1.1104 3.87439 5.23805 23.336
612 1 -1.1104 3.86607 10.6958 23.4271
613 1 -1.1104 3.82215 5.18984 26.1322
614 1 -1.1104 3.83329 10.993 26.2914
594 1 -1.1104 6.523 8.04196 23.4947
558 1 -1.1104 12.129 13.7366 26.3915
358 1 -1.1104 6.53563 16.4951 23.4977
419 1 -1.1104 6.60069 11.1003 20.6203
446 1 -1.1104 12.1987 11.0535 20.7167
458 1 -1.1104 9.37351 10.9548 20.6738
599 1 -1.1104 6.78219 5.25662 23.4459
596 1 -1.1104 6.61373 8.0858 26.2471
600 1 -1.1104 6.61759 10.7997 23.4802
604 1 -1.1104 6.59716 5.38071 26.2337
605 1 -1.1104 6.56769 10.7618 26.4145
622 1 -1.1104 9.33637 10.8242 26.3474
623 1 -1.1104 9.41786 5.40911 26.2797
624 1 -1.1104 9.31894 10.931 23.49
625 1 -1.1104 9.41168 5.40902 23.3643
626 2 2.2208 7.95852 9.58236 22.0317
627 1 -1.1104 9.32 8.152 26.2496
628 2 2.2208 7.89911 12.226 24.9057
629 2 2.2208 7.94963 6.79213 24.8643
630 2 2.2208 10.7916 6.61168 22.0687
631 2 2.2208 10.7618 12.3445 22.1613
632 1 -1.1104 12.2717 7.98457 23.4586
633 1 -1.1104 12.1206 8.02785 26.3242
634 1 -1.1104 12.1362 5.19557 23.5741
635 1 -1.1104 12.1205 10.8493 23.5134
636 2 2.2208 10.7909 9.54782 24.8598
637 1 -1.1104 12.293 5.23433 26.2275
638 1 -1.1104 12.0996 10.7891 26.4067
639 1 -1.1104 9.39072 8.23673 23.3178
392 1 -1.1104 9.36057 16.5778 23.4186
470 1 -1.1104 1.02099 19.4471 20.6258
487 1 -1.1104 3.92399 13.6643 20.7896
494 1 -1.1104 3.78115 16.5752 20.5565
8901 2 2.2208 13.5978 9.61885 16.4733
621 1 -1.1104 9.42744 13.6816 26.2671
554 1 -1.1104 12.3106 19.4457 23.3348
647 1 -1.1104 6.61725 13.6615 26.1591
365 1 -1.1104 3.71236 19.1389 26.2079
468 1 -1.1104 1.06691 13.7869 20.5978
489 1 -1.1104 3.81065 19.4528 20.6707
460 1 -1.1104 6.58319 19.3337 23.2799
620 1 -1.1104 6.46284 19.2325 26.1551
398 1 -1.1104 0.989745 19.4566 23.3129
397 1 -1.1104 1.15432 13.7185 23.3973
396 2 2.2208 5.20251 17.9403 22.0089
651 1 -1.1104 1.07446 16.459 26.221
650 1 -1.1104 0.772839 19.1899 26.0506
648 1 -1.1104 3.86768 13.4824 23.5495
646 1 -1.1104 3.86263 19.2581 23.3927
586 1 -1.1104 1.05469 16.5598 23.2152
585 1 -1.1104 3.75498 16.3785 23.3466
652 1 -1.1104 1.01368 13.6238 26.201
584 2 2.2208 2.38601 20.8159 21.8741
557 2 2.2208 2.34927 15.1021 21.9999
459 2 2.2208 5.15342 20.6393 24.743
433 2 2.2208 5.00836 15.1007 24.9236
361 1 -1.1104 3.68334 13.734 26.2728
363 1 -1.1104 3.8084 16.5143 26.1956
364 2 2.2208 2.42955 17.9867 24.732
561 1 -1.1104 12.2916 16.6104 23.5295
583 2 2.2208 10.7986 15.182 24.9838
525 2 2.2208 10.8865 17.9192 22.0321
587 2 2.2208 11.0626 20.7253 24.7233
482 1 -1.1104 6.57527 16.6894 20.5884
509 1 -1.1104 12.2002 16.559 20.6204
516 1 -1.1104 9.46706 19.3029 20.6068
514 1 -1.1104 9.3217 13.632 20.7092
474 1 -1.1104 6.67805 19.3575 20.6814
521 1 -1.1104 9.46544 16.3335 20.7614
643 1 -1.1104 9.52132 19.3194 26.2688
559 1 -1.1104 12.3309 19.3438 26.3505
362 2 2.2208 -0.404881 3.73425 19.2839
8973 2 2.2208 13.5938 17.9678 19.2078
9044 2 2.2208 -0.314588 9.408 24.8544
555 2 2.2208 5.09291 17.8556 27.7762
8974 2 2.2208 13.6968 20.6606 16.4157
552 2 2.2208 2.27827 3.88888 27.6378
8871 2 2.2208 13.5452 -1.75403 27.7412
550 2 2.2208 5.02098 1.02803 27.7342
617 2 2.2208 5.07793 12.3273 27.6981
551 2 2.2208 2.3729 -1.78969 27.7316
9018 2 2.2208 -0.321452 6.62999 27.5865
615 2 2.2208 5.19551 6.62656 27.6379
390 2 2.2208 7.9708 15.102 27.6366
523 2 2.2208 10.8283 15.0843 13.6671
395 2 2.2208 7.86442 20.627 27.6313
321 2 2.2208 8.13923 6.65946 13.6726
581 2 2.2208 7.9713 -1.69024 27.703
640 2 2.2208 10.7383 6.65929 27.7183
653 2 2.2208 5.16689 23.4905 5.06805
654 2 2.2208 5.35289 29.027 5.15444
655 1 -1.1104 1.1265 24.8609 0.949844
656 1 -1.1104 1.03104 24.9 3.8544
657 1 -1.1104 0.906355 22.1217 0.732825
658 1 -1.1104 1.00544 27.7299 1.02734
659 2 2.2208 5.37769 26.4844 2.40156
660 1 -1.1104 0.934506 22.0142 3.63261
661 1 -1.1104 0.932874 27.7715 3.8438
662 1 -1.1104 3.86315 24.8454 0.952291
663 2 2.2208 2.39664 23.5274 2.31135
664 2 2.2208 2.35773 29.1157 2.51064
665 1 -1.1104 3.86818 24.8403 3.7879
666 2 2.2208 2.42212 26.2709 5.30141
667 1 -1.1104 3.73644 22.0012 1.01376
668 1 -1.1104 3.85767 27.7588 0.917293
669 1 -1.1104 3.78241 21.9018 3.71448
670 1 -1.1104 3.76767 27.6771 3.80013
679 1 -1.1104 6.74937 27.6905 3.84136
746 1 -1.1104 12.3611 41.6471 12.296
677 1 -1.1104 6.77492 27.7672 1.0197
952 2 2.2208 8.01487 40.219 8.03113
795 1 -1.1104 6.78976 24.9901 6.75707
1338 1 -1.1104 1.17434 47.4078 3.7841
674 1 -1.1104 6.6952 25.0028 1.13075
676 1 -1.1104 6.60909 22.2053 0.817003
678 1 -1.1104 6.63564 22.047 3.71239
675 1 -1.1104 6.58127 25.0092 3.89019
680 2 2.2208 10.8697 23.4762 5.26917
681 2 2.2208 10.8625 29.1806 5.33976
682 1 -1.1104 12.2187 24.8026 1.00506
683 1 -1.1104 12.2108 24.8469 3.84853
684 1 -1.1104 12.1922 22.1016 1.03435
685 1 -1.1104 12.2754 27.6704 1.06666
686 2 2.2208 10.8814 26.213 2.34021
687 1 -1.1104 12.2426 22.0994 3.84854
688 1 -1.1104 12.3108 27.6512 3.7815
689 1 -1.1104 9.48584 24.9266 1.00681
690 2 2.2208 8.03662 23.5277 2.45423
691 2 2.2208 8.22403 29.0055 2.38064
692 1 -1.1104 9.35923 24.9311 3.8546
693 2 2.2208 8.1194 26.2766 5.19405
694 1 -1.1104 9.32682 22.0725 0.90954
695 1 -1.1104 9.46928 27.7143 0.889312
696 1 -1.1104 9.38611 22.283 3.73509
697 1 -1.1104 9.49366 27.6988 3.85674
947 1 -1.1104 9.67302 44.5124 12.1265
1357 1 -1.1104 3.86105 47.3993 3.84643
799 1 -1.1104 6.73886 27.7551 6.64168
829 1 -1.1104 12.3399 27.8233 6.63064
942 2 2.2208 -0.230355 43.1814 8.03228
968 2 2.2208 -0.301455 23.4404 10.7318
702 1 -1.1104 1.0744 30.5812 0.909551
705 1 -1.1104 1.24428 30.5556 3.86257
713 1 -1.1104 3.89461 30.521 1.21694
716 1 -1.1104 4.08991 30.4831 3.84843
701 2 2.2208 5.21447 34.7057 5.29327
703 1 -1.1104 1.1576 36.2402 1.06119
706 1 -1.1104 1.11893 36.1374 4.0036
708 1 -1.1104 1.09621 33.3426 1.11251
709 2 2.2208 5.40868 31.8014 2.49963
710 2 2.2208 5.29414 37.5674 2.46565
711 1 -1.1104 1.06414 33.2907 3.84386
714 1 -1.1104 3.88659 36.1192 1.06638
715 2 2.2208 2.4773 34.7478 2.40564
717 1 -1.1104 3.91285 36.1959 3.92285
718 2 2.2208 2.57662 31.9519 5.23275
719 2 2.2208 2.56165 37.4946 5.33017
720 1 -1.1104 3.91049 33.3835 1.18467
721 1 -1.1104 3.94333 33.3027 3.89128
767 1 -1.1104 3.9381 38.8371 1.02205
851 1 -1.1104 0.994301 30.5085 6.60653
769 1 -1.1104 3.82487 39.0833 3.87396
857 1 -1.1104 3.92214 30.393 6.53638
853 1 -1.1104 6.8099 30.5692 6.75052
712 1 -1.1104 6.69162 33.3433 3.89731
725 1 -1.1104 6.78112 30.4708 1.05822
707 1 -1.1104 6.60366 36.1284 3.80026
1392 1 -1.1104 9.60307 47.4462 3.82835
852 1 -1.1104 1.18987 36.3056 6.75211
855 1 -1.1104 0.981654 33.4673 6.58295
858 1 -1.1104 4.03592 36.086 6.61911
1570 1 -1.1104 12.471 47.2616 9.40815
704 1 -1.1104 6.80483 36.0942 0.94727
726 1 -1.1104 6.77773 30.5033 3.73594
727 1 -1.1104 6.6462 33.2588 1.06145
729 1 -1.1104 12.2562 30.4281 1.09423
731 1 -1.1104 12.3559 30.58 3.87412
740 1 -1.1104 9.43504 30.5162 3.85758
728 2 2.2208 10.7905 34.7124 5.30834
730 1 -1.1104 12.2679 36.2116 0.946335
732 1 -1.1104 12.3195 36.015 3.82849
733 1 -1.1104 12.384 33.4186 1.26313
734 2 2.2208 10.906 31.9703 2.4642
735 2 2.2208 10.9051 37.4938 2.41659
736 1 -1.1104 12.1157 33.2834 4.08613
737 1 -1.1104 9.47588 30.5153 1.16773
738 1 -1.1104 9.5926 36.1162 0.957736
739 2 2.2208 8.0066 34.7027 2.43627
741 1 -1.1104 9.56014 36.1292 3.74974
742 2 2.2208 8.09461 31.8757 5.20322