ITEM: TIMESTEP
50000
ITEM: NUMBER OF ATOMS
17760
ITEM: BOX BOUNDS pp pp pp
-3.7305684621649465e-01 2.7713056846216286e+01
-4.5643086142660412e+00 3.3264430861425615e+02
-3.7000671639889321e-01 2.7710006716399370e+01
ITEM: ATOMS id type q x y z
1 2 2.2208 5.07368 1.00766 5.35128
2 1 -1.1104 0.924028 -3.3091 0.961242
3 1 -1.1104 0.982226 2.44738 0.994871
6 1 -1.1104 1.07154 -3.23275 3.72006
7 1 -1.1104 0.904653 2.38686 3.84184
10 1 -1.1104 1.04862 -0.46091 1.18447
12 2 2.2208 5.17707 -1.74056 2.60344
13 2 2.2208 5.09639 3.82735 2.52386
14 1 -1.1104 1.07679 -0.388741 3.88691
16 1 -1.1104 3.68477 -3.20427 1.1782
17 1 -1.1104 3.64725 2.36457 1.06284
18 2 2.2208 2.40396 1.10994 2.50991
19 1 -1.1104 3.81766 -3.33612 3.96933
20 1 -1.1104 3.69509 2.46849 3.92473
21 2 2.2208 2.37277 -1.85962 5.16959
22 2 2.2208 2.17737 3.72951 5.20886
23 1 -1.1104 3.76167 -0.384086 1.13534
24 1 -1.1104 3.78216 -0.346295 3.93701
8079 2 2.2208 10.7501 -4.57057 5.30273
615 2 2.2208 5.18797 6.54831 -0.359999
5 1 -1.1104 6.59778 2.37466 0.944907
173 1 -1.1104 3.77663 2.29402 6.64789
8078 2 2.2208 7.81626 -4.52141 2.52741
15 1 -1.1104 6.56124 -0.256544 4.07306
4 1 -1.1104 6.61071 -3.09599 1.18295
169 1 -1.1104 6.60802 2.29709 6.86589
9 1 -1.1104 6.51138 2.51797 3.94783
11 1 -1.1104 6.46426 -0.323357 1.29394
8 1 -1.1104 6.59895 -3.01212 3.95395
31 2 2.2208 10.8775 1.06675 5.23031
32 1 -1.1104 12.0568 -3.07656 0.890628
33 1 -1.1104 12.3539 2.40359 1.04271
34 1 -1.1104 12.3538 -3.08437 3.71047
35 1 -1.1104 12.3696 2.30412 3.8586
36 1 -1.1104 12.2809 -0.208005 0.979527
37 2 2.2208 10.7691 -1.72336 2.43992
38 2 2.2208 10.9217 3.74263 2.46427
39 1 -1.1104 12.2907 -0.428455 3.83048
40 1 -1.1104 9.23177 -3.15113 1.01433
41 1 -1.1104 9.41672 2.36973 1.05219
42 2 2.2208 7.95559 1.04096 2.45666
43 1 -1.1104 9.42974 -3.14724 3.78801
44 1 -1.1104 9.47182 2.39874 3.81482
45 2 2.2208 8.00611 -1.63583 5.29634
47 1 -1.1104 9.30079 -0.328322 1.0529
48 1 -1.1104 9.40229 -0.413275 3.76729
46 2 2.2208 8.08541 3.79324 5.31864
209 1 -1.1104 9.32987 2.55099 6.78792
205 1 -1.1104 12.1322 -3.22512 6.47755
206 1 -1.1104 12.1231 2.41265 6.75983
8698 2 2.2208 13.7582 12.1673 7.97022
168 1 -1.1104 6.63355 -3.12104 6.54692
83 2 2.2208 -0.361951 12.2033 5.22117
54 2 2.2208 5.16374 6.51359 5.3164
55 2 2.2208 5.21855 12.1327 5.21089
56 1 -1.1104 1.01899 7.99707 1.01441
58 1 -1.1104 0.943286 8.1281 3.83423
60 1 -1.1104 0.923107 5.15725 1.03212
61 1 -1.1104 1.02004 10.7854 1.02488
66 2 2.2208 5.28953 9.39386 2.50293
67 1 -1.1104 0.992788 5.13968 3.75358
68 1 -1.1104 0.989336 10.8138 3.88252
71 1 -1.1104 3.82815 7.93001 1.12747
72 2 2.2208 2.437 6.57531 2.35771
73 2 2.2208 2.32847 12.1122 2.37217
74 1 -1.1104 3.87715 7.84493 3.85654
75 2 2.2208 2.29974 9.26278 5.1547
76 1 -1.1104 3.71635 5.12481 1.04849
77 1 -1.1104 3.90998 10.7367 0.966161
79 1 -1.1104 3.71551 5.19306 3.90289
80 1 -1.1104 3.826 10.5342 3.8487
236 1 -1.1104 0.89403 5.07322 6.57391
57 1 -1.1104 6.61429 7.96821 1.14844
64 1 -1.1104 6.60623 10.8011 1.00726
63 1 -1.1104 6.54519 5.15231 1.04591
8787 2 2.2208 13.7162 1.0308 2.46192
641 2 2.2208 8.01819 9.4161 -0.43167
239 1 -1.1104 3.75462 5.19644 6.56764
78 1 -1.1104 3.81038 10.7798 6.61333
238 1 -1.1104 3.71949 7.93963 6.7991
8646 2 2.2208 13.8174 0.987622 7.98999
70 1 -1.1104 6.64761 10.7763 3.82746
69 1 -1.1104 6.45198 5.31391 3.9334
59 1 -1.1104 6.58092 7.94032 4.09959
84 2 2.2208 10.8332 6.52271 5.11732
85 2 2.2208 10.8558 12.1097 5.07579
86 1 -1.1104 12.2428 7.93238 1.09266
87 1 -1.1104 12.2573 7.92222 3.76898
88 1 -1.1104 12.2465 5.17688 1.0852
89 1 -1.1104 12.1149 10.6804 0.953343
91 2 2.2208 10.7834 9.37363 2.40672
92 1 -1.1104 12.2326 5.02942 3.95201
93 1 -1.1104 12.1264 10.7112 3.67409
94 1 -1.1104 9.49518 8.07644 0.651771
95 2 2.2208 8.01861 6.63547 2.4504
96 2 2.2208 8.03177 12.0935 2.4841
97 1 -1.1104 9.42313 7.83274 3.67964
98 2 2.2208 7.95109 9.31622 5.33884
99 1 -1.1104 9.43913 5.26196 1.10986
100 1 -1.1104 9.38627 10.775 1.14784
102 1 -1.1104 9.31194 5.17877 3.9195
103 1 -1.1104 9.40242 10.6884 3.87576
269 1 -1.1104 9.55258 5.17588 6.62637
90 1 -1.1104 12.1667 10.7803 6.56296
101 1 -1.1104 9.32481 10.8026 6.63544
8785 2 2.2208 13.7052 17.6946 8.16512
266 1 -1.1104 12.368 5.21617 6.67172
237 1 -1.1104 6.70422 5.06868 6.67967
235 1 -1.1104 6.54671 7.86972 6.76474
105 2 2.2208 10.8804 15.0168 7.95633
106 2 2.2208 5.31669 17.7665 5.1678
107 1 -1.1104 1.01007 13.6564 0.994777
109 1 -1.1104 1.05088 19.0882 1.07422
113 1 -1.1104 1.07797 13.516 3.736
114 1 -1.1104 1.10852 19.1945 3.85949
116 1 -1.1104 1.00461 16.4618 0.982648
119 2 2.2208 5.30936 14.8937 2.35725
120 2 2.2208 5.32395 20.536 2.35964
121 1 -1.1104 0.895718 16.2938 3.86209
123 1 -1.1104 3.84553 13.5854 0.955141
125 1 -1.1104 3.75648 19.1753 0.971312
127 2 2.2208 2.43035 17.6971 2.43158
128 1 -1.1104 3.87159 13.4264 3.84305
129 1 -1.1104 3.94233 19.0491 3.79972
130 2 2.2208 2.46093 14.9875 5.17782
131 2 2.2208 2.47899 20.5129 5.24802
132 1 -1.1104 3.81821 16.3272 1.028
134 1 -1.1104 3.88422 16.4657 3.74239
140 1 -1.1104 6.64368 16.3803 0.986411
139 1 -1.1104 6.70706 19.0498 3.83922
110 1 -1.1104 6.65634 13.4641 1.14889
138 1 -1.1104 6.5502 19.1873 0.90233
8488 2 2.2208 -0.309918 17.7224 10.7664
124 1 -1.1104 3.74566 13.5801 6.56856
133 1 -1.1104 3.9584 16.4488 6.58918
8831 2 2.2208 13.6208 17.8464 13.6324
118 1 -1.1104 6.67243 16.2076 6.51701
395 2 2.2208 8.01209 20.4941 -0.526754
524 2 2.2208 8.02446 17.841 13.6366
122 1 -1.1104 6.63476 16.394 3.72564
163 1 -1.1104 9.49324 16.4091 6.61287
115 1 -1.1104 6.59795 13.5692 3.87399
141 2 2.2208 10.8777 17.764 5.12135
142 1 -1.1104 12.0293 13.4938 0.96867
144 1 -1.1104 12.1479 19.2053 0.760107
146 1 -1.1104 12.2557 13.6105 3.69526
147 1 -1.1104 12.196 19.0824 3.70319
148 1 -1.1104 12.2107 16.4191 0.917229
150 2 2.2208 10.8388 14.9432 2.43289
151 2 2.2208 10.9088 20.5127 2.2505
152 1 -1.1104 12.2539 16.3288 3.82042
153 1 -1.1104 9.37871 13.6252 1.10383
155 1 -1.1104 9.27194 19.1499 0.783299
157 2 2.2208 8.11558 17.8003 2.29507
158 1 -1.1104 9.41169 13.5221 3.77278
159 1 -1.1104 9.43766 19.0621 3.73105
160 2 2.2208 8.01104 14.9512 5.06618
161 2 2.2208 8.04216 20.4049 5.20685
162 1 -1.1104 9.51066 16.373 0.8866
164 1 -1.1104 9.45047 16.2491 3.84405
154 1 -1.1104 9.37116 13.5669 6.55472
149 1 -1.1104 12.3259 16.234 6.58926
143 1 -1.1104 12.2024 13.621 6.53317
145 1 -1.1104 12.2544 19.1543 6.49183
156 1 -1.1104 9.40112 19.0817 6.60807
49 1 -1.1104 12.2144 19.2108 12.1716
8514 2 2.2208 13.5861 -1.81535 10.7371
166 1 -1.1104 1.05164 -3.14729 6.53649
170 1 -1.1104 0.998709 -0.550704 6.5851
53 1 -1.1104 12.2843 19 9.43161
204 1 -1.1104 9.55124 19.1146 9.37325
174 1 -1.1104 3.80679 -0.43855 6.80552
167 1 -1.1104 0.96311 2.17965 6.70217
172 1 -1.1104 3.89144 -3.20041 6.77935
175 2 2.2208 5.19006 1.02855 10.8508
176 1 -1.1104 0.897078 -3.22016 12.1704
177 1 -1.1104 0.932027 2.38251 12.2705
180 1 -1.1104 1.10817 -3.23529 9.44934
181 1 -1.1104 0.943247 2.40961 9.33128
184 1 -1.1104 0.992011 -0.484297 12.3646
186 2 2.2208 5.2349 -1.85374 8.06545
188 1 -1.1104 0.928662 -0.338604 9.47958
190 1 -1.1104 3.73154 -3.15354 12.2754
191 1 -1.1104 3.80505 2.44405 12.165
192 2 2.2208 2.33732 0.892726 8.02114
193 1 -1.1104 3.8865 -3.3325 9.4989
194 1 -1.1104 3.79461 2.45216 9.37018
195 2 2.2208 2.29596 -1.85309 10.9667
196 2 2.2208 2.49542 3.83171 10.8308
197 1 -1.1104 3.80698 -0.414954 12.416
198 1 -1.1104 3.77813 -0.348373 9.51148
187 2 2.2208 5.22666 3.76202 8.00415
17393 2 2.2208 13.4939 -4.48524 2.41256
189 1 -1.1104 6.51158 -0.39802 9.45089
183 1 -1.1104 6.65263 2.35968 9.49652
618 2 2.2208 -0.326709 12.3388 -0.330631
51 2 2.2208 8.00221 14.9666 10.8365
8647 2 2.2208 13.7186 17.5052 2.41623
8791 2 2.2208 13.5763 0.829037 13.7046
165 2 2.2208 10.9175 20.4327 7.96053
208 1 -1.1104 9.38288 -3.07633 6.66022
207 1 -1.1104 12.4227 -0.4194 6.57781
82 2 2.2208 -0.456774 9.41723 2.46077
171 1 -1.1104 6.50534 -0.426658 6.83058
182 1 -1.1104 6.70259 -3.24684 9.4166
178 1 -1.1104 6.5169 -3.26328 12.1795
185 1 -1.1104 6.62149 -0.36185 12.3914
179 1 -1.1104 6.67487 2.41112 12.3187
210 1 -1.1104 9.48559 -0.318607 6.68402
211 2 2.2208 10.8351 0.868688 10.8335
212 1 -1.1104 12.1696 -3.40254 12.2444
213 1 -1.1104 12.2824 2.17353 12.3531
214 1 -1.1104 12.1476 -3.18419 9.43056
215 1 -1.1104 12.2939 2.31766 9.56065
216 1 -1.1104 12.3075 -0.590416 12.0981
217 2 2.2208 10.7856 -1.72401 8.06081
218 2 2.2208 10.8317 3.75112 8.20867
219 1 -1.1104 12.195 -0.448057 9.25696
220 1 -1.1104 9.44092 -3.23589 12.2143
221 1 -1.1104 9.36529 2.25846 12.2907
222 2 2.2208 7.97447 1.02817 8.14814
223 1 -1.1104 9.44218 -3.22181 9.37952
224 1 -1.1104 9.45508 2.36374 9.39388
225 2 2.2208 7.92058 -1.88466 10.8347
226 2 2.2208 8.03255 3.72029 10.9335
227 1 -1.1104 9.46572 -0.5347 12.4663
228 1 -1.1104 9.22824 -0.38109 9.55713
135 2 2.2208 -0.359515 14.9779 2.3867
26 2 2.2208 -0.554474 0.91969 5.23498
8708 2 2.2208 -0.36537 12.0438 10.9283
8697 2 2.2208 13.6951 6.52119 8.04994
229 1 -1.1104 12.3584 16.2935 9.40039
233 1 -1.1104 9.54894 19.2136 12.1285
234 1 -1.1104 0.95576 7.86495 6.61077
62 1 -1.1104 1.07093 10.7066 6.70033
240 2 2.2208 5.17135 6.67517 10.9109
241 2 2.2208 5.20663 12.0956 10.7707
242 1 -1.1104 0.932372 7.926 12.2661
244 1 -1.1104 1.05357 7.89451 9.33136
246 1 -1.1104 0.962968 5.12318 12.3883
247 1 -1.1104 0.937291 10.7498 12.291
250 2 2.2208 5.25047 9.35636 8.06175
251 1 -1.1104 1.14416 5.15152 9.63437
252 1 -1.1104 0.98602 10.7361 9.52802
255 1 -1.1104 3.72531 8.07832 12.2628
256 2 2.2208 2.34827 6.58929 8.02047
257 2 2.2208 2.47321 12.1854 7.93573
258 1 -1.1104 3.93618 8.01534 9.60522
259 2 2.2208 2.4398 9.34142 10.9068
260 1 -1.1104 3.84721 5.38209 12.3521
261 1 -1.1104 3.76907 10.7023 12.1699
262 1 -1.1104 3.73567 5.23637 9.44334
263 1 -1.1104 3.7527 10.8226 9.3858
253 1 -1.1104 6.52806 5.14904 9.48298
254 1 -1.1104 6.63268 10.7625 9.43419
249 1 -1.1104 6.60321 10.7316 12.3113
243 1 -1.1104 6.6978 7.98048 12.2859
232 2 2.2208 8.09803 17.7494 8.14198
8681 2 2.2208 13.615 6.47282 2.55188
289 1 -1.1104 6.61022 16.2529 9.26613
267 1 -1.1104 9.47349 7.91516 6.5099
65 1 -1.1104 6.50311 10.7518 6.62868
248 1 -1.1104 6.68502 5.21329 12.2483
265 1 -1.1104 12.2516 7.90592 6.55897
245 1 -1.1104 6.6353 8.00238 9.55618
264 1 -1.1104 9.45505 10.7135 9.24663
268 1 -1.1104 9.38877 5.1747 9.50389
270 1 -1.1104 9.50412 10.77 12.1654
271 1 -1.1104 9.5889 5.06756 12.2419
272 2 2.2208 8.02922 9.3282 10.9055
273 1 -1.1104 9.49912 7.96671 9.40708
274 2 2.2208 8.11898 12.1648 7.96901
275 2 2.2208 8.06067 6.47993 8.12316
276 2 2.2208 10.8146 6.51085 10.8368
277 2 2.2208 10.8785 12.1154 10.8356
278 1 -1.1104 12.2233 7.87685 12.2446
279 1 -1.1104 12.2471 7.91385 9.4783
280 1 -1.1104 12.1824 5.21846 12.1907
281 1 -1.1104 12.2125 10.5224 12.2948
282 2 2.2208 10.8915 9.33698 7.89487
283 1 -1.1104 12.242 5.22846 9.43615
284 1 -1.1104 12.314 10.7394 9.30786
285 1 -1.1104 9.41512 7.90106 12.4031
8487 2 2.2208 -0.275753 14.9447 7.91231
231 1 -1.1104 9.51604 13.5933 9.28783
203 1 -1.1104 9.54262 16.2208 9.54351
230 1 -1.1104 9.47262 13.5977 12.2931
111 1 -1.1104 6.64985 13.5298 6.61272
306 1 -1.1104 6.81728 16.3541 12.1669
126 1 -1.1104 3.81023 19.2287 6.65947
117 1 -1.1104 1.06873 16.3381 6.56989
302 1 -1.1104 1.07937 19.035 6.41628
296 1 -1.1104 6.71127 19.1083 12.1818
112 1 -1.1104 6.64432 19.0741 6.60639
290 1 -1.1104 6.74896 13.4982 9.47937
25 2 2.2208 10.8783 17.729 10.8925
108 1 -1.1104 1.0594 13.6001 6.39809
310 2 2.2208 2.50007 14.9709 10.7623
309 2 2.2208 2.47176 20.7045 10.7829
308 1 -1.1104 3.95843 16.1905 12.1463
286 1 -1.1104 3.70547 19.1512 12.1167
287 1 -1.1104 3.87232 13.478 12.1925
291 1 -1.1104 1.00438 19.0663 9.30601
292 1 -1.1104 1.1108 16.3502 9.46833
293 2 2.2208 5.28507 20.4193 8.06425
294 1 -1.1104 1.06879 13.6049 9.31562
295 2 2.2208 5.21959 14.9276 8.04938
298 1 -1.1104 1.10156 19.1173 12.2971
299 1 -1.1104 1.10324 13.4061 12.3229
300 2 2.2208 5.24504 17.7773 10.8131
301 1 -1.1104 3.75623 19.2314 9.45346
303 2 2.2208 2.5732 17.6745 7.93668
304 1 -1.1104 3.83519 16.5053 9.30035
305 1 -1.1104 3.88391 13.5881 9.32693
307 1 -1.1104 1.1808 16.3274 12.2368
297 1 -1.1104 6.66215 13.5423 12.3024
202 1 -1.1104 9.44022 16.4353 12.2333
52 2 2.2208 8.03605 20.4079 10.8234
104 1 -1.1104 12.174 16.3302 12.0446
50 1 -1.1104 12.2897 13.5486 9.19763
288 1 -1.1104 6.71432 19.0663 9.47454
30 1 -1.1104 12.4461 13.4118 11.9833
461 2 2.2208 8.15833 12.1285 13.5851
8486 2 2.2208 13.7055 3.71222 5.30182
8584 2 2.2208 13.6498 14.9462 5.2867
496 2 2.2208 5.14572 20.6023 13.6833
8786 2 2.2208 13.6334 -1.82309 5.28363
8513 2 2.2208 -0.245753 20.3899 7.91709
497 2 2.2208 5.37979 14.8547 13.5709
313 2 2.2208 5.13563 -1.9565 13.6148
580 2 2.2208 10.8566 1.05346 -0.439653
9016 2 2.2208 -0.338681 20.5865 13.5138
582 2 2.2208 7.91148 3.74418 -0.348196
8869 2 2.2208 13.5873 9.32715 -0.451283
551 2 2.2208 2.3502 -1.83377 -0.315169
550 2 2.2208 5.12771 0.96351 -0.38864
522 2 2.2208 10.8939 20.5141 13.5678
556 2 2.2208 2.32759 20.4518 -0.370019
581 2 2.2208 8.0131 -1.76034 -0.345765
323 2 2.2208 5.08868 0.914755 16.4525
324 1 -1.1104 0.873464 -3.25265 17.8622
325 1 -1.1104 1.0197 2.38202 17.9771
328 1 -1.1104 0.986628 -3.41179 15.0065
330 1 -1.1104 1.14039 2.17893 15.2453
336 1 -1.1104 1.11022 -0.329316 18.0863
338 2 2.2208 5.19834 -1.93268 19.1786
339 2 2.2208 5.19901 3.65145 19.0755
340 1 -1.1104 0.896677 -0.609174 15.2603
344 1 -1.1104 3.79685 -3.27933 17.8825
345 1 -1.1104 3.94274 2.28271 17.8625
346 2 2.2208 2.45655 0.896711 19.4082
347 1 -1.1104 3.84583 -3.29836 15.1907
349 1 -1.1104 3.87853 2.23153 15.0233
351 2 2.2208 2.43615 -1.8191 16.5648
353 1 -1.1104 3.86286 -0.389232 17.9114
354 1 -1.1104 3.71043 -0.586681 15.1207
352 2 2.2208 2.4224 3.69089 16.551
341 1 -1.1104 0.733669 -0.444154 21.0451
334 1 -1.1104 6.4402 2.42751 15.097
327 1 -1.1104 6.7499 2.25315 17.7857
342 1 -1.1104 6.41534 -0.476742 15.2676
318 2 2.2208 10.8346 3.61925 13.6682
355 1 -1.1104 3.61711 -0.598414 20.6836
335 1 -1.1104 6.57223 2.32832 20.5661
9017 2 2.2208 13.6241 12.0761 24.8171
8118 2 2.2208 8.12512 -4.60205 24.8729
332 1 -1.1104 6.63546 -3.23029 15.1987
326 1 -1.1104 6.54493 -3.25731 17.883
8973 2 2.2208 13.6843 17.8115 19.4644
337 1 -1.1104 6.49795 -0.488963 18.0344
366 2 2.2208 10.8567 0.905878 16.5977
367 1 -1.1104 12.27 -3.24892 17.9269
368 1 -1.1104 12.1853 2.33466 17.8147
369 1 -1.1104 12.2303 -3.24292 15.2381
371 1 -1.1104 12.1612 2.35426 14.9722
373 1 -1.1104 12.4181 -0.397739 17.9693
374 2 2.2208 10.8674 -1.90001 19.2815
376 1 -1.1104 12.3066 -0.407811 15.1019
378 1 -1.1104 9.24663 -3.31586 17.8123
379 1 -1.1104 9.50322 2.33077 17.8987
380 2 2.2208 8.08938 0.962568 19.2127
381 1 -1.1104 9.52099 -3.4029 14.9823
383 1 -1.1104 9.32481 2.12486 15.2583
385 2 2.2208 7.95604 -1.91883 16.6436
386 2 2.2208 8.03527 3.81018 16.5698
387 1 -1.1104 9.48452 -0.506798 18.005
388 1 -1.1104 9.39826 -0.660289 15.1777
375 2 2.2208 10.828 3.66261 19.4343
384 1 -1.1104 9.38529 2.45569 20.7468
389 1 -1.1104 9.27465 -0.342249 20.7391
382 1 -1.1104 9.5119 -3.23311 20.6705
370 1 -1.1104 12.1444 -3.35826 20.6963
333 1 -1.1104 6.72499 -3.35454 20.6676
621 1 -1.1104 9.42134 13.654 26.2506
343 1 -1.1104 6.53613 -0.562824 20.7052
377 1 -1.1104 12.1674 -0.509316 20.7425
372 1 -1.1104 12.2383 2.3833 20.7287
9093 2 2.2208 13.6784 9.45333 22.0733
553 1 -1.1104 12.2751 13.4693 23.3177
392 1 -1.1104 9.4587 16.3204 23.3788
8945 2 2.2208 13.6498 -1.90644 21.9796
399 2 2.2208 5.23301 6.50278 16.5387
400 2 2.2208 5.229 12.0713 16.5418
401 1 -1.1104 0.989473 7.99193 17.7732
403 1 -1.1104 1.00453 7.90851 15.0512
407 1 -1.1104 1.02722 5.14611 17.936
408 1 -1.1104 0.85685 10.7549 17.8201
411 2 2.2208 5.39554 9.29724 19.3873
412 1 -1.1104 1.11978 5.11006 15.0495
414 1 -1.1104 1.07157 10.7662 15.0943
420 1 -1.1104 3.76332 7.94672 17.964
421 2 2.2208 2.40072 6.56526 19.1912
422 2 2.2208 2.44942 12.2074 19.281
423 1 -1.1104 3.869 7.98378 15.0043
425 2 2.2208 2.43666 9.27971 16.4116
426 1 -1.1104 3.73848 5.09303 17.8555
427 1 -1.1104 3.73938 10.7447 17.9521
428 1 -1.1104 3.95757 4.9598 15.1413
430 1 -1.1104 3.75595 10.7518 14.9686
415 1 -1.1104 0.963385 10.599 20.5562
405 1 -1.1104 6.81514 7.88853 15.1607
410 1 -1.1104 6.58441 10.7479 17.9961
418 1 -1.1104 6.52478 10.7864 15.0068
552 2 2.2208 2.35411 3.77276 27.7703
416 1 -1.1104 6.61394 5.27117 15.2194
394 2 2.2208 10.775 17.813 27.5837
402 1 -1.1104 6.62502 7.99471 17.8577
409 1 -1.1104 6.71538 5.13511 18.0129
435 2 2.2208 10.7649 6.52813 16.4713
436 2 2.2208 10.7791 12.2218 16.4867
437 1 -1.1104 12.265 8.02879 17.8603
438 1 -1.1104 12.1815 7.89451 15.0197
440 1 -1.1104 12.1578 5.32503 17.907
441 1 -1.1104 12.2023 10.7253 18.0092
442 2 2.2208 10.8964 9.3705 19.2873
443 1 -1.1104 12.1722 5.28697 14.9671
445 1 -1.1104 12.4263 10.7227 15.0729
447 1 -1.1104 9.40171 7.95317 18.0623
448 2 2.2208 8.09025 6.45599 19.3249
449 2 2.2208 8.06579 12.1249 19.1801
450 1 -1.1104 9.44698 7.96366 15.1668
452 2 2.2208 8.10416 9.37346 16.4499
453 1 -1.1104 9.35035 5.11335 18.0144
454 1 -1.1104 9.37206 10.901 17.7294
455 1 -1.1104 9.3619 5.06495 15.241
457 1 -1.1104 9.48395 10.7335 15.0487
419 1 -1.1104 6.531 10.7222 20.8535
406 1 -1.1104 6.7866 7.93638 20.6848
446 1 -1.1104 12.1845 10.925 20.7017
458 1 -1.1104 9.31442 10.6917 20.5019
456 1 -1.1104 9.41697 5.16837 20.8282
8825 2 2.2208 -0.482156 17.7361 22.1155
8829 2 2.2208 -0.474861 -1.87041 25.0124
462 2 2.2208 4.98664 17.6252 16.4599
463 1 -1.1104 1.12296 13.5651 18.0019
464 1 -1.1104 0.845187 19.169 17.864
467 1 -1.1104 1.05622 13.5467 15.0461
469 1 -1.1104 1.21442 19.1963 14.9956
475 1 -1.1104 0.934144 16.3168 17.7946
477 2 2.2208 5.21124 15.0151 19.1384
478 2 2.2208 5.29261 20.4562 19.2871
479 1 -1.1104 1.06323 16.3089 14.9912
483 1 -1.1104 3.77545 13.5411 17.8643
484 1 -1.1104 3.66963 19.2124 17.9853
485 2 2.2208 2.29891 17.8091 19.2565
486 1 -1.1104 3.82727 13.4003 15.0527
488 1 -1.1104 4.04578 19.1372 15.121
490 2 2.2208 2.31954 14.8493 16.4977
491 2 2.2208 2.37148 20.5525 16.5555
492 1 -1.1104 3.66278 16.3289 17.7107
493 1 -1.1104 3.92634 16.3027 14.9236
473 1 -1.1104 6.66241 19.2136 15.063
465 1 -1.1104 6.73623 13.6024 17.9213
466 1 -1.1104 6.62294 18.9194 17.8552
476 1 -1.1104 6.46017 16.296 17.7734
481 1 -1.1104 6.59242 16.4195 15.0594
9044 2 2.2208 -0.365577 9.36514 24.8755
482 1 -1.1104 6.70794 16.3682 20.5585
480 1 -1.1104 0.840765 16.2304 20.7042
487 1 -1.1104 3.71218 13.6701 20.5914
8872 2 2.2208 13.6062 -1.90737 16.4617
509 1 -1.1104 12.2428 16.5283 20.5901
8903 2 2.2208 13.6386 12.3027 19.3387
555 2 2.2208 5.18162 17.7108 27.6255
471 1 -1.1104 6.61766 13.5468 15.1017
498 2 2.2208 10.8071 17.7603 16.4451
499 1 -1.1104 12.3452 13.5157 17.8348
500 1 -1.1104 12.2259 18.9984 17.8356
501 1 -1.1104 12.2534 13.8909 14.8515
503 1 -1.1104 12.3345 19.2986 15.0982
505 1 -1.1104 12.2275 16.2214 17.6266
506 2 2.2208 10.9147 14.9739 19.1635
507 2 2.2208 10.8011 20.6842 19.2022
508 1 -1.1104 12.1672 16.545 14.8304
510 1 -1.1104 9.57572 13.5732 18.0406
511 1 -1.1104 9.34954 19.1972 18.0323
512 2 2.2208 8.07984 17.7279 19.2685
513 1 -1.1104 9.61621 13.56 15.0509
515 1 -1.1104 9.42918 19.0313 15.0031
517 2 2.2208 7.96551 14.9896 16.4218
518 2 2.2208 8.01152 20.5238 16.5802
519 1 -1.1104 9.4319 16.3525 17.7209
520 1 -1.1104 9.4167 16.3634 15.0725
516 1 -1.1104 9.52141 19.2449 20.69
504 1 -1.1104 12.3552 19.4119 20.6804
8901 2 2.2208 13.7445 9.42835 16.62
649 1 -1.1104 6.67961 16.3335 26.0939
350 1 -1.1104 3.82645 2.36242 20.7182
329 1 -1.1104 0.895661 -3.3837 20.6545
331 1 -1.1104 1.06904 2.18366 20.89
348 1 -1.1104 3.69196 -3.39432 20.7847
526 2 2.2208 5.15833 0.800164 22.1173
527 1 -1.1104 1.1063 -3.3617 23.5133
528 1 -1.1104 0.839515 2.25778 23.6531
531 1 -1.1104 1.05585 -3.44578 26.2392
532 1 -1.1104 0.989976 2.41947 26.2974
535 1 -1.1104 1.00954 -0.659556 23.6947
537 2 2.2208 5.14166 -1.82796 25.0455
538 2 2.2208 5.20624 3.79475 25.0029
539 1 -1.1104 1.02413 -0.411396 26.4758
541 1 -1.1104 3.86863 -3.18307 23.5242
542 1 -1.1104 3.70132 2.41934 23.4657
543 2 2.2208 2.30894 0.952379 24.9945
544 1 -1.1104 3.72832 -3.08116 26.3605
545 1 -1.1104 3.64698 2.44361 26.3084
546 2 2.2208 2.26399 -1.92406 22.2138
547 2 2.2208 2.41511 3.79261 22.1143
548 1 -1.1104 3.65688 -0.34715 23.6015
549 1 -1.1104 3.74632 -0.347833 26.4058
391 1 -1.1104 9.59388 16.3367 26.2225
647 1 -1.1104 6.50397 13.5756 26.3681
589 1 -1.1104 9.2866 13.5397 23.5478
540 1 -1.1104 6.55981 -0.498331 26.3869
8907 2 2.2208 13.6421 15.0736 21.9772
588 1 -1.1104 12.3139 16.395 26.2313
530 1 -1.1104 6.60217 2.25486 23.6109
534 1 -1.1104 6.50818 2.35666 26.2311
529 1 -1.1104 6.73527 -3.22545 23.5486
533 1 -1.1104 6.63772 -3.29037 26.4444
536 1 -1.1104 6.52133 -0.550412 23.5253
562 2 2.2208 10.6524 1.0098 22.0234
563 1 -1.1104 12.2968 -3.22252 23.4245
564 1 -1.1104 12.1967 2.41931 23.4894
565 1 -1.1104 12.1916 -3.1971 26.2957
566 1 -1.1104 12.1913 2.3684 26.346
567 1 -1.1104 12.1589 -0.405705 23.4302
568 2 2.2208 10.8387 -1.80264 24.9004
570 1 -1.1104 12.2674 -0.327159 26.2409
571 1 -1.1104 9.55172 -3.31278 23.4054
572 1 -1.1104 9.41674 2.29157 23.5046
573 2 2.2208 7.89618 0.909216 24.8935
574 1 -1.1104 9.48033 -3.14216 26.1831
575 1 -1.1104 9.36039 2.44921 26.3571
576 2 2.2208 8.11181 -1.92559 22.1043
577 2 2.2208 7.94869 3.7756 22.0217
578 1 -1.1104 9.4812 -0.530237 23.6293
579 1 -1.1104 9.38406 -0.47372 26.3251
569 2 2.2208 10.7872 3.79771 24.9089
525 2 2.2208 10.7638 17.7399 22.0807
431 1 -1.1104 3.75054 10.6801 20.796
429 1 -1.1104 3.8278 5.02701 20.5808
404 1 -1.1104 0.944055 7.84254 20.6342
424 1 -1.1104 3.89227 7.88412 20.7037
417 1 -1.1104 6.74361 5.16795 20.6218
413 1 -1.1104 0.941256 5.03302 20.8038
591 2 2.2208 5.2022 6.55902 22.0254
592 2 2.2208 5.21453 12.1194 21.9755
593 1 -1.1104 1.05771 7.99999 23.5609
595 1 -1.1104 0.912095 7.9806 26.3757
597 1 -1.1104 0.815851 5.25634 23.6004
598 1 -1.1104 0.945314 10.7179 23.4216
601 2 2.2208 5.33922 9.34045 24.8301
602 1 -1.1104 1.1795 5.23605 26.3347
603 1 -1.1104 1.06196 10.8856 26.3546
606 1 -1.1104 3.7497 8.1467 23.6731
607 2 2.2208 2.39413 6.57293 24.9681
608 2 2.2208 2.37976 12.0977 24.77
609 1 -1.1104 3.67453 7.86256 26.4804
610 2 2.2208 2.3755 9.33581 22.0973
611 1 -1.1104 3.67377 5.28743 23.5336
612 1 -1.1104 3.81477 10.8558 23.449
613 1 -1.1104 3.83554 5.04657 26.204
614 1 -1.1104 3.89895 10.6122 26.3127
594 1 -1.1104 6.52093 7.90822 23.3894
600 1 -1.1104 6.67734 10.6831 23.515
596 1 -1.1104 6.74073 7.87108 26.2355
599 1 -1.1104 6.52536 5.16211 23.3362
605 1 -1.1104 6.62127 10.6636 26.2816
8974 2 2.2208 13.716 20.6041 16.3918
8826 2 2.2208 -0.419789 20.5568 24.8371
644 2 2.2208 7.99649 14.8709 21.9478
645 2 2.2208 8.00197 20.5568 22.1901
444 1 -1.1104 12.2628 5.19811 20.7245
451 1 -1.1104 9.57782 8.01746 20.7551
439 1 -1.1104 12.2297 8.04099 20.7157
604 1 -1.1104 6.57398 5.16818 26.3934
622 1 -1.1104 9.43977 10.9121 26.2653
623 1 -1.1104 9.45274 5.22542 26.1428
624 1 -1.1104 9.54055 10.8817 23.4063
625 1 -1.1104 9.38741 4.97759 23.3954
626 2 2.2208 8.11011 9.34609 22.0113
627 1 -1.1104 9.45395 8.07398 26.1716
628 2 2.2208 8.08661 12.1459 24.8929
629 2 2.2208 8.07597 6.55259 24.8602
630 2 2.2208 10.9263 6.57036 22.0139
631 2 2.2208 10.7839 12.042 22.0203
632 1 -1.1104 12.1486 7.97169 23.5293
633 1 -1.1104 12.2395 8.00657 26.2522
634 1 -1.1104 12.1752 5.21451 23.5378
635 1 -1.1104 12.3082 10.7243 23.5679
636 2 2.2208 10.8987 9.40929 24.8943
637 1 -1.1104 12.2797 5.13967 26.3723
638 1 -1.1104 12.1576 10.7993 26.2755
639 1 -1.1104 9.41603 7.99255 23.3835
587 2 2.2208 10.8908 20.5144 24.8649
559 1 -1.1104 12.3341 19.0833 26.1235
460 1 -1.1104 6.63768 18.9494 23.3339
468 1 -1.1104 0.986695 13.4892 20.7707
489 1 -1.1104 3.85986 19.2257 20.7665
470 1 -1.1104 1.00801 19.083 20.7611
472 1 -1.1104 6.53867 13.6147 20.5811
620 1 -1.1104 6.5292 19.1044 26.1246
643 1 -1.1104 9.412 19.1105 26.1027
474 1 -1.1104 6.72302 19.1067 20.5813
432 1 -1.1104 6.57471 13.425 23.4171
494 1 -1.1104 3.79537 16.4292 20.4762
361 1 -1.1104 3.75192 13.5949 26.216
363 1 -1.1104 3.82891 16.354 26.1625
364 2 2.2208 2.45291 17.8093 24.8804
365 1 -1.1104 3.88027 19.2917 26.3488
396 2 2.2208 5.19311 17.7392 21.971
397 1 -1.1104 1.11655 13.5476 23.6248
398 1 -1.1104 0.974889 19.1312 23.5905
433 2 2.2208 5.24301 14.9005 24.8069
459 2 2.2208 5.11952 20.5125 24.8521
557 2 2.2208 2.37878 15.0633 22.0142
584 2 2.2208 2.35491 20.6199 22.0794
585 1 -1.1104 3.90953 16.3892 23.4545
586 1 -1.1104 1.10924 16.4406 23.3962
646 1 -1.1104 3.8077 19.273 23.4559
648 1 -1.1104 3.88439 13.6149 23.3234
650 1 -1.1104 0.906845 19.0747 26.2698
651 1 -1.1104 0.989013 16.4314 26.2443
652 1 -1.1104 0.970295 13.6852 26.4391
358 1 -1.1104 6.53044 16.2017 23.2355
521 1 -1.1104 9.48136 16.3708 20.5474
561 1 -1.1104 12.0516 16.3519 23.3038
8902 2 2.2208 13.5914 6.49737 19.2163
554 1 -1.1104 12.2016 19.2237 23.4224
558 1 -1.1104 12.1045 13.6029 26.2943
502 1 -1.1104 12.179 13.7269 20.6827
514 1 -1.1104 9.40975 13.4736 20.7408
590 1 -1.1104 9.35435 19.1769 23.4569
619 2 2.2208 8.02787 17.6539 24.6926
583 2 2.2208 10.8304 14.9271 24.7118
319 2 2.2208 2.37507 6.61764 13.5665
8900 2 2.2208 13.5893 14.8871 27.5874
616 2 2.2208 2.48911 9.45633 27.7965
642 2 2.2208 10.774 12.1316 27.726
8871 2 2.2208 13.61 -1.72264 27.6104
362 2 2.2208 -0.391812 3.69051 19.3795
617 2 2.2208 5.28 12.1127 27.7555
393 2 2.2208 2.53253 14.9758 27.6481
9046 2 2.2208 13.6302 3.79092 27.7681
390 2 2.2208 8.13372 14.9623 27.5494
9018 2 2.2208 -0.474688 6.62811 27.6406
8226 2 2.2208 10.6916 -4.53874 27.6195
640 2 2.2208 10.8175 6.62207 27.6274
523 2 2.2208 10.8032 15.1641 13.5949
322 2 2.2208 10.8901 9.32325 13.6904
314 2 2.2208 2.3941 0.933706 13.6109
321 2 2.2208 8.01889 6.52836 13.724
316 2 2.2208 7.98007 0.878905 13.8524
320 2 2.2208 5.20226 9.42142 13.6383
495 2 2.2208 2.41589 17.744 13.5346
8905 2 2.2208 13.5304 12.1167 13.6157
315 2 2.2208 5.09717 3.70896 13.6557
317 2 2.2208 10.8361 -1.92303 13.7014
434 2 2.2208 2.41925 12.1223 13.6603
8796 2 2.2208 13.5207 6.52941 13.6859
653 2 2.2208 5.31578 23.2048 5.21869
654 2 2.2208 5.06706 28.819 5.25569
655 1 -1.1104 1.05372 24.7375 0.937914
656 1 -1.1104 0.984255 24.4751 3.90373
657 1 -1.1104 1.06964 21.8401 1.18428
658 1 -1.1104 0.910123 27.5105 1.00723
659 2 2.2208 5.26176 26.2065 2.45792
660 1 -1.1104 1.06492 21.8591 3.90537
661 1 -1.1104 0.916734 27.31 3.86489
662 1 -1.1104 3.90505 24.7437 1.05996
663 2 2.2208 2.48127 23.286 2.55744
664 2 2.2208 2.36497 28.9735 2.46239
665 1 -1.1104 3.77638 24.7521 3.96393
666 2 2.2208 2.31871 26.0345 5.35546
667 1 -1.1104 3.80734 21.8588 0.903382
668 1 -1.1104 3.66482 27.6702 1.04851
669 1 -1.1104 3.93573 21.8696 3.72442
670 1 -1.1104 3.7001 27.5953 3.97848
677 1 -1.1104 6.53933 27.4207 1.1054
674 1 -1.1104 6.62481 24.8293 0.952901
676 1 -1.1104 6.71742 22.0281 0.957487
679 1 -1.1104 6.47172 27.6915 3.73564
1568 1 -1.1104 12.1892 47.0584 12.2275
1530 1 -1.1104 6.64407 46.9628 6.60244
794 1 -1.1104 0.913348 24.6847 6.67538
1353 1 -1.1104 3.90981 46.9032 1.16971
1193 2 2.2208 5.17516 23.2888 -0.436743
1336 1 -1.1104 6.74099 47.0919 0.994401
675 1 -1.1104 6.5928 24.6866 3.70594
678 1 -1.1104 6.80944 21.9186 3.93192
680 2 2.2208 10.961 23.2942 5.18176
681 2 2.2208 10.8334 28.8703 5.29634
682 1 -1.1104 12.3246 24.7999 1.08316
683 1 -1.1104 12.1931 24.7059 3.68388
684 1 -1.1104 12.1406 21.9673 0.977318
685 1 -1.1104 12.1583 27.5845 1.01917
686 2 2.2208 10.8532 26.1978 2.56558
687 1 -1.1104 12.3578 21.939 3.73992
688 1 -1.1104 12.3313 27.5562 3.7619
689 1 -1.1104 9.50107 24.7111 1.29236
690 2 2.2208 8.11283 23.2183 2.4603
691 2 2.2208 8.01516 28.8964 2.42492
692 1 -1.1104 9.23912 24.7695 4.03585
693 2 2.2208 8.00871 26.1719 5.17177
694 1 -1.1104 9.4096 21.8766 1.07977
695 1 -1.1104 9.24281 27.6854 1.06952
696 1 -1.1104 9.66139 21.813 3.83461
697 1 -1.1104 9.45814 27.4612 3.96776
1328 2 2.2208 -0.364737 37.3243 13.7129
1547 1 -1.1104 3.83745 46.8904 12.2228
1529 1 -1.1104 1.11666 47.0231 6.78568
798 1 -1.1104 6.70664 21.8632 6.53043
830 1 -1.1104 9.54604 24.5911 6.6212
828 1 -1.1104 12.1749 21.9543 6.55341
9475 2 2.2208 13.6629 40.1067 2.4351
1252 2 2.2208 2.31257 37.2545 -0.467119
705 1 -1.1104 1.04694 30.2001 3.747
713 1 -1.1104 3.82232 30.3672 0.925606
716 1 -1.1104 3.71991 30.3362 3.77621
702 1 -1.1104 0.945004 30.4371 0.942822
701 2 2.2208 5.20703 34.5067 5.14405
703 1 -1.1104 1.07321 35.9853 1.07477
706 1 -1.1104 0.969267 35.9082 3.88164
708 1 -1.1104 0.878187 33.2089 1.06591
709 2 2.2208 5.18306 31.6914 2.33529
710 2 2.2208 5.1652 37.2433 2.3076
711 1 -1.1104 0.986184 33.0048 3.75734
714 1 -1.1104 3.98724 35.9462 0.892081
715 2 2.2208 2.34994 34.3869 2.40586
717 1 -1.1104 3.59424 35.8929 3.76312
718 2 2.2208 2.42978 31.6305 5.27253
719 2 2.2208 2.40358 37.3179 5.13598
720 1 -1.1104 3.77714 33.1311 1.03885
721 1 -1.1104 3.84965 32.9462 3.87665
707 1 -1.1104 6.44974 35.9781 3.86294
726 1 -1.1104 6.5417 30.3321 3.73094
859 1 -1.1104 3.84328 33.2076 6.55129
858 1 -1.1104 3.70457 36.0154 6.58924
856 1 -1.1104 6.66324 33.0166 6.73185
1536 1 -1.1104 1.20733 46.9456 9.45576
1533 1 -1.1104 1.01397 46.9136 12.3721
1570 1 -1.1104 12.294 47.1428 9.45984
1531 1 -1.1104 3.82213 46.944 6.63471
963 1 -1.1104 9.32468 38.6434 6.64955
712 1 -1.1104 6.7154 33.0916 3.80008
854 1 -1.1104 6.64899 35.8046 6.45267
727 1 -1.1104 6.52733 32.9927 0.981713
725 1 -1.1104 6.67788 30.2347 1.03528
704 1 -1.1104 6.73967 35.7912 0.910799
729 1 -1.1104 12.2746 30.4022 1.1986
731 1 -1.1104 12.1221 30.3098 3.94206
740 1 -1.1104 9.33917 30.2118 3.85583
728 2 2.2208 10.6876 34.4703 5.23845
730 1 -1.1104 12.1453 35.94 0.992245
732 1 -1.1104 12.2105 35.7556 3.86213
733 1 -1.1104 12.1844 33.1391 1.10048
734 2 2.2208 10.8308 31.6691 2.51663
735 2 2.2208 10.7357 37.2755 2.40358
736 1 -1.1104 12.1263 32.9662 4.03683
737 1 -1.1104 9.5346 30.5524 0.884252
738 1 -1.1104 9.35718 35.9683 1.01715
739 2 2.2208 8.0096 34.5074 2.475
741 1 -1.1104 9.37102 35.8688 3.8579
742 2 2.2208 8.01807 31.479 5.32386
743 2 2.2208 7.9526 37.2964 5.25577
744 1 -1.1104 9.39195 33.2194 1.05138
745 1 -1.1104 9.49317 33.2041 3.60381
886 1 -1.1104 12.167 35.9087 6.54975