LAMMPS data file via write_data, version 29 Oct 2020, timestep = 100119

17700 atoms
3 atom types

-0.4300995109992022 27.77009951099875 xlo xhi
-5.435755749140622 333.5157557491383 ylo yhi
-0.44315831592215427 27.783158315922254 zlo zhi

Masses

1 15.9994
2 232.0381
3 131.293

Atoms # full

1 0 2 2.2208 5.392547632001489 0.3896475375771218 5.4284996893841155 0 0 0
2 0 1 -1.1104 1.4649320358718896 -4.0439126797840546 1.2136032636593475 0 0 0
6 0 1 -1.1104 1.2886596048213572 -3.8225779768777395 3.9256708769688298 0 0 0
10 0 1 -1.1104 1.1906215450931323 -1.30664570636223 1.2332443439978826 0 0 0
12 0 2 2.2208 5.424803748455103 -2.5494309902014396 2.5357001476319736 0 0 0
14 0 1 -1.1104 0.9737436169518532 -0.9112766115928483 3.97354318048944 0 0 0
16 0 1 -1.1104 4.1148249834006405 -3.8999551220372446 1.0574121250222086 0 0 0
18 0 2 2.2208 2.5119427190853965 0.3296004326469214 2.584564495378871 0 0 0
19 0 1 -1.1104 4.054905730245765 -4.01047712361501 3.8592919327923516 0 0 0
21 0 2 2.2208 2.530422548908367 -2.5570624804625064 5.450899251579528 0 0 0
23 0 1 -1.1104 3.987952505678754 -0.9064072421592142 1.2265992549802662 0 0 0
24 0 1 -1.1104 3.8456191800774384 -1.2969409726912067 3.919053198997536 0 0 0
8 0 1 -1.1104 6.837854427762253 -3.8299389360810743 3.945547848935876 0 0 0
382 0 2 2.2208 2.4902742924364887 -2.637660609291799 -0.34102128098332374 0 0 0
381 0 2 2.2208 5.241725991839567 0.38608094991108716 -0.12918123226457154 0 0 0
29 0 2 2.2208 5.368144809444582 -5.3808895155569045 5.347239903866553 0 0 0
385 0 2 2.2208 5.362687671359967 -5.306100483387308 -0.24198524652990008 0 0 0
26 0 2 2.2208 -0.33990005743846874 0.3197843856897755 5.419579413486093 0 0 0
202 0 2 2.2208 2.388158861601874 -5.331359063032797 8.17612648692231 0 0 0
372 0 2 2.2208 10.789854406701767 20.00234136260124 13.614052676026665 0 0 0
25 0 2 2.2208 -0.1915406915847276 -2.486848288711625 2.819695675268212 0 0 0
28 0 2 2.2208 2.5515971383627365 -5.303535775482878 2.6862944672417126 0 0 0
4 0 1 -1.1104 6.9068728876550685 -3.6900277432760125 1.1643701007155245 0 0 0
11 0 1 -1.1104 6.927937616197853 -1.028443775760711 1.1874665263271806 0 0 0
171 0 1 -1.1104 6.7533261264154865 -1.0168388602678027 6.974361964234719 0 0 0
15 0 1 -1.1104 6.758651881671366 -1.025307455284792 4.133362222967286 0 0 0
31 0 2 2.2208 10.905330176815605 0.19304114983775553 5.462929852693812 0 0 0
32 0 1 -1.1104 12.348616741748295 -4.164388420818573 1.1839123822797974 0 0 0
34 0 1 -1.1104 12.28776226923783 -4.054099583882955 3.9673119755228137 0 0 0
36 0 1 -1.1104 12.420797489945729 -1.3652281272617641 1.2079429475338557 0 0 0
37 0 2 2.2208 10.853355911831882 -2.5746628407494168 2.5232355393192467 0 0 0
39 0 1 -1.1104 12.186168379728059 -1.3126375684244982 4.0844049988442155 0 0 0
40 0 1 -1.1104 9.630486254903333 -4.1004446282833555 1.1383501395885727 0 0 0
42 0 2 2.2208 8.099001617057416 0.391339042236339 2.6697832107172683 0 0 0
43 0 1 -1.1104 9.482333704324956 -3.9557914953874804 4.0553516503383245 0 0 0
45 0 2 2.2208 8.003463777608905 -2.56138741706773 5.4393235313755595 0 0 0
47 0 1 -1.1104 9.60529668125136 -1.1313927148840657 1.2066865145068797 0 0 0
48 0 1 -1.1104 9.521015720499816 -1.0260662353640593 4.00433553765394 0 0 0
388 0 2 2.2208 8.234998025824622 -2.7346013052003544 -0.2947608036848503 0 0 0
51 0 2 2.2208 8.249695398377465 -5.330784978130815 2.711353306561984 0 0 0
52 0 2 2.2208 10.943571664077448 -5.4103570088932775 5.402923061342186 0 0 0
50 0 2 2.2208 13.649330995162067 -2.672815639313668 5.418159388933997 0 0 0
387 0 2 2.2208 11.203477070587484 0.08983918102786462 -0.2214076045630126 0 0 0
321 0 1 -1.1104 9.348952459071045 18.737740923489522 12.362097127719965 0 0 0
3 0 1 -1.1104 1.1040238105626536 1.4891186064434272 1.133245184911783 0 0 0
7 0 1 -1.1104 1.2144553330093395 1.8564795632104487 3.8213281264590866 0 0 0
13 0 2 2.2208 5.167624595695194 2.957600210127661 2.546184514614986 0 0 0
17 0 1 -1.1104 3.8284041499597485 1.7900052619577296 1.2269253591381735 0 0 0
20 0 1 -1.1104 3.9504790323935493 1.767090013924169 3.9676455647721345 0 0 0
22 0 2 2.2208 2.4220529093791914 3.179980387740628 5.364019649352566 0 0 0
54 0 2 2.2208 5.49250093058883 5.822263850254524 5.306820359820657 0 0 0
60 0 1 -1.1104 1.0638181652023262 4.318882717084638 1.4006871562878458 0 0 0
67 0 1 -1.1104 1.0626173059844655 4.659094355685775 4.220736230235439 0 0 0
72 0 2 2.2208 2.435869449527883 5.708232866274078 2.5095327718535807 0 0 0
74 0 1 -1.1104 3.9475230888375203 7.0222151608864305 3.8410272695690706 0 0 0
76 0 1 -1.1104 3.8456111481687856 4.557354079718431 1.004145643320364 0 0 0
79 0 1 -1.1104 3.927232375006411 4.339034781283363 3.7250940181217773 0 0 0
71 0 1 -1.1104 3.6965958547617306 7.3080530112895365 1.0296206023603116 0 0 0
56 0 1 -1.1104 0.8986170310439561 6.936749283881182 1.0700978992869457 0 0 0
58 0 1 -1.1104 1.1918360293279906 7.30618941865578 4.101293450222037 0 0 0
57 0 1 -1.1104 6.657554495393829 6.997705906977712 1.2898283887632378 0 0 0
69 0 1 -1.1104 6.922902897709158 4.309410596129648 4.01374431785874 0 0 0
59 0 1 -1.1104 6.894844643227439 7.114599296110022 4.007555640817004 0 0 0
383 0 2 2.2208 2.3050320771740584 3.0788953730521036 -0.1347506793609403 0 0 0
393 0 2 2.2208 5.3307538335765265 5.791782320989166 -0.3436663072772573 0 0 0
9 0 1 -1.1104 6.654338179575209 1.6709676309531223 4.128707378333315 0 0 0
5 0 1 -1.1104 6.642520485283392 1.7585843647976032 1.306490007871289 0 0 0
63 0 1 -1.1104 6.740205387663289 4.347592032667337 1.1967907612281479 0 0 0
33 0 1 -1.1104 12.585168505785585 1.5082569807480901 1.2030111544487148 0 0 0
35 0 1 -1.1104 12.19761591906719 1.6073375186114303 4.048177972202062 0 0 0
38 0 2 2.2208 11.01674879872432 3.150967295826669 2.5041221887187426 0 0 0
41 0 1 -1.1104 9.701050527318593 1.6983913380804467 1.3839904868809425 0 0 0
44 0 1 -1.1104 9.553733166437507 1.7604773308544315 4.2039492219811825 0 0 0
46 0 2 2.2208 8.220380688392922 3.0580788497416 5.415320475137982 0 0 0
84 0 2 2.2208 10.878181009284335 5.796504161894147 5.4465744847082815 0 0 0
88 0 1 -1.1104 12.426173411656897 4.427449435348317 0.9883879968815396 0 0 0
92 0 1 -1.1104 12.482657768568872 4.672235176123062 4.008370038896688 0 0 0
95 0 2 2.2208 8.113963907514025 5.820508464800203 2.5812619906014658 0 0 0
99 0 1 -1.1104 9.546767157995841 4.3622263936156385 1.298478934213958 0 0 0
102 0 1 -1.1104 9.536889575522466 4.5881483974734785 4.073968654128684 0 0 0
97 0 1 -1.1104 9.558143508782416 7.429186014289882 3.985875619026056 0 0 0
94 0 1 -1.1104 9.534932307739519 7.300341771178628 1.0633520780226307 0 0 0
87 0 1 -1.1104 12.398006954530741 7.287635064350747 4.175433867420374 0 0 0
86 0 1 -1.1104 12.551018395770614 7.379963201163963 1.3069331834111817 0 0 0
323 0 1 -1.1104 12.12143956256177 15.786666947442402 9.53518193642083 0 0 0
398 0 2 2.2208 10.819822460692269 5.848024008378956 -0.1674361585600698 0 0 0
331 0 2 2.2208 10.800348732587958 17.173962796554743 10.890489115337196 0 0 0
389 0 2 2.2208 8.275840092888835 3.0281428551243037 -0.12158310152653357 0 0 0
55 0 2 2.2208 5.1969748874023685 11.399048148288824 5.419884743298262 0 0 0
61 0 1 -1.1104 0.9241673021835856 9.834356563245564 1.307275315658103 0 0 0
66 0 2 2.2208 5.2271417157149624 8.634434270888413 2.5099849897008193 0 0 0
68 0 1 -1.1104 0.7955772898912141 9.970545200842091 4.150110232080941 0 0 0
73 0 2 2.2208 2.2806314628841378 11.224569556318597 2.7340077887099192 0 0 0
75 0 2 2.2208 2.217942740967583 8.571950581287846 5.556630615069553 0 0 0
77 0 1 -1.1104 3.7512318544322243 10.182871402324826 0.8632108706854189 0 0 0
80 0 1 -1.1104 3.521613945062701 9.904630723718332 3.832072343967094 0 0 0
107 0 1 -1.1104 1.0267783856016142 12.675982852545635 1.370049358223729 0 0 0
113 0 1 -1.1104 0.9230327878513785 12.96196379040297 4.028061589328096 0 0 0
123 0 1 -1.1104 3.940786588243207 12.684463846289592 1.168490180101656 0 0 0
128 0 1 -1.1104 3.910927487873576 12.586108943894343 3.8543771076126214 0 0 0
70 0 1 -1.1104 6.469419051570228 9.7881775901344 4.145571766358027 0 0 0
64 0 1 -1.1104 6.521207207904678 10.141101836282033 1.5649398682638478 0 0 0
395 0 2 2.2208 5.317454040692865 11.439745456008604 -0.3387023468307611 0 0 0
394 0 2 2.2208 2.3594766579613395 8.729464060423448 -0.3530752306696866 0 0 0
108 0 1 -1.1104 1.0679300575661297 12.828204711388219 6.747417806332821 0 0 0
396 0 2 2.2208 -0.25696864026150057 11.517675076847246 -0.2860664661970617 0 0 0
110 0 1 -1.1104 6.657083142988078 12.767241516615929 1.0276810890747046 0 0 0
115 0 1 -1.1104 6.701040999256279 12.749225323274638 4.137813956846899 0 0 0
85 0 2 2.2208 10.857712254264984 11.488772103353423 5.380345735976549 0 0 0
89 0 1 -1.1104 12.13004631196389 10.402667991804574 1.1722887172361187 0 0 0
91 0 2 2.2208 10.844844033995617 8.64172923423166 2.713133309067411 0 0 0
93 0 1 -1.1104 12.218523155175525 10.036996168120899 4.248936684511 0 0 0
96 0 2 2.2208 7.951361531624565 11.496537867560107 2.7231410606757547 0 0 0
98 0 2 2.2208 8.101312271894981 8.70899492018664 5.478957324047798 0 0 0
100 0 1 -1.1104 9.399931059437991 10.193388355966432 1.1924501545537496 0 0 0
103 0 1 -1.1104 9.339966802186126 10.229424894806598 3.991356218255595 0 0 0
142 0 1 -1.1104 12.50742787402564 13.038556448501206 1.1362303689792301 0 0 0
146 0 1 -1.1104 12.08490657553717 12.80895657681012 3.977066257092856 0 0 0
153 0 1 -1.1104 9.459814112189742 12.886566558272328 1.1652874273112304 0 0 0
158 0 1 -1.1104 9.524716197898233 12.897544340207107 3.898499895988563 0 0 0
150 0 2 2.2208 10.903457884375264 14.429059751896348 2.383356402907058 0 0 0
399 0 2 2.2208 8.002556671629302 8.68855773683513 -0.10856173220538878 0 0 0
329 0 1 -1.1104 12.143424498501192 18.70086971538968 12.37338577816465 0 0 0
400 0 2 2.2208 10.719829049864845 11.629271502776858 -0.0950186448959145 0 0 0
163 0 1 -1.1104 9.472063168477069 15.797869186300115 6.855900724441654 0 0 0
405 0 2 2.2208 2.3800652623850156 19.912053059475802 -0.2979992328670464 0 0 0
288 0 1 -1.1104 6.478178248921106 18.612651826042622 9.699711217223467 0 0 0
130 0 2 2.2208 2.411874505562766 14.156930560703318 5.414541262811654 0 0 0
119 0 2 2.2208 5.102989830050275 14.284439307417177 2.4849500973032232 0 0 0
106 0 2 2.2208 5.098958005251742 16.98404798007778 5.3918338102218835 0 0 0
109 0 1 -1.1104 1.044620545814456 18.398858300822837 1.2510473705612042 0 0 0
114 0 1 -1.1104 1.0448134896498753 18.467074638328334 4.043889940496399 0 0 0
116 0 1 -1.1104 1.03505647439016 15.427448321592406 1.196766360506326 0 0 0
120 0 2 2.2208 5.317986110600792 19.875846623206233 2.68570119094306 0 0 0
121 0 1 -1.1104 0.9325138634981424 15.675933636160742 4.061282703141726 0 0 0
125 0 1 -1.1104 3.8828099816674215 18.422717237039418 1.2425998192340777 0 0 0
127 0 2 2.2208 2.3047512262477086 17.078201772482064 2.524631022685001 0 0 0
129 0 1 -1.1104 3.799372590768058 18.66080768735773 3.760913002952748 0 0 0
131 0 2 2.2208 2.4224498625495663 19.975260531805965 5.349050273875887 0 0 0
132 0 1 -1.1104 3.8763363074982964 15.629682872164976 1.3507131371721979 0 0 0
134 0 1 -1.1104 3.7260440496201874 15.521588361218242 4.097944017554376 0 0 0
126 0 1 -1.1104 3.6380436910370055 18.454557824126695 6.688808998673321 0 0 0
138 0 1 -1.1104 6.7393436666260325 18.469631331988293 1.1953432055845565 0 0 0
139 0 1 -1.1104 6.682549075111337 18.363703229964262 4.15690111755495 0 0 0
404 0 2 2.2208 5.3380577824299245 17.128657809992966 -0.09301205993204024 0 0 0
403 0 2 2.2208 2.5238092699052364 14.048104964222741 -0.1864590934697447 0 0 0
136 0 2 2.2208 -0.2810107928740108 19.93682447891945 2.672540571154564 0 0 0
140 0 1 -1.1104 6.732523967859081 15.640681731247426 1.2976331178873644 0 0 0
122 0 1 -1.1104 6.5790573965033925 15.548908637667068 4.130298385829475 0 0 0
160 0 2 2.2208 7.950504221005817 14.227635917701894 5.393744194319738 0 0 0
141 0 2 2.2208 10.83428625499479 16.997279389045843 5.498614040363414 0 0 0
144 0 1 -1.1104 12.310675914039356 18.325014545886866 1.0741697349251502 0 0 0
147 0 1 -1.1104 12.229702611687827 18.51357041542367 3.9183800409826195 0 0 0
148 0 1 -1.1104 12.316638722559901 15.7031853470258 0.9903091669755703 0 0 0
151 0 2 2.2208 10.979736297512337 19.82674480980578 2.333278559728797 0 0 0
152 0 1 -1.1104 12.329976422138136 15.706399683473075 4.160703199414689 0 0 0
155 0 1 -1.1104 9.525628946773429 18.5423237076056 0.9074419168458782 0 0 0
157 0 2 2.2208 8.057964441639294 16.99472117534951 2.6092511754023824 0 0 0
159 0 1 -1.1104 9.504400885081635 18.39262105538909 3.678878157191493 0 0 0
161 0 2 2.2208 8.316286563158785 19.68818166073815 5.152372827718612 0 0 0
162 0 1 -1.1104 9.535654157895033 15.7086292255098 1.1660523379290948 0 0 0
164 0 1 -1.1104 9.323456938270246 15.702339123287475 4.131599842303082 0 0 0
149 0 1 -1.1104 12.215652681472175 15.893586717501183 6.785137893963333 0 0 0
145 0 1 -1.1104 12.422656008546914 18.6440737109334 6.862779119237065 0 0 0
289 0 1 -1.1104 6.607909557362882 15.869352693222078 9.600359311795259 0 0 0
306 0 1 -1.1104 6.70274225312053 15.796436429448894 12.309875808810583 0 0 0
118 0 1 -1.1104 6.528151236446351 15.707269190597803 6.857900347043934 0 0 0
377 0 2 2.2208 8.05333148353517 14.192343652672553 -0.297098896949432 0 0 0
378 0 2 2.2208 10.801697284305156 16.937780475295263 -0.3365110613659638 0 0 0
315 0 1 -1.1104 9.429325320325987 15.797075475665823 12.330638390121107 0 0 0
379 0 2 2.2208 8.058077820292654 19.818338501868737 -0.26796179147729576 0 0 0
174 0 1 -1.1104 4.105434567076522 -1.2064158913619127 6.6639188506738325 0 0 0
172 0 1 -1.1104 3.7554443663744856 -4.126513775622236 6.720678490368812 0 0 0
170 0 1 -1.1104 1.11465851651046 -1.066981296426071 7.11664483855156 0 0 0
166 0 1 -1.1104 0.9810177115199891 -4.094841080575189 6.816774360299725 0 0 0
175 0 2 2.2208 5.57005027455335 0.1250803203656503 11.047405502612705 0 0 0
176 0 1 -1.1104 0.8650398943092487 -3.8817953266725107 12.358153900989395 0 0 0
180 0 1 -1.1104 1.017957857060967 -4.19140617903549 9.53466507185441 0 0 0
184 0 1 -1.1104 1.064640486105303 -0.9991497236593482 12.464481464157545 0 0 0
186 0 2 2.2208 5.535743659624253 -2.5995986395243422 8.191052972178804 0 0 0
188 0 1 -1.1104 1.153957910588815 -1.2624138102364704 9.706136638448703 0 0 0
190 0 1 -1.1104 3.898978471372364 -4.0338210417870135 12.4400166574104 0 0 0
192 0 2 2.2208 2.6348380736414723 0.2584511899911747 8.30458502429777 0 0 0
193 0 1 -1.1104 3.867734613540434 -3.899019802932133 9.81068323887508 0 0 0
195 0 2 2.2208 2.4873565397922723 -2.5079136234526764 11.07446217373804 0 0 0
197 0 1 -1.1104 3.898945205086383 -1.2028869830391795 12.495761906731758 0 0 0
198 0 1 -1.1104 3.9008582753066494 -1.1681541558429103 9.71958617527813 0 0 0
189 0 1 -1.1104 7.070067951110417 -1.203075959444937 9.62952663105149 0 0 0
203 0 2 2.2208 5.2381421440378055 -5.29161000017989 11.09500504504516 0 0 0
200 0 2 2.2208 -0.41580927778455157 -2.7311043422745476 8.280994355022928 0 0 0
201 0 2 2.2208 -0.23181038402875698 0.17678469387719056 10.962009939376586 0 0 0
231 0 2 2.2208 8.220144552979207 -5.330214153624574 8.154647982402448 0 0 0
210 0 1 -1.1104 9.494587641090881 -1.1122296853556175 6.912183367169967 0 0 0
207 0 1 -1.1104 12.18666836915935 -1.0107808992769258 6.745488001523139 0 0 0
208 0 1 -1.1104 9.528840321740569 -4.009256004184196 6.6992659649461705 0 0 0
168 0 1 -1.1104 6.6534370848143265 -3.9683878417617824 6.956099540172717 0 0 0
178 0 1 -1.1104 6.843342061809262 -4.0778516218892324 12.526950849150507 0 0 0
182 0 1 -1.1104 6.673717478232808 -3.9846108272617298 9.675154565809525 0 0 0
205 0 1 -1.1104 12.155356527894593 -4.074619913185261 6.824614011442371 0 0 0
185 0 1 -1.1104 6.630662035162711 -1.1927622658346955 12.492968785737506 0 0 0
211 0 2 2.2208 10.842390436781464 0.2714353239519982 11.239192877886905 0 0 0
212 0 1 -1.1104 12.438038603334418 -4.038374777717594 12.542570943962845 0 0 0
214 0 1 -1.1104 12.374172781997475 -3.8469536494362315 9.760200581563597 0 0 0
216 0 1 -1.1104 12.2202548848986 -1.240174939865917 12.511700698271147 0 0 0
217 0 2 2.2208 10.876149828093034 -2.5173185078354043 8.151772757890509 0 0 0
219 0 1 -1.1104 12.196726202261654 -1.115518866386205 9.737687835623298 0 0 0
220 0 1 -1.1104 9.562645715014163 -3.954752252044924 12.531622431576674 0 0 0
222 0 2 2.2208 8.249447286038443 0.4901928947741124 8.29894540490994 0 0 0
223 0 1 -1.1104 9.661402700823377 -4.139975086165379 9.50105028717845 0 0 0
225 0 2 2.2208 8.209784738762233 -2.5622576285727177 11.1574561674984 0 0 0
227 0 1 -1.1104 9.416553017609493 -1.0848044010255662 12.489543328688285 0 0 0
228 0 1 -1.1104 9.548960591374488 -1.2578565230329408 9.813170093313209 0 0 0
314 0 1 -1.1104 9.295627841525679 15.703377049323219 9.58835101174865 0 0 0
238 0 1 -1.1104 3.871270418920765 7.310084498768642 6.726069935408579 0 0 0
167 0 1 -1.1104 1.0933651035151213 1.8437378579352752 6.715762433350174 0 0 0
237 0 1 -1.1104 6.807107835980774 4.492900717126322 6.73931599444903 0 0 0
173 0 1 -1.1104 3.99752755233536 1.6821859309339393 6.78516015078048 0 0 0
236 0 1 -1.1104 1.1092289174194305 4.548493349894968 6.947858497939921 0 0 0
239 0 1 -1.1104 3.8380158467034686 4.527989107590186 6.7400562943687055 0 0 0
234 0 1 -1.1104 0.9125680028246459 7.45358844502958 7.061727443857217 0 0 0
235 0 1 -1.1104 6.846046537331426 7.4614616346543015 6.97188850717038 0 0 0
177 0 1 -1.1104 1.0408783431653967 1.8008384030409885 12.557684524250728 0 0 0
181 0 1 -1.1104 1.0767401848091018 1.5593413244297902 9.448767935555686 0 0 0
187 0 2 2.2208 5.169668516487549 3.1046720605439027 8.25325422019295 0 0 0
191 0 1 -1.1104 3.923769773250643 1.5335037005418748 12.531748758684772 0 0 0
194 0 1 -1.1104 3.818071752900641 1.6468215893993532 9.834991958688093 0 0 0
196 0 2 2.2208 2.4953800193989504 3.0926583100164886 10.935731919402546 0 0 0
240 0 2 2.2208 5.329557728362825 5.822956335171313 11.077351015400941 0 0 0
244 0 1 -1.1104 1.1824154600986443 7.179834649656295 9.641502019180951 0 0 0
246 0 1 -1.1104 1.1982131387310642 4.373298652261679 12.516477700977633 0 0 0
251 0 1 -1.1104 0.9938092602207689 4.380220889016034 9.730519065818111 0 0 0
256 0 2 2.2208 2.45707131857085 5.931723058689977 8.171153655489737 0 0 0
258 0 1 -1.1104 3.9554434014703843 7.253809447121911 9.690000456856454 0 0 0
260 0 1 -1.1104 3.8589365210150057 4.339593362055206 12.299247252324609 0 0 0
262 0 1 -1.1104 3.737350092060784 4.5973669455029915 9.526826354250083 0 0 0
255 0 1 -1.1104 3.961946303115215 7.3535505158481005 12.427633717571489 0 0 0
242 0 1 -1.1104 0.9991660847175023 7.400597214100893 12.508338320136588 0 0 0
183 0 1 -1.1104 6.720975540933222 1.5031587372007864 9.815437119258704 0 0 0
344 0 2 2.2208 -0.2439635283802938 5.8003911473872325 11.01130663440632 0 0 0
199 0 2 2.2208 -0.3336576467097919 3.0289029456744014 8.245611100416195 0 0 0
169 0 1 -1.1104 6.8335353609469465 1.7455613865544073 6.999403912746871 0 0 0
267 0 1 -1.1104 9.714636255011587 7.330456423311913 6.662468657543033 0 0 0
269 0 1 -1.1104 9.4927576172047 4.572400190840632 6.967828032711599 0 0 0
206 0 1 -1.1104 12.40872183714408 1.648704316077089 6.781155763787749 0 0 0
179 0 1 -1.1104 6.824689925963096 1.5234401264257151 12.374737068124473 0 0 0
245 0 1 -1.1104 6.6684179518292135 7.193437763946992 9.779782490020924 0 0 0
248 0 1 -1.1104 6.4697619216503615 4.354259281674732 12.57826805962306 0 0 0
253 0 1 -1.1104 6.678210457469569 4.385922569619531 9.653372644607707 0 0 0
243 0 1 -1.1104 6.8495974937454305 7.090280817845939 12.567788064531188 0 0 0
320 0 2 2.2208 7.842964867011167 17.07947695803204 8.256109950907977 0 0 0
266 0 1 -1.1104 12.397899843460674 4.41656783655746 6.77631508894881 0 0 0
265 0 1 -1.1104 12.452960476006755 7.283503564850348 7.040855439294409 0 0 0
209 0 1 -1.1104 9.671840651091763 1.7687141817664613 6.9169736774734645 0 0 0
213 0 1 -1.1104 12.288063448548138 1.5791153962801987 12.58156416119196 0 0 0
215 0 1 -1.1104 12.154203980169505 1.781497010992591 9.808565881941787 0 0 0
218 0 2 2.2208 10.878027562915047 3.168622039555318 8.358947643801153 0 0 0
221 0 1 -1.1104 9.667851854504486 1.6825921675863413 12.889037423152299 0 0 0
224 0 1 -1.1104 9.597618158316076 1.6038842062970171 9.70675880227338 0 0 0
226 0 2 2.2208 8.147776001741958 3.0758140451554428 11.085808406413342 0 0 0
268 0 1 -1.1104 9.407830350057239 4.549813137052473 9.750765897309849 0 0 0
271 0 1 -1.1104 9.43445288297036 4.390237012981501 12.512663165496514 0 0 0
275 0 2 2.2208 8.181541043244527 5.776778755984596 8.227767375453837 0 0 0
276 0 2 2.2208 10.91692826134962 5.916350831815085 11.196994586463695 0 0 0
280 0 1 -1.1104 12.429368589670215 4.466939124590391 12.555441207920769 0 0 0
283 0 1 -1.1104 12.356831804607541 4.810288385445084 9.678338259631333 0 0 0
285 0 1 -1.1104 9.362595201567487 7.059187899125352 12.582366719013192 0 0 0
273 0 1 -1.1104 9.452046298891723 7.161282895752174 9.553018836546993 0 0 0
279 0 1 -1.1104 12.313312893688938 7.39954308159599 9.788800718267863 0 0 0
278 0 1 -1.1104 12.361315582813887 7.408401614949882 12.581168917582824 0 0 0
333 0 2 2.2208 13.514045949079444 14.352559431335138 11.151294968638696 0 0 0
124 0 1 -1.1104 3.7285600623902964 12.720320330656271 6.913464096983164 0 0 0
62 0 1 -1.1104 0.7666799351085973 9.980285640040892 6.8003544018078665 0 0 0
327 0 1 -1.1104 12.277079880211533 18.445737514439028 9.597231396794392 0 0 0
111 0 1 -1.1104 6.598200034452521 13.105879707544558 6.9758970117855785 0 0 0
78 0 1 -1.1104 3.7982519541883284 9.9446836530493 6.716159279800398 0 0 0
287 0 1 -1.1104 4.01889615305063 12.855377237390062 12.46466653239532 0 0 0
305 0 1 -1.1104 3.676170356642642 12.777597820836252 9.713739880161556 0 0 0
299 0 1 -1.1104 1.357621915691269 12.956308758171977 12.382737133802864 0 0 0
294 0 1 -1.1104 0.9115271935360045 12.787305778106687 9.49132105102476 0 0 0
241 0 2 2.2208 5.215215410059611 11.47658240942185 11.01459749311038 0 0 0
247 0 1 -1.1104 0.9632205277712147 10.115167737270067 12.41341809608338 0 0 0
250 0 2 2.2208 5.289354600341174 8.599853478746002 8.337823504804863 0 0 0
252 0 1 -1.1104 0.8286423536913129 9.90388244907707 9.62460957704815 0 0 0
257 0 2 2.2208 2.1966586129559444 11.431741059015058 8.134495617991151 0 0 0
259 0 2 2.2208 2.3718489649255083 8.704663063982728 11.03676817166394 0 0 0
261 0 1 -1.1104 3.677304460840728 10.013447116351172 12.297733633042778 0 0 0
263 0 1 -1.1104 3.8374332049008206 9.994050696492005 9.52386631051805 0 0 0
297 0 1 -1.1104 6.841937220233897 13.048499213407336 12.774474628361869 0 0 0
295 0 2 2.2208 5.0972872264906535 14.285733339687233 8.285127744074577 0 0 0
65 0 1 -1.1104 6.716514018891158 10.202588895707182 6.760215538455676 0 0 0
254 0 1 -1.1104 6.803168170019385 10.167345238675884 9.504618331641995 0 0 0
249 0 1 -1.1104 6.489384890557042 10.059433758352611 12.578880269721997 0 0 0
290 0 1 -1.1104 6.50123840989137 12.994635861629785 9.82108729229973 0 0 0
143 0 1 -1.1104 12.264184983845475 12.988172192369218 6.904827294266783 0 0 0
101 0 1 -1.1104 9.415170256301321 10.032744046591926 6.9001893618011065 0 0 0
154 0 1 -1.1104 9.336308904327614 12.959462553655582 6.596289704179456 0 0 0
90 0 1 -1.1104 12.202034345138841 10.049962897806493 6.924318564197027 0 0 0
330 0 1 -1.1104 12.454848552402035 13.000448050562325 12.501899327277345 0 0 0
328 0 1 -1.1104 12.227992419882908 12.99983681754338 9.91065550564706 0 0 0
322 0 1 -1.1104 9.456087563495378 12.938780985294278 12.408951400585659 0 0 0
319 0 1 -1.1104 9.417709620118494 12.800009287413284 9.583217935576018 0 0 0
264 0 1 -1.1104 9.691821462818753 10.235412225633036 9.878208233208937 0 0 0
270 0 1 -1.1104 9.325696063039599 10.084216456741983 12.743818552983095 0 0 0
272 0 2 2.2208 8.04125744552029 8.56895297933861 11.04465351296511 0 0 0
274 0 2 2.2208 8.045371477843862 11.601989408602266 8.149529426395402 0 0 0
277 0 2 2.2208 10.961845209785036 11.635073258030967 11.072005232136926 0 0 0
281 0 1 -1.1104 12.190114721923722 10.057181581315314 12.427304997049019 0 0 0
282 0 2 2.2208 10.955466312543582 8.68010845085683 8.279931784284232 0 0 0
284 0 1 -1.1104 12.623610085428073 10.181543231534937 9.702237519559715 0 0 0
133 0 1 -1.1104 3.8379440445542605 15.5639607127308 6.766019497821555 0 0 0
112 0 1 -1.1104 6.4956818658525615 18.421390438267828 6.730249134813788 0 0 0
117 0 1 -1.1104 0.9703537115368029 15.740845121625592 6.638203171740749 0 0 0
317 0 2 2.2208 8.042485884549144 14.327426355100746 11.159693924045738 0 0 0
302 0 1 -1.1104 0.9311113556860635 18.47839356655986 7.0254713211042565 0 0 0
310 0 2 2.2208 2.335252617234022 14.313301822874854 10.933973492516717 0 0 0
309 0 2 2.2208 2.5432706545360433 19.81803819383972 11.10657142140554 0 0 0
308 0 1 -1.1104 3.822980530952666 15.619210429998045 12.684231497807682 0 0 0
307 0 1 -1.1104 1.0107607205201958 15.614049274300186 12.408201611814734 0 0 0
304 0 1 -1.1104 3.7717326481618416 15.490496701618143 9.65738932772877 0 0 0
303 0 2 2.2208 2.291778765966639 17.013873239649037 8.201529427702777 0 0 0
301 0 1 -1.1104 3.661957388226184 18.392536631587415 9.530115581076132 0 0 0
300 0 2 2.2208 5.21634988089095 17.131808333586434 11.011211769260381 0 0 0
298 0 1 -1.1104 0.8995254134414962 18.488742992860896 12.481532411090797 0 0 0
293 0 2 2.2208 5.075302570085139 19.921922278787143 8.053002752072446 0 0 0
292 0 1 -1.1104 0.9983143264439396 15.720702359409515 9.443598421163792 0 0 0
291 0 1 -1.1104 0.9365078820279591 18.510237144927846 9.919648249468299 0 0 0
286 0 1 -1.1104 3.9008540651264707 18.437372059285355 12.44414826390151 0 0 0
296 0 1 -1.1104 6.732421109123127 18.46617454686044 12.630430399910978 0 0 0
311 0 2 2.2208 -0.29379114765593667 19.956434303678478 8.348608371583916 0 0 0
313 0 2 2.2208 -0.40769298652441843 14.196739849154335 8.121579271458714 0 0 0
326 0 1 -1.1104 12.255220760845962 15.826596508732342 12.47104220244916 0 0 0
324 0 2 2.2208 10.882584929758128 19.886893921900526 8.030068315103946 0 0 0
325 0 2 2.2208 10.847457918836795 14.417274110315802 8.250827148103449 0 0 0
318 0 1 -1.1104 9.338569190054528 18.48602545352743 9.429491790281467 0 0 0
156 0 1 -1.1104 9.51038833175247 18.523615405774724 6.664432477610154 0 0 0
316 0 2 2.2208 8.023968689629775 19.893042441943006 10.730026284361376 0 0 0
334 0 2 2.2208 13.619301482709284 3.0786726522713486 5.409637656554266 0 0 0
397 0 2 2.2208 -0.4010617447342426 5.762559560237518 -0.314239077278697 0 0 0
401 0 2 2.2208 -0.4053477493850046 17.030314477174176 -0.13275365052923868 0 0 0
340 0 2 2.2208 13.649585360565403 11.473478914447279 8.259029691852506 0 0 0
406 0 2 2.2208 5.224766350191022 0.3392716191286887 16.812792675963365 0 0 0
407 0 1 -1.1104 0.8796125813626835 -3.9750464835324784 17.91372589153428 0 0 0
411 0 1 -1.1104 1.1169333840982456 -3.827111323170153 15.062069642629114 0 0 0
419 0 1 -1.1104 0.8554576010544305 -0.9571923399217646 18.143536369507217 0 0 0
421 0 2 2.2208 5.190080052902908 -2.4708872310321977 19.44217482876211 0 0 0
423 0 1 -1.1104 0.8953512376453254 -1.089010728899639 15.432320649948327 0 0 0
427 0 1 -1.1104 3.7108754102280748 -3.662330980140527 18.046137536954888 0 0 0
429 0 2 2.2208 2.3566100687369476 0.569939714881999 19.681506619332833 0 0 0
430 0 1 -1.1104 3.9153267006104104 -4.162608978980977 15.330490555023983 0 0 0
434 0 2 2.2208 2.3139089473681134 -2.5031793371125954 16.61181141135465 0 0 0
436 0 1 -1.1104 3.6887764157293486 -0.9596366001473934 17.937035005168664 0 0 0
437 0 1 -1.1104 3.7107078442431862 -1.1544688083096226 15.272193671800142 0 0 0
409 0 1 -1.1104 6.705998234853613 -3.858981036952776 18.12669620755619 0 0 0
420 0 1 -1.1104 6.668456511482103 -0.9728402953537388 18.06875904587266 0 0 0
349 0 2 2.2208 2.393733016857811 0.33842564802409386 13.9755371562579 0 0 0
347 0 2 2.2208 2.39027931087568 -5.238140211969248 13.84481205185482 0 0 0
442 0 2 2.2208 -0.41648726814258996 0.49036038965740203 16.608512218491892 0 0 0
348 0 2 2.2208 5.213419796456608 -2.5039742231241786 13.911478031010818 0 0 0
440 0 2 2.2208 5.292072561295807 -5.432110836012896 16.80908126953913 0 0 0
346 0 2 2.2208 -0.35075296395589595 -2.5112688080960317 13.792831869940178 0 0 0
633 0 1 -1.1104 12.481992114737519 18.348348466379715 23.684664466260024 0 0 0
441 0 2 2.2208 2.3953787559522066 -5.237594194534399 19.340322843332483 0 0 0
425 0 1 -1.1104 6.359264581429174 -1.0668466131043937 15.35889612658985 0 0 0
415 0 1 -1.1104 6.528274431910153 -3.826952303500438 15.38192687462004 0 0 0
449 0 2 2.2208 10.759704406770553 0.17638314481326858 16.626818868562513 0 0 0
450 0 1 -1.1104 12.259652124237457 -4.043670896229844 17.957371491694403 0 0 0
452 0 1 -1.1104 12.32017585662373 -3.9359194047137795 15.284415274149541 0 0 0
456 0 1 -1.1104 12.34378528756422 -1.0926748984641639 18.244763092624794 0 0 0
457 0 2 2.2208 10.893174739323833 -2.396915050493686 19.401071582886278 0 0 0
459 0 1 -1.1104 12.411874421534579 -1.1884637291324645 15.32947140828428 0 0 0
461 0 1 -1.1104 9.504228363743177 -3.731999852312172 18.03971514989726 0 0 0
463 0 2 2.2208 8.006218449989348 0.3134368735364766 19.619852297042033 0 0 0
464 0 1 -1.1104 9.543782076055905 -3.9108519352206095 15.183360023893542 0 0 0
468 0 2 2.2208 7.905936373167746 -2.5490827734196437 16.69895926262087 0 0 0
470 0 1 -1.1104 9.423830560797757 -0.9888086384361866 18.094555234050038 0 0 0
471 0 1 -1.1104 9.523988575937558 -1.3387963452106122 15.413191677111026 0 0 0
355 0 2 2.2208 7.896634444397654 0.2808201826200941 13.995186545668039 0 0 0
445 0 2 2.2208 13.646284405017385 8.589551748802783 22.549317267924877 0 0 0
356 0 2 2.2208 10.943857857733594 -2.625654587052155 13.856070580571192 0 0 0
475 0 2 2.2208 8.183833729669914 -5.390565797897775 19.49730213704678 0 0 0
728 0 2 2.2208 13.611407626879664 5.898029500343044 25.20554564354619 0 0 0
353 0 2 2.2208 8.139819626416584 -5.308056585866424 13.809168025890227 0 0 0
376 0 2 2.2208 7.912609085261928 17.062651264299124 13.844856921526931 0 0 0
544 0 2 2.2208 -0.34411604438520466 3.2302883258723236 19.64886421901727 0 0 0
408 0 1 -1.1104 0.9689781059229828 1.8157554762543295 18.090540402890337 0 0 0