LAMMPS data file via write_data, version 29 Oct 2020, timestep = 100158

17760 atoms
3 atom types

-0.38611382548488443 27.72611382548426 xlo xhi
-4.721830464477685 332.8018304644749 ylo yhi
-0.3814244796328889 27.721424479633328 zlo zhi

Masses

1 15.9994
2 232.0381
3 131.293

Atoms # full

1 0 2 2.2208 5.344391521433043 0.9668163202082174 5.215310093577387 0 0 0
2 0 1 -1.1104 1.20123121031092 -3.4319079326176696 1.0904753004065675 0 0 0
3 0 1 -1.1104 1.397634176422153 2.2517328497670377 1.0196252152050427 0 0 0
6 0 1 -1.1104 1.2020612188149193 -3.3219337687371717 3.868077733051233 0 0 0
7 0 1 -1.1104 1.2344065822455872 2.2136255780718193 3.701396055840668 0 0 0
10 0 1 -1.1104 1.28414076391438 -0.5108355618128745 1.1055918661709416 0 0 0
12 0 2 2.2208 5.344660332780589 -1.9942122254308767 2.428608737355776 0 0 0
13 0 2 2.2208 5.3561823812730225 3.6342371623070817 2.4038873825371487 0 0 0
14 0 1 -1.1104 1.0995945185325033 -0.5985526488648072 3.8854086230813483 0 0 0
16 0 1 -1.1104 3.9697307152640464 -3.435000782348262 1.0841148790567634 0 0 0
17 0 1 -1.1104 4.079150787915821 2.2100154916461276 0.9628987576156506 0 0 0
18 0 2 2.2208 2.6133041023371413 0.8541189919684018 2.453128429770593 0 0 0
19 0 1 -1.1104 3.910139974395338 -3.3236049882596683 3.9196543394668444 0 0 0
20 0 1 -1.1104 3.9570084736920905 2.2910612277175124 3.7720318239323922 0 0 0
21 0 2 2.2208 2.6145657980479884 -1.9706951797498247 5.246678685426205 0 0 0
22 0 2 2.2208 2.553283676041175 3.601608685697086 5.26398064132413 0 0 0
23 0 1 -1.1104 4.064030362969498 -0.5164408006453215 0.9748369012515135 0 0 0
24 0 1 -1.1104 3.9444580732371852 -0.5640282364389541 3.939816229778033 0 0 0
9058 0 2 2.2208 -0.3469509493871936 0.940685593400094 5.284773456096832 0 0 0
9055 0 2 2.2208 -0.2187190892591335 -1.9770081301154667 2.3895877794723748 0 0 0
173 0 1 -1.1104 3.8556643185697377 2.3434499335686665 6.613944461535171 0 0 0
174 0 1 -1.1104 3.963048238015373 -0.5027058027868616 6.755174920120667 0 0 0
172 0 1 -1.1104 4.048176863532696 -3.2477761187841385 6.628122323164163 0 0 0
9059 0 2 2.2208 -0.12280989858575583 3.7916774939665956 2.348571661503494 0 0 0
328 0 2 2.2208 2.632564858927017 -2.0267598605724735 -0.348405013173095 0 0 0
338 0 2 2.2208 5.452817063868106 6.439812514674211 -0.31019894046435653 0 0 0
9317 0 2 2.2208 -0.18774561465120013 0.827606926448536 -0.3712026934425876 0 0 0
11 0 1 -1.1104 6.813313719533537 -0.6965197281431831 1.171442834788189 0 0 0
5 0 1 -1.1104 6.825463791119109 2.134834082982657 1.0660266734543833 0 0 0
15 0 1 -1.1104 6.62164959349475 -0.4575440391663867 3.792370110137122 0 0 0
9 0 1 -1.1104 6.768747951247791 2.157717302294841 3.780882388268382 0 0 0
8 0 1 -1.1104 6.68170110942349 -3.402195050894933 3.8128372542007303 0 0 0
4 0 1 -1.1104 6.7608741759957685 -3.524962311213984 1.0731433896920803 0 0 0
31 0 2 2.2208 10.93386434125931 0.8622133180919382 5.26217439913601 0 0 0
32 0 1 -1.1104 12.47170901272679 -3.3972775956485335 0.9850979322291119 0 0 0
33 0 1 -1.1104 12.46236998662379 2.226811549837834 0.9228500931655065 0 0 0
34 0 1 -1.1104 12.369185334568737 -3.4421042577721095 3.7676115688521636 0 0 0
35 0 1 -1.1104 12.419117003068573 2.2311760534418013 3.813146239643711 0 0 0
36 0 1 -1.1104 12.381632629314158 -0.6251677053176662 0.8988047072544918 0 0 0
37 0 2 2.2208 10.86454684393414 -1.9810718093122905 2.399202359755532 0 0 0
38 0 2 2.2208 11.046245110630842 3.63564696887191 2.505954144447996 0 0 0
39 0 1 -1.1104 12.128232396636315 -0.626230133746165 3.8063448992678537 0 0 0
40 0 1 -1.1104 9.69731530769765 -3.4175264900574565 1.0512033369466436 0 0 0
41 0 1 -1.1104 9.573997273933912 2.1924501939237104 0.9576732544784167 0 0 0
42 0 2 2.2208 8.104361619352808 0.8921276705346673 2.379404704960457 0 0 0
43 0 1 -1.1104 9.592283258308408 -3.37139999586727 3.7894199280709517 0 0 0
44 0 1 -1.1104 9.689275970290003 2.3217271526627266 3.80327272844509 0 0 0
45 0 2 2.2208 8.195974794126974 -2.0074880134825226 5.25106439806455 0 0 0
46 0 2 2.2208 8.109438094624979 3.645754042931064 5.203927473433098 0 0 0
47 0 1 -1.1104 9.501405580443375 -0.5711187767741537 1.019970971109124 0 0 0
48 0 1 -1.1104 9.369072784292017 -0.6187551544917756 3.7835855654426913 0 0 0
171 0 1 -1.1104 6.696152433183728 -0.5598637187206261 6.661632390263348 0 0 0
210 0 1 -1.1104 9.517289693445107 -0.5089753228956667 6.613429077163617 0 0 0
207 0 1 -1.1104 12.289486373778843 -0.4870004851242906 6.717039000087061 0 0 0
205 0 1 -1.1104 12.462204611895537 -3.3816856844905345 6.586235356848471 0 0 0
208 0 1 -1.1104 9.670986405841255 -3.3551607262417327 6.508665216846859 0 0 0
209 0 1 -1.1104 9.62076956442856 2.1557662668946773 6.839058022506474 0 0 0
9064 0 2 2.2208 -0.28626766912977103 12.14182720845612 5.23541012970598 0 0 0
9063 0 2 2.2208 -0.2992960841467091 9.244798821698105 2.4354908768520778 0 0 0
9062 0 2 2.2208 -0.14533195870776447 6.472315623901954 5.278408292746269 0 0 0
54 0 2 2.2208 5.442325626155581 6.4772115745711645 5.34184704842075 0 0 0
55 0 2 2.2208 5.30534997232071 12.02302984965319 5.186796225330419 0 0 0
56 0 1 -1.1104 1.2303286467462398 7.98851672745149 1.1470725785327502 0 0 0
58 0 1 -1.1104 1.1654247559045965 7.790700141053051 3.8695604170881523 0 0 0
60 0 1 -1.1104 1.3004650728699338 5.136140612520384 0.9909624545569079 0 0 0
61 0 1 -1.1104 1.2174035067574231 10.738511097581918 1.1556801542431028 0 0 0
66 0 2 2.2208 5.434729254579693 9.212632114173962 2.5059833560293776 0 0 0
67 0 1 -1.1104 1.0847589409109215 5.018079829179785 3.8745913254862168 0 0 0
68 0 1 -1.1104 1.189682088641442 10.544746293170489 3.8737886834717297 0 0 0
71 0 1 -1.1104 3.9699464263766764 7.78517015652088 1.1117941203029884 0 0 0
72 0 2 2.2208 2.58564016388448 6.440891819583762 2.488669273977624 0 0 0
73 0 2 2.2208 2.597362424361623 12.006571443667989 2.3968454601955647 0 0 0
74 0 1 -1.1104 4.078049618259122 7.893974813695595 3.956247840160347 0 0 0
75 0 2 2.2208 2.529848346760244 9.268909934458344 5.233591172176414 0 0 0
76 0 1 -1.1104 4.072074763755562 5.0504952886932015 1.1312925162653713 0 0 0
77 0 1 -1.1104 4.0327427383791985 10.628373700943747 1.0205697328503338 0 0 0
79 0 1 -1.1104 3.972585228900957 5.079223313278629 3.893678912233607 0 0 0
80 0 1 -1.1104 3.9623414140951505 10.508504520688957 3.8426696773527333 0 0 0
234 0 1 -1.1104 1.1574811493239967 7.766510545634789 6.744278070275172 0 0 0
238 0 1 -1.1104 3.9820263846538686 8.031743582312837 6.714923556057332 0 0 0
28 0 2 2.2208 5.348482091674678 12.099121965469571 -0.2899503521741807 0 0 0
9093 0 2 2.2208 -0.18915498905182004 12.098598368174539 -0.3686017977278227 0 0 0
339 0 2 2.2208 2.581074762577505 9.312946094772974 -0.254952917815426 0 0 0
70 0 1 -1.1104 6.689937764568573 10.616589526772483 3.9607415945748676 0 0 0
235 0 1 -1.1104 6.792833908768246 7.8000945770114045 6.843038582525336 0 0 0
69 0 1 -1.1104 6.8273713349131695 4.985749328998356 3.8198228001477865 0 0 0
57 0 1 -1.1104 6.879887964210636 7.707261497297024 1.1695157628676887 0 0 0
59 0 1 -1.1104 6.977816521910775 7.924132952429309 3.9296804413309854 0 0 0
63 0 1 -1.1104 6.906598271151499 5.0310536461178526 0.9879719541305388 0 0 0
64 0 1 -1.1104 6.6698054352780645 10.582884357262941 0.9597817856806328 0 0 0
84 0 2 2.2208 10.935979957257796 6.433014679023257 5.185731938016747 0 0 0
85 0 2 2.2208 10.935066394960609 12.12243160441029 5.188050882562654 0 0 0
86 0 1 -1.1104 12.35369285607285 7.868018969592616 0.8937855990395824 0 0 0
87 0 1 -1.1104 12.4103708077493 7.8986889973471435 3.807146691485476 0 0 0
88 0 1 -1.1104 12.394094628711088 5.079414519634838 0.9164174806908246 0 0 0
89 0 1 -1.1104 12.44395287531079 10.58827605900813 1.0496827383318879 0 0 0
91 0 2 2.2208 11.077585048420637 9.297059446819436 2.421338116908586 0 0 0
92 0 1 -1.1104 12.48515138930821 5.0827260711181745 3.915146150980614 0 0 0
93 0 1 -1.1104 12.281381915765111 10.736806629025946 3.788727685592911 0 0 0
94 0 1 -1.1104 9.569307866429568 7.723574488611851 1.0148144640560202 0 0 0
95 0 2 2.2208 8.312212692781848 6.46759058572878 2.4790998390983114 0 0 0
96 0 2 2.2208 8.22086266318293 12.126522103518264 2.6074060389753186 0 0 0
97 0 1 -1.1104 9.703566483376402 7.844195668706354 3.689892888897245 0 0 0
98 0 2 2.2208 8.23371725297336 9.294293374164514 5.2549728016085595 0 0 0
99 0 1 -1.1104 9.697861959609794 5.020566974080728 1.0648564798032158 0 0 0
100 0 1 -1.1104 9.627594683854282 10.636351235312668 1.0771722210719883 0 0 0
102 0 1 -1.1104 9.686402241869212 5.061182725551566 3.921264509773686 0 0 0
103 0 1 -1.1104 9.53912554868539 10.688148918220028 3.857586796347723 0 0 0
8339 0 2 2.2208 -0.33802382286677185 -4.716597778095421 10.861159498821815 0 0 0
8333 0 2 2.2208 5.443278934071419 -4.671379714092418 5.228059071429676 0 0 0
330 0 2 2.2208 11.088949122192764 12.053567852572318 -0.27518814142064973 0 0 0
323 0 2 2.2208 10.935788602750108 14.95236749073636 13.655426058121943 0 0 0
9067 0 2 2.2208 -0.21584555673191297 14.935368192749163 2.4498693378051186 0 0 0
106 0 2 2.2208 5.248631900611736 17.615875932640648 5.3197648971232585 0 0 0
107 0 1 -1.1104 1.1197803187435311 13.395332958813666 1.09122498792738 0 0 0
109 0 1 -1.1104 0.9702470316785023 19.276635244157408 1.2181670111094074 0 0 0
113 0 1 -1.1104 1.197298598416416 13.48007063679643 3.9515436444146634 0 0 0
114 0 1 -1.1104 1.0060519701963895 19.223084742890475 3.923288569052359 0 0 0
116 0 1 -1.1104 1.1183287551374643 16.352081094936878 0.7296461892040769 0 0 0
119 0 2 2.2208 5.271876423775977 14.857543533365174 2.474904469854926 0 0 0
120 0 2 2.2208 5.221086073690874 20.45043563869883 2.5921802877593247 0 0 0
121 0 1 -1.1104 0.8787797721971075 16.384230453941488 3.900824829102389 0 0 0
123 0 1 -1.1104 3.8532622165942527 13.540678753167581 1.1112188696269867 0 0 0
125 0 1 -1.1104 3.7969198808662115 19.172847055563185 1.1874640362901037 0 0 0
127 0 2 2.2208 2.3919139280305743 17.79182745659603 2.4853735577528577 0 0 0
128 0 1 -1.1104 3.9350370608214424 13.405245842449148 3.8446968535927155 0 0 0
129 0 1 -1.1104 3.875304594762109 19.021177970155154 4.047244271023847 0 0 0
130 0 2 2.2208 2.5314291317569744 14.89021734006203 5.19881459982215 0 0 0
131 0 2 2.2208 2.4549009573357226 20.48825551181576 5.267179394378855 0 0 0
132 0 1 -1.1104 3.758386896420662 16.386367988041275 1.2222603562242074 0 0 0
134 0 1 -1.1104 3.8738703840930353 16.17710670610998 3.805609667015739 0 0 0
108 0 1 -1.1104 1.1293236982154062 13.34845298548481 6.791375663302624 0 0 0
306 0 2 2.2208 2.589913364587047 14.822512772562943 -0.3650928948994259 0 0 0
117 0 1 -1.1104 0.9752196577901373 16.162267622822846 6.77183942273352 0 0 0
138 0 1 -1.1104 6.551922017809471 18.86730113488798 1.1494582152707344 0 0 0
232 0 1 -1.1104 1.003104617731176 18.957791785698195 6.863056388648266 0 0 0
124 0 1 -1.1104 3.9054500448852285 13.636813178558612 6.68128616970004 0 0 0
126 0 1 -1.1104 3.876521471369129 19.185873386960765 6.766471505362049 0 0 0
308 0 2 2.2208 2.2956012661378264 20.621955869926683 -0.3036823253795861 0 0 0
137 0 1 -1.1104 9.633459576391113 13.582028447932982 9.576760747285263 0 0 0
115 0 1 -1.1104 6.683628748459967 13.456992454551964 3.876869783457603 0 0 0
122 0 1 -1.1104 6.610131085945284 16.199717698753755 3.8840499350821207 0 0 0
140 0 1 -1.1104 6.7076710925553 16.179443733907913 0.9491059382443119 0 0 0
139 0 1 -1.1104 6.6540032791405626 18.993466345273564 3.9417047810210684 0 0 0
110 0 1 -1.1104 6.7696645097960975 13.462973199251877 1.049111702739841 0 0 0
141 0 2 2.2208 10.948640237008764 17.75191763577879 5.505183484555451 0 0 0
142 0 1 -1.1104 12.332004271324477 13.408896733696638 1.052290457029151 0 0 0
144 0 1 -1.1104 12.238264900215787 18.9971857413509 1.0765339296110443 0 0 0
146 0 1 -1.1104 12.435985742758792 13.407483782379133 3.84615883708734 0 0 0
147 0 1 -1.1104 12.19317006165248 19.187203792595877 3.914519909446229 0 0 0
148 0 1 -1.1104 12.37465175489954 16.299131117451267 1.008199169287375 0 0 0
150 0 2 2.2208 10.940299127813942 14.941547063402464 2.5185825797248307 0 0 0
151 0 2 2.2208 10.878304939720463 20.482016351907472 2.493710876208321 0 0 0
152 0 1 -1.1104 12.295139160418064 16.335866738922412 3.9675732889482234 0 0 0
153 0 1 -1.1104 9.47064589952103 13.427520832361566 1.1793333940699893 0 0 0
155 0 1 -1.1104 9.536818752287544 18.94677077197369 1.0951004149713586 0 0 0
157 0 2 2.2208 8.052808383115723 17.591696720058778 2.4634299743812402 0 0 0
158 0 1 -1.1104 9.62442069568063 13.5245297843755 3.8716729740883715 0 0 0
159 0 1 -1.1104 9.442527052344174 19.208690358099027 4.01863624524542 0 0 0
160 0 2 2.2208 8.025310797941716 14.878878478092751 5.2713166737613255 0 0 0
161 0 2 2.2208 8.02148011042437 20.498574086205732 5.281268362247054 0 0 0
162 0 1 -1.1104 9.521300740722436 16.211655948653185 1.2899462106973023 0 0 0
164 0 1 -1.1104 9.579657385695647 16.387879499120686 4.015197410841537 0 0 0
163 0 1 -1.1104 9.562176958691975 16.17702422863279 6.697309575290475 0 0 0
143 0 1 -1.1104 12.397729337416237 13.572120537460465 6.784239978226058 0 0 0
326 0 2 2.2208 10.958518904419979 17.55892009024793 -0.32570259103956184 0 0 0
156 0 1 -1.1104 9.402870024909275 19.16520233327552 6.741334794127479 0 0 0
378 0 2 2.2208 8.152247616526001 14.712672631997286 -0.3427669099537525 0 0 0
329 0 2 2.2208 7.946083399894689 20.376991539019805 -0.18484098318728395 0 0 0
167 0 1 -1.1104 1.044998282167843 2.210392272242887 6.626445448377032 0 0 0
8918 0 2 2.2208 -0.1680501412046757 0.9459483021408686 10.935776964038206 0 0 0
170 0 1 -1.1104 1.1671847879207207 -0.5142959380969568 6.693202836594901 0 0 0
8953 0 2 2.2208 -0.175279945376124 3.742316012921155 8.121064257793208 0 0 0
8952 0 2 2.2208 -0.2686499620173036 -1.9610633042411079 8.138613920485378 0 0 0
166 0 1 -1.1104 1.2680330129572845 -3.5183407771181927 6.7460714436961355 0 0 0
175 0 2 2.2208 5.461002021260216 0.8928153285990541 10.887128028985952 0 0 0
176 0 1 -1.1104 1.0985280638962345 -3.270989127053118 12.310906985374979 0 0 0
177 0 1 -1.1104 1.1017137305040636 2.3839943885844437 12.230234081790398 0 0 0
180 0 1 -1.1104 0.9974711310906832 -3.3252765180092583 9.50119622566036 0 0 0
181 0 1 -1.1104 1.0053185761181067 2.332190215865676 9.528524464272678 0 0 0
184 0 1 -1.1104 1.1126225232660176 -0.4509271668099605 12.35060730180454 0 0 0
186 0 2 2.2208 5.232439081856172 -1.8477573278188244 8.110088586382641 0 0 0
187 0 2 2.2208 5.3993723694739195 3.6411229586030682 7.991026413150054 0 0 0
188 0 1 -1.1104 1.1963055576124082 -0.550488638988864 9.441564761343418 0 0 0
190 0 1 -1.1104 3.9947660317175218 -3.46026852008055 12.138802567605813 0 0 0
191 0 1 -1.1104 3.9422732059282493 2.2114677252373047 12.070978619896772 0 0 0
192 0 2 2.2208 2.501138416430396 0.9139688616410074 7.982944801479385 0 0 0
193 0 1 -1.1104 3.8340711488921277 -3.283961559966585 9.496959207373324 0 0 0
194 0 1 -1.1104 3.924777965081126 2.153298173645485 9.45764821231385 0 0 0
195 0 2 2.2208 2.5052438249481033 -1.8982669934760215 10.791851270264667 0 0 0
196 0 2 2.2208 2.6811697655388556 3.670361489972567 10.771911780555184 0 0 0
197 0 1 -1.1104 3.9753791457051326 -0.5945181382345059 12.23376567959637 0 0 0
198 0 1 -1.1104 3.9814735672328 -0.556546699218989 9.581506291838204 0 0 0
340 0 2 2.2208 5.236941492671554 17.692640762370186 -0.26849291635036443 0 0 0
304 0 2 2.2208 2.6271440082285498 0.9300170493001452 13.539902495746372 0 0 0
9091 0 2 2.2208 -0.3423773561643598 20.391939036987523 13.545626377676651 0 0 0
302 0 2 2.2208 -0.20824933801239368 -1.8488972991239236 13.559147895877425 0 0 0
206 0 1 -1.1104 12.309312154560839 2.3889797373418493 6.620250436958403 0 0 0
168 0 1 -1.1104 6.887481889477415 -3.3670914512008228 6.795022837285747 0 0 0
178 0 1 -1.1104 6.829504576512725 -3.3246518966458853 12.361664491996475 0 0 0
169 0 1 -1.1104 6.788892355713743 2.1645167517327013 6.825474549261859 0 0 0
179 0 1 -1.1104 6.67610288962917 2.277373062501564 12.337988091712878 0 0 0
183 0 1 -1.1104 6.789787728426414 2.2913731278074088 9.537415719243866 0 0 0
182 0 1 -1.1104 6.670915205520435 -3.41597425639172 9.638867321831475 0 0 0
189 0 1 -1.1104 6.784566603125564 -0.46173833412371523 9.4663624500584 0 0 0
185 0 1 -1.1104 6.936043283685124 -0.5280506623507043 12.278913868036751 0 0 0
211 0 2 2.2208 10.99375203841602 0.8385314743366921 10.873136090886733 0 0 0
212 0 1 -1.1104 12.394706412842721 -3.4946479196227815 12.247772039195935 0 0 0
213 0 1 -1.1104 12.474464569760837 2.1899155256600396 12.31603004913792 0 0 0
214 0 1 -1.1104 12.423690626741116 -3.3036559562369696 9.39851472000946 0 0 0
215 0 1 -1.1104 12.400612208316723 2.155065561080618 9.510538096868741 0 0 0
216 0 1 -1.1104 12.455223918238797 -0.6352785515181609 12.196180851724055 0 0 0
217 0 2 2.2208 11.020882492558803 -1.9907681124975563 7.944001099544679 0 0 0
219 0 1 -1.1104 12.362032222776634 -0.6577678517797331 9.41646573075719 0 0 0
220 0 1 -1.1104 9.597638931640919 -3.4009875630260398 12.217594376581433 0 0 0
221 0 1 -1.1104 9.53093414353158 2.157662512765294 12.45203486926583 0 0 0
222 0 2 2.2208 8.23202437424225 0.7978688233092847 8.051075872910426 0 0 0
223 0 1 -1.1104 9.402343835224546 -3.273068833823425 9.511454379830107 0 0 0
224 0 1 -1.1104 9.563251764639672 2.179679254552069 9.566386937362129 0 0 0
225 0 2 2.2208 8.112119874003419 -1.9563296268396566 10.81911620524421 0 0 0
226 0 2 2.2208 8.147540981753227 3.6381599048627016 10.91336549460612 0 0 0
227 0 1 -1.1104 9.625961870848638 -0.49980196778988406 12.326682975422264 0 0 0
228 0 1 -1.1104 9.598330484428589 -0.6114933096849974 9.477719707335705 0 0 0
218 0 2 2.2208 10.928068177367757 3.640852974318499 8.163453409430092 0 0 0
310 0 2 2.2208 11.07173316537701 -1.8736677438772673 13.644654354958279 0 0 0
8979 0 2 2.2208 -0.23740167127275347 12.125567317769313 10.929310899887714 0 0 0
239 0 1 -1.1104 4.098007955445191 5.177409833439324 6.59574647826858 0 0 0
78 0 1 -1.1104 4.002493930550533 10.737183861202926 6.566329907649503 0 0 0
236 0 1 -1.1104 1.3274954026489572 5.00313579042322 6.734582719511616 0 0 0
8986 0 2 2.2208 -0.3358591172625488 9.349428323088564 8.099544053412778 0 0 0
8987 0 2 2.2208 -0.28808506271246964 6.54402489418364 10.826999586313816 0 0 0
62 0 1 -1.1104 1.1685696699969983 10.62415393597983 6.699114746281759 0 0 0
240 0 2 2.2208 5.4663039127508295 6.492999294620358 10.976752141531168 0 0 0
241 0 2 2.2208 5.350725617805465 12.00853067078195 10.981873431704974 0 0 0
242 0 1 -1.1104 1.129553016920392 8.010105965885685 12.35875504192193 0 0 0
244 0 1 -1.1104 1.253571908364043 7.955218605213647 9.599621701605999 0 0 0
246 0 1 -1.1104 1.0772927769853007 5.15560025091455 12.276195825615032 0 0 0
247 0 1 -1.1104 1.1394523371735803 10.680581745659065 12.298801430109426 0 0 0
250 0 2 2.2208 5.453498286224762 9.28167237969349 8.017260088142423 0 0 0
251 0 1 -1.1104 1.4233474383283995 5.202009858831944 9.433661770605541 0 0 0
252 0 1 -1.1104 1.1204250107989682 10.69885455693157 9.529446336450782 0 0 0
255 0 1 -1.1104 3.9906059787071144 7.7728805927538875 12.361455069662185 0 0 0
256 0 2 2.2208 2.683714900024986 6.629713635044302 8.09193081306599 0 0 0
257 0 2 2.2208 2.6012419432758342 12.091310404042549 8.075352338064452 0 0 0
258 0 1 -1.1104 4.090272491849656 7.887282461515224 9.610294062557061 0 0 0
259 0 2 2.2208 2.578532112718221 9.337270560035131 10.959443525068991 0 0 0
260 0 1 -1.1104 3.889317489725726 4.947656954817501 12.252506719570704 0 0 0
261 0 1 -1.1104 4.135278402901828 10.603875614325387 12.212522119239251 0 0 0
262 0 1 -1.1104 4.1134060619139365 5.08855257590608 9.42063338618552 0 0 0
263 0 1 -1.1104 3.9672390508243844 10.644092328614217 9.473508714398104 0 0 0
9060 0 2 2.2208 13.632605866869966 17.820634073279866 2.5982029197052303 0 0 0
269 0 1 -1.1104 9.637814854170655 5.055350643768477 6.71659008747841 0 0 0
90 0 1 -1.1104 12.251467159167465 10.750873482969444 6.704501465549747 0 0 0
265 0 1 -1.1104 12.58381963842596 7.827822721763633 6.725687321914459 0 0 0
65 0 1 -1.1104 6.826836903262959 10.689345165275688 6.612987932471928 0 0 0
101 0 1 -1.1104 9.497130644367715 10.793043538937418 6.696787459098677 0 0 0
267 0 1 -1.1104 9.691114375052171 7.86066423817334 6.654712892332882 0 0 0
266 0 1 -1.1104 12.294038701510091 5.115813550856459 6.760903098147208 0 0 0
245 0 1 -1.1104 6.870029086413276 7.915382648561409 9.626280674255943 0 0 0
253 0 1 -1.1104 6.893683392732259 5.141604359665092 9.437875766758513 0 0 0
243 0 1 -1.1104 6.918467912202556 7.91767430771158 12.333304529354788 0 0 0
237 0 1 -1.1104 6.91620094639082 5.056448444051394 6.5735313239904904 0 0 0
249 0 1 -1.1104 6.890392998922499 10.664675487262544 12.374226697670132 0 0 0
254 0 1 -1.1104 6.8602130088570625 10.726512237397413 9.517096403498991 0 0 0
248 0 1 -1.1104 6.820374211493083 5.036035605254809 12.330162471954559 0 0 0
264 0 1 -1.1104 9.743155906631696 10.699916340612369 9.567815323553196 0 0 0
268 0 1 -1.1104 9.62480709245384 5.1207669242101055 9.548350972011905 0 0 0
270 0 1 -1.1104 9.560199547295337 10.784949871242791 12.310793552253836 0 0 0
271 0 1 -1.1104 9.642374408600505 4.918693897521809 12.310957933829144 0 0 0
272 0 2 2.2208 8.298318860192676 9.352000248224051 10.923280970791767 0 0 0
273 0 1 -1.1104 9.712925278608223 7.925468552523301 9.622279236844838 0 0 0
274 0 2 2.2208 8.114795877584735 12.128428734387791 8.181313021920932 0 0 0
275 0 2 2.2208 8.303532798886213 6.534306650046697 8.028616155097744 0 0 0
276 0 2 2.2208 11.05748825227706 6.474100422635584 10.911312988884639 0 0 0
277 0 2 2.2208 10.97160912444149 12.211524381288983 10.851747450560433 0 0 0
278 0 1 -1.1104 12.272653348954668 7.780206947958662 12.313537403828942 0 0 0
279 0 1 -1.1104 12.312814961424666 7.810717840825891 9.426666323970473 0 0 0
280 0 1 -1.1104 12.422151647479502 4.945873383635379 12.28061658771472 0 0 0
281 0 1 -1.1104 12.31802365999284 10.56785143205876 12.152798523257802 0 0 0
282 0 2 2.2208 10.874925357681757 9.267598500469902 8.161018171849937 0 0 0
283 0 1 -1.1104 12.385155945207165 4.928728321267552 9.489424275355635 0 0 0
284 0 1 -1.1104 12.334309887740154 10.613406566778053 9.435729884774105 0 0 0
285 0 1 -1.1104 9.617823798754385 7.926064426233791 12.273871633157516 0 0 0
8785 0 2 2.2208 -0.323222358881871 20.550374467042513 8.055198046210668 0 0 0
8758 0 2 2.2208 -0.18621279302668642 17.700515092077847 10.837631630924596 0 0 0
8759 0 2 2.2208 -0.2666809593615769 14.878142526867213 8.11886431832028 0 0 0
8757 0 2 2.2208 13.634372833133185 3.6996514013461548 5.418095378808433 0 0 0
133 0 1 -1.1104 3.8317128906917097 16.378761564903716 6.684095235815055 0 0 0
29 0 2 2.2208 2.6326767305273684 14.989336186743232 10.93925250460939 0 0 0
51 0 2 2.2208 2.5191199042559087 20.520244310087612 10.850892374659724 0 0 0
52 0 1 -1.1104 3.9235012004199543 16.324737713991762 12.341580787022956 0 0 0
53 0 1 -1.1104 1.0964831992355466 16.219708086235975 12.483502454730488 0 0 0
203 0 1 -1.1104 3.9720229355368786 13.590315975325991 9.689806643325381 0 0 0
204 0 1 -1.1104 3.9385734365383738 16.338878958740658 9.426939378029013 0 0 0
231 0 2 2.2208 2.5084708300824605 17.725803593161448 8.126414032895575 0 0 0
233 0 1 -1.1104 3.869656753412472 19.055099076565597 9.533241132148282 0 0 0
286 0 1 -1.1104 3.8935336814348656 19.184784863700315 12.312616887711894 0 0 0
287 0 1 -1.1104 3.9198814382957217 13.454417793595198 12.491784416596264 0 0 0
291 0 1 -1.1104 1.0537763237408493 19.20133576557434 9.612434586671768 0 0 0
292 0 1 -1.1104 1.2344896915282197 16.378103213017518 9.58614952886119 0 0 0
293 0 2 2.2208 5.336604224663516 20.53699455845808 8.067519087565959 0 0 0
294 0 1 -1.1104 1.252416405155133 13.531812068557258 9.60723132407648 0 0 0
295 0 2 2.2208 5.2847047610625495 15.006863224942775 8.138674674796931 0 0 0
298 0 1 -1.1104 1.05751990404968 19.00468991393535 12.393086755301507 0 0 0
299 0 1 -1.1104 1.0463745120666956 13.532330052821996 12.347668885505408 0 0 0
300 0 2 2.2208 5.295341305448194 17.72377931710642 10.907813161511282 0 0 0
83 0 2 2.2208 10.909400406235399 20.66325824955411 8.060805751953266 0 0 0
200 0 2 2.2208 8.148840021272024 20.469411401699084 10.751501328869875 0 0 0
30 0 1 -1.1104 12.534511619744912 13.479651758338775 9.67371300161362 0 0 0
202 0 1 -1.1104 6.685008462108117 16.30870932611392 12.308229420199842 0 0 0
289 0 1 -1.1104 6.768697780862752 16.429113040011135 9.602164185337797 0 0 0
27 0 1 -1.1104 12.324564411160514 19.216386450926056 12.231179942522871 0 0 0
199 0 2 2.2208 8.127285255142922 14.98618808870683 10.800918526355481 0 0 0
149 0 1 -1.1104 12.229325423786207 16.409534763017245 6.822606965655368 0 0 0
111 0 1 -1.1104 6.713536362234587 13.374211208522066 6.623868103233362 0 0 0
154 0 1 -1.1104 9.498796579834218 13.40694241475808 6.695319763097578 0 0 0
145 0 1 -1.1104 12.314279068534587 19.24462371123802 6.753012796896725 0 0 0
288 0 1 -1.1104 6.690238506956964 19.07945010132583 9.29615228054394 0 0 0
81 0 1 -1.1104 12.311422085930117 16.347080865376387 12.28019201444909 0 0 0
229 0 1 -1.1104 9.529377766259053 16.327652841188414 9.425322334835025 0 0 0
25 0 2 2.2208 10.927268631517407 17.79625263831226 10.70556672308979 0 0 0
165 0 1 -1.1104 9.53230689341866 19.16819262590607 9.41269764960612 0 0 0
296 0 1 -1.1104 6.7285234068942446 19.05501745765071 12.175368799714152 0 0 0
50 0 1 -1.1104 12.396701169823762 19.254967914470896 9.4881009276291 0 0 0
104 0 1 -1.1104 12.353575512765023 16.27789560835816 9.43427039456273 0 0 0
105 0 1 -1.1104 9.518215476741853 13.628987132637485 12.416555312324789 0 0 0
290 0 1 -1.1104 6.756076121514579 13.46809390304162 9.451355307010848 0 0 0
322 0 2 2.2208 8.156207562065733 17.701222458500048 13.586928024273432 0 0 0
201 0 1 -1.1104 9.386008635403071 16.419315408899056 12.225154149908937 0 0 0
297 0 1 -1.1104 6.785346069135738 13.476230626078074 12.198934561270875 0 0 0
135 0 1 -1.1104 9.521637367324914 19.084569825952375 12.221422481761163 0 0 0
118 0 1 -1.1104 6.773689973298664 16.044523307384424 6.858492741660185 0 0 0
112 0 1 -1.1104 6.598634364843315 19.034833826563702 6.6180470122744355 0 0 0
26 0 1 -1.1104 12.30374570533775 13.490566611677576 12.327002897889448 0 0 0
82 0 2 2.2208 10.995421370152666 14.788339076593122 8.133256334720608 0 0 0
136 0 2 2.2208 8.147873038517146 17.743565568140315 8.061992335947263 0 0 0
9075 0 2 2.2208 -0.31746202963426573 3.8808792789769293 13.630596715897296 0 0 0
314 0 2 2.2208 2.6470178932552244 6.466972003874532 13.617202668866515 0 0 0
334 0 2 2.2208 8.097314445748806 -2.0920837571154243 -0.35851659008537956 0 0 0
335 0 2 2.2208 8.193616567490443 3.6170277914870033 -0.36427949772556184 0 0 0
341 0 2 2.2208 5.396973552417206 0.7897928762998859 16.40292839776965 0 0 0
342 0 1 -1.1104 1.0271738819306515 -3.3328413259142966 17.970355749859873 0 0 0
343 0 1 -1.1104 1.0487909617116418 2.1849439652396394 17.847607652205756 0 0 0
346 0 1 -1.1104 1.050079533786707 -3.41500395629177 15.155565236559362 0 0 0
348 0 1 -1.1104 1.4037333654526507 2.2581950395496664 14.902369490750308 0 0 0
354 0 1 -1.1104 1.1516973433113487 -0.5562522276939403 17.770270570261548 0 0 0
356 0 2 2.2208 5.269401840837662 -1.962288236740186 19.255674586693704 0 0 0
357 0 2 2.2208 5.407886086035212 3.5156506878381384 19.214868239086414 0 0 0
358 0 1 -1.1104 1.295264147733185 -0.5363438250771261 14.997762619619289 0 0 0
362 0 1 -1.1104 3.9024965477869533 -3.3234011995570096 17.76347750132837 0 0 0
363 0 1 -1.1104 3.9949256543238767 2.1124663112409743 17.843720558642218 0 0 0
364 0 2 2.2208 2.587441637663906 0.6668145943001369 19.147929266723192 0 0 0
365 0 1 -1.1104 3.9164863948411286 -3.446183005976775 14.999425925522267 0 0 0
367 0 1 -1.1104 4.027861469991381 2.391334686672252 15.055298724875735 0 0 0
369 0 2 2.2208 2.520843032414611 -2.092608189037893 16.38419930105557 0 0 0
371 0 1 -1.1104 3.941536188753523 -0.6278233504491987 17.791632359388707 0 0 0
372 0 1 -1.1104 4.013690415148092 -0.54283597237659 14.94135731808589 0 0 0
370 0 2 2.2208 2.545320293185944 3.603104909023155 16.359546552114896 0 0 0
377 0 2 2.2208 -0.19720126614071284 0.7400869072145603 16.519654470620758 0 0 0
9430 0 2 2.2208 -0.1657005321951941 -1.9275040068110978 19.388379487769985 0 0 0
9128 0 2 2.2208 -0.23636565508861584 3.708415613366614 19.265181209747674 0 0 0
349 0 1 -1.1104 1.2345875707369516 2.157258037974155 20.55559904668852 0 0 0
366 0 1 -1.1104 3.9252379976739666 -3.4568368472242295 20.71202643403247 0 0 0
368 0 1 -1.1104 3.9188271259157874 2.0787083136547664 20.562462250402568 0 0 0
347 0 1 -1.1104 1.3067557471240474 -3.4420498760023777 20.744633524392814 0 0 0
359 0 1 -1.1104 1.1869933585776289 -0.6210245658253237 20.704551598265457 0 0 0
373 0 1 -1.1104 3.9642409663593616 -0.629395113881472 20.551549033155535 0 0 0
9273 0 2 2.2208 13.669149486128678 20.458461569912004 16.370354900178473 0 0 0
345 0 1 -1.1104 6.77482968052429 2.1784106539874504 17.853426826514134 0 0 0
352 0 1 -1.1104 6.913594368226181 2.1685279004182147 15.080660866223651 0 0 0
360 0 1 -1.1104 6.81343572042891 -0.5356502746118128 15.050144971108082 0 0 0
355 0 1 -1.1104 6.827291391860934 -0.6160193410339662 17.876733699137706 0 0 0
350 0 1 -1.1104 6.776332486868404 -3.3009711998659177 15.269348619407692 0 0 0
344 0 1 -1.1104 6.715811899302293 -3.4761109530533774 17.933645636083693 0 0 0
384 0 2 2.2208 11.06723967237947 0.793794775495893 16.63311834074475 0 0 0
385 0 1 -1.1104 12.488738923638424 -3.4361946465022406 17.84088240528525 0 0 0
386 0 1 -1.1104 12.333188573240042 2.246832285000857 18.055921576107043 0 0 0
387 0 1 -1.1104 12.500180695224682 -3.470190987528583 15.046672894570854 0 0 0
389 0 1 -1.1104 12.435038165906443 2.227946608071426 15.229425127051684 0 0 0
391 0 1 -1.1104 12.486857472362038 -0.7850741628579693 17.891433369425084 0 0 0
392 0 2 2.2208 11.030156811263565 -2.106993414622833 19.16871962879337 0 0 0
393 0 2 2.2208 10.893729894136081 3.539949758065188 19.393487882047445 0 0 0
394 0 1 -1.1104 12.318111773917705 -0.5222868940391143 15.038384562796674 0 0 0
396 0 1 -1.1104 9.69704695425663 -3.3717003644918324 17.77239375348897 0 0 0