LAMMPS (29 Oct 2020)
OMP_NUM_THREADS environment is not set. Defaulting to 1 thread. (../comm.cpp:94)
  using 1 OpenMP thread(s) per MPI task
OMP_NUM_THREADS environment is not set. Defaulting to 1 thread. (../comm.cpp:94)
  using 1 OpenMP thread(s) per MPI task
Reading data file ...
  orthogonal box = (-0.3699962 -4.4854297 -0.36570331) to (27.709996 332.56543 27.705703)
  2 by 13 by 2 MPI processor grid
  reading atoms ...
  17730 atoms
  reading velocities ...
  17730 velocities
Finding 1-2 1-3 1-4 neighbors ...
  special bond factors lj:    0.0      0.0      0.0     
  special bond factors coul:  0.0      0.0      0.0     
     0 = max # of 1-2 neighbors
     0 = max # of 1-3 neighbors
     0 = max # of 1-4 neighbors
     1 = max # of special neighbors
  special bonds CPU = 0.004 seconds
  read_data CPU = 0.106 seconds
WARNING: 13 of 1000 force values in table Xe-Xe are inconsistent with -dE/dr.
  Should only be flagged at inflection points (../pair_table.cpp:461)
WARNING: 2 of 1000 force values in table Xe-O are inconsistent with -dE/dr.
  Should only be flagged at inflection points (../pair_table.cpp:461)
WARNING: 2 of 1000 force values in table Xe-Th are inconsistent with -dE/dr.
  Should only be flagged at inflection points (../pair_table.cpp:461)
Setting atom values ...
  11760 settings made for charge
Setting atom values ...
  5880 settings made for charge
Setting atom values ...
  90 settings made for charge
PPPM initialization ...
  using 12-bit tables for long-range coulomb (../kspace.cpp:328)
  G vector (1/distance) = 0.29876592
  grid = 40 240 40
  stencil order = 5
  estimated absolute RMS force accuracy = 0.00015618752
  estimated relative force accuracy = 1.0846623e-05
  using single precision MKL FFT
  3d grid and FFT values/proc = 18225 7600
Neighbor list info ...
  update every 1 steps, delay 0 steps, check yes
  max neighbors/atom: 2000, page size: 100000
  master list distance cutoff = 13
  ghost atom cutoff = 13
  binsize = 6.5, bins = 5 52 5
  3 neighbor lists, perpetual/occasional/extra = 3 0 0
  (1) pair coul/long, perpetual
      attributes: half, newton on
      pair build: half/bin/newton
      stencil: half/bin/3d/newton
      bin: standard
  (2) pair eam/alloy, perpetual, skip from (1)
      attributes: half, newton on
      pair build: skip
      stencil: none
      bin: none
  (3) pair table, perpetual, skip from (1)
      attributes: half, newton on
      pair build: skip
      stencil: none
      bin: none
Setting up Verlet run ...
  Unit style    : metal
  Current step  : 0
  Time step     : 0.001
Per MPI rank memory allocation (min/avg/max) = 9.250 | 9.933 | 10.04 Mbytes
Step Temp E_pair E_mol TotEng Press 
       0          600   -230471.15            0   -229096.15   -2205.2995 
  100000    594.37355   -230465.47            0   -229103.37   -2198.8517 
Loop time of 694.253 on 52 procs for 100000 steps with 17730 atoms

Performance: 12.445 ns/day, 1.928 hours/ns, 144.040 timesteps/s
99.8% CPU use with 52 MPI tasks x 1 OpenMP threads

MPI task timing breakdown:
Section |  min time  |  avg time  |  max time  |%varavg| %total
---------------------------------------------------------------
Pair    | 480.57     | 498.77     | 524.54     |  46.7 | 71.84
Bond    | 0.0069922  | 0.01471    | 0.023062   |   2.5 |  0.00
Kspace  | 146.96     | 171.75     | 188.54     |  76.8 | 24.74
Neigh   | 1.7958     | 1.9534     | 2.1066     |   4.9 |  0.28
Comm    | 14.657     | 15.748     | 17.497     |  19.2 |  2.27
Output  | 5.8364e-05 | 6.3743e-05 | 0.0002905  |   0.0 |  0.00
Modify  | 3.0743     | 4.3263     | 5.9872     |  45.9 |  0.62
Other   |            | 1.685      |            |       |  0.24

Nlocal:        340.962 ave         369 max         319 min
Histogram: 2 1 7 13 12 5 7 2 2 1
Nghost:        5533.21 ave        5701 max        5347 min
Histogram: 19 1 0 0 4 4 3 1 0 20
Neighs:       107654.0 ave      119323 max       93108 min
Histogram: 1 3 2 4 5 12 15 7 2 1

Total # of neighbors = 5598029
Ave neighs/atom = 315.73768
Ave special neighs/atom = 0.0000000
Neighbor list builds = 632
Dangerous builds = 0
11760 atoms in group oxygen
PPPM initialization ...
  using 12-bit tables for long-range coulomb (../kspace.cpp:328)
  G vector (1/distance) = 0.29876592
  grid = 40 240 40
  stencil order = 5
  estimated absolute RMS force accuracy = 0.00015618752
  estimated relative force accuracy = 1.0846623e-05
  using single precision MKL FFT
  3d grid and FFT values/proc = 18225 7600
Neighbor list info ...
  update every 1 steps, delay 0 steps, check yes
  max neighbors/atom: 2000, page size: 100000
  master list distance cutoff = 13
  ghost atom cutoff = 13
  binsize = 6.5, bins = 5 52 5
  3 neighbor lists, perpetual/occasional/extra = 3 0 0
  (1) pair coul/long, perpetual
      attributes: half, newton on
      pair build: half/bin/newton
      stencil: half/bin/3d/newton
      bin: standard
  (2) pair eam/alloy, perpetual, skip from (1)
      attributes: half, newton on
      pair build: skip
      stencil: none
      bin: none
  (3) pair table, perpetual, skip from (1)
      attributes: half, newton on
      pair build: skip
      stencil: none
      bin: none
Setting up Verlet run ...
  Unit style    : metal
  Current step  : 0
  Time step     : 0.001
Per MPI rank memory allocation (min/avg/max) = 9.505 | 10.19 | 10.29 Mbytes
Step f_2 Temp v_Tdiff v_deltaT 
       0            0    594.37355            0            0 
  100000    690.67492    596.65818  0.017850372    207.24116 
  200000    1359.9392    602.63301  0.020370026    236.49411 
  300000    2030.2798    600.89255  0.020215755    234.70304 
  400000    2700.1332    601.33338  0.020367195    236.46124 
  500000    3371.8888    597.92246  0.020331148    236.04274 
  600000    4041.3488    598.68481  0.019682481    228.51178 
  700000     4710.839    596.98515  0.020069603    233.00623 
  800000    5376.4504    596.05981  0.021073975     244.6669 
  900000    6048.6553    595.16375  0.020638579    239.61199 
 1000000    6722.4635    601.18865   0.02015005    233.94021 
Loop time of 7011.71 on 52 procs for 1000000 steps with 17730 atoms

Performance: 12.322 ns/day, 1.948 hours/ns, 142.619 timesteps/s
99.8% CPU use with 52 MPI tasks x 1 OpenMP threads

MPI task timing breakdown:
Section |  min time  |  avg time  |  max time  |%varavg| %total
---------------------------------------------------------------
Pair    | 4820.5     | 5003       | 5262.4     | 150.7 | 71.35
Bond    | 0.073089   | 0.14611    | 0.2118     |   7.8 |  0.00
Kspace  | 1532.3     | 1780       | 1954.9     | 242.8 | 25.39
Neigh   | 18.011     | 19.672     | 21.226     |  17.1 |  0.28
Comm    | 148.88     | 158.32     | 177.07     |  62.8 |  2.26
Output  | 0.001193   | 0.0012837  | 0.0023404  |   0.4 |  0.00
Modify  | 6.2445     | 6.7953     | 7.2509     |   8.5 |  0.10
Other   |            | 43.82      |            |       |  0.62

Nlocal:        340.962 ave         369 max         319 min
Histogram: 1 4 7 10 8 14 3 1 2 2
Nghost:        5532.12 ave        5705 max        5350 min
Histogram: 20 0 0 0 4 7 1 0 0 20
Neighs:       107637.0 ave      117786 max       95580 min
Histogram: 3 3 1 4 7 10 14 5 2 3

Total # of neighbors = 5597149
Ave neighs/atom = 315.68804
Ave special neighs/atom = 0.0000000
Neighbor list builds = 6382
Dangerous builds = 0
Total wall time: 2:08:26
