ITEM: TIMESTEP
80000
ITEM: NUMBER OF ATOMS
17730
ITEM: BOX BOUNDS pp pp pp
-3.6425415083884882e-01 2.7704254150838722e+01
-4.4751631071192328e+00 3.3255516310711926e+02
-3.6163453201563778e-01 2.7701634532015252e+01
ITEM: ATOMS id type q x y z
1 2 2.2208 5.02919 1.17884 5.26119
2 1 -1.1104 0.943899 -2.95774 0.959226
3 1 -1.1104 1.03151 2.53471 1.21538
6 1 -1.1104 0.628298 -3.14721 3.79935
7 1 -1.1104 0.930638 2.5434 3.9566
10 1 -1.1104 0.85813 -0.202848 1.09853
12 2 2.2208 5.04962 -1.63868 2.33518
14 1 -1.1104 0.711362 -0.300585 3.93624
16 1 -1.1104 3.6196 -3.04231 0.919879
17 1 -1.1104 3.72412 2.4144 1.04379
18 2 2.2208 2.40665 1.07726 2.47197
19 1 -1.1104 3.53274 -2.94558 3.87316
20 1 -1.1104 3.55761 2.43708 3.90237
21 2 2.2208 2.12666 -1.63737 5.24595
23 1 -1.1104 3.64228 -0.33459 1.17971
24 1 -1.1104 3.66609 -0.291958 3.91177
13 2 2.2208 4.89127 3.90678 2.56767
22 2 2.2208 2.27269 3.86972 5.35915
15 1 -1.1104 6.40163 -0.238143 3.85701
8 1 -1.1104 6.4658 -3.13217 3.82283
9 1 -1.1104 6.4509 2.5744 3.81084
5 1 -1.1104 6.54344 2.321 0.957405
170 1 -1.1104 0.705771 -0.382795 6.68422
4 1 -1.1104 6.49183 -3.08065 1.05744
11 1 -1.1104 6.37494 -0.395285 1.0524
8469 2 2.2208 13.5204 17.7208 2.47671
8045 2 2.2208 7.84134 -4.41358 8.02818
375 2 2.2208 7.81441 15.0391 -0.370743
171 1 -1.1104 6.40971 -0.405837 6.66922
166 1 -1.1104 0.860065 -3.1209 6.70558
333 2 2.2208 2.2418 -1.64883 -0.417796
8037 2 2.2208 2.15514 -4.37294 2.41431
8038 2 2.2208 5.07885 -4.47922 5.12659
376 2 2.2208 5.17292 17.8582 -0.323878
31 2 2.2208 10.7593 1.20826 5.33964
32 1 -1.1104 12.1383 -3.02058 0.97373
33 1 -1.1104 11.9379 2.34432 0.976708
34 1 -1.1104 12.1442 -3.06362 3.89216
35 1 -1.1104 12.1557 2.5512 3.76764
36 1 -1.1104 12.0254 -0.463832 1.03519
37 2 2.2208 10.7572 -1.564 2.52838
38 2 2.2208 10.6717 3.9385 2.39481
39 1 -1.1104 12.2201 -0.252973 3.65528
40 1 -1.1104 9.32328 -3.09956 1.12453
41 1 -1.1104 9.27887 2.58579 1.09295
42 2 2.2208 7.95086 0.978876 2.56142
43 1 -1.1104 9.18098 -3.03061 3.9008
44 1 -1.1104 9.24049 2.4759 3.94845
45 2 2.2208 7.94285 -1.69579 5.32528
46 2 2.2208 7.98997 3.97036 5.18622
47 1 -1.1104 9.36725 -0.318684 1.26636
48 1 -1.1104 9.31317 -0.239035 4.06514
8742 2 2.2208 13.5598 1.10027 2.50017
657 2 2.2208 10.7396 12.2658 -0.422731
336 2 2.2208 10.6123 1.0869 -0.271105
8703 2 2.2208 13.5635 20.5639 10.9573
8518 2 2.2208 13.5102 20.5059 5.33432
208 1 -1.1104 9.34449 -3.0466 6.75459
8602 2 2.2208 13.4924 12.1445 2.38891
405 2 2.2208 10.7964 17.7549 -0.295226
8441 2 2.2208 13.5819 3.88954 5.40349
8040 2 2.2208 7.87122 -4.48961 2.41195
54 2 2.2208 5.0339 6.61914 5.31681
55 2 2.2208 4.9827 12.3892 5.33995
56 1 -1.1104 0.904236 8.04046 1.19132
58 1 -1.1104 1.00782 8.14083 3.78222
60 1 -1.1104 0.954083 5.33002 1.06027
61 1 -1.1104 1.06476 10.8383 0.999165
66 2 2.2208 4.8526 9.47142 2.53086
67 1 -1.1104 0.923286 5.29094 3.91631
68 1 -1.1104 0.842667 10.9101 3.98626
71 1 -1.1104 3.84755 8.1215 1.11888
72 2 2.2208 2.23465 6.59819 2.47058
73 2 2.2208 2.2424 12.332 2.47984
74 1 -1.1104 3.6863 8.07144 3.91462
75 2 2.2208 2.39852 9.35515 5.274
76 1 -1.1104 3.74814 5.22629 1.09584
77 1 -1.1104 3.80045 10.7911 1.10269
79 1 -1.1104 3.60791 5.27513 3.91115
80 1 -1.1104 3.56383 10.9726 3.78916
69 1 -1.1104 6.37992 5.49535 3.90304
63 1 -1.1104 6.49547 5.23358 1.1623
57 1 -1.1104 6.46424 8.05262 0.958937
62 1 -1.1104 1.09931 10.7781 6.63633
8041 2 2.2208 10.6877 -4.49231 5.29665
104 2 2.2208 10.8011 20.5866 8.2969
8601 2 2.2208 13.404 6.69714 2.62564
70 1 -1.1104 6.34615 10.8628 4.04075
8653 2 2.2208 13.5127 12.2387 8.06175
59 1 -1.1104 6.39346 8.12428 3.96289
64 1 -1.1104 6.49476 10.8694 1.30794
84 2 2.2208 10.4998 6.78713 5.18543
85 2 2.2208 10.6797 12.2943 5.30661
86 1 -1.1104 12.1367 8.14139 1.13362
87 1 -1.1104 12.1271 8.15652 3.88382
88 1 -1.1104 11.9869 5.26971 1.1412
89 1 -1.1104 12.0366 10.8161 0.872029
91 2 2.2208 10.7157 9.50873 2.37482
92 1 -1.1104 11.9299 5.40811 4.05314
93 1 -1.1104 12.1855 10.8779 3.67497
94 1 -1.1104 9.25799 8.16408 1.14851
95 2 2.2208 7.77465 6.83259 2.51521
96 2 2.2208 7.83718 12.3779 2.50336
97 1 -1.1104 9.23167 8.23763 3.98349
98 2 2.2208 7.7762 9.55334 5.37882
99 1 -1.1104 9.43661 5.46349 1.20899
100 1 -1.1104 9.27638 10.7909 1.04164
102 1 -1.1104 9.11326 5.40717 3.8901
103 1 -1.1104 9.3636 10.8297 3.85149
143 1 -1.1104 12.1095 13.6702 6.74319
8802 2 2.2208 13.6377 20.605 -0.189299
378 2 2.2208 2.14823 20.3669 -0.289962
90 1 -1.1104 12.0357 10.8881 6.61331
267 1 -1.1104 9.23686 8.10698 6.81926
8842 2 2.2208 13.6462 14.839 -0.421213
8743 2 2.2208 13.5827 -1.62522 5.21218
106 2 2.2208 5.03188 17.6952 5.31366
107 1 -1.1104 0.973775 13.5238 0.826341
109 1 -1.1104 0.816313 19.0867 1.01264
113 1 -1.1104 0.939317 13.6344 3.76826
114 1 -1.1104 0.898173 19.0341 3.81763
116 1 -1.1104 0.823766 16.213 1.12771
119 2 2.2208 5.01994 14.9483 2.42032
120 2 2.2208 5.24816 20.6775 2.47224
121 1 -1.1104 0.830405 16.4577 3.89147
123 1 -1.1104 3.79206 13.4884 0.997709
125 1 -1.1104 3.62924 19.1347 1.09834
127 2 2.2208 2.26027 17.7775 2.42514
128 1 -1.1104 3.63805 13.6941 3.93934
129 1 -1.1104 3.75236 18.9731 3.88539
130 2 2.2208 2.21258 15.0232 5.31587
131 2 2.2208 2.40489 20.507 5.27599
132 1 -1.1104 3.82462 16.4053 1.09401
134 1 -1.1104 3.56243 16.3245 3.76894
138 1 -1.1104 6.57954 19.259 1.09586
115 1 -1.1104 6.41038 13.5774 3.97826
149 1 -1.1104 12.2285 16.6353 6.73116
139 1 -1.1104 6.50047 19.0967 3.99315
140 1 -1.1104 6.50308 16.3334 1.12918
122 1 -1.1104 6.39547 16.4341 3.91209
8740 2 2.2208 13.6299 17.8068 8.10201
409 2 2.2208 7.84341 20.7599 -0.231702
289 1 -1.1104 6.59254 16.3491 9.55296
110 1 -1.1104 6.4129 13.6387 1.01043
141 2 2.2208 10.7476 17.8806 5.40857
142 1 -1.1104 12.1171 13.5873 1.09175
144 1 -1.1104 12.0328 19.1913 1.22295
146 1 -1.1104 12.1098 13.6367 3.92385
147 1 -1.1104 12.1619 19.0714 4.05207
148 1 -1.1104 12.0832 16.3889 1.04773
150 2 2.2208 10.7531 15.0014 2.47772
151 2 2.2208 10.668 20.5161 2.50453
152 1 -1.1104 12.0934 16.4916 3.94956
153 1 -1.1104 9.26714 13.6287 1.05857
155 1 -1.1104 9.20859 19.1942 1.22288
157 2 2.2208 7.84751 17.8562 2.58408
158 1 -1.1104 9.25422 13.6659 3.91879
159 1 -1.1104 9.32687 19.1219 4.0598
160 2 2.2208 7.83632 15.0742 5.3766
161 2 2.2208 7.99355 20.6009 5.40353
162 1 -1.1104 9.28991 16.3752 1.14543
164 1 -1.1104 9.31273 16.5148 4.07803
154 1 -1.1104 9.39267 13.5949 6.68402
8657 2 2.2208 13.5686 9.3615 10.7863
8770 2 2.2208 13.5143 -1.58384 -0.42203
52 1 -1.1104 9.39299 16.5179 12.4641
8539 2 2.2208 13.5934 15.0273 5.25652
53 1 -1.1104 12.0985 19.1431 9.50822
173 1 -1.1104 3.65371 2.42428 6.68904
172 1 -1.1104 3.59608 -3.12019 6.53552
167 1 -1.1104 0.952363 2.49444 6.71713
168 1 -1.1104 6.48599 -3.11059 6.58741
174 1 -1.1104 3.64275 -0.304132 6.60158
175 2 2.2208 5.17289 1.13445 10.9811
176 1 -1.1104 0.985518 -3.12535 12.2621
177 1 -1.1104 0.871329 2.48539 12.2784
180 1 -1.1104 0.706554 -3.24795 9.38477
181 1 -1.1104 0.941182 2.4141 9.49785
184 1 -1.1104 1.03131 -0.360497 12.3318
186 2 2.2208 5.07354 -1.71022 8.0676
188 1 -1.1104 0.936811 -0.310552 9.53175
190 1 -1.1104 3.67614 -3.01612 12.359
191 1 -1.1104 3.62339 2.53703 12.3388
192 2 2.2208 2.32738 1.09265 8.05695
193 1 -1.1104 3.55297 -3.01981 9.58385
194 1 -1.1104 3.72685 2.4391 9.44077
195 2 2.2208 2.28543 -1.73769 10.8789
196 2 2.2208 2.27312 3.86732 10.9001
197 1 -1.1104 3.75008 -0.251532 12.2917
198 1 -1.1104 3.70711 -0.310848 9.52292
187 2 2.2208 5.14413 3.76665 8.11719
182 1 -1.1104 6.63267 -3.08919 9.54969
189 1 -1.1104 6.67947 -0.296289 9.50706
169 1 -1.1104 6.50503 2.33275 6.61952
178 1 -1.1104 6.56257 -3.05623 12.3147
179 1 -1.1104 6.51355 2.57166 12.2646
185 1 -1.1104 6.52366 -0.227717 12.4241
8442 2 2.2208 13.4955 -1.69446 10.9587
183 1 -1.1104 6.51639 2.52466 9.42243
210 1 -1.1104 9.44207 -0.129855 6.94385
206 1 -1.1104 12.1155 2.45407 6.77634
207 1 -1.1104 12.1182 -0.120004 6.6746
209 1 -1.1104 9.43124 2.7007 6.67198
205 1 -1.1104 12.1677 -2.88311 6.61578
211 2 2.2208 10.7464 1.17542 10.8819
212 1 -1.1104 12.1857 -3.03226 12.1701
213 1 -1.1104 12.2616 2.56995 12.3248
214 1 -1.1104 12.0909 -3.05025 9.331
215 1 -1.1104 12.1951 2.4233 9.46809
216 1 -1.1104 12.0476 -0.205201 12.2667
217 2 2.2208 10.781 -1.50259 8.097
219 1 -1.1104 12.1693 -0.277109 9.40533
220 1 -1.1104 9.34042 -3.07451 12.4252
221 1 -1.1104 9.3892 2.56126 12.1308
222 2 2.2208 7.98708 1.08272 8.09033
223 1 -1.1104 9.3794 -3.01191 9.55663
224 1 -1.1104 9.39458 2.506 9.53813
225 2 2.2208 7.98771 -1.68441 10.9675
227 1 -1.1104 9.36675 -0.19828 12.4661
228 1 -1.1104 9.37178 -0.316652 9.69224
226 2 2.2208 7.88105 3.92644 10.7881
218 2 2.2208 10.7708 4.08273 8.13234
8576 2 2.2208 13.5278 3.9016 10.8183
239 1 -1.1104 3.75523 5.17778 6.76283
78 1 -1.1104 3.8173 10.7393 6.61805
235 1 -1.1104 6.49191 7.88912 6.8011
234 1 -1.1104 0.930661 8.00281 6.71265
236 1 -1.1104 0.906066 5.23095 6.79331
238 1 -1.1104 3.69207 7.91526 6.81359
240 2 2.2208 5.18677 6.70248 10.916
241 2 2.2208 5.19389 12.2307 10.8632
242 1 -1.1104 0.81748 8.11091 12.2113
244 1 -1.1104 0.935406 7.91852 9.38081
246 1 -1.1104 0.849891 5.18643 12.3276
247 1 -1.1104 0.931525 10.825 12.2688
250 2 2.2208 5.10812 9.35203 8.19426
251 1 -1.1104 0.809972 5.20376 9.64467
252 1 -1.1104 0.845258 10.7763 9.527
255 1 -1.1104 3.66352 8.04171 12.297
256 2 2.2208 2.37449 6.57466 8.1214
257 2 2.2208 2.40498 12.2029 8.07679
258 1 -1.1104 3.7506 8.00753 9.56446
259 2 2.2208 2.27056 9.513 10.9138
260 1 -1.1104 3.70308 5.36587 12.1964
261 1 -1.1104 3.68217 10.9429 12.2992
262 1 -1.1104 3.69344 5.14857 9.401
263 1 -1.1104 3.77961 10.8325 9.48511
65 1 -1.1104 6.44239 10.7975 6.95505
253 1 -1.1104 6.49789 5.41896 9.48041
254 1 -1.1104 6.56631 10.836 9.62455
243 1 -1.1104 6.58041 8.08932 12.3367
248 1 -1.1104 6.47779 5.42399 12.1566
249 1 -1.1104 6.56374 10.9641 12.333
156 1 -1.1104 9.34354 19.314 6.91754
237 1 -1.1104 6.61386 5.17071 6.73104
269 1 -1.1104 9.41308 5.26568 6.54823
245 1 -1.1104 6.47758 8.1024 9.53534
101 1 -1.1104 9.34996 10.9863 6.68633
266 1 -1.1104 12.1146 5.35599 6.87165
265 1 -1.1104 12.004 8.13456 6.67947
264 1 -1.1104 9.34295 10.932 9.40613
268 1 -1.1104 9.34879 5.33637 9.31215
270 1 -1.1104 9.30372 10.8693 12.3419
271 1 -1.1104 9.22852 5.30934 12.2749
272 2 2.2208 8.03997 9.50218 10.9126
273 1 -1.1104 9.36778 8.16742 9.55197
274 2 2.2208 7.94348 12.2653 8.13727
275 2 2.2208 7.97806 6.76581 8.12357
276 2 2.2208 10.7463 6.78586 10.8821
277 2 2.2208 10.8357 12.3697 10.7894
278 1 -1.1104 12.301 8.11373 12.3264
279 1 -1.1104 12.0875 8.18659 9.48063
280 1 -1.1104 11.8911 5.38656 12.4164
281 1 -1.1104 12.1687 10.931 12.1111
282 2 2.2208 10.6415 9.53246 7.99249
283 1 -1.1104 12.208 5.30496 9.58772
284 1 -1.1104 12.0263 10.9015 9.38436
285 1 -1.1104 9.50881 8.07512 12.3295
26 2 2.2208 10.834 17.7542 10.9757
8652 2 2.2208 13.4826 6.65043 8.0595
8470 2 2.2208 13.4898 9.54101 5.29213
133 1 -1.1104 3.63706 16.2944 6.73641
124 1 -1.1104 3.70254 13.7056 6.75721
111 1 -1.1104 6.51616 13.6041 6.60265
108 1 -1.1104 0.92765 13.4475 6.72266
118 1 -1.1104 6.42337 16.4313 6.82194
302 1 -1.1104 0.886034 19.1644 6.48788
306 1 -1.1104 6.44121 16.3781 12.3594
112 1 -1.1104 6.547 19.1907 6.66011
117 1 -1.1104 0.805202 16.4349 6.76549
126 1 -1.1104 3.72608 19.0328 6.81092
232 2 2.2208 2.30054 14.8409 10.9063
286 1 -1.1104 3.74838 19.1303 12.4561
287 1 -1.1104 3.65155 13.6171 12.2837
291 1 -1.1104 0.773592 18.88 9.4033
292 1 -1.1104 1.03801 16.2234 9.50936
293 2 2.2208 5.1526 20.4664 8.13164
294 1 -1.1104 1.05132 13.578 9.58596
295 2 2.2208 5.13978 15.0025 8.10651
298 1 -1.1104 0.90461 18.9994 12.3365
299 1 -1.1104 0.87707 13.484 12.3738
300 2 2.2208 5.08725 17.7786 11.118
301 1 -1.1104 3.72962 19.243 9.61531
303 2 2.2208 2.37169 17.7042 8.10332
304 1 -1.1104 3.87783 16.4583 9.66034
305 1 -1.1104 3.77252 13.5475 9.44847
307 1 -1.1104 0.849358 16.1013 12.2937
308 1 -1.1104 3.62442 16.4943 12.4068
309 2 2.2208 2.51935 20.502 11.0609
288 1 -1.1104 6.39209 19.171 9.57372
290 1 -1.1104 6.54281 13.5803 9.3423
297 1 -1.1104 6.5704 13.6534 12.3085
296 1 -1.1104 6.63121 19.0976 12.47
233 1 -1.1104 9.29457 19.1878 9.56781
8739 2 2.2208 13.738 15.0523 10.9243
51 2 2.2208 8.03599 20.5228 10.9803
199 1 -1.1104 9.40646 19.2001 12.3656
145 1 -1.1104 12.1086 19.3378 6.81115
163 1 -1.1104 9.25934 16.4434 6.78898
30 2 2.2208 7.98499 15.1076 10.91
27 1 -1.1104 12.2971 13.6814 12.1185
105 1 -1.1104 12.1676 16.4661 9.57357
49 1 -1.1104 12.0792 19.181 12.4548
50 1 -1.1104 12.177 13.6681 9.31769
82 2 2.2208 10.6915 15.0482 8.13119
165 1 -1.1104 9.45327 13.6233 12.4034
81 1 -1.1104 12.204 16.4094 12.384
202 1 -1.1104 9.34944 16.4812 9.58259
229 2 2.2208 7.89289 17.8403 8.09869
230 1 -1.1104 9.18513 13.7066 9.46961
337 2 2.2208 7.89017 -1.69052 -0.227145
8754 2 2.2208 13.5254 6.59006 13.8238
323 2 2.2208 7.97825 6.68995 13.6844
321 2 2.2208 4.98872 9.57398 13.6583
324 2 2.2208 10.8889 9.45732 13.6671
597 2 2.2208 7.86846 3.8384 -0.440524
655 2 2.2208 10.5266 6.64052 -0.246816
632 2 2.2208 5.09938 12.1258 -0.284676
630 2 2.2208 5.09275 6.7275 -0.389925
8988 2 2.2208 13.5352 3.84249 -0.295177
631 2 2.2208 2.36262 9.38881 -0.419955
8749 2 2.2208 13.4258 1.07812 13.6958
338 2 2.2208 5.12248 1.00892 16.6271
339 1 -1.1104 0.879501 -3.094 17.9216
340 1 -1.1104 0.863289 2.4252 17.9682
343 1 -1.1104 0.894261 -2.97032 15.1054
345 1 -1.1104 0.973563 2.46999 15.078
351 1 -1.1104 0.746022 -0.422191 18.034
353 2 2.2208 5.05657 -1.71923 19.3478
355 1 -1.1104 0.910866 -0.322824 15.2623
359 1 -1.1104 3.71751 -3.18948 17.863
360 1 -1.1104 3.6311 2.37217 18.0097
361 2 2.2208 2.16138 1.1003 19.3748
362 1 -1.1104 3.67762 -3.15375 15.2439
364 1 -1.1104 3.75595 2.48373 15.1055
366 2 2.2208 2.25112 -1.65229 16.5661
367 2 2.2208 2.35568 3.79242 16.4881
368 1 -1.1104 3.64095 -0.373665 17.8485
369 1 -1.1104 3.60495 -0.377002 15.0882
354 2 2.2208 5.1386 3.98831 19.217
341 1 -1.1104 6.48024 -3.20605 17.9343
352 1 -1.1104 6.54249 -0.358819 17.966
357 1 -1.1104 6.37346 -0.430751 15.1972
8990 2 2.2208 13.5933 -1.50411 22.112
599 2 2.2208 -0.514304 17.7656 22.0803
9064 2 2.2208 13.4897 9.3335 22.0521
347 1 -1.1104 6.59996 -3.20115 15.2961
342 1 -1.1104 6.42569 2.51855 17.9895
658 1 -1.1104 9.50518 19.2532 26.4217
8844 2 2.2208 13.6468 14.9104 22.166
8798 2 2.2208 13.5777 3.9097 16.4505
8989 2 2.2208 13.4474 1.16148 24.9972
349 1 -1.1104 6.46879 2.35788 15.223
8838 2 2.2208 13.577 12.1718 24.8757
381 2 2.2208 10.7057 1.20681 16.5285
382 1 -1.1104 12.0525 -3.01924 17.9205
383 1 -1.1104 12.162 2.66412 17.9872
384 1 -1.1104 12.194 -3.03808 15.1525
386 1 -1.1104 12.0608 2.42045 15.1475
388 1 -1.1104 12.0306 -0.186075 17.9786
389 2 2.2208 10.7207 -1.66754 19.3432
391 1 -1.1104 12.0408 -0.311135 15.1695
393 1 -1.1104 9.32772 -3.21149 18.0249
394 1 -1.1104 9.15013 2.57626 17.7435
395 2 2.2208 7.9139 1.15246 19.3514
396 1 -1.1104 9.33364 -3.01954 15.1757
398 1 -1.1104 9.26144 2.53624 14.885
400 2 2.2208 7.90834 -1.77412 16.629
402 1 -1.1104 9.24356 -0.169929 17.9088
403 1 -1.1104 9.25798 -0.223504 15.2249
401 2 2.2208 7.91871 3.90652 16.4727
390 2 2.2208 10.6627 4.05965 19.3962
8099 2 2.2208 7.84902 -4.46574 24.9392
8799 2 2.2208 13.5101 -1.68789 16.5643
605 2 2.2208 8.07309 17.8009 24.9415
8804 2 2.2208 13.439 1.16018 19.2024
569 1 -1.1104 12.2733 19.2264 23.6193
319 2 2.2208 10.6893 3.92804 13.6169
596 2 2.2208 7.86669 20.6642 22.1529
414 2 2.2208 5.19542 6.6004 16.3547
415 2 2.2208 5.33854 12.2335 16.5489
416 1 -1.1104 0.866109 8.00395 18.0004
418 1 -1.1104 0.906097 8.12422 15.0657
422 1 -1.1104 0.924163 5.13636 17.8248
423 1 -1.1104 0.92693 10.8739 17.8902
426 2 2.2208 5.18725 9.39783 19.3282
427 1 -1.1104 0.921935 5.24357 15.0588
429 1 -1.1104 0.848037 10.7827 15.0931
435 1 -1.1104 3.73319 8.09344 17.792
436 2 2.2208 2.2721 6.6447 19.3031
437 2 2.2208 2.36021 12.1683 19.3941
438 1 -1.1104 3.85058 8.17382 14.9758
440 2 2.2208 2.26851 9.46864 16.5085
441 1 -1.1104 3.68986 5.33229 17.8077
442 1 -1.1104 3.74743 10.9553 17.984
443 1 -1.1104 3.58547 5.36508 15.13
445 1 -1.1104 3.60796 10.8614 15.3009
420 1 -1.1104 6.58507 8.0353 15.2037
566 1 -1.1104 6.51266 16.4885 26.2875
417 1 -1.1104 6.48164 8.10726 17.8801
431 1 -1.1104 6.52138 5.20144 15.1249
8101 2 2.2208 2.27824 -4.49568 24.9365
428 1 -1.1104 0.969394 5.38136 20.6239
434 1 -1.1104 6.49408 10.9023 20.7898
320 2 2.2208 2.28571 6.71889 13.6105
433 1 -1.1104 6.51047 10.8881 15.1379
425 1 -1.1104 6.5407 10.8048 17.9255
424 1 -1.1104 6.54443 5.3278 17.7715
450 2 2.2208 10.8021 6.71497 16.4605
451 2 2.2208 10.776 12.309 16.3978
452 1 -1.1104 12.1898 8.05643 17.7994
453 1 -1.1104 12.2209 8.16033 15.0924
455 1 -1.1104 12.1095 5.42871 17.9361
456 1 -1.1104 12.1276 10.8524 17.8275
457 2 2.2208 10.78 9.58455 19.2574
458 1 -1.1104 12.0733 5.23518 15.0416
460 1 -1.1104 12.269 10.892 15.1819
462 1 -1.1104 9.39356 8.0615 17.8828
463 2 2.2208 7.96658 6.78873 19.1817
464 2 2.2208 7.83462 12.2595 19.2787
465 1 -1.1104 9.37012 8.01222 15.1286
467 2 2.2208 8.03146 9.49308 16.4067
468 1 -1.1104 9.33541 5.30566 17.8404
469 1 -1.1104 9.36593 10.8301 17.802
470 1 -1.1104 9.42072 5.37976 15.0386
472 1 -1.1104 9.30372 10.8896 15.0692
8138 2 2.2208 2.17823 -4.41263 19.2895
487 1 -1.1104 6.56613 13.5963 20.6387
529 1 -1.1104 9.28882 13.5841 20.7735
519 1 -1.1104 12.124 19.2918 20.824
8872 2 2.2208 13.716 9.51483 16.5382
8100 2 2.2208 10.722 -4.32474 22.2502
603 1 -1.1104 9.35143 13.7274 23.72
636 1 -1.1104 9.2292 13.6802 26.3498
477 2 2.2208 5.20214 17.7596 16.4987
478 1 -1.1104 0.8136 13.5414 17.9728
479 1 -1.1104 0.89357 19.2345 18.0444
482 1 -1.1104 0.847246 13.5702 15.0775
484 1 -1.1104 0.849026 19.1309 15.2892
490 1 -1.1104 0.840696 16.314 18.0528
492 2 2.2208 5.05313 14.9625 19.2893
493 2 2.2208 5.26575 20.458 19.4295
494 1 -1.1104 0.961017 16.3262 15.1525
498 1 -1.1104 3.74838 13.5688 17.9025
499 1 -1.1104 3.77599 19.1757 18.138
500 2 2.2208 2.28818 17.7772 19.3961
501 1 -1.1104 3.83836 13.6542 14.956
503 1 -1.1104 3.79988 19.1944 15.2923
505 2 2.2208 2.29033 14.9631 16.5906
506 2 2.2208 2.24024 20.5095 16.6135
507 1 -1.1104 3.6731 16.4344 17.798
508 1 -1.1104 3.66348 16.3713 15.0145
486 1 -1.1104 6.73578 13.7682 15.12
481 1 -1.1104 6.65413 19.0933 18.0072
328 2 2.2208 5.12332 14.9938 13.7352
491 1 -1.1104 6.50605 16.4722 18.0086
488 1 -1.1104 6.54068 19.2233 15.3079
496 1 -1.1104 6.57039 16.3954 15.2378
480 1 -1.1104 6.51632 13.7299 17.8491
540 1 -1.1104 12.2065 13.5438 23.6384
8873 2 2.2208 13.6369 6.63354 19.3229
8942 2 2.2208 13.5527 14.9983 16.3455
513 2 2.2208 10.8202 17.8145 16.6672
514 1 -1.1104 12.082 13.616 17.741
515 1 -1.1104 12.1569 19.1373 18.0845
516 1 -1.1104 12.311 13.6566 14.9338
518 1 -1.1104 12.242 19.3458 15.3029
520 1 -1.1104 12.073 16.1863 17.8678
521 2 2.2208 10.6741 14.9399 19.3653
522 2 2.2208 10.6406 20.6014 19.369
523 1 -1.1104 12.2637 16.4673 15.206
525 1 -1.1104 9.247 13.6415 17.9788
526 1 -1.1104 9.31532 19.162 17.9727
527 2 2.2208 8.07606 17.7229 19.2979
528 1 -1.1104 9.40632 13.7146 15.1274
530 1 -1.1104 9.35356 19.2242 15.227
532 2 2.2208 7.98435 15.0266 16.6204
533 2 2.2208 7.91601 20.6566 16.6527
534 1 -1.1104 9.35427 16.3441 18.0061
535 1 -1.1104 9.46279 16.4028 15.0241
531 1 -1.1104 9.27627 19.2821 20.7975
8103 2 2.2208 7.96053 -4.58874 19.4402
8137 2 2.2208 10.6517 -4.49632 16.4847
8945 2 2.2208 13.4804 20.5955 16.672
8944 2 2.2208 13.5018 17.7556 19.4231
363 1 -1.1104 3.56185 -3.13761 20.6777
659 2 2.2208 7.86742 15.0025 22.1474
9005 2 2.2208 13.513 3.92808 22.1231
365 1 -1.1104 3.63282 2.57851 20.7102
358 1 -1.1104 6.48888 -0.254683 20.7332
356 1 -1.1104 0.913216 -0.370853 20.7519
370 1 -1.1104 3.69278 -0.301349 20.7283
346 1 -1.1104 0.910715 2.53008 20.8037
344 1 -1.1104 0.771033 -3.17088 20.6757
541 2 2.2208 5.07878 1.21907 22.0646
542 1 -1.1104 0.779437 -3.15664 23.5901
543 1 -1.1104 0.781518 2.39837 23.6332
546 1 -1.1104 0.772619 -2.98034 26.3672
547 1 -1.1104 0.96024 2.43693 26.3432
550 1 -1.1104 0.833922 -0.296601 23.45
552 2 2.2208 5.12671 -1.65724 24.9461
554 1 -1.1104 0.852359 -0.276582 26.351
556 1 -1.1104 3.585 -2.97175 23.4996
557 1 -1.1104 3.6466 2.633 23.5179
558 2 2.2208 2.22104 1.03018 24.8432
559 1 -1.1104 3.70313 -3.07971 26.3163
560 1 -1.1104 3.76802 2.55452 26.2916
561 2 2.2208 2.31025 -1.61091 22.1724
562 2 2.2208 2.25023 3.93209 22.0888
563 1 -1.1104 3.85517 -0.145956 23.5144
564 1 -1.1104 3.5348 -0.161692 26.3615
544 1 -1.1104 6.42297 -3.16344 23.485
555 1 -1.1104 6.55508 -0.227741 26.4895
551 1 -1.1104 6.48634 -0.324499 23.6996
549 1 -1.1104 6.46445 2.64083 26.1357
548 1 -1.1104 6.52398 -2.99138 26.2809
348 1 -1.1104 6.46593 -3.06884 20.6749
350 1 -1.1104 6.46594 2.63787 20.7018
553 2 2.2208 4.97574 3.94475 24.8295
604 1 -1.1104 9.42914 19.3599 23.5659
545 1 -1.1104 6.53817 2.55485 23.4527
330 2 2.2208 10.7763 15.0968 13.762
387 1 -1.1104 12.0778 2.40423 20.85
404 1 -1.1104 9.36174 -0.244654 20.7294
399 1 -1.1104 9.19908 2.61894 20.6057
392 1 -1.1104 12.1776 -0.321527 20.8221
385 1 -1.1104 12.0481 -2.9118 20.787
397 1 -1.1104 9.27017 -3.22587 20.7501
577 2 2.2208 10.7291 1.13658 22.2625
578 1 -1.1104 12.138 -2.98547 23.4626
579 1 -1.1104 11.9429 2.57006 23.7169
580 1 -1.1104 12.0545 -3.0348 26.2782
581 1 -1.1104 12.0499 2.54779 26.5036
582 1 -1.1104 12.1777 -0.224722 23.5902
583 2 2.2208 10.64 -1.54072 24.8828
584 2 2.2208 10.6786 4.00049 24.8283
585 1 -1.1104 12.1001 -0.265056 26.2428
586 1 -1.1104 9.32097 -2.83352 23.4099
587 1 -1.1104 9.31933 2.52007 23.4925
588 2 2.2208 7.99717 1.1804 25.0376
589 1 -1.1104 9.18666 -2.86503 26.4027
590 1 -1.1104 9.30125 2.52202 26.601
591 2 2.2208 7.88904 -1.68747 22.1248
593 1 -1.1104 9.19255 -0.128556 23.4383
594 1 -1.1104 9.29065 -0.279865 26.3773
592 2 2.2208 7.89154 3.91296 22.1337
576 2 2.2208 10.7571 14.9516 24.9825
8745 2 2.2208 13.5421 17.8051 13.821
575 1 -1.1104 12.3594 16.4667 23.4498
419 1 -1.1104 0.808062 8.11722 20.6968
430 1 -1.1104 0.842326 10.7544 20.6841
439 1 -1.1104 3.51525 8.08345 20.7124
410 2 2.2208 10.8834 17.8556 22.1686
446 1 -1.1104 3.77335 10.7311 20.6855
444 1 -1.1104 3.76335 5.3723 20.5206
421 1 -1.1104 6.58343 8.13651 20.7803
432 1 -1.1104 6.65497 5.27724 20.5985
606 2 2.2208 5.10397 6.74016 22.0197
607 2 2.2208 5.14149 12.1869 22.0802
608 1 -1.1104 0.895458 8.02518 23.4595
610 1 -1.1104 0.884061 7.95496 26.4438
612 1 -1.1104 0.870964 5.12069 23.4814
613 1 -1.1104 0.823739 10.8208 23.4756
616 2 2.2208 5.0993 9.39858 24.8305
617 1 -1.1104 0.986971 5.33373 26.4051
618 1 -1.1104 0.862199 10.7158 26.3495
621 1 -1.1104 3.68214 7.95584 23.5162
622 2 2.2208 2.31845 6.67496 25.0183
623 2 2.2208 2.33205 12.1783 25.0112
624 1 -1.1104 3.74901 8.10001 26.2534
625 2 2.2208 2.24051 9.34966 22.0821
626 1 -1.1104 3.56426 5.23926 23.4073
627 1 -1.1104 3.80655 10.6956 23.4532
628 1 -1.1104 3.65678 5.29039 26.2755
629 1 -1.1104 3.60943 10.8923 26.464
614 1 -1.1104 6.48906 5.41667 23.5083
609 1 -1.1104 6.52312 8.11666 23.5313
620 1 -1.1104 6.3569 10.89 26.2429
611 1 -1.1104 6.56107 8.12594 26.2943
615 1 -1.1104 6.53543 10.834 23.5164
517 1 -1.1104 12.1501 13.7285 20.7401
459 1 -1.1104 12.0095 5.24067 20.7147
471 1 -1.1104 9.34132 5.48986 20.6661
619 1 -1.1104 6.39804 5.41727 26.358
473 1 -1.1104 9.21948 10.8956 20.6915
466 1 -1.1104 9.30006 8.17849 20.597
454 1 -1.1104 12.135 8.08779 20.6296
461 1 -1.1104 12.1428 11.0215 20.7259
637 1 -1.1104 9.19274 10.8854 26.3131
638 1 -1.1104 9.11171 5.24514 26.1841
639 1 -1.1104 9.36683 10.9864 23.5809
640 1 -1.1104 9.36611 5.36039 23.4532
641 2 2.2208 7.91032 9.46251 22.1778
642 1 -1.1104 9.40408 7.98568 26.394
643 2 2.2208 7.84127 12.2739 24.9135
644 2 2.2208 7.90081 6.70147 24.8989
645 2 2.2208 10.761 6.79142 22.0991
646 2 2.2208 10.738 12.2604 22.2044
647 1 -1.1104 12.1352 8.02605 23.4347
648 1 -1.1104 12.1467 8.07866 26.4122
649 1 -1.1104 12.1758 5.32399 23.5064
650 1 -1.1104 12.0288 10.8269 23.4756
651 2 2.2208 10.7148 9.42997 24.9437
652 1 -1.1104 12.0615 5.29038 26.3359
653 1 -1.1104 12.056 10.8287 26.2924
654 1 -1.1104 9.25392 8.17079 23.5071
573 1 -1.1104 12.216 13.6088 26.3079
8797 2 2.2208 13.5607 6.65037 25.0874
489 1 -1.1104 6.52383 19.266 20.8479
412 1 -1.1104 6.54169 16.3096 23.3792
483 1 -1.1104 0.816101 13.5024 20.874
497 1 -1.1104 6.58925 16.3836 20.7336
485 1 -1.1104 0.863784 19.2106 20.7238
509 1 -1.1104 3.88873 16.329 20.7971
537 1 -1.1104 6.58072 19.173 23.5735
502 1 -1.1104 3.69917 13.5649 20.5396
495 1 -1.1104 0.98837 16.3889 20.7439
504 1 -1.1104 3.6984 19.1257 20.9767
567 1 -1.1104 3.8203 13.4852 23.3926
565 1 -1.1104 0.83923 19.0811 26.3266
539 1 -1.1104 0.921754 16.3003 26.3499
538 1 -1.1104 0.971711 13.6528 26.3096
595 1 -1.1104 3.80552 18.9487 23.7544
512 2 2.2208 5.24678 20.517 25.0125
379 2 2.2208 2.30977 14.9989 22.1272
380 2 2.2208 2.30505 20.6031 22.1239
407 1 -1.1104 3.68323 16.2214 23.4842
411 1 -1.1104 0.920515 16.5435 23.503
413 1 -1.1104 3.73742 13.5172 26.2175
447 1 -1.1104 3.77285 16.4135 26.3977
448 2 2.2208 2.30425 17.8353 25.0221
449 1 -1.1104 3.60912 19.1121 26.3521
474 2 2.2208 5.11068 17.6396 22.1859
475 1 -1.1104 0.959187 13.6633 23.6539
476 1 -1.1104 0.94617 19.284 23.5088
511 2 2.2208 5.14897 15.0355 24.9045
571 1 -1.1104 6.54342 13.7341 26.2039
633 1 -1.1104 6.60473 19.257 26.431
510 1 -1.1104 6.46907 13.588 23.5048
572 1 -1.1104 9.33786 16.4579 26.3919
325 2 2.2208 7.99135 12.2384 13.6755
598 2 2.2208 10.8434 20.692 24.9578
600 1 -1.1104 9.60501 16.5123 23.6451
524 1 -1.1104 12.1132 16.4197 20.6264
602 1 -1.1104 12.0337 16.2104 26.2613
574 1 -1.1104 12.2847 19.012 26.4439
536 1 -1.1104 9.26696 16.358 20.7965
656 2 2.2208 7.77603 9.49826 27.7761
8756 2 2.2208 13.6491 12.3636 13.7178
17450 2 2.2208 13.6242 -4.38981 24.9494
8803 2 2.2208 13.5358 9.33095 27.7887
327 2 2.2208 5.19231 20.4504 13.7747
8843 2 2.2208 13.6208 17.7285 24.9087
334 2 2.2208 2.25656 3.87858 27.6714
315 2 2.2208 5.06121 3.8832 13.6255
332 2 2.2208 5.09888 1.23915 27.6695
318 2 2.2208 10.6071 -1.60659 13.8608
8050 2 2.2208 10.7481 -4.47336 27.795
314 2 2.2208 2.34765 1.09562 13.7249
322 2 2.2208 2.26587 12.2406 13.7001
313 2 2.2208 4.97113 -1.7359 13.7404
326 2 2.2208 2.283 17.6387 13.804
329 2 2.2208 10.7719 20.6751 13.8603
331 2 2.2208 7.99576 17.8069 13.8202
317 2 2.2208 7.96067 1.16088 13.6269
372 2 2.2208 2.35571 14.9658 27.6999
660 2 2.2208 5.24744 23.338 5.30435
661 2 2.2208 5.25727 28.9171 5.26732
662 1 -1.1104 0.85684 24.7534 1.08279
663 1 -1.1104 0.999104 24.6307 3.97446
664 1 -1.1104 1.00337 21.8601 1.14821
665 1 -1.1104 1.03393 27.5487 1.21274
666 2 2.2208 5.28515 26.1775 2.45477
667 1 -1.1104 0.832639 21.8207 3.98105
668 1 -1.1104 0.977665 27.4521 4.1233
669 1 -1.1104 3.84954 24.6096 1.05956
670 2 2.2208 2.35738 23.2517 2.42335
671 2 2.2208 2.47309 28.9319 2.4932
672 1 -1.1104 3.8362 24.7019 3.79955
673 2 2.2208 2.46676 26.2319 5.36111
674 1 -1.1104 3.71342 21.84 1.04455
675 1 -1.1104 3.93048 27.4898 1.10365
676 1 -1.1104 3.70785 21.8727 3.88046
677 1 -1.1104 3.76664 27.5429 3.81451
686 1 -1.1104 6.72317 27.6428 3.9813
1512 1 -1.1104 3.89748 47.1368 6.70984
683 1 -1.1104 6.52795 22.1163 1.00633
684 1 -1.1104 6.75131 27.5641 1.09624
966 2 2.2208 -0.383375 23.2898 10.8483
1213 2 2.2208 5.23768 29.0498 -0.298686
681 1 -1.1104 6.60328 24.7856 1.15641
685 1 -1.1104 6.59107 22.1413 3.97854
682 1 -1.1104 6.69414 24.7998 3.90205
1514 1 -1.1104 1.09398 47.0832 12.3114
956 2 2.2208 8.21905 43.0691 10.9295
1369 1 -1.1104 9.48219 47.2766 1.18098
687 2 2.2208 10.7326 23.2709 5.29651
688 2 2.2208 10.8882 28.9507 5.2418
689 1 -1.1104 12.069 24.6543 1.04948
690 1 -1.1104 12.2123 24.7087 3.83872
691 1 -1.1104 12.1868 21.8117 1.16797
692 1 -1.1104 12.32 27.4684 1.16182
693 2 2.2208 10.8261 26.1095 2.57474
694 1 -1.1104 12.1265 21.9356 4.06171
695 1 -1.1104 12.3178 27.4899 3.8807
696 1 -1.1104 9.16297 24.7226 1.0799
697 2 2.2208 8.01621 23.3066 2.45445
698 2 2.2208 8.11161 28.9401 2.45568
699 1 -1.1104 9.4973 24.6888 3.85136
700 2 2.2208 7.9893 26.2106 5.33533
701 1 -1.1104 9.31322 21.8725 1.20008
702 1 -1.1104 9.50344 27.5892 1.19551
703 1 -1.1104 9.35923 21.863 3.95431
704 1 -1.1104 9.42118 27.5693 3.96317
839 1 -1.1104 9.62366 27.5045 6.6976
9434 2 2.2208 -0.459849 40.1168 10.841
961 1 -1.1104 12.2379 44.2934 9.68151
1359 1 -1.1104 12.2449 47.1411 4.04148
963 2 2.2208 10.8024 43.0701 8.1487
1517 1 -1.1104 1.15725 47.2397 9.54177
800 1 -1.1104 12.1877 38.8266 6.74826
708 2 2.2208 5.24849 34.5985 5.206
709 1 -1.1104 0.929943 30.3918 1.05799
710 1 -1.1104 1.02042 35.9303 1.16444
712 1 -1.1104 1.03924 30.177 3.82851
713 1 -1.1104 1.00133 35.8997 4.05818
715 1 -1.1104 0.997172 33.1428 0.938423
716 2 2.2208 5.21785 31.847 2.48834
717 2 2.2208 5.22203 37.2214 2.44739
718 1 -1.1104 0.941608 33.0312 3.84643
720 1 -1.1104 3.68184 30.3636 1.29905
721 1 -1.1104 3.82459 35.8407 1.07925
722 2 2.2208 2.32217 34.4779 2.49241
723 1 -1.1104 3.81132 30.4491 4.00276
724 1 -1.1104 3.79116 35.9154 3.8751
725 2 2.2208 2.4665 31.7116 5.30709
726 2 2.2208 2.51359 37.3957 5.23974
727 1 -1.1104 3.74226 33.001 0.989588
728 1 -1.1104 3.81945 33.2003 3.8641
711 1 -1.1104 6.79271 35.867 1.00869
733 1 -1.1104 6.69399 30.4448 3.70736
1271 2 2.2208 2.363 31.7272 -0.394816
864 1 -1.1104 3.85341 30.1707 6.67406
863 1 -1.1104 6.7955 33.2226 6.75298
1531 1 -1.1104 3.97825 47.2056 9.38742
1519 1 -1.1104 6.75167 47.0961 9.50966
1272 2 2.2208 5.13422 34.4297 -0.37383
732 1 -1.1104 6.63039 30.3352 1.00672
1543 1 -1.1104 9.35941 47.2087 6.74016
719 1 -1.1104 6.68991 33.2015 3.90195
714 1 -1.1104 6.73143 35.9162 3.83206
734 1 -1.1104 6.63149 33.194 1.1904
744 1 -1.1104 9.41808 30.4655 1.06552
735 2 2.2208 10.9288 34.6925 5.301
736 1 -1.1104 12.4058 30.1896 1.09122
737 1 -1.1104 12.2928 35.8722 0.911802
738 1 -1.1104 12.2721 30.3446 3.80905
739 1 -1.1104 12.194 35.9777 3.80212
740 1 -1.1104 12.2396 33.076 1.05716
741 2 2.2208 10.9661 31.8396 2.44101
742 2 2.2208 10.8857 37.3679 2.48636
743 1 -1.1104 12.4229 33.337 3.87615
745 1 -1.1104 9.55166 36.1249 0.983296
746 2 2.2208 8.15015 34.6555 2.55478
747 1 -1.1104 9.62842 30.3377 3.9034
748 1 -1.1104 9.58683 36.084 3.88623
749 2 2.2208 8.12273 31.7302 5.21123
750 2 2.2208 8.06634 37.3596 5.28099
751 1 -1.1104 9.55423 33.1905 1.09088