ITEM: TIMESTEP
50000
ITEM: NUMBER OF ATOMS
17730
ITEM: BOX BOUNDS pp pp pp
-3.6405073462085175e-01 2.7704050734620811e+01
-4.4054420960566443e+00 3.3248544209605467e+02
-3.5907915689996445e-01 2.7699079156899458e+01
ITEM: ATOMS id type q x y z
1 2 2.2208 5.36771 1.07236 5.1673
2 1 -1.1104 0.835131 -3.04863 1.01655
3 1 -1.1104 0.897045 2.57253 1.0392
6 1 -1.1104 0.931858 -2.95414 3.86661
7 1 -1.1104 1.09934 2.64598 3.8961
10 1 -1.1104 1.04862 -0.196928 1.0116
12 2 2.2208 5.10291 -1.4886 2.43063
14 1 -1.1104 1.12924 -0.215135 3.81071
16 1 -1.1104 3.6472 -3.00665 1.11053
17 1 -1.1104 3.8239 2.69402 1.02655
18 2 2.2208 2.40473 1.17766 2.50812
19 1 -1.1104 3.72009 -2.99837 3.80371
20 1 -1.1104 3.91443 2.57558 3.74138
21 2 2.2208 2.3293 -1.59285 5.27386
23 1 -1.1104 3.71692 -0.155891 1.16294
24 1 -1.1104 3.89638 -0.266676 3.8755
13 2 2.2208 5.10863 4.04457 2.4532
22 2 2.2208 2.53048 3.93099 5.20256
170 1 -1.1104 0.995425 -0.0897707 6.70481
5 1 -1.1104 6.55655 2.64129 1.06943
655 2 2.2208 10.8145 6.70218 -0.241069
9 1 -1.1104 6.81465 2.64169 3.92105
15 1 -1.1104 6.74572 -0.17751 3.82908
8 1 -1.1104 6.51724 -2.85316 3.88111
17348 2 2.2208 13.5758 -4.3437 8.05658
8988 2 2.2208 13.6592 3.92964 -0.206098
135 2 2.2208 -0.284811 15.0989 2.58034
333 2 2.2208 2.43948 -1.50243 -0.340363
104 2 2.2208 10.757 20.7904 8.06379
8046 2 2.2208 10.7721 -4.35331 10.8242
8040 2 2.2208 7.90038 -4.31061 2.55175
11 1 -1.1104 6.5736 -0.0220744 1.01979
4 1 -1.1104 6.54424 -2.80276 1.04218
31 2 2.2208 10.8039 1.23864 5.2665
32 1 -1.1104 12.1604 -2.92304 1.07042
33 1 -1.1104 12.3034 2.53059 1.15342
34 1 -1.1104 12.1468 -2.94357 3.86634
35 1 -1.1104 12.3334 2.52819 3.7931
36 1 -1.1104 12.2861 -0.225329 1.12092
37 2 2.2208 10.7509 -1.77298 2.50391
38 2 2.2208 10.8566 3.9179 2.55425
39 1 -1.1104 12.1509 -0.219785 3.85294
40 1 -1.1104 9.39629 -2.99134 1.18035
41 1 -1.1104 9.48953 2.61202 1.0819
42 2 2.2208 8.14461 1.25338 2.48344
43 1 -1.1104 9.27107 -3.17142 4.02517
44 1 -1.1104 9.49766 2.60723 3.85279
45 2 2.2208 8.04629 -1.62595 5.26169
46 2 2.2208 7.94501 3.94697 5.36104
47 1 -1.1104 9.48671 -0.215323 1.13864
48 1 -1.1104 9.40069 -0.259777 3.93195
8038 2 2.2208 5.17126 -4.34562 5.23008
8637 2 2.2208 -0.27165 6.69982 5.22541
206 1 -1.1104 12.1443 2.61054 6.72351
208 1 -1.1104 9.4201 -3.00001 6.62866
8739 2 2.2208 13.6642 15.316 10.815
165 1 -1.1104 9.38434 13.7708 12.2963
8738 2 2.2208 -0.384221 1.13258 5.20605
54 2 2.2208 5.13935 6.86464 5.2755
55 2 2.2208 5.29906 12.287 5.31396
56 1 -1.1104 1.05425 8.18018 1.06987
58 1 -1.1104 1.10735 8.31097 3.85677
60 1 -1.1104 0.992415 5.29261 0.998562
61 1 -1.1104 1.02238 10.9951 1.02369
66 2 2.2208 5.15589 9.58178 2.45393
67 1 -1.1104 1.11395 5.39176 3.85553
68 1 -1.1104 1.09758 11.0161 3.91119
71 1 -1.1104 3.71263 7.9992 1.01583
72 2 2.2208 2.39821 6.7785 2.41907
73 2 2.2208 2.44487 12.2627 2.42532
74 1 -1.1104 3.88011 8.25327 3.91689
75 2 2.2208 2.30295 9.65702 5.26783
76 1 -1.1104 3.82634 5.31951 0.87557
77 1 -1.1104 3.70758 10.7869 1.15044
79 1 -1.1104 3.79969 5.4039 3.75355
80 1 -1.1104 3.87748 11.1268 3.89093
63 1 -1.1104 6.68277 5.24542 1.18639
8442 2 2.2208 13.6006 -1.5532 10.9878
25 2 2.2208 -0.319016 -1.60381 2.4031
81 1 -1.1104 12.1955 16.4021 12.2499
236 1 -1.1104 1.11174 5.4223 6.51336
149 1 -1.1104 12.0984 16.6035 6.66892
136 2 2.2208 -0.211775 20.6284 2.40156
64 1 -1.1104 6.36421 10.8103 1.05855
69 1 -1.1104 6.60658 5.44823 4.03817
59 1 -1.1104 6.66132 8.26914 3.81857
57 1 -1.1104 6.62677 7.93795 1.16135
70 1 -1.1104 6.6766 10.9689 4.06478
84 2 2.2208 10.893 6.80442 5.29534
85 2 2.2208 10.8763 12.3639 5.38479
86 1 -1.1104 12.1969 8.2818 1.30396
87 1 -1.1104 12.2496 8.27465 3.94533
88 1 -1.1104 12.3803 5.29149 1.24364
89 1 -1.1104 12.2378 11.0447 1.11174
91 2 2.2208 10.7382 9.61554 2.46984
92 1 -1.1104 12.0827 5.45183 3.90627
93 1 -1.1104 12.3287 10.9676 3.94865
94 1 -1.1104 9.3069 8.11497 1.24774
95 2 2.2208 7.98395 6.71991 2.55748
96 2 2.2208 8.07298 12.469 2.6258
97 1 -1.1104 9.47917 8.20584 3.96327
98 2 2.2208 8.06022 9.4959 5.43763
99 1 -1.1104 9.57605 5.34606 1.18327
100 1 -1.1104 9.38281 10.8983 1.05924
102 1 -1.1104 9.32517 5.29827 3.93894
103 1 -1.1104 9.46536 11.0608 3.91695
101 1 -1.1104 9.78763 11.0193 6.79494
656 2 2.2208 8.03065 9.50024 -0.320178
235 1 -1.1104 6.61727 8.09873 6.83876
265 1 -1.1104 12.293 8.19733 6.72262
8470 2 2.2208 13.6059 9.7067 5.34244
17356 2 2.2208 13.5903 -4.40952 2.37943
154 1 -1.1104 9.54353 13.7599 6.78176
106 2 2.2208 5.12041 17.9482 5.29833
107 1 -1.1104 1.22373 13.7648 1.232
109 1 -1.1104 1.13685 19.239 1.10606
113 1 -1.1104 1.08524 13.5512 3.95822
114 1 -1.1104 1.07827 19.3353 3.91476
116 1 -1.1104 0.951769 16.4636 0.973731
119 2 2.2208 5.19314 15.1577 2.51823
120 2 2.2208 5.27635 20.6021 2.38277
121 1 -1.1104 0.994233 16.5667 3.82118
123 1 -1.1104 3.90883 13.803 0.984958
125 1 -1.1104 3.82596 19.2952 0.929312
127 2 2.2208 2.3732 17.8728 2.37562
128 1 -1.1104 3.82215 13.769 3.81769
129 1 -1.1104 3.91259 19.1558 3.79122
130 2 2.2208 2.39661 15.046 5.34346
131 2 2.2208 2.65804 20.6985 5.16364
132 1 -1.1104 3.80968 16.5338 1.0915
134 1 -1.1104 3.89137 16.4282 3.9642
108 1 -1.1104 0.872426 13.7513 6.88812
122 1 -1.1104 6.63155 16.4082 3.73209
115 1 -1.1104 6.62704 13.6663 3.98244
110 1 -1.1104 6.63963 13.7861 1.17428
163 1 -1.1104 9.34077 16.5176 6.52381
8518 2 2.2208 13.5932 20.8054 5.27939
231 2 2.2208 -0.317625 20.6871 8.03825
8050 2 2.2208 10.8664 -4.38071 -0.289833
8742 2 2.2208 13.6187 1.16382 2.43038
138 1 -1.1104 6.69411 19.3544 0.846051
118 1 -1.1104 6.59001 16.5094 6.6796
140 1 -1.1104 6.6559 16.5853 1.07774
139 1 -1.1104 6.60976 19.1713 3.80335
141 2 2.2208 10.8818 17.9659 5.19277
142 1 -1.1104 12.2302 13.7367 1.12437
144 1 -1.1104 12.3321 19.277 1.16781
146 1 -1.1104 12.2632 13.8594 4.06269
147 1 -1.1104 12.3914 19.3326 3.80853
148 1 -1.1104 12.3074 16.5398 1.02166
150 2 2.2208 10.9709 15.1923 2.49876
151 2 2.2208 10.9201 20.6906 2.41235
152 1 -1.1104 12.428 16.6218 3.87536
153 1 -1.1104 9.32891 13.6458 1.13015
155 1 -1.1104 9.43834 19.2628 0.963412
157 2 2.2208 7.97777 17.9369 2.44376
158 1 -1.1104 9.494 13.7453 3.85286
159 1 -1.1104 9.48366 19.3993 3.79036
160 2 2.2208 8.05984 15.0235 5.27942
161 2 2.2208 7.89682 20.656 5.25545
162 1 -1.1104 9.5071 16.3454 1.0549
164 1 -1.1104 9.58441 16.5171 3.79113
8657 2 2.2208 13.5262 9.54756 10.9082
156 1 -1.1104 9.36878 19.4129 6.65584
145 1 -1.1104 12.2883 19.393 6.69863
657 2 2.2208 10.8147 12.2469 -0.210941
8468 2 2.2208 -0.384002 3.94199 8.00712
172 1 -1.1104 3.92509 -3.10104 6.50126
166 1 -1.1104 1.12846 -2.93574 6.74778
167 1 -1.1104 1.0611 2.62943 6.62103
174 1 -1.1104 3.78606 -0.337759 6.77452
111 1 -1.1104 6.57139 13.6719 6.6289
53 1 -1.1104 12.3221 19.3148 9.49485
173 1 -1.1104 3.82324 2.31052 6.47011
175 2 2.2208 5.15279 1.13859 10.9181
176 1 -1.1104 1.03396 -3.0442 12.5075
177 1 -1.1104 0.875588 2.43407 12.2929
180 1 -1.1104 1.02919 -3.08639 9.58718
181 1 -1.1104 0.946671 2.51522 9.50666
184 1 -1.1104 0.928206 -0.200495 12.378
186 2 2.2208 5.14585 -1.69215 8.15745
188 1 -1.1104 0.933885 -0.296239 9.46308
190 1 -1.1104 3.80942 -3.2424 12.2228
191 1 -1.1104 3.64999 2.54872 12.1329
192 2 2.2208 2.45109 1.24777 7.98888
193 1 -1.1104 3.82935 -3.01068 9.51445
194 1 -1.1104 3.71685 2.60502 9.43942
195 2 2.2208 2.34477 -1.67975 10.8726
196 2 2.2208 2.29646 3.83549 10.8909
197 1 -1.1104 3.75518 -0.389737 12.3156
198 1 -1.1104 3.62037 -0.120505 9.50052
187 2 2.2208 5.2283 3.93944 8.14623
171 1 -1.1104 6.61236 -0.204555 6.66096
185 1 -1.1104 6.60894 -0.368992 12.1492
189 1 -1.1104 6.37913 -0.321032 9.42747
178 1 -1.1104 6.6047 -3.14069 12.3342
27 1 -1.1104 12.1513 13.5207 12.4268
199 1 -1.1104 9.38394 19.3521 12.2068
168 1 -1.1104 6.55332 -3.0177 6.86695
169 1 -1.1104 6.58798 2.50623 6.61675
209 1 -1.1104 9.30467 2.50872 6.69078
207 1 -1.1104 12.2628 -0.120594 6.51765
205 1 -1.1104 12.2317 -3.0387 6.70964
210 1 -1.1104 9.37897 -0.185493 6.74531
183 1 -1.1104 6.63679 2.49589 9.54733
179 1 -1.1104 6.5342 2.53002 12.3518
182 1 -1.1104 6.6637 -2.99243 9.49994
211 2 2.2208 10.8363 1.12506 10.8757
212 1 -1.1104 12.2747 -3.0255 12.3059
213 1 -1.1104 12.2171 2.46479 12.3097
214 1 -1.1104 12.2401 -2.85394 9.52056
215 1 -1.1104 12.1667 2.63794 9.48578
216 1 -1.1104 12.3324 -0.241923 12.2447
217 2 2.2208 10.8303 -1.60012 8.15436
219 1 -1.1104 12.1207 -0.21831 9.43416
220 1 -1.1104 9.42863 -3.03071 12.3958
221 1 -1.1104 9.1498 2.62556 12.3131
222 2 2.2208 7.92749 1.10761 8.00462
223 1 -1.1104 9.48283 -3.13145 9.50041
224 1 -1.1104 9.48989 2.58751 9.49019
225 2 2.2208 8.06619 -1.7559 10.8947
227 1 -1.1104 9.41606 -0.25699 12.4228
228 1 -1.1104 9.21129 -0.401258 9.46767
226 2 2.2208 7.94925 3.99778 10.8803
218 2 2.2208 10.8289 4.03741 8.06619
229 2 2.2208 7.99683 17.8932 8.11645
234 1 -1.1104 0.924184 8.10787 6.7561
62 1 -1.1104 1.07973 10.7778 6.78481
238 1 -1.1104 3.73594 8.15411 6.66877
78 1 -1.1104 4.00138 11.1752 6.78897
239 1 -1.1104 4.00875 5.28082 6.59763
240 2 2.2208 5.08287 6.69595 10.8393
241 2 2.2208 5.28065 12.1524 10.8227
242 1 -1.1104 0.949783 8.10928 12.322
244 1 -1.1104 1.02274 8.03218 9.53956
246 1 -1.1104 1.03 5.30527 12.2787
247 1 -1.1104 1.11754 10.9241 12.389
250 2 2.2208 5.26625 9.61962 8.11687
251 1 -1.1104 0.866262 5.34423 9.4202
252 1 -1.1104 1.03122 11.0187 9.63121
255 1 -1.1104 3.87415 8.12409 12.3729
256 2 2.2208 2.39186 6.83504 8.01092
257 2 2.2208 2.36958 12.2642 8.21236
258 1 -1.1104 3.83552 8.03981 9.29545
259 2 2.2208 2.52954 9.40081 11.0026
260 1 -1.1104 3.7598 5.45423 12.2875
261 1 -1.1104 3.93453 10.7636 12.2986
262 1 -1.1104 3.64349 5.33056 9.46105
263 1 -1.1104 3.86744 10.8301 9.48983
245 1 -1.1104 6.64533 8.25208 9.56331
248 1 -1.1104 6.7149 5.35855 12.3605
253 1 -1.1104 6.58525 5.43044 9.55336
249 1 -1.1104 6.67188 10.8965 12.2772
296 1 -1.1104 6.64875 19.4381 12.3632
269 1 -1.1104 9.36501 5.31265 6.58162
90 1 -1.1104 12.4311 11.0265 6.85137
267 1 -1.1104 9.44025 8.18772 6.83295
65 1 -1.1104 6.79653 10.9003 6.7964
266 1 -1.1104 12.2255 5.43121 6.70097
30 2 2.2208 8.05265 15.1463 10.8921
237 1 -1.1104 6.65053 5.46442 6.9979
243 1 -1.1104 6.61085 8.10278 12.1915
254 1 -1.1104 6.69953 10.8715 9.46618
264 1 -1.1104 9.4236 10.9882 9.60115
268 1 -1.1104 9.37596 5.37908 9.55949
270 1 -1.1104 9.48766 10.9627 12.4747
271 1 -1.1104 9.44007 5.49367 12.2829
272 2 2.2208 8.0595 9.55526 10.8652
273 1 -1.1104 9.51498 8.15576 9.61814
274 2 2.2208 8.04876 12.3818 8.04737
275 2 2.2208 8.0494 6.74733 8.15181
276 2 2.2208 10.9221 6.74808 10.9333
277 2 2.2208 10.802 12.3943 10.9977
278 1 -1.1104 12.2871 8.14227 12.3153
279 1 -1.1104 12.2847 8.0796 9.50526
280 1 -1.1104 12.1281 5.24303 12.2386
281 1 -1.1104 12.202 10.7841 12.2692
282 2 2.2208 10.9087 9.65063 8.22168
283 1 -1.1104 12.3932 5.35046 9.4741
284 1 -1.1104 12.2503 10.9987 9.53152
285 1 -1.1104 9.43585 8.21941 12.2737
8576 2 2.2208 13.6036 3.90869 10.9047
8443 2 2.2208 13.4269 1.18885 8.13056
117 1 -1.1104 1.05692 16.6627 6.80717
126 1 -1.1104 3.8546 19.3539 6.65032
8636 2 2.2208 -0.32409 9.57138 2.41525
297 1 -1.1104 6.53191 13.5868 12.2497
336 2 2.2208 11.0489 1.17803 -0.26831
290 1 -1.1104 6.61044 13.7896 9.40822
133 1 -1.1104 3.69569 16.5532 6.85561
124 1 -1.1104 3.83568 13.7016 6.79806
302 1 -1.1104 1.06617 19.2685 6.54334
232 2 2.2208 2.3737 15.044 10.8835
286 1 -1.1104 3.67104 19.2516 12.2699
287 1 -1.1104 3.8188 13.6488 12.3654
291 1 -1.1104 0.914934 19.2457 9.47267
292 1 -1.1104 0.99211 16.5302 9.53677
293 2 2.2208 5.18812 20.7299 8.08148
294 1 -1.1104 1.05512 13.689 9.49873
295 2 2.2208 5.20075 15.1942 8.10533
298 1 -1.1104 0.956575 19.4434 12.3815
299 1 -1.1104 0.981049 13.9003 12.3099
300 2 2.2208 5.23938 17.9414 10.9433
301 1 -1.1104 3.79534 19.342 9.52867
303 2 2.2208 2.33957 18.0042 8.11643
304 1 -1.1104 3.74559 16.5088 9.53419
305 1 -1.1104 3.78818 13.6636 9.65788
307 1 -1.1104 1.00172 16.5335 12.1922
308 1 -1.1104 3.91449 16.2995 12.3885
309 2 2.2208 2.47217 20.7519 10.9466
306 1 -1.1104 6.71374 16.6427 12.3866
233 1 -1.1104 9.34605 19.3473 9.56243
51 2 2.2208 7.97936 20.7029 10.8653
112 1 -1.1104 6.54628 19.3146 6.63179
52 1 -1.1104 9.41383 16.5861 12.3604
289 1 -1.1104 6.65323 16.6021 9.59936
49 1 -1.1104 12.2721 19.3284 12.2422
143 1 -1.1104 12.5267 13.8965 6.9071
288 1 -1.1104 6.62068 19.3409 9.54011
230 1 -1.1104 9.40903 13.7652 9.62852
105 1 -1.1104 12.282 16.6466 9.48478
82 2 2.2208 10.8768 15.2128 8.02263
50 1 -1.1104 12.2095 13.9277 9.5679
26 2 2.2208 10.8765 17.8968 10.866
202 1 -1.1104 9.50165 16.6401 9.46013
8745 2 2.2208 13.6675 17.8891 13.5991
8441 2 2.2208 13.555 4.0586 5.30877
8803 2 2.2208 13.6527 9.50338 -0.180944
337 2 2.2208 7.96781 -1.4884 -0.27113
632 2 2.2208 5.30663 12.3413 -0.246689
8601 2 2.2208 13.5846 6.86771 2.51843
319 2 2.2208 10.7613 3.98549 13.6809
313 2 2.2208 5.18209 -1.69669 13.6028
375 2 2.2208 8.00726 15.0001 -0.291193
317 2 2.2208 7.87051 1.16552 13.6497
8770 2 2.2208 13.632 -1.59691 -0.253602
8749 2 2.2208 13.6379 1.26676 13.6524
329 2 2.2208 10.8665 20.6367 13.6468
8756 2 2.2208 13.5796 12.3056 13.6001
630 2 2.2208 5.23828 6.70987 -0.238948
315 2 2.2208 5.19732 3.9626 13.6306
372 2 2.2208 2.36692 15.1623 -0.230547
597 2 2.2208 8.09012 3.90562 -0.272311
338 2 2.2208 5.13095 1.13318 16.2828
339 1 -1.1104 0.968837 -2.93152 18.0872
340 1 -1.1104 1.04148 2.51808 18.0119
343 1 -1.1104 1.04664 -2.83265 15.2576
345 1 -1.1104 0.891853 2.59671 15.0764
351 1 -1.1104 0.970287 -0.241035 17.835
353 2 2.2208 5.07514 -1.53224 19.3586
354 2 2.2208 5.2819 3.96817 19.2115
355 1 -1.1104 1.01079 -0.255666 15.1067
359 1 -1.1104 3.73117 -2.96745 17.8944
360 1 -1.1104 3.85898 2.49698 17.6398
361 2 2.2208 2.46853 1.15212 19.3559
362 1 -1.1104 3.81229 -2.84192 14.9957
364 1 -1.1104 3.76691 2.56854 14.8585
366 2 2.2208 2.32166 -1.59732 16.484
367 2 2.2208 2.30023 3.80068 16.4806
368 1 -1.1104 3.76892 -0.207277 17.8236
369 1 -1.1104 3.80256 -0.194117 15.0586
357 1 -1.1104 6.46584 -0.223199 14.826
8945 2 2.2208 13.5895 20.6969 16.386
322 2 2.2208 2.4374 12.364 13.6613
356 1 -1.1104 0.952576 -0.202358 20.6599
8872 2 2.2208 13.5419 9.46278 16.3945
8796 2 2.2208 -0.284688 20.8369 24.8773
17421 2 2.2208 13.6093 -4.36623 19.3775
8103 2 2.2208 7.89875 -4.31776 19.4307
352 1 -1.1104 6.437 -0.173636 17.9088
318 2 2.2208 10.863 -1.58678 13.7565
8754 2 2.2208 13.6109 6.70558 13.6813
342 1 -1.1104 6.68408 2.4932 17.9247
341 1 -1.1104 6.40397 -2.95728 17.8934
349 1 -1.1104 6.65699 2.55402 15.0234
347 1 -1.1104 6.64075 -3.04578 15.0926
381 2 2.2208 10.8934 1.17884 16.4819
382 1 -1.1104 12.0549 -3.06866 18.0461
383 1 -1.1104 12.1722 2.55227 18.0135
384 1 -1.1104 12.1951 -2.97778 15.2402
386 1 -1.1104 12.3478 2.55918 15.0301
388 1 -1.1104 12.2621 -0.232781 17.9123
389 2 2.2208 10.8728 -1.47513 19.3249
390 2 2.2208 10.8961 3.99223 19.3434
391 1 -1.1104 12.2267 -0.121463 14.9982
393 1 -1.1104 9.37409 -2.86426 17.9692
394 1 -1.1104 9.47506 2.65948 17.8819
395 2 2.2208 7.96894 1.19036 19.2778
396 1 -1.1104 9.45316 -3.08263 15.1588
398 1 -1.1104 9.53755 2.4218 15.072
400 2 2.2208 7.93032 -1.591 16.4768
401 2 2.2208 7.989 4.01234 16.5722
402 1 -1.1104 9.42805 -0.178077 17.9031
403 1 -1.1104 9.36902 -0.340723 15.1282
537 1 -1.1104 6.74695 19.3708 23.5467
573 1 -1.1104 12.3024 13.6916 26.1783
414 2 2.2208 5.06331 6.68975 16.5384
415 2 2.2208 5.26412 12.3549 16.6415
416 1 -1.1104 1.07563 8.12744 17.9678
418 1 -1.1104 0.968441 8.06171 15.0973
422 1 -1.1104 1.06385 5.35693 17.9631
423 1 -1.1104 0.948583 10.8135 17.8904
426 2 2.2208 5.19466 9.50537 19.3211
427 1 -1.1104 0.972517 5.40586 15.179
429 1 -1.1104 1.02723 10.9108 14.9945
435 1 -1.1104 3.87418 8.08333 17.8868
436 2 2.2208 2.43704 6.78881 19.3358
437 2 2.2208 2.27954 12.2823 19.3014
438 1 -1.1104 3.83574 8.07397 15.1379
440 2 2.2208 2.45697 9.55833 16.3911
441 1 -1.1104 3.86252 5.19753 17.7138
442 1 -1.1104 3.71623 10.8385 17.882
443 1 -1.1104 3.64579 5.31504 15.0631
445 1 -1.1104 3.79576 10.9612 15.0595
446 1 -1.1104 3.78401 10.9794 20.7013
8138 2 2.2208 2.43278 -4.33651 19.3817
425 1 -1.1104 6.50179 10.9807 18.0374
417 1 -1.1104 6.63195 8.15943 18.1619
424 1 -1.1104 6.52665 5.4388 17.8413
433 1 -1.1104 6.47358 10.8018 15.2543
328 2 2.2208 5.15724 15.0708 13.725
8870 2 2.2208 -0.315852 -1.57328 19.3096
600 1 -1.1104 9.61883 16.537 23.4013
314 2 2.2208 2.27242 1.20901 13.6938
431 1 -1.1104 6.63242 5.52608 15.0715
420 1 -1.1104 6.57964 8.21135 15.2146
450 2 2.2208 10.8166 6.74692 16.5248
451 2 2.2208 10.7175 12.2596 16.4037
452 1 -1.1104 12.2311 8.05996 17.936
453 1 -1.1104 12.1768 8.22476 14.999
455 1 -1.1104 12.4476 5.38048 18.0276
456 1 -1.1104 12.0629 10.8955 17.799
457 2 2.2208 10.7942 9.4179 19.3521
458 1 -1.1104 12.3899 5.36604 15.1457
460 1 -1.1104 12.2824 10.9725 15.0267
462 1 -1.1104 9.45383 8.05766 17.9379
463 2 2.2208 7.98109 6.66704 19.3135
464 2 2.2208 7.97202 12.4008 19.3042
465 1 -1.1104 9.39374 8.26053 15.1405
467 2 2.2208 7.91491 9.56777 16.6376
468 1 -1.1104 9.35159 5.26009 17.8082
469 1 -1.1104 9.27816 10.8662 17.9978
470 1 -1.1104 9.40003 5.30399 15.1119
472 1 -1.1104 9.3383 10.9873 15.1528
576 2 2.2208 10.9127 15.1134 24.93
540 1 -1.1104 12.2897 13.8153 23.4512
9017 2 2.2208 -0.296875 3.88356 24.7497
8800 2 2.2208 -0.253234 -1.67466 24.9847
8058 2 2.2208 2.42274 -4.29867 13.765
477 2 2.2208 5.29617 17.9105 16.5716
478 1 -1.1104 0.805994 13.7146 17.8993
479 1 -1.1104 0.985449 19.2605 17.8645
482 1 -1.1104 1.02414 13.7424 15.1056
484 1 -1.1104 0.867206 19.4197 15.1847
490 1 -1.1104 0.988074 16.5835 17.9951
492 2 2.2208 5.119 14.9821 19.3261
493 2 2.2208 5.22607 20.5815 19.3973
494 1 -1.1104 0.967492 16.5217 15.0158
498 1 -1.1104 3.69283 13.6756 18.0418
499 1 -1.1104 3.79365 19.224 17.9955
500 2 2.2208 2.40515 17.803 19.245
501 1 -1.1104 3.87948 13.6123 15.21
503 1 -1.1104 3.70275 19.3006 15.2844
505 2 2.2208 2.37759 15.0021 16.4558
506 2 2.2208 2.41784 20.7055 16.6006
507 1 -1.1104 3.78889 16.2823 17.8332
508 1 -1.1104 3.75512 16.5101 15.1723
485 1 -1.1104 0.90489 19.2876 20.676
495 1 -1.1104 1.03961 16.4509 20.7688
491 1 -1.1104 6.52511 16.3766 17.9479
487 1 -1.1104 6.51223 13.6307 20.6124
486 1 -1.1104 6.58094 13.7292 15.1969
8140 2 2.2208 5.01688 -4.40433 16.5387
509 1 -1.1104 3.9291 16.5315 20.5059
8944 2 2.2208 13.6369 18.0112 19.1892
496 1 -1.1104 6.66132 16.6664 15.2894
497 1 -1.1104 6.69789 16.4621 20.8072
531 1 -1.1104 9.39044 19.0966 20.7144
519 1 -1.1104 12.2408 19.4256 20.5515
480 1 -1.1104 6.57424 13.704 17.7645
481 1 -1.1104 6.62763 19.2482 17.9262
488 1 -1.1104 6.74712 19.4376 15.0873
513 2 2.2208 10.8408 17.878 16.5018
514 1 -1.1104 12.093 13.7807 17.8492
515 1 -1.1104 12.0986 19.4354 17.8597
516 1 -1.1104 12.351 13.6706 15.2307
518 1 -1.1104 12.217 19.2837 15.0785
520 1 -1.1104 12.3334 16.5416 17.9135
521 2 2.2208 10.7771 15.1104 19.3185
522 2 2.2208 10.7256 20.7096 19.4161
523 1 -1.1104 12.1326 16.5605 15.0489
525 1 -1.1104 9.31239 13.7067 17.9868
526 1 -1.1104 9.32313 19.3192 18.0013
527 2 2.2208 8.01714 17.8259 19.2322
528 1 -1.1104 9.41049 13.6786 15.0145
530 1 -1.1104 9.50773 19.2731 15.2104
532 2 2.2208 8.07503 15.0978 16.4116
533 2 2.2208 8.05729 20.7265 16.6178
534 1 -1.1104 9.37731 16.5025 17.82
535 1 -1.1104 9.40439 16.4841 14.982
517 1 -1.1104 12.1109 13.7524 20.5533
524 1 -1.1104 12.0628 16.5681 20.7299
572 1 -1.1104 9.42496 16.3647 26.1594
370 1 -1.1104 3.72795 -0.0802917 20.8398
344 1 -1.1104 1.08476 -3.18014 20.8552
604 1 -1.1104 9.53972 19.2355 23.4361
365 1 -1.1104 3.78162 2.57129 20.4731
346 1 -1.1104 1.06424 2.58182 20.7411
363 1 -1.1104 3.76333 -2.87593 20.6877
358 1 -1.1104 6.42535 -0.174838 20.7192
541 2 2.2208 5.42111 1.16804 22.0564
542 1 -1.1104 0.965033 -3.20119 23.5782
543 1 -1.1104 0.93418 2.43721 23.5799
546 1 -1.1104 0.896836 -3.0066 26.4052
547 1 -1.1104 1.11732 2.57212 26.2727
550 1 -1.1104 1.15466 -0.292733 23.499
552 2 2.2208 5.15027 -1.61423 25.0466
553 2 2.2208 5.2941 3.93992 24.9208
554 1 -1.1104 0.946383 -0.247525 26.3058
556 1 -1.1104 3.84746 -2.85409 23.5249
557 1 -1.1104 3.87264 2.56541 23.3421
558 2 2.2208 2.48611 1.0782 24.7974
559 1 -1.1104 3.81952 -3.11093 26.4033
560 1 -1.1104 3.80114 2.66755 26.188
561 2 2.2208 2.45235 -1.58974 22.1233
562 2 2.2208 2.55806 3.92724 22.0355
563 1 -1.1104 4.00359 -0.150858 23.6813
564 1 -1.1104 3.86228 -0.135825 26.469
545 1 -1.1104 6.78292 2.54225 23.4939
544 1 -1.1104 6.6007 -2.98398 23.6746
549 1 -1.1104 6.63263 2.69357 26.4212
548 1 -1.1104 6.6545 -3.01711 26.4122
603 1 -1.1104 9.36268 13.8781 23.6689
348 1 -1.1104 6.57074 -2.77435 20.7391
350 1 -1.1104 6.63901 2.56016 20.5976
387 1 -1.1104 12.2228 2.53832 20.8096
404 1 -1.1104 9.2824 -0.121885 20.6427
8100 2 2.2208 10.8238 -4.34429 22.1842
8799 2 2.2208 13.4865 -1.67573 16.5257
392 1 -1.1104 12.2419 -0.294166 20.7077
397 1 -1.1104 9.39124 -2.99764 20.8833
399 1 -1.1104 9.51914 2.67437 20.8243
385 1 -1.1104 12.2489 -3.022 20.8754
555 1 -1.1104 6.6291 -0.198224 26.2999
551 1 -1.1104 6.78452 -0.252103 23.4707
577 2 2.2208 10.8499 1.30254 22.1799
578 1 -1.1104 12.3522 -3.00802 23.6498
579 1 -1.1104 12.1483 2.68783 23.6219
580 1 -1.1104 12.2994 -3.03583 26.5541
581 1 -1.1104 12.3823 2.65516 26.3853
582 1 -1.1104 12.3317 -0.150166 23.5423
583 2 2.2208 10.898 -1.53669 25.0442
584 2 2.2208 10.8381 3.95559 24.9054
585 1 -1.1104 12.4053 -0.285477 26.1952
586 1 -1.1104 9.51718 -2.94305 23.6204
587 1 -1.1104 9.51385 2.65752 23.49
588 2 2.2208 8.16141 1.19144 24.9854
589 1 -1.1104 9.54899 -2.74444 26.41
590 1 -1.1104 9.55933 2.51062 26.3623
591 2 2.2208 8.10661 -1.65321 22.3331
593 1 -1.1104 9.61406 -0.183748 23.4306
594 1 -1.1104 9.43794 -0.0941727 26.4616
592 2 2.2208 8.13668 3.96839 22.1788
658 1 -1.1104 9.37548 19.3409 26.249
8844 2 2.2208 13.5818 15.1703 21.9509
8102 2 2.2208 5.26934 -4.24823 22.2184
439 1 -1.1104 3.8187 8.05916 20.5614
419 1 -1.1104 1.11084 8.24641 20.8215
434 1 -1.1104 6.52294 10.9958 20.8365
432 1 -1.1104 6.59064 5.29013 20.7715
430 1 -1.1104 0.836948 10.9853 20.7239
428 1 -1.1104 1.24438 5.29999 20.5614
444 1 -1.1104 3.94799 5.41161 20.5465
606 2 2.2208 5.22131 6.82452 22.1639
607 2 2.2208 5.23926 12.3915 22.051
608 1 -1.1104 1.01886 8.16181 23.4853
610 1 -1.1104 1.02924 8.12737 26.229
612 1 -1.1104 1.00488 5.28059 23.3458
613 1 -1.1104 0.957568 11.0867 23.6833
616 2 2.2208 5.27803 9.55465 25.0053
617 1 -1.1104 0.912469 5.33228 26.3443
618 1 -1.1104 1.06978 10.8535 26.339
621 1 -1.1104 3.90392 8.14654 23.4544
622 2 2.2208 2.28728 6.82414 24.8353
623 2 2.2208 2.43351 12.3326 24.9264
624 1 -1.1104 4.02248 8.14483 26.4021
625 2 2.2208 2.49871 9.56223 22.0527
626 1 -1.1104 3.79845 5.35272 23.4843
627 1 -1.1104 3.72558 10.9781 23.6013
628 1 -1.1104 3.92393 5.41661 26.3308
629 1 -1.1104 3.82045 10.9665 26.4224
620 1 -1.1104 6.71614 10.9478 26.3931
619 1 -1.1104 6.65488 5.42974 26.3911
609 1 -1.1104 6.5494 8.04335 23.6676
614 1 -1.1104 6.66099 5.2087 23.6004
615 1 -1.1104 6.59143 10.9031 23.5083
611 1 -1.1104 6.82237 8.13347 26.3742
605 2 2.2208 8.11345 17.7727 24.8979
8989 2 2.2208 13.6366 1.23236 24.9303
323 2 2.2208 7.9887 6.91795 13.7614
471 1 -1.1104 9.3166 5.41381 20.6948
454 1 -1.1104 12.0881 8.0504 20.9363
473 1 -1.1104 9.41105 10.8832 20.6864
421 1 -1.1104 6.44006 8.19614 20.9357
324 2 2.2208 10.882 9.59074 13.6811
461 1 -1.1104 12.1264 10.781 20.6525
466 1 -1.1104 9.25223 8.22922 20.7909
459 1 -1.1104 12.0185 5.34666 20.8082
637 1 -1.1104 9.47598 10.8956 26.4018
638 1 -1.1104 9.48562 5.4558 26.2985
639 1 -1.1104 9.24428 10.985 23.689
640 1 -1.1104 9.26959 5.33058 23.6272
641 2 2.2208 7.94833 9.55574 22.137
642 1 -1.1104 9.47582 8.19082 26.4493
643 2 2.2208 8.00684 12.352 24.9925
644 2 2.2208 8.04615 6.68837 25.0523
645 2 2.2208 10.7004 6.79065 22.2952
646 2 2.2208 10.7535 12.3558 22.0928
647 1 -1.1104 12.0729 8.21878 23.6472
648 1 -1.1104 12.3273 8.08779 26.5158
649 1 -1.1104 12.2301 5.35081 23.6182
650 1 -1.1104 12.1798 11.0309 23.4816
651 2 2.2208 10.8113 9.54232 24.9889
652 1 -1.1104 12.1814 5.33909 26.4244
653 1 -1.1104 12.274 10.88 26.2213
654 1 -1.1104 9.34346 8.12886 23.6118
633 1 -1.1104 6.59479 19.2292 26.2243
9064 2 2.2208 13.5079 9.65311 22.218
325 2 2.2208 7.94315 12.2369 13.7008
504 1 -1.1104 3.81804 19.1257 20.812
566 1 -1.1104 6.45539 16.4022 26.314
412 1 -1.1104 6.57986 16.6805 23.5745
510 1 -1.1104 6.53344 13.8112 23.4097
483 1 -1.1104 0.932144 13.8552 20.7009
502 1 -1.1104 3.82603 13.7135 20.8579
571 1 -1.1104 6.46465 13.7461 26.2942
567 1 -1.1104 3.81536 13.6339 23.5041
565 1 -1.1104 1.05655 19.5385 26.4411
539 1 -1.1104 1.05484 16.6313 26.3462
538 1 -1.1104 1.02101 13.6946 26.3851
595 1 -1.1104 3.99062 19.2588 23.5508
512 2 2.2208 5.33201 20.652 24.9855
379 2 2.2208 2.4845 15.0167 22.0965
380 2 2.2208 2.60407 20.5764 22.1064
407 1 -1.1104 3.69375 16.5171 23.4394
411 1 -1.1104 1.02679 16.4599 23.4613
413 1 -1.1104 3.80637 13.7372 26.3019
447 1 -1.1104 3.85579 16.3558 26.3017
448 2 2.2208 2.39585 17.8752 24.8497
449 1 -1.1104 3.88874 19.2574 26.2833
474 2 2.2208 5.31808 17.8942 22.0587
475 1 -1.1104 1.00662 13.7792 23.4871
476 1 -1.1104 1.11753 19.2365 23.3946
511 2 2.2208 5.14642 15.1573 24.8912
636 1 -1.1104 9.3532 13.6538 26.3968
602 1 -1.1104 12.0703 16.5675 26.1907
598 2 2.2208 10.8201 20.7516 24.8657
575 1 -1.1104 12.4543 16.6561 23.3604
574 1 -1.1104 12.2704 19.3527 26.3955
529 1 -1.1104 9.38866 13.7285 20.8282
569 1 -1.1104 12.2906 19.5228 23.5682
659 2 2.2208 8.05772 15.2516 22.2048
410 2 2.2208 10.8548 17.9143 21.9544
596 2 2.2208 7.99784 20.6092 22.1789
536 1 -1.1104 9.3787 16.3651 20.5472
489 1 -1.1104 6.67775 19.2034 20.6957
8798 2 2.2208 13.5819 3.90006 16.5636
599 2 2.2208 -0.332596 17.894 22.0009
8942 2 2.2208 13.5074 15.1186 16.4935
8797 2 2.2208 13.6864 6.72534 24.9328
8804 2 2.2208 13.6265 1.16251 19.3716
568 2 2.2208 -0.377349 9.5367 19.3421
8801 2 2.2208 13.6027 20.7514 22.0835
9005 2 2.2208 13.6045 3.90126 22.1008
8841 2 2.2208 -0.28892 3.94721 19.3492
311 2 2.2208 -0.341036 15.1656 13.7504
8874 2 2.2208 13.4836 12.2259 19.2534
8839 2 2.2208 -0.293145 6.72535 27.6555
408 2 2.2208 -0.256233 6.75847 16.4901
312 2 2.2208 -0.300882 -1.61886 13.7471
334 2 2.2208 2.3231 4.03481 27.6866
8746 2 2.2208 -0.308836 1.20188 27.6555
327 2 2.2208 5.25123 20.6706 13.7837
8055 2 2.2208 8.08022 -4.45264 13.7507
631 2 2.2208 2.42684 9.62064 27.6339
378 2 2.2208 2.56575 20.7193 27.6709
331 2 2.2208 8.07938 18.0281 13.6692
601 2 2.2208 -0.371781 17.9903 27.6659
8842 2 2.2208 13.6099 15.1054 27.6426
326 2 2.2208 2.38381 17.908 13.805
405 2 2.2208 10.8865 17.8877 27.6331
330 2 2.2208 10.712 15.1372 13.6771
320 2 2.2208 2.46377 6.75598 13.7763
332 2 2.2208 5.23614 1.36591 27.6791
376 2 2.2208 5.17186 17.864 27.6357
409 2 2.2208 8.07391 20.6928 27.564
321 2 2.2208 5.34665 9.60985 13.7725
660 2 2.2208 5.3175 23.5435 5.1851
661 2 2.2208 5.21834 29.0813 5.243
662 1 -1.1104 1.00256 24.9504 0.898155
663 1 -1.1104 0.994408 24.9038 3.82681
664 1 -1.1104 1.05515 22.1466 1.1702
665 1 -1.1104 1.02209 27.8012 0.956578
666 2 2.2208 5.21752 26.2891 2.41788
667 1 -1.1104 1.03017 22.1166 3.99984
668 1 -1.1104 0.878314 27.6815 3.77998
669 1 -1.1104 3.78988 24.8543 1.053
670 2 2.2208 2.41595 23.5151 2.51926
671 2 2.2208 2.39803 28.9824 2.51271
672 1 -1.1104 3.84923 24.8835 3.79976
673 2 2.2208 2.35416 26.2148 5.30244
674 1 -1.1104 3.9247 22.0106 1.04453
675 1 -1.1104 3.81882 27.6914 0.941994
676 1 -1.1104 3.91379 22.1056 3.78333
677 1 -1.1104 3.66165 27.646 3.79608
808 1 -1.1104 3.91482 22.0151 6.72863
803 1 -1.1104 1.045 22.0592 6.62382
686 1 -1.1104 6.59796 27.6737 3.8021
683 1 -1.1104 6.65053 22.1022 0.947581
684 1 -1.1104 6.63708 27.538 1.00074
801 1 -1.1104 1.11394 24.8022 6.5838
807 1 -1.1104 3.94336 24.6269 6.72728
809 1 -1.1104 3.72147 27.4327 6.48839
1528 1 -1.1104 3.7361 47.1811 12.1721
1334 1 -1.1104 3.70786 47.0518 0.887472
1559 1 -1.1104 9.53693 47.2379 12.1705
685 1 -1.1104 6.68484 21.9178 3.74114
682 1 -1.1104 6.7292 24.8652 3.8359
681 1 -1.1104 6.59296 24.8405 1.04832
687 2 2.2208 10.8281 23.4023 5.22418
688 2 2.2208 10.8542 29.0221 5.36385
689 1 -1.1104 12.4242 24.9609 1.05168
690 1 -1.1104 12.4307 24.7868 4.05274
691 1 -1.1104 12.3213 22.1666 0.981361
692 1 -1.1104 12.457 27.6972 0.926469
693 2 2.2208 10.8464 26.1922 2.33663
694 1 -1.1104 12.1853 22.1374 3.70094
695 1 -1.1104 12.3065 27.5229 3.88967
696 1 -1.1104 9.46519 24.8383 1.11895
697 2 2.2208 7.98754 23.3784 2.28315
698 2 2.2208 7.97616 29.0388 2.33786
699 1 -1.1104 9.36161 24.7094 3.86133
700 2 2.2208 8.10099 26.2761 5.2066
701 1 -1.1104 9.55238 22.0441 0.989548
702 1 -1.1104 9.58568 27.6054 1.08469
703 1 -1.1104 9.4743 22.0917 3.84209
704 1 -1.1104 9.23136 27.5647 3.74862
1531 1 -1.1104 3.65427 47.1002 9.42034
1549 1 -1.1104 12.3351 47.1678 11.9078
805 1 -1.1104 6.66881 22.164 6.63674
802 1 -1.1104 6.63351 24.9319 6.56674
837 1 -1.1104 9.47861 24.8336 6.64802
839 1 -1.1104 9.35451 27.6078 6.70742
838 1 -1.1104 9.39977 22.0668 6.81481
1514 1 -1.1104 1.01017 47.1612 12.1322
708 2 2.2208 5.29196 34.6121 5.32739
709 1 -1.1104 0.956502 30.5626 0.938864
710 1 -1.1104 1.15397 36.1535 0.972236
712 1 -1.1104 0.939577 30.3537 3.90933
713 1 -1.1104 1.0262 36.1058 3.87397
715 1 -1.1104 1.25584 33.37 0.9977
716 2 2.2208 5.18618 31.8017 2.3914
717 2 2.2208 5.21247 37.7218 2.43945
718 1 -1.1104 1.13681 33.2547 3.98816
720 1 -1.1104 3.68824 30.4471 0.996281
721 1 -1.1104 3.85502 36.1542 1.00955
722 2 2.2208 2.68979 34.7399 2.59446
723 1 -1.1104 3.82861 30.482 3.78829
724 1 -1.1104 3.88017 36.0381 3.86813
725 2 2.2208 2.45592 31.8074 5.20883
726 2 2.2208 2.50961 37.4517 5.21946
727 1 -1.1104 3.87273 33.3554 1.2094
728 1 -1.1104 3.89742 33.1954 3.90829
866 1 -1.1104 3.80287 33.2459 6.67504
864 1 -1.1104 3.87173 30.3552 6.6588
734 1 -1.1104 6.60264 33.1808 1.02552
719 1 -1.1104 6.48064 33.3555 3.86777
714 1 -1.1104 6.64053 36.0703 3.82956
732 1 -1.1104 6.54323 30.3396 1.15873
1562 1 -1.1104 9.35086 47.2097 9.43507
861 1 -1.1104 6.63872 36.0918 6.64616
858 1 -1.1104 0.968623 30.3312 6.82903
1338 1 -1.1104 3.86383 47.2771 3.79203
1321 1 -1.1104 6.67008 47.0431 3.64458
1319 1 -1.1104 0.919512 47.2375 3.74379
733 1 -1.1104 6.53789 30.6305 3.94913
711 1 -1.1104 6.6194 35.9235 1.08419
744 1 -1.1104 9.46997 30.384 0.878132