ITEM: TIMESTEP
10000
ITEM: NUMBER OF ATOMS
17730
ITEM: BOX BOUNDS pp pp pp
-3.6528881587060363e-01 2.7705288815871011e+01
-4.5035859673303147e+00 3.3258358596733353e+02
-3.5226310108310149e-01 2.7692263101082961e+01
ITEM: ATOMS id type q x y z
1 2 2.2208 5.23807 1.06988 5.24288
2 1 -1.1104 1.0636 -2.9049 1.09131
3 1 -1.1104 0.872346 2.46953 0.992642
6 1 -1.1104 1.06216 -2.90884 3.88331
7 1 -1.1104 0.939073 2.52151 3.83398
10 1 -1.1104 1.07403 -0.238989 0.97768
12 2 2.2208 5.13953 -1.55727 2.52862
13 2 2.2208 5.31769 3.86793 2.48279
14 1 -1.1104 1.11393 -0.25002 3.7684
16 1 -1.1104 3.83062 -3.17095 1.00012
17 1 -1.1104 3.83888 2.54121 1.08477
18 2 2.2208 2.44415 1.19289 2.40245
19 1 -1.1104 3.89627 -2.92476 4.01628
20 1 -1.1104 3.60503 2.5208 3.87078
21 2 2.2208 2.36679 -1.5386 5.17897
22 2 2.2208 2.36497 3.86978 5.32913
23 1 -1.1104 3.85419 -0.256904 1.02324
24 1 -1.1104 3.8507 -0.272172 3.72659
9 1 -1.1104 6.72476 2.31407 3.83001
8657 2 2.2208 13.6334 9.45475 10.9022
4 1 -1.1104 6.58646 -2.95759 1.01071
8043 2 2.2208 5.1026 -4.46879 10.9103
290 1 -1.1104 6.66841 13.5511 9.39666
8039 2 2.2208 -0.38142 -4.4073 5.27974
30 2 2.2208 7.88867 14.9417 10.7844
233 1 -1.1104 9.25179 19.194 9.54001
5 1 -1.1104 6.76173 2.51628 1.00525
326 2 2.2208 2.38634 17.7875 13.6995
8042 2 2.2208 2.34957 -4.3427 8.01857
15 1 -1.1104 6.55324 -0.261496 3.89396
8 1 -1.1104 6.72774 -3.01161 3.7967
11 1 -1.1104 6.53854 -0.154199 1.07839
31 2 2.2208 10.8418 1.14373 5.28945
32 1 -1.1104 12.2332 -3.0156 1.16087
33 1 -1.1104 12.4463 2.55494 1.0912
34 1 -1.1104 12.2323 -2.96038 3.82048
35 1 -1.1104 12.3054 2.51026 3.90569
36 1 -1.1104 12.0348 -0.152656 1.01629
37 2 2.2208 10.7478 -1.61714 2.4582
38 2 2.2208 10.9533 3.86277 2.47564
39 1 -1.1104 12.2228 -0.147565 3.88938
40 1 -1.1104 9.35193 -3.11616 1.0218
41 1 -1.1104 9.62288 2.67082 0.949713
42 2 2.2208 8.11198 1.15493 2.4319
43 1 -1.1104 9.55315 -3.04931 3.85409
44 1 -1.1104 9.45301 2.56989 3.93241
45 2 2.2208 8.09591 -1.71268 5.2884
46 2 2.2208 7.96092 3.8095 5.16371
47 1 -1.1104 9.26905 -0.189195 0.946642
48 1 -1.1104 9.38586 -0.24982 3.77963
8040 2 2.2208 7.98386 -4.4296 2.55281
8038 2 2.2208 5.2879 -4.38239 5.24817
8576 2 2.2208 13.6965 3.86485 10.8522
8037 2 2.2208 2.3837 -4.35015 2.35991
8703 2 2.2208 13.4945 20.6819 10.8386
54 2 2.2208 5.19592 6.55377 5.34223
55 2 2.2208 5.26584 12.0692 5.2465
56 1 -1.1104 1.01411 8.12427 1.0732
58 1 -1.1104 0.932279 8.08601 3.90006
60 1 -1.1104 0.980824 5.32926 1.20243
61 1 -1.1104 0.979518 10.9435 1.11862
66 2 2.2208 5.15273 9.39638 2.48637
67 1 -1.1104 1.0903 5.32815 3.94501
68 1 -1.1104 0.956638 10.8469 3.94954
71 1 -1.1104 3.84012 8.07279 1.09122
72 2 2.2208 2.36567 6.58303 2.54355
73 2 2.2208 2.43152 12.088 2.48001
74 1 -1.1104 3.74555 7.95738 3.94261
75 2 2.2208 2.4498 9.37725 5.26949
76 1 -1.1104 3.80068 5.25087 1.02677
77 1 -1.1104 3.88822 10.8429 0.997666
79 1 -1.1104 3.91486 5.2535 3.87184
80 1 -1.1104 3.84065 10.5824 3.88294
8469 2 2.2208 13.5859 17.9876 2.55268
8652 2 2.2208 13.5499 6.70455 8.06617
136 2 2.2208 -0.338117 20.518 2.48017
234 1 -1.1104 0.898079 7.97574 6.68257
236 1 -1.1104 0.881884 5.25452 6.69031
78 1 -1.1104 3.70554 10.7892 6.75018
17356 2 2.2208 13.6366 -4.47636 2.41991
231 2 2.2208 -0.383675 20.6392 8.1403
69 1 -1.1104 6.7446 5.10334 3.78184
70 1 -1.1104 6.60793 10.6612 3.88312
57 1 -1.1104 6.68204 8.01404 1.30389
59 1 -1.1104 6.60708 7.90851 3.93382
63 1 -1.1104 6.69398 5.22946 1.08232
64 1 -1.1104 6.62943 10.838 1.00007
84 2 2.2208 10.7743 6.69686 5.23767
85 2 2.2208 10.7769 12.0856 5.27436
86 1 -1.1104 12.2795 8.07359 1.11453
87 1 -1.1104 12.2848 8.07687 3.91511
88 1 -1.1104 12.3212 5.35455 1.14092
89 1 -1.1104 12.394 10.9061 1.04273
91 2 2.2208 10.8591 9.43592 2.49412
92 1 -1.1104 12.2096 5.33875 3.89985
93 1 -1.1104 12.1397 10.6908 3.76151
94 1 -1.1104 9.51411 8.12428 1.12976
95 2 2.2208 8.08681 6.67135 2.51912
96 2 2.2208 8.04182 12.1585 2.32825
97 1 -1.1104 9.43669 7.98007 4.02147
98 2 2.2208 7.96566 9.43239 5.36227
99 1 -1.1104 9.51461 5.30519 1.0922
100 1 -1.1104 9.63894 10.8949 0.994473
102 1 -1.1104 9.51771 5.25889 3.76266
103 1 -1.1104 9.26869 10.6368 3.98628
265 1 -1.1104 12.1978 7.98545 6.72759
8046 2 2.2208 10.8246 -4.50366 10.9309
65 1 -1.1104 6.62887 10.8519 6.70089
269 1 -1.1104 9.30146 5.35809 6.76133
8743 2 2.2208 13.6841 -1.68766 5.24535
8739 2 2.2208 13.6146 15.0879 10.9846
106 2 2.2208 5.05332 17.7148 5.20533
107 1 -1.1104 1.08556 13.6398 0.901758
109 1 -1.1104 1.01589 19.0658 1.1725
113 1 -1.1104 1.00456 13.6431 3.92393
114 1 -1.1104 1.07847 19.2383 3.8761
116 1 -1.1104 0.972562 16.3482 1.12529
119 2 2.2208 5.22869 14.9273 2.31715
120 2 2.2208 5.31797 20.5766 2.52102
121 1 -1.1104 1.03215 16.328 4.01683
123 1 -1.1104 3.79933 13.6934 1.02075
125 1 -1.1104 3.73908 19.0954 0.972031
127 2 2.2208 2.41052 17.7954 2.4731
128 1 -1.1104 3.81146 13.5218 3.85418
129 1 -1.1104 3.81546 19.2334 3.83302
130 2 2.2208 2.43742 14.8631 5.21498
131 2 2.2208 2.42079 20.6134 5.24972
132 1 -1.1104 3.87673 16.5186 0.973861
134 1 -1.1104 3.76907 16.3843 3.7533
110 1 -1.1104 6.62189 13.4771 0.989655
139 1 -1.1104 6.69743 19.3164 3.83416
8041 2 2.2208 10.8597 -4.404 5.34093
8602 2 2.2208 13.5722 12.3347 2.46358
140 1 -1.1104 6.66495 16.2571 1.12148
122 1 -1.1104 6.62815 16.3431 3.89238
115 1 -1.1104 6.6693 13.4682 3.75886
8539 2 2.2208 13.5928 15.1336 5.11553
117 1 -1.1104 0.97536 16.3673 6.62447
108 1 -1.1104 1.01675 13.5094 6.75303
118 1 -1.1104 6.57907 16.3931 6.6422
8842 2 2.2208 13.6248 15.1323 -0.43194
50 1 -1.1104 12.1738 13.6297 9.3262
138 1 -1.1104 6.72984 19.0795 1.05459
141 2 2.2208 10.7646 17.8105 5.31415
142 1 -1.1104 12.2674 13.6747 0.993516
144 1 -1.1104 12.2611 19.3379 1.08521
146 1 -1.1104 12.1868 13.5748 3.77534
147 1 -1.1104 12.3029 19.1489 3.9978
148 1 -1.1104 12.0892 16.4754 1.08807
150 2 2.2208 10.7503 14.9808 2.49154
151 2 2.2208 10.8823 20.6358 2.55349
152 1 -1.1104 12.0637 16.4764 3.91651
153 1 -1.1104 9.44073 13.5888 0.958373
155 1 -1.1104 9.43173 19.0973 1.32799
157 2 2.2208 7.98284 17.736 2.49371
158 1 -1.1104 9.4239 13.5185 3.64972
159 1 -1.1104 9.50334 19.2903 3.95766
160 2 2.2208 8.00095 14.9331 5.20001
161 2 2.2208 8.07132 20.6124 5.21913
162 1 -1.1104 9.38408 16.3563 1.08591
164 1 -1.1104 9.32756 16.2711 3.85594
156 1 -1.1104 9.35675 18.9824 6.76254
597 2 2.2208 8.04298 3.98466 -0.401313
145 1 -1.1104 12.2875 19.2089 6.75348
8442 2 2.2208 13.8207 -1.57951 10.9424
170 1 -1.1104 1.04989 -0.320775 6.5673
172 1 -1.1104 3.94525 -3.10026 6.79058
167 1 -1.1104 1.0887 2.41731 6.69956
174 1 -1.1104 3.85339 -0.256751 6.62103
173 1 -1.1104 3.74519 2.44121 6.54815
169 1 -1.1104 6.53904 2.41182 6.63447
166 1 -1.1104 0.998158 -2.97041 6.74392
175 2 2.2208 5.17294 1.07127 10.7574
176 1 -1.1104 0.896737 -3.12663 12.3032
177 1 -1.1104 1.12682 2.4127 12.2536
180 1 -1.1104 0.911778 -3.11809 9.54153
181 1 -1.1104 1.04446 2.55972 9.40657
184 1 -1.1104 1.06555 -0.403378 12.3283
186 2 2.2208 5.18819 -1.69613 8.04734
187 2 2.2208 5.19353 3.84899 8.04231
188 1 -1.1104 1.01062 -0.196327 9.58411
190 1 -1.1104 3.67908 -2.98051 12.4485
191 1 -1.1104 3.93317 2.51147 12.2722
192 2 2.2208 2.30718 1.08892 7.99383
193 1 -1.1104 3.79201 -3.09776 9.56223
194 1 -1.1104 3.76732 2.52909 9.39889
195 2 2.2208 2.37474 -1.59838 10.8616
196 2 2.2208 2.47536 3.74304 10.874
197 1 -1.1104 3.80016 -0.254768 12.2576
198 1 -1.1104 3.62753 -0.142175 9.38282
171 1 -1.1104 6.6011 -0.320917 6.73284
183 1 -1.1104 6.62801 2.38953 9.43501
189 1 -1.1104 6.6788 -0.335171 9.42266
8518 2 2.2208 13.6653 20.6392 5.384
53 1 -1.1104 12.152 19.333 9.44832
165 1 -1.1104 9.22971 13.7677 12.4019
209 1 -1.1104 9.41973 2.57707 6.636
207 1 -1.1104 12.2051 -0.181311 6.7205
51 2 2.2208 7.95954 20.6153 10.9133
8742 2 2.2208 13.6324 1.10499 2.46365
168 1 -1.1104 6.7391 -3.02956 6.78285
178 1 -1.1104 6.55257 -3.20333 12.3307
179 1 -1.1104 6.50984 2.44457 12.1939
185 1 -1.1104 6.58444 -0.334785 12.2575
208 1 -1.1104 9.49228 -3.08078 6.59257
205 1 -1.1104 12.2861 -2.95906 6.70787
210 1 -1.1104 9.46315 -0.285103 6.63369
206 1 -1.1104 12.1782 2.63445 6.67463
182 1 -1.1104 6.64635 -3.04788 9.5213
211 2 2.2208 10.8445 1.00651 10.8646
212 1 -1.1104 12.1785 -2.94454 12.3444
213 1 -1.1104 12.1378 2.51309 12.3076
214 1 -1.1104 12.2556 -3.06263 9.62639
215 1 -1.1104 12.2035 2.42129 9.5469
216 1 -1.1104 12.2271 -0.307386 12.219
217 2 2.2208 10.8578 -1.68244 8.03285
218 2 2.2208 10.7118 3.87444 8.0794
219 1 -1.1104 12.2744 -0.241308 9.50292
220 1 -1.1104 9.31666 -3.15925 12.3435
221 1 -1.1104 9.32385 2.44513 12.1324
222 2 2.2208 7.98063 1.0917 8.02327
223 1 -1.1104 9.52067 -2.99407 9.43113
224 1 -1.1104 9.49644 2.42924 9.45831
225 2 2.2208 7.99207 -1.53361 10.8202
226 2 2.2208 7.99472 3.86742 10.9727
227 1 -1.1104 9.4873 -0.289689 12.2175
228 1 -1.1104 9.44732 -0.232657 9.37373
8601 2 2.2208 13.6689 6.65151 2.51401
8653 2 2.2208 13.534 12.2716 8.02841
239 1 -1.1104 3.95832 5.23719 6.69633
235 1 -1.1104 6.34758 8.05351 6.79455
49 1 -1.1104 12.1636 19.3915 12.2536
238 1 -1.1104 3.61964 7.98315 6.75392
62 1 -1.1104 0.903567 10.7758 6.73861
240 2 2.2208 5.10596 6.59551 10.9246
241 2 2.2208 5.15614 12.2352 10.7699
242 1 -1.1104 0.991479 8.09354 12.256
244 1 -1.1104 1.05351 8.13842 9.48087
246 1 -1.1104 0.828687 5.19955 12.2333
247 1 -1.1104 0.942324 10.8229 12.1659
250 2 2.2208 5.15039 9.32354 8.12523
251 1 -1.1104 1.02442 5.3598 9.47822
252 1 -1.1104 0.972012 10.9133 9.51103
255 1 -1.1104 3.75547 8.145 12.305
256 2 2.2208 2.43525 6.62845 8.10551
257 2 2.2208 2.33193 12.2474 8.08503
258 1 -1.1104 3.74955 8.02274 9.62605
259 2 2.2208 2.43845 9.53196 10.8956
260 1 -1.1104 3.59095 5.17408 12.343
261 1 -1.1104 3.73402 10.8198 12.3677
262 1 -1.1104 3.78314 5.26305 9.47365
263 1 -1.1104 3.86244 10.7812 9.50568
248 1 -1.1104 6.50212 5.25639 12.3225
253 1 -1.1104 6.54941 5.25724 9.40204
245 1 -1.1104 6.57914 7.87246 9.68099
254 1 -1.1104 6.49186 10.7144 9.38661
249 1 -1.1104 6.59364 10.8559 12.4099
237 1 -1.1104 6.61194 5.26574 6.66063
266 1 -1.1104 12.1233 5.28506 6.738
163 1 -1.1104 9.35154 16.2557 6.56243
52 1 -1.1104 9.29189 16.4721 12.2843
90 1 -1.1104 12.2057 10.8 6.64708
101 1 -1.1104 9.42539 10.8264 6.67388
243 1 -1.1104 6.61278 8.0618 12.5149
267 1 -1.1104 9.22692 8.04004 6.74349
264 1 -1.1104 9.26571 10.9388 9.53498
268 1 -1.1104 9.36095 5.08829 9.60583
270 1 -1.1104 9.39839 10.8886 12.3115
271 1 -1.1104 9.43299 5.2034 12.3909
272 2 2.2208 8.01694 9.4307 11.0434
273 1 -1.1104 9.39413 8.03388 9.60812
274 2 2.2208 8.03825 12.1985 8.06313
275 2 2.2208 7.94719 6.58048 8.14493
276 2 2.2208 10.7429 6.50062 10.9366
277 2 2.2208 10.7908 12.1912 10.8556
278 1 -1.1104 12.0811 8.13932 12.4469
279 1 -1.1104 12.1495 8.08707 9.63312
280 1 -1.1104 12.1979 5.27584 12.243
281 1 -1.1104 12.3169 10.9416 12.3035
282 2 2.2208 10.7847 9.40028 8.15309
283 1 -1.1104 12.1573 5.14155 9.55222
284 1 -1.1104 12.0881 10.8506 9.4583
285 1 -1.1104 9.40681 8.07689 12.459
154 1 -1.1104 9.26043 13.5038 6.5925
289 1 -1.1104 6.55568 16.3608 9.45797
124 1 -1.1104 3.73363 13.5767 6.61961
133 1 -1.1104 3.68862 16.2896 6.59403
126 1 -1.1104 3.73256 19.1311 6.56213
302 1 -1.1104 0.921632 19.1772 6.75024
232 2 2.2208 2.29656 15.078 10.8273
286 1 -1.1104 3.72948 19.2013 12.2498
287 1 -1.1104 3.64998 13.5405 12.1761
291 1 -1.1104 0.937201 19.1814 9.58189
292 1 -1.1104 0.953097 16.4256 9.46761
293 2 2.2208 5.17864 20.5007 7.90986
294 1 -1.1104 1.02278 13.6792 9.45855
295 2 2.2208 5.07781 14.9553 8.02844
298 1 -1.1104 1.06444 19.3374 12.266
299 1 -1.1104 0.912197 13.7245 12.2243
300 2 2.2208 5.11532 17.7354 10.8965
301 1 -1.1104 3.77029 19.1862 9.41315
303 2 2.2208 2.34573 17.6889 7.97351
304 1 -1.1104 3.7827 16.3084 9.35837
305 1 -1.1104 3.79811 13.546 9.43964
307 1 -1.1104 0.9586 16.4781 12.4147
308 1 -1.1104 3.6806 16.4955 12.2709
309 2 2.2208 2.44706 20.7384 10.8519
297 1 -1.1104 6.47553 13.629 12.1339
104 2 2.2208 10.7696 20.4987 8.13552
112 1 -1.1104 6.51975 19.2108 6.579
82 2 2.2208 10.7629 15.0787 7.95588
409 2 2.2208 7.95381 20.5587 -0.354522
199 1 -1.1104 9.21118 19.2666 12.4368
8740 2 2.2208 13.5766 17.7958 8.12862
26 2 2.2208 10.6608 17.7562 10.9262
324 2 2.2208 10.8053 9.56574 13.8434
143 1 -1.1104 12.111 13.7318 6.49077
27 1 -1.1104 11.9196 13.5799 12.2197
149 1 -1.1104 12.1786 16.443 6.68562
230 1 -1.1104 9.42981 13.5881 9.46192
105 1 -1.1104 12.2033 16.5059 9.32552
306 1 -1.1104 6.50423 16.4367 12.3651
202 1 -1.1104 9.4604 16.3782 9.41958
296 1 -1.1104 6.51109 19.2154 12.2407
288 1 -1.1104 6.55547 19.0774 9.43931
81 1 -1.1104 12.102 16.4482 12.382
229 2 2.2208 7.93126 17.6653 8.06643
111 1 -1.1104 6.44389 13.6505 6.56475
313 2 2.2208 5.34385 -1.72006 13.7464
8802 2 2.2208 13.6183 20.667 -0.176491
331 2 2.2208 7.90669 17.8192 13.7269
8756 2 2.2208 13.5338 12.3275 13.7098
8988 2 2.2208 13.6354 3.84162 -0.275484
405 2 2.2208 10.7118 17.8651 -0.260584
328 2 2.2208 5.05409 14.9026 13.6445
317 2 2.2208 7.91682 1.12219 13.6297
315 2 2.2208 5.15552 3.88086 13.7336
314 2 2.2208 2.51718 1.05592 13.6939
630 2 2.2208 5.12366 6.68132 -0.347583
631 2 2.2208 2.37351 9.48677 -0.351911
656 2 2.2208 8.08396 9.5552 -0.348705
372 2 2.2208 2.41075 15.1562 -0.29871
8053 2 2.2208 5.17382 -4.39962 -0.419554
338 2 2.2208 5.21787 1.12911 16.4419
339 1 -1.1104 0.869114 -2.96746 17.8189
340 1 -1.1104 1.14374 2.50999 17.8777
343 1 -1.1104 0.914259 -3.1122 15.1721
345 1 -1.1104 1.03844 2.51172 15.137
351 1 -1.1104 1.06041 -0.248497 18.0181
353 2 2.2208 5.24018 -1.60433 19.2875
354 2 2.2208 5.24674 3.97642 19.2779
355 1 -1.1104 1.04629 -0.254786 15.133
359 1 -1.1104 3.80496 -3.04066 17.997
360 1 -1.1104 3.83928 2.60841 17.9574
361 2 2.2208 2.51248 1.06763 19.3389
362 1 -1.1104 3.88614 -3.06069 15.1058
364 1 -1.1104 3.8817 2.50841 15.2344
366 2 2.2208 2.44789 -1.78628 16.4637
367 2 2.2208 2.40056 3.90745 16.5103
368 1 -1.1104 3.83577 -0.207022 17.8904
369 1 -1.1104 3.91024 -0.414357 15.1622
365 1 -1.1104 3.92365 2.51393 20.695
347 1 -1.1104 6.62671 -3.0155 15.1776
342 1 -1.1104 6.60957 2.5186 17.8318
8745 2 2.2208 13.602 17.945 13.6939
8100 2 2.2208 10.7193 -4.31416 21.9412
8058 2 2.2208 2.32915 -4.45543 13.7427
330 2 2.2208 10.7463 15.046 13.6373
350 1 -1.1104 6.75805 2.62847 20.6386
370 1 -1.1104 3.9539 -0.302136 20.6627
8055 2 2.2208 7.99797 -4.55002 13.671
8801 2 2.2208 13.619 20.7054 22.1646
8099 2 2.2208 7.91323 -4.45403 24.9608
341 1 -1.1104 6.58053 -3.09019 17.9157
8137 2 2.2208 10.8103 -4.47665 16.5826
8103 2 2.2208 7.90516 -4.57944 19.2916
349 1 -1.1104 6.73538 2.55255 15.0751
352 1 -1.1104 6.78189 -0.325302 17.8531
357 1 -1.1104 6.75775 -0.238901 15.0704
381 2 2.2208 10.7701 1.22307 16.4235
382 1 -1.1104 12.2411 -3.08507 17.8934
383 1 -1.1104 12.0869 2.63829 17.9562
384 1 -1.1104 12.2238 -3.12148 15.1246
386 1 -1.1104 12.2408 2.66629 15.1315
388 1 -1.1104 12.3846 -0.165902 17.874
389 2 2.2208 10.8686 -1.61875 19.2171
390 2 2.2208 10.8306 3.98772 19.2796
391 1 -1.1104 12.3247 -0.3338 15.0759
393 1 -1.1104 9.50237 -2.87196 17.8146
394 1 -1.1104 9.44014 2.60997 17.9137
395 2 2.2208 8.08942 1.08374 19.2409
396 1 -1.1104 9.50755 -2.97848 15.0201
398 1 -1.1104 9.48321 2.57283 14.9408
400 2 2.2208 8.03841 -1.65385 16.4655
401 2 2.2208 8.04116 3.92142 16.472
402 1 -1.1104 9.5591 -0.207838 17.8794
403 1 -1.1104 9.47092 -0.0993422 15.0153
17450 2 2.2208 13.5294 -4.30621 24.9278
17359 2 2.2208 13.6832 -4.46621 13.7502
385 1 -1.1104 12.3064 -3.02193 20.6935
392 1 -1.1104 12.3018 -0.32081 20.5359
8797 2 2.2208 13.6428 6.61603 24.8666
318 2 2.2208 10.8253 -1.69253 13.5866
8804 2 2.2208 13.5076 1.2433 19.2608
571 1 -1.1104 6.72022 13.5973 26.2797
414 2 2.2208 5.28279 6.73843 16.5279
415 2 2.2208 5.20411 12.34 16.5308
416 1 -1.1104 0.910458 8.20737 17.8479
418 1 -1.1104 0.892441 8.21719 15.0332
419 1 -1.1104 1.06993 8.13725 20.6511
422 1 -1.1104 1.01911 5.37853 17.923
423 1 -1.1104 0.960454 10.8207 17.9613
426 2 2.2208 5.15019 9.50804 19.5775
427 1 -1.1104 0.998408 5.25719 15.0736
429 1 -1.1104 0.820013 10.9786 15.0025
435 1 -1.1104 3.79347 8.06604 17.9299
436 2 2.2208 2.44535 6.69155 19.2748
437 2 2.2208 2.39718 12.297 19.394
438 1 -1.1104 3.82704 8.15522 15.031
440 2 2.2208 2.41106 9.50099 16.5262
441 1 -1.1104 3.86794 5.39149 17.7901
442 1 -1.1104 3.76017 10.8792 17.9614
443 1 -1.1104 3.81748 5.47779 15.103
445 1 -1.1104 3.67443 10.9481 15.0347
319 2 2.2208 10.862 3.88876 13.7039
431 1 -1.1104 6.57556 5.24147 15.1566
433 1 -1.1104 6.59821 10.9581 15.1787
424 1 -1.1104 6.62746 5.30277 17.9392
425 1 -1.1104 6.54616 11.1372 17.9316
420 1 -1.1104 6.64632 8.09564 15.1546
417 1 -1.1104 6.6669 8.13181 18.0415
8140 2 2.2208 5.24177 -4.42083 16.5338
8873 2 2.2208 13.654 6.69168 19.3472
320 2 2.2208 2.40275 6.8223 13.6489
8102 2 2.2208 5.16341 -4.36215 22.1126
450 2 2.2208 10.7367 6.69821 16.6435
451 2 2.2208 10.7303 12.3506 16.4854
452 1 -1.1104 12.2485 8.14764 17.9392
453 1 -1.1104 12.2321 8.2273 15.2717
455 1 -1.1104 12.3028 5.33474 17.9615
456 1 -1.1104 12.107 10.9694 17.9259
457 2 2.2208 10.838 9.51376 19.3247
458 1 -1.1104 12.14 5.49489 15.0967
460 1 -1.1104 12.2388 10.9819 15.126
462 1 -1.1104 9.54428 8.0634 17.9395
463 2 2.2208 8.08119 6.58953 19.3226
464 2 2.2208 8.03615 12.3783 19.2872
465 1 -1.1104 9.24967 8.14579 15.2377
467 2 2.2208 7.94764 9.58948 16.5924
468 1 -1.1104 9.4779 5.29312 17.8716
469 1 -1.1104 9.30986 10.8851 18.0137
470 1 -1.1104 9.33828 5.25281 15.2076
472 1 -1.1104 9.26646 10.9422 15.0312
9017 2 2.2208 -0.345839 4.09263 24.8835
9092 2 2.2208 -0.305227 6.63304 22.0405
371 2 2.2208 -0.397732 15.1558 24.9036
596 2 2.2208 7.98733 20.6911 22.0078
576 2 2.2208 10.9004 15.1123 24.86
600 1 -1.1104 9.52974 16.4493 23.5454
8945 2 2.2208 13.5825 20.7092 16.5866
477 2 2.2208 5.14724 17.9212 16.5478
478 1 -1.1104 0.855541 13.6426 17.9786
479 1 -1.1104 0.901389 19.2429 18.0119
482 1 -1.1104 0.970185 13.6855 15.0731
484 1 -1.1104 0.902831 18.9985 15.0161
490 1 -1.1104 0.962849 16.5166 17.9833
492 2 2.2208 5.17624 15.1104 19.3565
493 2 2.2208 5.16485 20.6413 19.2542
494 1 -1.1104 0.943884 16.3416 15.2294
498 1 -1.1104 3.76521 13.6657 18.054
499 1 -1.1104 3.64886 19.1334 17.8218
500 2 2.2208 2.36613 17.843 19.3008
501 1 -1.1104 3.73992 13.6297 15.0467
503 1 -1.1104 3.6503 19.3053 15.1289
505 2 2.2208 2.40973 15.0986 16.491
506 2 2.2208 2.41898 20.5314 16.4522
507 1 -1.1104 3.75238 16.4112 17.8431
508 1 -1.1104 3.78277 16.5252 15.1314
481 1 -1.1104 6.41781 19.4154 17.8123
480 1 -1.1104 6.59809 13.75 17.8296
491 1 -1.1104 6.60309 16.5982 17.8421
496 1 -1.1104 6.49485 16.4409 15.0826
573 1 -1.1104 12.2267 13.7102 26.0781
483 1 -1.1104 1.09521 13.6761 20.8741
410 2 2.2208 10.8331 17.8507 22.0515
8101 2 2.2208 2.45743 -4.36686 24.9394
8944 2 2.2208 13.7429 17.9692 19.3196
486 1 -1.1104 6.56236 13.6389 14.9328
488 1 -1.1104 6.62289 19.2186 15.0403
513 2 2.2208 10.8563 17.9229 16.512
514 1 -1.1104 12.089 13.7668 17.7646
515 1 -1.1104 12.2447 19.3487 18.0489
516 1 -1.1104 12.2574 13.8346 14.9012
518 1 -1.1104 12.1542 19.3389 15.2236
520 1 -1.1104 12.2318 16.5616 17.9607
521 2 2.2208 10.8848 15.1925 19.2609
522 2 2.2208 10.7792 20.6901 19.3797
523 1 -1.1104 12.1769 16.6678 15.0104
525 1 -1.1104 9.4388 13.7012 17.9151
526 1 -1.1104 9.39606 19.2713 17.9372
527 2 2.2208 8.04936 17.9238 19.2417
528 1 -1.1104 9.46758 13.579 15.1534
530 1 -1.1104 9.39266 19.2033 15.2246
532 2 2.2208 7.87858 15.0573 16.3736
533 2 2.2208 8.01109 20.6531 16.4718
534 1 -1.1104 9.49538 16.4222 17.8137
535 1 -1.1104 9.27099 16.3779 14.9667
524 1 -1.1104 12.3411 16.5923 20.6231
8798 2 2.2208 13.588 4.00198 16.4554
487 1 -1.1104 6.62059 13.6683 20.7249
531 1 -1.1104 9.39739 19.3185 20.7456
363 1 -1.1104 3.75698 -3.00815 20.7274
8942 2 2.2208 13.6084 15.1014 16.4083
346 1 -1.1104 1.09399 2.52882 20.7287
344 1 -1.1104 1.00148 -2.92604 20.7091
356 1 -1.1104 1.08044 -0.187173 20.7438
541 2 2.2208 5.30495 1.16505 22.0407
542 1 -1.1104 0.97294 -2.98787 23.5585
543 1 -1.1104 0.996027 2.66342 23.4431
546 1 -1.1104 0.986384 -3.09377 26.373
547 1 -1.1104 1.08808 2.53367 26.1953
550 1 -1.1104 1.05171 -0.206408 23.5949
552 2 2.2208 5.35441 -1.62171 24.9521
553 2 2.2208 5.28885 3.92569 24.8541
554 1 -1.1104 1.04398 -0.255757 26.4007
556 1 -1.1104 3.92647 -3.0606 23.6311
557 1 -1.1104 3.90554 2.47693 23.5308
558 2 2.2208 2.49668 1.2237 24.9255
559 1 -1.1104 3.80104 -3.01503 26.3897
560 1 -1.1104 3.84169 2.49616 26.2752
561 2 2.2208 2.39581 -1.61887 22.1738
562 2 2.2208 2.52183 3.89618 21.9793
563 1 -1.1104 3.93811 -0.266199 23.3813
564 1 -1.1104 3.95883 -0.132251 26.3512
555 1 -1.1104 6.641 -0.203061 26.2817
544 1 -1.1104 6.76745 -2.97278 23.5877
412 1 -1.1104 6.60131 16.5199 23.4382
497 1 -1.1104 6.56472 16.4501 20.7643
358 1 -1.1104 6.81631 -0.0222607 20.8101
397 1 -1.1104 9.30537 -3.10761 20.4639
8843 2 2.2208 13.6811 17.8376 24.9509
549 1 -1.1104 6.67034 2.5545 26.2627
348 1 -1.1104 6.58027 -3.03335 20.7294
404 1 -1.1104 9.4207 -0.342183 20.7251
399 1 -1.1104 9.61609 2.43517 20.6926
548 1 -1.1104 6.57076 -2.91656 26.3877
387 1 -1.1104 12.2242 2.46091 20.7255
545 1 -1.1104 6.65543 2.57305 23.421
551 1 -1.1104 6.58775 -0.205436 23.4585
577 2 2.2208 10.8952 1.11444 22.0824
578 1 -1.1104 12.069 -2.91997 23.4037
579 1 -1.1104 12.1483 2.65999 23.5226
580 1 -1.1104 12.0004 -2.94655 26.4533
581 1 -1.1104 12.2164 2.63657 26.3714
582 1 -1.1104 12.3418 -0.125443 23.4548
583 2 2.2208 10.7551 -1.58354 24.945
584 2 2.2208 10.8345 3.96756 24.9273
585 1 -1.1104 12.193 -0.0770499 26.3611
586 1 -1.1104 9.52025 -3.01122 23.4134
587 1 -1.1104 9.5187 2.62641 23.4839
588 2 2.2208 8.07392 1.19413 24.8099
589 1 -1.1104 9.31334 -3.0151 26.4243
590 1 -1.1104 9.36591 2.67779 26.2133
591 2 2.2208 8.03369 -1.61721 22.1447
592 2 2.2208 8.1459 3.93758 22.0633
593 1 -1.1104 9.50159 -0.201246 23.5373
594 1 -1.1104 9.41868 -0.220746 26.2002
575 1 -1.1104 12.2563 16.409 23.4816
428 1 -1.1104 1.03244 5.27538 20.7237
421 1 -1.1104 6.65169 8.00413 20.7722
444 1 -1.1104 3.85757 5.21349 20.6867
439 1 -1.1104 3.85588 8.08069 20.8146
430 1 -1.1104 0.989458 10.8746 20.7769
446 1 -1.1104 3.73317 10.9793 20.7658
606 2 2.2208 5.25134 6.65075 22.1509
607 2 2.2208 5.17127 12.3759 22.0777
608 1 -1.1104 1.07421 8.12264 23.491
610 1 -1.1104 0.961976 8.1105 26.2261
612 1 -1.1104 1.05706 5.54389 23.576
613 1 -1.1104 0.908807 10.8961 23.4925
616 2 2.2208 5.25212 9.51817 24.8237
617 1 -1.1104 0.98618 5.33568 26.4445
618 1 -1.1104 1.00902 10.9308 26.4299
621 1 -1.1104 3.83478 8.15396 23.5186
622 2 2.2208 2.44398 6.71841 24.9668
623 2 2.2208 2.30654 12.2407 24.8532
624 1 -1.1104 3.80738 8.01201 26.2659
625 2 2.2208 2.40939 9.4759 22.0866
626 1 -1.1104 3.82372 5.34318 23.3766
627 1 -1.1104 3.60685 10.7586 23.4344
628 1 -1.1104 3.79075 5.23766 26.3497
629 1 -1.1104 3.77575 10.8429 26.2872
611 1 -1.1104 6.68661 8.1228 26.4307
609 1 -1.1104 6.62258 8.04446 23.5154
614 1 -1.1104 6.69685 5.24532 23.5677
329 2 2.2208 10.7561 20.5854 13.7627
8872 2 2.2208 13.538 9.59895 16.6599
658 1 -1.1104 9.36154 19.1756 26.3988
620 1 -1.1104 6.60392 10.8975 26.2383
471 1 -1.1104 9.4101 5.42806 20.6362
473 1 -1.1104 9.33683 10.8355 20.7052
466 1 -1.1104 9.48832 8.18728 20.8461
434 1 -1.1104 6.55554 10.9748 20.7291
461 1 -1.1104 12.1433 10.8496 20.5812
432 1 -1.1104 6.75398 5.27244 20.7439
619 1 -1.1104 6.53041 5.23461 26.1871
454 1 -1.1104 12.251 8.08979 20.6771
459 1 -1.1104 12.2377 5.29773 20.6956
615 1 -1.1104 6.58875 10.9661 23.4248
637 1 -1.1104 9.48598 10.797 26.2616
638 1 -1.1104 9.37293 5.34933 26.3814
639 1 -1.1104 9.37919 10.8712 23.486
640 1 -1.1104 9.40972 5.3388 23.6109
641 2 2.2208 8.02882 9.47477 22.1666
642 1 -1.1104 9.34003 8.15275 26.3431
643 2 2.2208 8.01274 12.2914 24.8061
644 2 2.2208 8.1206 6.70293 25.0948
645 2 2.2208 10.8515 6.72865 22.0919
646 2 2.2208 10.8371 12.3134 21.9878
647 1 -1.1104 12.331 8.18653 23.5818
648 1 -1.1104 12.3328 8.10345 26.4262
649 1 -1.1104 12.2084 5.42447 23.4765
650 1 -1.1104 12.1466 11.043 23.4382
651 2 2.2208 10.9553 9.55609 24.808
652 1 -1.1104 12.1957 5.34883 26.2635
653 1 -1.1104 12.278 10.7857 26.4295
654 1 -1.1104 9.43078 8.0857 23.5924
8989 2 2.2208 13.6918 1.27566 24.9236
566 1 -1.1104 6.54021 16.4349 26.3208
504 1 -1.1104 3.8228 19.209 20.6496
502 1 -1.1104 3.86699 13.7197 20.8491
519 1 -1.1104 12.2645 19.343 20.8215
8799 2 2.2208 13.724 -1.64665 16.5149
9005 2 2.2208 13.6513 3.96659 22.1072
495 1 -1.1104 0.889656 16.4209 20.7889
509 1 -1.1104 3.68954 16.4619 20.7644
485 1 -1.1104 0.998197 19.1533 20.8192
379 2 2.2208 2.29284 15.1351 22.1261
380 2 2.2208 2.45966 20.595 22.0133
407 1 -1.1104 3.82076 16.4924 23.5139
411 1 -1.1104 0.928745 16.5374 23.5089
413 1 -1.1104 3.75862 13.5371 26.3158
447 1 -1.1104 3.83256 16.5192 26.1751
448 2 2.2208 2.40175 17.8047 24.9001
449 1 -1.1104 3.75834 19.2694 26.2422
474 2 2.2208 5.07523 17.7934 22.0672
475 1 -1.1104 0.838946 13.7898 23.5463
476 1 -1.1104 1.04865 19.2823 23.5592
511 2 2.2208 5.21314 15.0217 24.9096
512 2 2.2208 5.27399 20.7073 24.8692
538 1 -1.1104 0.92638 13.6579 26.3121
539 1 -1.1104 0.943423 16.4528 26.3809
565 1 -1.1104 1.01465 19.1778 26.3853
567 1 -1.1104 3.91833 13.5682 23.5886
595 1 -1.1104 3.85134 19.1634 23.5091
489 1 -1.1104 6.60733 19.1392 20.4714
633 1 -1.1104 6.54234 19.2457 26.3588
510 1 -1.1104 6.7654 13.7351 23.4393
537 1 -1.1104 6.71724 19.272 23.4985
659 2 2.2208 8.07002 15.0896 22.1897
603 1 -1.1104 9.46744 13.7883 23.3713
574 1 -1.1104 12.1061 19.2174 26.3347
605 2 2.2208 8.06329 17.7983 24.8152
572 1 -1.1104 9.37778 16.4442 26.2505
602 1 -1.1104 12.2874 16.4476 26.2441
569 1 -1.1104 12.3493 19.3119 23.508
598 2 2.2208 10.847 20.5368 24.8767
536 1 -1.1104 9.38343 16.4618 20.7508
517 1 -1.1104 12.2046 13.5841 20.5932
529 1 -1.1104 9.56792 13.6632 20.6312
604 1 -1.1104 9.55609 19.1555 23.5196
540 1 -1.1104 12.2756 13.7086 23.3325
636 1 -1.1104 9.44022 13.6511 26.1113
8844 2 2.2208 13.6679 15.161 21.9716
321 2 2.2208 5.22561 9.57478 13.6618
8870 2 2.2208 -0.427468 -1.66844 19.3035
8800 2 2.2208 -0.349627 -1.60269 25.0123
8050 2 2.2208 10.8002 -4.4551 27.8101
337 2 2.2208 8.05348 -1.56279 27.7887
8841 2 2.2208 -0.341737 3.93359 19.3
374 2 2.2208 -0.425326 1.10695 16.5217
312 2 2.2208 -0.504885 -1.65667 13.7753
9020 2 2.2208 -0.245851 1.20365 22.1183
332 2 2.2208 5.3641 1.23312 27.599
327 2 2.2208 5.09241 20.6446 13.6056
333 2 2.2208 2.56273 -1.55219 27.6858
322 2 2.2208 2.31236 12.2836 13.6933
8770 2 2.2208 13.5678 -1.56027 27.7007
336 2 2.2208 10.7757 1.1886 27.6134
8803 2 2.2208 13.6344 9.44451 27.7208
655 2 2.2208 10.9369 6.73478 27.7922
378 2 2.2208 2.52553 20.5448 27.7578
376 2 2.2208 5.21983 17.8141 27.6571
375 2 2.2208 8.02979 14.9808 27.6267
632 2 2.2208 5.14751 12.2562 27.6141
334 2 2.2208 2.30097 3.89432 27.734
657 2 2.2208 10.8263 12.2489 27.5536
323 2 2.2208 8.02754 6.62391 13.6975
325 2 2.2208 7.91994 12.296 13.747
660 2 2.2208 5.36635 23.5379 5.29592
661 2 2.2208 5.20762 29.1649 5.1806
662 1 -1.1104 1.01255 24.6877 0.98606
663 1 -1.1104 1.02003 24.9556 3.77219
664 1 -1.1104 1.1523 21.9136 1.05589
665 1 -1.1104 0.881129 27.5277 0.90144
666 2 2.2208 5.20488 26.2629 2.48484
667 1 -1.1104 1.05851 22.0347 3.74859
668 1 -1.1104 0.790449 27.6233 3.83462
669 1 -1.1104 3.95395 24.883 1.12119
670 2 2.2208 2.54956 23.3588 2.47742
671 2 2.2208 2.4216 28.9794 2.3277
672 1 -1.1104 3.82484 24.7401 3.79909
673 2 2.2208 2.27914 26.345 5.17184
674 1 -1.1104 3.8089 21.9769 1.26616
675 1 -1.1104 3.71726 27.5089 1.09265
676 1 -1.1104 3.94086 22.1103 4.09287
677 1 -1.1104 3.64584 27.7332 3.90983
682 1 -1.1104 6.62404 24.9249 3.88673
1338 1 -1.1104 3.90784 47.2787 3.73789
1531 1 -1.1104 3.88383 47.1071 9.27332
804 1 -1.1104 0.965824 27.5998 6.61197
805 1 -1.1104 6.57856 22.1162 6.64363
731 2 2.2208 -0.22036 34.7095 5.20662
1514 1 -1.1104 1.01833 47.4165 12.185
683 1 -1.1104 6.62643 21.8896 1.18383
681 1 -1.1104 6.71338 24.7956 1.15553
686 1 -1.1104 6.57775 27.592 3.71924
685 1 -1.1104 6.84328 22.1065 3.86478
684 1 -1.1104 6.57374 27.7187 0.995327
687 2 2.2208 10.9775 23.4475 5.31287
688 2 2.2208 10.8484 29.0642 5.24417
689 1 -1.1104 12.0911 24.9703 1.15952
690 1 -1.1104 12.3045 24.8696 3.88005
691 1 -1.1104 12.2863 22.146 1.18961
692 1 -1.1104 12.2364 27.7989 1.11013
693 2 2.2208 10.7769 26.3826 2.50755
694 1 -1.1104 12.3888 21.9432 4.05802
695 1 -1.1104 12.2435 27.698 3.89936
696 1 -1.1104 9.39222 24.8965 1.14738
697 2 2.2208 8.13623 23.4383 2.60237
698 2 2.2208 8.05954 29.1257 2.58446
699 1 -1.1104 9.37175 24.9779 4.05493
700 2 2.2208 8.10923 26.2888 5.30241
701 1 -1.1104 9.46423 22.0162 0.948879
702 1 -1.1104 9.39414 27.6865 1.14367
703 1 -1.1104 9.64382 22.1232 3.94704
704 1 -1.1104 9.4353 27.7878 3.92421
839 1 -1.1104 9.65003 27.594 6.61991
837 1 -1.1104 9.37292 24.8638 6.7653
1319 1 -1.1104 1.12246 47.3448 3.74324
9269 2 2.2208 13.7337 23.6063 8.00861
806 1 -1.1104 6.62721 27.7664 6.51726
834 1 -1.1104 12.2319 24.7967 6.55631
835 1 -1.1104 12.3256 22.1621 6.7108
836 1 -1.1104 12.3122 27.7889 6.60634
1559 1 -1.1104 9.36682 47.1259 12.3279
1321 1 -1.1104 6.88542 47.3012 3.75236
1314 1 -1.1104 1.08233 47.2429 0.929654
9426 2 2.2208 -0.278166 31.705 2.31119
1512 1 -1.1104 3.78314 47.2518 6.66807
708 2 2.2208 5.31722 34.6462 5.17673
709 1 -1.1104 1.06525 30.323 0.904864
710 1 -1.1104 1.21254 36.0865 1.13845
712 1 -1.1104 1.17605 30.4576 3.82351
713 1 -1.1104 1.1679 36.0383 3.90424
715 1 -1.1104 1.17522 33.2115 1.09161
716 2 2.2208 5.26562 31.7609 2.42111
717 2 2.2208 5.26283 37.4254 2.51493
718 1 -1.1104 1.10148 33.2769 3.85353
720 1 -1.1104 3.91163 30.4255 0.95439
721 1 -1.1104 3.80353 36.0885 1.10024
722 2 2.2208 2.53436 34.647 2.3957
723 1 -1.1104 3.9151 30.4086 3.70421
724 1 -1.1104 3.8877 36.0377 3.94306
725 2 2.2208 2.50719 31.8642 5.18347
726 2 2.2208 2.52127 37.4598 5.23769
727 1 -1.1104 3.93942 33.2154 1.18761
728 1 -1.1104 3.92134 33.2101 3.76298
714 1 -1.1104 6.68887 36.0157 3.75578
866 1 -1.1104 3.86401 33.2673 6.55334
859 1 -1.1104 1.16594 36.2108 6.59199
765 1 -1.1104 1.18219 39.0026 3.83025
733 1 -1.1104 6.61419 30.4981 3.8466
732 1 -1.1104 6.68053 30.4038 1.06274
767 1 -1.1104 6.90286 38.8366 3.64151
932 1 -1.1104 1.11426 39.0024 6.73104
862 1 -1.1104 1.07297 33.2827 6.56704
864 1 -1.1104 3.82381 30.5185 6.5426