ITEM: TIMESTEP
70000
ITEM: NUMBER OF ATOMS
17730
ITEM: BOX BOUNDS pp pp pp
-3.6261981673130478e-01 2.7702619816731293e+01
-4.3474487344233763e+00 3.3242744873441910e+02
-3.5803578297346972e-01 2.7698035782972969e+01
ITEM: ATOMS id type q x y z
1 2 2.2208 5.29478 1.40877 5.22166
2 1 -1.1104 1.26705 -2.87901 1.11035
3 1 -1.1104 1.10576 2.66272 0.985617
6 1 -1.1104 1.19707 -2.97611 3.82327
7 1 -1.1104 1.00966 2.77749 3.91022
10 1 -1.1104 1.14639 -0.097425 0.874681
12 2 2.2208 5.3685 -1.43067 2.44554
14 1 -1.1104 1.12935 -0.0949555 3.89671
16 1 -1.1104 4.07475 -2.7869 1.0781
17 1 -1.1104 3.90406 2.69221 0.857416
18 2 2.2208 2.45689 1.27021 2.44748
19 1 -1.1104 3.97844 -2.9091 3.94183
20 1 -1.1104 3.81714 2.77937 3.77465
21 2 2.2208 2.53994 -1.53783 5.30926
23 1 -1.1104 3.83217 -0.0962421 1.03841
24 1 -1.1104 3.87106 -0.0565781 3.78388
13 2 2.2208 5.19506 4.0661 2.34619
22 2 2.2208 2.51366 4.132 5.21964
8441 2 2.2208 13.8895 4.12375 5.33559
319 2 2.2208 11.0005 4.10908 13.654
173 1 -1.1104 4.01483 2.67996 6.49693
169 1 -1.1104 6.69081 2.58693 6.71658
372 2 2.2208 2.51248 15.2465 -0.235211
8038 2 2.2208 5.43605 -4.38887 5.20263
8046 2 2.2208 10.835 -4.31874 10.8997
167 1 -1.1104 1.28759 2.75488 6.85297
83 2 2.2208 -0.395346 12.607 5.29265
229 2 2.2208 8.1139 18.2024 8.15384
8055 2 2.2208 8.08146 -4.50572 13.7175
8040 2 2.2208 8.18448 -4.24292 2.35178
8 1 -1.1104 6.69504 -2.78101 3.63692
9 1 -1.1104 6.79857 2.86149 3.72263
8037 2 2.2208 2.6637 -4.31264 2.51188
4 1 -1.1104 6.92726 -2.98365 0.94577
15 1 -1.1104 6.66648 0.130329 3.85847
11 1 -1.1104 6.82173 0.139222 0.909971
5 1 -1.1104 6.80942 2.77928 0.989643
31 2 2.2208 10.8959 1.29755 5.2388
32 1 -1.1104 12.3742 -2.90904 1.13789
33 1 -1.1104 12.338 2.82106 1.00334
34 1 -1.1104 12.5419 -2.91123 3.82098
35 1 -1.1104 12.5002 2.8018 3.76899
36 1 -1.1104 12.3488 0.129526 0.959816
37 2 2.2208 10.9222 -1.53996 2.53316
38 2 2.2208 10.9324 4.18796 2.46058
39 1 -1.1104 12.4121 -0.0912891 3.90721
40 1 -1.1104 9.61822 -2.96606 0.977695
41 1 -1.1104 9.5541 2.80522 0.948562
42 2 2.2208 8.25866 1.51031 2.39047
43 1 -1.1104 9.46079 -2.99781 3.82749
44 1 -1.1104 9.62572 2.82771 3.87828
45 2 2.2208 8.0216 -1.39672 5.23905
46 2 2.2208 8.11867 4.19172 5.12312
47 1 -1.1104 9.75672 -0.0305274 1.13187
48 1 -1.1104 9.55849 0.0236569 3.81086
409 2 2.2208 8.13383 20.9968 -0.28617
306 1 -1.1104 6.68791 16.9154 12.3821
378 2 2.2208 2.39638 20.9748 -0.229915
297 1 -1.1104 6.72181 13.9542 12.2804
54 2 2.2208 5.33827 6.93455 5.26441
55 2 2.2208 5.32969 12.537 5.26694
56 1 -1.1104 0.993119 8.30026 1.0562
58 1 -1.1104 1.00928 8.53367 3.79674
60 1 -1.1104 0.984548 5.40117 0.985222
61 1 -1.1104 1.13506 11.1831 1.01335
66 2 2.2208 5.39252 9.75977 2.39346
67 1 -1.1104 1.07414 5.66223 3.88154
68 1 -1.1104 0.947547 11.2288 3.84478
71 1 -1.1104 3.72526 8.41887 1.17009
72 2 2.2208 2.35239 6.89868 2.42063
73 2 2.2208 2.43746 12.5633 2.57783
74 1 -1.1104 3.84644 8.29214 3.85675
75 2 2.2208 2.51481 9.78043 5.23357
76 1 -1.1104 3.64212 5.6058 1.04204
77 1 -1.1104 3.96729 11.2043 1.13576
79 1 -1.1104 3.8187 5.55536 3.8016
80 1 -1.1104 3.80532 11.1556 3.87813
59 1 -1.1104 6.78339 8.40993 3.6815
64 1 -1.1104 6.78464 11.19 1.01024
25 2 2.2208 -0.141176 -1.40664 2.40668
136 2 2.2208 -0.399139 21.0946 2.41642
239 1 -1.1104 3.86611 5.42656 6.62697
238 1 -1.1104 3.95011 8.27239 6.711
375 2 2.2208 8.17759 15.3302 -0.304371
165 1 -1.1104 9.51446 13.9 12.3161
8738 2 2.2208 -0.274111 1.41839 5.39084
57 1 -1.1104 6.62507 8.3497 1.08923
69 1 -1.1104 6.6496 5.6213 3.72106
63 1 -1.1104 6.41444 5.48263 0.92044
70 1 -1.1104 6.69156 11.1895 3.84502
84 2 2.2208 10.8504 6.96471 5.25798
85 2 2.2208 11.0128 12.5651 5.14542
86 1 -1.1104 12.3018 8.37288 0.889524
87 1 -1.1104 12.4742 8.42053 3.7715
88 1 -1.1104 12.2534 5.63632 1.04521
89 1 -1.1104 12.237 11.0194 0.887013
91 2 2.2208 10.9094 9.75559 2.39718
92 1 -1.1104 12.1521 5.64266 3.83716
93 1 -1.1104 12.2872 11.1738 3.88331
94 1 -1.1104 9.41538 8.37411 1.12391
95 2 2.2208 7.88859 6.86283 2.40273
96 2 2.2208 8.18446 12.5311 2.46486
97 1 -1.1104 9.59369 8.47346 3.91532
98 2 2.2208 8.13623 9.80896 5.159
99 1 -1.1104 9.34671 5.51881 0.975334
100 1 -1.1104 9.56184 11.1015 0.966328
102 1 -1.1104 9.38653 5.65208 3.85574
103 1 -1.1104 9.58062 11.2416 3.74052
111 1 -1.1104 6.71974 13.765 6.58164
149 1 -1.1104 12.2315 16.8207 6.70415
266 1 -1.1104 12.2041 5.64908 6.68181
65 1 -1.1104 6.66664 11.1257 6.57087
237 1 -1.1104 6.6853 5.40791 6.55049
235 1 -1.1104 6.70379 8.28543 6.59468
265 1 -1.1104 12.4687 8.29907 6.61538
29 2 2.2208 -0.286914 12.425 10.8314
106 2 2.2208 5.34414 18.0597 5.14802
107 1 -1.1104 1.12319 13.8725 1.1859
109 1 -1.1104 1.0749 19.5827 1.0715
113 1 -1.1104 1.00556 13.9433 3.92736
114 1 -1.1104 1.06292 19.829 3.82437
116 1 -1.1104 1.23907 16.641 1.19522
119 2 2.2208 5.23353 15.4228 2.50267
120 2 2.2208 5.27673 20.9212 2.64248
121 1 -1.1104 1.13622 16.884 3.83404
123 1 -1.1104 4.0157 13.9547 1.14496
125 1 -1.1104 3.98305 19.6679 1.26764
127 2 2.2208 2.54023 18.2432 2.5638
128 1 -1.1104 3.76428 13.8956 4.026
129 1 -1.1104 3.86538 19.4661 3.79764
130 2 2.2208 2.43913 15.3531 5.40916
131 2 2.2208 2.50429 21.0975 5.25802
132 1 -1.1104 4.02773 16.9381 1.19555
134 1 -1.1104 3.9112 16.7234 3.96758
140 1 -1.1104 6.89392 16.7861 1.061
110 1 -1.1104 6.75696 13.9765 1.08598
231 2 2.2208 -0.449203 21.0894 8.06193
405 2 2.2208 10.9164 18.3414 -0.430715
126 1 -1.1104 3.93213 19.5822 6.63573
117 1 -1.1104 1.16148 16.8171 6.62489
312 2 2.2208 -0.253736 -1.53535 13.6275
203 2 2.2208 -0.412485 15.4086 8.16392
163 1 -1.1104 9.49988 16.7438 6.66212
122 1 -1.1104 6.84994 16.789 3.74475
115 1 -1.1104 6.60238 13.9629 3.81472
139 1 -1.1104 6.6386 19.5458 3.95088
138 1 -1.1104 6.79709 19.6058 1.22988
141 2 2.2208 10.991 18.132 5.29081
142 1 -1.1104 12.4267 13.9352 0.909933
144 1 -1.1104 12.2738 19.7349 0.941463
146 1 -1.1104 12.4886 14.0946 3.74408
147 1 -1.1104 12.2942 19.5364 3.80723
148 1 -1.1104 12.3387 16.7837 1.09433
150 2 2.2208 11.0685 15.3679 2.46786
151 2 2.2208 10.8454 20.9365 2.40639
152 1 -1.1104 12.4716 16.715 3.97228
153 1 -1.1104 9.67039 13.9526 1.12262
155 1 -1.1104 9.55379 19.5308 1.05311
157 2 2.2208 8.31046 18.1229 2.34535
158 1 -1.1104 9.62506 14.0119 3.94859
159 1 -1.1104 9.59036 19.5858 3.8316
160 2 2.2208 8.06961 15.3693 5.06152
161 2 2.2208 8.14612 20.8764 5.2686
162 1 -1.1104 9.54662 16.8176 0.921295
164 1 -1.1104 9.5434 16.6837 3.85615
156 1 -1.1104 9.5753 19.5085 6.72943
49 1 -1.1104 12.4691 19.5178 12.4477
118 1 -1.1104 6.69579 16.6986 6.67873
145 1 -1.1104 12.3399 19.6126 6.72372
154 1 -1.1104 9.48274 13.9799 6.77578
202 1 -1.1104 9.56807 16.8039 9.47511
325 2 2.2208 7.9864 12.5145 13.6887
170 1 -1.1104 1.14404 0.00966074 6.71261
8743 2 2.2208 13.7839 -1.49755 5.31534
166 1 -1.1104 1.18284 -2.75082 6.69162
17356 2 2.2208 13.8223 -4.39294 2.46198
200 2 2.2208 -0.178659 -1.609 8.09394
174 1 -1.1104 3.88764 -0.182876 6.56204
172 1 -1.1104 4.00088 -2.97538 6.68449
175 2 2.2208 5.23761 1.23832 10.7184
176 1 -1.1104 1.16918 -2.86758 12.3139
177 1 -1.1104 1.03208 2.69424 12.2726
180 1 -1.1104 1.17761 -3.0375 9.40398
181 1 -1.1104 1.05885 2.68284 9.49818
184 1 -1.1104 1.2494 -0.124965 12.1938
186 2 2.2208 5.26187 -1.53839 7.96941
188 1 -1.1104 1.04829 -0.310807 9.51202
190 1 -1.1104 3.98769 -3.09136 12.2443
191 1 -1.1104 3.88108 2.69674 12.0993
192 2 2.2208 2.47477 1.19409 8.07323
193 1 -1.1104 3.92813 -2.94262 9.48319
194 1 -1.1104 3.98608 2.57732 9.34662
195 2 2.2208 2.47459 -1.64817 10.9127
196 2 2.2208 2.4555 4.12412 10.7601
197 1 -1.1104 3.93654 -0.26157 12.1051
198 1 -1.1104 3.78917 -0.173052 9.24141
187 2 2.2208 5.30598 4.01006 8.01442
179 1 -1.1104 6.6251 2.65005 12.2084
201 2 2.2208 -0.254208 1.34799 10.8423
182 1 -1.1104 6.63235 -3.06635 9.38371
8468 2 2.2208 -0.288318 4.09195 8.02015
82 2 2.2208 11.0163 15.3095 8.11045
52 1 -1.1104 9.53951 16.7614 12.302
208 1 -1.1104 9.63966 -2.96098 6.63872
171 1 -1.1104 6.61809 -0.152787 6.74641
205 1 -1.1104 12.4094 -2.83746 6.66469
207 1 -1.1104 12.2951 -0.144272 6.6586
210 1 -1.1104 9.44182 -0.203201 6.66013
209 1 -1.1104 9.55681 2.56048 6.69618
8442 2 2.2208 13.7189 -1.4457 10.7945
178 1 -1.1104 6.74088 -2.91627 12.2688
168 1 -1.1104 6.89571 -3.00331 6.57773
206 1 -1.1104 12.3429 2.82064 6.49643
185 1 -1.1104 6.67453 -0.209644 12.2592
183 1 -1.1104 6.79033 2.73906 9.37782
189 1 -1.1104 6.61734 -0.222099 9.47942
211 2 2.2208 10.8654 1.30306 10.7962
212 1 -1.1104 12.3759 -2.70712 12.2255
213 1 -1.1104 12.4046 2.78221 12.165
214 1 -1.1104 12.2575 -2.92452 9.4122
215 1 -1.1104 12.3972 2.46763 9.42217
216 1 -1.1104 12.2501 0.0968718 12.2117
217 2 2.2208 10.8725 -1.56111 8.04251
219 1 -1.1104 12.347 -0.180741 9.38571
220 1 -1.1104 9.54155 -2.96254 12.2042
221 1 -1.1104 9.50796 2.72537 12.207
222 2 2.2208 8.1245 1.22848 8.04626
223 1 -1.1104 9.39588 -3.00523 9.47132
224 1 -1.1104 9.42291 2.67289 9.47852
225 2 2.2208 7.93098 -1.7305 10.79
227 1 -1.1104 9.51733 -0.122848 12.1351
228 1 -1.1104 9.43948 -0.141281 9.4221
226 2 2.2208 8.09539 4.15121 10.8179
218 2 2.2208 10.8768 4.03795 7.9986
81 1 -1.1104 12.3478 16.6236 12.4027
104 2 2.2208 11.0085 20.991 8.19483
234 1 -1.1104 1.29287 8.24893 6.52664
328 2 2.2208 5.25339 15.408 13.8769
78 1 -1.1104 3.87905 11.2281 6.69567
8041 2 2.2208 10.9552 -4.40152 5.21232
62 1 -1.1104 1.14348 11.1988 6.68979
236 1 -1.1104 1.01643 5.56322 6.59736
240 2 2.2208 5.22914 6.86725 10.7515
241 2 2.2208 5.40739 12.5725 10.8732
242 1 -1.1104 1.06172 8.18729 12.3405
244 1 -1.1104 1.02488 8.3551 9.46499
246 1 -1.1104 1.12415 5.48598 12.1677
247 1 -1.1104 0.902129 11.0838 12.3119
250 2 2.2208 5.38398 9.73682 8.01779
251 1 -1.1104 1.09734 5.49941 9.50826
252 1 -1.1104 1.28794 11.0407 9.51417
255 1 -1.1104 3.79153 8.32355 12.2854
256 2 2.2208 2.50215 6.93649 7.88841
257 2 2.2208 2.51466 12.578 8.12658
258 1 -1.1104 3.80969 8.1854 9.34164
259 2 2.2208 2.51443 9.71215 10.9333
260 1 -1.1104 3.88149 5.49905 12.0372
261 1 -1.1104 3.85082 11.1157 12.2447
262 1 -1.1104 3.97489 5.48887 9.28902
263 1 -1.1104 4.00762 11.065 9.47301
245 1 -1.1104 6.67071 8.3236 9.48162
248 1 -1.1104 6.80971 5.57405 12.2249
253 1 -1.1104 6.73758 5.52038 9.50755
326 2 2.2208 2.46987 18.2309 13.8716
267 1 -1.1104 9.50877 8.47273 6.75488
105 1 -1.1104 12.3763 16.7079 9.49136
249 1 -1.1104 6.62526 11.1203 12.2923
254 1 -1.1104 6.62247 11.0644 9.4546
243 1 -1.1104 6.55374 8.1708 12.3169
269 1 -1.1104 9.37928 5.4937 6.74953
90 1 -1.1104 12.4153 10.9505 6.63049
101 1 -1.1104 9.50134 11.2487 6.52497
264 1 -1.1104 9.48102 11.1468 9.24864
268 1 -1.1104 9.56704 5.4158 9.60037
270 1 -1.1104 9.48017 11.0525 12.0575
271 1 -1.1104 9.67782 5.45975 12.2555
272 2 2.2208 8.06713 9.6851 10.7633
273 1 -1.1104 9.71359 8.35357 9.48444
274 2 2.2208 8.10102 12.4794 7.97072
275 2 2.2208 8.12105 6.88575 8.10855
276 2 2.2208 10.9487 6.85228 10.8168
277 2 2.2208 10.898 12.4461 10.9155
278 1 -1.1104 12.3278 8.19244 12.315
279 1 -1.1104 12.3625 8.21169 9.53001
280 1 -1.1104 12.4313 5.50827 12.2033
281 1 -1.1104 12.2248 10.9601 12.123
282 2 2.2208 11.0311 9.82815 8.09363
283 1 -1.1104 12.3492 5.41 9.47021
284 1 -1.1104 12.2828 11.1346 9.38772
285 1 -1.1104 9.46537 8.21877 12.2721
296 1 -1.1104 6.72683 19.729 12.2806
290 1 -1.1104 6.75849 13.8464 9.39762
233 1 -1.1104 9.61953 19.4842 9.59712
302 1 -1.1104 1.11209 19.6939 6.76594
133 1 -1.1104 3.90187 16.8585 6.64908
124 1 -1.1104 3.74639 14.0818 6.80264
112 1 -1.1104 6.76013 19.4553 6.73877
108 1 -1.1104 1.00049 13.9506 6.80256
232 2 2.2208 2.50796 15.4067 10.9221
286 1 -1.1104 3.98239 19.6119 12.2933
287 1 -1.1104 3.87296 13.8785 12.3895
291 1 -1.1104 1.04379 19.6399 9.46613
292 1 -1.1104 1.07523 16.7855 9.47519
293 2 2.2208 5.31975 20.9189 8.07627
294 1 -1.1104 1.11922 13.8969 9.41777
295 2 2.2208 5.44 15.4144 8.06603
298 1 -1.1104 1.06381 19.5976 12.3359
299 1 -1.1104 1.01658 13.8342 12.1651
300 2 2.2208 5.24857 18.1897 10.8897
301 1 -1.1104 3.83654 19.6372 9.45953
303 2 2.2208 2.45236 18.1599 8.01946
304 1 -1.1104 3.89869 16.8237 9.52176
305 1 -1.1104 3.91677 14.0364 9.62844
307 1 -1.1104 1.19609 16.7055 12.4006
308 1 -1.1104 3.88896 16.781 12.3795
309 2 2.2208 2.49067 20.9696 10.8623
288 1 -1.1104 6.69741 19.5535 9.45329
289 1 -1.1104 6.8091 16.6679 9.57864
143 1 -1.1104 12.3024 13.8784 6.59937
230 1 -1.1104 9.44403 13.9258 9.56168
27 1 -1.1104 12.3083 13.8286 12.3794
30 2 2.2208 8.07222 15.2988 10.8966
51 2 2.2208 8.12536 20.9363 10.9388
53 1 -1.1104 12.4745 19.416 9.64672
50 1 -1.1104 12.2306 13.8614 9.47038
26 2 2.2208 11.0025 18.1449 10.9183
199 1 -1.1104 9.58811 19.6664 12.2524
8443 2 2.2208 13.7786 1.33606 8.03754
324 2 2.2208 10.8946 9.59514 13.6174
376 2 2.2208 5.39185 18.1267 -0.230372
316 2 2.2208 -0.306802 9.60206 13.7014
313 2 2.2208 5.38858 -1.56283 13.6572
8470 2 2.2208 13.7877 9.7375 5.17909
8601 2 2.2208 13.7861 6.90577 2.35167
135 2 2.2208 -0.333455 15.3463 2.51765
8053 2 2.2208 5.41391 -4.38705 -0.50201
311 2 2.2208 -0.195224 15.2807 13.7107
322 2 2.2208 2.49048 12.5682 13.6547
8749 2 2.2208 13.7343 1.18794 13.5199
632 2 2.2208 5.24656 12.5373 -0.386313
320 2 2.2208 2.43552 6.83126 13.6
335 2 2.2208 -0.340739 4.0954 13.6585
337 2 2.2208 8.06469 -1.48736 -0.48909
317 2 2.2208 8.12112 1.312 13.6484
329 2 2.2208 11.0109 21.0437 13.6679
656 2 2.2208 8.1783 9.72168 -0.384432
597 2 2.2208 8.26308 4.11118 -0.506724
323 2 2.2208 8.04373 6.85009 13.6059
321 2 2.2208 5.28892 9.64296 13.6344
338 2 2.2208 5.39166 1.27699 16.4097
339 1 -1.1104 1.0829 -2.80982 17.8864
340 1 -1.1104 1.01688 2.69529 17.8737
343 1 -1.1104 1.1682 -2.81233 15.0756
345 1 -1.1104 1.16772 2.7149 15.0368
351 1 -1.1104 1.26898 0.0113807 17.9185
353 2 2.2208 5.34696 -1.63371 19.2961
354 2 2.2208 5.35411 4.10819 19.2856
355 1 -1.1104 1.28964 -0.00488478 14.9743
359 1 -1.1104 3.95221 -2.83855 17.8162
360 1 -1.1104 3.84578 2.78624 17.8329
361 2 2.2208 2.6453 1.32207 19.2
362 1 -1.1104 4.02049 -2.93199 15.0205
364 1 -1.1104 3.95968 2.70033 15.0111
366 2 2.2208 2.58678 -1.41864 16.4601
367 2 2.2208 2.48302 4.02374 16.4615
368 1 -1.1104 4.02696 -0.00535635 17.8631
369 1 -1.1104 4.05985 -0.031166 14.8855
341 1 -1.1104 6.75519 -2.76619 17.8527
363 1 -1.1104 3.97641 -2.89536 20.5437
346 1 -1.1104 1.2217 2.74109 20.7294
370 1 -1.1104 3.87815 -0.0542762 20.6263
344 1 -1.1104 1.21953 -2.96952 20.5696
8050 2 2.2208 10.8886 -4.32035 27.7285
352 1 -1.1104 6.90998 -0.103367 17.8557
349 1 -1.1104 6.90134 2.68223 15.0529
350 1 -1.1104 6.83029 2.66863 20.5867
596 2 2.2208 7.94717 20.9135 22.0997
356 1 -1.1104 1.05736 -0.0752769 20.5069
576 2 2.2208 10.9686 15.3716 24.9437
8102 2 2.2208 5.34983 -4.3915 22.0414
8870 2 2.2208 -0.261118 -1.48318 19.2092
568 2 2.2208 -0.331662 9.70683 19.2238
347 1 -1.1104 6.79585 -3.13113 15.1268
357 1 -1.1104 6.79392 -0.151979 15.0361
342 1 -1.1104 6.60566 2.67435 17.836
381 2 2.2208 10.994 1.17986 16.3801
382 1 -1.1104 12.2665 -2.98551 17.793
383 1 -1.1104 12.3178 2.61633 17.7317
384 1 -1.1104 12.2826 -3.03325 14.954
386 1 -1.1104 12.4138 2.74123 15.1075
388 1 -1.1104 12.3698 -0.131569 17.8169
389 2 2.2208 10.9175 -1.56813 19.2705
391 1 -1.1104 12.4475 -0.15668 15.0585
393 1 -1.1104 9.50926 -3.13494 17.7789
394 1 -1.1104 9.62023 2.73672 17.8606
395 2 2.2208 8.13424 1.26762 19.2115
396 1 -1.1104 9.46156 -3.15245 14.9827
398 1 -1.1104 9.66604 2.61073 15.0371
400 2 2.2208 8.16728 -1.59152 16.3591
402 1 -1.1104 9.64549 -0.259314 17.7871
403 1 -1.1104 9.61712 -0.320303 14.9153
401 2 2.2208 8.17568 4.07793 16.4439
390 2 2.2208 10.8856 4.07828 19.201
331 2 2.2208 8.09356 18.1592 13.6898
8138 2 2.2208 2.50761 -4.32375 19.2867
524 1 -1.1104 12.3464 16.706 20.7663
392 1 -1.1104 12.1234 -0.10879 20.5068
404 1 -1.1104 9.48905 -0.16029 20.7753
8168 2 2.2208 -0.363495 -4.26508 16.4237
510 1 -1.1104 6.75383 13.874 23.5282
17420 2 2.2208 -0.296594 -4.34959 22.0361
487 1 -1.1104 6.73373 13.9797 20.7089
330 2 2.2208 10.8347 15.2621 13.6906
318 2 2.2208 10.8757 -1.60056 13.5377
414 2 2.2208 5.2877 6.95175 16.4095
415 2 2.2208 5.25795 12.5147 16.5531
416 1 -1.1104 1.14585 8.39584 17.8455
418 1 -1.1104 1.11101 8.26131 15.0485
422 1 -1.1104 1.21789 5.58704 17.7766
423 1 -1.1104 1.07322 11.0832 17.8597
426 2 2.2208 5.39851 9.67655 19.2209
427 1 -1.1104 0.98086 5.48798 15.1262
429 1 -1.1104 1.12956 11.09 15.1651
435 1 -1.1104 3.98223 8.46733 17.9067
436 2 2.2208 2.49236 6.96265 19.2971
437 2 2.2208 2.44533 12.6215 19.2026
438 1 -1.1104 3.83134 8.40078 15.0068
440 2 2.2208 2.48876 9.79288 16.4532
441 1 -1.1104 4.0138 5.46748 17.5992
442 1 -1.1104 3.97795 11.1429 17.7092
443 1 -1.1104 3.78536 5.52463 14.8816
445 1 -1.1104 3.77262 11.2513 14.9339
314 2 2.2208 2.62365 1.29984 13.5228
424 1 -1.1104 6.79392 5.51858 18.0016
432 1 -1.1104 6.69086 5.46201 20.7484
8872 2 2.2208 13.7235 9.76963 16.6346
630 2 2.2208 5.21263 6.95656 27.7441
439 1 -1.1104 3.85067 8.33491 20.6933
444 1 -1.1104 3.93096 5.54333 20.5606
446 1 -1.1104 4.04873 11.0636 20.7017
537 1 -1.1104 6.68381 19.4254 23.6369
417 1 -1.1104 6.78159 8.31161 17.7596
425 1 -1.1104 6.62963 11.0979 17.9584
420 1 -1.1104 6.71604 8.16741 15.0866
431 1 -1.1104 6.66072 5.29678 15.0373
433 1 -1.1104 6.67296 11.1441 15.1942
450 2 2.2208 10.8264 6.91969 16.3569
451 2 2.2208 10.8967 12.5884 16.5119
452 1 -1.1104 12.3307 8.33726 17.8909
453 1 -1.1104 12.1694 8.26247 15.164
455 1 -1.1104 12.1719 5.50563 17.7582
456 1 -1.1104 12.2555 11.161 17.8251
457 2 2.2208 10.8593 9.68635 19.1602
458 1 -1.1104 12.2925 5.57607 15.0609
460 1 -1.1104 12.3242 11.1219 14.9295
462 1 -1.1104 9.54577 8.27688 17.9186
463 2 2.2208 8.09089 6.8459 19.2143
464 2 2.2208 8.15136 12.5129 19.1747
465 1 -1.1104 9.38983 8.34074 14.988
467 2 2.2208 8.14066 9.71037 16.4709
468 1 -1.1104 9.46554 5.60169 17.9164
469 1 -1.1104 9.55796 11.105 17.6588
470 1 -1.1104 9.44644 5.56737 14.9916
472 1 -1.1104 9.51038 11.195 14.9655
454 1 -1.1104 12.3148 8.21975 20.6088
466 1 -1.1104 9.57275 8.32594 20.7091
461 1 -1.1104 12.4858 11.0393 20.5957
631 2 2.2208 2.47692 9.79931 27.7636
473 1 -1.1104 9.68598 11.133 20.5574
574 1 -1.1104 12.3371 19.6216 26.2553
408 2 2.2208 -0.227981 6.9795 16.4807
8841 2 2.2208 -0.224559 4.13185 19.1946
8800 2 2.2208 -0.334601 -1.53613 24.839
477 2 2.2208 5.34074 18.2678 16.5381
478 1 -1.1104 1.17411 13.985 17.7674
479 1 -1.1104 1.16965 19.6093 17.8764
482 1 -1.1104 1.12415 13.922 15.1183
484 1 -1.1104 1.10205 19.6362 15.1248
490 1 -1.1104 1.15974 16.6713 18.0373
492 2 2.2208 5.18536 15.3669 19.3071
493 2 2.2208 5.37369 20.9823 19.3176
494 1 -1.1104 1.10781 16.7983 15.2322
498 1 -1.1104 3.92106 14.0159 17.9616
499 1 -1.1104 3.94003 19.6454 18.0665
500 2 2.2208 2.5555 18.2623 19.3479
501 1 -1.1104 3.90422 13.9763 15.1422
503 1 -1.1104 3.8466 19.607 15.1755
505 2 2.2208 2.57752 15.4133 16.4716
506 2 2.2208 2.50208 21.0365 16.6035
507 1 -1.1104 3.88219 16.8156 17.8415
508 1 -1.1104 3.95479 16.8705 15.157
491 1 -1.1104 6.70273 16.6724 17.7758
8101 2 2.2208 2.56549 -4.43941 24.8596
374 2 2.2208 -0.19388 1.31951 16.4348
502 1 -1.1104 4.0311 13.897 20.5638
495 1 -1.1104 0.930577 16.6866 20.7297
406 2 2.2208 -0.250872 20.9339 19.3208
599 2 2.2208 -0.346837 18.2198 22.1183
480 1 -1.1104 6.63999 13.8953 17.8033
481 1 -1.1104 6.74942 19.5055 17.8659
486 1 -1.1104 6.60996 13.9268 15.0721
488 1 -1.1104 6.8207 19.4516 15.094
496 1 -1.1104 6.76626 16.7786 15.0972
513 2 2.2208 10.9523 18.1695 16.5546
514 1 -1.1104 12.3534 13.9129 17.7872
515 1 -1.1104 12.2742 19.5238 18.0255
516 1 -1.1104 12.2689 13.9642 15.1318
518 1 -1.1104 12.3762 19.6472 15.114
520 1 -1.1104 12.3267 16.8832 17.9909
521 2 2.2208 10.8963 15.5277 19.3196
522 2 2.2208 10.8647 20.9333 19.3612
523 1 -1.1104 12.2092 16.8323 15.165
525 1 -1.1104 9.4179 14.0784 17.886
526 1 -1.1104 9.39488 19.5508 17.8383
527 2 2.2208 8.15952 18.1974 19.2814
528 1 -1.1104 9.35812 14.0291 15.0131
530 1 -1.1104 9.71355 19.5197 15.0731
532 2 2.2208 8.01764 15.2658 16.4081
533 2 2.2208 8.1559 20.8884 16.4185
534 1 -1.1104 9.56574 16.7186 17.9766
535 1 -1.1104 9.60117 16.7106 15.1129
412 1 -1.1104 6.68747 16.675 23.5088
489 1 -1.1104 6.56671 19.511 20.7614
536 1 -1.1104 9.5705 16.7424 20.7969
517 1 -1.1104 12.2595 13.8733 20.6425
529 1 -1.1104 9.6174 13.9441 20.7347
655 2 2.2208 11.0383 6.91764 27.6981
573 1 -1.1104 12.2212 13.8852 26.2436
365 1 -1.1104 3.98492 2.79979 20.5851
659 2 2.2208 8.08672 15.2391 22.2124
636 1 -1.1104 9.51822 13.8984 26.3112
348 1 -1.1104 6.71551 -3.0212 20.5734
541 2 2.2208 5.38586 1.33091 21.9839
542 1 -1.1104 1.17925 -2.99011 23.4213
543 1 -1.1104 0.958147 2.80448 23.5999
546 1 -1.1104 1.41512 -2.82866 26.2806
547 1 -1.1104 1.09508 2.76951 26.3268
550 1 -1.1104 1.08536 -0.101359 23.2423
552 2 2.2208 5.31833 -1.52463 24.831
553 2 2.2208 5.29227 4.16386 24.9905
554 1 -1.1104 0.965499 -0.025168 26.1612
556 1 -1.1104 3.81104 -2.92646 23.4568
557 1 -1.1104 3.8655 2.79001 23.3375
558 2 2.2208 2.50054 1.33495 24.9301
559 1 -1.1104 4.00335 -3.03207 26.1629
560 1 -1.1104 3.92396 2.81075 26.2319
561 2 2.2208 2.54344 -1.47486 22.0709
562 2 2.2208 2.46131 4.134 22.0525
563 1 -1.1104 3.97302 -0.0809464 23.54
564 1 -1.1104 3.94362 -0.0515811 26.3124
555 1 -1.1104 6.67072 -0.12817 26.3053
9020 2 2.2208 -0.263022 1.35591 22.03
551 1 -1.1104 6.81881 -0.153858 23.4473
531 1 -1.1104 9.39716 19.5332 20.7451
358 1 -1.1104 6.69731 -0.119964 20.7001
373 2 2.2208 -0.266487 18.1503 16.6618
385 1 -1.1104 12.3199 -2.78621 20.6941
399 1 -1.1104 9.43341 2.78677 20.6075
387 1 -1.1104 12.3097 2.71397 20.6705
397 1 -1.1104 9.43787 -3.04001 20.585
544 1 -1.1104 6.58713 -3.00774 23.564
549 1 -1.1104 6.79167 2.76153 26.3361
548 1 -1.1104 6.59863 -2.86461 26.2122
545 1 -1.1104 6.62444 2.65211 23.5438
577 2 2.2208 10.8734 1.2651 22.0072
578 1 -1.1104 12.2958 -2.87373 23.6645
579 1 -1.1104 12.1982 2.72297 23.3884
580 1 -1.1104 12.1607 -2.96078 26.3241
581 1 -1.1104 12.4933 2.6696 26.2672
582 1 -1.1104 12.2252 -0.00740145 23.4346
583 2 2.2208 10.8816 -1.48581 24.8695
584 2 2.2208 10.9351 4.00807 24.8259
585 1 -1.1104 12.341 -0.0217929 26.407
586 1 -1.1104 9.42043 -3.00383 23.4549
587 1 -1.1104 9.29212 2.62074 23.3751
588 2 2.2208 8.07311 1.24456 24.7703
589 1 -1.1104 9.41956 -2.96795 26.2912
590 1 -1.1104 9.54125 2.68565 26.1963
591 2 2.2208 8.05568 -1.59111 22.1003
593 1 -1.1104 9.58728 -0.149865 23.5573
594 1 -1.1104 9.58735 -0.105769 26.3351
592 2 2.2208 8.17959 4.08306 22.0786
598 2 2.2208 11.0364 20.9539 24.9426
600 1 -1.1104 9.58218 16.7002 23.6473
333 2 2.2208 2.56558 -1.43948 27.6799
336 2 2.2208 10.9584 1.27709 27.7027
575 1 -1.1104 12.3434 16.6245 23.4878
419 1 -1.1104 1.18134 8.39275 20.5149
428 1 -1.1104 1.02876 5.60045 20.5591
430 1 -1.1104 1.02967 11.2984 20.5772
606 2 2.2208 5.3816 6.88921 22.1056
607 2 2.2208 5.37016 12.4989 22.1519
608 1 -1.1104 1.08715 8.44604 23.4969
610 1 -1.1104 1.08076 8.36191 26.2108
612 1 -1.1104 0.961412 5.62531 23.4425
613 1 -1.1104 1.14882 11.1561 23.3723
616 2 2.2208 5.32356 9.77015 24.9035
617 1 -1.1104 0.921709 5.5488 26.3873
618 1 -1.1104 1.10053 11.1652 26.4037
621 1 -1.1104 3.86124 8.19958 23.3975
622 2 2.2208 2.39855 6.89555 24.8798
623 2 2.2208 2.3463 12.5598 24.858
624 1 -1.1104 3.98154 8.25028 26.2072
625 2 2.2208 2.62312 9.72669 22.01
626 1 -1.1104 3.73021 5.51567 23.5436
627 1 -1.1104 3.92582 11.0771 23.5723
628 1 -1.1104 3.88367 5.43125 26.2967
629 1 -1.1104 3.89815 11.2421 26.2441
619 1 -1.1104 6.61737 5.58195 26.2938
572 1 -1.1104 9.39377 16.7485 26.3304
519 1 -1.1104 12.2917 19.4474 20.7748
603 1 -1.1104 9.49033 13.9814 23.5861
434 1 -1.1104 6.88591 10.9613 20.6141
615 1 -1.1104 6.72213 11.1596 23.4704
611 1 -1.1104 6.76375 8.41506 26.3418
609 1 -1.1104 6.78293 8.34355 23.5794
614 1 -1.1104 6.79067 5.43515 23.5156
421 1 -1.1104 6.65888 8.19631 20.7093
620 1 -1.1104 6.72135 11.1648 26.2301
471 1 -1.1104 9.43679 5.54327 20.6117
459 1 -1.1104 12.3957 5.44001 20.6319
637 1 -1.1104 9.47606 11.1143 26.1854
638 1 -1.1104 9.51 5.41327 26.1322
639 1 -1.1104 9.51729 11.0747 23.3972
640 1 -1.1104 9.59205 5.4393 23.2923
641 2 2.2208 8.27698 9.70046 21.9814
642 1 -1.1104 9.60387 8.18788 26.384
643 2 2.2208 8.09969 12.48 24.9756
644 2 2.2208 8.08208 6.95267 24.9354
645 2 2.2208 10.9789 6.83013 21.9779
646 2 2.2208 10.9179 12.3751 21.9103
647 1 -1.1104 12.3822 8.23537 23.389
648 1 -1.1104 12.4062 8.2375 26.1015
649 1 -1.1104 12.3767 5.59751 23.4045
650 1 -1.1104 12.3776 10.9721 23.4818
651 2 2.2208 10.906 9.60575 24.7609
652 1 -1.1104 12.3679 5.52813 26.2962
653 1 -1.1104 12.4478 11.0828 26.2636
654 1 -1.1104 9.49605 8.40697 23.6038
604 1 -1.1104 9.38684 19.482 23.6521
658 1 -1.1104 9.47157 19.5378 26.2452
377 2 2.2208 -0.347168 15.2723 19.3279
497 1 -1.1104 6.79165 16.902 20.7755
504 1 -1.1104 3.844 19.6583 20.7785
571 1 -1.1104 6.64919 14.0312 26.5148
509 1 -1.1104 3.90342 16.7842 20.702
485 1 -1.1104 1.22637 19.5409 20.681
633 1 -1.1104 6.62377 19.6037 26.4304
483 1 -1.1104 1.15798 13.9078 20.6611
567 1 -1.1104 3.92178 13.9163 23.4535
565 1 -1.1104 0.917977 19.6672 26.2016
539 1 -1.1104 1.13255 16.7121 26.3702
538 1 -1.1104 0.954844 13.9294 26.2532
595 1 -1.1104 3.80673 19.5737 23.7787
512 2 2.2208 5.32353 20.8909 25.095
379 2 2.2208 2.37249 15.4118 22.1338
380 2 2.2208 2.55854 20.9597 22.2132
407 1 -1.1104 3.94545 16.8058 23.4442
411 1 -1.1104 1.03759 16.8602 23.6541
413 1 -1.1104 3.77933 13.917 26.3675
447 1 -1.1104 3.91165 16.6256 26.3891
448 2 2.2208 2.47761 18.1116 24.9498
449 1 -1.1104 3.83216 19.4841 26.4525
474 2 2.2208 5.30504 18.1226 22.0963
475 1 -1.1104 1.02967 13.9395 23.4366
476 1 -1.1104 0.99153 19.5255 23.403
511 2 2.2208 5.22505 15.3046 24.9318
635 2 2.2208 -0.374936 12.4674 22.0086
410 2 2.2208 10.9524 18.0785 22.178
602 1 -1.1104 12.2514 16.8391 26.2722
566 1 -1.1104 6.70136 16.838 26.302
605 2 2.2208 8.10881 18.2033 24.9411
540 1 -1.1104 12.3664 13.8535 23.4109
569 1 -1.1104 12.4095 19.4686 23.4964
327 2 2.2208 5.3333 20.9815 13.7089
371 2 2.2208 -0.428754 15.3371 24.9223
8796 2 2.2208 -0.388581 20.9461 24.8837
570 2 2.2208 -0.280652 12.5798 16.3504
315 2 2.2208 5.32299 4.13047 13.5074
334 2 2.2208 2.44349 4.14164 27.6758
9017 2 2.2208 -0.409401 4.11857 24.864
8840 2 2.2208 -0.301457 12.6042 27.7454
657 2 2.2208 10.9943 12.5078 27.654
8839 2 2.2208 -0.42525 6.91998 27.7294
332 2 2.2208 5.34783 1.40177 27.6009
8746 2 2.2208 -0.378989 1.31895 27.608
310 2 2.2208 -0.406801 21.0337 13.7982
8756 2 2.2208 13.7019 12.534 13.716
660 2 2.2208 5.34825 23.794 5.28275
661 2 2.2208 5.22826 29.3591 5.38182
662 1 -1.1104 1.17601 25.2723 1.03343
663 1 -1.1104 1.08355 25.1038 3.83731
664 1 -1.1104 1.0134 22.3809 1.03885
665 1 -1.1104 1.18143 28.0074 1.07535
666 2 2.2208 5.2496 26.6053 2.43367
667 1 -1.1104 1.10818 22.4124 3.95207
668 1 -1.1104 1.00951 27.8356 3.90312
669 1 -1.1104 3.86847 25.2674 1.01916
670 2 2.2208 2.39245 23.8221 2.5235
671 2 2.2208 2.4701 29.421 2.53825
672 1 -1.1104 3.9602 25.2635 3.79764
673 2 2.2208 2.47197 26.5407 5.23946
674 1 -1.1104 3.71854 22.4105 1.01611
675 1 -1.1104 3.93178 27.9877 1.10304
676 1 -1.1104 3.85867 22.5554 3.90841
677 1 -1.1104 3.8017 27.9588 3.93713
9426 2 2.2208 -0.316554 32.0255 2.57416
807 1 -1.1104 3.76621 25.3036 6.64981
1212 2 2.2208 2.5554 26.4852 -0.411551
682 1 -1.1104 6.69856 25.0516 4.03424
683 1 -1.1104 6.57899 22.2652 1.12705
686 1 -1.1104 6.70899 28.0075 3.8909
729 1 -1.1104 12.4196 42.0448 12.1056
801 1 -1.1104 0.983012 25.1863 6.67653
809 1 -1.1104 3.87723 27.9101 6.67903
804 1 -1.1104 1.07507 27.8625 6.5947
808 1 -1.1104 4.00994 22.4247 6.59207
1302 2 2.2208 11.0047 34.9614 -0.433157
1543 1 -1.1104 9.3927 47.6005 6.70937
961 1 -1.1104 12.1539 44.6722 9.64909
684 1 -1.1104 6.73407 27.9287 1.2023
681 1 -1.1104 6.67481 25.2328 1.09105
685 1 -1.1104 6.82967 22.194 3.82765
687 2 2.2208 10.8089 23.6524 5.43234
688 2 2.2208 10.9151 29.3127 5.41661
689 1 -1.1104 12.2073 25.3055 0.99423
690 1 -1.1104 12.2483 25.0187 4.01203
691 1 -1.1104 12.1563 22.4825 1.05019
692 1 -1.1104 12.2937 28.0989 1.04278
693 2 2.2208 11.022 26.684 2.64981
694 1 -1.1104 12.3091 22.285 3.74568
695 1 -1.1104 12.338 27.9441 3.86663
696 1 -1.1104 9.50616 25.1675 1.21582
697 2 2.2208 8.03308 23.7459 2.5441
698 2 2.2208 8.00279 29.3866 2.56333
699 1 -1.1104 9.43959 25.0549 3.95481
700 2 2.2208 8.09512 26.5844 5.32078
701 1 -1.1104 9.42822 22.3676 1.02149
702 1 -1.1104 9.53917 27.9635 1.26449
703 1 -1.1104 9.39911 22.3059 3.91903
704 1 -1.1104 9.53509 27.9764 3.95264
1241 2 2.2208 10.8479 23.9069 -0.268452
802 1 -1.1104 6.5112 25.2068 6.85506
834 1 -1.1104 12.215 25.0718 6.81994
835 1 -1.1104 12.3606 22.3164 6.67165
951 1 -1.1104 12.2217 44.8238 12.38
9458 2 2.2208 13.5934 43.4185 -0.284991
708 2 2.2208 5.16704 35.0323 5.38697
709 1 -1.1104 1.00902 30.6543 1.10518
710 1 -1.1104 1.01969 36.4888 1.20821
712 1 -1.1104 0.927241 30.7521 3.89388
713 1 -1.1104 0.97039 36.4384 3.98665
715 1 -1.1104 1.31761 33.5823 1.14871
716 2 2.2208 5.29965 32.1925 2.53975
717 2 2.2208 5.37998 37.7154 2.57219
718 1 -1.1104 1.06574 33.5621 3.88743
720 1 -1.1104 3.83127 30.767 1.18671
721 1 -1.1104 4.09185 36.2763 1.08286
722 2 2.2208 2.45331 35.039 2.49758
723 1 -1.1104 3.85777 30.7796 3.86419
724 1 -1.1104 3.69853 36.3989 3.79054
725 2 2.2208 2.45241 32.0467 5.25681
726 2 2.2208 2.47877 37.8215 5.25566
727 1 -1.1104 4.06353 33.5673 1.02366
728 1 -1.1104 3.8935 33.5623 3.89401
733 1 -1.1104 6.59262 30.777 3.96029
1321 1 -1.1104 6.55785 47.5166 3.67796
859 1 -1.1104 1.04225 36.4023 6.68704
1211 2 2.2208 5.25598 23.8004 -0.29844
9210 2 2.2208 13.565 43.4992 5.34702
1271 2 2.2208 2.50321 32.1162 -0.365355
1301 2 2.2208 8.22553 32.3199 -0.341925
732 1 -1.1104 6.54109 30.7093 1.19767
711 1 -1.1104 6.7275 36.2709 1.1328
719 1 -1.1104 6.64371 33.5392 4.02079
714 1 -1.1104 6.71233 36.4333 4.05236
734 1 -1.1104 6.79397 33.4644 1.05667
744 1 -1.1104 9.37954 30.8059 1.14296
735 2 2.2208 10.8192 35.0032 5.26744
736 1 -1.1104 12.2925 30.7357 1.16049
737 1 -1.1104 12.4082 36.4036 1.09938
738 1 -1.1104 12.3516 30.5334 4.05636
739 1 -1.1104 12.3665 36.3396 3.80039
740 1 -1.1104 12.4043 33.5084 1.20738
741 2 2.2208 10.7972 32.1507 2.44374
742 2 2.2208 10.9534 37.8769 2.4898
743 1 -1.1104 12.1819 33.3367 4.02426
745 1 -1.1104 9.62117 36.3999 1.15693
746 2 2.2208 8.06551 35.0026 2.46166