ITEM: TIMESTEP
30000
ITEM: NUMBER OF ATOMS
17730
ITEM: BOX BOUNDS pp pp pp
-3.6026391861247553e-01 2.7700263918612432e+01
-4.4053081775365079e+00 3.3248530817753851e+02
-3.6989750153801942e-01 2.7709897501537835e+01
ITEM: ATOMS id type q x y z
1 2 2.2208 5.38958 1.21366 5.26427
2 1 -1.1104 1.13708 -3.0328 0.893206
3 1 -1.1104 1.15331 2.51098 1.10703
6 1 -1.1104 1.15704 -3.05785 3.74447
7 1 -1.1104 1.25944 2.48216 3.89506
10 1 -1.1104 1.31922 -0.349518 1.19654
12 2 2.2208 5.4477 -1.64765 2.39802
13 2 2.2208 5.34558 4.01802 2.46551
14 1 -1.1104 1.13846 -0.253721 3.84464
16 1 -1.1104 3.93307 -2.98938 1.01509
17 1 -1.1104 4.08748 2.642 0.942537
18 2 2.2208 2.64155 1.12152 2.41236
19 1 -1.1104 3.96409 -2.97207 3.73875
20 1 -1.1104 3.95092 2.60076 3.81843
21 2 2.2208 2.66385 -1.56519 5.11762
22 2 2.2208 2.53174 3.96355 5.27221
23 1 -1.1104 4.05065 -0.132472 0.973661
24 1 -1.1104 4.0108 -0.234823 3.78062
170 1 -1.1104 1.23112 -0.15794 6.49376
204 2 2.2208 -0.240798 18.0224 10.7979
25 2 2.2208 -0.280289 -1.59367 2.35516
172 1 -1.1104 4.09556 -2.9732 6.52668
166 1 -1.1104 1.25618 -3.11169 6.5225
8738 2 2.2208 -0.247188 1.21317 5.2158
8741 2 2.2208 -0.201497 4.0497 2.47002
11 1 -1.1104 6.83332 -0.330223 1.01632
8043 2 2.2208 5.35696 -4.24396 10.8186
4 1 -1.1104 6.73923 -2.93204 0.90267
171 1 -1.1104 6.9017 -0.198954 6.78636
8637 2 2.2208 -0.270706 6.91396 5.24351
15 1 -1.1104 6.8433 -0.224581 3.99485
9 1 -1.1104 6.77165 2.63758 3.89471
5 1 -1.1104 6.81139 2.3939 1.07876
8 1 -1.1104 6.59807 -3.15741 3.70302
31 2 2.2208 10.8492 1.17301 5.14326
32 1 -1.1104 12.2349 -3.06833 0.889232
33 1 -1.1104 12.2647 2.56878 1.08873
34 1 -1.1104 12.4318 -3.01073 3.74492
35 1 -1.1104 12.339 2.47125 3.88878
36 1 -1.1104 12.3324 -0.24086 0.921107
37 2 2.2208 10.9545 -1.65131 2.3056
38 2 2.2208 11.0016 3.97525 2.40444
39 1 -1.1104 12.3625 -0.340697 3.73836
40 1 -1.1104 9.49002 -3.08947 1.10039
41 1 -1.1104 9.56385 2.55606 0.836607
42 2 2.2208 8.21442 1.0651 2.40372
43 1 -1.1104 9.55354 -3.0155 3.66666
44 1 -1.1104 9.53834 2.66242 3.78304
45 2 2.2208 8.19305 -1.68567 5.21112
46 2 2.2208 8.09966 4.0312 5.26739
47 1 -1.1104 9.60214 -0.262329 0.89987
48 1 -1.1104 9.58478 -0.354991 3.92213
205 1 -1.1104 12.391 -3.24915 6.60608
200 2 2.2208 -0.164251 -1.58655 7.91593
168 1 -1.1104 6.82443 -2.97053 6.56092
169 1 -1.1104 6.68966 2.57687 6.58548
209 1 -1.1104 9.47944 2.5241 6.5922
135 2 2.2208 -0.141708 15.3486 2.43719
54 2 2.2208 5.31845 6.94741 5.2003
55 2 2.2208 5.43815 12.4556 5.40872
56 1 -1.1104 1.06224 8.20156 0.877568
58 1 -1.1104 1.09483 8.30811 3.84613
60 1 -1.1104 1.22085 5.40196 0.992732
61 1 -1.1104 1.09081 11.0605 1.06757
66 2 2.2208 5.32412 9.69527 2.47405
67 1 -1.1104 1.09399 5.58104 3.8941
68 1 -1.1104 1.10182 10.9574 3.8805
71 1 -1.1104 3.92765 8.25532 1.02902
72 2 2.2208 2.39463 6.88035 2.45294
73 2 2.2208 2.46403 12.3363 2.40836
74 1 -1.1104 3.86527 8.48123 3.92229
75 2 2.2208 2.51402 9.61741 5.38017
76 1 -1.1104 3.89622 5.40172 0.978989
77 1 -1.1104 3.8595 11.0635 1.08728
79 1 -1.1104 3.89203 5.57998 3.71983
80 1 -1.1104 3.99508 11.1639 3.89438
234 1 -1.1104 1.21988 8.1486 6.6565
8037 2 2.2208 2.52294 -4.35882 2.27956
8636 2 2.2208 -0.227066 9.69059 2.33186
83 2 2.2208 -0.341477 12.3722 5.16854
136 2 2.2208 -0.216093 20.9055 2.47248
323 2 2.2208 8.19814 6.98657 13.5169
28 2 2.2208 -0.361057 9.58862 8.05878
239 1 -1.1104 3.96342 5.54663 6.5219
630 2 2.2208 5.41795 6.73452 -0.294079
8518 2 2.2208 13.6497 20.9649 5.2967
69 1 -1.1104 6.73214 5.40073 3.8479
64 1 -1.1104 6.78765 11.0427 0.940807
59 1 -1.1104 6.90232 8.29701 3.69464
70 1 -1.1104 6.73431 10.9849 3.84827
63 1 -1.1104 6.85445 5.29734 1.06146
57 1 -1.1104 6.66207 8.25712 1.02033
84 2 2.2208 10.9801 6.83885 5.2554
85 2 2.2208 10.9714 12.5526 5.18201
86 1 -1.1104 12.4895 8.07066 1.06696
87 1 -1.1104 12.3847 8.19434 3.70422
88 1 -1.1104 12.4002 5.29511 0.950108
89 1 -1.1104 12.3199 10.906 1.05346
91 2 2.2208 10.907 9.73815 2.40647
92 1 -1.1104 12.2004 5.36904 3.84033
93 1 -1.1104 12.5151 11.1103 3.76039
94 1 -1.1104 9.55823 8.24105 0.91881
95 2 2.2208 8.16464 6.72778 2.36068
96 2 2.2208 8.10722 12.4382 2.38537
97 1 -1.1104 9.70544 8.25334 3.75533
98 2 2.2208 8.20413 9.74218 5.20031
99 1 -1.1104 9.57543 5.48764 1.07111
100 1 -1.1104 9.58264 11.0004 1.01706
102 1 -1.1104 9.50835 5.51667 3.97183
103 1 -1.1104 9.6446 11.057 3.80151
265 1 -1.1104 12.518 8.37518 6.60562
237 1 -1.1104 6.78766 5.45838 6.5772
269 1 -1.1104 9.57742 5.462 6.76237
267 1 -1.1104 9.62358 8.18367 6.6631
203 2 2.2208 -0.212052 15.3513 8.10182
318 2 2.2208 11.0178 -1.617 13.496
312 2 2.2208 -0.168875 -1.62323 13.6109
106 2 2.2208 5.23751 18.196 5.18009
107 1 -1.1104 1.10053 13.8952 1.21363
109 1 -1.1104 1.0741 19.5087 1.19456
113 1 -1.1104 1.13517 13.6685 3.84804
114 1 -1.1104 1.18247 19.554 3.81147
116 1 -1.1104 1.17063 16.756 1.09565
119 2 2.2208 5.37421 15.2853 2.42564
120 2 2.2208 5.22479 21.0728 2.46733
121 1 -1.1104 1.20272 16.6738 3.85081
123 1 -1.1104 4.07188 13.9212 0.862266
125 1 -1.1104 3.7934 19.4541 0.989177
127 2 2.2208 2.52465 18.1037 2.52095
128 1 -1.1104 3.89332 13.8635 3.76174
129 1 -1.1104 3.76592 19.5804 3.75943
130 2 2.2208 2.38102 15.1904 5.27879
131 2 2.2208 2.50007 21.0321 5.32772
132 1 -1.1104 3.94582 16.7077 1.21736
134 1 -1.1104 3.83766 16.688 4.01733
108 1 -1.1104 1.06777 13.9229 6.62715
302 1 -1.1104 1.04531 19.5942 6.50664
601 2 2.2208 -0.291269 18.1902 -0.23991
133 1 -1.1104 3.83504 16.8131 6.82521
124 1 -1.1104 3.89465 13.829 6.64713
126 1 -1.1104 3.73233 19.5293 6.60349
139 1 -1.1104 6.5171 19.7384 3.8576
154 1 -1.1104 9.46132 13.8148 6.47854
140 1 -1.1104 6.82739 16.7548 0.98832
122 1 -1.1104 6.68411 16.8209 3.7584
110 1 -1.1104 6.77669 13.9068 1.18678
138 1 -1.1104 6.5332 19.4887 1.17343
115 1 -1.1104 6.75906 13.8607 3.89608
141 2 2.2208 10.9236 18.2686 5.32171
142 1 -1.1104 12.3238 13.8732 1.07641
144 1 -1.1104 12.2814 19.5841 1.03077
146 1 -1.1104 12.4093 13.9085 3.69033
147 1 -1.1104 12.3895 19.5405 3.79337
148 1 -1.1104 12.311 16.61 0.998771
150 2 2.2208 10.8456 15.262 2.41357
151 2 2.2208 10.904 20.9254 2.41009
152 1 -1.1104 12.2401 16.7917 3.89315
153 1 -1.1104 9.48117 13.6977 0.935535
155 1 -1.1104 9.50762 19.5987 0.954766
157 2 2.2208 8.08683 18.2125 2.53967
158 1 -1.1104 9.63263 13.9723 3.73457
159 1 -1.1104 9.47902 19.4133 3.97121
160 2 2.2208 8.16991 15.3496 5.15924
161 2 2.2208 7.98213 21.0043 5.27758
162 1 -1.1104 9.52643 16.8298 1.15099
164 1 -1.1104 9.61185 16.6566 3.83767
111 1 -1.1104 6.67167 13.9794 6.73559
156 1 -1.1104 9.3457 19.553 6.62782
118 1 -1.1104 6.76459 16.664 6.60798
173 1 -1.1104 3.89308 2.61408 6.62202
174 1 -1.1104 4.08654 -0.343538 6.56046
167 1 -1.1104 1.1132 2.6022 6.69032
8468 2 2.2208 -0.232194 3.9628 8.04035
201 2 2.2208 -0.248386 1.31377 10.8285
137 2 2.2208 -0.239604 18.1627 5.18276
175 2 2.2208 5.43955 1.18388 10.9267
176 1 -1.1104 1.21717 -3.0501 12.089
177 1 -1.1104 1.36941 2.63773 12.2861
180 1 -1.1104 1.11767 -3.03179 9.27703
181 1 -1.1104 1.16893 2.57541 9.50011
184 1 -1.1104 1.20548 -0.304029 12.1491
186 2 2.2208 5.47055 -1.69889 7.95439
188 1 -1.1104 1.23481 -0.215045 9.26693
190 1 -1.1104 3.89333 -2.90753 12.2224
191 1 -1.1104 4.09272 2.73047 12.2134
192 2 2.2208 2.63197 1.20467 8.04077
193 1 -1.1104 3.86195 -2.95348 9.28108
194 1 -1.1104 3.90591 2.77615 9.28882
195 2 2.2208 2.58832 -1.49163 10.7837
196 2 2.2208 2.60249 4.06635 10.8133
197 1 -1.1104 3.83132 -0.0107738 12.1985
198 1 -1.1104 4.08612 -0.0691114 9.37361
187 2 2.2208 5.34847 4.04226 8.03068
81 1 -1.1104 12.3977 16.7024 12.3889
327 2 2.2208 5.38034 20.9457 13.6439
27 1 -1.1104 12.4091 13.8172 12.2888
30 2 2.2208 8.14726 15.2744 10.7794
53 1 -1.1104 12.4543 19.5087 9.39756
104 2 2.2208 10.9484 20.9545 8.18689
210 1 -1.1104 9.59445 -0.238465 6.62326
208 1 -1.1104 9.59038 -3.05856 6.56739
231 2 2.2208 -0.263637 20.9104 8.05623
189 1 -1.1104 6.85063 -0.223244 9.43524
179 1 -1.1104 6.74636 2.63908 12.3203
183 1 -1.1104 6.82501 2.63977 9.44618
182 1 -1.1104 6.90358 -3.05616 9.45935
185 1 -1.1104 6.72806 -0.385825 12.3123
178 1 -1.1104 6.58771 -3.03128 12.3652
207 1 -1.1104 12.4489 -0.38294 6.57074
206 1 -1.1104 12.3548 2.48237 6.6929
211 2 2.2208 11.033 1.23731 10.7203
212 1 -1.1104 12.4073 -3.11608 12.3107
213 1 -1.1104 12.3676 2.58996 12.3199
214 1 -1.1104 12.4558 -2.98498 9.41664
215 1 -1.1104 12.4933 2.61159 9.49599
216 1 -1.1104 12.2654 -0.269931 12.0385
217 2 2.2208 10.9515 -1.61842 8.0348
218 2 2.2208 10.963 4.05582 8.05066
219 1 -1.1104 12.3239 -0.227851 9.27789
220 1 -1.1104 9.48553 -2.90049 12.0735
221 1 -1.1104 9.53062 2.71977 12.1497
222 2 2.2208 8.1292 1.18268 8.11218
223 1 -1.1104 9.66897 -3.09532 9.44327
224 1 -1.1104 9.6353 2.60098 9.33549
225 2 2.2208 8.12099 -1.5981 10.8281
226 2 2.2208 8.11058 4.13852 10.7352
227 1 -1.1104 9.42041 -0.0341696 12.1927
228 1 -1.1104 9.57206 -0.24272 9.37177
202 1 -1.1104 9.55887 16.7113 9.43441
8671 2 2.2208 -0.298342 6.84935 10.7211
78 1 -1.1104 3.95248 11.0085 6.66208
62 1 -1.1104 1.04673 11.2505 6.60937
236 1 -1.1104 1.18947 5.26526 6.68921
289 1 -1.1104 6.71395 16.7268 9.5508
238 1 -1.1104 4.06428 8.17288 6.69185
240 2 2.2208 5.32267 6.8804 10.8522
241 2 2.2208 5.47883 12.491 10.7818
242 1 -1.1104 1.0925 8.09286 12.1258
244 1 -1.1104 1.11142 8.2813 9.23832
246 1 -1.1104 1.13792 5.36766 12.3387
247 1 -1.1104 1.06287 10.8488 12.2362
250 2 2.2208 5.41898 9.64943 8.0553
251 1 -1.1104 1.23687 5.3138 9.42237
252 1 -1.1104 1.05233 11.1928 9.24225
255 1 -1.1104 3.87441 8.29922 12.1671
256 2 2.2208 2.59954 6.67977 8.05218
257 2 2.2208 2.54523 12.5178 8.11214
258 1 -1.1104 3.87386 8.10404 9.45853
259 2 2.2208 2.43086 9.59558 10.6835
260 1 -1.1104 3.96389 5.55706 12.202
261 1 -1.1104 3.95448 11.0336 12.1291
262 1 -1.1104 4.00278 5.39314 9.35419
263 1 -1.1104 4.09099 11.0603 9.421
29 2 2.2208 -0.29737 12.499 10.8616
243 1 -1.1104 6.65314 8.25593 12.1085
65 1 -1.1104 6.97047 11.0946 6.62006
235 1 -1.1104 6.95298 8.2406 6.62986
90 1 -1.1104 12.3794 11.2267 6.56822
266 1 -1.1104 12.4629 5.46914 6.66239
253 1 -1.1104 6.7225 5.50103 9.34385
254 1 -1.1104 6.88748 11.2141 9.36114
245 1 -1.1104 6.76635 8.47717 9.44724
249 1 -1.1104 6.86776 11.0427 12.305
248 1 -1.1104 6.82005 5.43785 12.1467
101 1 -1.1104 9.67246 11.1175 6.59171
264 1 -1.1104 9.58292 11.1532 9.30607
268 1 -1.1104 9.65929 5.44564 9.38475
270 1 -1.1104 9.69902 11.1667 12.2528
271 1 -1.1104 9.66341 5.40572 12.1268
272 2 2.2208 8.1791 9.78279 10.8445
273 1 -1.1104 9.49605 8.35071 9.41862
274 2 2.2208 8.24641 12.517 7.97451
275 2 2.2208 8.21114 6.94767 8.051
276 2 2.2208 11.0763 6.85847 10.7985
277 2 2.2208 11.0307 12.5103 10.8623
278 1 -1.1104 12.1675 8.3619 12.1024
279 1 -1.1104 12.3182 8.26367 9.34825
280 1 -1.1104 12.4965 5.47646 12.0839
281 1 -1.1104 12.4877 11.2831 12.2175
282 2 2.2208 10.974 9.74905 7.90898
283 1 -1.1104 12.4675 5.32513 9.30971
284 1 -1.1104 12.4093 11.0974 9.31213
285 1 -1.1104 9.56171 8.35079 12.2825
49 1 -1.1104 12.357 19.5407 12.3593
229 2 2.2208 8.07574 18.0738 8.14216
199 1 -1.1104 9.59947 19.3495 12.3418
296 1 -1.1104 6.91412 19.5244 12.1091
288 1 -1.1104 6.72198 19.4819 9.37025
297 1 -1.1104 6.7531 13.8115 12.4376
324 2 2.2208 11.0947 9.75402 13.5742
117 1 -1.1104 1.17096 16.7291 6.62895
232 2 2.2208 2.62816 15.292 10.8422
286 1 -1.1104 4.07251 19.5165 12.3381
287 1 -1.1104 4.03276 13.7527 12.2655
291 1 -1.1104 0.977369 19.6182 9.54817
292 1 -1.1104 1.17708 16.853 9.41608
293 2 2.2208 5.33842 20.9062 8.03127
294 1 -1.1104 1.20673 13.9232 9.48421
295 2 2.2208 5.34091 15.2791 7.97418
298 1 -1.1104 1.214 19.549 12.3396
299 1 -1.1104 1.08319 13.7106 12.1978
300 2 2.2208 5.34539 18.1281 10.8371
301 1 -1.1104 3.86709 19.424 9.48233
303 2 2.2208 2.47783 18.1505 7.99562
304 1 -1.1104 3.97707 16.7206 9.54333
305 1 -1.1104 4.01202 13.8848 9.41187
307 1 -1.1104 1.05627 16.5981 12.2864
308 1 -1.1104 4.0016 16.715 12.391
309 2 2.2208 2.4018 20.9294 10.9183
112 1 -1.1104 6.60504 19.5229 6.59879
82 2 2.2208 10.9849 15.4036 8.04147
230 1 -1.1104 9.57681 13.9127 9.39628
163 1 -1.1104 9.53639 16.7322 6.73326
26 2 2.2208 11.0051 18.1598 10.9016
233 1 -1.1104 9.61742 19.4406 9.43308
306 1 -1.1104 6.76493 16.5811 12.2021
165 1 -1.1104 9.54808 13.8838 12.288
149 1 -1.1104 12.3808 16.8379 6.70834
143 1 -1.1104 12.2023 14.0713 6.4503
145 1 -1.1104 12.1889 19.6623 6.57955
52 1 -1.1104 9.77845 16.6182 12.2549
105 1 -1.1104 12.3862 16.7099 9.52089
290 1 -1.1104 6.85102 13.9128 9.35205
50 1 -1.1104 12.4117 13.9533 9.53522
51 2 2.2208 8.19384 20.8481 10.8195
375 2 2.2208 8.16831 15.2445 -0.246318
409 2 2.2208 7.89513 20.9636 -0.349309
322 2 2.2208 2.63267 12.3605 13.5266
405 2 2.2208 10.9402 18.0783 -0.253308
319 2 2.2208 10.9969 3.97177 13.4887
8746 2 2.2208 -0.265376 1.28708 -0.333786
331 2 2.2208 8.29555 17.981 13.6458
321 2 2.2208 5.42649 9.60108 13.5814
372 2 2.2208 2.47079 15.2505 -0.31319
311 2 2.2208 -0.224761 15.2039 13.5807
315 2 2.2208 5.40879 4.08346 13.5665
320 2 2.2208 2.58179 6.85495 13.5606
376 2 2.2208 5.20493 18.1073 -0.274136
8840 2 2.2208 -0.160093 12.4471 -0.351092
378 2 2.2208 2.45702 20.8622 -0.231216
316 2 2.2208 -0.322693 9.61966 13.641
338 2 2.2208 5.42105 1.1815 16.4836
339 1 -1.1104 1.14586 -2.97358 17.8558
340 1 -1.1104 1.04461 2.54529 17.8831
343 1 -1.1104 1.15393 -3.14052 14.9737
345 1 -1.1104 1.27485 2.49355 15.0034
351 1 -1.1104 1.21202 -0.265653 17.7682
353 2 2.2208 5.4684 -1.54896 19.2677
354 2 2.2208 5.42169 4.03154 19.1369
355 1 -1.1104 1.22583 -0.173214 14.985
359 1 -1.1104 3.95496 -3.0602 17.8596
360 1 -1.1104 4.02315 2.53316 17.8999
361 2 2.2208 2.58322 1.1539 19.2695
362 1 -1.1104 4.07832 -3.20548 15.1967
364 1 -1.1104 4.06366 2.45726 15.0813
366 2 2.2208 2.55063 -1.73198 16.4351
367 2 2.2208 2.53383 3.86914 16.4
368 1 -1.1104 4.01936 -0.142309 17.9013
369 1 -1.1104 3.93246 -0.470374 15.1202
363 1 -1.1104 4.10985 -2.92847 20.5508
370 1 -1.1104 4.0362 -0.195806 20.631
8841 2 2.2208 -0.285018 3.87499 19.3459
374 2 2.2208 -0.21745 1.13977 16.4475
332 2 2.2208 5.41897 1.1789 27.7078
8870 2 2.2208 -0.0941425 -1.62614 19.2067
337 2 2.2208 8.17189 -1.59895 27.6089
9092 2 2.2208 -0.331092 6.81212 22.1183
598 2 2.2208 10.8695 20.9182 25.025
9064 2 2.2208 13.6939 9.77964 22.1744
371 2 2.2208 -0.335078 15.3575 24.9432
347 1 -1.1104 6.82035 -2.94138 15.0916
342 1 -1.1104 6.80656 2.52878 17.7623
8843 2 2.2208 13.6085 18.2545 24.9812
341 1 -1.1104 6.69086 -3.08113 17.8761
357 1 -1.1104 6.69957 -0.209703 15.0188
352 1 -1.1104 6.92005 -0.218489 17.8965
349 1 -1.1104 6.74722 2.70224 15.0186
381 2 2.2208 10.9276 1.2032 16.273
382 1 -1.1104 12.4042 -2.91406 17.8538
383 1 -1.1104 12.3065 2.60878 17.6344
384 1 -1.1104 12.3136 -2.89195 14.954
386 1 -1.1104 12.3624 2.46336 14.9387
388 1 -1.1104 12.491 -0.131579 17.647
389 2 2.2208 10.9689 -1.58763 19.2965
390 2 2.2208 11.0376 4.1552 19.1448
391 1 -1.1104 12.3186 -0.23451 14.7496
393 1 -1.1104 9.53906 -2.91463 17.7807
394 1 -1.1104 9.60821 2.63618 17.7656
395 2 2.2208 8.28348 1.26272 19.2533
396 1 -1.1104 9.54957 -2.97651 14.9941
398 1 -1.1104 9.57239 2.69301 15.0145
400 2 2.2208 8.18423 -1.54334 16.3807
401 2 2.2208 8.15772 4.05866 16.3646
402 1 -1.1104 9.76278 -0.0876257 18.0166
403 1 -1.1104 9.47217 -0.141348 15.0977
8053 2 2.2208 5.28313 -4.4017 27.6909
399 1 -1.1104 9.56648 2.6872 20.6785
8945 2 2.2208 13.6852 21.0184 16.655
569 1 -1.1104 12.271 19.6335 23.4471
414 2 2.2208 5.30865 6.95797 16.4673
415 2 2.2208 5.32512 12.446 16.4044
416 1 -1.1104 1.14389 8.4999 17.7509
418 1 -1.1104 1.13309 8.22032 14.9347
422 1 -1.1104 0.903885 5.3423 17.8996
423 1 -1.1104 1.10201 11.0313 17.8012
426 2 2.2208 5.30275 9.64788 19.2722
427 1 -1.1104 1.12102 5.30497 15.0628
429 1 -1.1104 0.998145 11.0967 14.9873
435 1 -1.1104 3.98293 8.28065 17.8109
436 2 2.2208 2.4465 6.83756 19.3216
437 2 2.2208 2.51511 12.4434 19.3247
438 1 -1.1104 3.97382 8.23886 15.0676
440 2 2.2208 2.48264 9.73299 16.4244
441 1 -1.1104 3.82583 5.43467 17.8569
442 1 -1.1104 3.88902 11.1865 17.8064
443 1 -1.1104 3.86886 5.38283 15.1487
445 1 -1.1104 3.87241 10.9072 14.9788
430 1 -1.1104 1.20558 10.975 20.5675
8989 2 2.2208 13.6496 1.25706 24.8448
655 2 2.2208 11.0817 6.85166 27.692
568 2 2.2208 -0.32156 9.49303 19.3582
425 1 -1.1104 6.68717 10.9739 17.8603
421 1 -1.1104 6.55932 8.38685 20.6936
446 1 -1.1104 3.98669 10.9977 20.6904
605 2 2.2208 8.04658 18.1238 24.8417
600 1 -1.1104 9.45534 16.6112 23.6895
604 1 -1.1104 9.44609 19.6203 23.3967
603 1 -1.1104 9.69527 13.8008 23.4842
420 1 -1.1104 6.75268 8.35284 15.0306
433 1 -1.1104 6.73892 11.055 15.0473
431 1 -1.1104 6.63859 5.57451 14.8821
424 1 -1.1104 6.74557 5.47663 17.6472
417 1 -1.1104 6.72431 8.38534 17.8331
450 2 2.2208 10.8953 6.83205 16.3938
451 2 2.2208 10.9119 12.4862 16.5878
452 1 -1.1104 12.5163 8.28898 17.8039
453 1 -1.1104 12.5198 8.15856 15.0423
455 1 -1.1104 12.3455 5.4917 17.6176
456 1 -1.1104 12.3919 11.0949 17.8612
457 2 2.2208 10.8273 9.61909 19.2744
458 1 -1.1104 12.3126 5.31399 14.9521
460 1 -1.1104 12.4145 11.0193 15.0347
462 1 -1.1104 9.68166 8.24374 17.7396
463 2 2.2208 8.12772 6.97481 19.041
464 2 2.2208 8.10762 12.5551 19.1807
465 1 -1.1104 9.63802 8.28498 15.0628
467 2 2.2208 8.23958 9.77455 16.3876
468 1 -1.1104 9.45076 5.5117 17.7548
469 1 -1.1104 9.51154 11.0288 17.8108
470 1 -1.1104 9.41157 5.5366 14.8739
472 1 -1.1104 9.6663 11.1843 15.1197
473 1 -1.1104 9.62858 11.0499 20.6952
571 1 -1.1104 6.61388 13.8629 26.4104
466 1 -1.1104 9.50392 8.22152 20.5708
599 2 2.2208 -0.382292 18.1859 22.1331
412 1 -1.1104 6.71121 16.674 23.382
477 2 2.2208 5.25877 18.146 16.5686
478 1 -1.1104 0.995727 13.8231 17.916
479 1 -1.1104 1.04654 19.4621 17.9254
482 1 -1.1104 1.12488 13.8962 15.0801
484 1 -1.1104 1.09802 19.5359 15.0599
490 1 -1.1104 1.14965 16.7146 17.7302
492 2 2.2208 5.27093 15.188 19.2376
493 2 2.2208 5.18524 20.9929 19.1805
494 1 -1.1104 1.08845 16.6244 15.1291
498 1 -1.1104 3.90939 13.8456 17.7791
499 1 -1.1104 3.81559 19.5621 17.9209
500 2 2.2208 2.45466 18.1328 19.3082
501 1 -1.1104 3.99741 13.8217 14.9304
503 1 -1.1104 3.77414 19.5233 15.1202
505 2 2.2208 2.55224 15.3218 16.5141
506 2 2.2208 2.40529 20.9918 16.4811
507 1 -1.1104 3.87121 16.6917 17.9379
508 1 -1.1104 3.99877 16.7615 15.311
488 1 -1.1104 6.7533 19.6018 15.1554
496 1 -1.1104 6.71191 16.6971 14.9387
480 1 -1.1104 6.75498 13.8798 17.7952
377 2 2.2208 -0.263404 15.2911 19.2502
483 1 -1.1104 1.12917 13.9888 20.6999
509 1 -1.1104 3.88813 16.5901 20.7313
313 2 2.2208 5.37453 -1.74145 13.7886
510 1 -1.1104 6.63425 13.7999 23.5778
491 1 -1.1104 6.62591 16.5459 17.7844
486 1 -1.1104 6.6655 13.7977 15.0504
481 1 -1.1104 6.67985 19.4493 18.0961
513 2 2.2208 10.9514 18.2259 16.4863
514 1 -1.1104 12.4539 13.8976 18.0277
515 1 -1.1104 12.3279 19.6527 18.0246
516 1 -1.1104 12.2396 13.9971 15.3306
518 1 -1.1104 12.2485 19.5393 15.1871
520 1 -1.1104 12.345 16.7275 17.8975
521 2 2.2208 10.9764 15.3063 19.3078
522 2 2.2208 10.8498 20.9851 19.4066
523 1 -1.1104 12.4489 16.8031 15.1677
525 1 -1.1104 9.63999 13.7657 17.8988
526 1 -1.1104 9.46058 19.6418 17.9734
527 2 2.2208 8.15704 18.083 19.3222
528 1 -1.1104 9.60534 13.9717 15.078
530 1 -1.1104 9.47303 19.5118 15.14
532 2 2.2208 8.12351 15.3167 16.3615
533 2 2.2208 8.11201 21.0285 16.5787
534 1 -1.1104 9.58055 16.6714 17.8235
535 1 -1.1104 9.61577 16.7221 15.0281
497 1 -1.1104 6.7718 16.6006 20.6336
517 1 -1.1104 12.3628 13.8538 20.8573
519 1 -1.1104 12.4145 19.5501 20.7267
531 1 -1.1104 9.53425 19.5116 20.6125
365 1 -1.1104 3.88754 2.53236 20.6721
344 1 -1.1104 1.27632 -3.00932 20.6958
356 1 -1.1104 1.27971 -0.193935 20.6633
334 2 2.2208 2.54306 4.00071 27.6839
570 2 2.2208 -0.316742 12.4806 16.4793
657 2 2.2208 10.9788 12.4144 27.713
346 1 -1.1104 1.04739 2.54007 20.7305
541 2 2.2208 5.42475 1.16782 22.0367
542 1 -1.1104 1.16762 -2.96546 23.5523
543 1 -1.1104 1.07949 2.62128 23.523
546 1 -1.1104 1.14794 -3.06986 26.3359
547 1 -1.1104 1.19663 2.53285 26.2535
550 1 -1.1104 1.06048 -0.0757937 23.5181
552 2 2.2208 5.39753 -1.59464 24.9203
553 2 2.2208 5.43595 3.95803 24.9456
554 1 -1.1104 1.17928 -0.200094 26.4024
556 1 -1.1104 4.04631 -3.04319 23.5025
557 1 -1.1104 4.03736 2.53854 23.4565
558 2 2.2208 2.62229 1.13078 24.8652
559 1 -1.1104 3.98401 -2.96788 26.2872
560 1 -1.1104 3.90032 2.7196 26.2613
561 2 2.2208 2.59343 -1.68649 22.0631
562 2 2.2208 2.6009 3.9583 22.1315
563 1 -1.1104 4.05219 -0.323483 23.5844
564 1 -1.1104 4.00063 -0.121166 26.1806
8800 2 2.2208 -0.263908 -1.53863 24.862
597 2 2.2208 8.14706 3.93119 27.6504
576 2 2.2208 10.9795 15.2916 25.0054
631 2 2.2208 2.5991 9.59867 27.5973
540 1 -1.1104 12.5273 13.981 23.6643
8054 2 2.2208 -0.214368 -4.3416 27.4868
350 1 -1.1104 6.80739 2.86075 20.4658
358 1 -1.1104 6.9102 -0.117969 20.6973
348 1 -1.1104 6.89653 -2.89834 20.6795
392 1 -1.1104 12.2358 -0.210534 20.5324
385 1 -1.1104 12.3601 -3.13128 20.7982
404 1 -1.1104 9.59095 -0.350709 20.7783
536 1 -1.1104 9.66734 16.693 20.8437
574 1 -1.1104 12.2828 19.7267 26.3252
544 1 -1.1104 6.82242 -3.0901 23.5674
387 1 -1.1104 12.2688 2.6793 20.6336
406 2 2.2208 -0.275818 20.9349 19.3143
548 1 -1.1104 6.73926 -3.07539 26.3032
551 1 -1.1104 6.78758 -0.236478 23.4003
555 1 -1.1104 6.7453 -0.196468 26.2908
545 1 -1.1104 6.87759 2.60383 23.2713
397 1 -1.1104 9.60661 -3.07959 20.7013
549 1 -1.1104 6.63531 2.53746 26.294
577 2 2.2208 10.9552 1.3809 22.0195
578 1 -1.1104 12.3439 -2.957 23.5552
579 1 -1.1104 12.3856 2.74503 23.4932
580 1 -1.1104 12.2359 -3.08852 26.3027
581 1 -1.1104 12.2874 2.74192 26.3528
582 1 -1.1104 12.3453 0.0853621 23.3312
583 2 2.2208 10.8854 -1.5929 25.0177
584 2 2.2208 10.9897 4.04685 24.7663
585 1 -1.1104 12.3682 -0.0666758 26.2782
586 1 -1.1104 9.52165 -3.12761 23.5509
587 1 -1.1104 9.62054 2.63552 23.4189
588 2 2.2208 8.18896 1.18043 24.8331
589 1 -1.1104 9.53746 -3.07755 26.2267
590 1 -1.1104 9.57833 2.628 26.175
591 2 2.2208 8.15197 -1.68144 22.1098
592 2 2.2208 8.22382 4.10671 21.8308
593 1 -1.1104 9.54778 -0.292053 23.5646
594 1 -1.1104 9.6216 -0.238111 26.3401
575 1 -1.1104 12.1357 16.7583 23.5095
634 2 2.2208 -0.33948 9.61059 24.8916
419 1 -1.1104 1.03771 8.17976 20.8561
428 1 -1.1104 1.18964 5.32673 20.7071
439 1 -1.1104 3.89203 8.16486 20.6309
432 1 -1.1104 6.74083 5.53132 20.4335
9017 2 2.2208 -0.334624 4.06358 24.8149
566 1 -1.1104 6.74944 16.7847 26.2527
444 1 -1.1104 3.98755 5.42214 20.6325
606 2 2.2208 5.3697 6.89101 22.0025
607 2 2.2208 5.42049 12.4063 22.1238
608 1 -1.1104 1.20989 8.35689 23.5312
610 1 -1.1104 1.15961 8.15914 26.2261
612 1 -1.1104 1.19161 5.48348 23.5389
613 1 -1.1104 1.02548 11.2209 23.318
616 2 2.2208 5.47502 9.56574 24.8459
617 1 -1.1104 1.15061 5.3621 26.2179
618 1 -1.1104 1.13033 11.0301 26.2215
621 1 -1.1104 3.95141 8.15375 23.3846
622 2 2.2208 2.51719 6.87847 25.0253
623 2 2.2208 2.55088 12.5189 24.867
624 1 -1.1104 4.0635 8.04114 26.3371
625 2 2.2208 2.47856 9.69235 22.142
626 1 -1.1104 4.09831 5.33587 23.5483
627 1 -1.1104 4.01679 11.0224 23.6694
628 1 -1.1104 4.05827 5.45943 26.3723
629 1 -1.1104 3.96101 10.9958 26.2578
529 1 -1.1104 9.42195 13.7738 20.8142
619 1 -1.1104 6.88829 5.3571 26.2637
489 1 -1.1104 6.73515 19.4982 20.7391
459 1 -1.1104 12.2585 5.51888 20.5512
461 1 -1.1104 12.4455 11.093 20.715
434 1 -1.1104 6.88586 11.2492 20.6351
620 1 -1.1104 6.81568 11.0823 26.2232
611 1 -1.1104 6.81439 8.28288 26.2704
615 1 -1.1104 6.68143 10.7878 23.3709
614 1 -1.1104 6.88559 5.3827 23.3158
609 1 -1.1104 6.83516 8.05865 23.4261
471 1 -1.1104 9.52678 5.41758 20.4761
454 1 -1.1104 12.2926 8.30444 20.7044
637 1 -1.1104 9.64053 10.8275 26.2888
638 1 -1.1104 9.66079 5.40318 26.3332
639 1 -1.1104 9.38754 11.0552 23.5028
640 1 -1.1104 9.6197 5.33606 23.3128
641 2 2.2208 8.17388 9.68485 22.0191
642 1 -1.1104 9.60085 8.12417 26.2484
643 2 2.2208 8.111 12.4586 24.9615
644 2 2.2208 8.1301 6.77572 24.752
645 2 2.2208 10.9255 6.86698 21.9728
646 2 2.2208 10.9956 12.4703 22.1337
647 1 -1.1104 12.4415 8.31402 23.4563
648 1 -1.1104 12.4239 8.35763 26.285
649 1 -1.1104 12.4541 5.48124 23.4464
650 1 -1.1104 12.2889 11.1676 23.552
651 2 2.2208 11.0474 9.62359 24.8757
652 1 -1.1104 12.3986 5.5827 26.0687
653 1 -1.1104 12.4342 11.0009 26.2428
654 1 -1.1104 9.6063 8.27976 23.4723
659 2 2.2208 8.23187 15.2603 22.2699
573 1 -1.1104 12.247 14.035 26.4193
633 1 -1.1104 6.57499 19.5696 26.2967
485 1 -1.1104 1.1397 19.4564 20.7458
504 1 -1.1104 3.88851 19.5483 20.6531
502 1 -1.1104 4.0028 13.8066 20.5218
656 2 2.2208 8.17643 9.54023 27.6186
495 1 -1.1104 1.07866 16.7886 20.7051
567 1 -1.1104 3.93222 14.0317 23.3673
565 1 -1.1104 1.00644 19.4937 26.2802
539 1 -1.1104 1.13511 16.752 26.319
538 1 -1.1104 1.19617 13.844 26.4201
595 1 -1.1104 3.84767 19.5189 23.6142
512 2 2.2208 5.31451 20.8359 24.9675
379 2 2.2208 2.44379 15.3834 22.1465
380 2 2.2208 2.41575 20.9411 22.2687
407 1 -1.1104 3.94562 16.7043 23.4465
411 1 -1.1104 1.09449 16.9686 23.5195
413 1 -1.1104 3.96616 13.8596 26.2181
447 1 -1.1104 4.06901 16.6544 26.3209
448 2 2.2208 2.39424 18.1808 24.9081
449 1 -1.1104 3.63041 19.4792 26.3016
474 2 2.2208 5.34302 18.0206 21.9946
475 1 -1.1104 1.10211 13.9692 23.4742
476 1 -1.1104 1.02435 19.6074 23.5426
511 2 2.2208 5.29049 15.2868 24.9114
658 1 -1.1104 9.40651 19.4968 26.2583
524 1 -1.1104 12.4064 16.7486 20.7868
537 1 -1.1104 6.68742 19.5193 23.5581
487 1 -1.1104 6.76796 13.9103 20.5993
596 2 2.2208 8.13084 20.9785 22.077
572 1 -1.1104 9.53238 16.7622 26.2902
602 1 -1.1104 12.3486 16.7779 26.3364
636 1 -1.1104 9.23101 13.8314 26.4003
410 2 2.2208 10.9344 18.1258 22.1928
333 2 2.2208 2.5805 -1.539 27.6288
336 2 2.2208 11.0478 1.19698 27.7061
373 2 2.2208 -0.26808 18.1806 16.5103
326 2 2.2208 2.55731 18.1497 13.804
335 2 2.2208 -0.0371153 3.95129 13.7111
8745 2 2.2208 13.6777 18.125 13.7621
329 2 2.2208 10.9204 20.9651 13.8344
317 2 2.2208 8.20621 1.25115 13.7057
330 2 2.2208 11.0464 15.3049 13.792
314 2 2.2208 2.60802 1.2203 13.7271
325 2 2.2208 8.18828 12.594 13.7483
632 2 2.2208 5.40543 12.3958 27.6097
328 2 2.2208 5.38021 15.2041 13.7656
660 2 2.2208 5.22137 23.8024 5.27923
661 2 2.2208 5.18235 29.5293 5.30848
662 1 -1.1104 1.00627 25.3364 1.15238
663 1 -1.1104 1.02128 25.294 4.01813
664 1 -1.1104 1.13555 22.4473 1.05703
665 1 -1.1104 0.953065 28.2179 1.1125
666 2 2.2208 5.11753 26.6919 2.43086
667 1 -1.1104 1.00564 22.5046 3.98104
668 1 -1.1104 1.05823 28.1332 3.8966
669 1 -1.1104 3.64313 25.2613 1.0443
670 2 2.2208 2.40084 24.0104 2.6262
671 2 2.2208 2.38853 29.4222 2.47315
672 1 -1.1104 3.84082 25.2287 3.79143
673 2 2.2208 2.54468 26.7416 5.43238
674 1 -1.1104 3.86448 22.4193 1.15369
675 1 -1.1104 3.80419 28.1593 0.973319
676 1 -1.1104 3.77111 22.4713 3.95837
677 1 -1.1104 3.80689 28.0792 3.85925
9327 2 2.2208 13.6157 38.0589 10.7488
979 2 2.2208 10.8029 46.1858 -0.373406
686 1 -1.1104 6.72739 28.1044 3.95329
9382 2 2.2208 13.5866 40.7946 8.09575
803 1 -1.1104 1.12284 22.3615 6.7005
804 1 -1.1104 1.1001 28.1424 6.68148
805 1 -1.1104 6.69642 22.4949 6.57392
9268 2 2.2208 13.6624 29.4297 8.12864
681 1 -1.1104 6.59113 25.2577 1.13907
780 2 2.2208 -0.29926 40.7977 5.23538
685 1 -1.1104 6.66303 22.5126 3.76379
683 1 -1.1104 6.49626 22.3817 1.04966
682 1 -1.1104 6.57781 25.1648 3.90495
684 1 -1.1104 6.5694 28.0604 1.08565
687 2 2.2208 10.8062 23.8075 5.32255
688 2 2.2208 10.9166 29.5168 5.15739
689 1 -1.1104 12.2183 25.1592 1.12524
690 1 -1.1104 12.2744 25.2181 3.88235
691 1 -1.1104 12.3022 22.3756 1.16328
692 1 -1.1104 12.2048 28.1767 0.944014
693 2 2.2208 10.8499 26.7042 2.40328
694 1 -1.1104 12.2849 22.4164 3.91106
695 1 -1.1104 12.2752 28.0024 3.75502
696 1 -1.1104 9.57925 25.2738 0.962253
697 2 2.2208 7.99427 23.814 2.46227
698 2 2.2208 8.0656 29.3759 2.48449
699 1 -1.1104 9.45503 25.3312 3.83844
700 2 2.2208 7.97682 26.7429 5.36182
701 1 -1.1104 9.33115 22.362 1.10963
702 1 -1.1104 9.38609 28.0055 1.05423
703 1 -1.1104 9.534 22.3509 3.88641
704 1 -1.1104 9.49653 28.2529 3.94268
993 2 2.2208 7.97863 43.5634 -0.291394
837 1 -1.1104 9.33649 25.2523 6.85065
839 1 -1.1104 9.46211 28.2181 6.74386
708 2 2.2208 5.13411 35.0845 5.23344
709 1 -1.1104 1.20433 30.9782 1.03906
710 1 -1.1104 0.901598 36.6539 0.999937
712 1 -1.1104 1.11677 30.9209 3.97337
713 1 -1.1104 0.881104 36.4001 3.83701
715 1 -1.1104 0.890937 33.9087 1.25587
716 2 2.2208 5.2665 32.2824 2.47371
717 2 2.2208 5.17452 37.9315 2.58241
718 1 -1.1104 0.981089 33.6679 3.78138
720 1 -1.1104 3.85863 31.014 1.06393
721 1 -1.1104 3.85041 36.4616 1.15839
722 2 2.2208 2.5304 35.2006 2.43099
723 1 -1.1104 3.90729 31.0021 3.9311
724 1 -1.1104 3.71302 36.7521 4.01588
725 2 2.2208 2.34074 32.2999 5.28376
726 2 2.2208 2.39141 37.9415 5.35596
727 1 -1.1104 3.79403 33.6937 1.07275
728 1 -1.1104 3.85787 33.7281 3.84782
733 1 -1.1104 6.70417 30.8102 3.7308
714 1 -1.1104 6.56019 36.4401 3.82043
711 1 -1.1104 6.70613 36.4726 1.02719
732 1 -1.1104 6.60173 30.8652 0.994775
734 1 -1.1104 6.57523 33.7327 1.08564
705 2 2.2208 13.6503 43.6614 10.9007
1212 2 2.2208 2.41094 26.7216 -0.33231
9267 2 2.2208 13.6659 26.6312 11.027
858 1 -1.1104 0.905969 30.8376 6.69139
9170 2 2.2208 13.6283 37.9701 5.21552
719 1 -1.1104 6.74649 33.5906 3.87483
744 1 -1.1104 9.38955 30.7518 1.15903
735 2 2.2208 10.8103 35.2433 5.26329
736 1 -1.1104 12.1618 30.877 0.904123
737 1 -1.1104 12.1095 36.4982 1.12947
738 1 -1.1104 12.3573 30.7549 3.75391
739 1 -1.1104 12.2555 36.4765 3.86384
740 1 -1.1104 12.0785 33.7233 0.967906
741 2 2.2208 10.8084 32.2623 2.43027
742 2 2.2208 10.84 37.9495 2.43153
743 1 -1.1104 12.3527 33.6172 3.79702
745 1 -1.1104 9.31729 36.5868 1.05061
746 2 2.2208 8.14546 35.0208 2.48278
747 1 -1.1104 9.39549 30.9278 3.91564
748 1 -1.1104 9.3862 36.5975 3.84608
749 2 2.2208 7.87742 32.2127 5.25907
750 2 2.2208 7.99603 38.0252 5.3255
751 1 -1.1104 9.42113 33.7277 1.04623
752 1 -1.1104 9.54297 33.7063 3.86086
897 1 -1.1104 9.33267 33.9114 6.78054
892 1 -1.1104 12.1484 30.9404 6.69296
893 1 -1.1104 12.1825 36.6004 6.63907
964 2 2.2208 -0.308247 29.4846 10.8852
997 2 2.2208 2.26278 37.9529 -0.309816
1213 2 2.2208 5.26205 29.528 -0.37708
891 2 2.2208 -0.328433 37.8683 8.23632
9426 2 2.2208 -0.295539 32.2608 2.54385
765 1 -1.1104 1.06194 39.3119 3.95243
760 1 -1.1104 0.911253 39.4175 1.1376