ITEM: TIMESTEP
20000
ITEM: NUMBER OF ATOMS
17730
ITEM: BOX BOUNDS pp pp pp
-3.6568709136587946e-01 2.7705687091366134e+01
-4.4720368065298697e+00 3.3255203680653023e+02
-3.5784926491254176e-01 2.7697849264912453e+01
ITEM: ATOMS id type q x y z
1 2 2.2208 5.30309 1.1993 5.1575
2 1 -1.1104 1.06757 -3.03921 0.668222
3 1 -1.1104 1.07421 2.49027 0.889887
6 1 -1.1104 0.978735 -3.10552 3.77431
7 1 -1.1104 1.08458 2.50031 3.7075
10 1 -1.1104 1.05605 -0.301729 0.937795
12 2 2.2208 5.23871 -1.64388 2.31563
13 2 2.2208 5.23609 3.91175 2.29623
14 1 -1.1104 1.09102 -0.148644 3.77858
16 1 -1.1104 3.80226 -2.9399 0.969867
17 1 -1.1104 3.79845 2.72194 0.82607
18 2 2.2208 2.50304 1.25709 2.33798
19 1 -1.1104 3.78746 -3.12544 3.69964
20 1 -1.1104 3.91511 2.62477 3.63587
21 2 2.2208 2.50994 -1.65351 5.18377
22 2 2.2208 2.48465 3.9909 5.04286
23 1 -1.1104 4.07488 -0.0426435 1.08946
24 1 -1.1104 3.96789 -0.17112 3.8247
172 1 -1.1104 3.84151 -3.00089 6.52631
167 1 -1.1104 1.10686 2.53813 6.52395
174 1 -1.1104 3.93735 -0.355395 6.55292
173 1 -1.1104 3.81662 2.44132 6.49595
9 1 -1.1104 6.65344 2.50077 3.82646
15 1 -1.1104 6.74114 -0.274177 3.70544
4 1 -1.1104 6.71496 -2.9696 0.76854
8 1 -1.1104 6.66187 -3.1492 3.67337
168 1 -1.1104 6.72771 -3.1284 6.39621
171 1 -1.1104 6.73206 -0.335635 6.64783
5 1 -1.1104 6.7141 2.68308 0.952795
11 1 -1.1104 6.61949 -0.15177 0.955102
136 2 2.2208 -0.387478 20.6475 2.33164
170 1 -1.1104 1.02102 -0.345128 6.59765
204 2 2.2208 -0.324764 17.9915 10.766
8741 2 2.2208 -0.371182 3.9641 2.376
29 2 2.2208 -0.337661 12.274 10.7665
169 1 -1.1104 6.63835 2.56694 6.61428
31 2 2.2208 10.8529 0.992998 5.05467
32 1 -1.1104 12.5541 -3.15131 0.99761
33 1 -1.1104 12.1409 2.5333 0.858995
34 1 -1.1104 12.1954 -3.07442 3.70722
35 1 -1.1104 12.266 2.63058 3.5744
36 1 -1.1104 12.2601 -0.352837 0.780084
37 2 2.2208 10.9308 -1.76885 2.17863
38 2 2.2208 10.8531 3.99307 2.3285
39 1 -1.1104 12.359 -0.200389 3.64438
40 1 -1.1104 9.57317 -3.05421 0.803964
41 1 -1.1104 9.49986 2.61013 0.890232
42 2 2.2208 8.16997 1.22741 2.29078
43 1 -1.1104 9.47964 -3.19184 3.65993
44 1 -1.1104 9.48867 2.50214 3.78603
45 2 2.2208 8.02476 -1.69038 5.05545
46 2 2.2208 8.08123 3.80695 5.19492
47 1 -1.1104 9.51037 -0.323302 0.923601
48 1 -1.1104 9.53767 -0.310254 3.6198
207 1 -1.1104 12.3238 -0.215047 6.49273
208 1 -1.1104 9.44349 -3.10277 6.45607
206 1 -1.1104 12.2379 2.42376 6.58157
205 1 -1.1104 12.2854 -3.01291 6.65472
210 1 -1.1104 9.50261 -0.409303 6.49058
8470 2 2.2208 13.6775 9.70015 5.24467
209 1 -1.1104 9.41438 2.36811 6.56545
318 2 2.2208 10.8693 -1.72926 13.558
8037 2 2.2208 2.43932 -4.4023 2.45679
8055 2 2.2208 8.00745 -4.51851 13.4567
54 2 2.2208 5.27914 6.61565 5.32808
55 2 2.2208 5.34198 12.2141 5.13674
56 1 -1.1104 1.0243 8.09322 0.921512
58 1 -1.1104 0.95926 8.04721 3.67588
60 1 -1.1104 1.13004 5.29155 1.02346
61 1 -1.1104 1.00761 11.0382 0.899708
66 2 2.2208 5.40513 9.59259 2.40723
67 1 -1.1104 0.957843 5.25135 3.83557
68 1 -1.1104 1.0875 10.8681 3.71838
71 1 -1.1104 3.77519 8.17322 0.927088
72 2 2.2208 2.50077 6.82679 2.35007
73 2 2.2208 2.44716 12.3041 2.37585
74 1 -1.1104 3.91782 8.1934 3.75307
75 2 2.2208 2.5683 9.50732 5.16499
76 1 -1.1104 3.73599 5.49591 0.899802
77 1 -1.1104 3.92296 10.8706 0.845259
79 1 -1.1104 3.79856 5.35805 3.71899
80 1 -1.1104 4.00203 11.0005 3.72471
234 1 -1.1104 1.11497 8.19525 6.53236
63 1 -1.1104 6.59202 5.4024 0.769224
237 1 -1.1104 6.61514 5.31055 6.5422
62 1 -1.1104 1.03053 10.9795 6.51755
64 1 -1.1104 6.80184 10.9277 0.925846
236 1 -1.1104 1.16324 5.33182 6.43281
230 1 -1.1104 9.41017 13.7221 9.38331
315 2 2.2208 5.22216 3.94467 13.5334
52 1 -1.1104 9.43201 16.6225 12.1
69 1 -1.1104 6.5525 5.23039 3.63522
70 1 -1.1104 6.71158 10.9338 3.81757
59 1 -1.1104 6.80352 8.12902 3.99936
57 1 -1.1104 6.84259 8.29591 1.0784
84 2 2.2208 10.9349 6.66914 5.11381
85 2 2.2208 10.8145 12.455 5.20523
86 1 -1.1104 12.2869 8.24784 1.03591
87 1 -1.1104 12.1843 8.25241 3.88139
88 1 -1.1104 12.4297 5.35728 1.09361
89 1 -1.1104 12.4695 10.8944 1.03963
91 2 2.2208 10.9476 9.66076 2.42254
92 1 -1.1104 12.1931 5.39973 3.78731
93 1 -1.1104 12.3816 11.0415 3.99938
94 1 -1.1104 9.477 8.17312 0.913322
95 2 2.2208 8.08721 6.71909 2.33218
96 2 2.2208 8.09262 12.4363 2.32613
97 1 -1.1104 9.47358 8.18707 3.71479
98 2 2.2208 8.27108 9.63191 5.13459
99 1 -1.1104 9.52693 5.33012 0.872301
100 1 -1.1104 9.65138 11.0444 1.02189
102 1 -1.1104 9.39383 5.34322 3.74565
103 1 -1.1104 9.59696 11.115 3.73104
269 1 -1.1104 9.57989 5.22688 6.48517
90 1 -1.1104 12.3135 11.1313 6.65358
101 1 -1.1104 9.49195 10.9683 6.57802
267 1 -1.1104 9.59669 8.05153 6.56384
266 1 -1.1104 12.357 5.25673 6.55597
165 1 -1.1104 9.5969 13.7071 12.1226
106 2 2.2208 5.29767 17.8419 5.22837
107 1 -1.1104 1.13756 13.8043 1.07729
109 1 -1.1104 0.998496 19.2474 0.940108
113 1 -1.1104 0.969996 13.6978 3.79403
114 1 -1.1104 0.987907 19.136 3.85407
116 1 -1.1104 1.05182 16.46 1.22097
119 2 2.2208 5.22919 15.1575 2.37931
120 2 2.2208 5.20827 20.6878 2.5698
121 1 -1.1104 0.996821 16.3865 3.91039
123 1 -1.1104 3.94479 13.6786 1.10742
125 1 -1.1104 3.81136 19.2088 1.03298
127 2 2.2208 2.3977 17.9089 2.4967
128 1 -1.1104 3.88114 13.7231 3.92987
129 1 -1.1104 3.9225 19.314 4.01313
130 2 2.2208 2.40926 14.9709 5.20578
131 2 2.2208 2.47824 20.7003 5.21632
132 1 -1.1104 3.90314 16.4858 0.866513
134 1 -1.1104 3.79191 16.4543 3.72654
138 1 -1.1104 6.5408 19.4871 1.01025
140 1 -1.1104 6.65832 16.6105 0.949666
302 1 -1.1104 1.10978 19.132 6.64038
108 1 -1.1104 0.964336 13.6833 6.61455
112 1 -1.1104 6.62287 19.3233 6.61022
139 1 -1.1104 6.7555 19.3783 3.80146
133 1 -1.1104 3.7303 16.4968 6.64603
126 1 -1.1104 3.81914 19.2796 6.66228
117 1 -1.1104 1.00047 16.5455 6.81589
202 1 -1.1104 9.34728 16.5553 9.4105
326 2 2.2208 2.31798 17.9586 13.6417
122 1 -1.1104 6.56303 16.4768 3.73169
115 1 -1.1104 6.75823 13.5815 3.82621
110 1 -1.1104 6.62307 13.9132 0.98182
149 1 -1.1104 12.1975 16.5711 6.68617
141 2 2.2208 10.9198 17.8636 5.08494
142 1 -1.1104 12.3643 13.7199 0.950699
144 1 -1.1104 12.3146 19.2249 0.974816
146 1 -1.1104 12.2745 13.7355 3.82306
147 1 -1.1104 12.3493 19.2219 3.70536
148 1 -1.1104 12.2918 16.4305 0.909242
150 2 2.2208 11.0049 15.1787 2.40037
151 2 2.2208 10.8844 20.6513 2.39198
152 1 -1.1104 12.3321 16.3716 3.92138
153 1 -1.1104 9.4311 13.748 0.888088
155 1 -1.1104 9.30761 19.3955 1.07888
157 2 2.2208 7.94844 17.9752 2.3598
158 1 -1.1104 9.4893 13.6894 3.70739
159 1 -1.1104 9.39824 19.246 3.771
160 2 2.2208 8.01193 15.1649 5.28287
161 2 2.2208 8.0028 20.7237 5.15497
162 1 -1.1104 9.57632 16.688 0.886094
164 1 -1.1104 9.47454 16.471 3.74865
154 1 -1.1104 9.30232 13.7337 6.6275
156 1 -1.1104 9.50988 19.4044 6.45348
143 1 -1.1104 12.4528 13.919 6.72572
118 1 -1.1104 6.62863 16.4883 6.65875
163 1 -1.1104 9.37932 16.5962 6.59347
145 1 -1.1104 12.2785 19.3339 6.60472
53 1 -1.1104 12.3644 19.3611 9.41261
317 2 2.2208 8.04298 1.04636 13.547
166 1 -1.1104 1.10059 -2.96258 6.48073
323 2 2.2208 8.01022 6.6885 13.6202
290 1 -1.1104 6.68045 13.8389 9.28099
175 2 2.2208 5.28676 1.11968 10.8151
176 1 -1.1104 1.1209 -2.87601 12.1858
177 1 -1.1104 1.08827 2.52777 12.1905
180 1 -1.1104 1.06069 -2.97129 9.19576
181 1 -1.1104 0.805893 2.63212 9.27105
184 1 -1.1104 0.968477 -0.267278 12.1925
186 2 2.2208 5.26859 -1.76817 7.82828
188 1 -1.1104 0.939734 -0.188331 9.43396
190 1 -1.1104 3.7031 -2.94841 12.0581
191 1 -1.1104 3.819 2.56411 11.9426
192 2 2.2208 2.45316 1.09865 7.93208
193 1 -1.1104 3.96827 -3.21143 9.29639
194 1 -1.1104 3.81195 2.50827 9.23715
195 2 2.2208 2.45174 -1.59417 10.7365
196 2 2.2208 2.4706 3.89522 10.5938
197 1 -1.1104 3.79245 -0.0906566 12.1445
198 1 -1.1104 3.85958 -0.224215 9.40717
187 2 2.2208 5.21478 3.854 8.01082
179 1 -1.1104 6.67176 2.44896 12.1138
327 2 2.2208 5.19176 20.6716 13.7175
178 1 -1.1104 6.61939 -3.11302 11.9116
313 2 2.2208 5.24855 -1.72697 13.4995
288 1 -1.1104 6.6532 19.1719 9.42212
30 2 2.2208 8.1714 15.1057 10.7362
82 2 2.2208 10.9382 15.142 7.99879
27 1 -1.1104 12.2325 13.7755 12.1522
8042 2 2.2208 2.46287 -4.46236 7.91594
26 2 2.2208 10.8832 18.0517 10.7807
297 1 -1.1104 6.67542 13.7868 12.1125
330 2 2.2208 10.919 15.0831 13.5065
233 1 -1.1104 9.36148 19.4541 9.41639
182 1 -1.1104 6.59605 -3.15721 9.161
183 1 -1.1104 6.62793 2.59643 9.37088
189 1 -1.1104 6.68968 -0.25974 9.38909
185 1 -1.1104 6.79641 -0.278191 12.2021
211 2 2.2208 10.8594 1.0454 10.8878
212 1 -1.1104 12.3276 -2.95535 12.2454
213 1 -1.1104 12.272 2.56538 12.2662
214 1 -1.1104 12.3442 -3.25931 9.4624
215 1 -1.1104 12.2369 2.44555 9.50551
216 1 -1.1104 12.1849 -0.242776 12.2061
217 2 2.2208 10.8791 -1.72206 7.87918
218 2 2.2208 11.0143 3.93975 7.95008
219 1 -1.1104 12.2767 -0.401074 9.37198
220 1 -1.1104 9.40018 -3.19885 12.2802
221 1 -1.1104 9.42295 2.30724 12.1881
222 2 2.2208 8.06485 1.04304 8.02392
223 1 -1.1104 9.34444 -3.20752 9.28844
224 1 -1.1104 9.40355 2.31441 9.4592
225 2 2.2208 7.96099 -1.71584 10.5559
226 2 2.2208 8.12396 3.81583 10.7365
227 1 -1.1104 9.41832 -0.454935 12.1418
228 1 -1.1104 9.48752 -0.476995 9.41355
8040 2 2.2208 8.12104 -4.42233 2.24359
320 2 2.2208 2.40251 6.6549 13.5829
78 1 -1.1104 3.88814 10.9101 6.57396
238 1 -1.1104 3.78975 8.008 6.5498
239 1 -1.1104 3.77099 5.18452 6.46057
235 1 -1.1104 6.6995 8.14611 6.71468
105 1 -1.1104 12.2098 16.6279 9.43516
240 2 2.2208 5.41133 6.82404 10.7576
241 2 2.2208 5.24271 12.3114 10.952
242 1 -1.1104 1.17737 8.19522 12.1459
244 1 -1.1104 1.10295 7.94931 9.42537
246 1 -1.1104 1.09784 5.32789 12.0617
247 1 -1.1104 1.10634 10.9136 12.1171
250 2 2.2208 5.12628 9.572 7.98929
251 1 -1.1104 0.978774 5.21112 9.31785
252 1 -1.1104 1.05925 10.7724 9.26782
255 1 -1.1104 3.87433 8.01695 12.3138
256 2 2.2208 2.46312 6.62684 7.9916
257 2 2.2208 2.47747 12.2778 8.04545
258 1 -1.1104 3.87677 8.14655 9.36596
259 2 2.2208 2.44136 9.51439 10.8372
260 1 -1.1104 3.76045 5.24439 12.1253
261 1 -1.1104 3.71148 10.7788 12.2189
262 1 -1.1104 3.90906 5.38939 9.17474
263 1 -1.1104 3.88581 11.0014 9.42757
243 1 -1.1104 6.67594 8.09182 12.3482
8740 2 2.2208 13.5629 17.9315 7.98682
254 1 -1.1104 6.6909 11.0641 9.59208
249 1 -1.1104 6.5744 10.8611 12.313
314 2 2.2208 2.30408 1.23617 13.5784
376 2 2.2208 5.21545 17.9412 -0.474776
65 1 -1.1104 6.66163 10.8505 6.60363
8601 2 2.2208 13.7096 6.84151 2.35741
253 1 -1.1104 6.74141 5.32531 9.3499
265 1 -1.1104 12.3385 8.2199 6.69063
245 1 -1.1104 6.64617 8.26741 9.53073
248 1 -1.1104 6.61887 5.29695 12.177
264 1 -1.1104 9.54364 10.9112 9.30406
268 1 -1.1104 9.6301 5.12402 9.34213
270 1 -1.1104 9.36647 10.9182 12.1264
271 1 -1.1104 9.5904 5.17946 12.2448
272 2 2.2208 7.95563 9.5233 10.8992
273 1 -1.1104 9.45559 7.96054 9.38732
274 2 2.2208 8.05131 12.3021 7.94499
275 2 2.2208 8.14061 6.64374 7.96927
276 2 2.2208 10.8168 6.62794 10.8199
277 2 2.2208 10.8302 12.3259 10.7162
278 1 -1.1104 12.2398 8.13586 12.1971
279 1 -1.1104 12.1186 8.27435 9.47839
280 1 -1.1104 12.2179 5.23614 12.1688
281 1 -1.1104 12.2535 11.0465 12.1628
282 2 2.2208 10.8919 9.52641 8.05083
283 1 -1.1104 12.3549 5.36504 9.28752
284 1 -1.1104 12.3067 11.0105 9.27715
285 1 -1.1104 9.43455 8.0471 12.241
25 2 2.2208 -0.394182 -1.65188 2.32186
229 2 2.2208 8.09867 17.9672 8.13106
111 1 -1.1104 6.5653 13.862 6.57515
104 2 2.2208 10.8709 20.6937 8.07971
50 1 -1.1104 12.3797 13.7778 9.46976
324 2 2.2208 10.8006 9.54699 13.4049
124 1 -1.1104 3.7192 13.6061 6.84284
306 1 -1.1104 6.60762 16.5318 12.1141
296 1 -1.1104 6.66459 19.3503 12.2098
232 2 2.2208 2.39827 15.1957 10.8458
286 1 -1.1104 3.92385 19.3392 12.4314
287 1 -1.1104 3.71286 13.7923 12.3885
291 1 -1.1104 1.10292 19.2901 9.3823
292 1 -1.1104 0.949051 16.4874 9.52531
293 2 2.2208 5.34104 20.6821 8.0451
294 1 -1.1104 1.03301 13.7114 9.44585
295 2 2.2208 5.18781 15.0459 7.99549
298 1 -1.1104 1.04236 19.2911 12.2516
299 1 -1.1104 0.96325 13.6576 12.1151
300 2 2.2208 5.20562 17.8553 10.7458
301 1 -1.1104 3.84268 19.4136 9.46022
303 2 2.2208 2.40704 17.8807 8.00324
304 1 -1.1104 3.7641 16.5032 9.42486
305 1 -1.1104 3.89912 13.6977 9.64501
307 1 -1.1104 0.940921 16.417 12.3734
308 1 -1.1104 3.63672 16.5074 12.1188
309 2 2.2208 2.45995 20.7192 10.9057
289 1 -1.1104 6.58247 16.4878 9.4127
8442 2 2.2208 13.607 -1.64684 10.6681
409 2 2.2208 8.13317 20.6823 -0.341177
49 1 -1.1104 12.3137 19.2627 12.2031
375 2 2.2208 8.11881 15.1775 -0.404445
81 1 -1.1104 12.2529 16.496 12.26
51 2 2.2208 8.12865 20.8193 11.0318
199 1 -1.1104 9.54606 19.4031 12.1955
8058 2 2.2208 2.53236 -4.46098 13.4467
8443 2 2.2208 13.6791 1.08245 8.01851
201 2 2.2208 -0.409503 1.14344 10.8751
8671 2 2.2208 -0.340354 6.76361 10.7728
8636 2 2.2208 -0.312497 9.57108 2.33657
8518 2 2.2208 13.7365 20.7963 5.33401
200 2 2.2208 -0.449465 -1.64805 8.02823
8637 2 2.2208 -0.349923 6.73083 5.10956
8652 2 2.2208 13.7433 6.73593 7.87768
8441 2 2.2208 13.563 3.91795 5.02808
8044 2 2.2208 -0.184863 -4.58511 10.6397
335 2 2.2208 -0.243813 3.97878 13.5515
231 2 2.2208 -0.211474 20.7365 7.90077
8802 2 2.2208 13.6181 20.7041 -0.468567
328 2 2.2208 5.23803 15.2097 13.5859
331 2 2.2208 8.05693 17.9773 13.5422
329 2 2.2208 10.9313 20.7936 13.6162
372 2 2.2208 2.55545 15.1556 -0.297592
338 2 2.2208 5.07083 1.16938 16.4024
339 1 -1.1104 1.07385 -3.02236 17.8729
340 1 -1.1104 1.04656 2.55048 17.6164
343 1 -1.1104 1.11185 -3.12216 14.9816
345 1 -1.1104 1.08482 2.50782 15.0632
351 1 -1.1104 1.08763 -0.407697 17.7538
353 2 2.2208 5.32712 -1.58732 19.0532
354 2 2.2208 5.29865 3.93022 19.2523
355 1 -1.1104 0.919911 -0.162474 14.9928
359 1 -1.1104 3.80885 -3.19109 17.6744
360 1 -1.1104 3.83812 2.58647 17.7449
361 2 2.2208 2.43187 1.05814 19.1358
362 1 -1.1104 3.87818 -3.104 14.8711
364 1 -1.1104 3.75877 2.57527 14.8878
366 2 2.2208 2.50061 -1.61346 16.3522
367 2 2.2208 2.48685 3.96657 16.4351
368 1 -1.1104 3.92441 -0.247004 17.7639
369 1 -1.1104 3.68798 -0.16827 14.9912
370 1 -1.1104 3.86241 -0.202718 20.5182
356 1 -1.1104 1.20654 -0.227641 20.7021
344 1 -1.1104 0.966272 -3.15983 20.5399
365 1 -1.1104 3.93377 2.5621 20.5956
347 1 -1.1104 6.64261 -3.08246 14.7839
8102 2 2.2208 5.18287 -4.4989 21.9821
346 1 -1.1104 1.09928 2.46393 20.5458
363 1 -1.1104 3.83053 -3.15929 20.5916
8796 2 2.2208 -0.493913 20.6899 24.8077
8168 2 2.2208 -0.33797 -4.47296 16.4868
332 2 2.2208 5.39771 1.28617 27.6279
316 2 2.2208 -0.276481 9.53414 13.552
341 1 -1.1104 6.69256 -3.06475 17.7609
357 1 -1.1104 6.62122 -0.191532 14.961
349 1 -1.1104 6.49061 2.64797 15.0038
350 1 -1.1104 6.84636 2.43479 20.6429
342 1 -1.1104 6.74414 2.49492 17.8587
352 1 -1.1104 6.71022 -0.142273 17.7251
381 2 2.2208 10.8596 0.992584 16.2455
382 1 -1.1104 12.295 -3.17387 17.8562
383 1 -1.1104 12.2291 2.4755 17.7083
384 1 -1.1104 12.1815 -3.30478 14.8926
386 1 -1.1104 12.4951 2.41907 14.9613
388 1 -1.1104 12.1903 -0.424782 17.8376
389 2 2.2208 10.7133 -1.79194 19.1335
390 2 2.2208 10.941 3.79001 19.1627
391 1 -1.1104 12.3043 -0.440332 14.9834
393 1 -1.1104 9.37801 -3.09631 17.9085
394 1 -1.1104 9.54402 2.57267 17.7917
395 2 2.2208 8.25172 1.16271 19.168
396 1 -1.1104 9.35518 -3.12874 14.9945
398 1 -1.1104 9.60132 2.46441 14.9684
400 2 2.2208 8.03381 -1.60982 16.3693
401 2 2.2208 8.10399 3.86253 16.3892
402 1 -1.1104 9.41597 -0.273164 17.6741
403 1 -1.1104 9.53055 -0.287871 14.9196
387 1 -1.1104 12.3606 2.27037 20.3867
358 1 -1.1104 6.64524 -0.320293 20.492
399 1 -1.1104 9.5995 2.50298 20.6401
392 1 -1.1104 12.1647 -0.53313 20.7046
385 1 -1.1104 12.3303 -3.28808 20.623
397 1 -1.1104 9.51977 -3.33346 20.5614
8054 2 2.2208 -0.37964 -4.45056 27.5881
404 1 -1.1104 9.44502 -0.286597 20.5948
348 1 -1.1104 6.81468 -3.13212 20.6406
414 2 2.2208 5.42489 6.64518 16.418
415 2 2.2208 5.41994 12.3772 16.4742
416 1 -1.1104 1.14047 8.0684 17.9266
418 1 -1.1104 0.951741 8.03718 15.049
422 1 -1.1104 1.22028 5.26676 17.8062
423 1 -1.1104 1.11082 10.9617 17.8166
426 2 2.2208 5.31943 9.58222 19.1807
427 1 -1.1104 1.01272 5.32399 14.8857
429 1 -1.1104 0.975607 10.8765 15.0118
435 1 -1.1104 3.93934 8.26237 17.8326
436 2 2.2208 2.61727 6.78078 19.312
437 2 2.2208 2.54382 12.3769 19.1635
438 1 -1.1104 3.76911 8.05647 15.1665
440 2 2.2208 2.47673 9.54632 16.4565
441 1 -1.1104 3.99187 5.45807 17.8734
442 1 -1.1104 4.00347 10.9112 17.7894
443 1 -1.1104 4.01255 5.35274 15.0322
445 1 -1.1104 3.75505 10.9411 15.0343
444 1 -1.1104 3.91383 5.3373 20.6485
419 1 -1.1104 1.10991 8.24491 20.5946
428 1 -1.1104 1.19226 5.3782 20.5422
430 1 -1.1104 1.1432 10.9225 20.6828
424 1 -1.1104 6.74769 5.26085 17.7968
446 1 -1.1104 3.85962 10.8897 20.4508
439 1 -1.1104 3.92572 8.10315 20.6762
434 1 -1.1104 6.77302 11.0135 20.6195
635 2 2.2208 -0.343342 12.3202 22.0395
405 2 2.2208 11.0004 17.9153 27.6535
432 1 -1.1104 6.79835 5.39832 20.5582
425 1 -1.1104 6.77208 10.9335 17.897
417 1 -1.1104 6.69941 8.12967 17.6878
420 1 -1.1104 6.83003 8.22375 14.9935
433 1 -1.1104 6.62535 10.8812 15.118
431 1 -1.1104 6.6991 5.29452 14.9373
450 2 2.2208 10.9284 6.69902 16.4103
451 2 2.2208 10.9626 12.3261 16.3789
452 1 -1.1104 12.1368 8.20613 17.6575
453 1 -1.1104 12.5735 8.26707 14.9529
455 1 -1.1104 12.3074 5.3144 17.6756
456 1 -1.1104 12.2647 11.0141 17.7065
457 2 2.2208 10.9936 9.48276 19.2676
458 1 -1.1104 12.2616 5.35047 14.9057
460 1 -1.1104 12.4047 11.0843 14.8132
462 1 -1.1104 9.52089 8.23571 17.8227
463 2 2.2208 8.1272 6.79404 19.1432
464 2 2.2208 8.18242 12.3588 19.3036
465 1 -1.1104 9.64052 8.16501 15.0517
467 2 2.2208 8.16674 9.60697 16.4264
468 1 -1.1104 9.47924 5.33839 17.7946
469 1 -1.1104 9.5653 10.954 17.8642
470 1 -1.1104 9.56145 5.28994 14.9933
472 1 -1.1104 9.49377 10.9054 15.0606
459 1 -1.1104 12.4287 5.11779 20.4997
471 1 -1.1104 9.5278 5.18156 20.5784
461 1 -1.1104 12.3884 10.9057 20.8133
8053 2 2.2208 5.20443 -4.59996 27.5734
466 1 -1.1104 9.54227 8.04466 20.5575
473 1 -1.1104 9.55799 10.8919 20.6776
454 1 -1.1104 12.3832 8.1093 20.6586
421 1 -1.1104 6.73843 8.09631 20.4712
575 1 -1.1104 12.5418 16.5237 23.3817
598 2 2.2208 10.8847 20.8624 24.8407
572 1 -1.1104 9.63378 16.4753 26.2451
477 2 2.2208 5.28196 17.9313 16.4289
478 1 -1.1104 1.15397 13.7867 17.8792
479 1 -1.1104 0.991297 19.2254 17.8645
482 1 -1.1104 1.08651 13.712 15.0115
484 1 -1.1104 1.00186 19.3724 15.019
490 1 -1.1104 0.947908 16.5806 17.8405
492 2 2.2208 5.41581 15.1545 19.2555
493 2 2.2208 5.27578 20.7082 19.2865
494 1 -1.1104 0.928973 16.5549 15.0912
498 1 -1.1104 4.00406 13.7522 17.7241
499 1 -1.1104 3.91717 19.4725 17.8351
500 2 2.2208 2.49404 17.8934 19.2559
501 1 -1.1104 4.02651 13.7284 14.9703
503 1 -1.1104 3.8604 19.2434 15.0551
505 2 2.2208 2.51122 15.2082 16.4197
506 2 2.2208 2.50176 20.7796 16.496
507 1 -1.1104 3.86459 16.6206 17.8369
508 1 -1.1104 3.78276 16.6872 15.0145
504 1 -1.1104 3.93591 19.3511 20.7148
483 1 -1.1104 1.09316 13.7237 20.6262
496 1 -1.1104 6.7095 16.474 15.0191
485 1 -1.1104 1.10577 19.3136 20.7032
481 1 -1.1104 6.82147 19.3682 17.9228
488 1 -1.1104 6.64491 19.2355 15.0307
491 1 -1.1104 6.75622 16.5765 17.9285
486 1 -1.1104 6.83744 13.7359 14.9693
502 1 -1.1104 3.94512 13.7285 20.5548
509 1 -1.1104 3.9296 16.4074 20.5812
495 1 -1.1104 1.11101 16.5397 20.5745
487 1 -1.1104 6.99004 13.8535 20.6403
497 1 -1.1104 6.72392 16.5394 20.7237
604 1 -1.1104 9.55826 19.4307 23.3485
489 1 -1.1104 6.78244 19.3973 20.8009
480 1 -1.1104 6.77761 13.6906 17.8447
513 2 2.2208 10.9698 17.9365 16.4431
514 1 -1.1104 12.3417 13.868 17.8759
515 1 -1.1104 12.4493 19.2728 17.8418
516 1 -1.1104 12.4222 13.7704 14.8415
518 1 -1.1104 12.2454 19.5196 14.893
520 1 -1.1104 12.2902 16.5626 17.864
521 2 2.2208 10.9903 15.0712 19.1982
522 2 2.2208 10.9088 20.6884 19.2278
523 1 -1.1104 12.3721 16.4722 14.9569
525 1 -1.1104 9.49612 13.6558 17.8027
526 1 -1.1104 9.59998 19.4109 17.808
527 2 2.2208 8.26789 17.9724 19.3486
528 1 -1.1104 9.55124 13.5748 14.9759
530 1 -1.1104 9.39588 19.3986 14.9089
532 2 2.2208 8.13739 15.0539 16.4283
533 2 2.2208 8.01133 20.7808 16.5564
534 1 -1.1104 9.46543 16.5382 17.825
535 1 -1.1104 9.65137 16.4706 15.0343
529 1 -1.1104 9.67499 13.7521 20.7426
524 1 -1.1104 12.3095 16.3707 20.6429
517 1 -1.1104 12.413 13.5404 20.7092
519 1 -1.1104 12.3412 19.3278 20.6091
536 1 -1.1104 9.55227 16.4712 20.6055
406 2 2.2208 -0.397528 20.6638 19.1548
333 2 2.2208 2.45122 -1.60469 27.6266
597 2 2.2208 8.11091 4.00535 27.5753
9092 2 2.2208 -0.170294 6.83036 22.0973
541 2 2.2208 5.35364 1.09949 21.9988
542 1 -1.1104 1.06424 -2.87506 23.3658
543 1 -1.1104 0.913689 2.63237 23.3191
546 1 -1.1104 1.02918 -3.03585 25.9744
547 1 -1.1104 1.01782 2.4303 26.2482
550 1 -1.1104 1.16844 -0.14317 23.4867
552 2 2.2208 5.39516 -1.57735 24.8391
553 2 2.2208 5.30718 3.97926 24.7755
554 1 -1.1104 1.19073 -0.248754 26.0776
556 1 -1.1104 3.76574 -3.09446 23.2945
557 1 -1.1104 3.8167 2.65133 23.4111
558 2 2.2208 2.46834 1.23382 24.7328
559 1 -1.1104 3.88221 -3.05137 26.0312
560 1 -1.1104 3.91649 2.42301 26.2451
561 2 2.2208 2.51563 -1.61617 21.9819
562 2 2.2208 2.36179 3.97934 21.9713
563 1 -1.1104 4.0474 -0.139115 23.3458
564 1 -1.1104 3.87073 -0.238901 26.2753
9005 2 2.2208 13.7233 3.73502 22.012
549 1 -1.1104 6.84164 2.61813 26.227
378 2 2.2208 2.38443 20.7485 27.6651
8989 2 2.2208 13.7069 1.01256 24.8232
551 1 -1.1104 6.8758 -0.290213 23.2395
555 1 -1.1104 6.84929 -0.249784 26.153
544 1 -1.1104 6.58498 -3.18328 23.3497
510 1 -1.1104 6.61484 13.7835 23.4278
336 2 2.2208 11.0334 1.04176 27.5591
8990 2 2.2208 13.7138 -1.87742 21.9863
545 1 -1.1104 6.72062 2.40164 23.4566
548 1 -1.1104 6.62733 -3.08347 26.0763
577 2 2.2208 10.9645 1.07263 21.929
578 1 -1.1104 12.3717 -3.21477 23.2988
579 1 -1.1104 12.2941 2.41645 23.2059
580 1 -1.1104 12.3314 -3.24175 26.2121
581 1 -1.1104 12.3862 2.43964 26.1895
582 1 -1.1104 12.4302 -0.439078 23.4978
583 2 2.2208 10.9321 -1.81477 24.714
584 2 2.2208 10.8977 3.96002 24.6031
585 1 -1.1104 12.312 -0.376889 26.1552
586 1 -1.1104 9.57372 -3.14573 23.2701
587 1 -1.1104 9.52147 2.46361 23.3157
588 2 2.2208 8.31423 1.13487 24.7551
589 1 -1.1104 9.5373 -3.12919 26.1117
590 1 -1.1104 9.62077 2.60378 25.9244
591 2 2.2208 8.1293 -1.72054 21.9105
592 2 2.2208 8.08738 3.84395 21.9977
593 1 -1.1104 9.59406 -0.400474 23.4252
594 1 -1.1104 9.65988 -0.181031 26.1653
655 2 2.2208 10.8893 6.69412 27.6468
8870 2 2.2208 -0.336077 -1.68984 19.2206
337 2 2.2208 8.05232 -1.6563 27.462
602 1 -1.1104 12.4178 16.5504 26.2383
374 2 2.2208 -0.494454 1.10152 16.3775
606 2 2.2208 5.39189 6.72574 22.0646
607 2 2.2208 5.33836 12.1958 21.9806
608 1 -1.1104 1.19709 8.28791 23.4695
610 1 -1.1104 1.01352 7.98775 26.2291
612 1 -1.1104 0.973504 5.41615 23.6349
613 1 -1.1104 1.17399 11.014 23.4661
616 2 2.2208 5.3391 9.51551 24.8009
617 1 -1.1104 0.964096 5.3219 26.3506
618 1 -1.1104 1.18747 10.9678 26.2765
621 1 -1.1104 3.84765 8.14624 23.3795
622 2 2.2208 2.44887 6.77316 24.8933
623 2 2.2208 2.62259 12.4894 24.8062
624 1 -1.1104 3.92417 8.26302 26.2959
625 2 2.2208 2.56208 9.57195 22.0694
626 1 -1.1104 3.89695 5.36684 23.4081
627 1 -1.1104 3.91487 10.9365 23.3721
628 1 -1.1104 3.77949 5.2329 26.2421
629 1 -1.1104 4.05425 11.0705 26.0648
609 1 -1.1104 6.7176 8.14989 23.4316
632 2 2.2208 5.49107 12.3013 27.6185
630 2 2.2208 5.16175 6.70173 27.6069
570 2 2.2208 -0.363102 12.3526 16.3667
568 2 2.2208 -0.185206 9.62422 19.2939
656 2 2.2208 8.15652 9.60332 27.5834
8945 2 2.2208 13.7219 20.8675 16.3538
619 1 -1.1104 6.5435 5.2672 26.1654
611 1 -1.1104 6.61531 8.11456 26.284
614 1 -1.1104 6.65568 5.30503 23.3834
620 1 -1.1104 6.75058 10.8938 26.1016
615 1 -1.1104 6.68546 10.8686 23.3423
637 1 -1.1104 9.5909 10.9252 26.3522
638 1 -1.1104 9.36224 5.35327 26.0896
639 1 -1.1104 9.52016 10.8065 23.5709
640 1 -1.1104 9.55226 5.30765 23.3439
641 2 2.2208 8.11926 9.50928 21.9866
642 1 -1.1104 9.50745 8.01038 26.1401
643 2 2.2208 8.0495 12.3685 24.7778
644 2 2.2208 8.07768 6.69863 24.6962
645 2 2.2208 10.9354 6.64818 21.9053
646 2 2.2208 10.9365 12.2668 22.1252
647 1 -1.1104 12.3256 7.98589 23.481
648 1 -1.1104 12.3591 7.95667 26.2166
649 1 -1.1104 12.2935 5.21568 23.3727
650 1 -1.1104 12.4744 10.7235 23.4275
651 2 2.2208 11.0406 9.39252 24.8984
652 1 -1.1104 12.1284 5.23975 26.1129
653 1 -1.1104 12.35 11.0301 26.3814
654 1 -1.1104 9.56587 8.15233 23.3364
569 1 -1.1104 12.2619 19.3612 23.5459
601 2 2.2208 -0.3991 17.9018 27.6419
412 1 -1.1104 6.79241 16.6593 23.6448
658 1 -1.1104 9.4467 19.3285 26.2596
537 1 -1.1104 6.67668 19.3408 23.5925
566 1 -1.1104 6.80602 16.5018 26.2244
571 1 -1.1104 6.73606 13.6685 26.3296
567 1 -1.1104 3.92107 13.6855 23.279
565 1 -1.1104 0.937307 19.3108 26.1454
539 1 -1.1104 1.03423 16.5 26.2068
538 1 -1.1104 1.13455 13.7724 26.3274
595 1 -1.1104 3.84924 19.3152 23.4065
512 2 2.2208 5.2727 20.7151 24.7653
379 2 2.2208 2.45338 15.0802 22.0435
380 2 2.2208 2.46117 20.6753 22.0153
407 1 -1.1104 3.95509 16.5589 23.4648
411 1 -1.1104 1.29039 16.5687 23.3641
413 1 -1.1104 4.01735 13.7678 26.2636
447 1 -1.1104 3.85418 16.5057 26.2736
448 2 2.2208 2.47961 17.8361 24.841
449 1 -1.1104 3.77088 19.3695 26.2808
474 2 2.2208 5.36463 17.9638 22.0371
475 1 -1.1104 1.0714 13.8401 23.5601
476 1 -1.1104 0.967644 19.4457 23.4086
511 2 2.2208 5.38472 15.2361 24.8507
373 2 2.2208 -0.584422 17.8608 16.4265
636 1 -1.1104 9.54087 13.7307 26.1918
596 2 2.2208 8.13616 20.8927 22.0541
410 2 2.2208 10.9482 17.8807 22.0897
531 1 -1.1104 9.65361 19.402 20.6692
605 2 2.2208 8.18514 18.0365 24.9897
633 1 -1.1104 6.72059 19.1999 26.2689
603 1 -1.1104 9.55123 13.6265 23.3653
659 2 2.2208 8.16041 15.1463 22.02
576 2 2.2208 10.8598 15.2081 24.9703
574 1 -1.1104 12.1393 19.3571 26.2657
540 1 -1.1104 12.3544 13.694 23.4875
573 1 -1.1104 12.3401 13.7502 26.1182
600 1 -1.1104 9.52675 16.5579 23.5185
8800 2 2.2208 -0.286415 -1.67991 24.7445
657 2 2.2208 10.9695 12.4319 27.6211
634 2 2.2208 -0.321215 9.54754 24.9189
325 2 2.2208 8.13965 12.3197 13.5827
322 2 2.2208 2.49075 12.4239 13.6994
8797 2 2.2208 13.6463 6.63929 24.8194
377 2 2.2208 -0.185527 15.0694 19.1615
8799 2 2.2208 13.551 -1.91071 16.4932
8872 2 2.2208 13.6711 9.65766 16.3511
8841 2 2.2208 -0.285975 3.89319 19.1627
9017 2 2.2208 -0.228375 3.91416 24.9848
8988 2 2.2208 13.6433 3.88435 27.552
321 2 2.2208 5.27441 9.39041 13.7674
319 2 2.2208 10.9706 3.8527 13.6862
631 2 2.2208 2.49978 9.53354 27.5879
334 2 2.2208 2.3655 3.85987 27.533
8840 2 2.2208 -0.236418 12.4221 27.5451
660 2 2.2208 5.41107 23.5752 5.40683
661 2 2.2208 5.31899 29.0113 5.20669
662 1 -1.1104 1.12579 24.8637 0.910971
663 1 -1.1104 1.14846 24.7779 3.67133
664 1 -1.1104 1.14691 22.1534 1.15708
665 1 -1.1104 1.35777 27.7474 1.01149
666 2 2.2208 5.31005 26.2943 2.40905
667 1 -1.1104 1.09784 21.9659 3.78179
668 1 -1.1104 1.17541 27.5753 3.79914
669 1 -1.1104 3.97689 24.9194 0.915939
670 2 2.2208 2.57777 23.3982 2.42636
671 2 2.2208 2.59883 29.1452 2.32192
672 1 -1.1104 4.04034 24.8042 3.77
673 2 2.2208 2.60024 26.315 5.20134
674 1 -1.1104 3.88664 21.952 1.05311
675 1 -1.1104 4.01541 27.6981 0.900751
676 1 -1.1104 3.79166 22.1115 3.97164
677 1 -1.1104 3.98534 27.7108 3.66414
803 1 -1.1104 1.34598 22.0748 6.62106
809 1 -1.1104 3.8495 27.7172 6.54611
807 1 -1.1104 3.81763 24.9847 6.57363
808 1 -1.1104 4.08266 22.1957 6.62874
686 1 -1.1104 6.78397 27.6676 3.94194
681 1 -1.1104 6.60111 24.8289 1.028
806 1 -1.1104 6.85503 27.7665 6.63346
804 1 -1.1104 1.02662 27.5607 6.48494
801 1 -1.1104 1.14335 24.911 6.53231
805 1 -1.1104 6.94075 22.0669 6.64231
802 1 -1.1104 6.73725 24.9372 6.64584
779 1 -1.1104 9.46731 41.7487 6.8089
685 1 -1.1104 6.64054 22.2162 3.91462
682 1 -1.1104 6.74988 24.9969 3.8487
684 1 -1.1104 6.78979 27.604 1.18553
683 1 -1.1104 6.6757 22.0666 1.02486
687 2 2.2208 10.9427 23.575 5.22357
688 2 2.2208 10.9196 29.0264 5.21853
689 1 -1.1104 12.2341 24.9506 0.999888
690 1 -1.1104 12.3525 24.8064 3.72171
691 1 -1.1104 12.3351 22.0748 0.942907
692 1 -1.1104 12.3662 27.7294 0.996296
693 2 2.2208 10.958 26.2413 2.44071
694 1 -1.1104 12.4001 22.0262 3.95369
695 1 -1.1104 12.4512 27.6018 3.85874
696 1 -1.1104 9.44991 24.9292 0.918352
697 2 2.2208 8.11286 23.6284 2.37067
698 2 2.2208 8.11475 29.0967 2.45224
699 1 -1.1104 9.65264 24.8808 3.86878
700 2 2.2208 8.24776 26.3195 5.29732
701 1 -1.1104 9.53338 22.109 0.931095
702 1 -1.1104 9.57904 27.6211 0.820504
703 1 -1.1104 9.61359 22.0304 3.67678
704 1 -1.1104 9.64153 27.6637 3.73758
839 1 -1.1104 9.52766 27.6608 6.65828
838 1 -1.1104 9.68296 22.1407 6.66837
837 1 -1.1104 9.53812 24.8595 6.75472
1334 1 -1.1104 3.95674 47.3143 0.90131
1369 1 -1.1104 9.5098 47.282 0.997502
1321 1 -1.1104 6.66864 47.222 3.80825
1319 1 -1.1104 1.03476 47.2884 3.92804
1514 1 -1.1104 1.01292 47.2921 12.2847
708 2 2.2208 5.28542 34.6172 5.19273
709 1 -1.1104 1.07102 30.5907 1.0215
710 1 -1.1104 0.951052 36.0894 1.02371
712 1 -1.1104 1.10198 30.4345 3.80343
713 1 -1.1104 0.904554 36.175 3.89101
715 1 -1.1104 1.14007 33.3647 1.07034
716 2 2.2208 5.36052 31.8738 2.37336
717 2 2.2208 5.1378 37.4445 2.44083
718 1 -1.1104 1.18478 33.1797 3.81232
720 1 -1.1104 3.80451 30.4588 0.9037
721 1 -1.1104 3.87043 36.007 1.04856
722 2 2.2208 2.46726 34.6927 2.43878
723 1 -1.1104 3.9633 30.4392 3.6828
724 1 -1.1104 3.73149 36.0074 3.99571
725 2 2.2208 2.501 31.7218 5.13549
726 2 2.2208 2.3531 37.5154 5.26353
727 1 -1.1104 3.92355 33.1813 1.03558
728 1 -1.1104 3.88693 33.1673 3.77149
733 1 -1.1104 6.67929 30.5088 3.7999
864 1 -1.1104 3.82054 30.4591 6.42668
859 1 -1.1104 1.13863 36.1835 6.60038
732 1 -1.1104 6.72138 30.3126 1.01148
865 1 -1.1104 3.92947 36.0775 6.64723
1531 1 -1.1104 3.92716 47.4101 9.47721
1317 1 -1.1104 6.72742 47.1101 1.05321
961 1 -1.1104 12.2025 44.4593 9.47991
9170 2 2.2208 13.6818 37.4733 5.25618
1542 1 -1.1104 12.2508 47.2277 6.65343
734 1 -1.1104 6.73332 33.0707 1.08407
714 1 -1.1104 6.47388 36.1103 3.71085
719 1 -1.1104 6.71396 33.4133 3.75182
711 1 -1.1104 6.81836 35.7669 0.864757
744 1 -1.1104 9.541 30.4042 1.05398
735 2 2.2208 10.89 34.6377 5.33777
736 1 -1.1104 12.37 30.41 1.07163
737 1 -1.1104 12.1898 36.1112 1.02454
738 1 -1.1104 12.219 30.3438 3.84547
739 1 -1.1104 12.1994 36.1353 3.75523
740 1 -1.1104 12.3147 33.0927 1.05374
741 2 2.2208 10.8457 31.7981 2.35799
742 2 2.2208 10.8744 37.3151 2.43326
743 1 -1.1104 12.2415 33.1764 3.70272
745 1 -1.1104 9.41924 35.9299 1.19312