ITEM: TIMESTEP
80000
ITEM: NUMBER OF ATOMS
17760
ITEM: BOX BOUNDS pp pp pp
-3.7695143420882982e-01 2.7716951434208333e+01
-4.6719386941381726e+00 3.3275193869413437e+02
-3.8820777112558308e-01 2.7728207771126087e+01
ITEM: ATOMS id type q x y z
1 2 2.2208 5.20029 0.795362 5.09105
2 1 -1.1104 1.04647 -3.373 0.86394
3 1 -1.1104 0.910677 2.23856 1.05958
6 1 -1.1104 1.05774 -3.38813 3.83757
7 1 -1.1104 0.967869 2.22309 3.83169
10 1 -1.1104 0.901728 -0.659989 0.951483
12 2 2.2208 5.16626 -2.14562 2.3624
13 2 2.2208 5.18065 3.65901 2.4646
14 1 -1.1104 1.0572 -0.544556 3.88477
16 1 -1.1104 3.88168 -3.36522 0.961689
17 1 -1.1104 3.69077 2.1326 1.22501
18 2 2.2208 2.39834 0.79475 2.42774
19 1 -1.1104 3.67188 -3.4153 3.73137
20 1 -1.1104 3.78561 2.31582 3.94003
21 2 2.2208 2.36006 -2.10732 5.28743
22 2 2.2208 2.30436 3.6474 5.24478
23 1 -1.1104 3.70407 -0.540682 0.938292
24 1 -1.1104 3.83119 -0.749241 3.90153
11 1 -1.1104 6.59945 -0.550366 0.913713
15 1 -1.1104 6.63356 -0.702812 3.66803
8 1 -1.1104 6.47298 -3.4355 3.75633
9 1 -1.1104 6.57963 2.05591 3.6984
171 1 -1.1104 6.44262 -0.557082 6.44772
4 1 -1.1104 6.68637 -3.37524 1.01809
5 1 -1.1104 6.5925 2.33575 0.950091
173 1 -1.1104 3.76698 2.097 6.74057
172 1 -1.1104 3.64487 -3.49885 6.64462
8337 2 2.2208 2.3101 -4.84116 8.06102
167 1 -1.1104 0.886758 2.26415 6.66295
166 1 -1.1104 0.842758 -3.40136 6.72227
8333 2 2.2208 5.15391 -4.8246 5.1937
230 2 2.2208 13.5225 -2.16441 10.7647
31 2 2.2208 10.7185 0.800174 5.17366
32 1 -1.1104 12.0517 -3.43097 1.19804
33 1 -1.1104 12.3885 2.12392 0.896865
34 1 -1.1104 12.2618 -3.34536 3.7786
35 1 -1.1104 12.0864 2.3196 3.74263
36 1 -1.1104 12.2082 -0.570262 0.932822
37 2 2.2208 10.7797 -1.96989 2.41365
38 2 2.2208 10.8064 3.58184 2.3411
39 1 -1.1104 12.1976 -0.543233 3.89774
40 1 -1.1104 9.33918 -3.41923 0.976814
41 1 -1.1104 9.51184 2.28779 0.919614
42 2 2.2208 7.97584 0.855859 2.30332
43 1 -1.1104 9.38944 -3.39529 3.67478
44 1 -1.1104 9.33161 2.27565 3.64055
45 2 2.2208 7.82593 -1.99719 5.1579
46 2 2.2208 7.9247 3.47315 5.16115
47 1 -1.1104 9.56686 -0.536601 0.986172
48 1 -1.1104 9.29479 -0.467435 3.67569
206 1 -1.1104 12.1016 2.06721 6.57332
209 1 -1.1104 9.16859 1.97017 6.55387
208 1 -1.1104 9.31151 -3.30772 6.51503
8757 2 2.2208 13.7101 3.4283 5.19811
9061 2 2.2208 13.4988 -1.97384 5.29146
339 2 2.2208 2.42253 9.18872 -0.394791
210 1 -1.1104 9.17439 -0.67294 6.5633
199 2 2.2208 7.93175 14.8483 10.703
81 1 -1.1104 12.1462 16.2354 12.1554
54 2 2.2208 5.08684 6.37168 5.1707
55 2 2.2208 5.09743 12.0723 5.21993
56 1 -1.1104 1.0208 7.61925 1.06688
58 1 -1.1104 0.931119 7.7118 3.93742
60 1 -1.1104 0.926044 4.96467 0.862306
61 1 -1.1104 1.01825 10.4872 0.974926
66 2 2.2208 5.1763 9.21461 2.43254
67 1 -1.1104 1.09001 4.9248 3.73487
68 1 -1.1104 0.936042 10.5925 3.78334
71 1 -1.1104 3.76133 7.8347 0.98327
72 2 2.2208 2.28629 6.35012 2.42343
73 2 2.2208 2.46966 11.9167 2.36614
74 1 -1.1104 3.6442 7.77068 3.79053
75 2 2.2208 2.33794 9.24569 5.23371
76 1 -1.1104 3.697 4.99816 0.937202
77 1 -1.1104 3.71052 10.6597 0.994753
79 1 -1.1104 3.74188 4.95393 3.81254
80 1 -1.1104 3.72253 10.5463 3.84219
70 1 -1.1104 6.50842 10.6046 3.85214
57 1 -1.1104 6.56255 7.69511 0.867661
69 1 -1.1104 6.42884 4.90283 3.89267
239 1 -1.1104 3.63155 4.96999 6.77047
63 1 -1.1104 6.64262 4.90907 0.973715
59 1 -1.1104 6.41931 7.74511 3.63465
235 1 -1.1104 6.44585 7.79091 6.47066
64 1 -1.1104 6.65514 10.6011 1.1419
65 1 -1.1104 6.40049 10.6594 6.63895
78 1 -1.1104 3.63381 10.76 6.62754
30 1 -1.1104 12.0073 13.3811 9.51588
50 1 -1.1104 12.1562 18.8699 9.32198
84 2 2.2208 10.7085 6.41353 5.09085
85 2 2.2208 10.7737 11.9859 5.18312
86 1 -1.1104 12.1742 7.80558 1.04394
87 1 -1.1104 12.084 7.89992 3.8479
88 1 -1.1104 12.0949 4.85543 0.845619
89 1 -1.1104 12.2682 10.6075 1.05717
91 2 2.2208 10.6688 9.24137 2.33301
92 1 -1.1104 12.1652 5.10732 3.61389
93 1 -1.1104 12.3335 10.654 3.93808
94 1 -1.1104 9.3826 7.72839 0.94417
95 2 2.2208 7.93821 6.41412 2.29966
96 2 2.2208 7.99326 11.9893 2.38783
97 1 -1.1104 9.15434 7.81365 3.75183
98 2 2.2208 7.81709 9.21992 5.21925
99 1 -1.1104 9.44136 4.89671 1.06298
100 1 -1.1104 9.41159 10.604 1.00003
102 1 -1.1104 9.26132 4.92127 3.67484
103 1 -1.1104 9.4867 10.6316 3.79645
9066 2 2.2208 13.6197 6.37767 2.19229
8786 2 2.2208 13.5738 9.08028 5.2278
9065 2 2.2208 13.6188 11.9178 2.43363
267 1 -1.1104 9.39202 7.67806 6.52204
101 1 -1.1104 9.24266 10.4139 6.57801
265 1 -1.1104 12.1947 7.77024 6.54707
90 1 -1.1104 12.1442 10.5105 6.65666
315 2 2.2208 7.77975 12.0808 13.4986
106 2 2.2208 5.17417 17.6439 5.13956
107 1 -1.1104 1.0309 13.3967 1.06032
109 1 -1.1104 0.87531 19.0256 1.12213
113 1 -1.1104 0.876474 13.2998 3.82851
114 1 -1.1104 0.827574 18.9759 3.87957
116 1 -1.1104 0.862851 16.1715 0.686445
119 2 2.2208 5.11205 14.8601 2.39865
120 2 2.2208 5.01207 20.3952 2.39334
121 1 -1.1104 0.940197 16.0639 3.86335
123 1 -1.1104 3.80621 13.4356 0.99541
125 1 -1.1104 3.73061 18.9784 0.99131
127 2 2.2208 2.23336 17.5723 2.37742
128 1 -1.1104 3.74041 13.4215 3.8007
129 1 -1.1104 3.74907 19.0475 3.81557
130 2 2.2208 2.26385 14.7782 5.23092
131 2 2.2208 2.32211 20.553 5.24447
132 1 -1.1104 3.67697 16.2008 1.08002
134 1 -1.1104 3.73095 16.2279 3.7633
140 1 -1.1104 6.62499 16.3418 0.997395
138 1 -1.1104 6.56007 18.94 0.999555
122 1 -1.1104 6.6523 16.1772 3.73242
139 1 -1.1104 6.54383 18.9353 3.69888
110 1 -1.1104 6.51595 13.5626 0.926664
115 1 -1.1104 6.4236 13.2302 3.65731
118 1 -1.1104 6.44836 16.2407 6.48074
117 1 -1.1104 0.83477 16.3008 6.52832
201 1 -1.1104 9.27781 16.2531 12.0105
163 1 -1.1104 9.31403 16.0262 6.45293
311 2 2.2208 10.8078 3.57574 13.6345
141 2 2.2208 10.7085 17.5192 5.10723
142 1 -1.1104 12.2679 13.3901 1.02371
144 1 -1.1104 12.1893 19.064 0.889081
146 1 -1.1104 12.158 13.4012 3.78568
147 1 -1.1104 12.2175 18.8396 3.6377
148 1 -1.1104 12.2288 16.2062 0.99595
150 2 2.2208 10.7236 14.7244 2.25218
151 2 2.2208 10.8461 20.4804 2.3082
152 1 -1.1104 12.1332 16.1445 3.76125
153 1 -1.1104 9.25583 13.3783 0.817598
155 1 -1.1104 9.44072 18.9056 0.873291
157 2 2.2208 7.98877 17.6954 2.34002
158 1 -1.1104 9.3409 13.3622 3.78055
159 1 -1.1104 9.34512 19.0644 3.73917
160 2 2.2208 7.87115 14.8236 5.06436
161 2 2.2208 7.85888 20.3408 5.05187
162 1 -1.1104 9.32948 16.1687 1.00415
164 1 -1.1104 9.28622 16.1295 3.80658
9060 2 2.2208 13.613 17.473 2.28855
8855 2 2.2208 13.529 14.7953 5.14905
154 1 -1.1104 9.24222 13.0789 6.48828
149 1 -1.1104 12.0585 16.1074 6.45178
143 1 -1.1104 12.1313 13.3228 6.6259
9019 2 2.2208 13.6556 20.4028 10.741
27 1 -1.1104 12.1703 19.0207 12.2702
174 1 -1.1104 3.59006 -0.681006 6.614
170 1 -1.1104 0.8574 -0.554221 6.70773
168 1 -1.1104 6.39618 -3.40207 6.52281
104 1 -1.1104 12.1399 16.1222 9.40096
169 1 -1.1104 6.61984 2.31099 6.61248
175 2 2.2208 5.13711 0.781505 10.8183
176 1 -1.1104 1.00081 -3.37659 12.3397
177 1 -1.1104 0.917016 2.28737 12.3911
180 1 -1.1104 0.912135 -3.48279 9.62924
181 1 -1.1104 0.918244 2.16568 9.36401
184 1 -1.1104 0.865372 -0.571803 12.1369
186 2 2.2208 5.07635 -2.00764 8.04526
187 2 2.2208 5.11021 3.59842 7.95322
188 1 -1.1104 0.901655 -0.724782 9.37665
190 1 -1.1104 3.64266 -3.42627 12.2173
191 1 -1.1104 3.75119 2.32471 12.1964
192 2 2.2208 2.29895 0.817608 8.0404
193 1 -1.1104 3.71926 -3.31317 9.46858
194 1 -1.1104 3.77945 2.34445 9.42973
195 2 2.2208 2.27676 -2.02796 10.834
196 2 2.2208 2.29066 3.73663 10.87
197 1 -1.1104 3.77693 -0.581065 12.4325
198 1 -1.1104 3.6752 -0.383887 9.58812
178 1 -1.1104 6.40047 -3.34857 12.0941
189 1 -1.1104 6.42605 -0.653425 9.32187
182 1 -1.1104 6.65221 -3.45512 9.33569
185 1 -1.1104 6.55961 -0.480241 12.1296
179 1 -1.1104 6.70801 2.13092 12.2598
183 1 -1.1104 6.54099 2.17936 9.36289
165 1 -1.1104 9.45612 19.0497 9.46818
145 1 -1.1104 12.0796 18.9083 6.51046
229 1 -1.1104 9.41034 16.2313 9.20667
207 1 -1.1104 11.9063 -0.589549 6.62394
205 1 -1.1104 12.1337 -3.34012 6.86183
156 1 -1.1104 9.29679 18.9062 6.53219
8917 2 2.2208 13.5631 0.838264 7.97178
211 2 2.2208 10.6883 0.854485 10.8514
212 1 -1.1104 12.0591 -3.57446 12.2548
213 1 -1.1104 12.1077 2.13186 12.1653
214 1 -1.1104 12.1504 -3.43128 9.39713
215 1 -1.1104 12.1816 2.18238 9.28219
216 1 -1.1104 12.1175 -0.774958 12.1674
217 2 2.2208 10.7169 -1.93908 8.10505
219 1 -1.1104 12.0763 -0.520455 9.3861
220 1 -1.1104 9.07461 -3.53399 12.141
221 1 -1.1104 9.3493 2.2226 12.2851
222 2 2.2208 7.93568 0.771134 7.93465
223 1 -1.1104 9.39646 -3.42713 9.40464
224 1 -1.1104 9.30969 2.0677 9.45968
225 2 2.2208 7.96439 -2.05923 10.8647
226 2 2.2208 7.99067 3.64051 10.764
227 1 -1.1104 9.33048 -0.667499 12.3137
228 1 -1.1104 9.42187 -0.719136 9.54187
218 2 2.2208 10.6875 3.51609 7.91398
9057 2 2.2208 13.4757 17.455 8.01784
8892 2 2.2208 13.5395 3.56483 10.814
49 2 2.2208 13.5852 0.84914 2.42373
9077 2 2.2208 13.569 17.6252 13.592
135 1 -1.1104 9.29601 19.0338 12.3702
322 2 2.2208 7.8803 17.6388 13.6273
9081 2 2.2208 13.5387 12.2036 13.6541
236 1 -1.1104 0.87761 4.95524 6.64607
62 1 -1.1104 0.793328 10.6226 6.65097
238 1 -1.1104 3.60311 7.8003 6.62561
234 1 -1.1104 0.706016 7.94206 6.67181
237 1 -1.1104 6.4722 4.9949 6.38864
136 2 2.2208 7.90514 17.6314 7.86556
240 2 2.2208 5.11865 6.45248 10.7553
241 2 2.2208 5.02858 11.8597 10.7926
242 1 -1.1104 0.843024 7.80186 12.328
244 1 -1.1104 0.930305 7.74048 9.48403
246 1 -1.1104 0.827874 5.01572 12.3961
247 1 -1.1104 0.815029 10.6826 12.2597
250 2 2.2208 5.05184 9.22613 8.0155
251 1 -1.1104 0.895823 4.86804 9.62783
252 1 -1.1104 0.903004 10.4988 9.54101
255 1 -1.1104 3.69478 7.82392 12.2724
256 2 2.2208 2.20039 6.38787 8.06286
257 2 2.2208 2.29232 12.058 8.11049
258 1 -1.1104 3.72284 7.84992 9.41383
259 2 2.2208 2.23393 9.26112 10.8154
260 1 -1.1104 3.70411 5.14971 12.2728
261 1 -1.1104 3.64751 10.6003 12.2818
262 1 -1.1104 3.68676 5.15123 9.41205
263 1 -1.1104 3.72045 10.6726 9.42643
245 1 -1.1104 6.46613 7.7747 9.3378
249 1 -1.1104 6.41173 10.5874 12.0978
253 1 -1.1104 6.62327 4.91544 9.35374
243 1 -1.1104 6.59894 7.83689 12.0925
254 1 -1.1104 6.45677 10.4953 9.42587
248 1 -1.1104 6.50888 5.09472 12.2683
9056 2 2.2208 13.5414 14.7967 10.805
25 2 2.2208 10.764 17.5694 10.7732
266 1 -1.1104 12.1959 4.79368 6.58063
105 1 -1.1104 9.29546 13.4088 12.2115
8973 2 2.2208 13.5386 9.15711 10.817
269 1 -1.1104 9.25478 4.78985 6.42748
137 1 -1.1104 9.22842 13.343 9.28296
8968 2 2.2208 13.5199 6.36128 7.95396
264 1 -1.1104 9.31566 10.4825 9.26106
268 1 -1.1104 9.32395 4.93906 9.14351
270 1 -1.1104 9.33926 10.5355 12.1457
271 1 -1.1104 9.37296 4.97084 12.2179
272 2 2.2208 7.84354 9.08093 10.7577
273 1 -1.1104 9.26212 7.6353 9.46007
274 2 2.2208 7.85183 12.0097 7.87443
275 2 2.2208 7.86696 6.31411 7.86279
276 2 2.2208 10.6529 6.32043 10.6027
277 2 2.2208 10.5944 11.8552 10.732
278 1 -1.1104 11.9896 7.89539 12.105
279 1 -1.1104 12.0637 7.6857 9.33678
280 1 -1.1104 12.1738 5.01609 12.2509
281 1 -1.1104 12.1991 10.6384 12.0718
282 2 2.2208 10.6193 9.20164 7.97331
283 1 -1.1104 12.1207 4.97914 9.43148
284 1 -1.1104 12.0762 10.625 9.38419
285 1 -1.1104 9.20718 7.8374 12.2491
8969 2 2.2208 13.4232 11.8632 7.93349
82 2 2.2208 10.6794 14.748 7.93248
312 2 2.2208 2.23352 11.9298 13.7276
319 2 2.2208 2.22423 17.5216 13.6338
232 1 -1.1104 0.85189 19.0668 6.54993
112 1 -1.1104 6.48615 18.9916 6.49776
111 1 -1.1104 6.58362 13.6597 6.61697
124 1 -1.1104 3.55527 13.3148 6.62477
320 2 2.2208 5.17616 20.438 13.7719
133 1 -1.1104 3.64276 16.017 6.53393
108 1 -1.1104 0.86131 13.4117 6.60905
126 1 -1.1104 3.62669 19.0181 6.53913
202 1 -1.1104 6.56077 16.3045 12.0991
290 1 -1.1104 6.55689 13.1947 9.35649
289 1 -1.1104 6.54051 16.0924 9.35479
296 1 -1.1104 6.5087 19.0312 12.2592
29 2 2.2208 2.18595 14.7591 10.8499
51 2 2.2208 2.26924 20.3747 10.8062
52 1 -1.1104 3.53418 16.0281 12.1833
53 1 -1.1104 0.800781 16.1954 12.2422
203 1 -1.1104 3.69501 13.4177 9.59666
204 1 -1.1104 3.59083 16.1782 9.35331
231 2 2.2208 2.21351 17.6226 7.88865
233 1 -1.1104 3.65646 18.9299 9.315
286 1 -1.1104 3.72942 18.818 12.0877
287 1 -1.1104 3.52541 13.3293 12.3687
291 1 -1.1104 0.755053 19.1021 9.41274
292 1 -1.1104 0.847764 16.2668 9.41383
293 2 2.2208 5.08921 20.469 7.99777
294 1 -1.1104 0.992591 13.3771 9.34482
295 2 2.2208 4.97238 14.8458 7.97148
298 1 -1.1104 0.921247 18.9327 12.314
299 1 -1.1104 0.824724 13.3341 12.1656
300 2 2.2208 5.13759 17.6493 10.7289
288 1 -1.1104 6.56481 18.905 9.2841
297 1 -1.1104 6.4459 13.4511 12.1443
313 2 2.2208 5.21203 9.23408 13.5443
200 2 2.2208 8.10451 20.4294 10.6744
83 2 2.2208 10.756 20.3555 8.04263
26 1 -1.1104 12.1082 13.4343 12.3014
305 2 2.2208 5.05011 3.57321 13.6311
337 2 2.2208 13.7504 3.73896 -0.556792
316 2 2.2208 10.6991 9.20294 13.5596
314 2 2.2208 2.40902 6.47156 13.7544
301 2 2.2208 13.5901 6.37629 13.482
324 2 2.2208 10.7541 20.3186 13.6102
303 2 2.2208 5.174 -1.97342 13.6724
317 2 2.2208 8.07563 6.4349 13.7177
323 2 2.2208 10.7771 14.8946 13.6013
310 2 2.2208 10.7766 -2.06053 13.714
341 2 2.2208 5.09934 0.860714 16.4885
342 1 -1.1104 1.07073 -3.42456 17.7906
343 1 -1.1104 0.87791 2.16889 17.8671
346 1 -1.1104 1.07051 -3.39823 15.1239
348 1 -1.1104 0.919496 2.21444 15.1665
354 1 -1.1104 0.970188 -0.673416 17.8863
356 2 2.2208 5.12866 -2.04911 19.2433
357 2 2.2208 4.99967 3.64888 19.3324
358 1 -1.1104 0.982908 -0.525033 14.9813
362 1 -1.1104 3.68443 -3.20572 17.923
363 1 -1.1104 3.67789 2.34546 17.9191
364 2 2.2208 2.50788 0.669543 19.3526
365 1 -1.1104 3.92423 -3.44404 15.1412
367 1 -1.1104 3.64752 2.26542 14.9908
369 2 2.2208 2.51459 -2.03414 16.4773
371 1 -1.1104 3.80359 -0.561137 17.8442
372 1 -1.1104 3.76372 -0.655355 15.1621
370 2 2.2208 2.28043 3.4754 16.4954
355 1 -1.1104 6.513 -0.634046 17.8279
359 1 -1.1104 0.923815 -0.530766 20.6699
368 1 -1.1104 3.77184 2.1165 20.6985
352 1 -1.1104 6.42263 2.33796 15.0418
350 1 -1.1104 6.57129 -3.38478 15.0241
345 1 -1.1104 6.45744 2.12868 17.8203
360 1 -1.1104 6.49759 -0.570285 15.0076
351 1 -1.1104 6.3691 -3.29324 20.761
344 1 -1.1104 6.55943 -3.38775 17.8902
361 1 -1.1104 6.53912 -0.604081 20.5189
353 1 -1.1104 6.68936 2.20984 20.6959
366 1 -1.1104 3.60564 -3.39788 20.7179
327 2 2.2208 5.07149 0.775637 27.7121
384 2 2.2208 10.6775 0.795983 16.4313
385 1 -1.1104 12.1022 -3.3986 18.0468
386 1 -1.1104 12.2304 2.21796 17.7759
387 1 -1.1104 12.0563 -3.45113 15.1777
389 1 -1.1104 12.1447 2.0926 15.0565
391 1 -1.1104 12.2429 -0.597094 17.8952
392 2 2.2208 10.7245 -1.92387 19.238
393 2 2.2208 10.7199 3.60589 19.1879
394 1 -1.1104 12.1611 -0.745709 15.0264
396 1 -1.1104 9.21221 -3.46948 17.9064
397 1 -1.1104 9.37794 2.08911 17.9379
398 2 2.2208 7.88971 0.84046 19.2224
399 1 -1.1104 9.37169 -3.44048 15.051
401 1 -1.1104 9.43645 2.29651 15.0867
403 2 2.2208 7.89337 -2.0233 16.5528
404 2 2.2208 8.08104 3.58289 16.4433
405 1 -1.1104 9.41155 -0.698974 17.84
406 1 -1.1104 9.21955 -0.660934 15.2409
410 2 2.2208 13.5578 3.57187 16.211
412 2 2.2208 13.5468 -2.08294 16.5671
408 2 2.2208 13.5578 0.752123 19.2394
309 2 2.2208 8.00241 0.777876 13.6069
402 1 -1.1104 9.43819 2.14041 20.7158
571 1 -1.1104 9.42006 13.3426 26.1119
390 1 -1.1104 12.3831 2.08427 20.6186
407 1 -1.1104 9.39233 -0.601911 20.5534
9131 2 2.2208 -0.49904 3.53028 24.8064
417 2 2.2208 5.22596 6.45909 16.422
418 2 2.2208 5.12903 12.0916 16.414
419 1 -1.1104 1.17624 7.6923 17.8614
421 1 -1.1104 0.968595 7.80682 15.1608
425 1 -1.1104 0.955901 4.83011 17.8572
426 1 -1.1104 0.961285 10.5353 17.756
429 2 2.2208 5.19485 9.20722 19.2837
430 1 -1.1104 1.00334 5.08883 15.1218
432 1 -1.1104 1.01233 10.4294 15.1279
437 1 -1.1104 3.92098 7.70651 17.8927
438 2 2.2208 2.35813 6.35808 19.2462
439 2 2.2208 2.44522 11.8378 19.178
440 1 -1.1104 3.85688 7.80218 15.1052
442 2 2.2208 2.49084 9.109 16.4994
443 1 -1.1104 3.9889 5.00941 17.7303
444 1 -1.1104 3.76957 10.5545 17.8338
445 1 -1.1104 3.82484 5.03734 14.9774
447 1 -1.1104 3.74043 10.5897 15.063
9302 1 -1.1104 1.12792 10.6251 20.6208
435 1 -1.1104 6.51449 10.74 15.0506
422 1 -1.1104 1.03314 7.79243 20.5625
423 1 -1.1104 6.62936 8.0351 14.9397
427 1 -1.1104 6.6022 4.99324 18.0164
436 1 -1.1104 6.60041 10.5849 20.6302
434 1 -1.1104 6.36941 4.97226 20.7833
420 1 -1.1104 6.71093 7.88701 17.8354
433 1 -1.1104 6.66812 5.1774 15.1553
424 1 -1.1104 6.52824 7.72923 20.7119
428 1 -1.1104 6.4296 10.5825 17.9642
446 1 -1.1104 3.74776 4.95627 20.6311
441 1 -1.1104 3.76065 8.09694 20.5913
431 1 -1.1104 0.954108 4.89921 20.6548
375 2 2.2208 13.5661 6.44531 19.0575
454 2 2.2208 10.7887 6.42158 16.4728
455 2 2.2208 10.6915 12.0028 16.4925
456 1 -1.1104 12.2862 7.78611 17.8105
457 1 -1.1104 12.2476 7.73205 15.0638
459 1 -1.1104 12.0018 4.95316 17.7337
460 1 -1.1104 12.2154 10.5584 17.8213
461 2 2.2208 10.7769 9.31558 19.1965
462 1 -1.1104 12.185 4.9506 15.0237
464 1 -1.1104 12.1518 10.5633 14.9226
466 1 -1.1104 9.4849 7.93603 17.9157
467 2 2.2208 7.96711 6.40476 19.3394
468 2 2.2208 7.85152 12.0986 19.3796
469 1 -1.1104 9.48583 7.90488 15.0884
471 2 2.2208 7.95105 9.32346 16.2989
472 1 -1.1104 9.29331 5.0653 17.7755
473 1 -1.1104 9.13818 10.8094 17.8523
474 1 -1.1104 9.47202 5.1326 14.9526
476 1 -1.1104 9.26595 10.7648 14.8724
463 1 -1.1104 12.0315 4.8648 20.5164
470 1 -1.1104 9.32188 7.7567 20.6139
458 1 -1.1104 12.0517 7.88356 20.7939
9204 2 2.2208 13.4792 9.10686 16.3521
9206 2 2.2208 13.4593 11.9706 19.3289
475 1 -1.1104 9.18756 4.95055 20.6129
307 2 2.2208 13.5818 0.573091 13.4505
480 2 2.2208 5.14291 17.5935 16.2663
481 1 -1.1104 1.02624 13.5989 18.2663
482 1 -1.1104 0.86459 19.0318 17.8736
485 1 -1.1104 1.01777 13.1781 15.3399
486 1 -1.1104 0.916148 18.8132 15.0941
491 1 -1.1104 0.87922 16.2277 17.9398
493 2 2.2208 5.35495 14.9005 19.1286
494 2 2.2208 5.10058 20.4675 19.1994
495 1 -1.1104 0.863956 15.9841 15.1107
498 1 -1.1104 3.82007 13.3212 18.154
499 1 -1.1104 3.82693 19.2431 17.6191
500 2 2.2208 2.46936 17.7758 18.8809
501 1 -1.1104 3.77222 13.6418 15.1926
502 1 -1.1104 3.62744 19.042 14.9219
503 1 -1.1104 3.08818 19.2487 20.4294
504 2 2.2208 2.31357 14.7904 16.4295
505 2 2.2208 2.21902 20.5723 16.3635
506 1 -1.1104 3.6043 16.2724 17.5088
507 1 -1.1104 3.67906 16.2562 14.9029
508 1 -1.1104 3.95986 16.6075 20.1147
496 1 -1.1104 6.4539 16.2427 14.941
487 1 -1.1104 6.46789 13.521 15.0352
484 1 -1.1104 6.45025 19.0394 17.8818
483 1 -1.1104 6.57586 13.553 17.7338
489 1 -1.1104 6.39982 18.9776 15.0251
488 1 -1.1104 6.08422 13.3038 20.4936
492 1 -1.1104 6.45768 16.2645 17.7168
413 2 2.2208 8.03945 17.6346 24.9419
9270 2 2.2208 13.4856 14.8318 16.4802
514 2 2.2208 10.7383 17.6518 16.4123
515 1 -1.1104 12.0776 13.3428 17.933
516 1 -1.1104 12.2351 18.99 17.7953
517 1 -1.1104 12.1538 13.4958 15.0783
519 1 -1.1104 12.1354 19.0386 15.0111
521 1 -1.1104 12.0143 16.1791 17.7972
522 2 2.2208 10.7304 14.8828 19.2492
523 2 2.2208 10.7671 20.3933 19.161
524 1 -1.1104 12.1714 16.3338 14.7951
526 1 -1.1104 9.39703 13.4528 17.8803
527 1 -1.1104 9.45911 19.1167 17.8089
528 2 2.2208 7.93769 17.584 19.2168
529 1 -1.1104 9.322 13.3423 15.1016
531 1 -1.1104 9.17145 18.911 15.1961
533 2 2.2208 7.97768 14.8899 16.3265
534 2 2.2208 7.89049 20.4335 16.531
535 1 -1.1104 9.20902 16.2382 17.8632
536 1 -1.1104 9.36987 16.2217 14.8912
537 1 -1.1104 9.526 16.2207 20.7219
9272 2 2.2208 13.6087 17.623 19.2548
525 1 -1.1104 12.3424 16.1937 20.5878
520 1 -1.1104 12.0024 19.0486 20.6866
9273 2 2.2208 13.5391 20.4286 16.5124
497 1 -1.1104 6.70074 16.2297 20.6268
532 1 -1.1104 9.15806 18.8997 20.6278
530 1 -1.1104 9.14708 13.4257 20.6934
518 1 -1.1104 11.9906 13.4466 20.8404
347 1 -1.1104 0.903718 -3.32013 20.6265
373 1 -1.1104 3.70728 -0.712381 20.7103
349 1 -1.1104 0.930222 2.08227 20.6537
540 2 2.2208 5.25286 0.670067 22.057
541 1 -1.1104 0.800749 -3.60925 23.3522
542 1 -1.1104 0.907716 1.92078 23.5303
545 1 -1.1104 0.904003 -3.69035 26.1915
546 1 -1.1104 0.926506 2.19334 26.3968
549 1 -1.1104 0.897108 -0.766426 23.443
551 2 2.2208 5.06225 -2.02404 24.9089
552 2 2.2208 5.22443 3.48908 24.9718
553 1 -1.1104 1.11292 -0.844561 26.263
555 1 -1.1104 3.69554 -3.46377 23.5752
556 1 -1.1104 3.69966 2.11547 23.3677
557 2 2.2208 2.36348 0.786074 24.9393
558 1 -1.1104 3.67084 -3.4565 26.3531
559 1 -1.1104 3.83116 1.93757 26.2724
560 2 2.2208 2.28691 -2.00859 22.2002
561 2 2.2208 2.34742 3.44612 22.0871
562 1 -1.1104 3.63362 -0.776366 23.4773
563 1 -1.1104 3.82558 -0.697375 26.4031
544 1 -1.1104 6.50496 2.09298 23.5131
543 1 -1.1104 6.50111 -3.42859 23.509
554 1 -1.1104 6.57537 -0.571439 26.3116
548 1 -1.1104 6.64626 2.17849 26.2471
550 1 -1.1104 6.55239 -0.682135 23.3995
547 1 -1.1104 6.41464 -3.35339 26.3637
565 2 2.2208 10.6595 20.488 24.8875
388 1 -1.1104 12.1059 -3.40053 20.8019
9133 2 2.2208 13.6173 17.5578 24.9228
632 1 -1.1104 12.1831 18.7839 26.2179
9073 2 2.2208 13.6166 9.29287 27.7146
400 1 -1.1104 9.28868 -3.31576 20.6345
395 1 -1.1104 12.1505 -0.630134 20.6611
601 2 2.2208 13.5386 -2.06076 22.0568
374 2 2.2208 13.4037 3.67091 22.0348
575 2 2.2208 10.8015 0.624307 22.0859
576 1 -1.1104 12.1595 -3.40591 23.5747
577 1 -1.1104 12.1244 2.19487 23.4666
578 1 -1.1104 12.2461 -3.48527 26.5266
579 1 -1.1104 12.3404 2.35578 26.2839
580 1 -1.1104 12.2104 -0.577197 23.5141
581 2 2.2208 10.7492 -2.13971 24.9641
582 2 2.2208 10.7854 3.61852 24.9638
583 1 -1.1104 12.2325 -0.690189 26.285
584 1 -1.1104 9.31499 -3.45782 23.6246
585 1 -1.1104 9.17412 2.09891 23.3326
586 2 2.2208 8.05921 0.713548 24.8565
587 1 -1.1104 9.39247 -3.47762 26.3758
588 1 -1.1104 9.41119 2.14874 26.2406
589 2 2.2208 7.97869 -1.9556 22.0233
590 2 2.2208 7.97001 3.63409 22.1489
591 1 -1.1104 9.44039 -0.756405 23.4622
592 1 -1.1104 9.33385 -0.61033 26.2315
602 2 2.2208 13.562 0.69075 24.8485
574 1 -1.1104 12.1319 19.1344 23.526
569 2 2.2208 10.7354 17.6672 22.0937
448 1 -1.1104 3.93996 11.0403 20.5857
9412 1 -1.1104 1.04549 10.5228 26.3597
604 2 2.2208 5.1321 6.42637 22.0743
605 2 2.2208 5.33521 11.8589 22.2692
606 1 -1.1104 0.951744 7.57054 23.4351
608 1 -1.1104 0.982793 7.74517 26.3937
610 1 -1.1104 0.945937 4.76418 23.389
611 1 -1.1104 1.23773 10.3041 23.8606
614 2 2.2208 5.29006 9.13059 24.7966
615 1 -1.1104 0.958183 4.9392 26.1431
619 1 -1.1104 3.84535 7.66326 23.4779
620 2 2.2208 2.32984 6.35686 24.8927
621 2 2.2208 2.50098 11.9147 25.0125
622 1 -1.1104 3.759 7.73027 26.2199
623 2 2.2208 2.19288 9.21092 22.0601
624 1 -1.1104 3.57235 5.03171 23.2961
625 1 -1.1104 3.88211 10.3977 23.3602
626 1 -1.1104 3.76075 4.91245 26.2877
627 1 -1.1104 3.92234 10.5108 26.4521
618 1 -1.1104 6.65381 10.6009 26.2884
612 1 -1.1104 6.3935 4.89202 23.605
607 1 -1.1104 6.55118 7.76045 23.3946
613 1 -1.1104 6.71953 10.5664 23.448
609 1 -1.1104 6.66368 7.91246 26.1762
617 1 -1.1104 6.59693 5.03105 26.3397
634 1 -1.1104 12.289 16.3215 23.5503
573 1 -1.1104 12.1925 13.3102 23.5041
477 1 -1.1104 9.43262 10.76 20.7632
465 1 -1.1104 12.0773 10.6641 20.7135
328 2 2.2208 2.41477 -1.93969 27.6752
599 1 -1.1104 9.43067 16.2788 26.2463
9168 2 2.2208 13.6235 11.8762 24.8525
380 2 2.2208 10.6238 6.33722 21.9989
383 2 2.2208 8.03154 11.9014 24.9271
564 2 2.2208 7.91995 6.33318 24.8435
567 1 -1.1104 9.28909 7.59163 26.1957
568 1 -1.1104 9.26664 7.72049 23.407
593 1 -1.1104 12.1253 10.5472 26.4039
594 1 -1.1104 12.228 5.1696 26.2412
595 2 2.2208 10.8012 9.03673 24.8908
600 1 -1.1104 12.0644 10.567 23.6155
603 1 -1.1104 12.1035 4.93164 23.3138
628 1 -1.1104 12.3187 7.93774 26.2979
629 1 -1.1104 12.0927 7.72002 23.5619
630 2 2.2208 10.629 12.0327 22.1033
635 1 -1.1104 9.3608 10.3881 26.291
636 1 -1.1104 9.39065 4.86186 26.2814
637 1 -1.1104 9.37791 10.6011 23.5536
638 1 -1.1104 9.27735 4.92704 23.4982
639 2 2.2208 8.07648 9.1873 21.9707
640 2 2.2208 13.4639 9.20647 22.1987
9127 2 2.2208 13.571 6.4279 24.7847
411 1 -1.1104 9.2843 18.8661 23.4151
490 1 -1.1104 6.18581 19.0771 20.6028
478 1 -1.1104 6.69039 13.3937 23.4463
416 1 -1.1104 6.68951 16.3041 23.397
570 1 -1.1104 6.59037 18.9388 26.1649
616 1 -1.1104 0.967689 13.5054 26.2322
376 3 0 0.345727 18.0618 21.794
409 3 0 1.644 14.1526 21.6974
414 2 2.2208 2.61026 20.7444 22.0249
415 1 -1.1104 4.10669 15.9817 23.2693
449 1 -1.1104 3.76143 13.3765 26.3046
450 1 -1.1104 3.97824 16.0426 26.3847
451 3 0 1.74139 17.1892 24.9322
452 1 -1.1104 3.99756 19.2929 26.5763
453 2 2.2208 5.15541 17.5008 22.0991
479 2 2.2208 5.1589 14.8403 24.8064
509 2 2.2208 5.12303 20.2407 24.8329
511 1 -1.1104 0.685516 19.3225 26.5363
513 1 -1.1104 3.80869 13.0729 23.5209
539 1 -1.1104 3.81995 19.3373 23.0584
510 1 -1.1104 6.65474 19.2388 23.5067
538 1 -1.1104 6.60523 13.3377 26.2708
566 2 2.2208 10.9715 14.6694 24.8667
9170 2 2.2208 13.5689 14.7664 22.0914
9074 2 2.2208 13.6202 14.6207 27.7408
597 2 2.2208 8.09718 20.3372 22.0089
631 1 -1.1104 12.2273 13.2279 26.3991
9130 2 2.2208 13.4533 20.3401 22.1187
379 1 -1.1104 9.41388 13.3712 23.4777
512 1 -1.1104 6.55987 16.1958 26.2408
572 1 -1.1104 9.40296 19.0823 26.2577
381 1 -1.1104 12.367 15.9913 26.3719
598 1 -1.1104 9.56107 16.1657 23.5494
596 2 2.2208 8.03851 14.9358 22.1719
28 2 2.2208 5.16195 12.0417 27.5941
332 2 2.2208 10.756 6.39368 27.7335
326 2 2.2208 10.7749 17.6453 27.5795
321 2 2.2208 13.7144 20.3398 27.7281
334 2 2.2208 8.00649 -1.91834 27.7151
306 2 2.2208 2.46844 14.6936 27.7595
308 2 2.2208 2.30829 20.4608 27.785
325 2 2.2208 2.15973 3.69231 27.6463
378 2 2.2208 7.9803 14.9493 27.5852
333 2 2.2208 10.9942 0.790283 27.7148
304 2 2.2208 2.35494 0.811175 13.617
331 2 2.2208 7.97745 9.17762 27.7695
329 2 2.2208 7.97454 20.4485 27.6256
338 2 2.2208 5.23551 6.35427 27.6741
330 2 2.2208 10.7645 11.9629 27.7265
335 2 2.2208 8.01099 3.48975 27.6368
340 2 2.2208 5.1764 17.6065 27.6893
318 2 2.2208 5.06839 14.7912 13.4585
336 2 2.2208 13.5484 -2.01041 27.7431
642 2 2.2208 5.10499 23.3638 5.17192
643 2 2.2208 5.22443 28.9799 5.05444
644 1 -1.1104 0.780218 24.8654 1.05425
645 1 -1.1104 0.975728 24.6095 3.85528
646 1 -1.1104 0.945377 21.9352 0.90079
647 1 -1.1104 0.829148 27.5863 0.91757
648 2 2.2208 5.178 26.0914 2.18413
649 1 -1.1104 0.94232 21.7554 3.84258
650 1 -1.1104 0.881406 27.4347 3.7842
651 1 -1.1104 3.63274 24.6715 0.590184
652 2 2.2208 2.24205 23.3887 2.34216
653 2 2.2208 2.33121 28.8716 2.42207
654 1 -1.1104 3.7393 24.7942 3.68957
655 2 2.2208 2.42027 26.1976 5.11159
656 1 -1.1104 3.69392 21.8158 1.21948
657 1 -1.1104 3.52226 27.3664 1.10727
658 1 -1.1104 3.638 21.9637 3.92643
659 1 -1.1104 3.81618 27.4984 3.7962
684 1 -1.1104 6.25208 24.344 1.24241
666 1 -1.1104 6.15704 27.5438 0.731225
790 1 -1.1104 3.68394 21.8389 6.58198
785 1 -1.1104 0.942174 21.7949 6.69823
664 1 -1.1104 6.59034 24.5176 3.88015
783 1 -1.1104 0.904764 24.6036 6.64675
952 2 2.2208 5.14056 22.9055 -0.241654
667 1 -1.1104 6.42069 21.8988 3.66725
668 1 -1.1104 6.57972 27.3516 3.59658
663 1 -1.1104 6.43877 21.5462 0.806861
789 1 -1.1104 3.66421 24.7097 6.56277
788 1 -1.1104 6.69782 27.4044 6.36582
784 1 -1.1104 6.54007 24.5899 6.69399
661 2 2.2208 13.6478 42.9328 10.7001
669 2 2.2208 10.8224 23.216 5.30013
670 2 2.2208 10.6397 28.8291 5.13141
671 1 -1.1104 12.3543 24.3813 1.03606
672 1 -1.1104 12.1807 24.5873 3.86428
673 1 -1.1104 12.1983 21.7059 1.03603
674 1 -1.1104 12.2495 27.1227 1.25071
675 2 2.2208 10.8929 25.7902 2.431
676 1 -1.1104 12.1077 21.7948 3.87726
677 1 -1.1104 11.9641 27.3422 3.94336
678 1 -1.1104 9.58892 24.6072 1.1547
679 2 2.2208 7.92839 23.1493 2.43609
680 2 2.2208 7.76884 28.9131 2.24556
681 1 -1.1104 9.37578 24.5154 3.84315
682 2 2.2208 7.95454 26.0241 5.0023
683 1 -1.1104 9.31301 21.7982 1.04954
685 1 -1.1104 9.36978 21.7416 3.76861
686 1 -1.1104 9.33884 27.3257 3.40048
821 1 -1.1104 9.38204 27.2854 6.59376
688 2 2.2208 13.5063 28.7924 2.4692
817 1 -1.1104 12.1194 21.7644 6.61999
689 2 2.2208 13.5085 26.0134 5.35145
687 2 2.2208 13.6637 23.2504 2.45379
818 1 -1.1104 12.0341 27.3481 6.58371
9748 2 2.2208 13.5904 28.7909 13.5734
691 2 2.2208 5.25471 34.5052 5.02701
692 1 -1.1104 0.949348 30.2561 1.01888
693 1 -1.1104 0.837799 36.0312 1.0635
695 1 -1.1104 0.871127 30.2803 3.87902
696 1 -1.1104 1.14834 35.968 3.82716
698 1 -1.1104 1.05174 33.199 0.913816
699 2 2.2208 5.24792 31.8748 2.21354
700 2 2.2208 5.08846 37.3699 2.4609
701 1 -1.1104 1.14663 33.1962 3.60837
703 1 -1.1104 3.59944 30.4933 0.948298
704 1 -1.1104 3.52966 36.1471 1.01009
705 2 2.2208 2.45192 34.5246 2.27514
706 1 -1.1104 3.48654 30.2656 3.74037
707 1 -1.1104 3.86899 35.9437 3.81056
708 2 2.2208 2.57165 31.656 5.11882
709 2 2.2208 2.45116 37.4402 5.10001
710 1 -1.1104 3.81654 33.3144 0.831323
711 1 -1.1104 3.92541 33.0921 3.75809
714 1 -1.1104 6.44558 30.2868 1.14795
841 1 -1.1104 0.917712 35.9815 6.74581
715 1 -1.1104 6.40617 30.315 3.68128
697 1 -1.1104 6.6772 36.0087 3.75085
846 1 -1.1104 3.81791 30.1236 6.52798
847 1 -1.1104 3.89976 35.7007 6.68071
716 1 -1.1104 6.63404 33.1813 0.873815
843 1 -1.1104 6.69565 35.9144 6.58385
702 1 -1.1104 6.62574 33.1847 3.75945
694 1 -1.1104 6.4959 35.9931 0.975457
844 1 -1.1104 1.01246 33.1713 6.60823
845 1 -1.1104 6.61552 33.0058 6.56456
842 1 -1.1104 6.47721 30.2592 6.70003
848 1 -1.1104 3.90814 33.04 6.53452
717 2 2.2208 10.8419 34.4217 5.08456
718 1 -1.1104 12.4174 30.2865 1.05683
719 1 -1.1104 12.2225 35.8832 0.955339
720 1 -1.1104 12.1607 30.2469 3.81172
721 1 -1.1104 12.1985 35.7942 3.82873
722 1 -1.1104 12.2616 33.0601 0.736727
723 2 2.2208 10.9317 31.6129 2.18632
724 2 2.2208 10.7632 37.4194 2.49034
725 1 -1.1104 12.152 33.0477 3.6714
726 1 -1.1104 9.07728 30.5037 1.32601
727 1 -1.1104 9.36858 36.1113 1.00912
728 2 2.2208 8.05383 34.5736 2.28636
729 1 -1.1104 9.24162 30.1648 3.8762
730 1 -1.1104 9.4619 36.0491 3.85329
731 2 2.2208 7.94491 31.7086 5.05648
732 2 2.2208 8.13062 37.4066 5.18093
733 1 -1.1104 9.56282 33.2175 0.940406
734 1 -1.1104 9.28478 33.2455 3.77386
878 1 -1.1104 9.38698 32.9806 6.55584
877 1 -1.1104 9.41721 35.8415 6.55209
948 2 2.2208 13.565 31.7041 5.07793
875 1 -1.1104 12.1226 32.9933 6.57531
873 1 -1.1104 12.0574 30.132 6.58047
735 2 2.2208 13.5631 34.4566 2.24275
947 2 2.2208 13.6538 37.2655 5.09105
874 1 -1.1104 12.2502 35.7776 6.50892
876 1 -1.1104 9.20228 30.2035 6.68227
1131 2 2.2208 13.6124 34.4158 13.6303
758 1 -1.1104 3.64104 38.9371 3.8169
756 1 -1.1104 3.6867 38.8434 0.95629
747 1 -1.1104 0.889339 38.8009 3.74458
742 1 -1.1104 0.924903 38.8307 0.989417