ITEM: TIMESTEP
20000
ITEM: NUMBER OF ATOMS
17760
ITEM: BOX BOUNDS pp pp pp
-3.8291381134266667e-01 2.7722913811342764e+01
-4.6657817257280572e+00 3.3274578172572728e+02
-3.8441846284578063e-01 2.7724418462846071e+01
ITEM: ATOMS id type q x y z
1 2 2.2208 5.3035 0.720167 5.20116
2 1 -1.1104 1.20013 -3.28959 1.16237
3 1 -1.1104 1.27148 2.16848 0.885529
6 1 -1.1104 1.20798 -3.32778 3.83955
7 1 -1.1104 1.17861 2.34972 3.75038
10 1 -1.1104 1.14068 -0.598322 1.14346
12 2 2.2208 5.28703 -2.02449 2.45569
13 2 2.2208 5.3327 3.52922 2.32644
14 1 -1.1104 1.15519 -0.595829 3.87193
16 1 -1.1104 4.04948 -3.14692 0.922493
17 1 -1.1104 4.11017 2.20487 0.910438
18 2 2.2208 2.5618 0.794776 2.36159
19 1 -1.1104 3.9754 -3.39351 3.74672
20 1 -1.1104 3.97495 2.22676 3.74264
21 2 2.2208 2.62086 -2.02321 5.30503
22 2 2.2208 2.55029 3.59926 5.21577
23 1 -1.1104 4.07381 -0.466173 1.00462
24 1 -1.1104 3.90285 -0.595638 3.77231
9055 2 2.2208 -0.198014 -1.96842 2.52306
9058 2 2.2208 -0.301035 0.896903 5.24785
9059 2 2.2208 -0.34657 3.6705 2.45004
173 1 -1.1104 3.94701 2.14897 6.68093
167 1 -1.1104 1.12463 2.12704 6.68825
8 1 -1.1104 6.75014 -3.46353 3.75058
311 2 2.2208 10.8624 3.62874 13.6941
170 1 -1.1104 1.20368 -0.619677 6.68346
172 1 -1.1104 4.02368 -3.54072 6.57499
8969 2 2.2208 13.5757 12.0265 7.87233
11 1 -1.1104 6.87137 -0.516918 0.791216
5 1 -1.1104 6.87574 2.22859 1.07513
9 1 -1.1104 6.747 1.98363 3.83056
4 1 -1.1104 6.76797 -3.31204 0.938451
15 1 -1.1104 6.65251 -0.75359 3.88719
31 2 2.2208 10.8354 0.772316 5.14872
32 1 -1.1104 12.3399 -3.29016 0.984182
33 1 -1.1104 12.4794 2.22689 0.878718
34 1 -1.1104 12.3621 -3.36807 3.74392
35 1 -1.1104 12.3264 2.21847 3.68724
36 1 -1.1104 12.2215 -0.531906 1.00599
37 2 2.2208 10.9636 -2.00089 2.38985
38 2 2.2208 10.7865 3.59968 2.35682
39 1 -1.1104 12.4253 -0.483691 3.83485
40 1 -1.1104 9.4925 -3.46444 0.96039
41 1 -1.1104 9.58085 2.22654 0.850643
42 2 2.2208 8.19917 0.772629 2.38737
43 1 -1.1104 9.62826 -3.43186 3.88486
44 1 -1.1104 9.56164 2.2278 3.57828
45 2 2.2208 8.10349 -2.04605 5.13678
46 2 2.2208 8.09139 3.66401 5.1547
47 1 -1.1104 9.58241 -0.715263 0.852522
48 1 -1.1104 9.52645 -0.649499 3.71232
210 1 -1.1104 9.5585 -0.74087 6.53253
209 1 -1.1104 9.49531 2.11031 6.39132
50 1 -1.1104 12.1743 19.0211 9.42849
207 1 -1.1104 12.322 -0.48955 6.56703
205 1 -1.1104 12.4453 -3.45245 6.51925
168 1 -1.1104 6.71298 -3.51199 6.51282
208 1 -1.1104 9.59506 -3.46606 6.62058
171 1 -1.1104 6.78111 -0.684979 6.58997
25 2 2.2208 10.812 17.6828 10.8617
308 2 2.2208 2.35076 20.5677 -0.323046
8759 2 2.2208 -0.208032 14.9696 8.08348
54 2 2.2208 5.28787 6.36248 5.08467
55 2 2.2208 5.13962 12.001 5.27656
56 1 -1.1104 0.98336 7.90261 0.962717
58 1 -1.1104 0.97493 7.79106 3.85941
60 1 -1.1104 1.06857 5.0959 0.961999
61 1 -1.1104 1.13106 10.6741 0.964023
66 2 2.2208 5.19711 9.1332 2.34253
67 1 -1.1104 1.09653 5.11829 3.90288
68 1 -1.1104 1.11781 10.677 3.84001
71 1 -1.1104 3.78889 7.83857 0.973948
72 2 2.2208 2.45702 6.48057 2.34981
73 2 2.2208 2.49092 12.0206 2.5098
74 1 -1.1104 3.73806 7.76438 3.78112
75 2 2.2208 2.45131 9.2119 5.18838
76 1 -1.1104 3.81675 5.03161 1.03749
77 1 -1.1104 3.92816 10.7319 1.02979
79 1 -1.1104 3.85259 4.96775 3.80672
80 1 -1.1104 3.81217 10.6347 3.803
62 1 -1.1104 1.20096 10.5363 6.60384
9057 2 2.2208 13.6599 17.6557 8.1965
234 1 -1.1104 1.30282 7.83417 6.64853
236 1 -1.1104 1.09248 4.93701 6.68701
309 2 2.2208 8.22942 0.740802 13.5675
306 2 2.2208 2.43418 14.6295 -0.296399
8979 2 2.2208 -0.352215 12.1246 11.0594
163 1 -1.1104 9.39938 16.2765 6.61205
57 1 -1.1104 6.61427 7.79892 0.920564
69 1 -1.1104 6.83573 4.91981 3.72575
64 1 -1.1104 6.68284 10.6427 1.25245
63 1 -1.1104 6.74328 5.05367 0.920367
59 1 -1.1104 6.59303 7.73654 3.71754
70 1 -1.1104 6.587 10.6376 3.91148
84 2 2.2208 10.808 6.47429 5.11844
85 2 2.2208 10.9331 11.9934 5.13198
86 1 -1.1104 12.2231 7.83884 0.995917
87 1 -1.1104 12.2167 7.90424 3.76416
88 1 -1.1104 12.2403 4.9705 0.9136
89 1 -1.1104 12.3834 10.619 1.01361
91 2 2.2208 10.8719 9.29239 2.37796
92 1 -1.1104 12.2753 4.90579 3.68505
93 1 -1.1104 12.1592 10.6501 3.80578
94 1 -1.1104 9.49143 8.04504 0.897348
95 2 2.2208 7.97755 6.49866 2.33078
96 2 2.2208 8.14386 11.9515 2.40464
97 1 -1.1104 9.3847 7.85932 3.93885
98 2 2.2208 7.95408 9.26138 5.12225
99 1 -1.1104 9.4879 5.07784 0.980137
100 1 -1.1104 9.56871 10.7157 1.03924
102 1 -1.1104 9.48099 5.0213 3.71494
103 1 -1.1104 9.46591 10.5938 3.81978
235 1 -1.1104 6.66406 7.74902 6.43452
237 1 -1.1104 6.75027 5.02329 6.5928
303 2 2.2208 5.46963 -1.99266 13.6195
8986 2 2.2208 -0.243666 9.25445 8.05464
9063 2 2.2208 -0.357694 9.31394 2.38509
313 2 2.2208 5.2563 9.11625 13.5429
105 1 -1.1104 9.68149 13.475 12.3755
288 1 -1.1104 6.64621 19.0612 9.47539
317 2 2.2208 8.08151 6.37084 13.625
106 2 2.2208 5.07062 17.6429 5.33643
107 1 -1.1104 0.94863 13.3621 1.14995
109 1 -1.1104 0.928395 19.0293 0.964359
113 1 -1.1104 0.95519 13.6136 3.89234
114 1 -1.1104 0.960479 18.9956 3.87004
116 1 -1.1104 0.774278 16.2003 0.479255
119 2 2.2208 5.18811 14.777 2.51072
120 2 2.2208 5.16937 20.3253 2.65542
121 1 -1.1104 1.00293 16.3658 3.73675
123 1 -1.1104 3.75803 13.3113 1.17778
125 1 -1.1104 3.73219 18.8866 1.18144
127 2 2.2208 2.33439 17.6548 2.3954
128 1 -1.1104 3.60126 13.3496 3.9761
129 1 -1.1104 3.61929 18.982 3.90073
130 2 2.2208 2.41995 14.85 5.23121
131 2 2.2208 2.2755 20.4651 5.2333
132 1 -1.1104 3.81248 16.0147 1.25586
134 1 -1.1104 3.79457 16.1914 4.02922
108 1 -1.1104 1.20624 13.4822 6.76712
124 1 -1.1104 3.90459 13.2066 6.8333
138 1 -1.1104 6.46356 18.9387 1.13257
232 1 -1.1104 0.898316 18.9315 6.63603
305 2 2.2208 5.18214 3.60738 13.5723
154 1 -1.1104 9.61281 13.5295 6.46705
149 1 -1.1104 12.1434 16.1111 6.76582
122 1 -1.1104 6.51371 16.3866 4.0001
115 1 -1.1104 6.53284 13.5461 4.01985
140 1 -1.1104 6.5832 16.2475 1.05133
139 1 -1.1104 6.47501 18.9725 3.91864
110 1 -1.1104 6.67841 13.5712 1.02635
141 2 2.2208 10.9739 17.4832 5.19752
142 1 -1.1104 12.3626 13.3146 0.996148
144 1 -1.1104 12.2333 18.8485 1.07345
146 1 -1.1104 12.3866 13.4297 3.84523
147 1 -1.1104 12.4456 18.7494 3.81523
148 1 -1.1104 12.2998 16.2157 1.06617
150 2 2.2208 10.8227 14.7989 2.47783
151 2 2.2208 10.8913 20.2382 2.58068
152 1 -1.1104 12.3037 16.062 3.80874
153 1 -1.1104 9.49438 13.4543 0.981733
155 1 -1.1104 9.38143 19.0433 1.03177
157 2 2.2208 7.8913 17.6698 2.34433
158 1 -1.1104 9.40109 13.3318 3.59981
159 1 -1.1104 9.58216 18.8394 3.90903
160 2 2.2208 7.92134 14.9785 5.23331
161 2 2.2208 8.0214 20.3136 5.24855
162 1 -1.1104 9.39187 16.2504 0.994551
164 1 -1.1104 9.4099 16.2005 3.95828
118 1 -1.1104 6.56539 16.1178 6.7158
112 1 -1.1104 6.73732 19.0352 6.80869
145 1 -1.1104 12.307 19.0099 6.69914
156 1 -1.1104 9.52839 18.9589 6.75403
143 1 -1.1104 12.3888 13.3089 6.50546
9317 2 2.2208 -0.23677 0.822901 -0.475001
166 1 -1.1104 1.07845 -3.32178 6.81035
174 1 -1.1104 4.01172 -0.708261 6.68712
169 1 -1.1104 6.70405 2.21864 6.60335
289 1 -1.1104 6.73627 16.324 9.43657
9062 2 2.2208 -0.308166 6.37229 5.34838
8953 2 2.2208 -0.320342 3.70251 8.06249
8952 2 2.2208 -0.30495 -1.9198 7.99481
175 2 2.2208 5.38146 0.785801 10.719
176 1 -1.1104 1.07079 -3.40377 12.1485
177 1 -1.1104 1.06728 2.22634 12.2429
180 1 -1.1104 1.33116 -3.42277 9.41881
181 1 -1.1104 1.03998 2.22638 9.5737
184 1 -1.1104 1.15728 -0.614883 12.1842
186 2 2.2208 5.31936 -2.06173 7.9418
187 2 2.2208 5.32033 3.41396 7.92422
188 1 -1.1104 1.17077 -0.52865 9.43648
190 1 -1.1104 3.95958 -3.30133 12.1933
191 1 -1.1104 3.9611 2.33554 12.1719
192 2 2.2208 2.54144 0.827149 8.03315
193 1 -1.1104 4.00452 -3.35903 9.32579
194 1 -1.1104 3.83837 2.22443 9.4073
195 2 2.2208 2.62869 -1.99011 10.8407
196 2 2.2208 2.47647 3.692 10.8531
197 1 -1.1104 4.06764 -0.503239 12.2238
198 1 -1.1104 3.96923 -0.507354 9.5877
8918 2 2.2208 -0.254893 0.793059 10.8579
183 1 -1.1104 6.73315 2.08238 9.20936
206 1 -1.1104 12.1924 2.18899 6.57901
178 1 -1.1104 6.85111 -3.42071 12.1895
185 1 -1.1104 6.77067 -0.689054 12.2924
189 1 -1.1104 6.83162 -0.626303 9.40055
182 1 -1.1104 6.73907 -3.46343 9.3475
179 1 -1.1104 6.83722 2.14015 12.0536
211 2 2.2208 10.987 0.929993 10.6973
212 1 -1.1104 12.355 -3.33236 12.3963
213 1 -1.1104 12.2744 2.33867 12.1936
214 1 -1.1104 12.4168 -3.37463 9.43235
215 1 -1.1104 12.4847 2.28655 9.34787
216 1 -1.1104 12.4181 -0.477742 12.1537
217 2 2.2208 10.9859 -1.9694 8.09337
218 2 2.2208 10.9558 3.55681 7.87067
219 1 -1.1104 12.4651 -0.580804 9.25927
220 1 -1.1104 9.59671 -3.30183 12.2904
221 1 -1.1104 9.61086 2.14058 12.1682
222 2 2.2208 8.23383 0.723307 8.03018
223 1 -1.1104 9.65709 -3.49101 9.42338
224 1 -1.1104 9.58854 2.17467 9.23093
225 2 2.2208 8.21781 -1.99991 10.8681
226 2 2.2208 8.15445 3.62806 10.8115
227 1 -1.1104 9.65531 -0.530646 12.2301
228 1 -1.1104 9.60056 -0.600412 9.3787
326 2 2.2208 10.8714 17.6503 -0.416735
27 1 -1.1104 12.2145 19.0951 12.2924
302 2 2.2208 -0.124685 -1.99493 13.5234
8973 2 2.2208 13.5521 9.11865 10.8422
290 1 -1.1104 6.75763 13.3625 9.40752
239 1 -1.1104 3.98624 5.14689 6.53159
8987 2 2.2208 -0.407516 6.40521 10.7844
9084 2 2.2208 -0.432649 9.3725 13.6612
238 1 -1.1104 3.99848 7.78716 6.47767
78 1 -1.1104 3.93111 10.5222 6.60142
240 2 2.2208 5.30109 6.52555 10.7257
241 2 2.2208 5.30475 11.7928 10.8393
242 1 -1.1104 1.04119 7.88222 12.2423
244 1 -1.1104 1.09208 7.9402 9.38774
246 1 -1.1104 0.931936 5.08875 12.2344
247 1 -1.1104 1.03887 10.5922 12.291
250 2 2.2208 5.27034 9.13984 7.94781
251 1 -1.1104 1.16551 5.13986 9.48988
252 1 -1.1104 1.08681 10.7018 9.43972
255 1 -1.1104 3.92146 7.77063 12.2123
256 2 2.2208 2.49763 6.42284 7.97973
257 2 2.2208 2.59884 11.8184 8.10768
258 1 -1.1104 3.84927 7.88607 9.23076
259 2 2.2208 2.38166 9.35282 10.8518
260 1 -1.1104 3.9895 5.00065 12.1662
261 1 -1.1104 3.9209 10.462 12.2751
262 1 -1.1104 4.0775 5.01023 9.47074
263 1 -1.1104 4.00513 10.4166 9.38033
296 1 -1.1104 6.68699 19.0062 12.3027
267 1 -1.1104 9.44334 7.74467 6.47046
265 1 -1.1104 12.2232 7.84092 6.64568
65 1 -1.1104 6.84249 10.568 6.60524
249 1 -1.1104 6.66998 10.5952 12.247
90 1 -1.1104 12.2443 10.5721 6.62751
266 1 -1.1104 12.2475 4.99712 6.49326
269 1 -1.1104 9.50402 4.99836 6.6226
101 1 -1.1104 9.48359 10.523 6.58928
254 1 -1.1104 6.74438 10.3913 9.53036
243 1 -1.1104 6.73108 7.87973 12.0804
253 1 -1.1104 6.75481 4.9066 9.49952
245 1 -1.1104 6.69645 7.77001 9.25413
248 1 -1.1104 6.74129 4.90652 12.3381
264 1 -1.1104 9.49783 10.5761 9.53774
268 1 -1.1104 9.47528 4.73652 9.3058
270 1 -1.1104 9.43803 10.5705 12.1833
271 1 -1.1104 9.51763 5.04506 12.1548
272 2 2.2208 8.19061 9.13237 10.7279
273 1 -1.1104 9.56787 7.56027 9.36478
274 2 2.2208 8.24518 12.018 7.93575
275 2 2.2208 8.08298 6.33717 7.98102
276 2 2.2208 10.8472 6.28734 10.7321
277 2 2.2208 11.0026 12.1175 10.8015
278 1 -1.1104 12.1795 7.8062 12.301
279 1 -1.1104 12.2536 7.7517 9.40569
280 1 -1.1104 12.3526 5.04173 12.2356
281 1 -1.1104 12.0575 10.574 12.4475
282 2 2.2208 10.8802 9.17303 7.99723
283 1 -1.1104 12.2906 4.94452 9.42035
284 1 -1.1104 12.1954 10.6612 9.59599
285 1 -1.1104 9.47632 7.75421 12.2033
136 2 2.2208 8.04433 17.5587 8.17043
9075 2 2.2208 -0.405804 3.44905 13.6181
8785 2 2.2208 -0.418285 20.3709 8.17164
117 1 -1.1104 0.907938 16.1933 6.62295
133 1 -1.1104 3.75063 16.1076 6.77699
126 1 -1.1104 3.784 18.9917 6.79284
29 2 2.2208 2.56548 14.7337 10.8991
51 2 2.2208 2.34473 20.3455 10.9628
52 1 -1.1104 3.75432 16.1411 12.406
53 1 -1.1104 1.06969 16.2602 12.4761
203 1 -1.1104 3.97708 13.3279 9.65079
204 1 -1.1104 3.77588 16.1192 9.4027
231 2 2.2208 2.41613 17.6527 8.03427
233 1 -1.1104 3.73241 18.9466 9.41018
286 1 -1.1104 3.96219 19.0987 12.1601
287 1 -1.1104 3.86095 13.1764 12.2217
291 1 -1.1104 0.922403 19.0608 9.53133
292 1 -1.1104 1.00191 16.1635 9.51715
293 2 2.2208 5.11707 20.5445 8.07235
294 1 -1.1104 0.986248 13.4033 9.54646
295 2 2.2208 5.30928 14.7777 8.23419
298 1 -1.1104 1.15592 19.021 12.2965
299 1 -1.1104 0.997494 13.4454 12.4109
300 2 2.2208 5.24983 17.7168 10.7497
301 2 2.2208 13.579 6.36716 13.6261
111 1 -1.1104 6.66631 13.2687 6.84125
104 1 -1.1104 12.1866 16.3132 9.56003
297 1 -1.1104 6.70884 13.3926 12.204
137 1 -1.1104 9.54768 13.2998 9.42268
202 1 -1.1104 6.54264 16.1459 12.2687
201 1 -1.1104 9.47446 16.3401 12.3195
82 2 2.2208 10.7764 14.7777 7.94452
83 2 2.2208 10.8238 20.4575 8.04305
81 1 -1.1104 12.3649 16.3046 12.3284
200 2 2.2208 8.05075 20.3896 10.8672
30 1 -1.1104 12.1148 13.3701 9.31197
199 2 2.2208 8.11949 14.6526 10.8589
135 1 -1.1104 9.46661 19.016 12.1232
165 1 -1.1104 9.45872 19.0862 9.55531
26 1 -1.1104 12.464 13.4334 12.1557
229 1 -1.1104 9.42827 16.0622 9.5617
322 2 2.2208 7.9782 17.4595 13.5892
316 2 2.2208 10.7912 9.32162 13.6032
9067 2 2.2208 -0.401574 14.9304 2.23809
307 2 2.2208 13.6678 0.850913 13.5399
9064 2 2.2208 -0.323162 12.0365 5.27416
9019 2 2.2208 13.6353 20.4699 10.8427
9077 2 2.2208 13.5995 17.7441 13.6436
9169 2 2.2208 -0.38181 6.40157 -0.294983
323 2 2.2208 11.026 14.7509 13.5982
329 2 2.2208 7.98852 20.4512 -0.265492
28 2 2.2208 5.26752 11.9817 -0.376382
315 2 2.2208 8.2044 12.0095 13.5216
314 2 2.2208 2.41177 6.48709 13.4941
340 2 2.2208 5.10368 17.5498 -0.192868
9074 2 2.2208 13.6642 14.7335 -0.354515
320 2 2.2208 5.23385 20.4461 13.5508
341 2 2.2208 5.41379 0.75908 16.368
342 1 -1.1104 1.13516 -3.32622 17.7755
343 1 -1.1104 1.09561 2.1981 17.8556
346 1 -1.1104 1.24846 -3.35094 14.854
348 1 -1.1104 1.21625 2.13165 15.0859
354 1 -1.1104 1.05909 -0.639317 17.8759
356 2 2.2208 5.31799 -2.00057 19.274
357 2 2.2208 5.29234 3.59074 19.1086
358 1 -1.1104 1.41098 -0.604999 14.9615
362 1 -1.1104 3.9135 -3.36394 17.865
363 1 -1.1104 3.92627 2.18477 17.9249
364 2 2.2208 2.554 0.863229 19.2307
365 1 -1.1104 4.00707 -3.27644 15.0693
367 1 -1.1104 3.94203 2.3579 15.0387
369 2 2.2208 2.64724 -1.94585 16.4423
371 1 -1.1104 3.9057 -0.531783 17.7249
372 1 -1.1104 4.07823 -0.601731 14.9669
370 2 2.2208 2.5072 3.60579 16.4522
377 2 2.2208 -0.219579 0.733799 16.4784
9430 2 2.2208 -0.237094 -2.13374 19.1705
9128 2 2.2208 -0.32013 3.65588 19.2124
368 1 -1.1104 4.08039 2.22772 20.678
9244 2 2.2208 -0.273255 6.33962 16.2753
344 1 -1.1104 6.75079 -3.41735 17.8617
359 1 -1.1104 1.27704 -0.464228 20.596
347 1 -1.1104 1.17415 -3.37635 20.6593
566 2 2.2208 10.8518 14.9543 24.9324
379 1 -1.1104 9.67481 13.5125 23.5789
9208 2 2.2208 -0.457196 12.0717 16.433
352 1 -1.1104 6.62943 2.09635 14.9036
350 1 -1.1104 6.80595 -3.55783 14.8979
360 1 -1.1104 6.77372 -0.811908 15.0443
355 1 -1.1104 6.69494 -0.681984 17.7702
345 1 -1.1104 6.6585 2.1436 17.7655
384 2 2.2208 10.9775 0.807196 16.4954
385 1 -1.1104 12.4265 -3.54574 17.9482
386 1 -1.1104 12.4229 2.19162 17.8483
387 1 -1.1104 12.2963 -3.40678 15.0813
389 1 -1.1104 12.2281 2.17789 15.0716
391 1 -1.1104 12.3519 -0.561502 17.9154
392 2 2.2208 10.9902 -2.20358 19.3919
393 2 2.2208 10.7933 3.55328 19.0943
394 1 -1.1104 12.3987 -0.583791 15.0204
396 1 -1.1104 9.62302 -3.52635 17.8286
397 1 -1.1104 9.41931 2.09016 17.7324
398 2 2.2208 8.1869 0.704463 19.0617
399 1 -1.1104 9.5991 -3.47894 15.166
401 1 -1.1104 9.4771 2.05721 14.8794
403 2 2.2208 8.21771 -2.05065 16.4039
404 2 2.2208 8.01524 3.49022 16.2331
405 1 -1.1104 9.66047 -0.784371 17.8765
406 1 -1.1104 9.59415 -0.530296 15.005
407 1 -1.1104 9.7592 -0.76829 20.6068
400 1 -1.1104 9.52478 -3.63255 20.73
402 1 -1.1104 9.5764 2.11493 20.4864
388 1 -1.1104 12.315 -3.31487 20.7767
361 1 -1.1104 6.83751 -0.568324 20.5685
353 1 -1.1104 6.74468 2.1089 20.4201
375 2 2.2208 13.5896 6.46825 19.1454
9073 2 2.2208 13.5929 9.29728 27.6492
510 1 -1.1104 6.8591 19.3906 23.6422
9130 2 2.2208 13.5881 20.4448 22.0747
417 2 2.2208 5.20261 6.40388 16.4309
418 2 2.2208 5.30693 11.8793 16.354
419 1 -1.1104 0.910893 7.7862 17.8504
421 1 -1.1104 1.11199 7.93337 14.9432
425 1 -1.1104 1.07144 5.01197 17.7246
426 1 -1.1104 0.981827 10.5016 17.7829
429 2 2.2208 5.30623 9.18294 19.2473
430 1 -1.1104 1.05746 5.04353 15.0135
432 1 -1.1104 1.03038 10.8181 15.0974
437 1 -1.1104 3.75874 7.77414 17.9866
438 2 2.2208 2.36221 6.37898 19.1407
439 2 2.2208 2.45491 11.7035 19.0305
440 1 -1.1104 3.84787 7.92547 15.1837
442 2 2.2208 2.2889 9.19197 16.565
443 1 -1.1104 3.80042 4.99822 17.8428
444 1 -1.1104 3.86623 10.6408 17.6659
445 1 -1.1104 3.81845 5.18583 14.9927
447 1 -1.1104 3.81445 10.5576 14.986
9302 1 -1.1104 1.20549 10.5342 20.4302
423 1 -1.1104 6.57192 7.77838 14.9182
446 1 -1.1104 3.87524 5.02106 20.5577
428 1 -1.1104 6.62505 10.6448 17.9325
420 1 -1.1104 6.60961 7.81268 17.8481
435 1 -1.1104 6.6079 10.6664 14.9499
433 1 -1.1104 6.70743 4.90909 14.9899
631 1 -1.1104 12.2944 13.4532 26.3298
448 1 -1.1104 4.07152 10.8186 20.4757
431 1 -1.1104 1.118 4.92195 20.666
422 1 -1.1104 1.13854 7.85471 20.4828
424 1 -1.1104 6.79813 7.78867 20.6663
525 1 -1.1104 12.4418 16.2311 20.6879
537 1 -1.1104 9.54716 16.2192 20.5087
427 1 -1.1104 6.64655 5.00526 17.8799
454 2 2.2208 10.7968 6.38631 16.2661
455 2 2.2208 10.7075 12.0567 16.4826
456 1 -1.1104 12.2688 7.68363 17.7621
457 1 -1.1104 12.2551 7.65518 15.0331
459 1 -1.1104 12.0165 4.88129 17.6114
460 1 -1.1104 12.0977 10.5662 17.8929
461 2 2.2208 10.9018 9.24472 19.2783
462 1 -1.1104 12.3428 4.91306 15.1233
464 1 -1.1104 12.0533 10.5814 15.174
466 1 -1.1104 9.41103 7.75447 17.8178
467 2 2.2208 8.03749 6.33683 19.2844
468 2 2.2208 7.96208 11.985 19.3131
469 1 -1.1104 9.44883 7.87215 14.9804
471 2 2.2208 8.05088 9.20366 16.3642
472 1 -1.1104 9.38779 4.97078 17.7182
473 1 -1.1104 9.48045 10.5934 17.8369
474 1 -1.1104 9.49224 4.97874 14.9498
476 1 -1.1104 9.47612 10.6302 14.8853
434 1 -1.1104 6.59114 4.93655 20.6864
634 1 -1.1104 12.3523 16.2584 23.5408
475 1 -1.1104 9.48088 4.91949 20.5785
411 1 -1.1104 9.55757 18.9638 23.4722
571 1 -1.1104 9.41095 13.3793 26.2889
598 1 -1.1104 9.62329 16.3084 23.396
381 1 -1.1104 12.3212 16.2693 26.2938
480 2 2.2208 5.2388 17.6924 16.453
481 1 -1.1104 0.945007 13.3607 18.2068
482 1 -1.1104 1.04501 19.0709 18.0412
485 1 -1.1104 0.922361 13.4892 15.215
486 1 -1.1104 0.884524 19.1208 15.1071
491 1 -1.1104 1.04451 16.2118 18.1226
493 2 2.2208 5.38782 14.9408 19.2899
494 2 2.2208 5.31658 20.5193 19.3746
495 1 -1.1104 0.962432 16.2721 15.284
498 1 -1.1104 3.68918 13.4702 18.387
499 1 -1.1104 3.79413 19.0269 17.509
500 2 2.2208 2.64092 17.6827 19.0255
501 1 -1.1104 3.89353 13.3271 15.3953
502 1 -1.1104 3.79582 19.071 14.9623
503 1 -1.1104 3.5304 19.3383 20.3004
504 2 2.2208 2.46837 14.6959 16.5333
505 2 2.2208 2.42535 20.4878 16.4751
506 1 -1.1104 3.91746 16.2421 17.6928
507 1 -1.1104 3.84702 16.1863 14.9946
508 1 -1.1104 3.95651 16.5464 20.3797
487 1 -1.1104 6.74925 13.4675 14.9624
483 1 -1.1104 6.59792 13.3798 17.8854
490 1 -1.1104 6.56256 19.0356 20.8105
489 1 -1.1104 6.50304 19.1496 15.1312
574 1 -1.1104 12.3443 18.9217 23.5977
538 1 -1.1104 6.70194 13.2931 26.1816
484 1 -1.1104 6.45906 19.0687 17.8865
492 1 -1.1104 6.63385 16.2903 17.6797
496 1 -1.1104 6.61142 16.3779 15.0181
514 2 2.2208 10.9691 17.7331 16.3145
515 1 -1.1104 12.1079 13.5413 17.7271
516 1 -1.1104 12.2734 19.0548 17.8404
517 1 -1.1104 12.3787 13.3911 14.9477
519 1 -1.1104 12.2063 19.128 15.0703
521 1 -1.1104 12.1267 16.3202 17.8592
522 2 2.2208 10.8209 14.9328 19.1625
523 2 2.2208 10.8281 20.4294 19.2291
524 1 -1.1104 12.3854 16.2838 15.1322
526 1 -1.1104 9.44938 13.5226 17.8417
527 1 -1.1104 9.35646 19.0471 17.7827
528 2 2.2208 8.00824 17.5795 19.1173
529 1 -1.1104 9.55266 13.4021 15.1297
531 1 -1.1104 9.38381 18.9586 14.876
533 2 2.2208 8.09929 14.9463 16.3032
534 2 2.2208 7.97907 20.5622 16.52
535 1 -1.1104 9.44832 16.3305 17.7311
536 1 -1.1104 9.58925 16.0603 14.9875
530 1 -1.1104 9.38917 13.4122 20.802
518 1 -1.1104 12.2382 13.2106 20.5971
497 1 -1.1104 6.72658 16.1843 20.5198
532 1 -1.1104 9.4658 18.9013 20.5648
520 1 -1.1104 12.2693 19.0283 20.7446
596 2 2.2208 8.22957 14.9071 22.115
373 1 -1.1104 4.03373 -0.557318 20.6444
366 1 -1.1104 4.02601 -3.24954 20.7122
349 1 -1.1104 1.36991 2.29709 20.5686
9131 2 2.2208 -0.299183 3.4908 24.9413
641 2 2.2208 -0.216079 0.714542 22.028
9316 2 2.2208 -0.129147 -2.12654 24.8873
540 2 2.2208 5.40303 0.922096 22.0139
541 1 -1.1104 1.10945 -3.38779 23.5263
542 1 -1.1104 1.24711 2.1508 23.5089
545 1 -1.1104 1.30699 -3.41086 26.2678
546 1 -1.1104 1.0434 2.24343 26.1988
549 1 -1.1104 1.33674 -0.547461 23.4633
551 2 2.2208 5.37987 -2.04183 24.9035
552 2 2.2208 5.28573 3.61261 24.9005
553 1 -1.1104 1.12191 -0.663326 26.2164
555 1 -1.1104 3.99147 -3.40732 23.3652
556 1 -1.1104 4.13071 2.14572 23.5655
557 2 2.2208 2.58679 0.840757 24.8408
558 1 -1.1104 4.00737 -3.5146 26.2506
559 1 -1.1104 3.76474 2.09599 26.3161
560 2 2.2208 2.64337 -2.0028 22.0434
561 2 2.2208 2.58883 3.58381 22.0702
562 1 -1.1104 4.03493 -0.584008 23.558
563 1 -1.1104 4.02691 -0.702596 26.3267
325 2 2.2208 2.41034 3.60351 27.6791
478 1 -1.1104 6.88627 13.4768 23.4651
351 1 -1.1104 6.81114 -3.36551 20.63
395 1 -1.1104 12.5058 -0.561567 20.5258
390 1 -1.1104 12.4255 2.16734 20.5954
543 1 -1.1104 6.88044 -3.38809 23.5077
548 1 -1.1104 6.67674 2.40075 26.3062
550 1 -1.1104 6.70593 -0.583219 23.4413
547 1 -1.1104 6.69584 -3.62097 26.2096
554 1 -1.1104 6.85481 -0.537013 26.1794
544 1 -1.1104 6.77138 2.30761 23.4422
575 2 2.2208 10.9451 0.763694 21.8384
576 1 -1.1104 12.5557 -3.45286 23.5482
577 1 -1.1104 12.1659 2.06404 23.3816
578 1 -1.1104 12.4119 -3.39545 26.3616
579 1 -1.1104 12.3093 2.19231 26.1476
580 1 -1.1104 12.3803 -0.691572 23.2881
581 2 2.2208 11.1018 -2.06836 24.9492
582 2 2.2208 10.8475 3.51794 24.7305
583 1 -1.1104 12.4013 -0.647036 26.3718
584 1 -1.1104 9.67496 -3.45393 23.5063
585 1 -1.1104 9.4819 2.16571 23.3621
586 2 2.2208 8.13621 0.870448 24.8027
587 1 -1.1104 9.70437 -3.3245 26.3841
588 1 -1.1104 9.38461 2.28232 26.1074
589 2 2.2208 8.17691 -1.96854 22.0656
590 2 2.2208 8.01856 3.57604 22.0069
591 1 -1.1104 9.49924 -0.517688 23.3363
592 1 -1.1104 9.57181 -0.46674 26.249
573 1 -1.1104 12.3131 13.3715 23.5166
413 2 2.2208 8.12969 17.6832 24.9438
599 1 -1.1104 9.55464 16.1547 26.3952
410 2 2.2208 13.6776 3.5283 16.3888
441 1 -1.1104 4.01023 7.92641 20.7439
436 1 -1.1104 6.7289 10.6462 20.8768
9413 2 2.2208 -0.341863 6.28277 22.0052
9171 2 2.2208 -0.206555 8.93449 24.9916
9412 1 -1.1104 0.961333 10.5438 26.2966
604 2 2.2208 5.22024 6.29949 22.0719
605 2 2.2208 5.39327 11.8413 22.2705
606 1 -1.1104 1.10181 7.59144 23.381
608 1 -1.1104 1.18246 7.68919 26.2462
610 1 -1.1104 1.16529 4.89062 23.5461
611 1 -1.1104 1.1048 10.3528 23.6321
614 2 2.2208 5.31696 9.08964 24.9619
615 1 -1.1104 1.03214 5.00935 26.3488
619 1 -1.1104 3.77868 7.63894 23.587
620 2 2.2208 2.45545 6.26239 24.8704
621 2 2.2208 2.47579 11.8222 24.9276
622 1 -1.1104 3.91849 7.88424 26.4101
623 2 2.2208 2.44272 9.06591 22.097
624 1 -1.1104 3.89132 4.89322 23.4222
625 1 -1.1104 3.7669 10.3935 23.5972
626 1 -1.1104 3.82783 4.92906 26.2535
627 1 -1.1104 3.86836 10.5362 26.4047
607 1 -1.1104 6.53735 7.62226 23.5555
632 1 -1.1104 12.4094 19.056 26.4163
465 1 -1.1104 12.2295 10.5086 20.7768
597 2 2.2208 8.19449 20.2875 22.0062
612 1 -1.1104 6.66033 5.0238 23.5409
458 1 -1.1104 12.2338 7.67612 20.7014
470 1 -1.1104 9.5152 7.88845 20.5641
463 1 -1.1104 12.3151 4.90015 20.5235
477 1 -1.1104 9.41929 10.6021 20.5369
609 1 -1.1104 6.87578 7.74449 26.3439
617 1 -1.1104 6.67619 5.0431 26.1596
613 1 -1.1104 6.66354 10.4932 23.6318
618 1 -1.1104 6.78471 10.5116 26.355
380 2 2.2208 10.7742 6.34439 21.9539
383 2 2.2208 8.22284 11.9609 24.9186
564 2 2.2208 8.20899 6.35962 24.9264
567 1 -1.1104 9.5845 7.91675 26.2734
568 1 -1.1104 9.39244 7.90295 23.4028
593 1 -1.1104 12.2545 10.5711 26.3894
594 1 -1.1104 12.0829 5.01491 26.2495
595 2 2.2208 10.8375 9.2509 24.9398
600 1 -1.1104 12.3086 10.5482 23.5787
603 1 -1.1104 12.2043 4.912 23.3858
628 1 -1.1104 12.2416 7.87163 26.266
629 1 -1.1104 12.0331 7.80859 23.4182
630 2 2.2208 10.945 11.9748 22.1474
635 1 -1.1104 9.61055 10.6561 26.2314
636 1 -1.1104 9.50753 5.17267 26.4411
637 1 -1.1104 9.50104 10.6668 23.426
638 1 -1.1104 9.41504 4.99253 23.3916
639 2 2.2208 8.14118 9.18704 22.1208
488 1 -1.1104 6.35848 13.3181 20.6592
616 1 -1.1104 1.03573 13.4439 26.2878
376 3 0 0.760617 17.9207 21.7073
409 3 0 2.08099 14.0607 21.4325
414 2 2.2208 2.7999 20.692 22.1759
415 1 -1.1104 4.43221 15.9102 23.2441
449 1 -1.1104 3.86044 13.1871 26.5215
450 1 -1.1104 3.90195 15.9141 26.6153
451 3 0 2.19595 16.8845 24.6536
452 1 -1.1104 3.82271 19.2741 26.551
453 2 2.2208 5.40248 17.5104 22.0231
479 2 2.2208 5.30608 14.7343 25.0193
509 2 2.2208 5.25077 20.2468 25.0771
511 1 -1.1104 0.827612 19.1303 26.284
513 1 -1.1104 4.05675 12.9733 23.6943
539 1 -1.1104 4.03087 19.1382 23.1443
416 1 -1.1104 6.92701 16.5936 23.3424
512 1 -1.1104 6.67036 16.1172 26.2558
572 1 -1.1104 9.54216 18.9837 26.3349
569 2 2.2208 10.9469 17.6064 22.0896
570 1 -1.1104 6.60334 18.9304 26.4078
565 2 2.2208 10.8782 20.3832 24.9883
640 2 2.2208 13.5305 9.19204 21.9825
9270 2 2.2208 13.702 14.8609 16.413
378 2 2.2208 8.0575 14.8086 27.7136
337 2 2.2208 13.5817 3.75506 27.7205
9127 2 2.2208 13.663 6.41656 24.825
327 2 2.2208 5.32383 0.861508 27.671
9273 2 2.2208 13.6697 20.4348 16.4507
334 2 2.2208 8.16315 -1.96133 27.5239
328 2 2.2208 2.62018 -1.96198 27.6601
338 2 2.2208 5.29999 6.38253 27.5403
330 2 2.2208 10.9665 12.0092 27.6152
335 2 2.2208 8.14733 3.63855 27.7392
332 2 2.2208 10.9104 6.38568 27.6708
331 2 2.2208 8.16849 9.21265 27.6105
9204 2 2.2208 13.5369 9.22057 16.3748
374 2 2.2208 13.5751 3.72629 21.924
333 2 2.2208 10.9644 0.796383 27.6991
318 2 2.2208 5.2309 14.7672 13.6638
310 2 2.2208 11.0442 -1.88882 13.7281
312 2 2.2208 2.40203 11.9701 13.696
9081 2 2.2208 13.6789 11.8478 13.6998
324 2 2.2208 10.789 20.5001 13.7619
304 2 2.2208 2.62724 0.887445 13.6152
339 2 2.2208 2.48741 9.2859 27.6696
319 2 2.2208 2.48857 17.7194 13.8301
642 2 2.2208 5.3294 23.2141 5.23071
643 2 2.2208 5.04346 28.8798 5.23789
644 1 -1.1104 0.903369 24.5967 1.03011
645 1 -1.1104 0.862993 24.7064 3.82919
646 1 -1.1104 0.968253 21.915 0.986161
647 1 -1.1104 0.844226 27.3773 1.23614
648 2 2.2208 5.23576 26.0836 2.24437
649 1 -1.1104 0.965116 21.9018 3.69231
650 1 -1.1104 1.101 27.5807 3.94655
651 1 -1.1104 3.6164 24.5688 0.809195
652 2 2.2208 2.33092 23.3715 2.3948
653 2 2.2208 2.31679 28.9737 2.4673
654 1 -1.1104 3.65249 24.6682 3.68862
655 2 2.2208 2.42426 25.9581 5.18977
656 1 -1.1104 3.80319 21.7442 1.33886
657 1 -1.1104 3.65808 27.4166 1.16366
658 1 -1.1104 3.87959 21.7894 3.92041
659 1 -1.1104 3.70377 27.4809 3.92719
952 2 2.2208 5.14405 22.9601 0.0297345
926 2 2.2208 2.21918 26.1624 -0.211042
684 1 -1.1104 6.40876 24.4862 1.19567
789 1 -1.1104 3.69448 24.7437 6.55315
1501 1 -1.1104 6.48388 47.1768 9.45528
667 1 -1.1104 6.5513 21.8392 3.93312
668 1 -1.1104 6.50743 27.367 3.63922
791 1 -1.1104 3.6413 27.365 6.67617
785 1 -1.1104 1.06889 21.9028 6.56976
788 1 -1.1104 6.5281 27.4492 6.57976
784 1 -1.1104 6.57647 24.4916 6.69581
1230 2 2.2208 2.20164 31.7997 -0.343893
664 1 -1.1104 6.62095 24.6704 3.96328
666 1 -1.1104 6.59426 27.5061 1.01021
663 1 -1.1104 6.63009 21.691 1.13556
669 2 2.2208 10.9731 23.1055 5.2717
670 2 2.2208 10.773 28.8039 5.01081
671 1 -1.1104 12.3581 24.2909 0.994888
672 1 -1.1104 12.3482 24.6522 3.82081
673 1 -1.1104 12.1866 21.7026 1.13951
674 1 -1.1104 12.5123 27.0599 1.19351
675 2 2.2208 10.9567 25.8901 2.48542
676 1 -1.1104 12.3395 21.7219 3.92045
677 1 -1.1104 12.0643 27.3 3.87165
678 1 -1.1104 9.62278 24.5246 1.21042
679 2 2.2208 8.16071 23.366 2.47961
680 2 2.2208 7.82295 28.8438 2.43838
681 1 -1.1104 9.48697 24.5765 3.89675
682 2 2.2208 8.05364 25.934 5.33241
683 1 -1.1104 9.45619 21.6992 1.19673
685 1 -1.1104 9.55093 21.7423 3.95353
686 1 -1.1104 9.25752 27.4174 3.64161
821 1 -1.1104 9.50887 27.4349 6.4194
660 2 2.2208 10.8607 22.9394 -0.204216
787 1 -1.1104 6.81736 21.742 6.62278
816 1 -1.1104 12.3284 24.5538 6.62299
820 1 -1.1104 9.49807 21.7862 6.76699
819 1 -1.1104 9.55056 24.6324 6.58943
1525 1 -1.1104 9.42989 47.1819 6.59581
689 2 2.2208 13.5935 26.0282 5.23932
1338 1 -1.1104 12.0321 47.153 1.2435
714 1 -1.1104 6.36382 30.3154 1.18882
691 2 2.2208 5.21404 34.5408 5.26225
692 1 -1.1104 1.00409 30.151 0.934636
693 1 -1.1104 0.889565 35.7558 0.983279
695 1 -1.1104 0.962215 30.3463 3.82455
696 1 -1.1104 0.907744 35.8963 3.83652
698 1 -1.1104 0.860736 32.9229 1.20572
699 2 2.2208 4.99479 31.7482 2.51221
700 2 2.2208 5.14622 37.2421 2.40913
701 1 -1.1104 0.868799 33.0434 4.06206
703 1 -1.1104 3.59761 30.231 1.11926
704 1 -1.1104 3.59082 35.7633 1.01512
705 2 2.2208 2.21625 34.4625 2.45451
706 1 -1.1104 3.688 30.3338 3.87896
707 1 -1.1104 3.6515 36.0185 3.8727
708 2 2.2208 2.25675 31.6057 5.23501
709 2 2.2208 2.35386 37.4392 5.26528
710 1 -1.1104 3.59765 33.1146 1.08626
711 1 -1.1104 3.58751 33.2314 3.9778
716 1 -1.1104 6.48821 33.1766 1.21877
702 1 -1.1104 6.66049 33.2832 4.02955
845 1 -1.1104 6.53046 33.172 6.59321
694 1 -1.1104 6.34573 35.8553 1.02935
843 1 -1.1104 6.62244 36.0897 6.45311
697 1 -1.1104 6.45322 35.9234 3.74877
715 1 -1.1104 6.49375 30.3896 3.78895
847 1 -1.1104 3.85777 35.884 6.67796
844 1 -1.1104 0.744443 33.1197 6.71903
840 1 -1.1104 0.858655 30.3075 6.52823
841 1 -1.1104 1.07406 35.9865 6.68516
661 2 2.2208 13.5772 42.9027 10.8124
717 2 2.2208 10.862 34.5855 5.13082
718 1 -1.1104 12.3579 30.3915 0.812053
719 1 -1.1104 12.2675 35.9579 0.847356
720 1 -1.1104 12.124 30.1346 3.619
721 1 -1.1104 12.3194 35.8309 3.75437
722 1 -1.1104 12.0767 33.0783 0.750928
723 2 2.2208 10.7609 31.7192 2.13067
724 2 2.2208 10.7785 37.3458 2.47455
725 1 -1.1104 12.3142 33.017 3.59446
726 1 -1.1104 9.07291 30.5348 1.39276
727 1 -1.1104 9.21895 35.9592 0.976243
728 2 2.2208 7.95714 34.415 2.4384
729 1 -1.1104 9.27877 30.0869 3.92961
730 1 -1.1104 9.37222 35.9992 3.80329
731 2 2.2208 7.97223 31.6401 5.14667
732 2 2.2208 8.07312 37.4057 5.13987
733 1 -1.1104 9.3865 33.2601 1.07306
734 1 -1.1104 9.37508 33.1889 3.80902
1205 3 0 9.7446 28.0347 -0.224893
1493 1 -1.1104 6.69605 47.1989 6.63143
9640 2 2.2208 13.4919 34.4683 7.95504
877 1 -1.1104 9.41785 35.8235 6.50842
874 1 -1.1104 12.1683 35.8437 6.50942
962 2 2.2208 8.17664 34.3901 13.343
948 2 2.2208 13.51 31.5511 4.98445
950 2 2.2208 13.5834 28.9148 8.04962