ITEM: TIMESTEP
40000
ITEM: NUMBER OF ATOMS
17760
ITEM: BOX BOUNDS pp pp pp
-3.8660038282875253e-01 2.7726600382828533e+01
-4.6663618716341162e+00 3.3274636187163748e+02
-3.8458770216852500e-01 2.7724587702168908e+01
ITEM: ATOMS id type q x y z
1 2 2.2208 5.16693 0.968787 5.39045
2 1 -1.1104 0.883873 -3.26405 0.914231
3 1 -1.1104 1.15083 2.13263 1.03432
6 1 -1.1104 1.11529 -3.26904 3.77752
7 1 -1.1104 0.79495 2.35058 3.86078
10 1 -1.1104 0.969709 -0.590915 0.838472
12 2 2.2208 5.20064 -1.87309 2.40601
13 2 2.2208 5.27293 3.76646 2.54267
14 1 -1.1104 0.919273 -0.561451 3.86106
16 1 -1.1104 3.72298 -3.33978 0.96735
17 1 -1.1104 3.83653 2.29091 1.14904
18 2 2.2208 2.32078 0.842947 2.44116
19 1 -1.1104 3.80859 -3.11082 3.75337
20 1 -1.1104 3.57316 2.33994 3.91308
21 2 2.2208 2.36705 -1.72956 5.21144
22 2 2.2208 2.31281 3.59972 5.24873
23 1 -1.1104 3.61416 -0.358228 0.930736
24 1 -1.1104 3.86037 -0.475235 3.89513
9 1 -1.1104 6.43581 2.25936 3.94822
11 1 -1.1104 6.48981 -0.418008 1.17147
8 1 -1.1104 6.66502 -3.28607 3.80321
5 1 -1.1104 6.59587 2.29873 1.16018
4 1 -1.1104 6.52514 -3.14867 1.01598
15 1 -1.1104 6.72681 -0.555535 3.80512
171 1 -1.1104 6.45644 -0.565671 6.51452
167 1 -1.1104 0.931449 2.21722 6.61006
168 1 -1.1104 6.56947 -3.25525 6.61077
9061 2 2.2208 13.6464 -1.90139 5.13084
324 2 2.2208 10.7447 20.6334 13.6107
8338 2 2.2208 5.25254 -4.71145 10.8998
31 2 2.2208 10.8106 0.962239 5.25748
32 1 -1.1104 12.1258 -3.41085 0.978996
33 1 -1.1104 12.1909 2.19671 1.0595
34 1 -1.1104 12.3347 -3.38639 3.76566
35 1 -1.1104 12.2434 2.4007 3.79822
36 1 -1.1104 12.0025 -0.613463 0.897143
37 2 2.2208 10.8025 -1.904 2.35528
38 2 2.2208 10.6882 3.80586 2.51293
39 1 -1.1104 12.3005 -0.471466 3.79718
40 1 -1.1104 9.34082 -3.34355 0.943704
41 1 -1.1104 9.35558 2.31257 1.13575
42 2 2.2208 7.99468 0.868555 2.50983
43 1 -1.1104 9.6168 -3.33896 3.76853
44 1 -1.1104 9.41155 2.30832 4.00207
45 2 2.2208 7.98821 -1.98126 5.28969
46 2 2.2208 7.89486 3.67075 5.30097
47 1 -1.1104 9.35776 -0.515078 1.06791
48 1 -1.1104 9.51343 -0.382717 4.05729
49 2 2.2208 13.5921 0.955975 2.47321
9057 2 2.2208 13.637 17.9186 8.10529
8757 2 2.2208 13.4962 3.77469 5.36332
210 1 -1.1104 9.36778 -0.540077 6.68837
207 1 -1.1104 12.311 -0.501057 6.60801
8336 2 2.2208 13.6202 -4.72901 2.45313
8337 2 2.2208 2.41448 -4.78698 7.98427
54 2 2.2208 5.18875 6.60196 5.30066
55 2 2.2208 5.23407 12.211 5.20457
56 1 -1.1104 0.949651 8.03485 1.1204
58 1 -1.1104 1.01104 7.81698 3.89334
60 1 -1.1104 1.15237 5.18514 1.09869
61 1 -1.1104 0.854413 10.8626 1.15094
66 2 2.2208 5.35631 9.34865 2.4998
67 1 -1.1104 1.13794 5.1233 3.85306
68 1 -1.1104 1.04795 10.6105 3.82713
71 1 -1.1104 3.78469 7.88608 1.19853
72 2 2.2208 2.44803 6.55212 2.5328
73 2 2.2208 2.43475 12.03 2.53061
74 1 -1.1104 3.83358 7.91561 3.8795
75 2 2.2208 2.36893 9.34487 5.27773
76 1 -1.1104 3.82884 5.12156 1.09291
77 1 -1.1104 3.81081 10.7156 1.15637
79 1 -1.1104 3.58671 5.01804 3.95295
80 1 -1.1104 3.81326 10.6805 3.88757
59 1 -1.1104 6.58086 8.04112 3.97169
69 1 -1.1104 6.5275 5.08054 3.97088
234 1 -1.1104 1.11129 7.87966 6.77359
64 1 -1.1104 6.77016 10.7628 0.954154
57 1 -1.1104 6.52274 7.89621 1.09477
70 1 -1.1104 6.53954 10.7251 3.81848
306 2 2.2208 2.52934 14.8601 -0.274287
9077 2 2.2208 13.6094 17.7306 13.5798
8892 2 2.2208 13.576 3.61119 10.7986
78 1 -1.1104 3.83732 10.7162 6.7206
9066 2 2.2208 13.585 6.45551 2.45636
63 1 -1.1104 6.61758 5.23579 0.958231
84 2 2.2208 10.7611 6.67971 5.26219
85 2 2.2208 10.8283 12.2793 5.22977
86 1 -1.1104 12.265 7.8294 1.11002
87 1 -1.1104 12.2375 7.99584 3.81805
88 1 -1.1104 12.1548 5.06671 1.12751
89 1 -1.1104 12.313 10.6396 1.00552
91 2 2.2208 10.9176 9.4511 2.34625
92 1 -1.1104 12.105 5.19313 3.93043
93 1 -1.1104 12.2313 10.8908 3.74895
94 1 -1.1104 9.48861 7.93491 1.0515
95 2 2.2208 8.06498 6.48578 2.45769
96 2 2.2208 8.09077 12.2387 2.34173
97 1 -1.1104 9.37245 7.90306 3.64381
98 2 2.2208 7.95995 9.41132 5.1685
99 1 -1.1104 9.36729 5.10791 0.956277
100 1 -1.1104 9.51087 10.8503 1.00714
102 1 -1.1104 9.3235 5.03775 3.86889
103 1 -1.1104 9.59405 10.7606 3.79223
90 1 -1.1104 12.1139 10.8126 6.67435
9065 2 2.2208 13.7608 12.2073 2.55828
9084 2 2.2208 -0.415153 9.3571 13.6813
8786 2 2.2208 13.492 9.43529 5.24545
323 2 2.2208 10.8032 15.0596 13.5244
267 1 -1.1104 9.30621 7.9606 6.56755
313 2 2.2208 5.17458 9.19769 13.6732
9092 2 2.2208 -0.511119 14.8532 13.7579
106 2 2.2208 5.12287 17.8155 5.32883
107 1 -1.1104 1.00297 13.5806 0.903411
109 1 -1.1104 0.930672 19.2565 1.13251
113 1 -1.1104 1.07344 13.4594 3.7112
114 1 -1.1104 0.93719 19.0807 3.86262
116 1 -1.1104 1.14409 16.4889 0.629587
119 2 2.2208 5.2036 14.9533 2.31351
120 2 2.2208 5.1185 20.5517 2.47788
121 1 -1.1104 0.924053 16.213 3.60779
123 1 -1.1104 3.7435 13.4745 1.00656
125 1 -1.1104 3.63954 19.1991 1.23927
127 2 2.2208 2.36303 17.7133 2.35657
128 1 -1.1104 3.79299 13.5907 3.87248
129 1 -1.1104 3.63918 19.1737 3.97191
130 2 2.2208 2.45593 14.8612 5.2641
131 2 2.2208 2.33 20.6184 5.24528
132 1 -1.1104 3.82358 16.4957 1.0241
134 1 -1.1104 3.59883 16.3532 3.97188
112 1 -1.1104 6.53022 19.1511 6.62439
115 1 -1.1104 6.76697 13.7122 3.64303
138 1 -1.1104 6.42899 19.1552 0.933259
140 1 -1.1104 6.7494 16.4493 1.01547
122 1 -1.1104 6.47617 16.3694 3.82377
139 1 -1.1104 6.45975 19.1987 3.828
110 1 -1.1104 6.63382 13.5144 0.861608
118 1 -1.1104 6.64647 16.3442 6.60124
126 1 -1.1104 3.76697 19.078 6.69152
117 1 -1.1104 1.07559 16.4357 6.51359
232 1 -1.1104 0.888347 19.2648 6.61057
108 1 -1.1104 0.93113 13.6059 6.5858
9096 2 2.2208 13.5582 20.5137 5.27346
319 2 2.2208 2.31728 17.8343 13.6783
141 2 2.2208 10.7592 17.6432 5.11607
142 1 -1.1104 12.3804 13.5603 1.06917
144 1 -1.1104 12.2459 19.0485 0.760897
146 1 -1.1104 12.3125 13.6402 3.92575
147 1 -1.1104 12.2967 19.1068 3.72258
148 1 -1.1104 12.1831 16.3556 1.01115
150 2 2.2208 10.9136 14.9371 2.3331
151 2 2.2208 10.7273 20.4262 2.38611
152 1 -1.1104 12.0877 16.3992 3.76608
153 1 -1.1104 9.55251 13.4578 1.08964
155 1 -1.1104 9.35394 18.9971 1.02072
157 2 2.2208 7.99309 17.7798 2.29991
158 1 -1.1104 9.44035 13.6136 3.85509
159 1 -1.1104 9.3539 18.9837 3.82486
160 2 2.2208 8.03423 15.0791 5.15727
161 2 2.2208 8.01109 20.4675 5.12866
162 1 -1.1104 9.54232 16.2069 0.878107
164 1 -1.1104 9.43372 16.3126 3.62748
156 1 -1.1104 9.42775 19.1008 6.57312
9063 2 2.2208 -0.486127 9.3763 2.46029
145 1 -1.1104 12.1533 19.2063 6.60259
163 1 -1.1104 9.34112 16.2078 6.50517
172 1 -1.1104 3.78618 -3.40668 6.6129
166 1 -1.1104 1.04124 -3.27031 6.60917
170 1 -1.1104 1.04119 -0.480738 6.6632
169 1 -1.1104 6.59615 2.26588 6.7039
322 2 2.2208 7.9438 17.7027 13.6275
174 1 -1.1104 3.7497 -0.47019 6.74214
173 1 -1.1104 3.65004 2.42154 6.76352
175 2 2.2208 5.12583 0.986669 10.6788
176 1 -1.1104 1.0785 -3.30591 12.3007
177 1 -1.1104 1.07658 2.27619 12.1857
180 1 -1.1104 0.972861 -3.38593 9.58358
181 1 -1.1104 0.987358 2.40076 9.45878
184 1 -1.1104 0.953354 -0.477342 12.1427
186 2 2.2208 5.14381 -1.95746 7.97518
187 2 2.2208 5.19551 3.84582 8.00214
188 1 -1.1104 0.983469 -0.581725 9.27352
190 1 -1.1104 3.91736 -3.32176 12.187
191 1 -1.1104 3.83781 2.44094 12.1279
192 2 2.2208 2.20577 0.971063 8.07768
193 1 -1.1104 3.6329 -3.29946 9.35564
194 1 -1.1104 3.70179 2.40846 9.35316
195 2 2.2208 2.28876 -1.88345 10.7453
196 2 2.2208 2.38025 3.7393 10.9377
197 1 -1.1104 3.77644 -0.385927 12.2359
198 1 -1.1104 3.81457 -0.415978 9.45684
183 1 -1.1104 6.4167 2.36084 9.39223
189 1 -1.1104 6.71699 -0.597846 9.16885
185 1 -1.1104 6.68877 -0.482477 12.1662
178 1 -1.1104 6.59127 -3.36042 12.395
182 1 -1.1104 6.50482 -3.35855 9.41072
179 1 -1.1104 6.5663 2.35083 12.4387
205 1 -1.1104 12.0491 -3.2159 6.42857
208 1 -1.1104 9.32896 -3.21244 6.65663
206 1 -1.1104 12.2185 2.40394 6.66054
209 1 -1.1104 9.39195 2.42694 6.66464
105 1 -1.1104 9.40942 13.5693 12.1177
8917 2 2.2208 13.633 0.86233 8.04478
230 2 2.2208 13.5516 -1.96434 10.8282
211 2 2.2208 10.6173 0.955903 10.8653
212 1 -1.1104 12.1829 -3.41703 12.3672
213 1 -1.1104 12.0255 2.22166 12.2442
214 1 -1.1104 12.0898 -3.25811 9.37779
215 1 -1.1104 11.9842 2.29885 9.4525
216 1 -1.1104 12.2595 -0.611311 12.2578
217 2 2.2208 10.7186 -1.91658 7.95611
219 1 -1.1104 12.075 -0.556889 9.53223
220 1 -1.1104 9.31258 -3.35594 12.3826
221 1 -1.1104 9.35459 2.32586 12.2973
222 2 2.2208 8.01113 0.985474 8.05941
223 1 -1.1104 9.42884 -3.25252 9.4842
224 1 -1.1104 9.29478 2.43957 9.41147
225 2 2.2208 8.02934 -1.77082 10.7697
226 2 2.2208 7.97073 3.7028 10.8861
227 1 -1.1104 9.28928 -0.559078 12.3135
228 1 -1.1104 9.3846 -0.423172 9.5351
218 2 2.2208 10.7903 3.78162 7.98749
26 1 -1.1104 12.1589 13.5206 12.2768
62 1 -1.1104 0.890772 10.7536 6.60936
237 1 -1.1104 6.55137 5.13837 6.68165
235 1 -1.1104 6.54716 8.03482 6.66624
65 1 -1.1104 6.53573 10.8606 6.63032
238 1 -1.1104 3.95784 8.06616 6.65738
236 1 -1.1104 1.11709 5.08412 6.69583
239 1 -1.1104 3.73295 5.18711 6.66387
240 2 2.2208 5.1974 6.59256 10.8938
241 2 2.2208 5.15155 12.144 10.7419
242 1 -1.1104 0.805777 7.83353 12.3374
244 1 -1.1104 0.948333 8.03259 9.56639
246 1 -1.1104 0.992175 5.0109 12.2422
247 1 -1.1104 1.03912 10.7806 12.0781
250 2 2.2208 5.28231 9.45759 8.1446
251 1 -1.1104 0.935329 5.29335 9.44634
252 1 -1.1104 0.939721 10.8537 9.30393
255 1 -1.1104 3.72144 7.96643 12.2069
256 2 2.2208 2.39593 6.62701 8.04809
257 2 2.2208 2.38884 12.0691 8.11409
258 1 -1.1104 3.85724 8.03372 9.56723
259 2 2.2208 2.34115 9.38169 10.7984
260 1 -1.1104 3.92486 5.21674 12.275
261 1 -1.1104 3.84311 10.8314 12.0759
262 1 -1.1104 3.77247 5.40949 9.55699
263 1 -1.1104 3.78173 10.8489 9.43773
248 1 -1.1104 6.6823 5.07707 12.1806
243 1 -1.1104 6.56086 7.80481 12.2889
249 1 -1.1104 6.72484 10.6735 12.3185
245 1 -1.1104 6.58103 8.10677 9.49476
253 1 -1.1104 6.63929 5.18776 9.31522
254 1 -1.1104 6.6711 10.9045 9.51124
9060 2 2.2208 13.6558 17.7658 2.4022
265 1 -1.1104 12.1705 8.03407 6.67886
269 1 -1.1104 9.36867 5.16922 6.54282
266 1 -1.1104 12.1671 5.22197 6.73068
101 1 -1.1104 9.32648 10.7984 6.68064
8968 2 2.2208 13.6194 6.56202 7.95513
264 1 -1.1104 9.53925 10.7209 9.5455
268 1 -1.1104 9.34224 5.11281 9.47947
270 1 -1.1104 9.53553 10.7181 12.1717
271 1 -1.1104 9.36749 5.21879 12.2268
272 2 2.2208 8.09883 9.32132 10.9217
273 1 -1.1104 9.37447 7.93825 9.355
274 2 2.2208 8.01714 12.2724 7.97423
275 2 2.2208 8.04796 6.51781 8.09665
276 2 2.2208 10.8141 6.39486 10.8035
277 2 2.2208 10.8069 12.1786 10.7837
278 1 -1.1104 12.2027 7.68691 12.241
279 1 -1.1104 12.1845 7.9466 9.42447
280 1 -1.1104 12.0734 4.92946 12.1757
281 1 -1.1104 12.1565 10.7852 12.1263
282 2 2.2208 10.6994 9.44174 8.13677
283 1 -1.1104 12.2793 5.07555 9.26775
284 1 -1.1104 12.3296 10.6809 9.45288
285 1 -1.1104 9.34015 8.02393 12.2699
8973 2 2.2208 13.5487 9.28975 10.9073
200 2 2.2208 7.99532 20.5324 10.8131
335 2 2.2208 7.94493 3.71737 -0.480649
328 2 2.2208 2.4016 -1.94809 -0.490106
9056 2 2.2208 13.6066 14.9613 10.8289
334 2 2.2208 8.07886 -2.01268 -0.392886
124 1 -1.1104 3.82664 13.5274 6.65632
133 1 -1.1104 3.72732 16.3359 6.78246
111 1 -1.1104 6.70458 13.6971 6.53433
202 1 -1.1104 6.50876 16.2978 12.1522
290 1 -1.1104 6.59482 13.5672 9.41575
296 1 -1.1104 6.48362 19.072 12.2526
289 1 -1.1104 6.64936 16.4193 9.30548
288 1 -1.1104 6.56712 19.1005 9.38964
297 1 -1.1104 6.51576 13.5512 12.2598
29 2 2.2208 2.39008 15.0757 10.7123
51 2 2.2208 2.43946 20.5459 10.8529
52 1 -1.1104 3.77494 16.425 12.1659
53 1 -1.1104 1.00869 16.4407 12.0295
203 1 -1.1104 3.66188 13.5268 9.37864
204 1 -1.1104 3.9036 16.4367 9.34746
231 2 2.2208 2.3627 17.7773 8.12623
233 1 -1.1104 3.80357 19.0821 9.45821
286 1 -1.1104 3.72339 19.099 12.1565
287 1 -1.1104 3.78351 13.6241 12.1921
291 1 -1.1104 1.02391 19.2022 9.45551
292 1 -1.1104 0.884444 16.3118 9.35194
293 2 2.2208 5.04027 20.6155 8.00813
294 1 -1.1104 0.892278 13.5497 9.46344
295 2 2.2208 5.23928 15.0402 8.01386
298 1 -1.1104 0.863111 19.3007 12.2133
299 1 -1.1104 0.970939 13.7231 12.302
300 2 2.2208 5.21599 17.7052 10.7828
320 2 2.2208 5.11087 20.6132 13.6271
149 1 -1.1104 12.1748 16.3971 6.46193
143 1 -1.1104 12.2223 13.5776 6.73097
50 1 -1.1104 12.3941 19.0409 9.54778
135 1 -1.1104 9.31046 19.1814 12.2325
136 2 2.2208 8.01287 17.7277 8.00682
27 1 -1.1104 12.1605 19.1063 12.2562
30 1 -1.1104 12.3641 13.6941 9.4931
82 2 2.2208 10.8832 15.0638 7.96638
201 1 -1.1104 9.32323 16.43 12.2823
104 1 -1.1104 12.1485 16.423 9.34962
137 1 -1.1104 9.45409 13.8146 9.28694
25 2 2.2208 10.7572 17.7976 10.8516
199 2 2.2208 8.05966 14.9543 10.6546
165 1 -1.1104 9.49454 19.161 9.44143
81 1 -1.1104 12.225 16.3753 12.1807
9019 2 2.2208 13.5794 20.6742 10.866
154 1 -1.1104 9.43427 13.5034 6.77401
83 2 2.2208 10.7503 20.6522 8.06012
229 1 -1.1104 9.47875 16.473 9.3414
8969 2 2.2208 13.7295 12.179 7.96683
9059 2 2.2208 -0.307451 3.63955 2.3653
315 2 2.2208 7.97054 12.1074 13.6483
9081 2 2.2208 13.5224 12.2819 13.5344
9055 2 2.2208 -0.527967 -2.06916 2.34177
307 2 2.2208 13.5673 0.800325 13.7133
311 2 2.2208 10.7258 3.68757 13.7554
9317 2 2.2208 -0.262498 0.816761 -0.43641
28 2 2.2208 5.24133 12.0875 -0.413109
8356 2 2.2208 2.39632 -4.74906 13.5445
309 2 2.2208 7.89989 0.958616 13.7126
303 2 2.2208 5.20962 -1.97329 13.7035
325 2 2.2208 2.5169 3.69154 -0.275248
312 2 2.2208 2.40412 12.1481 13.6384
305 2 2.2208 5.32028 3.81866 13.7211
332 2 2.2208 10.819 6.43264 -0.367915
340 2 2.2208 4.96483 17.8989 -0.399104
338 2 2.2208 5.17376 6.5788 -0.364366
316 2 2.2208 10.7893 9.33608 13.5694
341 2 2.2208 5.29479 0.979888 16.4946
342 1 -1.1104 0.817792 -3.22169 17.6989
343 1 -1.1104 1.05965 2.42728 17.8992
346 1 -1.1104 0.997497 -3.30485 14.9201
348 1 -1.1104 1.07258 2.3436 14.9995
354 1 -1.1104 0.864273 -0.530842 17.7039
356 2 2.2208 5.0265 -1.91234 19.1849
357 2 2.2208 5.29286 3.67964 19.2041
358 1 -1.1104 1.08724 -0.659531 14.8328
362 1 -1.1104 3.6435 -3.27298 17.8569
363 1 -1.1104 3.81047 2.28985 17.8954
364 2 2.2208 2.21517 0.838771 19.1702
365 1 -1.1104 3.85511 -3.13894 15.0754
367 1 -1.1104 3.82967 2.35582 14.9648
369 2 2.2208 2.32482 -1.85126 16.4481
371 1 -1.1104 3.79483 -0.555124 17.7551
372 1 -1.1104 3.80134 -0.324845 15.0493
370 2 2.2208 2.49653 3.74053 16.4715
347 1 -1.1104 0.970959 -3.34226 20.586
355 1 -1.1104 6.60256 -0.407046 17.8594
352 1 -1.1104 6.59405 2.48975 15.2915
350 1 -1.1104 6.53522 -3.36521 15.1746
359 1 -1.1104 0.947325 -0.478088 20.4973
345 1 -1.1104 6.71421 2.34282 17.875
344 1 -1.1104 6.67701 -3.25433 17.8994
360 1 -1.1104 6.5849 -0.390556 15.0336
351 1 -1.1104 6.42185 -3.3057 20.6007
353 1 -1.1104 6.60239 2.31342 20.6874
408 2 2.2208 13.6125 0.9365 19.2941
8400 2 2.2208 2.4631 -4.93654 24.7929
8503 2 2.2208 13.5606 -4.78991 19.3566
361 1 -1.1104 6.51291 -0.553236 20.6219
310 2 2.2208 10.7667 -1.89992 13.6958
8437 2 2.2208 10.7859 -4.71276 16.4977
410 2 2.2208 13.7589 3.67741 16.4745
384 2 2.2208 10.8589 0.890104 16.5453
385 1 -1.1104 12.1964 -3.31918 17.9488
386 1 -1.1104 12.3192 2.31495 17.9059
387 1 -1.1104 12.314 -3.37339 15.1242
389 1 -1.1104 12.1598 2.18459 15.0397
391 1 -1.1104 12.2881 -0.524572 17.8825
392 2 2.2208 10.7246 -1.91429 19.2821
393 2 2.2208 10.9038 3.77086 19.2275
394 1 -1.1104 12.1395 -0.658056 15.1196
396 1 -1.1104 9.33195 -3.35096 17.8996
397 1 -1.1104 9.56067 2.44109 17.8299
398 2 2.2208 7.96999 0.842287 19.2225
399 1 -1.1104 9.3404 -3.40024 15.1322
401 1 -1.1104 9.25044 2.23709 15.0385
403 2 2.2208 7.94678 -1.92872 16.4175
404 2 2.2208 8.12673 3.87939 16.4962
405 1 -1.1104 9.39537 -0.547479 17.9593
406 1 -1.1104 9.43753 -0.375661 15.0759
412 2 2.2208 13.6135 -1.95024 16.5184
329 2 2.2208 7.9797 20.5147 27.5261
9171 2 2.2208 -0.260099 9.29903 25.0093
417 2 2.2208 5.33154 6.49052 16.4238
418 2 2.2208 5.24881 12.1211 16.5059
419 1 -1.1104 1.08119 7.99275 17.8716
421 1 -1.1104 1.01289 8.17939 15.0015
425 1 -1.1104 1.12293 5.19356 17.9829
426 1 -1.1104 0.875854 10.7876 17.6659
429 2 2.2208 5.38899 9.33116 19.3095
430 1 -1.1104 0.871012 5.0993 15.1442
432 1 -1.1104 0.953926 10.8173 14.8949
437 1 -1.1104 4.02375 7.86353 17.9195
438 2 2.2208 2.578 6.52822 19.3097
439 2 2.2208 2.34505 11.9716 19.1894
440 1 -1.1104 3.8532 7.94261 15.088
442 2 2.2208 2.37818 9.45625 16.324
443 1 -1.1104 3.9281 4.98864 17.7841
444 1 -1.1104 3.90614 10.6645 17.8441
445 1 -1.1104 3.78427 5.15037 15.156
447 1 -1.1104 3.81779 10.7566 14.8967
9302 1 -1.1104 1.11378 10.6224 20.4244
433 1 -1.1104 6.69568 5.20314 14.9905
435 1 -1.1104 6.5589 10.6715 15.2349
420 1 -1.1104 6.68095 7.97212 17.7982
431 1 -1.1104 0.910592 5.0089 20.6633
428 1 -1.1104 6.68042 10.7668 17.9053
427 1 -1.1104 6.52364 5.13849 17.8435
423 1 -1.1104 6.42832 7.79691 15.0234
424 1 -1.1104 6.67924 7.96308 20.7571
434 1 -1.1104 6.66013 5.15207 20.6365
422 1 -1.1104 1.07701 7.92033 20.6355
572 1 -1.1104 9.25953 19.0796 26.2521
602 2 2.2208 13.2861 0.765295 24.859
454 2 2.2208 10.9586 6.61284 16.4577
455 2 2.2208 10.7422 12.2541 16.4298
456 1 -1.1104 12.215 8.07726 17.7789
457 1 -1.1104 12.2884 8.11236 14.9544
459 1 -1.1104 12.1966 5.19218 17.8395
460 1 -1.1104 12.237 10.8592 17.8462
461 2 2.2208 10.8387 9.46307 19.2263
462 1 -1.1104 12.3699 5.05867 15.083
464 1 -1.1104 12.1336 10.7903 15.0651
466 1 -1.1104 9.45496 8.01828 17.8719
467 2 2.2208 8.01158 6.62399 19.274
468 2 2.2208 7.96725 12.1597 19.2789
469 1 -1.1104 9.46488 8.05803 14.9977
471 2 2.2208 7.93989 9.31632 16.457
472 1 -1.1104 9.36779 5.32188 17.8865
473 1 -1.1104 9.45209 10.8518 17.7568
474 1 -1.1104 9.46206 5.27163 15.0754
476 1 -1.1104 9.20841 10.7827 14.9539
458 1 -1.1104 12.094 8.13077 20.6086
375 2 2.2208 13.5698 6.67296 19.2302
9204 2 2.2208 13.5362 9.45963 16.3879
9206 2 2.2208 13.5607 12.0133 19.4839
475 1 -1.1104 9.41204 5.0885 20.6991
477 1 -1.1104 9.29814 10.7972 20.685
470 1 -1.1104 9.43906 8.01777 20.5639
632 1 -1.1104 12.0958 19.1537 26.2037
574 1 -1.1104 12.3816 19.2343 23.5447
480 2 2.2208 5.35921 17.7833 16.3072
481 1 -1.1104 0.837484 13.5758 18.3417
482 1 -1.1104 0.90504 19.032 18.0585
485 1 -1.1104 1.00783 13.52 15.3889
486 1 -1.1104 0.931984 19.0724 15.051
491 1 -1.1104 1.12796 16.3255 18.0553
493 2 2.2208 5.23413 15.0062 19.1447
494 2 2.2208 5.16847 20.6856 19.196
495 1 -1.1104 0.905156 16.2055 15.0039
498 1 -1.1104 3.62663 13.5638 18.1789
499 1 -1.1104 3.8121 19.3259 17.7757
500 2 2.2208 2.6756 17.8517 18.9479
501 1 -1.1104 3.67483 13.3955 15.1924
502 1 -1.1104 3.74026 19.0686 15.1232
503 1 -1.1104 3.49123 19.445 20.4257
504 2 2.2208 2.33337 15.003 16.4962
505 2 2.2208 2.2497 20.5703 16.3016
506 1 -1.1104 3.86578 16.4494 17.6632
507 1 -1.1104 3.89116 16.4499 14.9535
508 1 -1.1104 3.75638 16.4646 20.3553
487 1 -1.1104 6.51135 13.5569 15.0951
496 1 -1.1104 6.68302 16.3171 14.8051
483 1 -1.1104 6.51656 13.5058 17.8353
484 1 -1.1104 6.5794 18.9032 17.8203
489 1 -1.1104 6.57133 19.3239 14.9542
497 1 -1.1104 6.68316 16.2468 20.2928
573 1 -1.1104 12.3573 13.3857 23.553
492 1 -1.1104 6.56558 16.2646 17.5832
490 1 -1.1104 6.40582 19.1291 20.5275
9273 2 2.2208 13.6746 20.6605 16.2872
9272 2 2.2208 13.6286 17.9332 19.2863
514 2 2.2208 10.8443 17.8553 16.3876
515 1 -1.1104 12.1763 13.6321 17.8956
516 1 -1.1104 12.3328 19.3218 17.7416
517 1 -1.1104 12.2136 13.6537 15.0981
519 1 -1.1104 12.3342 19.2601 14.976
521 1 -1.1104 12.1858 16.4884 17.7706
522 2 2.2208 10.8739 15.0671 19.2703
523 2 2.2208 10.7787 20.6423 19.0994
524 1 -1.1104 12.2499 16.5925 14.9412
526 1 -1.1104 9.32775 13.6856 17.849
527 1 -1.1104 9.32525 19.2172 17.7988
528 2 2.2208 8.05975 17.7587 19.2409
529 1 -1.1104 9.33779 13.6744 14.9188
531 1 -1.1104 9.22581 19.0389 15.194
533 2 2.2208 7.98909 14.9394 16.3524
534 2 2.2208 7.79543 20.5767 16.3772
535 1 -1.1104 9.33052 16.3316 17.887
536 1 -1.1104 9.49222 16.3491 15.0219
520 1 -1.1104 12.1969 19.2439 20.6386
518 1 -1.1104 12.1586 13.5625 20.7099
537 1 -1.1104 9.43445 16.2717 20.7174
9270 2 2.2208 13.6062 15.0606 16.3743
532 1 -1.1104 9.41227 19.1233 20.6276
373 1 -1.1104 3.80533 -0.511834 20.6591
349 1 -1.1104 0.960202 2.23059 20.6828
366 1 -1.1104 3.66761 -3.34372 20.7001
368 1 -1.1104 3.75662 2.4123 20.7407
540 2 2.2208 5.15012 0.891547 22.0632
541 1 -1.1104 1.04145 -3.27107 23.403
542 1 -1.1104 1.13841 2.1882 23.4559
545 1 -1.1104 1.08279 -3.49836 26.132
546 1 -1.1104 1.14709 2.13437 26.3129
549 1 -1.1104 1.13621 -0.63164 23.3813
551 2 2.2208 5.17739 -1.8934 24.9787
552 2 2.2208 5.28576 3.64284 24.9295
553 1 -1.1104 0.990316 -0.55301 26.2044
555 1 -1.1104 3.77619 -3.51974 23.5565
556 1 -1.1104 3.91656 2.20746 23.638
557 2 2.2208 2.5113 0.887563 24.9572
558 1 -1.1104 3.73068 -3.33415 26.2171
559 1 -1.1104 3.79151 2.43114 26.3804
560 2 2.2208 2.44357 -1.93722 22.1327
561 2 2.2208 2.51633 3.6527 22.1096
562 1 -1.1104 3.85872 -0.616457 23.3233
563 1 -1.1104 3.76936 -0.429035 26.1553
550 1 -1.1104 6.53673 -0.54699 23.5518
543 1 -1.1104 6.53948 -3.29882 23.4546
544 1 -1.1104 6.4459 2.29538 23.5807
548 1 -1.1104 6.61676 2.17647 26.3805
554 1 -1.1104 6.50582 -0.625128 26.3915
547 1 -1.1104 6.47891 -3.32806 26.1836
390 1 -1.1104 12.2428 2.37016 20.5885
400 1 -1.1104 9.34188 -3.43186 20.6443
388 1 -1.1104 12.0999 -3.41853 20.7273
402 1 -1.1104 9.38611 2.13644 20.5176
395 1 -1.1104 12.1929 -0.438006 20.6214
407 1 -1.1104 9.25318 -0.516402 20.6396
575 2 2.2208 10.6434 0.816822 21.9792
576 1 -1.1104 12.2639 -3.51235 23.5864
577 1 -1.1104 12.0005 2.42052 23.5291
578 1 -1.1104 11.9841 -3.28471 26.3959
579 1 -1.1104 12.2036 2.2634 26.3027
580 1 -1.1104 11.9564 -0.523391 23.364
581 2 2.2208 10.6438 -2.13201 24.8743
582 2 2.2208 10.8367 3.7298 24.9875
583 1 -1.1104 11.9911 -0.607518 26.2975
584 1 -1.1104 9.35785 -3.38667 23.4219
585 1 -1.1104 9.31183 2.20493 23.4609
586 2 2.2208 7.99875 0.852868 24.8954
587 1 -1.1104 9.16646 -3.38585 26.259
588 1 -1.1104 9.44077 2.11598 26.3333
589 2 2.2208 7.87543 -1.93075 22.121
590 2 2.2208 7.93878 3.6699 21.9725
591 1 -1.1104 9.26633 -0.67205 23.4859
592 1 -1.1104 9.32286 -0.625894 26.3745
9130 2 2.2208 13.6326 20.6131 22.015
601 2 2.2208 13.4221 -2.01199 22.014
374 2 2.2208 13.4245 3.85519 22.1786
569 2 2.2208 10.8737 17.7876 22.0893
413 2 2.2208 7.97865 17.7388 24.8037
631 1 -1.1104 12.2028 13.4782 26.3159
448 1 -1.1104 3.99397 11.1783 20.5531
441 1 -1.1104 4.05004 8.26928 20.805
436 1 -1.1104 6.60408 10.6826 20.6655
446 1 -1.1104 3.88206 5.19692 20.6598
9412 1 -1.1104 1.05906 10.8095 26.5895
604 2 2.2208 5.16196 6.5524 22.1093
605 2 2.2208 5.35321 12.0753 22.2701
606 1 -1.1104 1.15034 7.82843 23.5638
608 1 -1.1104 1.1303 7.71772 26.5267
610 1 -1.1104 1.11242 5.09595 23.4612
611 1 -1.1104 1.26747 10.6409 23.8988
614 2 2.2208 5.28808 9.33256 24.9278
615 1 -1.1104 1.14877 4.8983 26.3868
619 1 -1.1104 3.67922 7.7563 23.4671
620 2 2.2208 2.43386 6.3822 24.8823
621 2 2.2208 2.52373 12.0992 25.0134
622 1 -1.1104 3.88467 7.81697 26.3141
623 2 2.2208 2.40199 9.36986 22.1591
624 1 -1.1104 3.92255 4.98385 23.3771
625 1 -1.1104 4.01669 10.5843 23.5097
626 1 -1.1104 4.03246 5.12911 26.2669
627 1 -1.1104 3.90781 10.6228 26.4017
607 1 -1.1104 6.53356 8.06903 23.5445
609 1 -1.1104 6.69808 7.84997 26.2899
618 1 -1.1104 6.72606 10.7241 26.34
612 1 -1.1104 6.68827 5.11752 23.4607
617 1 -1.1104 6.71714 5.05614 26.2582
465 1 -1.1104 12.1749 10.7539 20.7424
613 1 -1.1104 6.79617 10.7301 23.462
463 1 -1.1104 12.2081 5.39053 20.6732
640 2 2.2208 13.6061 9.37505 22.177
9127 2 2.2208 13.6194 6.49838 24.795
380 2 2.2208 10.7572 6.71797 21.9856
383 2 2.2208 8.10467 12.037 24.9321
564 2 2.2208 8.04918 6.3723 24.8755
567 1 -1.1104 9.44528 7.81802 26.3817
568 1 -1.1104 9.34377 7.88759 23.5227
593 1 -1.1104 12.2416 10.6726 26.3619
594 1 -1.1104 12.1937 5.01441 26.3937
595 2 2.2208 10.868 9.28776 24.965
600 1 -1.1104 12.3841 10.6439 23.7157
603 1 -1.1104 12.0552 5.19449 23.5588
628 1 -1.1104 12.3113 7.83851 26.4
629 1 -1.1104 12.0585 7.94549 23.4099
630 2 2.2208 10.8193 12.1558 22.0591
635 1 -1.1104 9.49621 10.6357 26.3842
636 1 -1.1104 9.30583 5.07731 26.3016
637 1 -1.1104 9.58273 10.7054 23.4408
638 1 -1.1104 9.3366 5.08313 23.4763
639 2 2.2208 8.03585 9.23053 22.1286
9168 2 2.2208 13.7075 12.1373 24.9769
379 1 -1.1104 9.43066 13.4018 23.5243
411 1 -1.1104 9.52162 19.049 23.4594
488 1 -1.1104 6.24898 13.5088 20.6996
478 1 -1.1104 6.77025 13.7088 23.5003
538 1 -1.1104 6.77163 13.4485 26.1692
510 1 -1.1104 6.6697 19.7632 23.4971
616 1 -1.1104 1.17449 13.6804 26.2291
376 3 0 0.712377 18.1258 21.4526
409 3 0 1.56838 14.3521 21.7507
414 2 2.2208 2.59467 20.9463 22.081
415 1 -1.1104 4.90002 15.9749 23.2407
449 1 -1.1104 3.96336 13.3924 26.3956
450 1 -1.1104 3.90275 16.135 26.4417
451 3 0 1.99805 17.0184 24.6373
452 1 -1.1104 3.86 19.6064 26.6208
453 2 2.2208 5.18277 17.7408 21.9842
479 2 2.2208 5.2081 14.7117 24.9293
509 2 2.2208 5.10185 20.4363 25.0294
511 1 -1.1104 0.777856 19.3652 26.4841
513 1 -1.1104 3.84693 13.2615 23.5873
539 1 -1.1104 3.81301 19.2937 23.0588
570 1 -1.1104 6.44838 18.8697 26.2014
512 1 -1.1104 6.6536 16.0865 26.0409
598 1 -1.1104 9.58837 16.1987 23.5309
308 2 2.2208 2.2773 20.7052 27.8402
596 2 2.2208 7.98553 15.134 22.0824
330 2 2.2208 10.8936 12.1087 27.7548
525 1 -1.1104 12.3009 16.4509 20.5643
634 1 -1.1104 12.3695 16.3079 23.3527
599 1 -1.1104 9.41811 16.2603 26.307
381 1 -1.1104 12.2879 16.2196 26.2533
566 2 2.2208 10.8781 14.8364 24.9037
565 2 2.2208 10.7062 20.5752 24.7429
597 2 2.2208 8.09483 20.414 21.9209
571 1 -1.1104 9.36025 13.4724 26.415
530 1 -1.1104 9.30388 13.5376 20.6949
9131 2 2.2208 -0.326671 3.6886 24.9167
326 2 2.2208 10.8126 17.7163 27.6378
416 1 -1.1104 7.24981 17.2359 22.8023
9170 2 2.2208 13.6908 14.8246 22.0076
378 2 2.2208 7.88995 15.0544 27.6582
327 2 2.2208 5.14257 0.854295 27.7506
336 2 2.2208 13.517 -1.87873 27.7415
333 2 2.2208 10.6938 0.923067 27.8233
317 2 2.2208 7.97077 6.63437 13.6197
318 2 2.2208 5.23434 14.9168 13.5389
9169 2 2.2208 -0.464577 6.51302 27.7206
339 2 2.2208 2.40173 9.38207 27.8268
301 2 2.2208 13.6208 6.63889 13.7208
337 2 2.2208 13.6926 3.63402 27.7488
314 2 2.2208 2.32638 6.54383 13.5956
304 2 2.2208 2.506 0.914769 13.5055
331 2 2.2208 8.05888 9.35854 27.6774
642 2 2.2208 5.17073 23.2613 5.27926
643 2 2.2208 5.20123 28.9236 5.08698
644 1 -1.1104 0.816299 24.9078 0.956627
645 1 -1.1104 0.915991 24.7354 3.702
646 1 -1.1104 0.807799 21.9987 0.881289
647 1 -1.1104 0.877961 27.6229 0.928212
648 2 2.2208 5.19461 26.1642 2.32654
649 1 -1.1104 1.03456 21.9934 3.74073
650 1 -1.1104 0.890406 27.7485 3.62988
651 1 -1.1104 3.79645 24.816 0.579474
652 2 2.2208 2.31782 23.4721 2.36547
653 2 2.2208 2.30691 29.1244 2.50474
654 1 -1.1104 3.61255 24.7849 3.52883
655 2 2.2208 2.27332 26.2526 5.01683
656 1 -1.1104 3.77067 21.9046 1.27233
657 1 -1.1104 3.62905 27.438 1.03768
658 1 -1.1104 3.7904 21.927 3.99498
659 1 -1.1104 3.74115 27.5982 3.70254
952 2 2.2208 5.21355 23.1507 -0.155772
684 1 -1.1104 6.22657 24.5323 1.30171
789 1 -1.1104 3.64714 24.8073 6.33204
786 1 -1.1104 1.01866 27.6573 6.39138
668 1 -1.1104 6.68625 27.5924 3.81044
787 1 -1.1104 6.69599 21.9911 6.44432
666 1 -1.1104 6.41598 27.8009 0.955058
667 1 -1.1104 6.45049 21.9198 3.7843
664 1 -1.1104 6.54656 24.7729 4.08115
663 1 -1.1104 6.6417 21.8604 1.14333
783 1 -1.1104 0.96877 24.8934 6.51492
790 1 -1.1104 3.81035 21.9585 6.79117
791 1 -1.1104 3.64119 27.732 6.42105
785 1 -1.1104 0.891644 22.0916 6.60152
788 1 -1.1104 6.67241 27.5456 6.53432
784 1 -1.1104 6.63494 24.8096 6.65276
669 2 2.2208 10.917 23.3207 5.24757
670 2 2.2208 10.8486 28.8853 5.17317
671 1 -1.1104 12.4798 24.5043 0.729136
672 1 -1.1104 12.2124 24.6579 3.75238
673 1 -1.1104 12.1735 21.7487 0.980368
674 1 -1.1104 12.4027 27.383 1.26601
675 2 2.2208 10.9477 26.0675 2.5061
676 1 -1.1104 12.1329 21.865 3.7417
677 1 -1.1104 12.0663 27.4645 3.95288
678 1 -1.1104 9.67305 24.4463 1.23561
679 2 2.2208 7.9822 23.2812 2.43643
680 2 2.2208 7.88904 29.0787 2.27808
681 1 -1.1104 9.38263 24.4845 4.02592
682 2 2.2208 7.9371 26.1792 5.01872
683 1 -1.1104 9.36083 21.7579 0.759079
685 1 -1.1104 9.39157 21.7123 3.70017
686 1 -1.1104 9.4094 27.5304 3.31976
821 1 -1.1104 9.44581 27.4354 6.43009
816 1 -1.1104 12.3539 24.6769 6.59388
688 2 2.2208 13.5768 29.1302 2.32442
1316 1 -1.1104 3.68195 47.0988 0.763352
689 2 2.2208 13.6874 26.1198 5.31715
817 1 -1.1104 12.1423 21.9514 6.56065
820 1 -1.1104 9.50345 21.9195 6.69742
818 1 -1.1104 12.2837 27.5893 6.52808
781 2 2.2208 13.595 45.8785 2.56626
714 1 -1.1104 6.31996 30.5103 0.971527
691 2 2.2208 5.2978 34.6036 5.08607
692 1 -1.1104 0.957301 30.3952 1.00123
693 1 -1.1104 0.956583 35.8897 1.02114
695 1 -1.1104 0.911487 30.4983 3.82108
696 1 -1.1104 1.00144 36.1245 3.67998
698 1 -1.1104 0.874975 33.0672 0.838847
699 2 2.2208 5.15238 31.7838 2.30139
700 2 2.2208 5.14666 37.4097 2.4354
701 1 -1.1104 0.907943 33.3018 3.68666
703 1 -1.1104 3.60538 30.4663 0.96522
704 1 -1.1104 3.74708 35.9783 0.988298
705 2 2.2208 2.30543 34.5618 2.41769
706 1 -1.1104 3.84493 30.4263 3.91059
707 1 -1.1104 3.75077 36.0149 3.81001
708 2 2.2208 2.47531 31.7709 5.2705
709 2 2.2208 2.37718 37.3132 5.18613
710 1 -1.1104 3.73683 33.237 0.878453
711 1 -1.1104 3.70698 33.3184 3.68143
715 1 -1.1104 6.51397 30.4561 3.75346
694 1 -1.1104 6.70799 36.0863 0.931107
702 1 -1.1104 6.33907 33.5106 3.51758
716 1 -1.1104 6.4954 33.2473 0.746183
697 1 -1.1104 6.65764 36.1261 3.72688
844 1 -1.1104 1.25914 33.1332 6.55179
843 1 -1.1104 6.74742 36.027 6.64449
841 1 -1.1104 0.94242 35.8954 6.59521
847 1 -1.1104 3.84879 35.9913 6.56055
842 1 -1.1104 6.72561 30.3111 6.48283
840 1 -1.1104 1.09087 30.3191 6.59524
848 1 -1.1104 4.00416 33.3434 6.7607
717 2 2.2208 10.7772 34.5637 5.1018
718 1 -1.1104 12.3843 30.589 1.20749
719 1 -1.1104 12.2535 36.1427 1.0413
720 1 -1.1104 12.1951 30.3765 3.84632
721 1 -1.1104 12.1695 35.7852 3.78624
722 1 -1.1104 12.1353 33.4004 0.84474
723 2 2.2208 10.7093 31.8079 2.24125
724 2 2.2208 10.753 37.5522 2.18707
725 1 -1.1104 12.0197 33.0948 3.67991
726 1 -1.1104 9.08379 30.6785 1.10774
727 1 -1.1104 9.37513 36.2349 0.805619
728 2 2.2208 7.97615 34.7699 2.22724
729 1 -1.1104 9.42846 30.2991 3.90228
730 1 -1.1104 9.39676 35.9675 3.71564
731 2 2.2208 8.04595 31.6011 5.1481
732 2 2.2208 8.02289 37.3348 5.15817
733 1 -1.1104 9.30933 33.2791 0.960775
734 1 -1.1104 9.1722 33.2081 3.82588
1156 2 2.2208 10.8272 43.0823 13.5945