ITEM: TIMESTEP
100000
ITEM: NUMBER OF ATOMS
17760
ITEM: BOX BOUNDS pp pp pp
-3.9162819617094968e-01 2.7731628196170320e+01
-4.6280995310484734e+00 3.3270809953104555e+02
-3.9169487793730801e-01 2.7731694877937784e+01
ITEM: ATOMS id type q x y z
1 2 2.2208 5.36681 0.88673 5.21638
2 1 -1.1104 1.16635 -3.19743 0.921132
3 1 -1.1104 1.2467 2.37281 0.977981
6 1 -1.1104 1.28706 -3.27211 3.72338
7 1 -1.1104 1.21761 2.24518 3.81216
10 1 -1.1104 1.16927 -0.511201 1.02718
12 2 2.2208 5.32948 -1.91997 2.42387
13 2 2.2208 5.45829 3.72378 2.42165
14 1 -1.1104 1.03162 -0.559917 3.91763
16 1 -1.1104 3.92029 -3.27567 0.878326
17 1 -1.1104 3.94696 2.28704 0.997158
18 2 2.2208 2.69177 0.923104 2.43603
19 1 -1.1104 4.11193 -3.39292 3.68491
20 1 -1.1104 4.04512 2.33799 3.90708
21 2 2.2208 2.59272 -1.8773 5.25263
22 2 2.2208 2.68366 3.78182 5.21412
23 1 -1.1104 3.99688 -0.56832 1.06017
24 1 -1.1104 3.93403 -0.455237 3.85028
9064 2 2.2208 -0.201723 12.1121 5.25108
9058 2 2.2208 -0.11532 0.927332 5.20659
167 1 -1.1104 1.22492 2.45693 6.49615
9055 2 2.2208 -0.212964 -1.92723 2.42769
173 1 -1.1104 3.94796 2.43719 6.81271
174 1 -1.1104 4.05877 -0.337705 6.60986
172 1 -1.1104 4.05505 -3.26292 6.47795
316 2 2.2208 10.9403 9.43732 13.7136
9063 2 2.2208 -0.184992 9.35962 2.49411
9069 2 2.2208 -0.239181 17.679 5.13307
11 1 -1.1104 6.7352 -0.454212 0.898848
5 1 -1.1104 6.74922 2.31018 0.977083
15 1 -1.1104 6.86178 -0.587392 3.66193
9 1 -1.1104 6.88807 2.3028 3.57715
8 1 -1.1104 6.83802 -3.31675 3.93073
4 1 -1.1104 6.62782 -3.3739 1.18849
31 2 2.2208 10.9805 0.818104 5.19608
32 1 -1.1104 12.3123 -3.30518 0.874334
33 1 -1.1104 12.3509 2.29017 0.908365
34 1 -1.1104 12.3876 -3.31265 3.74066
35 1 -1.1104 12.4634 2.32847 3.82451
36 1 -1.1104 12.3602 -0.547782 1.07579
37 2 2.2208 10.9952 -1.96326 2.38064
38 2 2.2208 10.9092 3.64338 2.27024
39 1 -1.1104 12.4615 -0.568185 3.84501
40 1 -1.1104 9.47645 -3.30157 1.04384
41 1 -1.1104 9.61208 2.17927 0.901
42 2 2.2208 8.27457 0.819005 2.33613
43 1 -1.1104 9.66739 -3.40053 3.78341
44 1 -1.1104 9.62146 2.24627 3.7658
45 2 2.2208 8.22569 -1.9089 5.23945
46 2 2.2208 8.26448 3.75648 5.24161
47 1 -1.1104 9.63308 -0.531523 1.05448
48 1 -1.1104 9.81457 -0.451547 3.65405
206 1 -1.1104 12.463 2.45659 6.62998
171 1 -1.1104 6.7953 -0.502292 6.56108
168 1 -1.1104 6.96667 -3.27005 6.67219
8979 2 2.2208 -0.287791 12.0906 10.8044
9062 2 2.2208 -0.336754 6.65996 5.28702
54 2 2.2208 5.44634 6.47512 5.19174
55 2 2.2208 5.46044 12.1995 5.26709
56 1 -1.1104 1.16092 8.01602 1.12008
58 1 -1.1104 1.12918 8.07295 3.94343
60 1 -1.1104 1.23426 5.13336 1.20456
61 1 -1.1104 1.04695 10.8254 1.01583
66 2 2.2208 5.39063 9.3282 2.41618
67 1 -1.1104 1.10541 5.18516 3.95385
68 1 -1.1104 1.24243 10.8169 3.85706
71 1 -1.1104 4.11598 7.84541 1.1416
72 2 2.2208 2.60793 6.50062 2.4364
73 2 2.2208 2.55337 12.2212 2.5478
74 1 -1.1104 3.95649 7.84497 3.81429
75 2 2.2208 2.67337 9.34787 5.32515
76 1 -1.1104 4.01497 5.05893 1.12858
77 1 -1.1104 3.9675 10.5807 1.1079
79 1 -1.1104 3.94592 5.05755 3.80928
80 1 -1.1104 4.0326 10.8317 3.9556
30 1 -1.1104 12.3264 13.5031 9.40435
234 1 -1.1104 1.25493 7.92878 6.76782
239 1 -1.1104 4.01954 5.21568 6.54965
238 1 -1.1104 4.05786 8.04744 6.58679
70 1 -1.1104 6.83438 10.8288 3.89673
202 1 -1.1104 6.81251 16.5025 12.4834
78 1 -1.1104 4.07997 10.8072 6.74051
9067 2 2.2208 -0.379078 14.9556 2.39068
236 1 -1.1104 1.2498 5.14324 6.78819
235 1 -1.1104 6.67074 7.86776 6.56263
28 2 2.2208 5.4513 12.051 -0.314068
69 1 -1.1104 6.82083 5.12916 3.765
57 1 -1.1104 6.84548 7.7855 0.970125
59 1 -1.1104 6.7782 7.93024 3.88117
63 1 -1.1104 6.74244 5.12793 0.9842
64 1 -1.1104 6.83031 10.6463 1.00258
84 2 2.2208 11.0038 6.6048 5.28439
85 2 2.2208 10.9526 12.2089 5.33335
86 1 -1.1104 12.3752 7.87997 1.09344
87 1 -1.1104 12.4415 7.94545 3.9312
88 1 -1.1104 12.268 4.95284 0.92422
89 1 -1.1104 12.4802 10.6748 1.0659
91 2 2.2208 10.9347 9.25558 2.60516
92 1 -1.1104 12.2438 5.23415 3.78846
93 1 -1.1104 12.4493 10.7486 3.84995
94 1 -1.1104 9.72578 7.89218 1.19854
95 2 2.2208 8.14253 6.48398 2.44523
96 2 2.2208 8.08572 12.1304 2.38304
97 1 -1.1104 9.70323 8.03673 4.01713
98 2 2.2208 8.184 9.29493 5.35039
99 1 -1.1104 9.45386 5.14383 1.08414
100 1 -1.1104 9.51732 10.6588 1.04981
102 1 -1.1104 9.58248 5.28005 3.76755
103 1 -1.1104 9.55249 10.7042 3.99683
269 1 -1.1104 9.50704 5.25057 6.72797
90 1 -1.1104 12.3651 10.8286 6.65455
9059 2 2.2208 -0.262552 3.70431 2.52568
265 1 -1.1104 12.3196 7.97652 6.70796
65 1 -1.1104 6.85644 10.7274 6.60709
101 1 -1.1104 9.72962 10.7433 6.71229
289 1 -1.1104 6.80286 16.4479 9.49874
106 2 2.2208 5.30857 17.8221 5.16122
107 1 -1.1104 1.15562 13.6639 0.963559
109 1 -1.1104 0.983487 19.0408 1.02261
113 1 -1.1104 1.13152 13.5943 3.82283
114 1 -1.1104 1.1414 19.1329 3.76316
116 1 -1.1104 0.991333 16.3129 0.751691
119 2 2.2208 5.35037 14.979 2.37666
120 2 2.2208 5.29199 20.4963 2.34505
121 1 -1.1104 1.12788 16.271 3.76441
123 1 -1.1104 4.02584 13.3853 1.207
125 1 -1.1104 3.9349 18.9994 1.05442
127 2 2.2208 2.56686 17.6673 2.38819
128 1 -1.1104 3.94006 13.7356 3.91788
129 1 -1.1104 3.8812 19.2525 3.71661
130 2 2.2208 2.50719 15.1253 5.27216
131 2 2.2208 2.5243 20.642 5.16271
132 1 -1.1104 4.02057 16.3447 0.976778
134 1 -1.1104 4.02554 16.4339 3.82298
108 1 -1.1104 1.29269 13.642 6.62966
306 2 2.2208 2.70588 14.5487 -0.362279
115 1 -1.1104 6.80067 13.5006 3.87082
122 1 -1.1104 6.73632 16.4135 3.91399
117 1 -1.1104 1.227 16.3375 6.65795
27 1 -1.1104 12.3904 19.1586 12.2397
199 2 2.2208 8.14507 14.9653 10.8718
149 1 -1.1104 12.3253 16.3526 6.58338
111 1 -1.1104 6.74726 13.6627 6.74694
140 1 -1.1104 6.6796 16.3631 0.973771
138 1 -1.1104 6.66879 18.9824 1.03508
139 1 -1.1104 6.73565 19.3138 3.86164
110 1 -1.1104 6.80916 13.5509 0.981601
141 2 2.2208 10.8623 17.7168 5.04496
142 1 -1.1104 12.3001 13.3797 1.0573
144 1 -1.1104 12.4857 18.9949 0.756923
146 1 -1.1104 12.3607 13.4556 3.80142
147 1 -1.1104 12.3475 19.1032 3.78596
148 1 -1.1104 12.1819 16.1534 0.966547
150 2 2.2208 10.9426 14.86 2.46628
151 2 2.2208 10.9426 20.5106 2.44374
152 1 -1.1104 12.2781 16.2512 3.74091
153 1 -1.1104 9.57478 13.4596 1.00936
155 1 -1.1104 9.56748 19.16 1.00911
157 2 2.2208 8.08071 17.7901 2.39547
158 1 -1.1104 9.57302 13.5348 3.88385
159 1 -1.1104 9.66995 19.1738 3.81457
160 2 2.2208 8.24299 15.025 5.19006
161 2 2.2208 8.20054 20.5879 5.22032
162 1 -1.1104 9.40412 16.349 0.954756
164 1 -1.1104 9.52207 16.2369 3.67978
163 1 -1.1104 9.65898 16.373 6.46413
154 1 -1.1104 9.56881 13.6489 6.64146
143 1 -1.1104 12.3692 13.5139 6.71443
145 1 -1.1104 12.376 19.1902 6.57104
8785 2 2.2208 -0.358469 20.4888 7.98256
8918 2 2.2208 -0.247935 0.875773 10.8703
170 1 -1.1104 1.2747 -0.470531 6.59597
8953 2 2.2208 -0.231437 3.75747 7.9068
8952 2 2.2208 -0.151376 -1.84432 7.96179
166 1 -1.1104 1.29431 -3.29629 6.53537
175 2 2.2208 5.33633 0.923602 10.7809
176 1 -1.1104 1.29637 -3.43095 12.1515
177 1 -1.1104 1.29273 2.17118 12.3539
180 1 -1.1104 1.19416 -3.14631 9.34302
181 1 -1.1104 1.11409 2.02435 9.45666
184 1 -1.1104 1.25975 -0.58216 12.2462
186 2 2.2208 5.50123 -1.95569 8.002
187 2 2.2208 5.37221 3.75426 8.02951
188 1 -1.1104 1.23483 -0.393653 9.45607
190 1 -1.1104 4.06947 -3.22044 12.1347
191 1 -1.1104 3.97107 2.27623 12.2387
192 2 2.2208 2.71961 0.92209 8.11676
193 1 -1.1104 4.03707 -3.38785 9.40656
194 1 -1.1104 3.89628 2.40026 9.43205
195 2 2.2208 2.62816 -1.94543 10.767
196 2 2.2208 2.60834 3.74045 10.9352
197 1 -1.1104 3.87832 -0.43072 12.2565
198 1 -1.1104 4.18965 -0.536171 9.34827
288 1 -1.1104 6.80007 19.1767 9.33626
8758 2 2.2208 -0.320992 17.7614 10.8965
81 1 -1.1104 12.333 16.3286 12.075
210 1 -1.1104 9.58365 -0.437997 6.5916
178 1 -1.1104 6.87741 -3.28878 12.3139
207 1 -1.1104 12.5267 -0.410678 6.6557
205 1 -1.1104 12.5374 -3.36101 6.69914
208 1 -1.1104 9.83646 -3.26148 6.55025
169 1 -1.1104 6.7789 2.29892 6.36981
179 1 -1.1104 6.75755 2.28702 12.1297
183 1 -1.1104 6.737 2.23695 9.37151
182 1 -1.1104 6.81943 -3.26459 9.54564
189 1 -1.1104 6.96533 -0.532411 9.28081
185 1 -1.1104 6.68111 -0.405727 12.064
209 1 -1.1104 9.80005 2.48515 6.60131
211 2 2.2208 11.0126 0.891686 10.9133
212 1 -1.1104 12.5093 -3.23448 12.4196
213 1 -1.1104 12.3732 2.39133 12.1354
214 1 -1.1104 12.4101 -3.28356 9.52845
215 1 -1.1104 12.3041 2.22318 9.43066
216 1 -1.1104 12.471 -0.540972 12.2178
217 2 2.2208 11.0224 -1.91751 8.12654
219 1 -1.1104 12.523 -0.508608 9.38152
220 1 -1.1104 9.60156 -3.28326 12.3447
221 1 -1.1104 9.55764 2.31849 12.1509
222 2 2.2208 8.18825 1.02212 8.01064
223 1 -1.1104 9.69672 -3.37615 9.44633
224 1 -1.1104 9.50805 2.36072 9.44306
225 2 2.2208 8.27636 -1.89672 10.877
226 2 2.2208 8.25916 3.68883 10.8498
227 1 -1.1104 9.68267 -0.452906 12.2275
228 1 -1.1104 9.56373 -0.464894 9.47862
218 2 2.2208 11.1276 3.71809 7.95654
8986 2 2.2208 -0.0921555 9.27479 8.0691
9068 2 2.2208 -0.352774 20.5376 2.41392
8987 2 2.2208 -0.163459 6.58088 10.89
309 2 2.2208 8.17347 0.868385 13.4292
62 1 -1.1104 1.12413 10.7349 6.54621
311 2 2.2208 10.9198 3.69523 13.5806
240 2 2.2208 5.35145 6.58979 10.8298
241 2 2.2208 5.39847 12.3449 10.8329
242 1 -1.1104 1.27095 7.96172 12.172
244 1 -1.1104 1.17537 7.98407 9.53495
246 1 -1.1104 1.27203 5.07902 12.2885
247 1 -1.1104 1.19018 10.6787 12.2389
250 2 2.2208 5.38857 9.40223 8.08344
251 1 -1.1104 1.11761 5.13355 9.51185
252 1 -1.1104 1.19047 10.7751 9.51354
255 1 -1.1104 3.96564 8.05793 12.089
256 2 2.2208 2.55399 6.46729 8.08005
257 2 2.2208 2.54974 12.2314 8.08981
258 1 -1.1104 3.89704 7.96103 9.40675
259 2 2.2208 2.68395 9.40848 10.8029
260 1 -1.1104 4.04934 5.20484 12.2146
261 1 -1.1104 3.91523 10.7037 12.3768
262 1 -1.1104 4.02949 5.1851 9.42672
263 1 -1.1104 4.01664 10.9063 9.6047
9056 2 2.2208 13.6558 14.953 10.7991
313 2 2.2208 5.39817 9.39325 13.5933
8759 2 2.2208 -0.212343 15.0413 8.02562
25 2 2.2208 10.9018 17.8333 10.9013
267 1 -1.1104 9.50746 7.94132 6.78193
266 1 -1.1104 12.4533 5.2774 6.75564
165 1 -1.1104 9.55443 19.2019 9.37324
245 1 -1.1104 6.71587 8.0341 9.42168
253 1 -1.1104 6.69992 5.14762 9.48964
243 1 -1.1104 6.74885 7.91292 12.2689
237 1 -1.1104 6.75294 5.0477 6.65339
249 1 -1.1104 6.71691 10.9121 12.28
254 1 -1.1104 6.81683 10.888 9.58518
248 1 -1.1104 6.96313 5.17641 12.2271
264 1 -1.1104 9.53057 10.8153 9.41455
268 1 -1.1104 9.6699 5.23493 9.37357
270 1 -1.1104 9.57764 10.7984 12.2901
271 1 -1.1104 9.73162 5.16338 12.1988
272 2 2.2208 8.22651 9.3661 10.835
273 1 -1.1104 9.5851 7.98107 9.28994
274 2 2.2208 8.34052 12.177 8.04149
275 2 2.2208 8.15987 6.55849 8.08245
276 2 2.2208 10.9564 6.63166 10.7907
277 2 2.2208 10.9076 12.1846 10.8098
278 1 -1.1104 12.4188 8.07779 12.1115
279 1 -1.1104 12.5033 7.9842 9.57247
280 1 -1.1104 12.3562 5.15775 12.0433
281 1 -1.1104 12.4183 10.7902 12.2155
282 2 2.2208 11.0469 9.42278 8.13821
283 1 -1.1104 12.3712 5.09773 9.47328
284 1 -1.1104 12.3707 10.8369 9.56751
285 1 -1.1104 9.54487 7.90387 12.1298
304 2 2.2208 2.59511 0.789664 13.6357
232 1 -1.1104 1.0953 19.1841 6.646
124 1 -1.1104 3.95608 13.552 6.698
9075 2 2.2208 -0.102755 3.58239 13.6245
320 2 2.2208 5.23295 20.6358 13.5638
296 1 -1.1104 6.79742 19.2224 12.1013
133 1 -1.1104 4.0253 16.3826 6.63254
9169 2 2.2208 -0.305113 6.39588 -0.22904
126 1 -1.1104 3.95957 19.1737 6.5186
29 2 2.2208 2.51183 14.9662 10.8382
51 2 2.2208 2.38645 20.5292 10.8908
52 1 -1.1104 4.09696 16.225 12.1734
53 1 -1.1104 1.16595 16.2956 12.2155
203 1 -1.1104 3.84787 13.6464 9.45768
204 1 -1.1104 3.98058 16.3945 9.39843
231 2 2.2208 2.5498 17.7148 7.97083
233 1 -1.1104 3.91973 19.069 9.32602
286 1 -1.1104 3.96042 19.2063 12.2348
287 1 -1.1104 3.9403 13.3944 12.2391
291 1 -1.1104 1.16342 19.2066 9.47237
292 1 -1.1104 1.12858 16.3118 9.43675
293 2 2.2208 5.30993 20.5656 8.04281
294 1 -1.1104 1.07268 13.6157 9.42783
295 2 2.2208 5.40791 15.0482 8.05079
298 1 -1.1104 1.10027 19.1353 12.4062
299 1 -1.1104 1.10072 13.5277 12.3326
300 2 2.2208 5.39405 17.7701 10.7915
50 1 -1.1104 12.3065 19.2422 9.36921
104 1 -1.1104 12.3967 16.4374 9.32975
105 1 -1.1104 9.48709 13.6154 12.178
290 1 -1.1104 6.64425 13.7706 9.49228
322 2 2.2208 8.11613 17.8318 13.6853
201 1 -1.1104 9.57441 16.3025 12.2705
317 2 2.2208 8.13357 6.54924 13.6721
135 1 -1.1104 9.40985 19.1631 12.2657
118 1 -1.1104 6.84497 16.4514 6.5891
156 1 -1.1104 9.52888 19.2473 6.58422
112 1 -1.1104 6.80363 19.1506 6.49037
26 1 -1.1104 12.3636 13.6067 12.3333
319 2 2.2208 2.51089 17.7574 13.6796
136 2 2.2208 8.03898 17.7835 8.06808
229 1 -1.1104 9.48094 16.4117 9.32521
200 2 2.2208 8.17013 20.5782 10.9368
83 2 2.2208 11.0009 20.4754 7.96463
137 1 -1.1104 9.43788 13.538 9.42208
82 2 2.2208 10.8904 15.1615 8.02352
297 1 -1.1104 6.69296 13.7701 12.3672
315 2 2.2208 8.18336 12.2392 13.6768
330 2 2.2208 11.0129 12.1521 -0.376933
303 2 2.2208 5.42143 -1.84568 13.6084
326 2 2.2208 10.9053 17.7006 -0.367781
305 2 2.2208 5.43159 3.76764 13.5273
332 2 2.2208 11.1163 6.53044 -0.336278
327 2 2.2208 5.34576 0.919966 -0.335133
324 2 2.2208 10.8838 20.5909 13.5734
331 2 2.2208 8.24301 9.16906 -0.242972
333 2 2.2208 10.9955 0.816364 -0.349675
341 2 2.2208 5.25248 0.815046 16.4948
342 1 -1.1104 1.14992 -3.21324 17.8188
343 1 -1.1104 1.06151 2.45126 17.8956
346 1 -1.1104 1.38115 -3.29464 14.959
348 1 -1.1104 1.22355 2.35474 15.0272
354 1 -1.1104 1.37178 -0.366647 17.8557
356 2 2.2208 5.37545 -2.0523 19.2689
357 2 2.2208 5.28402 3.77885 19.2781
358 1 -1.1104 0.944884 -0.566975 15.0892
362 1 -1.1104 3.86819 -3.49791 17.8512
363 1 -1.1104 3.9056 2.26714 17.8275
364 2 2.2208 2.45817 0.942469 19.3221
365 1 -1.1104 4.09459 -3.34874 14.9145
367 1 -1.1104 3.87971 2.25744 14.9602
369 2 2.2208 2.66956 -1.82783 16.4731
371 1 -1.1104 4.16461 -0.551497 17.912
372 1 -1.1104 3.78987 -0.473666 15.0318
370 2 2.2208 2.60477 3.7477 16.5285
377 2 2.2208 -0.211055 0.9739 16.3933
9430 2 2.2208 -0.224764 -1.87405 19.1957
9128 2 2.2208 -0.31341 3.72345 19.2854
8437 2 2.2208 10.941 -4.63978 16.5669
9208 2 2.2208 -0.431341 12.2163 16.4705
349 1 -1.1104 1.24751 2.24755 20.7178
366 1 -1.1104 4.06629 -3.39544 20.7859
9091 2 2.2208 -0.294223 20.6207 13.7183
9243 2 2.2208 -0.243073 9.3112 19.2876
345 1 -1.1104 6.77592 2.2059 17.7485
352 1 -1.1104 6.79653 2.44994 14.8045
360 1 -1.1104 6.72184 -0.43599 14.9772
355 1 -1.1104 6.74446 -0.683751 17.8282
350 1 -1.1104 6.81023 -3.39147 15.0072
344 1 -1.1104 6.69847 -3.35404 17.7877
384 2 2.2208 10.9071 0.900095 16.3064
385 1 -1.1104 12.3067 -3.29154 18.0864
386 1 -1.1104 12.3523 2.33779 17.7962
387 1 -1.1104 12.27 -3.25514 15.2498
389 1 -1.1104 12.4584 2.26129 14.9345
391 1 -1.1104 12.2794 -0.436673 17.7997
392 2 2.2208 10.9508 -1.92967 19.3357
393 2 2.2208 11.0635 3.76194 19.1207
394 1 -1.1104 12.3816 -0.493599 15.0965
396 1 -1.1104 9.50288 -3.24938 17.9465
397 1 -1.1104 9.5214 2.36441 17.7453
398 2 2.2208 8.22939 0.973287 19.1842
399 1 -1.1104 9.5728 -3.22387 15.0654
401 1 -1.1104 9.60261 2.30886 14.9682
403 2 2.2208 8.12403 -1.96958 16.496
404 2 2.2208 8.05689 3.72415 16.4689
405 1 -1.1104 9.5044 -0.450008 17.8645
406 1 -1.1104 9.53101 -0.500866 14.9789
351 1 -1.1104 6.80149 -3.36018 20.6016
402 1 -1.1104 9.71651 2.40212 20.4493
9130 2 2.2208 13.6414 20.523 22.0514
9244 2 2.2208 -0.227683 6.4958 16.4712
417 2 2.2208 5.38887 6.50895 16.4549
418 2 2.2208 5.40115 12.0933 16.4805
419 1 -1.1104 1.07679 7.87038 17.8684
421 1 -1.1104 1.14666 7.98396 15.1052
425 1 -1.1104 1.11155 5.15557 17.9632
426 1 -1.1104 1.15259 10.7411 17.6965
429 2 2.2208 5.2752 9.23652 19.3789
430 1 -1.1104 1.19319 5.00846 15.0979
432 1 -1.1104 0.96414 10.7405 14.995
437 1 -1.1104 3.89368 7.90562 17.8883
438 2 2.2208 2.52253 6.46554 19.3623
439 2 2.2208 2.64015 12.0135 19.2256
440 1 -1.1104 3.93994 7.97263 14.9697
442 2 2.2208 2.57857 9.2387 16.5004
443 1 -1.1104 3.87151 5.10747 17.9563
444 1 -1.1104 4.07478 10.7009 18.0219
445 1 -1.1104 3.90321 5.15741 15.0921
447 1 -1.1104 3.9786 10.6078 15.0929
448 1 -1.1104 3.96541 10.8118 20.8908
435 1 -1.1104 6.80412 10.6684 15.083
423 1 -1.1104 6.77876 7.91191 15.0669
424 1 -1.1104 6.84684 7.93281 20.7769
328 2 2.2208 2.57834 -1.99034 27.708
431 1 -1.1104 1.13784 5.04648 20.6869
9302 1 -1.1104 1.3522 10.8282 20.5783
340 2 2.2208 5.30438 17.685 27.5864
433 1 -1.1104 6.81746 5.1604 15.0401
420 1 -1.1104 6.83798 7.78608 17.8534
428 1 -1.1104 6.66144 10.6715 17.9255
427 1 -1.1104 6.68712 5.12412 17.8346
454 2 2.2208 10.8948 6.38809 16.322
455 2 2.2208 10.9771 12.2499 16.4836
456 1 -1.1104 12.1774 7.6896 17.8475
457 1 -1.1104 12.3037 7.90327 14.9657
459 1 -1.1104 12.4472 5.07808 17.8537
460 1 -1.1104 12.4646 10.7047 17.7121
461 2 2.2208 10.8496 9.41605 19.3536
462 1 -1.1104 12.4275 5.04006 14.9392
464 1 -1.1104 12.2964 10.7847 15.0006
466 1 -1.1104 9.52024 8.15047 17.8781
467 2 2.2208 8.28303 6.55789 19.2099
468 2 2.2208 8.02177 11.9867 19.3346
469 1 -1.1104 9.56086 7.93563 15.005
471 2 2.2208 8.12869 9.30344 16.4272
472 1 -1.1104 9.58998 5.20135 17.8753
473 1 -1.1104 9.54761 10.8645 17.8881
474 1 -1.1104 9.52498 5.07843 14.996
476 1 -1.1104 9.58296 10.8238 15.254
458 1 -1.1104 12.4329 8.11369 20.679
477 1 -1.1104 9.51555 10.7337 20.7153
470 1 -1.1104 9.73445 7.8933 20.6981
9092 2 2.2208 -0.273787 15.054 13.7297
480 2 2.2208 5.4447 17.7733 16.3242
481 1 -1.1104 1.14106 13.5201 18.1145
482 1 -1.1104 1.00015 19.3401 18.2597
485 1 -1.1104 1.23977 13.5974 15.2123
486 1 -1.1104 1.12711 19.1757 15.1901
491 1 -1.1104 1.4468 16.2067 18.4002
493 2 2.2208 5.41746 15.1274 19.2314
494 2 2.2208 5.27672 20.5901 19.3023
495 1 -1.1104 1.07129 16.4108 15.3544
498 1 -1.1104 3.88114 13.6126 18.236
499 1 -1.1104 3.93665 19.4038 17.6967
500 2 2.2208 2.78749 17.9455 18.9512
501 1 -1.1104 3.94192 13.4015 15.2646
502 1 -1.1104 3.85809 19.0515 15.1089
504 2 2.2208 2.35634 15.0386 16.5401
505 2 2.2208 2.46311 20.664 16.4789
506 1 -1.1104 3.94071 16.4862 17.471
507 1 -1.1104 3.93361 16.3544 14.9103
508 1 -1.1104 4.2429 16.737 20.2386
503 1 -1.1104 3.40866 19.5035 20.4423
488 1 -1.1104 5.99229 13.2613 20.5707
487 1 -1.1104 6.71609 13.4985 15.1049
492 1 -1.1104 6.68694 16.4428 17.7491
484 1 -1.1104 6.74011 19.2013 17.7764
489 1 -1.1104 6.62478 19.3005 14.982
496 1 -1.1104 6.74175 16.4095 15.0658
483 1 -1.1104 6.479 13.717 17.6574
490 1 -1.1104 6.46351 19.0243 20.5643
310 2 2.2208 10.9493 -1.98488 13.6594
634 1 -1.1104 12.4552 16.2697 23.3699
514 2 2.2208 11.0027 17.8259 16.355
515 1 -1.1104 12.2986 13.7245 17.9027
516 1 -1.1104 12.5685 19.3111 17.9119
517 1 -1.1104 12.4466 13.7111 15.0109
519 1 -1.1104 12.2851 19.2655 15.0573
521 1 -1.1104 12.2414 16.4427 17.8549
522 2 2.2208 10.9048 15.0132 19.2301
523 2 2.2208 10.8385 20.6134 19.1977
524 1 -1.1104 12.3072 16.4915 14.9877
526 1 -1.1104 9.30487 13.5471 17.8103
527 1 -1.1104 9.58606 19.2033 17.7603
528 2 2.2208 8.07103 17.759 19.2229
529 1 -1.1104 9.52771 13.6118 15.0273
531 1 -1.1104 9.49582 19.2876 15.0632
533 2 2.2208 8.03125 14.9552 16.4248
534 2 2.2208 8.10132 20.6572 16.4783
535 1 -1.1104 9.48358 16.2621 17.8903
536 1 -1.1104 9.47771 16.4497 15.1537
532 1 -1.1104 9.39291 19.1218 20.5924
497 1 -1.1104 7.04026 16.2045 20.5317
518 1 -1.1104 12.3538 13.6174 20.6662
520 1 -1.1104 12.2026 19.1887 20.7601
537 1 -1.1104 9.65427 16.3699 20.8449
525 1 -1.1104 12.5153 16.3376 20.646
379 1 -1.1104 9.65708 13.5812 23.4583
368 1 -1.1104 4.0175 2.33082 20.7212
347 1 -1.1104 1.18935 -3.27497 20.5923
359 1 -1.1104 1.07063 -0.487577 20.5866
9131 2 2.2208 -0.289109 3.6743 24.9657
373 1 -1.1104 3.91471 -0.556901 20.686
540 2 2.2208 5.23482 0.802987 21.9834
541 1 -1.1104 1.0467 -3.32573 23.4503
542 1 -1.1104 1.09352 2.17884 23.4912
545 1 -1.1104 1.13804 -3.36971 26.2202
546 1 -1.1104 1.189 2.23049 26.3684
549 1 -1.1104 1.16012 -0.49082 23.5569
551 2 2.2208 5.37802 -1.90987 24.8719
552 2 2.2208 5.39891 3.70746 24.8786
553 1 -1.1104 1.1597 -0.532187 26.3271
555 1 -1.1104 3.76279 -3.11815 23.5285
556 1 -1.1104 3.79092 2.26026 23.444
557 2 2.2208 2.58009 0.780582 24.9235
558 1 -1.1104 3.93805 -3.40237 26.2196
559 1 -1.1104 3.76119 2.2047 26.3885
560 2 2.2208 2.54939 -1.97894 22.0293
561 2 2.2208 2.54279 3.64401 22.1433
562 1 -1.1104 3.92898 -0.543115 23.3912
563 1 -1.1104 4.01013 -0.516872 26.1915
641 2 2.2208 -0.241973 0.86193 22.1692
9316 2 2.2208 -0.214306 -1.87613 24.8366
510 1 -1.1104 6.75261 19.5741 23.4643
390 1 -1.1104 12.5687 2.29138 20.6878
388 1 -1.1104 12.4991 -3.45509 20.8293
395 1 -1.1104 12.3843 -0.508047 20.6113
544 1 -1.1104 6.67326 2.26094 23.4708
543 1 -1.1104 6.70377 -3.39907 23.3364
548 1 -1.1104 6.75146 2.34107 26.2561
353 1 -1.1104 6.86266 2.3532 20.6124
361 1 -1.1104 6.74598 -0.453579 20.4515
550 1 -1.1104 6.78834 -0.59785 23.3167
554 1 -1.1104 6.80619 -0.54596 26.21
400 1 -1.1104 9.71241 -3.3788 20.776
407 1 -1.1104 9.5626 -0.445856 20.6
547 1 -1.1104 6.79774 -3.36611 26.356
575 2 2.2208 10.9965 0.870175 21.9018
576 1 -1.1104 12.3264 -3.25529 23.5945
577 1 -1.1104 12.3331 2.40777 23.4204
578 1 -1.1104 12.3244 -3.38322 26.2739
579 1 -1.1104 12.5484 2.31582 26.3357
580 1 -1.1104 12.4278 -0.397091 23.3665
581 2 2.2208 11.0052 -1.90841 24.9108
582 2 2.2208 10.9669 3.63995 24.8611
583 1 -1.1104 12.2298 -0.59075 26.2726
584 1 -1.1104 9.6147 -3.47479 23.4198
585 1 -1.1104 9.57036 2.25621 23.4436
586 2 2.2208 8.19672 0.799721 24.7312
587 1 -1.1104 9.4945 -3.42915 26.4241
588 1 -1.1104 9.56182 2.15327 26.3628
589 2 2.2208 8.17761 -1.983 22.0511
590 2 2.2208 8.26232 3.72285 21.9603
591 1 -1.1104 9.55984 -0.573578 23.3814
592 1 -1.1104 9.56554 -0.530496 26.2112
566 2 2.2208 11.2094 14.9971 25.029
416 1 -1.1104 7.12501 16.7916 23.2404
9093 2 2.2208 -0.259831 12.3191 27.6516
422 1 -1.1104 1.26029 7.79325 20.8149
441 1 -1.1104 3.99682 7.88516 20.8115
9413 2 2.2208 -0.186766 6.49631 22.077
446 1 -1.1104 3.96889 5.11621 20.5745
9171 2 2.2208 -0.193346 9.12925 25.1733
9412 1 -1.1104 1.23447 10.5276 26.4696
604 2 2.2208 5.42776 6.41175 22.0994
605 2 2.2208 5.3279 12.0183 22.3676
606 1 -1.1104 1.20263 7.78034 23.7101
608 1 -1.1104 1.15055 7.56329 26.4913
610 1 -1.1104 1.16132 5.07868 23.5294
611 1 -1.1104 1.24558 10.5422 23.9068
614 2 2.2208 5.5546 9.17391 24.9767
615 1 -1.1104 1.13219 4.97957 26.3864
619 1 -1.1104 4.04878 7.74493 23.6548
620 2 2.2208 2.62621 6.28288 24.9966
621 2 2.2208 2.57464 11.9019 25.1946
622 1 -1.1104 4.03624 7.71884 26.4965
623 2 2.2208 2.63719 9.21673 22.3866
624 1 -1.1104 4.06187 5.03884 23.4555
625 1 -1.1104 4.08033 10.3728 23.6183
626 1 -1.1104 4.04862 4.93176 26.3211
627 1 -1.1104 4.04691 10.4348 26.377
571 1 -1.1104 9.62243 13.6112 26.3439
413 2 2.2208 8.2394 17.7016 25.0255
463 1 -1.1104 12.5159 5.10134 20.6866
434 1 -1.1104 6.8 5.22988 20.6327
612 1 -1.1104 6.86811 4.99491 23.4136
475 1 -1.1104 9.75791 5.20624 20.6101
465 1 -1.1104 12.2217 10.8631 20.5834
617 1 -1.1104 6.79148 5.22562 26.1871
436 1 -1.1104 6.78472 10.514 20.6867
618 1 -1.1104 6.8851 10.6786 26.3146
609 1 -1.1104 6.94565 7.93909 26.4525
607 1 -1.1104 6.83313 7.93136 23.6638
613 1 -1.1104 6.74331 10.7539 23.4558
380 2 2.2208 11.0807 6.38436 22.0251
383 2 2.2208 8.32458 12.1369 24.9319
564 2 2.2208 8.28135 6.39114 24.896
567 1 -1.1104 9.66492 7.87492 26.4435
568 1 -1.1104 9.59973 7.80406 23.5531
593 1 -1.1104 12.5619 10.6056 26.2687
594 1 -1.1104 12.4558 5.19092 26.2818
595 2 2.2208 10.9803 9.33463 24.9354
600 1 -1.1104 12.3334 10.6505 23.5438
603 1 -1.1104 12.4713 5.12947 23.432
628 1 -1.1104 12.3974 8.019 26.3432
629 1 -1.1104 12.3437 7.96504 23.4795
630 2 2.2208 10.8829 12.1197 22.1549
635 1 -1.1104 9.59625 10.9393 26.3455
636 1 -1.1104 9.71316 4.91761 26.3828
637 1 -1.1104 9.58234 10.6 23.4391
638 1 -1.1104 9.61757 5.05851 23.436
639 2 2.2208 8.20596 9.20237 22.1094
632 1 -1.1104 12.3387 19.0188 26.2821
574 1 -1.1104 12.3848 19.3887 23.6141
616 1 -1.1104 1.37262 13.4515 26.291
376 3 0 0.778999 18.2523 21.8638
409 3 0 1.65745 14.4989 21.791
414 2 2.2208 2.79504 20.9979 22.2366
415 1 -1.1104 4.42021 16.1142 23.4693
449 1 -1.1104 4.06004 13.0607 26.4794
450 1 -1.1104 4.06773 15.7694 26.5202
451 3 0 1.88403 16.9509 25.0469
452 1 -1.1104 3.95963 19.2346 26.4688
453 2 2.2208 5.41241 17.8146 22.2036
479 2 2.2208 5.25303 14.7445 24.9027
509 2 2.2208 5.18984 20.4756 25.0045
511 1 -1.1104 0.788737 19.4354 26.4912
513 1 -1.1104 3.86559 13.1379 23.6476
539 1 -1.1104 3.91964 19.3168 23.2531
596 2 2.2208 8.17736 15.1156 22.2756
573 1 -1.1104 12.298 13.5047 23.5805
530 1 -1.1104 9.06293 13.5203 20.7397
512 1 -1.1104 6.84425 16.2364 26.0644
565 2 2.2208 10.9735 20.5938 24.7783
569 2 2.2208 10.9107 17.6928 22.1105
631 1 -1.1104 12.4335 13.427 26.3829
411 1 -1.1104 9.62855 19.0236 23.5578
572 1 -1.1104 9.51621 19.1665 26.397
599 1 -1.1104 9.65338 16.3499 26.3595
478 1 -1.1104 6.7647 13.6174 23.4197
570 1 -1.1104 6.72063 18.989 26.2136
381 1 -1.1104 12.652 16.3001 26.2578
597 2 2.2208 8.23924 20.417 22.038
538 1 -1.1104 6.87203 13.462 26.3504
598 1 -1.1104 9.66807 16.2827 23.6718
334 2 2.2208 8.24656 -1.91543 27.7187
378 2 2.2208 8.03414 15.0404 27.6768
412 2 2.2208 13.7293 -1.85328 16.4319
329 2 2.2208 8.22737 20.6468 27.5811
308 2 2.2208 2.34224 20.4843 27.6444
9084 2 2.2208 -0.268238 9.35822 13.5889
9317 2 2.2208 -0.176737 0.901117 27.7141
302 2 2.2208 -0.169972 -2.02131 13.695
335 2 2.2208 8.30302 3.6291 27.6159
314 2 2.2208 2.62236 6.58534 13.7036
339 2 2.2208 2.57067 9.1542 27.7421
325 2 2.2208 2.58693 3.68596 27.7166
323 2 2.2208 10.9083 15.0295 13.6957
318 2 2.2208 5.26985 14.8518 13.78
338 2 2.2208 5.41525 6.39425 27.6543
312 2 2.2208 2.51739 12.0025 13.7217
642 2 2.2208 5.25649 23.4039 5.20836
643 2 2.2208 5.15925 29.0277 5.38437
644 1 -1.1104 0.938092 24.6809 1.02995
645 1 -1.1104 0.931205 24.7184 3.91864
646 1 -1.1104 0.916012 21.7637 1.16746
647 1 -1.1104 0.89676 27.6777 1.09306
648 2 2.2208 5.52545 26.2585 2.59115
649 1 -1.1104 0.946242 21.9944 3.90176
650 1 -1.1104 0.935286 27.6833 3.82423
651 1 -1.1104 3.63797 24.4251 0.129285
652 2 2.2208 2.3893 23.4045 2.43849
653 2 2.2208 2.32122 28.9057 2.54937
654 1 -1.1104 3.7762 24.8024 3.59222
655 2 2.2208 2.47255 26.1479 5.25052
656 1 -1.1104 3.70347 21.7653 1.23717
657 1 -1.1104 3.85475 27.4817 1.36231
658 1 -1.1104 4.05118 22.0329 3.87293
659 1 -1.1104 3.80894 27.547 4.06282
952 2 2.2208 5.2592 22.8698 -0.157484
783 1 -1.1104 1.08298 24.8403 6.73652
666 1 -1.1104 6.70298 27.8475 1.0812
684 1 -1.1104 6.43039 24.4688 1.31653
668 1 -1.1104 6.67009 27.6199 4.00325
664 1 -1.1104 6.74076 24.6912 3.98817
667 1 -1.1104 6.8761 22.028 3.86227
9753 2 2.2208 -0.337019 26.1525 13.5551
968 2 2.2208 5.12235 29.0985 -0.194779
790 1 -1.1104 3.80585 21.9146 6.78754
926 2 2.2208 2.17118 26.2945 -0.316638
947 2 2.2208 13.4922 37.41 5.10593
788 1 -1.1104 6.65382 27.6051 6.61806
663 1 -1.1104 6.84664 21.8236 1.08201
669 2 2.2208 10.9807 23.3506 5.30293
670 2 2.2208 10.9052 29.0431 5.22771
671 1 -1.1104 12.5393 24.6956 1.08344
672 1 -1.1104 12.3511 24.7754 3.94955
673 1 -1.1104 12.4508 21.8917 1.06949
674 1 -1.1104 12.3022 27.3541 1.27501
675 2 2.2208 11.0154 26.0919 2.54217
676 1 -1.1104 12.3206 21.8331 3.93405
677 1 -1.1104 12.272 27.3427 4.04863
678 1 -1.1104 9.8116 24.6022 1.2931
679 2 2.2208 8.18469 23.4693 2.46197
680 2 2.2208 7.91168 29.1515 2.66144
681 1 -1.1104 9.60275 24.8162 4.05766
682 2 2.2208 8.22382 26.2566 5.26869
683 1 -1.1104 9.57287 21.9277 1.0981
685 1 -1.1104 9.47027 21.838 3.7688
686 1 -1.1104 9.49178 27.6467 3.662
821 1 -1.1104 9.51834 27.8448 6.59829
660 2 2.2208 10.973 23.2489 -0.180108
957 2 2.2208 5.16023 26.2157 13.6219
713 1 -1.1104 12.1252 41.5068 12.2449
1156 2 2.2208 10.6449 43.0658 13.6043
691 2 2.2208 5.07515 34.7229 5.13207
692 1 -1.1104 0.84465 30.5206 0.947767
693 1 -1.1104 0.791691 36.1817 1.10903
695 1 -1.1104 0.939536 30.4872 3.62748
696 1 -1.1104 0.901354 36.2324 3.67937
698 1 -1.1104 0.926924 33.3797 1.07616
699 2 2.2208 5.09374 31.8674 2.36461
700 2 2.2208 5.14568 37.4219 2.39962
701 1 -1.1104 0.911828 33.1434 3.89172
703 1 -1.1104 3.6566 30.4089 1.06807
704 1 -1.1104 3.72931 36.0191 0.814801
705 2 2.2208 2.3493 34.5421 2.48119
706 1 -1.1104 3.75157 30.3526 3.91802
707 1 -1.1104 3.73582 36.1016 3.76969
708 2 2.2208 2.22904 31.7426 5.13717
709 2 2.2208 2.205 37.5577 5.05659
710 1 -1.1104 3.66986 33.0879 1.10466
711 1 -1.1104 3.69437 33.1609 3.87393
847 1 -1.1104 3.69173 35.9739 6.49864
715 1 -1.1104 6.52129 30.4083 3.98656
846 1 -1.1104 3.69894 30.3534 6.61836
714 1 -1.1104 6.4138 30.3616 1.15881
702 1 -1.1104 6.50228 33.2576 3.55938
844 1 -1.1104 0.879986 33.131 6.7583
716 1 -1.1104 6.45654 33.17 0.908013
694 1 -1.1104 6.54528 36.1417 0.880031
843 1 -1.1104 6.48603 36.1653 6.50208
697 1 -1.1104 6.57793 35.9885 3.80189
845 1 -1.1104 6.55025 33.1077 6.50222
960 2 2.2208 8.09372 23.531 13.6201
945 1 -1.1104 12.0808 44.5113 6.52375
1205 3 0 9.70895 28.2554 -0.247615
717 2 2.2208 10.7766 34.5651 5.17303
718 1 -1.1104 12.3298 30.5659 1.3092
719 1 -1.1104 12.1817 36.0743 0.955903
720 1 -1.1104 12.2545 30.3371 3.83895
721 1 -1.1104 12.1795 35.9821 3.74682
722 1 -1.1104 12.1455 33.2092 0.999671
723 2 2.2208 10.725 31.8151 2.37943
724 2 2.2208 10.7247 37.4228 2.39716
725 1 -1.1104 12.0556 33.083 3.78032
726 1 -1.1104 9.1431 30.5893 1.36054
727 1 -1.1104 9.37872 36.1026 0.916929
728 2 2.2208 7.96272 34.621 2.35172
729 1 -1.1104 9.47224 30.3805 4.02494
730 1 -1.1104 9.37132 36.1847 3.73856
731 2 2.2208 8.03031 31.7153 5.14959
732 2 2.2208 7.87748 37.5472 5.22299
733 1 -1.1104 9.13792 33.3215 1.02527
734 1 -1.1104 9.37291 33.2984 3.73769
878 1 -1.1104 9.24269 33.2755 6.55504
874 1 -1.1104 12.3018 36.0781 6.55134
9649 2 2.2208 13.6182 31.7341 10.7808
877 1 -1.1104 9.3786 35.9938 6.44627
915 1 -1.1104 6.77761 41.8995 9.13716
948 2 2.2208 13.5359 31.8551 5.25581
661 2 2.2208 13.5649 43.0664 10.8646
950 2 2.2208 13.6394 29.0188 8.12961
959 2 2.2208 7.96789 29.0753 13.6403
953 2 2.2208 13.4011 40.2416 7.94757
958 2 2.2208 10.7993 26.2936 13.5713
758 1 -1.1104 3.71495 38.9723 3.71388
756 1 -1.1104 3.6997 38.7327 0.881331
747 1 -1.1104 0.829145 38.9854 3.78492
742 1 -1.1104 0.893037 38.8878 1.03195
736 2 2.2208 5.03 40.3778 4.97957
737 2 2.2208 5.0869 45.9045 5.16855
738 1 -1.1104 0.742291 41.7482 0.937851
740 1 -1.1104 0.666665 41.581 3.95566
743 1 -1.1104 0.741535 44.5047 1.00805
746 2 2.2208 5.21504 43.1131 2.49933