LAMMPS (29 Oct 2020)
OMP_NUM_THREADS environment is not set. Defaulting to 1 thread. (../comm.cpp:94)
  using 1 OpenMP thread(s) per MPI task
OMP_NUM_THREADS environment is not set. Defaulting to 1 thread. (../comm.cpp:94)
  using 1 OpenMP thread(s) per MPI task
Reading data file ...
  orthogonal box = (-0.27717828 -3.4472206 -0.27717828) to (27.617178 331.52722 27.617178)
  2 by 13 by 2 MPI processor grid
  reading atoms ...
  18000 atoms
  reading velocities ...
  18000 velocities
Finding 1-2 1-3 1-4 neighbors ...
  special bond factors lj:    0.0      0.0      0.0     
  special bond factors coul:  0.0      0.0      0.0     
     0 = max # of 1-2 neighbors
     0 = max # of 1-3 neighbors
     0 = max # of 1-4 neighbors
     1 = max # of special neighbors
  special bonds CPU = 0.004 seconds
  read_data CPU = 0.072 seconds
99 atoms in group sphere
4 atoms in group oxygen
13 atoms in group thorium
86 atoms in group 1
90 atoms in group cluster
6000 atoms in group Th
12000 atoms in group O
30 atoms in group Th_group
60 atoms in group O_group
Setting atom values ...
  15 settings made for type/subset
15 atoms in group Xe
75 atoms in group delete
WARNING: Ignoring 'compress yes' for molecular system (../delete_atoms.cpp:125)
Deleted 75 atoms, new total = 17925
99 atoms in group sphere
4 atoms in group oxygen
13 atoms in group thorium
86 atoms in group 1
90 atoms in group cluster
5970 atoms in group Th
11940 atoms in group O
30 atoms in group Th_group
60 atoms in group O_group
Setting atom values ...
  15 settings made for type/subset
30 atoms in group Xe
75 atoms in group delete
WARNING: Ignoring 'compress yes' for molecular system (../delete_atoms.cpp:125)
Deleted 75 atoms, new total = 17850
99 atoms in group sphere
4 atoms in group oxygen
13 atoms in group thorium
86 atoms in group 1
90 atoms in group cluster
5940 atoms in group Th
11880 atoms in group O
30 atoms in group Th_group
60 atoms in group O_group
Setting atom values ...
  15 settings made for type/subset
45 atoms in group Xe
75 atoms in group delete
WARNING: Ignoring 'compress yes' for molecular system (../delete_atoms.cpp:125)
Deleted 75 atoms, new total = 17775
99 atoms in group sphere
4 atoms in group oxygen
13 atoms in group thorium
86 atoms in group 1
90 atoms in group cluster
5910 atoms in group Th
11820 atoms in group O
30 atoms in group Th_group
60 atoms in group O_group
Setting atom values ...
  15 settings made for type/subset
60 atoms in group Xe
75 atoms in group delete
WARNING: Ignoring 'compress yes' for molecular system (../delete_atoms.cpp:125)
Deleted 75 atoms, new total = 17700
Setting atom values ...
  11760 settings made for charge
Setting atom values ...
  5880 settings made for charge
Setting atom values ...
  60 settings made for charge
WARNING: 13 of 1000 force values in table Xe-Xe are inconsistent with -dE/dr.
  Should only be flagged at inflection points (../pair_table.cpp:461)
WARNING: 2 of 1000 force values in table Xe-O are inconsistent with -dE/dr.
  Should only be flagged at inflection points (../pair_table.cpp:461)
WARNING: 2 of 1000 force values in table Xe-Th are inconsistent with -dE/dr.
  Should only be flagged at inflection points (../pair_table.cpp:461)
PPPM initialization ...
  using 12-bit tables for long-range coulomb (../kspace.cpp:328)
  G vector (1/distance) = 0.29911702
  grid = 40 240 40
  stencil order = 5
  estimated absolute RMS force accuracy = 0.00015352568
  estimated relative force accuracy = 1.0661769e-05
  using single precision MKL FFT
  3d grid and FFT values/proc = 18225 7600
Neighbor list info ...
  update every 1 steps, delay 0 steps, check yes
  max neighbors/atom: 2000, page size: 100000
  master list distance cutoff = 13
  ghost atom cutoff = 13
  binsize = 6.5, bins = 5 52 5
  3 neighbor lists, perpetual/occasional/extra = 3 0 0
  (1) pair coul/long, perpetual
      attributes: half, newton on
      pair build: half/bin/newton
      stencil: half/bin/3d/newton
      bin: standard
  (2) pair eam/alloy, perpetual, skip from (1)
      attributes: half, newton on
      pair build: skip
      stencil: none
      bin: none
  (3) pair table, perpetual, skip from (1)
      attributes: half, newton on
      pair build: skip
      stencil: none
      bin: none
Setting up cg style minimization ...
  Unit style    : metal
  Current step  : 0
WARNING: Energy due to 3 extra global DOFs will be included in minimizer energies
Per MPI rank memory allocation (min/avg/max) = 10.35 | 10.95 | 11.16 Mbytes
Step Temp E_pair E_mol TotEng Press Volume 
       0            0   -230612.39            0   -230612.39     3032.114    260641.98 
     119            0   -231354.09            0   -231354.09   -233.39331    261677.64 
Loop time of 2.37329 on 52 procs for 119 steps with 17700 atoms

99.3% CPU use with 52 MPI tasks x 1 OpenMP threads

Minimization stats:
  Stopping criterion = linesearch alpha is zero
  Energy initial, next-to-last, final = 
      -230612.39268601  -231354.091899163  -231354.091899163
  Force two-norm initial, final = 1088.9682 75.087070
  Force max component initial, final = 878.88423 50.760309
  Final line search alpha, max atom move = 1.7245857e-12 8.7540501e-11
  Iterations, force evaluations = 119 202

MPI task timing breakdown:
Section |  min time  |  avg time  |  max time  |%varavg| %total
---------------------------------------------------------------
Pair    | 1.3373     | 1.397      | 1.4747     |   2.7 | 58.87
Bond    | 1.7393e-05 | 2.5943e-05 | 4.408e-05  |   0.0 |  0.00
Kspace  | 0.41515    | 0.49661    | 0.55835    |   4.7 | 20.93
Neigh   | 0.010424   | 0.012486   | 0.015713   |   1.3 |  0.53
Comm    | 0.044955   | 0.046181   | 0.047591   |   0.3 |  1.95
Output  | 0          | 0          | 0          |   0.0 |  0.00
Modify  | 0          | 0          | 0          |   0.0 |  0.00
Other   |            | 0.4209     |            |       | 17.74

Nlocal:        340.385 ave         412 max         289 min
Histogram: 9 3 1 20 4 2 0 9 2 2
Nghost:        5545.90 ave        5743 max        5355 min
Histogram: 4 8 4 4 5 8 6 4 2 7
Neighs:       108203.0 ave      132891 max       92690 min
Histogram: 7 7 6 15 2 5 1 6 1 2

Total # of neighbors = 5626546
Ave neighs/atom = 317.88395
Ave special neighs/atom = 0.0000000
Neighbor list builds = 4
Dangerous builds = 0
Resetting atom IDs ...
PPPM initialization ...
  using 12-bit tables for long-range coulomb (../kspace.cpp:328)
  G vector (1/distance) = 0.29904566
  grid = 40 240 40
  stencil order = 5
  estimated absolute RMS force accuracy = 0.00015408927
  estimated relative force accuracy = 1.0700908e-05
  using single precision MKL FFT
  3d grid and FFT values/proc = 18225 7600
Neighbor list info ...
  update every 1 steps, delay 0 steps, check yes
  max neighbors/atom: 2000, page size: 100000
  master list distance cutoff = 13
  ghost atom cutoff = 13
  binsize = 6.5, bins = 5 52 5
  3 neighbor lists, perpetual/occasional/extra = 3 0 0
  (1) pair coul/long, perpetual
      attributes: half, newton on
      pair build: half/bin/newton
      stencil: half/bin/3d/newton
      bin: standard
  (2) pair eam/alloy, perpetual, skip from (1)
      attributes: half, newton on
      pair build: skip
      stencil: none
      bin: none
  (3) pair table, perpetual, skip from (1)
      attributes: half, newton on
      pair build: skip
      stencil: none
      bin: none
Finding 1-2 1-3 1-4 neighbors ...
  special bond factors lj:    0.0      0.0      0.0     
  special bond factors coul:  0.0      0.0      0.0     
     0 = max # of 1-2 neighbors
     0 = max # of 1-3 neighbors
     0 = max # of 1-4 neighbors
     1 = max # of special neighbors
  special bonds CPU = 0.001 seconds
PPPM initialization ...
  using 12-bit tables for long-range coulomb (../kspace.cpp:328)
  G vector (1/distance) = 0.29904566
  grid = 40 240 40
  stencil order = 5
  estimated absolute RMS force accuracy = 0.00015408927
  estimated relative force accuracy = 1.0700908e-05
  using single precision MKL FFT
  3d grid and FFT values/proc = 18225 7600
Neighbor list info ...
  update every 1 steps, delay 0 steps, check yes
  max neighbors/atom: 2000, page size: 100000
  master list distance cutoff = 13
  ghost atom cutoff = 13
  binsize = 6.5, bins = 5 52 5
  3 neighbor lists, perpetual/occasional/extra = 3 0 0
  (1) pair coul/long, perpetual
      attributes: half, newton on
      pair build: half/bin/newton
      stencil: half/bin/3d/newton
      bin: standard
  (2) pair eam/alloy, perpetual, skip from (1)
      attributes: half, newton on
      pair build: skip
      stencil: none
      bin: none
  (3) pair table, perpetual, skip from (1)
      attributes: half, newton on
      pair build: skip
      stencil: none
      bin: none
Setting up Verlet run ...
  Unit style    : metal
  Current step  : 119
  Time step     : 0.001
Per MPI rank memory allocation (min/avg/max) = 9.225 | 9.856 | 10.04 Mbytes
Step Dt Time Atoms Temp PotEng KinEng Press Volume 
     119        0.001            0    17700          900    -231354.1    2058.9978    8170.8811    261677.64 
   10000        0.001        9.881    17700    902.50992   -229698.19    2064.7399    374.65578    267496.16 
   20000        0.001       19.881    17700    896.54382   -229695.92    2051.0908   -49.314451    267462.16 
   30000        0.001       29.881    17700    909.32877   -229698.71    2080.3399    1139.7037    267371.32 
   40000        0.001       39.881    17700    902.43511   -229691.94    2064.5688   -1171.5715    267693.99 
   50000        0.001       49.881    17700    898.74842   -229707.71    2056.1344   -171.28685    267501.88 
   60000        0.001       59.881    17700    899.50018   -229691.38    2057.8543   -369.50571    267590.99 
   70000        0.001       69.881    17700    903.30463   -229687.74     2066.558    235.58206    267495.91 
   80000        0.001       79.881    17700    897.72306   -229717.55    2053.7887    -969.0785    267628.98 
   90000        0.001       89.881    17700    896.94098   -229710.57    2051.9994   -348.74786    267530.87 
  100000        0.001       99.881    17700    901.82754   -229721.96    2063.1788    364.66996    267386.54 
  100119        0.001          100    17700     898.4061   -229715.02    2055.3513   -53.208658    267444.57 
Loop time of 870.874 on 52 procs for 100000 steps with 17700 atoms

Performance: 9.921 ns/day, 2.419 hours/ns, 114.827 timesteps/s
99.8% CPU use with 52 MPI tasks x 1 OpenMP threads

MPI task timing breakdown:
Section |  min time  |  avg time  |  max time  |%varavg| %total
---------------------------------------------------------------
Pair    | 526.72     | 538.7      | 560.2      |  34.4 | 61.86
Bond    | 0.0090411  | 0.015294   | 0.023668   |   2.3 |  0.00
Kspace  | 174.34     | 196.57     | 209.69     |  58.3 | 22.57
Neigh   | 5.1109     | 5.5944     | 5.9454     |   8.4 |  0.64
Comm    | 22.898     | 23.92      | 24.89      |  10.2 |  2.75
Output  | 0.051461   | 0.051504   | 0.053446   |   0.1 |  0.01
Modify  | 91.486     | 97.018     | 101.93     |  26.1 | 11.14
Other   |            | 9.002      |            |       |  1.03

Nlocal:        340.385 ave         365 max         323 min
Histogram: 1 3 9 14 13 7 1 0 1 3
Nghost:        5447.31 ave        5646 max        5246 min
Histogram: 4 3 8 4 5 4 13 3 4 4
Neighs:       106157.0 ave      115717 max       92439 min
Histogram: 1 2 2 2 5 9 21 6 0 4

Total # of neighbors = 5520150
Ave neighs/atom = 311.87288
Ave special neighs/atom = 0.0000000
Neighbor list builds = 1765
Dangerous builds = 0
System init for write_data ...
PPPM initialization ...
  using 12-bit tables for long-range coulomb (../kspace.cpp:328)
  G vector (1/distance) = 0.29865398
  grid = 40 240 40
  stencil order = 5
  estimated absolute RMS force accuracy = 0.00015719212
  estimated relative force accuracy = 1.0916388e-05
  using single precision MKL FFT
  3d grid and FFT values/proc = 18225 7600
Neighbor list info ...
  update every 1 steps, delay 0 steps, check yes
  max neighbors/atom: 2000, page size: 100000
  master list distance cutoff = 13
  ghost atom cutoff = 13
  binsize = 6.5, bins = 5 52 5
  3 neighbor lists, perpetual/occasional/extra = 3 0 0
  (1) pair coul/long, perpetual
      attributes: half, newton on
      pair build: half/bin/newton
      stencil: half/bin/3d/newton
      bin: standard
  (2) pair eam/alloy, perpetual, skip from (1)
      attributes: half, newton on
      pair build: skip
      stencil: none
      bin: none
  (3) pair table, perpetual, skip from (1)
      attributes: half, newton on
      pair build: skip
      stencil: none
      bin: none
Total wall time: 0:14:34
