ITEM: TIMESTEP
20000
ITEM: NUMBER OF ATOMS
17670
ITEM: BOX BOUNDS pp pp pp
-3.5697491662635211e-01 2.7696974916626516e+01
-4.3030641589885192e+00 3.3238306415898757e+02
-3.5898047247201392e-01 2.7698980472472439e+01
ITEM: ATOMS id type q x y z
1 2 2.2208 5.18064 1.33989 5.2409
2 1 -1.1104 0.990359 -2.92744 1.07896
3 1 -1.1104 1.15513 2.82265 0.98166
6 1 -1.1104 1.04711 -2.99714 3.83914
7 1 -1.1104 0.910064 2.70214 3.90372
10 1 -1.1104 0.906228 -0.0926679 0.927992
12 2 2.2208 5.19926 -1.39496 2.45343
13 2 2.2208 5.13652 4.14811 2.50081
14 1 -1.1104 0.771751 -0.0423901 3.78372
16 1 -1.1104 3.79737 -2.84767 1.08453
17 1 -1.1104 3.7628 2.83505 1.08081
18 2 2.2208 2.34983 1.36034 2.46358
19 1 -1.1104 3.76485 -2.91258 3.8385
20 1 -1.1104 3.7753 2.68565 3.79449
21 2 2.2208 2.33941 -1.55471 5.21093
22 2 2.2208 2.32145 4.18921 5.2222
23 1 -1.1104 3.80711 0.124521 1.04873
24 1 -1.1104 3.73815 -0.212836 3.82031
9 1 -1.1104 6.61382 2.78068 3.6683
28 2 2.2208 2.42009 -4.27826 2.3541
173 1 -1.1104 3.80638 2.74571 6.58325
169 1 -1.1104 6.55536 2.77835 6.60034
5 1 -1.1104 6.57588 2.63681 0.952082
8 1 -1.1104 6.61833 -2.86646 3.94387
15 1 -1.1104 6.53115 -0.0241614 3.86432
4 1 -1.1104 6.64277 -2.84808 1.00104
11 1 -1.1104 6.49621 -0.0847622 1.0185
29 2 2.2208 5.11817 -4.27836 5.33989
174 1 -1.1104 3.69311 -0.0465485 6.58566
170 1 -1.1104 0.984523 -0.0417217 6.44368
171 1 -1.1104 6.61343 -0.0559383 6.45659
374 2 2.2208 5.23038 1.38145 -0.328515
31 2 2.2208 10.6699 1.23076 5.23835
32 1 -1.1104 12.3328 -2.97238 0.888891
33 1 -1.1104 12.312 2.70769 1.06788
34 1 -1.1104 12.1928 -2.74832 3.88043
35 1 -1.1104 12.0804 2.66883 3.8144
36 1 -1.1104 12.2366 -0.180136 0.866832
37 2 2.2208 10.778 -1.4839 2.3715
38 2 2.2208 10.7955 4.03127 2.39204
39 1 -1.1104 12.1785 -0.089008 3.93151
40 1 -1.1104 9.47457 -2.84818 1.0153
41 1 -1.1104 9.40804 2.70971 1.05747
42 2 2.2208 7.97901 1.32179 2.30821
43 1 -1.1104 9.51047 -2.98594 3.80907
44 1 -1.1104 9.2836 2.5172 3.754
45 2 2.2208 7.96054 -1.56911 5.20533
46 2 2.2208 7.92909 4.08797 5.14249
47 1 -1.1104 9.51503 -0.0807369 1.0098
48 1 -1.1104 9.20553 -0.210593 3.82111
209 1 -1.1104 9.38754 2.69714 6.56429
52 2 2.2208 10.721 -4.21013 5.17523
208 1 -1.1104 9.51148 -2.98335 6.65133
334 2 2.2208 13.463 4.18787 5.06382
50 2 2.2208 13.568 -1.6107 5.31501
53 2 2.2208 13.5211 -4.2231 2.38795
206 1 -1.1104 12.1067 2.67754 6.42823
210 1 -1.1104 9.37105 -0.163833 6.60006
385 2 2.2208 13.5772 4.09003 -0.320808
82 2 2.2208 -0.324224 9.6888 2.53658
54 2 2.2208 5.04636 6.93879 5.20188
55 2 2.2208 5.25833 12.4822 5.27268
56 1 -1.1104 1.03868 8.33029 0.974784
58 1 -1.1104 1.01432 8.23423 3.74886
60 1 -1.1104 0.938907 5.57112 0.993303
61 1 -1.1104 1.08482 11.1206 0.917847
66 2 2.2208 5.17222 9.72667 2.39222
67 1 -1.1104 1.0302 5.54191 3.82379
68 1 -1.1104 1.12589 11.1725 3.80435
71 1 -1.1104 3.71459 8.36704 1.1712
72 2 2.2208 2.3489 6.86022 2.44888
73 2 2.2208 2.40906 12.5097 2.45476
74 1 -1.1104 3.79842 8.38796 3.8598
75 2 2.2208 2.43182 9.66179 5.15307
76 1 -1.1104 3.72576 5.59219 1.06974
77 1 -1.1104 3.88834 11.1605 1.18919
79 1 -1.1104 3.65627 5.58906 3.84298
80 1 -1.1104 3.81236 10.979 3.76877
70 1 -1.1104 6.56627 11.022 3.87831
59 1 -1.1104 6.55456 8.19254 3.80966
57 1 -1.1104 6.5505 8.36658 1.00182
236 1 -1.1104 1.03101 5.49104 6.62133
63 1 -1.1104 6.61442 5.43818 1.01807
64 1 -1.1104 6.54121 11.1892 0.895742
234 1 -1.1104 0.914035 8.16931 6.49028
239 1 -1.1104 3.83443 5.46213 6.47032
62 1 -1.1104 1.01524 11.1022 6.55064
235 1 -1.1104 6.64215 8.37291 6.60141
65 1 -1.1104 6.55232 11.1233 6.59532
389 2 2.2208 -0.283135 12.4969 -0.347584
387 2 2.2208 2.43561 9.79085 -0.26714
69 1 -1.1104 6.67227 5.58032 3.85643
84 2 2.2208 10.782 7.02622 5.06246
85 2 2.2208 10.8681 12.5079 5.13589
86 1 -1.1104 12.3769 8.25325 1.08193
87 1 -1.1104 12.2859 8.27553 3.64438
88 1 -1.1104 12.1216 5.32646 1.08001
89 1 -1.1104 12.3739 11.0889 1.00301
91 2 2.2208 10.94 9.73103 2.40168
92 1 -1.1104 12.2207 5.69425 3.76224
93 1 -1.1104 12.2411 11.2004 3.88463
94 1 -1.1104 9.37484 8.33368 1.10363
95 2 2.2208 7.91029 6.85569 2.26693
96 2 2.2208 7.96517 12.3443 2.41252
97 1 -1.1104 9.41992 8.34936 3.8617
98 2 2.2208 8.04905 9.64548 5.31808
99 1 -1.1104 9.42675 5.60733 0.944607
100 1 -1.1104 9.53534 11.1253 1.09783
102 1 -1.1104 9.32771 5.44915 3.69959
103 1 -1.1104 9.47548 11.0574 3.7899
266 1 -1.1104 12.2733 5.47969 6.61637
269 1 -1.1104 9.39852 5.48004 6.52545
265 1 -1.1104 12.2044 8.26119 6.57516
101 1 -1.1104 9.46612 11.1521 6.65452
90 1 -1.1104 12.3297 10.9991 6.54334
393 2 2.2208 10.936 12.4917 -0.302903
136 2 2.2208 -0.353255 20.9758 2.29969
137 2 2.2208 -0.256343 18.1894 5.14748
106 2 2.2208 5.17645 18.0202 5.21621
107 1 -1.1104 0.98081 13.9694 1.07729
109 1 -1.1104 0.973606 19.5848 0.774417
113 1 -1.1104 1.08583 13.879 3.8991
114 1 -1.1104 1.03875 19.6084 3.74402
116 1 -1.1104 0.942139 16.8156 1.03253
119 2 2.2208 5.17988 15.2366 2.63412
120 2 2.2208 5.27017 20.8554 2.46035
121 1 -1.1104 1.11455 16.6796 3.81632
123 1 -1.1104 3.79492 13.9993 1.06827
125 1 -1.1104 3.80696 19.3892 0.951723
127 2 2.2208 2.51035 18.2096 2.46546
128 1 -1.1104 3.9434 13.7854 4.04667
129 1 -1.1104 3.69849 19.6152 3.79468
130 2 2.2208 2.50177 15.2751 5.37559
131 2 2.2208 2.38497 21.0836 5.18606
132 1 -1.1104 3.75416 16.6481 1.28603
134 1 -1.1104 4.00335 16.5632 4.12594
110 1 -1.1104 6.52694 13.9172 1.03718
138 1 -1.1104 6.61604 19.5547 1.02868
126 1 -1.1104 3.81125 19.4773 6.5499
122 1 -1.1104 6.5432 16.6254 3.88074
139 1 -1.1104 6.55026 19.3545 3.76384
117 1 -1.1104 1.20292 16.8061 6.62426
135 2 2.2208 -0.348074 15.3524 2.41963
397 2 2.2208 2.31695 15.4106 -0.303089
336 2 2.2208 13.5556 20.9139 5.22006
149 1 -1.1104 12.1651 16.5762 6.61389
115 1 -1.1104 6.66719 13.7046 3.86798
140 1 -1.1104 6.6639 16.7234 1.04708
111 1 -1.1104 6.76902 13.9978 6.60126
141 2 2.2208 10.8042 18.0883 5.18273
142 1 -1.1104 12.2588 14.0743 0.980888
144 1 -1.1104 12.2228 19.5298 1.19366
146 1 -1.1104 12.3146 13.9493 3.81109
147 1 -1.1104 12.2143 19.4961 3.7954
148 1 -1.1104 12.3964 16.8334 1.00024
150 2 2.2208 10.765 15.1838 2.44877
151 2 2.2208 10.9121 20.936 2.42915
152 1 -1.1104 12.1791 16.6359 3.82123
153 1 -1.1104 9.40024 13.8316 1.03313
155 1 -1.1104 9.43137 19.4012 0.918029
157 2 2.2208 8.02974 18.0208 2.49248
158 1 -1.1104 9.47884 13.8208 3.74491
159 1 -1.1104 9.45512 19.4289 3.83845
160 2 2.2208 8.0275 15.38 5.16368
161 2 2.2208 8.02286 20.8792 5.14628
162 1 -1.1104 9.55929 16.7062 1.06232
164 1 -1.1104 9.34174 16.6463 3.79496
156 1 -1.1104 9.42484 19.6651 6.60442
118 1 -1.1104 6.78584 16.6852 6.56588
163 1 -1.1104 9.44807 16.733 6.57228
112 1 -1.1104 6.66661 19.4291 6.47658
373 2 2.2208 13.669 20.768 -0.311703
375 2 2.2208 8.02139 15.2933 -0.21977
203 2 2.2208 5.17899 -4.1539 10.9673
167 1 -1.1104 0.94383 2.79741 6.80533
166 1 -1.1104 0.854101 -2.84724 6.69357
172 1 -1.1104 3.95607 -2.92429 6.7354
175 2 2.2208 5.07768 1.3166 10.8921
176 1 -1.1104 0.945258 -2.89642 12.2857
177 1 -1.1104 1.02887 2.74503 12.3223
180 1 -1.1104 0.901769 -2.69074 9.46781
181 1 -1.1104 1.09236 2.90424 9.48451
184 1 -1.1104 1.04476 -0.00664562 12.2189
186 2 2.2208 5.23545 -1.48534 7.99578
188 1 -1.1104 0.889584 0.12649 9.33388
190 1 -1.1104 3.83662 -2.92558 12.4004
191 1 -1.1104 3.83278 2.78724 12.2318
192 2 2.2208 2.43353 1.34446 7.87199
193 1 -1.1104 3.60015 -2.90748 9.5757
194 1 -1.1104 3.79541 2.64977 9.36827
195 2 2.2208 2.2594 -1.28691 10.7447
196 2 2.2208 2.58642 4.20057 10.7228
197 1 -1.1104 3.83744 -0.0403051 12.245
198 1 -1.1104 3.73139 -0.149872 9.4325
183 1 -1.1104 6.56746 2.71108 9.4676
182 1 -1.1104 6.46292 -2.77217 9.5923
187 2 2.2208 5.27923 4.21964 7.94843
179 1 -1.1104 6.64611 2.62103 12.4008
189 1 -1.1104 6.45809 0.0129038 9.43342
185 1 -1.1104 6.45183 -0.0706954 12.1916
367 2 2.2208 -0.244521 4.13811 13.6133
229 2 2.2208 13.5734 1.26816 7.93917
338 2 2.2208 13.5773 4.07938 10.8196
205 1 -1.1104 12.2146 -3.00237 6.67781
230 2 2.2208 13.5788 -1.5126 10.8214
168 1 -1.1104 6.73702 -2.91691 6.7256
178 1 -1.1104 6.69515 -2.81574 12.3895
9257 2 2.2208 13.582 1.36395 13.6377
207 1 -1.1104 12.2031 -0.175148 6.82159
211 2 2.2208 10.8617 1.29023 10.8365
212 1 -1.1104 12.2696 -2.98464 12.1996
213 1 -1.1104 12.2203 2.72332 12.0704
214 1 -1.1104 12.191 -3.08202 9.48313
215 1 -1.1104 12.2945 2.64817 9.22006
216 1 -1.1104 12.1441 -0.0922494 12.1833
217 2 2.2208 10.7982 -1.55349 8.09689
218 2 2.2208 10.7575 4.11192 7.93742
219 1 -1.1104 11.9543 -0.307474 9.50973
220 1 -1.1104 9.51874 -2.94226 12.3586
221 1 -1.1104 9.28111 2.75208 12.322
222 2 2.2208 8.0469 1.35786 8.06249
223 1 -1.1104 9.27522 -2.95428 9.47794
224 1 -1.1104 9.49909 2.6855 9.45935
225 2 2.2208 7.86118 -1.4095 10.9069
226 2 2.2208 8.06392 4.0132 10.8177
227 1 -1.1104 9.35666 -0.188528 12.108
228 1 -1.1104 9.33491 -0.0907157 9.19563
352 2 2.2208 8.06933 1.30161 13.6436
353 2 2.2208 10.7827 -1.50695 13.635
238 1 -1.1104 3.80128 8.20691 6.70324
343 2 2.2208 -0.324107 9.68412 7.95025
344 2 2.2208 -0.338458 6.89928 10.7587
237 1 -1.1104 6.53951 5.66898 6.67819
78 1 -1.1104 3.76188 11.0648 6.78019
240 2 2.2208 5.3162 6.92463 10.83
241 2 2.2208 5.21825 12.594 10.8654
242 1 -1.1104 0.997401 8.2789 12.2477
244 1 -1.1104 1.03759 8.50685 9.29697
246 1 -1.1104 1.09841 5.50088 12.2022
247 1 -1.1104 0.832046 11.0308 12.0971
250 2 2.2208 5.29623 9.73438 8.01423
251 1 -1.1104 0.998021 5.64601 9.45472
252 1 -1.1104 0.99807 11.1585 9.27927
255 1 -1.1104 3.90554 8.33399 12.2211
256 2 2.2208 2.44318 6.95433 7.94481
257 2 2.2208 2.50626 12.5356 8.12009
258 1 -1.1104 3.72686 8.27105 9.34171
259 2 2.2208 2.34912 9.67106 10.7904
260 1 -1.1104 3.89184 5.48651 12.2743
261 1 -1.1104 3.55604 10.993 12.3176
262 1 -1.1104 3.82556 5.4816 9.26805
263 1 -1.1104 3.75433 11.0543 9.62246
254 1 -1.1104 6.48871 11.2241 9.43449
245 1 -1.1104 6.62869 8.33571 9.44491
253 1 -1.1104 6.65362 5.5362 9.47223
249 1 -1.1104 6.56286 11.1828 12.2572
243 1 -1.1104 6.63391 8.35985 12.2175
356 2 2.2208 5.10223 9.7984 13.6268
366 2 2.2208 13.6258 6.77108 13.5675
267 1 -1.1104 9.37177 8.44135 6.73272
248 1 -1.1104 6.71103 5.4786 12.2729
264 1 -1.1104 9.49337 10.9806 9.37393
268 1 -1.1104 9.38752 5.33273 9.33606
270 1 -1.1104 9.36603 11.1655 12.1384
271 1 -1.1104 9.60273 5.52014 12.2512
272 2 2.2208 8.03292 9.83805 10.8558
273 1 -1.1104 9.37391 8.18855 9.47436
274 2 2.2208 8.02228 12.5805 8.03604
275 2 2.2208 7.9683 6.93062 8.11079
276 2 2.2208 10.8595 6.82299 10.721
277 2 2.2208 10.8834 12.4356 10.7865
278 1 -1.1104 12.0909 8.20786 11.9709
279 1 -1.1104 12.1825 8.2629 9.25065
280 1 -1.1104 12.184 5.45182 12.218
281 1 -1.1104 12.3451 11.0295 12.2455
282 2 2.2208 10.8281 9.65883 7.92526
283 1 -1.1104 12.3085 5.49023 9.45831
284 1 -1.1104 12.2615 11.0074 9.32277
285 1 -1.1104 9.32954 8.37215 12.1754
341 2 2.2208 13.6411 9.61299 10.8244
361 2 2.2208 8.09067 12.5693 13.5107
360 2 2.2208 10.8724 9.64515 13.5061
359 2 2.2208 7.99052 6.90102 13.6124
311 2 2.2208 -0.346017 20.9589 7.98576
313 2 2.2208 -0.350557 15.4157 8.14025
133 1 -1.1104 3.94458 16.7277 6.77846
302 1 -1.1104 1.13018 19.5403 6.6616
297 1 -1.1104 6.64499 13.8835 12.1621
124 1 -1.1104 3.96514 13.8739 6.72782
108 1 -1.1104 0.964506 14.0089 6.68004
291 1 -1.1104 1.0614 19.6031 9.51559
310 2 2.2208 2.49233 15.295 10.8626
309 2 2.2208 2.32866 20.9473 10.8737
308 1 -1.1104 3.98699 16.7309 12.085
307 1 -1.1104 1.07093 16.8223 12.1835
305 1 -1.1104 3.87712 13.9227 9.52198
292 1 -1.1104 1.10622 16.7224 9.43885
287 1 -1.1104 3.82157 13.7612 12.3468
304 1 -1.1104 3.90936 16.7274 9.38812
303 2 2.2208 2.52193 18.0588 8.14365
286 1 -1.1104 3.8977 19.4591 12.2227
301 1 -1.1104 3.99189 19.4306 9.36023
300 2 2.2208 5.40845 18.0898 10.7645
293 2 2.2208 5.28489 20.8356 8.02251
299 1 -1.1104 1.06934 13.8895 12.2406
298 1 -1.1104 0.992016 19.5228 12.361
295 2 2.2208 5.45998 15.3555 8.05471
294 1 -1.1104 1.1758 13.9338 9.47544
351 2 2.2208 -0.230249 15.3192 13.5737
363 2 2.2208 2.49613 18.2834 13.6068
365 2 2.2208 5.2735 15.3419 13.6016
364 2 2.2208 5.38772 20.8378 13.5622
332 2 2.2208 13.5709 17.9153 8.00922
154 1 -1.1104 9.41498 14.0332 6.65622
321 1 -1.1104 9.57332 19.4651 12.1054
318 1 -1.1104 9.4601 19.4381 9.3235
317 2 2.2208 8.07852 15.3001 10.8384
329 1 -1.1104 12.3149 19.3891 12.1564
316 2 2.2208 8.14043 20.8743 10.7653
328 1 -1.1104 12.324 13.9022 9.69012
326 1 -1.1104 12.3455 16.6508 12.1525
145 1 -1.1104 12.2245 19.4412 6.74607
315 1 -1.1104 9.5274 16.7405 12.2321
320 2 2.2208 8.15188 18.1074 7.964
296 1 -1.1104 6.82517 19.4115 12.1038
319 1 -1.1104 9.58778 13.6864 9.42385
324 2 2.2208 10.7968 20.9568 7.95161
314 1 -1.1104 9.55521 16.636 9.36711
368 2 2.2208 10.8133 20.9083 13.6103
323 1 -1.1104 12.2919 16.5816 9.33543
330 1 -1.1104 12.145 13.9036 12.3792
289 1 -1.1104 6.73689 16.7827 9.33962
290 1 -1.1104 6.67017 13.9717 9.38583
306 1 -1.1104 6.76697 16.6536 12.2252
288 1 -1.1104 6.73264 19.5184 9.33758
322 1 -1.1104 9.39629 13.932 12.2099
325 2 2.2208 10.8821 15.1991 8.06472
369 2 2.2208 10.9138 15.3833 13.6392
143 1 -1.1104 12.3012 13.7685 6.70495
331 2 2.2208 10.9127 18.1074 10.6698
327 1 -1.1104 12.2538 19.4573 9.43683
370 2 2.2208 8.17223 18.0381 13.5384
399 2 2.2208 5.283 1.24309 16.4393
400 1 -1.1104 0.876617 -2.82754 17.7201
401 1 -1.1104 0.951314 2.81564 17.7834
404 1 -1.1104 0.904059 -2.95158 14.8699
406 1 -1.1104 0.979652 2.80313 15.037
412 1 -1.1104 0.949032 0.0269857 17.7878
414 2 2.2208 5.17718 -1.40621 19.2149
415 2 2.2208 5.22489 4.10788 19.3237
416 1 -1.1104 1.09574 -0.193659 14.8427
420 1 -1.1104 3.74873 -2.97247 17.9207
421 1 -1.1104 3.84911 2.63238 17.9663
422 2 2.2208 2.44648 1.46471 19.2677
423 1 -1.1104 3.76928 -2.99455 15.1506
425 1 -1.1104 3.74092 2.75124 15.0791
427 2 2.2208 2.4297 -1.4969 16.5606
428 2 2.2208 2.39357 4.14955 16.4974
429 1 -1.1104 3.90846 -0.196802 17.6963
430 1 -1.1104 3.86595 -0.119794 15.0457
410 1 -1.1104 6.58863 2.70643 15.2365
403 1 -1.1104 6.58558 2.67718 17.8646
413 1 -1.1104 6.65241 -0.0870399 17.9946
408 1 -1.1104 6.48468 -2.82287 15.1412
418 1 -1.1104 6.60766 -0.0957417 14.9793
434 2 2.2208 2.41878 -4.19042 19.4366
348 2 2.2208 2.46776 1.44447 13.7
347 2 2.2208 5.12294 -1.47923 13.6877
405 1 -1.1104 1.05234 -2.65024 20.5839
431 1 -1.1104 3.83791 -0.110494 20.6659
407 1 -1.1104 1.03932 2.79585 20.6249
438 2 2.2208 2.40899 -4.2497 13.7128
349 2 2.2208 5.10872 3.97981 13.7404
468 2 2.2208 7.94752 -4.23375 19.2013
466 2 2.2208 13.6212 -4.11238 19.1518
402 1 -1.1104 6.69227 -2.90543 17.7865
442 2 2.2208 10.8139 1.29379 16.5453
443 1 -1.1104 12.3348 -2.79538 17.8181
444 1 -1.1104 12.2132 2.88455 17.9114
445 1 -1.1104 12.1551 -2.80883 15.2047
447 1 -1.1104 12.2459 2.70837 14.984
449 1 -1.1104 12.2798 -0.127835 17.8991
450 2 2.2208 10.9036 -1.5916 19.2607
451 2 2.2208 10.7964 4.19845 19.3225
452 1 -1.1104 12.1751 0.0216946 15.1156
454 1 -1.1104 9.49738 -2.89047 17.7195
455 1 -1.1104 9.42805 2.67791 17.8631
456 2 2.2208 8.08337 1.29021 19.2229
457 1 -1.1104 9.30204 -2.89343 14.9153
459 1 -1.1104 9.42979 2.72823 15.134
461 2 2.2208 8.08106 -1.45102 16.4413
462 2 2.2208 7.9959 4.12091 16.4155
463 1 -1.1104 9.47694 -0.136553 17.8309
464 1 -1.1104 9.4396 -0.00851274 15.015
446 1 -1.1104 12.4179 -2.83887 20.6807
448 1 -1.1104 12.2964 2.78238 20.6109
458 1 -1.1104 9.47244 -2.74535 20.5818
470 2 2.2208 13.6501 -1.37447 16.3692
409 1 -1.1104 6.66228 -2.64657 20.519
599 2 2.2208 13.5969 4.13498 16.496
465 1 -1.1104 9.43591 -0.133131 20.4799
354 2 2.2208 10.8211 4.18356 13.706
475 2 2.2208 5.2406 6.86718 16.4081
476 2 2.2208 5.32985 12.5923 16.4493
477 1 -1.1104 1.00864 8.37121 17.8789
479 1 -1.1104 1.1418 8.22201 15.0918
483 1 -1.1104 1.02075 5.56804 17.8561
484 1 -1.1104 0.930713 11.1955 17.7028
487 2 2.2208 5.33396 9.72244 19.2361
488 1 -1.1104 1.04866 5.44622 15.1024
490 1 -1.1104 0.825502 11.1139 14.8926
496 1 -1.1104 3.86865 8.24273 17.853
497 2 2.2208 2.42726 7.02672 19.1948
498 2 2.2208 2.34118 12.4863 19.186
499 1 -1.1104 3.80816 8.27893 15.1177
501 2 2.2208 2.55055 9.61382 16.4634
502 1 -1.1104 3.76957 5.37404 17.9356
503 1 -1.1104 3.79816 11.0265 18.071
504 1 -1.1104 3.78997 5.47491 15.1327
506 1 -1.1104 3.77838 11.1633 15.1054
478 1 -1.1104 6.59493 8.27501 17.7792
492 1 -1.1104 6.60584 5.42555 15.0519
485 1 -1.1104 6.58123 5.54295 17.9407
481 1 -1.1104 6.63405 8.24215 14.9314
505 1 -1.1104 3.81226 5.67655 20.6502
480 1 -1.1104 1.0834 8.41249 20.5864
500 1 -1.1104 3.95106 8.35074 20.4973
489 1 -1.1104 0.881277 5.51988 20.6717
491 1 -1.1104 0.99236 11.3255 20.5801
355 2 2.2208 2.3673 6.89446 13.6799
357 2 2.2208 2.36942 12.488 13.6704
537 2 2.2208 13.6134 12.4933 19.1783
572 2 2.2208 13.5821 9.69385 16.4464
486 1 -1.1104 6.83794 11.0654 17.9405
494 1 -1.1104 6.81669 11.1852 15.1094
571 2 2.2208 13.5801 7.04259 19.214
511 2 2.2208 10.7952 6.96829 16.4152
512 2 2.2208 10.9272 12.5351 16.3753
513 1 -1.1104 12.2346 8.18828 17.7072
514 1 -1.1104 12.2762 8.31562 14.8051
516 1 -1.1104 12.118 5.51702 17.7389
517 1 -1.1104 12.3048 11.0979 17.8559
518 2 2.2208 10.8835 9.77814 19.3395
519 1 -1.1104 12.1953 5.4568 15.0508
521 1 -1.1104 12.3351 11.1996 14.991
523 1 -1.1104 9.37278 8.39314 17.9655
524 2 2.2208 7.94551 6.9123 19.3041
525 2 2.2208 8.12384 12.5794 19.2859
526 1 -1.1104 9.43501 8.24706 14.9794
528 2 2.2208 8.06777 9.74559 16.4734
529 1 -1.1104 9.31774 5.52905 17.7647
530 1 -1.1104 9.60096 11.1442 17.8106
531 1 -1.1104 9.42389 5.54369 15.0653
533 1 -1.1104 9.69501 11.025 14.9319
534 1 -1.1104 9.35909 11.1808 20.6545
520 1 -1.1104 12.1214 5.61453 20.6195
515 1 -1.1104 12.2121 8.28937 20.6253
532 1 -1.1104 9.42578 5.49699 20.6705
473 2 2.2208 -0.180715 20.8832 19.1743
538 2 2.2208 5.31763 18.1742 16.3985
539 1 -1.1104 1.09686 13.9658 17.7395
540 1 -1.1104 1.22754 19.479 17.7488
543 1 -1.1104 1.05704 14.024 15.0251
545 1 -1.1104 1.249 19.3561 15.1237
551 1 -1.1104 0.874218 16.7979 17.7251
553 2 2.2208 5.27903 15.4137 19.2906
554 2 2.2208 5.27987 20.8338 19.1852
555 1 -1.1104 1.17102 16.5925 14.894
559 1 -1.1104 4.02232 13.8939 17.8294
560 1 -1.1104 3.94116 19.5279 17.7392
561 2 2.2208 2.48319 18.183 19.1912
562 1 -1.1104 3.93719 13.8911 15.0572
564 1 -1.1104 3.92548 19.546 15.0021
566 2 2.2208 2.55757 15.3298 16.3847
567 2 2.2208 2.50432 20.9616 16.3124
568 1 -1.1104 3.87253 16.8072 17.8092
569 1 -1.1104 3.90001 16.6303 14.9773
557 1 -1.1104 6.51443 16.7287 14.9472
556 1 -1.1104 0.9834 16.7106 20.6046
565 1 -1.1104 3.90627 19.4701 20.6645
548 1 -1.1104 6.5522 14.0632 20.624
570 1 -1.1104 3.93788 16.804 20.5859
544 1 -1.1104 0.852051 13.9149 20.6526
546 1 -1.1104 1.23099 19.5682 20.6138
563 1 -1.1104 3.71963 14.0308 20.5379
441 2 2.2208 -0.247076 18.1498 16.3928
474 2 2.2208 13.6291 20.7994 16.3809
552 1 -1.1104 6.65928 16.734 17.7201
542 1 -1.1104 6.75488 19.6053 17.9179
558 1 -1.1104 6.70101 16.7701 20.637
541 1 -1.1104 6.75245 13.9907 17.8056
580 1 -1.1104 12.4471 19.5246 20.6005
549 1 -1.1104 6.73563 19.5466 14.9287
547 1 -1.1104 6.73368 13.976 14.9009
574 2 2.2208 10.6998 18.1084 16.3971
575 1 -1.1104 12.3641 13.9135 17.8114
576 1 -1.1104 12.1816 19.5011 17.7789
577 1 -1.1104 12.4061 13.991 14.9505
579 1 -1.1104 12.3556 19.5001 14.9549
581 1 -1.1104 12.2574 16.6529 17.8171
582 2 2.2208 11.0056 15.2707 19.209
583 2 2.2208 10.9428 20.9287 19.2746
584 1 -1.1104 12.2987 16.8307 15.0199
586 1 -1.1104 9.49577 13.9312 17.9397
587 1 -1.1104 9.46508 19.4734 17.8389
588 2 2.2208 8.14929 18.0881 19.3127
589 1 -1.1104 9.61323 13.8481 15.0362
591 1 -1.1104 9.52387 19.5538 14.9637
593 2 2.2208 7.96308 15.306 16.402
594 2 2.2208 8.09486 20.9743 16.4716
595 1 -1.1104 9.36347 16.717 17.7409
596 1 -1.1104 9.47969 16.6797 14.9945
585 1 -1.1104 12.3762 16.6569 20.632
592 1 -1.1104 9.57669 19.5912 20.6211
578 1 -1.1104 12.2459 13.7327 20.6314
550 1 -1.1104 6.66838 19.4645 20.5859
635 2 2.2208 -0.281239 -1.40836 24.8831
632 2 2.2208 5.09346 -4.27246 22.0964
633 2 2.2208 2.35532 -4.2647 24.8103
631 2 2.2208 5.27483 -4.22633 27.6433
417 1 -1.1104 1.12669 0.0465337 20.7209
426 1 -1.1104 3.94419 2.76808 20.7381
424 1 -1.1104 3.99544 -2.85977 20.7858
602 2 2.2208 5.25197 1.36488 22.1377
603 1 -1.1104 0.996028 -2.95837 23.4036
604 1 -1.1104 1.0002 2.68739 23.3735
607 1 -1.1104 0.973263 -2.93847 26.1612
608 1 -1.1104 0.914234 2.79476 26.1577
611 1 -1.1104 1.11876 -0.0592577 23.4593
613 2 2.2208 5.06566 -1.35953 24.8904
614 2 2.2208 5.12299 4.23147 24.9865
615 1 -1.1104 1.13303 -0.107395 26.2075
617 1 -1.1104 3.79529 -2.76701 23.4826
618 1 -1.1104 3.72798 2.95724 23.5728
619 2 2.2208 2.39147 1.41218 24.9775
620 1 -1.1104 3.79131 -2.79676 26.3926
621 1 -1.1104 3.72658 2.77933 26.3075
622 2 2.2208 2.37676 -1.4112 22.0967
623 2 2.2208 2.39339 4.13232 22.1079
624 1 -1.1104 3.62291 0.00614593 23.6349
625 1 -1.1104 3.87117 -0.0611308 26.3216
606 1 -1.1104 6.46947 2.76524 23.5092
612 1 -1.1104 6.50309 -0.155699 23.5305
616 1 -1.1104 6.5108 -0.168655 26.2255
419 1 -1.1104 6.54354 0.155973 20.7472
605 1 -1.1104 6.56738 -2.86378 23.3659
610 1 -1.1104 6.44145 2.7041 26.2911
609 1 -1.1104 6.51601 -2.89227 26.1628
378 2 2.2208 2.4031 -1.51358 27.6817
379 2 2.2208 2.41305 4.16667 27.6748
440 2 2.2208 13.5221 4.15232 21.9977
665 2 2.2208 13.5967 1.35974 24.7681
411 1 -1.1104 6.65988 2.78214 20.7756
661 2 2.2208 10.7013 -4.25602 22.1762
662 2 2.2208 7.95104 -4.26989 24.8276
453 1 -1.1104 12.2302 0.0490194 20.7366
460 1 -1.1104 9.39626 2.6304 20.7531
638 2 2.2208 10.8335 1.40345 22.0592
639 1 -1.1104 12.1844 -3.00967 23.4299
640 1 -1.1104 12.2464 2.76407 23.5331
641 1 -1.1104 12.2192 -2.90985 26.122
642 1 -1.1104 12.1289 2.66354 26.2887
643 1 -1.1104 12.2936 -0.193613 23.4677
644 2 2.2208 10.7899 -1.46085 24.7669
645 2 2.2208 10.76 4.08106 24.9279
646 1 -1.1104 12.3445 -0.208653 26.2868
647 1 -1.1104 9.30794 -2.8599 23.4918
648 1 -1.1104 9.47497 2.56 23.7364
649 2 2.2208 7.72111 1.38976 24.9094
650 1 -1.1104 9.32364 -2.83721 26.2146
651 1 -1.1104 9.31679 2.79414 26.3785
652 2 2.2208 7.96568 -1.43741 21.9406
653 2 2.2208 8.01811 4.11636 22.1757
654 1 -1.1104 9.35765 -0.113892 23.1811
655 1 -1.1104 9.41755 -0.0823004 26.0646
383 2 2.2208 8.01522 4.13984 27.6596
382 2 2.2208 8.11847 -1.53482 27.5915
660 2 2.2208 10.7911 -4.21925 27.569
381 2 2.2208 10.9086 1.22102 27.6074
495 1 -1.1104 6.62062 11.2271 20.7188
507 1 -1.1104 3.75684 11.2867 20.8172
667 2 2.2208 5.22869 7.08113 22.0937
668 2 2.2208 5.1078 12.6488 22.1252
669 1 -1.1104 1.02794 8.49007 23.2864
671 1 -1.1104 1.12241 8.35262 26.2538
673 1 -1.1104 0.880939 5.64095 23.3627
674 1 -1.1104 0.992095 11.2125 23.4132
677 2 2.2208 5.12997 9.95041 24.9389
678 1 -1.1104 1.10006 5.50095 26.149
679 1 -1.1104 0.98592 11.0622 26.1633
682 1 -1.1104 3.79677 8.37676 23.5556
683 2 2.2208 2.45019 6.9511 24.9726
684 2 2.2208 2.37439 12.4625 24.7765
685 1 -1.1104 3.95425 8.46614 26.2126
686 2 2.2208 2.43348 9.69678 22.0038
687 1 -1.1104 3.8159 5.68251 23.525
688 1 -1.1104 3.80789 11.2309 23.6352
689 1 -1.1104 3.83576 5.62297 26.384
690 1 -1.1104 3.66403 11.1676 26.2915
670 1 -1.1104 6.56082 8.551 23.4508
672 1 -1.1104 6.57066 8.47144 26.1816
676 1 -1.1104 6.55392 11.3263 23.4993
482 1 -1.1104 6.59872 8.41289 20.7225
681 1 -1.1104 6.58468 11.1849 26.3646
680 1 -1.1104 6.65264 5.63628 26.2988
386 2 2.2208 5.10747 7.07666 27.6709
388 2 2.2208 5.23738 12.6033 27.6531
522 1 -1.1104 12.2329 10.963 20.7388
391 2 2.2208 10.7279 6.89171 27.6614
719 2 2.2208 13.6666 12.4824 24.8815
493 1 -1.1104 6.70508 5.57997 20.8715
675 1 -1.1104 6.70187 5.58322 23.6141
527 1 -1.1104 9.31364 8.32872 20.6871
698 1 -1.1104 9.48328 11.1113 26.327
699 1 -1.1104 9.40764 5.55297 26.1885
700 1 -1.1104 9.39907 11.0143 23.5044
701 1 -1.1104 9.31981 5.34545 23.5577
702 2 2.2208 7.94668 9.91007 22.1395
703 1 -1.1104 9.40996 8.24433 26.211
704 2 2.2208 8.10153 12.5139 24.946
705 2 2.2208 8.00429 6.9799 24.7695
706 2 2.2208 10.8392 6.99002 22.0865
707 2 2.2208 10.9755 12.4469 22.1733
708 1 -1.1104 12.3494 8.35803 23.451
709 1 -1.1104 12.2568 8.27828 26.2988
710 1 -1.1104 12.2615 5.41541 23.4498
711 1 -1.1104 12.2842 11.0656 23.3928
712 2 2.2208 10.8668 9.68461 24.9044
713 1 -1.1104 12.278 5.57889 26.3738
714 1 -1.1104 12.1661 11.0715 26.3049
715 1 -1.1104 9.5982 8.1754 23.5366
392 2 2.2208 8.04787 9.8258 27.6532
748 2 2.2208 -0.324296 15.3183 24.8501
732 1 -1.1104 6.5829 13.975 23.4151
396 2 2.2208 5.37061 18.2024 27.5936
395 2 2.2208 2.53614 20.9827 27.471
747 2 2.2208 -0.276036 20.8875 24.7807
740 1 -1.1104 6.52744 16.8265 23.5381
729 1 -1.1104 6.6465 19.6332 23.3556
725 1 -1.1104 6.59629 16.7061 26.3145
744 2 2.2208 2.33923 15.3062 22.0545
722 1 -1.1104 3.79717 19.369 23.4275
724 1 -1.1104 3.76669 13.9056 23.3616
726 1 -1.1104 1.18329 19.5753 26.1855
727 1 -1.1104 0.97424 16.8241 26.1488
728 1 -1.1104 1.2242 13.9695 26.3277
730 2 2.2208 5.40824 20.9436 24.7824
731 2 2.2208 5.18368 15.3803 24.883
733 1 -1.1104 1.15568 19.3419 23.2725
734 1 -1.1104 1.03924 14.0418 23.5574
735 2 2.2208 5.20826 18.2115 22.0795
736 1 -1.1104 3.99556 19.6395 26.1562
737 2 2.2208 2.47258 18.0043 24.8136
738 1 -1.1104 3.78962 16.6386 26.2276
739 1 -1.1104 3.872 13.7773 26.1769
741 1 -1.1104 0.980714 16.7154 23.5257
742 1 -1.1104 3.80502 16.6835 23.4965
743 2 2.2208 2.53857 20.8543 21.9713
746 2 2.2208 -0.319173 18.0703 22.0551
376 2 2.2208 10.8642 18.1137 27.6967
634 1 -1.1104 12.2837 13.9325 26.2331
597 1 -1.1104 9.60278 16.8215 20.7407
627 1 -1.1104 12.1999 13.8795 23.4685
720 1 -1.1104 9.53258 16.7929 23.538
657 1 -1.1104 12.468 16.613 23.4206
697 1 -1.1104 9.52885 13.8715 26.3511
717 2 2.2208 8.10674 15.3821 22.1431
628 1 -1.1104 12.4509 19.3074 23.5091
692 1 -1.1104 9.44633 19.6491 23.3904
663 2 2.2208 10.9117 20.8435 24.7739
658 2 2.2208 10.8488 15.2555 24.9065
691 1 -1.1104 9.60325 13.8163 23.4752
723 1 -1.1104 6.74438 14.1253 26.3471
590 1 -1.1104 9.57147 13.8727 20.7472
656 1 -1.1104 12.2453 19.4128 26.2335
377 2 2.2208 8.09862 20.8291 27.6809
694 1 -1.1104 6.77923 19.525 26.2101
626 2 2.2208 11.0557 18.0431 22.0052
693 2 2.2208 8.1257 18.1223 24.8832
666 1 -1.1104 12.2074 16.7145 26.1961
745 1 -1.1104 9.44903 16.6492 26.2811
718 2 2.2208 8.13821 20.9275 21.989
716 1 -1.1104 9.59536 19.4789 26.0977
372 2 2.2208 13.5945 15.4188 27.5929
749 2 2.2208 5.2636 23.6486 5.25808
750 2 2.2208 5.24528 29.2779 5.20368
751 1 -1.1104 1.21142 25.2016 1.08696
752 1 -1.1104 0.951581 25.2021 3.7618
753 1 -1.1104 0.987152 22.2359 0.933856
754 1 -1.1104 0.898649 27.798 0.948565
755 2 2.2208 5.2137 26.4502 2.38489
756 1 -1.1104 0.949389 22.3703 3.85277
757 1 -1.1104 0.94314 27.88 3.65405
758 1 -1.1104 3.93913 24.9052 0.936835
759 2 2.2208 2.49701 23.7109 2.28635
760 2 2.2208 2.36387 29.2122 2.37475
761 1 -1.1104 3.7189 25.0987 3.74229
762 2 2.2208 2.31962 26.5161 5.29524
763 1 -1.1104 3.89055 22.1332 0.905925
764 1 -1.1104 3.78852 27.8943 1.05767
765 1 -1.1104 3.72217 22.2871 3.78003
766 1 -1.1104 3.77394 27.9681 3.78834
894 1 -1.1104 6.65646 22.2172 6.62686
772 1 -1.1104 6.61085 22.3748 0.980967
896 1 -1.1104 3.78314 25.1273 6.44301
892 1 -1.1104 0.914709 22.251 6.50974
773 1 -1.1104 6.59506 27.8542 1.0645
774 1 -1.1104 6.63049 22.2289 3.75603
771 1 -1.1104 6.6155 25.1046 4.02098
897 1 -1.1104 3.83379 22.3177 6.60908
893 1 -1.1104 0.871813 27.937 6.47921
898 1 -1.1104 3.73756 27.9784 6.46902
1094 2 2.2208 2.54089 26.5102 -0.349772
1093 2 2.2208 5.36645 23.674 -0.339923
770 1 -1.1104 6.68329 25.2457 1.18595
775 1 -1.1104 6.67735 27.848 3.92063
776 2 2.2208 10.9265 23.8263 5.19187
777 2 2.2208 10.7796 29.3525 5.16212
778 1 -1.1104 12.2962 25.1611 0.902039
779 1 -1.1104 12.3572 25.1243 3.69201
780 1 -1.1104 12.1973 22.315 0.971165
781 1 -1.1104 12.2871 27.812 1.03445
782 2 2.2208 10.9082 26.4881 2.21678
783 1 -1.1104 12.2504 22.2557 3.76894
784 1 -1.1104 12.1854 27.8463 3.93313
785 1 -1.1104 9.4582 25.0738 0.942768
786 2 2.2208 8.07693 23.6951 2.41001
787 2 2.2208 7.95205 29.2873 2.46484
788 1 -1.1104 9.443 25.0918 3.78141
789 2 2.2208 8.10298 26.4419 5.18931
790 1 -1.1104 9.45974 22.2862 0.947073
791 1 -1.1104 9.33797 27.9657 0.99617
792 1 -1.1104 9.33628 22.2853 3.79017
793 1 -1.1104 9.51317 27.9349 3.66078
925 1 -1.1104 12.1855 27.9952 6.60642
924 1 -1.1104 12.1801 22.3552 6.62539
928 1 -1.1104 9.24044 27.8697 6.56605
923 1 -1.1104 12.1844 25.1825 6.58429
927 1 -1.1104 9.58553 22.4376 6.61891
795 2 2.2208 13.5782 29.3286 2.36907
797 2 2.2208 5.21878 34.9027 5.19806
798 1 -1.1104 1.14527 30.6042 1.22201
799 1 -1.1104 0.976018 36.4479 1.10205
801 1 -1.1104 1.00209 30.7519 3.96551
802 1 -1.1104 1.02616 36.155 3.82216
804 1 -1.1104 0.988584 33.4908 1.02976
805 2 2.2208 5.26099 32.0976 2.40707
806 2 2.2208 5.3014 37.8507 2.39958
807 1 -1.1104 1.10138 33.4624 3.72626
809 1 -1.1104 3.95387 30.7322 1.02342
810 1 -1.1104 3.99133 36.3587 1.08662
811 2 2.2208 2.56347 34.8399 2.37446
812 1 -1.1104 3.83945 30.6614 3.71648
813 1 -1.1104 3.84201 36.402 3.67551
814 2 2.2208 2.37803 32.0808 5.14464
815 2 2.2208 2.46258 37.6861 5.22238
816 1 -1.1104 3.83035 33.5028 0.931219
817 1 -1.1104 3.87003 33.5086 3.81479
822 1 -1.1104 6.49598 30.6386 3.76304
803 1 -1.1104 6.62734 36.5063 3.8677
800 1 -1.1104 6.63056 36.2204 0.92905
955 1 -1.1104 3.7502 33.5377 6.61265
948 1 -1.1104 0.915307 36.4511 6.64634
950 1 -1.1104 6.55437 36.3331 6.57631
952 1 -1.1104 6.58997 33.5612 6.56499
949 1 -1.1104 6.60975 30.8847 6.58979
808 1 -1.1104 6.55365 33.6983 3.81493
9898 2 2.2208 -0.311021 37.7391 2.47076
954 1 -1.1104 3.78966 36.2534 6.57318
953 1 -1.1104 3.73718 30.7462 6.52403
951 1 -1.1104 1.17974 33.5626 6.53173
1104 2 2.2208 2.39897 32.0643 -0.24916
9655 2 2.2208 13.6041 37.7194 5.22113
9902 2 2.2208 13.537 35.0066 2.49695
823 1 -1.1104 6.72486 33.4798 1.17857
821 1 -1.1104 6.6665 30.5894 0.965418
824 2 2.2208 10.8593 35.0675 5.32496
825 1 -1.1104 12.1182 30.806 1.04385
826 1 -1.1104 12.4262 36.3986 0.892369
827 1 -1.1104 12.3184 30.7066 3.75624
828 1 -1.1104 12.2667 36.3762 3.85192
829 1 -1.1104 12.2422 33.7208 1.03989
830 2 2.2208 10.7052 32.3029 2.45301
831 2 2.2208 10.8967 37.7346 2.50858
832 1 -1.1104 12.2451 33.6269 3.79842
833 1 -1.1104 9.3477 30.9005 0.957482
834 1 -1.1104 9.57082 36.2829 1.00655
835 2 2.2208 8.03776 34.9346 2.34152
836 1 -1.1104 9.41151 30.8453 3.85479