ITEM: TIMESTEP
100000
ITEM: NUMBER OF ATOMS
17670
ITEM: BOX BOUNDS pp pp pp
-3.5510331649789678e-01 2.7695103316498056e+01
-4.2996159849145386e+00 3.3237961598489284e+02
-3.5821367220948264e-01 2.7698213672209125e+01
ITEM: ATOMS id type q x y z
1 2 2.2208 5.41301 1.28734 5.43014
2 1 -1.1104 1.02083 -2.91658 0.995498
3 1 -1.1104 1.08633 2.56564 1.01574
6 1 -1.1104 0.951988 -2.81091 3.92397
7 1 -1.1104 1.10242 2.76947 3.77809
10 1 -1.1104 1.17271 -0.165705 1.09071
12 2 2.2208 5.28418 -1.42209 2.58481
14 1 -1.1104 1.21505 -0.0206178 3.94316
16 1 -1.1104 3.94399 -2.91898 1.12729
17 1 -1.1104 3.91256 2.76675 0.97554
18 2 2.2208 2.58017 1.37781 2.48456
19 1 -1.1104 3.69883 -2.78269 4.06904
20 1 -1.1104 3.92156 2.77863 3.91079
21 2 2.2208 2.41822 -1.48879 5.28967
22 2 2.2208 2.61142 4.06316 5.27994
23 1 -1.1104 3.93682 -0.0123665 1.03684
24 1 -1.1104 4.04814 -0.00589497 3.98701
13 2 2.2208 5.37389 4.17964 2.40701
311 2 2.2208 -0.235616 20.8503 8.05594
396 2 2.2208 5.34796 18.0949 -0.356287
229 2 2.2208 13.6739 1.36327 8.21864
15 1 -1.1104 6.77921 -0.0819648 3.95284
9 1 -1.1104 6.61694 2.65052 3.89294
52 2 2.2208 10.9203 -4.28862 5.26503
203 2 2.2208 5.23897 -4.26588 10.9031
322 1 -1.1104 9.37559 14.045 12.313
174 1 -1.1104 3.764 -0.233512 6.76106
167 1 -1.1104 1.14243 2.72363 6.58843
4 1 -1.1104 6.77717 -2.98913 1.07735
11 1 -1.1104 6.76883 -0.119171 1.13362
8 1 -1.1104 6.5858 -2.90375 3.86802
5 1 -1.1104 6.70662 2.67558 1.18459
31 2 2.2208 10.887 1.31978 5.38038
32 1 -1.1104 12.2514 -2.94266 0.969187
33 1 -1.1104 12.2498 2.78038 1.11716
34 1 -1.1104 12.3327 -2.8801 3.6378
35 1 -1.1104 12.3563 2.682 4.03955
36 1 -1.1104 12.123 0.03893 1.20199
37 2 2.2208 10.9219 -1.40624 2.53782
38 2 2.2208 10.8411 4.15235 2.57396
39 1 -1.1104 12.2797 0.0103898 4.02047
40 1 -1.1104 9.39685 -2.88292 1.09642
41 1 -1.1104 9.36372 2.74945 1.15837
42 2 2.2208 8.15893 1.33875 2.54378
43 1 -1.1104 9.51106 -2.74179 3.85773
44 1 -1.1104 9.60729 2.79108 3.89398
45 2 2.2208 8.09426 -1.52146 5.33008
46 2 2.2208 8.05024 4.0096 5.37573
47 1 -1.1104 9.423 0.0126869 1.08206
48 1 -1.1104 9.58722 0.0735795 4.03248
81 2 2.2208 -0.284415 6.88639 5.09513
317 2 2.2208 8.12508 15.4189 10.836
50 2 2.2208 13.652 -1.38542 5.32967
233 2 2.2208 13.6494 -4.26303 8.10886
26 2 2.2208 -0.324944 1.37608 5.30799
54 2 2.2208 5.28587 6.98109 5.29912
55 2 2.2208 5.29314 12.658 5.2236
56 1 -1.1104 1.04526 8.14511 0.879265
58 1 -1.1104 1.06042 8.33704 3.78175
60 1 -1.1104 1.14661 5.4194 1.03391
61 1 -1.1104 1.27643 11.0108 1.07258
66 2 2.2208 5.24571 9.76958 2.34845
67 1 -1.1104 1.22961 5.62221 3.78908
68 1 -1.1104 1.25686 11.0985 3.69839
71 1 -1.1104 3.79779 8.39111 1.04061
72 2 2.2208 2.52939 6.99293 2.45398
73 2 2.2208 2.52368 12.4997 2.4693
74 1 -1.1104 3.86825 8.30133 3.84173
75 2 2.2208 2.48973 9.73187 5.32893
76 1 -1.1104 4.00869 5.57261 1.07848
77 1 -1.1104 4.04911 11.1322 1.01592
79 1 -1.1104 4.15484 5.47209 3.89282
80 1 -1.1104 3.88594 11.081 3.89506
381 2 2.2208 10.831 1.32255 -0.310091
63 1 -1.1104 6.80649 5.44127 1.13385
104 2 2.2208 13.6144 12.5355 2.46864
234 1 -1.1104 1.07006 8.34493 6.64486
62 1 -1.1104 0.992263 11.1525 6.65796
236 1 -1.1104 1.20684 5.58308 6.69405
78 1 -1.1104 3.91303 11.2091 6.63121
239 1 -1.1104 4.041 5.58084 6.59497
199 2 2.2208 -0.202874 4.20018 8.06578
360 2 2.2208 11.0029 9.74185 13.5842
230 2 2.2208 13.6433 -1.38609 10.9405
59 1 -1.1104 6.66756 8.28683 3.86485
70 1 -1.1104 6.65837 11.1522 3.92888
69 1 -1.1104 6.78478 5.35485 3.96332
64 1 -1.1104 6.78537 11.1569 1.08834
57 1 -1.1104 6.66404 8.12586 1.14599
84 2 2.2208 11.0785 6.83929 5.15009
85 2 2.2208 10.9281 12.4366 5.24158
86 1 -1.1104 12.1575 8.29287 0.967069
87 1 -1.1104 12.2255 8.40982 3.78396
88 1 -1.1104 12.2443 5.42052 0.921576
89 1 -1.1104 12.3483 11.142 1.04015
91 2 2.2208 10.821 9.79284 2.35507
92 1 -1.1104 12.3529 5.44864 3.83845
93 1 -1.1104 12.1826 11.0558 3.77395
94 1 -1.1104 9.54203 8.3008 1.0446
95 2 2.2208 8.12251 6.9042 2.57327
96 2 2.2208 8.08449 12.5666 2.44977
97 1 -1.1104 9.52199 8.31754 3.95401
98 2 2.2208 8.06344 9.66084 5.29458
99 1 -1.1104 9.50436 5.55969 0.945789
100 1 -1.1104 9.40949 11.1842 0.993842
102 1 -1.1104 9.60875 5.63314 3.8075
103 1 -1.1104 9.44236 11.0893 3.88647
315 1 -1.1104 9.64349 16.7658 12.2277
237 1 -1.1104 6.67987 5.51541 6.88572
235 1 -1.1104 6.67414 8.4676 6.6556
265 1 -1.1104 12.3591 8.43798 6.61701
266 1 -1.1104 12.3397 5.67257 6.7832
397 2 2.2208 2.56012 15.3373 -0.340111
135 2 2.2208 -0.320588 15.378 2.48037
136 2 2.2208 -0.287347 20.9149 2.42846
137 2 2.2208 -0.34604 18.1257 5.31355
106 2 2.2208 5.39259 18.1174 5.29803
107 1 -1.1104 1.14001 13.8082 1.07601
109 1 -1.1104 0.953599 19.5104 0.874655
113 1 -1.1104 1.03847 13.7802 3.9239
114 1 -1.1104 1.15529 19.4459 3.74043
116 1 -1.1104 1.01472 16.661 1.10132
119 2 2.2208 5.31828 15.3636 2.4589
120 2 2.2208 5.44349 20.8996 2.49487
121 1 -1.1104 1.12228 16.7488 3.87515
123 1 -1.1104 3.95934 13.9765 1.08551
125 1 -1.1104 3.8825 19.5412 1.28229
127 2 2.2208 2.44408 18.122 2.53617
128 1 -1.1104 3.85551 14.0029 3.83423
129 1 -1.1104 3.95383 19.367 4.0284
130 2 2.2208 2.42073 15.3459 5.26988
131 2 2.2208 2.39087 20.8835 5.2957
132 1 -1.1104 3.78693 16.7045 1.05022
134 1 -1.1104 3.9673 16.6872 3.95135
140 1 -1.1104 6.74139 16.7003 1.05311
112 1 -1.1104 6.79427 19.4884 6.7278
108 1 -1.1104 1.06835 14.0799 6.703
124 1 -1.1104 3.77438 13.9531 6.68466
117 1 -1.1104 1.07319 16.6554 6.6724
133 1 -1.1104 4.06332 16.7789 6.76538
232 2 2.2208 10.9422 -4.30266 10.8525
122 1 -1.1104 6.85564 16.62 3.85413
138 1 -1.1104 6.60627 19.4327 1.04656
115 1 -1.1104 6.5966 13.9385 3.80663
110 1 -1.1104 6.65354 14.0127 0.957754
139 1 -1.1104 6.88666 19.5059 3.90464
141 2 2.2208 10.978 18.1829 5.2227
142 1 -1.1104 12.2514 13.9939 1.00679
144 1 -1.1104 12.3436 19.5092 0.934737
146 1 -1.1104 12.2651 13.9062 3.9255
147 1 -1.1104 12.366 19.5898 3.78298
148 1 -1.1104 12.3022 16.7367 1.24576
150 2 2.2208 10.9664 15.4048 2.48036
151 2 2.2208 10.9556 20.9043 2.33803
152 1 -1.1104 12.3591 16.7355 3.94258
153 1 -1.1104 9.59733 13.8378 1.02619
155 1 -1.1104 9.41756 19.3828 1.05686
157 2 2.2208 8.05443 17.9668 2.40089
158 1 -1.1104 9.41318 13.9356 3.85369
159 1 -1.1104 9.67298 19.6641 3.7776
160 2 2.2208 8.15282 15.313 5.31687
161 2 2.2208 8.23511 21.0026 5.36036
162 1 -1.1104 9.5268 16.5962 1.10973
164 1 -1.1104 9.62536 16.7475 3.80005
318 1 -1.1104 9.6448 19.583 9.60725
172 1 -1.1104 3.74136 -3.00435 6.71228
166 1 -1.1104 1.02498 -2.83073 6.59058
170 1 -1.1104 0.972934 -0.159362 6.80335
173 1 -1.1104 3.95156 2.72718 6.8056
175 2 2.2208 5.21962 1.21345 10.9106
176 1 -1.1104 0.862136 -2.89898 12.4389
177 1 -1.1104 1.078 2.59753 12.1243
180 1 -1.1104 1.07883 -2.92133 9.52659
181 1 -1.1104 1.0399 2.68439 9.35554
184 1 -1.1104 1.03048 -0.2776 12.556
186 2 2.2208 5.19049 -1.66967 8.03497
188 1 -1.1104 1.02055 -0.0515864 9.67322
190 1 -1.1104 3.76376 -2.88492 12.3641
191 1 -1.1104 3.81649 2.68258 12.2488
192 2 2.2208 2.48692 1.17531 8.13909
193 1 -1.1104 3.76039 -3.06041 9.60242
194 1 -1.1104 3.82087 2.72718 9.4328
195 2 2.2208 2.41 -1.54086 11.0006
196 2 2.2208 2.38283 3.9923 10.8296
197 1 -1.1104 3.78337 -0.118377 12.1867
198 1 -1.1104 3.85233 -0.126297 9.51022
187 2 2.2208 5.31399 4.08553 8.05189
183 1 -1.1104 6.63336 2.618 9.5976
182 1 -1.1104 6.58719 -3.02083 9.34618
168 1 -1.1104 6.50742 -2.85386 6.57602
179 1 -1.1104 6.55324 2.73378 12.2673
185 1 -1.1104 6.61525 -0.0670618 12.3704
169 1 -1.1104 6.70219 2.52153 6.75693
209 1 -1.1104 9.42308 2.66153 6.76428
189 1 -1.1104 6.74452 -0.120626 9.56455
178 1 -1.1104 6.57899 -2.87047 12.3972
171 1 -1.1104 6.81334 -0.205713 6.76552
207 1 -1.1104 12.3605 0.0523183 6.71436
210 1 -1.1104 9.47777 -0.0672356 6.73611
208 1 -1.1104 9.45507 -2.84517 6.70105
205 1 -1.1104 12.103 -2.84951 6.62129
206 1 -1.1104 12.4477 2.86584 6.79085
211 2 2.2208 10.9362 1.27859 11.0045
212 1 -1.1104 12.0672 -2.8544 12.2711
213 1 -1.1104 12.3462 2.74624 12.3215
214 1 -1.1104 12.2449 -3.0391 9.47866
215 1 -1.1104 12.3391 2.77448 9.61545
216 1 -1.1104 12.2998 -0.0584529 12.3451
217 2 2.2208 10.8537 -1.46341 8.12557
218 2 2.2208 10.9751 4.10687 8.06231
219 1 -1.1104 12.46 -0.144838 9.49825
220 1 -1.1104 9.38435 -2.92098 12.2625
221 1 -1.1104 9.53726 2.69151 12.3415
222 2 2.2208 8.13624 1.25207 8.20825
223 1 -1.1104 9.43735 -2.81815 9.53412
224 1 -1.1104 9.53707 2.67488 9.57481
225 2 2.2208 8.09703 -1.4918 10.9669
227 1 -1.1104 9.39187 -0.0857543 12.4308
228 1 -1.1104 9.63525 -0.0891952 9.5969
226 2 2.2208 8.01958 4.03387 10.8491
53 2 2.2208 13.5536 -4.25522 2.35322
378 2 2.2208 2.53251 -1.43161 -0.360428
238 1 -1.1104 3.82838 8.36037 6.61364
240 2 2.2208 5.28844 6.80237 10.8056
241 2 2.2208 5.35567 12.551 10.9279
242 1 -1.1104 1.13836 8.09819 12.0659
244 1 -1.1104 1.10419 8.43279 9.35272
246 1 -1.1104 0.92342 5.32068 12.211
247 1 -1.1104 1.2504 10.8725 12.3476
250 2 2.2208 5.36777 9.68164 8.11931
251 1 -1.1104 1.15278 5.53251 9.50279
252 1 -1.1104 1.16754 11.1484 9.48323
255 1 -1.1104 3.89547 8.36438 12.1951
256 2 2.2208 2.51681 6.96976 8.09329
257 2 2.2208 2.45092 12.5765 8.01062
258 1 -1.1104 3.9293 8.2399 9.40641
259 2 2.2208 2.61871 9.80366 10.7665
260 1 -1.1104 3.75461 5.5274 12.1754
261 1 -1.1104 3.95268 11.0018 12.3988
262 1 -1.1104 4.08869 5.52736 9.3497
263 1 -1.1104 4.03395 11.1104 9.51078
65 1 -1.1104 6.73443 11.0705 6.62725
358 2 2.2208 -0.316735 9.65718 13.6224
90 1 -1.1104 12.4909 11.1675 6.61442
289 1 -1.1104 6.56658 16.6544 9.54564
254 1 -1.1104 6.72543 11.0146 9.36515
245 1 -1.1104 6.89059 8.22155 9.45127
267 1 -1.1104 9.63495 8.22851 6.75642
249 1 -1.1104 6.89073 11.0428 12.1434
253 1 -1.1104 6.7515 5.52248 9.56338
248 1 -1.1104 6.67476 5.58636 12.2547
243 1 -1.1104 6.8206 8.26614 12.1749
269 1 -1.1104 9.58644 5.36327 6.50084
101 1 -1.1104 9.57788 11.129 6.66654
264 1 -1.1104 9.58186 11.0528 9.48234
268 1 -1.1104 9.60311 5.45818 9.33379
270 1 -1.1104 9.55995 11.0431 12.121
271 1 -1.1104 9.37921 5.47851 12.1648
272 2 2.2208 8.25905 9.61385 10.8204
273 1 -1.1104 9.59237 8.24117 9.50355
274 2 2.2208 8.17424 12.5137 8.00801
275 2 2.2208 8.16998 6.85951 8.0879
276 2 2.2208 10.9093 6.92233 10.7756
277 2 2.2208 11.0207 12.5059 10.8539
278 1 -1.1104 12.2929 8.50838 12.2245
279 1 -1.1104 12.4713 8.39487 9.44268
280 1 -1.1104 12.1716 5.5865 12.1799
281 1 -1.1104 12.4507 11.2535 12.3315
282 2 2.2208 10.9743 9.74876 8.0689
283 1 -1.1104 12.389 5.58984 9.55841
284 1 -1.1104 12.4894 11.1549 9.47961
285 1 -1.1104 9.54003 8.34581 12.3496
395 2 2.2208 2.54599 20.7909 -0.31558
384 2 2.2208 13.6676 -1.37351 -0.325287
290 1 -1.1104 6.80751 14.0251 9.53057
302 1 -1.1104 1.05616 19.3943 6.69276
126 1 -1.1104 3.87958 19.4973 6.69618
294 1 -1.1104 1.05126 13.9502 9.44772
295 2 2.2208 5.33861 15.2018 8.12903
291 1 -1.1104 1.11342 19.4909 9.30695
310 2 2.2208 2.53094 15.2877 10.8519
309 2 2.2208 2.50705 20.8345 10.7092
308 1 -1.1104 3.90847 16.5863 12.3206
307 1 -1.1104 1.11523 16.7191 12.2581
305 1 -1.1104 4.08807 13.8538 9.41401
292 1 -1.1104 0.909794 16.6733 9.40945
287 1 -1.1104 3.85073 13.8503 12.2946
304 1 -1.1104 3.84225 16.7428 9.49646
303 2 2.2208 2.46082 18.0942 8.03279
286 1 -1.1104 3.95591 19.4111 12.3529
301 1 -1.1104 4.037 19.5235 9.53434
300 2 2.2208 5.31926 18.1251 10.9031
293 2 2.2208 5.3738 20.9786 7.92132
299 1 -1.1104 1.15065 13.9171 12.189
298 1 -1.1104 1.12378 19.492 12.0487
118 1 -1.1104 6.81998 16.7292 6.68994
383 2 2.2208 8.22851 4.04339 -0.303149
82 2 2.2208 -0.256723 9.55477 2.40499
27 2 2.2208 -0.183161 4.03735 2.32346
324 2 2.2208 11.0725 20.9684 8.07832
111 1 -1.1104 6.70726 13.9079 6.70502
306 1 -1.1104 6.63981 16.7387 12.2727
327 1 -1.1104 12.4976 19.7339 9.58604
320 2 2.2208 8.17157 18.1434 8.0852
331 2 2.2208 11.0123 18.1068 10.8406
143 1 -1.1104 12.0932 14.0241 6.70821
319 1 -1.1104 9.75235 13.8807 9.50146
326 1 -1.1104 12.3428 16.7331 12.267
297 1 -1.1104 6.63919 13.8159 12.339
330 1 -1.1104 12.2198 13.9889 12.2034
316 2 2.2208 8.26413 20.8782 10.8915
329 1 -1.1104 12.588 19.5413 12.2656
314 1 -1.1104 9.47485 16.7774 9.46102
288 1 -1.1104 6.84708 19.443 9.5185
328 1 -1.1104 12.458 13.9752 9.54108
323 1 -1.1104 12.2871 16.7644 9.47141
321 1 -1.1104 9.66886 19.5072 12.3342
296 1 -1.1104 6.77776 19.5154 12.2334
156 1 -1.1104 9.61684 19.714 6.67343
145 1 -1.1104 12.3064 19.5425 6.70229
163 1 -1.1104 9.48198 16.9195 6.51302
149 1 -1.1104 12.2582 16.7645 6.6169
154 1 -1.1104 9.49126 14.0385 6.66448
325 2 2.2208 10.9668 15.2766 8.05426
344 2 2.2208 -0.326124 6.99332 10.7223
342 2 2.2208 -0.354882 12.5122 10.7124
312 2 2.2208 -0.314236 18.064 10.8523
356 2 2.2208 5.41892 9.65771 13.5327
350 2 2.2208 -0.233902 20.9407 13.6499
394 2 2.2208 13.6365 9.70904 -0.276701
366 2 2.2208 13.6599 6.96656 13.6066
354 2 2.2208 10.8958 4.16219 13.6497
359 2 2.2208 7.98279 6.97998 13.5409
370 2 2.2208 8.28735 18.1365 13.6341
382 2 2.2208 8.14581 -1.41125 -0.175439
375 2 2.2208 8.1517 15.2563 -0.281111
389 2 2.2208 -0.217589 12.5007 -0.277994
386 2 2.2208 5.28834 6.88372 -0.319696
388 2 2.2208 5.39661 12.5116 -0.287262
361 2 2.2208 8.10813 12.6362 13.6035
357 2 2.2208 2.59251 12.4035 13.6343
355 2 2.2208 2.47441 6.89866 13.5299
399 2 2.2208 5.2868 1.49935 16.5763
400 1 -1.1104 0.964474 -2.91948 18.0077
401 1 -1.1104 1.08209 2.81655 18.0198
404 1 -1.1104 1.09453 -2.83346 15.2078
406 1 -1.1104 1.03911 2.71119 15.1662
412 1 -1.1104 0.947633 -0.118427 18.0184
414 2 2.2208 5.30083 -1.50493 19.2802
415 2 2.2208 5.24816 4.09988 19.2589
416 1 -1.1104 0.997002 0.0636422 15.3835
420 1 -1.1104 3.87039 -2.78075 18.0662
421 1 -1.1104 3.80592 2.8595 17.8065
422 2 2.2208 2.32415 1.39722 19.3873
423 1 -1.1104 3.818 -2.9088 15.1126
425 1 -1.1104 3.9184 2.63119 15.0704
427 2 2.2208 2.45239 -1.38293 16.602
429 1 -1.1104 3.79278 3.25604e-05 17.9418
430 1 -1.1104 4.04935 -0.0599978 15.2449
428 2 2.2208 2.49305 4.11912 16.4688
347 2 2.2208 5.16923 -1.62426 13.764
349 2 2.2208 5.19376 4.12089 13.6755
363 2 2.2208 2.49189 18.1585 13.6439
659 2 2.2208 13.6067 -4.11927 24.9398
747 2 2.2208 -0.282244 20.8896 24.9787
407 1 -1.1104 0.994202 2.67082 20.8561
468 2 2.2208 8.16562 -4.236 19.2805
437 2 2.2208 -0.355568 6.93132 21.9356
472 2 2.2208 -0.199756 15.1245 19.2418
661 2 2.2208 10.647 -4.18892 22.2299
413 1 -1.1104 6.65472 -0.134325 17.8718
408 1 -1.1104 6.42819 -2.90149 15.2609
418 1 -1.1104 6.72493 -0.17621 15.0875
403 1 -1.1104 6.66139 2.7361 17.9957
402 1 -1.1104 6.62621 -2.88047 17.9365
410 1 -1.1104 6.72671 2.71126 15.1562
442 2 2.2208 10.7148 1.28186 16.5124
443 1 -1.1104 12.3706 -2.79267 17.8737
444 1 -1.1104 12.359 2.77739 17.835
445 1 -1.1104 12.0434 -2.82463 15.1345
447 1 -1.1104 12.3426 2.74176 15.1266
449 1 -1.1104 12.2782 -0.0420548 18.0245
450 2 2.2208 10.7762 -1.51083 19.2756
451 2 2.2208 10.8503 4.00137 19.3748
452 1 -1.1104 12.134 0.0360784 15.197
454 1 -1.1104 9.4801 -2.85522 18.0303
455 1 -1.1104 9.39647 2.76257 17.8751
456 2 2.2208 7.91616 1.296 19.2913
457 1 -1.1104 9.29724 -3.05007 15.0906
459 1 -1.1104 9.35056 2.72302 15.0531
461 2 2.2208 8.03049 -1.59701 16.4824
463 1 -1.1104 9.48373 -0.168428 17.8798
464 1 -1.1104 9.36224 -0.152014 15.0905
462 2 2.2208 8.14907 4.1514 16.422
433 2 2.2208 5.18543 -4.16481 16.6267
352 2 2.2208 7.92671 1.35247 13.7111
473 2 2.2208 -0.311889 20.7765 19.183
633 2 2.2208 2.3529 -4.27224 24.7799
656 1 -1.1104 12.3408 19.5921 26.2227
694 1 -1.1104 6.76352 19.2873 26.2738
535 2 2.2208 -0.292102 9.67493 19.2349
475 2 2.2208 5.16486 6.86544 16.263
476 2 2.2208 5.33419 12.4993 16.3507
477 1 -1.1104 1.01524 8.32369 17.8755
479 1 -1.1104 0.983034 8.22477 15.0757
483 1 -1.1104 0.921214 5.48194 17.8311
484 1 -1.1104 1.09685 11.1327 17.8167
487 2 2.2208 5.22384 9.6538 19.2282
488 1 -1.1104 1.13968 5.49871 14.9345
490 1 -1.1104 0.986294 10.9411 15.0136
496 1 -1.1104 3.81189 8.27022 17.8177
497 2 2.2208 2.53347 6.94786 19.2807
498 2 2.2208 2.4941 12.4034 19.2685
499 1 -1.1104 4.08142 8.22913 14.863
501 2 2.2208 2.44517 9.61176 16.4689
502 1 -1.1104 3.81705 5.48726 17.7568
503 1 -1.1104 3.92116 10.9821 17.8218
504 1 -1.1104 3.76363 5.36556 14.9419
506 1 -1.1104 3.84377 11.1022 15.1145
632 2 2.2208 5.16385 -4.27883 22.1119
627 1 -1.1104 12.4397 13.9235 23.5446
485 1 -1.1104 6.60078 5.50973 17.9166
478 1 -1.1104 6.61732 8.25735 17.6661
494 1 -1.1104 6.70939 11.2484 14.9838
481 1 -1.1104 6.7541 8.41242 15.0174
573 2 2.2208 -0.343784 4.12176 19.4262
505 1 -1.1104 3.88174 5.51094 20.5349
500 1 -1.1104 3.9669 8.31578 20.6509
480 1 -1.1104 1.09259 8.33882 20.6671
597 1 -1.1104 9.78335 16.7248 20.7769
628 1 -1.1104 12.3286 19.5622 23.5454
492 1 -1.1104 6.63389 5.50538 15.007
486 1 -1.1104 6.6388 11.07 17.8944
634 1 -1.1104 12.4302 13.9364 26.2185
511 2 2.2208 10.8854 6.94274 16.5446
512 2 2.2208 10.9009 12.4466 16.4465
513 1 -1.1104 12.4034 8.22563 17.8573
514 1 -1.1104 12.2738 8.20916 15.0332
516 1 -1.1104 12.3078 5.43241 18.1038
517 1 -1.1104 12.2492 10.9009 17.8149
518 2 2.2208 10.9012 9.73504 19.273
519 1 -1.1104 12.252 5.60829 15.1306
521 1 -1.1104 12.4802 11.0686 15.0563
523 1 -1.1104 9.46139 8.20564 17.8485
524 2 2.2208 7.98492 6.88719 19.2285
525 2 2.2208 8.13799 12.3994 19.2987
526 1 -1.1104 9.50056 8.1445 15.1126
528 2 2.2208 8.07646 9.6736 16.5579
529 1 -1.1104 9.36198 5.48094 18.0327
530 1 -1.1104 9.58768 11.163 17.818
531 1 -1.1104 9.62737 5.49125 15.1175
533 1 -1.1104 9.63861 11.2135 14.8907
434 2 2.2208 2.35532 -4.21703 19.2883
364 2 2.2208 5.46398 20.9176 13.6881
720 1 -1.1104 9.46098 16.6289 23.5519
745 1 -1.1104 9.59104 16.7311 26.3705
657 1 -1.1104 12.3103 16.7256 23.4422
664 2 2.2208 13.6159 -1.48467 22.1346
538 2 2.2208 5.34175 18.0724 16.467
539 1 -1.1104 1.24794 13.8388 17.8591
540 1 -1.1104 1.08402 19.5793 17.8766
543 1 -1.1104 1.06801 13.7332 15.0432
545 1 -1.1104 0.984795 19.4377 15.1529
551 1 -1.1104 1.18632 16.7927 17.849
553 2 2.2208 5.40971 15.1961 19.2164
554 2 2.2208 5.4083 20.8724 19.3311
555 1 -1.1104 1.20802 16.6619 15.0332
559 1 -1.1104 3.85408 13.7362 17.9002
560 1 -1.1104 3.97404 19.4196 17.9899
561 2 2.2208 2.53303 18.1355 19.2197
562 1 -1.1104 3.89956 13.8409 15.1568
564 1 -1.1104 3.91986 19.443 15.0644
566 2 2.2208 2.63321 15.1939 16.4602
567 2 2.2208 2.56342 20.854 16.5162
568 1 -1.1104 3.93463 16.6834 17.8811
569 1 -1.1104 3.95241 16.6079 15.1978
537 2 2.2208 13.5753 12.425 19.4469
441 2 2.2208 -0.246581 18.0248 16.4805
570 1 -1.1104 3.97521 16.6062 20.5391
546 1 -1.1104 1.08924 19.5024 20.7449
556 1 -1.1104 1.09081 16.7701 20.6697
721 2 2.2208 13.5636 7.08137 24.9203
353 2 2.2208 10.709 -1.52747 13.7335
558 1 -1.1104 6.93425 16.5095 20.6036
740 1 -1.1104 6.72828 16.6722 23.4658
550 1 -1.1104 6.74703 19.373 20.4843
585 1 -1.1104 12.394 16.7093 20.5529
557 1 -1.1104 6.69596 16.7227 15.008
552 1 -1.1104 6.82364 16.7042 17.868
541 1 -1.1104 6.96552 13.9266 17.8153
542 1 -1.1104 6.80201 19.5041 17.8566
549 1 -1.1104 6.87686 19.5413 15.0266
547 1 -1.1104 6.79791 13.9207 15.0475
574 2 2.2208 11.0652 17.9758 16.3777
575 1 -1.1104 12.3302 13.7826 17.9444
576 1 -1.1104 12.3333 19.3999 17.8633
577 1 -1.1104 12.4479 13.8542 15.1307
579 1 -1.1104 12.4745 19.5718 15.1219
581 1 -1.1104 12.3554 16.6637 17.7731
582 2 2.2208 10.9463 15.3158 19.2856
583 2 2.2208 10.9722 20.7937 19.3372
584 1 -1.1104 12.3696 16.5107 15.1063
586 1 -1.1104 9.54264 13.8961 18.0382
587 1 -1.1104 9.59966 19.3415 17.8411
588 2 2.2208 8.29258 17.9778 19.2766
589 1 -1.1104 9.54186 13.9858 15.0796
591 1 -1.1104 9.76179 19.4474 15.0412
593 2 2.2208 8.17621 15.3794 16.4973
594 2 2.2208 8.29991 20.8443 16.5708
595 1 -1.1104 9.65234 16.6823 17.8232
596 1 -1.1104 9.49677 16.7958 14.9967
580 1 -1.1104 12.2024 19.5765 20.8131
368 2 2.2208 11.1047 20.8857 13.7229
379 2 2.2208 2.46292 4.13328 27.6805
696 2 2.2208 -0.322789 12.4577 22.0738
431 1 -1.1104 3.62278 0.00337328 20.675
424 1 -1.1104 3.80663 -2.86005 20.8274
426 1 -1.1104 3.92733 2.63194 20.763
405 1 -1.1104 1.12371 -2.85202 20.6457
417 1 -1.1104 0.845952 -0.206565 20.8573
602 2 2.2208 5.26141 1.34628 22.2136
603 1 -1.1104 0.940444 -2.84575 23.5621
604 1 -1.1104 0.989806 2.79396 23.556
607 1 -1.1104 0.976423 -2.8909 26.2834
608 1 -1.1104 1.01488 2.65885 26.3659
611 1 -1.1104 1.07392 0.0595635 23.5943
613 2 2.2208 5.22822 -1.37692 24.9233
615 1 -1.1104 1.03116 0.0302703 26.3342
617 1 -1.1104 3.70304 -2.8634 23.6359
618 1 -1.1104 3.87712 2.79614 23.4208
619 2 2.2208 2.42271 1.3727 24.8882
620 1 -1.1104 3.79957 -2.79159 26.4776
621 1 -1.1104 3.84536 2.69703 26.3402
622 2 2.2208 2.48702 -1.45506 22.1391
623 2 2.2208 2.46941 4.13179 22.1385
624 1 -1.1104 3.83565 -0.0895638 23.5116
625 1 -1.1104 3.7284 -0.0298194 26.2634
614 2 2.2208 5.17841 4.15933 24.9568
419 1 -1.1104 6.46864 -0.0910757 20.6821
435 2 2.2208 -0.258633 1.38233 16.638
578 1 -1.1104 12.3401 13.9073 20.743
666 1 -1.1104 12.3494 16.5765 26.2268
409 1 -1.1104 6.71202 -2.78326 20.7152
610 1 -1.1104 6.63378 2.69034 26.4412
465 1 -1.1104 9.3044 -0.11669 20.6882
453 1 -1.1104 12.1411 0.0397138 20.7588
616 1 -1.1104 6.65088 -0.00321323 26.313
606 1 -1.1104 6.67446 2.75595 23.6899
605 1 -1.1104 6.62545 -2.77166 23.4936
609 1 -1.1104 6.49057 -2.87872 26.2564
411 1 -1.1104 6.61473 2.7196 20.719
460 1 -1.1104 9.41772 2.60005 20.6277
446 1 -1.1104 12.2599 -2.87258 20.6135
458 1 -1.1104 9.36339 -2.74089 20.6482
448 1 -1.1104 12.1272 2.81159 20.7431
612 1 -1.1104 6.56802 0.0701688 23.5223
638 2 2.2208 10.8005 1.37916 22.102
639 1 -1.1104 12.0452 -2.83255 23.6318
640 1 -1.1104 12.2463 2.7611 23.6461
641 1 -1.1104 12.3001 -2.89139 26.3408
642 1 -1.1104 12.2147 2.78927 26.3693
643 1 -1.1104 12.2972 -0.0626724 23.528
644 2 2.2208 10.7184 -1.46597 24.9341
645 2 2.2208 10.9371 4.1844 24.9688
646 1 -1.1104 12.3045 -0.0368709 26.411
647 1 -1.1104 9.32824 -2.77556 23.4902
648 1 -1.1104 9.36704 2.82745 23.6215
649 2 2.2208 8.05171 1.34079 25.0234
650 1 -1.1104 9.43058 -2.9515 26.2679
651 1 -1.1104 9.4936 2.60844 26.3667
652 2 2.2208 7.88517 -1.23137 22.0868
653 2 2.2208 7.98942 4.20937 22.0628
654 1 -1.1104 9.31643 -0.0201911 23.6987
655 1 -1.1104 9.57767 -0.157496 26.3949
663 2 2.2208 10.9524 20.8703 24.8604
723 1 -1.1104 6.82649 13.795 26.3298
489 1 -1.1104 1.16116 5.55767 20.6388
507 1 -1.1104 3.85992 10.9947 20.5683
491 1 -1.1104 0.972301 11.076 20.6268
667 2 2.2208 5.18106 6.94641 22.1112
668 2 2.2208 5.35194 12.4065 22.0659
669 1 -1.1104 1.20723 8.25788 23.4253
671 1 -1.1104 0.835001 8.31559 26.3832
673 1 -1.1104 1.03405 5.59067 23.4001
674 1 -1.1104 1.1808 11.0106 23.3467
677 2 2.2208 5.32795 9.64845 24.9181
678 1 -1.1104 0.969913 5.55058 26.2992
679 1 -1.1104 1.00641 10.976 26.2848
682 1 -1.1104 4.0037 8.22089 23.5381
683 2 2.2208 2.39872 6.8751 24.8341
684 2 2.2208 2.4963 12.3759 24.9593
685 1 -1.1104 3.85971 8.31184 26.2549
686 2 2.2208 2.53214 9.74662 21.9836
687 1 -1.1104 3.83742 5.57021 23.558
688 1 -1.1104 3.97093 10.9961 23.3592
689 1 -1.1104 3.8791 5.51047 26.3556
690 1 -1.1104 3.90006 10.9661 26.2156
680 1 -1.1104 6.57473 5.45383 26.3903
495 1 -1.1104 6.68572 10.9756 20.6039
348 2 2.2208 2.37725 1.22585 13.7058
716 1 -1.1104 9.52978 19.5494 26.1662
670 1 -1.1104 6.77367 8.21753 23.4688
672 1 -1.1104 6.62874 8.28725 26.2456
675 1 -1.1104 6.72373 5.49328 23.5717
681 1 -1.1104 6.75424 10.9416 26.2605
676 1 -1.1104 6.89797 11.0031 23.4589
493 1 -1.1104 6.49316 5.56597 20.8842
527 1 -1.1104 9.53619 8.23411 20.6891
482 1 -1.1104 6.70877 8.31112 20.5925
520 1 -1.1104 12.2408 5.51688 20.9976
522 1 -1.1104 12.2473 11.0976 20.7438
532 1 -1.1104 9.49656 5.50752 20.503
515 1 -1.1104 12.3663 8.29137 20.6868
534 1 -1.1104 9.51049 11.0764 20.5924
698 1 -1.1104 9.54158 11.054 26.3135
699 1 -1.1104 9.45932 5.37135 26.205
700 1 -1.1104 9.56968 11.0104 23.3662
701 1 -1.1104 9.41622 5.4649 23.4069
702 2 2.2208 8.10435 9.63208 22.0858
703 1 -1.1104 9.53616 8.1519 26.3944
704 2 2.2208 8.1455 12.3794 24.8106
705 2 2.2208 8.06377 6.8072 24.8836
706 2 2.2208 10.871 6.84229 22.1581
707 2 2.2208 10.9054 12.5322 22.1769
708 1 -1.1104 12.2423 8.38887 23.4729
709 1 -1.1104 12.3253 8.27646 26.3854
710 1 -1.1104 12.1929 5.6441 23.6625
711 1 -1.1104 12.4751 11.2406 23.4701
712 2 2.2208 11.0266 9.70163 24.8913
713 1 -1.1104 12.3931 5.4885 26.2551
714 1 -1.1104 12.2369 11.0088 26.2491
715 1 -1.1104 9.63542 8.33052 23.6335
626 2 2.2208 10.9666 18.109 22.1879
548 1 -1.1104 6.80065 13.7735 20.6354
748 2 2.2208 -0.244214 15.3145 24.8715
697 1 -1.1104 9.71833 13.9644 26.3137
565 1 -1.1104 3.84147 19.457 20.8195
563 1 -1.1104 3.98291 13.6774 20.8825
544 1 -1.1104 1.14918 13.8873 20.5563
743 2 2.2208 2.46198 20.9704 22.032
744 2 2.2208 2.45728 15.2738 21.9225
722 1 -1.1104 3.96455 19.6238 23.4504
724 1 -1.1104 3.95457 13.8976 23.6236
726 1 -1.1104 1.12824 19.4682 26.2658
727 1 -1.1104 1.19221 16.6769 26.3419
728 1 -1.1104 1.19519 13.8605 26.1879
730 2 2.2208 5.36228 20.9545 24.7636
731 2 2.2208 5.31858 15.2737 24.9542
733 1 -1.1104 1.12404 19.5501 23.3496
734 1 -1.1104 1.02503 13.957 23.2685
735 2 2.2208 5.35402 18.0866 21.981
736 1 -1.1104 3.94293 19.441 26.3304
737 2 2.2208 2.58593 18.1347 24.8509
738 1 -1.1104 4.04947 16.6124 26.4025
739 1 -1.1104 3.97427 13.5653 26.3659
741 1 -1.1104 1.20869 16.7152 23.4029
742 1 -1.1104 3.89768 16.7582 23.3274
692 1 -1.1104 9.39029 19.3043 23.5003
717 2 2.2208 8.26067 15.2376 22.1063
691 1 -1.1104 9.5119 13.8946 23.5632
718 2 2.2208 8.16827 20.7788 22.1751
729 1 -1.1104 6.69283 19.4668 23.4285
590 1 -1.1104 9.57967 13.7278 20.683
725 1 -1.1104 6.6742 16.4739 26.4015
732 1 -1.1104 6.68905 13.8896 23.3669
658 2 2.2208 11.003 15.3409 24.9061
592 1 -1.1104 9.59859 19.4801 20.7224
693 2 2.2208 8.09617 17.9942 24.875
695 2 2.2208 -0.304329 9.69396 24.794
369 2 2.2208 10.8818 15.3265 13.722
377 2 2.2208 8.06959 20.7966 27.6906
746 2 2.2208 -0.265517 18.1923 22.0384
466 2 2.2208 13.6684 -4.16306 19.2771
665 2 2.2208 13.5878 1.36094 24.9772
376 2 2.2208 10.8529 18.2263 27.6678
374 2 2.2208 5.14891 1.27633 27.6289
660 2 2.2208 10.8046 -4.25301 27.6892
387 2 2.2208 2.46026 9.6969 27.6369
393 2 2.2208 10.8931 12.4542 27.5836
631 2 2.2208 5.20849 -4.26861 27.6535
392 2 2.2208 8.13732 9.6928 27.6155
365 2 2.2208 5.36399 15.369 13.8254
351 2 2.2208 -0.187419 15.325 13.7214
391 2 2.2208 10.9377 6.79562 27.6918
749 2 2.2208 5.42028 23.7763 5.13819
750 2 2.2208 5.3704 29.219 5.20811
751 1 -1.1104 0.956429 25.1212 0.962936
752 1 -1.1104 1.13091 25.0387 3.8961
753 1 -1.1104 1.19544 22.2339 1.05912
754 1 -1.1104 0.98158 27.8902 0.834558
755 2 2.2208 5.26667 26.3946 2.46732
756 1 -1.1104 1.12522 22.2559 3.87207
757 1 -1.1104 1.1326 27.741 3.7633
758 1 -1.1104 3.89996 25.0889 1.1348
759 2 2.2208 2.5346 23.6266 2.61065
760 2 2.2208 2.46117 29.2436 2.31866
761 1 -1.1104 4.06989 24.9283 3.8782
762 2 2.2208 2.59607 26.4806 5.24987
763 1 -1.1104 3.9536 22.347 1.14134
764 1 -1.1104 3.84892 27.8366 1.18168
765 1 -1.1104 3.81803 22.2082 3.96788
766 1 -1.1104 3.90104 27.8848 3.91471
1622 1 -1.1104 6.60798 47.3451 6.49688
1066 1 -1.1104 6.73381 47.2938 12.3507
893 1 -1.1104 1.10071 27.9806 6.57226
1097 2 2.2208 2.57356 43.2065 -0.333058
1639 1 -1.1104 3.95829 47.4652 12.2788
9900 2 2.2208 -0.312983 31.9991 2.43908
897 1 -1.1104 3.87464 22.1939 6.61972
1654 1 -1.1104 9.32795 47.3528 6.4659
1093 2 2.2208 5.38357 23.704 -0.341416
1630 1 -1.1104 6.88407 47.254 9.1663
770 1 -1.1104 6.70308 25.0495 1.08534
771 1 -1.1104 6.68497 25.126 3.82048
775 1 -1.1104 6.62009 27.8281 3.80792
774 1 -1.1104 6.72574 22.33 3.85547
772 1 -1.1104 6.86731 22.2215 1.00544
773 1 -1.1104 6.8272 27.8914 0.942844
776 2 2.2208 10.936 23.7233 5.17085
777 2 2.2208 11.0532 29.3748 5.1781
778 1 -1.1104 12.3239 25.0799 1.10599
779 1 -1.1104 12.2279 25.0523 3.86145
780 1 -1.1104 12.4303 22.3423 0.999624
781 1 -1.1104 12.3157 27.8859 1.02451
782 2 2.2208 10.9936 26.5984 2.43309
783 1 -1.1104 12.3382 22.3148 3.80468
784 1 -1.1104 12.469 27.9093 3.87298
785 1 -1.1104 9.58414 25.081 0.914304
786 2 2.2208 8.14239 23.6739 2.3634
787 2 2.2208 8.23562 29.2864 2.32604
788 1 -1.1104 9.53928 25.1756 3.56911
789 2 2.2208 8.18933 26.5222 5.17595
790 1 -1.1104 9.4957 22.2099 0.894953
791 1 -1.1104 9.47131 27.8159 0.985564
792 1 -1.1104 9.41194 22.4017 3.81341
793 1 -1.1104 9.62549 28.0629 3.67301
894 1 -1.1104 6.73488 22.3727 6.6814
928 1 -1.1104 9.61004 27.7674 6.54262
924 1 -1.1104 12.2575 22.3286 6.59039
1625 1 -1.1104 1.21935 47.5333 12.112
9898 2 2.2208 -0.296349 37.5803 2.39105
797 2 2.2208 5.38001 34.7968 5.08869
798 1 -1.1104 1.03049 30.7912 1.13679
799 1 -1.1104 1.20108 36.2623 0.926317
801 1 -1.1104 1.24556 30.6394 3.81597
802 1 -1.1104 0.885822 36.2614 3.77051
804 1 -1.1104 1.16773 33.3861 1.02678
805 2 2.2208 5.30359 32.0269 2.3328
806 2 2.2208 5.47409 37.5937 2.51193
807 1 -1.1104 1.01788 33.4243 3.90548
809 1 -1.1104 3.8172 30.5516 0.949872
810 1 -1.1104 3.9231 36.1972 1.11468
811 2 2.2208 2.51972 34.7494 2.32499
812 1 -1.1104 4.00367 30.6156 3.91398
813 1 -1.1104 3.85676 36.3277 3.90009
814 2 2.2208 2.53433 32.0517 5.18845
815 2 2.2208 2.59938 37.5142 5.32434
816 1 -1.1104 4.10792 33.3645 0.984706
817 1 -1.1104 3.95815 33.4227 3.70601
1621 1 -1.1104 1.21156 47.4179 6.53902
1057 2 2.2208 -0.302496 23.6753 10.8071
803 1 -1.1104 6.88659 36.164 3.79363
954 1 -1.1104 3.9028 36.1433 6.63643
951 1 -1.1104 1.15867 33.5893 6.6807
9901 2 2.2208 -0.307791 34.8697 5.26492
767 2 2.2208 -0.346476 29.2373 5.2932
1642 1 -1.1104 3.99752 47.4523 9.59703
822 1 -1.1104 6.80321 30.5661 3.80456
821 1 -1.1104 6.71943 30.7437 0.997801
823 1 -1.1104 6.78355 33.5775 1.07004
808 1 -1.1104 6.79068 33.3083 3.80122
800 1 -1.1104 6.7205 36.2898 0.926194
1299 2 2.2208 8.07796 45.7877 13.6032
824 2 2.2208 11.0174 35.019 5.35087
825 1 -1.1104 12.478 30.7077 1.00394
826 1 -1.1104 12.5237 36.3629 1.20279
827 1 -1.1104 12.3883 30.833 3.79919
828 1 -1.1104 12.445 36.5016 3.99739
829 1 -1.1104 12.4239 33.5098 1.11144
830 2 2.2208 11.0323 32.2013 2.45271
831 2 2.2208 11.0829 37.7273 2.54066
832 1 -1.1104 12.4933 33.5353 3.81367
833 1 -1.1104 9.62566 30.7366 1.11015
834 1 -1.1104 9.64464 36.3946 1.21641
835 2 2.2208 8.26645 35.0954 2.4151
836 1 -1.1104 9.68407 30.8229 3.80848
837 1 -1.1104 9.70527 36.3103 3.96375
838 2 2.2208 8.22156 32.0861 5.22775
839 2 2.2208 8.2623 37.5789 5.36899