ITEM: TIMESTEP
80000
ITEM: NUMBER OF ATOMS
17670
ITEM: BOX BOUNDS pp pp pp
-3.5393150632409204e-01 2.7693931506324009e+01
-4.3909796746829537e+00 3.3247097967466050e+02
-3.5533608511004433e-01 2.7695336085109567e+01
ITEM: ATOMS id type q x y z
1 2 2.2208 5.27702 1.16 5.08626
2 1 -1.1104 1.12289 -3.04048 0.943569
3 1 -1.1104 1.23331 2.57479 0.946625
6 1 -1.1104 0.994506 -3.17086 3.70041
7 1 -1.1104 0.947434 2.52932 3.84104
10 1 -1.1104 1.0267 -0.272566 0.977402
12 2 2.2208 5.4751 -1.59833 2.22956
14 1 -1.1104 1.07843 -0.460086 3.89801
16 1 -1.1104 3.80144 -3.07933 0.858515
17 1 -1.1104 3.98092 2.65563 0.916944
18 2 2.2208 2.35385 1.03577 2.41482
19 1 -1.1104 3.73045 -2.83834 3.58156
20 1 -1.1104 3.86407 2.52267 3.83659
21 2 2.2208 2.40469 -1.73527 5.23339
22 2 2.2208 2.60611 4.03782 5.17822
23 1 -1.1104 3.93061 -0.290259 0.699041
24 1 -1.1104 4.02206 -0.232595 3.66354
13 2 2.2208 5.30336 3.97068 2.38804
5 1 -1.1104 6.69724 2.54283 1.0377
172 1 -1.1104 3.92081 -3.06553 6.40692
170 1 -1.1104 0.98696 -0.237688 6.53188
166 1 -1.1104 1.21279 -3.01443 6.66361
28 2 2.2208 2.4773 -4.30237 2.3123
173 1 -1.1104 3.97677 2.58904 6.66654
174 1 -1.1104 3.79755 -0.220736 6.61982
167 1 -1.1104 1.13055 2.521 6.6079
232 2 2.2208 10.9209 -4.30935 10.9403
328 1 -1.1104 12.1898 13.791 9.32267
346 2 2.2208 -0.293643 -1.60117 13.5763
4 1 -1.1104 6.70691 -3.05413 0.842348
9 1 -1.1104 6.66648 2.68732 3.89033
8 1 -1.1104 6.49834 -3.08589 3.76671
15 1 -1.1104 6.7952 -0.203651 3.65366
168 1 -1.1104 6.65914 -2.90073 6.52763
11 1 -1.1104 6.7502 -0.257461 0.883244
169 1 -1.1104 6.91113 2.81019 6.6312
31 2 2.2208 10.7256 1.30599 5.14487
32 1 -1.1104 12.3084 -2.9153 0.906912
33 1 -1.1104 12.4302 2.86725 1.00253
34 1 -1.1104 12.1655 -3.08525 3.68424
35 1 -1.1104 12.3238 2.58757 3.76353
36 1 -1.1104 12.2458 -0.053621 0.896113
37 2 2.2208 10.8474 -1.57875 2.34193
38 2 2.2208 10.9092 4.10106 2.21379
39 1 -1.1104 12.3248 -0.172539 3.6008
40 1 -1.1104 9.34035 -3.1495 0.882708
41 1 -1.1104 9.43987 2.51248 0.978925
42 2 2.2208 8.14417 1.28751 2.46677
43 1 -1.1104 9.334 -3.00516 3.65655
44 1 -1.1104 9.62555 2.60532 3.77999
45 2 2.2208 8.11904 -1.64631 5.07489
46 2 2.2208 8.10715 4.03231 5.06027
47 1 -1.1104 9.50698 -0.312014 0.939354
48 1 -1.1104 9.56827 -0.217681 3.73325
206 1 -1.1104 12.3366 2.6878 6.59272
199 2 2.2208 -0.182168 4.0697 7.98883
205 1 -1.1104 12.3622 -2.96881 6.49159
171 1 -1.1104 6.60429 -0.194641 6.40597
210 1 -1.1104 9.37502 -0.177688 6.44192
207 1 -1.1104 12.1333 -0.123865 6.34865
209 1 -1.1104 9.60171 2.56973 6.57782
208 1 -1.1104 9.37356 -3.0056 6.53177
316 2 2.2208 8.09886 21.0364 10.8998
312 2 2.2208 -0.26019 18.0473 10.8145
54 2 2.2208 5.21128 7.03596 5.34413
55 2 2.2208 5.27812 12.4133 5.24323
56 1 -1.1104 0.98814 8.34462 0.893224
58 1 -1.1104 0.927016 8.19073 3.77768
60 1 -1.1104 1.06856 5.39048 1.04085
61 1 -1.1104 1.07128 11.0848 0.849363
66 2 2.2208 5.0781 9.66629 2.50552
67 1 -1.1104 1.11979 5.39826 3.87004
68 1 -1.1104 0.986256 11.1317 3.76884
71 1 -1.1104 3.86035 8.30465 0.857938
72 2 2.2208 2.41198 6.93313 2.41645
73 2 2.2208 2.48694 12.479 2.38652
74 1 -1.1104 3.7862 8.27422 3.91613
75 2 2.2208 2.41793 9.73825 5.2684
76 1 -1.1104 3.92494 5.51069 1.00695
77 1 -1.1104 3.7973 11.0299 0.9545
79 1 -1.1104 3.94912 5.65141 3.78011
80 1 -1.1104 3.70216 11.0104 3.89448
236 1 -1.1104 1.09649 5.57461 6.5676
63 1 -1.1104 6.69242 5.36383 0.962509
69 1 -1.1104 6.67618 5.39414 3.66988
238 1 -1.1104 3.74479 8.35722 6.66367
239 1 -1.1104 3.97921 5.55237 6.66629
62 1 -1.1104 1.15029 11.2117 6.60618
65 1 -1.1104 6.72043 11.1627 6.62352
57 1 -1.1104 6.73488 8.33138 1.02825
325 2 2.2208 10.8222 15.391 8.08843
234 1 -1.1104 0.937451 8.4 6.7039
78 1 -1.1104 4.01458 11.0695 6.68724
235 1 -1.1104 6.60726 8.29014 6.81817
51 2 2.2208 7.98144 -4.32601 2.22314
64 1 -1.1104 6.64852 11.0374 1.14007
59 1 -1.1104 6.5869 8.19931 3.96228
237 1 -1.1104 6.75407 5.55584 6.41543
70 1 -1.1104 6.49509 10.9996 3.86664
84 2 2.2208 10.8537 6.78929 5.22009
85 2 2.2208 10.8416 12.5125 5.13688
86 1 -1.1104 12.3028 8.22571 1.06298
87 1 -1.1104 12.3885 8.35368 3.86343
88 1 -1.1104 12.4085 5.50317 0.790482
89 1 -1.1104 12.2143 10.9544 1.06219
91 2 2.2208 10.8556 9.58247 2.44908
92 1 -1.1104 12.2184 5.41132 3.65652
93 1 -1.1104 12.2135 11.2021 3.79935
94 1 -1.1104 9.51203 8.00815 1.02929
95 2 2.2208 8.08878 6.80839 2.41968
96 2 2.2208 8.0784 12.3799 2.31407
97 1 -1.1104 9.50965 8.23976 3.87058
98 2 2.2208 8.11407 9.71741 5.21948
99 1 -1.1104 9.3601 5.25137 0.77066
100 1 -1.1104 9.42895 10.9538 1.00346
102 1 -1.1104 9.35423 5.52466 3.86411
103 1 -1.1104 9.35305 11.044 3.75259
101 1 -1.1104 9.39643 11.0447 6.65482
90 1 -1.1104 12.2572 10.933 6.51607
267 1 -1.1104 9.40519 8.16762 6.64514
266 1 -1.1104 12.2459 5.4202 6.56403
269 1 -1.1104 9.44695 5.51694 6.68487
314 1 -1.1104 9.49971 16.676 9.47088
106 2 2.2208 5.3121 17.9784 5.22791
107 1 -1.1104 1.14945 13.9236 0.827689
109 1 -1.1104 1.22853 19.5706 1.06689
113 1 -1.1104 1.13871 13.8423 3.8399
114 1 -1.1104 1.18465 19.4844 3.7848
116 1 -1.1104 0.904267 16.7492 1.13452
119 2 2.2208 5.19735 15.1626 2.48109
120 2 2.2208 5.29263 20.9746 2.39692
121 1 -1.1104 1.04441 16.4862 3.85614
123 1 -1.1104 3.9978 13.7641 0.982752
125 1 -1.1104 3.94499 19.3108 0.96868
127 2 2.2208 2.49512 17.9571 2.41002
128 1 -1.1104 3.88403 13.7233 3.88426
129 1 -1.1104 4.02383 19.4876 3.83353
130 2 2.2208 2.51297 15.2131 5.32583
131 2 2.2208 2.52899 20.8824 5.25846
132 1 -1.1104 3.93069 16.5507 0.997616
134 1 -1.1104 3.83551 16.5478 3.77817
140 1 -1.1104 6.62076 16.5484 0.99059
122 1 -1.1104 6.65263 16.7917 3.82109
138 1 -1.1104 6.78265 19.4968 0.953132
133 1 -1.1104 3.78585 16.7488 6.60871
108 1 -1.1104 1.04512 13.8001 6.63065
117 1 -1.1104 1.14391 16.5053 6.77255
118 1 -1.1104 6.6508 16.5274 6.59393
139 1 -1.1104 6.73531 19.5473 3.87004
124 1 -1.1104 3.8642 13.9004 6.57413
329 1 -1.1104 12.3596 19.495 12.2673
115 1 -1.1104 6.73296 13.9034 3.75893
110 1 -1.1104 6.80118 13.8046 0.997139
112 1 -1.1104 6.69743 19.3435 6.77019
141 2 2.2208 10.9309 18.0766 5.06781
142 1 -1.1104 12.4331 13.7892 0.984858
144 1 -1.1104 12.2135 19.366 0.89779
146 1 -1.1104 12.317 13.8867 3.62748
147 1 -1.1104 12.5208 19.5224 3.61125
148 1 -1.1104 12.402 16.5281 1.12212
150 2 2.2208 10.8947 15.0983 2.26974
151 2 2.2208 10.9995 20.8613 2.35
152 1 -1.1104 12.299 16.7783 3.86665
153 1 -1.1104 9.60609 13.755 0.829009
155 1 -1.1104 9.49476 19.6811 0.987127
157 2 2.2208 8.1213 18.0545 2.34395
158 1 -1.1104 9.54573 13.7237 3.71934
159 1 -1.1104 9.4806 19.5189 3.74247
160 2 2.2208 8.14398 15.2361 5.06307
161 2 2.2208 8.24255 20.882 5.21538
162 1 -1.1104 9.49006 16.5005 0.955869
164 1 -1.1104 9.60982 16.5835 3.72126
156 1 -1.1104 9.48915 19.3934 6.55697
154 1 -1.1104 9.27511 13.9877 6.61846
145 1 -1.1104 12.3461 19.504 6.39303
163 1 -1.1104 9.58123 16.7813 6.46084
143 1 -1.1104 12.1657 13.9718 6.41549
149 1 -1.1104 12.2627 16.7415 6.62325
334 2 2.2208 13.5254 4.10314 5.21046
111 1 -1.1104 6.56598 13.873 6.6662
337 2 2.2208 13.6406 15.3167 5.24767
83 2 2.2208 -0.299495 12.5891 5.19347
82 2 2.2208 -0.335381 9.68218 2.39642
354 2 2.2208 10.9394 4.07358 13.5112
311 2 2.2208 -0.296904 20.8454 7.9582
326 1 -1.1104 12.3592 16.6201 12.094
351 2 2.2208 -0.294302 15.2027 13.6214
175 2 2.2208 5.2416 1.29903 10.8634
176 1 -1.1104 0.944956 -3.0984 12.2356
177 1 -1.1104 1.11633 2.63422 12.1521
180 1 -1.1104 0.931046 -2.81059 9.51658
181 1 -1.1104 1.17758 2.63915 9.39763
184 1 -1.1104 1.02864 -0.0750882 12.1003
186 2 2.2208 5.30091 -1.63818 7.90936
188 1 -1.1104 1.16293 -0.181459 9.35004
190 1 -1.1104 3.90508 -2.93795 12.3356
191 1 -1.1104 3.96919 2.65683 12.1858
192 2 2.2208 2.59775 1.19348 8.02833
193 1 -1.1104 3.87336 -3.00807 9.43378
194 1 -1.1104 4.05336 2.71225 9.41397
195 2 2.2208 2.42103 -1.67571 10.9064
196 2 2.2208 2.47112 4.0178 10.7978
197 1 -1.1104 3.77395 -0.125312 12.1725
198 1 -1.1104 3.99343 -0.153591 9.37996
187 2 2.2208 5.43069 3.98471 7.98676
182 1 -1.1104 6.70926 -3.06571 9.34432
347 2 2.2208 5.35575 -1.71329 13.5662
322 1 -1.1104 9.50809 13.9657 12.2394
323 1 -1.1104 12.1804 16.5505 9.45854
315 1 -1.1104 9.36345 16.6562 12.3238
343 2 2.2208 -0.2793 9.90426 7.90212
327 1 -1.1104 12.2605 19.4729 9.5114
348 2 2.2208 2.57108 1.29376 13.4868
318 1 -1.1104 9.47586 19.5294 9.31571
320 2 2.2208 8.23048 18.0195 8.04939
340 2 2.2208 13.5974 12.3603 8.10126
27 2 2.2208 -0.186101 3.94935 2.4852
183 1 -1.1104 6.68428 2.45582 9.44806
189 1 -1.1104 6.78424 -0.0428831 9.37019
185 1 -1.1104 6.64266 -0.154733 12.1571
179 1 -1.1104 6.662 2.81377 12.4084
178 1 -1.1104 6.7146 -3.05118 12.215
211 2 2.2208 10.9002 1.26587 10.7636
212 1 -1.1104 12.2344 -2.95988 12.1756
213 1 -1.1104 12.3359 2.62824 12.0837
214 1 -1.1104 12.3146 -2.98334 9.46001
215 1 -1.1104 12.4435 2.56922 9.3912
216 1 -1.1104 12.3137 -0.292421 12.0589
217 2 2.2208 10.8915 -1.63246 7.95206
218 2 2.2208 10.9613 4.0333 8.06908
219 1 -1.1104 12.2927 -0.348692 9.19647
220 1 -1.1104 9.48613 -2.93322 12.1692
221 1 -1.1104 9.47088 2.53229 12.1204
222 2 2.2208 8.07607 1.1302 7.91996
223 1 -1.1104 9.45578 -3.02277 9.32425
224 1 -1.1104 9.67025 2.62019 9.3855
225 2 2.2208 8.18199 -1.45397 10.7192
227 1 -1.1104 9.45603 -0.114682 12.241
228 1 -1.1104 9.5732 -0.270756 9.36023
226 2 2.2208 8.11641 4.02948 10.9174
353 2 2.2208 10.8748 -1.49765 13.5407
368 2 2.2208 11.0066 21.0123 13.6263
330 1 -1.1104 12.2577 13.7715 12.1665
313 2 2.2208 -0.344397 15.1521 7.98778
240 2 2.2208 5.31793 6.8243 10.706
241 2 2.2208 5.26527 12.5944 10.8296
242 1 -1.1104 1.06592 8.13579 12.2934
244 1 -1.1104 1.20597 8.13601 9.43309
246 1 -1.1104 0.886031 5.42141 12.3329
247 1 -1.1104 1.23138 11.0885 12.1443
250 2 2.2208 5.27085 9.70147 8.06723
251 1 -1.1104 1.00141 5.39858 9.32725
252 1 -1.1104 1.21232 11.0768 9.45807
255 1 -1.1104 3.92006 8.18979 12.138
256 2 2.2208 2.44917 6.82109 7.96224
257 2 2.2208 2.54153 12.5145 8.04556
258 1 -1.1104 3.94567 8.28077 9.34818
259 2 2.2208 2.53713 9.62827 10.8986
260 1 -1.1104 3.68558 5.39419 12.1686
261 1 -1.1104 3.93823 11.0221 12.2746
262 1 -1.1104 3.93313 5.38685 9.30525
263 1 -1.1104 3.89143 11.148 9.46781
332 2 2.2208 13.5715 18.0304 7.94697
253 1 -1.1104 6.72461 5.34062 9.36164
245 1 -1.1104 6.73489 8.31319 9.49607
317 2 2.2208 8.1591 15.0813 10.8468
288 1 -1.1104 6.83829 19.5153 9.59244
201 2 2.2208 -0.28844 1.28863 10.7209
135 2 2.2208 -0.306775 15.3596 2.38091
265 1 -1.1104 12.1638 8.21061 6.61157
243 1 -1.1104 6.81867 8.30471 12.368
249 1 -1.1104 6.76216 10.9837 12.1818
254 1 -1.1104 6.6847 11.1765 9.44509
248 1 -1.1104 6.63479 5.44939 12.0372
264 1 -1.1104 9.42862 11.071 9.40882
268 1 -1.1104 9.49349 5.30887 9.47681
270 1 -1.1104 9.62467 11.2709 12.1912
271 1 -1.1104 9.60814 5.36782 12.3067
272 2 2.2208 7.97078 9.70235 10.8391
273 1 -1.1104 9.54062 8.18742 9.45393
274 2 2.2208 7.98093 12.5079 7.90974
275 2 2.2208 8.06279 6.86237 8.08351
276 2 2.2208 10.9671 6.83979 10.7434
277 2 2.2208 10.8298 12.4885 10.7519
278 1 -1.1104 12.097 8.16348 12.2185
279 1 -1.1104 12.3898 8.25698 9.46822
280 1 -1.1104 12.3685 5.25232 12.2741
281 1 -1.1104 12.4112 11.0922 12.0965
282 2 2.2208 10.862 9.53972 8.05604
283 1 -1.1104 12.3305 5.51515 9.37239
284 1 -1.1104 12.2296 10.9627 9.30747
285 1 -1.1104 9.5404 8.07371 12.0759
361 2 2.2208 8.14596 12.4513 13.6461
360 2 2.2208 10.9311 9.60851 13.5792
359 2 2.2208 8.15907 6.82545 13.4764
324 2 2.2208 10.9728 20.7695 8.00375
296 1 -1.1104 6.70413 19.6123 12.3127
302 1 -1.1104 1.02607 19.4393 6.46733
126 1 -1.1104 3.90967 19.4226 6.48113
297 1 -1.1104 6.62837 13.8321 12.2695
289 1 -1.1104 6.70283 16.6374 9.34489
363 2 2.2208 2.72563 18.0995 13.6766
229 2 2.2208 13.6238 1.18749 7.85383
137 2 2.2208 -0.334818 18.0507 5.25341
290 1 -1.1104 6.6427 13.9723 9.38032
306 1 -1.1104 6.80282 16.8953 12.5063
294 1 -1.1104 0.923287 13.8137 9.38582
295 2 2.2208 5.29601 15.2762 7.97295
291 1 -1.1104 1.12005 19.4059 9.35099
310 2 2.2208 2.49701 15.3778 10.9158
309 2 2.2208 2.53057 20.8106 10.8811
308 1 -1.1104 3.92145 16.6389 12.3373
307 1 -1.1104 1.03603 16.7326 12.2156
305 1 -1.1104 3.8449 13.9159 9.42627
292 1 -1.1104 1.15595 16.5587 9.50626
287 1 -1.1104 3.95062 13.8343 12.2903
304 1 -1.1104 3.90702 16.7136 9.56883
303 2 2.2208 2.4463 18.0736 7.99763
286 1 -1.1104 3.96749 19.3614 12.1058
301 1 -1.1104 3.93578 19.485 9.39598
300 2 2.2208 5.39915 18.051 10.8517
293 2 2.2208 5.33781 20.897 8.08779
299 1 -1.1104 1.09674 13.8358 12.213
298 1 -1.1104 1.30896 19.4483 12.2512
50 2 2.2208 13.602 -1.63987 5.09538
321 1 -1.1104 9.57596 19.67 12.2406
331 2 2.2208 10.9116 18.0944 11.0435
369 2 2.2208 10.9715 15.3552 13.673
319 1 -1.1104 9.46096 13.8839 9.37714
342 2 2.2208 -0.212976 12.4962 10.8355
9257 2 2.2208 13.6006 1.26688 13.5557
136 2 2.2208 -0.221975 20.8577 2.48663
105 2 2.2208 13.5926 6.84746 2.31705
230 2 2.2208 13.6061 -1.58339 10.7296
357 2 2.2208 2.49583 12.4563 13.6143
392 2 2.2208 8.15703 9.55723 -0.351487
395 2 2.2208 2.55165 20.8577 -0.347797
358 2 2.2208 -0.292991 9.60623 13.5025
399 2 2.2208 5.31364 1.20892 16.2801
400 1 -1.1104 1.12648 -3.14203 17.7058
401 1 -1.1104 0.992489 2.53964 17.775
404 1 -1.1104 1.12273 -2.99429 14.9366
406 1 -1.1104 0.910903 2.692 15.0002
412 1 -1.1104 1.16539 -0.373946 17.7091
414 2 2.2208 5.21565 -1.738 19.0496
415 2 2.2208 5.46819 4.05896 19.1549
416 1 -1.1104 1.05392 -0.155286 14.9498
420 1 -1.1104 3.9129 -3.10669 17.7871
421 1 -1.1104 3.9325 2.6521 17.7429
422 2 2.2208 2.51217 1.16513 19.1439
423 1 -1.1104 3.93047 -2.97509 14.9916
425 1 -1.1104 3.71232 2.71386 14.9677
427 2 2.2208 2.45812 -1.67011 16.345
429 1 -1.1104 3.8751 -0.102184 17.6275
430 1 -1.1104 3.9087 -0.222895 14.8819
405 1 -1.1104 1.07317 -2.88754 20.4578
417 1 -1.1104 0.986733 -0.271272 20.4801
407 1 -1.1104 1.10105 2.58356 20.6052
431 1 -1.1104 3.93049 -0.358913 20.3882
426 1 -1.1104 3.95094 2.51627 20.5993
424 1 -1.1104 3.76392 -3.19231 20.5483
410 1 -1.1104 6.56301 2.66454 14.929
393 2 2.2208 10.9499 12.386 27.6373
413 1 -1.1104 6.7382 -0.0346169 17.6048
428 2 2.2208 2.46487 4.05071 16.6092
391 2 2.2208 11.0151 6.80243 27.5876
364 2 2.2208 5.32665 20.9459 13.6527
377 2 2.2208 8.1113 20.9152 27.6196
381 2 2.2208 11.0092 1.35953 27.6142
408 1 -1.1104 6.67498 -2.96812 14.9166
718 2 2.2208 8.08627 20.7733 21.9684
419 1 -1.1104 6.69764 -0.244935 20.4328
403 1 -1.1104 6.77909 2.53775 17.7653
418 1 -1.1104 6.66852 -0.18409 15.0287
402 1 -1.1104 6.68712 -3.07941 17.7914
442 2 2.2208 10.8247 1.29048 16.3516
443 1 -1.1104 12.3153 -2.93857 17.8446
444 1 -1.1104 12.2592 2.57692 17.6888
445 1 -1.1104 12.2136 -2.96374 15.0699
447 1 -1.1104 12.1972 2.70407 14.9376
449 1 -1.1104 12.2057 -0.17962 17.5324
450 2 2.2208 10.839 -1.55305 19.1458
451 2 2.2208 10.9961 4.09942 19.2239
452 1 -1.1104 12.2241 -0.251954 14.8687
454 1 -1.1104 9.38495 -3.05684 17.6286
455 1 -1.1104 9.3954 2.74699 17.9336
456 2 2.2208 8.05601 1.28839 19.1771
457 1 -1.1104 9.58611 -2.93501 14.8704
459 1 -1.1104 9.23786 2.57737 15.0464
461 2 2.2208 8.1019 -1.56352 16.2383
463 1 -1.1104 9.48457 -0.161573 17.7854
464 1 -1.1104 9.48959 -0.0797382 14.9646
462 2 2.2208 8.19924 4.10581 16.3665
446 1 -1.1104 12.2011 -2.88687 20.5665
394 2 2.2208 13.5702 9.58343 27.6623
453 1 -1.1104 12.3066 -0.117129 20.4348
458 1 -1.1104 9.40112 -2.95751 20.4974
448 1 -1.1104 12.3912 2.57407 20.5623
460 1 -1.1104 9.60563 2.56816 20.5196
411 1 -1.1104 6.68802 2.66123 20.6393
409 1 -1.1104 6.61548 -3.01468 20.5706
378 2 2.2208 2.545 -1.64815 27.5038
465 1 -1.1104 9.45012 -0.055657 20.6187
663 2 2.2208 11.0138 20.6505 24.8107
475 2 2.2208 5.3952 6.84945 16.3642
476 2 2.2208 5.42604 12.3799 16.451
477 1 -1.1104 1.24278 8.23112 17.9605
479 1 -1.1104 1.26237 8.38252 15.0519
483 1 -1.1104 0.992483 5.37597 17.8503
484 1 -1.1104 1.15283 11.0443 17.8059
487 2 2.2208 5.38261 9.68624 19.218
488 1 -1.1104 0.994004 5.46406 15.0737
490 1 -1.1104 1.1248 11.0826 15.0178
496 1 -1.1104 4.05004 8.33518 17.7995
497 2 2.2208 2.57195 6.80784 19.3457
498 2 2.2208 2.57214 12.4446 19.3246
499 1 -1.1104 4.05493 8.23808 14.9644
501 2 2.2208 2.52222 9.5779 16.4245
502 1 -1.1104 3.90095 5.34493 17.8975
503 1 -1.1104 3.99666 11.0888 17.8958
504 1 -1.1104 3.99589 5.50647 15.1432
506 1 -1.1104 3.98387 10.9753 15.0737
478 1 -1.1104 6.76086 8.30416 17.8902
500 1 -1.1104 3.81796 8.17358 20.6584
507 1 -1.1104 4.06729 10.9739 20.648
491 1 -1.1104 1.18884 11.1685 20.6853
489 1 -1.1104 1.02636 5.37356 20.5494
493 1 -1.1104 6.75588 5.44315 20.571
495 1 -1.1104 6.81493 11.0872 20.4974
386 2 2.2208 5.34009 6.77981 27.6487
376 2 2.2208 10.9271 18.015 27.6059
494 1 -1.1104 6.7399 11.0369 14.9783
492 1 -1.1104 6.75111 5.51739 14.8847
485 1 -1.1104 6.73886 5.54906 17.749
482 1 -1.1104 6.64181 8.23887 20.8041
481 1 -1.1104 6.7945 8.2452 15.1013
486 1 -1.1104 6.85544 11.0169 17.7267
511 2 2.2208 11.0401 6.89499 16.4059
512 2 2.2208 10.9365 12.5088 16.3508
513 1 -1.1104 12.4269 8.23651 17.7841
514 1 -1.1104 12.428 8.22127 15.037
516 1 -1.1104 12.3598 5.44711 17.798
517 1 -1.1104 12.3869 11.1386 17.8794
518 2 2.2208 10.9684 9.68128 19.2146
519 1 -1.1104 12.2694 5.42077 15.0318
521 1 -1.1104 12.1491 11.1838 14.8967
523 1 -1.1104 9.69804 8.39916 17.8159
524 2 2.2208 8.10929 6.76315 19.2494
525 2 2.2208 8.25997 12.4838 19.0773
526 1 -1.1104 9.69254 8.29115 14.927
528 2 2.2208 8.23157 9.58694 16.413
529 1 -1.1104 9.55529 5.57496 17.9093
530 1 -1.1104 9.6929 11.0577 17.8509
531 1 -1.1104 9.64015 5.40805 15.0903
533 1 -1.1104 9.55061 10.9372 14.9928
527 1 -1.1104 9.43613 8.09905 20.6536
522 1 -1.1104 12.262 10.9436 20.6002
515 1 -1.1104 12.1257 8.18332 20.6388
534 1 -1.1104 9.38414 10.9425 20.7494
520 1 -1.1104 12.5124 5.34177 20.4575
532 1 -1.1104 9.45418 5.33548 20.7524
745 1 -1.1104 9.69353 16.4815 26.2748
627 1 -1.1104 12.3989 13.7543 23.4281
538 2 2.2208 5.47929 18.1435 16.6543
539 1 -1.1104 1.01669 13.7396 17.8275
540 1 -1.1104 1.18167 19.3164 17.9444
543 1 -1.1104 1.06556 13.8616 15.071
545 1 -1.1104 1.28132 19.5063 15.1636
551 1 -1.1104 1.13817 16.6134 17.9096
553 2 2.2208 5.48509 15.1256 19.1688
554 2 2.2208 5.36666 20.8923 19.2607
555 1 -1.1104 1.32793 16.7496 15.0533
559 1 -1.1104 3.97777 13.8989 17.7716
560 1 -1.1104 4.05028 19.4535 17.8727
561 2 2.2208 2.57963 17.9862 19.2481
562 1 -1.1104 4.02949 13.7759 14.8809
564 1 -1.1104 3.92119 19.5435 14.9727
566 2 2.2208 2.51869 15.272 16.4867
567 2 2.2208 2.59196 20.8743 16.4539
568 1 -1.1104 3.95732 16.6261 17.9732
569 1 -1.1104 3.97103 16.8196 15.0857
544 1 -1.1104 1.14084 13.8076 20.7546
549 1 -1.1104 6.7053 19.5435 15.1285
557 1 -1.1104 6.66882 16.7993 15.1725
563 1 -1.1104 3.95307 13.8302 20.6265
570 1 -1.1104 4.03783 16.6072 20.7413
558 1 -1.1104 6.75416 16.5822 20.5578
546 1 -1.1104 1.10184 19.3592 20.6825
565 1 -1.1104 4.03369 19.4627 20.5807
541 1 -1.1104 6.7551 13.8458 17.7982
542 1 -1.1104 6.90271 19.5868 17.9043
556 1 -1.1104 1.1774 16.5387 20.6923
634 1 -1.1104 12.358 14.0279 26.2632
552 1 -1.1104 6.72283 16.5841 17.9166
547 1 -1.1104 6.95558 13.9586 14.94
548 1 -1.1104 6.75369 13.7723 20.6582
550 1 -1.1104 6.78243 19.3272 20.5789
574 2 2.2208 11.0225 18.1776 16.4751
575 1 -1.1104 12.5191 13.8457 17.8791
576 1 -1.1104 12.4038 19.5179 17.8898
577 1 -1.1104 12.5407 13.9554 15.0467
579 1 -1.1104 12.4433 19.5313 15.0476
581 1 -1.1104 12.3548 16.7179 17.7908
582 2 2.2208 11.0569 15.3266 19.1819
583 2 2.2208 10.9874 20.7774 19.3856
584 1 -1.1104 12.3757 16.7348 14.8564
586 1 -1.1104 9.56836 13.8906 17.6208
587 1 -1.1104 9.52053 19.4985 17.8641
588 2 2.2208 8.17696 17.9853 19.2873
589 1 -1.1104 9.66933 13.7896 14.8308
591 1 -1.1104 9.45755 19.6325 15.0045
593 2 2.2208 8.24356 15.3693 16.382
594 2 2.2208 8.10098 20.9841 16.3549
595 1 -1.1104 9.68978 16.6714 17.7502
596 1 -1.1104 9.65179 16.7119 15.0387
592 1 -1.1104 9.57194 19.2993 20.6241
585 1 -1.1104 12.3435 16.6641 20.6825
590 1 -1.1104 9.49383 13.7291 20.4573
580 1 -1.1104 12.4339 19.3398 20.7139
597 1 -1.1104 9.53818 16.569 20.6765
578 1 -1.1104 12.3834 13.8249 20.5783
374 2 2.2208 5.38132 1.247 27.5719
379 2 2.2208 2.47937 3.95144 27.6014
470 2 2.2208 13.6401 -1.54643 16.196
375 2 2.2208 8.2336 15.2302 27.5385
602 2 2.2208 5.38255 1.17214 21.9278
603 1 -1.1104 0.939265 -2.95603 23.4432
604 1 -1.1104 1.11026 2.60792 23.282
607 1 -1.1104 0.971575 -2.96042 26.2726
608 1 -1.1104 1.16838 2.64938 26.1705
611 1 -1.1104 1.11719 -0.151452 23.3453
613 2 2.2208 5.18674 -1.59978 24.7145
615 1 -1.1104 1.19692 -0.217842 26.234
617 1 -1.1104 3.74373 -3.00524 23.3015
618 1 -1.1104 3.94523 2.43651 23.3427
619 2 2.2208 2.53434 1.30237 24.7262
620 1 -1.1104 3.75247 -3.0217 26.0411
621 1 -1.1104 4.06021 2.63932 26.2354
622 2 2.2208 2.50783 -1.55775 21.8712
623 2 2.2208 2.56037 3.92985 22.0041
624 1 -1.1104 3.89918 -0.2475 23.1748
625 1 -1.1104 3.94875 -0.111071 26.1611
614 2 2.2208 5.35416 4.06811 24.7978
605 1 -1.1104 6.59978 -3.03891 23.2757
610 1 -1.1104 6.8117 2.5916 26.066
609 1 -1.1104 6.51237 -3.07288 26.1688
637 2 2.2208 -0.300569 3.95702 24.7207
716 1 -1.1104 9.67276 19.31 26.1506
390 2 2.2208 -0.195867 6.81926 27.4876
695 2 2.2208 -0.249891 9.7033 24.8127
535 2 2.2208 -0.285393 9.65741 19.2682
693 2 2.2208 8.13462 17.9768 24.8164
729 1 -1.1104 6.69874 19.3192 23.5257
383 2 2.2208 8.00615 4.08779 27.5522
606 1 -1.1104 6.67648 2.57432 23.3392
616 1 -1.1104 6.72909 -0.100078 26.0313
612 1 -1.1104 6.7528 -0.316136 23.3267
398 2 2.2208 -0.33602 18.0697 27.6014
466 2 2.2208 13.5751 -4.33921 19.2115
472 2 2.2208 -0.308233 15.1818 19.2194
638 2 2.2208 10.9424 1.22848 21.8874
639 1 -1.1104 12.231 -2.89651 23.4045
640 1 -1.1104 12.1759 2.68726 23.3078
641 1 -1.1104 12.1395 -3.01514 26.2008
642 1 -1.1104 12.2673 2.51997 26.258
643 1 -1.1104 12.2205 -0.229396 23.3528
644 2 2.2208 10.8712 -1.55807 24.8037
645 2 2.2208 10.9495 4.05875 24.7892
646 1 -1.1104 12.3994 -0.285183 25.9878
647 1 -1.1104 9.30496 -3.14014 23.3156
648 1 -1.1104 9.50189 2.52769 23.2893
649 2 2.2208 8.13302 1.28524 24.7431
650 1 -1.1104 9.34998 -2.92252 26.0116
651 1 -1.1104 9.61901 2.72972 26.3572
652 2 2.2208 8.00561 -1.58192 21.9377
653 2 2.2208 8.05207 3.98247 22.0275
654 1 -1.1104 9.56741 -0.16571 23.3927
655 1 -1.1104 9.46168 -0.0189321 26.1405
656 1 -1.1104 12.4706 19.5845 26.2287
717 2 2.2208 8.1118 15.182 22.0246
473 2 2.2208 -0.25355 20.8109 19.1507
505 1 -1.1104 4.04203 5.39497 20.6246
480 1 -1.1104 1.0052 8.2928 20.6616
388 2 2.2208 5.3299 12.4488 27.6462
667 2 2.2208 5.29122 6.82713 21.9651
668 2 2.2208 5.36209 12.4137 21.9604
669 1 -1.1104 1.22835 8.30621 23.4555
671 1 -1.1104 1.21492 8.31686 26.0975
673 1 -1.1104 1.02888 5.38069 23.2652
674 1 -1.1104 1.0196 11.2176 23.4587
677 2 2.2208 5.42632 9.66373 24.8252
678 1 -1.1104 1.168 5.5286 26.2158
679 1 -1.1104 1.15109 11.0763 26.1469
682 1 -1.1104 3.92021 8.19687 23.4549
683 2 2.2208 2.53852 6.90219 24.8574
684 2 2.2208 2.48036 12.4943 24.7602
685 1 -1.1104 4.05673 8.17405 26.2482
686 2 2.2208 2.54181 9.66456 22.0386
687 1 -1.1104 3.79805 5.32584 23.4047
688 1 -1.1104 3.84588 11.0371 23.4436
689 1 -1.1104 3.84997 5.34193 26.2012
690 1 -1.1104 4.03159 11.0114 26.2167
681 1 -1.1104 6.85553 10.952 26.2966
680 1 -1.1104 6.71004 5.47953 26.0293
670 1 -1.1104 6.82057 8.16899 23.448
628 1 -1.1104 12.4037 19.4077 23.453
658 2 2.2208 11.0385 15.2469 24.83
382 2 2.2208 8.10099 -1.45843 27.424
691 1 -1.1104 9.58458 13.8202 23.2652
387 2 2.2208 2.54317 9.66927 27.6776
696 2 2.2208 -0.323049 12.4977 22.0647
510 2 2.2208 -0.27697 6.80419 16.4477
660 2 2.2208 10.7214 -4.36147 27.5687
536 2 2.2208 -0.328506 12.3916 16.3634
672 1 -1.1104 6.87415 8.21546 26.3056
675 1 -1.1104 6.6773 5.44842 23.2806
676 1 -1.1104 6.77912 10.9924 23.4773
698 1 -1.1104 9.59304 10.9685 26.2002
699 1 -1.1104 9.57778 5.48447 26.1029
700 1 -1.1104 9.66213 11.1064 23.4007
701 1 -1.1104 9.52618 5.3632 23.4847
702 2 2.2208 8.17869 9.54935 22.1026
703 1 -1.1104 9.65051 8.15813 26.3282
704 2 2.2208 8.10864 12.4742 24.699
705 2 2.2208 8.23619 6.84778 24.7345
706 2 2.2208 10.9201 6.84393 21.8399
707 2 2.2208 10.9143 12.4205 21.8939
708 1 -1.1104 12.2272 8.11468 23.327
709 1 -1.1104 12.2645 8.22096 26.1969
710 1 -1.1104 12.408 5.38721 23.3305
711 1 -1.1104 12.3483 11.0725 23.3446
712 2 2.2208 11.0086 9.6063 24.8915
713 1 -1.1104 12.1925 5.28888 26.122
714 1 -1.1104 12.2261 11.0404 26.254
715 1 -1.1104 9.57532 8.29711 23.4161
657 1 -1.1104 12.389 16.5949 23.4466
626 2 2.2208 11.0325 17.9004 22.1531
397 2 2.2208 2.45623 15.2321 27.6616
720 1 -1.1104 9.54201 16.4602 23.4093
694 1 -1.1104 6.79051 19.5164 26.1656
725 1 -1.1104 6.81525 16.6995 26.3129
723 1 -1.1104 6.79567 13.8684 26.301
732 1 -1.1104 6.7095 13.7421 23.4264
744 2 2.2208 2.54314 15.2053 22.0244
722 1 -1.1104 4.09225 19.3553 23.3714
724 1 -1.1104 4.00966 13.8339 23.4383
726 1 -1.1104 1.21093 19.4715 26.2415
727 1 -1.1104 0.988221 16.6107 26.4286
728 1 -1.1104 1.08191 13.9922 26.1176
730 2 2.2208 5.31166 20.8176 24.8724
731 2 2.2208 5.31338 15.2582 24.9425
733 1 -1.1104 1.05446 19.3726 23.504
734 1 -1.1104 1.1583 13.9878 23.4966
735 2 2.2208 5.37868 17.9608 22.0185
736 1 -1.1104 4.00621 19.4821 26.2248
737 2 2.2208 2.50961 17.9508 24.8185
738 1 -1.1104 3.90042 16.6897 26.1999
739 1 -1.1104 3.9942 13.8367 26.1614
741 1 -1.1104 1.16297 16.5196 23.5122
742 1 -1.1104 3.88103 16.499 23.4526
743 2 2.2208 2.50657 20.7963 21.9562
740 1 -1.1104 6.75023 16.5162 23.5221
661 2 2.2208 10.7997 -4.30192 21.8382
697 1 -1.1104 9.56195 13.8321 26.2
396 2 2.2208 5.3691 18.1109 27.6481
666 1 -1.1104 12.393 16.7685 26.2854
692 1 -1.1104 9.51958 19.2533 23.4
435 2 2.2208 -0.252354 1.1799 16.2866
601 2 2.2208 13.6036 20.8773 22.1098
719 2 2.2208 13.656 12.4636 24.9474
746 2 2.2208 -0.191093 18.0164 22.0666
441 2 2.2208 -0.148843 17.986 16.4168
437 2 2.2208 -0.308626 6.7787 22.0115
747 2 2.2208 -0.141293 20.8717 24.8102
635 2 2.2208 -0.338897 -1.48583 24.8794
380 2 2.2208 -0.342644 1.19459 27.6256
356 2 2.2208 5.36132 9.73728 13.6613
389 2 2.2208 -0.225518 12.5379 27.496
350 2 2.2208 -0.160754 20.8276 13.6849
365 2 2.2208 5.4088 15.2666 13.7663
349 2 2.2208 5.18583 4.07028 13.6594
352 2 2.2208 8.01779 1.32995 13.7306
355 2 2.2208 2.51603 6.78063 13.6678
370 2 2.2208 8.05136 18.2364 13.6775
749 2 2.2208 5.29596 23.7339 5.29215
750 2 2.2208 5.46826 29.2642 5.08163
751 1 -1.1104 1.11445 25.1585 0.989264
752 1 -1.1104 1.00626 25.133 3.77655
753 1 -1.1104 1.24097 22.3084 1.03137
754 1 -1.1104 1.20756 27.9073 0.962822
755 2 2.2208 5.30441 26.3486 2.36098
756 1 -1.1104 0.987142 22.2772 3.77977
757 1 -1.1104 1.19648 27.8243 3.8142
758 1 -1.1104 3.89411 24.9255 1.06766
759 2 2.2208 2.41807 23.6502 2.4044
760 2 2.2208 2.55194 29.3154 2.3862
761 1 -1.1104 3.89636 25.2025 3.8657
762 2 2.2208 2.59031 26.452 5.28325
763 1 -1.1104 3.97074 22.1692 0.980478
764 1 -1.1104 3.87691 27.7444 1.01436
765 1 -1.1104 3.86078 22.3738 3.61372
766 1 -1.1104 3.96768 28.0611 3.78883
770 1 -1.1104 6.64794 25.1949 0.990574
772 1 -1.1104 6.79182 22.3144 1.07592
774 1 -1.1104 6.78918 22.4049 3.85931
892 1 -1.1104 1.14796 22.2223 6.64974
893 1 -1.1104 1.14017 27.9856 6.57941
897 1 -1.1104 3.88262 22.3245 6.66182
898 1 -1.1104 3.99917 27.7499 6.55863
771 1 -1.1104 6.67947 25.1154 3.87683
775 1 -1.1104 6.66145 27.79 3.83013
891 1 -1.1104 6.81692 25.0778 6.61914
773 1 -1.1104 6.6487 28.0101 0.932992
9901 2 2.2208 -0.338586 34.9073 5.17721
890 1 -1.1104 1.13213 25.0973 6.55938
776 2 2.2208 10.9267 23.5863 5.31663
777 2 2.2208 10.9467 29.2788 5.15289
778 1 -1.1104 12.3883 24.949 0.842407
779 1 -1.1104 12.2128 25.1127 3.81322
780 1 -1.1104 12.4553 22.0833 1.076
781 1 -1.1104 12.4418 27.7601 1.04777
782 2 2.2208 10.9987 26.4184 2.48414
783 1 -1.1104 12.4827 22.3675 3.99436
784 1 -1.1104 12.285 27.8964 3.92363
785 1 -1.1104 9.22431 25.1108 1.24439
786 2 2.2208 8.13292 23.746 2.48574
787 2 2.2208 8.12812 29.2309 2.30661
788 1 -1.1104 9.45976 24.9505 4.08484
789 2 2.2208 8.1823 26.4173 5.22562
790 1 -1.1104 9.62695 22.3458 0.904975
791 1 -1.1104 9.49131 27.9871 0.883216
792 1 -1.1104 9.56102 22.2837 3.7395
793 1 -1.1104 9.42288 27.9064 3.79127
895 1 -1.1104 6.90367 28.0158 6.5111
924 1 -1.1104 12.4137 22.2137 6.60348
925 1 -1.1104 12.3937 27.7947 6.59552
923 1 -1.1104 12.3794 24.9966 6.58891
928 1 -1.1104 9.75979 27.8054 6.48854
1052 2 2.2208 10.8924 43.4487 8.00805
894 1 -1.1104 6.71959 22.1879 6.65933
9903 2 2.2208 -0.319773 43.321 2.53059
926 1 -1.1104 9.47831 24.9715 6.81655
1048 2 2.2208 8.02769 40.6496 7.94329
797 2 2.2208 5.23 34.9437 5.15207
798 1 -1.1104 1.17041 30.764 1.16177
799 1 -1.1104 0.986927 36.242 0.953379
801 1 -1.1104 1.09139 30.7606 3.90834
802 1 -1.1104 1.04699 36.4028 3.87106
804 1 -1.1104 0.998555 33.4168 0.867279
805 2 2.2208 5.29522 32.0452 2.33043
806 2 2.2208 5.29266 37.7867 2.3452
807 1 -1.1104 1.0555 33.5669 3.79506
809 1 -1.1104 3.86899 30.5826 0.96908
810 1 -1.1104 3.71919 36.3697 1.11882
811 2 2.2208 2.53302 34.9106 2.38433
812 1 -1.1104 3.88143 30.9051 3.73219
813 1 -1.1104 3.88811 36.3602 3.67472
814 2 2.2208 2.58204 32.0976 5.20841
815 2 2.2208 2.53536 37.7705 5.21448
816 1 -1.1104 3.9909 33.644 0.985065
817 1 -1.1104 3.9108 33.5703 3.78928
823 1 -1.1104 6.75286 33.4323 0.79752
948 1 -1.1104 1.16743 36.2699 6.65091
951 1 -1.1104 1.30529 33.5084 6.65258
808 1 -1.1104 6.75351 33.514 3.77596
954 1 -1.1104 3.9476 36.3339 6.61874
800 1 -1.1104 6.68113 36.4612 0.850794
953 1 -1.1104 4.18505 30.5437 6.6786
9900 2 2.2208 -0.212545 32.1156 2.46365
818 2 2.2208 11.0769 40.4982 10.8336
1057 2 2.2208 -0.208203 23.6601 10.9304
1630 1 -1.1104 6.45837 47.3692 9.14383
822 1 -1.1104 6.67594 30.5875 3.62704
803 1 -1.1104 6.70536 36.2723 3.68995
821 1 -1.1104 6.57105 30.7427 0.656593
952 1 -1.1104 6.83887 33.5019 6.42727
824 2 2.2208 10.8916 34.8434 5.28487
825 1 -1.1104 12.3738 30.7541 1.09559
826 1 -1.1104 12.3123 36.3195 0.902439
827 1 -1.1104 12.4267 30.741 3.88239
828 1 -1.1104 12.2605 36.4439 3.72911
829 1 -1.1104 12.097 33.4741 0.935087
830 2 2.2208 11.0106 32.1185 2.35445
831 2 2.2208 10.8337 37.7649 2.35452
832 1 -1.1104 12.327 33.5616 3.7406
833 1 -1.1104 9.53957 30.6234 0.950097
834 1 -1.1104 9.55592 36.2353 1.07198
835 2 2.2208 8.08184 34.8601 2.46735
836 1 -1.1104 9.45325 30.7632 3.70323
837 1 -1.1104 9.45052 36.1807 3.89767