ITEM: TIMESTEP
60000
ITEM: NUMBER OF ATOMS
17670
ITEM: BOX BOUNDS pp pp pp
-3.5378214981649658e-01 2.7693782149816268e+01
-4.2983107585286389e+00 3.3237831075851085e+02
-3.4885831012864726e-01 2.7688858310128531e+01
ITEM: ATOMS id type q x y z
1 2 2.2208 5.19161 1.30421 5.13637
2 1 -1.1104 0.864697 -2.85113 1.16366
3 1 -1.1104 0.912045 2.72715 1.12317
6 1 -1.1104 0.962324 -2.65519 3.92035
7 1 -1.1104 0.822005 2.98619 3.96689
10 1 -1.1104 0.958579 -0.018517 1.07883
12 2 2.2208 5.24669 -1.3093 2.43592
14 1 -1.1104 1.03799 0.0938434 3.92996
16 1 -1.1104 3.64857 -2.7717 1.01236
17 1 -1.1104 3.87156 2.77169 1.15459
18 2 2.2208 2.40007 1.37721 2.46997
19 1 -1.1104 3.88065 -2.72138 3.8963
20 1 -1.1104 3.74656 2.67589 3.91453
21 2 2.2208 2.44914 -1.39196 5.21751
22 2 2.2208 2.24784 4.28517 5.19455
23 1 -1.1104 3.74329 0.1253 1.12866
24 1 -1.1104 3.85002 0.0497284 3.73323
13 2 2.2208 5.07052 4.11637 2.43106
53 2 2.2208 13.6107 -4.07736 2.36353
9 1 -1.1104 6.51362 2.62563 3.74253
52 2 2.2208 10.7321 -4.10466 5.15979
202 2 2.2208 2.323 -4.28162 8.10762
8 1 -1.1104 6.49845 -2.74529 3.70336
289 1 -1.1104 6.72466 16.9654 9.43396
28 2 2.2208 2.38156 -4.22871 2.60864
174 1 -1.1104 3.85104 -0.0687914 6.47864
170 1 -1.1104 1.01041 0.0634386 6.56648
167 1 -1.1104 0.755399 2.90475 6.67324
171 1 -1.1104 6.71448 -0.0887197 6.67983
15 1 -1.1104 6.6624 -0.0818337 3.73343
4 1 -1.1104 6.68728 -2.59693 1.15848
5 1 -1.1104 6.66824 2.88988 1.06975
11 1 -1.1104 6.59371 0.0523123 0.822924
31 2 2.2208 10.8573 1.28582 5.38789
32 1 -1.1104 12.2163 -2.72097 0.988113
33 1 -1.1104 12.0869 2.93539 1.07894
34 1 -1.1104 12.0685 -2.7517 3.81723
35 1 -1.1104 12.2414 2.80583 4.01906
36 1 -1.1104 12.2716 0.0847297 1.0621
37 2 2.2208 10.9142 -1.34039 2.44695
38 2 2.2208 10.7619 4.24581 2.37201
39 1 -1.1104 12.1526 -0.0141063 3.82755
40 1 -1.1104 9.43331 -2.82025 1.0959
41 1 -1.1104 9.33009 2.7454 0.973473
42 2 2.2208 8.01552 1.44948 2.41169
43 1 -1.1104 9.22226 -2.82818 3.81092
44 1 -1.1104 9.46815 2.7903 3.85188
45 2 2.2208 8.08242 -1.33195 5.12156
46 2 2.2208 7.99371 4.13272 5.2031
47 1 -1.1104 9.43547 -0.0968462 1.02611
48 1 -1.1104 9.49884 0.0554307 3.77402
51 2 2.2208 7.96273 -4.12521 2.46847
83 2 2.2208 -0.107338 12.5546 5.19601
396 2 2.2208 5.33434 18.2602 -0.352494
233 2 2.2208 13.4998 -4.18082 7.89962
317 2 2.2208 8.16865 15.495 10.8366
169 1 -1.1104 6.58396 2.72896 6.63794
207 1 -1.1104 12.421 -0.0647703 6.75324
205 1 -1.1104 12.1827 -2.77861 6.54811
206 1 -1.1104 12.1226 2.71013 6.71877
210 1 -1.1104 9.53557 0.0131758 6.83719
338 2 2.2208 13.6496 4.25567 10.8211
326 1 -1.1104 12.2847 16.8689 12.1712
54 2 2.2208 5.35603 6.96724 5.2684
55 2 2.2208 5.30823 12.5507 5.43032
56 1 -1.1104 0.99533 8.27934 1.12756
58 1 -1.1104 0.887423 8.42599 3.864
60 1 -1.1104 0.904829 5.44658 1.06109
61 1 -1.1104 1.01582 11.1369 0.927244
66 2 2.2208 5.13472 9.87331 2.46999
67 1 -1.1104 0.958159 5.6724 3.78597
68 1 -1.1104 1.23277 11.2255 3.82067
71 1 -1.1104 3.69438 8.38145 1.16412
72 2 2.2208 2.47127 7.03955 2.51999
73 2 2.2208 2.55699 12.6451 2.30122
74 1 -1.1104 3.7931 8.36809 3.97124
75 2 2.2208 2.37146 9.71718 5.39117
76 1 -1.1104 3.62821 5.58731 0.944147
77 1 -1.1104 3.69442 11.138 1.0461
79 1 -1.1104 3.87418 5.52508 3.74758
80 1 -1.1104 3.78924 11.2842 3.93067
69 1 -1.1104 6.6005 5.40232 3.97935
70 1 -1.1104 6.69724 11.201 3.93566
63 1 -1.1104 6.50445 5.66718 1.1889
57 1 -1.1104 6.52955 8.47953 0.991137
379 2 2.2208 2.37021 4.05412 -0.375981
50 2 2.2208 13.6078 -1.46788 5.21753
333 2 2.2208 13.5723 15.4316 10.9513
64 1 -1.1104 6.76688 11.203 1.15472
59 1 -1.1104 6.63937 8.36768 3.77321
84 2 2.2208 10.7871 6.95997 5.19444
85 2 2.2208 10.9781 12.5581 5.32845
86 1 -1.1104 12.0823 8.3106 0.967962
87 1 -1.1104 12.1255 8.42629 3.91786
88 1 -1.1104 12.0997 5.57558 1.03261
89 1 -1.1104 12.2794 11.0742 1.02691
91 2 2.2208 10.7807 9.83013 2.49915
92 1 -1.1104 12.1864 5.64937 3.84808
93 1 -1.1104 12.2593 11.2729 3.8071
94 1 -1.1104 9.40132 8.43241 0.981146
95 2 2.2208 8.04052 6.9901 2.51178
96 2 2.2208 8.13733 12.6541 2.50141
97 1 -1.1104 9.33326 8.56678 3.92051
98 2 2.2208 8.00068 9.79856 5.1715
99 1 -1.1104 9.39563 5.55939 0.915379
100 1 -1.1104 9.51548 11.187 1.03153
102 1 -1.1104 9.43332 5.56622 3.76101
103 1 -1.1104 9.43427 11.2772 3.87199
266 1 -1.1104 12.3241 5.5894 6.65866
265 1 -1.1104 12.1991 8.34779 6.74466
364 2 2.2208 5.42678 21.1361 13.5362
320 2 2.2208 8.16949 18.1719 7.98551
101 1 -1.1104 9.63877 11.1011 6.65908
145 1 -1.1104 12.2873 19.6997 6.64715
29 2 2.2208 5.23223 -4.0795 5.23299
339 2 2.2208 13.6973 7.01157 8.12148
106 2 2.2208 5.28861 18.3109 5.26163
107 1 -1.1104 1.2125 13.9775 0.991623
109 1 -1.1104 1.18813 19.7542 1.21511
113 1 -1.1104 1.2237 13.946 3.75539
114 1 -1.1104 1.07051 19.5741 3.95715
116 1 -1.1104 1.24823 16.866 1.0462
119 2 2.2208 5.33263 15.3961 2.49823
120 2 2.2208 5.43283 20.8306 2.43751
121 1 -1.1104 1.01234 16.7762 3.79573
123 1 -1.1104 3.7853 13.9671 0.916886
125 1 -1.1104 3.87979 19.6834 0.921466
127 2 2.2208 2.59598 18.2014 2.35314
128 1 -1.1104 4.04708 13.9728 3.96962
129 1 -1.1104 3.93445 19.6192 3.90192
130 2 2.2208 2.52574 15.4207 5.26455
131 2 2.2208 2.51167 21.0417 5.23196
132 1 -1.1104 4.0475 16.9261 0.919429
134 1 -1.1104 3.91942 16.7811 3.76241
138 1 -1.1104 6.81338 19.4577 1.11889
124 1 -1.1104 3.84917 13.9615 6.66744
302 1 -1.1104 1.01596 19.7197 6.57528
133 1 -1.1104 3.9281 16.834 6.59079
117 1 -1.1104 1.14749 16.8567 6.66867
108 1 -1.1104 1.23018 14.2559 6.86968
111 1 -1.1104 6.58926 13.9083 6.71097
112 1 -1.1104 6.6699 19.6749 6.65265
395 2 2.2208 2.514 21.1465 -0.380843
203 2 2.2208 5.2158 -4.17572 10.9606
231 2 2.2208 7.87056 -4.25891 8.04822
154 1 -1.1104 9.52994 13.9049 6.65691
110 1 -1.1104 6.55613 14.0041 1.01439
115 1 -1.1104 6.74428 13.9508 3.86703
122 1 -1.1104 6.64805 16.7994 3.93313
139 1 -1.1104 6.82394 19.4126 3.94868
140 1 -1.1104 6.75651 16.7372 1.03189
141 2 2.2208 10.8907 18.2027 5.20497
142 1 -1.1104 12.169 13.8334 1.15194
144 1 -1.1104 12.4128 19.6296 0.965139
146 1 -1.1104 12.208 13.9593 3.92227
147 1 -1.1104 12.249 19.5177 3.77083
148 1 -1.1104 12.3307 16.7051 1.07398
150 2 2.2208 10.862 15.42 2.50146
151 2 2.2208 10.9869 20.9223 2.45039
152 1 -1.1104 12.1686 16.7118 3.8913
153 1 -1.1104 9.51917 13.9598 1.07974
155 1 -1.1104 9.50332 19.5748 1.17229
157 2 2.2208 8.12877 18.0309 2.4754
158 1 -1.1104 9.43725 14.0305 3.88078
159 1 -1.1104 9.52832 19.4653 3.96303
160 2 2.2208 8.04911 15.3169 5.36511
161 2 2.2208 8.19955 20.9744 5.23401
162 1 -1.1104 9.50788 16.7301 1.0522
164 1 -1.1104 9.51478 16.7534 3.87588
318 1 -1.1104 9.68081 19.6001 9.41449
118 1 -1.1104 6.57592 16.7672 6.65964
163 1 -1.1104 9.45908 16.5803 6.78427
143 1 -1.1104 12.3824 13.925 6.6308
345 2 2.2208 13.6137 21.0183 10.6836
315 1 -1.1104 9.54561 16.8693 12.2538
290 1 -1.1104 6.84822 14.095 9.48987
313 2 2.2208 -0.314252 15.5532 8.02091
230 2 2.2208 13.572 -1.30686 10.8389
173 1 -1.1104 3.6551 2.77818 6.78451
172 1 -1.1104 3.84414 -2.84921 6.62454
166 1 -1.1104 1.107 -2.83163 6.62842
175 2 2.2208 5.17337 1.54086 10.8805
176 1 -1.1104 0.954282 -2.827 12.3715
177 1 -1.1104 0.875196 2.72139 12.2336
180 1 -1.1104 0.973264 -2.83759 9.48253
181 1 -1.1104 0.848315 2.76359 9.44803
184 1 -1.1104 0.934138 -0.0945002 12.15
186 2 2.2208 5.21952 -1.43377 8.10574
188 1 -1.1104 0.890575 -0.101098 9.31751
190 1 -1.1104 3.70567 -2.76098 12.1445
191 1 -1.1104 3.67578 2.90249 12.2981
192 2 2.2208 2.40551 1.38818 8.01743
193 1 -1.1104 3.80412 -2.74932 9.49402
194 1 -1.1104 3.71023 2.80816 9.54098
195 2 2.2208 2.44024 -1.32102 10.7459
196 2 2.2208 2.39428 4.28009 10.8032
197 1 -1.1104 3.67752 0.0437642 12.2882
198 1 -1.1104 3.73847 0.0511882 9.36525
187 2 2.2208 5.12232 4.19675 8.02485
168 1 -1.1104 6.74587 -2.86689 6.62869
189 1 -1.1104 6.49432 -0.101541 9.53639
312 2 2.2208 -0.366832 18.2511 10.8385
323 1 -1.1104 12.3325 16.6197 9.34761
49 2 2.2208 13.612 1.56104 2.48281
322 1 -1.1104 9.35758 14.039 12.2771
232 2 2.2208 10.7591 -4.26377 10.9271
178 1 -1.1104 6.50706 -2.72908 12.2454
208 1 -1.1104 9.51675 -2.73212 6.64957
209 1 -1.1104 9.39297 2.75731 6.5915
182 1 -1.1104 6.64508 -2.91923 9.55033
183 1 -1.1104 6.48467 2.8175 9.48367
179 1 -1.1104 6.56272 2.95981 12.2634
185 1 -1.1104 6.5457 0.15433 12.3301
211 2 2.2208 10.7525 1.45106 10.8078
212 1 -1.1104 12.1076 -2.60255 12.0653
213 1 -1.1104 12.2729 2.84251 12.1615
214 1 -1.1104 12.132 -2.82608 9.37816
215 1 -1.1104 12.222 2.83764 9.45167
216 1 -1.1104 12.0308 0.142073 12.1788
217 2 2.2208 10.7103 -1.41482 8.13016
218 2 2.2208 10.8144 4.09845 8.03926
219 1 -1.1104 12.1423 0.0201095 9.37225
220 1 -1.1104 9.39708 -3.01763 12.422
221 1 -1.1104 9.28481 2.84941 12.3119
222 2 2.2208 8.0208 1.41663 8.08124
223 1 -1.1104 9.37884 -2.84975 9.54755
224 1 -1.1104 9.28338 2.78879 9.53237
225 2 2.2208 7.97239 -1.41227 10.9826
227 1 -1.1104 9.29025 0.017763 12.2805
228 1 -1.1104 9.33136 0.0661069 9.50144
226 2 2.2208 7.95415 4.29779 10.8843
319 1 -1.1104 9.61167 14.1685 9.39558
329 1 -1.1104 12.2816 19.676 12.2117
328 1 -1.1104 12.2204 13.911 9.52618
316 2 2.2208 8.12969 21.035 10.7663
236 1 -1.1104 0.947751 5.59047 6.89199
62 1 -1.1104 0.990039 11.1743 6.61424
135 2 2.2208 -0.233563 15.3665 2.26431
239 1 -1.1104 3.69329 5.39593 6.57091
234 1 -1.1104 1.04873 8.25374 6.66388
78 1 -1.1104 3.74318 11.1128 6.54748
238 1 -1.1104 4.09149 8.12919 6.78145
240 2 2.2208 5.31264 6.92547 10.8587
241 2 2.2208 5.31093 12.6724 10.8023
242 1 -1.1104 0.928524 8.40307 12.389
244 1 -1.1104 1.01689 8.52916 9.45638
246 1 -1.1104 0.956836 5.59683 12.2925
247 1 -1.1104 1.07274 11.2619 12.2849
250 2 2.2208 5.29931 9.7867 8.09414
251 1 -1.1104 1.00417 5.75301 9.58875
252 1 -1.1104 1.01834 11.3078 9.42294
255 1 -1.1104 3.76152 8.58868 12.2431
256 2 2.2208 2.52 6.91468 8.12135
257 2 2.2208 2.48992 12.6736 8.12735
258 1 -1.1104 3.84139 8.50936 9.50115
259 2 2.2208 2.38229 9.91884 10.8178
260 1 -1.1104 3.8324 5.67674 12.2163
261 1 -1.1104 3.95936 11.2286 12.1787
262 1 -1.1104 3.85079 5.54031 9.4964
263 1 -1.1104 3.79095 11.1991 9.34551
254 1 -1.1104 6.685 11.1308 9.41399
243 1 -1.1104 6.59256 8.46355 12.2557
325 2 2.2208 10.9961 15.3085 7.9343
149 1 -1.1104 12.387 16.7731 6.58578
235 1 -1.1104 6.75225 8.43357 6.5393
248 1 -1.1104 6.55914 5.60868 12.2467
237 1 -1.1104 6.6273 5.56878 6.82229
65 1 -1.1104 6.80553 11.2738 6.65282
267 1 -1.1104 9.51918 8.27565 6.62935
245 1 -1.1104 6.75499 8.3687 9.48414
253 1 -1.1104 6.66861 5.71504 9.44137
90 1 -1.1104 12.5479 11.2329 6.69276
269 1 -1.1104 9.24452 5.52991 6.58338
249 1 -1.1104 6.72783 11.1526 12.2541
264 1 -1.1104 9.61783 11.2817 9.46571
268 1 -1.1104 9.43701 5.67847 9.50009
270 1 -1.1104 9.47402 11.2021 12.3191
271 1 -1.1104 9.2817 5.66312 12.3248
272 2 2.2208 8.0483 9.83915 10.8487
273 1 -1.1104 9.46792 8.55517 9.53486
274 2 2.2208 8.24417 12.608 7.98756
275 2 2.2208 8.09427 6.97983 8.10852
276 2 2.2208 10.7164 7.12119 10.7766
277 2 2.2208 10.8691 12.619 10.8611
278 1 -1.1104 12.3584 8.34475 12.1687
279 1 -1.1104 12.3218 8.38929 9.56603
280 1 -1.1104 12.0432 5.60106 12.2906
281 1 -1.1104 12.3148 11.2532 12.2541
282 2 2.2208 10.9919 9.87755 8.07661
283 1 -1.1104 12.1602 5.60067 9.44397
284 1 -1.1104 12.4254 11.0615 9.53016
285 1 -1.1104 9.44226 8.48374 12.2102
314 1 -1.1104 9.49665 16.9024 9.49171
324 2 2.2208 10.9585 21.0626 7.95298
321 1 -1.1104 9.45724 19.6096 12.1567
156 1 -1.1104 9.4492 19.6214 6.65501
296 1 -1.1104 6.57937 19.7067 12.0906
126 1 -1.1104 3.90104 19.804 6.63484
291 1 -1.1104 1.03739 19.5695 9.43373
310 2 2.2208 2.6514 15.4221 10.9358
309 2 2.2208 2.34667 20.9862 10.8736
308 1 -1.1104 4.03775 16.8245 12.2421
307 1 -1.1104 1.27797 16.6692 12.4133
305 1 -1.1104 3.9213 14.1366 9.43592
292 1 -1.1104 1.14007 16.8474 9.56067
287 1 -1.1104 4.01765 13.9959 12.2937
304 1 -1.1104 3.94514 16.8065 9.54736
303 2 2.2208 2.47549 18.335 8.01587
286 1 -1.1104 3.89497 19.8541 12.1976
301 1 -1.1104 3.77739 19.7662 9.4829
300 2 2.2208 5.22908 18.317 10.7768
293 2 2.2208 5.25645 21.1687 8.0207
299 1 -1.1104 1.22907 13.9202 12.1948
298 1 -1.1104 1.00981 19.4344 12.2149
295 2 2.2208 5.36254 15.4645 7.99526
294 1 -1.1104 1.02285 14.0223 9.53792
288 1 -1.1104 6.79875 19.7133 9.42877
297 1 -1.1104 6.67592 14.0785 12.1032
306 1 -1.1104 6.79227 16.7764 12.2245
327 1 -1.1104 12.292 19.6808 9.47625
330 1 -1.1104 12.1891 14.086 12.324
311 2 2.2208 -0.358612 21.0479 7.99233
331 2 2.2208 10.8498 18.1805 10.8662
343 2 2.2208 -0.28543 9.82248 8.12942
386 2 2.2208 5.22421 7.02974 -0.319024
137 2 2.2208 -0.37456 18.1649 5.30554
82 2 2.2208 -0.271615 9.86242 2.44807
334 2 2.2208 13.5509 4.15594 5.19498
335 2 2.2208 13.645 9.73901 5.29732
105 2 2.2208 13.4628 7.04473 2.39502
387 2 2.2208 2.35893 9.65115 -0.360184
229 2 2.2208 13.5699 1.34655 8.12661
365 2 2.2208 5.29402 15.3178 13.6324
360 2 2.2208 10.8228 9.85499 13.6596
359 2 2.2208 8.00238 7.03734 13.5887
357 2 2.2208 2.57035 12.5439 13.6157
352 2 2.2208 7.98234 1.37064 13.675
631 2 2.2208 5.12335 -4.0633 -0.278743
438 2 2.2208 2.24304 -4.27465 13.6268
385 2 2.2208 13.5522 4.2557 -0.405511
351 2 2.2208 -0.307995 15.3392 13.5957
355 2 2.2208 2.43015 6.98142 13.6718
9257 2 2.2208 13.4898 1.50155 13.5567
372 2 2.2208 13.6311 15.2791 -0.263177
382 2 2.2208 8.08567 -1.43184 -0.333128
660 2 2.2208 10.7433 -4.17394 -0.360468
371 2 2.2208 13.5992 18.213 13.6316
377 2 2.2208 8.21844 20.9083 -0.307264
393 2 2.2208 10.9031 12.5315 -0.279515
362 2 2.2208 13.6772 12.5145 13.6371
370 2 2.2208 7.97254 18.3458 13.6046
347 2 2.2208 5.16877 -1.4147 13.637
354 2 2.2208 10.8526 4.17711 13.5594
369 2 2.2208 10.7581 15.394 13.5878
378 2 2.2208 2.29712 -1.48817 -0.293834
376 2 2.2208 10.9556 18.2431 -0.308445
399 2 2.2208 5.2356 1.33291 16.4544
400 1 -1.1104 1.02387 -2.80699 17.9621
401 1 -1.1104 1.02474 2.76836 17.7438
404 1 -1.1104 1.00176 -2.88248 15.1258
406 1 -1.1104 0.936251 2.75497 15.0879
412 1 -1.1104 0.922741 -0.149658 17.9113
414 2 2.2208 5.27668 -1.30909 19.2962
415 2 2.2208 5.32314 4.24421 19.247
416 1 -1.1104 1.01226 -0.0129139 14.9165
420 1 -1.1104 3.7558 -2.75827 17.8961
421 1 -1.1104 3.75338 2.81622 17.9938
422 2 2.2208 2.37474 1.37452 19.1889
423 1 -1.1104 3.7204 -2.91009 14.9737
425 1 -1.1104 3.82081 2.76732 15.11
427 2 2.2208 2.31673 -1.53612 16.409
429 1 -1.1104 3.6973 -0.0246245 17.7759
430 1 -1.1104 3.74814 -0.132862 15.072
428 2 2.2208 2.49786 4.19973 16.4215
431 1 -1.1104 3.75648 -0.0478591 20.513
419 1 -1.1104 6.44316 0.0815524 20.6569
410 1 -1.1104 6.75799 2.76369 14.9772
418 1 -1.1104 6.6831 -0.0307381 15.1108
402 1 -1.1104 6.49707 -2.68397 18.0638
413 1 -1.1104 6.62481 -0.0293364 17.8588
632 2 2.2208 4.99296 -4.23506 22.0272
662 2 2.2208 8.08304 -4.19458 24.7844
598 2 2.2208 13.7032 1.36105 19.2966
417 1 -1.1104 0.94499 0.0397986 20.6323
426 1 -1.1104 3.89858 2.76203 20.7232
433 2 2.2208 5.07482 -4.13823 16.5044
434 2 2.2208 2.34507 -4.13168 19.2575
403 1 -1.1104 6.47485 2.75766 17.7494
468 2 2.2208 7.90418 -4.06461 19.3726
408 1 -1.1104 6.53028 -2.70405 15.1403
442 2 2.2208 10.8688 1.38369 16.4043
443 1 -1.1104 12.1838 -2.78393 17.7474
444 1 -1.1104 12.2425 2.76879 17.85
445 1 -1.1104 12.1376 -2.77966 14.9785
447 1 -1.1104 12.2846 2.79902 15.0021
449 1 -1.1104 12.2894 -0.0347683 17.8882
450 2 2.2208 10.817 -1.48384 19.2205
451 2 2.2208 10.8656 4.23619 19.0941
452 1 -1.1104 12.2121 0.0583194 14.9997
454 1 -1.1104 9.37457 -2.84635 17.7699
455 1 -1.1104 9.32112 2.7915 17.6952
456 2 2.2208 8.08117 1.42376 19.2297
457 1 -1.1104 9.33216 -2.83908 15.113
459 1 -1.1104 9.52288 2.85592 14.9116
461 2 2.2208 8.01543 -1.43069 16.4781
462 2 2.2208 8.02347 4.25784 16.3152
463 1 -1.1104 9.31974 -0.0737917 17.9289
464 1 -1.1104 9.44163 0.04125 15.1064
446 1 -1.1104 12.2218 -2.94601 20.5546
453 1 -1.1104 12.2202 0.0955736 20.5464
719 2 2.2208 13.6519 12.6623 24.8473
409 1 -1.1104 6.59113 -2.7185 20.823
659 2 2.2208 13.5736 -4.18883 24.8617
661 2 2.2208 10.8529 -4.24261 22.0387
475 2 2.2208 5.23125 7.01113 16.4124
476 2 2.2208 5.23857 12.5682 16.4063
477 1 -1.1104 1.10224 8.46827 17.9077
479 1 -1.1104 1.03429 8.32555 15.12
483 1 -1.1104 1.1164 5.49321 17.8781
484 1 -1.1104 1.114 11.1895 17.9026
487 2 2.2208 5.2508 9.80625 19.297
488 1 -1.1104 0.876432 5.61032 15.0519
490 1 -1.1104 1.1106 11.2396 14.9971
496 1 -1.1104 3.84234 8.43473 17.8965
497 2 2.2208 2.44505 6.99355 19.279
498 2 2.2208 2.57078 12.5126 19.3353
499 1 -1.1104 3.80366 8.25593 15.0001
501 2 2.2208 2.38972 9.74539 16.4992
502 1 -1.1104 3.90671 5.74047 17.9326
503 1 -1.1104 3.9564 11.2583 17.9023
504 1 -1.1104 3.65883 5.5676 15.0626
506 1 -1.1104 3.82594 10.997 15.1739
492 1 -1.1104 6.44206 5.5728 15.0194
494 1 -1.1104 6.51106 11.2504 15.1219
486 1 -1.1104 6.58092 11.1119 17.7362
469 2 2.2208 7.96682 -4.16555 13.7584
664 2 2.2208 13.4881 -1.34523 22.0032
507 1 -1.1104 4.01336 11.0376 20.837
505 1 -1.1104 3.90754 5.55143 20.6749
695 2 2.2208 -0.362641 9.91848 24.9294
633 2 2.2208 2.33449 -4.17792 24.9084
356 2 2.2208 5.21834 9.78155 13.6109
440 2 2.2208 13.6372 4.18492 22.0282
485 1 -1.1104 6.69475 5.58819 18.0009
481 1 -1.1104 6.72901 8.33599 15.0572
478 1 -1.1104 6.62621 8.37979 17.8399
511 2 2.2208 10.8923 6.96468 16.3759
512 2 2.2208 10.7914 12.4851 16.4674
513 1 -1.1104 12.1568 8.40876 17.7832
514 1 -1.1104 12.2343 8.34974 14.9696
516 1 -1.1104 12.1109 5.58107 17.744
517 1 -1.1104 12.1599 11.0408 17.7629
518 2 2.2208 10.8106 9.77308 19.2362
519 1 -1.1104 12.194 5.46774 15.0733
521 1 -1.1104 12.163 11.1305 15.0496
523 1 -1.1104 9.40374 8.56127 17.7045
524 2 2.2208 8.02886 7.07026 19.19
525 2 2.2208 8.11543 12.5997 19.3029
526 1 -1.1104 9.5515 8.58285 14.9907
528 2 2.2208 8.06124 9.90313 16.4072
529 1 -1.1104 9.37899 5.66337 17.9895
530 1 -1.1104 9.38117 11.2184 17.8765
531 1 -1.1104 9.29217 5.7447 15.0501
533 1 -1.1104 9.39512 11.2033 15.0371
495 1 -1.1104 6.58271 11.081 20.6903
527 1 -1.1104 9.4288 8.37961 20.6156
353 2 2.2208 10.7344 -1.34836 13.7368
534 1 -1.1104 9.47241 11.2845 20.6961
538 2 2.2208 5.36094 18.1898 16.4481
539 1 -1.1104 1.15134 14.0067 17.9261
540 1 -1.1104 1.17827 19.5541 17.8658
543 1 -1.1104 1.2239 13.9903 15.0001
545 1 -1.1104 1.04289 19.6061 15.0669
551 1 -1.1104 1.12533 16.8444 17.8277
553 2 2.2208 5.31687 15.41 19.2439
554 2 2.2208 5.32984 20.8892 19.0969
555 1 -1.1104 1.13437 16.7258 15.1732
559 1 -1.1104 3.84368 14.0219 17.9028
560 1 -1.1104 3.97123 19.4731 17.7738
561 2 2.2208 2.45194 18.2596 19.3122
562 1 -1.1104 3.83666 13.9277 15.0376
564 1 -1.1104 3.87143 19.5665 14.9382
566 2 2.2208 2.45081 15.4106 16.4953
567 2 2.2208 2.57909 20.9558 16.3515
568 1 -1.1104 3.78383 16.745 17.9088
569 1 -1.1104 3.91542 16.7756 15.1979
549 1 -1.1104 6.71172 19.7613 15.0623
546 1 -1.1104 1.20876 19.5965 20.7224
570 1 -1.1104 3.95093 16.7165 20.699
544 1 -1.1104 1.2828 13.9296 20.6415
732 1 -1.1104 6.78232 13.8828 23.6045
441 2 2.2208 -0.326971 17.9887 16.4813
573 2 2.2208 -0.306631 4.19604 19.2112
473 2 2.2208 -0.123455 20.8326 19.2011
578 1 -1.1104 12.3935 13.9592 20.5573
541 1 -1.1104 6.76166 14.0567 18.0132
552 1 -1.1104 6.69382 16.8765 17.8445
542 1 -1.1104 6.72676 19.6699 17.7901
557 1 -1.1104 6.6344 16.796 15.0335
547 1 -1.1104 6.78 14.0243 15
574 2 2.2208 10.7851 18.1187 16.4064
575 1 -1.1104 12.2114 13.9926 17.8692
576 1 -1.1104 12.3338 19.3348 17.9158
577 1 -1.1104 12.2559 13.9481 15.1438
579 1 -1.1104 12.3716 19.5999 15.0429
581 1 -1.1104 12.0585 16.6736 17.9103
582 2 2.2208 10.8059 15.4263 19.2485
583 2 2.2208 10.873 20.9077 19.2727
584 1 -1.1104 12.4003 16.6942 15.0357
586 1 -1.1104 9.37959 14.0709 17.7792
587 1 -1.1104 9.51985 19.6791 17.9229
588 2 2.2208 8.02758 18.1635 19.3733
589 1 -1.1104 9.44482 14.1077 15.0108
591 1 -1.1104 9.52731 19.6599 15.1014
593 2 2.2208 8.01703 15.4639 16.4813
594 2 2.2208 8.17616 21.1573 16.478
595 1 -1.1104 9.44867 16.8871 17.909
596 1 -1.1104 9.37547 16.8226 14.9882
558 1 -1.1104 6.81898 16.6414 20.6869
548 1 -1.1104 6.79028 13.9412 20.6927
580 1 -1.1104 12.2946 19.5517 20.6893
585 1 -1.1104 12.1695 16.7907 20.7692
597 1 -1.1104 9.50847 16.7647 20.7747
592 1 -1.1104 9.44164 19.6283 20.7535
550 1 -1.1104 6.66319 19.6406 20.6063
745 1 -1.1104 9.55367 16.7328 26.2781
384 2 2.2208 13.5896 -1.44581 27.6954
536 2 2.2208 -0.225341 12.5336 16.4179
424 1 -1.1104 3.74814 -2.89752 20.7165
747 2 2.2208 -0.287227 21.0128 24.8287
666 1 -1.1104 12.4487 16.9013 26.3717
470 2 2.2208 13.5538 -1.4633 16.5225
405 1 -1.1104 0.925346 -2.79141 20.7668
407 1 -1.1104 1.04766 2.72587 20.6172
602 2 2.2208 5.10948 1.47048 22.0251
603 1 -1.1104 0.913369 -2.6671 23.5898
604 1 -1.1104 0.999709 2.75113 23.3925
607 1 -1.1104 0.953453 -2.8105 26.2222
608 1 -1.1104 0.826376 2.59745 26.2783
611 1 -1.1104 0.846816 0.0392538 23.5117
613 2 2.2208 5.14173 -1.35406 24.9306
615 1 -1.1104 0.97926 -0.146893 26.3056
617 1 -1.1104 3.727 -2.83525 23.525
618 1 -1.1104 3.82067 2.69493 23.5137
619 2 2.2208 2.35478 1.33651 24.9353
620 1 -1.1104 3.69455 -2.91237 26.4404
621 1 -1.1104 3.69149 2.67382 26.323
622 2 2.2208 2.36472 -1.33108 22.0037
623 2 2.2208 2.43989 4.12329 22.0665
624 1 -1.1104 3.74255 -0.000332904 23.4697
625 1 -1.1104 3.79473 -0.117931 26.2503
614 2 2.2208 5.09189 4.22498 24.9243
609 1 -1.1104 6.65422 -2.81505 26.2525
616 1 -1.1104 6.66199 -0.011845 26.1248
716 1 -1.1104 9.5215 19.4752 26.2684
472 2 2.2208 -0.21967 15.2565 19.2187
535 2 2.2208 -0.327196 9.82018 19.3811
718 2 2.2208 7.91355 20.9793 22.1203
663 2 2.2208 10.8511 20.9047 24.8269
590 1 -1.1104 9.60622 13.9016 20.4995
610 1 -1.1104 6.54624 2.77564 26.2661
605 1 -1.1104 6.57708 -2.80692 23.5442
458 1 -1.1104 9.49897 -2.87635 20.6428
448 1 -1.1104 12.2613 2.87291 20.717
411 1 -1.1104 6.70211 2.84562 20.5637
465 1 -1.1104 9.31283 0.0658244 20.6339
460 1 -1.1104 9.48035 2.7032 20.4905
612 1 -1.1104 6.5686 0.0750208 23.2975
606 1 -1.1104 6.53466 2.85243 23.3961
638 2 2.2208 10.8808 1.42184 22.0042
639 1 -1.1104 12.1582 -2.70926 23.4492
640 1 -1.1104 12.1701 2.87013 23.6179
641 1 -1.1104 12.2107 -2.91894 26.3088
642 1 -1.1104 12.0128 2.82163 26.3645
643 1 -1.1104 12.2053 0.0775952 23.3414
644 2 2.2208 10.7448 -1.42042 24.8641
645 2 2.2208 10.7222 4.15895 24.9682
646 1 -1.1104 12.2157 0.027274 26.164
647 1 -1.1104 9.28726 -2.74176 23.56
648 1 -1.1104 9.43062 2.80277 23.4069
649 2 2.2208 7.97359 1.51665 24.7571
650 1 -1.1104 9.37948 -2.63319 26.3083
651 1 -1.1104 9.27645 2.88132 26.2914
652 2 2.2208 7.92286 -1.41582 22.0383
653 2 2.2208 8.04865 4.20987 22.0479
654 1 -1.1104 9.29578 0.0405043 23.5597
655 1 -1.1104 9.38091 0.0742933 26.1575
634 1 -1.1104 12.3534 13.9851 26.2654
691 1 -1.1104 9.45949 13.7355 23.5236
489 1 -1.1104 1.13785 5.51749 20.6537
491 1 -1.1104 1.20314 11.1359 20.7624
500 1 -1.1104 3.78752 8.3215 20.7144
480 1 -1.1104 1.10657 8.32776 20.7964
667 2 2.2208 5.13429 6.94768 22.0764
668 2 2.2208 5.3176 12.408 22.1601
669 1 -1.1104 1.00399 8.53539 23.5952
671 1 -1.1104 1.05763 8.33208 26.2907
673 1 -1.1104 0.99952 5.64444 23.6371
674 1 -1.1104 1.01683 11.3094 23.606
677 2 2.2208 5.22338 9.78852 24.8631
678 1 -1.1104 0.926446 5.55255 26.3464
679 1 -1.1104 0.989081 11.1287 26.294
682 1 -1.1104 3.73141 8.22455 23.5779
683 2 2.2208 2.45442 7.02095 25.0443
684 2 2.2208 2.37146 12.5299 24.9089
685 1 -1.1104 3.81147 8.45268 26.2898
686 2 2.2208 2.41669 9.81193 22.1764
687 1 -1.1104 3.76841 5.51877 23.6324
688 1 -1.1104 3.91348 11.0691 23.4876
689 1 -1.1104 3.82042 5.50708 26.3796
690 1 -1.1104 3.59554 11.1411 26.2421
672 1 -1.1104 6.66758 8.38627 26.2553
681 1 -1.1104 6.50876 11.1948 26.3143
725 1 -1.1104 6.81018 16.6819 26.2014
656 1 -1.1104 12.3552 19.6791 26.1485
676 1 -1.1104 6.70915 11.2242 23.5345
493 1 -1.1104 6.67231 5.5661 20.692
670 1 -1.1104 6.50128 8.43037 23.3083
675 1 -1.1104 6.61882 5.60697 23.4381
482 1 -1.1104 6.80332 8.41591 20.6229
680 1 -1.1104 6.55832 5.67851 26.3965
515 1 -1.1104 12.3823 8.40509 20.7217
522 1 -1.1104 12.3547 11.208 20.5638
532 1 -1.1104 9.46561 5.48984 20.7406
520 1 -1.1104 12.2342 5.61204 20.4581
698 1 -1.1104 9.36028 11.1997 26.3001
699 1 -1.1104 9.3896 5.48871 26.2149
700 1 -1.1104 9.45341 11.0292 23.602
701 1 -1.1104 9.35995 5.52694 23.4443
702 2 2.2208 8.06094 9.72454 22.0452
703 1 -1.1104 9.36802 8.26228 26.2105
704 2 2.2208 8.09186 12.4846 24.9279
705 2 2.2208 7.99976 6.93941 24.7949
706 2 2.2208 10.8692 7.01257 22.0036
707 2 2.2208 10.9113 12.5976 21.9879
708 1 -1.1104 12.1579 8.42607 23.4355
709 1 -1.1104 12.1596 8.46163 26.234
710 1 -1.1104 12.1891 5.53313 23.2016
711 1 -1.1104 12.1632 11.1899 23.4537
712 2 2.2208 10.7762 9.84576 24.9104
713 1 -1.1104 12.3171 5.7713 26.2609
714 1 -1.1104 12.2246 11.3275 26.2195
715 1 -1.1104 9.26616 8.48671 23.5476
381 2 2.2208 10.7491 1.44668 27.7069
572 2 2.2208 13.5968 9.72504 16.2962
729 1 -1.1104 6.73727 19.469 23.4447
723 1 -1.1104 6.63283 13.8693 26.4407
740 1 -1.1104 6.72753 16.7895 23.3543
565 1 -1.1104 3.78701 19.5316 20.5971
556 1 -1.1104 1.26284 16.7115 20.6951
563 1 -1.1104 4.11556 13.8721 20.7406
744 2 2.2208 2.65243 15.2089 22.0844
722 1 -1.1104 4.1383 19.6412 23.4057
724 1 -1.1104 3.79402 13.9707 23.5017
726 1 -1.1104 1.19935 19.6081 26.4119
727 1 -1.1104 1.12339 16.8618 26.3284
728 1 -1.1104 1.041 13.9732 26.2378
730 2 2.2208 5.36656 20.9995 24.9357
731 2 2.2208 5.28885 15.345 24.8803
733 1 -1.1104 1.3074 19.7134 23.5521
734 1 -1.1104 0.9539 14.1044 23.4204
735 2 2.2208 5.33687 18.2397 22.0335
736 1 -1.1104 3.86476 19.7333 26.2112
737 2 2.2208 2.65814 18.1979 24.7884
738 1 -1.1104 4.01744 16.697 26.2317
739 1 -1.1104 3.80248 13.9592 26.1448
741 1 -1.1104 1.10882 16.8791 23.4649
742 1 -1.1104 3.84008 16.688 23.3474
743 2 2.2208 2.61007 20.9494 22.057
628 1 -1.1104 12.3477 19.574 23.4093
721 2 2.2208 13.5817 6.97632 24.8215
366 2 2.2208 13.6125 6.88527 13.6294
694 1 -1.1104 6.71528 19.3905 26.3361
437 2 2.2208 -0.331134 7.13049 22.2237
692 1 -1.1104 9.45628 19.5451 23.5495
626 2 2.2208 10.8222 18.1912 22.1217
658 2 2.2208 10.9728 15.2254 24.9097
693 2 2.2208 8.131 18.1494 24.8763
657 1 -1.1104 12.4509 16.7297 23.6342
717 2 2.2208 8.27068 15.1899 22.1857
627 1 -1.1104 12.2046 13.9939 23.419
720 1 -1.1104 9.59446 16.6951 23.6004
697 1 -1.1104 9.46299 14.044 26.3207
509 2 2.2208 13.5771 15.4327 16.4815
665 2 2.2208 13.5945 1.42016 24.8638
383 2 2.2208 7.91912 4.23826 27.5758
748 2 2.2208 -0.307957 15.5369 24.952
601 2 2.2208 13.6577 20.9673 21.9942
508 2 2.2208 13.5781 18.049 19.2873
746 2 2.2208 -0.212919 18.204 22.1329
696 2 2.2208 -0.357833 12.6206 22.081
392 2 2.2208 8.04273 9.79693 27.6901
9315 2 2.2208 13.647 -4.21428 13.7098
388 2 2.2208 5.13558 12.6029 27.5968
361 2 2.2208 8.034 12.6484 13.7335
375 2 2.2208 8.07179 15.3304 27.6908
374 2 2.2208 5.20938 1.40728 27.6396
394 2 2.2208 13.7124 9.80328 27.6054
350 2 2.2208 -0.326322 21.0815 13.76
389 2 2.2208 -0.299785 12.7331 27.7066
397 2 2.2208 2.5357 15.5301 27.6344
363 2 2.2208 2.61289 18.0601 13.6858
368 2 2.2208 10.9327 21.0389 13.7613
349 2 2.2208 5.08521 4.16097 13.7045
391 2 2.2208 10.7225 6.94201 27.6423
398 2 2.2208 -0.279655 18.2603 27.6262
348 2 2.2208 2.33507 1.35291 13.6549
749 2 2.2208 5.36786 23.8025 4.99269
750 2 2.2208 5.34533 29.4634 5.17749
751 1 -1.1104 1.24643 25.2918 0.972564
752 1 -1.1104 1.20541 25.3586 3.81837
753 1 -1.1104 1.16934 22.4976 1.12085
754 1 -1.1104 1.16428 27.957 0.986994
755 2 2.2208 5.41253 26.6396 2.33806
756 1 -1.1104 1.12254 22.4296 3.84872
757 1 -1.1104 1.1659 27.9748 3.88654
758 1 -1.1104 3.93488 25.2715 0.827104
759 2 2.2208 2.68186 23.879 2.41726
760 2 2.2208 2.68915 29.4049 2.40765
761 1 -1.1104 4.08531 25.2718 3.72645
762 2 2.2208 2.53448 26.5665 5.28222
763 1 -1.1104 3.97511 22.501 0.931693
764 1 -1.1104 3.99625 28.118 0.946753
765 1 -1.1104 4.15611 22.3199 3.67626
766 1 -1.1104 4.06558 28.0095 3.66708
771 1 -1.1104 6.76935 25.2434 3.53548
772 1 -1.1104 6.73874 22.2865 0.943577
892 1 -1.1104 1.12361 22.5633 6.67624
774 1 -1.1104 6.89007 22.2815 3.66174
768 2 2.2208 -0.336816 23.8665 5.21235
1046 1 -1.1104 9.80895 42.083 9.3912
893 1 -1.1104 1.10856 27.9441 6.68567
890 1 -1.1104 0.995784 25.2298 6.59305
898 1 -1.1104 3.81895 28.1269 6.43275
895 1 -1.1104 6.89284 28.1226 6.46613
1069 2 2.2208 5.39809 26.7011 13.5897
770 1 -1.1104 6.70562 25.1362 0.862429
773 1 -1.1104 6.74735 28.0218 1.07957
1038 1 -1.1104 12.4871 39.2355 12.2172
775 1 -1.1104 6.73541 28.0934 3.78039
776 2 2.2208 10.9857 23.8766 5.15546
777 2 2.2208 10.8928 29.399 5.05237
778 1 -1.1104 12.2126 25.0822 0.984537
779 1 -1.1104 12.3281 25.2049 3.77311
780 1 -1.1104 12.3364 22.3671 1.04343
781 1 -1.1104 12.3544 27.9471 0.863901
782 2 2.2208 10.9313 26.5715 2.33602
783 1 -1.1104 12.4831 22.4399 3.7622
784 1 -1.1104 12.3034 28.1337 3.62972
785 1 -1.1104 9.51961 25.2467 1.00876
786 2 2.2208 8.18663 23.8082 2.21116
787 2 2.2208 8.22312 29.3821 2.35124
788 1 -1.1104 9.52643 25.2056 3.9024
789 2 2.2208 8.21503 26.5887 5.11245
790 1 -1.1104 9.60535 22.4326 1.04924
791 1 -1.1104 9.70623 28.0806 0.88164
792 1 -1.1104 9.71241 22.3061 3.90501
793 1 -1.1104 9.52675 27.9427 3.72871
1090 2 2.2208 8.30217 40.5759 13.7459
894 1 -1.1104 6.75298 22.5462 6.46237
927 1 -1.1104 9.47808 22.3797 6.51282
891 1 -1.1104 6.59655 25.389 6.43408
926 1 -1.1104 9.50136 25.073 6.53823
928 1 -1.1104 9.5506 27.9987 6.42881
923 1 -1.1104 12.2678 25.2179 6.60234
924 1 -1.1104 12.2517 22.3908 6.58118
1047 2 2.2208 8.11269 45.9931 7.93222
1071 2 2.2208 -0.20837 37.8191 13.5273
1630 1 -1.1104 6.7616 47.3767 9.21914
797 2 2.2208 5.31923 35.083 5.22938
798 1 -1.1104 1.30989 30.7973 0.841357
799 1 -1.1104 1.09175 36.4962 0.957252
801 1 -1.1104 1.14809 30.7203 3.67516
802 1 -1.1104 1.05428 36.4229 3.6022
804 1 -1.1104 1.13816 33.7173 0.910929
805 2 2.2208 5.33208 32.4141 2.4381
806 2 2.2208 5.48654 38.0017 2.39852
807 1 -1.1104 1.10088 33.5796 3.67004
809 1 -1.1104 4.12178 31.016 0.985157
810 1 -1.1104 3.89854 36.4284 0.863662
811 2 2.2208 2.61029 35.087 2.34111
812 1 -1.1104 3.92678 30.7646 3.81222
813 1 -1.1104 3.98231 36.4897 3.63401
814 2 2.2208 2.49946 32.2137 5.15969
815 2 2.2208 2.44364 37.9408 5.15833
816 1 -1.1104 3.84662 33.6755 1.09163
817 1 -1.1104 3.82134 33.5631 3.87788
822 1 -1.1104 6.76367 30.9136 3.74742
803 1 -1.1104 6.74287 36.5453 3.81074
808 1 -1.1104 6.60676 33.7753 3.8798