ITEM: TIMESTEP
80000
ITEM: NUMBER OF ATOMS
17760
ITEM: BOX BOUNDS pp pp pp
-3.7466435059124714e-01 2.7714664350591228e+01
-4.5156333836752713e+00 3.3259563338365319e+02
-3.7295368198812584e-01 2.7712953681988228e+01
ITEM: ATOMS id type q x y z
1 2 2.2208 5.16684 1.10131 5.22724
2 1 -1.1104 0.861492 -3.29386 0.854919
3 1 -1.1104 0.89073 2.48584 0.934537
6 1 -1.1104 0.861283 -3.26435 3.8427
7 1 -1.1104 1.06469 2.37838 3.7534
10 1 -1.1104 0.959249 -0.270814 0.902079
12 2 2.2208 5.17365 -1.86042 2.37785
13 2 2.2208 5.13831 3.87197 2.4154
14 1 -1.1104 1.0985 -0.457271 3.74013
16 1 -1.1104 3.61941 -3.3079 1.07687
17 1 -1.1104 3.67968 2.4219 0.919892
18 2 2.2208 2.3577 0.990302 2.32294
19 1 -1.1104 3.80329 -3.10696 3.81468
20 1 -1.1104 3.87632 2.40075 3.73701
21 2 2.2208 2.39923 -1.84026 5.27516
22 2 2.2208 2.37585 3.83206 5.10823
23 1 -1.1104 3.81482 -0.419126 0.978639
24 1 -1.1104 3.8815 -0.44535 3.82273
11 1 -1.1104 6.58511 -0.357896 0.962676
9 1 -1.1104 6.69517 2.3852 3.8575
4 1 -1.1104 6.53483 -3.29944 1.10365
8 1 -1.1104 6.64012 -3.17624 3.85654
15 1 -1.1104 6.47043 -0.389173 3.8394
5 1 -1.1104 6.62764 2.53462 1.0972
166 1 -1.1104 1.06624 -2.99521 6.71617
173 1 -1.1104 3.78398 2.59202 6.5673
170 1 -1.1104 0.879757 -0.452914 6.5717
172 1 -1.1104 3.87582 -3.17093 6.55053
169 1 -1.1104 6.75634 2.52446 6.68488
171 1 -1.1104 6.4521 -0.460543 6.63679
324 2 2.2208 10.8516 20.7507 8.03387
9066 2 2.2208 10.6997 -4.45902 10.9324
31 2 2.2208 10.8472 1.15797 5.20365
32 1 -1.1104 12.227 -2.99737 1.19232
33 1 -1.1104 12.1786 2.535 1.16653
34 1 -1.1104 12.1634 -3.07785 3.84836
35 1 -1.1104 12.3403 2.40003 3.8558
36 1 -1.1104 12.2828 -0.306391 1.13375
37 2 2.2208 10.7574 -1.74046 2.57655
38 2 2.2208 10.9951 3.9533 2.50081
39 1 -1.1104 12.2361 -0.321212 3.85257
40 1 -1.1104 9.27807 -3.24757 1.09512
41 1 -1.1104 9.43466 2.52652 1.02744
42 2 2.2208 8.12391 1.05034 2.45677
43 1 -1.1104 9.46989 -3.15131 3.86152
44 1 -1.1104 9.55611 2.49285 3.7752
45 2 2.2208 7.91927 -1.70745 5.27278
47 1 -1.1104 9.51572 -0.424311 0.988917
48 1 -1.1104 9.35102 -0.372579 3.92555
46 2 2.2208 8.07009 3.87081 5.21243
9063 2 2.2208 5.23885 -4.47129 10.8718
50 2 2.2208 13.5303 -1.76875 5.22695
206 1 -1.1104 12.2919 2.53758 6.6893
208 1 -1.1104 9.35098 -3.14327 6.64214
209 1 -1.1104 9.52893 2.61696 6.50227
207 1 -1.1104 12.3202 -0.237702 6.60302
341 2 2.2208 10.7502 -1.78135 13.6711
233 2 2.2208 13.5844 3.81495 5.27609
105 2 2.2208 13.5852 6.80834 2.38288
54 2 2.2208 5.22543 6.65932 5.20017
55 2 2.2208 5.28385 12.2822 5.26886
56 1 -1.1104 1.04348 8.0661 0.93398
58 1 -1.1104 1.0246 8.23807 3.84545
60 1 -1.1104 1.20705 5.2008 1.04412
61 1 -1.1104 1.31589 10.8214 1.16593
66 2 2.2208 5.15567 9.54571 2.43679
67 1 -1.1104 0.97303 5.20989 3.74996
68 1 -1.1104 0.981533 10.868 3.92006
71 1 -1.1104 3.80033 8.01375 0.930305
72 2 2.2208 2.41841 6.64156 2.39716
73 2 2.2208 2.4897 12.3337 2.45251
74 1 -1.1104 3.81898 8.17068 3.65305
75 2 2.2208 2.46889 9.45649 5.24113
76 1 -1.1104 3.88892 5.11884 0.935053
77 1 -1.1104 3.96484 10.8736 1.15901
79 1 -1.1104 3.71201 5.3292 3.86898
80 1 -1.1104 3.8115 10.9064 3.83233
70 1 -1.1104 6.5623 10.9249 3.82721
64 1 -1.1104 6.65452 10.8102 1.04005
63 1 -1.1104 6.72099 5.3207 0.96025
59 1 -1.1104 6.68558 8.07523 3.88205
57 1 -1.1104 6.60524 8.02063 1.05238
312 2 2.2208 -0.231755 18.03 10.9395
69 1 -1.1104 6.52321 5.15315 3.8053
237 1 -1.1104 6.60367 5.34099 6.64028
84 2 2.2208 10.7562 6.55957 5.19016
85 2 2.2208 10.9135 12.3172 5.14857
86 1 -1.1104 12.1679 7.9377 1.02823
87 1 -1.1104 12.1569 8.09242 3.91061
88 1 -1.1104 12.3742 5.31254 1.15961
89 1 -1.1104 12.1856 10.7226 0.893943
91 2 2.2208 10.8905 9.27897 2.36622
92 1 -1.1104 12.2816 5.23944 3.93946
93 1 -1.1104 12.2065 10.9357 3.70738
94 1 -1.1104 9.2374 8.08086 0.979182
95 2 2.2208 8.03907 6.63077 2.37605
96 2 2.2208 8.06108 12.1472 2.34775
97 1 -1.1104 9.42184 7.94648 3.68666
98 2 2.2208 8.07475 9.54088 5.08756
99 1 -1.1104 9.51272 5.29219 0.985243
100 1 -1.1104 9.57537 10.8253 1.02625
102 1 -1.1104 9.44653 5.21082 3.64426
103 1 -1.1104 9.48234 10.8253 3.78252
311 2 2.2208 -0.311924 20.8518 8.14485
494 2 2.2208 10.7135 9.42625 13.7079
9470 2 2.2208 2.35685 -4.3891 13.6238
30 2 2.2208 -0.393641 9.50786 8.06535
9062 2 2.2208 2.38804 -4.44955 8.148
106 2 2.2208 5.2539 17.9331 5.17765
107 1 -1.1104 0.919063 13.7695 0.977674
109 1 -1.1104 0.963717 19.4902 1.12919
113 1 -1.1104 1.2815 13.8406 3.83448
114 1 -1.1104 1.04228 19.3563 3.82241
116 1 -1.1104 1.05254 16.6052 1.04116
119 2 2.2208 5.15361 14.9967 2.44703
120 2 2.2208 5.30828 20.7829 2.38902
121 1 -1.1104 1.02935 16.4933 3.87568
123 1 -1.1104 3.61799 13.5726 0.990761
125 1 -1.1104 3.81193 19.296 1.11674
127 2 2.2208 2.45409 17.96 2.49537
128 1 -1.1104 3.91315 13.7073 3.85532
129 1 -1.1104 3.77469 19.2629 4.06389
130 2 2.2208 2.44843 15.2378 5.26029
131 2 2.2208 2.35814 20.7394 5.29327
132 1 -1.1104 3.87979 16.4228 1.13415
134 1 -1.1104 3.82697 16.4937 3.88775
110 1 -1.1104 6.46397 13.6629 1.05865
139 1 -1.1104 6.69435 19.3305 3.66667
138 1 -1.1104 6.65339 19.1671 1.02987
118 1 -1.1104 6.63209 16.4584 6.38625
140 1 -1.1104 6.64479 16.3837 0.83853
115 1 -1.1104 6.78171 13.6452 3.899
122 1 -1.1104 6.58687 16.5169 3.62286
112 1 -1.1104 6.59743 19.2145 6.57701
29 2 2.2208 -0.231965 6.7502 10.8151
126 1 -1.1104 3.76246 19.4246 6.74927
302 1 -1.1104 0.954715 19.2754 6.70763
124 1 -1.1104 3.85203 13.6451 6.57002
558 2 2.2208 7.95321 17.8414 13.6592
495 2 2.2208 7.97542 12.2567 13.669
615 2 2.2208 7.96253 20.6743 -0.376302
141 2 2.2208 10.9618 17.8703 5.19273
142 1 -1.1104 12.2194 13.5424 1.14132
144 1 -1.1104 12.4216 19.3175 1.13641
146 1 -1.1104 12.1907 13.7575 4.02637
147 1 -1.1104 12.3273 19.2581 3.88065
148 1 -1.1104 12.1891 16.4182 0.972061
150 2 2.2208 10.7386 15.0761 2.46263
151 2 2.2208 10.7434 20.7937 2.43779
152 1 -1.1104 12.3469 16.534 3.82749
153 1 -1.1104 9.3384 13.7691 0.949048
155 1 -1.1104 9.4439 19.262 0.95505
157 2 2.2208 7.98173 17.8165 2.35376
158 1 -1.1104 9.4554 13.5717 3.71448
159 1 -1.1104 9.45639 19.3526 3.79128
160 2 2.2208 8.08742 15.0642 5.05916
161 2 2.2208 7.9877 20.5764 5.26413
162 1 -1.1104 9.39033 16.4607 0.994165
164 1 -1.1104 9.50004 16.5326 3.79161
154 1 -1.1104 9.54597 13.8016 6.49725
145 1 -1.1104 12.3834 19.214 6.62814
231 2 2.2208 13.6363 20.613 5.1757
347 2 2.2208 10.8579 1.13133 -0.367461
331 2 2.2208 10.8601 17.9138 10.6759
328 1 -1.1104 12.3374 13.5556 9.50643
167 1 -1.1104 1.00544 2.58173 6.60899
168 1 -1.1104 6.52007 -3.22761 6.62288
174 1 -1.1104 3.66832 -0.261879 6.64691
232 2 2.2208 13.4843 9.42766 5.17139
83 2 2.2208 -0.254385 12.3149 5.19646
175 2 2.2208 5.35617 1.12122 10.9818
176 1 -1.1104 1.13178 -2.99044 12.3083
177 1 -1.1104 1.04858 2.31476 12.338
180 1 -1.1104 0.88597 -3.12599 9.6101
181 1 -1.1104 1.11013 2.48567 9.48902
184 1 -1.1104 0.914901 -0.458325 12.1986
186 2 2.2208 5.14419 -1.6734 7.99743
187 2 2.2208 5.23253 3.94571 7.95045
188 1 -1.1104 0.985579 -0.337347 9.34206
190 1 -1.1104 3.91882 -2.95062 12.2502
191 1 -1.1104 3.81318 2.45561 12.2762
192 2 2.2208 2.39994 1.07294 8.1315
193 1 -1.1104 3.7753 -3.10903 9.48025
194 1 -1.1104 3.89946 2.42321 9.28937
195 2 2.2208 2.39408 -1.76968 10.8597
196 2 2.2208 2.3638 3.81304 10.9031
197 1 -1.1104 3.85543 -0.294664 12.3245
198 1 -1.1104 3.70684 -0.440435 9.45898
189 1 -1.1104 6.54523 -0.221823 9.31732
179 1 -1.1104 6.5216 2.44504 12.2867
182 1 -1.1104 6.52171 -3.10338 9.4315
185 1 -1.1104 6.66327 -0.276008 12.2297
183 1 -1.1104 6.71098 2.55049 9.46383
178 1 -1.1104 6.4992 -3.07117 12.2991
315 1 -1.1104 9.48494 16.5023 12.3886
28 2 2.2208 13.6362 20.7696 10.6988
319 1 -1.1104 9.47066 13.6468 9.3687
205 1 -1.1104 12.1368 -3.09304 6.69538
316 2 2.2208 7.85263 20.5658 10.85
318 1 -1.1104 9.46412 19.2574 9.47698
210 1 -1.1104 9.36842 -0.292107 6.63491
230 2 2.2208 13.6297 -1.66023 10.8367
52 2 2.2208 13.6278 9.42596 10.753
211 2 2.2208 10.7794 1.10513 10.938
212 1 -1.1104 12.2682 -2.97136 12.3108
213 1 -1.1104 12.3077 2.52471 12.1926
214 1 -1.1104 12.118 -3.09836 9.64979
215 1 -1.1104 12.4191 2.48121 9.42306
216 1 -1.1104 12.1174 -0.277475 12.3274
217 2 2.2208 10.8279 -1.58589 8.02511
218 2 2.2208 10.9344 3.97909 8.09664
219 1 -1.1104 12.1969 -0.338699 9.50267
220 1 -1.1104 9.32545 -3.04714 12.2038
221 1 -1.1104 9.45136 2.48723 12.2627
222 2 2.2208 8.0627 1.149 7.97932
223 1 -1.1104 9.30123 -2.98294 9.37234
224 1 -1.1104 9.56285 2.43584 9.50768
225 2 2.2208 8.01847 -1.53088 10.8183
226 2 2.2208 7.86363 3.88356 10.9344
227 1 -1.1104 9.39095 -0.285739 12.5047
228 1 -1.1104 9.35456 -0.149323 9.49851
333 2 2.2208 13.565 15.2111 10.9959
325 2 2.2208 10.9003 15.1476 8.05968
235 1 -1.1104 6.48117 7.99864 6.63124
62 1 -1.1104 1.10074 10.9366 6.6434
239 1 -1.1104 3.92569 5.39861 6.69271
78 1 -1.1104 3.91052 10.9539 6.78824
236 1 -1.1104 1.05763 5.32412 6.55177
238 1 -1.1104 3.6729 8.09302 6.61275
65 1 -1.1104 6.78086 10.8607 6.57758
234 1 -1.1104 0.862747 8.05842 6.61418
240 2 2.2208 5.182 6.81763 10.8069
241 2 2.2208 5.26622 12.2881 10.7599
242 1 -1.1104 0.853513 8.24193 12.2473
244 1 -1.1104 0.976205 8.12432 9.44858
246 1 -1.1104 0.983785 5.34101 12.2561
247 1 -1.1104 0.877895 10.9817 12.2075
250 2 2.2208 5.18988 9.58925 7.9624
251 1 -1.1104 1.07145 5.32927 9.45374
252 1 -1.1104 0.931577 10.7812 9.43112
255 1 -1.1104 3.74475 7.91728 12.2599
256 2 2.2208 2.34472 6.74964 8.05072
257 2 2.2208 2.42448 12.3514 8.04049
258 1 -1.1104 3.83687 8.19242 9.32241
259 2 2.2208 2.28397 9.46027 10.9272
260 1 -1.1104 3.74771 5.21666 12.3266
261 1 -1.1104 3.69294 10.8051 12.3514
262 1 -1.1104 3.75586 5.33132 9.47606
263 1 -1.1104 3.70884 11.0569 9.49181
243 1 -1.1104 6.62812 8.12304 12.3009
245 1 -1.1104 6.50664 8.0597 9.41429
249 1 -1.1104 6.55653 10.8809 11.998
248 1 -1.1104 6.36624 5.22536 12.2247
254 1 -1.1104 6.6543 10.9832 9.25421
253 1 -1.1104 6.63133 5.36318 9.51568
101 1 -1.1104 9.54648 10.9112 6.71585
267 1 -1.1104 9.33644 8.0887 6.5497
90 1 -1.1104 12.2463 10.9694 6.45413
265 1 -1.1104 12.1848 8.1671 6.51811
266 1 -1.1104 12.2697 5.30101 6.71419
329 1 -1.1104 12.1242 19.3489 12.4297
269 1 -1.1104 9.29253 5.29181 6.6489
82 2 2.2208 -0.292986 9.49346 2.37807
137 2 2.2208 -0.331958 17.9456 5.2747
264 1 -1.1104 9.54923 10.767 9.41768
268 1 -1.1104 9.42423 5.31224 9.48545
270 1 -1.1104 9.36441 10.7565 12.2492
271 1 -1.1104 9.25963 5.19028 12.3377
272 2 2.2208 7.97689 9.59038 10.8152
273 1 -1.1104 9.36108 8.12048 9.26815
274 2 2.2208 8.18415 12.2549 8.04069
275 2 2.2208 8.06544 6.74014 8.03848
276 2 2.2208 10.7809 6.73551 10.8608
277 2 2.2208 10.9266 12.1964 10.9505
278 1 -1.1104 11.9745 8.20415 12.2341
279 1 -1.1104 12.226 7.93213 9.37229
280 1 -1.1104 12.1966 5.3797 12.2174
281 1 -1.1104 12.1896 10.8213 12.2969
282 2 2.2208 10.9251 9.51028 8.04863
283 1 -1.1104 12.162 5.20204 9.59472
284 1 -1.1104 12.5279 10.7586 9.37043
285 1 -1.1104 9.19652 8.09425 12.3407
202 2 2.2208 13.6833 6.5222 7.99956
117 1 -1.1104 0.973344 16.4079 6.61459
111 1 -1.1104 6.82458 13.7646 6.72521
330 1 -1.1104 12.3463 13.775 12.373
108 1 -1.1104 1.06798 13.726 6.68592
133 1 -1.1104 3.82506 16.504 6.68939
306 1 -1.1104 6.66182 16.4186 12.2304
310 2 2.2208 2.40101 15.0828 10.838
309 2 2.2208 2.40294 20.7735 10.914
308 1 -1.1104 3.81276 16.313 12.192
286 1 -1.1104 3.91971 19.0551 12.3392
287 1 -1.1104 4.02896 13.5069 12.3037
291 1 -1.1104 1.02798 19.48 9.5115
292 1 -1.1104 1.1461 16.6083 9.48554
293 2 2.2208 5.20699 20.6944 8.01214
294 1 -1.1104 1.02704 13.716 9.49137
295 2 2.2208 5.33127 15.0505 7.96249
298 1 -1.1104 1.07474 19.4839 12.2186
299 1 -1.1104 1.01884 13.7686 12.3447
300 2 2.2208 5.25896 17.8151 10.8001
301 1 -1.1104 3.75171 19.3899 9.41928
303 2 2.2208 2.36454 17.9256 8.09139
304 1 -1.1104 3.90486 16.5261 9.47234
305 1 -1.1104 3.8129 13.7041 9.53575
307 1 -1.1104 1.06381 16.5936 12.2645
290 1 -1.1104 6.64253 13.6852 9.35091
297 1 -1.1104 6.78839 13.6545 12.0576
296 1 -1.1104 6.52423 19.2015 12.1349
288 1 -1.1104 6.67329 19.2328 9.37136
143 1 -1.1104 12.3056 13.7373 6.84628
156 1 -1.1104 9.40748 19.2187 6.52047
163 1 -1.1104 9.47754 16.5446 6.60291
323 1 -1.1104 12.3785 16.5993 9.61347
327 1 -1.1104 12.23 19.3325 9.48249
104 2 2.2208 13.6064 12.3585 2.51251
320 2 2.2208 7.99603 17.88 7.99263
317 2 2.2208 8.05244 15.0463 10.7558
289 1 -1.1104 6.67831 16.4438 9.31259
149 1 -1.1104 12.3231 16.5115 6.72277
556 2 2.2208 10.6199 20.5807 13.5347
321 1 -1.1104 9.19307 19.2256 12.2078
322 1 -1.1104 9.50278 13.6069 12.0406
326 1 -1.1104 12.1625 16.519 12.2856
314 1 -1.1104 9.58038 16.4686 9.44961
530 2 2.2208 5.17433 20.7253 13.6876
350 2 2.2208 13.5621 -1.71561 -0.310871
348 2 2.2208 7.89272 -1.89843 -0.401355
592 2 2.2208 7.99224 15.0433 -0.370282
618 2 2.2208 13.656 12.2649 13.6304
468 2 2.2208 2.39272 12.2395 13.555
342 2 2.2208 10.7292 3.80962 13.6138
351 2 2.2208 13.6444 3.92192 -0.294757
704 2 2.2208 5.31042 17.9039 -0.312947
335 2 2.2208 5.26661 -1.70848 13.6373
585 2 2.2208 13.6468 20.6699 -0.297189
651 2 2.2208 5.28336 12.2031 -0.349556
614 2 2.2208 10.8431 17.7458 -0.316397
584 2 2.2208 13.4588 15.0753 -0.24582
675 2 2.2208 7.96647 9.45442 -0.384693
493 2 2.2208 7.9161 6.53758 13.6174
357 2 2.2208 5.1461 1.14743 16.6285
358 1 -1.1104 0.816872 -3.06819 17.8984
359 1 -1.1104 1.08487 2.50102 17.9121
362 1 -1.1104 1.05299 -3.03485 15.0452
364 1 -1.1104 0.948497 2.36812 15.2376
370 1 -1.1104 0.942927 -0.226955 17.8842
372 2 2.2208 5.27566 -1.69204 19.3749
373 2 2.2208 5.28966 3.88655 19.3368
374 1 -1.1104 1.10266 -0.407303 15.0254
378 1 -1.1104 3.70977 -3.03768 17.819
379 1 -1.1104 3.77652 2.56255 18.1035
380 2 2.2208 2.35506 1.21065 19.4054
381 1 -1.1104 3.85309 -3.12629 14.9777
383 1 -1.1104 3.63952 2.3707 15.2032
385 2 2.2208 2.46747 -1.67555 16.4917
387 1 -1.1104 3.82904 -0.386957 17.9307
388 1 -1.1104 3.99043 -0.372936 15.0579
386 2 2.2208 2.36297 3.7686 16.4708
368 1 -1.1104 6.4255 2.33997 15.0853
376 1 -1.1104 6.79524 -0.260964 15.1168
361 1 -1.1104 6.64477 2.49849 17.8507
371 1 -1.1104 6.59066 -0.22463 18.1494
366 1 -1.1104 6.56616 -3.06022 15.1225
360 1 -1.1104 6.506 -3.11146 17.9788
384 1 -1.1104 3.84078 2.44693 20.9701
365 1 -1.1104 0.889869 2.51623 20.7205
363 1 -1.1104 0.862175 -3.03745 20.7545
377 1 -1.1104 6.61815 -0.361594 20.9039
389 1 -1.1104 3.75569 -0.235036 20.8055
355 2 2.2208 -0.31581 6.69946 27.5957
375 1 -1.1104 1.08929 -0.298891 20.6524
399 2 2.2208 13.542 0.994724 19.4059
395 2 2.2208 13.5571 9.33596 16.4503
400 2 2.2208 10.783 1.14381 16.5468
401 1 -1.1104 12.282 -3.01889 18.0135
402 1 -1.1104 12.0953 2.47271 17.8471
403 1 -1.1104 12.1595 -2.97267 15.0912
405 1 -1.1104 12.1506 2.57601 14.908
407 1 -1.1104 11.9397 -0.230268 17.8737
408 2 2.2208 10.8198 -1.7261 19.3549
409 2 2.2208 10.653 3.86411 19.2833
410 1 -1.1104 12.2391 -0.231571 15.0378
412 1 -1.1104 9.45657 -3.11809 17.9129
413 1 -1.1104 9.30371 2.35967 17.8768
414 2 2.2208 8.05741 1.03498 19.37
415 1 -1.1104 9.33491 -3.00553 15.0616
417 1 -1.1104 9.253 2.53155 15.1071
419 2 2.2208 8.01809 -1.71544 16.4778
420 2 2.2208 7.86172 3.81169 16.4695
421 1 -1.1104 9.29765 -0.327788 18.0418
422 1 -1.1104 9.4885 -0.380349 15.2093
418 1 -1.1104 9.41789 2.47826 20.6523
428 2 2.2208 13.5026 -1.70824 16.58
416 1 -1.1104 9.56708 -3.02299 20.5821
397 2 2.2208 13.5314 6.63443 13.6624
557 2 2.2208 10.8536 15.145 13.6421
349 2 2.2208 8.05419 3.82776 27.668
9422 2 2.2208 13.5011 -4.45717 13.7999
433 2 2.2208 5.21126 6.5872 16.6405
434 2 2.2208 5.24484 12.3625 16.397
435 1 -1.1104 0.910706 8.15611 17.6757
437 1 -1.1104 0.937103 8.11283 15.0398
441 1 -1.1104 0.914046 5.36119 17.861
442 1 -1.1104 0.939642 10.8835 17.9579
445 2 2.2208 5.2049 9.49667 19.3109
446 1 -1.1104 1.0329 5.25687 15.1661
448 1 -1.1104 0.960139 10.9576 15.0154
454 1 -1.1104 3.79046 8.06706 17.9245
455 2 2.2208 2.38616 6.69627 19.3072
456 2 2.2208 2.41557 12.2587 19.3113
457 1 -1.1104 3.875 8.17221 14.9955
459 2 2.2208 2.52673 9.65183 16.5497
460 1 -1.1104 3.77821 5.32572 17.995
461 1 -1.1104 4.0224 10.9076 17.9363
462 1 -1.1104 3.75271 5.08832 15.1121
464 1 -1.1104 3.84227 11.04 15.0841
443 1 -1.1104 6.54556 5.33673 17.8205
452 1 -1.1104 6.58462 10.885 15.0304
436 1 -1.1104 6.56423 8.16199 17.9171
450 1 -1.1104 6.48726 5.1877 14.9689
451 1 -1.1104 6.56769 5.42971 20.762
444 1 -1.1104 6.64275 10.8903 17.8138
439 1 -1.1104 6.54296 7.98512 15.1084
440 1 -1.1104 6.51308 8.10897 20.7014
438 1 -1.1104 0.872125 8.14825 20.6458
463 1 -1.1104 3.80712 5.31726 20.7071
621 1 -1.1104 12.24 13.5921 23.4751
9355 2 2.2208 13.5054 -4.53213 24.8942
655 2 2.2208 10.9202 15.063 24.9296
9472 2 2.2208 10.705 -4.44545 16.4739
9358 2 2.2208 5.15875 -4.49748 22.1723
469 2 2.2208 10.7132 6.57474 16.5417
470 2 2.2208 10.882 12.2109 16.4608
471 1 -1.1104 12.112 8.0945 17.9389
472 1 -1.1104 12.0695 7.95972 15.0173
474 1 -1.1104 11.9966 5.28425 18.0156
475 1 -1.1104 12.1395 10.7547 17.7784
476 2 2.2208 10.7868 9.42441 19.3112
477 1 -1.1104 12.2159 5.18666 15.2558
479 1 -1.1104 12.1546 10.9211 14.9822
481 1 -1.1104 9.30223 7.98668 17.7843
482 2 2.2208 7.94434 6.63561 19.2433
483 2 2.2208 7.93602 12.3624 19.2191
484 1 -1.1104 9.3366 7.97954 15.0146
486 2 2.2208 7.95971 9.42675 16.4238
487 1 -1.1104 9.39601 5.16652 17.8358
488 1 -1.1104 9.15809 10.8975 17.8595
489 1 -1.1104 9.35333 5.27465 15.1051
491 1 -1.1104 9.44695 10.821 15.1507
490 1 -1.1104 9.3524 5.23463 20.6215
620 2 2.2208 13.5137 6.58588 19.2554
473 1 -1.1104 12.0978 8.11084 20.5542
485 1 -1.1104 9.42026 8.07223 20.6739
431 2 2.2208 13.6823 14.8407 22.0787
391 2 2.2208 13.6693 9.37779 22.1047
616 2 2.2208 10.9073 17.7595 22.1063
9440 2 2.2208 8.06154 -4.47754 19.3718
496 2 2.2208 5.37029 17.9544 16.4548
497 1 -1.1104 0.990306 13.6436 17.838
498 1 -1.1104 1.03082 19.4283 17.7938
501 1 -1.1104 1.16099 13.6916 14.9863
503 1 -1.1104 1.15802 19.2732 14.9755
509 1 -1.1104 1.06439 16.4936 18.051
511 2 2.2208 5.11883 15.0572 19.3794
512 2 2.2208 5.26839 20.674 19.4112
513 1 -1.1104 1.14249 16.6452 15.2065
517 1 -1.1104 3.79239 13.6872 17.9309
518 1 -1.1104 3.82338 19.4046 17.8695
519 2 2.2208 2.45097 17.9223 19.2432
520 1 -1.1104 3.82011 13.9321 15.1282
522 1 -1.1104 4.05302 19.4144 15.0865
524 2 2.2208 2.41114 15.0748 16.6255
525 2 2.2208 2.4376 20.7805 16.4849
526 1 -1.1104 3.88178 16.7036 17.8364
527 1 -1.1104 4.01873 16.5465 15.1332
510 1 -1.1104 6.67632 16.37 17.9308
505 1 -1.1104 6.75287 13.6861 15.0484
515 1 -1.1104 6.70617 16.5181 15.0929
499 1 -1.1104 6.48293 13.6496 17.8996
500 1 -1.1104 6.65395 19.2074 18.0629
514 1 -1.1104 0.960311 16.6255 20.692
506 1 -1.1104 6.56708 13.6794 20.7467
507 1 -1.1104 6.9635 19.26 15.0929
523 1 -1.1104 4.05265 19.2089 20.6067
529 2 2.2208 2.41804 17.7692 13.7065
9469 2 2.2208 2.34997 -4.37647 19.4319
340 2 2.2208 13.519 1.18176 13.6369
9471 2 2.2208 13.5732 -4.5243 19.2486
532 2 2.2208 10.8054 17.757 16.5709
533 1 -1.1104 12.1614 13.5498 17.8663
534 1 -1.1104 12.4097 18.9769 17.6096
535 1 -1.1104 12.2048 13.7894 15.1574
537 1 -1.1104 12.5439 20.7807 14.825
539 1 -1.1104 12.2841 16.2498 17.9356
540 2 2.2208 10.8817 14.9962 19.2246
541 2 2.2208 10.7141 20.5687 19.4274
542 1 -1.1104 12.2178 16.7816 15.0228
544 1 -1.1104 9.37259 13.6402 17.8312
545 1 -1.1104 9.62167 19.1856 17.976
546 2 2.2208 7.99323 17.6943 19.3954
547 1 -1.1104 9.52621 13.6464 15.0676
549 1 -1.1104 9.79234 19.0814 15.0762
551 2 2.2208 7.9788 15.0666 16.4561
552 2 2.2208 8.24468 20.6046 16.6436
553 1 -1.1104 9.44406 16.3978 17.9095
554 1 -1.1104 9.40734 16.3908 15.0364
538 1 -1.1104 12.2897 19.2112 20.4736
555 1 -1.1104 9.53452 16.3776 20.7113
430 2 2.2208 13.5288 3.84554 16.5614
718 1 -1.1104 9.47349 19.2149 23.5624
714 1 -1.1104 9.41943 19.4032 26.317
382 1 -1.1104 3.7244 -3.09183 20.7428
367 1 -1.1104 6.62576 -3.19336 20.6935
369 1 -1.1104 6.56168 2.51021 20.6802
560 2 2.2208 5.29326 1.03584 22.2303
561 1 -1.1104 0.995516 -3.1095 23.4162
562 1 -1.1104 0.884288 2.47933 23.579
565 1 -1.1104 0.798947 -3.20665 26.2523
566 1 -1.1104 1.07678 2.49124 26.2239
569 1 -1.1104 0.846942 -0.369452 23.4195
571 2 2.2208 5.29293 -1.77514 24.9566
572 2 2.2208 5.20432 3.90317 24.8826
573 1 -1.1104 0.977038 -0.373367 26.1518
575 1 -1.1104 3.85477 -3.11694 23.5469
576 1 -1.1104 3.87508 2.52944 23.6781
577 2 2.2208 2.40819 0.975547 24.9587
578 1 -1.1104 3.67431 -3.2387 26.3239
579 1 -1.1104 3.73279 2.46945 26.159
580 2 2.2208 2.28543 -1.70697 22.1185
581 2 2.2208 2.3753 3.99833 22.1462
582 1 -1.1104 3.87199 -0.260254 23.6513
583 1 -1.1104 3.86896 -0.416107 26.382
570 1 -1.1104 6.70259 -0.375891 23.544
567 1 -1.1104 6.53421 -3.23669 26.2341
574 1 -1.1104 6.53025 -0.390915 26.3134
568 1 -1.1104 6.63226 2.44143 26.241
564 1 -1.1104 6.70938 2.61907 23.4285
563 1 -1.1104 6.67014 -3.13855 23.4475
712 2 2.2208 7.96547 20.5347 22.2364
710 1 -1.1104 9.45967 16.5209 26.2452
719 1 -1.1104 9.49283 13.7434 23.477
406 1 -1.1104 12.2923 2.42388 20.715
423 1 -1.1104 9.42945 -0.366006 20.7535
404 1 -1.1104 12.3999 -3.25578 20.7921
650 1 -1.1104 12.162 19.2508 26.3165
411 1 -1.1104 12.1229 -0.421265 20.6654
622 2 2.2208 13.6489 -1.7384 22.1512
623 2 2.2208 13.6673 1.03858 24.9583
596 2 2.2208 10.8264 1.06102 22.1719
597 1 -1.1104 12.1307 -2.91093 23.6649
598 1 -1.1104 12.2323 2.50807 23.5437
599 1 -1.1104 12.2355 -3.15943 26.3581
600 1 -1.1104 12.2119 2.59513 26.3332
601 1 -1.1104 12.3276 -0.260292 23.5183
602 2 2.2208 10.7836 -1.68843 25.0372
603 2 2.2208 10.8636 3.77911 24.9354
604 1 -1.1104 12.2133 -0.281223 26.3186
605 1 -1.1104 9.3172 -3.12789 23.5292
606 1 -1.1104 9.48204 2.42744 23.51
607 2 2.2208 7.91216 1.06637 24.9973
608 1 -1.1104 9.40077 -3.0739 26.3357
609 1 -1.1104 9.35083 2.40199 26.3086
610 2 2.2208 8.07386 -1.69664 22.149
611 2 2.2208 8.02963 3.88427 22.1107
612 1 -1.1104 9.51749 -0.209008 23.556
613 1 -1.1104 9.30307 -0.420181 26.4065
392 2 2.2208 13.668 3.86065 22.1243
536 1 -1.1104 12.2698 13.6061 20.7378
717 2 2.2208 8.06488 17.8256 24.9944
652 1 -1.1104 12.3304 16.4598 23.57
531 2 2.2208 5.35626 15.0492 13.6744
458 1 -1.1104 3.66025 8.16295 20.5856
453 1 -1.1104 6.61722 10.905 20.6389
447 1 -1.1104 0.966128 5.39344 20.7451
449 1 -1.1104 0.935033 11.0081 20.7469
465 1 -1.1104 3.70602 10.8402 20.7666
625 2 2.2208 5.19536 6.79462 22.0635
626 2 2.2208 5.2186 12.3476 22.0195
627 1 -1.1104 0.819433 8.04318 23.4707
629 1 -1.1104 1.09232 8.3223 26.1406
631 1 -1.1104 1.03605 5.3041 23.5414
632 1 -1.1104 1.05479 10.8168 23.5923
635 2 2.2208 5.18261 9.52308 24.867
636 1 -1.1104 1.05839 5.3084 26.2633
637 1 -1.1104 0.974183 10.9373 26.3735
640 1 -1.1104 3.7543 8.19218 23.3653
641 2 2.2208 2.46914 6.66187 24.8974
642 2 2.2208 2.49962 12.3526 24.8398
643 1 -1.1104 3.94156 8.2104 26.3332
644 2 2.2208 2.34386 9.50604 22.0567
645 1 -1.1104 3.81463 5.43128 23.4083
646 1 -1.1104 3.89464 11.0985 23.4289
647 1 -1.1104 3.99604 5.36695 26.2833
648 1 -1.1104 3.94338 10.9626 26.2822
634 1 -1.1104 6.66259 11.0144 23.5181
633 1 -1.1104 6.70509 5.39057 23.4614
638 1 -1.1104 6.63023 5.22601 26.2346
628 1 -1.1104 6.49955 8.12733 23.4867
639 1 -1.1104 6.75578 10.9585 26.4561
720 1 -1.1104 12.2246 16.5229 26.3846
624 1 -1.1104 12.1831 19.1807 23.3454
543 1 -1.1104 12.4138 16.3156 20.649
492 1 -1.1104 9.44942 10.8557 20.6003
480 1 -1.1104 12.3264 10.8799 20.6852
478 1 -1.1104 12.141 5.24792 20.7446
630 1 -1.1104 6.48031 8.1191 26.21
550 1 -1.1104 9.50391 19.1163 20.6913
656 1 -1.1104 9.56752 10.8137 26.1951
657 1 -1.1104 9.43677 5.21625 26.2854
658 1 -1.1104 9.35499 10.887 23.3528
659 1 -1.1104 9.43265 5.21447 23.3981
660 2 2.2208 8.01172 9.47008 22.0877
661 1 -1.1104 9.29398 8.01597 26.2814
662 2 2.2208 8.17938 12.2469 24.8982
663 2 2.2208 8.05751 6.69236 24.8398
664 2 2.2208 10.8784 6.63452 22.0047
665 2 2.2208 10.8532 12.2516 21.9779
666 1 -1.1104 12.3516 7.99114 23.3998
667 1 -1.1104 12.0799 8.09788 26.3428
668 1 -1.1104 12.2461 5.2579 23.5969
669 1 -1.1104 12.2093 10.876 23.4035
670 2 2.2208 10.9131 9.44152 24.8253
671 1 -1.1104 12.2023 5.25802 26.2963
672 1 -1.1104 12.3948 10.8265 26.2598
673 1 -1.1104 9.38826 8.08863 23.3875
679 2 2.2208 13.6811 6.64204 24.9185
674 2 2.2208 10.7508 20.5851 24.8763
521 1 -1.1104 3.76133 13.5529 20.6154
504 1 -1.1104 1.00636 19.3973 20.7608
528 1 -1.1104 3.81831 16.4076 20.6723
502 1 -1.1104 0.951264 13.8277 20.6641
508 1 -1.1104 6.73245 19.1034 20.8131
516 1 -1.1104 6.59925 16.3392 20.8123
681 1 -1.1104 6.65053 13.6495 26.3949
716 1 -1.1104 6.62187 19.4063 26.3783
699 1 -1.1104 0.872414 16.2627 23.4476
697 1 -1.1104 3.87742 13.6143 26.2404
696 1 -1.1104 3.80257 16.4003 26.31
702 2 2.2208 2.38053 15.1415 22.0973
701 2 2.2208 2.3616 20.8956 22.2148
700 1 -1.1104 3.79311 16.5083 23.5496
680 1 -1.1104 3.76049 19.2961 23.3745
682 1 -1.1104 3.76793 13.9672 23.4755
684 1 -1.1104 1.10738 19.4108 26.4364
685 1 -1.1104 0.970739 16.6093 26.2417
686 1 -1.1104 1.01911 13.7438 26.2292
688 2 2.2208 5.13935 20.634 25.0011
689 2 2.2208 5.1948 14.9725 24.8472
691 1 -1.1104 1.04781 19.2248 23.6162
692 1 -1.1104 0.961763 13.5248 23.3879
693 2 2.2208 5.20626 17.7228 22.0878
694 1 -1.1104 3.86193 19.2294 26.3864
695 2 2.2208 2.40296 17.9541 24.9
683 1 -1.1104 6.71782 16.5851 26.3922
687 1 -1.1104 6.43576 19.1583 23.4996
698 1 -1.1104 6.5597 16.4462 23.56
690 1 -1.1104 6.59408 13.6848 23.5687
649 1 -1.1104 12.2245 13.7899 26.4071
715 1 -1.1104 9.4763 13.6595 26.2839
713 2 2.2208 8.12848 14.9795 22.1519
711 1 -1.1104 9.5514 16.5004 23.3664
548 1 -1.1104 9.38689 13.5713 20.68
425 2 2.2208 -0.346682 18.0131 16.6574
706 2 2.2208 -0.416132 15.026 24.9658
617 2 2.2208 -0.322064 12.2738 16.3449
619 2 2.2208 13.5703 12.2544 19.3306
703 2 2.2208 2.3447 20.7536 27.7581
653 2 2.2208 -0.367624 9.58124 24.9016
344 2 2.2208 2.33703 -1.74647 27.6724
588 2 2.2208 13.6552 15.1352 16.4321
586 2 2.2208 13.4676 20.6135 22.0379
345 2 2.2208 2.49213 3.88961 27.6053
338 2 2.2208 5.09543 3.90065 13.6268
396 2 2.2208 -0.326597 20.7774 13.7124
352 2 2.2208 5.29322 6.6484 27.634
356 2 2.2208 10.7714 6.57285 27.6732
676 2 2.2208 10.8401 12.2613 27.7615
353 2 2.2208 2.55473 9.59924 27.6935
705 2 2.2208 2.46563 15.1864 27.6055
343 2 2.2208 5.12076 0.975188 27.6844
424 2 2.2208 -0.301106 15.2231 13.8226
336 2 2.2208 2.37556 1.01612 13.7377
339 2 2.2208 7.95982 1.12229 13.7235
467 2 2.2208 5.21828 9.58939 13.7619
678 2 2.2208 13.5843 9.39732 27.6574
466 2 2.2208 2.38853 6.59102 13.7428
721 2 2.2208 5.30029 23.5795 5.22251
722 2 2.2208 5.26927 29.1103 5.24933
723 1 -1.1104 0.909929 25.0301 1.02562
724 1 -1.1104 0.842509 25.0266 4.01644
725 1 -1.1104 0.890371 22.2199 1.14252
726 1 -1.1104 0.86225 27.9354 0.91564
727 2 2.2208 5.03394 26.4136 2.41864
728 1 -1.1104 0.922269 22.171 3.80773
729 1 -1.1104 0.86701 27.7586 3.86167
730 1 -1.1104 3.72391 25.0042 0.852508
731 2 2.2208 2.27661 23.5564 2.40971
732 2 2.2208 2.30993 29.2942 2.39591
733 1 -1.1104 3.65127 24.9226 3.65225
734 2 2.2208 2.40503 26.3092 5.25007
735 1 -1.1104 3.72066 22.0911 0.894801
736 1 -1.1104 3.72548 27.9098 1.06106
737 1 -1.1104 3.9734 22.2232 3.79598
738 1 -1.1104 3.66222 27.6612 3.79763
746 1 -1.1104 6.62746 22.0573 3.79605
747 1 -1.1104 6.5993 27.7337 3.96681
866 1 -1.1104 6.69292 22.0194 6.5673
742 1 -1.1104 6.69732 25.0572 1.16249
744 1 -1.1104 6.5461 22.2116 1.05921
869 1 -1.1104 3.85865 22.2196 6.57513
743 1 -1.1104 6.68437 24.9275 4.00943
745 1 -1.1104 6.51427 27.7682 1.21827
870 1 -1.1104 3.913 27.7721 6.54631
867 1 -1.1104 6.56975 27.6679 6.6271
814 2 2.2208 13.6127 34.8549 2.39146
767 2 2.2208 13.466 29.0416 2.46879
1043 2 2.2208 -0.404542 31.7771 8.04212
1146 2 2.2208 5.21394 37.5892 13.6172
748 2 2.2208 10.7714 23.4022 5.20518
749 2 2.2208 10.6898 29.0992 5.25273
750 1 -1.1104 12.1739 24.9902 0.973128
751 1 -1.1104 12.1927 24.8484 3.77225
752 1 -1.1104 12.0784 22.0296 1.02211
753 1 -1.1104 12.265 27.6509 1.07704
754 2 2.2208 10.8215 26.2529 2.38454
755 1 -1.1104 12.1575 22.0324 3.77657
756 1 -1.1104 12.2759 27.6086 4.05785
757 1 -1.1104 9.38699 24.8354 1.03393
758 2 2.2208 7.94999 23.452 2.38512
759 2 2.2208 7.98889 29.0683 2.54428
760 1 -1.1104 9.50678 24.7421 3.67872
761 2 2.2208 7.98547 26.3168 5.22232
762 1 -1.1104 9.44093 22.019 0.958551
763 1 -1.1104 9.36226 27.6777 1.20544
764 1 -1.1104 9.43247 22.1201 3.82024
765 1 -1.1104 9.48653 27.6036 3.86784
898 1 -1.1104 9.44187 24.8079 6.519
899 1 -1.1104 9.36038 21.9941 6.66047
1040 2 2.2208 13.6908 34.7031 7.92572
1628 1 -1.1104 6.61434 47.4127 12.2644
900 1 -1.1104 9.45726 27.6922 6.58359
895 1 -1.1104 12.2705 24.8149 6.67207
896 1 -1.1104 12.2938 22.0269 6.61041
1014 1 -1.1104 9.41058 41.525 12.2526
1238 2 2.2208 10.811 43.1101 13.7345
769 2 2.2208 5.23313 34.8249 5.26311
770 1 -1.1104 1.11898 30.6551 0.874679
771 1 -1.1104 1.02378 36.2978 1.04584
773 1 -1.1104 1.00791 30.649 3.82712
774 1 -1.1104 0.930492 36.1179 3.83943
776 1 -1.1104 1.00744 33.4289 0.977235
777 2 2.2208 5.26842 32.0048 2.36361
778 2 2.2208 5.42586 37.5865 2.42277
779 1 -1.1104 0.994545 33.4602 3.84154
781 1 -1.1104 3.96344 30.4872 1.04446
782 1 -1.1104 3.70488 36.2788 1.05645
783 2 2.2208 2.45177 34.7252 2.43227
784 1 -1.1104 3.72049 30.5478 3.84627
785 1 -1.1104 3.82476 36.1776 3.68295
786 2 2.2208 2.44631 31.9995 5.31581
787 2 2.2208 2.39771 37.6225 5.2023
788 1 -1.1104 3.79162 33.3518 1.01136
789 1 -1.1104 3.80512 33.2825 3.87485
793 1 -1.1104 6.67801 30.3593 0.96516
775 1 -1.1104 6.63142 36.127 3.76874
772 1 -1.1104 6.43404 36.1257 0.877987
780 1 -1.1104 6.64079 33.3665 3.71683
794 1 -1.1104 6.59829 30.6566 3.70444
1086 2 2.2208 2.59156 23.5943 13.6953
915 1 -1.1104 1.02999 30.4264 6.60151
916 1 -1.1104 1.08579 36.1699 6.65708
921 1 -1.1104 3.82118 30.4425 6.64771
923 1 -1.1104 3.92524 33.4226 6.63949
918 1 -1.1104 6.63752 36.204 6.52065
920 1 -1.1104 6.67657 33.2921 6.60685
1416 2 2.2208 13.7021 34.9122 13.4275
795 1 -1.1104 6.6299 33.2133 0.962944
1259 2 2.2208 5.19825 23.5619 -0.294613
796 2 2.2208 10.7985 34.8267 5.08637
797 1 -1.1104 12.2234 30.5103 1.0189
798 1 -1.1104 12.0657 36.295 0.903043
799 1 -1.1104 12.1865 30.4517 3.91687
800 1 -1.1104 12.251 36.3053 3.6944
801 1 -1.1104 12.2118 33.5353 1.08985
802 2 2.2208 10.8814 31.8042 2.44703
803 2 2.2208 10.7953 37.6895 2.4208
804 1 -1.1104 12.214 33.2672 3.95187
805 1 -1.1104 9.37563 30.435 1.15107