ITEM: TIMESTEP
20000
ITEM: NUMBER OF ATOMS
17760
ITEM: BOX BOUNDS pp pp pp
-3.8105019118653882e-01 2.7721050191186521e+01
-4.4561072420026226e+00 3.3253610724200109e+02
-3.8198171028121830e-01 2.7721981710281401e+01
ITEM: ATOMS id type q x y z
1 2 2.2208 5.26071 1.30278 5.24392
2 1 -1.1104 1.13912 -2.93566 0.901456
3 1 -1.1104 1.00301 2.50244 0.916337
6 1 -1.1104 1.21138 -3.0251 3.81916
7 1 -1.1104 1.08347 2.88411 3.8294
10 1 -1.1104 1.07985 -0.191666 0.957093
12 2 2.2208 5.26424 -1.55588 2.44135
13 2 2.2208 5.35025 3.9931 2.43188
14 1 -1.1104 1.06579 -0.301897 3.78736
16 1 -1.1104 3.99203 -3.05119 0.994179
17 1 -1.1104 4.00421 2.66044 1.02906
18 2 2.2208 2.50288 1.18454 2.35578
19 1 -1.1104 3.99189 -2.86424 3.7439
20 1 -1.1104 3.8481 2.59879 3.81687
21 2 2.2208 2.43794 -1.52656 5.15441
22 2 2.2208 2.5046 4.07117 5.21388
23 1 -1.1104 3.83795 -0.160166 0.979326
24 1 -1.1104 3.90485 -0.0141541 3.8746
25 2 2.2208 -0.316851 -1.67213 2.38085
26 2 2.2208 -0.285859 1.14581 5.0727
174 1 -1.1104 3.908 -0.100421 6.52831
166 1 -1.1104 1.17541 -2.9337 6.58213
172 1 -1.1104 3.69411 -3.03951 6.51737
173 1 -1.1104 3.98202 2.69123 6.60734
28 2 2.2208 13.47 20.4667 10.7232
341 2 2.2208 10.9416 -1.73126 13.573
529 2 2.2208 2.42578 17.9461 13.8049
170 1 -1.1104 1.15931 -0.0587343 6.49854
167 1 -1.1104 1.18337 2.59302 6.58981
29 2 2.2208 -0.212751 6.70507 10.7453
5 1 -1.1104 6.76593 2.66419 0.841372
15 1 -1.1104 6.57888 -0.316202 3.89264
4 1 -1.1104 6.59556 -3.04494 0.885337
8 1 -1.1104 6.74556 -3.08459 3.82041
9 1 -1.1104 6.80785 2.50654 3.67044
11 1 -1.1104 6.67635 -0.195416 1.08833
31 2 2.2208 11.0191 1.07104 5.04335
32 1 -1.1104 12.1778 -2.9292 1.04824
33 1 -1.1104 12.3449 2.64888 1.21854
34 1 -1.1104 12.2098 -3.09611 3.67894
35 1 -1.1104 12.3272 2.50241 3.82671
36 1 -1.1104 12.27 -0.0904401 0.929129
37 2 2.2208 10.7952 -1.58965 2.30322
38 2 2.2208 10.9118 4.00186 2.4271
39 1 -1.1104 12.2654 -0.385132 3.73058
40 1 -1.1104 9.3981 -2.87304 0.940249
41 1 -1.1104 9.57564 2.59405 1.02881
42 2 2.2208 8.02869 1.08754 2.42671
43 1 -1.1104 9.42928 -3.13402 3.56889
44 1 -1.1104 9.55401 2.51238 3.89024
45 2 2.2208 8.14572 -1.66076 5.18575
46 2 2.2208 8.23402 3.94888 5.24335
47 1 -1.1104 9.42972 -0.238759 0.846328
48 1 -1.1104 9.50745 -0.268791 3.70682
205 1 -1.1104 12.3694 -2.95407 6.48941
207 1 -1.1104 12.4866 -0.221317 6.51536
206 1 -1.1104 12.3751 2.5522 6.66009
135 2 2.2208 -0.177147 15.0502 2.36534
137 2 2.2208 -0.280762 17.9328 5.12868
171 1 -1.1104 6.67073 -0.146783 6.58592
210 1 -1.1104 9.55388 -0.228268 6.53558
209 1 -1.1104 9.50038 2.49912 6.57237
169 1 -1.1104 6.68448 2.62444 6.66499
168 1 -1.1104 6.62922 -2.92734 6.60529
82 2 2.2208 -0.294556 9.55875 2.29092
81 2 2.2208 -0.236872 6.6725 5.08677
54 2 2.2208 5.24183 6.67975 5.20468
55 2 2.2208 5.32962 12.3785 5.12146
56 1 -1.1104 1.03825 8.13249 0.989809
58 1 -1.1104 1.16258 8.29811 3.54259
60 1 -1.1104 1.11883 5.30931 0.786213
61 1 -1.1104 1.06143 11.0372 0.936701
66 2 2.2208 5.34594 9.48988 2.30491
67 1 -1.1104 1.12527 5.55421 3.61587
68 1 -1.1104 1.12526 10.8191 3.66924
71 1 -1.1104 3.87173 8.24097 0.832461
72 2 2.2208 2.60602 6.80966 2.39704
73 2 2.2208 2.55333 12.2983 2.4495
74 1 -1.1104 3.89391 8.21654 3.78916
75 2 2.2208 2.58327 9.5803 5.27445
76 1 -1.1104 3.89055 5.41752 1.04279
77 1 -1.1104 3.95945 10.9933 1.10484
79 1 -1.1104 3.84692 5.32527 3.84381
80 1 -1.1104 3.83731 11.05 3.90047
238 1 -1.1104 4.01522 8.07129 6.61067
59 1 -1.1104 6.77273 8.10727 3.6831
57 1 -1.1104 6.60217 8.21445 0.845336
62 1 -1.1104 1.09572 11.0109 6.46747
234 1 -1.1104 1.04076 8.15455 6.45604
312 2 2.2208 -0.383405 17.878 10.8104
9056 2 2.2208 2.53474 -4.39027 2.24927
64 1 -1.1104 6.73001 10.8694 1.12549
69 1 -1.1104 6.69726 5.42423 3.95167
63 1 -1.1104 6.73862 5.43916 1.10742
70 1 -1.1104 6.60622 10.9403 3.83345
84 2 2.2208 10.8484 6.7412 5.15309
85 2 2.2208 10.8485 12.3893 5.2123
86 1 -1.1104 12.3341 8.19272 0.867265
87 1 -1.1104 12.3099 7.94839 3.71795
88 1 -1.1104 12.3911 5.36059 1.06249
89 1 -1.1104 12.3493 10.9938 1.05576
91 2 2.2208 10.9453 9.66281 2.31081
92 1 -1.1104 12.3117 5.2455 3.84212
93 1 -1.1104 12.3913 10.9555 3.94486
94 1 -1.1104 9.52781 8.1362 0.893408
95 2 2.2208 8.1227 6.64535 2.36109
96 2 2.2208 8.10726 12.3869 2.53408
97 1 -1.1104 9.69012 8.17393 3.68451
98 2 2.2208 8.03343 9.46422 5.07729
99 1 -1.1104 9.49622 5.34102 0.955787
100 1 -1.1104 9.48137 11.0434 0.972651
102 1 -1.1104 9.45821 5.26826 3.87805
103 1 -1.1104 9.4214 10.9387 3.73375
269 1 -1.1104 9.5783 5.30302 6.58621
267 1 -1.1104 9.50569 8.10515 6.56123
266 1 -1.1104 12.3191 5.31071 6.62796
265 1 -1.1104 12.1752 8.05103 6.49673
237 1 -1.1104 6.80224 5.31109 6.82463
494 2 2.2208 10.9093 9.44591 13.716
328 1 -1.1104 12.4257 13.6985 9.41556
466 2 2.2208 2.58842 6.72157 13.6431
530 2 2.2208 5.29393 20.6564 13.6697
493 2 2.2208 8.17039 6.70577 13.5532
106 2 2.2208 5.28481 17.9432 5.04856
107 1 -1.1104 1.21592 13.7133 1.192
109 1 -1.1104 1.0156 19.2909 0.91272
113 1 -1.1104 1.11824 13.6408 3.84638
114 1 -1.1104 1.08972 19.297 3.88182
116 1 -1.1104 1.12549 16.5696 0.814562
119 2 2.2208 5.34497 15.2066 2.34436
120 2 2.2208 5.26645 20.7946 2.39526
121 1 -1.1104 1.02286 16.5661 3.75196
123 1 -1.1104 3.84424 13.8836 0.98585
125 1 -1.1104 3.89221 19.3938 1.03928
127 2 2.2208 2.47563 17.9964 2.44136
128 1 -1.1104 3.92872 13.778 3.78399
129 1 -1.1104 3.92995 19.3928 3.82007
130 2 2.2208 2.53334 15.1129 5.19222
131 2 2.2208 2.41189 20.6338 5.35205
132 1 -1.1104 3.93006 16.6303 1.20324
134 1 -1.1104 3.88093 16.6253 3.91672
338 2 2.2208 5.30752 3.99699 13.6421
326 1 -1.1104 12.2545 16.5784 12.2025
117 1 -1.1104 1.1068 16.5105 6.5178
133 1 -1.1104 3.86007 16.4513 6.59208
115 1 -1.1104 6.63667 13.7476 3.74166
140 1 -1.1104 6.61478 16.6126 0.909675
138 1 -1.1104 6.72707 19.5187 1.08159
126 1 -1.1104 3.89676 19.2352 6.58006
327 1 -1.1104 12.1897 19.2146 9.44909
139 1 -1.1104 6.79261 19.2345 3.85393
122 1 -1.1104 6.7464 16.4667 3.83973
110 1 -1.1104 6.60473 13.7268 0.99714
141 2 2.2208 10.9855 17.9131 5.24157
142 1 -1.1104 12.2457 13.753 1.06676
144 1 -1.1104 12.3546 19.3052 1.1
146 1 -1.1104 12.4259 13.8394 3.80062
147 1 -1.1104 12.4318 19.2247 3.75156
148 1 -1.1104 12.1978 16.3784 1.00276
150 2 2.2208 10.8727 15.0932 2.41155
151 2 2.2208 10.8961 20.6748 2.46557
152 1 -1.1104 12.5452 16.4267 3.82611
153 1 -1.1104 9.32602 13.9687 1.20683
155 1 -1.1104 9.61774 19.3756 1.16548
157 2 2.2208 8.1589 17.9495 2.43625
158 1 -1.1104 9.44832 13.6058 3.9573
159 1 -1.1104 9.55432 19.2739 4.0203
160 2 2.2208 8.04409 15.121 5.23803
161 2 2.2208 8.07585 20.6253 5.14322
162 1 -1.1104 9.44179 16.5898 1.02518
164 1 -1.1104 9.60534 16.4536 3.80139
111 1 -1.1104 6.63728 13.8317 6.53904
330 1 -1.1104 12.3325 13.7602 12.2272
156 1 -1.1104 9.52337 19.1926 6.602
143 1 -1.1104 12.2766 13.7907 6.68018
112 1 -1.1104 6.76384 19.2784 6.531
83 2 2.2208 -0.322407 12.2949 5.0728
9065 2 2.2208 8.04306 -4.52108 7.96415
335 2 2.2208 5.20337 -1.73909 13.5217
297 1 -1.1104 6.60763 13.6745 12.2221
329 1 -1.1104 12.179 19.3335 12.3422
199 2 2.2208 -0.315412 3.9175 7.9661
200 2 2.2208 -0.175787 -1.78723 7.98673
175 2 2.2208 5.28737 1.1099 10.8315
176 1 -1.1104 1.11562 -3.04152 12.3505
177 1 -1.1104 1.07048 2.53175 12.4143
180 1 -1.1104 1.10638 -3.21655 9.46751
181 1 -1.1104 1.20636 2.58046 9.61431
184 1 -1.1104 1.12532 -0.402546 12.0632
186 2 2.2208 5.24633 -1.59299 7.99154
187 2 2.2208 5.34555 3.93623 8.15186
188 1 -1.1104 1.03872 -0.14953 9.35715
190 1 -1.1104 3.8669 -3.14312 12.2017
191 1 -1.1104 3.94529 2.66511 12.2061
192 2 2.2208 2.56209 1.24856 7.9768
193 1 -1.1104 3.812 -2.98464 9.40471
194 1 -1.1104 3.92098 2.53058 9.49619
195 2 2.2208 2.45309 -1.65842 10.7937
196 2 2.2208 2.61358 3.94732 10.8758
197 1 -1.1104 3.79252 -0.264366 12.1679
198 1 -1.1104 3.95568 -0.403849 9.3998
331 2 2.2208 10.7758 17.8461 10.9239
334 2 2.2208 -0.35054 -1.65961 13.6726
154 1 -1.1104 9.32849 13.7703 6.71305
208 1 -1.1104 9.48297 -3.02692 6.39244
149 1 -1.1104 12.1977 16.5183 6.65846
396 2 2.2208 -0.307354 20.6859 13.7449
182 1 -1.1104 6.73803 -3.14037 9.34338
179 1 -1.1104 6.70845 2.54954 12.2855
185 1 -1.1104 6.6926 -0.324895 12.1182
183 1 -1.1104 6.63843 2.61078 9.5096
189 1 -1.1104 6.85498 -0.224601 9.33808
178 1 -1.1104 6.80453 -3.0919 12.2765
211 2 2.2208 11.1029 1.04665 10.6337
212 1 -1.1104 12.3954 -3.05255 12.1796
213 1 -1.1104 12.5222 2.71381 12.1713
214 1 -1.1104 12.4677 -3.15182 9.26383
215 1 -1.1104 12.5149 2.37192 9.41805
216 1 -1.1104 12.2692 -0.186269 12.1598
217 2 2.2208 11.0292 -1.72127 7.92102
218 2 2.2208 10.9747 3.76812 8.00647
219 1 -1.1104 12.3776 -0.319174 9.2916
220 1 -1.1104 9.6876 -3.13719 12.0613
221 1 -1.1104 9.6028 2.51241 12.1366
222 2 2.2208 8.19106 1.08635 7.94983
223 1 -1.1104 9.53701 -3.14801 9.22384
224 1 -1.1104 9.66159 2.41456 9.40132
225 2 2.2208 8.1709 -1.73288 10.717
226 2 2.2208 8.08239 3.82716 10.8172
227 1 -1.1104 9.48101 -0.460285 12.1285
228 1 -1.1104 9.67231 -0.365409 9.2841
118 1 -1.1104 6.66701 16.6128 6.58033
317 2 2.2208 8.09005 15.0824 10.7834
78 1 -1.1104 3.91193 10.8448 6.70307
239 1 -1.1104 3.91266 5.36454 6.61455
236 1 -1.1104 1.10719 5.30817 6.491
9429 2 2.2208 8.22698 -4.45943 13.5985
145 1 -1.1104 12.3546 19.2305 6.69781
240 2 2.2208 5.385 6.69641 10.8284
241 2 2.2208 5.28613 12.414 10.7331
242 1 -1.1104 1.17079 8.06789 12.2283
244 1 -1.1104 1.11378 8.16791 9.37579
246 1 -1.1104 1.17502 5.30956 12.2157
247 1 -1.1104 0.976711 10.9314 12.2018
250 2 2.2208 5.25647 9.45221 8.07575
251 1 -1.1104 1.25106 5.35028 9.37349
252 1 -1.1104 1.08389 10.9714 9.34389
255 1 -1.1104 3.9735 8.25486 12.2383
256 2 2.2208 2.5697 6.73625 7.98289
257 2 2.2208 2.50705 12.4567 7.96618
258 1 -1.1104 3.96274 8.10375 9.40631
259 2 2.2208 2.63267 9.57504 10.8274
260 1 -1.1104 3.96239 5.53615 12.1087
261 1 -1.1104 3.96384 10.9209 12.2472
262 1 -1.1104 3.98887 5.41246 9.42559
263 1 -1.1104 3.83744 10.9869 9.47217
51 2 2.2208 -0.296845 12.3753 10.8231
248 1 -1.1104 6.94484 5.50408 12.1648
253 1 -1.1104 6.79199 5.37504 9.41743
9057 2 2.2208 5.15598 -4.37359 5.10752
324 2 2.2208 10.8156 20.4858 7.85862
314 1 -1.1104 9.52528 16.4269 9.44449
101 1 -1.1104 9.52978 11.0915 6.53156
90 1 -1.1104 12.3781 10.8571 6.69295
65 1 -1.1104 6.88286 10.8339 6.6087
235 1 -1.1104 6.76029 8.05838 6.49729
243 1 -1.1104 6.78749 8.19911 12.2514
249 1 -1.1104 6.82514 10.9804 12.1307
245 1 -1.1104 6.80942 8.06882 9.41661
254 1 -1.1104 6.58059 10.9992 9.43106
264 1 -1.1104 9.54697 10.9293 9.47011
268 1 -1.1104 9.55562 5.14701 9.53481
270 1 -1.1104 9.65481 11.0382 12.2374
271 1 -1.1104 9.61679 5.26966 12.2254
272 2 2.2208 8.21293 9.46491 10.8106
273 1 -1.1104 9.67604 8.05188 9.34492
274 2 2.2208 8.08406 12.3375 8.01002
275 2 2.2208 8.20785 6.69402 8.02018
276 2 2.2208 11.0039 6.70011 10.8479
277 2 2.2208 10.9372 12.2561 10.8712
278 1 -1.1104 12.3031 8.22827 12.1964
279 1 -1.1104 12.315 8.07938 9.42421
280 1 -1.1104 12.4576 5.39714 12.2019
281 1 -1.1104 12.2963 10.8596 12.1674
282 2 2.2208 10.895 9.4482 7.95229
283 1 -1.1104 12.2687 5.2808 9.45832
284 1 -1.1104 12.3127 10.8019 9.58109
285 1 -1.1104 9.47816 7.96893 12.1497
323 1 -1.1104 12.4244 16.4991 9.51693
296 1 -1.1104 6.6565 19.2551 12.1102
302 1 -1.1104 1.02549 19.2077 6.60972
124 1 -1.1104 3.82441 13.6421 6.55378
108 1 -1.1104 0.999053 13.7852 6.65578
286 1 -1.1104 3.88609 19.2549 12.3197
287 1 -1.1104 3.91674 13.6053 12.1415
291 1 -1.1104 1.07082 19.2103 9.49269
292 1 -1.1104 0.99528 16.4633 9.41804
293 2 2.2208 5.33048 20.6783 7.93909
294 1 -1.1104 1.11034 13.7102 9.44946
295 2 2.2208 5.3208 15.169 7.95729
298 1 -1.1104 1.02349 19.2759 12.2981
299 1 -1.1104 1.16181 13.6601 12.3276
300 2 2.2208 5.32016 17.913 10.8937
301 1 -1.1104 3.94839 19.4312 9.37123
303 2 2.2208 2.51669 17.9042 8.1411
304 1 -1.1104 3.87087 16.644 9.43196
305 1 -1.1104 3.85775 13.7916 9.31237
307 1 -1.1104 1.19014 16.6037 12.3305
308 1 -1.1104 3.95311 16.3739 12.2499
309 2 2.2208 2.60258 20.6201 10.8346
310 2 2.2208 2.56678 15.1084 10.8063
289 1 -1.1104 6.73759 16.5341 9.4448
288 1 -1.1104 6.71787 19.3244 9.30838
311 2 2.2208 -0.364078 20.5958 8.01415
319 1 -1.1104 9.61401 13.6176 9.54102
315 1 -1.1104 9.48007 16.5112 12.1184
163 1 -1.1104 9.44129 16.4201 6.63945
322 1 -1.1104 9.46512 13.7869 12.3111
325 2 2.2208 10.9189 15.0899 8.05823
318 1 -1.1104 9.57098 19.2659 9.51093
27 2 2.2208 -0.332168 3.96261 2.28007
30 2 2.2208 -0.331974 9.47945 8.04275
321 1 -1.1104 9.2955 19.1967 12.3835
320 2 2.2208 8.09241 17.7963 7.94357
290 1 -1.1104 6.59703 13.7929 9.41848
306 1 -1.1104 6.67707 16.458 12.2521
316 2 2.2208 8.05983 20.6555 10.6852
336 2 2.2208 2.41843 1.03445 13.6684
337 2 2.2208 -0.268212 4.14342 13.5792
557 2 2.2208 11.0668 15.0566 13.6035
356 2 2.2208 11.0008 6.72879 -0.417926
349 2 2.2208 8.18257 3.94862 -0.407266
346 2 2.2208 -0.305857 1.08135 -0.427889
339 2 2.2208 8.1399 1.11248 13.4836
615 2 2.2208 8.06182 20.7814 -0.342747
589 2 2.2208 -0.228217 9.57394 13.6061
357 2 2.2208 5.23104 1.12579 16.4511
358 1 -1.1104 1.13576 -3.17972 17.8567
359 1 -1.1104 1.21336 2.59858 17.9957
362 1 -1.1104 0.994223 -3.03079 15.0681
364 1 -1.1104 1.25275 2.54572 15.1916
370 1 -1.1104 1.15686 -0.191074 17.7669
372 2 2.2208 5.26051 -1.7231 19.319
373 2 2.2208 5.44099 3.76658 19.3625
374 1 -1.1104 0.987965 -0.271946 15.0378
378 1 -1.1104 3.92067 -3.05565 17.8711
379 1 -1.1104 3.96313 2.32932 17.9526
380 2 2.2208 2.5867 1.21876 19.3464
381 1 -1.1104 3.7636 -3.29926 15.1022
383 1 -1.1104 3.92091 2.36747 15.11
385 2 2.2208 2.37232 -1.68404 16.4901
386 2 2.2208 2.5512 3.85563 16.5151
387 1 -1.1104 3.84076 -0.337142 17.8627
388 1 -1.1104 3.69358 -0.484759 15.113
704 2 2.2208 5.24025 18.0026 27.7162
398 2 2.2208 -0.213099 4.06128 19.2469
343 2 2.2208 5.28568 1.243 27.6994
375 1 -1.1104 1.05662 -0.153841 20.6294
360 1 -1.1104 6.6512 -3.0054 17.6459
389 1 -1.1104 4.06472 -0.202118 20.6838
382 1 -1.1104 3.97824 -3.11455 20.7097
394 2 2.2208 -0.262442 -1.59396 19.2034
366 1 -1.1104 6.65009 -3.08555 15.0036
361 1 -1.1104 6.78703 2.6151 17.8256
368 1 -1.1104 6.71243 2.61743 15.0801
371 1 -1.1104 6.63976 -0.193732 17.9113
376 1 -1.1104 6.53402 -0.212342 14.8786
400 2 2.2208 10.8452 1.19671 16.3169
401 1 -1.1104 12.397 -2.99702 17.8404
402 1 -1.1104 12.4232 2.45491 17.7322
403 1 -1.1104 12.2876 -2.96805 15.1044
405 1 -1.1104 12.3502 2.61545 15.0177
407 1 -1.1104 12.3964 -0.270313 17.7634
408 2 2.2208 10.9646 -1.53077 19.0491
409 2 2.2208 10.9039 3.91641 19.1508
410 1 -1.1104 12.3775 -0.305503 14.8622
412 1 -1.1104 9.61425 -2.90569 17.8009
413 1 -1.1104 9.50774 2.41941 17.908
414 2 2.2208 8.12295 1.02593 19.2465
415 1 -1.1104 9.47043 -3.0504 14.8658
417 1 -1.1104 9.5767 2.48964 14.9264
419 2 2.2208 8.02842 -1.45133 16.4325
420 2 2.2208 8.12024 3.86368 16.4084
421 1 -1.1104 9.49521 -0.182947 17.7512
422 1 -1.1104 9.40782 -0.227352 14.9717
411 1 -1.1104 12.5499 -0.162342 20.497
423 1 -1.1104 9.64566 -0.197608 20.7201
377 1 -1.1104 6.81419 -0.364155 20.7607
369 1 -1.1104 6.83903 2.36324 20.7072
404 1 -1.1104 12.3884 -2.88103 20.707
367 1 -1.1104 6.74036 -3.00758 20.6298
590 2 2.2208 -0.214312 6.77077 16.3677
617 2 2.2208 -0.311136 12.2196 16.4221
433 2 2.2208 5.438 6.74593 16.5263
434 2 2.2208 5.2832 12.4499 16.4527
435 1 -1.1104 1.1237 8.20696 17.8382
437 1 -1.1104 1.17046 8.16258 14.9635
441 1 -1.1104 1.14445 5.38584 17.7555
442 1 -1.1104 1.19088 10.9752 17.8122
445 2 2.2208 5.37973 9.55889 19.231
446 1 -1.1104 1.31445 5.30644 15.0093
448 1 -1.1104 1.1452 10.9532 15.1221
454 1 -1.1104 3.98303 8.18691 17.8189
455 2 2.2208 2.52855 6.65398 19.2541
456 2 2.2208 2.50606 12.3914 19.215
457 1 -1.1104 3.85992 8.18474 15.003
459 2 2.2208 2.57482 9.5798 16.4711
460 1 -1.1104 3.95759 5.23531 17.9896
461 1 -1.1104 3.87867 11.1783 17.8018
462 1 -1.1104 3.92761 5.26242 15.0622
464 1 -1.1104 3.92658 11.0351 15.0464
591 2 2.2208 -0.272298 9.51196 19.2084
444 1 -1.1104 6.65913 10.8928 17.7642
393 2 2.2208 -0.201639 1.1777 16.4793
438 1 -1.1104 1.11248 8.04186 20.5959
449 1 -1.1104 1.12785 10.9486 20.5533
447 1 -1.1104 1.10827 5.31496 20.6295
443 1 -1.1104 6.81628 5.21221 17.7556
439 1 -1.1104 6.66428 8.23883 15.0364
450 1 -1.1104 6.69047 5.45912 14.9488
452 1 -1.1104 6.80535 11.0575 15.0003
436 1 -1.1104 6.80936 8.00087 17.8455
469 2 2.2208 10.9121 6.75042 16.382
470 2 2.2208 11.0728 12.2663 16.4935
471 1 -1.1104 12.2876 7.91228 17.8132
472 1 -1.1104 12.3213 8.06227 15.0212
474 1 -1.1104 12.5763 5.208 17.7248
475 1 -1.1104 12.2495 10.688 17.8028
476 2 2.2208 10.8548 9.44661 19.1587
477 1 -1.1104 12.2519 5.34991 14.9148
479 1 -1.1104 12.2963 10.8372 14.9722
481 1 -1.1104 9.43437 8.16571 17.7199
482 2 2.2208 8.07096 6.74142 19.2995
483 2 2.2208 8.11038 12.3198 19.1533
484 1 -1.1104 9.44194 8.14049 15.0005
486 2 2.2208 8.07228 9.59175 16.307
487 1 -1.1104 9.70844 5.18246 17.6945
488 1 -1.1104 9.55545 10.9413 17.8405
489 1 -1.1104 9.5343 5.40191 15.0421
491 1 -1.1104 9.65307 11.0111 15.1978
485 1 -1.1104 9.44348 7.98148 20.6281
451 1 -1.1104 6.72026 5.29246 20.7162
490 1 -1.1104 9.5145 5.25572 20.5756
492 1 -1.1104 9.48205 10.7571 20.6233
347 2 2.2208 10.996 1.13262 27.6923
426 2 2.2208 -0.383634 15.1474 19.2696
344 2 2.2208 2.50172 -1.59764 27.656
427 2 2.2208 -0.27296 20.7828 19.3175
496 2 2.2208 5.38554 17.9632 16.4536
497 1 -1.1104 1.19932 13.8421 17.9395
498 1 -1.1104 1.20487 19.35 17.994
501 1 -1.1104 1.06934 13.7489 15.091
503 1 -1.1104 1.13779 19.2495 15.1487
509 1 -1.1104 1.04235 16.5514 17.85
511 2 2.2208 5.27338 15.2191 19.3269
512 2 2.2208 5.31052 20.9681 19.3838
513 1 -1.1104 1.10292 16.5916 15.0938
517 1 -1.1104 3.90589 13.8798 17.7715
518 1 -1.1104 3.96494 19.4866 17.9485
519 2 2.2208 2.58199 17.9787 19.284
520 1 -1.1104 3.711 13.7763 14.9613
522 1 -1.1104 4.00718 19.1976 15.0913
524 2 2.2208 2.45914 15.2148 16.4218
525 2 2.2208 2.59241 20.6623 16.5045
526 1 -1.1104 3.78362 16.7099 17.8113
527 1 -1.1104 3.86209 16.4865 15.1124
425 2 2.2208 -0.315089 17.9358 16.4653
528 1 -1.1104 3.8112 16.5929 20.7762
516 1 -1.1104 6.71754 16.6607 20.672
653 2 2.2208 -0.224308 9.44838 24.7475
523 1 -1.1104 3.97776 19.4368 20.6373
514 1 -1.1104 1.13673 16.5148 20.6754
521 1 -1.1104 3.90872 13.6972 20.6837
355 2 2.2208 -0.271353 6.8015 27.6654
650 1 -1.1104 12.3526 19.2119 26.2799
500 1 -1.1104 6.87684 19.3148 17.8592
654 2 2.2208 -0.435058 12.3715 22.0365
505 1 -1.1104 6.68236 13.7164 14.9649
507 1 -1.1104 6.80506 19.1966 15.0949
510 1 -1.1104 6.6524 16.6398 17.9857
515 1 -1.1104 6.61029 16.3963 15.0304
499 1 -1.1104 6.77814 13.7657 17.8103
532 2 2.2208 10.984 17.9153 16.4131
533 1 -1.1104 12.3487 13.4869 17.9801
534 1 -1.1104 12.495 19.1032 17.969
535 1 -1.1104 12.3622 13.8682 15.0745
537 1 -1.1104 12.3054 19.6929 15.093
539 1 -1.1104 12.3849 16.3558 17.8554
540 2 2.2208 10.9079 15.0356 19.2028
541 2 2.2208 10.9552 20.6105 19.3031
542 1 -1.1104 12.4082 16.8124 15.0064
544 1 -1.1104 9.53653 13.6808 17.704
545 1 -1.1104 9.66233 19.2877 17.7523
546 2 2.2208 8.08074 17.8697 19.3083
547 1 -1.1104 9.58669 13.7432 14.981
549 1 -1.1104 9.42972 19.1116 15.1842
551 2 2.2208 8.11137 15.1635 16.2895
552 2 2.2208 8.10696 20.6598 16.5362
553 1 -1.1104 9.46854 16.4736 17.7154
554 1 -1.1104 9.72042 16.3534 14.917
506 1 -1.1104 6.61959 13.8416 20.7587
536 1 -1.1104 12.2003 13.8207 20.7665
543 1 -1.1104 12.4193 16.5673 20.576
508 1 -1.1104 6.80063 19.3294 20.9696
550 1 -1.1104 9.48197 19.1605 20.5706
384 1 -1.1104 3.97389 2.42552 20.77
708 2 2.2208 -0.409606 20.7583 24.8131
622 2 2.2208 13.7531 -1.59639 22.0489
363 1 -1.1104 1.08017 -2.9739 20.5519
595 2 2.2208 -0.342413 3.86571 24.8729
392 2 2.2208 13.693 3.96298 22.006
614 2 2.2208 10.9252 17.9344 27.7796
365 1 -1.1104 1.16636 2.70045 20.7336
560 2 2.2208 5.39316 1.01177 22.1741
561 1 -1.1104 0.877227 -3.06928 23.4898
562 1 -1.1104 0.977084 2.37591 23.5904
565 1 -1.1104 1.0083 -3.12271 26.3269
566 1 -1.1104 1.09347 2.56759 26.3311
569 1 -1.1104 1.28598 -0.348217 23.3416
571 2 2.2208 5.41021 -1.61525 25.0339
572 2 2.2208 5.37061 3.88235 24.7449
573 1 -1.1104 1.02741 -0.240379 26.2307
575 1 -1.1104 3.88871 -3.15089 23.5108
576 1 -1.1104 3.93391 2.51065 23.4038
577 2 2.2208 2.50889 1.05096 24.8018
578 1 -1.1104 3.92429 -3.05315 26.2918
579 1 -1.1104 3.87555 2.48267 26.1708
580 2 2.2208 2.57063 -1.80877 22.0352
581 2 2.2208 2.52473 3.9172 22.0567
582 1 -1.1104 3.93322 -0.324631 23.5002
583 1 -1.1104 3.89161 -0.16285 26.346
703 2 2.2208 2.49594 20.723 27.775
709 2 2.2208 -0.39234 17.9574 22.0133
348 2 2.2208 8.08431 -1.69842 27.6383
418 1 -1.1104 9.62896 2.54175 20.6648
406 1 -1.1104 12.4462 2.47378 20.7695
9418 2 2.2208 -0.430448 -4.34871 21.9579
416 1 -1.1104 9.50742 -2.998 20.4557
568 1 -1.1104 6.72838 2.62624 26.1637
567 1 -1.1104 6.73934 -2.98266 26.2501
574 1 -1.1104 6.62946 -0.255047 26.4484
570 1 -1.1104 6.79675 -0.139979 23.6175
563 1 -1.1104 6.72133 -3.00754 23.5108
564 1 -1.1104 6.77181 2.56431 23.4769
596 2 2.2208 10.9449 1.11059 22.0903
597 1 -1.1104 12.3055 -3.00018 23.5706
598 1 -1.1104 12.258 2.39988 23.434
599 1 -1.1104 12.3605 -2.98132 26.381
600 1 -1.1104 12.3697 2.51693 26.3788
601 1 -1.1104 12.2645 -0.276872 23.4761
602 2 2.2208 10.9652 -1.6815 24.9735
603 2 2.2208 10.8282 3.98421 24.9063
604 1 -1.1104 12.3317 -0.211016 26.2809
605 1 -1.1104 9.46197 -2.97889 23.3634
606 1 -1.1104 9.60759 2.66222 23.3996
607 2 2.2208 8.23863 1.20882 24.8663
608 1 -1.1104 9.46823 -3.021 26.2223
609 1 -1.1104 9.54924 2.56807 26.249
610 2 2.2208 8.18788 -1.57845 22.0528
611 2 2.2208 8.13865 3.8802 22.0837
612 1 -1.1104 9.57334 -0.162803 23.4771
613 1 -1.1104 9.53521 -0.273807 26.2042
675 2 2.2208 8.08861 9.51863 27.6791
345 2 2.2208 2.58545 4.04367 27.6742
9472 2 2.2208 10.9757 -4.35654 16.4646
649 1 -1.1104 12.3801 13.6706 26.373
390 2 2.2208 -0.160183 6.75559 22.0212
465 1 -1.1104 3.90729 10.8896 20.7133
674 2 2.2208 10.787 20.7952 24.8839
458 1 -1.1104 3.7979 8.08719 20.6233
463 1 -1.1104 4.01673 5.28299 20.6153
625 2 2.2208 5.3422 6.78745 22.0723
626 2 2.2208 5.20897 12.2734 22.0665
627 1 -1.1104 1.1597 7.96541 23.3514
629 1 -1.1104 0.958013 8.16157 26.2258
631 1 -1.1104 1.09029 5.2398 23.4625
632 1 -1.1104 1.07698 10.8276 23.4331
635 2 2.2208 5.22292 9.59517 24.9877
636 1 -1.1104 1.0863 5.24066 26.2209
637 1 -1.1104 1.08517 10.9576 26.3899
640 1 -1.1104 3.86661 8.09944 23.4894
641 2 2.2208 2.43641 6.70312 24.8898
642 2 2.2208 2.44076 12.3038 24.8642
643 1 -1.1104 3.96714 8.07538 26.1491
644 2 2.2208 2.52586 9.4193 22.0441
645 1 -1.1104 3.87301 5.40189 23.3369
646 1 -1.1104 3.8808 10.9571 23.4614
647 1 -1.1104 4.02471 5.24822 26.3636
648 1 -1.1104 3.84023 10.9674 26.3707
440 1 -1.1104 6.58305 8.02275 20.547
639 1 -1.1104 6.64382 11.0946 26.3848
634 1 -1.1104 6.61828 10.8943 23.4744
9305 2 2.2208 10.7698 -4.35605 22.0154
714 1 -1.1104 9.43943 19.3359 26.4112
478 1 -1.1104 12.3958 5.43219 20.5457
473 1 -1.1104 12.2146 8.19044 20.6001
453 1 -1.1104 6.69575 11.0352 20.5793
480 1 -1.1104 12.3285 11.0151 20.6583
628 1 -1.1104 6.69966 8.15562 23.3325
633 1 -1.1104 6.6365 5.39525 23.4926
630 1 -1.1104 6.64241 8.19107 26.2391
638 1 -1.1104 6.82651 5.35177 26.2502
656 1 -1.1104 9.48427 10.9109 26.3254
657 1 -1.1104 9.66214 5.41314 26.1819
658 1 -1.1104 9.32247 10.9798 23.5188
659 1 -1.1104 9.30035 5.37431 23.3325
660 2 2.2208 8.18258 9.56632 22.0453
661 1 -1.1104 9.50072 8.23186 26.2565
662 2 2.2208 7.98388 12.4538 24.7167
663 2 2.2208 8.11786 6.87048 24.7431
664 2 2.2208 10.9108 6.64821 21.9856
665 2 2.2208 10.8664 12.3744 22.1506
666 1 -1.1104 12.2928 8.05708 23.4388
667 1 -1.1104 12.3886 8.18447 26.2114
668 1 -1.1104 12.2619 5.31314 23.4234
669 1 -1.1104 12.2826 10.7512 23.6181
670 2 2.2208 10.8496 9.5262 24.9281
671 1 -1.1104 12.3882 5.22393 26.2772
672 1 -1.1104 12.3144 10.9401 26.4008
673 1 -1.1104 9.55775 8.19405 23.4269
624 1 -1.1104 12.2491 19.4976 23.482
706 2 2.2208 -0.421739 15.2102 24.9279
683 1 -1.1104 6.59375 16.5456 26.1828
504 1 -1.1104 1.13094 19.3165 20.7892
502 1 -1.1104 0.935906 13.5875 20.7237
681 1 -1.1104 6.69662 13.787 26.1601
699 1 -1.1104 1.07544 16.5679 23.4332
697 1 -1.1104 3.76144 13.7245 26.198
696 1 -1.1104 3.87859 16.5148 26.3647
702 2 2.2208 2.33871 15.202 22.2412
701 2 2.2208 2.51629 20.8141 22.1876
700 1 -1.1104 3.87423 16.4312 23.6357
680 1 -1.1104 3.76023 19.1693 23.5319
682 1 -1.1104 3.83796 13.6577 23.4712
684 1 -1.1104 1.0068 19.3193 26.284
685 1 -1.1104 1.06081 16.4992 26.2262
686 1 -1.1104 1.07168 13.7033 26.3513
688 2 2.2208 5.2691 20.7525 25.0771
689 2 2.2208 5.29942 15.1112 24.8543
691 1 -1.1104 1.05348 19.4983 23.4599
692 1 -1.1104 0.866152 13.7498 23.5448
693 2 2.2208 5.27806 17.9431 22.157
694 1 -1.1104 3.92132 19.4925 26.3191
695 2 2.2208 2.47827 17.9045 24.8875
716 1 -1.1104 6.73732 19.3827 26.5598
705 2 2.2208 2.35809 15.1586 27.7158
715 1 -1.1104 9.49069 13.7703 26.317
616 2 2.2208 10.9483 17.8904 22.0532
717 2 2.2208 8.0917 17.8889 24.9758
713 2 2.2208 8.00361 15.0795 22.1142
720 1 -1.1104 12.4979 16.5346 26.434
687 1 -1.1104 6.60841 19.2841 23.81
555 1 -1.1104 9.46436 16.3065 20.6898
718 1 -1.1104 9.56477 19.2694 23.5576
652 1 -1.1104 12.3296 16.5857 23.5142
690 1 -1.1104 6.58684 13.6729 23.4723
655 2 2.2208 10.913 15.1217 24.9276
548 1 -1.1104 9.42112 13.6068 20.6463
719 1 -1.1104 9.52544 13.6507 23.5132
711 1 -1.1104 9.43877 16.4322 23.4812
621 1 -1.1104 12.2656 13.7797 23.6129
538 1 -1.1104 12.195 19.3017 20.7204
710 1 -1.1104 9.54682 16.482 26.3658
698 1 -1.1104 6.71895 16.4466 23.4121
712 2 2.2208 8.228 20.6648 22.0864
353 2 2.2208 2.49074 9.55543 27.6322
9440 2 2.2208 8.05443 -4.38716 19.1961
9357 2 2.2208 2.40649 -4.40713 24.9035
468 2 2.2208 2.60103 12.2837 13.6278
594 2 2.2208 -0.225304 1.14062 22.0947
676 2 2.2208 10.9055 12.4112 27.7396
424 2 2.2208 -0.173613 15.0903 13.5881
651 2 2.2208 5.29198 12.4688 27.7418
587 2 2.2208 13.7814 17.6553 19.3109
354 2 2.2208 -0.241965 12.3521 27.6333
531 2 2.2208 5.34303 14.9941 13.5754
467 2 2.2208 5.39501 9.67395 13.6071
431 2 2.2208 13.6844 15.1239 22.0897
432 2 2.2208 13.7784 17.9605 24.9819
352 2 2.2208 5.33729 6.70235 27.6207
558 2 2.2208 8.05512 17.8908 13.7074
592 2 2.2208 8.08528 15.1897 27.7576
495 2 2.2208 8.1923 12.394 13.6584
556 2 2.2208 10.7579 20.7072 13.5561
342 2 2.2208 11.0028 3.87889 13.577
721 2 2.2208 5.15725 23.4245 5.25135
722 2 2.2208 5.26989 29.1514 5.339
723 1 -1.1104 0.997506 24.864 1.04801
724 1 -1.1104 0.891858 24.9861 3.89981
725 1 -1.1104 0.998232 22.1084 1.16744
726 1 -1.1104 1.01432 27.7622 0.9611
727 2 2.2208 5.31386 26.4836 2.45837
728 1 -1.1104 1.13647 22.1076 3.86339
729 1 -1.1104 1.09659 27.7753 3.87801
730 1 -1.1104 3.74698 24.9563 1.04744
731 2 2.2208 2.42275 23.5509 2.4785
732 2 2.2208 2.35859 29.1445 2.57255
733 1 -1.1104 3.77241 25.0746 3.85292
734 2 2.2208 2.51203 26.1963 5.30331
735 1 -1.1104 4.03825 22.2559 1.06933
736 1 -1.1104 3.78659 27.7731 0.979217
737 1 -1.1104 3.81813 22.1513 3.96381
738 1 -1.1104 3.83453 27.7869 3.91822
1665 1 -1.1104 12.212 47.3588 9.44654
1468 1 -1.1104 12.1706 47.4743 1.11531
744 1 -1.1104 6.64671 22.2523 1.10888
868 1 -1.1104 3.93269 24.8258 6.72419
864 1 -1.1104 1.08116 21.9368 6.74116
869 1 -1.1104 3.85391 22.1323 6.62975
1622 1 -1.1104 1.09062 47.1672 6.78047
791 2 2.2208 -0.261049 31.9938 2.59923
742 1 -1.1104 6.55766 25.1616 0.969411
1288 2 2.2208 8.10919 26.401 -0.354485
745 1 -1.1104 6.72333 27.8002 1.15041
743 1 -1.1104 6.60884 24.7629 3.8777
746 1 -1.1104 6.59609 21.9634 3.80091
747 1 -1.1104 6.76399 27.5944 3.89014
748 2 2.2208 10.8714 23.4203 5.27163
749 2 2.2208 10.9415 29.0886 5.35849
750 1 -1.1104 12.4223 24.8472 1.0895
751 1 -1.1104 12.3354 24.7624 3.87398
752 1 -1.1104 12.2375 22.068 1.05011
753 1 -1.1104 12.2467 27.8049 1.26308
754 2 2.2208 10.9399 26.3359 2.62022
755 1 -1.1104 12.2305 21.9759 3.83224
756 1 -1.1104 12.4738 27.5812 4.03831
757 1 -1.1104 9.53848 25.0327 1.10014
758 2 2.2208 8.05645 23.5522 2.38672
759 2 2.2208 8.06476 29.2127 2.58559
760 1 -1.1104 9.49733 25.0314 3.93237
761 2 2.2208 7.9415 26.178 5.31594
762 1 -1.1104 9.48913 22.2131 1.03283
763 1 -1.1104 9.43069 27.8067 1.18553
764 1 -1.1104 9.23314 22.1228 3.80181
765 1 -1.1104 9.6206 27.9408 3.67823
898 1 -1.1104 9.41325 24.7982 6.53528
899 1 -1.1104 9.51773 21.9809 6.53254
866 1 -1.1104 6.60984 22.0275 6.61387
867 1 -1.1104 6.65436 27.7103 6.67177
895 1 -1.1104 12.257 24.8874 6.53386
1293 2 2.2208 10.836 29.0221 -0.130436
741 2 2.2208 -0.255107 23.5889 5.19454
1019 1 -1.1104 12.2669 38.8927 12.2706
1039 2 2.2208 -0.31542 29.0746 10.9826
769 2 2.2208 5.06034 34.8497 5.35129
770 1 -1.1104 1.00935 30.709 1.06731
771 1 -1.1104 1.02189 36.3471 0.98848
773 1 -1.1104 1.24302 30.5921 3.92549
774 1 -1.1104 0.864146 36.2473 3.91678
776 1 -1.1104 1.15181 33.4453 1.14407
777 2 2.2208 5.09229 31.9983 2.52325
778 2 2.2208 5.20731 37.6954 2.43564
779 1 -1.1104 1.07657 33.4759 3.86906
781 1 -1.1104 3.80164 30.6052 1.01026
782 1 -1.1104 3.96421 36.2928 1.00439
783 2 2.2208 2.42847 34.7715 2.55127
784 1 -1.1104 3.99431 30.3292 3.74883
785 1 -1.1104 3.70643 36.2175 3.78649
786 2 2.2208 2.50363 31.9116 5.4428
787 2 2.2208 2.37098 37.5377 5.35501
788 1 -1.1104 3.75211 33.4188 1.01712
789 1 -1.1104 3.81961 33.346 3.94166
921 1 -1.1104 3.80312 30.6055 6.74374
1040 2 2.2208 13.519 34.8225 8.14313
923 1 -1.1104 3.81445 33.4014 6.75547
1317 2 2.2208 2.34325 37.5742 -0.34862
1656 1 -1.1104 9.36493 47.3062 6.60841
1446 1 -1.1104 3.83347 47.4573 1.15112
1623 1 -1.1104 6.59483 47.4589 6.86942
793 1 -1.1104 6.51503 30.7582 1.06049
780 1 -1.1104 6.68669 33.2015 3.88031
795 1 -1.1104 6.57807 33.4349 1.16242
772 1 -1.1104 6.62638 36.2896 1.19903
794 1 -1.1104 6.62963 30.4737 3.94099
775 1 -1.1104 6.44097 36.1074 3.89519
796 2 2.2208 10.8413 34.7606 5.31744
797 1 -1.1104 12.1502 30.6191 1.19562
798 1 -1.1104 12.3607 36.1225 1.20943
799 1 -1.1104 12.329 30.426 4.1227
800 1 -1.1104 12.4022 36.1236 3.95448
801 1 -1.1104 12.1843 33.3481 1.08987
802 2 2.2208 10.7098 32.0761 2.49676
803 2 2.2208 10.8106 37.5686 2.5518
804 1 -1.1104 12.2319 33.4247 3.84804
805 1 -1.1104 9.30927 30.6306 1.21378
806 1 -1.1104 9.46155 36.2614 1.13937
807 2 2.2208 8.04383 34.8546 2.67936
808 1 -1.1104 9.54441 30.671 3.93515
809 1 -1.1104 9.54581 36.1956 3.94455
810 2 2.2208 8.03965 31.973 5.25493