ITEM: TIMESTEP
100000
ITEM: NUMBER OF ATOMS
17760
ITEM: BOX BOUNDS pp pp pp
-3.6709025310074617e-01 2.7707090253100727e+01
-4.6299420837135186e+00 3.3270994208369876e+02
-3.8063397346951139e-01 2.7720633973469443e+01
ITEM: ATOMS id type q x y z
1 2 2.2208 5.28646 0.98612 5.42525
2 1 -1.1104 1.12259 -3.00354 0.894319
3 1 -1.1104 1.05898 2.50954 1.09262
6 1 -1.1104 1.03667 -3.37487 3.84566
7 1 -1.1104 1.05782 2.42148 3.87509
10 1 -1.1104 1.1086 -0.130755 1.04397
12 2 2.2208 5.34905 -1.78809 2.52863
13 2 2.2208 5.33241 3.82707 2.55922
14 1 -1.1104 1.2525 -0.387998 3.90066
16 1 -1.1104 3.90863 -3.10928 1.20586
17 1 -1.1104 3.84521 2.40186 1.03768
18 2 2.2208 2.46239 1.14446 2.45441
19 1 -1.1104 3.79108 -3.04108 3.8888
20 1 -1.1104 3.85276 2.34136 3.9218
21 2 2.2208 2.48965 -1.72007 5.29592
22 2 2.2208 2.48844 3.81543 5.26099
23 1 -1.1104 3.87093 -0.282134 1.04082
24 1 -1.1104 3.85636 -0.320709 3.98308
26 2 2.2208 -0.240519 1.09513 5.35829
9065 2 2.2208 8.15066 -4.56605 8.0827
25 2 2.2208 -0.183854 -1.77412 2.56379
9060 2 2.2208 10.9571 -4.58965 5.26762
313 2 2.2208 -0.326541 14.973 7.93627
28 2 2.2208 13.478 20.7791 10.7464
9064 2 2.2208 -0.210023 -4.5771 10.9152
556 2 2.2208 10.7438 20.7136 13.6489
9071 2 2.2208 10.9699 -4.43204 -0.350857
332 2 2.2208 13.6227 17.871 8.11486
9 1 -1.1104 6.6034 2.25809 3.86205
5 1 -1.1104 6.62429 2.48726 1.01779
11 1 -1.1104 6.71705 -0.452963 1.02596
4 1 -1.1104 6.78424 -3.08508 0.985502
8 1 -1.1104 6.7585 -3.27643 3.74071
15 1 -1.1104 6.71914 -0.481815 3.83725
31 2 2.2208 10.8496 1.08655 5.27112
32 1 -1.1104 12.4514 -3.19057 1.04394
33 1 -1.1104 12.3304 2.28037 1.07517
34 1 -1.1104 12.2158 -3.20065 3.71391
35 1 -1.1104 12.3788 2.37103 3.72682
36 1 -1.1104 12.4421 -0.416957 0.940024
37 2 2.2208 10.9892 -1.68884 2.28085
38 2 2.2208 10.9069 3.83214 2.38828
39 1 -1.1104 12.2223 -0.362077 3.78295
40 1 -1.1104 9.5668 -3.14346 1.01046
41 1 -1.1104 9.5992 2.46841 0.993831
42 2 2.2208 8.03035 1.00667 2.32898
43 1 -1.1104 9.51355 -3.27462 3.78674
44 1 -1.1104 9.45865 2.46826 3.88623
45 2 2.2208 8.21721 -1.75893 5.26064
47 1 -1.1104 9.64372 -0.344509 0.956142
48 1 -1.1104 9.42676 -0.288811 3.71932
46 2 2.2208 8.09803 3.76432 5.19158
168 1 -1.1104 6.8167 -3.37112 6.5456
210 1 -1.1104 9.74524 -0.433867 6.66042
206 1 -1.1104 12.2859 2.56231 6.7279
9056 2 2.2208 2.47934 -4.44117 2.36516
229 2 2.2208 13.6222 1.09959 8.15229
81 2 2.2208 -0.256739 6.61577 5.26377
82 2 2.2208 -0.268047 9.4186 2.62792
54 2 2.2208 5.25292 6.53866 5.18763
55 2 2.2208 5.31233 12.2413 5.14648
56 1 -1.1104 0.961684 8.07867 1.14785
58 1 -1.1104 1.15704 8.0195 4.02915
60 1 -1.1104 1.08908 5.22239 1.0482
61 1 -1.1104 1.02669 10.8933 1.2633
66 2 2.2208 5.23625 9.30536 2.50384
67 1 -1.1104 1.19782 5.13292 3.87541
68 1 -1.1104 1.20963 10.7523 3.98143
71 1 -1.1104 3.85585 7.95835 1.13471
72 2 2.2208 2.38154 6.5462 2.35044
73 2 2.2208 2.47116 12.1587 2.56273
74 1 -1.1104 3.79027 7.9482 3.83338
75 2 2.2208 2.54906 9.42095 5.35233
76 1 -1.1104 4.05958 5.30259 0.915491
77 1 -1.1104 3.81771 10.7344 0.996257
79 1 -1.1104 3.85395 5.08509 3.76202
80 1 -1.1104 3.99979 10.7367 3.76445
83 2 2.2208 -0.281797 12.1181 5.25403
239 1 -1.1104 3.81967 5.16181 6.70589
63 1 -1.1104 6.8197 5.19709 1.18659
9059 2 2.2208 8.11913 -4.62846 2.43623
145 1 -1.1104 12.4696 19.1455 6.59156
316 2 2.2208 7.9534 20.609 10.8142
105 2 2.2208 13.5835 6.53542 2.50607
558 2 2.2208 8.06686 17.8077 13.6882
70 1 -1.1104 6.70883 10.621 3.72469
59 1 -1.1104 6.77585 7.84948 3.85635
64 1 -1.1104 6.59398 10.8301 0.904657
69 1 -1.1104 6.79246 5.15715 3.94638
57 1 -1.1104 6.57674 8.0617 1.03401
84 2 2.2208 10.8861 6.62146 5.2756
85 2 2.2208 10.9655 12.226 5.2788
86 1 -1.1104 12.2829 7.98551 1.04893
87 1 -1.1104 12.327 7.98635 3.80523
88 1 -1.1104 12.3226 5.13509 1.04805
89 1 -1.1104 12.2708 10.837 1.01467
91 2 2.2208 10.9036 9.45393 2.36176
92 1 -1.1104 12.348 5.16548 3.86691
93 1 -1.1104 12.3061 10.8159 3.82552
94 1 -1.1104 9.38938 8.04125 1.0034
95 2 2.2208 8.06402 6.6139 2.51257
96 2 2.2208 8.02937 12.0753 2.34806
97 1 -1.1104 9.45463 7.83455 3.97701
98 2 2.2208 8.16671 9.41608 5.31689
99 1 -1.1104 9.64048 5.16449 1.07973
100 1 -1.1104 9.43844 10.7892 0.965688
102 1 -1.1104 9.56631 5.12438 3.74825
103 1 -1.1104 9.49126 10.6278 3.79295
265 1 -1.1104 12.3018 7.92294 6.64618
267 1 -1.1104 9.52352 7.89377 6.73318
269 1 -1.1104 9.3591 5.22568 6.51262
266 1 -1.1104 12.2137 5.2035 6.72365
101 1 -1.1104 9.6036 10.8112 6.5614
235 1 -1.1104 6.66628 8.06014 6.63252
319 1 -1.1104 9.59927 13.5544 9.36165
320 2 2.2208 8.0515 17.7903 8.03262
289 1 -1.1104 6.63956 16.4175 9.56065
136 2 2.2208 -0.305298 20.694 2.52212
135 2 2.2208 -0.226267 15.116 2.51432
137 2 2.2208 -0.363288 17.9091 5.31545
106 2 2.2208 5.40392 17.7668 5.23225
107 1 -1.1104 1.30724 13.7172 1.02383
109 1 -1.1104 1.13555 19.4114 1.05374
113 1 -1.1104 1.03316 13.5823 3.8804
114 1 -1.1104 1.14905 19.4054 3.88137
116 1 -1.1104 1.42799 16.4872 1.08972
119 2 2.2208 5.38421 14.9633 2.43342
120 2 2.2208 5.33514 20.7539 2.35845
121 1 -1.1104 1.10491 16.681 3.83011
123 1 -1.1104 4.05174 13.4636 1.25219
125 1 -1.1104 3.91985 19.2065 0.932983
127 2 2.2208 2.59163 17.937 2.54616
128 1 -1.1104 3.95721 13.6505 4.03792
129 1 -1.1104 3.98021 19.3239 3.71684
130 2 2.2208 2.58073 15.0749 5.37124
131 2 2.2208 2.50767 20.713 5.24605
132 1 -1.1104 4.02599 16.4677 1.05457
134 1 -1.1104 3.93979 16.5913 3.81153
124 1 -1.1104 3.95766 13.5666 6.59763
297 1 -1.1104 6.81109 13.6701 12.2694
317 2 2.2208 8.00406 14.9793 10.8597
111 1 -1.1104 6.7409 13.5759 6.672
322 1 -1.1104 9.51349 13.7803 12.23
138 1 -1.1104 6.73431 19.3554 1.038
110 1 -1.1104 6.79305 13.5956 0.969542
139 1 -1.1104 6.68614 19.1218 3.79512
122 1 -1.1104 6.84848 16.2705 3.84043
115 1 -1.1104 6.87574 13.5176 3.84634
140 1 -1.1104 6.74629 16.5303 0.934542
141 2 2.2208 11.0075 17.9106 5.21985
142 1 -1.1104 12.4041 13.7271 1.11845
144 1 -1.1104 12.4001 19.2929 1.04406
146 1 -1.1104 12.3996 13.6027 3.92229
147 1 -1.1104 12.4335 19.2309 3.8193
148 1 -1.1104 12.3662 16.4372 1.00286
150 2 2.2208 10.9881 14.992 2.47687
151 2 2.2208 10.9405 20.5811 2.40279
152 1 -1.1104 12.4485 16.4313 3.84228
153 1 -1.1104 9.6026 13.5455 1.00312
155 1 -1.1104 9.58461 19.2803 0.950666
157 2 2.2208 8.18388 17.886 2.39499
158 1 -1.1104 9.61695 13.6278 3.80005
159 1 -1.1104 9.47334 19.1934 3.74802
160 2 2.2208 8.22781 14.919 5.2767
161 2 2.2208 8.04382 20.6331 5.11805
162 1 -1.1104 9.62715 16.4405 0.993504
164 1 -1.1104 9.73157 16.6011 3.82162
156 1 -1.1104 9.54491 19.314 6.52824
154 1 -1.1104 9.5679 13.5952 6.60937
143 1 -1.1104 12.2907 13.6124 6.64604
149 1 -1.1104 12.4005 16.3396 6.55687
167 1 -1.1104 1.25306 2.50742 6.7221
172 1 -1.1104 3.92865 -3.23987 6.7299
312 2 2.2208 -0.33636 17.8183 10.7877
163 1 -1.1104 9.56724 16.6049 6.52706
174 1 -1.1104 3.88101 -0.401813 6.74094
166 1 -1.1104 1.17495 -3.10274 6.81031
170 1 -1.1104 1.07006 -0.317504 6.83638
173 1 -1.1104 3.96348 2.28733 6.8973
201 2 2.2208 -0.22255 1.15366 10.8771
175 2 2.2208 5.31258 1.22812 10.886
176 1 -1.1104 1.01497 -3.22263 12.4897
177 1 -1.1104 1.16061 2.4547 12.252
180 1 -1.1104 1.21069 -3.23666 9.56212
181 1 -1.1104 1.10469 2.51792 9.42407
184 1 -1.1104 1.01188 -0.24268 12.2098
186 2 2.2208 5.4443 -1.93082 7.98753
187 2 2.2208 5.24039 3.88313 8.12298
188 1 -1.1104 0.97109 -0.492752 9.58785
190 1 -1.1104 3.97055 -3.12775 12.3441
191 1 -1.1104 3.84323 2.30226 12.4916
192 2 2.2208 2.49444 0.97992 8.13194
193 1 -1.1104 3.90881 -3.11168 9.66086
194 1 -1.1104 3.82912 2.51697 9.61032
195 2 2.2208 2.49281 -1.74673 10.9558
196 2 2.2208 2.48036 3.78284 10.8774
197 1 -1.1104 3.71037 -0.45439 12.3611
198 1 -1.1104 3.87246 -0.309855 9.53676
200 2 2.2208 -0.25928 -1.83521 8.05266
199 2 2.2208 -0.273698 3.95413 8.10364
182 1 -1.1104 6.81145 -3.14177 9.43726
347 2 2.2208 11.0251 1.03105 -0.400116
290 1 -1.1104 6.76496 13.6351 9.48777
208 1 -1.1104 9.58847 -3.22063 6.59418
207 1 -1.1104 12.4189 -0.192011 6.51761
209 1 -1.1104 9.52026 2.44468 6.64578
205 1 -1.1104 12.3377 -3.05349 6.53536
169 1 -1.1104 6.68305 2.40452 6.71622
171 1 -1.1104 6.6655 -0.46328 6.69278
9066 2 2.2208 10.9065 -4.49281 10.994
185 1 -1.1104 6.70965 -0.203978 12.3071
179 1 -1.1104 6.72988 2.50019 12.2494
183 1 -1.1104 6.67056 2.56376 9.46651
178 1 -1.1104 6.68648 -3.12316 12.3235
189 1 -1.1104 6.71107 -0.221199 9.53052
211 2 2.2208 10.8833 1.04651 10.8689
212 1 -1.1104 12.352 -2.9537 12.1332
213 1 -1.1104 12.2544 2.49447 12.3179
214 1 -1.1104 12.3305 -3.22755 9.31728
215 1 -1.1104 12.312 2.60313 9.44938
216 1 -1.1104 12.218 -0.30204 12.1381
217 2 2.2208 11.1265 -1.80899 8.06265
218 2 2.2208 10.8216 3.8869 8.01703
219 1 -1.1104 12.2689 -0.155102 9.4322
220 1 -1.1104 9.50358 -3.09957 12.3035
221 1 -1.1104 9.42933 2.45262 12.3204
222 2 2.2208 8.02845 1.05141 8.12303
223 1 -1.1104 9.6031 -2.92003 9.35172
224 1 -1.1104 9.42095 2.63293 9.54995
225 2 2.2208 8.09905 -1.60796 10.8522
226 2 2.2208 7.99608 3.95947 10.8534
227 1 -1.1104 9.50277 -0.270759 12.2131
228 1 -1.1104 9.36422 -0.216789 9.47384
318 1 -1.1104 9.47927 19.1332 9.30614
236 1 -1.1104 1.03211 5.19052 6.68467
78 1 -1.1104 3.99335 10.7297 6.68287
238 1 -1.1104 3.86968 7.90384 6.67942
234 1 -1.1104 1.17121 7.94927 6.76361
30 2 2.2208 -0.133945 9.45719 8.21802
315 1 -1.1104 9.43877 16.5524 12.1837
62 1 -1.1104 1.18762 10.7878 6.59756
240 2 2.2208 5.32539 6.573 10.8816
241 2 2.2208 5.3862 12.1869 10.8883
242 1 -1.1104 1.20477 8.12691 12.3126
244 1 -1.1104 1.18042 8.12452 9.54748
246 1 -1.1104 1.156 5.22871 12.2652
247 1 -1.1104 1.1447 10.8504 12.35
250 2 2.2208 5.42118 9.33548 8.1228
251 1 -1.1104 1.19843 5.3488 9.43219
252 1 -1.1104 1.16296 10.9659 9.50915
255 1 -1.1104 3.93542 8.02637 12.2207
256 2 2.2208 2.57732 6.65947 8.14552
257 2 2.2208 2.60468 12.2388 8.0544
258 1 -1.1104 4.01741 8.01664 9.48708
259 2 2.2208 2.59434 9.40874 10.9174
260 1 -1.1104 4.02676 5.16185 12.3502
261 1 -1.1104 3.96438 10.8372 12.3269
262 1 -1.1104 3.94917 5.30858 9.47205
263 1 -1.1104 3.85417 10.7649 9.51143
29 2 2.2208 -0.220559 6.62866 10.9833
112 1 -1.1104 6.6929 19.0915 6.56191
65 1 -1.1104 6.81482 10.8697 6.71536
237 1 -1.1104 6.47669 5.15591 6.6556
90 1 -1.1104 12.3082 10.7131 6.67145
254 1 -1.1104 6.62076 10.8922 9.42936
248 1 -1.1104 6.61971 5.26068 12.3907
249 1 -1.1104 6.79321 10.8561 12.1812
245 1 -1.1104 6.61839 8.12665 9.53687
243 1 -1.1104 6.8278 7.99609 12.2663
253 1 -1.1104 6.82271 5.27841 9.54285
264 1 -1.1104 9.47026 10.9149 9.44314
268 1 -1.1104 9.56957 5.41701 9.39917
270 1 -1.1104 9.6733 11.085 12.4211
271 1 -1.1104 9.48461 5.39382 12.2767
272 2 2.2208 8.05336 9.43984 10.8093
273 1 -1.1104 9.37251 8.05565 9.46548
274 2 2.2208 8.27415 12.1763 8.04032
275 2 2.2208 8.00285 6.58311 7.96132
276 2 2.2208 10.829 6.67592 10.8565
277 2 2.2208 10.9585 12.3068 10.8596
278 1 -1.1104 12.3681 8.2999 12.2593
279 1 -1.1104 12.3395 8.02625 9.44386
280 1 -1.1104 12.1706 5.33041 12.3933
281 1 -1.1104 12.4154 10.931 12.1609
282 2 2.2208 10.9254 9.36473 8.11476
283 1 -1.1104 12.3114 5.25733 9.43355
284 1 -1.1104 12.239 10.771 9.49192
285 1 -1.1104 9.59996 8.19574 12.2166
325 2 2.2208 10.942 14.9188 7.98897
51 2 2.2208 -0.369188 12.2301 10.8129
117 1 -1.1104 1.05573 16.4792 6.59737
311 2 2.2208 -0.330643 20.603 8.0494
296 1 -1.1104 6.70976 19.1887 12.2608
302 1 -1.1104 1.02273 19.2542 6.65862
321 1 -1.1104 9.67263 19.2919 12.243
126 1 -1.1104 3.79237 19.2892 6.72921
133 1 -1.1104 4.12713 16.3718 6.59192
108 1 -1.1104 1.21842 13.6138 6.83446
310 2 2.2208 2.46361 15.0121 10.8427
309 2 2.2208 2.46229 20.6769 10.8501
308 1 -1.1104 3.85725 16.5936 12.3611
286 1 -1.1104 3.91707 19.2869 12.2452
287 1 -1.1104 3.95013 13.6946 12.2327
291 1 -1.1104 1.14543 19.289 9.3436
292 1 -1.1104 0.971941 16.5211 9.29838
293 2 2.2208 5.33772 20.5243 8.02747
294 1 -1.1104 1.05746 13.7571 9.54675
295 2 2.2208 5.29076 14.9724 8.01882
298 1 -1.1104 1.16024 19.3192 12.2513
299 1 -1.1104 1.11354 13.6853 12.4957
300 2 2.2208 5.23216 17.8224 10.8442
301 1 -1.1104 3.93283 19.3395 9.50812
303 2 2.2208 2.54058 17.8688 8.07275
304 1 -1.1104 3.87377 16.4694 9.39742
305 1 -1.1104 3.93976 13.6481 9.41928
307 1 -1.1104 1.14191 16.4577 12.1902
314 1 -1.1104 9.46614 16.4017 9.47452
288 1 -1.1104 6.69361 19.1352 9.43676
327 1 -1.1104 12.2696 19.3647 9.31901
118 1 -1.1104 6.77502 16.1951 6.6835
306 1 -1.1104 6.6425 16.4387 12.2428
330 1 -1.1104 12.4466 13.7128 12.1588
328 1 -1.1104 12.4001 13.709 9.33551
331 2 2.2208 10.7928 17.8446 10.8045
326 1 -1.1104 12.3214 16.4852 12.3127
329 1 -1.1104 12.4215 19.2832 12.1979
323 1 -1.1104 12.1608 16.47 9.45189
324 2 2.2208 10.8295 20.6797 7.96544
615 2 2.2208 8.15696 20.6689 -0.288205
704 2 2.2208 5.27795 17.9513 -0.337508
707 2 2.2208 -0.150493 17.817 -0.366779
557 2 2.2208 10.8528 15.1918 13.6479
349 2 2.2208 8.0196 3.88496 -0.305738
495 2 2.2208 8.10022 12.2389 13.507
353 2 2.2208 2.46029 9.50416 -0.317066
335 2 2.2208 5.35504 -1.77035 13.687
494 2 2.2208 10.9338 9.55179 13.6162
559 2 2.2208 13.6068 17.9545 13.683
424 2 2.2208 -0.279264 15.1604 13.481
703 2 2.2208 2.4789 20.8095 -0.301997
531 2 2.2208 5.22857 15.0325 13.6692
342 2 2.2208 10.9166 3.80069 13.6056
352 2 2.2208 5.29629 6.70068 -0.333959
592 2 2.2208 8.11446 15.0545 -0.339974
614 2 2.2208 10.9371 17.8154 -0.359863
354 2 2.2208 -0.244584 12.2336 -0.327336
345 2 2.2208 2.44326 3.78474 -0.311888
9075 2 2.2208 5.3013 -4.55649 -0.258312
705 2 2.2208 2.69581 15.0131 -0.313915
589 2 2.2208 -0.269416 9.51729 13.5458
341 2 2.2208 10.9486 -1.67971 13.556
357 2 2.2208 5.37604 0.98717 16.5158
358 1 -1.1104 1.22911 -3.08183 17.8914
359 1 -1.1104 1.34684 2.44999 17.9781
362 1 -1.1104 1.21551 -3.21135 15.1524
364 1 -1.1104 0.97836 2.26545 15.1248
370 1 -1.1104 1.01528 -0.277262 17.9833
372 2 2.2208 5.26604 -1.90029 19.2669
373 2 2.2208 5.47548 3.76389 19.2884
374 1 -1.1104 1.07959 -0.392631 15.0844
378 1 -1.1104 3.96661 -3.26914 18.0284
379 1 -1.1104 4.0014 2.40531 18.0008
380 2 2.2208 2.55492 0.993756 19.3837
381 1 -1.1104 3.98892 -3.24021 15.2832
383 1 -1.1104 3.80052 2.54197 15.1289
385 2 2.2208 2.47687 -1.8097 16.4757
387 1 -1.1104 3.93512 -0.300371 17.8554
388 1 -1.1104 3.87809 -0.386805 15.2052
386 2 2.2208 2.54683 3.7637 16.5354
398 2 2.2208 -0.124563 3.92609 19.3493
9305 2 2.2208 10.921 -4.56973 21.9978
9304 2 2.2208 8.12689 -4.54281 24.8271
9357 2 2.2208 2.42321 -4.56008 24.9479
9467 2 2.2208 -0.302317 -4.47107 16.4857
375 1 -1.1104 1.22473 -0.405919 20.7524
9358 2 2.2208 5.36359 -4.58153 22.1196
338 2 2.2208 5.24198 3.87049 13.6861
9469 2 2.2208 2.50479 -4.57993 19.2478
9472 2 2.2208 11.033 -4.54617 16.6187
367 1 -1.1104 6.8076 -3.38058 20.7453
371 1 -1.1104 6.70623 -0.354114 17.9867
376 1 -1.1104 6.64799 -0.404974 15.1312
361 1 -1.1104 6.79133 2.37473 17.9477
360 1 -1.1104 6.70602 -3.17424 18.0879
366 1 -1.1104 6.66825 -3.18233 15.2174
368 1 -1.1104 6.66442 2.35159 15.1558
400 2 2.2208 11.03 1.06403 16.3339
401 1 -1.1104 12.3051 -3.19092 17.9694
402 1 -1.1104 12.2646 2.31945 17.8608
403 1 -1.1104 12.2313 -3.17143 15.0515
405 1 -1.1104 12.4054 2.41721 15.0846
407 1 -1.1104 12.3876 -0.381341 17.8075
408 2 2.2208 10.9017 -1.84345 19.3685
409 2 2.2208 11.0268 3.88127 19.3732
410 1 -1.1104 12.3753 -0.404162 14.7844
412 1 -1.1104 9.51046 -3.23703 18.0565
413 1 -1.1104 9.53162 2.36419 17.9149
414 2 2.2208 8.10757 0.909855 19.2223
415 1 -1.1104 9.49308 -3.18735 15.1318
417 1 -1.1104 9.55256 2.35853 15.0946
419 2 2.2208 8.16717 -1.74536 16.5147
420 2 2.2208 8.17544 3.7996 16.5869
421 1 -1.1104 9.59386 -0.508397 17.8068
422 1 -1.1104 9.64663 -0.468329 15.0471
423 1 -1.1104 9.47668 -0.510286 20.7086
411 1 -1.1104 12.3128 -0.527089 20.8287
369 1 -1.1104 6.80577 2.59035 20.6837
404 1 -1.1104 12.3463 -3.26089 20.7513
406 1 -1.1104 12.3894 2.34357 20.6352
416 1 -1.1104 9.50392 -3.22662 20.6915
418 1 -1.1104 9.51115 2.26183 20.6729
595 2 2.2208 -0.304777 3.96555 24.9219
708 2 2.2208 -0.297626 20.6292 24.9218
9077 2 2.2208 -0.354248 -4.45314 27.6803
433 2 2.2208 5.35189 6.55963 16.475
434 2 2.2208 5.37243 12.3242 16.4952
435 1 -1.1104 1.17517 8.0258 17.9358
437 1 -1.1104 1.08774 8.08227 15.0457
441 1 -1.1104 1.0134 5.22254 17.8604
442 1 -1.1104 1.10743 10.9552 17.9742
445 2 2.2208 5.30436 9.42637 19.3047
446 1 -1.1104 1.06857 5.31715 15.0256
448 1 -1.1104 1.17881 10.8394 15.2005
454 1 -1.1104 3.99133 7.96209 17.9156
455 2 2.2208 2.56507 6.50624 19.2976
456 2 2.2208 2.37337 12.2306 19.359
457 1 -1.1104 3.9251 8.04108 15.1696
459 2 2.2208 2.5164 9.46323 16.5218
460 1 -1.1104 4.05981 5.18418 17.9155
461 1 -1.1104 3.85574 10.761 17.8292
462 1 -1.1104 3.78043 5.1371 15.0815
464 1 -1.1104 3.87191 10.9415 15.1639
591 2 2.2208 -0.260528 9.42176 19.2316
617 2 2.2208 -0.227978 12.3273 16.4403
463 1 -1.1104 3.94705 5.28199 20.7494
590 2 2.2208 -0.27259 6.62387 16.4694
450 1 -1.1104 6.67428 5.24689 15.1995
622 2 2.2208 13.6406 -1.85282 22.0571
467 2 2.2208 5.28061 9.45312 13.7504
339 2 2.2208 8.09324 0.986748 13.7094
436 1 -1.1104 6.83685 8.09762 18.0005
452 1 -1.1104 6.62619 10.9432 14.9624
439 1 -1.1104 6.73271 8.10004 15.1341
443 1 -1.1104 6.86987 5.29417 17.9241
444 1 -1.1104 6.78244 10.8637 17.906
469 2 2.2208 10.9936 6.70395 16.4126
470 2 2.2208 10.87 12.2632 16.4001
471 1 -1.1104 12.4308 8.01378 17.8467
472 1 -1.1104 12.3748 8.09035 15.0663
474 1 -1.1104 12.3855 5.29429 17.7977
475 1 -1.1104 12.3712 11.0019 17.7815
476 2 2.2208 10.966 9.58829 19.2973
477 1 -1.1104 12.3334 5.25082 15.0979
479 1 -1.1104 12.3597 10.8944 14.9048
481 1 -1.1104 9.77769 8.10482 17.9207
482 2 2.2208 8.24707 6.72828 19.2995
483 2 2.2208 7.96329 12.4271 19.278
484 1 -1.1104 9.65325 8.027 15.0301
486 2 2.2208 8.10881 9.43898 16.5463
487 1 -1.1104 9.68249 5.32831 17.9051
488 1 -1.1104 9.55553 10.9673 17.9193
489 1 -1.1104 9.47628 5.20752 15.1173
491 1 -1.1104 9.35168 10.76 15.0784
478 1 -1.1104 12.3985 5.21844 20.6968
480 1 -1.1104 12.3825 10.9284 20.5973
492 1 -1.1104 9.41914 10.9325 20.7017
594 2 2.2208 -0.28676 0.987995 22.1584
683 1 -1.1104 6.89267 16.5991 26.2626
493 2 2.2208 8.19773 6.6564 13.6668
425 2 2.2208 -0.322146 17.9363 16.4991
496 2 2.2208 5.23829 17.8293 16.4824
497 1 -1.1104 1.11175 13.7408 17.8688
498 1 -1.1104 1.15835 19.3922 17.7899
501 1 -1.1104 1.12413 13.6021 15.0649
503 1 -1.1104 1.16253 19.4241 15.1386
509 1 -1.1104 1.05786 16.5074 17.7823
511 2 2.2208 5.08271 15.1275 19.2622
512 2 2.2208 5.36956 20.5962 19.3186
513 1 -1.1104 0.929199 16.5331 14.9398
517 1 -1.1104 3.81241 13.5663 17.9936
518 1 -1.1104 3.94033 19.2576 17.942
519 2 2.2208 2.39334 17.9691 19.2582
520 1 -1.1104 4.02729 13.6489 15.1184
522 1 -1.1104 3.89461 19.3569 15.0929
524 2 2.2208 2.51752 15.0073 16.4545
525 2 2.2208 2.61625 20.8022 16.4784
526 1 -1.1104 3.84943 16.4144 17.7209
527 1 -1.1104 3.70327 16.4706 15.0773
426 2 2.2208 -0.321477 15.1114 19.2951
523 1 -1.1104 3.8838 19.2157 20.7934
616 2 2.2208 10.998 17.7464 22.1188
502 1 -1.1104 1.04449 13.8441 20.6784
690 1 -1.1104 6.76384 13.5905 23.6213
430 2 2.2208 13.6372 3.88372 16.2973
681 1 -1.1104 6.63051 13.6888 26.3143
500 1 -1.1104 6.75526 19.2891 17.8272
515 1 -1.1104 6.6388 16.4391 15.106
505 1 -1.1104 6.74595 13.5712 14.9676
499 1 -1.1104 6.54183 13.7868 17.7368
510 1 -1.1104 6.60615 16.5281 18.035
507 1 -1.1104 6.7379 19.2497 15.1793
532 2 2.2208 10.8468 17.8937 16.5025
533 1 -1.1104 12.4121 13.8392 17.9036
534 1 -1.1104 12.464 19.3562 17.9237
535 1 -1.1104 12.3172 13.7956 15.1017
537 1 -1.1104 12.1981 19.6591 15.2119
539 1 -1.1104 12.243 16.6995 17.8202
540 2 2.2208 10.8653 15.0025 19.2881
541 2 2.2208 10.958 20.5643 19.2993
542 1 -1.1104 12.3197 16.5711 15.1317
544 1 -1.1104 9.48529 13.6593 17.8977
545 1 -1.1104 9.57358 19.2757 17.9051
546 2 2.2208 8.13477 17.903 19.2503
547 1 -1.1104 9.5717 13.5541 14.9928
549 1 -1.1104 9.45521 19.141 15.0566
551 2 2.2208 8.02984 15.0453 16.4455
552 2 2.2208 8.10733 20.6506 16.4611
553 1 -1.1104 9.52822 16.3769 17.9603
554 1 -1.1104 9.42169 16.5631 15.1188
506 1 -1.1104 6.55669 13.8097 20.5309
555 1 -1.1104 9.52528 16.4538 20.6797
538 1 -1.1104 12.3983 19.0962 20.6936
548 1 -1.1104 9.28266 13.6906 20.7597
712 2 2.2208 8.12295 20.6776 22.1808
382 1 -1.1104 3.93499 -3.21422 20.8178
365 1 -1.1104 1.17123 2.36192 20.7449
717 2 2.2208 8.11518 17.941 25.013
698 1 -1.1104 6.66324 16.4641 23.5732
394 2 2.2208 -0.288686 -1.56344 19.3118
389 1 -1.1104 3.89016 -0.372364 20.5279
363 1 -1.1104 1.15695 -3.13446 20.8246
384 1 -1.1104 3.93199 2.46053 20.915
655 2 2.2208 11.0002 14.9931 24.9329
593 2 2.2208 -0.288353 -1.70595 24.9217
560 2 2.2208 5.28162 0.998502 22.107
561 1 -1.1104 0.951524 -3.05527 23.5673
562 1 -1.1104 1.07935 2.48052 23.4974
565 1 -1.1104 1.12095 -3.21007 26.3329
566 1 -1.1104 1.03502 2.6024 26.2522
569 1 -1.1104 1.25945 -0.254254 23.4247
571 2 2.2208 5.23959 -1.80166 24.9513
572 2 2.2208 5.28395 3.84852 25.0204
573 1 -1.1104 1.16064 -0.308186 26.2252
575 1 -1.1104 3.83258 -3.2027 23.6473
576 1 -1.1104 3.84579 2.51646 23.504
577 2 2.2208 2.66904 1.06202 24.7305
578 1 -1.1104 3.91732 -3.12008 26.4317
579 1 -1.1104 4.05885 2.32666 26.3646
580 2 2.2208 2.50804 -1.67415 22.1046
581 2 2.2208 2.5048 3.79126 22.1832
582 1 -1.1104 3.86344 -0.348518 23.5296
583 1 -1.1104 3.81378 -0.388606 26.252
427 2 2.2208 -0.266964 20.7456 19.3315
652 1 -1.1104 12.4812 16.3437 23.4831
568 1 -1.1104 6.70888 2.35444 26.204
377 1 -1.1104 6.58883 -0.551868 20.823
567 1 -1.1104 6.79933 -3.17385 26.1895
570 1 -1.1104 6.64763 -0.243132 23.7246
574 1 -1.1104 6.62079 -0.302841 26.2941
564 1 -1.1104 6.61542 2.46035 23.3718
563 1 -1.1104 6.6392 -3.12216 23.5375
596 2 2.2208 10.9753 0.959057 21.9664
597 1 -1.1104 12.2747 -3.15031 23.4717
598 1 -1.1104 12.3854 2.40925 23.4056
599 1 -1.1104 12.5391 -3.00751 26.297
600 1 -1.1104 12.4379 2.4986 26.2533
601 1 -1.1104 12.2064 -0.379984 23.5079
602 2 2.2208 10.9366 -1.74146 24.8588
603 2 2.2208 10.9512 3.723 24.7382
604 1 -1.1104 12.5557 -0.231327 26.1922
605 1 -1.1104 9.45174 -3.13991 23.3899
606 1 -1.1104 9.62811 2.45827 23.3522
607 2 2.2208 8.1682 1.11916 24.8853
608 1 -1.1104 9.69119 -3.19856 26.2261
609 1 -1.1104 9.47142 2.48627 26.2839
610 2 2.2208 8.09991 -1.64782 22.1502
612 1 -1.1104 9.5093 -0.317884 23.4572
613 1 -1.1104 9.64922 -0.370368 26.2549
611 2 2.2208 8.18906 3.75714 22.0842
715 1 -1.1104 9.68749 13.6498 26.3093
447 1 -1.1104 1.12424 5.30455 20.7222
449 1 -1.1104 0.970873 10.8687 20.7211
465 1 -1.1104 3.81891 10.9389 20.8264
458 1 -1.1104 3.99047 8.00194 20.8384
654 2 2.2208 -0.277196 12.3109 22.101
390 2 2.2208 -0.336178 6.63055 22.1936
653 2 2.2208 -0.267347 9.50888 25.01
438 1 -1.1104 1.26706 8.029 20.7682
625 2 2.2208 5.37943 6.4998 22.0716
626 2 2.2208 5.35771 12.3187 22.0969
627 1 -1.1104 1.11778 8.01269 23.712
629 1 -1.1104 1.04398 8.02731 26.3979
631 1 -1.1104 1.17157 5.19228 23.6219
632 1 -1.1104 0.970174 10.8299 23.4984
635 2 2.2208 5.33019 9.40467 24.9091
636 1 -1.1104 1.03618 5.27446 26.4827
637 1 -1.1104 1.20321 10.8278 26.5101
640 1 -1.1104 3.90798 8.14147 23.6569
641 2 2.2208 2.58536 6.64913 24.9906
642 2 2.2208 2.561 12.2519 24.9433
643 1 -1.1104 3.82275 8.05508 26.5243
644 2 2.2208 2.58937 9.48407 22.1622
645 1 -1.1104 3.98454 5.22394 23.6129
646 1 -1.1104 3.88277 10.9776 23.5378
647 1 -1.1104 3.84244 5.06996 26.3079
648 1 -1.1104 3.9752 10.902 26.1806
633 1 -1.1104 6.9391 5.27657 23.4634
440 1 -1.1104 6.7097 7.98088 20.7063
490 1 -1.1104 9.56628 5.26445 20.6708
485 1 -1.1104 9.47718 8.331 20.878
451 1 -1.1104 6.89479 5.21728 20.6067
628 1 -1.1104 6.65915 8.08724 23.5616
453 1 -1.1104 6.70464 10.946 20.7564
473 1 -1.1104 12.2454 8.00286 20.5875
630 1 -1.1104 6.67496 8.02767 26.2318
634 1 -1.1104 6.60485 10.8225 23.6984
638 1 -1.1104 6.66587 5.30433 26.2576
639 1 -1.1104 6.66712 10.6683 26.3005
656 1 -1.1104 9.49911 10.8414 26.1344
657 1 -1.1104 9.40376 5.33253 26.3038
658 1 -1.1104 9.45169 10.8946 23.447
659 1 -1.1104 9.64657 5.14812 23.4404
660 2 2.2208 8.08536 9.47399 22.2009
661 1 -1.1104 9.62375 8.02652 26.454
662 2 2.2208 8.23104 12.2584 24.9491
663 2 2.2208 8.12367 6.64743 24.8763
664 2 2.2208 10.927 6.61959 22.1087
665 2 2.2208 10.9274 12.3171 21.9158
666 1 -1.1104 12.2521 8.22088 23.3924
667 1 -1.1104 12.3294 8.04414 26.3707
668 1 -1.1104 12.4318 5.22664 23.4365
669 1 -1.1104 12.2156 10.8863 23.4395
670 2 2.2208 10.89 9.49703 24.9016
671 1 -1.1104 12.2471 5.10223 26.1484
672 1 -1.1104 12.4567 10.8939 26.3407
673 1 -1.1104 9.61277 7.97153 23.7359
711 1 -1.1104 9.56114 16.5662 23.531
528 1 -1.1104 3.8938 16.5443 20.669
514 1 -1.1104 1.0001 16.6032 20.5411
521 1 -1.1104 3.82937 13.7963 20.7219
718 1 -1.1104 9.62499 19.2757 23.422
674 2 2.2208 10.8676 20.4944 24.8521
504 1 -1.1104 1.13199 19.308 20.8535
699 1 -1.1104 1.04223 16.4988 23.468
697 1 -1.1104 3.94652 13.6404 26.343
696 1 -1.1104 3.98379 16.5214 26.3005
702 2 2.2208 2.50161 15.1019 22.1714
701 2 2.2208 2.4898 20.5977 22.3283
700 1 -1.1104 3.88783 16.5703 23.4821
680 1 -1.1104 3.91637 19.2769 23.5934
682 1 -1.1104 3.95076 13.7858 23.531
684 1 -1.1104 1.22746 19.1497 26.3954
685 1 -1.1104 1.16042 16.4149 26.2691
686 1 -1.1104 0.941242 13.6138 26.3887
688 2 2.2208 5.35063 20.775 25.0175
689 2 2.2208 5.33571 15.0938 24.897
691 1 -1.1104 1.16692 19.2926 23.5567
692 1 -1.1104 1.23603 13.6469 23.5927
693 2 2.2208 5.27885 17.9656 22.1289
694 1 -1.1104 3.96064 19.4798 26.3512
695 2 2.2208 2.60097 17.879 25.0461
709 2 2.2208 -0.249124 17.9127 22.0177
466 2 2.2208 2.55002 6.65691 13.719
719 1 -1.1104 9.59416 13.779 23.3984
516 1 -1.1104 6.67965 16.3833 20.7179
550 1 -1.1104 9.49327 19.2128 20.7363
536 1 -1.1104 12.2688 13.6448 20.5721
508 1 -1.1104 6.8101 19.0636 20.7127
543 1 -1.1104 12.3915 16.3013 20.6372
714 1 -1.1104 9.54911 19.2264 26.3167
720 1 -1.1104 12.4163 16.5006 26.3437
649 1 -1.1104 12.3917 13.6028 26.242
621 1 -1.1104 12.4477 13.6371 23.5252
713 2 2.2208 8.16113 15.229 22.0497
624 1 -1.1104 12.4979 19.0678 23.4913
650 1 -1.1104 12.3743 19.2375 26.3021
687 1 -1.1104 6.60696 19.3487 23.5422
710 1 -1.1104 9.56749 16.4368 26.3061
716 1 -1.1104 6.73611 19.4204 26.3152
530 2 2.2208 5.39868 20.6767 13.6705
651 2 2.2208 5.29582 12.1366 27.74
706 2 2.2208 -0.314062 15.093 24.9625
676 2 2.2208 10.9136 12.2563 27.6341
356 2 2.2208 10.9568 6.5064 27.6097
337 2 2.2208 -0.33471 3.89882 13.6712
468 2 2.2208 2.61282 12.271 13.8062
348 2 2.2208 8.12966 -1.736 27.6874
9429 2 2.2208 8.09154 -4.50328 13.7766
529 2 2.2208 2.42862 17.9934 13.7302
396 2 2.2208 -0.323837 20.7638 13.659
344 2 2.2208 2.50779 -1.53418 27.7147
336 2 2.2208 2.36104 1.08574 13.7801
343 2 2.2208 5.3248 1.02564 27.6736
346 2 2.2208 -0.273698 1.14336 27.5669
334 2 2.2208 -0.275054 -1.77529 13.7369
675 2 2.2208 8.13451 9.32603 27.6405
721 2 2.2208 5.11285 23.4716 5.28297
722 2 2.2208 5.16304 29.1973 5.24362
723 1 -1.1104 1.08395 24.8868 0.853287
724 1 -1.1104 1.17928 25.0772 3.84271
725 1 -1.1104 0.984508 22.0712 1.1301
726 1 -1.1104 1.06333 27.8485 0.943919
727 2 2.2208 5.42524 26.3691 2.50108
728 1 -1.1104 1.1262 22.3241 4.07621
729 1 -1.1104 1.04045 27.785 3.77131
730 1 -1.1104 3.98143 25.0517 1.03737
731 2 2.2208 2.34223 23.6724 2.49118
732 2 2.2208 2.44997 29.1586 2.33496
733 1 -1.1104 3.93663 24.7801 3.73193
734 2 2.2208 2.46425 26.4759 5.19174
735 1 -1.1104 3.89231 22.1304 0.945191
736 1 -1.1104 3.82229 27.9268 1.00624
737 1 -1.1104 3.84557 22.0877 3.75394
738 1 -1.1104 3.9071 27.7734 3.85748
740 2 2.2208 -0.255565 29.2602 5.17812
866 1 -1.1104 6.66017 21.8451 6.62885
743 1 -1.1104 6.65162 24.9771 3.98504
864 1 -1.1104 1.18995 22.0189 6.76796
870 1 -1.1104 3.89682 27.6342 6.71215
868 1 -1.1104 3.81483 24.8461 6.75156
865 1 -1.1104 1.09161 27.7832 6.66303
1317 2 2.2208 2.45058 37.5491 -0.407982
1429 1 -1.1104 6.58485 47.3317 1.23341
1030 2 2.2208 13.5257 43.3234 10.8664
1259 2 2.2208 5.2446 23.6801 -0.360432
1032 2 2.2208 13.6177 32.1092 5.29458
745 1 -1.1104 6.77836 27.8649 0.945362
744 1 -1.1104 6.66318 22.1361 1.02462
747 1 -1.1104 6.6728 27.841 3.6964
742 1 -1.1104 6.65173 24.9786 1.18187
746 1 -1.1104 6.72726 21.9675 3.91926
748 2 2.2208 10.8819 23.3601 5.14907
749 2 2.2208 10.7783 28.8331 5.24392
750 1 -1.1104 12.2384 24.9286 1.11526
751 1 -1.1104 12.2513 24.7863 3.78356
752 1 -1.1104 12.2306 22.1316 1.07226
753 1 -1.1104 12.2821 27.7842 1.13574
754 2 2.2208 10.8176 26.2617 2.35136
755 1 -1.1104 12.498 22.0338 3.91097
756 1 -1.1104 12.2937 27.7426 4.03881
757 1 -1.1104 9.33293 24.8796 0.955319
758 2 2.2208 7.99274 23.4045 2.43036
759 2 2.2208 8.06461 29.1889 2.34462
760 1 -1.1104 9.25535 24.79 3.70401
761 2 2.2208 7.94173 26.3209 5.16625
762 1 -1.1104 9.43388 22.0637 1.10278
763 1 -1.1104 9.62545 27.6259 1.08868
764 1 -1.1104 9.52026 21.9309 3.74831
765 1 -1.1104 9.36629 27.6758 3.78173
839 2 2.2208 -0.393983 40.3783 5.30095
1038 2 2.2208 -0.153872 26.4155 8.16606
863 1 -1.1104 6.50225 24.9198 6.69794
860 2 2.2208 13.6317 46.0602 2.5276
1008 1 -1.1104 9.40506 44.7772 12.1738
769 2 2.2208 5.24709 34.7592 5.22231
770 1 -1.1104 1.03441 30.7847 0.995722
771 1 -1.1104 1.0458 36.2431 1.01894
773 1 -1.1104 1.1482 30.5378 3.762
774 1 -1.1104 0.998287 36.2514 3.68448
776 1 -1.1104 1.00863 33.5152 1.03183
777 2 2.2208 5.25674 31.9979 2.36667
778 2 2.2208 5.32249 37.5983 2.33053
779 1 -1.1104 0.965733 33.3675 3.8517
781 1 -1.1104 3.936 30.5861 1.05599
782 1 -1.1104 3.88465 36.1418 1.07261
783 2 2.2208 2.36591 34.8518 2.3825
784 1 -1.1104 3.77423 30.5964 3.83531
785 1 -1.1104 3.71874 36.3415 3.80357
786 2 2.2208 2.47875 31.8952 5.37309
787 2 2.2208 2.51099 37.7041 5.2493
788 1 -1.1104 3.69691 33.2812 1.01076
789 1 -1.1104 3.76696 33.414 3.75425
1012 2 2.2208 8.07177 45.9782 8.10365
921 1 -1.1104 3.91135 30.4456 6.77851
1026 1 -1.1104 12.3712 41.7713 9.46409
772 1 -1.1104 6.71661 36.2912 0.931794
919 1 -1.1104 0.891249 33.4469 6.7166
916 1 -1.1104 1.05447 36.3162 6.53376
920 1 -1.1104 6.54188 33.4447 6.59135
915 1 -1.1104 1.06157 30.6941 6.66903
922 1 -1.1104 3.88624 36.1717 6.63373
1027 1 -1.1104 12.2097 41.9583 12.2429
1009 1 -1.1104 9.3834 39.0789 12.2711
793 1 -1.1104 6.75276 30.601 1.01683
794 1 -1.1104 6.6324 30.6609 3.87105
917 1 -1.1104 6.7753 30.5944 6.38871
780 1 -1.1104 6.77996 33.6246 3.83446
795 1 -1.1104 6.6335 33.397 1.11473
775 1 -1.1104 6.64791 36.2165 3.69515