LAMMPS data file via write_data, version 29 Oct 2020, timestep = 100422

17700 atoms
3 atom types

-0.43623691949448584 27.77623691949499 xlo xhi
-5.373697295245186 333.4536972952444 ylo yhi
-0.43713074813641195 27.777130748136372 zlo zhi

Masses

1 15.9994
2 232.0381
3 131.293

Atoms # full

1 0 2 2.2208 5.28080229008317 0.21588732947058073 5.401818712061342 0 0 0
2 0 1 -1.1104 1.168564127295196 -4.088984793909831 1.1217663219349643 0 0 0
6 0 1 -1.1104 1.2408514637813912 -3.8206104737940656 4.0714927225918665 0 0 0
10 0 1 -1.1104 1.3070216549617464 -1.295004308460485 1.2888449688801382 0 0 0
12 0 2 2.2208 5.57433768431671 -2.733526067396304 2.578004710694348 0 0 0
14 0 1 -1.1104 1.5501612713568305 -1.0704832293169295 4.061583010948361 0 0 0
16 0 1 -1.1104 4.172239131144124 -4.279254602122706 1.2332950972131331 0 0 0
18 0 2 2.2208 2.642488956354925 0.22629919133803378 2.6268854219450235 0 0 0
19 0 1 -1.1104 4.082932568420758 -4.09258188087521 3.736516402224522 0 0 0
21 0 2 2.2208 2.75448444096391 -2.7184149170146545 5.397587118000917 0 0 0
23 0 1 -1.1104 4.133899490165474 -1.3576642438256978 1.0660932902289768 0 0 0
24 0 1 -1.1104 4.0194187193178665 -1.2641247989904563 3.7269333234712363 0 0 0
8845 0 2 2.2208 2.4379230750471113 -5.178640318188219 8.26340782911146 0 0 0
26 0 2 2.2208 -0.22109606454814157 0.36079738395576993 5.350487437287017 0 0 0
25 0 2 2.2208 0.01833914613562385 -2.570006360646217 2.5779655388811156 0 0 0
8849 0 2 2.2208 11.139646093648851 -5.3134116229086725 10.954848274577571 0 0 0
315 0 1 -1.1104 9.960140709915407 15.78458110014619 12.486910543671701 0 0 0
174 0 1 -1.1104 3.910531384821238 -1.1827458326146572 6.608355196278033 0 0 0
365 0 2 2.2208 2.6361639963120425 -2.659310037502601 -0.2987074310726232 0 0 0
384 0 2 2.2208 11.091325573667458 5.652171787109786 -0.28045418202018574 0 0 0
8 0 1 -1.1104 7.090876714608086 -3.937573173512761 3.953925340756469 0 0 0
11 0 1 -1.1104 6.993440490809984 -1.2321393830688685 1.1255123604485444 0 0 0
15 0 1 -1.1104 6.680805013509005 -1.0672348597492523 4.003256538569469 0 0 0
4 0 1 -1.1104 6.926972723236962 -4.126589122988859 0.9453365795106473 0 0 0
31 0 2 2.2208 11.122230312275137 0.1515375111897561 5.461651129632883 0 0 0
32 0 1 -1.1104 12.760925469325327 -4.085547477678748 0.9442734841650752 0 0 0
34 0 1 -1.1104 12.740706447751219 -3.9066862899749726 4.010579033649198 0 0 0
36 0 1 -1.1104 12.612653515696287 -1.3024745466885415 1.1798816182110219 0 0 0
37 0 2 2.2208 11.24655835668217 -2.6399914860216582 2.6227562302872696 0 0 0
39 0 1 -1.1104 12.315932627536524 -1.0354041584640146 3.808016918171878 0 0 0
40 0 1 -1.1104 9.954232216435761 -4.184302290575859 1.248787872587081 0 0 0
42 0 2 2.2208 8.348710622115851 0.04293471533834808 2.4935385369779524 0 0 0
43 0 1 -1.1104 10.032938623232022 -4.082019907670516 4.063809371887937 0 0 0
45 0 2 2.2208 8.323037894898158 -2.6214683812230968 5.403666587218823 0 0 0
47 0 1 -1.1104 9.727245502837985 -1.3721441575857223 0.9350537964877568 0 0 0
48 0 1 -1.1104 9.826158127479811 -1.218586959866674 3.793214434149461 0 0 0
8860 0 2 2.2208 -0.18721279128420476 -5.269377011828173 -0.28078157403623766 0 0 0
347 0 2 2.2208 8.21682513103507 14.213008161216857 -0.3110170472788299 0 0 0
205 0 1 -1.1104 12.663339535453852 -3.963001506493147 6.7149391063470825 0 0 0
8847 0 2 2.2208 -0.08540945539806474 -5.277479239908534 11.117612347605652 0 0 0
3 0 1 -1.1104 1.0144383797281 1.5372644955303758 0.9302305035114139 0 0 0
7 0 1 -1.1104 1.2089646568638681 1.7101547142521583 3.638662060834115 0 0 0
13 0 2 2.2208 5.518740213885176 2.8195832184260956 2.3352738447801173 0 0 0
17 0 1 -1.1104 3.9474160938161065 1.5783480196092088 1.176095627556105 0 0 0
20 0 1 -1.1104 4.037190122206651 1.460912692462723 4.060450987530676 0 0 0
22 0 2 2.2208 2.5421503235705893 3.0782575072267506 5.0883793050889965 0 0 0
54 0 2 2.2208 5.475259794478077 5.683274071843017 5.311543979634549 0 0 0
60 0 1 -1.1104 1.1554434117266454 4.438977004751441 1.174873031781327 0 0 0
67 0 1 -1.1104 1.2553060363654729 4.596710575082725 3.8439771517799644 0 0 0
71 0 1 -1.1104 4.24240876915656 7.222900875387173 1.0185190338924248 0 0 0
72 0 2 2.2208 2.8334561464795804 5.7378367079133605 2.3841136851948956 0 0 0
76 0 1 -1.1104 3.979208746774184 4.385605212978152 0.8032423490474895 0 0 0
79 0 1 -1.1104 4.08152995669688 4.271578111824297 3.610486401590175 0 0 0
58 0 1 -1.1104 1.314436892412827 7.323520601679616 3.6860286094188117 0 0 0
74 0 1 -1.1104 4.157672245997078 7.005073959437497 3.862543291283345 0 0 0
56 0 1 -1.1104 1.4658880268964143 7.172519573466204 1.0290574501463157 0 0 0
27 0 2 2.2208 -0.3412871183812548 3.086943927759815 2.3982540149445386 0 0 0
374 0 2 2.2208 5.523400204411044 17.028313691142127 -0.2943237250375923 0 0 0
383 0 2 2.2208 -0.09851811900521795 5.893596267042328 -0.35218685039069336 0 0 0
346 0 2 2.2208 11.264307136645703 -2.624047378539747 13.447351555898784 0 0 0
59 0 1 -1.1104 7.032295081512191 7.166217912731098 3.6881938406890624 0 0 0
69 0 1 -1.1104 6.817768661649518 4.351131968076216 4.023226813993808 0 0 0
5 0 1 -1.1104 6.811527914218483 1.4645422099896845 0.8970919494018014 0 0 0
57 0 1 -1.1104 6.9788004547837765 7.209892406909034 0.9842844504046725 0 0 0
9 0 1 -1.1104 6.788442380335462 1.5377106316986098 3.492922940000521 0 0 0
63 0 1 -1.1104 6.765029308208799 4.271861417341676 1.034282697695613 0 0 0
33 0 1 -1.1104 12.300170094752064 1.3067951004317728 1.1384608985639657 0 0 0
35 0 1 -1.1104 12.233930344130426 1.4943329366015956 3.887318007152177 0 0 0
38 0 2 2.2208 11.008371407827733 3.0013341184561795 2.4549907897472427 0 0 0
41 0 1 -1.1104 9.62188247166134 1.4258155861723627 0.9549636707104076 0 0 0
44 0 1 -1.1104 9.608309727195433 1.5747769827881286 3.753147173444069 0 0 0
46 0 2 2.2208 8.280368911735643 2.9756726869671244 5.195057270137107 0 0 0
84 0 2 2.2208 11.090827497891574 5.749150109032873 5.409873889887043 0 0 0
88 0 1 -1.1104 12.570565522051593 4.404409344376845 1.1247321000489836 0 0 0
92 0 1 -1.1104 12.646655917960297 4.455516507501102 3.8508082700402104 0 0 0
95 0 2 2.2208 8.328773785671494 5.80923611364194 2.478925735654219 0 0 0
99 0 1 -1.1104 9.63660277286547 4.275624992757195 1.0330338883741474 0 0 0
102 0 1 -1.1104 9.649892295601605 4.41966139989372 4.0051382038191115 0 0 0
86 0 1 -1.1104 12.450406579753677 7.095888041031367 0.8977365393684958 0 0 0
87 0 1 -1.1104 12.615720622234626 7.237434122496203 3.736949535583145 0 0 0
94 0 1 -1.1104 9.64664826989802 7.253518984202716 0.9762529256346106 0 0 0
97 0 1 -1.1104 9.708272237637038 7.096599806921061 3.810492498326606 0 0 0
266 0 1 -1.1104 12.548917427801191 4.262661492980861 6.845988872327175 0 0 0
267 0 1 -1.1104 9.824045230014567 7.369508394539481 6.759011962471572 0 0 0
372 0 2 2.2208 8.1176093417642 2.8905947100602924 -0.328277465689406 0 0 0
235 0 1 -1.1104 6.8857878921129165 7.088910368010095 6.698624009086929 0 0 0
269 0 1 -1.1104 9.6325982939082 4.382248576084552 6.961744882201581 0 0 0
206 0 1 -1.1104 12.564630671545439 1.7398788249868709 6.840309490464126 0 0 0
8841 0 2 2.2208 -0.1765699688798449 -5.224024401939465 5.263686319783484 0 0 0
81 0 2 2.2208 -0.17926845489930796 5.818844473836937 5.11939631472666 0 0 0
55 0 2 2.2208 5.386331627463582 11.368110273441285 5.345602015979448 0 0 0
61 0 1 -1.1104 1.4271232470155308 9.934392638983471 1.0734187121138858 0 0 0
66 0 2 2.2208 5.495007827927064 8.462277522465365 2.5124978699058285 0 0 0
68 0 1 -1.1104 1.11935042245301 10.328589777214725 3.8513638578967275 0 0 0
73 0 2 2.2208 2.6299923509310297 11.332032449167526 2.3420465489019033 0 0 0
75 0 2 2.2208 2.759322164124927 8.599260897534977 5.3293409784791494 0 0 0
77 0 1 -1.1104 4.053606762722555 10.022520439878983 1.1929176739059422 0 0 0
80 0 1 -1.1104 4.127934374362801 9.861439964450296 3.969145014905168 0 0 0
107 0 1 -1.1104 1.2839213921143182 12.800147710632167 1.0514514995425654 0 0 0
113 0 1 -1.1104 1.2167282942014825 13.161501512873823 3.831322235956854 0 0 0
123 0 1 -1.1104 3.9687208665623808 12.930006159939612 1.0139383263771111 0 0 0
128 0 1 -1.1104 4.074766749958936 12.765924346697737 3.8957722014926155 0 0 0
83 0 2 2.2208 -0.13668431790946264 11.465385828184758 5.28231278528111 0 0 0
369 0 2 2.2208 11.12772638500428 -0.01746061081130162 -0.23502755768819963 0 0 0
349 0 2 2.2208 8.216644409065395 19.903227427804914 -0.15053229279534228 0 0 0
115 0 1 -1.1104 6.696353118948261 12.654506419848708 3.9301613645412043 0 0 0
110 0 1 -1.1104 6.983901534284183 12.812110585777544 1.1972177531993355 0 0 0
64 0 1 -1.1104 6.939551945085749 10.114557190932715 0.9285884737454384 0 0 0
70 0 1 -1.1104 6.829889327295829 9.99128314907021 3.975330090404264 0 0 0
85 0 2 2.2208 11.054177057511726 11.595817835063238 5.444490176008994 0 0 0
89 0 1 -1.1104 12.54821713803955 10.045247673259235 0.9143176521433197 0 0 0
91 0 2 2.2208 11.1404793627967 8.726677800399168 2.25335624458913 0 0 0
93 0 1 -1.1104 12.3534215798599 10.158051927507623 3.9503149424253254 0 0 0
96 0 2 2.2208 8.22018245671684 11.422777164391483 2.468096819773284 0 0 0
98 0 2 2.2208 8.221508847918487 8.672446866872814 5.26671634083061 0 0 0
100 0 1 -1.1104 9.691114331520232 10.065956332711632 1.045372782421548 0 0 0
103 0 1 -1.1104 9.401055816315765 9.847424671043003 3.720099023784764 0 0 0
142 0 1 -1.1104 12.501167219823737 13.013361669183372 1.22846477072936 0 0 0
146 0 1 -1.1104 12.576408131904264 13.05958384796985 4.010145045349229 0 0 0
153 0 1 -1.1104 9.685300734828235 12.836562045508638 1.1274743640064486 0 0 0
158 0 1 -1.1104 9.65527293203874 12.848293814470608 3.760216572442313 0 0 0
154 0 1 -1.1104 9.669879003538986 12.997470348296732 6.740350477617114 0 0 0
386 0 2 2.2208 10.957184044894912 11.473015145783366 -0.3811961283458583 0 0 0
8848 0 2 2.2208 8.131132807681155 -5.339207007804861 8.328769659516219 0 0 0
136 0 2 2.2208 -0.2313749098137555 19.98214100620894 2.277417648648223 0 0 0
130 0 2 2.2208 2.6632925728595134 14.240985293107737 5.362716801302509 0 0 0
119 0 2 2.2208 5.372312374324041 14.230294579025216 2.5778079270975502 0 0 0
106 0 2 2.2208 5.196361775376958 17.03736078941215 5.330540736047026 0 0 0
109 0 1 -1.1104 1.1898769180924835 18.411667178112697 0.9073534450400537 0 0 0
114 0 1 -1.1104 1.2899919173149392 18.76435560348721 3.8945594441549205 0 0 0
116 0 1 -1.1104 1.2565287795579136 15.793393373640317 1.1239647075866843 0 0 0
120 0 2 2.2208 5.480670974685777 19.67842575824926 2.411151778899504 0 0 0
121 0 1 -1.1104 0.7594235782535937 15.708600222945332 3.7148105180483766 0 0 0
125 0 1 -1.1104 4.183184915335634 18.367568088797178 0.8502427625950626 0 0 0
127 0 2 2.2208 2.5169051504704947 17.09644875710254 2.444936847156354 0 0 0
129 0 1 -1.1104 4.095992662485781 18.328547212618524 3.6261386935379134 0 0 0
131 0 2 2.2208 2.5744020972803447 20.005703631843918 5.272447105815619 0 0 0
132 0 1 -1.1104 4.07767772563092 15.628226891253622 1.1431660434100546 0 0 0
134 0 1 -1.1104 3.6180282823945733 15.641438359520052 3.9233740794471963 0 0 0
82 0 2 2.2208 -0.05545233480088957 8.599169015438564 2.341931033071316 0 0 0
140 0 1 -1.1104 6.910476734207759 15.661816101021238 1.1586920039438404 0 0 0
314 0 1 -1.1104 9.633634896259908 15.767714424200944 9.398434184475057 0 0 0
137 0 2 2.2208 -0.12373506513166338 17.095992791189417 5.2811975850222135 0 0 0
126 0 1 -1.1104 4.087375988008437 18.21216785197163 6.656402734659656 0 0 0
343 0 2 2.2208 8.34070080513605 0.22515701374240188 13.603541602062474 0 0 0
135 0 2 2.2208 -0.4190227589130199 14.387834009647333 2.2635349938846145 0 0 0
139 0 1 -1.1104 6.879835434411873 18.345970745177006 3.9613246029183733 0 0 0
122 0 1 -1.1104 6.461764961924121 15.620374464013086 3.9395764321491376 0 0 0
118 0 1 -1.1104 6.68417663857012 15.63100067095798 6.822865806268181 0 0 0
138 0 1 -1.1104 6.796642799490779 18.412142153576742 1.2338941814968134 0 0 0
150 0 2 2.2208 11.12509756260648 14.43733608140363 2.7047111163280655 0 0 0
160 0 2 2.2208 8.040813404888393 14.382050545054357 5.409627359669142 0 0 0
141 0 2 2.2208 11.010829831232082 17.251309025739868 5.396003668631607 0 0 0
144 0 1 -1.1104 12.363393900407715 18.54032310273903 1.0102610482556464 0 0 0
147 0 1 -1.1104 12.31192868619508 18.52717288040263 3.906383654099789 0 0 0
148 0 1 -1.1104 12.321869754793612 15.910077849598839 1.2097019365185355 0 0 0
151 0 2 2.2208 10.874281954958041 19.936273744158616 2.502599350065303 0 0 0
152 0 1 -1.1104 12.678163999108625 15.864206530688751 3.9030673670996463 0 0 0
155 0 1 -1.1104 9.62880203630938 18.50570079166742 1.146296312883753 0 0 0
157 0 2 2.2208 8.325120533376337 17.128350667753054 2.5047256945289016 0 0 0
159 0 1 -1.1104 9.676883949320171 18.390655529661906 3.789373639157767 0 0 0
161 0 2 2.2208 8.179570066877652 20.029348608196386 5.3369073369561715 0 0 0
162 0 1 -1.1104 9.628738207069595 15.518025559877662 1.154573746032823 0 0 0
164 0 1 -1.1104 9.820360510323745 15.534932436148729 4.106686372551999 0 0 0
156 0 1 -1.1104 9.385174799185878 18.624475580291122 6.824206477773384 0 0 0
348 0 2 2.2208 10.994960140080186 17.024350454578773 -0.3739704494334049 0 0 0
166 0 1 -1.1104 1.2533036663334987 -3.9699629151990874 6.685232980016683 0 0 0
318 0 1 -1.1104 9.658827525700646 18.746985467855872 9.616540817221182 0 0 0
172 0 1 -1.1104 4.180727379971518 -4.261412875716989 6.676627708530961 0 0 0
201 0 2 2.2208 -0.012028105208597083 0.362824465533338 10.974148490014207 0 0 0
170 0 1 -1.1104 1.205479794510479 -0.9834353918222732 6.907511871915814 0 0 0
175 0 2 2.2208 5.505960389405067 0.3378453453458244 10.887025112821501 0 0 0
176 0 1 -1.1104 1.3227974622885295 -3.7867751258220617 12.417655078943058 0 0 0
180 0 1 -1.1104 1.3537390088410561 -3.8426877126138033 9.55290504193532 0 0 0
184 0 1 -1.1104 1.1716651652191248 -1.0633786055489203 12.376412988712401 0 0 0
186 0 2 2.2208 5.570066312157345 -2.6187344198284963 8.143427472172919 0 0 0
188 0 1 -1.1104 1.377255425980541 -1.1543107647471988 9.65821616588468 0 0 0
190 0 1 -1.1104 4.05888736157217 -3.9361714044232317 12.418724846033987 0 0 0
192 0 2 2.2208 2.5836362079827735 0.3185238517774942 8.197015661679279 0 0 0
193 0 1 -1.1104 4.124135795826866 -3.646877569293193 9.580862418379366 0 0 0
195 0 2 2.2208 2.571938813229484 -2.4242749844978495 11.02309260766 0 0 0
197 0 1 -1.1104 4.045858636227447 -1.093536939162727 12.255807468002025 0 0 0
198 0 1 -1.1104 4.244380875867505 -0.9875731803233356 9.422783046040967 0 0 0
200 0 2 2.2208 -0.20947686645171296 -2.527121480657695 8.134422173092245 0 0 0
316 0 2 2.2208 8.139321082561672 19.997457032252054 11.0100954219177 0 0 0
168 0 1 -1.1104 7.075459999148419 -3.8796033189565624 6.842452634821929 0 0 0
189 0 1 -1.1104 6.837721152913173 -1.2120779763611138 9.822531947765075 0 0 0
208 0 1 -1.1104 9.854650255599426 -4.0942774507499795 6.8851946955443575 0 0 0
207 0 1 -1.1104 12.529175173391222 -1.089943671425935 6.745333345377182 0 0 0
210 0 1 -1.1104 9.682485786487238 -1.2266971710093546 6.5759288776542695 0 0 0
171 0 1 -1.1104 7.025027719726396 -0.9697655747920553 6.879602907309266 0 0 0
178 0 1 -1.1104 6.602915071448602 -4.038835202351239 12.388124229567552 0 0 0
182 0 1 -1.1104 6.762669569437582 -3.9087107041549105 9.736583229644456 0 0 0
185 0 1 -1.1104 6.886260326886613 -1.2680873097870744 12.485407017529495 0 0 0
211 0 2 2.2208 11.166420529955857 0.15759378188913956 11.063014838784852 0 0 0
212 0 1 -1.1104 12.680514426793128 -3.8924066273214555 12.280651740899891 0 0 0
214 0 1 -1.1104 12.75073180710097 -4.016814688445764 9.383283252827445 0 0 0
216 0 1 -1.1104 12.661609722442254 -1.1534252369077254 12.32454598192184 0 0 0
217 0 2 2.2208 11.149832211868157 -2.5212938150715987 8.10690689368312 0 0 0
219 0 1 -1.1104 12.450200233682061 -1.1794826102511105 9.656671620320267 0 0 0
220 0 1 -1.1104 9.774266666032506 -4.1040064756435894 12.089140197993265 0 0 0
222 0 2 2.2208 8.246508955528526 0.3788679528846959 8.299717355799647 0 0 0
223 0 1 -1.1104 9.697230477781488 -3.8640111203069174 9.531827422639994 0 0 0
225 0 2 2.2208 8.23095671799891 -2.56063467977429 10.91537372222667 0 0 0
227 0 1 -1.1104 9.78062080049113 -1.1710373946745143 12.127189780364453 0 0 0
228 0 1 -1.1104 9.66319471454422 -1.112810824616266 9.301080305181545 0 0 0
324 0 2 2.2208 10.961256071178614 19.98056820479675 8.383078112231072 0 0 0
163 0 1 -1.1104 9.361205122162714 15.912169420252495 6.720249970063122 0 0 0
325 0 2 2.2208 11.104648223986908 14.41669940926779 8.113243056699028 0 0 0
29 0 2 2.2208 -0.28425377864265133 5.8282887014683995 10.87485167824098 0 0 0
239 0 1 -1.1104 4.137359814656058 4.1514403000596145 6.686922002665129 0 0 0
234 0 1 -1.1104 1.2792581622774903 7.329714088430485 6.50970070732983 0 0 0
199 0 2 2.2208 -0.040276087575079805 3.136943653814922 8.079054409491084 0 0 0
173 0 1 -1.1104 4.002393757336615 1.5107658110031148 6.8340570831656855 0 0 0
236 0 1 -1.1104 1.2763472469962085 4.629578676835439 6.634381727082201 0 0 0
238 0 1 -1.1104 4.168093026270552 7.158780727778186 6.350903274075968 0 0 0
167 0 1 -1.1104 1.1275094511506385 1.7851803748112747 6.715590105702698 0 0 0
177 0 1 -1.1104 1.131785060061594 1.6274080122702705 12.348050539180267 0 0 0
181 0 1 -1.1104 1.3729270657996142 1.5793684356459996 9.718606712352141 0 0 0
187 0 2 2.2208 5.283105084705013 3.04031549448566 8.240576452914148 0 0 0
191 0 1 -1.1104 3.9695680647934686 1.551075963251009 12.402735746098822 0 0 0
194 0 1 -1.1104 4.185085706942795 1.7683129569836953 9.730236253024916 0 0 0
196 0 2 2.2208 2.6272454654468707 3.0516028489291447 11.059793128294706 0 0 0
240 0 2 2.2208 5.518599940707278 6.036141191281256 10.77036589109501 0 0 0
246 0 1 -1.1104 1.1897996857010114 4.462178030946042 12.414936430945582 0 0 0
251 0 1 -1.1104 1.4481601541904754 4.57259482968525 9.411216685495322 0 0 0
255 0 1 -1.1104 4.0792780850955195 7.554006143892744 12.256043623800908 0 0 0
256 0 2 2.2208 2.6118005534178703 5.901092824588078 7.878056949200524 0 0 0
260 0 1 -1.1104 4.174236325745224 4.589272934092287 12.277484775706123 0 0 0
262 0 1 -1.1104 4.186169918323865 4.525136961099887 9.538231537805471 0 0 0
242 0 1 -1.1104 1.261100728205847 7.307008470751923 12.105107246723195 0 0 0
244 0 1 -1.1104 1.1939126009245162 7.3575544496208165 9.21727838786177 0 0 0
258 0 1 -1.1104 4.208757367354512 7.158307238469339 9.140617286971985 0 0 0
253 0 1 -1.1104 6.973842340555378 4.522353690684221 9.671662908782748 0 0 0
243 0 1 -1.1104 6.978875811462514 7.199754599547747 12.310541291560504 0 0 0
237 0 1 -1.1104 6.997497331924185 4.329942294310694 6.893441465407089 0 0 0
169 0 1 -1.1104 6.88262796217001 1.699291183996245 6.54507529290797 0 0 0
265 0 1 -1.1104 12.505264744922448 7.145124856456578 6.803353059226367 0 0 0
179 0 1 -1.1104 6.9103844733333615 1.6503686414862397 12.396558724100096 0 0 0
183 0 1 -1.1104 6.8238146173007195 1.8963986630229364 9.411024420669941 0 0 0
245 0 1 -1.1104 7.138751504390624 7.320447847875257 9.50557921586724 0 0 0
248 0 1 -1.1104 6.790711602017288 4.336266646999333 12.428274976305831 0 0 0
209 0 1 -1.1104 9.77339066623342 1.5064326067964373 6.636132864953765 0 0 0
213 0 1 -1.1104 12.709331159704519 1.7600917114923913 12.535390739106724 0 0 0
215 0 1 -1.1104 12.546102356562752 1.5216581154162374 9.70589998744786 0 0 0
218 0 2 2.2208 11.202341726555973 3.0546036680626725 8.399831979409889 0 0 0
221 0 1 -1.1104 9.708657034946363 1.6906945393012125 12.346174151501048 0 0 0
224 0 1 -1.1104 9.788366617663808 1.575003474020161 9.659952793245157 0 0 0
226 0 2 2.2208 8.359752810291347 3.0959594393974927 10.883272481558793 0 0 0
268 0 1 -1.1104 9.660124446503932 4.431307599122762 9.570909750376263 0 0 0
271 0 1 -1.1104 9.838298383276957 4.532096600719137 12.33535252623298 0 0 0
275 0 2 2.2208 8.34056340117813 5.862434688783435 8.129674983021353 0 0 0
276 0 2 2.2208 11.180454477262401 5.951549718712557 10.9437461161983 0 0 0
280 0 1 -1.1104 12.351458887188516 4.399090569022624 12.524767523474178 0 0 0
283 0 1 -1.1104 12.556385377058868 4.496450590708783 9.543303459864699 0 0 0
273 0 1 -1.1104 10.007796907613782 7.327277205303722 9.715574874539513 0 0 0
285 0 1 -1.1104 9.730272937013696 7.32825680295392 12.394912542254099 0 0 0
279 0 1 -1.1104 12.645645100657648 7.3452237672165435 9.568764837117971 0 0 0
278 0 1 -1.1104 12.742833221673225 7.31016876299278 12.187902332531381 0 0 0
30 0 2 2.2208 0.054681992259303966 8.871517471443621 7.991146654407972 0 0 0
108 0 1 -1.1104 1.1542045177274722 12.721571953808391 6.932633488339713 0 0 0
62 0 1 -1.1104 1.517741105816964 10.210053730045773 6.556715267574887 0 0 0
78 0 1 -1.1104 4.149583379639106 10.181476067251218 6.711622584469165 0 0 0
51 0 2 2.2208 -0.06514184814519217 11.752669028504648 10.994711030144838 0 0 0
124 0 1 -1.1104 4.031676588936337 12.729646697133111 6.782429168048907 0 0 0
241 0 2 2.2208 5.458799144651252 11.688618201264523 10.940154394846981 0 0 0
247 0 1 -1.1104 1.2166408336132355 10.12399346143323 12.29811868279969 0 0 0
250 0 2 2.2208 5.551981038992959 8.691048432237915 8.075255566286387 0 0 0
252 0 1 -1.1104 1.0580744122090138 10.181903010344802 9.60865500936571 0 0 0
257 0 2 2.2208 2.7615672970232668 11.467107090451996 8.229498290300281 0 0 0
259 0 2 2.2208 2.616242448063162 8.808958062723743 10.847922645009486 0 0 0
261 0 1 -1.1104 4.0249850032780214 10.406664374520403 12.198423713500732 0 0 0
263 0 1 -1.1104 3.8399880553951222 9.919813438405665 9.330311237400242 0 0 0
294 0 1 -1.1104 1.5043781969566319 13.015581577166827 9.50708473880537 0 0 0
287 0 1 -1.1104 4.075314788274587 13.285504646108894 12.32469052507082 0 0 0
299 0 1 -1.1104 1.238862735576323 13.265789635179777 12.471776651321788 0 0 0
305 0 1 -1.1104 4.028830206022094 12.879150102058839 9.585925308731987 0 0 0
111 0 1 -1.1104 6.841488594531095 12.905417062967981 6.7522270128664355 0 0 0
65 0 1 -1.1104 7.062641125189948 9.849494509907707 6.752387398954922 0 0 0
143 0 1 -1.1104 12.502434034817524 13.177246884772188 6.636356745814195 0 0 0
101 0 1 -1.1104 9.710937049943446 10.234413314347938 6.771354487947062 0 0 0
254 0 1 -1.1104 6.806757453846106 10.14518971868943 9.68633646999873 0 0 0
90 0 1 -1.1104 12.520942297880984 10.180103628058925 6.726001759309992 0 0 0
297 0 1 -1.1104 7.002092190034217 12.89067664273222 12.235256449443153 0 0 0
249 0 1 -1.1104 6.922236131216813 10.1405778740476 12.420259569267786 0 0 0
290 0 1 -1.1104 6.9471335657147355 13.103467598707072 9.544187582887153 0 0 0
319 0 1 -1.1104 9.692181052406298 12.913980100851429 9.510911501229817 0 0 0
264 0 1 -1.1104 9.809278137642966 10.217735410142835 9.733485269853972 0 0 0
270 0 1 -1.1104 9.553462689511043 10.321689660791488 12.452100231130833 0 0 0
272 0 2 2.2208 8.390212391033895 8.799856696382157 11.065937609482768 0 0 0
274 0 2 2.2208 8.33380777397722 11.744853432027053 8.248565508568243 0 0 0
277 0 2 2.2208 11.066607763537993 11.590851036403114 11.112077293132854 0 0 0
281 0 1 -1.1104 12.502104770589836 10.145894699862122 12.40945477966339 0 0 0
282 0 2 2.2208 11.132864094122185 8.74564853325999 8.071587437922892 0 0 0
284 0 1 -1.1104 12.649565916491037 10.171407643800578 9.569195120030052 0 0 0
330 0 1 -1.1104 12.531929438389524 12.882958545041802 12.273035850824924 0 0 0
328 0 1 -1.1104 12.619625074605779 12.767623431906314 9.627314266387756 0 0 0
322 0 1 -1.1104 9.506621650817907 13.1390877106398 12.579949009789484 0 0 0
321 0 1 -1.1104 9.638427672620136 18.644761870846725 12.410114420575276 0 0 0
312 0 2 2.2208 -0.33312898366515853 17.206635157490346 10.968583948909888 0 0 0
302 0 1 -1.1104 1.4300237389636865 18.598747563855287 6.68068943953163 0 0 0
112 0 1 -1.1104 6.784237718770805 18.53326514670205 6.955372328599732 0 0 0
311 0 2 2.2208 -0.2307993212232869 19.791956828403972 8.16418028114883 0 0 0
117 0 1 -1.1104 1.4053830539455736 15.743580994685866 6.530030695911352 0 0 0
313 0 2 2.2208 -0.08517686677625899 14.243570844465838 7.92199222507126 0 0 0
133 0 1 -1.1104 4.152615511909618 15.479819132167304 6.698991404179484 0 0 0
295 0 2 2.2208 5.320742815454599 14.232236550597387 8.156408970353167 0 0 0
310 0 2 2.2208 2.572944261014402 14.485756826067917 11.086018905677763 0 0 0
308 0 1 -1.1104 3.8808884761250013 15.92594702391274 12.326135263728187 0 0 0
309 0 2 2.2208 2.473650739683642 20.118978746489816 10.977363842030359 0 0 0
303 0 2 2.2208 2.7292336054681647 17.105177671009734 8.259935240396382 0 0 0
292 0 1 -1.1104 1.2334337610566601 15.773792828580978 9.325603801307752 0 0 0
307 0 1 -1.1104 1.0223598885703091 15.924402924781235 12.424748677760613 0 0 0
304 0 1 -1.1104 4.104280030350314 15.791206769212232 9.6275112823415 0 0 0
298 0 1 -1.1104 1.020048244845453 18.574308921733707 12.464760919309155 0 0 0
301 0 1 -1.1104 3.8496767548836046 18.55959795599824 9.565429506969279 0 0 0
291 0 1 -1.1104 1.1178218456788571 18.567364330809685 9.516622613012851 0 0 0
300 0 2 2.2208 5.623292294374207 17.238510673452975 11.035791987094186 0 0 0
286 0 1 -1.1104 3.9199446875880595 18.77687411054608 12.449427153924134 0 0 0
293 0 2 2.2208 5.475408036314723 20.005421366429655 8.112575148542254 0 0 0
8846 0 2 2.2208 5.3240877442594705 -5.223056105597309 10.943730455392231 0 0 0
382 0 2 2.2208 0.02978380026242451 11.529160453725195 -0.43432635168428296 0 0 0
306 0 1 -1.1104 6.97375827646416 15.768540788635034 12.415067257035394 0 0 0
289 0 1 -1.1104 6.9711487634690465 15.862850218363167 9.676500490061073 0 0 0
320 0 2 2.2208 8.146338820139022 17.204555803437366 8.163996813886655 0 0 0
145 0 1 -1.1104 12.514346803203356 18.656696878858288 6.908398945471937 0 0 0
317 0 2 2.2208 8.357292777403629 14.352930605350695 11.013402375476531 0 0 0
329 0 1 -1.1104 12.22313644092823 18.597123640583057 12.202156772498657 0 0 0
149 0 1 -1.1104 12.163818630290342 16.03728459142287 6.845920569259329 0 0 0
296 0 1 -1.1104 6.815047229394676 18.6568970498288 12.456947273185405 0 0 0
323 0 1 -1.1104 12.42145902380941 15.82817987248679 9.49098354718329 0 0 0
327 0 1 -1.1104 12.55938638636014 18.639458630699455 9.430926621612961 0 0 0
288 0 1 -1.1104 6.7429703151037375 18.770344233256996 9.624968362287195 0 0 0
326 0 1 -1.1104 12.454945096509174 15.875238774290237 12.298858627491331 0 0 0
331 0 2 2.2208 11.004602542338091 17.02767628808131 10.885834915493376 0 0 0
364 0 2 2.2208 5.48595609773628 -0.021308440782396982 -0.22615323910544805 0 0 0
373 0 2 2.2208 2.5523035258122695 14.260539136735183 -0.12864934236371278 0 0 0
341 0 2 2.2208 5.485253206535024 2.8888079779381437 13.666771365845998 0 0 0
385 0 2 2.2208 8.331362137458836 8.654148917737212 -0.41912556324570716 0 0 0
360 0 2 2.2208 10.98181728337258 20.072121053648903 13.620538824293892 0 0 0
380 0 2 2.2208 2.7490472290983994 8.551098510515494 -0.3873358121286756 0 0 0
381 0 2 2.2208 5.330419469316623 11.227224814653521 -0.40168532439768967 0 0 0
388 0 2 2.2208 5.564863642703704 0.021443306396241785 16.417690425933753 0 0 0
389 0 1 -1.1104 1.290973117996287 -3.821040851514285 18.057269623366306 0 0 0
393 0 1 -1.1104 1.0667402832026305 -4.173102436051495 15.128555420446784 0 0 0
401 0 1 -1.1104 1.3426876957989335 -1.206165063514908 18.10445840553209 0 0 0
403 0 2 2.2208 5.633899049239044 -2.8591144949254463 19.32607765912168 0 0 0
405 0 1 -1.1104 1.3528378198087472 -1.1709961833708677 15.23386011915453 0 0 0
409 0 1 -1.1104 4.333132900810312 -4.031171134652395 17.825445947932035 0 0 0
411 0 2 2.2208 2.868917039294261 0.19731665623991326 19.52092796177512 0 0 0
412 0 1 -1.1104 4.014691857790797 -3.8586445398914533 15.083814630468357 0 0 0
416 0 2 2.2208 2.6026740041166194 -2.6507679214189226 16.696775669913045 0 0 0
418 0 1 -1.1104 4.10650295246155 -1.3748603682780918 17.961108169506005 0 0 0
419 0 1 -1.1104 3.861845511565021 -1.1903379328620374 15.21080215444009 0 0 0
424 0 2 2.2208 -0.1617209951566813 0.28850692635568415 16.65173415310344 0 0 0
359 0 2 2.2208 5.5402081607079685 14.447678400779544 13.71698813475345 0 0 0
562 0 1 -1.1104 9.645074707024142 18.28368491820227 23.79128605269294 0 0 0
623 0 2 2.2208 0.010365229307542136 17.07039972489192 22.242274378321756 0 0 0
526 0 2 2.2208 10.92704714640234 19.812538683878184 25.07601361476116 0 0 0
457 0 2 2.2208 -0.1146549017060405 14.276995249425694 19.41806591041193 0 0 0
425 0 2 2.2208 -0.12686176104458685 -2.4476543644492432 19.260968024067683 0 0 0
8974 0 2 2.2208 5.587834153821492 -5.313777185538113 16.448632985575784 0 0 0
356 0 2 2.2208 8.132512886852002 11.476281254504057 13.845697239987212 0 0 0
391 0 1 -1.1104 7.089691307974126 -4.1963456024396635 17.7703083096586 0 0 0
397 0 1 -1.1104 7.003909817465617 -3.9084898264318872 14.994069800067935 0 0 0
402 0 1 -1.1104 7.090427363092174 -1.409178936271224 18.03420314302176 0 0 0
408 0 1 -1.1104 7.080448844792127 -1.604449609989238 20.80745451355671 0 0 0
407 0 1 -1.1104 7.037165981578889 -1.2810485817948563 15.20714156393951 0 0 0
431 0 2 2.2208 11.14992980301146 0.13560574930806485 16.63603046006084 0 0 0
432 0 1 -1.1104 12.821310242270975 -3.9294787609497788 18.05658257676131 0 0 0
434 0 1 -1.1104 12.63747935925471 -3.990334550822915 15.265901737696861 0 0 0
438 0 1 -1.1104 12.581517683768585 -1.0691614527917852 18.094931238692286 0 0 0
439 0 2 2.2208 11.204067229767924 -2.5603773591289953 19.443920670388884 0 0 0
441 0 1 -1.1104 12.778478878860788 -1.3360619462903405 15.161137916882046 0 0 0
443 0 1 -1.1104 9.921928559448478 -4.139144330112777 17.748480686680978 0 0 0
445 0 2 2.2208 8.301382663574485 0.03823464986361153 19.50379023167646 0 0 0
446 0 1 -1.1104 9.963089310347357 -3.8927703650300427 14.886079451419645 0 0 0
450 0 2 2.2208 8.519819414729572 -2.577649953150415 16.595983728735874 0 0 0
452 0 1 -1.1104 9.803932105697722 -1.4304974151402554 17.906036053662312 0 0 0
453 0 1 -1.1104 10.095159413809542 -1.2216436257138021 15.18035015185804 0 0 0
616 0 2 2.2208 8.42569218441849 19.739436943505794 22.308146648794814 0 0 0
351 0 2 2.2208 2.7112265588001696 5.762471429981044 13.727309166799746 0 0 0
524 0 1 -1.1104 12.514597701827775 15.589995068018853 23.70147955204448 0 0 0
499 0 1 -1.1104 12.333260158984968 18.812159294804367 26.35825840670372 0 0 0