LAMMPS (29 Oct 2020)
OMP_NUM_THREADS environment is not set. Defaulting to 1 thread. (../comm.cpp:94)
  using 1 OpenMP thread(s) per MPI task
OMP_NUM_THREADS environment is not set. Defaulting to 1 thread. (../comm.cpp:94)
  using 1 OpenMP thread(s) per MPI task
Reading data file ...
  orthogonal box = (-0.31718983 -3.8388316 -0.32045262) to (27.657190 331.91883 27.660453)
  2 by 13 by 2 MPI processor grid
  reading atoms ...
  17670 atoms
  reading velocities ...
  17670 velocities
Finding 1-2 1-3 1-4 neighbors ...
  special bond factors lj:    0.0      0.0      0.0     
  special bond factors coul:  0.0      0.0      0.0     
     0 = max # of 1-2 neighbors
     0 = max # of 1-3 neighbors
     0 = max # of 1-4 neighbors
     1 = max # of special neighbors
  special bonds CPU = 0.004 seconds
  read_data CPU = 0.078 seconds
WARNING: 13 of 1000 force values in table Xe-Xe are inconsistent with -dE/dr.
  Should only be flagged at inflection points (../pair_table.cpp:461)
WARNING: 2 of 1000 force values in table Xe-O are inconsistent with -dE/dr.
  Should only be flagged at inflection points (../pair_table.cpp:461)
WARNING: 2 of 1000 force values in table Xe-Th are inconsistent with -dE/dr.
  Should only be flagged at inflection points (../pair_table.cpp:461)
Setting atom values ...
  11760 settings made for charge
Setting atom values ...
  5880 settings made for charge
Setting atom values ...
  30 settings made for charge
PPPM initialization ...
  using 12-bit tables for long-range coulomb (../kspace.cpp:328)
  G vector (1/distance) = 0.29897274
  grid = 40 240 40
  stencil order = 5
  estimated absolute RMS force accuracy = 0.00015479178
  estimated relative force accuracy = 1.0749694e-05
  using single precision MKL FFT
  3d grid and FFT values/proc = 18225 7600
Neighbor list info ...
  update every 1 steps, delay 0 steps, check yes
  max neighbors/atom: 2000, page size: 100000
  master list distance cutoff = 13
  ghost atom cutoff = 13
  binsize = 6.5, bins = 5 52 5
  3 neighbor lists, perpetual/occasional/extra = 3 0 0
  (1) pair coul/long, perpetual
      attributes: half, newton on
      pair build: half/bin/newton
      stencil: half/bin/3d/newton
      bin: standard
  (2) pair eam/alloy, perpetual, skip from (1)
      attributes: half, newton on
      pair build: skip
      stencil: none
      bin: none
  (3) pair table, perpetual, skip from (1)
      attributes: half, newton on
      pair build: skip
      stencil: none
      bin: none
Setting up Verlet run ...
  Unit style    : metal
  Current step  : 0
  Time step     : 0.001
Per MPI rank memory allocation (min/avg/max) = 9.223 | 9.964 | 10.04 Mbytes
Step Temp E_pair E_mol TotEng Press 
       0          300   -231206.51            0   -230521.34   -449.22189 
  100000    298.64079   -231198.46            0   -230516.39   -270.57021 
Loop time of 740.029 on 52 procs for 100000 steps with 17670 atoms

Performance: 11.675 ns/day, 2.056 hours/ns, 135.130 timesteps/s
99.8% CPU use with 52 MPI tasks x 1 OpenMP threads

MPI task timing breakdown:
Section |  min time  |  avg time  |  max time  |%varavg| %total
---------------------------------------------------------------
Pair    | 527.2      | 541.43     | 557.77     |  43.5 | 73.16
Bond    | 0.0074973  | 0.013808   | 0.022099   |   2.3 |  0.00
Kspace  | 153.02     | 170.24     | 184.55     |  73.9 | 23.00
Neigh   | 1.1786     | 1.2768     | 1.3851     |   6.1 |  0.17
Comm    | 20.363     | 22.13      | 25.702     |  31.1 |  2.99
Output  | 5.7306e-05 | 6.3001e-05 | 0.00026813 |   0.0 |  0.00
Modify  | 2.1762     | 3.1471     | 5.2765     |  60.3 |  0.43
Other   |            | 1.789      |            |       |  0.24

Nlocal:        339.808 ave         366 max         308 min
Histogram: 1 5 8 5 5 5 4 7 5 7
Nghost:        5534.42 ave        5648 max        5429 min
Histogram: 7 5 8 1 3 5 9 9 1 4
Neighs:       107888.0 ave      118075 max       97059 min
Histogram: 5 7 8 4 0 3 5 7 3 10

Total # of neighbors = 5610186
Ave neighs/atom = 317.49779
Ave special neighs/atom = 0.0000000
Neighbor list builds = 411
Dangerous builds = 0
11760 atoms in group oxygen
PPPM initialization ...
  using 12-bit tables for long-range coulomb (../kspace.cpp:328)
  G vector (1/distance) = 0.29897274
  grid = 40 240 40
  stencil order = 5
  estimated absolute RMS force accuracy = 0.00015479178
  estimated relative force accuracy = 1.0749694e-05
  using single precision MKL FFT
  3d grid and FFT values/proc = 18225 7600
Neighbor list info ...
  update every 1 steps, delay 0 steps, check yes
  max neighbors/atom: 2000, page size: 100000
  master list distance cutoff = 13
  ghost atom cutoff = 13
  binsize = 6.5, bins = 5 52 5
  3 neighbor lists, perpetual/occasional/extra = 3 0 0
  (1) pair coul/long, perpetual
      attributes: half, newton on
      pair build: half/bin/newton
      stencil: half/bin/3d/newton
      bin: standard
  (2) pair eam/alloy, perpetual, skip from (1)
      attributes: half, newton on
      pair build: skip
      stencil: none
      bin: none
  (3) pair table, perpetual, skip from (1)
      attributes: half, newton on
      pair build: skip
      stencil: none
      bin: none
Setting up Verlet run ...
  Unit style    : metal
  Current step  : 0
  Time step     : 0.001
Per MPI rank memory allocation (min/avg/max) = 9.505 | 10.20 | 10.29 Mbytes
Step f_2 Temp v_Tdiff v_deltaT 
       0            0    298.64079            0            0 
  100000    358.97201    299.33782 0.0076604376    88.936969 
  200000    712.33737    301.01653 0.0083038896    96.407387 
  300000    1066.0608    300.34645 0.0080826255    93.838531 
  400000    1421.5498    299.04096 0.0078760735    91.440482 
  500000    1773.3802    301.61729  0.008103948    94.086084 
  600000    2122.0938    300.53228 0.0083570407    97.024466 
  700000    2476.2824    299.66772 0.0081692433    94.844156 
  800000    2828.4316    301.07871 0.0083180651    96.571964 
  900000    3185.0384    301.47113  0.007505211    87.134803 
 1000000    3538.8963    297.47243 0.0079188176    91.936737 
Loop time of 7362.63 on 52 procs for 1000000 steps with 17670 atoms

Performance: 11.735 ns/day, 2.045 hours/ns, 135.821 timesteps/s
99.8% CPU use with 52 MPI tasks x 1 OpenMP threads

MPI task timing breakdown:
Section |  min time  |  avg time  |  max time  |%varavg| %total
---------------------------------------------------------------
Pair    | 5215.5     | 5391.9     | 5553.9     | 138.7 | 73.23
Bond    | 0.077633   | 0.13897    | 0.2183     |   6.7 |  0.00
Kspace  | 1529.9     | 1703       | 1855.3     | 231.4 | 23.13
Neigh   | 11.331     | 12.251     | 13.317     |  18.6 |  0.17
Comm    | 196.7      | 217.91     | 256.73     |  99.0 |  2.96
Output  | 0.0011566  | 0.0012134  | 0.0023361  |   0.5 |  0.00
Modify  | 6.9662     | 7.5415     | 8.5808     |  13.5 |  0.10
Other   |            | 29.85      |            |       |  0.41

Nlocal:        339.808 ave         370 max         315 min
Histogram: 6 7 7 5 2 7 4 5 7 2
Nghost:        5531.29 ave        5654 max        5427 min
Histogram: 6 6 9 3 3 2 7 12 1 3
Neighs:       107881.0 ave      119226 max       97812 min
Histogram: 7 10 7 0 1 4 8 4 6 5

Total # of neighbors = 5609793
Ave neighs/atom = 317.47555
Ave special neighs/atom = 0.0000000
Neighbor list builds = 3991
Dangerous builds = 0
Total wall time: 2:15:03
