ITEM: TIMESTEP
20000
ITEM: NUMBER OF ATOMS
17760
ITEM: BOX BOUNDS pp pp pp
-4.5201681150784306e-01 2.7792016811507533e+01
-5.5621969479919988e+00 3.3364219694798902e+02
-4.4495298574580855e-01 2.7784952985746202e+01
ITEM: ATOMS id type q x y z
1 2 2.2208 5.14472 -0.258333 5.17214
2 1 -1.1104 0.686937 -4.20873 1.09172
6 1 -1.1104 0.990276 -4.41673 3.85535
10 1 -1.1104 0.910402 -1.2665 0.972208
12 2 2.2208 5.03759 -2.89979 2.57462
14 1 -1.1104 1.02376 -1.53333 3.73432
16 1 -1.1104 3.52979 -4.36313 1.03861
18 2 2.2208 2.24632 -0.0375006 2.39822
19 1 -1.1104 3.78909 -4.29207 3.99714
21 2 2.2208 2.49658 -2.79488 5.33468
23 1 -1.1104 3.71905 -1.5696 1.08905
24 1 -1.1104 3.82097 -1.61493 3.92107
374 2 2.2208 5.21661 16.8223 -0.237607
4 1 -1.1104 6.33731 -4.24325 0.981551
8 1 -1.1104 6.48152 -4.23013 3.86704
349 2 2.2208 8.00782 19.8011 -0.362305
202 2 2.2208 13.4998 5.75466 8.26164
381 2 2.2208 5.29992 11.2657 -0.435824
135 2 2.2208 -0.315992 14.1715 2.38404
362 2 2.2208 8.10942 16.9266 13.5945
321 1 -1.1104 9.67276 18.3032 12.4289
166 1 -1.1104 1.27102 -4.28116 6.60006
172 1 -1.1104 3.8467 -4.2594 6.98547
15 1 -1.1104 6.6965 -1.56291 3.85764
380 2 2.2208 2.54066 8.2613 -0.42315
82 2 2.2208 -0.299104 8.47026 2.54712
11 1 -1.1104 6.41758 -1.42134 0.963445
31 2 2.2208 10.7742 -0.0790746 5.23052
32 1 -1.1104 11.9417 -4.51619 1.29437
34 1 -1.1104 12.2517 -4.06793 4.14451
36 1 -1.1104 12.0535 -1.50085 1.11434
37 2 2.2208 10.7848 -2.78428 2.56198
39 1 -1.1104 12.1645 -1.3553 4.07658
40 1 -1.1104 9.07973 -4.24487 1.20067
42 2 2.2208 7.72189 0.0762252 2.44061
43 1 -1.1104 9.43944 -4.34428 4.05774
45 2 2.2208 8.07973 -2.74975 5.46967
47 1 -1.1104 9.39356 -1.23408 1.04506
48 1 -1.1104 9.39841 -1.39209 3.78077
105 2 2.2208 13.2921 5.51729 2.31852
230 2 2.2208 13.5294 -3.01384 11.1687
334 2 2.2208 -0.393068 -3.04806 13.6624
375 2 2.2208 2.332 19.5173 -0.229262
361 2 2.2208 11.038 14.0422 13.6518
3 1 -1.1104 0.841604 1.54455 1.14464
7 1 -1.1104 0.728557 1.38537 3.83635
13 2 2.2208 5.13067 2.86625 2.42163
17 1 -1.1104 3.84317 1.37555 1.00927
20 1 -1.1104 3.55461 1.2743 3.91483
22 2 2.2208 2.24343 2.6563 5.22107
54 2 2.2208 5.24232 5.50575 5.04636
56 1 -1.1104 1.16399 7.1072 1.14195
60 1 -1.1104 0.684651 4.41612 1.02669
67 1 -1.1104 0.737825 4.39141 3.82935
71 1 -1.1104 4.04386 7.13397 0.836796
72 2 2.2208 2.25387 5.66258 2.50536
76 1 -1.1104 3.33528 4.47114 0.887474
79 1 -1.1104 3.73134 4.11045 3.64188
58 1 -1.1104 0.976425 7.15292 3.98882
74 1 -1.1104 3.80056 6.90058 3.83794
57 1 -1.1104 6.68739 7.0101 0.954407
365 2 2.2208 2.1727 -2.82596 -0.474743
50 2 2.2208 13.5688 -2.84882 5.36699
382 2 2.2208 -0.402804 11.1691 -0.324309
137 2 2.2208 -0.400213 16.7589 5.15291
63 1 -1.1104 6.40272 4.12781 0.975563
9 1 -1.1104 6.23964 1.37667 3.7018
312 2 2.2208 -0.370319 16.8492 11.0552
59 1 -1.1104 6.60719 6.92039 3.89324
5 1 -1.1104 6.64258 1.53089 1.08781
69 1 -1.1104 6.35279 4.11988 3.78422
33 1 -1.1104 12.3518 1.27471 0.929551
35 1 -1.1104 12.0879 1.42922 3.7921
38 2 2.2208 10.8647 2.6509 2.17241
41 1 -1.1104 9.32218 1.24738 1.0594
44 1 -1.1104 9.1582 1.31151 3.92379
46 2 2.2208 8.04898 2.79248 5.15965
84 2 2.2208 10.723 5.75987 5.29798
87 1 -1.1104 11.9343 6.94497 3.54226
88 1 -1.1104 12.1495 3.91444 0.795278
92 1 -1.1104 12.2439 3.94881 3.49378
95 2 2.2208 8.11929 5.54038 2.29222
99 1 -1.1104 9.33956 4.08632 0.842565
102 1 -1.1104 9.46057 4.04945 3.74264
86 1 -1.1104 12.2007 6.9633 0.651554
324 2 2.2208 11.0154 19.5898 7.90668
94 1 -1.1104 9.49705 6.8548 0.825105
97 1 -1.1104 9.38267 7.04554 3.67901
316 2 2.2208 8.1221 19.8154 10.9139
232 2 2.2208 13.6182 8.43532 5.15941
55 2 2.2208 5.39204 11.372 5.31045
61 1 -1.1104 1.04076 9.84932 0.916065
66 2 2.2208 5.02875 8.40651 2.24379
68 1 -1.1104 1.21608 9.92621 3.85898
73 2 2.2208 2.46279 11.0846 2.45851
75 2 2.2208 2.45833 8.32128 5.234
77 1 -1.1104 3.83761 9.97899 0.926448
80 1 -1.1104 3.9037 9.66532 3.77171
107 1 -1.1104 0.95589 12.7203 1.00356
113 1 -1.1104 1.03474 12.4845 3.66252
123 1 -1.1104 3.92274 12.8612 0.853927
128 1 -1.1104 3.94577 12.5962 3.90678
64 1 -1.1104 6.52958 9.89101 1.05585
115 1 -1.1104 6.76841 12.6913 3.88642
70 1 -1.1104 6.69334 9.98591 3.90178
111 1 -1.1104 6.77896 12.9382 6.67627
314 1 -1.1104 9.55094 15.5612 9.30105
163 1 -1.1104 9.62803 15.4832 6.60054
110 1 -1.1104 6.86746 12.7434 0.893659
85 2 2.2208 10.7649 11.3944 5.18306
89 1 -1.1104 11.9967 9.71169 0.909366
91 2 2.2208 10.7403 8.47535 2.31141
93 1 -1.1104 12.3375 9.97501 3.64729
96 2 2.2208 8.08194 11.3902 2.28896
98 2 2.2208 7.95812 8.5057 5.08084
100 1 -1.1104 9.34729 10.0087 0.815434
103 1 -1.1104 9.43285 9.92079 3.6642
142 1 -1.1104 12.4756 12.6906 0.958254
146 1 -1.1104 12.4529 12.7199 3.82825
153 1 -1.1104 9.80333 12.6754 1.07438
158 1 -1.1104 9.51926 12.9197 3.88618
154 1 -1.1104 9.52725 12.6867 6.78668
313 2 2.2208 -0.281269 14.2536 8.10756
364 2 2.2208 5.15256 -0.0230504 -0.394591
370 2 2.2208 7.95316 -2.77269 -0.258741
229 2 2.2208 13.5278 -0.0319889 8.20663
130 2 2.2208 2.46341 14.0536 4.98205
119 2 2.2208 5.34325 13.9276 2.38746
106 2 2.2208 5.22713 16.798 5.22121
109 1 -1.1104 1.07708 18.0613 0.975832
114 1 -1.1104 0.809453 18.1114 3.81874
116 1 -1.1104 1.19311 15.3596 1.05172
120 2 2.2208 5.16585 19.6927 2.49844
121 1 -1.1104 1.09298 15.4308 3.67152
125 1 -1.1104 3.83957 18.3474 0.905584
127 2 2.2208 2.43917 16.802 2.45976
129 1 -1.1104 3.76522 18.338 3.81452
131 2 2.2208 2.52911 19.7935 5.1676
132 1 -1.1104 3.937 15.6 1.26208
134 1 -1.1104 4.02512 15.2983 3.91836
139 1 -1.1104 6.57644 18.3229 3.75404
200 2 2.2208 -0.459082 -2.92497 8.01753
133 1 -1.1104 3.7027 15.5054 6.67638
149 1 -1.1104 12.3078 15.4828 6.78219
306 1 -1.1104 6.45532 15.6606 12.5136
311 2 2.2208 -0.438124 19.7411 8.11481
165 2 2.2208 13.5276 16.9462 2.47517
326 1 -1.1104 12.3872 15.4074 12.1879
112 1 -1.1104 6.68431 18.3187 6.67411
145 1 -1.1104 12.4573 18.1643 6.57564
122 1 -1.1104 6.76189 15.3647 3.80767
160 2 2.2208 8.14778 14.2088 5.33294
138 1 -1.1104 6.59872 18.2086 0.96315
140 1 -1.1104 6.62271 15.475 0.968734
150 2 2.2208 10.9595 14.1465 2.36945
141 2 2.2208 11.0179 16.7778 5.12933
144 1 -1.1104 12.2236 18.2494 1.04697
147 1 -1.1104 12.2696 18.2164 3.84967
148 1 -1.1104 12.2593 15.5362 0.820752
151 2 2.2208 10.8201 19.6358 2.56559
152 1 -1.1104 12.0065 15.4339 3.6513
155 1 -1.1104 9.43314 18.3784 1.04055
157 2 2.2208 8.01172 16.8938 2.40819
159 1 -1.1104 9.56262 18.3885 3.99213
161 2 2.2208 8.13869 19.6922 5.13242
162 1 -1.1104 9.59213 15.5015 0.883792
164 1 -1.1104 9.51211 15.8203 3.77678
377 2 2.2208 13.5681 -2.91094 -0.414724
51 2 2.2208 -0.336986 11.0672 10.9502
233 2 2.2208 13.5561 2.87013 5.18156
83 2 2.2208 -0.441199 11.0897 5.12478
170 1 -1.1104 0.771327 -1.39459 6.54525
174 1 -1.1104 3.73154 -1.45049 6.63503
175 2 2.2208 5.25016 0.0349884 10.965
176 1 -1.1104 1.04253 -4.07859 12.3028
180 1 -1.1104 1.01925 -4.27499 9.33522
184 1 -1.1104 0.83533 -0.945016 12.3469
186 2 2.2208 5.18437 -2.90247 8.28641
188 1 -1.1104 0.69206 -1.76544 9.52479
190 1 -1.1104 3.95855 -4.37066 12.5941
192 2 2.2208 2.29581 -0.0249633 8.15059
193 1 -1.1104 3.77442 -4.31395 9.58995
195 2 2.2208 2.44479 -2.81084 10.8633
197 1 -1.1104 3.75284 -1.42311 12.2403
198 1 -1.1104 3.58681 -1.43535 9.49646
178 1 -1.1104 6.66869 -4.12637 12.5076
189 1 -1.1104 6.44705 -1.26031 9.53048
168 1 -1.1104 6.62678 -4.11394 6.83183
185 1 -1.1104 6.74594 -1.25393 12.1064
171 1 -1.1104 6.4729 -1.25557 6.73448
182 1 -1.1104 6.38818 -4.23164 9.71458
207 1 -1.1104 12.2062 -1.30702 6.80628
208 1 -1.1104 9.38239 -4.16272 6.79083
210 1 -1.1104 9.47033 -1.41734 6.70594
205 1 -1.1104 12.0664 -4.38282 6.88404
211 2 2.2208 10.7252 0.0108311 10.8724
212 1 -1.1104 12.0512 -4.3914 12.4243
214 1 -1.1104 12.0879 -4.29213 9.57251
216 1 -1.1104 11.943 -1.55209 12.4737
217 2 2.2208 10.9285 -2.66127 8.24823
219 1 -1.1104 12.1409 -1.57464 9.62873
220 1 -1.1104 9.19886 -4.14555 12.2687
222 2 2.2208 8.02304 -0.0258232 8.05203
223 1 -1.1104 9.1266 -4.27641 9.46167
225 2 2.2208 7.92926 -2.81926 10.9232
227 1 -1.1104 9.37859 -1.36712 12.4875
228 1 -1.1104 9.3912 -1.42985 9.57999
234 1 -1.1104 0.928938 7.01582 6.74043
167 1 -1.1104 0.792036 1.38448 6.5386
173 1 -1.1104 3.88411 1.31453 6.69951
236 1 -1.1104 0.987207 4.18741 6.66079
239 1 -1.1104 3.67868 4.13299 6.39998
177 1 -1.1104 0.996196 1.7041 12.2994
181 1 -1.1104 0.71625 1.33029 9.30325
187 2 2.2208 5.18568 2.75393 7.94149
191 1 -1.1104 3.79232 1.22881 12.3403
194 1 -1.1104 3.69238 1.39001 9.61447
196 2 2.2208 2.34785 3.00759 10.7882
240 2 2.2208 5.19107 5.43411 10.9519
242 1 -1.1104 0.943645 6.96759 12.4298
244 1 -1.1104 0.831346 7.1745 9.44885
246 1 -1.1104 0.944775 4.30801 12.1199
251 1 -1.1104 0.658631 4.37827 9.31101
255 1 -1.1104 3.64596 6.79566 12.312
256 2 2.2208 2.10619 5.56245 8.10594
258 1 -1.1104 3.77475 6.86077 9.57982
260 1 -1.1104 3.88695 4.10826 12.4088
262 1 -1.1104 3.64213 4.1932 9.41213
183 1 -1.1104 6.62559 1.6382 9.63525
253 1 -1.1104 6.53273 4.25419 9.50164
248 1 -1.1104 6.66394 4.12085 12.3661
245 1 -1.1104 6.69686 7.09296 9.31437
238 1 -1.1104 3.72633 7.17305 6.81283
331 2 2.2208 10.9022 16.8836 10.898
237 1 -1.1104 6.54475 4.29201 6.69749
269 1 -1.1104 9.12603 4.27243 6.69798
179 1 -1.1104 6.68386 1.40472 12.3742
206 1 -1.1104 12.0508 1.30448 6.68751
266 1 -1.1104 12.1264 4.1707 6.3647
235 1 -1.1104 6.41652 6.93693 6.52052
209 1 -1.1104 9.45432 1.22879 6.59888
243 1 -1.1104 6.46376 6.94302 12.3687
169 1 -1.1104 6.77857 1.51714 6.3713
267 1 -1.1104 9.37697 7.07326 6.60427
265 1 -1.1104 12.0955 7.08528 6.4389
213 1 -1.1104 12.0362 1.3183 12.2034
215 1 -1.1104 12.0724 1.29055 9.4517
218 2 2.2208 10.9394 2.69567 7.88801
221 1 -1.1104 9.44139 1.0674 12.4273
224 1 -1.1104 9.34481 1.29133 9.45835
226 2 2.2208 7.878 2.86612 10.9243
268 1 -1.1104 9.18782 4.36234 9.47
271 1 -1.1104 9.43156 4.25672 12.2833
273 1 -1.1104 9.45161 7.18792 9.35072
275 2 2.2208 7.81166 5.59806 8.06754
276 2 2.2208 10.7105 5.70571 10.7063
278 1 -1.1104 12.2773 7.07722 12.0326
279 1 -1.1104 12.1333 7.12599 9.41851
280 1 -1.1104 12.0726 4.09473 12.0575
283 1 -1.1104 12.248 4.21878 9.44008
285 1 -1.1104 9.23386 7.00664 12.3302
78 1 -1.1104 3.93655 9.90796 6.35321
108 1 -1.1104 1.12167 12.6516 6.46966
62 1 -1.1104 0.796225 9.73147 6.64854
124 1 -1.1104 3.95983 12.7232 6.71806
299 1 -1.1104 1.36937 12.457 12.1614
294 1 -1.1104 1.10211 12.7058 9.16206
241 2 2.2208 5.16549 11.1363 10.8972
247 1 -1.1104 0.91542 9.58676 12.2576
250 2 2.2208 5.18068 8.44958 7.92738
252 1 -1.1104 1.14967 9.89841 9.57319
257 2 2.2208 2.30021 11.1713 8.00677
259 2 2.2208 2.51263 8.31673 11.0964
261 1 -1.1104 3.72264 9.72296 12.5254
263 1 -1.1104 3.6632 9.67897 9.62563
305 1 -1.1104 3.95999 12.4347 9.46224
287 1 -1.1104 4.00923 12.6913 12.2998
65 1 -1.1104 6.78529 10.0644 6.55738
249 1 -1.1104 6.59805 9.89018 12.2867
254 1 -1.1104 6.57845 9.80918 9.54468
290 1 -1.1104 6.47811 12.5932 9.42649
297 1 -1.1104 6.85629 12.5159 12.3817
289 1 -1.1104 6.80048 15.5573 9.60758
143 1 -1.1104 12.2716 12.8333 6.54784
90 1 -1.1104 12.0817 9.90334 6.57693
101 1 -1.1104 9.50666 9.8153 6.53914
330 1 -1.1104 12.3485 12.6529 12.4244
328 1 -1.1104 12.1994 12.6453 9.38487
322 1 -1.1104 9.55469 12.5887 12.4369
319 1 -1.1104 9.3868 12.7412 9.44858
264 1 -1.1104 9.44234 10.0137 9.60374
270 1 -1.1104 9.48343 9.7583 12.2315
272 2 2.2208 7.95591 8.60648 10.8309
274 2 2.2208 8.03946 11.328 8.15701
277 2 2.2208 10.8684 11.3426 10.8686
281 1 -1.1104 12.2793 10.0035 12.2131
282 2 2.2208 10.7639 8.69895 7.9818
284 1 -1.1104 12.4691 9.95849 9.37108
118 1 -1.1104 6.62789 15.5522 6.71715
302 1 -1.1104 0.983902 18.3613 6.66082
288 1 -1.1104 6.75972 18.3146 9.46864
117 1 -1.1104 1.08624 15.4603 6.60552
126 1 -1.1104 3.85722 18.0508 6.7216
310 2 2.2208 2.38929 14.186 11.0272
295 2 2.2208 5.05479 14.0435 8.06632
303 2 2.2208 2.28116 16.8026 8.02751
291 1 -1.1104 1.19638 18.2569 9.52653
301 1 -1.1104 3.80974 18.1561 9.53142
293 2 2.2208 5.25098 19.6758 8.00125
300 2 2.2208 5.20926 16.7719 11.0055
309 2 2.2208 2.47376 19.5487 10.7718
308 1 -1.1104 3.74153 15.5597 12.491
307 1 -1.1104 0.928477 15.494 12.2542
298 1 -1.1104 1.21906 18.3207 12.3349
292 1 -1.1104 1.00488 15.5021 9.39455
304 1 -1.1104 3.84022 15.4215 9.635
286 1 -1.1104 4.02186 18.431 12.2869
296 1 -1.1104 6.85497 18.2198 12.1261
355 2 2.2208 10.7642 8.37314 13.4691
358 2 2.2208 5.388 19.7504 13.6567
323 1 -1.1104 12.5025 15.2932 9.5027
329 1 -1.1104 12.4248 18.2145 12.3993
325 2 2.2208 10.9747 14.1466 8.16807
320 2 2.2208 7.94513 16.8304 8.2931
317 2 2.2208 8.00529 14.1481 10.7799
156 1 -1.1104 9.55317 18.4941 6.62928
318 1 -1.1104 9.57062 18.3903 9.61244
327 1 -1.1104 12.5402 18.0452 9.36187
315 1 -1.1104 9.40565 15.3106 12.176
366 2 2.2208 2.36272 2.91009 -0.443164
136 2 2.2208 -0.383141 19.5887 2.58725
203 2 2.2208 13.547 2.55196 10.7494
353 2 2.2208 2.64995 11.2817 13.6773
336 2 2.2208 13.631 5.28146 13.5189
341 2 2.2208 5.17012 2.78483 13.6711
373 2 2.2208 2.31889 14.1688 -0.313619
339 2 2.2208 2.30682 0.196365 13.6559
340 2 2.2208 13.5212 -0.00349675 13.5643
379 2 2.2208 5.17941 5.59682 -0.40811
388 2 2.2208 5.19569 -0.0683099 16.5888
389 1 -1.1104 1.00971 -4.1404 17.791
393 1 -1.1104 1.10414 -4.25338 15.0312
401 1 -1.1104 0.969754 -1.32917 17.9613
403 2 2.2208 5.16506 -2.87262 19.5023
405 1 -1.1104 1.11157 -1.11009 15.2185
409 1 -1.1104 3.79956 -3.99567 17.828
411 2 2.2208 2.30878 0.130518 19.3033
412 1 -1.1104 3.79618 -4.1437 15.2584
416 2 2.2208 2.4795 -2.81282 16.4863
418 1 -1.1104 3.87486 -1.42622 18.0623
419 1 -1.1104 3.96626 -1.38146 15.1784
407 1 -1.1104 6.50566 -1.48298 15.2295
346 2 2.2208 10.7363 -2.85392 13.8327
391 1 -1.1104 6.65738 -4.24633 18.0459
429 2 2.2208 13.6415 2.74361 16.5943
350 2 2.2208 10.7571 2.6989 13.7681
335 2 2.2208 -0.315342 19.7332 13.7611
402 1 -1.1104 6.50544 -1.54704 18.0398
397 1 -1.1104 6.68619 -4.33758 15.3449
431 2 2.2208 10.8392 0.00891677 16.5977
432 1 -1.1104 12.3181 -4.21525 17.996
434 1 -1.1104 12.1751 -4.1403 15.2262
438 1 -1.1104 12.3406 -1.37398 18.122
439 2 2.2208 11.0061 -2.94106 19.4161
441 1 -1.1104 12.2671 -1.53656 15.2468
443 1 -1.1104 9.44037 -4.27487 18.2093
445 2 2.2208 7.97626 -0.0604636 19.3377
446 1 -1.1104 9.40086 -4.36144 15.1924
450 2 2.2208 8.01049 -2.92885 16.6924
452 1 -1.1104 9.43187 -1.60651 17.9863
453 1 -1.1104 9.46135 -1.40477 15.2758
648 2 2.2208 -0.312368 11.3037 16.5473
354 2 2.2208 8.02833 5.5586 13.8055
408 1 -1.1104 6.57515 -1.66134 20.8608
352 2 2.2208 5.30031 8.55059 13.788
9159 2 2.2208 13.5862 -5.52586 19.411
390 1 -1.1104 0.818932 1.31809 17.9031
395 1 -1.1104 0.942041 1.59937 15.0228
404 2 2.2208 5.14865 2.65844 19.3119
410 1 -1.1104 3.80938 1.28164 17.8853
414 1 -1.1104 3.8984 1.44331 15.1715
417 2 2.2208 2.44032 2.8446 16.4868
464 2 2.2208 5.14676 5.62531 16.4581
466 1 -1.1104 1.04647 6.93162 18.0646
472 1 -1.1104 0.838846 4.00254 17.7009
477 1 -1.1104 0.864211 4.39069 14.8483
485 1 -1.1104 3.80009 6.98065 17.776
486 2 2.2208 2.24995 5.5279 19.3529
491 1 -1.1104 3.66692 4.18429 17.8242
493 1 -1.1104 3.64506 4.12719 15.1448
488 1 -1.1104 4.00866 7.04303 15.1212
474 1 -1.1104 6.41522 4.24647 17.8742
468 1 -1.1104 0.925582 7.16595 15.162
425 2 2.2208 -0.326976 -2.83167 19.4059
347 2 2.2208 8.25713 14.096 27.7919
471 1 -1.1104 6.74602 7.12931 20.8359
9120 2 2.2208 13.6668 -5.48388 25.0136
386 2 2.2208 10.8351 11.3541 27.6714
470 1 -1.1104 6.8118 7.2648 15.19
392 1 -1.1104 6.70622 1.43875 17.8355
399 1 -1.1104 6.56804 1.31918 14.9246
481 1 -1.1104 6.57317 4.30656 15.1289
433 1 -1.1104 12.1776 1.4274 18.0282
436 1 -1.1104 12.1697 1.25849 15.2482
440 2 2.2208 10.8257 2.84489 19.2766
444 1 -1.1104 9.30422 1.09999 18.1351
448 1 -1.1104 9.27824 1.29828 15.3213
451 2 2.2208 7.95639 2.93243 16.5249
500 2 2.2208 11.1094 5.51698 16.3972
505 1 -1.1104 12.4452 4.25801 17.9856
508 1 -1.1104 12.1116 4.06696 14.9965
512 1 -1.1104 9.60868 6.96688 17.9101
513 2 2.2208 7.97817 5.59311 19.4108
515 1 -1.1104 9.58915 6.93375 14.8557
518 1 -1.1104 9.29262 4.13889 17.9846
520 1 -1.1104 9.47041 4.27033 15.1733
503 1 -1.1104 12.5926 6.87148 14.8577
502 1 -1.1104 12.4449 6.82554 17.8362
586 1 -1.1104 9.48549 15.3873 20.575
9188 2 2.2208 5.26313 -5.54944 16.6467
360 2 2.2208 10.8889 19.6867 13.8568
465 2 2.2208 5.18251 11.2743 16.6394
473 1 -1.1104 1.00317 9.76028 17.8228
476 2 2.2208 5.18064 8.35578 19.3999
479 1 -1.1104 1.11002 10.1423 15.142
487 2 2.2208 2.33115 11.303 19.3598
490 2 2.2208 2.50937 8.62841 16.5575
492 1 -1.1104 3.56602 9.86397 18.084
495 1 -1.1104 3.90196 9.9182 15.1522
528 1 -1.1104 1.06177 12.7922 17.9363
532 1 -1.1104 1.22042 12.8016 14.9319
548 1 -1.1104 3.62974 12.7702 17.7224
551 1 -1.1104 3.98723 12.5475 15.1086
530 1 -1.1104 6.45626 12.8731 17.7721
615 2 2.2208 8.05571 14.025 22.0609
456 2 2.2208 -0.335656 16.8915 16.4517
616 2 2.2208 8.18166 19.6177 22.3025
467 1 -1.1104 6.77832 6.86007 17.919
483 1 -1.1104 6.71105 9.95654 15.1824
475 1 -1.1104 6.36527 9.67474 17.9215
536 1 -1.1104 6.67336 12.8082 15.1019
501 2 2.2208 10.929 11.1375 16.4991
506 1 -1.1104 12.341 9.72218 17.8879
507 2 2.2208 10.7691 8.31495 19.4079
510 1 -1.1104 12.1779 9.70611 14.9043
514 2 2.2208 7.94673 11.432 19.1801
517 2 2.2208 8.10141 8.4354 16.5758
519 1 -1.1104 9.32517 9.89305 18.039
522 1 -1.1104 9.54248 9.85846 15.1251
564 1 -1.1104 12.1545 12.3774 17.7663
566 1 -1.1104 12.4689 12.7912 15.1463
575 1 -1.1104 9.33235 12.6559 17.9503
578 1 -1.1104 9.64065 12.6113 15.1478
384 2 2.2208 10.8062 5.46055 27.7087
618 2 2.2208 13.6651 16.9029 19.3056
526 2 2.2208 10.812 19.682 25.0048
511 1 -1.1104 12.3929 9.80963 20.5846
579 1 -1.1104 9.23907 12.7218 20.6243
645 2 2.2208 -0.442167 19.5937 25.0172
555 2 2.2208 2.44824 14.1682 16.5165
542 2 2.2208 5.3815 14.2268 19.2687
527 2 2.2208 5.1605 17.0527 16.594
529 1 -1.1104 0.729298 18.3451 17.7546
534 1 -1.1104 0.85871 18.206 15.0383
540 1 -1.1104 0.846976 15.6242 17.9108
543 2 2.2208 5.27329 19.8998 19.429
544 1 -1.1104 0.885773 15.5887 15.1038
549 1 -1.1104 3.82745 18.5501 18.011
550 2 2.2208 2.42238 17.1147 19.4164
553 1 -1.1104 3.59071 18.3624 15.0929
556 2 2.2208 2.3638 19.7712 16.3618
557 1 -1.1104 3.67594 15.7676 17.9212
558 1 -1.1104 3.922 15.4631 15.0785
538 1 -1.1104 6.60073 18.4189 15.259
541 1 -1.1104 6.57701 15.8698 18.006
531 1 -1.1104 6.61141 18.3591 18.0093
650 2 2.2208 13.6469 11.3503 19.3156
357 2 2.2208 2.38457 17.0346 13.8002
369 2 2.2208 10.9388 0.088573 27.813
426 2 2.2208 13.7009 8.33557 16.3225
546 1 -1.1104 6.97259 15.4759 15.1417
421 2 2.2208 -0.307062 5.71078 22.0453
714 1 -1.1104 6.97328 15.3066 26.3511
571 2 2.2208 10.7403 14.1014 19.2267
582 2 2.2208 8.28708 14.1171 16.344
563 2 2.2208 10.8756 16.9165 16.4439
565 1 -1.1104 12.2006 18.0925 18.1037
568 1 -1.1104 12.321 18.26 15.1343
570 1 -1.1104 12.2162 15.3305 17.744
572 2 2.2208 10.7156 19.7642 19.2931
573 1 -1.1104 12.3965 15.4705 14.7925
576 1 -1.1104 9.35505 18.1781 17.8913
577 2 2.2208 8.15596 16.986 19.3436
580 1 -1.1104 9.331 18.4369 15.2065
583 2 2.2208 8.02337 19.7129 16.5076
584 1 -1.1104 9.37133 15.4285 17.799
585 1 -1.1104 9.67888 15.4656 14.9211
524 1 -1.1104 12.4607 15.4631 23.3945
359 2 2.2208 5.29958 14.1001 13.7589
646 2 2.2208 -0.202887 13.9848 24.9072
560 1 -1.1104 12.4686 15.3392 26.2602
406 1 -1.1104 1.04875 -1.3389 20.8162
420 1 -1.1104 3.63343 -1.39162 20.881
413 1 -1.1104 3.94185 -4.23738 20.9566
394 1 -1.1104 1.02888 -4.22903 20.7298
591 2 2.2208 5.12192 -0.179739 22.2651
592 1 -1.1104 1.10313 -4.31308 23.5237
596 1 -1.1104 0.95876 -4.27192 26.419
600 1 -1.1104 1.01914 -1.58413 23.5394
602 2 2.2208 5.35811 -3.06908 25.1072
604 1 -1.1104 0.977488 -1.41283 26.163
606 1 -1.1104 3.83327 -4.34643 23.677
608 2 2.2208 2.50988 -0.091636 24.9311
609 1 -1.1104 3.75568 -4.25496 26.3517
611 2 2.2208 2.4372 -2.79135 22.2135
613 1 -1.1104 3.98251 -1.64667 23.5488
614 1 -1.1104 3.84616 -1.45342 26.5262
594 1 -1.1104 6.75909 -4.13939 23.6794
605 1 -1.1104 6.63903 -1.58809 26.4294
601 1 -1.1104 6.77522 -1.4893 23.5746
342 2 2.2208 -0.379679 14.1818 13.759
398 1 -1.1104 6.6905 -4.35348 20.8734
435 1 -1.1104 12.3724 -4.27157 20.938
454 1 -1.1104 9.45468 -1.49824 20.8762
447 1 -1.1104 9.47974 -4.51405 20.9195
598 1 -1.1104 6.80077 -4.26643 26.4096
442 1 -1.1104 12.4563 -1.51995 20.7139
627 2 2.2208 10.9349 -0.0396012 22.0916
628 1 -1.1104 12.2714 -4.23069 23.5881
630 1 -1.1104 12.3238 -4.21838 26.6812
632 1 -1.1104 12.3302 -1.4605 23.7377
633 2 2.2208 10.8289 -2.98594 25.0365
635 1 -1.1104 12.3672 -1.33823 26.482
636 1 -1.1104 9.52422 -4.10458 23.6244
638 2 2.2208 8.15596 0.0198924 24.8192
639 1 -1.1104 9.52798 -4.23259 26.7693
641 2 2.2208 8.06474 -2.82528 22.1507
643 1 -1.1104 9.57996 -1.39348 23.628
644 1 -1.1104 9.60006 -1.30813 26.3617
588 1 -1.1104 6.40052 18.0965 26.3468
494 1 -1.1104 3.72603 4.21938 20.599
469 1 -1.1104 0.937424 6.98937 20.732
478 1 -1.1104 1.01748 4.05547 20.8215
415 1 -1.1104 3.72133 1.44688 20.6621
489 1 -1.1104 3.7437 7.0189 20.8036
396 1 -1.1104 1.0454 1.38949 20.5885
593 1 -1.1104 0.991915 1.24289 23.5611
597 1 -1.1104 1.17168 1.44619 26.6464
603 2 2.2208 5.32204 2.61842 24.9357
607 1 -1.1104 3.80181 1.17828 23.6562
610 1 -1.1104 3.81557 1.62126 26.3388
612 2 2.2208 2.24239 2.776 22.1726
656 2 2.2208 5.33463 5.37524 22.0433
658 1 -1.1104 1.20539 6.95042 23.5855
660 1 -1.1104 0.926358 7.00783 26.3435
662 1 -1.1104 1.09811 4.25865 23.7713
667 1 -1.1104 0.796121 4.34378 26.533
671 1 -1.1104 4.11296 6.78505 23.558
672 2 2.2208 2.40646 5.63156 25.0645
674 1 -1.1104 3.91848 6.94903 26.4721
676 1 -1.1104 3.56703 4.11259 23.4925
678 1 -1.1104 3.71631 4.19593 26.441
400 1 -1.1104 6.48355 1.45864 20.6777
664 1 -1.1104 6.55953 4.20694 23.5472
661 1 -1.1104 6.5721 6.71696 26.1968
343 2 2.2208 7.95571 -0.057933 13.808
595 1 -1.1104 6.63824 1.32793 23.5619
449 1 -1.1104 9.45199 1.16573 20.8782
509 1 -1.1104 12.3665 4.15651 20.8628
482 1 -1.1104 6.68357 4.128 20.7548
669 1 -1.1104 6.65531 3.87562 26.3062
516 1 -1.1104 9.65515 6.92146 20.5236
521 1 -1.1104 9.64483 4.10562 20.9379
437 1 -1.1104 12.1745 1.34314 20.6862
599 1 -1.1104 6.79137 1.25228 26.3401
659 1 -1.1104 6.65934 7.22154 23.4367
629 1 -1.1104 12.2726 1.41631 23.6172
631 1 -1.1104 12.4347 1.39903 26.2337
634 2 2.2208 11.0358 2.85745 24.779
637 1 -1.1104 9.66086 1.39798 23.3752
640 1 -1.1104 9.63349 1.48343 26.4099
642 2 2.2208 8.08371 2.8047 22.1925
688 1 -1.1104 9.45984 4.44599 26.1364
690 1 -1.1104 9.31937 4.16266 23.5508
692 1 -1.1104 9.39674 7.13096 26.3426
694 2 2.2208 8.04251 5.64052 24.8679
695 2 2.2208 11.0219 5.65653 22.0946
697 1 -1.1104 12.3407 7.0291 23.5363
698 1 -1.1104 12.4583 7.08898 26.1812
699 1 -1.1104 12.3726 4.22467 23.5619
702 1 -1.1104 12.292 4.26065 26.2902
704 1 -1.1104 9.43738 7.09031 23.443
504 1 -1.1104 12.3203 7.27905 20.8856
496 1 -1.1104 3.89591 9.73786 20.6983
617 1 -1.1104 9.37704 15.2567 23.3124
552 1 -1.1104 3.93274 12.5786 20.6804
480 1 -1.1104 1.24692 9.81529 20.6814
533 1 -1.1104 0.998887 12.592 20.7888
657 2 2.2208 5.22258 11.1976 21.9791
663 1 -1.1104 1.05408 9.71502 23.6882
666 2 2.2208 5.21409 8.13937 24.9745
668 1 -1.1104 1.20497 9.87591 26.3868
673 2 2.2208 2.4245 11.1235 24.8065
675 2 2.2208 2.29116 8.39027 22.3677
677 1 -1.1104 4.05856 9.46654 23.2826
679 1 -1.1104 3.93048 9.71667 26.2049
681 1 -1.1104 3.79085 12.54 26.1366
706 1 -1.1104 0.976134 12.425 23.6179
713 1 -1.1104 3.69547 12.5766 23.2869
717 1 -1.1104 0.90556 12.4386 26.4883
537 1 -1.1104 6.52148 12.7554 20.5408
709 1 -1.1104 6.66693 12.936 23.5848
665 1 -1.1104 6.83533 9.93042 23.4892
623 2 2.2208 -0.391193 17.0419 22.184
670 1 -1.1104 6.58107 9.42113 26.3538
567 1 -1.1104 12.2612 12.4238 20.9128
484 1 -1.1104 6.91638 9.99399 20.5537
712 1 -1.1104 6.71126 12.4676 26.5229
523 1 -1.1104 9.65371 9.59101 20.933
589 1 -1.1104 9.24911 12.5825 26.3213
687 1 -1.1104 9.34783 9.83912 26.3873
689 1 -1.1104 9.59759 9.86927 23.7112
691 2 2.2208 8.10253 8.54083 22.2357
693 2 2.2208 8.08027 11.0146 24.8791
696 2 2.2208 10.7003 11.1475 22.0512
700 1 -1.1104 12.3337 9.8907 23.6208
701 2 2.2208 10.8957 8.43802 24.9679
703 1 -1.1104 12.1248 10.0204 26.4128
561 1 -1.1104 9.58293 12.6203 23.5603
463 1 -1.1104 12.3969 12.766 23.4255
498 1 -1.1104 12.2959 12.6425 26.3878
684 2 2.2208 -0.383825 8.55048 25.1122
545 1 -1.1104 1.06251 15.7154 20.7092
554 1 -1.1104 3.8622 18.4133 20.8546
718 1 -1.1104 6.77567 18.4132 23.5426
547 1 -1.1104 6.60084 15.7073 20.5491
535 1 -1.1104 0.955329 18.4443 20.7422
559 1 -1.1104 3.79869 15.4328 20.6184
720 2 2.2208 5.21882 14.099 25.0454
647 2 2.2208 2.47142 14.2259 22.1227
649 2 2.2208 2.31798 19.7243 22.1632
652 1 -1.1104 4.01399 15.4176 23.7115
655 1 -1.1104 1.16893 15.6505 23.6027
682 1 -1.1104 3.93682 15.4998 26.5737
683 2 2.2208 2.41369 16.926 25.1223
686 1 -1.1104 3.57127 18.2767 26.5223
705 2 2.2208 5.3182 17.0053 22.1867
707 1 -1.1104 0.998007 18.4293 23.5931
711 1 -1.1104 3.69251 18.1412 23.7809
715 1 -1.1104 0.798609 18.0475 26.5831
716 1 -1.1104 0.819865 15.4496 26.2537
719 2 2.2208 5.22743 19.6774 25.0858
539 1 -1.1104 6.56068 18.4077 20.8711
680 1 -1.1104 6.75046 15.6541 23.1925
457 2 2.2208 -0.355497 14.0401 19.4349
462 2 2.2208 10.8965 16.8565 22.2406
590 1 -1.1104 9.43003 18.2803 26.3504
499 1 -1.1104 12.5129 18.0997 26.4866
562 1 -1.1104 9.60208 18.1024 23.6086
587 2 2.2208 8.04002 16.768 24.8843
574 1 -1.1104 12.3198 15.2248 20.3932
569 1 -1.1104 12.098 18.3293 20.7371
620 1 -1.1104 9.69808 15.5482 26.2666
581 1 -1.1104 9.39029 18.3171 20.7164
497 1 -1.1104 12.5305 18.1416 23.6907
525 2 2.2208 10.9044 14.0806 24.962
622 2 2.2208 -0.291672 8.44222 19.1936
368 2 2.2208 -0.35485 0.198372 27.7125
372 2 2.2208 8.08132 2.59137 27.5948
338 2 2.2208 5.32951 -2.87184 13.9059
356 2 2.2208 8.08708 11.3534 13.7739
351 2 2.2208 2.35591 5.6614 13.7152
348 2 2.2208 10.931 16.8701 27.673
385 2 2.2208 8.23318 8.40981 27.7247
721 2 2.2208 5.19157 22.5515 5.36701
723 1 -1.1104 1.06884 24.0267 1.22587
724 1 -1.1104 0.919566 23.7335 4.05104
725 1 -1.1104 1.06166 20.982 1.09638
727 2 2.2208 5.19023 25.3671 2.48364
728 1 -1.1104 1.21928 20.9768 3.73585
730 1 -1.1104 3.61976 24.1625 0.948906
731 2 2.2208 2.42819 22.4887 2.47519
733 1 -1.1104 3.61031 23.9539 3.98984
734 2 2.2208 2.22555 25.3617 5.19332
735 1 -1.1104 3.88028 21.102 1.03418
737 1 -1.1104 3.83318 21.1443 3.76148
729 1 -1.1104 0.684928 26.6484 3.89638
738 1 -1.1104 3.60996 26.7091 3.76104
743 1 -1.1104 6.47012 23.8897 3.61762
736 1 -1.1104 3.98574 26.9033 1.11949
726 1 -1.1104 0.978019 26.806 1.14804
1069 2 2.2208 2.31951 25.4017 -0.325388
1078 2 2.2208 2.52574 36.7747 -0.438507
868 1 -1.1104 3.78443 23.9149 6.80092
867 1 -1.1104 6.48365 26.609 6.83229
1080 2 2.2208 5.11531 33.7895 -0.256439
742 1 -1.1104 6.38425 23.9831 0.661288
744 1 -1.1104 6.62941 21.1168 1.1274
746 1 -1.1104 6.45689 21.0409 3.97795
748 2 2.2208 10.9065 22.5915 5.0881
750 1 -1.1104 12.1051 24.0235 0.912753
751 1 -1.1104 12.2531 23.9451 3.70692
752 1 -1.1104 12.1847 21.0539 0.932731
754 2 2.2208 10.8843 25.4724 2.26555
755 1 -1.1104 12.0556 21.1041 3.70865
757 1 -1.1104 9.29125 23.9373 1.05023
758 2 2.2208 7.84034 22.5675 2.49762
760 1 -1.1104 9.3775 24.0008 3.72185
761 2 2.2208 8.12758 25.4453 5.15959
762 1 -1.1104 9.53615 21.0684 1.06161
764 1 -1.1104 9.33897 21.1352 3.66081
763 1 -1.1104 9.5844 26.7109 0.776989
756 1 -1.1104 12.2111 26.8718 3.98942
753 1 -1.1104 12.7316 26.7487 0.979328
745 1 -1.1104 6.79645 26.6466 0.999826
747 1 -1.1104 6.59502 26.809 4.20529
765 1 -1.1104 9.21371 26.6359 3.44005
997 1 -1.1104 6.56528 40.7777 12.3435
1090 2 2.2208 2.51179 42.182 -0.369003
1081 2 2.2208 10.8177 45.0213 -0.202886
722 2 2.2208 4.95353 28.1939 5.31549
732 2 2.2208 2.44974 28.3502 2.33658
770 1 -1.1104 0.824051 29.3953 0.883151
773 1 -1.1104 0.932108 29.4766 3.90315
776 1 -1.1104 0.709365 32.2939 1.17035
777 2 2.2208 5.29433 31.0585 2.53023
779 1 -1.1104 0.925655 32.3995 3.99149
781 1 -1.1104 3.75875 29.7207 1.08363
784 1 -1.1104 3.73467 29.6658 4.03549
786 2 2.2208 2.21468 31.0446 5.16326
788 1 -1.1104 3.49515 32.4605 1.05861
789 1 -1.1104 3.75668 32.3972 3.82005
793 1 -1.1104 6.5405 29.6904 0.879686
766 2 2.2208 13.5865 22.5035 2.08677
1065 2 2.2208 7.79092 39.5383 13.6548
1020 1 -1.1104 12.3159 43.4884 12.5346
780 1 -1.1104 6.71984 32.4465 3.88757
924 1 -1.1104 6.75146 32.2334 6.65113
794 1 -1.1104 6.67934 29.5888 3.59887
795 1 -1.1104 6.44263 32.4858 1.09716
749 2 2.2208 10.7159 28.17 5.24991
759 2 2.2208 8.0008 28.4044 2.15386
797 1 -1.1104 12.109 29.2748 1.02653
799 1 -1.1104 11.9552 29.6949 3.92366
801 1 -1.1104 12.2114 32.0706 0.916864
802 2 2.2208 10.8546 30.993 2.58753
804 1 -1.1104 12.2101 32.4825 3.89723
805 1 -1.1104 9.60358 29.4277 0.81618
808 1 -1.1104 9.28053 29.5105 3.87266
810 2 2.2208 7.88024 30.915 5.1501
812 1 -1.1104 9.3377 32.251 0.881109
813 1 -1.1104 9.39984 32.3784 3.7937
953 1 -1.1104 12.0507 29.6454 6.53399
956 1 -1.1104 9.0766 29.5529 6.80488
1415 1 -1.1104 0.833378 46.6221 1.00715
1036 2 2.2208 13.4869 28.257 8.09274
1617 1 -1.1104 6.60704 46.6463 12.4853
1074 2 2.2208 10.7421 22.514 -0.304884
769 2 2.2208 5.23668 33.847 5.36229
771 1 -1.1104 0.655595 35.0777 1.38443
774 1 -1.1104 0.769902 35.3326 4.15702
778 2 2.2208 5.19022 36.4973 2.33643
782 1 -1.1104 3.73134 35.4279 1.02336
783 2 2.2208 2.20568 33.8751 2.46234
785 1 -1.1104 3.7711 35.0275 3.67521
787 2 2.2208 2.15328 36.8652 5.34374
815 2 2.2208 5.2621 39.5187 5.32273
821 1 -1.1104 1.04059 37.9277 1.14486
826 1 -1.1104 0.873261 38.2735 3.71287
831 2 2.2208 2.30451 39.5612 2.44376
835 1 -1.1104 3.97873 38.2141 1.17221
837 1 -1.1104 3.73831 37.8045 3.73043
823 1 -1.1104 6.66666 37.9459 0.893922
10267 3 0 13.2606 33.9318 13.5005
959 3 0 11.2601 31.2365 13.5601
1048 2 2.2208 10.9716 25.2354 13.6297
1017 1 -1.1104 12.5618 43.7221 9.65934
1075 2 2.2208 8.0612 25.2731 -0.334416
1091 2 2.2208 5.36084 39.5377 -0.343507
1420 1 -1.1104 0.873469 46.3696 3.89302
772 1 -1.1104 6.56591 35.1588 1.13475
775 1 -1.1104 6.55082 35.2837 3.96241
828 1 -1.1104 6.46104 38.0568 3.97429
796 2 2.2208 10.7393 33.8109 5.3591
798 1 -1.1104 12.1953 35.2738 0.935037
800 1 -1.1104 12.0307 35.1829 3.74683
803 2 2.2208 10.763 36.7426 2.41213
806 1 -1.1104 9.55398 35.2828 0.843169