ITEM: TIMESTEP
40000
ITEM: NUMBER OF ATOMS
17760
ITEM: BOX BOUNDS pp pp pp
-4.5197499223777249e-01 2.7791974992237879e+01
-5.2940439713646787e+00 3.3337404397135344e+02
-4.4898011199124938e-01 2.7788980111991670e+01
ITEM: ATOMS id type q x y z
1 2 2.2208 4.8671 0.414756 5.02543
2 1 -1.1104 0.570641 -4.02961 0.760937
6 1 -1.1104 0.804702 -3.97524 3.48318
10 1 -1.1104 0.837974 -1.37964 0.835753
12 2 2.2208 4.84065 -2.66496 2.26991
14 1 -1.1104 0.776318 -1.24346 3.45207
16 1 -1.1104 3.28766 -3.98303 0.646458
18 2 2.2208 2.04954 0.40838 2.27592
19 1 -1.1104 3.54733 -3.87846 3.75645
21 2 2.2208 1.97829 -2.52654 5.03562
23 1 -1.1104 3.84115 -1.32217 0.835354
24 1 -1.1104 3.48027 -0.912935 3.57113
11 1 -1.1104 6.39309 -0.970495 0.695317
172 1 -1.1104 3.31427 -3.83568 6.69655
171 1 -1.1104 6.29706 -1.29098 6.50683
8 1 -1.1104 6.21146 -3.85048 3.75632
15 1 -1.1104 6.51772 -1.12629 3.70964
4 1 -1.1104 6.46633 -4.00231 0.98273
170 1 -1.1104 0.835163 -1.1562 6.34345
168 1 -1.1104 6.11333 -4.02429 6.40486
105 2 2.2208 13.5271 5.95947 2.18758
31 2 2.2208 10.569 0.408459 5.04249
32 1 -1.1104 12.0578 -3.74871 0.953103
34 1 -1.1104 11.9285 -3.88808 3.77027
36 1 -1.1104 12.2713 -0.972736 0.837108
37 2 2.2208 10.6178 -2.51441 2.27862
39 1 -1.1104 12.108 -1.1757 3.69701
40 1 -1.1104 9.08096 -4.06342 0.783952
42 2 2.2208 7.7749 0.211999 2.25097
43 1 -1.1104 9.04192 -3.86161 3.66196
45 2 2.2208 7.59172 -2.68338 5.10903
47 1 -1.1104 9.33981 -1.25012 0.766798
48 1 -1.1104 9.19941 -1.05258 3.44042
210 1 -1.1104 9.09797 -1.13295 6.40733
205 1 -1.1104 12.0195 -3.71079 6.46348
207 1 -1.1104 12.0323 -0.966757 6.27942
50 2 2.2208 13.4593 -2.41056 5.04356
376 2 2.2208 13.4245 11.6181 13.3647
49 2 2.2208 13.5047 0.306864 2.3699
208 1 -1.1104 8.94615 -3.98332 6.27966
358 2 2.2208 4.95075 20.0303 13.4576
3 1 -1.1104 0.906632 1.51178 0.883736
7 1 -1.1104 0.776115 1.71741 3.62981
13 2 2.2208 4.96731 3.29205 2.1104
17 1 -1.1104 3.58705 1.70995 0.694498
20 1 -1.1104 3.53698 1.98369 3.50791
22 2 2.2208 2.00069 3.31559 5.06934
54 2 2.2208 4.7844 5.99269 5.16224
56 1 -1.1104 0.852263 7.3882 0.596695
60 1 -1.1104 0.648331 4.54488 1.05107
67 1 -1.1104 0.790775 4.62163 3.56229
71 1 -1.1104 3.47289 7.5624 0.942719
72 2 2.2208 2.17759 5.9021 2.1177
76 1 -1.1104 3.64719 4.5383 0.629248
79 1 -1.1104 3.41825 4.8018 3.64619
58 1 -1.1104 0.7478 7.31737 3.65337
74 1 -1.1104 3.58348 7.31285 3.66244
234 1 -1.1104 0.88091 7.34851 6.37129
173 1 -1.1104 3.49468 1.92062 6.29228
238 1 -1.1104 3.50766 7.64611 6.48752
167 1 -1.1104 0.554963 1.65511 6.39018
69 1 -1.1104 6.23745 4.50269 3.70632
63 1 -1.1104 6.32676 4.87994 0.607981
9 1 -1.1104 6.43582 1.66223 3.94961
59 1 -1.1104 6.27085 7.34442 3.59461
5 1 -1.1104 6.53841 1.79388 0.937269
237 1 -1.1104 6.12295 4.69702 6.50664
235 1 -1.1104 6.62351 7.47711 6.28334
239 1 -1.1104 3.44425 4.71827 6.63752
57 1 -1.1104 6.29479 7.53419 0.79708
357 2 2.2208 2.38687 17.1882 13.1736
33 1 -1.1104 12.0532 1.7207 1.07553
35 1 -1.1104 12.036 1.70563 3.74039
38 2 2.2208 10.4467 3.1562 2.2533
41 1 -1.1104 9.28749 1.59091 0.897398
44 1 -1.1104 9.19002 1.5511 3.59695
46 2 2.2208 7.52369 3.16519 5.13515
84 2 2.2208 10.6179 5.90305 5.07755
87 1 -1.1104 11.8554 7.61416 3.67586
88 1 -1.1104 12.2314 4.58463 0.777409
92 1 -1.1104 11.7685 4.56882 3.4952
95 2 2.2208 7.76296 6.16001 1.99903
99 1 -1.1104 9.16186 4.43104 0.719589
102 1 -1.1104 9.0415 4.6488 3.8061
86 1 -1.1104 12.1917 7.52121 0.718334
97 1 -1.1104 9.13904 7.36807 3.44059
94 1 -1.1104 9.14423 7.35694 0.582198
265 1 -1.1104 11.8576 7.23458 6.63731
269 1 -1.1104 8.95238 4.48 6.62682
267 1 -1.1104 9.49914 7.24308 6.46381
206 1 -1.1104 11.9844 1.74381 6.75353
209 1 -1.1104 9.06732 1.71442 6.31779
333 2 2.2208 13.4304 14.4497 10.6723
169 1 -1.1104 6.20952 1.68992 6.68878
165 2 2.2208 13.5664 17.4553 2.06855
232 2 2.2208 13.4971 8.87111 4.90053
55 2 2.2208 4.96749 11.6527 5.10015
61 1 -1.1104 0.810836 10.2581 0.660048
66 2 2.2208 4.96784 8.94627 2.39227
68 1 -1.1104 0.735617 10.0304 3.5541
73 2 2.2208 2.0052 11.5411 2.06501
75 2 2.2208 2.16087 8.81978 4.87978
77 1 -1.1104 3.51603 10.2099 1.30076
80 1 -1.1104 3.52706 10.0451 3.76393
107 1 -1.1104 0.83349 13.0661 0.74385
113 1 -1.1104 0.504053 13.0388 3.52978
123 1 -1.1104 3.49568 12.9399 0.549171
128 1 -1.1104 3.45 12.9469 3.23594
124 1 -1.1104 3.55294 13.1108 6.23018
108 1 -1.1104 0.933402 13.0174 6.60436
70 1 -1.1104 6.27312 10.2509 3.76202
115 1 -1.1104 6.46874 12.8508 3.37364
62 1 -1.1104 0.822827 10.3226 6.30172
65 1 -1.1104 6.50619 10.2524 6.54497
64 1 -1.1104 6.34651 9.95517 0.724418
130 2 2.2208 2.12105 14.2741 5.08571
110 1 -1.1104 6.40303 12.7737 0.708298
85 2 2.2208 10.514 11.5663 4.87879
89 1 -1.1104 12.0579 10.2674 0.692307
91 2 2.2208 10.6151 8.57627 2.13137
93 1 -1.1104 12.3588 10.1531 3.5773
96 2 2.2208 7.76847 11.5924 2.07885
98 2 2.2208 7.85311 8.75219 4.87404
100 1 -1.1104 9.28776 10.2102 0.635994
103 1 -1.1104 9.28437 10.2531 3.43422
142 1 -1.1104 12.1262 13.1056 0.616316
146 1 -1.1104 11.7749 12.7747 3.47677
153 1 -1.1104 9.02674 13.1171 0.867238
158 1 -1.1104 9.03468 13.073 3.50171
154 1 -1.1104 9.32136 12.9322 6.37664
90 1 -1.1104 11.7324 10.1288 6.47434
101 1 -1.1104 9.17606 10.1683 6.05867
9027 2 2.2208 10.4433 -5.20248 5.11129
104 2 2.2208 13.4797 11.5355 2.1301
143 1 -1.1104 12.0617 12.9807 6.22534
361 2 2.2208 10.6884 14.3558 13.3274
119 2 2.2208 4.97504 14.2599 1.91321
106 2 2.2208 4.76866 17.1886 4.95717
109 1 -1.1104 0.626245 18.2223 0.940975
114 1 -1.1104 0.568427 18.4939 3.72539
116 1 -1.1104 0.571384 15.7419 0.87235
120 2 2.2208 4.78439 20.0365 2.28452
121 1 -1.1104 0.507929 15.8232 3.69747
125 1 -1.1104 3.4014 18.8066 0.755028
127 2 2.2208 1.95016 17.2122 2.49137
129 1 -1.1104 3.32893 18.7524 3.69114
131 2 2.2208 2.15187 20.0798 5.06504
132 1 -1.1104 3.53754 15.8819 0.759676
134 1 -1.1104 3.45817 15.7641 3.55395
138 1 -1.1104 6.25565 18.555 0.636718
140 1 -1.1104 6.46648 15.8707 0.539766
117 1 -1.1104 0.631248 15.9079 6.37604
302 1 -1.1104 0.649194 18.7468 6.53287
112 1 -1.1104 6.44487 18.6573 6.59067
126 1 -1.1104 3.50894 18.6428 6.46524
133 1 -1.1104 3.40657 15.8355 6.07512
118 1 -1.1104 6.17726 15.8087 6.49032
351 2 2.2208 2.13791 5.92218 13.4314
139 1 -1.1104 6.23709 18.3234 3.62704
122 1 -1.1104 6.23675 15.6172 3.49964
163 1 -1.1104 8.93391 15.7101 6.41906
160 2 2.2208 7.85809 14.3882 4.91223
150 2 2.2208 10.5921 14.4694 2.14147
141 2 2.2208 10.6173 17.1438 5.07819
144 1 -1.1104 11.9233 18.6761 0.56134
147 1 -1.1104 12.2713 18.433 3.65286
148 1 -1.1104 11.896 15.9711 0.568024
151 2 2.2208 10.5894 19.871 1.91853
152 1 -1.1104 12.0216 15.6633 3.46236
155 1 -1.1104 9.03767 18.7221 0.857031
157 2 2.2208 7.81785 17.182 2.22668
159 1 -1.1104 9.33099 18.5557 3.76603
161 2 2.2208 7.86492 20.1174 4.93317
162 1 -1.1104 9.18567 15.8732 0.665095
164 1 -1.1104 9.20994 16.031 3.38873
145 1 -1.1104 12.0195 18.8006 6.42703
156 1 -1.1104 9.26563 18.4608 6.46019
149 1 -1.1104 12.1074 15.8503 6.18756
231 2 2.2208 13.5099 20.0126 4.90152
204 2 2.2208 13.3961 14.4953 4.69384
166 1 -1.1104 0.590513 -4.12192 6.36389
174 1 -1.1104 3.50227 -1.05031 6.2529
175 2 2.2208 4.73538 0.497328 10.6388
176 1 -1.1104 0.716317 -3.97821 11.9376
180 1 -1.1104 0.480393 -4.18734 9.28822
184 1 -1.1104 0.688476 -1.04761 12.2226
186 2 2.2208 4.70478 -2.44439 7.88647
188 1 -1.1104 0.333367 -1.16161 9.26005
190 1 -1.1104 3.50988 -4.04131 12.1872
192 2 2.2208 1.95162 0.369405 7.88116
193 1 -1.1104 3.48003 -3.69564 9.56077
195 2 2.2208 2.02859 -2.37417 10.7595
197 1 -1.1104 3.39687 -1.02909 12.1966
198 1 -1.1104 3.31941 -1.01013 9.18443
178 1 -1.1104 6.23491 -4.13705 12.0203
182 1 -1.1104 6.22948 -3.72074 9.33473
185 1 -1.1104 6.34779 -1.06707 12.2293
233 2 2.2208 13.4177 3.13895 5.06119
341 2 2.2208 5.06937 3.16938 13.5683
317 2 2.2208 8.14111 14.3296 10.6722
354 2 2.2208 7.71871 6.06172 13.5671
324 2 2.2208 10.5463 19.9243 7.83539
189 1 -1.1104 6.00464 -0.973698 9.45882
229 2 2.2208 13.3204 0.165917 7.84541
211 2 2.2208 10.4579 0.383774 10.6743
212 1 -1.1104 11.9933 -3.69929 12.0351
214 1 -1.1104 11.958 -3.68166 9.1971
216 1 -1.1104 11.8159 -1.01605 12.0219
217 2 2.2208 10.4932 -2.4946 7.96028
219 1 -1.1104 11.8244 -1.09012 9.31849
220 1 -1.1104 8.89682 -3.79726 11.8827
222 2 2.2208 7.61529 0.25024 7.87293
223 1 -1.1104 9.09765 -3.87279 9.16152
225 2 2.2208 7.50646 -2.46865 10.7255
227 1 -1.1104 9.13314 -0.954712 12.2246
228 1 -1.1104 9.07165 -1.2022 9.45148
343 2 2.2208 7.55576 0.414772 13.4439
315 1 -1.1104 9.37501 15.8454 12.0959
236 1 -1.1104 0.769042 4.53763 6.50078
194 1 -1.1104 3.24837 1.84853 9.21188
177 1 -1.1104 0.622928 1.71347 12.0788
181 1 -1.1104 0.450287 1.80112 9.176
187 2 2.2208 4.77758 3.19094 7.96379
191 1 -1.1104 3.46014 1.85689 12.0229
196 2 2.2208 2.05666 3.26286 10.7067
240 2 2.2208 5.01662 5.89396 10.8754
242 1 -1.1104 0.560423 7.26937 12.1203
246 1 -1.1104 0.692041 4.60543 11.9976
251 1 -1.1104 0.678666 4.51083 9.19279
255 1 -1.1104 3.45196 7.33976 12.2172
256 2 2.2208 2.22917 6.12185 7.94969
260 1 -1.1104 3.59008 4.52437 12.3657
262 1 -1.1104 3.51281 4.68219 9.53034
258 1 -1.1104 3.84193 7.41583 9.13609
183 1 -1.1104 6.09959 1.76896 9.42948
244 1 -1.1104 1.08437 7.37825 9.5293
253 1 -1.1104 6.27849 4.51352 9.24087
248 1 -1.1104 6.27672 4.44484 12.0055
243 1 -1.1104 6.1514 7.3837 12.1362
245 1 -1.1104 6.4828 7.40275 9.16643
356 2 2.2208 7.76311 11.4008 13.5015
179 1 -1.1104 6.10354 1.67787 12.0448
266 1 -1.1104 11.9456 4.4611 6.47177
203 2 2.2208 13.2287 3.03037 10.7707
202 2 2.2208 13.1255 5.85049 7.86871
213 1 -1.1104 11.8434 1.64212 12.1859
215 1 -1.1104 11.8196 1.76233 9.42608
218 2 2.2208 10.5263 3.09885 7.89423
221 1 -1.1104 9.07865 1.97704 12.0894
224 1 -1.1104 8.91024 1.98846 8.99789
226 2 2.2208 7.72013 3.18266 10.5612
268 1 -1.1104 9.25171 4.66039 9.23875
271 1 -1.1104 9.01363 4.42249 11.8623
273 1 -1.1104 9.17144 7.29773 9.2563
275 2 2.2208 7.85842 5.97735 7.81929
276 2 2.2208 10.4414 5.90902 10.7223
278 1 -1.1104 11.8548 7.73841 12.1228
280 1 -1.1104 11.8914 4.81034 12.167
283 1 -1.1104 11.8573 4.39519 9.23266
285 1 -1.1104 8.99749 7.38562 11.9658
279 1 -1.1104 12.0664 7.1989 9.37332
350 2 2.2208 10.5855 3.16693 13.4834
111 1 -1.1104 6.48835 13.0583 6.26603
78 1 -1.1104 3.68516 10.3461 6.45564
352 2 2.2208 4.91069 8.73582 13.5295
299 1 -1.1104 0.610795 13.0502 11.9683
294 1 -1.1104 0.62763 13.0559 9.42599
241 2 2.2208 5.01545 11.4412 10.45
247 1 -1.1104 0.616685 10.1612 12.1782
250 2 2.2208 5.12937 8.82855 7.81006
252 1 -1.1104 0.549651 10.0456 9.32791
257 2 2.2208 2.05508 11.4494 8.17422
259 2 2.2208 2.17171 8.72863 10.9839
261 1 -1.1104 3.55643 10.0766 12.3025
263 1 -1.1104 3.52477 10.0217 9.34591
305 1 -1.1104 3.71525 12.8906 8.93815
287 1 -1.1104 3.63453 12.8001 11.6902
297 1 -1.1104 6.54287 13.0763 12.144
290 1 -1.1104 6.42164 13.007 9.21187
254 1 -1.1104 6.4815 10.2062 9.1191
249 1 -1.1104 6.31309 10.2054 12.0076
323 1 -1.1104 12.0355 15.7549 9.30539
53 2 2.2208 13.447 11.5505 7.79114
330 1 -1.1104 12.015 13.1465 12.0301
328 1 -1.1104 11.8291 12.9052 9.16897
322 1 -1.1104 9.11157 12.7989 11.9602
319 1 -1.1104 9.27535 12.9568 9.15321
264 1 -1.1104 9.17853 10.1655 9.16803
270 1 -1.1104 8.99538 10.0609 11.8938
272 2 2.2208 7.65841 8.85523 10.4908
274 2 2.2208 7.91058 11.6872 7.75321
277 2 2.2208 10.6394 11.5538 10.5987
281 1 -1.1104 11.7794 10.5208 12.3713
282 2 2.2208 10.7058 8.6172 7.89049
284 1 -1.1104 12.0623 10.2722 9.37244
52 2 2.2208 13.3508 8.87172 10.7616
355 2 2.2208 10.3731 8.72336 13.4815
325 2 2.2208 10.6427 14.4097 7.75255
306 1 -1.1104 6.5491 15.8063 12.1667
363 2 2.2208 13.5205 17.3015 13.5305
296 1 -1.1104 6.35226 18.5839 12.0662
295 2 2.2208 5.0122 14.3873 7.77389
286 1 -1.1104 3.71808 18.5136 12.0725
310 2 2.2208 2.23303 14.3183 10.3911
303 2 2.2208 2.04983 17.1977 7.79581
291 1 -1.1104 0.665114 18.3947 9.35372
301 1 -1.1104 3.49262 18.5483 9.34167
293 2 2.2208 4.7536 19.825 7.96611
300 2 2.2208 5.24133 17.0815 10.5686
309 2 2.2208 2.23576 19.8495 10.9185
308 1 -1.1104 3.5663 15.6837 11.7893
307 1 -1.1104 0.746162 15.8693 12.1492
298 1 -1.1104 0.878488 18.7033 12.2697
292 1 -1.1104 0.633831 15.8902 9.28927
304 1 -1.1104 3.69128 15.7743 8.97558
289 1 -1.1104 6.5429 15.6087 9.36268
288 1 -1.1104 6.53173 18.5557 9.40128
28 2 2.2208 13.385 19.7361 10.7311
316 2 2.2208 7.85755 19.9203 10.6965
314 1 -1.1104 9.27126 15.7703 9.2194
318 1 -1.1104 9.28736 18.472 9.28743
360 2 2.2208 10.639 19.9383 13.5954
327 1 -1.1104 12.0064 18.3474 9.19281
320 2 2.2208 7.77036 17.0702 7.87211
353 2 2.2208 2.22555 11.7238 13.4508
329 1 -1.1104 11.9744 18.5937 12.0238
326 1 -1.1104 12.0988 16.0222 12.1409
321 1 -1.1104 9.17241 18.5512 12.0651
9034 2 2.2208 13.4886 -5.12284 7.85396
9028 2 2.2208 13.5962 -5.30391 2.31456
331 2 2.2208 10.7445 17.178 10.6617
332 2 2.2208 13.5093 17.3377 7.88532
230 2 2.2208 13.4283 -2.51963 10.6178
340 2 2.2208 13.3646 0.211595 13.4127
338 2 2.2208 4.87399 -2.3541 13.5787
370 2 2.2208 7.92406 -2.53254 -0.479838
346 2 2.2208 10.4895 -2.37906 13.4709
9023 2 2.2208 2.20061 -5.25235 2.30465
359 2 2.2208 5.21791 14.4783 13.3434
9033 2 2.2208 10.4858 -5.1876 10.6655
339 2 2.2208 2.09707 0.571543 13.4477
362 2 2.2208 7.94543 17.0959 13.4423
388 2 2.2208 4.78262 0.0340228 16.5168
389 1 -1.1104 0.578506 -4.19763 17.8622
393 1 -1.1104 0.70668 -3.91151 15.013
401 1 -1.1104 0.770589 -0.995343 17.8608
403 2 2.2208 4.90209 -2.51024 18.9725
405 1 -1.1104 0.509238 -1.14674 15.1206
409 1 -1.1104 3.32356 -3.99919 17.5224
411 2 2.2208 2.16747 0.258699 19.3407
412 1 -1.1104 3.52718 -4.0521 14.8437
416 2 2.2208 2.02768 -2.64453 16.4235
418 1 -1.1104 3.39693 -1.36777 17.8741
419 1 -1.1104 3.35573 -0.837477 15.0971
413 1 -1.1104 3.55602 -3.88854 20.3958
407 1 -1.1104 6.21238 -1.19145 15.1148
397 1 -1.1104 6.12506 -3.90247 14.8642
420 1 -1.1104 3.6738 -1.32164 20.7176
391 1 -1.1104 6.33902 -4.0696 17.7352
402 1 -1.1104 6.12287 -0.941055 17.9511
398 1 -1.1104 6.52986 -3.79061 20.7125
406 1 -1.1104 0.753825 -1.23051 20.6316
344 2 2.2208 13.531 14.4118 27.6444
431 2 2.2208 10.4645 0.224827 16.4688
432 1 -1.1104 12.2382 -4.11555 17.885
434 1 -1.1104 11.8519 -3.99599 15.0761
438 1 -1.1104 11.6606 -1.08508 17.6967
439 2 2.2208 10.7343 -2.61772 19.0222
441 1 -1.1104 11.722 -1.09904 14.9062
443 1 -1.1104 9.43194 -3.79832 17.4314
445 2 2.2208 7.67534 0.246211 19.2888
446 1 -1.1104 9.03649 -4.07594 14.7601
450 2 2.2208 7.79846 -2.61247 16.2869
452 1 -1.1104 8.86149 -1.31146 17.7759
453 1 -1.1104 8.99109 -1.16448 14.949
442 1 -1.1104 12.1173 -1.08734 20.4447
386 2 2.2208 10.5747 11.7601 27.5736
383 2 2.2208 -0.456867 5.9484 27.6748
428 2 2.2208 13.2455 0.29213 19.2431
390 1 -1.1104 0.609832 2.15349 17.7778
395 1 -1.1104 0.78689 1.70138 14.9928
404 2 2.2208 4.85571 3.05886 19.1011
410 1 -1.1104 3.36462 1.65845 17.9492
414 1 -1.1104 3.5989 1.7664 14.8719
417 2 2.2208 2.09365 3.12722 16.4533
464 2 2.2208 4.81084 6.03327 16.5485
466 1 -1.1104 0.573154 7.41238 17.7601
472 1 -1.1104 0.890926 4.78531 17.6602
477 1 -1.1104 0.706983 4.36582 14.9331
485 1 -1.1104 3.46545 7.64698 17.8012
486 2 2.2208 1.98912 6.19129 19.1585
491 1 -1.1104 3.39931 4.59962 17.9743
493 1 -1.1104 3.4819 4.72256 15.1155
488 1 -1.1104 3.46621 7.43011 15.026
468 1 -1.1104 0.644109 7.30759 14.8289
415 1 -1.1104 3.51044 1.53823 20.7406
489 1 -1.1104 3.5916 7.46151 20.8074
469 1 -1.1104 0.475643 7.573 20.5421
396 1 -1.1104 0.751395 1.63519 20.4316
399 1 -1.1104 6.37385 1.70768 14.9775
392 1 -1.1104 6.19021 1.68884 17.8957
470 1 -1.1104 6.21284 7.38018 15.1479
481 1 -1.1104 6.33356 4.50576 14.9496
467 1 -1.1104 6.30574 7.41848 17.6662
482 1 -1.1104 6.18233 4.44408 20.3595
375 2 2.2208 2.04399 20.0203 27.5422
387 2 2.2208 13.4769 8.86082 27.4361
377 2 2.2208 13.5813 -2.51919 27.7035
474 1 -1.1104 6.27533 4.45158 17.8173
433 1 -1.1104 11.7942 1.67856 17.9158
436 1 -1.1104 11.7588 1.69179 15.1874
440 2 2.2208 10.5898 3.34174 19.0795
444 1 -1.1104 8.93806 1.48496 17.6425
448 1 -1.1104 9.09648 1.60646 14.8122
451 2 2.2208 7.68095 2.92663 16.4213
500 2 2.2208 10.4161 5.89747 16.3304
505 1 -1.1104 11.9041 4.59104 17.7436
508 1 -1.1104 11.9691 4.44172 14.925
513 2 2.2208 7.58123 6.05759 18.9622
515 1 -1.1104 9.01187 7.36319 14.9632
518 1 -1.1104 8.97315 4.48749 17.6574
520 1 -1.1104 9.06944 4.65841 15.0245
503 1 -1.1104 11.8449 7.45627 14.7872
502 1 -1.1104 11.7183 7.39589 17.6885
509 1 -1.1104 12.1161 4.58531 20.48
516 1 -1.1104 9.04518 7.59088 20.4674
512 1 -1.1104 9.10242 7.52259 17.7621
504 1 -1.1104 12.0579 7.4399 20.3834
429 2 2.2208 13.3025 3.26853 16.4107
651 2 2.2208 13.3756 5.9797 19.0168
617 1 -1.1104 9.3219 15.6944 23.1032
465 2 2.2208 4.95469 11.5132 16.2575
473 1 -1.1104 0.691686 10.1374 17.772
476 2 2.2208 4.75782 8.97526 19.1464
479 1 -1.1104 0.572761 10.1283 14.9492
487 2 2.2208 1.82213 11.6594 18.9775
490 2 2.2208 1.9525 8.76707 16.322
492 1 -1.1104 3.34323 10.4338 17.6558
495 1 -1.1104 3.46743 10.2704 14.7805
528 1 -1.1104 0.452163 12.9233 17.7726
532 1 -1.1104 0.790316 13.0014 15.0965
548 1 -1.1104 3.3332 12.9701 17.5908
551 1 -1.1104 3.36348 13.2667 14.5271
483 1 -1.1104 6.48102 10.1276 14.7532
552 1 -1.1104 3.27403 13.2485 20.4381
475 1 -1.1104 6.21869 9.98629 17.7757
530 1 -1.1104 6.54989 12.7883 17.4885
536 1 -1.1104 6.27299 12.8602 14.8332
484 1 -1.1104 6.60136 10.3559 20.5666
480 1 -1.1104 0.695977 10.2927 20.526
542 2 2.2208 4.76415 14.4961 18.9141
496 1 -1.1104 3.49674 10.365 20.5232
501 2 2.2208 10.5721 11.5329 16.2588
506 1 -1.1104 11.8649 10.2903 17.886
507 2 2.2208 10.5891 8.81475 19.0984
510 1 -1.1104 12.0499 10.2596 15.0833
514 2 2.2208 7.71333 11.4778 18.9324
517 2 2.2208 7.77449 8.88804 16.3541
519 1 -1.1104 9.1371 10.1738 17.4897
522 1 -1.1104 9.11895 10.1442 14.6608
564 1 -1.1104 12.154 12.8374 17.5245
566 1 -1.1104 11.9673 12.8734 14.8006
575 1 -1.1104 9.34669 13.015 17.8155
578 1 -1.1104 9.01803 13.1306 14.7985
579 1 -1.1104 8.97317 13.0859 20.6058
511 1 -1.1104 11.8236 10.109 20.6527
537 1 -1.1104 6.19354 12.9429 20.0964
347 2 2.2208 7.76119 14.4671 27.5448
345 2 2.2208 13.4251 20.1632 27.338
567 1 -1.1104 12.0087 12.8414 20.4876
365 2 2.2208 2.31748 -2.44978 27.4875
372 2 2.2208 7.88385 3.10845 27.6572
426 2 2.2208 13.3331 8.85284 16.2472
555 2 2.2208 2.07381 14.5561 16.191
527 2 2.2208 5.01822 17.2957 16.2627
529 1 -1.1104 0.557797 18.3622 17.7671
534 1 -1.1104 0.877234 18.4566 15.0981
540 1 -1.1104 0.578374 15.5906 17.664
543 2 2.2208 4.91883 20.0131 19.3004
544 1 -1.1104 0.524775 15.5223 14.8065
549 1 -1.1104 3.56322 18.4936 17.7593
550 2 2.2208 1.8059 17.122 19.0951
553 1 -1.1104 3.78103 18.643 14.7785
556 2 2.2208 2.23919 19.8913 16.3013
557 1 -1.1104 3.52917 15.791 17.3967
558 1 -1.1104 3.41133 15.9992 14.7417
541 1 -1.1104 6.27802 15.8962 17.6097
546 1 -1.1104 6.31382 16.0871 14.8613
554 1 -1.1104 3.62242 18.6601 20.4297
538 1 -1.1104 6.57187 18.8074 14.7719
531 1 -1.1104 6.38393 18.6383 17.6011
539 1 -1.1104 6.2352 18.4643 20.3738
547 1 -1.1104 6.23245 15.8052 20.3222
535 1 -1.1104 0.874717 18.6421 20.6097
559 1 -1.1104 3.5921 15.842 20.3421
569 1 -1.1104 11.9093 18.6493 20.6597
581 1 -1.1104 9.21678 18.6811 20.2747
571 2 2.2208 10.6846 14.3004 19.0244
582 2 2.2208 7.7648 14.3858 16.2515
563 2 2.2208 10.6372 17.1089 16.307
565 1 -1.1104 11.9786 18.6147 17.7977
568 1 -1.1104 12.0111 18.5639 14.8779
570 1 -1.1104 12.1238 15.9338 17.6236
572 2 2.2208 10.5775 20.0558 18.9939
573 1 -1.1104 12.2168 15.5686 14.9532
576 1 -1.1104 9.38068 18.6217 17.675
577 2 2.2208 7.67631 17.3397 18.9769
580 1 -1.1104 9.34162 18.6376 14.9458
583 2 2.2208 7.73742 20.0426 16.195
584 1 -1.1104 9.20395 15.8013 17.4924
585 1 -1.1104 9.15107 15.6881 14.76
586 1 -1.1104 9.12733 15.7053 20.4001
574 1 -1.1104 12.0461 15.8632 20.3167
653 2 2.2208 13.4753 -2.53229 21.9108
650 2 2.2208 13.3717 11.4627 19.1899
394 1 -1.1104 0.727819 -3.92483 20.5764
408 1 -1.1104 6.36995 -1.22469 20.7832
591 2 2.2208 4.91146 0.30589 21.9985
592 1 -1.1104 0.751069 -3.89251 23.3906
596 1 -1.1104 0.638941 -3.90892 26.2269
600 1 -1.1104 0.704091 -1.20314 23.4557
602 2 2.2208 5.18663 -2.67987 24.7038
604 1 -1.1104 0.756794 -1.08482 26.1416
606 1 -1.1104 3.47969 -4.01661 23.2562
608 2 2.2208 2.17556 0.177622 24.8093
609 1 -1.1104 3.61049 -3.8188 25.9062
611 2 2.2208 2.12869 -2.4967 21.9946
613 1 -1.1104 3.75834 -1.10177 23.5744
614 1 -1.1104 3.64796 -0.955368 26.13
601 1 -1.1104 6.54207 -1.399 23.4988
594 1 -1.1104 6.44455 -4.06246 23.567
605 1 -1.1104 6.31137 -0.993854 26.2165
462 2 2.2208 10.6751 17.0823 21.8621
499 1 -1.1104 12.0664 18.8012 26.36
454 1 -1.1104 9.3082 -1.06027 20.7082
435 1 -1.1104 12.0148 -4.07335 20.6124
447 1 -1.1104 9.34156 -3.83819 20.4715
618 2 2.2208 13.4418 17.3483 19.1216
598 1 -1.1104 6.49322 -3.97816 26.4655
654 2 2.2208 13.402 0.0324608 24.9421
627 2 2.2208 10.6759 0.404355 21.9454
628 1 -1.1104 12.0124 -3.88952 23.362
630 1 -1.1104 12.1631 -3.95233 26.3468
632 1 -1.1104 11.9216 -1.02834 23.4558
633 2 2.2208 10.6783 -2.5363 24.9394
635 1 -1.1104 11.8657 -1.14337 26.3906
636 1 -1.1104 9.27162 -3.80358 23.5265
638 2 2.2208 7.64081 0.151653 24.9021
639 1 -1.1104 9.30738 -4.14747 26.2613
641 2 2.2208 7.89312 -2.43555 22.085
643 1 -1.1104 9.36143 -1.0246 23.5915
644 1 -1.1104 9.14161 -1.24631 26.2383
373 2 2.2208 2.05861 14.6548 27.6583
494 1 -1.1104 3.49964 4.39865 20.7452
471 1 -1.1104 6.2089 7.50151 20.2884
478 1 -1.1104 0.586231 4.65243 20.5019
400 1 -1.1104 6.46433 1.58995 20.7272
593 1 -1.1104 0.385921 1.88228 23.2332
597 1 -1.1104 0.731215 1.56356 26.0076
603 2 2.2208 4.7735 3.03313 24.8871
607 1 -1.1104 3.3552 1.50899 23.4864
610 1 -1.1104 3.42516 1.70327 26.1835
612 2 2.2208 1.91158 3.15252 22.0308
656 2 2.2208 4.94344 5.89603 21.9154
658 1 -1.1104 0.567688 7.23174 23.2729
660 1 -1.1104 0.660225 7.28883 26.0205
662 1 -1.1104 0.568852 4.53206 23.5144
667 1 -1.1104 0.719805 4.36322 26.412
672 2 2.2208 2.04333 5.90383 24.7514
674 1 -1.1104 3.44956 7.4716 26.197
676 1 -1.1104 3.25346 4.49647 23.3951
678 1 -1.1104 3.41655 4.61676 26.3812
599 1 -1.1104 6.43566 1.73566 26.3627
659 1 -1.1104 6.37644 7.16994 23.1824
595 1 -1.1104 6.2398 1.55802 23.4783
671 1 -1.1104 3.51674 7.40085 23.5254
669 1 -1.1104 6.30803 4.35649 25.9799
460 2 2.2208 13.2792 20.0437 16.2627
521 1 -1.1104 9.19531 4.67951 20.4652
437 1 -1.1104 12.0831 1.6351 20.7259
449 1 -1.1104 9.34829 1.91219 20.4685
710 2 2.2208 13.3758 6.01308 24.7397
664 1 -1.1104 6.12176 4.50814 23.2885
380 2 2.2208 2.14841 8.98341 27.7395
629 1 -1.1104 12.0649 1.76218 23.48
631 1 -1.1104 11.8606 1.67985 26.185
634 2 2.2208 10.5974 3.05823 24.7302
637 1 -1.1104 8.95949 1.55242 23.3311
640 1 -1.1104 9.11011 1.67769 26.1933
642 2 2.2208 7.81152 3.17504 21.8599
688 1 -1.1104 9.18662 4.59577 26.1617
690 1 -1.1104 9.01681 4.36136 23.3031
694 2 2.2208 7.67035 5.81865 24.6778
695 2 2.2208 10.4715 5.85153 21.9086
698 1 -1.1104 11.9229 7.36937 25.9781
699 1 -1.1104 11.7388 4.43709 23.1789
702 1 -1.1104 11.768 4.61422 26.2995
704 1 -1.1104 9.19869 7.15445 23.4486
661 1 -1.1104 6.30803 7.4815 26.0698
697 1 -1.1104 12.0124 7.42628 23.1765
692 1 -1.1104 9.08572 7.2418 26.1285
619 2 2.2208 13.4814 14.3717 16.3342
497 1 -1.1104 11.9151 18.6469 23.4203
533 1 -1.1104 0.617325 13.0872 20.6965
657 2 2.2208 4.82938 11.8852 21.8852
663 1 -1.1104 0.736494 10.1376 23.2896
666 2 2.2208 4.93334 8.85758 24.8984
668 1 -1.1104 0.864675 9.9212 26.1164
673 2 2.2208 2.22884 11.5752 24.8333
675 2 2.2208 1.99925 8.94041 21.8715
677 1 -1.1104 3.69274 10.2743 23.5038
679 1 -1.1104 3.5211 10.4156 26.4274
681 1 -1.1104 3.4021 13.0674 26.2691
706 1 -1.1104 0.70382 12.9275 23.4754
713 1 -1.1104 3.56775 13.1351 23.3052
717 1 -1.1104 0.756875 12.8425 26.254
670 1 -1.1104 6.38893 10.4017 26.1907
709 1 -1.1104 6.45981 12.9106 23.2448
712 1 -1.1104 6.29716 13.1838 26.1295
665 1 -1.1104 6.35622 9.8693 23.414
560 1 -1.1104 12.0218 16.0696 26.2225
616 2 2.2208 7.6663 20.0936 21.9887
708 2 2.2208 13.3666 11.5982 24.8816
523 1 -1.1104 9.24723 10.3715 20.2817
589 1 -1.1104 9.16279 13.0375 26.1847
687 1 -1.1104 9.09922 10.1369 26.0824
689 1 -1.1104 9.00397 10.2099 23.1414
691 2 2.2208 7.66282 8.81389 21.7984
693 2 2.2208 7.88178 11.7266 24.8326
696 2 2.2208 10.324 11.5809 21.797
700 1 -1.1104 11.937 10.4119 23.1642
701 2 2.2208 10.6243 8.74134 24.5842
703 1 -1.1104 11.8318 9.98494 25.9923
561 1 -1.1104 9.16917 13.1601 23.4172
463 1 -1.1104 11.973 13.1698 23.4505
498 1 -1.1104 11.8891 13.0124 26.2076
422 2 2.2208 13.3126 8.97861 21.7188
615 2 2.2208 7.64571 14.4484 21.728
524 1 -1.1104 12.1076 15.7794 23.4674
545 1 -1.1104 0.518108 15.862 20.5055
459 2 2.2208 13.2699 -2.52915 16.2122
349 2 2.2208 7.49109 20.1975 27.5788
647 2 2.2208 2.04103 14.4379 21.9728
714 1 -1.1104 6.21727 16.1344 25.913
718 1 -1.1104 6.23106 18.5642 23.3943
720 2 2.2208 4.95986 14.3367 24.6595
649 2 2.2208 2.12355 20.1035 21.8964
652 1 -1.1104 3.55742 15.7595 23.2944
655 1 -1.1104 0.937085 15.9113 23.2458
682 1 -1.1104 3.4731 15.6519 26.2061
683 2 2.2208 2.19877 17.2348 24.7015
686 1 -1.1104 3.37523 18.5263 26.1326
705 2 2.2208 4.87109 17.1059 21.7836
707 1 -1.1104 0.674142 18.5633 23.4409
711 1 -1.1104 3.43756 18.6706 23.3714
715 1 -1.1104 0.625636 18.6064 26.2754
716 1 -1.1104 0.637678 15.8362 26.2201
719 2 2.2208 4.83369 20.0471 24.7727
588 1 -1.1104 6.37935 18.8611 26.0812
423 2 2.2208 13.3447 3.21443 21.9316
430 2 2.2208 13.3995 14.4566 22.0421
348 2 2.2208 10.6002 17.3928 27.3847
455 2 2.2208 13.5429 17.0797 24.7201
526 2 2.2208 10.4554 20.2058 24.8189
384 2 2.2208 10.7098 6.0966 27.6469
525 2 2.2208 10.6146 14.5553 24.77
590 1 -1.1104 9.04671 18.7608 26.2238
680 1 -1.1104 6.27737 15.7237 23.2712
461 2 2.2208 13.3577 20.0206 21.9221
587 2 2.2208 7.67416 17.195 24.6525
562 1 -1.1104 8.97936 18.5458 23.2444
620 1 -1.1104 9.04886 15.8191 26.1459
366 2 2.2208 2.04099 3.1209 27.5989
374 2 2.2208 4.67348 17.1365 27.6087
385 2 2.2208 7.89067 8.72791 27.5387
381 2 2.2208 4.99966 11.5416 27.6203
379 2 2.2208 4.94798 6.14792 27.6514
378 2 2.2208 13.2361 2.95492 27.6953
9187 2 2.2208 2.03441 -5.2258 19.3417
9157 2 2.2208 7.68617 -5.28985 19.1686
9122 2 2.2208 4.96535 -5.16262 22.0274
9119 2 2.2208 10.6629 -5.16863 22.0276
369 2 2.2208 10.3488 0.283734 27.6017
336 2 2.2208 13.3296 6.0987 13.7337
364 2 2.2208 5.12264 0.458063 27.6966
721 2 2.2208 5.09519 22.7804 5.20865
723 1 -1.1104 0.929263 24.3646 0.729947
724 1 -1.1104 0.837259 24.3559 3.75704
725 1 -1.1104 0.666942 21.169 0.682107
727 2 2.2208 4.91682 25.6754 2.20773
728 1 -1.1104 0.662334 21.5274 3.42783
730 1 -1.1104 3.73851 24.473 0.653269
731 2 2.2208 2.3003 22.8014 2.34118
733 1 -1.1104 3.5288 24.2583 3.57445
734 2 2.2208 2.14951 25.6568 5.2375
735 1 -1.1104 3.33509 21.6794 0.684443
737 1 -1.1104 3.60406 21.5651 3.94001
865 1 -1.1104 0.728453 27.0143 6.70193
736 1 -1.1104 3.48176 27.2347 0.784383
745 1 -1.1104 6.46391 27.0829 0.86311
862 1 -1.1104 0.549497 24.0915 6.67021
869 1 -1.1104 3.64069 21.475 6.63181
868 1 -1.1104 3.50371 24.2834 6.58469
747 1 -1.1104 6.2358 27.1808 3.64452
742 1 -1.1104 6.62532 24.2447 0.636248
744 1 -1.1104 6.13936 21.5368 0.904112
729 1 -1.1104 0.896436 27.092 3.97471
726 1 -1.1104 0.960715 27.1294 1.07522
738 1 -1.1104 3.60353 26.9765 3.56498
864 1 -1.1104 0.752848 21.3882 6.59121
746 1 -1.1104 6.32793 21.3979 3.63577
867 1 -1.1104 6.22086 27.1194 6.60184
866 1 -1.1104 6.21413 21.2409 6.38566
870 1 -1.1104 3.60703 27.0627 6.48636
863 1 -1.1104 6.36595 24.4344 6.32598
743 1 -1.1104 6.45509 24.2508 3.70092
748 2 2.2208 10.5879 22.8514 5.1463
750 1 -1.1104 11.7668 24.0378 0.940857
751 1 -1.1104 12.0791 24.1756 3.83618
752 1 -1.1104 12.0807 21.419 0.773152
754 2 2.2208 10.6516 25.6061 2.47261
755 1 -1.1104 11.9157 21.1942 3.58149
757 1 -1.1104 9.19993 24.5163 0.867568
758 2 2.2208 7.77163 23.0466 2.20183
760 1 -1.1104 8.98864 24.5346 3.58145
761 2 2.2208 7.70583 25.8036 5.13234
762 1 -1.1104 8.95312 21.5235 0.667655
764 1 -1.1104 9.13075 21.5582 3.6097
765 1 -1.1104 9.26624 26.9884 3.6532
756 1 -1.1104 12.1452 27.0925 3.75125
897 1 -1.1104 11.9976 27.0064 6.57527
763 1 -1.1104 9.15614 27.192 0.880655
900 1 -1.1104 9.1427 27.0063 6.3688
898 1 -1.1104 9.4525 24.2742 6.39605
895 1 -1.1104 12.1092 23.8871 6.54763
768 2 2.2208 13.5693 25.6507 5.00127
1033 2 2.2208 13.3045 31.2528 5.08191
896 1 -1.1104 12.0492 21.4005 6.46775
899 1 -1.1104 9.11052 21.5131 6.4093
722 2 2.2208 4.94096 28.4859 5.0345
732 2 2.2208 2.31088 28.5425 2.5085
770 1 -1.1104 0.312759 29.7924 1.02888
773 1 -1.1104 0.682441 30.1653 3.91149
776 1 -1.1104 0.727307 32.4336 0.845561
777 2 2.2208 5.0639 31.2409 2.12409
779 1 -1.1104 0.476168 32.8716 3.54117
781 1 -1.1104 3.47601 29.9578 0.87307
784 1 -1.1104 3.5847 29.9657 3.74587
786 2 2.2208 2.02179 31.4694 5.03694
788 1 -1.1104 3.64547 32.6401 0.963609
789 1 -1.1104 3.53523 32.7178 3.7393
923 1 -1.1104 0.367757 32.8239 6.36151
780 1 -1.1104 6.28699 32.6713 3.49521
924 1 -1.1104 6.57886 32.6649 6.32232
919 1 -1.1104 0.918978 30.009 6.55558
793 1 -1.1104 6.44225 29.8464 0.668075
921 1 -1.1104 6.51181 29.832 6.25115
927 1 -1.1104 3.52609 32.8583 6.32228
794 1 -1.1104 6.35023 29.8224 3.41101
925 1 -1.1104 3.5914 29.8418 6.40345
795 1 -1.1104 6.40488 32.5219 0.793791
753 1 -1.1104 12.1228 27.0114 0.987951
749 2 2.2208 10.6624 28.3444 5.21237
759 2 2.2208 7.94066 28.4923 2.20315
797 1 -1.1104 12.1641 29.8604 0.617804
799 1 -1.1104 12.0401 29.8299 3.5015
801 1 -1.1104 12.3649 32.8629 1.17726
802 2 2.2208 10.5172 31.3186 2.10737
804 1 -1.1104 11.7877 32.5987 3.63827
805 1 -1.1104 9.27174 29.9063 0.801462
808 1 -1.1104 9.23556 29.9669 3.70234
810 2 2.2208 7.79467 31.2219 4.9493
812 1 -1.1104 9.21433 32.8159 0.596848
813 1 -1.1104 9.01243 32.7983 3.45128
953 1 -1.1104 12.2493 29.7403 6.38299
956 1 -1.1104 9.3119 29.9444 6.34182
955 1 -1.1104 11.785 32.7512 6.41629
1632 1 -1.1104 3.53576 46.8298 9.35921
1045 2 2.2208 2.41658 28.4197 13.2608
958 1 -1.1104 9.15812 32.5749 6.20302
769 2 2.2208 4.86709 34.1323 4.93066
771 1 -1.1104 0.635452 35.4078 0.951987
774 1 -1.1104 0.654086 35.569 3.8837
778 2 2.2208 4.98799 36.7335 2.15949
782 1 -1.1104 3.57651 35.4452 0.837632
783 2 2.2208 2.15645 33.9133 2.17738
785 1 -1.1104 3.53831 35.4088 3.78371
787 2 2.2208 2.21139 36.9709 4.9125
815 2 2.2208 5.02875 39.4955 4.9722