ITEM: TIMESTEP
10000
ITEM: NUMBER OF ATOMS
17700
ITEM: BOX BOUNDS pp pp pp
-3.9926906012959967e-01 2.7739269060129704e+01
-4.8508473987496599e+00 3.3293084739874945e+02
-4.0180829300966764e-01 2.7741808293009775e+01
ITEM: ATOMS id type q x y z
1 2 2.2208 5.1601 0.796808 4.96512
2 1 -1.1104 0.960465 -3.42818 0.297031
6 1 -1.1104 0.981152 -3.49036 3.42048
10 1 -1.1104 0.927517 -0.592501 0.779236
12 2 2.2208 5.24827 -2.0259 2.1645
14 1 -1.1104 1.13438 -0.71454 3.70825
16 1 -1.1104 3.72146 -3.44061 0.848761
18 2 2.2208 2.42363 0.833844 2.10298
19 1 -1.1104 3.83676 -3.52903 3.7379
21 2 2.2208 2.40322 -2.06764 4.92165
23 1 -1.1104 3.81123 -0.750728 0.74225
24 1 -1.1104 3.81934 -0.649646 3.64252
8 1 -1.1104 6.68317 -3.53894 3.46546
15 1 -1.1104 6.48364 -0.651124 3.55
52 2 2.2208 10.9733 -4.74965 5.07019
49 2 2.2208 13.5869 0.720732 2.08845
170 1 -1.1104 0.828079 -0.632053 6.42999
166 1 -1.1104 0.872339 -3.36138 6.5429
174 1 -1.1104 3.85652 -0.542218 6.49502
172 1 -1.1104 3.71523 -3.36778 6.42164
171 1 -1.1104 6.72232 -0.740138 6.33014
353 2 2.2208 7.94153 -4.90279 13.3958
168 1 -1.1104 6.62706 -3.49682 6.49734
4 1 -1.1104 6.78299 -3.37943 0.833655
11 1 -1.1104 6.80333 -0.590172 0.748498
31 2 2.2208 10.6585 0.703827 4.95919
32 1 -1.1104 12.3425 -3.35333 0.757378
34 1 -1.1104 12.2957 -3.47898 3.54016
36 1 -1.1104 12.054 -0.667831 0.764653
37 2 2.2208 10.8855 -2.09733 2.23327
39 1 -1.1104 12.1691 -0.420474 3.44614
40 1 -1.1104 9.6504 -3.62473 0.993273
42 2 2.2208 8.05041 0.707246 2.32461
43 1 -1.1104 9.62456 -3.38161 3.81702
45 2 2.2208 8.04332 -2.13904 5.0511
47 1 -1.1104 9.38697 -0.836938 1.03176
48 1 -1.1104 9.44379 -0.65234 3.68597
205 1 -1.1104 12.4317 -3.36203 6.476
207 1 -1.1104 12.0379 -0.779253 6.171
208 1 -1.1104 9.45552 -3.46102 6.53528
232 2 2.2208 10.9197 -4.54242 10.542
357 2 2.2208 10.7554 3.57467 13.5001
3 1 -1.1104 1.07473 2.18311 0.79236
7 1 -1.1104 0.96724 2.24472 3.61289
13 2 2.2208 5.12609 3.68682 1.99113
17 1 -1.1104 3.76494 2.15869 0.595958
20 1 -1.1104 3.86049 2.06162 3.4731
167 1 -1.1104 0.982624 2.20686 6.5084
22 2 2.2208 2.35524 3.55543 4.99914
9 1 -1.1104 6.58749 2.21341 3.63991
54 2 2.2208 5.07699 6.22016 4.95955
56 1 -1.1104 0.759663 7.66653 0.947979
58 1 -1.1104 0.825306 7.83323 3.67257
60 1 -1.1104 0.99841 4.84451 0.627141
67 1 -1.1104 0.954178 4.98108 3.51022
71 1 -1.1104 3.6199 7.74046 0.717925
72 2 2.2208 2.14913 6.39785 2.21438
74 1 -1.1104 3.62383 7.57844 3.70604
76 1 -1.1104 3.70815 4.94791 0.724756
79 1 -1.1104 3.56871 4.88112 3.41838
234 1 -1.1104 0.888453 7.93315 6.3821
238 1 -1.1104 3.71072 7.80674 6.32437
57 1 -1.1104 6.46444 7.84294 0.835397
69 1 -1.1104 6.29981 4.85177 3.63842
63 1 -1.1104 6.38743 5.08258 0.825375
59 1 -1.1104 6.46747 7.55498 3.64043
169 1 -1.1104 6.56238 2.06377 6.44522
235 1 -1.1104 6.47771 7.74071 6.43595
236 1 -1.1104 0.980349 5.14053 6.44574
239 1 -1.1104 3.59939 5.05436 6.40482
237 1 -1.1104 6.39409 5.01721 6.47248
5 1 -1.1104 6.56323 2.21984 0.853949
33 1 -1.1104 12.2466 2.08303 0.927516
35 1 -1.1104 12.2419 2.1452 3.77498
38 2 2.2208 10.6686 3.64793 2.36646
41 1 -1.1104 9.38633 1.96255 0.955294
44 1 -1.1104 9.40623 2.27718 3.76357
46 2 2.2208 7.77448 3.5457 5.06553
206 1 -1.1104 12.1718 2.09666 6.39828
84 2 2.2208 10.633 6.26776 5.16995
86 1 -1.1104 12.1312 7.67078 0.731101
87 1 -1.1104 12.147 7.96834 3.69195
88 1 -1.1104 11.9549 4.74577 0.885313
92 1 -1.1104 12.1849 5.01458 3.70598
94 1 -1.1104 9.38251 7.55279 1.07249
95 2 2.2208 7.87229 6.18272 2.31959
97 1 -1.1104 9.33421 7.7141 3.87725
99 1 -1.1104 9.13971 4.82873 0.963279
102 1 -1.1104 9.22929 5.04521 3.7488
265 1 -1.1104 11.9824 7.69931 6.74653
209 1 -1.1104 9.21272 2.0696 6.32998
269 1 -1.1104 9.13325 5.02035 6.45734
266 1 -1.1104 12.0945 4.8973 6.37278
267 1 -1.1104 9.26602 7.82297 6.45513
55 2 2.2208 5.25722 11.9652 5.04233
61 1 -1.1104 0.818169 10.5199 0.978996
66 2 2.2208 4.95197 9.03833 2.41295
68 1 -1.1104 0.761495 10.6549 3.74589
73 2 2.2208 2.51356 12.1279 2.43077
75 2 2.2208 2.18117 9.13905 5.07183
77 1 -1.1104 3.61365 10.7246 0.950428
80 1 -1.1104 3.67764 10.4784 3.74505
62 1 -1.1104 0.936726 10.6227 6.41228
70 1 -1.1104 6.367 10.354 3.70703
64 1 -1.1104 6.39144 10.4378 1.02649
107 1 -1.1104 1.00625 13.5002 0.941065
113 1 -1.1104 1.02782 13.6061 3.86842
123 1 -1.1104 3.85496 13.4382 0.860137
128 1 -1.1104 3.8527 13.5836 3.78228
124 1 -1.1104 3.61372 13.5092 6.50162
110 1 -1.1104 6.57607 13.3818 1.02406
104 2 2.2208 13.4742 12.0448 2.15851
115 1 -1.1104 6.53752 13.401 3.55069
78 1 -1.1104 3.77241 10.8501 6.4206
108 1 -1.1104 0.835914 13.5688 6.5909
339 2 2.2208 13.4128 6.42864 8.06754
65 1 -1.1104 6.69074 10.7905 6.49741
85 2 2.2208 10.5692 11.9189 4.91395
89 1 -1.1104 12.0582 10.7095 0.691853
91 2 2.2208 10.651 9.01269 2.29588
93 1 -1.1104 12.0479 10.6104 3.3488
96 2 2.2208 7.72865 11.7876 2.16509
98 2 2.2208 7.9751 9.17099 5.18709
100 1 -1.1104 9.31328 10.475 0.705544
103 1 -1.1104 9.36027 10.5512 3.66187
142 1 -1.1104 12.0783 13.4966 0.935781
146 1 -1.1104 12.0007 13.5006 3.76848
153 1 -1.1104 9.33111 13.3495 0.641071
158 1 -1.1104 9.10652 13.4051 3.48371
111 1 -1.1104 6.47334 13.4535 6.49549
154 1 -1.1104 9.21948 13.3866 6.26513
143 1 -1.1104 11.9425 13.2877 6.38157
90 1 -1.1104 12.0221 10.4805 6.19513
321 1 -1.1104 9.21962 18.9697 12.0887
119 2 2.2208 5.09431 14.9751 2.21526
130 2 2.2208 2.3063 14.8781 5.18775
106 2 2.2208 5.176 17.5353 5.17726
109 1 -1.1104 0.929818 19.1256 0.945259
114 1 -1.1104 0.84888 18.9033 3.74493
116 1 -1.1104 0.853136 16.192 0.990465
120 2 2.2208 5.09116 20.3443 2.30813
121 1 -1.1104 0.760348 16.1042 3.89623
125 1 -1.1104 3.62525 18.8421 0.761047
127 2 2.2208 2.30047 17.623 2.29508
129 1 -1.1104 3.64537 19.0704 3.83521
131 2 2.2208 2.29649 20.4907 5.13936
132 1 -1.1104 3.62047 16.2758 0.852046
134 1 -1.1104 3.76835 16.3338 3.68026
126 1 -1.1104 3.92709 19.0626 6.48329
117 1 -1.1104 0.913078 16.3718 6.6538
302 1 -1.1104 0.913971 19.1728 6.49345
138 1 -1.1104 6.35674 19.0575 0.774448
139 1 -1.1104 6.49289 18.8918 3.71418
118 1 -1.1104 6.58195 16.1081 6.52122
133 1 -1.1104 3.8055 16.3248 6.67684
329 1 -1.1104 11.8979 19.1043 11.9701
327 1 -1.1104 12.122 19.1701 9.38739
360 2 2.2208 5.139 9.17113 13.4206
122 1 -1.1104 6.62528 16.2445 3.82305
140 1 -1.1104 6.35843 16.3607 0.772969
150 2 2.2208 10.7258 14.7717 2.17581
160 2 2.2208 7.96473 14.8034 5.00199
141 2 2.2208 10.814 17.6065 4.90537
144 1 -1.1104 12.1533 19.022 1.04799
147 1 -1.1104 12.2012 19.1326 3.72
148 1 -1.1104 12.0169 16.2532 0.813527
151 2 2.2208 10.8094 20.3597 2.35598
152 1 -1.1104 12.1042 16.2081 3.70782
155 1 -1.1104 9.56515 19.0045 0.696536
157 2 2.2208 8.00308 17.5768 2.32461
159 1 -1.1104 9.39515 18.9962 3.74277
161 2 2.2208 7.86273 20.3565 5.13354
162 1 -1.1104 9.03062 16.0754 0.831748
164 1 -1.1104 9.52099 16.1984 3.61315
156 1 -1.1104 9.13292 18.9756 6.55916
112 1 -1.1104 6.51891 18.885 6.60657
145 1 -1.1104 12.0287 18.8396 6.58691
163 1 -1.1104 9.48438 16.2624 6.4239
149 1 -1.1104 12.4072 15.9711 6.5515
356 2 2.2208 10.8482 -2.05849 13.592
175 2 2.2208 5.36543 0.787734 10.6075
176 1 -1.1104 0.912651 -3.26093 12.0131
180 1 -1.1104 1.21435 -3.55915 9.23524
184 1 -1.1104 0.934359 -0.445499 12.0016
186 2 2.2208 5.15247 -2.1255 7.82974
188 1 -1.1104 0.962318 -0.546433 9.15019
190 1 -1.1104 3.73605 -3.36679 12.0034
192 2 2.2208 2.44976 0.760634 7.77484
193 1 -1.1104 3.75553 -3.52362 9.34766
195 2 2.2208 2.28252 -1.91207 10.7279
197 1 -1.1104 3.91143 -0.545533 12.0897
198 1 -1.1104 3.9741 -0.765661 9.35672
185 1 -1.1104 6.84151 -0.586885 12.1167
105 2 2.2208 13.513 6.39168 2.19686
182 1 -1.1104 6.51133 -3.37838 9.20909
348 2 2.2208 5.38424 -1.97409 13.442
371 2 2.2208 4.99488 14.923 13.6178
346 2 2.2208 -0.40982 -1.90234 13.4272
333 2 2.2208 13.3892 14.7993 10.6438
210 1 -1.1104 9.41026 -0.810679 6.37649
338 2 2.2208 13.5426 3.53394 10.599
355 2 2.2208 8.01556 0.759334 13.4518
364 2 2.2208 10.7227 9.12193 13.5344
178 1 -1.1104 6.57999 -3.56019 11.9946
189 1 -1.1104 6.599 -0.591595 9.17101
211 2 2.2208 10.7944 0.975628 10.6102
212 1 -1.1104 12.3155 -3.3111 12.0297
214 1 -1.1104 12.432 -3.40295 9.32102
216 1 -1.1104 12.0694 -0.576462 12.139
217 2 2.2208 10.8306 -1.91845 8.00714
219 1 -1.1104 12.1894 -0.542823 9.25585
220 1 -1.1104 9.31457 -3.42989 12.1269
222 2 2.2208 7.96827 0.749197 7.69466
223 1 -1.1104 9.50115 -3.24692 9.38069
225 2 2.2208 8.06229 -2.01474 10.5742
227 1 -1.1104 9.55957 -0.576585 12.0437
228 1 -1.1104 9.42395 -0.455834 9.11823
323 1 -1.1104 12.191 16.3166 9.36818
372 2 2.2208 10.7215 20.4871 13.4451
324 2 2.2208 10.7077 20.1615 7.90232
173 1 -1.1104 3.81903 2.16953 6.27041
177 1 -1.1104 0.959809 2.21792 12.0868
181 1 -1.1104 0.966351 2.28929 9.29279
187 2 2.2208 5.03239 3.60675 7.94007
191 1 -1.1104 4.03306 2.31796 12.1438
194 1 -1.1104 3.73197 2.1237 9.15668
196 2 2.2208 2.50213 3.69826 10.821
179 1 -1.1104 6.77448 2.40896 12.0022
240 2 2.2208 5.09308 6.3789 10.6297
242 1 -1.1104 0.855141 7.87337 12.2808
244 1 -1.1104 0.957795 7.79261 9.46001
246 1 -1.1104 0.723946 4.99186 12.1046
251 1 -1.1104 1.0526 5.11834 9.43972
255 1 -1.1104 3.78801 7.69537 12.1864
256 2 2.2208 2.33174 6.58295 7.81791
258 1 -1.1104 3.65742 7.83265 9.17645
260 1 -1.1104 3.60605 5.07874 12.04
262 1 -1.1104 3.74247 5.0015 9.28833
248 1 -1.1104 6.61168 5.03132 12.12
253 1 -1.1104 6.43958 4.96849 9.39754
243 1 -1.1104 6.53556 7.88101 12.0148
245 1 -1.1104 6.66924 7.84592 9.2065
314 1 -1.1104 9.27341 16.2405 9.28558
352 2 2.2208 5.14015 3.54846 13.5617
359 2 2.2208 2.25068 6.50673 13.5343
366 2 2.2208 13.571 6.42295 13.5027
340 2 2.2208 13.4688 11.9546 7.84992
183 1 -1.1104 6.46471 2.18395 9.1343
213 1 -1.1104 12.2938 1.96746 12.0503
215 1 -1.1104 12.308 2.29894 9.17936
218 2 2.2208 10.7594 3.48512 7.79204
221 1 -1.1104 9.66084 2.28836 12.0726
224 1 -1.1104 9.44109 2.27035 9.21921
226 2 2.2208 8.08303 3.73444 10.634
369 2 2.2208 5.1611 20.3294 13.7304
268 1 -1.1104 9.39032 4.96575 9.12269
271 1 -1.1104 9.34152 5.06 11.9956
273 1 -1.1104 9.36237 7.68085 9.28828
275 2 2.2208 7.88096 6.49296 7.97692
276 2 2.2208 10.7566 6.41583 10.6478
278 1 -1.1104 12.2824 7.84578 12.226
279 1 -1.1104 12.1646 7.79169 9.35823
280 1 -1.1104 12.2209 5.02753 12.0927
283 1 -1.1104 11.9562 4.90059 9.17065
285 1 -1.1104 9.38439 7.81809 12.0338
362 2 2.2208 13.382 11.8329 13.4059
290 1 -1.1104 6.36359 13.493 9.28388
241 2 2.2208 4.88763 12.0391 10.7662
247 1 -1.1104 0.932051 10.6804 12.1895
250 2 2.2208 5.16109 9.31205 7.8927
252 1 -1.1104 0.905445 10.3961 9.3621
257 2 2.2208 2.30886 12.1963 7.89512
259 2 2.2208 2.24357 9.22562 10.6771
261 1 -1.1104 3.80114 10.3695 11.8748
263 1 -1.1104 3.6911 10.6152 9.23147
249 1 -1.1104 6.37732 10.6526 12.0719
254 1 -1.1104 6.35585 10.6627 9.34446
297 1 -1.1104 6.39363 13.3931 12.1258
305 1 -1.1104 3.78255 13.55 9.24246
299 1 -1.1104 0.841841 13.5141 12.0127
294 1 -1.1104 1.05656 13.3427 9.32362
287 1 -1.1104 3.53585 13.5354 12.1845
361 2 2.2208 2.12767 12.0301 13.6079
365 2 2.2208 7.92988 11.9418 13.4041
322 1 -1.1104 9.13883 13.3778 12.0291
319 1 -1.1104 9.27511 13.4044 9.29834
330 1 -1.1104 11.9941 13.3016 12.2073
345 2 2.2208 13.5194 20.5479 10.706
101 1 -1.1104 9.33653 10.586 6.55611
264 1 -1.1104 9.36184 10.5449 9.17845
270 1 -1.1104 9.37898 10.6106 12.0568
272 2 2.2208 8.08188 9.25703 10.6432
274 2 2.2208 7.85979 11.9784 7.8851
277 2 2.2208 10.6349 11.9775 10.7138
281 1 -1.1104 12.0836 10.5674 12.0216
282 2 2.2208 10.615 9.12333 7.86026
284 1 -1.1104 11.9744 10.4693 9.06468
328 1 -1.1104 12.0903 13.3872 9.34243
336 2 2.2208 13.6535 20.513 5.01578
317 2 2.2208 7.81726 14.6562 10.7539
289 1 -1.1104 6.32955 16.2372 9.34994
310 2 2.2208 2.21922 14.931 10.79
295 2 2.2208 5.00555 14.8915 7.80681
309 2 2.2208 2.39423 20.5034 10.8224
308 1 -1.1104 3.66565 16.3163 12.2085
307 1 -1.1104 0.950776 16.2148 12.3007
286 1 -1.1104 3.58636 19.1116 12.3302
304 1 -1.1104 3.54135 16.301 9.26893
303 2 2.2208 2.36917 17.8829 7.88416
301 1 -1.1104 3.72021 19.2386 9.36412
300 2 2.2208 5.02994 17.6088 10.6366
298 1 -1.1104 0.786464 18.9375 12.0445
293 2 2.2208 5.23031 20.5048 7.9159
292 1 -1.1104 0.628711 16.156 9.54814
291 1 -1.1104 1.00135 19.0632 9.32777
296 1 -1.1104 6.4512 19.0197 12.0718
306 1 -1.1104 6.46706 16.2732 12.2115
363 2 2.2208 7.88848 6.40653 13.3914
376 2 2.2208 8.05028 17.6144 13.5918
316 2 2.2208 7.86991 20.2873 10.6503
331 2 2.2208 10.6057 17.5697 10.707
315 1 -1.1104 9.2865 16.2076 12.0339
325 2 2.2208 10.8062 14.7382 7.83332
288 1 -1.1104 6.39574 19.086 9.29286
373 2 2.2208 10.5884 14.7471 13.4365
318 1 -1.1104 9.32974 18.9842 9.26492
368 2 2.2208 2.19242 17.7564 13.5751
326 1 -1.1104 12.0239 16.1392 12.0982
320 2 2.2208 7.80717 17.4276 7.96818
332 2 2.2208 13.5592 17.7154 7.79767
337 2 2.2208 13.4616 14.6682 4.99164
349 2 2.2208 2.43737 0.863411 13.3728
334 2 2.2208 13.5454 3.66777 5.04588
347 2 2.2208 2.36984 -4.89093 13.4542
199 2 2.2208 -0.246323 3.66314 7.83878
200 2 2.2208 -0.303772 -1.99419 7.84341
50 2 2.2208 13.6274 -2.09471 5.05338
335 2 2.2208 13.4674 9.17157 4.96956
341 2 2.2208 13.4982 9.18928 10.6909
165 2 2.2208 13.4713 17.6648 2.27125
231 2 2.2208 8.0144 -4.72469 7.74617
203 2 2.2208 5.11104 -4.82471 10.6314
395 2 2.2208 5.20609 11.9193 -0.425652
380 2 2.2208 13.4594 17.455 13.5092
406 2 2.2208 5.07386 0.820231 16.308
407 1 -1.1104 0.811118 -3.33092 17.5304
411 1 -1.1104 1.06999 -3.26666 14.7307
419 1 -1.1104 0.916321 -0.634555 17.6809
421 2 2.2208 5.23225 -1.93584 19.1213
423 1 -1.1104 0.942677 -0.429922 14.6172
427 1 -1.1104 3.75619 -3.30336 17.6157
429 2 2.2208 2.38229 0.930056 19.0416
430 1 -1.1104 3.69084 -3.46034 14.7749
434 2 2.2208 2.226 -1.92942 16.1428
436 1 -1.1104 3.85644 -0.628823 17.8926
437 1 -1.1104 3.59952 -0.523516 14.8516
425 1 -1.1104 6.40016 -0.557236 14.9436
412 1 -1.1104 0.935952 -3.24672 20.2827
438 1 -1.1104 3.88318 -0.514519 20.635
424 1 -1.1104 1.09455 -0.610576 20.5065
431 1 -1.1104 3.79238 -3.51398 20.484
394 2 2.2208 2.17431 9.06233 27.7454
580 2 2.2208 13.4539 14.6648 21.9364
377 2 2.2208 7.95763 14.6766 27.6155
415 1 -1.1104 6.37661 -3.46614 14.8902
409 1 -1.1104 6.39639 -3.30316 17.5643
420 1 -1.1104 6.65328 -0.708633 17.8118
449 2 2.2208 10.7951 0.764903 16.3143
450 1 -1.1104 12.3074 -3.61412 17.5255
452 1 -1.1104 12.1264 -3.47661 14.7519
456 1 -1.1104 12.3055 -0.646531 17.7904
457 2 2.2208 10.9193 -1.9768 19.1023
459 1 -1.1104 12.2635 -0.678823 15.1108
461 1 -1.1104 9.49416 -3.38074 17.874
463 2 2.2208 7.97268 0.769642 19.1068
464 1 -1.1104 9.25981 -3.37725 14.8844
468 2 2.2208 8.02217 -1.88152 16.3806
470 1 -1.1104 9.31573 -0.544962 17.726
471 1 -1.1104 9.39519 -0.834569 14.8945
379 2 2.2208 7.89629 20.4234 27.6399
426 1 -1.1104 6.55926 -0.4997 20.5682
416 1 -1.1104 6.73578 -3.50248 20.4641
472 1 -1.1104 9.35846 -0.494555 20.5274
453 1 -1.1104 12.2665 -3.53951 20.3711
460 1 -1.1104 12.2038 -0.621402 20.7049
701 1 -1.1104 9.32169 16.0982 23.2244
408 1 -1.1104 0.884961 2.16623 17.6429
413 1 -1.1104 0.98828 2.23939 14.9508
422 2 2.2208 5.29721 3.53749 19.0988
428 1 -1.1104 3.74675 2.19857 17.5543
432 1 -1.1104 3.67142 2.26902 14.8651
435 2 2.2208 2.26501 3.5238 16.312
410 1 -1.1104 6.67199 2.27512 17.7099
635 1 -1.1104 12.0712 19.0128 26.1566
482 2 2.2208 4.92476 6.28472 16.4006
484 1 -1.1104 0.875752 7.77092 17.8154
486 1 -1.1104 1.03032 7.9067 15.0115
490 1 -1.1104 0.931668 5.05469 17.5939
495 1 -1.1104 0.821948 5.15341 14.7212
503 1 -1.1104 3.58846 7.92901 17.7928
504 2 2.2208 2.23892 6.32832 19.0227
506 1 -1.1104 3.79936 7.89803 14.9595
509 1 -1.1104 3.8213 5.0087 17.8339
511 1 -1.1104 3.47977 5.19015 15.1246
507 1 -1.1104 3.83072 8.21418 20.5754
492 1 -1.1104 6.51089 5.13208 17.6815
487 1 -1.1104 1.03342 7.70299 20.3922
496 1 -1.1104 0.847378 4.91679 20.5456
485 1 -1.1104 6.49029 7.73494 17.7977
488 1 -1.1104 6.51331 7.76691 14.8983
414 1 -1.1104 1.05556 2.18532 20.6302
433 1 -1.1104 3.76798 2.34805 20.33
512 1 -1.1104 3.63756 5.22107 20.5201
489 1 -1.1104 6.56886 7.85066 20.6145
417 1 -1.1104 6.3095 2.06835 14.7725
451 1 -1.1104 12.2244 2.2632 17.8746
454 1 -1.1104 12.1187 2.26556 14.9245
458 2 2.2208 10.816 3.39882 19.3193
462 1 -1.1104 9.35585 2.09444 17.777
466 1 -1.1104 9.37185 1.99532 14.8012
469 2 2.2208 7.82708 3.71571 16.2751
499 1 -1.1104 6.45045 4.97087 14.8943
518 2 2.2208 10.7069 6.3393 16.3292
520 1 -1.1104 11.8754 7.67309 17.9436
521 1 -1.1104 12.0342 7.66369 15.0685
523 1 -1.1104 12.1514 4.89135 17.5986
526 1 -1.1104 12.1993 5.07762 14.8257
530 1 -1.1104 9.27115 7.70032 17.7437
531 2 2.2208 7.98231 6.33959 19.1518
533 1 -1.1104 9.3824 7.66488 14.899
536 1 -1.1104 9.15436 5.00083 17.5878
538 1 -1.1104 9.39727 4.81983 15.0262
534 1 -1.1104 9.19837 7.86588 20.8213
467 1 -1.1104 9.58651 2.1004 20.5932
455 1 -1.1104 12.3931 2.07852 20.5146
418 1 -1.1104 6.53744 2.09545 20.5259
522 1 -1.1104 12.1654 7.7548 20.6361
539 1 -1.1104 9.31378 4.91711 20.7557
478 2 2.2208 13.5795 20.501 16.4538
483 2 2.2208 5.05782 11.9876 16.1035
491 1 -1.1104 0.879805 10.8154 17.7721
494 2 2.2208 5.31557 9.33822 19.0908
497 1 -1.1104 0.712273 10.6573 14.9677
505 2 2.2208 2.36794 12.0645 19.0793
508 2 2.2208 2.40783 9.27568 16.2579
510 1 -1.1104 3.79736 10.6621 17.8145
513 1 -1.1104 3.61544 10.7671 14.8546
514 1 -1.1104 3.8062 10.8903 20.5423
501 1 -1.1104 6.44495 10.646 14.8428
669 2 2.2208 7.94791 -4.75009 24.7087
502 1 -1.1104 6.495 10.6444 20.6063
546 1 -1.1104 0.826157 13.5404 17.8914
550 1 -1.1104 0.6713 13.577 14.8913
566 1 -1.1104 3.63196 13.3047 17.3753
569 1 -1.1104 3.37563 13.4621 14.8447
570 1 -1.1104 3.86869 13.5125 20.41
555 1 -1.1104 6.46192 13.4418 20.6462
554 1 -1.1104 6.55322 13.4506 14.9789
498 1 -1.1104 1.0309 10.6059 20.5893
493 1 -1.1104 6.61377 10.4777 17.6145
519 2 2.2208 10.7241 11.8506 16.2885
524 1 -1.1104 12.2838 10.5888 17.7382
525 2 2.2208 10.903 9.13667 19.215
528 1 -1.1104 12.2468 10.4143 14.8772
532 2 2.2208 7.93027 11.9245 19.225
535 2 2.2208 7.94621 9.07777 16.352
537 1 -1.1104 9.46859 10.4687 17.7078
540 1 -1.1104 9.3596 10.4444 14.9754
585 1 -1.1104 12.2261 13.3917 20.7262
548 1 -1.1104 6.51088 13.2729 17.9238
582 1 -1.1104 11.9628 13.3945 17.7695
584 1 -1.1104 12.2425 13.1926 14.8882
593 1 -1.1104 9.32875 13.347 17.7919
596 1 -1.1104 9.39397 13.3538 15.0335
529 1 -1.1104 12.1601 10.4708 20.5031
541 1 -1.1104 9.37636 10.6819 20.4283
597 1 -1.1104 9.27437 13.5838 20.568
542 2 2.2208 13.4994 6.33548 19.0904
398 2 2.2208 10.6308 6.22259 27.6088
441 2 2.2208 2.21877 -4.70259 18.905
560 2 2.2208 5.08244 14.8283 19.2118
573 2 2.2208 2.12019 14.9925 16.4201
545 2 2.2208 5.05578 17.5166 16.3745
547 1 -1.1104 0.706743 19.2657 17.6917
552 1 -1.1104 0.987659 19.2914 14.7778
558 1 -1.1104 0.715546 16.3359 17.7684
561 2 2.2208 4.96071 20.4665 19.2431
562 1 -1.1104 0.854521 16.3635 15.0696
567 1 -1.1104 3.77821 18.8718 17.8951
568 2 2.2208 2.24722 17.6229 19.1889
571 1 -1.1104 3.68139 18.9894 15.1531
574 2 2.2208 2.28239 20.4479 16.2404
575 1 -1.1104 3.53943 16.211 17.8057
576 1 -1.1104 3.70825 16.1639 14.9704
556 1 -1.1104 6.45072 19.0169 15.0937
549 1 -1.1104 6.57636 18.9745 17.7346
559 1 -1.1104 6.60303 16.11 17.7404
564 1 -1.1104 6.49872 16.1159 14.9208
557 1 -1.1104 6.39251 19.0291 20.5665
572 1 -1.1104 3.64735 19.2374 20.5494
563 1 -1.1104 0.872964 16.2127 20.6913
672 2 2.2208 13.6684 0.732959 24.6746
636 1 -1.1104 12.1255 16.001 23.4645
480 2 2.2208 13.5918 14.6476 16.3423
565 1 -1.1104 6.44421 16.2062 20.6079
589 2 2.2208 10.7466 14.8216 19.2214
600 2 2.2208 7.8824 14.6979 16.5294
581 2 2.2208 10.6957 17.4847 16.3507
583 1 -1.1104 12.2173 19.0252 17.7698
586 1 -1.1104 11.9978 18.9847 14.7804
588 1 -1.1104 12.1294 16.2512 17.6691
590 2 2.2208 10.537 20.3152 19.2215
591 1 -1.1104 12.2664 16.0666 15.0464
594 1 -1.1104 9.27288 18.8645 17.7522
595 2 2.2208 7.81292 17.4977 19.1334
598 1 -1.1104 9.22535 18.8498 15.0875
601 2 2.2208 7.86507 20.38 16.4582
602 1 -1.1104 9.32411 16.2156 17.7187
603 1 -1.1104 9.30188 16.0955 14.8652
587 1 -1.1104 11.9149 19.0607 20.5836
604 1 -1.1104 9.22961 16.2579 20.4013
378 2 2.2208 10.7218 17.5109 27.4634
405 2 2.2208 2.25445 20.4032 27.782
381 2 2.2208 5.15148 0.823323 27.5426
665 1 -1.1104 9.12444 18.9395 23.407
609 2 2.2208 5.20518 0.739072 22.0887
610 1 -1.1104 1.10689 -3.41485 22.9867
614 1 -1.1104 0.855728 -3.60873 25.8532
618 1 -1.1104 0.888071 -0.555972 23.3382
620 2 2.2208 5.14882 -2.04394 24.7005
622 1 -1.1104 0.882541 -0.693298 26.2071
624 1 -1.1104 3.81589 -3.50073 23.2777
626 2 2.2208 2.25732 0.791673 24.5661
627 1 -1.1104 3.69094 -3.44849 26.1185
629 2 2.2208 2.36118 -2.02964 21.7886
631 1 -1.1104 3.72076 -0.580586 23.2928
632 1 -1.1104 3.69222 -0.7163 26.0723
623 1 -1.1104 6.49201 -0.553596 26.1305
474 2 2.2208 10.7709 -4.83141 16.3288
385 2 2.2208 5.30373 -4.89452 27.6798
699 2 2.2208 7.93603 14.7674 22.0139
465 1 -1.1104 9.46504 -3.218 20.375
612 1 -1.1104 6.70053 -3.32487 23.2621
616 1 -1.1104 6.52714 -3.47805 26.0647
619 1 -1.1104 6.68598 -0.638007 23.3213
645 2 2.2208 10.9176 0.703156 21.9917
646 1 -1.1104 12.1793 -3.42259 23.1843
648 1 -1.1104 12.2645 -3.57537 26.0231
650 1 -1.1104 12.1908 -0.525006 23.3604
651 2 2.2208 10.8099 -1.99561 24.737
653 1 -1.1104 12.2747 -0.836113 26.2265
654 1 -1.1104 9.43838 -3.40808 23.3164
656 2 2.2208 7.98545 0.823304 24.8457
657 1 -1.1104 9.29966 -3.4999 26.1805
659 2 2.2208 7.96665 -1.86146 21.9904
661 1 -1.1104 9.63368 -0.523405 23.3873
662 1 -1.1104 9.44464 -0.643358 26.2054
605 2 2.2208 13.4877 17.538 24.6961
383 2 2.2208 2.33937 3.58042 27.4828
445 2 2.2208 13.5395 8.96186 22.084
500 1 -1.1104 6.47595 4.94656 20.494
404 2 2.2208 5.08935 17.55 27.4595
611 1 -1.1104 0.866693 2.30468 23.3011
615 1 -1.1104 0.907156 2.09393 26.2392
621 2 2.2208 4.93701 3.57645 24.7334
625 1 -1.1104 3.7584 2.14782 23.2586
628 1 -1.1104 3.74754 2.18792 26.0043
630 2 2.2208 2.32156 3.704 21.7907
617 1 -1.1104 6.35493 2.12613 26.1984
674 2 2.2208 5.04308 6.55725 21.8077
676 1 -1.1104 0.812699 7.84505 23.1914
678 1 -1.1104 0.85346 7.60065 26.14
680 1 -1.1104 0.632744 5.06667 23.272
685 1 -1.1104 0.837201 4.92922 25.9586
689 1 -1.1104 3.68592 7.84054 23.3503
690 2 2.2208 2.27628 6.47946 24.5561
692 1 -1.1104 3.60562 7.73963 26.1472
694 1 -1.1104 3.58167 4.90922 23.2006
696 1 -1.1104 3.54493 5.02477 25.9417
682 1 -1.1104 6.38847 5.11265 23.2733
677 1 -1.1104 6.33492 7.94085 23.4603
736 1 -1.1104 6.46039 18.879 23.5322
641 2 2.2208 10.6776 20.4679 24.7066
389 2 2.2208 7.8084 3.51016 27.6486
527 1 -1.1104 12.075 4.85067 20.6212
613 1 -1.1104 6.57863 2.17249 23.3898
647 1 -1.1104 12.3013 2.13301 23.194
649 1 -1.1104 11.9203 2.12011 26.2
652 2 2.2208 10.7509 3.59035 24.8344
655 1 -1.1104 9.36517 2.24067 23.4509
658 1 -1.1104 9.31198 2.31392 26.3812
660 2 2.2208 7.89657 3.51404 22.1691
687 1 -1.1104 6.29103 4.73986 26.2772
679 1 -1.1104 6.51561 7.73366 26.2211
706 1 -1.1104 9.12355 5.01142 26.3908
708 1 -1.1104 9.28457 5.13228 23.5822
710 1 -1.1104 9.28943 7.58348 26.2365
712 2 2.2208 7.86382 6.37712 24.8618
713 2 2.2208 10.7185 6.33939 22.1042
715 1 -1.1104 12.1039 7.6474 23.2751
716 1 -1.1104 12.0783 7.70588 26.0869
717 1 -1.1104 12.2108 4.76284 23.4447
720 1 -1.1104 12.0549 4.91753 26.1307
722 1 -1.1104 9.31944 7.65567 23.5002
726 2 2.2208 13.6249 11.8377 24.8445
607 2 2.2208 10.6518 17.5607 21.9284
391 2 2.2208 13.6614 -2.06445 27.407
675 2 2.2208 5.23052 12.0621 21.8046
681 1 -1.1104 1.011 10.59 23.3218
684 2 2.2208 5.04404 9.3524 24.9282
686 1 -1.1104 0.859617 10.5721 26.465
691 2 2.2208 2.43037 12.0949 24.9337
693 2 2.2208 2.4867 9.3777 22.0788
695 1 -1.1104 3.823 10.7144 23.5698
697 1 -1.1104 3.58532 10.559 26.3836
688 1 -1.1104 6.47579 10.5809 26.4127
551 1 -1.1104 0.993603 13.2893 20.7874
746 1 -1.1104 3.83092 13.281 26.284
731 1 -1.1104 3.83041 13.2195 23.4352
735 1 -1.1104 0.973631 13.2691 26.4469
741 1 -1.1104 1.00254 13.4272 23.6541
730 1 -1.1104 6.60792 13.2757 26.1711
400 2 2.2208 10.6925 11.9514 27.572
399 2 2.2208 7.93889 8.9544 27.6237
732 1 -1.1104 6.69897 16.062 26.099
664 1 -1.1104 9.35162 13.2848 23.3322
683 1 -1.1104 6.54616 10.7458 23.461
705 1 -1.1104 9.25164 10.5803 26.2707
707 1 -1.1104 9.35987 10.5093 23.2689
709 2 2.2208 7.80109 9.26737 22.139
711 2 2.2208 7.96576 12.0447 24.7731
714 2 2.2208 10.8412 11.9825 21.9334
718 1 -1.1104 12.2614 10.5419 23.3435
719 2 2.2208 10.6715 9.07 24.7079
721 1 -1.1104 12.0676 10.4659 26.0156
634 1 -1.1104 12.2525 13.3472 26.24
608 1 -1.1104 12.1071 13.3604 23.385
739 1 -1.1104 6.4898 13.5367 23.5021
673 1 -1.1104 9.20737 13.2861 26.1198
637 2 2.2208 -0.337724 -4.79179 21.8268
393 2 2.2208 4.93009 6.41324 27.4695
382 2 2.2208 2.28091 -2.03472 27.496
475 2 2.2208 7.98753 -4.69939 19.0287
577 1 -1.1104 3.67272 16.2684 20.6932
553 1 -1.1104 0.896655 19.1681 20.5873
670 1 -1.1104 6.45089 18.9003 26.2838
727 2 2.2208 2.29661 14.7405 22.096
750 2 2.2208 2.30722 20.4586 21.9024
749 1 -1.1104 3.67112 16.0638 23.4504
748 1 -1.1104 0.958043 16.3281 23.3459
745 1 -1.1104 3.8717 16.0414 26.3109
729 1 -1.1104 3.48575 18.8697 23.0983
733 1 -1.1104 0.931264 18.8873 26.3288
734 1 -1.1104 0.970925 15.883 26.1444
737 2 2.2208 5.07303 20.2695 24.8732
738 2 2.2208 5.1495 14.6713 24.7946
740 1 -1.1104 0.748594 19.0993 23.5974
742 2 2.2208 5.13942 17.6039 22.0227
743 1 -1.1104 3.67842 19.0011 26.036
744 2 2.2208 2.21212 17.7155 24.716
700 2 2.2208 7.77494 20.2822 22.1191
403 2 2.2208 2.24369 14.9064 27.6826
579 2 2.2208 13.5972 3.59926 16.2298
747 1 -1.1104 6.37654 16.1518 23.2903
388 2 2.2208 8.12041 -1.95439 27.6314
592 1 -1.1104 12.2952 16.2143 20.4194
663 1 -1.1104 12.1094 16.3152 26.126
638 2 2.2208 10.8104 14.6598 24.8727
667 2 2.2208 7.87723 17.4991 24.7097
633 1 -1.1104 12.0976 18.8027 23.2335
698 1 -1.1104 9.21527 18.9116 26.1284
599 1 -1.1104 9.14806 19.0017 20.6157
704 1 -1.1104 9.51277 16.1099 26.1413
517 2 2.2208 13.6765 11.9093 19.2104
543 2 2.2208 13.4376 9.10498 16.3001
387 2 2.2208 10.8404 0.664311 27.6059
606 2 2.2208 13.5261 20.4233 21.987
392 2 2.2208 13.581 3.57529 27.5977
386 2 2.2208 -0.333652 0.781853 27.435
728 2 2.2208 13.5696 6.30564 24.7825
440 2 2.2208 5.13332 -4.81634 16.1286
642 2 2.2208 -0.222153 -2.14424 24.6061
479 2 2.2208 13.539 17.5192 19.0296
375 2 2.2208 13.5709 20.3615 27.5883
402 2 2.2208 13.45 9.12207 27.5765
473 2 2.2208 13.6984 -4.78177 18.8821
515 2 2.2208 -0.308254 9.29057 19.1216
751 2 2.2208 5.00067 23.333 5.20902
753 1 -1.1104 0.904067 24.6218 0.931515
754 1 -1.1104 0.954279 24.483 3.56602
755 1 -1.1104 0.819519 21.9147 1.10099
756 1 -1.1104 0.898592 27.489 0.866322
757 2 2.2208 5.05016 26.0581 2.18449
758 1 -1.1104 0.831141 21.6914 3.87538
759 1 -1.1104 0.945702 27.3704 3.77191
760 1 -1.1104 3.57461 24.5856 0.882958
761 2 2.2208 2.25571 23.1477 2.2987
763 1 -1.1104 3.67308 24.5506 3.86287
764 2 2.2208 2.35719 26.0134 5.14117
765 1 -1.1104 3.71838 21.8283 0.924592
766 1 -1.1104 3.64519 27.5344 0.893394
767 1 -1.1104 3.59211 21.9208 3.91304
768 1 -1.1104 3.7471 27.6432 3.51937
895 1 -1.1104 1.13146 27.7984 6.42821
894 1 -1.1104 1.01929 21.8757 6.601
898 1 -1.1104 3.49821 24.8695 6.71277
774 1 -1.1104 6.54939 21.9458 0.863181
899 1 -1.1104 3.84075 22.0329 6.80348
1076 2 2.2208 13.6889 34.595 7.93098
775 1 -1.1104 6.42475 27.2763 0.816821
773 1 -1.1104 6.41584 24.5792 3.76639
1028 1 -1.1104 6.50106 41.3751 9.43992
1081 2 2.2208 13.5546 40.2343 8.0311
772 1 -1.1104 6.6076 24.6877 0.885343
776 1 -1.1104 6.41405 21.5464 3.55211
778 2 2.2208 10.7081 23.256 5.02018
780 1 -1.1104 12.2481 24.4825 0.78213
781 1 -1.1104 12.0008 24.601 3.78758
782 1 -1.1104 12.1578 21.7516 0.808897
783 1 -1.1104 12.0946 27.4642 1.08171
784 2 2.2208 10.6117 26.0126 2.42267
785 1 -1.1104 12.0612 21.6886 3.67289
787 1 -1.1104 9.20988 24.5437 0.972226
788 2 2.2208 7.83872 23.2593 2.3096
790 1 -1.1104 9.27493 24.8339 3.67888
791 2 2.2208 8.03276 25.9517 5.26887
792 1 -1.1104 9.30103 21.9056 1.03719
794 1 -1.1104 9.27427 21.7959 3.67457
795 1 -1.1104 9.35244 27.5452 3.75359
925 1 -1.1104 12.0199 24.7885 6.34534
927 1 -1.1104 12.0979 27.5282 6.6243
926 1 -1.1104 12.1834 21.7724 6.59028
929 1 -1.1104 9.36403 21.8426 6.42315
928 1 -1.1104 9.38103 24.5533 6.46108
1141 1 -1.1104 8.97493 46.8261 6.71042
1694 1 -1.1104 3.45434 47.2305 9.65483
752 2 2.2208 5.3104 29.0207 5.07272
762 2 2.2208 2.23534 28.8478 2.26737
897 1 -1.1104 6.43784 27.3928 6.43808
777 1 -1.1104 6.50223 27.2851 3.54967
800 1 -1.1104 0.891299 30.4851 0.942466
803 1 -1.1104 0.75265 30.2904 3.71004
806 1 -1.1104 0.927291 33.1628 1.04256
807 2 2.2208 5.13971 31.7641 2.5243
809 1 -1.1104 0.903713 33.0654 3.72145
811 1 -1.1104 3.66239 30.2933 0.89883
814 1 -1.1104 3.60084 30.2818 3.74588
816 2 2.2208 2.39364 31.6419 5.19471
818 1 -1.1104 3.79759 33.0366 0.862582
819 1 -1.1104 3.73742 33.2884 3.75352
955 1 -1.1104 3.82959 30.509 6.60469
824 1 -1.1104 6.45325 30.4516 3.80576
810 1 -1.1104 6.64079 33.202 3.93587
953 1 -1.1104 1.22861 33.0889 6.44042
823 1 -1.1104 6.43723 30.3053 0.971616
951 1 -1.1104 6.56958 30.2683 6.49553
825 1 -1.1104 6.58973 32.8843 1.1541
1071 2 2.2208 13.6479 28.9938 8.01837
1477 1 -1.1104 0.783137 47.2146 1.01323
786 1 -1.1104 12.2691 27.4545 3.86977
793 1 -1.1104 9.21189 27.5962 0.877486
779 2 2.2208 10.6819 28.8732 5.09049
789 2 2.2208 7.86171 28.8821 2.39568
930 1 -1.1104 9.41742 27.4385 6.6057
954 1 -1.1104 6.65465 33.039 6.5939
827 1 -1.1104 12.1491 30.2985 1.03272
829 1 -1.1104 11.9794 30.4462 3.73998
831 1 -1.1104 12.2165 33.261 0.731122
832 2 2.2208 10.7461 31.6964 2.32072
834 1 -1.1104 12.2542 33.0226 3.68003
835 1 -1.1104 9.33212 30.492 0.928651
838 1 -1.1104 9.1365 30.106 3.80643
840 2 2.2208 8.02483 31.7499 5.21546
842 1 -1.1104 9.30395 33.1667 0.802744
843 1 -1.1104 9.31697 32.9481 3.59378
986 1 -1.1104 9.48465 30.2925 6.62597
983 1 -1.1104 12.2567 30.1328 6.76993
988 1 -1.1104 9.41095 33.0098 6.46031
1113 2 2.2208 13.3634 42.8697 -0.384347
1055 1 -1.1104 12.1087 41.4854 12.1605
799 2 2.2208 5.07271 34.5701 5.15712
801 1 -1.1104 1.03472 35.8985 0.908075
804 1 -1.1104 0.979773 36.1701 3.63139
808 2 2.2208 5.08928 37.0851 2.38931
812 1 -1.1104 3.66059 36.1119 0.971334
813 2 2.2208 2.21088 34.4569 2.32974
815 1 -1.1104 3.59972 35.9485 3.80713
817 2 2.2208 2.25951 37.3914 5.09176
805 1 -1.1104 6.45098 35.9865 3.66977