ITEM: TIMESTEP
80000
ITEM: NUMBER OF ATOMS
17700
ITEM: BOX BOUNDS pp pp pp
-4.0967312188759852e-01 2.7749673121887909e+01
-4.8568594522799966e+00 3.3293685945227134e+02
-3.9789124077859861e-01 2.7737891240777884e+01
ITEM: ATOMS id type q x y z
1 2 2.2208 4.93547 0.782865 5.01615
2 1 -1.1104 0.746224 -3.49513 0.868554
6 1 -1.1104 0.811522 -3.3511 3.61108
10 1 -1.1104 0.835891 -0.808193 0.923506
12 2 2.2208 4.98366 -2.1256 2.23903
14 1 -1.1104 0.766358 -0.642049 3.67106
16 1 -1.1104 3.58265 -3.47387 0.774714
18 2 2.2208 2.17332 0.630649 2.32236
19 1 -1.1104 3.55444 -3.55152 3.43085
21 2 2.2208 2.1218 -2.12432 5.05241
23 1 -1.1104 3.69751 -0.628765 0.805323
24 1 -1.1104 3.56556 -0.79045 3.63813
3 1 -1.1104 0.894584 2.12851 1.00616
7 1 -1.1104 0.871201 2.02715 3.91971
13 2 2.2208 5.05307 3.45925 2.26447
17 1 -1.1104 3.70356 2.0369 1.02282
20 1 -1.1104 3.70557 2.09072 3.7172
22 2 2.2208 2.09125 3.54347 5.18662
173 1 -1.1104 3.61268 2.13918 6.53231
9 1 -1.1104 6.46526 2.12104 3.56849
166 1 -1.1104 0.799962 -3.56593 6.30946
170 1 -1.1104 0.592928 -0.609679 6.39435
174 1 -1.1104 3.48702 -0.681904 6.43399
167 1 -1.1104 0.776028 2.18849 6.5306
5 1 -1.1104 6.57142 2.24188 0.854992
8 1 -1.1104 6.42789 -3.63375 3.74038
172 1 -1.1104 3.55065 -3.46772 6.4129
347 2 2.2208 2.25269 -4.76646 13.2948
11 1 -1.1104 6.51391 -0.589449 0.748582
15 1 -1.1104 6.40823 -0.66869 3.55539
4 1 -1.1104 6.43222 -3.44023 0.852289
169 1 -1.1104 6.51259 2.17459 6.3187
31 2 2.2208 10.7537 0.768417 4.9637
32 1 -1.1104 12.2419 -3.81101 0.755055
34 1 -1.1104 12.0172 -3.42292 3.76949
36 1 -1.1104 12.1076 -0.78647 0.776479
37 2 2.2208 10.8034 -2.00156 2.19395
39 1 -1.1104 12.1828 -0.648955 3.61551
40 1 -1.1104 9.28257 -3.1481 0.785126
42 2 2.2208 7.88863 0.833314 2.0493
43 1 -1.1104 9.23502 -3.29726 3.49678
45 2 2.2208 7.86048 -1.90739 4.88018
47 1 -1.1104 9.19657 -0.383482 0.684269
48 1 -1.1104 9.50186 -0.392945 3.55558
33 1 -1.1104 12.349 2.11689 0.890119
35 1 -1.1104 12.1899 2.16248 3.80679
41 1 -1.1104 9.47239 2.16808 0.993371
44 1 -1.1104 9.17876 2.29297 3.77642
38 2 2.2208 10.7463 3.59395 2.31879
46 2 2.2208 7.86047 3.6333 5.00911
206 1 -1.1104 12.093 2.1825 6.49998
210 1 -1.1104 9.12668 -0.861439 6.52744
340 2 2.2208 13.3321 12.1299 7.82068
207 1 -1.1104 12.0891 -0.585159 6.30243
209 1 -1.1104 9.39107 2.15629 6.38375
208 1 -1.1104 9.26631 -3.53383 6.32884
104 2 2.2208 13.6231 12.081 2.15641
205 1 -1.1104 11.8604 -3.64831 6.49864
369 2 2.2208 5.42409 20.6635 13.4476
202 2 2.2208 2.16187 -4.6923 7.88417
54 2 2.2208 5.11579 6.37198 5.01143
56 1 -1.1104 0.822528 7.75891 0.665904
58 1 -1.1104 0.75431 7.73227 3.35731
60 1 -1.1104 0.813801 5.09828 0.629116
67 1 -1.1104 0.794625 4.89381 3.56937
71 1 -1.1104 3.58463 7.7332 0.535265
72 2 2.2208 2.10128 6.3235 2.05254
74 1 -1.1104 3.59518 7.83009 3.49232
76 1 -1.1104 3.72697 4.90795 0.951853
79 1 -1.1104 3.539 4.91727 4.04164
55 2 2.2208 5.10318 11.8628 4.96276
61 1 -1.1104 0.744444 10.6305 0.828491
66 2 2.2208 5.09273 9.00119 2.22804
68 1 -1.1104 0.599626 10.6652 3.55139
73 2 2.2208 2.12958 12.0579 2.16172
75 2 2.2208 2.31214 9.12416 4.89981
77 1 -1.1104 3.61084 10.6505 0.889005
80 1 -1.1104 3.49633 10.5542 3.61653
236 1 -1.1104 0.914524 5.00297 6.52398
234 1 -1.1104 0.730727 7.80415 6.30853
62 1 -1.1104 0.85078 10.407 6.38096
239 1 -1.1104 3.74744 5.1058 6.41053
78 1 -1.1104 3.71321 10.5615 6.40539
63 1 -1.1104 6.42486 4.81083 0.587709
57 1 -1.1104 6.18883 7.54167 0.943463
70 1 -1.1104 6.44615 10.3343 3.79233
69 1 -1.1104 6.59145 4.9577 3.58527
50 2 2.2208 13.5146 -2.10446 5.05548
165 2 2.2208 13.4282 17.6693 2.02147
59 1 -1.1104 6.47596 7.81377 3.56952
64 1 -1.1104 6.46819 10.3702 1.02947
235 1 -1.1104 6.59824 7.78638 6.41891
65 1 -1.1104 6.39457 10.5349 6.43693
237 1 -1.1104 6.42537 4.85959 6.59198
84 2 2.2208 10.648 6.38137 5.24456
86 1 -1.1104 12.099 7.75292 0.904407
87 1 -1.1104 12.2261 8.08789 3.71709
88 1 -1.1104 11.9757 4.97533 0.785145
92 1 -1.1104 12.1951 4.92844 3.73362
94 1 -1.1104 9.26976 7.78533 0.89112
95 2 2.2208 7.72262 6.24048 1.99294
97 1 -1.1104 9.32425 7.79265 3.73371
99 1 -1.1104 9.33158 4.93118 0.914983
102 1 -1.1104 9.2391 4.99232 3.7625
85 2 2.2208 10.7125 12.1818 5.09613
89 1 -1.1104 12.2511 10.5857 0.819397
91 2 2.2208 10.6975 9.26166 2.3387
93 1 -1.1104 12.0719 10.7583 3.57374
96 2 2.2208 7.94393 12.0442 2.22479
98 2 2.2208 7.90141 9.18737 5.0049
100 1 -1.1104 9.14057 10.5365 0.948236
103 1 -1.1104 9.35424 10.7101 3.71657
90 1 -1.1104 12.0837 10.5708 6.43545
267 1 -1.1104 9.36494 7.69498 6.62125
265 1 -1.1104 12.1019 7.72243 6.61615
269 1 -1.1104 9.15109 4.87561 6.57303
101 1 -1.1104 9.23735 10.5801 6.37269
338 2 2.2208 13.5365 3.55209 10.7025
266 1 -1.1104 12.1797 4.87876 6.4981
137 2 2.2208 -0.433104 17.49 4.94195
28 2 2.2208 2.23996 -4.9016 2.1442
353 2 2.2208 7.83807 -4.84425 13.4733
111 1 -1.1104 6.5893 13.4147 6.33433
107 1 -1.1104 0.827565 13.3879 0.774898
113 1 -1.1104 0.824345 13.5403 3.84465
123 1 -1.1104 3.62143 13.3849 0.726018
128 1 -1.1104 3.66735 13.4016 3.42037
119 2 2.2208 5.03665 14.7201 2.00853
130 2 2.2208 2.45962 14.9163 4.91669
106 2 2.2208 5.14501 17.6574 5.01057
109 1 -1.1104 1.08404 19.0764 0.838831
114 1 -1.1104 0.882034 19.0877 3.55056
116 1 -1.1104 0.931812 16.2534 0.743351
120 2 2.2208 5.23549 20.4376 2.18882
121 1 -1.1104 0.881163 16.2229 3.36775
125 1 -1.1104 3.79859 18.8431 0.73345
127 2 2.2208 2.37006 17.57 2.09999
129 1 -1.1104 3.69915 19.0924 3.65199
131 2 2.2208 2.17915 20.5008 4.93002
132 1 -1.1104 3.65529 16.2153 0.76064
134 1 -1.1104 3.93865 16.1737 3.52334
108 1 -1.1104 0.853695 13.2937 6.49723
133 1 -1.1104 3.74731 16.1288 6.25908
124 1 -1.1104 3.74219 13.3909 6.31848
139 1 -1.1104 6.48261 19.1428 3.47198
115 1 -1.1104 6.49397 13.416 3.53838
302 1 -1.1104 0.922986 19.125 6.32316
117 1 -1.1104 0.980756 16.2034 6.25611
126 1 -1.1104 3.60896 19.0384 6.34344
110 1 -1.1104 6.49796 13.4118 0.831016
138 1 -1.1104 6.59125 19.1437 0.80856
112 1 -1.1104 6.59738 19.1557 6.42319
122 1 -1.1104 6.57781 16.1796 3.6367
145 1 -1.1104 12.0641 19.0714 6.4251
118 1 -1.1104 6.41959 16.3582 6.5219
140 1 -1.1104 6.45362 16.0521 0.50662
142 1 -1.1104 12.199 13.5246 0.739756
146 1 -1.1104 11.887 13.6037 3.46228
153 1 -1.1104 9.31807 13.3243 0.806686
158 1 -1.1104 9.25008 13.5179 3.56218
150 2 2.2208 10.7704 14.8999 2.13594
160 2 2.2208 7.86392 14.9522 5.06912
141 2 2.2208 10.728 17.6943 4.93116
144 1 -1.1104 12.2512 19.1091 0.709784
147 1 -1.1104 12.0682 19.1509 3.72038
148 1 -1.1104 12.0782 16.3492 0.886448
151 2 2.2208 10.921 20.5215 2.12499
152 1 -1.1104 12.2546 16.406 3.63933
155 1 -1.1104 9.56016 18.9986 0.766303
157 2 2.2208 7.95327 17.9301 2.01288
159 1 -1.1104 9.18891 19.1885 3.4637
161 2 2.2208 7.90861 20.5582 4.94531
162 1 -1.1104 9.26913 16.2384 0.706728
164 1 -1.1104 9.414 16.1635 3.70666
149 1 -1.1104 11.9768 16.3176 6.47946
154 1 -1.1104 9.35851 13.5597 6.50936
163 1 -1.1104 9.09413 16.2782 6.58163
143 1 -1.1104 12.1029 13.6021 6.33158
156 1 -1.1104 9.38693 19.1189 6.33453
230 2 2.2208 13.5059 -2.12853 10.7758
105 2 2.2208 13.4667 6.33056 2.14421
334 2 2.2208 13.5808 3.70474 5.21536
171 1 -1.1104 6.50535 -0.610108 6.2671
175 2 2.2208 5.12244 0.827964 10.7118
176 1 -1.1104 0.736799 -3.54713 12.1377
180 1 -1.1104 0.908769 -3.60445 9.27451
184 1 -1.1104 0.753052 -0.857517 11.8413
186 2 2.2208 5.05401 -1.95537 7.74003
188 1 -1.1104 0.934197 -0.736293 9.19439
190 1 -1.1104 3.737 -3.31728 12.0942
192 2 2.2208 2.18629 0.806984 7.84456
193 1 -1.1104 3.8719 -3.20276 9.34186
195 2 2.2208 2.32669 -1.98206 10.5355
197 1 -1.1104 3.74345 -0.643806 12.0574
198 1 -1.1104 3.73788 -0.59021 9.15811
177 1 -1.1104 0.944823 1.95263 12.0507
181 1 -1.1104 0.801132 2.08712 9.31477
191 1 -1.1104 3.58891 2.09924 12.1721
194 1 -1.1104 3.67023 2.27094 9.28812
196 2 2.2208 2.43416 3.52775 10.5954
187 2 2.2208 5.15927 3.51229 7.78862
373 2 2.2208 10.861 15.0173 13.1818
178 1 -1.1104 6.52525 -3.59504 11.951
182 1 -1.1104 6.4673 -3.2088 9.00172
203 2 2.2208 4.93061 -4.8445 10.761
362 2 2.2208 13.5988 12.0702 13.4583
189 1 -1.1104 6.50452 -0.472688 9.33115
185 1 -1.1104 6.48948 -0.758163 12.0701
349 2 2.2208 2.32954 0.73664 13.4791
348 2 2.2208 5.16328 -2.01836 13.6405
352 2 2.2208 5.17797 3.69 13.444
376 2 2.2208 7.92332 17.8589 13.2887
49 2 2.2208 13.5861 0.741238 2.29052
168 1 -1.1104 6.5268 -3.44974 6.43546
336 2 2.2208 13.605 20.5255 5.06556
357 2 2.2208 10.7441 3.58875 13.4628
325 2 2.2208 10.6831 15.0032 7.8211
356 2 2.2208 10.6879 -2.06143 13.4176
179 1 -1.1104 6.55428 2.12639 11.9806
183 1 -1.1104 6.57876 2.15635 9.04883
361 2 2.2208 2.28597 12.1997 13.3843
211 2 2.2208 10.7824 0.834631 10.5849
212 1 -1.1104 12.2574 -3.6134 12.1248
214 1 -1.1104 12.1765 -3.61854 9.40229
216 1 -1.1104 12.1869 -0.729676 12.1309
217 2 2.2208 10.5216 -2.04887 7.83392
219 1 -1.1104 12.0068 -0.748223 8.97851
220 1 -1.1104 9.25531 -3.4401 11.8836
222 2 2.2208 7.92429 0.82257 7.74327
223 1 -1.1104 9.3209 -3.62865 9.18955
225 2 2.2208 7.82264 -2.12758 10.4895
227 1 -1.1104 9.47674 -0.489354 12.0658
228 1 -1.1104 9.19078 -0.557863 9.06642
213 1 -1.1104 12.2845 2.13668 11.9513
215 1 -1.1104 12.1733 2.14756 9.11206
221 1 -1.1104 9.29352 2.09715 12.0621
224 1 -1.1104 9.24616 2.33632 9.27924
226 2 2.2208 7.84052 3.62464 10.663
218 2 2.2208 10.614 3.55375 7.91592
370 2 2.2208 13.6296 0.797142 13.5089
339 2 2.2208 13.6276 6.50361 8.04012
238 1 -1.1104 3.65693 7.87381 6.47145
331 2 2.2208 10.8643 17.7146 10.4652
359 2 2.2208 2.25641 6.57849 13.3645
240 2 2.2208 5.09905 6.46169 10.5615
242 1 -1.1104 0.909554 7.86886 11.9239
244 1 -1.1104 0.919784 7.92109 9.27766
246 1 -1.1104 0.94398 5.04278 12.0895
251 1 -1.1104 0.964102 4.9679 9.15127
255 1 -1.1104 3.60367 7.73713 11.9734
256 2 2.2208 2.48104 6.36979 7.75132
258 1 -1.1104 3.83372 7.71829 9.22207
260 1 -1.1104 3.77443 4.95947 12.0951
262 1 -1.1104 3.81264 4.93049 9.28141
241 2 2.2208 5.21844 12.0489 10.4786
247 1 -1.1104 0.873197 10.7705 12.2835
250 2 2.2208 5.16578 9.12272 7.77047
252 1 -1.1104 1.00282 10.6319 9.27976
257 2 2.2208 2.30242 11.9798 7.74708
259 2 2.2208 2.34271 9.30226 10.7059
261 1 -1.1104 3.78974 10.5587 12.1775
263 1 -1.1104 3.7547 10.5451 9.34085
249 1 -1.1104 6.69467 10.7986 12.1104
360 2 2.2208 5.1144 9.15919 13.411
243 1 -1.1104 6.48702 7.93552 11.9103
253 1 -1.1104 6.5511 5.00571 9.26502
248 1 -1.1104 6.61599 5.05823 11.8754
254 1 -1.1104 6.58336 10.5816 9.21492
245 1 -1.1104 6.54314 7.79586 9.29693
268 1 -1.1104 9.41612 5.18558 9.42483
271 1 -1.1104 9.42908 5.0003 12.1323
273 1 -1.1104 9.40445 7.86204 9.35561
275 2 2.2208 7.96744 6.35681 7.9688
276 2 2.2208 10.8429 6.42034 10.7164
278 1 -1.1104 12.2295 7.89775 12.0277
279 1 -1.1104 12.1985 7.93728 9.2387
280 1 -1.1104 12.1304 5.09577 12.1755
283 1 -1.1104 12.182 5.16837 9.25625
285 1 -1.1104 9.3884 7.80405 12.0546
264 1 -1.1104 9.22816 10.7511 9.26398
270 1 -1.1104 9.40479 10.5772 12.0734
272 2 2.2208 8.02156 9.31671 10.7291
274 2 2.2208 7.91304 12.1475 7.72438
277 2 2.2208 10.7845 12.2196 10.6233
281 1 -1.1104 12.2642 10.7253 12.0779
282 2 2.2208 10.6735 9.20033 7.89522
284 1 -1.1104 12.0102 10.7509 9.23255
363 2 2.2208 7.96067 6.50899 13.3079
330 1 -1.1104 12.2717 13.5841 12.0971
364 2 2.2208 10.8182 9.29056 13.4542
365 2 2.2208 7.92247 12.169 13.3814
372 2 2.2208 10.7144 20.6176 13.658
368 2 2.2208 2.37772 17.8861 13.3704
316 2 2.2208 7.92003 20.4546 10.564
289 1 -1.1104 6.49226 16.3237 9.21122
323 1 -1.1104 12.4842 16.4241 9.15844
296 1 -1.1104 6.60643 19.3953 12.0435
305 1 -1.1104 3.79409 13.2944 9.02851
299 1 -1.1104 1.06506 13.6264 11.9989
294 1 -1.1104 1.00682 13.5016 9.3208
287 1 -1.1104 3.73956 13.4318 11.9096
310 2 2.2208 2.37696 14.7889 10.5492
295 2 2.2208 5.03296 14.8947 7.79832
309 2 2.2208 2.39018 20.5314 10.5905
308 1 -1.1104 3.93061 16.4196 11.9038
307 1 -1.1104 1.07545 16.378 11.847
286 1 -1.1104 3.84569 19.2842 12.1436
304 1 -1.1104 3.72313 16.2134 9.12182
303 2 2.2208 2.38195 17.6148 7.75734
301 1 -1.1104 3.61439 19.1017 9.19989
300 2 2.2208 5.10799 17.8963 10.6643
298 1 -1.1104 0.942051 19.0497 11.8298
293 2 2.2208 5.02694 20.4921 7.68281
292 1 -1.1104 0.973882 16.3384 8.99969
291 1 -1.1104 0.928644 19.1032 9.25872
288 1 -1.1104 6.46931 19.1836 9.29132
355 2 2.2208 8.1057 0.801791 13.4749
315 1 -1.1104 9.35172 16.3752 11.9096
306 1 -1.1104 6.44702 16.5924 12.0913
324 2 2.2208 10.69 20.6629 7.70599
318 1 -1.1104 9.11755 19.185 9.23878
317 2 2.2208 7.88132 14.9364 10.5427
326 1 -1.1104 12.1495 16.4447 11.9198
319 1 -1.1104 9.3427 13.6003 9.23286
314 1 -1.1104 9.41345 16.48 9.12786
321 1 -1.1104 9.45422 19.0852 12.1624
327 1 -1.1104 12.1489 19.2679 9.22198
322 1 -1.1104 9.30911 13.5707 11.8717
290 1 -1.1104 6.77879 13.5662 8.98021
328 1 -1.1104 12.0625 13.6509 9.29242
320 2 2.2208 7.90882 17.9253 7.74169
329 1 -1.1104 12.1747 19.1302 12.0234
297 1 -1.1104 6.39095 13.6182 11.9181
335 2 2.2208 13.5734 9.18564 5.1045
371 2 2.2208 5.10544 15.0366 13.3928
341 2 2.2208 13.563 9.11703 10.7209
136 2 2.2208 -0.467293 20.5623 2.21887
337 2 2.2208 13.4855 14.8739 4.97436
345 2 2.2208 13.5851 20.6172 10.5845
229 2 2.2208 13.4328 0.779406 7.73227
51 2 2.2208 7.82747 -4.78364 2.14605
398 2 2.2208 10.6643 6.40311 -0.374161
406 2 2.2208 5.12867 0.726449 16.3246
407 1 -1.1104 0.677286 -3.45622 17.5631
411 1 -1.1104 0.884674 -3.41817 14.6594
419 1 -1.1104 0.896459 -0.606991 17.5964
421 2 2.2208 4.96043 -2.12505 19.0904
423 1 -1.1104 0.8981 -0.627293 14.8423
427 1 -1.1104 3.48147 -3.62983 17.6402
429 2 2.2208 2.31593 0.630954 19.1291
430 1 -1.1104 3.77942 -3.44195 14.8579
434 2 2.2208 2.19406 -2.15793 16.1118
436 1 -1.1104 3.62766 -0.883977 17.7853
437 1 -1.1104 3.50546 -0.652326 14.9606
408 1 -1.1104 0.957749 2.35438 17.6007
413 1 -1.1104 0.849195 2.19015 14.8161
428 1 -1.1104 3.87683 1.85694 17.7881
432 1 -1.1104 3.49845 2.03995 15.0918
435 2 2.2208 2.31969 3.51798 16.2905
415 1 -1.1104 6.56828 -3.64512 14.8869
426 1 -1.1104 6.41575 -0.535983 20.5581
433 1 -1.1104 3.53829 1.96491 20.5537
412 1 -1.1104 0.689283 -3.30612 20.4052
414 1 -1.1104 0.798402 2.30251 20.4315
420 1 -1.1104 6.48249 -0.729012 17.4328
417 1 -1.1104 6.55961 2.34721 14.7725
418 1 -1.1104 6.37016 2.29025 20.4757
422 2 2.2208 5.13913 3.60779 19.0282
424 1 -1.1104 0.937818 -0.561676 20.3349
438 1 -1.1104 3.73344 -0.81674 20.5235
431 1 -1.1104 3.55087 -3.43056 20.6742
378 2 2.2208 10.6542 17.7055 27.4439
444 2 2.2208 -0.368711 6.4033 21.8842
606 2 2.2208 13.3641 20.6525 21.8028
409 1 -1.1104 6.37442 -3.52108 17.7866
410 1 -1.1104 6.43441 2.1436 17.7621
425 1 -1.1104 6.66391 -0.529596 14.7467
400 2 2.2208 10.7335 12.1225 27.5095
449 2 2.2208 10.587 0.818507 16.3331
450 1 -1.1104 12.2118 -3.30953 17.728
452 1 -1.1104 12.0383 -3.24064 15.0391
456 1 -1.1104 12.1764 -0.531655 17.836
457 2 2.2208 10.5584 -2.09677 19.0874
459 1 -1.1104 12.0777 -0.385881 14.82
461 1 -1.1104 9.23686 -3.38508 17.5419
463 2 2.2208 7.81351 0.744981 19.2253
464 1 -1.1104 9.28643 -3.5006 14.7288
468 2 2.2208 7.87846 -2.01172 16.1816
470 1 -1.1104 9.1796 -0.573364 17.6707
471 1 -1.1104 9.25607 -0.638928 14.8681
451 1 -1.1104 11.8622 2.29112 17.6271
454 1 -1.1104 12.2215 2.3459 14.7448
458 2 2.2208 10.6562 3.60677 19.1634
462 1 -1.1104 9.19229 2.17262 17.6285
466 1 -1.1104 9.16638 2.24846 14.9346
469 2 2.2208 7.79946 3.69158 16.2903
472 1 -1.1104 9.21894 -0.6922 20.5409
467 1 -1.1104 9.2382 2.23087 20.5855
460 1 -1.1104 12.0882 -0.595151 20.5147
453 1 -1.1104 11.9942 -3.4293 20.4913
728 2 2.2208 13.4161 6.42628 24.9043
517 2 2.2208 13.5388 12.1595 18.9959
455 1 -1.1104 12.11 2.3504 20.4087
465 1 -1.1104 9.2117 -3.41639 20.4615
395 2 2.2208 5.25789 11.9017 27.6675
390 2 2.2208 10.7465 -4.78843 27.5088
379 2 2.2208 8.05353 20.5947 27.3998
482 2 2.2208 5.03086 6.39742 16.2532
484 1 -1.1104 0.887815 7.75166 17.6839
486 1 -1.1104 0.860652 7.86145 14.9044
490 1 -1.1104 0.92903 5.02567 17.6555
495 1 -1.1104 0.843818 5.0093 14.921
503 1 -1.1104 3.72349 7.79562 17.5816
504 2 2.2208 2.37454 6.3442 19.0094
506 1 -1.1104 3.6624 7.81454 14.7523
509 1 -1.1104 3.70248 4.81773 17.7441
511 1 -1.1104 3.59358 5.01442 14.8755
483 2 2.2208 5.09348 12.0536 16.1872
491 1 -1.1104 0.864573 10.7613 17.6087
494 2 2.2208 4.99611 9.13137 19.0176
497 1 -1.1104 0.599874 10.4222 14.8381
505 2 2.2208 2.19967 12.1364 19.0684
508 2 2.2208 2.30914 9.31106 16.3269
510 1 -1.1104 3.75107 10.659 17.7269
513 1 -1.1104 3.60749 10.6358 14.838
496 1 -1.1104 1.16327 5.04174 20.5292
514 1 -1.1104 3.58538 10.6353 20.4671
487 1 -1.1104 0.958152 7.84772 20.5063
502 1 -1.1104 6.44536 10.7162 20.438
498 1 -1.1104 0.692591 10.5823 20.6147
507 1 -1.1104 3.80556 7.54274 20.295
488 1 -1.1104 6.51268 7.84716 14.8086
501 1 -1.1104 6.3765 10.8076 14.681
492 1 -1.1104 6.4555 5.14796 17.5997
485 1 -1.1104 6.58287 7.97483 17.7683
499 1 -1.1104 6.48415 5.12325 14.7589
500 1 -1.1104 6.56795 5.09763 20.4279
634 1 -1.1104 12.1413 13.3947 26.2188
493 1 -1.1104 6.38347 10.6132 17.6197
518 2 2.2208 10.6756 6.4777 16.2648
520 1 -1.1104 12.0857 7.77645 17.6919
521 1 -1.1104 12.082 7.9953 14.9629
523 1 -1.1104 12.0528 5.11705 17.6542
526 1 -1.1104 12.2446 5.079 14.9734
530 1 -1.1104 9.13498 7.73172 17.6729
531 2 2.2208 7.91499 6.49786 19.2158
533 1 -1.1104 9.22405 7.7652 14.7822
536 1 -1.1104 9.18568 4.99595 17.8286
538 1 -1.1104 9.38145 4.95886 14.8433
519 2 2.2208 10.8672 12.2426 16.2294
524 1 -1.1104 12.1678 10.7266 17.6505
525 2 2.2208 10.6303 9.3348 19.0668
528 1 -1.1104 12.2827 10.6851 14.8386
532 2 2.2208 7.88598 11.9538 18.93
535 2 2.2208 7.96652 9.23838 16.2736
537 1 -1.1104 9.27781 10.6728 17.6632
540 1 -1.1104 9.30155 10.5322 14.7986
529 1 -1.1104 12.0108 10.8358 20.4025
534 1 -1.1104 9.57036 7.83555 20.4378
527 1 -1.1104 12.1993 5.0558 20.4796
539 1 -1.1104 9.3499 5.03302 20.536
522 1 -1.1104 12.27 7.88615 20.7104
667 2 2.2208 7.96534 17.7585 24.7131
546 1 -1.1104 0.895102 13.554 17.6613
550 1 -1.1104 0.870548 13.3877 14.7394
566 1 -1.1104 3.56549 13.5209 17.5617
569 1 -1.1104 3.79791 13.5972 14.7781
573 2 2.2208 2.29205 14.8486 16.2637
560 2 2.2208 5.24181 14.8389 18.96
545 2 2.2208 5.14609 17.7527 16.2122
547 1 -1.1104 0.776094 18.9983 17.4889
552 1 -1.1104 0.983179 19.1348 14.7679
558 1 -1.1104 0.978307 16.3527 17.7503
561 2 2.2208 5.10953 20.5634 19.1973
562 1 -1.1104 0.990236 16.3944 14.7508
567 1 -1.1104 3.61912 19.0767 17.6555
568 2 2.2208 2.42201 17.7182 19.091
571 1 -1.1104 3.69076 19.1849 14.8459
574 2 2.2208 2.35721 20.4969 16.1223
575 1 -1.1104 3.81802 16.3356 17.7299
576 1 -1.1104 3.67922 16.3285 14.9162
577 1 -1.1104 3.71879 16.127 20.5202
551 1 -1.1104 0.794196 13.3982 20.422
572 1 -1.1104 3.52542 19.1692 20.4344
570 1 -1.1104 3.74285 13.4147 20.3216
554 1 -1.1104 6.52568 13.4947 14.7567
559 1 -1.1104 6.48903 16.3192 17.567
564 1 -1.1104 6.66384 16.1201 14.6842
556 1 -1.1104 6.56432 19.0973 14.8638
553 1 -1.1104 0.750067 18.975 20.4339
563 1 -1.1104 0.916447 16.225 20.4472
557 1 -1.1104 6.35645 19.0718 20.5611
565 1 -1.1104 6.2696 16.2008 20.2788
549 1 -1.1104 6.53992 19.2262 17.827
669 2 2.2208 7.8226 -4.78691 24.7821
381 2 2.2208 4.92904 0.812238 27.5158
548 1 -1.1104 6.53651 13.5239 17.405
555 1 -1.1104 6.50266 13.4397 20.3748
582 1 -1.1104 12.2807 13.7997 17.6707
584 1 -1.1104 12.2266 13.5744 14.8067
593 1 -1.1104 9.34939 13.4516 17.5793
596 1 -1.1104 9.36957 13.3574 14.7851
589 2 2.2208 10.6207 15.0025 18.9323
600 2 2.2208 8.00703 14.8726 16.09
581 2 2.2208 10.6734 17.7066 16.3679
583 1 -1.1104 12.1473 19.2154 17.4737
586 1 -1.1104 12.3909 19.3197 14.9152
588 1 -1.1104 12.0401 16.5322 17.6412
590 2 2.2208 10.6568 20.6238 19.0489
591 1 -1.1104 12.2715 16.3416 14.7544
594 1 -1.1104 9.24639 19.2052 17.7112
595 2 2.2208 7.86854 17.6746 18.9543
598 1 -1.1104 9.51328 19.1366 14.9163
601 2 2.2208 7.96647 20.5631 16.2485
602 1 -1.1104 9.26265 16.4424 17.6423
603 1 -1.1104 9.34734 16.3126 14.8323
592 1 -1.1104 11.9336 16.3252 20.4035
587 1 -1.1104 11.9933 19.1861 20.2191
599 1 -1.1104 9.1187 19.1258 20.4803
597 1 -1.1104 9.07277 13.5221 20.3208
604 1 -1.1104 9.19738 16.4313 20.4894
605 2 2.2208 13.4445 17.5523 24.6408
394 2 2.2208 2.35757 9.21071 27.5268
480 2 2.2208 13.7021 14.9328 16.2645
416 1 -1.1104 6.3755 -3.53978 20.5223
382 2 2.2208 2.21416 -2.01439 27.6934
673 1 -1.1104 9.42181 13.4417 26.111
383 2 2.2208 2.24001 3.61136 27.4853
609 2 2.2208 4.97559 0.879025 21.8757
610 1 -1.1104 0.755006 -3.44188 23.224
614 1 -1.1104 0.640734 -3.58928 26.1104
618 1 -1.1104 0.737445 -0.675059 23.2647
620 2 2.2208 4.97373 -1.97279 24.6185
622 1 -1.1104 0.943978 -0.834015 26.0063
624 1 -1.1104 3.59541 -3.42679 23.3762
626 2 2.2208 2.25122 0.708465 24.7291
627 1 -1.1104 3.38182 -3.43895 26.2698
629 2 2.2208 2.13789 -2.11889 21.9442
631 1 -1.1104 3.6387 -0.632209 23.2909
632 1 -1.1104 3.70228 -0.704186 26.1278
611 1 -1.1104 0.92519 2.21364 23.1037
615 1 -1.1104 0.775068 2.07242 26.0895
625 1 -1.1104 3.59927 2.0797 23.4735
628 1 -1.1104 3.45286 2.13352 26.2787
630 2 2.2208 2.30655 3.55223 21.8767
621 2 2.2208 5.06099 3.55461 24.7492
616 1 -1.1104 6.4475 -3.41112 25.9849
619 1 -1.1104 6.40602 -0.607549 23.4122
543 2 2.2208 13.4532 9.26546 16.3488
613 1 -1.1104 6.33407 2.21649 23.272
725 2 2.2208 -0.3605 15.0296 24.7589
700 2 2.2208 7.79236 20.584 21.7131
389 2 2.2208 7.85511 3.55872 27.5918
701 1 -1.1104 9.14044 16.2187 23.1803
671 2 2.2208 13.476 -1.99296 21.8784
633 1 -1.1104 12.1893 19.0875 23.109
617 1 -1.1104 6.26352 2.0145 25.964
612 1 -1.1104 6.35489 -3.45019 23.223
623 1 -1.1104 6.49377 -0.658627 26.0293
645 2 2.2208 10.7437 0.752193 21.8485
646 1 -1.1104 12.0642 -3.38845 23.1024
648 1 -1.1104 12.3955 -3.32455 26.1905
650 1 -1.1104 12.1228 -0.666663 23.2664
651 2 2.2208 10.6856 -1.98408 24.6184
653 1 -1.1104 12.0342 -0.810786 26.2072
654 1 -1.1104 9.18087 -3.223 23.2394
656 2 2.2208 7.83199 0.641513 24.7899
657 1 -1.1104 9.3627 -3.58625 26.24
659 2 2.2208 7.56441 -2.07581 21.9041
661 1 -1.1104 9.18184 -0.616036 23.2423
662 1 -1.1104 9.32964 -0.789469 26.1432
647 1 -1.1104 12.093 2.10513 23.2292
649 1 -1.1104 12.0959 2.10063 26.1788
652 2 2.2208 10.7025 3.54983 24.717
655 1 -1.1104 9.33455 2.25632 23.3831
658 1 -1.1104 9.25342 2.08658 26.2122
660 2 2.2208 7.96297 3.65884 21.9221
699 2 2.2208 7.75172 14.8492 21.8428
388 2 2.2208 7.94557 -2.01777 27.5324
387 2 2.2208 10.8916 0.634489 27.5218
585 1 -1.1104 12.1869 13.4834 20.4404
393 2 2.2208 5.05896 6.17769 27.5008
489 1 -1.1104 6.47086 7.92544 20.4545
512 1 -1.1104 4.10932 4.82506 20.5667
641 2 2.2208 10.6733 20.5782 24.5694
635 1 -1.1104 11.9977 19.0948 26.1127
674 2 2.2208 5.16478 6.34299 21.8646
676 1 -1.1104 0.855203 7.9466 23.2956
678 1 -1.1104 1.15922 7.76762 25.9897
680 1 -1.1104 0.687248 5.04817 23.4509
685 1 -1.1104 0.777301 4.89142 26.1856
689 1 -1.1104 3.63627 7.68091 23.0389
690 2 2.2208 2.25598 6.3458 24.6513
692 1 -1.1104 3.75285 7.67877 25.9212
694 1 -1.1104 3.65109 5.01731 23.3341
696 1 -1.1104 3.58504 4.87791 26.0458
675 2 2.2208 5.09627 11.9551 21.8396
681 1 -1.1104 1.0127 10.884 23.5114
684 2 2.2208 5.14216 9.16469 24.7296
686 1 -1.1104 0.924259 10.7464 26.1806
691 2 2.2208 2.46307 12.1418 24.7223
693 2 2.2208 2.19217 9.26488 22.0089
695 1 -1.1104 3.6268 10.4238 23.258
697 1 -1.1104 3.9316 10.6486 26.2109
682 1 -1.1104 6.53101 4.96295 23.2771
683 1 -1.1104 6.37683 10.6597 23.3241
677 1 -1.1104 6.65247 7.90166 23.293
679 1 -1.1104 6.55684 7.62707 26.2801
445 2 2.2208 13.5953 9.39627 22.0363
374 2 2.2208 13.5261 14.9324 27.5573
704 1 -1.1104 9.33031 16.3812 25.8854
636 1 -1.1104 12.0041 16.2755 23.268
475 2 2.2208 7.88794 -4.80072 19.1953
541 1 -1.1104 9.32255 10.829 20.5271
688 1 -1.1104 6.51651 10.4168 26.1429
687 1 -1.1104 6.57738 4.90109 26.1477
706 1 -1.1104 9.24134 5.18018 26.1891
708 1 -1.1104 9.52007 5.1913 23.3771
710 1 -1.1104 9.19203 7.8367 26.3545
712 2 2.2208 7.97715 6.5083 24.846
713 2 2.2208 10.8122 6.43627 21.9393
715 1 -1.1104 12.3278 8.07558 23.4731
716 1 -1.1104 11.9248 7.61026 26.2784
717 1 -1.1104 12.0153 4.94056 23.2538
720 1 -1.1104 12.1941 4.78734 26.1857
722 1 -1.1104 9.45356 7.77626 23.2246
705 1 -1.1104 9.3998 10.5659 26.3033
707 1 -1.1104 9.3225 10.409 23.3937
709 2 2.2208 8.00488 9.3491 22.0267
711 2 2.2208 7.80642 11.7813 24.7918
714 2 2.2208 10.69 12.2198 21.9176
718 1 -1.1104 11.9807 10.7953 23.4281
719 2 2.2208 10.8741 9.26805 24.7054
721 1 -1.1104 12.215 10.5256 26.1072
399 2 2.2208 7.8622 9.09929 27.7436
403 2 2.2208 2.30088 14.7539 27.5191
736 1 -1.1104 6.52719 19.192 23.3031
404 2 2.2208 5.07809 17.6368 27.4706
747 1 -1.1104 6.32948 16.2045 23.2488
746 1 -1.1104 3.83895 13.462 26.1233
731 1 -1.1104 3.75536 13.3793 23.2666
735 1 -1.1104 0.87171 13.4888 26.0963
741 1 -1.1104 1.00253 13.7775 23.1387
744 2 2.2208 2.26837 17.6673 24.7904
743 1 -1.1104 3.66098 19.107 26.1545
742 2 2.2208 5.07747 17.6089 21.8829
727 2 2.2208 2.3245 14.8544 21.7084
750 2 2.2208 2.1089 20.6128 21.9739
749 1 -1.1104 3.48118 16.14 23.3398
748 1 -1.1104 0.880744 16.5204 23.352
745 1 -1.1104 3.70589 16.1799 26.1524
729 1 -1.1104 3.79052 19.0345 23.2607
733 1 -1.1104 1.02543 19.0732 26.16
734 1 -1.1104 0.898855 16.1305 26.1907
737 2 2.2208 5.14704 20.5716 24.6204
738 2 2.2208 5.08877 14.8517 24.6973
740 1 -1.1104 0.892173 19.0941 23.2456
405 2 2.2208 2.28703 20.496 27.4817
670 1 -1.1104 6.37824 19.1555 26.0391
665 1 -1.1104 9.39573 19.0979 23.2172
607 2 2.2208 10.7831 17.6753 21.7854
377 2 2.2208 7.89163 14.8953 27.4482
638 2 2.2208 10.6559 14.8586 24.5888
663 1 -1.1104 12.0777 16.1186 26.0287
664 1 -1.1104 9.30324 13.2527 23.3757
698 1 -1.1104 9.32206 19.051 26.0878
402 2 2.2208 13.4849 9.15485 27.5905
730 1 -1.1104 6.47995 13.2407 26.2872
608 1 -1.1104 12.1197 13.5461 23.2656
732 1 -1.1104 6.47778 16.2643 26.0026
739 1 -1.1104 6.5729 13.4155 23.4191
477 2 2.2208 13.5581 -1.79359 16.4545
375 2 2.2208 13.6413 20.5488 27.4408
542 2 2.2208 13.6446 6.54234 19.2125
441 2 2.2208 2.17189 -4.8383 19.1241
726 2 2.2208 13.564 11.991 24.7411
579 2 2.2208 13.578 3.69557 16.3336
672 2 2.2208 13.5526 0.721341 24.6695
479 2 2.2208 13.4581 17.6699 19.107
580 2 2.2208 13.709 14.8311 21.8399
478 2 2.2208 13.686 20.5993 16.3425
446 2 2.2208 13.4621 3.59033 21.9211
578 2 2.2208 13.4605 0.834869 19.1777
668 2 2.2208 10.5756 -4.82402 21.8922
474 2 2.2208 10.6795 -4.68824 16.2667
366 2 2.2208 13.5609 6.27098 13.5619
392 2 2.2208 13.4843 3.50694 27.4945
354 2 2.2208 13.4727 -4.74982 13.6248
751 2 2.2208 5.14418 23.3327 5.2227
753 1 -1.1104 0.87453 24.8121 0.792833
754 1 -1.1104 0.894675 24.6023 3.68007
755 1 -1.1104 0.926455 21.8431 0.734327
756 1 -1.1104 1.03395 27.3544 0.90264
757 2 2.2208 5.18621 26.0558 2.28502
758 1 -1.1104 0.976747 21.7995 3.55732
759 1 -1.1104 1.06535 27.4807 3.68216
760 1 -1.1104 3.75383 24.5979 1.03979
761 2 2.2208 2.32739 23.2452 2.2844
763 1 -1.1104 3.67372 24.7151 3.69876
764 2 2.2208 2.21715 26.062 5.15069
765 1 -1.1104 3.8113 21.8964 0.816141
766 1 -1.1104 3.79973 27.575 0.741666
767 1 -1.1104 4.01159 21.8648 3.57058
768 1 -1.1104 3.76097 27.4521 3.59835
752 2 2.2208 5.00394 28.9031 4.98423
762 2 2.2208 2.34389 28.9041 2.18913
899 1 -1.1104 3.6157 21.7755 6.31115
774 1 -1.1104 6.6233 21.9397 0.935603
894 1 -1.1104 1.1801 21.961 6.38941
772 1 -1.1104 6.63604 24.7676 0.941797
776 1 -1.1104 6.57728 22.0119 3.81985
892 1 -1.1104 0.822534 24.8388 6.56073
893 1 -1.1104 6.53318 24.7292 6.47373
1066 2 2.2208 13.5263 43.2564 10.7013
900 1 -1.1104 3.63157 27.587 6.49742
896 1 -1.1104 6.49362 21.8634 6.50563
898 1 -1.1104 3.83613 24.6473 6.52963
798 2 2.2208 13.6657 26.1672 4.97063
777 1 -1.1104 6.51934 27.3937 3.57035
773 1 -1.1104 6.62745 24.7224 3.58748
775 1 -1.1104 6.47407 27.6843 0.762588
778 2 2.2208 10.9134 23.2103 4.93599
780 1 -1.1104 12.1868 24.6901 0.873824
781 1 -1.1104 12.1788 24.6823 3.59752
782 1 -1.1104 12.1043 21.9279 0.864918
784 2 2.2208 10.5988 26.1784 2.2387
785 1 -1.1104 12.3974 21.9754 3.62358
787 1 -1.1104 9.41253 24.4995 0.772601
788 2 2.2208 8.04079 23.3624 2.29096
790 1 -1.1104 9.34333 24.7646 3.7443
791 2 2.2208 7.94154 26.003 5.12553
792 1 -1.1104 9.25676 21.7034 0.838381
794 1 -1.1104 9.5004 21.9459 3.50632
795 1 -1.1104 9.18488 27.6495 3.67204
786 1 -1.1104 11.9503 27.3906 3.81373
783 1 -1.1104 12.0545 27.4358 0.994983
793 1 -1.1104 9.31053 27.4553 0.847692
779 2 2.2208 10.5944 28.8553 4.97011
789 2 2.2208 7.74502 29.0137 2.25101
897 1 -1.1104 6.53809 27.572 6.39675
925 1 -1.1104 12.1663 24.646 6.33044
928 1 -1.1104 9.18343 24.7044 6.56946
929 1 -1.1104 9.35904 21.8954 6.29185
930 1 -1.1104 9.38275 27.4036 6.41308
926 1 -1.1104 12.3119 21.7334 6.51163
10334 1 -1.1104 12.6932 44.7748 12.2258
1089 2 2.2208 8.04467 28.8357 13.5313
800 1 -1.1104 1.06632 30.2181 0.764003
803 1 -1.1104 0.860109 30.3696 3.69123
806 1 -1.1104 0.643937 33.1583 0.770345
807 2 2.2208 5.04659 31.8131 2.1849
809 1 -1.1104 0.970681 33.1053 3.60673
811 1 -1.1104 3.74226 30.4227 0.845642
814 1 -1.1104 3.70162 30.4764 3.60181
816 2 2.2208 2.26823 31.6987 5.09727
818 1 -1.1104 3.50497 33.3523 0.820583
819 1 -1.1104 3.56848 33.2196 3.69567
799 2 2.2208 5.16573 34.5171 5.17167
801 1 -1.1104 0.812263 36.1646 1.08012
804 1 -1.1104 0.970897 35.9452 3.78501
808 2 2.2208 5.13202 37.2667 2.36327
812 1 -1.1104 3.71649 36.0938 0.91558
813 2 2.2208 2.08777 34.5184 2.25108
815 1 -1.1104 3.80677 35.7724 3.73705
817 2 2.2208 2.43651 37.3905 5.14462
953 1 -1.1104 0.989489 33.1577 6.4684
949 1 -1.1104 0.878845 30.3537 6.5654
957 1 -1.1104 3.76274 33.0548 6.48931
956 1 -1.1104 3.7739 35.9134 6.60225
955 1 -1.1104 3.751 30.1781 6.46629
802 1 -1.1104 6.74763 36.1065 0.780032
951 1 -1.1104 6.72006 30.3321 6.49072
825 1 -1.1104 6.52707 33.4977 0.695448
824 1 -1.1104 6.42749 30.3038 3.58929
950 1 -1.1104 1.00263 36.1359 6.55726
810 1 -1.1104 6.59849 33.2494 3.54701
1085 2 2.2208 2.61239 28.9693 13.5021
797 2 2.2208 13.3806 28.7849 2.31953
823 1 -1.1104 6.38707 30.5587 0.935126
805 1 -1.1104 6.63701 36.0767 3.66423
827 1 -1.1104 12.0421 30.1077 0.872574
829 1 -1.1104 12.1625 30.3291 3.70142
831 1 -1.1104 12.0823 33.2131 0.842047
832 2 2.2208 10.7403 31.7193 2.33457
834 1 -1.1104 12.07 33.1372 3.57484
835 1 -1.1104 9.34659 30.3395 0.835654
838 1 -1.1104 9.17073 30.443 3.5391
840 2 2.2208 8.01582 31.7555 5.13818
842 1 -1.1104 9.27469 33.1145 0.882343