ITEM: TIMESTEP
40000
ITEM: NUMBER OF ATOMS
17700
ITEM: BOX BOUNDS pp pp pp
-3.9500795155591045e-01 2.7735007951556419e+01
-5.0132260369128732e+00 3.3309322603690771e+02
-4.0295159579327616e-01 2.7742951595792825e+01
ITEM: ATOMS id type q x y z
1 2 2.2208 5.01014 0.424988 5.17525
2 1 -1.1104 0.800709 -3.56211 1.04077
6 1 -1.1104 0.645995 -3.7592 4.0526
10 1 -1.1104 0.733626 -1.03408 0.70982
12 2 2.2208 4.98333 -2.41043 2.45839
14 1 -1.1104 0.885437 -1.0708 3.47546
16 1 -1.1104 3.61336 -3.62871 1.0114
18 2 2.2208 2.32136 0.50995 2.21156
19 1 -1.1104 3.60209 -3.4996 3.8349
21 2 2.2208 2.06324 -2.28768 5.06659
23 1 -1.1104 3.6146 -0.6724 0.721865
24 1 -1.1104 3.61133 -0.757871 3.62483
3 1 -1.1104 0.765242 1.84383 1.09729
7 1 -1.1104 0.742685 1.78184 3.83948
13 2 2.2208 4.97962 3.37528 2.2859
17 1 -1.1104 3.66631 1.99563 0.872005
20 1 -1.1104 3.64655 2.0192 3.81476
22 2 2.2208 2.22457 3.28501 5.29073
174 1 -1.1104 3.50994 -0.867534 6.46328
15 1 -1.1104 6.39474 -0.961922 3.73023
172 1 -1.1104 3.65239 -3.68352 6.48711
168 1 -1.1104 6.44425 -3.65462 6.65025
8 1 -1.1104 6.37699 -3.74239 3.81282
5 1 -1.1104 6.45833 1.85534 0.927448
4 1 -1.1104 6.51517 -3.59961 0.966876
11 1 -1.1104 6.23894 -0.937252 0.87504
9 1 -1.1104 6.24418 1.96166 3.86852
170 1 -1.1104 0.807222 -0.661265 6.35531
171 1 -1.1104 6.29796 -1.05725 6.5191
166 1 -1.1104 0.708944 -3.53772 6.66102
169 1 -1.1104 6.43792 1.98506 6.62519
31 2 2.2208 10.4946 0.702899 5.17812
32 1 -1.1104 11.9884 -3.62757 0.912406
34 1 -1.1104 11.9312 -3.67866 3.57446
36 1 -1.1104 12.0091 -0.755758 1.16553
37 2 2.2208 10.5683 -2.38057 2.36876
39 1 -1.1104 11.825 -0.908272 3.97359
40 1 -1.1104 9.23253 -3.62695 1.01738
42 2 2.2208 7.74312 0.446281 2.3092
43 1 -1.1104 9.19078 -3.58409 3.85092
45 2 2.2208 7.60981 -2.31889 5.22054
47 1 -1.1104 9.22166 -0.879595 0.698899
48 1 -1.1104 9.18861 -0.676672 3.66177
33 1 -1.1104 12.018 1.97592 0.955914
35 1 -1.1104 11.955 1.89488 3.74691
41 1 -1.1104 9.26592 1.7862 0.982836
44 1 -1.1104 8.92725 1.98802 3.74598
46 2 2.2208 7.60703 3.46235 5.18705
38 2 2.2208 10.5804 3.1961 2.33339
208 1 -1.1104 9.27302 -3.51707 6.6368
205 1 -1.1104 12.1428 -3.71162 6.54747
50 2 2.2208 13.4611 -2.14314 5.24691
209 1 -1.1104 9.14138 2.0932 6.58947
210 1 -1.1104 8.91483 -0.762179 6.37222
207 1 -1.1104 12.0779 -0.981661 6.6673
49 2 2.2208 13.4205 0.644615 2.49414
334 2 2.2208 13.4 3.36482 5.07309
348 2 2.2208 4.91088 -2.21554 13.6628
52 2 2.2208 10.6091 -5.07878 5.06668
349 2 2.2208 2.20808 0.536898 13.6173
333 2 2.2208 13.5034 14.7547 10.8304
54 2 2.2208 5.02183 6.05009 5.11059
56 1 -1.1104 0.724219 7.53495 0.846997
58 1 -1.1104 0.645556 7.46567 3.79915
60 1 -1.1104 0.821211 4.76665 0.915507
67 1 -1.1104 1.0019 4.61555 3.62159
71 1 -1.1104 3.48236 7.47363 0.833226
72 2 2.2208 2.29108 6.28302 2.21271
74 1 -1.1104 3.53747 7.66011 3.69845
76 1 -1.1104 3.79923 4.72644 0.830778
79 1 -1.1104 3.67386 4.79942 3.78566
55 2 2.2208 5.14495 11.6201 5.25997
61 1 -1.1104 0.661006 10.4874 0.967538
66 2 2.2208 5.07176 9.00056 2.35869
68 1 -1.1104 0.946069 10.3765 3.58491
73 2 2.2208 2.1278 11.81 2.34262
75 2 2.2208 2.25842 9.00907 5.23847
77 1 -1.1104 3.47445 10.4396 1.02141
80 1 -1.1104 3.84855 10.3413 3.76097
64 1 -1.1104 6.18773 10.3622 0.888861
238 1 -1.1104 3.76173 7.45827 6.5879
62 1 -1.1104 0.804113 10.444 6.39291
63 1 -1.1104 6.56475 4.68935 0.97921
59 1 -1.1104 6.48475 7.56378 3.60471
70 1 -1.1104 6.50024 10.3731 3.74248
239 1 -1.1104 3.57537 4.55918 6.56762
69 1 -1.1104 6.51185 4.87728 3.61665
57 1 -1.1104 6.36953 7.70576 0.735565
235 1 -1.1104 6.56341 7.40432 6.54126
236 1 -1.1104 0.706858 4.90282 6.37876
234 1 -1.1104 0.911464 7.79269 6.59513
78 1 -1.1104 3.65717 10.2481 6.68908
65 1 -1.1104 6.3126 10.1935 6.50611
84 2 2.2208 10.5869 6.08363 5.06251
86 1 -1.1104 12.2114 7.56958 1.09466
87 1 -1.1104 11.9755 7.60656 3.80873
88 1 -1.1104 11.944 4.78642 1.0236
92 1 -1.1104 12.129 4.8177 3.71592
94 1 -1.1104 9.32894 7.60981 0.934981
95 2 2.2208 8.13863 6.10951 2.33873
97 1 -1.1104 9.34038 7.47931 3.64425
99 1 -1.1104 9.23276 4.62845 0.923657
102 1 -1.1104 9.42499 4.58829 3.78673
85 2 2.2208 10.6416 11.7583 5.14455
89 1 -1.1104 11.9695 10.3436 0.940606
91 2 2.2208 10.6881 8.892 2.47137
93 1 -1.1104 12.0604 10.2816 3.88021
96 2 2.2208 7.80378 11.666 2.34849
98 2 2.2208 7.72688 8.83441 5.15262
100 1 -1.1104 9.1019 10.3874 0.850012
103 1 -1.1104 9.10557 10.3384 3.73834
90 1 -1.1104 12.0609 10.4592 6.61297
267 1 -1.1104 9.22594 7.25924 6.47832
269 1 -1.1104 9.21083 4.65528 6.38983
101 1 -1.1104 9.22516 10.1209 6.36774
105 2 2.2208 13.4868 6.18539 2.37874
335 2 2.2208 13.319 8.95537 5.13477
104 2 2.2208 13.2583 11.6427 2.42389
111 1 -1.1104 6.6563 13.3289 6.55045
107 1 -1.1104 1.02622 13.3666 0.807028
113 1 -1.1104 0.748249 13.1734 3.78944
123 1 -1.1104 3.61467 13.2956 1.23336
128 1 -1.1104 3.56149 13.1888 3.82262
119 2 2.2208 4.95248 14.7267 2.46293
130 2 2.2208 2.18674 14.5076 5.01911
106 2 2.2208 4.91886 17.2897 5.04001
109 1 -1.1104 0.971439 18.8757 0.985079
114 1 -1.1104 0.779647 18.5843 3.87119
116 1 -1.1104 0.759021 16.2407 0.807036
120 2 2.2208 5.08014 20.2446 2.4415
121 1 -1.1104 0.785833 15.8969 3.77923
125 1 -1.1104 3.58525 18.8202 1.1161
127 2 2.2208 2.20096 17.4395 2.32538
129 1 -1.1104 3.55492 18.9467 3.66448
131 2 2.2208 2.10303 20.1963 5.14248
132 1 -1.1104 3.60371 16.1237 0.93562
134 1 -1.1104 3.53143 16.1182 3.85427
126 1 -1.1104 3.57352 18.7468 6.6349
138 1 -1.1104 6.23013 18.9007 0.987698
122 1 -1.1104 6.42902 15.8667 3.82287
117 1 -1.1104 0.683449 16.1008 6.74552
110 1 -1.1104 6.48297 13.1084 0.737431
133 1 -1.1104 3.51025 15.7865 6.65407
139 1 -1.1104 6.42976 18.7044 3.8074
115 1 -1.1104 6.29193 13.0735 3.82312
112 1 -1.1104 6.26951 18.5944 6.47316
118 1 -1.1104 6.47373 15.922 6.56378
302 1 -1.1104 0.639631 18.7651 6.44485
108 1 -1.1104 0.655379 13.3444 6.46219
124 1 -1.1104 3.77692 12.9445 6.64073
165 2 2.2208 13.5509 17.3009 2.29599
336 2 2.2208 13.3164 20.0767 5.15193
140 1 -1.1104 6.36499 16.0765 0.98633
154 1 -1.1104 9.26832 13.1041 6.45197
142 1 -1.1104 12.0715 13.1511 0.820812
146 1 -1.1104 12.1466 13.2508 3.65603
153 1 -1.1104 9.32773 13.182 1.03701
158 1 -1.1104 9.23628 13.2205 3.59824
150 2 2.2208 10.5722 14.582 2.37033
160 2 2.2208 7.89534 14.5513 5.26023
141 2 2.2208 10.5891 17.4472 5.15216
144 1 -1.1104 11.7897 18.7622 0.839774
147 1 -1.1104 11.9769 18.6369 3.6892
148 1 -1.1104 11.9708 16.0119 0.894296
151 2 2.2208 10.5936 20.2928 2.28946
152 1 -1.1104 12.1544 15.8503 3.66973
155 1 -1.1104 9.00806 18.696 0.939788
157 2 2.2208 7.70046 17.3549 2.32738
159 1 -1.1104 9.25943 18.8416 3.80053
161 2 2.2208 7.8873 20.1304 5.10249
162 1 -1.1104 9.0839 16.1539 0.902533
164 1 -1.1104 9.34023 15.9595 3.67275
143 1 -1.1104 12.0111 13.1853 6.57289
145 1 -1.1104 11.8785 18.7463 6.64519
163 1 -1.1104 9.20673 15.9903 6.3835
156 1 -1.1104 9.2817 18.7718 6.66465
322 1 -1.1104 9.18981 13.3105 12.1985
337 2 2.2208 13.5114 14.7554 5.24833
173 1 -1.1104 3.4609 1.81497 6.7471
352 2 2.2208 4.96929 3.47409 13.575
316 2 2.2208 7.6602 20.3591 10.8619
330 1 -1.1104 11.9968 13.2381 12.1231
167 1 -1.1104 0.74579 2.12668 6.67628
175 2 2.2208 4.98505 0.473494 10.6535
176 1 -1.1104 0.814406 -3.54847 12.1756
180 1 -1.1104 0.692556 -3.6945 9.45418
184 1 -1.1104 0.694283 -0.661575 12.1448
186 2 2.2208 4.91117 -2.31851 7.93113
188 1 -1.1104 0.67049 -0.844708 9.30443
190 1 -1.1104 3.6469 -3.61642 12.091
192 2 2.2208 2.09337 0.483614 7.90677
193 1 -1.1104 3.45309 -3.75602 9.43643
195 2 2.2208 2.09916 -2.26787 10.5817
197 1 -1.1104 3.64856 -0.82626 12.1969
198 1 -1.1104 3.44829 -1.03175 9.18921
177 1 -1.1104 0.628945 1.96731 12.1054
181 1 -1.1104 0.769897 1.84989 9.29969
191 1 -1.1104 3.49916 2.16562 12.3174
194 1 -1.1104 3.67898 1.95684 9.54897
196 2 2.2208 2.22923 3.53326 10.6812
187 2 2.2208 4.93958 3.29052 8.10073
182 1 -1.1104 6.36904 -3.77901 9.3834
185 1 -1.1104 6.47886 -0.893005 12.2198
183 1 -1.1104 6.44756 1.81677 9.60598
179 1 -1.1104 6.46493 2.20392 12.2255
376 2 2.2208 7.84952 17.5068 13.5171
178 1 -1.1104 6.44669 -3.68305 12.199
369 2 2.2208 4.94847 20.363 13.5299
206 1 -1.1104 11.9859 1.81528 6.50345
338 2 2.2208 13.399 3.25094 10.8811
368 2 2.2208 2.27692 17.5195 13.5034
230 2 2.2208 13.4247 -2.31567 10.8187
189 1 -1.1104 6.28327 -1.01 9.31179
211 2 2.2208 10.6773 0.552544 10.8776
212 1 -1.1104 11.9944 -3.74621 12.2244
214 1 -1.1104 12.0787 -3.54 9.34552
216 1 -1.1104 12.0679 -0.734559 12.3158
217 2 2.2208 10.6651 -2.39195 8.02914
219 1 -1.1104 12.0312 -0.864783 9.42106
220 1 -1.1104 9.19369 -3.60193 12.0678
222 2 2.2208 7.81034 0.526562 7.94652
223 1 -1.1104 9.19743 -3.56151 9.36045
225 2 2.2208 7.84501 -2.23148 10.7583
227 1 -1.1104 9.40365 -0.816207 12.3031
228 1 -1.1104 9.21872 -0.860476 9.45525
213 1 -1.1104 11.9878 1.90163 12.2615
215 1 -1.1104 12.0194 1.99764 9.40914
218 2 2.2208 10.5546 3.36131 7.83615
221 1 -1.1104 9.30069 2.05796 12.2753
224 1 -1.1104 9.07768 1.82661 9.50884
226 2 2.2208 7.87856 3.56324 10.829
229 2 2.2208 13.3995 0.709989 7.93516
356 2 2.2208 10.6324 -2.32151 13.6552
357 2 2.2208 10.4609 3.47441 13.5462
359 2 2.2208 2.08054 6.08782 13.468
51 2 2.2208 7.85793 -5.04323 2.28976
331 2 2.2208 10.6641 17.3801 10.6135
237 1 -1.1104 6.33544 4.77034 6.56984
231 2 2.2208 7.89721 -5.03581 7.96896
240 2 2.2208 5.06771 6.17154 10.6445
242 1 -1.1104 0.881498 7.55378 11.9727
244 1 -1.1104 0.861204 7.53512 9.27783
246 1 -1.1104 0.763945 4.70027 12.0196
251 1 -1.1104 0.78383 4.70529 9.19492
255 1 -1.1104 3.63477 7.64807 11.9276
256 2 2.2208 2.24136 6.23216 7.90439
258 1 -1.1104 3.57562 7.59571 9.50445
260 1 -1.1104 3.6053 4.93696 12.1001
262 1 -1.1104 3.66121 4.69822 9.36758
241 2 2.2208 4.82394 11.8096 10.823
247 1 -1.1104 0.666057 10.3896 11.9162
250 2 2.2208 4.9561 8.77732 8.00881
252 1 -1.1104 0.480124 10.5639 9.0653
257 2 2.2208 2.1139 11.887 7.95743
259 2 2.2208 2.2936 9.06439 10.6619
261 1 -1.1104 3.52542 10.4921 12.1955
263 1 -1.1104 3.54221 10.4901 9.37502
253 1 -1.1104 6.39415 4.51245 9.23898
254 1 -1.1104 6.34968 10.1019 9.38589
248 1 -1.1104 6.48636 5.0709 11.9144
243 1 -1.1104 6.38766 7.82008 12.2697
245 1 -1.1104 6.39206 7.50615 9.20712
249 1 -1.1104 6.3514 10.6119 11.9812
328 1 -1.1104 12.1004 13.3268 9.55172
320 2 2.2208 7.78686 17.3829 7.96136
266 1 -1.1104 12.0801 4.56537 6.47164
265 1 -1.1104 11.9169 7.55536 6.67587
339 2 2.2208 13.3774 6.12505 8.01582
341 2 2.2208 13.4374 8.91922 10.9109
268 1 -1.1104 9.26531 4.68296 9.32942
271 1 -1.1104 9.19447 4.78967 12.0298
273 1 -1.1104 9.27195 7.60705 9.3541
275 2 2.2208 7.85747 6.14272 8.02176
276 2 2.2208 10.609 6.17229 10.7355
278 1 -1.1104 12.0241 7.64506 12.0975
279 1 -1.1104 12.0434 7.59817 9.44886
280 1 -1.1104 12.1223 4.62843 12.0803
283 1 -1.1104 12.1047 4.82524 9.49856
285 1 -1.1104 9.03103 7.47213 12.119
264 1 -1.1104 9.1173 10.3875 9.33156
270 1 -1.1104 9.0263 10.5246 12.2461
272 2 2.2208 7.74068 9.11565 10.7357
274 2 2.2208 7.67293 11.6691 8.01811
277 2 2.2208 10.7227 11.9929 10.7901
281 1 -1.1104 12.0132 10.3964 12.213
282 2 2.2208 10.5999 8.97755 8.05835
284 1 -1.1104 11.8849 10.6126 9.34562
317 2 2.2208 7.66722 14.5191 10.8178
340 2 2.2208 13.4166 11.9464 7.92874
321 1 -1.1104 9.14086 18.9675 12.0354
361 2 2.2208 1.91789 11.9554 13.2604
371 2 2.2208 4.866 14.7085 13.5701
323 1 -1.1104 12.0059 16.0804 9.17646
290 1 -1.1104 6.4366 13.115 9.37261
288 1 -1.1104 6.38548 18.9249 9.38099
297 1 -1.1104 6.31777 13.2807 12.1273
306 1 -1.1104 6.40313 16.0303 12.1263
305 1 -1.1104 3.41154 13.3076 9.29304
299 1 -1.1104 0.600455 13.4198 12.101
294 1 -1.1104 0.687122 13.3161 9.47449
287 1 -1.1104 3.39794 13.3272 12.2518
310 2 2.2208 2.03324 14.7713 10.8079
295 2 2.2208 4.99043 14.6568 7.99804
309 2 2.2208 2.0162 20.4478 10.919
308 1 -1.1104 3.5137 15.9314 12.0823
307 1 -1.1104 0.588126 16.2409 12.2389
286 1 -1.1104 3.56989 18.7986 12.1198
304 1 -1.1104 3.5315 16.1286 9.32821
303 2 2.2208 2.18877 17.464 7.88576
301 1 -1.1104 3.62563 18.7858 9.17192
300 2 2.2208 5.12743 17.5819 10.6617
298 1 -1.1104 0.747846 18.9304 12.1783
293 2 2.2208 5.00533 20.3452 7.79917
292 1 -1.1104 0.658711 16.1031 9.47544
291 1 -1.1104 0.839893 18.9033 9.43107
296 1 -1.1104 6.32043 18.9077 12.2087
289 1 -1.1104 6.31896 15.9721 9.39629
27 2 2.2208 -0.41605 3.3964 2.44122
324 2 2.2208 10.7383 20.2445 7.98283
325 2 2.2208 10.5492 14.6223 7.95757
332 2 2.2208 13.3699 17.4786 8.0635
327 1 -1.1104 11.9788 18.6833 9.35574
314 1 -1.1104 9.23941 15.8401 9.51482
149 1 -1.1104 11.8945 15.9951 6.5082
319 1 -1.1104 9.12023 13.0343 9.26145
329 1 -1.1104 12.0258 18.9083 12.1059
345 2 2.2208 13.4671 20.3786 10.6983
326 1 -1.1104 12.0162 15.8234 12.1454
318 1 -1.1104 9.1894 18.8789 9.36105
315 1 -1.1104 9.3171 16.2196 12.2887
360 2 2.2208 4.92533 8.96605 13.5132
389 2 2.2208 7.84821 3.25549 -0.508008
380 2 2.2208 13.4274 17.4059 13.5581
366 2 2.2208 13.4464 6.23372 13.5484
362 2 2.2208 13.4737 11.8185 13.6041
372 2 2.2208 10.5591 20.2529 13.3697
364 2 2.2208 10.5986 9.18438 13.5205
403 2 2.2208 2.16626 14.6596 -0.386312
391 2 2.2208 13.4773 -2.23527 -0.297042
400 2 2.2208 10.5771 11.6807 -0.279761
406 2 2.2208 4.98234 0.610171 16.3694
407 1 -1.1104 0.982699 -3.54764 17.8554
411 1 -1.1104 0.903916 -3.55672 14.9498
419 1 -1.1104 0.689832 -0.703983 17.8591
421 2 2.2208 5.07487 -2.2693 19.2515
423 1 -1.1104 0.480818 -0.816662 14.8868
427 1 -1.1104 3.58438 -3.64476 17.8885
429 2 2.2208 2.11653 0.483128 19.2316
430 1 -1.1104 3.65759 -3.5845 15.1364
434 2 2.2208 2.20621 -2.18738 16.4471
436 1 -1.1104 3.66725 -0.83367 17.7199
437 1 -1.1104 3.45926 -0.88909 14.9619
408 1 -1.1104 0.690991 2.22822 17.8154
413 1 -1.1104 0.60729 2.03167 14.9448
422 2 2.2208 4.96847 3.44511 19.2041
428 1 -1.1104 3.64987 1.83198 17.7794
432 1 -1.1104 3.38068 1.88001 15.1023
435 2 2.2208 1.87824 3.49598 16.356
414 1 -1.1104 0.598308 1.94414 20.4811
410 1 -1.1104 6.49342 1.87534 17.8717
438 1 -1.1104 3.67274 -0.835869 20.5608
424 1 -1.1104 0.663095 -0.934592 20.5915
431 1 -1.1104 3.70517 -3.76212 20.473
412 1 -1.1104 0.840105 -3.67112 20.4836
415 1 -1.1104 6.42697 -3.75318 15.0344
409 1 -1.1104 6.36337 -3.62298 17.8195
425 1 -1.1104 6.41534 -0.929156 15.129
417 1 -1.1104 6.33027 1.96587 14.8459
420 1 -1.1104 6.58632 -0.871478 17.7715
426 1 -1.1104 6.52248 -0.779508 20.6622
449 2 2.2208 10.4655 0.494109 16.4512
450 1 -1.1104 12.2616 -3.59433 17.9895
452 1 -1.1104 12.0707 -3.62499 15.0431
456 1 -1.1104 12.2795 -0.784252 17.9769
457 2 2.2208 10.6137 -2.28927 19.4696
459 1 -1.1104 12.0855 -1.06336 15.0789
461 1 -1.1104 9.36344 -3.82166 17.7085
463 2 2.2208 7.83311 0.467911 19.1647
464 1 -1.1104 9.23102 -3.73462 15.1339
468 2 2.2208 7.74104 -2.44433 16.5208
470 1 -1.1104 9.20205 -0.796841 17.9078
471 1 -1.1104 9.14895 -0.860557 15.1691
451 1 -1.1104 12.1284 2.10444 18.1174
454 1 -1.1104 11.9011 1.94989 15.3213
458 2 2.2208 10.5795 3.4103 19.2481
462 1 -1.1104 9.17956 1.86533 17.9474
466 1 -1.1104 9.18967 2.03292 15.0201
469 2 2.2208 7.85118 3.31541 16.5543
460 1 -1.1104 11.9967 -1.0096 20.9107
467 1 -1.1104 9.18599 2.00801 20.6993
474 2 2.2208 10.7627 -5.06482 16.3067
578 2 2.2208 13.4537 0.492635 19.4595
402 2 2.2208 13.5022 8.95635 27.6785
726 2 2.2208 13.3442 11.8378 24.9583
381 2 2.2208 5.0869 0.677156 27.6015
455 1 -1.1104 12.1986 1.82055 20.8696
482 2 2.2208 4.89478 6.08781 16.3726
484 1 -1.1104 0.656182 7.66407 17.553
486 1 -1.1104 0.614928 7.36621 14.7095
490 1 -1.1104 0.662002 5.03512 17.5841
495 1 -1.1104 0.525704 4.70403 14.8392
503 1 -1.1104 3.60323 7.42786 17.6591
504 2 2.2208 2.20092 6.20397 18.9967
506 1 -1.1104 3.39112 7.4631 14.7609
509 1 -1.1104 3.48649 4.56988 17.7461
511 1 -1.1104 3.55547 4.6601 15.1044
483 2 2.2208 5.10066 11.6631 16.4027
491 1 -1.1104 0.865171 10.4607 17.6338
494 2 2.2208 5.16938 8.87806 19.3672
497 1 -1.1104 0.841073 10.3099 14.7383
505 2 2.2208 2.19072 11.8281 19.1883
508 2 2.2208 2.05659 9.01458 16.2171
510 1 -1.1104 3.5902 10.1805 17.8014
513 1 -1.1104 3.63725 10.3218 15.073
501 1 -1.1104 6.4542 10.2542 14.8013
514 1 -1.1104 3.62352 10.449 20.5505
512 1 -1.1104 3.62192 4.86079 20.6615
498 1 -1.1104 0.782992 10.3939 20.4769
499 1 -1.1104 6.49146 4.7915 15.1177
493 1 -1.1104 6.55577 10.2874 17.6681
489 1 -1.1104 6.35828 7.45881 20.7053
488 1 -1.1104 6.34225 7.64285 15.1312
492 1 -1.1104 6.30929 4.63319 17.7441
485 1 -1.1104 6.37604 7.33181 17.8687
500 1 -1.1104 6.42731 4.74842 20.5731
487 1 -1.1104 0.888362 7.70728 20.3891
579 2 2.2208 13.3987 3.24697 16.4383
517 2 2.2208 13.405 11.8293 19.3507
518 2 2.2208 10.5886 6.29027 16.4351
520 1 -1.1104 12.0629 7.68223 17.8812
521 1 -1.1104 12.1708 7.7319 15.0969
523 1 -1.1104 11.8694 4.77698 17.8269
526 1 -1.1104 12.2164 4.97013 14.9953
530 1 -1.1104 9.14721 7.59744 17.9495
531 2 2.2208 7.69493 6.12332 19.2413
533 1 -1.1104 9.05663 7.72291 15.0292
536 1 -1.1104 9.21377 4.59482 17.8677
538 1 -1.1104 9.14412 4.80012 14.8064
519 2 2.2208 10.5738 11.7123 16.4854
524 1 -1.1104 11.9074 10.4034 17.8127
525 2 2.2208 10.6503 9.01248 19.2218
528 1 -1.1104 12.0184 10.3184 15.0036
532 2 2.2208 7.76751 11.6961 19.1545
535 2 2.2208 7.80497 9.07896 16.2769
537 1 -1.1104 9.22419 10.2921 17.9031
540 1 -1.1104 9.37588 10.4119 14.9901
529 1 -1.1104 11.9707 10.3934 20.717
534 1 -1.1104 9.22483 7.68124 20.7123
543 2 2.2208 13.4278 9.05463 16.4285
542 2 2.2208 13.208 6.2052 19.0775
539 1 -1.1104 9.14264 4.68991 20.537
541 1 -1.1104 9.12302 10.4001 20.6277
393 2 2.2208 5.00192 6.20447 27.7021
546 1 -1.1104 0.804251 13.2122 17.5224
550 1 -1.1104 0.628367 13.1943 14.7051
566 1 -1.1104 3.61465 13.1096 17.7212
569 1 -1.1104 3.30438 13.156 14.9211
560 2 2.2208 4.97397 14.5392 18.9884
573 2 2.2208 2.10979 14.4764 16.2864
545 2 2.2208 4.99277 17.3963 16.3286
547 1 -1.1104 0.588701 18.8495 17.7511
552 1 -1.1104 0.917117 18.8702 14.9748
558 1 -1.1104 0.90956 16.115 17.7883
561 2 2.2208 5.04941 20.3924 19.1692
562 1 -1.1104 0.838696 16.0422 15.0309
567 1 -1.1104 3.50418 18.7848 17.7192
568 2 2.2208 2.36854 17.3649 19.0951
571 1 -1.1104 3.63595 18.9231 14.8982
574 2 2.2208 2.24611 20.2117 16.2377
575 1 -1.1104 3.72251 15.9499 17.6022
576 1 -1.1104 3.51123 16.0497 14.8533
548 1 -1.1104 6.50791 13.0524 17.6893
549 1 -1.1104 6.50286 18.8743 17.7442
553 1 -1.1104 0.978519 18.8068 20.7691
555 1 -1.1104 6.57262 13.1696 20.6051
570 1 -1.1104 3.57103 13.1087 20.796
556 1 -1.1104 6.34948 18.7853 14.9592
564 1 -1.1104 6.36427 15.8952 14.8783
563 1 -1.1104 0.90989 16.0747 20.5738
572 1 -1.1104 3.71231 18.8129 20.5664
554 1 -1.1104 6.19534 13.0251 15.0551
559 1 -1.1104 6.45576 15.9673 17.64
565 1 -1.1104 6.60935 16.001 20.4764
480 2 2.2208 13.3944 14.5069 16.5741
478 2 2.2208 13.3915 20.1326 16.293
582 1 -1.1104 12.0975 13.1615 17.901
584 1 -1.1104 11.9158 13.1417 15.1077
593 1 -1.1104 9.2521 13.0906 17.9224
596 1 -1.1104 9.13047 13.1589 15.0753
589 2 2.2208 10.6137 14.4654 19.2287
600 2 2.2208 7.80764 14.6416 16.4828
581 2 2.2208 10.4896 17.2954 16.4354
583 1 -1.1104 11.8677 18.5108 17.7823
586 1 -1.1104 12.0716 18.7973 14.92
588 1 -1.1104 12.1266 15.771 18.0055
590 2 2.2208 10.7138 20.171 18.9826
591 1 -1.1104 11.9451 15.884 14.8921
594 1 -1.1104 9.10298 18.8122 17.6809
595 2 2.2208 7.91288 17.5206 19.1618
598 1 -1.1104 9.17353 18.8781 14.8291
601 2 2.2208 7.82801 20.1842 16.2551
602 1 -1.1104 9.14694 15.9151 17.9997
603 1 -1.1104 9.18271 15.9935 15.1227
585 1 -1.1104 12.0497 13.2549 20.5632
597 1 -1.1104 9.29952 13.0979 20.6679
604 1 -1.1104 9.49748 16.0842 20.6149
479 2 2.2208 13.3443 17.4003 19.2545
592 1 -1.1104 12.0964 16.085 20.6262
433 1 -1.1104 3.32912 1.95314 20.6261
418 1 -1.1104 6.21784 1.9017 20.6719
416 1 -1.1104 6.56483 -3.62375 20.5577
477 2 2.2208 13.4434 -2.28051 16.4851
609 2 2.2208 4.97516 0.387871 21.9335
610 1 -1.1104 0.803597 -3.47311 23.2664
614 1 -1.1104 0.739808 -3.6291 26.343
618 1 -1.1104 0.752956 -0.736474 23.2974
620 2 2.2208 4.84631 -2.28505 24.6939
622 1 -1.1104 0.882248 -0.797437 26.0996
624 1 -1.1104 3.30623 -3.7578 23.2458
626 2 2.2208 2.12638 0.551503 24.5805
627 1 -1.1104 3.5149 -3.68437 26.2081
629 2 2.2208 2.20965 -2.27492 21.9022
631 1 -1.1104 3.65172 -1.01063 23.2498
632 1 -1.1104 3.52927 -0.945164 25.9899
611 1 -1.1104 0.711622 2.10053 23.2827
615 1 -1.1104 0.954687 1.91888 26.1681
621 2 2.2208 4.97725 3.30994 24.6778
625 1 -1.1104 3.4904 1.98629 23.4004
628 1 -1.1104 3.637 1.89484 26.054
630 2 2.2208 2.06869 3.51781 21.9103
617 1 -1.1104 6.52094 1.93168 26.158
616 1 -1.1104 6.42099 -3.52272 26.258
612 1 -1.1104 6.24501 -3.73059 23.4109
619 1 -1.1104 6.39011 -0.98287 23.4413
613 1 -1.1104 6.31962 1.78106 23.4247
623 1 -1.1104 6.5673 -0.752419 26.2726
394 2 2.2208 2.05466 8.93958 27.6501
404 2 2.2208 4.9372 17.5433 27.7601
446 2 2.2208 13.5334 3.24146 22.0655
472 1 -1.1104 9.08555 -0.848789 20.7533
453 1 -1.1104 11.9554 -3.74028 20.6354
375 2 2.2208 13.3606 20.1365 27.5709
465 1 -1.1104 9.20742 -3.8688 20.7231
645 2 2.2208 10.5934 0.613696 22.0159
646 1 -1.1104 11.9707 -3.83378 23.5273
648 1 -1.1104 12.1875 -3.68528 26.3901
650 1 -1.1104 12.0901 -0.980536 23.4773
651 2 2.2208 10.7338 -2.26992 24.8514
653 1 -1.1104 12.0827 -0.920406 26.4702
654 1 -1.1104 9.19226 -3.59743 23.531
656 2 2.2208 7.72212 0.495153 24.7404
657 1 -1.1104 9.33518 -3.65114 26.2529
659 2 2.2208 7.76241 -2.25413 22.1134
661 1 -1.1104 9.17254 -0.901339 23.344
662 1 -1.1104 9.29851 -0.83104 26.1632
647 1 -1.1104 11.8708 1.77202 23.5302
649 1 -1.1104 12.0236 1.87818 26.2372
652 2 2.2208 10.4987 3.25073 24.7347
655 1 -1.1104 9.04123 1.88926 23.4164
658 1 -1.1104 9.23925 2.03376 26.2094
660 2 2.2208 7.74579 3.3197 22.0221
672 2 2.2208 13.4074 0.452244 24.9484
671 2 2.2208 13.3512 -2.3106 22.1845
507 1 -1.1104 3.68323 7.59118 20.511
496 1 -1.1104 0.75801 4.86242 20.3836
674 2 2.2208 4.7816 6.08512 22.0833
676 1 -1.1104 0.777151 7.48705 23.1402
678 1 -1.1104 0.651265 7.34555 26.0765
680 1 -1.1104 0.796415 4.80959 23.3016
685 1 -1.1104 0.804879 4.69202 26.164
689 1 -1.1104 3.39587 7.60356 23.3742
690 2 2.2208 2.1749 6.11334 24.842
692 1 -1.1104 3.47389 7.47581 26.2125
694 1 -1.1104 3.58657 4.7475 23.4954
696 1 -1.1104 3.71937 4.67698 26.1409
675 2 2.2208 5.11216 11.9795 22.011
681 1 -1.1104 0.79035 10.3056 23.3975
684 2 2.2208 4.96631 9.01082 24.8073
686 1 -1.1104 0.894922 10.1684 26.3254
691 2 2.2208 2.11411 11.7493 24.8937
693 2 2.2208 2.13849 9.04363 22.1053
695 1 -1.1104 3.58085 10.6729 23.4387
697 1 -1.1104 3.5932 10.4467 26.1516
683 1 -1.1104 6.18762 10.2173 23.3151
688 1 -1.1104 6.31795 10.2467 26.1254
679 1 -1.1104 6.27264 7.56982 26.1407
682 1 -1.1104 6.35946 4.83747 23.5208
677 1 -1.1104 6.3748 7.60584 23.4717
502 1 -1.1104 6.40236 10.4835 20.5332
687 1 -1.1104 6.33008 4.70925 26.3403
388 2 2.2208 7.89111 -2.21813 27.5768
387 2 2.2208 10.5729 0.517583 27.5865
382 2 2.2208 2.33502 -2.20339 27.6766
669 2 2.2208 7.89767 -4.93264 24.8004
522 1 -1.1104 11.942 7.73195 20.7073
383 2 2.2208 2.24906 3.26182 27.5384
728 2 2.2208 13.6163 6.12475 24.8677
445 2 2.2208 13.3848 8.90546 22.1604
527 1 -1.1104 12.0442 4.88474 20.9353
706 1 -1.1104 9.53791 4.75708 26.2226
708 1 -1.1104 9.27859 4.66089 23.3979
710 1 -1.1104 9.18924 7.53631 26.2464
712 2 2.2208 7.85855 6.08353 24.8583
713 2 2.2208 10.6456 6.20385 22.0825
715 1 -1.1104 12.0346 7.55611 23.5299
716 1 -1.1104 11.9643 7.75529 26.5277
717 1 -1.1104 12.1498 4.56224 23.4208
720 1 -1.1104 12.0827 4.86813 26.282
722 1 -1.1104 9.25063 7.44131 23.4376
705 1 -1.1104 9.22412 10.3682 26.2236
707 1 -1.1104 9.01483 10.3223 23.4141
709 2 2.2208 7.62697 8.92265 21.8974
711 2 2.2208 7.74648 11.8209 24.8836
714 2 2.2208 10.4405 11.6162 22.1811
718 1 -1.1104 11.9019 10.2447 23.6339
719 2 2.2208 10.5634 8.90507 24.8839
721 1 -1.1104 11.9999 10.5437 26.3514
633 1 -1.1104 11.8343 18.7371 23.328
638 2 2.2208 10.5318 14.5564 24.8808
663 1 -1.1104 12.0631 16.0363 26.3655
551 1 -1.1104 0.717321 13.1127 20.5449
557 1 -1.1104 6.55382 18.9811 20.6907
704 1 -1.1104 9.18871 15.9668 26.1514
577 1 -1.1104 3.70132 16.0912 20.4752
747 1 -1.1104 6.35131 15.9056 23.4835
744 2 2.2208 2.06717 17.3904 24.8456
743 1 -1.1104 3.7049 18.9136 26.2872
742 2 2.2208 5.18114 17.4851 21.9444
746 1 -1.1104 3.63112 13.4728 26.4598
731 1 -1.1104 3.48317 13.2284 23.7323
735 1 -1.1104 0.72954 13.1279 26.1284
741 1 -1.1104 0.826628 12.9875 23.4497
727 2 2.2208 2.09539 14.5323 21.9992
750 2 2.2208 2.17961 20.1692 22.0541
749 1 -1.1104 3.52366 16.0497 23.4191
748 1 -1.1104 0.541543 16.0365 23.3726
745 1 -1.1104 3.31265 16.1845 26.2338
729 1 -1.1104 3.55864 18.9351 23.3105
733 1 -1.1104 0.823307 18.7523 26.3464
734 1 -1.1104 0.770423 16.0566 26.2036
737 2 2.2208 4.90249 20.0908 24.8088
738 2 2.2208 4.8677 14.696 25.0009
740 1 -1.1104 0.631939 18.6909 23.4855
736 1 -1.1104 6.29485 18.9378 23.3453
730 1 -1.1104 6.36267 13.2374 25.9977
739 1 -1.1104 6.39233 13.1175 23.3056
378 2 2.2208 10.4971 17.3925 27.7387
670 1 -1.1104 6.38569 18.7522 26.0918
732 1 -1.1104 6.39109 16.053 26.4134
405 2 2.2208 2.29391 20.2587 27.6816
605 2 2.2208 13.3522 17.5414 25.0144
580 2 2.2208 13.3579 14.6786 21.9728
665 1 -1.1104 9.02934 18.8453 23.3306
667 2 2.2208 7.82342 17.2928 24.7989
440 2 2.2208 4.95088 -4.94272 16.4604
599 1 -1.1104 9.10849 18.919 20.4211
587 1 -1.1104 11.7555 18.6866 20.5696
641 2 2.2208 10.4436 20.1326 24.7607
700 2 2.2208 7.73835 20.3143 21.9921
607 2 2.2208 10.4576 17.4849 22.051
673 1 -1.1104 9.1881 13.0899 26.5229
379 2 2.2208 7.7098 20.1911 27.7458
634 1 -1.1104 11.9234 13.345 26.3182
698 1 -1.1104 9.23971 18.81 26.2155
608 1 -1.1104 12.122 13.0656 23.4103
701 1 -1.1104 9.16395 15.9196 23.4568
635 1 -1.1104 11.8896 18.7947 26.2354
606 2 2.2208 13.3766 20.2157 21.9694
699 2 2.2208 7.94231 14.6029 21.9226
636 1 -1.1104 12.0241 15.9608 23.4536
664 1 -1.1104 9.1161 13.2161 23.7291
398 2 2.2208 10.6705 6.20964 27.7652
392 2 2.2208 13.418 3.31476 27.6641
363 2 2.2208 7.64202 6.31235 13.6195
355 2 2.2208 7.78702 0.536921 13.6494
373 2 2.2208 10.5102 14.6375 13.5581
370 2 2.2208 13.4048 0.597571 13.7119
399 2 2.2208 7.75475 8.92016 27.5163
365 2 2.2208 7.69506 11.7497 13.6928
377 2 2.2208 7.92075 14.6556 27.6658
395 2 2.2208 4.9267 11.7834 27.658
374 2 2.2208 13.4827 14.6901 27.5976
751 2 2.2208 4.89426 23.0977 4.90492
753 1 -1.1104 0.891731 24.5234 1.02446
754 1 -1.1104 0.65624 24.3897 4.04001
755 1 -1.1104 0.872944 21.7523 1.01015
756 1 -1.1104 0.88614 27.2386 0.874261
757 2 2.2208 4.97309 25.9269 2.10236
758 1 -1.1104 0.694133 21.38 3.95731
759 1 -1.1104 0.759743 27.3424 3.82526
760 1 -1.1104 3.71095 24.5588 0.655367
761 2 2.2208 2.17516 23.0707 2.27892
763 1 -1.1104 3.38525 24.4764 3.62737
764 2 2.2208 2.19791 25.8783 5.07952
765 1 -1.1104 3.58523 21.8395 0.97482
766 1 -1.1104 3.71427 27.4786 0.740259
767 1 -1.1104 3.52779 21.6977 3.67551
768 1 -1.1104 3.56229 27.3935 3.50257
752 2 2.2208 4.9581 28.7847 5.13422
762 2 2.2208 2.09978 28.7523 2.16497
775 1 -1.1104 6.57692 27.2415 0.926345
774 1 -1.1104 6.30518 21.6703 0.790523
776 1 -1.1104 6.43799 21.6136 3.6527
899 1 -1.1104 3.48904 21.6934 6.38705
772 1 -1.1104 6.446 24.5442 0.831559
777 1 -1.1104 6.13129 27.308 3.84075
894 1 -1.1104 0.817772 21.8186 6.68155
893 1 -1.1104 6.40119 24.5268 6.50443
896 1 -1.1104 6.49745 21.4356 6.39659
773 1 -1.1104 6.29332 24.4158 3.39911
897 1 -1.1104 6.38601 27.2215 6.48592
778 2 2.2208 10.654 23.0669 4.99426
780 1 -1.1104 11.9504 24.5305 0.691004
781 1 -1.1104 11.8246 24.4114 3.5371
782 1 -1.1104 11.9577 21.8519 0.911178
784 2 2.2208 10.5254 25.8659 2.06042
785 1 -1.1104 11.9888 21.4872 3.72542
787 1 -1.1104 9.18336 24.2502 0.881172
788 2 2.2208 7.80338 23.0128 2.22085
790 1 -1.1104 9.0494 24.5427 3.69935
791 2 2.2208 7.8071 25.9059 5.09396
792 1 -1.1104 9.15215 21.4867 0.762962
794 1 -1.1104 9.13536 21.5795 3.6507
795 1 -1.1104 9.15108 27.1621 3.81135
786 1 -1.1104 12.0255 27.227 3.71307
783 1 -1.1104 11.9113 27.3738 0.987268
793 1 -1.1104 9.17484 27.1439 0.778755
779 2 2.2208 10.6703 28.5808 5.05733
789 2 2.2208 7.79747 28.6832 2.35885
930 1 -1.1104 9.11455 27.4713 6.48767
927 1 -1.1104 12.0095 27.2977 6.36607
797 2 2.2208 13.3861 28.7041 2.24987
929 1 -1.1104 9.36417 21.7956 6.46375
925 1 -1.1104 12.0445 24.4085 6.34772
798 2 2.2208 13.4854 25.9043 5.15046
796 2 2.2208 13.3784 23.0078 2.15218
800 1 -1.1104 0.900175 30.1623 0.81687
803 1 -1.1104 0.789992 30.1101 3.60458
806 1 -1.1104 0.81074 33.1088 0.948317
807 2 2.2208 5.04719 31.49 2.25246
809 1 -1.1104 0.892295 33.0512 3.53611
811 1 -1.1104 3.4588 30.0843 0.823846
814 1 -1.1104 3.58292 30.1667 3.59608
816 2 2.2208 2.25701 31.518 4.97124
818 1 -1.1104 3.70995 32.8514 0.899597
819 1 -1.1104 3.52027 32.9463 3.67634
799 2 2.2208 4.94719 34.3742 5.07878
801 1 -1.1104 0.864715 35.8465 0.777151
804 1 -1.1104 0.849125 35.8505 3.6417
808 2 2.2208 5.01244 37.2965 2.25807
812 1 -1.1104 3.66444 35.7242 0.772739
813 2 2.2208 2.23446 34.4584 2.23361
815 1 -1.1104 3.56834 35.8119 3.48293
817 2 2.2208 2.19939 37.294 5.11837
824 1 -1.1104 6.45934 30.0863 3.76476
805 1 -1.1104 6.40483 35.9021 3.61392
953 1 -1.1104 1.00823 32.9941 6.20628
802 1 -1.1104 6.50119 35.6935 0.753128
957 1 -1.1104 3.71267 33.0664 6.67064
955 1 -1.1104 3.53903 30.3713 6.61619
949 1 -1.1104 0.739528 30.2385 6.50748
950 1 -1.1104 0.849852 35.7201 6.5609
825 1 -1.1104 6.36978 32.9188 0.918609
823 1 -1.1104 6.43377 30.2141 0.991079
810 1 -1.1104 6.41237 32.812 3.78982
952 1 -1.1104 6.38885 35.6524 6.51114
956 1 -1.1104 3.57629 35.829 6.34475
951 1 -1.1104 6.27813 30.124 6.64362
827 1 -1.1104 12.0683 30.2133 0.838358
829 1 -1.1104 11.9884 30.2002 3.71583
831 1 -1.1104 12.0148 32.8913 0.936539
832 2 2.2208 10.6689 31.6547 2.46034
834 1 -1.1104 12.2356 32.8979 3.798
835 1 -1.1104 9.34042 30.0653 0.949673
838 1 -1.1104 9.33375 30.186 3.75695
840 2 2.2208 7.83226 31.5077 5.27751
842 1 -1.1104 9.09577 32.9684 1.00406
843 1 -1.1104 9.17156 32.9568 3.97775
826 2 2.2208 10.8681 34.2493 5.30338
828 1 -1.1104 12.0535 35.5255 1.18273
830 1 -1.1104 12.0623 35.6312 3.84921
833 2 2.2208 10.7368 37.1339 2.4972
836 1 -1.1104 9.25156 35.8876 0.956649
837 2 2.2208 7.79989 34.3081 2.3284
839 1 -1.1104 9.25074 35.7351 4.00505
841 2 2.2208 7.80654 37.0981 5.27602
985 1 -1.1104 12.1953 32.891 6.62106
987 1 -1.1104 9.25651 35.8234 6.79414
983 1 -1.1104 11.933 30.207 6.62904