ITEM: TIMESTEP
50000
ITEM: NUMBER OF ATOMS
17700
ITEM: BOX BOUNDS pp pp pp
-4.5958396577051180e-01 2.7799583965770193e+01
-5.1942899889710157e+00 3.3327428998896818e+02
-4.4174555093094370e-01 2.7781745550931291e+01
ITEM: ATOMS id type q x y z
1 2 2.2208 5.15439 0.46462 5.16474
2 1 -1.1104 0.929537 -3.75285 1.05153
6 1 -1.1104 1.00083 -3.62476 3.80793
10 1 -1.1104 0.820161 -0.973168 1.04739
12 2 2.2208 5.46259 -2.47435 2.32975
14 1 -1.1104 1.00892 -0.830249 3.90472
16 1 -1.1104 3.98839 -3.64337 0.899642
18 2 2.2208 2.11234 0.47904 2.35972
19 1 -1.1104 3.8317 -3.96603 3.47142
21 2 2.2208 2.42371 -2.36773 4.99295
23 1 -1.1104 3.63825 -0.890145 1.2662
24 1 -1.1104 3.74235 -0.842394 3.92075
174 1 -1.1104 3.67353 -0.846303 6.61917
170 1 -1.1104 0.883846 -0.893592 6.66082
172 1 -1.1104 3.77288 -3.79444 6.3937
8053 2 2.2208 10.8746 -4.9794 5.21056
8052 2 2.2208 5.27599 -4.99293 10.8339
621 2 2.2208 10.8938 11.6318 -0.459707
561 2 2.2208 8.07285 3.08039 -0.337031
413 2 2.2208 2.52809 11.614 13.664
8 1 -1.1104 6.70029 -3.83798 3.79849
4 1 -1.1104 6.78678 -4.06234 1.00015
412 2 2.2208 5.29057 8.74255 13.6276
11 1 -1.1104 6.68708 -1.01582 1.04356
168 1 -1.1104 6.53572 -3.77182 6.76278
15 1 -1.1104 6.52106 -1.00513 3.6776
31 2 2.2208 10.8534 0.589909 5.12636
32 1 -1.1104 12.2556 -3.76493 0.747356
34 1 -1.1104 12.3714 -3.70102 3.7187
36 1 -1.1104 12.2383 -1.16826 1.03506
37 2 2.2208 10.7029 -2.473 2.32567
39 1 -1.1104 12.0238 -0.842341 3.84848
40 1 -1.1104 9.3932 -3.89673 1.06474
42 2 2.2208 8.04998 0.454863 2.44901
43 1 -1.1104 9.3975 -3.78702 3.74444
45 2 2.2208 7.98284 -2.29859 5.23031
47 1 -1.1104 9.33985 -0.985967 0.753602
48 1 -1.1104 9.41091 -1.10663 3.75987
207 1 -1.1104 12.2059 -0.950778 6.62632
171 1 -1.1104 6.46513 -1.01797 6.51515
208 1 -1.1104 9.443 -3.80726 6.42734
205 1 -1.1104 12.5109 -3.71371 6.6264
210 1 -1.1104 9.33702 -1.04679 6.49134
3 1 -1.1104 0.736546 1.90377 1.0276
7 1 -1.1104 0.966026 2.16163 3.61618
13 2 2.2208 5.13841 3.14845 2.44833
17 1 -1.1104 3.70467 1.8025 0.87823
20 1 -1.1104 3.52974 1.77166 3.64208
22 2 2.2208 2.34806 3.23839 5.13594
54 2 2.2208 5.12613 5.9127 5.05245
56 1 -1.1104 1.06428 7.56811 1.00976
58 1 -1.1104 0.764364 7.7908 3.9728
60 1 -1.1104 0.983649 4.62334 1.01224
67 1 -1.1104 0.96735 4.98967 3.78533
71 1 -1.1104 3.87997 7.41147 0.977776
72 2 2.2208 2.41848 6.01734 2.34863
76 1 -1.1104 3.84941 4.50191 1.06568
79 1 -1.1104 3.70079 4.46164 3.92595
74 1 -1.1104 3.87264 7.26804 3.78212
173 1 -1.1104 3.94126 2.01044 6.47785
238 1 -1.1104 3.679 7.62518 6.74669
5 1 -1.1104 6.73136 1.7531 1.03231
239 1 -1.1104 3.96691 5.08364 6.76073
7957 2 2.2208 -0.334592 -5.17507 10.8849
8944 2 2.2208 -0.483196 0.290295 10.9303
535 2 2.2208 8.16603 14.4729 -0.408153
57 1 -1.1104 6.7091 7.35672 1.07489
69 1 -1.1104 6.51608 4.65638 3.85401
9 1 -1.1104 6.70872 1.93976 3.85946
63 1 -1.1104 6.64079 4.59355 1.13828
59 1 -1.1104 6.68023 7.37723 3.78668
237 1 -1.1104 6.85648 4.55524 6.41147
169 1 -1.1104 6.76444 1.79055 6.55851
33 1 -1.1104 12.1713 1.87423 0.97877
35 1 -1.1104 12.2419 2.02388 3.71578
38 2 2.2208 10.7256 3.23347 2.3654
41 1 -1.1104 9.38613 1.83879 1.08935
44 1 -1.1104 9.39601 1.81142 3.94442
46 2 2.2208 8.21239 3.33114 5.13357
84 2 2.2208 10.9555 6.18323 5.239
88 1 -1.1104 12.3289 4.61042 0.966808
92 1 -1.1104 11.8551 4.90294 3.7169
95 2 2.2208 8.20682 6.15324 2.48497
97 1 -1.1104 9.73918 7.39143 3.88027
99 1 -1.1104 9.4475 4.63893 0.936662
102 1 -1.1104 9.29652 4.63386 3.60137
94 1 -1.1104 9.43017 7.54949 1.12348
86 1 -1.1104 12.1966 7.38531 0.890341
87 1 -1.1104 12.3536 7.52662 3.80747
266 1 -1.1104 12.3294 4.70735 6.5693
209 1 -1.1104 9.56233 2.04731 6.65091
269 1 -1.1104 9.39859 4.79941 6.47656
8017 2 2.2208 5.1628 -5.16392 5.05303
267 1 -1.1104 9.3189 7.54161 6.65398
377 2 2.2208 10.7806 3.35291 13.6392
27 1 -1.1104 12.2059 18.8671 9.42745
55 2 2.2208 5.26682 11.5659 5.28606
61 1 -1.1104 0.991904 10.2871 0.80883
66 2 2.2208 5.36695 8.85536 2.2284
68 1 -1.1104 0.7759 10.3615 3.65131
73 2 2.2208 2.48488 11.6108 2.34531
75 2 2.2208 2.40823 8.63002 5.14792
77 1 -1.1104 4.08715 10.3168 1.0029
80 1 -1.1104 3.88151 10.0858 3.77213
107 1 -1.1104 0.949153 12.8413 1.03318
113 1 -1.1104 0.91214 13.1164 3.79947
123 1 -1.1104 3.9138 13.2525 1.01381
128 1 -1.1104 3.65636 13.2375 3.64984
124 1 -1.1104 3.85677 13.0824 6.51049
78 1 -1.1104 3.92567 10.4177 6.5598
62 1 -1.1104 0.977796 10.2312 6.33757
108 1 -1.1104 0.931224 13.0641 6.81206
110 1 -1.1104 6.68106 12.8607 1.01288
70 1 -1.1104 6.80432 10.2709 3.54498
503 2 2.2208 8.15335 17.5108 13.3899
26 1 -1.1104 9.64158 16.0487 9.42126
115 1 -1.1104 6.72524 12.8325 3.79306
64 1 -1.1104 6.76118 10.3761 0.792964
85 2 2.2208 11.0592 11.7848 5.29953
89 1 -1.1104 12.3094 10.1805 0.932014
91 2 2.2208 10.8904 8.72984 2.51309
93 1 -1.1104 12.1464 10.2326 3.66191
96 2 2.2208 8.10647 11.6315 2.37593
98 2 2.2208 8.00739 8.82639 4.96558
100 1 -1.1104 9.45684 10.336 0.97649
103 1 -1.1104 9.39476 10.1721 3.71422
142 1 -1.1104 12.1255 13.0058 0.949195
146 1 -1.1104 12.4057 13.1248 3.84928
153 1 -1.1104 9.45232 13.0536 1.02126
158 1 -1.1104 9.54402 13.1011 4.02495
143 1 -1.1104 12.3543 13.0341 6.44604
154 1 -1.1104 9.50324 13.0671 6.72048
65 1 -1.1104 6.62466 10.2433 6.47593
119 2 2.2208 5.25218 14.5316 2.35379
130 2 2.2208 2.4648 14.3972 5.18345
106 2 2.2208 5.4359 17.2565 5.14116
109 1 -1.1104 1.18484 18.6809 1.16337
114 1 -1.1104 0.892757 18.8214 3.94321
116 1 -1.1104 1.22051 15.9287 0.7737
120 2 2.2208 5.2457 20.1391 2.41158
121 1 -1.1104 1.06136 15.9876 3.73591
125 1 -1.1104 3.90189 18.8033 1.0884
127 2 2.2208 2.51574 17.3166 2.34008
129 1 -1.1104 3.88657 18.6008 4.02729
131 2 2.2208 2.34655 19.9618 5.09261
132 1 -1.1104 3.9396 15.8853 0.972574
134 1 -1.1104 4.06882 15.9148 3.66908
140 1 -1.1104 6.70557 15.766 1.06867
126 1 -1.1104 3.77709 18.5875 6.65056
138 1 -1.1104 6.65281 18.7486 1.16021
139 1 -1.1104 6.59685 18.84 3.73338
133 1 -1.1104 3.69644 15.9129 6.59249
165 1 -1.1104 0.964782 18.5997 6.69403
117 1 -1.1104 0.978897 15.8332 6.58866
8951 2 2.2208 -0.454838 8.82385 2.30432
8881 2 2.2208 -0.448492 6.1788 10.8993
232 1 -1.1104 12.4158 18.8757 12.0704
122 1 -1.1104 6.58668 15.7191 3.8342
160 2 2.2208 8.07317 14.4704 5.22027
150 2 2.2208 10.8929 14.3649 2.37974
141 2 2.2208 10.877 17.3322 5.20801
144 1 -1.1104 12.4838 18.5485 0.92514
147 1 -1.1104 12.4494 18.5939 3.68794
148 1 -1.1104 12.28 15.843 1.23911
151 2 2.2208 11.0169 20.1575 2.30722
152 1 -1.1104 12.1607 15.8266 3.99668
155 1 -1.1104 9.62261 18.8015 0.937139
157 2 2.2208 8.14477 17.3297 2.17174
159 1 -1.1104 9.48766 18.6264 3.76444
161 2 2.2208 8.02646 19.8635 5.09865
162 1 -1.1104 9.37479 15.9702 0.976003
164 1 -1.1104 9.30955 15.9852 3.92604
163 1 -1.1104 9.3886 15.9322 6.57902
145 1 -1.1104 12.4432 18.7549 6.7775
112 1 -1.1104 6.6452 18.6536 6.40887
149 1 -1.1104 12.1697 15.8305 6.55368
156 1 -1.1104 9.42301 18.6159 6.72163
166 1 -1.1104 0.94623 -3.6754 6.57874
50 2 2.2208 13.5383 -2.32023 5.12523
502 2 2.2208 10.9513 14.4349 13.7548
529 2 2.2208 5.18341 0.278221 -0.368141
175 2 2.2208 5.35533 0.34838 10.9125
176 1 -1.1104 0.87295 -3.89617 12.2396
180 1 -1.1104 1.02554 -4.07462 9.31639
184 1 -1.1104 1.10535 -0.917608 12.2307
186 2 2.2208 5.14359 -2.36239 7.99572
188 1 -1.1104 1.39563 -1.09387 9.32282
190 1 -1.1104 3.66029 -3.49119 12.188
192 2 2.2208 2.37501 0.416044 8.0667
193 1 -1.1104 3.79059 -3.73706 9.44793
195 2 2.2208 2.38824 -2.41664 10.7592
197 1 -1.1104 4.13224 -0.876781 12.618
198 1 -1.1104 4.10704 -1.14182 9.74665
560 2 2.2208 8.09079 -2.41253 -0.435792
28 1 -1.1104 12.1021 16.1547 12.048
8949 2 2.2208 -0.369174 0.720279 5.1525
8940 2 2.2208 13.5473 3.20554 10.7513
189 1 -1.1104 6.70808 -0.878784 9.51347
182 1 -1.1104 6.56879 -3.76569 9.48032
178 1 -1.1104 6.55392 -3.58833 12.2556
185 1 -1.1104 6.94587 -0.840095 12.2046
211 2 2.2208 10.7929 0.671784 10.8615
212 1 -1.1104 12.2085 -3.73723 12.3259
214 1 -1.1104 12.1721 -3.78146 9.54585
216 1 -1.1104 12.3883 -1.07162 12.5323
217 2 2.2208 10.8469 -2.10588 8.23556
219 1 -1.1104 12.3986 -0.944346 9.71681
220 1 -1.1104 9.40573 -3.5644 12.2851
222 2 2.2208 8.0572 0.449481 7.92326
223 1 -1.1104 9.43645 -3.61182 9.56217
225 2 2.2208 8.22806 -2.154 10.962
227 1 -1.1104 9.53438 -0.77338 12.3448
228 1 -1.1104 9.59017 -0.76599 9.46552
8941 2 2.2208 -0.410514 6.05823 5.41266
439 2 2.2208 10.889 8.89357 13.5862
167 1 -1.1104 0.98725 1.81804 6.5206
234 1 -1.1104 0.893589 7.37257 6.69735
236 1 -1.1104 1.08347 4.59841 6.56594
8950 2 2.2208 13.5165 0.442394 2.40532
177 1 -1.1104 0.73392 2.05404 12.2514
181 1 -1.1104 0.917618 1.71544 9.53411
187 2 2.2208 5.37096 3.23492 7.81579
191 1 -1.1104 3.75335 1.79693 12.2096
194 1 -1.1104 3.85823 1.5658 9.35665
196 2 2.2208 2.29101 2.93713 10.8542
240 2 2.2208 5.30746 5.88836 11.0284
246 1 -1.1104 1.05506 4.6523 12.2364
251 1 -1.1104 0.825497 4.41621 9.55028
256 2 2.2208 2.39426 5.73733 8.43007
260 1 -1.1104 3.88345 4.46417 12.2224
262 1 -1.1104 3.82509 4.49969 9.58719
244 1 -1.1104 1.09779 7.32883 9.55042
242 1 -1.1104 0.920434 7.43304 12.336
255 1 -1.1104 3.96734 7.30241 12.4324
258 1 -1.1104 3.85988 7.36648 9.67372
179 1 -1.1104 6.61512 1.89342 12.1297
243 1 -1.1104 6.56606 7.35348 12.3333
248 1 -1.1104 6.65502 4.50052 12.4034
8079 2 2.2208 8.04101 -4.99582 8.11551
476 2 2.2208 5.0826 14.6482 13.5312
235 1 -1.1104 6.49459 7.47703 6.52189
206 1 -1.1104 12.2605 2.0146 6.62134
265 1 -1.1104 12.1149 7.30489 6.58907
537 2 2.2208 5.10747 17.3389 -0.349688
253 1 -1.1104 6.58854 4.61685 9.53401
183 1 -1.1104 6.63776 1.69051 9.32503
245 1 -1.1104 6.75649 7.70774 9.30613
213 1 -1.1104 12.2101 1.8171 12.0163
215 1 -1.1104 12.3144 1.88742 9.33699
218 2 2.2208 10.6777 3.32853 7.97946
221 1 -1.1104 9.28854 1.86323 12.1972
224 1 -1.1104 9.50397 1.87623 9.34341
226 2 2.2208 8.01983 3.24259 10.825
268 1 -1.1104 9.35921 4.70637 9.34827
271 1 -1.1104 9.59588 4.73841 12.223
275 2 2.2208 7.86228 6.09025 7.87227
276 2 2.2208 10.9001 6.2247 10.6834
278 1 -1.1104 12.3251 7.43932 12.1423
279 1 -1.1104 12.1154 7.59967 9.206
280 1 -1.1104 12.1905 4.57612 12.0732
283 1 -1.1104 12.1098 4.80962 9.29116
285 1 -1.1104 9.36278 7.62237 12.0889
273 1 -1.1104 9.26017 7.55493 9.43714
105 1 -1.1104 9.60951 18.9284 12.1193
594 2 2.2208 5.30659 5.89583 -0.294345
111 1 -1.1104 6.65387 13.0185 6.90795
8942 2 2.2208 13.6068 6.01855 2.21361
241 2 2.2208 5.13326 11.7877 10.8583
247 1 -1.1104 1.10671 10.3053 11.9837
250 2 2.2208 5.14795 8.83587 8.08581
252 1 -1.1104 1.06012 10.3931 9.08366
257 2 2.2208 2.44181 11.7212 8.01335
259 2 2.2208 2.43958 8.88494 10.9023
261 1 -1.1104 3.91757 10.1617 12.3778
263 1 -1.1104 3.76325 10.1918 9.48487
135 1 -1.1104 3.8774 13.1247 9.40277
287 1 -1.1104 3.68999 13.2528 12.2114
294 1 -1.1104 1.09291 13.0818 9.53521
299 1 -1.1104 0.824208 13.0494 12.3005
475 2 2.2208 5.30586 20.1445 13.6644
290 1 -1.1104 6.744 13.2047 9.50198
249 1 -1.1104 6.44595 10.3152 12.1292
9176 2 2.2208 -0.395799 14.4679 13.3937
101 1 -1.1104 9.49542 10.2448 6.52665
90 1 -1.1104 12.3446 9.98565 6.54952
297 1 -1.1104 6.62534 13.0694 12.2417
254 1 -1.1104 6.35143 10.3798 9.30085
264 1 -1.1104 9.34565 10.4261 9.56054
270 1 -1.1104 9.21738 10.2943 12.3356
272 2 2.2208 8.00042 9.03781 10.8677
274 2 2.2208 8.05488 11.5152 7.96405
277 2 2.2208 10.7391 11.723 10.9901
281 1 -1.1104 12.3229 10.2124 12.1837
282 2 2.2208 10.78 8.80628 8.06584
284 1 -1.1104 12.1629 10.2098 9.47909
81 1 -1.1104 9.26217 12.8744 12.5004
201 1 -1.1104 9.44285 13.1205 9.37507
231 1 -1.1104 12.2914 13.1945 12.3251
233 1 -1.1104 12.2718 13.0958 9.35869
8943 2 2.2208 -0.395151 3.11444 8.2245
8959 2 2.2208 -0.35927 20.0239 2.3547
536 2 2.2208 10.9319 17.2188 -0.256297
8958 2 2.2208 -0.393366 14.5645 2.41452
8960 2 2.2208 -0.603746 17.3514 5.01126
295 2 2.2208 5.2201 14.3468 8.02327
301 1 -1.1104 3.87192 18.7577 9.47987
292 1 -1.1104 0.909546 15.8159 9.53282
300 2 2.2208 5.2753 17.5286 10.7151
298 1 -1.1104 1.19043 18.976 12.3505
293 2 2.2208 5.06278 19.9673 7.91337
291 1 -1.1104 0.966494 18.6312 9.42171
83 2 2.2208 2.26912 14.5663 10.8351
52 1 -1.1104 1.00363 16.1628 12.3872
104 2 2.2208 2.33008 20.1998 10.9386
136 1 -1.1104 3.9259 15.8711 9.58799
137 2 2.2208 2.41738 17.3106 7.96093
229 1 -1.1104 3.80148 16.176 12.2006
286 1 -1.1104 4.03257 18.9421 12.2038
53 1 -1.1104 6.50257 16.0726 12.026
501 2 2.2208 10.9158 20.4933 13.5974
438 2 2.2208 8.18463 6.23727 13.7264
49 1 -1.1104 9.42534 16.0181 12.1277
118 1 -1.1104 6.37071 15.7736 6.66818
204 2 2.2208 10.8496 17.4168 10.6484
288 1 -1.1104 6.65247 18.766 9.40085
199 2 2.2208 8.08399 17.2784 8.04043
202 1 -1.1104 9.40294 18.7605 9.33986
203 2 2.2208 7.84957 14.6229 10.8744
82 2 2.2208 8.27141 20.411 10.7923
51 1 -1.1104 12.4822 16.1165 9.45053
30 2 2.2208 10.7701 20.124 8.05511
29 2 2.2208 10.7944 14.4299 8.06015
289 1 -1.1104 6.60739 16.0041 9.24325
296 1 -1.1104 6.81489 18.8601 12.155
9177 2 2.2208 -0.339743 20.1558 13.6535
8652 2 2.2208 13.6438 14.5819 10.7526
8945 2 2.2208 13.6978 8.87976 5.02504
8953 2 2.2208 -0.239574 20.0597 8.05857
8954 2 2.2208 13.6134 11.5464 2.42979
8284 2 2.2208 5.25679 -5.25669 -0.455763
9061 2 2.2208 13.6733 5.95162 13.5266
8955 2 2.2208 13.6255 0.399897 8.0795
8938 2 2.2208 13.5189 11.5704 8.00564
411 2 2.2208 2.32795 6.02613 13.5178
302 2 2.2208 5.20992 0.447618 16.6325
303 1 -1.1104 0.697213 -4.14476 17.9787
307 1 -1.1104 0.90608 -3.86816 15.2127
315 1 -1.1104 1.08859 -0.938981 17.8542
317 2 2.2208 5.31513 -2.50974 19.5493
319 1 -1.1104 1.09588 -1.02868 15.0671
323 1 -1.1104 3.69289 -3.89567 17.8684
325 2 2.2208 2.33208 0.423027 19.4544
326 1 -1.1104 3.76338 -3.93596 15.0123
330 2 2.2208 2.33499 -2.40471 16.5117
332 1 -1.1104 3.82825 -1.1191 17.9313
333 1 -1.1104 3.57169 -1.22204 15.1884
308 1 -1.1104 0.92509 -3.7804 20.6966
334 1 -1.1104 3.78795 -1.05027 20.6763
9336 2 2.2208 -0.39526 11.6392 27.7287
327 1 -1.1104 3.79657 -3.71741 20.6663
9317 2 2.2208 -0.438234 0.356402 16.5473
316 1 -1.1104 6.70267 -1.02923 18.0484
321 1 -1.1104 6.53337 -0.998195 15.1005
305 1 -1.1104 6.68133 -3.99198 17.984
311 1 -1.1104 6.62944 -3.90523 15.1728
345 2 2.2208 10.6182 0.626085 16.2809
346 1 -1.1104 12.277 -3.76491 17.8427
348 1 -1.1104 12.2194 -3.88155 15.0504
352 1 -1.1104 12.4641 -1.00092 18.0358
353 2 2.2208 10.9357 -2.24533 19.3132
355 1 -1.1104 12.1679 -0.930375 15.3988
357 1 -1.1104 9.45972 -3.79542 18.098
359 2 2.2208 8.20617 0.365077 19.3079
360 1 -1.1104 9.57871 -3.64886 15.0396
364 2 2.2208 8.06591 -2.36366 16.5328
366 1 -1.1104 9.68932 -0.991752 17.7434
367 1 -1.1104 9.30241 -0.878683 14.998
349 1 -1.1104 12.6261 -3.89377 20.7858
356 1 -1.1104 12.5417 -1.03884 20.8136
368 1 -1.1104 9.69318 -0.882305 20.5742
361 1 -1.1104 9.75879 -3.66633 20.8276
322 1 -1.1104 6.84948 -1.23177 20.7982
9337 2 2.2208 -0.394347 20.2511 24.8838
8986 2 2.2208 13.6419 17.6077 13.805
304 1 -1.1104 1.15966 1.91086 18.0789
309 1 -1.1104 1.06457 1.7313 15.117
318 2 2.2208 5.20061 3.55893 19.4194
324 1 -1.1104 4.01716 1.825 17.9076
328 1 -1.1104 4.02539 1.70397 15.197
331 2 2.2208 2.49102 3.31847 16.7426
378 2 2.2208 4.98118 6.20357 16.4798
386 1 -1.1104 0.980925 4.79265 18.2201
391 1 -1.1104 1.05928 4.68075 15.1172
400 2 2.2208 2.4166 6.06898 19.4181
402 1 -1.1104 3.61268 7.55004 15.1553
405 1 -1.1104 3.77789 4.82817 18.0654
407 1 -1.1104 3.86194 4.6397 15.2426
399 1 -1.1104 3.94426 7.47646 18.0214
380 1 -1.1104 1.03805 7.54898 17.9586
383 1 -1.1104 0.8177 7.39799 20.7333
329 1 -1.1104 3.86375 1.85716 20.6263
403 1 -1.1104 3.77125 7.43159 20.7707
384 1 -1.1104 6.50389 7.37142 15.0415
310 1 -1.1104 0.930279 1.92241 20.7355
382 1 -1.1104 1.12914 7.58947 14.9876
408 1 -1.1104 3.84031 4.60737 20.8557
9104 2 2.2208 -0.438152 6.08185 16.467
8567 2 2.2208 5.22865 -5.12274 16.4545
9063 2 2.2208 13.6228 6.01615 19.2962
9318 2 2.2208 -0.405596 3.36998 13.7517
385 1 -1.1104 6.43619 7.3081 20.5015
381 1 -1.1104 6.77651 7.56698 17.6643
313 1 -1.1104 6.59873 1.8863 14.9512
388 1 -1.1104 6.51754 4.76546 17.9296
395 1 -1.1104 6.63037 4.7462 15.1374
306 1 -1.1104 6.86093 1.89512 17.7443
347 1 -1.1104 12.3848 1.89579 17.7579
350 1 -1.1104 12.2133 2.08638 14.9054
354 2 2.2208 10.9679 3.29715 19.3597
358 1 -1.1104 9.43286 1.78541 17.9897
362 1 -1.1104 9.40219 2.03656 14.9753
365 2 2.2208 7.92977 3.2739 16.2784
414 2 2.2208 10.9343 6.2374 16.2527
416 1 -1.1104 12.2987 7.4473 17.8257
419 1 -1.1104 12.0252 4.73605 17.6962
422 1 -1.1104 12.2205 4.80312 14.863
427 2 2.2208 8.11026 6.05402 19.1757
432 1 -1.1104 9.39948 4.72559 17.8054
434 1 -1.1104 9.42618 4.88279 15.1317
429 1 -1.1104 9.47893 7.67479 14.8927
426 1 -1.1104 9.50959 7.65159 17.7017
417 1 -1.1104 12.3188 7.52692 15.0283
423 1 -1.1104 12.4753 4.47756 20.5595
351 1 -1.1104 12.2081 1.63093 20.8207
314 1 -1.1104 6.87177 1.62959 20.6258
396 1 -1.1104 6.84591 4.58446 20.7154
435 1 -1.1104 9.33801 4.63656 20.794
363 1 -1.1104 9.76971 1.95667 20.8462
9107 2 2.2208 -0.261514 9.04244 13.6997
379 2 2.2208 5.07997 11.6409 16.6337
387 1 -1.1104 1.01114 10.2813 18.0638
390 2 2.2208 5.28318 8.84775 19.3274
393 1 -1.1104 1.0256 10.3886 14.9034
401 2 2.2208 2.10032 11.7532 19.4656
404 2 2.2208 2.38536 8.90568 16.5859
406 1 -1.1104 3.66788 10.2138 17.9207
409 1 -1.1104 3.78949 10.3963 15.0922
442 1 -1.1104 0.969089 13.1356 17.9667
446 1 -1.1104 1.11582 13.1268 14.9707
462 1 -1.1104 3.75466 13.1387 18.0286
465 1 -1.1104 3.97494 13.2224 15.0375
447 1 -1.1104 0.958185 13.2649 20.6789
410 1 -1.1104 3.64243 10.2964 20.6364
444 1 -1.1104 6.42988 13.2176 17.7198
450 1 -1.1104 6.68804 13.0418 15.0204
394 1 -1.1104 0.792045 10.2476 20.9829
466 1 -1.1104 3.65398 12.9773 20.908
599 1 -1.1104 9.58128 15.876 26.4637
596 2 2.2208 5.25805 11.7588 27.7231
9174 2 2.2208 -0.514941 14.4932 19.3947
389 1 -1.1104 6.41608 10.3981 18.0172
451 1 -1.1104 6.55723 13.2219 20.5925
397 1 -1.1104 6.65604 10.3025 15.1558
415 2 2.2208 10.808 11.6385 16.3924
420 1 -1.1104 12.0901 10.4735 17.898
421 2 2.2208 10.8916 8.81924 19.1292
424 1 -1.1104 12.3889 10.2907 14.9904
428 2 2.2208 7.9829 11.7139 19.4643
431 2 2.2208 8.04468 8.97174 16.3139
433 1 -1.1104 9.2831 10.3034 17.7993
436 1 -1.1104 9.55288 10.4784 15.0073
478 1 -1.1104 12.2169 13.0466 17.8514
480 1 -1.1104 12.4208 13.1227 14.8752
489 1 -1.1104 9.35955 13.0983 18.1886
492 1 -1.1104 9.72792 13.3325 15.4949
398 1 -1.1104 6.46747 10.3597 20.9042
437 1 -1.1104 9.41366 10.1585 20.5443
481 1 -1.1104 12.2878 13.1871 20.8278
493 1 -1.1104 9.37698 13.0686 20.9288
425 1 -1.1104 12.3275 10.3593 20.582
562 2 2.2208 7.85654 20.1322 27.74
337 2 2.2208 11.0278 14.4323 25.131
336 1 -1.1104 12.2469 15.8788 23.6761
456 2 2.2208 5.05487 14.4526 19.2377
469 2 2.2208 2.39925 14.5673 16.3727
441 2 2.2208 5.15064 17.3036 16.262
443 1 -1.1104 0.820998 18.7964 17.9062
448 1 -1.1104 0.830457 18.6681 15.149
454 1 -1.1104 0.812507 16.0532 17.9723
457 2 2.2208 5.18782 19.9972 19.3731
458 1 -1.1104 0.835203 16.0986 15.0036
463 1 -1.1104 3.89774 18.6732 17.786
464 2 2.2208 2.24616 17.5221 19.07
467 1 -1.1104 3.70409 18.5885 15.0887
470 2 2.2208 2.37599 20.2315 16.348
471 1 -1.1104 3.65945 16.2196 17.8272
472 1 -1.1104 3.82131 15.8348 15.0415
449 1 -1.1104 0.815124 18.8461 20.9184
445 1 -1.1104 6.74022 18.6114 17.6415
460 1 -1.1104 6.70053 15.7793 14.7862
468 1 -1.1104 3.69489 18.5389 20.5465
473 1 -1.1104 3.60158 15.7641 20.6029
459 1 -1.1104 0.743146 16.069 20.7193
565 1 -1.1104 12.1766 18.7829 23.7097
9315 2 2.2208 13.6819 8.88898 22.1835
485 2 2.2208 11.0519 14.5928 19.2296
452 1 -1.1104 6.5398 18.6468 15.0068
455 1 -1.1104 6.38745 15.9542 17.8692
461 1 -1.1104 6.82847 15.958 20.7537
496 2 2.2208 8.04517 14.5865 16.5363
477 2 2.2208 10.9134 17.2096 16.4013
479 1 -1.1104 12.149 18.475 18.1749
482 1 -1.1104 12.0427 18.878 15.2471
484 1 -1.1104 12.3596 15.9298 17.7988
486 2 2.2208 10.8452 20.0547 19.2154
487 1 -1.1104 12.3832 16.0019 14.8624
490 1 -1.1104 9.48924 18.7221 17.9156
491 2 2.2208 7.97556 17.5407 19.3142
494 1 -1.1104 9.23423 18.779 14.8797
497 2 2.2208 8.01326 20.1513 16.2217
498 1 -1.1104 9.38494 15.9022 17.8774
499 1 -1.1104 9.50744 15.9781 14.9746
495 1 -1.1104 9.40673 18.606 20.8494
483 1 -1.1104 12.158 18.5872 20.8992
488 1 -1.1104 12.4424 15.783 20.9624
539 1 -1.1104 9.21822 18.8908 26.4339
474 2 2.2208 2.39544 17.3704 13.7283
320 1 -1.1104 1.02128 -1.02099 20.7123
559 2 2.2208 10.8054 0.479245 27.7012
342 2 2.2208 5.23842 -2.41721 13.8165
312 1 -1.1104 6.67051 -3.99096 20.8771
563 2 2.2208 10.762 17.2944 22.2372
505 2 2.2208 5.2751 0.276991 22.1155
506 1 -1.1104 0.926931 -3.74582 23.6235
510 1 -1.1104 0.95841 -3.7773 26.3904
514 1 -1.1104 0.919124 -0.848837 23.4972
516 2 2.2208 5.36331 -2.53664 24.989
518 1 -1.1104 1.05275 -1.00981 26.4724
520 1 -1.1104 3.72511 -3.89754 23.3934
522 2 2.2208 2.42822 0.207362 24.9027
523 1 -1.1104 4.03548 -3.88045 26.4307
525 2 2.2208 2.1767 -2.44607 22.0698
527 1 -1.1104 3.81429 -1.11106 23.4927
528 1 -1.1104 3.85492 -1.12643 26.5047
508 1 -1.1104 6.55144 -3.84291 23.647
530 2 2.2208 2.40998 -2.43773 27.7639
540 2 2.2208 8.11756 14.5707 22.0837
375 2 2.2208 7.988 0.447448 13.7663
440 2 2.2208 7.67965 11.6453 13.6715
512 1 -1.1104 6.70852 -3.76571 26.3563
519 1 -1.1104 6.64876 -1.03994 26.3652
370 1 -1.1104 9.44178 18.7759 23.7533
335 1 -1.1104 12.2288 18.5805 26.5258
515 1 -1.1104 6.88979 -1.04355 23.3501
541 2 2.2208 10.9623 0.447193 22.2855
542 1 -1.1104 12.2211 -3.85692 23.6069
544 1 -1.1104 12.312 -3.70397 26.4147
546 1 -1.1104 12.2847 -1.02323 23.7964
547 2 2.2208 10.8501 -2.48345 24.9378
549 1 -1.1104 12.2955 -0.919838 26.6572
550 1 -1.1104 9.46076 -4.05756 23.3399
552 2 2.2208 8.05388 0.427815 24.8832
553 1 -1.1104 9.40103 -3.76902 26.4583
555 2 2.2208 8.14836 -2.55783 22.0616
557 1 -1.1104 9.59053 -1.06971 23.5058
558 1 -1.1104 9.50008 -0.838873 26.2119
338 2 2.2208 10.8021 20.224 24.9965
500 1 -1.1104 9.78039 15.8505 20.7462
341 1 -1.1104 12.4118 15.7745 26.4924
8392 2 2.2208 7.98898 -5.0529 13.7701
392 1 -1.1104 0.722659 4.60877 21.1003
598 1 -1.1104 9.39939 15.9312 23.4808
507 1 -1.1104 0.929528 1.80173 23.42
511 1 -1.1104 0.897854 1.64217 26.2647
517 2 2.2208 5.18154 3.31653 24.9285
521 1 -1.1104 3.93858 1.78147 23.4937
524 1 -1.1104 3.80464 1.48345 26.2494
526 2 2.2208 2.25644 3.0916 22.2762
570 2 2.2208 5.31388 6.12237 22.0336
572 1 -1.1104 0.946799 7.55112 23.3991
574 1 -1.1104 0.958154 7.41292 26.3498
576 1 -1.1104 0.800888 4.81054 23.7313
581 1 -1.1104 1.01901 4.58273 26.4652
586 2 2.2208 2.33085 5.91527 25.1076
590 1 -1.1104 3.79976 4.75495 23.4646
592 1 -1.1104 3.87773 4.28986 26.5228
588 1 -1.1104 4.02883 7.16684 26.3631
585 1 -1.1104 3.92262 7.45641 23.716
513 1 -1.1104 6.63269 1.82116 26.4196
583 1 -1.1104 6.72017 4.80378 26.55
575 1 -1.1104 6.70308 7.5164 26.3269
430 1 -1.1104 9.47382 7.45514 20.6298
418 1 -1.1104 12.2928 7.42972 20.5725
509 1 -1.1104 6.67963 1.90468 23.6151
578 1 -1.1104 6.66417 4.68054 23.5423
573 1 -1.1104 6.62773 7.56144 23.3899
543 1 -1.1104 12.4492 1.90032 23.6871
545 1 -1.1104 12.2363 2.00735 26.4683
548 2 2.2208 10.7721 3.27906 25.0058
551 1 -1.1104 9.2917 1.6641 23.5016
554 1 -1.1104 9.27719 1.84684 26.3084
556 2 2.2208 8.11756 3.27059 22.1877
602 1 -1.1104 9.57276 4.56357 26.2832
604 1 -1.1104 9.35408 4.52781 23.6694
606 1 -1.1104 9.52253 7.32927 26.4124
608 2 2.2208 8.01291 6.07652 25.0124
609 2 2.2208 10.7535 5.92459 22.1155
611 1 -1.1104 12.2 7.38557 23.4467
613 1 -1.1104 12.1036 4.60987 23.5752
616 1 -1.1104 12.2059 4.72269 26.3839
618 1 -1.1104 9.4506 7.45526 23.2849
612 1 -1.1104 12.2459 7.46695 26.21
9342 2 2.2208 -0.409552 17.2551 27.8074
9335 2 2.2208 13.5109 0.36734 24.9215
571 2 2.2208 5.16309 11.6895 22.0855
577 1 -1.1104 1.1636 10.6258 23.6909
580 2 2.2208 5.09382 8.85405 25.0839
582 1 -1.1104 1.19756 10.1267 26.0936
587 2 2.2208 2.49617 11.8427 24.9202
589 2 2.2208 2.47761 8.8926 22.3061
591 1 -1.1104 3.85893 10.3627 23.5615
593 1 -1.1104 3.76302 10.3365 26.4261
533 1 -1.1104 3.99597 13.134 26.3872
627 1 -1.1104 3.79397 13.0714 23.3583
631 1 -1.1104 1.08574 13.0776 26.3674
637 1 -1.1104 1.10443 13.23 23.6502
579 1 -1.1104 6.6106 10.2892 23.4865
9323 2 2.2208 13.6101 20.3076 22.0836
340 2 2.2208 -0.301994 -2.4506 13.5997
568 2 2.2208 2.35157 20.0555 27.774
9339 2 2.2208 -0.191365 14.5542 24.8257
626 1 -1.1104 6.86869 13.1626 26.5017
584 1 -1.1104 6.46108 10.484 26.2432
635 1 -1.1104 6.62912 13.0501 23.5368
564 1 -1.1104 12.1614 12.8566 23.6666
601 1 -1.1104 9.54338 10.319 26.2873
603 1 -1.1104 9.33559 10.2993 23.596
605 2 2.2208 8.077 9.03351 22.1485
607 2 2.2208 7.94452 11.7176 25.0246
610 2 2.2208 10.8355 11.7763 22.1464
614 1 -1.1104 12.1337 10.2906 23.4223
615 2 2.2208 10.8107 8.90578 24.8658
617 1 -1.1104 12.4441 10.4009 26.3169
369 1 -1.1104 9.41198 13.0543 23.716
372 1 -1.1104 12.648 13.0356 26.343
534 1 -1.1104 9.79949 13.1447 26.5908
343 2 2.2208 2.48236 0.501463 13.6706
9321 2 2.2208 13.5856 0.41292 13.7407
531 2 2.2208 2.21153 3.12798 27.8011
453 1 -1.1104 6.61316 18.6782 20.7605
8629 2 2.2208 7.96412 -5.2248 24.972
371 2 2.2208 7.97466 17.3156 25.1071
569 2 2.2208 8.20018 20.0327 22.2946
628 1 -1.1104 6.45748 15.8836 26.4884
532 1 -1.1104 6.82967 15.8125 23.7926
632 1 -1.1104 6.58282 18.7042 23.5875
629 1 -1.1104 0.882778 18.7486 26.6726
625 1 -1.1104 3.90892 18.6477 23.3384
624 1 -1.1104 0.991699 16.1026 23.376
623 1 -1.1104 3.92429 15.8561 23.278
634 2 2.2208 5.34093 14.479 24.8637
640 2 2.2208 2.38536 17.3829 24.9278
639 1 -1.1104 3.66934 18.6695 26.3804
638 2 2.2208 5.29183 17.1841 22.0017
636 1 -1.1104 1.14372 18.8303 23.7651
633 2 2.2208 5.12981 19.9742 24.8189
630 1 -1.1104 1.04419 15.9404 26.187
597 2 2.2208 2.27856 14.6166 22.12
600 2 2.2208 2.2959 20.1765 22.101
622 1 -1.1104 3.71587 15.9473 26.2851
504 1 -1.1104 6.25049 18.6059 26.5645
8355 2 2.2208 13.5231 -5.20862 13.7865
376 2 2.2208 11.0699 -2.28822 13.8083
8541 2 2.2208 2.37381 -5.10182 13.6975
9327 2 2.2208 -0.360329 9.0297 24.9067
9134 2 2.2208 13.5996 17.2781 19.5434
619 2 2.2208 10.9328 6.04128 27.8649
620 2 2.2208 7.95257 8.83956 27.7822
9319 2 2.2208 -0.311831 3.2612 19.388
9333 2 2.2208 13.4794 17.4162 25.1
9135 2 2.2208 13.674 20.311 16.5705
9332 2 2.2208 13.3888 5.9615 24.8508
9328 2 2.2208 -0.409651 11.6882 22.1682
9103 2 2.2208 -0.389839 8.78251 19.2862
8539 2 2.2208 10.8914 -5.09988 16.5742
344 2 2.2208 5.07655 3.05999 13.7263
374 2 2.2208 2.56066 14.5926 27.7573
595 2 2.2208 2.51311 8.86615 27.6853
641 2 2.2208 5.19227 22.864 4.89491
643 1 -1.1104 1.09742 24.4349 0.835781
644 1 -1.1104 1.02339 24.2713 3.61871
645 1 -1.1104 0.910236 21.4824 1.05367
647 2 2.2208 5.23326 25.755 2.20707
648 1 -1.1104 1.00818 21.4476 3.63265
650 1 -1.1104 3.74833 24.079 0.725325
651 2 2.2208 2.37298 22.8776 2.35021
653 1 -1.1104 3.86725 24.2296 3.65165
654 2 2.2208 2.63444 25.8575 5.0979
655 1 -1.1104 3.86456 21.3878 0.586955
657 1 -1.1104 3.8116 21.5155 3.66283
649 1 -1.1104 1.01023 27.2613 3.57716
656 1 -1.1104 3.73697 27.1087 0.652544
658 1 -1.1104 3.85028 27.0674 3.65687
646 1 -1.1104 0.82007 27.3874 0.63929
782 1 -1.1104 1.19284 24.3736 6.5977
788 1 -1.1104 4.06393 24.3224 6.40793
664 1 -1.1104 6.72588 21.8874 0.807969
663 1 -1.1104 6.79879 24.3202 3.66268
1270 1 -1.1104 0.859293 47.2023 0.87663
785 1 -1.1104 1.05648 27.143 6.42709
1473 1 -1.1104 1.25488 46.8508 9.21105
9650 2 2.2208 -0.497362 31.3053 7.9036
662 1 -1.1104 6.55537 24.6626 0.734257
666 1 -1.1104 6.54978 21.4717 3.49187
667 1 -1.1104 6.56789 27.0001 3.54201
668 2 2.2208 10.9311 22.8556 5.08096
670 1 -1.1104 12.5571 24.3804 1.02806
671 1 -1.1104 12.5841 23.9705 4.01023
672 1 -1.1104 12.4739 21.5157 0.745823
674 2 2.2208 11.0091 25.6648 2.25419
675 1 -1.1104 12.2655 21.2915 3.63938
677 1 -1.1104 9.71915 24.1487 0.953475
678 2 2.2208 8.15003 23.0184 2.37118
680 1 -1.1104 9.70162 24.2986 3.62306
681 2 2.2208 8.11763 25.7165 4.99984
682 1 -1.1104 9.62072 21.5369 0.887888
684 1 -1.1104 9.39878 21.4448 3.6946
685 1 -1.1104 9.54247 27.0765 3.57495
819 1 -1.1104 9.28639 21.5493 6.41263
673 1 -1.1104 12.3673 27.1543 1.03529
818 1 -1.1104 9.38119 24.3508 6.4683
787 1 -1.1104 6.87767 27.3926 6.41754
783 1 -1.1104 6.8608 24.5812 6.30553
820 1 -1.1104 9.54654 27.1943 6.40463
815 1 -1.1104 12.1139 24.2489 6.50725
816 1 -1.1104 12.1137 21.3804 6.56819
786 1 -1.1104 6.50223 21.4212 6.48283
817 1 -1.1104 12.3758 27.0249 6.63041
1032 2 2.2208 2.45133 34.3138 13.4538
642 2 2.2208 5.42031 28.5992 5.18437
652 2 2.2208 2.62071 28.5474 2.14444
690 1 -1.1104 0.805758 30.1746 0.65627
693 1 -1.1104 1.11811 30.0183 3.69589
696 1 -1.1104 0.998739 32.7847 0.826321
697 2 2.2208 5.11918 31.4897 2.16776
699 1 -1.1104 0.93299 32.9251 3.54183
701 1 -1.1104 3.79659 29.8776 0.906074
704 1 -1.1104 3.74499 30.0314 3.61396
706 2 2.2208 2.333 31.4281 5.24951
708 1 -1.1104 3.70815 32.6296 0.782974
709 1 -1.1104 3.665 32.8757 3.77135
841 1 -1.1104 3.77355 29.9716 6.60796
835 1 -1.1104 1.06061 29.8765 6.58211
843 1 -1.1104 3.87936 32.9305 6.60917
1325 1 -1.1104 9.46485 46.9411 0.739207
1124 2 2.2208 10.8563 42.7717 13.6574
1030 2 2.2208 5.14977 31.6029 13.5483
1290 1 -1.1104 3.70755 47.1312 0.60386
665 1 -1.1104 6.6663 27.2718 0.711609
683 1 -1.1104 9.40042 26.8297 0.730651
714 1 -1.1104 6.58889 29.8449 3.45828
700 1 -1.1104 6.53711 32.7814 3.6486
676 1 -1.1104 12.3454 26.8976 3.94873
840 1 -1.1104 6.75461 32.9464 6.40469
713 1 -1.1104 6.64354 30.2396 0.679507
715 1 -1.1104 6.64841 32.9735 0.802878
669 2 2.2208 10.9424 28.6393 4.93928
679 2 2.2208 8.05274 28.4911 2.01981
717 1 -1.1104 12.1273 30.1507 0.476187
719 1 -1.1104 12.0985 29.8968 3.41047
721 1 -1.1104 12.075 32.8669 0.58737
722 2 2.2208 10.7125 31.3331 2.0992
724 1 -1.1104 12.5177 32.8726 3.40805
725 1 -1.1104 9.47722 29.8928 0.894417
728 1 -1.1104 9.52013 29.8411 3.5761
730 2 2.2208 8.12145 31.3191 5.0135
732 1 -1.1104 9.34816 32.6416 0.682788
733 1 -1.1104 9.51459 32.553 3.53381
869 1 -1.1104 12.4941 29.9821 6.24494
10009 2 2.2208 -0.419313 37.0871 13.2695
837 1 -1.1104 6.5326 30.1772 6.47776
871 1 -1.1104 12.4385 32.731 6.34895
1094 2 2.2208 2.31608 45.6916 13.4437
689 2 2.2208 5.36709 34.2966 5.00972
691 1 -1.1104 0.913194 35.5425 0.81798
694 1 -1.1104 1.06133 35.4435 3.52246
698 2 2.2208 5.25152 36.9545 2.31735
702 1 -1.1104 3.92236 35.3363 0.710155