ITEM: TIMESTEP
40000
ITEM: NUMBER OF ATOMS
17700
ITEM: BOX BOUNDS pp pp pp
-4.5710674103364279e-01 2.7797106741033119e+01
-5.4485981889163444e+00 3.3352859818891329e+02
-4.3901632947472313e-01 2.7779016329475294e+01
ITEM: ATOMS id type q x y z
1 2 2.2208 4.871 0.126838 5.08583
2 1 -1.1104 0.777707 -4.31677 0.898148
6 1 -1.1104 0.931953 -4.1981 3.65477
10 1 -1.1104 0.865904 -1.35322 0.880412
12 2 2.2208 4.98049 -2.80691 2.35168
14 1 -1.1104 0.749878 -1.49884 3.60612
16 1 -1.1104 3.66142 -4.34507 0.82896
18 2 2.2208 2.18463 0.0409467 2.36757
19 1 -1.1104 3.60711 -3.76525 3.82959
21 2 2.2208 2.26873 -2.82455 5.18269
23 1 -1.1104 3.65943 -1.43002 1.17667
24 1 -1.1104 3.50077 -1.20895 3.79176
8951 2 2.2208 -0.398567 8.63221 2.31961
502 2 2.2208 10.5987 14.2513 13.4986
8867 2 2.2208 13.41 8.68816 10.8026
439 2 2.2208 10.4577 8.58564 13.5081
8392 2 2.2208 7.94499 -5.34362 13.6771
172 1 -1.1104 3.56797 -4.30425 6.65386
8129 2 2.2208 13.5502 -5.36052 2.187
8986 2 2.2208 13.4088 17.2326 13.5292
8950 2 2.2208 13.4167 0.12493 2.39599
4 1 -1.1104 6.50852 -4.38791 0.955788
8 1 -1.1104 6.33492 -3.90888 3.82766
8960 2 2.2208 -0.394846 17.2046 5.40435
11 1 -1.1104 6.36476 -1.41697 0.741314
15 1 -1.1104 6.2768 -1.20602 3.64578
31 2 2.2208 10.5714 -0.0358613 5.19417
32 1 -1.1104 12.2574 -3.97574 0.888389
34 1 -1.1104 12.3227 -3.93935 3.73059
36 1 -1.1104 12.0631 -1.30854 0.656058
37 2 2.2208 10.7112 -2.80531 2.17344
39 1 -1.1104 12.1065 -1.18024 3.68889
40 1 -1.1104 9.38488 -4.37603 0.909415
42 2 2.2208 7.64278 0.167715 2.31164
43 1 -1.1104 9.27288 -4.29137 3.79755
45 2 2.2208 7.78501 -2.56561 5.15054
47 1 -1.1104 9.22414 -1.32999 1.06166
48 1 -1.1104 9.2631 -1.31586 3.73789
210 1 -1.1104 9.00171 -1.36133 6.55919
205 1 -1.1104 12.3079 -4.24733 6.78891
8953 2 2.2208 -0.395417 20.0637 8.04909
156 1 -1.1104 9.30899 18.1589 6.5524
8940 2 2.2208 13.37 3.02643 10.8058
375 2 2.2208 7.90878 0.281664 13.6238
28 1 -1.1104 12.2927 15.5144 12.1088
3 1 -1.1104 0.970254 1.64716 1.18897
7 1 -1.1104 0.750481 1.39592 3.89603
13 2 2.2208 4.79339 3.13787 2.16431
17 1 -1.1104 3.57981 1.50029 0.983337
20 1 -1.1104 3.56263 1.60527 3.69078
22 2 2.2208 2.23257 2.94396 5.08346
54 2 2.2208 5.00389 5.77132 5.0169
56 1 -1.1104 0.886686 7.23412 0.877431
58 1 -1.1104 0.716322 7.15531 3.74289
60 1 -1.1104 0.605648 4.29265 0.980779
67 1 -1.1104 0.908796 4.34946 3.88704
71 1 -1.1104 3.83021 7.16056 0.93447
72 2 2.2208 2.12076 5.80238 2.40945
76 1 -1.1104 3.43274 4.57081 0.9975
79 1 -1.1104 3.51431 4.42464 3.65277
74 1 -1.1104 3.4411 7.10681 3.50419
69 1 -1.1104 6.42454 4.21423 3.68926
63 1 -1.1104 6.32399 4.34783 0.802598
9 1 -1.1104 6.5142 1.50255 3.92999
57 1 -1.1104 6.77729 7.28373 0.962226
59 1 -1.1104 6.28561 7.17339 3.68776
238 1 -1.1104 3.72508 7.11167 6.38803
235 1 -1.1104 6.45973 6.98863 6.44947
296 1 -1.1104 6.38973 18.6832 11.9279
438 2 2.2208 7.84181 5.69291 13.6006
8913 2 2.2208 13.4653 19.7657 10.7736
5 1 -1.1104 6.37899 1.47587 0.964957
33 1 -1.1104 12.074 1.51876 0.886848
35 1 -1.1104 12.0954 1.87054 3.76406
38 2 2.2208 10.8778 3.01891 2.29417
41 1 -1.1104 9.1563 1.58926 1.05084
44 1 -1.1104 9.37715 1.32403 3.71949
46 2 2.2208 8.01595 2.9008 5.06144
84 2 2.2208 10.7623 5.9618 5.23242
88 1 -1.1104 12.0315 4.32003 0.767696
92 1 -1.1104 12.1736 4.82001 3.74361
95 2 2.2208 7.95053 5.75233 2.40935
97 1 -1.1104 9.16638 7.31754 3.81486
99 1 -1.1104 9.21852 4.42495 0.772495
102 1 -1.1104 9.19597 4.34942 3.82615
87 1 -1.1104 12.3718 7.3763 3.6665
94 1 -1.1104 9.57289 7.21774 0.885908
86 1 -1.1104 12.4225 7.21143 0.776451
266 1 -1.1104 12.1234 4.60946 6.59897
206 1 -1.1104 12.1049 1.38216 6.73041
267 1 -1.1104 9.39055 7.27465 6.71509
501 2 2.2208 10.3889 19.9765 13.4786
265 1 -1.1104 12.1908 7.42706 6.6431
269 1 -1.1104 9.26244 4.37379 6.59271
55 2 2.2208 5.14139 11.4558 5.14547
61 1 -1.1104 0.946824 10.0237 1.07811
66 2 2.2208 5.27106 8.71581 2.31317
68 1 -1.1104 0.879833 10.1588 3.64176
73 2 2.2208 2.58725 11.5225 2.38044
75 2 2.2208 2.27521 8.57538 5.18202
77 1 -1.1104 3.77854 10.0101 0.899243
80 1 -1.1104 3.84035 9.84714 3.76421
107 1 -1.1104 1.11709 13.1542 1.22925
113 1 -1.1104 0.774991 12.9061 3.98446
123 1 -1.1104 3.86496 12.9297 0.960206
128 1 -1.1104 3.75675 12.9192 3.77282
62 1 -1.1104 0.97233 10.1281 6.21194
124 1 -1.1104 3.6731 12.6945 6.56507
115 1 -1.1104 6.4232 12.8915 3.50124
64 1 -1.1104 6.56458 10.0805 0.813836
202 1 -1.1104 9.16552 18.4511 9.18486
65 1 -1.1104 6.35568 10.0567 6.28635
503 2 2.2208 7.78508 17.1657 13.5188
536 2 2.2208 10.8467 17.0388 -0.434808
230 2 2.2208 13.46 -2.75009 10.8139
110 1 -1.1104 6.69653 12.8196 0.654146
70 1 -1.1104 6.60836 10.0866 3.51364
85 2 2.2208 10.7187 11.322 5.09816
89 1 -1.1104 11.9919 10.0388 0.745027
91 2 2.2208 10.7379 8.60255 2.27681
93 1 -1.1104 12.0658 10.0197 3.75182
96 2 2.2208 7.9248 11.6092 2.1617
98 2 2.2208 7.86895 8.60251 5.09443
100 1 -1.1104 9.33013 9.94471 1.05516
103 1 -1.1104 9.43073 9.99699 3.749
142 1 -1.1104 11.9829 12.9179 1.05128
146 1 -1.1104 12.0784 12.7375 3.98778
153 1 -1.1104 9.31383 12.7811 0.893614
158 1 -1.1104 9.24342 12.881 3.64444
101 1 -1.1104 9.19486 9.87969 6.48505
8946 2 2.2208 13.4975 3.20067 5.2301
90 1 -1.1104 12.0857 10.0559 6.55389
143 1 -1.1104 12.3054 12.9467 6.55548
111 1 -1.1104 6.35866 12.9039 6.45725
154 1 -1.1104 9.24756 12.6547 6.37903
8652 2 2.2208 13.5413 14.136 10.7019
301 1 -1.1104 3.30845 18.7919 9.30502
119 2 2.2208 4.99215 14.3839 2.37
130 2 2.2208 2.13906 14.2912 5.27255
106 2 2.2208 5.0149 17.1042 5.16002
109 1 -1.1104 1.00339 18.5909 0.975084
114 1 -1.1104 0.698572 18.5085 3.68428
116 1 -1.1104 0.915262 15.8855 0.987595
120 2 2.2208 5.07453 19.9726 2.33977
121 1 -1.1104 0.96093 15.7012 3.68798
125 1 -1.1104 3.72764 18.7734 0.970383
127 2 2.2208 2.18276 17.1803 2.29473
129 1 -1.1104 3.7467 18.4383 3.7019
131 2 2.2208 2.32343 19.898 5.08105
132 1 -1.1104 3.67479 15.8021 1.05811
134 1 -1.1104 3.49632 15.7616 4.00669
292 1 -1.1104 0.913634 15.7769 9.46795
300 2 2.2208 5.07946 17.1748 10.8072
133 1 -1.1104 3.59807 15.6865 6.8247
126 1 -1.1104 3.8978 18.7921 6.47409
165 1 -1.1104 1.0123 18.7394 6.49523
122 1 -1.1104 6.41236 15.7715 3.51891
204 2 2.2208 10.6707 16.9076 10.7001
138 1 -1.1104 6.45381 18.3972 0.886952
140 1 -1.1104 6.34763 15.6814 0.709784
139 1 -1.1104 6.6191 18.5749 3.50579
160 2 2.2208 7.77683 14.1158 4.8885
150 2 2.2208 10.5436 14.2153 2.35329
141 2 2.2208 10.8684 17.1256 5.2427
144 1 -1.1104 12.1737 18.3946 0.712264
147 1 -1.1104 12.2986 18.512 3.65987
148 1 -1.1104 12.0156 15.8133 1.10474
151 2 2.2208 10.9288 19.7346 2.34483
152 1 -1.1104 11.8908 15.6106 3.7795
155 1 -1.1104 9.37882 18.5475 0.843448
157 2 2.2208 7.91878 17.1865 2.33293
159 1 -1.1104 9.54007 18.4735 3.76512
161 2 2.2208 8.0129 19.667 5.17527
162 1 -1.1104 9.23027 15.7503 0.869137
164 1 -1.1104 9.11996 15.6763 3.4755
149 1 -1.1104 12.2537 15.7009 6.6427
118 1 -1.1104 6.41014 15.6906 6.18336
145 1 -1.1104 12.4358 18.5259 6.45072
163 1 -1.1104 9.22436 15.5708 6.43065
199 2 2.2208 7.77413 17.0653 7.90093
8938 2 2.2208 13.6075 11.5089 7.8432
232 1 -1.1104 12.0186 18.2475 12.005
170 1 -1.1104 0.76301 -1.23205 6.432
30 2 2.2208 10.8229 19.8514 7.8766
288 1 -1.1104 6.29857 18.5393 9.21008
49 1 -1.1104 9.1624 15.8223 12.1865
298 1 -1.1104 1.07721 18.4283 12.1949
174 1 -1.1104 3.60496 -1.35201 6.51734
166 1 -1.1104 0.74048 -4.01829 6.44471
175 2 2.2208 5.02932 0.100446 10.8435
176 1 -1.1104 0.839122 -3.93305 12.2253
180 1 -1.1104 0.824831 -4.21126 9.35622
184 1 -1.1104 0.909766 -1.09815 12.2628
186 2 2.2208 5.11034 -2.70213 7.92394
188 1 -1.1104 0.686166 -1.33981 9.37311
190 1 -1.1104 3.7196 -4.02244 12.3875
192 2 2.2208 2.12931 0.132749 7.82799
193 1 -1.1104 3.73167 -4.08555 9.36334
195 2 2.2208 2.38415 -2.73808 10.9327
197 1 -1.1104 3.53178 -1.30814 12.2012
198 1 -1.1104 3.60815 -1.49874 9.44234
189 1 -1.1104 6.42099 -1.43915 9.20104
171 1 -1.1104 6.4023 -1.26586 6.35994
168 1 -1.1104 6.40653 -4.03919 6.5153
185 1 -1.1104 6.35832 -1.11261 12.2065
293 2 2.2208 5.0467 20.1415 7.92371
8942 2 2.2208 13.5525 5.91324 2.1561
560 2 2.2208 7.91164 -2.85734 -0.36
8955 2 2.2208 13.5679 -0.0777415 8.03562
182 1 -1.1104 6.58788 -4.15486 9.34976
178 1 -1.1104 6.71163 -3.94715 12.2953
207 1 -1.1104 12.2264 -1.46084 6.53928
208 1 -1.1104 9.41212 -4.15927 6.68924
211 2 2.2208 10.5952 0.18658 10.8773
212 1 -1.1104 12.1884 -4.35181 12.2367
214 1 -1.1104 12.0604 -4.13114 9.43289
216 1 -1.1104 11.9384 -1.342 12.2444
217 2 2.2208 10.6595 -2.66944 8.00887
219 1 -1.1104 12.0061 -1.33096 9.38663
220 1 -1.1104 9.44874 -3.99497 12.2427
222 2 2.2208 7.67353 0.0618053 7.90196
223 1 -1.1104 9.3585 -3.93218 9.48669
225 2 2.2208 8.10392 -2.73428 10.9735
227 1 -1.1104 9.09443 -1.25275 12.362
228 1 -1.1104 9.0811 -1.2321 9.44441
53 1 -1.1104 6.44744 15.5985 12.0749
173 1 -1.1104 3.4783 1.5306 6.7305
239 1 -1.1104 3.43755 4.29986 6.70463
203 2 2.2208 7.8139 14.2262 10.6222
234 1 -1.1104 0.764283 7.26101 6.50904
167 1 -1.1104 0.688544 1.46472 6.59739
236 1 -1.1104 0.624624 4.32079 6.62544
177 1 -1.1104 0.821608 1.5398 12.2535
181 1 -1.1104 1.06873 1.43926 9.51779
187 2 2.2208 5.19234 2.96166 7.93844
191 1 -1.1104 3.46927 1.63938 12.4607
194 1 -1.1104 3.69645 1.38386 9.51043
196 2 2.2208 2.24545 2.87003 10.8701
240 2 2.2208 4.92923 5.5808 10.7079
246 1 -1.1104 0.757595 4.30904 12.2345
251 1 -1.1104 0.862475 4.2911 9.31005
256 2 2.2208 1.99432 5.75277 8.06762
260 1 -1.1104 3.693 4.23489 12.1829
262 1 -1.1104 3.67257 4.27168 9.61056
244 1 -1.1104 0.756901 7.47921 9.38775
242 1 -1.1104 0.739571 7.13722 12.3855
255 1 -1.1104 3.70687 6.94723 12.2916
253 1 -1.1104 6.57018 4.36771 9.3431
169 1 -1.1104 6.33415 1.56779 6.72774
179 1 -1.1104 6.23981 1.50455 12.2856
248 1 -1.1104 6.42218 4.28598 12.2582
258 1 -1.1104 3.54941 7.14985 9.39288
237 1 -1.1104 6.38565 4.58883 6.46564
29 2 2.2208 10.5746 14.2002 7.77717
183 1 -1.1104 6.47395 1.29852 9.40892
209 1 -1.1104 9.21318 1.51047 6.49962
245 1 -1.1104 6.3443 7.14043 9.07685
213 1 -1.1104 11.73 1.58494 12.3141
215 1 -1.1104 12.2344 1.57686 9.43558
218 2 2.2208 10.6457 2.96484 7.97716
221 1 -1.1104 8.91868 1.64151 12.0195
224 1 -1.1104 9.52276 1.54784 9.30683
226 2 2.2208 7.85002 2.8942 10.7313
268 1 -1.1104 9.07618 4.41689 9.38051
271 1 -1.1104 9.14022 4.37747 12.3733
275 2 2.2208 7.87207 5.64183 7.78544
276 2 2.2208 10.5917 5.74286 10.868
278 1 -1.1104 11.9632 7.0802 12.0963
279 1 -1.1104 11.8286 7.10262 9.36573
280 1 -1.1104 12.0943 4.39472 12.4184
283 1 -1.1104 11.9655 4.3072 9.61146
285 1 -1.1104 9.03697 7.4026 12.0973
273 1 -1.1104 9.15416 7.21966 9.3768
243 1 -1.1104 6.55403 7.07211 11.913
8954 2 2.2208 13.4424 11.4089 2.37469
26 1 -1.1104 9.11807 15.4526 9.52236
51 1 -1.1104 12.1877 15.5992 9.29574
105 1 -1.1104 9.2672 18.6267 12.0076
108 1 -1.1104 0.742177 12.9567 6.80885
78 1 -1.1104 3.5524 9.92101 6.60639
241 2 2.2208 5.01863 11.6279 10.6919
247 1 -1.1104 0.662716 10.0738 12.2887
250 2 2.2208 4.93714 8.54053 7.85616
252 1 -1.1104 0.764104 10.2078 9.09383
257 2 2.2208 2.31212 11.3127 7.94347
259 2 2.2208 2.20525 8.62595 10.7271
261 1 -1.1104 3.71082 10.0884 12.1204
263 1 -1.1104 3.69717 10.0879 9.57846
135 1 -1.1104 3.69363 12.7906 9.21303
287 1 -1.1104 3.76643 12.9388 12.1567
294 1 -1.1104 0.982129 12.9382 9.48272
299 1 -1.1104 0.979209 12.9109 12.1411
9176 2 2.2208 -0.352318 14.2703 13.4575
291 1 -1.1104 0.616441 18.5752 9.27775
27 1 -1.1104 12.1655 18.3857 9.33653
82 2 2.2208 8.04772 19.9445 10.5267
290 1 -1.1104 6.36008 12.9422 9.22071
254 1 -1.1104 6.30858 9.91194 9.11536
249 1 -1.1104 6.44244 10.1938 11.7538
297 1 -1.1104 6.63005 13.0361 12.1195
264 1 -1.1104 9.1771 10.1771 9.32557
270 1 -1.1104 9.45621 10.215 12.1744
272 2 2.2208 7.88221 8.64837 10.5524
274 2 2.2208 7.66406 11.3752 7.77585
277 2 2.2208 10.6115 11.4356 10.6028
281 1 -1.1104 11.9773 9.94963 12.0568
282 2 2.2208 10.6859 8.52848 7.93358
284 1 -1.1104 11.9558 9.88936 9.37609
81 1 -1.1104 9.34787 12.9547 12.1426
201 1 -1.1104 9.15506 12.8961 9.09195
231 1 -1.1104 11.905 12.6144 12.3469
233 1 -1.1104 12.194 12.8647 9.23413
112 1 -1.1104 6.50064 18.6769 6.47223
289 1 -1.1104 6.3834 15.7175 9.16688
117 1 -1.1104 0.876773 15.7439 6.61929
295 2 2.2208 5.05181 14.2551 7.79279
83 2 2.2208 2.26995 14.4192 10.8035
52 1 -1.1104 0.991942 15.7378 12.2244
104 2 2.2208 2.40721 20.0908 11.0015
136 1 -1.1104 3.60883 15.7942 9.54477
137 2 2.2208 2.12347 17.298 8.05379
229 1 -1.1104 3.83565 15.6859 12.1179
286 1 -1.1104 3.77049 18.5527 12.3851
440 2 2.2208 7.89505 11.4928 13.5542
8053 2 2.2208 10.7638 -5.43476 5.25779
8947 2 2.2208 13.6173 17.0318 7.95066
413 2 2.2208 2.1965 11.3976 13.4729
474 2 2.2208 2.52714 17.1051 13.5475
412 2 2.2208 4.89099 8.3328 13.4921
8541 2 2.2208 2.39134 -5.39548 13.6432
476 2 2.2208 4.99759 14.2534 13.5808
475 2 2.2208 5.24719 19.969 13.5825
8957 2 2.2208 13.669 19.9041 5.09318
8948 2 2.2208 -0.393498 14.3252 8.12938
8956 2 2.2208 13.6548 14.3509 5.08346
344 2 2.2208 4.90497 2.87904 13.6121
561 2 2.2208 7.92835 3.05346 -0.435948
537 2 2.2208 5.12048 17.1896 -0.412474
374 2 2.2208 2.32636 14.4565 -0.378521
9061 2 2.2208 13.5157 5.89522 13.5914
621 2 2.2208 10.7382 11.5142 -0.376295
9321 2 2.2208 13.3676 0.14288 13.5536
302 2 2.2208 5.0542 -0.0141561 16.5805
303 1 -1.1104 0.86222 -4.03277 17.8943
307 1 -1.1104 0.893691 -4.04223 14.9475
315 1 -1.1104 1.14603 -1.29804 18.0529
317 2 2.2208 5.18586 -2.76149 19.4177
319 1 -1.1104 0.729637 -1.34948 15.1703
323 1 -1.1104 3.83056 -4.3035 18.0191
325 2 2.2208 2.29655 -0.108848 19.4013
326 1 -1.1104 3.79327 -4.19067 15.1275
330 2 2.2208 2.35485 -2.81957 16.5279
332 1 -1.1104 3.77683 -1.5393 18.0296
333 1 -1.1104 3.70648 -1.41183 15.2445
316 1 -1.1104 6.67354 -1.23007 17.7506
8629 2 2.2208 8.13822 -5.42681 24.8491
535 2 2.2208 7.90024 14.5241 27.5495
9313 2 2.2208 13.4446 2.95213 16.6005
321 1 -1.1104 6.45558 -1.41066 15.0642
568 2 2.2208 2.32045 19.9897 27.6323
334 1 -1.1104 3.85328 -1.54453 20.9191
308 1 -1.1104 0.976705 -4.24209 20.8153
373 2 2.2208 13.3944 -2.734 16.437
9338 2 2.2208 13.624 8.57961 27.6273
9132 2 2.2208 13.3141 14.4052 16.4146
9333 2 2.2208 13.6013 17.2679 24.7786
311 1 -1.1104 6.62822 -4.16352 15.3724
305 1 -1.1104 6.73458 -4.12667 18.3219
345 2 2.2208 10.6755 0.327381 16.4776
346 1 -1.1104 12.0247 -4.03863 17.9544
348 1 -1.1104 12.0476 -4.0997 15.2143
352 1 -1.1104 12.1177 -1.12679 17.8067
353 2 2.2208 10.7065 -2.70324 19.3415
355 1 -1.1104 12.0994 -1.07983 15.0211
357 1 -1.1104 9.34113 -4.03267 17.906
359 2 2.2208 7.88503 0.171934 19.2489
360 1 -1.1104 9.25031 -3.80776 15.3008
364 2 2.2208 7.93202 -2.63886 16.5971
366 1 -1.1104 9.29575 -1.1229 18.0793
367 1 -1.1104 9.15865 -1.16448 15.1348
322 1 -1.1104 6.68011 -1.19635 20.5315
8539 2 2.2208 10.7083 -5.443 16.6071
531 2 2.2208 2.31816 3.00921 27.7569
9340 2 2.2208 13.6008 14.2719 27.7553
368 1 -1.1104 9.39472 -1.30894 20.8398
356 1 -1.1104 12.1318 -1.35439 20.6891
9322 2 2.2208 13.456 14.1333 22.1046
620 2 2.2208 8.02489 8.67787 27.6999
9064 2 2.2208 13.5255 11.6214 19.1967
483 1 -1.1104 12.2095 18.6435 20.7745
304 1 -1.1104 1.0023 1.3584 18.0525
309 1 -1.1104 0.711359 1.59132 15.0905
318 2 2.2208 5.04236 3.03044 19.3895
324 1 -1.1104 3.64601 1.61025 18.1322
328 1 -1.1104 3.5495 1.377 15.3765
331 2 2.2208 2.22425 2.81141 16.6532
378 2 2.2208 5.01791 5.95273 16.6104
382 1 -1.1104 0.856147 6.99615 15.1623
386 1 -1.1104 0.798593 4.30375 17.8729
391 1 -1.1104 0.910199 4.3679 15.3511
400 2 2.2208 2.08272 5.69145 19.3371
402 1 -1.1104 3.5665 7.22026 15.1126
405 1 -1.1104 3.39776 4.42837 17.7879
407 1 -1.1104 3.6141 4.31412 14.9684
399 1 -1.1104 3.4467 7.26976 18.0729
380 1 -1.1104 0.5747 7.16453 18.1076
310 1 -1.1104 0.843351 1.60983 20.7908
388 1 -1.1104 6.40308 4.61926 17.905
306 1 -1.1104 6.33816 1.68031 18.118
381 1 -1.1104 6.59893 7.26234 17.9956
383 1 -1.1104 0.792182 7.33077 20.8638
408 1 -1.1104 3.60025 4.21876 20.7921
403 1 -1.1104 3.62037 7.08082 20.6096
329 1 -1.1104 3.68553 1.26638 20.6702
385 1 -1.1104 6.49974 7.21975 20.9367
371 2 2.2208 8.03944 17.1278 24.911
619 2 2.2208 10.6621 5.7983 27.5015
9335 2 2.2208 13.4654 0.253565 24.8032
384 1 -1.1104 6.43587 7.27292 14.8905
395 1 -1.1104 6.30892 4.27501 15.1074
313 1 -1.1104 6.49198 1.26997 15.249
347 1 -1.1104 12.1869 1.6349 18.0078
350 1 -1.1104 11.8263 1.7594 15.101
354 2 2.2208 10.5443 2.9809 19.3961
358 1 -1.1104 9.41803 1.75903 17.7866
362 1 -1.1104 9.1589 1.72382 14.952
365 2 2.2208 7.67977 3.09311 16.5188
414 2 2.2208 10.8429 5.96935 16.2135
416 1 -1.1104 12.1463 7.35684 17.6417
419 1 -1.1104 11.9547 4.52675 17.7045
422 1 -1.1104 12.1861 4.47163 14.9991
427 2 2.2208 8.06012 5.92951 19.2064
432 1 -1.1104 9.52635 4.47564 17.8045
434 1 -1.1104 9.09566 4.43055 15.1576
429 1 -1.1104 9.1674 7.04534 14.8354
426 1 -1.1104 9.44875 7.21192 17.728
417 1 -1.1104 12.081 7.12297 14.8471
423 1 -1.1104 12.0346 4.37133 20.5776
9134 2 2.2208 13.5817 17.2365 19.4245
314 1 -1.1104 6.50205 1.50515 20.9369
396 1 -1.1104 6.42454 4.36459 20.5738
430 1 -1.1104 9.28637 7.40703 20.5208
363 1 -1.1104 9.2327 1.56048 20.7308
351 1 -1.1104 12.2398 1.5234 20.7569
411 2 2.2208 2.22493 5.55117 13.7198
539 1 -1.1104 9.43785 18.4955 26.3135
379 2 2.2208 5.02059 11.5199 16.4604
387 1 -1.1104 0.721931 9.99504 17.9873
390 2 2.2208 4.7541 8.88651 19.3051
393 1 -1.1104 0.743368 9.78906 14.9864
401 2 2.2208 2.2004 11.442 19.3435
404 2 2.2208 2.13484 8.66263 16.4046
406 1 -1.1104 3.61207 10.1431 17.8395
409 1 -1.1104 3.55235 10.2083 14.8694
442 1 -1.1104 0.81157 12.8894 17.8459
446 1 -1.1104 0.876547 12.6648 14.8385
462 1 -1.1104 3.45137 12.9285 17.8023
465 1 -1.1104 3.59207 12.6981 14.9852
450 1 -1.1104 6.48297 12.9148 14.9234
389 1 -1.1104 6.42672 10.0417 17.7752
8567 2 2.2208 5.30163 -5.37624 16.7374
466 1 -1.1104 3.84358 12.872 20.7533
410 1 -1.1104 3.58059 9.94224 20.8667
444 1 -1.1104 6.4726 12.8893 17.6534
397 1 -1.1104 6.31595 9.96318 14.8449
415 2 2.2208 10.7055 11.482 16.2841
420 1 -1.1104 12.2119 10.2949 17.7171
421 2 2.2208 10.6776 8.73648 19.0282
424 1 -1.1104 12.0664 9.82273 14.9363
428 2 2.2208 7.97327 11.3562 19.1842
431 2 2.2208 7.75391 8.69632 16.2867
433 1 -1.1104 9.3649 10.0794 17.5103
436 1 -1.1104 9.06102 9.95634 14.9414
478 1 -1.1104 11.9379 12.9503 17.8398
480 1 -1.1104 12.0504 13.007 15.1578
489 1 -1.1104 9.01207 12.9895 18.0403
492 1 -1.1104 9.22344 13.0359 14.8829
481 1 -1.1104 11.834 12.8343 20.5963
437 1 -1.1104 9.2918 10.0217 20.5969
9135 2 2.2208 13.4818 19.9549 16.3209
8355 2 2.2208 13.4866 -5.42865 13.8122
563 2 2.2208 10.7531 17.1965 22.011
9342 2 2.2208 -0.320959 17.1603 27.6697
456 2 2.2208 5.22116 14.3913 19.127
469 2 2.2208 2.13117 14.1902 16.4969
441 2 2.2208 5.03267 17.224 16.5288
443 1 -1.1104 0.827257 18.5986 17.8077
448 1 -1.1104 0.935798 18.5889 15.2086
454 1 -1.1104 0.876542 15.7971 17.9072
457 2 2.2208 5.02866 19.9127 19.4119
458 1 -1.1104 0.878706 15.5904 15.0636
463 1 -1.1104 3.61545 18.5715 18.003
464 2 2.2208 2.35482 17.0785 19.3249
467 1 -1.1104 3.87658 18.3892 14.9295
470 2 2.2208 2.30006 19.9942 16.5474
471 1 -1.1104 3.94147 15.7935 17.8267
472 1 -1.1104 3.67265 15.7941 14.9876
445 1 -1.1104 6.38612 18.6776 17.9056
9062 2 2.2208 13.5379 8.68408 16.5034
460 1 -1.1104 6.41567 15.5765 14.9836
452 1 -1.1104 6.47731 18.2823 15.0827
337 2 2.2208 10.7203 14.3074 25.0106
449 1 -1.1104 0.925959 18.471 20.6123
461 1 -1.1104 6.59061 15.624 20.6593
628 1 -1.1104 6.61978 15.858 26.3185
376 2 2.2208 10.4341 -2.53486 13.685
455 1 -1.1104 6.50084 15.819 17.7978
496 2 2.2208 7.8284 14.4571 16.4011
485 2 2.2208 10.6586 14.3987 19.2444
477 2 2.2208 10.7939 17.0775 16.4122
479 1 -1.1104 12.2079 18.6036 17.8322
482 1 -1.1104 11.9241 18.7041 14.7337
484 1 -1.1104 12.0162 15.7382 17.7981
486 2 2.2208 10.6956 19.8504 19.1412
487 1 -1.1104 12.0864 15.7001 15.0464
490 1 -1.1104 9.31384 18.6222 17.8087
491 2 2.2208 7.90508 17.1301 19.2471
494 1 -1.1104 8.83265 18.6803 14.8298
497 2 2.2208 7.89066 19.9377 16.5555
498 1 -1.1104 9.36735 15.6445 17.8627
499 1 -1.1104 9.27242 15.8963 14.8301
500 1 -1.1104 9.47933 15.7739 20.618
453 1 -1.1104 6.47942 18.586 20.5936
488 1 -1.1104 12.1536 15.7676 20.4769
629 1 -1.1104 1.11654 18.5718 26.2807
336 1 -1.1104 12.4953 15.8109 23.1749
625 1 -1.1104 3.9921 18.5386 23.4438
595 2 2.2208 2.32911 8.59541 27.7547
9315 2 2.2208 13.5216 8.64612 22.1137
320 1 -1.1104 0.901787 -1.35264 20.8373
327 1 -1.1104 3.87054 -4.16384 20.6635
505 2 2.2208 5.13802 0.142037 22.1611
506 1 -1.1104 0.907665 -4.217 23.6525
510 1 -1.1104 0.745187 -4.26051 26.404
514 1 -1.1104 0.709398 -1.5031 23.5598
516 2 2.2208 5.15472 -2.75492 24.9832
518 1 -1.1104 0.862904 -1.14539 26.3468
520 1 -1.1104 3.72813 -4.19163 23.5517
522 2 2.2208 2.29571 0.0839277 24.9216
523 1 -1.1104 3.80578 -4.28347 26.156
525 2 2.2208 2.47491 -2.81764 22.2461
527 1 -1.1104 3.55575 -1.35118 23.5908
528 1 -1.1104 3.4851 -1.31151 26.5514
515 1 -1.1104 6.66006 -1.06202 23.5063
512 1 -1.1104 6.60906 -4.06292 26.2223
338 2 2.2208 10.8434 19.8539 24.9373
624 1 -1.1104 0.811838 15.9604 23.5025
9337 2 2.2208 -0.448444 20.1935 24.8768
349 1 -1.1104 12.2423 -3.98505 20.7398
598 1 -1.1104 9.55737 15.8904 23.6553
508 1 -1.1104 6.59079 -3.90718 23.64
632 1 -1.1104 6.51742 18.4658 23.3844
519 1 -1.1104 6.30968 -1.12896 26.3685
361 1 -1.1104 9.26101 -4.15223 20.8111
312 1 -1.1104 6.60133 -4.08017 20.7706
541 2 2.2208 10.7998 0.15032 22.1651
542 1 -1.1104 12.1671 -4.03545 23.4113
544 1 -1.1104 12.1319 -4.04057 26.2969
546 1 -1.1104 12.3102 -1.33289 23.457
547 2 2.2208 10.8735 -2.68895 24.9803
549 1 -1.1104 12.3767 -1.31353 26.1554
550 1 -1.1104 9.41716 -4.1292 23.3594
552 2 2.2208 7.9685 0.242926 25.0375
553 1 -1.1104 9.55361 -4.00277 26.3729
555 2 2.2208 8.01371 -2.52048 22.1473
557 1 -1.1104 9.42948 -1.2056 23.6869
558 1 -1.1104 9.45783 -1.25358 26.546
540 2 2.2208 7.82078 14.165 22.0095
370 1 -1.1104 9.42307 18.5497 23.4163
559 2 2.2208 10.6852 0.325319 27.6887
392 1 -1.1104 0.721875 4.44612 20.9676
507 1 -1.1104 0.871801 1.32168 23.6444
511 1 -1.1104 0.879942 1.55552 26.2484
517 2 2.2208 5.24118 3.124 24.9205
521 1 -1.1104 3.64922 1.41693 23.3692
524 1 -1.1104 3.7574 1.72454 26.2012
526 2 2.2208 2.31555 2.97018 22.2919
570 2 2.2208 5.0824 5.82214 22.2328
572 1 -1.1104 0.716538 7.2799 23.5949
574 1 -1.1104 0.850159 7.1077 26.2999
576 1 -1.1104 0.954984 4.17671 23.7291
581 1 -1.1104 0.798131 4.348 26.4891
586 2 2.2208 2.22681 5.70282 25.1633
590 1 -1.1104 3.85933 4.32392 23.7542
592 1 -1.1104 3.60269 4.4528 26.5554
588 1 -1.1104 3.84734 7.34012 26.2307
585 1 -1.1104 3.60051 7.23148 23.6452
575 1 -1.1104 6.72954 7.16569 26.4958
578 1 -1.1104 6.4816 4.48537 23.4038
509 1 -1.1104 6.49414 1.68428 23.6735
9316 2 2.2208 13.5798 2.96079 21.875
342 2 2.2208 5.04388 -2.61552 13.8023
596 2 2.2208 5.05897 11.5766 27.7334
418 1 -1.1104 12.1516 7.20542 20.6841
573 1 -1.1104 6.61346 7.29005 23.5716
583 1 -1.1104 6.64699 4.3865 26.2537
513 1 -1.1104 6.66898 1.67388 26.5724
435 1 -1.1104 9.35902 4.51133 20.7876
543 1 -1.1104 12.0712 1.70369 23.4246
545 1 -1.1104 12.2412 1.55908 26.1856
548 2 2.2208 10.8113 3.16484 24.7502
551 1 -1.1104 9.28642 1.50452 23.4405
554 1 -1.1104 9.41077 1.68049 26.2462
556 2 2.2208 7.98302 2.93668 22.0909
602 1 -1.1104 9.2918 4.49042 26.0571
604 1 -1.1104 9.30911 4.12462 23.4093
606 1 -1.1104 9.2727 7.33355 26.16
608 2 2.2208 7.91963 5.81453 24.7574
609 2 2.2208 10.7506 5.86393 22.1548
611 1 -1.1104 12.1889 7.21428 23.5232
613 1 -1.1104 12.3001 4.41507 23.312
616 1 -1.1104 12.09 4.29575 26.0837
618 1 -1.1104 9.39362 6.95382 23.4589
612 1 -1.1104 12.1108 7.18884 26.2162
504 1 -1.1104 6.64431 18.5406 26.2357
599 1 -1.1104 9.4152 15.8217 26.28
565 1 -1.1104 12.3697 18.7086 23.4133
447 1 -1.1104 0.897803 12.9844 20.7297
394 1 -1.1104 0.657042 10.1635 20.7115
571 2 2.2208 5.07714 11.3849 21.9889
577 1 -1.1104 1.00737 10.1744 23.4784
580 2 2.2208 5.24536 8.63421 24.9079
582 1 -1.1104 1.16068 9.89684 26.1073
587 2 2.2208 2.38982 11.4947 24.9277
589 2 2.2208 2.18111 8.57756 22.287
591 1 -1.1104 3.60263 10.1233 23.4817
593 1 -1.1104 3.69217 10.2387 26.4491
533 1 -1.1104 3.665 13.103 26.4507
627 1 -1.1104 3.66973 12.9586 23.6441
631 1 -1.1104 0.637912 12.9486 26.4306
637 1 -1.1104 0.97607 13.0701 23.7328
579 1 -1.1104 6.40856 10.1644 23.3774
451 1 -1.1104 6.44279 12.7676 20.5709
626 1 -1.1104 6.41381 13.1344 26.2698
335 1 -1.1104 12.2616 18.5448 26.1617
569 2 2.2208 8.01795 19.8292 21.9609
623 1 -1.1104 3.93374 15.7112 23.5142
584 1 -1.1104 6.57688 9.87511 26.2997
425 1 -1.1104 12.0119 10.2261 20.6476
635 1 -1.1104 6.50796 12.9247 23.4314
493 1 -1.1104 9.26313 12.8501 20.8132
398 1 -1.1104 6.32122 10.1174 20.4804
564 1 -1.1104 12.1512 12.8746 23.6069
601 1 -1.1104 9.58265 10.0916 26.3847
603 1 -1.1104 9.22766 10.1532 23.581
605 2 2.2208 7.8693 8.70656 21.9884
607 2 2.2208 7.96168 11.5848 25.1085
610 2 2.2208 10.7853 11.3973 22.2219
614 1 -1.1104 12.1582 9.82765 23.4943
615 2 2.2208 10.7235 8.66474 24.864
617 1 -1.1104 12.3013 10.1296 26.3249
369 1 -1.1104 9.55688 13.0843 23.5202
372 1 -1.1104 12.1976 12.8802 26.4236
534 1 -1.1104 9.49706 12.823 26.4588
532 1 -1.1104 6.90724 15.7729 23.5951
495 1 -1.1104 9.34677 18.494 20.5223
341 1 -1.1104 12.2281 15.7162 26.2354
468 1 -1.1104 3.67732 18.6102 20.7943
473 1 -1.1104 3.78624 15.7799 20.5099
459 1 -1.1104 0.962447 15.6788 20.8948
634 2 2.2208 5.11964 14.35 24.8679
640 2 2.2208 2.37408 17.2735 24.8216
639 1 -1.1104 3.99114 18.6529 26.1262
638 2 2.2208 5.12941 17.1039 22.0554
636 1 -1.1104 1.10294 18.7971 23.3256
633 2 2.2208 5.31777 19.9026 24.7786
630 1 -1.1104 0.991292 15.7211 26.3086
597 2 2.2208 2.43299 14.3639 22.1433
600 2 2.2208 2.33842 19.9563 21.8608
622 1 -1.1104 3.84581 15.9025 26.3697
9320 2 2.2208 13.4871 0.200985 19.2563
9326 2 2.2208 13.3911 2.8527 27.6662
529 2 2.2208 4.93913 0.155404 27.7336
566 2 2.2208 13.6416 -2.62373 27.5465
9063 2 2.2208 13.3929 5.71047 19.1707
343 2 2.2208 2.08812 0.0898765 13.8038
9066 2 2.2208 13.3506 11.346 13.7972
377 2 2.2208 10.5963 3.18743 13.7008
530 2 2.2208 2.21988 -2.88512 27.7184
562 2 2.2208 8.03265 19.9181 27.7548
594 2 2.2208 5.20203 5.96502 27.6594
641 2 2.2208 5.3683 22.7928 5.23806
643 1 -1.1104 0.997262 24.2355 0.804653
644 1 -1.1104 0.894161 24.238 3.47107
645 1 -1.1104 0.93066 21.2529 0.709112
647 2 2.2208 5.1626 25.4419 2.18194
648 1 -1.1104 0.870867 21.3746 3.45238
650 1 -1.1104 3.98053 24.24 0.831873
651 2 2.2208 2.29128 22.8839 2.03772
653 1 -1.1104 3.70052 24.1898 3.69359
654 2 2.2208 2.27742 25.5085 5.04668
655 1 -1.1104 3.86717 21.4154 0.995084
657 1 -1.1104 3.7223 21.3032 3.74293
658 1 -1.1104 3.52648 26.7102 3.37587
782 1 -1.1104 0.957326 24.1489 6.52723
649 1 -1.1104 0.815215 27.0885 3.78442
646 1 -1.1104 0.90596 27.2526 0.936602
785 1 -1.1104 0.880631 26.6466 6.58106
1472 1 -1.1104 6.75449 46.6669 12.3909
790 1 -1.1104 3.5916 26.9399 6.47894
1030 2 2.2208 4.90759 31.3047 13.4098
9654 2 2.2208 -0.162506 22.7785 5.08067
666 1 -1.1104 6.57342 21.488 3.98305
667 1 -1.1104 6.3436 26.8745 3.48287
663 1 -1.1104 6.58887 24.1773 3.73107
664 1 -1.1104 6.72659 21.2199 1.13114
662 1 -1.1104 6.74804 24.1037 1.08036
668 2 2.2208 10.7749 22.612 5.1407
670 1 -1.1104 12.4382 23.9313 0.624216
671 1 -1.1104 12.3907 24.0506 3.50965
672 1 -1.1104 12.2633 21.0317 0.956857
674 2 2.2208 10.9354 25.3622 2.18292
675 1 -1.1104 12.1857 21.3239 3.77665
677 1 -1.1104 9.46395 24.2263 0.935308
678 2 2.2208 7.94528 22.6021 2.58009
680 1 -1.1104 9.20949 23.9959 4.02269
681 2 2.2208 7.94163 25.5936 4.89384
682 1 -1.1104 9.3296 21.5244 0.815954
684 1 -1.1104 9.63155 21.1613 3.68856
673 1 -1.1104 12.403 26.8065 0.62956
815 1 -1.1104 12.0694 24.0297 6.254
676 1 -1.1104 12.3041 26.9592 3.66984
786 1 -1.1104 6.88346 21.3353 6.6444
820 1 -1.1104 9.36093 26.9884 6.2516
665 1 -1.1104 6.41391 26.8979 0.749901
783 1 -1.1104 6.56728 24.2989 6.62904
1143 2 2.2208 5.25946 22.7364 -0.392213
656 1 -1.1104 3.73586 26.903 0.673232
642 2 2.2208 5.18269 28.3483 5.07588
652 2 2.2208 2.16622 28.4265 2.34235
690 1 -1.1104 1.03174 30.0213 0.518184
693 1 -1.1104 0.750406 29.9883 3.56047
696 1 -1.1104 1.04512 32.8699 0.814858
697 2 2.2208 5.17109 30.9866 2.24168
699 1 -1.1104 0.677057 32.8602 3.37772
701 1 -1.1104 3.74834 29.594 1.03543
704 1 -1.1104 3.61649 29.73 3.84061
706 2 2.2208 2.1343 31.1394 4.92217
708 1 -1.1104 3.89045 32.9029 0.813938
709 1 -1.1104 3.62699 32.4562 3.60651
700 1 -1.1104 6.39308 32.4958 3.6488
843 1 -1.1104 3.64991 32.4821 6.32802
713 1 -1.1104 6.72954 29.7743 0.675617
835 1 -1.1104 0.854728 29.6761 6.28151
840 1 -1.1104 6.58119 32.4599 6.51224
714 1 -1.1104 6.70396 29.659 3.63367
715 1 -1.1104 6.77831 32.7082 0.705693
9663 2 2.2208 13.5354 39.7117 2.29634
9637 2 2.2208 -0.410497 45.3994 5.02367
841 1 -1.1104 3.82502 29.7273 6.52537
685 1 -1.1104 9.55027 26.6585 3.56681
683 1 -1.1104 9.43791 26.9836 0.961053
669 2 2.2208 10.7868 28.388 4.85207
679 2 2.2208 7.98997 28.2791 2.18709
717 1 -1.1104 12.4413 29.7333 0.704611
719 1 -1.1104 12.1512 30.081 3.56458
721 1 -1.1104 12.0586 32.6703 0.851397
722 2 2.2208 10.9009 31.1031 2.03997
724 1 -1.1104 12.2117 32.7389 3.65162
725 1 -1.1104 9.67782 30.079 0.413532
728 1 -1.1104 9.40448 29.5372 3.52685
730 2 2.2208 8.02718 30.9621 5.1776
732 1 -1.1104 9.31276 32.6759 0.873858
733 1 -1.1104 9.14013 32.5097 3.84481
869 1 -1.1104 12.3857 29.733 6.15455
995 2 2.2208 8.01228 23.1684 13.4252
9660 2 2.2208 13.5943 34.1613 2.32934
1032 2 2.2208 2.24949 34.129 13.2179
874 1 -1.1104 9.52517 32.2678 6.541
1094 2 2.2208 2.32033 45.4298 13.4016
9482 2 2.2208 13.6182 22.6933 7.84203
689 2 2.2208 5.18874 33.9716 5.09948
691 1 -1.1104 0.917376 35.8392 0.999466
694 1 -1.1104 0.841979 35.5891 3.90131
698 2 2.2208 5.16515 36.8684 2.28166
702 1 -1.1104 3.80438 35.6419 0.87436
703 2 2.2208 2.4455 34.0812 2.2796
705 1 -1.1104 3.72512 35.4929 4.01944
707 2 2.2208 2.28949 36.8701 5.00839
735 2 2.2208 5.25327 39.6401 5.06877
741 1 -1.1104 0.754744 38.4559 0.736655
746 1 -1.1104 0.736912 38.452 3.65514
751 2 2.2208 2.28024 39.7687 2.25159
755 1 -1.1104 3.75388 38.2425 0.889087
757 1 -1.1104 3.5794 38.3947 3.91091
906 1 -1.1104 0.932364 38.174 6.36137
836 1 -1.1104 0.796461 35.5066 6.34549
912 1 -1.1104 4.15199 38.3899 6.60308
748 1 -1.1104 6.42895 38.116 3.71005