ITEM: TIMESTEP
100000
ITEM: NUMBER OF ATOMS
17760
ITEM: BOX BOUNDS pp pp pp
-4.5655880409238475e-01 2.7796558804092150e+01
-5.6252676028557111e+00 3.3370526760285469e+02
-4.5730122675614487e-01 2.7797301226755398e+01
ITEM: ATOMS id type q x y z
1 2 2.2208 5.46814 0.00219305 5.3513
2 1 -1.1104 1.27274 -3.94204 0.892502
6 1 -1.1104 1.17705 -4.25286 3.79835
10 1 -1.1104 1.03226 -1.01998 0.831381
12 2 2.2208 5.38787 -2.83485 2.70601
14 1 -1.1104 1.22491 -1.3811 3.68068
16 1 -1.1104 3.83006 -4.156 1.27859
18 2 2.2208 2.53568 -0.0412865 2.65083
19 1 -1.1104 3.81284 -4.1951 4.27317
21 2 2.2208 2.57409 -2.85293 5.46699
23 1 -1.1104 3.97565 -1.57547 1.46663
24 1 -1.1104 3.90114 -1.51578 4.15254
26 2 2.2208 -0.261929 -0.0461265 5.50558
383 2 2.2208 -0.121695 5.64549 -0.440909
199 2 2.2208 -0.350348 2.97302 8.13115
168 1 -1.1104 6.95432 -4.12037 6.79164
361 2 2.2208 11.0924 14.2122 13.6395
25 2 2.2208 -0.282893 -2.76553 2.4916
11 1 -1.1104 6.85504 -1.49419 1.19885
15 1 -1.1104 6.68535 -1.53169 3.97383
4 1 -1.1104 6.89581 -4.39872 1.25093
163 1 -1.1104 9.64522 15.2259 6.63891
8 1 -1.1104 6.72055 -4.22769 4.08215
31 2 2.2208 11.1655 0.069528 5.36401
32 1 -1.1104 12.412 -4.23111 0.920108
34 1 -1.1104 12.5762 -4.14309 3.83412
36 1 -1.1104 12.4103 -1.53798 1.02328
37 2 2.2208 11.0177 -3.07403 2.55555
39 1 -1.1104 12.4322 -1.54549 3.74758
40 1 -1.1104 9.72307 -4.4519 1.2786
42 2 2.2208 8.12121 -0.0245453 2.40233
43 1 -1.1104 9.72238 -4.30375 3.98684
45 2 2.2208 8.20687 -2.81294 5.20157
47 1 -1.1104 9.66364 -1.45771 1.08029
48 1 -1.1104 9.52571 -1.43636 3.76745
210 1 -1.1104 9.8809 -1.25678 6.68495
9022 2 2.2208 2.57934 -5.63415 2.48619
171 1 -1.1104 6.91986 -1.46592 6.78552
208 1 -1.1104 9.67894 -4.01538 6.8081
364 2 2.2208 5.43759 0.0756565 -0.290278
3 1 -1.1104 1.46995 1.57049 1.12901
7 1 -1.1104 1.02467 1.34282 4.11528
13 2 2.2208 5.53479 2.67716 2.40915
17 1 -1.1104 4.09282 1.18419 1.15057
20 1 -1.1104 3.94179 1.46079 4.04625
22 2 2.2208 2.79139 2.8377 5.49788
54 2 2.2208 5.50036 5.63026 5.28881
60 1 -1.1104 1.08489 4.20765 0.782902
67 1 -1.1104 1.41663 4.26281 3.71269
72 2 2.2208 2.54302 5.67565 2.29635
74 1 -1.1104 3.65018 7.04417 3.94835
76 1 -1.1104 4.17398 4.16331 1.17737
79 1 -1.1104 3.89663 4.28227 4.13668
56 1 -1.1104 1.04937 7.15421 1.01997
58 1 -1.1104 0.97024 6.89179 3.81879
71 1 -1.1104 4.03907 7.10337 1.14965
239 1 -1.1104 4.11148 4.13339 6.98058
81 2 2.2208 -0.296709 5.56081 5.37716
349 2 2.2208 8.1286 19.6989 -0.449908
173 1 -1.1104 4.17588 1.50869 6.79784
169 1 -1.1104 7.29857 1.48951 6.60486
366 2 2.2208 2.74281 2.8109 -0.255792
9 1 -1.1104 6.69034 1.26302 3.69785
5 1 -1.1104 6.80316 1.41576 0.982235
59 1 -1.1104 6.73541 7.09031 4.0402
69 1 -1.1104 6.85701 4.15964 3.81005
63 1 -1.1104 7.01585 4.12906 0.859525
57 1 -1.1104 6.76668 7.0764 1.13262
33 1 -1.1104 12.4514 1.33727 1.16949
35 1 -1.1104 12.473 1.33086 4.11246
38 2 2.2208 10.915 2.58562 2.60111
41 1 -1.1104 9.68261 1.55559 1.31716
44 1 -1.1104 9.70706 1.14127 3.95217
46 2 2.2208 8.46754 2.843 5.36951
84 2 2.2208 10.991 5.73352 5.28475
86 1 -1.1104 12.6717 6.8556 1.08556
88 1 -1.1104 12.4612 4.24345 1.10178
92 1 -1.1104 12.4525 4.12111 3.79875
95 2 2.2208 8.32173 5.55803 2.49277
99 1 -1.1104 9.74779 4.23745 1.23491
102 1 -1.1104 9.64991 4.25301 4.0417
87 1 -1.1104 12.5525 6.86377 4.01156
269 1 -1.1104 9.58113 4.22539 7.09334
94 1 -1.1104 9.72222 6.95371 1.04029
265 1 -1.1104 12.4488 7.15201 6.72029
206 1 -1.1104 12.8795 1.50319 6.78947
348 2 2.2208 11.0909 16.9008 -0.205349
55 2 2.2208 5.46384 11.16 5.32341
61 1 -1.1104 1.26125 9.99414 0.84833
66 2 2.2208 5.39519 8.40787 2.47505
68 1 -1.1104 1.17451 9.91186 3.84538
73 2 2.2208 2.60371 11.1458 2.39381
75 2 2.2208 2.53665 8.37533 5.32296
77 1 -1.1104 4.03018 9.86133 1.00415
80 1 -1.1104 4.09867 9.75005 3.77764
107 1 -1.1104 1.1446 12.9684 0.934935
113 1 -1.1104 0.961036 12.7055 3.77804
123 1 -1.1104 4.07342 12.6503 1.08053
128 1 -1.1104 3.82815 12.4996 3.91206
78 1 -1.1104 3.88637 9.77654 6.79407
82 2 2.2208 -0.188837 8.48128 2.26153
83 2 2.2208 -0.227558 11.2491 5.08789
124 1 -1.1104 4.0455 12.4642 6.82861
380 2 2.2208 2.65634 8.68653 -0.319977
97 1 -1.1104 9.44842 7.08772 4.02155
115 1 -1.1104 6.82502 12.5857 3.80508
110 1 -1.1104 6.9737 12.5546 1.07413
64 1 -1.1104 6.89783 9.77349 0.954635
70 1 -1.1104 6.91362 9.8452 3.78823
85 2 2.2208 11.2677 11.0784 5.11789
89 1 -1.1104 12.5179 9.72226 1.06186
91 2 2.2208 11.1701 8.28413 2.29336
93 1 -1.1104 12.7682 9.70083 3.77403
96 2 2.2208 8.35617 11.2406 2.32022
98 2 2.2208 8.03978 8.4316 5.24266
100 1 -1.1104 9.70226 9.72981 1.05297
103 1 -1.1104 9.92367 9.61057 3.74551
142 1 -1.1104 12.5608 12.6938 1.00723
146 1 -1.1104 12.7415 12.3964 3.6983
153 1 -1.1104 9.68733 12.5886 0.838715
158 1 -1.1104 9.99285 12.3404 3.52808
143 1 -1.1104 12.6409 12.6564 6.51113
324 2 2.2208 10.989 19.4027 7.93353
111 1 -1.1104 6.7943 12.6641 6.64356
137 2 2.2208 -0.273103 16.8684 5.2602
9028 2 2.2208 2.40022 -5.55775 8.18881
119 2 2.2208 5.41182 13.8684 2.37066
130 2 2.2208 2.63749 13.9387 5.22608
106 2 2.2208 5.39144 16.5867 5.16802
109 1 -1.1104 1.24285 18.1996 0.907747
114 1 -1.1104 1.15144 18.342 3.68438
116 1 -1.1104 1.31264 15.6153 0.972021
120 2 2.2208 5.41624 19.5296 2.49787
121 1 -1.1104 1.08227 15.541 3.53031
125 1 -1.1104 4.15393 18.2697 1.0084
127 2 2.2208 2.5241 16.866 2.30694
129 1 -1.1104 3.991 18.3203 3.71611
131 2 2.2208 2.69433 19.8207 5.32094
132 1 -1.1104 4.07322 15.4641 0.866982
134 1 -1.1104 3.77229 15.3845 3.57425
133 1 -1.1104 3.76193 15.4068 6.57773
135 2 2.2208 -0.230952 14.1107 2.3418
136 2 2.2208 -0.259574 19.5885 2.41178
117 1 -1.1104 1.12651 15.558 6.81251
296 1 -1.1104 6.7901 18.167 12.4892
331 2 2.2208 11.0571 16.8498 10.7367
311 2 2.2208 -0.285386 19.772 7.97166
122 1 -1.1104 6.74058 15.3341 3.76351
140 1 -1.1104 6.80719 15.4019 1.02917
139 1 -1.1104 6.83799 17.926 4.0103
138 1 -1.1104 6.89142 18.2652 1.03234
150 2 2.2208 11.1259 13.9611 2.46216
160 2 2.2208 8.50492 13.9333 5.04653
141 2 2.2208 11.1195 16.8677 5.16126
144 1 -1.1104 12.4586 18.3872 0.929407
147 1 -1.1104 12.3543 18.245 3.66775
148 1 -1.1104 12.4495 15.6054 1.0977
151 2 2.2208 11.0053 19.6451 2.27026
152 1 -1.1104 12.4703 15.4117 3.99237
155 1 -1.1104 9.69928 18.064 1.15352
157 2 2.2208 8.20245 16.7899 2.45217
159 1 -1.1104 9.59074 18.0298 3.70404
161 2 2.2208 8.16374 19.4227 5.28377
162 1 -1.1104 9.80703 15.2752 0.96803
164 1 -1.1104 9.70618 15.2105 3.62311
112 1 -1.1104 6.7324 18.0734 6.54664
118 1 -1.1104 6.73577 15.4331 6.61111
172 1 -1.1104 4.1153 -4.11374 6.72223
9037 2 2.2208 11.0212 -5.57344 -0.286851
166 1 -1.1104 1.1506 -4.48877 6.7245
170 1 -1.1104 1.03379 -1.60686 6.62861
200 2 2.2208 -0.308876 -2.68267 8.21223
316 2 2.2208 8.28863 19.4792 10.9703
9032 2 2.2208 11.1931 -5.64863 10.9335
201 2 2.2208 -0.234137 0.0470153 10.9324
174 1 -1.1104 4.0563 -1.36908 6.94912
175 2 2.2208 5.54316 0.0335537 10.8999
176 1 -1.1104 1.35314 -4.02354 12.2754
180 1 -1.1104 1.07615 -4.02784 9.51033
184 1 -1.1104 1.24569 -1.27918 12.4003
186 2 2.2208 5.4817 -2.80963 8.22666
188 1 -1.1104 1.04069 -1.2928 9.47839
190 1 -1.1104 3.91506 -4.11233 12.3917
192 2 2.2208 2.58179 0.0137434 8.20941
193 1 -1.1104 3.89411 -4.39162 9.33873
195 2 2.2208 2.58582 -2.68178 11.0927
197 1 -1.1104 3.9675 -1.40984 12.4017
198 1 -1.1104 3.94146 -1.31422 9.55607
185 1 -1.1104 6.98223 -1.34047 12.5746
178 1 -1.1104 6.63239 -4.41102 12.4605
288 1 -1.1104 6.84848 18.0281 9.50741
315 1 -1.1104 9.70891 15.5298 12.2498
385 2 2.2208 8.25366 8.33069 -0.275857
189 1 -1.1104 6.9198 -1.3583 9.82628
207 1 -1.1104 12.7226 -1.35446 6.27329
371 2 2.2208 -0.362268 16.742 -0.425894
205 1 -1.1104 12.505 -4.2577 6.7197
182 1 -1.1104 6.72135 -4.12091 9.72409
211 2 2.2208 11.0296 -0.220927 11.027
212 1 -1.1104 12.564 -4.32671 12.3279
214 1 -1.1104 12.8079 -3.9993 9.31648
216 1 -1.1104 12.3684 -1.58972 12.2014
217 2 2.2208 11.2646 -2.79511 8.10175
219 1 -1.1104 12.4873 -1.21843 9.51101
220 1 -1.1104 9.77505 -4.35713 12.4328
222 2 2.2208 8.45155 -0.0473109 8.15855
223 1 -1.1104 9.9111 -4.36488 9.73415
225 2 2.2208 8.50732 -2.96704 10.932
227 1 -1.1104 9.58689 -1.57296 12.5274
228 1 -1.1104 9.77869 -1.66609 9.56839
29 2 2.2208 -0.139721 5.61469 10.8905
238 1 -1.1104 4.00481 6.8701 6.75102
368 2 2.2208 -0.29155 0.290351 -0.382035
167 1 -1.1104 1.28511 1.49447 6.9278
236 1 -1.1104 1.04733 4.18339 6.61192
234 1 -1.1104 0.973592 7.15526 6.76854
177 1 -1.1104 1.34361 1.69526 12.6564
181 1 -1.1104 1.17473 1.37348 9.8952
187 2 2.2208 5.5512 2.74018 8.37046
191 1 -1.1104 4.137 1.43442 12.4257
194 1 -1.1104 3.92212 1.47433 9.43947
196 2 2.2208 2.58422 2.82187 11.1606
240 2 2.2208 5.31922 5.62746 11.0621
246 1 -1.1104 1.2151 4.47875 12.3706
251 1 -1.1104 1.14596 4.2107 9.59647
256 2 2.2208 2.47923 5.57173 8.06084
258 1 -1.1104 3.87959 6.94372 9.68583
260 1 -1.1104 4.16079 4.27526 12.6014
262 1 -1.1104 3.99237 4.02735 9.6557
255 1 -1.1104 3.98984 7.10348 12.5365
242 1 -1.1104 1.27297 7.20724 12.4128
244 1 -1.1104 1.12128 6.90308 9.63635
235 1 -1.1104 6.91433 6.96902 6.83629
266 1 -1.1104 12.5192 4.34928 6.70994
183 1 -1.1104 6.92128 1.18904 9.42047
248 1 -1.1104 6.67199 4.30008 12.4838
245 1 -1.1104 6.81568 7.00532 9.77038
179 1 -1.1104 6.85043 1.50839 12.1522
237 1 -1.1104 6.88718 4.15577 6.65153
253 1 -1.1104 6.7792 4.38602 9.61926
267 1 -1.1104 9.55433 6.98548 6.586
209 1 -1.1104 9.96094 1.51063 6.87777
243 1 -1.1104 6.95049 7.08981 12.3109
213 1 -1.1104 12.4709 1.34818 12.3885
215 1 -1.1104 12.2427 1.59193 9.66029
218 2 2.2208 11.3601 3.00609 8.2538
221 1 -1.1104 9.6782 1.31221 12.4619
224 1 -1.1104 9.55278 1.06534 9.79352
226 2 2.2208 8.27123 2.78469 10.897
268 1 -1.1104 9.8684 4.29196 9.68947
271 1 -1.1104 9.50593 4.24957 12.2237
273 1 -1.1104 9.79734 7.00763 9.2633
275 2 2.2208 8.30056 5.77187 8.39316
276 2 2.2208 10.9834 5.67699 11.0969
278 1 -1.1104 12.4114 6.9799 12.4924
280 1 -1.1104 12.4917 4.21137 12.3817
283 1 -1.1104 12.6177 4.46345 9.63382
285 1 -1.1104 9.65582 7.04822 12.3518
279 1 -1.1104 12.4352 7.21085 9.68398
30 2 2.2208 -0.247615 8.48162 8.09432
62 1 -1.1104 1.13945 9.87574 6.50868
320 2 2.2208 8.19157 16.6938 7.9891
384 2 2.2208 11.018 5.52323 -0.436262
108 1 -1.1104 1.24104 12.7335 6.4686
305 1 -1.1104 3.92582 12.5418 9.72246
294 1 -1.1104 0.953434 12.5685 9.40673
241 2 2.2208 5.38698 11.2637 10.8206
247 1 -1.1104 0.994241 10.0827 12.4381
250 2 2.2208 5.33517 8.44114 8.15901
252 1 -1.1104 1.37875 9.52573 9.32695
257 2 2.2208 2.29806 11.2279 8.02323
259 2 2.2208 2.70762 8.34037 10.8835
261 1 -1.1104 3.94393 9.92384 12.1693
263 1 -1.1104 4.08786 9.84334 9.46737
299 1 -1.1104 0.960763 12.7458 12.2932
287 1 -1.1104 3.923 12.7283 12.4664
329 1 -1.1104 12.3789 18.0162 12.3177
90 1 -1.1104 12.8278 10.0395 6.56773
101 1 -1.1104 9.70538 9.98704 6.68779
65 1 -1.1104 6.88781 9.84014 6.54976
254 1 -1.1104 6.9072 9.83642 9.38866
154 1 -1.1104 9.76482 12.6349 6.49334
297 1 -1.1104 6.56316 12.5343 12.4891
249 1 -1.1104 6.88449 9.75396 12.1421
290 1 -1.1104 6.96165 12.4761 9.45567
330 1 -1.1104 12.7136 12.4111 12.1532
328 1 -1.1104 12.4876 12.4119 9.47061
322 1 -1.1104 9.55034 12.5549 12.3458
319 1 -1.1104 9.77297 12.6378 9.53368
264 1 -1.1104 9.76193 9.98811 9.28752
270 1 -1.1104 9.67087 9.80699 12.2003
272 2 2.2208 8.31517 8.57256 10.7906
274 2 2.2208 8.30755 11.1986 8.05554
277 2 2.2208 11.1008 11.1476 11.0228
281 1 -1.1104 12.4277 9.67395 12.2865
282 2 2.2208 11.128 8.4913 7.96399
284 1 -1.1104 12.5728 9.68582 9.51
325 2 2.2208 11.2114 13.871 8.02862
370 2 2.2208 8.22522 -2.79773 -0.276353
51 2 2.2208 -0.275668 11.2281 11.0302
126 1 -1.1104 3.84091 18.5426 6.93815
313 2 2.2208 -0.156474 14.1114 8.07279
312 2 2.2208 -0.0725322 16.9336 10.9784
9030 2 2.2208 -0.107194 -5.52247 10.9731
302 1 -1.1104 1.21505 18.3223 6.75303
286 1 -1.1104 3.95426 18.057 12.3232
307 1 -1.1104 1.56764 15.4426 12.43
310 2 2.2208 2.77263 13.9621 11.019
295 2 2.2208 5.46245 13.9284 8.09177
293 2 2.2208 5.45443 19.5677 8.26107
292 1 -1.1104 1.3905 15.369 9.73977
291 1 -1.1104 0.931938 18.3796 9.48586
300 2 2.2208 5.48718 16.6529 10.9956
304 1 -1.1104 4.28895 15.3324 9.45819
301 1 -1.1104 3.89301 17.9343 9.63475
303 2 2.2208 2.54759 16.9001 8.09447
309 2 2.2208 2.70365 19.5498 10.9721
308 1 -1.1104 4.36728 15.3186 12.6142
298 1 -1.1104 1.09235 18.2258 12.4316
375 2 2.2208 2.61641 19.5253 -0.396183
27 2 2.2208 -0.177925 2.81527 2.6324
318 1 -1.1104 9.6539 18.1606 9.37195
321 1 -1.1104 9.59147 18.0875 12.2078
323 1 -1.1104 12.2649 15.4039 9.34334
145 1 -1.1104 12.6999 18.2938 6.46918
314 1 -1.1104 9.60083 15.3051 9.26883
306 1 -1.1104 6.83777 15.1856 12.2601
326 1 -1.1104 12.4635 15.4362 11.9881
289 1 -1.1104 6.9539 15.5461 9.53212
149 1 -1.1104 12.5613 15.2934 6.62735
327 1 -1.1104 12.4717 18.1536 9.40975
156 1 -1.1104 9.58049 18.0107 6.47738
317 2 2.2208 8.36278 14.124 10.8347
369 2 2.2208 11.1006 -0.235108 -0.226294
365 2 2.2208 2.69503 -2.64815 -0.222988
350 2 2.2208 11.1006 2.81711 13.6239
379 2 2.2208 5.26934 5.69951 -0.269983
381 2 2.2208 5.46434 11.2106 -0.209102
9024 2 2.2208 -0.198755 -5.63441 5.16616
352 2 2.2208 5.45142 8.53631 13.5599
388 2 2.2208 5.49798 0.00933016 16.6425
389 1 -1.1104 1.28829 -4.08073 17.981
393 1 -1.1104 1.28709 -4.34256 15.2523
401 1 -1.1104 1.3364 -1.37949 18.087
403 2 2.2208 5.41725 -2.80841 19.6547
405 1 -1.1104 1.35869 -1.53293 15.2881
409 1 -1.1104 4.12043 -4.23735 18.0982
411 2 2.2208 2.61084 -0.0481682 19.4523
412 1 -1.1104 4.12542 -4.3159 15.126
416 2 2.2208 2.818 -2.86711 16.5602
418 1 -1.1104 4.0199 -1.28758 18.0269
419 1 -1.1104 4.04212 -1.62723 15.1887
394 1 -1.1104 1.20997 -4.24535 20.7771
424 2 2.2208 -0.080125 -0.0739522 16.5599
353 2 2.2208 2.38063 11.3657 13.8007
425 2 2.2208 -0.0201358 -2.64322 19.4859
458 2 2.2208 -0.230607 19.5916 19.4014
624 2 2.2208 -0.103123 -2.81666 25.1413
626 2 2.2208 -0.188753 3.10838 25.2041
407 1 -1.1104 6.96641 -1.4773 15.3933
402 1 -1.1104 6.68264 -1.54536 18.111
343 2 2.2208 8.23076 0.0151766 13.7352
9187 2 2.2208 2.56547 -5.56175 19.4337
386 2 2.2208 11.1247 11.1759 27.8179
391 1 -1.1104 6.67436 -4.2476 18.0157
397 1 -1.1104 7.06688 -4.41947 15.2826
431 2 2.2208 11.2258 -0.138911 16.5412
432 1 -1.1104 12.5238 -4.32851 18.3665
434 1 -1.1104 12.838 -4.18375 15.3708
438 1 -1.1104 12.3588 -1.66972 17.9296
439 2 2.2208 11.1499 -2.75974 19.3356
441 1 -1.1104 12.4853 -1.46843 15.238
443 1 -1.1104 9.71187 -4.41621 18.1218
445 2 2.2208 8.04874 0.113461 19.2795
446 1 -1.1104 9.85489 -4.41227 15.1828
450 2 2.2208 8.22383 -2.99328 16.7513
452 1 -1.1104 9.51292 -1.55915 18.0815
453 1 -1.1104 9.54928 -1.49274 15.2644
398 1 -1.1104 6.71312 -4.22327 20.7924
442 1 -1.1104 12.3706 -1.23387 20.8559
9119 2 2.2208 11.0208 -5.54971 22.172
447 1 -1.1104 9.65171 -4.12399 20.8216
390 1 -1.1104 1.38461 1.31389 17.9573
395 1 -1.1104 1.37952 1.38548 15.3877
404 2 2.2208 5.37511 2.93111 19.5619
410 1 -1.1104 4.37023 1.41566 18.1872
414 1 -1.1104 4.23073 1.21577 15.1894
417 2 2.2208 2.71707 2.84892 16.71
464 2 2.2208 5.48359 5.69569 16.6458
466 1 -1.1104 1.36727 6.91818 17.8739
472 1 -1.1104 1.35405 4.20087 18.1495
477 1 -1.1104 1.30228 4.20804 15.2675
485 1 -1.1104 4.12309 7.13944 17.9614
486 2 2.2208 2.84825 5.67068 19.3966
491 1 -1.1104 3.91256 4.17586 18.128
493 1 -1.1104 4.04037 4.0585 15.2592
488 1 -1.1104 3.91834 6.89157 15.2748
468 1 -1.1104 1.28717 7.00015 15.231
399 1 -1.1104 6.98783 1.29068 15.0721
415 1 -1.1104 4.00354 1.66466 20.8713
467 1 -1.1104 6.81871 7.03555 17.8314
9157 2 2.2208 8.25366 -5.49411 19.5288
427 2 2.2208 -0.277605 2.90871 19.3303
494 1 -1.1104 3.98069 4.29235 20.8877
396 1 -1.1104 1.31118 1.48796 20.8772
338 2 2.2208 5.27159 -2.98902 13.7442
335 2 2.2208 -0.28254 19.5735 13.8099
392 1 -1.1104 7.1134 1.31219 17.8395
481 1 -1.1104 6.91056 4.30073 15.3956
474 1 -1.1104 6.82773 4.26379 18.2778
470 1 -1.1104 6.68632 7.11894 15.0315
433 1 -1.1104 12.612 1.24123 18.0857
436 1 -1.1104 12.5151 1.20967 15.1989
440 2 2.2208 11.0697 2.74176 19.4634
444 1 -1.1104 9.65254 1.11849 17.9682
448 1 -1.1104 9.83657 1.48541 15.4017
451 2 2.2208 8.37384 2.87777 16.7981
500 2 2.2208 11.186 5.50444 16.5484
505 1 -1.1104 12.5261 3.99737 17.8065
508 1 -1.1104 12.4907 4.30257 15.0012
512 1 -1.1104 9.50496 6.933 18.0036
513 2 2.2208 8.22393 5.56692 19.5636
515 1 -1.1104 9.56437 7.09983 15.1262
518 1 -1.1104 9.58635 4.04474 18.3249
520 1 -1.1104 9.7909 4.24406 15.1076
503 1 -1.1104 12.4652 7.08273 15.1818
502 1 -1.1104 12.4861 6.84095 18.0941
437 1 -1.1104 12.4739 1.52194 20.7153
504 1 -1.1104 12.4773 7.09042 20.8291
516 1 -1.1104 9.72966 7.23924 20.7502
400 1 -1.1104 6.77448 1.58338 20.775
574 1 -1.1104 12.5291 15.482 20.7592
680 1 -1.1104 6.89197 15.54 23.4033
648 2 2.2208 -0.201011 11.5214 16.7477
465 2 2.2208 5.37362 11.1524 16.5738
473 1 -1.1104 1.18652 9.65851 18.0164
476 2 2.2208 5.55648 8.43001 19.3906
479 1 -1.1104 1.1057 10.1428 15.2689
487 2 2.2208 2.47815 11.0853 19.3649
490 2 2.2208 2.62124 8.38093 16.5035
492 1 -1.1104 3.95719 9.86178 17.8334
495 1 -1.1104 3.81617 9.85346 15.079
528 1 -1.1104 1.31941 12.6318 17.9082
532 1 -1.1104 0.967393 12.8344 15.1778
548 1 -1.1104 4.00536 12.4569 18.1045
551 1 -1.1104 4.1778 12.6928 15.3359
542 2 2.2208 5.09315 13.954 19.4634
530 1 -1.1104 7.12362 12.5888 18.101
475 1 -1.1104 6.94049 9.85491 17.9562
536 1 -1.1104 7.03982 12.6855 15.1134
483 1 -1.1104 6.82151 9.82046 14.9001
501 2 2.2208 11.1293 11.3564 16.631
506 1 -1.1104 12.5995 9.74391 17.8952
507 2 2.2208 11.1071 8.51282 19.3438
510 1 -1.1104 12.4488 9.94881 15.2586
514 2 2.2208 8.29144 11.1561 19.3289
517 2 2.2208 8.27937 8.3403 16.5609
519 1 -1.1104 9.78205 9.89116 17.8922
522 1 -1.1104 9.64097 9.92908 15.1044
564 1 -1.1104 12.619 12.5642 18.0081
566 1 -1.1104 12.6052 12.7895 14.9022
575 1 -1.1104 9.93707 12.7164 17.8563
578 1 -1.1104 9.80829 12.6724 15.0107
511 1 -1.1104 12.5132 9.85862 20.696
567 1 -1.1104 12.6264 12.6804 20.7661
579 1 -1.1104 9.68671 12.7659 20.6823
523 1 -1.1104 9.50192 9.98414 20.6707
524 1 -1.1104 12.5481 15.5785 23.7501
346 2 2.2208 11.1545 -2.77878 13.8072
342 2 2.2208 -0.142653 14.0698 13.7275
357 2 2.2208 2.65718 16.9478 13.8069
714 1 -1.1104 6.62927 15.2694 26.2402
555 2 2.2208 2.51723 14.167 16.6246
527 2 2.2208 5.37518 16.8704 16.7085
529 1 -1.1104 1.17007 18.3363 18.1616
534 1 -1.1104 1.35586 18.114 15.3589
540 1 -1.1104 1.2171 15.4442 18.1526
543 2 2.2208 5.36341 19.5688 19.4856
544 1 -1.1104 1.15549 15.3757 15.3062
549 1 -1.1104 4.08983 18.271 18.0873
550 2 2.2208 2.53823 16.9333 19.8098
553 1 -1.1104 4.12871 18.3321 15.094
556 2 2.2208 2.61523 19.5982 16.7198
557 1 -1.1104 3.84368 15.708 18.4772
558 1 -1.1104 3.96173 15.3963 15.6621
559 1 -1.1104 3.92914 15.3512 21.0267
554 1 -1.1104 3.68753 18.5204 20.9113
457 2 2.2208 -0.315673 14.1439 19.5212
535 1 -1.1104 0.970318 18.0819 20.6876
620 1 -1.1104 9.31177 15.2079 26.1442
9121 2 2.2208 2.70422 -5.60654 25.0273
541 1 -1.1104 6.42854 15.4191 18.0176
538 1 -1.1104 6.762 18.2056 15.3486
546 1 -1.1104 6.81834 15.4932 15.2203
531 1 -1.1104 6.77776 18.1474 18.0325
582 2 2.2208 8.22397 14.0247 16.6614
571 2 2.2208 11.0468 14.1819 19.4618
563 2 2.2208 10.9038 16.758 16.4982
565 1 -1.1104 12.4648 18.2932 18.0068
568 1 -1.1104 12.3403 18.2094 15.2462
570 1 -1.1104 12.471 15.2277 17.8423
572 2 2.2208 11.0181 19.5672 19.3851
573 1 -1.1104 12.4532 15.4773 15.1531
576 1 -1.1104 9.75415 18.163 18.0264
577 2 2.2208 8.16505 16.9254 19.434
580 1 -1.1104 9.54595 18.2798 15.1887
583 2 2.2208 8.347 19.6681 16.7419
584 1 -1.1104 9.63751 15.5463 18.0148
585 1 -1.1104 9.63324 15.5008 14.9651
569 1 -1.1104 12.2444 18.308 20.7753
581 1 -1.1104 9.45758 18.3425 20.9798
413 1 -1.1104 3.86002 -4.13561 20.951
625 2 2.2208 -0.221398 0.310952 22.2917
456 2 2.2208 -0.164786 16.8867 16.7081
622 2 2.2208 -0.193784 8.54301 19.4292
420 1 -1.1104 3.85595 -1.32946 20.9186
406 1 -1.1104 1.28551 -1.14988 21.0218
591 2 2.2208 5.45934 0.086035 22.2416
592 1 -1.1104 1.32207 -4.10221 23.7477
596 1 -1.1104 1.20981 -4.43931 26.3169
600 1 -1.1104 1.00933 -1.10568 23.7032
602 2 2.2208 5.50423 -2.76558 25.1886
604 1 -1.1104 1.05284 -1.29573 26.3945
606 1 -1.1104 3.97936 -4.12365 23.7171
608 2 2.2208 2.54504 0.00788907 25.324
609 1 -1.1104 4.0871 -4.30893 26.7735
611 2 2.2208 2.60217 -2.56887 22.5535
613 1 -1.1104 3.93698 -1.55091 24.0844
614 1 -1.1104 3.99136 -1.523 26.7804
598 1 -1.1104 6.88175 -4.34969 26.6314
605 1 -1.1104 6.93701 -1.54138 26.3963
539 1 -1.1104 6.61534 18.2239 20.8841
621 2 2.2208 -0.192919 5.86976 16.6485
594 1 -1.1104 6.71236 -4.25477 23.7051
408 1 -1.1104 6.61858 -1.42948 21.0334
601 1 -1.1104 6.8446 -1.31315 23.6717
454 1 -1.1104 9.47406 -1.37867 20.9905
435 1 -1.1104 12.5478 -4.28339 20.986
627 2 2.2208 11.068 0.0903033 22.2906
628 1 -1.1104 12.3285 -4.44939 23.5526
630 1 -1.1104 12.7568 -4.11503 26.3793
632 1 -1.1104 12.5086 -1.44438 23.5527
633 2 2.2208 11.1938 -2.80621 25.0964
635 1 -1.1104 12.5252 -1.40666 26.5567
636 1 -1.1104 9.40537 -4.18428 23.8603
638 2 2.2208 8.38209 0.0286417 25.0896
639 1 -1.1104 9.78991 -3.96206 26.6102
641 2 2.2208 8.12965 -2.91254 22.2806
643 1 -1.1104 9.81713 -1.38907 23.6874
644 1 -1.1104 9.6091 -1.33024 26.6612
617 1 -1.1104 9.76601 15.2778 23.3347
588 1 -1.1104 6.86651 18.1916 26.3419
421 2 2.2208 -0.260854 5.72431 22.1166
339 2 2.2208 2.51733 0.123657 13.9664
478 1 -1.1104 1.09024 4.19107 20.7478
9189 2 2.2208 -0.151492 -5.58 16.7046
469 1 -1.1104 1.34603 6.96144 20.705
482 1 -1.1104 6.8676 4.31814 21.0557
489 1 -1.1104 4.10405 7.04077 21.0454
593 1 -1.1104 1.48502 1.43995 23.6427
597 1 -1.1104 1.30412 1.65084 26.4672
603 2 2.2208 5.44283 2.84264 25.1324
607 1 -1.1104 4.11968 1.24087 23.801
610 1 -1.1104 3.84124 1.1271 26.736
612 2 2.2208 2.6244 2.80542 22.2756
656 2 2.2208 5.37316 5.70968 22.3174
662 1 -1.1104 1.17527 4.40322 23.5507
667 1 -1.1104 1.27744 4.44586 26.4341
672 2 2.2208 2.68281 5.59644 24.8965
676 1 -1.1104 4.05698 4.03055 23.7976
678 1 -1.1104 4.15853 4.12877 26.6765
674 1 -1.1104 3.88601 7.29416 26.4853
671 1 -1.1104 4.07672 7.02789 23.693
658 1 -1.1104 1.27133 7.10697 23.8148
660 1 -1.1104 1.12101 7.3831 26.6012
661 1 -1.1104 6.62404 6.78654 26.3943
509 1 -1.1104 12.5674 4.23108 20.6631
521 1 -1.1104 9.85172 4.24438 21.0632
449 1 -1.1104 9.66516 1.34207 20.6068
664 1 -1.1104 7.02982 4.33967 23.815
595 1 -1.1104 6.93223 1.34447 23.6731
669 1 -1.1104 6.99684 4.17192 26.4907
471 1 -1.1104 6.84997 7.07198 20.7489
659 1 -1.1104 6.70172 7.1955 23.633
599 1 -1.1104 6.71427 1.39199 26.4408
629 1 -1.1104 12.7554 1.33192 23.7706
631 1 -1.1104 12.301 1.40961 26.6714
634 2 2.2208 11.4304 2.86018 25.0351
637 1 -1.1104 10.0431 1.28805 23.865
640 1 -1.1104 9.52556 1.41652 26.4894
642 2 2.2208 8.52958 3.00875 22.4547
688 1 -1.1104 9.94267 4.05663 26.4447
690 1 -1.1104 9.96716 4.22149 23.6323
694 2 2.2208 8.32316 5.71173 25.1215
695 2 2.2208 11.2049 5.70643 22.1316
697 1 -1.1104 12.4594 7.06558 23.6782
698 1 -1.1104 12.2651 7.09169 26.4929
699 1 -1.1104 12.7284 4.34282 23.6089
702 1 -1.1104 12.7336 4.156 26.5056
704 1 -1.1104 9.69345 7.00399 23.6422
692 1 -1.1104 9.53831 6.93781 26.5199
616 2 2.2208 8.22601 19.7926 22.2792
462 2 2.2208 11.0826 17.0651 22.3183
499 1 -1.1104 12.4904 18.514 26.5377
480 1 -1.1104 1.24481 9.79379 20.7872
496 1 -1.1104 4.04172 9.81211 20.5962
533 1 -1.1104 1.25679 12.5974 20.8775
590 1 -1.1104 9.69781 18.2424 26.5468
685 2 2.2208 -0.21703 11.3871 22.3566
684 2 2.2208 -0.26958 8.42549 25.1537
552 1 -1.1104 3.71305 12.5891 20.9279
657 2 2.2208 5.25404 11.3365 22.2131
663 1 -1.1104 1.40292 9.91712 23.5282
666 2 2.2208 5.38138 8.41307 25.063
668 1 -1.1104 1.18023 9.91827 26.5288
673 2 2.2208 2.72741 11.1745 25.0772
675 2 2.2208 2.62415 8.36843 22.3083
677 1 -1.1104 4.21388 9.76948 23.7713
679 1 -1.1104 4.15291 9.86411 26.5018
681 1 -1.1104 3.88351 12.6589 26.3174
706 1 -1.1104 1.14635 12.621 23.6963
713 1 -1.1104 3.9461 12.5793 23.6995
717 1 -1.1104 1.08732 12.9105 26.4311
665 1 -1.1104 6.81988 9.90257 23.5483
586 1 -1.1104 9.5619 15.6128 20.6651
537 1 -1.1104 6.68645 12.7166 20.7707
484 1 -1.1104 6.76322 9.85306 20.811
709 1 -1.1104 6.7759 12.8091 23.5657
712 1 -1.1104 6.75853 12.3294 26.4154
670 1 -1.1104 6.81585 9.73224 26.633
589 1 -1.1104 9.80036 12.5643 26.3476
687 1 -1.1104 9.70945 9.89218 26.3839
689 1 -1.1104 10.0523 9.55672 23.2896
691 2 2.2208 8.21314 8.59716 22.2705
693 2 2.2208 8.27525 11.1726 24.843
696 2 2.2208 11.1477 11.3691 22.0582
700 1 -1.1104 12.5439 10.023 23.6882
701 2 2.2208 11.0409 8.43402 24.9928
703 1 -1.1104 12.6354 10.0006 26.5057
561 1 -1.1104 9.6105 12.3056 23.3098
463 1 -1.1104 12.5179 12.867 23.6226
498 1 -1.1104 12.4042 12.7013 26.4629
341 2 2.2208 5.65443 2.78589 13.9725
646 2 2.2208 -0.334754 14.1346 25.0725
623 2 2.2208 -0.303525 17.0431 22.2732
545 1 -1.1104 0.99298 15.3325 21.1828
686 1 -1.1104 4.04609 18.2958 26.4029
705 2 2.2208 5.34924 16.8533 22.2866
647 2 2.2208 2.42541 13.8693 22.3691
720 2 2.2208 5.43697 13.8787 24.9601
715 1 -1.1104 1.24574 18.3886 26.3384
719 2 2.2208 5.31816 19.6319 25.1288
711 1 -1.1104 4.04564 18.1048 23.7642
707 1 -1.1104 1.05305 18.4632 23.5686
716 1 -1.1104 0.915606 15.6428 26.4441
649 2 2.2208 2.42957 19.6876 22.4324
652 1 -1.1104 4.05917 15.3563 23.6352
655 1 -1.1104 1.19824 15.5338 23.7998
682 1 -1.1104 3.86167 15.6828 26.3819
683 2 2.2208 2.51196 16.8734 25.0976
587 2 2.2208 8.00461 16.9275 24.9362
562 1 -1.1104 9.61475 18.072 23.7467
560 1 -1.1104 12.3629 15.4614 26.628
547 1 -1.1104 6.64945 15.4078 20.8433
615 2 2.2208 8.16669 14.0801 22.0315
525 2 2.2208 11.0996 14.1727 25.1713
497 1 -1.1104 12.4363 18.2298 23.7343
718 1 -1.1104 6.65892 18.5166 23.6064
526 2 2.2208 10.8693 19.7611 25.0561
334 2 2.2208 -0.0606976 -2.77352 13.9067
351 2 2.2208 2.60289 5.47123 13.8488
362 2 2.2208 8.16054 16.7703 13.7551
9122 2 2.2208 5.41843 -5.69885 22.2706
367 2 2.2208 -0.0425234 8.45919 13.8609
374 2 2.2208 5.46319 16.8225 27.8177
645 2 2.2208 -0.325301 19.8328 25.0202
337 2 2.2208 0.0367382 2.88592 14.0076
356 2 2.2208 8.3889 11.254 13.6821
358 2 2.2208 5.42894 19.6633 13.9052
355 2 2.2208 10.9431 8.48863 13.7201
354 2 2.2208 8.11844 5.60372 13.6876
347 2 2.2208 8.27113 14.0202 27.6355
359 2 2.2208 5.50125 13.9279 13.842
360 2 2.2208 10.909 19.4319 13.6856
372 2 2.2208 8.38034 2.85213 27.6902
9049 2 2.2208 2.4954 -5.63869 13.9244
373 2 2.2208 2.63437 14.2867 27.738
382 2 2.2208 -0.281188 11.3733 27.7242
721 2 2.2208 5.38432 22.3019 5.25289
723 1 -1.1104 1.14111 23.7321 1.07866
724 1 -1.1104 1.17115 23.8852 3.85394
725 1 -1.1104 1.07057 20.9269 0.872804
727 2 2.2208 5.42155 25.1966 2.40739
728 1 -1.1104 1.13363 21.2329 3.85196
730 1 -1.1104 3.77422 23.6911 0.847236
731 2 2.2208 2.56059 22.4464 2.41855
733 1 -1.1104 3.98838 23.8856 3.92325
734 2 2.2208 2.59424 25.424 5.17967
735 1 -1.1104 3.85101 20.8616 0.996568
737 1 -1.1104 4.00133 21.1255 3.82134
729 1 -1.1104 1.20519 26.6676 3.79985
736 1 -1.1104 4.13061 26.7304 0.82572
738 1 -1.1104 4.01373 26.6752 3.63654
863 1 -1.1104 6.90653 23.607 6.7644
726 1 -1.1104 1.27702 26.6709 0.836366
1038 2 2.2208 -0.388486 22.5756 11.1086
739 2 2.2208 -0.0901621 27.9916 5.22924
840 2 2.2208 -0.24212 45.162 5.15791
744 1 -1.1104 6.63677 21.1369 0.915531
746 1 -1.1104 6.78832 20.8685 3.94033
745 1 -1.1104 7.04645 26.4884 0.809018
742 1 -1.1104 6.47268 23.7696 1.12088
743 1 -1.1104 6.7034 23.7881 3.84013
748 2 2.2208 11.1064 22.3282 5.25774
750 1 -1.1104 12.0391 23.8319 0.979692
751 1 -1.1104 12.2922 23.7411 3.71866
752 1 -1.1104 12.33 21.1543 1.00376
754 2 2.2208 11.0127 25.2944 2.27618
755 1 -1.1104 12.761 20.9845 3.80422
757 1 -1.1104 9.22297 23.8282 0.771026
758 2 2.2208 8.00719 22.4072 2.36908
760 1 -1.1104 9.60841 23.8143 3.64653
761 2 2.2208 8.08136 25.0075 5.24238
762 1 -1.1104 9.45347 21.0469 0.80612
764 1 -1.1104 9.72915 20.7243 3.7813
756 1 -1.1104 12.4847 26.6003 3.82641
765 1 -1.1104 9.65677 26.7533 3.76827
753 1 -1.1104 12.4351 26.7563 0.957124
747 1 -1.1104 6.78484 26.525 3.62081
763 1 -1.1104 9.43389 26.5633 1.13949
867 1 -1.1104 6.6842 26.6023 6.40839
841 2 2.2208 -0.404683 42.4053 2.34208
722 2 2.2208 5.42019 28.2023 5.12972
732 2 2.2208 2.59738 28.0857 2.39363
770 1 -1.1104 1.2572 29.573 1.11195
773 1 -1.1104 1.32789 29.6209 3.79613
776 1 -1.1104 1.21012 32.4253 1.19987
777 2 2.2208 5.19048 30.8114 2.30649
779 1 -1.1104 1.18846 32.4978 3.95244
781 1 -1.1104 3.93968 29.3766 0.724203
784 1 -1.1104 3.98325 29.4756 3.72737
786 2 2.2208 2.40612 30.9414 5.30255
788 1 -1.1104 3.94857 32.3497 0.97872
789 1 -1.1104 3.95664 32.216 3.72823
919 1 -1.1104 1.19403 29.5512 6.443
794 1 -1.1104 6.86651 29.5607 3.77795
1071 2 2.2208 8.07575 42.3418 -0.438198
927 1 -1.1104 4.05692 32.2948 6.37444
1006 2 2.2208 -0.444566 45.2906 10.8682
1618 1 -1.1104 1.21662 46.6702 9.66406
795 1 -1.1104 6.76494 32.3825 0.905187
921 1 -1.1104 6.82613 29.5094 6.68343
793 1 -1.1104 6.61143 29.3847 1.09232
780 1 -1.1104 6.69463 32.3331 3.82097
749 2 2.2208 11.1751 28.0969 5.04686
759 2 2.2208 8.12018 28.0276 2.28594
797 1 -1.1104 12.2956 29.6684 0.870702
799 1 -1.1104 12.4143 29.4006 3.55783
801 1 -1.1104 12.2673 32.4022 1.00163
802 2 2.2208 10.9306 30.825 2.32644
804 1 -1.1104 12.6342 32.298 4.00042
805 1 -1.1104 9.41712 29.3194 0.943423
808 1 -1.1104 9.54173 29.5339 3.39306
810 2 2.2208 8.16671 30.9572 5.00001
812 1 -1.1104 9.3477 32.1976 0.943308
813 1 -1.1104 9.51698 32.5668 3.80425
958 1 -1.1104 9.58664 32.098 6.66568
956 1 -1.1104 9.47471 29.286 6.16341
953 1 -1.1104 12.5181 29.381 6.47529
1663 1 -1.1104 9.34181 46.7354 9.56055
741 2 2.2208 -0.259791 25.4015 2.29862
769 2 2.2208 5.34494 33.7851 5.18858
771 1 -1.1104 1.3066 35.1689 0.885869
774 1 -1.1104 0.947708 35.066 3.62614
778 2 2.2208 5.18629 36.5349 2.36354
782 1 -1.1104 4.01883 35.1923 0.932225
783 2 2.2208 2.61804 33.8559 2.55288
785 1 -1.1104 3.95724 35.2292 3.81351
787 2 2.2208 2.32434 36.6113 5.1734
815 2 2.2208 5.23785 39.3487 4.89745
821 1 -1.1104 1.04664 37.9782 0.813595
826 1 -1.1104 0.961066 37.8237 3.70253
831 2 2.2208 2.43915 39.4346 2.23429
835 1 -1.1104 3.80175 38.0077 0.98207
837 1 -1.1104 3.68128 38.2021 3.76774
994 1 -1.1104 3.85553 37.9441 6.47795
772 1 -1.1104 6.71303 35.2726 0.91857
1005 2 2.2208 -0.41475 42.3248 8.04467