ITEM: TIMESTEP
60000
ITEM: NUMBER OF ATOMS
17760
ITEM: BOX BOUNDS pp pp pp
-4.5674699603323543e-01 2.7796746996033256e+01
-5.5236767528973685e+00 3.3360367675289956e+02
-4.6884476645433010e-01 2.7808844766453753e+01
ITEM: ATOMS id type q x y z
1 2 2.2208 5.20695 0.449885 5.3321
2 1 -1.1104 0.869587 -4.19759 1.2103
6 1 -1.1104 0.970246 -4.0017 3.99179
10 1 -1.1104 1.02208 -1.37878 1.14838
12 2 2.2208 5.22018 -2.58491 2.42918
14 1 -1.1104 1.08649 -1.15935 3.82471
16 1 -1.1104 4.04249 -4.10016 0.952962
18 2 2.2208 2.35547 0.187215 2.42046
19 1 -1.1104 4.08277 -4.19296 3.747
21 2 2.2208 2.3549 -2.62081 5.448
23 1 -1.1104 3.60526 -1.27781 1.10787
24 1 -1.1104 4.01173 -1.1333 3.8659
166 1 -1.1104 1.13506 -4.14486 6.69999
25 2 2.2208 -0.39767 -2.82085 2.6045
355 2 2.2208 11.0242 8.59331 13.5831
172 1 -1.1104 4.08772 -4.05412 6.6946
11 1 -1.1104 6.65853 -1.17606 0.919799
365 2 2.2208 2.64667 -2.77504 -0.447462
337 2 2.2208 -0.461658 3.12395 13.5732
82 2 2.2208 -0.258261 8.69469 2.21815
9026 2 2.2208 10.8675 -5.38852 5.22368
9025 2 2.2208 8.16659 -5.5037 2.44758
373 2 2.2208 2.50509 14.3282 -0.337944
15 1 -1.1104 6.66625 -1.19372 3.80494
8 1 -1.1104 6.78181 -4.33839 4.00905
4 1 -1.1104 6.96547 -4.06634 1.2312
31 2 2.2208 10.884 0.0897839 5.30792
32 1 -1.1104 12.3022 -3.96406 0.979189
34 1 -1.1104 12.4327 -4.09978 3.9089
36 1 -1.1104 12.3082 -1.18294 1.06239
37 2 2.2208 10.9259 -2.58462 2.47651
39 1 -1.1104 12.4177 -1.34828 4.01024
40 1 -1.1104 9.62878 -4.14665 0.948937
42 2 2.2208 8.07023 0.31261 2.41891
43 1 -1.1104 9.50492 -3.97019 3.87379
45 2 2.2208 8.09208 -2.62039 5.20809
47 1 -1.1104 9.45524 -1.13431 1.12329
48 1 -1.1104 9.58393 -1.25829 3.9086
208 1 -1.1104 9.54152 -4.01397 6.69634
342 2 2.2208 -0.390327 14.3722 13.5571
51 2 2.2208 -0.0789936 11.6793 10.9638
3 1 -1.1104 1.14408 1.6661 1.01528
7 1 -1.1104 1.00523 1.66988 3.97492
13 2 2.2208 5.23985 2.88025 2.4684
17 1 -1.1104 3.93738 1.38604 0.752236
20 1 -1.1104 3.68554 1.61846 3.88422
22 2 2.2208 2.46285 3.06738 5.32881
54 2 2.2208 5.35197 5.7962 5.24385
56 1 -1.1104 1.08246 7.1655 0.936255
58 1 -1.1104 0.937801 7.19856 3.52132
60 1 -1.1104 1.23137 4.53571 0.997458
67 1 -1.1104 1.12682 4.46044 3.94953
72 2 2.2208 2.49232 5.77071 2.69196
74 1 -1.1104 3.928 7.00042 3.81121
76 1 -1.1104 3.99195 4.17945 1.04873
79 1 -1.1104 3.82284 4.26839 3.9889
71 1 -1.1104 3.87063 6.92491 1.01127
27 2 2.2208 -0.295055 2.96349 2.35287
236 1 -1.1104 0.818272 4.43391 6.71652
81 2 2.2208 -0.216744 5.90989 5.28911
311 2 2.2208 -0.265746 20.111 7.90062
173 1 -1.1104 3.89916 1.70516 6.93697
234 1 -1.1104 1.29469 7.13716 6.59187
137 2 2.2208 -0.403161 17.1967 5.19149
57 1 -1.1104 6.72386 7.18828 0.87609
9 1 -1.1104 6.60553 1.82884 3.80501
69 1 -1.1104 6.39307 4.32595 3.82876
63 1 -1.1104 6.82457 4.1845 1.0007
59 1 -1.1104 6.90666 7.17789 3.7343
5 1 -1.1104 6.60521 1.46982 1.20652
33 1 -1.1104 12.174 1.60245 1.07699
35 1 -1.1104 12.465 1.39427 4.18762
38 2 2.2208 10.9791 2.89855 2.55656
41 1 -1.1104 9.47545 1.56539 1.1203
44 1 -1.1104 9.57185 1.42159 3.8492
46 2 2.2208 8.04073 3.07346 5.07155
84 2 2.2208 10.8256 5.79858 5.23174
86 1 -1.1104 12.3943 7.27349 0.993992
88 1 -1.1104 12.3077 4.29052 1.0038
92 1 -1.1104 12.2651 4.46023 3.79034
95 2 2.2208 8.18725 5.67613 2.34618
97 1 -1.1104 9.42672 6.89763 3.77092
99 1 -1.1104 9.62085 4.4892 1.01119
102 1 -1.1104 9.34471 3.91317 3.70406
94 1 -1.1104 9.48681 7.37555 1.16801
87 1 -1.1104 12.1487 7.21214 3.72942
235 1 -1.1104 6.79771 7.23628 6.62797
169 1 -1.1104 6.84628 1.82253 6.58272
209 1 -1.1104 9.76298 1.37349 6.60949
265 1 -1.1104 12.3723 7.16952 6.47007
230 2 2.2208 13.5592 -2.66439 11.0337
356 2 2.2208 7.98786 11.6367 13.4623
9043 2 2.2208 -0.280992 -5.51948 -0.466039
55 2 2.2208 5.44025 11.4892 5.16727
61 1 -1.1104 1.05487 9.99157 0.881778
66 2 2.2208 5.32359 8.454 2.28782
68 1 -1.1104 0.999904 10.0591 3.85301
73 2 2.2208 2.62189 11.4608 2.32999
75 2 2.2208 2.35863 8.67057 5.11357
77 1 -1.1104 4.05225 9.95234 0.839369
80 1 -1.1104 3.79661 9.80735 3.83281
107 1 -1.1104 0.962122 12.8456 0.799203
113 1 -1.1104 1.14478 12.7954 3.86825
123 1 -1.1104 3.74391 12.8855 1.03038
128 1 -1.1104 3.94642 12.8328 3.99164
9029 2 2.2208 5.28109 -5.3888 10.8246
62 1 -1.1104 1.14366 9.99921 6.60747
64 1 -1.1104 6.75324 10.1018 1.24454
108 1 -1.1104 0.952845 12.8163 6.68343
313 2 2.2208 -0.416852 14.3534 7.79714
296 1 -1.1104 6.57623 18.5823 12.1607
9022 2 2.2208 2.25538 -5.51247 2.36914
110 1 -1.1104 6.73218 12.869 0.962993
70 1 -1.1104 6.60265 9.91274 3.97535
115 1 -1.1104 6.67018 12.8316 3.76614
85 2 2.2208 11.0106 11.3484 5.3758
89 1 -1.1104 12.4243 10.065 0.945215
91 2 2.2208 10.9457 8.59094 2.40488
93 1 -1.1104 12.3361 10.0307 3.81828
96 2 2.2208 8.17844 11.4452 2.40585
98 2 2.2208 8.14403 8.54908 5.23539
100 1 -1.1104 9.58463 9.98151 1.12207
103 1 -1.1104 9.60956 9.95925 3.8177
142 1 -1.1104 12.3607 13.0503 0.767867
146 1 -1.1104 12.4992 12.9744 3.81508
153 1 -1.1104 9.53077 12.8222 0.928201
158 1 -1.1104 9.66443 12.7594 3.79526
90 1 -1.1104 12.4509 10.0587 6.44152
143 1 -1.1104 12.4067 12.9017 6.58431
154 1 -1.1104 9.39584 12.9951 6.67994
65 1 -1.1104 6.51919 10.1022 6.69153
130 2 2.2208 2.3813 14.1984 5.19725
119 2 2.2208 5.22057 14.2942 2.61215
106 2 2.2208 5.33757 17.0356 5.18587
109 1 -1.1104 0.921233 18.5335 0.965013
114 1 -1.1104 0.968371 18.7481 3.75012
116 1 -1.1104 1.17295 15.7216 1.01637
120 2 2.2208 5.17601 19.7952 2.21492
121 1 -1.1104 0.978691 15.728 3.73564
125 1 -1.1104 3.64503 18.3511 0.779518
127 2 2.2208 2.21645 17.2075 2.47756
129 1 -1.1104 3.85273 18.5177 3.65762
131 2 2.2208 2.54952 20.0037 5.07886
132 1 -1.1104 3.92138 15.4643 0.956397
134 1 -1.1104 3.7518 15.516 3.71929
118 1 -1.1104 6.66048 15.6939 6.67346
135 2 2.2208 -0.418985 14.1064 2.30344
133 1 -1.1104 3.87279 15.8623 6.57177
117 1 -1.1104 0.960851 15.4873 6.38225
140 1 -1.1104 6.75644 15.657 0.987648
139 1 -1.1104 6.67268 18.4427 3.64879
200 2 2.2208 -0.345934 -2.86689 8.13914
136 2 2.2208 -0.410615 20.1426 2.27778
126 1 -1.1104 4.04663 18.6011 6.68533
347 2 2.2208 8.23566 14.0712 -0.259048
150 2 2.2208 11.0938 14.4673 2.50376
122 1 -1.1104 6.48099 15.6277 3.8229
138 1 -1.1104 6.40385 18.5968 0.782868
160 2 2.2208 7.99352 14.2668 5.2437
141 2 2.2208 11.0623 17.3596 5.29559
144 1 -1.1104 12.3751 18.5446 0.808719
147 1 -1.1104 12.3684 18.6101 3.83205
148 1 -1.1104 12.4399 15.764 1.13975
151 2 2.2208 10.9819 19.9726 2.32918
152 1 -1.1104 12.2599 15.7168 4.06134
155 1 -1.1104 9.48723 18.4877 0.910908
157 2 2.2208 8.25945 17.0042 2.51369
159 1 -1.1104 9.53466 18.581 3.94056
161 2 2.2208 8.07582 19.8028 5.2943
162 1 -1.1104 9.83246 15.7414 0.974406
164 1 -1.1104 9.37338 15.6081 3.86506
145 1 -1.1104 12.6087 18.7173 6.55516
9032 2 2.2208 10.9469 -5.41782 10.8612
289 1 -1.1104 6.70889 15.7083 9.4512
170 1 -1.1104 0.931659 -1.29594 6.63929
174 1 -1.1104 3.85778 -1.20845 6.60384
175 2 2.2208 5.23214 0.367485 10.9238
176 1 -1.1104 0.979536 -4.2318 12.5245
180 1 -1.1104 0.987079 -4.19763 9.3806
184 1 -1.1104 0.79669 -1.41926 12.1354
186 2 2.2208 5.21107 -2.49279 7.99982
188 1 -1.1104 1.0252 -1.45775 9.377
190 1 -1.1104 3.83726 -4.11167 12.3085
192 2 2.2208 2.50947 0.137144 8.05562
193 1 -1.1104 3.80546 -4.1032 9.54744
195 2 2.2208 2.54414 -2.65984 10.8349
197 1 -1.1104 3.89521 -1.0948 12.375
198 1 -1.1104 3.69672 -1.3241 9.44745
364 2 2.2208 5.46246 0.210062 -0.44085
379 2 2.2208 5.32829 5.66481 -0.253734
325 2 2.2208 10.9119 14.2539 8.05939
288 1 -1.1104 6.59416 18.657 9.47687
171 1 -1.1104 6.64276 -0.981747 6.61121
210 1 -1.1104 9.45019 -1.34326 6.90021
168 1 -1.1104 6.82538 -3.74755 6.72201
185 1 -1.1104 6.87206 -1.15049 12.3262
189 1 -1.1104 6.51997 -1.03684 9.55646
178 1 -1.1104 6.54088 -4.02167 12.4115
182 1 -1.1104 6.77688 -4.14333 9.53844
205 1 -1.1104 12.2107 -3.97566 6.70448
207 1 -1.1104 12.3714 -1.02703 6.8381
211 2 2.2208 10.8791 0.114249 10.949
212 1 -1.1104 12.3045 -4.00288 12.4216
214 1 -1.1104 12.252 -3.98034 9.50545
216 1 -1.1104 12.3982 -1.13837 12.2734
217 2 2.2208 10.8871 -2.56089 8.02815
219 1 -1.1104 12.3692 -1.313 9.64862
220 1 -1.1104 9.70875 -4.13525 12.4458
222 2 2.2208 8.0858 0.297165 8.11649
223 1 -1.1104 9.5887 -3.9486 9.54575
225 2 2.2208 8.11412 -2.68487 11.0259
227 1 -1.1104 9.59275 -1.28781 12.4125
228 1 -1.1104 9.43007 -1.26407 9.73312
156 1 -1.1104 9.6314 18.6497 6.74427
315 1 -1.1104 9.535 15.7489 12.3854
238 1 -1.1104 3.96255 7.47916 6.41375
381 2 2.2208 5.30038 11.4696 -0.385207
239 1 -1.1104 3.81128 4.49464 6.85975
167 1 -1.1104 0.942062 1.48754 6.6443
177 1 -1.1104 0.920743 1.80884 12.2486
181 1 -1.1104 0.922392 1.5715 9.42651
187 2 2.2208 5.25856 3.10066 8.25797
191 1 -1.1104 3.66637 1.86826 12.3481
194 1 -1.1104 3.66913 1.59832 9.62777
196 2 2.2208 2.36589 3.16094 10.8938
240 2 2.2208 5.30789 5.93949 10.9197
242 1 -1.1104 1.00248 7.40218 12.2767
244 1 -1.1104 0.964574 7.24805 9.43047
246 1 -1.1104 1.10453 4.606 12.1993
251 1 -1.1104 0.678171 4.51103 9.38952
255 1 -1.1104 3.90404 7.23325 12.2943
256 2 2.2208 2.14626 5.70381 8.19701
258 1 -1.1104 3.89577 7.12351 9.31432
260 1 -1.1104 3.89721 4.60523 12.5911
262 1 -1.1104 3.78113 4.47432 9.64947
370 2 2.2208 8.16282 -2.77328 -0.226405
327 1 -1.1104 12.1553 18.5136 9.69892
267 1 -1.1104 9.60505 7.16344 6.86894
323 1 -1.1104 12.2555 15.8583 9.39344
266 1 -1.1104 12.1406 4.61635 6.75126
237 1 -1.1104 6.70531 4.64001 6.51345
269 1 -1.1104 9.36296 4.22608 6.64556
243 1 -1.1104 6.80596 7.25484 12.2527
179 1 -1.1104 6.52172 1.75534 12.4276
183 1 -1.1104 6.67144 1.87939 9.32794
253 1 -1.1104 6.68741 4.60261 9.35185
245 1 -1.1104 6.76282 7.21575 9.33089
206 1 -1.1104 12.5013 2.0061 6.90885
248 1 -1.1104 6.70181 4.52448 12.3178
213 1 -1.1104 12.3206 1.70058 12.4141
215 1 -1.1104 12.1912 1.62681 9.58758
218 2 2.2208 10.845 3.05981 8.111
221 1 -1.1104 9.44218 1.60217 12.3427
224 1 -1.1104 9.37249 1.81392 9.3786
226 2 2.2208 8.26121 3.23955 11.1106
268 1 -1.1104 9.42351 4.44722 9.56931
271 1 -1.1104 9.72049 4.53398 12.3883
273 1 -1.1104 9.65588 7.10199 9.57126
275 2 2.2208 8.04955 5.74192 8.05439
276 2 2.2208 11.05 5.77307 11.0196
278 1 -1.1104 12.3465 7.38764 12.216
280 1 -1.1104 12.4244 4.43434 12.4524
283 1 -1.1104 12.2032 4.42515 9.56749
285 1 -1.1104 9.49338 7.33459 12.6072
279 1 -1.1104 12.4839 7.14749 9.42568
124 1 -1.1104 3.93235 13.1497 6.72586
30 2 2.2208 -0.365146 8.80576 8.14988
105 2 2.2208 13.5994 5.83027 2.39927
78 1 -1.1104 3.89661 10.3838 6.35799
305 1 -1.1104 3.91338 13.0254 9.46576
294 1 -1.1104 1.05695 12.8275 9.51199
241 2 2.2208 5.37615 11.4841 10.9546
247 1 -1.1104 1.13775 10.2956 12.3881
250 2 2.2208 5.14241 8.79017 7.92108
252 1 -1.1104 1.12397 10.0058 9.337
257 2 2.2208 2.52181 11.484 8.07265
259 2 2.2208 2.49458 8.66725 10.8908
261 1 -1.1104 4.07147 9.99848 12.3184
263 1 -1.1104 3.7917 10.1514 9.39899
299 1 -1.1104 1.38893 12.9326 12.1717
287 1 -1.1104 3.87827 12.9706 12.2979
101 1 -1.1104 9.42257 10.0056 6.75797
290 1 -1.1104 6.82095 12.9109 9.42277
297 1 -1.1104 6.44831 12.8492 12.1699
254 1 -1.1104 6.7423 9.99071 9.5064
249 1 -1.1104 6.81779 10.0913 12.2883
111 1 -1.1104 6.55992 12.8664 6.777
330 1 -1.1104 12.447 12.8487 12.2661
328 1 -1.1104 12.4994 12.8528 9.32107
322 1 -1.1104 9.34776 13.0416 12.315
319 1 -1.1104 9.65196 12.6548 9.75661
264 1 -1.1104 9.73721 9.96064 9.60933
270 1 -1.1104 9.68554 10.3129 12.2548
272 2 2.2208 8.19285 8.44973 10.743
274 2 2.2208 8.07849 11.3949 8.12745
277 2 2.2208 11.1268 11.3885 10.9764
281 1 -1.1104 12.5019 10.0534 12.2049
282 2 2.2208 11.0089 8.58724 7.96956
284 1 -1.1104 12.4416 9.9856 9.15299
316 2 2.2208 8.02904 20.2107 10.8369
329 1 -1.1104 12.3953 18.2634 12.4236
312 2 2.2208 -0.283969 17.1548 10.7496
83 2 2.2208 -0.366347 11.3508 5.291
112 1 -1.1104 6.61236 18.4072 6.88801
9023 2 2.2208 5.24569 -5.47621 5.29494
310 2 2.2208 2.53334 14.3737 10.7091
9031 2 2.2208 8.20109 -5.33722 7.91427
295 2 2.2208 5.3476 14.3122 8.06831
302 1 -1.1104 1.07032 18.5311 6.54628
293 2 2.2208 5.31896 19.9705 7.98472
292 1 -1.1104 1.07655 15.6899 9.14273
291 1 -1.1104 0.989018 18.3807 9.33043
300 2 2.2208 5.24426 17.2062 10.8989
304 1 -1.1104 3.80503 15.7741 9.36103
301 1 -1.1104 3.98224 18.5073 9.48514
303 2 2.2208 2.50022 17.1947 8.082
309 2 2.2208 2.36135 20.1688 10.7468
308 1 -1.1104 4.09142 15.8327 12.1487
298 1 -1.1104 0.929526 18.7232 11.9966
307 1 -1.1104 0.896453 15.667 12.0476
286 1 -1.1104 3.74376 18.7918 12.4312
306 1 -1.1104 6.65065 15.8105 12.5004
314 1 -1.1104 9.50617 15.393 9.40185
326 1 -1.1104 12.2812 15.5463 12.0184
318 1 -1.1104 9.3447 18.6572 9.51394
149 1 -1.1104 12.0548 15.8687 6.52675
163 1 -1.1104 9.33525 15.8748 6.5302
320 2 2.2208 8.15025 17.1288 8.07925
324 2 2.2208 10.9336 20.0222 8.27259
321 1 -1.1104 9.3328 18.5763 12.4215
331 2 2.2208 10.812 17.1805 10.9156
317 2 2.2208 8.19176 14.3869 10.9431
332 2 2.2208 13.6519 17.2501 7.954
357 2 2.2208 2.31808 17.297 13.5482
366 2 2.2208 2.40738 2.96754 -0.372838
385 2 2.2208 8.03604 8.6382 -0.390167
358 2 2.2208 5.24406 20.0121 13.5565
384 2 2.2208 10.9735 5.94938 -0.436152
361 2 2.2208 10.976 14.317 13.671
369 2 2.2208 11.0739 0.0532355 -0.20353
353 2 2.2208 2.5288 11.597 13.619
359 2 2.2208 5.27574 14.3959 13.5526
233 2 2.2208 13.6097 3.14818 5.38366
368 2 2.2208 -0.314565 0.137925 -0.365359
335 2 2.2208 -0.422807 19.9673 13.5222
362 2 2.2208 7.97723 17.1185 13.6158
388 2 2.2208 5.34618 0.173551 16.7183
389 1 -1.1104 0.909627 -4.03094 18.2121
393 1 -1.1104 1.16516 -4.20395 15.3327
401 1 -1.1104 0.926812 -1.41302 17.7453
403 2 2.2208 5.31447 -2.68405 19.4884
405 1 -1.1104 0.992969 -1.32898 15.0502
409 1 -1.1104 4.0766 -3.90924 17.8861
411 2 2.2208 2.47495 0.125444 19.4421
412 1 -1.1104 3.8625 -4.15678 15.2175
416 2 2.2208 2.42063 -2.92119 16.4933
418 1 -1.1104 3.73512 -1.11214 17.9026
419 1 -1.1104 3.84041 -1.32853 15.1421
350 2 2.2208 11.0471 2.9597 13.7934
394 1 -1.1104 1.02201 -4.09893 20.7908
420 1 -1.1104 3.70324 -1.35878 20.4835
371 2 2.2208 -0.39089 16.9947 27.7189
9188 2 2.2208 5.39086 -5.36323 16.6327
346 2 2.2208 10.9754 -2.50108 13.7899
574 1 -1.1104 12.4867 15.9216 20.785
413 1 -1.1104 3.83551 -4.10184 20.7644
382 2 2.2208 -0.371616 11.2898 27.7224
343 2 2.2208 8.10094 0.1569 13.8836
424 2 2.2208 -0.181769 0.216732 16.5591
397 1 -1.1104 6.56919 -3.97173 15.196
407 1 -1.1104 6.70416 -1.21927 15.154
402 1 -1.1104 6.63499 -1.16277 18.0369
391 1 -1.1104 6.78531 -4.26945 18.038
431 2 2.2208 10.8099 0.268608 16.4745
432 1 -1.1104 12.5522 -4.06931 17.8251
434 1 -1.1104 12.422 -3.93108 14.9598
438 1 -1.1104 12.3335 -1.51204 18.0678
439 2 2.2208 10.8987 -2.63692 19.4814
441 1 -1.1104 12.3451 -1.07351 15.1533
443 1 -1.1104 9.62132 -4.19191 18.1087
445 2 2.2208 8.0806 0.187654 19.4362
446 1 -1.1104 9.59792 -3.81941 15.2251
450 2 2.2208 8.03126 -2.80342 16.6087
452 1 -1.1104 9.42559 -1.24799 18.0818
453 1 -1.1104 9.64689 -1.25433 15.3243
398 1 -1.1104 6.66896 -4.20206 20.7866
425 2 2.2208 -0.289493 -2.6723 19.4131
390 1 -1.1104 1.13125 1.42634 17.9446
395 1 -1.1104 1.11034 1.61899 15.2038
404 2 2.2208 5.376 2.97938 19.5806
410 1 -1.1104 3.9364 1.59091 18.0469
414 1 -1.1104 3.99658 1.70468 15.0328
417 2 2.2208 2.73466 3.078 16.5336
464 2 2.2208 5.39891 5.90652 16.5882
466 1 -1.1104 1.36852 7.01971 17.8686
468 1 -1.1104 0.975138 7.23528 15.1358
472 1 -1.1104 1.2753 4.37333 18.2279
477 1 -1.1104 0.996882 4.61558 15.3854
485 1 -1.1104 4.22802 7.17378 18.3214
486 2 2.2208 2.52976 5.71096 19.5264
491 1 -1.1104 4.15794 4.21599 18.1346
493 1 -1.1104 3.85948 4.5257 15.1961
488 1 -1.1104 3.98774 7.43204 15.1785
352 2 2.2208 5.39958 8.56942 13.7081
621 2 2.2208 -0.105457 5.92957 16.5503
494 1 -1.1104 3.93081 4.32595 20.9356
367 2 2.2208 -0.396256 8.70719 13.6952
469 1 -1.1104 1.25246 7.07913 20.7596
351 2 2.2208 2.32983 5.9356 13.8529
392 1 -1.1104 6.68031 1.58755 18.1569
399 1 -1.1104 6.88147 1.69392 15.138
467 1 -1.1104 7.0195 7.23977 17.8617
481 1 -1.1104 6.47066 4.27357 15.2095
470 1 -1.1104 6.79784 7.18039 15.0788
474 1 -1.1104 6.82568 4.40089 18.0312
433 1 -1.1104 12.2539 1.44699 17.9473
436 1 -1.1104 12.5033 1.67517 15.1526
440 2 2.2208 11.0011 3.00334 19.4441
444 1 -1.1104 9.47996 1.47278 17.8815
448 1 -1.1104 9.56135 1.46958 15.1083
451 2 2.2208 7.97185 2.97656 16.649
500 2 2.2208 11.1373 5.8353 16.6025
505 1 -1.1104 12.3926 4.40016 18.0186
508 1 -1.1104 12.5332 4.59833 15.2839
512 1 -1.1104 9.58972 7.30156 18.1788
513 2 2.2208 8.16416 5.8616 19.2557
515 1 -1.1104 9.68573 7.09286 15.3553
518 1 -1.1104 9.56922 4.37757 18.0615
520 1 -1.1104 9.28682 4.3948 15.2268
503 1 -1.1104 12.337 7.22733 14.9449
502 1 -1.1104 12.551 7.08953 17.8903
471 1 -1.1104 6.76764 7.19504 20.7087
422 2 2.2208 13.5719 8.61115 22.3637
648 2 2.2208 -0.438526 11.495 16.4733
465 2 2.2208 5.29402 11.5821 16.5889
473 1 -1.1104 1.01003 9.86547 17.7114
476 2 2.2208 5.33011 8.75795 19.3666
479 1 -1.1104 0.925902 10.1182 15.0733
487 2 2.2208 2.37009 11.3325 19.1764
490 2 2.2208 2.43848 8.66273 16.4615
492 1 -1.1104 3.88311 10.0879 17.6276
495 1 -1.1104 3.78461 10.1318 15.0847
528 1 -1.1104 1.02932 12.7723 17.7224
532 1 -1.1104 1.08378 12.9469 14.8572
548 1 -1.1104 3.96718 12.6856 18.0494
551 1 -1.1104 3.76617 12.8392 15.1552
496 1 -1.1104 3.77213 10.0977 20.4279
9121 2 2.2208 2.44716 -5.40005 25.021
533 1 -1.1104 1.16822 12.8686 20.75
374 2 2.2208 5.23682 17.0097 27.7639
338 2 2.2208 5.08656 -2.65624 13.7877
622 2 2.2208 -0.138402 8.50607 19.2715
530 1 -1.1104 6.95193 12.8668 18.0505
475 1 -1.1104 6.81045 9.97042 17.8503
536 1 -1.1104 6.62639 13.028 15.0544
483 1 -1.1104 6.65745 10.1617 15.0435
501 2 2.2208 10.9251 11.4379 16.603
506 1 -1.1104 12.4533 10.2009 18.2853
507 2 2.2208 11.1537 8.52297 19.5022
510 1 -1.1104 12.4231 10.1433 15.1171
514 2 2.2208 8.10538 11.3317 19.3931
517 2 2.2208 8.22203 8.67677 16.4598
519 1 -1.1104 9.57573 10.1139 17.8765
522 1 -1.1104 9.43417 10.0854 14.8124
564 1 -1.1104 12.2236 12.8476 17.8449
566 1 -1.1104 12.2445 13.0907 14.9063
575 1 -1.1104 9.52257 12.9824 17.6842
578 1 -1.1104 9.48395 12.8298 15.0196
537 1 -1.1104 6.50665 12.6422 20.8428
567 1 -1.1104 12.3522 13.0712 20.7306
511 1 -1.1104 12.5367 10.0589 21.0216
523 1 -1.1104 9.51307 10.0922 20.76
524 1 -1.1104 12.2521 15.6903 23.6645
616 2 2.2208 7.99613 20.0154 22.162
555 2 2.2208 2.41528 14.2348 16.4087
542 2 2.2208 5.13372 14.169 19.2565
527 2 2.2208 5.33016 17.1589 16.3986
529 1 -1.1104 1.05407 18.5798 17.7291
534 1 -1.1104 1.07567 18.8324 14.752
540 1 -1.1104 0.874878 15.6165 17.8404
543 2 2.2208 5.26812 19.8068 19.2792
544 1 -1.1104 0.647481 15.8033 14.9774
549 1 -1.1104 4.19529 18.2771 17.9314
550 2 2.2208 2.40054 17.086 19.0834
553 1 -1.1104 4.01168 18.4558 15.0276
556 2 2.2208 2.43754 19.9712 16.1756
557 1 -1.1104 3.69551 15.593 17.7069
558 1 -1.1104 3.65087 15.641 14.8741
9045 2 2.2208 8.13331 -5.46175 13.6737
535 1 -1.1104 1.04276 18.5055 20.575
559 1 -1.1104 3.74014 15.588 20.6343
554 1 -1.1104 3.79267 18.3553 20.7648
457 2 2.2208 -0.347533 14.3517 19.2908
646 2 2.2208 -0.307204 14.2492 24.835
582 2 2.2208 8.14895 14.3521 16.3151
531 1 -1.1104 6.83701 18.661 17.8611
538 1 -1.1104 6.80063 18.5485 14.9027
541 1 -1.1104 6.4968 15.7067 17.8481
546 1 -1.1104 6.65183 15.7581 14.9727
571 2 2.2208 10.6576 14.1771 19.268
563 2 2.2208 10.787 17.2095 16.4864
565 1 -1.1104 12.1785 18.6074 18.0507
568 1 -1.1104 12.4246 18.5124 15.3941
570 1 -1.1104 12.5783 15.6232 18.0825
572 2 2.2208 10.9372 19.9275 19.4261
573 1 -1.1104 12.4688 15.8331 15.1349
576 1 -1.1104 9.51116 18.5261 17.8915
577 2 2.2208 8.22252 17.207 19.4219
580 1 -1.1104 9.41997 18.6443 15.1035
583 2 2.2208 8.07571 19.8734 16.4136
584 1 -1.1104 9.279 15.8648 17.9513
585 1 -1.1104 9.67547 15.7893 15.1042
539 1 -1.1104 6.69033 18.443 20.8085
569 1 -1.1104 12.3298 18.6467 20.8988
586 1 -1.1104 9.39654 15.4382 20.671
9158 2 2.2208 11.0163 -5.43464 16.5186
718 1 -1.1104 6.71918 18.5983 23.5743
626 2 2.2208 -0.350039 2.95557 24.9005
334 2 2.2208 -0.419487 -2.66587 13.708
406 1 -1.1104 1.06364 -1.37939 20.8659
591 2 2.2208 5.42054 0.135412 22.2831
592 1 -1.1104 1.18179 -3.93993 23.7277
596 1 -1.1104 1.14997 -4.17222 26.6801
600 1 -1.1104 1.2391 -1.18107 23.3402
602 2 2.2208 5.34484 -2.65439 25.0926
604 1 -1.1104 1.08152 -1.38472 26.3358
606 1 -1.1104 3.968 -4.10137 23.8579
608 2 2.2208 2.58812 0.0966882 24.9046
609 1 -1.1104 3.8386 -4.07554 26.4557
611 2 2.2208 2.4062 -2.81185 22.0238
613 1 -1.1104 3.95551 -1.34676 23.4066
614 1 -1.1104 3.99454 -1.17273 26.3508
383 2 2.2208 -0.347315 5.78163 27.8111
408 1 -1.1104 6.49786 -1.33466 20.7749
447 1 -1.1104 9.60992 -4.02677 20.918
685 2 2.2208 -0.279109 11.5187 22.0381
594 1 -1.1104 6.85695 -4.1856 23.6061
601 1 -1.1104 6.82694 -1.19963 23.5218
598 1 -1.1104 6.56215 -3.98616 26.6808
454 1 -1.1104 9.42876 -1.33565 21.0163
442 1 -1.1104 12.3671 -1.54045 20.9181
605 1 -1.1104 6.87213 -1.27971 26.6561
435 1 -1.1104 12.367 -4.27072 20.578
627 2 2.2208 11.0329 -0.0589056 22.2552
628 1 -1.1104 12.1357 -4.06601 23.4941
630 1 -1.1104 12.175 -4.26429 26.3168
632 1 -1.1104 12.3693 -1.20792 23.8645
633 2 2.2208 10.8435 -2.65377 25.1826
635 1 -1.1104 12.276 -1.37692 26.6714
636 1 -1.1104 9.45172 -4.25735 23.4705
638 2 2.2208 8.06222 0.304547 25.1987
639 1 -1.1104 9.45866 -4.17149 26.329
641 2 2.2208 8.15198 -2.74456 22.1749
643 1 -1.1104 9.46719 -1.37849 23.6604
644 1 -1.1104 9.44853 -1.19047 26.5963
354 2 2.2208 8.25471 5.88221 13.7629
396 1 -1.1104 1.10731 1.55684 20.9218
478 1 -1.1104 0.984089 4.1919 20.6888
489 1 -1.1104 3.97301 7.43887 20.8688
372 2 2.2208 8.40359 2.86842 27.7733
415 1 -1.1104 4.13336 1.50836 21.0944
593 1 -1.1104 0.991831 1.66963 23.648
597 1 -1.1104 0.894696 1.49735 26.2121
603 2 2.2208 5.28579 2.93495 25.1144
607 1 -1.1104 3.86541 1.62668 23.8349
610 1 -1.1104 3.8189 1.3199 26.3667
612 2 2.2208 2.42407 2.81687 22.3403
656 2 2.2208 5.23173 5.76714 22.2397
662 1 -1.1104 1.16739 4.41954 23.718
667 1 -1.1104 0.97599 4.35532 26.3892
671 1 -1.1104 3.63687 7.36708 23.7838
672 2 2.2208 2.56876 5.60367 25.1253
676 1 -1.1104 3.8109 4.45316 23.6708
678 1 -1.1104 3.90712 4.20094 26.5499
674 1 -1.1104 4.11319 7.00845 26.5231
658 1 -1.1104 0.826726 7.28694 23.5039
660 1 -1.1104 1.10074 7.25406 26.4026
664 1 -1.1104 6.71414 4.27769 23.7725
525 2 2.2208 10.7983 14.308 25.0792
504 1 -1.1104 12.5861 7.3175 20.8825
449 1 -1.1104 9.67065 1.29393 20.5628
437 1 -1.1104 12.3442 1.58108 20.7784
516 1 -1.1104 9.64012 7.23976 21.2138
400 1 -1.1104 6.83932 1.67836 20.8526
482 1 -1.1104 6.7397 4.52992 20.8885
595 1 -1.1104 6.6927 1.50994 23.6803
521 1 -1.1104 9.6839 4.21792 21.0064
659 1 -1.1104 6.58684 7.00393 23.6511
599 1 -1.1104 6.76352 1.67651 26.5536
661 1 -1.1104 6.8667 6.98686 26.5643
669 1 -1.1104 6.69059 4.21075 26.5362
509 1 -1.1104 12.5121 4.61042 20.7598
629 1 -1.1104 12.2595 1.38772 23.6437
631 1 -1.1104 12.6159 1.50225 26.6531
634 2 2.2208 11.0223 3.03392 25.1376
637 1 -1.1104 9.42665 1.61663 23.6665
640 1 -1.1104 9.7508 1.63411 26.5006
642 2 2.2208 8.18375 2.96993 22.2418
688 1 -1.1104 9.72033 4.44346 26.362
690 1 -1.1104 9.36508 4.42455 23.5907
694 2 2.2208 8.08311 5.86455 25.0592
695 2 2.2208 10.835 5.78799 22.3628
697 1 -1.1104 12.2924 7.16982 23.6483
698 1 -1.1104 12.325 7.31401 26.4857
699 1 -1.1104 12.2176 4.15023 23.5378
702 1 -1.1104 12.5058 4.47836 26.4786
704 1 -1.1104 9.56146 7.19509 23.8482
692 1 -1.1104 9.6012 7.26718 26.6898
341 2 2.2208 5.16172 3.21337 13.698
480 1 -1.1104 0.967025 9.7673 20.6106
552 1 -1.1104 3.79163 12.6916 20.8151
657 2 2.2208 5.04131 11.4709 22.1417
663 1 -1.1104 1.00812 10.1637 23.4803
666 2 2.2208 5.13644 8.59064 25.1035
668 1 -1.1104 1.06985 10.0414 26.3278
673 2 2.2208 2.47353 11.343 25.1656
675 2 2.2208 2.50918 8.48332 22.2296
677 1 -1.1104 3.86171 10.1235 23.5292
679 1 -1.1104 3.81652 10.0177 26.5007
681 1 -1.1104 3.81222 12.7371 26.4063
706 1 -1.1104 1.03295 12.6879 23.5329
713 1 -1.1104 3.77269 12.8916 23.8736
717 1 -1.1104 1.0628 12.987 26.4581
625 2 2.2208 -0.427839 0.213524 22.245
499 1 -1.1104 12.3264 18.362 26.2359
339 2 2.2208 2.17901 0.138618 13.7138
484 1 -1.1104 6.66461 9.95152 20.8105
665 1 -1.1104 6.60892 9.88912 23.7591
709 1 -1.1104 6.84646 12.8349 23.5374
712 1 -1.1104 6.48317 12.6566 26.323
579 1 -1.1104 9.43295 12.7129 20.9509
670 1 -1.1104 6.6252 9.72506 26.4449
589 1 -1.1104 9.31144 12.6175 26.2655
687 1 -1.1104 9.68302 9.90304 26.5353
689 1 -1.1104 9.36797 9.97219 23.7491
691 2 2.2208 8.017 8.62301 22.3525
693 2 2.2208 8.06067 11.4798 24.8527
696 2 2.2208 10.8351 11.3953 22.1543
700 1 -1.1104 12.3705 9.9673 23.6624
701 2 2.2208 10.9384 8.58533 25.264
703 1 -1.1104 12.5271 10.0997 26.5691
561 1 -1.1104 9.47597 13.037 23.6936
463 1 -1.1104 12.4059 13.0934 23.463
498 1 -1.1104 12.1442 12.7698 26.2353
462 2 2.2208 10.9738 17.0697 22.2058
645 2 2.2208 -0.339801 19.8039 24.9539
545 1 -1.1104 0.849953 15.6277 20.589
680 1 -1.1104 6.62585 15.6057 23.5515
427 2 2.2208 -0.184526 2.96291 19.2313
647 2 2.2208 2.3664 14.3406 22.0467
720 2 2.2208 5.18518 14.2401 25.0332
715 1 -1.1104 1.15654 18.2899 26.3784
719 2 2.2208 5.38134 19.8427 24.9535
711 1 -1.1104 3.87773 18.4027 23.5569
707 1 -1.1104 0.981995 18.2143 23.5349
716 1 -1.1104 0.907683 15.6419 26.5664
649 2 2.2208 2.3315 19.746 22.132
652 1 -1.1104 3.69805 15.7582 23.4992
655 1 -1.1104 0.971803 15.6098 23.4326
682 1 -1.1104 3.93308 15.5098 26.3523
683 2 2.2208 2.46692 16.9907 24.9296
686 1 -1.1104 3.84978 18.4379 26.3628
705 2 2.2208 5.34208 16.9109 22.1823
620 1 -1.1104 9.53407 15.43 26.4885
458 2 2.2208 -0.311626 19.9607 19.1746
497 1 -1.1104 12.4157 18.3015 23.5325
714 1 -1.1104 6.85136 15.6206 26.4723
562 1 -1.1104 9.41009 18.8156 23.443
615 2 2.2208 8.18376 14.2985 22.3309
581 1 -1.1104 9.6306 18.4005 20.6435
547 1 -1.1104 6.41972 15.624 20.8529
617 1 -1.1104 9.36515 16.0495 23.2949
588 1 -1.1104 6.54585 18.5255 26.3042
560 1 -1.1104 12.3985 15.626 26.4733
587 2 2.2208 8.16236 17.069 24.9798
526 2 2.2208 10.8955 19.8363 24.9136
590 1 -1.1104 9.45841 18.301 26.5061
380 2 2.2208 2.41769 8.47352 27.7302
624 2 2.2208 -0.189688 -2.62503 25.0179
375 2 2.2208 2.40265 19.8093 27.6141
349 2 2.2208 7.90869 19.672 27.6518
360 2 2.2208 10.8883 19.9183 13.7963
348 2 2.2208 11.0151 17.1271 27.7627
460 2 2.2208 13.6453 20.0405 16.7009
421 2 2.2208 -0.416769 5.64461 22.3011
386 2 2.2208 10.9444 11.3455 27.7311
721 2 2.2208 5.32921 22.6623 5.01506
723 1 -1.1104 0.957207 24.3144 0.808778
724 1 -1.1104 1.06538 24.2021 3.72728
725 1 -1.1104 1.21561 21.3094 0.746565
727 2 2.2208 5.10925 25.8065 2.14654
728 1 -1.1104 0.875639 21.4948 3.6096
730 1 -1.1104 3.86369 24.3239 0.670935
731 2 2.2208 2.44637 22.8843 1.98805
733 1 -1.1104 3.89032 24.337 3.3289
734 2 2.2208 2.34943 25.7839 5.06403
735 1 -1.1104 3.81472 21.625 0.704382
737 1 -1.1104 3.85201 21.4335 3.52912
738 1 -1.1104 3.59998 27.2301 3.47594
726 1 -1.1104 0.613098 27.1326 1.10658
736 1 -1.1104 3.66016 27.1767 0.65892
729 1 -1.1104 0.684767 26.9527 3.79194
740 2 2.2208 -0.347128 22.8986 5.04076
869 1 -1.1104 3.83747 21.379 6.57211
865 1 -1.1104 1.10173 26.8517 6.47623
864 1 -1.1104 1.10801 21.4966 6.40373
868 1 -1.1104 4.09278 24.2771 6.079
870 1 -1.1104 3.86035 27.1356 6.66395
744 1 -1.1104 6.61498 21.2688 0.752393
1039 2 2.2208 -0.166159 28.387 11.1518
862 1 -1.1104 1.23628 24.218 6.70854
1056 2 2.2208 2.42829 34.2747 13.606
1072 2 2.2208 5.17881 28.4619 -0.469029
839 2 2.2208 -0.300852 39.6957 5.18178
742 1 -1.1104 6.71412 24.1856 0.897303
746 1 -1.1104 6.55181 21.2203 3.7297
743 1 -1.1104 6.71975 24.408 3.89494
747 1 -1.1104 6.59156 27.0897 3.57313
745 1 -1.1104 6.70099 27.0756 0.841134
863 1 -1.1104 6.7333 23.9918 6.72345
748 2 2.2208 10.7588 22.5891 5.25721
750 1 -1.1104 12.3824 24.0867 1.06013
751 1 -1.1104 11.9158 23.931 3.88692
752 1 -1.1104 12.3613 21.515 1.1098
754 2 2.2208 10.7978 25.5569 2.36562
755 1 -1.1104 12.1952 21.2683 3.8143
757 1 -1.1104 9.53457 24.0172 0.927391
758 2 2.2208 8.02498 22.669 2.29347
760 1 -1.1104 9.4614 23.9683 3.7408
761 2 2.2208 8.22749 25.4857 5.22421
762 1 -1.1104 9.59205 21.3547 0.979772
764 1 -1.1104 9.47817 21.2059 3.71974
765 1 -1.1104 9.51616 26.9647 3.61879
756 1 -1.1104 12.1932 27.0833 3.74785
753 1 -1.1104 12.3007 26.936 1.21272
867 1 -1.1104 6.61973 26.6829 6.45363
899 1 -1.1104 9.35472 21.4141 6.64004
897 1 -1.1104 12.5114 26.7755 6.60155
866 1 -1.1104 6.70455 21.3148 6.55388
896 1 -1.1104 12.4027 21.2736 6.56384
895 1 -1.1104 12.3514 23.9745 6.80749
1029 2 2.2208 10.9133 45.54 10.9208
1051 2 2.2208 5.45655 31.6154 13.6332
722 2 2.2208 5.38799 28.4966 4.9949
732 2 2.2208 2.27582 28.4285 2.36292
770 1 -1.1104 1.11652 29.8917 0.906585
773 1 -1.1104 0.688895 29.9656 3.88776
776 1 -1.1104 1.10104 32.6024 0.891779
777 2 2.2208 5.31953 31.2334 2.53623
779 1 -1.1104 1.24562 32.714 3.53197
781 1 -1.1104 3.95641 29.7661 1.14814
784 1 -1.1104 3.71783 29.9958 4.01343
786 2 2.2208 2.38383 31.3391 5.57208
788 1 -1.1104 3.89073 32.6933 0.819782
789 1 -1.1104 4.00087 32.6768 3.82679
780 1 -1.1104 6.69771 32.9219 3.63918
925 1 -1.1104 3.78251 29.9486 6.8062
923 1 -1.1104 0.911191 32.7074 6.59752
1090 2 2.2208 2.53814 42.6406 -0.327297
993 1 -1.1104 6.85087 41.1883 9.48897
927 1 -1.1104 3.73168 32.7395 6.75735
763 1 -1.1104 9.4637 27.1213 0.670524
794 1 -1.1104 6.52559 29.9236 3.76065
793 1 -1.1104 6.58184 29.834 0.845123
795 1 -1.1104 6.99536 32.7814 0.739485
749 2 2.2208 10.976 28.4241 5.04308
759 2 2.2208 8.15111 28.2707 2.26499
797 1 -1.1104 12.6371 29.6536 0.88614
799 1 -1.1104 12.3509 29.8654 3.66176
801 1 -1.1104 12.6407 32.3307 1.06651
802 2 2.2208 11.0659 31.2648 2.36262
804 1 -1.1104 12.3849 32.4999 3.92417
805 1 -1.1104 9.65189 29.8935 1.24687
808 1 -1.1104 9.53255 29.7814 3.89751
810 2 2.2208 8.01658 31.3029 5.25717
812 1 -1.1104 9.91736 32.8218 1.00157
813 1 -1.1104 9.49977 32.6285 3.7021
956 1 -1.1104 9.1943 29.909 6.69785
958 1 -1.1104 9.41275 32.587 6.66084
769 2 2.2208 5.11768 34.0849 5.14308
771 1 -1.1104 0.938786 35.5338 0.986851
774 1 -1.1104 0.885443 35.5758 4.0079
778 2 2.2208 5.22083 36.8088 2.53377
782 1 -1.1104 3.73702 35.6434 1.29151
783 2 2.2208 2.54367 33.9805 2.42797
785 1 -1.1104 3.7601 35.3696 3.93467
787 2 2.2208 2.33377 36.8526 5.33938
815 2 2.2208 5.37159 39.8587 5.25601
821 1 -1.1104 0.839673 38.3473 0.984273