ITEM: TIMESTEP
20000
ITEM: NUMBER OF ATOMS
17760
ITEM: BOX BOUNDS pp pp pp
-4.5803017692517550e-01 2.7798030176925444e+01
-5.4954643429813412e+00 3.3357546434297910e+02
-4.5468724022364493e-01 2.7794687240223553e+01
ITEM: ATOMS id type q x y z
1 2 2.2208 5.37079 -0.0266618 5.39979
2 1 -1.1104 0.968008 -4.10845 1.09303
6 1 -1.1104 0.925818 -4.00339 4.00717
10 1 -1.1104 0.884996 -1.36642 1.15755
12 2 2.2208 5.28039 -2.84891 2.53216
14 1 -1.1104 1.04018 -1.36909 3.88935
16 1 -1.1104 3.85776 -4.10389 0.90865
18 2 2.2208 2.49521 0.105529 2.54254
19 1 -1.1104 3.90157 -4.20737 3.96136
21 2 2.2208 2.42407 -2.73187 5.25126
23 1 -1.1104 3.89701 -1.38594 1.07798
24 1 -1.1104 3.90242 -1.61477 3.82131
11 1 -1.1104 6.66004 -1.36572 0.987421
348 2 2.2208 10.8681 17.1203 -0.353241
170 1 -1.1104 1.12556 -1.54363 6.61093
172 1 -1.1104 3.83661 -4.05753 6.81585
362 2 2.2208 8.08254 16.7585 13.647
369 2 2.2208 10.8635 0.176534 -0.305593
360 2 2.2208 10.9775 19.9676 13.5202
15 1 -1.1104 6.65405 -1.10203 3.80328
4 1 -1.1104 6.75923 -4.2872 1.02221
8 1 -1.1104 6.81814 -4.02009 3.84227
31 2 2.2208 10.8505 0.0508963 5.31579
32 1 -1.1104 12.4969 -4.05026 1.05632
34 1 -1.1104 12.6201 -3.88894 3.66937
36 1 -1.1104 12.3154 -1.33503 0.866458
37 2 2.2208 10.9506 -2.68569 2.63581
39 1 -1.1104 12.1195 -1.03 3.8798
40 1 -1.1104 9.52336 -3.97587 1.09405
42 2 2.2208 7.88725 0.0662003 2.39365
43 1 -1.1104 9.70096 -4.00763 3.93399
45 2 2.2208 8.01726 -2.67776 5.23477
47 1 -1.1104 9.50167 -1.17763 0.915656
48 1 -1.1104 9.29165 -1.36772 3.74887
9022 2 2.2208 2.29223 -5.36676 2.31052
81 2 2.2208 -0.357808 5.63477 5.22939
171 1 -1.1104 6.70055 -1.3545 6.64938
27 2 2.2208 -0.368786 2.66015 2.37405
210 1 -1.1104 9.37925 -1.18069 6.77848
361 2 2.2208 11.0397 14.0956 13.5244
199 2 2.2208 -0.473541 3.15925 7.90062
3 1 -1.1104 1.06196 1.39737 1.14971
7 1 -1.1104 1.01914 1.37825 3.93873
13 2 2.2208 5.23283 2.91272 2.4568
17 1 -1.1104 3.79073 1.44539 1.07516
20 1 -1.1104 3.73343 1.37894 3.86035
22 2 2.2208 2.47336 2.88274 5.28091
54 2 2.2208 5.09972 5.72886 5.27254
56 1 -1.1104 1.05179 6.9391 1.10369
58 1 -1.1104 1.04436 7.05112 3.64267
60 1 -1.1104 1.0828 4.13116 1.09413
67 1 -1.1104 1.16386 4.17652 3.941
71 1 -1.1104 3.68635 7.07437 1.03603
72 2 2.2208 2.58063 5.57777 2.38787
74 1 -1.1104 3.75598 6.98179 4.0199
76 1 -1.1104 4.08621 4.28932 1.01095
79 1 -1.1104 3.90908 4.3092 3.77168
69 1 -1.1104 6.37489 4.17737 4.04633
57 1 -1.1104 6.69005 6.86699 0.749307
9 1 -1.1104 6.57519 1.39986 4.04806
239 1 -1.1104 3.9935 4.19227 6.7683
63 1 -1.1104 6.79283 4.27599 1.02201
5 1 -1.1104 6.7353 1.62032 1.11168
59 1 -1.1104 6.65331 7.02235 3.58213
173 1 -1.1104 3.87287 1.59644 6.62416
169 1 -1.1104 6.67617 1.40491 6.7759
235 1 -1.1104 6.56862 6.97281 6.67092
357 2 2.2208 2.64335 16.9559 13.705
366 2 2.2208 2.39666 3.0483 -0.181292
33 1 -1.1104 12.3457 1.326 0.987456
35 1 -1.1104 12.4317 1.65554 3.78107
38 2 2.2208 11.1332 2.84855 2.38533
41 1 -1.1104 9.52305 1.62294 1.04454
44 1 -1.1104 9.45408 1.55816 3.97202
46 2 2.2208 8.09113 2.91091 5.33937
84 2 2.2208 10.8757 5.80876 5.06686
86 1 -1.1104 12.6684 7.14102 0.948882
88 1 -1.1104 12.5635 4.25496 0.973916
92 1 -1.1104 12.3254 4.33859 3.83705
95 2 2.2208 8.22139 5.56161 2.31419
97 1 -1.1104 9.38905 7.03089 3.74058
99 1 -1.1104 9.66911 4.35727 1.06395
102 1 -1.1104 9.61187 4.32284 3.98966
87 1 -1.1104 12.3083 7.00056 3.76812
94 1 -1.1104 9.84751 7.04188 0.917619
206 1 -1.1104 12.3028 1.60939 6.65704
267 1 -1.1104 9.36636 7.20948 6.64876
51 2 2.2208 -0.382658 11.455 10.7457
356 2 2.2208 8.08542 11.1301 13.4985
364 2 2.2208 5.1507 0.150635 -0.343417
165 2 2.2208 13.6574 17.0022 2.41179
163 1 -1.1104 9.4659 15.4245 6.63796
55 2 2.2208 5.1963 11.3021 5.12766
61 1 -1.1104 1.07958 9.7559 0.917989
66 2 2.2208 5.21625 8.38795 2.3012
68 1 -1.1104 0.862773 9.89903 3.73064
73 2 2.2208 2.26285 11.2964 2.42165
75 2 2.2208 2.43743 8.43089 5.22549
77 1 -1.1104 3.71873 10.0235 0.917814
80 1 -1.1104 3.67399 9.95088 3.77759
107 1 -1.1104 1.09577 12.6925 1.08515
113 1 -1.1104 0.875091 12.7402 3.76711
123 1 -1.1104 4.24011 12.7037 1.02613
128 1 -1.1104 3.7023 12.5656 3.69352
64 1 -1.1104 6.57895 9.72122 0.803747
111 1 -1.1104 6.81201 12.712 6.62417
373 2 2.2208 2.51736 14.2485 -0.387743
70 1 -1.1104 6.56069 9.74147 3.82463
78 1 -1.1104 3.90192 9.93317 6.46903
375 2 2.2208 2.382 19.5954 -0.39961
110 1 -1.1104 6.96056 12.5494 1.10859
115 1 -1.1104 6.55965 12.7939 3.5887
85 2 2.2208 10.8857 11.1612 5.20375
89 1 -1.1104 12.274 9.88389 0.84588
91 2 2.2208 10.8844 8.46593 2.27503
93 1 -1.1104 12.4074 9.93044 3.88464
96 2 2.2208 7.99817 11.1581 2.35021
98 2 2.2208 8.11428 8.38992 5.13976
100 1 -1.1104 9.47154 9.76923 0.94157
103 1 -1.1104 9.59512 9.65037 3.80553
142 1 -1.1104 12.2465 12.6195 1.01732
146 1 -1.1104 12.1963 12.581 3.89689
153 1 -1.1104 9.67925 12.8964 0.87848
158 1 -1.1104 9.33068 12.5721 3.65963
101 1 -1.1104 9.38962 9.81888 6.61965
26 2 2.2208 -0.439465 0.129061 5.34061
318 1 -1.1104 9.46886 18.5147 9.21903
154 1 -1.1104 9.69578 12.9023 6.56408
380 2 2.2208 2.55644 8.43854 -0.35027
311 2 2.2208 -0.338393 19.5755 8.06714
119 2 2.2208 5.26543 14.1689 2.24145
130 2 2.2208 2.33821 14.1769 5.2176
106 2 2.2208 5.21061 16.7776 5.11305
109 1 -1.1104 1.10232 18.2668 0.937518
114 1 -1.1104 0.897259 18.3727 3.69667
116 1 -1.1104 0.938187 15.3406 0.977328
120 2 2.2208 5.17075 19.766 2.2809
121 1 -1.1104 0.987435 15.6094 3.73535
125 1 -1.1104 4.07922 18.1358 0.919509
127 2 2.2208 2.42461 16.8892 2.44794
129 1 -1.1104 3.77394 18.3103 3.71309
131 2 2.2208 2.22897 19.6593 5.26832
132 1 -1.1104 3.80465 15.5385 1.11133
134 1 -1.1104 3.85261 15.2924 3.73917
139 1 -1.1104 6.45397 18.198 3.6995
302 1 -1.1104 0.68973 17.9362 6.50896
133 1 -1.1104 3.77032 15.7891 6.39481
9029 2 2.2208 5.34083 -5.44753 10.9208
140 1 -1.1104 6.78329 15.406 0.880123
138 1 -1.1104 6.83777 18.3363 0.863313
160 2 2.2208 8.08988 13.9043 5.0242
122 1 -1.1104 6.71579 15.4336 3.86974
150 2 2.2208 10.8629 13.9824 2.41557
141 2 2.2208 10.8501 16.9674 5.24228
144 1 -1.1104 12.2359 18.5172 0.940305
147 1 -1.1104 12.0796 18.6533 3.75099
148 1 -1.1104 12.3268 15.6173 1.14938
151 2 2.2208 10.7123 19.9254 2.37281
152 1 -1.1104 11.9734 15.7055 3.76737
155 1 -1.1104 9.37992 18.518 0.955614
157 2 2.2208 7.89417 16.9004 2.46485
159 1 -1.1104 9.34175 18.1123 3.8059
161 2 2.2208 8.10324 19.6072 5.05232
162 1 -1.1104 9.63579 15.6479 0.667458
164 1 -1.1104 9.35171 15.2547 3.64531
156 1 -1.1104 9.50194 18.2859 6.56255
118 1 -1.1104 6.60819 15.4334 6.6715
370 2 2.2208 8.04988 -2.63361 -0.400715
166 1 -1.1104 0.970097 -4.08085 6.71488
174 1 -1.1104 3.9074 -1.16273 6.7697
175 2 2.2208 5.03084 0.0439363 10.8049
176 1 -1.1104 1.00007 -4.06945 12.344
180 1 -1.1104 1.12774 -4.30153 9.42932
184 1 -1.1104 1.00057 -1.20845 12.1625
186 2 2.2208 5.22147 -2.8244 8.04156
188 1 -1.1104 0.800442 -1.39065 9.57693
190 1 -1.1104 3.84959 -4.10586 12.3837
192 2 2.2208 2.21443 0.0769996 7.99749
193 1 -1.1104 3.93743 -4.14819 9.65332
195 2 2.2208 2.54956 -2.74983 11.0906
197 1 -1.1104 3.81985 -1.20615 12.3384
198 1 -1.1104 3.74816 -1.3468 9.42248
168 1 -1.1104 6.51942 -4.10388 6.578
189 1 -1.1104 6.56801 -1.25177 9.41317
182 1 -1.1104 6.70865 -3.98131 9.38245
315 1 -1.1104 9.6168 15.5068 12.3197
323 1 -1.1104 12.2187 15.569 9.41012
82 2 2.2208 -0.378222 8.41526 2.43565
231 2 2.2208 13.6003 19.8321 5.19271
313 2 2.2208 -0.370282 14.2223 8.04664
208 1 -1.1104 9.58571 -4.25022 6.7989
205 1 -1.1104 12.3162 -4.12662 6.6272
9031 2 2.2208 7.97496 -5.48574 8.11086
185 1 -1.1104 6.61257 -1.32832 12.2245
178 1 -1.1104 6.62939 -4.04597 12.3642
207 1 -1.1104 12.2083 -1.26349 6.67639
211 2 2.2208 10.9351 0.242365 11.0429
212 1 -1.1104 11.9774 -4.20174 12.2031
214 1 -1.1104 12.4236 -4.18115 9.23265
216 1 -1.1104 12.3507 -1.63158 12.6279
217 2 2.2208 10.8915 -2.59501 8.14173
219 1 -1.1104 12.3831 -1.12718 9.57386
220 1 -1.1104 9.47028 -4.09675 12.6984
222 2 2.2208 8.1088 0.0917521 8.24825
223 1 -1.1104 9.45048 -4.13948 9.63869
225 2 2.2208 8.08853 -2.80257 10.9986
227 1 -1.1104 9.53695 -1.12513 12.2224
228 1 -1.1104 9.56216 -1.36047 9.46442
25 2 2.2208 -0.359706 -2.66922 2.63211
136 2 2.2208 -0.364396 19.6958 2.35284
237 1 -1.1104 6.64403 4.33287 6.42129
167 1 -1.1104 0.862958 1.40874 6.7709
238 1 -1.1104 3.81517 6.97299 6.62924
236 1 -1.1104 1.02611 4.34952 6.63649
234 1 -1.1104 1.01722 7.03401 6.58001
177 1 -1.1104 0.856259 1.43451 12.375
181 1 -1.1104 0.788826 1.59116 9.53264
187 2 2.2208 5.23502 2.81883 8.2716
191 1 -1.1104 3.95182 1.64184 12.3466
194 1 -1.1104 3.65774 1.34746 9.30563
196 2 2.2208 2.24209 2.78855 10.8799
240 2 2.2208 5.0079 5.541 10.9259
242 1 -1.1104 0.86646 7.01154 12.5375
244 1 -1.1104 1.16107 7.07931 9.42027
246 1 -1.1104 1.16036 4.09829 12.165
251 1 -1.1104 0.883205 4.42047 9.44882
255 1 -1.1104 3.64844 7.29783 12.1135
256 2 2.2208 2.4114 5.58698 8.09278
258 1 -1.1104 3.86084 7.02705 9.50006
260 1 -1.1104 3.62562 4.42973 12.5078
262 1 -1.1104 3.60024 4.13319 9.56537
243 1 -1.1104 6.65044 7.23261 12.2379
248 1 -1.1104 6.70522 4.47304 12.1629
183 1 -1.1104 6.58029 1.32551 9.52356
317 2 2.2208 7.94776 13.9328 10.764
269 1 -1.1104 9.23097 4.43317 6.71781
325 2 2.2208 10.7714 14.1215 7.94571
9025 2 2.2208 8.15968 -5.51207 2.42557
209 1 -1.1104 9.7021 1.39359 6.74347
265 1 -1.1104 12.2626 7.02715 6.73164
266 1 -1.1104 12.2287 4.35674 6.66096
245 1 -1.1104 6.86133 7.02309 9.35847
253 1 -1.1104 6.48318 4.3882 9.5107
179 1 -1.1104 6.65097 1.55635 12.6974
213 1 -1.1104 12.125 1.57947 12.4932
215 1 -1.1104 12.2445 1.60442 9.72515
218 2 2.2208 10.8478 2.92047 8.06022
221 1 -1.1104 9.34181 1.43853 12.3699
224 1 -1.1104 9.56411 1.3736 9.48612
226 2 2.2208 8.0782 2.87866 10.8909
268 1 -1.1104 9.36023 4.20939 9.45523
271 1 -1.1104 9.69359 4.05438 12.4872
273 1 -1.1104 9.69022 7.17019 9.44174
275 2 2.2208 8.0802 5.76388 7.92569
276 2 2.2208 10.8913 5.68007 10.7012
278 1 -1.1104 12.1357 7.16859 12.2434
279 1 -1.1104 12.4284 7.22907 9.5518
280 1 -1.1104 12.4703 4.29781 12.2174
283 1 -1.1104 12.2599 4.30529 9.50908
285 1 -1.1104 9.46039 6.94218 12.1204
108 1 -1.1104 0.86607 12.5533 6.61154
62 1 -1.1104 1.09587 9.77197 6.52862
124 1 -1.1104 3.66199 12.6884 6.56174
305 1 -1.1104 3.80922 12.7882 9.30993
294 1 -1.1104 1.0517 12.7734 9.43994
241 2 2.2208 5.03958 11.2173 10.6731
247 1 -1.1104 0.78281 9.82772 11.9371
250 2 2.2208 5.44095 8.29322 7.97709
252 1 -1.1104 0.849678 10.1655 9.26201
257 2 2.2208 2.2753 11.2842 7.77719
259 2 2.2208 2.43069 8.55674 10.71
261 1 -1.1104 3.7102 10.0735 12.2217
263 1 -1.1104 3.85464 9.70642 9.16643
299 1 -1.1104 1.05853 12.7856 12.3074
287 1 -1.1104 4.01275 12.6626 12.197
249 1 -1.1104 6.66755 10.0328 12.0249
254 1 -1.1104 6.7639 9.8921 9.39405
290 1 -1.1104 6.61661 12.6183 9.39502
65 1 -1.1104 6.81483 9.71029 6.68617
90 1 -1.1104 12.206 9.84368 6.52967
50 2 2.2208 13.6271 -2.72504 5.33857
143 1 -1.1104 12.4062 12.7188 6.83325
297 1 -1.1104 6.67707 12.5704 12.1777
330 1 -1.1104 12.2476 12.5671 11.9108
328 1 -1.1104 12.4201 12.7605 9.57029
322 1 -1.1104 9.57112 12.7967 11.9276
319 1 -1.1104 9.38979 12.8289 9.24743
264 1 -1.1104 9.63855 9.78258 9.38919
270 1 -1.1104 9.35062 9.78298 12.3831
272 2 2.2208 8.14309 8.40367 10.7257
274 2 2.2208 8.21835 11.2008 8.01993
277 2 2.2208 10.8963 11.3335 10.8118
281 1 -1.1104 12.2956 10.0031 12.2431
282 2 2.2208 10.9526 8.5319 7.98516
284 1 -1.1104 12.2306 10.1201 9.28951
83 2 2.2208 -0.329428 11.3125 5.18006
372 2 2.2208 8.20262 3.04518 -0.347685
296 1 -1.1104 6.69415 18.4107 12.1335
126 1 -1.1104 3.73608 18.3065 6.749
353 2 2.2208 2.68136 11.3991 13.6562
117 1 -1.1104 0.883525 15.2962 6.55126
112 1 -1.1104 6.63899 18.2587 6.436
306 1 -1.1104 6.79893 15.4779 12.4066
295 2 2.2208 5.22391 14.0466 7.84515
293 2 2.2208 5.30483 19.8701 7.64246
292 1 -1.1104 1.10619 15.369 9.60078
291 1 -1.1104 1.16476 18.2702 9.29478
310 2 2.2208 2.43172 14.0201 10.8552
300 2 2.2208 5.2103 16.8121 10.6794
304 1 -1.1104 3.78397 15.3981 9.16321
301 1 -1.1104 3.84511 18.5046 9.46255
303 2 2.2208 2.52238 16.9157 8.09625
309 2 2.2208 2.45491 19.8492 10.7299
308 1 -1.1104 3.91044 15.3417 12.0457
298 1 -1.1104 1.07958 18.3598 12.0243
307 1 -1.1104 1.11959 15.5827 12.4342
286 1 -1.1104 4.08948 18.2021 12.178
289 1 -1.1104 6.65928 15.3631 9.50977
288 1 -1.1104 6.60654 18.2959 9.27425
331 2 2.2208 10.8492 16.9998 10.8225
321 1 -1.1104 9.57879 18.3033 12.2195
326 1 -1.1104 12.3358 15.7439 12.4047
145 1 -1.1104 12.2512 18.3802 6.46231
149 1 -1.1104 12.5951 15.6719 6.65228
316 2 2.2208 8.0737 19.7341 10.6729
320 2 2.2208 8.15386 16.9187 7.93944
314 1 -1.1104 9.46999 15.6526 9.52704
324 2 2.2208 11.0298 19.8569 8.00416
329 1 -1.1104 12.3562 18.3931 12.2142
327 1 -1.1104 12.3286 18.5189 9.39947
359 2 2.2208 5.44986 14.0708 13.624
9041 2 2.2208 5.17178 -5.50237 -0.373198
365 2 2.2208 2.18318 -2.52928 -0.265611
30 2 2.2208 -0.396758 8.57347 7.95756
29 2 2.2208 -0.293296 5.86986 10.9839
203 2 2.2208 13.4459 2.93285 11.0303
105 2 2.2208 13.6467 5.71769 2.29241
382 2 2.2208 -0.253571 11.184 -0.253206
232 2 2.2208 13.6658 8.46277 5.31223
374 2 2.2208 5.2122 16.8818 -0.428985
385 2 2.2208 8.08095 8.49464 -0.400689
358 2 2.2208 5.34932 19.6578 13.6438
355 2 2.2208 10.7891 8.45906 13.5673
344 2 2.2208 13.5114 14.3185 -0.353685
371 2 2.2208 -0.254217 16.8922 -0.259231
367 2 2.2208 -0.240864 8.6118 13.5714
388 2 2.2208 5.266 0.0801539 16.6868
389 1 -1.1104 1.36956 -4.1191 17.7532
393 1 -1.1104 1.06862 -4.27529 15.0689
401 1 -1.1104 1.09473 -1.31779 17.6915
403 2 2.2208 5.5225 -2.79224 19.733
405 1 -1.1104 0.829294 -1.24832 14.9053
409 1 -1.1104 4.21284 -4.03516 17.9326
411 2 2.2208 2.52995 0.0454131 19.3299
412 1 -1.1104 3.72573 -4.02974 15.1904
416 2 2.2208 2.48252 -2.71987 16.4636
418 1 -1.1104 3.72995 -1.26621 17.8437
419 1 -1.1104 3.75893 -1.3063 15.1783
648 2 2.2208 -0.323665 11.3947 16.47
406 1 -1.1104 1.17127 -1.52696 20.8669
341 2 2.2208 5.21508 3.05645 13.8533
426 2 2.2208 13.62 8.60775 16.3318
394 1 -1.1104 1.27067 -4.33014 20.8555
350 2 2.2208 10.8399 2.94453 13.9005
340 2 2.2208 13.585 0.257026 13.7937
397 1 -1.1104 6.63019 -4.17503 15.2116
402 1 -1.1104 6.73264 -1.41817 18.209
391 1 -1.1104 6.76352 -4.31887 18.331
407 1 -1.1104 6.58761 -1.51474 15.2793
431 2 2.2208 10.9501 0.197651 16.6496
432 1 -1.1104 12.3839 -4.17557 17.9507
434 1 -1.1104 12.2767 -4.00353 15.0155
438 1 -1.1104 12.4053 -1.15227 18.1282
439 2 2.2208 10.9578 -2.69774 19.4407
441 1 -1.1104 12.0747 -1.17363 15.1873
443 1 -1.1104 9.80922 -4.32224 18.3957
445 2 2.2208 8.12672 0.107725 19.5667
446 1 -1.1104 9.41474 -4.14398 15.625
450 2 2.2208 7.8713 -2.63726 16.6826
452 1 -1.1104 9.45277 -1.40331 18.0526
453 1 -1.1104 9.14737 -1.41562 15.0325
354 2 2.2208 7.9898 5.63413 13.6852
343 2 2.2208 8.02615 0.035832 13.7553
442 1 -1.1104 12.393 -1.36041 20.8553
9120 2 2.2208 13.639 -5.46538 25.1322
685 2 2.2208 -0.360681 11.4668 22.2124
390 1 -1.1104 1.10027 1.47009 18.0932
395 1 -1.1104 1.03094 1.476 15.1914
404 2 2.2208 5.27981 2.75538 19.4918
410 1 -1.1104 4.05955 1.44076 17.9707
414 1 -1.1104 4.04322 1.78562 15.0879
417 2 2.2208 2.42574 2.89463 16.5187
464 2 2.2208 5.38312 5.81724 16.6699
466 1 -1.1104 1.13103 6.9031 18.0676
468 1 -1.1104 1.01912 7.13879 15.1819
472 1 -1.1104 1.14305 4.42152 17.9358
477 1 -1.1104 0.939597 4.0865 14.9813
485 1 -1.1104 4.03729 7.09253 17.9536
486 2 2.2208 2.61919 5.71298 19.273
488 1 -1.1104 3.57206 7.15046 14.9795
491 1 -1.1104 3.78685 4.05253 18.014
493 1 -1.1104 3.98925 4.61991 15.2268
481 1 -1.1104 6.62654 4.30965 15.1133
399 1 -1.1104 6.79989 1.5468 15.2808
470 1 -1.1104 6.53998 7.05412 14.9022
478 1 -1.1104 1.25834 4.1819 20.7593
684 2 2.2208 -0.0757386 8.60348 24.9891
467 1 -1.1104 6.86357 7.00339 18.0775
474 1 -1.1104 6.59453 4.27247 18.1641
392 1 -1.1104 6.77369 1.55413 18.0422
433 1 -1.1104 12.1822 1.75812 18.0104
436 1 -1.1104 12.322 1.54004 15.1187
440 2 2.2208 10.8938 2.87061 19.4942
444 1 -1.1104 9.55946 1.51817 18.2043
448 1 -1.1104 9.47129 1.59163 15.4175
451 2 2.2208 8.09121 2.85022 16.7373
500 2 2.2208 10.7688 5.77218 16.6067
505 1 -1.1104 12.3798 4.61641 17.8646
508 1 -1.1104 12.2305 4.28666 15.1056
512 1 -1.1104 9.71369 7.13495 17.9391
513 2 2.2208 8.16458 5.65169 19.412
515 1 -1.1104 9.29884 7.26989 14.9983
518 1 -1.1104 9.52345 4.41112 18.1734
520 1 -1.1104 9.26862 4.41852 15.417
503 1 -1.1104 12.2195 7.02177 15.1821
502 1 -1.1104 12.4801 7.31307 17.8362
460 2 2.2208 13.5666 19.6974 16.4065
400 1 -1.1104 6.81214 1.57449 20.819
504 1 -1.1104 12.4039 7.2074 20.6504
465 2 2.2208 5.22788 11.2063 16.5968
473 1 -1.1104 1.08439 10.1506 17.7542
476 2 2.2208 5.38703 8.6196 19.3545
479 1 -1.1104 0.909465 9.79969 15.1162
487 2 2.2208 2.3863 11.4832 19.2995
490 2 2.2208 2.36598 8.54752 16.5275
492 1 -1.1104 3.79985 9.97958 18.0094
495 1 -1.1104 3.98405 10.0358 15.1815
528 1 -1.1104 0.943701 12.9537 17.6866
532 1 -1.1104 1.12939 12.5825 15.1229
548 1 -1.1104 3.84067 12.69 17.8594
551 1 -1.1104 4.06386 12.7308 14.9283
536 1 -1.1104 6.67794 12.4877 14.8423
483 1 -1.1104 6.88587 9.78438 14.8992
475 1 -1.1104 6.79092 9.89558 17.6945
484 1 -1.1104 6.9116 9.85793 20.5096
421 2 2.2208 -0.191835 5.77113 22.2573
425 2 2.2208 -0.182457 -2.77027 19.4874
339 2 2.2208 2.54116 0.144317 13.637
530 1 -1.1104 6.58809 12.7704 17.9198
501 2 2.2208 10.8788 11.4509 16.3727
506 1 -1.1104 12.4816 10.1866 17.795
507 2 2.2208 10.9983 8.57301 19.2254
510 1 -1.1104 12.2722 9.85495 14.9867
514 2 2.2208 8.06415 11.4118 19.1822
517 2 2.2208 8.10196 8.53251 16.4591
519 1 -1.1104 9.51195 10.1038 17.7165
522 1 -1.1104 9.57107 9.82656 15.1254
564 1 -1.1104 12.1816 12.9758 17.7525
566 1 -1.1104 12.2931 12.6208 14.8844
575 1 -1.1104 9.50035 12.8996 17.7817
578 1 -1.1104 9.53963 12.6717 14.7566
718 1 -1.1104 6.85305 18.5012 23.5842
623 2 2.2208 -0.38927 16.9065 22.1942
9049 2 2.2208 2.42039 -5.4848 13.8413
646 2 2.2208 -0.373629 14.3055 25.1016
335 2 2.2208 -0.364812 19.9145 13.9102
9158 2 2.2208 10.9281 -5.48412 16.6694
542 2 2.2208 5.3123 14.2815 19.3996
555 2 2.2208 2.51496 13.976 16.3818
527 2 2.2208 5.53755 16.8614 16.4624
529 1 -1.1104 0.724197 18.4594 18.0568
534 1 -1.1104 1.3038 18.2173 15.1734
540 1 -1.1104 1.19802 15.6921 18.2404
543 2 2.2208 5.29659 19.7186 19.1846
544 1 -1.1104 1.11843 15.4639 15.1944
549 1 -1.1104 3.85443 18.2854 17.976
550 2 2.2208 2.52146 17.0159 19.4147
553 1 -1.1104 3.92943 18.2987 14.9597
556 2 2.2208 2.3653 19.5899 16.7992
557 1 -1.1104 4.16067 15.4224 17.8343
558 1 -1.1104 3.90808 15.516 14.8428
559 1 -1.1104 3.8808 15.6709 20.5578
386 2 2.2208 11.1256 11.4186 27.7066
616 2 2.2208 7.96403 19.871 22.1867
424 2 2.2208 -0.436888 0.0164132 16.5409
347 2 2.2208 8.34549 14.1339 27.6626
625 2 2.2208 -0.307256 0.0386415 22.1943
546 1 -1.1104 6.7371 15.3527 15.0588
538 1 -1.1104 6.60981 18.2204 14.9057
531 1 -1.1104 6.56193 18.2478 17.8667
541 1 -1.1104 6.81227 15.4852 17.8312
582 2 2.2208 7.9525 13.9647 16.3248
571 2 2.2208 10.9811 14.2061 19.2028
563 2 2.2208 10.8851 16.8808 16.3461
565 1 -1.1104 12.4915 18.4481 18.0257
568 1 -1.1104 12.2144 18.3415 15.0207
570 1 -1.1104 12.3223 15.6926 17.8249
572 2 2.2208 10.7504 19.6817 19.3376
573 1 -1.1104 12.4475 15.5852 15.1333
576 1 -1.1104 9.5105 18.279 17.8935
577 2 2.2208 8.08303 16.8876 19.1933
580 1 -1.1104 9.21286 18.3423 15.0866
583 2 2.2208 8.00752 19.9244 16.4059
584 1 -1.1104 9.44939 15.5219 17.8026
585 1 -1.1104 9.65304 15.4726 15.0443
569 1 -1.1104 12.4278 18.3173 20.7296
586 1 -1.1104 9.36986 15.3786 20.5833
622 2 2.2208 -0.350496 8.46741 19.395
547 1 -1.1104 6.64423 15.8248 20.7252
427 2 2.2208 -0.282263 3.02482 19.2589
645 2 2.2208 -0.454863 19.8102 25.108
346 2 2.2208 10.9286 -2.55828 13.7864
621 2 2.2208 -0.324363 5.79201 16.5249
420 1 -1.1104 3.92548 -1.30096 20.9378
413 1 -1.1104 3.86719 -3.94061 20.5183
349 2 2.2208 7.97589 19.981 27.691
591 2 2.2208 5.08244 -0.0785204 22.4334
592 1 -1.1104 1.04388 -4.0179 23.743
596 1 -1.1104 0.873505 -3.99308 26.6057
600 1 -1.1104 1.19362 -1.16311 23.5131
602 2 2.2208 5.08318 -2.81807 25.1165
604 1 -1.1104 1.00629 -1.08594 26.5461
606 1 -1.1104 3.73916 -4.19729 23.5678
608 2 2.2208 2.40631 0.162711 25.2865
609 1 -1.1104 3.84093 -4.24442 26.4519
611 2 2.2208 2.47171 -2.77709 22.2508
613 1 -1.1104 3.7516 -1.46622 23.7981
614 1 -1.1104 3.81636 -1.32233 26.6493
594 1 -1.1104 6.52415 -4.15943 23.7995
605 1 -1.1104 6.53181 -0.874877 26.4381
598 1 -1.1104 6.62456 -3.76164 26.5726
626 2 2.2208 -0.183925 2.74843 25.107
351 2 2.2208 2.2481 5.73395 13.702
454 1 -1.1104 9.56199 -1.29195 20.8214
337 2 2.2208 -0.459778 2.79898 13.6658
398 1 -1.1104 6.75219 -4.08117 21.1729
435 1 -1.1104 12.1016 -4.03573 20.8408
447 1 -1.1104 9.38016 -4.21804 21.1426
408 1 -1.1104 6.8473 -1.17464 20.9642
601 1 -1.1104 6.53208 -1.44628 23.7779
627 2 2.2208 11.0339 0.0173259 22.1512
628 1 -1.1104 12.3928 -4.07585 23.7002
630 1 -1.1104 12.3144 -4.19435 26.5326
632 1 -1.1104 12.2546 -1.52916 23.6435
633 2 2.2208 10.8693 -2.83994 25.1443
635 1 -1.1104 12.1163 -1.41008 26.5371
636 1 -1.1104 9.46534 -4.18327 23.9273
638 2 2.2208 8.11327 0.144964 25.1282
639 1 -1.1104 9.29696 -4.1911 26.5376
641 2 2.2208 8.27998 -2.90056 22.5852
643 1 -1.1104 9.61027 -1.25035 23.7379
644 1 -1.1104 9.26943 -1.53982 26.3598
457 2 2.2208 -0.32221 14.1946 19.2939
525 2 2.2208 11.0263 14.1971 24.7368
384 2 2.2208 11.1002 5.78256 27.7253
489 1 -1.1104 3.85668 7.22213 20.7765
396 1 -1.1104 0.984479 1.41782 20.7352
494 1 -1.1104 3.97014 4.23036 20.9053
469 1 -1.1104 1.23481 7.22764 20.8969
415 1 -1.1104 3.84185 1.39851 20.79
593 1 -1.1104 1.20904 1.67628 23.6317
597 1 -1.1104 1.09302 1.60104 26.7414
603 2 2.2208 5.44282 2.98847 25.1214
607 1 -1.1104 4.00286 1.44853 23.7832
610 1 -1.1104 3.66843 1.4508 26.5472
612 2 2.2208 2.58414 2.945 22.2243
656 2 2.2208 5.44862 5.69855 22.1747
658 1 -1.1104 1.10679 7.1431 23.5325
660 1 -1.1104 1.13653 7.22781 26.3949
662 1 -1.1104 1.3392 4.39487 23.6233
667 1 -1.1104 1.20906 4.39931 26.6869
671 1 -1.1104 3.85416 7.21764 23.6772
672 2 2.2208 2.51082 5.73997 25.0182
676 1 -1.1104 3.9534 4.58783 23.6467
678 1 -1.1104 3.91105 4.20633 26.4718
674 1 -1.1104 4.04373 7.19577 26.377
664 1 -1.1104 6.73668 4.4198 23.7646
669 1 -1.1104 6.82816 4.65942 26.4368
595 1 -1.1104 6.68557 1.42226 23.827
661 1 -1.1104 6.88404 7.40462 26.3105
456 2 2.2208 -0.191574 16.9466 16.4921
516 1 -1.1104 9.67693 7.21201 20.594
449 1 -1.1104 9.81868 1.43209 21.0043
509 1 -1.1104 12.2447 4.17048 20.8263
437 1 -1.1104 12.2473 1.45016 20.6335
482 1 -1.1104 6.82513 4.39616 20.8845
521 1 -1.1104 9.50783 4.28269 20.8804
599 1 -1.1104 6.65416 1.76854 26.6152
471 1 -1.1104 6.53623 7.12023 20.6782
659 1 -1.1104 6.71806 7.05841 23.5405
629 1 -1.1104 12.4237 1.47745 23.6073
631 1 -1.1104 12.4945 1.41649 26.6921
634 2 2.2208 11.0188 2.86919 25.0057
637 1 -1.1104 9.591 1.56868 23.6948
640 1 -1.1104 9.44959 1.65306 26.6099
642 2 2.2208 8.19775 2.8494 22.3381
688 1 -1.1104 9.85119 4.33752 26.2497
690 1 -1.1104 9.57325 4.15746 23.6324
692 1 -1.1104 9.61259 7.01251 26.4132
694 2 2.2208 8.41739 5.6209 24.9164
695 2 2.2208 11.0959 5.68921 22.1124
697 1 -1.1104 12.3289 7.10563 23.6384
698 1 -1.1104 12.5298 7.26331 26.3115
699 1 -1.1104 12.6093 4.4642 23.4217
702 1 -1.1104 12.567 4.31532 26.2696
704 1 -1.1104 9.50197 7.09316 23.4289
480 1 -1.1104 1.18135 9.89649 20.7662
496 1 -1.1104 3.87767 10.3124 20.5974
552 1 -1.1104 3.82516 12.9566 20.708
615 2 2.2208 8.06863 14.1273 22.1783
533 1 -1.1104 0.899983 12.8166 20.7046
657 2 2.2208 5.15067 11.3726 22.047
663 1 -1.1104 1.26574 9.94045 23.5793
666 2 2.2208 5.35972 8.50687 24.7714
668 1 -1.1104 0.967904 9.84289 26.4332
673 2 2.2208 2.57495 11.4007 24.9673
675 2 2.2208 2.51424 8.4973 22.143
677 1 -1.1104 4.14847 10.0915 23.6475
679 1 -1.1104 3.85673 9.97249 26.3259
681 1 -1.1104 3.74839 12.7615 26.6104
706 1 -1.1104 0.847018 12.8036 23.715
713 1 -1.1104 3.80683 13.0099 23.5175
717 1 -1.1104 0.834504 12.6191 26.4788
665 1 -1.1104 6.70851 9.82865 23.2042
712 1 -1.1104 6.62064 12.8318 26.3958
680 1 -1.1104 6.76997 15.5637 23.5278
499 1 -1.1104 12.272 18.4514 26.336
462 2 2.2208 10.9429 16.9934 22.0832
579 1 -1.1104 9.2671 12.7135 20.5257
537 1 -1.1104 6.5507 12.6247 20.7181
670 1 -1.1104 6.38366 10.1784 26.1007
523 1 -1.1104 9.60461 10.041 20.7036
511 1 -1.1104 12.3883 9.9719 20.662
567 1 -1.1104 12.4944 12.8057 20.4911
709 1 -1.1104 6.66498 12.8341 23.6629
589 1 -1.1104 9.52943 12.8991 26.0784
687 1 -1.1104 9.34139 10.0587 26.4995
689 1 -1.1104 9.43729 9.80487 23.5512
691 2 2.2208 8.16399 8.43742 22.0758
693 2 2.2208 7.89769 11.3479 24.7209
696 2 2.2208 11.0642 11.1952 22.1766
700 1 -1.1104 12.4784 9.90935 23.6033
701 2 2.2208 10.8319 8.53736 24.9542
703 1 -1.1104 12.3067 10.0801 26.2694
561 1 -1.1104 9.51169 12.329 23.5555
463 1 -1.1104 12.2432 12.7923 23.3395
498 1 -1.1104 12.4416 12.9027 26.371
554 1 -1.1104 3.94962 18.6345 20.7673
587 2 2.2208 8.20714 17.0326 25.0747
714 1 -1.1104 6.64521 15.5213 26.5113
338 2 2.2208 5.19021 -2.73002 13.759
535 1 -1.1104 1.09492 18.3708 20.7288
588 1 -1.1104 6.68085 18.2309 26.3349
539 1 -1.1104 6.78603 18.5839 20.8035
545 1 -1.1104 1.08329 15.499 21.0253
715 1 -1.1104 1.1351 18.3298 26.2919
719 2 2.2208 5.07326 19.8416 24.946
711 1 -1.1104 3.98772 18.4724 23.3581
707 1 -1.1104 1.1362 18.6117 23.6203
716 1 -1.1104 1.15171 15.5438 26.5081
720 2 2.2208 5.18237 14.3676 24.9727
647 2 2.2208 2.40716 14.3115 22.2174
649 2 2.2208 2.34827 19.8732 22.2473
652 1 -1.1104 3.86403 15.8459 23.3571
655 1 -1.1104 1.01499 15.7305 23.8112
682 1 -1.1104 3.83389 15.6359 26.184
683 2 2.2208 2.42596 17.0686 24.7898
686 1 -1.1104 3.85337 18.2073 26.3533
705 2 2.2208 5.61119 17.1719 22.2267
459 2 2.2208 13.637 -2.55021 16.4721
497 1 -1.1104 12.3707 18.3842 23.5978
617 1 -1.1104 9.81174 15.497 23.4231
560 1 -1.1104 12.3578 15.7755 26.4888
590 1 -1.1104 9.45944 18.4022 26.4226
620 1 -1.1104 9.55351 15.5975 26.1869
574 1 -1.1104 12.3388 15.6274 20.6
581 1 -1.1104 9.64262 18.0946 20.5364
526 2 2.2208 10.8651 19.7202 24.9365
562 1 -1.1104 9.44519 18.334 23.434
524 1 -1.1104 12.4125 15.6243 23.4113
379 2 2.2208 5.23619 5.68097 27.7229
383 2 2.2208 -0.322997 5.74457 27.7481
381 2 2.2208 5.21581 11.3323 27.7044
352 2 2.2208 5.13146 8.48488 13.7406
345 2 2.2208 13.683 19.7117 27.7835
721 2 2.2208 5.16982 22.5032 5.12469
723 1 -1.1104 0.862837 23.8363 1.04355
724 1 -1.1104 0.898115 23.8371 3.80525
725 1 -1.1104 1.06277 20.9511 1.04987
727 2 2.2208 5.2047 25.5399 2.55793
728 1 -1.1104 1.10111 21.0879 3.96235
730 1 -1.1104 3.40235 23.845 0.975822
731 2 2.2208 2.59171 22.5396 2.52469
733 1 -1.1104 3.58371 24.0846 4.03174
734 2 2.2208 2.31599 25.4377 5.43238
735 1 -1.1104 3.79705 21.0765 0.796685
737 1 -1.1104 3.94971 21.1993 3.7348
869 1 -1.1104 3.83355 21.2308 6.53476
738 1 -1.1104 3.70919 26.7659 3.78122
729 1 -1.1104 0.943006 26.6107 3.89848
726 1 -1.1104 1.03986 26.9206 0.787138
746 1 -1.1104 6.60551 20.9943 3.89849
747 1 -1.1104 6.6023 26.9079 3.74556
867 1 -1.1104 6.54211 26.7213 6.55368
1068 2 2.2208 5.28536 22.6102 -0.489909
1650 1 -1.1104 12.4292 46.2967 12.1724
745 1 -1.1104 6.55143 26.7301 1.14153
744 1 -1.1104 6.48408 21.0996 0.775412
742 1 -1.1104 6.56311 24.0001 1.13368
743 1 -1.1104 6.41636 23.8669 3.70639
748 2 2.2208 10.7906 22.563 5.14722
750 1 -1.1104 12.2833 23.8549 0.987871
751 1 -1.1104 12.4563 24.0755 3.83943
752 1 -1.1104 12.4232 21.2553 0.969152
754 2 2.2208 10.9365 25.262 2.32795
755 1 -1.1104 12.1015 21.3216 3.84934
757 1 -1.1104 9.19305 24.0483 1.17498
758 2 2.2208 7.85037 22.4819 2.40172
760 1 -1.1104 9.57543 24.0875 3.90897
761 2 2.2208 7.97648 25.3409 5.42572
762 1 -1.1104 9.58144 21.3963 0.950182
764 1 -1.1104 9.26362 21.0593 3.79621
763 1 -1.1104 9.3717 26.8209 0.923334
756 1 -1.1104 12.1608 26.8803 3.80292
765 1 -1.1104 9.27843 26.883 3.60271
753 1 -1.1104 12.2091 26.6727 0.923684
866 1 -1.1104 6.76932 21.1364 6.41806
899 1 -1.1104 9.45754 21.1628 6.5077
1041 2 2.2208 -0.384736 33.8121 10.8726
1618 1 -1.1104 1.1071 46.4536 9.40868
1050 2 2.2208 8.0739 22.5367 13.6495
736 1 -1.1104 3.86913 26.8454 0.974386
722 2 2.2208 4.9297 28.2172 5.20387
732 2 2.2208 2.52129 28.1328 2.43236
770 1 -1.1104 1.10202 29.6357 0.87458
773 1 -1.1104 0.856641 29.2974 3.78729
776 1 -1.1104 0.91777 32.3242 0.991533
777 2 2.2208 5.0083 31.0839 2.45583
779 1 -1.1104 0.571973 32.2703 3.9417
781 1 -1.1104 3.81413 29.6956 1.05427
784 1 -1.1104 3.70894 29.5531 3.95652
786 2 2.2208 2.37259 31.0068 5.34179
788 1 -1.1104 3.7606 32.558 1.12195
789 1 -1.1104 3.62174 32.4705 3.80252
923 1 -1.1104 1.03681 32.4118 6.72954
793 1 -1.1104 6.74781 29.5316 0.836357
1439 1 -1.1104 3.91656 46.52 3.81489
1617 1 -1.1104 6.81717 46.539 12.1782
1049 2 2.2208 7.91261 28.1793 13.4056
1052 2 2.2208 5.48963 36.5671 13.5457
780 1 -1.1104 6.36586 32.4979 3.65898
795 1 -1.1104 6.42922 32.6709 0.97781
794 1 -1.1104 6.29828 29.7911 3.68295
749 2 2.2208 10.8507 28.135 5.13573
759 2 2.2208 7.9152 28.2275 2.40716
797 1 -1.1104 12.2144 29.8282 1.05518
799 1 -1.1104 12.2531 29.7041 3.70148
801 1 -1.1104 12.3865 32.6365 0.783588
802 2 2.2208 10.7292 31.0388 2.22809
804 1 -1.1104 12.1779 32.5984 3.64479
805 1 -1.1104 9.33251 29.6811 0.935047
808 1 -1.1104 9.34937 29.5425 3.60053
810 2 2.2208 7.96592 31.0201 4.90744
812 1 -1.1104 9.42933 32.5761 0.780385
813 1 -1.1104 9.36551 32.3117 3.7862
958 1 -1.1104 9.24387 32.4098 6.49647
956 1 -1.1104 9.28523 29.5296 6.28506
955 1 -1.1104 12.1532 31.9124 6.52431
1418 1 -1.1104 6.63148 46.8012 0.846229
1652 1 -1.1104 12.0698 46.6349 9.35445
767 2 2.2208 13.4771 28.2989 2.35731
1612 1 -1.1104 6.64989 46.6465 6.43971
769 2 2.2208 5.20818 33.8569 5.03912
771 1 -1.1104 0.953077 35.152 0.964019
774 1 -1.1104 0.738695 35.1982 3.97171
778 2 2.2208 5.1336 36.8691 2.24852
782 1 -1.1104 3.91082 35.3006 0.98527
783 2 2.2208 2.09186 33.743 2.42199
785 1 -1.1104 3.75238 35.1785 3.80429
787 2 2.2208 2.2153 36.6771 5.18935
815 2 2.2208 5.32728 39.4353 5.30704
821 1 -1.1104 0.863406 38.1778 1.07092
826 1 -1.1104 0.855588 38.082 3.82197
831 2 2.2208 2.34686 39.6645 2.36334
835 1 -1.1104 3.84981 38.0565 0.823881
837 1 -1.1104 3.78362 38.1476 3.78192
775 1 -1.1104 6.53531 35.2057 3.66722
1078 2 2.2208 2.40537 36.8506 -0.451638
988 1 -1.1104 0.96252 38.2104 6.71031