LAMMPS (29 Oct 2020)
OMP_NUM_THREADS environment is not set. Defaulting to 1 thread. (../comm.cpp:94)
  using 1 OpenMP thread(s) per MPI task
OMP_NUM_THREADS environment is not set. Defaulting to 1 thread. (../comm.cpp:94)
  using 1 OpenMP thread(s) per MPI task
Reading data file ...
  orthogonal box = (-0.27717828 -3.4472206 -0.27717828) to (27.617178 331.52722 27.617178)
  2 by 13 by 2 MPI processor grid
  reading atoms ...
  18000 atoms
  reading velocities ...
  18000 velocities
Finding 1-2 1-3 1-4 neighbors ...
  special bond factors lj:    0.0      0.0      0.0     
  special bond factors coul:  0.0      0.0      0.0     
     0 = max # of 1-2 neighbors
     0 = max # of 1-3 neighbors
     0 = max # of 1-4 neighbors
     1 = max # of special neighbors
  special bonds CPU = 0.003 seconds
  read_data CPU = 0.065 seconds
75 atoms in group sphere
16 atoms in group oxygen
1 atoms in group thorium
59 atoms in group 1
60 atoms in group cluster
6000 atoms in group Th
12000 atoms in group O
20 atoms in group Th_group
40 atoms in group O_group
Setting atom values ...
  5 settings made for type/subset
5 atoms in group Xe
55 atoms in group delete
WARNING: Ignoring 'compress yes' for molecular system (../delete_atoms.cpp:125)
Deleted 55 atoms, new total = 17945
75 atoms in group sphere
1 atoms in group oxygen
16 atoms in group thorium
59 atoms in group 1
60 atoms in group cluster
5980 atoms in group Th
11960 atoms in group O
20 atoms in group Th_group
40 atoms in group O_group
Setting atom values ...
  5 settings made for type/subset
10 atoms in group Xe
55 atoms in group delete
WARNING: Ignoring 'compress yes' for molecular system (../delete_atoms.cpp:125)
Deleted 55 atoms, new total = 17890
75 atoms in group sphere
1 atoms in group oxygen
16 atoms in group thorium
59 atoms in group 1
60 atoms in group cluster
5960 atoms in group Th
11920 atoms in group O
20 atoms in group Th_group
40 atoms in group O_group
Setting atom values ...
  5 settings made for type/subset
15 atoms in group Xe
55 atoms in group delete
WARNING: Ignoring 'compress yes' for molecular system (../delete_atoms.cpp:125)
Deleted 55 atoms, new total = 17835
75 atoms in group sphere
1 atoms in group oxygen
16 atoms in group thorium
59 atoms in group 1
60 atoms in group cluster
5940 atoms in group Th
11880 atoms in group O
20 atoms in group Th_group
40 atoms in group O_group
Setting atom values ...
  5 settings made for type/subset
20 atoms in group Xe
55 atoms in group delete
WARNING: Ignoring 'compress yes' for molecular system (../delete_atoms.cpp:125)
Deleted 55 atoms, new total = 17780
75 atoms in group sphere
1 atoms in group oxygen
16 atoms in group thorium
59 atoms in group 1
60 atoms in group cluster
5920 atoms in group Th
11840 atoms in group O
20 atoms in group Th_group
40 atoms in group O_group
Setting atom values ...
  5 settings made for type/subset
25 atoms in group Xe
55 atoms in group delete
WARNING: Ignoring 'compress yes' for molecular system (../delete_atoms.cpp:125)
Deleted 55 atoms, new total = 17725
75 atoms in group sphere
1 atoms in group oxygen
16 atoms in group thorium
59 atoms in group 1
60 atoms in group cluster
5900 atoms in group Th
11800 atoms in group O
20 atoms in group Th_group
40 atoms in group O_group
Setting atom values ...
  5 settings made for type/subset
30 atoms in group Xe
55 atoms in group delete
WARNING: Ignoring 'compress yes' for molecular system (../delete_atoms.cpp:125)
Deleted 55 atoms, new total = 17670
Setting atom values ...
  11760 settings made for charge
Setting atom values ...
  5880 settings made for charge
Setting atom values ...
  30 settings made for charge
WARNING: 13 of 1000 force values in table Xe-Xe are inconsistent with -dE/dr.
  Should only be flagged at inflection points (../pair_table.cpp:461)
WARNING: 2 of 1000 force values in table Xe-O are inconsistent with -dE/dr.
  Should only be flagged at inflection points (../pair_table.cpp:461)
WARNING: 2 of 1000 force values in table Xe-Th are inconsistent with -dE/dr.
  Should only be flagged at inflection points (../pair_table.cpp:461)
PPPM initialization ...
  using 12-bit tables for long-range coulomb (../kspace.cpp:328)
  G vector (1/distance) = 0.29911933
  grid = 40 240 40
  stencil order = 5
  estimated absolute RMS force accuracy = 0.0001536463
  estimated relative force accuracy = 1.0670145e-05
  using single precision MKL FFT
  3d grid and FFT values/proc = 18225 7600
Neighbor list info ...
  update every 1 steps, delay 0 steps, check yes
  max neighbors/atom: 2000, page size: 100000
  master list distance cutoff = 13
  ghost atom cutoff = 13
  binsize = 6.5, bins = 5 52 5
  3 neighbor lists, perpetual/occasional/extra = 3 0 0
  (1) pair coul/long, perpetual
      attributes: half, newton on
      pair build: half/bin/newton
      stencil: half/bin/3d/newton
      bin: standard
  (2) pair eam/alloy, perpetual, skip from (1)
      attributes: half, newton on
      pair build: skip
      stencil: none
      bin: none
  (3) pair table, perpetual, skip from (1)
      attributes: half, newton on
      pair build: skip
      stencil: none
      bin: none
Setting up cg style minimization ...
  Unit style    : metal
  Current step  : 0
WARNING: Energy due to 3 extra global DOFs will be included in minimizer energies
Per MPI rank memory allocation (min/avg/max) = 10.35 | 10.95 | 11.16 Mbytes
Step Temp E_pair E_mol TotEng Press Volume 
       0            0   -230646.64            0   -230646.64     1195.165    260641.98 
     336            0    -231448.3            0    -231448.3    113.87849    261515.94 
Loop time of 6.54277 on 52 procs for 336 steps with 17670 atoms

99.6% CPU use with 52 MPI tasks x 1 OpenMP threads

Minimization stats:
  Stopping criterion = linesearch alpha is zero
  Energy initial, next-to-last, final = 
     -230646.643007392  -231448.295977294  -231448.295977294
  Force two-norm initial, final = 765.60068 42.252524
  Force max component initial, final = 569.02319 29.527132
  Final line search alpha, max atom move = 5.1210250e-12 1.5120918e-10
  Iterations, force evaluations = 336 593

MPI task timing breakdown:
Section |  min time  |  avg time  |  max time  |%varavg| %total
---------------------------------------------------------------
Pair    | 3.8299     | 4.0152     | 4.2086     |   4.8 | 61.37
Bond    | 4.9479e-05 | 8.0569e-05 | 0.0001369  |   0.0 |  0.00
Kspace  | 1.0189     | 1.2114     | 1.3967     |   8.8 | 18.52
Neigh   | 0.0024898  | 0.0031086  | 0.0038456  |   0.6 |  0.05
Comm    | 0.096725   | 0.098691   | 0.10079    |   0.3 |  1.51
Output  | 0          | 0          | 0          |   0.0 |  0.00
Modify  | 0          | 0          | 0          |   0.0 |  0.00
Other   |            | 1.214      |            |       | 18.56

Nlocal:        339.808 ave         412 max         282 min
Histogram: 6 4 6 11 6 6 6 0 1 6
Nghost:        5525.73 ave        5698 max        5374 min
Histogram: 2 6 7 8 8 3 8 5 4 1
Neighs:       107811.0 ave      132587 max       90990 min
Histogram: 6 7 9 4 7 12 0 1 1 5

Total # of neighbors = 5606165
Ave neighs/atom = 317.27023
Ave special neighs/atom = 0.0000000
Neighbor list builds = 1
Dangerous builds = 0
Resetting atom IDs ...
PPPM initialization ...
  using 12-bit tables for long-range coulomb (../kspace.cpp:328)
  G vector (1/distance) = 0.29905896
  grid = 40 240 40
  stencil order = 5
  estimated absolute RMS force accuracy = 0.0001541239
  estimated relative force accuracy = 1.0703313e-05
  using single precision MKL FFT
  3d grid and FFT values/proc = 18225 7600
Neighbor list info ...
  update every 1 steps, delay 0 steps, check yes
  max neighbors/atom: 2000, page size: 100000
  master list distance cutoff = 13
  ghost atom cutoff = 13
  binsize = 6.5, bins = 5 52 5
  3 neighbor lists, perpetual/occasional/extra = 3 0 0
  (1) pair coul/long, perpetual
      attributes: half, newton on
      pair build: half/bin/newton
      stencil: half/bin/3d/newton
      bin: standard
  (2) pair eam/alloy, perpetual, skip from (1)
      attributes: half, newton on
      pair build: skip
      stencil: none
      bin: none
  (3) pair table, perpetual, skip from (1)
      attributes: half, newton on
      pair build: skip
      stencil: none
      bin: none
Finding 1-2 1-3 1-4 neighbors ...
  special bond factors lj:    0.0      0.0      0.0     
  special bond factors coul:  0.0      0.0      0.0     
     0 = max # of 1-2 neighbors
     0 = max # of 1-3 neighbors
     0 = max # of 1-4 neighbors
     1 = max # of special neighbors
  special bonds CPU = 0.001 seconds
PPPM initialization ...
  using 12-bit tables for long-range coulomb (../kspace.cpp:328)
  G vector (1/distance) = 0.29905896
  grid = 40 240 40
  stencil order = 5
  estimated absolute RMS force accuracy = 0.0001541239
  estimated relative force accuracy = 1.0703313e-05
  using single precision MKL FFT
  3d grid and FFT values/proc = 18225 7600
Neighbor list info ...
  update every 1 steps, delay 0 steps, check yes
  max neighbors/atom: 2000, page size: 100000
  master list distance cutoff = 13
  ghost atom cutoff = 13
  binsize = 6.5, bins = 5 52 5
  3 neighbor lists, perpetual/occasional/extra = 3 0 0
  (1) pair coul/long, perpetual
      attributes: half, newton on
      pair build: half/bin/newton
      stencil: half/bin/3d/newton
      bin: standard
  (2) pair eam/alloy, perpetual, skip from (1)
      attributes: half, newton on
      pair build: skip
      stencil: none
      bin: none
  (3) pair table, perpetual, skip from (1)
      attributes: half, newton on
      pair build: skip
      stencil: none
      bin: none
Setting up Verlet run ...
  Unit style    : metal
  Current step  : 336
  Time step     : 0.001
Per MPI rank memory allocation (min/avg/max) = 9.229 | 9.863 | 10.03 Mbytes
Step Dt Time Atoms Temp PotEng KinEng Press Volume 
     336        0.001            0    17670          600    -231448.3    1370.3385    5710.6616    261515.94 
   10000        0.001        9.664    17670    596.65028   -230475.39    1362.6881   -349.95539    265037.97 
   20000        0.001       19.664    17670    599.47104   -230481.51    1369.1304    319.05563    264930.67 
   30000        0.001       29.664    17670     597.4058   -230475.74    1364.4136   -1199.8924     265119.1 
   40000        0.001       39.664    17670      601.224   -230480.27     1373.134   -94.115542    264995.32 
   50000        0.001       49.664    17670    598.58382   -230478.74    1367.1041    1846.6596    264665.35 
   60000        0.001       59.664    17670     602.1455   -230494.82    1375.2386    805.86756    264840.36 
   70000        0.001       69.664    17670    598.42777   -230512.26    1366.7477    620.64391    264807.36 
   80000        0.001       79.664    17670     595.3534   -230494.39    1359.7261   -1061.4877    265032.41 
   90000        0.001       89.664    17670    602.55001   -230489.63    1376.1625     539.4492    264868.93 
  100000        0.001       99.664    17670     599.9683   -230487.91    1370.2661    744.19568    264863.78 
  100336        0.001          100    17670     600.9972   -230490.98     1372.616   -626.17872    265023.95 
Loop time of 832.307 on 52 procs for 100000 steps with 17670 atoms

Performance: 10.381 ns/day, 2.312 hours/ns, 120.148 timesteps/s
99.8% CPU use with 52 MPI tasks x 1 OpenMP threads

MPI task timing breakdown:
Section |  min time  |  avg time  |  max time  |%varavg| %total
---------------------------------------------------------------
Pair    | 523.06     | 543.02     | 558.61     |  43.9 | 65.24
Bond    | 0.010212   | 0.014164   | 0.019141   |   1.8 |  0.00
Kspace  | 150.37     | 166.11     | 186.45     |  80.5 | 19.96
Neigh   | 2.5069     | 2.7089     | 2.9194     |   8.6 |  0.33
Comm    | 15.92      | 16.465     | 16.963     |   5.3 |  1.98
Output  | 0.053327   | 0.053371   | 0.055222   |   0.1 |  0.01
Modify  | 92.56      | 96.216     | 100.37     |  22.5 | 11.56
Other   |            | 7.719      |            |       |  0.93

Nlocal:        339.808 ave         370 max         315 min
Histogram: 7 4 10 3 4 6 4 6 3 5
Nghost:        5535.69 ave        5652 max        5429 min
Histogram: 7 9 4 0 1 6 13 8 0 4
Neighs:       107103.0 ave      118359 max       96753 min
Histogram: 7 8 8 1 0 4 8 5 5 6

Total # of neighbors = 5569343
Ave neighs/atom = 315.18636
Ave special neighs/atom = 0.0000000
Neighbor list builds = 865
Dangerous builds = 0
System init for write_data ...
PPPM initialization ...
  using 12-bit tables for long-range coulomb (../kspace.cpp:328)
  G vector (1/distance) = 0.2988193
  grid = 40 240 40
  stencil order = 5
  estimated absolute RMS force accuracy = 0.00015602156
  estimated relative force accuracy = 1.0835098e-05
  using single precision MKL FFT
  3d grid and FFT values/proc = 18225 7600
Neighbor list info ...
  update every 1 steps, delay 0 steps, check yes
  max neighbors/atom: 2000, page size: 100000
  master list distance cutoff = 13
  ghost atom cutoff = 13
  binsize = 6.5, bins = 5 52 5
  3 neighbor lists, perpetual/occasional/extra = 3 0 0
  (1) pair coul/long, perpetual
      attributes: half, newton on
      pair build: half/bin/newton
      stencil: half/bin/3d/newton
      bin: standard
  (2) pair eam/alloy, perpetual, skip from (1)
      attributes: half, newton on
      pair build: skip
      stencil: none
      bin: none
  (3) pair table, perpetual, skip from (1)
      attributes: half, newton on
      pair build: skip
      stencil: none
      bin: none
Total wall time: 0:13:59
