ITEM: TIMESTEP
100000
ITEM: NUMBER OF ATOMS
17760
ITEM: BOX BOUNDS pp pp pp
-3.7535718327180201e-01 2.7715357183271742e+01
-4.4656462940202202e+00 3.3254564629402284e+02
-3.7849004450566015e-01 2.7718490044505021e+01
ITEM: ATOMS id type q x y z
1 2 2.2208 5.38449 1.12902 5.28995
2 1 -1.1104 1.10235 -2.95738 1.16024
3 1 -1.1104 1.01244 2.49512 1.12921
6 1 -1.1104 0.981283 -3.18799 3.94652
7 1 -1.1104 1.05871 2.32568 3.97071
10 1 -1.1104 1.0074 -0.234611 1.0569
12 2 2.2208 5.25303 -1.75119 2.42056
13 2 2.2208 5.30248 3.95167 2.45267
14 1 -1.1104 1.01927 -0.439155 3.86287
16 1 -1.1104 3.79023 -3.12506 1.11642
17 1 -1.1104 3.88205 2.37393 1.16424
18 2 2.2208 2.4398 1.1209 2.50481
19 1 -1.1104 3.80944 -3.09562 3.97562
20 1 -1.1104 4.04452 2.4896 3.90722
21 2 2.2208 2.58809 -1.69238 5.22579
23 1 -1.1104 3.89528 -0.259676 1.12893
24 1 -1.1104 3.85499 -0.275444 3.85725
22 2 2.2208 2.49875 3.89916 5.34455
338 2 2.2208 2.586 3.78597 -0.307398
347 2 2.2208 5.43476 12.3376 -0.242976
200 2 2.2208 -0.245303 -1.67553 8.1267
9224 2 2.2208 -0.271265 1.06398 5.21995
9236 2 2.2208 -0.22563 17.8748 5.27918
9227 2 2.2208 13.6456 1.0182 2.6423
166 1 -1.1104 1.23406 -3.04388 6.73981
173 1 -1.1104 3.80105 2.50947 6.70442
9221 2 2.2208 -0.40226 -1.7903 2.52402
9228 2 2.2208 13.6701 -1.64439 5.34393
341 2 2.2208 8.23817 3.94794 -0.473772
339 2 2.2208 10.8571 1.10757 -0.284851
4 1 -1.1104 6.66257 -3.11141 1.00004
8 1 -1.1104 6.70443 -3.18146 3.82414
9 1 -1.1104 6.67196 2.50859 3.82646
11 1 -1.1104 6.66257 -0.392441 1.11856
5 1 -1.1104 6.57994 2.68788 0.875036
15 1 -1.1104 6.74456 -0.295217 3.91364
31 2 2.2208 10.7956 1.08425 5.41127
32 1 -1.1104 12.384 -3.36728 1.12927
33 1 -1.1104 12.2923 2.3018 1.15817
34 1 -1.1104 12.4231 -3.12023 3.91365
35 1 -1.1104 12.3111 2.33382 3.86612
36 1 -1.1104 12.3305 -0.507654 1.02177
37 2 2.2208 10.8798 -1.76751 2.36637
39 1 -1.1104 12.3647 -0.307726 3.92102
40 1 -1.1104 9.58753 -3.16498 1.05233
41 1 -1.1104 9.39109 2.65843 1.11145
42 2 2.2208 8.05132 1.12935 2.42443
43 1 -1.1104 9.37355 -3.11748 3.86495
44 1 -1.1104 9.60223 2.50842 3.9332
45 2 2.2208 8.10587 -1.80021 5.26074
47 1 -1.1104 9.47233 -0.289605 0.959392
48 1 -1.1104 9.45208 -0.271594 3.70612
46 2 2.2208 8.11523 3.95443 5.23386
38 2 2.2208 11.0559 3.81568 2.45315
9251 2 2.2208 -0.216913 6.58939 -0.224206
206 1 -1.1104 12.3485 2.40225 6.62337
340 2 2.2208 8.05051 -1.69337 -0.396056
54 2 2.2208 5.3616 6.69724 5.35386
55 2 2.2208 5.18874 12.2686 5.42793
56 1 -1.1104 1.152 7.93104 1.14501
58 1 -1.1104 1.10143 8.02489 3.95632
60 1 -1.1104 1.06501 5.2309 1.19278
61 1 -1.1104 1.14627 10.8806 1.13492
66 2 2.2208 5.33455 9.40193 2.59886
67 1 -1.1104 0.981619 5.07299 3.95362
68 1 -1.1104 1.13247 10.8586 3.84015
71 1 -1.1104 4.01975 7.99786 1.18567
72 2 2.2208 2.58609 6.65519 2.43747
73 2 2.2208 2.59288 12.2187 2.55894
74 1 -1.1104 3.8702 8.03453 3.9963
75 2 2.2208 2.47947 9.50753 5.39925
76 1 -1.1104 3.91509 5.27442 1.01731
77 1 -1.1104 3.965 10.7277 1.19761
79 1 -1.1104 3.88122 5.21397 3.8775
80 1 -1.1104 3.8992 10.8809 3.94276
9232 2 2.2208 -0.240915 12.2839 5.3782
320 2 2.2208 8.25428 20.5268 -0.26157
580 2 2.2208 5.23729 -4.47194 -0.337495
9241 2 2.2208 -0.219675 20.6473 8.07344
70 1 -1.1104 6.81673 10.8298 3.9487
104 1 -1.1104 9.5639 19.2245 12.2818
9230 2 2.2208 -0.315543 6.60936 5.26613
27 1 -1.1104 12.4572 19.3303 12.4541
63 1 -1.1104 6.64779 5.49291 1.1525
57 1 -1.1104 6.96534 8.11012 0.995559
64 1 -1.1104 6.61336 10.7348 1.19106
59 1 -1.1104 6.71429 7.99584 3.87294
69 1 -1.1104 6.61434 5.35208 3.92247
84 2 2.2208 10.9844 6.71693 5.35739
85 2 2.2208 10.9757 12.2897 5.31127
86 1 -1.1104 12.3985 7.98658 1.04467
87 1 -1.1104 12.3973 8.09803 3.93127
88 1 -1.1104 12.5411 5.12927 1.19714
89 1 -1.1104 12.4065 10.8594 1.07924
91 2 2.2208 11.0311 9.39423 2.36821
92 1 -1.1104 12.2958 5.32694 3.96211
93 1 -1.1104 12.3654 10.902 3.9655
94 1 -1.1104 9.65425 8.13521 0.958018
95 2 2.2208 8.08443 6.60404 2.4935
96 2 2.2208 8.15277 12.2115 2.48521
97 1 -1.1104 9.4947 7.92973 3.85177
98 2 2.2208 8.21846 9.41599 5.26247
99 1 -1.1104 9.58966 5.20242 1.04344
100 1 -1.1104 9.60243 10.8008 1.13215
102 1 -1.1104 9.60632 5.26365 4.01509
103 1 -1.1104 9.57012 10.889 3.98673
267 1 -1.1104 9.71487 8.02258 6.72318
342 2 2.2208 11.0907 12.2392 -0.296216
105 2 2.2208 8.23238 17.8456 8.23402
319 2 2.2208 11.0343 17.8676 -0.325827
9235 2 2.2208 -0.0395143 15.053 2.48024
313 2 2.2208 2.62133 15.0394 -0.326474
106 2 2.2208 5.3683 17.9279 5.38597
107 1 -1.1104 1.10821 13.5234 1.07804
109 1 -1.1104 1.22781 19.1856 1.00265
113 1 -1.1104 1.31303 13.6296 3.9483
114 1 -1.1104 1.18195 19.2001 3.74952
116 1 -1.1104 1.38392 16.3614 1.08156
119 2 2.2208 5.51662 15.007 2.57202
120 2 2.2208 5.29892 20.713 2.56511
121 1 -1.1104 1.24079 16.4158 3.87297
123 1 -1.1104 3.98057 13.4624 1.07169
125 1 -1.1104 3.94844 19.1421 1.06273
127 2 2.2208 2.68694 17.7557 2.43023
128 1 -1.1104 4.04023 13.71 3.96327
129 1 -1.1104 3.89925 19.2966 3.96155
130 2 2.2208 2.55776 15.1096 5.41348
131 2 2.2208 2.57213 20.6709 5.32387
132 1 -1.1104 4.20997 16.3707 0.965899
134 1 -1.1104 4.03743 16.4391 3.69374
136 2 2.2208 -0.286809 20.6064 2.42627
314 2 2.2208 5.4924 17.7779 -0.404591
315 2 2.2208 2.57158 20.6779 -0.285321
126 1 -1.1104 4.00771 19.3112 6.74616
345 2 2.2208 5.37994 6.74029 -0.392818
110 1 -1.1104 6.89122 13.5358 1.09914
140 1 -1.1104 6.96624 16.3545 1.08339
139 1 -1.1104 6.75886 19.1885 4.03552
138 1 -1.1104 6.8281 19.1303 1.06596
115 1 -1.1104 6.73509 13.5218 3.95518
122 1 -1.1104 6.83615 16.4046 3.96022
141 2 2.2208 10.9927 17.8071 5.31332
142 1 -1.1104 12.4035 13.8173 0.969498
144 1 -1.1104 12.4414 19.2705 1.14601
146 1 -1.1104 12.3117 13.6072 3.92497
147 1 -1.1104 12.4103 19.1811 3.89181
148 1 -1.1104 12.6669 16.4468 1.10133
150 2 2.2208 11.1569 15.1159 2.34611
151 2 2.2208 11.0354 20.5149 2.59878
152 1 -1.1104 12.5538 16.3927 4.01465
153 1 -1.1104 9.73797 13.501 1.02945
155 1 -1.1104 9.58685 19.1158 1.03671
157 2 2.2208 8.19276 17.8242 2.64564
158 1 -1.1104 9.40569 13.5634 3.92392
159 1 -1.1104 9.59593 19.1427 3.87066
160 2 2.2208 8.22277 15.031 5.28118
161 2 2.2208 8.15542 20.687 5.41963
162 1 -1.1104 9.74346 16.4213 0.969606
164 1 -1.1104 9.688 16.3606 3.92046
9231 2 2.2208 -0.261913 9.43611 2.46981
50 1 -1.1104 12.2928 16.447 12.2207
199 2 2.2208 -0.199641 3.8788 8.26502
172 1 -1.1104 3.97754 -3.24532 6.64342
170 1 -1.1104 1.28232 -0.400296 6.73034
346 2 2.2208 2.56112 9.50235 -0.255931
201 2 2.2208 -0.337672 1.09275 10.9173
174 1 -1.1104 4.02698 -0.250152 6.63786
167 1 -1.1104 1.11175 2.42636 6.6925
175 2 2.2208 5.30183 1.02842 10.8755
176 1 -1.1104 1.05683 -3.13564 12.3941
177 1 -1.1104 1.09385 2.43974 12.3405
180 1 -1.1104 1.19044 -3.02332 9.54022
181 1 -1.1104 1.12481 2.55615 9.53514
184 1 -1.1104 1.04529 -0.420231 12.4635
186 2 2.2208 5.45988 -1.77051 8.08226
188 1 -1.1104 1.11356 -0.309789 9.64774
190 1 -1.1104 3.90611 -2.96621 12.4578
191 1 -1.1104 3.91709 2.53962 12.3641
192 2 2.2208 2.59714 1.01311 8.05821
193 1 -1.1104 4.00028 -3.14443 9.50749
194 1 -1.1104 3.94561 2.49336 9.4944
195 2 2.2208 2.57166 -1.80951 10.9438
197 1 -1.1104 3.99006 -0.241283 12.2967
198 1 -1.1104 4.08627 -0.425025 9.56901
196 2 2.2208 2.52915 3.89281 11.0031
187 2 2.2208 5.36177 3.99802 8.14315
185 1 -1.1104 6.80201 -0.387273 12.2721
209 1 -1.1104 9.56502 2.46565 6.73303
168 1 -1.1104 6.68342 -3.19791 6.62784
171 1 -1.1104 6.78731 -0.24004 6.61189
169 1 -1.1104 6.77469 2.45616 6.61219
178 1 -1.1104 6.73578 -3.18073 12.2975
207 1 -1.1104 12.1776 -0.478743 6.71706
183 1 -1.1104 6.75363 2.49504 9.57543
189 1 -1.1104 6.7512 -0.327698 9.48892
182 1 -1.1104 6.88317 -3.24619 9.51948
208 1 -1.1104 9.50097 -3.08426 6.77418
179 1 -1.1104 6.62903 2.41469 12.2814
210 1 -1.1104 9.43279 -0.29758 6.59712
205 1 -1.1104 12.2913 -3.16647 6.893
211 2 2.2208 11.0102 1.00755 10.8916
212 1 -1.1104 12.3827 -3.20121 12.3711
213 1 -1.1104 12.3633 2.46613 12.2181
214 1 -1.1104 12.364 -3.27578 9.62324
215 1 -1.1104 12.4576 2.46517 9.51527
216 1 -1.1104 12.4304 -0.395051 12.3691
217 2 2.2208 10.9278 -1.85824 8.1603
219 1 -1.1104 12.2686 -0.510573 9.4957
220 1 -1.1104 9.60356 -3.10258 12.2969
221 1 -1.1104 9.68546 2.54821 12.3537
222 2 2.2208 8.1438 1.20075 8.02789
223 1 -1.1104 9.66905 -3.16005 9.51904
224 1 -1.1104 9.48828 2.27537 9.63648
225 2 2.2208 8.29811 -1.86757 10.8567
226 2 2.2208 8.13992 3.79654 10.99
227 1 -1.1104 9.64068 -0.339096 12.0649
228 1 -1.1104 9.49932 -0.29325 9.333
218 2 2.2208 10.9772 3.88479 8.0696
234 1 -1.1104 1.10882 8.1776 6.79687
236 1 -1.1104 1.17501 5.36907 6.57512
78 1 -1.1104 3.95689 10.8648 6.74339
62 1 -1.1104 1.11929 10.9581 6.81546
9144 2 2.2208 -0.351009 12.3297 10.9603
238 1 -1.1104 3.83796 8.08885 6.71363
239 1 -1.1104 3.95262 5.24646 6.76207
240 2 2.2208 5.30381 6.59977 10.9988
241 2 2.2208 5.33793 12.3636 11.0196
242 1 -1.1104 1.00346 8.13969 12.382
244 1 -1.1104 1.08615 8.19693 9.64097
246 1 -1.1104 1.09513 5.25893 12.4222
247 1 -1.1104 1.09683 10.9909 12.3846
250 2 2.2208 5.42429 9.539 8.16306
251 1 -1.1104 1.1225 5.42215 9.59068
252 1 -1.1104 1.21116 11.0298 9.59807
255 1 -1.1104 3.78704 8.20198 12.346
256 2 2.2208 2.64779 6.72591 8.202
257 2 2.2208 2.56561 12.3793 8.17495
258 1 -1.1104 3.99581 8.16837 9.51282
259 2 2.2208 2.47415 9.66116 11.0364
260 1 -1.1104 3.9676 5.2419 12.3809
261 1 -1.1104 4.04161 10.9373 12.2242
262 1 -1.1104 3.91989 5.32211 9.52709
263 1 -1.1104 3.9023 11.0289 9.4847
9152 2 2.2208 -0.295099 6.84332 10.8248
249 1 -1.1104 6.8535 11.0028 12.3637
65 1 -1.1104 6.7925 10.8726 6.78604
9151 2 2.2208 -0.295433 9.41511 8.16569
266 1 -1.1104 12.4962 5.34456 6.7206
101 1 -1.1104 9.54566 10.7953 6.7862
237 1 -1.1104 6.79484 5.25255 6.68106
265 1 -1.1104 12.3604 8.08982 6.75838
235 1 -1.1104 6.84297 7.89691 6.72707
253 1 -1.1104 6.80619 5.30218 9.52193
254 1 -1.1104 6.75406 11.0243 9.6933
245 1 -1.1104 6.87018 8.17066 9.61979
243 1 -1.1104 6.66391 8.02227 12.364
269 1 -1.1104 9.5505 5.12418 6.81503
248 1 -1.1104 6.7065 5.23994 12.3137
90 1 -1.1104 12.2949 10.8688 6.69072
264 1 -1.1104 9.50338 10.8687 9.64126
268 1 -1.1104 9.60854 5.25955 9.57009
270 1 -1.1104 9.59484 10.9825 12.3188
271 1 -1.1104 9.53916 5.27592 12.355
272 2 2.2208 8.22104 9.53354 11.0578
273 1 -1.1104 9.59438 8.01213 9.51713
274 2 2.2208 8.03686 12.2772 8.2314
275 2 2.2208 8.27561 6.62268 8.27285
276 2 2.2208 11.0244 6.61872 10.8804
277 2 2.2208 10.8951 12.3167 10.7767
278 1 -1.1104 12.3227 8.11454 12.1816
279 1 -1.1104 12.382 8.072 9.46793
280 1 -1.1104 12.3602 5.1625 12.2381
281 1 -1.1104 12.4213 10.7197 12.2073
282 2 2.2208 10.9497 9.45406 8.11395
283 1 -1.1104 12.5143 5.21178 9.40587
284 1 -1.1104 12.3093 10.8777 9.29533
285 1 -1.1104 9.42914 8.10126 12.3021
302 1 -1.1104 1.10454 19.3298 6.61775
133 1 -1.1104 3.99452 16.656 6.70102
117 1 -1.1104 1.1931 16.6 6.78189
124 1 -1.1104 3.96817 13.7506 6.84586
108 1 -1.1104 1.20589 13.7487 6.75411
143 1 -1.1104 12.3025 13.5753 6.7448
9242 2 2.2208 -0.245979 15.1476 8.28802
286 1 -1.1104 3.97163 19.3229 12.2637
287 1 -1.1104 3.89525 13.7704 12.3349
291 1 -1.1104 1.09119 19.3166 9.64007
292 1 -1.1104 1.18782 16.5581 9.62154
293 2 2.2208 5.43992 20.5857 8.284
294 1 -1.1104 1.18782 13.6619 9.76053
295 2 2.2208 5.40163 15.1047 8.17933
298 1 -1.1104 1.10592 19.1372 12.4077
299 1 -1.1104 1.1186 13.6755 12.5577
300 2 2.2208 5.42674 17.9048 10.9931
301 1 -1.1104 4.06276 19.2449 9.55008
303 2 2.2208 2.63445 17.9655 8.09977
304 1 -1.1104 4.07816 16.5286 9.51906
305 1 -1.1104 4.01197 13.7315 9.47733
307 1 -1.1104 1.18443 16.4178 12.4658
308 1 -1.1104 3.87473 16.5883 12.3655
309 2 2.2208 2.57227 20.683 10.9767
310 2 2.2208 2.66432 15.0757 11.0309
9243 2 2.2208 -0.363457 17.915 10.9831
111 1 -1.1104 6.69584 13.6844 6.85789
297 1 -1.1104 6.76126 13.9511 12.3374
163 1 -1.1104 9.62286 16.4482 6.70684
30 1 -1.1104 12.4248 13.6891 9.48351
118 1 -1.1104 6.83108 16.4757 6.63213
233 1 -1.1104 9.49685 16.4615 9.57244
289 1 -1.1104 6.78462 16.366 9.52423
81 2 2.2208 11.0596 20.6047 8.19163
149 1 -1.1104 12.3691 16.4396 6.65595
82 1 -1.1104 12.3698 16.5629 9.51569
25 2 2.2208 10.9801 17.8206 10.9154
156 1 -1.1104 9.71795 19.2045 6.72578
165 2 2.2208 8.0858 15.1008 10.9943
288 1 -1.1104 6.92841 19.1817 9.56714
306 1 -1.1104 6.8267 16.6526 12.3564
154 1 -1.1104 9.45665 13.6461 6.82764
145 1 -1.1104 12.3818 19.159 6.76205
296 1 -1.1104 6.93736 19.4884 12.4077
112 1 -1.1104 6.7981 19.3215 6.79761
290 1 -1.1104 6.69485 13.6995 9.59897
135 1 -1.1104 9.50529 13.8283 9.53645
26 1 -1.1104 12.3509 13.5304 12.123
83 1 -1.1104 9.52016 13.7928 12.1867
49 1 -1.1104 12.5591 19.2684 9.68349
137 1 -1.1104 9.68838 19.3824 9.54626
53 2 2.2208 10.9953 15.0816 8.18517
230 1 -1.1104 9.60966 16.6026 12.54
229 2 2.2208 8.28245 20.7162 10.9734
337 2 2.2208 2.43746 -1.60881 -0.297119
321 2 2.2208 8.22276 1.06527 13.6754
9254 2 2.2208 -0.191929 12.2663 -0.243837
318 2 2.2208 8.26145 15.0516 -0.336039
328 2 2.2208 10.9798 9.5009 13.6082
9279 2 2.2208 -0.331584 20.6087 13.5943
343 2 2.2208 8.09219 9.54251 -0.230453
348 2 2.2208 5.30366 1.07901 16.3302
349 1 -1.1104 1.14913 -3.06264 17.9214
350 1 -1.1104 1.02707 2.46226 17.9615
353 1 -1.1104 1.12302 -3.00823 15.0755
355 1 -1.1104 1.12499 2.46698 15.167
361 1 -1.1104 1.17665 -0.303483 18.1421
363 2 2.2208 5.31639 -1.67802 19.3395
364 2 2.2208 5.39112 4.09223 19.3415
365 1 -1.1104 1.09797 -0.30867 15.3209
369 1 -1.1104 3.90584 -3.10423 18.0316
370 1 -1.1104 3.95702 2.40412 17.7944
371 2 2.2208 2.57181 1.10833 19.2975
372 1 -1.1104 4.05532 -3.07014 15.2405
374 1 -1.1104 3.86789 2.52989 15.1692
376 2 2.2208 2.53649 -1.63582 16.6871
378 1 -1.1104 4.05905 -0.333284 17.8418
379 1 -1.1104 4.03101 -0.343711 15.0346
377 2 2.2208 2.50046 3.85754 16.593
386 2 2.2208 -0.26855 20.6123 24.9037
385 2 2.2208 -0.239501 -1.73214 19.2982
9617 2 2.2208 -0.18349 6.70203 22.0786
611 2 2.2208 7.9771 -4.47559 24.9206
384 2 2.2208 -0.369314 1.10772 16.6172
417 2 2.2208 8.13719 -4.42692 19.2858
316 2 2.2208 2.459 1.0292 13.7705
317 2 2.2208 5.32561 3.90071 13.7558
366 1 -1.1104 1.18138 -0.153397 20.817
354 1 -1.1104 1.12347 -3.0393 20.7369
351 1 -1.1104 6.75204 -3.17932 17.8456
367 1 -1.1104 6.7913 -0.318701 15.0831
352 1 -1.1104 6.76314 2.4292 17.862
359 1 -1.1104 6.69895 2.56864 15.0414
357 1 -1.1104 6.7923 -3.17428 15.021
362 1 -1.1104 6.79837 -0.259142 17.8979
391 2 2.2208 10.9341 1.04873 16.425
392 1 -1.1104 12.2662 -2.98831 18.0197
393 1 -1.1104 12.0948 2.46511 17.7622
394 1 -1.1104 12.327 -3.10957 15.0391
396 1 -1.1104 12.4293 2.52823 14.9755
398 1 -1.1104 12.3737 -0.382249 18.0749
399 2 2.2208 10.9163 -1.67479 19.3369
401 1 -1.1104 12.2412 -0.411699 15.2781
403 1 -1.1104 9.58465 -3.17842 17.9409
404 1 -1.1104 9.46087 2.47765 17.8581
405 2 2.2208 8.05241 1.16917 19.2807
406 1 -1.1104 9.45331 -3.1338 15.1564
408 1 -1.1104 9.58876 2.54748 15.0606
410 2 2.2208 8.08365 -1.77584 16.623
412 1 -1.1104 9.44962 -0.434608 17.9856
413 1 -1.1104 9.56867 -0.440236 15.0603
411 2 2.2208 8.11056 3.83614 16.5393
400 2 2.2208 10.8916 3.93619 19.3337
322 2 2.2208 10.8904 -1.69357 13.7726
581 2 2.2208 5.15661 -4.46803 22.0358
407 1 -1.1104 9.54217 -2.94529 20.7108
606 2 2.2208 8.21422 20.665 22.1431
324 2 2.2208 2.48269 6.64084 13.7684
360 1 -1.1104 6.62564 2.60038 20.6788
409 1 -1.1104 9.42031 2.5547 20.8095
402 1 -1.1104 12.2977 -0.332691 20.8296
9439 2 2.2208 -0.271537 6.76156 16.4848
424 2 2.2208 5.37917 6.6666 16.4486
425 2 2.2208 5.399 12.3255 16.4212
426 1 -1.1104 1.35142 8.02491 18.0072
428 1 -1.1104 1.25867 7.99093 15.263
432 1 -1.1104 0.922613 5.17197 17.9521
433 1 -1.1104 1.14501 10.82 17.9083
436 2 2.2208 5.42978 9.46387 19.3569
437 1 -1.1104 1.13913 5.25199 15.2406
439 1 -1.1104 1.00825 10.9325 15.0198
445 1 -1.1104 4.01416 8.05417 17.7603
446 2 2.2208 2.60085 6.69747 19.446
447 2 2.2208 2.60462 12.4193 19.3771
448 1 -1.1104 4.05933 7.94774 14.9599
450 2 2.2208 2.75813 9.54354 16.5394
451 1 -1.1104 3.84866 5.29847 18.0425
452 1 -1.1104 4.01474 11.0483 17.9371
453 1 -1.1104 3.88265 5.26608 15.1847
455 1 -1.1104 3.86026 10.9383 15.1422
529 1 -1.1104 12.4496 19.3091 20.706
9508 2 2.2208 -0.204098 20.7043 19.3867
430 1 -1.1104 6.89656 8.09614 15.1911
449 1 -1.1104 4.00543 8.17871 20.8199
9268 2 2.2208 -0.368295 9.53245 13.7861
326 2 2.2208 2.44359 12.3092 13.792
325 2 2.2208 5.46942 9.45092 13.7112
9438 2 2.2208 -0.254365 9.40314 19.3373
435 1 -1.1104 6.72708 10.9027 17.884
441 1 -1.1104 6.74929 5.3298 15.0909
443 1 -1.1104 6.76688 10.996 15.1316
427 1 -1.1104 6.77731 8.10549 18.0349
434 1 -1.1104 6.79655 5.32443 17.881
460 2 2.2208 10.9366 6.69639 16.399
461 2 2.2208 11.0137 12.1661 16.5398
462 1 -1.1104 12.3724 8.01436 17.748
463 1 -1.1104 12.4345 8.05601 14.988
465 1 -1.1104 12.3385 5.19676 17.9192
466 1 -1.1104 12.2892 10.7849 17.9748
467 2 2.2208 10.9473 9.45556 19.3395
468 1 -1.1104 12.3439 5.17269 15.1818
470 1 -1.1104 12.4312 10.7961 15.1147
472 1 -1.1104 9.5426 8.12776 17.8413
473 2 2.2208 8.17294 6.79605 19.3967
474 2 2.2208 8.00725 12.2573 19.3301
475 1 -1.1104 9.65595 8.03219 15.0022
477 2 2.2208 8.1829 9.47621 16.4244
478 1 -1.1104 9.53034 5.2516 17.9821
479 1 -1.1104 9.45807 10.8787 17.9584
480 1 -1.1104 9.40743 5.34635 15.2012
482 1 -1.1104 9.49374 10.8838 15.0143
381 2 2.2208 -0.31816 -4.35898 16.3913
329 2 2.2208 8.28104 12.4614 13.7209
9510 2 2.2208 -0.275125 17.935 16.5857
332 2 2.2208 5.39614 15.1936 13.7259
9256 2 2.2208 -0.283025 3.90404 13.7934
9509 2 2.2208 -0.265502 15.0693 19.3011
323 2 2.2208 10.9801 3.92475 13.738
487 2 2.2208 5.35326 17.9931 16.4582
488 1 -1.1104 1.21804 13.6711 18.0819
489 1 -1.1104 1.25792 19.3367 18.103
492 1 -1.1104 1.09794 13.7953 15.3444
494 1 -1.1104 1.07999 19.3371 15.1957
500 1 -1.1104 1.22057 16.543 17.9011
502 2 2.2208 5.38814 15.1346 19.3572
503 2 2.2208 5.33029 20.7162 19.394
504 1 -1.1104 1.04638 16.5224 15.2607
508 1 -1.1104 3.99175 13.8365 17.9747
509 1 -1.1104 4.05314 19.3104 17.9419
510 2 2.2208 2.57652 17.9518 19.2798
511 1 -1.1104 3.82596 13.7246 15.1294
513 1 -1.1104 3.84229 19.2219 15.1292
515 2 2.2208 2.51597 15.071 16.583
516 2 2.2208 2.52413 20.6014 16.5083
517 1 -1.1104 4.03618 16.6551 17.8844
518 1 -1.1104 3.8973 16.6007 15.1089
9278 2 2.2208 -0.313013 15.2068 13.8635
330 2 2.2208 2.51316 17.8654 13.8178
505 1 -1.1104 1.20936 16.4768 20.8764
331 2 2.2208 5.48712 20.7373 13.7066
498 1 -1.1104 6.71506 19.3533 15.2019
490 1 -1.1104 6.72442 13.634 17.978
506 1 -1.1104 6.80082 16.4306 15.0978
496 1 -1.1104 6.69347 13.8011 15.1708
501 1 -1.1104 6.73313 16.4857 17.9895
491 1 -1.1104 6.66439 19.2926 17.8494
523 2 2.2208 11.0638 17.8604 16.6395
524 1 -1.1104 12.2537 13.6287 17.8833
525 1 -1.1104 12.4619 19.3401 18.1305
526 1 -1.1104 12.2561 13.6231 15.0405
528 1 -1.1104 12.4124 19.0243 15.1909
530 1 -1.1104 12.4055 16.4973 17.9244
531 2 2.2208 10.9875 15.0865 19.3429
532 2 2.2208 11.0537 20.6065 19.4635
533 1 -1.1104 12.3775 16.4291 15.153
535 1 -1.1104 9.41665 13.6579 18.0331
536 1 -1.1104 9.64673 19.3421 17.9743
537 2 2.2208 8.13587 17.8593 19.2637
538 1 -1.1104 9.68104 13.5224 15.1003
540 1 -1.1104 9.65409 19.2945 15.2278
542 2 2.2208 8.1941 15.1155 16.5956
543 2 2.2208 8.15401 20.6416 16.7082
544 1 -1.1104 9.56484 16.6486 17.9268
545 1 -1.1104 9.61776 16.3154 15.1139
333 2 2.2208 11.0548 20.6324 13.8149
499 1 -1.1104 6.73173 19.2193 20.7502
335 2 2.2208 8.30694 17.8811 13.8033
334 2 2.2208 10.9407 15.0057 13.7886
9400 2 2.2208 -0.253075 1.13927 22.0716
375 1 -1.1104 3.93932 2.46883 20.7609
380 1 -1.1104 3.95256 -0.283843 20.6595
373 1 -1.1104 3.81797 -3.08104 20.8109
356 1 -1.1104 1.20856 2.54465 20.689
9396 2 2.2208 -0.231012 3.81785 24.965
551 2 2.2208 5.29308 1.20103 22.1669
552 1 -1.1104 1.15059 -2.98211 23.6992
553 1 -1.1104 1.10814 2.36212 23.37
556 1 -1.1104 1.08457 -3.01485 26.2453
557 1 -1.1104 1.22712 2.43293 26.5014
560 1 -1.1104 1.09386 -0.340703 23.5304
562 2 2.2208 5.28076 -1.73821 25.0115
564 1 -1.1104 0.996854 -0.22517 26.3224
566 1 -1.1104 3.88744 -3.1576 23.5611
567 1 -1.1104 3.80082 2.45266 23.744
568 2 2.2208 2.4725 1.01179 25.04
569 1 -1.1104 3.83079 -3.139 26.3239
570 1 -1.1104 3.78492 2.35831 26.4996
571 2 2.2208 2.56889 -1.67976 22.1681
573 1 -1.1104 3.9042 -0.30592 23.4874
574 1 -1.1104 3.96482 -0.378969 26.4533
572 2 2.2208 2.52221 3.72107 22.2269
563 2 2.2208 5.35338 3.78938 24.9528
644 1 -1.1104 9.64955 13.6229 26.2506
9404 2 2.2208 -0.233849 12.3519 16.5998
312 2 2.2208 5.39976 -1.69069 13.8216
358 1 -1.1104 6.69961 -3.09241 20.5989
559 1 -1.1104 6.74104 2.49339 26.3234
561 1 -1.1104 6.75054 -0.239233 23.6701
368 1 -1.1104 6.61095 -0.231962 20.8175
558 1 -1.1104 6.65789 -3.06724 26.3546
565 1 -1.1104 6.80189 -0.17561 26.4638
555 1 -1.1104 6.74443 2.5015 23.5832
397 1 -1.1104 12.36 2.52538 20.6092
414 1 -1.1104 9.42921 -0.241357 20.6093
395 1 -1.1104 12.3377 -3.20669 20.8906
554 1 -1.1104 6.58984 -3.23106 23.475
587 2 2.2208 10.8466 1.11528 21.9905
588 1 -1.1104 12.2723 -3.11389 23.651
589 1 -1.1104 12.2331 2.5546 23.3561
590 1 -1.1104 12.3825 -3.23136 26.5104
591 1 -1.1104 12.3119 2.45921 26.4266
592 1 -1.1104 12.4353 -0.15922 23.5366
593 2 2.2208 10.9986 -1.73527 24.8755
595 1 -1.1104 12.447 -0.371729 26.21
596 1 -1.1104 9.35531 -3.13108 23.4844
597 1 -1.1104 9.47897 2.50303 23.5181
598 2 2.2208 8.24029 1.04083 24.9171
599 1 -1.1104 9.4816 -3.11845 26.2487
600 1 -1.1104 9.52994 2.31987 26.346
601 2 2.2208 8.10444 -1.66928 22.1121
603 1 -1.1104 9.42972 -0.358879 23.35
604 1 -1.1104 9.64657 -0.368839 26.393
602 2 2.2208 8.15262 3.89598 22.2839
594 2 2.2208 10.951 3.77987 24.9214
454 1 -1.1104 3.86232 5.24736 20.8125
9367 2 2.2208 -0.144913 12.2862 22.0868
438 1 -1.1104 1.0248 5.23545 20.7643
429 1 -1.1104 1.17714 8.07801 20.8166
456 1 -1.1104 4.15689 10.8687 20.778
440 1 -1.1104 1.13308 10.9137 20.7368
616 2 2.2208 5.39915 6.68201 22.2575
617 2 2.2208 5.45691 12.1965 22.1676
618 1 -1.1104 1.19976 8.07333 23.5768
620 1 -1.1104 1.17937 8.01572 26.5227
622 1 -1.1104 1.30129 5.20005 23.5678
623 1 -1.1104 1.18128 10.8656 23.5262
626 2 2.2208 5.30751 9.53179 24.98
627 1 -1.1104 0.998018 5.10904 26.5094
628 1 -1.1104 1.18297 10.8081 26.3151
631 1 -1.1104 3.89814 7.96798 23.5624
632 2 2.2208 2.46205 6.59108 25.0657
633 2 2.2208 2.62703 12.3755 24.9278
634 1 -1.1104 4.0105 8.11556 26.4838
635 2 2.2208 2.57745 9.5039 22.1389
636 1 -1.1104 4.10615 5.16776 23.6107
637 1 -1.1104 4.06323 11.0647 23.5265
638 1 -1.1104 3.98518 5.24833 26.4234
639 1 -1.1104 3.91568 10.8803 26.3952
527 1 -1.1104 12.2606 13.731 20.6713
624 1 -1.1104 6.82317 5.26867 23.6321
9368 2 2.2208 -0.250478 9.49765 24.9879
431 1 -1.1104 6.853 8.05619 20.8143
483 1 -1.1104 9.48101 10.9642 20.7813
444 1 -1.1104 6.79376 10.6955 20.7897
471 1 -1.1104 12.3457 10.7891 20.6675
476 1 -1.1104 9.70008 8.01537 20.5789
481 1 -1.1104 9.51316 5.26856 20.8356
464 1 -1.1104 12.5476 8.16231 20.5837
469 1 -1.1104 12.2986 5.25711 20.8545
630 1 -1.1104 6.79554 11.022 26.4998
621 1 -1.1104 6.66326 8.23977 26.378
625 1 -1.1104 6.8789 10.7157 23.7518
619 1 -1.1104 6.84576 7.95993 23.4887
629 1 -1.1104 6.77064 5.26388 26.3382
442 1 -1.1104 6.76508 5.42262 20.8349
607 1 -1.1104 9.51605 8.11283 23.4555
640 1 -1.1104 12.5709 10.8823 26.4167
641 1 -1.1104 12.418 5.25633 26.3957
642 2 2.2208 11.0602 9.51195 24.9804
647 1 -1.1104 9.6918 10.977 26.3364
648 1 -1.1104 9.6439 5.15489 26.3409
649 1 -1.1104 9.69312 10.9134 23.5785
650 1 -1.1104 9.5987 5.20616 23.7185
651 2 2.2208 8.18322 9.4767 22.2206
652 1 -1.1104 9.59164 7.99387 26.3147
653 2 2.2208 8.20043 12.3089 24.953
654 2 2.2208 8.15428 6.65158 25.0409
655 2 2.2208 11.0743 6.83247 22.0935
656 2 2.2208 10.9896 12.3568 22.0938
657 1 -1.1104 12.5259 8.07715 23.4157
658 1 -1.1104 12.4618 8.09771 26.357
659 1 -1.1104 12.5923 5.25538 23.6627
660 1 -1.1104 12.3812 10.8204 23.4466
519 1 -1.1104 4.05215 16.632 20.6464
9324 2 2.2208 -0.0812032 17.8919 22.0986
493 1 -1.1104 1.26687 13.7175 20.6516
512 1 -1.1104 3.92872 13.7643 20.7853
514 1 -1.1104 3.92486 19.3023 20.8726
615 2 2.2208 8.33996 17.8685 24.9876
495 1 -1.1104 1.11618 19.2898 20.8325
388 2 2.2208 2.61815 15.1909 22.0909
389 2 2.2208 2.62694 20.7469 22.2135
390 1 -1.1104 3.96254 16.5454 23.5166
415 1 -1.1104 1.18676 16.4107 23.602
420 1 -1.1104 4.04672 13.7244 26.5157
421 1 -1.1104 4.06898 16.508 26.1829
422 2 2.2208 2.61232 17.9129 25.0337
423 1 -1.1104 4.127 19.2719 26.38
457 2 2.2208 5.41299 17.8603 22.197
458 1 -1.1104 1.16968 13.6617 23.5347
459 1 -1.1104 1.28864 19.2782 23.4119
485 2 2.2208 5.52816 15.0901 24.9222
486 2 2.2208 5.51764 20.5497 25.0393
521 1 -1.1104 1.19917 13.5916 26.4118
522 1 -1.1104 1.18516 16.4881 26.5221
547 1 -1.1104 1.24908 19.1748 26.3647
549 1 -1.1104 3.93885 13.8102 23.5422
576 1 -1.1104 4.18987 19.3744 23.6184
9325 2 2.2208 -0.258837 15.0223 24.9971
575 1 -1.1104 6.88118 13.6693 26.4254
520 1 -1.1104 6.87522 19.1987 23.5708
586 2 2.2208 11.0495 15.0669 25.0411
608 2 2.2208 10.9939 20.6348 25.0187
550 2 2.2208 10.9674 17.8402 22.1206
546 1 -1.1104 9.6462 16.4255 20.7169
577 1 -1.1104 9.7141 16.4492 26.3711
614 1 -1.1104 9.58846 19.107 23.5471
605 1 -1.1104 9.58618 16.355 23.6144
583 1 -1.1104 12.56 13.6655 26.2579
612 1 -1.1104 12.4302 16.5205 26.3551
539 1 -1.1104 9.42138 13.6857 20.6252
497 1 -1.1104 6.80494 13.5601 20.7509
507 1 -1.1104 6.80851 16.433 20.6902
534 1 -1.1104 12.4634 16.5139 20.6936
541 1 -1.1104 9.61794 19.1722 20.7337
419 1 -1.1104 6.80126 16.3951 23.4082
548 1 -1.1104 6.93944 16.3787 26.2419
643 1 -1.1104 7.08072 19.1745 26.4189
646 2 2.2208 8.26619 15.0607 22.1175
585 1 -1.1104 12.3956 16.3962 23.5787
578 1 -1.1104 12.4197 13.5465 23.466
645 1 -1.1104 9.62528 19.2954 26.318
613 1 -1.1104 9.52526 13.6436 23.4599
579 1 -1.1104 12.3093 19.183 23.6507
584 1 -1.1104 12.4325 19.2819 26.4671
484 1 -1.1104 6.66761 13.4767 23.601
336 2 2.2208 5.3799 1.18958 27.756
327 2 2.2208 8.20291 6.66595 13.7349
9245 2 2.2208 -0.170699 17.8624 27.6901
344 2 2.2208 10.9712 6.61418 27.7528
661 2 2.2208 5.37988 23.4002 5.36945
662 2 2.2208 5.47571 29.0711 5.219
663 1 -1.1104 1.13802 24.6954 1.20974
664 1 -1.1104 1.20163 24.7679 4.08895
665 1 -1.1104 1.10159 22.1015 1.11846
666 1 -1.1104 1.10607 27.5497 1.09843
667 2 2.2208 5.34879 26.3269 2.40477
668 1 -1.1104 1.1409 21.8643 3.75202
669 1 -1.1104 1.28942 27.6947 3.8724
670 1 -1.1104 3.92112 24.8177 1.06699
671 2 2.2208 2.58429 23.5479 2.55904
672 2 2.2208 2.55326 29.065 2.45763
673 1 -1.1104 4.15361 24.9555 3.79775
674 2 2.2208 2.60764 26.2546 5.3273
675 1 -1.1104 4.07164 21.8699 1.10125
676 1 -1.1104 3.92033 27.5439 1.09672
677 1 -1.1104 3.83883 22.2378 3.98647
678 1 -1.1104 4.09349 27.7374 3.79698
681 2 2.2208 -0.248908 26.1493 2.62494
680 2 2.2208 -0.170872 23.3973 5.29848
679 2 2.2208 -0.29342 29.0541 5.2843
682 1 -1.1104 6.83774 24.7264 1.1654
684 1 -1.1104 6.77225 21.9216 1.19614
992 2 2.2208 -0.237402 23.4723 -0.247456
989 2 2.2208 5.41378 23.4709 -0.246038
9988 2 2.2208 -0.138031 28.8534 -0.195132
990 2 2.2208 2.52361 26.1541 -0.287777
991 2 2.2208 5.30387 28.9305 -0.322173
685 1 -1.1104 6.86597 27.5932 1.03243
683 1 -1.1104 6.86053 24.8283 3.94768
686 1 -1.1104 6.67134 22.035 3.97331
687 1 -1.1104 6.75741 27.6929 3.85423
688 2 2.2208 10.9094 23.442 5.31675
689 2 2.2208 10.9988 29.117 5.38531
690 1 -1.1104 12.4465 24.8661 1.03131
691 1 -1.1104 12.4408 24.9894 3.79555
692 1 -1.1104 12.435 21.9912 1.20083
693 1 -1.1104 12.6091 27.7621 1.18784
694 2 2.2208 10.9577 26.3483 2.53613
695 1 -1.1104 12.2999 22.0404 3.8762
696 1 -1.1104 12.2947 27.6508 3.88402
697 1 -1.1104 9.52454 24.8003 0.977934
698 2 2.2208 8.11617 23.395 2.43499
699 2 2.2208 8.30533 29.1624 2.47857
700 1 -1.1104 9.65515 24.9179 3.9774
701 2 2.2208 8.22719 26.2615 5.45861
702 1 -1.1104 9.49648 22.106 1.14574
703 1 -1.1104 9.71639 27.6478 1.12797
704 1 -1.1104 9.40304 21.9939 3.98661
705 1 -1.1104 9.54706 27.7491 3.86954
993 2 2.2208 10.9792 23.4079 -0.301267
996 2 2.2208 11.0093 29.0545 -0.211631
835 1 -1.1104 12.423 24.9943 6.77752
994 2 2.2208 8.29995 26.1859 -0.233819
9971 2 2.2208 -0.09191 45.8462 -0.183055
974 2 2.2208 5.32229 45.9033 -0.171985
710 1 -1.1104 1.20103 30.4014 1.05131
709 2 2.2208 5.40087 34.5602 5.30518
711 1 -1.1104 1.154 35.8975 1.12193
713 1 -1.1104 1.05352 30.3565 3.75082
714 1 -1.1104 1.09407 35.7759 3.88679
716 1 -1.1104 1.21467 33.1706 1.07429
717 2 2.2208 5.44915 31.8036 2.44541
718 2 2.2208 5.39065 37.5116 2.62121
719 1 -1.1104 1.19502 33.0688 3.96628
721 1 -1.1104 4.01283 30.3942 0.996554
722 1 -1.1104 4.0381 36.1178 1.15964
723 2 2.2208 2.64042 34.6542 2.48339
724 1 -1.1104 3.97032 30.5667 3.69534
725 1 -1.1104 4.04243 36.0657 3.97515
726 2 2.2208 2.65535 31.7381 5.15025
727 2 2.2208 2.66306 37.3857 5.34059
728 1 -1.1104 3.95449 33.218 1.13819
729 1 -1.1104 3.89714 33.3231 3.97938
9959 2 2.2208 -0.0690127 34.505 5.38667
1315 1 -1.1104 6.93328 47.3526 4.04141
998 2 2.2208 2.53048 31.8198 -0.183401
997 2 2.2208 2.52686 37.3529 -0.257151
9983 2 2.2208 -0.243872 34.5526 -0.343964
715 1 -1.1104 6.91755 36.0933 4.00346
720 1 -1.1104 6.66955 33.3113 3.84449
734 1 -1.1104 6.94641 30.4734 3.78032
712 1 -1.1104 6.70482 36.0476 1.13356
733 1 -1.1104 6.74557 30.5073 1.00549
735 1 -1.1104 6.88586 33.2534 1.13353
736 2 2.2208 11.059 34.7139 5.34954
737 1 -1.1104 12.3105 30.6148 1.10711
738 1 -1.1104 12.2664 36.0708 1.16537
739 1 -1.1104 12.4591 30.4343 3.96247
740 1 -1.1104 12.3414 36.0979 3.88684
741 1 -1.1104 12.2889 33.4475 1.0908
742 2 2.2208 10.999 31.9352 2.45852
743 2 2.2208 11.0424 37.5487 2.48695
744 1 -1.1104 12.2618 33.3132 3.92637
745 1 -1.1104 9.63615 30.4651 1.04962
746 1 -1.1104 9.42391 35.9992 0.947008
747 2 2.2208 8.19376 34.7287 2.52522
748 1 -1.1104 9.69038 30.5264 3.87467
749 1 -1.1104 9.682 36.1389 3.99719
750 2 2.2208 8.16592 31.8987 5.3125
751 2 2.2208 8.19665 37.5304 5.32136
752 1 -1.1104 9.50934 33.221 0.993492
753 1 -1.1104 9.54093 33.2521 3.80557
1332 1 -1.1104 4.20691 47.2125 3.88961
1350 1 -1.1104 12.5295 47.275 0.989916
1000 2 2.2208 8.02277 37.3957 -0.279075
9962 2 2.2208 -0.171242 45.9036 5.38009
766 1 -1.1104 1.17707 38.6826 3.88554
761 1 -1.1104 1.23171 38.7276 1.14834
775 1 -1.1104 4.02925 38.9245 1.26628
777 1 -1.1104 4.01105 38.8219 4.04091
755 2 2.2208 5.41863 40.2155 5.42192