ITEM: TIMESTEP
80000
ITEM: NUMBER OF ATOMS
17760
ITEM: BOX BOUNDS pp pp pp
-4.4795041140038733e-01 2.7787950411400224e+01
-5.6626742841327875e+00 3.3374267428412935e+02
-4.3958056118283240e-01 2.7779580561183042e+01
ITEM: ATOMS id type q x y z
1 2 2.2208 5.06757 0.0662258 5.14283
2 1 -1.1104 0.816057 -4.08842 0.939941
6 1 -1.1104 1.01143 -4.42601 3.95791
10 1 -1.1104 0.877478 -1.37772 1.14723
12 2 2.2208 5.11564 -2.7527 2.41324
14 1 -1.1104 0.761799 -1.44456 3.92208
16 1 -1.1104 3.51333 -4.34248 0.724957
18 2 2.2208 2.31132 0.0169161 2.35422
19 1 -1.1104 3.70044 -4.10797 3.46773
21 2 2.2208 2.24075 -2.81114 5.13058
23 1 -1.1104 3.59034 -1.0823 1.00878
24 1 -1.1104 3.61234 -1.3842 3.85136
174 1 -1.1104 3.64074 -1.41608 6.47518
166 1 -1.1104 0.599012 -4.39021 6.72063
170 1 -1.1104 0.762508 -1.39859 6.3857
15 1 -1.1104 6.49314 -1.48133 3.54461
11 1 -1.1104 6.29555 -1.34082 0.682495
4 1 -1.1104 6.44804 -4.09915 0.825956
168 1 -1.1104 6.51691 -4.0276 6.56261
9266 2 2.2208 13.4387 16.9168 13.5635
8 1 -1.1104 6.5429 -4.29043 4.01198
172 1 -1.1104 3.69123 -4.13774 6.70217
329 2 2.2208 7.89666 11.2072 13.6043
171 1 -1.1104 6.53138 -1.32213 6.48828
52 2 2.2208 10.5333 -5.61015 4.98603
31 2 2.2208 10.7689 0.0751514 5.15439
32 1 -1.1104 12.2741 -4.15631 0.576175
34 1 -1.1104 12.1164 -4.09425 3.58911
36 1 -1.1104 11.9412 -1.44842 0.885549
37 2 2.2208 10.6308 -2.81459 2.1693
39 1 -1.1104 12.1043 -1.32725 3.70833
40 1 -1.1104 9.41875 -4.20541 0.704545
42 2 2.2208 7.85465 0.0835082 2.26555
43 1 -1.1104 9.25829 -4.13332 3.35454
45 2 2.2208 7.94272 -2.63151 5.14478
47 1 -1.1104 9.10874 -1.26593 0.909442
48 1 -1.1104 8.9967 -1.18594 3.67941
210 1 -1.1104 9.40874 -1.37435 6.60661
208 1 -1.1104 9.28149 -4.29793 6.31975
137 1 -1.1104 9.14776 18.1356 9.10506
205 1 -1.1104 12.0704 -4.23634 6.51711
207 1 -1.1104 12.0365 -1.55863 6.55342
324 2 2.2208 2.16529 5.62966 13.4934
17 1 -1.1104 3.67747 1.53599 0.956384
3 1 -1.1104 0.767478 1.45224 0.778291
7 1 -1.1104 0.648295 1.48093 3.69576
13 2 2.2208 5.13242 2.84303 2.32669
20 1 -1.1104 3.41056 1.32994 3.71071
22 2 2.2208 2.22118 2.80336 4.97298
54 2 2.2208 4.93988 5.69025 5.09729
56 1 -1.1104 0.807022 6.99097 1.03826
60 1 -1.1104 0.806671 4.31472 0.865143
67 1 -1.1104 0.586104 4.0964 3.81133
71 1 -1.1104 3.61167 6.81081 1.1848
72 2 2.2208 2.06625 5.59422 2.34699
76 1 -1.1104 3.71624 4.12665 0.998563
79 1 -1.1104 3.38985 4.08923 3.77146
58 1 -1.1104 0.930164 6.87383 3.79932
74 1 -1.1104 3.66561 6.97328 3.81525
238 1 -1.1104 3.50417 7.21418 6.56278
5 1 -1.1104 6.42653 1.66484 0.770527
9 1 -1.1104 6.31626 1.45195 3.85
57 1 -1.1104 6.37716 7.00986 0.776443
234 1 -1.1104 0.681612 7.29421 6.53509
69 1 -1.1104 6.49649 4.29762 3.53974
169 1 -1.1104 6.27573 1.38809 6.65163
173 1 -1.1104 3.67606 1.59506 6.42044
236 1 -1.1104 0.751816 4.39024 6.54775
167 1 -1.1104 0.792142 1.39017 6.67353
63 1 -1.1104 6.53623 4.1616 0.929493
239 1 -1.1104 3.42507 4.22938 6.54459
237 1 -1.1104 6.28583 4.10564 6.4558
59 1 -1.1104 6.71326 6.8874 3.68403
41 1 -1.1104 9.21422 1.45898 0.790155
44 1 -1.1104 9.44682 1.2109 3.60507
33 1 -1.1104 12.0181 1.32565 0.909049
35 1 -1.1104 12.1991 1.39186 3.77919
38 2 2.2208 10.6134 2.65514 2.30601
46 2 2.2208 7.70233 2.73185 5.29298
84 2 2.2208 10.8631 5.39057 5.10913
88 1 -1.1104 12.0833 4.07135 1.1573
92 1 -1.1104 12.073 3.96308 3.76922
95 2 2.2208 7.79754 5.63395 2.40685
99 1 -1.1104 9.44357 4.11443 0.858156
102 1 -1.1104 9.33659 4.16935 3.73636
87 1 -1.1104 12.2323 6.87438 3.61315
86 1 -1.1104 12.2571 6.93279 0.951335
97 1 -1.1104 9.31377 6.91451 3.76026
94 1 -1.1104 9.17954 6.93768 0.893366
267 1 -1.1104 9.64418 6.95518 6.68788
269 1 -1.1104 9.14482 4.11421 6.53649
266 1 -1.1104 12.3219 4.19572 6.46026
209 1 -1.1104 9.19224 1.30909 6.39543
206 1 -1.1104 12.1502 1.08719 6.55065
265 1 -1.1104 12.4765 6.93321 6.55036
229 2 2.2208 7.88501 19.6062 10.6245
322 2 2.2208 10.7661 -2.86425 13.3593
55 2 2.2208 4.99631 11.2138 5.09947
61 1 -1.1104 0.739349 9.93025 1.10915
66 2 2.2208 5.10744 8.25372 2.26822
68 1 -1.1104 0.831117 9.88656 3.70493
73 2 2.2208 2.31631 11.2456 2.32846
75 2 2.2208 2.09308 8.564 5.21266
77 1 -1.1104 3.76236 9.55593 1.04748
80 1 -1.1104 3.60135 9.89816 3.57038
107 1 -1.1104 0.848018 12.5265 0.813001
113 1 -1.1104 0.650409 12.554 3.75129
123 1 -1.1104 3.70124 12.541 0.848712
128 1 -1.1104 3.5958 12.6418 3.63396
62 1 -1.1104 1.01241 10.0795 6.71741
115 1 -1.1104 6.51488 12.6221 3.90691
64 1 -1.1104 6.41797 9.61808 1.03964
78 1 -1.1104 3.90486 9.86313 6.47438
124 1 -1.1104 3.69438 12.6131 6.5151
110 1 -1.1104 6.47265 12.6074 0.716866
70 1 -1.1104 6.50868 9.69025 3.79008
111 1 -1.1104 6.59809 12.6021 6.45609
130 2 2.2208 2.47099 13.9281 5.04268
9240 2 2.2208 13.534 -5.4761 7.75907
65 1 -1.1104 6.62464 9.59772 6.66849
346 2 2.2208 2.23186 8.6082 -0.299953
85 2 2.2208 10.8998 11.0905 5.09956
89 1 -1.1104 12.13 9.81356 0.912824
91 2 2.2208 10.8125 8.31141 2.42716
93 1 -1.1104 12.2439 9.65313 3.70316
96 2 2.2208 8.09727 11.365 2.17711
98 2 2.2208 8.08832 8.29809 5.03472
100 1 -1.1104 9.38615 9.79105 0.953269
103 1 -1.1104 9.3467 9.79598 3.70535
142 1 -1.1104 12.1114 12.594 0.908123
146 1 -1.1104 12.2071 12.5966 3.70725
153 1 -1.1104 9.32545 12.6804 0.634278
158 1 -1.1104 9.41442 12.5818 3.68776
90 1 -1.1104 12.2703 9.6483 6.46406
143 1 -1.1104 12.134 12.4853 6.4819
101 1 -1.1104 9.51223 9.79362 6.49268
150 2 2.2208 10.6499 14.0157 2.28699
9222 2 2.2208 13.4878 13.8823 10.8337
154 1 -1.1104 9.38381 12.4923 6.69446
119 2 2.2208 5.06475 14.0036 2.21197
106 2 2.2208 5.09632 16.8252 5.05815
109 1 -1.1104 1.06723 18.5153 1.24582
114 1 -1.1104 0.933225 18.0936 3.91109
116 1 -1.1104 0.686589 15.5193 0.855563
120 2 2.2208 5.00878 19.6347 2.18787
121 1 -1.1104 0.935129 15.2148 3.70722
125 1 -1.1104 3.77067 18.3204 0.510896
127 2 2.2208 2.2876 17.0017 2.29756
129 1 -1.1104 3.7273 18.1678 3.61235
131 2 2.2208 2.29349 19.7226 5.21728
132 1 -1.1104 3.77196 15.2677 0.857497
134 1 -1.1104 3.56865 15.3398 3.5613
140 1 -1.1104 6.65635 15.5522 0.839115
117 1 -1.1104 0.954355 15.4064 6.50684
302 1 -1.1104 0.787012 18.272 6.63885
133 1 -1.1104 3.87262 15.4267 6.45248
126 1 -1.1104 3.59379 18.2575 6.3827
138 1 -1.1104 6.43615 18.0746 0.985524
118 1 -1.1104 6.46684 15.2704 6.49192
122 1 -1.1104 6.5197 15.2254 3.63922
160 2 2.2208 7.9264 14.0281 5.06343
139 1 -1.1104 6.44996 18.1087 4.00179
141 2 2.2208 10.5915 16.7016 5.09953
144 1 -1.1104 11.9297 18.2602 0.904286
147 1 -1.1104 12.0735 18.3508 3.84414
148 1 -1.1104 12.1196 15.4771 1.05568
151 2 2.2208 10.6373 19.5683 2.27917
152 1 -1.1104 12.2918 15.6446 3.78302
155 1 -1.1104 9.15776 18.3146 0.75311
157 2 2.2208 7.82053 16.73 2.22201
159 1 -1.1104 9.26107 18.0458 3.5341
161 2 2.2208 7.92985 19.5006 5.09861
162 1 -1.1104 9.33234 15.4524 0.879895
164 1 -1.1104 9.11447 15.3014 3.61198
163 1 -1.1104 9.42428 15.1642 6.67966
156 1 -1.1104 9.23962 18.0597 6.35952
203 2 2.2208 4.90395 -5.57806 10.8063
9234 2 2.2208 13.5433 5.37595 2.57546
175 2 2.2208 5.13753 -0.145145 11.0012
176 1 -1.1104 0.819746 -4.16019 12.0514
180 1 -1.1104 0.884382 -4.16035 9.36679
184 1 -1.1104 0.579658 -1.41175 11.9958
186 2 2.2208 4.91536 -2.94415 8.0289
188 1 -1.1104 0.983557 -1.35914 9.22774
190 1 -1.1104 3.50659 -4.15749 12.042
192 2 2.2208 2.26488 0.0971846 7.78014
193 1 -1.1104 3.62305 -4.25624 9.4883
195 2 2.2208 2.17778 -2.82147 10.6772
197 1 -1.1104 3.41925 -1.39949 12.2695
198 1 -1.1104 3.60273 -1.24929 9.31705
189 1 -1.1104 6.34561 -1.63008 9.4961
105 2 2.2208 7.97906 16.6368 7.99909
202 2 2.2208 2.20322 -5.58961 8.09154
9239 2 2.2208 13.6277 -2.90098 10.7018
51 2 2.2208 7.87591 -5.52504 2.2717
178 1 -1.1104 6.2363 -4.30046 12.2919
185 1 -1.1104 6.59975 -1.51437 12.2825
331 2 2.2208 5.09844 19.4633 13.4374
182 1 -1.1104 6.4633 -4.27477 9.38241
211 2 2.2208 10.7267 -0.0369526 10.635
212 1 -1.1104 12.3167 -4.16771 12.0293
214 1 -1.1104 12.271 -4.02772 9.14421
216 1 -1.1104 12.1549 -1.34642 12.0603
217 2 2.2208 10.6969 -2.76224 8.02245
219 1 -1.1104 12.5035 -1.22239 9.2967
220 1 -1.1104 9.39494 -4.27918 12.067
222 2 2.2208 7.82471 -0.0428862 8.00182
223 1 -1.1104 9.41228 -4.32749 9.1893
225 2 2.2208 7.70624 -2.88875 10.8452
227 1 -1.1104 9.42302 -1.42186 12.3504
228 1 -1.1104 9.3769 -1.41264 9.37865
8999 2 2.2208 13.3545 19.6316 5.17787
333 2 2.2208 10.6355 19.4823 13.4745
9184 2 2.2208 13.5443 19.6339 10.8132
177 1 -1.1104 0.88378 1.67815 12.2077
181 1 -1.1104 0.665619 1.68001 9.46775
187 2 2.2208 4.86717 2.97197 7.99946
191 1 -1.1104 3.69093 1.54664 12.005
194 1 -1.1104 3.37424 1.48625 9.28542
196 2 2.2208 2.17472 2.90972 10.68
240 2 2.2208 5.08139 5.62606 10.7122
244 1 -1.1104 0.813182 7.09163 9.36681
246 1 -1.1104 0.946053 4.28339 12.1033
251 1 -1.1104 0.741009 4.44199 9.45119
255 1 -1.1104 3.81773 6.95026 12.1951
256 2 2.2208 2.25661 5.72924 7.95131
260 1 -1.1104 3.82049 4.23474 11.9151
262 1 -1.1104 3.50445 4.22169 9.20143
258 1 -1.1104 3.81268 6.98398 9.42094
242 1 -1.1104 1.05605 6.96364 12.1577
243 1 -1.1104 6.6066 6.96001 12.2496
179 1 -1.1104 6.41589 1.40139 12.2544
245 1 -1.1104 6.62087 6.95815 9.58137
183 1 -1.1104 6.4828 1.46453 9.43483
248 1 -1.1104 6.511 4.10041 12.0695
231 2 2.2208 7.94135 -5.62741 7.80152
235 1 -1.1104 6.49212 6.83784 6.55955
9236 2 2.2208 -0.348825 16.7522 5.14839
327 2 2.2208 7.88898 5.63025 13.5497
253 1 -1.1104 6.39078 4.36799 9.22515
9237 2 2.2208 13.3016 16.9764 2.35365
213 1 -1.1104 12.0774 1.26651 12.1537
215 1 -1.1104 12.0005 1.45596 9.38756
218 2 2.2208 10.7502 2.70848 8.1119
221 1 -1.1104 9.27966 1.27544 12.0321
224 1 -1.1104 9.21052 1.2359 9.32365
226 2 2.2208 7.82394 2.76073 10.8403
268 1 -1.1104 9.47241 4.21531 9.36506
271 1 -1.1104 9.40232 4.21203 12.1226
275 2 2.2208 8.08238 5.56954 8.00536
276 2 2.2208 10.8606 5.44064 10.8739
278 1 -1.1104 12.1766 6.94082 12.2912
280 1 -1.1104 12.0578 4.03501 12.2902
283 1 -1.1104 12.0544 4.18519 9.42508
273 1 -1.1104 9.28186 6.81054 9.68986
285 1 -1.1104 9.43483 7.14505 12.2168
279 1 -1.1104 12.2073 6.87679 9.47905
325 2 2.2208 5.18106 8.24383 13.6331
108 1 -1.1104 0.81837 12.682 6.66912
317 2 2.2208 5.06926 2.9915 13.3439
241 2 2.2208 5.20047 11.0758 10.8035
247 1 -1.1104 1.05164 9.83218 12.2573
250 2 2.2208 5.30061 8.32205 7.81726
252 1 -1.1104 0.691038 9.96294 9.5205
257 2 2.2208 2.43333 11.1036 8.08404
259 2 2.2208 2.28872 8.4386 10.7419
261 1 -1.1104 3.76653 9.77451 12.3899
263 1 -1.1104 3.72792 9.53923 9.26463
287 1 -1.1104 3.65151 12.6377 12.0206
294 1 -1.1104 1.06592 12.7599 9.35049
299 1 -1.1104 0.913502 12.7718 12.2308
305 1 -1.1104 3.92722 12.3973 9.39868
297 1 -1.1104 6.43253 12.621 12.0742
249 1 -1.1104 6.48105 9.87576 12.1995
290 1 -1.1104 6.64249 12.5533 9.21778
310 2 2.2208 2.27347 14.1459 10.9482
165 2 2.2208 7.92859 13.9668 10.8159
254 1 -1.1104 6.68795 9.73091 9.29808
345 2 2.2208 4.9846 5.50158 -0.439065
135 1 -1.1104 9.34599 12.439 9.33101
83 1 -1.1104 9.05188 12.7643 12.2921
264 1 -1.1104 9.6332 9.56892 9.49081
270 1 -1.1104 9.44735 9.79452 12.2567
272 2 2.2208 7.87801 8.33555 10.9375
274 2 2.2208 8.08015 11.0051 7.84324
277 2 2.2208 10.7685 10.9407 10.6661
281 1 -1.1104 12.4017 9.7904 12.0234
282 2 2.2208 11.0526 8.25718 8.09746
284 1 -1.1104 12.5223 9.57268 8.97001
26 1 -1.1104 11.8739 12.4717 12.2565
30 1 -1.1104 12.1651 12.2634 9.43907
53 2 2.2208 10.8299 13.8266 8.05378
9249 2 2.2208 13.4025 8.34159 -0.378697
112 1 -1.1104 6.4326 18.0265 6.79361
9261 2 2.2208 13.5267 11.2721 13.5667
306 1 -1.1104 6.35082 15.3466 12.1415
288 1 -1.1104 6.53351 18.5392 9.34027
9227 2 2.2208 13.5074 0.0457619 2.32531
295 2 2.2208 5.17838 13.7854 7.92777
307 1 -1.1104 0.828277 15.4293 12.1213
309 2 2.2208 2.2794 19.5718 10.6054
308 1 -1.1104 3.68817 15.5757 12.3306
286 1 -1.1104 3.59152 18.1975 12.0643
291 1 -1.1104 0.880994 18.3826 9.50986
292 1 -1.1104 0.863407 15.5191 9.39735
293 2 2.2208 5.05322 19.6029 7.88511
298 1 -1.1104 0.856077 18.2512 12.1776
300 2 2.2208 5.16145 16.9544 10.6095
301 1 -1.1104 3.60883 18.3408 9.25373
303 2 2.2208 2.24267 16.7741 7.89173
304 1 -1.1104 3.71389 15.2318 9.3408
9228 2 2.2208 13.4587 -2.88208 5.06899
9223 2 2.2208 13.6059 16.5864 8.00636
296 1 -1.1104 6.41962 18.2605 12.224
289 1 -1.1104 6.57928 15.5116 9.46201
49 1 -1.1104 12.1084 18.0805 9.38791
9229 2 2.2208 13.4818 -5.41392 1.99155
50 1 -1.1104 12.1035 15.2107 12.098
82 1 -1.1104 12.215 15.2374 9.22959
149 1 -1.1104 12.2673 15.1131 6.63868
145 1 -1.1104 11.9772 18.1021 6.46088
25 2 2.2208 10.6827 16.7707 10.7453
29 2 2.2208 4.98011 -5.55282 5.18221
104 1 -1.1104 9.20164 18.1389 12.1176
233 1 -1.1104 9.46603 15.4016 9.44833
230 1 -1.1104 9.30072 15.455 12.186
81 2 2.2208 10.7711 19.5672 7.80235
27 1 -1.1104 12.0416 18.2967 11.9594
28 2 2.2208 2.20613 -5.60693 2.16332
326 2 2.2208 2.33554 11.3964 13.5227
9248 2 2.2208 13.5076 -0.00408529 13.5985
9020 2 2.2208 13.6157 14.0903 5.0803
316 2 2.2208 2.33254 0.0680787 13.5742
9440 2 2.2208 13.501 -5.57138 13.5534
8922 2 2.2208 13.6505 2.75666 5.16498
323 2 2.2208 10.5649 2.73907 13.5294
312 2 2.2208 4.94617 -2.80415 13.5593
330 2 2.2208 2.23553 16.8396 13.653
335 2 2.2208 7.88121 16.7298 13.5336
387 2 2.2208 1.99292 -5.54004 13.5592
319 2 2.2208 10.6289 16.9239 -0.421507
347 2 2.2208 5.21992 11.1113 -0.421819
334 2 2.2208 10.6645 13.9508 13.6608
348 2 2.2208 5.04479 0.019159 16.3806
349 1 -1.1104 0.803076 -4.15548 17.6373
353 1 -1.1104 0.649383 -4.17601 14.834
361 1 -1.1104 0.830358 -1.51071 18.0406
363 2 2.2208 5.00072 -2.91997 19.3318
365 1 -1.1104 0.822021 -1.34902 14.9894
369 1 -1.1104 3.5958 -4.35142 17.6941
371 2 2.2208 2.34311 0.0971669 19.1876
372 1 -1.1104 3.40232 -4.17256 14.7202
376 2 2.2208 2.22496 -2.71263 16.5597
378 1 -1.1104 3.7162 -1.35257 17.9798
379 1 -1.1104 3.416 -1.28073 15.4318
354 1 -1.1104 0.673817 -4.08459 20.5175
373 1 -1.1104 3.70438 -4.10954 20.5607
366 1 -1.1104 0.627361 -1.15768 20.7614
358 1 -1.1104 6.69222 -4.09635 20.5546
357 1 -1.1104 6.07334 -4.22562 15.0187
351 1 -1.1104 6.25901 -4.11725 17.7005
368 1 -1.1104 6.44217 -1.29206 20.6579
367 1 -1.1104 6.23203 -1.42478 14.9805
362 1 -1.1104 6.41508 -1.33901 17.9827
391 2 2.2208 10.6098 0.146393 16.328
392 1 -1.1104 11.9813 -3.96173 17.7145
394 1 -1.1104 12.1054 -4.39558 15.0234
398 1 -1.1104 12.2065 -1.19535 17.524
399 2 2.2208 10.809 -2.74139 19.2025
401 1 -1.1104 12.0901 -1.48828 14.8935
403 1 -1.1104 9.00562 -4.09677 17.7477
405 2 2.2208 7.71378 0.0193461 19.3311
406 1 -1.1104 9.06923 -4.17426 14.8674
410 2 2.2208 7.79629 -2.77211 16.3837
412 1 -1.1104 9.29392 -1.31272 17.7038
413 1 -1.1104 9.05211 -1.37607 14.9024
402 1 -1.1104 12.234 -1.50576 20.2312
395 1 -1.1104 12.2273 -4.21613 20.3205
414 1 -1.1104 9.37901 -1.54144 20.7732
9255 2 2.2208 13.4058 2.80203 27.7483
582 2 2.2208 2.15773 -5.48548 24.5343
315 2 2.2208 2.22743 19.6964 27.5525
374 1 -1.1104 3.66027 1.58911 14.8221
370 1 -1.1104 3.6103 1.38118 17.8122
350 1 -1.1104 0.927514 1.39013 17.9931
355 1 -1.1104 0.663624 1.31821 14.9699
364 2 2.2208 4.82306 2.88309 19.4338
377 2 2.2208 2.23588 2.61919 16.2612
424 2 2.2208 4.94553 5.67505 16.3826
428 1 -1.1104 0.712751 7.0256 15.1163
432 1 -1.1104 0.577718 4.24436 18.1511
437 1 -1.1104 0.746887 4.26869 14.9322
445 1 -1.1104 3.82856 6.89445 18.0155
446 2 2.2208 2.16479 5.43523 19.2629
448 1 -1.1104 3.58188 6.90184 14.9251
451 1 -1.1104 3.52596 3.96022 17.8118
453 1 -1.1104 3.57123 4.28138 14.9654
426 1 -1.1104 1.01335 6.76019 17.7069
375 1 -1.1104 3.64486 1.29624 20.7972
429 1 -1.1104 0.892377 7.08966 20.4307
454 1 -1.1104 3.78681 4.10036 20.9339
352 1 -1.1104 6.41796 1.45079 17.9249
360 1 -1.1104 6.21486 1.5252 20.7335
442 1 -1.1104 6.48554 4.26499 20.6021
356 1 -1.1104 0.94734 1.34753 20.9003
449 1 -1.1104 3.74691 6.95528 20.9141
434 1 -1.1104 6.24752 4.10737 17.7565
430 1 -1.1104 6.51908 7.06755 15.2182
438 1 -1.1104 0.892941 4.15615 20.7794
417 2 2.2208 7.86996 -5.58796 19.2709
359 1 -1.1104 6.48521 1.28447 14.9589
427 1 -1.1104 6.51596 7.07902 18.0346
441 1 -1.1104 6.27181 4.31745 14.916
404 1 -1.1104 9.37034 1.46275 17.7577
393 1 -1.1104 12.0176 1.66083 17.6761
396 1 -1.1104 12.0738 1.38183 15.0438
400 2 2.2208 10.5414 2.7376 19.1384
408 1 -1.1104 9.22513 1.35672 14.783
411 2 2.2208 7.67625 2.70728 16.462
460 2 2.2208 10.4891 5.56392 16.3217
462 1 -1.1104 12.0766 6.94964 17.9331
465 1 -1.1104 12.0475 4.28931 17.6427
468 1 -1.1104 11.9382 4.28873 15.0269
472 1 -1.1104 9.31356 6.94768 17.7208
473 2 2.2208 7.86874 5.56525 19.1297
475 1 -1.1104 9.14511 7.04426 14.9341
478 1 -1.1104 9.21356 4.17818 17.9258
480 1 -1.1104 9.15328 4.35072 15.1162
463 1 -1.1104 12.1309 7.06967 15.1568
464 1 -1.1104 12.2999 6.86584 20.9723
476 1 -1.1104 9.42279 7.01248 20.4891
481 1 -1.1104 9.18193 4.08697 20.533
469 1 -1.1104 11.8488 4.16758 20.7249
409 1 -1.1104 9.27963 1.10487 20.4813
397 1 -1.1104 12.2312 1.49273 20.4363
431 1 -1.1104 6.49292 7.0244 20.5978
425 2 2.2208 5.10854 11.2153 16.3831
433 1 -1.1104 1.16726 9.64035 18.277
436 2 2.2208 5.2344 8.50468 19.4659
439 1 -1.1104 0.914687 9.83157 15.2671
447 2 2.2208 2.4159 11.2052 19.2844
450 2 2.2208 2.47649 8.35748 16.4468
452 1 -1.1104 3.90713 9.7616 17.6757
455 1 -1.1104 3.69654 9.96791 15.0116
488 1 -1.1104 0.856143 12.5395 17.7223
492 1 -1.1104 0.846622 12.5971 14.8839
508 1 -1.1104 3.66426 12.613 17.9057
511 1 -1.1104 3.66089 12.7057 14.9231
515 2 2.2208 2.07246 14.0728 16.3409
493 1 -1.1104 0.805536 12.4976 20.3664
443 1 -1.1104 6.50491 9.84097 14.7939
512 1 -1.1104 3.84719 12.7598 20.5761
440 1 -1.1104 0.982447 9.96037 21.068
456 1 -1.1104 3.85104 9.74513 20.8044
490 1 -1.1104 6.83931 12.5831 17.7568
435 1 -1.1104 6.45299 9.87883 17.7853
497 1 -1.1104 6.65053 12.4925 20.6375
502 2 2.2208 5.1879 13.9245 19.2284
9366 2 2.2208 -0.387651 2.60702 19.3916
383 2 2.2208 2.28008 -5.55433 19.1595
496 1 -1.1104 6.65296 12.6963 15.0648
444 1 -1.1104 6.61808 9.82277 20.7381
461 2 2.2208 10.8194 11.2951 16.6171
466 1 -1.1104 12.1972 9.79068 18.005
467 2 2.2208 10.7435 8.4212 19.2166
470 1 -1.1104 12.1687 9.79691 14.9348
474 2 2.2208 8.11731 11.1147 19.2305
477 2 2.2208 7.73269 8.38255 16.4384
479 1 -1.1104 9.48145 9.80176 17.8791
482 1 -1.1104 9.14736 9.51251 15.0157
524 1 -1.1104 12.5155 12.6831 17.9933
526 1 -1.1104 12.1421 12.4715 15.0655
535 1 -1.1104 9.37797 12.6321 17.9285
538 1 -1.1104 9.4683 12.5005 15.0587
483 1 -1.1104 9.37343 9.69485 20.6385
527 1 -1.1104 12.2316 12.4101 20.7024
539 1 -1.1104 9.40889 12.8146 20.524
531 2 2.2208 10.8416 14.052 19.3799
471 1 -1.1104 12.0239 9.66877 20.6927
614 1 -1.1104 9.33541 18.3069 23.4295
610 2 2.2208 10.9273 -5.59219 21.7996
487 2 2.2208 4.95823 16.9093 16.3161
489 1 -1.1104 0.701344 18.2203 17.8176
494 1 -1.1104 1.00363 18.2356 15.0537
500 1 -1.1104 1.02575 15.5002 17.7616
503 2 2.2208 4.94703 19.4382 19.2578
504 1 -1.1104 0.658001 15.3833 14.8265
509 1 -1.1104 3.63779 18.1674 17.8064
510 2 2.2208 2.28765 16.7515 19.3257
513 1 -1.1104 3.68635 18.2323 14.7658
516 2 2.2208 2.18757 19.6806 16.3697
517 1 -1.1104 3.619 15.326 17.9314
518 1 -1.1104 3.5454 15.4581 15.1234
501 1 -1.1104 6.42044 15.4345 17.7528
519 1 -1.1104 3.66453 15.4727 20.6206
506 1 -1.1104 6.59389 15.5071 14.9405
514 1 -1.1104 3.62084 18.1205 20.6847
505 1 -1.1104 0.83509 15.3839 20.9777
495 1 -1.1104 0.831351 18.195 20.5398
507 1 -1.1104 6.77191 15.3924 20.6725
498 1 -1.1104 6.6755 18.142 14.9394
584 1 -1.1104 12.4854 18.0361 26.3132
9471 2 2.2208 13.5486 -5.54163 18.9678
534 1 -1.1104 12.2709 15.277 20.7677
491 1 -1.1104 6.30245 18.2797 17.7962
542 2 2.2208 7.91102 14.0664 16.4575
523 2 2.2208 10.6722 16.6511 16.3354
525 1 -1.1104 11.9786 18.0926 17.698
528 1 -1.1104 12.0001 18.3275 14.7844
530 1 -1.1104 12.1684 15.5051 17.7528
532 2 2.2208 10.7687 19.6176 19.2037
533 1 -1.1104 12.0636 15.5531 14.5787
536 1 -1.1104 9.24113 18.0272 17.8931
537 2 2.2208 7.84528 16.7557 19.1755
540 1 -1.1104 9.32681 18.2663 15.1143
543 2 2.2208 7.80143 19.4634 16.3382
544 1 -1.1104 9.40019 15.2956 17.7417
545 1 -1.1104 9.28275 15.4138 15.057
541 1 -1.1104 9.40277 18.3355 20.6735
529 1 -1.1104 12.1851 18.2141 20.4451
546 1 -1.1104 9.44428 15.488 20.7128
9398 2 2.2208 13.3991 5.48724 19.1775
9369 2 2.2208 13.578 -0.00658644 24.784
380 1 -1.1104 3.62055 -1.4251 20.5276
551 2 2.2208 4.98118 -0.051098 22.2657
552 1 -1.1104 1.10294 -4.30299 23.1795
556 1 -1.1104 0.76577 -4.24091 26.0175
560 1 -1.1104 0.881725 -1.40902 23.5068
562 2 2.2208 5.03603 -2.76902 25.0595
564 1 -1.1104 0.772098 -1.17837 26.3267
566 1 -1.1104 3.6314 -3.94377 23.1152
568 2 2.2208 2.12234 0.072319 25.1707
569 1 -1.1104 3.558 -4.26245 26.0579
571 2 2.2208 2.03442 -2.71148 21.9066
573 1 -1.1104 3.5961 -1.23682 23.7843
574 1 -1.1104 3.58401 -1.3125 26.5808
558 1 -1.1104 6.57967 -4.15547 26.122
554 1 -1.1104 6.31157 -4.31216 23.4228
561 1 -1.1104 6.3806 -1.28851 23.7921
314 2 2.2208 4.95081 16.813 27.6139
581 2 2.2208 5.13996 -5.51999 22.0397
407 1 -1.1104 9.44472 -4.36359 20.534
313 2 2.2208 2.13802 13.8984 27.6655
565 1 -1.1104 6.49967 -1.19127 26.2795
587 2 2.2208 10.7043 0.0597358 21.898
588 1 -1.1104 12.095 -4.32141 23.3965
590 1 -1.1104 12.175 -4.29873 26.049
592 1 -1.1104 12.0705 -1.52916 23.2113
593 2 2.2208 10.7428 -2.70979 24.7069
595 1 -1.1104 12.0433 -1.36104 26.1658
596 1 -1.1104 9.15307 -4.16825 23.1691
598 2 2.2208 8.03207 0.0760167 24.9387
599 1 -1.1104 9.39499 -4.36797 26.0191
601 2 2.2208 7.85713 -2.6929 22.103
603 1 -1.1104 9.23763 -1.29429 23.2394
604 1 -1.1104 9.42338 -1.54012 26.3417
336 2 2.2208 5.08648 0.127684 27.6452
9530 2 2.2208 13.4508 2.79788 21.9818
609 2 2.2208 10.8115 -5.592 27.4642
586 2 2.2208 10.7871 14.1211 24.9941
9268 2 2.2208 -0.421912 8.6064 13.761
553 1 -1.1104 0.689252 1.31207 23.5359
557 1 -1.1104 0.555108 1.4623 26.3387
563 2 2.2208 4.93209 2.84252 25.0284
567 1 -1.1104 3.54893 1.57779 23.8017
570 1 -1.1104 3.64517 1.34809 26.5188
572 2 2.2208 2.13786 2.70602 22.2347
616 2 2.2208 5.06563 5.64607 22.1902
618 1 -1.1104 0.759898 6.88158 23.1947
620 1 -1.1104 0.982742 6.90866 26.4589
622 1 -1.1104 0.61356 4.13421 23.537
627 1 -1.1104 0.726203 4.24725 26.2047
632 2 2.2208 2.24054 5.61639 24.9545
636 1 -1.1104 3.62442 4.38365 23.7576
638 1 -1.1104 3.56838 4.21502 26.3224
631 1 -1.1104 3.54352 6.9928 23.847
634 1 -1.1104 3.61273 6.99471 26.7773
559 1 -1.1104 6.63524 1.39989 26.3153
621 1 -1.1104 6.28379 6.82402 26.1963
629 1 -1.1104 6.54679 4.1939 26.1834
555 1 -1.1104 6.41695 1.35298 23.4965
624 1 -1.1104 6.43012 4.08067 23.4024
9438 2 2.2208 -0.404268 8.3919 19.1868
645 1 -1.1104 9.58657 18.4178 26.1201
342 2 2.2208 10.8029 11.2774 27.6374
318 2 2.2208 7.84857 14.0877 27.6006
606 2 2.2208 7.88893 19.6594 21.9281
619 1 -1.1104 6.54071 7.00269 23.3807
589 1 -1.1104 12.0803 1.19482 23.3053
600 1 -1.1104 9.63833 1.29661 26.2496
591 1 -1.1104 12.3988 1.20783 26.1282
594 2 2.2208 10.6226 2.78063 24.9083
597 1 -1.1104 9.22291 1.47936 23.5757
602 2 2.2208 7.83348 2.8574 21.9433
607 1 -1.1104 9.15607 6.94262 23.4404
641 1 -1.1104 11.9885 4.12851 26.4207
648 1 -1.1104 9.23844 4.25379 26.1941
650 1 -1.1104 9.23423 4.2518 23.4872
654 2 2.2208 7.68779 5.55756 24.8224
655 2 2.2208 10.7405 5.54204 22.1624
659 1 -1.1104 12.2029 4.15724 23.5454
652 1 -1.1104 9.04248 6.96471 26.193
657 1 -1.1104 12.1405 7.12439 23.7413
658 1 -1.1104 12.0301 6.99418 26.4378
612 1 -1.1104 12.0155 15.6053 26.5329
9589 2 2.2208 13.6544 8.28166 22.1529
585 1 -1.1104 12.1305 15.5112 23.4263
617 2 2.2208 5.14525 11.1745 22.1745
623 1 -1.1104 1.15449 9.76125 23.5488
626 2 2.2208 5.18625 8.50083 24.9032
628 1 -1.1104 0.832897 9.88839 26.4674
633 2 2.2208 2.52917 11.0825 24.8858
635 2 2.2208 2.28752 8.43356 22.0784
637 1 -1.1104 3.84869 9.77427 23.5609
639 1 -1.1104 3.63158 9.50667 26.2137
420 1 -1.1104 3.84855 12.7438 26.1537
458 1 -1.1104 0.830533 12.7668 23.4151
521 1 -1.1104 1.11645 12.3919 26.2752
549 1 -1.1104 3.7856 12.4243 23.5703
630 1 -1.1104 6.67955 9.98472 26.4157
484 1 -1.1104 6.64634 12.8241 23.4265
575 1 -1.1104 6.45938 12.6671 26.0333
625 1 -1.1104 6.61455 9.97157 23.8205
339 2 2.2208 10.7859 -0.0994977 27.7144
9399 2 2.2208 13.5531 11.1948 19.3868
320 2 2.2208 7.80567 19.7089 27.5967
9439 2 2.2208 -0.443814 5.61661 16.3731
580 2 2.2208 5.04882 -5.64293 27.5891
646 2 2.2208 8.07214 14.0624 22.0805
644 1 -1.1104 9.35925 12.6946 26.1368
640 1 -1.1104 12.0336 9.59956 26.53
642 2 2.2208 10.6893 8.4199 24.9072
647 1 -1.1104 9.48798 9.81294 26.3567
649 1 -1.1104 9.51686 9.91273 23.6619
651 2 2.2208 8.02935 8.32277 22.0195
653 2 2.2208 8.09504 11.3984 24.8537
656 2 2.2208 10.801 11.229 22.0626
660 1 -1.1104 12.4351 9.88675 23.5602
578 1 -1.1104 12.3159 12.6084 23.8409
583 1 -1.1104 12.2319 12.4854 26.4041
613 1 -1.1104 9.61641 12.7652 23.3734
9327 2 2.2208 13.493 11.0595 25.1685
9469 2 2.2208 13.6465 16.7456 19.2582
9323 2 2.2208 13.4711 2.77757 16.3808
9470 2 2.2208 13.4757 19.6782 16.4769
419 1 -1.1104 6.62595 15.4469 23.3101
520 1 -1.1104 6.57972 18.5752 23.4494
548 1 -1.1104 6.46566 15.647 26.1602
388 2 2.2208 2.21426 13.9979 22.039
522 1 -1.1104 0.601319 15.2806 26.2898
485 2 2.2208 5.0577 14.0782 24.6788
415 1 -1.1104 0.930925 15.4171 23.6126
486 2 2.2208 5.01704 19.6481 24.7264
422 2 2.2208 2.09597 16.7698 24.8702
423 1 -1.1104 3.64112 18.2172 26.0668
457 2 2.2208 5.19854 16.7505 21.964
421 1 -1.1104 3.67309 15.5231 26.347
547 1 -1.1104 0.814756 18.124 26.3442
576 1 -1.1104 3.56539 18.0221 23.4553
459 1 -1.1104 0.682624 18.1605 23.5209
389 2 2.2208 2.08541 19.5313 21.845
390 1 -1.1104 3.56605 15.3196 23.3815
643 1 -1.1104 6.45721 18.247 26.1567
9397 2 2.2208 13.5364 8.5284 16.383
615 2 2.2208 8.0554 17.0456 24.8639
608 2 2.2208 10.8339 19.6883 24.7301
499 1 -1.1104 6.44626 18.0603 20.7033
579 1 -1.1104 12.1896 18.3298 23.3075
550 2 2.2208 10.79 16.8291 22.0053
9442 2 2.2208 13.5897 19.4596 21.9295
338 2 2.2208 2.33557 2.9426 27.6813
577 1 -1.1104 9.10196 15.5025 26.3429
605 1 -1.1104 9.34742 15.4968 23.6081
9441 2 2.2208 13.5452 -2.69639 16.4143
416 2 2.2208 10.5712 -5.54796 16.3295
9329 2 2.2208 13.5334 0.130726 19.0643
328 2 2.2208 10.8241 8.51269 13.7605
340 2 2.2208 7.87851 -2.70321 27.6703
341 2 2.2208 8.02395 2.94523 27.6074
9259 2 2.2208 13.551 5.59904 13.8486
343 2 2.2208 7.90209 8.41027 27.6053
332 2 2.2208 5.13487 14.2039 13.7087
337 2 2.2208 2.26182 -2.86194 27.7701
344 2 2.2208 10.7059 5.56935 27.6951
321 2 2.2208 7.93043 -0.0218889 13.7133
661 2 2.2208 4.98411 22.3232 5.0308
663 1 -1.1104 0.765068 23.6946 0.994876
664 1 -1.1104 0.710042 23.8854 3.68965
667 2 2.2208 4.93673 25.2552 2.16724
670 1 -1.1104 3.55508 24.0597 0.686627
671 2 2.2208 2.20317 22.6072 2.34655
673 1 -1.1104 3.41407 23.9861 3.70524
674 2 2.2208 2.21305 25.3691 4.97853
675 1 -1.1104 3.69371 21.1807 0.829607
677 1 -1.1104 3.64747 21.2476 3.54657
665 1 -1.1104 0.840187 20.9953 0.783235
668 1 -1.1104 1.07411 20.9565 3.58704
669 1 -1.1104 0.760819 26.6885 3.51108
676 1 -1.1104 3.68731 27.0728 0.822159
808 1 -1.1104 3.545 23.756 6.58254
666 1 -1.1104 0.740863 26.5363 0.772814
678 1 -1.1104 3.75741 26.5105 3.53561
804 1 -1.1104 0.693932 21.1322 6.59633
802 1 -1.1104 0.672708 24.0314 6.42437
810 1 -1.1104 3.62447 26.5846 6.20555
685 1 -1.1104 6.41518 26.4469 0.727443
686 1 -1.1104 6.45957 20.946 3.69274
687 1 -1.1104 6.5977 26.5323 3.58862
807 1 -1.1104 6.36516 26.5101 6.30647
9853 2 2.2208 13.4023 33.8508 7.96579
805 1 -1.1104 0.950421 27.0757 6.31487
809 1 -1.1104 3.6673 20.995 6.27473
806 1 -1.1104 6.32728 20.9823 6.65447
684 1 -1.1104 6.32819 20.9372 0.653894
682 1 -1.1104 6.36875 23.7675 0.723204
683 1 -1.1104 6.37422 23.7907 3.55791
695 1 -1.1104 12.0436 21.1025 3.67812
688 2 2.2208 10.5661 22.2411 5.13446
690 1 -1.1104 11.7846 23.9574 0.709173
691 1 -1.1104 12.0414 23.7895 3.68105
692 1 -1.1104 12.0155 21.1886 0.959511
694 2 2.2208 10.6117 25.2494 2.14783
697 1 -1.1104 9.21676 23.9015 0.650212
698 2 2.2208 7.71957 22.4015 2.1448
700 1 -1.1104 9.10977 23.9105 3.63799
701 2 2.2208 7.90324 25.1617 5.06635
702 1 -1.1104 8.98425 20.8355 1.07101
704 1 -1.1104 9.20643 20.8203 3.76908
696 1 -1.1104 12.196 26.6012 3.55656
705 1 -1.1104 9.39971 26.7202 3.62465
693 1 -1.1104 12.0282 26.8351 0.817915
703 1 -1.1104 9.24811 26.6762 0.745268
835 1 -1.1104 11.9445 23.6332 6.31633
839 1 -1.1104 9.09613 20.9563 6.54114
836 1 -1.1104 12.0092 20.9203 6.46535
840 1 -1.1104 9.29566 26.5773 6.3503
837 1 -1.1104 12.1671 26.7151 6.4313
838 1 -1.1104 9.13481 23.9272 6.52038
662 2 2.2208 5.02992 28.0496 4.98148
672 2 2.2208 2.34088 28.1957 2.2265
710 1 -1.1104 0.659547 29.4832 0.854057
713 1 -1.1104 1.00854 29.625 3.58846
716 1 -1.1104 0.616393 32.2472 0.909045
717 2 2.2208 4.97916 30.8437 2.20204
719 1 -1.1104 0.572703 32.4071 3.75787
721 1 -1.1104 3.34177 29.822 0.82715
724 1 -1.1104 3.95533 29.3274 3.44096
726 2 2.2208 2.2558 30.9074 5.18728
728 1 -1.1104 3.74808 32.559 0.856509
729 1 -1.1104 3.49928 32.4552 3.9683
859 1 -1.1104 0.937048 29.6855 6.60731
867 1 -1.1104 3.58997 32.2244 6.72903
734 1 -1.1104 6.51673 29.4715 3.55672
861 1 -1.1104 6.55287 29.3899 6.4688
863 1 -1.1104 0.896899 32.2919 6.42059
864 1 -1.1104 6.39653 32.0477 6.42937
9700 2 2.2208 13.3246 36.5298 4.96395
1332 1 -1.1104 3.59655 46.5239 3.84274
720 1 -1.1104 6.31796 32.3168 3.72819
735 1 -1.1104 6.33311 32.2025 0.789497
733 1 -1.1104 6.54414 29.3064 0.58098
689 2 2.2208 10.6965 28.1589 4.97074
699 2 2.2208 7.83638 28.0543 2.16536
737 1 -1.1104 11.9207 29.6273 0.833598
739 1 -1.1104 12.1252 29.5633 3.74539
741 1 -1.1104 11.9096 32.3598 1.11887
742 2 2.2208 10.5876 30.8561 2.37376
744 1 -1.1104 11.9621 32.5687 3.84252
745 1 -1.1104 9.15222 29.6766 0.913034
748 1 -1.1104 9.19014 29.3839 3.53084
750 2 2.2208 7.84342 30.8937 5.11768
752 1 -1.1104 9.25038 32.3871 0.620226
753 1 -1.1104 9.12767 32.1968 3.75733
893 1 -1.1104 12.049 29.5674 6.53012
898 1 -1.1104 9.3277 32.2414 6.5997
896 1 -1.1104 9.53077 29.6245 6.26843
895 1 -1.1104 12.167 32.4435 6.52176
709 2 2.2208 4.99239 33.6553 5.13853
723 2 2.2208 1.91793 33.5967 2.28274
711 1 -1.1104 0.698998 34.9837 1.0534
714 1 -1.1104 0.581007 35.1512 3.84772
718 2 2.2208 4.89324 36.3998 2.37784
722 1 -1.1104 3.55955 35.1989 0.890591
725 1 -1.1104 3.54019 35.1564 3.90071
727 2 2.2208 1.9843 36.492 5.34785
755 2 2.2208 4.82922 39.4868 5.00636
761 1 -1.1104 0.582622 37.8742 0.974803