ITEM: TIMESTEP
100000
ITEM: NUMBER OF ATOMS
17760
ITEM: BOX BOUNDS pp pp pp
-4.5360930970046814e-01 2.7793609309700020e+01
-5.4162571990976121e+00 3.3349625719909642e+02
-4.5185467617080444e-01 2.7791854676170612e+01
ITEM: ATOMS id type q x y z
1 2 2.2208 5.62339 0.324023 5.39769
2 1 -1.1104 1.19417 -3.81805 1.23699
6 1 -1.1104 1.13371 -3.77616 3.84004
10 1 -1.1104 1.47835 -0.920451 1.03467
12 2 2.2208 5.50145 -2.41231 2.6697
14 1 -1.1104 1.15535 -1.0568 3.82594
16 1 -1.1104 3.80219 -3.81386 1.15
18 2 2.2208 2.58925 0.411878 2.4935
19 1 -1.1104 3.9053 -3.73704 3.92888
21 2 2.2208 2.51988 -2.44748 5.25751
23 1 -1.1104 4.10086 -0.961675 0.968334
24 1 -1.1104 4.11862 -1.01677 4.02086
15 1 -1.1104 6.94366 -1.14809 4.30338
8 1 -1.1104 6.63921 -3.87252 4.09564
11 1 -1.1104 6.95419 -1.31327 1.23995
4 1 -1.1104 6.66636 -3.91435 1.09496
343 2 2.2208 8.33422 8.84076 -0.414041
312 2 2.2208 5.36046 -2.5735 13.6653
166 1 -1.1104 1.1025 -4.12969 6.63634
9245 2 2.2208 -0.314332 17.3884 -0.234623
51 2 2.2208 8.00342 -5.30143 2.40371
9222 2 2.2208 13.5855 14.3544 10.9316
31 2 2.2208 11.0409 0.203082 5.19886
32 1 -1.1104 12.5655 -4.09051 0.879831
34 1 -1.1104 12.1256 -3.87717 3.77343
36 1 -1.1104 12.4984 -1.25985 1.13522
37 2 2.2208 10.9578 -2.59476 2.32048
39 1 -1.1104 12.5322 -1.25653 3.89763
40 1 -1.1104 9.52531 -4.00181 0.774348
42 2 2.2208 8.30151 0.312864 2.45109
43 1 -1.1104 9.26196 -3.99595 3.82966
45 2 2.2208 8.26652 -2.5272 5.45385
47 1 -1.1104 9.67261 -1.1999 1.03379
48 1 -1.1104 9.63158 -1.08854 3.83883
9231 2 2.2208 -0.278871 9.04534 2.58964
207 1 -1.1104 12.5453 -0.975393 6.78363
52 2 2.2208 10.8977 -5.36459 5.11197
340 2 2.2208 8.09046 -2.57079 -0.428862
29 2 2.2208 5.32577 -5.39991 5.23671
319 2 2.2208 10.8578 17.3429 -0.245372
9241 2 2.2208 -0.34812 19.9089 8.23009
9221 2 2.2208 -0.235382 -2.50696 2.54924
231 2 2.2208 8.0824 -5.38327 8.17723
17 1 -1.1104 4.03105 1.97146 1.2612
3 1 -1.1104 1.14942 1.78673 1.05648
7 1 -1.1104 1.27235 1.74811 3.85998
13 2 2.2208 5.39879 3.20249 2.70287
20 1 -1.1104 4.14507 1.82871 4.09365
22 2 2.2208 2.60085 2.9887 5.50157
54 2 2.2208 5.43274 5.81965 5.27765
56 1 -1.1104 1.24192 7.41582 1.18376
60 1 -1.1104 1.19414 4.51671 1.55075
67 1 -1.1104 1.40334 4.70193 4.1448
71 1 -1.1104 4.10532 7.57662 0.979736
72 2 2.2208 2.5731 5.8507 2.56955
76 1 -1.1104 4.03793 4.71218 1.17169
79 1 -1.1104 3.9808 4.58035 4.04289
58 1 -1.1104 1.15974 7.23616 3.8152
74 1 -1.1104 3.8601 7.35415 3.81433
69 1 -1.1104 6.76308 4.44173 4.00358
234 1 -1.1104 1.08846 7.32176 6.79176
59 1 -1.1104 6.64287 7.33442 3.76531
9236 2 2.2208 -0.347425 17.1568 5.4005
9020 2 2.2208 13.6809 14.3417 5.40976
57 1 -1.1104 6.89077 7.19861 0.983305
235 1 -1.1104 6.95037 7.25363 6.60017
9 1 -1.1104 7.16893 1.64155 4.07069
63 1 -1.1104 6.81847 4.53967 1.06675
5 1 -1.1104 6.79961 1.71553 1.14067
41 1 -1.1104 9.82688 1.72808 0.98197
44 1 -1.1104 9.77096 1.72084 3.73962
33 1 -1.1104 12.4988 1.45529 1.29635
35 1 -1.1104 12.6278 1.5719 3.88494
38 2 2.2208 11.1296 2.96962 2.50119
46 2 2.2208 8.20222 3.03492 5.46054
84 2 2.2208 11.022 5.91637 5.18812
88 1 -1.1104 12.5599 4.49423 1.03977
92 1 -1.1104 12.3247 4.50584 3.915
95 2 2.2208 8.15737 5.73359 2.58029
99 1 -1.1104 9.7863 4.53327 1.19507
102 1 -1.1104 9.78095 4.44009 3.98258
87 1 -1.1104 12.3855 7.32294 3.87755
86 1 -1.1104 12.3036 7.36044 0.994229
97 1 -1.1104 9.59646 7.40077 3.92403
94 1 -1.1104 9.52459 7.50196 1.08793
9403 2 2.2208 -0.120465 -5.30308 -0.345001
9152 2 2.2208 -0.335996 6.03523 10.7519
55 2 2.2208 5.34601 11.3417 5.39679
61 1 -1.1104 0.947665 10.2644 1.21384
66 2 2.2208 5.32871 8.63564 2.45356
68 1 -1.1104 1.16555 10.3511 3.9774
73 2 2.2208 2.63316 11.7572 2.66276
75 2 2.2208 2.45129 8.73493 5.18225
77 1 -1.1104 3.73328 10.3245 1.17726
80 1 -1.1104 3.99373 10.1452 3.91585
107 1 -1.1104 1.31129 13.3104 1.11358
113 1 -1.1104 1.19714 13.1887 3.78346
123 1 -1.1104 3.93038 12.9419 1.12172
128 1 -1.1104 3.97359 12.9355 4.052
124 1 -1.1104 3.86518 12.8535 6.96586
70 1 -1.1104 6.57075 10.0531 3.94975
62 1 -1.1104 1.0983 10.3186 6.71221
110 1 -1.1104 6.75958 12.9851 1.00066
204 2 2.2208 -0.413264 -5.4242 10.8767
9225 2 2.2208 -0.24251 3.11737 2.62197
64 1 -1.1104 6.75569 10.0745 0.96638
115 1 -1.1104 6.49793 12.8929 3.88197
85 2 2.2208 10.9832 11.7138 5.20901
89 1 -1.1104 12.3963 10.1528 1.13415
91 2 2.2208 10.9272 8.9552 2.60838
93 1 -1.1104 12.2643 10.3682 3.99576
96 2 2.2208 8.02148 11.3421 2.56044
98 2 2.2208 8.15423 8.7288 5.31482
100 1 -1.1104 9.6359 10.4156 1.15016
103 1 -1.1104 9.41622 9.94084 3.91819
142 1 -1.1104 12.497 12.9646 1.24605
146 1 -1.1104 12.4715 12.967 3.97647
153 1 -1.1104 9.62038 13.0947 1.33312
158 1 -1.1104 9.42794 12.9254 3.85938
90 1 -1.1104 12.5125 9.94193 6.83891
337 2 2.2208 2.58508 -2.40973 -0.362666
119 2 2.2208 5.42963 14.4568 2.46365
130 2 2.2208 2.48224 14.4817 5.22245
104 1 -1.1104 9.36728 18.6528 12.3483
106 2 2.2208 5.34969 17.4138 5.13261
109 1 -1.1104 1.03335 18.7734 1.23774
114 1 -1.1104 0.990834 18.7419 3.82215
116 1 -1.1104 1.22679 16.0827 1.06934
120 2 2.2208 5.39856 20.3247 2.41141
121 1 -1.1104 0.960234 15.8039 3.85179
125 1 -1.1104 3.99008 18.8239 1.23647
127 2 2.2208 2.58732 17.3543 2.41331
129 1 -1.1104 3.8138 18.6525 4.00295
131 2 2.2208 2.22727 20.0985 5.20082
132 1 -1.1104 3.97342 15.7727 0.970523
134 1 -1.1104 3.77823 15.9077 3.76442
126 1 -1.1104 4.08673 18.5794 6.66329
28 2 2.2208 2.57563 -5.31721 2.5155
133 1 -1.1104 3.75242 15.5972 6.79448
9230 2 2.2208 -0.253645 5.93959 5.34269
160 2 2.2208 7.92497 14.4023 5.36256
138 1 -1.1104 6.7106 18.9324 0.925287
122 1 -1.1104 6.91594 15.8924 3.68572
140 1 -1.1104 6.70628 16.0497 0.953523
139 1 -1.1104 6.77833 18.8038 3.65064
112 1 -1.1104 7.02954 18.442 6.42161
150 2 2.2208 10.7562 14.3805 2.57976
141 2 2.2208 11.0535 17.3661 5.26347
144 1 -1.1104 12.2876 18.5538 1.1435
147 1 -1.1104 12.474 18.6661 4.07448
148 1 -1.1104 12.3699 15.7756 1.20565
151 2 2.2208 11.0219 20.0025 2.36837
152 1 -1.1104 12.3154 15.8828 3.76722
155 1 -1.1104 9.52545 18.6397 1.15077
157 2 2.2208 8.21354 17.3996 2.69162
159 1 -1.1104 9.68829 18.7469 3.97162
161 2 2.2208 8.16348 20.029 5.27295
162 1 -1.1104 9.51586 15.9559 1.14147
164 1 -1.1104 9.59241 15.862 3.90225
9144 2 2.2208 -0.303256 11.6728 11.0288
49 1 -1.1104 12.4525 18.5625 9.53774
200 2 2.2208 -0.290751 -2.40195 8.29376
172 1 -1.1104 3.88629 -4.0509 6.71155
174 1 -1.1104 4.04995 -1.25069 6.94162
171 1 -1.1104 6.92093 -1.10776 6.79872
170 1 -1.1104 1.16167 -1.19955 6.74911
199 2 2.2208 -0.366172 3.20733 8.11516
168 1 -1.1104 6.94373 -3.98999 6.81727
175 2 2.2208 5.29526 0.278724 10.9827
176 1 -1.1104 1.02444 -3.88358 12.4369
180 1 -1.1104 0.936558 -4.1036 9.43435
184 1 -1.1104 0.93786 -1.01826 12.5538
186 2 2.2208 5.29156 -2.63912 8.14162
188 1 -1.1104 1.02788 -1.05135 9.57455
190 1 -1.1104 3.90212 -4.03382 12.2139
192 2 2.2208 2.71367 0.255833 8.26723
193 1 -1.1104 3.71547 -4.16106 9.56988
195 2 2.2208 2.48946 -2.66706 11.0778
197 1 -1.1104 3.64013 -1.33843 12.4116
198 1 -1.1104 3.85506 -1.30883 9.68454
182 1 -1.1104 6.67807 -3.98166 9.56665
185 1 -1.1104 6.84431 -0.975157 12.1698
189 1 -1.1104 6.55864 -1.04443 9.4119
178 1 -1.1104 6.60579 -3.82115 12.2876
9235 2 2.2208 -0.187543 14.6317 2.31015
27 1 -1.1104 12.3532 18.767 12.1889
210 1 -1.1104 9.76155 -0.999147 6.45068
208 1 -1.1104 9.76234 -4.0932 6.57763
149 1 -1.1104 12.4464 15.9877 6.70056
205 1 -1.1104 12.436 -4.00636 6.64536
211 2 2.2208 11.0126 0.261425 10.927
212 1 -1.1104 12.3901 -3.8389 12.387
214 1 -1.1104 12.3078 -4.16906 9.40741
216 1 -1.1104 12.3903 -1.0646 12.5061
217 2 2.2208 10.9189 -2.57941 8.06003
219 1 -1.1104 12.2639 -1.13511 9.699
220 1 -1.1104 9.50158 -4.10284 12.1417
222 2 2.2208 8.20035 0.288215 8.28635
223 1 -1.1104 9.45415 -3.92361 9.38325
225 2 2.2208 8.08365 -2.53585 10.8698
227 1 -1.1104 9.66334 -1.3132 12.0982
228 1 -1.1104 9.28217 -1.22577 9.44566
344 2 2.2208 11.1613 5.86293 -0.322412
145 1 -1.1104 12.4182 18.6153 6.71637
239 1 -1.1104 3.94566 4.33335 6.86728
167 1 -1.1104 1.01982 1.7514 6.6361
237 1 -1.1104 6.63783 4.28023 6.69477
238 1 -1.1104 4.07399 6.90764 6.65339
169 1 -1.1104 6.69162 1.58001 6.79847
173 1 -1.1104 4.01329 1.68489 7.04951
314 2 2.2208 5.46304 17.3355 -0.2797
236 1 -1.1104 0.829827 4.45697 6.74408
177 1 -1.1104 1.06572 1.85717 12.4348
181 1 -1.1104 0.88845 1.66657 9.57985
187 2 2.2208 5.54153 2.9715 8.15606
191 1 -1.1104 3.75128 1.77996 12.5707
194 1 -1.1104 3.87852 1.60255 9.72946
196 2 2.2208 2.54005 3.32215 11.062
240 2 2.2208 5.31192 5.94998 10.9478
244 1 -1.1104 1.17879 7.28912 9.36948
246 1 -1.1104 0.935495 4.74289 12.3302
251 1 -1.1104 1.02309 4.55849 9.48157
256 2 2.2208 2.45007 5.75956 8.07148
260 1 -1.1104 3.68005 4.70637 12.5421
262 1 -1.1104 4.03205 4.34906 9.54101
258 1 -1.1104 4.19398 7.44959 9.42901
242 1 -1.1104 1.02003 7.51139 12.2575
255 1 -1.1104 3.8292 7.39724 12.1484
245 1 -1.1104 6.87752 7.31933 9.33817
248 1 -1.1104 6.31796 4.476 12.5212
183 1 -1.1104 6.7884 1.65964 9.69109
243 1 -1.1104 6.76161 7.3086 12.3572
179 1 -1.1104 6.60334 1.70798 12.4221
253 1 -1.1104 6.76528 4.61655 9.54043
209 1 -1.1104 9.42039 1.53028 6.90618
269 1 -1.1104 9.56371 4.38025 6.71236
206 1 -1.1104 12.106 1.76806 6.46632
265 1 -1.1104 12.541 7.15877 6.57482
81 2 2.2208 10.9525 20.205 8.16892
266 1 -1.1104 12.6964 4.41235 6.55574
267 1 -1.1104 9.78508 7.19026 6.64302
215 1 -1.1104 12.6904 1.76812 9.32913
213 1 -1.1104 12.11 1.83497 12.1742
218 2 2.2208 10.9546 3.00511 8.15395
221 1 -1.1104 9.57487 1.45095 12.5354
224 1 -1.1104 9.60446 1.69778 9.6261
226 2 2.2208 8.14168 2.94459 11.0575
268 1 -1.1104 9.45748 4.23029 9.60124
271 1 -1.1104 9.5375 4.44455 12.2629
275 2 2.2208 8.16874 5.76195 8.09508
276 2 2.2208 11.0101 5.734 11.0922
278 1 -1.1104 12.5531 7.22399 12.3254
280 1 -1.1104 12.4793 4.57006 12.4415
283 1 -1.1104 12.2774 4.50908 9.48691
273 1 -1.1104 9.7155 7.06755 9.50531
285 1 -1.1104 9.61204 7.26955 12.4354
279 1 -1.1104 12.4656 7.3703 9.43746
156 1 -1.1104 9.6364 18.6477 6.64686
342 2 2.2208 11.1344 11.7322 -0.249743
78 1 -1.1104 3.95568 9.74593 6.62104
65 1 -1.1104 6.99318 10.1341 6.70564
108 1 -1.1104 0.779807 13.0622 6.71292
241 2 2.2208 5.33893 11.631 10.9529
247 1 -1.1104 1.17381 10.0521 12.4417
250 2 2.2208 5.41342 8.70461 8.05959
252 1 -1.1104 0.995429 10.1054 9.62162
257 2 2.2208 2.4416 11.6738 8.1846
259 2 2.2208 2.38325 8.6978 10.8445
261 1 -1.1104 3.95389 10.1822 12.3369
263 1 -1.1104 3.71322 10.0953 9.42625
287 1 -1.1104 4.02741 12.9228 12.5632
294 1 -1.1104 1.15959 13.0747 9.59636
299 1 -1.1104 1.08566 13.0404 12.2435
305 1 -1.1104 3.8517 12.9716 9.66415
254 1 -1.1104 6.58579 10.1811 9.67287
297 1 -1.1104 6.83337 13.0393 12.386
290 1 -1.1104 6.44438 13.0584 9.58114
249 1 -1.1104 6.69006 10.2788 12.6259
310 2 2.2208 2.37176 14.2462 10.8972
229 2 2.2208 8.18914 20.3541 11.0825
111 1 -1.1104 6.77765 13.203 6.86719
101 1 -1.1104 9.68991 10.0881 6.81242
154 1 -1.1104 9.49249 12.9811 6.64615
143 1 -1.1104 12.3097 12.928 6.81548
135 1 -1.1104 9.47017 12.813 9.69882
83 1 -1.1104 9.7866 13.0242 12.3875
264 1 -1.1104 9.37826 10.1528 9.60058
270 1 -1.1104 9.53172 10.1874 12.3361
272 2 2.2208 7.98214 8.75828 10.9718
274 2 2.2208 8.18912 11.6056 8.05994
277 2 2.2208 10.8764 11.4687 10.9743
281 1 -1.1104 12.1723 10.1151 12.5863
282 2 2.2208 11.1852 8.41569 8.04587
284 1 -1.1104 12.3878 10.1955 9.77632
26 1 -1.1104 12.3628 12.8824 12.4172
30 1 -1.1104 12.1766 13.0415 9.46913
50 1 -1.1104 12.2994 15.7809 12.1614
9232 2 2.2208 -0.275258 11.9623 5.23523
302 1 -1.1104 1.05806 18.5787 6.69767
117 1 -1.1104 1.26852 15.9215 6.68179
118 1 -1.1104 6.55457 15.919 6.49552
295 2 2.2208 5.02846 14.309 8.19355
307 1 -1.1104 1.14215 15.8169 12.3095
309 2 2.2208 2.39867 20.1288 11.0246
308 1 -1.1104 4.01737 15.7158 12.2593
286 1 -1.1104 3.86926 18.9361 12.3039
291 1 -1.1104 0.985765 18.571 9.43524
292 1 -1.1104 1.13043 16.038 9.33325
293 2 2.2208 5.17826 20.0678 8.20923
298 1 -1.1104 1.04172 18.757 12.452
300 2 2.2208 5.44033 17.2358 10.8347
301 1 -1.1104 4.0473 18.7092 9.56615
303 2 2.2208 2.5006 17.3152 8.05026
304 1 -1.1104 3.85714 15.8307 9.55387
289 1 -1.1104 6.66416 15.8888 9.46164
306 1 -1.1104 6.91029 15.9054 12.1791
9254 2 2.2208 -0.160461 11.6761 -0.314699
9151 2 2.2208 -0.188041 8.9503 7.9567
288 1 -1.1104 6.90437 18.6585 9.72784
296 1 -1.1104 6.8197 18.7175 12.4632
137 1 -1.1104 9.64614 18.7015 9.36924
233 1 -1.1104 9.45988 15.5099 9.49382
163 1 -1.1104 9.56167 15.7412 6.78362
53 2 2.2208 10.8686 14.3181 8.15448
25 2 2.2208 10.9027 17.3252 10.8434
230 1 -1.1104 9.46962 15.933 12.3155
82 1 -1.1104 12.3 15.7362 9.39177
105 2 2.2208 8.1636 17.2952 7.93925
165 2 2.2208 8.08934 14.2737 10.8937
315 2 2.2208 2.31594 20.15 -0.306865
327 2 2.2208 8.03883 5.93634 13.6637
338 2 2.2208 2.75574 3.24868 -0.280198
336 2 2.2208 5.42667 0.302463 -0.34386
318 2 2.2208 8.20946 14.5705 -0.266302
9243 2 2.2208 -0.309808 17.2062 10.9281
345 2 2.2208 5.45749 5.98802 -0.241672
9251 2 2.2208 -0.34997 6.1274 -0.276681
346 2 2.2208 2.5878 8.78371 -0.284127
339 2 2.2208 11.1361 0.475911 -0.448117
9242 2 2.2208 -0.443163 14.4261 8.30517
136 2 2.2208 -0.397803 20.278 2.37798
324 2 2.2208 2.36997 6.2023 13.6767
9263 2 2.2208 -0.177343 0.320282 -0.334266
9224 2 2.2208 -0.254433 0.294272 5.40309
232 2 2.2208 11.0243 -5.3956 10.9336
202 2 2.2208 2.53029 -5.38412 8.09215
325 2 2.2208 5.23367 8.71518 13.6681
313 2 2.2208 2.56754 14.3756 -0.322565
335 2 2.2208 8.06749 17.2078 13.6562
341 2 2.2208 8.27853 3.22946 -0.355648
348 2 2.2208 5.17942 0.360263 16.6367
349 1 -1.1104 1.12173 -3.99016 17.8801
353 1 -1.1104 1.20089 -3.98316 15.1706
361 1 -1.1104 1.37016 -1.40796 18.2409
363 2 2.2208 5.43993 -2.46259 19.4297
365 1 -1.1104 0.947753 -1.14801 15.3295
369 1 -1.1104 4.1676 -3.78377 17.8453
371 2 2.2208 2.46578 0.172731 19.48
372 1 -1.1104 3.94568 -3.931 14.9387
376 2 2.2208 2.62573 -2.50597 16.5521
378 1 -1.1104 3.96586 -1.03844 18.1018
379 1 -1.1104 3.96798 -1.01973 15.2512
354 1 -1.1104 1.18681 -3.78326 20.6105
351 1 -1.1104 7.02165 -4.01884 18.0794
357 1 -1.1104 6.90644 -3.86139 15.2167
367 1 -1.1104 6.56962 -0.917573 15.1719
373 1 -1.1104 3.80599 -3.88127 20.7185
582 2 2.2208 2.4902 -5.30783 24.9745
9266 2 2.2208 13.6759 17.2719 13.6866
381 2 2.2208 -0.269582 -5.40907 16.462
362 1 -1.1104 6.70897 -1.10328 18.0318
331 2 2.2208 5.26375 19.9183 13.707
391 2 2.2208 11.0001 0.384475 16.7015
392 1 -1.1104 12.5139 -3.89248 18.039
394 1 -1.1104 12.4105 -4.02771 15.1388
398 1 -1.1104 12.214 -1.02252 18.1405
399 2 2.2208 11.0441 -2.5571 19.6027
401 1 -1.1104 12.1788 -1.22629 15.1538
403 1 -1.1104 9.84237 -3.97301 18.1412
405 2 2.2208 8.14371 0.387185 19.4337
406 1 -1.1104 9.55687 -3.7345 15.3299
410 2 2.2208 8.26581 -2.45511 16.6288
412 1 -1.1104 9.41512 -0.964698 17.8896
413 1 -1.1104 9.47723 -1.12302 14.8769
416 2 2.2208 10.9939 -5.38214 16.5102
9404 2 2.2208 -0.131841 11.7022 16.5966
9368 2 2.2208 -0.115983 8.89087 25.0195
383 2 2.2208 2.54293 -5.22877 19.2378
9324 2 2.2208 -0.138167 17.2119 22.2151
9470 2 2.2208 13.5929 20.2161 16.4577
330 2 2.2208 2.60096 17.1985 13.7534
374 1 -1.1104 3.83114 1.76417 15.2855
370 1 -1.1104 3.83348 2.02808 18.1174
350 1 -1.1104 1.07047 1.55449 18.0024
355 1 -1.1104 1.01169 1.71806 15.4287
364 2 2.2208 5.1954 3.33507 19.4405
377 2 2.2208 2.53472 3.30829 16.4654
424 2 2.2208 5.37924 6.12418 16.5431
428 1 -1.1104 0.921231 7.56141 15.0652
432 1 -1.1104 0.89786 4.63821 18.1121
437 1 -1.1104 1.0853 4.53509 15.1213
445 1 -1.1104 3.78851 7.5113 17.9885
446 2 2.2208 2.49237 5.89006 19.584
448 1 -1.1104 3.86109 7.23931 14.9714
451 1 -1.1104 3.58275 4.81562 18.048
453 1 -1.1104 4.02381 4.62753 15.1889
426 1 -1.1104 0.906868 7.58997 17.8557
454 1 -1.1104 4.00124 4.76139 20.9191
427 1 -1.1104 6.97554 7.62202 18.0599
434 1 -1.1104 6.50904 4.81439 18.0173
430 1 -1.1104 6.80728 7.34582 15.0975
449 1 -1.1104 3.73279 7.36794 20.877
431 1 -1.1104 6.59748 7.48632 21.0203
359 1 -1.1104 6.79555 1.85491 15.2443
441 1 -1.1104 6.83414 4.7524 15.2026
334 2 2.2208 10.9457 14.5174 13.6715
417 2 2.2208 8.23653 -5.36446 19.3885
375 1 -1.1104 3.99889 1.8979 20.7477
9366 2 2.2208 -0.368289 3.16294 19.3213
352 1 -1.1104 6.76894 1.81646 17.9866
404 1 -1.1104 9.54323 1.908 18.0851
393 1 -1.1104 12.243 1.75949 17.9594
396 1 -1.1104 12.3227 1.65033 15.0997
400 2 2.2208 11.0471 3.28854 19.5267
408 1 -1.1104 9.5301 1.7495 14.9893
411 2 2.2208 8.12467 3.24468 16.7179
460 2 2.2208 11.0966 6.03828 16.5008
462 1 -1.1104 12.6128 7.37575 17.9099
465 1 -1.1104 12.4268 4.51879 18.2322
468 1 -1.1104 12.4502 4.68254 15.1174
472 1 -1.1104 9.80165 7.31313 17.9685
473 2 2.2208 8.17337 6.02121 19.5912
475 1 -1.1104 9.59663 7.29242 15.1708
478 1 -1.1104 9.56671 4.38196 18.0424
480 1 -1.1104 9.56807 4.52007 15.1048
463 1 -1.1104 12.5208 7.50414 15.1056
469 1 -1.1104 12.3588 4.65697 20.7055
610 2 2.2208 11.0066 -5.22768 22.2233
425 2 2.2208 5.44619 11.6779 16.7086
433 1 -1.1104 1.14925 10.3788 18.0638
436 2 2.2208 5.52363 8.7991 19.3003
439 1 -1.1104 1.33078 10.4446 15.1944
447 2 2.2208 2.63168 11.5827 19.5433
450 2 2.2208 2.37321 8.81066 16.618
452 1 -1.1104 4.18448 10.1289 18.024
455 1 -1.1104 3.99436 10.0041 15.0446
488 1 -1.1104 1.29173 13.1541 18.0304
492 1 -1.1104 1.16645 13.1286 15.3816
508 1 -1.1104 3.93932 12.8182 18.024
511 1 -1.1104 4.12005 12.959 15.3396
512 1 -1.1104 4.1648 13.1594 20.9438
435 1 -1.1104 6.89438 10.4546 17.9794
443 1 -1.1104 6.61385 10.4354 15.3626
496 1 -1.1104 6.83285 13.1168 15.1405
444 1 -1.1104 6.92457 10.1129 20.6585
440 1 -1.1104 1.25282 10.2562 20.8036
317 2 2.2208 5.3795 3.08551 14.0162
9466 2 2.2208 13.6685 17.5457 25.0286
490 1 -1.1104 6.80604 13.1162 17.9046
461 2 2.2208 10.9822 11.519 16.7381
466 1 -1.1104 12.3312 10.2812 18.0648
467 2 2.2208 11.0228 8.82884 19.6043
470 1 -1.1104 12.3552 10.3455 15.4184
474 2 2.2208 8.19155 11.7316 19.3767
477 2 2.2208 8.25508 8.86293 16.638
479 1 -1.1104 9.82733 10.1891 18.1862
482 1 -1.1104 9.5069 10.2498 15.2887
524 1 -1.1104 12.627 12.9514 17.904
526 1 -1.1104 12.3628 13.0467 15.0989
535 1 -1.1104 9.60119 12.9903 17.8877
538 1 -1.1104 9.74318 13.0105 15.3644
328 2 2.2208 10.8613 8.81227 13.7742
322 2 2.2208 10.9095 -2.57327 13.7023
419 1 -1.1104 6.7818 15.7091 23.7012
9248 2 2.2208 13.5997 0.400004 13.7224
502 2 2.2208 5.37258 14.5045 19.4172
515 2 2.2208 2.63336 14.5816 16.5533
487 2 2.2208 5.33095 17.2214 16.5758
489 1 -1.1104 1.09913 18.7487 18.1355
494 1 -1.1104 1.03437 18.7824 15.3541
500 1 -1.1104 1.30458 15.951 18.1589
503 2 2.2208 5.40906 20.0019 19.3384
504 1 -1.1104 1.09373 15.9022 15.0663
509 1 -1.1104 4.00192 18.6083 17.8685
510 2 2.2208 2.57589 17.3726 19.4644
513 1 -1.1104 3.99493 18.2955 14.9853
516 2 2.2208 2.5772 20.1291 16.6838
517 1 -1.1104 4.02669 15.8157 18.0581
518 1 -1.1104 3.96366 15.7067 14.9523
506 1 -1.1104 6.69832 15.6819 15.0103
499 1 -1.1104 6.66568 18.666 20.7336
507 1 -1.1104 6.71225 15.8988 20.7079
586 2 2.2208 11.0503 14.5692 25.2102
519 1 -1.1104 3.78569 15.8573 20.865
505 1 -1.1104 1.17357 15.8803 20.786
531 2 2.2208 11.2082 14.4832 19.2823
326 2 2.2208 2.66502 11.5614 13.7859
501 1 -1.1104 6.68424 15.8126 17.7791
498 1 -1.1104 6.68974 18.6813 15.3414
491 1 -1.1104 6.64524 18.5759 17.9743
9469 2 2.2208 13.6185 17.3133 19.3898
542 2 2.2208 8.16215 14.4441 16.5725
523 2 2.2208 10.8348 17.1734 16.6146
525 1 -1.1104 12.0722 18.7034 18.0425
528 1 -1.1104 12.1813 18.7584 15.4363
530 1 -1.1104 12.3127 15.8825 18.069
532 2 2.2208 10.975 20.2816 19.3266
533 1 -1.1104 12.2079 15.9081 15.0308
536 1 -1.1104 9.51846 18.7585 17.995
537 2 2.2208 7.99754 17.4826 19.4074
540 1 -1.1104 9.44761 18.7222 14.939
543 2 2.2208 7.93851 20.1576 16.6046
544 1 -1.1104 9.4288 15.983 17.9035
545 1 -1.1104 9.46545 15.7145 15.0983
541 1 -1.1104 9.60669 18.9812 20.878
329 2 2.2208 8.13433 11.6392 13.9133
366 1 -1.1104 0.953174 -1.17445 20.944
368 1 -1.1104 6.80279 -0.832672 20.8238
380 1 -1.1104 4.00723 -1.17311 20.947
385 2 2.2208 -0.210524 -2.39554 19.3477
9508 2 2.2208 -0.183094 19.9842 19.3569
9510 2 2.2208 -0.304754 17.212 16.6213
332 2 2.2208 5.4515 14.3184 13.7746
551 2 2.2208 5.22739 0.369653 22.2603
552 1 -1.1104 1.20461 -3.81611 23.6541
556 1 -1.1104 1.27246 -3.78862 26.4016
560 1 -1.1104 1.11796 -1.06751 23.7547
562 2 2.2208 5.24851 -2.47684 25.1969
564 1 -1.1104 1.23359 -1.08485 26.5502
566 1 -1.1104 3.97127 -3.8325 23.6578
568 2 2.2208 2.45138 0.222563 25.2038
569 1 -1.1104 3.84389 -3.98196 26.3178
571 2 2.2208 2.47283 -2.60696 22.1938
573 1 -1.1104 4.01384 -1.15311 23.8743
574 1 -1.1104 3.96925 -1.07795 26.5496
558 1 -1.1104 6.46746 -4.07022 26.5115
565 1 -1.1104 6.86715 -1.12603 26.4245
554 1 -1.1104 6.69469 -3.82437 23.7836
612 1 -1.1104 12.4724 16.0051 26.3271
323 2 2.2208 10.9593 3.01734 13.736
358 1 -1.1104 6.60912 -3.99836 20.87
534 1 -1.1104 12.1886 15.9931 20.8908
407 1 -1.1104 9.41175 -4.10163 21.0612
395 1 -1.1104 12.5919 -4.12534 20.8818
402 1 -1.1104 12.6026 -1.18949 20.844
414 1 -1.1104 9.65119 -1.24471 20.7474
561 1 -1.1104 6.78171 -0.990728 23.8591
587 2 2.2208 11.1477 0.333842 22.1462
588 1 -1.1104 12.4218 -3.86885 23.6629
590 1 -1.1104 12.1624 -3.96885 26.3848
592 1 -1.1104 12.4857 -1.14008 23.3998
593 2 2.2208 10.991 -2.59059 24.8675
595 1 -1.1104 12.1778 -1.08515 26.3207
596 1 -1.1104 9.64113 -3.81863 23.5752
598 2 2.2208 8.33586 0.306699 25.0285
599 1 -1.1104 9.35415 -3.67098 26.3411
601 2 2.2208 8.15521 -2.64334 22.3242
603 1 -1.1104 9.62715 -1.13502 23.5758
604 1 -1.1104 9.47574 -0.895257 26.6194
347 2 2.2208 5.48494 11.5649 27.7267
320 2 2.2208 8.00734 20.1551 27.6655
356 1 -1.1104 1.09644 1.51897 20.9089
442 1 -1.1104 6.7039 4.72658 20.8953
438 1 -1.1104 1.13398 4.45394 21.0499
429 1 -1.1104 1.10216 7.58565 20.9417
553 1 -1.1104 1.25516 1.78579 23.6723
557 1 -1.1104 1.34063 1.84772 26.4928
563 2 2.2208 5.46643 3.32601 25.1745
567 1 -1.1104 3.86553 1.71153 23.6576
570 1 -1.1104 3.91006 1.79623 26.4982
572 2 2.2208 2.35636 3.1011 22.0855
616 2 2.2208 5.26607 5.95378 22.275
618 1 -1.1104 1.03936 7.23587 23.9009
620 1 -1.1104 1.16283 7.62213 26.6337
622 1 -1.1104 1.11732 4.50704 23.6687
627 1 -1.1104 1.03583 4.8166 26.515
632 2 2.2208 2.69765 5.90878 25.1242
636 1 -1.1104 4.07999 4.5361 23.7154
638 1 -1.1104 4.08543 4.65636 26.6002
631 1 -1.1104 3.86259 7.47661 23.6326
634 1 -1.1104 3.97632 7.36411 26.3932
629 1 -1.1104 6.88345 4.56668 26.5532
624 1 -1.1104 6.75439 4.70891 23.8397
621 1 -1.1104 6.95422 7.48409 26.4695
555 1 -1.1104 6.8637 1.7096 23.8196
559 1 -1.1104 6.85249 1.89169 26.4776
360 1 -1.1104 6.64313 1.82802 21.1063
409 1 -1.1104 9.51791 1.62011 20.8819
476 1 -1.1104 9.59535 7.57201 20.7012
481 1 -1.1104 9.31171 4.47254 20.9189
397 1 -1.1104 12.3795 1.67704 20.8363
464 1 -1.1104 12.3587 7.34427 20.7325
9402 2 2.2208 -0.270892 -5.27863 22.2629
619 1 -1.1104 6.56746 7.52482 23.5931
589 1 -1.1104 12.526 1.80735 23.6002
600 1 -1.1104 9.57268 1.88673 26.3709
591 1 -1.1104 12.643 1.79905 26.5298
594 2 2.2208 11.0598 3.27123 24.9041
597 1 -1.1104 9.77477 1.79917 23.5741
602 2 2.2208 8.2584 3.15476 22.37
607 1 -1.1104 9.50662 7.51997 23.5733
641 1 -1.1104 12.5798 4.61343 26.4741
648 1 -1.1104 9.7764 4.66824 26.6
650 1 -1.1104 9.615 4.58199 23.5529
654 2 2.2208 8.23 6.09083 25.0613
655 2 2.2208 10.9573 6.01659 22.2696
659 1 -1.1104 12.5876 4.64704 23.5457
652 1 -1.1104 9.75027 7.34664 26.4911
658 1 -1.1104 12.4243 7.49459 26.4129
657 1 -1.1104 12.3462 7.41342 23.7713
9278 2 2.2208 -0.181824 14.3921 13.912
493 1 -1.1104 1.17543 13.1131 20.6462
456 1 -1.1104 4.24386 10.2908 20.9811
497 1 -1.1104 6.8916 12.8956 20.8267
617 2 2.2208 5.55694 11.6198 22.3422
623 1 -1.1104 1.43175 10.27 23.5351
626 2 2.2208 5.42932 8.83584 24.9004
628 1 -1.1104 1.31125 10.3375 26.5848
633 2 2.2208 2.53734 11.6635 25.1187
635 2 2.2208 2.7172 8.9421 22.1242
637 1 -1.1104 4.23538 10.4236 23.6501
639 1 -1.1104 4.09229 10.0753 26.3158
420 1 -1.1104 4.0662 12.9375 26.4994
458 1 -1.1104 0.990194 13.0198 23.5311
521 1 -1.1104 1.21241 12.9912 26.4858
549 1 -1.1104 3.73784 13.1363 23.8659
575 1 -1.1104 6.84014 13.1847 26.3629
625 1 -1.1104 6.95171 10.3594 23.6802
606 2 2.2208 8.11197 19.9906 22.263
382 2 2.2208 5.49299 -5.23647 16.6321
539 1 -1.1104 9.7022 13.2456 20.6911
483 1 -1.1104 9.61817 10.3469 20.9044
646 2 2.2208 8.10985 14.5439 22.1882
630 1 -1.1104 6.99128 10.1676 26.4291
484 1 -1.1104 6.93712 13.0075 23.6593
527 1 -1.1104 12.6455 12.9042 20.8234
471 1 -1.1104 12.6471 10.1885 20.8369
9400 2 2.2208 -0.203651 0.417981 22.4431
644 1 -1.1104 9.71379 13.1124 26.671
640 1 -1.1104 12.5312 10.5312 26.5458
642 2 2.2208 10.9139 8.77571 25.0598
647 1 -1.1104 9.68964 10.2872 26.6189
649 1 -1.1104 9.7148 10.4567 23.7394
651 2 2.2208 8.13857 8.95551 22.2931
653 2 2.2208 8.20053 11.7799 25.2262
656 2 2.2208 11.1429 11.7684 22.1812
660 1 -1.1104 12.5185 10.3111 23.5359
578 1 -1.1104 12.2882 13.0536 23.7352
583 1 -1.1104 12.3525 13.2272 26.6703
613 1 -1.1104 9.46846 13.4011 23.5546
9401 2 2.2208 -0.272641 -2.46867 25.2223
609 2 2.2208 10.9658 -5.43286 27.7418
495 1 -1.1104 1.13913 18.7318 20.9338
485 2 2.2208 5.13332 14.4997 25.0408
514 1 -1.1104 3.81525 18.7467 20.6854
388 2 2.2208 2.41652 14.4534 22.1641
520 1 -1.1104 6.55585 18.5108 23.5671
522 1 -1.1104 1.2177 15.9187 26.4927
415 1 -1.1104 1.04429 15.8368 23.5981
486 2 2.2208 5.06928 20.0411 25.0859
422 2 2.2208 2.48858 17.3546 25.014
423 1 -1.1104 3.73441 18.747 26.514
457 2 2.2208 5.21858 17.2657 22.2152
421 1 -1.1104 3.7579 15.8365 26.3529
547 1 -1.1104 1.14485 18.7589 26.5985
576 1 -1.1104 3.78384 18.7675 23.5524
459 1 -1.1104 1.16012 18.7704 23.596
389 2 2.2208 2.36872 20.2724 22.232
390 1 -1.1104 3.76969 15.9738 23.5246
605 1 -1.1104 9.52039 16.0865 23.6945
608 2 2.2208 11.1442 20.2821 25.0734
579 1 -1.1104 12.1712 18.6096 23.6426
643 1 -1.1104 6.53229 18.7563 26.4197
546 1 -1.1104 9.53595 16.0463 20.7546
529 1 -1.1104 12.4512 18.8367 20.8044
615 2 2.2208 8.13585 17.3763 24.9209
585 1 -1.1104 12.5025 15.7107 23.6817
584 1 -1.1104 12.2785 18.7416 26.595
577 1 -1.1104 9.63491 15.9769 26.6187
550 2 2.2208 10.8663 17.3071 22.2324
614 1 -1.1104 9.43248 18.8511 23.6782
548 1 -1.1104 6.72501 15.9208 26.5082
645 1 -1.1104 9.36661 18.6226 26.6549
9617 2 2.2208 -0.284021 5.96863 22.4437
9279 2 2.2208 -0.192154 20.1544 13.9189
9439 2 2.2208 -0.262075 5.92901 16.6163
9438 2 2.2208 -0.323971 8.71108 19.5371
387 2 2.2208 2.60296 -5.26476 13.6656
9509 2 2.2208 -0.168848 14.561 19.4829
9396 2 2.2208 -0.286058 3.13159 25.2632
581 2 2.2208 5.30942 -5.21444 22.2961
9325 2 2.2208 -0.208287 14.5419 25.1381
321 2 2.2208 7.96581 0.276265 13.8111
333 2 2.2208 10.8915 19.9807 13.8363
316 2 2.2208 2.31578 0.399904 13.8323
9367 2 2.2208 -0.206126 11.7251 22.2189
9323 2 2.2208 13.6155 3.45993 16.5589
661 2 2.2208 5.19429 23.0027 5.39221
663 1 -1.1104 0.942106 24.2512 1.13899
664 1 -1.1104 0.799325 24.4363 3.94271
667 2 2.2208 5.27718 25.9403 2.55642
670 1 -1.1104 3.70818 24.3341 0.866166
671 2 2.2208 2.42147 23.0256 2.45774
673 1 -1.1104 3.80234 24.2739 3.78882
674 2 2.2208 2.28722 25.5848 5.48088
675 1 -1.1104 3.76702 21.417 1.09244
677 1 -1.1104 4.06348 21.649 3.88403
665 1 -1.1104 0.937473 21.6082 1.06247
668 1 -1.1104 1.19962 21.6643 3.85694
678 1 -1.1104 3.7628 26.9546 4.28101
666 1 -1.1104 1.01079 26.9175 1.19431
808 1 -1.1104 3.74853 24.437 6.75903
684 1 -1.1104 6.5108 21.5989 0.907175
676 1 -1.1104 3.83554 27.0564 0.964458
686 1 -1.1104 6.85417 21.5959 3.71097
685 1 -1.1104 6.59313 27.3815 1.00112
669 1 -1.1104 1.0576 27.2164 4.00042
984 2 2.2208 2.12259 39.8861 13.6702
938 1 -1.1104 6.48424 41.1492 9.5183
687 1 -1.1104 6.59131 27.0536 3.83837
683 1 -1.1104 6.46142 24.2737 4.14255
682 1 -1.1104 6.66587 24.3264 1.16839
695 1 -1.1104 12.155 21.6864 3.66566
688 2 2.2208 10.7468 22.9021 5.28529
690 1 -1.1104 12.2156 24.3365 1.1839
691 1 -1.1104 11.9672 24.4279 4.20092
692 1 -1.1104 12.0419 21.411 0.864288
694 2 2.2208 10.7805 25.7452 2.51976
697 1 -1.1104 9.49314 24.3907 1.10206
698 2 2.2208 8.23585 22.8328 2.38376
700 1 -1.1104 9.2353 24.3857 3.9173
701 2 2.2208 7.8661 25.6746 5.37205
702 1 -1.1104 9.54527 21.6031 1.08361
704 1 -1.1104 9.41617 21.4712 3.92374
703 1 -1.1104 9.32609 27.0763 0.980549
693 1 -1.1104 12.0278 27.1534 0.948935
705 1 -1.1104 9.51777 27.1586 3.98238
835 1 -1.1104 12.8119 24.3994 6.83874
696 1 -1.1104 12.3953 27.0662 3.71554
730 1 -1.1104 11.9267 41.5887 9.70625
1002 2 2.2208 10.8438 34.2169 -0.42318
836 1 -1.1104 12.3997 21.473 6.69621
994 2 2.2208 7.94272 25.7929 -0.361034
999 2 2.2208 5.10792 34.3927 -0.452786
662 2 2.2208 4.98209 28.5266 5.49546
672 2 2.2208 2.26764 28.4874 2.45338
710 1 -1.1104 1.10039 29.736 0.844304
713 1 -1.1104 0.974456 29.8657 3.84761
716 1 -1.1104 1.07613 32.6046 1.28403
717 2 2.2208 5.2037 31.2213 2.47331
719 1 -1.1104 0.748406 32.751 3.91479
721 1 -1.1104 3.74216 29.86 1.06078
724 1 -1.1104 3.73529 29.7868 3.97457
726 2 2.2208 2.25813 31.2143 5.24125
728 1 -1.1104 4.0017 33.0081 1.00291
729 1 -1.1104 3.7978 32.5745 3.54592
720 1 -1.1104 6.42604 32.7917 3.90822
733 1 -1.1104 6.52833 30.1467 0.943184
734 1 -1.1104 6.70191 29.9137 3.65928
9964 2 2.2208 13.5937 45.5405 2.42924
867 1 -1.1104 3.70075 32.724 6.54489
9979 2 2.2208 13.5663 37.1736 -0.404841
9740 2 2.2208 13.507 42.6427 5.21278
735 1 -1.1104 6.74339 32.9419 1.00956
864 1 -1.1104 6.59983 32.823 6.66465
689 2 2.2208 10.8059 28.5029 5.16685
699 2 2.2208 8.0375 28.6447 2.28393
737 1 -1.1104 12.2242 29.9623 0.929863
739 1 -1.1104 12.108 29.8853 3.80004
741 1 -1.1104 12.2998 32.77 1.01741
742 2 2.2208 10.9647 31.3021 2.38708
744 1 -1.1104 12.1929 32.7921 3.66958
745 1 -1.1104 9.32599 30.0654 0.872094
748 1 -1.1104 9.2998 29.7639 3.81464
750 2 2.2208 7.97276 31.3011 5.26044
752 1 -1.1104 9.45248 32.7567 1.0929
753 1 -1.1104 9.64518 32.4372 3.89226
895 1 -1.1104 12.2721 32.8527 6.56881
898 1 -1.1104 9.29273 32.8109 6.53453
9967 2 2.2208 -0.352313 42.6429 7.97457
1508 1 -1.1104 6.32576 46.6551 12.2024
967 2 2.2208 5.15746 25.8476 13.6821
893 1 -1.1104 12.3013 29.9951 6.5931
896 1 -1.1104 9.48534 29.9209 6.64522
1313 1 -1.1104 0.995746 46.8178 3.80655
709 2 2.2208 5.16607 34.2805 5.16263
723 2 2.2208 2.21377 34.1376 2.51996
711 1 -1.1104 0.873182 35.4219 1.23539