ITEM: TIMESTEP
40000
ITEM: NUMBER OF ATOMS
17760
ITEM: BOX BOUNDS pp pp pp
-4.6552991453485498e-01 2.7805529914534766e+01
-5.5729730690794366e+00 3.3365297306906990e+02
-4.5398136137207296e-01 2.7793981361372385e+01
ITEM: ATOMS id type q x y z
1 2 2.2208 4.76139 -0.217074 5.03726
2 1 -1.1104 0.352647 -4.10424 0.855351
6 1 -1.1104 0.360639 -4.27803 3.69959
10 1 -1.1104 0.198068 -1.4959 0.801732
12 2 2.2208 4.86836 -2.88407 2.47052
14 1 -1.1104 0.599045 -1.17461 3.5871
16 1 -1.1104 3.19252 -4.13524 0.902187
18 2 2.2208 1.90363 -0.15312 2.08294
19 1 -1.1104 3.42218 -4.35762 3.84199
21 2 2.2208 1.88962 -2.84476 5.15652
23 1 -1.1104 3.16058 -1.28155 0.673608
24 1 -1.1104 3.24148 -1.547 3.61107
8 1 -1.1104 6.06989 -4.29511 3.64856
11 1 -1.1104 5.93795 -1.54483 0.957598
171 1 -1.1104 5.9905 -1.48088 6.66618
174 1 -1.1104 3.31341 -1.51115 6.58974
4 1 -1.1104 6.26457 -4.01505 0.988585
170 1 -1.1104 0.583279 -1.46663 6.58482
166 1 -1.1104 0.539819 -4.44778 6.3409
172 1 -1.1104 3.46323 -4.16431 6.64748
15 1 -1.1104 6.13534 -1.38939 3.66553
168 1 -1.1104 6.15913 -4.31877 6.5922
28 2 2.2208 1.83108 -5.39358 2.45425
327 2 2.2208 7.60247 5.3172 13.5604
31 2 2.2208 10.3013 -0.29815 5.02521
32 1 -1.1104 11.8628 -4.3189 0.987103
34 1 -1.1104 11.8273 -4.57808 3.69713
36 1 -1.1104 11.8757 -1.6114 0.912621
37 2 2.2208 10.4183 -3.09066 2.19857
39 1 -1.1104 11.7739 -1.64076 3.77104
40 1 -1.1104 8.79455 -4.26695 0.748647
42 2 2.2208 7.65295 -0.116701 2.19199
43 1 -1.1104 8.98784 -4.36774 3.53823
45 2 2.2208 7.5984 -2.862 4.9993
47 1 -1.1104 9.01509 -1.62148 0.86941
48 1 -1.1104 9.11087 -1.64347 3.6836
205 1 -1.1104 12.0211 -4.47645 6.50682
207 1 -1.1104 11.6437 -1.5548 6.59506
208 1 -1.1104 9.04575 -4.68639 6.48255
9227 2 2.2208 13.1622 -0.0143711 2.31389
9228 2 2.2208 13.2483 -3.01629 5.11978
333 2 2.2208 10.763 19.7576 13.2617
17 1 -1.1104 3.1282 1.37428 0.77991
3 1 -1.1104 0.363697 1.21034 0.658685
7 1 -1.1104 0.448808 1.40624 3.46929
13 2 2.2208 4.64383 2.63701 2.2413
20 1 -1.1104 3.41986 1.30129 3.70864
22 2 2.2208 1.98009 2.71995 4.98502
54 2 2.2208 4.71372 5.55952 5.05801
56 1 -1.1104 0.683092 7.15609 0.924976
60 1 -1.1104 0.588098 4.09097 0.87273
67 1 -1.1104 0.44948 4.25822 3.51468
71 1 -1.1104 3.46831 7.14088 0.60861
72 2 2.2208 1.9462 5.51269 2.03273
76 1 -1.1104 3.46204 4.14051 0.648296
79 1 -1.1104 3.39024 4.10333 3.50965
58 1 -1.1104 0.662655 6.89236 3.51043
239 1 -1.1104 3.2634 3.87472 6.52023
235 1 -1.1104 6.12831 7.08329 6.30254
63 1 -1.1104 6.31531 3.9979 0.759757
57 1 -1.1104 6.04074 6.87196 0.864019
74 1 -1.1104 3.45277 6.88047 3.38973
234 1 -1.1104 0.582091 7.27069 6.51134
9 1 -1.1104 6.04993 1.17611 3.4023
173 1 -1.1104 3.28157 1.04758 6.63959
238 1 -1.1104 3.51584 6.75602 6.4834
167 1 -1.1104 0.392688 1.20235 6.34495
237 1 -1.1104 6.16333 4.13802 6.49366
5 1 -1.1104 6.28795 1.23571 0.673847
59 1 -1.1104 6.09983 7.02746 3.3664
169 1 -1.1104 6.10938 1.16561 6.39096
69 1 -1.1104 6.09508 4.13032 3.87852
44 1 -1.1104 8.96597 1.11521 3.62339
33 1 -1.1104 11.6976 1.32505 1.06071
35 1 -1.1104 11.8069 1.29107 3.84866
38 2 2.2208 10.4027 2.5778 2.28342
41 1 -1.1104 8.9168 1.30399 0.779935
46 2 2.2208 7.68631 2.51219 4.93957
84 2 2.2208 10.3328 5.4769 5.19986
88 1 -1.1104 11.9486 4.23922 0.674713
92 1 -1.1104 11.855 3.81498 3.49731
95 2 2.2208 7.48638 5.41073 2.09871
97 1 -1.1104 8.97064 7.05221 3.58797
99 1 -1.1104 9.08205 4.1499 0.742244
102 1 -1.1104 9.02283 4.09706 3.68631
87 1 -1.1104 11.8194 6.47395 3.67603
94 1 -1.1104 9.05165 6.97018 0.775006
86 1 -1.1104 11.8954 7.05078 0.830268
209 1 -1.1104 9.00578 1.28991 6.32553
267 1 -1.1104 8.84713 6.85764 6.26915
206 1 -1.1104 11.7423 1.56936 6.61495
269 1 -1.1104 9.06217 3.97292 6.55221
265 1 -1.1104 11.5065 7.04463 6.51609
8922 2 2.2208 13.253 2.70466 5.1087
266 1 -1.1104 12.1629 4.30685 6.53865
9234 2 2.2208 13.0999 5.50576 2.26251
323 2 2.2208 10.4108 2.77294 13.6216
55 2 2.2208 4.80227 11.1334 4.9106
61 1 -1.1104 0.660293 10.107 0.475922
66 2 2.2208 4.70566 8.46429 2.19115
68 1 -1.1104 0.674562 9.85705 3.6421
73 2 2.2208 2.01882 11.5288 2.06288
75 2 2.2208 1.89561 8.4252 5.02326
77 1 -1.1104 3.1576 9.86926 0.900782
80 1 -1.1104 3.34227 9.87826 3.64499
107 1 -1.1104 0.555865 12.8258 0.753736
113 1 -1.1104 0.5641 13.035 3.33256
123 1 -1.1104 3.47683 12.7098 0.768992
128 1 -1.1104 3.19949 12.6825 3.73344
70 1 -1.1104 6.26049 9.738 3.74574
62 1 -1.1104 0.721964 10.0253 6.36797
111 1 -1.1104 6.16945 12.7017 6.43224
108 1 -1.1104 0.674398 12.5775 6.30228
64 1 -1.1104 6.18631 9.65937 0.869313
78 1 -1.1104 3.58506 9.46731 6.41528
65 1 -1.1104 6.3554 9.77538 6.50934
124 1 -1.1104 3.67387 12.5471 6.29296
115 1 -1.1104 6.05021 12.7834 3.65057
8951 2 2.2208 13.1784 8.08906 5.26416
110 1 -1.1104 6.11038 12.7053 0.847787
85 2 2.2208 10.4916 11.1687 4.83237
89 1 -1.1104 11.8656 9.81187 0.987777
91 2 2.2208 10.3831 8.29143 2.12497
93 1 -1.1104 11.7457 9.57641 3.60484
96 2 2.2208 7.59545 11.1026 2.00524
98 2 2.2208 7.52113 8.37913 5.0026
100 1 -1.1104 9.21661 9.74468 0.904803
103 1 -1.1104 8.96238 9.91498 3.422
142 1 -1.1104 11.8764 12.4526 0.776123
146 1 -1.1104 12.2125 12.6702 3.60318
153 1 -1.1104 8.98966 12.6005 0.893103
158 1 -1.1104 9.19006 12.6249 3.62671
90 1 -1.1104 12.0934 9.85737 6.11949
154 1 -1.1104 8.80618 13.096 6.75097
101 1 -1.1104 9.30889 10.1974 6.63396
9233 2 2.2208 13.4688 11.4091 2.26356
130 2 2.2208 1.94743 14.0252 4.9957
119 2 2.2208 4.84505 14.1529 2.27212
106 2 2.2208 4.87753 17.0491 5.01654
109 1 -1.1104 0.606341 18.4946 0.652869
114 1 -1.1104 0.602404 18.409 3.26684
116 1 -1.1104 0.627614 15.5321 0.774538
120 2 2.2208 4.91548 19.7023 2.10274
121 1 -1.1104 0.542735 15.788 3.43585
125 1 -1.1104 3.39127 18.3694 0.748025
127 2 2.2208 2.00868 16.9821 2.23771
129 1 -1.1104 3.4496 18.2747 3.41193
131 2 2.2208 2.10056 19.7077 4.96257
132 1 -1.1104 3.53664 15.7075 0.833274
134 1 -1.1104 3.36157 15.4943 3.79505
139 1 -1.1104 6.35748 18.4169 3.69209
133 1 -1.1104 3.24347 15.3016 6.43232
302 1 -1.1104 0.744457 18.2835 6.19831
140 1 -1.1104 6.18153 15.596 0.782825
126 1 -1.1104 3.39676 18.2871 6.48936
118 1 -1.1104 6.31075 15.4611 6.32024
138 1 -1.1104 6.19977 18.4215 0.721206
117 1 -1.1104 0.389662 15.5296 6.38854
112 1 -1.1104 6.21321 18.2293 6.37805
122 1 -1.1104 6.27235 15.4819 3.48936
9237 2 2.2208 13.4168 16.8129 2.18836
8999 2 2.2208 13.2882 19.676 4.7675
156 1 -1.1104 9.33556 18.4484 6.23846
160 2 2.2208 7.57709 14.0817 5.09588
150 2 2.2208 10.5756 13.9939 2.01558
141 2 2.2208 10.5308 17.0661 4.83907
144 1 -1.1104 11.9045 18.1895 0.71903
147 1 -1.1104 11.8971 18.3351 3.34923
148 1 -1.1104 11.7485 15.3038 0.619541
151 2 2.2208 10.5401 19.7423 2.11187
152 1 -1.1104 12.0168 15.6413 3.48329
155 1 -1.1104 9.00872 18.3151 0.641471
157 2 2.2208 7.62702 17.038 2.1438
159 1 -1.1104 9.27346 18.4314 3.40866
161 2 2.2208 7.70805 19.6652 5.04991
162 1 -1.1104 9.04676 15.3813 0.910615
164 1 -1.1104 8.95012 15.672 3.60317
9020 2 2.2208 13.4306 14.1912 5.1251
163 1 -1.1104 9.12268 15.6956 6.64491
145 1 -1.1104 12.1746 18.4304 6.23251
328 2 2.2208 10.3979 8.37428 13.6793
175 2 2.2208 4.97834 -0.05069 10.7714
176 1 -1.1104 0.500842 -4.33042 12.389
180 1 -1.1104 0.43708 -4.07358 9.63287
184 1 -1.1104 0.727917 -1.52994 12.3116
186 2 2.2208 4.59948 -2.88389 8.02799
188 1 -1.1104 0.494955 -1.49213 9.33906
190 1 -1.1104 3.31387 -4.15659 12.1788
192 2 2.2208 1.89769 -0.235258 8.03419
193 1 -1.1104 3.28172 -4.39097 9.4096
195 2 2.2208 1.88558 -2.84599 10.9773
197 1 -1.1104 3.49464 -1.13706 12.2302
198 1 -1.1104 3.3767 -1.47076 9.42479
189 1 -1.1104 6.3449 -1.58674 9.53489
178 1 -1.1104 6.20197 -4.2529 12.3279
332 2 2.2208 4.88215 14.0567 13.5123
317 2 2.2208 4.75692 2.80707 13.6467
185 1 -1.1104 6.25816 -1.33138 12.5014
182 1 -1.1104 6.08887 -4.2205 9.37992
210 1 -1.1104 8.89119 -1.66034 6.49315
9239 2 2.2208 13.1649 -3.05992 10.8712
81 2 2.2208 10.5087 19.8713 7.76953
316 2 2.2208 2.0701 0.0676105 13.5417
9238 2 2.2208 13.0312 -0.192404 7.90903
211 2 2.2208 10.3975 -0.0680305 10.7611
212 1 -1.1104 11.8304 -4.5596 12.1083
214 1 -1.1104 11.73 -4.45152 9.24278
216 1 -1.1104 11.87 -1.57488 12.1072
217 2 2.2208 10.2767 -3.11153 7.8802
219 1 -1.1104 11.5997 -1.67893 9.31682
220 1 -1.1104 8.87702 -4.24155 12.1537
222 2 2.2208 7.49057 -0.327207 7.95064
223 1 -1.1104 8.81001 -4.38043 9.53472
225 2 2.2208 7.6899 -3.00287 10.831
227 1 -1.1104 8.90008 -1.28607 12.0449
228 1 -1.1104 9.01241 -1.54425 9.2326
49 1 -1.1104 11.806 18.2716 9.09837
137 1 -1.1104 8.92261 18.4014 9.20572
236 1 -1.1104 0.345643 4.20266 6.46426
321 2 2.2208 7.57319 0.184085 13.5549
177 1 -1.1104 0.545511 1.49527 12.2872
181 1 -1.1104 0.463469 1.42147 9.47033
187 2 2.2208 4.77284 2.52379 7.83582
191 1 -1.1104 3.48707 1.62901 12.1547
194 1 -1.1104 3.26968 1.38635 9.30018
196 2 2.2208 1.89073 2.90318 10.9529
240 2 2.2208 4.85611 5.48752 10.6565
244 1 -1.1104 0.482286 7.09399 9.19127
246 1 -1.1104 0.471675 4.31359 12.2669
251 1 -1.1104 0.474835 4.17105 9.35243
255 1 -1.1104 3.46803 7.10465 12.0936
256 2 2.2208 1.87462 5.79159 7.99437
260 1 -1.1104 3.2047 4.36649 12.1474
262 1 -1.1104 3.13837 4.27584 9.42703
183 1 -1.1104 5.98708 0.931545 9.11008
179 1 -1.1104 6.16286 1.27087 12.112
245 1 -1.1104 6.14028 6.85493 9.11908
248 1 -1.1104 6.02751 4.04379 12.1031
258 1 -1.1104 3.50072 7.09872 9.23353
243 1 -1.1104 6.18129 6.68408 11.987
253 1 -1.1104 6.29756 4.04788 9.25616
324 2 2.2208 1.8794 5.70994 13.5115
9266 2 2.2208 13.3212 16.8788 13.3536
9133 2 2.2208 13.2632 5.5547 8.04907
27 1 -1.1104 12.0752 18.4118 12.0073
9057 2 2.2208 13.3328 2.67224 10.8508
213 1 -1.1104 11.8283 1.3769 11.9872
215 1 -1.1104 11.7988 1.07076 9.1758
218 2 2.2208 10.1622 2.53699 7.97816
221 1 -1.1104 9.1791 1.1776 12.0762
224 1 -1.1104 8.62244 1.23441 9.18176
226 2 2.2208 7.58276 2.71016 10.7252
268 1 -1.1104 9.11838 3.92506 9.50665
271 1 -1.1104 8.95229 4.00332 12.2785
275 2 2.2208 7.37339 5.47425 7.73202
276 2 2.2208 10.4162 5.4782 10.688
278 1 -1.1104 11.5514 6.93248 12.25
280 1 -1.1104 11.8861 4.22591 12.1617
283 1 -1.1104 11.8336 3.96336 9.36978
273 1 -1.1104 9.01112 7.00292 9.25565
285 1 -1.1104 8.64146 6.78122 11.8567
279 1 -1.1104 11.8161 6.86206 9.39827
325 2 2.2208 4.90338 8.41501 13.6108
229 2 2.2208 7.7991 19.6865 10.5922
326 2 2.2208 2.04925 11.2613 13.3797
242 1 -1.1104 0.381819 7.00212 12.1321
241 2 2.2208 4.7965 11.0105 10.8699
247 1 -1.1104 0.802472 10.0075 11.9137
250 2 2.2208 4.99727 8.44635 7.85939
252 1 -1.1104 0.663724 9.89828 9.11573
257 2 2.2208 2.20276 11.2214 7.74663
259 2 2.2208 1.98074 8.32989 10.6864
261 1 -1.1104 3.28276 9.80536 12.1333
263 1 -1.1104 3.4656 9.95212 9.37855
287 1 -1.1104 3.33933 12.7423 12.1805
294 1 -1.1104 0.560071 12.8338 9.11689
299 1 -1.1104 0.544816 12.6523 12.0228
305 1 -1.1104 3.15499 12.746 9.06076
290 1 -1.1104 6.00791 12.4487 9.19247
249 1 -1.1104 6.22194 9.6127 12.1592
254 1 -1.1104 6.15975 9.52147 9.39536
297 1 -1.1104 6.43268 12.5745 12.0942
143 1 -1.1104 11.5991 12.7122 6.35447
9138 2 2.2208 13.2572 8.4013 10.7246
9261 2 2.2208 13.3158 11.2452 13.4999
105 2 2.2208 7.45154 16.852 7.93046
9134 2 2.2208 12.9163 11.1908 7.76666
135 1 -1.1104 9.01088 12.6654 9.36648
83 1 -1.1104 9.27344 12.4079 12.2209
264 1 -1.1104 8.78588 9.78185 9.35104
270 1 -1.1104 8.9912 9.53467 12.0445
272 2 2.2208 7.52297 8.31895 10.7502
274 2 2.2208 7.53742 11.3149 7.97848
277 2 2.2208 10.4371 11.1818 10.8398
281 1 -1.1104 11.8062 9.64557 11.9891
282 2 2.2208 10.1025 8.38781 7.85717
284 1 -1.1104 11.9252 9.86957 9.1942
26 1 -1.1104 11.9986 12.6679 12.2008
30 1 -1.1104 11.7655 12.6823 9.27782
9248 2 2.2208 13.2409 0.159815 13.5937
50 1 -1.1104 11.9672 15.5432 11.8785
331 2 2.2208 4.7184 19.8249 13.5621
288 1 -1.1104 6.44787 18.112 9.42174
330 2 2.2208 2.02151 16.9049 13.5739
296 1 -1.1104 6.3547 18.3192 12.28
295 2 2.2208 4.7195 14.0714 7.59937
310 2 2.2208 1.85946 14.0642 10.5901
289 1 -1.1104 6.15922 15.4104 9.1237
307 1 -1.1104 0.404142 15.2929 11.9251
309 2 2.2208 1.95835 19.7527 10.706
308 1 -1.1104 3.48416 15.3221 12.1798
286 1 -1.1104 3.65603 18.1491 11.934
291 1 -1.1104 0.788039 18.5266 9.19632
292 1 -1.1104 0.558674 15.5447 9.10921
293 2 2.2208 4.93128 19.762 7.86372
298 1 -1.1104 0.582032 18.1408 12.1435
300 2 2.2208 4.98229 16.8333 10.6978
301 1 -1.1104 3.65488 18.3521 9.2163
303 2 2.2208 2.04702 16.9955 7.95212
304 1 -1.1104 3.21865 15.7049 9.52164
306 1 -1.1104 6.30141 15.4606 11.9378
25 2 2.2208 10.4829 16.8124 10.5627
9184 2 2.2208 13.3786 19.4569 10.4398
9223 2 2.2208 13.4404 16.8754 7.62081
230 1 -1.1104 9.13414 15.3308 12.2309
104 1 -1.1104 9.15741 18.2743 11.8646
149 1 -1.1104 12.0852 15.5674 6.37396
9222 2 2.2208 13.2817 14.0011 10.7242
82 1 -1.1104 11.9848 15.4655 8.98339
53 2 2.2208 10.4864 14.1731 7.95259
233 1 -1.1104 8.94067 15.5219 9.38965
322 2 2.2208 10.3162 -2.94786 13.5352
165 2 2.2208 7.60945 13.9747 10.655
335 2 2.2208 7.72552 16.8059 13.5978
346 2 2.2208 1.80291 8.54013 -0.469064
9259 2 2.2208 13.0916 5.60521 13.5029
312 2 2.2208 4.64491 -2.65519 13.5529
9249 2 2.2208 13.3397 8.38557 -0.388991
348 2 2.2208 4.66558 -0.166576 16.5402
349 1 -1.1104 0.410654 -4.168 17.664
353 1 -1.1104 0.647428 -4.29389 14.9452
361 1 -1.1104 0.353344 -1.19685 17.9627
363 2 2.2208 4.73709 -2.90577 19.3309
365 1 -1.1104 0.474314 -1.46921 14.9564
369 1 -1.1104 3.43259 -4.35017 18.0761
371 2 2.2208 1.76692 -0.096323 19.1477
372 1 -1.1104 3.43092 -4.05661 15.0736
376 2 2.2208 1.70451 -2.68497 16.393
378 1 -1.1104 3.14792 -1.54857 17.7796
379 1 -1.1104 3.15746 -1.45978 15.0325
373 1 -1.1104 3.50343 -4.36263 20.7917
351 1 -1.1104 6.41247 -4.35159 17.811
367 1 -1.1104 6.13352 -1.15629 15.0994
357 1 -1.1104 5.9659 -4.24603 14.8963
368 1 -1.1104 6.10169 -1.62574 20.8653
380 1 -1.1104 3.06928 -1.51592 20.7652
354 1 -1.1104 0.741982 -4.53947 20.6978
362 1 -1.1104 6.10559 -1.4301 17.8818
9442 2 2.2208 13.2323 19.7803 21.7987
358 1 -1.1104 6.12315 -4.20955 20.4594
391 2 2.2208 10.285 -0.0634817 16.5108
392 1 -1.1104 11.9827 -4.09652 17.8947
394 1 -1.1104 11.7244 -4.33914 15.1383
398 1 -1.1104 12.0723 -1.45322 18.1005
399 2 2.2208 10.3733 -2.8089 19.1456
401 1 -1.1104 11.7532 -1.54999 14.7529
403 1 -1.1104 9.0132 -4.16558 17.7747
405 2 2.2208 7.53948 -0.166081 19.3638
406 1 -1.1104 8.77591 -4.18757 15.0413
410 2 2.2208 7.59403 -2.94391 16.3429
412 1 -1.1104 8.96778 -1.63152 17.896
413 1 -1.1104 9.13134 -1.39334 15.0753
402 1 -1.1104 11.7252 -1.38508 20.7795
395 1 -1.1104 11.926 -4.11043 20.6038
414 1 -1.1104 8.80865 -1.44548 20.7979
9329 2 2.2208 13.2404 0.00426121 19.4155
615 2 2.2208 7.53489 16.8652 24.8621
407 1 -1.1104 9.14883 -4.09896 20.653
314 2 2.2208 4.80951 16.8941 27.5655
9258 2 2.2208 13.2782 -2.84883 27.7646
9441 2 2.2208 13.3065 -2.93017 16.3851
374 1 -1.1104 3.35302 1.37141 15.0714
370 1 -1.1104 3.22237 1.33181 17.9783
350 1 -1.1104 0.526733 1.4628 17.8395
355 1 -1.1104 0.440845 1.61924 15.0123
364 2 2.2208 4.65153 2.65381 19.2762
377 2 2.2208 1.97052 2.84986 16.403
424 2 2.2208 4.80087 5.61028 16.2586
428 1 -1.1104 0.525008 7.12271 14.9849
432 1 -1.1104 0.405703 4.24533 18.0187
437 1 -1.1104 0.469301 4.21388 15.163
445 1 -1.1104 3.53643 7.01249 17.6643
446 2 2.2208 1.89532 5.61463 19.1088
448 1 -1.1104 3.40128 7.17236 15.0553
451 1 -1.1104 3.29823 4.02076 17.6995
453 1 -1.1104 3.30377 4.35152 14.9819
438 1 -1.1104 0.162431 4.0454 20.4472
454 1 -1.1104 2.89112 4.11451 20.5177
359 1 -1.1104 6.0401 1.61944 15.0259
352 1 -1.1104 6.28211 1.24786 17.8769
429 1 -1.1104 0.607892 6.89925 20.6017
449 1 -1.1104 3.29742 6.93411 20.7031
442 1 -1.1104 5.85837 4.1302 20.3687
441 1 -1.1104 6.17492 4.05852 14.8703
356 1 -1.1104 0.393355 1.25129 20.5252
375 1 -1.1104 3.39158 1.24649 20.5306
431 1 -1.1104 6.08339 6.89383 20.815
434 1 -1.1104 5.93812 4.07475 17.7092
427 1 -1.1104 6.14507 6.89035 17.98
430 1 -1.1104 6.1916 6.96454 14.8959
393 1 -1.1104 11.6921 1.36921 17.6434
396 1 -1.1104 11.6209 1.3169 14.9297
400 2 2.2208 10.3712 2.69269 19.1597
404 1 -1.1104 9.0275 1.27644 17.7728
408 1 -1.1104 8.75405 1.46014 15.099
411 2 2.2208 7.41007 2.76449 16.4929
460 2 2.2208 10.4656 5.60207 16.472
462 1 -1.1104 11.8038 6.98505 17.9392
465 1 -1.1104 11.8306 4.35445 17.9444
468 1 -1.1104 11.723 4.06775 14.9957
472 1 -1.1104 9.03813 7.18218 17.6223
473 2 2.2208 7.4481 5.52284 19.2354
475 1 -1.1104 9.15943 6.86025 14.8091
478 1 -1.1104 8.86754 4.09357 17.9498
480 1 -1.1104 9.10047 4.24544 15.1855
463 1 -1.1104 11.7438 6.97413 15.022
469 1 -1.1104 11.6658 4.20309 20.5994
481 1 -1.1104 8.67993 4.1703 20.8335
397 1 -1.1104 11.7161 1.44035 20.798
409 1 -1.1104 8.81476 1.36111 20.5714
9398 2 2.2208 13.221 5.54817 19.4466
9323 2 2.2208 13.2072 2.80727 16.5244
426 1 -1.1104 0.567285 7.01199 17.6021
425 2 2.2208 4.82885 11.2069 16.273
433 1 -1.1104 0.495598 9.90764 17.7318
436 2 2.2208 4.66969 8.36064 19.188
439 1 -1.1104 0.567124 9.88891 14.9541
447 2 2.2208 1.8494 11.2326 19.0728
450 2 2.2208 1.93022 8.48979 16.3927
452 1 -1.1104 3.40148 9.81773 17.9072
455 1 -1.1104 3.60483 9.89547 14.8531
488 1 -1.1104 0.578959 12.5923 17.7423
492 1 -1.1104 0.840854 12.7682 14.874
508 1 -1.1104 3.35763 12.7835 17.544
511 1 -1.1104 3.52247 12.7241 14.9272
512 1 -1.1104 3.3045 12.5314 20.5214
493 1 -1.1104 0.506888 12.6023 20.6285
496 1 -1.1104 6.39085 12.457 15.0552
443 1 -1.1104 6.33338 9.77863 14.886
456 1 -1.1104 3.64488 9.74532 20.7144
444 1 -1.1104 6.24425 9.71312 20.3104
435 1 -1.1104 6.16724 9.86353 17.5724
490 1 -1.1104 6.19874 12.4877 17.8749
497 1 -1.1104 6.32161 12.5682 20.4245
440 1 -1.1104 0.645709 9.79086 20.4554
461 2 2.2208 10.541 11.1194 16.1744
466 1 -1.1104 11.8884 9.75624 17.6971
467 2 2.2208 10.508 8.50011 19.143
470 1 -1.1104 11.9391 9.70134 14.7556
474 2 2.2208 7.5239 11.0068 19.1122
477 2 2.2208 7.51296 8.31848 16.3007
479 1 -1.1104 9.00353 9.8426 17.8139
482 1 -1.1104 9.10587 9.72795 14.9935
524 1 -1.1104 11.9057 12.5587 17.8354
526 1 -1.1104 11.7347 12.5906 14.86
535 1 -1.1104 9.14942 12.5913 17.5131
538 1 -1.1104 9.24074 12.4223 15.0228
527 1 -1.1104 11.7421 12.6398 20.5391
471 1 -1.1104 11.8921 9.72305 20.7378
9397 2 2.2208 13.0879 8.35995 16.2652
9399 2 2.2208 13.2186 11.0489 19.1821
483 1 -1.1104 9.05463 9.78302 20.5388
539 1 -1.1104 9.11075 12.7126 20.4516
515 2 2.2208 2.03002 13.9554 16.2619
502 2 2.2208 5.0765 14.0102 19.1394
487 2 2.2208 4.9305 16.944 16.4899
489 1 -1.1104 0.420562 18.164 17.8337
494 1 -1.1104 0.713429 18.1006 14.8995
500 1 -1.1104 0.835036 15.4475 17.5697
503 2 2.2208 4.81185 19.8001 19.1206
504 1 -1.1104 0.618078 15.2762 14.7885
509 1 -1.1104 3.27794 18.3016 17.6536
510 2 2.2208 2.08187 16.7106 19.029
513 1 -1.1104 3.24504 18.4185 15.015
516 2 2.2208 1.84873 19.7307 16.4018
517 1 -1.1104 3.69513 15.4723 17.8792
518 1 -1.1104 3.57452 15.7557 14.9921
519 1 -1.1104 3.5347 15.3239 20.4902
506 1 -1.1104 6.4154 15.1071 14.8022
491 1 -1.1104 6.24054 18.3141 17.677
514 1 -1.1104 3.61778 18.1703 20.4764
495 1 -1.1104 0.526109 18.2441 20.5431
498 1 -1.1104 6.2857 18.2044 15.0558
507 1 -1.1104 6.47426 15.5693 20.6997
501 1 -1.1104 6.23621 15.3927 17.599
499 1 -1.1104 6.31102 18.1942 20.4775
505 1 -1.1104 0.535574 15.4313 20.4435
9467 2 2.2208 13.4142 14.0234 16.4928
9469 2 2.2208 13.3203 16.7871 19.2189
542 2 2.2208 7.70038 13.9206 16.4757
531 2 2.2208 10.4327 13.918 19.0616
523 2 2.2208 10.5454 16.8785 16.2158
525 1 -1.1104 11.8712 17.9424 17.8325
528 1 -1.1104 12.101 18.3083 14.7463
530 1 -1.1104 11.8004 15.232 17.5882
532 2 2.2208 10.5031 19.6516 19.1147
533 1 -1.1104 12.0436 15.45 14.6419
536 1 -1.1104 9.27404 18.2844 17.7349
537 2 2.2208 7.77469 16.9721 19.3088
540 1 -1.1104 9.30346 18.2231 14.8918
543 2 2.2208 7.84703 19.6577 16.3399
544 1 -1.1104 9.03553 15.5636 17.9643
545 1 -1.1104 9.19047 15.5553 15.2068
9470 2 2.2208 13.4063 19.6854 16.0578
546 1 -1.1104 9.12449 15.346 20.8409
534 1 -1.1104 11.9352 15.285 20.4626
366 1 -1.1104 0.259091 -1.65788 20.7794
612 1 -1.1104 11.9481 15.3506 26.1141
551 2 2.2208 4.74195 -0.203149 22.0911
552 1 -1.1104 0.214233 -4.1627 23.4299
556 1 -1.1104 0.442814 -4.32365 26.1296
560 1 -1.1104 0.135373 -1.36506 23.4872
562 2 2.2208 4.78369 -3.06483 24.9435
564 1 -1.1104 0.505046 -1.46097 26.1634
566 1 -1.1104 3.41617 -4.31804 23.6384
568 2 2.2208 2.01797 0.0132739 24.7489
569 1 -1.1104 3.27774 -4.09163 26.4146
571 2 2.2208 1.98948 -2.94494 22.1731
573 1 -1.1104 3.36998 -1.6636 23.5974
574 1 -1.1104 3.29121 -1.37485 26.2249
554 1 -1.1104 6.19434 -4.24911 23.6141
561 1 -1.1104 6.19012 -1.62484 23.618
558 1 -1.1104 6.13035 -4.56041 26.4199
565 1 -1.1104 6.31256 -1.71958 26.1713
318 2 2.2208 7.54288 14.1575 27.7189
337 2 2.2208 1.77714 -2.72049 27.6131
9369 2 2.2208 13.3705 0.0079498 24.8681
587 2 2.2208 10.5992 -0.0545967 22.226
588 1 -1.1104 11.7602 -4.14835 23.479
590 1 -1.1104 11.7002 -4.35673 26.1692
592 1 -1.1104 11.8874 -1.5039 23.6113
593 2 2.2208 10.4225 -2.72445 24.8605
595 1 -1.1104 11.9883 -1.49915 26.2111
596 1 -1.1104 9.03903 -4.15359 23.3744
598 2 2.2208 7.58312 -0.16905 24.8145
599 1 -1.1104 8.9544 -4.27651 26.1503
601 2 2.2208 7.39589 -2.93165 22.058
603 1 -1.1104 9.09866 -1.34672 23.579
604 1 -1.1104 9.01039 -1.311 26.4529
9370 2 2.2208 13.2131 -2.93116 22.1591
550 2 2.2208 10.4211 16.9005 22.2094
319 2 2.2208 10.5002 16.7801 27.6857
360 1 -1.1104 6.11331 1.18015 20.729
553 1 -1.1104 0.667365 1.25653 23.2336
557 1 -1.1104 0.495594 1.35603 25.9663
563 2 2.2208 4.83539 2.6208 24.7048
567 1 -1.1104 3.44145 1.11566 23.3341
570 1 -1.1104 3.40919 1.43478 26.18
572 2 2.2208 1.84938 2.6872 21.8063
616 2 2.2208 4.67243 5.49653 22.0334
618 1 -1.1104 0.490929 6.85356 23.4335
620 1 -1.1104 0.72979 6.87592 26.2693
622 1 -1.1104 0.351516 4.08539 23.3913
627 1 -1.1104 0.685456 4.14231 26.2375
632 2 2.2208 1.85164 5.51979 24.8016
636 1 -1.1104 3.37297 3.93795 23.2314
638 1 -1.1104 3.33415 4.05317 25.941
631 1 -1.1104 3.26925 6.79323 23.4671
634 1 -1.1104 3.56554 6.80437 26.1479
559 1 -1.1104 6.24983 1.38937 26.1653
629 1 -1.1104 6.13257 4.09578 26.2093
555 1 -1.1104 6.23304 1.16878 23.5054
313 2 2.2208 1.96115 14.1425 27.5696
619 1 -1.1104 6.29951 6.89937 23.5498
621 1 -1.1104 6.44466 6.78868 26.28
624 1 -1.1104 6.1227 3.92173 23.3244
645 1 -1.1104 9.00317 18.2655 26.2929
464 1 -1.1104 11.8782 7.11308 20.7745
476 1 -1.1104 8.83846 7.09189 20.3606
345 2 2.2208 4.83342 5.54678 27.5774
9530 2 2.2208 13.2071 2.79866 22.2155
9326 2 2.2208 13.1941 5.71878 24.9478
589 1 -1.1104 11.9415 1.40959 23.6263
600 1 -1.1104 9.05226 1.35498 26.0057
591 1 -1.1104 12.003 1.17296 26.4517
594 2 2.2208 10.5968 2.85197 24.7541
597 1 -1.1104 9.31925 1.3447 23.3148
602 2 2.2208 7.68279 2.58178 22.0844
607 1 -1.1104 8.99204 6.96646 23.2944
641 1 -1.1104 11.9298 4.18522 26.2605
648 1 -1.1104 9.19324 4.10243 26.1877
650 1 -1.1104 8.99591 4.12739 23.4345
654 2 2.2208 7.58375 5.52725 24.7421
655 2 2.2208 10.2279 5.478 22.0158
659 1 -1.1104 11.7824 4.26264 23.4145
658 1 -1.1104 12.0412 6.91002 26.3255
652 1 -1.1104 9.07057 6.90438 26.036
657 1 -1.1104 11.7367 7.25988 23.5338
344 2 2.2208 10.5289 5.57926 27.6363
347 2 2.2208 4.8292 11.2321 27.4957
584 1 -1.1104 11.8224 18.3571 26.1744
617 2 2.2208 4.82771 11.0471 22.041
623 1 -1.1104 0.660456 9.75782 23.2277
626 2 2.2208 4.77172 8.21239 24.8476
628 1 -1.1104 0.476145 9.7214 26.0463
633 2 2.2208 1.75429 11.3407 24.698
635 2 2.2208 2.00118 8.21423 22.0549
637 1 -1.1104 3.38937 9.87645 23.4799
639 1 -1.1104 3.47994 9.64569 26.2904
420 1 -1.1104 3.26998 12.7457 26.1953
458 1 -1.1104 0.516719 12.6619 23.6152
521 1 -1.1104 0.574008 12.4043 26.338
549 1 -1.1104 3.36957 12.6535 23.3739
575 1 -1.1104 6.14714 12.398 26.038
630 1 -1.1104 6.15413 9.76307 26.1713
625 1 -1.1104 6.34885 9.97161 23.2497
484 1 -1.1104 6.22488 12.5919 23.3596
605 1 -1.1104 8.90086 15.6819 23.5049
9589 2 2.2208 13.2158 8.35837 22.2849
343 2 2.2208 7.53312 8.31972 27.676
338 2 2.2208 2.06959 2.75697 27.5392
644 1 -1.1104 9.15811 12.5602 26.2069
640 1 -1.1104 11.8716 9.67531 26.4417
642 2 2.2208 10.2594 8.40207 24.7919
647 1 -1.1104 9.01298 9.76826 26.2348
649 1 -1.1104 8.97673 9.86537 23.4941
651 2 2.2208 7.67098 8.38054 22.0227
653 2 2.2208 7.68494 11.2407 24.807
656 2 2.2208 10.4066 11.2769 22.1069
660 1 -1.1104 11.6634 10.0725 23.6891
578 1 -1.1104 11.9022 12.9475 23.6011
583 1 -1.1104 11.9188 12.5287 26.2391
613 1 -1.1104 8.87446 12.8039 23.4634
9327 2 2.2208 13.2306 11.2888 24.7375
315 2 2.2208 1.95098 19.7659 27.6045
643 1 -1.1104 6.16763 18.2154 26.2268
485 2 2.2208 4.71251 14.0312 24.7502
388 2 2.2208 1.98117 14.069 22.0677
415 1 -1.1104 0.49899 15.5579 23.2977
390 1 -1.1104 3.29001 15.5122 23.1381
389 2 2.2208 1.90341 19.6773 21.8967
459 1 -1.1104 0.463896 18.5697 23.2503
457 2 2.2208 4.67974 16.8323 21.8579
423 1 -1.1104 3.47548 18.1901 26.1724
422 2 2.2208 1.73095 17.1205 24.7155
486 2 2.2208 4.87338 19.6927 24.7921
421 1 -1.1104 3.31975 15.4354 26.059
576 1 -1.1104 3.14294 18.1795 23.3878
547 1 -1.1104 0.502705 18.4032 25.9959
522 1 -1.1104 0.575956 15.683 26.068
520 1 -1.1104 6.14483 18.4165 23.3892
419 1 -1.1104 6.15151 15.5468 23.4496
548 1 -1.1104 6.16835 15.2887 26.1558
387 2 2.2208 1.99537 -5.54088 13.7513
646 2 2.2208 7.57456 14.0869 21.8868
320 2 2.2208 7.62289 19.9046 27.6042
336 2 2.2208 4.85267 -0.207499 27.4444
541 1 -1.1104 9.21662 18.4083 20.5472
529 1 -1.1104 11.8965 18.2278 20.7985
341 2 2.2208 7.67318 2.68383 27.5127
606 2 2.2208 7.57877 19.7068 21.7891
608 2 2.2208 10.4312 19.7415 24.8843
586 2 2.2208 10.3873 13.9673 24.8254
579 1 -1.1104 11.7471 18.2604 23.3669
9468 2 2.2208 13.123 14.0453 21.9855
9270 2 2.2208 13.3396 19.5277 27.4808
9466 2 2.2208 13.2517 16.8468 24.721
614 1 -1.1104 8.88183 18.431 23.4995
577 1 -1.1104 9.05746 15.4906 26.3653
585 1 -1.1104 11.7781 15.4562 23.269
342 2 2.2208 10.4648 11.0739 27.7422
340 2 2.2208 7.5857 -2.86759 27.6346
9271 2 2.2208 13.2975 13.9478 27.5686
382 2 2.2208 4.6418 -5.59632 16.3552
339 2 2.2208 10.4844 -0.0364751 27.6101
329 2 2.2208 7.70886 11.2526 13.6981
334 2 2.2208 10.4876 14.0736 13.7263
580 2 2.2208 4.65376 -5.4791 27.7769
9255 2 2.2208 13.207 2.79636 27.7679
661 2 2.2208 5.02983 22.4539 4.87037
663 1 -1.1104 0.544991 23.8991 0.692692
664 1 -1.1104 0.805192 23.8844 3.67428
667 2 2.2208 4.89759 25.155 2.20924
670 1 -1.1104 3.50322 23.91 0.684602
671 2 2.2208 2.16077 22.6134 2.2665
673 1 -1.1104 3.60166 23.8768 3.65348
674 2 2.2208 2.21622 25.3814 5.02284
675 1 -1.1104 3.48628 21.1382 0.769938
677 1 -1.1104 3.54137 21.0604 3.59414
665 1 -1.1104 0.688551 21.1909 0.927472
669 1 -1.1104 0.723545 26.6781 3.34965
668 1 -1.1104 0.863487 21.2141 3.844
666 1 -1.1104 0.604466 26.8992 0.585491
684 1 -1.1104 6.25521 21.2496 0.526313
809 1 -1.1104 3.56384 21.2709 6.24666
682 1 -1.1104 6.32372 24.0656 1.01805
686 1 -1.1104 6.23681 21.1381 3.3425
687 1 -1.1104 6.51867 26.4904 3.41261
683 1 -1.1104 6.31129 23.7788 3.67776
685 1 -1.1104 6.04375 26.8378 0.672952
806 1 -1.1104 6.31771 21.1239 6.18301
803 1 -1.1104 6.37174 23.9251 6.4892
810 1 -1.1104 3.48458 26.7395 6.44396
802 1 -1.1104 0.542433 23.9791 6.28506
805 1 -1.1104 0.748353 27.0064 6.34395
695 1 -1.1104 12.1115 21.0334 3.4307
688 2 2.2208 10.624 22.3286 4.93097
690 1 -1.1104 11.998 23.8725 0.704657
691 1 -1.1104 12.0528 23.913 3.76265
692 1 -1.1104 11.9154 21.0986 0.70239
694 2 2.2208 10.4173 25.3495 2.14504
697 1 -1.1104 9.16554 24.0441 0.696004
698 2 2.2208 7.83384 22.5828 2.19392
700 1 -1.1104 9.20811 23.8856 3.42845
701 2 2.2208 7.98614 25.3476 5.08731
702 1 -1.1104 9.19437 21.1294 0.924859
704 1 -1.1104 9.0665 21.1841 3.57567
693 1 -1.1104 11.8205 26.4746 0.734998
696 1 -1.1104 12.0931 26.8062 3.7162
836 1 -1.1104 11.8648 21.1993 6.37337
705 1 -1.1104 9.06679 26.698 3.76774
837 1 -1.1104 12.2112 26.7263 6.57485
835 1 -1.1104 12.193 24.025 6.72535
838 1 -1.1104 9.33549 23.935 6.4187
9957 2 2.2208 13.236 25.0905 5.11045
9954 2 2.2208 13.4577 22.4911 2.03194
676 1 -1.1104 3.2609 26.5599 0.618596
678 1 -1.1104 3.50508 26.7028 3.62716
807 1 -1.1104 6.52119 26.7858 6.30718
662 2 2.2208 4.972 28.1218 5.131
672 2 2.2208 2.12694 28.2349 2.04972
710 1 -1.1104 0.682738 29.8119 0.504022
713 1 -1.1104 0.840366 29.411 3.58236
716 1 -1.1104 1.10037 32.6806 0.415697
717 2 2.2208 4.92786 30.8182 2.19793
719 1 -1.1104 0.786914 32.1807 3.39376
721 1 -1.1104 3.45652 29.3952 0.487584
724 1 -1.1104 3.65587 29.5217 3.46706
726 2 2.2208 2.21612 30.9583 4.89824
728 1 -1.1104 3.77161 32.3195 0.676931
729 1 -1.1104 3.47741 32.4505 3.54152
865 1 -1.1104 3.58737 29.675 6.55731
720 1 -1.1104 6.30006 32.3092 3.72072
735 1 -1.1104 6.54718 32.1521 0.888133
733 1 -1.1104 6.0689 29.6042 0.629426
734 1 -1.1104 6.21692 29.3847 3.64774
861 1 -1.1104 6.25466 29.6057 6.2985
863 1 -1.1104 0.94049 32.4207 5.88534
864 1 -1.1104 6.64948 32.4204 6.30189
867 1 -1.1104 3.72859 32.3641 6.53557
703 1 -1.1104 8.81728 27.076 0.666606
9705 2 2.2208 13.457 30.7799 4.96138
689 2 2.2208 10.6504 28.3755 4.99035
699 2 2.2208 7.52402 28.2362 2.05155
737 1 -1.1104 12.1956 29.6158 0.77346
739 1 -1.1104 11.8939 29.5296 3.55392
741 1 -1.1104 11.8679 32.3931 0.91534
742 2 2.2208 10.6019 30.9499 2.23019
744 1 -1.1104 12.2495 32.2339 3.62553
745 1 -1.1104 9.14575 29.6911 0.881897
748 1 -1.1104 9.12274 29.4656 3.74015
750 2 2.2208 7.78862 30.9128 4.91619
752 1 -1.1104 9.17189 32.4106 0.803277
753 1 -1.1104 9.21416 32.2355 3.62096
896 1 -1.1104 9.28478 29.6096 6.39027
895 1 -1.1104 12.2127 32.3243 6.38974
898 1 -1.1104 9.60654 32.274 6.47172
9956 2 2.2208 13.5187 28.0075 2.30092
893 1 -1.1104 12.095 29.4755 6.4725
709 2 2.2208 4.86988 33.8003 5.00321
723 2 2.2208 2.16358 33.8438 1.91508
711 1 -1.1104 0.87841 35.4933 0.69413
714 1 -1.1104 0.799872 34.9869 3.31786
718 2 2.2208 5.10472 36.6345 2.12014
722 1 -1.1104 3.71075 35.4341 0.723449
725 1 -1.1104 3.54637 35.2695 3.29738
727 2 2.2208 2.22513 36.6986 5.15767
755 2 2.2208 5.06664 39.4266 4.99875
761 1 -1.1104 0.614823 38.3216 1.04419
766 1 -1.1104 0.883453 37.8476 3.69038
771 2 2.2208 2.20644 39.46 2.25201
775 1 -1.1104 3.58135 38.0496 0.781511
777 1 -1.1104 3.6288 37.9846 3.66536
768 1 -1.1104 6.44836 38.238 3.45337
763 1 -1.1104 6.41139 38.1535 0.673538
712 1 -1.1104 6.34312 34.9934 0.78222
715 1 -1.1104 6.36709 35.4122 3.63719
860 1 -1.1104 0.443723 34.9908 6.07447