ITEM: TIMESTEP
100000
ITEM: NUMBER OF ATOMS
17760
ITEM: BOX BOUNDS pp pp pp
-3.3385666264627140e-01 2.7673856662646823e+01
-4.0549943319305557e+00 3.3213499433193215e+02
-3.3129550161051519e-01 2.7671295501610764e+01
ITEM: ATOMS id type q x y z
1 2 2.2208 5.24022 1.54529 5.33259
2 1 -1.1104 1.04938 -2.60043 1.12998
3 1 -1.1104 1.04953 2.84949 1.0942
6 1 -1.1104 1.07709 -2.67348 3.8559
7 1 -1.1104 1.06718 2.9338 3.785
10 1 -1.1104 1.04469 0.163784 1.09123
12 2 2.2208 5.27751 -1.37491 2.46668
13 2 2.2208 5.28539 4.34151 2.42174
14 1 -1.1104 1.02987 0.156349 3.84566
16 1 -1.1104 3.89098 -2.79913 1.08549
17 1 -1.1104 3.87406 2.90694 1.12498
18 2 2.2208 2.43753 1.50272 2.41805
19 1 -1.1104 3.85046 -2.71665 3.92502
20 1 -1.1104 3.87562 2.84054 3.90439
21 2 2.2208 2.47507 -1.1627 5.26932
22 2 2.2208 2.48036 4.26717 5.1508
23 1 -1.1104 3.80323 0.0185489 1.08873
24 1 -1.1104 3.92432 0.0864941 3.83607
11 1 -1.1104 6.58459 0.157877 1.12842
170 1 -1.1104 0.954613 0.115727 6.62007
5 1 -1.1104 6.65405 2.94047 1.14135
9 1 -1.1104 6.65635 2.93081 3.95967
166 1 -1.1104 1.06594 -2.65893 6.66853
577 2 2.2208 5.35637 -4.04181 -0.243715
333 2 2.2208 5.23336 1.50642 -0.258742
4 1 -1.1104 6.70704 -2.5971 1.11423
15 1 -1.1104 6.69711 0.0227309 3.92459
8 1 -1.1104 6.72808 -2.72497 3.93087
31 2 2.2208 10.8594 1.55978 5.26722
32 1 -1.1104 12.255 -2.71903 1.15084
33 1 -1.1104 12.3828 2.93793 1.16212
34 1 -1.1104 12.2515 -2.70229 3.93265
35 1 -1.1104 12.2928 2.86688 4.00453
36 1 -1.1104 12.2622 0.127376 1.04888
37 2 2.2208 10.8579 -1.27074 2.54708
38 2 2.2208 10.8791 4.31342 2.52783
39 1 -1.1104 12.1837 0.178326 3.85558
40 1 -1.1104 9.48 -2.7004 1.05013
41 1 -1.1104 9.57003 2.95235 1.09068
42 2 2.2208 8.13744 1.50532 2.46286
43 1 -1.1104 9.45869 -2.6114 3.84022
44 1 -1.1104 9.45893 2.87297 3.9135
45 2 2.2208 8.03056 -1.32995 5.3065
46 2 2.2208 8.03032 4.31497 5.29738
47 1 -1.1104 9.4246 0.151645 1.09326
48 1 -1.1104 9.47569 0.107138 3.89506
336 2 2.2208 10.9024 1.50398 -0.307558
606 2 2.2208 10.8629 -3.99703 -0.27618
52 2 2.2208 10.8076 -4.05115 5.28904
208 1 -1.1104 9.45039 -2.76232 6.65032
207 1 -1.1104 12.1831 0.143812 6.64979
51 2 2.2208 8.13666 -4.03512 2.39438
338 2 2.2208 8.0941 4.3127 -0.265811
54 2 2.2208 5.21922 7.11839 5.3231
55 2 2.2208 5.29029 12.6218 5.29548
56 1 -1.1104 1.13564 8.46386 1.09896
58 1 -1.1104 1.07209 8.53926 3.92371
60 1 -1.1104 1.06338 5.63711 1.09888
61 1 -1.1104 1.03463 11.2328 1.04742
66 2 2.2208 5.17166 9.85592 2.57409
67 1 -1.1104 1.13558 5.74852 3.79396
68 1 -1.1104 1.06265 11.2123 3.8723
71 1 -1.1104 3.93224 8.35458 1.11002
72 2 2.2208 2.44505 7.10188 2.43456
73 2 2.2208 2.39854 12.5814 2.44134
74 1 -1.1104 3.73387 8.41167 3.84197
75 2 2.2208 2.39646 9.81717 5.28593
76 1 -1.1104 3.83458 5.64481 0.957486
77 1 -1.1104 3.7594 11.0829 1.04548
79 1 -1.1104 3.91496 5.67102 3.81314
80 1 -1.1104 3.85837 11.1559 3.95054
343 2 2.2208 2.40112 9.80415 -0.327587
70 1 -1.1104 6.61012 11.3684 3.91394
238 1 -1.1104 3.82282 8.46635 6.66831
344 2 2.2208 5.24187 12.6818 -0.275213
59 1 -1.1104 6.50527 8.59167 3.95014
78 1 -1.1104 3.83131 11.3229 6.6427
236 1 -1.1104 0.905296 5.66478 6.60582
234 1 -1.1104 1.00572 8.36309 6.62701
64 1 -1.1104 6.75364 11.2323 1.12126
57 1 -1.1104 6.75222 8.49994 1.06889
69 1 -1.1104 6.69007 5.68405 3.9097
340 2 2.2208 10.8641 12.686 -0.234999
63 1 -1.1104 6.69757 5.75458 1.12401
84 2 2.2208 10.8437 7.10784 5.24275
85 2 2.2208 10.8489 12.6586 5.39161
86 1 -1.1104 12.2558 8.51778 1.20968
87 1 -1.1104 12.1222 8.51503 3.95882
88 1 -1.1104 12.2699 5.69113 1.00825
89 1 -1.1104 12.3229 11.2783 1.11812
91 2 2.2208 10.8091 9.85311 2.5372
92 1 -1.1104 12.3268 5.73785 3.90497
93 1 -1.1104 12.1574 11.2288 3.86317
94 1 -1.1104 9.42625 8.4804 1.1145
95 2 2.2208 8.03094 7.05844 2.54959
96 2 2.2208 8.07808 12.6607 2.5966
97 1 -1.1104 9.34138 8.38474 3.97108
98 2 2.2208 7.94381 9.875 5.28953
99 1 -1.1104 9.4079 5.722 1.08011
100 1 -1.1104 9.51571 11.2195 1.15263
102 1 -1.1104 9.51734 5.63688 3.82548
103 1 -1.1104 9.35687 11.248 4.04416
342 2 2.2208 10.9032 7.16734 -0.317385
341 2 2.2208 8.10618 9.88422 -0.29214
8947 2 2.2208 13.5889 9.80266 5.28992
266 1 -1.1104 12.2495 5.71894 6.65703
9230 2 2.2208 13.6628 7.06941 2.41004
9229 2 2.2208 13.6143 12.6622 2.54195
118 1 -1.1104 6.64947 16.9746 6.62807
106 2 2.2208 5.2958 18.3453 5.33448
107 1 -1.1104 1.11418 13.9883 1.05589
109 1 -1.1104 1.05042 19.5995 1.13846
113 1 -1.1104 1.02415 13.9207 3.85965
114 1 -1.1104 0.953579 19.6234 3.87823
116 1 -1.1104 1.02853 16.8482 1.06244
119 2 2.2208 5.23871 15.4287 2.51095
120 2 2.2208 5.27847 20.9644 2.514
121 1 -1.1104 1.10679 16.7294 3.95721
123 1 -1.1104 3.8159 14.032 1.03296
125 1 -1.1104 3.8166 19.5268 1.16555
127 2 2.2208 2.43843 18.2311 2.5896
128 1 -1.1104 3.7559 13.9624 3.84493
129 1 -1.1104 3.82733 19.7763 3.93521
130 2 2.2208 2.37919 15.3765 5.26451
131 2 2.2208 2.40247 21.0971 5.22517
132 1 -1.1104 3.79635 16.8224 1.13966
134 1 -1.1104 3.89869 16.8299 4.03347
313 2 2.2208 2.49198 20.968 -0.285387
312 2 2.2208 5.24738 18.2481 -0.288657
115 1 -1.1104 6.5981 14.0314 3.97701
108 1 -1.1104 1.00607 13.9723 6.64057
311 2 2.2208 2.44561 15.4419 -0.265896
110 1 -1.1104 6.62217 14.0399 1.20116
138 1 -1.1104 6.64061 19.6085 1.08568
112 1 -1.1104 6.61291 19.7491 6.64551
156 1 -1.1104 9.41734 19.6602 6.6176
122 1 -1.1104 6.68009 16.7275 3.83233
139 1 -1.1104 6.70833 19.6853 3.9262
140 1 -1.1104 6.70708 16.8242 0.988167
141 2 2.2208 10.8336 18.3317 5.30965
142 1 -1.1104 12.1951 14.1079 1.18185
144 1 -1.1104 12.1588 19.6271 1.09373
146 1 -1.1104 12.1943 14.1082 3.9139
147 1 -1.1104 12.3068 19.6708 3.87425
148 1 -1.1104 12.2774 16.9275 1.12406
150 2 2.2208 10.8814 15.4968 2.53006
151 2 2.2208 10.8531 21.1107 2.44149
152 1 -1.1104 12.2076 16.8494 3.99343
153 1 -1.1104 9.55971 13.9984 1.16023
155 1 -1.1104 9.3712 19.6776 0.942896
157 2 2.2208 8.12049 18.1462 2.49924
158 1 -1.1104 9.50227 14.0681 3.89509
159 1 -1.1104 9.56654 19.6645 3.87723
160 2 2.2208 7.97989 15.4376 5.37202
161 2 2.2208 8.10621 21.0797 5.22504
162 1 -1.1104 9.42597 16.8007 1.08639
164 1 -1.1104 9.38808 16.9293 3.94609
317 2 2.2208 7.94332 21.0807 -0.264673
316 2 2.2208 10.8346 18.2598 -0.313389
9234 2 2.2208 13.6488 18.2197 2.50454
9269 2 2.2208 13.631 20.9887 -0.287839
9270 2 2.2208 13.6537 15.5416 -0.224458
167 1 -1.1104 1.07979 2.95624 6.74901
172 1 -1.1104 3.98553 -2.6667 6.71461
174 1 -1.1104 3.82222 0.1063 6.70798
168 1 -1.1104 6.64278 -2.75036 6.77538
9235 2 2.2208 -0.258764 4.2895 8.06008
173 1 -1.1104 3.90314 2.8815 6.68195
175 2 2.2208 5.30405 1.53907 10.7928
176 1 -1.1104 1.13051 -2.72751 12.2874
177 1 -1.1104 1.02735 2.90769 12.2723
180 1 -1.1104 1.01211 -2.63665 9.48326
181 1 -1.1104 1.01632 2.86821 9.47091
184 1 -1.1104 1.06111 0.0520103 12.2281
186 2 2.2208 5.22127 -1.33693 8.15656
187 2 2.2208 5.24484 4.24349 8.09991
188 1 -1.1104 1.11861 0.109276 9.52377
190 1 -1.1104 3.87774 -2.65009 12.2126
191 1 -1.1104 3.85213 2.9185 12.2612
192 2 2.2208 2.48979 1.46697 8.06779
193 1 -1.1104 3.75198 -2.74705 9.4859
194 1 -1.1104 3.81846 2.82746 9.48503
195 2 2.2208 2.46683 -1.25657 10.8562
196 2 2.2208 2.46992 4.25796 10.8584
197 1 -1.1104 3.95206 0.115057 12.2902
198 1 -1.1104 3.83678 0.0798017 9.48289
171 1 -1.1104 6.62696 0.0535524 6.74855
179 1 -1.1104 6.58501 2.91026 12.1659
310 2 2.2208 5.27836 -1.25256 13.5882
182 1 -1.1104 6.63293 -2.76078 9.67431
169 1 -1.1104 6.65545 2.83889 6.71673
183 1 -1.1104 6.66258 2.87341 9.45834
315 2 2.2208 5.24894 4.30614 13.6439
314 2 2.2208 2.46489 1.48538 13.5918
232 2 2.2208 10.8761 -4.03326 10.8665
210 1 -1.1104 9.49404 0.0579953 6.77624
9242 2 2.2208 13.5347 -4.05025 8.0947
189 1 -1.1104 6.74766 0.0586699 9.48232
185 1 -1.1104 6.71793 0.183032 12.1927
205 1 -1.1104 12.2519 -2.54855 6.70655
9053 2 2.2208 13.6401 4.34848 10.9485
178 1 -1.1104 6.69919 -2.69281 12.3332
209 1 -1.1104 9.4437 2.90897 6.84702
206 1 -1.1104 12.2082 2.95328 6.67188
211 2 2.2208 10.7735 1.52476 10.9444
212 1 -1.1104 12.2894 -2.61512 12.3512
213 1 -1.1104 12.1794 2.92808 12.3226
214 1 -1.1104 12.1986 -2.67813 9.53552
215 1 -1.1104 12.2121 2.9219 9.55956
216 1 -1.1104 12.2032 0.10615 12.3097
217 2 2.2208 10.8688 -1.28781 8.12279
218 2 2.2208 10.8739 4.30381 8.15742
219 1 -1.1104 12.1443 0.0682739 9.43956
220 1 -1.1104 9.55663 -2.72834 12.2867
221 1 -1.1104 9.36052 3.06684 12.4253
222 2 2.2208 8.08063 1.46066 8.09167
223 1 -1.1104 9.40178 -2.81533 9.47581
224 1 -1.1104 9.39982 2.89685 9.61651
225 2 2.2208 8.09616 -1.3028 10.967
226 2 2.2208 8.0143 4.38629 10.8218
227 1 -1.1104 9.45693 0.109829 12.3515
228 1 -1.1104 9.44577 0.0590117 9.46303
9237 2 2.2208 13.5074 1.53578 8.15778
320 2 2.2208 10.9025 4.36166 13.667
62 1 -1.1104 0.951639 11.1537 6.77275
65 1 -1.1104 6.64421 11.2074 6.75084
239 1 -1.1104 3.78766 5.73464 6.68983
240 2 2.2208 5.24438 7.07442 10.8756
241 2 2.2208 5.2585 12.7427 10.9078
242 1 -1.1104 1.06145 8.44186 12.1363
244 1 -1.1104 1.05744 8.43729 9.44152
246 1 -1.1104 1.01134 5.60121 12.3463
247 1 -1.1104 1.01277 11.2567 12.3672
250 2 2.2208 5.19719 9.82616 8.15736
251 1 -1.1104 1.093 5.68882 9.47669
252 1 -1.1104 0.967102 11.2743 9.56814
255 1 -1.1104 3.86437 8.42297 12.3001
256 2 2.2208 2.43502 6.99792 8.05011
257 2 2.2208 2.4563 12.6245 8.0986
258 1 -1.1104 3.91136 8.40771 9.46632
259 2 2.2208 2.40946 9.85977 10.8779
260 1 -1.1104 3.71803 5.66342 12.3115
261 1 -1.1104 3.78279 11.2136 12.168
262 1 -1.1104 3.88296 5.66541 9.37298
263 1 -1.1104 3.80819 11.1985 9.47407
9148 2 2.2208 -0.324472 7.01136 10.8647
235 1 -1.1104 6.57989 8.45877 6.73089
254 1 -1.1104 6.62662 11.2796 9.54582
249 1 -1.1104 6.58582 11.3433 12.3638
237 1 -1.1104 6.59726 5.68743 6.69658
253 1 -1.1104 6.64759 5.64401 9.40331
248 1 -1.1104 6.54462 5.74954 12.2763
322 2 2.2208 5.21017 9.93655 13.6451
321 2 2.2208 2.39908 7.03076 13.6406
267 1 -1.1104 9.3638 8.57588 6.75709
101 1 -1.1104 9.47037 11.3334 6.88698
269 1 -1.1104 9.46695 5.64991 6.72029
243 1 -1.1104 6.71193 8.62549 12.3265
9134 2 2.2208 13.5794 9.90499 10.8882
245 1 -1.1104 6.76523 8.53173 9.56389
90 1 -1.1104 12.2296 11.1803 6.69167
265 1 -1.1104 12.2711 8.38391 6.71994
264 1 -1.1104 9.49091 11.2497 9.56632
268 1 -1.1104 9.41126 5.74332 9.58766
270 1 -1.1104 9.4881 11.3966 12.3243
271 1 -1.1104 9.47769 5.72199 12.2308
272 2 2.2208 8.03965 9.94072 10.9063
273 1 -1.1104 9.36102 8.51402 9.52524
274 2 2.2208 8.06467 12.6024 8.1403
275 2 2.2208 8.05351 7.0883 7.99063
276 2 2.2208 10.8476 7.09815 10.9705
277 2 2.2208 10.9503 12.6622 10.9116
278 1 -1.1104 12.307 8.42302 12.2575
279 1 -1.1104 12.199 8.45367 9.42409
280 1 -1.1104 12.1996 5.74122 12.3316
281 1 -1.1104 12.2633 11.2587 12.2954
282 2 2.2208 10.7811 9.89224 8.13867
283 1 -1.1104 12.2643 5.68595 9.54966
284 1 -1.1104 12.1976 11.3015 9.52026
285 1 -1.1104 9.48606 8.6171 12.2287
9258 2 2.2208 13.668 7.13012 13.623
9129 2 2.2208 13.5823 7.06303 8.17943
324 2 2.2208 8.04042 7.07044 13.6645
325 2 2.2208 10.7887 9.8801 13.659
124 1 -1.1104 3.91495 14.0096 6.69441
126 1 -1.1104 3.79119 19.6314 6.76086
296 1 -1.1104 6.65648 19.5771 12.4123
117 1 -1.1104 1.03077 16.9074 6.79509
302 1 -1.1104 1.06011 19.7464 6.70346
133 1 -1.1104 3.78276 16.7931 6.80282
307 1 -1.1104 0.944299 16.9111 12.4338
305 1 -1.1104 3.79986 14.13 9.53318
229 2 2.2208 2.30442 15.4974 11.0615
230 2 2.2208 2.31531 21.0578 10.9035
233 1 -1.1104 3.77351 16.8579 12.3669
286 1 -1.1104 3.8 19.7158 12.2682
287 1 -1.1104 3.74989 14.0433 12.3174
291 1 -1.1104 0.848614 19.6177 9.51281
292 1 -1.1104 0.884179 16.7892 9.64437
293 2 2.2208 5.18559 21.0525 8.14736
294 1 -1.1104 0.932896 14.0485 9.53799
295 2 2.2208 5.15603 15.4621 8.16888
298 1 -1.1104 1.03833 19.6747 12.3704
299 1 -1.1104 0.975827 14.068 12.3792
300 2 2.2208 5.26389 18.2244 10.9361
301 1 -1.1104 3.8154 19.6802 9.50183
303 2 2.2208 2.41124 18.2802 8.13293
304 1 -1.1104 3.8284 16.9101 9.72155
288 1 -1.1104 6.62096 19.5877 9.52892
289 1 -1.1104 6.55206 16.9269 9.43235
290 1 -1.1104 6.56678 14.0563 9.48319
331 2 2.2208 10.8327 15.4661 13.6689
82 1 -1.1104 12.2423 16.9198 9.53048
306 1 -1.1104 6.69813 16.8107 12.3308
135 1 -1.1104 9.51708 13.9964 9.52812
26 1 -1.1104 12.3928 14.0672 12.359
83 1 -1.1104 9.48832 14.182 12.3034
145 1 -1.1104 12.2308 19.6131 6.77255
149 1 -1.1104 12.2996 16.8573 6.68503
143 1 -1.1104 12.3514 13.9464 6.7197
27 1 -1.1104 12.2596 19.6465 12.217
200 1 -1.1104 9.35586 16.9075 9.4317
30 1 -1.1104 12.2963 14.1317 9.51806
154 1 -1.1104 9.47042 14.0424 6.72882
136 1 -1.1104 9.46259 19.687 9.47908
199 1 -1.1104 9.46527 17.006 12.2838
111 1 -1.1104 6.70422 14.0105 6.81745
297 1 -1.1104 6.72684 14.1467 12.2216
137 2 2.2208 8.05624 15.4294 10.8872
81 2 2.2208 10.9345 21.0216 8.14722
105 2 2.2208 8.04223 18.382 8.07159
50 1 -1.1104 12.1714 16.8212 12.2569
9219 2 2.2208 13.661 18.2527 8.03056
104 1 -1.1104 9.47453 19.7083 12.2692
25 2 2.2208 10.7932 18.3007 10.9558
163 1 -1.1104 9.51395 16.8106 6.71344
49 1 -1.1104 12.3165 19.6493 9.53638
165 2 2.2208 7.97122 21.0275 10.9364
53 2 2.2208 10.8852 15.4971 8.09823
9180 2 2.2208 13.6558 21.1268 10.9319
9265 2 2.2208 13.6004 18.2515 13.6476
345 2 2.2208 5.2798 1.44878 16.4765
346 1 -1.1104 1.10157 -2.76404 17.8076
347 1 -1.1104 1.118 2.87377 17.7841
350 1 -1.1104 1.10568 -2.76108 15.0978
352 1 -1.1104 1.09286 2.85609 15.0444
358 1 -1.1104 1.08405 0.0541843 17.8331
360 2 2.2208 5.36506 -1.19963 19.3688
361 2 2.2208 5.27536 4.22271 19.2614
362 1 -1.1104 1.12729 0.105458 15.0669
366 1 -1.1104 3.95048 -2.6728 17.9321
367 1 -1.1104 3.89013 2.89238 17.8614
368 2 2.2208 2.54471 1.527 19.2269
369 1 -1.1104 3.87938 -2.7426 14.9763
371 1 -1.1104 3.92094 2.77662 15.0569
373 2 2.2208 2.48879 -1.28929 16.3887
374 2 2.2208 2.47861 4.27011 16.4474
375 1 -1.1104 3.94425 0.0572321 17.917
376 1 -1.1104 3.85803 0.0170139 15.0437
9255 2 2.2208 -0.329059 4.25787 13.7602
381 2 2.2208 -0.267297 1.52059 16.5281
9470 2 2.2208 -0.272433 -1.33599 19.3093
363 1 -1.1104 1.16352 0.0593376 20.6162
372 1 -1.1104 3.91781 2.86124 20.6609
364 1 -1.1104 6.66608 0.130835 15.0416
356 1 -1.1104 6.65603 2.91363 15.0844
354 1 -1.1104 6.60876 -2.59324 14.9748
380 2 2.2208 2.47203 -4.04738 19.2411
379 2 2.2208 5.24458 -3.99922 16.4974
353 1 -1.1104 1.08311 2.86348 20.6602
9365 2 2.2208 -0.31168 4.25299 19.2721
413 2 2.2208 10.9004 -3.98236 16.4607
348 1 -1.1104 6.75045 -2.70876 17.7116
349 1 -1.1104 6.78206 2.89005 18.063
359 1 -1.1104 6.78999 0.131145 17.9215
388 2 2.2208 10.8487 1.52514 16.568
389 1 -1.1104 12.3808 -2.56562 17.8946
390 1 -1.1104 12.2183 2.88578 17.904
391 1 -1.1104 12.2691 -2.71581 15.1201
393 1 -1.1104 12.3343 2.81835 14.9724
395 1 -1.1104 12.3366 0.172294 17.8405
396 2 2.2208 10.9747 -1.24742 19.3188
397 2 2.2208 10.9383 4.31578 19.3461
398 1 -1.1104 12.2475 -0.00300845 15.1558
400 1 -1.1104 9.58991 -2.65673 17.9158
401 1 -1.1104 9.50501 2.96379 17.9451
402 2 2.2208 8.14568 1.51838 19.2849
403 1 -1.1104 9.45933 -2.6787 15.1484
405 1 -1.1104 9.4374 2.94164 15.1953
407 2 2.2208 8.08963 -1.21693 16.4935
408 2 2.2208 8.07576 4.33976 16.4964
409 1 -1.1104 9.56842 0.0973395 17.8588
410 1 -1.1104 9.44502 0.185098 15.0808
319 2 2.2208 10.9542 -1.2551 13.698
415 2 2.2208 8.06003 -4.0332 13.7421
9247 2 2.2208 13.656 1.39259 13.6789
355 1 -1.1104 6.74723 -2.71191 20.5673
392 1 -1.1104 12.3125 -2.69331 20.6487
404 1 -1.1104 9.56743 -2.64721 20.6064
406 1 -1.1104 9.55603 2.82874 20.6466
411 1 -1.1104 9.52142 0.0402423 20.6326
9322 2 2.2208 13.6604 4.27707 16.4262
318 2 2.2208 8.1199 1.57903 13.6955
9437 2 2.2208 -0.320025 9.9278 19.2431
421 2 2.2208 5.24743 7.14113 16.4407
422 2 2.2208 5.28603 12.6124 16.43
423 1 -1.1104 1.08936 8.44518 17.908
425 1 -1.1104 0.951119 8.46491 15.0684
429 1 -1.1104 1.09083 5.71784 17.9596
430 1 -1.1104 1.07525 11.2714 17.8923
433 2 2.2208 5.24198 9.86658 19.3149
434 1 -1.1104 1.03533 5.60212 15.1674
436 1 -1.1104 1.07291 11.2315 15.2134
442 1 -1.1104 3.78813 8.47607 17.8374
443 2 2.2208 2.46723 7.0551 19.2712
444 2 2.2208 2.50439 12.6711 19.2843
445 1 -1.1104 3.73465 8.49153 15.0922
447 2 2.2208 2.45829 9.91353 16.5078
448 1 -1.1104 3.8358 5.61015 17.9289
449 1 -1.1104 3.8003 11.2399 17.8723
450 1 -1.1104 3.92893 5.70091 15.0439
452 1 -1.1104 3.89864 11.2536 15.0433
9438 2 2.2208 -0.278415 7.05976 16.5297
323 2 2.2208 2.37085 12.672 13.6904
438 1 -1.1104 6.66788 5.67019 14.9979
453 1 -1.1104 3.88737 11.2051 20.6394
427 1 -1.1104 6.60422 8.43077 15.1229
431 1 -1.1104 6.65277 5.69718 17.77
440 1 -1.1104 6.66457 11.3375 15.0711
432 1 -1.1104 6.53663 11.3036 17.8232
424 1 -1.1104 6.61807 8.45497 17.9652
437 1 -1.1104 1.08921 11.3102 20.668
441 1 -1.1104 6.60976 11.206 20.6152
9398 2 2.2208 13.6007 12.639 19.374
457 2 2.2208 10.8598 7.07205 16.4439
458 2 2.2208 10.7777 12.6109 16.5783
459 1 -1.1104 12.2226 8.36642 17.8939
460 1 -1.1104 12.2547 8.498 15.084
462 1 -1.1104 12.2092 5.61945 17.9186
463 1 -1.1104 12.1954 11.1022 17.8825
464 2 2.2208 10.8177 9.84473 19.2656
465 1 -1.1104 12.2759 5.61332 15.0593
467 1 -1.1104 12.2201 11.3652 15.0474
469 1 -1.1104 9.46804 8.48691 17.9036
470 2 2.2208 8.01057 7.04501 19.3135
471 2 2.2208 8.0735 12.6265 19.3274
472 1 -1.1104 9.4 8.4977 15.0188
474 2 2.2208 8.04099 9.90537 16.4721
475 1 -1.1104 9.48411 5.68495 17.9156
476 1 -1.1104 9.48272 11.2751 17.9115
477 1 -1.1104 9.63009 5.7434 15.069
479 1 -1.1104 9.52838 11.2474 15.1648
326 2 2.2208 8.04442 12.7615 13.7339
480 1 -1.1104 9.37297 11.2967 20.6576
468 1 -1.1104 12.2137 11.2225 20.6658
439 1 -1.1104 6.7065 5.59789 20.5299
466 1 -1.1104 12.2743 5.71261 20.6497
9397 2 2.2208 13.6512 7.10176 19.3041
9396 2 2.2208 13.6115 9.85983 16.5011
9278 2 2.2208 -0.255454 21.0523 13.7708
329 2 2.2208 5.17769 15.4365 13.6784
484 2 2.2208 5.23655 18.2319 16.4456
485 1 -1.1104 0.993571 14.0396 17.902
486 1 -1.1104 1.0464 19.6263 17.9316
489 1 -1.1104 0.922781 14.0547 15.1391
491 1 -1.1104 1.0982 19.6377 15.111
497 1 -1.1104 1.00925 16.7774 17.9632
499 2 2.2208 5.27604 15.56 19.2679
500 2 2.2208 5.27184 21.0316 19.4006
501 1 -1.1104 1.06812 16.7915 15.2026
505 1 -1.1104 3.9533 14.0923 17.8478
506 1 -1.1104 3.90968 19.6469 17.9051
507 2 2.2208 2.53804 18.3156 19.3715
508 1 -1.1104 3.7391 13.9842 15.1228
510 1 -1.1104 3.85738 19.6042 15.077
512 2 2.2208 2.36423 15.4 16.5019
513 2 2.2208 2.4749 20.9862 16.6178
514 1 -1.1104 3.82095 16.8516 17.9723
515 1 -1.1104 3.8734 16.8003 15.0692
503 1 -1.1104 6.59413 16.8492 15.0475
328 2 2.2208 5.24169 21.0294 13.7534
493 1 -1.1104 6.63697 14.0899 15.0941
502 1 -1.1104 1.10213 16.7469 20.5947
9509 2 2.2208 -0.325374 18.1405 16.5381
327 2 2.2208 2.42667 18.2954 13.7554
498 1 -1.1104 6.69149 16.7914 17.8844
487 1 -1.1104 6.71587 14.0296 17.9271
488 1 -1.1104 6.67037 19.5879 17.9403
495 1 -1.1104 6.67347 19.7015 15.1841
330 2 2.2208 10.7787 21.0227 13.7574
520 2 2.2208 10.7985 18.2787 16.5841
521 1 -1.1104 12.3346 13.9582 17.9276
522 1 -1.1104 12.2491 19.6426 17.8588
523 1 -1.1104 12.1255 14.2318 15.1757
525 1 -1.1104 12.1728 19.6841 15.0829
527 1 -1.1104 12.2865 16.7943 17.8865
528 2 2.2208 10.8777 15.5194 19.3147
529 2 2.2208 10.8713 21.0873 19.2957
530 1 -1.1104 12.2126 16.9331 15.097
532 1 -1.1104 9.47355 14.0607 17.982
533 1 -1.1104 9.43531 19.7902 17.9257
534 2 2.2208 8.08492 18.3384 19.3114
535 1 -1.1104 9.33496 14.0107 15.245
537 1 -1.1104 9.39785 19.6312 15.1027
539 2 2.2208 8.04925 15.4241 16.5297
540 2 2.2208 7.98004 21.0444 16.5323
541 1 -1.1104 9.5021 16.9192 17.9616
542 1 -1.1104 9.40286 16.8114 15.1918
332 2 2.2208 8.06323 18.2296 13.7571
334 2 2.2208 2.51428 -1.30718 27.6254
9400 2 2.2208 -0.293637 -1.38233 24.8044
377 1 -1.1104 3.86578 0.0882672 20.6993
370 1 -1.1104 3.94037 -2.70561 20.8
351 1 -1.1104 1.11679 -2.71091 20.7166
548 2 2.2208 5.30538 1.49128 22.1108
549 1 -1.1104 1.09213 -2.7215 23.4949
550 1 -1.1104 1.08509 2.90793 23.4285
553 1 -1.1104 1.11227 -2.7993 26.3226
554 1 -1.1104 1.10132 2.78472 26.3417
557 1 -1.1104 1.10891 0.0474315 23.4756
559 2 2.2208 5.21097 -1.25973 24.8771
560 2 2.2208 5.26596 4.27545 24.9063
561 1 -1.1104 1.04284 0.00470316 26.2828
563 1 -1.1104 3.87686 -2.68464 23.5486
564 1 -1.1104 3.91356 2.8702 23.5445
565 2 2.2208 2.48686 1.48356 24.8696
566 1 -1.1104 4.01269 -2.68136 26.3345
567 1 -1.1104 3.85221 2.88185 26.2295
568 2 2.2208 2.52828 -1.34244 22.127
569 2 2.2208 2.47773 4.17761 22.0876
570 1 -1.1104 3.88132 0.102744 23.4967
571 1 -1.1104 3.80709 0.113778 26.2407
558 1 -1.1104 6.64189 0.0909839 23.4805
9399 2 2.2208 -0.260169 1.4849 22.0477
556 1 -1.1104 6.62888 2.85097 26.3424
335 2 2.2208 2.53543 4.27268 27.6693
608 2 2.2208 8.09011 -4.05047 24.8935
357 1 -1.1104 6.74502 2.90349 20.7685
365 1 -1.1104 6.74724 0.133775 20.8221
394 1 -1.1104 12.3408 2.92386 20.7839
562 1 -1.1104 6.69675 -0.0123271 26.2244
555 1 -1.1104 6.7241 -2.71926 26.2753
552 1 -1.1104 6.70644 2.98555 23.5254
399 1 -1.1104 12.2625 0.102917 20.6954
551 1 -1.1104 6.7891 -2.70358 23.4766
584 2 2.2208 10.9118 1.50963 22.143
585 1 -1.1104 12.4053 -2.67655 23.5016
586 1 -1.1104 12.2201 2.75347 23.6175
587 1 -1.1104 12.3207 -2.69985 26.3527
588 1 -1.1104 12.3055 2.90328 26.2988
589 1 -1.1104 12.2704 0.0796653 23.4707
590 2 2.2208 10.9529 -1.31765 24.8139
591 2 2.2208 10.8399 4.32015 24.9115
592 1 -1.1104 12.3847 0.092218 26.2523
593 1 -1.1104 9.64121 -2.62289 23.4059
594 1 -1.1104 9.49621 2.82798 23.4974
595 2 2.2208 8.11486 1.4966 24.9398
596 1 -1.1104 9.44071 -2.52063 26.1951
597 1 -1.1104 9.39182 2.94554 26.3056
598 2 2.2208 8.11679 -1.21963 22.096
599 2 2.2208 8.07109 4.23071 22.0547
600 1 -1.1104 9.4879 0.140612 23.4789
601 1 -1.1104 9.56592 0.137843 26.3589
9369 2 2.2208 13.6582 -1.30313 22.0155
337 2 2.2208 8.06501 -1.27311 27.6395
426 1 -1.1104 0.899031 8.43005 20.7008
451 1 -1.1104 3.8075 5.60226 20.7804
435 1 -1.1104 1.0914 5.63984 20.6725
446 1 -1.1104 3.72105 8.45248 20.6768
613 2 2.2208 5.20063 7.04551 22.1086
614 2 2.2208 5.27835 12.6528 22.037
615 1 -1.1104 1.09007 8.37648 23.452
617 1 -1.1104 0.977308 8.42269 26.2667
619 1 -1.1104 1.0737 5.60995 23.577
620 1 -1.1104 1.13166 11.264 23.5295
623 2 2.2208 5.18657 9.82546 24.9411
624 1 -1.1104 1.09492 5.59858 26.2905
625 1 -1.1104 1.00984 11.2892 26.2656
628 1 -1.1104 3.93028 8.48103 23.5076
629 2 2.2208 2.40868 7.01124 24.9131
630 2 2.2208 2.46759 12.6448 24.9092
631 1 -1.1104 3.80248 8.40861 26.2568
632 2 2.2208 2.39011 9.87444 22.1169
633 1 -1.1104 3.86483 5.64835 23.4976
634 1 -1.1104 3.93334 11.2948 23.5769
635 1 -1.1104 3.96933 5.6319 26.3494
636 1 -1.1104 3.86171 11.1997 26.3194
627 1 -1.1104 6.60229 11.2261 26.329
622 1 -1.1104 6.60857 11.2279 23.419
626 1 -1.1104 6.65285 5.68874 26.2468
428 1 -1.1104 6.56253 8.34917 20.7221
339 2 2.2208 5.37254 7.09621 27.6695
473 1 -1.1104 9.45564 8.57855 20.6777
461 1 -1.1104 12.2267 8.5289 20.7484
9588 2 2.2208 13.6054 9.86533 22.2158
9326 2 2.2208 13.5963 12.6877 24.9339
621 1 -1.1104 6.69674 5.70683 23.4093
616 1 -1.1104 6.70942 8.49183 23.5355
478 1 -1.1104 9.44434 5.6753 20.6936
618 1 -1.1104 6.77443 8.53336 26.3399
637 1 -1.1104 9.50634 8.42984 23.4702
638 1 -1.1104 12.2015 11.3492 26.3374
639 1 -1.1104 12.2504 5.72343 26.2831
644 1 -1.1104 9.40088 11.2715 26.2613
645 1 -1.1104 9.40328 5.68945 26.2584
646 1 -1.1104 9.41336 11.2803 23.472
647 1 -1.1104 9.36947 5.59127 23.4321
648 2 2.2208 7.98576 9.82656 22.1257
649 1 -1.1104 9.49943 8.50605 26.3968
650 2 2.2208 8.0676 12.6521 24.8832
651 2 2.2208 8.05556 7.05313 24.8425
652 2 2.2208 10.8446 7.07378 22.0907
653 2 2.2208 10.8211 12.6372 22.0548
654 1 -1.1104 12.3355 8.36534 23.5145
655 1 -1.1104 12.2217 8.53257 26.351
656 1 -1.1104 12.2271 5.61739 23.4307
657 1 -1.1104 12.1412 11.1145 23.5872
658 2 2.2208 10.8092 9.84844 24.9637
482 1 -1.1104 6.57933 13.9701 23.5536
516 1 -1.1104 3.93903 16.8888 20.7544
492 1 -1.1104 0.995483 19.5969 20.746
546 1 -1.1104 6.63325 16.8622 26.2
490 1 -1.1104 1.07775 13.9795 20.7613
511 1 -1.1104 3.80752 19.7385 20.7956
509 1 -1.1104 3.85004 13.9514 20.6726
574 1 -1.1104 3.85275 19.6678 23.5589
572 1 -1.1104 3.81872 14.0876 23.5052
545 1 -1.1104 0.952735 19.5575 26.2219
385 2 2.2208 2.4693 15.494 22.0931
386 2 2.2208 2.49893 21.0643 22.2069
387 1 -1.1104 3.77354 16.9069 23.6083
412 1 -1.1104 0.967554 16.753 23.3874
418 1 -1.1104 3.81737 13.9796 26.3274
419 1 -1.1104 3.9038 16.8074 26.3982
420 2 2.2208 2.4277 18.1795 24.937
454 1 -1.1104 3.8135 19.5844 26.3294
455 2 2.2208 5.26646 18.2798 22.1271
456 1 -1.1104 1.01261 14.0291 23.4969
481 1 -1.1104 1.03405 19.6488 23.5339
483 2 2.2208 5.18915 15.4484 24.9674
517 2 2.2208 5.28075 21.0273 24.9444
519 1 -1.1104 1.01477 14.0877 26.3849
544 1 -1.1104 1.12491 16.7167 26.2579
518 1 -1.1104 6.60032 19.6833 23.4446
573 1 -1.1104 6.53904 14.0813 26.4647
504 1 -1.1104 6.66525 16.8967 20.6985
416 1 -1.1104 6.51091 16.8717 23.5376
308 2 2.2208 8.08604 15.4301 27.6692
494 1 -1.1104 6.70608 14.0408 20.7779
603 1 -1.1104 9.25079 16.8167 23.5252
538 1 -1.1104 9.4967 19.7172 20.7023
9467 2 2.2208 13.6552 15.4797 22.2018
9441 2 2.2208 13.5813 21.0254 22.06
526 1 -1.1104 12.3122 19.5799 20.6815
543 1 -1.1104 9.45507 16.8394 20.7429
611 1 -1.1104 9.35948 19.6459 23.4258
605 2 2.2208 10.8627 21.011 24.818
536 1 -1.1104 9.43368 14.0545 20.7261
582 1 -1.1104 12.0919 16.8314 23.511
610 1 -1.1104 9.45884 13.9929 23.4423
612 2 2.2208 7.99512 18.2357 24.8424
642 1 -1.1104 9.46941 19.5339 26.225
641 1 -1.1104 9.47704 14.0483 26.318
602 1 -1.1104 9.4741 16.7525 26.2989
581 1 -1.1104 12.2826 19.6288 26.2967
496 1 -1.1104 6.71816 19.7088 20.7592
583 2 2.2208 10.7878 15.4057 24.9238
609 1 -1.1104 12.3454 16.8471 26.2305
640 1 -1.1104 6.67174 19.5725 26.3582
604 2 2.2208 8.10539 21.1045 22.159
524 1 -1.1104 12.2379 14.0545 20.6934
9465 2 2.2208 13.6051 18.2783 24.8868
531 1 -1.1104 12.3327 16.7816 20.7227
643 2 2.2208 7.96223 15.4201 22.1046
547 2 2.2208 10.7953 18.2656 22.0966
576 1 -1.1104 12.2076 19.6474 23.5433
575 1 -1.1104 12.2853 13.9864 23.6048
580 1 -1.1104 12.2177 14.0676 26.3786
659 2 2.2208 5.23788 23.7714 5.35039
660 2 2.2208 5.26451 29.404 5.3942
661 1 -1.1104 1.06256 25.2039 1.18402
662 1 -1.1104 1.15429 25.2691 4.01771
663 1 -1.1104 1.04753 22.4281 1.12452
664 1 -1.1104 1.05092 28.0522 1.13554
665 2 2.2208 5.24926 26.7129 2.50328
666 1 -1.1104 1.09211 22.4996 3.86636
667 1 -1.1104 1.07899 28.0202 4.00236
668 1 -1.1104 3.89049 25.237 1.07593
669 2 2.2208 2.53737 23.8375 2.54719
670 2 2.2208 2.46311 29.4328 2.48183
671 1 -1.1104 3.88548 25.2604 3.82155
672 2 2.2208 2.52989 26.708 5.3088
673 1 -1.1104 3.84358 22.3191 1.05765
674 1 -1.1104 3.83572 27.9852 1.10253
675 1 -1.1104 3.86588 22.4906 3.90653
676 1 -1.1104 3.9101 28.0265 3.85389
991 2 2.2208 2.49085 26.5996 -0.265463
682 1 -1.1104 6.50503 22.4956 1.04766
684 1 -1.1104 6.61987 22.4286 3.8112
990 2 2.2208 5.2341 23.8769 -0.287291
683 1 -1.1104 6.6518 27.998 1.02141
685 1 -1.1104 6.59535 27.9537 3.95305
806 1 -1.1104 3.8826 25.1963 6.59028
802 1 -1.1104 1.12233 22.5632 6.63375
680 1 -1.1104 6.74641 25.2706 1.01536
681 1 -1.1104 6.69744 25.2216 3.89328
686 2 2.2208 10.9195 23.825 5.34279
687 2 2.2208 10.9103 29.3891 5.39432
688 1 -1.1104 12.2922 25.1955 1.10443
689 1 -1.1104 12.282 25.2038 3.89246
690 1 -1.1104 12.3047 22.4061 1.0382
691 1 -1.1104 12.3405 28.0254 1.18171
692 2 2.2208 10.9139 26.5917 2.52058
693 1 -1.1104 12.2201 22.3896 3.90395
694 1 -1.1104 12.2892 28.0703 3.98934
695 1 -1.1104 9.55281 25.1022 1.13693
696 2 2.2208 8.09618 23.8127 2.54052
697 2 2.2208 8.06915 29.4332 2.45331
698 1 -1.1104 9.46237 25.2348 3.95078
699 2 2.2208 8.0318 26.6643 5.28873
700 1 -1.1104 9.38875 22.4284 1.05981
701 1 -1.1104 9.43882 28.0092 1.1436
702 1 -1.1104 9.5036 22.3839 3.80798
703 1 -1.1104 9.41436 28.1036 3.95699
998 2 2.2208 10.8095 29.3836 -0.232043
9955 2 2.2208 13.6382 26.5819 5.29162
9952 2 2.2208 13.6479 23.8347 2.44386
9982 2 2.2208 13.6614 26.6138 -0.26359
1001 2 2.2208 5.21342 34.9742 -0.308539
707 2 2.2208 5.2091 35.0101 5.43247
708 1 -1.1104 0.91839 30.7841 1.15762
709 1 -1.1104 0.955291 36.4372 1.10905
711 1 -1.1104 1.13201 30.7893 3.96071
712 1 -1.1104 1.05553 36.3953 3.81814
714 1 -1.1104 1.08282 33.6386 1.22724
715 2 2.2208 5.22011 32.2304 2.65553
716 2 2.2208 5.19917 37.773 2.55393
717 1 -1.1104 1.11646 33.5894 3.99098
719 1 -1.1104 3.82131 30.6823 1.09258
720 1 -1.1104 3.7739 36.4165 1.23336
721 2 2.2208 2.50535 34.9931 2.58709
722 1 -1.1104 3.94444 30.8165 3.90245
723 1 -1.1104 3.75154 36.3657 4.0199
724 2 2.2208 2.50866 32.1868 5.40594
725 2 2.2208 2.39357 37.7439 5.27823
726 1 -1.1104 3.86233 33.5707 1.21114
727 1 -1.1104 3.84964 33.6217 4.00126
999 2 2.2208 2.46586 37.7736 -0.283842
1000 2 2.2208 2.43674 32.1148 -0.145046
9956 2 2.2208 -0.26632 37.8418 2.46778
713 1 -1.1104 6.63957 36.2981 3.98517
731 1 -1.1104 6.5752 30.7845 1.22416
732 1 -1.1104 6.62393 30.71 4.04014
718 1 -1.1104 6.57404 33.6161 4.00628
710 1 -1.1104 6.64003 36.2922 1.05613
858 1 -1.1104 1.03193 36.4945 6.62501
9978 2 2.2208 -0.322506 34.9968 -0.258382
729 2 2.2208 -0.286532 32.2096 2.60789
733 1 -1.1104 6.68144 33.5909 1.20694
734 2 2.2208 10.8753 34.9464 5.3301
735 1 -1.1104 12.2279 30.6478 1.14047
736 1 -1.1104 12.1477 36.3089 1.21534
737 1 -1.1104 12.4107 30.7407 4.01626
738 1 -1.1104 12.1942 36.294 3.95551
739 1 -1.1104 12.2586 33.4569 1.13482
740 2 2.2208 10.8471 32.1521 2.5575
741 2 2.2208 10.9141 37.7442 2.55899
742 1 -1.1104 12.2488 33.5754 3.89234
743 1 -1.1104 9.37961 30.7851 1.18178
744 1 -1.1104 9.47476 36.353 1.05581
745 2 2.2208 7.99081 35.0088 2.60219
746 1 -1.1104 9.44084 30.8565 3.90749
747 1 -1.1104 9.52203 36.4263 3.92493
748 2 2.2208 8.0096 32.2262 5.31394
749 2 2.2208 8.01823 37.645 5.33136
750 1 -1.1104 9.43192 33.6209 1.16559
751 1 -1.1104 9.40386 33.6266 3.87535
1004 2 2.2208 10.8613 34.9552 -0.280443
1002 2 2.2208 8.05814 37.7533 -0.307971
1003 2 2.2208 8.04056 32.2534 -0.170783
9698 2 2.2208 13.6319 37.6638 5.41382
894 1 -1.1104 9.60631 30.8112 6.66097
9703 2 2.2208 13.6508 32.1765 5.39622
9957 2 2.2208 13.5874 34.9611 2.5058
9972 2 2.2208 13.639 32.1477 -0.324768
9975 2 2.2208 13.5992 37.7874 -0.270973
1332 1 -1.1104 3.78112 47.5272 1.13273
981 2 2.2208 5.21785 40.5692 -0.310821
764 1 -1.1104 1.09354 39.1939 3.89507
775 1 -1.1104 3.84789 39.0766 3.88428