ITEM: TIMESTEP
40000
ITEM: NUMBER OF ATOMS
17760
ITEM: BOX BOUNDS pp pp pp
-3.3211963734827066e-01 2.7672119637347986e+01
-4.0146599328270671e+00 3.3209465993282942e+02
-3.3343476172919323e-01 2.7673434761728945e+01
ITEM: ATOMS id type q x y z
1 2 2.2208 5.21519 1.53833 5.26159
2 1 -1.1104 1.02171 -2.52616 1.07234
3 1 -1.1104 0.904226 3.09677 1.00563
6 1 -1.1104 1.15197 -2.59519 3.833
7 1 -1.1104 1.11733 3.02378 3.8063
10 1 -1.1104 1.07494 0.220797 1.06056
12 2 2.2208 5.23595 -1.1962 2.3613
13 2 2.2208 5.24825 4.37147 2.27879
14 1 -1.1104 1.12139 0.220185 3.89854
16 1 -1.1104 3.84521 -2.53471 0.881412
17 1 -1.1104 3.89963 3.03913 0.948787
18 2 2.2208 2.48502 1.6137 2.45307
19 1 -1.1104 3.85485 -2.60895 3.76498
20 1 -1.1104 3.97954 2.94474 3.83746
21 2 2.2208 2.54196 -1.27307 5.25072
22 2 2.2208 2.54093 4.43022 5.19768
23 1 -1.1104 3.80372 0.295892 0.906293
24 1 -1.1104 3.78268 0.150812 3.85802
8 1 -1.1104 6.71751 -2.52223 3.79888
9 1 -1.1104 6.66438 2.86745 3.95207
9260 2 2.2208 13.7396 12.755 13.6654
15 1 -1.1104 6.60183 0.0966293 3.80917
5 1 -1.1104 6.64829 2.99008 0.952402
170 1 -1.1104 1.01181 0.184822 6.58816
174 1 -1.1104 3.86959 0.113077 6.59035
172 1 -1.1104 3.8676 -2.70702 6.70098
167 1 -1.1104 1.07279 2.99724 6.65561
166 1 -1.1104 1.10791 -2.57178 6.64921
9180 2 2.2208 13.674 21.2188 10.865
4 1 -1.1104 6.68843 -2.55277 1.02675
11 1 -1.1104 6.49579 0.225677 1.03158
31 2 2.2208 10.9099 1.53904 5.26634
32 1 -1.1104 12.257 -2.61735 1.01655
33 1 -1.1104 12.2677 2.96774 1.04934
34 1 -1.1104 12.2661 -2.59524 3.81454
35 1 -1.1104 12.3145 2.87505 3.85945
36 1 -1.1104 12.2393 0.117105 1.0475
37 2 2.2208 10.8436 -1.17381 2.43912
38 2 2.2208 10.807 4.33689 2.48321
39 1 -1.1104 12.3334 0.151228 3.833
40 1 -1.1104 9.47848 -2.65439 0.995715
41 1 -1.1104 9.48219 2.82706 1.12686
42 2 2.2208 7.97505 1.54332 2.51537
43 1 -1.1104 9.47119 -2.621 3.79484
44 1 -1.1104 9.5223 2.90141 3.87729
45 2 2.2208 8.03064 -1.23901 5.30082
46 2 2.2208 8.10013 4.33585 5.20417
47 1 -1.1104 9.31895 0.0441064 1.11432
48 1 -1.1104 9.37886 0.168258 3.96064
8918 2 2.2208 13.7406 4.36624 5.25089
9224 2 2.2208 13.7271 -1.28416 5.25354
232 2 2.2208 10.7415 -3.99742 10.7277
207 1 -1.1104 12.3104 0.120077 6.56939
209 1 -1.1104 9.51407 3.00161 6.62686
205 1 -1.1104 12.2604 -2.6217 6.58989
168 1 -1.1104 6.76088 -2.59781 6.71766
169 1 -1.1104 6.66116 3.03138 6.63072
208 1 -1.1104 9.55409 -2.68002 6.52564
206 1 -1.1104 12.2913 2.92302 6.64214
210 1 -1.1104 9.48394 0.128788 6.76518
9225 2 2.2208 13.7049 -4.0529 2.47557
54 2 2.2208 5.32966 7.31017 5.14345
55 2 2.2208 5.34421 12.772 5.20258
56 1 -1.1104 1.03654 8.56344 1.15212
58 1 -1.1104 1.15194 8.67037 3.94315
60 1 -1.1104 1.21998 5.83613 0.961159
61 1 -1.1104 1.07836 11.4472 1.19093
66 2 2.2208 5.30082 10.0443 2.37746
67 1 -1.1104 1.11841 5.75026 3.79626
68 1 -1.1104 1.106 11.4649 3.99314
71 1 -1.1104 3.86594 8.61293 0.978608
72 2 2.2208 2.48896 7.26051 2.4111
73 2 2.2208 2.48843 12.8962 2.5558
74 1 -1.1104 3.86583 8.61747 3.80564
75 2 2.2208 2.50825 10.0216 5.24289
76 1 -1.1104 3.96111 5.79575 0.963834
77 1 -1.1104 3.82038 11.4209 1.05435
79 1 -1.1104 3.89213 5.9092 3.78661
80 1 -1.1104 3.91186 11.4332 3.79615
59 1 -1.1104 6.68135 8.72694 3.85311
69 1 -1.1104 6.70875 5.70778 3.71077
64 1 -1.1104 6.64016 11.4386 1.07049
63 1 -1.1104 6.72614 5.77317 1.0062
237 1 -1.1104 6.70008 5.84847 6.56061
238 1 -1.1104 3.89583 8.63292 6.6138
62 1 -1.1104 1.212 11.4497 6.763
234 1 -1.1104 1.12642 8.73821 6.74458
332 2 2.2208 8.13758 18.3645 13.7475
78 1 -1.1104 4.02745 11.3866 6.60141
236 1 -1.1104 1.1693 5.8895 6.57272
235 1 -1.1104 6.71942 8.54435 6.59682
239 1 -1.1104 3.88937 5.8141 6.64145
57 1 -1.1104 6.75659 8.56599 1.07623
70 1 -1.1104 6.75091 11.4253 3.83819
9148 2 2.2208 -0.289942 7.16283 10.8526
9227 2 2.2208 -0.2372 9.98079 2.51153
9238 2 2.2208 -0.348316 15.5982 8.07681
84 2 2.2208 10.9097 7.14258 5.23422
85 2 2.2208 10.9188 12.7985 5.2196
86 1 -1.1104 12.2749 8.62281 1.00618
87 1 -1.1104 12.3526 8.6479 3.87522
88 1 -1.1104 12.3575 5.77801 1.0165
89 1 -1.1104 12.3106 11.5267 1.09212
91 2 2.2208 10.8995 10.0018 2.40078
92 1 -1.1104 12.2692 5.76455 3.9017
93 1 -1.1104 12.2903 11.3244 3.81662
94 1 -1.1104 9.51416 8.59994 0.964293
95 2 2.2208 8.18703 7.0953 2.38535
96 2 2.2208 8.0662 12.7807 2.50321
97 1 -1.1104 9.51552 8.49204 3.83576
98 2 2.2208 8.08751 10.0016 5.1793
99 1 -1.1104 9.58206 5.69468 1.07174
100 1 -1.1104 9.45066 11.4009 1.11383
102 1 -1.1104 9.45776 5.72859 3.7605
103 1 -1.1104 9.56896 11.4123 3.84486
269 1 -1.1104 9.44644 5.74158 6.63389
327 2 2.2208 2.54886 18.4373 13.7021
106 2 2.2208 5.30295 18.3554 5.25528
107 1 -1.1104 1.09138 14.2707 1.08693
109 1 -1.1104 0.975873 19.8798 1.02582
113 1 -1.1104 1.13539 14.2669 3.96474
114 1 -1.1104 1.11008 19.6654 3.85209
116 1 -1.1104 1.01547 17.1001 1.04603
119 2 2.2208 5.28423 15.6394 2.52535
120 2 2.2208 5.18573 21.1726 2.42885
121 1 -1.1104 1.14448 16.9661 3.80803
123 1 -1.1104 3.91191 14.3555 1.0719
125 1 -1.1104 3.85517 19.8925 1.03293
127 2 2.2208 2.41624 18.4398 2.41935
128 1 -1.1104 3.97081 14.224 3.80509
129 1 -1.1104 3.89707 19.6857 3.78798
130 2 2.2208 2.54022 15.6875 5.34019
131 2 2.2208 2.51295 21.2784 5.14242
132 1 -1.1104 3.77361 16.998 1.02015
134 1 -1.1104 3.98243 17.0534 3.87997
140 1 -1.1104 6.68282 17.1156 1.09192
138 1 -1.1104 6.70045 19.7947 1.10904
139 1 -1.1104 6.62214 19.8119 3.70123
110 1 -1.1104 6.66586 14.2145 1.10254
111 1 -1.1104 6.75444 14.2023 6.56995
108 1 -1.1104 1.13336 14.3206 6.71257
133 1 -1.1104 3.85591 16.9805 6.64348
104 1 -1.1104 9.45489 19.7398 12.2758
325 2 2.2208 10.9209 9.95545 13.7095
115 1 -1.1104 6.642 14.2056 3.85728
122 1 -1.1104 6.79116 17.0512 3.86235
141 2 2.2208 10.9005 18.2818 5.31177
142 1 -1.1104 12.2058 14.2443 1.05502
144 1 -1.1104 12.3441 19.7253 1.10954
146 1 -1.1104 12.2241 14.1498 3.80528
147 1 -1.1104 12.2012 19.7107 3.87463
148 1 -1.1104 12.2388 16.9418 1.05183
150 2 2.2208 10.8339 15.5609 2.46353
151 2 2.2208 10.8958 21.1256 2.50315
152 1 -1.1104 12.3162 16.9695 3.8881
153 1 -1.1104 9.53522 14.1194 1.07144
155 1 -1.1104 9.47091 19.8069 1.03002
157 2 2.2208 8.13762 18.4825 2.46224
158 1 -1.1104 9.42917 14.2432 3.82144
159 1 -1.1104 9.48895 19.7675 3.83161
160 2 2.2208 8.19133 15.6036 5.24716
161 2 2.2208 8.0516 21.2391 5.19081
162 1 -1.1104 9.44372 16.9624 1.08343
164 1 -1.1104 9.56471 16.972 3.87375
317 2 2.2208 8.03864 21.1558 -0.30659
53 2 2.2208 10.9313 15.5647 8.13963
143 1 -1.1104 12.3293 14.1153 6.7151
154 1 -1.1104 9.63547 14.1017 6.61543
149 1 -1.1104 12.2553 16.8706 6.6649
145 1 -1.1104 12.3456 19.7717 6.72069
200 1 -1.1104 9.50023 17.0146 9.57155
9236 2 2.2208 -0.362657 -1.20323 8.0201
173 1 -1.1104 3.83582 2.91178 6.50483
171 1 -1.1104 6.64868 0.172158 6.5998
175 2 2.2208 5.31344 1.67159 10.8528
176 1 -1.1104 1.02577 -2.5706 12.2529
177 1 -1.1104 1.03096 2.99493 12.1827
180 1 -1.1104 1.08141 -2.66041 9.44352
181 1 -1.1104 1.1419 3.00536 9.38177
184 1 -1.1104 1.11089 0.162986 12.2118
186 2 2.2208 5.2331 -1.23218 8.12907
187 2 2.2208 5.27587 4.42441 7.98663
188 1 -1.1104 0.989755 0.224488 9.49078
190 1 -1.1104 3.90189 -2.51984 12.1694
191 1 -1.1104 3.92382 2.97416 12.1936
192 2 2.2208 2.47701 1.57928 8.02378
193 1 -1.1104 3.7871 -2.54752 9.54344
194 1 -1.1104 3.88133 3.00485 9.37929
195 2 2.2208 2.44808 -1.1261 10.8515
196 2 2.2208 2.50186 4.34993 10.7736
197 1 -1.1104 3.85693 0.236743 12.1205
198 1 -1.1104 3.85806 0.342451 9.43143
189 1 -1.1104 6.7044 0.207682 9.48857
182 1 -1.1104 6.61701 -2.53023 9.43022
178 1 -1.1104 6.64399 -2.56637 12.215
179 1 -1.1104 6.59118 3.00152 12.2491
185 1 -1.1104 6.7175 0.222824 12.1447
9053 2 2.2208 13.756 4.41248 10.9122
320 2 2.2208 10.8909 4.31171 13.6685
9241 2 2.2208 13.6771 -1.16476 10.8956
183 1 -1.1104 6.75713 2.95344 9.34927
211 2 2.2208 10.8651 1.58186 10.8695
212 1 -1.1104 12.2395 -2.64127 12.2177
213 1 -1.1104 12.1933 3.00045 12.316
214 1 -1.1104 12.2577 -2.61562 9.46011
215 1 -1.1104 12.4386 3.04855 9.41192
216 1 -1.1104 12.3246 0.191205 12.1804
217 2 2.2208 10.9137 -1.23106 8.03104
218 2 2.2208 10.9352 4.37655 8.06986
219 1 -1.1104 12.2271 0.241971 9.40371
220 1 -1.1104 9.45981 -2.60725 12.2144
221 1 -1.1104 9.42312 2.86328 12.2343
222 2 2.2208 8.12571 1.53186 7.96311
223 1 -1.1104 9.40406 -2.71693 9.42446
224 1 -1.1104 9.4908 3.00707 9.49792
225 2 2.2208 8.06984 -1.18996 10.7847
226 2 2.2208 8.10705 4.28945 10.7949
227 1 -1.1104 9.5259 0.15096 12.2481
228 1 -1.1104 9.53185 0.0921344 9.49691
318 2 2.2208 8.05404 1.56307 13.6235
9237 2 2.2208 13.7264 1.59968 7.99785
30 1 -1.1104 12.318 14.1563 9.43888
65 1 -1.1104 6.71099 11.3254 6.66311
49 1 -1.1104 12.3554 19.8104 9.4486
240 2 2.2208 5.29725 7.10226 10.8537
241 2 2.2208 5.37577 12.7572 10.915
242 1 -1.1104 1.0668 8.6472 12.2
244 1 -1.1104 1.17945 8.63934 9.50358
246 1 -1.1104 1.01186 5.74222 12.2182
247 1 -1.1104 1.15076 11.4032 12.2717
250 2 2.2208 5.364 9.93804 8.09991
251 1 -1.1104 1.07937 5.84219 9.38828
252 1 -1.1104 1.16616 11.3747 9.51606
255 1 -1.1104 3.90533 8.49636 12.314
256 2 2.2208 2.5191 7.27561 7.99702
257 2 2.2208 2.58214 12.8404 8.09295
258 1 -1.1104 3.95629 8.67475 9.446
259 2 2.2208 2.57604 9.98358 10.9039
260 1 -1.1104 3.85207 5.76812 12.276
261 1 -1.1104 3.91371 11.5104 12.3506
262 1 -1.1104 3.87155 5.82845 9.44345
263 1 -1.1104 3.96445 11.3875 9.46089
245 1 -1.1104 6.79346 8.41619 9.57328
248 1 -1.1104 6.73138 5.83634 12.153
249 1 -1.1104 6.70819 11.2875 12.276
254 1 -1.1104 6.68663 11.3465 9.47311
321 2 2.2208 2.45362 7.285 13.6947
267 1 -1.1104 9.58956 8.48656 6.64384
253 1 -1.1104 6.74825 5.62651 9.34742
266 1 -1.1104 12.2866 5.75852 6.68086
265 1 -1.1104 12.3995 8.58199 6.61756
243 1 -1.1104 6.73893 8.61964 12.3495
90 1 -1.1104 12.3014 11.3435 6.63657
101 1 -1.1104 9.4322 11.2241 6.73381
322 2 2.2208 5.31829 9.99741 13.667
9129 2 2.2208 13.7086 7.23332 8.09681
9269 2 2.2208 13.6887 21.1234 -0.295681
264 1 -1.1104 9.48635 11.4315 9.50585
268 1 -1.1104 9.5952 5.79764 9.42002
270 1 -1.1104 9.45771 11.3944 12.3098
271 1 -1.1104 9.46968 5.66145 12.224
272 2 2.2208 8.10096 9.91003 10.9365
273 1 -1.1104 9.49671 8.68572 9.42218
274 2 2.2208 8.07736 12.7686 8.12606
275 2 2.2208 8.17776 7.14033 7.96092
276 2 2.2208 10.9709 7.18576 10.8355
277 2 2.2208 10.8083 12.7183 10.9094
278 1 -1.1104 12.3078 8.56375 12.2411
279 1 -1.1104 12.2886 8.57001 9.41058
280 1 -1.1104 12.3239 5.81932 12.2335
281 1 -1.1104 12.2121 11.3293 12.2353
282 2 2.2208 10.8912 10.0004 8.0366
283 1 -1.1104 12.3608 5.80317 9.41265
284 1 -1.1104 12.3405 11.3932 9.51502
285 1 -1.1104 9.58623 8.57626 12.2866
326 2 2.2208 8.10623 12.81 13.7512
329 2 2.2208 5.32037 15.5548 13.7645
124 1 -1.1104 3.91678 14.2232 6.69689
117 1 -1.1104 1.05127 17.0593 6.66829
126 1 -1.1104 3.94896 19.8772 6.67581
302 1 -1.1104 1.19351 19.9232 6.68936
289 1 -1.1104 6.7428 17.0266 9.51838
112 1 -1.1104 6.6647 19.8228 6.56526
290 1 -1.1104 6.72724 14.1515 9.57788
296 1 -1.1104 6.70252 19.7865 12.2476
307 1 -1.1104 1.15751 17.1388 12.3204
305 1 -1.1104 3.99773 14.1936 9.49543
229 2 2.2208 2.54753 15.6649 10.7965
230 2 2.2208 2.43484 21.2775 10.8724
233 1 -1.1104 3.9902 16.9653 12.3647
286 1 -1.1104 3.84615 19.876 12.3191
287 1 -1.1104 3.94117 14.2071 12.3066
291 1 -1.1104 1.13617 19.8272 9.47087
292 1 -1.1104 1.04683 17.0709 9.44737
293 2 2.2208 5.19303 21.2853 8.05833
294 1 -1.1104 1.25862 14.2431 9.5315
295 2 2.2208 5.36127 15.6638 8.08825
298 1 -1.1104 1.00616 19.8202 12.2327
299 1 -1.1104 1.17194 14.2226 12.3287
300 2 2.2208 5.22943 18.3944 10.9233
301 1 -1.1104 3.93295 19.7389 9.51475
303 2 2.2208 2.52749 18.4587 8.07856
304 1 -1.1104 3.91427 16.9507 9.46031
9240 2 2.2208 -0.327921 21.2381 8.0262
297 1 -1.1104 6.64581 14.108 12.3715
331 2 2.2208 10.9126 15.5456 13.7632
50 1 -1.1104 12.3315 16.9825 12.2844
136 1 -1.1104 9.42137 19.8769 9.55014
137 2 2.2208 8.13446 15.6086 10.9108
26 1 -1.1104 12.3566 14.1235 12.2853
83 1 -1.1104 9.46601 14.2447 12.2937
199 1 -1.1104 9.65779 16.9723 12.4163
25 2 2.2208 10.9207 18.3886 10.9289
135 1 -1.1104 9.52303 14.2039 9.50838
165 2 2.2208 8.04485 21.229 10.8775
27 1 -1.1104 12.2946 19.8734 12.3451
81 2 2.2208 10.852 21.217 8.08968
163 1 -1.1104 9.4639 16.8678 6.76345
118 1 -1.1104 6.68186 16.971 6.66884
306 1 -1.1104 6.80324 16.9326 12.2483
288 1 -1.1104 6.57088 19.8665 9.41866
156 1 -1.1104 9.55183 19.7482 6.68479
82 1 -1.1104 12.2915 16.9795 9.44033
105 2 2.2208 8.04582 18.4684 8.05714
9221 2 2.2208 -0.342713 4.41907 2.47072
9234 2 2.2208 13.738 18.3922 2.51852
310 2 2.2208 5.28461 -1.16448 13.6244
315 2 2.2208 5.30026 4.4269 13.6175
316 2 2.2208 10.9465 18.3893 -0.328786
9267 2 2.2208 -0.331899 10.0261 13.6686
9147 2 2.2208 -0.214343 10.0896 8.07741
9247 2 2.2208 13.668 1.62755 13.665
9228 2 2.2208 -0.292746 12.835 5.37534
9235 2 2.2208 -0.298838 4.45569 8.0583
9016 2 2.2208 13.7085 15.5805 5.3044
9232 2 2.2208 -0.338569 21.2136 2.37194
9233 2 2.2208 -0.291091 18.3963 5.34221
9231 2 2.2208 -0.330983 15.6523 2.46385
8995 2 2.2208 13.6643 21.1742 5.296
314 2 2.2208 2.47088 1.68594 13.5397
333 2 2.2208 5.17157 1.62456 -0.445743
344 2 2.2208 5.18206 12.8614 -0.367427
340 2 2.2208 10.7907 12.7734 -0.342628
313 2 2.2208 2.44345 21.2159 -0.395071
311 2 2.2208 2.48052 15.6656 -0.377497
312 2 2.2208 5.19373 18.3963 -0.327077
345 2 2.2208 5.18583 1.66209 16.3463
346 1 -1.1104 0.968755 -2.51751 17.8146
347 1 -1.1104 1.04202 3.12526 17.8466
350 1 -1.1104 1.06452 -2.61105 14.9988
352 1 -1.1104 1.02701 3.0522 14.9402
358 1 -1.1104 0.995017 0.36366 17.6962
360 2 2.2208 5.20082 -1.26332 19.1933
361 2 2.2208 5.29383 4.40987 19.1466
362 1 -1.1104 1.05177 0.321356 14.8952
366 1 -1.1104 3.77137 -2.55601 17.9524
367 1 -1.1104 3.80013 3.00864 17.756
368 2 2.2208 2.4389 1.6489 19.2365
369 1 -1.1104 3.83211 -2.54941 15.0481
371 1 -1.1104 3.75504 3.09814 14.9848
373 2 2.2208 2.40512 -1.12139 16.4409
374 2 2.2208 2.4589 4.47068 16.3656
375 1 -1.1104 3.78451 0.230597 17.7716
376 1 -1.1104 3.85135 0.169403 15.0388
348 1 -1.1104 6.69733 -2.56 17.7783
359 1 -1.1104 6.54629 0.176843 17.8223
354 1 -1.1104 6.6304 -2.56565 14.9215
356 1 -1.1104 6.63996 3.0268 14.8642
364 1 -1.1104 6.6394 0.279287 15.0539
349 1 -1.1104 6.68966 2.98015 17.6724
9323 2 2.2208 -0.386004 18.4018 22.0833
365 1 -1.1104 6.65131 0.170443 20.5712
363 1 -1.1104 0.985702 0.321904 20.6055
351 1 -1.1104 1.13769 -2.52384 20.5478
370 1 -1.1104 3.91923 -2.58336 20.7147
372 1 -1.1104 3.76894 2.98966 20.6788
353 1 -1.1104 1.03782 3.08153 20.6313
357 1 -1.1104 6.68207 2.9838 20.5516
355 1 -1.1104 6.6352 -2.61965 20.6415
319 2 2.2208 10.843 -1.21428 13.5905
9439 2 2.2208 13.5662 -1.19767 16.3653
380 2 2.2208 2.41233 -4.03563 19.1923
388 2 2.2208 10.7919 1.65766 16.4855
389 1 -1.1104 12.2815 -2.60912 17.7907
390 1 -1.1104 12.2589 2.9613 17.8223
391 1 -1.1104 12.1687 -2.56576 14.9424
393 1 -1.1104 12.3112 2.95072 15.0319
395 1 -1.1104 12.1888 0.117998 17.8667
396 2 2.2208 10.9036 -1.23472 19.2869
397 2 2.2208 10.8847 4.45269 19.2164
398 1 -1.1104 12.17 0.226025 15.0835
400 1 -1.1104 9.49868 -2.46285 17.9042
401 1 -1.1104 9.45791 3.10191 17.877
402 2 2.2208 8.01322 1.59159 19.241
403 1 -1.1104 9.34878 -2.59554 15.1153
405 1 -1.1104 9.49781 3.02304 15.0839
407 2 2.2208 8.02711 -1.13067 16.4972
408 2 2.2208 8.11676 4.36777 16.3886
409 1 -1.1104 9.39494 0.212936 17.9385
410 1 -1.1104 9.47618 0.161573 15.064
9328 2 2.2208 13.6508 1.53314 19.1691
404 1 -1.1104 9.46754 -2.62598 20.6232
392 1 -1.1104 12.2918 -2.64142 20.5925
411 1 -1.1104 9.51286 0.176301 20.6566
399 1 -1.1104 12.2997 0.153526 20.6107
394 1 -1.1104 12.2203 2.87972 20.6191
406 1 -1.1104 9.42432 2.95132 20.6961
9616 2 2.2208 -0.338384 7.16105 22.1175
421 2 2.2208 5.25489 7.18695 16.4096
422 2 2.2208 5.3457 12.7847 16.476
423 1 -1.1104 1.0247 8.62437 17.7866
425 1 -1.1104 1.02868 8.64453 15.0358
429 1 -1.1104 1.11298 5.86421 17.9045
430 1 -1.1104 0.992153 11.4776 17.9468
433 2 2.2208 5.36676 10.056 19.2994
434 1 -1.1104 1.01864 5.80276 15.0426
436 1 -1.1104 1.01017 11.3959 15.1293
442 1 -1.1104 3.88426 8.57901 17.915
443 2 2.2208 2.51073 7.19909 19.1767
444 2 2.2208 2.40719 12.8505 19.3833
445 1 -1.1104 3.81261 8.68503 15.1158
447 2 2.2208 2.46898 10.0739 16.4856
448 1 -1.1104 3.83786 5.75111 17.7306
449 1 -1.1104 3.87004 11.4152 18.0205
450 1 -1.1104 3.87581 5.88444 14.972
452 1 -1.1104 3.91919 11.4446 15.2142
438 1 -1.1104 6.71389 5.75621 15.0279
427 1 -1.1104 6.63273 8.63171 15.0201
440 1 -1.1104 6.73265 11.4627 15.0515
424 1 -1.1104 6.67536 8.52567 17.8391
432 1 -1.1104 6.65539 11.3186 17.8546
451 1 -1.1104 3.89425 5.79643 20.5299
446 1 -1.1104 3.88781 8.68618 20.7095
437 1 -1.1104 0.981553 11.3647 20.6702
428 1 -1.1104 6.76057 8.68578 20.6171
439 1 -1.1104 6.6945 5.79107 20.5723
435 1 -1.1104 1.03941 5.78814 20.619
453 1 -1.1104 3.78412 11.4685 20.6975
426 1 -1.1104 1.05744 8.58338 20.5739
9400 2 2.2208 -0.294237 -1.1392 24.8447
431 1 -1.1104 6.6245 5.80503 17.7934
457 2 2.2208 10.8834 7.23833 16.4665
458 2 2.2208 10.9248 12.8607 16.4576
459 1 -1.1104 12.3483 8.67096 17.843
460 1 -1.1104 12.3126 8.70415 14.9914
462 1 -1.1104 12.2526 5.79624 17.8812
463 1 -1.1104 12.3007 11.4139 17.8695
464 2 2.2208 10.9154 10.0001 19.2769
465 1 -1.1104 12.3048 5.82105 15.053
467 1 -1.1104 12.2464 11.4715 15.0528
469 1 -1.1104 9.43705 8.68992 17.8476
470 2 2.2208 8.06693 7.27326 19.2391
471 2 2.2208 8.06269 12.8442 19.3093
472 1 -1.1104 9.27665 8.62768 15.013
474 2 2.2208 8.0302 9.94563 16.46
475 1 -1.1104 9.48291 5.90607 17.7772
476 1 -1.1104 9.44321 11.476 17.888
477 1 -1.1104 9.61064 5.8719 15.0381
479 1 -1.1104 9.55505 11.4358 15.1629
308 2 2.2208 8.01245 15.6249 27.7237
9399 2 2.2208 -0.326438 1.67312 22.0172
461 1 -1.1104 12.1866 8.49453 20.701
468 1 -1.1104 12.3884 11.2567 20.7439
478 1 -1.1104 9.47497 5.84365 20.5711
480 1 -1.1104 9.53797 11.3969 20.6301
342 2 2.2208 10.8906 7.15992 27.6558
604 2 2.2208 8.07235 21.1687 22.1328
484 2 2.2208 5.29378 18.4145 16.5353
485 1 -1.1104 1.14561 14.2436 18.0488
486 1 -1.1104 1.08736 19.9452 17.8723
489 1 -1.1104 1.11453 14.2465 15.0941
491 1 -1.1104 1.11846 19.9062 15.1293
497 1 -1.1104 1.10111 17.0461 17.9083
499 2 2.2208 5.293 15.5532 19.3728
500 2 2.2208 5.29615 21.1659 19.2725
501 1 -1.1104 1.1686 17.0533 15.1498
505 1 -1.1104 3.86011 14.2343 17.9121
506 1 -1.1104 3.88438 19.7801 17.8222
507 2 2.2208 2.43515 18.4962 19.3137
508 1 -1.1104 3.90515 14.3472 15.0919
510 1 -1.1104 4.01608 19.9076 15.051
512 2 2.2208 2.52931 15.6727 16.5206
513 2 2.2208 2.44647 21.2115 16.5159
514 1 -1.1104 3.94944 16.9765 18.0312
515 1 -1.1104 3.93028 17.1305 15.1955
495 1 -1.1104 6.74108 19.8273 15.1056
493 1 -1.1104 6.72178 14.2286 15.0847
487 1 -1.1104 6.66189 14.1126 17.8578
488 1 -1.1104 6.73543 19.8494 17.8408
498 1 -1.1104 6.67138 16.9756 17.96
503 1 -1.1104 6.63788 16.9885 15.0598
502 1 -1.1104 1.12291 17.0832 20.7239
511 1 -1.1104 3.84345 19.7492 20.6332
496 1 -1.1104 6.67035 19.7871 20.6831
494 1 -1.1104 6.62983 14.2204 20.7483
492 1 -1.1104 1.02065 19.7732 20.6835
490 1 -1.1104 1.04968 14.21 20.7052
516 1 -1.1104 3.90693 17.0227 20.7216
9324 2 2.2208 -0.389155 15.6363 24.9131
526 1 -1.1104 12.3601 19.8542 20.6458
536 1 -1.1104 9.49653 14.2106 20.8034
9469 2 2.2208 13.6505 21.1863 16.4946
520 2 2.2208 10.8975 18.4331 16.5253
521 1 -1.1104 12.2934 14.3023 17.8457
522 1 -1.1104 12.2771 19.7722 17.9324
523 1 -1.1104 12.3847 14.1686 15.0915
525 1 -1.1104 12.2762 19.7983 15.1383
527 1 -1.1104 12.2702 17.0266 17.9326
528 2 2.2208 10.8277 15.642 19.3032
529 2 2.2208 10.9536 21.1945 19.2614
530 1 -1.1104 12.2533 17.0652 15.0342
532 1 -1.1104 9.55742 14.2386 17.9757
533 1 -1.1104 9.55088 19.7562 17.8835
534 2 2.2208 8.11942 18.4406 19.3265
535 1 -1.1104 9.55728 14.2509 15.1265
537 1 -1.1104 9.56342 19.7989 15.0983
539 2 2.2208 8.11529 15.609 16.5138
540 2 2.2208 7.98095 21.2851 16.514
541 1 -1.1104 9.52366 16.9626 17.9025
542 1 -1.1104 9.50187 16.9529 15.1418
335 2 2.2208 2.47295 4.43704 27.5326
9466 2 2.2208 13.7782 15.6897 16.4798
531 1 -1.1104 12.1892 16.943 20.7983
543 1 -1.1104 9.3511 16.9505 20.7676
524 1 -1.1104 12.2245 14.1582 20.6019
9509 2 2.2208 -0.281554 18.4746 16.4248
377 1 -1.1104 3.79843 0.158728 20.5856
548 2 2.2208 5.24766 1.55175 22.0343
549 1 -1.1104 1.05762 -2.57448 23.4706
550 1 -1.1104 1.11645 3.07083 23.4805
553 1 -1.1104 0.957167 -2.56249 26.2589
554 1 -1.1104 1.01422 3.00722 26.2408
557 1 -1.1104 1.09125 0.204296 23.4306
559 2 2.2208 5.36902 -1.14108 24.8117
560 2 2.2208 5.21188 4.46795 24.7981
561 1 -1.1104 1.10064 0.277636 26.3252
563 1 -1.1104 3.81793 -2.50077 23.5007
564 1 -1.1104 3.92815 2.91013 23.4583
565 2 2.2208 2.42151 1.54341 24.7382
566 1 -1.1104 3.80887 -2.50402 26.2173
567 1 -1.1104 3.84378 3.05319 26.1381
568 2 2.2208 2.4532 -1.15553 21.9925
569 2 2.2208 2.46476 4.43459 21.9481
570 1 -1.1104 3.82114 0.252224 23.357
571 1 -1.1104 3.86482 0.172125 26.1127
558 1 -1.1104 6.68003 0.26635 23.4449
551 1 -1.1104 6.63965 -2.47435 23.3986
556 1 -1.1104 6.64941 3.02419 26.2341
562 1 -1.1104 6.64337 0.257098 26.2213
552 1 -1.1104 6.73068 3.01886 23.3831
334 2 2.2208 2.40505 -1.13949 27.6315
9254 2 2.2208 13.7321 4.40189 27.6536
642 1 -1.1104 9.39642 19.8554 26.2672
555 1 -1.1104 6.66755 -2.57363 26.2676
9529 2 2.2208 13.7388 4.34826 22.0263
9369 2 2.2208 13.6643 -1.24786 22.0339
584 2 2.2208 10.8592 1.60393 22.0456
585 1 -1.1104 12.2023 -2.6252 23.308
586 1 -1.1104 12.3416 2.9032 23.4656
587 1 -1.1104 12.2674 -2.60774 26.1565
588 1 -1.1104 12.2653 2.97563 26.3351
589 1 -1.1104 12.2343 0.133784 23.5232
590 2 2.2208 10.8673 -1.20046 24.8921
591 2 2.2208 10.951 4.32553 24.9269
592 1 -1.1104 12.3418 0.244525 26.287
593 1 -1.1104 9.47099 -2.529 23.4788
594 1 -1.1104 9.60566 2.97568 23.4078
595 2 2.2208 8.10143 1.62736 24.8511
596 1 -1.1104 9.3564 -2.54223 26.2928
597 1 -1.1104 9.43821 2.99906 26.3074
598 2 2.2208 8.09999 -1.13169 22.0015
599 2 2.2208 8.13407 4.44022 22.108
600 1 -1.1104 9.42688 0.166519 23.4558
601 1 -1.1104 9.44786 0.195586 26.3235
9437 2 2.2208 -0.357381 9.97169 19.298
9257 2 2.2208 13.6832 -1.27079 27.6453
573 1 -1.1104 6.57129 14.1052 26.2923
441 1 -1.1104 6.71801 11.3873 20.6452
613 2 2.2208 5.30315 7.25375 22.0164
614 2 2.2208 5.27418 12.775 22.0269
615 1 -1.1104 1.13338 8.56735 23.4346
617 1 -1.1104 1.09773 8.54944 26.3029
619 1 -1.1104 0.989792 5.82666 23.4832
620 1 -1.1104 1.15248 11.4257 23.5538
623 2 2.2208 5.28179 10.0065 24.8551
624 1 -1.1104 1.06093 5.73835 26.2547
625 1 -1.1104 1.00051 11.4067 26.4287
628 1 -1.1104 3.95072 8.60063 23.4022
629 2 2.2208 2.4602 7.19596 24.8121
630 2 2.2208 2.37464 12.8099 24.8928
631 1 -1.1104 3.9431 8.65216 26.1909
632 2 2.2208 2.41473 10.012 22.0283
633 1 -1.1104 3.82715 5.75773 23.2847
634 1 -1.1104 3.80281 11.4272 23.4723
635 1 -1.1104 3.8363 5.86999 26.0754
636 1 -1.1104 3.92238 11.3241 26.2497
622 1 -1.1104 6.65374 11.4085 23.414
618 1 -1.1104 6.63479 8.61548 26.3202
621 1 -1.1104 6.6628 5.78887 23.4092
616 1 -1.1104 6.75599 8.55292 23.4222
583 2 2.2208 10.8848 15.625 24.9337
9253 2 2.2208 -0.343568 12.8097 27.7364
339 2 2.2208 5.25037 7.23887 27.6364
343 2 2.2208 2.41813 10.0328 27.7257
9325 2 2.2208 13.7142 7.15486 24.848
9326 2 2.2208 13.7071 12.8044 24.8539
627 1 -1.1104 6.72094 11.3096 26.2531
626 1 -1.1104 6.58589 5.7072 26.2459
473 1 -1.1104 9.58465 8.64473 20.628
602 1 -1.1104 9.50281 17.0107 26.3453
466 1 -1.1104 12.3239 5.62734 20.6147
637 1 -1.1104 9.41028 8.58882 23.3858
638 1 -1.1104 12.2948 11.3146 26.3894
639 1 -1.1104 12.3052 5.74327 26.2739
644 1 -1.1104 9.50778 11.4193 26.2796
645 1 -1.1104 9.38834 5.70064 26.2375
646 1 -1.1104 9.46018 11.341 23.5207
647 1 -1.1104 9.59192 5.74849 23.4722
648 2 2.2208 8.11831 9.99974 22.101
649 1 -1.1104 9.37339 8.51934 26.2377
650 2 2.2208 8.10672 12.8146 24.8768
651 2 2.2208 8.00447 7.18012 24.8169
652 2 2.2208 10.845 7.12175 22.0666
653 2 2.2208 11.0224 12.7971 22.1306
654 1 -1.1104 12.2182 8.48951 23.4805
655 1 -1.1104 12.1991 8.55696 26.2431
656 1 -1.1104 12.4078 5.72611 23.4321
657 1 -1.1104 12.3273 11.2545 23.6281
658 2 2.2208 10.9074 9.89666 24.8605
605 2 2.2208 10.8604 21.2321 24.879
341 2 2.2208 8.09698 10.0583 27.6864
9248 2 2.2208 13.6486 9.99236 27.6748
610 1 -1.1104 9.61509 14.1345 23.5185
509 1 -1.1104 3.77558 14.2492 20.7847
504 1 -1.1104 6.70763 17.0047 20.6439
482 1 -1.1104 6.72727 14.1671 23.5505
546 1 -1.1104 6.61491 16.9275 26.3893
385 2 2.2208 2.45718 15.6985 22.1288
386 2 2.2208 2.45137 21.1852 22.0996
387 1 -1.1104 3.84245 16.9526 23.4538
412 1 -1.1104 1.03286 17.0264 23.6106
418 1 -1.1104 3.82479 14.2713 26.3541
419 1 -1.1104 3.86566 17.1192 26.2447
420 2 2.2208 2.45729 18.4356 24.8564
454 1 -1.1104 3.83296 19.7493 26.2878
455 2 2.2208 5.2309 18.3772 22.1368
456 1 -1.1104 1.0888 14.292 23.469
481 1 -1.1104 1.15927 19.7507 23.4838
483 2 2.2208 5.29647 15.6307 24.8711
517 2 2.2208 5.20073 21.2206 24.8468
519 1 -1.1104 0.999214 14.2483 26.2798
544 1 -1.1104 0.964471 17.0221 26.3412
545 1 -1.1104 1.10087 19.8944 26.2442
572 1 -1.1104 3.93862 14.1305 23.4952
574 1 -1.1104 3.87665 19.7963 23.4669
640 1 -1.1104 6.56908 19.8179 26.2115
416 1 -1.1104 6.73548 16.9165 23.5985
518 1 -1.1104 6.66022 19.7058 23.4433
9244 2 2.2208 -0.361893 18.4817 27.6366
9465 2 2.2208 13.7379 18.443 24.9046
9438 2 2.2208 -0.345649 7.23295 16.4735
547 2 2.2208 10.7334 18.3717 22.1185
641 1 -1.1104 9.47367 14.2548 26.2634
611 1 -1.1104 9.4 19.741 23.4206
603 1 -1.1104 9.51916 16.9511 23.5695
582 1 -1.1104 12.2836 16.8895 23.5981
538 1 -1.1104 9.5474 19.7956 20.6364
643 2 2.2208 8.08823 15.5285 22.1842
609 1 -1.1104 12.3675 16.9589 26.3103
575 1 -1.1104 12.4097 14.1192 23.3601
576 1 -1.1104 12.1562 19.7043 23.4469
612 2 2.2208 8.07102 18.3758 24.8946
581 1 -1.1104 12.3756 19.8172 26.2052
580 1 -1.1104 12.152 14.1657 26.176
9365 2 2.2208 -0.329583 4.40528 19.1723
9467 2 2.2208 13.756 15.6065 22.0689
383 2 2.2208 -0.437872 21.2226 24.855
9403 2 2.2208 -0.339865 12.8394 16.5616
9255 2 2.2208 -0.331354 4.35385 13.5599
336 2 2.2208 10.9149 1.54545 27.6608
338 2 2.2208 8.03041 4.29423 27.6953
330 2 2.2208 10.8962 21.2066 13.7195
337 2 2.2208 8.01779 -1.23455 27.6646
9265 2 2.2208 13.6054 18.4123 13.6126
323 2 2.2208 2.51517 12.8395 13.6884
324 2 2.2208 8.108 7.3073 13.5836
328 2 2.2208 5.27233 21.3436 13.705
659 2 2.2208 5.22679 24.1025 5.14198
660 2 2.2208 5.26967 29.6602 5.34484
661 1 -1.1104 1.01413 25.4039 1.03731
662 1 -1.1104 1.10894 25.3782 3.86596
663 1 -1.1104 1.11707 22.6706 1.02506
664 1 -1.1104 1.03051 28.2162 1.03268
665 2 2.2208 5.39389 26.9495 2.3709
666 1 -1.1104 1.04633 22.5645 3.77284
667 1 -1.1104 0.970774 28.254 3.88097
668 1 -1.1104 3.86558 25.4734 1.01046
669 2 2.2208 2.48146 24.0839 2.39219
670 2 2.2208 2.41612 29.6293 2.47981
671 1 -1.1104 3.92164 25.5766 3.70444
672 2 2.2208 2.5085 26.8422 5.25046
673 1 -1.1104 3.96185 22.7229 1.03435
674 1 -1.1104 3.86412 28.2192 1.02662
675 1 -1.1104 3.82179 22.624 3.79162
676 1 -1.1104 3.86615 28.3076 3.79529
682 1 -1.1104 6.70185 22.5294 1.12335
683 1 -1.1104 6.59741 28.2037 0.924434
681 1 -1.1104 6.63933 25.5377 3.78527
806 1 -1.1104 3.9173 25.4172 6.63528
803 1 -1.1104 1.09914 28.1819 6.79482
802 1 -1.1104 1.10236 22.6698 6.51934
808 1 -1.1104 3.85763 28.1609 6.68421
800 1 -1.1104 1.09225 25.3859 6.69731
976 2 2.2208 5.26982 46.2808 -0.312846
962 2 2.2208 -0.335549 29.6255 10.8967
680 1 -1.1104 6.70406 25.4055 1.14265
684 1 -1.1104 6.60247 22.6615 3.88058
685 1 -1.1104 6.69182 28.2421 3.96261
686 2 2.2208 10.8407 23.988 5.31137
687 2 2.2208 10.8547 29.5697 5.36601
688 1 -1.1104 12.321 25.4216 1.16224
689 1 -1.1104 12.2395 25.3254 3.96295
690 1 -1.1104 12.1995 22.4651 1.06248
691 1 -1.1104 12.2047 28.1132 1.13599
692 2 2.2208 10.8686 26.7376 2.51053
693 1 -1.1104 12.2731 22.5803 3.86001
694 1 -1.1104 12.2771 28.1813 3.91048
695 1 -1.1104 9.4037 25.3361 1.01004
696 2 2.2208 7.994 24.0142 2.5074
697 2 2.2208 8.02806 29.5411 2.54088
698 1 -1.1104 9.4225 25.3193 3.87331
699 2 2.2208 8.10673 26.7933 5.27606
700 1 -1.1104 9.40984 22.6134 1.08891
701 1 -1.1104 9.41709 28.0671 1.10512
702 1 -1.1104 9.41442 22.5883 3.77817
703 1 -1.1104 9.53276 28.1871 3.90558
9978 2 2.2208 -0.455241 35.1871 -0.306579
953 1 -1.1104 9.25428 44.9945 12.3934
837 1 -1.1104 9.35482 22.5949 6.60475
950 2 2.2208 10.7736 43.5324 8.14316
954 1 -1.1104 9.49987 39.3506 12.2817
836 1 -1.1104 9.47988 25.4324 6.66721
1508 1 -1.1104 3.82638 47.7657 6.6948
958 2 2.2208 8.03919 40.6861 8.15722
996 2 2.2208 8.12742 26.7849 -0.367868
707 2 2.2208 5.32509 35.1211 5.35135
708 1 -1.1104 0.944599 30.9135 1.13475
709 1 -1.1104 0.977599 36.5102 1.12497
711 1 -1.1104 1.05746 31.0473 3.90937
712 1 -1.1104 1.21454 36.5903 3.87282
714 1 -1.1104 1.03157 33.7424 1.03712
715 2 2.2208 5.2673 32.3551 2.50753
716 2 2.2208 5.22123 37.9731 2.45123
717 1 -1.1104 1.10308 33.7719 3.84511
719 1 -1.1104 3.80411 30.966 1.11687
720 1 -1.1104 3.85206 36.4188 1.01998
721 2 2.2208 2.50107 35.1633 2.48895
722 1 -1.1104 3.79797 31.073 3.87327
723 1 -1.1104 3.92737 36.5006 3.96892
724 2 2.2208 2.50633 32.4432 5.23387
725 2 2.2208 2.55483 37.9222 5.28866
726 1 -1.1104 3.80116 33.6975 1.05364
727 1 -1.1104 3.99252 33.7326 3.92737
718 1 -1.1104 6.7231 33.7494 3.93774
731 1 -1.1104 6.58549 31.0383 1.10016
713 1 -1.1104 6.7711 36.4308 3.92195
733 1 -1.1104 6.70698 33.667 1.15671
860 1 -1.1104 6.62502 36.598 6.73058
775 1 -1.1104 3.90282 39.3003 3.8704
761 1 -1.1104 6.61231 39.2275 0.99789
729 2 2.2208 -0.391292 32.4342 2.52575
863 1 -1.1104 3.89912 30.9553 6.68399
861 1 -1.1104 1.16747 33.7491 6.64736
864 1 -1.1104 3.89087 36.5455 6.80146
857 1 -1.1104 1.12843 31.0324 6.70677
937 1 -1.1104 3.8203 39.3231 6.74111
1001 2 2.2208 5.23055 35.1343 -0.416246
732 1 -1.1104 6.61003 30.9656 3.88351
710 1 -1.1104 6.59249 36.4706 1.02761
862 1 -1.1104 6.58901 33.7658 6.75939
734 2 2.2208 10.9685 35.1664 5.27147
735 1 -1.1104 12.2818 30.8947 1.11254
736 1 -1.1104 12.3979 36.4758 1.07354
737 1 -1.1104 12.2279 31.0406 3.94998
738 1 -1.1104 12.3918 36.5899 3.80737
739 1 -1.1104 12.2775 33.7597 1.14042
740 2 2.2208 10.8184 32.3039 2.50146
741 2 2.2208 10.8578 37.8628 2.62053
742 1 -1.1104 12.3048 33.763 3.9088
743 1 -1.1104 9.36768 30.8674 1.0685
744 1 -1.1104 9.45927 36.5388 1.15571