ITEM: TIMESTEP
100000
ITEM: NUMBER OF ATOMS
17760
ITEM: BOX BOUNDS pp pp pp
-3.3220647188211561e-01 2.7672206471882916e+01
-4.1432367811311162e+00 3.3222323678113150e+02
-3.3748335882260183e-01 2.7677483358823174e+01
ITEM: ATOMS id type q x y z
1 2 2.2208 5.29566 1.47844 5.09974
2 1 -1.1104 0.940881 -2.71706 0.93005
3 1 -1.1104 0.934944 2.85813 0.992083
6 1 -1.1104 0.997762 -2.70055 3.86391
7 1 -1.1104 0.836184 2.8091 3.76343
10 1 -1.1104 0.869171 0.00438712 1.02094
12 2 2.2208 5.1422 -1.25339 2.41298
13 2 2.2208 5.17197 4.20287 2.37355
14 1 -1.1104 1.00597 -0.00977462 3.79746
16 1 -1.1104 3.75868 -2.62583 1.07197
17 1 -1.1104 3.79925 2.8836 1.04627
18 2 2.2208 2.3018 1.49414 2.44299
19 1 -1.1104 3.84078 -2.69211 3.80813
20 1 -1.1104 3.61219 2.91499 3.73326
21 2 2.2208 2.37923 -1.37888 5.25179
22 2 2.2208 2.30432 4.22317 5.17725
23 1 -1.1104 3.64949 0.122202 0.91333
24 1 -1.1104 3.80197 0.204101 3.76993
5 1 -1.1104 6.60744 2.79709 0.873921
4 1 -1.1104 6.59576 -2.68172 1.06934
9 1 -1.1104 6.41672 2.89889 3.79456
11 1 -1.1104 6.54491 0.0274532 1.04426
8 1 -1.1104 6.55385 -2.71222 3.88606
15 1 -1.1104 6.55083 0.128231 3.75567
172 1 -1.1104 3.76484 -2.71801 6.65759
167 1 -1.1104 0.962428 2.8844 6.49556
173 1 -1.1104 3.79989 2.79834 6.52921
169 1 -1.1104 6.57811 2.83389 6.61186
166 1 -1.1104 0.947985 -2.77421 6.58636
168 1 -1.1104 6.54246 -2.7523 6.63215
31 2 2.2208 10.7438 1.45574 5.28938
32 1 -1.1104 12.055 -2.8073 1.11437
33 1 -1.1104 12.2584 2.79241 1.14261
34 1 -1.1104 12.2111 -2.65318 3.92754
35 1 -1.1104 12.0737 2.93777 3.93433
36 1 -1.1104 12.175 0.0160696 1.0525
37 2 2.2208 10.7866 -1.3488 2.52271
38 2 2.2208 10.8069 4.28854 2.39145
39 1 -1.1104 12.0667 0.0435349 3.87937
40 1 -1.1104 9.33471 -2.75609 1.03342
41 1 -1.1104 9.43719 2.87352 1.00083
42 2 2.2208 7.99968 1.52479 2.43215
43 1 -1.1104 9.45459 -2.74929 3.9039
44 1 -1.1104 9.28325 2.95702 3.72536
45 2 2.2208 7.97525 -1.3361 5.1817
46 2 2.2208 7.95427 4.25248 5.15961
47 1 -1.1104 9.3178 -0.00153481 1.2045
48 1 -1.1104 9.33723 0.173897 3.87242
334 2 2.2208 13.5455 4.30683 5.17591
205 1 -1.1104 12.0935 -2.84451 6.75245
209 1 -1.1104 9.41321 2.85723 6.59119
207 1 -1.1104 12.2209 -0.00890231 6.68323
50 2 2.2208 13.5816 -1.2799 5.22839
49 2 2.2208 13.5897 1.4143 2.42277
136 2 2.2208 -0.309442 20.9753 2.33781
339 2 2.2208 13.571 7.09392 7.98285
337 2 2.2208 13.5615 15.3956 5.11062
208 1 -1.1104 9.25524 -2.69927 6.657
206 1 -1.1104 12.2384 2.69314 6.60749
336 2 2.2208 13.63 20.8529 5.28522
233 2 2.2208 13.5736 -4.10163 8.0243
54 2 2.2208 5.12682 6.98217 5.16324
55 2 2.2208 5.25433 12.6664 5.24375
56 1 -1.1104 0.904526 8.4121 0.946282
58 1 -1.1104 0.904195 8.36749 3.79532
60 1 -1.1104 0.920105 5.62843 0.989541
61 1 -1.1104 0.955545 11.2404 0.921624
66 2 2.2208 5.18124 9.77795 2.46838
67 1 -1.1104 0.889383 5.60675 3.84979
68 1 -1.1104 0.891348 11.1889 3.75156
71 1 -1.1104 3.71658 8.43177 0.946193
72 2 2.2208 2.31542 6.96379 2.39281
73 2 2.2208 2.33074 12.6307 2.35325
74 1 -1.1104 3.6929 8.48198 3.82663
75 2 2.2208 2.37486 9.89426 5.30053
76 1 -1.1104 3.71787 5.62363 1.03035
77 1 -1.1104 3.72592 11.2805 0.930871
79 1 -1.1104 3.78434 5.64889 3.7425
80 1 -1.1104 3.7326 11.2872 3.8067
69 1 -1.1104 6.56694 5.717 3.86708
59 1 -1.1104 6.50547 8.46776 3.87778
64 1 -1.1104 6.5044 11.1859 0.992681
63 1 -1.1104 6.67583 5.58216 1.02707
57 1 -1.1104 6.54653 8.30068 0.951417
62 1 -1.1104 0.927023 11.2456 6.54406
65 1 -1.1104 6.50816 11.2334 6.58869
78 1 -1.1104 3.76814 11.2072 6.68705
234 1 -1.1104 0.926497 8.36946 6.60689
239 1 -1.1104 3.79968 5.52684 6.51732
238 1 -1.1104 3.76028 8.44067 6.59846
236 1 -1.1104 0.891728 5.66999 6.63071
237 1 -1.1104 6.64219 5.63862 6.64102
104 2 2.2208 13.6239 12.5899 2.40252
70 1 -1.1104 6.47913 11.2129 3.7573
105 2 2.2208 13.5736 7.10621 2.39037
84 2 2.2208 10.8034 6.98576 5.24641
85 2 2.2208 10.7333 12.5792 5.26747
86 1 -1.1104 12.1068 8.36058 1.00375
87 1 -1.1104 12.276 8.46325 3.72928
88 1 -1.1104 12.2429 5.63764 0.98652
89 1 -1.1104 12.1525 11.1596 1.00459
91 2 2.2208 10.7682 9.82225 2.44584
92 1 -1.1104 12.1307 5.67948 3.76909
93 1 -1.1104 12.099 11.1671 3.87209
94 1 -1.1104 9.33999 8.35124 0.987553
95 2 2.2208 7.99521 7.08757 2.36417
96 2 2.2208 7.87345 12.5792 2.39281
97 1 -1.1104 9.38503 8.43447 3.79575
98 2 2.2208 7.93489 9.80321 5.27724
99 1 -1.1104 9.4435 5.60368 0.879924
100 1 -1.1104 9.31654 11.162 1.0052
102 1 -1.1104 9.42187 5.68429 3.8797
103 1 -1.1104 9.23816 11.2505 3.7683
265 1 -1.1104 12.1968 8.44077 6.46096
335 2 2.2208 13.5578 9.83472 5.1801
267 1 -1.1104 9.50046 8.3948 6.6555
269 1 -1.1104 9.46933 5.63778 6.59368
266 1 -1.1104 12.0878 5.53532 6.61655
106 2 2.2208 5.18069 18.1849 5.30952
107 1 -1.1104 1.03719 13.998 0.933672
109 1 -1.1104 0.959324 19.5372 0.910519
113 1 -1.1104 0.952527 13.9745 3.7406
114 1 -1.1104 1.06945 19.5906 3.76645
116 1 -1.1104 0.965138 16.8012 1.04621
119 2 2.2208 5.14111 15.3829 2.49319
120 2 2.2208 5.22422 20.9931 2.45888
121 1 -1.1104 1.0136 16.7801 3.86688
123 1 -1.1104 3.77514 14.0495 1.09936
125 1 -1.1104 3.8491 19.573 1.02748
127 2 2.2208 2.4138 18.1895 2.42916
128 1 -1.1104 3.72451 14.0252 3.88173
129 1 -1.1104 3.76785 19.6351 3.83295
130 2 2.2208 2.35139 15.3939 5.25201
131 2 2.2208 2.41369 21.0391 5.15791
132 1 -1.1104 3.82154 16.8041 0.941514
134 1 -1.1104 3.75114 16.8478 3.75541
115 1 -1.1104 6.54209 14.0207 3.78464
139 1 -1.1104 6.57403 19.5716 3.89967
140 1 -1.1104 6.65197 16.6813 1.0939
138 1 -1.1104 6.55076 19.5339 0.966379
124 1 -1.1104 3.87679 14.0051 6.55514
133 1 -1.1104 3.75225 16.7165 6.67665
111 1 -1.1104 6.70954 14.0882 6.5995
126 1 -1.1104 3.79089 19.4398 6.66841
112 1 -1.1104 6.55013 19.64 6.67819
373 2 2.2208 10.7279 15.4318 13.6184
122 1 -1.1104 6.55126 16.7693 3.87969
143 1 -1.1104 12.1515 13.932 6.53281
110 1 -1.1104 6.49372 13.964 1.015
118 1 -1.1104 6.62885 16.8068 6.67979
165 2 2.2208 13.4828 18.2118 2.34287
156 1 -1.1104 9.28833 19.606 6.6471
154 1 -1.1104 9.49606 14.0301 6.61241
141 2 2.2208 10.7944 18.1728 5.25998
142 1 -1.1104 12.228 13.9811 1.14262
144 1 -1.1104 12.1191 19.6782 1.10795
146 1 -1.1104 12.1751 14.0392 3.76766
147 1 -1.1104 12.0838 19.6061 3.86841
148 1 -1.1104 12.0613 16.8895 0.90801
150 2 2.2208 10.7737 15.3433 2.36423
151 2 2.2208 10.7827 20.9318 2.49149
152 1 -1.1104 12.1031 16.8696 3.7218
153 1 -1.1104 9.35508 13.8936 0.966718
155 1 -1.1104 9.25348 19.5271 1.0008
157 2 2.2208 7.98054 18.1372 2.46684
158 1 -1.1104 9.16998 13.9594 3.77698
159 1 -1.1104 9.42599 19.5422 3.77278
160 2 2.2208 7.97896 15.3555 5.22877
161 2 2.2208 7.92335 21.0397 5.26995
162 1 -1.1104 9.41272 16.6865 0.969122
164 1 -1.1104 9.31577 16.7172 3.76698
163 1 -1.1104 9.334 16.8678 6.60526
145 1 -1.1104 12.2026 19.5786 6.63221
149 1 -1.1104 12.2586 16.8079 6.52726
372 2 2.2208 10.8256 21.0306 13.6695
170 1 -1.1104 0.994896 0.0339932 6.62146
392 2 2.2208 13.5932 4.23152 -0.328812
349 2 2.2208 2.45194 1.42162 13.5633
174 1 -1.1104 3.82047 0.0455143 6.56812
175 2 2.2208 5.22524 1.39646 10.8458
176 1 -1.1104 0.954044 -2.76509 12.249
177 1 -1.1104 0.966995 2.73155 12.1401
180 1 -1.1104 1.05187 -2.74341 9.50677
181 1 -1.1104 0.894741 2.90407 9.34358
184 1 -1.1104 0.991239 -0.0748355 12.2113
186 2 2.2208 5.19267 -1.22234 8.00372
187 2 2.2208 5.14476 4.16712 8.08035
188 1 -1.1104 0.98439 0.104475 9.36095
190 1 -1.1104 3.77276 -2.75295 12.2033
191 1 -1.1104 3.91601 2.81567 12.1568
192 2 2.2208 2.38779 1.58835 7.96913
193 1 -1.1104 3.78691 -2.68894 9.42239
194 1 -1.1104 3.68834 2.90909 9.48839
195 2 2.2208 2.36152 -1.2294 10.8156
196 2 2.2208 2.32459 4.35929 10.7346
197 1 -1.1104 3.76332 0.0508653 12.198
198 1 -1.1104 3.843 0.202735 9.37981
178 1 -1.1104 6.62598 -2.75262 12.172
179 1 -1.1104 6.59474 2.88724 12.1556
182 1 -1.1104 6.47153 -2.63912 9.30527
183 1 -1.1104 6.5417 2.85552 9.34618
202 2 2.2208 2.38752 -4.02549 8.01388
185 1 -1.1104 6.57415 -0.0346422 12.1975
189 1 -1.1104 6.64794 0.0301763 9.40506
348 2 2.2208 5.14789 -1.34056 13.6397
333 2 2.2208 13.5556 15.339 10.7341
229 2 2.2208 13.5372 1.40102 8.0428
171 1 -1.1104 6.6081 0.130682 6.54115
230 2 2.2208 13.5256 -1.34244 10.8526
338 2 2.2208 13.5395 4.23873 10.921
210 1 -1.1104 9.36139 0.0895478 6.62581
211 2 2.2208 10.7497 1.39448 10.88
212 1 -1.1104 12.1918 -2.81941 12.2556
213 1 -1.1104 12.1156 2.78601 12.2495
214 1 -1.1104 12.1241 -2.63179 9.49869
215 1 -1.1104 12.0706 2.86699 9.42626
216 1 -1.1104 12.2469 0.100089 12.2377
217 2 2.2208 10.7153 -1.37043 7.9846
218 2 2.2208 10.7631 4.21987 8.02569
219 1 -1.1104 12.2029 0.0721179 9.4782
220 1 -1.1104 9.37448 -2.8636 12.2892
221 1 -1.1104 9.27241 2.8184 12.2093
222 2 2.2208 7.98535 1.4364 8.0238
223 1 -1.1104 9.20565 -2.8442 9.42796
224 1 -1.1104 9.31659 2.76069 9.41742
225 2 2.2208 8.05402 -1.38148 10.8975
226 2 2.2208 7.9187 4.23755 10.8831
227 1 -1.1104 9.45126 -0.00711002 12.3237
228 1 -1.1104 9.41228 -0.145252 9.47453
370 2 2.2208 13.6264 1.4217 13.6247
357 2 2.2208 10.8353 4.2081 13.6178
359 2 2.2208 2.49976 7.02849 13.6175
240 2 2.2208 5.21122 7.00505 10.8056
241 2 2.2208 5.20778 12.4874 10.9003
242 1 -1.1104 1.06771 8.38583 12.2372
244 1 -1.1104 1.00898 8.48773 9.31201
246 1 -1.1104 0.949125 5.69508 12.1789
247 1 -1.1104 0.894296 11.1815 12.1584
250 2 2.2208 5.1419 9.8227 8.05625
251 1 -1.1104 0.935532 5.7038 9.32313
252 1 -1.1104 1.02303 11.2564 9.43006
255 1 -1.1104 3.95793 8.37339 12.1913
256 2 2.2208 2.36797 7.03984 7.89997
257 2 2.2208 2.39439 12.6168 8.03412
258 1 -1.1104 3.77347 8.42627 9.44184
259 2 2.2208 2.38541 9.7916 10.7922
260 1 -1.1104 3.83976 5.62073 12.1256
261 1 -1.1104 3.80934 11.2072 12.2546
262 1 -1.1104 3.74649 5.62773 9.33015
263 1 -1.1104 3.78874 11.2499 9.45435
253 1 -1.1104 6.54948 5.59964 9.55117
245 1 -1.1104 6.59715 8.35526 9.48596
249 1 -1.1104 6.63974 11.2558 12.2328
254 1 -1.1104 6.62795 11.1674 9.41257
360 2 2.2208 5.27757 9.75308 13.6197
361 2 2.2208 2.45546 12.6062 13.6004
365 2 2.2208 8.01626 12.5673 13.5749
235 1 -1.1104 6.53582 8.3987 6.6574
243 1 -1.1104 6.65827 8.3734 12.2284
101 1 -1.1104 9.33303 11.2269 6.58152
376 2 2.2208 7.93793 18.1905 13.6297
248 1 -1.1104 6.66555 5.66581 12.3008
90 1 -1.1104 12.1444 11.1432 6.6029
264 1 -1.1104 9.33266 11.1287 9.33403
268 1 -1.1104 9.3873 5.56944 9.3975
270 1 -1.1104 9.4048 11.2306 12.2334
271 1 -1.1104 9.39643 5.53031 12.217
272 2 2.2208 8.05443 9.7639 10.7793
273 1 -1.1104 9.52631 8.24822 9.45082
274 2 2.2208 8.00753 12.7364 8.04627
275 2 2.2208 7.96521 7.0318 7.98274
276 2 2.2208 10.8399 6.974 10.7658
277 2 2.2208 10.7849 12.4648 10.7304
278 1 -1.1104 12.2206 8.43103 12.2978
279 1 -1.1104 12.254 8.50735 9.27825
280 1 -1.1104 12.2024 5.57992 12.2973
281 1 -1.1104 12.2443 11.1519 12.1402
282 2 2.2208 10.7479 9.79678 7.95724
283 1 -1.1104 12.2013 5.65337 9.46183
284 1 -1.1104 12.2356 11.144 9.46236
285 1 -1.1104 9.44633 8.40035 12.1831
340 2 2.2208 13.5815 12.572 7.93573
364 2 2.2208 10.8006 9.83555 13.6295
290 1 -1.1104 6.58737 13.8952 9.41767
117 1 -1.1104 0.949131 16.7455 6.595
380 2 2.2208 13.582 18.2949 13.5109
297 1 -1.1104 6.55217 14.0139 12.1276
306 1 -1.1104 6.5489 16.7306 12.2657
302 1 -1.1104 0.971047 19.522 6.49649
108 1 -1.1104 1.02277 13.937 6.6917
288 1 -1.1104 6.57693 19.5142 9.46603
293 2 2.2208 5.2015 21.0227 8.05629
294 1 -1.1104 0.932425 14.0245 9.47058
295 2 2.2208 5.22314 15.4002 8.02003
298 1 -1.1104 0.911875 19.5704 12.1545
286 1 -1.1104 3.76699 19.5896 12.2359
299 1 -1.1104 1.06775 13.9154 12.2458
291 1 -1.1104 1.0637 19.4336 9.36214
287 1 -1.1104 3.84305 13.9608 12.1869
292 1 -1.1104 0.961797 16.6657 9.41461
310 2 2.2208 2.42701 15.4195 10.882
309 2 2.2208 2.40308 21.0148 10.8813
308 1 -1.1104 3.7834 16.7768 12.2294
307 1 -1.1104 1.00278 16.7431 12.2075
305 1 -1.1104 3.84555 13.9747 9.36444
304 1 -1.1104 3.78802 16.8033 9.37439
303 2 2.2208 2.34057 18.0949 7.99433
301 1 -1.1104 3.82931 19.7081 9.42494
300 2 2.2208 5.14533 18.2389 10.8502
296 1 -1.1104 6.51795 19.5904 12.1989
289 1 -1.1104 6.56348 16.7567 9.41837
362 2 2.2208 13.5365 12.5239 13.5321
371 2 2.2208 5.19284 15.3435 13.6096
324 2 2.2208 10.8122 20.9391 7.9305
322 1 -1.1104 9.21478 14.0166 12.1764
316 2 2.2208 7.97245 20.9221 10.8944
330 1 -1.1104 12.1684 14.0303 12.2095
325 2 2.2208 10.8086 15.4389 8.00308
314 1 -1.1104 9.3673 16.7932 9.50483
320 2 2.2208 7.96544 18.1837 8.03922
317 2 2.2208 7.96424 15.4083 10.8686
345 2 2.2208 13.6015 21.0115 10.751
328 1 -1.1104 12.1364 13.8876 9.4079
321 1 -1.1104 9.29068 19.5368 12.255
331 2 2.2208 10.8059 18.2048 10.8092
319 1 -1.1104 9.34083 13.988 9.36221
327 1 -1.1104 12.2217 19.5553 9.37042
323 1 -1.1104 12.2239 16.7563 9.33965
326 1 -1.1104 12.1227 16.82 12.1228
315 1 -1.1104 9.31285 16.7069 12.3215
329 1 -1.1104 12.1223 19.6179 12.1018
318 1 -1.1104 9.42628 19.6443 9.49963
29 2 2.2208 5.17784 -4.06654 5.18686
28 2 2.2208 2.43589 -4.10286 2.3691
203 2 2.2208 5.25284 -4.04692 10.7109
332 2 2.2208 13.639 18.1409 7.94323
363 2 2.2208 8.06827 6.9797 13.5785
355 2 2.2208 8.03665 1.32533 13.6071
368 2 2.2208 2.35061 18.1811 13.5315
366 2 2.2208 13.6261 7.00108 13.5496
400 2 2.2208 10.7786 12.5534 -0.333683
385 2 2.2208 5.17186 -4.09061 -0.322941
377 2 2.2208 7.97893 15.3319 -0.279999
406 2 2.2208 5.17331 1.44655 16.3905
407 1 -1.1104 0.978412 -2.7057 17.7574
408 1 -1.1104 0.955371 2.80137 17.8188
411 1 -1.1104 1.0384 -2.75296 14.9788
413 1 -1.1104 1.0365 2.89513 14.9698
419 1 -1.1104 0.99528 0.0907182 17.8412
421 2 2.2208 5.16552 -1.28334 19.2309
422 2 2.2208 5.22243 4.17119 19.2699
423 1 -1.1104 1.12761 0.0641105 15.0361
427 1 -1.1104 3.7652 -2.71959 17.8237
428 1 -1.1104 3.72849 2.72901 17.848
429 2 2.2208 2.37401 1.41218 19.2383
430 1 -1.1104 3.80418 -2.72347 15.029
432 1 -1.1104 3.84829 2.85509 14.9912
434 2 2.2208 2.36797 -1.31592 16.4139
435 2 2.2208 2.38838 4.19296 16.4596
436 1 -1.1104 3.77353 0.00918654 17.8436
437 1 -1.1104 3.76997 0.169915 15.0849
410 1 -1.1104 6.57829 2.81219 17.7339
420 1 -1.1104 6.69363 0.063421 17.7882
417 1 -1.1104 6.65855 2.80752 15.0498
415 1 -1.1104 6.5416 -2.76682 15.0051
412 1 -1.1104 0.971809 -2.70698 20.5861
431 1 -1.1104 3.8861 -2.72448 20.5808
433 1 -1.1104 3.70022 2.8959 20.5869
438 1 -1.1104 3.83998 0.0164762 20.6852
416 1 -1.1104 6.54588 -2.76712 20.6951
409 1 -1.1104 6.59809 -2.75752 17.8413
425 1 -1.1104 6.56163 0.038387 14.9637
414 1 -1.1104 0.939067 2.82655 20.6054
441 2 2.2208 2.48826 -4.08949 19.2699
449 2 2.2208 10.9907 1.35731 16.3688
450 1 -1.1104 12.1569 -2.81495 17.8184
451 1 -1.1104 12.2295 2.73178 17.7938
452 1 -1.1104 12.2325 -2.75286 15.0095
454 1 -1.1104 12.1978 2.84763 15.0613
456 1 -1.1104 12.2347 -0.0125199 17.8344
457 2 2.2208 10.7392 -1.41949 19.204
458 2 2.2208 10.8666 4.16447 19.2414
459 1 -1.1104 12.3219 0.0418498 15.0669
461 1 -1.1104 9.39852 -2.831 17.8154
462 1 -1.1104 9.39387 2.91683 17.7917
463 2 2.2208 8.02444 1.44263 19.1767
464 1 -1.1104 9.30071 -2.75384 15.1244
466 1 -1.1104 9.46946 2.85618 14.9619
468 2 2.2208 8.01711 -1.38704 16.4505
469 2 2.2208 8.09347 4.24796 16.3634
470 1 -1.1104 9.50459 0.0609076 17.8853
471 1 -1.1104 9.46151 0.0551939 15.0514
579 2 2.2208 13.658 4.28155 16.404
460 1 -1.1104 12.0592 0.0443736 20.6841
578 2 2.2208 13.5894 1.41132 19.1914
453 1 -1.1104 12.1648 -2.80464 20.5625
472 1 -1.1104 9.34285 -0.0530217 20.6432
475 2 2.2208 7.90893 -4.12322 19.2796
639 2 2.2208 5.25785 -4.12228 22.0257
517 2 2.2208 13.5386 12.5353 19.203
482 2 2.2208 5.28543 6.95928 16.4506
483 2 2.2208 5.22369 12.5654 16.3381
484 1 -1.1104 1.03372 8.3482 17.8218
486 1 -1.1104 1.0737 8.40764 14.9661
490 1 -1.1104 0.952559 5.56008 17.7878
491 1 -1.1104 0.985564 11.1947 17.7723
494 2 2.2208 5.20409 9.79107 19.1214
495 1 -1.1104 1.08703 5.65624 15.0336
497 1 -1.1104 1.12543 11.2222 14.9971
503 1 -1.1104 3.84854 8.35898 17.7194
504 2 2.2208 2.38583 6.98074 19.2257
505 2 2.2208 2.3586 12.615 19.2072
506 1 -1.1104 3.85733 8.42858 14.9756
508 2 2.2208 2.4349 9.81184 16.3063
509 1 -1.1104 3.77714 5.54327 17.899
510 1 -1.1104 3.8131 11.1872 17.7374
511 1 -1.1104 3.85537 5.64154 15.0336
513 1 -1.1104 3.9114 11.1359 15.0312
512 1 -1.1104 3.86007 5.60954 20.6215
488 1 -1.1104 6.67716 8.39362 14.9737
501 1 -1.1104 6.68654 11.1784 14.9536
493 1 -1.1104 6.63495 11.2887 17.7514
485 1 -1.1104 6.60936 8.48499 17.6436
514 1 -1.1104 3.81165 11.0985 20.4787
489 1 -1.1104 6.59751 8.43833 20.4998
499 1 -1.1104 6.59589 5.59334 15.0823
507 1 -1.1104 3.87951 8.32873 20.5885
496 1 -1.1104 0.926671 5.58137 20.489
498 1 -1.1104 0.829961 11.161 20.6051
502 1 -1.1104 6.6105 11.2401 20.5655
379 2 2.2208 7.97547 20.9274 27.6123
492 1 -1.1104 6.61803 5.64468 17.8567
500 1 -1.1104 6.68054 5.62028 20.648
518 2 2.2208 10.847 6.93347 16.4437
519 2 2.2208 10.767 12.649 16.4799
520 1 -1.1104 12.1546 8.37138 17.8508
521 1 -1.1104 12.2132 8.2936 15.0675
523 1 -1.1104 12.2336 5.55926 17.8674
524 1 -1.1104 12.2152 11.1037 17.8752
525 2 2.2208 10.7451 9.75338 19.2413
526 1 -1.1104 12.1771 5.56093 15.13
528 1 -1.1104 12.2432 11.2534 15.0579
530 1 -1.1104 9.37027 8.36348 17.7466
531 2 2.2208 7.97037 6.98573 19.2685
532 2 2.2208 7.94818 12.5287 19.1763
533 1 -1.1104 9.39804 8.44178 14.9273
535 2 2.2208 8.07554 9.76501 16.3635
536 1 -1.1104 9.41569 5.53745 17.7766
537 1 -1.1104 9.30449 11.1556 17.8015
538 1 -1.1104 9.45071 5.61481 15.0116
540 1 -1.1104 9.46213 11.2374 15.0016
527 1 -1.1104 12.1877 5.5577 20.6626
542 2 2.2208 13.5823 7.05692 19.1778
541 1 -1.1104 9.35532 11.1419 20.538
534 1 -1.1104 9.47206 8.33726 20.5208
522 1 -1.1104 12.1854 8.46534 20.5692
529 1 -1.1104 12.1644 11.1504 20.6162
543 2 2.2208 13.5916 9.7686 16.3798
473 2 2.2208 13.601 -4.13707 19.1752
640 2 2.2208 2.397 -4.10578 24.7879
440 2 2.2208 5.20071 -4.09664 16.4106
545 2 2.2208 5.22857 18.2015 16.4217
546 1 -1.1104 0.953829 13.9924 17.8163
547 1 -1.1104 0.797949 19.6365 17.7528
550 1 -1.1104 0.944153 13.887 15.0643
552 1 -1.1104 1.09054 19.5984 14.8647
558 1 -1.1104 0.96042 16.8082 17.9141
560 2 2.2208 5.2037 15.3363 19.2192
561 2 2.2208 5.10759 20.8893 19.1693
562 1 -1.1104 0.995571 16.7787 15.066
566 1 -1.1104 3.70032 13.9823 17.7421
567 1 -1.1104 3.78374 19.5132 17.6882
568 2 2.2208 2.30625 18.1054 19.2016
569 1 -1.1104 3.75669 13.9553 14.878
571 1 -1.1104 3.75999 19.5438 14.9856
573 2 2.2208 2.40288 15.4134 16.3467
574 2 2.2208 2.34303 20.8529 16.2805
575 1 -1.1104 3.85013 16.74 17.8427
576 1 -1.1104 3.76906 16.7266 15.0324
572 1 -1.1104 3.73777 19.525 20.5503
556 1 -1.1104 6.54693 19.623 15.0638
553 1 -1.1104 0.890493 19.4855 20.5232
548 1 -1.1104 6.51526 13.9215 17.8399
554 1 -1.1104 6.6424 13.9465 14.9218
559 1 -1.1104 6.62183 16.7304 17.8254
564 1 -1.1104 6.58179 16.8541 15.0143
570 1 -1.1104 3.75024 13.9653 20.5705
549 1 -1.1104 6.5861 19.6516 17.7314
577 1 -1.1104 3.97657 16.8321 20.6531
551 1 -1.1104 0.976394 13.9968 20.6599
557 1 -1.1104 6.53236 19.4171 20.5603
555 1 -1.1104 6.55952 14.0439 20.6354
565 1 -1.1104 6.64259 16.7286 20.6596
605 2 2.2208 13.5862 18.1983 24.8081
477 2 2.2208 13.6613 -1.51593 16.4772
478 2 2.2208 13.6174 20.9099 16.4121
480 2 2.2208 13.5631 15.4412 16.3891
592 1 -1.1104 12.2162 16.8342 20.4743
581 2 2.2208 10.7716 18.1371 16.4733
582 1 -1.1104 12.1173 13.9315 17.8872
583 1 -1.1104 12.2095 19.5275 17.7819
584 1 -1.1104 12.1161 14.1373 15.088
586 1 -1.1104 12.2712 19.6647 14.9162
588 1 -1.1104 12.178 16.7867 17.7272
589 2 2.2208 10.7531 15.3697 19.1636
590 2 2.2208 10.8697 20.9759 19.2594
591 1 -1.1104 12.2412 16.8554 14.9069
593 1 -1.1104 9.29773 14.034 17.737
594 1 -1.1104 9.38731 19.5338 17.9324
595 2 2.2208 7.93326 18.1729 19.2689
596 1 -1.1104 9.42014 13.8936 15.0433
598 1 -1.1104 9.43015 19.6222 15.0657
600 2 2.2208 7.97652 15.3451 16.3774
601 2 2.2208 7.98573 20.9805 16.4556
602 1 -1.1104 9.363 16.723 17.8158
603 1 -1.1104 9.30492 16.7868 15.02
597 1 -1.1104 9.36913 13.9277 20.5413
587 1 -1.1104 12.2184 19.6092 20.5574
585 1 -1.1104 12.0766 14.0568 20.6487
599 1 -1.1104 9.32343 19.6733 20.6211
479 2 2.2208 13.5964 18.1369 19.1504
663 1 -1.1104 12.0745 16.8132 26.1717
426 1 -1.1104 6.59697 0.0508484 20.6363
374 2 2.2208 13.5473 15.4182 27.5531
418 1 -1.1104 6.6336 2.86819 20.6507
424 1 -1.1104 1.01101 0.061651 20.6635
609 2 2.2208 5.20024 1.50471 22.075
610 1 -1.1104 0.907331 -2.83392 23.3769
611 1 -1.1104 0.971681 2.94323 23.3734
614 1 -1.1104 1.00483 -2.65276 26.1771
615 1 -1.1104 0.911124 2.93504 26.1956
618 1 -1.1104 0.986228 0.118519 23.4342
620 2 2.2208 5.23207 -1.31699 24.7735
621 2 2.2208 5.22771 4.28437 24.8443
622 1 -1.1104 0.998922 0.19517 26.2289
624 1 -1.1104 3.78715 -2.68698 23.3686
625 1 -1.1104 3.8043 2.95481 23.5159
626 2 2.2208 2.40746 1.46834 24.7599
627 1 -1.1104 3.88473 -2.69046 26.2647
628 1 -1.1104 3.81073 2.85868 26.3189
629 2 2.2208 2.28878 -1.45597 22.0625
630 2 2.2208 2.35635 4.3105 21.9346
631 1 -1.1104 3.7769 0.121734 23.3984
632 1 -1.1104 3.74694 0.0825591 26.1842
617 1 -1.1104 6.61462 2.80089 26.1385
616 1 -1.1104 6.594 -2.7332 26.3096
623 1 -1.1104 6.60874 0.12256 26.252
612 1 -1.1104 6.69851 -2.79317 23.4373
613 1 -1.1104 6.56102 2.85037 23.3678
619 1 -1.1104 6.66598 0.0216947 23.4409
381 2 2.2208 5.11777 1.43023 27.6384
383 2 2.2208 2.32474 4.24887 27.606
604 1 -1.1104 9.49364 16.779 20.5403
382 2 2.2208 2.37802 -1.24751 27.5047
390 2 2.2208 10.8513 -4.08946 27.5992
671 2 2.2208 13.5211 -1.36369 22.0583
455 1 -1.1104 12.1792 2.88143 20.6549
465 1 -1.1104 9.29842 -2.7946 20.6342
375 2 2.2208 13.5449 21.0364 27.5902
726 2 2.2208 13.5396 12.5918 24.8198
467 1 -1.1104 9.37239 2.82903 20.6394
446 2 2.2208 13.5391 4.1893 22.018
672 2 2.2208 13.5105 1.46986 24.8323
645 2 2.2208 10.7245 1.43291 22.0787
646 1 -1.1104 12.2089 -2.83964 23.3684
647 1 -1.1104 12.1741 2.67823 23.4594
648 1 -1.1104 12.1469 -2.61902 26.2427
649 1 -1.1104 12.0951 2.89692 26.269
650 1 -1.1104 12.1444 0.011353 23.4415
651 2 2.2208 10.8021 -1.27883 24.8684
652 2 2.2208 10.7866 4.13511 24.8012
653 1 -1.1104 12.2174 0.126809 26.1931
654 1 -1.1104 9.41513 -2.71727 23.4951
655 1 -1.1104 9.33438 2.71981 23.4083
656 2 2.2208 8.00548 1.43839 24.8931
657 1 -1.1104 9.32001 -2.74536 26.2562
658 1 -1.1104 9.49637 2.79347 26.1922
659 2 2.2208 7.93103 -1.37168 22.0504
660 2 2.2208 7.99655 4.28763 22.0158
661 1 -1.1104 9.49448 -0.0109424 23.4891
662 1 -1.1104 9.33305 -0.0115971 26.4236
388 2 2.2208 7.9412 -1.38513 27.6789
442 2 2.2208 -0.322344 1.50377 16.3282
704 1 -1.1104 9.31826 16.7669 26.2655
389 2 2.2208 8.04624 4.22646 27.5679
394 2 2.2208 2.4528 9.85585 27.5876
393 2 2.2208 5.16324 7.07272 27.6066
487 1 -1.1104 0.952027 8.38868 20.5856
674 2 2.2208 5.26571 7.0245 21.9764
675 2 2.2208 5.21973 12.5717 22.0435
676 1 -1.1104 0.993082 8.42024 23.3972
678 1 -1.1104 1.00144 8.45896 26.2856
680 1 -1.1104 1.01547 5.70485 23.3555
681 1 -1.1104 0.988134 11.1876 23.3541
684 2 2.2208 5.11104 9.78322 24.7209
685 1 -1.1104 0.863919 5.72547 26.1405
686 1 -1.1104 1.03921 11.3223 26.1431
689 1 -1.1104 3.80551 8.36332 23.2673
690 2 2.2208 2.3817 7.02931 24.7497
691 2 2.2208 2.4107 12.6336 24.8577
692 1 -1.1104 3.76285 8.4075 26.1235
693 2 2.2208 2.36031 9.76251 21.9324
694 1 -1.1104 3.83582 5.58415 23.4025
695 1 -1.1104 3.79204 11.2118 23.3612
696 1 -1.1104 3.78171 5.65933 26.2972
697 1 -1.1104 3.75894 11.2184 26.1779
688 1 -1.1104 6.52858 11.0867 26.1473
682 1 -1.1104 6.60569 5.6277 23.361
679 1 -1.1104 6.6156 8.43887 26.0986
677 1 -1.1104 6.60692 8.37574 23.291
687 1 -1.1104 6.59133 5.69846 26.2334
395 2 2.2208 5.20047 12.5517 27.6075
445 2 2.2208 13.5547 9.76966 22.0211
683 1 -1.1104 6.57948 11.1597 23.3876
728 2 2.2208 13.6285 7.08358 24.9004
539 1 -1.1104 9.44555 5.52047 20.5001
705 1 -1.1104 9.36457 11.2647 26.1944
706 1 -1.1104 9.32915 5.56192 26.1246
707 1 -1.1104 9.34704 11.1337 23.3326
708 1 -1.1104 9.46702 5.57857 23.3718
709 2 2.2208 7.95401 9.70283 21.9449
710 1 -1.1104 9.4873 8.4361 26.2142
711 2 2.2208 8.00046 12.5806 24.7614
712 2 2.2208 8.04331 6.98311 24.7413
713 2 2.2208 10.9045 7.01773 22.0689
714 2 2.2208 10.7267 12.6756 22.0095
715 1 -1.1104 12.2382 8.46631 23.4708
716 1 -1.1104 12.2347 8.469 26.24
717 1 -1.1104 12.2522 5.57115 23.521
718 1 -1.1104 12.1743 11.1962 23.4366
719 2 2.2208 10.7851 9.93474 24.7872
720 1 -1.1104 12.1834 5.64099 26.2305
721 1 -1.1104 12.1731 11.2264 26.2286
722 1 -1.1104 9.38851 8.29057 23.4454
668 2 2.2208 10.7502 -4.10602 21.9917
402 2 2.2208 13.5921 9.8099 27.6456
398 2 2.2208 10.7476 7.0433 27.5819
399 2 2.2208 7.98603 9.83046 27.6527
404 2 2.2208 5.24212 18.0911 27.6419
403 2 2.2208 2.39335 15.3691 27.6051
732 1 -1.1104 6.59997 16.7535 26.269
747 1 -1.1104 6.74354 16.7598 23.4963
670 1 -1.1104 6.57864 19.5339 26.1736
563 1 -1.1104 0.991539 16.6766 20.5928
750 2 2.2208 2.4112 20.9332 21.8942
749 1 -1.1104 3.8142 16.7387 23.4311
727 2 2.2208 2.45726 15.3153 22.0701
729 1 -1.1104 3.79225 19.6066 23.3939
731 1 -1.1104 3.79061 13.9882 23.3929
733 1 -1.1104 0.94746 19.6701 26.0895
734 1 -1.1104 1.01462 16.8361 26.308
735 1 -1.1104 1.06548 14.0582 26.1787
737 2 2.2208 5.22342 20.9759 24.7937
738 2 2.2208 5.22148 15.3605 24.8471
740 1 -1.1104 1.05605 19.5014 23.3027
741 1 -1.1104 0.965431 14 23.4004
742 2 2.2208 5.12717 18.1893 22.0523
743 1 -1.1104 3.79178 19.449 26.2159
744 2 2.2208 2.40491 18.1587 24.8937
745 1 -1.1104 3.83552 16.7575 26.257
746 1 -1.1104 3.8309 13.9693 26.2137
748 1 -1.1104 1.02642 16.7831 23.4429
736 1 -1.1104 6.62744 19.657 23.3335
730 1 -1.1104 6.61338 13.9504 26.2149
405 2 2.2208 2.38041 20.9667 27.571
606 2 2.2208 13.5258 20.9953 21.9817
669 2 2.2208 8.08621 -4.13955 24.8765
378 2 2.2208 10.7043 18.2453 27.6466
698 1 -1.1104 9.41816 19.6281 26.1985
673 1 -1.1104 9.34033 13.9517 26.2501
664 1 -1.1104 9.36902 14.0524 23.3632
580 2 2.2208 13.4957 15.3342 21.9911
665 1 -1.1104 9.43435 19.6243 23.3971
641 2 2.2208 10.7269 20.9406 24.7893
634 1 -1.1104 12.0929 13.9838 26.263
608 1 -1.1104 12.1446 14.0472 23.4426
701 1 -1.1104 9.46882 16.9067 23.4351
635 1 -1.1104 12.1812 19.6056 26.2955
636 1 -1.1104 12.3072 16.745 23.3969
633 1 -1.1104 12.194 19.4211 23.3841
739 1 -1.1104 6.49671 14.026 23.3487
607 2 2.2208 10.8586 18.1727 21.9221
699 2 2.2208 8.0289 15.453 21.9661
638 2 2.2208 10.7286 15.3838 24.8693
700 2 2.2208 7.92426 21.0166 21.9781
667 2 2.2208 8.00291 18.18 24.835
387 2 2.2208 10.8424 1.4897 27.6309
391 2 2.2208 13.5565 -1.43366 27.6575
352 2 2.2208 5.23519 4.20021 13.7093
369 2 2.2208 5.22867 20.9923 13.6945
347 2 2.2208 2.34818 -4.09294 13.6794
356 2 2.2208 10.8269 -1.43038 13.6582
751 2 2.2208 5.21333 23.9012 5.22571
752 2 2.2208 5.17179 29.3222 5.11467
753 1 -1.1104 1.01066 25.2006 0.939762
754 1 -1.1104 1.03655 25.1995 3.74784
755 1 -1.1104 1.0457 22.3794 0.85864
756 1 -1.1104 0.928224 27.9542 0.938054
757 2 2.2208 5.13893 26.586 2.38621
758 1 -1.1104 1.12675 22.4145 3.74435
759 1 -1.1104 1.06064 27.9808 3.74589
760 1 -1.1104 3.88118 25.1872 0.935734
761 2 2.2208 2.41769 23.795 2.36243
762 2 2.2208 2.42089 29.4318 2.38595
763 1 -1.1104 3.80143 25.1858 3.75993
764 2 2.2208 2.38393 26.5705 5.14133
765 1 -1.1104 3.79457 22.4269 0.943642
766 1 -1.1104 3.79627 27.9795 0.940717
767 1 -1.1104 3.77449 22.4054 3.73439
768 1 -1.1104 3.72644 27.8783 3.82525
776 1 -1.1104 6.61662 22.3131 3.85517
894 1 -1.1104 1.0486 22.438 6.50884
777 1 -1.1104 6.56692 28.0326 3.74127
774 1 -1.1104 6.65637 22.3351 1.07912
772 1 -1.1104 6.59579 25.2038 1.04443
773 1 -1.1104 6.56996 25.312 3.9074
899 1 -1.1104 3.89421 22.3583 6.5433
900 1 -1.1104 3.73329 27.9596 6.47926
775 1 -1.1104 6.57014 27.9309 1.06531
895 1 -1.1104 0.934485 28.0175 6.61594
898 1 -1.1104 3.83943 25.1882 6.59651
892 1 -1.1104 1.08129 25.2407 6.47082
896 1 -1.1104 6.68985 22.5288 6.61693
897 1 -1.1104 6.58501 28.1593 6.61328
778 2 2.2208 10.8394 23.7164 5.24927
779 2 2.2208 10.7916 29.4629 5.21696
780 1 -1.1104 12.1445 25.1614 1.08264
781 1 -1.1104 12.2364 25.2031 3.83659
782 1 -1.1104 12.2539 22.4804 1.1103
783 1 -1.1104 12.2634 27.9281 1.00502
784 2 2.2208 10.7412 26.6668 2.39201
785 1 -1.1104 12.1329 22.3639 3.85954
786 1 -1.1104 12.2019 28.0963 3.86565
787 1 -1.1104 9.35055 25.1592 1.08019
788 2 2.2208 8.00275 23.7458 2.52094
789 2 2.2208 8.01806 29.4637 2.37359
790 1 -1.1104 9.44733 25.2407 3.87255
791 2 2.2208 7.99538 26.6475 5.11831
792 1 -1.1104 9.45192 22.3821 1.05351
793 1 -1.1104 9.3003 27.9933 0.936257
794 1 -1.1104 9.33531 22.2641 3.89082
795 1 -1.1104 9.40221 28.0613 3.74167
926 1 -1.1104 12.2158 22.2894 6.60131
796 2 2.2208 13.5653 23.6766 2.51113
927 1 -1.1104 12.1057 28.0868 6.57667
893 1 -1.1104 6.60725 25.3161 6.6263
798 2 2.2208 13.5743 26.5855 5.15476
925 1 -1.1104 12.2715 25.2322 6.60616
928 1 -1.1104 9.4474 25.0356 6.70272
797 2 2.2208 13.5767 29.3676 2.48459
1067 2 2.2208 13.581 43.2888 10.7523
1679 1 -1.1104 0.832328 47.6671 12.2838
799 2 2.2208 5.15417 34.9942 5.24396
800 1 -1.1104 0.851178 30.8312 0.909816
801 1 -1.1104 0.959742 36.3634 0.932945
803 1 -1.1104 0.993848 30.8165 3.6836
804 1 -1.1104 0.918451 36.3847 3.75314
806 1 -1.1104 1.10671 33.541 0.981801
807 2 2.2208 5.184 32.2361 2.40498
808 2 2.2208 5.23066 37.7408 2.38804
809 1 -1.1104 0.960279 33.6641 3.67271
811 1 -1.1104 3.83296 30.8456 1.05314
812 1 -1.1104 3.82446 36.3552 1.0547
813 2 2.2208 2.39899 35.0246 2.36251
814 1 -1.1104 3.83688 30.7676 3.74568
815 1 -1.1104 3.76355 36.3725 3.85095
816 2 2.2208 2.40125 32.1238 5.13963
817 2 2.2208 2.33858 37.7623 5.21793
818 1 -1.1104 3.8765 33.6716 1.12853
819 1 -1.1104 3.74798 33.6258 3.76435
955 1 -1.1104 3.76099 30.7289 6.54474
951 1 -1.1104 6.58844 30.7278 6.52262
956 1 -1.1104 3.78023 36.2219 6.66584
953 1 -1.1104 1.04379 33.5196 6.46261
949 1 -1.1104 1.10697 30.7839 6.55871
825 1 -1.1104 6.70414 33.513 1.00698
824 1 -1.1104 6.66178 30.7917 3.64206
950 1 -1.1104 0.930248 36.2733 6.60007
810 1 -1.1104 6.50548 33.6812 3.83397
805 1 -1.1104 6.54144 36.3467 3.79893
802 1 -1.1104 6.64988 36.3445 0.962874
823 1 -1.1104 6.56008 30.7798 1.04111
952 1 -1.1104 6.59629 36.3009 6.5516
1069 2 2.2208 13.5316 32.1813 5.25037
826 2 2.2208 10.7939 34.9479 5.20808
827 1 -1.1104 12.2195 30.6808 1.00948
828 1 -1.1104 12.1776 36.3856 0.98141
829 1 -1.1104 12.2427 30.8219 3.79626
830 1 -1.1104 12.0415 36.3934 3.79958
831 1 -1.1104 12.3019 33.6002 0.969584
832 2 2.2208 10.8002 32.1474 2.41992