ITEM: TIMESTEP
60000
ITEM: NUMBER OF ATOMS
17700
ITEM: BOX BOUNDS pp pp pp
-3.6040534787527345e-01 2.7700405347874327e+01
-4.3411901466205771e+00 3.3242119014663081e+02
-3.5574913117363133e-01 2.7695749131173411e+01
ITEM: ATOMS id type q x y z
1 2 2.2208 5.17745 1.26808 5.20115
2 1 -1.1104 0.98735 -2.88949 0.928763
3 1 -1.1104 1.08415 2.83466 0.88755
6 1 -1.1104 1.02093 -2.89727 3.63976
7 1 -1.1104 1.15257 2.73876 3.81946
10 1 -1.1104 1.01318 -0.00499377 1.03065
12 2 2.2208 5.14376 -1.4045 2.38216
13 2 2.2208 5.46073 4.30259 2.34959
14 1 -1.1104 1.04753 -0.0267068 3.72581
16 1 -1.1104 3.83407 -2.88823 1.00657
17 1 -1.1104 3.92405 2.80073 1.06063
18 2 2.2208 2.4816 1.42137 2.33108
19 1 -1.1104 3.68059 -3.13745 3.85807
20 1 -1.1104 4.00532 2.70969 3.82791
21 2 2.2208 2.41908 -1.45556 5.19073
23 1 -1.1104 3.77461 -0.07594 1.02487
24 1 -1.1104 3.79557 -0.267811 3.9264
25 2 2.2208 -0.336362 -1.51264 2.41335
26 2 2.2208 -0.117793 1.34862 5.23918
167 1 -1.1104 1.24552 2.59027 6.62983
27 2 2.2208 -0.264337 4.18159 2.25319
22 2 2.2208 2.73023 4.10247 5.15132
173 1 -1.1104 4.10399 2.79672 6.61781
170 1 -1.1104 1.28193 -0.101689 6.59999
166 1 -1.1104 0.995337 -2.95347 6.56121
172 1 -1.1104 3.87929 -2.76525 6.54199
171 1 -1.1104 6.58721 -0.113977 6.50562
52 2 2.2208 10.9546 -4.18464 5.2336
11 1 -1.1104 6.67017 -0.0895718 1.1947
8 1 -1.1104 6.62556 -2.76362 3.76818
4 1 -1.1104 6.81227 -2.83766 1.02599
15 1 -1.1104 6.64462 -0.0219059 3.96209
5 1 -1.1104 6.82835 2.94075 1.04619
9 1 -1.1104 6.67421 2.86082 3.80908
31 2 2.2208 10.9576 1.32128 5.32641
32 1 -1.1104 12.181 -2.82124 0.971471
33 1 -1.1104 12.49 2.73489 1.03321
34 1 -1.1104 12.2718 -2.73482 3.90345
35 1 -1.1104 12.3246 2.7787 3.96453
36 1 -1.1104 12.324 0.109908 1.17046
37 2 2.2208 10.7506 -1.47456 2.48799
39 1 -1.1104 12.0938 -0.106647 3.98105
40 1 -1.1104 9.55842 -2.82994 1.12924
41 1 -1.1104 9.58069 2.62052 1.144
42 2 2.2208 8.06989 1.28856 2.43859
43 1 -1.1104 9.33961 -2.73818 3.84153
44 1 -1.1104 9.60451 2.83457 3.96047
45 2 2.2208 8.02922 -1.39518 5.15503
46 2 2.2208 8.14837 4.20428 5.23351
47 1 -1.1104 9.46236 -0.155353 0.935536
48 1 -1.1104 9.36595 -0.036108 3.78887
210 1 -1.1104 9.45413 -0.121503 6.59745
38 2 2.2208 10.9633 4.16609 2.46821
208 1 -1.1104 9.63399 -2.75166 6.63214
205 1 -1.1104 12.3196 -2.77583 6.6217
169 1 -1.1104 6.98501 2.68384 6.60782
207 1 -1.1104 12.3598 -0.104473 6.66954
168 1 -1.1104 6.82543 -2.9902 6.62982
230 2 2.2208 13.8045 -1.52799 10.7344
54 2 2.2208 5.38654 6.96338 5.16545
55 2 2.2208 5.44873 12.4706 5.24979
56 1 -1.1104 1.24905 8.35655 0.980997
58 1 -1.1104 1.19639 8.24361 3.79194
60 1 -1.1104 1.12133 5.60004 0.992858
61 1 -1.1104 1.06285 11.2827 0.969462
66 2 2.2208 5.43861 9.80959 2.29002
67 1 -1.1104 1.27614 5.43544 3.67778
68 1 -1.1104 1.16405 10.9967 3.85859
71 1 -1.1104 4.0232 8.33709 1.02246
72 2 2.2208 2.64766 6.94082 2.35708
73 2 2.2208 2.49026 12.5305 2.30154
74 1 -1.1104 3.98795 8.28024 3.68726
75 2 2.2208 2.57985 9.73978 5.25545
76 1 -1.1104 3.96297 5.59424 1.09419
77 1 -1.1104 3.96198 11.1654 0.992968
79 1 -1.1104 4.16934 5.51895 3.93401
80 1 -1.1104 4.07776 11.238 3.71117
204 2 2.2208 -0.292695 -4.43463 11.0271
81 2 2.2208 -0.0674033 6.95006 5.19175
233 2 2.2208 13.8077 -4.32109 8.16118
239 1 -1.1104 4.04319 5.60324 6.54887
62 1 -1.1104 1.20006 11.1006 6.68545
236 1 -1.1104 1.21683 5.54008 6.61427
78 1 -1.1104 3.93277 11.1024 6.64112
234 1 -1.1104 1.21679 8.39815 6.82426
238 1 -1.1104 3.94193 8.44487 6.60054
419 2 2.2208 2.48412 -4.32893 13.6494
64 1 -1.1104 6.89902 11.2154 1.09369
70 1 -1.1104 6.88077 11.1797 3.88697
59 1 -1.1104 6.76861 8.44594 3.63952
63 1 -1.1104 6.74953 5.79276 1.02502
69 1 -1.1104 6.89469 5.6858 3.92712
57 1 -1.1104 6.93698 8.41903 0.912428
84 2 2.2208 11.0602 6.90163 5.254
85 2 2.2208 11.057 12.6817 5.15155
86 1 -1.1104 12.4563 8.23334 1.09388
87 1 -1.1104 12.4899 8.24909 3.8314
88 1 -1.1104 12.2725 5.44 0.945353
89 1 -1.1104 12.5339 11.0771 0.86972
91 2 2.2208 11.1077 9.75386 2.46718
92 1 -1.1104 12.3871 5.52481 3.84603
93 1 -1.1104 12.5109 11.0099 3.81107
94 1 -1.1104 9.77796 8.46399 0.936164
95 2 2.2208 8.18184 7.14993 2.43455
96 2 2.2208 8.14575 12.5399 2.42925
97 1 -1.1104 9.63147 8.27806 3.75146
98 2 2.2208 8.18339 9.65667 5.07394
99 1 -1.1104 9.44223 5.49744 1.03281
100 1 -1.1104 9.64954 11.1953 1.05976
102 1 -1.1104 9.55718 5.45579 3.79377
103 1 -1.1104 9.61554 11.041 3.81994
237 1 -1.1104 6.85841 5.5548 6.61501
267 1 -1.1104 9.64429 8.36274 6.5379
65 1 -1.1104 6.71892 11.1639 6.71579
90 1 -1.1104 12.4534 11.1822 6.61468
235 1 -1.1104 6.84511 8.2907 6.4227
266 1 -1.1104 12.4445 5.41427 6.72189
101 1 -1.1104 9.49308 11.1903 6.42667
265 1 -1.1104 12.4841 8.40073 6.67669
135 2 2.2208 -0.233947 15.2999 2.44714
136 2 2.2208 -0.270089 20.8375 2.51999
106 2 2.2208 5.37693 18.0726 5.2073
107 1 -1.1104 1.22905 13.9545 1.02022
109 1 -1.1104 1.28061 19.5826 1.13548
113 1 -1.1104 1.19609 13.8291 3.86681
114 1 -1.1104 1.22977 19.593 3.80774
116 1 -1.1104 1.16352 16.8634 1.00763
119 2 2.2208 5.47868 15.3169 2.46491
120 2 2.2208 5.44411 21.0134 2.3585
121 1 -1.1104 1.26686 16.709 3.74731
123 1 -1.1104 3.98453 13.9424 1.08871
125 1 -1.1104 3.98291 19.5461 1.02754
127 2 2.2208 2.56786 18.0459 2.48158
128 1 -1.1104 4.07583 13.9712 3.93887
129 1 -1.1104 4.01387 19.4524 3.95133
130 2 2.2208 2.55837 15.3163 5.1317
131 2 2.2208 2.57668 21.0199 5.20257
132 1 -1.1104 3.93037 16.7274 0.982348
134 1 -1.1104 3.97654 16.6526 3.74789
137 2 2.2208 -0.227483 18.1777 5.20459
108 1 -1.1104 1.33643 13.9129 6.626
117 1 -1.1104 1.33447 16.7 6.66906
302 1 -1.1104 1.23978 19.6001 6.57835
126 1 -1.1104 4.07354 19.6547 6.78643
203 2 2.2208 5.34952 -4.30056 10.8348
118 1 -1.1104 6.70636 16.6201 6.55328
140 1 -1.1104 6.71058 16.7685 0.903154
110 1 -1.1104 6.76766 14.0911 0.963289
138 1 -1.1104 6.86332 19.687 0.916558
122 1 -1.1104 6.85673 16.6745 3.77062
139 1 -1.1104 6.76426 19.6084 3.87309
115 1 -1.1104 6.85398 13.8749 3.81409
141 2 2.2208 11.0399 18.186 5.28335
142 1 -1.1104 12.4657 14.0039 1.12387
144 1 -1.1104 12.3886 19.5746 0.970398
146 1 -1.1104 12.5077 13.8841 3.88895
147 1 -1.1104 12.4102 19.5017 3.8073
148 1 -1.1104 12.4593 16.8607 0.893575
150 2 2.2208 11.0603 15.4435 2.38733
151 2 2.2208 11.0486 20.8914 2.4142
152 1 -1.1104 12.4662 16.8214 3.81538
153 1 -1.1104 9.73747 14.0945 1.04515
155 1 -1.1104 9.72697 19.5211 1.17
157 2 2.2208 8.28001 18.2926 2.471
158 1 -1.1104 9.60425 13.8968 3.80719
159 1 -1.1104 9.62544 19.5776 3.90624
160 2 2.2208 8.20961 15.229 5.21803
161 2 2.2208 8.21994 21.0118 5.30255
162 1 -1.1104 9.63276 16.7464 0.967172
164 1 -1.1104 9.57333 16.7073 3.75893
112 1 -1.1104 6.82812 19.4689 6.58718
154 1 -1.1104 9.63266 13.8838 6.65577
149 1 -1.1104 12.4982 16.8406 6.56988
163 1 -1.1104 9.50842 16.849 6.60167
143 1 -1.1104 12.4304 14.0093 6.75691
145 1 -1.1104 12.5109 19.6526 6.69163
111 1 -1.1104 6.8773 13.8594 6.70657
174 1 -1.1104 3.88822 -0.0901952 6.686
450 2 2.2208 8.08391 -4.38683 13.6461
201 2 2.2208 -0.18582 1.39606 10.8267
200 2 2.2208 -0.409292 -1.52767 8.06159
175 2 2.2208 5.38066 1.21794 10.7765
176 1 -1.1104 1.0939 -2.8673 12.22
177 1 -1.1104 1.05704 2.66042 12.2534
180 1 -1.1104 0.974187 -2.9256 9.44506
181 1 -1.1104 1.12067 2.72775 9.57769
184 1 -1.1104 1.15644 -0.125216 12.0885
186 2 2.2208 5.30698 -1.52268 8.01624
187 2 2.2208 5.49072 4.16904 7.91439
188 1 -1.1104 1.09391 -0.00910695 9.3758
190 1 -1.1104 3.91937 -2.86778 12.2565
191 1 -1.1104 3.9336 2.62594 12.0462
192 2 2.2208 2.55789 1.33969 8.04587
193 1 -1.1104 3.71772 -2.89264 9.40808
194 1 -1.1104 4.02876 2.77554 9.2576
195 2 2.2208 2.46978 -1.48666 10.7375
196 2 2.2208 2.48888 4.2016 10.7918
197 1 -1.1104 4.16549 -0.0555488 12.1607
198 1 -1.1104 3.93011 -0.0529491 9.39325
9171 2 2.2208 -0.187442 4.18508 7.9737
333 2 2.2208 2.51834 1.27906 13.5605
342 2 2.2208 -0.119898 4.22487 13.6856
232 2 2.2208 10.9215 -4.33773 10.8929
332 2 2.2208 5.40005 -1.43651 13.6151
317 2 2.2208 8.25055 15.3164 10.9016
206 1 -1.1104 12.4332 2.77369 6.71358
337 2 2.2208 10.8263 4.08493 13.6314
178 1 -1.1104 6.81317 -2.85072 12.3342
209 1 -1.1104 9.57065 2.71243 6.60676
179 1 -1.1104 6.61295 2.63325 12.1266
183 1 -1.1104 6.7996 2.63778 9.30542
182 1 -1.1104 6.68996 -2.87095 9.48726
185 1 -1.1104 6.8825 -0.15978 12.1561
189 1 -1.1104 6.81764 -0.118536 9.29777
211 2 2.2208 10.8955 1.34255 10.7576
212 1 -1.1104 12.4126 -3.01474 12.1406
213 1 -1.1104 12.3235 2.80256 12.3264
214 1 -1.1104 12.4971 -2.87447 9.28749
215 1 -1.1104 12.3696 2.52382 9.44406
216 1 -1.1104 12.3797 -0.153627 12.2035
217 2 2.2208 10.9645 -1.49319 8.04841
218 2 2.2208 10.9823 4.17374 8.10921
219 1 -1.1104 12.2178 -0.13023 9.41208
220 1 -1.1104 9.5312 -3.09474 12.3823
221 1 -1.1104 9.47243 2.64865 12.2447
222 2 2.2208 8.09829 1.15527 7.91576
223 1 -1.1104 9.52469 -2.97091 9.46164
224 1 -1.1104 9.54681 2.60562 9.41068
225 2 2.2208 8.15811 -1.56341 10.7981
226 2 2.2208 8.09674 4.10224 10.7764
227 1 -1.1104 9.6146 -0.0961345 12.1186
228 1 -1.1104 9.51251 -0.229507 9.48009
335 2 2.2208 8.1004 1.34761 13.6217
231 2 2.2208 8.16711 -4.29978 8.09058
28 2 2.2208 2.46625 -4.35196 2.40225
356 2 2.2208 11.0155 15.304 13.6633
346 2 2.2208 8.08124 12.405 13.5814
9104 2 2.2208 -0.160957 6.96803 10.7925
9103 2 2.2208 -0.22754 9.81235 8.05346
9096 2 2.2208 -0.107429 12.6919 10.8022
240 2 2.2208 5.25779 6.91951 10.8272
241 2 2.2208 5.50829 12.5547 10.9513
242 1 -1.1104 1.10991 8.32245 12.3133
244 1 -1.1104 1.1568 8.54575 9.47756
246 1 -1.1104 1.19208 5.48388 12.2581
247 1 -1.1104 1.26947 11.1678 12.2942
250 2 2.2208 5.41903 9.69835 8.0748
251 1 -1.1104 1.19254 5.66323 9.29078
252 1 -1.1104 1.18481 11.2697 9.53668
255 1 -1.1104 3.9822 8.39563 12.1485
256 2 2.2208 2.66775 6.9601 7.94773
257 2 2.2208 2.68091 12.6058 8.02161
258 1 -1.1104 4.11692 8.37103 9.43161
259 2 2.2208 2.58291 9.90103 10.8623
260 1 -1.1104 3.87148 5.45412 12.2685
261 1 -1.1104 4.03053 11.2648 12.2524
262 1 -1.1104 3.95918 5.52095 9.30709
263 1 -1.1104 4.04021 11.0527 9.4501
340 2 2.2208 2.62699 12.6223 13.6991
357 2 2.2208 8.26031 18.1793 13.6932
339 2 2.2208 5.38 9.82691 13.5992
269 1 -1.1104 9.59511 5.69336 6.55823
82 2 2.2208 -0.263227 9.73101 2.35641
249 1 -1.1104 6.69452 10.9499 12.1937
248 1 -1.1104 6.76186 5.58276 12.0725
243 1 -1.1104 6.74624 8.10819 12.0629
254 1 -1.1104 6.79737 11.0836 9.38807
245 1 -1.1104 6.9531 8.18914 9.20587
253 1 -1.1104 6.81853 5.52865 9.34393
264 1 -1.1104 9.59305 11.0677 9.3891
268 1 -1.1104 9.6215 5.41657 9.48926
270 1 -1.1104 9.48682 11.224 12.0906
271 1 -1.1104 9.60777 5.42322 12.2888
272 2 2.2208 8.14122 9.6217 10.7738
273 1 -1.1104 9.83979 8.21497 9.3382
274 2 2.2208 8.23435 12.4228 7.92204
275 2 2.2208 8.30458 6.87479 7.95677
276 2 2.2208 11.0423 6.89646 10.9181
277 2 2.2208 10.8998 12.623 10.6665
278 1 -1.1104 12.4137 8.46186 12.2039
279 1 -1.1104 12.4381 8.2618 9.50246
280 1 -1.1104 12.3457 5.52667 12.2983
281 1 -1.1104 12.3574 11.2577 12.1044
282 2 2.2208 11.1163 9.66265 8.03559
283 1 -1.1104 12.2675 5.43222 9.5218
284 1 -1.1104 12.4405 11.044 9.46184
285 1 -1.1104 9.57212 8.31504 12.168
350 2 2.2208 5.43578 20.9378 13.6865
344 2 2.2208 10.9355 9.87037 13.5723
9202 2 2.2208 -0.0186233 20.8648 13.7312
124 1 -1.1104 4.1339 13.8936 6.66981
133 1 -1.1104 3.96773 16.7229 6.63855
9201 2 2.2208 -0.221484 15.2473 13.7592
9174 2 2.2208 -0.216883 18.2302 10.8664
9173 2 2.2208 -0.167808 20.9924 8.11354
295 2 2.2208 5.38334 15.2621 8.05173
294 1 -1.1104 1.06976 14.0527 9.3752
293 2 2.2208 5.43314 20.8628 8.011
301 1 -1.1104 4.0437 19.4547 9.55681
299 1 -1.1104 1.24409 13.9845 12.3892
310 2 2.2208 2.6565 15.541 10.7091
309 2 2.2208 2.58125 20.9859 10.8234
300 2 2.2208 5.49081 18.1825 10.8803
292 1 -1.1104 1.11645 16.7441 9.47903
287 1 -1.1104 4.11514 13.9948 12.2541
291 1 -1.1104 1.15021 19.5328 9.37307
308 1 -1.1104 4.00274 16.8491 12.1818
298 1 -1.1104 1.30767 19.7467 12.2404
307 1 -1.1104 1.21223 17.1018 12.3345
305 1 -1.1104 3.93763 13.961 9.42497
304 1 -1.1104 4.07222 16.7995 9.42775
303 2 2.2208 2.7782 18.1275 7.97567
286 1 -1.1104 4.08898 19.6284 12.4064
9175 2 2.2208 -0.05156 15.4184 7.96315
9170 2 2.2208 -0.202633 12.3845 5.14708
338 2 2.2208 2.58294 6.88186 13.6314
354 2 2.2208 5.421 15.3182 13.6743
323 1 -1.1104 12.2311 16.7318 9.37508
289 1 -1.1104 6.88158 16.6827 9.41992
156 1 -1.1104 9.74927 19.4557 6.73842
306 1 -1.1104 6.90232 16.7127 12.3166
320 2 2.2208 8.21299 18.1183 7.997
312 1 -1.1104 12.557 16.7572 12.0534
352 2 2.2208 11.0245 18.1841 -0.489813
322 1 -1.1104 9.644 13.8734 12.2954
313 2 2.2208 10.9099 15.3608 8.07156
318 1 -1.1104 9.6513 19.5912 9.37992
316 2 2.2208 8.28708 20.9613 10.7508
83 1 -1.1104 12.4147 14.0993 12.1282
199 1 -1.1104 12.3263 19.512 12.1449
288 1 -1.1104 6.88776 19.5494 9.39399
314 1 -1.1104 9.41641 16.868 9.33537
297 1 -1.1104 6.89116 13.824 12.2857
296 1 -1.1104 6.82417 19.5658 12.1995
319 1 -1.1104 9.51797 13.9801 9.51039
311 1 -1.1104 12.3904 19.5012 9.35951
324 2 2.2208 11.1483 20.9758 7.91817
321 1 -1.1104 9.52316 19.5087 12.1775
315 1 -1.1104 9.73987 16.7037 12.268
50 2 2.2208 11.0547 18.0747 10.7838
229 1 -1.1104 12.4138 13.9394 9.32219
290 1 -1.1104 6.77524 13.8908 9.48745
362 2 2.2208 10.9204 1.18858 -0.447236
347 2 2.2208 2.64745 18.243 13.6809
343 2 2.2208 8.10805 6.85085 13.5807
375 2 2.2208 -0.230309 18.1451 -0.464063
359 2 2.2208 2.48381 -1.49236 -0.445735
379 2 2.2208 2.51731 20.9556 -0.400272
380 2 2.2208 5.43546 1.43359 16.417
381 1 -1.1104 1.07336 -2.83616 17.7747
382 1 -1.1104 1.26412 2.75045 17.7261
385 1 -1.1104 1.16239 -2.91347 15.0327
387 1 -1.1104 1.28907 2.84131 15.0256
393 1 -1.1104 1.03596 0.00166547 17.6778
395 2 2.2208 5.15901 -1.40211 19.4038
396 2 2.2208 5.28641 4.13028 19.1678
397 1 -1.1104 1.13225 -0.0895584 14.7513
401 1 -1.1104 3.84565 -3.02088 17.8392
402 1 -1.1104 4.09863 2.57483 17.9725
403 2 2.2208 2.47502 1.3372 19.2722
404 1 -1.1104 3.87015 -2.8562 14.9682
406 1 -1.1104 3.95941 2.74942 14.9884
408 2 2.2208 2.54654 -1.39861 16.3474
409 2 2.2208 2.5204 4.08523 16.3918
410 1 -1.1104 3.89987 -0.125356 17.8027
411 1 -1.1104 3.85176 -0.0991895 14.9605
491 2 2.2208 -0.205895 4.13062 19.3481
416 2 2.2208 -0.265404 1.41843 16.2604
417 2 2.2208 -0.291832 -1.54882 19.1838
388 1 -1.1104 1.12375 2.75037 20.6279
386 1 -1.1104 1.24855 -2.89821 20.5242
412 1 -1.1104 3.75133 -0.104463 20.7601
407 1 -1.1104 3.74956 2.70679 20.6925
405 1 -1.1104 4.06812 -2.78271 20.6841
400 1 -1.1104 6.72329 -0.16018 20.6305
398 1 -1.1104 1.14266 -0.0555616 20.6203
454 2 2.2208 -0.281077 9.69927 19.1632
394 1 -1.1104 6.58166 -0.00566649 17.8465
383 1 -1.1104 6.72618 -2.99037 17.8032
391 1 -1.1104 6.72949 2.93962 14.9105
389 1 -1.1104 6.64479 -2.77043 15.2766
399 1 -1.1104 6.74497 0.0163835 15.0206
384 1 -1.1104 6.72755 2.86393 17.8409
423 2 2.2208 10.8419 1.18885 16.3536
424 1 -1.1104 12.1986 -3.02528 17.6686
425 1 -1.1104 12.2868 2.67123 17.8167
426 1 -1.1104 12.2065 -2.91576 14.9092
428 1 -1.1104 12.1822 2.60303 15.0783
430 1 -1.1104 12.2648 -0.320612 17.8119
431 2 2.2208 10.8206 -1.50493 19.1805
432 2 2.2208 10.8773 4.03152 19.3005
433 1 -1.1104 12.2538 -0.186771 14.9671
435 1 -1.1104 9.47445 -2.83952 17.7968
436 1 -1.1104 9.49434 2.70775 17.8957
437 2 2.2208 7.99557 1.32202 19.087
438 1 -1.1104 9.42029 -2.84818 15.1248
440 1 -1.1104 9.37813 2.64378 15.0601
442 2 2.2208 8.09972 -1.48621 16.4747
443 2 2.2208 8.11376 4.17002 16.4147
444 1 -1.1104 9.43165 -0.00843784 17.7573
445 1 -1.1104 9.49862 -0.1445 14.9703
427 1 -1.1104 12.3612 -2.98162 20.3655
434 1 -1.1104 12.3397 0.0292205 20.6569
441 1 -1.1104 9.37752 2.56364 20.6984
390 1 -1.1104 6.84169 -2.89344 20.6826
446 1 -1.1104 9.5526 -0.138812 20.6338
439 1 -1.1104 9.42969 -2.91766 20.6621
642 2 2.2208 10.9121 -4.28635 21.8603
638 1 -1.1104 9.67696 19.527 23.5462
456 2 2.2208 5.36597 6.96275 16.3734
457 2 2.2208 5.36631 12.4844 16.4291
458 1 -1.1104 1.13655 8.29938 17.6928
460 1 -1.1104 1.17876 8.40777 14.9538
464 1 -1.1104 1.25493 5.59236 17.9401
465 1 -1.1104 0.915262 11.1196 17.8336
468 2 2.2208 5.44156 9.74123 19.2042
469 1 -1.1104 1.13325 5.63907 15.1069
471 1 -1.1104 1.19908 11.2172 14.9346
477 1 -1.1104 4.04983 8.31562 17.9031
478 2 2.2208 2.61914 6.96708 19.1584
479 2 2.2208 2.6611 12.5297 19.2459
480 1 -1.1104 4.08639 8.23087 14.9921
482 2 2.2208 2.71604 9.69471 16.3833
483 1 -1.1104 3.85328 5.46721 17.8452
484 1 -1.1104 3.94319 11.024 17.8267
485 1 -1.1104 4.01872 5.49514 15.1695
487 1 -1.1104 4.07753 11.1368 15.1117
351 2 2.2208 8.18709 15.2962 27.6776
455 2 2.2208 -0.300758 12.4453 16.4077
453 2 2.2208 -0.208613 6.9502 16.5321
486 1 -1.1104 3.94378 5.48385 20.6445
470 1 -1.1104 1.17078 5.61781 20.6316
472 1 -1.1104 1.18271 11.0571 20.6241
481 1 -1.1104 3.89709 8.42632 20.6244
488 1 -1.1104 3.98296 11.1951 20.558
461 1 -1.1104 1.20277 8.38233 20.4982
466 1 -1.1104 6.67495 5.66246 17.7428
475 1 -1.1104 6.7257 11.0563 15.0305
462 1 -1.1104 6.80946 8.28092 14.9402
473 1 -1.1104 6.70199 5.59152 14.8855
459 1 -1.1104 6.8024 8.38744 17.8326
467 1 -1.1104 6.73534 11.0972 17.6709
492 2 2.2208 10.8976 6.87754 16.4247
493 2 2.2208 10.9523 12.4766 16.3648
494 1 -1.1104 12.2861 8.34479 17.7897
495 1 -1.1104 12.2985 8.25584 14.9579
497 1 -1.1104 12.233 5.59725 17.8589
498 1 -1.1104 12.4506 11.0545 17.7652
499 2 2.2208 11.0404 9.79188 19.1774
500 1 -1.1104 12.3157 5.47525 15.1164
502 1 -1.1104 12.3634 11.1961 14.947
504 1 -1.1104 9.45936 8.28235 17.6708
505 2 2.2208 7.97926 6.96817 19.1262
506 2 2.2208 8.14518 12.4591 19.2128
507 1 -1.1104 9.51768 8.23021 14.955
509 2 2.2208 8.14555 9.68535 16.4109
510 1 -1.1104 9.53779 5.53271 17.8602
511 1 -1.1104 9.56792 10.997 17.7513
512 1 -1.1104 9.56183 5.44988 15.1032
514 1 -1.1104 9.48188 10.9395 14.934
515 1 -1.1104 9.59696 11.0295 20.6206
463 1 -1.1104 6.51454 8.11959 20.5207
513 1 -1.1104 9.45098 5.45086 20.4664
474 1 -1.1104 6.81585 5.42171 20.5293
503 1 -1.1104 12.3054 11.1383 20.6368
476 1 -1.1104 6.88842 11.0111 20.5587
501 1 -1.1104 12.191 5.56232 20.6947
9430 2 2.2208 -0.234344 18.0478 16.354
519 2 2.2208 5.45469 18.1727 16.3843
520 1 -1.1104 1.24051 13.8948 17.917
521 1 -1.1104 1.1255 19.5649 17.9562
524 1 -1.1104 1.11717 13.9473 15.055
526 1 -1.1104 1.09164 19.5806 15.08
532 1 -1.1104 1.11409 16.7773 17.8001
534 2 2.2208 5.35505 15.4674 19.3395
535 2 2.2208 5.47172 20.8736 19.3021
536 1 -1.1104 1.28293 16.8833 15.1
540 1 -1.1104 4.02361 13.9508 17.925
541 1 -1.1104 3.98185 19.425 17.8891
542 2 2.2208 2.61706 18.2257 19.2412
543 1 -1.1104 3.92872 13.9742 15.0717
545 1 -1.1104 4.0531 19.5683 15.0729
547 2 2.2208 2.57045 15.4059 16.5748
548 2 2.2208 2.61863 20.843 16.5489
549 1 -1.1104 3.87854 16.7215 17.9482
550 1 -1.1104 4.01895 16.8803 14.9559
421 2 2.2208 -0.09963 21.0258 19.3647
420 2 2.2208 -0.225283 15.2181 19.1269
544 1 -1.1104 3.91875 13.9898 20.8589
537 1 -1.1104 1.31356 16.7651 20.5846
546 1 -1.1104 3.89942 19.6244 20.6555
525 1 -1.1104 1.19469 13.7799 20.6437
551 1 -1.1104 4.10523 16.9404 20.6828
527 1 -1.1104 1.26674 19.553 20.7933
573 1 -1.1104 9.48557 19.3697 20.7744
522 1 -1.1104 6.8572 13.8333 17.7931
538 1 -1.1104 6.69508 16.7263 15.2143
530 1 -1.1104 6.83543 19.5885 15.0589
528 1 -1.1104 6.78549 13.9098 14.9337
523 1 -1.1104 6.89266 19.5729 17.891
533 1 -1.1104 6.77317 16.7429 17.796
555 2 2.2208 11.0595 18.1872 16.4865
556 1 -1.1104 12.3234 13.9812 17.7294
557 1 -1.1104 12.4131 19.7464 17.6841
558 1 -1.1104 12.3307 14.0003 15.1139
560 1 -1.1104 12.3881 19.4575 14.9721
562 1 -1.1104 12.4837 16.7914 17.7056
563 2 2.2208 10.9666 15.3797 19.258
564 2 2.2208 11.0359 21.0176 19.2875
565 1 -1.1104 12.4662 16.7758 14.9736
567 1 -1.1104 9.60534 13.8813 17.8739
568 1 -1.1104 9.71102 19.5693 17.9057
569 2 2.2208 8.13401 18.2268 19.2555
570 1 -1.1104 9.47486 13.6708 15.0577
572 1 -1.1104 9.7276 19.461 15.1177
574 2 2.2208 8.18302 15.2997 16.4024
575 2 2.2208 8.28114 20.9368 16.4307
576 1 -1.1104 9.5886 16.832 17.7985
577 1 -1.1104 9.52724 16.6372 15.0755
566 1 -1.1104 12.5657 16.5745 20.463
531 1 -1.1104 6.60241 19.3606 20.6428
571 1 -1.1104 9.49192 13.9214 20.5942
561 1 -1.1104 12.3726 19.4715 20.5408
529 1 -1.1104 6.67192 13.869 20.6242
539 1 -1.1104 6.86859 16.6749 20.7121
374 2 2.2208 11.0494 12.5735 27.6604
616 2 2.2208 -0.255865 -1.50368 24.7841
378 2 2.2208 5.36839 18.0829 27.7522
583 2 2.2208 5.25493 1.37784 22.0126
584 1 -1.1104 1.12301 -2.96648 23.3999
585 1 -1.1104 1.1866 2.81397 23.4697
588 1 -1.1104 1.09433 -2.71655 26.1722
589 1 -1.1104 1.17441 2.85842 26.1272
592 1 -1.1104 1.33264 -0.145438 23.4578
594 2 2.2208 5.34759 -1.36702 24.8107
595 2 2.2208 5.37963 4.23563 24.7942
596 1 -1.1104 0.926995 -0.0624615 26.2793
598 1 -1.1104 3.90979 -2.79359 23.5798
599 1 -1.1104 3.98328 2.75283 23.3757
600 2 2.2208 2.60049 1.38019 24.8749
601 1 -1.1104 4.05101 -2.81883 26.4038
602 1 -1.1104 4.13171 2.71193 26.1334
603 2 2.2208 2.59306 -1.55655 22.0294
605 1 -1.1104 3.9457 -0.0741621 23.6375
606 1 -1.1104 4.01684 0.0235707 26.3028
604 2 2.2208 2.52127 4.16211 22.0368
613 2 2.2208 5.4567 -4.23775 22.1009
369 2 2.2208 5.40479 12.5429 27.7413
361 2 2.2208 -0.340017 1.4765 27.6967
618 2 2.2208 -0.232039 4.15102 24.7019
713 1 -1.1104 6.67692 13.9219 23.4206
377 2 2.2208 2.64061 15.4183 27.6272
721 1 -1.1104 6.80711 16.6817 23.4547
392 1 -1.1104 6.44974 2.59677 20.537
429 1 -1.1104 12.2478 2.85011 20.685
363 2 2.2208 8.17666 -1.53596 27.7698
586 1 -1.1104 6.66211 -2.70858 23.3868
597 1 -1.1104 6.96749 0.068031 26.5733
590 1 -1.1104 6.69206 -2.84498 26.1546
587 1 -1.1104 6.71513 2.78084 23.4229
593 1 -1.1104 6.65924 0.0587961 23.5582
591 1 -1.1104 6.68356 2.74857 26.3471
619 2 2.2208 10.9007 1.32201 22.0657
620 1 -1.1104 12.1925 -2.79868 23.248
621 1 -1.1104 12.3705 2.76104 23.423
622 1 -1.1104 12.353 -2.72582 26.0691
623 1 -1.1104 12.2735 2.77353 26.1585
624 1 -1.1104 12.1549 -0.0288815 23.5066
625 2 2.2208 10.8696 -1.42093 24.8496
626 2 2.2208 10.9889 4.25451 24.83
627 1 -1.1104 12.4334 -0.0429938 26.3585
628 1 -1.1104 9.45166 -2.70059 23.3358
629 1 -1.1104 9.53036 2.83822 23.362
630 2 2.2208 8.16425 1.338 24.9662
631 1 -1.1104 9.59878 -2.91194 26.2652
632 1 -1.1104 9.53478 2.79863 26.3075
633 2 2.2208 8.16736 -1.36291 21.983
634 2 2.2208 8.19457 4.13404 21.9348
635 1 -1.1104 9.43931 -0.0116186 23.4823
636 1 -1.1104 9.62787 -0.101375 26.2487
364 2 2.2208 8.23139 4.16865 27.7073
607 1 -1.1104 12.3935 16.7522 23.3293
449 2 2.2208 8.11069 -4.26405 19.2147
673 2 2.2208 8.2338 15.3467 21.9977
614 2 2.2208 2.56493 -4.19297 24.8804
367 2 2.2208 5.37117 6.97163 27.6891
418 2 2.2208 -0.266375 6.92098 22.1159
676 2 2.2208 -0.348259 9.82606 24.7822
366 2 2.2208 13.7871 4.14272 27.6783
648 2 2.2208 5.3011 6.92182 21.94
649 2 2.2208 5.41847 12.5307 22.1632
650 1 -1.1104 1.14671 8.5107 23.376
652 1 -1.1104 1.17344 8.41253 26.172
654 1 -1.1104 1.16714 5.60555 23.5062
655 1 -1.1104 1.17783 11.2099 23.474
658 2 2.2208 5.46059 9.68867 24.9112
659 1 -1.1104 1.13806 5.5706 26.3703
660 1 -1.1104 1.09183 11.213 26.3001
663 1 -1.1104 3.94468 8.23498 23.4539
664 2 2.2208 2.57342 7.05042 24.8771
665 2 2.2208 2.60812 12.655 24.914
666 1 -1.1104 4.02586 8.46033 26.2223
667 2 2.2208 2.60135 9.75623 22.0265
668 1 -1.1104 3.92078 5.54602 23.6186
669 1 -1.1104 4.05826 10.9411 23.3974
670 1 -1.1104 3.91383 5.59539 26.454
671 1 -1.1104 4.14712 11.2512 26.2101
368 2 2.2208 2.60162 9.80236 27.6491
370 2 2.2208 -0.427929 12.5404 27.5526
508 1 -1.1104 9.50058 8.25028 20.6524
496 1 -1.1104 12.3208 8.42787 20.5068
372 2 2.2208 11.0659 6.9234 27.6709
373 2 2.2208 8.46446 9.80487 27.6198
661 1 -1.1104 6.80737 5.49409 26.3211
651 1 -1.1104 6.8277 8.35804 23.4522
656 1 -1.1104 6.71113 5.61075 23.383
657 1 -1.1104 6.67677 11.0579 23.4947
662 1 -1.1104 7.06531 11.1654 26.3031
653 1 -1.1104 6.69674 8.37749 26.2641
679 1 -1.1104 9.74414 11.0843 26.3054
680 1 -1.1104 9.76309 5.59301 26.1869
681 1 -1.1104 9.48326 11.2328 23.3342
682 1 -1.1104 9.52009 5.51586 23.3334
683 2 2.2208 8.16685 9.60417 21.9386
684 1 -1.1104 9.54073 8.3121 26.1735
685 2 2.2208 8.10374 12.5156 24.8084
686 2 2.2208 8.16889 6.93757 24.784
687 2 2.2208 10.9064 7.03593 21.9819
688 2 2.2208 10.9021 12.6564 22.1012
689 1 -1.1104 12.3146 8.33652 23.3511
690 1 -1.1104 12.4189 8.34077 26.2668
691 1 -1.1104 12.2376 5.64287 23.4295
692 1 -1.1104 12.2129 11.0673 23.3388
693 2 2.2208 10.9009 9.68228 24.7759
694 1 -1.1104 12.4727 5.56965 26.2961
695 1 -1.1104 12.5235 11.0874 26.1794
696 1 -1.1104 9.53811 8.34002 23.3805
609 2 2.2208 11.1109 21.111 24.8227
610 2 2.2208 -0.354496 -4.2402 27.6787
698 2 2.2208 -0.19158 20.9083 24.7161
697 2 2.2208 -0.218245 18.0911 21.9915
365 2 2.2208 13.755 -1.23625 27.6629
701 2 2.2208 2.60729 15.3991 22.0807
703 1 -1.1104 3.9822 19.7539 23.5514
705 1 -1.1104 3.95844 14.1571 23.5688
707 1 -1.1104 1.1653 19.4323 26.2504
708 1 -1.1104 1.14147 16.7316 26.1677
709 1 -1.1104 1.10756 14.0876 26.2972
711 2 2.2208 5.40441 20.938 25.0079
712 2 2.2208 5.4172 15.4735 24.8023
714 1 -1.1104 1.21135 19.601 23.4485
715 1 -1.1104 1.08978 14.0051 23.5026
716 2 2.2208 5.251 18.2001 22.1569
717 1 -1.1104 3.98048 19.5859 26.388
718 2 2.2208 2.55184 18.2048 24.8844
719 1 -1.1104 3.95462 16.6352 26.205
720 1 -1.1104 4.04165 13.896 26.4153
722 1 -1.1104 1.19345 16.6856 23.2825
723 1 -1.1104 3.89993 16.9332 23.4548
724 2 2.2208 2.72239 20.9609 22.1687
646 2 2.2208 13.7781 1.37832 24.8324
415 2 2.2208 2.51062 -4.37925 19.2412
559 1 -1.1104 12.3043 13.9687 20.7752
578 1 -1.1104 9.66173 16.7687 20.6137
678 1 -1.1104 9.4769 16.7183 26.2448
581 1 -1.1104 12.4256 19.5789 26.1532
706 1 -1.1104 6.70936 16.691 26.1795
554 1 -1.1104 12.3675 13.9419 23.5171
608 2 2.2208 11.1035 15.4031 24.7994
615 1 -1.1104 12.4503 16.8751 26.2641
579 1 -1.1104 12.3879 19.7979 23.333
553 2 2.2208 10.9101 18.1299 22.0444
704 1 -1.1104 6.69374 13.9828 26.3158
611 2 2.2208 -0.230663 -4.23954 22.0512
580 1 -1.1104 12.4456 13.9399 26.3081
672 1 -1.1104 9.71172 19.6652 26.421
637 1 -1.1104 9.58992 13.9587 23.5436
675 1 -1.1104 9.64211 16.8964 23.5387
674 2 2.2208 8.27663 20.9082 22.2012
647 1 -1.1104 9.53593 13.8379 26.324
639 2 2.2208 8.1269 18.1441 24.8119
710 1 -1.1104 6.74884 19.558 23.2849
644 1 -1.1104 6.72532 19.622 26.1171
413 2 2.2208 -0.26908 -4.34819 16.3653
358 2 2.2208 5.34273 1.43305 27.7004
612 2 2.2208 5.35026 -4.30109 27.7313
9387 2 2.2208 13.9147 15.3294 16.3989
516 2 2.2208 13.797 1.38335 19.2376
355 2 2.2208 11.0563 20.9311 13.5012
641 2 2.2208 10.9774 -4.2564 27.6737
371 2 2.2208 -0.275458 6.98776 27.5543
360 2 2.2208 2.56109 4.26861 27.7206
334 2 2.2208 5.34564 4.17449 13.5391
353 2 2.2208 8.26618 21.1066 27.5988
336 2 2.2208 10.9524 -1.47492 13.4982
9193 2 2.2208 -0.315362 9.83342 13.5471
725 2 2.2208 5.52521 23.721 5.28616
726 2 2.2208 5.44502 29.2015 5.26278
727 1 -1.1104 1.17895 25.1729 1.06493
728 1 -1.1104 1.02076 25.1498 3.85049
729 1 -1.1104 1.04924 22.4479 1.10454
730 1 -1.1104 1.27483 27.9884 1.00793
731 2 2.2208 5.52308 26.519 2.47973
732 1 -1.1104 1.16792 22.4273 3.74707
733 1 -1.1104 1.1675 27.908 3.81987
734 1 -1.1104 3.91644 25.0955 1.01959
735 2 2.2208 2.59077 23.7048 2.45354
736 2 2.2208 2.70465 29.2763 2.60222
737 1 -1.1104 3.87517 25.1517 3.74083
738 2 2.2208 2.65451 26.4404 5.24276
739 1 -1.1104 3.92206 22.3288 1.06259
740 1 -1.1104 4.09962 27.9028 1.22638
741 1 -1.1104 3.98642 22.3931 3.88204
742 1 -1.1104 4.07238 27.7562 3.9858
745 2 2.2208 -0.245805 26.3709 2.45555
744 2 2.2208 -0.390646 23.7517 5.2501
873 1 -1.1104 3.95675 22.3192 6.70318
869 1 -1.1104 1.32163 28.0271 6.67264
872 1 -1.1104 4.1432 25.1264 6.6092
874 1 -1.1104 4.12046 27.8795 6.62051
743 2 2.2208 0.0124622 29.2683 5.15935
866 1 -1.1104 1.23953 25.213 6.62567
1095 2 2.2208 5.51944 46.1687 -0.332132
751 1 -1.1104 6.86734 27.9696 3.86002
747 1 -1.1104 6.76749 25.1441 3.81909
749 1 -1.1104 6.8252 27.9352 1.0095
746 1 -1.1104 6.70007 25.055 1.10548
750 1 -1.1104 6.90994 22.3854 3.78824
748 1 -1.1104 6.71905 22.3908 0.951769
752 2 2.2208 10.9448 23.7044 5.16028
753 2 2.2208 11.0651 29.502 5.35095
754 1 -1.1104 12.3243 25.2332 1.06447
755 1 -1.1104 12.3182 25.2202 3.83332
756 1 -1.1104 12.3513 22.477 0.890486
757 1 -1.1104 12.3853 27.8697 0.982638
758 2 2.2208 11.0164 26.5562 2.37693
759 1 -1.1104 12.4813 22.4363 3.90231
760 1 -1.1104 12.4574 28.2242 4.01337
761 1 -1.1104 9.479 25.1815 0.909514
762 2 2.2208 8.21425 23.7035 2.41578
763 2 2.2208 8.35526 29.3844 2.58131
764 1 -1.1104 9.52199 25.0162 3.79858
765 2 2.2208 8.25714 26.5767 5.16996
766 1 -1.1104 9.51715 22.3 1.05698
767 1 -1.1104 9.74961 27.9966 1.105
768 1 -1.1104 9.60153 22.266 3.87566
769 1 -1.1104 9.63107 27.8413 3.91029
901 1 -1.1104 12.4713 27.9106 6.68028
899 1 -1.1104 12.35 25.0094 6.521
867 1 -1.1104 6.89703 25.2186 6.6653
902 1 -1.1104 9.58645 25.143 6.5036
900 1 -1.1104 12.4898 22.2206 6.54777
904 1 -1.1104 9.65991 27.8155 6.74648
870 1 -1.1104 6.78765 22.3419 6.59641
871 1 -1.1104 6.92756 27.96 6.79174
773 2 2.2208 5.49857 34.9871 5.29646
774 1 -1.1104 1.27066 30.7462 1.10302
775 1 -1.1104 1.37642 36.3091 1.062
777 1 -1.1104 1.29068 30.8073 3.80231
778 1 -1.1104 1.272 36.391 3.94351
780 1 -1.1104 1.32441 33.5679 1.23385
781 2 2.2208 5.46372 32.0618 2.5148
782 2 2.2208 5.47187 37.6962 2.44255
783 1 -1.1104 1.28389 33.6309 3.91734
785 1 -1.1104 3.92602 30.8126 1.15108
786 1 -1.1104 3.9988 36.3882 1.07282
787 2 2.2208 2.79265 34.9055 2.51531
788 1 -1.1104 4.14473 30.6429 3.80988
789 1 -1.1104 4.18138 36.1822 3.79047
790 2 2.2208 2.66024 32.2015 5.33525
791 2 2.2208 2.63951 37.7461 5.27367
792 1 -1.1104 4.20954 33.5329 1.11225
793 1 -1.1104 4.10209 33.4128 3.94672
927 1 -1.1104 1.22569 33.4583 6.73276
796 2 2.2208 -0.107291 32.1777 2.49147
923 1 -1.1104 1.22792 30.7627 6.47482
794 2 2.2208 -0.202938 34.9154 5.22348
795 2 2.2208 -0.163759 37.6166 2.44354
930 1 -1.1104 4.23519 36.4074 6.69451
929 1 -1.1104 4.10896 30.6357 6.62562
1003 1 -1.1104 3.97074 39.1168 6.74947
931 1 -1.1104 3.96635 33.5806 6.86354
924 1 -1.1104 1.26797 36.2671 6.62342
779 1 -1.1104 6.88097 36.4138 3.92124
784 1 -1.1104 6.87011 33.6688 3.87304
798 1 -1.1104 6.9729 30.7611 3.92042
799 1 -1.1104 6.81095 33.508 1.06638
797 1 -1.1104 6.8662 30.7844 1.16035
776 1 -1.1104 6.9028 36.4166 0.994565
800 2 2.2208 11.206 34.9682 5.22864