ITEM: TIMESTEP
40000
ITEM: NUMBER OF ATOMS
17730
ITEM: BOX BOUNDS pp pp pp
-3.6510240989467818e-01 2.7705102409894682e+01
-4.4133229350428200e+00 3.3249332293505176e+02
-3.5617635321468499e-01 2.7696176353214081e+01
ITEM: ATOMS id type q x y z
1 2 2.2208 5.21839 1.25456 5.19278
2 1 -1.1104 0.926165 -2.91803 1.13207
3 1 -1.1104 1.13435 2.58704 1.01772
6 1 -1.1104 0.983836 -2.96959 4.00102
7 1 -1.1104 0.910999 2.73741 3.72648
10 1 -1.1104 0.879041 -0.126495 1.17853
12 2 2.2208 4.99998 -1.58529 2.50196
14 1 -1.1104 1.06626 -0.25931 3.78259
16 1 -1.1104 3.65409 -2.96033 1.05695
17 1 -1.1104 3.7907 2.63461 1.02146
18 2 2.2208 2.33398 1.21084 2.39398
19 1 -1.1104 3.81378 -3.09479 3.9285
20 1 -1.1104 3.71423 2.68024 3.87477
21 2 2.2208 2.37128 -1.69017 5.23857
23 1 -1.1104 3.6081 -0.240543 1.09
24 1 -1.1104 3.78279 -0.0557024 3.77387
13 2 2.2208 5.27892 4.03119 2.50408
22 2 2.2208 2.34877 3.9194 5.18806
4 1 -1.1104 6.54381 -3.10001 1.03127
5 1 -1.1104 6.56005 2.50314 1.11229
9 1 -1.1104 6.56862 2.64518 4.00979
15 1 -1.1104 6.5139 -0.0730381 3.88027
311 2 2.2208 -0.321916 20.6946 8.15005
11 1 -1.1104 6.50221 -0.167256 1.18671
173 1 -1.1104 3.7793 2.55075 6.64367
167 1 -1.1104 0.753856 2.50043 6.66725
171 1 -1.1104 6.46722 -0.247169 6.77204
105 2 2.2208 13.5644 6.92377 2.38185
9019 2 2.2208 10.6875 -4.32312 -0.375952
8 1 -1.1104 6.54647 -3.05487 3.91843
233 2 2.2208 13.6143 4.18485 5.22417
31 2 2.2208 10.778 1.16904 5.20331
32 1 -1.1104 12.1149 -3.09852 0.962818
33 1 -1.1104 12.3095 2.43714 1.12612
34 1 -1.1104 12.131 -2.97203 3.84629
35 1 -1.1104 12.2206 2.48867 3.87426
36 1 -1.1104 12.1676 -0.289426 1.14046
37 2 2.2208 10.7297 -1.64718 2.49466
38 2 2.2208 10.8823 3.90664 2.52238
39 1 -1.1104 12.1821 -0.176983 3.86959
40 1 -1.1104 9.37256 -3.01832 1.0742
41 1 -1.1104 9.41968 2.59293 1.05653
42 2 2.2208 7.87804 1.21627 2.44927
43 1 -1.1104 9.3228 -3.01571 3.79568
44 1 -1.1104 9.38178 2.55208 3.92319
45 2 2.2208 7.96322 -1.53007 5.27013
46 2 2.2208 8.03976 3.97388 5.36342
47 1 -1.1104 9.40851 -0.111334 1.31733
48 1 -1.1104 9.25731 -0.228549 3.96328
9008 2 2.2208 10.7214 -4.35956 5.3781
207 1 -1.1104 12.0179 -0.26666 6.54769
209 1 -1.1104 9.43394 2.59758 6.66785
9005 2 2.2208 5.14479 -4.3738 5.22133
380 2 2.2208 2.4291 9.50793 -0.369578
49 2 2.2208 13.5782 1.09421 2.4456
208 1 -1.1104 9.33391 -2.95958 6.60064
327 1 -1.1104 12.2877 19.4987 9.4648
9013 2 2.2208 8.00985 -4.30399 7.98284
54 2 2.2208 5.17074 6.76883 5.40582
55 2 2.2208 5.28183 12.2964 5.19237
56 1 -1.1104 0.961885 8.12414 0.881569
58 1 -1.1104 1.14695 8.11814 3.74886
60 1 -1.1104 1.1078 5.33371 0.945396
61 1 -1.1104 1.10005 10.9699 1.15218
66 2 2.2208 5.23915 9.54644 2.4985
67 1 -1.1104 1.02602 5.45247 3.78085
68 1 -1.1104 0.966127 10.9077 3.75618
71 1 -1.1104 3.83959 8.1391 1.11191
72 2 2.2208 2.52024 6.73746 2.45631
73 2 2.2208 2.28628 12.4744 2.38348
74 1 -1.1104 3.98139 8.24574 4.01299
75 2 2.2208 2.53046 9.5619 5.30502
76 1 -1.1104 3.86831 5.46428 1.0041
77 1 -1.1104 3.83672 11.0607 1.12329
79 1 -1.1104 3.82625 5.35393 3.89764
80 1 -1.1104 3.77051 11.1235 3.79187
234 1 -1.1104 1.04181 8.16393 6.58953
57 1 -1.1104 6.63959 8.11108 0.889399
239 1 -1.1104 3.96558 5.27952 6.70401
64 1 -1.1104 6.64616 10.9909 1.1388
69 1 -1.1104 6.54326 5.42856 3.85499
63 1 -1.1104 6.57299 5.40025 0.906891
59 1 -1.1104 6.69701 8.25253 3.89643
70 1 -1.1104 6.6055 10.9825 3.87002
62 1 -1.1104 1.21841 10.9974 6.50839
65 1 -1.1104 6.74772 10.911 6.69348
235 1 -1.1104 6.57893 8.09235 6.71236
78 1 -1.1104 3.96246 10.8283 6.64255
237 1 -1.1104 6.68097 5.35011 6.75716
322 1 -1.1104 9.4548 13.7975 12.382
324 2 2.2208 10.7617 20.6725 8.12045
321 1 -1.1104 9.5006 19.4237 12.2584
84 2 2.2208 10.86 6.84131 5.18231
85 2 2.2208 10.7677 12.5 5.30267
86 1 -1.1104 12.2202 8.22761 0.856729
87 1 -1.1104 12.3601 8.34661 3.4948
88 1 -1.1104 12.2955 5.38613 1.04203
89 1 -1.1104 12.2961 10.9364 1.15214
91 2 2.2208 10.753 9.59694 2.46192
92 1 -1.1104 12.1236 5.56509 3.75657
93 1 -1.1104 12.2345 11.0537 3.94761
94 1 -1.1104 9.45063 8.14449 1.04902
95 2 2.2208 8.07206 6.80804 2.37606
96 2 2.2208 8.00944 12.366 2.56647
97 1 -1.1104 9.44285 8.12727 3.83771
98 2 2.2208 8.0704 9.53598 5.19291
99 1 -1.1104 9.40875 5.37365 1.00636
100 1 -1.1104 9.36981 10.996 1.12968
102 1 -1.1104 9.45782 5.44283 3.94423
103 1 -1.1104 9.41688 11.0439 3.92942
266 1 -1.1104 12.1718 5.43657 6.52485
265 1 -1.1104 12.4206 8.10563 6.48845
9015 2 2.2208 13.5469 -4.37287 8.07201
51 2 2.2208 -0.372489 12.3861 10.7696
320 2 2.2208 8.05495 17.9305 8.00991
90 1 -1.1104 12.0958 11.0094 6.78234
267 1 -1.1104 9.44013 8.26159 6.69383
101 1 -1.1104 9.41241 10.9274 6.65681
106 2 2.2208 5.24326 17.9638 5.14294
107 1 -1.1104 0.922596 13.8788 1.08321
109 1 -1.1104 1.01238 19.2522 1.07158
113 1 -1.1104 0.938612 13.7821 3.84799
114 1 -1.1104 1.02158 19.2676 3.80572
116 1 -1.1104 0.990364 16.491 1.01927
119 2 2.2208 5.08236 15.0941 2.32874
120 2 2.2208 5.27835 20.7848 2.34808
121 1 -1.1104 1.10209 16.4281 3.90541
123 1 -1.1104 3.70016 13.7546 0.992605
125 1 -1.1104 3.91184 19.4471 1.22305
127 2 2.2208 2.42362 17.8941 2.45334
128 1 -1.1104 3.77147 13.819 3.74584
129 1 -1.1104 3.7754 19.428 3.9381
130 2 2.2208 2.46395 15.1069 5.22987
131 2 2.2208 2.43866 20.7584 5.22939
132 1 -1.1104 3.83315 16.596 0.887665
134 1 -1.1104 3.94273 16.548 3.7993
115 1 -1.1104 6.63311 13.7392 3.79379
110 1 -1.1104 6.63229 13.7465 0.889345
126 1 -1.1104 3.77941 19.3729 6.61054
138 1 -1.1104 6.64711 19.4574 1.07765
140 1 -1.1104 6.54856 16.6429 1.01143
139 1 -1.1104 6.63624 19.3136 3.77156
122 1 -1.1104 6.55113 16.4258 3.88506
112 1 -1.1104 6.52625 19.4606 6.48165
9014 2 2.2208 10.8042 -4.28155 10.8222
118 1 -1.1104 6.59419 16.5269 6.67124
117 1 -1.1104 1.07947 16.5392 6.68604
108 1 -1.1104 1.12602 13.755 6.58972
314 1 -1.1104 9.53506 16.6554 9.60194
323 1 -1.1104 12.25 16.6765 9.38781
354 2 2.2208 8.01537 6.94774 13.6225
52 2 2.2208 13.6606 9.49916 10.8852
143 1 -1.1104 12.4122 13.9299 6.61257
141 2 2.2208 10.8519 17.9037 5.25018
142 1 -1.1104 12.0949 13.6665 1.05567
144 1 -1.1104 12.0226 19.4383 1.04854
146 1 -1.1104 12.135 13.8275 3.91179
147 1 -1.1104 12.1932 19.3709 3.79684
148 1 -1.1104 12.0443 16.5891 1.13184
150 2 2.2208 10.806 15.2148 2.5202
151 2 2.2208 10.7237 20.8341 2.35821
152 1 -1.1104 12.2973 16.5002 3.70287
153 1 -1.1104 9.35768 13.775 1.05882
155 1 -1.1104 9.32896 19.4848 1.06634
157 2 2.2208 7.95815 17.9947 2.48555
158 1 -1.1104 9.36823 13.8788 3.9174
159 1 -1.1104 9.51599 19.6069 3.85847
160 2 2.2208 7.91694 15.1758 5.22727
161 2 2.2208 8.01634 20.999 5.23475
162 1 -1.1104 9.28287 16.6413 1.13026
164 1 -1.1104 9.25812 16.59 3.88999
81 2 2.2208 -0.378633 6.78303 5.10785
154 1 -1.1104 9.47106 13.7742 6.70365
326 1 -1.1104 12.4079 16.558 12.1028
230 2 2.2208 13.4497 -1.49901 10.778
174 1 -1.1104 3.62697 -0.143123 6.50672
172 1 -1.1104 3.61945 -2.95644 6.64949
325 2 2.2208 10.7995 15.2534 8.20184
170 1 -1.1104 0.972965 -0.19824 6.63874
166 1 -1.1104 0.711639 -3.21168 6.71372
169 1 -1.1104 6.54783 2.66477 6.74771
175 2 2.2208 5.13905 1.12654 10.8007
176 1 -1.1104 1.01413 -3.0875 12.1721
177 1 -1.1104 1.04733 2.64779 12.1568
180 1 -1.1104 0.936921 -2.81312 9.36791
181 1 -1.1104 0.869453 2.53325 9.41289
184 1 -1.1104 0.997343 -0.303002 12.3054
186 2 2.2208 5.16987 -1.60795 8.07221
187 2 2.2208 5.17268 3.9831 8.13391
188 1 -1.1104 0.894696 -0.0890782 9.43504
190 1 -1.1104 3.89565 -3.08476 12.4524
191 1 -1.1104 3.73022 2.46413 12.26
192 2 2.2208 2.31918 1.17407 8.02598
193 1 -1.1104 3.8203 -3.11072 9.47116
194 1 -1.1104 3.747 2.5779 9.38567
195 2 2.2208 2.39562 -1.65193 10.8419
196 2 2.2208 2.40361 3.89574 10.8375
197 1 -1.1104 3.81508 -0.240688 12.1252
198 1 -1.1104 3.80955 -0.145338 9.31088
183 1 -1.1104 6.44785 2.5943 9.46178
182 1 -1.1104 6.77555 -2.90064 9.26092
178 1 -1.1104 6.72742 -3.15571 12.222
185 1 -1.1104 6.58519 -0.384753 12.3964
317 2 2.2208 7.97027 15.2132 10.8171
168 1 -1.1104 6.56115 -2.95913 6.63095
179 1 -1.1104 6.46704 2.57911 12.0726
189 1 -1.1104 6.62511 -0.20727 9.52513
229 2 2.2208 13.4044 1.20632 7.99278
206 1 -1.1104 12.1902 2.62687 6.62197
210 1 -1.1104 9.09827 -0.191765 6.81496
205 1 -1.1104 12.1146 -2.93459 6.61806
211 2 2.2208 10.6169 1.34583 10.8578
212 1 -1.1104 12.1369 -2.74865 12.3121
213 1 -1.1104 12.1169 2.65365 12.2869
214 1 -1.1104 12.2948 -2.98829 9.36227
215 1 -1.1104 12.0068 2.5827 9.42158
216 1 -1.1104 12.1779 -0.1738 12.2201
217 2 2.2208 10.7045 -1.5968 8.07103
218 2 2.2208 10.8092 4.09204 8.00226
219 1 -1.1104 12.0319 -0.138387 9.44692
220 1 -1.1104 9.38121 -2.95177 12.1522
221 1 -1.1104 9.12898 2.83638 12.2403
222 2 2.2208 7.84776 1.32477 8.08017
223 1 -1.1104 9.54252 -2.96134 9.54031
224 1 -1.1104 9.29743 2.63125 9.51997
225 2 2.2208 8.05106 -1.56835 10.7837
226 2 2.2208 7.94806 4.02821 10.8677
227 1 -1.1104 9.39865 0.00551094 12.3129
228 1 -1.1104 9.36477 -0.132212 9.65846
329 1 -1.1104 12.1746 19.3965 12.316
149 1 -1.1104 12.2081 16.7357 6.69374
315 1 -1.1104 9.44043 16.6156 12.2709
328 1 -1.1104 12.2474 13.792 9.55618
236 1 -1.1104 1.17051 5.44773 6.61598
330 1 -1.1104 12.3091 13.7039 12.326
238 1 -1.1104 3.82902 8.10272 6.77657
240 2 2.2208 5.25971 6.6991 11.0203
241 2 2.2208 5.27979 12.4214 10.9002
242 1 -1.1104 0.989083 8.14923 12.2125
244 1 -1.1104 1.14968 8.08009 9.57185
246 1 -1.1104 0.91663 5.36751 12.1554
247 1 -1.1104 1.03221 10.9038 12.1854
250 2 2.2208 5.40025 9.62018 8.23967
251 1 -1.1104 1.1338 5.30402 9.39017
252 1 -1.1104 0.864381 10.7681 9.49891
255 1 -1.1104 3.93999 8.17078 12.4334
256 2 2.2208 2.3985 6.75925 8.07647
257 2 2.2208 2.51581 12.3309 7.94624
258 1 -1.1104 3.9861 8.10923 9.61533
259 2 2.2208 2.52823 9.41896 10.8378
260 1 -1.1104 3.79301 5.44311 12.3234
261 1 -1.1104 3.85838 10.9079 12.1566
262 1 -1.1104 3.80189 5.39497 9.62968
263 1 -1.1104 3.84966 11.0233 9.39719
243 1 -1.1104 6.69188 8.25195 12.3745
245 1 -1.1104 6.74553 8.10539 9.43422
50 2 2.2208 13.6025 -1.61883 5.22413
318 1 -1.1104 9.4358 19.3391 9.42758
269 1 -1.1104 9.35265 5.45344 6.63934
163 1 -1.1104 9.38482 16.58 6.70435
364 2 2.2208 5.13712 1.28205 -0.355682
253 1 -1.1104 6.68346 5.49029 9.62657
254 1 -1.1104 6.66287 11.0741 9.52718
249 1 -1.1104 6.74569 11.0382 12.2998
248 1 -1.1104 6.71884 5.40254 12.3928
145 1 -1.1104 12.1308 19.4766 6.63414
319 1 -1.1104 9.32389 13.7566 9.65533
264 1 -1.1104 9.51686 11.0721 9.46568
268 1 -1.1104 9.49095 5.46509 9.48079
270 1 -1.1104 9.48464 11.0923 12.2391
271 1 -1.1104 9.51957 5.47545 12.3508
272 2 2.2208 8.04664 9.69291 10.8951
273 1 -1.1104 9.5852 8.22344 9.35312
274 2 2.2208 8.05169 12.3382 8.08159
275 2 2.2208 8.11963 6.79298 8.17405
276 2 2.2208 10.9934 6.80116 10.7842
277 2 2.2208 10.9047 12.4047 10.9218
278 1 -1.1104 12.2298 8.24718 12.3554
279 1 -1.1104 12.3347 8.13702 9.48513
280 1 -1.1104 12.1699 5.53248 12.176
281 1 -1.1104 12.2506 10.9009 12.2718
282 2 2.2208 10.7693 9.69987 8.10588
283 1 -1.1104 12.302 5.30214 9.44116
284 1 -1.1104 12.3939 11.0752 9.50763
285 1 -1.1104 9.52539 8.32644 12.3034
312 2 2.2208 -0.339733 18.0034 11.0025
156 1 -1.1104 9.38545 19.3235 6.63125
331 2 2.2208 10.8825 18.0572 10.8591
302 1 -1.1104 1.16631 19.4256 6.77219
111 1 -1.1104 6.58299 13.6868 6.73785
288 1 -1.1104 6.7197 19.2953 9.37633
296 1 -1.1104 6.68295 19.5051 12.1215
133 1 -1.1104 3.76962 16.6707 6.68171
297 1 -1.1104 6.67691 13.8019 12.3893
289 1 -1.1104 6.75254 16.5625 9.50441
306 1 -1.1104 6.58575 16.7498 12.4204
292 1 -1.1104 1.18056 16.5732 9.49862
291 1 -1.1104 1.07813 19.2784 9.50771
287 1 -1.1104 3.82993 13.7582 12.2084
286 1 -1.1104 3.93102 19.3039 12.289
124 1 -1.1104 3.81413 13.7237 6.52311
290 1 -1.1104 6.66574 13.8501 9.43357
293 2 2.2208 5.24299 20.813 8.12751
309 2 2.2208 2.54604 20.7499 10.8898
299 1 -1.1104 1.03349 13.722 12.0151
298 1 -1.1104 1.18909 19.3771 12.2612
310 2 2.2208 2.60178 15.2425 10.8078
295 2 2.2208 5.27544 15.1677 7.95424
308 1 -1.1104 3.89324 16.4876 12.3666
301 1 -1.1104 3.97412 19.3425 9.46018
300 2 2.2208 5.38995 18.0421 10.9207
307 1 -1.1104 1.15634 16.5446 12.1875
305 1 -1.1104 3.89135 13.8463 9.44441
294 1 -1.1104 1.1112 13.8193 9.3852
303 2 2.2208 2.43673 18.0283 8.13709
304 1 -1.1104 4.11425 16.6777 9.61738
316 2 2.2208 7.95816 20.8365 10.8079
359 2 2.2208 5.30663 15.2216 13.671
350 2 2.2208 10.8611 4.09597 13.6023
313 2 2.2208 -0.223055 15.2116 8.16621
137 2 2.2208 -0.227157 17.9053 5.405
370 2 2.2208 7.87201 -1.63002 -0.224298
339 2 2.2208 2.44005 1.20158 13.6571
203 2 2.2208 13.4635 3.94604 10.828
357 2 2.2208 2.34642 17.9631 13.4857
165 2 2.2208 13.569 18.0089 2.33674
386 2 2.2208 10.8319 12.3729 -0.305745
360 2 2.2208 10.6953 20.9692 13.5561
28 2 2.2208 13.6693 20.7642 10.8084
334 2 2.2208 -0.250188 -1.66612 13.6712
82 2 2.2208 -0.270183 9.51492 2.36515
231 2 2.2208 13.5649 20.7708 5.16771
104 2 2.2208 13.5517 12.3214 2.48236
341 2 2.2208 5.10035 3.88484 13.5832
381 2 2.2208 5.20696 12.269 -0.33078
355 2 2.2208 10.8639 9.65583 13.6584
361 2 2.2208 10.8508 15.278 13.5525
353 2 2.2208 2.41066 12.3445 13.5393
351 2 2.2208 2.367 6.89217 13.6025
375 2 2.2208 2.43902 20.6548 -0.26861
340 2 2.2208 13.468 1.17581 13.5365
369 2 2.2208 10.8042 1.14134 -0.281774
376 2 2.2208 13.609 12.3493 13.6465
382 2 2.2208 -0.337067 12.3379 -0.343747
352 2 2.2208 5.22211 9.73471 13.5923
362 2 2.2208 8.13869 18.0362 13.6244
372 2 2.2208 7.99839 4.00129 -0.300093
388 2 2.2208 5.14529 1.27622 16.5798
389 1 -1.1104 0.921274 -3.22762 17.9261
390 1 -1.1104 0.888217 2.53203 17.7353
393 1 -1.1104 0.843527 -3.04149 15.2357
395 1 -1.1104 0.872975 2.58679 14.8715
401 1 -1.1104 0.861562 -0.324644 17.733
403 2 2.2208 5.01181 -1.56605 19.3575
404 2 2.2208 5.17333 4.05389 19.1054
405 1 -1.1104 1.07994 -0.281472 15.0886
409 1 -1.1104 3.77317 -3.02186 17.9721
410 1 -1.1104 3.56454 2.50777 17.6858
411 2 2.2208 2.24037 1.1817 19.1561
412 1 -1.1104 3.75992 -3.003 15.1522
414 1 -1.1104 3.74544 2.67745 15.0843
416 2 2.2208 2.40237 -1.65047 16.6461
417 2 2.2208 2.32602 4.05396 16.4009
418 1 -1.1104 3.58418 -0.210163 17.8736
419 1 -1.1104 3.9074 -0.280694 15.0219
402 1 -1.1104 6.36088 -0.0886981 18.0013
391 1 -1.1104 6.59659 -2.87966 18.049
406 1 -1.1104 0.906035 -0.163751 20.5115
407 1 -1.1104 6.56898 -0.141148 15.26
399 1 -1.1104 6.58396 2.57555 14.9584
396 1 -1.1104 0.990049 2.61271 20.455
397 1 -1.1104 6.71011 -2.87585 15.1351
400 1 -1.1104 6.55352 2.66318 20.5857
415 1 -1.1104 3.82756 2.59062 20.5682
398 1 -1.1104 6.52794 -3.15142 20.9347
710 2 2.2208 13.6061 6.74319 24.7724
9099 2 2.2208 8.00453 -4.36766 24.8128
9138 2 2.2208 7.91174 -4.40638 19.4615
9139 2 2.2208 10.8149 -4.36077 16.4642
392 1 -1.1104 6.58712 2.63906 17.7136
431 2 2.2208 10.7743 1.18406 16.4705
432 1 -1.1104 12.1739 -2.85089 17.8301
433 1 -1.1104 12.2117 2.61173 17.8302
434 1 -1.1104 12.1568 -3.05768 15.139
436 1 -1.1104 12.0026 2.74098 14.9805
438 1 -1.1104 12.1518 -0.276714 17.8425
439 2 2.2208 10.8248 -1.60962 19.3585
440 2 2.2208 10.7899 4.1479 19.3586
441 1 -1.1104 12.1044 -0.171875 15.1211
443 1 -1.1104 9.3951 -3.21989 17.8919
444 1 -1.1104 9.34195 2.53374 17.9057
445 2 2.2208 8.00073 1.23161 19.2082
446 1 -1.1104 9.23692 -2.91749 14.9992
448 1 -1.1104 9.26107 2.55655 15.0473
450 2 2.2208 7.90396 -1.54254 16.5333
451 2 2.2208 7.93164 4.04861 16.4237
452 1 -1.1104 9.34557 -0.226471 17.9329
453 1 -1.1104 9.30936 -0.236659 15.1347
428 2 2.2208 13.6215 1.24339 19.3068
9140 2 2.2208 13.5555 -4.27861 19.2638
454 1 -1.1104 9.43894 -0.239377 20.7281
435 1 -1.1104 12.2719 -2.86801 20.6232
619 2 2.2208 13.5744 15.2019 16.3227
459 2 2.2208 13.6369 -1.62623 16.4638
562 1 -1.1104 9.50597 19.2078 23.3746
336 2 2.2208 13.5422 6.91226 13.7663
430 2 2.2208 13.6659 15.2141 22.1167
464 2 2.2208 5.1552 6.83664 16.4337
465 2 2.2208 5.30907 12.4542 16.5674
466 1 -1.1104 0.853815 8.1643 17.7262
468 1 -1.1104 1.01835 8.36445 14.8858
472 1 -1.1104 0.917141 5.25624 17.85
473 1 -1.1104 1.04402 11.0228 17.8067
476 2 2.2208 5.22465 9.53614 19.2437
477 1 -1.1104 0.96649 5.56507 14.9403
479 1 -1.1104 1.04432 11.007 15.0349
485 1 -1.1104 3.74086 8.09254 17.8791
486 2 2.2208 2.33155 6.76137 19.2771
487 2 2.2208 2.34393 12.3792 19.1346
488 1 -1.1104 3.73082 8.23028 15.0871
490 2 2.2208 2.40865 9.61352 16.4599
491 1 -1.1104 3.74881 5.39679 17.818
492 1 -1.1104 3.84317 11.0029 17.8208
493 1 -1.1104 3.72483 5.37798 15.0122
495 1 -1.1104 3.8321 10.9947 15.0757
481 1 -1.1104 6.54365 5.39223 15.1054
475 1 -1.1104 6.5836 11.0002 17.9903
482 1 -1.1104 6.63224 5.4116 20.7343
483 1 -1.1104 6.5307 11.1421 15.1532
470 1 -1.1104 6.65355 8.40798 15.0189
467 1 -1.1104 6.72739 8.22819 17.8633
524 1 -1.1104 12.2607 16.56 23.419
478 1 -1.1104 0.812314 5.38261 20.6429
496 1 -1.1104 3.67692 10.9448 20.6284
489 1 -1.1104 3.71623 8.32882 20.7174
494 1 -1.1104 3.77639 5.40522 20.5194
589 1 -1.1104 9.41198 13.7012 26.3209
623 2 2.2208 -0.33739 18.0199 22.0271
343 2 2.2208 7.87627 1.15334 13.7466
474 1 -1.1104 6.62823 5.34454 17.7607
500 2 2.2208 10.7467 6.9339 16.6152
501 2 2.2208 10.7332 12.3908 16.5129
502 1 -1.1104 12.2194 8.21491 17.9528
503 1 -1.1104 12.1741 8.25922 15.178
505 1 -1.1104 12.0688 5.43631 17.937
506 1 -1.1104 12.2457 10.9499 17.978
507 2 2.2208 10.7611 9.48207 19.3595
508 1 -1.1104 12.2732 5.50755 15.136
510 1 -1.1104 12.1792 11.0867 15.0638
512 1 -1.1104 9.3186 8.17286 17.9808
513 2 2.2208 7.96141 6.77883 19.2484
514 2 2.2208 8.03751 12.3004 19.292
515 1 -1.1104 9.45635 8.29862 15.2069
517 2 2.2208 7.99247 9.61322 16.4183
518 1 -1.1104 9.40988 5.35888 18.0098
519 1 -1.1104 9.46459 10.9451 17.9007
520 1 -1.1104 9.42565 5.58648 15.2063
522 1 -1.1104 9.22842 10.9718 15.0804
651 2 2.2208 13.626 6.76688 19.3026
521 1 -1.1104 9.33306 5.31817 20.7367
504 1 -1.1104 12.0932 8.03673 20.7361
509 1 -1.1104 12.2684 5.38664 20.5917
527 2 2.2208 5.2847 17.9138 16.4032
528 1 -1.1104 1.0118 13.9271 17.7146
529 1 -1.1104 0.959624 19.4918 17.8421
532 1 -1.1104 1.16766 13.8612 14.9001
534 1 -1.1104 1.10926 19.3944 14.9658
540 1 -1.1104 1.21662 16.7065 17.7345
542 2 2.2208 5.20674 15.2336 19.3123
543 2 2.2208 5.28675 20.8743 19.1754
544 1 -1.1104 0.835573 16.8094 14.8329
548 1 -1.1104 3.87987 13.9362 17.598
549 1 -1.1104 3.8286 19.3845 18.0016
550 2 2.2208 2.3641 18.0764 19.3447
551 1 -1.1104 3.77824 13.8709 14.8859
553 1 -1.1104 3.82042 19.5787 15.0507
555 2 2.2208 2.46626 15.2211 16.1653
556 2 2.2208 2.32313 20.8315 16.4422
557 1 -1.1104 3.94463 16.5761 17.7702
558 1 -1.1104 3.77966 16.7981 14.9791
535 1 -1.1104 0.90748 19.388 20.7493
541 1 -1.1104 6.73072 16.5709 17.8799
536 1 -1.1104 6.76177 13.7035 15.1393
546 1 -1.1104 6.57841 16.445 15.2145
531 1 -1.1104 6.59207 19.4058 17.8223
530 1 -1.1104 6.69683 13.7229 17.945
538 1 -1.1104 6.76193 19.2807 14.9828
348 2 2.2208 10.7907 17.9055 27.6954
574 1 -1.1104 12.2349 16.4742 20.6435
554 1 -1.1104 3.62418 19.2681 20.794
552 1 -1.1104 3.71544 13.8235 20.633
545 1 -1.1104 0.991693 16.5132 20.6244
533 1 -1.1104 1.01316 13.6439 20.5273
615 2 2.2208 7.9323 15.1741 22.0755
708 2 2.2208 13.5681 12.2481 24.9194
567 1 -1.1104 12.403 13.8047 20.7203
563 2 2.2208 10.9739 18.0455 16.3898
564 1 -1.1104 12.2276 13.8004 17.8789
565 1 -1.1104 12.2079 19.3111 17.884
566 1 -1.1104 12.1589 13.9051 15.0046
568 1 -1.1104 12.3158 19.3657 15.1585
570 1 -1.1104 12.5666 16.5324 17.7311
571 2 2.2208 10.8772 15.1762 19.378
572 2 2.2208 10.9065 20.7803 19.2643
573 1 -1.1104 12.3433 16.74 14.7459
575 1 -1.1104 9.53099 13.6427 17.9937
576 1 -1.1104 9.49582 19.3097 17.7699
577 2 2.2208 8.06616 18.054 19.2606
578 1 -1.1104 9.44858 13.8515 15.1409
580 1 -1.1104 9.56662 19.4476 14.9644
582 2 2.2208 8.23384 15.1536 16.4836
583 2 2.2208 8.13912 20.8802 16.4826
584 1 -1.1104 9.54251 16.4984 17.9448
585 1 -1.1104 9.52687 16.5331 15.1258
586 1 -1.1104 9.45058 16.5783 20.752
537 1 -1.1104 6.54996 13.7528 20.7124
497 1 -1.1104 12.1926 19.4442 23.4527
561 1 -1.1104 9.46181 13.7739 23.4974
394 1 -1.1104 0.925184 -2.98023 20.6355
413 1 -1.1104 3.59156 -2.99352 20.678
420 1 -1.1104 3.70068 -0.171125 20.6587
408 1 -1.1104 6.65436 -0.2979 20.6632
617 1 -1.1104 9.45288 16.3853 23.5574
709 1 -1.1104 6.61661 13.8599 23.4684
462 2 2.2208 10.9436 17.9209 22.0668
591 2 2.2208 5.12141 1.16061 22.071
592 1 -1.1104 0.946415 -2.99369 23.5499
593 1 -1.1104 0.952284 2.53945 23.3423
596 1 -1.1104 0.975622 -3.06606 26.2822
597 1 -1.1104 0.994389 2.59926 26.2386
600 1 -1.1104 1.06654 -0.163222 23.3404
602 2 2.2208 5.13981 -1.71732 24.8451
603 2 2.2208 5.1302 3.86912 24.7988
604 1 -1.1104 0.95237 -0.223199 26.2473
606 1 -1.1104 3.85747 -3.12151 23.4909
607 1 -1.1104 3.83787 2.60863 23.4395
608 2 2.2208 2.43084 1.12185 24.9472
609 1 -1.1104 3.84642 -3.0477 26.2226
610 1 -1.1104 3.87689 2.58585 26.3831
611 2 2.2208 2.40497 -1.6465 22.1954
612 2 2.2208 2.46916 3.98653 21.9172
613 1 -1.1104 3.87894 -0.196104 23.4807
614 1 -1.1104 3.69223 -0.280031 26.387
599 1 -1.1104 6.57605 2.62507 26.2729
595 1 -1.1104 6.65203 2.53035 23.4522
594 1 -1.1104 6.67436 -2.95566 23.6435
601 1 -1.1104 6.60381 -0.340861 23.4985
9102 2 2.2208 2.29058 -4.40845 24.8192
449 1 -1.1104 9.42316 2.62457 20.7573
447 1 -1.1104 9.37477 -3.09682 20.6841
429 2 2.2208 13.4198 4.008 16.5299
598 1 -1.1104 6.55701 -2.99964 26.3886
685 2 2.2208 -0.339075 12.2769 21.9753
437 1 -1.1104 12.1579 2.69907 20.6978
423 2 2.2208 13.6985 4.02294 22.0447
442 1 -1.1104 12.2131 -0.197829 20.8701
605 1 -1.1104 6.36916 -0.262163 26.3926
627 2 2.2208 10.849 1.2003 22.0949
628 1 -1.1104 12.2505 -2.8964 23.4851
629 1 -1.1104 12.2424 2.57365 23.6138
630 1 -1.1104 12.2348 -3.14336 26.2272
631 1 -1.1104 12.3132 2.51698 26.4271
632 1 -1.1104 12.1701 -0.0784382 23.5539
633 2 2.2208 10.9246 -1.55411 24.914
634 2 2.2208 10.9457 3.73141 24.9437
635 1 -1.1104 12.2995 -0.239388 26.3379
636 1 -1.1104 9.5202 -2.87482 23.6157
637 1 -1.1104 9.30842 2.31619 23.6335
638 2 2.2208 7.96203 1.07487 24.9313
639 1 -1.1104 9.31301 -2.8677 26.3693
640 1 -1.1104 9.5095 2.46597 26.3729
641 2 2.2208 8.0757 -1.57983 22.1694
642 2 2.2208 8.03717 4.02263 22.164
643 1 -1.1104 9.29434 -0.26287 23.5095
644 1 -1.1104 9.3776 -0.118203 26.4355
650 2 2.2208 13.6402 12.4834 19.2802
616 2 2.2208 8.12928 20.7622 22.0792
581 1 -1.1104 9.4537 19.3353 20.6074
469 1 -1.1104 0.760937 8.09271 20.5819
471 1 -1.1104 6.51918 8.16066 20.7137
569 1 -1.1104 12.3539 19.4687 20.6016
484 1 -1.1104 6.52345 10.9482 20.7066
480 1 -1.1104 0.99714 10.8363 20.6536
656 2 2.2208 5.32144 6.83224 22.0843
657 2 2.2208 5.08953 12.3088 22.0317
658 1 -1.1104 1.02656 8.21624 23.2559
660 1 -1.1104 1.05664 8.17271 26.1515
662 1 -1.1104 1.1134 5.46931 23.5566
663 1 -1.1104 1.07818 11.0242 23.4942
666 2 2.2208 5.1787 9.5847 24.892
667 1 -1.1104 0.971352 5.4507 26.3332
668 1 -1.1104 0.893535 11.0092 26.2818
671 1 -1.1104 3.80658 8.31391 23.689
672 2 2.2208 2.42953 6.82802 24.8385
673 2 2.2208 2.38638 12.3628 24.948
674 1 -1.1104 3.67162 8.10027 26.3737
675 2 2.2208 2.35462 9.64002 22.047
676 1 -1.1104 3.76977 5.35623 23.2999
677 1 -1.1104 3.83015 11.0345 23.4965
678 1 -1.1104 3.79167 5.41748 26.201
679 1 -1.1104 3.77051 10.9446 26.3252
665 1 -1.1104 6.5119 11.0089 23.6451
659 1 -1.1104 6.71663 7.9731 23.5072
670 1 -1.1104 6.64934 11.0069 26.3577
664 1 -1.1104 6.58511 5.26557 23.4177
661 1 -1.1104 6.54976 8.16249 26.3151
358 2 2.2208 5.1571 20.8651 13.6435
587 2 2.2208 8.14136 17.9766 24.8627
669 1 -1.1104 6.6198 5.29789 26.2184
511 1 -1.1104 12.1144 10.7943 20.7313
516 1 -1.1104 9.38625 8.20495 20.7481
523 1 -1.1104 9.32713 11.0083 20.6626
687 1 -1.1104 9.41222 10.9068 26.3263
688 1 -1.1104 9.50621 5.35083 26.1999
689 1 -1.1104 9.20348 10.9523 23.3915
690 1 -1.1104 9.42781 5.38711 23.4839
691 2 2.2208 7.89019 9.53507 22.1002
692 1 -1.1104 9.26573 8.17551 26.3041
693 2 2.2208 8.07053 12.3558 24.8225
694 2 2.2208 7.99375 6.61916 24.9244
695 2 2.2208 10.7592 6.74208 22.1511
696 2 2.2208 10.8551 12.3196 22.0617
697 1 -1.1104 12.1714 8.14883 23.4777
698 1 -1.1104 12.1917 8.15055 26.2019
699 1 -1.1104 12.2216 5.30415 23.4633
700 1 -1.1104 12.2099 11.0562 23.3986
701 2 2.2208 10.8015 9.54716 24.8601
702 1 -1.1104 12.2507 5.21975 26.1861
703 1 -1.1104 12.2174 10.8842 26.2678
704 1 -1.1104 9.3673 8.09601 23.5734
374 2 2.2208 5.24538 18.0086 27.6118
579 1 -1.1104 9.42498 13.8597 20.6664
560 1 -1.1104 12.223 16.5704 26.2949
539 1 -1.1104 6.62636 19.3286 20.5916
463 1 -1.1104 12.1908 13.7721 23.5788
588 1 -1.1104 6.77705 19.4309 26.3104
714 1 -1.1104 6.6481 16.6494 26.2621
559 1 -1.1104 3.61954 16.4899 20.6835
547 1 -1.1104 6.50788 16.5527 20.7546
680 1 -1.1104 6.62938 16.5964 23.4621
712 1 -1.1104 6.58702 13.8564 26.2311
718 1 -1.1104 6.57793 19.3524 23.4418
717 1 -1.1104 0.932376 13.7791 26.3178
719 2 2.2208 5.23765 20.8508 24.92
716 1 -1.1104 0.908656 16.6601 26.1846
715 1 -1.1104 0.944153 19.3883 26.4331
720 2 2.2208 5.16767 15.155 24.8552
647 2 2.2208 2.30507 15.1778 22.0614
649 2 2.2208 2.42883 20.8252 22.1177
652 1 -1.1104 3.74941 16.5359 23.5759
655 1 -1.1104 0.912703 16.5869 23.4232
681 1 -1.1104 3.80624 13.7141 26.3401
682 1 -1.1104 3.81522 16.5187 26.3069
683 2 2.2208 2.31287 17.8566 24.886
686 1 -1.1104 3.78145 19.2979 26.36
705 2 2.2208 5.12191 17.9001 22.1063
706 1 -1.1104 0.886585 13.7212 23.4636
707 1 -1.1104 0.835898 19.5346 23.5745
711 1 -1.1104 3.7418 19.4567 23.6307
713 1 -1.1104 3.60585 13.8011 23.4402
653 2 2.2208 13.6453 -1.50218 22.1268
498 1 -1.1104 12.291 13.7714 26.3074
525 2 2.2208 10.8404 15.0779 24.9126
620 1 -1.1104 9.54031 16.431 26.4353
499 1 -1.1104 12.3127 19.4418 26.3527
590 1 -1.1104 9.5478 19.2086 26.1758
526 2 2.2208 10.898 20.8092 24.9227
684 2 2.2208 -0.322418 9.53873 24.8024
626 2 2.2208 -0.313647 4.07801 24.7112
457 2 2.2208 -0.267095 15.1974 19.2035
373 2 2.2208 2.35441 15.1171 27.6218
422 2 2.2208 13.6234 9.48195 22.0558
460 2 2.2208 13.6841 20.788 16.4932
456 2 2.2208 -0.354134 18.1414 16.3551
349 2 2.2208 8.09214 20.8543 27.6839
385 2 2.2208 8.03028 9.61216 27.6735
383 2 2.2208 -0.335958 6.67212 27.7443
9026 2 2.2208 13.6021 -4.30366 13.671
9027 2 2.2208 7.95921 -4.41891 13.6428
347 2 2.2208 7.92601 15.1085 27.6666
384 2 2.2208 10.8269 6.80115 27.7031
344 2 2.2208 13.6402 15.1088 27.6785
346 2 2.2208 10.7534 -1.54791 13.7046
9031 2 2.2208 2.41822 -4.38234 13.7191
335 2 2.2208 -0.177589 20.8926 13.7015
365 2 2.2208 2.22843 -1.60392 27.6674
356 2 2.2208 8.15067 12.4261 13.7522
338 2 2.2208 5.21837 -1.69315 13.747
377 2 2.2208 13.6237 -1.74543 27.7094
379 2 2.2208 5.12391 6.76071 27.614
366 2 2.2208 2.35557 4.00067 27.6479
721 2 2.2208 5.22414 23.5492 5.18676
722 2 2.2208 5.27587 29.2013 5.25071
723 1 -1.1104 1.08681 25.0327 0.880732
724 1 -1.1104 1.03541 24.9034 3.62148
725 1 -1.1104 1.06616 22.0923 1.19156
726 1 -1.1104 0.967141 27.8934 1.03505
727 2 2.2208 5.23717 26.4793 2.48096
728 1 -1.1104 0.892949 22.2115 3.97104
729 1 -1.1104 1.10393 27.789 3.86231
730 1 -1.1104 3.92567 24.9409 0.970415
731 2 2.2208 2.50399 23.6497 2.3906
732 2 2.2208 2.45696 29.3267 2.49347
733 1 -1.1104 3.77359 25.1082 3.90615
734 2 2.2208 2.42967 26.4195 5.23989
735 1 -1.1104 3.83447 22.1332 0.987138
736 1 -1.1104 3.83872 27.7743 1.12188
737 1 -1.1104 3.77853 22.2046 3.8716
738 1 -1.1104 3.73773 27.8489 3.78562
745 1 -1.1104 6.81026 27.8354 1.12976
869 1 -1.1104 3.93004 22.1511 6.59208
744 1 -1.1104 6.64466 22.2363 1.07786
746 1 -1.1104 6.46517 22.1846 3.90453
747 1 -1.1104 6.61003 27.786 3.94882
742 1 -1.1104 6.57049 24.9302 1.02982
865 1 -1.1104 0.978388 27.7405 6.76737
866 1 -1.1104 6.58753 22.1658 6.6568
1026 1 -1.1104 9.50955 44.7071 6.75899
1085 2 2.2208 8.19827 37.7225 -0.270692
791 2 2.2208 -0.343648 32.23 2.57971
1090 2 2.2208 -0.335505 46.0195 -0.341764
743 1 -1.1104 6.73032 24.882 3.84091
1016 1 -1.1104 9.50933 42.1812 12.5938
748 2 2.2208 10.8627 23.5132 5.28158
749 2 2.2208 10.9413 29.3155 5.24124
750 1 -1.1104 12.296 25.0653 0.937295
751 1 -1.1104 12.2326 25.0072 3.76652
752 1 -1.1104 12.2716 22.3126 0.930176
753 1 -1.1104 12.3594 27.8848 1.03576
754 2 2.2208 10.9032 26.5392 2.45292
755 1 -1.1104 12.2577 22.2149 3.78338
756 1 -1.1104 12.186 27.8324 3.81247
757 1 -1.1104 9.4179 25.0292 0.998284
758 2 2.2208 8.16295 23.719 2.42143
759 2 2.2208 8.16789 29.2315 2.59488
760 1 -1.1104 9.54073 24.9858 3.73773
761 2 2.2208 7.97483 26.3218 5.24124
762 1 -1.1104 9.3757 22.2283 0.993109
763 1 -1.1104 9.44358 27.9209 1.04308
764 1 -1.1104 9.44123 22.207 3.79694
765 1 -1.1104 9.39482 27.7222 3.80012
899 1 -1.1104 9.36572 22.3626 6.52217
898 1 -1.1104 9.34446 24.9951 6.72866
897 1 -1.1104 12.1465 27.724 6.56654
1614 1 -1.1104 1.00067 47.4268 9.48895
1010 1 -1.1104 9.6439 44.9324 12.4278
1080 2 2.2208 2.55532 32.0648 -0.372424
863 1 -1.1104 6.50986 24.8983 6.57289
1086 2 2.2208 8.09969 32.0696 -0.247449
1020 1 -1.1104 12.2974 44.5539 12.4567
769 2 2.2208 5.21715 34.8613 5.26466
770 1 -1.1104 1.25018 30.7971 1.10217
771 1 -1.1104 1.06748 36.3506 1.16345
773 1 -1.1104 1.10962 30.6342 4.00474
774 1 -1.1104 1.04746 36.2738 3.82505
776 1 -1.1104 1.02816 33.6354 1.08848
777 2 2.2208 5.19991 32.1493 2.43053
778 2 2.2208 5.318 37.7043 2.41197
779 1 -1.1104 1.04748 33.5263 3.91463
781 1 -1.1104 4.04575 30.6162 1.04608
782 1 -1.1104 4.02863 36.2025 1.10975
783 2 2.2208 2.49946 34.8347 2.39147
784 1 -1.1104 3.89431 30.7173 3.85012
785 1 -1.1104 3.82427 36.3533 3.82727
786 2 2.2208 2.43973 32.1476 5.29935
787 2 2.2208 2.49322 37.6667 5.29559
788 1 -1.1104 3.7069 33.4061 1.06734
789 1 -1.1104 3.73709 33.4801 3.94235
780 1 -1.1104 6.58 33.6338 3.92561
775 1 -1.1104 6.60668 36.2916 3.87751
794 1 -1.1104 6.68471 30.7228 3.92832
772 1 -1.1104 6.78754 36.3237 1.11171
1418 1 -1.1104 6.61228 47.3052 4.07084
1012 2 2.2208 8.0998 43.3272 10.9177
923 1 -1.1104 0.875784 33.5058 6.6879
926 1 -1.1104 3.7848 36.3082 6.5662
1019 2 2.2208 10.9551 43.2241 8.29979
10377 2 2.2208 13.6314 40.2861 8.42273
795 1 -1.1104 6.60785 33.4477 1.11385
793 1 -1.1104 6.73273 30.71 0.987603
796 2 2.2208 10.8226 35.0358 5.33692
797 1 -1.1104 12.216 30.6937 1.02084
798 1 -1.1104 12.2497 36.3437 1.13298
799 1 -1.1104 12.2692 30.7072 3.78136
800 1 -1.1104 12.2699 36.3317 3.99292
801 1 -1.1104 12.3688 33.5858 0.839866
802 2 2.2208 10.9004 32.1851 2.4133
803 2 2.2208 10.9658 37.7988 2.64905
804 1 -1.1104 12.4139 33.5063 3.83002