ITEM: TIMESTEP
90000
ITEM: NUMBER OF ATOMS
17730
ITEM: BOX BOUNDS pp pp pp
-3.6630764317032499e-01 2.7706307643170039e+01
-4.4133433699184144e+00 3.3249334336991893e+02
-3.6265287627273912e-01 2.7702652876272168e+01
ITEM: ATOMS id type q x y z
1 2 2.2208 5.22813 1.12611 5.19915
2 1 -1.1104 0.974277 -2.97772 1.10756
3 1 -1.1104 0.921188 2.63339 0.929877
6 1 -1.1104 0.986975 -3.05413 3.91591
7 1 -1.1104 0.899822 2.50059 3.92825
10 1 -1.1104 0.865515 -0.15495 1.1492
12 2 2.2208 5.00286 -1.41521 2.33733
14 1 -1.1104 0.904625 -0.194281 3.84279
16 1 -1.1104 3.54231 -2.84099 1.0843
17 1 -1.1104 3.77102 2.63564 1.01094
18 2 2.2208 2.34307 1.33565 2.45102
19 1 -1.1104 3.70215 -2.99514 3.88599
20 1 -1.1104 3.78315 2.62573 3.76549
21 2 2.2208 2.34886 -1.57814 5.24291
23 1 -1.1104 3.7667 -0.18554 0.977883
24 1 -1.1104 3.7335 -0.188595 3.95159
22 2 2.2208 2.35288 3.98055 5.2492
13 2 2.2208 5.18841 3.98075 2.32207
9 1 -1.1104 6.7036 2.59099 3.75707
172 1 -1.1104 3.69603 -2.96012 6.66667
15 1 -1.1104 6.62478 -0.118207 3.85516
167 1 -1.1104 0.875317 2.60837 6.67246
170 1 -1.1104 1.03108 -0.122484 6.64382
173 1 -1.1104 3.85153 2.5411 6.45009
169 1 -1.1104 6.52906 2.46115 6.72862
11 1 -1.1104 6.61722 -0.282275 1.15611
4 1 -1.1104 6.33809 -3.08414 1.2636
9004 2 2.2208 2.40423 -4.42806 2.39862
168 1 -1.1104 6.51984 -3.00305 6.6333
174 1 -1.1104 3.655 -0.182072 6.65077
361 2 2.2208 10.806 15.2905 13.5747
5 1 -1.1104 6.54557 2.41087 0.909566
8 1 -1.1104 6.41643 -3.02681 3.84401
326 1 -1.1104 12.2014 16.6471 12.1449
31 2 2.2208 10.7824 1.14816 5.22459
32 1 -1.1104 12.1099 -2.95449 1.06807
33 1 -1.1104 12.1406 2.47132 0.916826
34 1 -1.1104 12.1437 -3.07336 3.92486
35 1 -1.1104 12.3488 2.57527 3.71036
36 1 -1.1104 12.0669 -0.226334 1.14062
37 2 2.2208 10.6955 -1.65406 2.41287
39 1 -1.1104 12.1391 -0.2868 3.80594
40 1 -1.1104 9.3658 -2.95001 1.01508
41 1 -1.1104 9.35677 2.80717 1.09133
42 2 2.2208 7.87972 1.2013 2.4548
43 1 -1.1104 9.33758 -2.94002 3.84157
44 1 -1.1104 9.35968 2.76898 3.89231
45 2 2.2208 7.905 -1.65038 5.30619
46 2 2.2208 7.97642 3.96143 5.2594
47 1 -1.1104 9.2434 -0.0544924 1.05761
48 1 -1.1104 9.43764 -0.248189 3.86725
38 2 2.2208 10.7605 4.05308 2.46423
9007 2 2.2208 7.93516 -4.38432 2.49924
208 1 -1.1104 9.29294 -2.95553 6.67506
206 1 -1.1104 12.1011 2.76367 6.58993
363 2 2.2208 13.6585 18.1936 13.6576
9008 2 2.2208 10.6846 -4.42007 5.15443
233 2 2.2208 13.6078 4.04072 5.17823
54 2 2.2208 5.25988 6.8173 5.10723
55 2 2.2208 4.9987 12.3935 5.16254
56 1 -1.1104 0.914737 8.08334 0.89122
58 1 -1.1104 1.09789 8.23591 3.53819
60 1 -1.1104 1.04366 5.32688 1.01815
61 1 -1.1104 1.06075 10.9193 1.04142
66 2 2.2208 5.32351 9.56603 2.36831
67 1 -1.1104 1.04924 5.23375 3.82544
68 1 -1.1104 0.867097 11.0082 3.69672
71 1 -1.1104 3.86178 8.2228 0.879287
72 2 2.2208 2.55159 6.73361 2.39329
73 2 2.2208 2.30239 12.3789 2.47665
74 1 -1.1104 3.89315 8.24957 3.81443
75 2 2.2208 2.3269 9.58208 5.11179
76 1 -1.1104 3.88265 5.44982 0.962928
77 1 -1.1104 3.8322 11.0418 1.03198
79 1 -1.1104 3.98116 5.43692 3.57987
80 1 -1.1104 3.68297 11.0015 3.77949
236 1 -1.1104 0.789672 5.48893 6.57877
78 1 -1.1104 3.72002 10.9286 6.58395
59 1 -1.1104 6.61798 8.11114 3.76477
64 1 -1.1104 6.75828 11.0604 1.19903
57 1 -1.1104 6.70116 8.0962 1.02534
70 1 -1.1104 6.46135 10.9959 3.84186
234 1 -1.1104 0.967834 8.26881 6.41966
238 1 -1.1104 3.75583 8.24521 6.43293
237 1 -1.1104 6.36051 5.46993 6.64901
62 1 -1.1104 0.917207 10.9203 6.53284
239 1 -1.1104 3.61425 5.38767 6.50197
50 2 2.2208 13.5963 -1.66427 5.12786
69 1 -1.1104 6.76558 5.33784 3.75015
63 1 -1.1104 6.68589 5.48632 0.927371
84 2 2.2208 10.759 6.91684 5.27292
85 2 2.2208 10.7321 12.3639 5.29651
86 1 -1.1104 12.141 8.29484 1.00587
87 1 -1.1104 12.3438 8.14449 3.88587
88 1 -1.1104 12.2544 5.36995 0.876846
89 1 -1.1104 12.3036 11.2554 1.00882
91 2 2.2208 10.8865 9.64234 2.48966
92 1 -1.1104 12.2779 5.43555 3.86757
93 1 -1.1104 12.2968 10.8662 3.88068
94 1 -1.1104 9.38566 8.28415 1.0994
95 2 2.2208 8.13701 6.76841 2.4303
96 2 2.2208 7.94478 12.4041 2.51015
97 1 -1.1104 9.54533 8.25665 3.81844
98 2 2.2208 7.94535 9.69965 5.23588
99 1 -1.1104 9.45392 5.60566 1.07192
100 1 -1.1104 9.60934 10.8754 1.00237
102 1 -1.1104 9.63328 5.54288 3.85553
103 1 -1.1104 9.44465 10.9655 3.82332
266 1 -1.1104 12.16 5.64477 6.61109
267 1 -1.1104 9.17809 8.22926 6.65224
105 2 2.2208 13.5583 6.84973 2.30217
90 1 -1.1104 12.0227 11.0908 6.7595
101 1 -1.1104 9.38039 11.0211 6.65279
265 1 -1.1104 12.16 8.24962 6.64913
9013 2 2.2208 8.10162 -4.37259 7.93525
232 2 2.2208 13.6446 9.58859 5.36226
106 2 2.2208 5.23299 18.0045 5.20107
107 1 -1.1104 0.925569 13.894 0.913509
109 1 -1.1104 0.855902 19.4799 0.891603
113 1 -1.1104 0.954088 13.8213 3.6386
114 1 -1.1104 0.969544 19.3666 3.98739
116 1 -1.1104 0.805065 16.7972 1.09189
119 2 2.2208 5.07707 15.1879 2.44513
120 2 2.2208 5.08809 20.7989 2.38536
121 1 -1.1104 0.935457 16.4802 3.79889
123 1 -1.1104 3.68933 13.7396 1.08854
125 1 -1.1104 3.70346 19.5072 1.15034
127 2 2.2208 2.36029 17.9819 2.52324
128 1 -1.1104 3.69459 13.7297 3.95195
129 1 -1.1104 3.78518 19.367 3.9685
130 2 2.2208 2.29669 15.2044 5.26422
131 2 2.2208 2.4041 20.7461 5.28688
132 1 -1.1104 3.64264 16.6965 1.0258
134 1 -1.1104 3.61813 16.5114 3.79074
108 1 -1.1104 0.952063 13.7761 6.53818
117 1 -1.1104 0.883455 16.5231 6.65359
111 1 -1.1104 6.46836 13.7657 6.6437
140 1 -1.1104 6.49843 16.5017 0.985442
110 1 -1.1104 6.5113 13.7974 1.06787
115 1 -1.1104 6.57068 13.7573 3.87167
139 1 -1.1104 6.58788 19.5059 3.74386
138 1 -1.1104 6.5878 19.3432 0.948648
122 1 -1.1104 6.63431 16.4389 3.79715
118 1 -1.1104 6.58384 16.6643 6.59721
126 1 -1.1104 3.86689 19.3304 6.64556
124 1 -1.1104 3.78218 13.7426 6.68804
9011 2 2.2208 5.08244 -4.46771 10.8585
230 2 2.2208 13.5218 -1.68796 10.8896
163 1 -1.1104 9.36139 16.6244 6.69095
204 2 2.2208 13.5509 15.1975 5.20687
143 1 -1.1104 12.1312 13.8663 6.6236
149 1 -1.1104 12.1514 16.7131 6.64998
156 1 -1.1104 9.25425 19.358 6.67371
141 2 2.2208 10.6363 18.0028 5.19648
142 1 -1.1104 12.1739 13.9428 0.932491
144 1 -1.1104 12.0716 19.4241 1.09605
146 1 -1.1104 12.1142 13.8175 3.83217
147 1 -1.1104 12.131 19.3702 3.79353
148 1 -1.1104 12.1962 16.6736 0.981948
150 2 2.2208 10.7164 15.2947 2.47829
151 2 2.2208 10.6978 20.7409 2.3919
152 1 -1.1104 12.2752 16.5843 3.87487
153 1 -1.1104 9.32206 13.8273 1.02451
155 1 -1.1104 9.31391 19.3687 1.14397
157 2 2.2208 7.95891 17.9636 2.37303
158 1 -1.1104 9.43416 13.7635 3.82716
159 1 -1.1104 9.45122 19.4409 3.89385
160 2 2.2208 7.92063 15.1668 5.27592
161 2 2.2208 8.04017 20.8513 5.3162
162 1 -1.1104 9.27114 16.6306 0.911603
164 1 -1.1104 9.37078 16.5412 3.76094
145 1 -1.1104 12.1794 19.6057 6.58786
231 2 2.2208 13.516 20.7555 5.12252
165 2 2.2208 13.6135 18.0431 2.40132
166 1 -1.1104 1.01655 -2.93091 6.72317
9010 2 2.2208 2.36158 -4.39249 8.11305
339 2 2.2208 2.4465 1.13837 13.777
175 2 2.2208 5.19903 1.2843 10.8816
176 1 -1.1104 0.769222 -2.88176 12.2224
177 1 -1.1104 1.02097 2.80541 12.2967
180 1 -1.1104 1.0342 -2.97953 9.44037
181 1 -1.1104 0.899616 2.72982 9.3916
184 1 -1.1104 0.91744 -0.0467261 12.2968
186 2 2.2208 5.18362 -1.63136 8.12597
188 1 -1.1104 0.999156 -0.116147 9.54217
190 1 -1.1104 3.72088 -2.98751 12.3957
191 1 -1.1104 3.81078 2.59813 12.3914
192 2 2.2208 2.36731 1.13721 8.08111
193 1 -1.1104 3.89417 -3.00374 9.62986
194 1 -1.1104 3.75991 2.47 9.57248
195 2 2.2208 2.49338 -1.62312 10.8843
196 2 2.2208 2.16815 4.06771 10.8619
197 1 -1.1104 3.80078 -0.278489 12.3197
198 1 -1.1104 3.78589 -0.255691 9.45328
187 2 2.2208 4.96335 4.01202 8.07985
179 1 -1.1104 6.64895 2.64006 12.1875
171 1 -1.1104 6.60881 -0.228332 6.69486
183 1 -1.1104 6.47267 2.63369 9.39865
178 1 -1.1104 6.61332 -3.01065 12.3375
185 1 -1.1104 6.45518 -0.141568 12.2309
182 1 -1.1104 6.55648 -3.09679 9.55156
368 2 2.2208 -0.564432 1.18344 -0.426099
202 2 2.2208 13.5293 6.9808 8.00309
210 1 -1.1104 9.50384 -0.102568 6.70973
350 2 2.2208 10.8192 3.98108 13.7069
203 2 2.2208 13.5786 3.98362 10.8155
207 1 -1.1104 12.1406 -0.260156 6.54075
209 1 -1.1104 9.27293 2.52824 6.56655
49 2 2.2208 13.4889 1.25858 2.38034
189 1 -1.1104 6.53582 -0.298693 9.47506
205 1 -1.1104 12.1575 -2.96869 6.70191
211 2 2.2208 10.7499 1.1969 10.8879
212 1 -1.1104 12.082 -3.01123 12.1925
213 1 -1.1104 12.1252 2.63773 12.1679
214 1 -1.1104 12.1507 -3.07764 9.44702
215 1 -1.1104 12.15 2.58548 9.41423
216 1 -1.1104 12.1919 -0.159622 12.3233
217 2 2.2208 10.6929 -1.53996 8.02177
218 2 2.2208 10.8152 4.05985 7.98339
219 1 -1.1104 12.1127 -0.216418 9.46002
220 1 -1.1104 9.42638 -2.98722 12.2305
221 1 -1.1104 9.33173 2.59067 12.2206
222 2 2.2208 7.91244 1.23597 8.14466
223 1 -1.1104 9.35135 -2.82072 9.38883
224 1 -1.1104 9.36057 2.5974 9.51706
225 2 2.2208 7.96541 -1.54834 10.8211
226 2 2.2208 7.90419 4.04404 10.7405
227 1 -1.1104 9.3236 -0.308857 12.2143
228 1 -1.1104 9.23586 -0.127402 9.44628
104 2 2.2208 13.5827 12.4754 2.37725
333 2 2.2208 13.6341 15.1873 10.8442
229 2 2.2208 13.5034 1.08074 8.06114
355 2 2.2208 10.8564 9.59863 13.53
235 1 -1.1104 6.48943 8.23283 6.50998
65 1 -1.1104 6.38051 10.973 6.59203
52 2 2.2208 13.5036 9.60897 10.7947
240 2 2.2208 5.1113 6.84337 10.9029
241 2 2.2208 5.1419 12.3373 10.767
242 1 -1.1104 0.975063 8.15031 12.0088
244 1 -1.1104 0.887946 8.24797 9.11703
246 1 -1.1104 0.792727 5.44031 12.1496
247 1 -1.1104 1.08006 10.9333 12.2654
250 2 2.2208 5.05205 9.54349 7.9689
251 1 -1.1104 0.861077 5.46347 9.25596
252 1 -1.1104 0.964333 10.9122 9.42086
255 1 -1.1104 3.69578 8.24713 12.2312
256 2 2.2208 2.36921 6.73755 7.96468
257 2 2.2208 2.27593 12.386 7.80237
258 1 -1.1104 3.61285 8.04203 9.39742
259 2 2.2208 2.37065 9.57964 10.6688
260 1 -1.1104 3.64871 5.33074 12.1825
261 1 -1.1104 3.85352 10.9816 12.3387
262 1 -1.1104 3.54219 5.29685 9.44825
263 1 -1.1104 3.63614 10.9591 9.31953
254 1 -1.1104 6.5103 10.8169 9.39905
253 1 -1.1104 6.38322 5.31377 9.42724
245 1 -1.1104 6.38403 8.22834 9.37106
249 1 -1.1104 6.64399 11.0704 12.2166
248 1 -1.1104 6.58147 5.46172 12.2104
343 2 2.2208 8.05788 1.28314 13.769
53 2 2.2208 13.5482 12.4027 8.06261
322 1 -1.1104 9.33052 13.8152 12.2165
269 1 -1.1104 9.20337 5.45421 6.55382
243 1 -1.1104 6.60152 8.261 12.2425
264 1 -1.1104 9.23896 10.9065 9.39661
268 1 -1.1104 9.1842 5.35296 9.25709
270 1 -1.1104 9.4663 11.057 12.1122
271 1 -1.1104 9.44041 5.41609 12.2478
272 2 2.2208 7.86628 9.61932 10.8186
273 1 -1.1104 9.21241 8.13519 9.42823
274 2 2.2208 7.85183 12.3208 8.03909
275 2 2.2208 7.73473 6.79785 7.99765
276 2 2.2208 10.7529 6.7022 10.7336
277 2 2.2208 10.7697 12.3306 10.7692
278 1 -1.1104 12.1996 8.11721 12.2299
279 1 -1.1104 11.9825 8.21402 9.44513
280 1 -1.1104 12.2533 5.46375 12.2541
281 1 -1.1104 12.1733 10.9514 12.2045
282 2 2.2208 10.5879 9.50585 8.07783
283 1 -1.1104 12.0872 5.49012 9.2481
284 1 -1.1104 12.1408 10.9907 9.49489
285 1 -1.1104 9.23598 8.2407 12.1322
325 2 2.2208 10.7792 15.2617 8.09501
376 2 2.2208 13.6289 12.4178 13.702
356 2 2.2208 8.15025 12.3328 13.6389
330 1 -1.1104 12.3009 13.8488 12.3304
302 1 -1.1104 0.896455 19.4352 6.76209
296 1 -1.1104 6.52641 19.4668 12.1769
289 1 -1.1104 6.47163 16.4061 9.3172
112 1 -1.1104 6.65313 19.3273 6.59949
331 2 2.2208 10.9471 18.0204 10.7573
306 1 -1.1104 6.57538 16.6603 12.0686
297 1 -1.1104 6.60652 13.7827 12.1556
290 1 -1.1104 6.41713 13.7598 9.40488
316 2 2.2208 7.82573 20.7691 10.8147
288 1 -1.1104 6.5431 19.3622 9.50124
133 1 -1.1104 3.79536 16.5876 6.58623
305 1 -1.1104 3.6146 13.782 9.37778
307 1 -1.1104 1.05279 16.6236 12.2653
300 2 2.2208 5.15312 17.9602 10.7975
304 1 -1.1104 3.85366 16.5131 9.27974
303 2 2.2208 2.38972 18.0148 8.06271
294 1 -1.1104 0.892805 13.6993 9.38219
292 1 -1.1104 1.0015 16.3435 9.48121
291 1 -1.1104 0.939417 19.3143 9.57488
287 1 -1.1104 3.83079 13.8869 12.273
286 1 -1.1104 3.66453 19.4292 12.3783
293 2 2.2208 5.23172 20.6803 7.99762
309 2 2.2208 2.40012 20.6924 10.9062
299 1 -1.1104 0.90532 13.8259 12.2655
298 1 -1.1104 0.764287 19.3348 12.2563
310 2 2.2208 2.38786 15.1207 10.7768
295 2 2.2208 5.14992 15.1242 7.91487
308 1 -1.1104 3.68596 16.6999 12.1503
301 1 -1.1104 3.73536 19.3874 9.53894
315 1 -1.1104 9.3859 16.6244 12.2412
336 2 2.2208 13.6025 6.83255 13.6398
28 2 2.2208 13.5338 20.9507 10.8277
360 2 2.2208 10.7579 20.8229 13.6555
323 1 -1.1104 12.3614 16.7918 9.39959
324 2 2.2208 10.7779 20.7136 8.09012
332 2 2.2208 13.6814 17.9914 7.99717
319 1 -1.1104 9.39546 13.6192 9.37277
318 1 -1.1104 9.22961 19.2423 9.43977
329 1 -1.1104 12.1351 19.3957 12.2405
154 1 -1.1104 9.20316 13.8122 6.51507
320 2 2.2208 7.95519 17.886 8.06581
328 1 -1.1104 12.1976 13.8485 9.41103
327 1 -1.1104 12.0972 19.3852 9.37604
321 1 -1.1104 9.43061 19.5419 12.2715
314 1 -1.1104 9.54223 16.497 9.40175
317 2 2.2208 7.92453 15.142 10.8586
357 2 2.2208 2.23515 18.0124 13.6846
25 2 2.2208 -0.5243 -1.6725 2.37818
354 2 2.2208 8.05251 6.80478 13.708
379 2 2.2208 5.29744 6.86906 -0.496013
346 2 2.2208 10.8079 -1.64666 13.567
359 2 2.2208 5.17288 15.3776 13.6041
9026 2 2.2208 13.5324 -4.43876 13.6608
358 2 2.2208 5.15168 20.8454 13.5624
9019 2 2.2208 10.6724 -4.4289 -0.387714
364 2 2.2208 5.05599 1.18619 -0.444119
344 2 2.2208 13.6164 15.2026 -0.341133
353 2 2.2208 2.49376 12.4646 13.6799
345 2 2.2208 13.5339 20.7633 -0.408973
341 2 2.2208 5.20747 4.00935 13.6284
372 2 2.2208 8.00112 4.00949 -0.400618
375 2 2.2208 2.25586 20.8649 -0.548813
352 2 2.2208 5.13117 9.69231 13.6425
340 2 2.2208 13.6455 1.22595 13.7041
387 2 2.2208 13.6332 9.75676 -0.409628
388 2 2.2208 5.29665 1.09233 16.4878
389 1 -1.1104 1.01517 -3.01322 17.9994
390 1 -1.1104 0.936173 2.70011 17.8763
393 1 -1.1104 1.06622 -3.03065 15.1005
395 1 -1.1104 1.02731 2.68379 15.029
401 1 -1.1104 1.06778 -0.270451 17.7474
403 2 2.2208 5.32689 -1.68268 19.3056
404 2 2.2208 5.24049 3.87609 19.1453
405 1 -1.1104 0.990193 -0.160349 14.9836
409 1 -1.1104 3.85458 -2.91455 17.9572
410 1 -1.1104 3.91783 2.61767 17.7135
411 2 2.2208 2.44055 1.11776 19.1232
412 1 -1.1104 3.84352 -3.08618 15.172
414 1 -1.1104 3.85315 2.37793 15.0568
416 2 2.2208 2.40699 -1.60657 16.503
417 2 2.2208 2.41028 3.89833 16.294
418 1 -1.1104 3.85289 0.0149564 17.9561
419 1 -1.1104 3.9106 -0.306584 15.1078
415 1 -1.1104 3.81746 2.66057 20.4739
399 1 -1.1104 6.60332 2.65518 15.1033
402 1 -1.1104 6.6609 -0.374906 17.8116
407 1 -1.1104 6.69571 -0.21951 14.9941
391 1 -1.1104 6.5055 -3.02083 17.7876
406 1 -1.1104 1.02738 -0.197256 20.6984
396 1 -1.1104 1.20999 2.51664 20.6396
378 2 2.2208 13.6198 3.89801 27.727
400 1 -1.1104 6.51489 2.60136 20.5739
420 1 -1.1104 3.86466 -0.176339 20.6886
9168 2 2.2208 2.41706 -4.48003 19.2945
397 1 -1.1104 6.65645 -3.13211 15.1316
392 1 -1.1104 6.68443 2.41636 17.8351
408 1 -1.1104 6.58829 -0.236424 20.6965
431 2 2.2208 10.7935 1.17623 16.58
432 1 -1.1104 12.2287 -3.17475 17.8206
433 1 -1.1104 12.2015 2.65687 17.8776
434 1 -1.1104 12.1874 -2.99497 15.0357
436 1 -1.1104 12.1953 2.63737 15.1187
438 1 -1.1104 12.2146 -0.292295 17.9119
439 2 2.2208 10.8442 -1.64701 19.2986
440 2 2.2208 10.8876 4.06908 19.2604
441 1 -1.1104 12.3193 -0.121429 15.2404
443 1 -1.1104 9.31644 -3.00616 17.9279
444 1 -1.1104 9.45292 2.61289 17.8654
445 2 2.2208 7.99289 1.13559 19.3966
446 1 -1.1104 9.47951 -3.18569 14.9911
448 1 -1.1104 9.45026 2.57588 15.0968
450 2 2.2208 8.03594 -1.54247 16.4642
451 2 2.2208 8.01278 3.95186 16.479
452 1 -1.1104 9.45792 -0.158631 18.0576
453 1 -1.1104 9.46401 -0.186561 15.1195
435 1 -1.1104 12.2103 -3.0587 20.5438
9099 2 2.2208 7.96702 -4.49407 24.8474
626 2 2.2208 -0.515797 3.98981 24.9223
348 2 2.2208 10.7175 17.9583 27.7753
442 1 -1.1104 12.305 -0.273126 20.6514
447 1 -1.1104 9.52779 -3.04412 20.7349
437 1 -1.1104 12.2804 2.66935 20.6459
454 1 -1.1104 9.45797 -0.284037 20.894
449 1 -1.1104 9.4734 2.46596 20.6788
424 2 2.2208 -0.460353 1.34609 16.4118
426 2 2.2208 13.642 9.54195 16.4622
464 2 2.2208 5.18761 6.7646 16.3666
465 2 2.2208 5.18096 12.4305 16.4091
466 1 -1.1104 0.928493 8.29097 17.7492
468 1 -1.1104 0.919529 8.22011 14.927
472 1 -1.1104 1.05701 5.51998 17.862
473 1 -1.1104 1.05165 10.893 17.8884
476 2 2.2208 5.24329 9.5904 19.1593
477 1 -1.1104 0.911453 5.45868 14.9915
479 1 -1.1104 1.01912 11.0828 15.0229
485 1 -1.1104 3.98714 8.19963 17.8138
486 2 2.2208 2.42118 6.79331 19.1437
487 2 2.2208 2.28225 12.4169 19.21
488 1 -1.1104 3.70738 8.23075 14.9198
490 2 2.2208 2.42313 9.47239 16.2988
491 1 -1.1104 3.69588 5.40165 17.6418
492 1 -1.1104 3.86981 10.9575 17.7953
493 1 -1.1104 3.77595 5.30313 15.0073
495 1 -1.1104 3.91251 10.9469 15.0892
478 1 -1.1104 1.0669 5.36994 20.6781
480 1 -1.1104 0.898757 11.1578 20.6418
474 1 -1.1104 6.56704 5.27653 17.7463
489 1 -1.1104 3.75998 8.21665 20.5016
469 1 -1.1104 0.931103 8.41937 20.474
494 1 -1.1104 3.73325 5.41643 20.5503
467 1 -1.1104 6.61552 7.96872 17.8074
483 1 -1.1104 6.60698 11.1317 14.8917
475 1 -1.1104 6.47483 10.9255 17.7926
470 1 -1.1104 6.63473 8.15767 15.0713
484 1 -1.1104 6.67918 10.9937 20.6014
9023 2 2.2208 5.11647 -4.42209 27.6698
481 1 -1.1104 6.69587 5.42174 14.8997
500 2 2.2208 10.8721 6.77624 16.3828
501 2 2.2208 10.8221 12.4296 16.4342
502 1 -1.1104 12.1529 8.19034 17.8729
503 1 -1.1104 12.3193 8.27918 15.058
505 1 -1.1104 12.3058 5.55607 17.9337
506 1 -1.1104 12.1283 10.9317 17.7636
507 2 2.2208 10.7337 9.52375 19.1869
508 1 -1.1104 12.1567 5.45127 15.0698
510 1 -1.1104 12.1587 11.0642 15.0263
512 1 -1.1104 9.39825 8.38803 17.7496
513 2 2.2208 7.93162 6.72368 19.1908
514 2 2.2208 8.00845 12.3161 19.2659
515 1 -1.1104 9.42256 8.18348 14.8583
517 2 2.2208 7.97467 9.6991 16.4193
518 1 -1.1104 9.46864 5.47815 17.8744
519 1 -1.1104 9.33562 11.139 17.8544
520 1 -1.1104 9.48271 5.43339 15.1465
522 1 -1.1104 9.38019 10.9862 14.9899
523 1 -1.1104 9.4085 10.9261 20.5261
516 1 -1.1104 9.3381 7.96722 20.5791
377 2 2.2208 13.5428 -1.58265 27.6635
482 1 -1.1104 6.50746 5.44866 20.7836
521 1 -1.1104 9.35249 5.27776 20.6788
650 2 2.2208 13.5555 12.4115 19.1144
9169 2 2.2208 5.25911 -4.43448 16.4225
527 2 2.2208 5.17684 17.979 16.429
528 1 -1.1104 0.993778 13.8599 17.8122
529 1 -1.1104 1.0607 19.5195 17.7245
532 1 -1.1104 1.17961 13.9327 14.9943
534 1 -1.1104 1.02559 19.5102 14.9348
540 1 -1.1104 1.03178 16.7981 17.738
542 2 2.2208 5.15942 15.1385 19.2302
543 2 2.2208 5.19387 20.8317 19.2194
544 1 -1.1104 0.883605 16.7251 14.9658
548 1 -1.1104 3.67588 13.9468 17.8484
549 1 -1.1104 3.75905 19.3189 17.8575
550 2 2.2208 2.36069 18.0639 19.1673
551 1 -1.1104 3.89735 13.8049 15.144
553 1 -1.1104 3.80556 19.4346 15.0599
555 2 2.2208 2.42846 15.2977 16.3982
556 2 2.2208 2.42038 20.7495 16.373
557 1 -1.1104 3.74589 16.5604 17.7809
558 1 -1.1104 3.87372 16.7081 14.9785
531 1 -1.1104 6.47915 19.4459 17.6972
545 1 -1.1104 1.01014 16.5256 20.5655
541 1 -1.1104 6.55361 16.5535 17.6708
530 1 -1.1104 6.57795 13.7744 17.6929
546 1 -1.1104 6.56203 16.6928 14.8308
538 1 -1.1104 6.52751 19.4458 14.8582
537 1 -1.1104 6.59205 13.6854 20.6607
547 1 -1.1104 6.59936 16.6005 20.5182
539 1 -1.1104 6.61842 19.4239 20.5769
559 1 -1.1104 3.82814 16.724 20.6187
619 2 2.2208 13.6991 15.2602 16.392
618 2 2.2208 13.6465 18.0065 19.3775
536 1 -1.1104 6.61462 13.8735 15.0951
581 1 -1.1104 9.55016 19.4834 20.6464
563 2 2.2208 10.7284 18.0452 16.3572
564 1 -1.1104 12.2818 13.9056 17.7295
565 1 -1.1104 12.0526 19.3684 17.9151
566 1 -1.1104 12.2305 13.8265 15.1212
568 1 -1.1104 12.1765 19.4411 15.0805
570 1 -1.1104 12.3682 16.5806 17.8572
571 2 2.2208 10.7954 15.2495 19.2605
572 2 2.2208 10.827 20.842 19.2625
573 1 -1.1104 12.1884 16.747 15.0286
575 1 -1.1104 9.44154 13.8231 17.8941
576 1 -1.1104 9.24112 19.5344 17.6673
577 2 2.2208 7.93333 18.0722 19.068
578 1 -1.1104 9.4649 13.7692 15.1139
580 1 -1.1104 9.26994 19.4142 15.0056
582 2 2.2208 8.05643 15.176 16.4442
583 2 2.2208 7.95537 20.9163 16.3641
584 1 -1.1104 9.4015 16.6191 17.7637
585 1 -1.1104 9.37 16.4945 15.0824
574 1 -1.1104 12.1049 16.6784 20.6737
586 1 -1.1104 9.41702 16.6596 20.7032
569 1 -1.1104 12.4486 19.4768 20.6553
579 1 -1.1104 9.38574 13.8417 20.6862
460 2 2.2208 13.5433 20.8763 16.563
413 1 -1.1104 3.73874 -3.02852 20.6551
394 1 -1.1104 0.913191 -3.02262 20.5813
591 2 2.2208 5.20038 1.3469 22.0196
592 1 -1.1104 1.03377 -3.00756 23.4217
593 1 -1.1104 0.916414 2.75663 23.4816
596 1 -1.1104 0.918138 -2.97746 26.2501
597 1 -1.1104 0.944664 2.55272 26.3458
600 1 -1.1104 0.985022 -0.0532548 23.4815
602 2 2.2208 5.22198 -1.63418 24.9621
603 2 2.2208 5.11458 3.93565 24.9194
604 1 -1.1104 0.827665 -0.277179 26.2616
606 1 -1.1104 3.77278 -2.89003 23.6263
607 1 -1.1104 3.7455 2.62319 23.4514
608 2 2.2208 2.38389 1.24057 24.7955
609 1 -1.1104 3.78035 -3.08472 26.3888
610 1 -1.1104 3.7942 2.55272 26.3281
611 2 2.2208 2.53426 -1.59348 22.0056
612 2 2.2208 2.35484 4.0154 21.939
613 1 -1.1104 3.95523 -0.135925 23.4907
614 1 -1.1104 3.54539 -0.255774 26.3381
457 2 2.2208 -0.485097 15.2461 19.2359
595 1 -1.1104 6.65018 2.5437 23.4023
598 1 -1.1104 6.53871 -2.97144 26.4329
349 2 2.2208 8.00682 20.8352 27.7602
712 1 -1.1104 6.57426 13.7913 26.2735
497 1 -1.1104 12.2292 19.4327 23.5545
526 2 2.2208 10.5641 20.7441 24.9727
9103 2 2.2208 5.23663 -4.33264 22.081
398 1 -1.1104 6.63089 -3.03894 20.7476
653 2 2.2208 13.6379 -1.69016 21.9462
351 2 2.2208 2.2122 6.80155 13.4831
366 2 2.2208 2.43543 3.95472 27.7291
616 2 2.2208 7.94767 20.9155 21.9655
380 2 2.2208 2.40577 9.5114 27.6779
599 1 -1.1104 6.49137 2.6557 26.2819
605 1 -1.1104 6.52872 -0.214361 26.4283
601 1 -1.1104 6.62098 -0.21944 23.6183
594 1 -1.1104 6.60988 -3.02842 23.522
627 2 2.2208 10.8828 1.14569 22.1768
628 1 -1.1104 12.2549 -2.95263 23.5268
629 1 -1.1104 12.2347 2.56659 23.4308
630 1 -1.1104 12.1606 -3.01694 26.3407
631 1 -1.1104 12.3333 2.56293 26.238
632 1 -1.1104 12.2058 -0.260888 23.4162
633 2 2.2208 10.7678 -1.61046 24.8493
634 2 2.2208 10.8755 4.04879 24.9013
635 1 -1.1104 12.0559 -0.369446 26.2978
636 1 -1.1104 9.42496 -3.00287 23.4504
637 1 -1.1104 9.38915 2.71589 23.5332
638 2 2.2208 8.05129 1.17781 25.1462
639 1 -1.1104 9.34693 -2.94229 26.2456
640 1 -1.1104 9.50782 2.57449 26.3179
641 2 2.2208 7.95593 -1.56414 22.177
642 2 2.2208 8.01891 4.06271 22.093
643 1 -1.1104 9.37814 -0.137137 23.6571
644 1 -1.1104 9.28783 -0.257693 26.3531
369 2 2.2208 10.8938 1.14238 27.7297
710 2 2.2208 13.6462 6.76068 24.8476
374 2 2.2208 5.11264 17.932 27.6279
590 1 -1.1104 9.22172 19.3927 26.4901
429 2 2.2208 13.6284 3.95975 16.5585
496 1 -1.1104 3.80903 10.9299 20.556
471 1 -1.1104 6.63754 8.19036 20.5225
656 2 2.2208 5.15334 6.77923 22.0021
657 2 2.2208 5.17574 12.3424 21.9866
658 1 -1.1104 0.976737 8.26694 23.2106
660 1 -1.1104 1.10673 8.20943 26.2243
662 1 -1.1104 1.02909 5.58774 23.5798
663 1 -1.1104 1.00467 11.0764 23.5241
666 2 2.2208 5.16984 9.56535 24.9075
667 1 -1.1104 0.882954 5.48672 26.3537
668 1 -1.1104 0.974632 10.9261 26.4109
671 1 -1.1104 3.8375 8.22311 23.3479
672 2 2.2208 2.44731 6.77696 24.8472
673 2 2.2208 2.36219 12.3034 24.9266
674 1 -1.1104 3.85427 8.15472 26.3439
675 2 2.2208 2.48418 9.62592 22.0392
676 1 -1.1104 3.80256 5.40446 23.3623
677 1 -1.1104 3.8005 10.8389 23.4209
678 1 -1.1104 3.77617 5.38379 26.2077
679 1 -1.1104 3.74772 10.9595 26.2401
670 1 -1.1104 6.54853 10.9955 26.3196
664 1 -1.1104 6.52276 5.4165 23.4951
659 1 -1.1104 6.71521 8.12163 23.4554
587 2 2.2208 8.02854 18.0024 24.8201
665 1 -1.1104 6.46762 11.0055 23.4438
661 1 -1.1104 6.64059 8.26287 26.2792
422 2 2.2208 13.5317 9.55263 22.0974
708 2 2.2208 13.4081 12.5159 24.9046
384 2 2.2208 10.7784 6.90115 27.6377
509 1 -1.1104 12.3255 5.32594 20.8208
504 1 -1.1104 12.1961 8.17266 20.6603
669 1 -1.1104 6.5626 5.35823 26.2322
511 1 -1.1104 12.2543 11.0193 20.6856
687 1 -1.1104 9.38431 10.9604 26.2663
688 1 -1.1104 9.44942 5.41367 26.266
689 1 -1.1104 9.36632 10.9701 23.4762
690 1 -1.1104 9.55452 5.42313 23.3187
691 2 2.2208 7.99091 9.70094 21.9768
692 1 -1.1104 9.41578 8.20032 26.2104
693 2 2.2208 7.90174 12.3866 24.8531
694 2 2.2208 8.04743 6.79802 24.6987
695 2 2.2208 10.8799 6.76409 21.9639
696 2 2.2208 10.7473 12.4101 21.9685
697 1 -1.1104 12.0508 8.10701 23.5709
698 1 -1.1104 12.4064 8.28619 26.2611
699 1 -1.1104 12.3391 5.38468 23.4655
700 1 -1.1104 12.1329 10.9359 23.3792
701 2 2.2208 10.8108 9.61163 24.8632
702 1 -1.1104 12.2265 5.42964 26.3703
703 1 -1.1104 12.1734 11.02 26.2741
704 1 -1.1104 9.52661 8.16972 23.3685
386 2 2.2208 10.7414 12.4164 27.7258
620 1 -1.1104 9.27947 16.5313 26.2341
562 1 -1.1104 9.48413 19.3126 23.3721
385 2 2.2208 8.10125 9.59591 27.7897
718 1 -1.1104 6.65434 19.4048 23.3966
589 1 -1.1104 9.31291 13.7921 26.399
533 1 -1.1104 0.804839 13.8924 20.7822
554 1 -1.1104 3.76607 19.5325 20.5691
535 1 -1.1104 1.05821 19.2699 20.5955
552 1 -1.1104 3.85549 13.8892 20.6585
717 1 -1.1104 0.94484 13.8153 26.2364
719 2 2.2208 5.15188 20.7553 24.8737
716 1 -1.1104 0.985144 16.6575 26.314
715 1 -1.1104 0.79231 19.4042 26.1417
720 2 2.2208 5.15585 15.0835 24.8453
647 2 2.2208 2.39089 15.2764 21.9705
649 2 2.2208 2.31752 20.8109 21.9608
652 1 -1.1104 3.78251 16.4888 23.4859
655 1 -1.1104 0.915805 16.5685 23.5422
681 1 -1.1104 3.65421 13.7504 26.3275
682 1 -1.1104 3.75488 16.4875 26.2428
683 2 2.2208 2.31125 17.9325 24.9083
686 1 -1.1104 3.67778 19.3652 26.3262
705 2 2.2208 5.17459 18.1028 22.0376
706 1 -1.1104 1.08564 13.7746 23.5743
707 1 -1.1104 1.0813 19.4851 23.3632
711 1 -1.1104 3.7174 19.347 23.5014
713 1 -1.1104 3.80192 13.6521 23.5558
588 1 -1.1104 6.54393 19.4469 26.1873
680 1 -1.1104 6.60544 16.6907 23.5699
714 1 -1.1104 6.5234 16.6486 26.2958
709 1 -1.1104 6.59253 13.8691 23.4194
617 1 -1.1104 9.46857 16.5201 23.4364
347 2 2.2208 7.87084 15.2401 27.558
524 1 -1.1104 12.3552 16.5987 23.5004
498 1 -1.1104 12.1672 13.8435 26.2653
561 1 -1.1104 9.28379 13.8176 23.4342
651 2 2.2208 13.6295 6.82389 19.3161
459 2 2.2208 13.5927 -1.61611 16.5956
455 2 2.2208 13.656 17.963 24.8374
567 1 -1.1104 12.1333 13.884 20.5297
463 1 -1.1104 12.1186 13.8644 23.2906
430 2 2.2208 13.6391 15.1234 22.0106
560 1 -1.1104 12.1018 16.538 26.3712
615 2 2.2208 7.98617 15.2484 22.006
462 2 2.2208 10.8937 18.0292 22.1677
499 1 -1.1104 12.0408 19.3612 26.3093
525 2 2.2208 10.6605 15.2401 24.8933
373 2 2.2208 2.40024 15.0916 27.6716
381 2 2.2208 5.08185 12.4058 27.7024
362 2 2.2208 8.00001 18.0789 13.3905
365 2 2.2208 2.18337 -1.58077 27.7627
370 2 2.2208 7.88203 -1.68516 27.7338
9027 2 2.2208 8.00802 -4.44729 13.5927
338 2 2.2208 5.21679 -1.62107 13.6643
721 2 2.2208 4.99378 23.7492 5.27634
722 2 2.2208 5.07658 29.3224 5.13239
723 1 -1.1104 0.785903 25.1725 0.92474
724 1 -1.1104 0.832049 24.9615 3.97843
725 1 -1.1104 0.951751 22.2113 0.954767
726 1 -1.1104 0.96558 27.9863 0.932621
727 2 2.2208 5.10281 26.579 2.47571
728 1 -1.1104 1.0855 22.0287 3.86076
729 1 -1.1104 0.960376 27.788 3.61321
730 1 -1.1104 3.70838 25.1596 0.968591
731 2 2.2208 2.28392 23.7134 2.49436
732 2 2.2208 2.41751 29.2583 2.38417
733 1 -1.1104 3.6168 25.1234 3.82749
734 2 2.2208 2.24653 26.4261 5.2295
735 1 -1.1104 3.67291 22.4062 1.04426
736 1 -1.1104 3.78398 27.91 1.08989
737 1 -1.1104 3.74592 22.234 3.88923
738 1 -1.1104 3.64735 28.0494 3.91318
862 1 -1.1104 1.07251 24.9909 6.67943
868 1 -1.1104 3.7109 25.1341 6.7045
1026 1 -1.1104 9.40956 44.6446 6.72375
866 1 -1.1104 6.43464 22.0485 6.60251
746 1 -1.1104 6.53802 22.1098 3.94158
745 1 -1.1104 6.52085 27.8546 1.0733
743 1 -1.1104 6.4392 24.9663 3.82625
744 1 -1.1104 6.55931 22.3255 1.07638
1640 1 -1.1104 9.49766 47.5422 6.7524
870 1 -1.1104 3.71475 27.8171 6.72108
869 1 -1.1104 3.66787 22.2619 6.62148
867 1 -1.1104 6.50401 27.7264 6.48016
747 1 -1.1104 6.49529 27.858 3.72921
742 1 -1.1104 6.50954 25.0404 0.973871
748 2 2.2208 10.7359 23.6408 5.15889
749 2 2.2208 10.6004 29.1148 5.17599
750 1 -1.1104 12.1288 25.187 1.12908
751 1 -1.1104 12.0051 25.0604 3.77381
752 1 -1.1104 12.2219 22.1639 0.834856
753 1 -1.1104 12.322 27.9903 0.939762
754 2 2.2208 10.6665 26.4295 2.40208
755 1 -1.1104 12.091 22.168 3.77528
756 1 -1.1104 12.0763 27.7558 3.60002
757 1 -1.1104 9.31432 24.9207 0.850996
758 2 2.2208 7.84338 23.678 2.3818
759 2 2.2208 7.95746 29.3078 2.24297
760 1 -1.1104 9.14105 25.0366 3.83757
761 2 2.2208 7.87679 26.4213 5.14082
762 1 -1.1104 9.38769 22.1289 0.888315
763 1 -1.1104 9.38258 27.7461 0.892941
764 1 -1.1104 9.29704 22.3271 3.75375
765 1 -1.1104 9.27558 27.7634 3.67445
897 1 -1.1104 12.0075 27.7033 6.4132
898 1 -1.1104 9.42431 24.8933 6.5666
895 1 -1.1104 12.2005 25.0632 6.55794
896 1 -1.1104 12.2865 22.2906 6.70324
840 2 2.2208 -0.302171 46.1168 5.29875
900 1 -1.1104 9.38161 27.6867 6.51788
1646 1 -1.1104 12.2391 47.4612 12.2733
1032 2 2.2208 13.756 37.4772 5.28269
769 2 2.2208 5.01947 34.8878 5.17285
770 1 -1.1104 0.959971 30.7835 1.05123
771 1 -1.1104 0.941353 36.1451 1.13804
773 1 -1.1104 0.941758 30.5283 3.83316
774 1 -1.1104 0.96777 36.1858 3.92427
776 1 -1.1104 1.01009 33.4438 0.996923
777 2 2.2208 5.14485 32.019 2.3576
778 2 2.2208 5.08219 37.6846 2.42404
779 1 -1.1104 0.887551 33.4494 3.6555
781 1 -1.1104 3.86427 30.6389 0.938243
782 1 -1.1104 3.74423 36.159 0.993645
783 2 2.2208 2.35996 34.784 2.44299
784 1 -1.1104 3.80724 30.7106 3.74231
785 1 -1.1104 3.80969 36.3726 3.78235
786 2 2.2208 2.30896 32.0008 5.11717
787 2 2.2208 2.35038 37.6314 5.28317
788 1 -1.1104 3.808 33.4757 0.913044
789 1 -1.1104 3.6345 33.326 3.8329
793 1 -1.1104 6.61297 30.7084 1.00454
925 1 -1.1104 3.62083 30.6171 6.37333
922 1 -1.1104 6.56614 36.0776 6.56644
923 1 -1.1104 0.794846 33.4939 6.58015
924 1 -1.1104 6.48305 33.3598 6.43581
775 1 -1.1104 6.50189 36.258 3.81667
794 1 -1.1104 6.56507 30.583 3.71943
10377 2 2.2208 13.5221 40.2318 8.21208
1013 1 -1.1104 9.3442 41.8716 9.20845
1017 1 -1.1104 12.1662 44.7558 9.58209
990 1 -1.1104 6.46236 38.9285 6.54865
920 1 -1.1104 0.96498 36.3575 6.71232
921 1 -1.1104 6.33236 30.5936 6.61476
919 1 -1.1104 0.945189 30.7284 6.58906
1023 1 -1.1104 12.2662 44.6666 6.63478
10406 3 0 13.9481 29.8905 13.5656
1614 1 -1.1104 0.978619 47.5472 9.48087
1029 2 2.2208 10.7959 46.1139 10.8839
795 1 -1.1104 6.72819 33.4118 0.775163
780 1 -1.1104 6.46756 33.5588 3.69868
772 1 -1.1104 6.4992 36.2684 1.09359
796 2 2.2208 10.8962 34.9086 5.16058
797 1 -1.1104 12.2012 30.7341 0.932148