ITEM: TIMESTEP
70000
ITEM: NUMBER OF ATOMS
17730
ITEM: BOX BOUNDS pp pp pp
-3.6473383520299840e-01 2.7704733835202862e+01
-4.3305583407493993e+00 3.3241055834075479e+02
-3.6650371932759190e-01 2.7706503719327138e+01
ITEM: ATOMS id type q x y z
1 2 2.2208 5.43836 1.11184 5.33054
2 1 -1.1104 1.04137 -2.90611 1.14005
3 1 -1.1104 1.08895 2.75013 1.00737
6 1 -1.1104 1.127 -3.05968 3.89396
7 1 -1.1104 1.23591 2.71677 3.91662
10 1 -1.1104 1.40813 -0.112417 1.04202
12 2 2.2208 5.31871 -1.6034 2.48504
14 1 -1.1104 1.05859 -0.198125 3.70551
16 1 -1.1104 3.849 -2.9641 1.13296
17 1 -1.1104 3.98153 2.82381 1.12705
18 2 2.2208 2.66698 1.26442 2.5971
19 1 -1.1104 4.09561 -2.93735 3.82697
20 1 -1.1104 3.99817 2.70401 3.86811
21 2 2.2208 2.52628 -1.6378 5.1886
23 1 -1.1104 4.0856 0.00870373 1.20324
24 1 -1.1104 3.94117 -0.0736404 3.95248
22 2 2.2208 2.67188 4.06329 5.28767
13 2 2.2208 5.36943 4.00839 2.60926
166 1 -1.1104 1.20116 -2.88437 6.58177
25 2 2.2208 -0.279914 -1.59433 2.42402
9014 2 2.2208 10.9704 -4.27289 10.8899
173 1 -1.1104 3.99053 2.64626 6.67188
167 1 -1.1104 1.27301 2.77794 6.57733
26 2 2.2208 -0.168093 1.27755 5.1978
365 2 2.2208 2.57973 -1.47697 -0.348985
9006 2 2.2208 -0.236377 -4.26031 5.28452
9 1 -1.1104 6.76904 2.45331 4.02633
4 1 -1.1104 6.7091 -2.94009 1.1477
15 1 -1.1104 6.90958 -0.14277 3.83148
8 1 -1.1104 6.85521 -2.94922 3.80729
11 1 -1.1104 6.86665 -0.0554425 1.00651
5 1 -1.1104 6.84512 2.87411 1.20481
31 2 2.2208 10.9976 1.2653 5.4762
32 1 -1.1104 12.3873 -2.77999 1.13172
33 1 -1.1104 12.2696 2.6104 1.06602
34 1 -1.1104 12.5231 -2.91985 3.9373
35 1 -1.1104 12.3949 2.43744 3.81772
36 1 -1.1104 12.4138 -0.134125 1.08364
37 2 2.2208 10.8535 -1.56812 2.59673
38 2 2.2208 10.9812 3.98613 2.53955
39 1 -1.1104 12.2968 -0.154175 3.95182
40 1 -1.1104 9.52178 -2.93421 1.08347
41 1 -1.1104 9.56068 2.76174 1.19162
42 2 2.2208 8.25458 1.288 2.52814
43 1 -1.1104 9.44784 -3.11691 3.92095
44 1 -1.1104 9.60026 2.75284 3.95088
45 2 2.2208 8.13735 -1.56882 5.35062
46 2 2.2208 8.25911 4.02271 5.21607
47 1 -1.1104 9.70899 -0.237721 1.20537
48 1 -1.1104 9.6458 -0.161924 4.08581
207 1 -1.1104 12.3367 -0.171174 6.71346
208 1 -1.1104 9.54584 -2.81397 6.73283
205 1 -1.1104 12.4395 -2.99683 6.85044
171 1 -1.1104 6.78581 -0.202045 6.78399
168 1 -1.1104 6.71915 -3.04125 6.71378
169 1 -1.1104 6.90593 2.80581 6.66006
328 1 -1.1104 12.3484 13.9285 9.39223
81 2 2.2208 -0.120802 6.83162 5.32326
54 2 2.2208 5.44858 6.93351 5.33568
55 2 2.2208 5.32589 12.5846 5.38267
56 1 -1.1104 0.957742 8.39055 1.2082
58 1 -1.1104 1.24139 8.32669 4.04293
60 1 -1.1104 1.16155 5.50956 1.09478
61 1 -1.1104 1.18615 11.3056 1.10889
66 2 2.2208 5.21135 9.74249 2.463
67 1 -1.1104 1.25397 5.50388 3.75271
68 1 -1.1104 1.10957 11.1132 3.96779
71 1 -1.1104 3.811 8.27844 1.17973
72 2 2.2208 2.60735 6.93281 2.5458
73 2 2.2208 2.5982 12.5478 2.4705
74 1 -1.1104 4.09338 8.32836 3.9104
75 2 2.2208 2.60945 9.80657 5.34529
76 1 -1.1104 3.95619 5.40801 1.13798
77 1 -1.1104 3.84795 11.0634 0.899445
79 1 -1.1104 4.17742 5.521 3.96737
80 1 -1.1104 3.79458 11.1817 3.8724
62 1 -1.1104 1.09393 11.2114 6.71877
236 1 -1.1104 1.24557 5.59412 6.59257
82 2 2.2208 -0.177532 9.79061 2.6015
83 2 2.2208 -0.264326 12.5229 5.32446
234 1 -1.1104 1.06963 8.39335 6.79258
319 1 -1.1104 9.51462 14.0025 9.47366
63 1 -1.1104 6.66198 5.5123 1.17506
57 1 -1.1104 6.63366 8.217 1.07112
59 1 -1.1104 6.70032 8.30283 3.83983
64 1 -1.1104 6.6313 11.1161 1.06601
69 1 -1.1104 6.80486 5.58406 3.96214
70 1 -1.1104 6.65376 11.2112 3.96379
235 1 -1.1104 6.96389 8.36101 6.59598
84 2 2.2208 10.9744 6.85438 5.33785
85 2 2.2208 10.865 12.5222 5.2685
86 1 -1.1104 12.2162 8.31911 1.11652
87 1 -1.1104 12.3648 8.23681 3.94169
88 1 -1.1104 12.3348 5.44094 1.28453
89 1 -1.1104 12.34 11.0315 1.1527
91 2 2.2208 10.893 9.55132 2.61101
92 1 -1.1104 12.4473 5.24171 3.98883
93 1 -1.1104 12.0733 11.1249 3.92448
94 1 -1.1104 9.33707 8.3543 1.2764
95 2 2.2208 8.07122 6.9481 2.53807
96 2 2.2208 8.03444 12.5607 2.36255
97 1 -1.1104 9.52707 8.3289 3.97117
98 2 2.2208 8.13884 9.80218 5.19279
99 1 -1.1104 9.4318 5.60316 0.973196
100 1 -1.1104 9.47732 11.2529 1.00331
102 1 -1.1104 9.5789 5.4784 3.87264
103 1 -1.1104 9.47602 11.0474 3.89356
266 1 -1.1104 12.347 5.61007 6.74818
101 1 -1.1104 9.58104 11.1527 6.61694
267 1 -1.1104 9.71366 8.2625 6.70884
237 1 -1.1104 6.81206 5.63371 6.73272
65 1 -1.1104 6.75843 11.161 6.74847
90 1 -1.1104 12.4273 11.2372 6.71158
362 2 2.2208 8.11884 18.0549 13.6358
317 2 2.2208 8.07851 15.4205 10.7995
290 1 -1.1104 6.65711 13.8776 9.35
386 2 2.2208 10.8862 12.4352 -0.268244
335 2 2.2208 -0.313852 20.94 13.5293
106 2 2.2208 5.19343 18.1017 5.32967
107 1 -1.1104 1.11421 13.919 1.08803
109 1 -1.1104 1.15616 19.4171 1.02806
113 1 -1.1104 1.14517 13.8818 3.91091
114 1 -1.1104 1.32043 19.6014 3.71973
116 1 -1.1104 1.0449 16.5625 1.05784
119 2 2.2208 5.24794 15.3883 2.42277
120 2 2.2208 5.31532 20.8855 2.46391
121 1 -1.1104 1.1979 16.6823 3.75764
123 1 -1.1104 3.86114 13.9906 0.952255
125 1 -1.1104 3.95564 19.5997 0.973803
127 2 2.2208 2.60119 18.093 2.4398
128 1 -1.1104 3.84329 13.9304 3.88407
129 1 -1.1104 4.01417 19.4719 3.86891
130 2 2.2208 2.50732 15.3316 5.27601
131 2 2.2208 2.57214 20.977 5.11754
132 1 -1.1104 3.93613 16.7697 1.10863
134 1 -1.1104 3.9968 16.6876 3.89168
302 1 -1.1104 1.00448 19.408 6.44823
29 2 2.2208 -0.277494 6.9603 10.8073
133 1 -1.1104 3.79321 16.6533 6.62874
110 1 -1.1104 6.65812 13.9008 0.984413
108 1 -1.1104 1.08472 14.1368 6.78269
124 1 -1.1104 3.86613 13.8851 6.84326
203 2 2.2208 13.6603 4.0146 10.7417
357 2 2.2208 2.39123 18.0619 13.5895
136 2 2.2208 -0.20469 20.9488 2.35613
138 1 -1.1104 6.65589 19.5427 1.01833
115 1 -1.1104 6.58149 13.9071 3.70234
139 1 -1.1104 6.73154 19.5448 3.79008
122 1 -1.1104 6.68058 16.8584 4.03308
140 1 -1.1104 6.6476 16.6839 1.20071
141 2 2.2208 10.9303 18.0691 5.15854
142 1 -1.1104 12.2256 13.7601 1.07229
144 1 -1.1104 12.1882 19.4027 0.989276
146 1 -1.1104 12.3418 13.838 3.76818
147 1 -1.1104 12.4077 19.5515 3.76933
148 1 -1.1104 12.3158 16.5501 1.04412
150 2 2.2208 10.8513 15.1429 2.40006
151 2 2.2208 10.7978 20.8701 2.43108
152 1 -1.1104 12.3196 16.7536 3.69949
153 1 -1.1104 9.43565 13.8194 1.0207
155 1 -1.1104 9.28966 19.6209 1.07432
157 2 2.2208 7.95906 18.1857 2.4631
158 1 -1.1104 9.37646 13.8348 3.93003
159 1 -1.1104 9.53675 19.4802 3.85871
160 2 2.2208 7.98855 15.3044 5.23448
161 2 2.2208 8.1537 20.8806 5.27694
162 1 -1.1104 9.51567 16.7382 0.773967
164 1 -1.1104 9.54252 16.7491 3.70937
154 1 -1.1104 9.51248 13.914 6.54942
163 1 -1.1104 9.3301 16.6216 6.57292
111 1 -1.1104 6.74143 14.0455 6.63441
112 1 -1.1104 6.77018 19.6229 6.64945
118 1 -1.1104 6.57059 17.0029 6.76171
145 1 -1.1104 12.2353 19.374 6.49713
172 1 -1.1104 4.06981 -2.86213 6.63576
331 2 2.2208 11.0366 18.1248 10.8706
174 1 -1.1104 4.0643 -0.119634 6.73126
170 1 -1.1104 1.28541 -0.031627 6.85867
175 2 2.2208 5.36043 1.22056 11.0119
176 1 -1.1104 1.19223 -2.83053 12.3024
177 1 -1.1104 1.23672 2.77918 12.3263
180 1 -1.1104 1.20946 -2.98009 9.504
181 1 -1.1104 1.1022 2.61546 9.50542
184 1 -1.1104 1.1537 -0.0603909 12.2169
186 2 2.2208 5.21986 -1.49956 8.24051
188 1 -1.1104 1.17931 -0.205813 9.53915
190 1 -1.1104 4.02852 -3.04689 12.3067
191 1 -1.1104 3.86914 2.67164 12.1936
192 2 2.2208 2.5517 1.36806 8.142
193 1 -1.1104 3.9347 -2.99711 9.52903
194 1 -1.1104 3.82852 2.70916 9.4673
195 2 2.2208 2.60892 -1.64318 10.9364
196 2 2.2208 2.62681 4.08428 10.9538
197 1 -1.1104 3.91011 -0.13506 12.4212
198 1 -1.1104 3.99607 -0.262862 9.5946
187 2 2.2208 5.35878 4.16986 8.07258
199 2 2.2208 -0.286288 4.03895 8.13739
201 2 2.2208 -0.18091 1.29873 10.8819
200 2 2.2208 -0.258348 -1.60314 8.08057
358 2 2.2208 5.31506 20.9662 13.6309
325 2 2.2208 10.9373 15.3112 8.01362
360 2 2.2208 10.9258 20.844 13.5415
206 1 -1.1104 12.4794 2.68126 6.69729
209 1 -1.1104 9.652 2.70931 6.76644
210 1 -1.1104 9.62766 -0.0359921 6.74141
183 1 -1.1104 6.48934 2.77337 9.54995
189 1 -1.1104 6.86998 -0.048354 9.54202
182 1 -1.1104 6.70922 -2.85653 9.55124
178 1 -1.1104 6.77974 -2.83361 12.2751
185 1 -1.1104 6.71503 -0.021166 12.3544
179 1 -1.1104 6.65448 2.69105 12.441
211 2 2.2208 10.8763 1.23741 10.9105
212 1 -1.1104 12.4405 -3.00681 12.3673
213 1 -1.1104 12.2183 2.49545 12.2857
214 1 -1.1104 12.4192 -2.90528 9.66482
215 1 -1.1104 12.3891 2.69013 9.36816
216 1 -1.1104 12.2448 -0.163155 12.2239
217 2 2.2208 10.9291 -1.53724 8.18574
218 2 2.2208 10.8926 4.17787 8.1935
219 1 -1.1104 12.2808 -0.0335578 9.57019
220 1 -1.1104 9.69965 -2.72288 12.272
221 1 -1.1104 9.49119 2.54052 12.4481
222 2 2.2208 8.17516 1.35595 8.07822
223 1 -1.1104 9.57507 -2.86207 9.46219
224 1 -1.1104 9.48603 2.84663 9.58191
225 2 2.2208 8.06318 -1.43097 10.8958
226 2 2.2208 8.08155 4.22099 11.0335
227 1 -1.1104 9.40047 -0.071827 12.4928
228 1 -1.1104 9.53393 -0.0161003 9.56184
27 2 2.2208 -0.200924 4.13273 2.46099
165 2 2.2208 13.5827 18.1848 2.41534
238 1 -1.1104 4.07475 8.32489 6.62623
239 1 -1.1104 3.87063 5.45288 6.77809
78 1 -1.1104 3.85991 11.1891 6.73863
314 1 -1.1104 9.70938 16.8498 9.31872
30 2 2.2208 -0.311377 9.72651 8.13505
240 2 2.2208 5.2794 6.90797 10.838
241 2 2.2208 5.27646 12.4324 10.8896
242 1 -1.1104 1.03809 8.31741 12.2137
244 1 -1.1104 1.10927 8.19675 9.47118
246 1 -1.1104 0.970404 5.54666 12.15
247 1 -1.1104 0.962372 11.1508 12.2931
250 2 2.2208 5.32435 9.71289 8.08426
251 1 -1.1104 1.15287 5.43788 9.34999
252 1 -1.1104 1.04418 11.1417 9.52846
255 1 -1.1104 3.82267 8.53584 12.4859
256 2 2.2208 2.5121 6.82215 7.96116
257 2 2.2208 2.45542 12.4895 8.19066
258 1 -1.1104 3.74923 8.28877 9.5031
259 2 2.2208 2.55249 9.68089 10.892
260 1 -1.1104 3.88351 5.55736 12.3236
261 1 -1.1104 3.76187 11.1544 12.2845
262 1 -1.1104 3.86751 5.50087 9.49111
263 1 -1.1104 3.87225 10.988 9.47457
379 2 2.2208 5.23841 6.88139 -0.293928
364 2 2.2208 5.44018 1.3283 -0.294125
297 1 -1.1104 6.69687 14.0116 12.2404
311 2 2.2208 -0.274549 20.9452 8.17874
323 1 -1.1104 12.4703 16.6959 9.43371
269 1 -1.1104 9.50134 5.45975 6.74626
249 1 -1.1104 6.52557 11.1225 12.357
253 1 -1.1104 6.72082 5.50695 9.56692
245 1 -1.1104 6.72292 8.30366 9.38709
248 1 -1.1104 6.58545 5.52752 12.3806
243 1 -1.1104 6.54546 8.32352 12.27
254 1 -1.1104 6.63708 11.1967 9.49399
265 1 -1.1104 12.476 8.42448 6.56654
264 1 -1.1104 9.38491 11.2129 9.37124
268 1 -1.1104 9.58652 5.51467 9.6512
270 1 -1.1104 9.38992 11.0444 12.2216
271 1 -1.1104 9.52116 5.60801 12.3377
272 2 2.2208 8.04565 9.74186 10.824
273 1 -1.1104 9.64432 8.39803 9.48796
274 2 2.2208 8.1875 12.5699 8.0243
275 2 2.2208 8.36451 6.92699 7.99885
276 2 2.2208 10.9189 6.9324 10.9335
277 2 2.2208 10.9404 12.5592 10.8841
278 1 -1.1104 12.3399 8.28733 12.3102
279 1 -1.1104 12.2794 8.15327 9.41822
280 1 -1.1104 12.3141 5.2893 12.3212
281 1 -1.1104 12.1629 11.1775 12.2865
282 2 2.2208 10.9041 9.77602 8.03402
283 1 -1.1104 12.2753 5.43373 9.44051
284 1 -1.1104 12.1852 11.0987 9.60663
285 1 -1.1104 9.48904 8.2559 12.3064
361 2 2.2208 10.9158 15.3479 13.5989
384 2 2.2208 11.0284 6.87522 -0.307171
368 2 2.2208 -0.307198 1.27367 -0.209539
126 1 -1.1104 3.8974 19.5127 6.75654
117 1 -1.1104 1.10938 16.8332 6.66111
296 1 -1.1104 6.62576 19.4352 12.38
312 2 2.2208 -0.207015 18.0944 10.7338
322 1 -1.1104 9.47176 13.9497 12.2409
304 1 -1.1104 3.99838 16.8595 9.39777
303 2 2.2208 2.54149 18.1782 7.95611
294 1 -1.1104 0.929923 14.0253 9.53337
292 1 -1.1104 1.08332 16.6934 9.45771
291 1 -1.1104 1.16814 19.6212 9.33314
287 1 -1.1104 3.94783 13.8359 12.1983
286 1 -1.1104 3.95049 19.4995 12.2064
293 2 2.2208 5.30947 20.9288 8.04148
309 2 2.2208 2.53827 20.9461 10.79
299 1 -1.1104 1.15487 13.9374 12.3905
298 1 -1.1104 1.15703 19.5626 12.1362
310 2 2.2208 2.40721 15.3937 10.8379
295 2 2.2208 5.27464 15.3539 8.1475
308 1 -1.1104 3.81743 16.5937 12.114
301 1 -1.1104 4.06193 19.6839 9.51849
300 2 2.2208 5.39302 18.0708 10.8994
307 1 -1.1104 1.02484 16.7914 12.3485
305 1 -1.1104 3.86753 13.8778 9.507
289 1 -1.1104 6.6885 16.6774 9.50709
329 1 -1.1104 12.4291 19.5041 12.3257
330 1 -1.1104 12.2169 13.9444 12.1954
318 1 -1.1104 9.6422 19.4755 9.53919
316 2 2.2208 8.11597 20.8544 10.9451
306 1 -1.1104 6.53299 16.7467 12.3164
320 2 2.2208 8.15053 18.1417 8.14844
315 1 -1.1104 9.55084 16.6967 12.1699
326 1 -1.1104 12.4326 16.7597 12.2289
324 2 2.2208 10.9711 20.875 8.11101
321 1 -1.1104 9.50969 19.3465 12.0618
156 1 -1.1104 9.49975 19.4568 6.73002
149 1 -1.1104 12.2224 16.6376 6.48697
143 1 -1.1104 12.3268 13.9391 6.59664
327 1 -1.1104 12.4256 19.5293 9.31831
288 1 -1.1104 6.71995 19.456 9.50801
370 2 2.2208 8.22192 -1.51351 -0.288663
51 2 2.2208 -0.265193 12.5323 11.0047
373 2 2.2208 2.50854 15.2684 -0.253362
336 2 2.2208 13.6375 6.82954 13.6113
369 2 2.2208 10.9024 1.23119 -0.185681
359 2 2.2208 5.2196 15.2823 13.6325
356 2 2.2208 8.13634 12.6038 13.6213
347 2 2.2208 8.08806 15.2456 -0.305461
372 2 2.2208 8.07866 4.15437 -0.271283
374 2 2.2208 5.41233 18.0932 -0.34151
383 2 2.2208 -0.212664 6.91759 -0.217332
337 2 2.2208 -0.267257 4.12484 13.6128
388 2 2.2208 5.30667 1.30937 16.6534
389 1 -1.1104 1.16228 -2.91147 17.9505
390 1 -1.1104 1.09191 2.74011 17.9704
393 1 -1.1104 1.07893 -2.71235 15.1801
395 1 -1.1104 1.12148 2.79802 14.9936
401 1 -1.1104 1.11591 -0.0621233 17.8949
403 2 2.2208 5.32518 -1.55255 19.4111
404 2 2.2208 5.38386 4.24153 19.3526
405 1 -1.1104 1.42131 -0.0468965 15.1011
409 1 -1.1104 3.93032 -2.8016 17.8131
410 1 -1.1104 3.98842 2.70426 17.9578
411 2 2.2208 2.50108 1.35544 19.3462
412 1 -1.1104 3.87325 -2.86897 15.0643
414 1 -1.1104 3.95274 2.70337 15.0908
416 2 2.2208 2.60309 -1.41956 16.5234
417 2 2.2208 2.66439 4.22681 16.4771
418 1 -1.1104 3.96107 -0.189798 18.0103
419 1 -1.1104 4.12031 -0.0436474 15.1062
425 2 2.2208 -0.153649 -1.44874 19.3527
424 2 2.2208 -0.144684 1.31146 16.3995
420 1 -1.1104 4.02424 -0.130246 20.6401
406 1 -1.1104 1.1454 -0.0423471 20.6958
427 2 2.2208 -0.330236 4.11444 19.3566
394 1 -1.1104 1.27303 -3.04054 20.7942
9102 2 2.2208 2.54414 -4.26399 24.9563
9139 2 2.2208 11.1039 -4.29319 16.5619
354 2 2.2208 8.1154 7.02828 13.719
407 1 -1.1104 6.82524 -0.156714 15.1669
391 1 -1.1104 6.70682 -2.93502 17.8622
399 1 -1.1104 6.86805 2.78037 15.1232
402 1 -1.1104 6.74634 0.13441 17.98
392 1 -1.1104 6.70044 2.82245 17.9103
397 1 -1.1104 6.72324 -2.85268 15.1039
431 2 2.2208 10.9323 1.3496 16.5957
432 1 -1.1104 12.3563 -2.93987 17.9166
433 1 -1.1104 12.3447 2.70357 17.9804
434 1 -1.1104 12.3414 -2.94733 15.0629
436 1 -1.1104 12.3595 2.7399 15.1515
438 1 -1.1104 12.3476 -0.0959221 18.0544
439 2 2.2208 11.0113 -1.69152 19.3174
440 2 2.2208 11.0424 4.196 19.3849
441 1 -1.1104 12.4355 -0.0946783 15.2372
443 1 -1.1104 9.71788 -2.88472 17.9507
444 1 -1.1104 9.52814 2.69889 17.9697
445 2 2.2208 8.27013 1.33557 19.3258
446 1 -1.1104 9.59055 -2.78266 15.1319
448 1 -1.1104 9.48477 2.7263 15.1698
450 2 2.2208 8.17626 -1.30839 16.6144
451 2 2.2208 8.25235 3.96552 16.5326
452 1 -1.1104 9.58012 -0.151651 17.9816
453 1 -1.1104 9.66957 0.0166906 15.2201
398 1 -1.1104 6.88012 -2.95574 20.7839
400 1 -1.1104 6.83628 2.60983 20.684
454 1 -1.1104 9.58965 0.0263719 20.775
447 1 -1.1104 9.49939 -3.05646 20.7886
442 1 -1.1104 12.3694 -0.142606 20.7743
9103 2 2.2208 5.3997 -4.25654 22.2312
348 2 2.2208 10.7913 18.0674 27.6327
464 2 2.2208 5.36308 6.99503 16.4524
465 2 2.2208 5.38666 12.5148 16.5037
466 1 -1.1104 1.06901 8.38719 17.7888
468 1 -1.1104 0.964943 8.29693 15.0731
472 1 -1.1104 1.09826 5.49003 18.0224
473 1 -1.1104 1.12211 11.067 17.7959
476 2 2.2208 5.42116 9.69169 19.3586
477 1 -1.1104 1.07733 5.49735 15.2912
479 1 -1.1104 1.04867 11.189 15.0219
485 1 -1.1104 3.9095 8.3181 18.1106
486 2 2.2208 2.52886 6.88946 19.2659
487 2 2.2208 2.45484 12.4143 19.2712
488 1 -1.1104 3.91368 8.38299 15.2054
490 2 2.2208 2.48855 9.65494 16.4966
491 1 -1.1104 3.9312 5.50025 17.9073
492 1 -1.1104 3.89548 11.1579 17.9514
493 1 -1.1104 3.80492 5.76098 15.0979
495 1 -1.1104 3.94133 11.2029 15.23
494 1 -1.1104 4.13739 5.61785 20.5974
9169 2 2.2208 5.31412 -4.21253 16.4372
622 2 2.2208 -0.290931 9.73465 19.3356
480 1 -1.1104 0.932129 11.2175 20.7168
496 1 -1.1104 3.8396 11.0068 20.7198
489 1 -1.1104 3.84407 8.19434 20.8296
469 1 -1.1104 1.00867 8.33286 20.6417
478 1 -1.1104 1.21827 5.6584 20.8506
646 2 2.2208 -0.184459 15.299 24.8733
483 1 -1.1104 6.81378 11.0845 15.1046
474 1 -1.1104 6.78592 5.59668 17.9228
475 1 -1.1104 6.73494 10.9975 17.8979
470 1 -1.1104 6.73537 8.38621 15.0317
467 1 -1.1104 6.74892 8.28373 17.9193
481 1 -1.1104 6.85479 5.64695 15.1253
500 2 2.2208 10.903 6.92783 16.4749
501 2 2.2208 10.9147 12.4912 16.5774
502 1 -1.1104 12.3282 8.27909 17.8565
503 1 -1.1104 12.2693 8.35183 15.0778
505 1 -1.1104 12.3589 5.54762 17.8752
506 1 -1.1104 12.42 11.0041 17.9366
507 2 2.2208 10.9708 9.71556 19.3893
508 1 -1.1104 12.2657 5.58265 15.0856
510 1 -1.1104 12.4185 10.9535 15.1644
512 1 -1.1104 9.5515 8.24843 17.9513
513 2 2.2208 8.11581 6.75895 19.3257
514 2 2.2208 8.14961 12.4468 19.5116
515 1 -1.1104 9.45959 8.43568 15.1383
517 2 2.2208 8.10565 9.72474 16.5282
518 1 -1.1104 9.55728 5.48053 17.7765
519 1 -1.1104 9.57446 10.9926 17.9857
520 1 -1.1104 9.5358 5.64869 15.11
522 1 -1.1104 9.48389 11.2384 15.1691
509 1 -1.1104 12.5189 5.53345 20.6475
523 1 -1.1104 9.61134 11.0774 20.7093
504 1 -1.1104 12.4542 8.27919 20.7389
471 1 -1.1104 6.71817 8.24658 20.8103
521 1 -1.1104 9.66698 5.42247 20.7786
511 1 -1.1104 12.594 11.0864 20.6146
482 1 -1.1104 6.82467 5.45598 20.8035
375 2 2.2208 2.47993 20.997 27.5404
456 2 2.2208 -0.365088 18.1112 16.5384
527 2 2.2208 5.38571 18.0908 16.5052
528 1 -1.1104 1.08574 13.8409 17.9686
529 1 -1.1104 1.07424 19.4353 17.8276
532 1 -1.1104 1.24314 13.815 15.08
534 1 -1.1104 1.1749 19.6217 14.9585
540 1 -1.1104 1.10718 16.7443 17.9242
542 2 2.2208 5.29934 15.172 19.2322
543 2 2.2208 5.16545 21.0173 19.1891
544 1 -1.1104 1.06052 16.7241 15.1205
548 1 -1.1104 3.96469 13.971 17.7149
549 1 -1.1104 3.82474 19.5902 17.825
550 2 2.2208 2.46634 18.0981 19.1981
551 1 -1.1104 3.89497 13.9118 14.8248
553 1 -1.1104 3.961 19.5745 15.2594
555 2 2.2208 2.47344 15.2581 16.3152
556 2 2.2208 2.36351 20.9919 16.4711
557 1 -1.1104 3.94411 16.7401 17.9661
558 1 -1.1104 3.81165 16.697 14.9134
430 2 2.2208 13.6561 15.2228 22.1128
535 1 -1.1104 1.08983 19.575 20.548
552 1 -1.1104 3.91863 13.8075 20.6724
587 2 2.2208 8.03491 18.0003 24.8662
648 2 2.2208 -0.264727 12.549 16.502
536 1 -1.1104 6.67883 13.9176 15.0935
530 1 -1.1104 6.84851 13.6628 17.8758
546 1 -1.1104 6.64607 16.6777 15.0861
541 1 -1.1104 6.64734 16.5565 17.8899
531 1 -1.1104 6.63248 19.5412 17.9102
538 1 -1.1104 6.98196 19.4369 14.9921
563 2 2.2208 10.8312 18.2816 16.4489
564 1 -1.1104 12.1808 13.8426 17.9781
565 1 -1.1104 12.3827 19.5292 17.8613
566 1 -1.1104 12.2227 13.8249 15.1103
568 1 -1.1104 12.2948 19.4802 15.1268
570 1 -1.1104 12.1865 16.6245 17.8664
571 2 2.2208 10.8725 15.3551 19.314
572 2 2.2208 10.9524 20.9715 19.2267
573 1 -1.1104 12.331 16.6956 15.0521
575 1 -1.1104 9.45394 13.9315 17.9816
576 1 -1.1104 9.4396 19.5252 17.7953
577 2 2.2208 8.13822 18.1004 19.2793
578 1 -1.1104 9.51266 14.0334 15.0784
580 1 -1.1104 9.59651 19.522 14.918
582 2 2.2208 8.16316 15.2351 16.4993
583 2 2.2208 8.12273 20.8404 16.4073
584 1 -1.1104 9.398 16.8435 17.8036
585 1 -1.1104 9.59106 16.8312 14.9949
539 1 -1.1104 6.75302 19.5335 20.5129
581 1 -1.1104 9.56292 19.5682 20.5413
569 1 -1.1104 12.3052 19.5315 20.5991
586 1 -1.1104 9.5049 16.6927 20.6371
547 1 -1.1104 6.55408 16.6632 20.7313
574 1 -1.1104 12.3086 16.7338 20.6868
567 1 -1.1104 12.194 13.8708 20.797
396 1 -1.1104 1.10806 2.82479 20.7184
413 1 -1.1104 4.06422 -3.1133 20.6809
625 2 2.2208 -0.294601 1.32569 22.2067
415 1 -1.1104 3.89346 2.64942 20.8147
591 2 2.2208 5.48201 1.14947 21.9654
592 1 -1.1104 1.16703 -2.80285 23.7176
593 1 -1.1104 1.27701 2.58486 23.4895
596 1 -1.1104 1.14316 -3.04006 26.5149
597 1 -1.1104 1.20428 2.70051 26.1922
600 1 -1.1104 1.18009 -0.0834865 23.4224
602 2 2.2208 5.44315 -1.59151 25.032
603 2 2.2208 5.48421 3.94753 24.9072
604 1 -1.1104 1.05392 -0.181201 26.346
606 1 -1.1104 3.9236 -2.91396 23.518
607 1 -1.1104 4.16117 2.66991 23.6104
608 2 2.2208 2.68952 1.35532 24.8401
609 1 -1.1104 4.07243 -2.88094 26.4033
610 1 -1.1104 4.11938 2.64351 26.3925
611 2 2.2208 2.64209 -1.55265 22.1844
612 2 2.2208 2.55001 4.13637 22.1705
613 1 -1.1104 4.00064 -0.137658 23.5651
614 1 -1.1104 3.91604 -0.0906904 26.5635
624 2 2.2208 -0.28143 -1.48762 25.0592
626 2 2.2208 -0.299784 4.17953 24.9314
605 1 -1.1104 6.71615 -0.203226 26.3991
343 2 2.2208 8.08135 1.28802 13.7699
712 1 -1.1104 6.60563 13.7604 26.219
437 1 -1.1104 12.4499 2.79234 20.7619
562 1 -1.1104 9.44073 19.4012 23.4245
408 1 -1.1104 6.8299 -0.221075 20.7856
598 1 -1.1104 6.81965 -3.12139 26.4756
435 1 -1.1104 12.487 -2.95468 20.6562
595 1 -1.1104 6.93674 2.56218 23.5858
601 1 -1.1104 6.90838 -0.178888 23.6434
599 1 -1.1104 6.85191 2.56498 26.5049
594 1 -1.1104 6.79518 -2.98224 23.6541
449 1 -1.1104 9.63091 2.79372 20.749
627 2 2.2208 10.9612 1.31819 22.1168
628 1 -1.1104 12.3135 -2.95168 23.3699
629 1 -1.1104 12.3396 2.34195 23.5666
630 1 -1.1104 12.4444 -3.05799 26.3325
631 1 -1.1104 12.3293 2.63684 26.2938
632 1 -1.1104 12.3747 -0.232713 23.4847
633 2 2.2208 11.0048 -1.4852 24.8234
634 2 2.2208 10.959 4.07229 25.0872
635 1 -1.1104 12.48 -0.137383 26.4311
636 1 -1.1104 9.7051 -2.95819 23.6393
637 1 -1.1104 9.719 2.67234 23.6025
638 2 2.2208 8.2577 1.22525 25.0723
639 1 -1.1104 9.54553 -2.84729 26.3459
640 1 -1.1104 9.56023 2.81222 26.4228
641 2 2.2208 8.22284 -1.59041 22.1281
642 2 2.2208 8.19256 4.03294 22.2026
643 1 -1.1104 9.59609 -0.19508 23.5286
644 1 -1.1104 9.5869 -0.0481895 26.4678
371 2 2.2208 -0.239912 18.1864 27.665
579 1 -1.1104 9.48079 13.8725 20.7355
9168 2 2.2208 2.68677 -4.28191 19.2676
645 2 2.2208 -0.273826 20.9296 24.7781
353 2 2.2208 2.52419 12.4379 13.6874
421 2 2.2208 -0.331915 6.84824 22.2491
656 2 2.2208 5.29541 6.8418 22.1654
657 2 2.2208 5.25961 12.4479 22.0533
658 1 -1.1104 1.12493 8.28851 23.528
660 1 -1.1104 1.09897 8.36704 26.5285
662 1 -1.1104 1.01079 5.5548 23.6125
663 1 -1.1104 0.994761 10.9881 23.4253
666 2 2.2208 5.29636 9.66879 24.9448
667 1 -1.1104 1.13288 5.6175 26.3534
668 1 -1.1104 1.05838 11.0843 26.3352
671 1 -1.1104 3.85589 8.28608 23.636
672 2 2.2208 2.49036 7.0327 25.0376
673 2 2.2208 2.45192 12.4801 24.7502
674 1 -1.1104 3.95421 8.39232 26.5166
675 2 2.2208 2.44086 9.6105 22.1042
676 1 -1.1104 3.9442 5.43998 23.5577
677 1 -1.1104 3.73245 11.0554 23.5031
678 1 -1.1104 4.03608 5.64651 26.2366
679 1 -1.1104 3.83265 11.2341 26.293
352 2 2.2208 5.35557 9.8687 13.7433
339 2 2.2208 2.64263 1.27905 13.6849
484 1 -1.1104 6.75166 11.0833 20.7514
516 1 -1.1104 9.60776 8.11543 20.7405
661 1 -1.1104 6.90331 8.24083 26.3713
665 1 -1.1104 6.59832 10.9851 23.3081
669 1 -1.1104 6.72921 5.49962 26.4231
664 1 -1.1104 6.8549 5.47966 23.6728
670 1 -1.1104 6.63124 11.0052 26.1082
659 1 -1.1104 6.67208 8.2411 23.553
687 1 -1.1104 9.46077 11.0861 26.3006
688 1 -1.1104 9.71415 5.56511 26.3107
689 1 -1.1104 9.48389 11.0007 23.5562
690 1 -1.1104 9.60418 5.4464 23.5993
691 2 2.2208 8.10075 9.57927 22.155
692 1 -1.1104 9.68866 8.29573 26.2455
693 2 2.2208 8.03738 12.4026 24.8592
694 2 2.2208 8.20727 6.87555 24.922
695 2 2.2208 11.0576 6.89082 22.1383
696 2 2.2208 10.8684 12.5572 22.3014
697 1 -1.1104 12.4369 8.44228 23.4286
698 1 -1.1104 12.4065 8.29971 26.2705
699 1 -1.1104 12.3905 5.37521 23.3739
700 1 -1.1104 12.2966 11.2385 23.5206
701 2 2.2208 10.9475 9.73554 24.9417
702 1 -1.1104 12.5001 5.46426 26.5671
703 1 -1.1104 12.1653 11.1338 26.3281
704 1 -1.1104 9.60624 8.22342 23.4685
524 1 -1.1104 12.1959 16.8011 23.4087
708 2 2.2208 13.6741 12.5673 24.9242
559 1 -1.1104 3.71228 16.6959 20.6851
545 1 -1.1104 0.921771 16.7288 20.6685
554 1 -1.1104 3.9951 19.4522 20.6429
714 1 -1.1104 6.81034 16.5687 26.3486
590 1 -1.1104 9.44803 19.394 26.2722
338 2 2.2208 5.41121 -1.4887 13.6598
533 1 -1.1104 0.980028 13.9507 20.8084
717 1 -1.1104 1.19858 13.9372 26.3617
719 2 2.2208 5.25835 20.9508 24.7953
716 1 -1.1104 1.08824 16.7764 26.2416
715 1 -1.1104 1.03995 19.5699 26.2838
720 2 2.2208 5.20971 15.304 24.8378
647 2 2.2208 2.41869 15.3564 22.1025
649 2 2.2208 2.44089 21.0143 21.9041
652 1 -1.1104 3.84626 16.8233 23.5388
655 1 -1.1104 1.10546 16.7256 23.287
681 1 -1.1104 3.80342 13.9471 26.2176
682 1 -1.1104 3.90982 16.9106 26.3243
683 2 2.2208 2.48864 18.173 24.8587
686 1 -1.1104 3.7585 19.6394 26.2774
705 2 2.2208 5.26987 18.2016 22.0492
706 1 -1.1104 1.01288 13.8705 23.6145
707 1 -1.1104 0.978903 19.425 23.3745
711 1 -1.1104 3.77481 19.5564 23.3781
713 1 -1.1104 3.81783 14.0096 23.5337
709 1 -1.1104 6.60435 13.7457 23.4279
499 1 -1.1104 12.3215 19.7113 26.105
718 1 -1.1104 6.65648 19.4707 23.3458
560 1 -1.1104 12.2191 16.8445 26.1853
525 2 2.2208 10.7644 15.287 24.9408
616 2 2.2208 8.04585 20.7474 21.9224
589 1 -1.1104 9.51049 13.8343 26.506
526 2 2.2208 10.762 20.8195 24.6998
615 2 2.2208 7.98865 15.2965 22.0897
498 1 -1.1104 12.3427 14.0474 26.4094
497 1 -1.1104 12.2237 19.5112 23.398
561 1 -1.1104 9.3469 13.8626 23.6198
463 1 -1.1104 12.0763 13.9473 23.7755
462 2 2.2208 10.9027 18.1256 21.9489
588 1 -1.1104 6.61201 19.3986 26.1716
537 1 -1.1104 6.70959 13.8644 20.6773
617 1 -1.1104 9.4614 16.6189 23.4406
680 1 -1.1104 6.65708 16.697 23.4481
620 1 -1.1104 9.43663 16.6791 26.298
350 2 2.2208 10.9089 4.02797 13.7849
618 2 2.2208 13.6445 18.0599 19.2344
334 2 2.2208 -0.195432 -1.51735 13.7106
351 2 2.2208 2.46375 7.03708 13.7826
341 2 2.2208 5.33701 4.21734 13.7184
342 2 2.2208 -0.335761 15.2035 13.6948
9027 2 2.2208 8.16669 -4.15141 13.7433
9019 2 2.2208 11.0707 -4.19292 27.6868
382 2 2.2208 -0.286036 12.4471 27.7246
349 2 2.2208 8.12501 20.9152 27.557
380 2 2.2208 2.49581 9.74522 27.6956
355 2 2.2208 10.9029 9.62246 13.712
381 2 2.2208 5.26017 12.5772 27.6376
346 2 2.2208 10.9856 -1.5267 13.777
385 2 2.2208 8.00153 9.69906 27.689
366 2 2.2208 2.61372 4.04903 27.6894
721 2 2.2208 5.37292 23.7102 5.1681
722 2 2.2208 5.31775 29.3132 5.22549
723 1 -1.1104 1.15092 25.1539 1.12884
724 1 -1.1104 1.0669 25.1279 3.7087
725 1 -1.1104 1.15132 22.4183 0.88439
726 1 -1.1104 0.881122 28.0672 1.08803
727 2 2.2208 5.36805 26.6149 2.55474
728 1 -1.1104 1.18518 22.3519 3.68586
729 1 -1.1104 1.09518 28.0986 3.90586
730 1 -1.1104 3.91895 25.1343 1.0954
731 2 2.2208 2.53968 23.7573 2.47605
732 2 2.2208 2.46147 29.3403 2.47685
733 1 -1.1104 3.81895 24.9975 3.84045
734 2 2.2208 2.57387 26.5256 5.16333
735 1 -1.1104 3.90735 22.2738 1.06787
736 1 -1.1104 3.69581 28.0253 1.0305
737 1 -1.1104 3.93758 22.3109 3.7707
738 1 -1.1104 3.91158 27.8648 3.73029
870 1 -1.1104 3.86039 27.9523 6.70294
864 1 -1.1104 1.09701 22.2426 6.63425
862 1 -1.1104 1.22014 24.9736 6.51007
865 1 -1.1104 1.08917 27.8185 6.64112
742 1 -1.1104 6.79737 25.0401 0.992915
747 1 -1.1104 6.73583 27.892 3.98794
739 2 2.2208 -0.360017 29.3201 5.19076
1030 3 0 11.4673 40.3551 11.717
1055 2 2.2208 -0.237965 32.1954 13.5303
1640 1 -1.1104 9.63112 47.4329 6.69462
867 1 -1.1104 6.67362 27.9801 6.68182
745 1 -1.1104 6.48974 27.7839 0.975537
863 1 -1.1104 6.80925 25.154 6.63808
743 1 -1.1104 6.60778 25.1451 3.81249
744 1 -1.1104 6.67264 22.3996 0.974395
746 1 -1.1104 6.85274 22.1717 3.91074
748 2 2.2208 10.7643 23.6888 5.22057
749 2 2.2208 10.9163 29.2104 5.37932
750 1 -1.1104 12.4497 25.0019 1.01472
751 1 -1.1104 12.365 25.1294 3.7577
752 1 -1.1104 12.3277 22.3712 0.99667
753 1 -1.1104 12.2198 27.9616 1.12041
754 2 2.2208 10.8854 26.4699 2.42604
755 1 -1.1104 12.2221 22.3829 3.75795
756 1 -1.1104 12.2672 27.7416 3.7492
757 1 -1.1104 9.53211 25.0639 0.987821
758 2 2.2208 8.13326 23.6361 2.37398
759 2 2.2208 8.06214 29.3952 2.49424
760 1 -1.1104 9.42249 25.0221 3.76971
761 2 2.2208 8.14498 26.4098 5.31049
762 1 -1.1104 9.39183 22.3288 0.958659
763 1 -1.1104 9.31806 28.0783 1.09283
764 1 -1.1104 9.50774 22.2698 3.71347
765 1 -1.1104 9.36493 27.8309 4.01546
898 1 -1.1104 9.52788 24.9239 6.73746
896 1 -1.1104 12.1576 22.2505 6.44299
899 1 -1.1104 9.35669 22.2925 6.65643
900 1 -1.1104 9.501 27.75 6.68834
895 1 -1.1104 12.2185 25.0955 6.5801
1006 2 2.2208 -0.356527 46.2874 10.8905
1614 1 -1.1104 1.02504 47.6028 9.49631
769 2 2.2208 5.09559 34.8958 5.3351
770 1 -1.1104 1.15703 30.9067 0.923133
771 1 -1.1104 0.993076 36.2606 1.03718
773 1 -1.1104 1.19074 30.8492 3.83689
774 1 -1.1104 0.992225 36.3172 3.94849
776 1 -1.1104 1.13502 33.5588 0.906933
777 2 2.2208 5.28745 32.0238 2.4187
778 2 2.2208 5.22301 37.8198 2.45157
779 1 -1.1104 1.04676 33.6569 3.84354
781 1 -1.1104 3.9144 30.7855 0.902643
782 1 -1.1104 3.83202 36.4109 0.893559
783 2 2.2208 2.44666 34.8515 2.45363
784 1 -1.1104 3.79916 30.5931 3.78042
785 1 -1.1104 3.76313 36.3572 3.71238
786 2 2.2208 2.34319 32.1027 5.25055
787 2 2.2208 2.49308 37.6443 5.1516
788 1 -1.1104 3.86364 33.6013 1.00449
789 1 -1.1104 3.77032 33.4959 3.90722
926 1 -1.1104 3.79571 36.3646 6.56866
925 1 -1.1104 3.75646 30.847 6.591
923 1 -1.1104 0.937253 33.3885 6.6584
927 1 -1.1104 3.58816 33.6465 6.60228
921 1 -1.1104 6.41117 30.937 6.61801
793 1 -1.1104 6.51218 30.6831 1.12619
775 1 -1.1104 6.42849 36.2538 3.88587
924 1 -1.1104 6.41508 33.7711 7.00304
922 1 -1.1104 6.51953 36.4052 6.71881
1084 2 2.2208 13.6444 37.7292 -0.345575
841 2 2.2208 -0.255915 43.4235 2.53127
772 1 -1.1104 6.62262 36.5032 1.12106
794 1 -1.1104 6.64438 30.5567 3.79577
795 1 -1.1104 6.64166 33.6054 1.06422
780 1 -1.1104 6.51291 33.3553 3.85816
796 2 2.2208 10.6806 34.9458 5.23455
797 1 -1.1104 12.1429 30.6889 0.854754
798 1 -1.1104 12.366 36.4137 1.00457
799 1 -1.1104 12.1138 30.6164 3.88639
800 1 -1.1104 12.1872 36.2428 3.89499
801 1 -1.1104 12.1316 33.4371 0.98784
802 2 2.2208 10.7672 32.2056 2.40743
803 2 2.2208 10.7984 37.7951 2.44807
804 1 -1.1104 12.1931 33.6432 3.6873
805 1 -1.1104 9.34017 30.8067 0.91267
806 1 -1.1104 9.45678 36.3613 0.932711
807 2 2.2208 7.94794 34.9238 2.61489
808 1 -1.1104 9.49492 30.821 3.7722
809 1 -1.1104 9.31652 36.3947 3.81832
810 2 2.2208 7.94146 32.0961 5.36792
811 2 2.2208 7.92279 37.789 5.19076
812 1 -1.1104 9.42156 33.5894 1.09087
813 1 -1.1104 9.28984 33.5503 3.76846