LAMMPS (29 Oct 2020)
OMP_NUM_THREADS environment is not set. Defaulting to 1 thread. (../comm.cpp:94)
  using 1 OpenMP thread(s) per MPI task
OMP_NUM_THREADS environment is not set. Defaulting to 1 thread. (../comm.cpp:94)
  using 1 OpenMP thread(s) per MPI task
Reading data file ...
  orthogonal box = (-0.35185398 -4.2654393 -0.36233889) to (27.691854 332.34544 27.702339)
  2 by 13 by 2 MPI processor grid
  reading atoms ...
  17670 atoms
  reading velocities ...
  17670 velocities
Finding 1-2 1-3 1-4 neighbors ...
  special bond factors lj:    0.0      0.0      0.0     
  special bond factors coul:  0.0      0.0      0.0     
     0 = max # of 1-2 neighbors
     0 = max # of 1-3 neighbors
     0 = max # of 1-4 neighbors
     1 = max # of special neighbors
  special bonds CPU = 0.004 seconds
  read_data CPU = 0.060 seconds
WARNING: 13 of 1000 force values in table Xe-Xe are inconsistent with -dE/dr.
  Should only be flagged at inflection points (../pair_table.cpp:461)
WARNING: 2 of 1000 force values in table Xe-O are inconsistent with -dE/dr.
  Should only be flagged at inflection points (../pair_table.cpp:461)
WARNING: 2 of 1000 force values in table Xe-Th are inconsistent with -dE/dr.
  Should only be flagged at inflection points (../pair_table.cpp:461)
Setting atom values ...
  11760 settings made for charge
Setting atom values ...
  5880 settings made for charge
Setting atom values ...
  30 settings made for charge
PPPM initialization ...
  using 12-bit tables for long-range coulomb (../kspace.cpp:328)
  G vector (1/distance) = 0.29882715
  grid = 40 240 40
  stencil order = 5
  estimated absolute RMS force accuracy = 0.00015595355
  estimated relative force accuracy = 1.0830374e-05
  using single precision MKL FFT
  3d grid and FFT values/proc = 18225 7600
Neighbor list info ...
  update every 1 steps, delay 0 steps, check yes
  max neighbors/atom: 2000, page size: 100000
  master list distance cutoff = 13
  ghost atom cutoff = 13
  binsize = 6.5, bins = 5 52 5
  3 neighbor lists, perpetual/occasional/extra = 3 0 0
  (1) pair coul/long, perpetual
      attributes: half, newton on
      pair build: half/bin/newton
      stencil: half/bin/3d/newton
      bin: standard
  (2) pair eam/alloy, perpetual, skip from (1)
      attributes: half, newton on
      pair build: skip
      stencil: none
      bin: none
  (3) pair table, perpetual, skip from (1)
      attributes: half, newton on
      pair build: skip
      stencil: none
      bin: none
Setting up Verlet run ...
  Unit style    : metal
  Current step  : 0
  Time step     : 0.001
Per MPI rank memory allocation (min/avg/max) = 9.254 | 9.918 | 10.05 Mbytes
Step Temp E_pair E_mol TotEng Press 
       0          600    -230511.4            0   -229141.06     305.0918 
  100000    604.63946   -230515.75            0   -229134.82    452.64197 
Loop time of 706.881 on 52 procs for 100000 steps with 17670 atoms

Performance: 12.223 ns/day, 1.964 hours/ns, 141.467 timesteps/s
99.7% CPU use with 52 MPI tasks x 1 OpenMP threads

MPI task timing breakdown:
Section |  min time  |  avg time  |  max time  |%varavg| %total
---------------------------------------------------------------
Pair    | 476.8      | 497.45     | 520.58     |  46.3 | 70.37
Bond    | 0.0086168  | 0.013576   | 0.018118   |   2.0 |  0.00
Kspace  | 161.34     | 183.47     | 202.95     |  74.3 | 25.96
Neigh   | 2.0094     | 2.2573     | 2.4351     |   6.1 |  0.32
Comm    | 15.057     | 15.907     | 18.061     |  19.1 |  2.25
Output  | 5.8805e-05 | 6.4481e-05 | 0.00026776 |   0.0 |  0.00
Modify  | 4.4048     | 5.9627     | 7.9923     |  43.7 |  0.84
Other   |            | 1.818      |            |       |  0.26

Nlocal:        339.808 ave         370 max         319 min
Histogram: 4 5 5 10 15 5 3 2 2 1
Nghost:        5523.06 ave        5699 max        5314 min
Histogram: 16 2 2 2 2 1 3 3 1 20
Neighs:       107282.0 ave      118229 max       93173 min
Histogram: 3 1 3 2 6 11 15 5 3 3

Total # of neighbors = 5578653
Ave neighs/atom = 315.71324
Ave special neighs/atom = 0.0000000
Neighbor list builds = 740
Dangerous builds = 0
11760 atoms in group oxygen
PPPM initialization ...
  using 12-bit tables for long-range coulomb (../kspace.cpp:328)
  G vector (1/distance) = 0.29882715
  grid = 40 240 40
  stencil order = 5
  estimated absolute RMS force accuracy = 0.00015595355
  estimated relative force accuracy = 1.0830374e-05
  using single precision MKL FFT
  3d grid and FFT values/proc = 18225 7600
Neighbor list info ...
  update every 1 steps, delay 0 steps, check yes
  max neighbors/atom: 2000, page size: 100000
  master list distance cutoff = 13
  ghost atom cutoff = 13
  binsize = 6.5, bins = 5 52 5
  3 neighbor lists, perpetual/occasional/extra = 3 0 0
  (1) pair coul/long, perpetual
      attributes: half, newton on
      pair build: half/bin/newton
      stencil: half/bin/3d/newton
      bin: standard
  (2) pair eam/alloy, perpetual, skip from (1)
      attributes: half, newton on
      pair build: skip
      stencil: none
      bin: none
  (3) pair table, perpetual, skip from (1)
      attributes: half, newton on
      pair build: skip
      stencil: none
      bin: none
Setting up Verlet run ...
  Unit style    : metal
  Current step  : 0
  Time step     : 0.001
Per MPI rank memory allocation (min/avg/max) = 9.504 | 10.20 | 10.30 Mbytes
Step f_2 Temp v_Tdiff v_deltaT 
       0            0    604.63946            0            0 
  100000    687.23298    602.81978  0.018499496    214.77743 
  200000    1356.4051     600.5908  0.019750573    229.30232 
  300000     2028.395    601.76777  0.020957739     243.3174 
  400000    2700.0824    601.31382   0.02022613     234.8235 
  500000    3382.8939    597.42269  0.020386773    236.68854 
  600000    4059.7343    604.39019  0.020665955    239.92982 
  700000    4728.9319    601.75379  0.019721062     228.9597 
  800000    5406.2483    605.27715  0.019955707    231.68391 
  900000     6077.502    601.82342  0.021317412    247.49318 
 1000000    6752.3223    605.98697  0.019764761    229.46704 
Loop time of 7075.88 on 52 procs for 1000000 steps with 17670 atoms

Performance: 12.211 ns/day, 1.966 hours/ns, 141.325 timesteps/s
99.7% CPU use with 52 MPI tasks x 1 OpenMP threads

MPI task timing breakdown:
Section |  min time  |  avg time  |  max time  |%varavg| %total
---------------------------------------------------------------
Pair    | 4768.6     | 5000.2     | 5237.6     | 153.2 | 70.67
Bond    | 0.092198   | 0.13376    | 0.19952    |   5.7 |  0.00
Kspace  | 1604       | 1832.7     | 2052.2     | 243.6 | 25.90
Neigh   | 19.782     | 22.254     | 24.013     |  20.9 |  0.31
Comm    | 150.12     | 158.84     | 178.69     |  56.5 |  2.24
Output  | 0.0015599  | 0.001754   | 0.0026829  |   0.3 |  0.00
Modify  | 6.3512     | 6.8591     | 7.4872     |   9.5 |  0.10
Other   |            | 54.88      |            |       |  0.78

Nlocal:        339.808 ave         368 max         315 min
Histogram: 2 5 2 7 13 9 10 0 2 2
Nghost:        5515.75 ave        5702 max        5317 min
Histogram: 20 0 0 4 0 2 6 0 0 20
Neighs:       107268.0 ave      118279 max       89518 min
Histogram: 1 1 3 3 1 9 16 11 4 3

Total # of neighbors = 5577957
Ave neighs/atom = 315.67385
Ave special neighs/atom = 0.0000000
Neighbor list builds = 7281
Dangerous builds = 0
Total wall time: 2:09:43
