ITEM: TIMESTEP
30000
ITEM: NUMBER OF ATOMS
17700
ITEM: BOX BOUNDS pp pp pp
-3.4672387583625236e-01 2.7686723875835973e+01
-4.4253956866441468e+00 3.3250539568663993e+02
-3.5924819732847085e-01 2.7699248197328156e+01
ITEM: ATOMS id type q x y z
1 2 2.2208 5.17287 1.2066 5.44009
2 1 -1.1104 1.14442 -3.13075 1.17158
3 1 -1.1104 1.08312 2.50738 1.25698
6 1 -1.1104 1.12564 -2.94482 3.98732
7 1 -1.1104 0.90317 2.54872 4.06071
10 1 -1.1104 1.05358 -0.313742 1.29474
12 2 2.2208 5.32581 -1.56035 2.65416
13 2 2.2208 5.18822 4.04594 2.64325
14 1 -1.1104 1.03985 -0.108068 4.18127
16 1 -1.1104 3.99555 -3.11767 1.23435
17 1 -1.1104 3.80719 2.75628 1.20819
18 2 2.2208 2.33662 1.23042 2.62841
19 1 -1.1104 3.94562 -3.09944 3.89961
20 1 -1.1104 3.68981 2.63408 4.02811
21 2 2.2208 2.39483 -1.72513 5.40231
22 2 2.2208 2.36216 4.00399 5.43897
23 1 -1.1104 3.76447 -0.181555 1.13323
24 1 -1.1104 3.88037 -0.252417 4.06155
307 2 2.2208 2.27555 4.06202 -0.20508
8419 2 2.2208 13.5439 9.77734 5.50404
7986 2 2.2208 8.10112 -4.45417 2.52383
305 2 2.2208 5.19479 1.213 -0.252744
306 2 2.2208 2.44902 -1.63809 -0.167351
7989 2 2.2208 5.40851 -4.49039 11.0507
309 2 2.2208 8.18638 -1.60847 -0.239113
7992 2 2.2208 10.9164 -4.38136 11.0028
8601 2 2.2208 13.6412 6.93668 8.25343
8702 2 2.2208 13.5704 6.94815 2.69175
8391 2 2.2208 13.5965 -1.41546 10.9653
9 1 -1.1104 6.44859 2.66635 4.04463
8 1 -1.1104 6.67692 -2.84953 4.10074
8602 2 2.2208 13.6495 12.5447 8.28602
4 1 -1.1104 6.80729 -3.1131 1.06915
15 1 -1.1104 6.64059 -0.120031 3.9275
11 1 -1.1104 6.56917 -0.0997794 1.04747
5 1 -1.1104 6.55591 2.61996 1.15827
31 2 2.2208 10.833 1.27799 5.45527
32 1 -1.1104 12.2833 -3.11199 1.24083
33 1 -1.1104 12.3759 2.55625 0.994187
34 1 -1.1104 12.2948 -2.88962 4.07147
35 1 -1.1104 12.1997 2.73973 4.08753
36 1 -1.1104 12.2231 -0.190626 1.10928
37 2 2.2208 10.8212 -1.60047 2.62938
38 2 2.2208 10.59 4.1196 2.58356
39 1 -1.1104 12.1691 -0.0653234 3.99739
40 1 -1.1104 9.44701 -2.92243 1.24553
41 1 -1.1104 9.43561 2.5906 1.0201
42 2 2.2208 8.00234 1.23822 2.52863
43 1 -1.1104 9.44478 -3.11999 4.06437
44 1 -1.1104 9.31836 2.56419 3.91576
45 2 2.2208 8.02616 -1.55237 5.29302
46 2 2.2208 8.0021 4.06243 5.43756
47 1 -1.1104 9.21696 -0.164139 1.17734
48 1 -1.1104 9.37815 -0.232569 4.19093
8612 2 2.2208 -0.33052 12.516 10.9632
308 2 2.2208 10.9045 1.2516 -0.379768
310 2 2.2208 7.91733 3.98686 -0.305724
54 2 2.2208 5.1199 6.77677 5.39133
55 2 2.2208 5.26912 12.4798 5.34887
56 1 -1.1104 0.983861 8.20454 1.18972
58 1 -1.1104 1.0102 8.25318 3.97455
60 1 -1.1104 0.819539 5.38674 1.21634
61 1 -1.1104 0.933262 11.1828 1.21868
66 2 2.2208 5.13864 9.7417 2.70804
67 1 -1.1104 0.95933 5.46163 3.94741
68 1 -1.1104 0.899783 11.0643 3.89568
71 1 -1.1104 3.68175 8.52003 1.32943
72 2 2.2208 2.29667 6.8006 2.47664
73 2 2.2208 2.39547 12.4614 2.6699
74 1 -1.1104 3.80371 8.26294 3.89643
75 2 2.2208 2.38326 9.73352 5.36499
76 1 -1.1104 3.69437 5.48327 1.30564
77 1 -1.1104 3.77873 11.0709 1.20501
79 1 -1.1104 3.74808 5.33175 3.98351
80 1 -1.1104 3.84249 11.1345 3.94002
8707 2 2.2208 -0.299995 1.18963 -0.304315
7990 2 2.2208 -0.222829 -4.40116 11.0525
312 2 2.2208 2.35457 9.72358 -0.18481
311 2 2.2208 5.21366 6.78232 -0.198051
313 2 2.2208 5.1266 12.5267 -0.223124
57 1 -1.1104 6.49626 8.29665 1.22492
201 2 2.2208 -0.311126 1.32871 10.9435
8488 2 2.2208 13.69 15.4252 5.33006
105 2 2.2208 8.1004 18.1816 8.18904
314 2 2.2208 10.8297 6.95787 -0.154476
315 2 2.2208 7.8859 9.75292 -0.0830242
63 1 -1.1104 6.43101 5.37246 1.22509
64 1 -1.1104 6.62847 11.2537 1.384
69 1 -1.1104 6.57626 5.40922 3.90804
70 1 -1.1104 6.63094 11.0956 4.11682
59 1 -1.1104 6.56248 8.24 4.0526
84 2 2.2208 10.7938 6.93171 5.43233
85 2 2.2208 10.7735 12.6246 5.44406
86 1 -1.1104 12.1584 8.32698 1.34293
87 1 -1.1104 12.1311 8.45523 4.10704
88 1 -1.1104 12.0051 5.5083 1.10481
89 1 -1.1104 12.2363 11.1331 1.21806
91 2 2.2208 10.7263 9.77402 2.62962
92 1 -1.1104 12.0575 5.48831 3.97289
93 1 -1.1104 12.2941 11.1685 3.92138
94 1 -1.1104 9.3336 8.41893 1.18327
95 2 2.2208 7.80066 6.9703 2.57213
96 2 2.2208 8.0675 12.4756 2.72026
97 1 -1.1104 9.35381 8.39876 4.00877
98 2 2.2208 8.00754 9.63298 5.36552
99 1 -1.1104 9.26779 5.57196 1.21309
100 1 -1.1104 9.49316 11.1284 1.30107
102 1 -1.1104 9.29731 5.55546 4.00192
103 1 -1.1104 9.42421 11.1978 4.1385
316 2 2.2208 10.8967 12.5519 -0.260517
49 1 -1.1104 12.2089 19.6155 9.65773
165 2 2.2208 8.07414 20.9772 11.05
300 2 2.2208 5.22781 18.2008 -0.210293
118 1 -1.1104 6.56265 16.6873 6.82816
8713 2 2.2208 13.6493 21.0444 -0.027749
106 2 2.2208 5.23241 18.1439 5.36111
107 1 -1.1104 1.1544 13.8389 1.27196
109 1 -1.1104 0.808442 19.644 1.22913
113 1 -1.1104 1.09753 13.8394 4.10585
114 1 -1.1104 1.0023 19.5837 4.15342
116 1 -1.1104 1.17453 16.6947 1.23678
119 2 2.2208 5.2298 15.4295 2.65
120 2 2.2208 5.29025 21.0616 2.58008
121 1 -1.1104 1.05221 16.683 4.03138
123 1 -1.1104 3.91171 13.9828 1.32665
125 1 -1.1104 3.84138 19.7121 1.27351
127 2 2.2208 2.42442 18.2009 2.666
128 1 -1.1104 3.80723 13.947 4.0329
129 1 -1.1104 3.74317 19.4003 4.1811
130 2 2.2208 2.39028 15.2549 5.45909
131 2 2.2208 2.40334 21.0029 5.52882
132 1 -1.1104 3.73087 16.773 1.23245
134 1 -1.1104 3.82085 16.693 3.90078
302 2 2.2208 2.43183 21.0802 -0.200899
138 1 -1.1104 6.79313 19.7597 1.16291
139 1 -1.1104 6.6014 19.4009 4.02456
299 2 2.2208 2.45784 15.245 -0.0871139
296 1 -1.1104 6.76195 19.515 12.3834
7996 2 2.2208 10.9765 -4.36744 -0.218385
303 2 2.2208 10.8933 18.2662 -0.22648
115 1 -1.1104 6.67869 14.0221 4.139
110 1 -1.1104 6.92001 14.0198 1.34075
140 1 -1.1104 6.55143 17.0496 1.26341
301 2 2.2208 8.15061 15.4133 -0.233688
122 1 -1.1104 6.7531 16.7067 3.93442
141 2 2.2208 10.9307 18.2221 5.38141
142 1 -1.1104 12.3081 13.9669 1.12044
144 1 -1.1104 12.233 19.5703 1.33722
146 1 -1.1104 12.277 14.1066 3.87147
147 1 -1.1104 12.2578 19.7287 4.11794
148 1 -1.1104 12.3649 16.5575 1.1235
150 2 2.2208 10.8161 15.3985 2.57458
151 2 2.2208 10.8398 21.0032 2.57254
152 1 -1.1104 12.2157 16.848 3.8735
153 1 -1.1104 9.47211 13.8887 1.10487
155 1 -1.1104 9.44106 19.5664 1.23862
157 2 2.2208 8.04182 18.1778 2.59949
158 1 -1.1104 9.50743 13.9197 3.84312
159 1 -1.1104 9.45474 19.5931 3.93408
160 2 2.2208 8.04423 15.411 5.35196
161 2 2.2208 8.01198 21.1083 5.4216
162 1 -1.1104 9.44126 16.8912 1.06307
164 1 -1.1104 9.55399 16.8833 3.95828
304 2 2.2208 8.0418 21.1384 -0.23526
170 1 -1.1104 1.06243 -0.253814 6.91287
167 1 -1.1104 1.04744 2.78588 6.9938
172 1 -1.1104 3.99592 -2.96099 6.8311
8701 2 2.2208 13.6053 12.5218 2.56303
8586 2 2.2208 13.6711 18.2222 2.67089
174 1 -1.1104 3.81669 -0.157083 6.85708
173 1 -1.1104 3.90132 2.66065 6.84237
143 1 -1.1104 12.216 13.9796 6.71105
166 1 -1.1104 0.959041 -3.09843 6.78859
175 2 2.2208 5.14914 1.38485 11.004
176 1 -1.1104 1.01465 -2.71158 12.2809
177 1 -1.1104 0.911179 2.7374 12.3432
180 1 -1.1104 1.29987 -3.01653 9.66991
181 1 -1.1104 1.11627 2.7193 9.7706
184 1 -1.1104 1.22012 -0.0873373 12.4246
186 2 2.2208 5.31054 -1.64044 8.23051
187 2 2.2208 5.19127 3.98524 8.20943
188 1 -1.1104 1.09311 -0.200563 9.658
190 1 -1.1104 3.84139 -3.08256 12.3922
191 1 -1.1104 3.87917 2.72223 12.4039
192 2 2.2208 2.49956 1.27982 8.11037
193 1 -1.1104 4.01091 -2.93905 9.61238
194 1 -1.1104 3.87101 2.58702 9.60963
195 2 2.2208 2.55394 -1.47067 10.9699
196 2 2.2208 2.47892 4.21962 11.135
197 1 -1.1104 3.99735 -0.111351 12.5507
198 1 -1.1104 3.94305 -0.131837 9.66705
185 1 -1.1104 6.71279 -0.139067 12.2891
179 1 -1.1104 6.56954 2.68488 12.4508
178 1 -1.1104 6.68896 -3.03227 12.459
149 1 -1.1104 12.2608 16.8913 6.77771
145 1 -1.1104 12.2663 19.5203 6.81705
8418 2 2.2208 -0.305173 15.3925 8.2222
168 1 -1.1104 6.73296 -2.94648 6.85509
169 1 -1.1104 6.61916 2.67868 6.8257
209 1 -1.1104 9.39899 2.75188 6.78445
207 1 -1.1104 12.4073 -0.0664011 6.82339
205 1 -1.1104 12.3004 -2.88157 6.76084
210 1 -1.1104 9.57322 -0.130887 6.90935
156 1 -1.1104 9.3822 19.6332 6.71993
189 1 -1.1104 6.78589 -0.149188 9.76399
171 1 -1.1104 6.67184 -0.136158 6.69498
206 1 -1.1104 12.1643 2.73783 6.94138
208 1 -1.1104 9.48294 -2.97897 6.72933
183 1 -1.1104 6.68543 2.60237 9.55791
182 1 -1.1104 6.75818 -2.97011 9.53472
211 2 2.2208 10.8681 1.29257 11.1259
212 1 -1.1104 12.265 -2.81196 12.4661
213 1 -1.1104 12.2027 2.73787 12.5065
214 1 -1.1104 12.2494 -2.85296 9.54215
215 1 -1.1104 12.3038 2.738 9.65196
216 1 -1.1104 12.3477 -0.044512 12.4439
217 2 2.2208 10.8716 -1.51953 8.19892
219 1 -1.1104 12.3509 0.0284743 9.66365
220 1 -1.1104 9.48946 -2.89385 12.4268
221 1 -1.1104 9.34369 2.68571 12.4776
222 2 2.2208 8.1546 1.20276 8.26581
223 1 -1.1104 9.61599 -2.88915 9.66692
224 1 -1.1104 9.51006 2.66002 9.59675
225 2 2.2208 8.15932 -1.51049 11.2032
226 2 2.2208 7.91174 4.14581 10.9074
227 1 -1.1104 9.57137 -0.230577 12.4292
228 1 -1.1104 9.55092 -0.105139 9.6658
8620 2 2.2208 -0.455823 6.93255 11.0054
29 1 -1.1104 6.68059 16.7047 12.3699
137 2 2.2208 7.97539 15.2655 11.0569
30 1 -1.1104 12.1599 13.8637 9.53121
236 1 -1.1104 1.0252 5.58344 6.87884
62 1 -1.1104 1.01109 11.1304 6.72989
234 1 -1.1104 1.06822 8.3448 6.75884
239 1 -1.1104 3.87477 5.37314 6.69364
78 1 -1.1104 3.79751 11.1101 6.68389
238 1 -1.1104 3.78658 8.25484 6.70379
240 2 2.2208 5.31476 6.89666 11.0301
241 2 2.2208 5.35535 12.5466 11.1097
242 1 -1.1104 1.16303 8.32237 12.483
244 1 -1.1104 1.01736 8.3153 9.6769
246 1 -1.1104 1.03942 5.49903 12.3251
247 1 -1.1104 0.962611 11.0753 12.3454
250 2 2.2208 5.21959 9.6375 8.10298
251 1 -1.1104 1.05922 5.42145 9.58862
252 1 -1.1104 1.02991 11.0955 9.56099
255 1 -1.1104 3.96181 8.39772 12.3986
256 2 2.2208 2.42049 6.86417 8.14533
257 2 2.2208 2.60353 12.6392 8.27866
258 1 -1.1104 3.77302 8.24763 9.57257
259 2 2.2208 2.40879 9.68517 10.9157
260 1 -1.1104 3.80045 5.55311 12.4861
261 1 -1.1104 3.97528 11.1772 12.4668
262 1 -1.1104 3.77064 5.41224 9.54811
263 1 -1.1104 3.89223 11.2046 9.5749
290 1 -1.1104 6.73829 13.8034 9.73506
243 1 -1.1104 6.75263 8.25522 12.4042
235 1 -1.1104 6.57819 8.23731 6.82602
237 1 -1.1104 6.64598 5.41834 6.76125
269 1 -1.1104 9.4848 5.47668 6.84458
90 1 -1.1104 12.1948 11.2502 6.7629
218 2 2.2208 10.7766 4.08477 8.28331
266 1 -1.1104 12.1413 5.62991 6.81225
267 1 -1.1104 9.45137 8.30484 6.74851
265 1 -1.1104 12.2332 8.39982 6.93398
101 1 -1.1104 9.51501 11.1123 6.9571
65 1 -1.1104 6.59418 10.9729 6.74454
245 1 -1.1104 6.51514 8.14494 9.65489
249 1 -1.1104 6.91702 11.1576 12.3245
254 1 -1.1104 6.77012 10.9161 9.51989
253 1 -1.1104 6.46527 5.36087 9.48477
248 1 -1.1104 6.54451 5.45093 12.3883
264 1 -1.1104 9.52136 11.1394 9.62695
268 1 -1.1104 9.30256 5.56949 9.64507
270 1 -1.1104 9.70021 11.1473 12.37
271 1 -1.1104 9.46073 5.55323 12.4229
272 2 2.2208 7.98561 9.61989 10.9098
273 1 -1.1104 9.19845 8.28583 9.62468
274 2 2.2208 8.04674 12.546 8.14198
275 2 2.2208 7.97982 6.87191 8.21247
276 2 2.2208 10.8452 6.84131 11.0881
277 2 2.2208 10.7551 12.6171 10.9634
278 1 -1.1104 12.3805 8.22896 12.5835
279 1 -1.1104 12.145 8.21841 9.70802
280 1 -1.1104 12.2137 5.43654 12.5291
281 1 -1.1104 12.3513 11.1562 12.5854
282 2 2.2208 10.8111 9.71074 8.29278
283 1 -1.1104 12.1802 5.4665 9.6538
284 1 -1.1104 12.4302 11.0732 9.60379
285 1 -1.1104 9.43827 8.36511 12.4339
133 1 -1.1104 3.78702 16.7664 6.80984
124 1 -1.1104 3.79208 14.0084 6.75791
81 2 2.2208 10.8022 20.9513 8.158
126 1 -1.1104 3.70614 19.6478 6.93955
108 1 -1.1104 1.10925 13.9428 6.93936
117 1 -1.1104 0.981233 16.768 6.8333
203 1 -1.1104 0.957887 19.5827 6.90212
288 1 -1.1104 6.68743 19.4953 9.56837
28 1 -1.1104 1.13991 16.6528 12.4522
51 1 -1.1104 3.93207 14.0824 9.67594
52 1 -1.1104 3.82425 16.7937 9.58937
202 2 2.2208 2.37571 18.1719 8.33055
204 1 -1.1104 3.97136 19.6164 9.69813
229 2 2.2208 2.50408 15.3039 11.1716
230 2 2.2208 2.48506 20.947 11.0809
231 2 2.2208 5.30279 18.1798 11.0575
232 1 -1.1104 0.88816 13.8857 12.4565
233 1 -1.1104 3.93421 16.6868 12.4518
286 1 -1.1104 4.04135 19.41 12.5897
287 1 -1.1104 3.88695 13.8486 12.3673
291 1 -1.1104 1.08118 19.5546 9.59093
292 1 -1.1104 0.966395 16.7682 9.59489
293 2 2.2208 5.26519 20.9426 8.28417
294 1 -1.1104 1.15912 13.8929 9.74898
295 2 2.2208 5.2295 15.4577 8.22772
298 1 -1.1104 1.14789 19.3478 12.3139
289 1 -1.1104 6.73769 16.687 9.65359
112 1 -1.1104 6.51977 19.6729 6.84101
83 1 -1.1104 9.43336 13.9327 12.4659
104 1 -1.1104 9.33002 19.6748 12.3465
200 1 -1.1104 9.40542 16.7646 9.56431
25 2 2.2208 10.7867 18.2179 10.8427
135 1 -1.1104 9.28498 13.921 9.53744
82 1 -1.1104 12.1601 16.7281 9.60871
154 1 -1.1104 9.28812 13.9578 6.63643
111 1 -1.1104 6.71375 13.8259 6.89463
163 1 -1.1104 9.40218 16.7939 6.6861
297 1 -1.1104 6.56854 13.9945 12.5019
199 1 -1.1104 9.55189 16.8243 12.5054
136 1 -1.1104 9.37546 19.5255 9.50281
26 1 -1.1104 12.2281 13.9192 12.3819
50 1 -1.1104 12.3512 16.8006 12.3647
27 1 -1.1104 12.0615 19.6036 12.4217
53 2 2.2208 10.7638 15.3765 8.1032
8714 2 2.2208 13.6714 15.3714 -0.256171
8695 2 2.2208 13.6274 1.41507 2.58276
8690 2 2.2208 13.6483 15.3452 10.9668
8704 2 2.2208 -0.369728 18.1042 -0.128566
8703 2 2.2208 -0.343168 15.3192 2.66127
8390 2 2.2208 13.5646 4.18607 5.40828
8719 2 2.2208 13.6021 4.11299 -0.297437
8708 2 2.2208 -0.432055 6.85023 -0.199755
8700 2 2.2208 -0.378843 12.5614 5.445
8619 2 2.2208 -0.446019 9.70572 8.28454
8525 2 2.2208 13.6749 4.08841 11.0939
8551 2 2.2208 -0.341682 -1.65173 8.31278
8585 2 2.2208 -0.332593 4.05819 8.23552
8691 2 2.2208 13.6563 18.1877 8.25319
7991 2 2.2208 8.16331 -4.33831 8.21954
7988 2 2.2208 2.60243 -4.40828 8.26631
7985 2 2.2208 5.39383 -4.32174 5.37942
317 2 2.2208 5.24907 1.1938 16.5487
318 1 -1.1104 1.129 -2.91944 18.0901
319 1 -1.1104 1.0144 2.60468 18.0289
322 1 -1.1104 1.03419 -2.99225 15.1799
324 1 -1.1104 1.15855 2.63641 15.0933
330 1 -1.1104 1.02075 -0.12481 17.868
332 2 2.2208 5.30169 -1.6352 19.3161
333 2 2.2208 5.23284 3.97737 19.4097
334 1 -1.1104 1.02792 -0.113788 15.143
338 1 -1.1104 3.92147 -2.98161 17.9402
339 1 -1.1104 3.92918 2.64446 18.1548
340 2 2.2208 2.46937 1.19424 19.4783
341 1 -1.1104 3.8367 -3.02775 15.206
343 1 -1.1104 3.84015 2.86412 15.2619
345 2 2.2208 2.44381 -1.58573 16.4792
347 1 -1.1104 3.66061 -0.149766 18.0265
348 1 -1.1104 3.82214 -0.106597 15.2293
392 2 2.2208 10.8538 4.08315 13.8908
8316 2 2.2208 10.808 -4.27525 16.5077
359 2 2.2208 5.23978 4.18571 13.8111
358 2 2.2208 2.42668 1.26762 13.7925
357 2 2.2208 5.21271 -1.62727 13.8327
8798 2 2.2208 13.6192 6.87024 24.8897
350 2 2.2208 -0.314694 4.01815 13.8693
346 2 2.2208 2.42292 4.0293 16.615
9051 2 2.2208 -0.328489 6.87063 22.3043
8971 2 2.2208 13.7375 18.25 25.0451
8345 2 2.2208 2.60114 -4.43985 19.4294
635 2 2.2208 8.09781 20.9616 22.2448
320 1 -1.1104 6.81495 -2.97572 18.0745
391 2 2.2208 10.9492 -1.41537 13.8683
331 1 -1.1104 6.56797 -0.226294 17.8201
336 1 -1.1104 6.68027 -0.320563 15.0685
328 1 -1.1104 6.64037 2.74834 15.1844
326 1 -1.1104 6.70816 -3.01842 15.2456
321 1 -1.1104 6.55593 2.50362 18.0719
360 2 2.2208 10.7743 1.24327 16.6088
361 1 -1.1104 12.4278 -3.03642 17.9978
362 1 -1.1104 12.1889 2.48631 17.9522
363 1 -1.1104 12.3032 -2.9292 15.2526
365 1 -1.1104 12.3511 2.78477 15.3143
367 1 -1.1104 12.0875 -0.190487 18.1514
368 2 2.2208 10.924 -1.71694 19.4704
369 2 2.2208 10.9188 4.15761 19.4851
370 1 -1.1104 12.1836 -0.111326 15.3193
372 1 -1.1104 9.52102 -2.99859 18.0184
373 1 -1.1104 9.37582 2.77139 17.8903
374 2 2.2208 7.90713 1.19539 19.4358
375 1 -1.1104 9.46944 -2.81921 15.2759
377 1 -1.1104 9.4325 2.66521 15.3123
379 2 2.2208 8.15859 -1.59632 16.4842
380 2 2.2208 8.00607 4.19784 16.6352
381 1 -1.1104 9.28237 -0.242343 17.9414
382 1 -1.1104 9.41817 -0.111319 15.1361
8797 2 2.2208 -0.359002 15.3435 25.0793
390 2 2.2208 7.92773 1.2266 13.8922
518 2 2.2208 8.07924 18.0849 13.8533
8346 2 2.2208 5.27803 -4.41101 16.6498
8313 2 2.2208 8.22569 -4.405 19.3817
428 2 2.2208 2.42041 12.4168 13.8595
426 2 2.2208 2.50762 7.01936 13.9117
393 2 2.2208 5.19772 6.84734 16.7425
394 2 2.2208 5.27004 12.5265 16.6764
395 1 -1.1104 0.952973 8.2785 18.091
397 1 -1.1104 1.18168 8.2977 15.3191
401 1 -1.1104 1.22087 5.43227 18.0053
402 1 -1.1104 1.18575 11.1805 18.0553
405 2 2.2208 5.36883 9.74786 19.5617
406 1 -1.1104 0.988013 5.40996 15.1202
408 1 -1.1104 0.997554 10.9865 15.1581
414 1 -1.1104 3.83596 8.25624 18.1427
415 2 2.2208 2.5238 6.95633 19.4637
416 2 2.2208 2.54906 12.4922 19.5134
417 1 -1.1104 3.99167 8.30844 15.3049
419 2 2.2208 2.54844 9.8333 16.6591
420 1 -1.1104 3.86149 5.45011 18.0912
421 1 -1.1104 3.89673 11.07 18.0584
422 1 -1.1104 3.76371 5.57042 15.4322
424 1 -1.1104 3.89891 11.0267 15.0964
612 2 2.2208 8.05796 18.2116 24.995
503 1 -1.1104 12.3664 16.8219 20.9389
516 2 2.2208 10.8362 21.0187 13.7807
427 2 2.2208 5.38896 9.72201 13.8928
8949 2 2.2208 -0.264154 12.4019 22.2354
396 1 -1.1104 6.5872 8.30322 18.0157
403 1 -1.1104 6.70339 5.41838 18.0848
412 1 -1.1104 6.8523 11.1689 15.1795
404 1 -1.1104 6.69897 11.0717 17.9188
410 1 -1.1104 6.58393 5.57802 15.1785
399 1 -1.1104 6.76557 8.38487 15.1773
429 2 2.2208 10.8429 6.88185 16.6831
430 2 2.2208 10.8746 12.6133 16.7568
431 1 -1.1104 12.3301 8.43531 18.0348
432 1 -1.1104 12.2824 8.33861 15.1867
434 1 -1.1104 12.2453 5.48447 18.0339
435 1 -1.1104 12.3363 11.218 18.0399
436 2 2.2208 10.9054 9.72938 19.5199
437 1 -1.1104 12.116 5.52953 15.3037
439 1 -1.1104 12.3089 11.25 15.2293
441 1 -1.1104 9.43217 8.21577 18.0525
442 2 2.2208 7.9654 6.97433 19.5465
443 2 2.2208 8.07134 12.5679 19.423
444 1 -1.1104 9.46557 8.27443 15.3069
446 2 2.2208 8.17446 9.68342 16.5166
447 1 -1.1104 9.52956 5.61642 18.0085
448 1 -1.1104 9.51105 11.024 17.991
449 1 -1.1104 9.41718 5.67874 15.1544
451 1 -1.1104 9.62501 11.2027 15.2681
453 2 2.2208 8.02522 6.96422 13.8887
455 2 2.2208 8.25399 12.5038 13.8896
454 2 2.2208 10.9274 9.7337 13.7937
610 1 -1.1104 6.62889 14.1094 26.5196
496 1 -1.1104 12.2472 13.9356 20.9061
456 2 2.2208 5.27221 18.1632 16.5758
457 1 -1.1104 1.11368 13.9299 18.026
458 1 -1.1104 1.00236 19.5838 17.9869
461 1 -1.1104 1.12636 13.9366 15.2385
463 1 -1.1104 0.989818 19.7111 15.1169
469 1 -1.1104 1.05195 16.8876 17.9873
471 2 2.2208 5.23865 15.3342 19.5617
472 2 2.2208 5.26858 20.9264 19.4016
473 1 -1.1104 0.928983 16.8368 15.2163
477 1 -1.1104 3.91958 13.9531 18.0128
478 1 -1.1104 3.85968 19.6801 18.0892
479 2 2.2208 2.59688 18.2277 19.5601
480 1 -1.1104 3.95436 14.0167 15.216
482 1 -1.1104 3.96087 19.4471 15.1862
484 2 2.2208 2.52015 15.4071 16.7188
485 2 2.2208 2.48419 21.0326 16.7288
486 1 -1.1104 3.78083 16.6943 18.2305
487 1 -1.1104 3.87019 16.699 15.2043
8257 2 2.2208 10.9459 -4.55687 22.2071
490 2 2.2208 5.21895 20.9485 13.876
489 2 2.2208 2.34659 18.1009 13.8899
491 2 2.2208 5.2457 15.282 13.9162
467 1 -1.1104 6.70906 19.3916 15.3063
466 1 -1.1104 6.60319 13.9911 20.8415
555 1 -1.1104 12.1616 16.9145 23.7843
465 1 -1.1104 6.78723 13.8477 15.3776
475 1 -1.1104 6.67524 16.6866 15.3268
459 1 -1.1104 6.63477 13.9623 18.2575
460 1 -1.1104 6.63628 19.6634 18.0774
470 1 -1.1104 6.48266 16.734 18.0279
492 2 2.2208 10.8953 18.1617 16.6724
493 1 -1.1104 12.2906 14.0449 18.152
494 1 -1.1104 12.2112 19.4518 18.1027
495 1 -1.1104 12.3606 14.0304 15.2904
497 1 -1.1104 12.2947 19.694 15.2727
499 1 -1.1104 12.2003 16.7846 18.0404
500 2 2.2208 10.9404 15.4152 19.5737
501 2 2.2208 10.8887 21.0176 19.5144
502 1 -1.1104 12.3712 16.7945 15.1132
504 1 -1.1104 9.46192 13.8878 18.0788
505 1 -1.1104 9.4071 19.7206 18.0508
506 2 2.2208 8.11772 18.0794 19.4446
507 1 -1.1104 9.53041 13.9252 15.2877
509 1 -1.1104 9.42377 19.5487 15.15
511 2 2.2208 8.10008 15.2371 16.6238
512 2 2.2208 8.01051 21.0295 16.5924
513 1 -1.1104 9.34649 16.7548 17.9821
514 1 -1.1104 9.51136 16.7284 15.2
515 1 -1.1104 9.49275 16.7893 20.7
517 2 2.2208 10.9421 15.3579 13.8565
614 1 -1.1104 9.39214 13.9131 26.4839
581 2 2.2208 10.8271 21.0347 25.0393
349 1 -1.1104 3.79545 -0.214217 20.9272
323 1 -1.1104 1.05739 -3.11055 20.873
8872 2 2.2208 -0.360593 9.75564 19.4075
335 1 -1.1104 1.13264 -0.209559 20.7074
344 1 -1.1104 3.91431 2.58872 20.8537
342 1 -1.1104 3.89785 -2.83668 20.7965
325 1 -1.1104 1.23398 2.67667 20.814
520 2 2.2208 5.20112 1.183 22.2001
521 1 -1.1104 1.00754 -3.04523 23.674
522 1 -1.1104 1.14206 2.52434 23.5354
525 1 -1.1104 1.19898 -2.81459 26.4407
526 1 -1.1104 1.12996 2.69716 26.3092
529 1 -1.1104 1.15666 -0.254528 23.4685
531 2 2.2208 5.33995 -1.53677 25.1381
532 2 2.2208 5.30944 4.00265 25.0603
533 1 -1.1104 1.22667 -0.0853436 26.3997
535 1 -1.1104 3.8586 -2.9815 23.6715
536 1 -1.1104 3.89984 2.59579 23.6499
537 2 2.2208 2.46407 1.33602 24.9694
538 1 -1.1104 3.93061 -3.01184 26.4438
539 1 -1.1104 3.78696 2.67851 26.447
540 2 2.2208 2.57408 -1.57022 22.2124
541 2 2.2208 2.5505 4.04449 22.3086
542 1 -1.1104 3.92677 -0.291855 23.7362
543 1 -1.1104 3.92354 -0.129376 26.4218
548 1 -1.1104 12.1906 14.0156 23.6822
468 1 -1.1104 6.6836 19.5657 20.8
8945 2 2.2208 -0.451421 15.2875 13.8528
552 1 -1.1104 12.3619 19.725 23.6441
508 1 -1.1104 9.41108 14.0347 20.9205
329 1 -1.1104 6.73743 2.72975 20.826
327 1 -1.1104 6.74053 -2.95505 20.7339
376 1 -1.1104 9.54939 -3.00437 20.8328
366 1 -1.1104 12.3001 2.73345 20.6483
371 1 -1.1104 12.4076 -0.279281 20.8029
383 1 -1.1104 9.45343 -0.127765 20.7271
528 1 -1.1104 6.65543 2.604 26.2919
527 1 -1.1104 6.65663 -3.03755 26.4029
524 1 -1.1104 6.75005 2.65898 23.502
534 1 -1.1104 6.83893 -0.24109 26.45
523 1 -1.1104 6.70296 -3.09916 23.7779
530 1 -1.1104 6.59806 -0.26206 23.6164
337 1 -1.1104 6.56429 -0.184911 20.8186
378 1 -1.1104 9.46467 2.70626 20.7347
364 1 -1.1104 12.4329 -3.06078 20.8387
556 2 2.2208 10.9084 1.24502 22.1094
557 1 -1.1104 12.3005 -2.89427 23.5719
558 1 -1.1104 12.2745 2.65344 23.5899
559 1 -1.1104 12.3594 -2.99652 26.5083
560 1 -1.1104 12.3667 2.64698 26.3484
561 1 -1.1104 12.3236 -0.152446 23.5397
562 2 2.2208 10.9083 -1.71252 25.0148
563 2 2.2208 10.874 4.06226 24.9954
564 1 -1.1104 12.276 -0.171517 26.3792
565 1 -1.1104 9.53932 -3.18929 23.5191
566 1 -1.1104 9.57952 2.62803 23.6361
567 2 2.2208 8.09268 1.19878 24.8544
568 1 -1.1104 9.68481 -3.02915 26.3209
569 1 -1.1104 9.44821 2.56492 26.399
570 2 2.2208 8.07333 -1.69049 22.1102
571 2 2.2208 8.1042 4.15887 22.1142
572 1 -1.1104 9.43218 -0.369579 23.5757
573 1 -1.1104 9.5358 -0.137945 26.3275
615 1 -1.1104 9.4859 19.7608 26.4351
582 1 -1.1104 12.2583 16.8258 26.3475
423 1 -1.1104 3.85342 5.44162 20.8182
407 1 -1.1104 1.0334 5.40915 20.8865
409 1 -1.1104 1.07216 11.1882 20.7824
398 1 -1.1104 1.06506 8.29698 20.8354
498 1 -1.1104 12.1266 19.7371 20.815
510 1 -1.1104 9.45607 19.6344 20.987
554 1 -1.1104 12.3251 19.7857 26.5312
425 1 -1.1104 3.95885 11.0774 20.89
418 1 -1.1104 4.00651 8.29313 20.791
585 2 2.2208 5.26023 6.84075 22.2893
586 2 2.2208 5.30888 12.5213 22.2158
587 1 -1.1104 1.08828 8.22395 23.6522
589 1 -1.1104 1.09411 8.35575 26.4305
591 1 -1.1104 1.12379 5.46209 23.7098
592 1 -1.1104 1.05889 10.9988 23.6195
595 2 2.2208 5.24197 9.67809 25.0066
596 1 -1.1104 1.08929 5.49993 26.3712
597 1 -1.1104 1.09844 11.1064 26.4637
600 1 -1.1104 3.98615 8.29194 23.5598
601 2 2.2208 2.56864 6.81364 25.0011
602 2 2.2208 2.39371 12.4999 25.0339
603 1 -1.1104 3.80597 8.14412 26.3861
604 2 2.2208 2.47731 9.63763 22.1606
605 1 -1.1104 3.94297 5.50606 23.6428
606 1 -1.1104 3.91942 11.0379 23.611
607 1 -1.1104 3.92127 5.35305 26.5478
608 1 -1.1104 3.69458 11.0465 26.3827
594 1 -1.1104 6.55458 11.1939 23.6463
411 1 -1.1104 6.63467 5.51268 20.8924
400 1 -1.1104 6.74054 8.40225 20.8187
598 1 -1.1104 6.68026 5.54927 26.5249
593 1 -1.1104 6.65518 5.50911 23.7725
413 1 -1.1104 6.78976 11.1789 20.7851
445 1 -1.1104 9.47887 8.45367 20.7576
438 1 -1.1104 12.3427 5.42956 20.9439
450 1 -1.1104 9.60146 5.50379 20.8907
599 1 -1.1104 6.6498 11.2684 26.5541
590 1 -1.1104 6.68632 8.40882 26.4379
588 1 -1.1104 6.71649 8.27502 23.6726
452 1 -1.1104 9.48034 11.4695 21.0265
440 1 -1.1104 12.18 11.0525 20.9307
433 1 -1.1104 12.3261 8.3176 20.8794
616 1 -1.1104 9.40946 11.0916 26.5177
617 1 -1.1104 9.44315 5.43123 26.4571
618 1 -1.1104 9.26414 11.1094 23.7262
619 1 -1.1104 9.38936 5.37266 23.5959
620 2 2.2208 8.00313 9.80947 22.3244
621 1 -1.1104 9.46957 8.35295 26.5024
622 2 2.2208 8.02033 12.6193 25.2091
623 2 2.2208 8.02251 6.80035 25.1961
624 2 2.2208 10.8867 6.96558 22.3572
625 2 2.2208 10.8212 12.6713 22.359
626 1 -1.1104 12.2689 8.29824 23.6882
627 1 -1.1104 12.2575 8.2095 26.4539
628 1 -1.1104 12.3024 5.47859 23.648
629 1 -1.1104 12.351 11.1502 23.8167
630 2 2.2208 10.8629 9.57568 25.1537
631 1 -1.1104 12.2443 5.45987 26.3408
632 1 -1.1104 12.3685 11.0257 26.544
633 1 -1.1104 9.43938 8.13784 23.7878
576 1 -1.1104 6.57573 16.807 26.3484
462 1 -1.1104 0.982849 13.8981 20.7985
488 1 -1.1104 3.84084 16.8295 20.9125
474 1 -1.1104 1.12989 16.741 20.8763
481 1 -1.1104 3.82753 13.8906 20.9667
551 1 -1.1104 6.68157 16.7339 23.6257
613 1 -1.1104 6.69959 19.747 26.3998
483 1 -1.1104 3.90469 19.6032 21.0279
583 1 -1.1104 9.44281 13.9354 23.7067
464 1 -1.1104 1.1261 19.5704 20.7263
352 1 -1.1104 3.81737 19.6715 26.4675
356 2 2.2208 5.30934 18.2044 22.2958
384 1 -1.1104 1.08115 13.9035 23.4627
385 1 -1.1104 1.17374 19.5067 23.6655
386 2 2.2208 2.43952 15.2628 22.3726
387 2 2.2208 2.4298 21.0181 22.3097
519 2 2.2208 5.20354 15.4369 24.9965
544 2 2.2208 5.30498 21.0083 24.9791
546 1 -1.1104 0.928592 13.9472 26.5339
549 1 -1.1104 3.83361 16.7728 23.5698
550 1 -1.1104 1.17213 16.6682 23.7247
574 1 -1.1104 0.971202 16.7786 26.6264
575 1 -1.1104 1.00152 19.5872 26.5081
578 1 -1.1104 3.82612 13.9903 26.493
579 1 -1.1104 3.87877 16.7712 26.4207
580 2 2.2208 2.48512 18.1265 25.1102
609 1 -1.1104 3.79818 13.9356 23.7698
611 1 -1.1104 3.88055 19.6388 23.7138
389 1 -1.1104 6.63287 14.0655 23.6534
634 1 -1.1104 9.40676 16.6903 23.6541
545 1 -1.1104 6.77053 19.5532 23.5649
636 2 2.2208 8.06087 15.3452 22.3778
547 2 2.2208 10.9001 18.2101 22.3962
577 2 2.2208 10.8884 15.4589 25.0225
584 1 -1.1104 9.46879 19.447 23.6795
351 1 -1.1104 9.50483 16.722 26.379
553 1 -1.1104 12.2806 13.9862 26.5209
476 1 -1.1104 6.79117 16.6776 20.9122
8763 2 2.2208 13.6689 1.23332 19.4334
8756 2 2.2208 -0.279816 18.2091 22.238
8832 2 2.2208 13.5986 6.85534 19.391
8972 2 2.2208 13.6051 15.3177 22.1911
8974 2 2.2208 -0.400413 9.75278 24.9858
8904 2 2.2208 13.6866 21.0724 16.5258
8838 2 2.2208 -0.357958 12.6309 16.5866
8943 2 2.2208 -0.351665 15.4603 19.4449
8804 2 2.2208 -0.275594 4.02359 24.9831
8873 2 2.2208 -0.288203 6.85154 16.6122
8973 2 2.2208 13.65 1.25021 24.9748
8800 2 2.2208 -0.201983 4.00926 19.4799
354 2 2.2208 -0.216363 -1.62992 19.2977
8964 2 2.2208 13.7451 4.14456 22.137
8799 2 2.2208 -0.189765 -1.62662 24.9771
8755 2 2.2208 -0.406946 21.0346 25.1398
8947 2 2.2208 13.6138 12.4357 25.1404
8901 2 2.2208 13.7827 15.3713 16.7337
8282 2 2.2208 5.34392 -4.42546 22.4174
8258 2 2.2208 2.65202 -4.4422 25.1476
8344 2 2.2208 2.47364 -4.34736 13.8766
637 2 2.2208 5.07512 23.6355 5.48026
638 2 2.2208 5.21094 29.4301 5.3772
639 1 -1.1104 1.06703 25.3494 1.27533
640 1 -1.1104 0.868977 25.288 4.0533
641 1 -1.1104 0.935988 22.5171 1.30116
642 1 -1.1104 0.939488 28.1409 1.15189
643 2 2.2208 5.34963 26.7684 2.57966
644 1 -1.1104 0.993832 22.4433 4.01186
645 1 -1.1104 1.06799 27.992 3.93576
646 1 -1.1104 3.83535 25.4523 1.28076
647 2 2.2208 2.24649 23.9205 2.71066
648 2 2.2208 2.32035 29.5064 2.5776
649 1 -1.1104 3.82522 25.1269 4.07588
650 2 2.2208 2.44066 26.6581 5.37688
651 1 -1.1104 3.64582 22.5936 1.19598
652 1 -1.1104 3.70269 28.1422 1.16211
653 1 -1.1104 3.81186 22.2333 3.95637
654 1 -1.1104 3.86709 27.9673 3.96129
786 1 -1.1104 3.702 28.127 6.84474
659 1 -1.1104 6.58484 25.2105 4.13576
658 1 -1.1104 6.67902 25.2903 1.26658
663 1 -1.1104 6.64334 28.0446 4.04923
1162 2 2.2208 5.21539 29.5445 -0.225678
942 2 2.2208 2.46961 26.6202 -0.22964
945 2 2.2208 2.45068 43.4646 -0.0939856
941 2 2.2208 5.24286 23.9673 -0.280365
9439 2 2.2208 13.5826 43.5209 -0.133292
9142 2 2.2208 13.5748 37.8996 5.43565
661 1 -1.1104 6.64355 28.0842 1.21324
944 2 2.2208 10.771 23.7493 -0.186594
662 1 -1.1104 6.49657 22.3727 4.03333
660 1 -1.1104 6.53071 22.686 1.15694
664 2 2.2208 10.769 23.7836 5.43377
665 2 2.2208 10.7824 29.4496 5.30172
666 1 -1.1104 12.2774 25.1482 1.26765
667 1 -1.1104 12.1193 25.1475 4.12617
668 1 -1.1104 12.1236 22.4444 1.26846
669 1 -1.1104 12.046 28.0624 1.16485
670 2 2.2208 10.7787 26.6618 2.5658
671 1 -1.1104 12.2925 22.4272 4.03621
672 1 -1.1104 12.1493 27.9798 3.95777
673 1 -1.1104 9.35024 25.1245 1.10525
674 2 2.2208 7.97954 23.7668 2.5589
675 2 2.2208 8.11477 29.4176 2.5302
676 1 -1.1104 9.35392 25.1574 3.94524
677 2 2.2208 7.9882 26.6331 5.39835
678 1 -1.1104 9.29996 22.3138 1.1825
679 1 -1.1104 9.29225 28.0462 1.163
680 1 -1.1104 9.35959 22.3826 4.0411
681 1 -1.1104 9.45979 27.9502 3.91685
946 2 2.2208 7.94898 26.5777 -0.234115
779 1 -1.1104 6.68353 25.1582 6.76895
947 2 2.2208 10.8203 29.5459 -0.262478
706 1 -1.1104 9.30788 39.3008 6.763
757 1 -1.1104 11.9844 44.9639 12.371
1221 2 2.2208 5.1094 35.0792 -0.136421
685 2 2.2208 5.06568 35.0861 5.36903
686 1 -1.1104 0.984013 30.9082 1.08622
687 1 -1.1104 0.954997 36.3359 1.2087
689 1 -1.1104 0.970062 30.8671 4.05305
690 1 -1.1104 1.00519 36.333 3.91759
692 1 -1.1104 0.962438 33.6005 1.06636
693 2 2.2208 5.2096 32.2006 2.6966
694 2 2.2208 5.08864 37.7974 2.66685
695 1 -1.1104 0.884887 33.682 3.89541
697 1 -1.1104 3.76053 31.0548 1.25198
698 1 -1.1104 3.72716 36.5551 1.10536
699 2 2.2208 2.3023 35.051 2.54972
700 1 -1.1104 3.75938 30.8286 3.96996
701 1 -1.1104 3.69008 36.4374 3.81784
702 2 2.2208 2.3514 32.1775 5.38941
703 2 2.2208 2.23873 37.9283 5.33313
704 1 -1.1104 3.8065 33.7342 1.15698
705 1 -1.1104 3.81073 33.686 3.97014
777 1 -1.1104 12.2226 39.2626 9.56729
1220 2 2.2208 2.404 32.2105 -0.280234
688 1 -1.1104 6.49882 36.3986 1.25865
696 1 -1.1104 6.44338 33.4002 4.19722
1219 2 2.2208 2.36218 37.9717 -0.204376
1249 2 2.2208 7.95077 37.9636 -0.120516
9400 2 2.2208 13.4313 43.6131 11.1327
1251 2 2.2208 10.9288 35.3238 -0.152207
710 1 -1.1104 6.65533 30.6057 4.05569
709 1 -1.1104 6.45536 30.8227 1.19175
711 1 -1.1104 6.59383 33.5994 1.37247
691 1 -1.1104 6.50463 36.3571 4.05976
712 2 2.2208 10.6817 35.0485 5.62432
713 1 -1.1104 12.1024 30.8612 1.24654
714 1 -1.1104 12.296 36.6585 1.33833