ITEM: TIMESTEP
90000
ITEM: NUMBER OF ATOMS
17700
ITEM: BOX BOUNDS pp pp pp
-3.5449991200068171e-01 2.7694499912001159e+01
-4.2507209385638882e+00 3.3233072093855822e+02
-3.5407443937248734e-01 2.7694074439371882e+01
ITEM: ATOMS id type q x y z
1 2 2.2208 5.21655 1.49301 5.20574
2 1 -1.1104 1.03931 -2.7686 1.0307
3 1 -1.1104 0.928536 2.87425 0.881097
6 1 -1.1104 1.11387 -2.62014 3.67742
7 1 -1.1104 1.04025 2.76645 3.81781
10 1 -1.1104 1.09862 0.00714404 1.03552
12 2 2.2208 5.38062 -1.25054 2.59352
13 2 2.2208 5.3958 4.14491 2.44555
14 1 -1.1104 0.938987 0.158011 3.79017
16 1 -1.1104 3.98936 -2.92909 1.15056
17 1 -1.1104 3.91177 2.79069 1.0171
18 2 2.2208 2.43608 1.41157 2.36738
19 1 -1.1104 4.06668 -2.75608 3.9979
20 1 -1.1104 3.94712 2.85282 3.67723
21 2 2.2208 2.46055 -1.3899 5.24475
23 1 -1.1104 3.92835 -0.0377226 0.953904
24 1 -1.1104 3.90205 0.165454 3.831
4 1 -1.1104 6.66926 -2.81204 1.17756
11 1 -1.1104 6.70277 0.042279 1.1913
170 1 -1.1104 1.22381 -0.0242977 6.7851
167 1 -1.1104 1.04792 2.70547 6.67669
5 1 -1.1104 6.88806 2.91829 0.953762
172 1 -1.1104 4.05956 -2.77634 6.59031
168 1 -1.1104 6.79757 -2.78213 6.72024
8585 2 2.2208 -0.393004 4.20586 8.0337
15 1 -1.1104 6.76279 0.0781569 3.99394
9 1 -1.1104 6.7081 2.83473 3.81845
171 1 -1.1104 6.81704 0.120917 6.6929
8697 2 2.2208 -0.317998 21.0641 2.25872
8 1 -1.1104 6.82417 -2.8822 3.93318
169 1 -1.1104 6.65783 2.84942 6.61485
31 2 2.2208 10.9188 1.32869 5.25504
32 1 -1.1104 12.403 -2.77383 1.06277
33 1 -1.1104 12.3634 2.79874 1.04925
34 1 -1.1104 12.3451 -2.84728 3.87969
35 1 -1.1104 12.4118 2.73848 3.82505
36 1 -1.1104 12.2134 0.0545089 1.15007
37 2 2.2208 11.0203 -1.44428 2.48181
38 2 2.2208 10.9796 4.1715 2.41575
39 1 -1.1104 12.4594 -0.0412238 3.77849
40 1 -1.1104 9.50511 -2.86388 1.05085
41 1 -1.1104 9.50575 2.62383 1.08363
42 2 2.2208 8.24125 1.25223 2.57952
43 1 -1.1104 9.45183 -2.76061 3.80963
44 1 -1.1104 9.54 2.75766 3.76875
45 2 2.2208 8.21643 -1.34677 5.39782
46 2 2.2208 8.08298 4.12591 5.08455
47 1 -1.1104 9.45333 -0.074301 1.14242
48 1 -1.1104 9.68206 0.0203619 3.77633
206 1 -1.1104 12.1215 2.82173 6.67599
210 1 -1.1104 9.69981 0.0119378 6.72147
205 1 -1.1104 12.2657 -2.88571 6.66097
8619 2 2.2208 -0.241425 9.77253 8.03532
17328 2 2.2208 -0.318461 -4.22019 5.19007
8945 2 2.2208 -0.213333 15.3762 13.5054
7984 2 2.2208 2.51864 -4.25218 2.38945
8620 2 2.2208 -0.244939 6.96229 10.8315
8525 2 2.2208 13.5359 4.29415 10.8574
22 2 2.2208 2.4607 4.19329 5.14063
54 2 2.2208 5.28495 6.96816 5.20825
55 2 2.2208 5.25318 12.6817 5.1529
56 1 -1.1104 1.1089 8.55907 0.982968
58 1 -1.1104 1.06928 8.32352 3.70874
60 1 -1.1104 1.00067 5.61313 1.10729
61 1 -1.1104 1.00229 11.2098 0.899011
66 2 2.2208 5.26942 9.76635 2.37311
67 1 -1.1104 1.13558 5.62361 3.87369
68 1 -1.1104 1.14364 11.1436 3.70589
71 1 -1.1104 3.81017 8.40783 0.744124
72 2 2.2208 2.54364 7.0336 2.35328
73 2 2.2208 2.49624 12.6332 2.32613
74 1 -1.1104 3.893 8.39562 3.62981
75 2 2.2208 2.50343 9.6846 5.14466
76 1 -1.1104 3.97615 5.5436 1.08021
77 1 -1.1104 3.93001 11.2098 0.974572
79 1 -1.1104 3.86332 5.56801 3.90785
80 1 -1.1104 3.79279 11.168 3.76426
236 1 -1.1104 1.11719 5.57481 6.64703
238 1 -1.1104 3.86169 8.41669 6.59647
239 1 -1.1104 4.01166 5.78627 6.65202
63 1 -1.1104 6.75162 5.72456 0.778136
69 1 -1.1104 6.7526 5.59377 3.79964
59 1 -1.1104 6.67279 8.19555 3.73623
234 1 -1.1104 1.21305 8.29341 6.58147
455 2 2.2208 8.23846 12.5739 13.5991
143 1 -1.1104 12.3027 14.1286 6.45847
64 1 -1.1104 6.63959 11.2897 0.946368
57 1 -1.1104 6.60012 8.49119 0.952791
70 1 -1.1104 6.73742 10.9911 3.76199
84 2 2.2208 10.8978 6.95071 5.04649
85 2 2.2208 10.8753 12.7331 5.1564
86 1 -1.1104 12.1153 8.44739 0.934566
87 1 -1.1104 12.3828 8.54789 3.80429
88 1 -1.1104 12.2329 5.63096 1.00877
89 1 -1.1104 12.3973 11.2259 1.00673
91 2 2.2208 10.8155 9.85331 2.41425
92 1 -1.1104 12.3396 5.65696 3.73251
93 1 -1.1104 12.2642 11.3849 3.7749
94 1 -1.1104 9.30957 8.40352 1.10578
95 2 2.2208 8.03298 6.96142 2.30206
96 2 2.2208 8.1835 12.671 2.4023
97 1 -1.1104 9.59632 8.5232 3.76837
98 2 2.2208 8.21195 9.79583 5.13709
99 1 -1.1104 9.53399 5.58582 0.984615
100 1 -1.1104 9.43988 11.2638 0.996598
102 1 -1.1104 9.54464 5.64405 3.76773
103 1 -1.1104 9.46635 11.372 3.7857
269 1 -1.1104 9.5534 5.49348 6.49023
266 1 -1.1104 12.2406 5.6969 6.51751
237 1 -1.1104 6.67298 5.61349 6.60809
90 1 -1.1104 12.2739 11.235 6.59599
235 1 -1.1104 6.63159 8.43275 6.55325
154 1 -1.1104 9.42248 14.1287 6.5369
267 1 -1.1104 9.47004 8.27288 6.55873
53 2 2.2208 11.0634 15.4329 8.03849
8835 2 2.2208 13.6288 12.5558 13.5059
8876 2 2.2208 -0.282097 9.72024 13.5725
106 2 2.2208 5.35933 18.208 5.01055
107 1 -1.1104 1.08366 14.1105 0.932922
109 1 -1.1104 1.26364 19.6399 0.987236
113 1 -1.1104 1.11513 14.0247 3.76909
114 1 -1.1104 1.14895 19.5635 3.7346
116 1 -1.1104 1.05507 16.9582 0.895053
119 2 2.2208 5.33191 15.3109 2.26117
120 2 2.2208 5.28763 21.1061 2.30365
121 1 -1.1104 1.11454 16.7537 3.6156
123 1 -1.1104 4.01064 13.9565 0.883115
125 1 -1.1104 4.03398 19.6159 0.81432
127 2 2.2208 2.6487 18.2086 2.29006
128 1 -1.1104 3.81877 13.8855 3.67973
129 1 -1.1104 3.95208 19.6955 3.69592
130 2 2.2208 2.44211 15.5245 5.05201
131 2 2.2208 2.57161 21.058 5.25942
132 1 -1.1104 3.98037 16.8041 0.803101
134 1 -1.1104 3.94956 16.7301 3.61739
138 1 -1.1104 6.72714 19.7122 0.971677
8418 2 2.2208 -0.304634 15.4696 7.86048
8392 2 2.2208 -0.298936 21.0036 7.96379
105 2 2.2208 8.10917 18.2286 7.89632
203 1 -1.1104 1.10732 19.6947 6.65624
357 2 2.2208 5.36522 -1.4806 13.6894
139 1 -1.1104 6.71872 19.7025 3.78216
111 1 -1.1104 6.69468 14.041 6.53303
118 1 -1.1104 6.68758 16.8971 6.65396
110 1 -1.1104 6.90454 14.0501 1.09834
122 1 -1.1104 6.73531 16.73 3.80369
140 1 -1.1104 6.72979 16.7497 1.03441
156 1 -1.1104 9.45619 19.676 6.4143
145 1 -1.1104 12.3224 19.5991 6.59583
163 1 -1.1104 9.66359 16.8067 6.53223
115 1 -1.1104 6.75825 14.091 3.78087
141 2 2.2208 10.9966 18.2418 5.12823
142 1 -1.1104 12.3101 14.117 0.790489
144 1 -1.1104 12.2799 19.7311 1.04848
146 1 -1.1104 12.4069 14.1606 3.70704
147 1 -1.1104 12.4592 19.7029 3.87642
148 1 -1.1104 12.4191 16.7822 1.08139
150 2 2.2208 11.039 15.5002 2.34256
151 2 2.2208 10.8701 21.0331 2.41976
152 1 -1.1104 12.4035 16.9732 3.85416
153 1 -1.1104 9.5059 14.0314 0.922455
155 1 -1.1104 9.46521 19.5893 0.999074
157 2 2.2208 8.06856 18.2615 2.3145
158 1 -1.1104 9.51673 14.1712 3.6711
159 1 -1.1104 9.52715 19.7057 3.70161
160 2 2.2208 8.13245 15.4491 5.19727
161 2 2.2208 8.09144 21.1511 5.09216
162 1 -1.1104 9.60313 16.8879 0.922839
164 1 -1.1104 9.53978 16.989 3.77842
149 1 -1.1104 12.5924 16.7367 6.62556
8550 2 2.2208 13.6884 1.36157 8.08306
7985 2 2.2208 5.4259 -4.16281 5.22258
27 1 -1.1104 12.1949 19.528 12.2776
8689 2 2.2208 -0.338653 -1.31115 2.31423
359 2 2.2208 5.15048 4.19322 13.7055
173 1 -1.1104 3.83691 2.84087 6.59147
166 1 -1.1104 1.20442 -2.88007 6.39149
174 1 -1.1104 3.9923 0.126096 6.6062
358 2 2.2208 2.40292 1.29301 13.4737
350 2 2.2208 -0.365324 4.1141 13.6524
491 2 2.2208 5.36765 15.375 13.6124
426 2 2.2208 2.44566 6.94322 13.6202
175 2 2.2208 5.21715 1.26206 10.8869
176 1 -1.1104 1.11001 -2.87929 12.1707
177 1 -1.1104 1.02309 2.83969 12.2361
180 1 -1.1104 0.998128 -2.85051 9.33076
181 1 -1.1104 1.13416 2.73858 9.52611
184 1 -1.1104 0.980489 -0.237055 12.1226
186 2 2.2208 5.28973 -1.44066 8.02968
188 1 -1.1104 1.22122 -0.0796146 9.46804
190 1 -1.1104 3.97683 -2.9057 12.1717
191 1 -1.1104 3.8135 2.82213 12.2641
192 2 2.2208 2.45395 1.39428 8.04216
193 1 -1.1104 3.86376 -2.97144 9.40058
194 1 -1.1104 3.8206 2.71482 9.46339
195 2 2.2208 2.50074 -1.64749 10.8208
197 1 -1.1104 3.76344 -0.106756 12.2164
198 1 -1.1104 4.04458 -0.150315 9.48941
196 2 2.2208 2.48555 4.22124 10.9183
187 2 2.2208 5.2793 4.16327 8.03913
189 1 -1.1104 6.7099 -0.128723 9.47288
179 1 -1.1104 6.69076 2.71551 12.2436
178 1 -1.1104 6.71735 -2.91221 12.1936
183 1 -1.1104 6.57275 2.69879 9.46365
8698 2 2.2208 -0.29245 7.0082 5.29476
200 1 -1.1104 9.67155 16.6398 9.38239
7991 2 2.2208 8.09173 -4.15485 8.06724
208 1 -1.1104 9.55165 -2.76037 6.71404
209 1 -1.1104 9.35356 2.75408 6.53058
7986 2 2.2208 8.03 -4.18896 2.45536
185 1 -1.1104 6.6808 -0.118606 12.3728
182 1 -1.1104 6.68814 -2.93217 9.36212
207 1 -1.1104 12.3872 -0.123582 6.63454
211 2 2.2208 10.7916 1.42462 10.7968
212 1 -1.1104 12.3608 -2.95821 12.3326
213 1 -1.1104 12.1748 2.74713 12.1518
214 1 -1.1104 12.4463 -2.88947 9.34659
215 1 -1.1104 12.2686 2.91461 9.36915
216 1 -1.1104 12.2845 0.0101308 12.2688
217 2 2.2208 10.9219 -1.29572 8.06891
219 1 -1.1104 12.1999 0.0917058 9.4331
220 1 -1.1104 9.44323 -2.79549 12.091
221 1 -1.1104 9.49844 2.61314 12.3021
222 2 2.2208 8.05908 1.34872 8.063
223 1 -1.1104 9.66558 -2.78961 9.43517
224 1 -1.1104 9.49748 2.76349 9.33212
225 2 2.2208 8.0273 -1.47508 10.8312
226 2 2.2208 8.06097 4.1042 10.7859
227 1 -1.1104 9.45998 -0.0604463 12.138
228 1 -1.1104 9.37042 -0.0172527 9.3894
218 2 2.2208 10.8439 4.20722 7.89771
8692 2 2.2208 -0.301063 1.57316 5.23885
199 1 -1.1104 9.43652 16.7511 12.2283
453 2 2.2208 7.8895 6.93286 13.7345
26 1 -1.1104 12.0498 14.0925 12.3301
62 1 -1.1104 1.12288 11.0748 6.49699
78 1 -1.1104 4.00315 11.1539 6.66958
290 1 -1.1104 6.75208 13.9127 9.19878
240 2 2.2208 5.36443 6.9894 10.8555
241 2 2.2208 5.39778 12.5551 10.8012
242 1 -1.1104 1.15584 8.44626 12.1414
244 1 -1.1104 1.12219 8.37776 9.29629
246 1 -1.1104 1.08069 5.64179 12.3674
247 1 -1.1104 1.08897 11.3199 12.1688
250 2 2.2208 5.34553 9.80145 8.06762
251 1 -1.1104 1.07062 5.58405 9.4084
252 1 -1.1104 1.18303 11.1614 9.34463
255 1 -1.1104 3.87993 8.26342 12.2252
256 2 2.2208 2.45832 7.00325 8.03683
257 2 2.2208 2.57661 12.7798 7.88121
258 1 -1.1104 3.96438 8.46095 9.43229
259 2 2.2208 2.52368 9.89848 10.6759
260 1 -1.1104 3.878 5.55163 12.3548
261 1 -1.1104 3.99381 11.1474 12.1908
262 1 -1.1104 3.82996 5.64221 9.62326
263 1 -1.1104 3.95583 11.3017 9.41671
254 1 -1.1104 6.823 11.177 9.22849
8703 2 2.2208 -0.371735 15.3529 2.40875
101 1 -1.1104 9.4465 11.2602 6.5917
65 1 -1.1104 6.75027 11.3016 6.53664
243 1 -1.1104 6.5836 8.38232 12.2697
249 1 -1.1104 6.78108 11.0915 12.0696
248 1 -1.1104 6.67239 5.53657 12.3153
245 1 -1.1104 6.62469 8.26722 9.37405
253 1 -1.1104 6.69046 5.56574 9.44336
265 1 -1.1104 12.2569 8.42745 6.67646
264 1 -1.1104 9.69385 11.1255 9.3362
268 1 -1.1104 9.44814 5.51228 9.36253
270 1 -1.1104 9.52774 11.1329 12.1768
271 1 -1.1104 9.45744 5.41087 12.2091
272 2 2.2208 8.10561 9.74186 10.7094
273 1 -1.1104 9.48751 8.43793 9.32333
274 2 2.2208 8.00846 12.5039 7.8921
275 2 2.2208 7.93936 6.97624 8.07976
276 2 2.2208 10.9187 6.98576 10.8465
277 2 2.2208 10.8648 12.4889 10.8661
278 1 -1.1104 12.3937 8.46805 12.1828
279 1 -1.1104 12.3057 8.3889 9.45499
280 1 -1.1104 12.4382 5.68479 12.2091
281 1 -1.1104 12.3014 11.2062 12.1932
282 2 2.2208 11.0507 9.83723 8.00797
283 1 -1.1104 12.227 5.60926 9.29087
284 1 -1.1104 12.536 11.2054 9.369
285 1 -1.1104 9.42498 8.30949 12.1247
25 2 2.2208 10.9539 18.0993 10.7213
391 2 2.2208 10.8479 -1.49119 13.5952
81 2 2.2208 10.9423 20.9138 7.98207
83 1 -1.1104 9.46599 13.9226 12.2601
49 1 -1.1104 12.3527 19.5646 9.45385
108 1 -1.1104 1.06041 13.921 6.67515
112 1 -1.1104 6.71994 19.7262 6.49619
124 1 -1.1104 3.82856 14.0724 6.42761
126 1 -1.1104 3.88708 19.5642 6.54871
8700 2 2.2208 -0.228619 12.6861 5.10392
288 1 -1.1104 6.75529 19.5617 9.36258
289 1 -1.1104 6.72838 16.829 9.42219
133 1 -1.1104 3.92613 16.9387 6.52387
117 1 -1.1104 1.05082 16.8531 6.4606
28 1 -1.1104 1.04188 16.8288 12.0836
51 1 -1.1104 3.78862 14.1435 9.28857
52 1 -1.1104 4.00504 16.8096 9.32635
202 2 2.2208 2.48382 18.2192 7.98336
204 1 -1.1104 3.87929 19.5207 9.4074
229 2 2.2208 2.64462 15.4447 10.71
230 2 2.2208 2.46672 21.0419 10.821
231 2 2.2208 5.25399 18.2449 10.7633
232 1 -1.1104 1.25761 14.0881 12.1749
233 1 -1.1104 3.8635 16.8344 12.2072
286 1 -1.1104 3.84365 19.6612 12.1556
287 1 -1.1104 3.96156 13.9391 12.1893
291 1 -1.1104 1.11561 19.5504 9.42661
292 1 -1.1104 1.14296 16.8827 9.1769
293 2 2.2208 5.35736 20.9229 7.88927
294 1 -1.1104 1.16597 14.0622 9.37989
295 2 2.2208 5.31923 15.504 7.85177
298 1 -1.1104 1.07735 19.5893 12.174
29 1 -1.1104 6.73678 16.7736 12.1622
8699 2 2.2208 -0.315272 9.78618 2.42495
296 1 -1.1104 6.58204 19.7696 12.1125
201 2 2.2208 -0.321104 1.45392 10.8312
104 1 -1.1104 9.37301 19.6464 12.3344
297 1 -1.1104 6.82214 13.879 12.063
135 1 -1.1104 9.56992 13.9454 9.34661
136 1 -1.1104 9.6173 19.4858 9.20193
82 1 -1.1104 12.4194 16.8356 9.41681
30 1 -1.1104 12.4077 14.0472 9.31885
165 2 2.2208 8.0709 20.9253 10.7698
137 2 2.2208 8.18858 15.3513 10.6996
50 1 -1.1104 12.3782 16.819 12.232
516 2 2.2208 10.9483 20.9509 13.662
8551 2 2.2208 -0.28111 -1.47035 7.99406
8417 2 2.2208 -0.258642 18.1452 10.7107
8694 2 2.2208 -0.179239 18.3215 5.10018
17320 2 2.2208 13.8277 -4.18717 7.95751
8612 2 2.2208 -0.335319 12.6088 10.8326
428 2 2.2208 2.61289 12.6122 13.6046
316 2 2.2208 11.0444 12.5843 -0.367521
7999 2 2.2208 5.36844 -4.20327 -0.273024
518 2 2.2208 8.19148 18.1626 13.7014
427 2 2.2208 5.19089 9.78252 13.6592
489 2 2.2208 2.53357 18.2148 13.5171
390 2 2.2208 8.11462 1.22826 13.6679
307 2 2.2208 2.54729 4.16036 -0.410702
317 2 2.2208 5.42815 1.2801 16.4648
318 1 -1.1104 1.19679 -2.71949 17.7274
319 1 -1.1104 1.07429 2.85011 17.8897
322 1 -1.1104 1.13829 -2.89057 14.9747
324 1 -1.1104 1.10055 2.68308 15.0293
330 1 -1.1104 1.08793 0.0630525 17.8733
332 2 2.2208 5.27103 -1.51545 19.3273
333 2 2.2208 5.36153 4.14496 19.2515
334 1 -1.1104 0.970149 -0.0904637 14.9318
338 1 -1.1104 3.90979 -2.87834 17.8337
339 1 -1.1104 4.08314 2.74209 17.8518
340 2 2.2208 2.488 1.31024 19.275
341 1 -1.1104 4.06118 -2.88782 14.9891
343 1 -1.1104 3.81676 2.64125 15.0975
345 2 2.2208 2.43633 -1.40029 16.2982
347 1 -1.1104 3.95845 -0.060368 17.7538
348 1 -1.1104 3.95826 -0.0308694 14.9653
346 2 2.2208 2.49258 4.09899 16.4602
349 1 -1.1104 3.94182 -0.0941144 20.5951
325 1 -1.1104 1.06826 2.6698 20.6906
329 1 -1.1104 6.72245 2.65188 20.6678
342 1 -1.1104 3.86592 -2.91779 20.5983
335 1 -1.1104 1.13371 0.0110217 20.6392
323 1 -1.1104 1.09108 -2.6968 20.5832
8231 2 2.2208 8.15109 -4.19738 24.9186
8258 2 2.2208 2.48696 -4.2776 24.9431
306 2 2.2208 2.6227 -1.42941 27.7264
344 1 -1.1104 3.88204 2.65287 20.5185
299 2 2.2208 2.47731 15.5431 27.5023
8974 2 2.2208 -0.326483 9.79455 24.6307
8942 2 2.2208 -0.26964 21.124 19.2975
336 1 -1.1104 6.84842 -0.229088 15.1229
326 1 -1.1104 6.73783 -2.86486 15.0888
304 2 2.2208 8.12162 20.9984 27.641
328 1 -1.1104 6.60695 2.57346 14.9757
320 1 -1.1104 6.76029 -2.77015 17.8759
321 1 -1.1104 6.87683 2.6617 17.8058
331 1 -1.1104 6.71951 -0.135626 17.9949
360 2 2.2208 10.9129 1.41279 16.3692
361 1 -1.1104 12.331 -2.9687 17.733
362 1 -1.1104 12.3337 2.76996 17.8821
363 1 -1.1104 12.2501 -2.79715 15.0099
365 1 -1.1104 12.3376 2.77335 15.0344
367 1 -1.1104 12.3386 -0.0646303 17.8377
368 2 2.2208 10.8383 -1.3692 19.1782
370 1 -1.1104 12.3499 -0.0114551 15.1108
372 1 -1.1104 9.59193 -2.68345 17.8087
373 1 -1.1104 9.53051 2.72984 17.9998
374 2 2.2208 8.15989 1.34742 19.3063
375 1 -1.1104 9.49944 -2.83756 14.9805
377 1 -1.1104 9.40295 2.8406 15.1825
379 2 2.2208 8.13966 -1.48571 16.4698
381 1 -1.1104 9.49562 -0.0128521 17.7216
382 1 -1.1104 9.65518 -0.0196097 14.9041
369 2 2.2208 10.9137 4.26732 19.1776
380 2 2.2208 8.00271 4.11181 16.3676
8257 2 2.2208 10.9446 -4.17342 21.9947
364 1 -1.1104 12.2308 -2.7052 20.5668
8316 2 2.2208 10.9893 -4.30139 16.498
376 1 -1.1104 9.59309 -2.86347 20.6105
378 1 -1.1104 9.47673 2.89333 20.5842
582 1 -1.1104 12.4502 16.9503 26.1993
327 1 -1.1104 6.72143 -2.85101 20.5724
581 2 2.2208 10.928 21.0226 24.9137
614 1 -1.1104 9.48186 13.928 26.2107
8800 2 2.2208 -0.315835 4.19257 19.2451
17549 2 2.2208 -0.281124 -4.11121 22.0338
393 2 2.2208 5.27833 6.95971 16.5033
394 2 2.2208 5.39344 12.6694 16.3759
395 1 -1.1104 1.27262 8.54867 17.664
397 1 -1.1104 1.0872 8.58589 14.9537
401 1 -1.1104 1.15301 5.75355 17.9787
402 1 -1.1104 1.17893 11.3049 17.8591
405 2 2.2208 5.27828 9.77614 19.1934
406 1 -1.1104 1.0081 5.56862 15.1112
408 1 -1.1104 1.1339 11.2105 15.0416
414 1 -1.1104 3.89582 8.30663 17.7857
415 2 2.2208 2.53698 7.00816 19.1837
416 2 2.2208 2.47706 12.6819 19.2251
417 1 -1.1104 3.81276 8.26848 15.089
419 2 2.2208 2.51446 9.93845 16.3578
420 1 -1.1104 3.95168 5.62392 17.872
421 1 -1.1104 3.96931 11.2271 17.7613
422 1 -1.1104 3.61163 5.49249 15.1307
424 1 -1.1104 3.9046 11.1927 14.9786
404 1 -1.1104 6.6117 11.2482 17.7638
407 1 -1.1104 1.11449 5.49019 20.5688
418 1 -1.1104 4.01835 8.36972 20.5997
398 1 -1.1104 1.04144 8.39361 20.5429
410 1 -1.1104 6.5885 5.47559 15.0796
403 1 -1.1104 6.69714 5.56137 17.8191
396 1 -1.1104 6.70038 8.51039 17.9113
411 1 -1.1104 6.66578 5.50011 20.4944
423 1 -1.1104 3.93915 5.53957 20.7537
400 1 -1.1104 6.69847 8.47364 20.816
635 2 2.2208 8.11415 21.0621 22.0898
354 2 2.2208 -0.354582 -1.32586 19.2771
8831 2 2.2208 13.6396 9.7896 16.4332
399 1 -1.1104 6.64864 8.30465 15.1332
412 1 -1.1104 6.7429 11.1296 14.953
429 2 2.2208 10.8438 6.94074 16.3984
430 2 2.2208 10.8979 12.623 16.5281
431 1 -1.1104 12.2988 8.43005 17.7708
432 1 -1.1104 12.1805 8.45162 14.9536
434 1 -1.1104 12.291 5.69361 17.6647
435 1 -1.1104 12.2016 11.074 17.9114
436 2 2.2208 10.7319 9.66533 19.2255
437 1 -1.1104 12.3043 5.67482 14.9654
439 1 -1.1104 12.2435 11.2915 14.9678
441 1 -1.1104 9.49831 8.29698 17.7438
442 2 2.2208 8.07094 7.02244 19.1859
443 2 2.2208 8.06795 12.639 19.2972
444 1 -1.1104 9.26903 8.4984 15.038
446 2 2.2208 7.98697 9.86754 16.4668
447 1 -1.1104 9.31009 5.46127 17.709
448 1 -1.1104 9.42974 11.1132 17.9347
449 1 -1.1104 9.45965 5.82021 14.9693
451 1 -1.1104 9.51356 11.3329 15.0277
440 1 -1.1104 12.178 11.1151 20.6635
438 1 -1.1104 12.155 5.72308 20.5037
452 1 -1.1104 9.5485 11.2541 20.5656
433 1 -1.1104 12.2112 8.35478 20.6705
468 1 -1.1104 6.72814 19.6444 20.5258
305 2 2.2208 5.4559 1.4157 27.7202
456 2 2.2208 5.29444 18.2314 16.4362
457 1 -1.1104 1.12907 14.0462 17.7768
458 1 -1.1104 1.23799 19.6841 17.8188
461 1 -1.1104 1.05314 13.9564 14.9621
463 1 -1.1104 1.17532 19.6072 15.028
469 1 -1.1104 1.00779 16.7461 17.7491
471 2 2.2208 5.29737 15.4773 19.2429
472 2 2.2208 5.42207 21.1214 19.2297
473 1 -1.1104 1.12082 16.7582 14.9508
477 1 -1.1104 3.99087 14.172 17.7878
478 1 -1.1104 3.95274 19.6493 17.875
479 2 2.2208 2.49156 18.3483 19.2303
480 1 -1.1104 3.94434 14.0708 15.0053
482 1 -1.1104 3.93918 19.5982 14.9442
484 2 2.2208 2.53136 15.3924 16.3459
485 2 2.2208 2.58407 21.036 16.4646
486 1 -1.1104 3.86701 16.9479 17.7546
487 1 -1.1104 3.95224 16.8236 15.0193
470 1 -1.1104 6.72651 16.9382 17.837
488 1 -1.1104 3.78867 16.9875 20.7229
467 1 -1.1104 6.66242 19.4627 15.0553
466 1 -1.1104 6.68569 14.0959 20.7333
483 1 -1.1104 3.92856 19.7379 20.6947
465 1 -1.1104 6.71457 14.0453 15.0517
459 1 -1.1104 6.75206 14.0171 17.7831
481 1 -1.1104 3.95957 14.0382 20.6465
584 1 -1.1104 9.47151 19.6712 23.4551
615 1 -1.1104 9.58167 19.6529 26.2518
464 1 -1.1104 1.08951 19.7086 20.6299
8704 2 2.2208 -0.293105 18.1785 27.6579
460 1 -1.1104 6.79464 19.674 17.8593
475 1 -1.1104 6.75008 16.7897 15.0684
492 2 2.2208 11.011 18.2647 16.431
493 1 -1.1104 12.2796 13.9741 17.6881
494 1 -1.1104 12.2596 19.51 17.7304
495 1 -1.1104 12.3169 14.0291 15.0418
497 1 -1.1104 12.3167 19.5522 14.9382
499 1 -1.1104 12.432 16.8005 17.9836
500 2 2.2208 10.8269 15.3715 19.3257
501 2 2.2208 10.832 21.0167 19.2496
502 1 -1.1104 12.3795 16.8029 15.1261
504 1 -1.1104 9.40487 14.0342 18.0134
505 1 -1.1104 9.49543 19.6025 17.8532
506 2 2.2208 8.16594 18.1811 19.1553
507 1 -1.1104 9.47979 14.1419 15.1231
509 1 -1.1104 9.49522 19.6262 15.2041
511 2 2.2208 8.26073 15.4782 16.4861
512 2 2.2208 8.05941 20.9695 16.4933
513 1 -1.1104 9.53993 16.879 17.8928
514 1 -1.1104 9.45286 16.6845 15.0109
515 1 -1.1104 9.53819 16.8759 20.5975
503 1 -1.1104 12.4409 17.0178 20.8042
508 1 -1.1104 9.47462 14.0203 20.5808
315 2 2.2208 8.04981 9.82095 27.652
8944 2 2.2208 -0.240685 18.224 16.4176
308 2 2.2208 10.9342 1.36983 27.6368
8838 2 2.2208 -0.235608 12.6602 16.3874
498 1 -1.1104 12.32 19.8896 20.7702
553 1 -1.1104 12.3298 14.0152 26.0991
337 1 -1.1104 6.69387 -0.0445508 20.816
8708 2 2.2208 -0.282919 7.12906 27.632
300 2 2.2208 5.34012 18.2682 27.4253
548 1 -1.1104 12.426 13.9461 23.2704
554 1 -1.1104 12.3846 19.6775 26.247
547 2 2.2208 10.8582 18.2675 22.0459
8797 2 2.2208 -0.327468 15.49 24.8446
520 2 2.2208 5.31319 1.32712 22.1148
521 1 -1.1104 1.10647 -2.74547 23.479
522 1 -1.1104 1.18646 2.86248 23.4228
525 1 -1.1104 1.08897 -2.86677 26.3241
526 1 -1.1104 1.28422 2.92083 26.2409
529 1 -1.1104 1.02343 -0.0354287 23.5597
531 2 2.2208 5.32428 -1.47751 24.876
533 1 -1.1104 1.13662 -0.043861 26.3229
535 1 -1.1104 3.85613 -2.83315 23.5818
536 1 -1.1104 3.87328 2.71015 23.4557
537 2 2.2208 2.50227 1.46105 24.8735
538 1 -1.1104 3.92474 -2.80314 26.2802
539 1 -1.1104 3.99735 2.79447 26.2572
540 2 2.2208 2.53608 -1.47768 22.0169
541 2 2.2208 2.48215 4.1934 22.016
542 1 -1.1104 3.95983 -0.0181094 23.4212
543 1 -1.1104 3.95685 -0.102765 26.2327
532 2 2.2208 5.37199 4.16078 24.906
530 1 -1.1104 6.78917 -0.014427 23.7554
528 1 -1.1104 6.82552 2.88187 26.2464
527 1 -1.1104 6.7507 -2.97885 26.3823
636 2 2.2208 8.02678 15.3729 22.0658
303 2 2.2208 10.9506 18.2088 27.5259
312 2 2.2208 2.52352 9.88476 27.39
577 2 2.2208 10.932 15.3817 24.8464
366 1 -1.1104 12.241 2.91707 20.5514
371 1 -1.1104 12.2348 0.178028 20.4757
310 2 2.2208 8.15539 4.27699 27.5306
534 1 -1.1104 6.80246 -0.0183271 26.4198
523 1 -1.1104 6.80061 -2.98361 23.5464
524 1 -1.1104 6.75388 2.7964 23.5088
313 2 2.2208 5.32286 12.624 27.5264
383 1 -1.1104 9.41846 -0.146089 20.6097
556 2 2.2208 10.8937 1.41804 21.8825
557 1 -1.1104 12.3136 -2.7913 23.2873
558 1 -1.1104 12.3401 2.69682 23.3847
559 1 -1.1104 12.2754 -2.9264 26.1967
560 1 -1.1104 12.2798 2.90292 26.3559
561 1 -1.1104 12.2845 0.0610725 23.2482
562 2 2.2208 10.7588 -1.36638 24.7671
564 1 -1.1104 12.1458 -0.0589102 26.2365
565 1 -1.1104 9.51695 -2.77695 23.3386
566 1 -1.1104 9.54696 2.86776 23.5175
567 2 2.2208 8.2079 1.36557 24.9769
568 1 -1.1104 9.46303 -2.86745 26.2675
569 1 -1.1104 9.64094 2.78615 26.3735
570 2 2.2208 8.13361 -1.52859 21.9395
571 2 2.2208 8.15548 4.1918 21.9843
572 1 -1.1104 9.6548 0.0329642 23.443
573 1 -1.1104 9.40028 -0.0961987 26.2264
563 2 2.2208 10.9528 4.22563 24.81
302 2 2.2208 2.53359 21.0548 27.6022
545 1 -1.1104 6.67893 19.7551 23.4121
612 2 2.2208 8.13807 18.2916 24.829
409 1 -1.1104 1.07867 11.2348 20.4084
413 1 -1.1104 6.70188 11.2405 20.5916
425 1 -1.1104 3.79244 11.2172 20.6125
311 2 2.2208 5.25562 6.98188 27.5523
585 2 2.2208 5.22443 6.93667 21.8985
586 2 2.2208 5.37102 12.5844 21.9804
587 1 -1.1104 0.989287 8.38598 23.3079
589 1 -1.1104 1.22767 8.34128 25.9593
591 1 -1.1104 1.06413 5.58478 23.4747
592 1 -1.1104 1.16869 11.306 23.2659
595 2 2.2208 5.30979 9.81062 24.8513
596 1 -1.1104 1.18632 5.65277 26.4047
597 1 -1.1104 0.973519 11.1056 26.0987
600 1 -1.1104 3.7969 8.34767 23.3618
601 2 2.2208 2.60367 6.9984 24.814
602 2 2.2208 2.52255 12.6604 24.8053
603 1 -1.1104 3.81294 8.34265 26.0557
604 2 2.2208 2.42714 9.81653 21.9555
605 1 -1.1104 3.90446 5.76264 23.4259
606 1 -1.1104 3.85983 11.1188 23.4024
607 1 -1.1104 3.83266 5.55648 26.3822
608 1 -1.1104 3.90442 11.2011 26.1534
599 1 -1.1104 6.75084 11.1521 26.2474
594 1 -1.1104 6.77509 11.1269 23.4201
590 1 -1.1104 6.8085 8.39558 26.1637
593 1 -1.1104 6.67017 5.5317 23.3196
351 1 -1.1104 9.50175 16.812 26.2368
610 1 -1.1104 6.708 14.0588 26.3438
445 1 -1.1104 9.5244 8.44699 20.6464
450 1 -1.1104 9.47367 5.75732 20.4865
588 1 -1.1104 6.80102 8.32061 23.3443
583 1 -1.1104 9.44055 13.9885 23.3155
598 1 -1.1104 6.4926 5.61363 26.2419
616 1 -1.1104 9.66344 11.0635 26.4041
617 1 -1.1104 9.42598 5.47458 26.0532
618 1 -1.1104 9.61602 11.2098 23.4768
619 1 -1.1104 9.51499 5.54444 23.3436
620 2 2.2208 8.26488 9.7822 22.0215
621 1 -1.1104 9.48723 8.40202 26.191
622 2 2.2208 8.11495 12.5388 24.8614
623 2 2.2208 8.12561 7.0214 24.8324
624 2 2.2208 10.9007 6.97829 21.9342
625 2 2.2208 10.9342 12.6148 22.058
626 1 -1.1104 12.3995 8.52613 23.5278
627 1 -1.1104 12.3256 8.38004 26.2383
628 1 -1.1104 12.3063 5.63378 23.3189
629 1 -1.1104 12.2976 11.1924 23.404
630 2 2.2208 10.9778 9.81942 24.9329
631 1 -1.1104 12.2482 5.6904 26.2752
632 1 -1.1104 12.3557 11.1474 26.3163
633 1 -1.1104 9.69193 8.398 23.3491
8943 2 2.2208 -0.283397 15.413 19.1552
314 2 2.2208 10.7595 7.02532 27.6145
474 1 -1.1104 1.12641 16.8488 20.5746
476 1 -1.1104 6.60551 16.9019 20.6991
462 1 -1.1104 1.16483 14.0774 20.604
8718 2 2.2208 -0.345304 12.656 27.5432
309 2 2.2208 8.06962 -1.50128 27.6435
496 1 -1.1104 12.2552 13.9793 20.485
611 1 -1.1104 3.83129 19.6841 23.3785
609 1 -1.1104 3.88886 14.0271 23.2938
580 2 2.2208 2.42769 18.3114 24.7711
352 1 -1.1104 3.97338 19.7916 26.073
356 2 2.2208 5.18084 18.2531 21.9904
384 1 -1.1104 0.91441 13.9763 23.4674
385 1 -1.1104 0.985258 19.5972 23.3651
386 2 2.2208 2.42122 15.5183 21.9885
387 2 2.2208 2.36209 21.0222 21.9889
519 2 2.2208 5.2615 15.4033 24.8034
544 2 2.2208 5.23871 21.1751 24.6433
546 1 -1.1104 1.10245 14.0265 26.2172
549 1 -1.1104 3.74536 16.8708 23.488
550 1 -1.1104 1.04088 16.7232 23.4266
574 1 -1.1104 0.976748 16.8259 26.1113
575 1 -1.1104 1.06811 19.6255 26.185
578 1 -1.1104 3.95667 14.05 26.3127
579 1 -1.1104 3.84078 16.955 26.1562
576 1 -1.1104 6.71208 16.7343 26.0931
389 1 -1.1104 6.66844 14 23.6102
634 1 -1.1104 9.38407 16.7345 23.3505
555 1 -1.1104 12.152 16.9006 23.5216
551 1 -1.1104 6.63586 17.0058 23.304
613 1 -1.1104 6.72092 19.5736 26.1751
552 1 -1.1104 12.3453 19.6591 23.4154
510 1 -1.1104 9.58347 19.5671 20.7458
8903 2 2.2208 13.7485 18.2276 19.3572
8757 2 2.2208 13.7089 4.25802 16.4117
8799 2 2.2208 -0.360169 -1.40133 24.7501
8804 2 2.2208 -0.108653 4.32978 24.8852
8873 2 2.2208 -0.22361 7.0058 16.3762
301 2 2.2208 8.18841 15.397 27.6233
17333 2 2.2208 -0.301153 -4.19408 27.6597
454 2 2.2208 10.826 9.83121 13.6145
517 2 2.2208 10.8796 15.3938 13.7128
392 2 2.2208 10.8572 4.24265 13.7042
490 2 2.2208 5.33623 20.9739 13.5429
7996 2 2.2208 10.9633 -4.20352 27.7097
8707 2 2.2208 -0.246237 1.39574 27.6356
637 2 2.2208 5.32097 23.8461 5.17157
638 2 2.2208 5.32166 29.4844 5.22976
639 1 -1.1104 1.03772 25.3189 1.00428
640 1 -1.1104 1.2009 25.1134 3.76776
641 1 -1.1104 1.10471 22.4969 0.746155
642 1 -1.1104 1.01157 28.0524 0.908226
643 2 2.2208 5.20853 26.5145 2.33224
644 1 -1.1104 1.19938 22.3476 3.7615
645 1 -1.1104 1.10846 27.9493 3.76844
646 1 -1.1104 3.8975 25.1763 1.02776
647 2 2.2208 2.42327 23.7952 2.33908
648 2 2.2208 2.45779 29.4479 2.25147
649 1 -1.1104 3.8464 25.3584 3.71421
650 2 2.2208 2.47541 26.5307 5.22215
651 1 -1.1104 3.92435 22.4256 0.85637
652 1 -1.1104 3.73586 27.9852 0.986486
653 1 -1.1104 3.83324 22.5328 3.91064
654 1 -1.1104 3.83658 28.0873 3.7424
659 1 -1.1104 6.74098 25.2883 3.81195
9276 2 2.2208 -0.452083 26.5998 8.0235
780 1 -1.1104 1.21251 22.4399 6.65374
786 1 -1.1104 3.72875 27.96 6.65093
1521 1 -1.1104 9.65447 47.6933 12.1593
936 2 2.2208 10.8756 40.7592 -0.389282
9275 2 2.2208 -0.38419 29.3522 10.9142
658 1 -1.1104 6.70746 25.1925 1.07513
660 1 -1.1104 6.71765 22.4076 0.978724
779 1 -1.1104 6.56978 25.2021 6.51164
662 1 -1.1104 6.60301 22.472 3.7163
661 1 -1.1104 6.57649 27.9814 0.912734
663 1 -1.1104 6.66786 28.0545 3.76747
782 1 -1.1104 6.73305 22.5381 6.4871
664 2 2.2208 10.9248 23.8921 5.18559
665 2 2.2208 10.9287 29.5188 5.09018
666 1 -1.1104 12.2881 25.2159 0.984529
667 1 -1.1104 12.4096 25.2705 3.74663
668 1 -1.1104 12.3426 22.4167 1.12279
669 1 -1.1104 12.2522 28.1129 0.810716
670 2 2.2208 10.8095 26.6942 2.32579
671 1 -1.1104 12.3908 22.5395 4.03721
672 1 -1.1104 12.2803 28.0108 3.58652
673 1 -1.1104 9.48513 25.2126 0.944345
674 2 2.2208 8.12292 23.9338 2.35528
675 2 2.2208 8.01246 29.4571 2.45848
676 1 -1.1104 9.61092 25.2854 3.74494
677 2 2.2208 7.99571 26.6383 5.17484
678 1 -1.1104 9.47892 22.4696 0.855642
679 1 -1.1104 9.31548 27.997 1.043
680 1 -1.1104 9.52338 22.4884 3.73416
681 1 -1.1104 9.38633 27.9118 3.85809
811 1 -1.1104 12.2222 25.3662 6.48672
816 1 -1.1104 9.44378 28.1701 6.51679
814 1 -1.1104 9.44329 25.2952 6.59151
815 1 -1.1104 9.58751 22.4518 6.49169
937 2 2.2208 2.44048 46.2946 13.5861
9411 2 2.2208 -0.393429 40.563 5.2563
9469 2 2.2208 13.5523 29.4409 13.5304
685 2 2.2208 5.24419 35.1049 5.20862
686 1 -1.1104 0.987675 30.8309 0.760665
687 1 -1.1104 1.11476 36.4524 0.969763
689 1 -1.1104 1.00446 30.8484 3.61852
690 1 -1.1104 1.03875 36.5592 3.90579
692 1 -1.1104 1.09912 33.698 1.03519
693 2 2.2208 5.15341 32.2378 2.34024
694 2 2.2208 5.30169 37.8348 2.51175
695 1 -1.1104 1.06735 33.6548 3.76586
697 1 -1.1104 3.84358 30.8962 0.84384
698 1 -1.1104 3.78868 36.4664 0.999785
699 2 2.2208 2.40009 35.0536 2.42274
700 1 -1.1104 3.74285 30.803 3.72358
701 1 -1.1104 3.95911 36.3956 3.81208
702 2 2.2208 2.41973 32.1987 5.17317
703 2 2.2208 2.47109 37.8326 5.20902
704 1 -1.1104 3.88873 33.6459 0.92207
705 1 -1.1104 3.78778 33.5868 3.7162
710 1 -1.1104 6.7462 30.864 3.76187
688 1 -1.1104 6.66605 36.5368 1.10752
841 1 -1.1104 3.88011 30.8411 6.61325
711 1 -1.1104 6.6698 33.6746 1.02502
691 1 -1.1104 6.72204 36.4179 3.85446
696 1 -1.1104 6.56143 33.7592 3.83478
840 1 -1.1104 6.79125 33.6821 6.50058
9182 2 2.2208 13.7144 43.4955 5.16313
9338 2 2.2208 -0.182602 32.2292 7.97082
934 1 -1.1104 9.5196 42.0286 9.45939
657 2 2.2208 -0.220948 26.6766 2.41667
709 1 -1.1104 6.81108 30.7262 0.826198
712 2 2.2208 11.0403 35.1167 5.26804
713 1 -1.1104 12.3619 30.8514 0.971987
714 1 -1.1104 12.2884 36.5792 1.07118
715 1 -1.1104 12.41 30.8358 3.72585
716 1 -1.1104 12.4843 36.4154 3.85518
717 1 -1.1104 12.3262 33.7869 1.20567
718 2 2.2208 10.9688 32.2385 2.38377
719 2 2.2208 10.8528 37.9361 2.46388
720 1 -1.1104 12.3678 33.6602 4.0012
721 1 -1.1104 9.57807 30.845 0.901062
722 1 -1.1104 9.42612 36.4798 1.20592
723 2 2.2208 8.04047 35.0991 2.52395
724 1 -1.1104 9.49394 30.8409 3.75775
725 1 -1.1104 9.74612 36.4279 3.84423
726 2 2.2208 8.11026 32.4043 5.16724
727 2 2.2208 8.10077 37.7131 5.35669
728 1 -1.1104 9.51001 33.6159 1.12232