ITEM: TIMESTEP
50000
ITEM: NUMBER OF ATOMS
17700
ITEM: BOX BOUNDS pp pp pp
-3.5362974705648559e-01 2.7693629747056281e+01
-4.3843253644128506e+00 3.3246432536441222e+02
-3.5132313224223144e-01 2.7691323132241823e+01
ITEM: ATOMS id type q x y z
1 2 2.2208 5.3209 1.00906 5.18597
2 1 -1.1104 1.06224 -3.15119 0.898071
3 1 -1.1104 1.04351 2.43849 1.10277
6 1 -1.1104 0.958265 -2.97206 3.8021
7 1 -1.1104 1.00265 2.33654 3.85282
10 1 -1.1104 1.16742 -0.45179 1.00933
12 2 2.2208 5.29182 -1.72478 2.38194
13 2 2.2208 5.38891 3.72233 2.37128
14 1 -1.1104 0.962451 -0.342155 3.79016
16 1 -1.1104 3.86666 -3.35128 0.945231
17 1 -1.1104 3.82758 2.33557 0.996113
18 2 2.2208 2.35203 1.04468 2.4718
19 1 -1.1104 3.89295 -3.06099 3.88344
20 1 -1.1104 3.82626 2.40677 3.76586
21 2 2.2208 2.55149 -1.72103 5.17139
22 2 2.2208 2.54497 3.73326 5.24738
23 1 -1.1104 3.93048 -0.553733 0.859
24 1 -1.1104 3.80827 -0.325219 3.68802
4 1 -1.1104 6.71155 -3.15678 1.01349
172 1 -1.1104 3.89462 -3.10159 6.5422
8467 2 2.2208 13.7791 20.8017 5.09134
359 2 2.2208 5.26577 3.89393 13.6307
5 1 -1.1104 6.81287 2.4739 1.00449
518 2 2.2208 8.1645 17.815 13.6277
169 1 -1.1104 6.7102 2.59279 6.62229
173 1 -1.1104 3.9391 2.40451 6.58529
166 1 -1.1104 1.04547 -3.00074 6.68763
8620 2 2.2208 -0.26224 6.72179 10.8184
357 2 2.2208 5.34766 -1.7079 13.7834
8693 2 2.2208 -0.320172 3.91622 2.44363
9 1 -1.1104 6.65135 2.56982 3.71003
15 1 -1.1104 6.67737 -0.165146 3.63356
8 1 -1.1104 6.5877 -3.03324 3.76162
11 1 -1.1104 6.70399 -0.346406 0.882628
31 2 2.2208 10.7559 1.24329 5.21552
32 1 -1.1104 12.2707 -2.92628 1.00395
33 1 -1.1104 12.3223 2.56231 1.1151
34 1 -1.1104 12.289 -3.25183 3.90162
35 1 -1.1104 12.3754 2.52244 3.83059
36 1 -1.1104 12.4842 -0.152177 1.09217
37 2 2.2208 10.8872 -1.62834 2.37212
38 2 2.2208 10.8401 3.95694 2.35757
39 1 -1.1104 12.1935 -0.294163 3.86867
40 1 -1.1104 9.52815 -3.16198 0.800737
41 1 -1.1104 9.5304 2.59124 0.957483
42 2 2.2208 8.15174 1.19733 2.38825
43 1 -1.1104 9.43782 -3.08842 3.71429
44 1 -1.1104 9.46639 2.56068 3.83659
45 2 2.2208 8.105 -1.68792 5.20879
46 2 2.2208 8.00337 4.06082 5.22468
47 1 -1.1104 9.5846 -0.177084 0.976027
48 1 -1.1104 9.45185 -0.318177 3.91739
209 1 -1.1104 9.38582 2.51779 6.55446
207 1 -1.1104 12.4363 -0.263973 6.90548
208 1 -1.1104 9.36651 -3.21576 6.64985
168 1 -1.1104 6.69079 -3.0006 6.5364
171 1 -1.1104 6.70759 -0.265036 6.54784
210 1 -1.1104 9.67247 -0.264395 6.63911
205 1 -1.1104 12.2414 -3.05123 6.66704
8586 2 2.2208 13.6889 17.8917 2.34666
8692 2 2.2208 -0.384752 1.10327 5.24999
426 2 2.2208 2.52161 6.69496 13.6261
54 2 2.2208 5.26233 6.71469 5.24954
55 2 2.2208 5.19041 12.3327 5.18301
56 1 -1.1104 0.881686 7.97149 1.02054
58 1 -1.1104 1.03399 7.96868 3.71964
60 1 -1.1104 1.09872 5.29027 0.876018
61 1 -1.1104 1.05139 10.8244 0.949378
66 2 2.2208 5.31644 9.56976 2.2548
67 1 -1.1104 1.08499 5.15882 3.8083
68 1 -1.1104 0.994461 10.9278 3.74494
71 1 -1.1104 3.80582 8.1235 0.847889
72 2 2.2208 2.37629 6.60186 2.29701
73 2 2.2208 2.44405 12.2955 2.46508
74 1 -1.1104 3.79821 7.94514 3.86322
75 2 2.2208 2.35515 9.40989 5.11282
76 1 -1.1104 3.9724 5.23046 0.79316
77 1 -1.1104 3.77378 10.8038 1.05269
79 1 -1.1104 3.93196 5.15591 3.72198
80 1 -1.1104 3.85421 10.7555 3.74621
57 1 -1.1104 6.73965 8.1356 0.874819
238 1 -1.1104 3.97569 7.99499 6.63434
236 1 -1.1104 1.21203 5.2211 6.52026
235 1 -1.1104 6.73396 8.25872 6.52525
516 2 2.2208 10.8906 20.6955 13.5847
427 2 2.2208 5.34273 9.63326 13.6495
8525 2 2.2208 13.648 4.06908 10.7755
290 1 -1.1104 6.65889 13.682 9.42619
70 1 -1.1104 6.74111 11.1305 3.66854
63 1 -1.1104 6.69099 5.26771 1.01273
59 1 -1.1104 6.80032 8.18097 3.73261
69 1 -1.1104 6.58828 5.38863 3.73136
64 1 -1.1104 6.94209 10.8902 0.941119
84 2 2.2208 10.883 6.8253 5.29275
85 2 2.2208 11.0297 12.2194 5.14767
86 1 -1.1104 12.3686 8.10036 0.97704
87 1 -1.1104 12.2055 8.16787 3.75689
88 1 -1.1104 12.345 5.30746 0.905477
89 1 -1.1104 12.2928 10.9524 0.964545
91 2 2.2208 10.9522 9.44626 2.32416
92 1 -1.1104 12.1511 5.31638 3.70382
93 1 -1.1104 12.424 10.8094 3.7404
94 1 -1.1104 9.46931 8.08607 0.876824
95 2 2.2208 8.01315 6.76969 2.22189
96 2 2.2208 8.27094 12.3136 2.36751
97 1 -1.1104 9.47975 8.05977 3.68371
98 2 2.2208 8.00048 9.62953 4.99347
99 1 -1.1104 9.43782 5.37101 0.917075
100 1 -1.1104 9.6346 10.9933 0.828181
102 1 -1.1104 9.33477 5.44328 3.67226
103 1 -1.1104 9.63106 10.9769 3.61767
90 1 -1.1104 12.2573 10.8057 6.56731
267 1 -1.1104 9.45103 8.19366 6.46541
269 1 -1.1104 9.50855 5.27912 6.44494
101 1 -1.1104 9.42863 11.0617 6.58005
200 1 -1.1104 9.40869 16.5575 9.51329
7986 2 2.2208 8.16004 -4.61531 2.34781
8392 2 2.2208 -0.394158 20.743 7.95142
8945 2 2.2208 -0.408155 15.2027 13.6363
355 2 2.2208 -0.293532 -1.66154 13.6342
106 2 2.2208 5.35026 17.8588 5.27025
107 1 -1.1104 1.00993 13.548 0.952881
109 1 -1.1104 1.12546 19.2379 0.828548
113 1 -1.1104 0.95925 13.7697 3.93637
114 1 -1.1104 1.14302 19.2569 3.84796
116 1 -1.1104 1.11269 16.363 0.912755
119 2 2.2208 5.26827 15.0023 2.49377
120 2 2.2208 5.1378 20.5468 2.43085
121 1 -1.1104 1.21751 16.3606 3.73863
123 1 -1.1104 3.82576 13.6679 0.941209
125 1 -1.1104 3.83213 19.1329 1.03396
127 2 2.2208 2.56749 17.7411 2.39279
128 1 -1.1104 3.77229 13.6637 3.75258
129 1 -1.1104 3.88813 19.1765 3.72769
130 2 2.2208 2.40235 15.1006 5.25485
131 2 2.2208 2.55782 20.6365 5.29211
132 1 -1.1104 3.98541 16.4163 0.990887
134 1 -1.1104 3.94831 16.4604 3.73393
133 1 -1.1104 3.91564 16.458 6.58881
126 1 -1.1104 4.01524 19.1902 6.6423
124 1 -1.1104 3.93625 13.6801 6.45458
140 1 -1.1104 6.73071 16.4187 1.04724
139 1 -1.1104 6.64536 19.3092 3.85447
8551 2 2.2208 -0.24958 -1.59469 7.96677
428 2 2.2208 2.33025 12.3304 13.6204
118 1 -1.1104 6.68647 16.4358 6.56357
111 1 -1.1104 6.70446 13.7159 6.46618
115 1 -1.1104 6.69247 13.6727 3.70697
138 1 -1.1104 6.83765 19.3465 0.904763
110 1 -1.1104 6.55769 13.7774 0.815689
112 1 -1.1104 6.69609 19.3055 6.68764
122 1 -1.1104 6.57665 16.5164 3.73277
163 1 -1.1104 9.48853 16.6732 6.68058
141 2 2.2208 10.7118 18.0962 5.28833
142 1 -1.1104 12.1245 13.8229 1.02279
144 1 -1.1104 12.257 19.5299 0.936745
146 1 -1.1104 12.239 13.6197 3.80423
147 1 -1.1104 12.2708 19.5392 3.78406
148 1 -1.1104 12.2844 16.6359 1.12168
150 2 2.2208 10.845 15.1252 2.42882
151 2 2.2208 10.803 20.8267 2.3553
152 1 -1.1104 12.2533 16.6772 3.95956
153 1 -1.1104 9.46501 13.8387 1.02119
155 1 -1.1104 9.66084 19.2395 0.948057
157 2 2.2208 8.08255 17.9718 2.40224
158 1 -1.1104 9.54331 13.6793 3.90042
159 1 -1.1104 9.42568 19.3892 3.76103
160 2 2.2208 8.17171 15.1346 5.19887
161 2 2.2208 8.09095 20.7449 5.10642
162 1 -1.1104 9.51214 16.5951 1.03451
164 1 -1.1104 9.5083 16.4812 3.92485
156 1 -1.1104 9.38976 19.3542 6.62522
143 1 -1.1104 12.3452 13.5945 6.49027
149 1 -1.1104 12.2225 16.5662 6.58128
145 1 -1.1104 12.2556 19.5536 6.51481
154 1 -1.1104 9.46495 13.9053 6.7206
8390 2 2.2208 13.6926 3.9878 5.20558
454 2 2.2208 11.0203 9.51768 13.6462
174 1 -1.1104 3.94649 -0.413661 6.54097
8695 2 2.2208 13.7521 1.24272 2.49895
105 2 2.2208 7.97049 17.8681 8.11385
170 1 -1.1104 1.19707 -0.13892 6.74623
390 2 2.2208 8.00551 1.03921 13.6082
83 1 -1.1104 9.50165 13.7042 12.2358
27 1 -1.1104 12.3197 19.338 12.1065
8703 2 2.2208 -0.285303 15.0234 2.41002
25 2 2.2208 10.9493 17.8907 10.8322
167 1 -1.1104 0.96141 2.56373 6.70077
175 2 2.2208 5.30734 1.04456 10.8522
176 1 -1.1104 0.992469 -2.98645 12.1703
177 1 -1.1104 1.0652 2.57545 12.4633
180 1 -1.1104 1.02736 -3.1031 9.5086
181 1 -1.1104 0.935758 2.61574 9.52919
184 1 -1.1104 1.11298 -0.330307 12.2813
186 2 2.2208 5.32979 -1.7865 7.95676
187 2 2.2208 5.32826 3.90921 7.9212
188 1 -1.1104 1.09502 -0.196173 9.5087
190 1 -1.1104 3.94088 -3.03687 12.2949
191 1 -1.1104 3.94662 2.44752 12.1525
192 2 2.2208 2.5919 1.14493 8.04188
193 1 -1.1104 3.77259 -2.89513 9.38274
194 1 -1.1104 3.85886 2.66181 9.38287
195 2 2.2208 2.47389 -1.65483 10.8778
197 1 -1.1104 3.88194 -0.291364 12.3955
198 1 -1.1104 4.01885 -0.142673 9.35225
196 2 2.2208 2.31624 3.91537 10.85
183 1 -1.1104 6.72636 2.54882 9.26358
189 1 -1.1104 6.83398 -0.28662 9.40882
179 1 -1.1104 6.72754 2.62392 12.1145
185 1 -1.1104 6.53823 -0.253571 12.2889
206 1 -1.1104 12.2613 2.51141 6.77262
30 1 -1.1104 12.2766 13.7845 9.26742
297 1 -1.1104 6.71189 13.7231 12.1643
296 1 -1.1104 6.85515 19.2152 12.2573
182 1 -1.1104 6.55623 -3.08689 9.41344
178 1 -1.1104 6.6081 -3.00213 12.3381
211 2 2.2208 10.8627 1.13136 10.7906
212 1 -1.1104 12.2821 -3.06656 12.0139
213 1 -1.1104 12.3477 2.4332 12.1546
214 1 -1.1104 12.3309 -3.09097 9.30493
215 1 -1.1104 12.2378 2.5757 9.67904
216 1 -1.1104 12.3059 -0.2884 12.2985
217 2 2.2208 10.95 -1.71833 7.99835
219 1 -1.1104 12.2838 -0.30546 9.45002
220 1 -1.1104 9.37584 -3.05057 12.1947
221 1 -1.1104 9.39691 2.4361 12.2743
222 2 2.2208 8.16456 1.03208 8.09058
223 1 -1.1104 9.43866 -3.08798 9.44852
224 1 -1.1104 9.46571 2.50294 9.36121
225 2 2.2208 8.0612 -1.7749 10.8321
226 2 2.2208 8.00721 3.87528 10.7367
227 1 -1.1104 9.37529 -0.364095 12.3048
228 1 -1.1104 9.59041 -0.429567 9.63798
218 2 2.2208 10.8475 3.97595 7.90594
137 2 2.2208 8.03409 15.0842 10.829
53 2 2.2208 10.8621 15.0472 8.04921
78 1 -1.1104 3.67608 10.901 6.5286
49 1 -1.1104 12.2495 19.2485 9.36707
239 1 -1.1104 3.90473 5.28826 6.44133
62 1 -1.1104 0.979253 10.843 6.44881
234 1 -1.1104 1.04391 8.0768 6.68856
65 1 -1.1104 6.53653 11.0332 6.69044
81 2 2.2208 10.8916 20.6531 8.06085
240 2 2.2208 5.16046 6.74047 10.8243
241 2 2.2208 5.25414 12.3516 10.8198
242 1 -1.1104 1.17485 8.18601 12.2256
244 1 -1.1104 1.09733 8.15286 9.5084
246 1 -1.1104 1.08977 5.26167 12.1128
247 1 -1.1104 1.0876 10.952 12.2301
250 2 2.2208 5.29732 9.51334 8.03347
251 1 -1.1104 1.01638 5.50015 9.24531
252 1 -1.1104 1.1698 10.8939 9.42176
255 1 -1.1104 3.88412 8.01979 12.2061
256 2 2.2208 2.44956 6.64367 7.98418
257 2 2.2208 2.40325 12.1772 7.98859
258 1 -1.1104 3.82715 8.17091 9.34305
259 2 2.2208 2.49257 9.56029 10.8541
260 1 -1.1104 3.82784 5.20911 12.0223
261 1 -1.1104 3.96407 10.8301 12.18
262 1 -1.1104 3.94936 5.24598 9.29682
263 1 -1.1104 3.95863 10.8823 9.41548
249 1 -1.1104 6.82373 10.8609 12.2405
248 1 -1.1104 6.57773 5.37591 12.25
104 1 -1.1104 9.65648 19.2416 12.3702
82 1 -1.1104 12.3009 16.5336 9.34116
8612 2 2.2208 -0.297002 12.2889 10.8071
265 1 -1.1104 12.2184 8.10968 6.59792
237 1 -1.1104 6.71735 5.51589 6.64672
266 1 -1.1104 12.2607 5.33137 6.57778
254 1 -1.1104 6.71228 10.9431 9.42412
253 1 -1.1104 6.7133 5.29657 9.39162
245 1 -1.1104 6.59964 8.13677 9.44656
243 1 -1.1104 6.74513 8.19511 12.1539
264 1 -1.1104 9.48052 10.8556 9.48843
268 1 -1.1104 9.57088 5.43465 9.22149
270 1 -1.1104 9.57035 11.1097 12.1636
271 1 -1.1104 9.31529 5.21129 11.8816
272 2 2.2208 8.04676 9.51582 10.7977
273 1 -1.1104 9.5046 8.16285 9.26745
274 2 2.2208 8.06331 12.4646 7.8823
275 2 2.2208 8.05542 6.80959 7.9504
276 2 2.2208 10.8507 6.80214 10.7613
277 2 2.2208 10.9083 12.3825 10.8017
278 1 -1.1104 12.512 7.81613 12.0663
279 1 -1.1104 12.338 8.29968 9.28421
280 1 -1.1104 12.1442 5.28375 12.1699
281 1 -1.1104 12.4218 10.7692 12.3387
282 2 2.2208 10.8511 9.57939 8.03599
283 1 -1.1104 12.3048 5.41874 9.24673
284 1 -1.1104 12.2716 10.9513 9.53836
285 1 -1.1104 9.72487 8.26223 11.9982
491 2 2.2208 5.34943 14.9457 13.6044
117 1 -1.1104 0.967097 16.5338 6.6186
203 1 -1.1104 1.14705 19.3555 6.54046
108 1 -1.1104 1.11062 13.688 6.73252
289 1 -1.1104 6.53971 16.3949 9.46603
29 1 -1.1104 6.56626 16.3671 12.2005
288 1 -1.1104 6.77489 19.2798 9.56782
28 1 -1.1104 1.05336 16.5616 12.0376
51 1 -1.1104 3.85474 13.7277 9.39111
52 1 -1.1104 3.91206 16.4215 9.44275
202 2 2.2208 2.40513 17.8386 7.97117
204 1 -1.1104 3.82839 19.2445 9.33802
229 2 2.2208 2.3974 15.0365 10.721
230 2 2.2208 2.3945 20.7623 10.6685
231 2 2.2208 5.28793 17.7969 10.8315
232 1 -1.1104 1.14772 13.6492 12.0855
233 1 -1.1104 3.87678 16.3864 12.1392
286 1 -1.1104 3.95511 19.3742 12.0717
287 1 -1.1104 3.9342 13.5784 12.2687
291 1 -1.1104 0.971796 19.1268 9.28576
292 1 -1.1104 1.03118 16.5017 9.3814
293 2 2.2208 5.34298 20.6137 8.17892
294 1 -1.1104 0.844897 13.666 9.32908
295 2 2.2208 5.25201 14.9762 7.91273
298 1 -1.1104 1.14137 19.3494 12.0958
199 1 -1.1104 9.54153 16.5253 12.1407
135 1 -1.1104 9.57357 13.7818 9.47942
26 1 -1.1104 12.3667 13.6494 12.0701
136 1 -1.1104 9.52271 19.1896 9.56967
165 2 2.2208 8.1717 20.5264 10.869
50 1 -1.1104 12.4837 16.5166 12.1397
201 2 2.2208 -0.375588 1.13206 10.8711
490 2 2.2208 5.24934 20.8134 13.5556
391 2 2.2208 10.8553 -1.66512 13.5679
453 2 2.2208 8.08688 6.76738 13.4381
8946 2 2.2208 -0.341659 20.6927 13.5367
392 2 2.2208 10.7114 3.83471 13.4475
8704 2 2.2208 -0.241539 17.7907 -0.32816
316 2 2.2208 10.9167 12.366 -0.454543
307 2 2.2208 2.51287 3.84082 -0.459624
317 2 2.2208 5.26361 1.15852 16.3936
318 1 -1.1104 1.16327 -3.211 17.8885
319 1 -1.1104 1.11331 2.36118 17.9009
322 1 -1.1104 1.11621 -3.18647 14.8783
324 1 -1.1104 1.11365 2.40615 15.0729
330 1 -1.1104 1.06922 -0.504254 17.7907
332 2 2.2208 5.28741 -1.68943 19.1254
333 2 2.2208 5.26983 3.83659 19.2604
334 1 -1.1104 1.07515 -0.354928 15.0361
338 1 -1.1104 4.00965 -2.96533 17.7774
339 1 -1.1104 3.92625 2.57655 17.8154
340 2 2.2208 2.59485 1.03433 19.1742
341 1 -1.1104 3.91327 -3.10963 15.1283
343 1 -1.1104 3.93551 2.5658 15.0155
345 2 2.2208 2.48092 -1.79513 16.3951
347 1 -1.1104 4.11632 -0.253197 17.8091
348 1 -1.1104 3.84086 -0.183348 15.03
346 2 2.2208 2.4725 3.90692 16.4795
344 1 -1.1104 4.03288 2.52568 20.5421
8718 2 2.2208 -0.320166 12.1612 27.641
323 1 -1.1104 1.14934 -3.30406 20.6435
329 1 -1.1104 6.70161 2.49114 20.6581
8872 2 2.2208 -0.229761 9.56459 19.1276
353 2 2.2208 -0.356339 1.00103 16.3833
342 1 -1.1104 3.85005 -3.15642 20.4803
325 1 -1.1104 1.44628 2.51447 20.7529
349 1 -1.1104 3.87993 -0.381485 20.5156
335 1 -1.1104 1.178 -0.294769 20.4695
354 2 2.2208 -0.265214 -1.77776 19.2247
301 2 2.2208 8.04447 15.1208 27.5503
337 1 -1.1104 6.83708 -0.314825 20.6447
315 2 2.2208 8.06112 9.53228 27.486
326 1 -1.1104 6.73572 -2.98 15.199
328 1 -1.1104 6.81603 2.4837 14.9171
320 1 -1.1104 6.75039 -3.20676 17.7042
331 1 -1.1104 6.77354 -0.257977 17.8646
336 1 -1.1104 6.66933 -0.239197 15.0271
321 1 -1.1104 6.83928 2.50801 17.6853
360 2 2.2208 10.8989 1.15111 16.2741
361 1 -1.1104 12.4325 -3.12852 17.7949
362 1 -1.1104 12.2595 2.55394 17.6909
363 1 -1.1104 12.3918 -2.99978 14.9919
365 1 -1.1104 12.2111 2.55264 14.8953
367 1 -1.1104 12.3817 -0.261329 17.7132
368 2 2.2208 11.0128 -1.72327 19.2445
369 2 2.2208 11.0437 3.99015 19.0747
370 1 -1.1104 12.3294 -0.39801 14.9842
372 1 -1.1104 9.61714 -2.87505 17.9488
373 1 -1.1104 9.48643 2.66881 17.8699
374 2 2.2208 8.15307 1.25073 19.2072
375 1 -1.1104 9.6281 -3.02027 15.229
377 1 -1.1104 9.49316 2.53619 14.9699
379 2 2.2208 8.21915 -1.56342 16.4618
381 1 -1.1104 9.67545 -0.101688 17.8173
382 1 -1.1104 9.49065 -0.334638 14.9049
380 2 2.2208 8.18996 4.10046 16.2802
366 1 -1.1104 12.2757 2.6078 20.4739
364 1 -1.1104 12.2716 -3.19795 20.695
383 1 -1.1104 9.47199 -0.207021 20.5956
327 1 -1.1104 6.69497 -3.09491 20.642
376 1 -1.1104 9.44217 -3.10214 20.6183
371 1 -1.1104 12.3048 -0.354306 20.6965
8873 2 2.2208 -0.353981 6.6308 16.4349
393 2 2.2208 5.40206 6.7836 16.4459
394 2 2.2208 5.19362 12.2311 16.3921
395 1 -1.1104 1.09353 8.14403 17.7806
397 1 -1.1104 1.13411 8.01084 14.9272
401 1 -1.1104 1.04878 5.29991 17.7823
402 1 -1.1104 0.988024 10.9503 17.8571
405 2 2.2208 5.36956 9.54239 19.226
406 1 -1.1104 1.18033 5.09567 14.9078
408 1 -1.1104 1.1504 10.9038 15.0445
414 1 -1.1104 3.96799 8.20649 17.8577
415 2 2.2208 2.66024 6.70266 19.1501
416 2 2.2208 2.39767 12.3676 19.1037
417 1 -1.1104 3.88076 7.97696 14.9257
419 2 2.2208 2.43573 9.45421 16.3224
420 1 -1.1104 3.8216 5.21774 17.8002
421 1 -1.1104 3.83433 10.8925 17.6976
422 1 -1.1104 4.05676 5.38372 15.0653
424 1 -1.1104 3.88863 10.7179 14.9723
403 1 -1.1104 6.6865 5.24067 17.8518
425 1 -1.1104 3.99968 10.9257 20.5278
409 1 -1.1104 1.04686 11.0605 20.6121
398 1 -1.1104 1.26965 8.2449 20.4878
304 2 2.2208 8.2021 20.7281 27.5804
8797 2 2.2208 -0.31331 15.0452 24.8379
311 2 2.2208 5.32433 6.71054 27.6071
407 1 -1.1104 1.04265 5.31406 20.5722
8762 2 2.2208 -0.128657 0.954391 22.03
399 1 -1.1104 6.83782 8.24022 14.962
396 1 -1.1104 6.77034 8.00282 17.8778
410 1 -1.1104 6.78861 5.50195 14.8711
412 1 -1.1104 6.7562 10.9057 14.9053
404 1 -1.1104 6.70205 10.8064 17.7425
429 2 2.2208 11.0522 6.79171 16.2765
430 2 2.2208 11.0182 12.3953 16.3769
431 1 -1.1104 12.3731 8.08641 17.7238
432 1 -1.1104 12.5481 8.14018 14.8801
434 1 -1.1104 12.3666 5.37478 17.6941
435 1 -1.1104 12.3968 10.8657 17.8017
436 2 2.2208 11.031 9.65968 19.2351
437 1 -1.1104 12.2112 5.26615 14.948
439 1 -1.1104 12.421 11.0505 15.043
441 1 -1.1104 9.69668 8.1522 17.7318
442 2 2.2208 8.28948 6.68981 19.1706
443 2 2.2208 8.18074 12.2898 19.2404
444 1 -1.1104 9.59227 8.12985 14.9003
446 2 2.2208 8.19927 9.5803 16.4057
447 1 -1.1104 9.60948 5.38267 17.6085
448 1 -1.1104 9.40418 10.8247 17.922
449 1 -1.1104 9.55181 5.39762 14.7657
451 1 -1.1104 9.6258 10.9763 14.9847
438 1 -1.1104 12.173 5.25158 20.5256
445 1 -1.1104 9.51048 8.21163 20.5761
411 1 -1.1104 6.70321 5.27762 20.4831
433 1 -1.1104 12.2665 8.18388 20.6414
452 1 -1.1104 9.63649 10.8853 20.617
306 2 2.2208 2.43395 -1.72982 27.6147
612 2 2.2208 8.19825 17.9936 24.8129
8257 2 2.2208 10.8328 -4.51885 22.1526
545 1 -1.1104 6.83899 19.3362 23.4234
456 2 2.2208 5.33592 17.9489 16.3016
457 1 -1.1104 1.16941 13.7578 17.6445
458 1 -1.1104 1.13089 19.3514 17.6003
461 1 -1.1104 1.11743 13.8342 14.9174
463 1 -1.1104 1.01271 19.2845 14.9054
469 1 -1.1104 1.17085 16.577 17.7533
471 2 2.2208 5.42778 15.1266 19.1943
472 2 2.2208 5.20684 20.5745 19.2127
473 1 -1.1104 1.14031 16.5454 14.9045
477 1 -1.1104 3.95137 13.6599 17.9012
478 1 -1.1104 3.99988 19.3373 17.86
479 2 2.2208 2.42708 17.8942 19.1707
480 1 -1.1104 3.88131 13.6048 15.0376
482 1 -1.1104 3.94568 19.4016 14.9092
484 2 2.2208 2.67965 15.1175 16.3991
485 2 2.2208 2.49876 20.6825 16.3296
486 1 -1.1104 4.08119 16.503 17.7848
487 1 -1.1104 3.92038 16.5056 15.0882
462 1 -1.1104 1.1413 13.8475 20.5794
483 1 -1.1104 3.83576 19.3385 20.6518
488 1 -1.1104 3.81893 16.6159 20.6156
481 1 -1.1104 4.01651 13.7653 20.5903
8942 2 2.2208 -0.410633 20.804 19.2833
8944 2 2.2208 -0.31684 17.9768 16.4509
548 1 -1.1104 12.3794 13.8078 23.4809
474 1 -1.1104 0.938675 16.5579 20.4618
576 1 -1.1104 6.79001 16.6976 26.2182
552 1 -1.1104 12.3587 19.4116 23.432
555 1 -1.1104 12.4068 16.5627 23.4666
554 1 -1.1104 12.4324 19.3943 26.2314
467 1 -1.1104 6.59822 19.2087 14.9648
475 1 -1.1104 6.72151 16.3669 14.942
460 1 -1.1104 6.84097 19.2393 17.8901
465 1 -1.1104 6.54157 13.6303 14.9807
470 1 -1.1104 6.73966 16.5195 17.8098
459 1 -1.1104 6.79247 13.6426 17.7928
492 2 2.2208 10.7816 17.8412 16.4182
493 1 -1.1104 12.2599 13.6236 17.5978
494 1 -1.1104 12.3653 19.3267 17.6965
495 1 -1.1104 12.3218 13.5816 14.8343
497 1 -1.1104 12.1932 19.2151 14.9274
499 1 -1.1104 12.2182 16.4409 17.8911
500 2 2.2208 10.7952 15.0127 19.2003
501 2 2.2208 11.0686 20.6849 19.146
502 1 -1.1104 12.1943 16.3916 15.1392
504 1 -1.1104 9.49804 13.4818 17.7497
505 1 -1.1104 9.54684 19.3258 17.8404
506 2 2.2208 8.16141 17.9719 19.2522
507 1 -1.1104 9.46084 13.7526 14.9207
509 1 -1.1104 9.37284 19.2581 15.0497
511 2 2.2208 8.00683 14.9683 16.4374
512 2 2.2208 8.06292 20.5995 16.3729
513 1 -1.1104 9.37658 16.3767 17.7829
514 1 -1.1104 9.42776 16.4131 15.027
476 1 -1.1104 6.70218 16.5689 20.5929
503 1 -1.1104 12.4989 16.4135 20.6613
314 2 2.2208 11.0355 6.71331 27.6844
305 2 2.2208 5.28104 1.10069 27.6498
8804 2 2.2208 -0.218404 3.82361 24.901
547 2 2.2208 11.1287 17.8832 21.9947
8838 2 2.2208 -0.293647 12.3508 16.3695
303 2 2.2208 10.904 17.9759 27.593
520 2 2.2208 5.37283 1.02882 22.0636
521 1 -1.1104 1.14882 -3.15878 23.4838
522 1 -1.1104 1.17579 2.58829 23.5711
525 1 -1.1104 0.954356 -3.27347 26.1712
526 1 -1.1104 1.12594 2.38248 26.4198
529 1 -1.1104 1.13697 -0.396298 23.3962
531 2 2.2208 5.27562 -1.7715 24.9174
533 1 -1.1104 1.06007 -0.332278 26.2088
535 1 -1.1104 3.89551 -3.12035 23.3425
536 1 -1.1104 3.88589 2.46909 23.4333
537 2 2.2208 2.5037 1.00443 24.8689
538 1 -1.1104 3.86551 -3.13407 26.1112
539 1 -1.1104 3.95163 2.55211 26.3022
540 2 2.2208 2.47227 -1.73871 21.9595
541 2 2.2208 2.60044 3.94016 21.9903
542 1 -1.1104 3.93802 -0.306739 23.325
543 1 -1.1104 3.70844 -0.42229 26.1814
534 1 -1.1104 6.54119 -0.309324 26.2106
532 2 2.2208 5.23322 3.91702 24.8135
584 1 -1.1104 9.68035 19.2832 23.3064
527 1 -1.1104 6.76082 -3.02791 26.2647
378 1 -1.1104 9.49614 2.58582 20.6973
523 1 -1.1104 6.72796 -3.15592 23.4959
351 1 -1.1104 9.63476 16.5956 26.2211
610 1 -1.1104 6.62632 13.7601 26.0055
530 1 -1.1104 6.80653 -0.299201 23.4913
524 1 -1.1104 6.59659 2.56119 23.3529
528 1 -1.1104 6.7679 2.48682 26.2605
556 2 2.2208 10.9566 1.07399 22.0034
557 1 -1.1104 12.2651 -3.12768 23.5448
558 1 -1.1104 12.4827 2.51891 23.4336
559 1 -1.1104 12.4549 -3.01938 26.3393
560 1 -1.1104 12.3066 2.55464 26.1771
561 1 -1.1104 12.3349 -0.230988 23.5017
562 2 2.2208 10.8745 -1.67667 24.8536
564 1 -1.1104 12.2562 -0.24457 26.1591
565 1 -1.1104 9.45395 -3.00578 23.4581
566 1 -1.1104 9.52422 2.48759 23.4698
567 2 2.2208 8.12348 1.0728 24.6744
568 1 -1.1104 9.60991 -2.97628 26.1835
569 1 -1.1104 9.47378 2.58582 26.1689
570 2 2.2208 8.1032 -1.65458 21.9122
571 2 2.2208 7.96396 3.92683 21.8406
572 1 -1.1104 9.59208 -0.219415 23.3307
573 1 -1.1104 9.48019 -0.335236 26.2491
563 2 2.2208 10.8975 3.85501 24.8163
8800 2 2.2208 -0.217626 3.89832 19.2273
9051 2 2.2208 -0.190729 6.65412 21.9839
635 2 2.2208 8.15857 20.6889 21.998
418 1 -1.1104 3.98161 8.21786 20.7227
423 1 -1.1104 3.94065 5.37604 20.6624
400 1 -1.1104 6.70107 8.04968 20.6846
613 1 -1.1104 6.71982 19.3998 26.2878
585 2 2.2208 5.31799 6.79086 22.0254
586 2 2.2208 5.18583 12.323 21.9239
587 1 -1.1104 1.11588 8.22872 23.2543
589 1 -1.1104 1.17982 8.06811 26.2229
591 1 -1.1104 1.26697 5.29612 23.4967
592 1 -1.1104 1.07864 11.0083 23.4257
595 2 2.2208 5.24193 9.54053 24.7164
596 1 -1.1104 1.07818 5.33927 26.2063
597 1 -1.1104 1.21031 10.8856 26.2758
600 1 -1.1104 3.93452 8.08915 23.384
601 2 2.2208 2.5165 6.71114 24.8181
602 2 2.2208 2.53415 12.4171 24.7068
603 1 -1.1104 3.9528 8.18684 26.1189
604 2 2.2208 2.44639 9.60715 21.8764
605 1 -1.1104 4.01928 5.32696 23.4163
606 1 -1.1104 3.78705 10.9337 23.2786
607 1 -1.1104 3.8426 5.37304 26.1462
608 1 -1.1104 3.91263 10.9638 26.2329
468 1 -1.1104 6.67531 19.2956 20.6659
581 2 2.2208 10.9377 20.6916 24.7694
440 1 -1.1104 12.4815 11.0293 20.5765
450 1 -1.1104 9.54642 5.29633 20.4257
413 1 -1.1104 6.73113 10.8687 20.5511
599 1 -1.1104 6.69251 10.9031 26.2841
593 1 -1.1104 6.76337 5.14716 23.3899
594 1 -1.1104 6.66657 10.951 23.4526
588 1 -1.1104 6.76081 8.12204 23.4923
590 1 -1.1104 6.7592 8.14909 26.1968
598 1 -1.1104 6.60855 5.24916 26.1693
616 1 -1.1104 9.46149 11.0017 26.179
617 1 -1.1104 9.58265 5.27816 26.1669
618 1 -1.1104 9.46759 11.0439 23.394
619 1 -1.1104 9.57796 5.44329 23.3395
620 2 2.2208 8.10422 9.51262 22.0695
621 1 -1.1104 9.50181 8.10545 26.2334
622 2 2.2208 7.95423 12.3425 24.7475
623 2 2.2208 8.12476 6.7037 24.8185
624 2 2.2208 10.9704 6.81836 21.949
625 2 2.2208 10.9515 12.2684 21.9959
626 1 -1.1104 12.3369 8.13965 23.4507
627 1 -1.1104 12.2729 8.16257 26.2671
628 1 -1.1104 12.2334 5.34938 23.3665
629 1 -1.1104 12.3746 10.9218 23.3293
630 2 2.2208 10.9983 9.53213 24.8641
631 1 -1.1104 12.3752 5.23154 26.2739
632 1 -1.1104 12.3862 11.0207 26.2384
633 1 -1.1104 9.57232 8.28416 23.426
634 1 -1.1104 9.4348 16.4982 23.3972
389 1 -1.1104 6.65084 13.7029 23.4154
464 1 -1.1104 1.09843 19.3851 20.4525
466 1 -1.1104 6.78699 13.7345 20.6419
388 2 2.2208 13.7372 -1.67177 16.4542
8707 2 2.2208 -0.413032 1.08019 27.6146
352 1 -1.1104 4.01443 19.4141 26.2739
356 2 2.2208 5.26905 17.9134 21.9378
384 1 -1.1104 1.00745 13.8218 23.4681
385 1 -1.1104 1.12998 19.4566 23.3583
386 2 2.2208 2.50553 15.2073 21.949
387 2 2.2208 2.4911 20.9866 22.0476
519 2 2.2208 5.35878 15.2516 24.7815
544 2 2.2208 5.41761 20.7508 24.744
546 1 -1.1104 1.11125 13.6261 26.1733
549 1 -1.1104 3.87451 16.53 23.3915
550 1 -1.1104 1.0745 16.6257 23.3866
574 1 -1.1104 1.09742 16.4761 26.2277
575 1 -1.1104 1.10222 19.2318 26.1564
578 1 -1.1104 3.89496 13.7318 26.1778
579 1 -1.1104 3.79769 16.4588 26.2561
580 2 2.2208 2.36348 17.8717 24.7705
609 1 -1.1104 3.93578 13.7485 23.3241
611 1 -1.1104 3.8123 19.3976 23.329
551 1 -1.1104 6.77487 16.5299 23.4951
583 1 -1.1104 9.59051 13.7232 23.2634
636 2 2.2208 8.08273 15.0551 22.0442
614 1 -1.1104 9.44572 13.6864 26.0901
582 1 -1.1104 12.4536 16.6221 26.337
615 1 -1.1104 9.57605 19.3966 26.1922
577 2 2.2208 11.0004 15.2155 24.7759
496 1 -1.1104 12.2794 13.7292 20.5447
498 1 -1.1104 12.5302 19.3229 20.531
508 1 -1.1104 9.5689 13.6045 20.5735
510 1 -1.1104 9.55898 19.3267 20.6078
515 1 -1.1104 9.61914 16.4772 20.6035
553 1 -1.1104 12.2725 13.9067 26.1987
313 2 2.2208 5.20937 12.3229 27.5119
312 2 2.2208 2.36796 9.46746 27.5997
8974 2 2.2208 -0.310859 9.34111 24.7304
300 2 2.2208 5.3478 17.8856 27.6
309 2 2.2208 8.18549 -1.70507 27.5944
350 2 2.2208 -0.392029 3.87765 13.5773
302 2 2.2208 2.52509 20.5588 27.6764
8876 2 2.2208 -0.373779 9.4876 13.664
358 2 2.2208 2.49646 1.10956 13.5805
310 2 2.2208 8.15258 4.01188 27.5396
489 2 2.2208 2.38869 17.8934 13.4582
299 2 2.2208 2.5863 14.9521 27.6268
308 2 2.2208 10.8844 1.25106 27.6671
517 2 2.2208 10.9515 15.1191 13.526
455 2 2.2208 8.15912 12.2952 13.5458
637 2 2.2208 5.43021 23.4841 5.217
638 2 2.2208 5.20713 29.1204 5.26547
639 1 -1.1104 0.994471 24.8697 0.872156
640 1 -1.1104 0.985705 24.9227 3.70115
641 1 -1.1104 1.12786 22.0866 1.03057
642 1 -1.1104 0.980189 27.7406 0.896005
643 2 2.2208 5.25589 26.3341 2.46282
644 1 -1.1104 0.920597 22.2821 3.72264
645 1 -1.1104 1.01324 27.7333 3.72918
646 1 -1.1104 3.76056 24.9076 1.13146
647 2 2.2208 2.38901 23.5341 2.47972
648 2 2.2208 2.31111 29.127 2.45293
649 1 -1.1104 4.03829 24.8562 3.77497
650 2 2.2208 2.50506 26.2551 5.16801
651 1 -1.1104 3.82266 22.0551 1.08103
652 1 -1.1104 3.63517 27.6864 1.01844
653 1 -1.1104 3.84882 21.9535 3.89671
654 1 -1.1104 3.84129 27.6338 3.86734
786 1 -1.1104 3.77966 27.6167 6.68424
658 1 -1.1104 6.64544 24.8441 1.0757
778 1 -1.1104 1.23598 24.8537 6.52393
780 1 -1.1104 1.03112 21.9176 6.51848
661 1 -1.1104 6.55343 27.7611 1.10672
662 1 -1.1104 6.60873 22.1236 3.82872
660 1 -1.1104 6.71811 21.9608 0.944916
782 1 -1.1104 6.75931 22.1815 6.64925
1251 2 2.2208 10.8215 34.8047 -0.445051
1505 1 -1.1104 9.37534 47.194 6.49891
663 1 -1.1104 6.57792 27.7905 3.82907
659 1 -1.1104 6.76518 25.0801 3.82369
664 2 2.2208 10.8715 23.5679 5.23345
665 2 2.2208 10.7975 29.1354 5.28869
666 1 -1.1104 12.1064 24.8998 0.929092
667 1 -1.1104 12.2771 24.915 3.78021
668 1 -1.1104 12.2954 22.2853 1.0334
669 1 -1.1104 12.2268 27.5626 1.11169
670 2 2.2208 10.7613 26.327 2.37974
671 1 -1.1104 12.1604 22.3163 3.77861
672 1 -1.1104 12.1751 27.6909 3.93055
673 1 -1.1104 9.44124 24.9512 0.83628
674 2 2.2208 8.07763 23.5972 2.31758
675 2 2.2208 8.00836 29.1603 2.36596
676 1 -1.1104 9.41489 24.9469 3.83128
677 2 2.2208 8.03384 26.4205 5.21786
678 1 -1.1104 9.46187 21.9961 0.9227
679 1 -1.1104 9.5252 27.769 0.936834
680 1 -1.1104 9.42252 22.25 3.78102
681 1 -1.1104 9.45627 27.8224 3.78541
816 1 -1.1104 9.37653 27.8028 6.56438
812 1 -1.1104 12.3701 22.1487 6.5617
813 1 -1.1104 12.1447 27.7408 6.67233
815 1 -1.1104 9.5703 22.1857 6.60799
811 1 -1.1104 12.1784 24.9309 6.55724
1513 1 -1.1104 12.3506 47.2131 9.34773
757 1 -1.1104 12.2447 44.4653 12.2602
685 2 2.2208 5.17424 34.6335 5.29564
686 1 -1.1104 1.04397 30.5864 1.13677
687 1 -1.1104 0.920246 36.1027 1.12637
689 1 -1.1104 1.10592 30.5863 3.8419
690 1 -1.1104 1.00728 36.135 3.72382
692 1 -1.1104 1.00746 33.4252 1.07809
693 2 2.2208 5.20341 31.9155 2.47612
694 2 2.2208 5.11295 37.5491 2.34332
695 1 -1.1104 0.920562 33.2605 3.80883
697 1 -1.1104 3.85571 30.4475 1.11367
698 1 -1.1104 3.85537 36.0188 0.933336
699 2 2.2208 2.47398 34.594 2.40203
700 1 -1.1104 3.84159 30.518 3.96239
701 1 -1.1104 3.85941 36.0164 3.82333
702 2 2.2208 2.39858 31.8806 5.18247
703 2 2.2208 2.44801 37.4269 5.11257
704 1 -1.1104 3.76885 33.2438 0.992606
705 1 -1.1104 3.83751 33.2667 3.8882
841 1 -1.1104 3.75103 30.4451 6.49817
839 1 -1.1104 0.962168 33.4422 6.63872
843 1 -1.1104 3.89857 33.3168 6.6054
836 1 -1.1104 1.0639 36.0721 6.58635
835 1 -1.1104 0.999757 30.434 6.52222
711 1 -1.1104 6.53946 33.3889 1.11422
710 1 -1.1104 6.67774 30.5448 3.758
840 1 -1.1104 6.57925 33.1563 6.68976
696 1 -1.1104 6.572 33.2893 3.84071
688 1 -1.1104 6.68312 36.1292 1.05205
691 1 -1.1104 6.50506 36.2424 3.77567
837 1 -1.1104 6.52921 30.3642 6.68449
838 1 -1.1104 6.63687 36.044 6.54938
982 2 2.2208 2.45542 23.5364 13.5802
1281 1 -1.1104 0.845606 47.2659 4.00674
709 1 -1.1104 6.48637 30.5083 1.02432
712 2 2.2208 10.7298 34.6812 5.22273
713 1 -1.1104 12.1056 30.3326 0.995366
714 1 -1.1104 12.075 36.1981 1.0727
715 1 -1.1104 12.1622 30.339 3.84647
716 1 -1.1104 12.2202 35.9014 3.8195
717 1 -1.1104 11.972 33.2753 0.839012
718 2 2.2208 10.7579 31.7096 2.44591
719 2 2.2208 10.6954 37.4235 2.48837
720 1 -1.1104 12.2904 33.1584 3.66101
721 1 -1.1104 9.33104 30.5301 0.913244
722 1 -1.1104 9.41579 36.1205 1.08679
723 2 2.2208 7.87062 34.7821 2.4862
724 1 -1.1104 9.48006 30.5502 3.79046
725 1 -1.1104 9.39462 35.977 3.87298
726 2 2.2208 7.94526 31.835 5.21866
727 2 2.2208 7.95121 37.5213 5.24025
728 1 -1.1104 9.07789 33.5206 0.876034
729 1 -1.1104 9.46868 33.3647 3.70261
869 1 -1.1104 12.2557 30.4408 6.71358
870 1 -1.1104 12.0719 36.0371 6.59351
874 1 -1.1104 9.42394 33.2536 6.56956
871 1 -1.1104 12.2293 33.3782 6.70396
873 1 -1.1104 9.43698 36.0117 6.7157
1493 1 -1.1104 3.71842 47.3032 9.4744
1481 1 -1.1104 6.64879 47.2988 9.43199
753 1 -1.1104 3.72916 38.6991 3.86084
742 1 -1.1104 0.953796 38.8412 3.85213
751 1 -1.1104 3.82569 38.8377 1.05594
737 1 -1.1104 1.05475 38.929 1.00376
731 2 2.2208 5.13619 40.2893 5.25743
732 2 2.2208 5.24859 45.7646 5.13719
733 1 -1.1104 0.857896 41.664 0.916502
735 1 -1.1104 1.16247 41.6897 3.81011