ITEM: TIMESTEP
80000
ITEM: NUMBER OF ATOMS
17700
ITEM: BOX BOUNDS pp pp pp
-4.4426424315604601e-01 2.7784264243155928e+01
-5.2792214303744656e+00 3.3335922143036390e+02
-4.3529581859066491e-01 2.7775295818590767e+01
ITEM: ATOMS id type q x y z
1 2 2.2208 5.05534 0.478335 5.36351
2 1 -1.1104 0.744797 -3.64105 0.959246
6 1 -1.1104 0.896357 -3.56628 3.96499
10 1 -1.1104 0.739601 -0.952549 0.799911
12 2 2.2208 5.05281 -2.26273 2.57489
14 1 -1.1104 0.906763 -0.845877 3.72064
16 1 -1.1104 3.944 -3.67092 1.00641
18 2 2.2208 2.22881 0.480323 2.5452
19 1 -1.1104 3.60823 -3.87669 3.94771
21 2 2.2208 2.32321 -2.32608 5.41966
23 1 -1.1104 3.42052 -0.934982 1.09505
24 1 -1.1104 3.67812 -1.0746 3.85067
11 1 -1.1104 6.14777 -1.0929 1.11397
8 1 -1.1104 6.53523 -3.76133 3.88996
4 1 -1.1104 6.42901 -3.65123 1.08777
15 1 -1.1104 6.39723 -0.97332 3.96494
8023 2 2.2208 10.8981 -5.19104 10.7397
17329 2 2.2208 13.6179 -5.18486 7.93062
170 1 -1.1104 1.01897 -0.877891 6.66699
174 1 -1.1104 3.66222 -1.01745 6.83188
8733 2 2.2208 -0.350836 9.06077 2.44693
334 2 2.2208 10.7703 11.7602 -0.277028
31 2 2.2208 10.9321 0.431559 5.05469
32 1 -1.1104 12.1453 -3.84776 0.789601
34 1 -1.1104 12.1743 -3.85726 3.8378
36 1 -1.1104 11.9495 -1.20565 0.941684
37 2 2.2208 10.7934 -2.60922 2.42414
39 1 -1.1104 12.0834 -1.14927 3.74477
40 1 -1.1104 9.35428 -3.80844 0.879217
42 2 2.2208 7.8124 0.54196 2.27803
43 1 -1.1104 9.26342 -3.53721 3.86627
45 2 2.2208 7.99246 -2.16657 5.35668
47 1 -1.1104 9.15622 -0.944342 0.888936
48 1 -1.1104 9.21937 -0.736748 3.90409
310 2 2.2208 2.2868 0.306651 13.5398
208 1 -1.1104 9.31514 -3.90125 6.72339
8030 2 2.2208 5.29185 -5.07962 -0.41871
165 1 -1.1104 9.3289 18.8407 9.48601
82 2 2.2208 10.7213 20.1942 7.88941
329 2 2.2208 2.22713 -2.44015 -0.366877
8744 2 2.2208 -0.347714 17.4272 -0.268765
3 1 -1.1104 1.01691 1.90333 1.19825
7 1 -1.1104 0.917417 1.88852 3.91014
13 2 2.2208 5.04706 3.2143 2.55971
17 1 -1.1104 3.91339 1.87023 1.29577
20 1 -1.1104 3.7475 1.75103 3.92704
22 2 2.2208 2.42556 3.30387 5.25833
54 2 2.2208 5.1346 6.10707 5.38621
56 1 -1.1104 0.666597 7.58066 0.871499
60 1 -1.1104 0.81548 4.75434 0.854714
67 1 -1.1104 0.993065 4.76756 3.64853
72 2 2.2208 2.37664 6.03966 2.45972
76 1 -1.1104 3.5364 4.71729 0.880318
79 1 -1.1104 3.91019 4.63847 4.13795
71 1 -1.1104 3.69488 7.66633 0.975761
74 1 -1.1104 3.71761 7.61992 3.97106
58 1 -1.1104 0.883959 7.48275 3.83125
69 1 -1.1104 6.67669 4.62523 3.95349
239 1 -1.1104 3.64597 4.69722 6.8222
57 1 -1.1104 6.32574 7.79734 1.00308
9 1 -1.1104 6.58979 1.773 3.64473
63 1 -1.1104 6.26155 4.91471 1.16709
5 1 -1.1104 6.43352 1.68218 0.967662
59 1 -1.1104 6.55112 7.30399 3.82919
328 2 2.2208 4.92206 0.610406 -0.215441
234 1 -1.1104 0.983746 7.53596 6.71836
8017 2 2.2208 7.95291 -5.14069 2.46198
33 1 -1.1104 11.908 1.77742 0.971819
35 1 -1.1104 12.1992 1.93505 3.81509
38 2 2.2208 10.7484 3.22142 2.32269
41 1 -1.1104 9.15842 2.03474 0.857006
44 1 -1.1104 9.43529 1.92206 3.64959
46 2 2.2208 7.94447 3.0669 5.33075
84 2 2.2208 10.8673 6.01773 5.2318
88 1 -1.1104 12.2305 4.68972 1.09906
92 1 -1.1104 12.2412 4.65321 3.72427
94 1 -1.1104 9.27988 7.69403 1.13985
95 2 2.2208 7.94053 6.24868 2.40585
99 1 -1.1104 9.0932 4.79005 1.0229
102 1 -1.1104 9.40459 4.69543 3.73761
87 1 -1.1104 12.3447 7.48606 3.7115
97 1 -1.1104 9.41164 7.34508 3.91953
86 1 -1.1104 12.1945 7.51411 0.957446
8779 2 2.2208 13.5777 3.34202 -0.395178
336 2 2.2208 10.5966 6.31677 -0.308692
206 1 -1.1104 12.3601 1.77015 6.6994
267 1 -1.1104 9.42987 7.3203 6.78049
55 2 2.2208 5.03569 11.6146 5.32261
61 1 -1.1104 0.953722 10.3626 1.14664
66 2 2.2208 5.01769 9.01162 2.43387
68 1 -1.1104 0.985148 10.5636 3.99567
73 2 2.2208 2.35228 11.9799 2.5669
75 2 2.2208 2.22183 8.9875 5.32393
77 1 -1.1104 3.61172 10.5957 1.26078
80 1 -1.1104 3.76676 10.4029 3.83191
107 1 -1.1104 0.813426 13.2138 1.05916
113 1 -1.1104 0.529612 13.4245 3.87547
123 1 -1.1104 3.85733 13.3102 1.01419
128 1 -1.1104 3.48833 13.3581 3.90677
64 1 -1.1104 6.33828 10.4855 1.26922
62 1 -1.1104 0.797748 10.3685 6.87461
110 1 -1.1104 6.71645 13.4394 1.20844
70 1 -1.1104 6.46353 10.2467 4.00114
115 1 -1.1104 6.28059 13.1208 3.87436
330 2 2.2208 2.17038 3.2733 -0.465723
124 1 -1.1104 3.51817 13.3716 6.82403
8726 2 2.2208 13.563 17.2547 8.03764
85 2 2.2208 10.8916 11.656 5.24399
89 1 -1.1104 12.3883 10.3806 1.10817
91 2 2.2208 10.8076 8.84174 2.50943
93 1 -1.1104 12.2287 10.3753 3.90404
96 2 2.2208 7.85696 11.73 2.62204
98 2 2.2208 7.93082 8.67624 5.30477
100 1 -1.1104 9.47747 10.4162 1.32586
103 1 -1.1104 9.28239 10.1316 4.0301
142 1 -1.1104 11.9296 13.0092 1.19508
146 1 -1.1104 12.4389 13.1933 3.78032
153 1 -1.1104 9.29722 13.3099 0.664384
158 1 -1.1104 9.38917 13.2101 3.66014
8504 2 2.2208 13.4059 20.2527 5.1896
8427 2 2.2208 13.5698 3.2531 5.22481
341 2 2.2208 5.15776 11.8878 -0.209727
130 2 2.2208 2.16917 14.6947 5.27288
119 2 2.2208 5.09035 14.8068 2.48979
106 2 2.2208 5.21822 17.3252 5.14067
109 1 -1.1104 0.824028 18.7332 1.09937
114 1 -1.1104 0.754629 18.9401 4.01389
116 1 -1.1104 1.16121 15.9029 0.990046
120 2 2.2208 5.21431 20.1344 2.52354
121 1 -1.1104 0.691317 16.3714 3.71979
125 1 -1.1104 3.77912 18.7392 0.992264
127 2 2.2208 2.3567 17.3483 2.45664
129 1 -1.1104 3.7552 18.7424 3.81109
131 2 2.2208 2.25462 20.1922 5.22024
132 1 -1.1104 3.77432 15.8674 0.874639
134 1 -1.1104 3.46941 16.1564 3.9138
139 1 -1.1104 6.76408 18.812 3.93357
138 1 -1.1104 6.72975 18.8613 1.15862
122 1 -1.1104 6.4553 16.1092 3.76196
140 1 -1.1104 6.66634 16.1792 0.946672
126 1 -1.1104 3.85328 18.9324 6.65463
333 2 2.2208 10.6272 0.44627 -0.340691
339 2 2.2208 4.92846 6.1323 -0.409739
302 1 -1.1104 0.927749 18.8373 6.77346
133 1 -1.1104 3.56955 16.0565 6.64675
112 1 -1.1104 6.60191 18.8533 6.63246
8729 2 2.2208 13.4718 0.138618 2.25834
8022 2 2.2208 7.88698 -5.22646 7.87514
83 1 -1.1104 12.3579 15.8265 9.56427
335 2 2.2208 7.8682 9.21752 -0.402817
150 2 2.2208 10.7161 14.5477 2.4456
160 2 2.2208 7.85375 14.4891 5.25587
141 2 2.2208 10.7022 17.3776 5.15299
144 1 -1.1104 12.1786 18.7133 0.952576
147 1 -1.1104 12.2103 18.7715 3.65981
148 1 -1.1104 12.307 16.0281 0.937514
151 2 2.2208 10.725 20.2396 2.3596
152 1 -1.1104 12.1333 16.0915 3.83334
155 1 -1.1104 9.4314 18.8666 0.919704
157 2 2.2208 8.1254 17.496 2.37067
159 1 -1.1104 9.46347 18.952 3.70433
161 2 2.2208 7.83092 20.285 5.21139
162 1 -1.1104 9.50625 15.8273 0.884767
164 1 -1.1104 9.26648 15.981 3.93969
8623 2 2.2208 13.6266 17.3393 2.40025
145 1 -1.1104 12.0624 18.7562 6.36459
149 1 -1.1104 12.0843 16.0361 6.96644
105 1 -1.1104 9.5706 18.686 12.2533
156 1 -1.1104 9.36287 18.7879 6.59338
163 1 -1.1104 9.21354 15.9689 6.66256
199 2 2.2208 7.92648 14.4283 10.7376
172 1 -1.1104 3.70242 -3.87895 6.75651
171 1 -1.1104 6.52197 -1.08209 6.69422
166 1 -1.1104 0.858428 -3.74999 6.65625
175 2 2.2208 5.19535 0.487425 10.9532
176 1 -1.1104 1.22804 -3.62681 12.3792
180 1 -1.1104 0.850244 -3.99343 9.45171
184 1 -1.1104 0.97231 -0.956177 12.1791
186 2 2.2208 5.13823 -2.48079 8.09876
188 1 -1.1104 0.890931 -1.19703 9.24367
190 1 -1.1104 3.98895 -4.12053 12.3794
192 2 2.2208 2.29728 0.383115 8.09286
193 1 -1.1104 3.79498 -3.81713 9.54657
195 2 2.2208 2.40851 -2.44207 10.8081
197 1 -1.1104 3.82868 -1.14226 12.2849
198 1 -1.1104 3.88382 -0.917917 9.50281
182 1 -1.1104 6.56458 -3.81221 9.41054
185 1 -1.1104 6.65537 -0.959465 12.1466
189 1 -1.1104 6.79152 -1.06512 9.46787
178 1 -1.1104 6.66465 -3.89129 12.1836
168 1 -1.1104 6.48546 -3.81415 6.65181
8638 2 2.2208 13.5975 6.03579 8.17825
210 1 -1.1104 9.41759 -0.899916 6.63704
207 1 -1.1104 12.3568 -1.08953 6.52639
205 1 -1.1104 12.357 -3.74924 6.61413
211 2 2.2208 10.9316 0.365559 10.8068
212 1 -1.1104 12.0649 -3.90353 12.281
214 1 -1.1104 12.2685 -3.58766 9.36825
216 1 -1.1104 12.3979 -0.959509 12.2622
217 2 2.2208 10.9699 -2.33397 7.87404
219 1 -1.1104 12.5937 -0.776537 9.56306
220 1 -1.1104 9.37224 -3.83072 12.3467
222 2 2.2208 8.07003 0.456412 8.13545
223 1 -1.1104 9.39306 -4.01027 9.60037
225 2 2.2208 7.94715 -2.54654 10.8282
227 1 -1.1104 9.34582 -1.06094 12.2336
228 1 -1.1104 9.77824 -1.1254 9.48
338 2 2.2208 7.6814 3.27976 -0.329204
325 2 2.2208 10.7848 20.122 13.5286
8015 2 2.2208 2.4042 -5.06183 2.50753
235 1 -1.1104 6.58711 7.4569 6.72993
237 1 -1.1104 6.53246 4.53101 6.75556
173 1 -1.1104 3.70676 1.84869 6.6666
238 1 -1.1104 3.7579 7.7726 6.8531
236 1 -1.1104 0.785031 4.71201 6.69004
169 1 -1.1104 6.46459 1.79707 6.6241
167 1 -1.1104 0.929724 1.97226 6.54701
177 1 -1.1104 0.945059 1.95975 12.3485
181 1 -1.1104 0.673385 1.93248 9.27396
187 2 2.2208 5.22544 3.21993 8.2502
191 1 -1.1104 3.68843 1.7923 12.3871
194 1 -1.1104 3.61262 1.83462 9.58066
196 2 2.2208 2.30556 3.1095 10.8176
240 2 2.2208 4.89296 6.11718 11.1391
242 1 -1.1104 0.801625 7.56318 12.3529
246 1 -1.1104 0.829859 4.73277 12.2937
251 1 -1.1104 0.943791 4.71981 9.65529
256 2 2.2208 2.27598 6.13444 8.16379
260 1 -1.1104 3.54738 4.70634 12.4132
262 1 -1.1104 3.70863 4.55013 9.58472
255 1 -1.1104 3.50993 7.57881 12.4188
244 1 -1.1104 1.02818 7.6319 9.47278
258 1 -1.1104 3.78667 7.60016 9.76128
179 1 -1.1104 6.70778 1.77461 12.3234
248 1 -1.1104 6.39113 4.76952 12.2329
245 1 -1.1104 6.45586 7.57937 9.40525
243 1 -1.1104 6.30447 7.71055 12.3894
253 1 -1.1104 6.51008 4.69809 9.61138
183 1 -1.1104 6.53769 1.75309 9.50957
200 2 2.2208 7.80181 20.1974 10.8659
269 1 -1.1104 9.3716 4.48159 6.59902
266 1 -1.1104 12.1692 4.7512 6.67917
265 1 -1.1104 12.1922 7.65605 6.28233
8689 2 2.2208 13.6166 20.1612 10.9513
8562 2 2.2208 13.7169 3.18689 11.0447
209 1 -1.1104 9.38829 1.77142 6.63245
213 1 -1.1104 12.4171 1.9455 12.3727
215 1 -1.1104 12.3804 1.89927 9.58103
218 2 2.2208 10.9025 3.26226 8.04556
221 1 -1.1104 9.51709 1.72862 12.3882
224 1 -1.1104 9.40633 1.54293 9.61429
226 2 2.2208 8.01748 3.15336 10.8693
268 1 -1.1104 9.27222 4.52692 9.37433
271 1 -1.1104 9.60795 4.54054 12.2912
275 2 2.2208 7.84719 5.9526 8.0922
276 2 2.2208 10.7112 5.88453 10.8944
280 1 -1.1104 12.3864 4.63424 12.5701
283 1 -1.1104 12.225 4.70751 9.61472
278 1 -1.1104 11.8993 7.41755 12.4045
279 1 -1.1104 12.2432 7.37618 9.33155
273 1 -1.1104 9.27344 7.35277 9.70558
285 1 -1.1104 9.15084 7.3234 12.236
229 1 -1.1104 9.4629 15.949 11.9501
111 1 -1.1104 6.30772 13.1539 6.65865
65 1 -1.1104 6.6523 10.4671 6.66729
108 1 -1.1104 0.784698 13.072 6.67419
78 1 -1.1104 3.60132 10.4138 6.83067
241 2 2.2208 5.02994 11.9747 10.9159
247 1 -1.1104 0.835607 10.4249 12.4136
250 2 2.2208 5.01487 9.12345 8.11393
252 1 -1.1104 0.767984 10.2903 9.58427
257 2 2.2208 2.07727 11.8119 8.05368
259 2 2.2208 2.16435 8.91694 11.0712
261 1 -1.1104 3.72993 10.4681 12.3714
263 1 -1.1104 3.55696 10.5419 9.5273
204 1 -1.1104 3.61823 13.4692 9.74071
287 1 -1.1104 3.6335 13.048 12.4894
294 1 -1.1104 0.791648 13.0625 9.59868
299 1 -1.1104 0.753134 13.398 12.4464
297 1 -1.1104 6.57992 13.285 12.2132
254 1 -1.1104 6.43105 10.3552 9.83852
290 1 -1.1104 6.53403 13.1227 9.46871
249 1 -1.1104 6.43332 10.6488 12.526
101 1 -1.1104 9.46601 10.292 6.8596
8639 2 2.2208 13.5255 11.6528 8.23776
154 1 -1.1104 9.2594 13.1418 6.53198
143 1 -1.1104 11.8464 13.3851 6.63263
8643 2 2.2208 13.5284 8.85533 11.1035
90 1 -1.1104 12.1625 10.4339 6.70058
137 1 -1.1104 9.68512 13.2173 9.37085
264 1 -1.1104 9.07266 10.4077 9.43724
270 1 -1.1104 9.22037 10.2381 12.5423
272 2 2.2208 7.7836 8.9155 11.1287
274 2 2.2208 7.82147 11.5783 8.0175
277 2 2.2208 10.8033 11.6583 10.9202
281 1 -1.1104 12.1701 10.2037 12.4737
282 2 2.2208 10.7722 8.83073 8.03972
284 1 -1.1104 11.9588 10.05 9.66685
104 1 -1.1104 9.48095 13.0031 12.5317
27 1 -1.1104 12.2853 12.8869 12.2248
49 1 -1.1104 12.1866 12.87 9.5652
8018 2 2.2208 10.9166 -5.20584 5.18259
117 1 -1.1104 0.731133 15.8985 6.64531
203 1 -1.1104 6.7022 16.0028 12.1184
233 2 2.2208 2.16589 14.7345 11.0792
295 2 2.2208 5.07254 14.7553 8.15063
298 1 -1.1104 0.89508 18.688 12.2163
300 2 2.2208 5.13205 17.503 11.0336
301 1 -1.1104 3.57555 18.7176 9.6186
51 2 2.2208 2.40639 20.2651 10.8841
52 1 -1.1104 3.7702 15.9843 12.4075
202 1 -1.1104 0.935888 16.1701 12.5324
231 1 -1.1104 3.96379 16.1162 9.53355
232 2 2.2208 2.25946 17.4161 8.07254
286 1 -1.1104 3.79403 18.9487 12.3593
291 1 -1.1104 0.82078 18.6256 9.48736
292 1 -1.1104 1.01251 15.9331 9.54183
293 2 2.2208 5.10781 20.3393 8.0591
296 1 -1.1104 6.71895 18.8142 12.3227
118 1 -1.1104 6.33036 15.9835 6.66234
289 1 -1.1104 6.65322 16.151 9.4093
50 1 -1.1104 12.1616 18.6751 9.30689
53 1 -1.1104 12.2504 15.7719 12.4274
26 2 2.2208 10.8072 17.3292 10.881
30 1 -1.1104 12.265 18.7852 12.155
135 2 2.2208 8.04206 17.5058 8.08515
81 2 2.2208 10.7179 14.5988 8.11649
230 1 -1.1104 9.53158 16.0223 9.38483
307 2 2.2208 2.50704 20.2276 -0.280815
288 1 -1.1104 6.32191 19.0747 9.4205
8725 2 2.2208 13.6483 14.4438 10.9224
304 2 2.2208 10.9091 17.4433 -0.318746
305 2 2.2208 2.30115 14.5001 -0.291712
309 2 2.2208 5.253 -2.52338 13.5244
8016 2 2.2208 5.07592 -5.28282 5.16797
8656 2 2.2208 -0.456748 9.0564 8.21137
8525 2 2.2208 13.6387 14.6212 5.23144
337 2 2.2208 7.76546 -2.22565 -0.286
324 2 2.2208 5.23231 14.7031 13.5523
8738 2 2.2208 13.5276 17.2798 13.6607
308 2 2.2208 7.94829 20.2187 -0.382346
8746 2 2.2208 13.4513 14.6323 -0.210174
342 2 2.2208 5.0386 0.493195 16.2114
343 1 -1.1104 0.851699 -3.83793 17.7448
347 1 -1.1104 0.822792 -3.98255 14.9349
355 1 -1.1104 0.93538 -1.05681 17.988
357 2 2.2208 5.25739 -2.37101 19.2082
359 1 -1.1104 0.751861 -1.13063 15.0296
363 1 -1.1104 3.76194 -3.73866 17.7801
365 2 2.2208 2.31694 0.362072 19.1631
366 1 -1.1104 3.76145 -3.98029 14.9982
370 2 2.2208 2.37627 -2.38455 16.3804
372 1 -1.1104 3.6582 -1.12048 17.8607
373 1 -1.1104 3.34909 -0.886014 15.1749
361 1 -1.1104 6.38978 -0.982303 14.8386
345 1 -1.1104 6.59181 -3.98927 17.9791
356 1 -1.1104 6.59188 -0.909194 17.6483
351 1 -1.1104 6.66191 -3.88923 14.8385
8102 2 2.2208 7.94222 -4.96982 24.8566
8815 2 2.2208 -0.321943 -2.5372 24.659
8105 2 2.2208 2.28232 -5.1128 24.8732
385 2 2.2208 10.9973 0.573107 16.7058
386 1 -1.1104 12.3239 -3.68728 18.02
388 1 -1.1104 12.0373 -3.95432 15.0624
392 1 -1.1104 12.3903 -0.766183 17.9405
393 2 2.2208 10.8166 -2.23813 19.4027
395 1 -1.1104 12.1244 -0.771859 15.0178
397 1 -1.1104 9.42662 -3.96317 18.0845
399 2 2.2208 7.95843 0.398073 19.1931
400 1 -1.1104 9.41339 -3.9795 15.2899
404 2 2.2208 7.94595 -2.60981 16.3041
406 1 -1.1104 9.6425 -1.09047 17.8369
407 1 -1.1104 9.18795 -1.16461 14.8647
9005 2 2.2208 -0.457532 11.6917 22.2825
411 2 2.2208 -0.387659 5.94014 16.4415
9000 2 2.2208 -0.359339 14.5229 19.3225
316 2 2.2208 2.23291 6.07907 13.766
389 1 -1.1104 12.3432 -3.75474 20.9967
9036 2 2.2208 13.6761 0.682506 25.2119
401 1 -1.1104 9.42957 -3.81185 20.6899
578 1 -1.1104 12.3072 18.7266 26.4647
8106 2 2.2208 5.29497 -5.07028 22.095
8143 2 2.2208 10.8553 -5.27763 16.7231
8743 2 2.2208 13.6653 0.420273 13.7954
344 1 -1.1104 0.851239 1.74253 17.8771
349 1 -1.1104 0.907292 1.77006 15.1352
358 2 2.2208 5.07101 3.38346 19.2339
364 1 -1.1104 3.6832 1.83323 17.76
368 1 -1.1104 3.64953 2.01342 15.025
371 2 2.2208 2.21057 3.20583 16.4958
418 2 2.2208 5.06183 6.31363 16.6453
420 1 -1.1104 1.13 7.409 17.8416
426 1 -1.1104 0.853341 4.45492 17.9432
431 1 -1.1104 1.04763 4.73424 15.0315
440 2 2.2208 2.18305 5.90735 19.4539
445 1 -1.1104 3.55427 4.63326 17.9107
447 1 -1.1104 3.62274 4.92254 15.1747
422 1 -1.1104 0.883398 7.4702 15.23
439 1 -1.1104 3.83145 7.53608 18.1082
435 1 -1.1104 6.51455 4.62954 15.0369
353 1 -1.1104 6.60664 1.9146 14.9498
421 1 -1.1104 6.46539 7.39312 17.9943
346 1 -1.1104 6.647 1.83272 17.6993
428 1 -1.1104 6.41586 4.73071 17.9876
424 1 -1.1104 6.78789 7.56155 15.2284
350 1 -1.1104 0.93871 1.48499 20.5693
442 1 -1.1104 4.03359 7.7932 15.3422
8961 2 2.2208 13.6552 20.2929 16.6712
317 2 2.2208 5.12938 9.14054 13.8438
387 1 -1.1104 12.2075 2.00361 18.1276
390 1 -1.1104 12.1712 1.95864 15.3993
394 2 2.2208 10.7374 3.33772 19.348
398 1 -1.1104 9.30269 2.03613 18.0317
402 1 -1.1104 9.47408 1.67201 15.0756
405 2 2.2208 7.97191 3.25905 16.4591
454 2 2.2208 10.7135 6.15433 16.6475
459 1 -1.1104 12.2786 4.76542 18.0888
462 1 -1.1104 12.1567 4.85865 15.2299
467 2 2.2208 7.82931 6.17011 19.4502
472 1 -1.1104 9.36912 4.84511 18.0243
474 1 -1.1104 9.41074 4.54132 15.2744
469 1 -1.1104 9.28359 7.41303 15.1764
457 1 -1.1104 12.2365 7.53114 15.277
456 1 -1.1104 12.1938 7.35146 18.1892
466 1 -1.1104 9.39648 7.78253 18.0408
321 2 2.2208 7.97293 11.7433 13.9474
571 2 2.2208 13.592 6.0328 24.9022
606 2 2.2208 10.8156 14.7043 25.0795
318 2 2.2208 2.38363 11.839 13.8208
306 2 2.2208 5.18977 17.3861 27.6278
419 2 2.2208 5.13144 11.904 16.5214
427 1 -1.1104 1.03781 10.3286 18.0193
430 2 2.2208 5.10766 8.94231 19.5834
433 1 -1.1104 1.09829 10.2734 15.2661
441 2 2.2208 2.32835 11.7618 19.3683
444 2 2.2208 2.48435 8.99669 16.7216
446 1 -1.1104 3.81481 10.3548 17.9116
449 1 -1.1104 3.8198 10.6257 15.2533
482 1 -1.1104 0.773033 13.0877 18.0687
486 1 -1.1104 0.894285 13.0004 15.2515
502 1 -1.1104 3.73505 13.134 17.7545
505 1 -1.1104 3.61915 13.3503 15.0148
484 1 -1.1104 6.35153 13.1744 18.1275
490 1 -1.1104 6.45413 13.2099 15.2057
429 1 -1.1104 6.65103 10.3505 18.0524
437 1 -1.1104 6.42176 10.3388 15.2087
412 2 2.2208 -0.391261 8.85458 19.2484
607 2 2.2208 10.7632 20.2385 25.0528
455 2 2.2208 10.663 11.8199 16.751
460 1 -1.1104 12.1401 10.3337 18.0484
461 2 2.2208 10.8469 9.02835 19.6408
464 1 -1.1104 12.0453 10.2213 15.3915
468 2 2.2208 8.0424 11.7706 19.504
471 2 2.2208 7.9457 8.96819 16.739
473 1 -1.1104 9.35062 10.4673 18.3187
476 1 -1.1104 9.22683 10.3848 15.3873
518 1 -1.1104 12.1792 12.9774 18.0012
520 1 -1.1104 11.9814 12.9251 15.1234
529 1 -1.1104 9.23399 13.2711 18.0936
532 1 -1.1104 9.33556 13.2179 15.3781
8027 2 2.2208 10.7057 -4.98877 27.746
577 1 -1.1104 9.44247 18.7586 26.4005
17418 2 2.2208 13.5209 -5.23201 24.877
509 2 2.2208 2.17715 14.5164 16.4367
496 2 2.2208 5.10689 14.614 19.3477
481 2 2.2208 4.93003 17.2876 16.5051
483 1 -1.1104 0.713426 18.7106 17.9446
488 1 -1.1104 0.966041 18.8061 15.123
494 1 -1.1104 0.902523 15.9978 17.9923
497 2 2.2208 5.05308 20.0588 19.4261
498 1 -1.1104 0.74769 15.9842 15.3163
503 1 -1.1104 3.56542 18.7154 17.8106
504 2 2.2208 2.17746 17.2413 19.2669
507 1 -1.1104 3.6118 18.9904 14.9778
510 2 2.2208 2.20711 20.2432 16.6125
511 1 -1.1104 3.63303 15.8608 18.0455
512 1 -1.1104 3.50996 16.054 15.1998
485 1 -1.1104 6.32464 18.6837 17.9726
492 1 -1.1104 6.21777 18.7897 14.9557
495 1 -1.1104 6.4308 15.9776 18.0832
500 1 -1.1104 6.69291 15.9951 15.0008
489 1 -1.1104 0.848499 18.656 20.8044
493 1 -1.1104 6.51653 18.656 20.6955
573 2 2.2208 13.6113 11.6557 19.2154
540 1 -1.1104 9.34011 15.8547 20.8894
535 1 -1.1104 9.07924 18.6619 20.8761
528 1 -1.1104 12.3291 15.9994 20.8405
322 2 2.2208 2.34234 17.3215 13.7244
536 2 2.2208 8.09244 14.7124 16.7103
525 2 2.2208 10.8032 14.6191 19.4475
517 2 2.2208 10.8912 17.2278 16.5483
519 1 -1.1104 12.1514 18.7524 18.1013
522 1 -1.1104 12.2457 18.4743 14.8743
524 1 -1.1104 12.315 15.8391 18.0919
526 2 2.2208 10.6244 20.0598 19.4353
527 1 -1.1104 12.178 15.8158 15.1641
530 1 -1.1104 9.2766 18.8929 17.7018
531 2 2.2208 7.91098 17.348 19.3498
534 1 -1.1104 9.25839 18.9995 15.033
537 2 2.2208 7.85714 20.3392 16.4093
538 1 -1.1104 9.52585 16.0683 18.0425
539 1 -1.1104 9.38949 15.9426 14.9849
8171 2 2.2208 2.48302 -5.1066 19.2846
17338 2 2.2208 13.4462 -5.25404 13.7834
523 1 -1.1104 12.1657 18.8291 20.8404
575 2 2.2208 13.4567 8.62734 16.9233
8817 2 2.2208 -0.427703 -2.36609 19.2495
360 1 -1.1104 0.773969 -1.22854 20.7198
374 1 -1.1104 3.858 -1.11788 20.8516
367 1 -1.1104 3.78919 -3.84799 20.7902
348 1 -1.1104 0.935648 -3.7052 20.4608
414 1 -1.1104 12.1457 18.8575 23.3812
362 1 -1.1104 6.56518 -0.976514 20.492
352 1 -1.1104 6.60772 -3.91283 20.6006
545 2 2.2208 5.14743 0.513318 21.9203
546 1 -1.1104 1.19427 -3.68873 23.386
550 1 -1.1104 1.12438 -3.61028 26.1462
554 1 -1.1104 0.76492 -0.771995 23.3559
556 2 2.2208 4.96907 -2.4383 25.0057
558 1 -1.1104 0.73423 -0.838928 26.1479
560 1 -1.1104 3.79595 -3.68209 23.6159
562 2 2.2208 2.26196 0.443975 25.0081
563 1 -1.1104 3.63091 -3.7257 26.3157
565 2 2.2208 2.58739 -2.38465 22.0432
567 1 -1.1104 3.68616 -0.836447 23.5196
568 1 -1.1104 3.74198 -0.849102 26.244
555 1 -1.1104 6.46785 -0.771556 23.5528
552 1 -1.1104 6.57121 -3.7246 26.4173
548 1 -1.1104 6.65398 -3.88999 23.4446
559 1 -1.1104 6.53872 -0.932731 26.4436
375 2 2.2208 8.05958 20.1239 22.1609
608 1 -1.1104 12.1269 16.0569 26.5073
408 1 -1.1104 9.42257 -0.928402 20.5477
396 1 -1.1104 12.2866 -0.733367 20.6713
581 2 2.2208 10.6188 0.56469 22.2459
582 1 -1.1104 12.2321 -3.79951 23.668
584 1 -1.1104 12.1679 -3.86851 26.3051
586 1 -1.1104 12.0939 -1.03731 23.5712
587 2 2.2208 10.6202 -2.18853 24.9692
589 1 -1.1104 12.0184 -0.783714 26.4873
590 1 -1.1104 9.2734 -3.69529 23.4787
592 2 2.2208 7.77617 0.453827 25.0847
593 1 -1.1104 9.21367 -3.67361 26.3307
595 2 2.2208 8.08379 -2.1823 22.0496
597 1 -1.1104 9.35271 -0.783335 23.6178
598 1 -1.1104 9.2025 -0.92372 26.3293
313 2 2.2208 8.00604 0.340048 13.6554
8818 2 2.2208 13.5921 20.1872 22.2433
376 2 2.2208 -0.408321 5.92514 22.1824
638 2 2.2208 8.12014 17.5225 25.048
354 1 -1.1104 6.65312 1.84639 20.6401
432 1 -1.1104 0.893154 4.37272 20.8479
443 1 -1.1104 3.63743 7.37668 20.7801
369 1 -1.1104 3.75203 1.86023 20.6881
423 1 -1.1104 0.81675 7.21082 20.734
436 1 -1.1104 6.554 4.80175 20.7045
425 1 -1.1104 6.41689 7.40733 20.7508
448 1 -1.1104 3.81103 4.57086 20.7981
547 1 -1.1104 0.61271 1.91626 23.607
551 1 -1.1104 0.695599 1.83779 26.4399
557 2 2.2208 4.99773 3.30432 25.0881
561 1 -1.1104 3.39443 2.06846 23.7087
564 1 -1.1104 3.54263 1.83946 26.5872
566 2 2.2208 2.17993 3.12981 22.1531
610 2 2.2208 5.04494 6.16328 22.0781
614 1 -1.1104 1.01632 7.53906 26.377
616 1 -1.1104 0.803311 4.50347 23.7119
621 1 -1.1104 0.910336 4.81717 26.2856
625 1 -1.1104 3.82278 7.64126 23.5357
626 2 2.2208 2.43073 6.10064 24.9645
628 1 -1.1104 3.83684 7.39766 26.2953
630 1 -1.1104 3.53718 4.67463 23.4008
632 1 -1.1104 3.67508 4.66538 26.5083
612 1 -1.1104 1.03351 7.65121 23.5272
615 1 -1.1104 6.59232 7.40866 26.366
613 1 -1.1104 6.46789 7.72281 23.3909
623 1 -1.1104 6.44604 4.8474 26.7051
637 1 -1.1104 9.43176 19.0009 23.5818
604 1 -1.1104 9.35737 16.264 26.5238
391 1 -1.1104 12.0514 2.14508 20.8579
463 1 -1.1104 12.1197 4.78422 20.8995
553 1 -1.1104 6.37086 1.86605 26.2877
549 1 -1.1104 6.30677 2.14426 23.426
618 1 -1.1104 6.1733 4.8814 23.7303
458 1 -1.1104 12.2479 7.48833 20.964
403 1 -1.1104 9.35089 1.76874 20.8507
470 1 -1.1104 9.33861 7.57672 20.8802
475 1 -1.1104 9.21249 4.88088 20.7468
583 1 -1.1104 12.2667 1.8741 23.6632
585 1 -1.1104 12.3135 1.97043 26.5431
588 2 2.2208 10.7323 3.40866 25.1354
591 1 -1.1104 9.19765 1.91949 23.5373
594 1 -1.1104 9.18467 1.70123 26.4355
596 2 2.2208 7.91954 3.28678 22.0647
601 1 -1.1104 12.2289 4.81012 26.324
636 1 -1.1104 11.9805 4.62359 23.6559
642 1 -1.1104 9.23248 4.58434 26.4653
644 1 -1.1104 9.02927 4.70194 23.5124
648 2 2.2208 7.80362 6.1116 24.9569
649 2 2.2208 10.5997 6.04155 22.2537
652 1 -1.1104 12.1958 7.57731 26.4562
646 1 -1.1104 9.26854 7.72704 26.5208
599 1 -1.1104 9.5473 7.50894 23.6983
651 1 -1.1104 12.1439 7.44014 23.7389
9021 2 2.2208 13.5987 3.19315 22.2291
326 2 2.2208 10.6874 14.356 13.7919
602 1 -1.1104 12.285 15.9361 23.6562
438 1 -1.1104 6.57997 10.3542 20.7281
487 1 -1.1104 1.05741 13.0577 20.6507
434 1 -1.1104 1.06866 10.1649 20.7699
450 1 -1.1104 3.75712 10.2802 20.7087
506 1 -1.1104 3.81668 13.117 20.6828
611 2 2.2208 5.13265 11.7478 22.1663
617 1 -1.1104 1.0048 10.5066 23.7674
620 2 2.2208 5.16489 8.87099 25.0411
622 1 -1.1104 0.683526 10.4037 26.4583
627 2 2.2208 2.37853 11.8188 25.1755
629 2 2.2208 2.45307 9.02996 22.2665
631 1 -1.1104 3.60017 10.41 23.46
633 1 -1.1104 3.72477 10.2066 26.5637
410 1 -1.1104 3.71764 13.2234 26.5047
452 1 -1.1104 0.897616 13.1525 23.5373
515 1 -1.1104 0.822697 13.3833 26.3944
543 1 -1.1104 3.52196 13.0703 23.7113
569 1 -1.1104 6.45979 13.1777 26.488
619 1 -1.1104 6.24927 10.5347 23.9873
491 1 -1.1104 6.5177 13.2046 20.9364
478 1 -1.1104 6.44647 13.3581 23.5613
624 1 -1.1104 6.39642 10.3078 26.6508
605 1 -1.1104 9.43547 16.1059 23.7448
576 2 2.2208 7.85187 14.5857 22.1076
533 1 -1.1104 9.23289 13.1086 21.0142
465 1 -1.1104 12.3139 10.3164 20.9064
8104 2 2.2208 10.7771 -5.2261 22.1604
521 1 -1.1104 11.9242 13.3271 20.8406
477 1 -1.1104 9.54918 10.3708 21.1641
640 1 -1.1104 9.24943 13.2965 26.3761
609 1 -1.1104 9.32919 13.2144 23.7039
600 1 -1.1104 11.8808 10.5898 26.3717
634 2 2.2208 10.6871 8.93327 25.1356
635 1 -1.1104 12.0815 10.2626 23.7196
641 1 -1.1104 9.3267 10.5159 26.7806
643 1 -1.1104 9.23631 10.4347 23.8993
645 2 2.2208 8.01924 9.17259 22.2723
647 2 2.2208 7.87985 11.9159 25.1828
650 2 2.2208 10.7879 11.8749 22.4529
413 1 -1.1104 12.1901 13.3042 23.576
544 1 -1.1104 12.275 13.1764 26.5698
319 2 2.2208 7.96042 6.16976 13.8773
513 1 -1.1104 3.59566 15.9081 20.5676
508 1 -1.1104 3.66187 18.5568 20.5463
409 2 2.2208 10.8903 17.302 22.1763
479 2 2.2208 5.20304 14.5988 25.0056
499 1 -1.1104 1.04013 15.8406 21.0432
501 1 -1.1104 6.53493 15.9675 20.7003
384 1 -1.1104 6.52399 15.9084 23.4377
416 2 2.2208 2.30109 17.1922 24.8807
415 1 -1.1104 3.75062 15.9662 26.2782
516 1 -1.1104 0.877023 16.0554 26.4941
480 2 2.2208 5.17 20.1558 24.7822
453 1 -1.1104 0.750942 18.6857 23.745
451 2 2.2208 5.12141 17.1689 21.9769
417 1 -1.1104 3.7906 18.5596 26.1658
570 1 -1.1104 3.6751 18.5155 23.4446
541 1 -1.1104 0.986833 18.8546 26.4267
379 2 2.2208 2.50752 14.4794 22.0296
380 2 2.2208 2.19344 19.9321 22.212
382 1 -1.1104 3.7344 15.8096 23.4664
383 1 -1.1104 0.757519 15.8609 23.6928
639 1 -1.1104 6.65021 19.005 26.3182
514 1 -1.1104 6.55981 18.616 23.5167
542 1 -1.1104 6.66659 16.034 26.1743
9080 2 2.2208 13.4144 8.96011 22.3956
8856 2 2.2208 13.6286 11.8994 25.0811
8741 2 2.2208 13.5689 -2.48555 27.674
378 2 2.2208 -0.496885 0.318562 16.3492
8857 2 2.2208 13.5995 -2.27063 22.254
320 2 2.2208 10.593 8.93988 13.7888
315 2 2.2208 10.7332 3.29731 13.8106
323 2 2.2208 4.98308 20.3899 13.9158
303 2 2.2208 7.93908 14.8268 27.7272
8770 2 2.2208 -0.469588 6.02699 27.7466
8745 2 2.2208 13.6761 20.1273 27.7435
340 2 2.2208 2.21322 9.10019 27.7721
314 2 2.2208 10.804 -2.4109 13.7013
327 2 2.2208 7.95158 17.4054 13.7439
311 2 2.2208 5.19201 3.42116 13.7518
653 2 2.2208 5.14349 23.1719 5.15215
655 1 -1.1104 0.832386 24.595 1.1112
656 1 -1.1104 0.85028 24.6879 4.02019
657 1 -1.1104 1.05816 21.7165 0.856024
659 2 2.2208 4.96173 25.96 2.27355
660 1 -1.1104 0.932151 21.6913 3.66414
662 1 -1.1104 3.76143 24.5624 0.894217
663 2 2.2208 2.3957 23.0638 2.30528
665 1 -1.1104 3.72403 24.1643 3.77426
666 2 2.2208 2.32662 25.7883 5.38771
667 1 -1.1104 3.65084 21.5708 1.16053
669 1 -1.1104 3.92604 21.4446 3.88773
670 1 -1.1104 3.57065 27.072 3.94237
661 1 -1.1104 0.669214 27.4694 3.71987
658 1 -1.1104 0.640166 27.3793 1.05644
674 1 -1.1104 6.6054 24.792 1.06854
675 1 -1.1104 6.48105 24.6817 3.69543
794 1 -1.1104 0.840313 24.5788 6.70926
676 1 -1.1104 6.63239 21.6035 1.12327
678 1 -1.1104 6.56408 21.7067 3.71324
668 1 -1.1104 3.22006 27.1793 0.914136
797 1 -1.1104 1.1409 27.3006 6.83238
9262 2 2.2208 13.3482 22.9141 8.24789
680 2 2.2208 10.7308 23.0899 5.28282
682 1 -1.1104 12.2195 24.6028 0.948129
683 1 -1.1104 12.0573 24.2968 3.69022
684 1 -1.1104 12.104 21.8726 0.993024
686 2 2.2208 10.7027 25.9004 2.36886
687 1 -1.1104 12.1855 21.3283 3.71576
689 1 -1.1104 9.41822 24.5818 0.883121
690 2 2.2208 7.93252 23.1924 2.36202
692 1 -1.1104 9.29646 24.4587 3.9209
693 2 2.2208 7.89531 25.9433 5.10738
694 1 -1.1104 9.2944 21.6083 0.774206
696 1 -1.1104 9.34288 21.7691 3.76587
695 1 -1.1104 9.46138 27.4844 0.886671
688 1 -1.1104 12.1725 27.1143 4.00331
828 1 -1.1104 12.1023 21.7442 6.71282
830 1 -1.1104 9.39924 24.5977 6.54416
9419 2 2.2208 13.7333 23.1252 2.49412
831 1 -1.1104 9.35988 21.6669 6.64678
827 1 -1.1104 12.223 24.4893 6.79833
9428 2 2.2208 13.4298 45.9339 2.20711
9439 2 2.2208 13.5412 31.4662 -0.431489
954 2 2.2208 -0.432418 23.0945 10.9041
970 2 2.2208 10.3526 37.0701 13.5957
679 1 -1.1104 6.48769 27.3255 3.45464
677 1 -1.1104 6.42665 27.4491 0.807479
654 2 2.2208 4.96885 28.6641 5.2091
664 2 2.2208 2.12257 28.853 2.49532
702 1 -1.1104 0.527474 30.3034 0.924184
705 1 -1.1104 0.659716 30.2822 3.80015
708 1 -1.1104 0.880143 32.9943 0.767074
709 2 2.2208 5.0791 31.5532 2.21135
711 1 -1.1104 0.789261 33.0037 3.85877
713 1 -1.1104 3.61495 30.2194 1.21718
716 1 -1.1104 3.58032 30.1695 3.85986
718 2 2.2208 2.17555 31.56 5.29647
720 1 -1.1104 3.60328 33.0479 0.794215
721 1 -1.1104 3.57603 32.7863 3.80232
712 1 -1.1104 6.35507 32.9814 3.76658
725 1 -1.1104 6.5623 30.282 0.810095
726 1 -1.1104 6.34755 30.0719 3.80618
855 1 -1.1104 0.850352 32.9917 6.76898
856 1 -1.1104 6.34878 33.0446 6.43651
965 2 2.2208 4.94074 37.1318 13.4527
685 1 -1.1104 12.185 27.413 1.01771
697 1 -1.1104 9.32231 27.2834 3.69323
727 1 -1.1104 6.43215 32.9613 0.740243
681 2 2.2208 10.6387 28.642 5.16149
691 2 2.2208 7.89547 28.7388 2.29193
729 1 -1.1104 12.2058 30.1119 0.794388
731 1 -1.1104 11.9924 30.1538 3.64848
733 1 -1.1104 11.9373 32.9573 1.01181
734 2 2.2208 10.6598 31.5024 2.22505
736 1 -1.1104 12.1916 32.8976 3.79634
737 1 -1.1104 9.31943 30.0148 0.937429
740 1 -1.1104 8.98561 30.0951 3.68428
742 2 2.2208 7.72579 31.5026 5.076
744 1 -1.1104 9.2598 32.9137 0.843247
745 1 -1.1104 9.46983 32.9788 3.6659
829 1 -1.1104 12.3262 27.18 6.75198
885 1 -1.1104 12.2164 29.8175 6.47081
890 1 -1.1104 9.22589 32.9316 6.51629
1537 1 -1.1104 12.0182 46.9965 9.63274
9386 2 2.2208 13.4979 45.5039 8.12955
9163 2 2.2208 13.4192 37.2333 5.32126
887 1 -1.1104 11.8459 32.7407 6.44998
1498 1 -1.1104 3.46996 46.8675 6.64046
947 1 -1.1104 9.19644 44.2682 12.3602
701 2 2.2208 4.9044 34.2392 5.23062
703 1 -1.1104 0.82098 35.8464 0.827665
706 1 -1.1104 1.1031 35.7649 3.99802
710 2 2.2208 5.006 37.083 2.30273
714 1 -1.1104 3.67338 35.7124 1.04014
715 2 2.2208 2.27249 34.3434 2.42943
717 1 -1.1104 3.67227 35.8322 3.76315
719 2 2.2208 2.30137 37.3786 5.28215
747 2 2.2208 5.05447 40.025 5.18486
753 1 -1.1104 0.893707 38.5914 1.126
758 1 -1.1104 0.566348 38.5875 4.03316