ITEM: TIMESTEP
60000
ITEM: NUMBER OF ATOMS
17700
ITEM: BOX BOUNDS pp pp pp
-4.4532644669672095e-01 2.7785326446696683e+01
-5.2893958702369135e+00 3.3336939587022738e+02
-4.4914303303576486e-01 2.7789143033035987e+01
ITEM: ATOMS id type q x y z
1 2 2.2208 5.52033 0.334587 5.18951
2 1 -1.1104 1.6028 -3.99638 0.918722
6 1 -1.1104 1.41899 -4.00651 3.5797
10 1 -1.1104 1.35048 -1.30577 1.01426
12 2 2.2208 5.45047 -2.54547 2.35334
14 1 -1.1104 1.39581 -1.33978 3.55223
16 1 -1.1104 4.47347 -3.95904 0.832766
18 2 2.2208 2.69336 0.196902 2.37212
19 1 -1.1104 4.26231 -3.98813 3.50585
21 2 2.2208 2.71417 -2.59231 4.97555
23 1 -1.1104 4.15531 -1.21802 0.874048
24 1 -1.1104 4.22347 -1.04382 3.59853
170 1 -1.1104 1.21765 -1.19272 6.31472
8724 2 2.2208 -0.333995 0.254442 5.18575
172 1 -1.1104 3.99842 -4.05814 6.46461
166 1 -1.1104 1.45769 -4.08165 6.31624
25 2 2.2208 -0.0338456 -2.6449 2.37309
8017 2 2.2208 8.37416 -5.26968 2.29265
11 1 -1.1104 6.99275 -0.911226 0.98196
8 1 -1.1104 7.00624 -4.10086 3.84908
171 1 -1.1104 6.90079 -1.1359 6.56469
15 1 -1.1104 6.90759 -1.13684 3.88487
4 1 -1.1104 7.2012 -3.86771 0.984515
31 2 2.2208 11.3206 0.275139 5.4064
32 1 -1.1104 12.4216 -4.00539 1.09694
34 1 -1.1104 12.6263 -3.77794 3.99592
36 1 -1.1104 12.7297 -1.30968 1.07661
37 2 2.2208 11.2753 -2.46154 2.42578
39 1 -1.1104 12.5878 -1.16956 4.01961
40 1 -1.1104 9.85215 -3.88837 1.06446
42 2 2.2208 8.34879 0.320213 2.35243
43 1 -1.1104 9.92755 -3.88749 3.86161
45 2 2.2208 8.53631 -2.46722 5.11119
47 1 -1.1104 9.85501 -0.975606 0.894291
48 1 -1.1104 9.74003 -1.18957 3.77536
329 2 2.2208 2.83092 -2.57899 -0.313628
8428 2 2.2208 -0.37207 19.8695 7.98893
3 1 -1.1104 1.21502 1.74949 0.920387
7 1 -1.1104 1.30807 1.62943 3.77286
13 2 2.2208 5.42235 2.97788 2.39566
17 1 -1.1104 4.12839 1.72991 0.978306
20 1 -1.1104 4.11447 1.72966 3.77031
22 2 2.2208 2.70577 2.99085 5.23124
54 2 2.2208 5.25947 6.09809 5.13278
56 1 -1.1104 1.31648 7.2502 0.767879
58 1 -1.1104 1.11033 7.48804 3.63693
60 1 -1.1104 1.10712 4.45367 1.20775
67 1 -1.1104 1.43493 4.46888 3.9426
72 2 2.2208 2.46988 6.01198 2.33379
76 1 -1.1104 3.71797 4.6863 0.795432
79 1 -1.1104 4.18167 4.49877 3.98417
71 1 -1.1104 4.09957 7.44119 0.876314
239 1 -1.1104 3.96302 4.63305 6.69628
173 1 -1.1104 4.28517 1.75146 6.51476
74 1 -1.1104 3.85297 7.37434 3.65834
8732 2 2.2208 -0.20346 5.89868 5.17553
236 1 -1.1104 1.10353 4.37321 6.64182
234 1 -1.1104 1.01075 7.26164 6.47591
8727 2 2.2208 -0.0433663 2.89713 2.31977
310 2 2.2208 2.68325 0.380787 13.5008
8734 2 2.2208 -0.0175927 11.4171 5.25246
59 1 -1.1104 6.79427 7.45648 3.72791
5 1 -1.1104 7.03968 1.88456 0.890654
63 1 -1.1104 6.70278 4.67427 0.978634
57 1 -1.1104 6.78473 7.42826 0.960797
9 1 -1.1104 6.89316 1.57607 3.70149
69 1 -1.1104 7.00142 4.25635 3.77276
237 1 -1.1104 6.94584 4.44895 6.51211
235 1 -1.1104 6.92779 7.2766 6.55705
33 1 -1.1104 12.5373 1.62128 1.02445
35 1 -1.1104 12.451 1.63058 3.82572
38 2 2.2208 11.0252 3.09262 2.39579
41 1 -1.1104 9.89846 1.76819 0.881107
44 1 -1.1104 9.69609 1.52828 3.88321
46 2 2.2208 8.36926 3.02883 5.11792
84 2 2.2208 10.9955 5.90881 5.34121
88 1 -1.1104 12.3726 4.30694 0.949621
92 1 -1.1104 12.446 4.37169 4.11736
94 1 -1.1104 9.69887 7.21031 1.09986
95 2 2.2208 8.07065 5.99814 2.27777
99 1 -1.1104 9.53089 4.51378 1.11847
102 1 -1.1104 9.76563 4.41714 4.11389
87 1 -1.1104 12.5657 7.04539 3.77993
97 1 -1.1104 9.70851 7.39406 3.80022
209 1 -1.1104 9.80508 1.65913 6.70574
86 1 -1.1104 12.6511 7.26536 1.07281
267 1 -1.1104 9.38986 7.33503 6.56843
265 1 -1.1104 12.3755 7.25557 6.53659
8742 2 2.2208 -0.0790435 -2.4076 13.6403
269 1 -1.1104 9.77985 4.57152 6.74897
206 1 -1.1104 12.6941 1.62983 6.65686
55 2 2.2208 5.40638 11.7179 5.181
61 1 -1.1104 1.25887 9.87997 0.905609
66 2 2.2208 5.42824 8.91808 2.25658
68 1 -1.1104 1.31381 10.4809 3.77415
73 2 2.2208 2.7584 11.7037 2.50187
75 2 2.2208 2.61956 8.72739 5.15362
77 1 -1.1104 3.98826 10.3275 0.892999
80 1 -1.1104 3.84796 10.0847 3.89236
107 1 -1.1104 1.02375 12.8226 1.02189
113 1 -1.1104 1.26688 12.9824 3.80404
123 1 -1.1104 3.91842 13.2184 1.08104
128 1 -1.1104 4.04745 13.1836 3.87462
108 1 -1.1104 0.794257 13.2655 6.72195
307 2 2.2208 2.53338 20.0889 -0.305112
311 2 2.2208 5.45782 3.32468 13.6818
78 1 -1.1104 3.99902 10.1995 6.58862
124 1 -1.1104 3.70509 13.0716 6.5723
296 1 -1.1104 6.71642 18.6887 12.271
8020 2 2.2208 5.53519 -5.17688 10.8522
115 1 -1.1104 6.81204 13.0442 3.7942
70 1 -1.1104 6.6192 10.2829 3.53254
110 1 -1.1104 6.86274 13.0718 0.955858
64 1 -1.1104 6.7804 10.1724 0.840352
85 2 2.2208 10.9653 11.5941 5.1526
89 1 -1.1104 12.524 10.0496 1.10953
91 2 2.2208 11.2561 8.51459 2.50124
93 1 -1.1104 12.444 9.898 3.65632
96 2 2.2208 8.18459 11.6148 2.22355
98 2 2.2208 8.14943 8.80079 5.41433
100 1 -1.1104 9.5536 10.0835 1.13196
103 1 -1.1104 9.39254 10.1908 4.05115
142 1 -1.1104 12.3482 13.0169 1.06201
146 1 -1.1104 12.6207 12.788 3.96098
153 1 -1.1104 9.55625 13.0274 1.06793
158 1 -1.1104 9.80205 13.2686 3.90143
111 1 -1.1104 6.48909 13.1768 6.59619
154 1 -1.1104 9.23624 12.9773 6.50231
101 1 -1.1104 9.52979 10.0932 6.82393
304 2 2.2208 11.0565 17.3759 -0.412635
8731 2 2.2208 -0.210113 14.542 2.4611
334 2 2.2208 10.9167 11.4191 -0.335033
326 2 2.2208 10.7795 14.6362 13.7199
8728 2 2.2208 -0.316909 17.2691 5.10463
130 2 2.2208 2.57969 14.6072 5.12512
119 2 2.2208 5.45674 14.4992 2.40773
106 2 2.2208 5.25267 17.348 5.46482
109 1 -1.1104 0.973064 18.5862 0.879905
114 1 -1.1104 1.0993 18.6892 3.71583
116 1 -1.1104 1.40495 15.5417 1.07101
120 2 2.2208 5.3028 20.1095 2.39672
121 1 -1.1104 1.0396 15.8463 3.8052
125 1 -1.1104 3.75103 18.5852 0.764465
127 2 2.2208 2.47936 17.3584 2.2755
129 1 -1.1104 3.90098 18.7708 3.83465
131 2 2.2208 2.41921 19.9728 5.26692
132 1 -1.1104 4.11621 15.8548 1.05309
134 1 -1.1104 4.12392 16.0731 3.83931
332 2 2.2208 -0.189924 0.357063 -0.445349
133 1 -1.1104 4.02495 15.9211 6.76663
8018 2 2.2208 11.1097 -5.26306 5.21574
140 1 -1.1104 6.84232 15.9831 1.17886
139 1 -1.1104 6.65822 18.7592 3.77395
122 1 -1.1104 6.87243 15.834 3.75116
138 1 -1.1104 6.68556 18.8714 0.946614
150 2 2.2208 11.0058 14.4897 2.35191
160 2 2.2208 8.30767 14.6182 5.06639
141 2 2.2208 11.0894 17.2567 5.27605
144 1 -1.1104 12.4528 18.7133 0.907423
147 1 -1.1104 12.5288 18.7691 3.83977
148 1 -1.1104 12.4874 15.9992 1.05471
151 2 2.2208 11.0826 20.3448 2.39762
152 1 -1.1104 12.4038 16.0336 3.8374
155 1 -1.1104 9.54136 19.0754 0.996104
157 2 2.2208 8.17968 17.2417 2.39729
159 1 -1.1104 9.59958 18.8416 3.7979
161 2 2.2208 8.16132 20.2489 5.36583
162 1 -1.1104 9.57324 15.7675 1.01866
164 1 -1.1104 9.76745 16.0745 3.81458
163 1 -1.1104 9.32701 15.9015 6.62081
112 1 -1.1104 6.59067 18.9232 6.58305
199 2 2.2208 8.33454 14.5458 10.8539
149 1 -1.1104 12.2214 15.6398 6.58423
156 1 -1.1104 9.46159 18.8625 6.68362
145 1 -1.1104 12.4595 18.8158 6.5463
174 1 -1.1104 3.95586 -1.06188 6.52209
201 2 2.2208 -0.14125 0.376152 10.67
175 2 2.2208 5.63931 0.358133 10.6696
176 1 -1.1104 1.35836 -3.81868 11.7793
180 1 -1.1104 1.25969 -3.99476 9.16061
184 1 -1.1104 1.45672 -1.11207 12.1349
186 2 2.2208 5.49752 -2.502 7.77179
188 1 -1.1104 1.54881 -1.04133 9.11765
190 1 -1.1104 4.14896 -3.98669 12.4372
192 2 2.2208 2.79447 0.440701 7.77401
193 1 -1.1104 4.15625 -3.95631 9.34817
195 2 2.2208 2.82576 -2.36978 10.7463
197 1 -1.1104 4.31174 -1.14406 12.2042
198 1 -1.1104 4.28076 -1.12067 9.41779
8588 2 2.2208 0.139083 -2.71174 7.64623
135 2 2.2208 8.03982 17.4589 8.00335
305 2 2.2208 2.50741 14.3035 -0.39093
210 1 -1.1104 9.90556 -0.992309 6.66462
168 1 -1.1104 6.52736 -4.23536 6.62289
208 1 -1.1104 9.56243 -3.75902 6.62514
207 1 -1.1104 12.6844 -1.06691 6.6938
331 2 2.2208 -0.210272 3.04132 13.5931
30 1 -1.1104 12.3778 18.7648 12.2097
205 1 -1.1104 12.4843 -3.81757 6.48882
178 1 -1.1104 7.04275 -3.81231 12.2397
182 1 -1.1104 6.95369 -4.11813 9.59731
185 1 -1.1104 7.29148 -1.14874 12.2068
189 1 -1.1104 6.95841 -1.07531 9.4668
211 2 2.2208 11.2277 0.399328 10.8058
212 1 -1.1104 12.7557 -3.79557 12.5153
214 1 -1.1104 12.6831 -3.94968 9.5343
216 1 -1.1104 12.8483 -1.0313 12.2695
217 2 2.2208 11.1714 -2.61503 8.11735
219 1 -1.1104 12.4556 -1.22179 9.4591
220 1 -1.1104 9.8707 -3.89759 12.1625
222 2 2.2208 8.39597 0.334565 7.85171
223 1 -1.1104 9.92621 -4.16099 9.31531
225 2 2.2208 8.40116 -2.51996 10.7559
227 1 -1.1104 10.0867 -1.07158 12.3266
228 1 -1.1104 9.75032 -1.16144 9.2312
167 1 -1.1104 1.21773 1.64782 6.62679
238 1 -1.1104 4.01855 7.49356 6.51724
8622 2 2.2208 -0.0761965 3.07811 7.95944
28 2 2.2208 -0.253654 5.94695 10.8715
177 1 -1.1104 1.41897 1.82909 12.0666
181 1 -1.1104 1.39528 1.69932 9.37158
187 2 2.2208 5.70058 3.33413 7.87749
191 1 -1.1104 4.31528 1.7081 12.1437
194 1 -1.1104 4.22251 1.68922 9.18325
196 2 2.2208 2.70232 3.06696 10.7792
240 2 2.2208 5.17441 6.0487 10.8059
242 1 -1.1104 1.01271 7.26417 12.3104
246 1 -1.1104 1.16067 4.59868 12.2704
251 1 -1.1104 1.42333 4.49906 9.27707
256 2 2.2208 2.56571 6.03885 7.96027
260 1 -1.1104 3.94627 4.66861 12.4215
262 1 -1.1104 4.15172 4.51082 9.44481
255 1 -1.1104 3.63826 7.41307 12.3058
244 1 -1.1104 1.16128 7.37826 9.38957
258 1 -1.1104 3.89252 7.39433 9.50913
8023 2 2.2208 11.2077 -5.25715 10.9205
8643 2 2.2208 13.5371 8.99928 10.9878
203 1 -1.1104 6.68786 15.9702 12.509
266 1 -1.1104 12.5623 4.3883 6.62995
169 1 -1.1104 7.07938 1.68576 6.58555
8454 2 2.2208 -0.339141 14.4449 8.09485
183 1 -1.1104 7.12598 1.80612 9.21588
243 1 -1.1104 6.58918 7.29916 12.3222
179 1 -1.1104 7.024 1.72373 12.1184
253 1 -1.1104 6.89834 4.92757 9.31466
245 1 -1.1104 6.89021 7.56404 9.33132
248 1 -1.1104 6.82653 4.49291 12.0891
213 1 -1.1104 12.5091 1.93739 12.2726
215 1 -1.1104 12.7363 1.84906 9.41676
218 2 2.2208 11.2508 3.0709 8.01592
221 1 -1.1104 9.67821 1.87007 12.1919
224 1 -1.1104 9.774 1.70673 9.51033
226 2 2.2208 8.29313 3.2027 10.7939
268 1 -1.1104 9.69565 4.67349 9.51425
271 1 -1.1104 9.68221 4.61507 12.5136
275 2 2.2208 8.39106 5.8941 8.05566
276 2 2.2208 10.9318 5.94841 10.8884
280 1 -1.1104 12.3533 4.74567 12.2115
283 1 -1.1104 12.3653 4.50467 9.37687
278 1 -1.1104 12.1725 7.58244 12.0783
279 1 -1.1104 12.4478 7.51283 9.22345
273 1 -1.1104 9.60735 7.50054 9.46122
285 1 -1.1104 9.27133 7.56412 12.2964
288 1 -1.1104 6.58444 18.8099 9.46855
62 1 -1.1104 1.34247 10.2223 6.52244
230 1 -1.1104 9.56921 15.9752 9.36545
8656 2 2.2208 -0.236605 8.89354 8.07625
241 2 2.2208 5.2982 11.4349 10.8109
247 1 -1.1104 0.863419 10.2757 12.3217
250 2 2.2208 5.34578 8.70475 7.90082
252 1 -1.1104 1.11377 10.3459 9.34742
257 2 2.2208 2.38886 11.7876 7.9708
259 2 2.2208 2.52972 8.93827 10.7553
261 1 -1.1104 3.6867 10.2801 12.0228
263 1 -1.1104 3.94001 10.1417 9.33671
204 1 -1.1104 3.99035 13.0184 9.37907
287 1 -1.1104 3.74149 12.8721 12.4314
294 1 -1.1104 1.00312 13.173 9.51629
299 1 -1.1104 1.16689 12.9348 12.2385
29 2 2.2208 -0.357857 11.7622 10.9944
65 1 -1.1104 6.6874 10.4128 6.66896
81 2 2.2208 10.9695 14.3285 8.0428
143 1 -1.1104 12.4474 12.9359 6.59726
83 1 -1.1104 12.3427 15.8295 9.40222
90 1 -1.1104 12.3064 10.029 6.61281
290 1 -1.1104 6.89208 13.0747 9.58087
254 1 -1.1104 6.63287 10.094 9.35534
297 1 -1.1104 6.75867 13.3422 12.284
249 1 -1.1104 6.403 10.3403 12.4706
137 1 -1.1104 9.55049 12.9955 9.53789
264 1 -1.1104 9.53197 10.324 9.78388
270 1 -1.1104 9.22326 10.2941 12.4037
272 2 2.2208 8.04587 9.00933 10.8887
274 2 2.2208 8.08289 11.6543 8.14202
277 2 2.2208 10.8842 11.7246 10.9648
281 1 -1.1104 12.2394 10.2632 12.3828
282 2 2.2208 11.0093 8.87013 7.99815
284 1 -1.1104 12.2209 10.4007 9.516
104 1 -1.1104 9.45972 13.0752 12.2163
27 1 -1.1104 12.3324 12.8453 11.9703
49 1 -1.1104 12.2832 13.0656 9.30666
302 1 -1.1104 0.937595 18.5778 6.48715
117 1 -1.1104 1.26223 15.9271 6.85535
229 1 -1.1104 9.42872 15.944 12.1478
325 2 2.2208 10.9711 20.234 13.5991
126 1 -1.1104 3.65764 18.5955 6.80305
8429 2 2.2208 -0.46051 17.1307 10.9449
8733 2 2.2208 -0.153177 8.92723 2.37572
298 1 -1.1104 1.19693 18.4928 12.3632
233 2 2.2208 2.47582 14.4329 10.8989
295 2 2.2208 5.33433 14.4716 8.27278
300 2 2.2208 5.26909 17.4045 11.0019
301 1 -1.1104 3.85025 18.7947 9.44765
51 2 2.2208 2.47311 20.0923 10.7143
52 1 -1.1104 3.98027 16.0021 12.2515
202 1 -1.1104 1.06389 15.6423 12.4792
231 1 -1.1104 3.81646 15.9386 9.60483
232 2 2.2208 2.38791 17.3134 8.23776
286 1 -1.1104 3.73961 18.7918 12.1028
291 1 -1.1104 0.998617 18.6091 9.403
292 1 -1.1104 1.01063 15.8363 9.62312
293 2 2.2208 5.18831 20.216 8.11916
313 2 2.2208 8.40198 0.334882 13.5285
50 1 -1.1104 12.3111 18.8765 9.57876
105 1 -1.1104 9.49536 18.7153 12.3555
82 2 2.2208 10.9797 20.3986 7.98633
165 1 -1.1104 9.41846 18.799 9.50798
118 1 -1.1104 6.77508 16.0993 6.7387
53 1 -1.1104 12.2925 15.7204 12.1307
289 1 -1.1104 6.80397 16.0079 9.39146
200 2 2.2208 8.09879 20.1141 10.9674
26 2 2.2208 10.7729 17.4323 10.8498
330 2 2.2208 2.52846 3.1554 -0.357605
8036 2 2.2208 2.62466 -5.13217 13.4217
319 2 2.2208 8.12843 5.88664 13.5957
323 2 2.2208 5.25693 20.1133 13.6663
333 2 2.2208 11.247 0.299692 -0.432733
335 2 2.2208 8.1979 8.56955 -0.354553
336 2 2.2208 11.228 5.87732 -0.274898
318 2 2.2208 2.35467 11.6032 13.6689
342 2 2.2208 5.51326 0.619717 16.4162
343 1 -1.1104 1.57492 -3.95693 17.7622
347 1 -1.1104 1.42894 -3.85252 14.8869
355 1 -1.1104 1.21593 -1.06574 17.8453
357 2 2.2208 5.35375 -2.44031 19.3135
359 1 -1.1104 1.23432 -0.959235 14.8561
363 1 -1.1104 4.21028 -3.76132 17.8758
365 2 2.2208 2.59237 0.304827 19.4114
366 1 -1.1104 4.14619 -3.94839 15.1382
370 2 2.2208 3.01993 -2.28277 16.4865
372 1 -1.1104 4.08757 -0.948636 17.8628
373 1 -1.1104 4.13581 -1.0615 14.9744
367 1 -1.1104 4.11736 -3.84537 20.7718
378 2 2.2208 -0.181165 0.344642 16.4255
348 1 -1.1104 1.13306 -3.95007 20.631
374 1 -1.1104 4.06041 -1.0734 20.6276
8817 2 2.2208 -0.030508 -2.45392 19.24
8141 2 2.2208 8.47827 -5.25299 19.4959
360 1 -1.1104 1.22825 -1.15336 20.7699
8172 2 2.2208 5.45781 -5.23658 16.5322
17420 2 2.2208 -0.0552841 -5.29773 16.4603
345 1 -1.1104 6.88316 -3.75941 17.8454
356 1 -1.1104 6.70571 -1.00021 17.7609
351 1 -1.1104 7.07569 -3.77006 15.1471
362 1 -1.1104 6.72793 -0.923974 20.5777
361 1 -1.1104 7.04365 -0.975761 14.9518
385 2 2.2208 11.1385 0.36208 16.4389
386 1 -1.1104 12.4947 -4.00104 18.0796
388 1 -1.1104 12.6571 -3.86898 15.2648
392 1 -1.1104 12.6742 -1.08803 17.7232
393 2 2.2208 11.1251 -2.40464 19.3642
395 1 -1.1104 12.5375 -1.13329 15.0713
397 1 -1.1104 9.69854 -3.89309 17.848
399 2 2.2208 8.33409 0.27186 19.3124
400 1 -1.1104 10.0011 -3.89562 15.0463
404 2 2.2208 8.38846 -2.50317 16.4697
406 1 -1.1104 9.69479 -0.986107 17.8249
407 1 -1.1104 9.7932 -1.10673 14.8413
408 1 -1.1104 9.65854 -1.02536 20.7434
341 2 2.2208 5.52008 11.5987 27.5661
344 1 -1.1104 1.33797 1.70536 17.9277
349 1 -1.1104 1.28327 1.83113 15.004
358 2 2.2208 5.49181 3.11873 19.5014
364 1 -1.1104 4.17656 1.80476 18.1569
368 1 -1.1104 4.03055 1.82379 15.2176
371 2 2.2208 2.67494 3.01686 16.6304
418 2 2.2208 5.25236 5.9739 16.4093
420 1 -1.1104 1.15867 7.41735 18.1627
426 1 -1.1104 1.39701 4.82135 17.7794
431 1 -1.1104 0.973637 4.46107 15.0048
440 2 2.2208 2.57663 6.12748 19.3108
442 1 -1.1104 3.88084 7.4883 15.1386
445 1 -1.1104 3.87917 4.60311 18.0759
447 1 -1.1104 3.93472 4.54701 15.3319
422 1 -1.1104 0.972795 7.5544 15.2049
439 1 -1.1104 3.84375 7.46121 17.7862
432 1 -1.1104 1.13031 4.62626 20.8339
603 2 2.2208 -0.0653333 3.18455 19.3677
350 1 -1.1104 1.13001 1.73618 20.5761
369 1 -1.1104 4.08718 1.66013 20.9858
448 1 -1.1104 4.25978 4.59547 20.7756
411 2 2.2208 -0.401865 5.77471 16.3314
353 1 -1.1104 6.84679 1.90649 14.988
435 1 -1.1104 6.7457 4.75337 14.8607
354 1 -1.1104 6.95084 1.69053 20.6637
428 1 -1.1104 6.71928 4.62484 17.7522
424 1 -1.1104 6.77591 7.45984 15.1086
346 1 -1.1104 6.84534 1.91945 18.0299
421 1 -1.1104 6.55967 7.24113 17.7747
387 1 -1.1104 12.4541 1.66993 17.7202
390 1 -1.1104 12.762 1.61286 14.9436
394 2 2.2208 10.9881 3.13675 19.2962
398 1 -1.1104 9.47831 1.70337 17.8607
402 1 -1.1104 9.85784 2.01679 15.2472
405 2 2.2208 8.21239 3.1816 16.5902
454 2 2.2208 10.8038 5.99422 16.3814
459 1 -1.1104 12.4802 4.50507 18.0046
462 1 -1.1104 12.4842 4.48444 15.0155
467 2 2.2208 8.18245 5.99773 19.2147
472 1 -1.1104 9.63565 4.60386 17.9818
474 1 -1.1104 9.42015 4.73486 15.1967
469 1 -1.1104 9.44693 7.56081 15.09
456 1 -1.1104 12.1706 7.53481 17.6664
457 1 -1.1104 12.2746 7.35047 15.0111
466 1 -1.1104 9.35109 7.67702 17.7669
425 1 -1.1104 6.74461 7.58116 20.6143
458 1 -1.1104 12.3647 7.41635 20.6923
436 1 -1.1104 6.80806 4.55304 20.5966
403 1 -1.1104 9.91302 1.67644 20.6549
475 1 -1.1104 9.77885 4.48887 20.6026
419 2 2.2208 5.33018 11.7451 16.4473
427 1 -1.1104 0.896468 10.313 18.0426
430 2 2.2208 5.13166 8.89927 19.1767
433 1 -1.1104 1.01829 10.2117 15.1831
441 2 2.2208 2.28841 11.8355 19.2061
444 2 2.2208 2.40095 8.8506 16.4829
446 1 -1.1104 3.66533 10.3966 17.5431
449 1 -1.1104 3.81289 10.188 14.8639
482 1 -1.1104 0.949879 13.3691 17.8994
486 1 -1.1104 0.940264 13.0661 15.0981
502 1 -1.1104 4.16153 13.1066 18.1234
505 1 -1.1104 3.6595 13.3317 15.0473
8105 2 2.2208 2.77284 -5.30593 24.9468
572 2 2.2208 -0.387646 11.6739 16.4845
450 1 -1.1104 3.8314 10.2678 20.3901
506 1 -1.1104 3.72266 12.9574 20.9575
434 1 -1.1104 1.06799 10.2812 20.858
8999 2 2.2208 -0.0868616 20.1488 19.1313
484 1 -1.1104 6.98056 12.8555 17.8813
429 1 -1.1104 6.71448 9.98616 18.0257
437 1 -1.1104 6.82804 10.4798 15.2677
490 1 -1.1104 6.59631 13.2487 15.0685
438 1 -1.1104 6.5205 10.3291 20.6346
455 2 2.2208 10.981 11.9322 16.3882
460 1 -1.1104 12.438 10.4302 17.7698
461 2 2.2208 10.9795 8.89605 19.2318
464 1 -1.1104 12.4513 10.2963 15.0817
468 2 2.2208 8.14873 11.6252 19.4197
471 2 2.2208 8.17013 9.08089 16.5882
473 1 -1.1104 9.6865 10.5161 18.0972
476 1 -1.1104 9.58328 10.5104 15.2616
518 1 -1.1104 12.4302 13.1257 17.9811
520 1 -1.1104 12.2035 13.0984 14.6653
529 1 -1.1104 9.69633 13.264 17.9025
532 1 -1.1104 9.43128 13.2641 15.1051
533 1 -1.1104 9.76029 12.8956 20.5665
521 1 -1.1104 12.51 13.1111 20.8186
477 1 -1.1104 9.56036 10.1773 21.0841
491 1 -1.1104 6.88935 12.9881 20.6985
602 1 -1.1104 12.6334 16.0037 23.649
8813 2 2.2208 -0.253959 20.1302 25.0456
509 2 2.2208 2.52061 14.6408 16.4492
496 2 2.2208 5.39891 14.4587 19.4381
481 2 2.2208 5.32493 17.5383 16.5598
483 1 -1.1104 1.08755 18.8491 17.8981
488 1 -1.1104 1.11262 18.7658 15.2444
494 1 -1.1104 1.40918 15.9644 17.9027
497 2 2.2208 5.30993 20.1555 19.4044
498 1 -1.1104 1.17956 16.1019 15.3425
503 1 -1.1104 3.85242 18.9377 17.858
504 2 2.2208 2.61281 17.2219 19.3394
507 1 -1.1104 4.08236 18.8766 15.225
510 2 2.2208 2.50841 20.3485 16.3338
511 1 -1.1104 3.98779 15.863 17.9038
512 1 -1.1104 3.95242 16.2087 15.0046
8768 2 2.2208 -0.230141 14.4101 13.7366
320 2 2.2208 10.8544 8.92215 13.6906
8143 2 2.2208 11.269 -5.22655 16.6447
576 2 2.2208 8.29639 14.2383 22.1606
489 1 -1.1104 1.00458 18.7785 20.9223
499 1 -1.1104 1.15949 15.7893 20.8177
508 1 -1.1104 3.90216 18.5965 20.6768
513 1 -1.1104 3.97359 15.9005 20.7045
340 2 2.2208 2.43677 8.79046 27.7124
500 1 -1.1104 6.85754 16.0899 15.2817
495 1 -1.1104 6.85604 15.7951 18.0996
492 1 -1.1104 6.8276 18.8719 15.0734
485 1 -1.1104 6.89523 18.6976 17.8043
536 2 2.2208 8.08473 14.5061 16.614
525 2 2.2208 11.0412 14.4131 19.3957
517 2 2.2208 10.8892 17.3997 16.4765
519 1 -1.1104 12.1965 18.7765 17.8819
522 1 -1.1104 12.4315 18.9294 14.9117
524 1 -1.1104 12.3732 15.9184 17.8718
526 2 2.2208 10.949 20.1526 19.4856
527 1 -1.1104 12.4566 16.0672 15.1252
530 1 -1.1104 9.52102 19.077 18.0522
531 2 2.2208 8.10325 17.2858 19.3477
534 1 -1.1104 9.78278 18.815 14.98
537 2 2.2208 8.20257 20.3659 16.5944
538 1 -1.1104 9.44075 16.1399 17.9831
539 1 -1.1104 9.64955 15.9871 15.1808
535 1 -1.1104 9.45695 18.5389 20.907
528 1 -1.1104 12.5044 15.9994 20.7967
540 1 -1.1104 9.57698 15.6727 20.5897
523 1 -1.1104 12.3702 18.6334 20.5844
493 1 -1.1104 6.77857 18.6048 20.6388
377 2 2.2208 -0.229889 17.4283 16.6239
376 2 2.2208 -0.0810527 5.93552 22.0417
8033 2 2.2208 8.22218 -5.25991 13.7036
8815 2 2.2208 -0.0831715 -2.38939 24.8102
545 2 2.2208 5.50355 0.340281 22.1524
546 1 -1.1104 1.51427 -4.10116 23.4672
550 1 -1.1104 1.47797 -3.83534 26.3359
554 1 -1.1104 1.55505 -1.23314 23.6104
556 2 2.2208 5.62481 -2.62045 24.8966
558 1 -1.1104 1.34383 -1.1902 26.3864
560 1 -1.1104 4.16646 -4.02796 23.5594
562 2 2.2208 2.79135 0.202901 24.9532
563 1 -1.1104 4.32023 -3.89009 26.3425
565 2 2.2208 2.69284 -2.66353 22.1657
567 1 -1.1104 4.43652 -1.04289 23.7418
568 1 -1.1104 4.23589 -1.24565 26.4822
579 2 2.2208 -0.145396 0.43364 22.1599
324 2 2.2208 5.25249 14.7242 13.7756
375 2 2.2208 8.1179 19.8764 22.1971
605 1 -1.1104 9.67375 15.651 23.538
352 1 -1.1104 6.86442 -4.04794 20.801
401 1 -1.1104 9.65118 -3.65972 20.6269
389 1 -1.1104 12.6365 -3.96871 20.834
339 2 2.2208 5.14113 5.95556 27.6565
559 1 -1.1104 6.96092 -1.10231 26.2695
548 1 -1.1104 7.17829 -3.68134 23.6794
552 1 -1.1104 7.11364 -3.99051 26.4424
555 1 -1.1104 7.15634 -0.770163 23.3479
396 1 -1.1104 12.5367 -1.21456 20.6454
581 2 2.2208 11.2205 0.190947 22.1127
582 1 -1.1104 12.6675 -3.88473 23.4506
584 1 -1.1104 12.7436 -4.14978 26.4072
586 1 -1.1104 12.6308 -1.20299 23.5627
587 2 2.2208 11.304 -2.49085 24.9396
589 1 -1.1104 12.5844 -1.01887 26.6341
590 1 -1.1104 9.91564 -3.93358 23.4953
592 2 2.2208 8.38325 0.352637 24.857
593 1 -1.1104 9.95864 -4.18209 26.2149
595 2 2.2208 8.24418 -2.36243 22.1498
597 1 -1.1104 9.94325 -0.889656 23.5393
598 1 -1.1104 9.76447 -1.36595 26.255
322 2 2.2208 2.39407 17.3401 13.7462
608 1 -1.1104 12.28 15.6689 26.3642
606 2 2.2208 10.9018 14.2446 24.9993
423 1 -1.1104 1.11122 7.4075 20.9792
309 2 2.2208 5.74931 -2.47424 13.7024
443 1 -1.1104 3.99043 7.59554 20.6986
547 1 -1.1104 1.11621 1.73105 23.4174
551 1 -1.1104 1.36854 1.87241 26.3225
557 2 2.2208 5.43376 3.17384 24.9982
561 1 -1.1104 3.88968 1.69986 23.6351
564 1 -1.1104 4.17525 1.56316 26.414
566 2 2.2208 2.396 3.07416 22.1521
610 2 2.2208 5.44545 6.02138 22.0576
614 1 -1.1104 1.06415 7.33684 26.2409
616 1 -1.1104 1.20672 4.58439 23.5394
621 1 -1.1104 1.35737 4.5506 26.3928
625 1 -1.1104 3.9287 7.28518 23.2568
626 2 2.2208 2.55713 5.85985 24.9657
628 1 -1.1104 3.86496 7.48426 26.0954
630 1 -1.1104 3.87473 4.5018 23.629
632 1 -1.1104 4.1066 4.44446 26.2592
580 2 2.2208 -0.25212 3.18069 24.899
612 1 -1.1104 1.13688 7.44943 23.6376
8854 2 2.2208 -0.396545 14.3882 25.0089
463 1 -1.1104 12.6116 4.67064 20.8097
391 1 -1.1104 12.6671 1.66421 20.6287
613 1 -1.1104 6.7703 7.3742 23.5385
623 1 -1.1104 6.9963 4.31818 26.2828
470 1 -1.1104 9.53955 7.32204 20.6937
553 1 -1.1104 7.05679 1.78679 26.2641
615 1 -1.1104 6.64699 6.97934 26.2434
618 1 -1.1104 6.79205 4.58816 23.6185
549 1 -1.1104 6.7422 1.89167 23.5403
583 1 -1.1104 12.5171 1.64931 23.3841
585 1 -1.1104 12.5062 1.77137 26.4608
588 2 2.2208 10.9904 3.24078 24.9982
591 1 -1.1104 9.73376 1.92678 23.5324
594 1 -1.1104 9.86574 1.56564 26.2522
596 2 2.2208 8.17847 3.20904 21.9907
601 1 -1.1104 12.4797 4.53383 26.2901
636 1 -1.1104 12.5873 4.65761 23.5565
642 1 -1.1104 9.72647 4.49865 26.333
644 1 -1.1104 9.63625 4.60053 23.4282
648 2 2.2208 8.23656 5.76896 24.7778
649 2 2.2208 11.1404 6.06576 22.0697
651 1 -1.1104 12.3518 7.4991 23.5068
652 1 -1.1104 12.1185 7.17414 26.1444
646 1 -1.1104 9.33775 7.1725 26.6119
599 1 -1.1104 9.49241 7.36139 23.6391
8777 2 2.2208 -0.209067 11.5355 27.8542
487 1 -1.1104 0.884951 13.1212 20.5804
9006 2 2.2208 -0.118175 8.77521 25.0047
327 2 2.2208 8.20585 17.5229 13.9882
611 2 2.2208 5.34135 11.5787 21.9237
617 1 -1.1104 0.942621 10.1864 23.5633
620 2 2.2208 5.30478 8.70549 24.8508
622 1 -1.1104 1.31007 10.3588 26.3375
627 2 2.2208 2.49743 11.6743 24.8865
629 2 2.2208 2.33566 8.9114 22.0984
631 1 -1.1104 3.77871 10.4428 23.3983
633 1 -1.1104 3.90277 10.278 26.2268
410 1 -1.1104 3.83499 13.0005 26.4489
452 1 -1.1104 0.978094 12.9496 23.4696
515 1 -1.1104 1.08914 13.2473 26.3757
543 1 -1.1104 4.09224 13.0933 23.6331
379 2 2.2208 2.38219 14.4618 22.2324
414 1 -1.1104 12.1561 18.8609 23.3798
465 1 -1.1104 12.3405 10.3141 20.6675
409 2 2.2208 10.9353 17.1181 21.9728
569 1 -1.1104 6.66527 12.9752 26.4218
478 1 -1.1104 6.85764 12.9981 23.6003
619 1 -1.1104 6.6693 10.2496 23.5294
624 1 -1.1104 6.84633 9.95953 26.4082
640 1 -1.1104 9.63623 12.9589 26.4105
609 1 -1.1104 9.68819 13.015 23.5204
600 1 -1.1104 12.3321 9.84876 26.5633
634 2 2.2208 10.9873 8.7776 25.0198
635 1 -1.1104 12.3187 10.1876 23.7892
641 1 -1.1104 9.67768 10.1993 26.2336
643 1 -1.1104 9.58389 10.0751 23.6604
645 2 2.2208 8.19936 8.68613 22.1492
647 2 2.2208 8.28191 11.4852 25.0092
650 2 2.2208 11.0431 11.5674 22.1052
413 1 -1.1104 12.2704 13.102 23.7541
544 1 -1.1104 12.3951 12.807 26.5429
8818 2 2.2208 13.6168 20.1898 22.35
604 1 -1.1104 9.48044 15.8672 26.3635
577 1 -1.1104 9.57228 18.6311 26.3982
8812 2 2.2208 -0.259686 17.2608 22.3463
479 2 2.2208 5.26232 14.62 25.0284
380 2 2.2208 2.49751 19.9263 22.2807
382 1 -1.1104 3.7479 15.846 23.7499
383 1 -1.1104 1.12398 15.9244 23.7905
415 1 -1.1104 3.75375 15.9036 26.5077
416 2 2.2208 2.48634 17.3058 25.063
417 1 -1.1104 3.69674 18.7388 26.3556
451 2 2.2208 5.36886 17.3518 22.2857
453 1 -1.1104 1.09616 18.625 23.5382
480 2 2.2208 5.41339 20.1665 25.3577
516 1 -1.1104 1.003 16.1517 26.5665
541 1 -1.1104 1.10216 18.9438 26.4049
570 1 -1.1104 4.123 18.8237 23.6057
578 1 -1.1104 12.5216 18.6957 26.2041
384 1 -1.1104 6.79604 15.7933 23.5049
514 1 -1.1104 6.73617 18.5445 23.553
542 1 -1.1104 6.78163 15.7862 26.3338
639 1 -1.1104 6.65492 18.4732 26.4822
637 1 -1.1104 9.54691 18.5317 23.633
501 1 -1.1104 6.87351 15.9946 20.97
638 2 2.2208 8.30725 17.1373 24.9851
607 2 2.2208 10.9426 20.1099 25.0736
328 2 2.2208 5.6781 0.346618 27.6661
306 2 2.2208 5.24565 17.3603 27.8102
315 2 2.2208 11.1432 3.30825 13.7096
308 2 2.2208 8.14654 20.1501 27.8462
316 2 2.2208 2.49136 5.90783 13.7439
314 2 2.2208 11.302 -2.48969 13.7391
412 2 2.2208 -0.248883 8.72683 19.3969
321 2 2.2208 8.07157 11.721 13.7551
8770 2 2.2208 -0.283009 6.0611 27.6558
8744 2 2.2208 -0.350118 17.4147 27.7907
8769 2 2.2208 -0.489371 19.9919 13.7335
303 2 2.2208 8.05196 14.4749 27.7501
317 2 2.2208 5.25153 8.6532 13.8428
337 2 2.2208 8.58734 -2.6553 27.6504
338 2 2.2208 8.47336 3.20298 27.7866
653 2 2.2208 5.31828 22.9936 5.35897
655 1 -1.1104 1.05799 24.346 1.25514
656 1 -1.1104 0.90136 24.2442 3.96059
657 1 -1.1104 1.13467 21.2487 1.21272
659 2 2.2208 5.3581 25.8058 2.31928
660 1 -1.1104 1.01713 21.456 3.93791
662 1 -1.1104 3.95084 24.5104 1.07972
663 2 2.2208 2.4881 22.934 2.46995
665 1 -1.1104 3.93613 24.5855 3.61154
666 2 2.2208 2.4538 25.7414 5.24373
667 1 -1.1104 4.04425 21.3874 0.905115
669 1 -1.1104 3.87468 21.5134 3.74763
670 1 -1.1104 3.97646 27.1596 3.76987
668 1 -1.1104 3.94169 27.3522 0.758246
658 1 -1.1104 1.2372 27.3263 0.96154
9431 2 2.2208 -0.222714 42.9088 8.0446
9423 2 2.2208 -0.259799 34.2219 5.18723
801 1 -1.1104 3.91265 21.5079 6.53527
794 1 -1.1104 1.03674 24.3256 6.53201
796 1 -1.1104 1.14649 21.3296 6.84547
802 1 -1.1104 3.76165 27.3634 6.58394
9450 2 2.2208 -0.352471 23.3242 -0.35414
676 1 -1.1104 6.87562 21.6325 1.07345
674 1 -1.1104 6.81384 24.4081 0.925031
675 1 -1.1104 6.87745 24.3223 3.89383
679 1 -1.1104 6.89956 27.066 3.59378
678 1 -1.1104 6.71146 21.4443 3.8333
680 2 2.2208 11.082 23.0348 5.07053
682 1 -1.1104 12.5238 24.5507 1.03641
683 1 -1.1104 12.6481 24.4616 3.74962
684 1 -1.1104 12.5414 21.6461 1.08011
686 2 2.2208 11.2446 25.9896 2.15794
687 1 -1.1104 12.4873 21.7377 3.82727
689 1 -1.1104 9.79237 24.6575 0.838394
690 2 2.2208 8.17735 22.9633 2.53279
692 1 -1.1104 9.75506 24.4121 3.48981
693 2 2.2208 8.11896 25.8884 5.10907
694 1 -1.1104 9.43703 21.733 0.823368
696 1 -1.1104 9.81044 21.6557 3.63014
695 1 -1.1104 9.54217 27.4144 0.965351
688 1 -1.1104 12.5022 27.3064 3.47302
685 1 -1.1104 12.4503 27.2853 0.692415
697 1 -1.1104 9.51566 27.3849 3.72371
677 1 -1.1104 6.63273 27.3686 0.926848
827 1 -1.1104 12.233 24.4964 6.44104
798 1 -1.1104 6.63583 21.6792 6.71724
828 1 -1.1104 12.5447 21.5634 6.70006
830 1 -1.1104 9.51147 24.317 6.6218
832 1 -1.1104 9.62544 27.1175 6.31146
831 1 -1.1104 9.52161 21.5139 6.64159
661 1 -1.1104 0.981295 27.2137 3.59317
654 2 2.2208 5.36386 28.5572 5.13713
664 2 2.2208 2.55267 28.6661 2.51624
702 1 -1.1104 1.19513 30.0473 1.05568
705 1 -1.1104 1.1518 30.0293 3.84492
708 1 -1.1104 1.11121 32.8646 0.846768
709 2 2.2208 5.36796 31.4939 2.27905
711 1 -1.1104 1.10213 32.9789 3.76202
713 1 -1.1104 4.01595 30.1997 0.897408
716 1 -1.1104 4.20905 29.9107 3.61608
718 2 2.2208 2.56587 31.5219 5.20515
720 1 -1.1104 4.04927 32.9181 1.00066
721 1 -1.1104 4.01863 32.7921 3.83377
9422 2 2.2208 -0.200672 31.4797 2.24921
712 1 -1.1104 6.92812 32.996 3.6282
726 1 -1.1104 6.77329 30.0458 3.68696
974 2 2.2208 2.47165 39.9674 13.635
857 1 -1.1104 3.87268 30.1647 6.25775
855 1 -1.1104 0.879252 32.7325 6.46472
960 2 2.2208 8.03679 28.5221 13.5288
727 1 -1.1104 6.69297 32.8345 0.969818
725 1 -1.1104 6.8706 30.0469 0.825879
681 2 2.2208 10.8978 28.6528 5.13439
691 2 2.2208 8.25074 28.6902 2.11413
729 1 -1.1104 12.3058 30.0463 0.922183
731 1 -1.1104 12.4496 30.231 3.68349
733 1 -1.1104 12.3152 32.8934 0.628558
734 2 2.2208 10.8931 31.6812 2.29926
736 1 -1.1104 12.3457 32.9592 3.48855
737 1 -1.1104 9.56631 30.2069 0.882207
740 1 -1.1104 9.7204 30.1683 3.81881
742 2 2.2208 8.26794 31.3617 4.94099
744 1 -1.1104 9.41847 32.9493 0.826207
745 1 -1.1104 9.48662 33.0164 3.72801
885 1 -1.1104 12.2658 30.0828 6.67912
856 1 -1.1104 6.64403 32.7192 6.57399
890 1 -1.1104 9.52145 32.9791 6.67236
9320 2 2.2208 13.615 37.1143 10.7881
701 2 2.2208 5.34821 34.3228 5.13896
703 1 -1.1104 1.11503 35.74 0.937513
706 1 -1.1104 1.27457 35.8527 3.73099
710 2 2.2208 5.29063 37.2596 2.27455
714 1 -1.1104 4.06223 35.7948 0.719737
715 2 2.2208 2.62955 34.2348 2.24378
717 1 -1.1104 3.91978 35.6318 3.67765
719 2 2.2208 2.55583 37.1595 5.11415
747 2 2.2208 5.13588 40.044 5.22649
753 1 -1.1104 1.22165 38.7184 0.814761
758 1 -1.1104 1.01514 38.6611 3.62892
763 2 2.2208 2.61422 39.956 2.25485
767 1 -1.1104 3.89479 38.3669 0.965804
769 1 -1.1104 3.92442 38.7016 3.61152
707 1 -1.1104 6.78508 35.716 3.77452
9452 2 2.2208 13.6403 39.9503 13.5764