ITEM: TIMESTEP
90000
ITEM: NUMBER OF ATOMS
17700
ITEM: BOX BOUNDS pp pp pp
-4.5083645897048358e-01 2.7790836458970048e+01
-5.2083418218870783e+00 3.3328834182187808e+02
-4.4118068218199596e-01 2.7781180682181898e+01
ITEM: ATOMS id type q x y z
1 2 2.2208 5.39743 0.388535 5.21066
2 1 -1.1104 0.892804 -3.75229 0.886713
6 1 -1.1104 1.08661 -3.94399 3.78932
10 1 -1.1104 1.15172 -0.762527 0.967513
12 2 2.2208 5.15226 -2.50123 2.33319
14 1 -1.1104 1.00672 -0.982861 3.75441
16 1 -1.1104 3.73931 -3.72244 0.993497
18 2 2.2208 2.47709 0.488955 2.32845
19 1 -1.1104 3.98026 -3.99892 3.86257
21 2 2.2208 2.53399 -2.52386 5.1278
23 1 -1.1104 3.79659 -0.986435 1.03359
24 1 -1.1104 3.96785 -1.14117 3.7974
328 2 2.2208 5.15065 0.373379 -0.320552
336 2 2.2208 11.1169 6.04338 -0.439046
166 1 -1.1104 0.929029 -3.79122 6.41837
172 1 -1.1104 3.97874 -3.89606 6.74055
174 1 -1.1104 3.91631 -0.984479 6.61495
333 2 2.2208 10.8077 0.320078 -0.311473
170 1 -1.1104 1.12084 -1.22618 6.51185
8 1 -1.1104 6.71722 -3.66883 3.83144
11 1 -1.1104 6.57169 -1.0978 0.964333
4 1 -1.1104 6.63956 -4.11162 1.12857
15 1 -1.1104 6.79849 -0.73411 3.91012
168 1 -1.1104 6.57242 -3.95867 6.51415
31 2 2.2208 10.9632 0.47412 5.01283
32 1 -1.1104 12.2537 -3.77424 1.12195
34 1 -1.1104 12.4326 -3.98414 3.80306
36 1 -1.1104 12.2866 -1.01497 1.34844
37 2 2.2208 10.9065 -2.44624 2.43472
39 1 -1.1104 12.3654 -1.26127 3.82108
40 1 -1.1104 9.2877 -3.97183 1.15034
42 2 2.2208 8.07682 0.707778 2.5461
43 1 -1.1104 9.68405 -3.83604 4.21109
45 2 2.2208 8.05775 -2.3389 5.24815
47 1 -1.1104 9.46975 -1.08321 1.04416
48 1 -1.1104 9.55132 -0.907321 3.79205
210 1 -1.1104 9.56713 -0.71875 6.54376
208 1 -1.1104 9.27019 -3.77742 6.82281
207 1 -1.1104 12.3985 -0.993003 6.55138
313 2 2.2208 8.09641 0.238025 13.5771
171 1 -1.1104 6.60364 -0.885833 6.58913
316 2 2.2208 2.46372 5.86284 13.6595
8727 2 2.2208 -0.440647 3.2034 2.29852
3 1 -1.1104 0.980648 1.97682 1.02517
7 1 -1.1104 0.954973 1.95936 3.84967
13 2 2.2208 5.51213 3.34764 2.40037
17 1 -1.1104 3.9157 2.05197 1.11975
20 1 -1.1104 3.77241 1.80399 3.7971
22 2 2.2208 2.35713 3.43479 5.22045
54 2 2.2208 5.34063 6.19951 5.11689
56 1 -1.1104 1.17753 7.5461 1.02577
60 1 -1.1104 1.12628 4.77193 0.96738
67 1 -1.1104 1.16195 4.90136 3.88601
72 2 2.2208 2.48366 6.1886 2.32506
76 1 -1.1104 3.99565 5.0256 1.09982
79 1 -1.1104 4.20095 4.50759 3.96397
71 1 -1.1104 4.11411 7.77245 0.794253
74 1 -1.1104 3.87238 7.56468 3.7685
58 1 -1.1104 1.15635 7.53768 3.68335
173 1 -1.1104 3.73201 1.70914 6.69803
236 1 -1.1104 0.972966 4.78499 6.62653
8732 2 2.2208 -0.443234 5.92667 5.18161
234 1 -1.1104 0.741642 7.55128 6.28533
167 1 -1.1104 0.83669 1.73922 6.5459
239 1 -1.1104 3.80818 4.49349 6.73753
238 1 -1.1104 3.90655 7.43475 6.38777
59 1 -1.1104 6.77357 7.5755 3.94816
9 1 -1.1104 6.72097 1.97053 3.80447
63 1 -1.1104 7.06421 4.72435 0.911053
69 1 -1.1104 6.90479 4.87866 3.83983
5 1 -1.1104 6.72382 1.79993 0.972408
57 1 -1.1104 6.78912 7.58002 1.13514
235 1 -1.1104 6.58391 7.66708 6.75974
33 1 -1.1104 12.4284 1.85596 1.23257
35 1 -1.1104 12.3559 1.84551 3.87946
38 2 2.2208 11.0686 3.25447 2.55794
41 1 -1.1104 9.76796 1.77751 1.03665
44 1 -1.1104 9.66413 1.89564 3.6672
46 2 2.2208 8.21153 3.43115 5.2276
84 2 2.2208 11.0017 6.16701 5.32768
88 1 -1.1104 12.3904 4.73938 1.14593
92 1 -1.1104 12.4384 4.70158 4.07164
95 2 2.2208 8.4611 6.25035 2.43121
99 1 -1.1104 9.87746 4.75598 0.968669
102 1 -1.1104 9.74969 4.67872 3.83158
87 1 -1.1104 12.3232 7.6176 4.02316
86 1 -1.1104 12.2437 7.45853 1.25072
94 1 -1.1104 9.6991 7.59192 1.15211
97 1 -1.1104 9.48346 7.41381 4.05574
169 1 -1.1104 6.68346 1.89807 6.48786
209 1 -1.1104 9.37025 1.93959 6.62672
266 1 -1.1104 12.3962 4.60866 7.03397
206 1 -1.1104 12.2873 1.72969 6.71367
237 1 -1.1104 6.59887 4.7978 6.76385
265 1 -1.1104 12.4831 7.42315 6.83677
269 1 -1.1104 9.7002 4.72048 6.66861
267 1 -1.1104 9.36657 7.62067 6.8772
8734 2 2.2208 -0.4472 11.6047 5.07708
55 2 2.2208 5.19671 11.5939 5.07397
61 1 -1.1104 1.19274 10.3786 0.949738
66 2 2.2208 5.22382 8.86361 2.49219
68 1 -1.1104 1.08666 10.5162 3.72799
73 2 2.2208 2.64899 11.8003 2.38639
75 2 2.2208 2.20315 8.92388 5.0657
77 1 -1.1104 4.17704 10.4777 1.01261
80 1 -1.1104 3.85028 10.2842 3.83025
107 1 -1.1104 1.0898 13.1275 0.893609
113 1 -1.1104 1.14366 13.4802 3.64546
123 1 -1.1104 3.95672 13.2397 0.988791
128 1 -1.1104 3.81801 13.1703 3.60439
8733 2 2.2208 -0.343048 8.7867 2.39582
78 1 -1.1104 3.77609 10.1999 6.63889
62 1 -1.1104 0.988923 10.1668 6.72132
8015 2 2.2208 2.44141 -5.05535 2.41648
124 1 -1.1104 4.07842 12.8945 6.44892
70 1 -1.1104 6.6981 10.2221 3.82482
115 1 -1.1104 6.63471 13.0671 3.60421
110 1 -1.1104 6.60665 13.2827 0.711623
64 1 -1.1104 6.89346 10.4248 1.07168
85 2 2.2208 10.9868 11.7297 5.31105
89 1 -1.1104 12.2582 10.2643 0.995861
91 2 2.2208 10.984 8.9801 2.64346
93 1 -1.1104 12.2554 10.4453 3.79091
96 2 2.2208 8.18798 11.7115 2.56308
98 2 2.2208 8.04556 8.8538 5.30417
100 1 -1.1104 9.48767 10.4694 1.17895
103 1 -1.1104 9.41969 10.1358 3.89487
142 1 -1.1104 12.263 13.0602 1.12321
146 1 -1.1104 12.4376 13.206 3.74171
153 1 -1.1104 9.39577 13.2527 1.10722
158 1 -1.1104 9.52122 13.1049 3.88375
154 1 -1.1104 9.61881 13.2175 6.56384
65 1 -1.1104 6.57069 10.4621 6.46379
111 1 -1.1104 6.61059 13.1266 6.61901
90 1 -1.1104 12.2832 10.0891 6.7798
101 1 -1.1104 9.37906 10.5321 6.41837
8728 2 2.2208 -0.274822 17.0715 5.20152
119 2 2.2208 5.3314 14.4328 2.29561
130 2 2.2208 2.46162 14.6057 5.17564
106 2 2.2208 5.32476 17.323 5.35929
109 1 -1.1104 1.00347 18.5949 0.873977
114 1 -1.1104 1.12243 18.8624 3.73026
116 1 -1.1104 1.18628 16.0002 0.969074
120 2 2.2208 5.34365 20.0497 2.42822
121 1 -1.1104 1.16657 16.2524 3.56314
125 1 -1.1104 3.97669 18.6722 0.685788
127 2 2.2208 2.59913 17.3589 2.24296
129 1 -1.1104 3.75365 18.7925 3.54198
131 2 2.2208 2.55664 20.1571 5.22241
132 1 -1.1104 4.06578 15.9867 1.02516
134 1 -1.1104 3.83251 16.0198 3.94213
136 2 2.2208 -0.062734 20.1403 2.36986
8639 2 2.2208 13.5909 11.4844 8.18782
126 1 -1.1104 3.88587 18.7942 6.4021
133 1 -1.1104 4.02242 15.9656 6.65565
117 1 -1.1104 1.33113 16.0445 6.67866
138 1 -1.1104 6.59912 18.8853 1.03364
140 1 -1.1104 6.79284 16.0472 1.01649
139 1 -1.1104 6.73044 18.5705 3.90092
122 1 -1.1104 6.64847 15.8879 3.7754
150 2 2.2208 10.9144 14.5155 2.35717
160 2 2.2208 7.99769 14.4718 5.23083
141 2 2.2208 10.9969 17.1352 5.38201
144 1 -1.1104 12.4931 18.6455 1.2801
147 1 -1.1104 12.542 18.5096 4.03952
148 1 -1.1104 12.6658 15.8777 0.804537
151 2 2.2208 10.8766 19.9213 2.55173
152 1 -1.1104 12.3103 15.8543 3.63402
155 1 -1.1104 9.68648 18.8633 0.991475
157 2 2.2208 8.06989 17.2239 2.36835
159 1 -1.1104 9.69622 18.4774 3.88575
161 2 2.2208 8.22777 19.8853 5.24433
162 1 -1.1104 9.5157 16.0771 1.09863
164 1 -1.1104 9.40418 15.8029 3.82464
163 1 -1.1104 9.71772 15.8115 6.87585
112 1 -1.1104 6.62612 18.7818 6.74113
149 1 -1.1104 12.4148 15.5839 6.56316
118 1 -1.1104 6.71818 15.8436 6.62332
306 2 2.2208 5.50784 17.3764 -0.379585
296 1 -1.1104 6.82567 18.7785 12.2488
338 2 2.2208 8.22537 3.27326 -0.369932
8588 2 2.2208 -0.360536 -2.48851 7.85692
175 2 2.2208 5.14985 0.382147 10.7308
176 1 -1.1104 1.04028 -4.02053 11.912
180 1 -1.1104 1.24981 -4.0071 9.36071
184 1 -1.1104 0.979091 -1.08935 12.2463
186 2 2.2208 5.31471 -2.48228 7.86171
188 1 -1.1104 1.05417 -1.21265 9.3589
190 1 -1.1104 3.7974 -4.07357 12.2864
192 2 2.2208 2.19794 0.336526 7.9733
193 1 -1.1104 3.94721 -3.78261 9.53648
195 2 2.2208 2.48298 -2.78297 10.7701
197 1 -1.1104 3.70596 -1.24285 12.2373
198 1 -1.1104 3.98492 -0.903366 9.29249
201 2 2.2208 -0.266631 0.253717 10.9435
8429 2 2.2208 -0.308463 17.25 11.0077
8768 2 2.2208 -0.306259 14.2897 13.6309
205 1 -1.1104 12.1614 -3.96126 6.74753
178 1 -1.1104 6.70535 -4.01534 12.1237
182 1 -1.1104 6.84982 -3.83282 9.25295
189 1 -1.1104 6.78535 -0.920337 9.55797
185 1 -1.1104 6.58413 -1.23284 12.09
211 2 2.2208 10.9526 0.276867 10.7662
212 1 -1.1104 12.4547 -3.62575 12.2136
214 1 -1.1104 12.4416 -3.77656 9.37493
216 1 -1.1104 12.3488 -0.946185 12.231
217 2 2.2208 10.9376 -2.14714 7.92284
219 1 -1.1104 12.384 -0.955603 9.3991
220 1 -1.1104 9.4978 -4.11185 12.0244
222 2 2.2208 8.08757 0.516949 8.14476
223 1 -1.1104 9.56449 -3.97396 9.55747
225 2 2.2208 7.92085 -2.61916 10.866
227 1 -1.1104 9.47748 -1.32355 12.3927
228 1 -1.1104 9.58411 -0.955723 9.62677
335 2 2.2208 8.28488 8.93587 -0.314488
8731 2 2.2208 -0.30025 14.6323 2.26422
8622 2 2.2208 -0.421844 3.29806 8.06332
177 1 -1.1104 1.08718 1.70644 12.5115
181 1 -1.1104 1.08505 1.87258 9.43856
187 2 2.2208 5.10688 3.17521 8.07723
191 1 -1.1104 4.14969 1.80091 12.2876
194 1 -1.1104 3.65757 1.75986 9.61858
196 2 2.2208 2.27312 3.12782 11.0207
240 2 2.2208 5.18041 5.88108 10.9617
242 1 -1.1104 0.927927 7.27677 12.3384
246 1 -1.1104 1.04764 4.55099 12.3853
251 1 -1.1104 1.06066 4.45303 9.58832
256 2 2.2208 2.46335 6.08344 8.04068
260 1 -1.1104 3.80306 4.61471 12.1917
262 1 -1.1104 3.9347 4.9084 9.55721
255 1 -1.1104 3.94537 7.43826 12.0768
244 1 -1.1104 0.833478 7.19779 9.33846
258 1 -1.1104 3.53732 7.65452 9.3116
309 2 2.2208 5.15428 -2.69625 13.5801
248 1 -1.1104 6.80896 4.289 12.4404
245 1 -1.1104 6.56853 7.38865 9.52712
253 1 -1.1104 6.95811 4.57738 9.52746
183 1 -1.1104 6.63083 2.09553 9.45996
243 1 -1.1104 6.81385 7.33759 12.1539
179 1 -1.1104 6.90269 1.60067 12.3301
213 1 -1.1104 12.4418 1.68514 12.1499
215 1 -1.1104 12.5954 1.63837 9.25481
218 2 2.2208 11.0248 3.0705 8.1726
221 1 -1.1104 9.63682 1.78117 12.2698
224 1 -1.1104 9.47979 1.65327 9.54028
226 2 2.2208 8.14979 3.11225 10.8384
268 1 -1.1104 9.69214 4.33723 9.44629
271 1 -1.1104 9.68061 4.47633 12.5422
275 2 2.2208 8.02335 6.08242 7.97509
276 2 2.2208 10.963 5.79967 10.9285
280 1 -1.1104 12.4106 4.4681 12.2887
283 1 -1.1104 12.2697 4.40397 9.73261
278 1 -1.1104 12.2249 7.25551 12.1798
279 1 -1.1104 12.1919 7.23555 9.46915
273 1 -1.1104 9.46484 7.49354 9.45388
285 1 -1.1104 9.65398 7.38375 12.2018
25 2 2.2208 -0.304474 -2.32218 2.20625
8656 2 2.2208 -0.44276 8.87083 7.93304
8742 2 2.2208 -0.358134 -2.45887 13.4529
337 2 2.2208 8.11151 -2.45306 -0.201654
314 2 2.2208 10.9786 -2.53201 13.5465
108 1 -1.1104 1.06083 13.2679 6.48423
241 2 2.2208 5.17492 11.5046 10.829
247 1 -1.1104 0.930223 10.1546 12.1237
250 2 2.2208 5.07424 8.90931 7.96353
252 1 -1.1104 0.872444 10.3753 9.49649
257 2 2.2208 2.49067 11.7352 8.0358
259 2 2.2208 2.4152 8.80615 10.9142
261 1 -1.1104 3.75409 10.4557 12.2509
263 1 -1.1104 3.66079 10.3196 9.50612
204 1 -1.1104 3.83985 13.1307 9.41373
287 1 -1.1104 3.67413 13.099 12.3958
294 1 -1.1104 1.09991 13.0198 9.33453
299 1 -1.1104 0.945779 12.9639 12.1662
83 1 -1.1104 12.4556 15.6643 9.41341
341 2 2.2208 5.44927 11.8324 -0.36027
143 1 -1.1104 12.3458 12.7989 6.76251
290 1 -1.1104 6.62586 13.2285 9.40706
249 1 -1.1104 6.67781 9.9917 12.1295
297 1 -1.1104 6.62879 12.8642 12.2259
254 1 -1.1104 6.68408 10.3363 9.21704
137 1 -1.1104 9.45547 12.9669 9.41733
264 1 -1.1104 9.42723 10.4674 9.4703
270 1 -1.1104 9.49827 10.3208 12.2446
272 2 2.2208 8.22902 8.67447 10.8144
274 2 2.2208 8.10504 11.778 7.87983
277 2 2.2208 10.8198 11.6148 10.9051
281 1 -1.1104 12.487 10.2943 12.2911
282 2 2.2208 10.9956 8.72274 8.24088
284 1 -1.1104 12.3501 10.2299 9.56384
104 1 -1.1104 9.37564 12.9112 12.2516
27 1 -1.1104 12.1518 13.0584 12.3765
49 1 -1.1104 12.464 13.117 9.7422
304 2 2.2208 11.0251 17.2819 -0.31427
50 1 -1.1104 12.4524 18.6774 9.27765
302 1 -1.1104 1.06965 18.7239 6.66738
199 2 2.2208 8.17664 14.3395 10.751
30 1 -1.1104 12.5692 18.7827 12.485
289 1 -1.1104 6.9034 16.0979 9.63788
324 2 2.2208 5.29202 14.5345 13.5791
8454 2 2.2208 -0.385414 14.5352 8.05031
233 2 2.2208 2.50484 14.5241 10.8934
295 2 2.2208 5.22754 14.395 7.96011
298 1 -1.1104 1.32797 18.7211 12.2901
300 2 2.2208 5.44542 17.2931 10.9688
301 1 -1.1104 3.98007 18.767 9.30068
51 2 2.2208 2.62555 20.0807 10.8105
52 1 -1.1104 3.83576 16.0294 12.317
202 1 -1.1104 1.15625 15.9828 12.2809
231 1 -1.1104 3.94559 15.9391 9.3443
232 2 2.2208 2.51792 17.4208 8.10726
286 1 -1.1104 3.9243 18.6961 12.1554
291 1 -1.1104 1.25552 18.7857 9.4133
292 1 -1.1104 1.03305 15.8663 9.51155
293 2 2.2208 5.30354 20.1863 8.17368
8428 2 2.2208 -0.298112 19.9346 8.04397
156 1 -1.1104 9.48114 18.562 6.66602
288 1 -1.1104 6.74212 18.7056 9.36695
81 2 2.2208 11.0271 14.4361 8.13296
135 2 2.2208 8.18919 17.2299 8.17084
53 1 -1.1104 12.5525 15.961 12.2313
165 1 -1.1104 9.51695 18.8502 9.67412
200 2 2.2208 8.28428 20.3333 10.9495
229 1 -1.1104 9.64869 15.8994 12.0161
203 1 -1.1104 6.67058 15.83 12.4132
105 1 -1.1104 9.64233 18.8661 12.4158
82 2 2.2208 10.7894 19.9799 7.95105
145 1 -1.1104 12.2985 18.4905 6.79578
230 1 -1.1104 9.56683 15.8406 9.39366
26 2 2.2208 11.03 17.5272 10.9311
330 2 2.2208 2.42552 3.22745 -0.414599
315 2 2.2208 11.1258 3.04422 13.6601
303 2 2.2208 8.08742 14.4256 -0.41729
334 2 2.2208 11.0693 11.6356 -0.308252
322 2 2.2208 2.5197 17.2819 13.6234
342 2 2.2208 5.44359 0.230899 16.5186
343 1 -1.1104 1.0284 -3.86923 17.6891
347 1 -1.1104 1.03527 -3.88503 14.8558
355 1 -1.1104 1.19653 -1.30973 17.9556
357 2 2.2208 5.29012 -2.46766 19.3956
359 1 -1.1104 0.903265 -1.13427 14.953
363 1 -1.1104 3.85782 -3.77927 18.0857
365 2 2.2208 2.443 0.372977 19.3903
366 1 -1.1104 3.87956 -3.9569 14.9487
370 2 2.2208 2.45021 -2.57174 16.3449
372 1 -1.1104 3.89033 -0.938214 17.7965
373 1 -1.1104 3.92403 -1.20902 15.112
340 2 2.2208 2.39643 8.98494 27.749
323 2 2.2208 5.39017 19.9369 13.6736
360 1 -1.1104 1.10564 -1.08519 20.7351
374 1 -1.1104 3.93139 -1.06957 20.5565
367 1 -1.1104 3.9995 -3.62482 20.8857
348 1 -1.1104 1.16244 -3.89915 20.6595
361 1 -1.1104 6.77616 -1.23195 15.0301
356 1 -1.1104 6.79156 -1.08345 17.9514
345 1 -1.1104 6.4345 -3.7833 17.9274
351 1 -1.1104 6.60565 -3.98432 14.9244
385 2 2.2208 11.0248 0.223438 16.5349
386 1 -1.1104 12.1372 -4.00335 17.5349
388 1 -1.1104 12.1932 -4.07518 14.7459
392 1 -1.1104 12.3598 -1.13242 18.1439
393 2 2.2208 10.8821 -2.31631 19.2582
395 1 -1.1104 12.4374 -1.03146 15.0635
397 1 -1.1104 9.35294 -3.88948 18.0287
399 2 2.2208 8.15582 0.397941 19.467
400 1 -1.1104 9.40396 -3.82374 14.9321
404 2 2.2208 7.98311 -2.58212 16.3952
406 1 -1.1104 9.42172 -1.09798 17.9961
407 1 -1.1104 9.47909 -0.910128 15.1151
401 1 -1.1104 9.56008 -3.7605 20.8507
352 1 -1.1104 6.60665 -3.76623 20.8893
408 1 -1.1104 9.49294 -1.04262 20.7804
362 1 -1.1104 6.54403 -1.1202 20.7534
8815 2 2.2208 -0.394759 -2.50989 24.9568
8814 2 2.2208 13.4982 3.26689 16.875
307 2 2.2208 2.52041 20.0503 27.6336
344 1 -1.1104 1.26037 1.80592 18.2127
349 1 -1.1104 1.12588 1.73379 15.3368
358 2 2.2208 5.38554 3.3143 19.1952
364 1 -1.1104 3.90807 1.65009 17.9205
368 1 -1.1104 3.88719 1.54214 15.1943
371 2 2.2208 2.55589 3.11249 16.6443
418 2 2.2208 5.30612 5.99374 16.402
426 1 -1.1104 1.00582 4.70094 17.9732
431 1 -1.1104 1.04896 4.55694 15.2191
440 2 2.2208 2.54962 6.08252 19.4046
445 1 -1.1104 3.83488 4.62375 17.6899
447 1 -1.1104 3.86612 4.53288 14.9844
439 1 -1.1104 3.86124 7.31444 17.7845
442 1 -1.1104 3.76777 7.24226 14.9515
603 2 2.2208 -0.412299 3.33655 19.5262
420 1 -1.1104 1.12369 7.50318 17.7947
423 1 -1.1104 1.0022 7.67914 20.5718
354 1 -1.1104 6.88481 1.657 20.8653
422 1 -1.1104 0.821657 7.39384 15.1031
384 1 -1.1104 6.82407 15.8014 23.5069
350 1 -1.1104 1.11241 1.8654 20.9927
369 1 -1.1104 3.97898 1.80384 20.6322
432 1 -1.1104 1.11532 4.83017 20.6299
443 1 -1.1104 3.97458 7.48811 20.7023
424 1 -1.1104 6.80779 7.43271 15.179
346 1 -1.1104 6.82054 1.91451 17.9357
428 1 -1.1104 6.70017 4.84603 17.9214
435 1 -1.1104 6.55891 4.46784 15.1243
353 1 -1.1104 6.66992 1.56569 15.1654
421 1 -1.1104 6.73665 7.36405 17.8304
387 1 -1.1104 12.1797 1.64612 18.1153
390 1 -1.1104 12.2618 1.88492 15.2789
394 2 2.2208 10.9798 3.11408 19.434
398 1 -1.1104 9.54685 1.74815 18.0278
402 1 -1.1104 9.64139 1.88643 15.2441
405 2 2.2208 8.20163 2.9907 16.4683
454 2 2.2208 10.9368 6.1001 16.2758
459 1 -1.1104 12.167 4.61069 18.0839
462 1 -1.1104 12.3183 4.66461 15.2553
467 2 2.2208 8.13435 6.00892 19.3119
472 1 -1.1104 9.50459 4.66534 18.0904
474 1 -1.1104 9.55655 4.64404 15.2447
469 1 -1.1104 9.48026 7.65201 15.0211
457 1 -1.1104 12.4249 7.58873 14.9895
456 1 -1.1104 12.4113 7.47777 17.7722
466 1 -1.1104 9.53257 7.42154 17.9125
458 1 -1.1104 12.4403 7.4321 20.8928
475 1 -1.1104 9.42955 4.54674 20.9978
470 1 -1.1104 9.39252 7.21143 20.7891
425 1 -1.1104 6.84142 7.22949 20.7481
436 1 -1.1104 6.41957 4.35211 20.9603
463 1 -1.1104 12.3754 4.68035 20.8255
403 1 -1.1104 9.62484 1.8157 20.788
607 2 2.2208 11.0703 19.916 25.1113
419 2 2.2208 5.33903 11.5451 16.5205
427 1 -1.1104 1.15675 10.1275 18.0114
430 2 2.2208 5.437 8.71144 19.1042
433 1 -1.1104 1.01541 10.0676 14.7847
441 2 2.2208 2.45857 11.569 19.3067
444 2 2.2208 2.39622 8.67908 16.3528
446 1 -1.1104 4.0067 9.93777 17.7659
449 1 -1.1104 3.85018 10.1389 15.0562
482 1 -1.1104 1.00166 12.8807 18.0727
486 1 -1.1104 1.09615 12.9594 15.3467
502 1 -1.1104 4.05066 12.9011 17.9109
505 1 -1.1104 3.89709 13.0823 15.1552
318 2 2.2208 2.40662 11.6879 13.853
412 2 2.2208 -0.416816 8.956 19.3411
506 1 -1.1104 3.57262 13.1858 20.6814
487 1 -1.1104 1.06686 13.0822 20.5552
434 1 -1.1104 1.0236 10.321 20.8159
437 1 -1.1104 6.78365 10.2342 14.9841
484 1 -1.1104 6.57916 13.002 17.8989
429 1 -1.1104 6.74711 10.1979 17.9178
490 1 -1.1104 6.72667 13.2009 15.0703
455 2 2.2208 10.8823 11.7599 16.427
460 1 -1.1104 12.0671 10.2561 17.8676
461 2 2.2208 10.9748 8.80628 19.3116
464 1 -1.1104 12.1793 10.2854 15.0578
468 2 2.2208 7.98021 11.6127 19.2516
471 2 2.2208 8.25944 8.86039 16.4727
473 1 -1.1104 9.40405 10.4641 17.92
476 1 -1.1104 9.58883 10.2734 15.1622
518 1 -1.1104 12.3816 13.0261 17.8637
520 1 -1.1104 12.5285 13.0782 15.2513
529 1 -1.1104 9.51626 13.1192 17.86
532 1 -1.1104 9.66354 13.1173 14.8993
477 1 -1.1104 9.44069 10.0757 20.6888
521 1 -1.1104 12.2241 13.1378 20.6842
525 2 2.2208 11.0256 14.494 19.3514
9000 2 2.2208 -0.256031 14.3862 19.3197
377 2 2.2208 -0.356417 17.3959 16.5211
509 2 2.2208 2.52097 14.3368 16.6406
496 2 2.2208 5.43685 14.387 19.2263
481 2 2.2208 5.36332 17.272 16.4967
483 1 -1.1104 1.05681 18.5288 17.9623
488 1 -1.1104 0.966495 18.5174 15.0416
494 1 -1.1104 1.23678 15.7621 17.8453
497 2 2.2208 5.3065 20.0473 19.2527
498 1 -1.1104 1.02394 15.659 15.0475
503 1 -1.1104 3.91284 18.7293 17.8934
504 2 2.2208 2.55168 17.1959 19.2962
507 1 -1.1104 3.94806 18.7771 14.9974
510 2 2.2208 2.68073 20.2109 16.5617
511 1 -1.1104 3.88364 15.9727 17.8953
512 1 -1.1104 3.87278 15.8265 15.0913
499 1 -1.1104 0.991344 15.7063 20.7066
8999 2 2.2208 -0.331201 19.9425 19.2971
508 1 -1.1104 4.11333 18.7655 20.7589
489 1 -1.1104 0.942144 18.3897 20.8621
513 1 -1.1104 4.14283 16.0256 20.5745
375 2 2.2208 8.2273 20.142 22.186
501 1 -1.1104 7.07285 15.3303 20.6262
540 1 -1.1104 9.69988 15.8695 20.9254
495 1 -1.1104 6.66895 15.8786 17.8901
500 1 -1.1104 6.91929 16.0059 15.1801
485 1 -1.1104 6.57017 18.6034 18.0184
492 1 -1.1104 6.74087 18.7278 15.3077
536 2 2.2208 8.08936 14.4548 16.4396
517 2 2.2208 11.0922 17.3383 16.5697
519 1 -1.1104 12.4824 18.7986 18.1617
522 1 -1.1104 12.5325 18.5744 15.3486
524 1 -1.1104 12.4929 15.9356 17.8774
526 2 2.2208 10.9286 20.1182 19.5744
527 1 -1.1104 12.2209 15.8596 15.1805
530 1 -1.1104 9.71957 18.6609 18.086
531 2 2.2208 8.20114 17.0535 19.2665
534 1 -1.1104 9.47781 18.6725 15.0828
537 2 2.2208 8.25302 20.1808 16.3728
538 1 -1.1104 9.67183 15.809 18.0596
539 1 -1.1104 9.52438 15.7255 15.1971
528 1 -1.1104 12.5024 15.9966 20.7923
523 1 -1.1104 12.409 18.817 21.0562
542 1 -1.1104 6.84496 15.8801 26.4985
493 1 -1.1104 6.92061 18.1811 20.7082
535 1 -1.1104 9.74136 18.7545 20.7976
579 2 2.2208 -0.28539 0.342831 22.3218
545 2 2.2208 5.31111 0.294984 22.0012
546 1 -1.1104 0.932655 -3.57322 23.4863
550 1 -1.1104 0.899992 -3.92838 26.3431
554 1 -1.1104 1.26866 -0.88596 23.555
556 2 2.2208 5.44178 -2.32624 24.9849
558 1 -1.1104 1.00721 -1.00555 26.4233
560 1 -1.1104 3.74767 -4.04705 23.5652
562 2 2.2208 2.50756 0.435338 25.0223
563 1 -1.1104 3.92862 -3.88867 26.3959
565 2 2.2208 2.54248 -2.30196 22.087
567 1 -1.1104 3.99393 -0.923175 23.5078
568 1 -1.1104 3.79987 -1.15593 26.2415
605 1 -1.1104 9.81448 15.8541 23.6355
8813 2 2.2208 -0.229273 20.1632 25.0724
608 1 -1.1104 12.5083 15.902 26.428
8171 2 2.2208 2.34115 -5.14369 19.2431
411 2 2.2208 -0.304558 5.98914 16.4157
8854 2 2.2208 -0.248609 14.4868 24.9557
378 2 2.2208 -0.289659 0.215096 16.6101
317 2 2.2208 5.53341 8.79441 13.6506
325 2 2.2208 11.0894 20.2357 13.6751
396 1 -1.1104 12.2052 -1.11696 20.8753
389 1 -1.1104 12.34 -3.68302 20.5193
514 1 -1.1104 6.72769 18.9102 23.4925
555 1 -1.1104 6.72947 -1.00551 23.6778
552 1 -1.1104 6.99174 -3.85303 26.4606
548 1 -1.1104 6.63651 -3.80173 23.5861
559 1 -1.1104 6.49859 -1.051 26.4347
581 2 2.2208 10.8991 0.380415 22.1702
582 1 -1.1104 12.2853 -3.97679 23.4414
584 1 -1.1104 12.5322 -3.82229 26.5052
586 1 -1.1104 12.259 -0.965351 23.6767
587 2 2.2208 11.0013 -2.40639 24.9231
589 1 -1.1104 12.1919 -1.17121 26.6304
590 1 -1.1104 9.56918 -3.77241 23.6911
592 2 2.2208 8.05278 0.397793 25.0738
593 1 -1.1104 9.61781 -3.72211 26.5374
595 2 2.2208 8.05383 -2.52596 22.0979
597 1 -1.1104 9.49363 -0.893585 23.7373
598 1 -1.1104 9.16073 -0.849555 26.6434
376 2 2.2208 -0.146646 6.07159 22.0296
9006 2 2.2208 -0.440516 8.9586 24.9005
639 1 -1.1104 6.88065 18.8686 26.3539
8770 2 2.2208 -0.405561 6.16389 27.6849
638 2 2.2208 8.16342 17.1858 24.8668
448 1 -1.1104 3.83827 4.86407 20.5816
580 2 2.2208 -0.271881 3.24838 25.0336
547 1 -1.1104 1.38104 1.96808 23.6442
551 1 -1.1104 1.1483 1.84229 26.531
557 2 2.2208 5.2237 3.08736 24.8411
561 1 -1.1104 4.03267 1.80632 23.3652
564 1 -1.1104 3.90921 1.8835 26.4245
566 2 2.2208 2.54977 3.31124 22.1153
610 2 2.2208 5.3363 5.93916 22.1279
614 1 -1.1104 1.01866 7.45876 26.2436
616 1 -1.1104 0.820791 4.58031 23.4843
621 1 -1.1104 1.02203 4.7993 26.1628
625 1 -1.1104 3.90087 7.27908 23.4194
626 2 2.2208 2.32866 6.22001 24.8971
628 1 -1.1104 3.61586 7.55679 26.3127
630 1 -1.1104 3.84025 4.58819 23.5705
632 1 -1.1104 3.94562 4.54391 26.4932
612 1 -1.1104 0.898169 7.59122 23.4474
391 1 -1.1104 12.3092 1.76809 20.6926
8106 2 2.2208 5.29426 -5.16636 22.2025
549 1 -1.1104 6.76971 1.72351 23.413
623 1 -1.1104 6.72394 4.63668 26.3377
613 1 -1.1104 6.66577 7.31316 23.4912
615 1 -1.1104 6.7277 7.30848 26.4348
553 1 -1.1104 6.7229 1.76904 26.4798
618 1 -1.1104 6.68575 4.38021 23.7001
583 1 -1.1104 12.2324 1.80676 23.8831
585 1 -1.1104 12.4003 1.57373 26.688
588 2 2.2208 10.7665 3.19708 25.0783
591 1 -1.1104 9.38749 1.74508 23.6682
594 1 -1.1104 9.70751 1.9772 26.4136
596 2 2.2208 8.11303 3.12806 22.1862
601 1 -1.1104 12.4911 4.53852 26.6227
636 1 -1.1104 12.3022 4.80769 23.7634
642 1 -1.1104 9.61272 4.8603 26.4143
644 1 -1.1104 9.48078 4.50759 23.7469
648 2 2.2208 8.16713 6.00865 25.0337
649 2 2.2208 10.8266 6.001 22.2474
652 1 -1.1104 12.4272 7.29697 26.4427
646 1 -1.1104 9.62571 7.46524 26.5081
599 1 -1.1104 9.50634 7.55348 23.6402
651 1 -1.1104 12.2594 7.55392 23.6829
602 1 -1.1104 12.481 15.7913 23.4933
450 1 -1.1104 3.87927 10.253 20.6986
578 1 -1.1104 12.5245 18.47 26.5626
9005 2 2.2208 -0.336709 11.744 22.1739
611 2 2.2208 5.32461 11.5628 22.1674
617 1 -1.1104 0.951596 10.366 23.4249
620 2 2.2208 5.23754 8.90426 25.0563
622 1 -1.1104 1.00767 10.4501 26.3049
627 2 2.2208 2.47412 11.6864 24.9417
629 2 2.2208 2.44151 8.99918 22.0906
631 1 -1.1104 3.74018 9.99111 23.5642
633 1 -1.1104 3.85047 10.3795 26.2782
410 1 -1.1104 4.12182 13.3923 26.3875
452 1 -1.1104 1.23242 13.1381 23.5498
515 1 -1.1104 1.14054 13.0644 26.3004
543 1 -1.1104 4.00214 12.9404 23.5286
8769 2 2.2208 -0.329843 20.2002 13.7419
8816 2 2.2208 13.662 -2.5167 16.4602
8777 2 2.2208 -0.338085 11.8242 27.7504
491 1 -1.1104 6.69064 12.7702 20.5189
438 1 -1.1104 6.53603 10.0763 20.8423
533 1 -1.1104 9.57295 12.9467 20.6566
8753 2 2.2208 13.6625 5.88048 13.7085
569 1 -1.1104 6.86169 13.2072 26.1461
465 1 -1.1104 12.3448 10.2055 20.6335
619 1 -1.1104 6.70512 10.1697 23.7037
624 1 -1.1104 6.7862 10.2532 26.4536
478 1 -1.1104 6.81641 12.9828 23.4691
640 1 -1.1104 9.55584 12.9438 26.3602
609 1 -1.1104 9.39699 12.7779 23.3134
600 1 -1.1104 12.468 10.3383 26.3366
634 2 2.2208 10.9112 8.8192 25.1285
635 1 -1.1104 12.3436 10.4133 23.4782
641 1 -1.1104 9.59181 10.1443 26.4834
643 1 -1.1104 9.61797 9.95803 23.5666
645 2 2.2208 8.0262 8.80596 22.1874
647 2 2.2208 8.33873 11.5157 24.8808
650 2 2.2208 11.0949 11.6921 22.1119
413 1 -1.1104 12.2254 13.1751 23.6228
544 1 -1.1104 12.5879 12.7713 26.5018
576 2 2.2208 8.34549 14.3596 22.2169
577 1 -1.1104 9.56165 18.4972 26.4447
8102 2 2.2208 8.29232 -5.17728 24.992
414 1 -1.1104 12.5819 18.5665 23.8207
8817 2 2.2208 -0.278677 -2.44206 19.2336
8812 2 2.2208 -0.404591 17.2109 22.2963
379 2 2.2208 2.54292 14.6343 21.8414
479 2 2.2208 5.45824 14.5474 24.9087
416 2 2.2208 2.61017 17.2991 24.9857
415 1 -1.1104 3.96424 16.0298 26.3915
516 1 -1.1104 1.10935 15.9439 26.2865
480 2 2.2208 5.33619 20.1753 24.9033
453 1 -1.1104 1.1888 18.5541 23.4783
451 2 2.2208 5.31053 17.2693 22.1724
417 1 -1.1104 3.89457 18.8154 26.2583
570 1 -1.1104 4.11151 18.4838 23.6248
541 1 -1.1104 1.10052 18.6193 26.2596
380 2 2.2208 2.46877 20.0854 22.1333
382 1 -1.1104 4.08532 15.8501 23.5182
383 1 -1.1104 1.21082 15.8841 23.659
637 1 -1.1104 9.59266 18.715 23.6913
604 1 -1.1104 9.77081 15.6728 26.6846
606 2 2.2208 10.9681 14.3601 25.0671
409 2 2.2208 11.1801 17.2868 22.2362
329 2 2.2208 2.40325 -2.56877 27.6545
310 2 2.2208 2.50005 0.342335 13.7847
321 2 2.2208 8.27717 11.6147 13.7514
311 2 2.2208 5.47722 2.87603 13.7322
308 2 2.2208 8.34927 20.0739 27.7482
305 2 2.2208 2.59858 14.5095 27.6696
8820 2 2.2208 13.5955 0.413108 19.4019
574 2 2.2208 13.6582 6.13767 19.5569
573 2 2.2208 13.6721 11.6128 19.1631
319 2 2.2208 7.92892 5.93721 13.8177
8744 2 2.2208 -0.36664 17.1624 27.7177
320 2 2.2208 10.886 8.68141 13.7271
339 2 2.2208 5.29647 6.09448 27.7729
327 2 2.2208 8.26591 17.0973 13.7393
326 2 2.2208 11.0104 14.463 13.6847
653 2 2.2208 5.42859 23.0704 5.30807
655 1 -1.1104 1.02603 24.1603 0.960683
656 1 -1.1104 1.15227 24.3751 4.09765
657 1 -1.1104 1.36876 21.438 1.04811
659 2 2.2208 5.57771 25.9094 2.62646
660 1 -1.1104 1.12943 21.5991 3.88015
662 1 -1.1104 4.03849 24.2422 0.756759
663 2 2.2208 2.75208 23.0438 2.53142
665 1 -1.1104 3.80203 24.4403 3.8367
666 2 2.2208 2.56672 25.8355 5.29868
667 1 -1.1104 4.01718 21.3835 1.07164
669 1 -1.1104 3.8849 21.4902 3.80085
661 1 -1.1104 1.12149 26.9321 3.81189
658 1 -1.1104 1.29692 27.228 1.05169
668 1 -1.1104 4.16804 27.3153 0.972198
802 1 -1.1104 3.90952 27.2816 6.61684
801 1 -1.1104 3.91006 21.6764 6.7624
672 2 2.2208 -0.308956 22.971 5.34518
794 1 -1.1104 0.821167 24.2943 6.65919
796 1 -1.1104 1.13591 21.5453 6.60485
673 2 2.2208 -0.243447 25.5826 2.35116
670 1 -1.1104 4.12439 27.1528 3.77924
9431 2 2.2208 -0.281383 42.6894 7.77615
675 1 -1.1104 6.77363 24.4057 3.94953
676 1 -1.1104 6.96332 21.5875 0.952206
674 1 -1.1104 6.83473 24.4604 1.12555
678 1 -1.1104 6.80538 21.4479 3.64704
680 2 2.2208 10.9976 22.9244 5.19311
682 1 -1.1104 12.4885 24.5195 1.13999
683 1 -1.1104 12.4738 24.1456 3.5972
684 1 -1.1104 12.5748 21.5247 0.750263
686 2 2.2208 11.1675 25.906 2.41872
687 1 -1.1104 12.4546 21.2399 3.70693
689 1 -1.1104 9.74484 24.6101 1.14739
690 2 2.2208 8.38509 22.9054 2.31188
692 1 -1.1104 9.66784 24.3786 3.75165
693 2 2.2208 8.15481 25.8492 5.29135
694 1 -1.1104 9.92232 21.4303 0.920994
696 1 -1.1104 9.41339 21.4603 3.87637
685 1 -1.1104 12.5585 27.281 0.971525
688 1 -1.1104 12.4939 27.1556 3.61256
695 1 -1.1104 9.77152 27.2268 0.902746
697 1 -1.1104 9.6868 27.1773 3.64725
831 1 -1.1104 9.67166 21.3251 6.53832
677 1 -1.1104 6.85811 27.3001 1.03815
679 1 -1.1104 6.95542 27.4159 3.59822
9459 2 2.2208 -0.164472 42.7903 13.5657
9432 2 2.2208 -0.236195 45.5465 10.728
9417 2 2.2208 -0.22709 28.5588 5.09368
654 2 2.2208 5.54061 28.6295 5.09017
664 2 2.2208 2.7296 28.3983 2.34626
702 1 -1.1104 1.03535 30.0431 0.952194
705 1 -1.1104 1.33338 29.7505 3.68756
708 1 -1.1104 1.24069 32.9481 0.765357
709 2 2.2208 5.38623 31.2461 2.33885
711 1 -1.1104 1.28775 32.5586 3.71615
713 1 -1.1104 3.87091 30.0214 0.990036
716 1 -1.1104 4.16124 29.8748 3.53806
718 2 2.2208 2.63335 31.3024 5.01815
720 1 -1.1104 4.12422 32.9581 0.801054
721 1 -1.1104 4.1238 32.6185 3.79378
859 1 -1.1104 3.77942 32.8399 6.81521
9430 2 2.2208 -0.443526 37.3074 7.91243
9422 2 2.2208 -0.160862 31.4524 2.21463
9423 2 2.2208 -0.130236 34.1031 5.06149
975 2 2.2208 2.59375 45.4148 13.6321
727 1 -1.1104 6.87515 32.7266 0.96985
725 1 -1.1104 6.78689 29.9467 1.1644
726 1 -1.1104 6.841 30.2132 3.88149
712 1 -1.1104 6.80557 32.9232 3.83709
681 2 2.2208 11.2004 28.637 5.1388
691 2 2.2208 8.39918 28.7194 2.28895
729 1 -1.1104 12.5657 30.1837 0.725618
731 1 -1.1104 12.6655 30.1755 3.33903
733 1 -1.1104 12.5506 32.9883 0.721245
734 2 2.2208 11.0777 31.4445 2.39464
736 1 -1.1104 12.3943 32.994 3.4811
737 1 -1.1104 9.77938 30.0826 0.916001
740 1 -1.1104 9.914 29.8829 3.66281
742 2 2.2208 8.34046 31.4267 5.2444
744 1 -1.1104 9.72868 32.7841 0.830971
745 1 -1.1104 9.90327 32.7293 3.6943
799 1 -1.1104 6.67793 27.2981 6.63707
974 2 2.2208 2.63369 39.938 13.6417
853 1 -1.1104 6.94972 30.218 6.65481
971 2 2.2208 8.23646 34.0492 13.6633
701 2 2.2208 5.23182 34.2713 5.08857
703 1 -1.1104 1.268 35.7241 0.770412
706 1 -1.1104 1.32079 35.5195 3.39767
710 2 2.2208 5.34864 36.9997 2.12726
714 1 -1.1104 3.97683 35.7572 0.61668
715 2 2.2208 2.71934 34.2695 2.11805
717 1 -1.1104 3.87673 35.5679 3.46504
719 2 2.2208 2.59779 37.1509 5.10937
747 2 2.2208 5.38244 39.8072 4.76188
753 1 -1.1104 1.07797 38.3405 0.873279
758 1 -1.1104 0.789599 38.337 3.70031
763 2 2.2208 2.5721 39.8072 1.99851
767 1 -1.1104 3.8562 38.5126 0.438095
769 1 -1.1104 3.87017 38.3636 3.32821
858 1 -1.1104 4.17149 35.9942 6.42564
925 1 -1.1104 1.09506 38.4338 6.76271
963 2 2.2208 5.29714 31.5238 13.531
9325 2 2.2208 13.6518 31.3728 10.8039
9421 2 2.2208 -0.0980991 36.9647 2.19647
700 1 -1.1104 12.6628 41.4067 12.2043
931 1 -1.1104 3.73073 38.6379 6.11216
771 1 -1.1104 12.3272 44.1037 6.4473
970 2 2.2208 11.0856 36.9814 13.3648