ITEM: TIMESTEP
100000
ITEM: NUMBER OF ATOMS
17700
ITEM: BOX BOUNDS pp pp pp
-4.4260005638389704e-01 2.7782600056383394e+01
-5.3491163474149701e+00 3.3342911634740165e+02
-4.4043259780812904e-01 2.7780432597807881e+01
ITEM: ATOMS id type q x y z
1 2 2.2208 5.4318 0.520022 5.01265
2 1 -1.1104 0.950674 -3.94789 0.7908
6 1 -1.1104 1.09458 -3.92301 3.32424
10 1 -1.1104 1.21686 -1.01012 0.831732
12 2 2.2208 5.35689 -2.43521 2.14996
14 1 -1.1104 0.974253 -1.18791 3.76121
16 1 -1.1104 3.71911 -4.24187 0.732793
18 2 2.2208 2.57433 0.312931 2.34928
19 1 -1.1104 3.97275 -3.98036 3.57984
21 2 2.2208 2.59432 -2.42044 5.00105
23 1 -1.1104 4.05477 -1.19586 0.668873
24 1 -1.1104 3.89994 -0.874469 3.6023
174 1 -1.1104 3.92736 -0.882378 6.49588
172 1 -1.1104 3.90862 -3.87872 6.43343
166 1 -1.1104 1.30871 -3.7704 6.61084
170 1 -1.1104 1.03205 -1.11205 6.62296
8019 2 2.2208 2.39421 -5.28837 7.70945
8588 2 2.2208 -0.347241 -2.41069 7.98424
8622 2 2.2208 -0.314676 3.23174 7.97163
15 1 -1.1104 6.51998 -1.12819 3.73916
171 1 -1.1104 6.75084 -1.14237 6.5184
168 1 -1.1104 6.53741 -3.9934 6.37432
4 1 -1.1104 6.51937 -4.00712 0.768463
11 1 -1.1104 6.71506 -1.14208 0.94544
8 1 -1.1104 6.78858 -3.87035 3.55995
31 2 2.2208 10.911 0.19589 5.08481
32 1 -1.1104 12.1829 -4.20393 1.10159
34 1 -1.1104 12.2973 -4.07557 3.87952
36 1 -1.1104 12.4399 -1.21896 0.819422
37 2 2.2208 11.0772 -2.48726 2.37381
39 1 -1.1104 12.4926 -1.16439 3.82073
40 1 -1.1104 9.54114 -4.01536 0.534807
42 2 2.2208 8.28821 0.415993 2.27371
43 1 -1.1104 9.4391 -3.72478 3.53012
45 2 2.2208 8.02458 -2.58265 5.1737
47 1 -1.1104 9.53054 -1.16983 1.10064
48 1 -1.1104 9.4802 -0.913654 3.77398
207 1 -1.1104 12.389 -1.45004 6.69033
205 1 -1.1104 12.2865 -4.05658 6.80393
208 1 -1.1104 9.37395 -3.71378 6.64484
8730 2 2.2208 13.6311 -2.76694 5.14497
305 2 2.2208 2.32784 14.3683 -0.312587
8015 2 2.2208 2.47294 -5.3846 2.17399
28 2 2.2208 -0.174778 5.90914 10.8372
3 1 -1.1104 1.28698 1.87407 0.856422
7 1 -1.1104 1.14785 1.56818 3.74677
13 2 2.2208 5.42579 3.05754 2.35804
17 1 -1.1104 3.97879 1.3651 0.833011
20 1 -1.1104 3.89633 1.86335 3.65923
22 2 2.2208 2.56742 3.25018 5.21459
54 2 2.2208 5.469 5.96814 5.06934
56 1 -1.1104 1.40226 7.42555 0.902365
60 1 -1.1104 1.41277 4.62029 0.981253
67 1 -1.1104 1.31898 4.67433 3.72277
72 2 2.2208 2.77292 5.98709 2.37242
76 1 -1.1104 4.14338 4.32581 0.870658
79 1 -1.1104 4.07325 4.33575 3.88941
71 1 -1.1104 4.18819 7.18745 0.805763
74 1 -1.1104 4.04852 7.38948 3.77272
58 1 -1.1104 1.41421 7.1993 3.71255
234 1 -1.1104 1.26988 7.21288 6.6401
173 1 -1.1104 3.75688 1.98552 6.77888
239 1 -1.1104 4.04908 4.67932 6.51013
63 1 -1.1104 6.95667 4.39641 0.853431
59 1 -1.1104 6.98206 7.56784 3.61568
69 1 -1.1104 6.70652 4.75817 3.46896
57 1 -1.1104 6.96278 7.32831 0.79484
169 1 -1.1104 6.73477 1.75736 6.50058
236 1 -1.1104 1.09545 4.4782 6.67066
167 1 -1.1104 1.19798 1.68228 6.30892
237 1 -1.1104 6.75622 4.46089 6.38351
8728 2 2.2208 -0.398759 17.1666 5.35045
320 2 2.2208 11.235 8.95972 13.6148
5 1 -1.1104 6.84508 1.63738 0.972922
9 1 -1.1104 6.80671 1.8457 3.51055
33 1 -1.1104 12.312 1.48618 1.28608
35 1 -1.1104 12.4049 1.41841 3.83469
38 2 2.2208 11.1407 3.09095 2.21822
41 1 -1.1104 9.76 1.93862 0.760388
44 1 -1.1104 9.59005 1.88173 3.71774
46 2 2.2208 8.17954 3.2142 5.08714
84 2 2.2208 11.054 5.94544 5.12191
88 1 -1.1104 12.4658 4.42354 0.856416
92 1 -1.1104 12.5058 4.39996 3.72046
95 2 2.2208 8.2944 6.06275 2.42075
99 1 -1.1104 9.65131 4.64098 1.32911
102 1 -1.1104 9.62252 4.77425 3.95801
87 1 -1.1104 12.3522 7.39123 3.49111
97 1 -1.1104 9.6918 7.61175 3.74734
86 1 -1.1104 12.4737 7.46514 0.815388
94 1 -1.1104 9.78119 7.22397 1.07757
206 1 -1.1104 12.1826 1.47456 6.66397
265 1 -1.1104 12.476 7.11131 6.55369
267 1 -1.1104 9.62119 7.28061 6.64847
8727 2 2.2208 -0.179592 3.19196 2.16403
55 2 2.2208 5.43461 11.6966 5.24444
61 1 -1.1104 1.3158 9.98772 0.8762
66 2 2.2208 5.43655 8.87713 2.33835
68 1 -1.1104 1.31189 10.319 3.85028
73 2 2.2208 2.60329 11.6875 2.35449
75 2 2.2208 2.85206 8.65969 5.25801
77 1 -1.1104 4.24308 10.1645 0.907316
80 1 -1.1104 4.15436 10.2978 3.60445
107 1 -1.1104 1.10508 12.9949 1.18173
113 1 -1.1104 1.34765 13.1014 3.74895
123 1 -1.1104 3.94983 13.0217 0.826922
128 1 -1.1104 4.06391 13.0776 3.82126
64 1 -1.1104 7.0799 10.347 0.790883
124 1 -1.1104 4.00472 12.8729 6.67359
62 1 -1.1104 1.25164 9.93522 6.67646
115 1 -1.1104 6.61186 13.1708 3.85979
110 1 -1.1104 6.79682 13.0554 1.03156
70 1 -1.1104 6.85882 10.4172 3.67088
111 1 -1.1104 6.94566 12.9214 6.68036
8454 2 2.2208 -0.0818441 14.1873 8.15661
85 2 2.2208 11.0648 11.7223 5.20014
89 1 -1.1104 12.6234 10.4396 0.653988
91 2 2.2208 10.9824 8.84605 2.31791
93 1 -1.1104 12.4252 10.3826 3.86124
96 2 2.2208 8.30903 11.5756 2.31069
98 2 2.2208 8.45584 8.71145 5.22119
100 1 -1.1104 9.79192 10.2441 0.978172
103 1 -1.1104 9.77965 10.2645 3.84375
142 1 -1.1104 12.3158 13.0948 1.11425
146 1 -1.1104 12.4331 13.2984 3.7164
153 1 -1.1104 9.54978 13.2569 1.04975
158 1 -1.1104 9.7474 13.1481 3.81228
154 1 -1.1104 9.62871 12.7974 6.63797
90 1 -1.1104 12.5022 10.1157 6.6297
321 2 2.2208 8.4175 11.6089 13.5364
8033 2 2.2208 8.09897 -5.15866 13.5861
130 2 2.2208 2.71558 14.3383 5.41224
119 2 2.2208 5.36362 14.4483 2.4007
106 2 2.2208 5.22613 17.2889 5.37682
109 1 -1.1104 1.10985 18.7036 1.20305
114 1 -1.1104 0.922494 18.5075 4.02317
116 1 -1.1104 1.23715 15.9699 1.18692
120 2 2.2208 5.27774 19.8973 2.39552
121 1 -1.1104 1.10874 15.7346 4.10421
125 1 -1.1104 4.10531 18.542 0.914997
127 2 2.2208 2.42365 17.1992 2.641
129 1 -1.1104 3.79087 18.4278 3.76639
131 2 2.2208 2.33657 19.8544 5.2616
132 1 -1.1104 4.02232 15.7626 0.853179
134 1 -1.1104 3.84274 15.8639 3.96976
140 1 -1.1104 6.82072 15.7528 0.881194
133 1 -1.1104 4.1101 15.8455 6.83305
118 1 -1.1104 6.78535 15.7466 6.46902
126 1 -1.1104 3.81137 18.7244 6.5524
17329 2 2.2208 13.7129 -5.24283 8.09436
8429 2 2.2208 -0.205884 17.1053 11.0628
302 1 -1.1104 0.883306 18.5359 6.81996
8733 2 2.2208 -0.0626385 8.67094 2.28764
8023 2 2.2208 10.8217 -5.27082 10.8539
310 2 2.2208 2.59079 0.345567 13.4929
138 1 -1.1104 7.04671 18.7622 1.127
122 1 -1.1104 6.82474 15.8446 3.7762
112 1 -1.1104 6.73682 18.563 6.6569
139 1 -1.1104 6.45002 18.5707 4.00198
319 2 2.2208 8.19315 6.01842 13.656
150 2 2.2208 10.9451 14.6514 2.49268
160 2 2.2208 8.18493 14.4127 5.24213
141 2 2.2208 11.0916 17.1094 5.35023
144 1 -1.1104 12.4432 18.7193 1.00879
147 1 -1.1104 12.4188 18.5433 3.76751
148 1 -1.1104 12.3954 15.82 1.07426
151 2 2.2208 10.9348 20.1457 2.38367
152 1 -1.1104 12.4897 15.9504 3.63014
155 1 -1.1104 9.68604 18.709 0.983004
157 2 2.2208 8.19202 17.1042 2.31453
159 1 -1.1104 9.25168 18.4996 3.80516
161 2 2.2208 7.98552 19.9232 5.19379
162 1 -1.1104 9.4752 15.8844 0.948331
164 1 -1.1104 9.65974 15.9217 3.91786
156 1 -1.1104 9.6708 18.4029 6.55627
8734 2 2.2208 -0.127439 11.3536 5.19121
29 2 2.2208 -0.214005 11.5765 10.8433
175 2 2.2208 5.34779 0.413582 10.7952
176 1 -1.1104 1.24034 -4.14213 12.1242
180 1 -1.1104 1.25357 -3.97171 9.3295
184 1 -1.1104 1.25318 -1.23249 12.1244
186 2 2.2208 5.3306 -2.69332 7.80877
188 1 -1.1104 1.29581 -1.03139 9.35234
190 1 -1.1104 3.98402 -3.67038 11.9428
192 2 2.2208 2.53082 0.245681 7.93932
193 1 -1.1104 3.93956 -4.05356 9.01663
195 2 2.2208 2.64036 -2.6075 10.6748
197 1 -1.1104 3.90675 -0.928671 12.0108
198 1 -1.1104 4.10565 -1.2332 9.18329
178 1 -1.1104 6.62495 -3.9429 12.0771
182 1 -1.1104 6.83375 -3.70759 9.33306
200 2 2.2208 8.14356 20.1113 10.7647
8022 2 2.2208 8.15921 -5.07884 7.98515
8744 2 2.2208 -0.328592 17.2181 -0.236649
135 2 2.2208 8.07489 17.0931 7.81792
185 1 -1.1104 6.62827 -1.00273 12.377
189 1 -1.1104 6.59795 -0.898705 9.39026
210 1 -1.1104 9.58306 -1.10998 6.55787
211 2 2.2208 10.911 0.50678 10.8569
212 1 -1.1104 12.2425 -3.84343 12.3984
214 1 -1.1104 12.4189 -3.86854 9.67543
216 1 -1.1104 12.1324 -0.988668 12.3408
217 2 2.2208 10.8514 -2.22958 8.14736
219 1 -1.1104 12.4014 -0.828552 9.55995
220 1 -1.1104 9.30416 -3.83146 12.2511
222 2 2.2208 8.01566 0.26364 7.99327
223 1 -1.1104 9.5178 -3.75774 9.54796
225 2 2.2208 8.08052 -2.33107 10.8519
227 1 -1.1104 9.4727 -1.05461 12.0809
228 1 -1.1104 9.59705 -0.823835 9.30914
8731 2 2.2208 -0.144087 14.3126 2.52615
308 2 2.2208 8.22022 20.0659 -0.349584
238 1 -1.1104 4.16892 7.35004 6.52747
82 2 2.2208 10.8959 20.0457 8.05723
177 1 -1.1104 1.29373 1.7717 12.1198
181 1 -1.1104 0.887009 1.58313 8.94348
187 2 2.2208 5.45004 3.10112 7.90728
191 1 -1.1104 3.95519 1.82163 12.321
194 1 -1.1104 3.87967 1.5337 9.45007
196 2 2.2208 2.60109 3.09722 10.6987
240 2 2.2208 5.43126 5.8282 10.8442
242 1 -1.1104 1.03373 7.47652 12.0239
246 1 -1.1104 1.5438 4.57855 12.1512
251 1 -1.1104 1.34119 4.60004 9.31772
256 2 2.2208 2.86845 6.07657 8.02403
260 1 -1.1104 4.20323 4.83138 12.4378
262 1 -1.1104 4.04534 4.56633 9.39932
255 1 -1.1104 4.03085 7.42896 12.1352
244 1 -1.1104 1.42734 7.21985 9.60879
253 1 -1.1104 6.75746 4.67893 9.13279
183 1 -1.1104 6.84002 1.92763 9.37079
179 1 -1.1104 6.92457 1.86684 12.2801
258 1 -1.1104 4.15381 7.7311 9.34732
248 1 -1.1104 6.99044 4.58498 12.0665
331 2 2.2208 -0.222186 3.04229 13.5548
26 2 2.2208 10.8987 17.3301 10.9013
317 2 2.2208 5.53208 8.59772 13.7998
8732 2 2.2208 -0.0648436 5.9909 5.14207
235 1 -1.1104 6.89279 7.42507 6.46998
269 1 -1.1104 9.49663 4.47551 6.78896
266 1 -1.1104 12.0799 4.37035 6.1652
309 2 2.2208 5.3163 -2.38024 13.6448
209 1 -1.1104 9.40292 1.44429 6.70291
245 1 -1.1104 6.66899 7.27295 9.41999
213 1 -1.1104 12.5266 1.83428 12.3125
215 1 -1.1104 12.3872 1.93685 9.5999
218 2 2.2208 10.9263 3.19276 7.96541
221 1 -1.1104 9.78804 1.78095 12.2475
224 1 -1.1104 9.75252 1.96987 9.57295
226 2 2.2208 8.33417 3.18654 10.9187
268 1 -1.1104 9.42375 4.78449 9.49474
271 1 -1.1104 9.68315 4.64538 12.2806
275 2 2.2208 8.11066 5.98673 7.97589
276 2 2.2208 10.8408 6.00757 10.8033
280 1 -1.1104 12.4933 4.97493 12.1278
283 1 -1.1104 12.3475 4.553 9.26639
278 1 -1.1104 12.5774 7.60966 12.1766
279 1 -1.1104 12.2737 7.25841 9.38
273 1 -1.1104 9.44186 7.36764 9.26069
285 1 -1.1104 9.62381 7.38092 12.1097
108 1 -1.1104 1.04575 12.9554 6.58696
65 1 -1.1104 6.84363 10.1767 6.61877
318 2 2.2208 2.49705 11.7149 13.7519
78 1 -1.1104 3.99592 10.1833 6.56728
241 2 2.2208 5.46428 11.4477 10.8315
247 1 -1.1104 1.35583 10.3635 12.213
250 2 2.2208 5.52551 8.71055 8.02285
252 1 -1.1104 1.29465 10.0904 9.37065
257 2 2.2208 2.74051 11.7207 8.22083
259 2 2.2208 2.65224 8.80996 10.7963
261 1 -1.1104 4.26206 10.0415 12.2913
263 1 -1.1104 3.96411 10.3306 9.41047
204 1 -1.1104 4.12689 13.0448 9.62023
287 1 -1.1104 3.96492 12.8207 12.3437
294 1 -1.1104 1.1977 12.8591 9.62496
299 1 -1.1104 1.35847 13.0158 12.3293
290 1 -1.1104 6.77577 12.9433 9.33585
249 1 -1.1104 7.1691 10.0505 12.35
297 1 -1.1104 6.78703 13.1886 12.1283
254 1 -1.1104 6.89626 10.0457 9.52244
53 1 -1.1104 12.3829 15.87 12.2047
229 1 -1.1104 9.57952 16.1798 12.3687
307 2 2.2208 2.55233 19.9817 -0.360103
143 1 -1.1104 12.3735 13.0614 6.46249
101 1 -1.1104 9.65483 10.1095 6.6874
25 2 2.2208 -0.317539 -2.46864 2.32304
105 1 -1.1104 9.53839 19.0179 11.9627
243 1 -1.1104 7.14281 7.2843 12.1869
137 1 -1.1104 9.73414 13.1282 9.58605
264 1 -1.1104 9.85522 10.122 9.41454
270 1 -1.1104 9.91297 10.158 12.2534
272 2 2.2208 8.33328 8.71468 10.8153
274 2 2.2208 8.29532 11.4571 8.05263
277 2 2.2208 11.1983 11.5692 10.8194
281 1 -1.1104 12.7113 10.5105 12.4812
282 2 2.2208 11.0517 8.69806 7.97642
284 1 -1.1104 12.5807 10.2873 9.53203
104 1 -1.1104 9.69714 13.0497 12.3788
27 1 -1.1104 12.4754 12.8626 12.407
49 1 -1.1104 12.3534 12.7974 9.23934
199 2 2.2208 8.15839 14.3982 10.7823
203 1 -1.1104 6.66374 16.0467 12.3753
117 1 -1.1104 1.07588 15.7163 6.78902
8656 2 2.2208 -0.10882 8.68262 8.05417
289 1 -1.1104 7.03265 15.648 9.29608
233 2 2.2208 2.65103 14.3652 10.9552
295 2 2.2208 5.57163 14.4473 7.91841
298 1 -1.1104 1.13384 18.7008 12.361
300 2 2.2208 5.35617 17.2914 10.8893
301 1 -1.1104 3.98655 18.6754 9.32452
51 2 2.2208 2.529 19.9556 10.7765
52 1 -1.1104 4.09399 15.9448 12.297
202 1 -1.1104 1.26587 15.9147 12.3678
231 1 -1.1104 4.18205 15.7884 9.42914
232 2 2.2208 2.56288 17.1435 8.11597
286 1 -1.1104 3.8702 18.5726 12.1777
291 1 -1.1104 1.00018 18.3826 9.64847
292 1 -1.1104 1.31039 15.5428 9.58191
293 2 2.2208 5.39102 20.0861 7.94003
296 1 -1.1104 6.57494 18.7795 12.3802
149 1 -1.1104 12.227 15.7642 6.67127
288 1 -1.1104 6.76529 18.5884 9.41058
8724 2 2.2208 -0.324457 0.440497 5.0818
230 1 -1.1104 9.73764 15.8635 9.52489
81 2 2.2208 11.0034 14.3043 8.05476
165 1 -1.1104 9.48876 18.717 9.28874
50 1 -1.1104 12.1873 18.6896 9.44944
163 1 -1.1104 9.50611 15.5488 6.75884
145 1 -1.1104 12.548 18.5741 6.58799
30 1 -1.1104 12.1478 18.6195 12.3145
83 1 -1.1104 12.4957 15.9629 9.25122
201 2 2.2208 -0.13239 0.333393 10.7014
322 2 2.2208 2.71276 17.1374 13.7054
327 2 2.2208 8.06958 17.3067 13.5659
8017 2 2.2208 8.16838 -5.22171 2.17479
316 2 2.2208 2.74033 5.90501 13.571
8020 2 2.2208 5.37892 -5.30912 10.6148
8742 2 2.2208 -0.112136 -2.65919 13.5597
8689 2 2.2208 13.5479 19.9499 10.8495
312 2 2.2208 -0.0418714 9.03408 13.6604
136 2 2.2208 -0.280834 20.0862 2.35555
8743 2 2.2208 13.6963 0.314736 13.6156
8018 2 2.2208 10.9684 -5.25997 5.2714
315 2 2.2208 11.2204 3.35404 13.583
325 2 2.2208 10.8213 20.2807 13.6102
303 2 2.2208 8.06105 14.4128 -0.404799
313 2 2.2208 8.24866 0.260991 13.6261
324 2 2.2208 5.29592 14.335 13.5205
304 2 2.2208 11.1098 17.2386 -0.330696
336 2 2.2208 11.162 5.94163 -0.310397
337 2 2.2208 8.31793 -2.34644 -0.414534
341 2 2.2208 5.40824 11.561 -0.378693
342 2 2.2208 5.4406 0.439557 16.6071
343 1 -1.1104 1.25973 -4.09212 17.623
347 1 -1.1104 1.19 -4.03328 14.8301
355 1 -1.1104 1.09475 -1.33551 17.8863
357 2 2.2208 5.40033 -2.38443 19.0632
359 1 -1.1104 1.00822 -1.18629 14.8607
363 1 -1.1104 4.04846 -3.80124 17.6805
365 2 2.2208 2.56227 0.329698 19.2722
366 1 -1.1104 3.83367 -3.87015 14.8401
370 2 2.2208 2.48131 -2.53305 16.3246
372 1 -1.1104 3.81003 -1.05797 17.7836
373 1 -1.1104 3.93195 -1.19752 14.8577
356 1 -1.1104 6.67479 -1.13459 17.6336
374 1 -1.1104 3.96111 -1.10278 20.5772
367 1 -1.1104 4.19809 -4.02819 20.603
333 2 2.2208 11.1023 0.301564 27.6818
8171 2 2.2208 2.60447 -5.39629 19.1584
362 1 -1.1104 6.6516 -0.897492 20.451
352 1 -1.1104 6.9142 -3.74428 20.5772
360 1 -1.1104 1.21166 -1.30049 20.7318
637 1 -1.1104 9.41226 18.6807 23.6991
361 1 -1.1104 6.9192 -0.95986 15.0393
345 1 -1.1104 6.8307 -3.88075 17.6998
351 1 -1.1104 6.67261 -3.98957 14.8156
385 2 2.2208 11.0239 0.356593 16.47
386 1 -1.1104 12.6463 -3.92166 17.9206
388 1 -1.1104 12.4038 -3.88548 15.2052
392 1 -1.1104 12.4464 -1.00071 17.8841
393 2 2.2208 10.9866 -2.4562 19.3599
395 1 -1.1104 12.3651 -1.07587 15.0528
397 1 -1.1104 9.8897 -3.71245 17.7443
399 2 2.2208 8.08477 0.365979 19.1564
400 1 -1.1104 9.57531 -4.11447 15.0885
404 2 2.2208 8.24544 -2.54665 16.4243
406 1 -1.1104 9.59395 -1.02744 17.8188
407 1 -1.1104 9.82557 -1.35257 14.9958
605 1 -1.1104 9.62909 15.6744 23.4846
389 1 -1.1104 12.3232 -3.82461 20.6682
401 1 -1.1104 9.58973 -3.90344 20.6177
408 1 -1.1104 9.59328 -1.02999 20.6879
338 2 2.2208 8.25113 3.17148 27.7266
396 1 -1.1104 12.4453 -1.13517 20.623
378 2 2.2208 -0.327529 0.0219126 16.3129
344 1 -1.1104 1.09021 1.66821 17.7841
349 1 -1.1104 1.20077 1.56035 14.902
358 2 2.2208 5.2788 3.19844 19.2685
364 1 -1.1104 3.89559 1.62018 17.8432
368 1 -1.1104 3.9975 1.65497 15.1037
371 2 2.2208 2.50129 3.18988 16.4848
418 2 2.2208 5.40519 5.90215 16.5444
426 1 -1.1104 1.2568 4.4502 17.6785
431 1 -1.1104 1.16638 4.42083 15.0344
440 2 2.2208 2.54347 5.95177 19.1506
445 1 -1.1104 3.93246 4.5537 17.9208
447 1 -1.1104 3.90038 4.29475 15.0599
439 1 -1.1104 3.94656 7.42828 17.7804
442 1 -1.1104 4.02151 7.01688 14.8229
420 1 -1.1104 1.36588 7.38881 17.6378
422 1 -1.1104 1.32025 7.56836 14.9191
428 1 -1.1104 6.83901 4.64914 17.6011
346 1 -1.1104 6.79977 1.83534 17.8792
421 1 -1.1104 6.9068 7.33166 17.9508
432 1 -1.1104 1.12499 4.49075 20.6554
424 1 -1.1104 6.72797 7.232 15.1417
425 1 -1.1104 6.73519 7.57167 20.7123
350 1 -1.1104 1.18631 1.69685 20.5868
354 1 -1.1104 6.6258 1.75808 20.8168
369 1 -1.1104 3.91668 1.77088 20.5007
435 1 -1.1104 6.8606 4.42062 14.9221
353 1 -1.1104 6.9565 1.82138 15.1777
387 1 -1.1104 12.4774 1.80107 17.8903
390 1 -1.1104 12.5392 1.75413 14.9957
394 2 2.2208 11.0799 2.93317 19.2417
398 1 -1.1104 9.63002 1.75444 17.8746
402 1 -1.1104 9.59855 1.63244 14.9381
405 2 2.2208 8.2973 3.15285 16.585
454 2 2.2208 11.1333 5.84544 16.3902
459 1 -1.1104 12.6123 4.43932 17.6709
462 1 -1.1104 12.4101 4.62448 14.9658
467 2 2.2208 8.15671 6.08982 19.3755
472 1 -1.1104 9.60181 4.48283 17.9569
474 1 -1.1104 9.63733 4.53643 14.9843
469 1 -1.1104 9.67018 7.22858 15.1022
457 1 -1.1104 12.4637 7.51864 14.9621
470 1 -1.1104 9.51806 7.52682 20.8154
463 1 -1.1104 12.4306 4.42117 20.6258
475 1 -1.1104 9.53431 4.38583 20.5045
456 1 -1.1104 12.7126 7.30897 17.783
458 1 -1.1104 12.3923 7.21561 20.4435
403 1 -1.1104 9.49294 1.72661 20.3844
8106 2 2.2208 5.55476 -5.25813 21.8706
8768 2 2.2208 -0.193701 14.4734 13.8256
377 2 2.2208 -0.431326 17.0657 16.6048
419 2 2.2208 5.43591 11.4695 16.3913
427 1 -1.1104 1.15342 10.3762 17.7494
430 2 2.2208 5.33072 8.67276 19.2141
433 1 -1.1104 1.13538 10.399 15.0216
441 2 2.2208 2.71324 11.7592 19.2827
444 2 2.2208 2.4774 8.94493 16.4
446 1 -1.1104 4.11132 10.366 17.929
449 1 -1.1104 3.96383 10.0418 14.9698
482 1 -1.1104 1.1461 13.2754 18.113
486 1 -1.1104 1.1065 13.3578 15.4893
502 1 -1.1104 3.98728 13.0521 17.5869
505 1 -1.1104 3.98823 12.8381 15.0706
437 1 -1.1104 6.78233 9.9883 15.131
487 1 -1.1104 1.43372 12.899 20.7966
8854 2 2.2208 -0.177557 14.4457 25.1608
466 1 -1.1104 9.81665 7.27006 18.011
490 1 -1.1104 6.88063 13.0326 14.8162
429 1 -1.1104 6.78427 10.0359 17.8729
484 1 -1.1104 6.81491 13.0897 17.6861
455 2 2.2208 11.1835 11.464 16.6402
460 1 -1.1104 12.3779 10.1385 18.0103
461 2 2.2208 11.0944 8.68091 19.2816
464 1 -1.1104 12.5028 10.1906 15.202
468 2 2.2208 8.27225 11.6147 19.2592
471 2 2.2208 8.33426 8.72059 16.4798
473 1 -1.1104 9.54937 10.0907 18.0548
476 1 -1.1104 9.75791 9.96697 14.9383
518 1 -1.1104 12.5511 13.0213 17.9184
520 1 -1.1104 12.3708 13.0037 15.1815
529 1 -1.1104 9.61116 12.9356 17.9521
532 1 -1.1104 9.63995 12.7741 15.2753
477 1 -1.1104 9.75036 10.1883 20.6573
533 1 -1.1104 9.60554 13.072 20.532
8770 2 2.2208 -0.0209471 5.9779 27.6405
465 1 -1.1104 12.4739 10.2083 20.707
328 2 2.2208 5.453 0.349188 27.5651
572 2 2.2208 -0.314919 11.837 16.4996
509 2 2.2208 2.49309 14.7314 16.658
496 2 2.2208 5.57953 14.2956 19.1469
481 2 2.2208 5.45375 17.0578 16.5412
483 1 -1.1104 0.941611 18.5079 17.9121
488 1 -1.1104 0.817491 18.5887 15.1452
494 1 -1.1104 0.875159 15.7527 18.0826
497 2 2.2208 5.42253 20.047 19.3096
498 1 -1.1104 1.17551 15.9718 15.2024
503 1 -1.1104 3.81691 18.566 17.8739
504 2 2.2208 2.58866 17.1291 19.4506
507 1 -1.1104 3.58085 18.7341 14.9231
510 2 2.2208 2.33048 20.1471 16.4083
511 1 -1.1104 3.92393 15.8754 18.014
512 1 -1.1104 3.92985 15.8129 15.1742
500 1 -1.1104 6.69663 15.7349 15.1088
492 1 -1.1104 6.52325 18.5466 15.1887
495 1 -1.1104 6.92674 15.8965 17.8065
485 1 -1.1104 6.61282 18.7118 17.7775
607 2 2.2208 11.1252 20.0543 25.1352
8812 2 2.2208 -0.32944 17.0353 22.2123
306 2 2.2208 5.33143 17.3071 27.6948
411 2 2.2208 -0.106604 5.82365 16.3948
525 2 2.2208 10.8583 14.5479 19.1303
536 2 2.2208 8.12884 14.2668 16.2914
517 2 2.2208 11.0457 17.1822 16.4985
519 1 -1.1104 12.4179 18.592 17.9639
522 1 -1.1104 12.2926 18.7922 15.154
524 1 -1.1104 12.5213 15.8087 17.7505
526 2 2.2208 10.9732 20.0475 19.2859
527 1 -1.1104 12.378 15.8809 15.124
530 1 -1.1104 9.6021 18.5139 17.8239
531 2 2.2208 8.1199 17.3192 19.2895
534 1 -1.1104 9.29103 18.7766 14.8308
537 2 2.2208 8.03026 19.9347 16.4732
538 1 -1.1104 9.70913 15.74 17.5528
539 1 -1.1104 9.62444 15.5944 14.775
535 1 -1.1104 9.43687 19.0284 20.6529
8815 2 2.2208 -0.0625814 -2.49929 24.7965
523 1 -1.1104 12.2234 18.6971 20.7183
8777 2 2.2208 -0.171206 11.5129 27.6999
348 1 -1.1104 1.05663 -4.08889 20.1922
8105 2 2.2208 2.44202 -5.31999 24.832
8999 2 2.2208 -0.117885 20.0333 19.4868
334 2 2.2208 11.0018 11.7303 27.7573
545 2 2.2208 5.37061 0.209049 21.9985
546 1 -1.1104 1.26045 -3.94004 23.1429
550 1 -1.1104 1.27809 -4.05952 26.1188
554 1 -1.1104 1.01316 -1.16094 23.4817
556 2 2.2208 5.42447 -2.44553 24.7869
558 1 -1.1104 1.31439 -0.951173 26.2131
560 1 -1.1104 3.76616 -3.92211 23.5036
562 2 2.2208 2.49196 0.375189 24.8444
563 1 -1.1104 4.13022 -3.7013 26.2176
565 2 2.2208 2.57447 -2.48468 22.0281
567 1 -1.1104 3.92294 -1.16929 23.3515
568 1 -1.1104 4.13111 -0.895309 26.2476
555 1 -1.1104 6.82081 -1.07031 23.4734
559 1 -1.1104 6.86574 -1.16528 26.3155
548 1 -1.1104 6.8008 -3.99859 23.2941
340 2 2.2208 2.74318 8.781 27.6904
376 2 2.2208 -0.264286 6.07196 22.1463
8817 2 2.2208 -0.330212 -2.52233 19.2292
9006 2 2.2208 -0.0419473 8.64555 24.8309
412 2 2.2208 -0.0756566 8.7225 19.1422
576 2 2.2208 8.25147 14.4608 22.2048
552 1 -1.1104 6.82519 -3.88646 26.1497
581 2 2.2208 10.9489 0.248838 21.945
582 1 -1.1104 12.3129 -4.13717 23.2642
584 1 -1.1104 12.312 -4.0531 26.4678
586 1 -1.1104 12.2222 -1.06411 23.2927
587 2 2.2208 10.9833 -2.5939 24.7466
589 1 -1.1104 12.5374 -1.16738 26.2527
590 1 -1.1104 9.68136 -4.08289 23.2986
592 2 2.2208 8.23351 0.345215 25.0096
593 1 -1.1104 9.7219 -3.88078 26.0733
595 2 2.2208 8.09883 -2.53144 22.1062
597 1 -1.1104 9.43012 -1.36277 23.5124
598 1 -1.1104 9.76771 -1.00067 26.3887
17420 2 2.2208 -0.20316 -5.29967 16.4709
443 1 -1.1104 4.08168 7.18961 20.6582
602 1 -1.1104 12.3948 15.7306 23.4782
448 1 -1.1104 3.98979 4.47072 20.5749
423 1 -1.1104 1.1431 7.37789 20.621
547 1 -1.1104 1.06653 1.7915 23.4455
551 1 -1.1104 1.26168 1.74336 26.2498
557 2 2.2208 5.45503 3.16365 24.7873
561 1 -1.1104 3.92217 1.67427 23.2876
564 1 -1.1104 4.03041 1.66754 26.1193
566 2 2.2208 2.613 3.14246 22.2197
610 2 2.2208 5.46432 5.90035 21.8599
616 1 -1.1104 1.15157 4.59129 23.4878
621 1 -1.1104 1.33124 4.34081 26.2029
625 1 -1.1104 3.96869 7.52698 23.4354
626 2 2.2208 2.59955 6.00352 24.8218
628 1 -1.1104 3.77777 7.40527 26.2968
630 1 -1.1104 3.99352 4.61576 23.3343
632 1 -1.1104 4.09754 4.429 26.0853
612 1 -1.1104 1.35562 7.34775 23.483
615 1 -1.1104 6.83157 7.28126 26.2116
614 1 -1.1104 1.21864 7.47656 26.2294
618 1 -1.1104 6.88007 4.69987 23.4034
339 2 2.2208 5.52853 5.89133 27.5561
436 1 -1.1104 6.73048 4.59404 20.3923
391 1 -1.1104 12.3618 1.65666 20.7105
604 1 -1.1104 9.69699 16.0713 26.2991
8818 2 2.2208 13.5404 20.0467 22.2082
549 1 -1.1104 6.67032 1.95372 23.4158
553 1 -1.1104 6.96832 1.89078 26.2615
613 1 -1.1104 6.80663 7.41013 23.4335
623 1 -1.1104 7.01297 4.47734 26.2371
583 1 -1.1104 12.4042 1.77568 23.525
585 1 -1.1104 12.4732 1.6106 26.3514
588 2 2.2208 10.979 3.07494 24.9467
591 1 -1.1104 9.50518 1.61019 23.3468
594 1 -1.1104 9.62928 1.84957 26.2365
596 2 2.2208 8.15849 2.97805 21.9545
601 1 -1.1104 12.3508 4.48358 26.3582
636 1 -1.1104 12.3683 4.50877 23.3387
642 1 -1.1104 9.7971 4.57898 26.3451
644 1 -1.1104 9.57659 4.47979 23.4811
648 2 2.2208 8.36685 5.9521 24.8512
649 2 2.2208 11.0027 6.08994 21.9729
652 1 -1.1104 12.5725 7.50597 26.2186
646 1 -1.1104 9.71148 7.48113 26.558
599 1 -1.1104 9.65615 7.29665 23.5532
651 1 -1.1104 12.4298 7.47123 23.204
311 2 2.2208 5.5054 3.01734 13.7426
506 1 -1.1104 4.24025 13.0103 20.621
434 1 -1.1104 1.34226 10.3108 20.5396
450 1 -1.1104 4.11796 10.1741 20.7206
580 2 2.2208 -0.277676 3.10963 24.9089
611 2 2.2208 5.35807 11.6423 22.2127
617 1 -1.1104 1.39913 10.1502 23.4567
620 2 2.2208 5.29611 8.76332 24.7892
622 1 -1.1104 1.18854 10.3003 26.2224
627 2 2.2208 2.44752 11.5231 24.8944
629 2 2.2208 2.65477 8.79188 21.9192
631 1 -1.1104 3.98128 10.3498 23.4472
633 1 -1.1104 4.13909 10.1129 26.3398
410 1 -1.1104 3.99802 12.8375 26.4095
452 1 -1.1104 1.13669 13.1726 23.4816
515 1 -1.1104 1.19158 12.9449 26.4215
543 1 -1.1104 4.05313 13.1763 23.5401
478 1 -1.1104 6.73142 13.0569 23.6179
624 1 -1.1104 6.8779 10.1415 26.4517
619 1 -1.1104 6.84831 10.2058 23.6076
8172 2 2.2208 5.34634 -5.21459 16.254
603 2 2.2208 -0.319294 3.04174 19.0001
491 1 -1.1104 6.97815 12.7885 20.7486
409 2 2.2208 10.9968 17.0284 22.0608
521 1 -1.1104 12.3662 13.2447 20.7089
438 1 -1.1104 6.88503 10.2494 20.8502
569 1 -1.1104 6.82753 12.9236 26.4007
640 1 -1.1104 9.64812 13.1213 26.3572
609 1 -1.1104 9.83667 13.0708 23.3722
600 1 -1.1104 12.5318 10.2631 26.244
634 2 2.2208 11.2303 8.7767 25.0375
635 1 -1.1104 12.4585 10.0766 23.6
641 1 -1.1104 9.77122 10.2796 26.3816
643 1 -1.1104 9.52572 10.4408 23.3729
645 2 2.2208 8.2819 9.00988 22.0582
647 2 2.2208 8.17134 11.3771 25.0201
650 2 2.2208 11.0605 11.4697 22.0799
413 1 -1.1104 12.6007 12.8367 23.6035
544 1 -1.1104 12.4172 13.1357 26.2628
577 1 -1.1104 9.53522 18.8025 26.3306
9000 2 2.2208 -0.193586 14.4006 19.5349
493 1 -1.1104 6.8353 18.6072 20.7954
508 1 -1.1104 4.04347 18.6215 20.8539
499 1 -1.1104 1.05473 15.7392 20.9445
513 1 -1.1104 4.02658 15.8508 20.6687
489 1 -1.1104 1.16973 18.7257 20.7315
479 2 2.2208 5.49511 14.3327 25.0078
379 2 2.2208 2.68683 14.5324 22.21
416 2 2.2208 2.63848 17.294 25.1453
415 1 -1.1104 3.95349 15.9767 26.4521
516 1 -1.1104 1.04526 15.7848 26.5039
480 2 2.2208 5.38178 20.0173 24.8651
453 1 -1.1104 1.15049 18.6769 23.4928
451 2 2.2208 5.32139 17.1882 22.0428
417 1 -1.1104 3.82601 18.7286 26.3532
570 1 -1.1104 3.67729 18.5438 23.5542
541 1 -1.1104 0.908791 18.5672 26.3754
380 2 2.2208 2.5683 19.9416 22.0448
382 1 -1.1104 4.1443 15.8326 23.6156
383 1 -1.1104 1.40256 15.8864 23.6882
514 1 -1.1104 6.68098 18.554 23.4302
606 2 2.2208 10.9825 14.2325 24.8581
578 1 -1.1104 12.3537 18.6211 26.3445
638 2 2.2208 8.21877 17.205 24.8632
501 1 -1.1104 6.76724 15.6123 20.4835
540 1 -1.1104 9.53334 15.9075 20.7318
528 1 -1.1104 12.5291 15.9716 20.6566
608 1 -1.1104 12.6351 15.9017 26.5071
542 1 -1.1104 6.74822 15.8188 26.301
639 1 -1.1104 6.73308 18.5108 26.5166
384 1 -1.1104 6.96517 15.9487 23.2711
414 1 -1.1104 12.2497 18.6602 23.5165
375 2 2.2208 8.21248 20.1396 22.2101
335 2 2.2208 8.40529 8.63214 27.7727
9005 2 2.2208 -0.029395 11.6348 22.1911
330 2 2.2208 2.54585 3.00041 27.6552
332 2 2.2208 -0.159414 0.32492 27.4976
8769 2 2.2208 -0.436194 20.0673 13.8646
17338 2 2.2208 13.572 -5.23775 13.6815
314 2 2.2208 11.0602 -2.57262 13.77
329 2 2.2208 2.49712 -2.54706 27.6841
326 2 2.2208 11.0929 14.3326 13.7512
323 2 2.2208 5.16022 19.8972 13.7102
653 2 2.2208 5.37732 22.8649 5.3174
655 1 -1.1104 0.945792 24.3572 0.827122
656 1 -1.1104 0.914543 24.0696 3.93438
657 1 -1.1104 1.18745 21.5381 0.903347
659 2 2.2208 5.24476 25.7547 2.46262
660 1 -1.1104 1.12251 21.433 3.83018
662 1 -1.1104 3.7087 24.3004 1.1056
663 2 2.2208 2.35602 22.8261 2.48905
665 1 -1.1104 3.90988 24.2405 3.92696
666 2 2.2208 2.39833 25.5744 5.20234
667 1 -1.1104 3.89919 21.2838 1.0777
669 1 -1.1104 3.93902 21.3435 3.92629
661 1 -1.1104 1.02609 27.0632 3.72402
658 1 -1.1104 1.00286 26.9146 0.888784
674 1 -1.1104 6.70757 24.1611 1.04727
668 1 -1.1104 3.81303 27.0838 0.887827
794 1 -1.1104 1.16424 24.3913 6.57152
801 1 -1.1104 4.05863 21.2961 6.65549
678 1 -1.1104 6.62089 21.4759 4.28258
670 1 -1.1104 3.82482 27.0366 3.63967
679 1 -1.1104 6.72033 26.9274 3.9812
797 1 -1.1104 1.13281 27.1359 6.53928
796 1 -1.1104 1.08868 21.409 6.57079
800 1 -1.1104 3.95866 24.1198 6.84522
802 1 -1.1104 4.06828 27.1386 6.66324
799 1 -1.1104 6.55389 27.1092 6.62214
9433 2 2.2208 -0.307347 39.8269 10.9436
9296 2 2.2208 -0.318048 28.4243 11.0205
676 1 -1.1104 6.54314 21.3567 1.25307
675 1 -1.1104 6.63542 24.1982 3.65395
680 2 2.2208 10.7801 22.7687 5.42284
682 1 -1.1104 12.3984 24.3053 1.11918
683 1 -1.1104 12.3564 24.1752 3.8557
684 1 -1.1104 12.3033 21.4399 0.997026
686 2 2.2208 10.9233 25.6763 2.41229
687 1 -1.1104 12.3199 21.379 3.85431
689 1 -1.1104 9.57682 24.4011 1.082
690 2 2.2208 8.12402 22.8761 2.58878
692 1 -1.1104 9.59733 24.1022 3.84653
693 2 2.2208 8.20462 25.6311 5.16855
694 1 -1.1104 9.53883 21.5601 1.16146
696 1 -1.1104 9.32529 21.2855 3.74582
697 1 -1.1104 9.58429 27.0019 3.75402
695 1 -1.1104 9.30298 27.1469 0.837759
831 1 -1.1104 9.50363 21.4802 6.79072
830 1 -1.1104 9.55205 24.3707 6.69552
960 2 2.2208 8.05971 28.5121 13.5542
827 1 -1.1104 12.4782 24.1621 6.4853
685 1 -1.1104 12.1884 27.0519 1.03965
688 1 -1.1104 12.3599 26.7931 3.87192
9386 2 2.2208 13.7699 45.2497 8.064
984 2 2.2208 8.06395 25.6426 -0.312325
677 1 -1.1104 6.55942 27.127 1.15875
654 2 2.2208 5.50606 28.4882 5.24317
664 2 2.2208 2.4995 28.4874 2.27529
702 1 -1.1104 1.11359 29.9117 0.973358
705 1 -1.1104 1.09479 29.9278 3.65503
708 1 -1.1104 1.24814 32.5948 0.851758
709 2 2.2208 5.23498 31.2892 2.47245
711 1 -1.1104 1.09855 32.6941 3.73727
713 1 -1.1104 4.09102 29.7866 1.00461
716 1 -1.1104 3.97378 29.7855 3.55399
718 2 2.2208 2.55572 31.1858 5.08775
720 1 -1.1104 3.96463 32.6088 1.01996
721 1 -1.1104 3.92169 32.6365 3.65069
725 1 -1.1104 6.67537 29.8978 0.880119
712 1 -1.1104 6.71244 32.5286 3.80865
9435 2 2.2208 -0.301359 45.3704 -0.302499
856 1 -1.1104 6.67862 32.7038 6.75108
859 1 -1.1104 3.82096 32.8541 6.45793
857 1 -1.1104 3.86889 29.9824 6.47393
853 1 -1.1104 6.70824 29.9994 6.38385
855 1 -1.1104 1.11621 32.4667 6.75568
851 1 -1.1104 0.98991 29.783 6.75574
954 2 2.2208 -0.329926 22.6415 10.6913
962 2 2.2208 10.8899 45.3507 -0.416611
727 1 -1.1104 6.82804 32.7654 0.909281
726 1 -1.1104 6.81959 29.6935 3.68052
681 2 2.2208 10.9456 28.5203 5.25182
691 2 2.2208 8.08888 28.4657 2.27628
729 1 -1.1104 12.261 30.0529 0.821599
731 1 -1.1104 12.3293 29.8105 3.82166
733 1 -1.1104 12.4964 32.7942 1.14158
734 2 2.2208 10.7721 31.3214 2.33368
736 1 -1.1104 12.2378 32.6921 3.84118
737 1 -1.1104 9.55989 29.7609 1.01624
740 1 -1.1104 9.51363 29.879 3.91961
742 2 2.2208 8.10107 31.1532 5.15694
744 1 -1.1104 9.60976 32.6724 0.914431
745 1 -1.1104 9.22999 32.7199 3.68074
888 1 -1.1104 9.68408 29.82 6.71048
9439 2 2.2208 13.6811 31.3738 -0.363906
701 2 2.2208 5.17837 34.0936 5.18775
703 1 -1.1104 0.960348 35.5683 1.11753
706 1 -1.1104 1.18216 35.3596 4.13833
710 2 2.2208 4.93803 36.8968 2.55079
714 1 -1.1104 3.63578 35.3686 0.835583