ITEM: TIMESTEP
30000
ITEM: NUMBER OF ATOMS
17700
ITEM: BOX BOUNDS pp pp pp
-4.4146603638849974e-01 2.7781466036388878e+01
-5.2864676226066249e+00 3.3336646762260006e+02
-4.3352931388664195e-01 2.7773529313886488e+01
ITEM: ATOMS id type q x y z
1 2 2.2208 5.55427 0.420579 5.11911
2 1 -1.1104 1.06169 -3.94859 0.991118
6 1 -1.1104 1.061 -3.94989 3.62334
10 1 -1.1104 1.21861 -1.03632 0.904198
12 2 2.2208 5.73558 -2.40253 2.27351
14 1 -1.1104 1.5654 -0.90326 3.89852
16 1 -1.1104 4.00664 -3.97985 0.836978
18 2 2.2208 2.8429 0.215808 2.03664
19 1 -1.1104 3.67549 -3.7303 3.88754
21 2 2.2208 2.63255 -2.3288 5.21788
23 1 -1.1104 4.28154 -1.19137 0.657825
24 1 -1.1104 4.23936 -0.973255 3.53069
170 1 -1.1104 1.16812 -0.869545 6.72157
8022 2 2.2208 8.61069 -5.12744 7.82836
8724 2 2.2208 0.0300311 0.632388 5.18408
8733 2 2.2208 -0.159915 8.97491 2.52642
8016 2 2.2208 5.56297 -5.12339 5.13136
25 2 2.2208 -0.154541 -2.48339 2.30074
81 2 2.2208 11.3628 14.7101 8.0897
15 1 -1.1104 7.03666 -0.941846 3.67982
11 1 -1.1104 6.97107 -0.850404 1.08389
8 1 -1.1104 6.90725 -3.63568 3.76374
4 1 -1.1104 6.90711 -3.68255 0.823934
31 2 2.2208 11.3459 0.415446 5.20592
32 1 -1.1104 12.602 -3.56497 0.91333
34 1 -1.1104 12.7544 -3.63879 3.61127
36 1 -1.1104 12.572 -0.852267 0.936647
37 2 2.2208 11.2714 -2.26756 2.34278
39 1 -1.1104 12.7049 -0.921427 3.89374
40 1 -1.1104 9.70795 -3.93382 0.789414
42 2 2.2208 8.48321 0.506253 2.27369
43 1 -1.1104 9.68765 -3.625 3.4656
45 2 2.2208 8.47135 -2.29053 5.23106
47 1 -1.1104 9.64158 -0.948138 0.765329
48 1 -1.1104 9.85328 -0.899947 3.65675
210 1 -1.1104 9.79855 -1.00696 6.56461
207 1 -1.1104 12.4797 -1.17227 6.68188
168 1 -1.1104 7.19459 -3.69557 6.64455
8036 2 2.2208 2.82245 -5.28654 13.6691
50 1 -1.1104 12.5846 19.0081 9.53522
3 1 -1.1104 1.3787 1.76137 0.617163
7 1 -1.1104 1.30679 2.12517 3.72421
13 2 2.2208 5.49676 3.23445 2.23613
17 1 -1.1104 4.12819 1.90886 1.01104
20 1 -1.1104 4.09592 1.70119 3.60356
22 2 2.2208 2.5658 3.29301 5.02966
54 2 2.2208 5.59285 6.03929 5.27188
56 1 -1.1104 1.1833 7.62759 0.89652
58 1 -1.1104 1.4653 7.60367 3.72291
60 1 -1.1104 1.256 4.79825 0.985537
67 1 -1.1104 1.30489 4.84521 3.67563
71 1 -1.1104 4.31519 7.5046 0.905916
72 2 2.2208 2.86526 6.24681 2.37255
74 1 -1.1104 4.35716 7.46357 3.59816
76 1 -1.1104 4.2151 4.76768 0.996208
79 1 -1.1104 4.19096 4.71127 3.90287
5 1 -1.1104 7.13477 1.87131 0.593074
239 1 -1.1104 3.93105 4.6227 6.50451
238 1 -1.1104 4.48732 7.69293 6.4523
69 1 -1.1104 7.15692 4.91728 3.89401
8732 2 2.2208 -0.159276 6.20738 5.05258
53 1 -1.1104 12.5908 16.0003 12.252
234 1 -1.1104 1.34578 7.6615 6.52427
135 2 2.2208 8.21261 17.3385 8.09128
8727 2 2.2208 -0.0492224 3.17922 2.2972
57 1 -1.1104 6.95652 7.30948 0.993543
59 1 -1.1104 6.94562 7.61639 3.80544
9 1 -1.1104 6.84341 2.01319 3.66357
169 1 -1.1104 6.85972 1.77912 6.53854
235 1 -1.1104 7.21543 7.39267 6.56867
63 1 -1.1104 7.0861 4.39075 1.04156
33 1 -1.1104 12.7025 1.83447 0.807023
35 1 -1.1104 12.5175 2.00217 3.55372
38 2 2.2208 11.2163 3.33181 2.162
41 1 -1.1104 9.88351 1.95867 0.965812
44 1 -1.1104 9.6568 1.82433 3.76678
46 2 2.2208 8.43044 3.3894 5.18116
84 2 2.2208 11.2942 5.97487 5.06488
86 1 -1.1104 12.7277 7.464 0.824163
88 1 -1.1104 12.8111 4.81543 1.05691
92 1 -1.1104 12.6783 4.597 3.68664
94 1 -1.1104 9.72948 7.47137 0.640383
95 2 2.2208 8.34331 6.05303 2.24692
97 1 -1.1104 9.71652 7.26269 3.70291
99 1 -1.1104 9.82057 4.86301 0.609209
102 1 -1.1104 10.1521 4.57232 3.81771
269 1 -1.1104 9.76125 4.48297 6.60121
266 1 -1.1104 12.6724 4.72906 6.57155
206 1 -1.1104 12.7686 1.7461 6.37643
237 1 -1.1104 6.88006 4.59594 6.8099
229 1 -1.1104 9.58227 16.199 12.3749
55 2 2.2208 5.70685 11.7721 5.19846
61 1 -1.1104 1.23202 10.4204 1.16667
66 2 2.2208 5.78725 9.00495 2.43621
68 1 -1.1104 1.41653 10.3203 3.85478
73 2 2.2208 2.88343 11.817 2.41638
75 2 2.2208 2.95476 8.78675 5.23746
77 1 -1.1104 4.29898 10.354 0.995409
80 1 -1.1104 4.24926 10.3636 3.82694
107 1 -1.1104 1.42327 13.1163 0.979598
113 1 -1.1104 1.49277 13.3154 3.68811
123 1 -1.1104 4.14458 13.0928 0.853488
128 1 -1.1104 4.42222 13.1333 3.78006
124 1 -1.1104 4.17688 12.9925 6.66735
108 1 -1.1104 0.988566 13.2187 6.88732
8734 2 2.2208 0.0592282 11.7214 5.24121
306 2 2.2208 5.60983 17.3511 -0.381745
78 1 -1.1104 4.18065 10.239 6.70386
62 1 -1.1104 1.31711 10.5199 6.53061
87 1 -1.1104 12.7085 7.30186 3.4072
70 1 -1.1104 6.95806 10.5858 3.74937
110 1 -1.1104 7.03754 13.3427 0.803425
115 1 -1.1104 7.21152 13.1802 3.65393
111 1 -1.1104 6.96403 13.2359 6.48862
64 1 -1.1104 7.10786 10.4808 0.851171
85 2 2.2208 11.2038 11.7866 5.22321
89 1 -1.1104 12.8718 10.2439 0.818454
91 2 2.2208 11.3232 8.64674 2.27109
93 1 -1.1104 12.6209 10.3467 3.66503
96 2 2.2208 8.37202 11.8929 2.17929
98 2 2.2208 8.45136 8.96108 5.13165
100 1 -1.1104 9.71226 10.3671 0.815731
103 1 -1.1104 9.69963 10.3429 3.60587
142 1 -1.1104 12.5878 13.25 1.15762
146 1 -1.1104 12.7097 13.2322 4.12129
153 1 -1.1104 9.84667 13.2447 0.993578
158 1 -1.1104 9.80928 13.6293 3.8611
101 1 -1.1104 10.0028 10.3672 6.51336
65 1 -1.1104 7.05206 10.3862 6.55027
90 1 -1.1104 12.8396 10.3405 6.59875
154 1 -1.1104 9.69064 13.2591 6.56447
136 2 2.2208 -0.212625 20.2376 2.44618
119 2 2.2208 5.46817 14.6313 2.3115
130 2 2.2208 2.593 14.5961 5.26068
106 2 2.2208 5.55184 17.5566 5.23683
109 1 -1.1104 1.38423 18.84 0.920207
114 1 -1.1104 1.50002 18.9601 3.83379
116 1 -1.1104 1.47145 15.6081 1.0314
120 2 2.2208 5.52097 20.2763 2.35191
121 1 -1.1104 1.24414 16.0804 3.75413
125 1 -1.1104 4.26835 18.712 0.9473
127 2 2.2208 2.75848 17.3403 2.31704
129 1 -1.1104 4.24921 18.7679 3.86985
131 2 2.2208 2.60796 20.3045 5.23465
132 1 -1.1104 4.18784 15.8233 0.892559
134 1 -1.1104 4.03535 16.0082 3.86216
302 1 -1.1104 1.34736 18.6877 6.60355
133 1 -1.1104 4.01294 15.7547 6.98792
126 1 -1.1104 4.04139 18.77 6.70797
8728 2 2.2208 -0.126414 17.2444 5.28515
8731 2 2.2208 -0.0854747 14.4974 2.3388
8030 2 2.2208 5.68256 -5.35804 -0.49082
201 2 2.2208 0.125805 0.447159 10.9639
150 2 2.2208 11.2769 14.6604 2.30867
138 1 -1.1104 6.85808 18.759 0.991693
139 1 -1.1104 6.99603 18.8537 3.77131
112 1 -1.1104 6.90228 18.8714 6.59141
140 1 -1.1104 6.88452 16.032 1.0409
122 1 -1.1104 6.76278 15.9547 3.85796
160 2 2.2208 8.34555 14.6971 5.15269
141 2 2.2208 11.0136 17.441 5.3532
144 1 -1.1104 12.5263 18.6258 1.03188
147 1 -1.1104 12.6574 18.9368 3.96668
148 1 -1.1104 12.6288 16.0699 0.81733
151 2 2.2208 10.9053 20.3134 2.32806
152 1 -1.1104 12.94 15.9866 3.69243
155 1 -1.1104 9.67661 18.6756 0.865019
157 2 2.2208 8.28352 17.41 2.41495
159 1 -1.1104 9.87127 19.0439 3.98895
161 2 2.2208 8.12572 20.2634 5.31497
162 1 -1.1104 9.54076 16.0658 1.11971
164 1 -1.1104 9.71139 16.2047 3.87797
163 1 -1.1104 9.65154 16.0128 6.63163
156 1 -1.1104 9.52856 18.8105 6.71629
149 1 -1.1104 12.5817 16.0961 6.75023
118 1 -1.1104 6.85118 15.9958 6.47024
166 1 -1.1104 1.73374 -3.85214 6.56709
174 1 -1.1104 3.89004 -0.939586 6.36156
8588 2 2.2208 0.0128615 -2.36956 8.09095
172 1 -1.1104 4.3193 -3.71044 6.52327
175 2 2.2208 5.51146 0.425334 10.6835
176 1 -1.1104 1.20161 -3.92281 12.156
180 1 -1.1104 1.46634 -3.74853 9.44025
184 1 -1.1104 1.27376 -1.02303 12.3788
186 2 2.2208 5.79614 -2.49942 7.96571
188 1 -1.1104 1.49388 -0.968324 9.64268
190 1 -1.1104 4.18904 -3.96101 12.3578
192 2 2.2208 2.87585 0.411988 8.12466
193 1 -1.1104 4.36903 -3.8417 9.45094
195 2 2.2208 3.00236 -2.49785 10.9748
197 1 -1.1104 4.15437 -0.986043 12.2139
198 1 -1.1104 4.34225 -1.11552 9.3815
182 1 -1.1104 7.36415 -3.88928 9.54991
185 1 -1.1104 6.97472 -0.804174 12.0987
8454 2 2.2208 -0.113161 14.6233 8.03391
8023 2 2.2208 11.2502 -5.07463 10.8392
205 1 -1.1104 12.7715 -3.84112 6.47793
208 1 -1.1104 9.79054 -3.83511 6.3039
8768 2 2.2208 -0.132419 14.7703 13.6411
230 1 -1.1104 9.69656 16.0264 9.37388
171 1 -1.1104 7.03122 -1.01405 6.70338
178 1 -1.1104 6.98798 -3.90908 12.1251
189 1 -1.1104 7.03752 -1.10121 9.35155
211 2 2.2208 11.171 0.64292 10.8802
212 1 -1.1104 12.6844 -3.62923 12.0719
214 1 -1.1104 12.6092 -3.80655 9.3879
216 1 -1.1104 12.5601 -0.907989 12.459
217 2 2.2208 11.1573 -2.34119 7.99388
219 1 -1.1104 12.4706 -0.925954 9.56382
220 1 -1.1104 9.73243 -3.76815 12.0302
222 2 2.2208 8.3445 0.485208 7.88038
223 1 -1.1104 9.89668 -3.78103 9.07299
225 2 2.2208 8.47049 -2.37677 10.8295
227 1 -1.1104 9.77445 -0.778117 12.1463
228 1 -1.1104 9.7722 -0.969915 9.28442
313 2 2.2208 8.09595 0.489643 13.5072
8015 2 2.2208 2.64088 -5.20302 2.40068
8019 2 2.2208 2.88796 -5.28085 8.09946
309 2 2.2208 5.54886 -2.45506 13.5091
236 1 -1.1104 1.13313 4.70193 6.50347
167 1 -1.1104 1.40333 1.90504 6.55527
173 1 -1.1104 4.17568 2.06802 6.4969
177 1 -1.1104 1.3756 2.24277 12.3292
181 1 -1.1104 1.23526 1.82269 9.41097
187 2 2.2208 5.4045 3.24996 7.97403
191 1 -1.1104 4.09211 1.88985 12.282
194 1 -1.1104 4.17941 1.80443 9.35465
196 2 2.2208 2.60025 3.37582 10.6821
240 2 2.2208 5.49317 6.13452 10.775
242 1 -1.1104 1.13937 7.3629 12.1564
246 1 -1.1104 0.999535 4.88827 12.0494
251 1 -1.1104 1.19442 4.85898 9.31678
256 2 2.2208 2.68367 6.20751 8.01374
260 1 -1.1104 3.75037 4.73058 12.2158
262 1 -1.1104 3.98941 4.72223 9.42452
255 1 -1.1104 3.99805 7.49597 12.3465
258 1 -1.1104 3.98261 7.49377 9.3719
244 1 -1.1104 1.24371 7.67982 9.11828
28 2 2.2208 -0.173794 6.27268 10.6074
145 1 -1.1104 12.5482 18.8946 6.82668
8622 2 2.2208 -0.104658 3.42086 7.88189
326 2 2.2208 11.2159 14.6151 13.6276
8018 2 2.2208 11.2492 -5.09133 4.98919
209 1 -1.1104 9.89152 1.81572 6.62673
183 1 -1.1104 7.02736 1.83158 9.27176
248 1 -1.1104 6.68795 4.76005 12.3643
245 1 -1.1104 6.95517 7.56422 9.27966
179 1 -1.1104 6.75958 1.926 12.0204
243 1 -1.1104 6.62567 7.4568 12.0613
253 1 -1.1104 6.61141 4.56808 9.46694
267 1 -1.1104 9.88022 7.44424 6.43916
265 1 -1.1104 12.5478 7.47062 6.58463
213 1 -1.1104 12.6315 1.86084 12.2652
215 1 -1.1104 12.5437 1.92223 9.26561
218 2 2.2208 11.2207 3.21373 7.83905
221 1 -1.1104 9.76502 1.85565 12.3343
224 1 -1.1104 9.82154 1.83444 9.40772
226 2 2.2208 8.33093 3.2345 10.811
268 1 -1.1104 9.62131 4.55001 9.37274
271 1 -1.1104 9.94765 4.64005 12.2193
275 2 2.2208 8.61831 6.13184 7.78775
276 2 2.2208 11.1923 6.1115 10.9007
279 1 -1.1104 12.6149 7.63313 9.30927
280 1 -1.1104 12.7259 4.70473 12.1068
283 1 -1.1104 12.549 4.75264 9.4061
285 1 -1.1104 9.59642 7.62058 12.1964
278 1 -1.1104 12.5418 7.61709 12.1878
273 1 -1.1104 9.83424 7.38903 9.32286
310 2 2.2208 2.60486 0.445537 13.6429
8656 2 2.2208 -0.0200945 9.12139 7.89743
29 2 2.2208 -0.343328 11.7917 10.8027
241 2 2.2208 5.60302 11.6396 10.7758
247 1 -1.1104 1.29688 10.3745 12.3076
250 2 2.2208 5.74015 9.01564 7.98324
252 1 -1.1104 1.34084 10.4361 9.50604
257 2 2.2208 2.69247 11.637 8.05737
259 2 2.2208 2.58265 8.72338 10.8484
261 1 -1.1104 3.97583 10.2973 12.3153
263 1 -1.1104 4.23807 10.3433 9.43077
204 1 -1.1104 4.05148 12.9898 9.48477
287 1 -1.1104 4.22168 13.3209 12.1665
294 1 -1.1104 1.11937 13.2654 9.71154
299 1 -1.1104 1.22893 13.2452 12.2712
339 2 2.2208 5.50833 6.14134 -0.451273
143 1 -1.1104 12.5075 13.0498 6.73028
254 1 -1.1104 7.05717 10.4979 9.12825
249 1 -1.1104 6.75654 9.96322 11.98
290 1 -1.1104 6.93123 13.2419 9.4341
297 1 -1.1104 7.0045 12.9641 12.1852
137 1 -1.1104 9.66708 13.1115 9.24697
264 1 -1.1104 9.95559 10.2311 9.42408
270 1 -1.1104 9.42509 10.5826 11.9987
272 2 2.2208 8.46528 9.03226 10.659
274 2 2.2208 8.361 11.8928 7.90329
277 2 2.2208 10.9895 11.8314 10.6073
281 1 -1.1104 12.2462 10.3846 12.1953
282 2 2.2208 11.3353 8.8316 7.89171
284 1 -1.1104 12.7432 10.5072 9.4851
104 1 -1.1104 9.80551 13.431 12.1333
27 1 -1.1104 12.5893 13.3125 12.269
49 1 -1.1104 12.6295 13.0723 9.58682
330 2 2.2208 2.7273 3.38901 -0.504679
117 1 -1.1104 1.32451 16.0106 6.66395
316 2 2.2208 2.67076 6.05003 13.7002
233 2 2.2208 2.60732 14.56 10.8945
8017 2 2.2208 8.32832 -5.18614 2.24283
295 2 2.2208 5.50132 14.4192 8.0488
300 2 2.2208 5.37643 17.3547 11.0329
301 1 -1.1104 4.00346 18.896 9.70894
51 2 2.2208 2.57151 20.3 10.978
52 1 -1.1104 3.94972 16.0961 12.403
202 1 -1.1104 1.31782 15.9765 12.4044
231 1 -1.1104 4.1044 15.9445 9.63348
232 2 2.2208 2.55815 17.3849 8.19227
286 1 -1.1104 3.99366 18.8448 12.5174
291 1 -1.1104 1.26756 18.891 9.46605
292 1 -1.1104 1.07462 16.1563 9.48265
293 2 2.2208 5.36196 20.1261 8.32807
298 1 -1.1104 1.15312 18.8959 12.3869
165 1 -1.1104 9.71126 18.7231 9.46783
8428 2 2.2208 -0.190506 20.2681 8.0409
8429 2 2.2208 -0.124398 17.4546 10.9449
8777 2 2.2208 -0.00214737 11.6941 -0.418401
82 2 2.2208 11.0421 20.2039 8.11581
327 2 2.2208 8.38138 17.4873 13.7279
200 2 2.2208 8.25365 20.1759 10.7848
26 2 2.2208 11.0983 17.4493 10.809
319 2 2.2208 8.33278 6.06456 13.3757
105 1 -1.1104 9.83102 18.9226 12.1241
83 1 -1.1104 12.5493 16.1384 9.41365
30 1 -1.1104 12.605 18.7927 12.1632
203 1 -1.1104 6.75124 16.0292 11.9442
296 1 -1.1104 6.82468 18.8546 12.4937
289 1 -1.1104 6.80932 16.0529 9.49275
288 1 -1.1104 6.7557 18.8042 9.54893
199 2 2.2208 8.29835 14.5722 10.9372
311 2 2.2208 5.52735 3.18577 13.6362
321 2 2.2208 8.23015 11.6309 13.61
320 2 2.2208 11.0231 8.96981 13.626
8033 2 2.2208 8.40785 -5.39478 13.6507
8742 2 2.2208 -0.15036 -2.53026 13.4644
331 2 2.2208 -0.187485 3.22853 13.5282
307 2 2.2208 2.74631 20.1722 -0.382238
8744 2 2.2208 -0.0815195 17.4917 -0.469172
334 2 2.2208 11.2911 11.7005 -0.20476
340 2 2.2208 2.7043 8.92747 -0.27737
341 2 2.2208 5.72059 11.7988 -0.38833
324 2 2.2208 5.53092 14.7246 13.4912
314 2 2.2208 11.0616 -2.21924 13.4407
304 2 2.2208 11.0823 17.3577 -0.380608
308 2 2.2208 8.25765 20.2149 -0.370403
315 2 2.2208 11.3514 3.2691 13.5939
317 2 2.2208 5.38258 8.77905 13.5701
342 2 2.2208 5.59678 0.63283 16.3865
343 1 -1.1104 1.15212 -3.63586 18.0657
347 1 -1.1104 1.48671 -3.82839 15.0908
355 1 -1.1104 1.36171 -0.765609 17.6151
357 2 2.2208 5.31806 -2.29241 19.2442
359 1 -1.1104 1.29202 -0.985794 14.9489
363 1 -1.1104 4.11325 -3.91886 17.7479
365 2 2.2208 2.5636 0.609519 19.0588
366 1 -1.1104 4.41274 -3.94128 14.902
370 2 2.2208 2.90869 -2.2314 16.4778
372 1 -1.1104 4.18929 -1.00382 17.9145
373 1 -1.1104 4.19939 -1.12432 14.8587
348 1 -1.1104 1.3131 -3.76041 20.8296
360 1 -1.1104 1.25917 -0.801979 20.3218
374 1 -1.1104 3.79117 -0.932257 20.9198
8817 2 2.2208 -0.117276 -2.16388 19.1285
378 2 2.2208 -0.203814 0.466108 16.2411
8172 2 2.2208 5.51905 -5.12563 16.4864
336 2 2.2208 11.3634 6.19093 27.6449
8143 2 2.2208 11.22 -5.18757 16.2643
356 1 -1.1104 6.96825 -0.837027 17.5693
361 1 -1.1104 6.83188 -1.12661 14.9505
345 1 -1.1104 6.82723 -3.81588 17.9444
351 1 -1.1104 7.07605 -3.76695 15.0838
362 1 -1.1104 6.77335 -0.713373 20.3683
385 2 2.2208 11.1685 0.421086 16.2991
386 1 -1.1104 12.5445 -3.9505 17.8474
388 1 -1.1104 12.6008 -3.69078 14.8526
392 1 -1.1104 12.5431 -1.01859 17.9034
393 2 2.2208 11.1284 -2.25154 19.0793
395 1 -1.1104 12.5467 -0.898487 15.1037
397 1 -1.1104 9.77472 -3.37046 17.7244
399 2 2.2208 8.36609 0.794325 19.1981
400 1 -1.1104 9.94942 -3.82812 14.8838
404 2 2.2208 8.11445 -2.24898 16.3221
406 1 -1.1104 9.79484 -0.724267 17.6649
407 1 -1.1104 9.62741 -0.911523 14.8649
396 1 -1.1104 12.4583 -1.11089 20.6615
389 1 -1.1104 12.8054 -3.82218 20.6858
408 1 -1.1104 9.48928 -0.801314 20.5582
8106 2 2.2208 5.51236 -5.117 21.9954
401 1 -1.1104 9.83686 -3.6068 20.6532
337 2 2.2208 8.40737 -2.42815 27.6468
344 1 -1.1104 1.18175 1.86185 17.7713
349 1 -1.1104 1.27348 1.84082 14.9909
358 2 2.2208 5.43508 3.36498 19.1567
364 1 -1.1104 4.01162 2.1172 17.8817
368 1 -1.1104 4.15315 1.71559 14.9214
371 2 2.2208 2.65276 3.33499 16.4541
418 2 2.2208 5.42452 6.16548 16.4615
420 1 -1.1104 1.46203 7.35861 17.948
426 1 -1.1104 1.16708 4.44323 17.669
431 1 -1.1104 1.23698 4.56828 14.9757
440 2 2.2208 2.84437 6.18336 19.4817
442 1 -1.1104 4.05308 7.43523 15.2325
445 1 -1.1104 4.10643 5.04281 17.8757
447 1 -1.1104 4.09907 4.61503 15.0637
439 1 -1.1104 3.95391 7.80617 18.3252
422 1 -1.1104 1.21077 7.5291 15.0954
425 1 -1.1104 7.04193 7.3197 20.8552
369 1 -1.1104 4.24856 1.90037 20.6331
423 1 -1.1104 1.1773 7.72563 20.7469
603 2 2.2208 -0.143442 3.16111 19.1619
8171 2 2.2208 2.4998 -5.22717 19.3286
411 2 2.2208 -0.113045 6.23169 16.6216
353 1 -1.1104 6.92109 2.02085 15.1258
435 1 -1.1104 6.79565 4.72444 15.0823
421 1 -1.1104 6.70852 7.55529 17.71
428 1 -1.1104 6.77173 4.65819 17.9612
424 1 -1.1104 6.66705 7.40293 14.8337
346 1 -1.1104 6.85279 2.02848 17.7754
436 1 -1.1104 6.86851 4.62415 20.711
387 1 -1.1104 12.5776 1.78693 17.7802
390 1 -1.1104 12.9207 1.97417 14.9999
394 2 2.2208 11.1327 3.40264 19.1578
398 1 -1.1104 9.70355 1.9327 17.7442
402 1 -1.1104 9.96395 1.72781 14.8693
405 2 2.2208 8.29178 3.3378 16.5297
454 2 2.2208 11.0326 6.21819 16.3198
457 1 -1.1104 12.78 7.67127 15.0356
459 1 -1.1104 12.5979 4.66417 17.7016
462 1 -1.1104 12.4152 4.88482 14.8389
467 2 2.2208 8.30735 6.18137 19.2661
472 1 -1.1104 9.67685 4.74613 17.864
474 1 -1.1104 9.83952 4.58162 15.0025
466 1 -1.1104 9.52497 7.57438 17.6373
456 1 -1.1104 12.5068 7.38933 17.9115
469 1 -1.1104 9.7834 7.3911 14.7908
475 1 -1.1104 9.86842 4.77667 20.4553
470 1 -1.1104 9.79116 7.49866 20.4772
354 1 -1.1104 6.97661 1.82942 20.7462
463 1 -1.1104 12.7912 4.68791 20.609
403 1 -1.1104 9.95689 1.8703 20.4809
412 2 2.2208 -0.0701988 8.89512 19.1325
419 2 2.2208 5.38756 11.8097 16.2222
427 1 -1.1104 1.29979 10.1907 17.8033
430 2 2.2208 5.57829 9.12283 19.1448
433 1 -1.1104 1.13115 10.3698 15.0942
441 2 2.2208 2.82338 11.8011 19.2234
444 2 2.2208 2.57555 9.0321 16.5942
446 1 -1.1104 3.88564 10.6064 17.7581
449 1 -1.1104 3.80076 10.5126 15.0738
482 1 -1.1104 1.15412 13.0682 18.0265
486 1 -1.1104 1.1379 13.2429 15.0945
502 1 -1.1104 3.82102 13.3348 17.805
505 1 -1.1104 3.96977 13.2677 14.974
506 1 -1.1104 4.24986 13.2506 20.7045
487 1 -1.1104 1.3668 13.451 20.8348
450 1 -1.1104 4.32652 10.5418 20.5309
318 2 2.2208 2.45402 11.7688 13.6765
434 1 -1.1104 1.34191 10.6204 20.6937
572 2 2.2208 -0.186267 11.7419 16.5206
322 2 2.2208 2.6819 17.4773 13.8934
429 1 -1.1104 6.87299 10.4538 17.6405
484 1 -1.1104 6.74436 13.3746 18.0864
437 1 -1.1104 6.63221 10.2633 14.7528
438 1 -1.1104 7.2104 10.2845 20.5043
491 1 -1.1104 7.07886 13.2432 20.9414
490 1 -1.1104 6.97619 13.0183 15.1154
455 2 2.2208 11.0551 11.7288 16.6565
460 1 -1.1104 12.3036 10.1706 17.7705
461 2 2.2208 11.0862 8.72727 19.2761
464 1 -1.1104 12.4155 10.3453 14.9726
468 2 2.2208 8.53169 11.758 19.3409
471 2 2.2208 8.18693 9.02127 16.4629
473 1 -1.1104 9.47845 10.3286 17.8585
476 1 -1.1104 9.63949 10.175 15.0834
518 1 -1.1104 12.3428 12.947 18.0248
520 1 -1.1104 12.4318 13.112 15.1297
529 1 -1.1104 9.51173 13.2919 17.8593
532 1 -1.1104 9.50485 12.8582 15.1441
477 1 -1.1104 10.0778 10.5134 20.8361
533 1 -1.1104 9.79555 13.2449 20.69
465 1 -1.1104 13.0086 10.3693 20.6779
639 1 -1.1104 6.90828 18.8835 26.3119
332 2 2.2208 -0.191181 0.26264 27.6858
9000 2 2.2208 -0.175321 14.5293 19.3449
8999 2 2.2208 -0.293555 20.2988 19.4453
377 2 2.2208 -0.0793017 17.4942 16.5846
509 2 2.2208 2.45325 14.5547 16.4033
496 2 2.2208 5.47979 14.7613 19.3324
481 2 2.2208 5.40333 17.5338 16.655
483 1 -1.1104 1.21154 18.9652 18.0551
488 1 -1.1104 1.31644 18.8082 15.2329
494 1 -1.1104 1.14885 16.0594 17.8529
497 2 2.2208 5.39063 20.5229 19.3709
498 1 -1.1104 1.20915 16.1382 15.1378
503 1 -1.1104 3.98402 19.0823 18.0022
504 2 2.2208 2.76208 17.7763 19.4889
507 1 -1.1104 4.03811 18.9208 15.1871
510 2 2.2208 2.62183 20.2939 16.5042
511 1 -1.1104 3.94954 16.2148 18.1808
512 1 -1.1104 4.00062 16.0703 15.5632
499 1 -1.1104 1.19353 16.2557 20.8317
513 1 -1.1104 3.8579 16.249 20.8563
508 1 -1.1104 4.07701 19.0925 20.8499
523 1 -1.1104 12.5789 18.9141 20.3716
485 1 -1.1104 6.79699 18.8855 17.9378
500 1 -1.1104 6.81041 15.9721 15.0903
492 1 -1.1104 6.92975 18.5455 15.2535
493 1 -1.1104 6.97761 18.9063 20.7032
501 1 -1.1104 6.72632 16.1726 20.8054
495 1 -1.1104 7.03978 16.0537 17.8299
536 2 2.2208 8.20531 14.467 16.3694
525 2 2.2208 11.0469 14.7362 19.2226
517 2 2.2208 11.3016 17.3696 16.3932
519 1 -1.1104 12.4967 18.7652 17.8654
522 1 -1.1104 12.5596 18.8693 15.0039
524 1 -1.1104 12.5772 15.919 17.6573
526 2 2.2208 11.0671 20.2289 19.1891
527 1 -1.1104 12.6455 16.019 14.8416
530 1 -1.1104 9.80904 18.8475 17.8373
531 2 2.2208 8.35441 17.5293 19.375
534 1 -1.1104 9.70392 18.6926 14.9444
537 2 2.2208 8.14237 20.2539 16.5934
538 1 -1.1104 9.86679 16.1707 17.8164
539 1 -1.1104 9.88979 15.7564 14.9998
528 1 -1.1104 12.3907 16.1837 20.3283
540 1 -1.1104 9.64089 16.1219 20.6986
535 1 -1.1104 9.74849 18.6832 20.7093
514 1 -1.1104 7.11893 19.1471 23.6029
637 1 -1.1104 9.84383 18.8767 23.4679
605 1 -1.1104 9.83445 16.2337 23.3446
367 1 -1.1104 4.07544 -3.7627 20.3414
545 2 2.2208 5.58297 0.425335 22.0842
546 1 -1.1104 1.38445 -3.65308 23.6547
550 1 -1.1104 1.39781 -3.89532 26.3968
554 1 -1.1104 1.47257 -0.983318 23.6435
556 2 2.2208 5.38114 -2.51112 24.9422
558 1 -1.1104 1.33045 -1.10519 26.2922
560 1 -1.1104 4.07352 -3.84336 23.3907
562 2 2.2208 2.90125 0.235874 24.892
563 1 -1.1104 4.19874 -4.01453 26.2561
565 2 2.2208 2.61384 -2.40932 22.0824
567 1 -1.1104 4.22306 -1.00475 23.5925
568 1 -1.1104 4.06362 -1.14698 26.296
579 2 2.2208 0.0639804 0.223868 22.291
8104 2 2.2208 11.2907 -5.11652 22.0699
8815 2 2.2208 -0.176107 -2.40726 25.013
8140 2 2.2208 -0.112372 -5.14609 22.2841
8027 2 2.2208 11.1832 -4.9759 27.8007
608 1 -1.1104 12.3851 15.9949 26.1421
548 1 -1.1104 7.15159 -3.67332 23.6113
555 1 -1.1104 6.98115 -0.826463 23.3028
559 1 -1.1104 6.94521 -1.14737 26.2858
352 1 -1.1104 6.90669 -3.70265 20.7216
552 1 -1.1104 6.95283 -3.86462 26.4348
581 2 2.2208 11.0957 0.423756 21.8815
582 1 -1.1104 12.317 -3.74156 23.3417
584 1 -1.1104 12.5825 -3.77206 26.282
586 1 -1.1104 12.7432 -0.725482 23.3175
587 2 2.2208 11.2287 -2.2979 24.7119
589 1 -1.1104 12.6827 -0.897888 26.2064
590 1 -1.1104 9.77306 -3.64463 23.4578
592 2 2.2208 8.42234 0.329655 24.7286
593 1 -1.1104 9.96167 -3.6089 26.2531
595 2 2.2208 8.236 -2.19753 21.8724
597 1 -1.1104 9.83452 -0.882991 23.4422
598 1 -1.1104 9.78697 -0.917053 26.2563
8141 2 2.2208 8.50119 -5.06279 19.3899
578 1 -1.1104 12.4359 18.8817 26.1938
448 1 -1.1104 4.30395 4.79393 20.6931
443 1 -1.1104 4.12178 7.49386 20.836
350 1 -1.1104 1.23174 2.03276 20.3982
580 2 2.2208 -0.0981714 3.19337 24.8126
376 2 2.2208 -0.139669 6.03585 22.1674
432 1 -1.1104 1.23592 4.8966 20.6885
547 1 -1.1104 1.35239 1.78858 23.2033
551 1 -1.1104 1.18311 1.48559 25.9467
557 2 2.2208 5.59466 3.33421 25.059
561 1 -1.1104 4.14139 1.91402 23.5391
564 1 -1.1104 4.06296 1.93316 26.4097
566 2 2.2208 2.7208 3.09527 22.0599
610 2 2.2208 5.56864 6.11982 22.1875
612 1 -1.1104 1.11313 7.6983 23.3702
614 1 -1.1104 1.24669 7.52362 26.3315
616 1 -1.1104 1.36083 4.87794 23.5522
621 1 -1.1104 1.46802 4.47782 26.0562
625 1 -1.1104 4.42636 7.49037 23.6373
626 2 2.2208 2.59486 6.0776 24.8395
628 1 -1.1104 3.99905 7.43205 26.3387
630 1 -1.1104 4.0358 4.75223 23.4438
632 1 -1.1104 3.99835 4.58976 26.1331
613 1 -1.1104 7.25968 7.70535 23.8108
8770 2 2.2208 -0.0643114 6.14385 27.7439
458 1 -1.1104 12.6998 7.46791 20.7178
391 1 -1.1104 12.6957 1.90288 20.6251
335 2 2.2208 8.47912 8.99863 27.4741
549 1 -1.1104 6.98011 2.02913 23.543
553 1 -1.1104 7.04239 1.68397 26.2084
615 1 -1.1104 6.89787 7.57846 26.4445
618 1 -1.1104 6.82302 4.61329 23.5874
623 1 -1.1104 7.1933 4.82469 26.4006
583 1 -1.1104 12.5121 1.86996 23.2274
585 1 -1.1104 12.4529 1.88838 26.099
588 2 2.2208 11.1925 3.13808 24.5621
591 1 -1.1104 9.7365 1.99984 23.284
594 1 -1.1104 9.86309 1.79381 26.3053
596 2 2.2208 8.18132 3.39118 21.9646
599 1 -1.1104 10.0123 7.53289 23.3789
601 1 -1.1104 12.7954 4.76099 26.526
636 1 -1.1104 12.5572 4.67878 23.502
642 1 -1.1104 10.0322 4.6335 25.9326
644 1 -1.1104 9.46626 4.81402 23.2771
646 1 -1.1104 9.72029 7.70702 26.1958
648 2 2.2208 8.42114 6.25543 24.9248
649 2 2.2208 11.2551 5.95446 22.1945
651 1 -1.1104 12.6304 7.5627 23.5521
652 1 -1.1104 12.755 7.41332 26.2592
9005 2 2.2208 -0.0877755 11.8332 22.0784
611 2 2.2208 5.82984 11.8426 22.1949
617 1 -1.1104 1.10299 10.3884 23.7143
620 2 2.2208 5.49658 9.03646 24.8735
622 1 -1.1104 1.55217 10.4703 26.3988
627 2 2.2208 2.75123 11.9078 25.038
629 2 2.2208 2.55367 9.06288 21.9679
631 1 -1.1104 4.01203 10.5771 23.3662
633 1 -1.1104 4.20971 10.4788 26.2815
410 1 -1.1104 4.32869 13.0583 26.3085
452 1 -1.1104 1.22188 13.0935 23.5133
515 1 -1.1104 1.37591 13.3172 26.3111
543 1 -1.1104 4.22712 13.4283 23.5761
9006 2 2.2208 -0.114376 8.97838 24.9076
17420 2 2.2208 -0.0517576 -5.11872 16.6558
305 2 2.2208 2.87269 14.5617 27.7459
8102 2 2.2208 8.53049 -5.04948 24.8603
521 1 -1.1104 12.693 13.186 20.6643
576 2 2.2208 8.28815 14.7982 22.1586
619 1 -1.1104 7.05966 10.4266 23.596
624 1 -1.1104 7.12286 10.5288 26.3506
478 1 -1.1104 7.18004 13.1582 23.6444
569 1 -1.1104 7.32002 13.3921 26.1007
640 1 -1.1104 10.2381 13.1131 26.4065
609 1 -1.1104 9.95969 13.1133 23.6678
600 1 -1.1104 12.704 10.2685 26.4627
634 2 2.2208 11.1638 9.08824 24.8257
635 1 -1.1104 12.6801 10.2171 23.4952
641 1 -1.1104 9.94369 10.3314 26.2001
643 1 -1.1104 9.80999 10.3993 23.4447
645 2 2.2208 8.49453 8.93535 22.1388
647 2 2.2208 8.46492 11.7167 25.034
650 2 2.2208 11.3947 11.7528 22.0734
413 1 -1.1104 12.651 12.9913 23.5644
544 1 -1.1104 12.7769 13.0933 26.2426
414 1 -1.1104 12.4749 18.7834 23.2652
8812 2 2.2208 -0.216565 17.4673 22.1706
8854 2 2.2208 -0.0055149 14.6629 24.8871
375 2 2.2208 8.51913 20.0905 22.0424
489 1 -1.1104 1.32211 19.0643 20.7456
333 2 2.2208 11.2639 0.363386 27.6558
8813 2 2.2208 -0.165428 20.2047 25.2616
379 2 2.2208 2.86604 14.6862 22.1634
479 2 2.2208 5.77407 14.6655 24.7904
380 2 2.2208 2.6999 20.3568 22.5263
382 1 -1.1104 4.32283 16.2464 23.5344
383 1 -1.1104 1.33628 15.9959 23.7066
415 1 -1.1104 4.10912 15.8139 26.3503
416 2 2.2208 2.71936 17.2884 25.189
417 1 -1.1104 4.16131 18.8637 26.5862
451 2 2.2208 5.52655 17.6965 22.1491
453 1 -1.1104 1.22666 18.9329 23.607
480 2 2.2208 5.52474 20.3524 24.9959
516 1 -1.1104 1.24736 16.136 26.3978
541 1 -1.1104 1.34295 18.7358 26.2899
570 1 -1.1104 4.12004 18.7772 23.8434
542 1 -1.1104 6.90981 16.1322 26.4314
638 2 2.2208 8.38257 17.6007 24.7711
607 2 2.2208 11.0864 20.2662 24.7248
384 1 -1.1104 6.87536 16.2508 23.4541
409 2 2.2208 11.2407 17.4016 21.9424
604 1 -1.1104 9.56377 15.9111 26.2192
606 2 2.2208 11.2273 14.4629 24.9118
577 1 -1.1104 9.64204 18.7836 26.2817
602 1 -1.1104 12.523 15.9893 23.3814
323 2 2.2208 5.44726 20.2568 13.7555
329 2 2.2208 2.61626 -2.547 27.7113
328 2 2.2208 5.67752 0.30891 27.599
325 2 2.2208 11.0093 20.3085 13.58
312 2 2.2208 -0.267261 8.88409 13.689
338 2 2.2208 8.47306 3.28617 27.4719
303 2 2.2208 8.45557 14.6664 27.7029
8769 2 2.2208 -0.0570473 20.2722 13.7606
653 2 2.2208 5.40835 23.137 5.34917
655 1 -1.1104 1.29814 24.4129 0.909488
656 1 -1.1104 1.13175 24.5027 3.7014
657 1 -1.1104 1.28934 21.5534 1.10323
659 2 2.2208 5.4229 25.8395 2.26158
660 1 -1.1104 1.03847 21.7056 3.91324
662 1 -1.1104 4.17864 24.279 1.0604
663 2 2.2208 2.47024 22.9525 2.49424
665 1 -1.1104 4.10915 24.5226 3.79296
666 2 2.2208 2.74586 25.9307 5.31496
667 1 -1.1104 4.05149 21.3791 0.900617
669 1 -1.1104 3.74961 21.8227 3.78823
670 1 -1.1104 4.05534 27.2143 3.70977
678 1 -1.1104 6.56691 21.7448 3.8506
668 1 -1.1104 4.1029 27.0405 0.895517
658 1 -1.1104 1.06973 27.1618 1.01555
797 1 -1.1104 1.27382 27.1498 6.48987
796 1 -1.1104 1.15639 21.5275 6.62259
794 1 -1.1104 1.1173 24.5165 6.63442
672 2 2.2208 -0.411742 23.1772 5.36514
800 1 -1.1104 3.99439 24.592 6.52402
673 2 2.2208 -0.232281 25.7982 2.41991
674 1 -1.1104 6.97365 24.4417 0.999539
676 1 -1.1104 6.93373 21.6891 1.02139
675 1 -1.1104 6.81858 24.4017 3.77851
680 2 2.2208 10.9893 23.238 5.37339
682 1 -1.1104 12.5705 24.2382 1.03606
683 1 -1.1104 12.4068 24.556 3.7086
684 1 -1.1104 12.4185 21.3143 1.05107
686 2 2.2208 11.0789 25.7738 2.33537
687 1 -1.1104 12.5937 21.8066 4.04531
689 1 -1.1104 9.71161 24.3605 1.08176
690 2 2.2208 8.09665 23.2487 2.4497
692 1 -1.1104 9.55634 24.3946 3.99786
693 2 2.2208 8.08233 25.8719 5.13053
694 1 -1.1104 9.59304 21.7385 0.930466
696 1 -1.1104 9.35356 21.6375 3.76901
830 1 -1.1104 9.40582 24.3854 6.75183
688 1 -1.1104 12.4251 27.1144 3.73059
697 1 -1.1104 9.54611 27.3518 3.73473
685 1 -1.1104 12.431 27.2121 1.13296
695 1 -1.1104 9.81548 27.0704 0.857028
798 1 -1.1104 6.83224 21.6864 6.83454
828 1 -1.1104 12.5475 21.7701 6.79475
829 1 -1.1104 12.5214 27.4492 6.48481
827 1 -1.1104 12.3226 24.7396 6.70715
661 1 -1.1104 1.31161 27.3561 3.84496
802 1 -1.1104 3.90301 27.2561 6.62417
677 1 -1.1104 7.10304 27.3492 0.991798
654 2 2.2208 5.49909 28.6267 4.97951
664 2 2.2208 2.76643 28.6351 2.22751
702 1 -1.1104 1.30903 30.0979 0.874218
705 1 -1.1104 1.46373 30.3124 3.60304
708 1 -1.1104 1.17881 32.8673 1.05347
709 2 2.2208 5.46058 31.4433 2.4013
711 1 -1.1104 1.26507 32.8656 3.76236
713 1 -1.1104 4.03792 29.8842 0.997172
716 1 -1.1104 4.24071 30.0055 3.67739
718 2 2.2208 2.77345 31.5304 4.98869
720 1 -1.1104 4.13893 32.9637 0.972415
721 1 -1.1104 4.13889 32.8489 3.57545
859 1 -1.1104 3.89988 32.8849 6.61369
857 1 -1.1104 4.09524 30.17 6.45179
855 1 -1.1104 1.33213 33.0202 6.61941
727 1 -1.1104 6.77678 32.9142 0.954247
799 1 -1.1104 6.6995 27.3491 6.35006
851 1 -1.1104 1.13162 30.0087 6.68712
9444 2 2.2208 -0.363966 34.3518 -0.394243
9422 2 2.2208 -0.286581 31.3588 2.35153
9418 2 2.2208 13.6847 42.9567 10.637
679 1 -1.1104 6.86993 27.2157 3.89275
725 1 -1.1104 6.84369 30.2791 0.983887
712 1 -1.1104 6.96342 32.666 3.8318
726 1 -1.1104 6.98727 29.9664 3.78943
681 2 2.2208 11.0044 28.7311 5.28596
691 2 2.2208 8.38978 28.6476 2.39893
729 1 -1.1104 12.4051 30.1038 0.913448
731 1 -1.1104 12.3198 29.9266 3.74034
733 1 -1.1104 12.4898 32.989 0.834772
734 2 2.2208 11.1088 31.4716 2.31836
736 1 -1.1104 12.6187 32.7343 3.74678
737 1 -1.1104 9.61113 30.0054 0.962929
740 1 -1.1104 9.81197 30.0993 3.86888
742 2 2.2208 8.20667 31.5846 5.17776
744 1 -1.1104 9.63569 32.9264 0.728508
745 1 -1.1104 9.77582 32.983 3.70743
856 1 -1.1104 6.93931 32.9217 6.63184
887 1 -1.1104 12.4295 33.0042 6.55459
890 1 -1.1104 9.85369 32.8958 6.49641
885 1 -1.1104 12.6201 30.2848 6.58407
9417 2 2.2208 0.0288029 28.7249 5.12355
9432 2 2.2208 -0.365213 45.7079 10.8277