ITEM: TIMESTEP
80000
ITEM: NUMBER OF ATOMS
17760
ITEM: BOX BOUNDS pp pp pp
-4.6384937983496211e-01 2.7803849379834585e+01
-5.5411328628861618e+00 3.3362113286289980e+02
-4.5854338609526829e-01 2.7798543386094934e+01
ITEM: ATOMS id type q x y z
1 2 2.2208 5.04603 0.224515 5.3159
2 1 -1.1104 0.872085 -4.13723 0.970078
6 1 -1.1104 0.679639 -4.11839 3.81021
10 1 -1.1104 0.750177 -1.31078 0.964123
12 2 2.2208 5.14745 -2.46487 2.54422
14 1 -1.1104 0.592626 -1.24595 3.75023
16 1 -1.1104 3.95166 -3.70236 0.719023
18 2 2.2208 2.16051 0.209235 2.40688
19 1 -1.1104 3.53454 -3.90373 3.50375
21 2 2.2208 2.24294 -2.79853 5.17663
23 1 -1.1104 3.71581 -0.954137 0.64278
24 1 -1.1104 3.61453 -1.24208 3.62737
4 1 -1.1104 6.73466 -3.99437 0.900849
11 1 -1.1104 6.57333 -1.12934 1.06392
8 1 -1.1104 6.47074 -4.26529 4.0046
168 1 -1.1104 6.60662 -3.93654 6.61642
170 1 -1.1104 0.799174 -1.12489 6.48115
174 1 -1.1104 3.41607 -1.32586 6.58008
171 1 -1.1104 6.35481 -1.1327 6.67663
333 2 2.2208 13.3768 14.1854 10.8258
9060 2 2.2208 10.5963 -5.50304 5.24633
556 2 2.2208 10.4353 20.0144 13.5878
53 2 2.2208 13.3344 11.4896 7.99302
15 1 -1.1104 6.54308 -1.33826 3.9014
31 2 2.2208 10.7061 0.260354 5.16664
32 1 -1.1104 12.1561 -4.08681 1.09765
34 1 -1.1104 12.1746 -3.96372 3.95538
36 1 -1.1104 12.3319 -1.29071 0.746505
37 2 2.2208 10.7622 -2.50346 2.53201
39 1 -1.1104 12.4001 -1.08175 3.58294
40 1 -1.1104 9.29824 -3.94572 0.752841
42 2 2.2208 8.09415 0.183582 2.33186
43 1 -1.1104 9.27612 -3.9759 3.86247
45 2 2.2208 7.75983 -2.76601 5.23955
47 1 -1.1104 9.26403 -1.05692 0.849312
48 1 -1.1104 9.42812 -1.20872 3.79624
207 1 -1.1104 12.1343 -1.49012 6.24643
49 2 2.2208 13.6236 0.259175 2.35238
208 1 -1.1104 9.22385 -4.05116 6.60804
9062 2 2.2208 2.12551 -5.48246 7.79058
559 2 2.2208 13.4614 17.1223 13.6286
352 2 2.2208 5.12119 5.84455 -0.448276
9067 2 2.2208 13.5975 -5.58583 7.88042
3 1 -1.1104 0.722108 1.6096 1.0587
7 1 -1.1104 0.833174 1.53561 3.81343
13 2 2.2208 5.07987 3.10094 2.30839
17 1 -1.1104 3.42878 1.86855 1.00579
20 1 -1.1104 3.57494 1.49698 3.8409
22 2 2.2208 2.19839 3.09947 5.06882
54 2 2.2208 4.98081 5.81882 5.41254
56 1 -1.1104 0.643157 7.14645 1.16144
60 1 -1.1104 0.85287 4.48524 1.19593
67 1 -1.1104 0.87198 4.31394 3.79031
72 2 2.2208 2.10662 5.96979 2.36728
76 1 -1.1104 3.51435 4.6433 0.780505
79 1 -1.1104 3.41322 4.40858 3.7245
58 1 -1.1104 0.956351 7.31776 3.86354
71 1 -1.1104 3.49038 7.22902 0.942446
74 1 -1.1104 3.82294 7.11385 3.93874
236 1 -1.1104 0.580784 4.27603 6.67034
9 1 -1.1104 6.49516 1.75965 3.7712
69 1 -1.1104 6.18904 4.43545 3.56409
5 1 -1.1104 6.34412 1.72761 0.797945
63 1 -1.1104 6.51062 4.38817 0.874707
167 1 -1.1104 1.09886 1.72799 6.63336
238 1 -1.1104 3.45383 7.05167 6.6477
57 1 -1.1104 6.57907 7.30283 0.988214
173 1 -1.1104 3.91752 1.53534 6.7243
239 1 -1.1104 3.62942 4.23441 6.51532
59 1 -1.1104 7.04768 7.16864 3.68315
33 1 -1.1104 12.3311 1.81311 0.985932
35 1 -1.1104 12.0294 1.73773 3.61074
38 2 2.2208 10.8295 3.15172 2.0254
41 1 -1.1104 9.20327 1.69061 1.03204
44 1 -1.1104 9.1733 1.87841 3.66367
46 2 2.2208 7.92288 3.08318 5.04439
84 2 2.2208 10.8087 5.8316 5.198
88 1 -1.1104 12.1668 4.59434 0.907363
92 1 -1.1104 12.2144 4.41684 3.80175
95 2 2.2208 7.79689 5.78171 2.25964
99 1 -1.1104 9.37628 4.53812 0.644295
102 1 -1.1104 9.36248 4.55551 3.65435
94 1 -1.1104 9.21255 7.26655 1.06483
97 1 -1.1104 9.63325 7.55676 4.0811
86 1 -1.1104 11.8961 7.41163 0.767691
266 1 -1.1104 12.0533 4.44686 6.61033
265 1 -1.1104 12.0545 7.3741 6.61322
87 1 -1.1104 12.302 7.25118 3.73422
209 1 -1.1104 9.43638 1.74342 6.36614
105 2 2.2208 13.5378 5.76554 2.34823
233 2 2.2208 13.5161 2.86636 5.25427
206 1 -1.1104 12.3394 1.3328 6.56837
338 2 2.2208 4.92586 2.93078 13.3664
9061 2 2.2208 13.3869 -5.37511 2.45457
55 2 2.2208 4.91948 11.436 5.32965
61 1 -1.1104 0.850306 9.90711 1.15391
66 2 2.2208 5.02664 8.72559 2.54684
68 1 -1.1104 0.754874 10.1533 3.99823
73 2 2.2208 2.21239 11.4938 2.62248
75 2 2.2208 2.09099 8.65973 5.24231
77 1 -1.1104 3.55391 10.0062 1.13552
80 1 -1.1104 3.46306 10.1851 3.92477
107 1 -1.1104 0.886815 12.6543 0.953341
113 1 -1.1104 0.86602 13.0122 3.84476
123 1 -1.1104 3.50103 12.9209 1.29742
128 1 -1.1104 3.51592 12.9459 4.22198
110 1 -1.1104 6.29373 12.943 1.22204
115 1 -1.1104 6.23484 12.6676 3.83813
70 1 -1.1104 6.31314 9.97637 3.80881
64 1 -1.1104 6.41655 10.1765 0.882675
111 1 -1.1104 6.25498 12.89 6.75161
124 1 -1.1104 3.52562 12.8383 6.89726
9059 2 2.2208 7.8301 -5.33884 2.38682
232 2 2.2208 13.459 8.50042 5.22014
85 2 2.2208 10.5645 11.5892 5.17524
89 1 -1.1104 12.158 10.229 1.00993
91 2 2.2208 10.7135 8.74701 2.5033
93 1 -1.1104 11.9886 10.1707 3.90252
96 2 2.2208 7.70852 11.4765 2.47919
98 2 2.2208 7.80069 8.73306 5.12772
100 1 -1.1104 9.26165 9.99718 1.0588
103 1 -1.1104 8.93796 10.2427 3.98406
142 1 -1.1104 12.0208 12.9069 1.0485
146 1 -1.1104 12.0818 13.0536 3.80734
153 1 -1.1104 9.09407 12.7888 0.958176
158 1 -1.1104 9.23093 13.0043 3.87947
90 1 -1.1104 11.9266 10.116 6.49974
101 1 -1.1104 9.25369 10.3761 6.68085
143 1 -1.1104 12.1665 12.9949 6.50964
104 2 2.2208 13.4211 11.6435 2.47409
9422 2 2.2208 13.6464 -5.45563 13.4292
325 2 2.2208 10.6095 14.4274 8.02356
130 2 2.2208 2.18573 14.2054 5.45539
119 2 2.2208 4.91489 14.4316 2.55463
106 2 2.2208 4.90818 16.8675 5.40464
109 1 -1.1104 0.71315 18.4023 0.87356
114 1 -1.1104 0.825774 18.7904 3.63843
116 1 -1.1104 0.693685 15.7054 1.2095
120 2 2.2208 4.79662 19.8739 2.42395
121 1 -1.1104 0.673943 15.8671 3.86751
125 1 -1.1104 3.39162 18.4371 0.974309
127 2 2.2208 2.09254 17.0272 2.39563
129 1 -1.1104 3.34855 18.441 3.93722
131 2 2.2208 2.10812 20.0074 5.17679
132 1 -1.1104 3.69817 15.6794 1.01189
134 1 -1.1104 3.50726 15.7084 3.94458
140 1 -1.1104 6.60305 15.7691 0.99001
122 1 -1.1104 6.3291 15.726 3.98992
138 1 -1.1104 6.32698 18.4533 1.14814
118 1 -1.1104 6.36069 15.5711 6.66606
112 1 -1.1104 6.22267 18.5057 6.59235
139 1 -1.1104 6.13479 18.4822 3.71193
676 2 2.2208 10.6781 11.4641 -0.412767
126 1 -1.1104 3.49788 18.5352 6.54003
117 1 -1.1104 0.717216 15.6942 6.69869
675 2 2.2208 7.73051 8.64379 -0.376761
231 2 2.2208 13.409 20.0054 5.2859
165 2 2.2208 13.4244 17.2348 2.4072
150 2 2.2208 10.6367 14.3629 2.3696
160 2 2.2208 7.7146 14.3324 5.32938
141 2 2.2208 10.4934 17.1196 5.04895
144 1 -1.1104 11.9296 18.8984 0.983453
147 1 -1.1104 11.8931 18.6283 3.97791
148 1 -1.1104 11.897 15.6616 0.790214
151 2 2.2208 10.6219 19.9835 2.30091
152 1 -1.1104 12.2141 15.8288 3.61342
155 1 -1.1104 9.15647 18.6371 1.1725
157 2 2.2208 7.6832 17.227 2.4179
159 1 -1.1104 9.02579 18.5331 4.01047
161 2 2.2208 7.50982 19.7664 5.20798
162 1 -1.1104 9.28904 15.755 1.0798
164 1 -1.1104 9.16806 15.6159 3.7069
145 1 -1.1104 12.0369 18.764 6.63911
156 1 -1.1104 9.07434 18.6228 6.69763
149 1 -1.1104 11.9923 15.8325 6.44671
204 2 2.2208 13.5043 14.4714 5.09587
342 2 2.2208 10.6285 2.88785 13.6926
172 1 -1.1104 3.87868 -4.28188 6.52139
166 1 -1.1104 0.845742 -4.02057 6.60267
175 2 2.2208 5.06779 0.184291 10.8397
176 1 -1.1104 0.735304 -4.1974 12.2516
180 1 -1.1104 0.435594 -4.00463 9.45486
184 1 -1.1104 0.750414 -1.42315 12.0542
186 2 2.2208 4.95567 -2.77945 8.0317
188 1 -1.1104 0.4428 -1.16866 9.0815
190 1 -1.1104 3.6271 -4.1395 12.0899
192 2 2.2208 2.1946 0.142983 7.90132
193 1 -1.1104 3.40628 -4.25256 9.51978
195 2 2.2208 2.05833 -2.60005 10.6133
197 1 -1.1104 3.43872 -1.29967 12.2053
198 1 -1.1104 3.34342 -1.4099 9.24695
185 1 -1.1104 6.55769 -1.14889 12.2243
182 1 -1.1104 6.44097 -4.11908 9.18433
189 1 -1.1104 6.33775 -1.42404 9.52898
178 1 -1.1104 6.4428 -3.96691 12.2104
678 2 2.2208 13.5355 8.78673 -0.354036
466 2 2.2208 2.07745 5.742 13.5093
592 2 2.2208 7.87808 14.1756 -0.450359
329 1 -1.1104 11.8515 18.3962 12.4421
705 2 2.2208 2.20787 14.433 -0.190282
205 1 -1.1104 11.9408 -4.32204 6.64575
210 1 -1.1104 9.38004 -1.31074 6.30453
230 2 2.2208 13.4414 -2.5347 10.7957
229 2 2.2208 13.5936 0.14017 8.06037
211 2 2.2208 10.7965 0.0804112 10.7193
212 1 -1.1104 12.0917 -4.00063 12.2466
214 1 -1.1104 12.259 -4.13468 9.40183
216 1 -1.1104 12.0364 -1.11003 12.0667
217 2 2.2208 10.7197 -2.71371 7.94185
219 1 -1.1104 12.0341 -1.1936 9.20208
220 1 -1.1104 9.20847 -3.92675 12.3159
222 2 2.2208 8.02377 0.206352 7.9876
223 1 -1.1104 9.25511 -4.19785 9.59083
225 2 2.2208 7.85134 -2.70821 10.7946
227 1 -1.1104 9.42686 -1.06852 12.2457
228 1 -1.1104 9.33112 -1.27109 9.216
350 2 2.2208 13.4857 -2.67646 -0.47422
651 2 2.2208 5.01478 11.5054 -0.345366
163 1 -1.1104 9.06772 15.6565 6.4827
169 1 -1.1104 6.86417 1.5402 6.63364
177 1 -1.1104 0.713494 1.38316 12.2872
181 1 -1.1104 1.00814 1.38174 9.48582
187 2 2.2208 5.15577 2.95555 7.83568
191 1 -1.1104 3.57549 1.34907 12.2171
194 1 -1.1104 3.7577 1.46265 9.4213
196 2 2.2208 2.23565 2.79473 10.877
240 2 2.2208 5.05943 5.77894 10.7473
244 1 -1.1104 0.931138 6.92437 9.37995
246 1 -1.1104 0.636352 4.26504 12.1064
251 1 -1.1104 0.699854 4.12019 9.34619
256 2 2.2208 2.21596 5.71424 7.88462
260 1 -1.1104 3.33913 4.2625 12.1549
262 1 -1.1104 3.65282 4.27094 9.31802
255 1 -1.1104 3.60304 7.11917 12.4308
242 1 -1.1104 0.739033 7.20467 12.2063
258 1 -1.1104 3.79929 7.29535 9.46453
183 1 -1.1104 6.67504 1.6099 9.4216
235 1 -1.1104 6.24648 7.55332 6.48999
248 1 -1.1104 6.15638 4.3895 12.2769
245 1 -1.1104 6.42362 7.18323 9.252
179 1 -1.1104 6.2474 1.55866 12.26
237 1 -1.1104 6.33794 4.48097 6.55121
253 1 -1.1104 6.40356 4.33545 9.50112
704 2 2.2208 5.05219 17.0486 -0.34016
315 1 -1.1104 9.2895 15.6675 12.4103
269 1 -1.1104 9.12148 4.49033 6.70152
267 1 -1.1104 9.12443 7.29381 6.74736
9071 2 2.2208 10.673 -5.55236 -0.288842
243 1 -1.1104 6.49892 6.92818 12.0139
202 2 2.2208 13.5655 5.83916 8.0394
213 1 -1.1104 12.0053 1.60537 12.3033
215 1 -1.1104 12.0697 1.53695 9.47438
218 2 2.2208 10.837 3.16515 8.09091
221 1 -1.1104 9.2902 1.55749 12.2517
224 1 -1.1104 9.56562 1.42124 9.29289
226 2 2.2208 7.87371 3.05848 10.7328
268 1 -1.1104 9.14404 4.40661 9.40226
271 1 -1.1104 9.21269 4.48108 12.1868
275 2 2.2208 7.76585 5.95431 7.94279
276 2 2.2208 10.6227 5.84196 10.7486
280 1 -1.1104 12.115 4.43597 12.3734
283 1 -1.1104 11.9922 4.30719 9.47484
278 1 -1.1104 12.1541 7.44978 12.1878
273 1 -1.1104 9.19564 7.43075 9.38481
285 1 -1.1104 9.43729 7.07416 12.2187
279 1 -1.1104 12.0819 7.27607 9.36827
108 1 -1.1104 0.572453 12.9193 6.79332
62 1 -1.1104 0.660586 10.0785 6.67252
65 1 -1.1104 6.34621 10.2488 6.73751
234 1 -1.1104 0.671977 7.12977 6.69119
78 1 -1.1104 3.56301 9.77893 6.60483
241 2 2.2208 5.11051 11.2016 10.9691
247 1 -1.1104 0.654309 10.0685 12.3418
250 2 2.2208 5.07895 8.67786 8.04525
252 1 -1.1104 1.07464 9.86129 9.38641
257 2 2.2208 2.29404 11.3961 8.1711
259 2 2.2208 2.16488 8.49865 10.8833
261 1 -1.1104 3.72488 9.86251 12.1012
263 1 -1.1104 3.86626 10.0211 9.31806
287 1 -1.1104 3.51972 12.7748 12.6116
294 1 -1.1104 0.816832 12.6807 9.36315
299 1 -1.1104 0.834907 12.8455 12.2451
305 1 -1.1104 3.59026 12.8611 9.86264
254 1 -1.1104 6.57406 10.001 9.5576
249 1 -1.1104 6.77539 9.83097 12.2199
290 1 -1.1104 6.45789 12.9103 9.59792
321 1 -1.1104 9.15899 18.495 12.312
52 2 2.2208 13.5571 8.63825 10.7612
154 1 -1.1104 9.405 13.0023 6.48816
323 1 -1.1104 12.1766 15.6995 9.31988
316 2 2.2208 7.76075 19.7123 10.8947
297 1 -1.1104 6.37885 12.7171 12.3856
330 1 -1.1104 12.0512 13.0735 12.2825
328 1 -1.1104 12.1333 12.7727 9.39426
322 1 -1.1104 9.27063 12.8691 12.4023
319 1 -1.1104 9.26412 12.9581 9.61927
264 1 -1.1104 9.40127 10.0369 9.37742
270 1 -1.1104 9.33981 10.0335 12.472
272 2 2.2208 8.10259 8.52955 10.9336
274 2 2.2208 7.85652 11.4569 8.32648
277 2 2.2208 10.7632 11.6224 10.956
281 1 -1.1104 12.0074 10.3214 12.5081
282 2 2.2208 10.7175 8.6958 7.97796
284 1 -1.1104 12.1012 9.85931 9.51388
326 1 -1.1104 12.2168 15.6424 12.2993
133 1 -1.1104 3.6069 15.5886 6.68625
302 1 -1.1104 0.549943 18.5627 6.43203
296 1 -1.1104 6.46369 18.361 12.444
310 2 2.2208 2.25601 14.2208 10.9936
295 2 2.2208 4.92638 14.1222 8.1753
286 1 -1.1104 3.93493 18.305 12.1531
291 1 -1.1104 0.717788 18.6066 9.34194
292 1 -1.1104 0.683345 15.7041 9.48794
293 2 2.2208 4.82319 19.8687 8.02956
298 1 -1.1104 0.843219 18.4245 12.0607
300 2 2.2208 5.10921 16.834 10.9658
301 1 -1.1104 3.49068 18.3915 9.40104
303 2 2.2208 2.1843 17.1013 8.17315
304 1 -1.1104 3.67055 15.6019 9.54065
307 1 -1.1104 0.842025 15.6168 12.3286
308 1 -1.1104 3.52337 15.6615 12.4553
309 2 2.2208 2.14503 19.849 10.8605
289 1 -1.1104 6.59484 15.7716 9.49982
306 1 -1.1104 6.47243 15.5027 12.447
288 1 -1.1104 6.3378 18.3064 9.33505
335 2 2.2208 5.20193 -2.43849 13.4842
203 2 2.2208 13.3298 2.81239 10.8525
28 2 2.2208 13.3895 19.8896 10.8091
320 2 2.2208 7.77483 17.0588 7.93078
332 2 2.2208 13.4371 17.2667 8.01401
324 2 2.2208 10.5848 19.9818 7.81854
327 1 -1.1104 11.7561 18.5302 9.22697
317 2 2.2208 7.94861 14.3113 11.0455
318 1 -1.1104 9.08183 18.2788 9.53393
314 1 -1.1104 9.45827 15.7687 9.50685
331 2 2.2208 10.6665 17.1206 10.8363
9056 2 2.2208 2.21342 -5.37469 2.19222
9063 2 2.2208 4.85018 -5.42524 10.821
336 2 2.2208 2.14504 -0.0782068 13.6
351 2 2.2208 13.6595 3.03754 -0.431304
615 2 2.2208 7.97135 19.8578 -0.307623
345 2 2.2208 2.09615 3.12968 -0.388083
529 2 2.2208 2.20152 17.1281 13.6212
353 2 2.2208 2.23309 8.6099 -0.392381
357 2 2.2208 4.95659 0.348781 16.4339
358 1 -1.1104 0.73294 -4.19888 17.8962
362 1 -1.1104 0.56296 -4.06657 14.8474
370 1 -1.1104 0.705023 -1.29897 17.5838
372 2 2.2208 4.76317 -2.4728 19.1328
374 1 -1.1104 0.800956 -1.39825 14.9829
378 1 -1.1104 3.50427 -3.73714 17.9496
380 2 2.2208 2.17357 0.182616 19.2171
381 1 -1.1104 3.55853 -4.03482 14.9586
385 2 2.2208 2.18607 -2.57665 16.2318
387 1 -1.1104 3.53258 -1.02214 17.6539
388 1 -1.1104 3.60298 -1.28492 15.0271
366 1 -1.1104 6.18141 -3.93604 15.0158
377 1 -1.1104 6.21143 -1.11624 20.8678
360 1 -1.1104 6.1463 -3.98621 17.8531
371 1 -1.1104 6.37395 -0.9831 17.9317
367 1 -1.1104 6.28653 -4.03019 20.7445
376 1 -1.1104 6.28249 -1.17916 15.0667
389 1 -1.1104 3.52361 -1.45051 20.6228
382 1 -1.1104 3.32411 -4.20234 20.8177
9358 2 2.2208 4.88215 -5.4407 22.1718
9440 2 2.2208 7.71153 -5.50551 19.5082
9468 2 2.2208 4.83012 -5.47533 16.6048
400 2 2.2208 10.6424 0.0777481 16.5612
401 1 -1.1104 11.9883 -4.13411 17.8253
403 1 -1.1104 11.9283 -4.10763 15.0695
407 1 -1.1104 12.0622 -1.2226 17.9073
408 2 2.2208 10.6184 -2.77193 19.2354
410 1 -1.1104 11.9364 -1.2036 15.1813
412 1 -1.1104 9.03155 -4.20956 17.8243
414 2 2.2208 7.73743 0.262827 19.491
415 1 -1.1104 9.13844 -4.08351 15.2248
419 2 2.2208 7.68356 -2.72028 16.4267
421 1 -1.1104 9.23017 -1.30343 17.7649
422 1 -1.1104 9.0377 -1.44482 14.9821
404 1 -1.1104 12.0229 -4.05419 20.6305
9305 2 2.2208 10.5809 -5.34404 22.2799
428 2 2.2208 13.3869 -2.82085 16.4475
399 2 2.2208 13.4989 0.200517 19.3673
411 1 -1.1104 12.0327 -1.19936 20.6528
359 1 -1.1104 0.657829 1.42341 17.7177
364 1 -1.1104 0.661841 1.3671 14.8056
373 2 2.2208 4.80632 3.10603 19.3312
379 1 -1.1104 3.6235 1.668 18.0014
383 1 -1.1104 3.5346 1.51042 14.9487
386 2 2.2208 2.15879 2.82323 16.41
433 2 2.2208 4.85448 5.79839 16.4841
435 1 -1.1104 0.773836 7.00584 17.8668
441 1 -1.1104 0.807483 4.10718 18.1947
446 1 -1.1104 0.616267 4.37229 14.9766
455 2 2.2208 2.13323 5.8435 19.2968
457 1 -1.1104 3.61065 7.15611 15.0273
460 1 -1.1104 3.42262 4.5608 17.8102
462 1 -1.1104 3.43105 4.15716 15.0877
437 1 -1.1104 0.733921 7.08266 15.2137
454 1 -1.1104 3.38319 7.38835 17.7714
368 1 -1.1104 6.47688 1.751 14.9403
443 1 -1.1104 6.24295 4.429 18.0386
450 1 -1.1104 6.55943 4.50555 14.9703
436 1 -1.1104 6.1492 7.17983 17.8289
361 1 -1.1104 6.43657 1.79627 17.8017
365 1 -1.1104 0.707232 1.58785 20.4464
439 1 -1.1104 6.54329 7.19859 15.0594
340 2 2.2208 13.3551 0.22465 13.7743
438 1 -1.1104 0.786781 7.19833 20.7508
369 1 -1.1104 6.33345 1.7523 20.6439
384 1 -1.1104 3.51136 1.63906 20.6092
458 1 -1.1104 3.46272 7.25582 20.7641
440 1 -1.1104 6.37574 7.36257 20.7649
587 2 2.2208 13.5985 17.1788 19.3861
430 2 2.2208 13.5433 2.98338 16.5377
402 1 -1.1104 12.075 1.44503 17.8113
405 1 -1.1104 12.2454 1.79834 15.0641
409 2 2.2208 10.6766 3.06032 19.244
413 1 -1.1104 9.2355 1.62743 18.0671
417 1 -1.1104 9.28292 1.56573 15.1496
420 2 2.2208 7.80916 3.02178 16.4765
469 2 2.2208 10.7144 5.88073 16.4901
474 1 -1.1104 12.0973 4.38272 18.0198
477 1 -1.1104 12.0167 4.55476 15.1461
482 2 2.2208 7.7883 5.82939 19.3477
484 1 -1.1104 9.58962 7.47008 15.1892
487 1 -1.1104 9.1273 4.43858 17.9044
489 1 -1.1104 9.3181 4.25565 15.2118
481 1 -1.1104 9.16752 7.10377 17.9033
472 1 -1.1104 12.1989 7.39111 14.9353
471 1 -1.1104 11.9908 7.05944 18.0163
418 1 -1.1104 9.06733 1.66004 20.7446
620 2 2.2208 13.6518 5.92699 19.3634
473 1 -1.1104 12.1593 7.17967 20.7895
478 1 -1.1104 12.1237 4.53018 20.6991
349 2 2.2208 7.83112 3.0274 27.6346
434 2 2.2208 4.7419 11.2589 16.6085
442 1 -1.1104 0.514768 10.1395 17.934
445 2 2.2208 4.7954 8.581 19.3921
448 1 -1.1104 0.840713 10.0983 15.0753
456 2 2.2208 2.02752 11.4066 19.4324
459 2 2.2208 2.06541 8.69887 16.6377
461 1 -1.1104 3.40524 10.0418 18.2394
464 1 -1.1104 3.49319 10.0367 15.1777
497 1 -1.1104 0.641659 12.9654 17.9039
501 1 -1.1104 0.449616 12.8465 15.1143
517 1 -1.1104 3.56286 12.6224 18.2857
520 1 -1.1104 3.22427 12.7159 15.364
499 1 -1.1104 6.47376 12.7729 18.1133
505 1 -1.1104 6.22494 12.9576 15.2603
449 1 -1.1104 0.702414 9.92247 20.9465
452 1 -1.1104 6.29584 10.1259 15.1517
444 1 -1.1104 6.35401 9.96862 17.7534
453 1 -1.1104 6.13848 9.9672 20.7217
588 2 2.2208 13.3491 14.2442 16.6859
470 2 2.2208 10.6317 11.6363 16.5124
475 1 -1.1104 12.1408 9.95252 17.9842
476 2 2.2208 10.7584 8.48904 19.3195
479 1 -1.1104 11.9435 10.2115 15.3497
483 2 2.2208 7.79906 11.4531 19.2359
486 2 2.2208 7.89195 8.53915 16.5674
488 1 -1.1104 9.39475 9.83971 17.7482
491 1 -1.1104 9.09161 10.491 15.2635
533 1 -1.1104 12.0874 12.6904 17.8965
535 1 -1.1104 12.0349 12.931 15.1519
544 1 -1.1104 9.211 12.9657 17.7232
547 1 -1.1104 9.09367 13.0487 15.0736
480 1 -1.1104 11.9825 9.90463 20.8916
619 2 2.2208 13.2732 11.4342 19.2884
492 1 -1.1104 9.12335 10.1278 20.5694
9471 2 2.2208 13.5672 -5.40114 19.4598
9429 2 2.2208 7.72333 -5.41122 13.8222
468 2 2.2208 2.11425 11.2792 13.6807
511 2 2.2208 5.01572 14.2645 19.4457
524 2 2.2208 2.12366 14.3342 16.6569
496 2 2.2208 5.0047 17.1708 16.5003
498 1 -1.1104 0.699648 18.435 17.7499
503 1 -1.1104 0.945009 18.6728 14.9147
509 1 -1.1104 0.797411 15.7175 17.9952
512 2 2.2208 4.95213 19.8224 19.3064
513 1 -1.1104 0.7107 15.8398 14.9519
518 1 -1.1104 3.64279 18.4417 17.9672
519 2 2.2208 2.21251 17.2349 19.4877
522 1 -1.1104 3.6466 18.4994 15.159
525 2 2.2208 2.16151 19.8883 16.5269
526 1 -1.1104 3.49998 15.8126 18.3285
527 1 -1.1104 3.5405 15.6148 15.2263
507 1 -1.1104 6.47534 18.3079 15.1719
510 1 -1.1104 6.23792 15.7106 18.0117
515 1 -1.1104 6.32087 15.6784 15.1572
9304 2 2.2208 7.89627 -5.45644 24.9021
650 1 -1.1104 12.1166 18.4649 26.5264
9357 2 2.2208 2.02075 -5.41536 24.9301
500 1 -1.1104 6.28652 18.465 17.9387
540 2 2.2208 10.563 14.3816 19.3888
551 2 2.2208 7.49538 14.3418 16.6693
532 2 2.2208 10.5167 16.9696 16.6414
534 1 -1.1104 11.9189 18.542 17.378
537 1 -1.1104 12.3529 20.264 14.8302
539 1 -1.1104 12.0508 15.7968 18.0421
541 2 2.2208 10.6025 19.9084 19.4005
542 1 -1.1104 12.153 16.1226 15.1358
545 1 -1.1104 9.08082 18.5392 18.1261
546 2 2.2208 7.68534 17.1572 19.433
549 1 -1.1104 9.35425 18.481 15.1969
552 2 2.2208 7.77069 19.9305 16.651
553 1 -1.1104 9.12596 15.7523 17.9693
554 1 -1.1104 9.26765 15.7567 15.1948
538 1 -1.1104 12.1888 18.5766 20.4305
550 1 -1.1104 9.3302 18.6521 20.8013
543 1 -1.1104 11.9954 15.8749 20.709
343 2 2.2208 4.9711 0.409021 27.658
713 2 2.2208 7.61592 14.1194 22.1149
363 1 -1.1104 0.584714 -3.787 20.8692
624 1 -1.1104 11.8652 18.5695 23.6491
375 1 -1.1104 0.799109 -1.28908 20.532
560 2 2.2208 4.82638 0.240595 22.0697
561 1 -1.1104 0.620492 -4.06561 23.7937
565 1 -1.1104 0.497678 -4.04471 26.4453
569 1 -1.1104 0.618904 -1.26621 23.3834
571 2 2.2208 4.86395 -2.62105 24.9541
573 1 -1.1104 0.850095 -1.2579 26.3943
575 1 -1.1104 3.50922 -3.98334 23.4732
577 2 2.2208 2.27227 0.17704 24.9627
578 1 -1.1104 3.41123 -3.9815 26.2123
580 2 2.2208 2.0712 -2.5205 22.0577
582 1 -1.1104 3.49327 -1.16389 23.3933
583 1 -1.1104 3.56631 -1.21482 26.1912
570 1 -1.1104 6.3478 -1.17757 23.4941
563 1 -1.1104 6.28647 -3.99837 23.6591
574 1 -1.1104 6.48168 -0.885329 26.2199
567 1 -1.1104 6.41718 -4.01417 26.3084
423 1 -1.1104 9.13638 -1.27302 20.6069
395 2 2.2208 13.3659 8.58731 16.4732
717 2 2.2208 7.75561 17.1969 24.9498
616 2 2.2208 10.5474 17.1395 22.1901
710 1 -1.1104 9.12518 15.6402 26.5556
622 2 2.2208 13.3213 -2.60542 22.1806
495 2 2.2208 7.75364 11.4937 13.819
416 1 -1.1104 9.11952 -3.98327 20.783
596 2 2.2208 10.6207 0.244617 21.8642
597 1 -1.1104 12.033 -4.03883 23.4739
599 1 -1.1104 11.9696 -4.17783 26.4782
601 1 -1.1104 11.8017 -1.25579 23.5642
602 2 2.2208 10.7107 -2.65611 24.9336
604 1 -1.1104 12.2038 -1.18324 26.3289
605 1 -1.1104 9.30486 -3.87985 23.4922
607 2 2.2208 7.85637 0.010884 24.7819
608 1 -1.1104 9.29068 -4.10988 26.3111
610 2 2.2208 7.74638 -2.58955 22.1395
612 1 -1.1104 9.18408 -0.980867 23.1762
613 1 -1.1104 9.51186 -1.23518 26.2266
429 2 2.2208 13.5872 20.1103 16.7204
451 1 -1.1104 6.48604 4.64268 20.6356
9470 2 2.2208 2.15468 -5.37077 13.7371
463 1 -1.1104 3.54486 4.56301 20.7251
447 1 -1.1104 0.744918 4.37417 20.9943
562 1 -1.1104 0.724352 1.65392 23.556
566 1 -1.1104 0.886275 1.36632 26.6324
572 2 2.2208 5.04607 2.88134 24.9171
576 1 -1.1104 3.4941 1.67595 23.4691
579 1 -1.1104 3.59343 1.58611 26.3677
581 2 2.2208 2.29202 2.95223 22.0935
625 2 2.2208 5.04481 5.86718 21.9735
629 1 -1.1104 0.882655 7.02569 26.3756
631 1 -1.1104 0.794874 4.33023 23.5137
636 1 -1.1104 0.653062 4.2155 26.4078
641 2 2.2208 2.28022 5.70931 24.7946
645 1 -1.1104 3.66971 4.3404 23.519
647 1 -1.1104 3.65084 4.36853 26.276
627 1 -1.1104 0.783499 7.01719 23.6473
640 1 -1.1104 3.66529 6.90432 23.4843
643 1 -1.1104 3.5771 7.50109 26.2867
630 1 -1.1104 6.48994 7.16699 26.4343
633 1 -1.1104 6.57 4.3943 23.298
638 1 -1.1104 6.41554 4.41133 26.3602
568 1 -1.1104 6.51088 1.71106 26.3469
628 1 -1.1104 6.47385 7.3436 23.6565
406 1 -1.1104 12.0948 1.68677 20.8229
490 1 -1.1104 9.24421 4.51314 20.9422
564 1 -1.1104 6.36359 1.44831 23.5319
485 1 -1.1104 9.13424 7.2416 20.9484
679 2 2.2208 13.531 5.92533 25.0152
392 2 2.2208 13.5136 2.98238 22.3065
598 1 -1.1104 11.8934 1.40353 23.4579
600 1 -1.1104 12.2321 1.70197 26.3432
603 2 2.2208 10.8367 2.99593 24.9287
606 1 -1.1104 9.106 1.71769 23.4264
609 1 -1.1104 9.44581 1.66543 26.438
611 2 2.2208 7.84145 3.13365 22.1465
657 1 -1.1104 9.17086 4.60679 26.1094
659 1 -1.1104 9.55128 4.37485 23.5259
663 2 2.2208 7.72825 5.7967 24.8853
664 2 2.2208 10.7757 5.88597 22.0942
666 1 -1.1104 12.1874 7.15948 23.4402
668 1 -1.1104 12.3706 4.43327 23.5805
671 1 -1.1104 12.0318 4.53432 26.3995
661 1 -1.1104 8.9765 7.39448 26.3704
673 1 -1.1104 9.19766 7.4751 23.7073
667 1 -1.1104 11.9917 7.26922 26.3182
356 2 2.2208 10.5751 5.99087 27.534
465 1 -1.1104 3.36143 9.86128 20.8044
712 2 2.2208 7.89403 19.8622 22.312
521 1 -1.1104 3.65258 12.8053 20.9878
502 1 -1.1104 0.70786 12.8592 20.7299
626 2 2.2208 5.04003 11.2952 22.1559
632 1 -1.1104 0.644736 10.2489 23.7827
635 2 2.2208 5.16066 8.60176 25.0836
637 1 -1.1104 0.864236 10.0459 26.6001
642 2 2.2208 2.34857 11.3871 25.1446
644 2 2.2208 2.11902 8.40238 22.2443
646 1 -1.1104 3.56172 9.77012 23.699
648 1 -1.1104 3.62245 10.1851 26.7127
682 1 -1.1104 3.72542 12.4808 23.7518
686 1 -1.1104 0.995476 12.9279 26.4793
692 1 -1.1104 0.921207 12.923 23.6234
697 1 -1.1104 3.87827 13.0504 26.6802
681 1 -1.1104 6.49491 12.995 26.553
639 1 -1.1104 6.33854 10.2197 26.2787
690 1 -1.1104 6.43552 12.7613 23.6978
506 1 -1.1104 6.27126 12.8553 20.6646
634 1 -1.1104 6.52385 10.0916 23.5664
674 2 2.2208 10.6227 19.9696 25.0808
536 1 -1.1104 12.1285 13.0315 20.8227
548 1 -1.1104 9.27578 12.7679 20.507
677 2 2.2208 13.361 11.6006 24.9544
719 1 -1.1104 9.18754 13.2954 23.4407
715 1 -1.1104 9.4662 12.8528 26.4479
621 1 -1.1104 12.1922 12.9258 23.4325
649 1 -1.1104 12.1999 13.0321 26.4284
656 1 -1.1104 9.11359 10.2311 26.5144
658 1 -1.1104 9.32092 10.2378 23.4568
660 2 2.2208 8.00623 8.75225 22.2036
662 2 2.2208 7.852 11.4968 25.0987
665 2 2.2208 10.5991 11.5495 22.0219
669 1 -1.1104 11.9164 10.2461 23.6291
670 2 2.2208 10.711 8.74795 24.9798
672 1 -1.1104 11.9901 10.1628 26.4097
391 2 2.2208 13.5888 8.76037 22.1449
655 2 2.2208 10.7918 14.3477 24.8312
514 1 -1.1104 0.690688 15.7965 20.7543
508 1 -1.1104 6.37699 18.3935 20.7675
523 1 -1.1104 3.7426 18.4144 20.8347
504 1 -1.1104 0.882479 18.6212 20.7461
711 1 -1.1104 9.16689 15.8122 23.6642
687 1 -1.1104 6.43024 18.431 23.7401
698 1 -1.1104 6.16732 15.5916 23.5743
528 1 -1.1104 3.64507 15.5649 21.0139
716 1 -1.1104 6.58815 18.4847 26.6229
699 1 -1.1104 0.805388 15.899 23.8521
689 2 2.2208 5.2026 14.3332 25.154
702 2 2.2208 2.25619 14.2791 22.3386
701 2 2.2208 2.27312 19.9932 22.3178
700 1 -1.1104 3.54493 15.7323 23.5205
680 1 -1.1104 3.51141 18.5278 23.6372
684 1 -1.1104 0.438629 18.7945 26.3573
685 1 -1.1104 0.855788 15.7558 26.6958
688 2 2.2208 5.20842 19.7819 25.2139
691 1 -1.1104 0.50662 18.6822 23.4501
693 2 2.2208 4.90989 17.0077 22.1952
694 1 -1.1104 3.67534 18.5108 26.3421
695 2 2.2208 2.17697 17.1217 25.1289
696 1 -1.1104 3.84498 15.8333 26.3489
516 1 -1.1104 6.47578 15.6612 20.7599
683 1 -1.1104 6.5486 15.7714 26.535
431 2 2.2208 13.4462 14.2979 22.0258
714 1 -1.1104 9.23036 18.5029 26.4629
720 1 -1.1104 11.9159 15.8955 26.2927
531 2 2.2208 5.13146 14.2696 13.8164
718 1 -1.1104 9.16573 18.5427 23.6898
339 2 2.2208 7.66044 0.226685 13.796
555 1 -1.1104 9.07724 15.6874 20.9179
341 2 2.2208 10.4022 -2.69799 13.697
586 2 2.2208 13.3629 20.032 22.2041
652 1 -1.1104 12.0193 15.904 23.4283
467 2 2.2208 5.03816 8.41973 13.7253
425 2 2.2208 -0.507158 16.9556 16.5198
432 2 2.2208 13.3413 17.3 24.9685
623 2 2.2208 13.3886 0.119171 25.0746
530 2 2.2208 4.89224 19.8689 13.6758
614 2 2.2208 10.4375 17.0474 27.7766
344 2 2.2208 2.1326 -2.59758 27.7598
584 2 2.2208 13.5447 14.4984 27.7013
585 2 2.2208 13.4206 20.1745 27.7964
618 2 2.2208 13.5262 11.3526 13.9091
347 2 2.2208 10.7985 0.1785 27.6143
703 2 2.2208 1.9336 19.8608 27.7373
348 2 2.2208 7.86898 -2.46547 27.6397
557 2 2.2208 10.687 14.3428 13.7961
9075 2 2.2208 5.07276 -5.27284 27.7416
494 2 2.2208 10.8312 8.79355 13.7365
493 2 2.2208 7.90396 5.85603 13.6962
558 2 2.2208 7.85896 16.9411 13.7636
721 2 2.2208 4.83048 22.6968 5.24817
723 1 -1.1104 0.613062 24.206 0.849684
724 1 -1.1104 0.630257 24.1134 3.85162
725 1 -1.1104 0.64626 21.2864 1.00506
727 2 2.2208 5.00629 25.552 2.38825
728 1 -1.1104 0.598774 21.3777 3.85524
730 1 -1.1104 3.5157 24.0627 1.10791
731 2 2.2208 2.24488 22.7636 2.37877
733 1 -1.1104 3.36665 24.1472 3.8578
734 2 2.2208 2.22405 25.611 5.42985
735 1 -1.1104 3.28896 21.4606 0.976055
737 1 -1.1104 3.48419 21.4749 3.73969
738 1 -1.1104 3.80963 26.8043 3.78263
746 1 -1.1104 6.21873 21.4213 3.85819
742 1 -1.1104 6.35112 24.1409 1.02008
729 1 -1.1104 0.72284 27.0266 4.04972
870 1 -1.1104 3.46017 27.0219 6.72365
866 1 -1.1104 6.15207 21.3667 6.64077
745 1 -1.1104 6.56491 26.8532 1.04085
867 1 -1.1104 6.36705 27.0444 6.56267
736 1 -1.1104 3.69154 26.7423 0.819857
1030 2 2.2208 13.3814 42.497 10.7581
869 1 -1.1104 3.33619 21.2216 6.77899
862 1 -1.1104 0.578559 24.242 6.7285
865 1 -1.1104 0.668521 27.0925 6.86776
744 1 -1.1104 6.19782 21.3121 1.20628
743 1 -1.1104 6.31896 24.2301 3.83547
748 2 2.2208 10.5377 22.753 5.163
750 1 -1.1104 12.015 24.3363 1.10399
751 1 -1.1104 12.0133 24.3551 3.84161
752 1 -1.1104 12.237 21.586 0.928058
754 2 2.2208 10.5468 25.7561 2.4145
755 1 -1.1104 12.0168 21.3315 3.83363
757 1 -1.1104 9.17403 24.3457 0.881619
758 2 2.2208 7.625 22.7977 2.48101
760 1 -1.1104 9.32479 23.9924 3.61006
761 2 2.2208 7.68556 25.7273 5.0529
762 1 -1.1104 9.23467 21.5559 0.857888
764 1 -1.1104 9.07367 21.2257 3.768
753 1 -1.1104 12.0572 27.1051 0.824835
895 1 -1.1104 12.0937 24.3939 6.50859
898 1 -1.1104 9.22513 24.5381 6.4299
896 1 -1.1104 11.9954 21.4699 6.37748
899 1 -1.1104 9.13644 21.6051 6.9288
766 2 2.2208 13.3165 22.9323 2.45844
1034 2 2.2208 13.3671 22.7698 8.0114
768 2 2.2208 13.4328 25.5749 5.23168
1035 2 2.2208 13.4564 28.6293 7.42034
1051 2 2.2208 10.4987 39.8269 -0.301491
726 1 -1.1104 0.638173 26.8181 1.17207
747 1 -1.1104 6.55354 26.981 3.84075
722 2 2.2208 4.87981 28.3628 5.39915
732 2 2.2208 2.26952 28.3113 2.41696
770 1 -1.1104 0.915767 29.7382 0.878489
773 1 -1.1104 0.766386 29.7567 3.60748
776 1 -1.1104 0.845376 32.6328 0.93263
777 2 2.2208 4.93459 31.2227 2.33775
779 1 -1.1104 0.849888 32.6038 3.54491
781 1 -1.1104 3.68551 29.7619 1.09924
784 1 -1.1104 3.58961 29.7185 4.10207
786 2 2.2208 2.10099 31.1737 5.34712
788 1 -1.1104 3.80238 32.6649 0.908836
789 1 -1.1104 3.61473 32.748 3.54075
793 1 -1.1104 6.38828 29.9294 0.96205
923 1 -1.1104 3.43583 32.6222 6.567
921 1 -1.1104 3.4677 29.7566 6.71032
917 1 -1.1104 6.25952 29.9623 6.60641
780 1 -1.1104 6.35668 32.665 3.75277
920 1 -1.1104 6.29806 32.6278 6.79504
795 1 -1.1104 6.47116 32.7412 0.757717
915 1 -1.1104 0.609806 29.693 6.6985
1014 1 -1.1104 9.19435 41.2299 12.3503
763 1 -1.1104 9.24286 27.2359 1.21147
765 1 -1.1104 9.27636 26.9449 3.82577
900 1 -1.1104 9.03418 27.1304 6.56603
756 1 -1.1104 12.1583 26.9459 3.94309
1032 2 2.2208 13.0682 31.3649 5.2029
794 1 -1.1104 6.31126 30.0005 3.62804
749 2 2.2208 10.4492 28.369 5.2717
759 2 2.2208 7.82824 28.6023 2.23895
797 1 -1.1104 11.864 29.7059 1.14
799 1 -1.1104 11.8441 29.8623 3.95424
801 1 -1.1104 11.8388 32.6215 1.03367
802 2 2.2208 10.4816 31.1821 2.42961
804 1 -1.1104 11.9331 32.7295 3.58652
805 1 -1.1104 9.07048 29.957 0.957595
808 1 -1.1104 8.97774 29.9464 3.68976
810 2 2.2208 7.74691 31.1855 5.03999
812 1 -1.1104 9.19396 32.8235 0.824117
813 1 -1.1104 9.26258 32.6419 3.62612
952 1 -1.1104 8.97675 29.8642 6.44909
954 1 -1.1104 9.1166 32.8265 6.36929
767 2 2.2208 13.2676 28.4012 2.42332
1259 2 2.2208 5.0321 22.6378 -0.3967
1377 2 2.2208 2.14397 42.7317 -0.275642
1012 2 2.2208 7.88785 45.4695 7.97913
769 2 2.2208 4.90867 34.1255 5.19418