ITEM: TIMESTEP
100000
ITEM: NUMBER OF ATOMS
17760
ITEM: BOX BOUNDS pp pp pp
-4.6893650275783999e-01 2.7808936502757653e+01
-5.6033953854305176e+00 3.3368339538545268e+02
-4.5258781391682346e-01 2.7792587813916036e+01
ITEM: ATOMS id type q x y z
1 2 2.2208 5.58281 -0.134605 5.24053
2 1 -1.1104 1.31562 -4.28777 0.802352
6 1 -1.1104 1.16822 -4.05671 3.81103
10 1 -1.1104 1.31699 -1.71269 1.13296
12 2 2.2208 5.47356 -2.96137 2.53619
14 1 -1.1104 1.33915 -1.35084 3.93079
16 1 -1.1104 4.12211 -4.23161 0.972886
18 2 2.2208 2.68638 -0.0996992 2.42058
19 1 -1.1104 3.88749 -4.05798 3.75354
21 2 2.2208 2.62954 -2.75063 5.21558
23 1 -1.1104 3.93179 -1.42372 1.02554
24 1 -1.1104 4.01084 -1.43506 3.74807
166 1 -1.1104 0.996858 -4.31932 6.52841
530 2 2.2208 5.52269 19.6115 13.6624
168 1 -1.1104 6.70137 -4.15582 6.54935
26 2 2.2208 -0.0655859 0.0578863 5.13396
25 2 2.2208 -0.183338 -2.77009 2.39394
201 2 2.2208 -0.424975 -0.0629098 10.9308
15 1 -1.1104 6.98464 -1.58244 4.01827
4 1 -1.1104 7.08335 -4.30317 1.21492
11 1 -1.1104 6.92587 -1.65658 1.19647
8 1 -1.1104 6.92172 -4.34478 3.85806
31 2 2.2208 11.1753 0.0970602 5.3846
32 1 -1.1104 12.6549 -4.2415 1.14168
34 1 -1.1104 12.8202 -4.09349 3.90606
36 1 -1.1104 12.5903 -1.605 0.866737
37 2 2.2208 11.0344 -2.90587 2.67394
39 1 -1.1104 12.4585 -1.02901 3.78666
40 1 -1.1104 9.9175 -4.26872 1.18454
42 2 2.2208 8.44825 -0.209863 2.49126
43 1 -1.1104 9.97163 -4.00852 4.21347
45 2 2.2208 8.34689 -2.77406 5.21714
47 1 -1.1104 9.84045 -1.45669 1.07117
48 1 -1.1104 9.78333 -1.32062 3.95897
205 1 -1.1104 12.5527 -4.11043 6.57563
210 1 -1.1104 9.80954 -1.26617 6.37098
312 2 2.2208 -0.258806 16.834 11.0385
81 2 2.2208 -0.230402 5.62855 5.24861
3 1 -1.1104 1.15951 1.19079 0.855569
7 1 -1.1104 1.34491 1.37446 3.78796
13 2 2.2208 5.23243 2.75425 2.13856
17 1 -1.1104 3.8113 1.32135 1.01601
20 1 -1.1104 4.07472 1.10631 3.89974
22 2 2.2208 2.64108 2.67783 5.26378
54 2 2.2208 5.55357 5.51812 5.35864
56 1 -1.1104 1.04905 7.00407 0.940927
60 1 -1.1104 1.12482 4.19704 1.0088
67 1 -1.1104 1.08908 4.47749 3.83578
72 2 2.2208 2.45836 5.46217 2.17139
76 1 -1.1104 3.95356 4.11004 0.895796
79 1 -1.1104 3.72319 3.8849 3.67748
58 1 -1.1104 1.60221 7.14194 3.68188
71 1 -1.1104 3.77887 7.074 1.24749
74 1 -1.1104 4.37769 6.95574 4.01766
238 1 -1.1104 3.84425 6.94273 6.66047
167 1 -1.1104 1.41838 1.3032 6.55703
239 1 -1.1104 3.92292 4.02074 6.62431
169 1 -1.1104 6.97023 1.31833 6.55562
27 2 2.2208 -0.18027 2.84024 2.35478
236 1 -1.1104 1.01635 4.17361 6.78919
173 1 -1.1104 4.21051 1.3921 6.65955
589 2 2.2208 -0.23705 8.48414 13.682
493 2 2.2208 8.27709 5.52009 13.5848
235 1 -1.1104 6.69603 7.07574 6.49391
69 1 -1.1104 6.84617 4.27735 3.66047
57 1 -1.1104 6.74697 6.87167 0.911128
9 1 -1.1104 6.90586 1.49056 3.71754
63 1 -1.1104 6.81105 3.91302 0.882846
5 1 -1.1104 6.86375 1.21012 0.928568
59 1 -1.1104 7.26646 7.02324 3.8887
33 1 -1.1104 12.4773 1.15059 1.27845
35 1 -1.1104 12.6514 1.61712 3.73841
38 2 2.2208 11.085 2.74273 2.46612
41 1 -1.1104 9.65172 1.26255 1.02597
44 1 -1.1104 9.64761 1.36949 3.86599
46 2 2.2208 8.27358 2.80194 5.12981
84 2 2.2208 10.8862 5.72399 5.19863
88 1 -1.1104 12.4378 4.09114 1.08316
92 1 -1.1104 12.1659 4.19282 3.89545
95 2 2.2208 8.21494 5.54845 2.24083
99 1 -1.1104 9.72653 4.04207 0.882553
102 1 -1.1104 9.55583 4.30207 3.71679
94 1 -1.1104 9.73593 7.00851 0.915738
86 1 -1.1104 12.4537 7.07377 0.858122
87 1 -1.1104 12.4466 7.21004 3.70582
97 1 -1.1104 9.86318 7.15134 3.7515
265 1 -1.1104 12.8239 7.01301 6.62345
209 1 -1.1104 9.74287 1.43616 6.76962
206 1 -1.1104 12.5599 1.3943 6.63233
266 1 -1.1104 12.3719 4.38529 6.66061
267 1 -1.1104 9.62863 7.07246 6.67098
237 1 -1.1104 6.86376 4.18238 6.51686
269 1 -1.1104 9.70334 4.34604 6.63147
9056 2 2.2208 2.65318 -5.61474 2.39912
55 2 2.2208 5.60482 11.1423 5.27841
61 1 -1.1104 1.09885 9.90971 1.04521
66 2 2.2208 5.40073 8.20185 2.47057
68 1 -1.1104 1.44135 9.92265 3.83271
73 2 2.2208 2.65316 11.2532 2.20844
75 2 2.2208 2.73624 8.33474 5.20423
77 1 -1.1104 4.19539 9.77686 0.829559
80 1 -1.1104 4.13058 9.88196 3.8037
107 1 -1.1104 1.4499 12.7461 0.792604
113 1 -1.1104 1.19647 12.8527 3.86114
123 1 -1.1104 4.2856 12.6838 0.864697
128 1 -1.1104 3.94178 12.6743 3.82215
124 1 -1.1104 4.05528 12.6127 6.6359
82 2 2.2208 -0.130222 8.47006 2.36888
108 1 -1.1104 1.18149 12.6255 6.62846
78 1 -1.1104 4.12769 9.91806 6.61544
83 2 2.2208 -0.0832613 11.2347 5.08752
65 1 -1.1104 7.04049 9.70034 6.72952
64 1 -1.1104 6.79586 9.78484 0.830915
110 1 -1.1104 6.90726 12.8737 0.860434
115 1 -1.1104 6.99963 12.5411 3.57179
70 1 -1.1104 6.89543 9.82175 3.74403
85 2 2.2208 11.1616 11.2492 5.08695
89 1 -1.1104 12.5014 9.84883 1.08545
91 2 2.2208 11.043 8.43816 2.30893
93 1 -1.1104 12.6946 10.1159 3.95681
96 2 2.2208 8.20548 11.1416 2.44063
98 2 2.2208 8.421 8.4735 5.3111
100 1 -1.1104 9.69781 9.99639 0.955667
103 1 -1.1104 9.70354 9.81914 3.76475
142 1 -1.1104 12.531 12.8134 0.818921
146 1 -1.1104 12.3967 12.7335 3.84941
153 1 -1.1104 9.86457 12.6627 0.754368
158 1 -1.1104 9.80987 12.5135 3.55282
143 1 -1.1104 12.4654 12.6548 6.60955
154 1 -1.1104 9.66122 12.5699 6.65359
90 1 -1.1104 12.4964 9.80613 6.5873
101 1 -1.1104 9.91497 9.82124 6.55184
424 2 2.2208 -0.163974 13.8418 13.6568
137 2 2.2208 -0.137489 17.0149 5.40505
119 2 2.2208 5.55675 14.1156 2.26367
130 2 2.2208 2.66252 13.9911 5.22775
106 2 2.2208 5.41958 16.9371 5.30353
109 1 -1.1104 1.15382 18.2763 1.05346
114 1 -1.1104 1.42478 18.3184 4.00184
116 1 -1.1104 1.24324 15.4329 0.861782
120 2 2.2208 5.67505 19.8265 2.33057
121 1 -1.1104 1.36861 15.5378 3.92545
125 1 -1.1104 3.90342 18.1222 1.11106
127 2 2.2208 2.71052 17.0501 2.54965
129 1 -1.1104 4.16483 18.5296 3.98611
131 2 2.2208 2.70482 19.8032 5.32122
132 1 -1.1104 4.11848 15.5759 0.863861
134 1 -1.1104 4.05577 15.61 3.73545
348 2 2.2208 8.41537 -2.88795 -0.349297
126 1 -1.1104 4.16907 18.5129 6.67531
302 1 -1.1104 1.18375 18.4341 6.66228
117 1 -1.1104 1.46823 15.4334 6.9165
135 2 2.2208 0.0573447 14.3027 2.38054
122 1 -1.1104 6.97982 15.2723 3.77835
118 1 -1.1104 6.92452 15.4534 6.64935
140 1 -1.1104 6.97201 15.5557 0.970151
139 1 -1.1104 7.03301 18.1312 3.73027
138 1 -1.1104 6.91302 18.316 0.855386
160 2 2.2208 8.416 13.9923 5.06404
150 2 2.2208 11.1032 13.9457 2.26724
141 2 2.2208 10.9663 16.8454 5.23322
144 1 -1.1104 12.5803 18.353 1.03252
147 1 -1.1104 12.4402 18.4237 3.71315
148 1 -1.1104 12.6951 15.5399 0.65192
151 2 2.2208 11.082 19.6354 2.37441
152 1 -1.1104 12.5528 15.3779 3.85059
155 1 -1.1104 9.85535 18.351 1.02793
157 2 2.2208 8.32898 16.7719 2.4217
159 1 -1.1104 9.76549 18.1645 3.88113
161 2 2.2208 8.29229 19.641 5.05395
162 1 -1.1104 9.66559 15.6725 0.920087
164 1 -1.1104 9.75039 15.263 3.70891
156 1 -1.1104 9.5426 18.0995 6.54999
149 1 -1.1104 12.5112 15.354 6.58595
112 1 -1.1104 7.05459 18.0407 6.49893
163 1 -1.1104 9.80668 15.2845 6.51261
145 1 -1.1104 12.3704 18.2172 6.66339
314 1 -1.1104 9.76744 15.2993 9.26753
172 1 -1.1104 3.77027 -4.20365 6.51838
170 1 -1.1104 1.22372 -1.37571 6.67223
174 1 -1.1104 4.33674 -1.52535 6.70707
317 2 2.2208 8.27944 14.133 10.8588
200 2 2.2208 -0.11119 -2.87726 8.05256
707 2 2.2208 -0.0022981 16.8954 -0.430445
175 2 2.2208 5.43039 -0.103056 10.9852
176 1 -1.1104 1.1946 -4.16326 12.5041
180 1 -1.1104 1.29978 -4.19388 9.56073
184 1 -1.1104 1.01369 -1.27285 12.3625
186 2 2.2208 5.32401 -2.97613 8.04189
188 1 -1.1104 1.29798 -1.39126 9.47712
190 1 -1.1104 4.15644 -4.029 12.2474
192 2 2.2208 2.83829 0.189209 8.16273
193 1 -1.1104 3.92589 -4.53352 9.41506
195 2 2.2208 2.51741 -2.73365 10.7921
197 1 -1.1104 3.81031 -1.43583 12.447
198 1 -1.1104 4.07758 -1.62912 9.5485
329 1 -1.1104 12.8827 19.0046 12.5396
349 2 2.2208 8.20064 2.59393 -0.369292
207 1 -1.1104 12.7927 -1.51354 6.55829
171 1 -1.1104 7.00969 -1.42718 6.74644
208 1 -1.1104 9.76517 -4.32207 6.97769
189 1 -1.1104 7.12651 -1.34412 9.40252
182 1 -1.1104 6.74122 -4.29841 9.37519
178 1 -1.1104 7.07804 -4.23006 12.3462
185 1 -1.1104 6.60602 -1.5952 12.2681
211 2 2.2208 11.0759 0.131013 10.7441
212 1 -1.1104 12.463 -4.18173 12.1744
214 1 -1.1104 12.2825 -4.16887 9.47659
216 1 -1.1104 12.3673 -1.40885 12.0931
217 2 2.2208 11.1207 -2.83389 8.24648
219 1 -1.1104 12.5228 -1.32546 9.3183
220 1 -1.1104 9.58793 -4.3162 12.4011
222 2 2.2208 8.30576 -0.00210428 7.97434
223 1 -1.1104 9.74005 -4.25017 9.59175
225 2 2.2208 8.13385 -2.97892 10.7866
227 1 -1.1104 9.509 -1.5076 12.0691
228 1 -1.1104 9.83796 -1.31878 9.33077
288 1 -1.1104 7.09217 18.4017 9.372
9057 2 2.2208 5.50354 -5.62282 5.22608
316 2 2.2208 8.31283 19.6428 10.7768
234 1 -1.1104 1.1949 7.04504 6.40505
9064 2 2.2208 -0.159561 -5.54824 10.8585
177 1 -1.1104 1.01085 1.44231 12.063
181 1 -1.1104 1.40163 1.44963 9.52042
187 2 2.2208 5.39307 2.8248 8.23858
191 1 -1.1104 3.84048 1.37541 12.3114
194 1 -1.1104 4.14843 1.3902 9.31985
196 2 2.2208 2.57375 2.75339 10.9065
240 2 2.2208 5.56658 5.91696 10.915
244 1 -1.1104 1.2723 6.72426 9.54006
246 1 -1.1104 1.2512 4.26297 12.2204
251 1 -1.1104 1.00351 4.21915 9.53545
256 2 2.2208 2.49138 5.55344 7.91388
260 1 -1.1104 4.10437 4.41877 12.3162
262 1 -1.1104 4.01688 4.27255 9.35689
242 1 -1.1104 1.01334 6.95361 12.2999
258 1 -1.1104 4.17709 7.02546 9.59129
255 1 -1.1104 3.96742 7.21452 12.2568
320 2 2.2208 8.42113 16.7824 7.8679
199 2 2.2208 -0.131935 2.51076 8.01316
29 2 2.2208 -0.246562 5.5575 11.0474
326 1 -1.1104 12.6822 15.7311 12.3808
338 2 2.2208 5.3207 2.98111 13.6129
615 2 2.2208 8.59808 19.6908 -0.397801
179 1 -1.1104 6.71715 1.11248 12.265
253 1 -1.1104 6.91633 4.27714 9.35976
243 1 -1.1104 6.86716 7.17195 12.2111
183 1 -1.1104 6.81062 1.46622 9.59295
248 1 -1.1104 6.61609 4.29629 12.0609
245 1 -1.1104 6.99337 7.01472 9.36463
213 1 -1.1104 12.4211 1.51664 12.0482
215 1 -1.1104 12.5372 1.34363 9.49229
218 2 2.2208 11.066 2.99293 7.96511
221 1 -1.1104 9.76071 1.12329 12.3499
224 1 -1.1104 9.73663 1.6253 9.49457
226 2 2.2208 8.26345 2.89944 10.6462
268 1 -1.1104 9.58557 4.41582 9.3903
271 1 -1.1104 9.55726 4.15803 12.243
275 2 2.2208 8.22674 5.72623 8.03826
276 2 2.2208 10.9935 5.74549 10.9145
280 1 -1.1104 12.5598 4.18696 12.1069
283 1 -1.1104 12.4387 4.25287 9.39343
278 1 -1.1104 12.5124 6.90488 12.3579
285 1 -1.1104 9.785 7.15806 12.4449
279 1 -1.1104 12.5063 6.9214 9.39773
30 2 2.2208 -0.0679051 8.31953 8.04305
62 1 -1.1104 1.59926 9.60057 6.82391
241 2 2.2208 5.49194 11.1064 10.7853
247 1 -1.1104 1.40072 9.76468 12.1898
250 2 2.2208 5.41265 8.42779 8.08549
252 1 -1.1104 1.23238 9.56559 9.42829
257 2 2.2208 2.7107 11.2395 7.81597
259 2 2.2208 2.47989 8.36005 10.9287
261 1 -1.1104 4.35491 9.96738 12.4021
263 1 -1.1104 4.16229 9.82004 9.32066
287 1 -1.1104 4.09325 12.6866 12.3903
294 1 -1.1104 1.26788 12.5868 9.45769
299 1 -1.1104 1.16449 12.5395 12.3786
305 1 -1.1104 4.17321 12.6279 9.54519
705 2 2.2208 2.79913 14.2103 -0.383768
51 2 2.2208 -0.125306 11.1158 10.7236
703 2 2.2208 2.74227 19.7992 -0.415551
111 1 -1.1104 6.80137 12.4775 6.47931
9071 2 2.2208 11.3336 -5.56091 -0.370096
347 2 2.2208 11.2907 -0.0653313 -0.259902
273 1 -1.1104 9.81354 7.11471 9.52623
290 1 -1.1104 6.89406 12.7131 9.27724
297 1 -1.1104 6.91945 12.4235 12.2562
249 1 -1.1104 7.03344 9.89923 12.3114
254 1 -1.1104 6.86684 9.8751 9.4836
330 1 -1.1104 12.469 12.6863 12.1251
328 1 -1.1104 12.6824 12.4476 9.68474
322 1 -1.1104 9.67532 12.5313 12.4015
319 1 -1.1104 9.75637 12.6699 9.64079
264 1 -1.1104 9.57779 9.94239 9.4156
270 1 -1.1104 9.96685 9.87204 12.2161
272 2 2.2208 8.41473 8.50195 10.8867
274 2 2.2208 8.34607 11.218 8.03917
277 2 2.2208 11.1495 11.2436 11.0184
281 1 -1.1104 12.6796 9.79862 12.4495
282 2 2.2208 11.2902 8.40118 8.09715
284 1 -1.1104 12.5027 9.64333 9.62138
296 1 -1.1104 6.94666 18.3603 12.091
466 2 2.2208 2.4513 5.80025 13.7228
136 2 2.2208 -0.211528 19.6745 2.35519
339 2 2.2208 8.18648 -0.130992 13.6399
133 1 -1.1104 4.15253 15.5662 6.70947
313 2 2.2208 -0.126367 14.2915 8.07756
318 1 -1.1104 9.84874 18.0909 9.33406
311 2 2.2208 -0.116884 19.733 7.93422
295 2 2.2208 5.50527 13.953 7.94217
310 2 2.2208 2.76573 13.9286 11.0236
286 1 -1.1104 4.09716 18.4275 12.2787
291 1 -1.1104 1.23014 18.2253 9.6183
292 1 -1.1104 1.46328 15.4053 9.62048
293 2 2.2208 5.41807 19.6383 8.19469
298 1 -1.1104 1.43279 18.4222 12.3161
300 2 2.2208 5.56388 16.8518 10.9741
301 1 -1.1104 4.11717 18.208 9.57912
303 2 2.2208 2.71281 17.0161 8.20897
304 1 -1.1104 4.02363 15.6789 9.63167
307 1 -1.1104 1.29257 15.5277 12.3159
308 1 -1.1104 4.13363 15.3505 12.6378
309 2 2.2208 2.55938 19.7028 10.8037
315 1 -1.1104 9.84272 15.2823 12.1179
325 2 2.2208 11.1754 13.8138 8.13062
321 1 -1.1104 9.85243 18.1208 12.3905
323 1 -1.1104 12.6222 15.3917 9.4456
327 1 -1.1104 12.6579 18.053 9.48692
324 2 2.2208 11.0771 19.6445 7.90105
306 1 -1.1104 7.09423 15.5186 12.4102
289 1 -1.1104 6.96027 15.4296 9.57823
331 2 2.2208 11.0615 16.6093 10.7597
343 2 2.2208 5.56229 -0.0122027 -0.345707
356 2 2.2208 10.9493 5.65038 -0.41097
346 2 2.2208 -0.27763 0.0362457 -0.408562
353 2 2.2208 2.49618 8.53327 -0.387331
529 2 2.2208 2.79897 16.8237 13.6559
342 2 2.2208 11.1587 2.87477 13.4098
341 2 2.2208 10.846 -3.03774 13.6128
467 2 2.2208 5.62061 8.35818 13.5982
592 2 2.2208 8.47528 14.0483 -0.434406
357 2 2.2208 5.46401 0.193144 16.6094
358 1 -1.1104 1.32136 -4.10677 17.8944
362 1 -1.1104 1.54679 -4.01903 15.1956
370 1 -1.1104 1.1821 -1.3785 18.0598
372 2 2.2208 5.56234 -2.72889 19.3233
374 1 -1.1104 1.10119 -1.3482 15.2016
378 1 -1.1104 4.02155 -4.14919 17.8814
380 2 2.2208 2.71994 -0.139273 19.3565
381 1 -1.1104 4.29305 -4.22858 15.0691
385 2 2.2208 2.75929 -2.73462 16.5581
387 1 -1.1104 4.10042 -1.45342 17.9763
388 1 -1.1104 3.99379 -1.21386 15.1877
375 1 -1.1104 1.39385 -1.44127 20.5743
9358 2 2.2208 5.58302 -5.57302 22.1313
363 1 -1.1104 1.14184 -4.33937 20.8344
9418 2 2.2208 -0.13381 -5.63886 22.2264
366 1 -1.1104 6.98 -4.3784 15.2097
382 1 -1.1104 4.09256 -4.34426 20.5789
653 2 2.2208 -0.317598 8.40725 25.0284
389 1 -1.1104 4.24257 -1.42568 20.8145
393 2 2.2208 -0.095995 -0.0541726 16.7035
377 1 -1.1104 7.17594 -1.50111 20.7249
376 1 -1.1104 6.7928 -1.35405 15.0464
360 1 -1.1104 6.85977 -4.20632 18.087
371 1 -1.1104 6.88204 -1.15451 17.9346
400 2 2.2208 10.961 -0.101145 16.1859
401 1 -1.1104 12.4565 -4.24055 17.6814
403 1 -1.1104 12.4083 -4.26757 15.0628
407 1 -1.1104 12.4678 -1.14663 17.6371
408 2 2.2208 11.0738 -2.55232 19.1893
410 1 -1.1104 12.1931 -1.54745 14.8158
412 1 -1.1104 9.53377 -4.32134 18.1521
414 2 2.2208 8.26437 -0.0305577 19.4173
415 1 -1.1104 9.50204 -4.19095 15.2074
419 2 2.2208 8.09593 -2.86231 16.51
421 1 -1.1104 9.67982 -1.55069 17.7951
422 1 -1.1104 9.49859 -1.63847 14.9682
411 1 -1.1104 12.6411 -1.43498 20.6744
416 1 -1.1104 9.79721 -4.12092 20.9067
404 1 -1.1104 12.5751 -4.14639 20.5543
354 2 2.2208 -0.229291 11.347 27.7498
590 2 2.2208 -0.304335 5.48541 16.5024
359 1 -1.1104 1.39519 1.47741 17.6428
364 1 -1.1104 1.22712 1.41415 14.9674
373 2 2.2208 5.45955 2.78948 19.4529
379 1 -1.1104 3.96273 1.45569 18.1108
383 1 -1.1104 4.03262 1.60806 15.0362
386 2 2.2208 2.66471 2.81152 16.297
433 2 2.2208 5.52686 5.47483 16.525
435 1 -1.1104 1.37598 6.92698 17.6338
441 1 -1.1104 1.0521 4.16058 17.9898
446 1 -1.1104 1.24891 4.26166 15.2433
455 2 2.2208 2.60432 5.68225 19.3142
457 1 -1.1104 4.05146 7.22172 14.9492
460 1 -1.1104 4.33746 3.95586 17.7042
462 1 -1.1104 4.04237 4.38045 15.0774
437 1 -1.1104 1.12657 6.89427 15.1097
454 1 -1.1104 4.26062 6.9111 17.908
365 1 -1.1104 1.36972 1.40313 20.5527
439 1 -1.1104 7.01043 6.81701 15.0195
458 1 -1.1104 4.31088 7.03266 20.779
384 1 -1.1104 4.26642 1.45764 20.7082
436 1 -1.1104 6.86314 7.04861 17.6738
398 2 2.2208 -0.318378 2.76071 19.3148
463 1 -1.1104 4.03993 4.23522 20.8284
447 1 -1.1104 1.01796 4.19241 20.6932
438 1 -1.1104 1.36334 7.25262 20.5386
361 1 -1.1104 6.96513 1.393 18.0423
450 1 -1.1104 6.95581 4.14643 15.17
369 1 -1.1104 7.05258 1.3236 20.8574
443 1 -1.1104 6.86982 4.19497 17.9366
368 1 -1.1104 6.83792 1.21061 15.0792
402 1 -1.1104 12.5241 1.53303 17.9077
405 1 -1.1104 12.4954 1.19723 14.773
409 2 2.2208 11.071 2.78707 19.1584
413 1 -1.1104 9.65493 1.31254 17.7847
417 1 -1.1104 9.60428 1.38331 15.1297
420 2 2.2208 8.19669 2.8335 16.4414
469 2 2.2208 11.1672 5.61995 16.5012
474 1 -1.1104 12.4858 4.16577 17.5512
477 1 -1.1104 12.4038 4.12403 14.9465
482 2 2.2208 8.4014 5.38723 19.2167
487 1 -1.1104 9.73307 4.06266 17.7606
489 1 -1.1104 9.67349 4.23417 14.9618
481 1 -1.1104 9.79589 6.93744 17.8536
472 1 -1.1104 12.6019 7.04202 15.237
484 1 -1.1104 9.68072 7.02895 14.9816
471 1 -1.1104 12.5084 6.86854 17.9636
418 1 -1.1104 9.70388 1.42579 20.6713
485 1 -1.1104 9.50077 7.01032 20.7883
478 1 -1.1104 12.4044 4.20869 20.7852
451 1 -1.1104 6.86411 4.15783 20.5339
490 1 -1.1104 9.78513 4.15065 20.625
473 1 -1.1104 12.5808 6.91798 20.6445
556 2 2.2208 11.1075 19.522 13.6643
591 2 2.2208 -0.12339 8.43871 19.2777
434 2 2.2208 5.40639 11.1402 16.4733
442 1 -1.1104 1.35109 9.60849 18.1026
445 2 2.2208 5.39358 8.31154 19.3536
448 1 -1.1104 1.25282 9.86637 15.2247
456 2 2.2208 2.62429 11.3053 19.2488
459 2 2.2208 2.71574 8.41956 16.359
461 1 -1.1104 3.92549 9.90916 17.8956
464 1 -1.1104 4.06165 9.94421 15.1426
497 1 -1.1104 1.09343 12.9763 17.9999
501 1 -1.1104 1.22006 12.6879 15.0929
517 1 -1.1104 3.87563 12.8536 17.9457
520 1 -1.1104 4.12588 12.5679 15.2701
452 1 -1.1104 6.91329 9.8334 15.0902
521 1 -1.1104 3.85332 12.5522 20.8925
502 1 -1.1104 1.31967 12.6569 20.5996
617 2 2.2208 -0.0938644 11.1621 16.563
9304 2 2.2208 8.33239 -5.61514 25.0802
716 1 -1.1104 6.98716 18.2562 26.4748
505 1 -1.1104 6.91289 12.6331 15.1061
506 1 -1.1104 6.72928 12.5437 20.7604
444 1 -1.1104 6.79985 9.84043 17.9492
499 1 -1.1104 6.7748 12.5681 17.9259
453 1 -1.1104 6.70062 9.81923 20.7225
470 2 2.2208 11.0986 11.2337 16.5774
475 1 -1.1104 12.689 9.74962 17.9862
476 2 2.2208 10.9856 8.33969 19.2734
479 1 -1.1104 12.291 10.0116 15.0326
483 2 2.2208 8.1289 11.1627 19.4246
486 2 2.2208 8.3614 8.30048 16.4108
488 1 -1.1104 9.73633 9.76367 17.855
491 1 -1.1104 9.57545 9.76843 15.1214
533 1 -1.1104 12.4316 12.6015 18.1495
535 1 -1.1104 12.6193 12.6437 15.0709
544 1 -1.1104 9.62385 12.5935 18.1516
547 1 -1.1104 9.66188 12.432 15.0873
480 1 -1.1104 12.2854 9.79328 20.7716
536 1 -1.1104 12.6833 12.6467 20.7638
548 1 -1.1104 9.43278 12.7288 20.6705
492 1 -1.1104 9.60937 9.86754 20.7195
654 2 2.2208 -0.162175 11.1666 22.015
9429 2 2.2208 8.14195 -5.61099 13.8553
511 2 2.2208 5.29013 14.1411 19.3241
524 2 2.2208 2.60925 14.143 16.517
496 2 2.2208 5.5176 16.8712 16.6671
498 1 -1.1104 1.07427 18.3462 17.9522
503 1 -1.1104 1.29532 18.037 15.3172
509 1 -1.1104 1.35301 15.6904 18.0267
512 2 2.2208 5.43015 19.654 19.4578
513 1 -1.1104 1.06368 15.4748 15.1102
518 1 -1.1104 4.04558 18.2906 18.0034
519 2 2.2208 2.61046 17.1514 19.3567
522 1 -1.1104 4.22368 18.3631 15.135
525 2 2.2208 2.6354 19.7257 16.3784
526 1 -1.1104 4.06559 15.7083 17.9874
527 1 -1.1104 4.0436 15.6394 15.286
514 1 -1.1104 1.19096 15.4811 20.8757
426 2 2.2208 -0.175222 14.1329 19.4155
504 1 -1.1104 1.27885 18.5768 20.6387
528 1 -1.1104 3.94746 15.2646 20.8691
523 1 -1.1104 4.0173 18.5192 21.0188
427 2 2.2208 -0.0105659 19.9813 19.2473
9469 2 2.2208 2.67669 -5.52666 19.4213
507 1 -1.1104 7.20299 18.1838 14.9101
500 1 -1.1104 6.90518 18.1351 18.1321
675 2 2.2208 8.30809 8.37546 27.866
515 1 -1.1104 7.02758 15.345 15.0709
510 1 -1.1104 6.94068 15.2978 17.8111
551 2 2.2208 8.24878 13.7881 16.5561
543 1 -1.1104 12.4093 15.3451 20.4948
540 2 2.2208 11.0244 13.9734 19.4577
532 2 2.2208 11.1179 16.7735 16.6681
534 1 -1.1104 12.3467 18.231 18.0896
537 1 -1.1104 12.5471 18.2141 15.4305
539 1 -1.1104 12.8248 15.4024 17.7847
541 2 2.2208 11.1203 19.7092 19.4666
542 1 -1.1104 12.8231 15.3198 14.8436
545 1 -1.1104 9.56239 18.0834 18.1649
546 2 2.2208 8.33593 17.0032 19.5719
549 1 -1.1104 9.9327 17.8828 15.2294
552 2 2.2208 8.31314 19.5421 16.5735
553 1 -1.1104 9.69208 15.384 17.9743
554 1 -1.1104 9.97089 15.3478 15.1758
550 1 -1.1104 9.74568 18.3858 20.9612
516 1 -1.1104 6.9459 15.464 20.7927
538 1 -1.1104 12.7414 18.2532 21.0261
555 1 -1.1104 9.65325 15.6097 20.7744
9470 2 2.2208 2.65581 -5.47536 13.7765
720 1 -1.1104 12.5103 15.5666 26.2196
425 2 2.2208 -0.217687 16.7993 16.5306
560 2 2.2208 5.63765 0.0869906 22.307
561 1 -1.1104 1.39092 -4.35482 23.4979
565 1 -1.1104 1.17448 -4.24506 26.2143
569 1 -1.1104 1.28623 -1.59629 23.3068
571 2 2.2208 5.59549 -2.77379 25.0992
573 1 -1.1104 1.13533 -1.32473 26.1841
575 1 -1.1104 4.23813 -4.18367 23.5422
577 2 2.2208 2.62346 -0.164439 24.9149
578 1 -1.1104 4.06098 -4.1451 26.4479
580 2 2.2208 2.75109 -2.87293 22.1148
582 1 -1.1104 3.97043 -1.54543 23.6186
583 1 -1.1104 4.18896 -1.31944 26.3789
567 1 -1.1104 6.69665 -4.10345 26.5374
495 2 2.2208 8.34751 11.1346 13.6808
687 1 -1.1104 6.95765 18.4515 23.6837
710 1 -1.1104 9.86111 15.4923 26.3389
594 2 2.2208 -0.0562204 -0.0965025 22.1135
345 2 2.2208 2.74392 2.62736 27.6623
9467 2 2.2208 -0.0376275 -5.43814 16.5638
423 1 -1.1104 9.88604 -1.29729 20.8087
367 1 -1.1104 6.87391 -4.13127 20.9033
563 1 -1.1104 6.91141 -4.22278 23.7858
574 1 -1.1104 6.95515 -1.46629 26.587
570 1 -1.1104 6.85878 -1.29272 23.8719
596 2 2.2208 11.1412 0.00924437 22.1754
597 1 -1.1104 12.6355 -3.99046 23.3582
599 1 -1.1104 12.5395 -4.2365 26.3226
601 1 -1.1104 12.3544 -1.41196 23.7783
602 2 2.2208 11.1783 -2.8053 25.2262
604 1 -1.1104 12.54 -1.26975 26.4677
605 1 -1.1104 9.88312 -4.19282 23.7252
607 2 2.2208 8.23452 -0.00330128 25.1181
608 1 -1.1104 9.73701 -4.24929 26.6176
610 2 2.2208 8.32986 -2.76528 22.3415
612 1 -1.1104 9.60565 -1.36191 23.7874
613 1 -1.1104 9.76135 -1.71332 26.5155
9305 2 2.2208 11.1185 -5.52129 22.327
683 1 -1.1104 7.03885 15.499 26.3817
440 1 -1.1104 6.9738 6.87222 20.5663
676 2 2.2208 11.1098 11.3515 27.6714
595 2 2.2208 -0.184509 2.86772 24.8951
562 1 -1.1104 1.22542 1.29026 23.4219
566 1 -1.1104 1.38155 1.4769 26.2799
572 2 2.2208 5.51919 2.79927 24.8707
576 1 -1.1104 4.00644 1.1908 23.7138
579 1 -1.1104 4.21912 1.52035 26.3906
581 2 2.2208 2.60851 2.74611 22.0752
625 2 2.2208 5.29704 5.57457 22.1421
629 1 -1.1104 1.24773 6.87979 26.3754
631 1 -1.1104 1.21517 4.22076 23.4548
636 1 -1.1104 1.34664 4.19983 26.274
641 2 2.2208 2.64546 5.61171 24.9147
645 1 -1.1104 3.8933 3.93745 23.6129
647 1 -1.1104 4.00156 4.3599 26.2496
643 1 -1.1104 3.88961 6.94387 26.4552
627 1 -1.1104 1.23971 7.12428 23.5285
640 1 -1.1104 3.90988 6.9543 23.556
630 1 -1.1104 6.45326 6.92935 26.2445
633 1 -1.1104 6.58258 4.28408 23.5077
674 2 2.2208 11.2147 19.5989 25.0043
406 1 -1.1104 12.4516 1.4337 20.7626
638 1 -1.1104 6.99522 4.13637 26.2432
628 1 -1.1104 6.9676 6.97475 23.5998
564 1 -1.1104 6.83711 1.41937 23.7055
568 1 -1.1104 6.9208 1.27082 26.4444
598 1 -1.1104 12.2068 1.13005 23.6922
600 1 -1.1104 12.5534 1.40534 26.6325
603 2 2.2208 11.0194 2.66361 25.1278
606 1 -1.1104 9.55281 1.56843 23.5759
609 1 -1.1104 9.85258 1.20059 26.4251
611 2 2.2208 8.3413 2.84969 22.146
657 1 -1.1104 9.59154 4.17155 26.4819
659 1 -1.1104 9.37806 4.3572 23.6088
663 2 2.2208 8.16538 5.69879 24.937
664 2 2.2208 10.9812 5.70288 22.0545
666 1 -1.1104 12.4179 6.78519 23.337
668 1 -1.1104 12.1596 3.76093 23.6939
671 1 -1.1104 12.6458 4.34515 26.4644
673 1 -1.1104 9.6656 7.12452 23.463
667 1 -1.1104 12.1947 6.95524 26.2234
698 1 -1.1104 6.95239 15.6176 23.539
355 2 2.2208 -0.175816 5.45189 27.6903
593 2 2.2208 0.0657587 -2.9055 24.8715
494 2 2.2208 11.1595 8.45736 13.8388
344 2 2.2208 2.82157 -2.81765 27.7926
449 1 -1.1104 1.12459 10.0177 20.6776
465 1 -1.1104 4.05814 9.75433 20.8099
626 2 2.2208 5.26852 11.1247 22.0983
632 1 -1.1104 1.12288 9.55351 23.5927
635 2 2.2208 5.43066 8.52314 25.1542
637 1 -1.1104 1.18775 9.85275 26.4149
642 2 2.2208 2.54768 11.1764 24.7419
644 2 2.2208 2.64139 8.44392 22.1854
646 1 -1.1104 3.98082 9.50666 23.7247
648 1 -1.1104 4.09085 10.0237 26.3682
682 1 -1.1104 3.98947 12.5927 23.5363
686 1 -1.1104 0.959989 12.4692 26.1798
692 1 -1.1104 1.16949 12.5895 23.3107
697 1 -1.1104 3.97907 12.7726 26.1905
624 1 -1.1104 12.5677 18.2744 23.617
661 1 -1.1104 9.27619 6.99525 26.479
639 1 -1.1104 6.96353 9.77152 26.4657
681 1 -1.1104 6.92776 12.5399 26.3318
634 1 -1.1104 6.90247 10.0161 23.5582
690 1 -1.1104 6.90765 12.7789 23.4294
719 1 -1.1104 9.83823 12.5337 23.4434
715 1 -1.1104 9.7025 12.6839 26.1732
621 1 -1.1104 12.6107 12.6097 23.4144
649 1 -1.1104 12.6692 12.5804 26.2596
656 1 -1.1104 9.7458 9.79166 26.2875
658 1 -1.1104 9.77889 9.85737 23.4836
660 2 2.2208 8.29634 8.47455 22.1186
662 2 2.2208 8.44069 11.1824 24.9105
665 2 2.2208 11.019 11.304 21.8893
669 1 -1.1104 12.5106 9.94217 23.6163
670 2 2.2208 11.1475 8.49134 24.9112
672 1 -1.1104 12.493 9.79075 26.4993
396 2 2.2208 -0.211708 19.8853 13.8154
652 1 -1.1104 12.6393 15.4586 23.3697
352 2 2.2208 5.34582 5.55566 27.627
709 2 2.2208 -0.0510117 16.9152 22.0251
706 2 2.2208 -0.194459 14.0266 24.8725
711 1 -1.1104 9.76808 15.3721 23.6897
708 2 2.2208 -0.317338 19.6787 24.9422
702 2 2.2208 2.71493 14.0425 22.0682
699 1 -1.1104 1.30714 15.6657 23.5423
689 2 2.2208 5.47196 14.0326 24.9695
701 2 2.2208 2.6389 19.7073 22.2092
700 1 -1.1104 4.15977 15.5642 23.4668
680 1 -1.1104 4.15383 18.3848 23.8078
684 1 -1.1104 1.59388 18.0009 26.5277
685 1 -1.1104 1.56186 15.096 26.2279
688 2 2.2208 5.5822 19.7594 25.1273
691 1 -1.1104 1.18551 18.4412 23.5312
693 2 2.2208 5.62345 17.0189 22.284
694 1 -1.1104 4.22181 18.5161 26.676
695 2 2.2208 2.7901 16.8272 24.9472
696 1 -1.1104 4.3893 15.6415 26.2065
616 2 2.2208 11.2565 16.8485 22.1837
390 2 2.2208 -0.3847 5.61535 22.0902
713 2 2.2208 8.26332 13.9579 22.1434
650 1 -1.1104 12.5627 18.345 26.3355
717 2 2.2208 8.38901 16.8181 25.0502
508 1 -1.1104 6.93064 18.4169 20.9539
651 2 2.2208 5.51742 11.257 27.639
714 1 -1.1104 9.91526 18.386 26.5155
712 2 2.2208 8.52098 19.7284 22.4245
718 1 -1.1104 9.87666 18.2447 23.5721
655 2 2.2208 11.287 14.0905 25.1234
394 2 2.2208 -0.135048 -2.88065 19.3645
557 2 2.2208 11.1772 13.8288 13.7089
337 2 2.2208 -0.284556 2.67845 13.6169
614 2 2.2208 11.1691 16.8434 27.9252
334 2 2.2208 -0.162837 -2.79375 13.6489
531 2 2.2208 5.64986 14.0472 13.8231
335 2 2.2208 5.44584 -2.70842 13.7634
558 2 2.2208 8.50186 16.7147 13.793
468 2 2.2208 2.88659 11.2997 13.8209
336 2 2.2208 2.66147 -0.067035 13.8291
704 2 2.2208 5.5432 16.9414 27.7297
721 2 2.2208 5.44167 22.6664 5.00415
723 1 -1.1104 1.35152 23.7661 0.688497
724 1 -1.1104 1.20401 23.9448 3.70219
725 1 -1.1104 1.35762 21.0601 0.921777
727 2 2.2208 5.51397 25.4968 2.26791
728 1 -1.1104 1.46847 21.1737 3.67806
730 1 -1.1104 4.20381 23.8716 0.974567
731 2 2.2208 2.689 22.3669 2.34221
733 1 -1.1104 4.08485 24.0026 3.71073
734 2 2.2208 2.64871 25.2769 5.1234
735 1 -1.1104 4.25754 21.1187 0.724286
737 1 -1.1104 4.23797 21.2792 3.65435
736 1 -1.1104 4.18513 26.6146 0.778951
870 1 -1.1104 4.4401 26.8119 6.49731
726 1 -1.1104 1.23939 26.5482 0.828419
729 1 -1.1104 1.27639 26.5683 3.76991
739 2 2.2208 -0.0623187 25.1949 2.27342
738 1 -1.1104 3.97169 26.9654 3.45607
869 1 -1.1104 3.86427 21.4094 6.43671
741 2 2.2208 -0.0970202 22.5781 5.20137
1086 2 2.2208 2.80024 22.8338 13.4263
745 1 -1.1104 7.07265 26.8663 0.822885
743 1 -1.1104 6.78451 24.0383 3.75133
746 1 -1.1104 7.08469 21.1133 3.77401
744 1 -1.1104 6.96894 21.0939 0.771658
742 1 -1.1104 7.1255 23.9622 1.01286
867 1 -1.1104 7.07666 26.7559 6.47068
748 2 2.2208 11.1284 22.5534 5.08865
750 1 -1.1104 12.6825 23.845 0.840279
751 1 -1.1104 12.7075 23.8951 3.87426
752 1 -1.1104 12.5362 20.9172 1.01335
754 2 2.2208 11.2453 25.3317 2.28074
755 1 -1.1104 12.5694 21.0478 3.84552
757 1 -1.1104 10.0252 23.9711 0.820946
758 2 2.2208 8.49776 22.5655 2.37036
760 1 -1.1104 9.71864 24.0133 3.55447
761 2 2.2208 8.4336 25.38 5.09981
762 1 -1.1104 9.88526 21.0528 0.988228
764 1 -1.1104 9.84679 21.0833 3.72136
753 1 -1.1104 12.4715 26.7185 0.964212
756 1 -1.1104 12.6441 26.6537 3.71158
895 1 -1.1104 12.5559 23.7252 6.64226
896 1 -1.1104 12.5775 21.1792 6.48186
900 1 -1.1104 9.86858 26.8173 6.52733
866 1 -1.1104 6.62439 20.9617 6.52035
898 1 -1.1104 9.57158 23.7817 6.26866
747 1 -1.1104 6.76244 26.7308 3.69705
763 1 -1.1104 9.78688 26.7095 0.929538
765 1 -1.1104 9.83095 26.7569 3.79203
863 1 -1.1104 6.9167 23.8532 6.62811
899 1 -1.1104 9.57223 20.9769 6.54236
722 2 2.2208 5.60617 28.2309 5.08358
732 2 2.2208 2.50623 28.1394 2.20885
770 1 -1.1104 1.15794 29.505 0.958912
773 1 -1.1104 1.18693 29.6073 3.52181
776 1 -1.1104 1.31879 32.3778 1.15558
777 2 2.2208 5.551 31.1438 2.65742
779 1 -1.1104 1.34091 32.3357 3.91596
781 1 -1.1104 3.93019 29.6649 0.945946
784 1 -1.1104 3.97105 29.5932 3.88651
786 2 2.2208 2.59763 30.9219 5.1579
788 1 -1.1104 4.06327 32.4116 1.15346
789 1 -1.1104 4.29476 32.4169 4.08416
919 1 -1.1104 1.27912 32.5028 6.48972
915 1 -1.1104 1.3635 29.463 6.65263
923 1 -1.1104 4.01407 32.5433 6.80491
921 1 -1.1104 4.07228 29.6685 6.46508
740 2 2.2208 -0.0406278 28.0866 5.10987
791 2 2.2208 -0.110581 30.95 2.44294
795 1 -1.1104 6.82979 32.5343 1.13166
917 1 -1.1104 6.78644 29.665 6.43653
794 1 -1.1104 6.87076 29.5494 3.65575
780 1 -1.1104 7.00653 32.3957 3.87453
793 1 -1.1104 6.89632 29.6768 1.05493
749 2 2.2208 11.1706 28.2072 5.16709
759 2 2.2208 8.51028 28.2659 2.28676
797 1 -1.1104 12.3252 29.4014 0.882369
799 1 -1.1104 12.5359 29.646 3.7306
801 1 -1.1104 12.6138 32.3892 1.01617
802 2 2.2208 11.0831 31.0529 2.28955
804 1 -1.1104 12.5148 32.632 3.70674
805 1 -1.1104 9.72014 29.6718 0.80329
808 1 -1.1104 9.67068 29.5197 3.65224
810 2 2.2208 8.30064 30.8911 5.11135
812 1 -1.1104 9.83988 32.4084 0.895247
813 1 -1.1104 9.76368 32.3018 3.82049
951 1 -1.1104 12.3599 32.6121 6.42119
954 1 -1.1104 9.64541 32.4626 6.55729
952 1 -1.1104 9.80069 29.6129 6.42754
920 1 -1.1104 6.72641 32.4273 6.85382
949 1 -1.1104 12.5424 29.603 6.88012
839 2 2.2208 -0.540871 39.5914 5.04621
769 2 2.2208 5.39061 33.8151 5.38224
771 1 -1.1104 1.27313 35.4414 0.865916
774 1 -1.1104 1.34282 35.345 3.4813
778 2 2.2208 5.52665 36.5717 2.25214
782 1 -1.1104 4.2426 35.2382 0.965648
783 2 2.2208 2.68751 33.9657 2.49848
785 1 -1.1104 4.14806 35.049 3.79421
787 2 2.2208 2.64272 36.6444 5.22456
815 2 2.2208 5.15137 39.5555 4.93381