ITEM: TIMESTEP
10000
ITEM: NUMBER OF ATOMS
17760
ITEM: BOX BOUNDS pp pp pp
-4.7355641176688074e-01 2.7813556411766790e+01
-5.5351199342653530e+00 3.3361511993427018e+02
-4.6199785055290482e-01 2.7801997850553050e+01
ITEM: ATOMS id type q x y z
1 2 2.2208 5.01182 0.194227 5.09517
2 1 -1.1104 0.800934 -4.02212 0.956395
6 1 -1.1104 0.877293 -4.28313 3.95508
10 1 -1.1104 0.949878 -1.40693 0.901103
12 2 2.2208 5.04214 -2.4936 2.29464
14 1 -1.1104 0.618025 -1.4098 3.55072
16 1 -1.1104 3.5271 -3.78223 0.986063
18 2 2.2208 2.147 0.256811 2.19292
19 1 -1.1104 3.66971 -3.66112 3.47421
21 2 2.2208 2.20318 -2.62999 4.85087
23 1 -1.1104 3.70383 -1.20283 0.748328
24 1 -1.1104 3.94392 -0.906898 3.35018
4 1 -1.1104 6.54969 -4.08672 0.685592
11 1 -1.1104 6.60818 -1.24266 0.92178
8 1 -1.1104 6.66218 -3.79887 3.50903
15 1 -1.1104 6.66837 -1.19997 3.92363
28 2 2.2208 13.2336 19.7228 10.6724
467 2 2.2208 5.08319 8.86877 13.5842
31 2 2.2208 10.7521 0.227343 5.32158
32 1 -1.1104 12.0513 -4.12356 0.781433
34 1 -1.1104 12.351 -3.92888 3.76698
36 1 -1.1104 12.074 -1.19973 0.737892
37 2 2.2208 10.7961 -2.47612 2.18655
39 1 -1.1104 12.1566 -1.25133 3.48408
40 1 -1.1104 9.26229 -4.29503 0.644473
42 2 2.2208 7.90802 0.175838 2.34884
43 1 -1.1104 9.41908 -3.9686 3.76716
45 2 2.2208 8.14327 -2.58093 5.04418
47 1 -1.1104 9.4722 -1.21131 0.866647
48 1 -1.1104 9.60022 -1.27724 3.82172
205 1 -1.1104 12.0203 -4.10065 6.50722
556 2 2.2208 10.5842 19.5961 13.5492
233 2 2.2208 13.417 2.8239 5.13375
49 2 2.2208 13.3268 0.141463 2.18836
333 2 2.2208 13.4993 14.3652 10.658
208 1 -1.1104 9.31566 -4.06987 6.71282
50 2 2.2208 13.5275 -2.67124 5.24391
9061 2 2.2208 13.6137 -5.40561 2.32252
3 1 -1.1104 0.853369 1.31602 0.956121
7 1 -1.1104 0.673478 1.36336 3.92022
13 2 2.2208 4.96006 2.90195 2.28008
17 1 -1.1104 3.62604 1.45898 0.857081
20 1 -1.1104 3.64835 1.82865 3.77922
22 2 2.2208 2.12184 3.11319 5.3296
54 2 2.2208 5.10751 5.72398 4.99012
56 1 -1.1104 0.876603 7.29136 0.966177
58 1 -1.1104 0.705258 7.2069 3.75832
60 1 -1.1104 0.677811 4.39575 0.918931
67 1 -1.1104 0.777467 4.2122 3.89845
72 2 2.2208 2.07219 5.84796 2.28635
74 1 -1.1104 3.58913 7.14938 3.56501
76 1 -1.1104 3.30338 4.28807 0.902444
79 1 -1.1104 3.38387 4.44739 3.63861
71 1 -1.1104 3.7135 7.1749 0.877146
234 1 -1.1104 1.04689 7.33758 6.37274
239 1 -1.1104 3.69944 4.29385 6.71941
5 1 -1.1104 6.54114 1.55642 1.14206
59 1 -1.1104 6.66814 6.9328 4.14478
63 1 -1.1104 6.28607 4.53031 0.913183
9 1 -1.1104 6.22472 1.64196 3.72887
69 1 -1.1104 6.29446 4.24032 3.49999
57 1 -1.1104 6.50518 7.08872 0.915047
173 1 -1.1104 3.68142 1.42401 6.59829
167 1 -1.1104 0.787342 1.74991 6.67154
236 1 -1.1104 0.638914 4.6078 6.62153
235 1 -1.1104 6.44268 7.338 6.74777
9056 2 2.2208 2.33633 -5.38287 2.28884
33 1 -1.1104 12.1821 1.56044 0.69738
35 1 -1.1104 12.0474 1.52098 3.51125
38 2 2.2208 10.7155 2.98792 2.33434
41 1 -1.1104 9.29776 1.43046 0.821085
44 1 -1.1104 9.22814 1.51478 3.66742
46 2 2.2208 7.7395 2.95281 4.97455
84 2 2.2208 10.6496 5.68604 5.1165
86 1 -1.1104 12.1211 7.06228 0.765502
87 1 -1.1104 12.0427 7.05959 3.72793
88 1 -1.1104 11.9045 4.41914 1.18813
92 1 -1.1104 11.9559 4.22202 3.76532
95 2 2.2208 7.76068 5.84287 2.50062
97 1 -1.1104 9.37426 7.16382 3.69593
99 1 -1.1104 9.20973 4.40781 0.879062
102 1 -1.1104 9.22702 4.37885 3.9022
94 1 -1.1104 9.2933 6.99833 0.970054
9470 2 2.2208 2.30939 -5.30049 13.4602
325 2 2.2208 10.6552 14.182 7.88001
335 2 2.2208 5.04607 -2.49455 13.5949
265 1 -1.1104 12.0574 7.10694 6.59878
269 1 -1.1104 9.35129 4.41212 6.72084
317 2 2.2208 7.7884 14.2458 10.8315
55 2 2.2208 4.94523 11.4618 5.24196
61 1 -1.1104 0.827796 10.2341 0.816303
66 2 2.2208 5.01257 8.51152 2.3444
68 1 -1.1104 0.753632 9.90217 3.69653
73 2 2.2208 2.24598 11.2962 2.42175
75 2 2.2208 2.25158 8.55001 5.00418
77 1 -1.1104 3.64932 9.87757 0.922035
80 1 -1.1104 3.73448 9.89121 3.79125
107 1 -1.1104 0.903727 13.1628 1.08021
113 1 -1.1104 0.965722 12.7657 3.83986
123 1 -1.1104 3.57654 13.0448 1.09736
128 1 -1.1104 3.75627 12.8004 3.99639
108 1 -1.1104 0.461958 12.9312 6.67106
64 1 -1.1104 6.28941 9.97058 0.949147
115 1 -1.1104 6.4544 12.9371 3.53186
70 1 -1.1104 6.40064 9.69365 3.81457
65 1 -1.1104 6.52592 10.308 6.45479
111 1 -1.1104 6.27017 13.017 6.47532
341 2 2.2208 10.7243 -2.38185 13.5477
104 2 2.2208 13.4686 11.3606 2.50693
232 2 2.2208 13.2854 8.55735 5.51635
85 2 2.2208 10.5792 11.445 5.12023
89 1 -1.1104 11.9947 9.98018 0.929533
91 2 2.2208 10.6613 8.44868 2.32389
93 1 -1.1104 12.0882 9.93308 3.95567
96 2 2.2208 7.69502 11.2662 2.22252
98 2 2.2208 7.72816 8.73856 5.27198
100 1 -1.1104 9.18565 9.88496 1.05074
103 1 -1.1104 9.17595 10.0386 3.69622
110 1 -1.1104 6.34405 12.9071 0.812239
142 1 -1.1104 11.869 12.8266 0.751402
146 1 -1.1104 11.9717 12.6822 3.71277
153 1 -1.1104 9.17641 12.7055 0.952943
158 1 -1.1104 9.19565 12.8731 3.71567
9057 2 2.2208 5.00238 -5.43246 5.16081
143 1 -1.1104 11.8451 12.7498 6.45977
101 1 -1.1104 9.40701 10.1394 6.50117
9063 2 2.2208 5.11881 -5.39191 10.6938
130 2 2.2208 2.14855 14.1232 5.18245
119 2 2.2208 5.10223 14.3392 2.44776
106 2 2.2208 4.92874 17.1423 5.172
109 1 -1.1104 0.812088 18.6204 0.840858
114 1 -1.1104 0.656288 18.5236 3.72705
116 1 -1.1104 0.764781 15.8328 0.789557
120 2 2.2208 5.08614 20.0443 2.14122
121 1 -1.1104 0.664572 15.6205 3.76513
125 1 -1.1104 3.62791 18.6206 1.26201
127 2 2.2208 2.17792 17.1045 2.40654
129 1 -1.1104 3.38732 18.3193 3.9695
131 2 2.2208 2.10912 19.9302 4.92951
132 1 -1.1104 3.84545 15.7677 1.40026
134 1 -1.1104 3.72307 15.3965 4.01554
138 1 -1.1104 6.24085 18.4195 0.873421
139 1 -1.1104 6.43106 18.4917 3.61931
140 1 -1.1104 6.54589 15.5891 0.817139
122 1 -1.1104 6.5675 15.7514 3.88529
126 1 -1.1104 3.41218 18.5256 6.54864
112 1 -1.1104 6.27143 18.8799 6.35073
9429 2 2.2208 7.9 -5.40058 13.5183
204 2 2.2208 13.5561 14.191 5.09076
160 2 2.2208 7.7954 14.3043 5.27216
231 2 2.2208 13.4531 19.8158 5.11802
141 2 2.2208 10.504 16.9369 4.98734
144 1 -1.1104 12.0371 18.4749 0.629807
147 1 -1.1104 11.927 18.3913 3.65787
148 1 -1.1104 12.022 15.6553 0.810049
150 2 2.2208 10.6045 14.1549 2.28707
151 2 2.2208 10.6409 19.8422 2.26397
152 1 -1.1104 12.1343 15.4069 3.60183
155 1 -1.1104 9.35371 18.3369 0.970049
157 2 2.2208 7.79057 16.9621 2.1701
159 1 -1.1104 9.17571 18.523 3.51511
161 2 2.2208 7.8987 19.9739 4.99606
162 1 -1.1104 9.29098 15.6478 0.733103
164 1 -1.1104 9.26879 15.6172 3.53201
149 1 -1.1104 11.9713 15.6064 6.26759
145 1 -1.1104 11.9071 18.4132 6.60421
156 1 -1.1104 9.18103 18.2931 6.36021
163 1 -1.1104 9.29415 15.4693 6.5407
174 1 -1.1104 3.53762 -1.41619 6.17686
170 1 -1.1104 0.834993 -1.04485 6.49496
166 1 -1.1104 0.830207 -4.10125 6.77628
172 1 -1.1104 3.36621 -4.00395 6.41948
175 2 2.2208 5.01483 -0.0447252 10.751
176 1 -1.1104 0.829892 -4.11581 12.3185
180 1 -1.1104 0.862089 -3.90984 9.49582
184 1 -1.1104 0.902564 -1.26043 12.1374
186 2 2.2208 4.72 -2.66119 7.8928
188 1 -1.1104 0.805874 -1.05875 9.22034
190 1 -1.1104 3.62373 -3.90087 12.1072
192 2 2.2208 2.20185 0.257314 8.00421
193 1 -1.1104 3.56049 -4.08297 9.32512
195 2 2.2208 2.20818 -2.63339 10.7389
197 1 -1.1104 3.66069 -1.30907 12.1498
198 1 -1.1104 3.59493 -1.22873 9.31207
182 1 -1.1104 6.3002 -4.00825 9.17798
185 1 -1.1104 6.50737 -1.1834 12.1488
189 1 -1.1104 6.32933 -1.20735 9.18088
315 1 -1.1104 9.40749 15.9701 12.3723
168 1 -1.1104 6.60353 -4.14423 6.50427
171 1 -1.1104 6.5899 -1.26689 6.31477
331 2 2.2208 10.6102 16.9559 10.5331
165 2 2.2208 13.4336 17.0369 2.282
105 2 2.2208 13.4702 5.82301 2.41456
230 2 2.2208 13.4677 -2.61241 11.0487
210 1 -1.1104 9.52206 -1.38564 6.5581
207 1 -1.1104 12.0727 -1.33231 6.73466
178 1 -1.1104 6.46255 -3.93162 12.0034
211 2 2.2208 10.6505 0.215332 10.7896
212 1 -1.1104 11.8907 -3.71702 12.2858
214 1 -1.1104 12.2723 -4.16382 9.46109
216 1 -1.1104 12.0394 -1.0962 12.2662
217 2 2.2208 10.7618 -2.74509 8.01697
219 1 -1.1104 12.1969 -1.49315 9.63077
220 1 -1.1104 9.15535 -3.95493 12.165
222 2 2.2208 7.8683 0.0779732 7.86392
223 1 -1.1104 9.41778 -4.10934 9.26805
225 2 2.2208 7.78853 -2.51698 10.7124
227 1 -1.1104 9.16162 -1.26104 12.1411
228 1 -1.1104 9.31312 -1.29984 9.50836
200 2 2.2208 -0.43787 -2.58344 7.99114
9422 2 2.2208 13.4865 -5.22888 13.5763
558 2 2.2208 7.79778 17.0498 13.6583
177 1 -1.1104 0.98285 1.4154 12.0692
181 1 -1.1104 0.655516 1.68426 9.37505
187 2 2.2208 5.168 2.72617 7.88887
191 1 -1.1104 3.81751 1.56434 12.2123
194 1 -1.1104 3.75578 1.68225 9.37028
196 2 2.2208 2.30939 2.84457 10.8303
240 2 2.2208 5.07724 5.65731 10.6995
242 1 -1.1104 0.769639 7.41399 12.0606
244 1 -1.1104 0.858624 7.38578 9.21616
246 1 -1.1104 0.786095 4.37594 12.0743
251 1 -1.1104 0.649081 4.49657 9.16984
255 1 -1.1104 3.77156 7.11004 12.2324
256 2 2.2208 2.27153 5.92802 7.95936
258 1 -1.1104 3.59387 7.40361 9.67691
260 1 -1.1104 3.5043 4.33248 12.2238
262 1 -1.1104 3.46719 4.64493 9.29256
237 1 -1.1104 6.56762 4.63277 6.25901
179 1 -1.1104 6.51131 1.70959 12.1888
183 1 -1.1104 6.52798 1.47238 9.40119
169 1 -1.1104 6.3858 1.32407 6.41838
245 1 -1.1104 6.62007 7.44815 9.39329
248 1 -1.1104 6.4697 4.4655 12.0702
253 1 -1.1104 6.44735 4.42182 9.27113
338 2 2.2208 5.11525 3.0439 13.5459
202 2 2.2208 13.679 5.73314 8.15866
9059 2 2.2208 7.89241 -5.33541 2.2033
209 1 -1.1104 9.00708 1.75564 6.41862
243 1 -1.1104 6.33433 7.34892 12.0667
206 1 -1.1104 12.1442 1.51809 6.58403
266 1 -1.1104 12.1524 4.42963 6.41203
267 1 -1.1104 9.30225 7.30332 6.60245
213 1 -1.1104 12.1573 1.62382 12.4041
215 1 -1.1104 12.1264 1.37926 9.05263
218 2 2.2208 10.6093 2.89631 7.72105
221 1 -1.1104 9.45332 1.43456 12.2958
224 1 -1.1104 9.24625 1.73397 9.46277
226 2 2.2208 7.79155 3.01439 10.7036
268 1 -1.1104 9.21736 4.52091 9.40517
271 1 -1.1104 9.16341 4.28918 12.1722
273 1 -1.1104 9.37582 7.19547 9.30581
275 2 2.2208 7.78951 5.95618 7.92309
276 2 2.2208 10.645 5.77281 10.6817
278 1 -1.1104 11.83 7.40034 12.047
279 1 -1.1104 12.1228 7.11813 9.50208
280 1 -1.1104 12.1108 4.60469 12.1551
283 1 -1.1104 12.1303 4.21874 9.24961
285 1 -1.1104 9.25938 7.32096 12.1546
329 1 -1.1104 11.9519 18.2138 12.1317
320 2 2.2208 7.81831 17.0685 8.14497
336 2 2.2208 2.14932 0.141823 13.5163
238 1 -1.1104 3.88164 6.93929 6.4624
124 1 -1.1104 3.48298 12.6522 6.58152
323 1 -1.1104 12.1399 15.7574 9.28578
62 1 -1.1104 0.961209 10.2358 6.37131
78 1 -1.1104 3.71877 9.9154 6.48158
241 2 2.2208 4.87968 11.6401 10.7033
247 1 -1.1104 1.05483 10.1177 12.1986
250 2 2.2208 4.95098 8.47085 8.01616
252 1 -1.1104 0.64369 10.1638 9.37919
257 2 2.2208 1.96477 11.4609 8.01103
259 2 2.2208 2.33474 8.82442 10.8979
261 1 -1.1104 3.7813 10.1709 12.3054
263 1 -1.1104 3.5421 10.1692 9.49192
287 1 -1.1104 3.44057 12.8728 12.2353
294 1 -1.1104 0.538448 12.9972 9.54926
299 1 -1.1104 0.627884 12.7786 12.3522
305 1 -1.1104 3.34311 12.8412 9.29043
249 1 -1.1104 6.53491 10.0783 12.1743
254 1 -1.1104 6.36943 10.2269 9.32192
290 1 -1.1104 6.46676 13.0114 9.3868
297 1 -1.1104 6.17971 12.7974 12.2077
53 2 2.2208 13.3504 11.4645 8.09934
52 2 2.2208 13.4995 8.55467 10.9776
529 2 2.2208 2.23387 17.0367 13.5493
154 1 -1.1104 9.02814 12.8657 6.49111
90 1 -1.1104 12.046 9.81967 6.88047
330 1 -1.1104 12.044 12.7217 11.9995
328 1 -1.1104 11.7957 12.8829 9.35952
322 1 -1.1104 8.98332 13.2206 12.217
319 1 -1.1104 9.16738 12.8666 9.22174
264 1 -1.1104 9.10222 10.0414 9.37143
270 1 -1.1104 9.22938 10.4133 12.2274
272 2 2.2208 7.92559 8.61666 10.8895
274 2 2.2208 7.72574 11.5207 7.89436
277 2 2.2208 10.6332 11.4383 10.6624
281 1 -1.1104 12.1792 9.82393 12.3439
282 2 2.2208 10.6708 8.56099 8.07758
284 1 -1.1104 12.0552 9.86323 9.64008
117 1 -1.1104 0.607537 15.7067 6.56018
318 1 -1.1104 9.22912 18.5931 9.32832
288 1 -1.1104 6.23042 18.3149 9.31732
133 1 -1.1104 3.6162 15.5352 6.5638
302 1 -1.1104 0.629438 18.4529 6.3083
296 1 -1.1104 6.48435 18.3652 12.2548
306 1 -1.1104 6.55913 15.6519 12.2259
310 2 2.2208 2.00522 14.0969 10.8144
286 1 -1.1104 3.65146 18.297 12.3107
291 1 -1.1104 0.838148 18.4683 9.10814
292 1 -1.1104 0.702674 15.605 9.53815
293 2 2.2208 4.94776 19.8025 7.87811
295 2 2.2208 4.91547 14.2117 7.96328
298 1 -1.1104 0.471354 18.8611 11.9881
300 2 2.2208 4.85758 16.8219 10.7998
301 1 -1.1104 3.51645 18.4781 9.44867
303 2 2.2208 2.12908 17.0085 7.83932
304 1 -1.1104 3.69994 15.5264 9.26906
307 1 -1.1104 0.815529 15.9283 12.133
308 1 -1.1104 3.60802 15.4566 12.0961
309 2 2.2208 2.17667 19.8161 10.7722
289 1 -1.1104 6.46163 15.6681 9.5958
118 1 -1.1104 6.21424 16.0001 6.69141
339 2 2.2208 7.94761 0.29661 13.5704
9060 2 2.2208 10.8236 -5.26943 5.02426
321 1 -1.1104 9.17849 18.4484 12.2528
332 2 2.2208 13.3495 16.9943 7.82293
316 2 2.2208 7.67278 19.7963 10.7966
326 1 -1.1104 12.1943 15.5209 12.4017
314 1 -1.1104 9.27459 15.5838 9.51596
324 2 2.2208 10.5482 19.8845 7.75066
327 1 -1.1104 11.8965 18.5657 9.38123
531 2 2.2208 5.008 14.0595 13.6377
9066 2 2.2208 10.6353 -5.25072 10.8469
25 2 2.2208 -0.459831 -2.82383 2.11571
9062 2 2.2208 2.14842 -5.41587 7.79759
493 2 2.2208 7.92563 5.81207 13.5624
466 2 2.2208 2.50302 5.92084 13.6109
651 2 2.2208 4.9644 11.3298 -0.45118
557 2 2.2208 10.6505 14.3639 13.633
9067 2 2.2208 13.5938 -5.4718 8.08077
203 2 2.2208 13.4771 3.00246 10.9577
584 2 2.2208 13.558 14.0914 -0.30536
704 2 2.2208 5.18471 16.9642 -0.436159
342 2 2.2208 10.9126 3.03891 13.5636
618 2 2.2208 13.5537 11.4069 13.538
495 2 2.2208 7.80541 11.5936 13.4977
705 2 2.2208 2.16339 14.3821 -0.257675
494 2 2.2208 10.5621 8.84304 13.5846
397 2 2.2208 13.3627 6.03076 13.6421
352 2 2.2208 5.00494 5.87858 -0.362525
614 2 2.2208 10.5377 16.9595 -0.452184
592 2 2.2208 7.94896 14.1168 -0.431045
675 2 2.2208 7.7643 8.48482 -0.412842
615 2 2.2208 7.83283 19.7228 -0.36429
357 2 2.2208 5.1247 0.288362 16.5342
358 1 -1.1104 0.934078 -4.00193 17.9181
362 1 -1.1104 0.702469 -4.01562 15.1788
370 1 -1.1104 0.665664 -1.28606 17.8912
372 2 2.2208 4.99139 -2.52294 19.1193
374 1 -1.1104 0.86155 -1.22612 15.01
378 1 -1.1104 3.76148 -3.91398 17.6567
380 2 2.2208 2.20565 0.17 19.2574
381 1 -1.1104 3.42697 -3.94726 14.7932
385 2 2.2208 2.36684 -2.57922 16.4234
387 1 -1.1104 3.59287 -1.20365 17.7251
388 1 -1.1104 3.72246 -1.14479 15.0798
360 1 -1.1104 6.49514 -4.14997 17.8078
363 1 -1.1104 0.854047 -4.05578 20.6982
432 2 2.2208 13.5083 17.0752 24.8816
366 1 -1.1104 6.19164 -4.2331 14.7599
9355 2 2.2208 13.4719 -5.39164 24.7474
616 2 2.2208 10.5532 17.1525 22.0045
382 1 -1.1104 3.61981 -4.01492 20.5594
585 2 2.2208 13.5037 19.7293 27.6536
371 1 -1.1104 6.5356 -1.30884 18.072
376 1 -1.1104 6.48971 -1.18219 14.9967
400 2 2.2208 10.8146 0.191602 16.4982
401 1 -1.1104 12.1682 -4.12374 17.9354
403 1 -1.1104 12.1363 -4.04279 15.0697
407 1 -1.1104 11.9004 -1.51431 17.8378
408 2 2.2208 10.6191 -2.77141 19.2759
410 1 -1.1104 12.3615 -1.24446 15.0865
412 1 -1.1104 9.2636 -4.20226 17.766
414 2 2.2208 7.88132 0.196885 19.2611
415 1 -1.1104 9.28126 -3.84142 15.0338
419 2 2.2208 7.95154 -2.59402 16.4334
421 1 -1.1104 9.34105 -1.31991 17.9141
422 1 -1.1104 9.28244 -1.02558 15.1144
423 1 -1.1104 9.41276 -1.19605 20.596
411 1 -1.1104 12.0861 -1.19512 20.6496
428 2 2.2208 13.4276 -2.63577 16.4608
678 2 2.2208 13.3982 8.54278 27.6546
367 1 -1.1104 6.23301 -3.9883 20.5523
416 1 -1.1104 9.13414 -3.96196 20.5515
431 2 2.2208 13.5812 14.1694 22.1138
399 2 2.2208 13.5647 0.0511964 19.2574
359 1 -1.1104 1.06406 1.63573 17.7682
364 1 -1.1104 1.01595 1.50242 14.9565
373 2 2.2208 5.02722 3.20833 19.218
379 1 -1.1104 3.76595 1.63869 18.0085
383 1 -1.1104 3.84061 1.71174 15.1977
386 2 2.2208 2.10097 3.183 16.2199
433 2 2.2208 5.16105 5.7799 16.368
435 1 -1.1104 0.739861 7.22933 17.7357
437 1 -1.1104 0.882512 7.25171 14.81
441 1 -1.1104 0.78735 4.31457 17.5863
446 1 -1.1104 0.773172 4.42159 14.825
454 1 -1.1104 3.56082 7.06145 17.851
455 2 2.2208 2.15101 5.78175 19.2826
457 1 -1.1104 3.62882 7.19412 15.0617
460 1 -1.1104 3.76181 4.22484 17.7085
462 1 -1.1104 3.678 4.39789 14.9917
361 1 -1.1104 6.40368 1.60638 17.7471
450 1 -1.1104 6.43969 4.35008 14.9468
436 1 -1.1104 6.59573 7.28921 18.0383
439 1 -1.1104 6.52303 7.15471 14.9659
368 1 -1.1104 6.75036 1.4774 15.0579
468 2 2.2208 2.00173 11.6049 13.6878
365 1 -1.1104 0.615094 1.62177 20.5194
447 1 -1.1104 0.638224 4.60159 20.4275
384 1 -1.1104 3.31316 1.45827 20.9324
369 1 -1.1104 6.54374 1.69313 20.4938
440 1 -1.1104 6.51045 7.46471 20.6562
443 1 -1.1104 6.50178 4.43701 17.6483
402 1 -1.1104 12.322 1.57343 17.7521
405 1 -1.1104 12.1507 1.52756 15.1542
409 2 2.2208 10.7298 2.98587 19.3826
413 1 -1.1104 9.41458 1.76481 17.847
417 1 -1.1104 9.48447 1.65105 15.0707
420 2 2.2208 8.00153 3.03058 16.4087
469 2 2.2208 10.622 5.73071 16.4306
471 1 -1.1104 12.2657 7.23285 17.8722
472 1 -1.1104 12.1965 7.54756 14.9456
474 1 -1.1104 11.9535 4.39763 17.7479
477 1 -1.1104 12.0051 4.43325 15.1208
481 1 -1.1104 9.52062 7.19304 17.9486
482 2 2.2208 7.97294 5.88662 19.3715
484 1 -1.1104 9.53509 7.38049 15.1086
487 1 -1.1104 9.27779 4.50778 18.0389
489 1 -1.1104 9.18401 4.56954 14.9711
430 2 2.2208 13.56 3.06557 16.5201
418 1 -1.1104 9.34323 1.55168 20.6417
620 2 2.2208 13.463 5.65634 19.2944
434 2 2.2208 5.07428 11.5376 16.4711
442 1 -1.1104 0.681726 9.93959 17.7664
445 2 2.2208 4.97303 8.5463 19.2083
448 1 -1.1104 0.865058 10.0916 14.9897
456 2 2.2208 2.42647 11.464 19.2458
459 2 2.2208 2.18179 8.60347 16.3839
461 1 -1.1104 3.71644 10.1167 17.9505
464 1 -1.1104 3.44054 10.1943 15.0261
497 1 -1.1104 0.892939 12.8784 18.1207
501 1 -1.1104 0.602979 13.1157 15.1781
517 1 -1.1104 3.73241 12.8759 17.7521
520 1 -1.1104 3.79368 13.0036 15.0791
521 1 -1.1104 3.52308 12.7654 20.7902
499 1 -1.1104 6.67387 12.7869 17.7962
452 1 -1.1104 6.3468 9.92114 15.0936
444 1 -1.1104 6.26469 10.0695 17.9893
505 1 -1.1104 6.42651 12.8839 14.9329
453 1 -1.1104 6.58126 9.99668 20.7746
720 1 -1.1104 12.2636 15.4571 26.289
391 2 2.2208 13.607 8.42583 22.0748
395 2 2.2208 13.5219 8.62113 16.5895
470 2 2.2208 10.7127 11.4433 16.5549
475 1 -1.1104 11.9642 10.0191 17.9723
476 2 2.2208 10.6474 8.55014 19.4011
479 1 -1.1104 12.0357 10.137 15.1594
483 2 2.2208 7.97948 11.4699 19.3934
486 2 2.2208 8.04701 8.64225 16.4261
488 1 -1.1104 9.23063 9.8576 18.0086
491 1 -1.1104 9.08629 10.051 14.9498
533 1 -1.1104 12.5233 13.0101 18.0788
535 1 -1.1104 12.244 12.801 14.9611
544 1 -1.1104 9.66502 12.981 17.8728
547 1 -1.1104 9.44801 12.748 14.9705
536 1 -1.1104 11.8876 12.848 20.7297
9471 2 2.2208 13.5271 -5.47445 19.2661
619 2 2.2208 13.4841 11.3212 19.292
480 1 -1.1104 12.0769 10.1888 20.7412
548 1 -1.1104 9.21019 13.06 20.6643
624 1 -1.1104 12.0846 18.4424 23.2705
524 2 2.2208 2.07466 14.4482 16.3829
511 2 2.2208 5.07466 14.2311 19.3531
496 2 2.2208 4.92417 16.9088 16.3795
498 1 -1.1104 0.849018 18.2251 17.5306
503 1 -1.1104 0.985427 18.4589 14.8518
509 1 -1.1104 0.93475 15.6726 17.8825
512 2 2.2208 4.87059 19.7869 19.2452
513 1 -1.1104 0.763543 15.837 14.9159
518 1 -1.1104 3.51901 18.4855 17.7084
519 2 2.2208 2.10308 17.182 19.1503
522 1 -1.1104 3.59708 18.3617 14.7996
525 2 2.2208 2.03214 19.932 16.4246
526 1 -1.1104 3.85042 15.7451 17.9994
527 1 -1.1104 3.66013 15.615 14.8314
515 1 -1.1104 6.34682 15.4561 15.1395
514 1 -1.1104 0.874529 15.7219 20.5394
500 1 -1.1104 6.36968 18.4092 18.0973
507 1 -1.1104 6.26067 18.3761 15.1579
510 1 -1.1104 6.40193 15.3972 17.8489
508 1 -1.1104 6.1444 18.4227 20.7138
712 2 2.2208 7.64902 19.7849 21.9524
713 2 2.2208 7.95461 14.27 22.0291
530 2 2.2208 4.93624 19.9062 13.7626
347 2 2.2208 10.6662 0.353297 27.6629
516 1 -1.1104 6.43867 15.5594 20.7522
540 2 2.2208 10.7918 14.2371 19.245
532 2 2.2208 10.4837 16.9152 16.524
534 1 -1.1104 11.6744 18.9028 16.8554
537 1 -1.1104 12.5999 19.3319 14.3144
539 1 -1.1104 12.0908 15.72 17.9036
541 2 2.2208 10.4404 20.029 19.2716
542 1 -1.1104 12.4324 16.1934 15.3653
545 1 -1.1104 9.13288 18.4722 17.8817
546 2 2.2208 7.7381 17.01 19.3717
549 1 -1.1104 9.25449 18.3076 15.0745
551 2 2.2208 7.80072 14.2887 16.4433
552 2 2.2208 7.72129 19.7305 16.465
553 1 -1.1104 9.03557 15.7448 17.7671
554 1 -1.1104 9.21227 15.4213 15.1263
9305 2 2.2208 10.6596 -5.37266 22.025
623 2 2.2208 13.486 0.19453 24.7876
711 1 -1.1104 9.03995 15.686 23.4709
703 2 2.2208 2.25823 20.0166 27.7913
559 2 2.2208 13.6369 17.0847 13.725
375 1 -1.1104 0.95766 -1.06128 20.9334
389 1 -1.1104 3.63253 -1.42115 20.4098
560 2 2.2208 5.03302 0.18583 21.9952
561 1 -1.1104 0.801258 -4.00235 23.5551
565 1 -1.1104 0.736636 -4.08807 26.249
569 1 -1.1104 0.843372 -1.23813 23.6674
571 2 2.2208 4.87247 -2.66098 24.8103
573 1 -1.1104 0.837576 -1.05867 26.2381
575 1 -1.1104 3.69395 -4.25632 23.3965
577 2 2.2208 2.1066 0.262775 24.8214
578 1 -1.1104 3.339 -3.96019 26.1967
580 2 2.2208 2.24093 -2.59887 22.1822
582 1 -1.1104 3.55229 -1.13572 23.566
583 1 -1.1104 3.73703 -1.3446 26.3973
570 1 -1.1104 6.50131 -1.13744 23.3686
574 1 -1.1104 6.65885 -1.24726 26.1377
563 1 -1.1104 6.35268 -4.09826 23.3632
567 1 -1.1104 6.19554 -4.19517 26.1215
622 2 2.2208 13.4348 -2.49022 22.1214
348 2 2.2208 7.93441 -2.83944 27.5487
377 1 -1.1104 6.41838 -1.23087 20.7351
404 1 -1.1104 11.953 -3.96419 20.8613
9472 2 2.2208 10.7468 -5.35487 16.2713
596 2 2.2208 10.7213 0.186925 22.0471
597 1 -1.1104 11.8852 -3.85544 23.4638
599 1 -1.1104 12.1594 -4.0147 26.3535
601 1 -1.1104 11.9926 -1.1129 23.5843
602 2 2.2208 10.6439 -2.64372 24.9175
604 1 -1.1104 12.1655 -1.31002 26.4977
605 1 -1.1104 9.01867 -4.10848 23.2405
607 2 2.2208 7.89413 0.218598 25.0358
608 1 -1.1104 9.29761 -4.43377 26.1405
610 2 2.2208 7.81505 -2.60124 22.1087
612 1 -1.1104 9.13565 -1.11405 23.6381
613 1 -1.1104 9.43263 -1.44915 26.4278
9468 2 2.2208 5.10682 -5.4663 16.4307
543 1 -1.1104 12.3948 15.4552 20.5907
351 2 2.2208 13.4915 2.82058 27.6335
438 1 -1.1104 0.714386 7.29343 20.6793
550 1 -1.1104 9.0047 18.5448 20.7629
463 1 -1.1104 3.34547 4.21429 20.5711
458 1 -1.1104 3.40463 7.30074 20.5726
562 1 -1.1104 0.719403 1.66066 23.3173
566 1 -1.1104 0.639187 1.61541 26.2197
572 2 2.2208 5.113 2.8578 24.8225
576 1 -1.1104 3.91941 1.71073 23.4297
579 1 -1.1104 3.68406 1.51871 26.468
581 2 2.2208 2.04107 2.97752 22.0502
625 2 2.2208 5.02073 5.94135 22.1124
629 1 -1.1104 0.695903 7.12809 26.4444
631 1 -1.1104 0.736768 4.48893 23.3876
636 1 -1.1104 0.504827 4.18774 26.5013
641 2 2.2208 2.0672 6.02653 24.8198
643 1 -1.1104 3.33178 7.0521 26.3835
645 1 -1.1104 3.4692 4.56183 23.5257
647 1 -1.1104 3.42637 4.38778 26.2966
627 1 -1.1104 0.83967 7.22347 23.379
638 1 -1.1104 6.25554 4.37417 26.2853
564 1 -1.1104 6.63283 1.55274 23.4874
628 1 -1.1104 6.52756 7.13318 23.5549
633 1 -1.1104 6.58111 4.36995 23.3343
568 1 -1.1104 6.32915 1.43623 26.2445
630 1 -1.1104 6.37784 7.2273 26.3773
451 1 -1.1104 6.31405 4.67785 20.5953
640 1 -1.1104 3.70177 7.32244 23.3272
478 1 -1.1104 12.1196 4.49742 20.8148
406 1 -1.1104 12.3616 1.732 20.5571
392 2 2.2208 13.6485 3.12266 22.0466
473 1 -1.1104 12.0615 7.31895 20.636
485 1 -1.1104 9.30668 7.24722 20.8355
490 1 -1.1104 9.25405 4.30329 20.7178
598 1 -1.1104 12.2205 1.58693 23.599
600 1 -1.1104 12.0381 1.4542 26.1274
603 2 2.2208 10.6642 2.90109 24.9543
606 1 -1.1104 9.43354 1.51916 23.6928
609 1 -1.1104 9.03397 1.56589 26.3144
611 2 2.2208 7.93207 2.78071 22.057
657 1 -1.1104 9.06791 4.15664 26.1999
659 1 -1.1104 9.27839 4.16025 23.5031
661 1 -1.1104 9.12077 7.17303 26.3641
663 2 2.2208 7.83476 5.73014 24.9323
664 2 2.2208 10.5722 5.56244 22.2684
666 1 -1.1104 12.0679 7.0856 23.3868
668 1 -1.1104 12.003 4.24142 23.5647
671 1 -1.1104 12.101 4.34916 26.3205
667 1 -1.1104 12.1074 7.11586 26.2781
673 1 -1.1104 9.4494 7.11671 23.4179
679 2 2.2208 13.5458 5.72639 24.8636
502 1 -1.1104 0.732362 12.8522 20.8036
449 1 -1.1104 0.969646 10.0954 20.634
717 2 2.2208 7.78794 16.9437 24.7978
652 1 -1.1104 11.9628 15.6712 23.4254
465 1 -1.1104 3.59992 9.89803 20.6171
626 2 2.2208 4.9032 11.2665 22.1685
632 1 -1.1104 0.909338 10.0084 23.5265
635 2 2.2208 4.98707 8.5767 24.9336
637 1 -1.1104 0.804627 9.99379 26.2906
642 2 2.2208 1.94438 11.4855 24.9849
644 2 2.2208 2.33522 8.62067 22.0515
646 1 -1.1104 3.60521 9.92095 23.4834
648 1 -1.1104 3.55136 9.99038 26.3636
682 1 -1.1104 3.40569 12.7447 23.6203
686 1 -1.1104 0.771459 12.7764 26.5713
692 1 -1.1104 0.684732 12.699 23.7045
697 1 -1.1104 3.46017 12.9489 26.6531
639 1 -1.1104 6.38077 9.9641 26.5074
634 1 -1.1104 6.261 9.89191 23.5781
690 1 -1.1104 6.33586 12.4216 23.594
506 1 -1.1104 6.18713 12.6734 20.6313
681 1 -1.1104 6.5196 12.9403 26.3075
689 2 2.2208 4.9359 14.1433 25.1687
350 2 2.2208 13.5671 -2.77087 27.6273
345 2 2.2208 2.16328 2.96997 27.703
9357 2 2.2208 2.17568 -5.5224 24.7767
492 1 -1.1104 9.51008 9.99553 20.8376
719 1 -1.1104 9.27772 12.8816 23.3477
715 1 -1.1104 9.3392 12.6868 26.5808
621 1 -1.1104 12.2896 12.8096 23.3414
649 1 -1.1104 12.1971 12.6863 26.3879
656 1 -1.1104 9.48376 9.8684 26.4244
658 1 -1.1104 9.25392 10.02 23.6832
660 2 2.2208 7.92995 8.64235 22.1443
662 2 2.2208 7.90925 11.3476 25.0412
665 2 2.2208 10.7682 11.3388 22.2393
669 1 -1.1104 12.2446 9.8382 23.4856
670 2 2.2208 10.8642 8.48176 24.9015
672 1 -1.1104 12.0965 10.043 26.2283
677 2 2.2208 13.596 11.2625 24.9078
714 1 -1.1104 9.31477 18.2729 26.2102
9440 2 2.2208 7.77591 -5.50443 19.1126
586 2 2.2208 13.569 19.914 21.9862
504 1 -1.1104 0.8159 18.5517 20.2646
528 1 -1.1104 3.5869 15.3089 20.7686
698 1 -1.1104 6.39727 15.3575 23.6225
523 1 -1.1104 3.58451 18.4385 20.6217
683 1 -1.1104 6.60446 15.5426 26.2596
716 1 -1.1104 6.5068 18.4982 26.525
702 2 2.2208 2.1462 14.1626 22.1183
701 2 2.2208 2.18724 19.9848 22.1289
700 1 -1.1104 3.32276 15.5977 23.7456
680 1 -1.1104 3.43878 18.2187 23.537
684 1 -1.1104 0.773676 18.7334 26.2812
685 1 -1.1104 0.739842 15.6526 26.3474
688 2 2.2208 5.02571 19.6199 25.0044
691 1 -1.1104 0.647945 18.5116 23.4699
693 2 2.2208 5.03107 16.8402 22.2443
694 1 -1.1104 3.55488 18.4855 26.4864
695 2 2.2208 2.07176 17.093 25.0713
696 1 -1.1104 3.78421 15.8134 26.6569
699 1 -1.1104 0.719509 15.6352 23.4616
9469 2 2.2208 2.18338 -5.3982 19.1774
655 2 2.2208 10.6749 14.0994 25.0887
674 2 2.2208 10.7115 19.7035 24.7839
650 1 -1.1104 12.0456 18.1784 26.2083
710 1 -1.1104 9.40638 15.6249 26.2035
555 1 -1.1104 9.43287 15.7869 20.5551
718 1 -1.1104 9.28721 18.5106 23.4676
687 1 -1.1104 6.38179 18.2985 23.7159
538 1 -1.1104 12.0914 18.2392 20.4278
344 2 2.2208 2.38 -2.5815 27.6551
353 2 2.2208 2.14881 8.64763 27.7566
356 2 2.2208 10.6073 5.6974 27.7855
343 2 2.2208 5.06505 0.07974 27.7617
349 2 2.2208 7.72922 2.86179 27.7099
676 2 2.2208 10.7238 11.2898 27.7273
721 2 2.2208 4.92161 22.7214 5.16097
723 1 -1.1104 0.589457 24.2079 0.964892
724 1 -1.1104 0.888734 24.0757 3.81673
725 1 -1.1104 0.746629 21.3787 0.854658
727 2 2.2208 4.84728 25.5436 2.33221
728 1 -1.1104 0.687559 21.1487 3.5778
730 1 -1.1104 3.51426 24.0997 0.914395
731 2 2.2208 1.90473 22.8618 2.2872
733 1 -1.1104 3.69314 24.1267 3.68201
734 2 2.2208 2.17049 25.7217 5.32063
735 1 -1.1104 3.49072 21.5356 0.672839
737 1 -1.1104 3.54932 21.1954 3.52811
738 1 -1.1104 3.54856 27.021 3.67753
736 1 -1.1104 3.45748 27.0893 0.849951
743 1 -1.1104 6.52411 24.2775 3.56692
868 1 -1.1104 3.40688 24.1451 6.52264
864 1 -1.1104 0.728229 21.3694 6.42061
862 1 -1.1104 0.678295 24.2024 6.71564
747 1 -1.1104 6.50846 26.9702 3.82865
863 1 -1.1104 6.34853 24.4498 6.55771
744 1 -1.1104 6.49628 21.4073 0.830683
742 1 -1.1104 6.31276 24.2882 0.875318
746 1 -1.1104 6.31422 21.4465 3.75261
866 1 -1.1104 6.51545 21.6573 6.50305
1040 2 2.2208 13.5275 34.1473 8.15223
745 1 -1.1104 6.24844 27 1.04532
748 2 2.2208 10.7721 22.7412 5.11957
750 1 -1.1104 12.1103 24.1935 0.799114
751 1 -1.1104 12.2581 24.1297 3.8949
752 1 -1.1104 12.2164 21.2213 0.955234
754 2 2.2208 10.7188 25.6648 2.44013
755 1 -1.1104 12.1609 21.213 3.77707
757 1 -1.1104 9.39578 24.2802 0.907488
758 2 2.2208 8.02341 22.928 2.36407
760 1 -1.1104 9.39982 24.2349 3.77723
761 2 2.2208 7.82733 25.6543 5.2524
762 1 -1.1104 9.27829 21.17 0.881314
764 1 -1.1104 9.27224 21.4027 3.65792
895 1 -1.1104 11.9896 24.0723 6.685
899 1 -1.1104 9.37149 21.2801 6.33607
763 1 -1.1104 9.03759 27.1851 0.908879
898 1 -1.1104 9.13591 24.1039 6.5034
900 1 -1.1104 9.28068 27.1188 6.52949
756 1 -1.1104 12.124 26.9833 3.74147
753 1 -1.1104 12.2421 27.2628 0.846389
896 1 -1.1104 12.0741 21.2694 6.53305
897 1 -1.1104 12.0805 26.7803 6.80691
729 1 -1.1104 0.545584 26.8693 3.84053
726 1 -1.1104 0.616303 26.9892 1.15455
867 1 -1.1104 6.51906 27.1923 6.76293
722 2 2.2208 4.83972 28.4937 5.25639
732 2 2.2208 2.14996 28.6411 2.29399
770 1 -1.1104 0.916516 29.704 0.841972
773 1 -1.1104 0.671855 29.628 3.83459
776 1 -1.1104 0.925699 32.3381 1.02133
777 2 2.2208 5.08105 31.2428 2.23037
779 1 -1.1104 0.632419 32.6234 3.87906
781 1 -1.1104 3.85715 29.8427 1.0164
784 1 -1.1104 3.36892 30.0669 3.78942
786 2 2.2208 1.97506 31.2378 5.25636
788 1 -1.1104 3.54675 32.6639 0.670213
789 1 -1.1104 3.47264 32.6433 3.87638
794 1 -1.1104 6.33113 29.8223 3.65805
780 1 -1.1104 6.25589 32.8372 3.66209
919 1 -1.1104 0.578365 32.6681 6.71363
923 1 -1.1104 3.42775 32.8062 6.50932
793 1 -1.1104 6.2967 29.8129 0.914174
1429 1 -1.1104 6.61521 46.5865 0.909847
1406 2 2.2208 13.5439 42.4546 -0.408427
1050 2 2.2208 10.7445 33.9866 -0.331107
765 1 -1.1104 9.34582 27.0056 3.82483
795 1 -1.1104 6.49854 32.69 1.06722
917 1 -1.1104 6.30779 30.1769 6.33051
749 2 2.2208 10.4717 28.6957 5.15653
759 2 2.2208 7.77471 28.3685 2.44568
797 1 -1.1104 11.9596 30.0074 0.955895
799 1 -1.1104 11.9248 30.1231 3.78076
801 1 -1.1104 12.1017 32.7716 1.05063
802 2 2.2208 10.5713 31.4821 2.36232
804 1 -1.1104 12.0802 32.7652 3.70363
805 1 -1.1104 9.38362 29.8747 0.992697
808 1 -1.1104 9.10617 29.8324 3.57636
810 2 2.2208 7.68046 31.3966 5.03687
812 1 -1.1104 9.33105 32.7668 0.954707
813 1 -1.1104 9.22734 32.746 3.79762
951 1 -1.1104 11.9798 32.5614 6.33024
954 1 -1.1104 9.1515 32.5897 6.51846
952 1 -1.1104 9.20478 30.1043 6.20334
1028 2 2.2208 10.8121 45.2991 10.9589
949 1 -1.1104 11.9193 29.9007 6.54925
769 2 2.2208 4.81321 34.1677 5.19753
771 1 -1.1104 0.782788 35.4269 0.852988
774 1 -1.1104 1.06679 35.2586 3.73646
778 2 2.2208 4.94137 36.8858 2.27179
782 1 -1.1104 3.41615 35.4192 0.831847
783 2 2.2208 2.25878 33.9219 2.32732
785 1 -1.1104 3.86181 35.4274 3.67619