ITEM: TIMESTEP
70000
ITEM: NUMBER OF ATOMS
17760
ITEM: BOX BOUNDS pp pp pp
-4.5717015360025393e-01 2.7797170153599783e+01
-5.7018388880255007e+00 3.3378183888803591e+02
-4.5586333291451669e-01 2.7795863332914671e+01
ITEM: ATOMS id type q x y z
1 2 2.2208 5.32808 -0.264858 5.25484
2 1 -1.1104 1.01404 -4.50235 0.974525
6 1 -1.1104 1.09494 -4.27983 3.8469
10 1 -1.1104 0.81607 -1.59531 0.858326
12 2 2.2208 5.17189 -2.87056 2.49515
14 1 -1.1104 1.21649 -1.48169 3.86798
16 1 -1.1104 3.67263 -4.09665 1.16287
18 2 2.2208 2.36162 -0.172964 2.4244
19 1 -1.1104 3.89562 -4.18126 4.13032
21 2 2.2208 2.47552 -3.1364 5.50769
23 1 -1.1104 3.76783 -1.52667 1.02489
24 1 -1.1104 3.90785 -1.68221 3.9861
8 1 -1.1104 6.6148 -4.19869 3.7729
4 1 -1.1104 6.48224 -4.14808 0.852814
166 1 -1.1104 0.97785 -4.23419 6.6442
174 1 -1.1104 3.90095 -1.41419 6.81516
352 2 2.2208 5.04885 5.72522 -0.273737
25 2 2.2208 -0.320326 -2.86386 2.46072
9062 2 2.2208 2.30265 -5.5322 8.22305
11 1 -1.1104 6.66437 -1.43747 0.946106
15 1 -1.1104 6.98 -1.51377 3.60516
31 2 2.2208 10.8781 -0.0143098 5.39342
32 1 -1.1104 12.4233 -4.39564 0.951703
34 1 -1.1104 12.2832 -4.36067 4.06211
36 1 -1.1104 12.296 -1.49669 1.07004
37 2 2.2208 10.9525 -2.88281 2.47037
39 1 -1.1104 12.4452 -1.53178 3.61193
40 1 -1.1104 9.50839 -4.20948 1.10751
42 2 2.2208 8.1382 0.0555 2.23302
43 1 -1.1104 9.70039 -4.3947 3.86905
45 2 2.2208 8.2258 -2.92205 4.99381
47 1 -1.1104 9.57681 -1.58127 1.06777
48 1 -1.1104 9.67483 -1.47327 3.9953
136 2 2.2208 -0.280945 19.6806 2.50993
28 2 2.2208 13.4686 19.6061 10.7157
207 1 -1.1104 12.3535 -1.55444 6.52984
229 2 2.2208 13.6899 -0.134044 8.08562
3 1 -1.1104 0.972244 1.32811 0.893836
7 1 -1.1104 1.01287 1.43393 3.75767
13 2 2.2208 5.26827 2.54473 2.45463
17 1 -1.1104 3.73134 1.2645 1.07425
20 1 -1.1104 4.09162 1.1251 3.9333
22 2 2.2208 2.40309 2.6893 5.14412
54 2 2.2208 5.17818 5.54093 5.09772
56 1 -1.1104 0.775067 6.99114 1.11832
60 1 -1.1104 0.519765 4.25671 1.29383
67 1 -1.1104 1.00706 4.06351 3.92639
72 2 2.2208 2.19378 5.60213 2.43038
76 1 -1.1104 3.40211 4.41695 0.859231
79 1 -1.1104 3.74788 4.01849 3.63105
58 1 -1.1104 0.96508 6.82296 3.88609
74 1 -1.1104 3.76504 6.90747 3.90851
71 1 -1.1104 3.58396 7.2598 1.10277
63 1 -1.1104 6.48983 3.99942 1.01498
5 1 -1.1104 6.53064 1.41901 0.876452
57 1 -1.1104 6.57139 6.80385 0.925386
167 1 -1.1104 1.10627 1.58567 6.5844
59 1 -1.1104 6.56124 6.8959 3.83267
104 2 2.2208 13.5287 11.1655 2.35279
235 1 -1.1104 6.54514 7.15421 6.76084
239 1 -1.1104 3.968 4.2485 6.75996
236 1 -1.1104 0.94293 4.31391 6.74009
9 1 -1.1104 6.92314 1.30146 3.78905
69 1 -1.1104 6.75593 4.20552 3.67603
199 2 2.2208 -0.235251 2.99044 8.22632
33 1 -1.1104 12.2626 1.34844 0.798555
35 1 -1.1104 12.4574 1.35407 3.66826
38 2 2.2208 11.0534 2.63037 2.32974
41 1 -1.1104 9.56974 1.37061 0.825645
44 1 -1.1104 9.69254 1.26354 3.75239
46 2 2.2208 8.34356 2.69171 4.98998
84 2 2.2208 10.9865 5.71897 5.0144
87 1 -1.1104 12.2485 6.97262 3.83122
88 1 -1.1104 12.3813 4.35253 1.21768
92 1 -1.1104 12.3781 4.2445 3.9331
95 2 2.2208 7.96335 5.48897 2.09603
99 1 -1.1104 9.49822 4.222 0.865421
102 1 -1.1104 9.60781 4.09695 3.6735
94 1 -1.1104 9.35491 6.91273 0.763182
97 1 -1.1104 9.21541 6.89735 3.66549
86 1 -1.1104 12.2265 7.18216 1.10543
269 1 -1.1104 9.69926 4.24632 6.6191
206 1 -1.1104 12.2839 1.22595 6.50587
267 1 -1.1104 9.30971 6.91414 6.53628
9056 2 2.2208 2.4437 -5.69838 2.48372
237 1 -1.1104 6.94562 4.28487 6.39598
265 1 -1.1104 12.1547 7.13516 6.55503
266 1 -1.1104 12.349 4.42877 6.60438
209 1 -1.1104 9.54251 1.37502 6.5806
53 2 2.2208 13.5427 11.0817 8.00742
55 2 2.2208 5.28452 11.1243 5.27918
61 1 -1.1104 0.976117 9.73729 1.17329
66 2 2.2208 5.10244 8.34783 2.49825
68 1 -1.1104 1.03593 9.51932 4.02768
73 2 2.2208 2.30067 11.2479 2.49332
75 2 2.2208 2.54197 8.36544 5.37946
77 1 -1.1104 3.68898 9.71169 0.886181
80 1 -1.1104 3.84674 9.93865 3.7368
107 1 -1.1104 0.941005 12.6808 1.10008
113 1 -1.1104 0.723601 12.2748 3.71497
123 1 -1.1104 3.65996 12.4988 1.14828
128 1 -1.1104 3.75369 12.5653 4.02707
70 1 -1.1104 6.54253 9.63522 4.12162
62 1 -1.1104 1.0237 9.83647 6.81092
115 1 -1.1104 6.46135 12.4946 3.8043
64 1 -1.1104 6.6272 9.66181 1.42896
108 1 -1.1104 0.899704 12.4722 6.75525
130 2 2.2208 2.38498 13.9747 5.37093
9063 2 2.2208 5.10559 -5.64363 10.7048
354 2 2.2208 -0.400671 11.2917 -0.390219
81 2 2.2208 -0.287818 5.69658 5.23556
341 2 2.2208 10.836 -2.69248 13.7181
110 1 -1.1104 6.63043 12.3941 0.552996
85 2 2.2208 10.8057 11.1046 5.19429
89 1 -1.1104 11.9823 9.75956 1.19365
91 2 2.2208 10.7046 8.22117 2.37724
93 1 -1.1104 12.1724 9.677 4.14092
96 2 2.2208 8.10187 11.27 2.49122
98 2 2.2208 8.01874 8.28187 5.26343
100 1 -1.1104 9.27572 9.67832 1.00979
103 1 -1.1104 9.24362 9.69534 3.79873
142 1 -1.1104 12.2322 12.5979 0.78852
146 1 -1.1104 12.2351 12.6262 3.60146
153 1 -1.1104 9.45548 12.5832 1.00313
158 1 -1.1104 9.28607 12.5858 3.87793
143 1 -1.1104 12.3842 12.301 6.28229
90 1 -1.1104 12.3367 9.59824 6.65752
160 2 2.2208 8.02206 13.883 5.38702
150 2 2.2208 10.9219 14.046 2.29497
618 2 2.2208 13.6864 11.2508 13.5709
29 2 2.2208 -0.261847 5.73169 10.777
119 2 2.2208 5.08832 14.0061 2.48926
106 2 2.2208 5.26258 16.6963 5.31548
109 1 -1.1104 1.06294 18.5318 0.983688
114 1 -1.1104 0.978497 18.074 3.65429
116 1 -1.1104 1.0273 15.6233 1.03571
120 2 2.2208 5.45544 19.4121 2.26203
121 1 -1.1104 1.16603 15.3204 3.74376
125 1 -1.1104 3.957 18.1072 0.673573
127 2 2.2208 2.48693 16.7591 2.38551
129 1 -1.1104 3.71939 18.036 3.6924
131 2 2.2208 2.3832 19.5413 5.01121
132 1 -1.1104 3.67285 15.2655 1.03396
134 1 -1.1104 3.96752 15.3937 4.04048
138 1 -1.1104 6.56816 17.9694 0.971748
140 1 -1.1104 6.63709 15.1266 0.95452
139 1 -1.1104 6.68438 17.9657 3.79858
133 1 -1.1104 3.57594 15.3588 6.82889
117 1 -1.1104 0.731465 15.3556 6.53229
126 1 -1.1104 4.07605 18.1244 6.55674
231 2 2.2208 13.6653 19.6818 5.27401
329 1 -1.1104 12.2242 18.164 12.3364
615 2 2.2208 8.18782 19.4106 -0.445362
118 1 -1.1104 6.60513 15.4452 6.67885
122 1 -1.1104 6.6425 15.1817 3.78047
141 2 2.2208 10.9979 16.7006 5.12075
144 1 -1.1104 12.5109 18.1288 0.875325
147 1 -1.1104 12.3413 18.158 3.74174
148 1 -1.1104 12.4171 15.3936 1.02992
151 2 2.2208 10.9304 19.5002 2.36006
152 1 -1.1104 12.5751 15.442 3.91818
155 1 -1.1104 9.47533 18.3173 1.11669
157 2 2.2208 8.26102 16.6346 2.4756
159 1 -1.1104 9.56138 18.0721 3.79993
161 2 2.2208 8.02349 19.5626 5.19839
162 1 -1.1104 9.40487 15.2305 0.903513
164 1 -1.1104 9.60625 15.3279 3.89869
315 1 -1.1104 9.61252 15.4747 12.3261
156 1 -1.1104 9.4025 18.2803 6.69065
145 1 -1.1104 12.2985 18.0391 6.51061
149 1 -1.1104 12.3161 15.0216 6.5837
336 2 2.2208 2.31596 0.0949838 13.5039
163 1 -1.1104 9.4401 15.3709 6.58168
172 1 -1.1104 3.92555 -4.55499 6.87229
171 1 -1.1104 6.64177 -1.17709 6.56643
170 1 -1.1104 1.25608 -1.30877 6.56035
168 1 -1.1104 6.71199 -4.31352 6.45095
175 2 2.2208 5.30977 -0.0109965 10.9449
176 1 -1.1104 1.05077 -4.23643 12.2556
180 1 -1.1104 0.842361 -4.16469 9.55216
184 1 -1.1104 0.858589 -1.21052 12.3616
186 2 2.2208 5.44531 -2.70121 8.12139
188 1 -1.1104 0.813996 -1.39698 9.46086
190 1 -1.1104 3.86751 -4.23543 12.1247
192 2 2.2208 2.43401 0.15184 7.95345
193 1 -1.1104 3.74232 -3.97757 9.57791
195 2 2.2208 2.39619 -2.76877 10.9262
197 1 -1.1104 3.50464 -1.55716 12.5109
198 1 -1.1104 3.76712 -1.53991 9.44419
182 1 -1.1104 6.75967 -4.19739 9.18276
185 1 -1.1104 6.42395 -1.50231 12.218
203 2 2.2208 13.6936 2.79923 10.6888
26 2 2.2208 -0.302321 -0.0241999 5.14772
178 1 -1.1104 6.61104 -4.32678 11.9718
189 1 -1.1104 6.87839 -1.46005 9.58193
210 1 -1.1104 9.68084 -1.40819 6.78122
208 1 -1.1104 9.62782 -4.52574 6.63819
137 2 2.2208 -0.428584 16.787 5.14119
205 1 -1.1104 12.4076 -4.2618 6.74806
211 2 2.2208 10.9126 -0.0307938 10.764
212 1 -1.1104 12.4591 -4.27626 12.0263
214 1 -1.1104 12.4885 -4.44159 9.44181
216 1 -1.1104 12.1893 -1.57985 12.1297
217 2 2.2208 10.9821 -2.91857 8.00661
219 1 -1.1104 12.2526 -1.23854 9.46678
220 1 -1.1104 9.4067 -4.25395 12.2103
222 2 2.2208 8.18027 -0.0565382 8.18548
223 1 -1.1104 9.7109 -4.27255 9.3128
225 2 2.2208 8.06064 -2.85027 11.0381
227 1 -1.1104 9.41344 -1.44945 12.3476
228 1 -1.1104 9.53123 -1.26817 9.5278
466 2 2.2208 2.54006 5.57115 13.6192
234 1 -1.1104 1.17713 7.07108 6.58096
173 1 -1.1104 3.78024 1.41304 6.7337
238 1 -1.1104 3.84332 6.99955 6.60303
177 1 -1.1104 1.1891 1.60901 12.2727
181 1 -1.1104 1.0203 1.50061 9.5528
187 2 2.2208 5.34046 2.6099 7.95147
191 1 -1.1104 3.98261 1.17348 12.371
194 1 -1.1104 4.00749 1.27133 9.48943
196 2 2.2208 2.57731 2.88947 10.8939
240 2 2.2208 5.21469 5.57552 10.9272
244 1 -1.1104 0.873538 6.99468 9.34297
246 1 -1.1104 1.22498 4.28057 12.3332
251 1 -1.1104 1.03023 4.35229 9.60051
256 2 2.2208 2.44249 5.67195 7.88657
260 1 -1.1104 4.00311 4.31681 12.3093
262 1 -1.1104 3.79093 4.16937 9.39465
255 1 -1.1104 4.00851 6.96036 12.2395
242 1 -1.1104 1.28361 6.9853 12.2377
258 1 -1.1104 3.75752 6.82639 9.43079
245 1 -1.1104 6.54219 6.75731 9.45951
248 1 -1.1104 6.54837 4.05698 12.1667
169 1 -1.1104 6.81857 1.66328 6.52672
179 1 -1.1104 6.96541 1.3507 12.2339
183 1 -1.1104 6.80635 1.17391 9.41712
253 1 -1.1104 6.72769 3.85425 9.13954
331 2 2.2208 10.7941 16.8853 10.9755
337 2 2.2208 -0.497658 2.80652 13.6783
317 2 2.2208 8.04434 14.1128 10.8802
321 1 -1.1104 9.48151 18.2485 12.3808
243 1 -1.1104 6.73319 7.02034 12.3177
312 2 2.2208 -0.447741 16.7348 10.9698
213 1 -1.1104 12.3731 1.24695 12.2245
215 1 -1.1104 12.3713 1.7141 9.30488
218 2 2.2208 11.0368 2.9509 7.90423
221 1 -1.1104 9.47208 1.46374 12.0476
224 1 -1.1104 9.59864 1.52111 9.31168
226 2 2.2208 8.14881 2.84361 10.6753
268 1 -1.1104 9.44708 4.54654 9.50022
271 1 -1.1104 9.63635 4.30885 12.2442
275 2 2.2208 7.9358 5.6216 7.92333
276 2 2.2208 10.8876 5.64255 10.7834
280 1 -1.1104 12.2784 4.22223 12.4165
283 1 -1.1104 12.2736 4.40165 9.37795
278 1 -1.1104 12.3155 6.97283 12.2829
273 1 -1.1104 9.42855 7.19754 9.51723
285 1 -1.1104 9.2881 7.10357 12.435
279 1 -1.1104 12.1672 6.87399 9.36726
556 2 2.2208 10.7732 19.6776 13.5094
111 1 -1.1104 6.73581 12.794 6.88945
333 2 2.2208 13.6308 14.031 10.8069
78 1 -1.1104 3.77134 10.1204 6.67663
65 1 -1.1104 6.52834 9.97337 6.76119
124 1 -1.1104 3.81851 12.6846 6.78381
241 2 2.2208 5.21374 11.1173 11.0412
247 1 -1.1104 1.14286 9.83111 12.2804
250 2 2.2208 5.24136 8.46876 8.07755
252 1 -1.1104 1.07585 9.75043 9.52514
257 2 2.2208 2.35873 11.1788 8.06194
259 2 2.2208 2.34363 8.3753 10.7571
261 1 -1.1104 3.78627 9.73566 12.2758
263 1 -1.1104 3.9709 9.39033 9.53173
287 1 -1.1104 3.80643 12.546 12.3222
294 1 -1.1104 1.02564 12.71 9.51816
299 1 -1.1104 1.12875 12.7327 12.1183
305 1 -1.1104 3.84236 12.2603 9.55496
254 1 -1.1104 6.78591 9.72835 9.59245
249 1 -1.1104 6.56746 9.88142 12.5451
295 2 2.2208 5.11031 14.1879 8.19472
343 2 2.2208 5.06098 -0.056263 -0.441692
51 2 2.2208 -0.346207 11.1655 10.7649
651 2 2.2208 5.00655 11.1313 -0.192791
154 1 -1.1104 9.59778 12.6756 6.60698
101 1 -1.1104 9.23601 9.89752 6.48938
325 2 2.2208 10.7145 13.9699 7.97216
50 2 2.2208 13.6441 -2.88111 5.28729
297 1 -1.1104 6.49925 12.5825 12.313
290 1 -1.1104 6.53863 12.7878 9.61043
330 1 -1.1104 12.1898 12.6624 12.4702
328 1 -1.1104 12.0177 12.3753 9.44751
322 1 -1.1104 9.40054 12.7256 12.5136
319 1 -1.1104 9.26166 12.8006 9.50758
264 1 -1.1104 9.72925 9.93672 9.46714
270 1 -1.1104 9.32531 9.84583 12.2826
272 2 2.2208 8.09162 8.32666 11.066
274 2 2.2208 8.05603 11.0682 8.09867
277 2 2.2208 10.7033 11.3619 11.057
281 1 -1.1104 12.1959 9.80305 12.308
282 2 2.2208 10.9056 8.27387 8.063
284 1 -1.1104 12.3511 9.61328 9.44754
314 1 -1.1104 9.1724 15.5501 9.51662
112 1 -1.1104 6.74652 18.3151 6.50309
302 1 -1.1104 1.15733 18.2661 6.58633
318 1 -1.1104 9.44227 18.1347 9.3197
320 2 2.2208 8.04072 16.7346 7.92783
306 1 -1.1104 6.54736 15.4139 12.3552
288 1 -1.1104 6.65516 18.3182 9.30975
289 1 -1.1104 6.46259 15.4683 9.69369
310 2 2.2208 2.47812 13.9055 10.8885
286 1 -1.1104 3.76989 18.306 12.11
291 1 -1.1104 1.00395 18.0902 9.30949
292 1 -1.1104 0.781485 15.4256 9.2584
293 2 2.2208 5.21837 19.562 7.92571
298 1 -1.1104 1.06116 18.1961 12.1168
300 2 2.2208 5.15865 16.8941 10.8316
301 1 -1.1104 3.99085 18.3201 9.39368
303 2 2.2208 2.27505 16.9134 8.10288
304 1 -1.1104 3.64151 15.288 9.60811
307 1 -1.1104 1.02437 15.5335 12.2304
308 1 -1.1104 3.87085 15.4762 12.5513
309 2 2.2208 2.49499 19.7963 10.8552
296 1 -1.1104 6.55257 18.2973 12.1764
356 2 2.2208 10.8035 5.51705 -0.324127
675 2 2.2208 8.02398 8.31786 -0.339974
316 2 2.2208 7.7963 19.7222 10.8077
323 1 -1.1104 12.1019 15.5216 9.53384
326 1 -1.1104 12.525 15.4904 12.1013
324 2 2.2208 10.6798 19.5425 7.92781
327 1 -1.1104 12.0798 18.3458 9.42622
201 2 2.2208 -0.29406 0.101324 10.7653
705 2 2.2208 2.37291 13.998 -0.283636
332 2 2.2208 13.6036 16.7857 8.09516
530 2 2.2208 5.0916 19.7008 13.586
335 2 2.2208 5.12392 -2.97116 13.5776
9071 2 2.2208 10.6634 -5.56821 -0.318584
467 2 2.2208 5.04435 8.5068 13.6425
614 2 2.2208 11.0398 16.7904 -0.444967
493 2 2.2208 7.98318 5.49517 13.5002
345 2 2.2208 2.25775 2.70845 -0.360926
396 2 2.2208 -0.383808 19.6313 13.5531
468 2 2.2208 2.32846 11.3771 13.6865
357 2 2.2208 5.36153 -0.0471963 16.6258
358 1 -1.1104 0.99574 -4.01462 18.0274
362 1 -1.1104 0.724899 -4.12846 15.2433
370 1 -1.1104 0.9059 -1.28749 17.8981
372 2 2.2208 5.35911 -2.6988 19.201
374 1 -1.1104 1.0505 -1.22857 15.17
378 1 -1.1104 3.95686 -4.04079 17.6444
380 2 2.2208 2.37044 -0.0562712 19.4994
381 1 -1.1104 3.46747 -4.51017 14.9176
385 2 2.2208 2.23328 -2.71048 16.6553
387 1 -1.1104 3.91161 -1.11705 18.0295
388 1 -1.1104 4.08579 -1.74554 15.3077
366 1 -1.1104 6.64927 -4.24983 14.9338
371 1 -1.1104 6.77824 -1.62488 17.7975
363 1 -1.1104 0.982667 -4.07506 20.9205
360 1 -1.1104 6.71798 -4.48269 17.7482
382 1 -1.1104 3.8297 -4.31058 20.5889
375 1 -1.1104 0.785229 -1.30683 20.6312
9469 2 2.2208 2.30157 -5.49551 19.2507
397 2 2.2208 13.5915 5.53682 13.7778
426 2 2.2208 -0.219673 13.9877 19.3679
376 1 -1.1104 6.87361 -1.43318 14.9121
377 1 -1.1104 6.5616 -1.37386 20.859
400 2 2.2208 10.9175 -0.00516053 16.2996
401 1 -1.1104 12.3878 -4.30956 17.6286
403 1 -1.1104 12.1068 -4.30183 14.829
407 1 -1.1104 12.4364 -1.5026 17.7073
408 2 2.2208 10.8819 -2.949 19.0458
410 1 -1.1104 12.1713 -1.34911 14.8807
412 1 -1.1104 9.61437 -4.22854 17.4905
414 2 2.2208 8.11412 -0.113412 19.2597
415 1 -1.1104 9.33444 -4.11197 14.839
419 2 2.2208 8.11753 -2.82918 16.2793
421 1 -1.1104 9.59169 -1.443 17.6962
422 1 -1.1104 9.5954 -1.24989 14.9763
411 1 -1.1104 11.9601 -1.15204 20.4419
395 2 2.2208 13.595 8.37422 16.5134
623 2 2.2208 13.6205 -0.172839 24.8513
423 1 -1.1104 9.26311 -1.52976 20.5791
9468 2 2.2208 5.19023 -5.50688 16.4356
348 2 2.2208 8.02683 -2.95881 27.7499
425 2 2.2208 -0.43169 16.9852 16.4293
359 1 -1.1104 0.840781 1.36051 17.8426
364 1 -1.1104 0.882188 1.55921 14.9137
373 2 2.2208 5.02429 2.80204 19.2095
379 1 -1.1104 3.6572 1.50695 17.8751
383 1 -1.1104 3.77454 1.33711 15.0552
386 2 2.2208 2.45876 2.79811 16.4282
433 2 2.2208 5.12797 5.60039 16.4418
435 1 -1.1104 0.834839 7.09347 17.9626
441 1 -1.1104 0.950485 4.34361 17.9647
446 1 -1.1104 1.07923 4.40847 15.0737
455 2 2.2208 2.23563 5.6295 19.3442
457 1 -1.1104 3.75033 6.96906 15.1609
460 1 -1.1104 3.71965 4.21682 17.763
462 1 -1.1104 3.77917 4.19223 15.3074
437 1 -1.1104 1.15045 6.90502 15.0141
454 1 -1.1104 3.70796 6.97241 18.019
443 1 -1.1104 6.45356 4.19025 17.8245
439 1 -1.1104 6.57341 7.0199 14.9757
361 1 -1.1104 6.45868 1.45605 17.8259
450 1 -1.1104 6.71047 4.23909 14.9915
458 1 -1.1104 3.73081 6.82945 20.7662
365 1 -1.1104 0.960561 1.39098 20.7195
368 1 -1.1104 6.55899 1.36645 15.0804
440 1 -1.1104 6.63416 6.91674 20.6851
707 2 2.2208 -0.255904 17.0502 27.5628
436 1 -1.1104 6.68882 6.84901 18.1049
369 1 -1.1104 6.73734 1.29537 20.4974
402 1 -1.1104 12.2104 1.31943 17.8066
405 1 -1.1104 12.4637 1.60712 14.9456
409 2 2.2208 10.8395 2.75287 19.2529
413 1 -1.1104 9.28001 1.32905 17.9277
417 1 -1.1104 9.42893 1.59609 15.1202
420 2 2.2208 7.91501 2.85152 16.5259
469 2 2.2208 10.8353 5.55074 16.38
474 1 -1.1104 12.2378 4.0151 18.0569
477 1 -1.1104 12.1721 4.22139 15.2185
482 2 2.2208 7.94798 5.46962 19.3628
484 1 -1.1104 9.47233 7.05586 15.1563
487 1 -1.1104 9.30212 4.11229 17.8346
489 1 -1.1104 9.19831 4.31029 15.1435
481 1 -1.1104 9.28991 6.73163 17.8498
472 1 -1.1104 12.235 7.03072 15.0046
471 1 -1.1104 12.402 6.64791 17.7349
9440 2 2.2208 7.95115 -5.66166 19.2245
490 1 -1.1104 9.46013 4.08522 20.7009
398 2 2.2208 -0.372758 2.75418 19.3062
406 1 -1.1104 12.3353 1.73947 20.6589
485 1 -1.1104 9.49841 6.87309 20.8691
590 2 2.2208 -0.506047 5.63741 16.5747
434 2 2.2208 5.21288 11.2205 16.5763
442 1 -1.1104 0.757616 9.77557 17.9983
445 2 2.2208 5.23351 8.09583 19.3256
448 1 -1.1104 1.20142 9.88525 15.1796
456 2 2.2208 2.30262 11.1749 19.424
459 2 2.2208 2.44699 8.22451 16.4967
461 1 -1.1104 3.93112 9.60894 17.859
464 1 -1.1104 3.8525 9.80178 15.0106
497 1 -1.1104 0.953485 12.775 17.8789
501 1 -1.1104 1.04554 12.817 14.9811
517 1 -1.1104 3.78985 12.8961 18.0244
520 1 -1.1104 3.74411 12.6513 15.2416
452 1 -1.1104 6.81086 10.0382 15.2529
505 1 -1.1104 6.61031 12.7264 15.347
444 1 -1.1104 6.72608 9.81094 17.9699
506 1 -1.1104 6.62452 12.6362 20.7821
449 1 -1.1104 1.03356 9.69585 20.9023
499 1 -1.1104 6.23269 12.464 17.9962
453 1 -1.1104 6.74311 9.67613 20.9168
9305 2 2.2208 10.8631 -5.58194 22.2247
676 2 2.2208 10.666 11.103 27.7318
470 2 2.2208 10.7102 11.254 16.54
475 1 -1.1104 12.0998 9.53159 17.9879
476 2 2.2208 10.5802 8.28532 19.3293
479 1 -1.1104 12.3422 9.67274 15.2733
483 2 2.2208 7.97282 11.2492 19.3938
486 2 2.2208 8.26077 8.45399 16.419
488 1 -1.1104 9.40121 9.74381 17.8752
491 1 -1.1104 9.47366 9.96446 14.9566
533 1 -1.1104 12.0206 12.4365 18.2976
535 1 -1.1104 12.39 12.5943 15.0985
544 1 -1.1104 9.19084 12.5976 17.8872
547 1 -1.1104 9.46072 12.6546 15.2349
492 1 -1.1104 9.34513 9.56212 20.7667
529 2 2.2208 2.43313 16.8629 13.7741
548 1 -1.1104 9.32752 12.5409 20.7246
9358 2 2.2208 5.07603 -5.66046 22.0155
511 2 2.2208 5.13461 14.1184 19.3228
524 2 2.2208 2.35884 14.2186 16.4844
496 2 2.2208 5.16973 17.0756 16.4682
498 1 -1.1104 1.13984 18.4481 18.032
503 1 -1.1104 1.07508 18.4932 15.1232
509 1 -1.1104 1.10955 15.6492 17.8678
512 2 2.2208 5.13893 19.9037 19.4394
513 1 -1.1104 0.96952 15.7318 15.0746
518 1 -1.1104 3.85255 18.5684 17.6946
519 2 2.2208 2.44264 16.9569 19.1868
522 1 -1.1104 3.7804 18.3066 15.0023
525 2 2.2208 2.47757 19.879 16.4505
526 1 -1.1104 4.02225 15.8299 17.8545
527 1 -1.1104 3.78709 15.672 15.2803
515 1 -1.1104 6.50152 15.5538 15.2711
500 1 -1.1104 6.34626 18.2643 18.1227
514 1 -1.1104 1.25516 15.6343 20.8142
428 2 2.2208 13.6134 -2.9879 16.1085
504 1 -1.1104 1.03533 18.4239 20.7183
558 2 2.2208 7.98704 16.9193 13.6652
507 1 -1.1104 6.80599 18.4386 15.0693
510 1 -1.1104 6.72487 15.2269 18.1563
540 2 2.2208 10.8934 14.1033 19.678
551 2 2.2208 7.98085 14.1146 16.6063
532 2 2.2208 10.8099 16.7272 16.7073
534 1 -1.1104 12.4493 17.7991 17.4815
537 1 -1.1104 12.6958 19.0689 14.86
539 1 -1.1104 12.3009 15.1788 17.9012
541 2 2.2208 10.77 19.7963 19.5091
542 1 -1.1104 12.2417 15.7908 15.226
545 1 -1.1104 9.31954 18.1572 17.7694
546 2 2.2208 7.95263 16.9315 19.3383
549 1 -1.1104 9.79294 18.4209 15.3617
552 2 2.2208 8.18022 19.7061 16.5952
553 1 -1.1104 9.35536 15.4433 18.0076
554 1 -1.1104 9.44288 15.2766 15.0853
543 1 -1.1104 12.2518 15.5099 20.8667
389 1 -1.1104 3.69886 -1.46571 20.7408
342 2 2.2208 10.8624 2.73979 13.6389
9418 2 2.2208 -0.501958 -5.55942 22.2315
367 1 -1.1104 6.59837 -4.0067 20.654
560 2 2.2208 5.23788 0.0329253 22.1058
561 1 -1.1104 0.82495 -4.27676 23.668
565 1 -1.1104 0.928633 -4.06182 26.5236
569 1 -1.1104 0.872805 -1.41758 23.5282
571 2 2.2208 5.39404 -2.81977 24.8951
573 1 -1.1104 0.942163 -1.29734 26.3379
575 1 -1.1104 3.60878 -4.37516 23.4934
577 2 2.2208 2.40318 -0.0187276 24.9341
578 1 -1.1104 3.91042 -4.20286 26.1719
580 2 2.2208 2.23545 -2.74933 22.3613
582 1 -1.1104 3.76334 -1.31632 23.5583
583 1 -1.1104 3.71038 -1.50712 26.4111
570 1 -1.1104 6.74772 -1.39184 23.521
563 1 -1.1104 6.71362 -4.41599 23.3105
416 1 -1.1104 9.58217 -4.40586 20.4208
404 1 -1.1104 12.4153 -4.24178 20.6931
712 2 2.2208 7.95456 19.7335 22.1063
706 2 2.2208 -0.404376 14.0968 25.0465
567 1 -1.1104 6.57272 -4.32512 26.2829
574 1 -1.1104 6.72946 -1.50265 26.2127
596 2 2.2208 10.7086 -0.0364943 22.0632
597 1 -1.1104 12.2298 -4.36219 23.6798
599 1 -1.1104 12.4502 -4.32879 26.4547
601 1 -1.1104 12.2658 -1.51224 23.485
602 2 2.2208 10.7942 -2.89426 24.9878
604 1 -1.1104 12.1196 -1.43713 26.2525
605 1 -1.1104 9.30555 -4.11498 23.3075
607 2 2.2208 8.07715 0.0483315 25.1119
608 1 -1.1104 9.40423 -4.4351 26.3353
610 2 2.2208 7.93759 -2.83214 22.0676
612 1 -1.1104 9.55926 -1.36744 23.8698
613 1 -1.1104 9.43516 -1.62332 26.5799
698 1 -1.1104 6.99017 15.3815 23.7255
716 1 -1.1104 6.79908 18.2468 26.2321
9357 2 2.2208 2.3388 -5.64617 25.0306
447 1 -1.1104 0.988735 4.16688 20.9544
463 1 -1.1104 3.48001 4.25763 20.5479
384 1 -1.1104 3.76121 1.51634 20.754
438 1 -1.1104 0.95658 6.98518 20.9099
451 1 -1.1104 6.44799 4.06026 20.6339
562 1 -1.1104 0.752924 1.34543 23.4978
566 1 -1.1104 0.982126 1.47715 26.1956
572 2 2.2208 5.0187 2.69809 25.0668
576 1 -1.1104 3.74432 1.24866 23.6073
579 1 -1.1104 3.77435 1.28116 26.4675
581 2 2.2208 2.21025 2.74576 22.1428
625 2 2.2208 4.91038 5.3599 22.1096
629 1 -1.1104 0.809258 6.91423 26.4844
631 1 -1.1104 0.763431 4.27433 23.5785
636 1 -1.1104 0.815236 4.0397 26.6211
641 2 2.2208 2.13177 5.57759 25.0091
645 1 -1.1104 3.72807 4.01954 23.5303
647 1 -1.1104 3.5382 3.917 26.3048
627 1 -1.1104 0.86367 7.062 23.5481
640 1 -1.1104 3.59478 7.17098 23.7476
643 1 -1.1104 3.43457 6.78923 26.4689
568 1 -1.1104 6.56863 1.33789 26.2962
638 1 -1.1104 6.51923 3.99315 26.3219
564 1 -1.1104 6.7259 1.52396 23.5907
630 1 -1.1104 6.29727 6.8367 26.2285
652 1 -1.1104 12.4475 15.2831 23.8869
677 2 2.2208 13.7325 11.1196 24.9886
349 2 2.2208 7.75521 2.75079 27.7123
473 1 -1.1104 12.2356 7.04331 20.6569
633 1 -1.1104 6.52008 4.07421 23.5161
628 1 -1.1104 6.39693 6.80937 23.4141
418 1 -1.1104 9.5814 1.27356 20.4648
478 1 -1.1104 12.3277 4.16098 20.8882
679 2 2.2208 13.4401 5.60941 24.9711
598 1 -1.1104 12.1066 1.33406 23.5855
600 1 -1.1104 12.1924 1.23491 26.1111
603 2 2.2208 10.6293 2.72744 24.9889
606 1 -1.1104 9.22498 1.27156 23.4167
609 1 -1.1104 9.2463 1.40635 26.4462
611 2 2.2208 7.92365 2.67286 22.0342
657 1 -1.1104 9.1318 4.21504 26.4035
659 1 -1.1104 9.26702 3.9536 23.523
663 2 2.2208 7.79428 5.33959 24.8592
664 2 2.2208 10.7415 5.3941 22.1978
666 1 -1.1104 11.9626 6.8323 23.5024
668 1 -1.1104 12.348 4.02791 23.7418
671 1 -1.1104 11.9671 3.90305 26.4528
661 1 -1.1104 9.42892 6.98773 26.3547
673 1 -1.1104 9.07646 6.80288 23.5461
667 1 -1.1104 12.1535 6.92686 26.3719
494 2 2.2208 10.8127 8.36578 13.6643
703 2 2.2208 2.50658 19.7227 27.6697
465 1 -1.1104 3.98 9.68289 20.642
521 1 -1.1104 3.89811 12.2021 20.9568
502 1 -1.1104 1.04938 12.7267 21.0442
626 2 2.2208 5.30177 10.9798 22.1654
632 1 -1.1104 1.16288 9.78346 23.8627
635 2 2.2208 5.06767 8.46784 24.9638
637 1 -1.1104 0.852799 9.74401 26.5538
642 2 2.2208 2.55174 11.3702 24.9707
644 2 2.2208 2.39403 8.4429 22.1984
646 1 -1.1104 3.82328 10.0693 23.6003
648 1 -1.1104 3.62114 9.73168 26.3289
682 1 -1.1104 3.81535 13.056 23.7817
686 1 -1.1104 1.1177 12.7451 26.4915
692 1 -1.1104 1.04948 12.5006 23.6385
697 1 -1.1104 4.10578 12.5248 26.4463
639 1 -1.1104 6.42389 9.64995 26.4905
681 1 -1.1104 6.81367 12.689 26.1204
634 1 -1.1104 6.7808 9.69406 23.6132
709 2 2.2208 -0.36164 16.7358 22.2131
713 2 2.2208 7.86189 13.9354 22.102
536 1 -1.1104 12.2761 12.6686 21.1749
714 1 -1.1104 9.61755 18.1537 26.5243
690 1 -1.1104 6.81872 12.3896 23.4643
480 1 -1.1104 11.9187 9.80378 20.7099
393 2 2.2208 -0.361506 0.138489 16.2845
719 1 -1.1104 9.40907 12.6317 23.6624
715 1 -1.1104 9.4256 12.5977 26.522
621 1 -1.1104 12.1914 12.5517 23.9158
649 1 -1.1104 12.548 12.5632 26.5866
656 1 -1.1104 9.44995 9.69916 26.4188
658 1 -1.1104 9.58591 9.83394 23.614
660 2 2.2208 8.07338 8.28073 22.1609
662 2 2.2208 8.0736 11.1007 25.0532
665 2 2.2208 10.9548 11.2487 22.2424
669 1 -1.1104 12.2359 9.64973 23.5209
670 2 2.2208 10.7276 8.24035 24.9302
672 1 -1.1104 12.2124 9.81127 26.4416
617 2 2.2208 -0.205311 11.4203 16.5314
528 1 -1.1104 3.81301 15.283 20.865
344 2 2.2208 2.57762 -2.90546 27.7952
523 1 -1.1104 3.88278 18.3086 20.5522
516 1 -1.1104 6.74593 15.7058 20.9655
687 1 -1.1104 6.82459 18.3007 23.4886
689 2 2.2208 5.34896 14.1031 24.9879
702 2 2.2208 2.52129 14.1602 22.3043
701 2 2.2208 2.31664 19.544 21.9884
700 1 -1.1104 3.89241 15.7568 23.709
680 1 -1.1104 3.98058 18.5157 23.199
684 1 -1.1104 1.12956 18.3182 26.1878
685 1 -1.1104 1.08182 15.5856 26.5923
688 2 2.2208 5.36997 19.5797 24.9009
691 1 -1.1104 1.01021 17.8332 23.426
693 2 2.2208 5.29347 17.0063 22.2542
694 1 -1.1104 4.01426 18.124 26.076
695 2 2.2208 2.44141 16.8224 24.8265
696 1 -1.1104 3.96698 15.151 26.6314
699 1 -1.1104 1.07144 15.2448 23.7679
683 1 -1.1104 6.75687 15.5344 26.4392
353 2 2.2208 2.11707 8.28815 27.786
717 2 2.2208 8.33102 16.9013 25.0676
616 2 2.2208 10.6808 16.9153 21.9706
538 1 -1.1104 12.3025 18.2937 20.5486
555 1 -1.1104 9.46622 15.6926 20.6315
550 1 -1.1104 9.31944 18.3266 20.467
624 1 -1.1104 12.182 18.2507 23.3176
718 1 -1.1104 9.52826 18.3138 23.5533
650 1 -1.1104 12.3955 18.3341 26.446
720 1 -1.1104 12.1859 15.4077 26.4746
655 2 2.2208 10.8731 14.0563 25.0358
711 1 -1.1104 9.70533 15.6387 23.4279
674 2 2.2208 10.9607 19.5808 24.8374
508 1 -1.1104 6.43538 18.4146 20.8017
710 1 -1.1104 9.44971 15.341 26.4042
619 2 2.2208 13.6517 11.0248 19.4386
589 2 2.2208 -0.2274 8.37413 13.7198
431 2 2.2208 13.632 13.9679 22.3323
587 2 2.2208 13.6825 16.6938 19.4174
392 2 2.2208 13.5878 2.80371 22.002
339 2 2.2208 8.04996 0.0827864 13.7245
9304 2 2.2208 7.87918 -5.64334 24.7277
495 2 2.2208 7.93634 11.3767 13.7564
391 2 2.2208 13.4947 8.2352 22.2503
531 2 2.2208 5.31832 14.1135 13.7919
427 2 2.2208 -0.199102 19.7368 19.3889
557 2 2.2208 10.971 14.1577 13.8388
620 2 2.2208 13.6379 5.52935 19.5195
9077 2 2.2208 -0.506312 -5.64115 27.742
338 2 2.2208 5.40057 2.71472 13.8789
704 2 2.2208 5.29119 16.8039 27.6722
592 2 2.2208 8.02716 13.9171 27.7486
346 2 2.2208 -0.565659 -0.0201725 27.7459
347 2 2.2208 10.8961 -0.104102 27.6662
721 2 2.2208 5.10287 22.4968 5.1273
723 1 -1.1104 0.778209 23.9024 0.953736
724 1 -1.1104 0.728906 23.834 3.80261
725 1 -1.1104 1.18161 21.1044 0.912967
727 2 2.2208 5.08984 25.2273 2.36108
728 1 -1.1104 0.913239 21.1148 3.81812
730 1 -1.1104 3.90378 23.8562 0.759877
731 2 2.2208 2.40161 22.475 2.42438
733 1 -1.1104 3.8073 23.931 3.6302
734 2 2.2208 2.28876 25.1291 5.07625
735 1 -1.1104 4.07699 20.7689 0.888405
737 1 -1.1104 3.68239 20.8824 3.65967
743 1 -1.1104 6.53505 23.676 3.86543
742 1 -1.1104 6.81565 23.5847 1.29446
866 1 -1.1104 6.45696 20.942 6.45297
729 1 -1.1104 0.854611 26.6162 3.76837
726 1 -1.1104 0.612534 26.9847 0.976497
738 1 -1.1104 3.57258 26.7029 3.60225
736 1 -1.1104 3.69218 26.6666 0.902324
869 1 -1.1104 3.61146 20.94 6.34091
863 1 -1.1104 6.37612 23.9239 6.4812
747 1 -1.1104 6.49356 26.8425 3.47251
745 1 -1.1104 6.62899 26.5536 0.755053
870 1 -1.1104 3.51509 26.5885 6.66054
1631 1 -1.1104 6.58526 46.3951 9.10309
864 1 -1.1104 0.739451 20.9509 6.55702
868 1 -1.1104 3.54668 23.624 6.54538
746 1 -1.1104 6.50563 20.8328 3.78036
744 1 -1.1104 7.02271 20.9717 1.09225
1145 2 2.2208 5.26837 30.7034 13.5595
748 2 2.2208 10.8695 22.4855 5.11487
750 1 -1.1104 12.3661 23.8394 0.752544
751 1 -1.1104 12.263 23.8924 3.50864
752 1 -1.1104 12.3941 21.0699 0.711462
754 2 2.2208 11.0438 25.2092 2.21445
755 1 -1.1104 12.1538 21.072 3.5745
757 1 -1.1104 9.49159 23.8078 1.023
758 2 2.2208 8.19027 22.3357 2.5598
760 1 -1.1104 9.62088 23.7024 3.66026
761 2 2.2208 7.88508 25.2847 4.92949
762 1 -1.1104 9.72502 21.1017 1.00104
764 1 -1.1104 9.42466 20.8969 3.84219
753 1 -1.1104 12.3845 26.5974 0.93631
898 1 -1.1104 9.29792 24.0299 6.48589
899 1 -1.1104 9.37563 21.2434 6.62073
765 1 -1.1104 9.27632 26.5314 3.56481
756 1 -1.1104 12.451 26.8527 3.80569
896 1 -1.1104 12.3897 20.9374 6.3955
900 1 -1.1104 9.1162 27.0511 6.3449
763 1 -1.1104 9.65333 26.7892 0.941796
895 1 -1.1104 12.0606 23.854 6.34404
897 1 -1.1104 11.8212 26.7073 6.71542
1205 2 2.2208 -0.580827 42.253 13.5619
722 2 2.2208 5.0248 28.1302 5.09436
732 2 2.2208 2.20816 28.1203 2.35639
770 1 -1.1104 0.939344 29.6704 0.994829
773 1 -1.1104 0.973416 29.4187 3.82328
776 1 -1.1104 0.977454 32.5 0.98408
777 2 2.2208 5.45669 31.0627 2.22508
779 1 -1.1104 0.857052 32.2281 3.67771
781 1 -1.1104 3.67385 29.593 0.902843
784 1 -1.1104 3.96237 29.5602 3.71281
786 2 2.2208 2.42058 30.9775 5.19329
788 1 -1.1104 3.8887 32.5018 0.975945
789 1 -1.1104 3.75411 32.3543 3.602
794 1 -1.1104 6.96793 29.4201 3.64146
921 1 -1.1104 3.70161 29.5936 6.52173
920 1 -1.1104 6.63455 32.5181 6.60338
919 1 -1.1104 0.942064 32.3304 6.48968
867 1 -1.1104 6.26838 26.8707 6.42698
917 1 -1.1104 6.58482 29.8254 6.45059
780 1 -1.1104 6.68361 32.6338 3.68279
1040 2 2.2208 13.6171 33.8921 7.90455
793 1 -1.1104 6.62331 29.358 1.08749
795 1 -1.1104 6.57983 32.3628 0.649126
749 2 2.2208 10.6728 28.035 4.9191
759 2 2.2208 8.00692 28.0288 2.26111
797 1 -1.1104 12.082 29.4716 1.43727
799 1 -1.1104 12.69 29.2969 5.01393
801 1 -1.1104 12.1725 32.6037 0.927288
802 2 2.2208 10.6833 31.1957 2.3612
804 1 -1.1104 12.3275 32.31 3.67551
805 1 -1.1104 9.44564 29.5179 0.924236
808 1 -1.1104 9.71395 29.5825 3.58023
810 2 2.2208 8.10766 31.1485 5.29717
812 1 -1.1104 9.34586 32.4857 0.832142
813 1 -1.1104 9.61235 32.6459 3.66703
951 1 -1.1104 12.2664 32.1824 6.66224
952 1 -1.1104 9.77768 29.911 6.17205
1048 2 2.2208 -0.315338 33.7625 -0.443509
1640 1 -1.1104 3.78666 46.4147 12.0534
769 2 2.2208 5.27825 33.8566 5.15718
771 1 -1.1104 1.1724 35.3361 0.906069
774 1 -1.1104 1.06878 35.1445 3.84339
778 2 2.2208 5.29745 36.6984 2.34387
782 1 -1.1104 4.0379 35.2886 0.724236
783 2 2.2208 2.5416 33.9414 2.2065
785 1 -1.1104 3.8979 35.1525 3.64208
787 2 2.2208 2.30707 36.6473 5.15442
815 2 2.2208 4.95348 39.47 5.00903