LAMMPS data file via write_data, version 29 Oct 2020, timestep = 100119

17700 atoms
3 atom types

-0.36356382101562984 27.703563821015365 xlo xhi
-4.386856492919999 332.46685649291203 ylo yhi
-0.3570684122127914 27.69706841221208 zlo zhi

Masses

1 15.9994
2 232.0381
3 131.293

Atoms # full

1 0 2 2.2208 5.336213373472587 1.3502001847076894 5.216260227382288 0 0 0
2 0 1 -1.1104 1.1920205081080124 -2.917210776155165 1.2963244070628284 0 0 0
3 0 1 -1.1104 1.0069659678742646 2.6317865977526202 1.1344628000236447 0 0 0
6 0 1 -1.1104 1.06143418370958 -2.846407128214552 4.03563028643504 0 0 0
7 0 1 -1.1104 1.1790963600334399 2.6176618948912873 3.9051925762358994 0 0 0
10 0 1 -1.1104 1.268095178566133 -0.09864131199287628 1.029828294286338 0 0 0
12 0 2 2.2208 5.4648614530749535 -1.5803904476240442 2.569821124455969 0 0 0
13 0 2 2.2208 5.2760250437050855 4.096398632229449 2.5002356260536116 0 0 0
14 0 1 -1.1104 1.184829116172343 -0.1584722045258707 3.8794930560570084 0 0 0
16 0 1 -1.1104 4.0457649071527 -2.8681952092928302 0.9850126127148132 0 0 0
17 0 1 -1.1104 3.793709743382702 2.6191186646605007 1.10689314238511 0 0 0
18 0 2 2.2208 2.427082526652845 1.3063902852020424 2.542865664812714 0 0 0
19 0 1 -1.1104 4.031722517295806 -2.944768863016426 3.8037470616684845 0 0 0
20 0 1 -1.1104 3.9150632555539637 2.6419501234121077 3.847494759715833 0 0 0
21 0 2 2.2208 2.569068493128912 -1.6276729133484182 5.315826696153727 0 0 0
22 0 2 2.2208 2.606061074801699 4.094794816296589 5.468566667850891 0 0 0
23 0 1 -1.1104 3.992244501148573 -0.07902708138591653 1.0463060680247267 0 0 0
24 0 1 -1.1104 4.046138621500373 -0.11983266610870678 3.8617936436188995 0 0 0
26 0 2 2.2208 -0.20734244757995193 1.2659922066806595 5.267739844234768 0 0 0
25 0 2 2.2208 -0.30062888400776383 -1.5258561191777806 2.480719532377253 0 0 0
383 0 2 2.2208 2.4417826512631473 3.961068402822924 -0.28031538255352506 0 0 0
386 0 2 2.2208 -0.30471115897960493 1.2403865233418079 -0.20223308632739279 0 0 0
9 0 1 -1.1104 6.792205478114351 2.6521685512951088 3.9612842033227795 0 0 0
332 0 2 2.2208 13.64130054827525 17.890643858798665 8.163737733564332 0 0 0
170 0 1 -1.1104 1.101889019040295 -0.2079947839880502 6.681560879652511 0 0 0
166 0 1 -1.1104 1.2123606406089025 -3.1048004556372186 6.883777118454503 0 0 0
27 0 2 2.2208 -0.23621261361257478 4.076786411931072 2.58364735992162 0 0 0
381 0 2 2.2208 5.34588053896651 1.2614345943998926 -0.32045149093027825 0 0 0
382 0 2 2.2208 2.5752294097426263 -1.5322475100689457 -0.3176000848644221 0 0 0
231 0 2 2.2208 8.119964667122057 -4.344545708228395 8.173558777241402 0 0 0
11 0 1 -1.1104 6.679853096144111 -0.14804823492747032 1.0829061724051252 0 0 0
4 0 1 -1.1104 6.771361207449725 -3.0803203078099393 1.102514895039737 0 0 0
8 0 1 -1.1104 6.710860529122008 -3.0444208138135704 3.906182723295839 0 0 0
15 0 1 -1.1104 6.668605321596991 -0.20475875323874876 3.785906681014386 0 0 0
5 0 1 -1.1104 6.675103531033169 2.7111088602061146 1.0731906066930206 0 0 0
31 0 2 2.2208 10.964689870518336 1.211348299051782 5.201198323825084 0 0 0
32 0 1 -1.1104 12.334215532685848 -3.002148145348404 1.1128924241828677 0 0 0
33 0 1 -1.1104 12.557998888546049 2.6729801705885126 0.9325232594763536 0 0 0
34 0 1 -1.1104 12.21034196752262 -2.972334788556037 3.79451455132481 0 0 0
35 0 1 -1.1104 12.240609717913435 2.617952446728597 3.7912031130400683 0 0 0
36 0 1 -1.1104 12.408829583292711 -0.3064306728977974 1.0302307362776708 0 0 0
37 0 2 2.2208 10.885978208702504 -1.6571966682928687 2.4133345684302623 0 0 0
38 0 2 2.2208 11.082778846906454 4.08423191638101 2.3430898166735616 0 0 0
39 0 1 -1.1104 12.418879944675021 -0.16119117323133292 3.689800900599136 0 0 0
40 0 1 -1.1104 9.537858096202902 -2.9499699287211825 1.017942311297219 0 0 0
41 0 1 -1.1104 9.595693272602844 2.5708782611075027 1.0496058008955216 0 0 0
42 0 2 2.2208 8.072099075697205 1.262398879094615 2.368748082111611 0 0 0
43 0 1 -1.1104 9.571549663091222 -2.955121535812127 3.922549123088147 0 0 0
44 0 1 -1.1104 9.635044332647572 2.760531114128455 3.7545203211175058 0 0 0
45 0 2 2.2208 8.026692730786777 -1.6442256301988345 5.264843392438436 0 0 0
47 0 1 -1.1104 9.552539292770513 -0.3252971079473652 0.8621407922672186 0 0 0
48 0 1 -1.1104 9.463339159163466 -0.15920579140631577 3.6691405288226946 0 0 0
46 0 2 2.2208 8.230568023385226 4.121512760405925 5.101597669888204 0 0 0
207 0 1 -1.1104 12.286115942544225 -0.24486752198749726 6.478646025341568 0 0 0
169 0 1 -1.1104 6.786693552877496 2.791565073577782 6.667524866801928 0 0 0
208 0 1 -1.1104 9.549512886145104 -2.9739205188614397 6.742794837335026 0 0 0
388 0 2 2.2208 8.088127016818769 -1.668675166859238 -0.35685531185609043 0 0 0
387 0 2 2.2208 10.88960953167221 1.2019329018557376 -0.2976638423898516 0 0 0
389 0 2 2.2208 8.07267947705473 4.035918070481099 -0.3491824057779303 0 0 0
52 0 2 2.2208 10.943534344124663 -4.291939000280536 5.318245345015318 0 0 0
81 0 2 2.2208 -0.3126939177569657 6.930952741160069 5.339115125238383 0 0 0
54 0 2 2.2208 5.361205371715465 6.737580571316647 5.394786171628861 0 0 0
55 0 2 2.2208 5.153859120952017 12.464578319974887 5.4802438555628425 0 0 0
56 0 1 -1.1104 0.9299129034542765 8.092291885335754 1.1173879860522937 0 0 0
58 0 1 -1.1104 1.1054480878778927 8.263339321736238 3.9824134216587725 0 0 0
60 0 1 -1.1104 1.156818231648753 5.419094291736137 1.1496049900681644 0 0 0
61 0 1 -1.1104 1.0999221666217658 10.915211755845274 1.2461033079578085 0 0 0
66 0 2 2.2208 5.167006465581089 9.50048051725492 2.5776498428118764 0 0 0
67 0 1 -1.1104 1.242813780511726 5.384896059615523 4.117985648195952 0 0 0
68 0 1 -1.1104 0.9596880943668068 10.988805331023157 4.010103928502688 0 0 0
71 0 1 -1.1104 3.7043027441159455 8.194900336287239 1.2085530473271857 0 0 0
72 0 2 2.2208 2.53083470984836 6.763237776332237 2.5321788213337473 0 0 0
73 0 2 2.2208 2.5287685696007363 12.395260982431463 2.6547784811209705 0 0 0
74 0 1 -1.1104 3.9521128200392535 8.330964875992647 3.9721189862362407 0 0 0
75 0 2 2.2208 2.4699545770048847 9.576903904641044 5.457504176537239 0 0 0
76 0 1 -1.1104 3.869788114441262 5.383517762757767 0.9853128590437935 0 0 0
77 0 1 -1.1104 3.9328560047887913 11.005611434065298 1.2215023861258494 0 0 0
79 0 1 -1.1104 4.001629116366825 5.538740827355962 3.911549818352806 0 0 0
80 0 1 -1.1104 3.8201545489933095 11.205945066393944 4.0770481866955945 0 0 0
83 0 2 2.2208 -0.32169149112137635 12.434679164667273 5.2311032735021845 0 0 0
50 0 2 2.2208 13.644280448344865 -1.5851749710564078 5.092734088735484 0 0 0
64 0 1 -1.1104 6.85335970520412 11.189794244295967 0.8860681045987576 0 0 0
395 0 2 2.2208 5.235029096556777 12.351677006830485 -0.27988056336347356 0 0 0
82 0 2 2.2208 -0.3342278131085598 9.550318860513034 2.391183945002401 0 0 0
330 0 1 -1.1104 12.303148324456556 13.974782420711666 12.36886037690867 0 0 0
69 0 1 -1.1104 6.759734761678093 5.499517011720641 3.927304145299518 0 0 0
400 0 2 2.2208 10.781139085364876 12.470516273978912 -0.2770209018200243 0 0 0
70 0 1 -1.1104 6.594629571880495 10.910024774652273 3.9506321697413034 0 0 0
59 0 1 -1.1104 6.685216803195093 8.188592694406804 3.836289585951305 0 0 0
63 0 1 -1.1104 6.7059534380869925 5.462824137170305 1.2048582884880386 0 0 0
57 0 1 -1.1104 6.680518593766477 8.235111709574792 1.173535729521856 0 0 0
84 0 2 2.2208 11.094173885014294 6.9150518778372385 5.375363468387618 0 0 0
85 0 2 2.2208 10.853174527376684 12.34806170499723 5.319052606213725 0 0 0
86 0 1 -1.1104 12.279585506748239 8.205598518544809 1.006104531786422 0 0 0
87 0 1 -1.1104 12.383727103752998 8.157412917002691 3.7388885558474065 0 0 0
88 0 1 -1.1104 12.433291377692308 5.401753486971128 0.8821265343560489 0 0 0
89 0 1 -1.1104 12.305655021889898 11.059491489861934 1.0603578306873982 0 0 0
91 0 2 2.2208 10.993474708918127 9.63419058493959 2.478242568966348 0 0 0
92 0 1 -1.1104 12.411292782229687 5.375253912353418 3.788220478123382 0 0 0
93 0 1 -1.1104 12.43088829124438 10.891284285449059 4.085877638109465 0 0 0
94 0 1 -1.1104 9.496458287077768 8.296263588625294 0.8849859758324046 0 0 0
95 0 2 2.2208 8.100146237814771 6.9018533588072195 2.489239760840514 0 0 0
96 0 2 2.2208 8.081282122868783 12.444291465652537 2.542578020178679 0 0 0
97 0 1 -1.1104 9.472231429354345 8.431688179960199 3.870275863013796 0 0 0
98 0 2 2.2208 8.147895497353346 9.6828817661049 5.380149057127332 0 0 0
99 0 1 -1.1104 9.457993744029478 5.320187364642637 0.9324064159774206 0 0 0
100 0 1 -1.1104 9.518136153347978 11.054416325830156 1.133625969901059 0 0 0
102 0 1 -1.1104 9.547314938645973 5.673290532567962 3.8186199748154244 0 0 0
103 0 1 -1.1104 9.578867750459084 11.114916261752374 3.8647237062610995 0 0 0
65 0 1 -1.1104 6.784398572680369 11.056208694727362 6.846004353808498 0 0 0
90 0 1 -1.1104 12.208117923280868 11.035379306855644 6.717605937370607 0 0 0
237 0 1 -1.1104 6.927086910722272 5.467413800613119 6.635056136982126 0 0 0
399 0 2 2.2208 8.053309739446968 9.579544205784437 -0.19861369793978256 0 0 0
405 0 2 2.2208 2.4651879525558242 20.90396502587104 -0.21594685716946646 0 0 0
403 0 2 2.2208 2.507867292850668 15.24886968719032 -0.2698028482726922 0 0 0
404 0 2 2.2208 5.287717366591961 18.006540090571107 -0.3025360230484283 0 0 0
136 0 2 2.2208 -0.3276184777297599 20.96467113424992 2.546684252488057 0 0 0
106 0 2 2.2208 5.257765589562683 18.057863972136683 5.395179750777472 0 0 0
107 0 1 -1.1104 1.0476276315324207 13.80119820161199 1.2535029369014716 0 0 0
109 0 1 -1.1104 1.1184817334381811 19.53036197518882 1.2195066630950828 0 0 0
113 0 1 -1.1104 1.1100497345451998 13.959383930984538 4.025841414030877 0 0 0
114 0 1 -1.1104 1.0273440601980433 19.51920667218764 4.026844508459171 0 0 0
116 0 1 -1.1104 1.0550876357326826 16.613220041305986 1.0409524475646612 0 0 0
119 0 2 2.2208 5.341450056953632 15.333546304747864 2.5809638162535333 0 0 0
120 0 2 2.2208 5.1907335404199415 20.8755683329962 2.622274069274403 0 0 0
121 0 1 -1.1104 1.0561050403359589 16.71100767976401 3.9995829956934466 0 0 0
123 0 1 -1.1104 3.7967240179646526 13.773125172206763 1.1344137151448248 0 0 0
125 0 1 -1.1104 3.8800774480251428 19.3194628463779 1.1094852091136542 0 0 0
127 0 2 2.2208 2.395520514389342 18.049459096373383 2.494803350389798 0 0 0
128 0 1 -1.1104 3.952054540841636 13.918264639098025 3.926924078767013 0 0 0
129 0 1 -1.1104 3.8495998187121705 19.51312440237029 3.989135252893653 0 0 0
130 0 2 2.2208 2.467141415809612 15.270146464036042 5.422060643445187 0 0 0
131 0 2 2.2208 2.585241340079438 20.895803517287668 5.391566754629005 0 0 0
132 0 1 -1.1104 3.94802237227161 16.591750355836655 1.081984709907326 0 0 0
134 0 1 -1.1104 3.9338314519231754 16.788413865533826 3.9710400427509835 0 0 0
115 0 1 -1.1104 6.805558765213426 13.861277726393142 3.898720477537697 0 0 0
140 0 1 -1.1104 6.712054783481265 16.714181865913734 1.1392621891982524 0 0 0
139 0 1 -1.1104 6.641220961452474 19.521567363185138 4.0661465900247356 0 0 0
138 0 1 -1.1104 6.664493030279799 19.478233971026153 1.2393738058540766 0 0 0
135 0 2 2.2208 -0.34015562570078717 15.290006259306768 2.5024582581415253 0 0 0
319 0 1 -1.1104 9.475204236969923 13.74973217849804 9.565573393312997 0 0 0
122 0 1 -1.1104 6.688239059634961 16.707040543884357 4.007198343918613 0 0 0
110 0 1 -1.1104 6.635607006928281 13.983756192633006 1.17879407420964 0 0 0
141 0 2 2.2208 10.96044656069618 17.843552170137617 5.43067835126909 0 0 0
142 0 1 -1.1104 12.38858282402846 13.808312225870026 1.223786011873085 0 0 0
144 0 1 -1.1104 12.399582928984227 19.529669618207926 1.0870562361639295 0 0 0
146 0 1 -1.1104 12.337064121249588 13.604118779538295 4.002202237645389 0 0 0
147 0 1 -1.1104 12.155953752746509 19.379146202811523 4.005084478600263 0 0 0
148 0 1 -1.1104 12.198369464391615 16.626243716292077 1.179614157448778 0 0 0
150 0 2 2.2208 10.805553212590294 15.29554350369241 2.611987412632124 0 0 0
151 0 2 2.2208 11.047565029206279 20.95739088252796 2.6182163553922178 0 0 0
152 0 1 -1.1104 12.356838820305951 16.47557960983594 3.9910233323750006 0 0 0
153 0 1 -1.1104 9.423072851768257 13.820631450001395 1.2051538182927126 0 0 0
155 0 1 -1.1104 9.433634424104273 19.45727995808171 1.2651902494055207 0 0 0
157 0 2 2.2208 8.032535312923931 18.14965224041482 2.843528666473366 0 0 0
158 0 1 -1.1104 9.498504344101853 13.864775859646686 3.923735476270472 0 0 0
159 0 1 -1.1104 9.548707927142573 19.30402696184463 4.180024188652144 0 0 0
160 0 2 2.2208 8.082555890557748 15.17197503799944 5.32733937480432 0 0 0
161 0 2 2.2208 8.162057684240327 20.775375823605195 5.502377940375732 0 0 0
162 0 1 -1.1104 9.495384105337312 16.774920744239793 1.469663148028481 0 0 0
164 0 1 -1.1104 9.470266235290046 16.589876747461922 4.0996287454345905 0 0 0
377 0 2 2.2208 8.081969401817677 15.196234637232884 -0.2709446189617607 0 0 0
379 0 2 2.2208 8.03613764483989 20.76564037587806 -0.17888939010648386 0 0 0
378 0 2 2.2208 10.891917692232244 18.014193851069734 -0.10557217705296881 0 0 0
174 0 1 -1.1104 3.999331351325632 -0.2261848428738553 6.782020974386093 0 0 0
229 0 2 2.2208 13.663880520495333 1.1230987509526105 8.114494678447938 0 0 0
137 0 2 2.2208 -0.2181632951774013 18.193767465614656 5.355579597018818 0 0 0
172 0 1 -1.1104 3.9259317396464777 -2.9773567980649145 6.698494836994653 0 0 0
167 0 1 -1.1104 1.2692245363282808 2.6938561712851032 6.835440480115007 0 0 0
201 0 2 2.2208 -0.2899301481919075 1.1570238401650803 10.939346394199694 0 0 0
200 0 2 2.2208 -0.21136061017559557 -1.5955995865905301 8.16883301824839 0 0 0
173 0 1 -1.1104 4.04779615541147 2.558271906972712 6.691672595851828 0 0 0
175 0 2 2.2208 5.388749882568817 1.2349858903500621 10.89383620926456 0 0 0
176 0 1 -1.1104 1.0149598858523816 -3.010397713404316 12.31250109469454 0 0 0
177 0 1 -1.1104 1.1269971241290253 2.486739441677623 12.175938953042795 0 0 0
180 0 1 -1.1104 0.979285274612003 -3.0542732737166514 9.43854842013265 0 0 0
181 0 1 -1.1104 1.0321928964766711 2.517958920083358 9.51856261791216 0 0 0
184 0 1 -1.1104 1.063693027056654 -0.31954222080058486 12.196839995833633 0 0 0
186 0 2 2.2208 5.492897029656353 -1.5433287495928305 8.059119402514318 0 0 0
187 0 2 2.2208 5.477866485381006 3.9661901108084185 8.09162083698905 0 0 0
188 0 1 -1.1104 1.062497451272715 -0.3317160181360094 9.625832612042183 0 0 0
190 0 1 -1.1104 4.011991950681629 -2.958934951404904 12.19829958493263 0 0 0
191 0 1 -1.1104 4.026486656223523 2.657210940222484 12.325947050048578 0 0 0
192 0 2 2.2208 2.657694350472507 1.2192230505800348 8.114093869487563 0 0 0
193 0 1 -1.1104 4.030060850563137 -3.0180045003856346 9.408568541140637 0 0 0
194 0 1 -1.1104 3.97005285007401 2.6121060425708285 9.509920439435351 0 0 0
195 0 2 2.2208 2.525028231100805 -1.582677185978397 10.876529572715231 0 0 0
196 0 2 2.2208 2.4547630407741345 3.976053147089068 11.032983919373562 0 0 0
197 0 1 -1.1104 3.902984740525479 -0.2292340168727663 12.346142661523135 0 0 0
198 0 1 -1.1104 3.855987466324085 -0.20316591142149104 9.453682436207295 0 0 0
199 0 2 2.2208 -0.25418240314201757 3.9793431190271793 8.247421962439173 0 0 0
321 0 1 -1.1104 9.460674002961886 19.367476205481594 12.415266615027985 0 0 0
367 0 2 2.2208 -0.311810688862633 3.928214840057306 13.66472552065197 0 0 0
316 0 2 2.2208 8.120383178987094 20.78787276695429 11.051148605127045 0 0 0
168 0 1 -1.1104 6.798737973079083 -2.904438025081873 6.747256864456292 0 0 0
182 0 1 -1.1104 6.827419278593993 -2.9012870201516243 9.508730230111718 0 0 0
178 0 1 -1.1104 6.8520276590216955 -2.959796026265504 12.286740624455541 0 0 0
206 0 1 -1.1104 12.407813414029578 2.541266307678525 6.5690211427338205 0 0 0
210 0 1 -1.1104 9.373708590550391 -0.14913183400665048 6.467697568286334 0 0 0
205 0 1 -1.1104 12.308601660701257 -2.9740373741214046 6.569117420062216 0 0 0
171 0 1 -1.1104 6.5533993375122455 0.06567387286858362 6.740903490908835 0 0 0
179 0 1 -1.1104 6.758016621044874 2.625764807537886 12.32129912070627 0 0 0
209 0 1 -1.1104 9.665009470610105 2.645814140342669 6.584872137211587 0 0 0
185 0 1 -1.1104 6.755570819216577 -0.21928536481779093 12.286484073502212 0 0 0
183 0 1 -1.1104 6.823088264829902 2.5078165796476037 9.452180401479232 0 0 0
189 0 1 -1.1104 6.740982133504443 -0.25205932724774455 9.517869340505516 0 0 0
211 0 2 2.2208 10.83972535347369 1.1240384015976395 10.884361083582599 0 0 0
212 0 1 -1.1104 12.323943133396874 -3.055893934827593 12.148061869308723 0 0 0
213 0 1 -1.1104 12.204804224662523 2.5008442051793267 12.318563064351084 0 0 0
214 0 1 -1.1104 12.433469669216402 -2.977154041247553 9.360528853138666 0 0 0
215 0 1 -1.1104 12.355215690213932 2.5638608521983923 9.432917985807828 0 0 0
216 0 1 -1.1104 12.266512509443437 -0.25462985392070747 12.164909542627782 0 0 0
217 0 2 2.2208 10.922603301114021 -1.573490914844388 7.956749640740597 0 0 0
219 0 1 -1.1104 12.255301704121393 -0.21900011786244405 9.32574168376074 0 0 0
220 0 1 -1.1104 9.53983032490443 -3.1099640704793265 12.221433846662874 0 0 0
221 0 1 -1.1104 9.461800827720792 2.4510309068620906 12.278088655944357 0 0 0
222 0 2 2.2208 8.125056723265049 1.3439430369628163 7.983195528360364 0 0 0
223 0 1 -1.1104 9.613231164679938 -3.1035588448977416 9.574665549890174 0 0 0
224 0 1 -1.1104 9.636737361461133 2.53747569835162 9.418464430085425 0 0 0
225 0 2 2.2208 8.21814857838245 -1.6501306126516864 10.90763162366881 0 0 0
227 0 1 -1.1104 9.542280872150764 -0.3593512567966279 12.27154848753662 0 0 0
228 0 1 -1.1104 9.590976501967749 -0.15327017978273508 9.444851391860613 0 0 0
218 0 2 2.2208 11.063036475299807 3.9692545047185974 8.102691978507517 0 0 0
226 0 2 2.2208 8.31431532358933 3.8697883590052244 10.862387187044137 0 0 0
62 0 1 -1.1104 1.0551994090839942 11.058282454713884 6.745590166092067 0 0 0
343 0 2 2.2208 -0.3219993854796752 9.735659395688057 8.22948767627192 0 0 0
78 0 1 -1.1104 3.9096381212623688 11.016955180658606 6.732723995880967 0 0 0
236 0 1 -1.1104 1.186171746630411 5.474226039766781 6.839045636035683 0 0 0
234 0 1 -1.1104 1.094657792833873 8.16604028818461 6.686478539925325 0 0 0
342 0 2 2.2208 -0.24969239356643327 12.454527897104828 11.000890674595654 0 0 0
239 0 1 -1.1104 4.025092272396769 5.346508231651361 6.710001239909077 0 0 0
238 0 1 -1.1104 3.8076916107612755 8.050324880878515 6.7725907696326 0 0 0
240 0 2 2.2208 5.339049829105897 6.793011074641134 10.910723180738193 0 0 0
241 0 2 2.2208 5.321262294250259 12.323364223787673 10.962867834491577 0 0 0
242 0 1 -1.1104 1.1091786407302688 8.30701964034846 12.336388122144127 0 0 0
244 0 1 -1.1104 1.2672465202577785 8.23045671192604 9.45488857883064 0 0 0
246 0 1 -1.1104 1.1131178164986413 5.38801388334795 12.455141836997447 0 0 0
247 0 1 -1.1104 1.2174546435987061 11.006207621803421 12.40382540140662 0 0 0
250 0 2 2.2208 5.391261704432279 9.557634029469105 8.035467995992851 0 0 0
251 0 1 -1.1104 1.0683830523844715 5.391234130362055 9.63145112531017 0 0 0
252 0 1 -1.1104 1.0848951560889701 11.221908654362496 9.541442840487257 0 0 0
255 0 1 -1.1104 3.9239919628561437 8.351321971699896 12.283413531319116 0 0 0
256 0 2 2.2208 2.633649380421867 6.738980872527032 8.171819389406647 0 0 0
257 0 2 2.2208 2.5371505465419015 12.491869877528256 8.076603715914443 0 0 0
258 0 1 -1.1104 4.0085497752324555 8.32260409847594 9.525490668483252 0 0 0
259 0 2 2.2208 2.5638049758641777 9.699071072035872 11.00989247080996 0 0 0
260 0 1 -1.1104 3.9454900494742144 5.413047188568825 12.383368066610524 0 0 0
261 0 1 -1.1104 3.901819706180354 11.209440587264181 12.362994092706755 0 0 0
262 0 1 -1.1104 3.9406275282988874 5.379720697728818 9.500685110430775 0 0 0
263 0 1 -1.1104 3.9735215588907753 11.054013702313476 9.504708158150269 0 0 0
254 0 1 -1.1104 6.710590603731049 10.831653886966311 9.492501528349525 0 0 0
253 0 1 -1.1104 6.841086856662443 5.24694458263785 9.521320280378015 0 0 0
266 0 1 -1.1104 12.473249552122692 5.393113588370835 6.685392356644868 0 0 0
235 0 1 -1.1104 6.675830576673523 8.166067598641943 6.828463015089706 0 0 0
267 0 1 -1.1104 9.661903804616642 8.1495689713995 6.785603481076914 0 0 0
269 0 1 -1.1104 9.80798407876405 5.413120486909539 6.661609947859296 0 0 0
101 0 1 -1.1104 9.43794008470064 10.908155834655679 6.789401214623285 0 0 0
248 0 1 -1.1104 6.548610376266613 5.429386843718008 12.34377516750185 0 0 0
245 0 1 -1.1104 6.894459016993717 7.972975124510848 9.67025449095532 0 0 0
243 0 1 -1.1104 6.651602669073195 8.248462404740568 12.216519886746138 0 0 0
249 0 1 -1.1104 6.696346518147471 11.007810515799298 12.411997473146684 0 0 0
265 0 1 -1.1104 12.373648446808327 8.284065343786345 6.7125995712882 0 0 0
264 0 1 -1.1104 9.650189696951436 11.073054101511758 9.56435584964331 0 0 0
268 0 1 -1.1104 9.701621459238755 5.1297037893447675 9.641532141880178 0 0 0
270 0 1 -1.1104 9.662718674197501 10.979037037434104 12.304554102280616 0 0 0
271 0 1 -1.1104 9.483611431506379 5.375869555739033 12.376216029158263 0 0 0
272 0 2 2.2208 8.162381083996861 9.67591680159133 10.975547278493297 0 0 0
273 0 1 -1.1104 9.51482068064513 8.23315566196086 9.524010670628881 0 0 0
274 0 2 2.2208 8.206213494497872 12.332423619027963 8.199522643238575 0 0 0
275 0 2 2.2208 8.314867321006076 6.75813873864267 8.187649186325501 0 0 0
276 0 2 2.2208 10.948007576921261 6.917281413129765 10.927012055206657 0 0 0
277 0 2 2.2208 10.887772347164592 12.477276651134169 10.964382403950905 0 0 0
278 0 1 -1.1104 12.252557884328036 8.318255156368714 12.212398022215535 0 0 0
279 0 1 -1.1104 12.39264022055537 8.18718278863998 9.436234804108262 0 0 0
280 0 1 -1.1104 12.36377714811694 5.595566704909345 12.204913352877764 0 0 0
281 0 1 -1.1104 12.236224634049902 11.054810086338277 12.323810312716505 0 0 0
282 0 2 2.2208 11.031506811297051 9.650415013152763 8.108600669871052 0 0 0
283 0 1 -1.1104 12.346456564808989 5.454303936738489 9.477662644543713 0 0 0
284 0 1 -1.1104 12.486361374554594 11.120049156096997 9.61413956431951 0 0 0
285 0 1 -1.1104 9.459507691450327 8.189171534359549 12.19340084667379 0 0 0
324 0 2 2.2208 10.932675599247567 20.77769593742031 8.225391551088984 0 0 0
313 0 2 2.2208 -0.2725793033848377 15.390603884020027 8.11118055228475 0 0 0
108 0 1 -1.1104 0.9469766322563208 13.767849916276225 6.895927847814904 0 0 0
302 0 1 -1.1104 1.0018694199199245 19.47160958607962 6.891383039088791 0 0 0
126 0 1 -1.1104 3.841148417306538 19.287689913310476 6.7709597503497925 0 0 0
117 0 1 -1.1104 1.1937766327383978 16.697215918014532 6.769810496728094 0 0 0
124 0 1 -1.1104 3.834223484240618 13.765416002219563 6.719882523331131 0 0 0
133 0 1 -1.1104 3.9137615311764047 16.55627404134441 6.754227502134904 0 0 0
288 0 1 -1.1104 6.740750421533702 19.391194471309525 9.485151779384914 0 0 0
312 0 2 2.2208 -0.288279229335647 18.07117248954222 11.04354045931373 0 0 0
286 0 1 -1.1104 3.899180169774804 19.569467494365192 12.37582625501264 0 0 0
310 0 2 2.2208 2.558957113457825 15.33702803077325 11.03179316299075 0 0 0
309 0 2 2.2208 2.5295145348990165 20.811208144346388 11.073916765718764 0 0 0
308 0 1 -1.1104 3.8812763861300112 16.750589237768484 12.362390801484743 0 0 0
307 0 1 -1.1104 1.0734492620485345 16.662156696647287 12.484385566526019 0 0 0
305 0 1 -1.1104 3.984865626554506 13.938426360553176 9.422202873639684 0 0 0
304 0 1 -1.1104 3.956000012364196 16.652164395699405 9.593574910385248 0 0 0
303 0 2 2.2208 2.527262527953781 18.054069088640535 8.243800253664403 0 0 0
301 0 1 -1.1104 3.9242826134064184 19.428835556447353 9.678398628804631 0 0 0
300 0 2 2.2208 5.3472712142359 18.145690661827388 10.927733101280236 0 0 0
299 0 1 -1.1104 1.1588339816932842 13.895858601868866 12.386058601846289 0 0 0
298 0 1 -1.1104 0.9323702224559212 19.605638740629818 12.559234983655895 0 0 0
295 0 2 2.2208 5.40181209471636 15.282073786946807 8.19127897825306 0 0 0
294 0 1 -1.1104 1.1502051181523711 13.940422196452484 9.671639895775979 0 0 0
293 0 2 2.2208 5.4246800632754955 20.74130529938046 8.106695031975736 0 0 0
292 0 1 -1.1104 1.2242429951598373 16.705488572654964 9.540698746793131 0 0 0
291 0 1 -1.1104 1.0338723216367178 19.437307997750153 9.601341436071007 0 0 0
287 0 1 -1.1104 3.9213519234414083 13.92998905070666 12.39093020974173 0 0 0
111 0 1 -1.1104 6.783430585572878 13.739909843064858 6.868081981906443 0 0 0
320 0 2 2.2208 8.121555185812642 17.884729172132666 8.24862950256086 0 0 0
290 0 1 -1.1104 6.7656512519383485 13.683751012902547 9.598123772983925 0 0 0
325 0 2 2.2208 10.97506458045699 15.217524816131373 8.08268519793815 0 0 0
289 0 1 -1.1104 6.676365322492621 16.698020076635412 9.521112373341847 0 0 0
318 0 1 -1.1104 9.49105936559685 19.440060308655195 9.693664331252918 0 0 0
118 0 1 -1.1104 6.704725468530229 16.530823920187014 6.75595263274077 0 0 0
149 0 1 -1.1104 12.382894738119123 16.554330131015746 6.658255483726544 0 0 0
143 0 1 -1.1104 12.38565130619737 13.894699626285083 6.697520012519221 0 0 0
297 0 1 -1.1104 6.71546380561197 13.767183049066247 12.37982579958655 0 0 0
315 0 1 -1.1104 9.37522682182095 16.628406411521997 12.420154276809885 0 0 0
328 0 1 -1.1104 12.171968317786343 13.809346577947574 9.533704696837406 0 0 0
331 0 2 2.2208 10.860562801195021 17.942631295542164 10.9411465191718 0 0 0
322 0 1 -1.1104 9.556017390382799 13.860125824978555 12.34121435932271 0 0 0
296 0 1 -1.1104 6.593968966539386 19.43588374336398 12.378090802832928 0 0 0
306 0 1 -1.1104 6.713652023090892 16.588057531215224 12.23121938806869 0 0 0
154 0 1 -1.1104 9.620585237244626 13.788837535063038 6.699351633765141 0 0 0
329 0 1 -1.1104 12.37534458216294 19.426782643261433 12.284448730847847 0 0 0
317 0 2 2.2208 8.160397780442601 15.11872868994936 10.896653062268625 0 0 0
163 0 1 -1.1104 9.482505627077835 16.608863595904676 6.971690658124399 0 0 0
145 0 1 -1.1104 12.333292106136412 19.34149301995806 6.8190069550760475 0 0 0
156 0 1 -1.1104 9.742362954910444 19.27072744805344 6.956432362172795 0 0 0
112 0 1 -1.1104 6.777720594199056 19.260016687262254 6.744931799127345 0 0 0
326 0 1 -1.1104 12.324403992393519 16.598620716026716 12.515333211370683 0 0 0
327 0 1 -1.1104 12.351347988469568 19.417382870056432 9.438165873861468 0 0 0
323 0 1 -1.1104 12.353652865748161 16.72960176592526 9.656728452883138 0 0 0
314 0 1 -1.1104 9.51750246030321 16.544757509001553 9.685305765628856 0 0 0
349 0 2 2.2208 2.571280019430743 1.1517343527206496 13.65017688491073 0 0 0
357 0 2 2.2208 11.005181431022276 4.046145588068654 13.644046620025339 0 0 0
347 0 2 2.2208 2.6047438430765326 -4.318928576177257 13.631494666422874 0 0 0
363 0 2 2.2208 8.09432285154861 6.899262302098044 13.60279153476105 0 0 0
406 0 2 2.2208 5.359587023538537 1.3241824925148467 16.552210551439913 0 0 0
407 0 1 -1.1104 1.1090236843088923 -2.9957375001984095 17.987913385670936 0 0 0
408 0 1 -1.1104 1.189806070877545 2.57621110546123 17.918235668249512 0 0 0
411 0 1 -1.1104 1.051739749446897 -3.027831208242522 15.012427226207615 0 0 0
413 0 1 -1.1104 0.9993943470648758 2.4203761988695756 14.999821305577347 0 0 0
419 0 1 -1.1104 1.1150892170658913 -0.19620293698234523 18.032628982331648 0 0 0
421 0 2 2.2208 5.415314927080267 -1.5109896026711365 19.22994745132766 0 0 0
422 0 2 2.2208 5.364538602301964 3.915667520646586 19.278627412410174 0 0 0
423 0 1 -1.1104 1.108943423035083 -0.2218876532552744 15.005389468009485 0 0 0
427 0 1 -1.1104 3.9841690457470555 -3.0459684166944374 17.994420430054948 0 0 0
428 0 1 -1.1104 4.068956082248449 2.55917282789699 17.985743937259702 0 0 0
429 0 2 2.2208 2.5045376666560575 1.2475973782504282 19.375826422832116 0 0 0
430 0 1 -1.1104 3.8455682003059954 -3.0391861080053526 15.298168154034814 0 0 0
432 0 1 -1.1104 3.858836980355797 2.580299673403011 15.072608178874383 0 0 0
434 0 2 2.2208 2.5179787443733956 -1.4828540649404554 16.532587322239195 0 0 0
435 0 2 2.2208 2.4899347551343443 4.019145873231878 16.46789243620751 0 0 0
436 0 1 -1.1104 3.9763761215341 -0.10194627391309512 17.89210432066843 0 0 0
437 0 1 -1.1104 3.927893616524662 -0.21413160222335756 15.125814215899402 0 0 0
443 0 2 2.2208 -0.30801372029627494 -1.6742601296384674 19.350982793812555 0 0 0
441 0 2 2.2208 2.618904689315437 -4.381189369041508 19.357888909526096 0 0 0
544 0 2 2.2208 -0.2583626877646201 4.1295883217974 19.226120742186314 0 0 0
352 0 2 2.2208 5.473973192777194 4.0319263456201675 13.74810171451257 0 0 0
410 0 1 -1.1104 6.761384507817303 2.6617467447201664 17.888517413046436 0 0 0
385 0 2 2.2208 5.486392983917763 -4.290257831057602 27.649791876175136 0 0 -1
440 0 2 2.2208 5.379793862706539 -4.341102504391134 16.516381990292636 0 0 0
346 0 2 2.2208 -0.3402898907221483 -1.6237454102522377 13.730376933463807 0 0 0
439 0 2 2.2208 -0.2997959786162632 -4.335514019497261 16.484926265104672 0 0 0
424 0 1 -1.1104 1.2274189003124631 -0.17197470505275744 20.752636610711143 0 0 0
433 0 1 -1.1104 3.9703504724567873 2.626861140322678 20.74040898582463 0 0 0
415 0 1 -1.1104 6.704644245127728 -3.1317767150403615 14.963964937004432 0 0 0
425 0 1 -1.1104 6.681011440468738 -0.11072786565197318 15.088929368593352 0 0 0
417 0 1 -1.1104 6.827172171896018 2.7231606815912945 15.131364131194786 0 0 0
409 0 1 -1.1104 6.859213203349234 -2.934770860181593 17.825175778663677 0 0 0
420 0 1 -1.1104 6.754747645385802 -0.020442934856529843 17.92492430345 0 0 0
449 0 2 2.2208 11.046805269025274 1.2054522204606701 16.69825084464967 0 0 0
450 0 1 -1.1104 12.479306074950534 -2.853440186533299 17.757491358390443 0 0 0
451 0 1 -1.1104 12.511566279299876 2.4704239239027723 18.073370954385833 0 0 0
452 0 1 -1.1104 12.307353700995767 -3.0052177324013662 14.980607516842765 0 0 0
454 0 1 -1.1104 12.503519535074561 2.732623463382206 15.113725342437325 0 0 0
456 0 1 -1.1104 12.518473861235263 -0.17935506428813927 17.883836499186387 0 0 0
457 0 2 2.2208 10.96604398478657 -1.68096452527266 19.25586604332232 0 0 0
459 0 1 -1.1104 12.364190227292758 -0.15548490448299498 14.933825805198222 0 0 0
461 0 1 -1.1104 9.646712143815392 -2.8819336825498834 17.810814798898708 0 0 0
462 0 1 -1.1104 9.578121090576692 2.6996059567601898 17.961144410288437 0 0 0
463 0 2 2.2208 8.039981037060468 1.2420177560341827 19.248854262168493 0 0 0
464 0 1 -1.1104 9.448898452598133 -3.0347893858820143 15.165892714037144 0 0 0