ITEM: TIMESTEP
60000
ITEM: NUMBER OF ATOMS
17700
ITEM: BOX BOUNDS pp pp pp
-3.2638909236518143e-01 2.7666389092364913e+01
-3.7643885023854780e+00 3.3184438850237700e+02
-3.2407847511001636e-01 2.7664078475109271e+01
ITEM: ATOMS id type q x y z
1 2 2.2208 5.25277 1.96949 5.22227
2 1 -1.1104 1.18554 -2.2854 1.03314
3 1 -1.1104 1.09868 3.15897 1.01757
6 1 -1.1104 1.23425 -2.38363 3.76357
7 1 -1.1104 1.16954 3.16644 3.8095
10 1 -1.1104 1.10424 0.482434 0.926172
12 2 2.2208 5.34118 -0.898964 2.50997
14 1 -1.1104 1.05829 0.392259 3.91854
16 1 -1.1104 3.93268 -2.32115 1.04421
17 1 -1.1104 3.88031 3.12476 1.04396
18 2 2.2208 2.45701 1.89002 2.4325
19 1 -1.1104 3.84848 -2.17586 3.84763
20 1 -1.1104 3.88422 3.39973 3.92056
21 2 2.2208 2.45809 -0.862163 5.30674
22 2 2.2208 2.53818 4.7016 5.273
23 1 -1.1104 3.8231 0.45179 1.11099
24 1 -1.1104 3.86376 0.638773 3.88823
13 2 2.2208 5.30608 4.59348 2.4195
337 2 2.2208 13.646 15.8176 5.20729
172 1 -1.1104 3.87201 -2.20958 6.65138
369 2 2.2208 5.31639 21.4706 13.6808
370 2 2.2208 13.6515 1.778 13.6142
174 1 -1.1104 3.84117 0.522425 6.67966
167 1 -1.1104 1.13761 3.29485 6.61138
137 2 2.2208 -0.293926 18.5565 5.3524
394 2 2.2208 2.56102 10.2753 -0.297679
29 2 2.2208 5.22522 -3.61313 5.2308
28 2 2.2208 2.5522 -3.67698 2.41099
52 2 2.2208 10.9578 -3.65658 5.17994
232 2 2.2208 10.9457 -3.75144 10.7963
30 2 2.2208 -0.200145 -3.70548 5.1143
9 1 -1.1104 6.69365 3.24531 3.85515
4 1 -1.1104 6.76013 -2.31054 1.04887
15 1 -1.1104 6.71292 0.407966 3.88667
5 1 -1.1104 6.74027 3.15536 0.963397
8 1 -1.1104 6.77294 -2.31409 3.81715
11 1 -1.1104 6.69494 0.534829 1.07238
31 2 2.2208 10.8552 1.81755 5.22409
32 1 -1.1104 12.2808 -2.39337 1.06926
33 1 -1.1104 12.2926 3.16327 1.0859
34 1 -1.1104 12.3555 -2.26562 3.87735
35 1 -1.1104 12.2685 3.24575 3.84044
36 1 -1.1104 12.3912 0.465342 1.10497
37 2 2.2208 10.9618 -0.865582 2.46199
38 2 2.2208 10.8491 4.56598 2.40745
39 1 -1.1104 12.3573 0.456227 3.88071
40 1 -1.1104 9.49376 -2.34912 1.01652
41 1 -1.1104 9.51798 3.202 1.10627
42 2 2.2208 8.09846 1.84439 2.44896
43 1 -1.1104 9.57514 -2.33884 3.69733
44 1 -1.1104 9.50643 3.20644 3.90696
45 2 2.2208 8.11141 -0.930257 5.17458
46 2 2.2208 8.08208 4.67858 5.19049
47 1 -1.1104 9.53651 0.405358 0.945626
48 1 -1.1104 9.55637 0.488991 3.79191
171 1 -1.1104 6.63039 0.507064 6.53127
210 1 -1.1104 9.39446 0.339371 6.62378
209 1 -1.1104 9.56167 3.20305 6.74198
207 1 -1.1104 12.2641 0.414713 6.70236
206 1 -1.1104 12.3005 3.28265 6.55856
169 1 -1.1104 6.80516 3.28502 6.59045
208 1 -1.1104 9.59849 -2.39747 6.54519
330 1 -1.1104 12.2344 14.4767 12.2711
136 2 2.2208 -0.236023 21.3737 2.47794
201 2 2.2208 -0.252409 1.92226 10.8658
54 2 2.2208 5.32452 7.43786 5.2048
55 2 2.2208 5.32325 13.0677 5.24191
56 1 -1.1104 1.07584 8.76924 1.03257
58 1 -1.1104 1.0789 8.78463 3.88079
60 1 -1.1104 1.12623 5.94788 1.03849
61 1 -1.1104 1.1228 11.6405 1.03523
66 2 2.2208 5.19416 10.257 2.4886
67 1 -1.1104 1.06856 5.91288 3.79326
68 1 -1.1104 1.11342 11.6357 3.80169
71 1 -1.1104 3.87139 8.66517 1.12881
72 2 2.2208 2.42328 7.41243 2.48125
73 2 2.2208 2.43978 13.019 2.49945
74 1 -1.1104 3.82946 8.81348 3.8879
75 2 2.2208 2.47413 10.3011 5.3705
76 1 -1.1104 3.9918 5.96985 1.08627
77 1 -1.1104 3.83652 11.4719 1.09842
79 1 -1.1104 3.85806 6.05491 3.95883
80 1 -1.1104 3.85143 11.7042 4.00342
236 1 -1.1104 0.987396 6.04302 6.61709
57 1 -1.1104 6.64433 8.91213 1.01705
70 1 -1.1104 6.58753 11.7336 3.8268
64 1 -1.1104 6.57473 11.7151 1.13715
78 1 -1.1104 3.83833 11.7276 6.71397
321 1 -1.1104 9.50221 20.0703 12.2451
81 2 2.2208 -0.325742 7.41727 5.22171
345 2 2.2208 13.6601 21.4446 10.9419
344 2 2.2208 -0.256948 7.47587 10.9357
315 1 -1.1104 9.48665 17.2321 12.3042
63 1 -1.1104 6.69114 5.9482 1.00632
69 1 -1.1104 6.68809 6.11728 3.73925
59 1 -1.1104 6.69201 8.90846 3.87989
84 2 2.2208 10.8459 7.44243 5.3245
85 2 2.2208 10.8365 13.0182 5.24157
86 1 -1.1104 12.3603 8.7031 1.13623
87 1 -1.1104 12.1399 8.71796 3.95379
88 1 -1.1104 12.3615 5.9274 1.17358
89 1 -1.1104 12.2144 11.4034 1.08097
91 2 2.2208 10.8597 10.1532 2.54091
92 1 -1.1104 12.3424 5.94571 3.8662
93 1 -1.1104 12.3108 11.5326 3.90062
94 1 -1.1104 9.48765 8.87662 1.04645
95 2 2.2208 8.15674 7.39053 2.46031
96 2 2.2208 8.06759 12.954 2.43408
97 1 -1.1104 9.43985 8.82413 3.89064
98 2 2.2208 8.0731 10.2616 5.23621
99 1 -1.1104 9.44936 6.01981 1.01627
100 1 -1.1104 9.47625 11.5884 1.07631
102 1 -1.1104 9.52818 6.04178 3.77884
103 1 -1.1104 9.57957 11.5456 3.90915
269 1 -1.1104 9.44203 6.05203 6.62507
265 1 -1.1104 12.2814 8.81585 6.82485
101 1 -1.1104 9.45087 11.6826 6.64658
319 1 -1.1104 9.45681 14.5604 9.37732
313 2 2.2208 -0.286318 15.765 8.04518
202 2 2.2208 2.41229 -3.67692 7.98232
325 2 2.2208 10.8804 15.8378 8.03061
106 2 2.2208 5.27597 18.5288 5.24467
107 1 -1.1104 1.05074 14.4171 1.04053
109 1 -1.1104 1.21838 20.1177 1.20682
113 1 -1.1104 0.99903 14.3522 3.85649
114 1 -1.1104 1.12151 20.0381 3.98662
116 1 -1.1104 1.0807 17.2572 1.09466
119 2 2.2208 5.35503 15.8112 2.39352
120 2 2.2208 5.25225 21.4028 2.54683
121 1 -1.1104 1.08938 17.1766 3.91484
123 1 -1.1104 3.88552 14.3802 1.05387
125 1 -1.1104 3.93768 19.9638 1.10229
127 2 2.2208 2.5805 18.6217 2.48807
128 1 -1.1104 3.86498 14.4918 3.802
129 1 -1.1104 3.88222 20.01 3.88909
130 2 2.2208 2.49294 15.7914 5.2397
131 2 2.2208 2.4018 21.4158 5.32265
132 1 -1.1104 3.95804 17.2314 1.06915
134 1 -1.1104 3.99681 17.1838 3.80566
117 1 -1.1104 1.13215 17.1442 6.66661
118 1 -1.1104 6.67248 17.1329 6.66875
154 1 -1.1104 9.50303 14.4556 6.59871
138 1 -1.1104 6.64905 19.9922 1.11873
139 1 -1.1104 6.6812 20.0345 3.91097
302 1 -1.1104 1.08743 20.004 6.73993
329 1 -1.1104 12.2351 19.9915 12.3419
363 2 2.2208 8.0615 7.44508 13.6679
289 1 -1.1104 6.62477 17.1966 9.47742
140 1 -1.1104 6.76234 17.2527 0.985511
115 1 -1.1104 6.6822 14.4431 3.87088
122 1 -1.1104 6.66913 17.2605 3.81059
110 1 -1.1104 6.79059 14.499 1.02558
141 2 2.2208 10.8969 18.6212 5.27335
142 1 -1.1104 12.2442 14.2946 1.09946
144 1 -1.1104 12.2698 19.8651 1.09627
146 1 -1.1104 12.174 14.385 3.88565
147 1 -1.1104 12.2918 20.0181 3.88919
148 1 -1.1104 12.3728 17.068 1.04543
150 2 2.2208 10.8494 15.8343 2.47338
151 2 2.2208 10.872 21.366 2.51045
152 1 -1.1104 12.2897 17.2254 3.79885
153 1 -1.1104 9.57559 14.3773 1.00253
155 1 -1.1104 9.48742 19.9451 1.06098
157 2 2.2208 8.10087 18.6586 2.54799
158 1 -1.1104 9.3832 14.4357 3.8441
159 1 -1.1104 9.42489 20.0849 3.89203
160 2 2.2208 8.07421 15.8416 5.2263
161 2 2.2208 8.05174 21.4403 5.21148
162 1 -1.1104 9.48097 17.2612 0.960973
164 1 -1.1104 9.48201 17.1892 3.86134
143 1 -1.1104 12.3044 14.3595 6.54559
145 1 -1.1104 12.2728 19.9811 6.70852
163 1 -1.1104 9.45166 17.2068 6.68639
398 2 2.2208 10.945 7.43477 -0.312588
156 1 -1.1104 9.47916 20.0831 6.63727
170 1 -1.1104 1.04614 0.454758 6.6877
173 1 -1.1104 3.90653 3.30208 6.65633
27 2 2.2208 -0.303709 4.57824 2.41195
355 2 2.2208 8.07569 1.80862 13.6061
399 2 2.2208 8.10035 10.194 -0.327122
166 1 -1.1104 0.97385 -2.34253 6.56707
357 2 2.2208 10.8459 4.63801 13.5832
175 2 2.2208 5.28874 1.76144 10.7645
176 1 -1.1104 0.987283 -2.30076 12.2982
177 1 -1.1104 1.05758 3.34268 12.2225
180 1 -1.1104 1.11277 -2.28535 9.36007
181 1 -1.1104 1.06614 3.25538 9.38739
184 1 -1.1104 1.05162 0.423408 12.3355
186 2 2.2208 5.31114 -0.950452 7.98564
187 2 2.2208 5.28568 4.63227 8.00623
188 1 -1.1104 1.16202 0.515987 9.56315
190 1 -1.1104 4.00331 -2.34133 12.3216
191 1 -1.1104 3.82532 3.25062 12.2117
192 2 2.2208 2.48318 1.89226 8.06794
193 1 -1.1104 3.89911 -2.37472 9.52698
194 1 -1.1104 3.84903 3.27369 9.43349
195 2 2.2208 2.54281 -0.96108 10.8655
196 2 2.2208 2.4745 4.71534 10.9259
197 1 -1.1104 3.83205 0.439205 12.1223
198 1 -1.1104 3.92069 0.463052 9.37319
316 2 2.2208 8.1408 21.4214 10.8153
185 1 -1.1104 6.62613 0.471175 12.1865
341 2 2.2208 13.6691 10.2913 10.8264
326 1 -1.1104 12.3112 17.2217 12.2524
318 1 -1.1104 9.38789 20.0471 9.45303
317 2 2.2208 8.10252 15.8902 10.9029
290 1 -1.1104 6.61265 14.3878 9.50605
135 2 2.2208 -0.251092 15.7768 2.49652
231 2 2.2208 8.12652 -3.7328 8.02979
168 1 -1.1104 6.73733 -2.35881 6.4964
182 1 -1.1104 6.62275 -2.45921 9.36563
189 1 -1.1104 6.7638 0.369979 9.37199
205 1 -1.1104 12.3322 -2.30172 6.7436
356 2 2.2208 10.7955 -0.963724 13.6338
178 1 -1.1104 6.75075 -2.33675 12.2741
179 1 -1.1104 6.6629 3.15431 12.2546
183 1 -1.1104 6.68512 3.21915 9.4058
211 2 2.2208 10.9111 1.81287 10.88
212 1 -1.1104 12.1943 -2.35525 12.1372
213 1 -1.1104 12.2889 3.1348 12.2055
214 1 -1.1104 12.3402 -2.34651 9.46063
215 1 -1.1104 12.4107 3.20829 9.44126
216 1 -1.1104 12.3576 0.316564 12.3124
217 2 2.2208 11.0023 -1.01156 8.05869
218 2 2.2208 10.9697 4.62525 8.03093
219 1 -1.1104 12.3123 0.474036 9.45662
220 1 -1.1104 9.3582 -2.46024 12.1805
221 1 -1.1104 9.40392 3.14406 12.2923
222 2 2.2208 8.11438 1.7919 7.95246
223 1 -1.1104 9.49727 -2.35445 9.44331
224 1 -1.1104 9.5282 3.12392 9.53417
225 2 2.2208 8.0694 -1.08071 10.7556
226 2 2.2208 8.06425 4.55642 10.8046
227 1 -1.1104 9.48817 0.423017 12.2912
228 1 -1.1104 9.54768 0.487085 9.47103
149 1 -1.1104 12.2413 17.2038 6.64426
320 2 2.2208 8.10487 18.6285 8.02024
239 1 -1.1104 3.96753 6.17672 6.74347
238 1 -1.1104 3.86789 8.96363 6.63148
342 2 2.2208 -0.279635 13.1101 10.8144
235 1 -1.1104 6.63932 8.89534 6.67869
324 2 2.2208 10.8933 21.3646 8.08597
234 1 -1.1104 1.09753 8.87868 6.60383
62 1 -1.1104 1.01911 11.5592 6.71645
240 2 2.2208 5.24662 7.46347 10.8454
241 2 2.2208 5.40276 13.0571 10.9285
242 1 -1.1104 1.0666 8.87819 12.3303
244 1 -1.1104 1.03397 8.88007 9.47487
246 1 -1.1104 1.11127 6.06869 12.3788
247 1 -1.1104 1.14666 11.6379 12.1784
250 2 2.2208 5.29056 10.2375 8.0698
251 1 -1.1104 1.20915 6.08691 9.51607
252 1 -1.1104 1.06411 11.7244 9.44332
255 1 -1.1104 3.85503 8.87475 12.2695
256 2 2.2208 2.47914 7.49195 8.09484
257 2 2.2208 2.47881 13.0265 8.0709
258 1 -1.1104 3.82594 8.88774 9.46326
259 2 2.2208 2.42486 10.2812 10.8684
260 1 -1.1104 3.79917 6.04093 12.2877
261 1 -1.1104 3.96238 11.6246 12.2651
262 1 -1.1104 3.92684 6.10497 9.44926
263 1 -1.1104 3.91119 11.7284 9.4492
249 1 -1.1104 6.6911 11.6298 12.2094
243 1 -1.1104 6.6632 8.84564 12.2711
111 1 -1.1104 6.66912 14.3887 6.64734
237 1 -1.1104 6.7517 6.04875 6.63947
266 1 -1.1104 12.2614 6.11356 6.62084
328 1 -1.1104 12.3462 14.4265 9.32745
245 1 -1.1104 6.69289 8.75218 9.43998
248 1 -1.1104 6.69947 6.06366 12.2177
253 1 -1.1104 6.69336 6.00937 9.49188
65 1 -1.1104 6.75135 11.6631 6.61641
267 1 -1.1104 9.45031 8.91637 6.77596
90 1 -1.1104 12.2739 11.629 6.6875
254 1 -1.1104 6.68933 11.5359 9.42783
264 1 -1.1104 9.5206 11.6884 9.53195
268 1 -1.1104 9.50541 5.92515 9.40749
270 1 -1.1104 9.45346 11.5508 12.3038
271 1 -1.1104 9.44777 5.94604 12.1654
272 2 2.2208 8.06779 10.1453 10.9126
273 1 -1.1104 9.38134 8.76495 9.57289
274 2 2.2208 8.06834 13.0571 8.10108
275 2 2.2208 8.01643 7.48668 8.1249
276 2 2.2208 10.8512 7.40133 10.8318
277 2 2.2208 10.8972 13.0474 10.8411
278 1 -1.1104 12.2818 8.79987 12.1864
279 1 -1.1104 12.274 8.83866 9.45852
280 1 -1.1104 12.1906 5.93152 12.2824
281 1 -1.1104 12.2431 11.6009 12.3126
282 2 2.2208 10.83 10.2493 8.08892
283 1 -1.1104 12.3517 6.00505 9.41619
284 1 -1.1104 12.2897 11.671 9.51206
285 1 -1.1104 9.47409 8.77642 12.2595
297 1 -1.1104 6.71941 14.5101 12.2536
331 2 2.2208 10.8945 18.6104 10.902
133 1 -1.1104 3.94654 17.0992 6.61642
126 1 -1.1104 3.88581 19.8675 6.85647
124 1 -1.1104 3.86042 14.3868 6.7002
108 1 -1.1104 1.11611 14.3031 6.61705
112 1 -1.1104 6.66038 20.0374 6.61564
296 1 -1.1104 6.62026 19.9763 12.2853
322 1 -1.1104 9.44271 14.4477 12.3094
327 1 -1.1104 12.2221 20.0048 9.54416
286 1 -1.1104 3.91434 20.0242 12.3919
291 1 -1.1104 1.1403 19.9619 9.54947
292 1 -1.1104 1.13089 17.1896 9.51169
293 2 2.2208 5.20849 21.3914 8.13567
310 2 2.2208 2.63196 15.8642 10.9165
309 2 2.2208 2.49997 21.3694 10.9282
308 1 -1.1104 3.86407 17.2591 12.305
307 1 -1.1104 0.95322 17.2558 12.2735
305 1 -1.1104 3.87613 14.4717 9.4929
304 1 -1.1104 3.89528 17.2498 9.44943
303 2 2.2208 2.49608 18.5541 8.07135
301 1 -1.1104 3.87497 20.0311 9.59298
300 2 2.2208 5.28531 18.6762 10.9363
299 1 -1.1104 1.13884 14.4241 12.2548
298 1 -1.1104 1.15092 20.0627 12.3741
287 1 -1.1104 3.93908 14.4954 12.3259
295 2 2.2208 5.29657 15.7975 8.08764
294 1 -1.1104 1.14966 14.471 9.45935
288 1 -1.1104 6.74072 20.0134 9.47063
323 1 -1.1104 12.3427 17.2214 9.45419
306 1 -1.1104 6.72094 17.279 12.3402
314 1 -1.1104 9.51716 17.236 9.52196
350 2 2.2208 -0.306626 21.4592 13.5723
354 2 2.2208 13.6661 -3.71942 13.5883
373 2 2.2208 10.8928 15.7981 13.6683
361 2 2.2208 2.49684 13.0588 13.649
348 2 2.2208 5.27418 -0.940044 13.6421
352 2 2.2208 5.2767 4.664 13.5242
347 2 2.2208 2.43599 -3.64832 13.6171
349 2 2.2208 2.4773 1.87338 13.6428
364 2 2.2208 10.9127 10.1714 13.5984
360 2 2.2208 5.27623 10.2158 13.6511
387 2 2.2208 10.9772 1.79041 -0.329467
395 2 2.2208 5.2992 13.1128 -0.262618
405 2 2.2208 2.63795 21.4097 -0.287054
406 2 2.2208 5.32963 1.90968 16.361
407 1 -1.1104 1.08599 -2.32596 17.8888
408 1 -1.1104 0.99959 3.29492 17.8737
411 1 -1.1104 1.219 -2.38493 15.1399
413 1 -1.1104 1.08422 3.22431 15.0341
419 1 -1.1104 1.18316 0.480528 17.9216
421 2 2.2208 5.26562 -0.93793 19.2104
422 2 2.2208 5.23884 4.65556 19.2674
423 1 -1.1104 1.08234 0.372523 15.0279
427 1 -1.1104 3.75061 -2.34482 17.7753
428 1 -1.1104 3.86008 3.22645 17.7321
429 2 2.2208 2.56726 1.83108 19.2371
430 1 -1.1104 3.89267 -2.27741 15.065
432 1 -1.1104 3.9908 3.37066 14.9677
434 2 2.2208 2.43629 -0.975755 16.4802
435 2 2.2208 2.46311 4.71267 16.4568
436 1 -1.1104 4.06992 0.410871 17.8252
437 1 -1.1104 3.91661 0.568681 14.9412
438 1 -1.1104 3.88702 0.484292 20.6912
440 2 2.2208 5.34917 -3.73275 16.3826
425 1 -1.1104 6.68826 0.351926 15.0685
409 1 -1.1104 6.62385 -2.35593 17.9266
415 1 -1.1104 6.74946 -2.37936 15.114
666 2 2.2208 13.6523 -3.69958 24.8419
384 2 2.2208 -0.316003 -3.72511 27.5585
442 2 2.2208 -0.264553 1.91224 16.5003
418 1 -1.1104 6.66396 3.27949 20.5987
365 2 2.2208 8.04909 12.9799 13.7219
417 1 -1.1104 6.76071 3.3254 14.984
410 1 -1.1104 6.62872 3.21127 17.8632
420 1 -1.1104 6.68296 0.475039 17.9028
449 2 2.2208 10.886 1.80112 16.469
450 1 -1.1104 12.3018 -2.38092 17.76
451 1 -1.1104 12.2818 3.11998 17.8566
452 1 -1.1104 12.2656 -2.36448 14.9157
454 1 -1.1104 12.1851 3.22717 15.0127
456 1 -1.1104 12.323 0.29569 17.7141
457 2 2.2208 10.8963 -1.04909 19.2122
458 2 2.2208 10.8421 4.65018 19.2961
459 1 -1.1104 12.2812 0.41736 15.0583
461 1 -1.1104 9.45299 -2.44597 17.8815
462 1 -1.1104 9.53122 3.19977 17.8913
463 2 2.2208 8.09424 1.84312 19.2707
464 1 -1.1104 9.53506 -2.41954 15.1011
466 1 -1.1104 9.48273 3.18414 15.1383
468 2 2.2208 8.06324 -0.935687 16.4387
469 2 2.2208 8.13151 4.58073 16.4917
470 1 -1.1104 9.45366 0.379254 17.8352
471 1 -1.1104 9.44992 0.460546 15.0722
472 1 -1.1104 9.61493 0.519768 20.6495
455 1 -1.1104 12.2795 3.20735 20.6661
467 1 -1.1104 9.4155 3.36819 20.6576
475 2 2.2208 8.03446 -3.69495 19.2798
516 2 2.2208 -0.272596 12.9432 16.5214
426 1 -1.1104 6.72871 0.470832 20.6428
698 1 -1.1104 9.47245 19.9711 26.3231
673 1 -1.1104 9.61776 14.3864 26.1982
476 2 2.2208 -0.229122 21.3984 19.1772
482 2 2.2208 5.2904 7.40778 16.4191
483 2 2.2208 5.21672 12.8959 16.4367
484 1 -1.1104 1.01362 8.7595 17.9508
486 1 -1.1104 1.21295 8.88663 15.0902
490 1 -1.1104 0.97031 6.02149 17.8897
491 1 -1.1104 1.12026 11.5607 17.9529
494 2 2.2208 5.26753 10.1662 19.2328
495 1 -1.1104 0.900185 6.06474 15.0932
497 1 -1.1104 1.01698 11.6782 15.1154
503 1 -1.1104 3.83012 8.76727 17.9275
504 2 2.2208 2.46476 7.3808 19.3748
505 2 2.2208 2.52149 12.946 19.2906
506 1 -1.1104 3.91529 8.91746 15.1025
508 2 2.2208 2.4783 10.1341 16.5492
509 1 -1.1104 3.8133 5.982 17.9632
510 1 -1.1104 3.86485 11.4574 17.8929
511 1 -1.1104 3.75038 6.16667 15.1812
513 1 -1.1104 3.80848 11.6602 15.069
501 1 -1.1104 6.6338 11.5755 14.9934
496 1 -1.1104 1.01695 6.0322 20.7668
493 1 -1.1104 6.68975 11.5788 17.803
444 2 2.2208 -0.304995 7.40819 22.073
487 1 -1.1104 1.0562 8.95422 20.7228
489 1 -1.1104 6.60807 8.77999 20.7273
512 1 -1.1104 3.89772 6.0715 20.7369
639 2 2.2208 5.24233 -3.72404 21.9918
488 1 -1.1104 6.70884 8.85956 15.027
485 1 -1.1104 6.66662 8.7092 17.9726
502 1 -1.1104 6.71001 11.4801 20.6413
492 1 -1.1104 6.62937 5.97383 17.8768
499 1 -1.1104 6.60114 6.00989 14.9942
518 2 2.2208 10.8117 7.40665 16.5168
519 2 2.2208 10.791 13.0516 16.5479
520 1 -1.1104 12.315 8.741 17.85
521 1 -1.1104 12.2863 8.80494 14.9797
523 1 -1.1104 12.1807 5.96511 17.8097
524 1 -1.1104 12.276 11.6625 17.8906
525 2 2.2208 10.8266 10.2206 19.3172
526 1 -1.1104 12.2435 6.02511 15.0175
528 1 -1.1104 12.1502 11.6563 15.1476
530 1 -1.1104 9.44991 8.67913 17.8785
531 2 2.2208 8.01278 7.35427 19.2944
532 2 2.2208 8.13046 13.0124 19.2858
533 1 -1.1104 9.45541 8.86204 15.0589
535 2 2.2208 8.02366 10.1134 16.5124
536 1 -1.1104 9.47496 5.9056 17.7994
537 1 -1.1104 9.41472 11.5755 17.9131
538 1 -1.1104 9.44493 5.96871 15.0517
540 1 -1.1104 9.38176 11.6311 15.1031
541 1 -1.1104 9.53259 11.6198 20.6959
668 2 2.2208 10.8553 -3.6509 22.0102
663 1 -1.1104 12.2181 17.3033 26.2272
739 1 -1.1104 6.64905 14.4208 23.3805
607 2 2.2208 10.8975 18.6346 22.0947
404 2 2.2208 5.35114 18.6005 27.6306
545 2 2.2208 5.32555 18.6551 16.5744
546 1 -1.1104 1.12495 14.3215 17.8122
547 1 -1.1104 1.1492 20.0421 17.7539
550 1 -1.1104 1.01334 14.4036 15.0291
552 1 -1.1104 0.96899 20.0926 15.0367
558 1 -1.1104 1.16853 17.1744 17.8715
560 2 2.2208 5.24912 15.7396 19.3412
561 2 2.2208 5.38127 21.445 19.2367
562 1 -1.1104 1.03451 17.2466 15.091
566 1 -1.1104 3.90999 14.3451 17.8665
567 1 -1.1104 3.87003 20.0624 17.8774
568 2 2.2208 2.54144 18.5146 19.2906
569 1 -1.1104 3.91275 14.3655 15.0851
571 1 -1.1104 3.95786 20.0207 15.0503
573 2 2.2208 2.46415 15.7653 16.455
574 2 2.2208 2.57199 21.4693 16.3854
575 1 -1.1104 3.86048 17.1845 17.9721
576 1 -1.1104 3.86211 17.1517 15.1814
551 1 -1.1104 1.14974 14.3849 20.5617
572 1 -1.1104 3.95437 20.0362 20.5982
564 1 -1.1104 6.67783 17.299 15.1753
549 1 -1.1104 6.71133 20.0492 17.9245
570 1 -1.1104 3.82201 14.4069 20.64
548 1 -1.1104 6.69113 14.2745 17.9536
556 1 -1.1104 6.66937 20.0376 15.1067
703 2 2.2208 -0.295283 12.9816 22.0869
640 2 2.2208 2.4604 -3.6873 24.8648
390 2 2.2208 10.8974 -3.76048 27.6434
388 2 2.2208 8.17489 -1.03035 27.6149
578 2 2.2208 13.641 1.82007 19.2427
555 1 -1.1104 6.69724 14.4657 20.6762
554 1 -1.1104 6.70342 14.4492 15.09
559 1 -1.1104 6.57234 17.1648 17.9694
581 2 2.2208 10.8313 18.5918 16.428
582 1 -1.1104 12.3369 14.3542 17.9691
583 1 -1.1104 12.3013 19.8655 17.9174
584 1 -1.1104 12.305 14.563 15.1261
586 1 -1.1104 12.1982 20.1503 15.1567
588 1 -1.1104 12.3167 17.2047 17.8274
589 2 2.2208 10.9009 15.8238 19.2802
590 2 2.2208 10.9751 21.3379 19.2191
591 1 -1.1104 12.2936 17.353 15.0765
593 1 -1.1104 9.55459 14.4457 17.9133
594 1 -1.1104 9.45355 19.9712 17.8848
595 2 2.2208 8.12053 18.6533 19.3326
596 1 -1.1104 9.47996 14.4822 15.0846
598 1 -1.1104 9.4507 20.0777 15.01
600 2 2.2208 8.01831 15.7945 16.5173
601 2 2.2208 8.12083 21.4987 16.494
602 1 -1.1104 9.49452 17.227 17.8809
603 1 -1.1104 9.42855 17.1779 15.0679
604 1 -1.1104 9.53697 17.2785 20.6732
557 1 -1.1104 6.80345 20.0338 20.6929
565 1 -1.1104 6.70747 17.3598 20.6442
700 2 2.2208 8.11737 21.4097 22.0128
642 2 2.2208 -0.293636 -0.98567 24.7647
725 2 2.2208 -0.263399 15.8463 24.8198
587 1 -1.1104 12.3364 20.0247 20.6372
723 2 2.2208 -0.254842 18.5029 22.0738
414 1 -1.1104 1.16459 3.22519 20.6237
412 1 -1.1104 1.13952 -2.34836 20.6532
431 1 -1.1104 3.82515 -2.41733 20.6612
433 1 -1.1104 3.95383 3.28243 20.6482
416 1 -1.1104 6.60965 -2.24032 20.6601
732 1 -1.1104 6.63292 17.2245 26.21
599 1 -1.1104 9.54358 19.9235 20.6338
424 1 -1.1104 1.03331 0.477853 20.6367
359 2 2.2208 2.45704 7.58612 13.7076
609 2 2.2208 5.30733 1.89156 22.0233
610 1 -1.1104 1.09243 -2.31492 23.4592
611 1 -1.1104 1.01386 3.28204 23.4674
614 1 -1.1104 1.18815 -2.31625 26.2744
615 1 -1.1104 1.08905 3.26521 26.2145
618 1 -1.1104 1.07379 0.476869 23.4277
620 2 2.2208 5.32271 -0.944444 24.791
621 2 2.2208 5.24764 4.52 24.8119
622 1 -1.1104 1.13795 0.429195 26.1263
624 1 -1.1104 3.83286 -2.35645 23.5014
625 1 -1.1104 3.82254 3.22703 23.3864
626 2 2.2208 2.469 1.81264 24.7987
627 1 -1.1104 4.00688 -2.31475 26.2428
628 1 -1.1104 3.77711 3.23919 26.1881
629 2 2.2208 2.4694 -0.978501 22.0253
630 2 2.2208 2.46464 4.70754 22.0726
631 1 -1.1104 3.85073 0.424484 23.4612
632 1 -1.1104 3.96472 0.504608 26.2828
617 1 -1.1104 6.62749 3.16293 26.1785
579 2 2.2208 13.6315 4.6201 16.4585
447 2 2.2208 -0.272706 18.6119 16.4161
386 2 2.2208 -0.300843 1.78516 27.6301
446 2 2.2208 13.6527 4.60078 22.1024
382 2 2.2208 2.57013 -0.940869 27.603
465 1 -1.1104 9.50085 -2.29196 20.6244
460 1 -1.1104 12.4286 0.419544 20.6036
641 2 2.2208 10.9202 21.3777 24.8462
619 1 -1.1104 6.74388 0.377746 23.4131
623 1 -1.1104 6.70713 0.447265 26.3004
453 1 -1.1104 12.3058 -2.39038 20.6209
613 1 -1.1104 6.52401 3.2095 23.4506
612 1 -1.1104 6.63286 -2.42966 23.405
616 1 -1.1104 6.70727 -2.40632 26.2493
645 2 2.2208 10.8908 1.81447 22.0222
646 1 -1.1104 12.2349 -2.34921 23.4033
647 1 -1.1104 12.2218 3.21469 23.5075
648 1 -1.1104 12.3183 -2.38412 26.2767
649 1 -1.1104 12.2698 3.25017 26.303
650 1 -1.1104 12.4202 0.283954 23.312
651 2 2.2208 10.8888 -1.00495 24.7754
652 2 2.2208 10.8762 4.65634 24.8543
653 1 -1.1104 12.3411 0.432971 26.1976
654 1 -1.1104 9.38892 -2.35168 23.3272
655 1 -1.1104 9.3685 3.21829 23.4462
656 2 2.2208 8.06311 1.69534 24.8662
657 1 -1.1104 9.49891 -2.46613 26.1515
658 1 -1.1104 9.41022 3.07992 26.2212
659 2 2.2208 8.06368 -0.924502 22.0491
660 2 2.2208 8.03536 4.66562 22.0761
661 1 -1.1104 9.58661 0.422682 23.4623
662 1 -1.1104 9.58064 0.324361 26.1978
644 2 2.2208 -0.288798 4.69593 24.9459
736 1 -1.1104 6.65001 20.0092 23.4779
480 2 2.2208 13.6657 15.8408 16.5419
393 2 2.2208 5.27728 7.4127 27.6308
498 1 -1.1104 1.00529 11.6138 20.7175
514 1 -1.1104 3.86342 11.673 20.7007
507 1 -1.1104 3.81117 8.87034 20.6648
674 2 2.2208 5.32368 7.51529 22.1317
675 2 2.2208 5.21719 12.9699 22.0956
676 1 -1.1104 1.03065 8.84377 23.5385
678 1 -1.1104 1.01873 8.9327 26.3066
680 1 -1.1104 1.00809 6.11566 23.5194
681 1 -1.1104 1.07953 11.6203 23.4806
684 2 2.2208 5.31156 10.2693 24.9614
685 1 -1.1104 1.10806 6.08656 26.3023
686 1 -1.1104 1.08922 11.6635 26.2265
689 1 -1.1104 3.829 8.93737 23.4693
690 2 2.2208 2.50848 7.44415 24.9052
691 2 2.2208 2.57355 12.9513 24.9642
692 1 -1.1104 3.84052 8.76879 26.354
693 2 2.2208 2.50777 10.2594 22.137
694 1 -1.1104 3.88441 6.10911 23.4197
695 1 -1.1104 3.92529 11.611 23.5312
696 1 -1.1104 3.96168 5.95451 26.1257
697 1 -1.1104 3.95183 11.5834 26.2833
679 1 -1.1104 6.56482 8.70458 26.2241
683 1 -1.1104 6.68856 11.6467 23.468
672 2 2.2208 13.6578 1.80141 24.7935
529 1 -1.1104 12.2794 11.5972 20.7121
682 1 -1.1104 6.7187 6.02295 23.4637
687 1 -1.1104 6.65569 5.89563 26.2826
522 1 -1.1104 12.2499 8.83817 20.7092
539 1 -1.1104 9.52109 6.09446 20.656
534 1 -1.1104 9.46751 8.8445 20.6334
527 1 -1.1104 12.2763 6.01085 20.6527
500 1 -1.1104 6.70022 6.01798 20.6845
677 1 -1.1104 6.66998 8.89966 23.4737
688 1 -1.1104 6.66518 11.6721 26.3303
705 1 -1.1104 9.40183 11.5681 26.2856
706 1 -1.1104 9.4594 5.9502 26.2303
707 1 -1.1104 9.52315 11.6034 23.5117
708 1 -1.1104 9.55533 6.05129 23.4051
709 2 2.2208 8.08808 10.2416 22.1491
710 1 -1.1104 9.369 8.78573 26.2575
711 2 2.2208 8.07536 13.0429 24.8391
712 2 2.2208 8.09185 7.36531 24.8329
713 2 2.2208 10.8853 7.44969 22.0748
714 2 2.2208 10.919 13.055 22.0497
715 1 -1.1104 12.2953 8.78755 23.4893
716 1 -1.1104 12.2566 8.82826 26.278
717 1 -1.1104 12.2466 5.99557 23.4136
718 1 -1.1104 12.3722 11.6531 23.507
719 2 2.2208 10.884 10.2426 24.9056
720 1 -1.1104 12.2931 6.02436 26.2259
721 1 -1.1104 12.3039 11.6331 26.2402
722 1 -1.1104 9.5332 8.87996 23.4991
563 1 -1.1104 1.17561 17.123 20.6331
577 1 -1.1104 3.97999 17.1596 20.7102
553 1 -1.1104 1.09316 19.9417 20.6596
383 2 2.2208 2.55181 4.66111 27.6547
701 1 -1.1104 9.35679 17.25 23.4135
670 1 -1.1104 6.7292 20.0747 26.2572
745 1 -1.1104 3.90636 17.2377 26.2045
746 1 -1.1104 3.91068 14.4276 26.3202
750 2 2.2208 2.54541 21.4175 22.0229
749 1 -1.1104 3.85958 17.2339 23.4419
748 1 -1.1104 1.10998 17.2422 23.3449
727 2 2.2208 2.48442 15.7652 22.0377
729 1 -1.1104 3.93463 20.1056 23.4427
731 1 -1.1104 3.91944 14.4059 23.5154
733 1 -1.1104 1.08995 20.1045 26.382
734 1 -1.1104 1.19877 17.2045 26.2603
735 1 -1.1104 1.07036 14.4249 26.2583
737 2 2.2208 5.30795 21.4023 24.8365
738 2 2.2208 5.28719 15.8654 24.803
740 1 -1.1104 1.09875 19.9542 23.5266
741 1 -1.1104 1.1218 14.4506 23.5136
742 2 2.2208 5.28055 18.6868 22.0598
743 1 -1.1104 3.89084 20.0528 26.2052
744 2 2.2208 2.49146 18.6241 24.8792
730 1 -1.1104 6.65676 14.4447 26.112
448 2 2.2208 -0.287339 15.7865 19.181
633 1 -1.1104 12.3375 19.9849 23.444
635 1 -1.1104 12.2303 20.0082 26.2748
636 1 -1.1104 12.319 17.1875 23.4755
747 1 -1.1104 6.65813 17.2765 23.4868
634 1 -1.1104 12.3559 14.4118 26.2016
664 1 -1.1104 9.37278 14.4175 23.4143
608 1 -1.1104 12.2605 14.4265 23.4992
638 2 2.2208 10.8361 15.781 24.8001
592 1 -1.1104 12.4281 17.1989 20.7423
585 1 -1.1104 12.3123 14.371 20.7073
597 1 -1.1104 9.52904 14.4314 20.6237
667 2 2.2208 8.08431 18.6056 24.8257
665 1 -1.1104 9.4044 20.0802 23.4567
704 1 -1.1104 9.38442 17.1292 26.2158
699 2 2.2208 8.08975 15.8642 22.0773
401 2 2.2208 -0.243141 18.6658 27.6449
724 2 2.2208 -0.273606 21.373 24.856
643 2 2.2208 -0.279346 1.91538 22.0472
376 2 2.2208 8.12116 18.6525 13.698
543 2 2.2208 13.6026 10.2789 16.4259
478 2 2.2208 13.6708 21.3745 16.521
542 2 2.2208 13.628 7.37761 19.2565
372 2 2.2208 10.9301 21.4709 13.7148
389 2 2.2208 8.06248 4.54219 27.5863
403 2 2.2208 2.52741 15.8644 27.6101
381 2 2.2208 5.28496 1.75524 27.624
366 2 2.2208 13.6157 7.40664 13.6988
358 2 2.2208 -0.29374 10.3021 13.6923
362 2 2.2208 13.6571 13.0349 13.7317
379 2 2.2208 8.07762 21.438 27.6301
371 2 2.2208 5.33181 15.9192 13.7479
400 2 2.2208 10.9726 12.9812 27.5519
377 2 2.2208 8.15472 15.8279 27.5929
378 2 2.2208 10.8329 18.5978 27.6328
368 2 2.2208 2.45475 18.6207 13.7188
751 2 2.2208 5.39642 24.1839 5.41416
752 2 2.2208 5.20631 29.6871 5.26877
753 1 -1.1104 1.14304 25.6426 1.07003
754 1 -1.1104 1.09222 25.4986 3.82862
755 1 -1.1104 1.09887 22.8606 1.07444
756 1 -1.1104 1.05829 28.4213 1.00486
757 2 2.2208 5.26963 26.9849 2.47254
758 1 -1.1104 1.04816 22.6879 3.85047
759 1 -1.1104 1.1408 28.3408 3.82325
760 1 -1.1104 3.95929 25.4694 1.05081
761 2 2.2208 2.46527 24.1567 2.5312
762 2 2.2208 2.42434 29.777 2.45156
763 1 -1.1104 3.95174 25.4979 3.89998
764 2 2.2208 2.51028 26.9542 5.25753
765 1 -1.1104 3.9574 22.6834 1.18024
766 1 -1.1104 3.90119 28.3919 1.09994
767 1 -1.1104 3.87036 22.7602 3.99466
768 1 -1.1104 3.86596 28.2997 3.87774
898 1 -1.1104 3.86429 25.5831 6.61553
895 1 -1.1104 1.10966 28.3625 6.66376
892 1 -1.1104 1.02817 25.5102 6.66321
775 1 -1.1104 6.80487 28.3646 1.13649
900 1 -1.1104 3.87211 28.348 6.69813
776 1 -1.1104 6.6412 22.9191 3.85116
772 1 -1.1104 6.76989 25.6228 1.05762
774 1 -1.1104 6.75454 22.8841 1.03018
1063 1 -1.1104 12.2826 42.2855 9.48417
769 2 2.2208 -0.316562 29.7946 5.25934
777 1 -1.1104 6.74785 28.4613 3.8244
773 1 -1.1104 6.70025 25.6297 4.02719
778 2 2.2208 10.892 24.2997 5.33782
779 2 2.2208 10.968 29.791 5.28045
780 1 -1.1104 12.3604 25.6807 1.06515
781 1 -1.1104 12.3061 25.5849 3.83563
782 1 -1.1104 12.3334 22.9165 1.1027
783 1 -1.1104 12.4053 28.4107 1.14885
784 2 2.2208 10.9261 26.9846 2.51563
785 1 -1.1104 12.2737 22.7613 3.91151
786 1 -1.1104 12.3333 28.3876 3.97183
787 1 -1.1104 9.64229 25.6357 1.14377
788 2 2.2208 8.1227 24.2763 2.46853
789 2 2.2208 8.11179 29.7682 2.52769
790 1 -1.1104 9.44367 25.6102 3.90484
791 2 2.2208 8.16932 27.018 5.29673
792 1 -1.1104 9.50506 22.727 1.08489
793 1 -1.1104 9.58921 28.4576 1.00103
794 1 -1.1104 9.50204 22.8554 3.86253
795 1 -1.1104 9.60062 28.4047 3.83828
893 1 -1.1104 6.66287 25.5462 6.7542
925 1 -1.1104 12.31 25.5868 6.72959
927 1 -1.1104 12.3049 28.3881 6.72488
1048 1 -1.1104 9.53806 42.3722 9.441
1018 1 -1.1104 6.81247 39.6003 12.2856
1071 2 2.2208 13.6159 29.7624 8.12695
1675 1 -1.1104 6.50741 47.7801 6.71424
770 2 2.2208 -0.296084 24.2304 5.3004
1056 1 -1.1104 12.3223 39.5256 12.3505
799 2 2.2208 5.31849 35.425 5.24031
800 1 -1.1104 1.06071 31.1458 0.957713
801 1 -1.1104 1.07244 36.7344 1.11535
803 1 -1.1104 1.14964 31.1682 3.90498
804 1 -1.1104 0.989879 36.6624 3.97773
806 1 -1.1104 1.21735 33.9883 1.02757
807 2 2.2208 5.27814 32.5653 2.53633
808 2 2.2208 5.26888 38.1149 2.54613
809 1 -1.1104 1.13787 33.8851 3.79016
811 1 -1.1104 3.78639 31.0991 1.0585
812 1 -1.1104 3.81554 36.7127 1.04749
813 2 2.2208 2.48582 35.3194 2.42645
814 1 -1.1104 3.85413 31.2036 3.84919
815 1 -1.1104 3.80918 36.6498 3.82045
816 2 2.2208 2.53921 32.6267 5.27786
817 2 2.2208 2.48383 38.104 5.30709
818 1 -1.1104 3.85022 33.9524 1.07042
819 1 -1.1104 3.89714 33.9806 3.8483
956 1 -1.1104 3.99436 36.6795 6.74201
955 1 -1.1104 3.7905 31.2112 6.72875
1088 2 2.2208 10.8894 27.0987 13.5703
953 1 -1.1104 1.10757 33.9498 6.70344
1695 1 -1.1104 3.83586 47.8886 9.5214
954 1 -1.1104 6.69685 34.0838 6.71624
823 1 -1.1104 6.7429 31.2164 1.1113
825 1 -1.1104 6.60843 33.9366 1.01511
810 1 -1.1104 6.7023 33.9761 3.82451
805 1 -1.1104 6.66293 36.8456 3.90975
824 1 -1.1104 6.65097 31.2509 3.94163
802 1 -1.1104 6.63043 36.7243 1.17572
826 2 2.2208 10.8926 35.3773 5.27649
827 1 -1.1104 12.2539 31.2054 1.20146
828 1 -1.1104 12.2548 36.8524 1.21379
829 1 -1.1104 12.3562 31.121 3.91939
830 1 -1.1104 12.3201 36.8792 3.87036
831 1 -1.1104 12.237 34.0831 1.13132
832 2 2.2208 10.8136 32.5105 2.56265
833 2 2.2208 10.8175 38.2115 2.59023
834 1 -1.1104 12.1652 33.8842 3.94795
835 1 -1.1104 9.43566 31.2717 1.18952
836 1 -1.1104 9.37913 36.774 1.14879
837 2 2.2208 8.03965 35.3884 2.55352
838 1 -1.1104 9.45514 31.1211 3.92851
839 1 -1.1104 9.4888 36.7912 3.8336
840 2 2.2208 8.03039 32.5738 5.32273
841 2 2.2208 8.06855 38.15 5.29648
842 1 -1.1104 9.44616 33.932 1.12134
843 1 -1.1104 9.51035 34.0122 3.97887
987 1 -1.1104 9.5689 36.72 6.65455