LAMMPS (29 Oct 2020)
OMP_NUM_THREADS environment is not set. Defaulting to 1 thread. (../comm.cpp:94)
  using 1 OpenMP thread(s) per MPI task
OMP_NUM_THREADS environment is not set. Defaulting to 1 thread. (../comm.cpp:94)
  using 1 OpenMP thread(s) per MPI task
Reading data file ...
  orthogonal box = (-0.43508618 -5.3197135 -0.44146973) to (27.775086 333.39971 27.781470)
  2 by 13 by 2 MPI processor grid
  reading atoms ...
  17700 atoms
  reading velocities ...
  17700 velocities
Finding 1-2 1-3 1-4 neighbors ...
  special bond factors lj:    0.0      0.0      0.0     
  special bond factors coul:  0.0      0.0      0.0     
     0 = max # of 1-2 neighbors
     0 = max # of 1-3 neighbors
     0 = max # of 1-4 neighbors
     1 = max # of special neighbors
  special bonds CPU = 0.004 seconds
  read_data CPU = 0.058 seconds
WARNING: 10 of 1000 force values in table Kr-Kr are inconsistent with -dE/dr.
  Should only be flagged at inflection points (../pair_table.cpp:461)
WARNING: 1 of 1000 force values in table Kr-O are inconsistent with -dE/dr.
  Should only be flagged at inflection points (../pair_table.cpp:461)
WARNING: 1 of 1000 force values in table Kr-Th are inconsistent with -dE/dr.
  Should only be flagged at inflection points (../pair_table.cpp:461)
Setting atom values ...
  11760 settings made for charge
Setting atom values ...
  5880 settings made for charge
Setting atom values ...
  60 settings made for charge
PPPM initialization ...
  using 12-bit tables for long-range coulomb (../kspace.cpp:328)
  G vector (1/distance) = 0.29849126
  grid = 40 240 40
  stencil order = 5
  estimated absolute RMS force accuracy = 0.00015855336
  estimated relative force accuracy = 1.1010921e-05
  using single precision MKL FFT
  3d grid and FFT values/proc = 18225 7600
Neighbor list info ...
  update every 1 steps, delay 0 steps, check yes
  max neighbors/atom: 2000, page size: 100000
  master list distance cutoff = 13
  ghost atom cutoff = 13
  binsize = 6.5, bins = 5 53 5
  3 neighbor lists, perpetual/occasional/extra = 3 0 0
  (1) pair coul/long, perpetual
      attributes: half, newton on
      pair build: half/bin/newton
      stencil: half/bin/3d/newton
      bin: standard
  (2) pair eam/alloy, perpetual, skip from (1)
      attributes: half, newton on
      pair build: skip
      stencil: none
      bin: none
  (3) pair table, perpetual, skip from (1)
      attributes: half, newton on
      pair build: skip
      stencil: none
      bin: none
Setting up Verlet run ...
  Unit style    : metal
  Current step  : 0
  Time step     : 0.001
Per MPI rank memory allocation (min/avg/max) = 9.245 | 9.889 | 10.03 Mbytes
Step Temp E_pair E_mol TotEng Press 
       0         1200   -229057.64            0   -226312.31    371.64595 
   50000    1196.8451   -229056.75            0   -226318.64     117.3014 
Loop time of 353.063 on 52 procs for 50000 steps with 17700 atoms

Performance: 12.236 ns/day, 1.961 hours/ns, 141.618 timesteps/s
99.8% CPU use with 52 MPI tasks x 1 OpenMP threads

MPI task timing breakdown:
Section |  min time  |  avg time  |  max time  |%varavg| %total
---------------------------------------------------------------
Pair    | 249.77     | 264.54     | 271.2      |  29.4 | 74.93
Bond    | 0.0038413  | 0.0064141  | 0.0088016  |   1.4 |  0.00
Kspace  | 68.132     | 74.843     | 89.284     |  54.2 | 21.20
Neigh   | 2.9163     | 3.5113     | 3.8161     |  11.6 |  0.99
Comm    | 7.1359     | 7.6538     | 8.5425     |  14.2 |  2.17
Output  | 5.2636e-05 | 5.7394e-05 | 0.00025766 |   0.0 |  0.00
Modify  | 0.98004    | 1.8193     | 2.6163     |  45.3 |  0.52
Other   |            | 0.6877     |            |       |  0.19

Nlocal:        340.385 ave         365 max         309 min
Histogram: 6 1 1 1 5 13 13 3 4 5
Nghost:        5489.96 ave        5676 max        5204 min
Histogram: 4 1 3 8 0 2 12 10 1 11
Neighs:       105004.0 ave      114904 max       82429 min
Histogram: 2 2 0 3 1 1 10 19 5 9

Total # of neighbors = 5460204
Ave neighs/atom = 308.48610
Ave special neighs/atom = 0.0000000
Neighbor list builds = 1182
Dangerous builds = 0
11760 atoms in group oxygen
PPPM initialization ...
  using 12-bit tables for long-range coulomb (../kspace.cpp:328)
  G vector (1/distance) = 0.29849126
  grid = 40 240 40
  stencil order = 5
  estimated absolute RMS force accuracy = 0.00015855336
  estimated relative force accuracy = 1.1010921e-05
  using single precision MKL FFT
  3d grid and FFT values/proc = 18225 7600
Neighbor list info ...
  update every 1 steps, delay 0 steps, check yes
  max neighbors/atom: 2000, page size: 100000
  master list distance cutoff = 13
  ghost atom cutoff = 13
  binsize = 6.5, bins = 5 53 5
  3 neighbor lists, perpetual/occasional/extra = 3 0 0
  (1) pair coul/long, perpetual
      attributes: half, newton on
      pair build: half/bin/newton
      stencil: half/bin/3d/newton
      bin: standard
  (2) pair eam/alloy, perpetual, skip from (1)
      attributes: half, newton on
      pair build: skip
      stencil: none
      bin: none
  (3) pair table, perpetual, skip from (1)
      attributes: half, newton on
      pair build: skip
      stencil: none
      bin: none
Setting up Verlet run ...
  Unit style    : metal
  Current step  : 0
  Time step     : 0.001
Per MPI rank memory allocation (min/avg/max) = 9.495 | 10.14 | 10.28 Mbytes
Step f_2 Temp v_Tdiff v_deltaT 
       0            0    1196.8451            0            0 
  100000    1327.9361    1199.7566  0.048074802    558.14399 
  200000    2593.4421    1204.7085  0.057637838    669.16995 
  300000    3849.9831    1199.3431  0.057309032    665.35254 
  400000    5107.6137      1193.16  0.057568582    668.36589 
  500000    6354.1334    1202.2698  0.059436527    690.05256 
  600000    7617.9614    1201.2097  0.058966648     684.5973 
  700000    8877.5643    1206.2565  0.058847658    683.21585 
  800000     10137.56    1200.5235  0.059674054    692.81022 
  900000    11390.265    1205.0999  0.057942273    672.70441 
 1000000    12650.227    1204.7398  0.058560706    679.88435 
Loop time of 7021.16 on 52 procs for 1000000 steps with 17700 atoms

Performance: 12.306 ns/day, 1.950 hours/ns, 142.427 timesteps/s
99.8% CPU use with 52 MPI tasks x 1 OpenMP threads

MPI task timing breakdown:
Section |  min time  |  avg time  |  max time  |%varavg| %total
---------------------------------------------------------------
Pair    | 4881.7     | 5229.6     | 5367       | 145.5 | 74.48
Bond    | 0.092967   | 0.12736    | 0.16769    |   5.0 |  0.00
Kspace  | 1379.4     | 1514.2     | 1856.3     | 263.1 | 21.57
Neigh   | 67.245     | 82.541     | 88.102     |  62.3 |  1.18
Comm    | 139.95     | 154.14     | 182.45     |  79.3 |  2.20
Output  | 0.0010494  | 0.0011074  | 0.0023025  |   0.5 |  0.00
Modify  | 5.6508     | 6.0763     | 6.7094     |  11.5 |  0.09
Other   |            | 34.43      |            |       |  0.49

Nlocal:        340.385 ave         364 max         292 min
Histogram: 2 0 5 0 1 4 14 11 9 6
Nghost:        5487.65 ave        5669 max        5171 min
Histogram: 4 2 2 5 3 0 5 19 0 12
Neighs:       105029.0 ave      113323 max       77979 min
Histogram: 3 1 0 0 3 1 2 9 18 15

Total # of neighbors = 5461495
Ave neighs/atom = 308.55904
Ave special neighs/atom = 0.0000000
Neighbor list builds = 27680
Dangerous builds = 0
Total wall time: 2:02:54
