LAMMPS data file via write_data, version 29 Oct 2020, timestep = 100127

17700 atoms
3 atom types

-0.4350861769288417 27.775086176928347 xlo xhi
-5.31971348163966 333.39971348162635 ylo yhi
-0.44146972546712404 27.78146972546687 zlo zhi

Masses

1 15.9994
2 232.0381
3 83.798

Atoms # full

1 0 2 2.2208 5.387087653265316 0.18582135238374706 5.061703325524934 0 0 0
2 0 1 -1.1104 1.0948518537374272 -3.78783491492775 0.7481579609311013 0 0 0
6 0 1 -1.1104 1.3185614578845697 -3.824948860743215 3.7028482154247655 0 0 0
10 0 1 -1.1104 1.147361979575273 -1.114303609448039 0.8050187459651313 0 0 0
12 0 2 2.2208 5.4511811005942805 -2.4234199031429653 2.1441125790159026 0 0 0
14 0 1 -1.1104 0.927625337555287 -0.996186188085586 3.7826507365047766 0 0 0
16 0 1 -1.1104 4.264333190206327 -4.049744051189274 0.8169401114510603 0 0 0
18 0 2 2.2208 2.6478356481032503 0.2582034852839916 2.1525047089952856 0 0 0
19 0 1 -1.1104 4.163160488465429 -4.198943113479911 3.4900626178628387 0 0 0
21 0 2 2.2208 2.472719210488885 -2.392422329588372 5.0732412635193045 0 0 0
23 0 1 -1.1104 4.030700625219544 -1.1252536591620554 0.5537368269968113 0 0 0
24 0 1 -1.1104 4.098619255748684 -1.163952782257826 3.6222945398021507 0 0 0
174 0 1 -1.1104 4.071189413641778 -0.9857543635834658 6.5290158176237005 0 0 0
172 0 1 -1.1104 4.002415408916975 -3.71085898424119 6.544826927870646 0 0 0
166 0 1 -1.1104 1.3643116511858786 -4.032515541627216 6.46962979366105 0 0 0
170 0 1 -1.1104 1.3468710171395475 -1.1265589439645483 6.518740816540084 0 0 0
15 0 1 -1.1104 6.747991712309211 -1.0809276346101335 3.669008482719076 0 0 0
168 0 1 -1.1104 6.687183423372453 -3.7229906948254685 6.2918566428160325 0 0 0
4 0 1 -1.1104 6.928194270857092 -4.113715088435394 0.587658461008642 0 0 0
319 0 2 2.2208 8.311064845896713 5.943715090519903 13.565275472614328 0 0 0
25 0 2 2.2208 -0.18511896881788875 -2.566599028368665 2.308872883349661 0 0 0
8724 0 2 2.2208 -0.2228706253898473 0.45949964226252393 5.129031115519679 0 0 0
171 0 1 -1.1104 6.979815348689815 -1.0397936620205723 6.409843450479027 0 0 0
11 0 1 -1.1104 6.688715542160842 -1.0625863013179782 0.812857751694542 0 0 0
8 0 1 -1.1104 6.813389917128825 -3.8094813448944898 3.422658274772072 0 0 0
31 0 2 2.2208 11.090077124538869 0.46780059461738654 5.308361036886905 0 0 0
32 0 1 -1.1104 12.231388849010678 -3.740913037216668 0.8137245825866887 0 0 0
34 0 1 -1.1104 12.53850461132935 -3.986212435937532 3.6898595752936116 0 0 0
36 0 1 -1.1104 12.395446850702509 -1.0628071000843728 1.0928493922049005 0 0 0
37 0 2 2.2208 10.954143893028123 -2.6110713224415987 2.313680320486572 0 0 0
39 0 1 -1.1104 12.530737962006588 -1.1234736155952836 3.828121148297131 0 0 0
40 0 1 -1.1104 9.659954900844053 -3.848077437124728 0.7717607471185463 0 0 0
42 0 2 2.2208 8.278682886370422 0.21090615407183141 2.301939207113981 0 0 0
43 0 1 -1.1104 9.699745170819698 -3.803268276359659 3.6333512341282943 0 0 0
45 0 2 2.2208 8.264693280009643 -2.5344874659894887 4.912862599887864 0 0 0
47 0 1 -1.1104 9.48886627880768 -1.1798399721338553 0.7306289221013196 0 0 0
48 0 1 -1.1104 9.565722527567877 -1.0747526327854218 3.5622320361540156 0 0 0
8018 0 2 2.2208 11.08274332234433 -5.280812454106489 5.0778322153581765 0 0 0
210 0 1 -1.1104 9.670697374289029 -1.0946951973812644 6.354669672561682 0 0 0
8017 0 2 2.2208 8.19202034602461 -5.2926314849231035 2.2062415960312443 0 0 0
306 0 2 2.2208 5.437532574398301 17.1628250022734 -0.11325880670192932 0 0 0
8428 0 2 2.2208 -0.24960876272214716 20.211619302355057 7.971885242520998 0 0 0
3 0 1 -1.1104 1.3800109298913277 1.7788154724355874 0.8733028526954243 0 0 0
7 0 1 -1.1104 1.14723026332958 1.6487584193728595 3.6134393225371415 0 0 0
13 0 2 2.2208 5.347966376978831 3.280038460742919 2.3221133941452954 0 0 0
17 0 1 -1.1104 3.9676717984113616 1.6744017562871842 0.9114907905844725 0 0 0
20 0 1 -1.1104 3.894476948911374 1.6390538145302354 3.6552668300782454 0 0 0
22 0 2 2.2208 2.6665566554397735 3.0257776188578265 5.050568040146411 0 0 0
54 0 2 2.2208 5.435760304825701 6.027110135190292 5.310712309568209 0 0 0
56 0 1 -1.1104 1.3985477311503454 7.541113393626271 1.160010825575199 0 0 0
60 0 1 -1.1104 1.193101717189048 4.487734787684134 1.1025242753594602 0 0 0
67 0 1 -1.1104 1.2480057013322834 4.63433006394691 3.7643216339178216 0 0 0
72 0 2 2.2208 2.5769241969477417 6.118487895125924 2.334897422886777 0 0 0
76 0 1 -1.1104 3.9574921450671954 4.631795831765648 0.8179329955158692 0 0 0
79 0 1 -1.1104 4.174963778304741 4.482400482265279 3.8171632081869658 0 0 0
71 0 1 -1.1104 4.117261561250013 7.423733688933063 0.8927156514297958 0 0 0
74 0 1 -1.1104 4.172300418247947 7.487606295132365 3.698003837386093 0 0 0
58 0 1 -1.1104 1.2448150929506654 7.362453285026501 3.806992002281434 0 0 0
234 0 1 -1.1104 1.250605901981222 7.384317661134581 6.396158442606373 0 0 0
239 0 1 -1.1104 3.9626091411429267 4.698727436069397 6.405619403028063 0 0 0
167 0 1 -1.1104 1.1820205293938828 1.830600201227621 6.454815225257156 0 0 0
8727 0 2 2.2208 -0.13759244692890016 2.994824693877403 2.4135841139044545 0 0 0
238 0 1 -1.1104 4.078961464657383 7.605301426352826 6.55342742281011 0 0 0
8732 0 2 2.2208 -0.12794767016811787 6.013356769963629 5.032770650898735 0 0 0
63 0 1 -1.1104 6.73693491928898 4.58925054835999 0.9948053330881238 0 0 0
59 0 1 -1.1104 7.014677675235489 7.305022188625703 4.013562389827614 0 0 0
69 0 1 -1.1104 6.703373746818144 4.397351666332787 3.981865426850458 0 0 0
57 0 1 -1.1104 6.865010249630188 7.300094019601079 0.6739458999777583 0 0 0
169 0 1 -1.1104 6.862578623452999 1.7505632044956678 6.535028423739669 0 0 0
237 0 1 -1.1104 6.797093164882155 4.602152263849372 6.563972830466238 0 0 0
5 0 1 -1.1104 6.9377938599808004 1.8320869244150344 1.0275631166611574 0 0 0
9 0 1 -1.1104 6.818471843841021 1.6293084397268278 3.8846575568495645 0 0 0
33 0 1 -1.1104 12.4446528613723 1.9786419345960993 1.0600132334988894 0 0 0
35 0 1 -1.1104 12.076120644577228 1.6481200888150997 3.771384083764592 0 0 0
38 0 2 2.2208 10.97786574529483 3.1631770504831316 2.369668257789363 0 0 0
41 0 1 -1.1104 9.60073480662817 1.7562368747384824 0.941676997704033 0 0 0
44 0 1 -1.1104 9.623645567741267 1.7711129620851902 3.884786535413239 0 0 0
46 0 2 2.2208 8.183766862707323 3.0645429203581944 5.099147558226443 0 0 0
84 0 2 2.2208 10.940108299538174 6.033829724854238 5.043189428701652 0 0 0
88 0 1 -1.1104 12.415579516346176 4.673844966317374 1.0839049651399946 0 0 0
92 0 1 -1.1104 12.549975647019068 4.620355013243978 3.943183884388079 0 0 0
95 0 2 2.2208 8.189844346397035 5.871783530145534 2.3613009787112564 0 0 0
99 0 1 -1.1104 9.488071280519849 4.549877596064776 1.0426272220260424 0 0 0
102 0 1 -1.1104 9.51993319964294 4.514884202569972 3.820843750938314 0 0 0
87 0 1 -1.1104 12.488188804163295 7.202901909623218 3.554497519527354 0 0 0
97 0 1 -1.1104 9.641086530750515 7.263294619132419 3.518401412074646 0 0 0
86 0 1 -1.1104 12.558077909846498 7.338898838549417 0.9128447053597354 0 0 0
94 0 1 -1.1104 9.74478946387846 7.433532503076332 0.8338668512834836 0 0 0
265 0 1 -1.1104 12.57332330011813 7.399006650114107 6.465402457229338 0 0 0
267 0 1 -1.1104 9.743536172118189 7.295351162253415 6.612028515565653 0 0 0
235 0 1 -1.1104 6.8298160449655 7.2925548410285055 6.6448903742931975 0 0 0
266 0 1 -1.1104 12.388555042401316 4.5830607133802985 6.519520009441903 0 0 0
8016 0 2 2.2208 5.277810057784594 -5.241180349226812 5.154086379141853 0 0 0
55 0 2 2.2208 5.51293830110182 11.582604921263249 5.071431593702973 0 0 0
61 0 1 -1.1104 1.3748471634476027 10.27472196753059 1.0744906905979648 0 0 0
66 0 2 2.2208 5.503545298347833 8.681493548589426 2.4001046217284667 0 0 0
68 0 1 -1.1104 1.3257098942348746 10.343513905930829 3.9408689859329846 0 0 0
73 0 2 2.2208 2.6784745788850146 11.529626423369189 2.439508079625085 0 0 0
75 0 2 2.2208 2.6388088851829217 8.987586109766116 5.189224520780179 0 0 0
77 0 1 -1.1104 4.1696028350283125 10.090454526983313 0.8733546397879245 0 0 0
80 0 1 -1.1104 3.9794161514012507 10.150725340091238 3.8395415244323345 0 0 0
107 0 1 -1.1104 1.296822381230701 13.112045528445769 1.0198863218443908 0 0 0
113 0 1 -1.1104 1.1131888102946286 13.274212362783876 3.705529741983292 0 0 0
123 0 1 -1.1104 3.901825637602663 12.815190288925326 1.0293771710935498 0 0 0
128 0 1 -1.1104 4.013329177699695 12.919636307808418 3.79668198224663 0 0 0
163 0 1 -1.1104 9.732805636044938 16.118992230884785 6.689899623778807 0 0 0
8733 0 2 2.2208 -0.16375956475164888 8.895003309453887 2.433063631617007 0 0 0
8734 0 2 2.2208 -0.09283179834152258 11.778835213878114 5.4056657434820705 0 0 0
64 0 1 -1.1104 6.879214545623174 10.221150721568648 0.9358122524192434 0 0 0
115 0 1 -1.1104 6.969687798563409 13.127800600859377 3.7272501308487085 0 0 0
110 0 1 -1.1104 6.52150685275179 13.142216934992401 0.7475251198874691 0 0 0
70 0 1 -1.1104 6.779800144796804 10.35099869963463 3.744488548811466 0 0 0
85 0 2 2.2208 11.047640870122303 11.692370663769161 5.2071278238240755 0 0 0
89 0 1 -1.1104 12.563427419035117 10.212770153592913 0.8715438959144199 0 0 0
91 0 2 2.2208 11.09774292531697 8.730174274201536 2.4009232596015693 0 0 0
93 0 1 -1.1104 12.7110723363496 10.022631380854175 3.9161024428110354 0 0 0
96 0 2 2.2208 8.192193485692357 11.618881330648431 2.341058627465471 0 0 0
98 0 2 2.2208 8.21760266208643 8.80830460377394 5.053264427104934 0 0 0
100 0 1 -1.1104 9.57443736673292 10.18800131521294 1.001315353909349 0 0 0
103 0 1 -1.1104 9.69484216043365 10.279770501387025 3.7533435564794875 0 0 0
142 0 1 -1.1104 12.40121474101928 12.738767025423499 0.8755694071418978 0 0 0
146 0 1 -1.1104 12.460204903034626 12.796338060078071 3.5334989305360907 0 0 0
153 0 1 -1.1104 9.409679659961311 12.85766120116999 0.7715699305574515 0 0 0
158 0 1 -1.1104 9.925596261897264 13.330413378067535 3.879349293517692 0 0 0
154 0 1 -1.1104 9.55008981611176 13.174291991202029 6.59228230886366 0 0 0
143 0 1 -1.1104 12.733336742690915 13.079295097246868 6.5426169536311045 0 0 0
8015 0 2 2.2208 2.7201686757956023 -5.26959698588913 2.258343225845343 0 0 0
305 0 2 2.2208 2.7641635444918276 14.388060313836446 -0.3400296256431752 0 0 0
8777 0 2 2.2208 -0.17254391873374786 11.71875108617358 -0.33393387470732866 0 0 0
130 0 2 2.2208 2.567325412893713 14.487791666428015 5.1407613256114315 0 0 0
119 0 2 2.2208 5.377947890866187 14.410750496880866 2.467925654753747 0 0 0
106 0 2 2.2208 5.344425077889968 17.191393948353443 5.190644839783836 0 0 0
109 0 1 -1.1104 1.0963430475336822 18.60827931884508 1.1694317870235618 0 0 0
114 0 1 -1.1104 1.138234124953762 18.770252161763572 3.9318988366587324 0 0 0
116 0 1 -1.1104 1.3004560703862797 15.661733747474798 0.8371282848823468 0 0 0
120 0 2 2.2208 5.17294120992141 20.243285480979566 2.520574376092154 0 0 0
121 0 1 -1.1104 1.2431942657455035 15.926579098112182 3.696429223117595 0 0 0
125 0 1 -1.1104 3.976329703771703 18.670860516087355 1.1473492310261095 0 0 0
127 0 2 2.2208 2.6068285764068992 17.19812569336865 2.3599421288314333 0 0 0
129 0 1 -1.1104 3.8791486319724022 18.729501481893685 3.6605714503653304 0 0 0
131 0 2 2.2208 2.5393414241137857 20.225113275169196 5.221981857525681 0 0 0
132 0 1 -1.1104 4.049643609016833 15.552587824401037 0.984972730917178 0 0 0
134 0 1 -1.1104 3.9531956333078684 15.78918271976531 3.8018091403444156 0 0 0
126 0 1 -1.1104 3.9027925454220145 18.71737936189862 6.557140916843946 0 0 0
139 0 1 -1.1104 6.6511880752670915 18.79465670224271 4.043275174360815 0 0 0
326 0 2 2.2208 10.840767654755759 14.583594770305847 13.59534168670744 0 0 0
8731 0 2 2.2208 -0.3125481749525036 14.389801259665207 2.4736862731332927 0 0 0
307 0 2 2.2208 2.4950884021558575 20.113789508148642 -0.3582266847823193 0 0 0
136 0 2 2.2208 -0.31670836180142137 19.967057286165712 2.504645520450601 0 0 0
140 0 1 -1.1104 7.086447549919787 15.875365091651135 1.0731566057486677 0 0 0
118 0 1 -1.1104 6.897059974170296 15.836761737630905 6.798347260221097 0 0 0
138 0 1 -1.1104 6.61957546081252 18.883673089163178 1.3617327162600763 0 0 0
122 0 1 -1.1104 6.821478254643331 15.960265424433551 3.961693387663978 0 0 0
150 0 2 2.2208 10.996011959641443 14.299772344734988 2.207952219316327 0 0 0
160 0 2 2.2208 8.321619139002086 14.53209481107028 5.172338897899392 0 0 0
141 0 2 2.2208 10.771062377131997 17.353775418308217 5.026075246393917 0 0 0
144 0 1 -1.1104 12.287737719846549 18.558565352694973 1.0751267708678658 0 0 0
147 0 1 -1.1104 12.169177258161003 18.72332488293435 3.761273420915672 0 0 0
148 0 1 -1.1104 12.434075869932602 15.76639244331463 0.9871631207067975 0 0 0
151 0 2 2.2208 10.969291479195578 20.190497551815042 2.4757501319458903 0 0 0
152 0 1 -1.1104 12.485928194711896 15.499589486972695 3.656796983615976 0 0 0
155 0 1 -1.1104 9.3808860401781 18.693839867592917 1.2401233026480563 0 0 0
157 0 2 2.2208 8.04649003888169 17.409341730834157 2.491099121483695 0 0 0
159 0 1 -1.1104 9.288091559777566 18.8155308818584 3.8991009460942654 0 0 0
161 0 2 2.2208 8.174767882640982 20.24356261026793 5.168473055367076 0 0 0
162 0 1 -1.1104 9.853957761679697 15.519613973670218 0.8738167382191175 0 0 0
164 0 1 -1.1104 9.494753678191234 15.954027199787093 3.716975633248069 0 0 0
308 0 2 2.2208 7.972632295185401 20.00772683918964 -0.3710014259881376 0 0 0
145 0 1 -1.1104 12.30336325227483 18.544955083315966 6.571287527473762 0 0 0
304 0 2 2.2208 10.977690038450653 17.407235968898153 -0.3408142209194768 0 0 0
50 0 1 -1.1104 12.36455922720092 18.679681866523445 9.414827014999 0 0 0
8019 0 2 2.2208 2.608148168330542 -5.271676150544757 8.00941012050682 0 0 0
8588 0 2 2.2208 -0.2735051399882408 -2.32366237926241 7.866951892909165 0 0 0
310 0 2 2.2208 2.4999346091577914 0.39830452686096524 13.621732882271004 0 0 0
175 0 2 2.2208 5.470379218180346 0.30507738643308024 10.559573772932684 0 0 0
176 0 1 -1.1104 1.1432403076908892 -3.755167225232475 12.166596452992733 0 0 0
180 0 1 -1.1104 1.2753140272964212 -3.753219622493114 9.209428120867315 0 0 0
184 0 1 -1.1104 1.2062972822523421 -0.9946146749889191 12.071591580878453 0 0 0
186 0 2 2.2208 5.360249366582996 -2.4311094049934687 7.8299698866885965 0 0 0
188 0 1 -1.1104 1.0280983691011076 -0.8420448699192327 9.28574479793698 0 0 0
190 0 1 -1.1104 3.982555676802351 -3.754496028947041 12.000916276482815 0 0 0
192 0 2 2.2208 2.6501164330983418 0.5451356236249941 7.892452034693993 0 0 0
193 0 1 -1.1104 3.9818685333174564 -3.7228009558453974 9.286323591438158 0 0 0
195 0 2 2.2208 2.66042759068716 -2.167507767615832 10.654861156343074 0 0 0
197 0 1 -1.1104 4.055674292023305 -0.9270432416182597 12.137572586259056 0 0 0
198 0 1 -1.1104 3.8300712589749515 -0.9233433783346109 9.221011982491637 0 0 0
178 0 1 -1.1104 6.674784843339769 -3.979710473341894 12.038522566024762 0 0 0
185 0 1 -1.1104 6.829101519099433 -1.0331438270468274 11.916832530501695 0 0 0
8021 0 2 2.2208 -0.18277840994863603 -5.1753548614258476 10.591664398945532 0 0 0
309 0 2 2.2208 5.45421580510362 -2.4194065186874423 13.475858584133112 0 0 0
8036 0 2 2.2208 2.5549030945744793 -5.251107904165036 13.503168701290488 0 0 0
201 0 2 2.2208 -0.28579431862604865 0.5149843873867029 10.692688352806025 0 0 0
8020 0 2 2.2208 5.313668611748848 -5.2385318649734325 10.698560280656535 0 0 0
8742 0 2 2.2208 -0.3390871470033371 -2.4240060746578114 13.530015540624175 0 0 0
207 0 1 -1.1104 12.404296677592264 -0.955865853174904 6.758982650046426 0 0 0
205 0 1 -1.1104 12.45072011353226 -3.8823603826070254 6.5418174036739 0 0 0
208 0 1 -1.1104 9.440380152210013 -3.9106047804989563 6.384240729450961 0 0 0
30 0 1 -1.1104 12.366100092824931 18.714899797687913 12.360893761321323 0 0 0
8023 0 2 2.2208 11.148787402219034 -5.256770388302177 10.686460295878524 0 0 0
182 0 1 -1.1104 6.839792628019462 -3.8817377123528733 9.17581925334514 0 0 0
8728 0 2 2.2208 -0.2091625276712765 17.246458842821315 5.197956521080415 0 0 0
189 0 1 -1.1104 6.7930870372129935 -1.0331711164533781 9.328256474814445 0 0 0
211 0 2 2.2208 11.079076523139518 0.32595745127301134 10.848543491047158 0 0 0
212 0 1 -1.1104 12.158866914440011 -4.053071515372257 12.245019057352202 0 0 0
214 0 1 -1.1104 12.570710687503746 -3.904722695015982 9.21041597531082 0 0 0
216 0 1 -1.1104 12.504288320467303 -1.176992979416329 12.281871188625777 0 0 0
217 0 2 2.2208 11.014026344590699 -2.719778852520017 7.826060039136891 0 0 0
219 0 1 -1.1104 12.483161570002398 -1.058969372585714 9.34865119414079 0 0 0
220 0 1 -1.1104 9.497809621299432 -3.915786254049973 12.13257957905577 0 0 0
222 0 2 2.2208 8.19474511098046 0.3798489525500413 7.986670988463641 0 0 0
223 0 1 -1.1104 9.667555966444674 -4.045763398476777 9.225312343129902 0 0 0
225 0 2 2.2208 8.171316765145933 -2.494551486660448 10.631276273729103 0 0 0
227 0 1 -1.1104 9.689048045555527 -0.9344649249681836 11.867452843593842 0 0 0
228 0 1 -1.1104 9.780263300456387 -1.1992988129945508 9.164455780145849 0 0 0
313 0 2 2.2208 8.244193430836864 0.48405648357731224 13.59730450901467 0 0 0
8622 0 2 2.2208 -0.1681411772390704 3.2371877782452123 8.001100191381521 0 0 0
28 0 2 2.2208 -0.10187485476269752 6.124854951250053 10.715179413011855 0 0 0
173 0 1 -1.1104 3.9100147955093245 1.7892766129246753 6.464908844992577 0 0 0
236 0 1 -1.1104 1.344869807854703 4.36710692531517 6.497288180949515 0 0 0
177 0 1 -1.1104 0.9155710446007156 1.8096534999150264 12.313348123348012 0 0 0
181 0 1 -1.1104 1.09931535897042 1.8563795163245806 9.407668021039417 0 0 0
187 0 2 2.2208 5.4139926235447104 3.2302542025460315 8.033795893212496 0 0 0
191 0 1 -1.1104 3.799447419975189 2.0919200995478584 12.265967544686216 0 0 0
194 0 1 -1.1104 3.962534602385727 1.9359403005131535 9.470769419216257 0 0 0
196 0 2 2.2208 2.4871859459607544 3.2899135463598412 10.744539981651075 0 0 0
240 0 2 2.2208 5.485515070857919 6.1630889297925435 10.937818403394832 0 0 0
242 0 1 -1.1104 1.3855905619582578 7.358793468212467 12.263903174238326 0 0 0
246 0 1 -1.1104 1.207796446799072 4.515427832400199 12.188592011984294 0 0 0
251 0 1 -1.1104 1.1635465777180427 4.781517054107681 9.30289437347062 0 0 0
256 0 2 2.2208 2.438083226325633 6.0765940616494385 7.867957634863025 0 0 0
260 0 1 -1.1104 4.11569440512369 4.908955310839161 12.239925560206375 0 0 0
262 0 1 -1.1104 3.9090190958725928 4.68456672891158 9.225159208307055 0 0 0
255 0 1 -1.1104 4.182721067002955 7.759597211362223 12.333014322520645 0 0 0
244 0 1 -1.1104 1.402771116331422 7.536996893185208 9.33818831329834 0 0 0
258 0 1 -1.1104 4.112723611613254 7.411908608091735 9.622593316473761 0 0 0
331 0 2 2.2208 -0.30537456683184416 3.3147933100925657 13.598083950784694 0 0 0
332 0 2 2.2208 -0.30766263218322004 0.23191224232113722 -0.3265900934203776 0 0 0
206 0 1 -1.1104 12.609781137469259 2.0084926506165828 6.622972360998585 0 0 0
165 0 1 -1.1104 9.60166031814431 18.698460701495858 9.48352568880622 0 0 0
253 0 1 -1.1104 6.831893849075051 4.628661102189064 9.222231622375437 0 0 0
183 0 1 -1.1104 6.700455334680161 1.844283849172788 9.449153292689005 0 0 0
179 0 1 -1.1104 6.773517206324976 1.9943982354544811 12.090513691363093 0 0 0
248 0 1 -1.1104 6.77419234241388 4.718893929754152 12.037286246549378 0 0 0
269 0 1 -1.1104 9.552991900610992 4.515228107701375 6.598042338391271 0 0 0
209 0 1 -1.1104 9.62297587906154 1.8416732107629015 6.617101117312802 0 0 0
245 0 1 -1.1104 6.868495373867884 7.457855235386093 9.42024883289886 0 0 0
213 0 1 -1.1104 12.417506538216163 1.6280413111286811 12.02255136841466 0 0 0
215 0 1 -1.1104 12.431423269325789 1.7986709996685553 9.332452302213596 0 0 0
218 0 2 2.2208 11.060313442334843 3.2566999993603845 7.933527419849126 0 0 0
221 0 1 -1.1104 9.771153634706279 1.6857203076091318 12.269715286648339 0 0 0
224 0 1 -1.1104 9.524213912320956 1.785674408972181 9.502974843621312 0 0 0
226 0 2 2.2208 8.041923103092763 3.1849079786928223 10.745595560451351 0 0 0
268 0 1 -1.1104 9.541810765710194 4.529453569620669 9.500141659827936 0 0 0
271 0 1 -1.1104 9.55426274892886 4.356814421022431 12.249498996752862 0 0 0
275 0 2 2.2208 8.41670471323746 5.992973449946951 7.9243241513686495 0 0 0
276 0 2 2.2208 11.15821141935067 5.942098705878106 10.8124392872816 0 0 0
280 0 1 -1.1104 12.290131843520959 4.436291389839558 12.036213968189468 0 0 0
283 0 1 -1.1104 12.43383811577014 4.511235121648187 9.424430036426388 0 0 0
278 0 1 -1.1104 12.954226082204405 7.342963598733025 12.192698714999496 0 0 0
279 0 1 -1.1104 12.526143942395745 7.2885993934051285 9.300075807592165 0 0 0
273 0 1 -1.1104 9.621094956374305 7.542489559338546 9.507918858816911 0 0 0
285 0 1 -1.1104 9.612126371292229 7.280058761022375 12.13049263466422 0 0 0
243 0 1 -1.1104 6.76275952177012 7.493525995478806 12.307724247855921 0 0 0
315 0 2 2.2208 10.966621717595867 3.1489698962109274 13.493967845980453 0 0 0
124 0 1 -1.1104 3.9111279337331055 12.975081007886242 6.472490506364787 0 0 0
62 0 1 -1.1104 1.3225892455328008 10.117060867524032 6.61861833133507 0 0 0
29 0 2 2.2208 -0.04882994588495931 11.669983352577757 11.057080698150704 0 0 0
108 0 1 -1.1104 1.1440526017288972 13.146046949607989 6.698765214292324 0 0 0
78 0 1 -1.1104 4.279760100516987 10.303509339625716 6.848229922075944 0 0 0
241 0 2 2.2208 5.615222244393129 11.705014779683244 10.950016868042882 0 0 0
247 0 1 -1.1104 1.4341292028132888 10.29513439483313 12.226645486690845 0 0 0
250 0 2 2.2208 5.472334228870785 8.975356039305503 7.999009680547293 0 0 0
252 0 1 -1.1104 1.201578881960437 10.29671438887083 9.550901697942201 0 0 0
257 0 2 2.2208 2.626568415185666 11.546981958080828 7.970667337718841 0 0 0
259 0 2 2.2208 2.7015229909296146 8.88402979930883 11.115432797132934 0 0 0
261 0 1 -1.1104 4.3811446672729115 10.642817874682095 12.490412903747453 0 0 0
263 0 1 -1.1104 4.104782951204634 10.056952592211383 9.546294066940572 0 0 0
204 0 1 -1.1104 3.92191874115095 12.938081855283547 9.379541659257344 0 0 0
287 0 1 -1.1104 4.313950407298927 13.2850317329536 12.037192205628903 0 0 0
294 0 1 -1.1104 1.117594689779409 13.005962381370862 9.639573563770073 0 0 0
299 0 1 -1.1104 1.1542564036792424 13.18098801787529 12.591734899242192 0 0 0
8656 0 2 2.2208 -0.034775304801010196 8.843523806751357 7.923226835921164 0 0 0
323 0 2 2.2208 5.314051313697041 20.22821651934719 13.642686988390354 0 0 0
111 0 1 -1.1104 6.701173246959516 12.898568366877377 6.566770257622338 0 0 0
90 0 1 -1.1104 12.636275771463142 10.134843500536613 6.522797076122637 0 0 0
81 0 2 2.2208 11.265458657968558 14.397726468218774 7.984583879969418 0 0 0
65 0 1 -1.1104 6.96390197266845 10.125684869167982 6.312191616811754 0 0 0
290 0 1 -1.1104 6.780984582423003 13.040388048862248 9.371123853398855 0 0 0
249 0 1 -1.1104 6.788543313527521 10.191791877639515 12.102267804843134 0 0 0
297 0 1 -1.1104 7.131024135959774 12.970690467144877 12.220031529980295 0 0 0
254 0 1 -1.1104 7.090781648746009 10.362817817161066 9.11285969105615 0 0 0
101 0 1 -1.1104 9.715642020921267 10.124464982341639 6.674281546075781 0 0 0
137 0 1 -1.1104 9.81383255006931 13.030437134155965 9.422620401661352 0 0 0
264 0 1 -1.1104 9.788118404083871 10.363387913808031 9.485723126133863 0 0 0
270 0 1 -1.1104 9.423630106197548 10.062646280486085 12.272107657042127 0 0 0
272 0 2 2.2208 8.184531815763966 8.905157455535033 10.746683365657713 0 0 0
274 0 2 2.2208 8.422638493053904 11.681124928179923 7.999855907145651 0 0 0
277 0 2 2.2208 11.030181431791815 11.571864245263349 10.866320503467445 0 0 0
281 0 1 -1.1104 12.29763548101979 10.409409691547914 12.371012692516295 0 0 0
282 0 2 2.2208 11.161357809041256 8.79266590102245 7.97129809988101 0 0 0
284 0 1 -1.1104 12.605175873520183 10.028362158620052 9.475497737681039 0 0 0
104 0 1 -1.1104 9.734137709142376 12.878667856042123 12.220367919477162 0 0 0
27 0 1 -1.1104 12.510657953707259 13.030036647956702 12.107612152709807 0 0 0
49 0 1 -1.1104 12.717916305942747 12.908115301425017 9.34946303793566 0 0 0
8454 0 2 2.2208 -0.2566953699158846 14.674979428376155 8.084260428920382 0 0 0
133 0 1 -1.1104 3.940855107101914 15.869831026368983 6.61356722323969 0 0 0
83 0 1 -1.1104 12.43214538829111 15.920106317485597 9.394591519791542 0 0 0
302 0 1 -1.1104 1.172559792506656 18.703821181311604 6.587581652821589 0 0 0
117 0 1 -1.1104 0.9831812800106327 15.749388513820453 6.497411950857224 0 0 0
233 0 2 2.2208 2.417409062024683 14.509055815451015 10.98815086483537 0 0 0
295 0 2 2.2208 5.298933811334933 14.404538040566509 8.168808610348949 0 0 0
298 0 1 -1.1104 0.85898995352689 18.79547426581472 12.332536766372966 0 0 0
300 0 2 2.2208 5.252958909942417 17.21555190765068 10.915040416024633 0 0 0
301 0 1 -1.1104 3.862634584246206 18.709326320540004 9.394582456046708 0 0 0
51 0 2 2.2208 2.3208161444540183 20.181808117408366 10.88429186433042 0 0 0
52 0 1 -1.1104 3.7438259723581653 15.823815549511183 12.386996254542309 0 0 0
202 0 1 -1.1104 0.7931620235259007 16.236091924113467 12.154279578281011 0 0 0
231 0 1 -1.1104 3.993692569525841 15.948758448603108 9.426636527993738 0 0 0
232 0 2 2.2208 2.5207991128711127 17.219631447557287 7.971404505019576 0 0 0
286 0 1 -1.1104 3.6838633771543616 18.59527453240798 12.30104283910016 0 0 0
291 0 1 -1.1104 0.9381852343045463 18.8083363016386 9.483135065182893 0 0 0
292 0 1 -1.1104 1.2706063179040774 15.797640827499784 9.322518655354942 0 0 0
293 0 2 2.2208 5.246024702013056 20.161392047240714 8.08328228332843 0 0 0
324 0 2 2.2208 5.595960537473451 14.518043964907983 13.587634086319943 0 0 0
112 0 1 -1.1104 6.664583606308827 18.58954666186513 6.964952471741168 0 0 0
156 0 1 -1.1104 9.407636464104456 18.77482355547056 6.614037928656471 0 0 0
200 0 2 2.2208 7.993770886176992 20.115126326958546 10.972652626182766 0 0 0
135 0 2 2.2208 8.168147028252138 17.448481907673056 8.252937222065883 0 0 0
82 0 2 2.2208 10.849543112377212 20.081388779338244 7.97420660335586 0 0 0
26 0 2 2.2208 10.95877575008984 17.202538475272046 10.77122449791434 0 0 0
53 0 1 -1.1104 12.402470335627624 15.94016562359846 12.208867585863983 0 0 0
229 0 1 -1.1104 9.557486865680334 15.907742656391596 12.241165033040708 0 0 0
105 0 1 -1.1104 9.548427014225997 18.561941087674253 12.216271593046955 0 0 0
199 0 2 2.2208 8.279918204081916 14.411798791766904 10.857393759492467 0 0 0
203 0 1 -1.1104 6.800913489309019 15.851280609271505 12.316500892065855 0 0 0
289 0 1 -1.1104 7.139116691735359 15.90666995152823 9.781556527806893 0 0 0
296 0 1 -1.1104 6.696493701832663 18.634408295982745 12.330728466132255 0 0 0
149 0 1 -1.1104 12.43791969268919 15.688818854656091 6.460640893877415 0 0 0
288 0 1 -1.1104 6.813418243506255 18.664870451203903 9.734570691199957 0 0 0
230 0 1 -1.1104 9.809722121856879 15.610404578970426 9.598670196208797 0 0 0
311 0 2 2.2208 5.279215712168067 3.2346565765811013 13.575498253387414 0 0 0
314 0 2 2.2208 10.816991645897534 -2.375459412009391 13.466988888254539 0 0 0
317 0 2 2.2208 5.42895911655872 8.937433335538879 13.668646106105372 0 0 0
320 0 2 2.2208 11.026206102149818 8.721503596008693 13.651753624161344 0 0 0
333 0 2 2.2208 11.061959918064506 0.30831342624669394 -0.4372360336026837 0 0 0
342 0 2 2.2208 5.364902156894733 0.27747037819440906 16.23286637637031 0 0 0
343 0 1 -1.1104 1.0649919872238902 -3.8688342359098 17.633789143966062 0 0 0
347 0 1 -1.1104 1.0658668702978424 -3.949477146590177 15.015977712425745 0 0 0
355 0 1 -1.1104 1.2297848733820853 -1.0262016626926256 17.813170829626955 0 0 0
357 0 2 2.2208 5.352160964441377 -2.5850814840631955 19.18039649368739 0 0 0
359 0 1 -1.1104 1.0618765698753947 -1.112497102978338 15.107744411660997 0 0 0
363 0 1 -1.1104 4.081499341556399 -4.013367137795039 17.798723066780816 0 0 0
365 0 2 2.2208 2.549899213748111 0.3328502321656865 19.056911385976605 0 0 0
366 0 1 -1.1104 4.006950676270779 -4.015547308976954 14.882148418682021 0 0 0
370 0 2 2.2208 2.662677699929843 -2.4636492979500297 16.40789987253652 0 0 0
372 0 1 -1.1104 3.980457744130611 -1.2139211027368184 17.860853434310453 0 0 0
373 0 1 -1.1104 3.9627702311821595 -1.169670951795066 15.098626940908096 0 0 0
374 0 1 -1.1104 4.301321741250895 -1.331769103160207 20.623204822688884 0 0 0
367 0 1 -1.1104 3.915423298316919 -3.974326118129706 20.66453691861188 0 0 0
378 0 2 2.2208 -0.2855381515810374 0.4101558351491312 16.340030128672296 0 0 0
348 0 1 -1.1104 1.097926073632346 -3.926348050403463 20.456507128672463 0 0 0
8817 0 2 2.2208 -0.25404910646080187 -2.455209343244052 19.25229347134138 0 0 0
17420 0 2 2.2208 -0.31722351693683454 -5.27109948873877 16.363333390343684 0 0 0
303 0 2 2.2208 8.101626543007631 14.429087271791737 27.685377437267693 0 0 -1
356 0 1 -1.1104 6.754560521078774 -1.1583005622148732 17.871608108079588 0 0 0
362 0 1 -1.1104 7.04455326413328 -1.0059887017239686 20.638103148362784 0 0 0
352 0 1 -1.1104 6.819100897821627 -3.9884058741195005 20.46491922852982 0 0 0
361 0 1 -1.1104 6.693673351816126 -0.9262065461711734 14.894149748170298 0 0 0
345 0 1 -1.1104 6.997586713256218 -3.878350400427241 17.69035995236959 0 0 0
351 0 1 -1.1104 6.92473810601273 -3.7782693025799663 14.914417267110059 0 0 0
385 0 2 2.2208 11.198450417207313 0.4831099153370324 16.323407917549947 0 0 0
386 0 1 -1.1104 12.497987964872904 -3.953303117587837 18.008760565356816 0 0 0
388 0 1 -1.1104 12.312051544757528 -3.7700207102309458 15.290210890475958 0 0 0
392 0 1 -1.1104 12.575021376710893 -0.9725922916438291 17.798335169425304 0 0 0
393 0 2 2.2208 11.173356013608506 -2.311801466919308 19.12866107609863 0 0 0
395 0 1 -1.1104 12.493995084726022 -0.8358192231313938 15.066491570908246 0 0 0
397 0 1 -1.1104 9.687743340112123 -3.840977939462712 17.870272915928368 0 0 0
399 0 2 2.2208 8.366487830682667 0.32117468423612044 19.29649185701289 0 0 0
400 0 1 -1.1104 9.557570459554253 -3.78783099631003 15.079642535811717 0 0 0
404 0 2 2.2208 8.198383855525858 -2.268103244794881 16.467525519052668 0 0 0
406 0 1 -1.1104 9.675345013390624 -0.8465443437742087 17.76002268076785 0 0 0
407 0 1 -1.1104 9.515232625128641 -0.9098948403829927 14.954084835241352 0 0 0
401 0 1 -1.1104 10.095228247950365 -3.7652736004683884 20.54640816410368 0 0 0
408 0 1 -1.1104 9.905873602315783 -1.0879923090558334 20.613682133555773 0 0 0