ITEM: TIMESTEP
80000
ITEM: NUMBER OF ATOMS
17672
ITEM: BOX BOUNDS pp pp pp
-3.1752684185161434e-01 2.7657526841851002e+01
-3.8545783547260544e+00 3.3193457835472196e+02
-3.1600840035641542e-01 2.7656008400356942e+01
ITEM: ATOMS id type q x y z
1 2 2.2208 5.21243 1.74594 5.27748
2 1 -1.1104 1.05138 -2.41293 1.20134
3 1 -1.1104 1.02679 3.23234 1.10176
6 1 -1.1104 0.970026 -2.37009 3.87819
7 1 -1.1104 0.968101 3.21712 3.93603
10 1 -1.1104 1.03162 0.369705 1.07144
12 2 2.2208 5.23703 -1.01127 2.51221
13 2 2.2208 5.23402 4.69752 2.45036
14 1 -1.1104 1.08549 0.43894 3.9641
16 1 -1.1104 3.78829 -2.34765 1.1889
17 1 -1.1104 3.76707 3.23498 1.06121
18 2 2.2208 2.47805 1.77916 2.42603
19 1 -1.1104 3.7231 -2.42042 4.00039
20 1 -1.1104 3.78733 3.19942 3.82996
21 2 2.2208 2.39667 -0.96985 5.26012
22 2 2.2208 2.28858 4.54509 5.25365
23 1 -1.1104 3.86435 0.385876 1.15934
24 1 -1.1104 3.824 0.469845 3.7954
15 1 -1.1104 6.6192 0.397734 3.84607
174 1 -1.1104 3.8482 0.314336 6.70176
8 1 -1.1104 6.55391 -2.38498 3.85769
9 1 -1.1104 6.64648 3.2104 3.89152
5 1 -1.1104 6.57108 3.25193 1.02162
358 2 2.2208 -0.376866 10.208 13.6519
311 2 2.2208 -0.371961 21.3545 8.07894
28 2 2.2208 2.42526 -3.89154 2.55884
382 2 2.2208 2.44601 -1.08144 -0.257707
11 1 -1.1104 6.67814 0.405141 1.07565
402 2 2.2208 13.6483 10.1691 -0.355569
4 1 -1.1104 6.6963 -2.43426 0.989055
31 2 2.2208 10.8081 1.80755 5.37604
32 1 -1.1104 12.2773 -2.55776 1.0674
33 1 -1.1104 12.239 3.18293 1.23614
34 1 -1.1104 12.2305 -2.48642 3.90604
35 1 -1.1104 12.1455 3.20118 3.96686
36 1 -1.1104 12.1819 0.301146 1.09828
37 2 2.2208 10.7922 -1.06312 2.55989
38 2 2.2208 10.7793 4.54053 2.60184
39 1 -1.1104 12.2866 0.308959 3.96091
40 1 -1.1104 9.43113 -2.50088 1.19049
41 1 -1.1104 9.46213 3.05705 1.20924
42 2 2.2208 7.97075 1.84044 2.47193
43 1 -1.1104 9.38679 -2.44355 3.95057
44 1 -1.1104 9.37594 3.09964 3.96985
45 2 2.2208 8.04513 -1.06556 5.34667
46 2 2.2208 8.02015 4.55075 5.37258
47 1 -1.1104 9.40105 0.321406 1.14343
48 1 -1.1104 9.43896 0.282043 4.00889
208 1 -1.1104 9.44917 -2.4489 6.81831
381 2 2.2208 5.21946 1.75505 -0.304093
343 2 2.2208 -0.493937 10.1377 8.00166
50 2 2.2208 13.5716 -1.1181 5.38924
205 1 -1.1104 12.2248 -2.57985 6.74181
207 1 -1.1104 12.1762 0.377469 6.84799
137 2 2.2208 -0.38036 18.5558 5.30789
334 2 2.2208 13.562 4.59542 5.36863
333 2 2.2208 13.7127 15.6636 10.9509
377 2 2.2208 7.95722 15.7558 -0.300644
54 2 2.2208 5.14125 7.26961 5.26163
55 2 2.2208 5.21471 12.943 5.24604
56 1 -1.1104 1.00032 8.75565 1.07009
58 1 -1.1104 1.04516 8.82408 3.81047
60 1 -1.1104 1.01285 5.94777 1.09637
61 1 -1.1104 1.1064 11.5618 1.07524
66 2 2.2208 5.22629 10.1354 2.51097
67 1 -1.1104 1.01907 5.976 3.84686
68 1 -1.1104 1.03544 11.6164 3.89712
71 1 -1.1104 3.78179 8.74824 1.04338
72 2 2.2208 2.47104 7.36967 2.40099
73 2 2.2208 2.52827 12.9985 2.46566
74 1 -1.1104 3.90133 8.71048 3.83253
75 2 2.2208 2.3563 10.1709 5.30529
76 1 -1.1104 3.8487 6.03894 1.06056
77 1 -1.1104 3.93215 11.4825 1.15784
79 1 -1.1104 3.76053 5.91701 3.88264
80 1 -1.1104 3.78801 11.5424 3.91298
69 1 -1.1104 6.53588 5.98117 3.84836
57 1 -1.1104 6.6672 8.74402 1.12711
70 1 -1.1104 6.56992 11.5795 3.88787
64 1 -1.1104 6.59965 11.5646 1.11565
104 2 2.2208 13.6697 12.9059 2.43227
229 2 2.2208 13.5433 1.63463 8.14078
202 2 2.2208 2.43111 -3.91216 8.07827
59 1 -1.1104 6.70098 8.71432 3.85058
63 1 -1.1104 6.69669 5.99911 1.01715
84 2 2.2208 10.8704 7.3194 5.35753
85 2 2.2208 10.9314 12.9134 5.20507
86 1 -1.1104 12.184 8.84524 1.01714
87 1 -1.1104 12.1948 8.79455 3.94105
88 1 -1.1104 12.2951 6.01798 1.16831
89 1 -1.1104 12.2845 11.6217 1.09055
91 2 2.2208 10.8473 10.2102 2.47747
92 1 -1.1104 12.1529 6.01074 3.91831
93 1 -1.1104 12.1974 11.5629 3.75324
94 1 -1.1104 9.44967 8.6937 1.05808
95 2 2.2208 8.03556 7.27772 2.58367
96 2 2.2208 8.02066 12.8812 2.49916
97 1 -1.1104 9.49053 8.59783 3.89991
98 2 2.2208 8.08972 10.0336 5.32185
99 1 -1.1104 9.46648 5.90009 1.14923
100 1 -1.1104 9.49349 11.4594 1.02264
102 1 -1.1104 9.36796 5.85252 4.03793
103 1 -1.1104 9.41246 11.5256 3.88964
266 1 -1.1104 12.2784 5.94875 6.76353
375 2 2.2208 13.6942 21.3074 -0.364106
335 2 2.2208 13.6901 10.1174 5.29559
383 2 2.2208 2.42886 4.62186 -0.331473
105 2 2.2208 13.6324 7.41177 2.50993
53 2 2.2208 13.5545 -3.92781 2.50028
379 2 2.2208 8.04935 21.3518 -0.329054
106 2 2.2208 5.29656 18.5843 5.32657
107 1 -1.1104 1.11569 14.3665 1.09334
109 1 -1.1104 1.22381 19.938 1.18834
113 1 -1.1104 1.09329 14.3574 3.95401
114 1 -1.1104 1.11045 19.9463 3.90208
116 1 -1.1104 1.05142 17.1451 1.11949
119 2 2.2208 5.2954 15.7595 2.54565
120 2 2.2208 5.25828 21.3434 2.44347
121 1 -1.1104 1.14806 17.1565 3.96536
123 1 -1.1104 3.88599 14.36 1.16965
125 1 -1.1104 3.88839 20.0553 1.04199
127 2 2.2208 2.49868 18.4949 2.45371
128 1 -1.1104 3.93569 14.405 3.87772
129 1 -1.1104 3.87542 19.9172 3.91029
130 2 2.2208 2.54871 15.8072 5.29195
131 2 2.2208 2.43597 21.3769 5.34313
132 1 -1.1104 3.79695 17.2074 1.04009
134 1 -1.1104 3.94516 17.1762 3.87721
110 1 -1.1104 6.65831 14.2672 1.01178
138 1 -1.1104 6.68193 19.8947 1.07455
108 1 -1.1104 1.15145 14.3253 6.68799
133 1 -1.1104 3.82079 17.2014 6.77512
122 1 -1.1104 6.7682 17.1218 3.90411
111 1 -1.1104 6.66888 14.33 6.62879
312 2 2.2208 -0.264811 18.5557 10.7461
321 1 -1.1104 9.40249 19.9753 12.2924
388 2 2.2208 8.04527 -1.02562 -0.280222
115 1 -1.1104 6.66364 14.4426 3.92105
139 1 -1.1104 6.62499 19.9442 3.95558
140 1 -1.1104 6.55766 17.2215 1.08075
149 1 -1.1104 12.254 17.1641 6.73467
141 2 2.2208 10.8955 18.4357 5.31271
142 1 -1.1104 12.2456 14.3187 0.955621
144 1 -1.1104 12.3311 19.9317 1.07933
146 1 -1.1104 12.4124 14.2928 3.81427
147 1 -1.1104 12.2934 19.8181 3.94225
148 1 -1.1104 12.193 17.1843 1.07468
150 2 2.2208 10.8822 15.7278 2.43488
151 2 2.2208 10.9044 21.263 2.56597
152 1 -1.1104 12.3328 16.9893 3.9495
153 1 -1.1104 9.44332 14.3321 1.15306
155 1 -1.1104 9.4649 19.9078 1.10092
157 2 2.2208 8.06063 18.6026 2.51905
158 1 -1.1104 9.46379 14.3249 3.9183
159 1 -1.1104 9.50506 19.7706 3.99597
160 2 2.2208 8.12537 15.7234 5.32054
161 2 2.2208 8.10801 21.2308 5.34016
162 1 -1.1104 9.41463 17.1009 1.06078
164 1 -1.1104 9.576 17.0534 3.89574
143 1 -1.1104 12.2293 14.4216 6.64727
156 1 -1.1104 9.57198 19.9016 6.6988
317 2 2.2208 7.95307 15.715 10.9328
339 2 2.2208 13.5928 7.35986 8.20074
314 1 -1.1104 9.39803 17.076 9.46252
145 1 -1.1104 12.3585 19.8471 6.75424
378 2 2.2208 10.7913 18.5302 -0.380418
325 2 2.2208 10.8288 15.7369 8.09024
329 1 -1.1104 12.2687 19.9781 12.3238
171 1 -1.1104 6.70528 0.382613 6.68639
170 1 -1.1104 1.01554 0.340961 6.75984
166 1 -1.1104 1.07983 -2.45976 6.68897
167 1 -1.1104 0.98454 3.19097 6.72448
172 1 -1.1104 3.93199 -2.50606 6.60511
168 1 -1.1104 6.68778 -2.5083 6.69485
173 1 -1.1104 3.73679 3.057 6.72029
175 2 2.2208 5.17104 1.70243 10.9523
176 1 -1.1104 0.985649 -2.45863 12.3529
177 1 -1.1104 0.999626 3.12186 12.3305
180 1 -1.1104 0.946262 -2.46341 9.38416
181 1 -1.1104 1.05147 3.2608 9.55278
184 1 -1.1104 0.870664 0.342904 12.2681
186 2 2.2208 5.21612 -1.10026 8.16747
187 2 2.2208 5.19025 4.50197 8.04406
188 1 -1.1104 1.03541 0.341232 9.49389
190 1 -1.1104 3.79477 -2.52731 12.3222
191 1 -1.1104 3.84322 3.10461 12.2643
192 2 2.2208 2.44302 1.74287 8.11488
193 1 -1.1104 3.76814 -2.56921 9.4557
194 1 -1.1104 3.74694 3.13938 9.58775
195 2 2.2208 2.29162 -1.088 10.8248
196 2 2.2208 2.39718 4.58561 10.8571
197 1 -1.1104 3.67939 0.271673 12.2562
198 1 -1.1104 3.88235 0.301492 9.44399
189 1 -1.1104 6.61757 0.281247 9.46973
185 1 -1.1104 6.51122 0.281533 12.3345
179 1 -1.1104 6.60253 3.22786 12.3627
183 1 -1.1104 6.56146 3.03139 9.45164
326 1 -1.1104 12.2365 17.2005 12.1796
328 1 -1.1104 12.1426 14.3174 9.43855
315 1 -1.1104 9.33526 17.1576 12.2811
169 1 -1.1104 6.57929 3.0953 6.69199
324 2 2.2208 10.8935 21.2105 8.17577
206 1 -1.1104 12.2493 3.17856 6.72279
209 1 -1.1104 9.40084 3.18272 6.78151
49 2 2.2208 13.5887 1.71814 2.50749
230 2 2.2208 13.65 -1.09397 10.9744
337 2 2.2208 13.6666 15.7234 5.281
338 2 2.2208 13.5565 4.47007 10.9426
182 1 -1.1104 6.57537 -2.52201 9.59802
210 1 -1.1104 9.43822 0.335132 6.80048
178 1 -1.1104 6.6814 -2.48277 12.3133
211 2 2.2208 10.8075 1.68565 10.9169
212 1 -1.1104 12.246 -2.51789 12.3685
213 1 -1.1104 12.1888 3.1042 12.3002
214 1 -1.1104 12.2123 -2.44223 9.51334
215 1 -1.1104 12.165 3.04677 9.47918
216 1 -1.1104 12.1743 0.280048 12.3323
217 2 2.2208 10.7923 -1.09374 8.2876
218 2 2.2208 10.7747 4.54102 8.16983
219 1 -1.1104 12.2682 0.302232 9.61716
220 1 -1.1104 9.46034 -2.51925 12.3323
221 1 -1.1104 9.39809 3.21836 12.2822
222 2 2.2208 8.00696 1.72625 8.13425
223 1 -1.1104 9.43774 -2.53602 9.56103
224 1 -1.1104 9.29298 3.10529 9.54799
225 2 2.2208 8.05491 -1.09643 10.9857
226 2 2.2208 8.01587 4.5097 10.8559
227 1 -1.1104 9.43238 0.290113 12.3258
228 1 -1.1104 9.52844 0.31174 9.62141
391 2 2.2208 13.6681 -1.07029 -0.301194
234 1 -1.1104 0.934405 8.80117 6.65748
78 1 -1.1104 3.7401 11.5683 6.62896
239 1 -1.1104 3.7611 5.93797 6.72384
238 1 -1.1104 3.64401 8.73061 6.62152
235 1 -1.1104 6.63548 8.73648 6.70393
237 1 -1.1104 6.57377 5.90407 6.60715
319 1 -1.1104 9.36606 14.2758 9.64351
62 1 -1.1104 1.05324 11.5138 6.71338
236 1 -1.1104 0.971259 5.94404 6.62325
240 2 2.2208 5.26437 7.39535 10.7874
241 2 2.2208 5.17683 12.917 10.8831
242 1 -1.1104 0.990026 8.88437 12.3726
244 1 -1.1104 1.0119 8.82495 9.53955
246 1 -1.1104 1.09725 6.0128 12.1719
247 1 -1.1104 1.05792 11.5471 12.2292
250 2 2.2208 5.17539 10.1996 8.08001
251 1 -1.1104 0.972897 5.99964 9.48985
252 1 -1.1104 1.0826 11.573 9.43356
255 1 -1.1104 3.93061 8.79236 12.322
256 2 2.2208 2.32278 7.35044 8.08565
257 2 2.2208 2.44716 12.9591 8.04085
258 1 -1.1104 3.74972 8.82309 9.44006
259 2 2.2208 2.4661 10.1808 10.9179
260 1 -1.1104 3.91005 5.95949 12.2364
261 1 -1.1104 3.85223 11.5549 12.2337
262 1 -1.1104 3.85102 6.02187 9.42699
263 1 -1.1104 3.78508 11.5688 9.40075
254 1 -1.1104 6.59671 11.474 9.54101
245 1 -1.1104 6.53477 8.73186 9.46029
249 1 -1.1104 6.5687 11.5261 12.2501
253 1 -1.1104 6.56461 5.84617 9.40966
323 1 -1.1104 12.3199 17.1228 9.56014
65 1 -1.1104 6.61518 11.5473 6.68017
90 1 -1.1104 12.2967 11.6069 6.64438
101 1 -1.1104 9.49885 11.49 6.74505
265 1 -1.1104 12.3013 8.69116 6.72234
269 1 -1.1104 9.45769 6.02311 6.79943
322 1 -1.1104 9.35085 14.3019 12.376
341 2 2.2208 13.6288 10.1831 10.8677
331 2 2.2208 10.8495 18.4757 10.9189
267 1 -1.1104 9.45615 8.76864 6.72971
248 1 -1.1104 6.74756 6.01594 12.2678
243 1 -1.1104 6.73635 8.7786 12.2155
264 1 -1.1104 9.45243 11.4494 9.47475
268 1 -1.1104 9.4243 5.90391 9.46696
270 1 -1.1104 9.43931 11.5789 12.3164
271 1 -1.1104 9.44575 5.98076 12.2825
272 2 2.2208 8.04673 10.1473 10.8358
273 1 -1.1104 9.38556 8.66816 9.55122
274 2 2.2208 8.07607 12.8771 8.08454
275 2 2.2208 8.03613 7.34712 8.08292
276 2 2.2208 10.8011 7.37647 10.973
277 2 2.2208 10.8226 12.9542 10.8483
278 1 -1.1104 12.2647 8.68392 12.2905
279 1 -1.1104 12.2085 8.66877 9.47779
280 1 -1.1104 12.1663 5.89275 12.304
281 1 -1.1104 12.212 11.5652 12.2619
282 2 2.2208 10.885 10.0523 8.07784
283 1 -1.1104 12.1361 5.85445 9.65635
284 1 -1.1104 12.253 11.5516 9.45023
285 1 -1.1104 9.48492 8.83659 12.2907
290 1 -1.1104 6.61435 14.266 9.46609
327 1 -1.1104 12.218 19.8935 9.53282
302 1 -1.1104 0.960235 19.9479 6.66189
126 1 -1.1104 3.79841 20.0255 6.78213
117 1 -1.1104 0.969618 17.1044 6.69746
297 1 -1.1104 6.52381 14.3844 12.3155
306 1 -1.1104 6.6233 17.1671 12.3823
124 1 -1.1104 3.83922 14.3127 6.65267
288 1 -1.1104 6.74413 20.014 9.50612
310 2 2.2208 2.48755 15.7308 10.8405
309 2 2.2208 2.47164 21.4739 10.8326
308 1 -1.1104 3.90665 17.0501 12.2731
307 1 -1.1104 1.07273 17.1717 12.1833
305 1 -1.1104 3.83211 14.3904 9.4431
304 1 -1.1104 3.71604 17.2236 9.5316
303 2 2.2208 2.41673 18.5363 8.12049
301 1 -1.1104 3.95021 19.9982 9.5232
287 1 -1.1104 3.80363 14.2812 12.2926
286 1 -1.1104 3.815 19.809 12.2213
300 2 2.2208 5.27613 18.5383 10.8576
299 1 -1.1104 1.07515 14.3544 12.2781
298 1 -1.1104 1.00467 19.9989 12.1593
295 2 2.2208 5.27206 15.7331 8.08717
294 1 -1.1104 1.103 14.2393 9.43874
293 2 2.2208 5.24789 21.3728 8.13166
292 1 -1.1104 1.0218 17.1271 9.42249
291 1 -1.1104 1.10536 20.0022 9.41406
296 1 -1.1104 6.64642 20.0159 12.3432
289 1 -1.1104 6.55953 17.131 9.5084
320 2 2.2208 8.10317 18.5746 8.03778
340 2 2.2208 13.6567 13.0488 8.03992
316 2 2.2208 8.07505 21.4309 10.8787
368 2 2.2208 2.53111 18.5349 13.629
330 1 -1.1104 12.2951 14.3938 12.302
112 1 -1.1104 6.71854 19.9011 6.76505
163 1 -1.1104 9.4073 17.1196 6.63042
154 1 -1.1104 9.52821 14.2599 6.79563
118 1 -1.1104 6.61696 17.1413 6.71588
318 1 -1.1104 9.44247 19.8659 9.50343
365 2 2.2208 8.07082 12.9585 13.6766
165 2 2.2208 13.6075 18.5801 2.44699
25 2 2.2208 -0.364217 -1.09795 2.4899
332 2 2.2208 13.742 18.5771 8.11578
376 2 2.2208 8.0597 18.6118 13.7032
404 2 2.2208 5.18274 18.5829 -0.397162
355 2 2.2208 7.94977 1.74037 13.6838
371 2 2.2208 5.21823 15.6821 13.6738
352 2 2.2208 5.30129 4.56834 13.6844
390 2 2.2208 10.8482 -3.87929 -0.291945
392 2 2.2208 13.6075 4.5396 -0.296178
389 2 2.2208 8.12627 4.5794 -0.347249
399 2 2.2208 7.94096 10.0673 -0.275066
395 2 2.2208 5.2082 12.9647 -0.335162
398 2 2.2208 10.8969 7.3688 -0.311425
372 2 2.2208 10.8638 21.3451 13.787
369 2 2.2208 5.25029 21.4003 13.6538
394 2 2.2208 2.45297 10.1808 -0.318654
359 2 2.2208 2.46139 7.3423 13.6701
406 2 2.2208 5.23787 1.68044 16.4725
407 1 -1.1104 1.07473 -2.61188 17.834
408 1 -1.1104 1.0141 3.17673 17.9235
411 1 -1.1104 0.958252 -2.53499 15.1304
413 1 -1.1104 0.97981 3.03776 15.0187
419 1 -1.1104 1.06448 0.330781 17.8761
421 2 2.2208 5.20524 -1.16872 19.3489
422 2 2.2208 5.29956 4.3634 19.1913
423 1 -1.1104 1.08044 0.297786 15.0772
427 1 -1.1104 3.88401 -2.43249 17.9282
428 1 -1.1104 3.76207 3.03838 17.719
429 2 2.2208 2.49461 1.70349 19.2213
430 1 -1.1104 3.70231 -2.50733 15.0974
432 1 -1.1104 3.95537 3.00723 15.0226
434 2 2.2208 2.52084 -1.08584 16.4989
435 2 2.2208 2.46758 4.4871 16.4355
436 1 -1.1104 3.89833 0.346712 17.8998
437 1 -1.1104 3.93668 0.290176 15.0464
433 1 -1.1104 3.92355 3.12082 20.6239
415 1 -1.1104 6.56138 -2.47114 15.1238
414 1 -1.1104 1.1102 3.03834 20.7565
438 1 -1.1104 3.83314 0.322183 20.7003
412 1 -1.1104 1.02996 -2.47173 20.7154
418 1 -1.1104 6.67297 3.09372 20.6756
426 1 -1.1104 6.59954 0.261582 20.7213
724 2 2.2208 -0.308791 21.4557 24.8845
441 2 2.2208 2.42672 -3.91108 19.2421
416 1 -1.1104 6.66936 -2.42899 20.8523
669 2 2.2208 8.05062 -3.85058 24.9657
480 2 2.2208 13.6665 15.7313 16.4419
417 1 -1.1104 6.67302 3.16545 15.0565
361 2 2.2208 2.47352 12.8638 13.6612
356 2 2.2208 10.8179 -1.11792 13.7111
409 1 -1.1104 6.64243 -2.4404 17.957
410 1 -1.1104 6.63356 3.0838 17.8265
425 1 -1.1104 6.66056 0.323428 15.1078
420 1 -1.1104 6.70236 0.251442 17.9243
449 2 2.2208 10.8532 1.70078 16.4539
450 1 -1.1104 12.2952 -2.41465 17.8516
451 1 -1.1104 12.2146 3.1632 17.9344
452 1 -1.1104 12.0683 -2.44407 15.0938
454 1 -1.1104 12.1657 3.07566 15.2386
456 1 -1.1104 12.2893 0.343656 17.8919
457 2 2.2208 10.8155 -1.03798 19.2159
458 2 2.2208 10.8816 4.56425 19.2184
459 1 -1.1104 12.2759 0.263733 15.0509
461 1 -1.1104 9.34896 -2.46715 17.748
462 1 -1.1104 9.38795 3.15111 17.8264
463 2 2.2208 8.117 1.76257 19.2938
464 1 -1.1104 9.33719 -2.51138 15.1397
466 1 -1.1104 9.44853 3.03645 15.0045
468 2 2.2208 7.973 -1.0602 16.4085
469 2 2.2208 8.07096 4.56129 16.4458
470 1 -1.1104 9.48815 0.333655 17.9117
471 1 -1.1104 9.47171 0.262262 15.0773
453 1 -1.1104 12.2172 -2.48317 20.71
639 2 2.2208 5.26482 -3.84934 22.1371
668 2 2.2208 10.7652 -3.84232 22.0924
644 2 2.2208 -0.38589 4.45754 24.8862
467 1 -1.1104 9.47852 3.22237 20.5121
455 1 -1.1104 12.223 3.15103 20.6603
357 2 2.2208 10.7417 4.60031 13.6926
482 2 2.2208 5.25365 7.34607 16.5584
483 2 2.2208 5.33854 12.914 16.5526
484 1 -1.1104 1.03963 8.80286 17.8975
486 1 -1.1104 1.17419 8.71745 15.1165
490 1 -1.1104 1.06157 5.8902 17.7567
491 1 -1.1104 1.13141 11.6408 17.9428
494 2 2.2208 5.30493 10.1745 19.3697
495 1 -1.1104 1.13657 5.87416 14.95
497 1 -1.1104 1.08404 11.4742 15.1782
503 1 -1.1104 3.90518 8.73377 17.8437
504 2 2.2208 2.54105 7.24593 19.1963
505 2 2.2208 2.52048 12.922 19.2431
506 1 -1.1104 3.8334 8.66418 15.1165
508 2 2.2208 2.46338 10.1756 16.549
509 1 -1.1104 3.76823 5.90041 17.7337
510 1 -1.1104 3.98958 11.4832 17.929
511 1 -1.1104 3.91692 5.83732 15.045
513 1 -1.1104 3.90194 11.4974 15.0926
507 1 -1.1104 3.87343 8.70226 20.6479
488 1 -1.1104 6.67141 8.72903 15.1256
492 1 -1.1104 6.62802 5.90451 17.8849
443 2 2.2208 -0.373176 -1.11768 19.2975
485 1 -1.1104 6.66835 8.80258 17.8648
493 1 -1.1104 6.72756 11.5562 17.892
499 1 -1.1104 6.69483 6.03941 15.0637
349 2 2.2208 2.43422 1.71044 13.6292
608 1 -1.1104 12.1343 14.3722 23.3413
512 1 -1.1104 3.94281 5.98807 20.676
514 1 -1.1104 3.88351 11.4937 20.7508
489 1 -1.1104 6.68445 8.79786 20.7015
501 1 -1.1104 6.67993 11.4415 14.9909
518 2 2.2208 10.9 7.30813 16.5447
519 2 2.2208 10.8214 13.0156 16.4794
520 1 -1.1104 12.1935 8.72741 17.9066
521 1 -1.1104 12.2125 8.7486 15.0247
523 1 -1.1104 12.2343 5.93794 17.9536
524 1 -1.1104 12.2024 11.4536 17.8731
525 2 2.2208 10.8788 10.2065 19.2874
526 1 -1.1104 12.2339 5.87198 15.2454
528 1 -1.1104 12.2943 11.5655 15.0536
530 1 -1.1104 9.50971 8.68346 17.865
531 2 2.2208 8.09747 7.32916 19.2557
532 2 2.2208 8.07808 12.8901 19.3504
533 1 -1.1104 9.45931 8.78937 15.0745
535 2 2.2208 8.07727 10.0981 16.439
536 1 -1.1104 9.35882 5.96056 17.8099
537 1 -1.1104 9.44348 11.5151 17.8738
538 1 -1.1104 9.51634 5.94203 15.0338
540 1 -1.1104 9.48446 11.5505 15.1235
534 1 -1.1104 9.44936 8.81716 20.7072
527 1 -1.1104 12.2819 5.9138 20.6968
542 2 2.2208 13.7356 7.35233 19.2867
360 2 2.2208 5.34252 10.0433 13.6964
606 2 2.2208 13.705 21.2554 22.0386
545 2 2.2208 5.36259 18.5594 16.4865
546 1 -1.1104 1.24772 14.3771 17.8718
547 1 -1.1104 1.12426 19.8365 17.814
550 1 -1.1104 1.11711 14.3297 15.0324
552 1 -1.1104 1.09802 19.9433 15.1002
558 1 -1.1104 1.10411 17.0921 17.7243
560 2 2.2208 5.22902 15.7978 19.2663
561 2 2.2208 5.28757 21.3232 19.2106
562 1 -1.1104 1.05883 17.0881 14.9962
566 1 -1.1104 3.90786 14.3423 17.9615
567 1 -1.1104 3.94304 19.8599 17.8334
568 2 2.2208 2.45022 18.5053 19.199
569 1 -1.1104 3.84743 14.3515 15.0701
571 1 -1.1104 3.86507 20.0982 14.9795
573 2 2.2208 2.51749 15.7163 16.4156
574 2 2.2208 2.47063 21.3178 16.4762
575 1 -1.1104 3.86067 17.0005 17.8336
576 1 -1.1104 3.95684 17.2041 15.086
563 1 -1.1104 1.02646 17.2354 20.5954
559 1 -1.1104 6.68944 17.0675 17.8948
564 1 -1.1104 6.75007 17.1238 15.1492
548 1 -1.1104 6.6499 14.2343 17.937
673 1 -1.1104 9.38472 14.3754 26.3276
570 1 -1.1104 3.81484 14.5211 20.7869
551 1 -1.1104 0.88586 14.37 20.6679
544 2 2.2208 -0.352159 4.50648 19.2607
549 1 -1.1104 6.72573 20.003 17.8697
554 1 -1.1104 6.68546 14.2836 15.1448
556 1 -1.1104 6.64505 20.0458 15.0857
581 2 2.2208 10.8881 18.4637 16.3785
582 1 -1.1104 12.2083 14.3314 17.8869
583 1 -1.1104 12.2456 19.9164 17.8334
584 1 -1.1104 12.2481 14.3527 15.0128
586 1 -1.1104 12.2764 19.9482 15.1275
588 1 -1.1104 12.3598 17.0468 17.7215
589 2 2.2208 10.8817 15.7415 19.2356
590 2 2.2208 10.8451 21.2598 19.2066
591 1 -1.1104 12.2335 17.1748 14.8969
593 1 -1.1104 9.41952 14.3406 17.8754
594 1 -1.1104 9.44466 19.9559 17.8036
595 2 2.2208 8.03611 18.5333 19.3066
596 1 -1.1104 9.45235 14.363 15.0892
598 1 -1.1104 9.52417 20.0078 15.0868
600 2 2.2208 8.14967 15.7641 16.4819
601 2 2.2208 8.13398 21.341 16.4821
602 1 -1.1104 9.48393 17.1514 17.9137
603 1 -1.1104 9.56742 17.0747 15.0649
587 1 -1.1104 12.224 19.8742 20.6342
597 1 -1.1104 9.49395 14.2959 20.6738
641 2 2.2208 10.8999 21.3926 24.8998
481 2 2.2208 -0.352058 7.26784 16.5074
599 1 -1.1104 9.39115 19.9005 20.6684
604 1 -1.1104 9.44954 17.1466 20.7368
585 1 -1.1104 12.1568 14.2835 20.5663
732 1 -1.1104 6.65404 17.0821 26.2509
424 1 -1.1104 1.07221 0.361921 20.6531
431 1 -1.1104 3.728 -2.48597 20.692
473 2 2.2208 13.6394 -3.8763 19.3045
578 2 2.2208 13.5862 1.73118 19.2292
609 2 2.2208 5.22275 1.75553 22.0793
610 1 -1.1104 1.02238 -2.43089 23.4741
611 1 -1.1104 1.00384 3.1138 23.4708
614 1 -1.1104 1.13882 -2.39802 26.2641
615 1 -1.1104 1.03982 3.1662 26.3433
618 1 -1.1104 1.23404 0.335959 23.4691
620 2 2.2208 5.23876 -1.0086 24.8693
621 2 2.2208 5.29957 4.57558 24.8891
622 1 -1.1104 1.15472 0.418469 26.3298
624 1 -1.1104 3.77075 -2.42266 23.4841
625 1 -1.1104 3.91122 3.20766 23.5414
626 2 2.2208 2.52379 1.8354 24.8734
627 1 -1.1104 3.86639 -2.41128 26.3578
628 1 -1.1104 3.87828 3.1882 26.2702
629 2 2.2208 2.43186 -1.08887 22.0671
630 2 2.2208 2.52996 4.53385 22.0594
631 1 -1.1104 3.82527 0.387365 23.5413
632 1 -1.1104 3.91436 0.308118 26.2832
617 1 -1.1104 6.62661 3.1935 26.3256
612 1 -1.1104 6.65715 -2.38943 23.5587
616 1 -1.1104 6.68509 -2.47754 26.256
613 1 -1.1104 6.6645 3.13542 23.5117
663 1 -1.1104 12.1415 17.2223 26.2
728 2 2.2208 13.6587 7.33771 24.8852
640 2 2.2208 2.50077 -3.81929 24.8905
460 1 -1.1104 12.1349 0.31053 20.6102
465 1 -1.1104 9.49673 -2.36227 20.5656
623 1 -1.1104 6.66442 0.357025 26.2381
364 2 2.2208 10.8871 10.1864 13.7511
472 1 -1.1104 9.41721 0.395024 20.7427
619 1 -1.1104 6.67695 0.373992 23.4397
645 2 2.2208 10.9108 1.80925 22.0595
646 1 -1.1104 12.2637 -2.4524 23.5033
647 1 -1.1104 12.195 3.12436 23.4511
648 1 -1.1104 12.2381 -2.43845 26.2292
649 1 -1.1104 12.2137 3.20247 26.2825
650 1 -1.1104 12.2931 0.390265 23.3939
651 2 2.2208 10.9474 -0.979945 24.8597
652 2 2.2208 10.8588 4.64133 24.8689
653 1 -1.1104 12.2471 0.374957 26.2897
654 1 -1.1104 9.48772 -2.47491 23.5244
655 1 -1.1104 9.45056 3.18977 23.4444
656 2 2.2208 8.10544 1.68943 24.8464
657 1 -1.1104 9.46943 -2.43527 26.3376
658 1 -1.1104 9.46331 3.08681 26.3116
659 2 2.2208 8.11012 -1.04464 22.1034
660 2 2.2208 8.07398 4.57753 22.1546
661 1 -1.1104 9.57447 0.318398 23.5002
662 1 -1.1104 9.55254 0.286902 26.2717
638 2 2.2208 10.7411 15.7623 24.8346
477 2 2.2208 13.5858 -1.03205 16.4247
636 1 -1.1104 12.2683 17.1901 23.4226
498 1 -1.1104 1.06341 11.581 20.7421
487 1 -1.1104 1.15041 8.64424 20.5732
496 1 -1.1104 1.12906 5.87846 20.5814
674 2 2.2208 5.29707 7.42252 22.134
675 2 2.2208 5.18323 12.9628 22.0627
676 1 -1.1104 1.05735 8.70774 23.367
678 1 -1.1104 1.0572 8.65156 26.2699
680 1 -1.1104 1.04611 5.91777 23.4396
681 1 -1.1104 1.09119 11.4376 23.4418
684 2 2.2208 5.2686 10.1817 24.8423
685 1 -1.1104 1.01746 5.87501 26.2898
686 1 -1.1104 1.00976 11.4413 26.2542
689 1 -1.1104 3.88942 8.75111 23.4838
690 2 2.2208 2.43231 7.29387 24.8528
691 2 2.2208 2.47644 12.8152 24.7847
692 1 -1.1104 3.84232 8.7935 26.2138
693 2 2.2208 2.39494 10.0366 22.0325
694 1 -1.1104 3.83695 5.97617 23.5114
695 1 -1.1104 3.8189 11.5625 23.3369
696 1 -1.1104 3.81952 6.02011 26.3053
697 1 -1.1104 3.94439 11.5583 26.2338
688 1 -1.1104 6.60573 11.5965 26.3099
687 1 -1.1104 6.68498 5.98119 26.2067
683 1 -1.1104 6.61269 11.6282 23.5447
679 1 -1.1104 6.61692 8.73601 26.2098
677 1 -1.1104 6.68358 8.83826 23.4912
682 1 -1.1104 6.66901 5.97667 23.4304
393 2 2.2208 5.24782 7.40945 27.6674
500 1 -1.1104 6.73416 5.90223 20.7768
522 1 -1.1104 12.3229 8.75866 20.5922
541 1 -1.1104 9.39954 11.4833 20.6621
502 1 -1.1104 6.64603 11.6311 20.695
539 1 -1.1104 9.51199 6.02774 20.6688
726 2 2.2208 13.6442 12.9757 24.8454
529 1 -1.1104 12.263 11.449 20.6285
705 1 -1.1104 9.37202 11.6154 26.2641
706 1 -1.1104 9.46427 5.97544 26.2683
707 1 -1.1104 9.44733 11.557 23.4706
708 1 -1.1104 9.45978 5.92737 23.5165
709 2 2.2208 8.15172 10.1477 22.1101
710 1 -1.1104 9.36895 8.8278 26.1831
711 2 2.2208 8.0069 12.8913 24.9423
712 2 2.2208 8.08666 7.37948 24.8505
713 2 2.2208 10.8739 7.36586 22.0396
714 2 2.2208 10.9241 12.8019 21.9956
715 1 -1.1104 12.2985 8.74057 23.5123
716 1 -1.1104 12.3269 8.76658 26.2062
717 1 -1.1104 12.1646 6.00781 23.4357
718 1 -1.1104 12.3013 11.587 23.432
719 2 2.2208 10.8716 10.2362 24.9137
720 1 -1.1104 12.2162 5.98064 26.3861
721 1 -1.1104 12.2189 11.613 26.3545
722 1 -1.1104 9.62705 8.73013 23.5366
633 1 -1.1104 12.3115 19.9402 23.5936
739 1 -1.1104 6.54087 14.3468 23.4106
730 1 -1.1104 6.58117 14.3598 26.1461
670 1 -1.1104 6.60004 19.9249 26.2966
577 1 -1.1104 3.98335 17.2395 20.5843
555 1 -1.1104 6.55114 14.3131 20.5603
565 1 -1.1104 6.79684 17.1637 20.6426
572 1 -1.1104 3.77469 20.0351 20.5505
557 1 -1.1104 6.61951 19.9279 20.6299
747 1 -1.1104 6.61993 17.1591 23.4004
553 1 -1.1104 1.06796 20.0102 20.6253
740 1 -1.1104 1.11259 19.9491 23.4953
738 2 2.2208 5.22512 15.7043 24.7757
737 2 2.2208 5.30628 21.2931 24.8737
735 1 -1.1104 1.03079 14.2328 26.2796
734 1 -1.1104 1.06975 17.126 26.281
745 1 -1.1104 3.87531 17.1233 26.1783
744 2 2.2208 2.38588 18.5133 24.7858
743 1 -1.1104 3.789 19.9925 26.1747
742 2 2.2208 5.28738 18.4969 21.9673
741 1 -1.1104 1.11595 14.2131 23.4476
746 1 -1.1104 3.72823 14.3615 26.2945
750 2 2.2208 2.48124 21.3539 22.0136
749 1 -1.1104 3.74168 17.0322 23.4255
748 1 -1.1104 1.01512 17.0994 23.3264
727 2 2.2208 2.3756 15.7239 22.026
729 1 -1.1104 3.89595 19.9192 23.3818
731 1 -1.1104 3.80581 14.3044 23.4638
733 1 -1.1104 0.99386 19.9489 26.2327
370 2 2.2208 13.5555 1.74983 13.7717
698 1 -1.1104 9.40944 19.8977 26.1604
664 1 -1.1104 9.38707 14.3248 23.425
699 2 2.2208 8.05771 15.7229 22.0443
634 1 -1.1104 12.1901 14.3638 26.2219
592 1 -1.1104 12.205 17.1807 20.587
700 2 2.2208 8.01722 21.3383 22.081
667 2 2.2208 8.05005 18.593 24.8119
607 2 2.2208 10.8297 18.5592 22.0843
366 2 2.2208 13.6487 7.23749 13.6701
403 2 2.2208 2.45943 15.7507 27.6781
635 1 -1.1104 12.2597 20.0108 26.3721
704 1 -1.1104 9.37504 17.083 26.2382
579 2 2.2208 13.6232 4.55027 16.5484
701 1 -1.1104 9.46158 17.1355 23.5056
665 1 -1.1104 9.41517 20.0219 23.4194
736 1 -1.1104 6.59712 19.9523 23.4404
405 2 2.2208 2.46971 21.3138 27.6146
400 2 2.2208 10.7986 12.9566 27.6653
363 2 2.2208 8.08163 7.40146 13.6489
348 2 2.2208 5.1912 -1.11014 13.7138
373 2 2.2208 10.827 15.723 13.6325
387 2 2.2208 10.8712 1.67943 27.7499
751 2 2.2208 5.35456 24.1504 5.34467
752 2 2.2208 5.37793 29.7432 5.24041
753 1 -1.1104 1.20574 25.5332 1.11383
754 1 -1.1104 1.04198 25.6777 4.03285
755 1 -1.1104 1.17444 22.7484 1.09566
756 1 -1.1104 1.23321 28.2955 1.04187
757 2 2.2208 5.29542 26.9321 2.48481
758 1 -1.1104 1.08961 22.7401 3.86673
759 1 -1.1104 1.09877 28.5271 3.78014
760 1 -1.1104 4.01373 25.6043 1.18954
761 2 2.2208 2.51904 24.1445 2.53213
762 2 2.2208 2.50981 29.7361 2.42066
763 1 -1.1104 3.86843 25.4781 3.88931
764 2 2.2208 2.5469 27.0789 5.31281
765 1 -1.1104 3.92898 22.8367 1.02335
766 1 -1.1104 3.99688 28.2712 1.06422
767 1 -1.1104 3.86563 22.6526 3.85223
768 1 -1.1104 3.86887 28.3063 3.87643
898 1 -1.1104 3.94961 25.6224 6.7051
775 1 -1.1104 6.74139 28.3681 1.08088
900 1 -1.1104 3.83448 28.4211 6.66328
776 1 -1.1104 6.72685 22.7825 3.87082
777 1 -1.1104 6.61292 28.2497 3.95428
893 1 -1.1104 6.7734 25.4582 6.71028
844 2 2.2208 13.7364 35.355 2.48525
892 1 -1.1104 0.995938 25.5483 6.75775
895 1 -1.1104 1.05804 28.3709 6.71279
1137 2 2.2208 5.4077 46.6418 -0.363804
1048 1 -1.1104 9.5331 42.1437 9.44412
769 2 2.2208 -0.35164 29.6786 5.31235
1052 1 -1.1104 12.4847 45.3686 9.44102
774 1 -1.1104 6.67948 22.6809 1.10581
773 1 -1.1104 6.69926 25.5886 3.87312
772 1 -1.1104 6.72243 25.5717 1.0572
778 2 2.2208 10.9453 24.0904 5.26776
779 2 2.2208 10.9212 29.8077 5.33394
780 1 -1.1104 12.2995 25.5191 1.11055
781 1 -1.1104 12.3102 25.5454 3.86078
782 1 -1.1104 12.3011 22.5536 1.08057
783 1 -1.1104 12.2246 28.3666 1.10793
784 2 2.2208 10.8344 26.9135 2.58469
785 1 -1.1104 12.3222 22.7324 3.91333
786 1 -1.1104 12.2809 28.3672 3.93582
787 1 -1.1104 9.51748 25.5453 1.13533
788 2 2.2208 8.11304 24.1582 2.49716
789 2 2.2208 8.13977 29.7293 2.51705
790 1 -1.1104 9.47141 25.4185 3.89346
791 2 2.2208 8.06787 26.8395 5.29384
792 1 -1.1104 9.52433 22.6654 1.03893
793 1 -1.1104 9.45048 28.3116 1.07654
794 1 -1.1104 9.41906 22.5509 3.91288
795 1 -1.1104 9.56618 28.1938 3.88579
1018 1 -1.1104 6.66889 39.4625 12.2578
927 1 -1.1104 12.2837 28.2556 6.66516
930 1 -1.1104 9.47011 28.2636 6.6423
1017 1 -1.1104 6.78558 45 12.2582
770 2 2.2208 -0.381223 24.2095 5.23052
799 2 2.2208 5.35498 35.3783 5.38859
800 1 -1.1104 1.07727 31.1798 1.02424
801 1 -1.1104 1.08114 36.7666 1.16322
803 1 -1.1104 0.999447 31.2096 3.84373
804 1 -1.1104 1.21283 36.7228 3.96372
806 1 -1.1104 1.11386 34.0132 1.02567
807 2 2.2208 5.33304 32.5601 2.50056
808 2 2.2208 5.42234 38.2067 2.51705
809 1 -1.1104 1.13823 33.9317 3.97007
811 1 -1.1104 3.9673 31.1571 1.1258
812 1 -1.1104 3.87744 36.7878 1.08371
813 2 2.2208 2.55379 35.3975 2.55481
814 1 -1.1104 3.83296 31.1753 3.79282
815 1 -1.1104 4.02374 36.8206 3.83464
816 2 2.2208 2.54445 32.5353 5.32671
817 2 2.2208 2.60448 38.2149 5.38601
818 1 -1.1104 3.97088 33.9903 1.13667
819 1 -1.1104 3.88968 33.9935 3.9353
957 1 -1.1104 3.92941 33.932 6.67357
956 1 -1.1104 3.91301 36.7476 6.76255
949 1 -1.1104 1.04902 31.1906 6.69163
950 1 -1.1104 1.23832 36.8098 6.81433
820 2 2.2208 -0.26494 38.1579 2.58621
953 1 -1.1104 1.17014 33.9532 6.71793
821 2 2.2208 -0.245529 32.5755 2.44833
822 2 2.2208 -0.234356 35.3857 5.24273
805 1 -1.1104 6.79643 36.7871 3.86129
823 1 -1.1104 6.75869 31.2134 1.13502
802 1 -1.1104 6.75474 36.8576 1.10532
825 1 -1.1104 6.65296 33.9858 1.11014
810 1 -1.1104 6.66756 33.9798 3.86935
824 1 -1.1104 6.74285 31.094 3.89698
826 2 2.2208 10.9701 35.3243 5.33954
827 1 -1.1104 12.2102 31.1796 1.10971
828 1 -1.1104 12.377 36.7551 1.21186
829 1 -1.1104 12.1955 31.1208 3.88489
830 1 -1.1104 12.3982 36.8921 3.86816
831 1 -1.1104 12.1767 34.0034 1.17982
832 2 2.2208 10.8051 32.5678 2.54469
833 2 2.2208 10.9401 38.2264 2.47123
834 1 -1.1104 12.2462 33.9076 3.89471
835 1 -1.1104 9.4749 31.0217 1.08867
836 1 -1.1104 9.47665 36.8608 1.06712
837 2 2.2208 8.04203 35.4453 2.51527
838 1 -1.1104 9.35916 31.0404 3.99532
839 1 -1.1104 9.68817 36.7708 3.9376
840 2 2.2208 8.07192 32.5947 5.26716
841 2 2.2208 8.23744 38.1433 5.38495
842 1 -1.1104 9.403 33.9646 1.11788
843 1 -1.1104 9.39387 33.901 3.9324
986 1 -1.1104 9.45945 31.1431 6.76573
984 1 -1.1104 12.3189 36.7074 6.71765
985 1 -1.1104 12.3901 33.863 6.82112
987 1 -1.1104 9.50687 36.7345 6.78835