LAMMPS (29 Oct 2020)
OMP_NUM_THREADS environment is not set. Defaulting to 1 thread. (../comm.cpp:94)
  using 1 OpenMP thread(s) per MPI task
OMP_NUM_THREADS environment is not set. Defaulting to 1 thread. (../comm.cpp:94)
  using 1 OpenMP thread(s) per MPI task
Reading data file ...
  orthogonal box = (-0.33208758 -4.0836253 -0.32873168) to (27.672088 332.16363 27.668732)
  2 by 13 by 2 MPI processor grid
  reading atoms ...
  17760 atoms
  reading velocities ...
  17760 velocities
Finding 1-2 1-3 1-4 neighbors ...
  special bond factors lj:    0.0      0.0      0.0     
  special bond factors coul:  0.0      0.0      0.0     
     0 = max # of 1-2 neighbors
     0 = max # of 1-3 neighbors
     0 = max # of 1-4 neighbors
     1 = max # of special neighbors
  special bonds CPU = 0.003 seconds
  read_data CPU = 0.061 seconds
WARNING: 13 of 1000 force values in table Xe-Xe are inconsistent with -dE/dr.
  Should only be flagged at inflection points (../pair_table.cpp:461)
WARNING: 2 of 1000 force values in table Xe-O are inconsistent with -dE/dr.
  Should only be flagged at inflection points (../pair_table.cpp:461)
WARNING: 2 of 1000 force values in table Xe-Th are inconsistent with -dE/dr.
  Should only be flagged at inflection points (../pair_table.cpp:461)
Setting atom values ...
  11760 settings made for charge
Setting atom values ...
  5880 settings made for charge
Setting atom values ...
  120 settings made for charge
PPPM initialization ...
  using 12-bit tables for long-range coulomb (../kspace.cpp:328)
  G vector (1/distance) = 0.29890367
  grid = 40 240 40
  stencil order = 5
  estimated absolute RMS force accuracy = 0.0001549514
  estimated relative force accuracy = 1.0760779e-05
  using single precision MKL FFT
  3d grid and FFT values/proc = 18225 7600
Neighbor list info ...
  update every 1 steps, delay 0 steps, check yes
  max neighbors/atom: 2000, page size: 100000
  master list distance cutoff = 13
  ghost atom cutoff = 13
  binsize = 6.5, bins = 5 52 5
  3 neighbor lists, perpetual/occasional/extra = 3 0 0
  (1) pair coul/long, perpetual
      attributes: half, newton on
      pair build: half/bin/newton
      stencil: half/bin/3d/newton
      bin: standard
  (2) pair eam/alloy, perpetual, skip from (1)
      attributes: half, newton on
      pair build: skip
      stencil: none
      bin: none
  (3) pair table, perpetual, skip from (1)
      attributes: half, newton on
      pair build: skip
      stencil: none
      bin: none
Setting up Verlet run ...
  Unit style    : metal
  Current step  : 0
  Time step     : 0.001
Per MPI rank memory allocation (min/avg/max) = 9.251 | 9.943 | 10.05 Mbytes
Step Temp E_pair E_mol TotEng Press 
       0          300   -231140.73            0   -230452.07    181.39464 
  100000    298.50966   -231136.81            0   -230451.57   -24.320155 
Loop time of 698.513 on 52 procs for 100000 steps with 17760 atoms

Performance: 12.369 ns/day, 1.940 hours/ns, 143.161 timesteps/s
99.8% CPU use with 52 MPI tasks x 1 OpenMP threads

MPI task timing breakdown:
Section |  min time  |  avg time  |  max time  |%varavg| %total
---------------------------------------------------------------
Pair    | 479.51     | 498.29     | 519.21     |  42.2 | 71.34
Bond    | 0.0096687  | 0.015464   | 0.022771   |   2.5 |  0.00
Kspace  | 152.88     | 171.13     | 187.67     |  64.6 | 24.50
Neigh   | 0.44293    | 0.48518    | 0.52065    |   2.5 |  0.07
Comm    | 21.066     | 22.956     | 25.9       |  23.5 |  3.29
Output  | 9.7767e-05 | 0.00010325 | 0.00030261 |   0.0 |  0.00
Modify  | 2.4536     | 3.7056     | 6.0756     |  65.7 |  0.53
Other   |            | 1.932      |            |       |  0.28

Nlocal:        341.538 ave         369 max         322 min
Histogram: 3 2 12 7 12 9 2 3 0 2
Nghost:        5548.62 ave        5738 max        5367 min
Histogram: 20 0 0 1 5 2 3 1 13 7
Neighs:       108757.0 ave      118916 max       97073 min
Histogram: 2 4 1 4 7 13 11 4 4 2

Total # of neighbors = 5655342
Ave neighs/atom = 318.43142
Ave special neighs/atom = 0.0000000
Neighbor list builds = 158
Dangerous builds = 0
11760 atoms in group oxygen
PPPM initialization ...
  using 12-bit tables for long-range coulomb (../kspace.cpp:328)
  G vector (1/distance) = 0.29890367
  grid = 40 240 40
  stencil order = 5
  estimated absolute RMS force accuracy = 0.0001549514
  estimated relative force accuracy = 1.0760779e-05
  using single precision MKL FFT
  3d grid and FFT values/proc = 18225 7600
Neighbor list info ...
  update every 1 steps, delay 0 steps, check yes
  max neighbors/atom: 2000, page size: 100000
  master list distance cutoff = 13
  ghost atom cutoff = 13
  binsize = 6.5, bins = 5 52 5
  3 neighbor lists, perpetual/occasional/extra = 3 0 0
  (1) pair coul/long, perpetual
      attributes: half, newton on
      pair build: half/bin/newton
      stencil: half/bin/3d/newton
      bin: standard
  (2) pair eam/alloy, perpetual, skip from (1)
      attributes: half, newton on
      pair build: skip
      stencil: none
      bin: none
  (3) pair table, perpetual, skip from (1)
      attributes: half, newton on
      pair build: skip
      stencil: none
      bin: none
Setting up Verlet run ...
  Unit style    : metal
  Current step  : 0
  Time step     : 0.001
Per MPI rank memory allocation (min/avg/max) = 9.501 | 10.21 | 10.30 Mbytes
Step f_2 Temp v_Tdiff v_deltaT 
       0            0    298.50966            0            0 
  100000    355.86677    300.03117 0.0076300656    88.584353 
  200000    706.23995    298.57594 0.0079576854    92.387989 
  300000    1054.9089    297.20934 0.0080591593    93.566091 
  400000    1404.2257    299.21768 0.0080708285    93.701569 
  500000    1751.5177    299.46075 0.0082364506    95.624426 
  600000    2099.5285    298.90037 0.0078892248    91.593167 
  700000    2450.4392    298.46835 0.0081537794    94.664622 
  800000     2801.607    299.29959 0.0079246137    92.004029 
  900000    3151.6995    298.97118 0.0079036058     91.76013 
 1000000    3503.5654    300.60036 0.0079530469    92.334135 
Loop time of 6923.78 on 52 procs for 1000000 steps with 17760 atoms

Performance: 12.479 ns/day, 1.923 hours/ns, 144.430 timesteps/s
99.8% CPU use with 52 MPI tasks x 1 OpenMP threads

MPI task timing breakdown:
Section |  min time  |  avg time  |  max time  |%varavg| %total
---------------------------------------------------------------
Pair    | 4726.8     | 4935.1     | 5123       | 132.6 | 71.28
Bond    | 0.095635   | 0.15536    | 0.23978    |   8.1 |  0.00
Kspace  | 1544.5     | 1711.6     | 1893.6     | 198.3 | 24.72
Neigh   | 4.3257     | 4.7366     | 5.0744     |   7.8 |  0.07
Comm    | 209.36     | 225.9      | 253.46     |  77.8 |  3.26
Output  | 0.00093589 | 0.0010147  | 0.0023314  |   0.6 |  0.00
Modify  | 7.3467     | 9.2453     | 12.162     |  52.4 |  0.13
Other   |            | 37.03      |            |       |  0.53

Nlocal:        341.538 ave         364 max         325 min
Histogram: 3 3 11 11 8 7 3 2 1 3
Nghost:        5549.02 ave        5719 max        5365 min
Histogram: 19 1 0 0 4 4 0 4 0 20
Neighs:       108766.0 ave      117727 max       95707 min
Histogram: 1 2 0 5 4 14 14 6 2 4

Total # of neighbors = 5655851
Ave neighs/atom = 318.46008
Ave special neighs/atom = 0.0000000
Neighbor list builds = 1549
Dangerous builds = 0
Total wall time: 2:07:02
