ITEM: TIMESTEP
60000
ITEM: NUMBER OF ATOMS
17760
ITEM: BOX BOUNDS pp pp pp
-3.7693072475172795e-01 2.7716930724751919e+01
-4.5049646588098886e+00 3.3258496465880114e+02
-3.7034498685295536e-01 2.7710344986852832e+01
ITEM: ATOMS id type q x y z
1 2 2.2208 5.15213 1.09721 5.35144
2 1 -1.1104 0.978986 -3.10985 1.00417
3 1 -1.1104 1.02245 2.57333 1.13903
6 1 -1.1104 0.91391 -3.3044 3.80544
7 1 -1.1104 1.04293 2.44499 3.86171
10 1 -1.1104 1.02477 -0.316865 1.30495
12 2 2.2208 5.08041 -1.83544 2.51329
13 2 2.2208 5.22881 3.93339 2.32938
14 1 -1.1104 0.9792 -0.454797 4.12254
16 1 -1.1104 3.68119 -3.29141 1.07245
17 1 -1.1104 3.80065 2.47163 1.08989
18 2 2.2208 2.50255 1.06312 2.5051
19 1 -1.1104 3.79172 -3.18031 3.8375
20 1 -1.1104 3.81488 2.48562 3.88821
21 2 2.2208 2.4302 -1.69791 5.32066
23 1 -1.1104 4.06165 -0.291345 1.19702
24 1 -1.1104 3.71189 -0.449389 3.93149
22 2 2.2208 2.40178 3.88509 5.18897
8 1 -1.1104 6.54329 -3.17703 3.93924
172 1 -1.1104 3.75908 -3.06888 6.60389
9 1 -1.1104 6.48428 2.50853 3.70345
203 2 2.2208 13.8106 3.96591 10.8037
83 2 2.2208 -0.368038 12.3063 5.20162
5 1 -1.1104 6.65792 2.448 0.922144
11 1 -1.1104 6.73615 -0.428493 1.07329
53 2 2.2208 13.7344 12.3801 7.8757
9027 2 2.2208 13.5973 -4.48905 2.28635
166 1 -1.1104 0.83038 -3.04309 6.73677
170 1 -1.1104 1.17882 -0.279077 6.81081
174 1 -1.1104 3.85897 -0.265072 6.77397
173 1 -1.1104 3.79391 2.55895 6.6825
9023 2 2.2208 5.30639 -4.53723 5.37083
137 2 2.2208 -0.451384 18.0243 5.21474
9032 2 2.2208 10.841 -4.49571 10.8361
9029 2 2.2208 5.26603 -4.55619 10.7902
4 1 -1.1104 6.46666 -3.19681 1.07366
15 1 -1.1104 6.55579 -0.393253 3.84578
31 2 2.2208 10.8357 1.07814 5.26226
32 1 -1.1104 12.2582 -3.05735 0.936659
33 1 -1.1104 12.1003 2.46393 1.08715
34 1 -1.1104 12.1712 -3.14728 3.90434
35 1 -1.1104 12.1994 2.45233 3.79045
36 1 -1.1104 12.272 -0.470681 0.889964
37 2 2.2208 10.8617 -1.70074 2.38474
38 2 2.2208 10.7771 3.83675 2.46861
39 1 -1.1104 12.0599 -0.44484 3.90204
40 1 -1.1104 9.46068 -3.08898 0.976588
41 1 -1.1104 9.39687 2.42375 1.08534
42 2 2.2208 7.93986 0.955211 2.39
43 1 -1.1104 9.39174 -3.07993 3.72407
44 1 -1.1104 9.28567 2.58053 3.84384
45 2 2.2208 7.98297 -1.5969 5.18314
46 2 2.2208 8.05285 3.98717 5.25446
47 1 -1.1104 9.44969 -0.247548 0.954391
48 1 -1.1104 9.44186 -0.360597 3.78027
231 2 2.2208 13.6079 20.5965 5.30903
207 1 -1.1104 12.2479 -0.456359 6.80076
27 2 2.2208 -0.335085 3.9118 2.52906
169 1 -1.1104 6.59939 2.58021 6.61687
209 1 -1.1104 9.48642 2.59771 6.6467
206 1 -1.1104 12.2254 2.42803 6.51793
205 1 -1.1104 12.0752 -3.08222 6.68296
326 1 -1.1104 12.2037 16.5552 12.22
26 2 2.2208 -0.433328 1.0523 5.28845
356 2 2.2208 8.03539 12.2488 13.7115
54 2 2.2208 5.23365 6.73475 5.19226
55 2 2.2208 5.19704 12.4479 5.28155
56 1 -1.1104 1.00219 7.95484 1.07211
58 1 -1.1104 0.98432 8.08306 3.78528
60 1 -1.1104 1.16815 5.24653 1.10631
61 1 -1.1104 0.974122 10.8131 0.972309
66 2 2.2208 5.2943 9.53331 2.42151
67 1 -1.1104 1.19551 5.21298 3.7542
68 1 -1.1104 1.16422 11.0546 3.94385
71 1 -1.1104 3.92276 8.1484 1.07475
72 2 2.2208 2.50411 6.74597 2.44794
73 2 2.2208 2.45367 12.3863 2.39818
74 1 -1.1104 3.79229 8.17571 3.86295
75 2 2.2208 2.3838 9.52197 5.2222
76 1 -1.1104 3.85805 5.26599 0.817519
77 1 -1.1104 3.89299 10.9243 1.08899
79 1 -1.1104 3.94084 5.35891 3.69983
80 1 -1.1104 3.95167 10.9162 3.88262
57 1 -1.1104 6.76831 8.10582 1.0605
69 1 -1.1104 6.66399 5.35049 3.80845
64 1 -1.1104 6.52677 10.8431 1.07914
63 1 -1.1104 6.73538 5.36151 0.942874
70 1 -1.1104 6.60715 10.9814 3.82136
165 2 2.2208 13.6024 17.867 2.44414
238 1 -1.1104 3.79744 8.02303 6.64862
78 1 -1.1104 3.80779 10.977 6.63845
62 1 -1.1104 0.967655 10.8224 6.60911
237 1 -1.1104 6.56157 5.38808 6.59291
330 1 -1.1104 12.2281 13.6763 12.1343
81 2 2.2208 -0.367798 6.66918 5.15393
318 1 -1.1104 9.35262 19.2589 9.44843
357 2 2.2208 2.45897 17.9557 13.5896
59 1 -1.1104 6.6598 8.20207 3.67465
84 2 2.2208 10.8975 6.68073 5.25474
85 2 2.2208 10.8477 12.3441 5.15392
86 1 -1.1104 12.2825 7.99948 1.04263
87 1 -1.1104 12.4847 8.18512 3.82229
88 1 -1.1104 12.3161 5.29359 0.866951
89 1 -1.1104 12.2432 10.8042 0.851841
91 2 2.2208 10.9297 9.52181 2.42097
92 1 -1.1104 12.2366 5.37793 3.73978
93 1 -1.1104 12.3475 10.8208 3.75411
94 1 -1.1104 9.50639 8.07312 0.875406
95 2 2.2208 8.09977 6.76536 2.41392
96 2 2.2208 7.96787 12.2976 2.45355
97 1 -1.1104 9.54505 7.93858 3.83312
98 2 2.2208 8.0752 9.48643 5.151
99 1 -1.1104 9.53043 5.20847 1.07507
100 1 -1.1104 9.35967 10.8487 0.887102
102 1 -1.1104 9.48245 5.28499 3.88236
103 1 -1.1104 9.4821 10.9013 3.76183
90 1 -1.1104 12.2964 10.8444 6.48891
65 1 -1.1104 6.61605 10.9276 6.52523
267 1 -1.1104 9.45869 8.18715 6.49059
265 1 -1.1104 12.1938 8.02692 6.5853
269 1 -1.1104 9.43681 5.37189 6.75561
316 2 2.2208 8.11004 20.6067 10.8964
331 2 2.2208 10.8187 17.8232 10.8156
343 2 2.2208 8.08158 1.01285 13.6158
319 1 -1.1104 9.52512 13.6609 9.25147
106 2 2.2208 5.24353 18.0185 5.25827
107 1 -1.1104 1.02203 13.619 1.15026
109 1 -1.1104 1.03278 19.3441 0.8917
113 1 -1.1104 1.10239 13.8276 3.89374
114 1 -1.1104 1.13991 19.4106 3.83391
116 1 -1.1104 1.10148 16.5566 0.911806
119 2 2.2208 5.16983 15.2372 2.33659
120 2 2.2208 5.36704 20.7517 2.45649
121 1 -1.1104 1.05757 16.5153 3.82397
123 1 -1.1104 3.81975 13.7474 1.22995
125 1 -1.1104 3.7985 19.3706 1.00168
127 2 2.2208 2.45719 17.9009 2.36342
128 1 -1.1104 3.9777 13.8575 4.01373
129 1 -1.1104 3.89603 19.3823 3.84662
130 2 2.2208 2.49278 15.2477 5.33607
131 2 2.2208 2.45452 20.7574 5.18489
132 1 -1.1104 3.90586 16.5302 0.872636
134 1 -1.1104 3.79435 16.4553 3.79224
126 1 -1.1104 3.88068 19.4638 6.6837
140 1 -1.1104 6.59363 16.6007 0.980221
139 1 -1.1104 6.5306 19.3093 3.89905
122 1 -1.1104 6.53212 16.6004 3.70576
118 1 -1.1104 6.6294 16.5465 6.54722
329 1 -1.1104 12.3109 19.3391 12.3545
232 2 2.2208 13.8018 9.39053 5.18368
302 1 -1.1104 0.977507 19.2598 6.5654
133 1 -1.1104 3.83119 16.6867 6.6529
124 1 -1.1104 3.88726 13.8917 6.68286
108 1 -1.1104 1.02913 13.6292 6.7702
115 1 -1.1104 6.69321 13.8686 3.6852
138 1 -1.1104 6.70861 19.3337 0.999782
110 1 -1.1104 6.69667 13.7455 1.01868
141 2 2.2208 10.7095 17.8961 5.22786
142 1 -1.1104 12.2514 13.6114 0.842131
144 1 -1.1104 12.2212 19.3045 1.27822
146 1 -1.1104 12.3265 13.6503 3.57615
147 1 -1.1104 12.1278 19.2403 3.98058
148 1 -1.1104 12.2546 16.4015 0.972254
150 2 2.2208 10.8401 15.0937 2.23259
151 2 2.2208 10.8637 20.6281 2.50486
152 1 -1.1104 12.1619 16.4898 3.82332
153 1 -1.1104 9.49552 13.773 0.839403
155 1 -1.1104 9.40263 19.2883 0.909461
157 2 2.2208 7.96103 17.8476 2.42538
158 1 -1.1104 9.55176 13.5047 3.6484
159 1 -1.1104 9.42376 19.2284 3.73547
160 2 2.2208 7.99439 15.2242 5.00905
161 2 2.2208 7.89236 20.749 5.39407
162 1 -1.1104 9.49031 16.4977 0.902664
164 1 -1.1104 9.36803 16.4151 3.64654
154 1 -1.1104 9.54748 13.8361 6.54171
149 1 -1.1104 12.1211 16.4813 6.5784
143 1 -1.1104 12.3362 13.7494 6.44283
156 1 -1.1104 9.44122 19.3338 6.6694
145 1 -1.1104 12.321 19.1889 6.7539
163 1 -1.1104 9.32086 16.5812 6.35686
50 2 2.2208 13.561 -1.80479 5.21388
314 1 -1.1104 9.45048 16.5635 9.32563
324 2 2.2208 10.6972 20.7281 8.06514
167 1 -1.1104 0.91383 2.50233 6.4879
175 2 2.2208 5.22507 1.09175 10.9666
176 1 -1.1104 1.00286 -3.08937 12.3107
177 1 -1.1104 0.882745 2.54765 12.2907
180 1 -1.1104 1.05025 -3.08007 9.43536
181 1 -1.1104 1.07779 2.3784 9.55134
184 1 -1.1104 1.02719 -0.339518 12.1277
186 2 2.2208 5.28773 -1.71824 8.06379
187 2 2.2208 5.2685 3.97069 8.09193
188 1 -1.1104 0.825305 -0.279139 9.58746
190 1 -1.1104 3.80981 -3.3309 12.3564
191 1 -1.1104 3.80926 2.3385 12.2766
192 2 2.2208 2.41177 1.08108 8.15587
193 1 -1.1104 3.94866 -3.01745 9.53442
194 1 -1.1104 3.86702 2.59966 9.41054
195 2 2.2208 2.38011 -1.77323 10.8205
196 2 2.2208 2.41946 3.86034 11.0227
197 1 -1.1104 3.79006 -0.420136 12.4123
198 1 -1.1104 3.70742 -0.238826 9.48424
178 1 -1.1104 6.63271 -3.13089 12.2151
189 1 -1.1104 6.39554 -0.290479 9.54247
168 1 -1.1104 6.48724 -3.04417 6.75929
336 2 2.2208 13.7058 6.78942 13.558
346 2 2.2208 10.7568 -1.63551 13.5694
355 2 2.2208 10.8717 9.53606 13.6006
229 2 2.2208 13.5958 1.14706 7.9425
332 2 2.2208 13.6681 17.9469 8.07841
183 1 -1.1104 6.68249 2.62415 9.44497
171 1 -1.1104 6.57909 -0.166792 6.75748
185 1 -1.1104 6.64274 -0.364941 12.3263
179 1 -1.1104 6.71539 2.48 12.2138
182 1 -1.1104 6.73582 -3.07014 9.50619
208 1 -1.1104 9.22778 -3.00554 6.53016
210 1 -1.1104 9.26017 -0.20059 6.61384
211 2 2.2208 10.9022 1.23223 10.6941
212 1 -1.1104 12.2978 -2.98012 12.166
213 1 -1.1104 12.2236 2.69679 12.1395
214 1 -1.1104 12.1383 -3.08593 9.42055
215 1 -1.1104 12.2335 2.48439 9.29602
216 1 -1.1104 12.2106 -0.0893743 12.1038
217 2 2.2208 10.8242 -1.61408 8.0641
218 2 2.2208 10.8954 4.06312 8.10649
219 1 -1.1104 12.1552 -0.184976 9.41457
220 1 -1.1104 9.48081 -2.98477 12.1004
221 1 -1.1104 9.47196 2.59425 12.3226
222 2 2.2208 8.02647 1.27141 7.9718
223 1 -1.1104 9.50684 -3.12996 9.38417
224 1 -1.1104 9.43362 2.60131 9.56064
225 2 2.2208 8.0382 -1.62457 10.8903
227 1 -1.1104 9.47789 -0.182986 12.2579
228 1 -1.1104 9.36483 -0.194639 9.42182
226 2 2.2208 7.97002 3.97233 10.8878
105 2 2.2208 13.7588 6.74051 2.24794
317 2 2.2208 8.05856 14.9953 10.815
321 1 -1.1104 9.52852 19.3245 12.1698
328 1 -1.1104 12.3211 13.6189 9.22259
204 2 2.2208 13.838 15.1137 5.08153
236 1 -1.1104 0.950287 5.26685 6.63702
327 1 -1.1104 12.2664 19.1594 9.44103
239 1 -1.1104 3.71887 5.32837 6.64522
234 1 -1.1104 0.991606 8.05612 6.55876
240 2 2.2208 5.22126 6.7767 10.6958
241 2 2.2208 5.21446 12.2212 10.8879
242 1 -1.1104 1.07995 8.05295 12.1893
244 1 -1.1104 1.10698 8.23235 9.26517
246 1 -1.1104 1.17114 5.25476 12.4231
247 1 -1.1104 0.945949 10.7331 12.2463
250 2 2.2208 5.29753 9.51689 7.92082
251 1 -1.1104 0.995865 5.25844 9.56129
252 1 -1.1104 1.05281 10.9812 9.44523
255 1 -1.1104 3.86251 8.00988 12.1192
256 2 2.2208 2.37043 6.6596 8.06117
257 2 2.2208 2.43018 12.3217 7.95765
258 1 -1.1104 3.8382 8.07985 9.38654
259 2 2.2208 2.46313 9.50653 10.7496
260 1 -1.1104 3.78269 5.1588 12.4883
261 1 -1.1104 3.71161 10.9482 12.2477
262 1 -1.1104 3.7276 5.38296 9.55411
263 1 -1.1104 3.84726 10.8469 9.4863
253 1 -1.1104 6.56885 5.43837 9.3734
249 1 -1.1104 6.60902 10.8488 12.1769
254 1 -1.1104 6.5822 10.9436 9.44691
245 1 -1.1104 6.70757 8.16332 9.38708
243 1 -1.1104 6.57632 8.05796 12.0209
235 1 -1.1104 6.65153 8.13883 6.62196
248 1 -1.1104 6.62763 5.31618 12.1569
325 2 2.2208 10.9121 15.0684 7.91592
315 1 -1.1104 9.55976 16.4332 12.1797
101 1 -1.1104 9.35919 10.9874 6.41882
266 1 -1.1104 12.3171 5.19025 6.61726
264 1 -1.1104 9.35949 10.986 9.22652
268 1 -1.1104 9.36283 5.48378 9.4708
270 1 -1.1104 9.51364 10.7969 12.0071
271 1 -1.1104 9.45089 5.28659 12.2127
272 2 2.2208 7.99557 9.47821 10.7842
273 1 -1.1104 9.51108 8.18808 9.23495
274 2 2.2208 7.89743 12.2895 7.85415
275 2 2.2208 8.01493 6.76627 8.01742
276 2 2.2208 10.8871 6.72934 10.8226
277 2 2.2208 10.7254 12.3217 10.6851
278 1 -1.1104 12.2383 8.16376 12.2599
279 1 -1.1104 12.4042 8.09625 9.35215
280 1 -1.1104 12.3719 5.25224 12.1127
281 1 -1.1104 12.182 10.7982 12.0623
282 2 2.2208 10.8554 9.57174 7.9775
283 1 -1.1104 12.324 5.34678 9.40388
284 1 -1.1104 12.2945 10.8903 9.23863
285 1 -1.1104 9.32398 8.04972 12.075
323 1 -1.1104 12.3223 16.4307 9.50958
320 2 2.2208 8.0062 17.865 8.01725
322 1 -1.1104 9.38469 13.625 12.2843
290 1 -1.1104 6.60973 13.684 9.49524
112 1 -1.1104 6.64815 19.4169 6.74024
111 1 -1.1104 6.63918 13.7894 6.54787
297 1 -1.1104 6.63368 13.6082 12.219
288 1 -1.1104 6.63981 19.3299 9.46567
289 1 -1.1104 6.68955 16.386 9.55193
296 1 -1.1104 6.57605 19.285 12.2761
117 1 -1.1104 0.940305 16.5806 6.56703
303 2 2.2208 2.46473 17.8999 7.92524
298 1 -1.1104 0.9718 19.3585 12.1532
305 1 -1.1104 3.76724 13.5666 9.45378
304 1 -1.1104 3.75089 16.4368 9.43776
301 1 -1.1104 3.81403 19.1342 9.46191
295 2 2.2208 5.31881 15.1149 8.09381
310 2 2.2208 2.40551 15.0532 10.8557
309 2 2.2208 2.49802 20.6847 10.8686
308 1 -1.1104 3.70364 16.4745 12.2364
307 1 -1.1104 1.01184 16.5947 12.1909
300 2 2.2208 5.17743 17.7998 10.9859
299 1 -1.1104 0.880606 13.6747 12.1413
294 1 -1.1104 1.02174 13.5996 9.51142
286 1 -1.1104 3.85472 19.3027 12.234
287 1 -1.1104 3.75265 13.7258 12.1621
291 1 -1.1104 1.06872 19.1689 9.35314
292 1 -1.1104 1.03138 16.3981 9.37016
293 2 2.2208 5.18006 20.7171 8.15504
306 1 -1.1104 6.59867 16.4559 12.1494
352 2 2.2208 5.09489 9.4207 13.5843
9049 2 2.2208 2.43131 -4.57464 13.6797
350 2 2.2208 10.8739 3.92599 13.6552
9045 2 2.2208 8.07162 -4.62692 13.6521
383 2 2.2208 -0.323346 6.63971 -0.386738
359 2 2.2208 5.2023 15.0654 13.7055
338 2 2.2208 5.23648 -1.78932 13.6393
370 2 2.2208 8.11354 -1.81264 -0.516997
364 2 2.2208 5.14248 1.11581 -0.440895
341 2 2.2208 5.16113 3.77717 13.7245
372 2 2.2208 8.01099 3.8426 -0.35496
365 2 2.2208 2.29541 -1.76073 -0.338618
340 2 2.2208 13.7269 1.15698 13.4978
371 2 2.2208 -0.411163 18.0243 -0.558837
379 2 2.2208 5.14613 6.76118 -0.506459
388 2 2.2208 5.29687 0.973627 16.4998
389 1 -1.1104 1.06845 -3.13687 17.9633
390 1 -1.1104 0.981312 2.59182 18.0462
393 1 -1.1104 0.98213 -3.12129 15.1021
395 1 -1.1104 1.01727 2.27214 15.2163
401 1 -1.1104 0.962786 -0.180479 17.8553
403 2 2.2208 5.19215 -1.68104 19.3435
404 2 2.2208 5.25466 3.79384 19.3229
405 1 -1.1104 0.989174 -0.321115 15.0378
409 1 -1.1104 3.85815 -3.02967 17.9009
410 1 -1.1104 3.87386 2.51294 17.99
411 2 2.2208 2.30187 1.00885 19.3512
412 1 -1.1104 3.76389 -3.08819 15.0494
414 1 -1.1104 3.82847 2.48076 15.1222
416 2 2.2208 2.38034 -1.71511 16.4399
418 1 -1.1104 3.7408 -0.275766 17.9896
419 1 -1.1104 3.8282 -0.324071 15.0725
417 2 2.2208 2.40602 3.7318 16.6441
402 1 -1.1104 6.70253 -0.411549 17.8779
397 1 -1.1104 6.51388 -3.11047 14.9798
391 1 -1.1104 6.62645 -2.99475 17.8998
9187 2 2.2208 2.49103 -4.61571 19.329
426 2 2.2208 13.6975 9.58696 16.5663
367 2 2.2208 -0.539498 9.41882 13.5909
394 1 -1.1104 1.0779 -3.16994 20.7792
400 1 -1.1104 6.59235 2.57787 20.6153
618 2 2.2208 13.5616 17.9834 19.2482
385 2 2.2208 8.13807 9.47897 27.6674
589 1 -1.1104 9.4674 13.6392 26.1592
380 2 2.2208 2.38456 9.52311 27.7536
424 2 2.2208 -0.472343 1.09952 16.7208
399 1 -1.1104 6.60887 2.51306 14.9353
392 1 -1.1104 6.6267 2.37974 17.7599
407 1 -1.1104 6.77322 -0.344766 15.0282
431 2 2.2208 10.8085 1.1033 16.4161
432 1 -1.1104 12.2311 -3.17342 17.9383
433 1 -1.1104 12.2678 2.64181 17.844
434 1 -1.1104 12.0846 -3.07078 14.9785
436 1 -1.1104 12.2349 2.50388 14.9689
438 1 -1.1104 12.2253 -0.476143 17.762
439 2 2.2208 10.8365 -1.76901 19.2703
440 2 2.2208 10.8312 3.83118 19.1555
441 1 -1.1104 12.3506 -0.282334 14.8931
443 1 -1.1104 9.43675 -3.01953 17.833
444 1 -1.1104 9.39112 2.53988 17.676
445 2 2.2208 8.05149 1.09419 19.314
446 1 -1.1104 9.39556 -3.11861 15.0134
448 1 -1.1104 9.38334 2.45278 15.0564
450 2 2.2208 8.01635 -1.80722 16.5455
451 2 2.2208 7.96348 3.83354 16.3873
452 1 -1.1104 9.31919 -0.303504 17.9831
453 1 -1.1104 9.60446 -0.317541 15.1294
442 1 -1.1104 12.191 -0.178568 20.5126
710 2 2.2208 13.7108 6.5896 24.8884
654 2 2.2208 13.6869 1.06979 24.8835
437 1 -1.1104 12.0675 2.45171 20.514
447 1 -1.1104 9.53134 -3.20428 20.7107
435 1 -1.1104 12.328 -3.01136 20.6221
646 2 2.2208 -0.495868 15.1426 24.8383
464 2 2.2208 5.20174 6.70398 16.5374
465 2 2.2208 5.15139 12.2141 16.4792
466 1 -1.1104 1.08959 8.23396 17.8958
468 1 -1.1104 0.85483 7.90049 15.0072
472 1 -1.1104 0.909852 5.26785 18.0383
473 1 -1.1104 0.962682 10.8659 17.8459
476 2 2.2208 5.22028 9.43158 19.2768
477 1 -1.1104 1.04503 5.21931 15.2334
479 1 -1.1104 1.00756 10.8825 15.0303
485 1 -1.1104 3.98554 8.21532 17.8303
486 2 2.2208 2.32419 6.67569 19.2282
487 2 2.2208 2.29124 12.3057 19.1447
488 1 -1.1104 3.67448 8.01996 15.0324
490 2 2.2208 2.27342 9.42664 16.3365
491 1 -1.1104 3.92907 5.28917 17.8883
492 1 -1.1104 3.76 11.0276 17.8682
493 1 -1.1104 3.7676 5.08313 15.2531
495 1 -1.1104 3.82866 10.8417 15.011
481 1 -1.1104 6.47993 5.42749 15.019
470 1 -1.1104 6.59654 8.06701 14.9611
467 1 -1.1104 6.64161 8.06448 17.9691
469 1 -1.1104 0.949523 8.092 20.7453
494 1 -1.1104 3.80977 5.23966 20.7701
496 1 -1.1104 3.67793 10.8288 20.6143
478 1 -1.1104 1.13469 5.35593 20.6914
489 1 -1.1104 3.74056 7.98292 20.7277
381 2 2.2208 5.23097 12.3405 27.6674
457 2 2.2208 -0.447588 15.049 19.3684
616 2 2.2208 7.88483 20.6882 22.0914
483 1 -1.1104 6.74414 10.961 15.1001
475 1 -1.1104 6.53389 10.8418 17.9009
474 1 -1.1104 6.73089 5.22606 17.8972
377 2 2.2208 13.5934 -1.69519 27.6424
500 2 2.2208 10.7586 6.75421 16.4159
501 2 2.2208 10.8473 12.2041 16.482
502 1 -1.1104 12.0724 8.15921 17.8659
503 1 -1.1104 12.2859 8.21038 15.1877
505 1 -1.1104 12.3319 5.43926 17.8014
506 1 -1.1104 12.1776 10.8606 17.9641
507 2 2.2208 10.7747 9.45134 19.2754
508 1 -1.1104 12.2302 5.38033 14.9453
510 1 -1.1104 12.3337 11.1375 15.1802
512 1 -1.1104 9.32934 8.16811 17.6204
513 2 2.2208 8.04535 6.64992 19.2584
514 2 2.2208 8.05241 12.2701 19.193
515 1 -1.1104 9.53131 8.06627 14.9383
517 2 2.2208 7.9551 9.34802 16.3462
518 1 -1.1104 9.52562 5.2786 17.8317
519 1 -1.1104 9.39818 11.0561 17.8317
520 1 -1.1104 9.35828 5.23221 14.8833
522 1 -1.1104 9.48678 10.8778 14.9037
482 1 -1.1104 6.6578 5.29054 20.6814
484 1 -1.1104 6.55737 10.8973 20.6626
471 1 -1.1104 6.55021 8.02602 20.5114
504 1 -1.1104 12.2455 8.1306 20.6468
462 2 2.2208 10.7033 17.9117 22.037
374 2 2.2208 5.21446 17.9232 27.6015
587 2 2.2208 7.92848 18.015 24.9938
527 2 2.2208 5.29742 17.9496 16.4762
528 1 -1.1104 1.09021 13.6562 17.7386
529 1 -1.1104 1.10805 19.2634 17.6338
532 1 -1.1104 0.994107 13.5502 14.9994
534 1 -1.1104 1.15312 19.3416 14.9902
540 1 -1.1104 1.0834 16.5042 17.8794
542 2 2.2208 5.29093 15.1726 19.314
543 2 2.2208 5.18503 20.7145 19.237
544 1 -1.1104 1.04466 16.424 14.9245
548 1 -1.1104 3.94501 13.7126 17.7355
549 1 -1.1104 3.9286 19.2706 17.7306
550 2 2.2208 2.41279 17.9084 18.9253
551 1 -1.1104 3.76634 13.5054 14.8909
553 1 -1.1104 3.85383 19.2816 15.0231
555 2 2.2208 2.39572 15.0802 16.4359
556 2 2.2208 2.47185 20.7257 16.3909
557 1 -1.1104 4.01453 16.683 17.919
558 1 -1.1104 3.97418 16.3893 15.0682
531 1 -1.1104 6.69877 19.4624 17.8259
536 1 -1.1104 6.71028 13.7718 14.9345
538 1 -1.1104 6.78887 19.2078 15.1954
546 1 -1.1104 6.66823 16.5756 14.8883
552 1 -1.1104 3.68393 13.7193 20.5281
535 1 -1.1104 0.984875 19.21 20.4056
645 2 2.2208 -0.358303 20.8009 24.9353
386 2 2.2208 10.8223 12.1787 27.5316
653 2 2.2208 13.6505 -1.63066 21.9745
530 1 -1.1104 6.62618 13.7943 17.8231
541 1 -1.1104 6.74185 16.6023 17.8785
563 2 2.2208 10.874 17.9386 16.4967
564 1 -1.1104 12.1652 13.644 18.0516
565 1 -1.1104 12.2403 19.4094 17.929
566 1 -1.1104 12.2503 13.7787 14.9045
568 1 -1.1104 12.2456 19.2047 15.1887
570 1 -1.1104 12.1975 16.4094 17.8569
571 2 2.2208 10.8496 15.1389 19.3263
572 2 2.2208 10.8236 20.8928 19.2177
573 1 -1.1104 12.2942 16.5226 15.0566
575 1 -1.1104 9.49318 13.7074 17.9341
576 1 -1.1104 9.61366 19.3413 17.9426
577 2 2.2208 8.12142 18.0188 19.1582
578 1 -1.1104 9.53744 13.6458 15.1912
580 1 -1.1104 9.57425 19.1593 14.9494
582 2 2.2208 7.97612 15.1301 16.3694
583 2 2.2208 8.07861 20.658 16.3874
584 1 -1.1104 9.39173 16.5293 17.6671
585 1 -1.1104 9.39538 16.4818 14.8578
581 1 -1.1104 9.3758 19.4676 20.8106
574 1 -1.1104 12.2353 16.5386 20.6858
569 1 -1.1104 12.0371 19.2848 20.5087
547 1 -1.1104 6.62379 16.5285 20.6155
586 1 -1.1104 9.52708 16.673 20.5311
567 1 -1.1104 12.2242 13.6773 20.7803
423 2 2.2208 13.5896 3.8746 21.8981
650 2 2.2208 13.6052 12.3003 19.3195
709 1 -1.1104 6.65803 13.6943 23.374
420 1 -1.1104 3.88221 -0.312763 20.7488
422 2 2.2208 13.664 9.34354 22.0354
620 1 -1.1104 9.54315 16.3884 26.2754
396 1 -1.1104 0.880615 2.45937 20.8133
415 1 -1.1104 3.84358 2.53859 20.6733
413 1 -1.1104 3.7165 -3.06394 20.6639
406 1 -1.1104 0.996327 -0.435508 20.6924
591 2 2.2208 5.11586 1.26179 22.0574
592 1 -1.1104 0.985916 -3.09603 23.5808
593 1 -1.1104 1.07449 2.42938 23.498
596 1 -1.1104 0.782149 -3.10037 26.3587
597 1 -1.1104 0.789771 2.39174 26.4057
600 1 -1.1104 0.97891 -0.269276 23.6083
602 2 2.2208 5.21678 -1.7415 24.8726
604 1 -1.1104 0.933598 -0.357323 26.5004
606 1 -1.1104 3.73971 -3.08093 23.4901
607 1 -1.1104 3.86177 2.55374 23.472
608 2 2.2208 2.38272 1.13686 24.9592
609 1 -1.1104 3.80772 -3.11392 26.1793
610 1 -1.1104 3.71378 2.50121 26.2827
611 2 2.2208 2.41941 -1.72223 22.1415
612 2 2.2208 2.33701 3.96249 22.09
613 1 -1.1104 3.801 -0.343244 23.4493
614 1 -1.1104 3.62156 -0.311883 26.4752
603 2 2.2208 5.24985 3.91125 24.8528
408 1 -1.1104 6.62313 -0.275232 20.7234
594 1 -1.1104 6.66017 -3.19732 23.3819
599 1 -1.1104 6.52025 2.32968 26.1608
579 1 -1.1104 9.33571 13.726 20.6911
525 2 2.2208 10.7696 15.1057 24.7839
463 1 -1.1104 12.1029 13.7253 23.3919
590 1 -1.1104 9.28347 19.285 26.3249
454 1 -1.1104 9.52054 -0.352352 20.7184
708 2 2.2208 13.6635 12.2728 24.7082
714 1 -1.1104 6.76111 16.7203 26.3949
595 1 -1.1104 6.66744 2.56697 23.4141
449 1 -1.1104 9.3784 2.58431 20.5457
398 1 -1.1104 6.63212 -3.10662 20.5851
605 1 -1.1104 6.66073 -0.293821 26.1997
601 1 -1.1104 6.56355 -0.45394 23.5204
598 1 -1.1104 6.6088 -3.06187 26.332
627 2 2.2208 10.7726 1.03482 22.0278
628 1 -1.1104 12.3742 -3.03483 23.5548
629 1 -1.1104 12.2964 2.43934 23.4332
630 1 -1.1104 12.1673 -3.15996 26.2562
631 1 -1.1104 12.029 2.33074 26.2909
632 1 -1.1104 12.1157 -0.332865 23.4433
633 2 2.2208 10.8789 -1.70141 24.8078
634 2 2.2208 10.7945 3.7262 24.8689
635 1 -1.1104 12.2968 -0.219527 26.216
636 1 -1.1104 9.36268 -2.97173 23.5269
637 1 -1.1104 9.39249 2.38323 23.4192
638 2 2.2208 7.94396 0.979305 24.8788
639 1 -1.1104 9.49165 -3.08418 26.2349
640 1 -1.1104 9.37144 2.45858 26.21
641 2 2.2208 7.97056 -1.70151 22.1257
642 2 2.2208 8.02662 3.82692 22.0756
643 1 -1.1104 9.35501 -0.253126 23.3536
644 1 -1.1104 9.36815 -0.305149 26.1711
429 2 2.2208 13.6192 3.97858 16.3977
497 1 -1.1104 12.1525 19.3076 23.3749
480 1 -1.1104 0.9128 10.8795 20.6295
561 1 -1.1104 9.4223 13.7 23.5013
656 2 2.2208 5.12028 6.53764 22.0033
657 2 2.2208 5.15654 12.2478 21.9327
658 1 -1.1104 1.09762 8.18485 23.6412
660 1 -1.1104 1.06654 8.05685 26.4201
662 1 -1.1104 1.02154 5.34349 23.56
663 1 -1.1104 1.15259 11.0345 23.4095
666 2 2.2208 5.27917 9.38092 24.8951
667 1 -1.1104 0.842246 5.19239 26.3462
668 1 -1.1104 1.00303 10.9624 26.2729
671 1 -1.1104 3.84145 7.99461 23.4922
672 2 2.2208 2.37883 6.6229 24.918
673 2 2.2208 2.55694 12.4391 24.8755
674 1 -1.1104 3.8237 8.08033 26.3172
675 2 2.2208 2.53018 9.38089 22.1167
676 1 -1.1104 3.78819 5.20178 23.4563
677 1 -1.1104 3.86194 10.7868 23.563
678 1 -1.1104 3.79209 5.33025 26.1988
679 1 -1.1104 3.75402 10.968 26.4649
664 1 -1.1104 6.476 5.17747 23.3526
539 1 -1.1104 6.50994 19.3547 20.8193
460 2 2.2208 13.7535 20.7536 16.4716
498 1 -1.1104 12.2763 13.722 26.2505
712 1 -1.1104 6.64289 13.8957 26.1783
562 1 -1.1104 9.40165 19.3875 23.5633
619 2 2.2208 13.5212 15.0209 16.3944
661 1 -1.1104 6.69741 8.0486 26.266
670 1 -1.1104 6.56354 10.8888 26.2914
665 1 -1.1104 6.66333 11.0157 23.5087
659 1 -1.1104 6.67024 8.08737 23.4886
521 1 -1.1104 9.52721 5.25478 20.7456
516 1 -1.1104 9.43225 8.03906 20.5651
511 1 -1.1104 12.111 10.7919 20.631
509 1 -1.1104 12.3458 5.37215 20.6664
669 1 -1.1104 6.64451 5.30871 26.2037
523 1 -1.1104 9.35791 10.7612 20.6429
687 1 -1.1104 9.39149 10.8205 26.1727
688 1 -1.1104 9.35732 5.26736 26.3643
689 1 -1.1104 9.47101 10.6749 23.5289
690 1 -1.1104 9.32788 5.10822 23.5301
691 2 2.2208 8.06807 9.33931 22.0671
692 1 -1.1104 9.62073 8.06355 26.3112
693 2 2.2208 8.0306 12.1315 24.7942
694 2 2.2208 8.00245 6.58671 24.7527
695 2 2.2208 10.8614 6.5505 22.0259
696 2 2.2208 10.741 12.2697 22.0448
697 1 -1.1104 12.287 7.94896 23.5003
698 1 -1.1104 12.4324 7.9773 26.2899
699 1 -1.1104 12.0896 5.14161 23.4514
700 1 -1.1104 12.2362 10.934 23.4377
701 2 2.2208 10.936 9.29637 24.8072
702 1 -1.1104 12.1766 5.14323 26.0406
703 1 -1.1104 12.2388 10.775 26.2391
704 1 -1.1104 9.51898 8.02292 23.3507
499 1 -1.1104 12.1277 19.4231 26.3676
615 2 2.2208 7.99172 15.01 21.9557
524 1 -1.1104 12.232 16.501 23.4148
554 1 -1.1104 3.75615 19.408 20.4987
537 1 -1.1104 6.52164 13.7422 20.5918
560 1 -1.1104 12.2094 16.4859 26.2401
718 1 -1.1104 6.54717 19.3649 23.4621
588 1 -1.1104 6.59978 19.452 26.3216
680 1 -1.1104 6.61188 16.5257 23.5755
533 1 -1.1104 0.851653 13.6875 20.6625
545 1 -1.1104 0.842058 16.4895 20.6067
559 1 -1.1104 3.69434 16.501 20.8187
647 2 2.2208 2.285 15.1788 22.0358
649 2 2.2208 2.37408 20.6603 21.8825
652 1 -1.1104 3.90222 16.5166 23.5508
655 1 -1.1104 0.878243 16.4832 23.4433
681 1 -1.1104 3.8286 13.8252 26.3328
682 1 -1.1104 3.79057 16.4975 26.2955
683 2 2.2208 2.32553 17.9095 24.6989
686 1 -1.1104 3.82694 19.4893 26.2563
705 2 2.2208 5.16184 17.8825 22.0582
706 1 -1.1104 1.02775 13.6564 23.5523
707 1 -1.1104 0.868974 19.3131 23.3087
711 1 -1.1104 3.69716 19.3024 23.3049
713 1 -1.1104 3.8412 13.7312 23.3771
715 1 -1.1104 1.07041 19.2934 26.1599
716 1 -1.1104 0.796487 16.5042 26.1368
717 1 -1.1104 1.11134 13.7362 26.3942
719 2 2.2208 5.26897 20.8248 24.9061
720 2 2.2208 5.27904 15.1101 24.6928
428 2 2.2208 13.6434 0.974156 19.1154
617 1 -1.1104 9.226 16.5534 23.4054
526 2 2.2208 10.8075 20.6134 24.8882
384 2 2.2208 10.8912 6.65491 27.6559
360 2 2.2208 10.8988 20.5543 13.5161
344 2 2.2208 13.7083 15.098 27.5813
373 2 2.2208 2.43689 15.2626 27.5611
430 2 2.2208 13.707 15.2003 22.0845
387 2 2.2208 13.7064 9.52317 27.6604
348 2 2.2208 10.732 17.8989 27.621
362 2 2.2208 8.07734 17.8078 13.5477
353 2 2.2208 2.24591 12.3595 13.4895
349 2 2.2208 8.06785 20.7038 27.6979
369 2 2.2208 10.821 1.10825 27.7326
366 2 2.2208 2.35562 3.83686 27.7771
375 2 2.2208 2.37628 20.7617 27.6851
335 2 2.2208 -0.436654 20.7098 13.5467
358 2 2.2208 5.18962 20.6236 13.6928
339 2 2.2208 2.38735 0.951983 13.6505
351 2 2.2208 2.4247 6.62247 13.6661
354 2 2.2208 7.98716 6.65 13.4368
361 2 2.2208 10.9101 15.0823 13.5775
347 2 2.2208 8.04171 15.1486 27.7307
721 2 2.2208 5.21737 23.4804 5.22357
722 2 2.2208 5.25438 29.2152 5.29112
723 1 -1.1104 0.884285 24.8556 1.18825
724 1 -1.1104 1.18652 25.1458 3.99384
725 1 -1.1104 1.16317 22.1603 1.06075
726 1 -1.1104 1.03178 27.7762 1.01641
727 2 2.2208 5.23913 26.2971 2.44125
728 1 -1.1104 1.11889 22.2866 3.79331
729 1 -1.1104 1.00814 27.9946 3.8186
730 1 -1.1104 3.87001 24.8423 1.11194
731 2 2.2208 2.471 23.5637 2.43763
732 2 2.2208 2.46232 29.256 2.44068
733 1 -1.1104 3.92247 25.055 3.89087
734 2 2.2208 2.50644 26.46 5.30332
735 1 -1.1104 3.84475 22.1456 0.997899
736 1 -1.1104 3.82015 27.7088 0.988645
737 1 -1.1104 3.8485 22.0113 3.8156
738 1 -1.1104 3.92072 27.7964 3.71531
744 1 -1.1104 6.68226 22.1894 0.862027
868 1 -1.1104 3.81164 24.8377 6.71939
1644 1 -1.1104 9.37794 47.413 6.59122
746 1 -1.1104 6.80443 22.0558 3.76807
1056 2 2.2208 2.44924 34.8362 13.5929
865 1 -1.1104 1.13592 27.7609 6.6269
745 1 -1.1104 6.70514 27.8365 1.05255
1091 2 2.2208 5.24098 40.4677 -0.378677
870 1 -1.1104 3.92463 27.7295 6.65206
862 1 -1.1104 1.00262 24.9501 6.74831
864 1 -1.1104 1.08251 22.0566 6.68718
869 1 -1.1104 3.88145 22.0713 6.70439
866 1 -1.1104 6.70537 22.1371 6.67881
867 1 -1.1104 6.57772 27.5807 6.68561
743 1 -1.1104 6.71391 24.8246 3.81982
747 1 -1.1104 6.51213 27.8858 3.99904
742 1 -1.1104 6.77851 24.8574 1.00043
748 2 2.2208 10.7921 23.5465 5.2781
749 2 2.2208 10.8485 29.1181 5.15055
750 1 -1.1104 12.2322 24.8269 0.910106
751 1 -1.1104 12.3027 24.9805 3.69796
752 1 -1.1104 12.3309 22.0921 1.04862
753 1 -1.1104 12.4869 27.6234 1.12957
754 2 2.2208 10.9649 26.2896 2.2937
755 1 -1.1104 12.3613 22.1057 4.00357
756 1 -1.1104 12.251 27.7615 3.8661
757 1 -1.1104 9.59074 24.6551 1.04315
758 2 2.2208 8.17242 23.5164 2.46727
759 2 2.2208 8.05361 29.2046 2.54259
760 1 -1.1104 9.49304 24.8405 3.86341
761 2 2.2208 8.10752 26.288 5.12523
762 1 -1.1104 9.43347 21.9881 1.02768
763 1 -1.1104 9.62712 27.5077 0.856944
764 1 -1.1104 9.50823 22.0707 3.9653
765 1 -1.1104 9.44284 27.6657 3.7503
897 1 -1.1104 12.32 27.7587 6.67878
1008 1 -1.1104 9.5513 44.8612 9.44734
863 1 -1.1104 6.63467 24.9446 6.54256
900 1 -1.1104 9.35726 27.6903 6.60276
895 1 -1.1104 12.2335 25.0074 6.66345
899 1 -1.1104 9.42861 22.1858 6.64002
898 1 -1.1104 9.5018 24.8668 6.62897
896 1 -1.1104 12.13 22.0769 6.57603
1088 2 2.2208 5.30237 46.1931 -0.406984
1613 1 -1.1104 3.7558 47.5001 6.55538
1086 2 2.2208 10.9019 34.7936 -0.450197
769 2 2.2208 5.21599 34.866 5.16789
770 1 -1.1104 1.13142 30.7303 1.16148
771 1 -1.1104 0.954254 36.0775 1.07458
773 1 -1.1104 1.07988 30.607 3.93734
774 1 -1.1104 1.03201 36.2464 3.77981
776 1 -1.1104 0.952056 33.4308 1.05119
777 2 2.2208 5.22094 32.1242 2.4725
778 2 2.2208 5.28489 37.7124 2.53042
779 1 -1.1104 1.10938 33.527 3.90841
781 1 -1.1104 3.73359 30.4522 1.02285
782 1 -1.1104 3.72865 36.2244 1.01948
783 2 2.2208 2.35874 34.9119 2.36753
784 1 -1.1104 3.91125 30.6836 3.8129
785 1 -1.1104 3.92721 36.35 3.88851
786 2 2.2208 2.58869 32.0992 5.15248
787 2 2.2208 2.30765 37.6805 5.11138
788 1 -1.1104 3.72259 33.3467 1.12748
789 1 -1.1104 3.90335 33.5832 3.6666
924 1 -1.1104 6.6126 33.4156 6.51609
923 1 -1.1104 0.925535 33.3018 6.60212
927 1 -1.1104 3.69624 33.507 6.63982
926 1 -1.1104 3.67167 36.2993 6.52314
772 1 -1.1104 6.61183 36.2296 1.02639
795 1 -1.1104 6.6412 33.4083 1.06837
919 1 -1.1104 1.13425 30.4512 6.7353
925 1 -1.1104 3.88247 30.7288 6.55733
921 1 -1.1104 6.55766 30.498 6.57111
861 2 2.2208 13.725 40.318 2.33624
794 1 -1.1104 6.62385 30.6922 3.74182
775 1 -1.1104 6.67653 36.2124 3.87667
780 1 -1.1104 6.59195 33.3835 3.83853
793 1 -1.1104 6.66596 30.5982 1.00345
796 2 2.2208 10.8295 34.8259 5.30984
797 1 -1.1104 12.2236 30.6073 0.921373
798 1 -1.1104 12.2572 36.0966 1.00151
799 1 -1.1104 12.2234 30.5203 3.76704
800 1 -1.1104 12.1521 36.2764 3.90665
801 1 -1.1104 12.313 33.2939 1.07589
802 2 2.2208 10.7972 31.9957 2.46652
803 2 2.2208 10.9582 37.6648 2.41569
804 1 -1.1104 11.9827 33.4935 3.85442
805 1 -1.1104 9.408 30.5446 1.04753
806 1 -1.1104 9.44207 36.448 0.909623
807 2 2.2208 8.05492 34.8359 2.33575
808 1 -1.1104 9.42363 30.5798 3.78504
809 1 -1.1104 9.21729 36.1724 3.70795
810 2 2.2208 7.9782 31.9858 5.13649
811 2 2.2208 8.05828 37.5868 5.09607