ITEM: TIMESTEP
20000
ITEM: NUMBER OF ATOMS
17760
ITEM: BOX BOUNDS pp pp pp
-3.7448075981399465e-01 2.7714480759813778e+01
-4.5935238134134586e+00 3.3267352381341067e+02
-3.6786240994349939e-01 2.7707862409943242e+01
ITEM: ATOMS id type q x y z
1 2 2.2208 5.1094 1.00461 5.40017
2 1 -1.1104 1.03116 -3.17437 1.20288
3 1 -1.1104 1.19366 2.44024 1.0254
6 1 -1.1104 1.0432 -3.07814 3.84383
7 1 -1.1104 1.00334 2.48385 3.94121
10 1 -1.1104 0.947604 -0.297687 1.06949
12 2 2.2208 5.28393 -1.81985 2.60815
13 2 2.2208 5.30214 3.78767 2.56697
14 1 -1.1104 1.05627 -0.244479 3.7645
16 1 -1.1104 3.86709 -3.21662 1.31897
17 1 -1.1104 3.92445 2.32949 1.02972
18 2 2.2208 2.41917 1.08998 2.5734
19 1 -1.1104 3.81317 -3.04609 4.0052
20 1 -1.1104 3.71552 2.48167 3.91339
21 2 2.2208 2.45189 -1.81719 5.34983
23 1 -1.1104 3.68941 -0.313722 1.18949
24 1 -1.1104 3.98539 -0.197055 3.93513
22 2 2.2208 2.41623 3.88806 5.27759
375 2 2.2208 2.44551 20.6171 -0.400797
311 2 2.2208 -0.392004 20.6361 7.95948
9 1 -1.1104 6.55953 2.34659 3.84234
15 1 -1.1104 6.84525 -0.375596 4.02725
28 2 2.2208 13.7721 20.5708 10.7452
386 2 2.2208 10.8776 12.2771 -0.393745
170 1 -1.1104 1.10232 -0.355583 6.54134
9033 2 2.2208 13.6573 -4.66303 8.15694
313 2 2.2208 -0.420808 15.0543 8.11216
379 2 2.2208 5.3375 6.53441 -0.196804
8 1 -1.1104 6.62771 -3.41941 4.05536
11 1 -1.1104 6.61004 -0.427754 1.17978
200 2 2.2208 -0.365485 -1.85663 8.07176
4 1 -1.1104 6.67232 -3.33655 1.21945
5 1 -1.1104 6.80552 2.43398 1.17906
31 2 2.2208 10.811 0.959813 5.37452
32 1 -1.1104 12.2745 -3.24087 1.08989
33 1 -1.1104 12.5598 2.532 1.1002
34 1 -1.1104 12.1725 -3.14548 3.79394
35 1 -1.1104 12.337 2.43177 3.90584
36 1 -1.1104 12.1645 -0.419333 1.03115
37 2 2.2208 10.7973 -1.78625 2.46712
38 2 2.2208 10.9815 3.82796 2.41805
39 1 -1.1104 12.2189 -0.377238 3.75288
40 1 -1.1104 9.43409 -3.29211 1.14488
41 1 -1.1104 9.64349 2.46322 1.11783
42 2 2.2208 8.13534 1.02747 2.4969
43 1 -1.1104 9.42109 -3.07445 3.94466
44 1 -1.1104 9.51923 2.45443 4.0231
45 2 2.2208 8.04119 -1.86697 5.36599
46 2 2.2208 7.99491 3.69265 5.35185
47 1 -1.1104 9.34605 -0.400133 0.940607
48 1 -1.1104 9.54947 -0.271137 3.78084
333 2 2.2208 13.7246 14.9425 10.6223
169 1 -1.1104 6.58218 2.30506 6.68994
205 1 -1.1104 12.2467 -3.2192 6.73335
312 2 2.2208 -0.373075 17.8666 10.8241
54 2 2.2208 5.32239 6.5468 5.39692
55 2 2.2208 5.2048 12.0777 5.27278
56 1 -1.1104 1.09229 8.15495 1.06637
58 1 -1.1104 1.1047 7.87151 3.83595
60 1 -1.1104 1.10175 5.29831 1.02567
61 1 -1.1104 1.15392 10.9249 1.26557
66 2 2.2208 5.19791 9.33961 2.43202
67 1 -1.1104 0.962559 5.117 3.84791
68 1 -1.1104 1.02191 10.7617 4.00447
71 1 -1.1104 3.85576 8.10581 1.04466
72 2 2.2208 2.5022 6.6571 2.39922
73 2 2.2208 2.38857 12.2198 2.60302
74 1 -1.1104 3.84524 7.94512 3.83466
75 2 2.2208 2.46633 9.45301 5.33201
76 1 -1.1104 3.77976 5.02486 1.06804
77 1 -1.1104 3.94989 10.846 1.12368
79 1 -1.1104 3.9308 5.19377 3.94983
80 1 -1.1104 3.7099 10.7199 4.04905
64 1 -1.1104 6.70486 10.8467 1.14153
321 1 -1.1104 9.38714 19.072 12.2131
70 1 -1.1104 6.50347 10.7379 3.85789
238 1 -1.1104 3.87081 8.00334 6.6935
234 1 -1.1104 1.10393 8.08075 6.59566
236 1 -1.1104 1.12302 5.27443 6.59683
78 1 -1.1104 3.85044 10.8216 6.75749
327 1 -1.1104 12.3916 18.9505 9.46776
315 1 -1.1104 9.48675 16.157 12.2334
382 2 2.2208 -0.356825 12.3201 -0.36275
63 1 -1.1104 6.75553 5.19382 1.27732
69 1 -1.1104 6.61439 5.07722 4.00698
57 1 -1.1104 6.72622 8.01059 1.18628
59 1 -1.1104 6.76658 7.94827 3.76435
84 2 2.2208 10.8751 6.41825 5.34611
85 2 2.2208 10.8058 12.1421 5.19449
86 1 -1.1104 12.2885 8.03276 1.04528
87 1 -1.1104 12.3071 7.9893 3.91531
88 1 -1.1104 12.3969 5.23798 1.03988
89 1 -1.1104 12.1457 10.8823 0.968549
91 2 2.2208 10.8921 9.38093 2.4036
92 1 -1.1104 12.3484 5.32865 3.76694
93 1 -1.1104 12.3478 10.7822 3.98025
94 1 -1.1104 9.40437 7.92893 0.958701
95 2 2.2208 8.13284 6.40059 2.6216
96 2 2.2208 8.06574 12.1432 2.47404
97 1 -1.1104 9.56545 7.97848 3.75797
98 2 2.2208 8.11781 9.35226 5.21085
99 1 -1.1104 9.68989 5.22884 1.20158
100 1 -1.1104 9.48232 10.6711 1.13861
102 1 -1.1104 9.56677 5.21932 4.00428
103 1 -1.1104 9.38291 10.7878 4.00811
296 1 -1.1104 6.72481 19.2771 12.2833
235 1 -1.1104 6.63787 7.97212 6.59286
65 1 -1.1104 6.50657 10.6166 6.6276
101 1 -1.1104 9.58579 10.6919 6.7644
90 1 -1.1104 12.1853 10.7127 6.69026
319 1 -1.1104 9.47961 13.5999 9.52942
370 2 2.2208 7.94491 -1.99928 -0.283447
231 2 2.2208 13.7135 20.6039 5.2132
9030 2 2.2208 -0.458336 -4.73883 10.8605
118 1 -1.1104 6.73249 16.5588 6.69965
360 2 2.2208 10.7642 20.674 13.6542
106 2 2.2208 5.25584 17.9142 5.29545
107 1 -1.1104 1.15151 13.6128 1.06005
109 1 -1.1104 0.9763 19.1571 1.12878
113 1 -1.1104 1.24569 13.6325 3.83438
114 1 -1.1104 1.09332 19.1572 3.84261
116 1 -1.1104 1.06508 16.5233 1.01021
119 2 2.2208 5.38362 14.9792 2.41564
120 2 2.2208 5.35664 20.6696 2.42048
121 1 -1.1104 1.08356 16.4281 3.80896
123 1 -1.1104 3.82694 13.6916 1.01245
125 1 -1.1104 3.90847 19.3247 1.2146
127 2 2.2208 2.5184 17.7782 2.42327
128 1 -1.1104 3.9927 13.4449 3.72696
129 1 -1.1104 3.79698 19.1471 3.85397
130 2 2.2208 2.49823 15.106 5.29359
131 2 2.2208 2.3662 20.6211 5.13821
132 1 -1.1104 3.96246 16.4031 1.07073
134 1 -1.1104 3.76345 16.3465 3.80241
318 1 -1.1104 9.62727 19.2141 9.48026
122 1 -1.1104 6.74473 16.3517 3.84952
139 1 -1.1104 6.73364 19.2969 3.74933
111 1 -1.1104 6.60321 13.6401 6.63227
117 1 -1.1104 0.966542 16.3871 6.68157
302 1 -1.1104 1.01592 19.2345 6.4832
124 1 -1.1104 3.80635 13.6791 6.76289
133 1 -1.1104 3.75726 16.5239 6.60964
366 2 2.2208 2.46462 3.8049 -0.311481
203 2 2.2208 13.7226 3.58817 11.0863
154 1 -1.1104 9.47748 13.4428 6.80273
115 1 -1.1104 6.69747 13.559 3.86965
110 1 -1.1104 6.70143 13.5973 1.05303
140 1 -1.1104 6.78955 16.4494 1.13214
138 1 -1.1104 6.7495 19.2524 0.846027
141 2 2.2208 10.8872 17.7785 5.20721
142 1 -1.1104 12.3517 13.5612 1.01581
144 1 -1.1104 12.3517 19.2438 0.917293
146 1 -1.1104 12.3075 13.5896 3.87677
147 1 -1.1104 12.242 19.2322 3.83501
148 1 -1.1104 12.2995 16.3542 0.963991
150 2 2.2208 10.9542 14.9933 2.2766
151 2 2.2208 10.8789 20.599 2.3811
152 1 -1.1104 12.2904 16.4478 3.70072
153 1 -1.1104 9.50265 13.5753 0.958946
155 1 -1.1104 9.4951 19.036 0.971759
157 2 2.2208 8.30918 17.7052 2.49045
158 1 -1.1104 9.39479 13.5423 3.82021
159 1 -1.1104 9.43808 19.1412 3.84365
160 2 2.2208 8.05495 14.9129 5.34178
161 2 2.2208 8.10834 20.5856 5.294
162 1 -1.1104 9.57072 16.3512 0.996329
164 1 -1.1104 9.50961 16.368 3.94904
163 1 -1.1104 9.59438 16.2634 6.56594
83 2 2.2208 -0.505608 12.1543 5.41444
145 1 -1.1104 12.436 19.2185 6.72107
143 1 -1.1104 12.2168 13.6558 6.81637
82 2 2.2208 -0.345438 9.46379 2.42108
174 1 -1.1104 3.70588 -0.441835 6.75227
172 1 -1.1104 4.02329 -3.24151 6.7517
173 1 -1.1104 3.74988 2.42728 6.81077
332 2 2.2208 13.6813 17.784 8.03791
165 2 2.2208 13.813 17.8658 2.3603
166 1 -1.1104 1.01935 -3.25483 6.77172
167 1 -1.1104 0.896646 2.29589 6.72591
175 2 2.2208 5.20718 0.923315 10.9501
176 1 -1.1104 1.01801 -3.37294 12.3056
177 1 -1.1104 1.10724 2.42115 12.3463
180 1 -1.1104 1.01311 -3.37828 9.6075
181 1 -1.1104 1.1016 2.47394 9.53029
184 1 -1.1104 1.04322 -0.529697 12.3308
186 2 2.2208 5.29851 -1.78047 8.21897
187 2 2.2208 5.15177 3.7504 8.21708
188 1 -1.1104 1.05015 -0.493255 9.47065
190 1 -1.1104 3.78034 -3.17847 12.2503
191 1 -1.1104 3.95195 2.37344 12.3131
192 2 2.2208 2.36863 1.06561 8.05739
193 1 -1.1104 3.66772 -3.2454 9.57325
194 1 -1.1104 3.87369 2.41815 9.56774
195 2 2.2208 2.50174 -1.82702 10.855
196 2 2.2208 2.43701 3.83733 11.012
197 1 -1.1104 3.91653 -0.437157 12.3377
198 1 -1.1104 3.90157 -0.37471 9.61094
323 1 -1.1104 12.3465 16.307 9.43736
329 1 -1.1104 12.2632 19.2351 12.0615
168 1 -1.1104 6.61665 -3.24673 6.93019
171 1 -1.1104 6.55197 -0.450918 6.73841
189 1 -1.1104 6.58105 -0.342064 9.56864
178 1 -1.1104 6.52723 -3.19673 12.3773
210 1 -1.1104 9.39887 -0.593204 6.72775
208 1 -1.1104 9.3258 -3.28623 6.76063
206 1 -1.1104 12.1377 2.39223 6.75948
209 1 -1.1104 9.34772 2.1772 6.69054
207 1 -1.1104 12.381 -0.440832 6.68739
183 1 -1.1104 6.62082 2.23642 9.43054
182 1 -1.1104 6.66518 -3.09716 9.49422
179 1 -1.1104 6.75784 2.3022 12.3178
185 1 -1.1104 6.70288 -0.493148 12.3976
211 2 2.2208 10.9522 0.894991 10.9644
212 1 -1.1104 12.1916 -3.28733 12.44
213 1 -1.1104 12.4179 2.27256 12.4153
214 1 -1.1104 12.3571 -3.24955 9.50876
215 1 -1.1104 12.2495 2.30357 9.64053
216 1 -1.1104 12.2538 -0.452155 12.2304
217 2 2.2208 10.8674 -1.78081 8.11651
218 2 2.2208 10.8917 3.72024 8.20128
219 1 -1.1104 12.3158 -0.495764 9.49403
220 1 -1.1104 9.46487 -3.38095 12.4655
221 1 -1.1104 9.44484 2.40592 12.2988
222 2 2.2208 8.05455 0.880745 8.10439
223 1 -1.1104 9.49316 -3.294 9.66244
224 1 -1.1104 9.4982 2.28893 9.47039
225 2 2.2208 8.08086 -1.86881 11.0007
227 1 -1.1104 9.53399 -0.523606 12.2654
228 1 -1.1104 9.42962 -0.54534 9.55549
226 2 2.2208 8.06634 3.71617 10.8873
331 2 2.2208 10.8793 17.667 10.9153
324 2 2.2208 10.9758 20.5267 8.12308
320 2 2.2208 8.33672 17.7072 8.0424
325 2 2.2208 10.8843 14.9441 8.1452
62 1 -1.1104 1.00662 10.8551 6.84403
239 1 -1.1104 3.90335 5.15772 6.7265
240 2 2.2208 5.15131 6.53435 10.7864
241 2 2.2208 5.2484 12.1665 10.8067
242 1 -1.1104 1.07883 8.04894 12.2375
244 1 -1.1104 1.04028 8.03722 9.4769
246 1 -1.1104 1.04178 5.26136 12.3736
247 1 -1.1104 0.857731 10.742 12.3285
250 2 2.2208 5.36461 9.36112 7.98632
251 1 -1.1104 1.00852 5.1739 9.53497
252 1 -1.1104 0.92244 10.7741 9.50713
255 1 -1.1104 3.75281 8.02988 12.299
256 2 2.2208 2.44974 6.62449 8.02248
257 2 2.2208 2.29135 12.3074 8.09271
258 1 -1.1104 3.90284 7.92995 9.43676
259 2 2.2208 2.37844 9.48715 10.7884
260 1 -1.1104 3.83297 5.2147 12.1787
261 1 -1.1104 3.79306 10.9034 12.1179
262 1 -1.1104 3.72655 5.18616 9.56775
263 1 -1.1104 3.67972 11.0133 9.45364
254 1 -1.1104 6.68089 10.8172 9.42551
243 1 -1.1104 6.5471 7.90092 12.1416
245 1 -1.1104 6.62658 7.9787 9.44305
249 1 -1.1104 6.66876 10.9338 12.0991
385 2 2.2208 8.11893 9.42594 -0.280597
149 1 -1.1104 12.316 16.3408 6.59573
290 1 -1.1104 6.79487 13.4873 9.42009
340 2 2.2208 13.7016 0.968434 13.8183
288 1 -1.1104 6.99691 19.0571 9.38639
317 2 2.2208 8.07653 14.8829 10.8997
248 1 -1.1104 6.55296 5.21582 12.3954
253 1 -1.1104 6.64778 4.95202 9.48677
237 1 -1.1104 6.76136 5.15607 6.63121
267 1 -1.1104 9.52544 7.91796 6.60912
265 1 -1.1104 12.3064 7.84986 6.71117
269 1 -1.1104 9.50445 5.14486 6.96917
266 1 -1.1104 12.2617 5.15537 6.68197
264 1 -1.1104 9.5144 10.6716 9.58983
268 1 -1.1104 9.39156 5.1119 9.61335
270 1 -1.1104 9.41989 10.6595 12.3948
271 1 -1.1104 9.47685 5.32742 12.3634
272 2 2.2208 7.98548 9.35321 10.9533
273 1 -1.1104 9.30345 7.90837 9.47763
274 2 2.2208 8.18668 12.0947 8.12628
275 2 2.2208 8.08885 6.61035 8.05818
276 2 2.2208 10.792 6.48426 10.8389
277 2 2.2208 10.8695 12.2058 10.793
278 1 -1.1104 12.2328 7.89654 12.2337
279 1 -1.1104 12.1695 7.80175 9.48714
280 1 -1.1104 12.0981 5.12866 12.3561
281 1 -1.1104 12.2724 10.7623 12.1452
282 2 2.2208 10.8028 9.31304 7.98566
283 1 -1.1104 12.2535 5.06508 9.55229
284 1 -1.1104 12.2012 10.6088 9.32551
285 1 -1.1104 9.45176 7.97832 12.2639
289 1 -1.1104 6.73507 16.3271 9.50486
126 1 -1.1104 3.85526 19.3071 6.58061
108 1 -1.1104 1.01199 13.6894 6.60091
303 2 2.2208 2.42004 17.9265 8.09834
298 1 -1.1104 0.955492 19.2979 12.3125
305 1 -1.1104 3.87386 13.7714 9.43893
304 1 -1.1104 3.89629 16.5762 9.48668
301 1 -1.1104 4.12086 19.3218 9.41104
295 2 2.2208 5.28764 15.0367 8.0143
310 2 2.2208 2.68371 15.1062 10.7175
309 2 2.2208 2.34445 20.7315 10.8462
308 1 -1.1104 3.98267 16.4777 12.1926
307 1 -1.1104 1.1258 16.5697 12.1994
300 2 2.2208 5.44617 17.7937 10.788
299 1 -1.1104 1.133 13.7088 12.2201
294 1 -1.1104 0.957922 13.7585 9.42505
286 1 -1.1104 3.6879 19.3385 12.2744
287 1 -1.1104 3.78997 13.589 12.2488
291 1 -1.1104 1.07188 19.2979 9.34048
292 1 -1.1104 1.10542 16.5287 9.57033
293 2 2.2208 5.36377 20.7697 7.93121
306 1 -1.1104 6.78921 16.4979 12.263
112 1 -1.1104 6.5621 19.3882 6.60325
297 1 -1.1104 6.55446 13.7652 12.2309
316 2 2.2208 7.99317 20.4189 10.7816
322 1 -1.1104 9.53978 13.4681 12.1842
330 1 -1.1104 12.342 13.5962 12.2339
156 1 -1.1104 9.57577 18.9871 6.68291
314 1 -1.1104 9.53308 16.246 9.47675
328 1 -1.1104 12.3125 13.4505 9.45287
326 1 -1.1104 12.2675 16.2376 12.1246
137 2 2.2208 -0.416066 17.8509 5.25867
30 2 2.2208 -0.414461 9.38478 8.15074
27 2 2.2208 -0.356523 3.85879 2.39582
369 2 2.2208 10.8088 0.950688 -0.437099
204 2 2.2208 13.7456 15.0427 5.25699
104 2 2.2208 13.6829 12.2619 2.40979
135 2 2.2208 -0.264977 15.0807 2.41747
49 2 2.2208 13.7569 1.03574 2.45717
356 2 2.2208 8.03548 12.1694 13.5571
338 2 2.2208 5.311 -1.85198 13.7898
351 2 2.2208 2.60298 6.60345 13.7344
350 2 2.2208 10.8039 3.82002 13.747
357 2 2.2208 2.4667 17.7735 13.6447
337 2 2.2208 -0.398866 3.76112 13.6313
349 2 2.2208 8.10089 20.6033 -0.525408
380 2 2.2208 2.52079 9.54672 -0.320251
367 2 2.2208 -0.389029 9.44939 13.6953
381 2 2.2208 5.27335 12.2474 -0.313197
365 2 2.2208 2.48868 -1.5332 -0.190861
384 2 2.2208 10.8316 6.70827 -0.357399
364 2 2.2208 5.29622 1.02969 -0.205729
359 2 2.2208 5.16883 15.0172 13.6427
388 2 2.2208 5.25821 1.01548 16.672
389 1 -1.1104 1.13911 -3.34947 17.9884
390 1 -1.1104 1.19168 2.18139 18.0197
393 1 -1.1104 1.10665 -3.22686 15.0145
395 1 -1.1104 1.02485 2.4622 15.064
401 1 -1.1104 1.08828 -0.61356 17.8499
403 2 2.2208 5.25656 -1.83179 19.4343
404 2 2.2208 5.37434 3.79143 19.363
405 1 -1.1104 1.13672 -0.296955 15.171
409 1 -1.1104 4.05887 -3.2442 17.9128
410 1 -1.1104 4.01413 2.44226 17.9548
411 2 2.2208 2.67034 1.03528 19.4235
412 1 -1.1104 4.02114 -3.20592 15.1086
414 1 -1.1104 3.79255 2.40499 15.0583
416 2 2.2208 2.58868 -1.8446 16.4651
417 2 2.2208 2.53691 3.76645 16.4852
418 1 -1.1104 3.90768 -0.493625 17.9963
419 1 -1.1104 3.86965 -0.290375 15.1477
648 2 2.2208 -0.528855 12.1412 16.426
399 1 -1.1104 6.49898 2.34783 15.1027
9120 2 2.2208 13.6756 -4.66474 24.9484
427 2 2.2208 -0.293416 3.76803 19.3091
625 2 2.2208 -0.341992 1.05682 22.1913
339 2 2.2208 2.47334 0.981881 13.687
426 2 2.2208 13.6215 9.26859 16.5943
406 1 -1.1104 1.15433 -0.411651 20.72
394 1 -1.1104 1.11422 -3.32205 20.6897
413 1 -1.1104 3.96898 -3.16474 20.8407
334 2 2.2208 -0.236668 -1.84061 13.6767
9189 2 2.2208 -0.290599 -4.70338 16.4747
392 1 -1.1104 6.7594 2.35073 17.9753
391 1 -1.1104 6.71686 -3.31346 18.102
397 1 -1.1104 6.79034 -3.36667 15.3758
407 1 -1.1104 6.85904 -0.304906 15.265
402 1 -1.1104 6.62383 -0.5441 18.0988
431 2 2.2208 10.8923 0.819102 16.5573
432 1 -1.1104 12.3575 -3.29908 18.0462
433 1 -1.1104 12.2564 2.35669 17.8066
434 1 -1.1104 12.2444 -3.19178 15.2328
436 1 -1.1104 12.292 2.41739 15.1409
438 1 -1.1104 12.2832 -0.588758 17.8207
439 2 2.2208 10.8231 -1.82964 19.2625
440 2 2.2208 11.076 3.79392 19.1581
441 1 -1.1104 12.3591 -0.572413 15.1165
443 1 -1.1104 9.51243 -3.19168 17.9665
444 1 -1.1104 9.51119 2.36152 17.8845
445 2 2.2208 8.07352 0.978697 19.4122
446 1 -1.1104 9.49708 -3.07815 15.2054
448 1 -1.1104 9.53399 2.32803 15.2692
450 2 2.2208 8.04252 -1.84746 16.6463
451 2 2.2208 8.04542 3.65998 16.5867
452 1 -1.1104 9.427 -0.32139 17.8692
453 1 -1.1104 9.5837 -0.409869 15.0767
9121 2 2.2208 2.39405 -4.60731 25.0306
9156 2 2.2208 -0.435441 -4.61315 22.1177
645 2 2.2208 -0.318119 20.4596 24.9983
352 2 2.2208 5.16986 9.47877 13.5787
620 1 -1.1104 9.44022 16.4796 26.3832
651 2 2.2208 13.8527 6.57173 19.3461
464 2 2.2208 5.27287 6.56505 16.523
465 2 2.2208 5.29371 12.083 16.3948
466 1 -1.1104 1.12218 8.04362 18.0001
468 1 -1.1104 1.17464 7.94374 15.1192
472 1 -1.1104 1.03398 5.03647 17.9394
473 1 -1.1104 0.952413 10.713 17.8056
476 2 2.2208 5.30474 9.40543 19.2133
477 1 -1.1104 1.13169 5.26168 15.0966
479 1 -1.1104 0.951679 10.8337 14.9982
485 1 -1.1104 3.82437 7.89101 17.8521
486 2 2.2208 2.53011 6.56377 19.3399
487 2 2.2208 2.37714 12.1951 19.2624
488 1 -1.1104 3.85119 8.05658 15.0761
490 2 2.2208 2.48107 9.32303 16.5238
491 1 -1.1104 3.92341 5.16317 17.961
492 1 -1.1104 3.79924 10.7777 17.9275
493 1 -1.1104 3.99849 5.0783 15.2112
495 1 -1.1104 3.89008 10.7668 14.9519
524 1 -1.1104 12.1015 16.3945 23.3522
475 1 -1.1104 6.57946 10.8599 17.7327
494 1 -1.1104 3.91176 5.19699 20.7715
483 1 -1.1104 6.7419 10.6944 14.869
469 1 -1.1104 1.08649 8.13981 20.6885
498 1 -1.1104 12.1217 13.5955 26.2913
481 1 -1.1104 6.69124 5.21473 15.212
474 1 -1.1104 6.70242 5.17294 17.967
467 1 -1.1104 6.66943 8.02823 17.9164
354 2 2.2208 8.08374 6.61915 13.6489
470 1 -1.1104 6.62635 8.0036 15.0903
500 2 2.2208 10.8934 6.4536 16.4955
501 2 2.2208 10.9097 12.2037 16.4658
502 1 -1.1104 12.4224 7.87326 17.8867
503 1 -1.1104 12.2308 8.02705 15.157
505 1 -1.1104 12.3767 5.15209 17.7993
506 1 -1.1104 12.2071 10.7527 17.9193
507 2 2.2208 10.9471 9.36737 19.3261
508 1 -1.1104 12.2842 5.19641 15.1348
510 1 -1.1104 12.252 10.7976 14.9806
512 1 -1.1104 9.53365 7.89436 17.8554
513 2 2.2208 8.04828 6.64095 19.3126
514 2 2.2208 7.98337 12.2723 19.2784
515 1 -1.1104 9.62913 7.9657 14.9864
517 2 2.2208 8.0215 9.38893 16.4725
518 1 -1.1104 9.56783 5.10765 17.8586
519 1 -1.1104 9.47916 10.7388 17.9535
520 1 -1.1104 9.57707 5.13618 15.1933
522 1 -1.1104 9.37048 10.8763 15.1796
523 1 -1.1104 9.5762 10.8992 20.6282
511 1 -1.1104 12.383 10.7577 20.6073
516 1 -1.1104 9.50739 8.09388 20.6945
521 1 -1.1104 9.48009 5.09595 20.7795
504 1 -1.1104 12.3421 7.92539 20.5384
590 1 -1.1104 9.49941 19.2978 26.2441
458 2 2.2208 -0.434294 20.5469 19.2721
567 1 -1.1104 12.3051 13.6561 20.6678
527 2 2.2208 5.11326 17.768 16.4439
528 1 -1.1104 1.06203 13.579 17.7379
529 1 -1.1104 0.999294 19.1257 17.9826
532 1 -1.1104 0.957192 13.6563 14.98
534 1 -1.1104 1.04396 19.1708 15.1197
540 1 -1.1104 0.92176 16.3973 17.9404
542 2 2.2208 5.25565 15.0709 19.3112
543 2 2.2208 5.19154 20.6498 19.1859
544 1 -1.1104 1.0088 16.4214 14.9515
548 1 -1.1104 3.85661 13.629 17.742
549 1 -1.1104 3.76148 19.226 17.7351
550 2 2.2208 2.31979 17.7512 19.3255
551 1 -1.1104 3.81878 13.5085 14.9465
553 1 -1.1104 3.81539 19.1287 15.0289
555 2 2.2208 2.42016 14.896 16.4051
556 2 2.2208 2.48618 20.6577 16.3631
557 1 -1.1104 3.88263 16.4671 18.0962
558 1 -1.1104 3.73259 16.2236 15.1075
559 1 -1.1104 3.90937 16.3485 20.7854
622 2 2.2208 -0.412718 9.44751 19.2954
345 2 2.2208 13.7915 20.6746 27.6153
546 1 -1.1104 6.55076 16.4951 15.0678
538 1 -1.1104 6.62594 19.1492 14.9964
346 2 2.2208 10.9221 -1.89853 13.749
545 1 -1.1104 0.936479 16.5397 20.6775
537 1 -1.1104 6.65526 13.6673 20.5905
588 1 -1.1104 6.70001 19.3037 26.2435
569 1 -1.1104 12.1549 19.2366 20.6547
579 1 -1.1104 9.4134 13.73 20.5867
547 1 -1.1104 6.61609 16.4798 20.6231
531 1 -1.1104 6.44633 19.0983 17.8187
536 1 -1.1104 6.63225 13.6081 15.1221
530 1 -1.1104 6.71779 13.6455 17.7701
541 1 -1.1104 6.57267 16.3491 17.8346
563 2 2.2208 10.7492 17.8857 16.4095
564 1 -1.1104 12.2032 13.5866 17.8271
565 1 -1.1104 12.2852 19.0958 17.721
566 1 -1.1104 12.3175 13.5694 15.1301
568 1 -1.1104 12.3335 19.2873 14.8634
570 1 -1.1104 12.3083 16.381 17.7327
571 2 2.2208 10.7891 15.1005 19.1448
572 2 2.2208 10.8874 20.6919 19.1809
573 1 -1.1104 12.1376 16.4714 14.9154
575 1 -1.1104 9.44598 13.4706 17.7674
576 1 -1.1104 9.31473 19.1594 17.6916
577 2 2.2208 7.90286 17.8705 19.3274
578 1 -1.1104 9.48198 13.565 14.897
580 1 -1.1104 9.41062 19.244 15.0284
582 2 2.2208 7.97722 15.0384 16.3539
583 2 2.2208 7.85651 20.4827 16.3796
584 1 -1.1104 9.37807 16.4781 18.0598
585 1 -1.1104 9.40323 16.3635 15.1715
581 1 -1.1104 9.34095 19.2332 20.7431
574 1 -1.1104 12.385 16.4169 20.6475
429 2 2.2208 13.6477 3.62183 16.4915
420 1 -1.1104 3.91597 -0.450242 20.8562
424 2 2.2208 -0.169101 0.928509 16.5348
618 2 2.2208 13.7109 17.8543 19.1335
463 1 -1.1104 12.3621 13.6446 23.6118
712 1 -1.1104 6.66973 13.6774 26.4152
396 1 -1.1104 1.19571 2.44498 20.8903
415 1 -1.1104 3.97848 2.45577 20.8083
591 2 2.2208 5.21876 1.02438 22.2498
592 1 -1.1104 1.03231 -3.30107 23.374
593 1 -1.1104 1.12181 2.58667 23.6751
596 1 -1.1104 0.942086 -3.1209 26.387
597 1 -1.1104 0.97928 2.36135 26.3029
600 1 -1.1104 1.07507 -0.360701 23.5719
602 2 2.2208 5.29212 -1.85713 25.0765
603 2 2.2208 5.10383 3.72126 24.9647
604 1 -1.1104 0.980117 -0.483593 26.3317
606 1 -1.1104 3.74424 -3.25184 23.6881
607 1 -1.1104 3.74188 2.37678 23.5143
608 2 2.2208 2.3181 0.987759 25.0621
609 1 -1.1104 3.76347 -3.18582 26.5309
610 1 -1.1104 3.82757 2.32496 26.3087
611 2 2.2208 2.40062 -1.88841 22.1401
612 2 2.2208 2.49531 3.95535 22.1127
613 1 -1.1104 3.86179 -0.548831 23.7999
614 1 -1.1104 3.98096 -0.326142 26.5871
598 1 -1.1104 6.59662 -3.28452 26.4711
526 2 2.2208 10.8904 20.7362 24.846
398 1 -1.1104 6.68014 -3.40564 20.8663
408 1 -1.1104 6.51459 -0.403561 20.9039
714 1 -1.1104 6.59354 16.4055 26.3574
454 1 -1.1104 9.2974 -0.53141 20.7209
442 1 -1.1104 12.2601 -0.412345 20.6302
437 1 -1.1104 12.2591 2.51811 20.5363
449 1 -1.1104 9.3757 2.3215 20.8575
601 1 -1.1104 6.59453 -0.385129 23.7467
599 1 -1.1104 6.58287 2.42588 26.4033
447 1 -1.1104 9.56256 -3.26516 20.7486
435 1 -1.1104 12.2478 -3.09991 20.7238
400 1 -1.1104 6.61926 2.38226 20.7535
594 1 -1.1104 6.55838 -3.22846 23.7373
605 1 -1.1104 6.87966 -0.437163 26.4571
595 1 -1.1104 6.46434 2.43259 23.6035
627 2 2.2208 10.8002 1.07079 22.1911
628 1 -1.1104 12.221 -3.20695 23.4735
629 1 -1.1104 12.1653 2.46464 23.4357
630 1 -1.1104 12.1872 -3.26588 26.4385
631 1 -1.1104 12.2072 2.38446 26.3213
632 1 -1.1104 12.15 -0.365932 23.4846
633 2 2.2208 10.7053 -1.87623 24.9874
634 2 2.2208 10.7792 4.04491 24.9553
635 1 -1.1104 12.2654 -0.365656 26.2101
636 1 -1.1104 9.41993 -3.1171 23.6535
637 1 -1.1104 9.38044 2.50613 23.6267
638 2 2.2208 8.03557 1.09748 25.0348
639 1 -1.1104 9.35446 -3.39847 26.4063
640 1 -1.1104 9.43988 2.52002 26.4
641 2 2.2208 8.10504 -1.83373 22.1624
642 2 2.2208 8.08441 3.79275 22.1612
643 1 -1.1104 9.34642 -0.416422 23.4797
644 1 -1.1104 9.54248 -0.497409 26.284
462 2 2.2208 10.8998 17.8384 22.0947
489 1 -1.1104 4.02626 8.03371 20.7312
589 1 -1.1104 9.57899 13.5959 26.2708
562 1 -1.1104 9.42428 19.2585 23.5647
480 1 -1.1104 0.987515 10.8125 20.8072
478 1 -1.1104 1.07166 5.23146 20.6158
496 1 -1.1104 3.78869 10.8683 20.6882
656 2 2.2208 5.31035 6.69981 22.0317
657 2 2.2208 5.2666 12.1405 21.9593
658 1 -1.1104 1.14084 7.95646 23.5102
660 1 -1.1104 1.15875 8.10707 26.3888
662 1 -1.1104 1.02404 5.33434 23.5206
663 1 -1.1104 1.09458 10.8163 23.5228
666 2 2.2208 5.28062 9.29411 25.066
667 1 -1.1104 1.11227 5.2735 26.3413
668 1 -1.1104 1.28862 10.8097 26.3698
671 1 -1.1104 3.84478 7.92464 23.5122
672 2 2.2208 2.56684 6.66532 24.9338
673 2 2.2208 2.47644 12.1877 24.958
674 1 -1.1104 4.08182 7.93595 26.4113
675 2 2.2208 2.50143 9.35987 22.1718
676 1 -1.1104 3.8992 5.2097 23.5644
677 1 -1.1104 3.80958 10.8339 23.5901
678 1 -1.1104 3.8944 5.26185 26.5517
679 1 -1.1104 3.88987 10.6575 26.3698
482 1 -1.1104 6.69982 5.26684 20.7472
484 1 -1.1104 6.60222 10.7913 20.5826
560 1 -1.1104 12.2428 16.3472 26.1934
561 1 -1.1104 9.43957 13.5836 23.261
586 1 -1.1104 9.67533 16.4684 20.7648
525 2 2.2208 10.8066 15.0266 25.0308
587 2 2.2208 8.02955 17.8344 25.0024
661 1 -1.1104 6.82479 8.06063 26.5031
670 1 -1.1104 6.65143 10.7772 26.3684
471 1 -1.1104 6.77539 8.02865 20.7025
659 1 -1.1104 6.68967 7.98355 23.6593
509 1 -1.1104 12.2794 5.20603 20.712
669 1 -1.1104 6.5666 5.1535 26.4143
664 1 -1.1104 6.63064 5.23887 23.4502
665 1 -1.1104 6.71965 10.6899 23.4791
687 1 -1.1104 9.53545 10.9421 26.3805
688 1 -1.1104 9.42083 5.34508 26.4085
689 1 -1.1104 9.4973 10.825 23.5065
690 1 -1.1104 9.53699 5.3278 23.5875
691 2 2.2208 8.1711 9.41262 22.1501
692 1 -1.1104 9.60696 8.29162 26.3392
693 2 2.2208 8.13845 12.161 24.9989
694 2 2.2208 8.06708 6.62982 25.0149
695 2 2.2208 10.8453 6.52277 21.9816
696 2 2.2208 10.8423 12.1739 21.9004
697 1 -1.1104 12.3116 8.04515 23.4463
698 1 -1.1104 12.2314 8.01791 26.4633
699 1 -1.1104 12.2767 5.17197 23.54
700 1 -1.1104 12.1843 10.8194 23.2613
701 2 2.2208 10.9475 9.39205 24.8448
702 1 -1.1104 12.2086 5.25429 26.3638
703 1 -1.1104 12.3928 10.835 26.1742
704 1 -1.1104 9.56947 8.22512 23.4901
617 1 -1.1104 9.18812 16.314 23.6091
539 1 -1.1104 6.70099 19.3039 20.7455
533 1 -1.1104 1.07941 13.4585 20.607
554 1 -1.1104 3.90577 19.1285 20.7594
535 1 -1.1104 0.9014 19.1947 20.7399
552 1 -1.1104 3.87476 13.6062 20.5588
647 2 2.2208 2.42793 15.0268 21.9619
649 2 2.2208 2.36456 20.6065 22.1509
652 1 -1.1104 3.85929 16.5135 23.5971
655 1 -1.1104 1.16354 16.3088 23.444
681 1 -1.1104 3.99817 13.5375 26.2939
682 1 -1.1104 3.91183 16.4107 26.3364
683 2 2.2208 2.52538 17.745 24.8256
686 1 -1.1104 3.79315 19.1527 26.2934
705 2 2.2208 5.22128 17.7466 22.1815
706 1 -1.1104 0.941418 13.5491 23.5212
707 1 -1.1104 1.06551 19.1596 23.5483
711 1 -1.1104 3.9233 19.1935 23.4561
713 1 -1.1104 3.73665 13.5875 23.3671
715 1 -1.1104 1.09476 19.0749 26.467
716 1 -1.1104 1.06963 16.4451 26.183
717 1 -1.1104 1.26106 13.628 26.341
719 2 2.2208 5.1739 20.6169 24.9147
720 2 2.2208 5.21893 14.9436 24.8225
718 1 -1.1104 6.70164 19.2313 23.5244
680 1 -1.1104 6.57265 16.4806 23.5973
709 1 -1.1104 6.69775 13.5748 23.5279
616 2 2.2208 7.99685 20.6132 22.1206
497 1 -1.1104 12.2835 19.1049 23.4485
615 2 2.2208 8.097 15.0462 22.0365
499 1 -1.1104 12.344 19.278 26.2475
626 2 2.2208 -0.388259 3.87059 24.8909
348 2 2.2208 10.8977 17.7971 27.6345
374 2 2.2208 5.20651 17.827 27.7115
425 2 2.2208 -0.194301 -1.8007 19.211
646 2 2.2208 -0.329549 15.0508 24.8497
684 2 2.2208 -0.258274 9.35116 24.9398
347 2 2.2208 8.03561 15.0905 27.7436
456 2 2.2208 -0.300862 17.8513 16.4876
459 2 2.2208 13.7373 -1.90965 16.5102
371 2 2.2208 -0.332471 17.9226 27.8389
460 2 2.2208 13.7192 20.4549 16.3184
430 2 2.2208 13.656 14.9884 22.0391
421 2 2.2208 -0.378131 6.65332 22.0851
362 2 2.2208 8.02818 17.7247 13.6584
373 2 2.2208 2.60098 15.04 27.6908
358 2 2.2208 5.13352 20.6288 13.579
383 2 2.2208 -0.279756 6.61486 27.6684
372 2 2.2208 8.11996 3.8047 27.8186
378 2 2.2208 13.7564 3.84168 27.7682
361 2 2.2208 10.9458 14.8931 13.5595
341 2 2.2208 5.29731 3.81279 13.6486
353 2 2.2208 2.41724 12.2352 13.5832
343 2 2.2208 8.06722 0.961341 13.7778
355 2 2.2208 10.9826 9.36113 13.727
721 2 2.2208 5.30948 23.4655 5.2302
722 2 2.2208 5.2459 29.0438 5.24165
723 1 -1.1104 0.926838 24.8855 0.926877
724 1 -1.1104 0.99028 24.7917 3.84443
725 1 -1.1104 1.06841 21.9693 0.95321
726 1 -1.1104 1.05224 27.5882 1.12233
727 2 2.2208 5.25155 26.3959 2.45379
728 1 -1.1104 1.04795 22.0295 3.78458
729 1 -1.1104 1.14964 27.8085 3.98744
730 1 -1.1104 3.87087 24.931 0.977599
731 2 2.2208 2.41192 23.3355 2.3167
732 2 2.2208 2.37291 29.1308 2.46313
733 1 -1.1104 3.88074 24.7829 3.75962
734 2 2.2208 2.48419 26.2727 5.25776
735 1 -1.1104 3.95981 22.1224 0.835921
736 1 -1.1104 3.88056 27.7038 1.06915
737 1 -1.1104 3.89614 21.9177 3.70039
738 1 -1.1104 3.76305 27.7156 3.9324
870 1 -1.1104 3.853 27.6588 6.65561
742 1 -1.1104 6.70421 24.8822 0.965858
744 1 -1.1104 6.69752 22.0643 0.982549
747 1 -1.1104 6.60906 27.7167 3.83486
866 1 -1.1104 6.84308 21.9948 6.56921
1611 1 -1.1104 0.954752 47.2462 6.85896
1618 1 -1.1104 0.9424 47.3151 9.59457
868 1 -1.1104 3.97358 24.8136 6.69408
959 3 0 13.772 34.2397 9.07955
1014 2 2.2208 7.98624 46.0737 7.9871
1066 2 2.2208 13.6817 23.4046 13.5752
746 1 -1.1104 6.7329 22.244 3.83051
745 1 -1.1104 6.67123 27.7007 1.03752
743 1 -1.1104 6.79342 24.8601 3.871
748 2 2.2208 10.8932 23.2586 5.26723
749 2 2.2208 10.9321 29.0371 5.20808
750 1 -1.1104 12.3164 24.7219 1.03735
751 1 -1.1104 12.3102 24.7085 3.93287
752 1 -1.1104 12.3707 22.0752 0.957748
753 1 -1.1104 12.3218 27.5388 0.852486
754 2 2.2208 10.8866 26.1612 2.40123
755 1 -1.1104 12.3045 21.9331 3.84226
756 1 -1.1104 12.1599 27.6053 3.61419
757 1 -1.1104 9.52625 24.9021 1.00135
758 2 2.2208 8.14942 23.3934 2.45758
759 2 2.2208 8.15541 29.0419 2.38736
760 1 -1.1104 9.5323 24.8155 3.86576
761 2 2.2208 8.23013 26.2172 5.25343
762 1 -1.1104 9.38859 22.0661 1.01239
763 1 -1.1104 9.56547 27.6455 0.996813
764 1 -1.1104 9.58947 21.8341 3.87793
765 1 -1.1104 9.48256 27.6061 3.818
897 1 -1.1104 12.382 27.54 6.59412
900 1 -1.1104 9.5698 27.6838 6.63001
898 1 -1.1104 9.56139 24.8391 6.62695
899 1 -1.1104 9.75064 21.8884 6.75748
867 1 -1.1104 6.71254 27.6403 6.59451
896 1 -1.1104 12.2007 21.9789 6.75738
895 1 -1.1104 12.3778 24.712 6.6898
993 1 -1.1104 6.55877 41.8074 9.55735
1044 2 2.2208 13.7168 45.8349 7.97386
769 2 2.2208 5.2343 34.6624 5.101
770 1 -1.1104 1.03234 30.4132 0.925903
771 1 -1.1104 1.01943 36.0039 1.03859
773 1 -1.1104 1.00614 30.5598 3.71906
774 1 -1.1104 0.934409 36.2187 3.86906
776 1 -1.1104 1.03377 33.1221 0.840651
777 2 2.2208 5.17454 31.9961 2.51096
778 2 2.2208 5.2694 37.4153 2.41784
779 1 -1.1104 0.959307 33.3952 3.74104
781 1 -1.1104 3.82612 30.5094 1.13059
782 1 -1.1104 3.8913 35.9929 0.892451
783 2 2.2208 2.35886 34.6786 2.40235
784 1 -1.1104 3.76478 30.5805 3.84543
785 1 -1.1104 3.72381 36.0308 3.71427
786 2 2.2208 2.34969 31.8468 5.16704
787 2 2.2208 2.54376 37.4627 5.20826
788 1 -1.1104 3.8358 33.2075 1.01603
789 1 -1.1104 3.61374 33.2618 3.89432
925 1 -1.1104 3.70427 30.3306 6.60674
922 1 -1.1104 6.56126 36.0009 6.51858
794 1 -1.1104 6.5358 30.4934 3.84068
780 1 -1.1104 6.66387 33.4167 3.71325
924 1 -1.1104 6.69636 33.2769 6.47773
772 1 -1.1104 6.66026 36.0347 1.08859
775 1 -1.1104 6.59166 36.072 3.84533
1071 2 2.2208 7.96303 43.2288 -0.383168
1006 2 2.2208 -0.432325 45.9193 10.939
1086 2 2.2208 10.8365 34.6258 -0.376643
795 1 -1.1104 6.61764 33.2698 0.923649
793 1 -1.1104 6.69529 30.478 1.04666
796 2 2.2208 10.9859 34.8023 5.35429
797 1 -1.1104 12.2803 30.3301 0.93695
798 1 -1.1104 12.2654 36.1474 0.938893
799 1 -1.1104 12.2732 30.4494 3.77468
800 1 -1.1104 12.2318 36.0486 3.68853
801 1 -1.1104 12.4606 33.1732 0.923655
802 2 2.2208 10.8958 31.9581 2.50306
803 2 2.2208 10.8836 37.4592 2.29101
804 1 -1.1104 12.4078 33.3184 3.76148
805 1 -1.1104 9.38548 30.4145 0.822847
806 1 -1.1104 9.60197 36.1469 1.08288
807 2 2.2208 8.11244 34.6965 2.38575
808 1 -1.1104 9.4234 30.5326 3.76753
809 1 -1.1104 9.40886 36.223 3.79535
810 2 2.2208 8.09786 31.867 5.18137
811 2 2.2208 8.00575 37.5707 5.19535
812 1 -1.1104 9.53486 33.2493 0.882075