LAMMPS (29 Oct 2020)
OMP_NUM_THREADS environment is not set. Defaulting to 1 thread. (../comm.cpp:94)
  using 1 OpenMP thread(s) per MPI task
OMP_NUM_THREADS environment is not set. Defaulting to 1 thread. (../comm.cpp:94)
  using 1 OpenMP thread(s) per MPI task
Reading data file ...
  orthogonal box = (-0.27717828 -3.4472206 -0.27717828) to (27.617178 331.52722 27.617178)
  2 by 13 by 2 MPI processor grid
  reading atoms ...
  18000 atoms
  reading velocities ...
  18000 velocities
Finding 1-2 1-3 1-4 neighbors ...
  special bond factors lj:    0.0      0.0      0.0     
  special bond factors coul:  0.0      0.0      0.0     
     0 = max # of 1-2 neighbors
     0 = max # of 1-3 neighbors
     0 = max # of 1-4 neighbors
     1 = max # of special neighbors
  special bonds CPU = 0.003 seconds
  read_data CPU = 0.048 seconds
131 atoms in group sphere
8 atoms in group oxygen
3 atoms in group thorium
120 atoms in group cluster
6000 atoms in group Th
12000 atoms in group O
40 atoms in group Th_group
80 atoms in group O_group
Setting atom values ...
  40 settings made for type/subset
40 atoms in group Xe
80 atoms in group delete
WARNING: Ignoring 'compress yes' for molecular system (../delete_atoms.cpp:125)
Deleted 80 atoms, new total = 17920
131 atoms in group sphere
8 atoms in group oxygen
3 atoms in group thorium
120 atoms in group cluster
5960 atoms in group Th
11920 atoms in group O
40 atoms in group Th_group
80 atoms in group O_group
Setting atom values ...
  40 settings made for type/subset
80 atoms in group Xe
80 atoms in group delete
WARNING: Ignoring 'compress yes' for molecular system (../delete_atoms.cpp:125)
Deleted 80 atoms, new total = 17840
131 atoms in group sphere
8 atoms in group oxygen
3 atoms in group thorium
120 atoms in group cluster
5920 atoms in group Th
11840 atoms in group O
40 atoms in group Th_group
80 atoms in group O_group
Setting atom values ...
  40 settings made for type/subset
120 atoms in group Xe
80 atoms in group delete
WARNING: Ignoring 'compress yes' for molecular system (../delete_atoms.cpp:125)
Deleted 80 atoms, new total = 17760
Setting atom values ...
  11760 settings made for charge
Setting atom values ...
  5880 settings made for charge
Setting atom values ...
  120 settings made for charge
WARNING: 13 of 1000 force values in table Xe-Xe are inconsistent with -dE/dr.
  Should only be flagged at inflection points (../pair_table.cpp:461)
WARNING: 2 of 1000 force values in table Xe-O are inconsistent with -dE/dr.
  Should only be flagged at inflection points (../pair_table.cpp:461)
WARNING: 2 of 1000 force values in table Xe-Th are inconsistent with -dE/dr.
  Should only be flagged at inflection points (../pair_table.cpp:461)
PPPM initialization ...
  using 12-bit tables for long-range coulomb (../kspace.cpp:328)
  G vector (1/distance) = 0.29911239
  grid = 40 240 40
  stencil order = 5
  estimated absolute RMS force accuracy = 0.00015328544
  estimated relative force accuracy = 1.0645085e-05
  using single precision MKL FFT
  3d grid and FFT values/proc = 18225 7600
Neighbor list info ...
  update every 1 steps, delay 0 steps, check yes
  max neighbors/atom: 2000, page size: 100000
  master list distance cutoff = 13
  ghost atom cutoff = 13
  binsize = 6.5, bins = 5 52 5
  3 neighbor lists, perpetual/occasional/extra = 3 0 0
  (1) pair coul/long, perpetual
      attributes: half, newton on
      pair build: half/bin/newton
      stencil: half/bin/3d/newton
      bin: standard
  (2) pair eam/alloy, perpetual, skip from (1)
      attributes: half, newton on
      pair build: skip
      stencil: none
      bin: none
  (3) pair table, perpetual, skip from (1)
      attributes: half, newton on
      pair build: skip
      stencil: none
      bin: none
Setting up cg style minimization ...
  Unit style    : metal
  Current step  : 0
WARNING: Energy due to 3 extra global DOFs will be included in minimizer energies
Per MPI rank memory allocation (min/avg/max) = 10.35 | 10.99 | 11.16 Mbytes
Step Temp E_pair E_mol TotEng Press Volume 
       0            0   -231354.64            0   -231354.64    3560.6402    260641.98 
      16            0   -231503.01            0   -231503.01   -385.94784    261153.98 
Loop time of 0.770087 on 52 procs for 16 steps with 17760 atoms

98.5% CPU use with 52 MPI tasks x 1 OpenMP threads

Minimization stats:
  Stopping criterion = linesearch alpha is zero
  Energy initial, next-to-last, final = 
     -231354.643708306  -231503.013210556  -231503.013210556
  Force two-norm initial, final = 1048.0942 144.76179
  Force max component initial, final = 697.28728 66.961151
  Final line search alpha, max atom move = 5.7561396e-13 3.8543774e-11
  Iterations, force evaluations = 16 69

MPI task timing breakdown:
Section |  min time  |  avg time  |  max time  |%varavg| %total
---------------------------------------------------------------
Pair    | 0.40115    | 0.43094    | 0.46693    |   2.3 | 55.96
Bond    | 7.3444e-06 | 1.1348e-05 | 2.1303e-05 |   0.0 |  0.00
Kspace  | 0.14744    | 0.18353    | 0.21369    |   3.5 | 23.83
Neigh   | 0          | 0          | 0          |   0.0 |  0.00
Comm    | 0.014395   | 0.015181   | 0.015937   |   0.3 |  1.97
Output  | 0          | 0          | 0          |   0.0 |  0.00
Modify  | 0          | 0          | 0          |   0.0 |  0.00
Other   |            | 0.1404     |            |       | 18.23

Nlocal:        341.538 ave         404 max         297 min
Histogram: 9 5 5 6 7 6 7 4 1 2
Nghost:        5580.27 ave        5833 max        5357 min
Histogram: 11 5 1 4 4 3 8 12 2 2
Neighs:       108861.0 ave      130396 max       89512 min
Histogram: 3 5 6 6 8 7 7 4 4 2

Total # of neighbors = 5660796
Ave neighs/atom = 318.73851
Ave special neighs/atom = 0.0000000
Neighbor list builds = 0
Dangerous builds = 0
Resetting atom IDs ...
PPPM initialization ...
  using 12-bit tables for long-range coulomb (../kspace.cpp:328)
  G vector (1/distance) = 0.29908333
  grid = 40 240 40
  stencil order = 5
  estimated absolute RMS force accuracy = 0.00015348376
  estimated relative force accuracy = 1.0658857e-05
  using single precision MKL FFT
  3d grid and FFT values/proc = 18225 7600
Neighbor list info ...
  update every 1 steps, delay 0 steps, check yes
  max neighbors/atom: 2000, page size: 100000
  master list distance cutoff = 13
  ghost atom cutoff = 13
  binsize = 6.5, bins = 5 52 5
  3 neighbor lists, perpetual/occasional/extra = 3 0 0
  (1) pair coul/long, perpetual
      attributes: half, newton on
      pair build: half/bin/newton
      stencil: half/bin/3d/newton
      bin: standard
  (2) pair eam/alloy, perpetual, skip from (1)
      attributes: half, newton on
      pair build: skip
      stencil: none
      bin: none
  (3) pair table, perpetual, skip from (1)
      attributes: half, newton on
      pair build: skip
      stencil: none
      bin: none
Finding 1-2 1-3 1-4 neighbors ...
  special bond factors lj:    0.0      0.0      0.0     
  special bond factors coul:  0.0      0.0      0.0     
     0 = max # of 1-2 neighbors
     0 = max # of 1-3 neighbors
     0 = max # of 1-4 neighbors
     1 = max # of special neighbors
  special bonds CPU = 0.001 seconds
PPPM initialization ...
  using 12-bit tables for long-range coulomb (../kspace.cpp:328)
  G vector (1/distance) = 0.29908333
  grid = 40 240 40
  stencil order = 5
  estimated absolute RMS force accuracy = 0.00015348376
  estimated relative force accuracy = 1.0658857e-05
  using single precision MKL FFT
  3d grid and FFT values/proc = 18225 7600
Neighbor list info ...
  update every 1 steps, delay 0 steps, check yes
  max neighbors/atom: 2000, page size: 100000
  master list distance cutoff = 13
  ghost atom cutoff = 13
  binsize = 6.5, bins = 5 52 5
  3 neighbor lists, perpetual/occasional/extra = 3 0 0
  (1) pair coul/long, perpetual
      attributes: half, newton on
      pair build: half/bin/newton
      stencil: half/bin/3d/newton
      bin: standard
  (2) pair eam/alloy, perpetual, skip from (1)
      attributes: half, newton on
      pair build: skip
      stencil: none
      bin: none
  (3) pair table, perpetual, skip from (1)
      attributes: half, newton on
      pair build: skip
      stencil: none
      bin: none
Setting up Verlet run ...
  Unit style    : metal
  Current step  : 16
  Time step     : 0.001
Per MPI rank memory allocation (min/avg/max) = 9.224 | 9.924 | 10.04 Mbytes
Step Dt Time Atoms Temp PotEng KinEng Press Volume 
      16        0.001            0    17760          300   -231503.01    688.65927    2430.5972    261153.98 
   20000        0.001       19.984    17760    298.68895   -231124.79    685.64972    368.25896    263611.52 
   40000        0.001       39.984    17760     301.4651   -231139.51    692.02246   -294.33935    263614.26 
   60000        0.001       59.984    17760    301.79671   -231142.73    692.78368    143.05615    263601.38 
   80000        0.001       79.984    17760    298.68067   -231131.98    685.63072    422.87436    263547.95 
  100000        0.001       99.984    17760    302.09992   -231148.42    693.47971   -203.82141    263669.96 
  100016        0.001          100    17760    298.17883   -231140.72    684.47872    164.82524    263633.27 
Loop time of 813.667 on 52 procs for 100000 steps with 17760 atoms

Performance: 10.619 ns/day, 2.260 hours/ns, 122.900 timesteps/s
100.0% CPU use with 52 MPI tasks x 1 OpenMP threads

MPI task timing breakdown:
Section |  min time  |  avg time  |  max time  |%varavg| %total
---------------------------------------------------------------
Pair    | 476.26     | 494.12     | 513.35     |  39.1 | 60.73
Bond    | 0.0096512  | 0.017903   | 0.030425   |   3.7 |  0.00
Kspace  | 177.81     | 197.52     | 216.44     |  62.7 | 24.28
Neigh   | 0.93001    | 1.0319     | 1.1006     |   4.0 |  0.13
Comm    | 22.217     | 23.42      | 24.712     |  15.7 |  2.88
Output  | 0.029321   | 0.029351   | 0.030384   |   0.1 |  0.00
Modify  | 81.867     | 85.981     | 91.264     |  25.0 | 10.57
Other   |            | 11.55      |            |       |  1.42

Nlocal:        341.538 ave         367 max         321 min
Histogram: 2 6 7 9 10 5 5 3 3 2
Nghost:        5561.83 ave        5731 max        5374 min
Histogram: 16 2 2 0 7 1 0 0 6 18
Neighs:       108734.0 ave      119328 max       94857 min
Histogram: 2 3 1 3 4 15 11 7 3 3

Total # of neighbors = 5654156
Ave neighs/atom = 318.36464
Ave special neighs/atom = 0.0000000
Neighbor list builds = 349
Dangerous builds = 0
System init for write_data ...
PPPM initialization ...
  using 12-bit tables for long-range coulomb (../kspace.cpp:328)
  G vector (1/distance) = 0.29890367
  grid = 40 240 40
  stencil order = 5
  estimated absolute RMS force accuracy = 0.0001549514
  estimated relative force accuracy = 1.0760779e-05
  using single precision MKL FFT
  3d grid and FFT values/proc = 18225 7600
Neighbor list info ...
  update every 1 steps, delay 0 steps, check yes
  max neighbors/atom: 2000, page size: 100000
  master list distance cutoff = 13
  ghost atom cutoff = 13
  binsize = 6.5, bins = 5 52 5
  3 neighbor lists, perpetual/occasional/extra = 3 0 0
  (1) pair coul/long, perpetual
      attributes: half, newton on
      pair build: half/bin/newton
      stencil: half/bin/3d/newton
      bin: standard
  (2) pair eam/alloy, perpetual, skip from (1)
      attributes: half, newton on
      pair build: skip
      stencil: none
      bin: none
  (3) pair table, perpetual, skip from (1)
      attributes: half, newton on
      pair build: skip
      stencil: none
      bin: none
Total wall time: 0:13:35
