ITEM: TIMESTEP
60000
ITEM: NUMBER OF ATOMS
17700
ITEM: BOX BOUNDS pp pp pp
-4.4272765857930835e-01 2.7782727658579578e+01
-5.3206970039493759e+00 3.3340069700395054e+02
-4.4198631222070245e-01 2.7781986312220514e+01
ITEM: ATOMS id type q x y z
1 2 2.2208 5.43564 0.216484 5.37965
2 1 -1.1104 1.42809 -3.96989 0.914159
6 1 -1.1104 1.30937 -3.98479 3.98482
10 1 -1.1104 1.36394 -1.27541 1.25064
12 2 2.2208 5.47937 -2.66327 2.50247
14 1 -1.1104 1.08152 -1.49629 4.11525
16 1 -1.1104 4.18953 -4.35477 1.11953
18 2 2.2208 2.82419 0.272392 2.46447
19 1 -1.1104 3.95705 -4.24115 3.91226
21 2 2.2208 2.77905 -2.58914 5.17505
23 1 -1.1104 4.12423 -1.14396 0.99411
24 1 -1.1104 4.02089 -1.14726 3.73802
170 1 -1.1104 1.22185 -1.25949 6.87945
174 1 -1.1104 3.97245 -1.20602 6.4346
9272 2 2.2208 -0.0937732 -2.66633 2.49794
9275 2 2.2208 -0.215188 0.0854197 5.23175
318 2 2.2208 8.18014 19.9939 -0.250483
311 2 2.2208 11.1569 17.1526 -0.404542
4 1 -1.1104 6.8366 -4.10636 1.13516
8 1 -1.1104 6.81694 -4.20765 3.99737
15 1 -1.1104 6.78688 -1.18339 4.11201
11 1 -1.1104 6.6856 -1.16154 1.15694
31 2 2.2208 11.0801 0.0972611 5.41723
32 1 -1.1104 12.4023 -4.12819 0.942276
34 1 -1.1104 12.4375 -4.25007 3.73941
36 1 -1.1104 12.5782 -1.30491 1.20763
37 2 2.2208 11.0864 -2.72411 2.61344
39 1 -1.1104 12.3394 -1.44684 4.05819
40 1 -1.1104 9.7994 -4.08092 1.06576
42 2 2.2208 8.23231 0.238926 2.66423
43 1 -1.1104 9.68367 -4.1099 3.86383
45 2 2.2208 8.14958 -2.79841 5.34933
47 1 -1.1104 9.83011 -1.09345 1.25818
48 1 -1.1104 9.72609 -1.1672 3.96378
208 1 -1.1104 9.80618 -3.92272 6.62233
342 2 2.2208 5.33776 11.6514 -0.365057
171 1 -1.1104 6.86648 -1.25239 6.97005
337 2 2.2208 11.205 0.26875 -0.246743
9279 2 2.2208 -0.241221 5.95106 5.27454
334 2 2.2208 5.54179 0.142426 -0.367316
327 2 2.2208 8.15277 11.5426 13.655
3 1 -1.1104 1.23706 1.59611 0.943508
7 1 -1.1104 1.21231 1.62735 3.95817
13 2 2.2208 5.55496 3.04258 2.57469
17 1 -1.1104 4.31277 1.90169 0.921658
20 1 -1.1104 3.97456 1.77693 3.81865
22 2 2.2208 2.41748 3.24224 5.07269
54 2 2.2208 5.42471 5.84163 5.28579
60 1 -1.1104 1.0707 4.46947 1.05462
67 1 -1.1104 1.26457 4.67833 3.79959
71 1 -1.1104 3.67578 7.12854 0.859588
72 2 2.2208 2.55104 6.13835 2.46869
76 1 -1.1104 3.96154 4.59726 1.17817
79 1 -1.1104 3.8951 4.69761 4.05737
58 1 -1.1104 0.959745 7.4362 3.79373
74 1 -1.1104 3.90087 7.53002 3.78511
56 1 -1.1104 0.967641 7.33248 1.01857
9276 2 2.2208 -0.140074 3.17316 2.37715
236 1 -1.1104 1.18129 4.54567 6.55356
173 1 -1.1104 3.97513 1.57317 6.73729
167 1 -1.1104 1.27363 1.38632 6.45086
239 1 -1.1104 3.89145 4.21233 7.07557
9299 2 2.2208 -0.143818 17.2387 -0.208043
9 1 -1.1104 6.6425 1.46111 3.71704
57 1 -1.1104 6.5389 7.3881 0.939598
63 1 -1.1104 6.86821 4.54263 1.06112
59 1 -1.1104 6.75698 7.18019 3.7593
69 1 -1.1104 6.81389 4.38401 3.98766
5 1 -1.1104 7.13057 1.82383 0.873225
33 1 -1.1104 12.3949 1.59862 1.11304
35 1 -1.1104 12.5097 1.5515 4.02403
38 2 2.2208 11.1361 3.20866 2.41629
41 1 -1.1104 9.69791 1.95805 1.08585
44 1 -1.1104 9.67326 1.65947 3.87237
46 2 2.2208 8.33034 2.98308 5.20818
84 2 2.2208 10.9864 5.90092 5.29904
87 1 -1.1104 12.2879 7.28585 3.99033
88 1 -1.1104 12.5417 4.2258 1.0581
92 1 -1.1104 12.559 4.34336 3.91338
95 2 2.2208 8.17083 5.85571 2.33014
97 1 -1.1104 9.38565 7.19382 3.92251
99 1 -1.1104 9.70491 4.55147 0.901771
102 1 -1.1104 9.83914 4.47014 3.90276
86 1 -1.1104 12.2412 7.14368 1.18806
94 1 -1.1104 9.56573 7.21171 1.1065
206 1 -1.1104 12.464 1.54322 6.76548
237 1 -1.1104 6.67796 4.2732 6.69755
235 1 -1.1104 6.71274 7.33694 6.64954
265 1 -1.1104 12.7534 7.53655 6.73002
316 2 2.2208 5.28233 17.3301 -0.32069
30 2 2.2208 -0.0413483 -5.23217 5.41542
202 2 2.2208 2.93083 -5.30326 8.17918
55 2 2.2208 5.53279 11.3728 5.08669
61 1 -1.1104 0.761606 9.97729 0.858047
66 2 2.2208 5.28632 8.82612 2.44963
68 1 -1.1104 1.17596 10.4105 3.91771
73 2 2.2208 2.55367 11.6767 2.47385
75 2 2.2208 2.4114 8.71428 5.28694
77 1 -1.1104 3.84955 10.2045 1.09058
80 1 -1.1104 3.97693 9.94873 4.01084
107 1 -1.1104 1.03102 13.0671 0.756564
113 1 -1.1104 1.41128 13.1943 3.61974
123 1 -1.1104 4.06928 13.2238 0.918159
128 1 -1.1104 4.18906 12.8224 3.63952
314 2 2.2208 5.55001 3.0512 13.676
332 2 2.2208 11.091 14.3279 13.5996
82 2 2.2208 11.1698 14.4303 7.93095
289 1 -1.1104 6.87336 15.4971 9.72183
78 1 -1.1104 4.10047 10.0625 6.67428
124 1 -1.1104 4.05913 12.9283 6.65585
70 1 -1.1104 6.73822 10.0095 3.74599
64 1 -1.1104 6.90411 10.2375 0.692175
110 1 -1.1104 6.88925 13.0115 1.0435
115 1 -1.1104 6.90927 12.8502 3.88707
85 2 2.2208 10.9501 11.3492 5.34888
89 1 -1.1104 12.5201 10.0288 0.977146
91 2 2.2208 11.0256 8.73431 2.43035
93 1 -1.1104 12.3557 10.1065 3.93431
96 2 2.2208 8.35131 11.6644 2.48895
98 2 2.2208 8.21825 8.42168 5.23815
100 1 -1.1104 9.74032 10.0615 1.04766
103 1 -1.1104 9.586 10.1036 3.88067
142 1 -1.1104 12.5303 12.9202 1.1163
146 1 -1.1104 12.3192 12.8964 3.75472
153 1 -1.1104 9.61399 12.9457 0.967468
158 1 -1.1104 9.64211 12.9519 3.82348
143 1 -1.1104 12.4788 12.9557 6.58025
135 1 -1.1104 9.89317 18.7291 12.351
119 2 2.2208 5.42675 14.5139 2.31487
130 2 2.2208 2.48892 14.4427 5.34947
106 2 2.2208 5.32918 17.2434 5.31646
109 1 -1.1104 1.2981 18.64 1.04384
114 1 -1.1104 0.846963 18.9129 4.09811
116 1 -1.1104 1.31268 15.8594 1.02627
120 2 2.2208 5.15736 20.277 2.61925
121 1 -1.1104 1.10766 15.863 3.74675
125 1 -1.1104 3.97311 18.7748 1.0371
127 2 2.2208 2.5324 17.2813 2.35599
129 1 -1.1104 3.73264 18.5695 3.99944
131 2 2.2208 2.51846 20.3019 5.52456
132 1 -1.1104 4.2085 16.0698 1.30235
134 1 -1.1104 3.7154 15.8903 3.78651
9284 2 2.2208 -0.0924546 14.4506 2.34193
9286 2 2.2208 -0.281903 17.2564 5.26473
338 2 2.2208 8.35512 -2.65534 -0.325771
118 1 -1.1104 6.65937 15.8482 6.63308
25 2 2.2208 11.1939 17.153 10.9926
302 1 -1.1104 0.838772 18.5105 6.89471
27 1 -1.1104 12.567 18.5554 12.4849
83 2 2.2208 11.1929 20.0688 8.17664
138 1 -1.1104 6.80117 18.524 1.20416
122 1 -1.1104 6.68673 15.8352 3.86258
140 1 -1.1104 6.9504 15.6792 1.01454
139 1 -1.1104 6.56326 18.8289 3.97106
160 2 2.2208 8.05142 14.3556 5.05881
150 2 2.2208 11.0501 14.3848 2.49775
141 2 2.2208 10.8801 17.1844 5.13678
144 1 -1.1104 12.6681 18.7768 1.08314
147 1 -1.1104 12.5396 18.667 3.85794
148 1 -1.1104 12.5374 15.8257 1.14075
151 2 2.2208 10.953 20.0884 2.4828
152 1 -1.1104 12.439 15.7321 3.77147
155 1 -1.1104 9.69875 18.6556 1.0431
157 2 2.2208 8.14563 17.1954 2.45019
159 1 -1.1104 9.77215 18.7386 3.79358
161 2 2.2208 8.1742 20.1572 5.38506
162 1 -1.1104 9.68995 15.7936 0.970577
164 1 -1.1104 9.41976 15.785 3.65835
229 1 -1.1104 9.75951 15.7483 9.47481
50 1 -1.1104 12.573 18.6362 9.56851
201 1 -1.1104 9.83496 15.7503 12.1994
9289 2 2.2208 -0.117291 -2.63674 8.19329
156 1 -1.1104 9.53685 18.6132 6.47246
172 1 -1.1104 4.28898 -3.8246 6.70024
166 1 -1.1104 1.35534 -3.97809 6.83919
9285 2 2.2208 -0.36734 20.0582 2.6262
9290 2 2.2208 -0.228711 0.187673 11.1583
175 2 2.2208 5.72607 0.235312 11.0191
176 1 -1.1104 1.27204 -3.84083 12.3517
180 1 -1.1104 1.23912 -3.75235 9.5558
184 1 -1.1104 1.30066 -1.04854 12.345
186 2 2.2208 5.68278 -2.64753 8.2086
188 1 -1.1104 1.14622 -1.04695 9.74944
190 1 -1.1104 4.21646 -4.06541 12.4995
192 2 2.2208 2.67897 0.148459 8.22843
193 1 -1.1104 4.35768 -4.13251 9.47884
195 2 2.2208 2.58609 -2.39358 10.8393
197 1 -1.1104 4.11984 -1.25422 12.2241
198 1 -1.1104 4.15924 -1.35253 9.17774
182 1 -1.1104 7.08561 -4.00905 9.55111
168 1 -1.1104 7.0759 -4.27835 6.72568
189 1 -1.1104 7.03768 -1.22693 9.67888
207 1 -1.1104 12.5081 -1.2957 6.70369
178 1 -1.1104 6.96146 -4.17814 12.5196
185 1 -1.1104 7.03617 -1.13858 12.5932
205 1 -1.1104 12.3059 -4.06937 6.63396
210 1 -1.1104 9.71454 -1.06135 6.81941
211 2 2.2208 11.1157 0.406242 10.8992
212 1 -1.1104 12.6437 -4.14593 12.2451
214 1 -1.1104 12.276 -4.18387 9.46481
216 1 -1.1104 12.5553 -1.2964 12.466
217 2 2.2208 11.1264 -2.59276 8.0883
219 1 -1.1104 12.5065 -1.23902 9.52964
220 1 -1.1104 9.79983 -3.97505 12.4023
222 2 2.2208 8.25664 0.140302 8.25414
223 1 -1.1104 9.65306 -4.20417 9.45285
225 2 2.2208 8.51126 -2.71207 11.2296
227 1 -1.1104 9.94626 -1.1533 12.2657
228 1 -1.1104 9.84308 -1.35278 9.529
9203 2 2.2208 -0.27133 5.86623 10.8858
234 1 -1.1104 0.883661 7.21999 6.81229
238 1 -1.1104 3.79295 7.15771 6.38845
191 1 -1.1104 4.11968 1.58328 12.5088
177 1 -1.1104 1.25338 1.67091 12.3788
181 1 -1.1104 1.11533 1.4821 9.42171
187 2 2.2208 5.41679 2.77244 8.2071
194 1 -1.1104 3.86858 1.47416 9.68921
196 2 2.2208 2.49296 2.93899 10.8374
240 2 2.2208 5.58768 5.79769 10.8997
242 1 -1.1104 1.52311 7.37533 12.4285
246 1 -1.1104 1.26259 4.56033 12.1458
251 1 -1.1104 1.14894 4.30549 9.27599
256 2 2.2208 2.63749 5.67329 8.14606
260 1 -1.1104 4.14611 4.57443 12.4999
262 1 -1.1104 4.111 4.30833 9.84909
258 1 -1.1104 4.25068 7.12536 9.40558
255 1 -1.1104 4.23534 7.42522 12.1821
244 1 -1.1104 1.31795 7.33939 9.66978
9288 2 2.2208 -0.0536531 2.87745 7.87659
169 1 -1.1104 6.70811 1.4449 6.81453
209 1 -1.1104 9.72607 1.65217 6.69262
248 1 -1.1104 6.97032 4.62386 12.3979
266 1 -1.1104 12.3443 4.64217 6.86014
269 1 -1.1104 9.397 4.23968 6.76736
253 1 -1.1104 6.92722 4.29405 9.35548
179 1 -1.1104 6.9296 1.62552 12.4581
183 1 -1.1104 6.87397 1.63183 9.64584
245 1 -1.1104 6.96348 7.28888 9.53632
267 1 -1.1104 9.74631 7.27533 6.74882
213 1 -1.1104 12.6646 1.57257 12.1396
215 1 -1.1104 12.6875 1.60037 9.5624
218 2 2.2208 11.3179 2.99051 8.14698
221 1 -1.1104 9.83205 1.77301 12.5702
224 1 -1.1104 9.77544 1.74898 9.7245
226 2 2.2208 8.5646 3.29175 10.8559
268 1 -1.1104 9.91279 4.39806 9.40352
271 1 -1.1104 9.71663 4.68461 12.3783
275 2 2.2208 8.1759 5.87345 7.91618
276 2 2.2208 11.2098 5.82038 10.7681
278 1 -1.1104 12.5447 7.37534 12.4096
279 1 -1.1104 12.6234 7.22594 9.65349
280 1 -1.1104 12.5724 4.34055 12.314
283 1 -1.1104 12.8042 4.55386 9.48062
285 1 -1.1104 9.55431 7.22449 12.3455
273 1 -1.1104 9.93509 7.17277 9.4197
243 1 -1.1104 6.71985 7.40133 12.3674
288 1 -1.1104 7.05794 18.4729 9.6224
9331 2 2.2208 -0.246154 14.2144 13.6353
62 1 -1.1104 1.24665 9.83615 6.85585
9202 2 2.2208 -0.138039 8.742 8.17262
108 1 -1.1104 1.15573 12.7886 6.68801
241 2 2.2208 5.41625 11.3745 10.8711
247 1 -1.1104 1.24676 10.2698 12.4518
250 2 2.2208 5.26946 8.59284 8.0133
252 1 -1.1104 1.36332 9.94192 9.54088
257 2 2.2208 2.74847 11.4174 7.96463
259 2 2.2208 2.98821 8.68503 10.9123
261 1 -1.1104 4.03047 10.1017 12.3142
263 1 -1.1104 4.04916 10.0562 9.44565
287 1 -1.1104 3.97574 12.8891 12.3469
294 1 -1.1104 1.24673 12.6284 9.40534
299 1 -1.1104 1.21419 13.011 12.1893
305 1 -1.1104 4.04129 12.9578 9.42504
90 1 -1.1104 12.4915 10.1734 6.96822
111 1 -1.1104 6.92557 12.8746 6.59487
65 1 -1.1104 6.79119 9.75669 6.72968
297 1 -1.1104 6.84864 12.8952 12.1939
249 1 -1.1104 6.61455 10.3852 12.4293
254 1 -1.1104 6.94982 9.97668 9.55691
101 1 -1.1104 9.70888 10.0381 6.81598
154 1 -1.1104 9.53692 12.7425 6.48155
290 1 -1.1104 6.81248 12.7519 9.33007
137 1 -1.1104 9.57822 12.964 9.477
49 1 -1.1104 12.2849 12.9483 9.59324
105 1 -1.1104 9.52402 12.8803 12.2879
26 1 -1.1104 12.3931 13.0058 12.417
264 1 -1.1104 9.78776 10.0565 9.71299
270 1 -1.1104 9.62794 10.151 12.5135
272 2 2.2208 8.15964 8.69065 11.0557
274 2 2.2208 8.25132 11.4128 7.9474
277 2 2.2208 10.9516 11.5942 11.0502
281 1 -1.1104 12.4307 10.1083 12.3139
282 2 2.2208 11.1085 8.74004 8.17711
284 1 -1.1104 12.5002 10.194 9.64443
199 2 2.2208 8.38282 14.2249 10.8884
126 1 -1.1104 3.7721 18.6443 6.99663
117 1 -1.1104 0.945036 15.8034 6.53613
9294 2 2.2208 -0.252226 17.2077 10.9338
9295 2 2.2208 -0.204959 19.9564 8.10413
9293 2 2.2208 -0.236469 14.3583 8.12871
133 1 -1.1104 3.73815 15.7999 6.41993
295 2 2.2208 5.51972 14.1537 7.86677
230 2 2.2208 2.74732 14.2463 10.7312
286 1 -1.1104 3.80627 18.3928 12.4704
291 1 -1.1104 1.32104 18.6358 9.4827
292 1 -1.1104 1.34843 15.5122 9.2519
293 2 2.2208 5.44056 19.9086 8.31362
298 1 -1.1104 1.27021 18.356 12.1535
300 2 2.2208 5.39683 16.992 11.1378
301 1 -1.1104 4.36331 18.6809 9.91484
303 2 2.2208 2.52657 17.1624 8.17751
304 1 -1.1104 4.02707 15.7476 9.30553
307 1 -1.1104 1.10483 15.6362 12.0505
308 1 -1.1104 3.88787 15.6633 12.3647
309 2 2.2208 2.65302 19.9659 10.88
296 1 -1.1104 6.70093 18.36 12.5495
200 2 2.2208 8.15383 19.8804 10.9672
136 2 2.2208 8.32693 17.0688 8.08065
149 1 -1.1104 12.4714 15.673 6.47829
112 1 -1.1104 6.63121 18.4751 6.71149
81 1 -1.1104 12.5908 15.8235 12.1389
104 1 -1.1104 12.5324 15.7598 9.32775
163 1 -1.1104 9.51144 15.6695 6.67079
306 1 -1.1104 6.76833 15.7183 12.4017
145 1 -1.1104 12.2843 18.5383 6.77716
165 1 -1.1104 9.57295 18.4202 9.39277
336 2 2.2208 2.70444 3.12766 -0.241193
310 2 2.2208 8.25738 14.2849 -0.311296
317 2 2.2208 2.33398 20.2453 -0.381446
9195 2 2.2208 -0.117894 11.4373 11.0136
328 2 2.2208 2.44089 17.0308 13.5958
9314 2 2.2208 -0.279778 0.371784 -0.227383
9306 2 2.2208 -0.201722 3.1264 13.6005
9307 2 2.2208 -0.335409 11.6733 -0.329762
9317 2 2.2208 -0.152885 -2.47342 13.6729
346 2 2.2208 5.47368 0.234083 16.7227
347 1 -1.1104 1.28457 -4.04245 18.0177
351 1 -1.1104 1.42978 -4.10701 15.1717
359 1 -1.1104 1.32273 -1.05337 18.0388
361 2 2.2208 5.4493 -2.70837 19.3747
363 1 -1.1104 1.23251 -1.26556 15.3378
367 1 -1.1104 4.14074 -4.06801 18.0305
369 2 2.2208 2.61061 0.235877 19.3702
370 1 -1.1104 4.09392 -3.86668 15.3195
374 2 2.2208 2.69431 -2.3816 16.607
376 1 -1.1104 4.2251 -1.25125 17.9503
377 1 -1.1104 4.24086 -1.07178 14.9166
9494 2 2.2208 -0.0995199 0.37895 16.5199
383 2 2.2208 -0.0679189 -2.5291 19.3661
9332 2 2.2208 -0.246457 20.0051 13.6897
364 1 -1.1104 1.01854 -1.0551 20.7662
371 1 -1.1104 3.90283 -4.04019 21.0275
355 1 -1.1104 7.13016 -4.38384 15.3288
360 1 -1.1104 6.89318 -1.28609 17.9512
349 1 -1.1104 6.83522 -4.34881 18.152
365 1 -1.1104 7.15044 -1.14769 15.3296
389 2 2.2208 11.2534 0.282576 16.5345
390 1 -1.1104 12.5211 -3.79744 17.8632
392 1 -1.1104 12.8161 -4.10465 15.1162
396 1 -1.1104 12.6419 -0.937764 17.9575
397 2 2.2208 11.1782 -2.61645 19.4559
399 1 -1.1104 12.6254 -1.26687 15.1604
401 1 -1.1104 9.61523 -3.97815 17.9493
403 2 2.2208 8.35742 0.300814 19.316
404 1 -1.1104 9.96774 -4.16905 15.2515
408 2 2.2208 8.32726 -2.6436 16.5621
410 1 -1.1104 9.7254 -1.13849 17.8715
411 1 -1.1104 9.80894 -1.4067 15.0718
329 2 2.2208 5.32671 19.8395 13.7564
366 1 -1.1104 6.72418 -1.29644 20.7148
382 1 -1.1104 9.54789 15.6382 26.3633
9379 2 2.2208 -0.147088 14.2924 24.9322
9492 2 2.2208 -0.189721 5.90185 16.4345
348 1 -1.1104 1.29707 1.64922 17.9955
353 1 -1.1104 1.1144 1.56803 14.9371
362 2 2.2208 5.35736 2.93564 19.3446
368 1 -1.1104 3.97128 1.51435 18.0595
372 1 -1.1104 4.03982 1.55488 15.1946
375 2 2.2208 2.69293 3.02747 16.6301
422 2 2.2208 5.26239 5.9215 16.5552
424 1 -1.1104 1.16215 7.29602 17.7676
430 1 -1.1104 1.1403 4.4244 18.1656
435 1 -1.1104 1.14521 4.3395 15.1521
444 2 2.2208 2.49034 5.8535 19.3411
449 1 -1.1104 3.91544 4.51256 17.9845
451 1 -1.1104 3.81506 4.44981 15.3012
426 1 -1.1104 1.07285 7.30807 15.1338
443 1 -1.1104 3.79242 7.25796 17.9273
446 1 -1.1104 3.82265 7.47961 15.1834
9419 2 2.2208 -0.21897 2.97787 19.3919
325 2 2.2208 8.22255 5.89649 13.799
354 1 -1.1104 1.22889 1.70131 20.6433
373 1 -1.1104 3.86537 1.47895 20.9397
544 1 -1.1104 9.56565 15.8826 20.9256
579 2 2.2208 5.54845 -5.3436 22.1091
428 1 -1.1104 6.75185 7.23841 15.2125
350 1 -1.1104 7.02347 1.67272 18.007
432 1 -1.1104 6.72849 4.34217 18.1587
439 1 -1.1104 6.69176 4.38543 15.3098
425 1 -1.1104 6.61942 7.34714 17.8163
357 1 -1.1104 6.74623 1.57319 15.3191
391 1 -1.1104 12.6163 1.81273 17.7719
394 1 -1.1104 12.8383 1.67846 15.0747
398 2 2.2208 11.127 2.95008 19.3076
402 1 -1.1104 9.89195 1.603 17.9932
406 1 -1.1104 9.84506 1.52946 15.204
409 2 2.2208 8.20636 3.0494 16.6136
458 2 2.2208 11.0929 5.75141 16.4229
463 1 -1.1104 12.5375 4.50873 17.7616
466 1 -1.1104 12.6265 4.57854 15.2358
471 2 2.2208 8.30963 5.83418 19.3172
476 1 -1.1104 9.64998 4.35586 18.0016
478 1 -1.1104 9.68713 4.28865 15.1324
473 1 -1.1104 9.78563 7.12692 15.1715
460 1 -1.1104 12.6852 7.50231 18.0117
470 1 -1.1104 9.55949 7.18285 17.899
461 1 -1.1104 12.5849 7.30492 15.1326
474 1 -1.1104 9.48347 7.32632 20.8572
358 1 -1.1104 6.78686 1.76007 20.721
462 1 -1.1104 12.3223 7.44997 20.6601
9457 2 2.2208 -0.203751 11.4105 16.5613
423 2 2.2208 5.30759 11.5298 16.6525
431 1 -1.1104 1.14185 10.0577 18.0607
434 2 2.2208 5.48277 8.71783 19.289
437 1 -1.1104 1.18883 10.0198 15.1248
445 2 2.2208 2.46994 11.4583 19.3883
448 2 2.2208 2.44978 8.65867 16.6254
450 1 -1.1104 4.07924 10.0709 17.9459
453 1 -1.1104 3.91406 10.1755 15.0257
486 1 -1.1104 1.04535 12.9274 17.956
490 1 -1.1104 1.154 12.9535 15.1767
506 1 -1.1104 3.89246 12.802 18.0051
509 1 -1.1104 4.02618 12.9476 15.367
339 2 2.2208 8.36725 2.91941 27.6987
379 2 2.2208 -0.0477944 -5.23119 16.3254
9491 2 2.2208 -0.371696 8.64524 19.4726
438 1 -1.1104 1.07514 9.94796 20.7192
345 2 2.2208 8.22503 8.84138 27.6712
494 1 -1.1104 7.02223 12.9184 14.942
433 1 -1.1104 6.95486 10.2478 17.8947
488 1 -1.1104 6.92229 12.9334 17.7517
441 1 -1.1104 6.9276 9.96232 15.1466
459 2 2.2208 11.0912 11.5219 16.3948
464 1 -1.1104 12.2789 10.0108 18.0471
465 2 2.2208 10.9571 8.74383 19.2655
468 1 -1.1104 12.5092 10.2075 15.1959
472 2 2.2208 8.25458 11.5922 19.3662
475 2 2.2208 8.26874 8.74454 16.577
477 1 -1.1104 9.54216 9.97728 18.044
480 1 -1.1104 9.77304 9.95704 15.1764
522 1 -1.1104 12.4462 12.8944 17.9205
524 1 -1.1104 12.7121 12.9386 15.0409
533 1 -1.1104 9.82614 12.9669 17.9961
536 1 -1.1104 9.96592 13.0402 15.1894
323 2 2.2208 5.40671 8.71988 13.7617
313 2 2.2208 2.76086 0.251556 13.6612
312 2 2.2208 5.59515 -2.64084 13.8111
319 2 2.2208 8.47077 0.250588 13.8378
9561 2 2.2208 -0.315516 20.1 19.3077
610 1 -1.1104 12.4053 18.4057 26.4703
9562 2 2.2208 -0.202591 14.2608 19.5948
9563 2 2.2208 -0.298154 17.2112 16.6386
384 1 -1.1104 9.74541 15.6156 23.6828
500 2 2.2208 5.47565 14.321 19.1488
513 2 2.2208 2.55873 14.446 16.4036
485 2 2.2208 5.51749 17.1434 16.6228
487 1 -1.1104 1.11778 18.5579 17.7727
492 1 -1.1104 0.930455 18.3875 15.0389
498 1 -1.1104 1.09545 15.7532 17.7506
501 2 2.2208 5.4831 20.0018 19.2335
502 1 -1.1104 0.888794 15.6947 14.9737
507 1 -1.1104 3.89477 18.4796 18.0752
508 2 2.2208 2.48232 17.1986 19.2274
511 1 -1.1104 3.90084 18.545 15.3565
514 2 2.2208 2.72943 20.0045 16.5666
515 1 -1.1104 4.03378 15.8346 18.0104
516 1 -1.1104 4.09449 15.7014 15.332
331 2 2.2208 11.1821 20.0903 13.8226
611 1 -1.1104 12.3055 15.759 23.5997
330 2 2.2208 5.48649 14.4132 13.8848
320 2 2.2208 11.2169 -2.71319 13.763
504 1 -1.1104 6.91557 15.7207 15.3147
499 1 -1.1104 6.84716 15.5928 17.9389
496 1 -1.1104 6.69529 18.5434 15.1746
489 1 -1.1104 6.88532 18.4587 18.0346
529 2 2.2208 11.0035 14.4624 19.4559
540 2 2.2208 8.32916 14.3446 16.4212
521 2 2.2208 11.1945 17.0991 16.4984
523 1 -1.1104 12.7343 18.5668 17.97
526 1 -1.1104 12.4673 18.8261 15.2985
528 1 -1.1104 12.3949 15.6279 18.0877
530 2 2.2208 11.1002 19.9738 19.3953
531 1 -1.1104 12.6305 15.6298 15.2224
534 1 -1.1104 9.80954 18.7305 17.9637
535 2 2.2208 8.22651 17.1831 19.3517
538 1 -1.1104 9.47158 18.563 15.0939
541 2 2.2208 8.21076 20.1794 16.6872
542 1 -1.1104 9.71289 15.8346 17.9341
543 1 -1.1104 9.77641 15.7374 15.0535
532 1 -1.1104 12.3521 15.933 20.792
352 1 -1.1104 0.994842 -3.88165 20.8614
326 2 2.2208 11.036 8.6715 13.7064
9453 2 2.2208 -0.275046 0.298383 22.0959
582 2 2.2208 -0.111191 -2.56723 24.9887
378 1 -1.1104 3.82985 -1.29546 20.851
549 2 2.2208 5.33844 0.148051 22.2306
550 1 -1.1104 1.46161 -3.94453 23.7335
554 1 -1.1104 1.06358 -3.73602 26.5586
558 1 -1.1104 1.11963 -1.0958 23.5451
560 2 2.2208 5.45752 -2.50146 25.0856
562 1 -1.1104 0.841501 -1.16505 26.4938
564 1 -1.1104 4.11085 -4.03455 23.781
566 2 2.2208 2.50909 0.270787 25.0808
567 1 -1.1104 4.10102 -4.23672 26.4716
569 2 2.2208 2.38885 -2.39811 22.2882
571 1 -1.1104 3.97286 -1.36551 23.7057
572 1 -1.1104 3.91435 -1.27391 26.3339
356 1 -1.1104 6.7765 -3.97922 20.7597
556 1 -1.1104 6.94203 -3.95003 26.3448
400 1 -1.1104 12.3706 -1.25545 20.7927
563 1 -1.1104 6.83636 -1.19326 26.4751
552 1 -1.1104 6.87879 -3.98515 23.6906
393 1 -1.1104 12.4234 -4.18504 20.8497
405 1 -1.1104 9.71689 -4.11965 20.677
559 1 -1.1104 6.7083 -1.19635 23.4982
412 1 -1.1104 9.4218 -1.09513 20.8799
585 2 2.2208 11.0412 0.139313 22.1641
586 1 -1.1104 12.5017 -4.03415 23.4765
588 1 -1.1104 12.6421 -4.02235 26.4682
590 1 -1.1104 12.4111 -1.12566 23.7533
591 2 2.2208 11.1808 -2.76036 25.0893
593 1 -1.1104 12.6872 -1.36672 26.4301
594 1 -1.1104 9.66588 -3.86738 23.4937
596 2 2.2208 8.23367 0.0817588 25.141
597 1 -1.1104 9.66014 -4.26981 26.4918
599 2 2.2208 8.20194 -2.61772 22.2285
601 1 -1.1104 9.75043 -1.38455 23.6579
602 1 -1.1104 9.65255 -1.38143 26.6168
452 1 -1.1104 4.10229 4.18417 20.8906
9670 2 2.2208 -0.305301 5.9567 22.3232
9449 2 2.2208 -0.278428 3.05899 24.9659
436 1 -1.1104 1.24725 4.50322 20.8996
427 1 -1.1104 1.11761 7.16838 20.6501
447 1 -1.1104 4.13291 7.25008 20.6393
551 1 -1.1104 1.23359 1.71036 23.6507
555 1 -1.1104 0.908354 1.72747 26.3359
561 2 2.2208 5.31612 3.11853 25.1111
565 1 -1.1104 4.2586 1.619 23.7204
568 1 -1.1104 4.06861 1.51046 26.2507
570 2 2.2208 2.64624 3.18686 22.2918
614 2 2.2208 5.49422 5.89791 22.1437
616 1 -1.1104 1.18069 7.28729 23.5086
618 1 -1.1104 1.08304 7.42377 26.2869
620 1 -1.1104 1.36043 4.43793 23.6957
625 1 -1.1104 1.13057 4.51117 26.4018
630 2 2.2208 2.67033 5.89991 25.0112
632 1 -1.1104 3.87003 7.27792 26.3753
634 1 -1.1104 4.19885 4.51246 23.4994
636 1 -1.1104 4.12578 4.51834 26.6136
629 1 -1.1104 3.98678 7.35912 23.4713
429 1 -1.1104 6.7863 7.21695 20.9647
407 1 -1.1104 9.66197 1.6262 20.9232
440 1 -1.1104 6.66292 4.36019 20.9092
479 1 -1.1104 9.73112 4.45331 20.8232
627 1 -1.1104 6.73891 4.38633 26.4144
395 1 -1.1104 12.5465 1.80703 20.4875
557 1 -1.1104 6.85455 1.3586 26.4359
553 1 -1.1104 6.83948 1.47804 23.6581
622 1 -1.1104 7.04002 4.41144 23.8365
617 1 -1.1104 6.8377 7.30315 23.6502
467 1 -1.1104 12.7063 4.78253 21.0156
587 1 -1.1104 12.4975 1.55166 23.4922
589 1 -1.1104 12.3776 1.5243 26.4187
592 2 2.2208 11.0192 2.86631 24.9323
595 1 -1.1104 9.62042 1.51898 23.9476
598 1 -1.1104 9.66133 1.34831 26.5885
600 2 2.2208 8.15864 3.06715 22.0859
646 1 -1.1104 9.62385 4.31307 26.0019
648 1 -1.1104 9.78871 4.37101 23.3903
652 2 2.2208 8.3036 5.90647 25.0066
653 2 2.2208 11.1199 5.96211 22.2269
657 1 -1.1104 12.4367 4.30498 23.6644
660 1 -1.1104 12.4731 4.37139 26.4858
662 1 -1.1104 9.59267 7.13442 23.6773
655 1 -1.1104 12.4628 7.23791 23.7077
656 1 -1.1104 12.6997 7.09684 26.5781
650 1 -1.1104 9.69875 7.47603 26.416
619 1 -1.1104 6.57578 7.15572 26.4091
454 1 -1.1104 4.03968 9.96754 20.6318
9421 2 2.2208 -0.212208 11.5316 22.2483
9422 2 2.2208 -0.206573 8.98284 24.9964
491 1 -1.1104 1.06533 12.7784 20.7258
510 1 -1.1104 3.84315 12.8135 20.7931
615 2 2.2208 5.27772 11.4422 22.0363
621 1 -1.1104 1.31126 10.181 23.5172
624 2 2.2208 5.35253 8.59403 24.9633
626 1 -1.1104 1.29046 10.2136 26.4935
631 2 2.2208 2.53427 11.4589 24.8839
633 2 2.2208 2.55092 8.62338 22.1568
635 1 -1.1104 3.99713 10.2434 23.5879
637 1 -1.1104 4.15322 10.0235 26.5423
455 1 -1.1104 4.05544 12.7787 26.3233
484 1 -1.1104 1.17967 12.9882 23.3867
547 1 -1.1104 1.22929 13.0316 26.2298
603 1 -1.1104 3.91088 13.0814 23.6222
537 1 -1.1104 9.65722 12.765 20.7585
469 1 -1.1104 12.608 10.3154 20.862
442 1 -1.1104 6.89724 10.06 20.6902
628 1 -1.1104 7.05974 10.0719 26.0657
623 1 -1.1104 6.66869 10.0687 23.3159
495 1 -1.1104 6.91615 12.8517 20.811
604 1 -1.1104 6.82663 12.8564 26.246
519 1 -1.1104 6.69675 13.1454 23.6055
525 1 -1.1104 12.3246 13.1285 20.8054
481 1 -1.1104 9.86304 10.0915 20.7461
642 1 -1.1104 9.53876 12.7265 23.5429
639 1 -1.1104 9.60799 12.7613 26.4062
645 1 -1.1104 9.80908 10.0831 26.3722
647 1 -1.1104 9.58022 9.92245 23.5788
649 2 2.2208 8.29542 8.6214 22.1197
651 2 2.2208 8.07858 11.4789 24.8285
654 2 2.2208 10.9146 11.617 22.0205
658 1 -1.1104 12.4487 10.1787 23.7944
659 2 2.2208 11.123 8.81272 25.0076
661 1 -1.1104 12.4862 10.0676 26.5001
581 1 -1.1104 12.3933 13.1375 23.6075
584 1 -1.1104 12.3794 12.9067 26.4997
387 2 2.2208 8.11915 14.4566 22.1755
548 2 2.2208 10.951 17.1751 22.3634
333 2 2.2208 8.41811 17.2392 13.7308
315 2 2.2208 2.58654 14.4059 27.6648
503 1 -1.1104 1.18 15.7133 20.789
517 1 -1.1104 4.01793 15.4232 20.6733
512 1 -1.1104 4.00136 18.6069 20.7939
493 1 -1.1104 1.20538 18.4654 20.8858
388 2 2.2208 2.47908 14.3716 22.2662
520 2 2.2208 5.34749 14.4008 25.0693
605 1 -1.1104 3.9474 18.6003 23.6449
417 2 2.2208 2.60429 19.8617 22.1378
419 1 -1.1104 3.91587 15.7913 23.5177
420 1 -1.1104 0.821931 15.9921 23.5437
456 1 -1.1104 3.75957 15.9556 26.4467
457 2 2.2208 2.32273 17.3243 25.0967
482 1 -1.1104 3.70201 18.703 26.6896
483 2 2.2208 5.27935 17.1478 22.1247
518 1 -1.1104 1.04115 18.5354 23.6632
545 2 2.2208 5.31766 19.9783 25.2074
573 1 -1.1104 0.991299 15.7303 26.4774
574 1 -1.1104 1.07238 18.7016 26.5858
9378 2 2.2208 -0.45608 20.2067 25.0411
643 1 -1.1104 9.74512 18.4009 23.8303
505 1 -1.1104 6.8016 15.7679 20.6959
640 1 -1.1104 6.64418 18.5449 26.6649
612 2 2.2208 10.8695 14.3081 24.9807
583 1 -1.1104 12.4382 18.6608 23.6162
641 1 -1.1104 12.473 15.5983 26.6991
539 1 -1.1104 9.64029 18.6241 21.0528
497 1 -1.1104 6.65203 18.4633 20.7099
638 1 -1.1104 9.46444 18.4626 26.5173
527 1 -1.1104 12.4728 18.5099 20.7561
546 1 -1.1104 6.80825 18.6314 23.6947
386 2 2.2208 8.17527 19.904 22.2507
575 1 -1.1104 6.58743 15.7592 26.4654
644 2 2.2208 8.29066 17.1509 25.1391
613 2 2.2208 11.0294 20.0304 25.1836
421 1 -1.1104 6.93922 15.9255 23.568
341 2 2.2208 2.42815 8.66846 27.7434
9323 2 2.2208 -0.243284 8.5037 13.6678
321 2 2.2208 11.2513 3.07162 13.8076
344 2 2.2208 11.0439 11.6116 27.7351
9377 2 2.2208 -0.344589 17.2268 22.145
9304 2 2.2208 -0.302656 5.99334 27.6944
324 2 2.2208 2.61591 11.5147 13.7797
322 2 2.2208 2.62526 5.82937 13.7579
340 2 2.2208 5.36177 5.92903 27.727
335 2 2.2208 2.5529 -2.61046 27.6857
343 2 2.2208 10.9409 5.72022 27.6113
663 2 2.2208 5.44279 23.0255 5.60791
665 1 -1.1104 0.922882 24.1763 0.808442
666 1 -1.1104 1.20264 24.431 3.79212
667 1 -1.1104 1.1103 21.6945 0.783183
669 2 2.2208 5.39886 25.9564 2.48027
670 1 -1.1104 1.15059 21.5545 3.77964
672 1 -1.1104 3.87211 24.4102 1.04808
673 2 2.2208 2.56467 22.9697 2.44124
675 1 -1.1104 4.03709 24.5065 3.79125
676 2 2.2208 2.65577 25.6818 5.14893
677 1 -1.1104 3.80739 21.4938 1.19995
679 1 -1.1104 3.75541 21.734 4.24783
678 1 -1.1104 3.71824 27.0735 1.07891
668 1 -1.1104 1.06374 27.0271 1.0203
671 1 -1.1104 1.05145 27.1778 4.09455
680 1 -1.1104 4.02667 27.131 3.99279
9884 2 2.2208 -0.27535 22.7436 10.8361
9882 2 2.2208 -0.243531 28.5153 10.8231
9883 2 2.2208 -0.234628 25.7904 8.04357
994 2 2.2208 10.7704 22.8205 -0.372791
1306 1 -1.1104 0.711392 46.7136 1.11862
804 1 -1.1104 1.37547 23.8168 6.45969
685 1 -1.1104 6.81535 24.4191 4.09456
686 1 -1.1104 6.58442 21.4407 1.13755
688 1 -1.1104 6.65921 21.6797 4.02987
687 1 -1.1104 6.79062 27.3402 1.111
684 1 -1.1104 6.7945 24.5267 1.27616
690 2 2.2208 10.9526 22.9075 5.15521
692 1 -1.1104 12.2671 24.3101 1.16555
693 1 -1.1104 12.1239 24.1919 3.7441
694 1 -1.1104 12.1918 21.5201 1.02379
696 2 2.2208 10.8803 25.7075 2.47606
697 1 -1.1104 12.6176 21.5159 3.85079
699 1 -1.1104 9.49655 24.3142 0.791215
700 2 2.2208 7.84152 22.9227 2.55902
702 1 -1.1104 9.3857 24.3981 3.77782
703 2 2.2208 8.16178 25.7524 5.33134
704 1 -1.1104 9.41511 21.3787 1.03245
706 1 -1.1104 9.54645 21.5383 3.78353
698 1 -1.1104 12.4299 27.1794 3.8548
705 1 -1.1104 9.62884 27.0954 1.1062
707 1 -1.1104 9.52622 27.1217 3.80639
689 1 -1.1104 6.85759 27.292 3.90692
695 1 -1.1104 12.7019 27.3229 1.06061
10016 2 2.2208 -0.348449 37.0124 8.21278
995 2 2.2208 8.16892 25.9121 -0.171672
837 1 -1.1104 12.3387 24.2377 6.43176
842 1 -1.1104 9.54891 27.2785 6.58799
10005 2 2.2208 -0.279271 22.8479 5.2227
664 2 2.2208 5.44197 28.5717 5.30593
674 2 2.2208 2.3784 28.5394 2.38979
712 1 -1.1104 1.13926 29.93 1.05888
715 1 -1.1104 1.14824 30.1114 3.74614
718 1 -1.1104 1.01476 32.8128 1.14562
719 2 2.2208 5.45459 31.2433 2.43303
721 1 -1.1104 1.34809 33.0139 4.06257
723 1 -1.1104 3.90838 29.7754 1.09206
726 1 -1.1104 4.02165 29.9916 3.81189
728 2 2.2208 2.67823 31.3903 5.22239
730 1 -1.1104 3.82257 32.7615 1.12165
731 1 -1.1104 4.1166 32.651 3.87675
991 2 2.2208 5.27993 28.4058 -0.327114
737 1 -1.1104 6.82663 32.7327 1.05046
722 1 -1.1104 6.6245 32.7837 3.81657
10012 2 2.2208 -0.337067 31.3459 2.57334
1501 1 -1.1104 6.43668 46.9781 6.63233
867 1 -1.1104 4.0214 30.1621 6.59703
990 2 2.2208 2.68405 25.7499 -0.411369
736 1 -1.1104 6.89743 30.1235 3.81512
735 1 -1.1104 6.88958 30.0071 1.05173
691 2 2.2208 11.0182 28.6507 5.0877
701 2 2.2208 8.16372 28.4636 2.45117
739 1 -1.1104 12.4833 29.8617 1.1222
741 1 -1.1104 12.527 29.985 3.86361
743 1 -1.1104 12.4264 32.9008 1.26212
744 2 2.2208 11.0411 31.4091 2.24147
746 1 -1.1104 12.3688 32.6678 3.98966
747 1 -1.1104 9.53602 29.7961 1.00893
750 1 -1.1104 9.8313 30.1506 3.75834
752 2 2.2208 8.1857 31.4929 5.07791
754 1 -1.1104 9.64313 33.0289 1.06056
755 1 -1.1104 9.27928 32.9776 3.81789
897 1 -1.1104 12.3362 32.6703 6.80154
863 1 -1.1104 6.68759 30.0946 6.80792
781 2 2.2208 -0.349587 42.7271 2.50278
10011 2 2.2208 -0.423232 36.8434 2.4963
992 2 2.2208 10.844 40.01 -0.28011
998 2 2.2208 2.47061 31.256 -0.328257
711 2 2.2208 5.38138 34.0603 5.2989
713 1 -1.1104 1.02055 35.5321 1.26136
716 1 -1.1104 1.07851 35.6128 3.89718
720 2 2.2208 5.18667 37.1364 2.4038
724 1 -1.1104 4.02332 35.6637 1.00233
725 2 2.2208 2.67391 34.0877 2.46077
727 1 -1.1104 4.03409 35.269 3.93339
729 2 2.2208 2.30921 36.9978 5.37564
757 2 2.2208 5.32653 39.8035 5.28168
763 1 -1.1104 0.910705 38.3131 0.970648
768 1 -1.1104 1.1483 38.5155 3.97509
773 2 2.2208 2.41153 39.7969 2.51338
777 1 -1.1104 3.86079 38.4083 1.11917
779 1 -1.1104 3.91175 38.3683 4.07917
1002 2 2.2208 7.99906 37.0821 -0.451404
934 1 -1.1104 6.72199 41.3051 6.8877
770 1 -1.1104 6.71329 38.4182 3.88772
10034 2 2.2208 13.5448 25.6366 -0.115709
10015 2 2.2208 -0.368534 39.7269 5.30747
10010 2 2.2208 -0.266604 33.9983 5.38557
803 2 2.2208 13.6355 39.7984 2.41495
997 2 2.2208 2.41779 37.0299 -0.308559
10017 2 2.2208 -0.454926 42.8076 8.01389