ITEM: TIMESTEP
40000
ITEM: NUMBER OF ATOMS
17700
ITEM: BOX BOUNDS pp pp pp
-4.4190991586073025e-01 2.7781909915860965e+01
-5.2724319098565768e+00 3.3335243190985591e+02
-4.3689482369893901e-01 2.7776894823698925e+01
ITEM: ATOMS id type q x y z
1 2 2.2208 4.7802 0.0639139 5.24248
2 1 -1.1104 0.478959 -4.23713 0.818246
6 1 -1.1104 0.678372 -4.02336 3.70855
10 1 -1.1104 0.845152 -1.37408 0.960957
12 2 2.2208 4.96502 -2.50584 2.1575
14 1 -1.1104 0.79642 -1.34217 3.61422
16 1 -1.1104 3.31689 -4.0831 1.05117
18 2 2.2208 2.17438 0.0221047 2.14094
19 1 -1.1104 3.56501 -3.81977 3.71374
21 2 2.2208 1.9446 -2.56343 4.96605
23 1 -1.1104 3.55922 -1.14767 0.828429
24 1 -1.1104 3.38712 -1.29098 3.54706
4 1 -1.1104 6.18883 -4.03901 0.849399
166 1 -1.1104 0.588944 -3.90605 6.51701
172 1 -1.1104 3.50709 -4.05894 6.4155
15 1 -1.1104 6.28527 -1.21558 3.62117
170 1 -1.1104 0.62907 -1.16996 6.41157
171 1 -1.1104 6.28668 -1.21928 6.66338
11 1 -1.1104 6.51634 -1.02072 0.94367
8 1 -1.1104 6.35746 -3.9806 3.47139
331 2 2.2208 10.6513 20.0314 13.6549
332 2 2.2208 10.5499 14.3375 13.499
168 1 -1.1104 6.20523 -3.57547 6.53472
314 2 2.2208 4.99489 2.84938 13.6627
31 2 2.2208 10.5276 0.104935 5.1114
32 1 -1.1104 12.0673 -3.84157 1.01615
34 1 -1.1104 12.0407 -4.12065 3.83936
36 1 -1.1104 12.005 -1.10256 0.767151
37 2 2.2208 10.6386 -2.62223 2.17628
39 1 -1.1104 12.1283 -1.33982 3.626
40 1 -1.1104 9.15758 -3.89305 0.799959
42 2 2.2208 7.74095 0.300723 2.29253
43 1 -1.1104 9.29713 -4.05816 3.58499
45 2 2.2208 7.60859 -2.7288 5.00721
47 1 -1.1104 9.20838 -1.00966 0.843111
48 1 -1.1104 9.17604 -1.268 3.56006
210 1 -1.1104 8.93804 -1.1905 6.23916
205 1 -1.1104 11.8976 -4.20774 6.58572
207 1 -1.1104 11.9507 -1.19296 6.45175
9278 2 2.2208 13.4637 -2.5913 5.23707
9277 2 2.2208 13.4878 0.191538 2.19086
3 1 -1.1104 0.633875 1.47288 0.950843
7 1 -1.1104 0.52916 1.44793 3.4676
13 2 2.2208 4.91258 3.05637 2.31464
17 1 -1.1104 3.51039 1.60693 1.03827
20 1 -1.1104 3.41718 1.42227 3.89507
22 2 2.2208 2.05052 2.95163 5.11925
54 2 2.2208 4.90222 5.74702 5.1387
60 1 -1.1104 0.569424 4.32998 0.860445
67 1 -1.1104 0.728602 4.43348 3.82563
71 1 -1.1104 3.66337 7.18662 0.888369
72 2 2.2208 2.17648 5.86069 2.22752
76 1 -1.1104 3.61575 4.44862 0.940456
79 1 -1.1104 3.29242 4.30028 3.67003
58 1 -1.1104 0.842953 7.32888 3.72202
74 1 -1.1104 3.76279 7.19476 3.74222
56 1 -1.1104 0.550138 7.10895 1.212
5 1 -1.1104 6.23528 1.6058 0.895023
239 1 -1.1104 3.42454 4.41733 6.53484
173 1 -1.1104 3.5258 1.56209 6.6147
167 1 -1.1104 0.931974 1.84962 6.62427
234 1 -1.1104 0.565535 7.25048 6.69774
238 1 -1.1104 3.47168 7.18011 6.53812
59 1 -1.1104 6.59954 7.3398 3.87333
69 1 -1.1104 6.08476 4.43275 3.73742
9 1 -1.1104 6.25088 1.66864 3.50704
57 1 -1.1104 6.47636 7.39883 1.08726
235 1 -1.1104 6.10633 7.16794 6.84082
237 1 -1.1104 6.21406 4.32382 6.52441
236 1 -1.1104 0.659239 4.5594 6.49954
169 1 -1.1104 6.20267 1.49552 6.40991
63 1 -1.1104 6.34045 4.5169 0.938134
33 1 -1.1104 11.9807 1.8933 0.987743
35 1 -1.1104 12.1234 1.61316 3.61857
38 2 2.2208 10.6665 2.9742 2.44466
41 1 -1.1104 9.23473 1.71692 0.932767
44 1 -1.1104 9.14523 1.42502 3.60499
46 2 2.2208 7.50866 2.89191 4.96419
84 2 2.2208 10.5043 5.91936 5.04739
87 1 -1.1104 11.7691 7.19354 3.65617
88 1 -1.1104 11.9563 4.60535 1.15229
92 1 -1.1104 11.7083 4.38771 3.94323
94 1 -1.1104 9.29678 7.40842 0.502214
95 2 2.2208 7.86157 5.77804 2.45518
97 1 -1.1104 9.24362 7.25705 3.75693
99 1 -1.1104 9.14636 4.50293 1.11797
102 1 -1.1104 9.1749 4.37912 3.751
86 1 -1.1104 12.1563 7.69782 0.834179
209 1 -1.1104 9.05141 1.6432 6.40829
206 1 -1.1104 11.7951 1.49091 6.19175
267 1 -1.1104 8.93063 7.42157 6.68748
269 1 -1.1104 9.07689 4.51899 6.6573
9283 2 2.2208 13.3091 5.92996 2.24485
8973 2 2.2208 13.2938 2.98617 5.05821
55 2 2.2208 4.98251 11.502 5.25916
61 1 -1.1104 0.579232 9.88269 0.887598
66 2 2.2208 5.02579 8.63768 2.22081
68 1 -1.1104 0.780167 10.2665 3.78718
73 2 2.2208 2.15354 11.4399 2.3123
75 2 2.2208 2.33427 8.58283 5.15252
77 1 -1.1104 3.3559 10.0805 0.773791
80 1 -1.1104 3.45724 10.066 3.53141
107 1 -1.1104 0.646135 12.7965 0.703437
113 1 -1.1104 0.901011 12.8866 3.56654
123 1 -1.1104 3.39788 12.8763 0.949645
128 1 -1.1104 3.47169 12.9293 3.85595
65 1 -1.1104 6.15442 9.92243 6.30386
124 1 -1.1104 3.5615 12.8981 6.81418
108 1 -1.1104 0.851744 12.9341 6.40139
115 1 -1.1104 6.23839 12.8583 3.51558
110 1 -1.1104 6.30817 13.0358 0.893462
70 1 -1.1104 6.34989 10.0384 3.68403
64 1 -1.1104 6.1983 10.0898 0.715458
85 2 2.2208 10.5304 11.5699 5.07447
89 1 -1.1104 12.0752 10.3433 0.727235
91 2 2.2208 10.6184 8.6284 2.20044
93 1 -1.1104 11.9256 9.91745 3.60371
96 2 2.2208 7.79716 11.6488 2.23568
98 2 2.2208 7.85652 8.75122 5.00972
100 1 -1.1104 9.05366 10.1373 0.86834
103 1 -1.1104 9.15056 10.2518 3.71324
142 1 -1.1104 11.8259 13.0635 0.875698
146 1 -1.1104 11.9745 13.2038 3.72126
153 1 -1.1104 8.89579 12.9588 0.891073
158 1 -1.1104 9.02636 12.9923 3.8678
90 1 -1.1104 12.1342 10.2315 6.58303
154 1 -1.1104 9.0815 12.9624 6.698
143 1 -1.1104 11.7582 12.8481 6.36811
101 1 -1.1104 9.24146 10.1564 6.5298
9002 2 2.2208 13.2933 8.65948 5.18271
9282 2 2.2208 13.3841 11.6097 2.30162
130 2 2.2208 2.11212 14.4014 5.07858
119 2 2.2208 4.82439 14.3044 2.28105
106 2 2.2208 4.91379 17.1748 5.30212
109 1 -1.1104 0.875404 18.4483 0.900269
114 1 -1.1104 0.850098 18.4889 3.56372
116 1 -1.1104 0.856937 15.5728 0.854674
120 2 2.2208 4.90715 20.0021 2.30744
121 1 -1.1104 0.713423 15.889 3.66231
125 1 -1.1104 3.63591 18.6724 0.824953
127 2 2.2208 2.26953 16.9661 2.37942
129 1 -1.1104 3.66808 18.3781 3.70489
131 2 2.2208 2.10632 19.7626 5.05414
132 1 -1.1104 3.51431 15.7832 0.762885
134 1 -1.1104 3.59337 15.85 3.86846
133 1 -1.1104 3.46734 15.6716 6.67751
139 1 -1.1104 6.37063 18.6198 3.69534
122 1 -1.1104 6.32318 15.8128 3.75833
117 1 -1.1104 0.823598 15.7382 6.58851
140 1 -1.1104 6.29709 15.7632 0.98579
138 1 -1.1104 6.3267 18.6057 0.921045
126 1 -1.1104 3.57246 18.5567 6.74105
302 1 -1.1104 0.642632 18.2922 6.30964
112 1 -1.1104 6.35882 18.5298 6.65707
9287 2 2.2208 13.3364 17.3589 2.49897
150 2 2.2208 10.6268 14.5638 2.23055
160 2 2.2208 7.7086 14.4404 5.06653
141 2 2.2208 10.6915 17.3916 5.2965
144 1 -1.1104 11.7273 18.6237 0.84888
147 1 -1.1104 12.0051 18.7107 3.86534
148 1 -1.1104 12.1398 15.881 0.969422
151 2 2.2208 10.3685 20.0727 2.36483
152 1 -1.1104 12.0185 15.8438 3.66257
155 1 -1.1104 9.07763 18.5805 0.808485
157 2 2.2208 7.65606 17.2772 2.32002
159 1 -1.1104 8.96668 18.7513 3.66555
161 2 2.2208 7.5996 19.8449 5.19827
162 1 -1.1104 9.18944 15.7476 0.848902
164 1 -1.1104 9.19933 15.9235 3.72999
156 1 -1.1104 9.16328 18.7364 6.63131
145 1 -1.1104 12.1855 18.6059 6.46974
163 1 -1.1104 9.23896 15.8143 6.47212
149 1 -1.1104 11.8469 15.7219 6.38624
9071 2 2.2208 13.3808 14.4002 5.04165
329 2 2.2208 4.77177 20.0972 13.6298
328 2 2.2208 2.06252 17.205 13.6872
174 1 -1.1104 3.45762 -1.32939 6.45871
9273 2 2.2208 13.3166 14.4015 10.8824
326 2 2.2208 10.5525 8.73698 13.3731
175 2 2.2208 4.93492 0.275592 10.6243
176 1 -1.1104 0.641062 -3.76817 12.2398
180 1 -1.1104 0.559667 -4.06533 9.4291
184 1 -1.1104 0.638803 -1.26988 12.2293
186 2 2.2208 4.93405 -2.49651 8.03991
188 1 -1.1104 0.810336 -1.08228 9.30441
190 1 -1.1104 3.56234 -3.92562 12.1811
192 2 2.2208 2.0925 0.363566 7.89986
193 1 -1.1104 3.23405 -4.04169 9.38365
195 2 2.2208 2.07338 -2.56454 10.7177
197 1 -1.1104 3.25286 -1.26575 12.1815
198 1 -1.1104 3.6004 -1.03296 9.47265
178 1 -1.1104 6.46981 -4.02209 12.0829
185 1 -1.1104 6.17903 -1.10302 12.1933
189 1 -1.1104 6.24877 -1.2252 9.47853
182 1 -1.1104 6.26003 -3.85041 9.28213
9050 2 2.2208 13.2317 20.1954 5.20379
208 1 -1.1104 8.99084 -3.81381 6.48953
321 2 2.2208 10.5356 3.11093 13.5889
312 2 2.2208 4.88577 -2.50706 13.508
9291 2 2.2208 13.3521 0.218851 7.92802
211 2 2.2208 10.5224 0.20225 10.7897
212 1 -1.1104 11.8724 -4.09815 12.0372
214 1 -1.1104 11.84 -4.07967 9.17008
216 1 -1.1104 12.0062 -1.27401 12.1995
217 2 2.2208 10.4957 -2.75624 7.94308
219 1 -1.1104 11.8541 -1.08392 9.33943
220 1 -1.1104 9.10733 -3.96133 12.0472
222 2 2.2208 7.89033 0.208049 7.85921
223 1 -1.1104 9.02997 -3.98832 9.43251
225 2 2.2208 7.74417 -2.54465 10.7476
227 1 -1.1104 9.18892 -1.17309 11.9723
228 1 -1.1104 9.24572 -1.31353 9.36154
320 2 2.2208 10.6202 -2.58135 13.3621
9292 2 2.2208 13.2267 -2.56463 10.8135
319 2 2.2208 7.62507 0.204515 13.4436
191 1 -1.1104 3.42784 1.48255 12.2534
177 1 -1.1104 0.572696 1.7634 12.2387
181 1 -1.1104 0.809751 1.65401 9.32193
187 2 2.2208 4.74301 2.97625 8.0266
194 1 -1.1104 3.69839 1.88716 9.67095
196 2 2.2208 2.08482 3.00575 10.8666
240 2 2.2208 4.68162 5.65649 10.7816
242 1 -1.1104 0.665093 7.40721 12.2734
244 1 -1.1104 0.319953 7.24027 9.67794
246 1 -1.1104 0.581351 4.74313 12.5941
251 1 -1.1104 0.546308 4.45047 9.47363
256 2 2.2208 2.05187 5.83408 7.74044
260 1 -1.1104 3.57644 4.30381 12.0583
262 1 -1.1104 3.39338 4.54682 9.37195
258 1 -1.1104 3.44886 7.26231 9.48175
255 1 -1.1104 3.58954 7.12259 12.2063
179 1 -1.1104 6.2767 1.57715 12.0714
243 1 -1.1104 6.28799 7.00878 12.3153
248 1 -1.1104 6.35386 4.27768 12.0857
253 1 -1.1104 6.01218 4.65546 9.26664
183 1 -1.1104 6.33761 1.63549 8.96086
9315 2 2.2208 13.4638 17.2097 13.65
245 1 -1.1104 6.2741 7.27117 9.52026
104 1 -1.1104 12.0661 15.6539 9.41523
9184 2 2.2208 13.2415 5.86562 7.9768
265 1 -1.1104 12.0887 7.48017 6.63756
266 1 -1.1104 11.9055 4.61761 6.51067
9108 2 2.2208 13.2385 3.2519 10.6247
324 2 2.2208 2.22511 11.5336 13.5679
213 1 -1.1104 12.0231 1.59458 12.1366
215 1 -1.1104 11.7883 1.65095 9.33604
218 2 2.2208 10.4319 3.06044 7.82535
221 1 -1.1104 8.89567 1.71757 12.0853
224 1 -1.1104 9.08756 1.38605 9.2678
226 2 2.2208 7.67052 2.9386 10.7259
268 1 -1.1104 9.13271 4.2888 9.31324
271 1 -1.1104 9.17337 4.58012 12.2515
275 2 2.2208 7.55737 5.79741 7.95084
276 2 2.2208 10.3616 5.87261 10.7329
278 1 -1.1104 11.8649 7.12688 12.0192
279 1 -1.1104 11.9146 7.28787 9.30006
280 1 -1.1104 11.9029 4.35041 12.048
283 1 -1.1104 11.9133 4.40895 9.42164
285 1 -1.1104 9.09704 7.53083 12.3111
273 1 -1.1104 9.03322 7.14613 9.33035
323 2 2.2208 5.03828 8.63833 13.5269
78 1 -1.1104 3.5435 10.0696 6.57851
62 1 -1.1104 0.727382 9.90379 6.40934
385 2 2.2208 2.23459 -5.13781 13.6913
241 2 2.2208 5.07023 11.4227 10.7649
247 1 -1.1104 1.04153 10.0098 12.148
250 2 2.2208 5.02525 8.6409 8.04953
252 1 -1.1104 0.570793 10.0328 9.13259
257 2 2.2208 2.04299 11.357 7.85741
259 2 2.2208 2.04186 8.58959 10.77
261 1 -1.1104 3.89517 10.0961 12.262
263 1 -1.1104 3.48548 9.93724 9.36049
287 1 -1.1104 3.59797 12.7832 12.097
294 1 -1.1104 0.718565 12.8112 9.27729
299 1 -1.1104 0.754385 12.8359 12.2221
305 1 -1.1104 3.61579 12.6712 9.54533
254 1 -1.1104 6.52837 10.1961 9.31905
297 1 -1.1104 6.25459 12.758 12.2316
290 1 -1.1104 6.33018 13.0425 9.14289
249 1 -1.1104 6.63891 10.041 11.8707
111 1 -1.1104 6.43592 12.9411 6.21863
9185 2 2.2208 13.1338 11.6622 7.95359
27 1 -1.1104 11.7435 18.5747 12.2065
137 1 -1.1104 9.03626 12.8658 9.38983
49 1 -1.1104 11.8423 12.9489 9.34429
105 1 -1.1104 9.15402 12.8606 12.0984
26 1 -1.1104 12.0262 12.8517 12.3506
264 1 -1.1104 9.15304 9.8758 9.46808
270 1 -1.1104 9.21942 10.3124 12.1083
272 2 2.2208 7.90754 8.57299 10.6842
274 2 2.2208 7.73499 11.4204 7.81658
277 2 2.2208 10.4942 11.467 10.8179
281 1 -1.1104 11.9373 9.98316 12.1491
282 2 2.2208 10.6465 8.67539 7.84939
284 1 -1.1104 11.9317 10.2892 9.1935
9189 2 2.2208 13.3028 8.68001 10.8735
9310 2 2.2208 13.3973 5.82659 13.644
118 1 -1.1104 6.23195 15.6638 6.3819
9300 2 2.2208 13.5055 0.240106 13.4928
288 1 -1.1104 6.24923 18.3332 9.46791
306 1 -1.1104 6.18645 15.6215 12.3011
295 2 2.2208 4.8503 14.2247 7.9374
296 1 -1.1104 6.27904 18.5992 12.0839
230 2 2.2208 2.13862 14.4071 10.7773
286 1 -1.1104 3.55767 18.8408 12.227
291 1 -1.1104 0.702877 18.4532 9.07652
292 1 -1.1104 0.784421 15.6826 9.4382
293 2 2.2208 4.93576 19.9494 8.15285
298 1 -1.1104 0.732519 18.4879 12.2146
300 2 2.2208 4.82182 17.1882 10.8485
301 1 -1.1104 3.3131 18.5239 9.56273
303 2 2.2208 2.10066 17.0298 8.03369
304 1 -1.1104 3.49379 15.6784 9.2898
307 1 -1.1104 0.799456 15.565 12.3594
308 1 -1.1104 3.4642 16.0193 12.2089
309 2 2.2208 2.20355 20.012 10.8113
313 2 2.2208 2.04381 0.161716 13.5511
289 1 -1.1104 6.26542 15.7653 9.48245
229 1 -1.1104 9.15972 15.6239 9.38503
200 2 2.2208 7.88962 20.0395 10.8901
83 2 2.2208 10.4467 20.1264 8.12484
135 1 -1.1104 9.03152 18.39 12.2898
81 1 -1.1104 11.8926 15.7122 12.2591
9235 2 2.2208 13.3156 19.8476 10.9378
82 2 2.2208 10.3787 14.3139 7.96033
25 2 2.2208 10.4949 17.1038 10.7638
201 1 -1.1104 9.01892 15.7545 12.1774
50 1 -1.1104 11.8553 18.5408 9.20698
199 2 2.2208 7.68572 14.2122 10.9713
165 1 -1.1104 8.94846 18.5735 9.60529
9274 2 2.2208 13.5926 17.287 8.05856
136 2 2.2208 7.84162 17.0181 7.96258
327 2 2.2208 7.68387 11.4759 13.5869
325 2 2.2208 7.75881 5.70699 13.6743
341 2 2.2208 2.14653 8.55641 -0.375822
9308 2 2.2208 13.3923 3.08558 -0.369161
340 2 2.2208 5.05087 5.82837 -0.37813
330 2 2.2208 4.80181 14.2981 13.6028
322 2 2.2208 2.148 5.86777 13.4095
9319 2 2.2208 13.2918 19.8701 -0.377108
317 2 2.2208 2.13504 20.0948 -0.355493
333 2 2.2208 7.61169 17.0338 13.4457
336 2 2.2208 2.26777 2.87079 -0.314743
346 2 2.2208 4.94914 0.151481 16.4278
347 1 -1.1104 0.578314 -3.99166 17.9673
351 1 -1.1104 0.803708 -3.93164 14.9648
359 1 -1.1104 0.603585 -1.26461 17.8034
361 2 2.2208 5.02533 -2.63351 19.4635
363 1 -1.1104 0.843161 -1.32984 15.1616
367 1 -1.1104 3.51374 -4.03567 17.9939
369 2 2.2208 2.13366 0.360118 19.3136
370 1 -1.1104 3.76913 -3.74492 15.1747
374 2 2.2208 2.21872 -2.4725 16.6162
376 1 -1.1104 3.77221 -1.03109 17.7387
377 1 -1.1104 3.78661 -1.04882 14.8738
364 1 -1.1104 0.64179 -0.964288 20.7821
371 1 -1.1104 3.65493 -3.90466 20.7812
378 1 -1.1104 3.32786 -1.17685 20.5906
355 1 -1.1104 6.51124 -4.10276 14.8754
360 1 -1.1104 6.71033 -1.39406 17.8675
349 1 -1.1104 6.2899 -4.15255 18.0552
365 1 -1.1104 6.54372 -1.17408 15.0741
644 2 2.2208 7.68694 17.1648 24.9037
389 2 2.2208 10.6599 0.230142 16.2542
390 1 -1.1104 11.9908 -4.00896 17.8249
392 1 -1.1104 12.0463 -3.93433 14.9937
396 1 -1.1104 12.146 -1.24439 17.8204
397 2 2.2208 10.7829 -2.70187 19.2132
399 1 -1.1104 11.9378 -1.19456 14.9809
401 1 -1.1104 8.95689 -4.19763 17.6841
403 2 2.2208 8.01209 0.0332245 19.2561
404 1 -1.1104 9.11615 -3.93593 14.8284
408 2 2.2208 7.90343 -2.75126 16.2998
410 1 -1.1104 9.34912 -1.30102 17.5259
411 1 -1.1104 9.25548 -0.950982 14.6591
400 1 -1.1104 12.1391 -1.29752 20.7833
393 1 -1.1104 12.1683 -4.07737 20.6498
9454 2 2.2208 13.4788 -2.44789 16.3552
9382 2 2.2208 13.3864 0.138324 19.2102
412 1 -1.1104 9.45079 -1.16237 20.4666
386 2 2.2208 7.79311 20.0984 22.2479
337 2 2.2208 10.6833 0.307448 27.6483
311 2 2.2208 10.5042 17.1703 27.7282
348 1 -1.1104 0.648816 1.59226 17.5723
353 1 -1.1104 1.06829 1.64187 14.9379
362 2 2.2208 5.0964 3.00417 19.2828
368 1 -1.1104 3.47948 1.64483 17.9785
372 1 -1.1104 3.86238 1.71582 15.2776
375 2 2.2208 2.3381 3.20566 16.5002
422 2 2.2208 4.97844 5.90448 16.5576
424 1 -1.1104 0.782979 7.40212 17.9297
430 1 -1.1104 0.903805 4.4664 17.8533
435 1 -1.1104 0.573686 4.25053 15.1798
444 2 2.2208 2.02402 5.85417 19.3696
449 1 -1.1104 3.71878 4.43754 18.0089
451 1 -1.1104 3.3422 4.66962 14.9097
446 1 -1.1104 3.58153 7.38217 15.062
426 1 -1.1104 0.680907 6.97436 15.0478
439 1 -1.1104 6.13944 4.46537 14.8967
350 1 -1.1104 6.15873 1.57675 17.7879
436 1 -1.1104 0.714504 4.54524 20.7424
354 1 -1.1104 0.82945 1.7845 20.4906
447 1 -1.1104 3.40897 7.15824 20.9175
432 1 -1.1104 6.40614 4.29206 17.6443
428 1 -1.1104 6.48502 7.4582 15.2327
373 1 -1.1104 3.86859 1.45793 20.6871
429 1 -1.1104 6.22705 7.1436 20.917
357 1 -1.1104 6.43634 1.64476 14.878
358 1 -1.1104 6.4668 1.57029 20.7002
425 1 -1.1104 6.32936 7.21772 18.0176
443 1 -1.1104 3.51168 7.24532 17.8691
9376 2 2.2208 13.5523 3.03033 16.599
391 1 -1.1104 12.0542 1.61918 17.6371
394 1 -1.1104 11.8698 1.59093 14.8762
398 2 2.2208 10.5526 2.98691 19.0891
402 1 -1.1104 9.10842 1.82423 17.774
406 1 -1.1104 9.07692 1.63217 14.8887
409 2 2.2208 7.72929 2.97123 16.3215
458 2 2.2208 10.7135 5.96615 16.4736
461 1 -1.1104 12.0108 7.14564 14.9731
463 1 -1.1104 12.1376 4.29894 17.9376
466 1 -1.1104 12.0671 4.49787 14.9056
471 2 2.2208 7.50573 5.76918 19.2746
476 1 -1.1104 9.17758 4.52604 17.9459
478 1 -1.1104 9.1419 4.42717 15.098
460 1 -1.1104 11.9905 7.25058 17.7397
470 1 -1.1104 9.1769 7.36742 17.6388
395 1 -1.1104 12.1443 1.607 20.5326
474 1 -1.1104 8.93046 7.4262 20.4436
407 1 -1.1104 9.3052 1.61583 20.6438
462 1 -1.1104 11.8808 7.21286 20.6326
9451 2 2.2208 13.2336 5.82702 19.247
467 1 -1.1104 11.908 4.40153 20.6956
479 1 -1.1104 9.03435 4.38729 20.6891
423 2 2.2208 4.77012 11.3759 16.3491
431 1 -1.1104 0.767497 10.225 17.949
434 2 2.2208 4.80415 8.71953 19.3167
437 1 -1.1104 0.562952 10.1861 14.9167
445 2 2.2208 2.09555 11.6597 19.104
448 2 2.2208 1.93099 8.76254 16.4186
450 1 -1.1104 3.50788 10.1584 17.8669
453 1 -1.1104 3.2918 10.14 15.0736
486 1 -1.1104 0.456591 12.9759 17.8139
490 1 -1.1104 1.10184 13.0525 14.7733
506 1 -1.1104 3.30822 12.9279 17.9381
509 1 -1.1104 3.63997 12.9893 14.9265
491 1 -1.1104 0.841222 12.9657 20.5031
438 1 -1.1104 0.876296 10.0534 20.7182
433 1 -1.1104 6.38335 10.1133 17.827
441 1 -1.1104 6.24819 10.1604 14.8208
495 1 -1.1104 6.44931 13.198 20.8577
494 1 -1.1104 6.35395 12.9292 15.012
387 2 2.2208 7.78616 14.2448 22.0805
473 1 -1.1104 9.23673 7.15196 15.0335
488 1 -1.1104 6.07246 12.8173 17.8372
459 2 2.2208 10.689 11.5647 16.6091
464 1 -1.1104 12.1734 9.93033 17.9269
465 2 2.2208 10.4606 8.67835 19.0829
468 1 -1.1104 12.1262 10.0142 15.0455
472 2 2.2208 7.68263 11.6468 19.354
475 2 2.2208 7.76913 8.70914 16.439
477 1 -1.1104 9.16373 10.0081 17.7695
480 1 -1.1104 8.90291 10.0831 14.8936
522 1 -1.1104 11.9604 12.9372 17.8888
524 1 -1.1104 12.1614 12.9938 14.9046
533 1 -1.1104 9.12959 13.026 17.8532
536 1 -1.1104 9.23293 12.856 15.097
537 1 -1.1104 9.48798 13.116 20.5215
525 1 -1.1104 12.1199 12.9952 20.6382
481 1 -1.1104 9.22562 10.1612 20.4613
9452 2 2.2208 13.3059 11.4105 19.4089
9450 2 2.2208 13.2971 8.62086 16.4697
384 1 -1.1104 9.25961 15.5855 23.5385
513 2 2.2208 2.16129 14.4801 16.588
500 2 2.2208 4.93294 14.5586 19.335
485 2 2.2208 5.0801 17.1052 16.5195
487 1 -1.1104 0.626304 18.821 18.1862
492 1 -1.1104 0.819225 18.67 15.1356
498 1 -1.1104 0.939576 15.8284 17.9438
501 2 2.2208 5.2048 19.9229 19.2424
502 1 -1.1104 0.812999 15.7086 15.1107
507 1 -1.1104 3.47335 18.3843 17.798
508 2 2.2208 2.00549 17.3302 19.4894
511 1 -1.1104 3.52743 18.8263 15.1115
514 2 2.2208 2.10722 19.9531 16.5524
515 1 -1.1104 3.703 15.6291 17.8788
516 1 -1.1104 3.75571 15.9277 14.9414
499 1 -1.1104 6.40255 15.7479 17.9273
504 1 -1.1104 6.581 15.7291 15.062
496 1 -1.1104 6.31871 18.4716 15.0765
489 1 -1.1104 6.25152 18.5208 17.8456
505 1 -1.1104 6.26739 15.9055 20.6404
512 1 -1.1104 3.75049 18.8345 20.6572
497 1 -1.1104 6.43122 18.4816 20.5305
9311 2 2.2208 13.3616 -2.54448 27.7618
9523 2 2.2208 13.5469 19.8586 16.4929
529 2 2.2208 10.7078 14.3971 19.1658
540 2 2.2208 7.81971 14.4152 16.3391
521 2 2.2208 10.6136 17.2389 16.4535
523 1 -1.1104 11.8966 18.5 18.0651
526 1 -1.1104 12.0888 18.5727 15.1195
528 1 -1.1104 11.9697 15.7405 17.7471
530 2 2.2208 10.4229 20.0124 19.2473
531 1 -1.1104 12.0803 15.7444 14.9992
534 1 -1.1104 9.05344 18.6241 17.7421
535 2 2.2208 7.77961 17.2937 19.1238
538 1 -1.1104 9.04844 18.5605 14.9851
541 2 2.2208 7.72578 19.8694 16.1949
542 1 -1.1104 9.24122 15.7655 17.6594
543 1 -1.1104 9.23014 15.91 14.9694
539 1 -1.1104 9.39382 18.6621 20.8088
527 1 -1.1104 11.9701 18.5971 20.7084
532 1 -1.1104 11.7951 15.9904 20.5967
9520 2 2.2208 13.5579 14.3791 16.3735
343 2 2.2208 10.5579 5.94285 27.6766
9522 2 2.2208 13.4493 17.1946 19.2285
356 1 -1.1104 6.48368 -4.20936 20.7081
352 1 -1.1104 0.845699 -3.96932 20.8106
316 2 2.2208 4.89578 17.0874 27.6095
366 1 -1.1104 6.3553 -1.38963 20.6987
549 2 2.2208 5.0982 0.136146 22.1022
550 1 -1.1104 0.595586 -3.8569 23.5691
554 1 -1.1104 0.556738 -4.00896 26.3537
558 1 -1.1104 0.791059 -1.3228 23.6408
560 2 2.2208 4.76739 -2.50708 24.8721
562 1 -1.1104 0.627201 -1.06028 26.342
564 1 -1.1104 3.57207 -4.05298 23.3554
566 2 2.2208 2.0962 0.17194 24.8534
567 1 -1.1104 3.36567 -4.02291 26.2075
569 2 2.2208 2.17245 -2.49584 22.0982
571 1 -1.1104 3.5704 -1.19581 23.3311
572 1 -1.1104 3.54342 -1.22601 26.4502
556 1 -1.1104 6.16256 -4.13427 26.2529
9302 2 2.2208 13.4939 8.76279 27.5592
563 1 -1.1104 6.35199 -1.06168 26.2474
552 1 -1.1104 6.27978 -4.0531 23.5446
559 1 -1.1104 6.41849 -1.3373 23.3828
9380 2 2.2208 13.4389 5.93272 24.816
612 2 2.2208 10.5081 14.2166 24.9115
315 2 2.2208 2.04022 14.4594 27.528
643 1 -1.1104 9.08755 18.544 23.4534
9423 2 2.2208 13.4886 0.108033 24.8017
405 1 -1.1104 9.37733 -3.81614 20.819
585 2 2.2208 10.6748 0.139949 22.0066
586 1 -1.1104 11.8208 -3.94035 23.5266
588 1 -1.1104 11.8933 -3.91506 26.3258
590 1 -1.1104 11.8616 -1.15671 23.3679
591 2 2.2208 10.5414 -2.59147 24.761
593 1 -1.1104 12.2506 -1.18329 26.0774
594 1 -1.1104 9.27744 -4.37438 23.6252
596 2 2.2208 7.82607 0.0744576 24.737
597 1 -1.1104 9.06862 -3.89686 26.2938
599 2 2.2208 7.79259 -2.85715 22.1201
601 1 -1.1104 9.13807 -1.39372 23.2279
602 1 -1.1104 9.25809 -1.11727 26.0789
611 1 -1.1104 11.7791 15.498 23.2959
9448 2 2.2208 13.4482 -2.69962 22.0907
548 2 2.2208 10.3679 17.003 22.0697
318 2 2.2208 7.64061 19.956 27.7032
342 2 2.2208 4.87073 11.5716 27.73
452 1 -1.1104 3.50705 4.39786 21.17
440 1 -1.1104 6.26796 4.44029 20.4671
427 1 -1.1104 0.757377 7.45178 20.5179
335 2 2.2208 2.14608 -2.72614 27.7146
551 1 -1.1104 0.408597 1.69115 23.3488
555 1 -1.1104 0.819571 1.70838 26.3303
561 2 2.2208 4.7883 2.94203 24.911
565 1 -1.1104 3.37374 1.59959 23.6937
568 1 -1.1104 3.5326 1.51601 26.3611
570 2 2.2208 2.04691 2.97678 22.1582
614 2 2.2208 4.80746 5.92239 22.1933
616 1 -1.1104 0.752736 7.31284 23.4129
618 1 -1.1104 0.905532 7.31034 26.3516
620 1 -1.1104 0.73029 4.49322 23.507
625 1 -1.1104 0.603965 4.4993 26.0543
630 2 2.2208 2.26005 5.71626 25.038
632 1 -1.1104 3.67402 7.2406 26.3925
634 1 -1.1104 3.45127 4.25825 23.694
636 1 -1.1104 3.63138 4.53157 26.5938
557 1 -1.1104 6.3261 1.81521 26.2524
553 1 -1.1104 6.30507 1.43786 23.5727
619 1 -1.1104 6.25498 7.31481 26.2266
622 1 -1.1104 6.31941 4.25205 23.5275
627 1 -1.1104 6.40084 4.43792 26.3928
617 1 -1.1104 6.27452 7.08928 23.4322
629 1 -1.1104 3.48833 7.19275 23.5401
9456 2 2.2208 13.3847 17.0993 24.9542
9455 2 2.2208 13.2188 19.8838 21.9767
339 2 2.2208 7.84549 3.05072 27.5716
587 1 -1.1104 12.0545 1.61494 23.4599
589 1 -1.1104 12.193 1.55932 26.5194
592 2 2.2208 10.7019 3.08279 24.9119
595 1 -1.1104 9.11875 1.38852 23.4343
598 1 -1.1104 9.23044 1.59039 26.3382
600 2 2.2208 7.51509 2.97269 22.0483
646 1 -1.1104 9.11106 4.35495 26.1865
648 1 -1.1104 9.12561 4.22713 23.4535
652 2 2.2208 7.71573 5.74325 24.8933
653 2 2.2208 10.362 5.84024 22.0103
657 1 -1.1104 12.1104 4.54899 23.4389
660 1 -1.1104 11.8861 4.50714 26.3873
662 1 -1.1104 9.06425 7.22366 23.5356
655 1 -1.1104 11.9061 7.06905 23.4356
656 1 -1.1104 11.9176 7.26809 26.3199
650 1 -1.1104 9.18519 6.99008 26.1998
9583 2 2.2208 13.4892 3.00871 22.0086
544 1 -1.1104 9.06234 15.885 20.455
344 2 2.2208 10.5757 11.4062 27.6725
442 1 -1.1104 6.50393 10.0582 20.6936
454 1 -1.1104 3.58532 9.95287 20.5779
510 1 -1.1104 3.66289 13.0567 20.7436
615 2 2.2208 4.8905 11.4673 22.0285
621 1 -1.1104 0.675621 10.2304 23.5205
624 2 2.2208 4.8532 8.76193 24.9534
626 1 -1.1104 0.593093 10.1288 26.3165
631 2 2.2208 2.02026 11.6232 24.8976
633 2 2.2208 2.00744 8.71648 22.0545
635 1 -1.1104 3.32406 10.2431 23.5164
637 1 -1.1104 3.35524 10.1749 26.0186
455 1 -1.1104 3.50259 13.1469 26.2998
484 1 -1.1104 0.699182 12.8076 23.2711
547 1 -1.1104 0.766951 12.8816 26.1306
603 1 -1.1104 3.49704 13.1555 23.2985
623 1 -1.1104 6.01306 9.85726 23.2995
519 1 -1.1104 6.36519 12.5769 23.411
641 1 -1.1104 11.9308 15.5925 26.2441
604 1 -1.1104 6.18326 12.8996 26.2154
628 1 -1.1104 6.56504 10.1194 26.313
638 1 -1.1104 9.08828 18.4826 26.3448
469 1 -1.1104 11.8537 10.2073 20.76
9420 2 2.2208 13.4187 11.5071 25.0236
338 2 2.2208 7.64169 -2.41551 27.6709
642 1 -1.1104 9.22013 12.9295 23.3602
639 1 -1.1104 8.95377 13.0207 26.3094
645 1 -1.1104 9.05358 10.0278 26.2332
647 1 -1.1104 8.89121 9.99581 23.4422
649 2 2.2208 7.75891 8.56929 22.1838
651 2 2.2208 7.64618 11.5198 24.8768
654 2 2.2208 10.5347 11.4488 22.0447
658 1 -1.1104 11.572 9.98239 23.5063
659 2 2.2208 10.4728 8.53478 24.985
661 1 -1.1104 11.9629 9.95545 26.0854
581 1 -1.1104 11.9989 12.5846 23.4213
584 1 -1.1104 11.7982 12.5978 26.2477
613 2 2.2208 10.6058 19.9992 25.01
9642 2 2.2208 13.1869 8.74082 22.0329
9320 2 2.2208 13.4302 14.5864 27.8371
517 1 -1.1104 3.5052 15.9325 20.697
503 1 -1.1104 0.672687 15.7783 20.7855
493 1 -1.1104 0.711741 18.6722 20.8926
546 1 -1.1104 6.38247 18.6024 23.7005
610 1 -1.1104 11.8982 18.5726 26.3143
421 1 -1.1104 6.33206 15.575 23.3526
520 2 2.2208 4.83681 14.4713 24.7603
640 1 -1.1104 6.24145 18.5607 26.3243
575 1 -1.1104 6.25541 15.6966 26.3656
388 2 2.2208 1.9734 14.3628 21.9688
605 1 -1.1104 3.7102 18.6565 23.4719
417 2 2.2208 2.07367 20.0402 21.8351
419 1 -1.1104 3.47624 15.8051 23.6151
420 1 -1.1104 0.803155 15.6152 23.3831
456 1 -1.1104 3.45754 15.909 26.3696
457 2 2.2208 2.16412 17.3772 24.8911
482 1 -1.1104 3.28018 18.8046 26.0474
483 2 2.2208 4.91345 17.2819 21.9769
518 1 -1.1104 0.940352 18.6103 23.5035
545 2 2.2208 4.96744 20.0037 24.9335
573 1 -1.1104 0.655871 15.7663 26.2017
574 1 -1.1104 0.553717 18.5478 26.3921
382 1 -1.1104 9.03622 15.7175 26.1353
334 2 2.2208 4.97788 0.405523 27.6077
583 1 -1.1104 11.9796 18.4425 23.5988
9493 2 2.2208 13.3479 14.4412 22.0375
310 2 2.2208 7.68187 14.2746 27.6956
345 2 2.2208 7.57314 8.65585 27.5959
9313 2 2.2208 13.5527 11.5123 13.9404
663 2 2.2208 4.89852 22.661 5.09944
665 1 -1.1104 0.614612 24.1645 0.74109
666 1 -1.1104 0.509163 24.1255 3.71858
667 1 -1.1104 0.674274 21.4399 0.927457
669 2 2.2208 4.87173 25.3954 2.36139
670 1 -1.1104 0.810449 21.1535 3.55685
672 1 -1.1104 3.32439 24.0763 0.978363
673 2 2.2208 1.95564 22.8565 2.43928
675 1 -1.1104 3.39747 24.3889 3.80295
676 2 2.2208 2.13192 25.6764 5.28409
677 1 -1.1104 3.5546 21.35 0.926424
679 1 -1.1104 3.33644 21.3862 3.843
671 1 -1.1104 0.643654 26.9247 3.76751
678 1 -1.1104 3.87188 26.7802 0.914302
807 1 -1.1104 0.535559 27.2396 6.70169
811 1 -1.1104 3.39128 21.3906 6.58877
809 1 -1.1104 6.40156 27.0409 6.59159
684 1 -1.1104 6.06409 24.1006 0.793563
688 1 -1.1104 6.15042 21.2597 3.73069
687 1 -1.1104 6.61553 27.0034 0.923838
804 1 -1.1104 0.6758 24.0512 6.43082
806 1 -1.1104 0.739134 21.3063 6.52307
812 1 -1.1104 3.48836 26.9784 6.74714
686 1 -1.1104 6.12742 21.3229 0.992342
963 2 2.2208 13.4753 42.5488 5.00849
805 1 -1.1104 6.14635 23.9588 6.62421
685 1 -1.1104 6.16776 24.2145 3.93823
690 2 2.2208 10.2356 22.8022 5.31057
692 1 -1.1104 12.0271 24.1813 0.96014
693 1 -1.1104 11.9456 24.327 3.7841
694 1 -1.1104 11.9897 21.247 1.1857
696 2 2.2208 10.4777 25.387 2.40137
697 1 -1.1104 11.8661 21.6156 4.03554
699 1 -1.1104 9.11188 24.1739 0.960127
700 2 2.2208 7.81359 22.755 2.42149
702 1 -1.1104 8.96439 24.2217 3.67852
703 2 2.2208 7.70675 25.7103 5.14089
704 1 -1.1104 9.10642 21.5274 1.04281
706 1 -1.1104 8.97778 21.4159 3.79724
695 1 -1.1104 12.043 27.1603 0.728739
698 1 -1.1104 11.9439 26.9655 3.35557
839 1 -1.1104 12.1581 26.9756 6.39276
10009 2 2.2208 13.4323 25.5939 5.0389
705 1 -1.1104 9.35018 26.674 0.926815
707 1 -1.1104 9.25344 26.8331 3.74984
841 1 -1.1104 8.9488 21.3813 6.8287
990 2 2.2208 2.15696 25.5668 -0.537481
668 1 -1.1104 1.08422 26.8927 0.992699
689 1 -1.1104 6.12252 26.8819 3.77904
680 1 -1.1104 3.33882 27.0358 3.97204
664 2 2.2208 5.01037 28.3969 5.23866
674 2 2.2208 2.25005 28.4225 2.42977
712 1 -1.1104 0.50416 29.7707 1.0097
715 1 -1.1104 1.03643 30.0603 3.82847
718 1 -1.1104 0.787005 32.5007 0.793186
719 2 2.2208 5.12137 31.1361 2.38225
721 1 -1.1104 0.594668 32.7913 3.65742
723 1 -1.1104 3.52172 29.6131 0.863994
726 1 -1.1104 3.65838 29.9905 3.61588
728 2 2.2208 2.2066 31.3225 5.17134
730 1 -1.1104 3.61212 32.3935 1.01005
731 1 -1.1104 3.69239 32.723 3.57709
736 1 -1.1104 6.53158 29.7348 3.7039
735 1 -1.1104 6.39104 29.9024 0.889769
737 1 -1.1104 6.47948 32.537 1.00587
869 1 -1.1104 3.55564 32.6569 6.47588
867 1 -1.1104 3.52467 29.6739 6.59487
866 1 -1.1104 6.50815 32.4099 6.61341
863 1 -1.1104 6.34745 29.8087 6.57047
722 1 -1.1104 6.57992 32.8571 3.81273
865 1 -1.1104 0.652689 32.7026 6.66614
861 1 -1.1104 0.612477 29.9564 6.69579
691 2 2.2208 10.7296 28.358 5.0463
701 2 2.2208 7.9214 28.3128 2.27041
739 1 -1.1104 11.879 29.9924 0.774705
741 1 -1.1104 12.0691 29.8048 3.60141
743 1 -1.1104 12.007 32.677 0.952207
744 2 2.2208 10.461 31.1052 2.11812
746 1 -1.1104 12.0352 32.542 3.61327
747 1 -1.1104 8.88836 29.682 0.612837
750 1 -1.1104 9.27336 29.6604 3.60324
752 2 2.2208 7.89918 31.1719 5.05604
754 1 -1.1104 9.23647 32.499 0.763107
755 1 -1.1104 9.11161 32.5296 3.58852
842 1 -1.1104 9.27473 27.1576 6.38031
898 1 -1.1104 9.27182 29.8162 6.5347
10008 2 2.2208 13.3319 28.4279 2.20311
9754 2 2.2208 13.4777 31.1899 5.01877
897 1 -1.1104 12.0503 32.4697 6.28283
900 1 -1.1104 9.18474 32.5513 6.39248
711 2 2.2208 5.12085 34.0334 5.21722
713 1 -1.1104 0.84102 35.3694 0.730063
716 1 -1.1104 0.629488 35.514 3.69009
720 2 2.2208 5.02799 37.0064 2.17956
724 1 -1.1104 3.72745 35.4564 1.04311
725 2 2.2208 2.05089 33.9124 2.20236
727 1 -1.1104 3.34544 35.355 3.74987
729 2 2.2208 2.15433 36.8428 5.07893
757 2 2.2208 4.82624 39.5248 5.08876
763 1 -1.1104 0.95867 37.9965 1.00886
768 1 -1.1104 0.917755 38.3966 3.6455
773 2 2.2208 2.11347 39.6905 2.3336
777 1 -1.1104 3.63389 38.3253 0.571305
779 1 -1.1104 3.48044 38.1431 3.58177
770 1 -1.1104 6.17417 38.233 3.72377
714 1 -1.1104 6.40381 35.4792 0.727324
717 1 -1.1104 6.16182 35.6635 3.67058
937 1 -1.1104 6.26821 38.2152 6.58241
935 1 -1.1104 0.553526 38.2364 6.68585
862 1 -1.1104 0.856744 35.5335 6.74374
765 1 -1.1104 6.57226 38.3665 1.19415
941 1 -1.1104 3.2115 38.4831 6.35243
864 1 -1.1104 6.46798 35.3773 6.55998