ITEM: TIMESTEP
20000
ITEM: NUMBER OF ATOMS
17700
ITEM: BOX BOUNDS pp pp pp
-4.5049186755986714e-01 2.7790491867560167e+01
-5.2984124116320643e+00 3.3337841241162857e+02
-4.3353478740738088e-01 2.7773534787407598e+01
ITEM: ATOMS id type q x y z
1 2 2.2208 5.42007 0.375134 5.17423
2 1 -1.1104 1.1604 -3.7452 1.09419
6 1 -1.1104 1.27113 -3.91556 4.05157
10 1 -1.1104 0.896629 -0.947446 0.80691
12 2 2.2208 5.25086 -2.43939 2.49608
14 1 -1.1104 1.07403 -1.07674 3.76582
16 1 -1.1104 3.99657 -3.73794 1.05126
18 2 2.2208 2.47456 0.377519 2.36728
19 1 -1.1104 3.91552 -3.82742 3.93339
21 2 2.2208 2.56888 -2.32952 5.32194
23 1 -1.1104 3.88951 -1.00304 1.0582
24 1 -1.1104 3.77719 -0.924561 3.95502
576 2 2.2208 -0.27018 -5.15439 -0.248919
333 2 2.2208 8.01549 17.2382 13.6248
9285 2 2.2208 -0.471704 19.9991 2.33341
9189 2 2.2208 13.4384 8.79613 10.9154
172 1 -1.1104 4.127 -3.80471 6.75783
9185 2 2.2208 13.4908 11.5181 8.0865
11 1 -1.1104 6.64522 -1.09676 1.02909
8 1 -1.1104 6.93151 -3.82457 3.94467
15 1 -1.1104 6.72379 -0.959439 3.78848
4 1 -1.1104 6.7502 -3.78797 1.1266
31 2 2.2208 10.9644 0.316916 5.28208
32 1 -1.1104 12.5598 -3.91395 1.06033
34 1 -1.1104 12.5595 -3.88437 3.95968
36 1 -1.1104 12.2584 -1.05634 1.1199
37 2 2.2208 11.0025 -2.49167 2.54755
39 1 -1.1104 12.3507 -0.985648 3.82619
40 1 -1.1104 9.54311 -3.70451 1.39892
42 2 2.2208 8.22913 0.537524 2.30355
43 1 -1.1104 9.86232 -4.02823 3.94098
45 2 2.2208 8.22954 -2.45944 5.3335
47 1 -1.1104 9.40396 -0.801761 1.04793
48 1 -1.1104 9.53668 -1.00358 3.94921
171 1 -1.1104 6.60363 -0.864461 6.77029
210 1 -1.1104 9.70958 -0.822678 6.67436
208 1 -1.1104 9.70451 -3.75069 6.65275
207 1 -1.1104 12.47 -1.10905 6.90232
9300 2 2.2208 13.6562 0.163489 13.5387
3 1 -1.1104 0.973874 1.77704 0.991687
7 1 -1.1104 1.22487 1.63926 3.77152
13 2 2.2208 5.2961 3.10051 2.45918
17 1 -1.1104 3.9383 1.80558 1.23205
20 1 -1.1104 4.14838 1.96508 4.14454
22 2 2.2208 2.43735 3.29274 5.23019
54 2 2.2208 5.22208 6.06726 5.1581
56 1 -1.1104 0.998246 7.18899 0.989246
58 1 -1.1104 1.01165 7.13313 3.95616
60 1 -1.1104 1.08226 4.47313 1.04473
67 1 -1.1104 1.02384 4.35599 3.80486
71 1 -1.1104 3.6278 7.32326 0.907639
72 2 2.2208 2.44222 5.85891 2.4613
74 1 -1.1104 4.05395 7.43885 3.67524
76 1 -1.1104 3.76874 4.51817 0.944128
79 1 -1.1104 3.80929 4.57736 3.89175
311 2 2.2208 10.7914 17.3976 -0.440588
345 2 2.2208 8.09007 8.61435 -0.439994
9273 2 2.2208 13.5955 14.5384 10.8844
239 1 -1.1104 3.74132 4.57273 6.52478
234 1 -1.1104 0.916322 7.27468 6.783
236 1 -1.1104 1.09953 4.54193 6.69155
9314 2 2.2208 -0.344153 0.460435 -0.519215
57 1 -1.1104 6.53545 7.15044 1.06343
63 1 -1.1104 6.76294 4.5838 0.947503
9 1 -1.1104 7.09881 1.79042 3.82173
5 1 -1.1104 6.75765 1.88837 0.935482
59 1 -1.1104 6.70855 7.26917 3.51024
69 1 -1.1104 6.80914 4.64426 3.91458
33 1 -1.1104 12.2818 1.74425 0.950222
35 1 -1.1104 12.6818 1.73229 3.71648
38 2 2.2208 10.9902 3.06864 2.36262
41 1 -1.1104 9.56785 2.02201 0.939091
44 1 -1.1104 9.80679 1.97728 3.88763
46 2 2.2208 8.28014 3.18163 5.21221
84 2 2.2208 11.0439 6.07096 5.11553
87 1 -1.1104 12.3197 7.4669 3.62606
88 1 -1.1104 12.2051 4.67949 0.885833
92 1 -1.1104 12.4061 4.63234 3.76442
94 1 -1.1104 9.50896 7.33367 1.13071
95 2 2.2208 8.09479 5.85853 2.41348
97 1 -1.1104 9.4526 7.35686 3.98072
99 1 -1.1104 9.47844 4.6085 1.10942
102 1 -1.1104 9.49812 4.69813 3.80664
86 1 -1.1104 12.3379 7.51503 0.923858
267 1 -1.1104 9.65676 7.27538 6.75955
266 1 -1.1104 12.2387 4.48229 6.38027
237 1 -1.1104 6.6736 4.4679 6.45642
206 1 -1.1104 12.3335 1.72819 6.66384
9288 2 2.2208 -0.440401 3.10453 7.98468
55 2 2.2208 5.27164 11.5749 5.24512
61 1 -1.1104 0.912543 10.2859 0.97313
66 2 2.2208 5.40266 8.57658 2.26638
68 1 -1.1104 1.20372 9.95736 3.8951
73 2 2.2208 2.68163 11.5967 2.1503
75 2 2.2208 2.48916 8.74745 5.08308
77 1 -1.1104 3.71787 10.3177 0.630622
80 1 -1.1104 3.88557 10.262 3.82661
107 1 -1.1104 1.1528 13.0472 0.840426
113 1 -1.1104 1.01982 12.8717 3.36793
123 1 -1.1104 3.91661 13.1149 0.883094
128 1 -1.1104 3.76455 12.9481 3.81557
335 2 2.2208 2.4544 -2.38531 -0.426375
202 2 2.2208 2.47691 -5.23073 8.12593
70 1 -1.1104 6.70697 10.1589 3.70407
110 1 -1.1104 6.48363 12.9239 0.72112
64 1 -1.1104 6.59031 9.90346 1.00029
115 1 -1.1104 6.40883 13.0948 4.0752
85 2 2.2208 10.8063 11.6986 5.09856
89 1 -1.1104 12.2594 10.1711 1.2274
91 2 2.2208 10.7974 8.86556 2.43568
93 1 -1.1104 12.401 10.4031 3.79003
96 2 2.2208 7.9219 11.5271 2.09601
98 2 2.2208 8.0866 8.88962 4.96389
100 1 -1.1104 9.30891 10.019 0.929944
103 1 -1.1104 9.58664 10.44 3.75424
142 1 -1.1104 12.3577 12.995 0.952531
146 1 -1.1104 12.1256 13.2647 3.64979
153 1 -1.1104 9.55633 12.9592 0.892759
158 1 -1.1104 9.20241 13.0972 3.55717
90 1 -1.1104 12.219 10.3057 6.64451
101 1 -1.1104 9.51101 10.0291 6.34853
154 1 -1.1104 9.24958 12.8205 6.58536
9290 2 2.2208 -0.502034 0.322135 10.9707
9280 2 2.2208 -0.244781 8.73203 2.41728
326 2 2.2208 10.6762 8.90513 13.6415
9071 2 2.2208 13.6535 14.6316 5.3607
343 2 2.2208 10.7744 5.97116 -0.317466
119 2 2.2208 5.13651 14.4569 2.25997
130 2 2.2208 2.37386 14.4405 5.07506
106 2 2.2208 5.31083 17.1245 5.09764
109 1 -1.1104 1.00647 18.5504 1.00599
114 1 -1.1104 0.877938 18.5933 3.87393
116 1 -1.1104 0.907094 15.7199 0.893493
120 2 2.2208 5.08274 20.1615 2.09147
121 1 -1.1104 0.973913 15.7205 3.60221
125 1 -1.1104 3.6264 18.8413 0.957897
127 2 2.2208 2.29612 17.2448 2.44327
129 1 -1.1104 3.72406 18.6138 3.85559
131 2 2.2208 2.43273 20.1013 5.07203
132 1 -1.1104 3.75181 15.8752 0.906871
134 1 -1.1104 3.72217 15.7725 3.76848
138 1 -1.1104 6.67947 18.4833 1.13968
9292 2 2.2208 13.5943 -2.24069 10.8704
126 1 -1.1104 3.97739 18.7087 6.78329
319 2 2.2208 7.86955 0.433698 13.6397
122 1 -1.1104 6.68439 15.9604 3.97924
112 1 -1.1104 6.71132 18.7388 6.92715
139 1 -1.1104 6.59996 18.7606 3.84793
140 1 -1.1104 6.73912 15.814 1.0639
141 2 2.2208 10.8169 17.306 5.09655
144 1 -1.1104 12.4069 18.5776 0.77091
147 1 -1.1104 12.1408 18.8088 3.59626
148 1 -1.1104 12.4257 15.6781 1.03515
150 2 2.2208 10.8268 14.4422 2.24271
151 2 2.2208 10.6596 20.1821 2.28867
152 1 -1.1104 12.0951 15.932 3.66412
155 1 -1.1104 9.40285 18.6675 0.862704
157 2 2.2208 8.08074 17.2426 2.50728
159 1 -1.1104 9.29772 18.7101 3.80574
160 2 2.2208 8.12058 14.4013 5.32799
161 2 2.2208 8.22316 20.106 5.22397
162 1 -1.1104 9.43478 15.798 1.10095
164 1 -1.1104 9.46295 15.8554 3.94104
9276 2 2.2208 -0.379978 3.07807 2.32989
9203 2 2.2208 -0.436726 6.04134 10.9284
318 2 2.2208 8.0077 20.0489 -0.42653
163 1 -1.1104 9.51416 15.5042 6.73188
166 1 -1.1104 1.18229 -3.86098 6.7699
174 1 -1.1104 3.8344 -0.836403 6.57651
170 1 -1.1104 0.992787 -0.973026 6.77433
175 2 2.2208 5.20938 0.524563 11.0209
176 1 -1.1104 0.84883 -3.90824 12.2141
180 1 -1.1104 0.968835 -3.78301 9.49
184 1 -1.1104 1.1573 -0.881614 12.2351
186 2 2.2208 5.38223 -2.49683 8.18207
188 1 -1.1104 1.10665 -1.17318 9.59996
190 1 -1.1104 3.60107 -3.79253 12.4896
192 2 2.2208 2.50442 0.446087 8.06955
193 1 -1.1104 3.76649 -3.83066 9.63979
195 2 2.2208 2.35764 -2.48539 11.0538
197 1 -1.1104 3.87481 -1.07947 12.3152
198 1 -1.1104 3.86483 -0.982329 9.80124
28 2 2.2208 2.35671 -5.11017 2.52842
189 1 -1.1104 6.63476 -1.14699 9.47924
324 2 2.2208 2.30962 11.6766 13.6837
9289 2 2.2208 -0.396062 -2.46447 8.2678
9235 2 2.2208 13.4364 20.0993 10.8743
168 1 -1.1104 7.06908 -3.73462 6.79025
9293 2 2.2208 -0.414357 14.4825 7.91716
182 1 -1.1104 6.74285 -4.03101 9.59298
205 1 -1.1104 12.4662 -3.77095 6.79396
178 1 -1.1104 6.68775 -3.70777 12.5518
185 1 -1.1104 6.70774 -1.01434 12.4779
211 2 2.2208 10.6221 0.459573 10.85
212 1 -1.1104 12.2817 -3.77458 12.3015
214 1 -1.1104 12.4396 -3.82499 9.71129
216 1 -1.1104 12.1411 -1.17176 12.1696
217 2 2.2208 10.9451 -2.60915 8.22001
219 1 -1.1104 12.2824 -0.771372 9.57845
220 1 -1.1104 9.42658 -3.79231 12.0265
222 2 2.2208 8.13877 0.44121 8.03827
223 1 -1.1104 9.4444 -3.84671 9.40778
225 2 2.2208 8.16577 -2.40051 10.8872
227 1 -1.1104 9.47201 -0.815382 12.4758
228 1 -1.1104 9.39741 -1.1022 9.54131
9272 2 2.2208 -0.290734 -2.284 2.32005
30 2 2.2208 -0.334101 -5.24918 5.38232
328 2 2.2208 2.35867 17.3066 13.6234
25 2 2.2208 10.7986 17.3272 10.8046
173 1 -1.1104 4.009 1.77367 6.88332
238 1 -1.1104 3.783 7.40063 6.58685
167 1 -1.1104 1.23951 1.52789 6.43159
177 1 -1.1104 1.08374 1.84932 12.4091
181 1 -1.1104 0.937403 1.88617 9.44918
187 2 2.2208 5.23221 3.11786 8.04507
191 1 -1.1104 3.81303 1.72867 12.3451
194 1 -1.1104 3.65828 1.92275 9.59473
196 2 2.2208 2.28009 3.19611 10.9079
240 2 2.2208 4.96641 5.92807 10.7573
242 1 -1.1104 0.883028 7.38413 12.3573
244 1 -1.1104 1.07619 7.29145 9.66622
246 1 -1.1104 0.872644 4.62582 12.4325
251 1 -1.1104 0.753304 4.51489 9.32992
256 2 2.2208 2.26744 5.9622 8.02438
258 1 -1.1104 3.66057 7.49232 9.3408
260 1 -1.1104 3.69844 4.39188 12.1298
262 1 -1.1104 3.44664 4.53077 9.53637
255 1 -1.1104 3.71067 7.30047 12.2793
245 1 -1.1104 6.53462 7.42885 9.31882
50 1 -1.1104 12.2626 18.7109 9.5863
29 2 2.2208 5.27624 -5.25419 5.39052
235 1 -1.1104 6.60043 7.38269 6.28777
179 1 -1.1104 6.66016 1.91578 12.2161
248 1 -1.1104 6.56801 4.57936 12.2442
265 1 -1.1104 12.4522 7.28853 6.51846
269 1 -1.1104 9.60613 4.58991 6.53623
169 1 -1.1104 6.75769 1.81417 6.58582
209 1 -1.1104 9.62967 1.79171 6.59073
243 1 -1.1104 6.52851 7.38652 12.2353
253 1 -1.1104 6.32168 4.79557 9.24717
183 1 -1.1104 6.59904 1.75285 9.50054
213 1 -1.1104 12.5051 1.75378 11.9877
215 1 -1.1104 12.3868 2.03751 9.34724
218 2 2.2208 10.9162 3.27352 7.88048
221 1 -1.1104 9.50951 1.88216 12.3206
224 1 -1.1104 9.5009 1.72152 9.31308
226 2 2.2208 8.05566 3.06795 10.8226
268 1 -1.1104 9.54186 4.33853 9.50188
271 1 -1.1104 9.41545 4.46822 12.1037
275 2 2.2208 7.99082 5.9251 7.93533
276 2 2.2208 10.8264 5.88616 10.9071
278 1 -1.1104 12.2125 7.47629 12.1556
279 1 -1.1104 12.2774 7.35619 9.36835
280 1 -1.1104 12.2335 4.6437 12.5776
283 1 -1.1104 12.4422 4.6957 9.53256
285 1 -1.1104 9.20553 7.36622 12.2778
273 1 -1.1104 9.33499 7.24339 9.27001
323 2 2.2208 5.18545 8.83559 13.4341
9279 2 2.2208 -0.407256 5.9546 5.40779
124 1 -1.1104 3.78864 13.2643 6.52083
62 1 -1.1104 0.766267 10.193 6.7027
108 1 -1.1104 1.05684 12.9487 6.4889
9284 2 2.2208 -0.338978 14.3534 2.24654
78 1 -1.1104 3.83338 10.1585 6.50818
241 2 2.2208 5.14377 11.7605 10.8317
247 1 -1.1104 0.782009 10.2708 12.3412
250 2 2.2208 5.08003 8.80561 7.90011
252 1 -1.1104 1.05848 10.2887 9.45047
257 2 2.2208 2.33798 11.6269 7.87174
259 2 2.2208 2.17686 8.81067 11.135
261 1 -1.1104 3.59357 10.1785 12.2642
263 1 -1.1104 3.83991 10.3545 9.25858
287 1 -1.1104 3.7644 13.0788 12.1858
294 1 -1.1104 0.812549 13.0685 9.36433
299 1 -1.1104 1.04339 13.053 12.2928
305 1 -1.1104 3.75241 13.1972 9.39861
65 1 -1.1104 6.62643 10.062 6.55596
249 1 -1.1104 6.90658 10.2067 12.3578
156 1 -1.1104 9.5346 18.3546 6.75303
9050 2 2.2208 13.5116 20.14 5.08032
254 1 -1.1104 6.50668 10.2237 9.3606
111 1 -1.1104 6.45973 12.912 6.68368
143 1 -1.1104 12.2089 12.9653 6.59215
297 1 -1.1104 6.45557 12.8892 12.1217
290 1 -1.1104 6.93095 13.0524 9.36683
137 1 -1.1104 9.5589 13.0201 9.44316
49 1 -1.1104 12.2303 12.8106 9.34619
105 1 -1.1104 9.35207 12.974 12.2043
26 1 -1.1104 12.2079 12.9744 12.192
264 1 -1.1104 9.41388 10.1046 9.15818
270 1 -1.1104 9.57338 10.2205 12.1159
272 2 2.2208 8.00966 8.95471 10.6411
274 2 2.2208 7.97529 11.5306 7.92984
277 2 2.2208 10.8982 11.5783 10.8263
281 1 -1.1104 12.4223 10.259 12.302
282 2 2.2208 10.8839 8.60993 8.07235
284 1 -1.1104 12.187 10.133 9.49914
302 1 -1.1104 1.01242 18.8243 6.48144
118 1 -1.1104 6.84077 15.6966 6.77562
230 2 2.2208 2.3002 14.4384 10.6507
288 1 -1.1104 6.66014 18.9034 9.50256
133 1 -1.1104 3.67715 15.7779 6.51287
117 1 -1.1104 0.807144 15.9302 6.42669
295 2 2.2208 5.13635 14.4966 7.94648
286 1 -1.1104 3.88503 18.5414 12.4376
291 1 -1.1104 0.961111 18.6574 9.31722
292 1 -1.1104 0.999666 15.8898 9.25605
293 2 2.2208 5.34024 20.2561 7.89426
298 1 -1.1104 1.00015 18.4806 12.192
300 2 2.2208 5.38103 17.4078 10.7959
301 1 -1.1104 3.92495 19.036 9.65452
303 2 2.2208 2.41042 17.3498 7.88068
304 1 -1.1104 3.82481 16.0668 9.2333
307 1 -1.1104 0.817962 15.8853 11.9697
308 1 -1.1104 3.51952 15.6738 12.2817
309 2 2.2208 2.36035 20.0696 10.7107
136 2 2.2208 8.20315 17.0479 8.03025
9275 2 2.2208 -0.142172 0.273587 5.17704
306 1 -1.1104 6.54864 15.9196 12.3174
149 1 -1.1104 12.1619 15.8406 6.71246
145 1 -1.1104 12.2647 18.5653 6.52757
135 1 -1.1104 9.43347 18.5646 12.2097
83 2 2.2208 10.8627 19.9799 7.8799
81 1 -1.1104 12.1241 15.9591 12.3224
82 2 2.2208 10.9431 14.3502 8.15052
165 1 -1.1104 9.6684 18.6975 9.4757
104 1 -1.1104 12.1232 15.8137 9.4215
201 1 -1.1104 9.29947 15.7933 12.2382
200 2 2.2208 8.10459 20.1307 10.7884
199 2 2.2208 7.8374 14.216 10.8837
229 1 -1.1104 9.42625 15.7237 9.63602
296 1 -1.1104 6.73074 18.9258 12.2623
289 1 -1.1104 6.60657 15.7795 9.506
27 1 -1.1104 12.253 18.7795 12.4913
338 2 2.2208 8.22943 -2.4386 -0.267825
336 2 2.2208 2.46507 3.11764 -0.359999
9332 2 2.2208 -0.311496 20.0721 13.5244
332 2 2.2208 10.94 14.4338 13.5239
9002 2 2.2208 13.5118 8.80644 5.09514
9291 2 2.2208 13.6634 0.393466 7.9735
340 2 2.2208 5.21304 5.79542 -0.379067
9299 2 2.2208 -0.368143 17.2506 -0.316181
9308 2 2.2208 13.7364 3.14378 -0.31223
329 2 2.2208 5.15301 20.1297 13.6274
334 2 2.2208 5.33023 0.28628 -0.393098
337 2 2.2208 10.9224 0.360617 -0.407175
346 2 2.2208 5.39093 0.259071 16.5172
347 1 -1.1104 1.33895 -3.79688 18.0043
351 1 -1.1104 0.843085 -3.82476 15.2411
359 1 -1.1104 1.05778 -1.13255 18.0662
361 2 2.2208 5.28887 -2.35828 19.27
363 1 -1.1104 1.03896 -0.929108 15.0179
367 1 -1.1104 3.93544 -3.86098 18.081
369 2 2.2208 2.5109 0.307246 19.2349
370 1 -1.1104 3.76248 -3.76379 15.0807
374 2 2.2208 2.33471 -2.26464 16.4731
376 1 -1.1104 3.81758 -1.02425 17.9448
377 1 -1.1104 4.06945 -0.97721 15.2341
330 2 2.2208 4.99598 14.5257 13.6628
9306 2 2.2208 -0.49421 3.12164 13.6798
381 2 2.2208 2.36428 -5.33141 19.3827
378 1 -1.1104 3.80236 -0.994021 20.9024
349 1 -1.1104 6.75855 -3.76242 17.9394
313 2 2.2208 2.43448 0.464907 13.7929
9522 2 2.2208 13.5816 17.2734 19.3889
364 1 -1.1104 1.12674 -1.17484 20.7195
352 1 -1.1104 0.771346 -3.85889 20.8397
580 2 2.2208 2.57104 -5.21922 25.0116
365 1 -1.1104 6.64462 -0.995514 14.9636
360 1 -1.1104 6.63856 -0.932084 17.8231
355 1 -1.1104 6.68562 -3.83987 15.277
389 2 2.2208 11.0207 0.265385 16.482
390 1 -1.1104 12.2451 -3.71556 18.0617
392 1 -1.1104 12.1859 -3.80348 15.1906
396 1 -1.1104 12.5199 -1.0919 18.0108
397 2 2.2208 10.7938 -2.33386 19.404
399 1 -1.1104 12.3555 -0.982175 15.2081
401 1 -1.1104 9.649 -3.89582 18.0013
403 2 2.2208 8.1183 0.486395 19.2309
404 1 -1.1104 9.53604 -3.80813 14.8722
408 2 2.2208 7.96626 -2.47041 16.3844
410 1 -1.1104 9.49436 -1.00084 17.9251
411 1 -1.1104 9.50853 -1.25316 15.0915
315 2 2.2208 2.34112 14.4188 27.7122
9380 2 2.2208 13.5461 6.1809 25.0158
314 2 2.2208 5.16854 3.18378 13.7099
366 1 -1.1104 6.56362 -0.760143 20.46
412 1 -1.1104 9.47271 -0.901912 20.786
356 1 -1.1104 6.54412 -3.5016 20.7287
393 1 -1.1104 12.286 -3.66682 20.777
400 1 -1.1104 12.3319 -0.978413 20.924
348 1 -1.1104 1.05059 1.63215 17.8716
353 1 -1.1104 1.06815 1.9035 15.0049
362 2 2.2208 5.13703 3.34422 19.3613
368 1 -1.1104 3.89035 1.69778 17.8759
372 1 -1.1104 3.85015 1.76047 15.063
375 2 2.2208 2.3609 3.20912 16.6237
422 2 2.2208 5.06923 6.03806 16.4376
424 1 -1.1104 1.16855 7.155 17.9014
426 1 -1.1104 0.761675 7.55749 14.9183
430 1 -1.1104 0.846062 4.56439 17.9518
435 1 -1.1104 0.982327 4.63829 15.1089
443 1 -1.1104 3.86062 7.35502 17.8908
444 2 2.2208 2.49748 6.07714 19.3981
449 1 -1.1104 3.703 4.57222 17.809
451 1 -1.1104 3.70747 4.59611 15.0997
446 1 -1.1104 3.80953 7.27221 15.0098
350 1 -1.1104 6.72227 2.0723 17.9691
432 1 -1.1104 6.51833 4.87834 17.7601
9452 2 2.2208 13.5942 11.8283 19.2861
579 2 2.2208 5.1794 -5.17935 22.075
373 1 -1.1104 3.82686 1.78084 20.6464
452 1 -1.1104 3.62191 4.63886 20.7507
358 1 -1.1104 6.34746 1.95421 20.8611
427 1 -1.1104 1.09138 7.48811 20.6386
9523 2 2.2208 13.5907 20.2006 16.6366
9563 2 2.2208 -0.457637 17.2704 16.3502
357 1 -1.1104 6.71343 1.71578 15.0818
439 1 -1.1104 6.42407 4.40296 15.1139
428 1 -1.1104 6.45983 7.30514 15.1381
391 1 -1.1104 12.422 1.66883 17.6402
394 1 -1.1104 12.3436 1.78025 14.8684
398 2 2.2208 11.0622 3.05868 19.2561
402 1 -1.1104 9.63402 1.7805 17.9499
406 1 -1.1104 9.35547 1.70237 15.0696
409 2 2.2208 7.931 3.15678 16.5197
458 2 2.2208 10.8934 6.11166 16.3763
460 1 -1.1104 12.2702 7.59431 17.9169
461 1 -1.1104 12.0678 7.59214 14.9054
463 1 -1.1104 12.513 4.45031 18.0706
466 1 -1.1104 12.4034 4.84152 15.3174
470 1 -1.1104 9.57962 7.29522 17.9743
471 2 2.2208 8.21087 6.08599 19.1723
473 1 -1.1104 9.35102 7.53714 15.0467
476 1 -1.1104 9.74315 4.50665 17.4172
478 1 -1.1104 9.30806 4.71341 15.0419
395 1 -1.1104 12.4049 1.71572 20.6671
425 1 -1.1104 6.68487 7.56429 18.1924
479 1 -1.1104 9.52995 4.59676 20.4639
9453 2 2.2208 -0.322549 0.298866 22.1516
317 2 2.2208 2.04551 20.2702 27.7816
423 2 2.2208 5.11062 11.6949 16.4842
431 1 -1.1104 0.902251 10.2842 17.8551
434 2 2.2208 5.11574 8.89612 19.2644
437 1 -1.1104 1.12712 10.3516 15.1625
445 2 2.2208 2.37026 11.6547 19.0399
448 2 2.2208 2.39086 8.78634 16.2711
450 1 -1.1104 3.64219 10.1839 17.8812
453 1 -1.1104 3.89495 10.2393 14.8987
486 1 -1.1104 0.841256 13.1202 17.8431
490 1 -1.1104 0.759927 13.2302 15.1192
506 1 -1.1104 3.74687 13.2824 17.9753
509 1 -1.1104 3.54949 13.0083 15.0648
488 1 -1.1104 6.53886 12.9141 17.9055
510 1 -1.1104 3.82168 13.3706 21.0693
414 2 2.2208 10.7779 -5.25433 16.719
497 1 -1.1104 6.45415 18.6544 20.7963
380 2 2.2208 5.19307 -5.21046 16.7493
441 1 -1.1104 6.54536 10.2641 15.1111
494 1 -1.1104 6.19742 13.0901 15.0454
433 1 -1.1104 6.30296 10.3376 17.8567
459 2 2.2208 10.6554 11.68 16.5665
464 1 -1.1104 12.0526 10.4165 17.825
465 2 2.2208 10.9626 8.89614 19.3649
468 1 -1.1104 12.0283 10.2065 15.1215
472 2 2.2208 7.99939 11.6548 19.5634
475 2 2.2208 7.73986 8.99593 16.6137
477 1 -1.1104 9.2608 10.3974 18.1127
480 1 -1.1104 9.21918 10.3004 15.2167
522 1 -1.1104 12.1695 13.0357 17.8993
524 1 -1.1104 12.1418 13.0258 15.0351
533 1 -1.1104 9.38656 13.3436 18.2397
536 1 -1.1104 9.37186 13.0247 15.3464
442 1 -1.1104 6.49432 10.2487 20.6199
537 1 -1.1104 9.17306 13.1288 20.8476
495 1 -1.1104 6.53452 13.1753 20.6217
469 1 -1.1104 12.3386 10.4412 20.6409
525 1 -1.1104 12.1477 13.0566 20.8027
641 1 -1.1104 11.9387 15.9146 26.3322
312 2 2.2208 5.27525 -2.3705 13.7177
608 2 2.2208 11.1565 -5.08644 22.2573
513 2 2.2208 2.3668 14.4047 16.5221
500 2 2.2208 5.16862 14.7743 19.506
485 2 2.2208 5.15061 17.3035 16.2964
487 1 -1.1104 1.00522 18.6359 17.7919
492 1 -1.1104 1.02497 18.7173 15.1177
498 1 -1.1104 0.921989 15.703 18.1125
501 2 2.2208 4.87728 19.9662 19.2854
502 1 -1.1104 1.19377 15.9787 14.9919
507 1 -1.1104 3.83748 18.5602 17.7251
508 2 2.2208 2.15861 17.2078 19.3042
511 1 -1.1104 3.61352 18.7166 14.9836
514 2 2.2208 2.34188 20.0201 16.3835
515 1 -1.1104 3.71557 15.7865 17.9486
516 1 -1.1104 3.79059 15.8048 15.1186
493 1 -1.1104 0.760783 18.6895 20.8275
384 1 -1.1104 9.42157 15.7683 23.5475
512 1 -1.1104 3.62878 18.6602 20.8141
582 2 2.2208 -0.389148 -2.51416 25.0746
496 1 -1.1104 6.41085 18.6468 15.2138
532 1 -1.1104 12.1686 16.0872 20.7806
529 2 2.2208 10.9351 14.6 19.4413
540 2 2.2208 8.05146 14.6436 16.6634
504 1 -1.1104 6.5265 15.7607 14.976
489 1 -1.1104 6.43404 18.6975 18.0923
499 1 -1.1104 6.41551 16.0716 17.8532
521 2 2.2208 10.6821 17.3677 16.4929
523 1 -1.1104 12.175 18.7287 18.0902
526 1 -1.1104 12.096 18.6697 15.3413
528 1 -1.1104 12.0237 15.954 17.8092
530 2 2.2208 10.6316 20.0474 19.5294
531 1 -1.1104 12.058 15.8911 15.0005
534 1 -1.1104 9.3359 18.6194 18.0624
535 2 2.2208 7.88537 17.2863 19.3618
538 1 -1.1104 9.50683 18.7808 15.1339
541 2 2.2208 7.99527 20.0369 16.6269
542 1 -1.1104 9.10748 15.9954 18.0907
543 1 -1.1104 9.38954 15.9205 14.9968
544 1 -1.1104 9.56397 16.0239 20.7043
9492 2 2.2208 -0.317035 6.01024 16.4764
643 1 -1.1104 9.45363 18.7237 23.6892
610 1 -1.1104 12.2197 18.7266 26.2954
9455 2 2.2208 13.5284 20.1509 22.1909
371 1 -1.1104 3.78318 -3.9188 20.9686
9520 2 2.2208 13.4722 14.3614 16.4215
386 2 2.2208 7.91756 20.2726 22.165
549 2 2.2208 5.11292 0.337655 22.0834
550 1 -1.1104 1.09529 -3.81061 23.8039
554 1 -1.1104 1.02303 -3.97561 26.5378
558 1 -1.1104 1.23693 -0.979332 23.5765
560 2 2.2208 5.26222 -2.54353 25.0661
562 1 -1.1104 0.880244 -1.21809 26.3896
564 1 -1.1104 4.04176 -3.65121 23.6097
566 2 2.2208 2.44511 0.351047 25.1703
567 1 -1.1104 3.646 -3.89802 26.4009
569 2 2.2208 2.49129 -2.29582 22.2034
571 1 -1.1104 3.88341 -1.12663 23.6751
572 1 -1.1104 3.91667 -1.03443 26.5681
9450 2 2.2208 13.6272 8.88028 16.5349
609 2 2.2208 8.26122 -5.13069 25.1355
559 1 -1.1104 6.73982 -1.09886 23.6563
405 1 -1.1104 9.46902 -3.73199 20.7435
563 1 -1.1104 6.86371 -1.11175 26.3809
556 1 -1.1104 6.78437 -3.95011 26.6286
552 1 -1.1104 6.91495 -3.98129 23.5159
585 2 2.2208 10.7798 0.302503 22.2579
586 1 -1.1104 12.2801 -3.85024 23.6933
588 1 -1.1104 12.3877 -3.71105 26.4828
590 1 -1.1104 12.2765 -1.17527 23.61
591 2 2.2208 11.1743 -2.49306 25.0555
593 1 -1.1104 12.6227 -0.902579 26.3759
594 1 -1.1104 9.81728 -4.0468 23.6586
596 2 2.2208 8.18159 0.333476 24.9046
597 1 -1.1104 9.66038 -3.95469 26.5508
599 2 2.2208 8.00875 -2.39992 22.1092
601 1 -1.1104 9.52096 -1.21686 23.3244
602 1 -1.1104 9.68083 -1.05581 26.3569
447 1 -1.1104 3.70349 7.43512 20.5884
320 2 2.2208 10.9258 -2.39336 13.7367
354 1 -1.1104 1.05113 1.78268 20.8904
436 1 -1.1104 1.03655 4.69627 20.662
551 1 -1.1104 1.04242 1.838 23.6137
555 1 -1.1104 1.30755 1.66468 26.3615
561 2 2.2208 5.20574 3.17215 24.9437
565 1 -1.1104 3.87992 1.59149 23.6057
568 1 -1.1104 3.95903 1.73307 26.4037
570 2 2.2208 2.527 3.09513 22.1551
614 2 2.2208 5.51192 5.78153 22.1851
616 1 -1.1104 1.1088 7.33729 23.2701
618 1 -1.1104 1.05945 7.19004 26.2255
620 1 -1.1104 1.09136 4.54931 23.5104
625 1 -1.1104 0.819835 4.37944 26.4889
630 2 2.2208 2.51605 5.75949 24.9768
632 1 -1.1104 3.88958 7.17333 26.0273
634 1 -1.1104 3.78768 4.43638 23.3726
636 1 -1.1104 3.73519 4.50727 26.4332
629 1 -1.1104 4.07291 7.14244 23.4577
440 1 -1.1104 6.7944 4.52348 20.7262
9494 2 2.2208 -0.427255 0.342225 16.3488
611 1 -1.1104 12.2542 15.9743 23.6066
467 1 -1.1104 12.1556 4.5096 20.8171
407 1 -1.1104 9.22318 1.86996 20.5714
553 1 -1.1104 6.60446 1.6627 23.5629
474 1 -1.1104 9.59268 7.54152 20.7455
627 1 -1.1104 6.6023 4.36617 26.3407
557 1 -1.1104 6.81192 1.75297 26.4236
429 1 -1.1104 6.71656 7.22787 20.6937
619 1 -1.1104 6.87266 7.24924 26.37
622 1 -1.1104 6.65558 4.50278 23.6134
617 1 -1.1104 6.78229 7.41078 23.5949
587 1 -1.1104 12.3066 1.91582 23.4663
589 1 -1.1104 12.6125 1.81252 26.4443
592 2 2.2208 10.929 3.31002 24.9972
595 1 -1.1104 9.41116 1.65238 23.7565
598 1 -1.1104 9.84801 1.92186 26.4673
600 2 2.2208 8.13361 3.19129 22.098
646 1 -1.1104 9.50751 4.76032 26.3347
648 1 -1.1104 9.45448 4.54995 23.5067
650 1 -1.1104 9.53797 7.5046 26.4063
652 2 2.2208 8.27104 6.05889 25.0037
653 2 2.2208 10.8334 5.93976 22.1589
656 1 -1.1104 12.3302 7.63223 26.2542
657 1 -1.1104 12.4033 4.73016 23.8164
660 1 -1.1104 12.3796 4.73361 26.4575
662 1 -1.1104 9.50227 7.15456 23.5759
462 1 -1.1104 12.1977 7.46813 20.5265
655 1 -1.1104 12.1911 7.47036 23.2228
383 2 2.2208 -0.335216 -2.42506 19.5165
644 2 2.2208 7.93216 17.2955 25.0818
9379 2 2.2208 -0.40731 14.3731 24.9175
9317 2 2.2208 -0.400084 -2.41457 13.6737
438 1 -1.1104 0.724956 10.3452 20.6255
491 1 -1.1104 1.00273 13.1145 20.5297
454 1 -1.1104 3.6843 10.3034 20.4164
638 1 -1.1104 9.47831 18.6705 26.3823
615 2 2.2208 5.13792 11.8135 21.9944
621 1 -1.1104 0.946592 10.1843 23.4937
624 2 2.2208 5.37234 8.66743 24.8061
626 1 -1.1104 1.19778 10.1719 26.2474
631 2 2.2208 2.48249 11.507 24.9357
633 2 2.2208 2.55038 8.68332 22.1733
635 1 -1.1104 4.00478 10.05 23.2964
637 1 -1.1104 4.0868 10.1041 26.2648
455 1 -1.1104 3.8495 12.9407 26.3799
484 1 -1.1104 0.829657 12.9995 23.2596
547 1 -1.1104 1.1381 12.9231 26.1335
603 1 -1.1104 3.72782 12.8635 23.4947
387 2 2.2208 8.03592 14.7198 22.1098
505 1 -1.1104 6.58086 15.8814 20.7539
481 1 -1.1104 9.5239 10.1274 20.8755
519 1 -1.1104 6.98741 13.1579 23.2749
628 1 -1.1104 6.73238 10.1321 26.254
604 1 -1.1104 6.59247 13.1186 26.1408
623 1 -1.1104 6.67423 10.2725 23.3353
642 1 -1.1104 9.58891 13.0815 23.5449
639 1 -1.1104 9.4836 13.0626 26.4776
645 1 -1.1104 9.71248 10.1102 26.2984
647 1 -1.1104 9.41467 9.93773 23.6134
649 2 2.2208 7.89823 8.74189 21.9507
651 2 2.2208 8.18585 11.6299 24.8419
654 2 2.2208 10.7478 11.666 22.1983
658 1 -1.1104 12.2419 10.3165 23.5705
659 2 2.2208 10.83 8.84983 24.8495
661 1 -1.1104 12.6171 10.3366 26.3776
581 1 -1.1104 12.4957 12.9124 23.5014
584 1 -1.1104 12.5122 13.2247 26.2917
546 1 -1.1104 6.6746 18.9166 23.7285
9419 2 2.2208 -0.279268 3.24043 19.511
342 2 2.2208 5.2665 11.6603 27.5737
517 1 -1.1104 3.58969 15.8891 20.8883
503 1 -1.1104 0.933364 15.9355 20.6695
388 2 2.2208 2.21306 14.3318 21.995
520 2 2.2208 5.2004 14.3926 24.9237
605 1 -1.1104 3.89696 18.7089 23.4427
417 2 2.2208 2.23989 20.1596 22.1758
419 1 -1.1104 3.68254 15.824 23.8456
420 1 -1.1104 0.938144 16.0459 23.6954
456 1 -1.1104 4.00475 15.7733 26.5113
457 2 2.2208 2.47468 17.4844 24.9531
482 1 -1.1104 3.89885 18.6108 26.1713
483 2 2.2208 5.0859 17.1969 22.1277
518 1 -1.1104 0.743967 18.8098 23.584
545 2 2.2208 5.24344 20.2079 25.0347
573 1 -1.1104 1.2199 15.7815 26.2967
574 1 -1.1104 0.970763 18.7056 26.4468
640 1 -1.1104 6.56488 18.5436 26.5634
9422 2 2.2208 -0.134464 8.60435 24.9401
539 1 -1.1104 9.36655 18.893 20.8791
575 1 -1.1104 6.77042 15.7637 26.365
613 2 2.2208 10.7828 20.1859 25.0099
612 2 2.2208 10.7433 14.5168 25.1578
548 2 2.2208 10.8837 17.2987 22.2982
527 1 -1.1104 12.1727 18.6779 20.7275
583 1 -1.1104 12.2541 18.7207 23.6057
421 1 -1.1104 6.55435 16.0187 23.4804
416 2 2.2208 8.04805 -5.32317 13.8537
382 1 -1.1104 9.46149 15.8533 26.5626
310 2 2.2208 7.96786 14.2934 27.8417
9456 2 2.2208 13.7083 17.3098 24.92
331 2 2.2208 10.7974 20.0085 13.8455
9313 2 2.2208 13.5283 11.6014 13.6116
578 2 2.2208 5.30894 -5.26738 27.8017
9310 2 2.2208 13.6118 6.20301 13.6952
9670 2 2.2208 -0.29065 5.95044 21.9914
379 2 2.2208 -0.319947 -5.32046 16.4584
9319 2 2.2208 13.6263 20.0729 27.601
344 2 2.2208 11.0881 11.6124 27.7398
339 2 2.2208 8.12891 3.16432 27.6123
413 2 2.2208 13.6093 -5.15433 19.3651
341 2 2.2208 2.48199 8.57505 27.6041
9315 2 2.2208 13.5598 17.2456 13.8868
418 2 2.2208 13.6094 -5.12713 13.7205
9449 2 2.2208 -0.323687 3.18299 24.921
327 2 2.2208 7.87787 11.7957 13.8144
9331 2 2.2208 -0.332305 14.6351 13.7153
322 2 2.2208 2.43874 5.9342 13.7538
321 2 2.2208 10.7894 3.23039 13.7584
325 2 2.2208 7.89307 6.15094 13.6973
316 2 2.2208 5.16752 17.1857 27.6963
663 2 2.2208 5.11541 22.7723 5.1584
665 1 -1.1104 0.821181 24.4521 0.801186
666 1 -1.1104 0.995053 24.1878 3.62128
667 1 -1.1104 0.862602 21.6085 0.906469
669 2 2.2208 5.21601 25.8001 2.44125
670 1 -1.1104 0.94374 21.3687 3.73835
672 1 -1.1104 3.89768 24.3949 1.12213
673 2 2.2208 2.4283 23.0018 2.18389
675 1 -1.1104 3.70229 24.2359 3.62954
676 2 2.2208 2.3239 25.4843 5.1672
677 1 -1.1104 3.63578 21.4903 0.734764
679 1 -1.1104 3.81455 21.4936 3.51347
671 1 -1.1104 0.948409 27.0709 4.05072
668 1 -1.1104 1.10966 27.1383 1.07074
678 1 -1.1104 3.77084 27.128 1.05485
804 1 -1.1104 1.11142 24.1908 6.48213
812 1 -1.1104 3.84686 27.0905 6.68691
680 1 -1.1104 3.90576 27.0628 3.96409
1003 2 2.2208 7.86562 31.2429 -0.395039
999 2 2.2208 4.97269 34.1752 -0.412293
811 1 -1.1104 3.83844 21.3499 6.39384
810 1 -1.1104 3.85457 24.176 6.50178
781 2 2.2208 -0.414036 42.6292 2.33287
685 1 -1.1104 6.52028 24.3053 3.91989
689 1 -1.1104 6.72668 27.0407 3.82521
684 1 -1.1104 6.58566 24.5984 1.18488
686 1 -1.1104 6.46091 21.5721 0.973456
688 1 -1.1104 6.48407 21.4978 3.73982
690 2 2.2208 10.7871 23.0348 5.04879
692 1 -1.1104 12.3819 24.2995 1.00554
693 1 -1.1104 12.1233 24.4879 4.12446
694 1 -1.1104 12.0825 21.4704 0.958428
696 2 2.2208 10.8098 26.0045 2.47779
697 1 -1.1104 11.9136 21.5985 3.66279
699 1 -1.1104 9.69203 24.4111 1.21264
700 2 2.2208 7.90391 23.0322 2.50345
702 1 -1.1104 9.2386 24.4686 3.84754
703 2 2.2208 8.10868 25.907 5.21463
704 1 -1.1104 9.29505 21.6365 1.13964
706 1 -1.1104 9.27468 21.523 3.90626
707 1 -1.1104 9.49816 27.3033 3.82014
837 1 -1.1104 12.266 24.2717 6.65716
687 1 -1.1104 6.515 27.3745 1.0185
698 1 -1.1104 12.1163 27.1461 3.91107
695 1 -1.1104 12.4136 27.1861 1.13594
705 1 -1.1104 9.51779 27.1865 1.09982
976 2 2.2208 2.50174 42.5227 -0.431001
809 1 -1.1104 6.90694 27.0494 6.60014
841 1 -1.1104 9.57562 21.4457 6.73498
840 1 -1.1104 9.42988 24.2638 6.61987
838 1 -1.1104 12.1732 21.4433 6.67375
839 1 -1.1104 12.3322 27.2458 6.7569
664 2 2.2208 5.27618 28.4279 5.1808
674 2 2.2208 2.35739 28.5378 2.36027
712 1 -1.1104 0.851437 29.8702 1.05798
715 1 -1.1104 1.01389 29.9217 3.81668
718 1 -1.1104 1.30806 32.7049 1.05557
719 2 2.2208 5.08623 31.3929 2.4871
721 1 -1.1104 1.04748 32.7642 3.8789
723 1 -1.1104 3.61903 29.7858 0.927087
726 1 -1.1104 3.8449 29.9857 3.84215
728 2 2.2208 2.52325 31.378 5.37286
730 1 -1.1104 3.98404 32.6949 0.996987
731 1 -1.1104 3.86722 32.7393 3.78848
867 1 -1.1104 3.98762 30.0412 6.77826
996 2 2.2208 10.7935 28.6711 -0.274794
1533 1 -1.1104 9.30963 46.7469 6.72552
708 1 -1.1104 12.1978 41.1357 9.45769
735 1 -1.1104 6.52507 29.9746 1.08875
737 1 -1.1104 6.54277 32.7815 0.946971
736 1 -1.1104 6.76802 29.9457 3.93937
722 1 -1.1104 6.48996 32.7627 3.85355
691 2 2.2208 10.9593 28.5637 5.34144
701 2 2.2208 7.88791 28.6397 2.42408
739 1 -1.1104 12.0952 30.0218 1.24734
741 1 -1.1104 12.2647 30.046 3.98317
743 1 -1.1104 12.0262 32.7056 0.952266
744 2 2.2208 10.7478 31.3242 2.50495
746 1 -1.1104 12.0896 32.6518 3.85822
747 1 -1.1104 9.24465 30.0635 0.994971
750 1 -1.1104 9.5179 29.9087 3.89735
752 2 2.2208 8.16699 31.4165 5.28988
754 1 -1.1104 9.35684 32.8301 0.940337
755 1 -1.1104 9.32775 32.8088 3.88897
863 1 -1.1104 6.69787 29.8968 6.72094
866 1 -1.1104 6.68013 32.5438 6.69402
897 1 -1.1104 12.4847 32.9574 6.68198
711 2 2.2208 5.32383 34.1358 5.31084
713 1 -1.1104 1.2165 35.4464 0.973634