ITEM: TIMESTEP
80000
ITEM: NUMBER OF ATOMS
17760
ITEM: BOX BOUNDS pp pp pp
-4.4598340261526059e-01 2.7785983402615081e+01
-5.3529068045200816e+00 3.3343290680451821e+02
-4.4092566549624029e-01 2.7780925665496085e+01
ITEM: ATOMS id type q x y z
1 2 2.2208 5.28993 0.226855 5.11415
2 1 -1.1104 0.862166 -4.13293 0.854679
6 1 -1.1104 1.18413 -3.89119 3.61847
10 1 -1.1104 0.978819 -1.00336 0.882549
12 2 2.2208 5.31725 -2.69539 2.40633
14 1 -1.1104 0.954655 -1.06675 3.69576
16 1 -1.1104 3.87961 -3.91616 0.961442
18 2 2.2208 2.29145 0.340366 2.41941
19 1 -1.1104 3.97972 -4.08327 3.63209
21 2 2.2208 2.57412 -2.61091 4.93313
23 1 -1.1104 3.59847 -1.1384 0.964393
24 1 -1.1104 3.76684 -1.18726 3.7915
8 1 -1.1104 6.70285 -3.61277 3.99406
174 1 -1.1104 3.9786 -1.24963 6.42759
166 1 -1.1104 0.961849 -3.83098 6.51794
15 1 -1.1104 6.78607 -1.01203 3.57285
11 1 -1.1104 6.62602 -1.13915 1.03602
171 1 -1.1104 6.74957 -0.983523 6.74239
202 2 2.2208 2.19865 -5.22743 8.01673
378 2 2.2208 13.5231 11.5535 13.5333
4 1 -1.1104 6.61725 -3.9391 0.984871
326 2 2.2208 10.8292 19.8733 13.5089
31 2 2.2208 11.0588 0.312988 5.09717
32 1 -1.1104 12.4649 -3.7723 0.8512
34 1 -1.1104 12.4193 -3.78463 3.72228
36 1 -1.1104 12.296 -0.987788 0.953627
37 2 2.2208 10.8991 -2.4592 2.24688
39 1 -1.1104 12.3317 -1.04649 3.63521
40 1 -1.1104 9.36643 -3.92193 0.80427
42 2 2.2208 8.1584 0.238577 2.33149
43 1 -1.1104 9.49114 -3.89347 3.65105
45 2 2.2208 8.18636 -2.37151 5.31357
47 1 -1.1104 9.4429 -1.11145 0.889428
48 1 -1.1104 9.62901 -1.13558 3.69887
365 2 2.2208 13.7473 16.9775 2.43601
208 1 -1.1104 9.54094 -3.84934 6.7375
51 2 2.2208 8.03465 -5.36399 2.40014
17 1 -1.1104 3.88278 1.64459 0.796124
7 1 -1.1104 1.07203 1.61248 4.01756
3 1 -1.1104 1.11352 1.63337 1.02938
13 2 2.2208 5.03156 3.12813 2.25227
20 1 -1.1104 3.89248 1.72554 3.71461
22 2 2.2208 2.53184 2.98998 5.4709
54 2 2.2208 5.24005 5.8664 5.04512
60 1 -1.1104 0.733071 4.37703 0.771684
67 1 -1.1104 0.715854 4.69852 3.42627
71 1 -1.1104 3.70687 7.25677 1.00848
72 2 2.2208 2.29085 6.00428 2.35569
76 1 -1.1104 3.6743 4.51495 0.953091
79 1 -1.1104 3.77256 4.43937 3.86278
56 1 -1.1104 0.924882 7.35142 0.914881
74 1 -1.1104 3.88538 7.23206 3.75317
58 1 -1.1104 1.03989 7.42087 3.70327
57 1 -1.1104 6.6076 7.24484 0.719365
9 1 -1.1104 6.64723 1.61797 4.029
235 1 -1.1104 6.51291 7.31623 6.48606
28 2 2.2208 2.39029 -5.40434 2.23016
9341 2 2.2208 13.4938 11.4384 8.05355
288 1 -1.1104 6.56595 18.5179 9.41989
69 1 -1.1104 6.66586 4.606 3.48186
59 1 -1.1104 6.64398 7.25817 3.75694
63 1 -1.1104 6.59769 4.60364 0.859884
5 1 -1.1104 6.64533 1.74196 1.12898
33 1 -1.1104 12.1896 1.46402 1.03823
35 1 -1.1104 12.3647 1.74328 3.71685
38 2 2.2208 10.9008 3.06556 2.27576
41 1 -1.1104 9.41403 1.67553 0.860857
44 1 -1.1104 9.47608 1.65214 3.56965
46 2 2.2208 8.14089 2.95257 5.08336
84 2 2.2208 10.9422 5.83236 4.98911
87 1 -1.1104 12.2133 7.36642 3.70773
88 1 -1.1104 12.2927 4.29544 0.750718
92 1 -1.1104 12.35 4.41982 3.50248
95 2 2.2208 7.9971 5.92565 2.25193
99 1 -1.1104 9.56849 4.61953 0.973171
102 1 -1.1104 9.45726 4.29007 3.80918
94 1 -1.1104 9.44499 7.28664 0.878539
97 1 -1.1104 9.44106 7.40763 3.57743
86 1 -1.1104 12.1496 7.40052 0.967401
267 1 -1.1104 9.26752 7.4233 6.43996
265 1 -1.1104 12.0928 7.41277 6.62965
169 1 -1.1104 6.80506 1.84764 6.60555
266 1 -1.1104 12.221 4.35041 6.17779
209 1 -1.1104 9.70204 1.56129 6.49477
29 2 2.2208 5.29296 -5.28547 5.40079
55 2 2.2208 5.29938 11.481 5.1841
61 1 -1.1104 0.860921 10.2078 1.04194
66 2 2.2208 5.27093 8.54872 2.29542
68 1 -1.1104 1.0311 10.0891 3.70813
73 2 2.2208 2.45445 11.3548 2.26545
75 2 2.2208 2.41878 8.66338 5.0852
77 1 -1.1104 3.76143 10.0533 0.739471
80 1 -1.1104 3.92311 9.93071 3.68276
107 1 -1.1104 0.833937 12.8457 1.10435
113 1 -1.1104 0.781866 12.9558 3.81447
123 1 -1.1104 3.66954 13.1212 1.11789
128 1 -1.1104 3.6576 12.6104 3.88443
358 2 2.2208 -0.465993 8.78433 2.3077
52 2 2.2208 10.9706 -5.21207 5.04408
312 2 2.2208 5.3883 3.25603 13.6399
137 2 2.2208 7.91649 14.393 10.5899
323 2 2.2208 2.26825 17.1102 13.6331
342 2 2.2208 5.11191 11.4988 -0.322223
115 1 -1.1104 6.35808 12.9767 3.90117
110 1 -1.1104 6.47674 12.9684 1.12866
65 1 -1.1104 6.59113 9.94416 6.58989
64 1 -1.1104 6.4304 10.0524 0.931927
70 1 -1.1104 6.48297 10.1091 3.58709
85 2 2.2208 10.7469 11.6913 5.20216
89 1 -1.1104 12.1394 10.2471 0.942202
91 2 2.2208 10.7459 8.78048 2.29534
93 1 -1.1104 11.9433 10.0558 3.73427
96 2 2.2208 7.89928 11.6654 2.43342
98 2 2.2208 8.05729 8.79363 5.05474
100 1 -1.1104 9.25515 9.97242 1.01711
103 1 -1.1104 9.20183 10.1958 3.65907
142 1 -1.1104 12.2816 13.0672 1.19218
146 1 -1.1104 12.237 12.7582 3.86767
153 1 -1.1104 9.46218 12.8251 0.93779
158 1 -1.1104 9.25114 12.95 3.9507
143 1 -1.1104 12.4583 12.937 6.7077
160 2 2.2208 7.90979 14.302 5.20024
350 2 2.2208 13.6159 14.3805 10.7557
421 2 2.2208 2.45434 -5.28126 13.6643
150 2 2.2208 10.7829 14.3031 2.30055
82 1 -1.1104 11.9854 15.7293 9.20284
119 2 2.2208 5.05822 14.3998 2.45184
130 2 2.2208 2.28927 14.1701 5.29819
106 2 2.2208 5.13168 17.1292 5.24496
109 1 -1.1104 0.623149 18.5438 0.921839
114 1 -1.1104 0.770088 18.5862 4.01624
116 1 -1.1104 0.8451 15.8387 0.886699
120 2 2.2208 5.14841 19.762 2.11033
121 1 -1.1104 0.697558 15.6963 3.75228
125 1 -1.1104 3.52929 18.5402 1.11214
127 2 2.2208 2.08747 17.174 2.2266
129 1 -1.1104 3.77845 18.6918 3.89346
131 2 2.2208 2.29935 19.9087 5.09774
132 1 -1.1104 3.83108 15.7718 0.97245
134 1 -1.1104 3.54613 15.7318 3.87604
133 1 -1.1104 3.5893 15.6016 6.47263
122 1 -1.1104 6.46267 15.7746 3.83061
139 1 -1.1104 6.4655 18.5734 3.6993
614 2 2.2208 5.26964 -5.33947 -0.481629
203 2 2.2208 5.289 -5.21814 10.8466
302 1 -1.1104 1.02272 18.6331 6.59286
126 1 -1.1104 3.78071 18.4213 6.69699
320 2 2.2208 8.16494 5.96997 13.5423
231 2 2.2208 8.03912 -5.29341 8.14595
348 2 2.2208 13.5046 20.0039 10.7062
140 1 -1.1104 6.69223 15.6451 0.870796
138 1 -1.1104 6.52863 18.3675 0.751701
141 2 2.2208 10.6889 17.122 5.16143
144 1 -1.1104 12.1085 18.4742 0.748298
147 1 -1.1104 12.162 18.5178 3.55577
148 1 -1.1104 11.9881 15.6552 0.807128
151 2 2.2208 10.7566 19.6664 2.22634
152 1 -1.1104 12.2418 15.6358 3.67609
155 1 -1.1104 9.36342 18.4085 0.878886
157 2 2.2208 7.92659 17.0918 2.22086
159 1 -1.1104 9.13722 18.4774 3.76266
161 2 2.2208 7.90254 19.8452 5.20629
162 1 -1.1104 9.24976 15.506 0.949592
164 1 -1.1104 9.38675 15.7729 3.62457
25 2 2.2208 10.7637 17.0637 10.8181
49 1 -1.1104 12.3114 18.5664 9.60135
168 1 -1.1104 6.64756 -3.94158 6.85343
351 2 2.2208 13.476 17.2622 8.13435
172 1 -1.1104 3.71841 -4.17235 6.74404
170 1 -1.1104 1.02804 -0.900572 6.38616
175 2 2.2208 5.20487 0.175824 10.7695
176 1 -1.1104 1.04651 -3.91533 12.0482
180 1 -1.1104 0.668961 -3.71837 9.26944
184 1 -1.1104 1.0983 -1.13368 12.134
186 2 2.2208 5.20408 -2.39893 7.95048
188 1 -1.1104 1.09035 -1.06938 9.2729
190 1 -1.1104 3.74478 -4.02129 12.1763
192 2 2.2208 2.314 0.393565 8.18695
193 1 -1.1104 3.83648 -3.98757 9.5153
195 2 2.2208 2.21493 -2.53791 10.5339
197 1 -1.1104 3.72717 -1.26649 12.4407
198 1 -1.1104 3.74175 -1.00469 9.32447
185 1 -1.1104 6.39704 -1.02096 12.3241
189 1 -1.1104 6.46345 -1.14443 9.38217
182 1 -1.1104 6.79987 -3.88216 9.62165
205 1 -1.1104 12.4228 -3.93815 6.63311
207 1 -1.1104 12.2412 -1.15125 6.6676
178 1 -1.1104 6.68944 -3.72361 12.3888
210 1 -1.1104 9.47253 -1.20478 6.71317
211 2 2.2208 10.7298 0.26693 10.8594
212 1 -1.1104 12.2906 -4.161 12.1298
214 1 -1.1104 12.3377 -4.04746 9.50052
216 1 -1.1104 12.1726 -1.34284 12.1714
217 2 2.2208 10.9493 -2.47242 8.11827
219 1 -1.1104 12.1258 -1.04853 9.52806
220 1 -1.1104 9.40216 -4.04475 12.1344
222 2 2.2208 7.98686 0.387588 8.03168
223 1 -1.1104 9.69113 -3.64309 9.54378
225 2 2.2208 8.14343 -2.48484 10.9486
227 1 -1.1104 9.39746 -1.09149 12.4172
228 1 -1.1104 9.10754 -0.888874 9.53696
50 1 -1.1104 12.3274 15.5775 12.2384
343 2 2.2208 13.5204 20.0404 5.22313
327 2 2.2208 10.8008 14.267 13.5252
149 1 -1.1104 12.0253 15.5871 6.48912
236 1 -1.1104 1.05573 4.37236 6.48579
167 1 -1.1104 0.994238 1.71456 6.64867
173 1 -1.1104 3.94777 1.57269 6.72074
239 1 -1.1104 3.63726 4.40261 6.84663
238 1 -1.1104 3.85074 7.18573 6.48826
237 1 -1.1104 6.54367 4.59059 6.57188
369 2 2.2208 -0.378635 0.227137 10.9609
234 1 -1.1104 1.00088 7.26619 6.56702
191 1 -1.1104 3.93112 1.8773 12.4693
181 1 -1.1104 0.888158 1.44546 9.54174
177 1 -1.1104 1.03653 1.60846 12.1772
187 2 2.2208 5.31319 3.05698 7.89594
194 1 -1.1104 3.67619 1.54259 9.62063
196 2 2.2208 2.5446 3.12449 10.903
240 2 2.2208 5.33616 5.93876 10.7225
246 1 -1.1104 0.962974 4.46618 12.1292
251 1 -1.1104 1.07927 4.51043 9.36381
255 1 -1.1104 3.59989 7.31441 12.4969
256 2 2.2208 2.24565 5.8652 8.04076
260 1 -1.1104 3.99115 4.58667 12.3082
262 1 -1.1104 4.02908 4.3044 9.48396
242 1 -1.1104 0.747642 7.23352 12.1056
258 1 -1.1104 3.79224 7.23265 9.54257
244 1 -1.1104 0.870135 7.17688 9.48033
248 1 -1.1104 6.70822 4.47771 12.1818
179 1 -1.1104 6.69741 1.75357 12.2119
243 1 -1.1104 6.71583 7.36528 12.3658
253 1 -1.1104 6.65084 4.68113 9.33835
269 1 -1.1104 9.19323 4.44312 6.47614
183 1 -1.1104 6.50697 1.79746 9.46823
245 1 -1.1104 6.5828 7.29371 9.39195
206 1 -1.1104 12.5492 1.60679 6.56138
213 1 -1.1104 12.0916 1.74903 12.2391
215 1 -1.1104 12.1982 1.82272 9.44343
218 2 2.2208 10.97 3.12248 7.82062
221 1 -1.1104 9.29404 1.63096 12.2322
224 1 -1.1104 9.34376 1.75442 9.23793
226 2 2.2208 8.11692 3.04041 10.8521
268 1 -1.1104 9.49355 4.49868 9.36848
271 1 -1.1104 9.69208 4.56517 12.4687
275 2 2.2208 7.90197 5.86851 7.85332
276 2 2.2208 10.7583 5.98305 10.6455
278 1 -1.1104 11.892 7.35223 12.2046
280 1 -1.1104 12.4281 4.78393 11.9173
283 1 -1.1104 12.1987 4.55882 9.14543
279 1 -1.1104 12.2164 7.41196 9.2588
285 1 -1.1104 9.33038 7.10301 11.8464
273 1 -1.1104 9.38563 7.24355 9.15613
322 2 2.2208 7.85884 11.6226 13.3822
9454 2 2.2208 13.7219 -2.59571 10.9011
108 1 -1.1104 0.751278 12.9896 6.48122
124 1 -1.1104 3.84799 12.7793 6.5386
62 1 -1.1104 0.974733 10.0491 6.70412
78 1 -1.1104 3.62806 10.1195 6.73101
294 1 -1.1104 0.66682 12.9132 9.1982
299 1 -1.1104 0.540375 12.9814 12.2532
241 2 2.2208 4.98297 11.4128 10.7584
247 1 -1.1104 0.782796 10.208 12.1089
250 2 2.2208 5.20183 8.65758 7.98774
252 1 -1.1104 1.1931 10.0832 9.56671
257 2 2.2208 2.33483 11.4631 8.03246
259 2 2.2208 2.30246 8.50857 10.8863
261 1 -1.1104 3.64696 10.039 12.3419
263 1 -1.1104 3.91217 10.0355 9.30939
287 1 -1.1104 3.86135 12.9116 12.3696
305 1 -1.1104 3.45926 12.9015 9.39081
249 1 -1.1104 6.38751 10.115 12.3244
290 1 -1.1104 6.20225 12.9525 9.4849
9345 2 2.2208 13.5207 8.63605 10.743
145 1 -1.1104 11.8839 18.5734 6.55474
341 2 2.2208 2.39562 8.67468 -0.452031
349 2 2.2208 -0.36822 -2.36274 2.44201
111 1 -1.1104 6.59074 12.8011 6.60346
154 1 -1.1104 9.3746 12.927 6.47903
333 2 2.2208 2.26426 14.3819 -0.277528
330 2 2.2208 2.3802 -2.53063 -0.470345
101 1 -1.1104 9.34804 10.1239 6.51068
90 1 -1.1104 12.0602 10.1637 6.50744
297 1 -1.1104 6.47328 12.8913 12.0893
254 1 -1.1104 6.55394 10.065 9.45491
30 1 -1.1104 12.0811 13.1924 9.31693
26 1 -1.1104 12.2419 12.9354 11.8938
135 1 -1.1104 9.13383 12.9374 9.14489
83 1 -1.1104 9.2602 12.9655 11.9929
264 1 -1.1104 9.38592 10.1788 9.32725
270 1 -1.1104 9.22305 10.1679 11.9959
272 2 2.2208 8.03916 8.61846 10.7407
274 2 2.2208 7.89452 11.4478 7.8821
277 2 2.2208 10.671 11.6071 10.6055
281 1 -1.1104 11.99 10.1279 12.0644
282 2 2.2208 10.7363 8.72038 7.86242
284 1 -1.1104 12.1998 10.1273 9.34787
53 2 2.2208 10.6753 14.3543 7.90167
200 1 -1.1104 9.23265 15.6935 9.34673
112 1 -1.1104 6.50932 18.4608 6.58548
118 1 -1.1104 6.29181 15.6617 6.65182
379 2 2.2208 13.5111 0.331222 13.4273
289 1 -1.1104 6.50126 15.7052 9.41207
117 1 -1.1104 0.774602 15.6411 6.68917
295 2 2.2208 5.06179 14.1167 7.97374
201 2 2.2208 2.14962 14.3022 10.6579
230 1 -1.1104 0.866264 15.8824 12.3277
229 1 -1.1104 3.83852 15.5511 12.169
204 2 2.2208 2.25724 19.8796 10.8634
286 1 -1.1104 3.789 18.3351 12.2884
292 1 -1.1104 0.824785 15.6503 9.34693
304 1 -1.1104 3.5813 15.9212 9.43124
303 2 2.2208 2.29392 17.0608 7.88733
301 1 -1.1104 3.70227 18.7217 9.50047
298 1 -1.1104 0.750631 18.6689 12.3233
300 2 2.2208 5.09707 17.114 10.7623
291 1 -1.1104 0.8391 18.5222 9.56179
293 2 2.2208 5.11983 20.064 8.1023
27 1 -1.1104 12.2674 18.5459 12.3397
163 1 -1.1104 9.15696 15.8335 6.62423
136 1 -1.1104 9.45279 18.4836 9.53159
296 1 -1.1104 6.50098 18.424 12.0913
233 1 -1.1104 6.69141 15.6246 12.2469
199 1 -1.1104 9.49815 15.7408 12.2085
165 2 2.2208 7.8176 19.8822 10.9234
104 1 -1.1104 9.28445 18.5239 12.3444
105 2 2.2208 7.81491 17.2061 7.95526
81 2 2.2208 10.6514 19.7545 8.00009
156 1 -1.1104 9.21854 18.4734 6.56206
374 2 2.2208 13.6598 0.35357 8.12144
310 2 2.2208 5.16641 -2.62971 13.5658
360 2 2.2208 13.5769 6.05766 2.30291
9340 2 2.2208 13.5324 5.93767 7.84821
344 2 2.2208 13.6932 14.3266 5.13277
335 2 2.2208 10.7515 11.4105 -0.317896
357 2 2.2208 -0.370145 6.05937 5.09012
319 2 2.2208 2.21076 11.6166 13.6135
9440 2 2.2208 13.6269 11.5229 2.37969
317 2 2.2208 2.39518 5.83571 13.5882
371 2 2.2208 -0.487404 8.65473 13.6655
643 2 2.2208 10.8759 -5.20314 -0.353069
321 2 2.2208 10.7876 8.73001 13.6127
308 2 2.2208 2.22703 19.7828 -0.436599
338 2 2.2208 8.08405 -2.24104 -0.446552
311 2 2.2208 2.46462 0.452719 13.5489
309 2 2.2208 -0.372183 -2.33555 13.5828
339 2 2.2208 7.97996 3.17224 -0.375512
328 2 2.2208 7.95095 17.1856 13.5129
382 2 2.2208 5.24383 0.263955 16.5695
383 1 -1.1104 1.08683 -3.97222 17.7274
387 1 -1.1104 1.08776 -3.67999 14.9335
395 1 -1.1104 0.914746 -1.04204 18.0163
397 2 2.2208 5.35343 -2.43299 19.3313
399 1 -1.1104 0.936881 -0.924257 15.1024
403 1 -1.1104 3.83574 -3.80856 17.9324
405 2 2.2208 2.28625 0.346545 19.3862
406 1 -1.1104 3.87576 -3.91786 14.9649
410 2 2.2208 2.41538 -2.48082 16.4349
412 1 -1.1104 3.76823 -1.10364 18.0282
413 1 -1.1104 3.84222 -1.03952 15.1984
396 1 -1.1104 6.73379 -1.00671 17.9032
400 1 -1.1104 1.11252 -0.977145 20.7997
407 1 -1.1104 3.96275 -4.12215 20.7169
401 1 -1.1104 6.69898 -1.0081 14.925
391 1 -1.1104 6.61717 -3.74209 15.1043
385 1 -1.1104 6.73075 -3.65147 18.071
9642 2 2.2208 13.5294 17.079 19.3809
388 1 -1.1104 1.12312 -3.77384 20.6917
9615 2 2.2208 13.5595 -5.33242 19.3922
392 1 -1.1104 6.63361 -3.82004 20.659
450 2 2.2208 10.875 -5.15721 16.6177
425 2 2.2208 11.0149 0.420941 16.3415
426 1 -1.1104 12.3059 -3.90771 18.0993
428 1 -1.1104 12.2385 -3.70032 15.2665
432 1 -1.1104 12.3814 -1.17733 17.5114
433 2 2.2208 10.8118 -2.55971 19.4399
435 1 -1.1104 12.2619 -0.983586 14.987
437 1 -1.1104 9.42428 -3.81113 17.8514
439 2 2.2208 8.19665 0.357147 19.2456
440 1 -1.1104 9.28265 -3.80868 14.9124
444 2 2.2208 8.03062 -2.33328 16.5503
446 1 -1.1104 9.37886 -1.01768 18.0065
447 1 -1.1104 9.62048 -1.10055 15.232
429 1 -1.1104 12.2613 -3.93663 20.845
699 2 2.2208 13.4304 11.5731 19.2255
644 2 2.2208 10.7018 -5.25953 22.2752
331 2 2.2208 2.36926 3.00685 27.7681
384 1 -1.1104 1.09295 1.76072 17.8658
389 1 -1.1104 1.18017 2.00252 14.8071
398 2 2.2208 5.03535 3.22041 19.2465
404 1 -1.1104 3.70222 1.74718 18.1461
408 1 -1.1104 3.93714 1.74994 15.3072
411 2 2.2208 2.52507 3.07983 16.463
458 2 2.2208 5.16432 5.86627 16.5233
466 1 -1.1104 0.735901 4.66632 17.7356
471 1 -1.1104 0.916112 4.79298 14.9879
480 2 2.2208 2.22515 6.16982 19.3184
485 1 -1.1104 3.68934 4.43435 18.1031
487 1 -1.1104 3.99575 4.48307 15.2011
460 1 -1.1104 0.945241 7.37623 17.7667
482 1 -1.1104 3.74023 7.32692 15.1767
479 1 -1.1104 4.07097 7.43144 17.955
472 1 -1.1104 0.911202 4.74713 20.419
462 1 -1.1104 0.814577 7.52209 14.9122
461 1 -1.1104 6.47473 7.3111 17.7475
483 1 -1.1104 3.65274 7.44667 20.6475
488 1 -1.1104 3.59144 4.77319 20.6749
390 1 -1.1104 1.03345 1.82659 20.6283
468 1 -1.1104 6.70342 4.55774 18.0086
464 1 -1.1104 6.61993 7.45733 15.0092
393 1 -1.1104 6.59502 1.85508 15.1323
700 2 2.2208 -0.294744 -5.19617 22.1126
451 2 2.2208 7.91235 -5.25273 19.2664
707 2 2.2208 13.5818 19.9204 22.1257
475 1 -1.1104 6.71153 4.44551 15.2234
476 1 -1.1104 6.38544 4.46533 20.6623
386 1 -1.1104 6.53514 1.78976 18.1281
438 1 -1.1104 9.71414 1.69164 17.8612
430 1 -1.1104 12.2098 1.88111 14.9674
427 1 -1.1104 12.3726 1.72734 17.8231
434 2 2.2208 11.0542 3.17794 19.4306
442 1 -1.1104 9.56484 1.58102 15.121
445 2 2.2208 8.05706 3.00248 16.6155
494 2 2.2208 10.8093 5.95248 16.5243
497 1 -1.1104 12.2158 7.33918 15.2041
499 1 -1.1104 12.4532 4.23927 17.8923
502 1 -1.1104 12.1582 4.61652 15.0495
507 2 2.2208 7.94021 5.9551 19.3432
509 1 -1.1104 9.42626 7.18063 14.8707
512 1 -1.1104 9.50009 4.6294 18.1839
514 1 -1.1104 9.42235 4.49325 15.3203
506 1 -1.1104 9.4484 7.38097 17.7842
496 1 -1.1104 12.2583 7.34825 17.9088
515 1 -1.1104 9.39172 4.36689 20.9246
9460 2 2.2208 13.5866 5.87585 13.61
9571 2 2.2208 13.4617 5.89509 19.1342
315 2 2.2208 10.7154 -2.52437 13.7053
459 2 2.2208 5.13137 11.576 16.3831
467 1 -1.1104 0.816837 10.1019 17.7557
470 2 2.2208 5.35298 8.88549 19.2026
473 1 -1.1104 0.932645 10.348 15.0797
481 2 2.2208 2.35685 11.475 19.4057
484 2 2.2208 2.32749 8.7644 16.5791
486 1 -1.1104 3.66806 10.0149 17.9063
489 1 -1.1104 3.64278 10.2049 15.0788
522 1 -1.1104 1.00518 12.7973 17.8419
526 1 -1.1104 0.764591 13.043 14.9817
542 1 -1.1104 3.68599 12.931 18.011
545 1 -1.1104 3.63975 12.8202 15.075
474 1 -1.1104 0.841842 10.269 20.7126
524 1 -1.1104 6.41666 13.1084 17.8009
546 1 -1.1104 3.68148 12.8173 20.6612
530 1 -1.1104 6.66397 13.0777 14.7537
549 2 2.2208 2.17165 14.2845 16.2631
340 2 2.2208 5.12162 5.89735 27.6914
527 1 -1.1104 0.55426 12.8486 20.7501
337 2 2.2208 10.9264 5.99204 27.7345
469 1 -1.1104 6.71684 10.1498 17.7848
616 2 2.2208 2.53119 -5.21195 25.0341
477 1 -1.1104 6.47335 10.2186 15.0809
495 2 2.2208 10.8186 11.5349 16.2136
500 1 -1.1104 12.3969 10.1971 17.5631
501 2 2.2208 10.699 8.82265 19.1086
504 1 -1.1104 12.1153 10.1581 14.7173
508 2 2.2208 8.04634 11.7427 19.0498
511 2 2.2208 7.94563 8.72642 16.2303
513 1 -1.1104 9.63698 10.3268 17.7805
516 1 -1.1104 9.29871 10.0264 14.7722
558 1 -1.1104 12.2238 12.8425 17.7088
560 1 -1.1104 12.233 13.102 14.9083
569 1 -1.1104 9.42601 12.8934 17.5702
572 1 -1.1104 9.47234 12.7908 14.8272
517 1 -1.1104 9.36476 10.1676 20.5791
678 2 2.2208 7.97291 14.3814 21.9397
584 1 -1.1104 12.1897 18.2219 23.631
615 2 2.2208 5.35878 -5.27809 22.1973
536 2 2.2208 5.07038 14.4072 19.2278
521 2 2.2208 5.12037 17.1769 16.4681
523 1 -1.1104 0.913322 18.474 17.8708
528 1 -1.1104 0.971763 18.407 15.0059
534 1 -1.1104 0.740723 15.5985 17.8143
537 2 2.2208 5.02113 20.0345 19.2665
538 1 -1.1104 0.895599 15.681 15.101
543 1 -1.1104 3.58248 18.4508 17.8298
544 2 2.2208 2.29725 17.0367 19.2356
547 1 -1.1104 3.66634 18.4236 14.9982
550 2 2.2208 2.25835 19.9604 16.3838
551 1 -1.1104 3.60196 15.7993 17.8556
552 1 -1.1104 3.66771 15.8666 14.9874
539 1 -1.1104 1.01155 15.5298 20.6161
533 1 -1.1104 6.27313 18.6785 20.8278
535 1 -1.1104 6.45157 15.6813 18.1009
647 2 2.2208 8.05999 17.0312 24.8072
705 2 2.2208 -0.41029 -2.3928 19.3758
416 2 2.2208 5.09347 -5.30765 16.4458
366 2 2.2208 13.5634 14.3069 27.6378
332 2 2.2208 5.32352 16.9883 27.7092
540 1 -1.1104 6.55167 15.8219 15.1672
532 1 -1.1104 6.5025 18.4196 15.0236
525 1 -1.1104 6.59995 18.4853 17.8122
565 2 2.2208 10.6584 14.3215 19.0664
576 2 2.2208 7.83377 14.3831 16.2262
557 2 2.2208 10.6627 17.0136 16.2269
559 1 -1.1104 12.1272 18.3894 17.9923
562 1 -1.1104 11.8771 18.5883 15.0119
564 1 -1.1104 12.0997 15.5849 17.7639
566 2 2.2208 10.5464 20.0322 19.2218
567 1 -1.1104 12.2607 15.7913 14.9864
570 1 -1.1104 9.48987 18.5027 17.8464
571 2 2.2208 8.0643 17.1126 19.2107
574 1 -1.1104 9.21518 18.2487 14.9681
577 2 2.2208 7.8936 19.7468 16.3098
578 1 -1.1104 9.20358 15.6909 17.7432
579 1 -1.1104 9.33719 15.5692 14.9066
563 1 -1.1104 12.0507 18.4868 20.8814
580 1 -1.1104 9.39354 15.8005 20.7031
694 2 2.2208 -0.472366 19.971 25.1399
582 1 -1.1104 6.57497 15.5076 26.4189
554 1 -1.1104 6.31552 18.3333 23.4384
453 2 2.2208 10.7087 17.0312 22.074
414 1 -1.1104 3.84618 -1.13199 20.6781
585 2 2.2208 5.25336 0.336469 21.9534
586 1 -1.1104 0.895094 -3.69737 23.5876
590 1 -1.1104 0.810908 -4.00407 26.5666
594 1 -1.1104 0.990238 -0.898415 23.4272
596 2 2.2208 5.24866 -2.38024 24.9008
598 1 -1.1104 0.895976 -1.43168 26.4948
600 1 -1.1104 3.99521 -3.98532 23.6924
602 2 2.2208 2.35806 0.240418 24.8756
603 1 -1.1104 3.82827 -3.85299 26.4043
605 2 2.2208 2.45287 -2.42282 22.0189
607 1 -1.1104 3.92299 -0.995564 23.3656
608 1 -1.1104 3.67893 -1.03605 26.3356
599 1 -1.1104 6.74321 -0.71808 26.5704
588 1 -1.1104 6.49657 -3.84579 23.4667
592 1 -1.1104 6.47653 -3.64555 26.5074
611 1 -1.1104 9.23576 15.607 26.2044
648 1 -1.1104 6.57168 18.5557 26.0931
424 1 -1.1104 6.57692 15.5886 23.4087
402 1 -1.1104 6.66708 -1.2549 20.6912
441 1 -1.1104 9.44111 -3.94503 20.8341
620 1 -1.1104 12.1998 15.3404 26.1933
9644 2 2.2208 13.6749 16.8467 24.8851
698 2 2.2208 13.6477 8.78306 16.3931
595 1 -1.1104 6.7881 -1.06449 23.5326
436 1 -1.1104 12.198 -0.93717 20.5363
448 1 -1.1104 9.52472 -1.03953 20.9195
621 2 2.2208 10.9466 0.312503 22.1552
622 1 -1.1104 12.178 -3.85664 23.6963
624 1 -1.1104 12.3159 -3.71446 26.3417
626 1 -1.1104 12.4913 -0.932004 23.3998
627 2 2.2208 10.9705 -2.39497 24.9154
629 1 -1.1104 12.4978 -1.07348 26.291
630 1 -1.1104 9.35056 -3.76062 23.5944
632 2 2.2208 8.01605 0.32417 24.928
633 1 -1.1104 9.41028 -3.84828 26.2911
635 2 2.2208 7.95803 -2.55113 22.1972
637 1 -1.1104 9.66429 -0.822735 23.7901
638 1 -1.1104 9.58626 -0.899838 26.2333
9497 2 2.2208 13.6615 5.93983 24.8863
463 1 -1.1104 0.898613 7.63941 20.4619
409 1 -1.1104 3.81908 1.85549 20.7945
465 1 -1.1104 6.56692 7.51522 20.6613
679 2 2.2208 8.00718 19.7028 22.4974
587 1 -1.1104 0.882045 1.84503 23.5729
591 1 -1.1104 0.973315 1.56149 26.2979
597 2 2.2208 5.18123 3.32771 25.0016
601 1 -1.1104 3.77258 1.8455 23.4631
604 1 -1.1104 3.60666 1.70512 26.2866
606 2 2.2208 2.12623 3.27963 22.1358
650 2 2.2208 5.08269 5.94637 22.1126
652 1 -1.1104 1.0153 7.48415 23.4024
656 1 -1.1104 0.938446 4.51853 23.4654
661 1 -1.1104 1.04977 4.43475 26.3231
666 2 2.2208 2.362 5.80975 25.1108
670 1 -1.1104 3.89084 4.54471 23.2973
672 1 -1.1104 3.79184 4.45443 26.3901
665 1 -1.1104 3.74022 7.44079 23.5912
668 1 -1.1104 3.84559 7.10176 26.3006
658 1 -1.1104 6.59452 4.76545 23.5619
589 1 -1.1104 6.61731 1.73092 23.6044
654 1 -1.1104 0.937085 7.1413 26.3907
655 1 -1.1104 6.62104 7.2557 26.2129
653 1 -1.1104 6.66531 7.30631 23.5362
394 1 -1.1104 6.62903 1.54873 20.9001
498 1 -1.1104 12.0668 7.41081 20.539
443 1 -1.1104 9.43377 1.73719 20.762
680 1 -1.1104 9.42136 15.6224 23.4438
593 1 -1.1104 6.40633 1.88035 26.6693
663 1 -1.1104 6.58109 4.55467 26.2867
503 1 -1.1104 12.2215 4.50287 20.7442
431 1 -1.1104 12.4724 1.65086 20.7129
510 1 -1.1104 9.35057 7.32322 20.7776
623 1 -1.1104 12.2203 1.87393 23.5299
625 1 -1.1104 12.2237 1.81313 26.4841
628 2 2.2208 10.8738 3.28853 24.8376
631 1 -1.1104 9.50783 1.98401 23.5626
634 1 -1.1104 9.41942 1.95563 26.302
636 2 2.2208 8.0446 3.14601 22.1992
641 1 -1.1104 12.2128 4.5089 26.2628
676 1 -1.1104 12.4583 4.59891 23.5498
682 1 -1.1104 9.493 4.73428 26.3386
684 1 -1.1104 9.62157 4.53332 23.4114
686 1 -1.1104 9.55048 7.46678 26.4673
688 2 2.2208 8.16464 5.87447 24.7745
689 2 2.2208 10.8693 6.08466 22.056
692 1 -1.1104 12.4816 7.27969 26.3906
691 1 -1.1104 12.2572 7.15663 23.6087
639 1 -1.1104 9.36465 7.55761 23.584
575 1 -1.1104 9.2973 18.4954 20.6489
613 1 -1.1104 12.2602 18.183 26.2268
568 1 -1.1104 12.0351 15.7707 20.6801
677 1 -1.1104 9.21543 18.259 26.3619
490 1 -1.1104 3.83432 10.0408 20.6249
651 2 2.2208 4.90399 11.6167 22.1784
657 1 -1.1104 0.794811 10.0895 23.6735
660 2 2.2208 5.26388 8.67303 25.0016
662 1 -1.1104 0.85897 10.0824 26.3503
667 2 2.2208 2.38773 11.4419 25.1514
669 2 2.2208 2.41098 8.8107 22.2128
671 1 -1.1104 3.49265 10.2487 23.5841
673 1 -1.1104 3.75618 9.96356 26.2956
449 1 -1.1104 3.58434 12.7105 26.4321
492 1 -1.1104 0.755793 12.9523 23.7246
555 1 -1.1104 0.970236 12.8708 26.5264
583 1 -1.1104 3.53778 13.049 23.6274
518 1 -1.1104 6.33712 12.8917 23.5813
659 1 -1.1104 6.57105 10.0907 23.5123
609 1 -1.1104 6.30911 12.9602 26.4995
419 2 2.2208 2.2086 14.2695 22.1585
708 2 2.2208 13.5366 19.9481 16.3199
646 1 -1.1104 9.4063 18.4186 23.7508
531 1 -1.1104 6.56186 13.1467 20.5836
505 1 -1.1104 11.8626 10.0843 20.4751
573 1 -1.1104 9.27991 12.9524 20.4986
561 1 -1.1104 11.9433 12.9971 20.7009
617 1 -1.1104 12.2502 15.6203 23.4284
478 1 -1.1104 6.72986 10.2515 20.8093
664 1 -1.1104 6.57944 10.2206 26.3553
649 1 -1.1104 9.13555 12.77 26.4009
640 1 -1.1104 12.1829 10.122 26.2385
674 2 2.2208 10.8411 8.96667 24.8898
675 1 -1.1104 12.4069 9.99456 23.4905
681 1 -1.1104 9.48713 10.0988 26.3414
683 1 -1.1104 9.40768 10.2752 23.4789
685 2 2.2208 8.0927 8.78342 21.9744
687 2 2.2208 7.66891 11.5796 24.8574
690 2 2.2208 10.7119 11.413 22.0582
642 1 -1.1104 9.28424 12.9842 23.4207
454 1 -1.1104 12.0446 12.7848 23.46
612 1 -1.1104 11.9578 12.8684 26.4024
619 2 2.2208 10.8188 19.8688 25.0353
618 2 2.2208 10.6308 14.3565 24.8722
541 1 -1.1104 6.52959 15.8167 20.7667
307 2 2.2208 10.7163 16.9533 27.7336
548 1 -1.1104 3.57966 18.4469 20.4069
553 1 -1.1104 3.67109 15.4943 20.8506
519 2 2.2208 5.00617 14.2089 25.0577
529 1 -1.1104 0.803364 18.3581 20.66
491 2 2.2208 5.0806 16.9708 22.0767
581 1 -1.1104 0.981124 18.531 26.4955
556 1 -1.1104 0.761428 15.5979 26.5125
457 1 -1.1104 3.71013 18.5599 26.4238
423 1 -1.1104 0.649193 15.7196 23.6381
456 2 2.2208 2.30747 17.1007 24.9252
455 1 -1.1104 3.55023 15.6984 26.3785
520 2 2.2208 5.0415 19.9237 24.8345
493 1 -1.1104 0.809629 18.5729 23.5207
610 1 -1.1104 3.5253 18.513 23.3695
420 2 2.2208 2.18787 19.9531 22.1723
422 1 -1.1104 3.83377 15.8231 23.6292
9543 2 2.2208 13.5936 -2.61166 21.9915
417 2 2.2208 2.37633 -5.26565 19.3465
9467 2 2.2208 13.6457 -2.31195 27.7957
706 2 2.2208 13.5457 14.3069 16.4888
696 2 2.2208 13.4874 11.6101 25.0299
418 2 2.2208 -0.466661 3.26285 19.1174
645 2 2.2208 8.00411 -5.29266 25.0707
9568 2 2.2208 13.6101 -5.22984 24.7995
9569 2 2.2208 -0.340802 3.08782 25.1078
313 2 2.2208 7.86488 19.8317 27.68
704 2 2.2208 -0.395315 6.10663 16.5132
709 2 2.2208 13.3815 14.4001 21.9585
710 2 2.2208 -0.321815 0.334761 16.6049
452 2 2.2208 7.8911 -5.32972 13.7771
324 2 2.2208 4.96344 19.7813 13.6769
334 2 2.2208 10.8713 0.488856 27.7031
318 2 2.2208 5.02889 8.78241 13.7075
329 2 2.2208 5.19127 0.323165 27.6928
376 2 2.2208 -0.31461 0.194455 27.622
316 2 2.2208 10.8303 3.14486 13.7722
325 2 2.2208 5.23928 14.517 13.745
314 2 2.2208 8.01124 0.424604 13.6749
336 2 2.2208 8.08499 8.63984 27.5841
306 2 2.2208 7.95232 14.0941 27.6569
714 2 2.2208 4.93549 22.4783 5.19532
716 1 -1.1104 0.756561 24.1119 1.32137
717 1 -1.1104 0.82548 24.1238 3.88808
718 1 -1.1104 1.11066 21.2325 0.875757
720 2 2.2208 5.15948 25.4012 2.37327
721 1 -1.1104 0.894936 21.1985 3.99511
723 1 -1.1104 3.3997 24.1499 1.13509
724 2 2.2208 2.1861 22.7109 2.43466
726 1 -1.1104 3.75048 24.0078 4.14677
727 2 2.2208 2.21002 25.491 5.20393
728 1 -1.1104 3.8496 21.2568 0.856032
730 1 -1.1104 3.63181 21.1954 3.70553
722 1 -1.1104 0.981611 26.9578 3.92468
729 1 -1.1104 3.47798 26.7266 1.07587
719 1 -1.1104 0.659818 27.0044 1.17702
731 1 -1.1104 3.67801 27.0427 3.76542
735 1 -1.1104 6.29653 24.126 0.726486
1464 1 -1.1104 9.3081 46.8095 3.79579
863 1 -1.1104 3.38985 26.7191 6.80168
858 1 -1.1104 0.656276 27.1282 6.64353
855 1 -1.1104 0.519153 24.1505 6.86403
861 1 -1.1104 3.57709 23.9721 6.87182
859 1 -1.1104 6.8703 21.4371 6.50643
856 1 -1.1104 6.39652 24.1528 6.79827
832 2 2.2208 -0.403163 42.4778 2.40035
10789 3 0 10.329 46.6135 10.2366
739 1 -1.1104 6.36213 21.2838 3.38075
737 1 -1.1104 6.42362 21.3037 0.720256
738 1 -1.1104 6.63595 27.068 1.09733
740 1 -1.1104 6.35495 26.9379 3.75272
736 1 -1.1104 6.84583 24.1412 3.57637
741 2 2.2208 10.7577 22.7133 5.37464
743 1 -1.1104 12.1159 23.9864 0.977864
744 1 -1.1104 12.2869 24.0315 4.0496
745 1 -1.1104 12.2383 21.1615 1.02457
747 2 2.2208 10.4303 25.5176 2.44337
748 1 -1.1104 11.8724 21.2177 3.94172
750 1 -1.1104 9.25514 24.1151 1.06524
751 2 2.2208 7.96966 22.5231 2.1547
753 1 -1.1104 9.47976 23.8602 3.74325
754 2 2.2208 7.80891 25.7479 5.26308
757 1 -1.1104 9.17329 21.1378 3.9118
755 1 -1.1104 9.38531 21.135 0.809708
756 1 -1.1104 9.30018 26.757 0.872467
746 1 -1.1104 12.1768 26.8987 1.04518
749 1 -1.1104 11.6812 27.0031 3.74756
758 1 -1.1104 9.03236 26.6938 3.82601
890 1 -1.1104 12.0261 27.0515 6.59213
891 1 -1.1104 9.16476 24.2089 6.53043
889 1 -1.1104 12.1666 21.3473 6.74504
1038 2 2.2208 7.98585 42.4449 -0.472035
715 2 2.2208 5.08369 28.3748 5.06018
725 2 2.2208 2.19476 28.3821 2.38087
763 1 -1.1104 0.953008 29.641 1.03441
766 1 -1.1104 0.690218 29.6796 3.71281
769 1 -1.1104 0.898087 32.4418 0.921543
770 2 2.2208 5.03546 31.2367 2.3213
772 1 -1.1104 0.765035 32.4931 3.95784
774 1 -1.1104 3.62889 29.7017 0.994566
777 1 -1.1104 3.43633 29.653 3.8778
779 2 2.2208 2.26 31.0435 5.27252
781 1 -1.1104 3.52233 32.7132 0.926429
782 1 -1.1104 3.69478 32.5454 3.76378
773 1 -1.1104 6.63727 32.7016 3.58075
786 1 -1.1104 6.42615 29.8958 1.04909
787 1 -1.1104 6.50773 29.8305 3.70015
788 1 -1.1104 6.47959 32.6421 0.725063
912 1 -1.1104 0.983139 29.8859 6.74919
917 1 -1.1104 6.51741 32.6816 6.38616
916 1 -1.1104 1.21838 32.5113 6.75265
1034 2 2.2208 10.7594 39.7199 -0.382823
920 1 -1.1104 3.98785 32.5629 6.50142
10123 2 2.2208 -0.435859 45.2788 10.8452
742 2 2.2208 10.6475 28.4705 5.24372
752 2 2.2208 8.01258 28.43 2.36577
790 1 -1.1104 12.0253 29.5615 0.988502
792 1 -1.1104 12.0518 29.6577 3.92589
794 1 -1.1104 12.0576 32.5731 0.839656
795 2 2.2208 10.6353 31.2071 2.13403
797 1 -1.1104 12.3699 32.5511 3.48211
798 1 -1.1104 9.25634 29.7371 0.883264
801 1 -1.1104 9.42925 29.6241 3.67892
803 2 2.2208 8.01471 31.3323 5.16239
805 1 -1.1104 9.13237 32.7898 0.994985
806 1 -1.1104 9.47874 32.567 3.7284
1050 2 2.2208 2.08752 31.0624 -0.381041
914 1 -1.1104 6.56658 29.916 6.37639
949 1 -1.1104 9.40518 29.7934 6.52311
759 1 -1.1104 12.2325 41.312 9.47869
1607 1 -1.1104 6.37359 46.273 12.313
762 2 2.2208 5.37586 34.1666 5.12055
764 1 -1.1104 0.987651 35.3441 0.802688
767 1 -1.1104 0.893187 35.1707 3.6445