ITEM: TIMESTEP
60000
ITEM: NUMBER OF ATOMS
17760
ITEM: BOX BOUNDS pp pp pp
-4.3467956774669703e-01 2.7774679567746904e+01
-5.4399468206788946e+00 3.3351994682067692e+02
-4.6269512223995130e-01 2.7802695122240046e+01
ITEM: ATOMS id type q x y z
1 2 2.2208 5.33774 0.249482 5.35229
2 1 -1.1104 1.21447 -4.09124 0.856569
6 1 -1.1104 1.30132 -4.08634 3.95434
10 1 -1.1104 1.09714 -1.28067 1.14717
12 2 2.2208 5.44388 -2.77577 2.5632
14 1 -1.1104 1.26751 -1.23225 3.87086
16 1 -1.1104 3.94684 -4.16853 0.917044
18 2 2.2208 2.49593 -0.0198291 2.46982
19 1 -1.1104 4.08423 -4.27401 3.69919
21 2 2.2208 2.85484 -2.78491 5.17426
23 1 -1.1104 3.89496 -1.18099 0.947062
24 1 -1.1104 3.91792 -1.39858 3.74547
349 2 2.2208 -0.118718 -2.77132 2.49715
340 2 2.2208 5.49948 5.70004 -0.418523
357 2 2.2208 -0.194452 5.69234 5.17576
17 1 -1.1104 3.98013 1.58007 1.06049
288 1 -1.1104 6.70889 18.4201 9.18227
170 1 -1.1104 1.31482 -1.16805 6.68869
233 1 -1.1104 6.78621 15.8223 12.2654
352 2 2.2208 -0.325514 -0.121399 5.29553
81 2 2.2208 11.0199 19.9321 8.09465
8 1 -1.1104 6.90194 -4.11756 3.74353
4 1 -1.1104 6.78189 -4.00974 0.814293
11 1 -1.1104 6.58032 -1.26491 1.45946
15 1 -1.1104 6.64793 -1.28822 4.23167
31 2 2.2208 10.9481 0.111615 5.33931
32 1 -1.1104 12.6398 -4.13407 1.13842
34 1 -1.1104 12.2832 -4.09212 4.10916
36 1 -1.1104 12.3098 -1.23895 1.09507
37 2 2.2208 11.1024 -2.55016 2.57952
39 1 -1.1104 12.527 -1.11782 3.74942
40 1 -1.1104 9.71474 -4.14828 0.995337
42 2 2.2208 8.1478 0.119404 2.59932
43 1 -1.1104 9.47627 -4.39371 4.03743
45 2 2.2208 8.31869 -2.8902 5.23213
47 1 -1.1104 9.28926 -1.18088 0.951142
48 1 -1.1104 9.5235 -1.55483 3.8279
207 1 -1.1104 12.2453 -1.14832 6.78271
205 1 -1.1104 12.4418 -4.23203 6.88094
210 1 -1.1104 9.6381 -1.35556 6.65245
289 1 -1.1104 6.91175 15.5658 9.24422
353 2 2.2208 -0.263738 2.78767 2.2861
7 1 -1.1104 1.31215 1.48963 3.90049
3 1 -1.1104 1.04878 1.30071 1.06746
13 2 2.2208 5.42237 2.89011 2.53404
20 1 -1.1104 4.15126 1.56082 3.93766
22 2 2.2208 2.53448 2.94962 5.24471
54 2 2.2208 5.51955 5.67705 5.28337
60 1 -1.1104 1.03728 4.34076 0.960249
67 1 -1.1104 1.02642 4.25556 3.64898
71 1 -1.1104 4.01542 7.37853 0.682555
72 2 2.2208 2.48647 5.79307 2.43029
76 1 -1.1104 3.79957 4.39281 0.988549
79 1 -1.1104 3.85537 4.4349 4.05167
58 1 -1.1104 1.33186 7.4138 3.81181
56 1 -1.1104 1.10711 7.08224 0.969997
74 1 -1.1104 3.99651 7.1486 3.72658
335 2 2.2208 11.1048 11.3082 -0.165305
69 1 -1.1104 6.9884 4.51215 3.94338
27 1 -1.1104 12.4201 18.3281 12.388
308 2 2.2208 2.50862 20.0242 -0.335653
50 1 -1.1104 12.4985 15.7532 12.2359
9 1 -1.1104 6.95482 1.63016 3.83568
63 1 -1.1104 6.57172 4.29884 1.2201
5 1 -1.1104 6.94076 1.37616 1.06894
169 1 -1.1104 6.86083 1.46759 6.68484
59 1 -1.1104 6.75645 7.48608 3.655
57 1 -1.1104 6.75771 7.34326 0.863339
33 1 -1.1104 12.6769 1.31696 0.920326
35 1 -1.1104 12.514 1.62897 3.85583
38 2 2.2208 11.0833 3.11206 2.50502
41 1 -1.1104 9.70136 1.5852 1.35439
44 1 -1.1104 9.74778 1.52578 3.91833
46 2 2.2208 8.28867 2.98154 5.32268
84 2 2.2208 10.9671 5.70933 5.31498
87 1 -1.1104 12.7403 7.2945 3.81689
88 1 -1.1104 12.4928 4.39074 0.797988
92 1 -1.1104 12.4043 4.53269 3.84184
95 2 2.2208 8.04912 5.92406 2.34327
99 1 -1.1104 9.44603 4.24166 1.18215
102 1 -1.1104 9.72422 4.11841 3.90985
86 1 -1.1104 12.54 6.99079 0.997741
94 1 -1.1104 9.67399 6.90722 1.11952
97 1 -1.1104 9.79646 7.05735 3.84618
267 1 -1.1104 9.51427 7.24098 6.73707
265 1 -1.1104 12.4491 7.23729 6.62039
266 1 -1.1104 12.5057 4.16926 6.49849
9450 2 2.2208 -0.192477 17.1334 10.9352
49 1 -1.1104 12.3923 18.5178 9.70522
55 2 2.2208 5.39035 11.3907 5.15066
61 1 -1.1104 1.14602 10.1505 0.736309
66 2 2.2208 5.29062 8.71702 2.24441
68 1 -1.1104 1.19089 9.94926 3.62265
73 2 2.2208 2.58322 11.3927 2.34349
75 2 2.2208 2.60019 8.54994 5.2054
77 1 -1.1104 3.84659 10.1462 0.991515
80 1 -1.1104 3.95167 9.75349 3.96727
107 1 -1.1104 1.01102 12.9938 1.0414
113 1 -1.1104 1.18767 12.5736 4.0304
123 1 -1.1104 4.09561 12.7504 0.996758
128 1 -1.1104 3.96053 12.7278 3.82193
339 2 2.2208 8.29854 2.82026 -0.222566
358 2 2.2208 -0.205273 8.60085 2.32277
362 2 2.2208 -0.345696 14.4109 2.42469
359 2 2.2208 -0.238998 11.2123 5.14942
137 2 2.2208 8.05631 14.2351 10.7729
70 1 -1.1104 6.87761 10.1387 3.76619
334 2 2.2208 11.0413 0.037729 -0.297724
115 1 -1.1104 6.63182 12.8342 3.62077
64 1 -1.1104 6.88879 10.1509 0.860823
110 1 -1.1104 6.9634 12.9427 0.800599
85 2 2.2208 10.9353 11.4879 5.18925
89 1 -1.1104 12.44 9.66925 1.03031
91 2 2.2208 11.1074 8.4596 2.54549
93 1 -1.1104 12.2226 10.0955 3.86291
96 2 2.2208 8.36019 11.3495 2.14889
98 2 2.2208 8.15105 8.64528 5.28522
100 1 -1.1104 9.77401 9.86647 0.998592
103 1 -1.1104 9.41763 9.94832 3.64748
142 1 -1.1104 12.6 12.7742 0.775675
146 1 -1.1104 12.2832 12.7254 3.31641
153 1 -1.1104 9.79791 12.7424 1.0885
158 1 -1.1104 9.62249 13.002 3.92744
333 2 2.2208 2.39885 14.04 -0.314767
65 1 -1.1104 6.72633 9.9823 6.56356
90 1 -1.1104 12.3129 9.96555 6.73038
377 2 2.2208 -0.31882 17.1087 -0.300755
119 2 2.2208 5.19091 14.3168 2.43951
149 1 -1.1104 12.6499 15.632 6.67913
130 2 2.2208 2.38522 14.2569 5.34286
106 2 2.2208 5.40646 17.2131 5.24847
109 1 -1.1104 1.00876 18.7114 0.984398
114 1 -1.1104 1.24651 18.4941 4.00874
116 1 -1.1104 0.959896 15.8702 1.03164
120 2 2.2208 5.28944 19.9725 2.28814
121 1 -1.1104 1.18026 15.6343 3.83373
125 1 -1.1104 4.10317 18.6874 0.851245
127 2 2.2208 2.5166 17.1942 2.32273
129 1 -1.1104 3.9775 18.4814 3.77803
131 2 2.2208 2.40533 19.9679 5.1337
132 1 -1.1104 3.84177 15.805 1.01605
134 1 -1.1104 3.91851 15.5474 4.0971
139 1 -1.1104 6.70025 18.4865 3.75723
328 2 2.2208 8.22355 17.0791 13.5077
317 2 2.2208 2.60951 5.83335 13.66
156 1 -1.1104 9.50693 18.4362 6.40611
160 2 2.2208 8.08352 14.2276 5.10309
313 2 2.2208 8.00309 20.0962 -0.431351
140 1 -1.1104 6.75092 15.705 0.895671
138 1 -1.1104 6.88553 18.3165 0.73102
122 1 -1.1104 6.78567 15.6951 3.68978
150 2 2.2208 11.0554 14.2245 2.18158
141 2 2.2208 10.8779 17.0463 4.99962
144 1 -1.1104 12.5304 18.6378 0.776645
147 1 -1.1104 12.4709 18.5991 3.67107
148 1 -1.1104 12.4508 15.8258 0.841885
151 2 2.2208 10.9556 20.1031 2.42877
152 1 -1.1104 12.3665 15.7227 3.71373
155 1 -1.1104 9.69303 18.9959 0.961908
157 2 2.2208 8.0727 17.0731 2.35538
159 1 -1.1104 9.71775 18.7023 3.89592
161 2 2.2208 8.24514 19.948 5.14097
162 1 -1.1104 9.70503 15.7693 0.968718
164 1 -1.1104 9.82016 15.8401 3.62469
346 2 2.2208 -0.289028 8.66206 7.99587
118 1 -1.1104 6.71822 15.6539 6.36012
53 2 2.2208 10.9363 14.3489 7.94702
174 1 -1.1104 4.07435 -1.10822 6.65972
172 1 -1.1104 4.10661 -4.17089 6.44221
166 1 -1.1104 1.2685 -3.89952 6.64037
175 2 2.2208 5.3775 0.120647 11.1208
176 1 -1.1104 1.41315 -4.14766 12.5381
180 1 -1.1104 1.28238 -4.12362 9.39372
184 1 -1.1104 1.23338 -1.45898 12.3825
186 2 2.2208 5.32831 -2.76252 8.07225
188 1 -1.1104 1.13902 -1.39014 9.54124
190 1 -1.1104 4.11965 -4.13625 12.2038
192 2 2.2208 2.53881 0.0689583 8.18451
193 1 -1.1104 4.01312 -4.0643 9.36267
195 2 2.2208 2.85531 -2.68473 10.8788
197 1 -1.1104 4.22445 -1.44036 12.4414
198 1 -1.1104 3.9756 -1.16923 9.62836
338 2 2.2208 8.28721 -2.76379 -0.401916
368 2 2.2208 -0.190639 -2.76681 8.05523
145 1 -1.1104 12.4763 18.6065 6.66328
168 1 -1.1104 6.94369 -4.21957 6.7749
208 1 -1.1104 9.80408 -4.37259 6.71222
171 1 -1.1104 6.8546 -1.52227 6.72138
182 1 -1.1104 6.67141 -4.09734 9.48448
189 1 -1.1104 6.92913 -1.31158 9.7114
185 1 -1.1104 6.74388 -1.17684 12.6356
178 1 -1.1104 6.97184 -4.11266 12.5149
211 2 2.2208 10.9782 -0.188256 11.0567
212 1 -1.1104 12.5289 -4.39738 12.4591
214 1 -1.1104 12.3137 -4.12505 9.69355
216 1 -1.1104 12.3247 -1.4603 12.6024
217 2 2.2208 11.2276 -2.73744 8.18854
219 1 -1.1104 12.385 -1.36223 9.71933
220 1 -1.1104 9.87723 -3.9948 12.2417
222 2 2.2208 8.36233 0.00481522 8.2358
223 1 -1.1104 9.63517 -4.31721 9.61553
225 2 2.2208 8.18657 -2.8668 10.9836
227 1 -1.1104 9.55 -1.40191 12.2373
228 1 -1.1104 9.71285 -1.61488 9.30577
381 2 2.2208 -0.0346851 2.97025 13.5762
239 1 -1.1104 4.12516 4.37612 6.71138
361 2 2.2208 -0.367577 20.1054 13.6506
347 2 2.2208 -0.313181 5.97504 10.7423
167 1 -1.1104 1.17888 1.60597 6.68386
234 1 -1.1104 1.1478 7.1179 6.77914
238 1 -1.1104 3.94624 7.29468 6.68231
236 1 -1.1104 1.30429 4.47521 6.29253
173 1 -1.1104 3.83545 1.63162 6.55924
191 1 -1.1104 4.07099 1.6505 12.2961
181 1 -1.1104 1.1749 1.42716 9.50431
177 1 -1.1104 1.39262 1.51322 12.2868
187 2 2.2208 5.17587 2.90268 8.12712
194 1 -1.1104 3.94809 1.72321 9.37668
196 2 2.2208 2.61924 3.05698 11.0809
240 2 2.2208 5.45529 5.91247 10.9227
246 1 -1.1104 1.09696 4.24371 12.1241
251 1 -1.1104 0.939515 4.46189 9.36654
255 1 -1.1104 4.08864 7.32608 12.3989
256 2 2.2208 2.71816 5.90171 8.16137
260 1 -1.1104 4.03823 4.45523 12.4686
262 1 -1.1104 3.83892 4.54065 9.71659
242 1 -1.1104 1.18776 7.1579 12.2262
244 1 -1.1104 1.24386 7.1599 9.54083
258 1 -1.1104 3.83313 7.51457 9.37926
235 1 -1.1104 6.72514 7.12534 6.73564
206 1 -1.1104 12.4053 1.4332 6.82763
269 1 -1.1104 9.76889 4.39502 6.78618
248 1 -1.1104 6.77631 4.4284 12.1621
209 1 -1.1104 9.43248 1.47688 6.78099
245 1 -1.1104 6.93335 7.4023 9.52094
243 1 -1.1104 6.62457 7.32578 12.4297
237 1 -1.1104 6.83021 4.29456 6.66006
253 1 -1.1104 6.46048 4.25988 9.30628
183 1 -1.1104 6.75074 1.27181 9.66556
179 1 -1.1104 6.89439 1.64428 12.5501
213 1 -1.1104 12.1247 1.34379 12.5165
215 1 -1.1104 12.3205 1.3898 9.67164
218 2 2.2208 11.049 2.78107 8.2053
221 1 -1.1104 9.54369 1.35341 12.2531
224 1 -1.1104 9.53064 1.39877 9.6496
226 2 2.2208 8.07003 2.93074 10.8921
268 1 -1.1104 9.32013 4.33696 9.33241
271 1 -1.1104 9.36542 4.13644 12.2136
275 2 2.2208 8.25864 5.79629 8.01243
276 2 2.2208 10.7551 5.66729 10.8425
278 1 -1.1104 12.2426 7.12686 12.2443
279 1 -1.1104 12.2527 7.19833 9.2996
280 1 -1.1104 12.3509 4.3842 12.0842
283 1 -1.1104 12.3751 4.15622 9.45323
285 1 -1.1104 9.38165 7.11473 12.3148
273 1 -1.1104 9.50685 7.29046 9.67163
9351 2 2.2208 -0.312913 11.4195 10.8539
9464 2 2.2208 -0.32628 5.6061 -0.368583
9449 2 2.2208 -0.209272 14.2759 8.06213
78 1 -1.1104 4.00545 10.0549 6.76643
62 1 -1.1104 1.04491 9.93836 6.3318
108 1 -1.1104 0.979286 12.9249 6.64111
124 1 -1.1104 4.0185 12.9195 6.72595
294 1 -1.1104 1.20792 12.9112 9.34515
299 1 -1.1104 0.92559 13.0324 12.152
241 2 2.2208 5.35015 11.4615 10.8915
247 1 -1.1104 1.18525 10.1517 12.1367
250 2 2.2208 5.36647 8.54506 8.06302
252 1 -1.1104 1.28402 9.80198 9.35908
257 2 2.2208 2.61553 11.186 7.97112
259 2 2.2208 2.70896 8.73208 11.0982
261 1 -1.1104 3.95407 10.0373 12.5422
263 1 -1.1104 3.95865 10.342 9.66398
287 1 -1.1104 3.91406 12.8749 12.352
305 1 -1.1104 3.90759 13.0547 9.43745
297 1 -1.1104 6.74432 12.9086 12.4076
25 2 2.2208 11.0778 17.1984 10.8866
254 1 -1.1104 6.63334 10.0166 9.45807
143 1 -1.1104 12.457 12.816 6.11266
101 1 -1.1104 9.42564 9.86997 6.52117
290 1 -1.1104 6.6176 12.9296 9.56654
111 1 -1.1104 6.87879 12.835 6.63579
154 1 -1.1104 9.64045 12.7182 6.61837
249 1 -1.1104 6.82265 10.2268 12.2278
30 1 -1.1104 12.3507 12.9204 9.30425
26 1 -1.1104 12.4022 12.749 12.2775
135 1 -1.1104 9.60713 12.9624 9.32274
83 1 -1.1104 9.61837 13.0697 12.0449
264 1 -1.1104 9.51431 10.0662 9.2265
270 1 -1.1104 9.4288 10.1494 12.1154
272 2 2.2208 8.21262 8.76395 10.7535
274 2 2.2208 8.18646 11.4859 7.80759
277 2 2.2208 10.9388 11.6106 10.6744
281 1 -1.1104 12.1629 9.90969 12.0775
282 2 2.2208 10.8633 8.53758 7.90766
284 1 -1.1104 12.3868 10.0478 9.35002
104 1 -1.1104 9.29899 18.2195 11.9947
295 2 2.2208 5.41104 14.3805 8.00043
126 1 -1.1104 3.92931 18.6883 6.4461
133 1 -1.1104 3.92891 15.804 6.76161
302 1 -1.1104 0.919867 18.5943 6.82096
296 1 -1.1104 6.5704 18.6239 12.1591
117 1 -1.1104 0.86985 15.5536 6.52695
201 2 2.2208 2.57368 14.325 10.8267
230 1 -1.1104 0.886479 15.8428 12.4929
229 1 -1.1104 3.99927 15.7022 12.2956
204 2 2.2208 2.54271 19.9709 10.8354
286 1 -1.1104 3.90195 18.4132 12.4135
292 1 -1.1104 1.19816 15.6238 9.64406
304 1 -1.1104 4.108 15.847 9.44785
303 2 2.2208 2.7144 17.2988 7.88418
301 1 -1.1104 4.07768 18.6687 9.32403
298 1 -1.1104 1.27699 18.5118 12.1949
300 2 2.2208 5.32108 17.1687 10.9552
291 1 -1.1104 1.04906 18.7637 9.55271
293 2 2.2208 5.31193 19.9476 7.78307
370 2 2.2208 -0.113429 19.9662 8.11484
112 1 -1.1104 6.77622 18.6921 6.49429
165 2 2.2208 8.15382 19.8085 10.6384
200 1 -1.1104 9.60015 15.6245 9.38863
105 2 2.2208 8.06423 17.0503 7.89974
82 1 -1.1104 12.4573 15.8257 9.32803
199 1 -1.1104 9.59209 15.639 12.4095
136 1 -1.1104 9.66873 18.3474 9.13478
163 1 -1.1104 9.65369 15.5864 6.49544
369 2 2.2208 -0.183071 -0.0421182 11.0003
332 2 2.2208 5.2502 17.1353 -0.427625
329 2 2.2208 5.43658 0.193 -0.337221
367 2 2.2208 -0.217185 2.88164 8.10406
9345 2 2.2208 13.6209 8.49815 10.6547
324 2 2.2208 5.39839 20.016 13.6704
321 2 2.2208 10.8478 8.69788 13.5207
320 2 2.2208 8.04255 5.89861 13.6313
342 2 2.2208 5.25736 11.5134 -0.390239
325 2 2.2208 5.40427 14.2783 13.5991
326 2 2.2208 10.838 19.6758 13.6503
307 2 2.2208 10.9677 17.3131 -0.437776
382 2 2.2208 5.4605 0.091584 16.3801
383 1 -1.1104 1.42837 -4.31396 18.1331
387 1 -1.1104 1.01714 -4.16134 15.2966
395 1 -1.1104 1.21906 -1.50949 17.9798
397 2 2.2208 5.39998 -2.69196 19.3086
399 1 -1.1104 1.24903 -1.39628 15.1837
403 1 -1.1104 4.03724 -4.34137 18.1381
405 2 2.2208 2.74195 0.0754702 19.3138
406 1 -1.1104 3.91127 -4.27185 15.1287
410 2 2.2208 2.63016 -2.9014 16.637
412 1 -1.1104 4.13274 -1.35648 17.9633
413 1 -1.1104 3.91472 -1.32369 14.9992
9541 2 2.2208 -0.0300976 8.49431 25.0149
314 2 2.2208 8.22202 0.0284105 13.8048
710 2 2.2208 -0.205743 -0.213753 16.5836
9790 2 2.2208 -0.164419 5.62824 22.1703
414 1 -1.1104 4.15251 -1.4863 20.8154
379 2 2.2208 13.6404 -0.0145801 13.7514
391 1 -1.1104 6.89143 -4.22724 15.1428
401 1 -1.1104 6.78787 -1.51164 15.5111
396 1 -1.1104 7.01178 -1.63928 18.1269
402 1 -1.1104 6.7328 -1.51151 20.8369
385 1 -1.1104 6.82805 -4.33187 17.9592
425 2 2.2208 11.1196 0.0338054 16.6655
426 1 -1.1104 12.3997 -4.36298 18.1699
428 1 -1.1104 12.6866 -4.34674 15.4146
432 1 -1.1104 12.4285 -1.52298 18.027
433 2 2.2208 10.9798 -2.78887 19.4663
435 1 -1.1104 12.4508 -1.42031 15.1075
437 1 -1.1104 9.69348 -4.12448 18.1234
439 2 2.2208 8.29718 0.0993516 19.4237
440 1 -1.1104 9.51702 -4.0669 15.2315
444 2 2.2208 8.3087 -2.933 16.7559
446 1 -1.1104 9.62977 -1.26115 18.2258
447 1 -1.1104 9.55209 -1.39424 15.2639
705 2 2.2208 -0.10731 -2.79703 19.516
693 2 2.2208 -0.215975 14.2474 25.1226
384 1 -1.1104 1.32291 1.33439 17.888
389 1 -1.1104 1.12402 1.60614 15.2217
398 2 2.2208 5.34415 2.89148 19.2965
404 1 -1.1104 3.9965 1.37539 17.8641
408 1 -1.1104 4.12926 1.63424 15.1726
411 2 2.2208 2.56352 2.72483 16.455
458 2 2.2208 5.3565 5.78922 16.4494
462 1 -1.1104 1.24622 7.09868 15.2508
466 1 -1.1104 1.15852 4.10444 17.9433
471 1 -1.1104 1.26829 4.42552 14.9161
480 2 2.2208 2.57788 5.56005 19.19
485 1 -1.1104 3.88392 4.19697 17.8021
487 1 -1.1104 3.86779 4.27683 15.0935
460 1 -1.1104 1.09069 7.21733 18.0273
482 1 -1.1104 3.91506 7.21413 15.2544
479 1 -1.1104 3.95369 7.0686 17.961
418 2 2.2208 -0.0884886 2.7957 19.2938
310 2 2.2208 5.44165 -2.85031 13.9812
371 2 2.2208 -0.235408 8.63641 13.7603
575 1 -1.1104 9.63231 18.5995 20.8253
306 2 2.2208 8.03949 14.4896 27.6447
582 1 -1.1104 6.67316 15.9634 26.3477
468 1 -1.1104 6.67029 4.06956 17.9027
475 1 -1.1104 6.63027 4.45825 15.0365
461 1 -1.1104 6.79761 6.90228 18.0153
393 1 -1.1104 6.81025 1.46866 15.0721
464 1 -1.1104 6.78595 7.17477 15.1015
386 1 -1.1104 6.96333 1.29798 17.9838
430 1 -1.1104 12.4752 1.36793 15.3413
427 1 -1.1104 12.532 1.54356 18.1164
434 2 2.2208 11.1508 2.80482 19.3038
438 1 -1.1104 9.72064 1.59685 18.0717
442 1 -1.1104 9.6458 1.45651 14.928
445 2 2.2208 8.28773 2.98283 16.4221
494 2 2.2208 11.0934 5.65208 16.43
497 1 -1.1104 12.5432 7.27913 15.1156
499 1 -1.1104 12.7917 4.62856 17.6307
502 1 -1.1104 12.2362 4.08882 14.9359
507 2 2.2208 8.32842 5.85188 19.3319
509 1 -1.1104 9.64593 7.19823 14.9143
512 1 -1.1104 9.57715 4.5301 17.83
514 1 -1.1104 9.52447 4.41072 15.0485
506 1 -1.1104 9.65632 7.17166 17.8414
496 1 -1.1104 12.4849 7.1023 17.7495
431 1 -1.1104 12.562 1.61538 20.847
498 1 -1.1104 12.4542 7.18902 20.6094
515 1 -1.1104 9.56459 4.32737 20.6324
510 1 -1.1104 9.58686 7.1764 20.7295
465 1 -1.1104 6.62475 7.51812 20.7406
330 2 2.2208 2.62502 -2.72307 27.7311
327 2 2.2208 10.9615 14.1454 13.819
459 2 2.2208 5.41379 11.4044 16.7329
467 1 -1.1104 0.995336 10.0585 17.9087
470 2 2.2208 5.20476 8.59455 19.3719
473 1 -1.1104 1.08745 10.0872 15.0148
481 2 2.2208 2.38371 11.421 19.4555
484 2 2.2208 2.73052 8.67151 16.7722
486 1 -1.1104 3.98119 10.0951 18.113
489 1 -1.1104 3.91181 10.1074 15.3077
522 1 -1.1104 0.994134 13.0527 17.8777
526 1 -1.1104 1.20004 12.8 14.884
542 1 -1.1104 3.85077 12.8802 18.1063
545 1 -1.1104 4.05934 12.8241 15.1397
469 1 -1.1104 6.65422 9.93621 18.1157
712 2 2.2208 -0.39079 14.3136 19.2669
549 2 2.2208 2.41036 14.2328 16.4584
311 2 2.2208 2.64258 0.0530875 13.7754
318 2 2.2208 5.40414 8.68011 13.8694
694 2 2.2208 -0.337277 19.8718 25.0667
477 1 -1.1104 6.66646 10.0416 15.1466
524 1 -1.1104 6.70045 12.6668 18.1076
530 1 -1.1104 6.87808 12.7024 15.1624
495 2 2.2208 10.9118 11.487 16.688
500 1 -1.1104 12.2358 10.0833 17.9443
501 2 2.2208 11.0556 8.4329 19.3086
504 1 -1.1104 12.4952 9.98893 14.8233
508 2 2.2208 8.08175 11.3356 19.2472
511 2 2.2208 8.18325 8.51852 16.6638
513 1 -1.1104 9.41958 9.99507 17.9444
516 1 -1.1104 9.54274 10.0086 15.0295
558 1 -1.1104 12.483 12.7762 17.9483
560 1 -1.1104 12.3577 12.7373 15.317
569 1 -1.1104 9.55798 12.6433 17.9593
572 1 -1.1104 9.55332 12.7901 14.9489
647 2 2.2208 8.01654 17.1337 25.0512
9569 2 2.2208 -0.233875 2.97227 25.0171
565 2 2.2208 10.8534 14.3722 19.5125
517 1 -1.1104 9.57505 9.92123 20.5734
561 1 -1.1104 12.2387 12.823 20.6196
573 1 -1.1104 9.61439 12.8005 20.7642
713 2 2.2208 -0.406196 17.1404 16.7335
702 2 2.2208 -0.312786 11.3881 16.4865
536 2 2.2208 5.37121 14.1561 19.3868
521 2 2.2208 5.3911 16.9174 16.5442
523 1 -1.1104 1.22892 18.5024 17.8842
528 1 -1.1104 0.948967 18.7404 15.1208
534 1 -1.1104 1.05109 15.6899 18.0059
537 2 2.2208 5.35678 19.6781 19.2913
538 1 -1.1104 0.931265 15.7577 15.2654
543 1 -1.1104 4.01427 18.5121 17.8972
544 2 2.2208 2.36739 16.9732 19.4601
547 1 -1.1104 4.01299 18.3114 15.1731
550 2 2.2208 2.4705 19.7514 16.6233
551 1 -1.1104 3.97937 15.7195 17.9044
552 1 -1.1104 3.90682 15.4801 15.0221
529 1 -1.1104 1.06685 18.599 20.7706
539 1 -1.1104 0.924054 15.6639 20.8928
424 1 -1.1104 6.68737 15.8426 23.5548
337 2 2.2208 11.1235 5.815 27.7416
525 1 -1.1104 6.82611 18.2469 17.9905
568 1 -1.1104 12.2907 15.8528 20.78
532 1 -1.1104 6.70093 18.6636 15.0482
540 1 -1.1104 6.65581 15.6624 15.0743
535 1 -1.1104 6.72038 15.5402 17.8351
576 2 2.2208 8.15486 14.2232 16.4583
557 2 2.2208 11.007 17.1584 16.6038
559 1 -1.1104 12.3931 18.4782 17.854
562 1 -1.1104 12.4089 18.459 15.1475
564 1 -1.1104 12.6147 15.7358 18.0079
566 2 2.2208 11.062 19.8959 19.403
567 1 -1.1104 12.4469 15.6632 15.1027
570 1 -1.1104 9.52125 18.5167 17.8536
571 2 2.2208 8.20637 17.0777 19.5024
574 1 -1.1104 9.46962 18.3428 15.0645
577 2 2.2208 8.07238 19.8926 16.4333
578 1 -1.1104 9.61127 15.7013 18.1387
579 1 -1.1104 9.74276 15.4922 15.2706
541 1 -1.1104 6.778 15.6313 20.8412
309 2 2.2208 -0.078753 -2.86221 13.8728
388 1 -1.1104 1.13489 -4.10461 21.1601
407 1 -1.1104 3.89805 -4.36318 21.0733
711 2 2.2208 -0.235938 19.734 19.2995
697 2 2.2208 -0.388393 11.3053 22.2394
400 1 -1.1104 1.29146 -1.34076 20.8484
9574 2 2.2208 -0.248198 -2.54741 24.949
585 2 2.2208 5.66796 -0.0641996 22.1446
586 1 -1.1104 1.3199 -4.1816 23.7506
590 1 -1.1104 1.11968 -4.09734 26.2601
594 1 -1.1104 1.12341 -1.3448 23.5556
596 2 2.2208 5.39303 -2.7946 25.2205
598 1 -1.1104 1.13435 -1.32347 26.4723
600 1 -1.1104 4.05696 -4.24896 23.7869
602 2 2.2208 2.72909 0.116051 25.0216
603 1 -1.1104 3.97953 -4.24582 26.5441
605 2 2.2208 2.85375 -2.79405 22.3647
607 1 -1.1104 4.05799 -1.34487 23.7339
608 1 -1.1104 3.96083 -1.36787 26.3665
9573 2 2.2208 -0.145268 0.0750234 22.1389
441 1 -1.1104 9.50403 -3.9438 20.8244
704 2 2.2208 -0.0989796 5.59752 16.588
392 1 -1.1104 6.61201 -4.37766 20.7725
436 1 -1.1104 12.3579 -1.26683 20.87
588 1 -1.1104 6.6598 -4.0439 23.6111
448 1 -1.1104 9.66707 -0.993601 20.9132
429 1 -1.1104 12.6379 -4.24699 20.9475
595 1 -1.1104 6.96777 -1.41569 23.8383
599 1 -1.1104 6.72916 -1.25707 26.652
592 1 -1.1104 6.93034 -4.13507 26.3224
621 2 2.2208 11.1142 0.0983124 22.4099
622 1 -1.1104 12.4619 -4.04024 23.7329
624 1 -1.1104 12.6297 -4.16489 26.7583
626 1 -1.1104 12.5265 -1.44011 23.6089
627 2 2.2208 11.0945 -2.59968 25.0972
629 1 -1.1104 12.525 -1.4208 26.4052
630 1 -1.1104 9.48336 -4.06085 23.587
632 2 2.2208 8.28038 0.103126 25.155
633 1 -1.1104 9.8708 -4.12026 26.4357
635 2 2.2208 8.1879 -2.70399 22.2931
637 1 -1.1104 9.80008 -1.15262 23.7032
638 1 -1.1104 9.73086 -1.2991 26.5266
679 2 2.2208 8.07577 19.992 22.3818
680 1 -1.1104 9.61243 15.5121 23.7444
390 1 -1.1104 1.36027 1.37489 20.6938
312 2 2.2208 5.35218 2.96404 13.8127
488 1 -1.1104 4.18431 4.10365 20.896
472 1 -1.1104 1.41684 4.23476 20.7303
463 1 -1.1104 1.12399 7.1803 20.7774
409 1 -1.1104 4.12801 1.29431 20.7869
563 1 -1.1104 12.3351 18.7074 20.8492
483 1 -1.1104 3.83309 6.94304 20.653
587 1 -1.1104 1.28634 1.47116 23.7003
591 1 -1.1104 1.25758 1.9055 26.5761
597 2 2.2208 5.63793 2.96757 25.0823
601 1 -1.1104 4.17976 1.4137 23.7889
604 1 -1.1104 4.08247 1.59857 26.5134
606 2 2.2208 2.86522 2.83098 22.2946
650 2 2.2208 5.21908 5.71277 22.1482
652 1 -1.1104 1.19509 7.06206 23.8064
656 1 -1.1104 1.05029 4.21468 23.5502
661 1 -1.1104 1.21226 4.5055 26.4542
666 2 2.2208 2.63622 5.61671 24.9407
670 1 -1.1104 4.10551 4.30665 23.6872
672 1 -1.1104 4.04895 4.38773 26.5872
654 1 -1.1104 1.06809 6.97531 26.4732
665 1 -1.1104 3.99486 6.92149 23.3801
668 1 -1.1104 4.07456 7.17845 26.1917
394 1 -1.1104 6.90321 1.50464 20.8139
476 1 -1.1104 6.72193 4.57932 20.6217
503 1 -1.1104 12.4353 4.32927 20.5511
443 1 -1.1104 9.81698 1.76731 20.8898
593 1 -1.1104 6.97211 1.62398 26.6536
658 1 -1.1104 6.85888 4.3091 23.5885
589 1 -1.1104 7.03111 1.19153 23.7256
663 1 -1.1104 6.94686 4.40032 26.3995
653 1 -1.1104 6.65827 6.93154 23.617
655 1 -1.1104 7.04989 7.34532 26.5056
623 1 -1.1104 12.5502 1.41988 23.6078
625 1 -1.1104 12.3221 1.21425 26.388
628 2 2.2208 11.1081 2.86567 24.8791
631 1 -1.1104 9.53816 1.60966 23.5719
634 1 -1.1104 9.60699 1.39089 26.5854
636 2 2.2208 8.21492 2.91274 22.0429
641 1 -1.1104 12.437 3.98342 26.244
676 1 -1.1104 12.4419 4.52404 23.4697
682 1 -1.1104 9.69086 4.24107 26.2993
684 1 -1.1104 9.64698 4.26809 23.4844
686 1 -1.1104 9.61035 7.27424 26.4403
688 2 2.2208 8.26196 5.65536 24.8452
689 2 2.2208 10.9389 5.77666 22.1344
692 1 -1.1104 12.4512 7.07342 26.2667
639 1 -1.1104 9.35521 7.23053 23.5076
691 1 -1.1104 12.0075 7.17893 23.4663
619 2 2.2208 10.9554 19.9848 24.9413
646 1 -1.1104 9.58577 18.5446 23.6331
315 2 2.2208 11.1067 -2.81574 13.8623
490 1 -1.1104 4.01428 10.1069 20.7294
474 1 -1.1104 1.24133 9.92786 20.7492
527 1 -1.1104 0.957448 12.7018 20.6654
546 1 -1.1104 3.74383 13.0428 20.819
651 2 2.2208 5.29758 11.4072 22.2681
657 1 -1.1104 1.23091 9.99271 23.5553
660 2 2.2208 5.45166 8.69101 25.247
662 1 -1.1104 1.16077 9.9057 26.3663
667 2 2.2208 2.50664 11.3391 24.9909
669 2 2.2208 2.53235 8.34433 22.061
671 1 -1.1104 3.87495 9.87123 23.6798
673 1 -1.1104 3.93302 10.0679 26.489
449 1 -1.1104 3.89617 12.7404 26.1221
492 1 -1.1104 1.14916 12.6239 23.54
555 1 -1.1104 1.05769 12.8258 26.4068
583 1 -1.1104 3.8433 12.7342 23.4138
478 1 -1.1104 6.71829 10.3327 20.8785
505 1 -1.1104 12.4327 10.0022 20.843
659 1 -1.1104 6.8202 9.93165 23.5403
518 1 -1.1104 6.83696 12.8059 23.5238
531 1 -1.1104 6.70684 12.8921 20.7459
664 1 -1.1104 6.70925 10.1238 26.5705
609 1 -1.1104 6.54783 13.1581 26.4856
649 1 -1.1104 9.47211 13.0329 26.5564
640 1 -1.1104 12.6768 9.79048 26.3944
674 2 2.2208 11.0603 8.53988 25.0823
675 1 -1.1104 12.7882 9.82052 23.6037
681 1 -1.1104 9.60409 10.1635 26.5181
683 1 -1.1104 9.79247 10.1139 23.5867
685 2 2.2208 8.10678 8.61075 22.1058
687 2 2.2208 8.12812 11.3943 25.1348
690 2 2.2208 10.9375 11.3323 22.1241
642 1 -1.1104 9.36925 13.0284 23.8035
454 1 -1.1104 12.3019 12.756 23.519
612 1 -1.1104 12.2434 12.4908 26.245
618 2 2.2208 10.9552 14.1894 25.0386
678 2 2.2208 8.17129 14.1748 22.2412
580 1 -1.1104 9.59459 15.6709 20.8126
611 1 -1.1104 9.2896 16.0568 26.7036
548 1 -1.1104 3.86247 18.3818 20.9366
677 1 -1.1104 9.55014 18.8206 26.5684
341 2 2.2208 2.3712 8.63692 27.7852
553 1 -1.1104 3.88073 15.7319 20.904
419 2 2.2208 2.33033 14.1763 22.1298
519 2 2.2208 5.25083 14.36 24.7926
420 2 2.2208 2.35267 19.7256 22.1945
422 1 -1.1104 3.79143 15.6066 23.5594
423 1 -1.1104 0.921802 15.5037 23.5137
455 1 -1.1104 3.81938 15.3953 26.5348
456 2 2.2208 2.57206 16.8165 25.1171
457 1 -1.1104 3.61624 18.2211 26.5288
491 2 2.2208 5.25547 17.0979 22.0894
493 1 -1.1104 0.959162 18.4276 23.6686
520 2 2.2208 5.18005 19.9467 25.0352
556 1 -1.1104 1.25017 15.5474 26.573
581 1 -1.1104 0.928556 18.517 26.5155
610 1 -1.1104 3.87883 18.6983 23.6758
648 1 -1.1104 6.4481 18.6331 26.5141
613 1 -1.1104 12.3995 18.5647 26.4228
620 1 -1.1104 12.4285 15.5737 26.1989
584 1 -1.1104 12.202 18.4271 23.7819
617 1 -1.1104 12.3949 15.4809 23.3298
533 1 -1.1104 6.56848 18.5775 21.0499
453 2 2.2208 11.0186 17.1653 22.3211
554 1 -1.1104 6.82499 18.6934 23.8469
322 2 2.2208 8.18501 11.4881 13.6879
323 2 2.2208 2.26472 17.0605 13.9634
336 2 2.2208 8.15744 8.66783 27.7638
319 2 2.2208 2.59442 11.4064 13.7457
331 2 2.2208 2.56056 3.18745 27.7777
376 2 2.2208 -0.339841 0.124421 27.6815
316 2 2.2208 10.8257 2.9776 13.7494
714 2 2.2208 5.46535 22.7138 5.27281
716 1 -1.1104 0.891475 24.342 0.859185
717 1 -1.1104 1.04799 24.2547 3.82052
718 1 -1.1104 1.03027 21.5536 0.977216
720 2 2.2208 5.13311 25.6358 2.35075
721 1 -1.1104 0.950399 21.2617 3.81359
723 1 -1.1104 3.91157 24.2792 1.08759
724 2 2.2208 2.29225 22.8378 2.48724
726 1 -1.1104 3.90111 23.9884 3.72265
727 2 2.2208 2.55164 25.449 5.17258
728 1 -1.1104 3.72641 21.5077 1.03412
730 1 -1.1104 3.74989 21.2655 3.85611
729 1 -1.1104 3.95126 27.0827 1.1173
722 1 -1.1104 1.0511 27.0741 3.59547
858 1 -1.1104 0.867024 26.8064 6.4223
719 1 -1.1104 1.07326 27.0384 0.856846
863 1 -1.1104 3.80498 27.0528 6.57028
731 1 -1.1104 3.79996 27.0367 3.76858
736 1 -1.1104 6.84566 24.0912 3.97189
738 1 -1.1104 6.65062 27.2044 1.007
1032 2 2.2208 10.7291 36.7745 13.6259
857 1 -1.1104 1.23564 21.3242 6.69056
1037 2 2.2208 2.42635 45.3794 13.6056
1072 2 2.2208 13.5809 39.6472 2.41669
739 1 -1.1104 6.72243 21.4802 3.75939
737 1 -1.1104 6.58249 21.4984 0.958647
735 1 -1.1104 6.55163 24.2436 0.847525
741 2 2.2208 10.9388 22.6811 5.28953
743 1 -1.1104 12.399 24.2226 0.962998
744 1 -1.1104 12.1946 24.2432 3.80361
745 1 -1.1104 12.1013 21.457 0.986491
747 2 2.2208 10.8255 25.4112 2.50828
748 1 -1.1104 12.5388 21.1846 3.82357
750 1 -1.1104 9.57635 24.3134 1.0149
751 2 2.2208 8.13533 22.808 2.29378
753 1 -1.1104 9.4472 24.0263 4.0062
754 2 2.2208 8.05794 25.4467 5.4228
757 1 -1.1104 9.7057 21.4565 3.82902
755 1 -1.1104 9.35033 21.5219 1.04663
860 1 -1.1104 6.76967 26.9079 6.73981
756 1 -1.1104 9.41704 27.1409 1.00561
749 1 -1.1104 12.1221 27.1314 3.88553
758 1 -1.1104 9.45385 26.9652 3.80185
740 1 -1.1104 6.64714 26.7793 4.02258
746 1 -1.1104 12.3003 26.9382 1.02501
1012 2 2.2208 8.17663 45.127 7.93144
859 1 -1.1104 6.87479 21.305 6.47466
856 1 -1.1104 6.7259 24.0868 6.84158
888 1 -1.1104 12.369 24.1953 6.67847
893 1 -1.1104 9.53662 26.9478 6.55335
715 2 2.2208 5.2804 28.3312 5.28479
725 2 2.2208 2.50091 28.486 2.29102
763 1 -1.1104 0.839065 29.7036 1.02683
766 1 -1.1104 0.999349 29.8794 3.9486
769 1 -1.1104 0.7881 32.8389 1.15875
770 2 2.2208 5.36534 31.2165 2.47001
772 1 -1.1104 1.12973 32.8369 3.80058
774 1 -1.1104 3.99254 29.7764 1.19991
777 1 -1.1104 3.69448 29.7992 3.80969
779 2 2.2208 2.45177 31.33 5.0293
781 1 -1.1104 3.69414 32.6479 0.977623
782 1 -1.1104 3.76773 32.6865 3.67092
916 1 -1.1104 0.949968 32.6275 6.43316
920 1 -1.1104 3.87569 32.8139 6.68753
1023 2 2.2208 5.08018 45.3164 -0.384244
918 1 -1.1104 4.00133 29.9426 6.65086
788 1 -1.1104 6.51366 32.8326 0.948295
773 1 -1.1104 6.67103 32.354 3.76627
787 1 -1.1104 6.7553 29.6421 3.69617
786 1 -1.1104 6.66327 29.9719 1.04882
742 2 2.2208 10.768 28.2544 5.15756
752 2 2.2208 8.11699 28.6197 2.39182
790 1 -1.1104 12.3436 29.9606 1.02929
792 1 -1.1104 12.1666 29.9086 3.7942
794 1 -1.1104 12.2156 32.4953 1.04236
795 2 2.2208 10.6582 31.2329 2.4536
797 1 -1.1104 12.4931 32.8029 3.81027
798 1 -1.1104 9.50733 29.8104 1.04157
801 1 -1.1104 9.3979 29.8554 3.83924
803 2 2.2208 7.97766 31.2232 5.2095
805 1 -1.1104 9.18646 32.789 1.17354
806 1 -1.1104 9.29131 32.5413 3.66092
10121 2 2.2208 -0.384201 36.8576 8.10967
946 1 -1.1104 12.6099 29.9473 6.83989
949 1 -1.1104 9.6746 30.0954 6.70446
10639 3 0 10.8317 46.2507 12.5842
1070 2 2.2208 -0.260445 34.1312 5.25002
762 2 2.2208 5.21793 33.994 5.21804
764 1 -1.1104 1.10408 35.6645 0.88897
767 1 -1.1104 0.754281 35.6044 3.80195
771 2 2.2208 5.21318 36.8853 2.26191
775 1 -1.1104 3.79345 35.3614 1.03163
776 2 2.2208 2.25851 34.2829 2.31173
778 1 -1.1104 3.83288 35.5305 3.84647
780 2 2.2208 2.36953 36.7247 5.27721
808 2 2.2208 5.1988 39.8132 4.97819
814 1 -1.1104 0.867556 38.2699 0.76266
819 1 -1.1104 1.1577 38.1822 3.46796
824 2 2.2208 2.45415 39.543 2.20005
828 1 -1.1104 3.68661 38.1194 0.831108
830 1 -1.1104 3.78064 38.0365 3.70966
992 1 -1.1104 3.73785 38.231 6.58863
986 1 -1.1104 0.797605 38.446 6.62028
768 1 -1.1104 6.52595 35.5564 3.77975
765 1 -1.1104 6.45057 35.5498 0.797693
1046 2 2.2208 7.97934 25.8573 -0.390515
919 1 -1.1104 3.72737 35.3813 6.70681
1061 2 2.2208 -0.307807 31.0529 7.9863
1610 1 -1.1104 6.36437 46.2571 8.87231
816 1 -1.1104 6.62844 38.3263 0.730565
10052 1 -1.1104 13.5739 43.9714 9.57176
821 1 -1.1104 6.64369 38.2298 3.61088
789 2 2.2208 10.8478 34.0233 5.01222
791 1 -1.1104 12.3011 35.3189 1.05304
793 1 -1.1104 12.3452 35.4223 3.72767
796 2 2.2208 10.7572 36.8299 2.38748
799 1 -1.1104 9.40257 35.6925 1.01878
800 2 2.2208 7.89945 34.093 2.40276