LAMMPS (29 Oct 2020)
OMP_NUM_THREADS environment is not set. Defaulting to 1 thread. (../comm.cpp:94)
  using 1 OpenMP thread(s) per MPI task
OMP_NUM_THREADS environment is not set. Defaulting to 1 thread. (../comm.cpp:94)
  using 1 OpenMP thread(s) per MPI task
Reading data file ...
  orthogonal box = (-0.31718983 -3.8388316 -0.32045262) to (27.657190 331.91883 27.660453)
  2 by 13 by 2 MPI processor grid
  reading atoms ...
  17670 atoms
  reading velocities ...
  17670 velocities
Finding 1-2 1-3 1-4 neighbors ...
  special bond factors lj:    0.0      0.0      0.0     
  special bond factors coul:  0.0      0.0      0.0     
     0 = max # of 1-2 neighbors
     0 = max # of 1-3 neighbors
     0 = max # of 1-4 neighbors
     1 = max # of special neighbors
  special bonds CPU = 0.003 seconds
  read_data CPU = 0.059 seconds
WARNING: 13 of 1000 force values in table Xe-Xe are inconsistent with -dE/dr.
  Should only be flagged at inflection points (../pair_table.cpp:461)
WARNING: 2 of 1000 force values in table Xe-O are inconsistent with -dE/dr.
  Should only be flagged at inflection points (../pair_table.cpp:461)
WARNING: 2 of 1000 force values in table Xe-Th are inconsistent with -dE/dr.
  Should only be flagged at inflection points (../pair_table.cpp:461)
Setting atom values ...
  11760 settings made for charge
Setting atom values ...
  5880 settings made for charge
Setting atom values ...
  30 settings made for charge
PPPM initialization ...
  using 12-bit tables for long-range coulomb (../kspace.cpp:328)
  G vector (1/distance) = 0.29897274
  grid = 40 240 40
  stencil order = 5
  estimated absolute RMS force accuracy = 0.00015479178
  estimated relative force accuracy = 1.0749694e-05
  using single precision MKL FFT
  3d grid and FFT values/proc = 18225 7600
Neighbor list info ...
  update every 1 steps, delay 0 steps, check yes
  max neighbors/atom: 2000, page size: 100000
  master list distance cutoff = 13
  ghost atom cutoff = 13
  binsize = 6.5, bins = 5 52 5
  3 neighbor lists, perpetual/occasional/extra = 3 0 0
  (1) pair coul/long, perpetual
      attributes: half, newton on
      pair build: half/bin/newton
      stencil: half/bin/3d/newton
      bin: standard
  (2) pair eam/alloy, perpetual, skip from (1)
      attributes: half, newton on
      pair build: skip
      stencil: none
      bin: none
  (3) pair table, perpetual, skip from (1)
      attributes: half, newton on
      pair build: skip
      stencil: none
      bin: none
Setting up Verlet run ...
  Unit style    : metal
  Current step  : 0
  Time step     : 0.001
Per MPI rank memory allocation (min/avg/max) = 9.223 | 9.964 | 10.04 Mbytes
Step Temp E_pair E_mol TotEng Press 
       0          300   -231206.51            0   -230521.34   -449.22189 
  100000    300.86686   -231203.03            0   -230515.88   -640.99375 
Loop time of 742.881 on 52 procs for 100000 steps with 17670 atoms

Performance: 11.630 ns/day, 2.064 hours/ns, 134.611 timesteps/s
99.8% CPU use with 52 MPI tasks x 1 OpenMP threads

MPI task timing breakdown:
Section |  min time  |  avg time  |  max time  |%varavg| %total
---------------------------------------------------------------
Pair    | 527.11     | 543.21     | 561.56     |  44.0 | 73.12
Bond    | 0.0075255  | 0.013316   | 0.017641   |   2.0 |  0.00
Kspace  | 151.9      | 171.25     | 185.74     |  74.7 | 23.05
Neigh   | 1.2034     | 1.2941     | 1.4079     |   6.1 |  0.17
Comm    | 19.574     | 22.149     | 26.095     |  32.8 |  2.98
Output  | 5.3155e-05 | 5.8703e-05 | 0.00026938 |   0.0 |  0.00
Modify  | 2.2871     | 3.1304     | 5.2614     |  62.1 |  0.42
Other   |            | 1.831      |            |       |  0.25

Nlocal:        339.808 ave         366 max         306 min
Histogram: 1 4 5 9 3 6 4 7 6 7
Nghost:        5536.58 ave        5651 max        5429 min
Histogram: 7 8 6 3 0 2 9 8 5 4
Neighs:       107888.0 ave      118228 max       96364 min
Histogram: 2 8 5 8 1 3 5 9 4 7

Total # of neighbors = 5610175
Ave neighs/atom = 317.49717
Ave special neighs/atom = 0.0000000
Neighbor list builds = 416
Dangerous builds = 0
11760 atoms in group oxygen
PPPM initialization ...
  using 12-bit tables for long-range coulomb (../kspace.cpp:328)
  G vector (1/distance) = 0.29897274
  grid = 40 240 40
  stencil order = 5
  estimated absolute RMS force accuracy = 0.00015479178
  estimated relative force accuracy = 1.0749694e-05
  using single precision MKL FFT
  3d grid and FFT values/proc = 18225 7600
Neighbor list info ...
  update every 1 steps, delay 0 steps, check yes
  max neighbors/atom: 2000, page size: 100000
  master list distance cutoff = 13
  ghost atom cutoff = 13
  binsize = 6.5, bins = 5 52 5
  3 neighbor lists, perpetual/occasional/extra = 3 0 0
  (1) pair coul/long, perpetual
      attributes: half, newton on
      pair build: half/bin/newton
      stencil: half/bin/3d/newton
      bin: standard
  (2) pair eam/alloy, perpetual, skip from (1)
      attributes: half, newton on
      pair build: skip
      stencil: none
      bin: none
  (3) pair table, perpetual, skip from (1)
      attributes: half, newton on
      pair build: skip
      stencil: none
      bin: none
Setting up Verlet run ...
  Unit style    : metal
  Current step  : 0
  Time step     : 0.001
Per MPI rank memory allocation (min/avg/max) = 9.474 | 10.21 | 10.29 Mbytes
Step f_2 Temp v_Tdiff v_deltaT 
       0            0    300.86686            0            0 
  100000    355.43097    299.03014 0.0076691281    89.037865 
  200000    709.83715    299.09681 0.0081097972    94.153993 
  300000    1064.2859    301.23121 0.0081080939    94.134217 
  400000     1416.315    297.58077 0.0079550605    92.357514 
  500000    1766.6614      301.834 0.0077679154    90.184777 
  600000    2123.1155     299.6605 0.0081181184      94.2506 
  700000    2476.4517    302.24125 0.0083331851    96.747506 
  800000    2830.3409     301.5626 0.0079576464    92.387536 
  900000    3189.4932     301.0553 0.0082197458    95.430486 
 1000000    3545.3962    302.16668 0.0079956044    92.828225 
Loop time of 7373.28 on 52 procs for 1000000 steps with 17670 atoms

Performance: 11.718 ns/day, 2.048 hours/ns, 135.625 timesteps/s
99.8% CPU use with 52 MPI tasks x 1 OpenMP threads

MPI task timing breakdown:
Section |  min time  |  avg time  |  max time  |%varavg| %total
---------------------------------------------------------------
Pair    | 5231.8     | 5401.6     | 5565.7     | 136.8 | 73.26
Bond    | 0.084198   | 0.13397    | 0.2417     |   7.1 |  0.00
Kspace  | 1524.8     | 1702.7     | 1875.1     | 227.5 | 23.09
Neigh   | 11.841     | 12.722     | 13.845     |  18.9 |  0.17
Comm    | 191.62     | 218.13     | 261.37     | 110.1 |  2.96
Output  | 0.0011438  | 0.001202   | 0.0023769  |   0.5 |  0.00
Modify  | 6.861      | 7.5015     | 8.7559     |  15.2 |  0.10
Other   |            | 30.51      |            |       |  0.41

Nlocal:        339.808 ave         365 max         312 min
Histogram: 3 5 9 6 2 5 5 4 7 6
Nghost:        5532.04 ave        5650 max        5433 min
Histogram: 8 7 6 3 2 4 8 8 2 4
Neighs:       107877.0 ave      118984 max       97345 min
Histogram: 8 5 8 3 0 5 6 7 3 7

Total # of neighbors = 5609586
Ave neighs/atom = 317.46384
Ave special neighs/atom = 0.0000000
Neighbor list builds = 4119
Dangerous builds = 0
Total wall time: 2:15:16
