ITEM: TIMESTEP
80000
ITEM: NUMBER OF ATOMS
17670
ITEM: BOX BOUNDS pp pp pp
-3.5619425180928499e-01 2.7696194251809803e+01
-4.1569090751759665e+00 3.3223690907516698e+02
-3.5703099003174760e-01 2.7697030990031955e+01
ITEM: ATOMS id type q x y z
1 2 2.2208 5.25683 1.32146 5.20287
2 1 -1.1104 1.02727 -2.83966 0.97286
3 1 -1.1104 0.851027 2.72184 1.00993
6 1 -1.1104 0.866392 -2.83639 3.75405
7 1 -1.1104 0.926732 2.79735 3.84202
10 1 -1.1104 0.944306 -0.0845578 0.79552
12 2 2.2208 5.04208 -1.46752 2.32346
13 2 2.2208 5.11394 4.08567 2.42595
14 1 -1.1104 0.937432 -0.0447555 3.66737
16 1 -1.1104 3.62613 -2.88148 0.990503
17 1 -1.1104 3.82518 2.78799 0.931909
18 2 2.2208 2.3963 1.44217 2.48445
19 1 -1.1104 3.61771 -2.88224 3.66079
20 1 -1.1104 3.75777 2.84138 3.6573
21 2 2.2208 2.22772 -1.30277 5.17664
22 2 2.2208 2.35401 4.12126 5.14938
23 1 -1.1104 3.66112 -0.0780444 1.0059
24 1 -1.1104 3.82479 0.145891 3.81682
5 1 -1.1104 6.55527 2.81042 0.983136
170 1 -1.1104 0.827212 0.0956508 6.44058
9 1 -1.1104 6.44592 2.76936 3.89124
168 1 -1.1104 6.3668 -2.90478 6.52989
8711 2 2.2208 13.6271 12.5991 2.48663
169 1 -1.1104 6.65476 2.6847 6.64701
17300 2 2.2208 13.6134 -4.04846 2.34041
174 1 -1.1104 3.67563 0.0244288 6.60116
172 1 -1.1104 3.56441 -2.73292 6.46711
171 1 -1.1104 6.47148 -0.0805786 6.52256
173 1 -1.1104 3.79346 2.72104 6.42033
8707 2 2.2208 13.5947 -1.46081 5.20311
8565 2 2.2208 -0.335574 4.15576 8.05316
53 1 -1.1104 12.1895 13.944 9.49717
4 1 -1.1104 6.50832 -2.91395 0.931055
15 1 -1.1104 6.89509 -0.071716 3.8103
11 1 -1.1104 6.39597 -0.17273 0.990895
8 1 -1.1104 6.30994 -2.64528 3.79065
7998 2 2.2208 7.86038 -4.16459 2.36359
8004 2 2.2208 10.7131 -4.15736 10.7851
31 2 2.2208 10.8217 1.30423 5.14031
32 1 -1.1104 12.1571 -2.83065 0.91069
33 1 -1.1104 12.0985 2.617 0.916717
34 1 -1.1104 12.1822 -2.94191 3.8032
35 1 -1.1104 12.0831 2.69929 3.60775
36 1 -1.1104 12.1892 -0.0537441 0.924097
37 2 2.2208 10.7688 -1.36774 2.384
38 2 2.2208 10.691 4.1001 2.1463
39 1 -1.1104 12.3049 -0.190522 3.67226
40 1 -1.1104 9.46646 -2.7802 1.13656
41 1 -1.1104 9.10537 2.62377 0.895263
42 2 2.2208 7.88926 1.37099 2.49192
43 1 -1.1104 9.31991 -2.97142 3.79529
44 1 -1.1104 9.30274 2.8688 3.74524
45 2 2.2208 7.88577 -1.53533 5.16157
46 2 2.2208 8.13789 4.21383 5.23865
47 1 -1.1104 9.28052 -0.146096 0.984751
48 1 -1.1104 9.57629 0.0344588 3.65685
207 1 -1.1104 12.1257 -0.0719302 6.53593
208 1 -1.1104 9.34341 -2.64945 6.47776
8615 2 2.2208 13.5621 6.95655 8.05456
136 1 -1.1104 9.38759 13.9175 12.3019
50 1 -1.1104 12.2663 19.6961 12.3524
311 2 2.2208 10.7983 -1.42731 13.582
8003 2 2.2208 7.89303 -4.15253 7.97142
8502 2 2.2208 13.6276 15.4411 5.19028
8017 2 2.2208 2.15184 -4.06345 13.6372
54 2 2.2208 5.04562 6.90679 5.20363
55 2 2.2208 5.29602 12.5692 5.20298
56 1 -1.1104 1.03638 8.60421 1.0657
58 1 -1.1104 1.00948 8.48248 3.73472
60 1 -1.1104 0.894528 5.68076 0.897564
61 1 -1.1104 0.962436 11.2848 1.03615
66 2 2.2208 5.20765 9.834 2.40996
67 1 -1.1104 0.985022 5.53737 3.9052
68 1 -1.1104 0.83004 11.1829 3.86254
71 1 -1.1104 3.85216 8.34037 0.985675
72 2 2.2208 2.30278 7.00477 2.30915
73 2 2.2208 2.38421 12.5391 2.41777
74 1 -1.1104 3.7509 8.3559 3.70273
75 2 2.2208 2.43217 9.84033 5.17517
76 1 -1.1104 3.83455 5.608 0.966865
77 1 -1.1104 3.77198 11.3039 1.00361
79 1 -1.1104 3.66029 5.47663 3.73199
80 1 -1.1104 3.84159 11.1515 3.77725
63 1 -1.1104 6.61928 5.55472 1.022
64 1 -1.1104 6.50183 11.2458 0.94559
236 1 -1.1104 1.06745 5.53387 6.63869
57 1 -1.1104 6.48646 8.34385 0.86151
70 1 -1.1104 6.62981 11.1866 3.66012
59 1 -1.1104 6.73741 8.37804 3.75303
69 1 -1.1104 6.427 5.56834 3.94836
238 1 -1.1104 3.58747 8.20556 6.50227
234 1 -1.1104 0.843992 8.40526 6.70222
239 1 -1.1104 3.73404 5.52391 6.61576
237 1 -1.1104 6.56947 5.37298 6.5937
65 1 -1.1104 6.59234 11.241 6.49093
8616 2 2.2208 13.5907 12.6155 8.11279
316 2 2.2208 7.86051 7.03615 13.6223
84 2 2.2208 10.7668 6.96578 5.19956
85 2 2.2208 10.7651 12.4962 5.162
86 1 -1.1104 12.2098 8.30899 1.05439
87 1 -1.1104 12.2002 8.34175 3.91811
88 1 -1.1104 12.206 5.42901 0.809207
89 1 -1.1104 12.2318 11.1345 1.06442
91 2 2.2208 10.781 9.7392 2.44304
92 1 -1.1104 12.3541 5.46223 3.60617
93 1 -1.1104 12.1556 11.1092 3.72513
94 1 -1.1104 9.22204 8.39911 1.02726
95 2 2.2208 8.0143 6.9358 2.26856
96 2 2.2208 7.98513 12.6172 2.38363
97 1 -1.1104 9.45597 8.30288 3.82293
98 2 2.2208 8.01292 9.71703 5.13443
99 1 -1.1104 9.40064 5.63851 0.736592
100 1 -1.1104 9.29484 11.1092 0.965044
102 1 -1.1104 9.4596 5.54935 3.78712
103 1 -1.1104 9.43173 11.1726 3.79251
8432 2 2.2208 13.54 -1.39372 10.6805
267 1 -1.1104 9.28848 8.32445 6.58715
8433 2 2.2208 13.6171 9.82268 5.15111
8600 2 2.2208 -0.18288 18.0191 5.1562
8405 2 2.2208 -0.31681 15.2644 7.98737
8712 2 2.2208 13.6025 6.90409 2.45203
8539 2 2.2208 13.5928 4.18463 10.8332
106 2 2.2208 5.12495 18.1836 5.19831
107 1 -1.1104 0.869053 14.0231 1.09335
109 1 -1.1104 0.942176 19.6024 0.912886
113 1 -1.1104 0.98111 13.8341 3.79191
114 1 -1.1104 1.06692 19.5257 3.81487
116 1 -1.1104 0.983227 16.8164 0.899487
119 2 2.2208 5.03369 15.4426 2.45936
120 2 2.2208 5.27328 20.9675 2.3797
121 1 -1.1104 1.0369 16.8104 3.62806
123 1 -1.1104 3.68056 14.0998 1.02961
125 1 -1.1104 3.76099 19.6105 1.01857
127 2 2.2208 2.3282 18.2667 2.30943
128 1 -1.1104 3.75262 13.9637 3.77218
129 1 -1.1104 3.91737 19.4993 3.79274
130 2 2.2208 2.39357 15.3474 5.08131
131 2 2.2208 2.4782 20.9865 5.25069
132 1 -1.1104 3.75743 16.8571 0.97196
134 1 -1.1104 3.64276 16.8826 3.78788
115 1 -1.1104 6.51745 13.9736 3.76696
302 1 -1.1104 1.01363 19.4112 6.569
112 1 -1.1104 6.56229 19.6093 6.61917
117 1 -1.1104 1.13338 16.699 6.5204
133 1 -1.1104 3.7964 16.7266 6.51022
111 1 -1.1104 6.643 14.0278 6.53632
138 1 -1.1104 6.5999 19.8429 0.964104
49 1 -1.1104 12.2761 13.8986 12.3029
8406 2 2.2208 -0.248636 18.1233 10.7792
110 1 -1.1104 6.50477 14.1471 0.965661
139 1 -1.1104 6.56657 19.4494 3.84847
140 1 -1.1104 6.50105 17.1446 1.00631
122 1 -1.1104 6.42921 16.6297 3.87652
141 2 2.2208 10.7839 18.0655 5.31691
142 1 -1.1104 12.2364 14.0056 1.06854
144 1 -1.1104 12.2413 19.4617 1.03601
146 1 -1.1104 12.1519 13.8234 3.74283
147 1 -1.1104 12.1228 19.5169 3.90597
148 1 -1.1104 12.3086 16.6927 0.907402
150 2 2.2208 10.7293 15.235 2.47772
151 2 2.2208 10.8612 21.062 2.4911
152 1 -1.1104 12.1672 16.7284 3.72673
153 1 -1.1104 9.32428 13.8934 1.08042
155 1 -1.1104 9.39619 19.5796 1.06689
157 2 2.2208 8.02302 18.0718 2.43203
158 1 -1.1104 9.28763 13.9241 3.87032
159 1 -1.1104 9.30153 19.4654 3.80545
160 2 2.2208 7.82781 15.3769 5.2188
161 2 2.2208 8.01014 20.8948 5.2319
162 1 -1.1104 9.36034 16.7147 1.01531
164 1 -1.1104 9.33879 16.7461 3.80363
145 1 -1.1104 12.2151 19.5248 6.66387
149 1 -1.1104 12.2963 16.6933 6.63656
288 1 -1.1104 6.67378 19.6461 9.40541
156 1 -1.1104 9.49276 19.4695 6.70144
154 1 -1.1104 9.32079 13.9845 6.64094
165 2 2.2208 7.94636 18.2368 8.04473
230 2 2.2208 8.02325 15.3212 10.8048
306 2 2.2208 5.13762 4.2295 13.5165
137 1 -1.1104 9.45793 19.6119 12.351
30 2 2.2208 8.14422 20.9094 10.9692
166 1 -1.1104 0.956738 -2.68538 6.63044
167 1 -1.1104 0.92819 2.78562 6.57472
175 2 2.2208 5.2894 1.38469 10.7394
176 1 -1.1104 0.871114 -2.80434 12.1217
177 1 -1.1104 1.07869 2.72443 12.2384
180 1 -1.1104 0.940621 -2.85801 9.50011
181 1 -1.1104 1.00965 2.71279 9.43154
184 1 -1.1104 0.919911 -0.0856743 12.1141
186 2 2.2208 5.07337 -1.40308 8.00395
187 2 2.2208 5.11902 4.17019 7.9519
188 1 -1.1104 1.12101 -0.130991 9.2477
190 1 -1.1104 3.81314 -2.79472 12.1391
191 1 -1.1104 3.88915 2.86477 12.0079
192 2 2.2208 2.38277 1.33762 7.91694
193 1 -1.1104 3.7951 -2.65439 9.36289
194 1 -1.1104 3.73568 2.8145 9.16733
195 2 2.2208 2.34815 -1.4577 10.6968
196 2 2.2208 2.31713 4.21287 10.7141
197 1 -1.1104 3.88469 -0.0880653 12.2813
198 1 -1.1104 3.79968 -0.0589309 9.47654
185 1 -1.1104 6.57972 0.134983 12.1249
183 1 -1.1104 6.55985 2.87251 9.49904
182 1 -1.1104 6.55775 -2.80434 9.34907
163 1 -1.1104 9.40177 16.7647 6.58277
28 1 -1.1104 9.34462 16.8998 9.45025
143 1 -1.1104 12.2549 13.8867 6.72266
8481 2 2.2208 13.5428 20.9027 5.22087
206 1 -1.1104 12.1859 2.78154 6.45223
209 1 -1.1104 9.45511 2.86374 6.48353
312 2 2.2208 10.6591 4.20102 13.5443
205 1 -1.1104 12.1186 -2.87371 6.60498
210 1 -1.1104 9.49634 -0.033406 6.54308
229 1 -1.1104 9.47426 19.7034 9.46825
189 1 -1.1104 6.5638 0.0760757 9.34902
178 1 -1.1104 6.51052 -2.86719 12.3314
179 1 -1.1104 6.61068 2.93246 12.2506
211 2 2.2208 10.706 1.38556 10.7485
212 1 -1.1104 12.1322 -2.82693 12.1635
213 1 -1.1104 12.2264 2.70232 12.2217
214 1 -1.1104 12.0749 -2.79821 9.35734
215 1 -1.1104 12.2037 2.80848 9.25422
216 1 -1.1104 12.0617 -0.0946946 11.9639
217 2 2.2208 10.8361 -1.37256 7.96227
218 2 2.2208 10.7024 4.14792 8.01443
219 1 -1.1104 12.0383 0.0365462 9.34629
220 1 -1.1104 9.37781 -2.77113 12.1406
221 1 -1.1104 9.44464 2.81732 12.2164
222 2 2.2208 7.93138 1.33947 7.9004
223 1 -1.1104 9.26825 -2.82411 9.28605
224 1 -1.1104 9.4351 2.91356 9.44878
225 2 2.2208 7.90729 -1.41129 10.8147
226 2 2.2208 7.91422 4.26253 10.8366
227 1 -1.1104 9.32721 -0.0033786 12.1888
228 1 -1.1104 9.29301 0.0213991 9.39692
8704 2 2.2208 13.6782 15.4806 10.83
27 2 2.2208 10.8774 18.2073 10.9075
78 1 -1.1104 3.76953 11.1458 6.53841
235 1 -1.1104 6.45807 8.37975 6.56657
305 2 2.2208 2.54903 1.38919 13.5027
313 2 2.2208 2.48504 6.93058 13.6319
8620 2 2.2208 13.5617 9.79668 10.8622
62 1 -1.1104 0.940306 11.1297 6.67532
240 2 2.2208 5.09959 7.02396 10.79
241 2 2.2208 5.24903 12.6071 10.8231
242 1 -1.1104 0.910465 8.35196 12.1835
244 1 -1.1104 0.93879 8.41539 9.43718
246 1 -1.1104 0.954456 5.50137 12.1836
247 1 -1.1104 0.911222 11.3082 12.2942
250 2 2.2208 5.23988 9.8091 7.99091
251 1 -1.1104 0.926648 5.60384 9.32022
252 1 -1.1104 1.0048 11.3498 9.44921
255 1 -1.1104 3.63953 8.55028 12.2617
256 2 2.2208 2.30132 6.97402 8.08686
257 2 2.2208 2.3925 12.5563 8.0794
258 1 -1.1104 3.68095 8.38192 9.42176
259 2 2.2208 2.30098 9.94041 10.7594
260 1 -1.1104 3.64732 5.71902 12.143
261 1 -1.1104 3.7092 11.3684 12.1404
262 1 -1.1104 3.79466 5.58421 9.27672
263 1 -1.1104 3.86009 11.2339 9.34063
310 2 2.2208 7.96525 1.45907 13.535
90 1 -1.1104 12.1717 11.1054 6.60905
269 1 -1.1104 9.42532 5.69366 6.61369
265 1 -1.1104 12.1756 8.30099 6.64023
8564 2 2.2208 13.4507 1.41695 7.96066
296 1 -1.1104 6.75257 19.5416 12.1716
266 1 -1.1104 12.1905 5.44162 6.55474
101 1 -1.1104 9.28628 11.1166 6.58952
245 1 -1.1104 6.48761 8.48717 9.40546
254 1 -1.1104 6.60213 11.1198 9.34727
253 1 -1.1104 6.55628 5.61366 9.38898
248 1 -1.1104 6.34308 5.74306 12.1231
249 1 -1.1104 6.47285 11.0855 12.255
243 1 -1.1104 6.54377 8.45698 12.2922
264 1 -1.1104 9.33771 11.2825 9.42993
268 1 -1.1104 9.19189 5.53444 9.31039
270 1 -1.1104 9.34034 11.0721 12.1812
271 1 -1.1104 9.27091 5.62142 12.1358
272 2 2.2208 7.95963 9.80538 10.7944
273 1 -1.1104 9.36536 8.43035 9.32892
274 2 2.2208 7.93485 12.5596 7.9541
275 2 2.2208 7.85606 7.00941 7.9991
276 2 2.2208 10.7341 7.04254 10.8517
277 2 2.2208 10.798 12.4748 10.7816
278 1 -1.1104 12.1775 8.24731 12.1971
279 1 -1.1104 12.1595 8.45446 9.41131
280 1 -1.1104 12.1681 5.51947 12.2023
281 1 -1.1104 12.2054 11.0831 12.232
282 2 2.2208 10.856 9.73283 7.9857
283 1 -1.1104 12.1389 5.66784 9.45209
284 1 -1.1104 12.3 11.2134 9.38133
285 1 -1.1104 9.34584 8.32718 12.2514
135 1 -1.1104 12.2586 16.8283 9.41265
204 1 -1.1104 6.80252 16.7982 12.2539
118 1 -1.1104 6.71402 16.7902 6.73875
108 1 -1.1104 0.967493 13.8902 6.46549
124 1 -1.1104 3.83103 13.9128 6.58013
29 1 -1.1104 9.43776 16.6323 12.0311
297 1 -1.1104 6.63477 14.0494 12.2294
126 1 -1.1104 3.76898 19.676 6.64245
290 1 -1.1104 6.70855 14.0027 9.45303
301 1 -1.1104 3.85662 19.5635 9.42915
51 2 2.2208 2.42309 15.4867 10.802
52 2 2.2208 2.34792 20.9556 10.7749
202 1 -1.1104 3.86038 16.7228 12.16
203 1 -1.1104 1.0504 16.9207 12.2989
231 1 -1.1104 3.83153 13.9556 9.35722
232 1 -1.1104 3.83308 16.8131 9.39316
233 2 2.2208 2.46468 18.1531 7.99052
286 1 -1.1104 3.75851 19.5694 12.0984
287 1 -1.1104 3.78082 14.105 12.2263
291 1 -1.1104 0.949108 19.6635 9.37713
292 1 -1.1104 1.05753 16.7183 9.29747
293 2 2.2208 5.26704 20.9858 7.92794
294 1 -1.1104 1.04093 13.978 9.46846
295 2 2.2208 5.1966 15.4112 8.04236
298 1 -1.1104 1.06405 19.6357 12.3003
299 1 -1.1104 1.0549 14.0957 12.2145
300 2 2.2208 5.28359 18.2457 10.8305
289 1 -1.1104 6.5585 16.7744 9.39594
81 1 -1.1104 12.3215 19.6306 9.45225
83 1 -1.1104 12.0993 16.7219 12.2722
199 1 -1.1104 9.46949 14.1007 9.40147
104 2 2.2208 10.7819 15.4154 7.9951
105 2 2.2208 10.9452 21.0562 8.05056
8731 2 2.2208 13.5922 12.7285 13.6268
8666 2 2.2208 13.5747 21.1307 10.8199
8706 2 2.2208 13.6619 1.38889 2.40884
8404 2 2.2208 13.543 4.1365 5.13258
8705 2 2.2208 13.6129 18.1519 8.09369
8599 2 2.2208 13.6399 18.1242 2.40171
8729 2 2.2208 13.628 6.94437 13.4907
321 2 2.2208 5.27595 15.2661 13.5677
630 2 2.2208 5.13632 12.6165 -0.355539
326 2 2.2208 10.8395 12.5751 -0.288606
8743 2 2.2208 -0.346298 15.5107 13.5646
319 2 2.2208 2.4501 18.2391 13.5299
330 2 2.2208 5.18147 18.2628 -0.362678
331 2 2.2208 2.39787 21.0546 -0.276013
332 2 2.2208 5.21208 6.77569 -0.343188
327 2 2.2208 7.90376 9.75771 -0.347148
309 2 2.2208 8.15063 20.9313 -0.320797
320 2 2.2208 5.20381 20.8788 13.6241
325 2 2.2208 2.34425 4.18838 -0.264352
336 2 2.2208 5.27663 1.40054 16.3247
337 1 -1.1104 1.02855 -2.79973 17.6594
338 1 -1.1104 1.00761 2.93684 17.7571
341 1 -1.1104 0.985617 -2.74377 14.8802
343 1 -1.1104 1.07569 2.6772 15.0314
349 1 -1.1104 0.978577 -0.0218135 17.8198
351 2 2.2208 5.2003 -1.46485 19.1968
352 2 2.2208 5.15813 4.13295 19.2097
353 1 -1.1104 0.793403 -0.128556 15.001
357 1 -1.1104 3.73954 -2.88566 17.8093
358 1 -1.1104 3.81709 2.77895 17.776
359 2 2.2208 2.40815 1.39707 19.1798
360 1 -1.1104 3.97229 -2.74981 15.0236
362 1 -1.1104 3.89053 2.80535 14.8489
364 2 2.2208 2.34489 -1.42563 16.3716
365 2 2.2208 2.32684 4.22507 16.4039
366 1 -1.1104 3.79384 -0.103091 17.6929
367 1 -1.1104 3.67214 0.0281869 15.0525
9004 2 2.2208 13.5184 -1.41978 27.6615
345 1 -1.1104 6.68865 -2.86996 15.1399
346 1 -1.1104 6.63153 -2.78344 20.6916
361 1 -1.1104 3.67393 -2.76982 20.5212
329 2 2.2208 2.30042 15.3596 27.695
350 1 -1.1104 6.60575 0.0483451 17.9657
340 1 -1.1104 6.5543 2.8605 17.6736
8086 2 2.2208 2.17642 -4.11973 24.8678
8790 2 2.2208 -0.31184 1.36346 27.5251
563 2 2.2208 5.19719 1.45576 27.5933
370 1 -1.1104 9.63292 16.6863 23.3891
363 1 -1.1104 3.75579 2.8067 20.5281
348 1 -1.1104 6.58861 2.82139 20.5595
8860 2 2.2208 13.6488 6.99684 19.1424
8825 2 2.2208 -0.281785 15.3673 24.6673
17381 2 2.2208 13.4261 -4.14401 24.8079
339 1 -1.1104 6.61631 -2.79781 17.9241
603 1 -1.1104 12.366 16.8147 26.0867
633 2 2.2208 -0.32372 12.3902 22.0572
355 1 -1.1104 6.526 0.0131409 15.0664
347 1 -1.1104 6.59976 2.77483 14.8739
379 2 2.2208 10.7426 1.22066 16.4792
380 1 -1.1104 12.2313 -2.80794 17.6085
381 1 -1.1104 12.0918 2.82542 17.8095
382 1 -1.1104 12.2929 -2.66035 14.9257
384 1 -1.1104 12.0933 2.81843 14.893
386 1 -1.1104 12.2107 0.0589457 17.8279
387 2 2.2208 10.7565 -1.41836 19.3515
388 2 2.2208 10.8097 4.09092 19.2363
389 1 -1.1104 12.1834 0.0393833 14.861
391 1 -1.1104 9.46263 -2.84752 17.9439
392 1 -1.1104 9.27096 2.53493 17.6914
393 2 2.2208 7.95449 1.28135 19.1994
394 1 -1.1104 9.40081 -2.86474 15.0147
396 1 -1.1104 9.33041 2.81129 14.9846
398 2 2.2208 8.01908 -1.44281 16.5071
400 1 -1.1104 9.41095 -0.107479 17.7649
401 1 -1.1104 9.24166 -0.0185374 15.1256
399 2 2.2208 7.9824 4.00756 16.3595
383 1 -1.1104 12.2217 -2.73274 20.5077
372 2 2.2208 -0.32516 1.42334 16.4411
8785 2 2.2208 13.4864 4.15553 16.2548
356 1 -1.1104 6.50698 -0.0775752 20.7734
385 1 -1.1104 12.2536 2.76089 20.7088
402 1 -1.1104 9.22701 -0.226815 20.6731
371 1 -1.1104 9.54109 16.8706 26.1013
374 1 -1.1104 6.57564 16.6327 23.3877
593 2 2.2208 10.6989 1.27429 27.6853
412 2 2.2208 5.23673 6.9987 16.4647
413 2 2.2208 5.17465 12.5548 16.4611
414 1 -1.1104 0.976666 8.43553 17.7989
416 1 -1.1104 1.03238 8.35089 14.8529
420 1 -1.1104 0.963154 5.77901 17.8539
421 1 -1.1104 0.918164 11.0691 17.6673
424 2 2.2208 5.18587 9.701 19.2305
425 1 -1.1104 0.99996 5.50256 15.0281
427 1 -1.1104 0.966218 11.0948 15.0425
433 1 -1.1104 3.76186 8.42541 17.7826
434 2 2.2208 2.39287 7.02954 19.1529
435 2 2.2208 2.45962 12.6287 19.2393
436 1 -1.1104 3.78376 8.27738 15.0488
438 2 2.2208 2.4748 9.77398 16.352
439 1 -1.1104 3.87324 5.62979 17.8201
440 1 -1.1104 3.83806 11.1156 17.9173
441 1 -1.1104 3.80964 5.49417 14.9374
443 1 -1.1104 3.89364 11.2028 15.0793
423 1 -1.1104 6.61326 11.3023 17.8672
430 1 -1.1104 6.68636 5.7435 20.7222
422 1 -1.1104 6.63183 5.66873 17.8342
415 1 -1.1104 6.67315 8.33251 17.8775
536 1 -1.1104 9.56635 19.5203 23.5203
428 1 -1.1104 1.0014 11.1264 20.5827
444 1 -1.1104 3.75825 11.0879 20.6647
429 1 -1.1104 6.60431 5.56675 14.949
431 1 -1.1104 6.62572 11.1821 15.1011
418 1 -1.1104 6.60361 8.38983 15.1408
448 2 2.2208 10.8197 6.95611 16.2637
449 2 2.2208 10.7828 12.4866 16.4319
450 1 -1.1104 12.2423 8.41789 17.7741
451 1 -1.1104 12.3015 8.49285 15.0004
453 1 -1.1104 12.3163 5.59586 17.649
454 1 -1.1104 12.2589 11.2271 17.8125
455 2 2.2208 10.9918 9.8395 19.2186
456 1 -1.1104 12.0884 5.62413 14.8423
458 1 -1.1104 12.3018 11.2031 15.0076
460 1 -1.1104 9.50216 8.32239 17.7119
461 2 2.2208 8.14958 6.98427 19.155
462 2 2.2208 8.01602 12.5515 19.3806
463 1 -1.1104 9.4947 8.32157 14.9828
465 2 2.2208 8.02334 9.6982 16.4743
466 1 -1.1104 9.45723 5.41267 17.6422
467 1 -1.1104 9.39897 11.1077 17.9486
468 1 -1.1104 9.32441 5.45334 14.8984
470 1 -1.1104 9.47525 11.109 15.0839
459 1 -1.1104 12.3334 11.151 20.6857
469 1 -1.1104 9.49748 5.62615 20.5021
571 1 -1.1104 12.2355 19.6137 23.5085
471 1 -1.1104 9.62153 11.1113 20.6681
457 1 -1.1104 12.3355 5.56979 20.4307
464 1 -1.1104 9.5205 8.40197 20.4781
333 2 2.2208 2.50057 9.77665 27.5914
406 1 -1.1104 6.74083 19.5864 26.3309
475 2 2.2208 5.3446 18.2729 16.5642
476 1 -1.1104 0.948659 13.832 17.92
477 1 -1.1104 1.13379 19.5526 17.9212
480 1 -1.1104 0.986348 13.9931 15.0672
482 1 -1.1104 1.13317 19.5384 15.0699
488 1 -1.1104 0.950381 16.7209 17.9055
490 2 2.2208 5.25422 15.4707 19.3309
491 2 2.2208 5.39267 20.9224 19.2694
492 1 -1.1104 1.04119 16.8192 15.0697
496 1 -1.1104 3.89515 14.04 17.8431
497 1 -1.1104 3.99046 19.5514 17.8515
498 2 2.2208 2.51349 18.2555 19.1779
499 1 -1.1104 3.7216 13.9345 15.0584
501 1 -1.1104 3.91764 19.5281 15.0411
503 2 2.2208 2.43331 15.4027 16.523
504 2 2.2208 2.44974 20.8885 16.4958
505 1 -1.1104 3.83761 16.769 17.7389
506 1 -1.1104 3.89058 16.7967 15.0521
507 1 -1.1104 3.87582 16.91 20.5712
483 1 -1.1104 1.17022 19.6628 20.5856
478 1 -1.1104 6.59641 14.1487 17.8647
489 1 -1.1104 6.79754 16.8454 17.9521
494 1 -1.1104 6.7602 16.7225 15.0642
495 1 -1.1104 6.5578 16.65 20.7257
486 1 -1.1104 6.69526 19.512 15.0442
479 1 -1.1104 6.72101 19.6695 17.8495
485 1 -1.1104 6.62347 14.0336 20.717
502 1 -1.1104 3.84836 19.7015 20.6074
594 2 2.2208 7.84532 -1.45412 27.5819
600 1 -1.1104 12.5239 16.8838 23.387
324 2 2.2208 8.11708 18.1149 13.7733
601 2 2.2208 10.9981 15.4292 24.8086
484 1 -1.1104 6.60741 13.9593 14.9971
511 2 2.2208 10.9468 18.0595 16.5137
512 1 -1.1104 12.2828 13.8595 17.8397
513 1 -1.1104 12.267 19.4522 17.8918
514 1 -1.1104 12.2326 13.9626 15.0963
516 1 -1.1104 12.3339 19.5833 15.1426
518 1 -1.1104 12.2778 16.5911 17.8509
519 2 2.2208 10.8645 15.3542 19.2439
520 2 2.2208 10.8831 21.0303 19.2644
521 1 -1.1104 12.3262 16.805 14.9607
523 1 -1.1104 9.36832 13.8866 17.8809
524 1 -1.1104 9.52197 19.5108 17.8611
525 2 2.2208 8.14479 18.1708 19.2202
526 1 -1.1104 9.36559 13.8638 15.1794
528 1 -1.1104 9.52201 19.4165 15.1853
530 2 2.2208 8.00333 15.2543 16.4541
531 2 2.2208 8.18056 20.9751 16.4606
532 1 -1.1104 9.39552 16.6117 17.776
533 1 -1.1104 9.51408 16.6745 14.9296
522 1 -1.1104 12.3698 16.8594 20.5606
517 1 -1.1104 12.188 19.5625 20.6325
515 1 -1.1104 12.2023 14.0871 20.6415
446 1 -1.1104 6.68695 19.5333 23.5743
8977 2 2.2208 13.4998 1.30215 24.6885
9051 2 2.2208 13.6387 9.81265 22.1809
404 1 -1.1104 9.6024 19.5244 26.3553
537 1 -1.1104 9.58283 14.0263 23.5008
535 2 2.2208 8.12319 18.1842 24.9333
354 1 -1.1104 1.03016 0.0732622 20.5495
344 1 -1.1104 0.886042 2.87038 20.7504
368 1 -1.1104 3.92188 -0.0179378 20.366
342 1 -1.1104 0.943699 -2.86458 20.3927
539 2 2.2208 5.16715 1.4268 21.9207
540 1 -1.1104 0.767806 -2.80871 23.3347
541 1 -1.1104 0.910031 2.68909 23.4394
544 1 -1.1104 0.718226 -2.7306 26.1417
545 1 -1.1104 1.08318 2.79576 26.2813
548 1 -1.1104 0.793821 -0.0981044 23.2485
550 2 2.2208 5.08609 -1.33714 24.8689
552 1 -1.1104 1.08367 0.0262939 26.0377
554 1 -1.1104 3.48762 -2.76842 23.4299
555 1 -1.1104 3.85121 2.67525 23.3587
556 2 2.2208 2.34413 1.39811 24.7602
557 1 -1.1104 3.66131 -2.72805 26.0975
558 1 -1.1104 3.79226 2.83572 26.1284
559 2 2.2208 2.23199 -1.40126 21.9868
560 2 2.2208 2.43722 4.15145 22.0276
561 1 -1.1104 3.79125 -0.0450686 23.2868
562 1 -1.1104 3.84858 0.0958104 26.1325
543 1 -1.1104 6.67048 2.87144 23.3663
551 2 2.2208 5.21284 4.06349 24.7798
410 1 -1.1104 6.67792 13.8454 23.5109
538 2 2.2208 10.9783 18.2684 22.1138
8786 2 2.2208 13.6225 -1.35715 16.3825
328 2 2.2208 10.87 6.93712 27.557
566 1 -1.1104 12.3295 14.0361 23.4564
553 1 -1.1104 6.63322 0.0360948 26.1995
547 1 -1.1104 6.56395 2.80003 26.1316
390 1 -1.1104 12.0398 0.0347434 20.5671
395 1 -1.1104 9.40346 -2.99768 20.7996
549 1 -1.1104 6.60231 0.0416195 23.4118
542 1 -1.1104 6.29465 -2.91775 23.4001
397 1 -1.1104 9.3632 2.71619 20.5383
546 1 -1.1104 6.40306 -2.76099 26.1323
575 2 2.2208 10.8634 1.3458 22.0173
576 1 -1.1104 12.2187 -2.84696 23.2124
577 1 -1.1104 12.214 2.78776 23.4229
578 1 -1.1104 12.1009 -2.68025 26.1043
579 1 -1.1104 12.173 2.67397 26.1041
580 1 -1.1104 12.1198 -0.149027 23.297
581 2 2.2208 10.6761 -1.46664 24.8092
583 1 -1.1104 12.0937 -0.0508449 26.2118
584 1 -1.1104 9.27159 -2.83029 23.6025
585 1 -1.1104 9.39717 2.84065 23.3066
586 2 2.2208 8.07984 1.32328 24.7152
587 1 -1.1104 9.31431 -2.8242 26.4236
588 1 -1.1104 9.4268 2.75915 26.0355
589 2 2.2208 7.9226 -1.50893 22.1815
590 2 2.2208 7.87798 4.30432 21.9468
591 1 -1.1104 9.37099 0.0426863 23.3882
592 1 -1.1104 9.37293 -0.0166306 26.1685
582 2 2.2208 10.8187 4.18467 24.81
9002 2 2.2208 13.5831 -1.40885 21.8756
8975 2 2.2208 13.5323 12.4919 24.9058
564 2 2.2208 2.33587 -1.38096 27.5374
426 1 -1.1104 1.14054 5.45945 20.6672
417 1 -1.1104 1.03254 8.32762 20.7363
437 1 -1.1104 3.72068 8.25669 20.7184
442 1 -1.1104 3.93942 5.48692 20.5715
604 2 2.2208 5.19201 6.96935 22.0925
605 2 2.2208 5.28091 12.6255 22.1248
606 1 -1.1104 1.13127 8.41961 23.4245
608 1 -1.1104 0.948708 8.43748 26.2738
610 1 -1.1104 0.966627 5.41306 23.4549
611 1 -1.1104 0.85729 11.1918 23.6511
614 2 2.2208 5.21777 9.86458 24.6923
615 1 -1.1104 0.934023 5.71931 26.2656
616 1 -1.1104 0.815448 11.2364 26.2732
619 1 -1.1104 3.74248 8.34006 23.3722
620 2 2.2208 2.41271 6.9409 24.8517
621 2 2.2208 2.36047 12.6326 24.7954
622 1 -1.1104 3.77004 8.56938 26.1255
623 2 2.2208 2.38061 9.70927 22.1042
624 1 -1.1104 3.89284 5.57368 23.4349
625 1 -1.1104 3.7106 11.2974 23.2847
626 1 -1.1104 3.74806 5.57668 26.2396
627 1 -1.1104 3.70079 11.3271 26.0837
618 1 -1.1104 6.53827 11.1799 26.2914
432 1 -1.1104 6.62975 11.1958 20.6507
612 1 -1.1104 6.73754 5.64097 23.4433
607 1 -1.1104 6.75074 8.23662 23.3991
613 1 -1.1104 6.66866 11.1546 23.4362
609 1 -1.1104 6.70139 8.42938 26.1241
369 2 2.2208 8.18075 21.017 22.133
419 1 -1.1104 6.64612 8.43634 20.5591
596 1 -1.1104 12.3501 19.5735 26.1201
8784 2 2.2208 -0.344817 21.0772 24.7299
617 1 -1.1104 6.52931 5.62645 26.2982
452 1 -1.1104 12.3552 8.30684 20.5527
565 1 -1.1104 9.3853 8.44796 23.223
567 1 -1.1104 12.1175 11.1084 26.2452
568 1 -1.1104 12.2596 5.48277 25.9646
569 2 2.2208 10.7995 9.67137 24.7513
628 1 -1.1104 12.222 11.2223 23.3752
629 1 -1.1104 12.2712 5.78615 23.3697
631 1 -1.1104 12.3464 8.29746 26.228
634 1 -1.1104 12.1795 8.45058 23.5821
635 1 -1.1104 9.41527 11.2005 26.1696
636 1 -1.1104 9.30476 5.50434 26.1287
637 1 -1.1104 9.475 11.2763 23.4449
638 1 -1.1104 9.45233 5.59569 23.2901
639 2 2.2208 8.13841 9.75733 21.9878
640 1 -1.1104 9.45155 8.30063 26.2149
641 2 2.2208 7.98707 12.512 24.95
642 2 2.2208 8.00911 6.99067 24.841
643 2 2.2208 10.6946 6.97674 21.9255
644 2 2.2208 10.9064 12.5669 21.9409
527 1 -1.1104 9.45478 13.8499 20.6957
8791 2 2.2208 13.4892 1.42217 19.2653
375 2 2.2208 8.10291 15.2983 22.0573
500 1 -1.1104 3.81879 14.0369 20.7193
493 1 -1.1104 0.95129 16.7886 20.7064
509 1 -1.1104 6.54995 13.9168 26.3347
529 1 -1.1104 9.53865 19.6926 20.6869
481 1 -1.1104 0.988294 13.9148 20.6795
473 1 -1.1104 1.07811 19.7631 26.2384
570 2 2.2208 2.41247 15.4051 22.1939
510 1 -1.1104 3.86487 19.5862 23.4524
508 1 -1.1104 3.68189 14.0944 23.5659
597 2 2.2208 2.51637 21.0771 22.011
599 1 -1.1104 1.1036 16.7946 23.3772
598 1 -1.1104 3.85615 16.8202 23.5211
376 1 -1.1104 3.78377 13.9509 26.4157
377 1 -1.1104 3.88445 16.7357 26.3542
378 2 2.2208 2.52621 18.2471 24.8945
403 1 -1.1104 3.89331 19.6321 26.0979
407 2 2.2208 5.2293 18.1854 22.0215
408 1 -1.1104 0.934957 13.9611 23.3275
409 1 -1.1104 1.15546 19.4445 23.4882
411 2 2.2208 5.27699 15.461 24.8797
445 2 2.2208 5.34669 21.0285 24.8598
447 1 -1.1104 1.06167 13.9668 26.1657
472 1 -1.1104 1.02224 16.8569 26.1955
487 1 -1.1104 6.68792 19.3685 20.7543
602 2 2.2208 10.9714 21.0416 24.8435
474 1 -1.1104 6.6792 16.7749 26.2166
405 1 -1.1104 9.5227 14.1091 26.4282
572 1 -1.1104 12.2381 14.1054 26.3363
534 1 -1.1104 9.38442 16.8359 20.6723
307 2 2.2208 8.0539 15.4157 27.6372
314 2 2.2208 5.23971 9.79928 13.6944
8720 2 2.2208 13.5089 1.27132 13.6692
318 2 2.2208 8.02253 12.6044 13.7526
323 2 2.2208 10.9211 15.3402 13.6939
8745 2 2.2208 13.5771 4.00733 27.5709
322 2 2.2208 10.7915 21.0876 13.6959
317 2 2.2208 10.8545 9.71443 13.7635
595 2 2.2208 7.9943 4.15653 27.428
315 2 2.2208 2.26622 12.6599 13.7652
308 2 2.2208 11.0269 18.0993 27.6446
8744 2 2.2208 -0.304205 20.9045 13.6927
304 2 2.2208 5.2492 -1.44517 13.7146
8719 2 2.2208 13.6283 15.2657 27.7069
645 2 2.2208 5.28849 23.727 5.27685
646 2 2.2208 5.35569 29.3353 5.25081
647 1 -1.1104 1.17469 25.1579 1.06282
648 1 -1.1104 0.985879 25.1701 3.78816
649 1 -1.1104 0.942174 22.4041 1.09729
650 1 -1.1104 1.27635 27.9984 1.17457
651 2 2.2208 5.22611 26.4742 2.42698
652 1 -1.1104 1.19076 22.4036 4.00139
653 1 -1.1104 1.02943 27.9669 4.00482
654 1 -1.1104 3.96023 25.0477 1.10745
655 2 2.2208 2.39236 23.8487 2.5734
656 2 2.2208 2.37752 29.4074 2.52603
657 1 -1.1104 3.80462 25.1679 3.93
658 2 2.2208 2.44321 26.4828 5.34422
659 1 -1.1104 3.85551 22.4415 1.04652
660 1 -1.1104 4.02568 27.9937 0.953665
661 1 -1.1104 3.87882 22.3201 3.84162
662 1 -1.1104 3.76073 27.9416 3.83056
794 1 -1.1104 3.83761 27.9438 6.58149
788 1 -1.1104 1.09702 22.1314 6.62283
786 1 -1.1104 1.16826 25.1196 6.65451
962 2 2.2208 8.00818 40.7061 13.6106
791 1 -1.1104 6.62636 27.9551 6.56033
1288 1 -1.1104 1.0801 47.5421 4.02
669 1 -1.1104 6.7847 27.9401 0.818761
671 1 -1.1104 6.75085 27.9291 3.68697
9344 2 2.2208 -0.275821 32.2707 7.97459
668 1 -1.1104 6.65449 22.5203 1.22035
666 1 -1.1104 6.71088 25.2925 0.992801
670 1 -1.1104 6.68513 22.3253 3.93424
667 1 -1.1104 6.67447 25.2495 3.87138
790 1 -1.1104 6.69287 22.342 6.69611
672 2 2.2208 10.9146 23.8361 5.20807
673 2 2.2208 10.8288 29.3027 5.29723
674 1 -1.1104 12.4166 25.145 0.993881
675 1 -1.1104 12.3106 25.094 3.88118
676 1 -1.1104 12.3223 22.2638 1.03755
677 1 -1.1104 12.1947 27.9347 1.13952
678 2 2.2208 10.9293 26.5899 2.46146
679 1 -1.1104 12.3906 22.5062 3.8072
680 1 -1.1104 12.2227 27.9004 4.01446
681 1 -1.1104 9.6415 25.0816 0.946581
682 2 2.2208 8.12103 23.8596 2.50306
683 2 2.2208 8.10215 29.3365 2.36631
684 1 -1.1104 9.51825 25.2255 3.82957
685 2 2.2208 8.12131 26.5772 5.3428
686 1 -1.1104 9.45313 22.2801 1.11115
687 1 -1.1104 9.53627 28.0736 1.02466
688 1 -1.1104 9.42965 22.3984 3.92622
689 1 -1.1104 9.52441 27.8965 3.8276
821 1 -1.1104 12.2258 27.9046 6.80111
9245 2 2.2208 13.6405 26.5742 10.9358
787 1 -1.1104 6.72224 25.1309 6.61437
819 1 -1.1104 12.3175 25.0533 6.59294
693 2 2.2208 5.25481 34.9491 5.25913
694 1 -1.1104 0.984044 30.8985 1.10846
695 1 -1.1104 1.11275 36.4415 1.10434
697 1 -1.1104 1.06285 30.7028 3.94954
698 1 -1.1104 1.09999 36.3871 3.87148
700 1 -1.1104 1.07867 33.6734 1.01991
701 2 2.2208 5.25468 32.0444 2.47806
702 2 2.2208 5.19116 37.8929 2.39855
703 1 -1.1104 1.08855 33.6009 3.82179
705 1 -1.1104 3.7096 31.0353 1.02122
706 1 -1.1104 3.8574 36.6025 1.03436
707 2 2.2208 2.44215 34.9486 2.42254
708 1 -1.1104 3.78724 30.8109 3.77814
709 1 -1.1104 3.80772 36.5308 3.84123
710 2 2.2208 2.44867 32.2022 5.2286
711 2 2.2208 2.49016 37.8947 5.16883
712 1 -1.1104 3.96471 33.7875 1.04323
713 1 -1.1104 3.85831 33.595 3.86295
843 1 -1.1104 1.06344 30.7845 6.69655
718 1 -1.1104 6.6659 30.5888 3.80775
719 1 -1.1104 6.62933 33.5364 1.13344
851 1 -1.1104 3.78156 33.4919 6.76292
849 1 -1.1104 3.9406 30.657 6.62253
850 1 -1.1104 4.05499 36.1997 6.83726
847 1 -1.1104 1.09975 33.6951 6.65916
844 1 -1.1104 1.04567 36.3955 6.65101
9415 2 2.2208 -0.284187 46.1836 5.30267
1483 1 -1.1104 1.05807 47.532 12.4877
704 1 -1.1104 6.50297 33.3395 3.97998
717 1 -1.1104 6.63037 30.7183 0.963218
699 1 -1.1104 6.50917 36.2552 3.67711
846 1 -1.1104 6.69972 36.2473 6.38525
696 1 -1.1104 6.86229 36.3862 0.870418
720 2 2.2208 10.8236 34.9511 5.3405
721 1 -1.1104 12.3138 30.7325 1.15733
722 1 -1.1104 12.384 36.3547 1.11517
723 1 -1.1104 12.3062 30.6472 3.97425
724 1 -1.1104 12.0976 36.4252 3.854
725 1 -1.1104 12.2278 33.5573 1.07613
726 2 2.2208 10.9524 32.1773 2.53432
727 2 2.2208 10.7169 37.7453 2.48811
728 1 -1.1104 12.2234 33.58 3.97142
729 1 -1.1104 9.58839 30.7763 1.0101
730 1 -1.1104 9.76425 36.3617 1.00253
731 2 2.2208 7.99575 35.0032 2.37989
732 1 -1.1104 9.49611 30.706 3.8022
733 1 -1.1104 9.31978 36.3098 3.77055
734 2 2.2208 7.98108 32.1226 5.17944
735 2 2.2208 7.99596 37.7061 5.30777
736 1 -1.1104 9.40559 33.6128 1.00313
737 1 -1.1104 9.31608 33.4656 3.78512
880 1 -1.1104 9.39631 30.795 6.83328
882 1 -1.1104 9.4743 33.3721 6.42232
845 1 -1.1104 6.77182 30.6333 6.58206
881 1 -1.1104 9.44282 36.2501 6.68217