ITEM: TIMESTEP
100000
ITEM: NUMBER OF ATOMS
17670
ITEM: BOX BOUNDS pp pp pp
-3.5610611755455895e-01 2.7696106117555207e+01
-4.2999349002751552e+00 3.3237993490026753e+02
-3.6739350625175698e-01 2.7707393506251950e+01
ITEM: ATOMS id type q x y z
1 2 2.2208 5.22392 1.1735 5.1744
2 1 -1.1104 1.1226 -2.77281 1.09784
3 1 -1.1104 0.896601 2.88293 0.766384
6 1 -1.1104 1.015 -2.78683 3.85416
7 1 -1.1104 0.942796 2.72217 3.78424
10 1 -1.1104 1.00412 0.00310743 1.01977
12 2 2.2208 5.15554 -1.49098 2.4539
14 1 -1.1104 0.862126 -0.15721 3.76391
16 1 -1.1104 3.86391 -3.00166 0.989849
17 1 -1.1104 3.87921 2.72622 1.07114
18 2 2.2208 2.47779 1.36812 2.42509
19 1 -1.1104 3.79532 -2.76473 3.84782
20 1 -1.1104 3.75666 2.58005 3.81455
21 2 2.2208 2.43392 -1.51317 5.34533
22 2 2.2208 2.40865 4.12364 5.17387
23 1 -1.1104 3.84568 -0.0178888 1.0154
24 1 -1.1104 3.91584 0.0561868 3.64617
13 2 2.2208 5.17873 4.07138 2.57788
9 1 -1.1104 6.6787 2.66299 3.82569
174 1 -1.1104 3.84838 -0.000228063 6.70375
17300 2 2.2208 13.7068 -4.26998 2.51197
15 1 -1.1104 6.61142 -0.130647 3.69981
8 1 -1.1104 6.64861 -2.80449 3.72027
4 1 -1.1104 6.57732 -2.81689 0.975825
8001 2 2.2208 5.22857 -4.31886 10.7377
7998 2 2.2208 8.03848 -4.23129 2.42407
296 1 -1.1104 6.80413 19.5065 12.3084
7996 2 2.2208 5.22484 -4.28182 5.12251
5 1 -1.1104 6.71576 2.82087 0.931274
11 1 -1.1104 6.80839 -0.0309319 1.04984
31 2 2.2208 10.8217 1.28377 5.25056
32 1 -1.1104 12.3498 -2.87525 1.24423
33 1 -1.1104 12.2957 2.8725 1.301
34 1 -1.1104 12.4016 -2.89596 4.00027
35 1 -1.1104 12.2482 2.64269 4.0644
36 1 -1.1104 12.2092 -0.0807656 1.22363
37 2 2.2208 10.9578 -1.47487 2.52399
38 2 2.2208 10.8678 4.18896 2.62046
39 1 -1.1104 12.305 -0.143819 3.90342
40 1 -1.1104 9.48733 -2.89569 1.13976
41 1 -1.1104 9.51199 2.79702 0.996444
42 2 2.2208 8.16345 1.39103 2.3924
43 1 -1.1104 9.56156 -2.96488 3.98129
44 1 -1.1104 9.47215 2.76831 3.86965
45 2 2.2208 8.01207 -1.47802 5.19789
46 2 2.2208 8.09447 4.15755 5.22693
47 1 -1.1104 9.41337 0.0615856 0.999581
48 1 -1.1104 9.41753 -0.106394 3.84094
8615 2 2.2208 13.7206 6.97049 8.24674
8719 2 2.2208 13.6622 15.3018 -0.31591
83 1 -1.1104 12.0607 16.9335 12.2418
8404 2 2.2208 13.7815 4.16174 5.45824
307 2 2.2208 7.95401 15.4034 -0.393455
199 1 -1.1104 9.31969 13.8987 9.50022
54 2 2.2208 5.32696 7.05817 5.13317
55 2 2.2208 5.27171 12.6022 5.30065
56 1 -1.1104 0.857031 8.32005 1.07769
58 1 -1.1104 1.13743 8.41326 3.84969
60 1 -1.1104 1.21914 5.64642 0.982053
61 1 -1.1104 0.910261 11.1587 0.944951
66 2 2.2208 5.3083 9.72919 2.41278
67 1 -1.1104 0.885318 5.58704 3.70804
68 1 -1.1104 0.841788 11.1644 3.71396
71 1 -1.1104 3.68605 8.40862 1.04445
72 2 2.2208 2.47546 6.99297 2.37444
73 2 2.2208 2.38226 12.607 2.39521
74 1 -1.1104 3.92368 8.35034 3.82941
75 2 2.2208 2.46227 9.7925 5.1936
76 1 -1.1104 4.03719 5.59449 1.15782
77 1 -1.1104 3.71373 11.2225 0.961699
79 1 -1.1104 3.77605 5.60479 3.83693
80 1 -1.1104 3.69326 11.3579 3.85489
331 2 2.2208 2.533 21.0413 -0.339411
69 1 -1.1104 6.51744 5.58305 3.69042
630 2 2.2208 4.9946 12.6508 -0.371179
78 1 -1.1104 3.84754 11.1835 6.64275
8707 2 2.2208 13.806 -1.512 5.39861
238 1 -1.1104 3.9084 8.29643 6.64972
332 2 2.2208 5.29484 6.90315 -0.387815
8003 2 2.2208 7.99569 -4.29034 8.1262
63 1 -1.1104 6.70032 5.73287 0.929036
59 1 -1.1104 6.64017 8.45563 3.76659
64 1 -1.1104 6.5309 11.1965 1.01553
70 1 -1.1104 6.52802 11.163 3.96692
57 1 -1.1104 6.54766 8.41677 1.04141
84 2 2.2208 10.8839 6.91528 5.37264
85 2 2.2208 10.8123 12.5681 5.25725
86 1 -1.1104 12.1105 8.36717 1.14161
87 1 -1.1104 12.5278 8.25026 4.07733
88 1 -1.1104 12.3005 5.54713 1.066
89 1 -1.1104 12.2705 11.3502 1.29151
91 2 2.2208 10.8872 9.7842 2.48687
92 1 -1.1104 12.2925 5.49622 4.00775
93 1 -1.1104 12.2672 11.0765 4.02027
94 1 -1.1104 9.3896 8.32152 1.09802
95 2 2.2208 8.14065 6.97041 2.52081
96 2 2.2208 7.96346 12.7413 2.33307
97 1 -1.1104 9.61883 8.29371 4.11917
98 2 2.2208 8.03699 9.82604 5.33602
99 1 -1.1104 9.48472 5.62357 1.17526
100 1 -1.1104 9.47905 11.1701 1.10483
102 1 -1.1104 9.50611 5.54384 3.87246
103 1 -1.1104 9.36342 11.2139 3.89461
267 1 -1.1104 9.54835 8.50116 6.69842
269 1 -1.1104 9.50421 5.54757 6.66143
265 1 -1.1104 12.3369 8.47499 6.86241
7995 2 2.2208 2.49798 -4.25705 2.3532
8539 2 2.2208 13.7822 4.24161 10.9929
9004 2 2.2208 13.7266 -1.45683 -0.276878
135 1 -1.1104 12.1731 16.7614 9.58589
7999 2 2.2208 10.7798 -4.40512 5.43161
106 2 2.2208 5.11482 18.1564 5.20869
107 1 -1.1104 1.03417 13.9516 1.04414
109 1 -1.1104 1.05292 19.6306 1.03346
113 1 -1.1104 1.0153 13.8985 3.75903
114 1 -1.1104 1.02885 19.7097 3.93318
116 1 -1.1104 1.00247 16.7884 1.00339
119 2 2.2208 5.09312 15.4012 2.49936
120 2 2.2208 5.26027 21.008 2.35848
121 1 -1.1104 0.996543 16.6134 3.91947
123 1 -1.1104 3.76809 13.9908 1.17226
125 1 -1.1104 3.80089 19.6378 1.07101
127 2 2.2208 2.3685 18.1148 2.44487
128 1 -1.1104 3.88369 14.0775 3.85404
129 1 -1.1104 3.71846 19.5175 3.97273
130 2 2.2208 2.44694 15.2794 5.29165
131 2 2.2208 2.41955 21.0557 5.30768
132 1 -1.1104 3.74262 16.8918 1.02156
134 1 -1.1104 3.74361 16.7963 3.77978
330 2 2.2208 5.12894 18.1948 -0.315845
8565 2 2.2208 -0.394326 4.06936 8.0049
110 1 -1.1104 6.51465 13.9878 0.981991
8710 2 2.2208 -0.433964 12.5574 5.19186
328 2 2.2208 11.0128 6.86725 -0.386106
118 1 -1.1104 6.76134 16.623 6.70917
115 1 -1.1104 6.58914 13.9484 3.99542
122 1 -1.1104 6.67714 16.6841 4.05355
138 1 -1.1104 6.73168 19.5752 1.10885
140 1 -1.1104 6.34398 16.8332 1.13875
139 1 -1.1104 6.4497 19.3863 3.81315
141 2 2.2208 10.9715 18.3265 5.34452
142 1 -1.1104 12.1314 14.0326 1.02411
144 1 -1.1104 12.1396 19.7259 1.14774
146 1 -1.1104 12.1335 14.0018 3.88628
147 1 -1.1104 12.2519 19.7281 3.90102
148 1 -1.1104 12.2986 16.8688 1.20007
150 2 2.2208 10.8739 15.4731 2.55523
151 2 2.2208 10.824 21.0829 2.49796
152 1 -1.1104 12.4125 16.7921 3.93273
153 1 -1.1104 9.26091 14.146 1.17179
155 1 -1.1104 9.42093 19.6178 1.21295
157 2 2.2208 8.05635 18.1071 2.50264
158 1 -1.1104 9.37454 14.0615 3.77635
159 1 -1.1104 9.38247 19.4398 3.91366
160 2 2.2208 8.06089 15.2902 5.24712
161 2 2.2208 7.89548 20.9521 5.34108
162 1 -1.1104 9.4336 16.8105 1.04687
164 1 -1.1104 9.52491 16.7786 3.85544
163 1 -1.1104 9.53955 16.7738 6.61563
143 1 -1.1104 12.1776 13.9598 6.5952
154 1 -1.1104 9.33959 14.1122 6.7814
149 1 -1.1104 12.3561 16.8087 6.7323
172 1 -1.1104 3.72696 -2.8292 6.65144
170 1 -1.1104 1.1523 0.0415314 6.56787
288 1 -1.1104 6.4783 19.623 9.56273
168 1 -1.1104 6.53938 -2.89527 6.58262
308 2 2.2208 10.8679 18.2255 -0.354237
30 2 2.2208 8.03262 21.1903 10.8922
167 1 -1.1104 1.01881 2.68195 6.5791
166 1 -1.1104 1.08859 -2.82712 6.64943
173 1 -1.1104 4.03388 2.68421 6.53408
175 2 2.2208 5.34942 1.23909 10.9068
176 1 -1.1104 0.957254 -2.74479 12.323
177 1 -1.1104 1.144 2.88414 12.172
180 1 -1.1104 1.09553 -2.79009 9.58589
181 1 -1.1104 1.06827 2.7698 9.4328
184 1 -1.1104 1.06476 0.103811 12.0453
186 2 2.2208 5.26641 -1.5201 8.16438
188 1 -1.1104 1.01178 0.00366986 9.37303
190 1 -1.1104 3.72318 -3.0593 11.9933
191 1 -1.1104 3.89678 2.63525 12.2356
192 2 2.2208 2.50937 1.50873 8.0009
193 1 -1.1104 3.92759 -3.09871 9.32501
194 1 -1.1104 3.91906 2.72638 9.40126
195 2 2.2208 2.43715 -1.42854 10.7144
196 2 2.2208 2.58574 4.10373 10.7217
197 1 -1.1104 4.01288 -0.110879 12.1962
198 1 -1.1104 3.81101 0.020141 9.39377
187 2 2.2208 5.31123 4.09837 7.95738
178 1 -1.1104 6.5424 -2.78182 12.1923
183 1 -1.1104 6.73542 2.69085 9.45838
182 1 -1.1104 6.51602 -2.81476 9.4776
179 1 -1.1104 6.72532 2.82411 12.2444
185 1 -1.1104 6.90063 -0.00359084 12.2633
169 1 -1.1104 6.72569 2.7436 6.65958
206 1 -1.1104 12.3161 2.8795 6.77066
171 1 -1.1104 6.67414 -0.0910904 6.59628
8712 2 2.2208 13.6845 6.98897 2.49016
210 1 -1.1104 9.44658 -0.110487 6.60707
208 1 -1.1104 9.48061 -3.01514 6.65877
205 1 -1.1104 12.2822 -2.86139 6.72855
207 1 -1.1104 12.2207 -0.135013 6.68329
209 1 -1.1104 9.48738 2.77356 6.54407
189 1 -1.1104 6.69773 -0.180269 9.45103
211 2 2.2208 10.9776 1.40219 10.9293
212 1 -1.1104 12.2591 -2.91842 12.2857
213 1 -1.1104 12.3982 2.84097 12.3578
214 1 -1.1104 12.1047 -2.99516 9.50606
215 1 -1.1104 12.3019 2.82347 9.64364
216 1 -1.1104 12.2408 0.0928863 12.4083
217 2 2.2208 10.842 -1.50084 8.01092
218 2 2.2208 10.8724 4.08539 8.03478
219 1 -1.1104 12.3963 -0.158064 9.52734
220 1 -1.1104 9.45914 -3.02098 12.4452
221 1 -1.1104 9.48706 2.83924 12.128
222 2 2.2208 8.09654 1.36057 7.90453
223 1 -1.1104 9.52111 -2.90568 9.44371
224 1 -1.1104 9.60555 2.75 9.46066
225 2 2.2208 8.14185 -1.44539 10.6981
226 2 2.2208 8.12837 4.16608 10.8133
227 1 -1.1104 9.47824 0.0120112 12.145
228 1 -1.1104 9.52292 -0.102101 9.35324
8433 2 2.2208 13.6213 9.72236 5.32855
8620 2 2.2208 13.658 9.89798 10.8707
234 1 -1.1104 0.964035 8.35291 6.64396
236 1 -1.1104 1.16325 5.46889 6.52257
239 1 -1.1104 3.99789 5.39425 6.50488
237 1 -1.1104 6.64655 5.49235 6.58358
230 2 2.2208 7.92309 15.4703 10.9459
290 1 -1.1104 6.53644 13.9522 9.54624
137 1 -1.1104 9.49693 19.6828 12.3444
62 1 -1.1104 0.995758 11.2275 6.55537
240 2 2.2208 5.20577 6.92365 10.8181
241 2 2.2208 5.07671 12.5293 10.9438
242 1 -1.1104 0.86098 8.52268 12.3738
244 1 -1.1104 1.00654 8.34921 9.5759
246 1 -1.1104 1.11601 5.66393 12.3446
247 1 -1.1104 1.00489 11.189 12.2043
250 2 2.2208 5.21474 9.84773 8.09959
251 1 -1.1104 1.14184 5.47928 9.4739
252 1 -1.1104 1.07651 11.2287 9.47486
255 1 -1.1104 3.89694 8.31809 12.2919
256 2 2.2208 2.49765 6.96935 7.9789
257 2 2.2208 2.46423 12.6418 8.14882
258 1 -1.1104 3.74284 8.3083 9.51554
259 2 2.2208 2.29237 9.74867 10.9437
260 1 -1.1104 3.89774 5.58633 12.2355
261 1 -1.1104 3.75185 11.121 12.3555
262 1 -1.1104 3.95839 5.39715 9.37939
263 1 -1.1104 3.87402 11.0993 9.51965
235 1 -1.1104 6.74564 8.25373 6.56035
254 1 -1.1104 6.72871 11.1952 9.45123
49 1 -1.1104 12.1174 13.9628 12.2481
90 1 -1.1104 12.1526 11.2877 6.76423
65 1 -1.1104 6.48525 11.0662 6.6897
249 1 -1.1104 6.58255 11.1669 12.2077
253 1 -1.1104 6.63107 5.39268 9.4477
243 1 -1.1104 6.65631 8.42749 12.1173
266 1 -1.1104 12.1392 5.60768 6.88154
248 1 -1.1104 6.75655 5.52836 12.3389
245 1 -1.1104 6.59061 8.43672 9.44997
101 1 -1.1104 9.46851 11.1656 6.67326
264 1 -1.1104 9.51074 11.0691 9.52195
268 1 -1.1104 9.37791 5.60304 9.48272
270 1 -1.1104 9.31769 11.1824 12.184
271 1 -1.1104 9.63833 5.64073 12.2517
272 2 2.2208 8.03128 9.79644 10.816
273 1 -1.1104 9.38528 8.34985 9.51042
274 2 2.2208 8.05517 12.5073 8.18158
275 2 2.2208 7.8803 6.88552 8.13298
276 2 2.2208 10.9313 7.03026 10.8816
277 2 2.2208 10.7076 12.6195 10.8594
278 1 -1.1104 12.302 8.35179 12.2457
279 1 -1.1104 12.3367 8.42436 9.62518
280 1 -1.1104 12.3696 5.60063 12.2625
281 1 -1.1104 12.3404 11.1834 12.2822
282 2 2.2208 10.885 9.82176 8.04551
283 1 -1.1104 12.1804 5.55671 9.43535
284 1 -1.1104 12.184 11.2821 9.57628
285 1 -1.1104 9.47258 8.36859 12.258
26 2 2.2208 -0.357018 1.24828 5.15018
309 2 2.2208 8.10412 20.9297 -0.317263
302 1 -1.1104 0.965238 19.6336 6.72866
112 1 -1.1104 6.54296 19.5863 6.79157
124 1 -1.1104 3.82229 13.9664 6.89269
136 1 -1.1104 9.35538 14.1105 12.2776
126 1 -1.1104 3.7035 19.5412 6.68006
117 1 -1.1104 1.19461 16.9074 6.64397
133 1 -1.1104 3.94791 16.8173 6.70897
108 1 -1.1104 1.09329 13.9783 6.70512
301 1 -1.1104 3.79873 19.656 9.56668
51 2 2.2208 2.46275 15.2972 10.8867
52 2 2.2208 2.25294 21.1003 11.0049
202 1 -1.1104 3.7729 16.8193 12.3878
203 1 -1.1104 1.0542 16.9278 12.3012
231 1 -1.1104 3.78985 13.8803 9.56943
232 1 -1.1104 3.7674 16.6243 9.54617
233 2 2.2208 2.47098 18.1122 8.32439
286 1 -1.1104 3.99687 19.7067 12.3893
287 1 -1.1104 3.77496 13.8942 12.366
291 1 -1.1104 1.0055 19.6537 9.6374
292 1 -1.1104 1.0981 16.7025 9.5734
293 2 2.2208 5.06941 20.89 8.10842
294 1 -1.1104 1.13852 13.983 9.46756
295 2 2.2208 5.22187 15.3666 8.05541
298 1 -1.1104 0.948837 19.577 12.3523
299 1 -1.1104 1.01455 14.0078 12.1782
300 2 2.2208 5.13249 18.1609 10.9316
105 2 2.2208 10.6528 21.0112 8.07996
104 2 2.2208 10.7339 15.3861 8.04682
53 1 -1.1104 12.2655 14.0613 9.42261
289 1 -1.1104 6.66522 16.8518 9.48301
111 1 -1.1104 6.60339 13.7926 6.69019
81 1 -1.1104 12.1639 19.5116 9.53281
165 2 2.2208 7.94886 18.1997 7.94873
204 1 -1.1104 6.51978 16.8173 12.2992
297 1 -1.1104 6.42517 14.0242 12.437
29 1 -1.1104 9.30436 16.8206 12.4179
145 1 -1.1104 12.2136 19.6612 6.84132
27 2 2.2208 10.7741 18.2415 10.7941
28 1 -1.1104 9.39442 16.8041 9.56527
229 1 -1.1104 9.30927 19.684 9.42659
156 1 -1.1104 9.35985 19.6323 6.73151
50 1 -1.1104 12.1799 19.6311 12.2686
8017 2 2.2208 2.42687 -4.27062 13.5439
326 2 2.2208 10.9254 12.4058 -0.295873
8711 2 2.2208 13.5896 12.748 2.57362
8432 2 2.2208 13.6983 -1.49072 10.9242
8502 2 2.2208 13.6868 15.4954 5.33582
8002 2 2.2208 -0.457117 -4.39791 10.781
8704 2 2.2208 13.6086 15.4676 10.9665
8666 2 2.2208 13.6111 20.9534 10.7614
201 2 2.2208 -0.367215 1.31754 10.7875
8406 2 2.2208 -0.440289 18.2297 10.9925
304 2 2.2208 5.25222 -1.3005 13.5998
327 2 2.2208 8.03299 9.75312 -0.429595
315 2 2.2208 2.33885 12.5396 13.7623
313 2 2.2208 2.38885 6.97391 13.7156
321 2 2.2208 5.07397 15.3519 13.8492
329 2 2.2208 2.34963 15.3665 -0.324397
593 2 2.2208 10.9053 1.31956 -0.248456
310 2 2.2208 8.13037 1.4123 13.6729
8722 2 2.2208 13.7277 9.84052 -0.287776
336 2 2.2208 5.29978 1.38651 16.4252
337 1 -1.1104 1.08785 -2.90534 17.8537
338 1 -1.1104 1.0227 2.76584 17.7862
341 1 -1.1104 1.00025 -2.8864 14.9928
343 1 -1.1104 1.10984 2.8442 14.8955
349 1 -1.1104 1.04217 -0.119461 17.6934
351 2 2.2208 5.31316 -1.4326 19.1886
352 2 2.2208 5.25883 4.17443 19.1993
353 1 -1.1104 0.974639 -0.0417146 14.8522
357 1 -1.1104 3.77663 -2.80414 17.7542
358 1 -1.1104 3.97611 2.86192 17.8396
359 2 2.2208 2.51446 1.49567 19.1834
360 1 -1.1104 3.74201 -2.96768 14.9507
362 1 -1.1104 3.88104 2.74419 14.9762
364 2 2.2208 2.47291 -1.54353 16.3712
365 2 2.2208 2.39386 4.25927 16.4389
366 1 -1.1104 3.92995 -0.0184399 17.7635
367 1 -1.1104 3.8789 -0.0891475 14.9429
8860 2 2.2208 13.618 6.98407 19.331
350 1 -1.1104 6.61284 -0.141624 17.8156
8088 2 2.2208 -0.409185 -4.31953 22.1297
535 2 2.2208 8.09994 18.1381 24.858
601 2 2.2208 10.9675 15.3658 24.962
600 1 -1.1104 12.3481 16.7509 23.6154
361 1 -1.1104 4.00285 -2.82905 20.6761
306 2 2.2208 5.27376 4.17902 13.5609
8086 2 2.2208 2.33814 -4.29325 24.945
8085 2 2.2208 10.8561 -4.34513 22.0609
322 2 2.2208 10.8751 21.1012 13.6222
316 2 2.2208 8.02279 6.94524 13.5808
8009 2 2.2208 10.9245 -4.3971 27.8139
339 1 -1.1104 6.71893 -2.99024 17.9649
345 1 -1.1104 6.45481 -2.80369 14.9081
347 1 -1.1104 6.74697 2.7574 15.1096
340 1 -1.1104 6.72453 2.78857 17.8367
355 1 -1.1104 6.67963 -0.0525021 15.0922
379 2 2.2208 10.748 1.35794 16.4641
380 1 -1.1104 12.3084 -2.86957 17.8354
381 1 -1.1104 12.1899 2.85567 17.9575
382 1 -1.1104 12.2186 -3.01598 15.0748
384 1 -1.1104 12.2147 2.84287 15.2104
386 1 -1.1104 12.3231 -0.0747577 17.9926
387 2 2.2208 10.8316 -1.56505 19.3225
388 2 2.2208 10.8561 4.19497 19.3442
389 1 -1.1104 12.3294 -0.0117952 15.1845
391 1 -1.1104 9.45346 -2.91375 17.883
392 1 -1.1104 9.42699 2.72398 17.8116
393 2 2.2208 8.07754 1.38148 19.2777
394 1 -1.1104 9.41329 -3.01351 15.1611
396 1 -1.1104 9.43951 2.83603 15.0483
398 2 2.2208 8.01877 -1.52851 16.453
400 1 -1.1104 9.41646 -0.074819 17.9493
401 1 -1.1104 9.6179 -0.146437 15.1499
399 2 2.2208 7.98516 4.23652 16.5754
346 1 -1.1104 6.547 -2.89111 20.6809
509 1 -1.1104 6.42529 14.0429 26.3151
8970 2 2.2208 -0.270949 21.1152 19.2807
412 2 2.2208 5.10506 6.95997 16.437
413 2 2.2208 5.28019 12.5957 16.5184
414 1 -1.1104 1.00298 8.4115 17.8846
416 1 -1.1104 0.963014 8.56081 15.0078
420 1 -1.1104 1.10826 5.55505 17.9283
421 1 -1.1104 0.996986 11.1915 17.9398
424 2 2.2208 5.20283 9.82556 19.2569
425 1 -1.1104 1.01762 5.68493 15.1765
427 1 -1.1104 0.990439 11.4013 15.1376
433 1 -1.1104 3.85552 8.50872 17.7526
434 2 2.2208 2.4448 7.08421 19.1465
435 2 2.2208 2.35467 12.5834 19.3523
436 1 -1.1104 3.71471 8.42819 15.0047
438 2 2.2208 2.27985 9.85296 16.5012
439 1 -1.1104 3.71046 5.63229 17.9555
440 1 -1.1104 3.76874 11.2656 17.8015
441 1 -1.1104 3.76957 5.64741 14.9301
443 1 -1.1104 3.71616 11.1246 15.1497
8084 2 2.2208 8.04858 -4.3021 24.9806
564 2 2.2208 2.36513 -1.36454 27.7096
8087 2 2.2208 5.16389 -4.3542 22.0677
444 1 -1.1104 3.77092 11.1729 20.6806
431 1 -1.1104 6.48855 11.0927 15.0458
415 1 -1.1104 6.52879 8.42661 17.8302
426 1 -1.1104 0.907464 5.57862 20.7663
417 1 -1.1104 1.01387 8.55393 20.6485
437 1 -1.1104 3.94324 8.41991 20.5597
419 1 -1.1104 6.58388 8.47323 20.6184
423 1 -1.1104 6.63845 11.2613 17.8621
429 1 -1.1104 6.48308 5.60033 15.1062
422 1 -1.1104 6.45256 5.71538 18.0233
418 1 -1.1104 6.61729 8.35821 14.921
448 2 2.2208 10.7708 7.00266 16.5326
449 2 2.2208 10.8125 12.5094 16.4713
450 1 -1.1104 12.0716 8.4724 18.041
451 1 -1.1104 12.2477 8.48608 15.061
453 1 -1.1104 12.1328 5.7026 17.8601
454 1 -1.1104 12.3266 11.1038 18.0786
455 2 2.2208 10.8234 9.80905 19.3229
456 1 -1.1104 12.0772 5.63918 15.0125
458 1 -1.1104 12.2125 11.0538 15.1709
460 1 -1.1104 9.35797 8.34962 17.9431
461 2 2.2208 7.91075 7.12281 19.2988
462 2 2.2208 8.10567 12.5658 19.2966
463 1 -1.1104 9.45147 8.48085 15.1259
465 2 2.2208 7.99832 9.70843 16.5786
466 1 -1.1104 9.25239 5.63967 17.9678
467 1 -1.1104 9.61273 11.0185 17.8448
468 1 -1.1104 9.31326 5.66851 15.2359
470 1 -1.1104 9.30111 11.1449 15.2104
8122 2 2.2208 8.04083 -4.32471 19.2554
471 1 -1.1104 9.34471 11.2305 20.6585
459 1 -1.1104 12.1467 11.2025 20.9005
323 2 2.2208 10.7959 15.4309 13.6728
8789 2 2.2208 13.6953 15.3767 22.1392
325 2 2.2208 2.64656 4.07463 27.675
9002 2 2.2208 13.691 -1.56453 22.0781
475 2 2.2208 5.25564 18.1762 16.5993
476 1 -1.1104 0.993977 14.0547 17.9629
477 1 -1.1104 0.941369 19.7612 17.9827
480 1 -1.1104 1.0323 14.1934 15.0725
482 1 -1.1104 1.05788 19.7642 15.1145
488 1 -1.1104 1.1083 16.8993 17.9335
490 2 2.2208 5.30644 15.2372 19.5012
491 2 2.2208 5.23944 21.0499 19.4206
492 1 -1.1104 0.959863 16.9189 14.9881
496 1 -1.1104 3.811 13.9494 18.0399
497 1 -1.1104 3.76955 19.7756 18.1455
498 2 2.2208 2.48769 18.275 19.3939
499 1 -1.1104 3.88927 13.8617 15.0309
501 1 -1.1104 3.83257 19.6764 15.1711
503 2 2.2208 2.35343 15.5282 16.5677
504 2 2.2208 2.44291 21.1197 16.5152
505 1 -1.1104 4.00033 16.7481 18.0038
506 1 -1.1104 3.75431 16.8424 15.2288
8744 2 2.2208 -0.49953 21.1834 13.7433
478 1 -1.1104 6.72222 13.9459 17.9598
324 2 2.2208 8.03449 18.2796 13.7229
493 1 -1.1104 0.999312 16.837 20.6987
574 2 2.2208 -0.417978 4.01245 24.7902
8784 2 2.2208 -0.378773 21.058 25.0192
369 2 2.2208 8.03687 21.2209 22.0452
479 1 -1.1104 6.52685 19.5701 17.9526
515 1 -1.1104 12.252 14.1229 20.7129
489 1 -1.1104 6.8161 16.8067 18.0605
484 1 -1.1104 6.55944 13.9906 15.2534
494 1 -1.1104 6.58473 16.8003 15.117
486 1 -1.1104 6.69014 19.6397 15.1053
511 2 2.2208 10.8384 18.255 16.503
512 1 -1.1104 12.1946 13.9234 18.0064
513 1 -1.1104 12.1212 19.4917 18.0243
514 1 -1.1104 12.2141 13.9442 15.1286
516 1 -1.1104 12.2548 19.6218 15.0834
518 1 -1.1104 12.3722 16.7801 18.0503
519 2 2.2208 10.883 15.4635 19.3768
520 2 2.2208 10.7891 21.0523 19.3133
521 1 -1.1104 12.2878 16.7799 15.1148
523 1 -1.1104 9.44361 13.984 17.9148
524 1 -1.1104 9.27325 19.776 17.9789
525 2 2.2208 8.04525 18.2192 19.3791
526 1 -1.1104 9.48338 13.8571 14.9998
528 1 -1.1104 9.38037 19.6736 15.1574
530 2 2.2208 8.0375 15.4044 16.6212
531 2 2.2208 7.97191 20.9872 16.4704
532 1 -1.1104 9.5398 16.8917 17.9397
533 1 -1.1104 9.35649 16.7453 15.2778
529 1 -1.1104 9.58801 19.7125 20.7644
487 1 -1.1104 6.69648 19.6454 20.6713
527 1 -1.1104 9.49927 14.0129 20.6888
8125 2 2.2208 5.18539 -4.35621 16.4878
354 1 -1.1104 1.1355 0.102992 20.6594
368 1 -1.1104 3.98186 0.049779 20.4567
344 1 -1.1104 1.13014 2.66868 20.6408
342 1 -1.1104 1.04728 -2.82972 20.6613
348 1 -1.1104 6.70443 2.96484 20.5246
363 1 -1.1104 3.80669 2.97186 20.6981
539 2 2.2208 5.35528 1.42892 21.955
540 1 -1.1104 1.00442 -3.01252 23.5066
541 1 -1.1104 1.02316 2.58319 23.5253
544 1 -1.1104 0.969794 -2.95227 26.5842
545 1 -1.1104 1.11288 2.77695 26.2668
548 1 -1.1104 1.05668 -0.20028 23.4207
550 2 2.2208 5.31835 -1.53552 24.8921
552 1 -1.1104 0.997106 0.109119 26.1787
554 1 -1.1104 3.78273 -3.06152 23.4655
555 1 -1.1104 3.90345 2.77902 23.465
556 2 2.2208 2.5547 1.42277 24.8933
557 1 -1.1104 3.7453 -2.74824 26.3416
558 1 -1.1104 3.92697 2.73527 26.3337
559 2 2.2208 2.41729 -1.4901 22.0864
560 2 2.2208 2.39068 4.13813 22.168
561 1 -1.1104 3.97416 -0.17002 23.4468
562 1 -1.1104 3.92968 0.0618667 26.2857
551 2 2.2208 5.36692 4.11142 24.7376
603 1 -1.1104 12.2615 16.6246 26.3488
602 2 2.2208 10.8489 21.0144 24.9891
356 1 -1.1104 6.77619 0.0510669 20.7033
542 1 -1.1104 6.6841 -2.85353 23.5877
546 1 -1.1104 6.75832 -2.93039 26.3401
543 1 -1.1104 6.58103 2.83715 23.3212
553 1 -1.1104 6.59537 -0.183433 26.2654
8791 2 2.2208 13.5844 1.31118 19.2501
573 2 2.2208 -0.422108 1.24692 22.1662
8788 2 2.2208 13.6305 18.2481 24.8595
395 1 -1.1104 9.2825 -2.89314 20.5761
596 1 -1.1104 12.2667 19.5017 26.3572
397 1 -1.1104 9.4722 2.55605 20.548
547 1 -1.1104 6.73729 2.7336 26.1143
385 1 -1.1104 12.2942 2.76985 20.7424
390 1 -1.1104 12.3302 -0.113014 20.8862
549 1 -1.1104 6.80469 -0.00464784 23.4379
383 1 -1.1104 12.1742 -2.90588 20.652
402 1 -1.1104 9.49148 -0.184388 20.8477
575 2 2.2208 10.9071 1.25525 22.1638
576 1 -1.1104 12.3091 -2.97757 23.4957
577 1 -1.1104 12.4088 2.58965 23.6135
578 1 -1.1104 12.1593 -2.94255 26.3993
579 1 -1.1104 12.1741 2.64952 26.4936
580 1 -1.1104 12.2788 -0.108617 23.607
581 2 2.2208 10.8253 -1.5123 24.9631
583 1 -1.1104 12.3387 -0.195937 26.5236
584 1 -1.1104 9.51422 -2.88471 23.5016
585 1 -1.1104 9.54898 2.74525 23.5436
586 2 2.2208 8.17681 1.28491 24.9144
587 1 -1.1104 9.39411 -2.84677 26.333
588 1 -1.1104 9.51893 2.75524 26.2692
589 2 2.2208 8.00371 -1.52642 22.1575
590 2 2.2208 8.11354 4.00337 22.0856
591 1 -1.1104 9.57741 0.00128834 23.6043
592 1 -1.1104 9.41621 -0.0800635 26.3426
582 2 2.2208 10.9064 4.0163 24.9796
8729 2 2.2208 13.7416 7.07183 13.709
428 1 -1.1104 1.03601 11.4002 20.7595
370 1 -1.1104 9.60769 16.6794 23.506
442 1 -1.1104 3.74885 5.70256 20.7571
604 2 2.2208 5.15112 6.9828 22.0365
605 2 2.2208 5.29967 12.5951 22.0854
606 1 -1.1104 1.0111 8.25064 23.5819
608 1 -1.1104 0.933808 8.20276 26.3151
610 1 -1.1104 1.05533 5.47631 23.4346
611 1 -1.1104 0.982197 11.2017 23.5132
614 2 2.2208 5.07298 9.7394 24.901
615 1 -1.1104 1.01277 5.45935 26.3218
616 1 -1.1104 0.928548 11.2839 26.2619
619 1 -1.1104 3.68075 8.52713 23.4556
620 2 2.2208 2.54459 6.91493 24.8944
621 2 2.2208 2.33544 12.5344 24.8499
622 1 -1.1104 3.83861 8.43709 26.3531
623 2 2.2208 2.38356 9.77275 22.0652
624 1 -1.1104 3.932 5.54497 23.5113
625 1 -1.1104 3.64644 11.1912 23.5209
626 1 -1.1104 3.86145 5.63585 26.287
627 1 -1.1104 3.58724 11.1358 26.2859
617 1 -1.1104 6.58817 5.4876 26.3848
612 1 -1.1104 6.77085 5.52289 23.5486
536 1 -1.1104 9.60893 19.475 23.5781
534 1 -1.1104 9.35528 16.9667 20.7544
464 1 -1.1104 9.44712 8.30196 20.7462
457 1 -1.1104 12.5081 5.47899 20.8142
432 1 -1.1104 6.66349 11.1286 20.5382
607 1 -1.1104 6.48376 8.22946 23.435
430 1 -1.1104 6.59793 5.58197 20.7251
452 1 -1.1104 12.2461 8.26919 20.7631
609 1 -1.1104 6.62546 8.25446 26.2884
618 1 -1.1104 6.46242 11.15 26.2463
613 1 -1.1104 6.66111 11.2934 23.4463
469 1 -1.1104 9.59135 5.36522 20.9207
565 1 -1.1104 9.40467 8.35592 23.5342
567 1 -1.1104 12.299 11.0748 26.3769
568 1 -1.1104 12.352 5.5412 26.4134
569 2 2.2208 10.9289 9.69923 24.8882
628 1 -1.1104 12.3126 11.0982 23.5731
629 1 -1.1104 12.281 5.43949 23.7413
631 1 -1.1104 12.2765 8.33842 26.3426
634 1 -1.1104 12.3726 8.35892 23.4748
635 1 -1.1104 9.36615 11.3221 26.4041
636 1 -1.1104 9.48271 5.66754 26.3893
637 1 -1.1104 9.48645 11.0896 23.5581
638 1 -1.1104 9.53455 5.56111 23.6294
639 2 2.2208 8.07729 9.75823 22.11
640 1 -1.1104 9.53903 8.47857 26.2857
641 2 2.2208 7.98276 12.663 24.9754
642 2 2.2208 8.01181 6.95181 24.8808
643 2 2.2208 10.9451 6.82583 22.2542
644 2 2.2208 10.8292 12.5522 22.204
305 2 2.2208 2.48335 1.35294 13.4569
502 1 -1.1104 3.87217 19.5579 20.9037
8012 2 2.2208 5.20615 -4.33928 27.6375
507 1 -1.1104 3.85998 16.7672 20.7889
483 1 -1.1104 1.11835 19.7044 20.7465
481 1 -1.1104 1.05847 14.0681 20.7655
500 1 -1.1104 3.83232 13.9284 20.7788
473 1 -1.1104 1.19639 19.7674 26.3026
570 2 2.2208 2.50229 15.3566 22.1288
510 1 -1.1104 4.0405 19.7223 23.5464
508 1 -1.1104 3.9573 14.0325 23.5355
597 2 2.2208 2.46997 21.0217 22.1609
599 1 -1.1104 1.17367 16.774 23.4621
598 1 -1.1104 3.95003 16.8254 23.5405
376 1 -1.1104 3.63633 14.0055 26.3838
377 1 -1.1104 3.74856 16.843 26.2962
378 2 2.2208 2.53086 18.2224 24.8639
403 1 -1.1104 3.93209 19.6667 26.2641
407 2 2.2208 5.3455 18.1886 22.1769
408 1 -1.1104 1.14258 13.887 23.3758
409 1 -1.1104 1.16969 19.5413 23.5878
411 2 2.2208 5.18319 15.4234 24.9601
445 2 2.2208 5.33954 21.0139 24.972
447 1 -1.1104 0.95504 14.0761 26.1999
472 1 -1.1104 1.031 16.8355 26.3039
374 1 -1.1104 6.76796 16.9209 23.484
406 1 -1.1104 6.6639 19.6498 26.5018
517 1 -1.1104 12.2794 19.5589 20.7944
8932 2 2.2208 13.6839 20.9642 16.6031
375 2 2.2208 8.08614 15.4145 22.0439
522 1 -1.1104 12.2195 16.7848 20.8846
495 1 -1.1104 6.63283 16.6245 20.7639
404 1 -1.1104 9.40617 19.6341 26.2532
571 1 -1.1104 12.4104 19.7783 23.6099
485 1 -1.1104 6.82216 13.8905 20.7522
537 1 -1.1104 9.50691 13.9542 23.6299
566 1 -1.1104 12.3489 13.902 23.6676
538 2 2.2208 10.8652 18.2337 22.0933
371 1 -1.1104 9.47686 16.9672 26.3526
405 1 -1.1104 9.35271 14.0808 26.3952
572 1 -1.1104 12.2211 13.8796 26.4074
474 1 -1.1104 6.64006 16.9211 26.3416
410 1 -1.1104 6.68431 13.9532 23.4956
594 2 2.2208 7.99635 -1.47508 27.8522
446 1 -1.1104 6.81515 19.706 23.5337
303 2 2.2208 -0.479509 -1.4815 13.558
563 2 2.2208 5.34801 1.3104 27.7008
8785 2 2.2208 13.6269 4.21966 16.602
8826 2 2.2208 13.7448 6.99058 24.9954
317 2 2.2208 10.8544 9.80894 13.7043
8720 2 2.2208 13.6883 1.41553 13.8589
8929 2 2.2208 13.6441 15.3505 16.5842
8931 2 2.2208 13.6922 18.1961 19.4236
17381 2 2.2208 13.5854 -4.28113 24.8756
8901 2 2.2208 -0.468056 7.14342 16.4803
8992 2 2.2208 13.7821 4.05702 22.1018
8971 2 2.2208 -0.36159 15.4443 19.316
372 2 2.2208 -0.336374 1.35994 16.2913
8786 2 2.2208 13.6981 -1.50266 16.4429
8783 2 2.2208 -0.309059 18.2518 22.108
8859 2 2.2208 13.6579 9.74723 16.6215
595 2 2.2208 8.14809 4.29036 27.6515
333 2 2.2208 2.24104 9.74091 27.7307
320 2 2.2208 5.24129 21.0083 13.722
314 2 2.2208 5.24182 9.81132 13.6281
318 2 2.2208 7.96601 12.6377 13.7462
311 2 2.2208 10.9515 -1.50497 13.6755
319 2 2.2208 2.37635 18.2495 13.6598
312 2 2.2208 10.8354 4.31136 13.6091
8790 2 2.2208 -0.499367 1.31608 27.7216
645 2 2.2208 5.28322 23.8503 5.23361
646 2 2.2208 5.29301 29.4674 5.3015
647 1 -1.1104 1.17396 25.2233 1.07892
648 1 -1.1104 1.00111 25.3932 3.99645
649 1 -1.1104 1.11509 22.5119 1.04544
650 1 -1.1104 1.035 28.0866 1.06059
651 2 2.2208 5.18467 26.5904 2.45615
652 1 -1.1104 0.979235 22.545 3.80192
653 1 -1.1104 1.18467 28.2236 3.93928
654 1 -1.1104 3.77254 25.0183 1.10331
655 2 2.2208 2.37297 23.8124 2.49663
656 2 2.2208 2.54126 29.6368 2.40152
657 1 -1.1104 3.86112 25.2519 3.97999
658 2 2.2208 2.52402 26.7221 5.3095
659 1 -1.1104 3.79781 22.4068 1.0591
660 1 -1.1104 3.77036 28.126 0.902987
661 1 -1.1104 3.89607 22.3833 3.99477
662 1 -1.1104 3.90707 28.1176 3.75086
9422 2 2.2208 -0.392065 40.7161 10.9434
667 1 -1.1104 6.83228 25.1948 4.01837
965 2 2.2208 2.37952 26.5874 -0.37382
968 2 2.2208 10.897 23.8822 -0.444859
1036 2 2.2208 2.46752 43.6104 -0.517323
971 2 2.2208 2.45369 32.3076 -0.395121
9281 2 2.2208 -0.488118 29.5609 11.0104
669 1 -1.1104 6.50398 28.1472 1.14722
668 1 -1.1104 6.68277 22.3999 0.978982
666 1 -1.1104 6.56596 25.2644 0.984529
670 1 -1.1104 6.61381 22.3435 3.81691
671 1 -1.1104 6.61884 27.9403 3.91381
672 2 2.2208 10.8927 23.8728 5.20135
673 2 2.2208 10.732 29.4374 5.33259
674 1 -1.1104 12.1812 25.2003 1.22144
675 1 -1.1104 12.3257 25.2183 4.02923
676 1 -1.1104 12.402 22.5557 0.963868
677 1 -1.1104 12.2764 28.0612 1.06812
678 2 2.2208 10.8765 26.5958 2.38171
679 1 -1.1104 12.1111 22.4991 3.78574
680 1 -1.1104 12.1539 28.0731 3.80673
681 1 -1.1104 9.31214 25.1989 0.990899
682 2 2.2208 7.94681 23.8745 2.36597
683 2 2.2208 8.05104 29.4091 2.47634
684 1 -1.1104 9.55895 25.3196 3.85834
685 2 2.2208 8.13958 26.6382 5.33453
686 1 -1.1104 9.69437 22.4696 1.06203
687 1 -1.1104 9.4658 27.8657 1.13651
688 1 -1.1104 9.33428 22.4378 3.93983
689 1 -1.1104 9.35005 28.2178 3.86766
9282 2 2.2208 -0.337298 26.7165 8.134
819 1 -1.1104 12.2457 25.224 6.74367
824 1 -1.1104 9.35383 28.0101 6.68133
9301 2 2.2208 13.6784 35.0675 8.14512
9419 2 2.2208 -0.381702 37.8108 8.04485
9412 2 2.2208 -0.42355 35.1059 5.30353
967 2 2.2208 -0.364737 29.4921 -0.353927
693 2 2.2208 5.2281 35.0366 5.2091
694 1 -1.1104 0.990259 30.8917 1.11567
695 1 -1.1104 1.00322 36.4902 1.04693
697 1 -1.1104 1.1108 30.926 3.89679
698 1 -1.1104 0.952421 36.5899 3.76673
700 1 -1.1104 1.07448 33.6231 1.0838
701 2 2.2208 5.36553 32.4761 2.44431
702 2 2.2208 5.21524 37.813 2.46061
703 1 -1.1104 1.03554 33.8428 4.1119
705 1 -1.1104 3.7487 31.147 1.00161
706 1 -1.1104 3.85058 36.4875 1.05384
707 2 2.2208 2.43659 35.1813 2.5278
708 1 -1.1104 3.80367 30.9483 3.99023
709 1 -1.1104 3.74333 36.5868 3.85272
710 2 2.2208 2.3356 32.2879 5.27477
711 2 2.2208 2.4689 37.8938 5.48746
712 1 -1.1104 3.95816 33.8354 1.06697
713 1 -1.1104 3.76969 33.6266 3.82697
719 1 -1.1104 6.71945 33.8526 0.954424
718 1 -1.1104 6.75041 30.9206 3.7165
665 2 2.2208 -0.320156 26.7659 2.68907
9245 2 2.2208 13.8028 26.7259 10.8473
847 1 -1.1104 0.986381 33.8309 6.78004
850 1 -1.1104 3.83505 36.5381 6.54718
851 1 -1.1104 3.83762 33.7145 6.51133
9371 2 2.2208 13.7312 46.3375 8.01133
696 1 -1.1104 6.74147 36.5063 1.05722
704 1 -1.1104 6.72991 33.829 3.78357
717 1 -1.1104 6.54682 30.9273 0.996599
699 1 -1.1104 6.58018 36.5462 3.8677
720 2 2.2208 10.8787 35.066 5.29732
721 1 -1.1104 12.3164 30.8143 1.24556
722 1 -1.1104 12.338 36.3612 1.08668
723 1 -1.1104 12.2485 30.7867 3.98733
724 1 -1.1104 12.2085 36.5102 3.81434
725 1 -1.1104 12.2969 33.5534 1.16188
726 2 2.2208 10.9359 32.3404 2.46063
727 2 2.2208 10.8559 37.9776 2.50235