ITEM: TIMESTEP
20000
ITEM: NUMBER OF ATOMS
17670
ITEM: BOX BOUNDS pp pp pp
-3.5643186636339796e-01 2.7696431866363277e+01
-4.3745685941834358e+00 3.3245456859418198e+02
-3.5428033928869679e-01 2.7694280339288525e+01
ITEM: ATOMS id type q x y z
1 2 2.2208 5.23071 1.12545 5.17877
2 1 -1.1104 1.16369 -2.97497 1.10836
3 1 -1.1104 1.09717 2.694 1.1923
6 1 -1.1104 1.03962 -3.19401 3.76175
7 1 -1.1104 1.04263 2.5528 3.80188
10 1 -1.1104 1.20995 -0.145024 0.793301
12 2 2.2208 5.30862 -1.75707 2.43055
13 2 2.2208 5.1823 3.94515 2.35324
14 1 -1.1104 1.14547 -0.269654 3.67864
16 1 -1.1104 3.99492 -3.09528 1.06413
17 1 -1.1104 3.73123 2.43923 0.910912
18 2 2.2208 2.45854 1.26294 2.46617
19 1 -1.1104 4.02064 -3.06829 3.7942
20 1 -1.1104 3.87475 2.4438 3.73507
21 2 2.2208 2.5167 -1.62865 5.18985
22 2 2.2208 2.45697 3.90722 5.27262
23 1 -1.1104 3.89206 -0.269266 1.05861
24 1 -1.1104 3.85311 -0.379638 3.85001
83 1 -1.1104 12.3625 16.6143 12.3681
166 1 -1.1104 0.996044 -3.02063 6.68153
172 1 -1.1104 3.80759 -2.99224 6.57524
174 1 -1.1104 3.90232 -0.193439 6.57554
168 1 -1.1104 6.58166 -3.0133 6.61377
9 1 -1.1104 6.48928 2.52449 3.60835
5 1 -1.1104 6.59281 2.6693 0.845353
199 1 -1.1104 9.43737 13.9736 9.48063
171 1 -1.1104 6.73016 -0.150111 6.53844
169 1 -1.1104 6.54453 2.67885 6.48538
8600 2 2.2208 -0.40253 18.0225 5.3125
27 2 2.2208 10.9259 18.0115 10.9086
8 1 -1.1104 6.76634 -3.11571 3.85026
4 1 -1.1104 6.84633 -3.0237 1.02704
15 1 -1.1104 6.71667 -0.278428 3.82675
11 1 -1.1104 6.55138 -0.104309 1.09969
31 2 2.2208 10.7669 1.20016 5.21873
32 1 -1.1104 12.1578 -2.84982 1.04869
33 1 -1.1104 12.243 2.56987 0.992547
34 1 -1.1104 12.3056 -3.2159 3.81737
35 1 -1.1104 12.2014 2.74705 3.92694
36 1 -1.1104 12.2842 -0.190351 0.991441
37 2 2.2208 10.8134 -1.53063 2.51026
38 2 2.2208 10.8452 4.10325 2.42711
39 1 -1.1104 12.1665 -0.236302 3.78048
40 1 -1.1104 9.41901 -2.97803 1.0158
41 1 -1.1104 9.44993 2.55397 1.13479
42 2 2.2208 7.8842 1.28929 2.36343
43 1 -1.1104 9.65908 -3.08688 3.74177
44 1 -1.1104 9.39207 2.58577 3.81247
45 2 2.2208 8.0308 -1.6357 5.18986
46 2 2.2208 8.01503 3.90664 5.15574
47 1 -1.1104 9.38548 -0.213125 1.08026
48 1 -1.1104 9.36446 -0.272409 3.8749
208 1 -1.1104 9.49689 -3.03575 6.612
210 1 -1.1104 9.65952 -0.181586 6.71253
30 2 2.2208 8.19377 20.9532 10.9446
307 2 2.2208 8.14603 15.2486 -0.34289
54 2 2.2208 5.31955 6.78649 5.28115
55 2 2.2208 5.17599 12.327 5.40536
56 1 -1.1104 0.921292 8.3821 1.07489
58 1 -1.1104 0.992941 8.05976 3.84118
60 1 -1.1104 0.994831 5.42099 1.16853
61 1 -1.1104 1.25663 11.1965 1.15537
66 2 2.2208 5.19526 9.6475 2.54876
67 1 -1.1104 1.08162 5.26369 3.97844
68 1 -1.1104 0.867437 10.9416 3.97854
71 1 -1.1104 3.74096 8.16245 1.0612
72 2 2.2208 2.44324 6.72562 2.46643
73 2 2.2208 2.49412 12.5775 2.5044
74 1 -1.1104 3.86486 8.24773 4.03728
75 2 2.2208 2.35964 9.51265 5.21692
76 1 -1.1104 3.78896 5.38046 0.968982
77 1 -1.1104 3.90993 11.1206 1.10433
79 1 -1.1104 3.88198 5.3277 3.78407
80 1 -1.1104 3.77717 10.9565 3.88279
236 1 -1.1104 1.05239 5.28852 6.74348
63 1 -1.1104 6.60419 5.38275 0.908734
62 1 -1.1104 1.13815 10.912 6.81844
70 1 -1.1104 6.74867 10.9786 4.00813
64 1 -1.1104 6.61406 11.0476 1.07605
105 2 2.2208 10.8734 20.7094 8.09823
238 1 -1.1104 4.00938 7.92425 6.74995
239 1 -1.1104 3.99442 5.23296 6.60947
8003 2 2.2208 8.09341 -4.36956 8.05102
7995 2 2.2208 2.41966 -4.36948 2.43956
59 1 -1.1104 6.66263 8.1384 3.83541
57 1 -1.1104 6.60975 8.29771 0.9787
69 1 -1.1104 6.69562 5.32546 3.76249
84 2 2.2208 10.8338 6.751 5.22594
85 2 2.2208 10.8033 12.3763 5.19374
86 1 -1.1104 12.4834 8.17338 1.1069
87 1 -1.1104 12.2334 8.13704 3.9004
88 1 -1.1104 12.3088 5.39949 1.05756
89 1 -1.1104 12.3936 11.0578 1.03159
91 2 2.2208 10.9177 9.66296 2.53153
92 1 -1.1104 12.3045 5.35226 3.80265
93 1 -1.1104 12.3779 11.0324 3.84812
94 1 -1.1104 9.58092 8.18829 1.0466
95 2 2.2208 8.0241 6.75836 2.28934
96 2 2.2208 8.06099 12.4564 2.53148
97 1 -1.1104 9.38547 8.22681 3.84444
98 2 2.2208 8.06756 9.52774 5.23291
99 1 -1.1104 9.37511 5.33788 1.05363
100 1 -1.1104 9.66078 10.9388 0.998371
102 1 -1.1104 9.40285 5.52527 3.87112
103 1 -1.1104 9.42766 10.9527 3.83364
269 1 -1.1104 9.56139 5.33138 6.66169
310 2 2.2208 7.99564 1.09497 13.58
101 1 -1.1104 9.45136 10.9688 6.65199
266 1 -1.1104 12.3251 5.42953 6.74581
90 1 -1.1104 12.2246 10.9638 6.70159
267 1 -1.1104 9.53819 8.03278 6.68767
106 2 2.2208 5.26151 18.0518 5.27476
107 1 -1.1104 1.16279 13.8888 1.00955
109 1 -1.1104 1.0824 19.4694 0.900463
113 1 -1.1104 1.01874 13.8202 3.83166
114 1 -1.1104 1.07601 19.3368 3.93912
116 1 -1.1104 1.11702 16.6278 1.0921
119 2 2.2208 5.38403 15.2995 2.46511
120 2 2.2208 5.39411 20.6773 2.61304
121 1 -1.1104 1.01776 16.5884 3.87318
123 1 -1.1104 3.95657 13.9199 1.09862
125 1 -1.1104 3.8879 19.5319 1.18964
127 2 2.2208 2.41155 18.0786 2.44221
128 1 -1.1104 3.80692 13.903 3.88774
129 1 -1.1104 3.89112 19.3731 3.82719
130 2 2.2208 2.3912 15.2214 5.27974
131 2 2.2208 2.49082 20.9395 5.34643
132 1 -1.1104 4.01086 16.6501 1.05346
134 1 -1.1104 3.89111 16.753 3.75521
138 1 -1.1104 6.76936 19.5484 1.06148
133 1 -1.1104 3.83133 16.4894 6.5856
140 1 -1.1104 6.7021 16.7913 1.07454
304 2 2.2208 5.19705 -1.54871 13.6218
117 1 -1.1104 0.965403 16.6857 6.78591
302 1 -1.1104 1.17743 19.5626 6.69868
104 2 2.2208 10.8164 15.2983 8.05889
8705 2 2.2208 13.6263 17.9072 8.0081
122 1 -1.1104 6.76342 16.6116 3.81102
115 1 -1.1104 6.68065 13.74 3.91226
139 1 -1.1104 6.92263 19.3568 3.87307
110 1 -1.1104 6.68636 13.9181 1.17777
141 2 2.2208 10.9985 17.9225 5.31811
142 1 -1.1104 12.4788 13.8042 1.13564
144 1 -1.1104 12.3304 19.4346 1.03112
146 1 -1.1104 12.3512 13.8044 3.92131
147 1 -1.1104 12.3798 19.4166 3.83854
148 1 -1.1104 12.4113 16.5794 1.18882
150 2 2.2208 11.0185 15.0876 2.49122
151 2 2.2208 10.9581 20.7265 2.36746
152 1 -1.1104 12.4096 16.6782 3.93316
153 1 -1.1104 9.55717 13.791 1.00687
155 1 -1.1104 9.59665 19.2967 0.983236
157 2 2.2208 8.20531 18.0039 2.47652
158 1 -1.1104 9.36152 13.8366 3.89099
159 1 -1.1104 9.66215 19.2522 3.79283
160 2 2.2208 8.06223 15.1807 5.35702
161 2 2.2208 8.24438 20.6483 5.28928
162 1 -1.1104 9.58782 16.5238 0.962874
164 1 -1.1104 9.8402 16.5304 3.80393
154 1 -1.1104 9.33213 13.7691 6.74166
118 1 -1.1104 6.58881 16.5537 6.68848
53 1 -1.1104 12.3612 13.8274 9.41182
163 1 -1.1104 9.50509 16.5356 6.58552
112 1 -1.1104 6.67001 19.3729 6.82783
111 1 -1.1104 6.53782 13.8365 6.77082
143 1 -1.1104 12.0258 13.8485 6.55208
149 1 -1.1104 12.2673 16.5544 6.72354
156 1 -1.1104 9.60667 19.2072 6.6862
630 2 2.2208 5.20737 12.4299 -0.305598
312 2 2.2208 10.9314 4.03014 13.5819
334 2 2.2208 -0.210812 12.4165 -0.3411
173 1 -1.1104 3.67218 2.35141 6.3201
170 1 -1.1104 1.19367 -0.236826 6.60666
309 2 2.2208 8.19421 20.8397 -0.330114
8708 2 2.2208 -0.277474 20.7425 2.43612
167 1 -1.1104 0.975503 2.53738 6.65925
175 2 2.2208 5.26905 1.3065 10.8207
176 1 -1.1104 1.12853 -2.82254 12.3725
177 1 -1.1104 1.02103 2.70165 12.3127
180 1 -1.1104 1.00026 -2.85072 9.64583
181 1 -1.1104 0.944949 2.61904 9.53928
184 1 -1.1104 0.926946 0.0664419 12.313
186 2 2.2208 5.26225 -1.48514 7.94224
187 2 2.2208 5.23902 3.97798 8.03817
188 1 -1.1104 1.08903 -0.117982 9.45074
190 1 -1.1104 3.95595 -2.8869 11.9872
191 1 -1.1104 3.86977 2.86329 12.1666
192 2 2.2208 2.37889 1.19595 8.02691
193 1 -1.1104 3.8907 -2.89616 9.21902
194 1 -1.1104 3.69709 2.72115 9.30187
195 2 2.2208 2.50872 -1.46488 10.8454
196 2 2.2208 2.27277 4.01396 10.8468
197 1 -1.1104 3.73711 0.0704037 12.2875
198 1 -1.1104 3.87353 -0.128367 9.42922
182 1 -1.1104 6.61529 -2.90072 9.46551
179 1 -1.1104 6.7862 2.55314 12.2709
185 1 -1.1104 6.63176 -0.27929 12.1185
189 1 -1.1104 6.71819 -0.121535 9.46583
332 2 2.2208 5.14817 6.82361 -0.417185
165 2 2.2208 8.10947 17.9928 8.2074
29 1 -1.1104 9.53577 16.6214 12.3442
25 2 2.2208 -0.267404 -1.65281 2.31554
229 1 -1.1104 9.49955 19.4286 9.57306
209 1 -1.1104 9.45524 2.48336 6.57985
205 1 -1.1104 12.3767 -3.12907 6.53882
207 1 -1.1104 12.2247 -0.242059 6.52867
81 1 -1.1104 12.213 19.3363 9.4701
8564 2 2.2208 13.6099 1.01534 7.91073
183 1 -1.1104 6.64378 2.50009 9.39857
178 1 -1.1104 6.70005 -3.04501 12.1735
206 1 -1.1104 12.2799 2.58445 6.62035
8666 2 2.2208 13.6782 20.7488 10.8817
211 2 2.2208 10.8844 1.18429 10.7618
212 1 -1.1104 12.24 -3.00608 12.1057
213 1 -1.1104 12.3793 2.52277 12.0286
214 1 -1.1104 12.2352 -3.07281 9.32345
215 1 -1.1104 12.2762 2.38195 9.34309
216 1 -1.1104 12.1347 -0.298274 12.1773
217 2 2.2208 10.9364 -1.6119 8.09514
218 2 2.2208 10.8737 3.98272 8.02716
219 1 -1.1104 12.3303 -0.374206 9.36866
220 1 -1.1104 9.39641 -3.03303 12.2527
221 1 -1.1104 9.54537 2.4985 12.1656
222 2 2.2208 8.15213 1.12729 8.0358
223 1 -1.1104 9.43541 -2.81956 9.34504
224 1 -1.1104 9.51121 2.6388 9.39697
225 2 2.2208 8.05078 -1.62575 10.8532
226 2 2.2208 8.08277 3.88944 10.7973
227 1 -1.1104 9.46072 -0.268638 12.3079
228 1 -1.1104 9.54653 -0.174985 9.46417
8406 2 2.2208 -0.246134 18.0186 10.753
78 1 -1.1104 3.77388 10.7562 6.68495
49 1 -1.1104 12.2886 13.8118 12.2379
234 1 -1.1104 1.18038 8.10655 6.56252
240 2 2.2208 5.29438 6.67172 10.9117
241 2 2.2208 5.18863 12.3956 10.8741
242 1 -1.1104 0.9933 8.35136 12.3939
244 1 -1.1104 0.959134 8.1375 9.5302
246 1 -1.1104 0.809435 5.51302 12.3113
247 1 -1.1104 0.93772 11.0167 12.3451
250 2 2.2208 5.17229 9.37695 8.12223
251 1 -1.1104 1.02055 5.41039 9.54561
252 1 -1.1104 1.0835 11.0062 9.55224
255 1 -1.1104 3.9576 8.19417 12.2356
256 2 2.2208 2.44768 6.76976 8.09145
257 2 2.2208 2.49525 12.3244 8.10905
258 1 -1.1104 3.77912 8.00576 9.64693
259 2 2.2208 2.44215 9.4593 10.9278
260 1 -1.1104 3.87976 5.49122 12.3901
261 1 -1.1104 3.73642 10.9606 12.2052
262 1 -1.1104 3.87721 5.4655 9.47749
263 1 -1.1104 3.93544 10.8118 9.4799
65 1 -1.1104 6.41826 10.9561 6.83228
237 1 -1.1104 6.73422 5.41937 6.63432
254 1 -1.1104 6.73962 11.0326 9.5665
8432 2 2.2208 13.6877 -1.66419 10.7517
8713 2 2.2208 -0.301402 15.2982 2.40612
8706 2 2.2208 13.62 1.23589 2.44545
235 1 -1.1104 6.80429 8.19891 6.59006
243 1 -1.1104 6.68277 8.2242 12.3234
253 1 -1.1104 6.7175 5.24267 9.43402
245 1 -1.1104 6.60588 8.12304 9.41533
249 1 -1.1104 6.512 11.0521 12.4132
308 2 2.2208 11.0262 17.9444 -0.332687
248 1 -1.1104 6.68335 5.32983 12.2464
265 1 -1.1104 12.5542 8.19547 6.65858
264 1 -1.1104 9.53718 11.1 9.39224
268 1 -1.1104 9.45812 5.37119 9.48551
270 1 -1.1104 9.24797 11.062 12.2642
271 1 -1.1104 9.45748 5.3929 12.2692
272 2 2.2208 8.07043 9.70155 11.0095
273 1 -1.1104 9.4212 8.1143 9.4708
274 2 2.2208 7.91508 12.4329 8.13437
275 2 2.2208 8.15163 6.7424 8.12338
276 2 2.2208 10.9565 6.65506 11.0296
277 2 2.2208 10.9126 12.4742 10.8499
278 1 -1.1104 12.4729 8.05509 12.2708
279 1 -1.1104 12.1402 8.38993 9.66111
280 1 -1.1104 12.3115 5.31328 12.3518
281 1 -1.1104 12.2476 10.9251 12.418
282 2 2.2208 10.8539 9.66789 8.13775
283 1 -1.1104 12.2638 5.31038 9.57134
284 1 -1.1104 12.2768 11.0237 9.66839
285 1 -1.1104 9.58581 8.2289 12.3947
200 2 2.2208 -0.216852 -1.54889 7.96895
137 1 -1.1104 9.54562 19.4504 12.2242
50 1 -1.1104 12.3298 19.4517 12.322
124 1 -1.1104 3.72626 13.7668 6.70426
325 2 2.2208 2.34977 4.03385 -0.319091
108 1 -1.1104 1.05626 13.6336 6.55584
204 1 -1.1104 6.67404 16.7509 12.3788
289 1 -1.1104 6.6098 16.6197 9.48664
126 1 -1.1104 3.87296 19.3403 6.70429
51 2 2.2208 2.37054 15.1748 10.8995
52 2 2.2208 2.35983 20.7568 10.8384
202 1 -1.1104 4.00875 16.4595 12.2576
203 1 -1.1104 1.12329 16.646 12.3396
231 1 -1.1104 3.74081 13.6809 9.44014
232 1 -1.1104 3.77892 16.541 9.47932
233 2 2.2208 2.49389 18.0508 8.03543
286 1 -1.1104 3.84391 19.485 12.249
287 1 -1.1104 3.79452 13.6925 12.274
291 1 -1.1104 1.08738 19.2862 9.38297
292 1 -1.1104 1.03199 16.5319 9.46499
293 2 2.2208 5.278 20.8669 8.08236
294 1 -1.1104 0.90898 13.8022 9.43931
295 2 2.2208 5.03818 15.2508 8.05856
298 1 -1.1104 1.0332 19.4558 12.16
299 1 -1.1104 1.04735 13.8574 12.3883
300 2 2.2208 5.28651 17.9976 10.8206
301 1 -1.1104 3.71543 19.3675 9.4867
288 1 -1.1104 6.65216 19.5196 9.59169
290 1 -1.1104 6.64694 13.8815 9.46389
135 1 -1.1104 12.156 16.6122 9.57098
136 1 -1.1104 9.65426 13.8269 12.4757
145 1 -1.1104 12.4591 19.4619 6.72375
230 2 2.2208 8.05368 15.1315 10.9361
28 1 -1.1104 9.44546 16.6418 9.44288
296 1 -1.1104 6.71194 19.6031 12.4235
593 2 2.2208 10.8391 1.22389 -0.394582
297 1 -1.1104 6.66987 13.8669 12.2186
8633 2 2.2208 -0.297532 9.67532 8.07315
8616 2 2.2208 13.6334 12.4236 8.03816
26 2 2.2208 -0.240021 1.14744 5.18019
8481 2 2.2208 13.6712 20.8489 5.27061
8709 2 2.2208 -0.331468 6.79328 5.29883
8431 2 2.2208 -0.278588 20.9199 8.01209
313 2 2.2208 2.40174 6.87582 13.6901
316 2 2.2208 8.10391 6.7608 13.6586
327 2 2.2208 8.09073 9.68677 -0.300062
8009 2 2.2208 10.8308 -4.25333 -0.281909
9004 2 2.2208 13.6824 -1.53027 -0.290932
328 2 2.2208 10.8524 6.86917 -0.197376
8720 2 2.2208 13.5309 1.28232 13.4467
305 2 2.2208 2.41456 1.32127 13.6471
329 2 2.2208 2.52266 15.2696 -0.286446
333 2 2.2208 2.37823 9.66241 -0.267096
330 2 2.2208 5.30829 18.1301 -0.252343
8744 2 2.2208 -0.358803 20.8614 13.6084
336 2 2.2208 5.20567 1.09913 16.3774
337 1 -1.1104 1.09714 -3.05867 17.8139
338 1 -1.1104 0.900463 2.75559 17.807
341 1 -1.1104 0.994033 -2.99889 15.0516
343 1 -1.1104 0.981363 2.536 15.121
349 1 -1.1104 1.03719 -0.177735 17.7405
351 2 2.2208 5.29142 -1.47098 19.2459
352 2 2.2208 5.22636 3.91387 19.2797
353 1 -1.1104 1.08717 -0.208818 15.075
357 1 -1.1104 3.87769 -3.01598 17.8415
358 1 -1.1104 3.68123 2.65668 17.9463
359 2 2.2208 2.35338 1.17893 19.3286
360 1 -1.1104 3.60691 -2.85076 14.8962
362 1 -1.1104 3.76751 2.60086 14.9917
364 2 2.2208 2.36726 -1.50133 16.4759
365 2 2.2208 2.37208 4.1176 16.552
366 1 -1.1104 3.79377 -0.075065 17.811
367 1 -1.1104 3.75906 -0.215195 14.9674
347 1 -1.1104 6.54594 2.63482 15.1048
355 1 -1.1104 6.64981 -0.183211 14.9443
361 1 -1.1104 3.93023 -2.99287 20.6392
368 1 -1.1104 3.8381 -0.100295 20.6148
340 1 -1.1104 6.57326 2.43826 17.8556
339 1 -1.1104 6.66863 -2.98451 17.9952
8719 2 2.2208 13.6846 15.0285 27.7724
319 2 2.2208 2.51678 17.8934 13.774
363 1 -1.1104 3.85646 2.68583 20.71
342 1 -1.1104 1.16811 -2.84081 20.6117
356 1 -1.1104 6.66252 -0.296161 20.587
350 1 -1.1104 6.70083 -0.272226 17.8151
317 2 2.2208 10.9952 9.45769 13.7434
345 1 -1.1104 6.52895 -2.88379 15.077
379 2 2.2208 10.8579 1.13279 16.4759
380 1 -1.1104 12.2505 -3.14992 17.8223
381 1 -1.1104 12.2894 2.53752 17.7857
382 1 -1.1104 12.1912 -3.15172 15.0753
384 1 -1.1104 12.1395 2.57804 15.0779
386 1 -1.1104 12.2684 -0.352376 17.8944
387 2 2.2208 10.8421 -1.81378 19.2134
388 2 2.2208 10.9032 3.92768 19.3101
389 1 -1.1104 12.1301 -0.242372 15.0305
391 1 -1.1104 9.45423 -3.21655 17.8613
392 1 -1.1104 9.49706 2.54604 17.8385
393 2 2.2208 8.05247 1.148 19.2464
394 1 -1.1104 9.43907 -3.07795 15.1178
396 1 -1.1104 9.30416 2.67316 15.0041
398 2 2.2208 8.06877 -1.73651 16.4883
399 2 2.2208 7.99489 3.87096 16.4685
400 1 -1.1104 9.55939 -0.467435 17.9039
401 1 -1.1104 9.42983 -0.113341 15.0278
390 1 -1.1104 12.2025 -0.341641 20.6781
8901 2 2.2208 -0.340007 6.71784 16.4965
348 1 -1.1104 6.62525 2.46258 20.6898
8124 2 2.2208 2.5103 -4.40137 19.343
8017 2 2.2208 2.48948 -4.32895 13.695
8125 2 2.2208 5.13161 -4.28062 16.5346
9007 2 2.2208 -0.277121 -1.61066 24.9374
412 2 2.2208 5.29504 6.74118 16.4828
413 2 2.2208 5.40331 12.4321 16.6536
414 1 -1.1104 1.26636 8.14574 17.8215
416 1 -1.1104 1.03758 8.20964 15.1078
420 1 -1.1104 1.05253 5.47341 17.9478
421 1 -1.1104 0.999848 11.0041 17.938
424 2 2.2208 5.2828 9.54875 19.2608
425 1 -1.1104 0.954669 5.37491 15.0821
427 1 -1.1104 1.16276 10.9628 15.1284
433 1 -1.1104 3.83614 8.28755 17.962
434 2 2.2208 2.40718 6.78487 19.3609
435 2 2.2208 2.41982 12.4637 19.2987
436 1 -1.1104 3.77642 8.24317 15.0945
438 2 2.2208 2.555 9.59843 16.5227
439 1 -1.1104 3.82096 5.25412 17.9112
440 1 -1.1104 3.86784 11.07 17.8979
441 1 -1.1104 3.83907 5.44466 15.2292
443 1 -1.1104 4.00562 10.9189 15.245
442 1 -1.1104 3.83827 5.51 20.7557
418 1 -1.1104 6.60123 8.11011 15.0877
423 1 -1.1104 6.69624 11.0824 17.9576
415 1 -1.1104 6.74408 8.1869 17.8331
426 1 -1.1104 0.943461 5.41841 20.7888
419 1 -1.1104 6.72425 8.18144 20.8008
430 1 -1.1104 6.71195 5.37885 20.7718
8825 2 2.2208 -0.309551 15.1611 24.8241
429 1 -1.1104 6.67303 5.34297 15.1621
431 1 -1.1104 6.78747 10.9441 15.1805
422 1 -1.1104 6.55036 5.33332 17.8958
448 2 2.2208 10.9913 6.75174 16.5701
449 2 2.2208 10.9486 12.3428 16.5483
450 1 -1.1104 12.4962 8.0096 17.8155
451 1 -1.1104 12.3599 8.0353 15.1347
453 1 -1.1104 12.296 5.28154 17.8396
454 1 -1.1104 12.2554 10.9522 17.916
455 2 2.2208 10.844 9.52732 19.3668
456 1 -1.1104 12.4244 5.29557 15.044
458 1 -1.1104 12.3637 10.9989 15.2482
460 1 -1.1104 9.53028 8.0776 17.8108
461 2 2.2208 8.07504 6.77631 19.3978
462 2 2.2208 8.16348 12.4383 19.2985
463 1 -1.1104 9.58858 8.30039 15.258
465 2 2.2208 8.10715 9.58136 16.5042
466 1 -1.1104 9.38863 5.28275 18.0589
467 1 -1.1104 9.52615 10.9736 17.962
468 1 -1.1104 9.56561 5.41378 15.1355
470 1 -1.1104 9.61655 11.0768 15.1148
632 2 2.2208 -0.315359 9.53952 24.8175
457 1 -1.1104 12.3105 5.29415 20.651
469 1 -1.1104 9.51201 5.43015 20.6846
459 1 -1.1104 12.2876 10.876 20.6455
471 1 -1.1104 9.55975 10.9836 20.8027
8900 2 2.2208 -0.251942 9.62587 19.1965
322 2 2.2208 10.8994 20.8487 13.6983
475 2 2.2208 5.30492 18.103 16.4768
476 1 -1.1104 1.07553 13.7975 17.952
477 1 -1.1104 0.986961 19.6306 17.6482
480 1 -1.1104 1.30478 13.7552 15.1643
482 1 -1.1104 1.12179 19.318 15.0101
488 1 -1.1104 1.17281 16.8157 17.9623
490 2 2.2208 5.21585 15.2798 19.4414
491 2 2.2208 5.23435 20.9107 19.3194
492 1 -1.1104 1.05916 16.4256 15.1646
496 1 -1.1104 3.79092 13.9032 18.0269
497 1 -1.1104 4.01799 19.5379 17.8756
498 2 2.2208 2.51216 18.1587 19.2123
499 1 -1.1104 4.02351 13.8034 15.1725
501 1 -1.1104 3.76289 19.3688 15.1779
503 2 2.2208 2.40404 15.219 16.5505
504 2 2.2208 2.50023 20.9238 16.4474
505 1 -1.1104 3.94108 16.5523 17.8359
506 1 -1.1104 3.91282 16.6256 15.0493
479 1 -1.1104 6.76532 19.4502 17.8484
494 1 -1.1104 6.64204 16.6762 15.0882
478 1 -1.1104 6.80494 13.8242 17.8916
489 1 -1.1104 6.49353 16.6153 18.0128
484 1 -1.1104 6.76793 13.7201 15.1182
486 1 -1.1104 6.63842 19.5227 15.2617
507 1 -1.1104 3.99686 16.7186 20.5858
405 1 -1.1104 9.47074 13.7562 26.2287
485 1 -1.1104 6.70751 13.8148 20.7934
493 1 -1.1104 1.13611 16.6137 20.6585
481 1 -1.1104 1.04193 13.7368 20.6271
315 2 2.2208 2.60125 12.3876 13.7577
511 2 2.2208 10.8123 17.9154 16.6996
512 1 -1.1104 12.4451 13.7242 18.0424
513 1 -1.1104 12.2852 19.3929 17.9821
514 1 -1.1104 12.4425 13.6254 15.1207
516 1 -1.1104 12.2565 19.2916 15.2315
518 1 -1.1104 12.234 16.37 17.9928
519 2 2.2208 11.016 15.0511 19.4038
520 2 2.2208 10.8757 20.9522 19.3008
521 1 -1.1104 12.3018 16.5101 15.3006
523 1 -1.1104 9.6572 13.8708 17.9479
524 1 -1.1104 9.48003 19.3671 18.017
525 2 2.2208 8.0718 18.0355 19.3747
526 1 -1.1104 9.50976 13.8559 15.2236
528 1 -1.1104 9.48057 19.5348 15.1126
530 2 2.2208 8.05783 15.314 16.5707
531 2 2.2208 8.07525 20.9196 16.5321
532 1 -1.1104 9.44813 16.5506 17.9304
533 1 -1.1104 9.43654 16.7294 15.1406
522 1 -1.1104 12.2889 16.6591 20.7073
517 1 -1.1104 12.2785 19.6016 20.6663
331 2 2.2208 2.64081 20.7805 27.7093
534 1 -1.1104 9.64245 16.5419 20.7841
529 1 -1.1104 9.50504 19.5026 20.8438
535 2 2.2208 8.14708 18.075 24.9093
344 1 -1.1104 1.00995 2.65506 20.6577
8971 2 2.2208 -0.332295 15.257 19.2288
8789 2 2.2208 13.6304 15.1794 22.2623
369 2 2.2208 8.05257 20.9417 22.0853
354 1 -1.1104 0.97515 -0.101337 20.4576
539 2 2.2208 5.11851 1.24053 22.1144
540 1 -1.1104 0.96797 -3.06562 23.5095
541 1 -1.1104 1.03596 2.69536 23.4792
544 1 -1.1104 1.08303 -2.91889 26.3021
545 1 -1.1104 0.99072 2.82279 26.2061
548 1 -1.1104 1.05136 -0.203609 23.4117
550 2 2.2208 5.20913 -1.61698 24.898
552 1 -1.1104 0.99273 -0.0302057 26.2308
554 1 -1.1104 3.77848 -3.02151 23.4171
555 1 -1.1104 3.85873 2.66817 23.5658
556 2 2.2208 2.378 1.33809 24.922
557 1 -1.1104 3.88473 -2.91783 26.2772
558 1 -1.1104 3.8418 2.77315 26.3203
559 2 2.2208 2.43939 -1.61884 22.0992
560 2 2.2208 2.43139 4.0546 22.1964
561 1 -1.1104 3.71245 -0.104851 23.4043
562 1 -1.1104 3.814 -0.122155 26.2463
551 2 2.2208 5.17751 4.11184 24.8869
553 1 -1.1104 6.59286 -0.196931 26.1368
564 2 2.2208 2.5467 -1.49328 27.6901
324 2 2.2208 8.05843 18.1244 13.7106
8866 2 2.2208 -0.215428 12.3454 16.4423
601 2 2.2208 10.9079 15.197 24.9403
571 1 -1.1104 12.4339 19.3133 23.4522
385 1 -1.1104 12.328 2.49726 20.617
547 1 -1.1104 6.47785 2.64011 26.3014
346 1 -1.1104 6.56568 -2.99669 20.7998
549 1 -1.1104 6.62031 -0.072085 23.4143
395 1 -1.1104 9.43266 -3.07182 20.6691
397 1 -1.1104 9.49648 2.49247 20.6248
402 1 -1.1104 9.43915 -0.159468 20.6057
546 1 -1.1104 6.68865 -3.14253 26.3585
543 1 -1.1104 6.6984 2.60038 23.4989
542 1 -1.1104 6.59441 -3.0011 23.6361
383 1 -1.1104 12.2702 -3.04672 20.7037
575 2 2.2208 10.9377 1.10088 22.052
576 1 -1.1104 12.1989 -3.02592 23.5268
577 1 -1.1104 12.3658 2.43059 23.5587
578 1 -1.1104 12.2986 -2.92496 26.2469
579 1 -1.1104 12.3212 2.62455 26.2092
580 1 -1.1104 12.1949 -0.261018 23.4638
581 2 2.2208 10.8779 -1.65884 24.7592
582 2 2.2208 10.9413 4.01186 24.8541
583 1 -1.1104 12.3025 -0.11857 26.3977
584 1 -1.1104 9.35403 -3.08743 23.4592
585 1 -1.1104 9.50258 2.55732 23.5925
586 2 2.2208 8.01104 1.22992 24.8809
587 1 -1.1104 9.5176 -2.94815 26.2891
588 1 -1.1104 9.40098 2.76737 26.3852
589 2 2.2208 8.03554 -1.59152 22.092
590 2 2.2208 8.12676 3.91112 22.0725
591 1 -1.1104 9.35755 -0.228694 23.433
592 1 -1.1104 9.34829 -0.0692944 26.3366
371 1 -1.1104 9.51232 16.6411 26.2652
600 1 -1.1104 12.3405 16.5213 23.5049
596 1 -1.1104 12.3515 19.236 26.2656
314 2 2.2208 5.29835 9.54448 13.6825
432 1 -1.1104 6.65053 10.9841 20.6834
437 1 -1.1104 3.83104 8.27666 20.6162
417 1 -1.1104 1.11638 8.26726 20.6647
603 1 -1.1104 12.3559 16.4723 26.3795
428 1 -1.1104 1.16636 10.9615 20.6928
444 1 -1.1104 3.9077 11.0842 20.64
604 2 2.2208 5.31631 6.83892 22.0591
605 2 2.2208 5.17857 12.4076 22.0751
606 1 -1.1104 1.10505 8.22506 23.4966
608 1 -1.1104 0.844184 8.23653 26.3582
610 1 -1.1104 1.00243 5.45794 23.6529
611 1 -1.1104 1.0258 11.0015 23.5206
614 2 2.2208 5.33597 9.59057 24.9257
615 1 -1.1104 0.991619 5.50617 26.3612
616 1 -1.1104 1.18835 11.0049 26.3264
619 1 -1.1104 4.0719 8.26289 23.3826
620 2 2.2208 2.29523 6.88867 24.9211
621 2 2.2208 2.47391 12.3202 24.9121
622 1 -1.1104 3.65543 8.35335 26.2805
623 2 2.2208 2.53149 9.62834 22.038
624 1 -1.1104 3.81898 5.43622 23.4992
625 1 -1.1104 3.86195 10.9665 23.5119
626 1 -1.1104 3.85283 5.52639 26.1873
627 1 -1.1104 3.86024 11.0082 26.3048
607 1 -1.1104 6.84759 8.34653 23.6813
602 2 2.2208 10.8442 20.7678 24.9475
612 1 -1.1104 6.50525 5.54936 23.4384
617 1 -1.1104 6.59367 5.42756 26.1686
8972 2 2.2208 -0.345464 18.0913 16.5786
318 2 2.2208 8.12971 12.4338 13.7782
370 1 -1.1104 9.59863 16.6786 23.5532
573 2 2.2208 -0.357675 1.26655 22.1535
566 1 -1.1104 12.2121 13.7143 23.5345
452 1 -1.1104 12.3314 8.08397 20.5761
537 1 -1.1104 9.40232 13.8962 23.5015
487 1 -1.1104 6.60814 19.5096 20.7603
613 1 -1.1104 6.70592 11.0166 23.6075
609 1 -1.1104 6.58131 8.12272 26.3665
464 1 -1.1104 9.54331 8.11237 20.7269
618 1 -1.1104 6.73501 11.0597 26.3347
565 1 -1.1104 9.5313 8.24821 23.5021
567 1 -1.1104 12.2894 10.9306 26.4082
568 1 -1.1104 12.0707 5.54836 26.3477
569 2 2.2208 10.9655 9.47877 24.9732
628 1 -1.1104 12.2839 10.8946 23.3919
629 1 -1.1104 12.2701 5.46292 23.53
631 1 -1.1104 12.3129 8.25534 26.3256
634 1 -1.1104 12.3605 8.17703 23.4104
635 1 -1.1104 9.41944 11.0458 26.3047
636 1 -1.1104 9.31197 5.47762 26.2313
637 1 -1.1104 9.6873 11.0417 23.625
638 1 -1.1104 9.38533 5.33981 23.4583
639 2 2.2208 8.11901 9.68886 22.1763
640 1 -1.1104 9.42923 8.2994 26.3788
641 2 2.2208 8.09135 12.4918 24.9243
642 2 2.2208 8.05974 6.90478 24.8486
643 2 2.2208 10.8878 6.75633 22.2366
644 2 2.2208 10.8459 12.3844 22.0452
8784 2 2.2208 -0.302488 20.6787 24.8484
474 1 -1.1104 6.74209 16.572 26.3917
375 2 2.2208 8.08674 15.1905 22.0618
374 1 -1.1104 6.7662 16.6492 23.5512
509 1 -1.1104 6.7336 13.826 26.4729
500 1 -1.1104 3.8485 13.9019 20.732
495 1 -1.1104 6.80417 16.6859 20.7491
410 1 -1.1104 6.59872 13.8268 23.5318
406 1 -1.1104 6.61347 19.4479 26.1598
502 1 -1.1104 3.84103 19.406 20.7057
483 1 -1.1104 0.924149 19.4723 20.5823
599 1 -1.1104 1.0127 16.5391 23.5029
598 1 -1.1104 3.88437 16.6459 23.5514
376 1 -1.1104 3.7814 13.851 26.2834
377 1 -1.1104 3.87947 16.7412 26.3404
378 2 2.2208 2.51496 18.0189 24.8346
403 1 -1.1104 3.88418 19.5737 26.3488
407 2 2.2208 5.4048 18.0876 22.0577
408 1 -1.1104 1.16403 13.7389 23.3844
409 1 -1.1104 0.976494 19.4 23.5115
411 2 2.2208 5.33348 15.2329 25.0448
445 2 2.2208 5.27072 20.8982 24.8953
447 1 -1.1104 0.97618 13.7558 26.1744
472 1 -1.1104 1.14275 16.5699 26.3894
473 1 -1.1104 1.13893 19.3694 26.3959
508 1 -1.1104 3.9107 13.9355 23.5476
510 1 -1.1104 3.82443 19.4731 23.4129
570 2 2.2208 2.49481 15.3451 22.0997
597 2 2.2208 2.45252 20.8324 22.1041
538 2 2.2208 10.9957 18.0721 22.1986
8826 2 2.2208 13.5972 6.77002 25.0093
536 1 -1.1104 9.52833 19.3463 23.5853
572 1 -1.1104 12.1994 13.596 26.3579
404 1 -1.1104 9.5202 19.3034 26.3338
446 1 -1.1104 6.76558 19.4928 23.4344
515 1 -1.1104 12.3153 13.8386 20.8176
527 1 -1.1104 9.54486 13.6735 20.6957
8992 2 2.2208 13.6194 3.79733 22.0767
633 2 2.2208 -0.348457 12.48 22.0709
323 2 2.2208 10.9314 15.2341 13.7254
8786 2 2.2208 13.5922 -1.70487 16.3573
8785 2 2.2208 13.583 3.88733 16.4866
8715 2 2.2208 13.6094 17.8988 13.6883
321 2 2.2208 5.36825 15.2256 13.6809
563 2 2.2208 5.1767 1.27297 27.6758
306 2 2.2208 5.18165 4.02185 13.7314
8745 2 2.2208 13.6849 3.9785 27.6541
594 2 2.2208 8.22894 -1.51985 27.5537
320 2 2.2208 5.26592 20.8768 13.7167
8743 2 2.2208 -0.394516 15.2427 13.6887
311 2 2.2208 10.9231 -1.73003 13.6721
326 2 2.2208 11.0011 12.2505 27.7339
595 2 2.2208 7.98573 4.11017 27.6048
8790 2 2.2208 -0.321482 1.22293 27.6487
645 2 2.2208 5.40702 23.5509 5.33149
646 2 2.2208 5.16859 29.1781 5.23551
647 1 -1.1104 1.19985 25.0003 1.13426
648 1 -1.1104 1.09407 25.0699 3.95887
649 1 -1.1104 0.941982 22.0917 1.05657
650 1 -1.1104 1.17018 27.7227 0.91835
651 2 2.2208 5.28108 26.4099 2.39529
652 1 -1.1104 1.2816 22.2892 3.83737
653 1 -1.1104 1.08978 27.7591 3.6755
654 1 -1.1104 3.93326 25.2279 1.04748
655 2 2.2208 2.56062 23.6332 2.51909
656 2 2.2208 2.51782 29.1916 2.40353
657 1 -1.1104 4.13634 25.0215 3.77808
658 2 2.2208 2.64709 26.2814 5.3488
659 1 -1.1104 3.87344 22.34 1.17984
660 1 -1.1104 3.92227 27.8418 1.12488
661 1 -1.1104 4.16346 22.1564 4.01258
662 1 -1.1104 3.74163 27.7577 3.90971
669 1 -1.1104 6.74447 27.8234 1.03495
667 1 -1.1104 6.92329 24.9521 3.85642
671 1 -1.1104 6.51024 27.8277 3.95984
792 1 -1.1104 4.00376 24.9426 6.6606
793 1 -1.1104 3.8995 22.2033 6.79605
790 1 -1.1104 6.75712 22.0738 6.61984
1338 1 -1.1104 9.54992 47.3931 1.25689
788 1 -1.1104 1.11004 22.2934 6.66723
786 1 -1.1104 1.14729 25.1178 6.7572
787 1 -1.1104 6.74593 25.0882 6.58499
937 1 -1.1104 9.70486 44.6604 9.40957
9446 2 2.2208 -0.201185 43.1601 13.6642
1034 2 2.2208 -0.238547 40.4666 -0.296059
670 1 -1.1104 6.95522 22.0896 3.89214
668 1 -1.1104 6.77839 22.2893 1.09645
666 1 -1.1104 6.67127 25.0687 1.02938
672 2 2.2208 10.9476 23.5695 5.38372
673 2 2.2208 10.832 29.0458 5.21658
674 1 -1.1104 12.293 25.1322 1.06126
675 1 -1.1104 12.4991 24.904 3.86485
676 1 -1.1104 12.2425 22.1926 1.01372
677 1 -1.1104 12.474 27.8878 1.14634
678 2 2.2208 11.0317 26.3006 2.52606
679 1 -1.1104 12.2573 22.2411 3.83819
680 1 -1.1104 12.125 27.6874 3.9477
681 1 -1.1104 9.4772 24.8923 1.08381
682 2 2.2208 8.24934 23.598 2.55441
683 2 2.2208 8.0884 29.2765 2.43822
684 1 -1.1104 9.77529 24.9791 3.91936
685 2 2.2208 8.05831 26.4144 5.2826
686 1 -1.1104 9.56723 22.1261 1.05396
687 1 -1.1104 9.57218 27.7207 1.08356
688 1 -1.1104 9.47393 22.1242 3.95688
689 1 -1.1104 9.4014 27.7196 3.80042
824 1 -1.1104 9.52877 27.6747 6.59157
942 1 -1.1104 9.60315 41.8303 9.38869
9532 2 2.2208 -0.335386 34.6976 -0.311116
9411 2 2.2208 -0.190519 37.7238 2.53594
1483 1 -1.1104 1.17286 47.5405 12.0089
693 2 2.2208 5.31866 34.7491 5.22834
694 1 -1.1104 1.11307 30.7457 0.937554
695 1 -1.1104 1.10867 36.283 0.970803
697 1 -1.1104 1.27185 30.7027 3.6895
698 1 -1.1104 1.071 36.3266 3.81694
700 1 -1.1104 1.07306 33.4509 1.07673
701 2 2.2208 5.38824 32.0461 2.39595
702 2 2.2208 5.32377 37.5783 2.55447
703 1 -1.1104 1.01299 33.4377 3.9664
705 1 -1.1104 3.83729 30.495 0.987713
706 1 -1.1104 3.96901 36.3617 1.12568
707 2 2.2208 2.52191 34.7969 2.36045
708 1 -1.1104 3.95192 30.6913 3.66863
709 1 -1.1104 3.89495 36.2584 3.8648
710 2 2.2208 2.4818 31.9959 5.19
711 2 2.2208 2.62394 37.6387 5.2491
712 1 -1.1104 3.99482 33.406 1.09313
713 1 -1.1104 3.73967 33.5393 3.81855
717 1 -1.1104 6.84593 30.601 0.934625
851 1 -1.1104 3.9375 33.4739 6.63769
849 1 -1.1104 3.9567 30.563 6.57057
699 1 -1.1104 6.7612 36.2022 3.89622
943 2 2.2208 8.13086 46.0436 8.15831
9405 2 2.2208 -0.186593 29.055 5.1945
9422 2 2.2208 -0.208339 40.38 10.8834
9407 2 2.2208 -0.318253 23.6212 5.18389
718 1 -1.1104 6.82909 30.728 3.56431
696 1 -1.1104 6.75524 36.3028 0.935069
719 1 -1.1104 6.79015 33.4146 0.917643
704 1 -1.1104 6.71446 33.4428 3.74917
784 1 -1.1104 12.3641 44.7218 12.2316
720 2 2.2208 10.8981 34.7713 5.27651
721 1 -1.1104 12.3122 30.5596 1.15806
722 1 -1.1104 12.3466 36.1562 1.23813
723 1 -1.1104 12.226 30.6145 3.90447
724 1 -1.1104 12.4033 36.2626 3.90027
725 1 -1.1104 12.2505 33.5077 0.954383
726 2 2.2208 10.9386 32.1182 2.37925
727 2 2.2208 10.9481 37.5916 2.44999
728 1 -1.1104 12.2347 33.4171 3.76791
729 1 -1.1104 9.5017 30.6091 1.09926
730 1 -1.1104 9.49718 36.2751 0.922043
731 2 2.2208 8.29039 34.8845 2.27063
732 1 -1.1104 9.46383 30.5505 3.90435
733 1 -1.1104 9.64377 36.0881 3.65175
734 2 2.2208 8.13016 31.9624 5.10888
735 2 2.2208 7.98468 37.4849 5.30483
736 1 -1.1104 9.48213 33.4704 0.870595
737 1 -1.1104 9.48258 33.4481 3.74883
773 1 -1.1104 12.4131 39.0576 3.90456
9420 2 2.2208 -0.24476 43.1594 8.12985
845 1 -1.1104 6.65263 30.5211 6.4932
881 1 -1.1104 9.46992 36.2134 6.58717
879 1 -1.1104 12.4042 33.218 6.55117