ITEM: TIMESTEP
90000
ITEM: NUMBER OF ATOMS
17670
ITEM: BOX BOUNDS pp pp pp
-3.5420246391380844e-01 2.7694202463914269e+01
-4.3307539129672641e+00 3.3241075391296118e+02
-3.5730698610646250e-01 2.7697306986106671e+01
ITEM: ATOMS id type q x y z
1 2 2.2208 5.17785 1.22688 5.13842
2 1 -1.1104 0.928947 -2.97785 1.06987
3 1 -1.1104 0.925212 2.55005 1.14789
6 1 -1.1104 1.22126 -2.95143 3.83501
7 1 -1.1104 0.94562 2.7359 3.75438
10 1 -1.1104 1.01556 -0.106307 1.1315
12 2 2.2208 5.35458 -1.50286 2.45186
13 2 2.2208 5.37154 4.05304 2.50626
14 1 -1.1104 0.980615 -0.190372 3.95655
16 1 -1.1104 3.92555 -3.03249 0.888135
17 1 -1.1104 3.81441 2.58301 1.1292
18 2 2.2208 2.38002 1.19975 2.41996
19 1 -1.1104 3.94711 -2.92063 3.7867
20 1 -1.1104 3.85175 2.5722 3.80037
21 2 2.2208 2.44119 -1.55765 5.24127
22 2 2.2208 2.48467 4.07127 5.17014
23 1 -1.1104 3.91145 -0.287676 1.12215
24 1 -1.1104 3.92026 -0.200213 3.81775
4 1 -1.1104 6.66771 -3.00375 1.01128
5 1 -1.1104 6.76886 2.71039 1.16599
9 1 -1.1104 6.58053 2.69148 3.83292
15 1 -1.1104 6.66621 -0.0398828 3.72717
8 1 -1.1104 6.78089 -2.98986 3.86975
173 1 -1.1104 3.93313 2.72629 6.5789
168 1 -1.1104 6.81424 -2.7687 6.65424
11 1 -1.1104 6.62999 -0.0644483 0.89887
172 1 -1.1104 3.89427 -2.90745 6.72018
174 1 -1.1104 3.72453 -0.0217301 6.5358
166 1 -1.1104 0.933825 -3.02567 6.59367
171 1 -1.1104 6.6651 -0.090841 6.55624
170 1 -1.1104 1.00111 -0.205065 6.64396
169 1 -1.1104 6.72954 2.66256 6.64334
167 1 -1.1104 1.11871 2.65066 6.64929
7998 2 2.2208 8.14088 -4.33973 2.44222
8481 2 2.2208 13.577 21.0273 5.26129
31 2 2.2208 10.9611 1.32795 5.12093
32 1 -1.1104 12.3704 -2.99621 1.01398
33 1 -1.1104 12.0932 2.56517 0.985112
34 1 -1.1104 12.4427 -2.8828 3.87509
35 1 -1.1104 12.3247 2.58626 3.74944
36 1 -1.1104 12.1358 -0.291167 0.840393
37 2 2.2208 10.8648 -1.56914 2.3236
38 2 2.2208 10.803 4.0796 2.48603
39 1 -1.1104 12.3607 -0.168645 3.71143
40 1 -1.1104 9.56863 -2.91508 0.933191
41 1 -1.1104 9.54147 2.53992 0.983092
42 2 2.2208 8.09585 1.29246 2.41629
43 1 -1.1104 9.57412 -2.92494 3.79161
44 1 -1.1104 9.55375 2.58416 3.82861
45 2 2.2208 8.14403 -1.41682 5.21362
46 2 2.2208 8.12904 4.06903 5.2859
47 1 -1.1104 9.32711 -0.0818835 1.03241
48 1 -1.1104 9.59952 -0.110698 3.75204
209 1 -1.1104 9.389 2.83791 6.59071
205 1 -1.1104 12.3094 -2.81861 6.77056
206 1 -1.1104 12.1689 2.83386 6.6064
210 1 -1.1104 9.49908 -0.0605123 6.54006
207 1 -1.1104 12.3972 0.0333147 6.54254
8004 2 2.2208 10.8012 -4.22538 10.926
8000 2 2.2208 2.50355 -4.30682 7.98339
208 1 -1.1104 9.57613 -2.78936 6.53431
8705 2 2.2208 13.5394 18.0904 8.12739
54 2 2.2208 5.20848 6.9002 5.26106
55 2 2.2208 5.2126 12.5154 5.16066
56 1 -1.1104 1.0087 8.22933 1.05928
58 1 -1.1104 1.01122 8.21548 3.85891
60 1 -1.1104 0.871083 5.4902 1.21858
61 1 -1.1104 0.974545 11.05 1.04038
66 2 2.2208 5.20933 9.54861 2.3851
67 1 -1.1104 1.01996 5.48064 3.95956
68 1 -1.1104 0.937779 10.9987 3.73136
71 1 -1.1104 3.82133 8.28778 1.08798
72 2 2.2208 2.43684 6.8233 2.53096
73 2 2.2208 2.3529 12.5802 2.39369
74 1 -1.1104 3.83039 8.22721 3.9027
75 2 2.2208 2.33563 9.70899 5.22112
76 1 -1.1104 3.64356 5.35361 1.04778
77 1 -1.1104 3.8645 11.0707 0.966279
79 1 -1.1104 3.71313 5.49431 3.87683
80 1 -1.1104 3.72474 11.0945 3.81757
69 1 -1.1104 6.71444 5.39826 3.88027
70 1 -1.1104 6.59299 11.1811 3.95495
57 1 -1.1104 6.51858 8.16424 1.00631
78 1 -1.1104 3.80377 11.2232 6.61423
59 1 -1.1104 6.54383 8.31854 3.76561
64 1 -1.1104 6.68264 11.0731 1.10352
63 1 -1.1104 6.69592 5.46976 0.978768
237 1 -1.1104 6.65447 5.60461 6.54314
235 1 -1.1104 6.46354 8.32709 6.72986
234 1 -1.1104 1.15908 8.08232 6.60535
239 1 -1.1104 3.84672 5.39964 6.65775
62 1 -1.1104 1.07668 11.1165 6.56902
319 2 2.2208 2.41788 18.0727 13.8708
8003 2 2.2208 8.25089 -4.27843 7.95495
84 2 2.2208 10.794 6.80255 5.31318
85 2 2.2208 10.842 12.5721 5.18702
86 1 -1.1104 12.1265 8.22164 1.08101
87 1 -1.1104 12.1281 8.32272 3.93173
88 1 -1.1104 12.4376 5.56633 1.07101
89 1 -1.1104 12.3762 10.8796 0.989134
91 2 2.2208 10.8317 9.59356 2.42671
92 1 -1.1104 12.1466 5.40451 3.80998
93 1 -1.1104 12.2978 11.1419 3.66897
94 1 -1.1104 9.30815 8.22604 0.876735
95 2 2.2208 7.97674 6.95572 2.42791
96 2 2.2208 7.97716 12.4545 2.46605
97 1 -1.1104 9.32011 8.34377 3.7928
98 2 2.2208 7.90739 9.72919 5.27636
99 1 -1.1104 9.44907 5.42474 1.04713
100 1 -1.1104 9.51876 11.0525 0.961682
102 1 -1.1104 9.59005 5.48782 3.86913
103 1 -1.1104 9.47422 11.1181 3.75507
266 1 -1.1104 12.3625 5.60478 6.64251
269 1 -1.1104 9.4218 5.51734 6.65879
265 1 -1.1104 12.2632 8.3494 6.62857
267 1 -1.1104 9.3 8.36434 6.55152
90 1 -1.1104 12.2958 11.1189 6.59088
8711 2 2.2208 13.7047 12.5657 2.44251
8001 2 2.2208 5.23335 -4.1874 10.6961
112 1 -1.1104 6.50026 19.3893 6.51743
106 2 2.2208 5.19106 18.1085 5.18163
107 1 -1.1104 0.825315 13.8796 1.13658
109 1 -1.1104 0.992309 19.7215 0.841053
113 1 -1.1104 0.998642 13.9218 3.959
114 1 -1.1104 0.978883 19.5065 3.74024
116 1 -1.1104 0.933334 16.7989 1.00033
119 2 2.2208 5.2501 15.3068 2.30015
120 2 2.2208 5.1759 20.9474 2.59914
121 1 -1.1104 0.980672 16.6968 3.62849
123 1 -1.1104 3.74136 13.9764 0.948992
125 1 -1.1104 3.68215 19.5753 1.02855
127 2 2.2208 2.2973 18.1459 2.3742
128 1 -1.1104 3.82023 13.9472 3.79337
129 1 -1.1104 3.72436 19.5841 3.82326
130 2 2.2208 2.33703 15.3066 5.1404
131 2 2.2208 2.31001 20.925 5.18879
132 1 -1.1104 3.68057 16.7618 1.05275
134 1 -1.1104 3.5977 16.7 3.87151
139 1 -1.1104 6.65298 19.4154 3.84296
140 1 -1.1104 6.59678 16.8531 0.897379
122 1 -1.1104 6.481 16.631 3.70803
115 1 -1.1104 6.48176 14.0012 3.69785
138 1 -1.1104 6.52187 19.6183 1.11628
133 1 -1.1104 3.83328 16.6876 6.46737
108 1 -1.1104 0.893918 13.8412 6.69399
117 1 -1.1104 0.951319 16.8418 6.52447
126 1 -1.1104 3.63682 19.4911 6.75697
124 1 -1.1104 3.76227 13.9768 6.76588
302 1 -1.1104 0.885254 19.6078 6.62815
7996 2 2.2208 5.39407 -4.26294 5.21749
110 1 -1.1104 6.5384 13.8843 0.910534
324 2 2.2208 8.04483 18.0733 13.6353
156 1 -1.1104 9.40782 19.5469 6.71046
141 2 2.2208 10.8257 18.2284 5.25338
142 1 -1.1104 12.137 13.7918 1.10814
144 1 -1.1104 12.2236 19.3936 1.04749
146 1 -1.1104 12.2154 13.9581 3.76152
147 1 -1.1104 12.2273 19.6262 3.7951
148 1 -1.1104 12.0923 16.7111 1.07909
150 2 2.2208 10.8056 15.3118 2.49187
151 2 2.2208 10.728 20.8441 2.32949
152 1 -1.1104 12.2373 16.8412 3.82907
153 1 -1.1104 9.33393 13.9472 1.03658
155 1 -1.1104 9.40688 19.6081 0.869385
157 2 2.2208 7.97562 18.1571 2.41347
158 1 -1.1104 9.38715 14.0241 3.82078
159 1 -1.1104 9.3354 19.6163 3.84318
160 2 2.2208 7.9171 15.4212 5.29346
161 2 2.2208 8.03681 20.9861 5.25762
162 1 -1.1104 9.36094 16.8184 1.11554
164 1 -1.1104 9.42891 16.8364 3.82382
143 1 -1.1104 12.3305 13.7842 6.48944
149 1 -1.1104 12.0744 16.6094 6.56193
154 1 -1.1104 9.44457 13.8462 6.65893
145 1 -1.1104 12.0803 19.5547 6.64049
305 2 2.2208 2.38498 1.32064 13.7127
175 2 2.2208 5.24808 1.3774 10.878
176 1 -1.1104 1.06247 -2.74624 12.1521
177 1 -1.1104 0.918562 2.65422 12.2868
180 1 -1.1104 0.922842 -3.00071 9.32455
181 1 -1.1104 1.13301 2.72253 9.53396
184 1 -1.1104 0.933793 -0.146722 12.2186
186 2 2.2208 5.37823 -1.46244 8.0166
187 2 2.2208 5.35012 4.17007 7.95129
188 1 -1.1104 0.979225 0.0431507 9.36554
190 1 -1.1104 3.69878 -2.78312 12.1863
191 1 -1.1104 3.67284 2.77628 12.3028
192 2 2.2208 2.51156 1.54765 8.02514
193 1 -1.1104 3.85942 -2.70565 9.47514
194 1 -1.1104 4.01417 2.85981 9.43649
195 2 2.2208 2.40067 -1.29949 10.7428
196 2 2.2208 2.35869 4.20152 10.9106
197 1 -1.1104 3.68856 -0.00748388 12.4239
198 1 -1.1104 3.75307 0.100177 9.50392
179 1 -1.1104 6.61933 2.74384 12.408
185 1 -1.1104 6.73312 -0.0696766 12.2963
183 1 -1.1104 6.66194 2.71699 9.49568
182 1 -1.1104 6.62488 -2.83027 9.33031
8706 2 2.2208 13.6427 1.18564 2.33863
318 2 2.2208 7.93211 12.3474 13.7276
178 1 -1.1104 6.4985 -2.62697 12.1844
8666 2 2.2208 13.6532 20.9451 10.775
49 1 -1.1104 12.3126 13.7539 12.2686
314 2 2.2208 5.11448 9.58201 13.65
7995 2 2.2208 2.50531 -4.38598 2.36132
199 1 -1.1104 9.26369 14.034 9.4232
189 1 -1.1104 6.48765 0.027579 9.37483
8720 2 2.2208 13.723 1.2427 13.6243
8002 2 2.2208 -0.36354 -4.26426 10.8591
320 2 2.2208 5.36503 21.0163 13.6445
211 2 2.2208 10.7448 1.33882 10.8158
212 1 -1.1104 12.2189 -2.99625 12.2388
213 1 -1.1104 12.1849 2.70581 12.2866
214 1 -1.1104 12.4168 -2.80523 9.50118
215 1 -1.1104 12.4145 2.75918 9.41811
216 1 -1.1104 12.3493 -0.0530249 12.1759
217 2 2.2208 10.8735 -1.40962 7.99172
218 2 2.2208 10.7478 4.06406 8.10617
219 1 -1.1104 12.0128 0.0331087 9.38349
220 1 -1.1104 9.35413 -2.83194 12.1092
221 1 -1.1104 9.33859 2.70513 12.1753
222 2 2.2208 7.97856 1.43151 7.95313
223 1 -1.1104 9.4539 -2.81159 9.39855
224 1 -1.1104 9.42212 2.61677 9.37575
225 2 2.2208 8.02335 -1.38103 10.7876
226 2 2.2208 7.96207 4.16812 10.9738
227 1 -1.1104 9.53835 -0.187381 12.1463
228 1 -1.1104 9.1569 -0.148735 9.23006
321 2 2.2208 5.29274 15.3466 13.7322
165 2 2.2208 7.87872 18.1655 8.12422
135 1 -1.1104 12.1214 16.7627 9.46052
8432 2 2.2208 13.7786 -1.55768 10.8099
238 1 -1.1104 3.71017 8.2389 6.69967
236 1 -1.1104 0.987398 5.29341 6.69743
65 1 -1.1104 6.70889 11.0403 6.70297
240 2 2.2208 5.25179 6.84839 10.7987
241 2 2.2208 5.18499 12.4319 10.7341
242 1 -1.1104 0.938351 8.29632 12.2174
244 1 -1.1104 0.94663 8.35234 9.38195
246 1 -1.1104 0.957554 5.47337 12.37
247 1 -1.1104 0.95806 11.1632 12.1879
250 2 2.2208 5.05841 9.76107 8.0519
251 1 -1.1104 1.21093 5.57767 9.63763
252 1 -1.1104 1.08345 11.1479 9.38733
255 1 -1.1104 3.89068 8.28368 12.2005
256 2 2.2208 2.36692 6.85303 8.0336
257 2 2.2208 2.36311 12.5243 7.92502
258 1 -1.1104 3.67971 8.29226 9.39123
259 2 2.2208 2.37099 9.73023 10.9392
260 1 -1.1104 3.79025 5.44782 12.3049
261 1 -1.1104 3.85459 11.0735 12.17
262 1 -1.1104 3.90013 5.64814 9.51528
263 1 -1.1104 3.83177 11.0518 9.42164
254 1 -1.1104 6.62787 11.0252 9.42442
243 1 -1.1104 6.67189 8.19864 12.3988
253 1 -1.1104 6.73683 5.48209 9.37436
248 1 -1.1104 6.68477 5.44335 12.275
249 1 -1.1104 6.60087 10.9113 12.1965
245 1 -1.1104 6.61016 8.25836 9.49192
104 2 2.2208 10.7039 15.3891 8.07599
8704 2 2.2208 13.5099 15.3774 10.7975
136 1 -1.1104 9.53201 13.8309 12.2868
8615 2 2.2208 13.637 6.95902 8.02658
101 1 -1.1104 9.44666 11.0752 6.45338
8012 2 2.2208 5.31862 -4.35418 -0.437078
264 1 -1.1104 9.63204 11.1192 9.44709
268 1 -1.1104 9.57676 5.5364 9.58874
270 1 -1.1104 9.48591 11.0975 12.2804
271 1 -1.1104 9.44587 5.49813 12.2859
272 2 2.2208 7.99826 9.5779 10.8908
273 1 -1.1104 9.38921 8.2789 9.40987
274 2 2.2208 7.96766 12.501 7.98134
275 2 2.2208 8.02925 6.86942 8.09136
276 2 2.2208 10.937 6.93299 10.9212
277 2 2.2208 10.9139 12.4907 10.7445
278 1 -1.1104 12.3979 8.31139 12.1881
279 1 -1.1104 12.2615 8.37281 9.34416
280 1 -1.1104 12.3489 5.50726 12.239
281 1 -1.1104 12.3122 11.0256 12.0533
282 2 2.2208 10.7633 9.71442 8.05955
283 1 -1.1104 12.1906 5.51577 9.45474
284 1 -1.1104 12.3429 11.1232 9.46016
285 1 -1.1104 9.38755 8.19677 12.2269
8620 2 2.2208 13.7581 9.75747 10.6806
316 2 2.2208 8.03701 6.82611 13.6917
229 1 -1.1104 9.45771 19.7243 9.38521
118 1 -1.1104 6.53035 16.6848 6.5583
8502 2 2.2208 13.5754 15.3229 5.13616
111 1 -1.1104 6.58824 13.8166 6.52874
310 2 2.2208 8.05018 1.12948 13.7119
8599 2 2.2208 13.668 18.0478 2.4641
289 1 -1.1104 6.61284 16.6373 9.47057
290 1 -1.1104 6.54553 13.8607 9.34443
301 1 -1.1104 3.5752 19.4673 9.46338
51 2 2.2208 2.32015 15.3106 10.7635
52 2 2.2208 2.37513 20.9321 10.8629
202 1 -1.1104 3.82652 16.7558 12.315
203 1 -1.1104 1.01345 16.7293 12.2647
231 1 -1.1104 3.71363 13.927 9.31867
232 1 -1.1104 3.82474 16.7391 9.53746
233 2 2.2208 2.37941 17.9757 7.97717
286 1 -1.1104 3.95296 19.6508 12.1923
287 1 -1.1104 3.807 13.875 12.1462
291 1 -1.1104 0.79431 19.4698 9.16651
292 1 -1.1104 1.07246 16.6502 9.34971
293 2 2.2208 5.07743 20.9951 8.06343
294 1 -1.1104 0.94701 13.9861 9.45227
295 2 2.2208 5.1093 15.2465 8.10069
298 1 -1.1104 0.989306 19.5898 12.3238
299 1 -1.1104 0.998067 13.97 12.1902
300 2 2.2208 5.16719 18.0747 10.9004
297 1 -1.1104 6.67759 13.7111 12.3247
288 1 -1.1104 6.4699 19.6015 9.41058
296 1 -1.1104 6.70146 19.3575 12.1383
204 1 -1.1104 6.6715 16.6284 12.2314
230 2 2.2208 7.91773 15.2633 10.8355
30 2 2.2208 8.04925 20.9891 10.7661
137 1 -1.1104 9.45002 19.3837 12.2213
83 1 -1.1104 12.1048 16.5576 12.1802
105 2 2.2208 10.859 21.0784 8.03034
53 1 -1.1104 12.1959 13.9763 9.28758
29 1 -1.1104 9.3771 16.6175 12.266
8729 2 2.2208 13.7264 6.87124 13.7293
28 1 -1.1104 9.2234 16.8977 9.51106
163 1 -1.1104 9.27313 16.7789 6.63129
27 2 2.2208 10.6549 18.134 10.8097
81 1 -1.1104 12.1625 19.5215 9.39523
50 1 -1.1104 12.2935 19.5439 12.2284
332 2 2.2208 5.21463 6.90179 -0.464536
304 2 2.2208 5.07949 -1.43485 13.5937
323 2 2.2208 10.9389 15.2316 13.6795
7999 2 2.2208 10.9039 -4.18688 5.20016
8005 2 2.2208 13.6559 -4.26685 8.09124
200 2 2.2208 -0.362692 -1.48079 8.00956
8431 2 2.2208 -0.387531 20.9549 7.95861
82 2 2.2208 -0.429306 9.62262 2.4889
8744 2 2.2208 -0.353768 20.9579 13.6572
8539 2 2.2208 13.5749 4.07533 10.8826
8433 2 2.2208 13.4865 9.72074 5.15691
8712 2 2.2208 13.5611 6.94834 2.42415
313 2 2.2208 2.30388 6.84547 13.5763
8014 2 2.2208 8.04236 -4.18671 13.6126
325 2 2.2208 2.37014 4.12708 -0.212604
8017 2 2.2208 2.38318 -4.31276 13.6065
8731 2 2.2208 13.6351 12.3874 13.5818
333 2 2.2208 2.47847 9.66188 -0.380535
322 2 2.2208 10.83 20.866 13.6034
317 2 2.2208 10.9443 9.70167 13.5777
311 2 2.2208 10.9855 -1.42658 13.617
336 2 2.2208 5.20902 1.19978 16.4267
337 1 -1.1104 0.879166 -2.9059 17.8724
338 1 -1.1104 0.895472 2.56792 17.8101
341 1 -1.1104 0.92099 -3.09842 15.0174
343 1 -1.1104 1.05187 2.55219 14.967
349 1 -1.1104 1.08108 -0.209437 17.9109
351 2 2.2208 5.27985 -1.63892 19.2539
352 2 2.2208 5.20599 3.97304 19.2177
353 1 -1.1104 0.994321 -0.122977 15.0683
357 1 -1.1104 3.86906 -2.91355 17.9376
358 1 -1.1104 3.82519 2.577 17.9663
359 2 2.2208 2.44894 1.23128 19.2259
360 1 -1.1104 3.97391 -3.06106 15.0013
362 1 -1.1104 3.75162 2.55949 15.0005
364 2 2.2208 2.41371 -1.62603 16.5094
365 2 2.2208 2.48783 3.90913 16.4823
366 1 -1.1104 3.82827 -0.29315 17.7735
367 1 -1.1104 3.82057 -0.266115 15.0998
350 1 -1.1104 6.65828 -0.177844 17.7718
339 1 -1.1104 6.6319 -2.94211 17.8379
345 1 -1.1104 6.71479 -2.8889 15.0187
347 1 -1.1104 6.50495 2.61808 14.9815
361 1 -1.1104 3.90044 -2.90015 20.6564
342 1 -1.1104 1.14176 -2.93413 20.7463
348 1 -1.1104 6.54194 2.41218 20.6312
356 1 -1.1104 6.7455 -0.298974 20.5871
354 1 -1.1104 1.03121 0.0159552 20.6054
355 1 -1.1104 6.64957 -0.12383 15.0662
340 1 -1.1104 6.47827 2.65596 17.6917
346 1 -1.1104 6.80636 -2.99133 20.6452
368 1 -1.1104 3.76489 -0.189264 20.6804
344 1 -1.1104 1.10288 2.65045 20.7313
8087 2 2.2208 5.24376 -4.34564 22.0524
8153 2 2.2208 -0.445236 -4.4122 16.4224
379 2 2.2208 10.791 1.25329 16.3801
380 1 -1.1104 12.1911 -2.91437 17.7217
381 1 -1.1104 12.0381 2.64833 17.9262
382 1 -1.1104 12.2143 -3.06951 14.9229
384 1 -1.1104 12.0555 2.73204 15.1256
386 1 -1.1104 12.2537 -0.164563 17.7368
387 2 2.2208 10.8209 -1.56011 19.1405
388 2 2.2208 10.8114 3.85043 19.3383
389 1 -1.1104 12.4663 -0.076792 15.0044
391 1 -1.1104 9.35401 -3.0211 17.7982
392 1 -1.1104 9.30495 2.5524 17.6474
393 2 2.2208 7.90986 1.15968 19.2193
394 1 -1.1104 9.48057 -2.89954 14.9271
396 1 -1.1104 9.37085 2.68427 14.8937
398 2 2.2208 8.00129 -1.55546 16.4051
400 1 -1.1104 9.53197 -0.201976 17.7431
401 1 -1.1104 9.56874 -0.129336 15.018
399 2 2.2208 8.07123 4.06033 16.4168
8715 2 2.2208 13.6756 18.1342 13.5094
385 1 -1.1104 12.339 2.58185 20.6199
390 1 -1.1104 12.3117 -0.295498 20.3883
8124 2 2.2208 2.35825 -4.35266 19.1491
402 1 -1.1104 9.44904 -0.191722 20.563
383 1 -1.1104 12.3537 -3.01257 20.714
593 2 2.2208 10.775 1.15352 27.6612
395 1 -1.1104 9.50655 -3.00485 20.5153
308 2 2.2208 10.8528 18.1948 27.6687
594 2 2.2208 8.04032 -1.58566 27.7474
412 2 2.2208 5.15484 6.78078 16.4035
413 2 2.2208 5.22508 12.4726 16.4862
414 1 -1.1104 0.975086 8.23492 17.9467
416 1 -1.1104 0.863426 8.1832 15.0654
420 1 -1.1104 1.11967 5.35688 17.8475
421 1 -1.1104 1.06554 11.0306 17.8672
424 2 2.2208 5.19398 9.74458 19.3293
425 1 -1.1104 0.972686 5.32675 15.1172
427 1 -1.1104 0.923991 11.1805 14.9789
433 1 -1.1104 3.82905 8.40805 17.8146
434 2 2.2208 2.46545 6.96419 19.3506
435 2 2.2208 2.55081 12.5694 19.3469
436 1 -1.1104 3.67189 8.09177 14.9756
438 2 2.2208 2.33452 9.65109 16.3992
439 1 -1.1104 3.73953 5.48814 17.9547
440 1 -1.1104 3.91349 11.0462 17.8625
441 1 -1.1104 3.94346 5.35364 15.004
443 1 -1.1104 3.71632 11.1148 15.0493
415 1 -1.1104 6.67986 8.24794 18.0093
422 1 -1.1104 6.59738 5.436 17.8804
431 1 -1.1104 6.5127 10.8399 14.9151
418 1 -1.1104 6.54555 8.11231 15.0966
423 1 -1.1104 6.60018 11.1173 17.8384
419 1 -1.1104 6.56974 8.1509 20.6482
429 1 -1.1104 6.80527 5.41535 15.054
430 1 -1.1104 6.67801 5.39228 20.6731
417 1 -1.1104 0.898489 8.25638 20.7315
428 1 -1.1104 1.15998 10.9837 20.8745
437 1 -1.1104 3.79348 8.39403 20.7417
444 1 -1.1104 3.88123 11.1403 20.7543
564 2 2.2208 2.51831 -1.48915 27.712
8719 2 2.2208 13.5622 15.2164 27.8138
8860 2 2.2208 13.6797 6.85012 19.2228
432 1 -1.1104 6.65744 11.0733 20.7303
8861 2 2.2208 13.6117 12.5256 19.2822
448 2 2.2208 10.8282 7.05874 16.4502
449 2 2.2208 10.739 12.3981 16.4946
450 1 -1.1104 12.2086 8.35315 17.8299
451 1 -1.1104 12.3316 8.3698 15.0249
453 1 -1.1104 12.2583 5.5429 17.9558
454 1 -1.1104 12.1448 11.1025 17.9207
455 2 2.2208 10.7836 9.64819 19.2031
456 1 -1.1104 12.1609 5.59689 15.0592
458 1 -1.1104 12.1711 11.075 14.9901
460 1 -1.1104 9.39449 8.278 17.6872
461 2 2.2208 8.12446 6.8357 19.2031
462 2 2.2208 7.98314 12.3925 19.1891
463 1 -1.1104 9.37366 8.40563 14.9876
465 2 2.2208 7.87317 9.5748 16.3858
466 1 -1.1104 9.3066 5.49715 17.774
467 1 -1.1104 9.41497 11.0493 17.7942
468 1 -1.1104 9.52007 5.60408 15.0036
470 1 -1.1104 9.3298 11.1657 15.0901
457 1 -1.1104 12.1312 5.41889 20.681
8859 2 2.2208 13.609 9.75106 16.5237
8789 2 2.2208 13.6421 15.3243 22.1499
487 1 -1.1104 6.54439 19.5776 20.6254
495 1 -1.1104 6.45535 16.7489 20.6213
475 2 2.2208 5.22859 18.2193 16.4133
476 1 -1.1104 1.03202 13.9842 17.7377
477 1 -1.1104 1.01955 19.6104 17.8436
480 1 -1.1104 0.968789 14.1715 14.8426
482 1 -1.1104 1.00055 19.5885 15.0799
488 1 -1.1104 1.13927 16.6696 17.8755
490 2 2.2208 5.34622 15.2758 19.1693
491 2 2.2208 5.26018 21.0798 19.2206
492 1 -1.1104 1.05632 16.6783 15.1587
496 1 -1.1104 3.78245 13.6529 17.6962
497 1 -1.1104 3.78204 19.4273 17.7508
498 2 2.2208 2.48365 18.1541 19.2121
499 1 -1.1104 3.83649 13.9302 15.0006
501 1 -1.1104 3.90662 19.5778 15.0843
503 2 2.2208 2.45586 15.1546 16.3803
504 2 2.2208 2.32051 21.0456 16.4647
505 1 -1.1104 3.87354 16.564 17.9067
506 1 -1.1104 3.83178 16.7433 15.1887
484 1 -1.1104 6.629 13.732 15.1447
478 1 -1.1104 6.65311 13.7429 17.8953
507 1 -1.1104 3.64535 16.8666 20.7936
479 1 -1.1104 6.70766 19.5043 17.8458
486 1 -1.1104 6.77202 19.4022 15.0733
483 1 -1.1104 0.892153 19.4029 20.4846
493 1 -1.1104 0.852835 16.8625 20.6373
500 1 -1.1104 3.89232 13.9414 20.622
481 1 -1.1104 1.02604 13.9666 20.4986
489 1 -1.1104 6.72477 16.7587 17.9243
494 1 -1.1104 6.57322 16.5579 15.0589
502 1 -1.1104 3.71479 19.7372 20.5275
485 1 -1.1104 6.67164 13.7975 20.6781
573 2 2.2208 -0.424535 1.34503 22.1419
511 2 2.2208 10.7837 18.0384 16.4551
512 1 -1.1104 12.2051 13.9868 17.818
513 1 -1.1104 12.2448 19.5478 17.9088
514 1 -1.1104 12.1575 13.8386 15.093
516 1 -1.1104 12.2332 19.5939 14.9937
518 1 -1.1104 12.3974 16.7015 17.9236
519 2 2.2208 10.8025 15.3155 19.2346
520 2 2.2208 10.8054 20.8313 19.2901
521 1 -1.1104 12.254 16.7355 15.0045
523 1 -1.1104 9.41079 13.9524 17.8208
524 1 -1.1104 9.54842 19.452 17.8597
525 2 2.2208 7.91598 18.175 19.2957
526 1 -1.1104 9.45605 13.9072 15.2091
528 1 -1.1104 9.49402 19.452 14.9882
530 2 2.2208 8.05368 15.3468 16.4968
531 2 2.2208 8.17215 20.7829 16.364
532 1 -1.1104 9.34318 16.6454 18.0319
533 1 -1.1104 9.47362 16.6602 15.0517
8929 2 2.2208 13.5824 15.1789 16.5063
529 1 -1.1104 9.33249 19.4751 20.6436
522 1 -1.1104 12.263 16.588 20.6014
534 1 -1.1104 9.40838 16.6036 20.6321
517 1 -1.1104 11.9578 19.4254 20.7548
515 1 -1.1104 12.2265 13.7233 20.727
630 2 2.2208 5.21736 12.4816 27.68
8932 2 2.2208 13.6562 20.8104 16.4515
572 1 -1.1104 12.1922 13.9016 26.3241
363 1 -1.1104 3.88073 2.66472 20.796
539 2 2.2208 5.19858 1.19975 22.0566
540 1 -1.1104 1.05352 -2.78531 23.43
541 1 -1.1104 0.986107 2.90612 23.4726
544 1 -1.1104 0.944105 -2.9057 26.2067
545 1 -1.1104 0.902613 2.68701 26.4152
548 1 -1.1104 0.996965 0.00893477 23.5245
550 2 2.2208 5.29576 -1.5189 24.8718
552 1 -1.1104 1.00695 -0.146376 26.3988
554 1 -1.1104 3.86823 -2.97724 23.3014
555 1 -1.1104 3.79751 2.70375 23.6508
556 2 2.2208 2.42399 1.27947 24.8653
557 1 -1.1104 3.90928 -2.7688 26.087
558 1 -1.1104 3.6984 2.8059 26.4009
559 2 2.2208 2.36375 -1.49867 22.1566
560 2 2.2208 2.44775 4.10366 22.138
561 1 -1.1104 3.92338 0.0629334 23.527
562 1 -1.1104 3.82072 -0.026748 26.4609
551 2 2.2208 5.21095 4.06376 24.9255
553 1 -1.1104 6.57746 -0.116346 26.2441
542 1 -1.1104 6.57153 -2.98256 23.5164
543 1 -1.1104 6.69669 2.58527 23.4046
546 1 -1.1104 6.74321 -2.74694 26.1334
369 2 2.2208 7.96623 21.0166 22.1028
8125 2 2.2208 5.30906 -4.27127 16.4555
547 1 -1.1104 6.66468 2.72397 26.1708
372 2 2.2208 -0.399135 1.27327 16.4441
309 2 2.2208 7.89917 20.9477 27.5989
397 1 -1.1104 9.48946 2.50099 20.561
8722 2 2.2208 13.6287 9.60646 27.6316
8718 2 2.2208 13.6166 20.8875 27.7226
549 1 -1.1104 6.72623 -0.243509 23.3724
574 2 2.2208 -0.380011 4.05487 24.9484
8791 2 2.2208 13.7502 1.19967 19.2483
328 2 2.2208 10.8444 6.80133 27.6213
575 2 2.2208 10.8934 1.14056 21.8916
576 1 -1.1104 12.1451 -2.84659 23.4103
577 1 -1.1104 11.9766 2.63105 23.2918
578 1 -1.1104 12.223 -3.04853 26.2883
579 1 -1.1104 12.2401 2.60493 26.1989
580 1 -1.1104 12.3333 -0.217636 23.282
581 2 2.2208 10.7707 -1.51528 24.9134
583 1 -1.1104 12.2758 -0.245355 26.1211
584 1 -1.1104 9.38693 -2.86498 23.4323
585 1 -1.1104 9.52161 2.59025 23.4275
586 2 2.2208 8.00614 1.31411 24.734
587 1 -1.1104 9.44472 -2.98368 26.3576
588 1 -1.1104 9.40724 2.64301 26.2607
589 2 2.2208 8.19956 -1.50464 21.9133
590 2 2.2208 8.01812 4.02534 21.9367
591 1 -1.1104 9.56798 -0.121062 23.4104
592 1 -1.1104 9.52577 -0.307372 26.399
582 2 2.2208 10.8898 4.0577 24.7808
8977 2 2.2208 13.5712 1.12009 24.7642
371 1 -1.1104 9.40233 16.7322 26.1934
405 1 -1.1104 9.52314 13.8975 26.3525
8788 2 2.2208 13.4822 18.0164 24.811
426 1 -1.1104 1.02785 5.62682 20.6765
442 1 -1.1104 3.79682 5.65244 20.5905
604 2 2.2208 5.27089 6.97726 22.0035
605 2 2.2208 5.24443 12.5029 22.1025
606 1 -1.1104 0.992292 8.22874 23.5207
608 1 -1.1104 1.0021 8.24024 26.4302
610 1 -1.1104 1.17451 5.45747 23.5749
611 1 -1.1104 1.11815 11.0001 23.5537
614 2 2.2208 5.27273 9.60584 24.834
615 1 -1.1104 1.01616 5.42043 26.4173
616 1 -1.1104 0.931097 11.1722 26.3171
619 1 -1.1104 3.97846 8.29447 23.3623
620 2 2.2208 2.48964 6.86827 24.9514
621 2 2.2208 2.44644 12.4646 24.9131
622 1 -1.1104 3.79041 8.32346 26.2203
623 2 2.2208 2.47231 9.65848 22.1711
624 1 -1.1104 3.91964 5.49302 23.4864
625 1 -1.1104 3.91052 11.0299 23.6481
626 1 -1.1104 3.93889 5.59099 26.3236
627 1 -1.1104 3.77379 11.0497 26.4204
613 1 -1.1104 6.61604 11.0487 23.584
617 1 -1.1104 6.87528 5.51149 26.1613
612 1 -1.1104 6.54275 5.38088 23.4637
609 1 -1.1104 6.68807 8.20265 26.2388
618 1 -1.1104 6.7054 10.9388 26.3204
370 1 -1.1104 9.35585 16.6634 23.5385
8931 2 2.2208 13.452 18.1662 19.3785
315 2 2.2208 2.3978 12.5511 13.5668
459 1 -1.1104 12.3716 11.0492 20.6974
464 1 -1.1104 9.30824 8.21325 20.5981
375 2 2.2208 8.10548 15.2831 22.0246
326 2 2.2208 10.8394 12.417 27.6717
607 1 -1.1104 6.80833 8.2605 23.4637
603 1 -1.1104 12.2358 16.6875 26.2507
469 1 -1.1104 9.36548 5.31308 20.4986
471 1 -1.1104 9.4301 11.0504 20.5273
566 1 -1.1104 12.3109 13.8436 23.4757
8975 2 2.2208 13.6324 12.4509 24.8164
452 1 -1.1104 12.2753 8.28495 20.5818
565 1 -1.1104 9.41129 8.27297 23.2982
567 1 -1.1104 11.9962 11.0241 26.3176
568 1 -1.1104 12.2735 5.47882 26.3552
569 2 2.2208 10.8651 9.71171 24.8461
628 1 -1.1104 12.115 11.0297 23.5461
629 1 -1.1104 12.3789 5.37827 23.5146
631 1 -1.1104 12.2647 8.30407 26.3466
634 1 -1.1104 12.2105 8.29332 23.4033
635 1 -1.1104 9.29246 11.2376 26.1686
636 1 -1.1104 9.54646 5.38163 26.2404
637 1 -1.1104 9.34249 11.0071 23.3931
638 1 -1.1104 9.59615 5.43947 23.3735
639 2 2.2208 8.04571 9.72394 22.0234
640 1 -1.1104 9.61133 8.23885 26.1443
641 2 2.2208 7.96796 12.5247 24.824
642 2 2.2208 8.15635 6.8645 24.818
643 2 2.2208 10.8689 6.88276 21.9665
644 2 2.2208 10.76 12.5565 22.1698
535 2 2.2208 7.91233 18.0724 24.9458
331 2 2.2208 2.33809 20.9614 27.7346
446 1 -1.1104 6.45854 19.6353 23.3756
509 1 -1.1104 6.59894 13.9002 26.1359
406 1 -1.1104 6.52537 19.4925 26.2209
374 1 -1.1104 6.49742 16.8574 23.3625
473 1 -1.1104 0.847591 19.4885 26.1534
570 2 2.2208 2.3993 15.3734 22.1287
510 1 -1.1104 3.72288 19.4516 23.4397
508 1 -1.1104 3.81809 13.9783 23.4282
597 2 2.2208 2.22646 20.8413 21.953
599 1 -1.1104 0.873635 16.8097 23.3156
598 1 -1.1104 3.67439 16.6771 23.5541
376 1 -1.1104 3.84181 13.9009 26.2605
377 1 -1.1104 3.8538 16.7946 26.3085
378 2 2.2208 2.31494 18.2821 24.8186
403 1 -1.1104 3.57816 19.4768 26.3104
407 2 2.2208 5.11625 18.2048 21.94
408 1 -1.1104 1.08689 13.9398 23.2265
409 1 -1.1104 0.933525 19.4872 23.4338
411 2 2.2208 5.19188 15.3027 24.7739
445 2 2.2208 5.00009 20.8576 24.7303
447 1 -1.1104 1.12203 13.9371 26.2649
472 1 -1.1104 0.936844 16.7098 26.1667
410 1 -1.1104 6.63335 13.9034 23.4359
474 1 -1.1104 6.62379 16.5417 26.1468
330 2 2.2208 5.14867 18.1727 27.691
8787 2 2.2208 13.5013 20.9545 22.089
602 2 2.2208 10.6887 20.9944 24.8826
527 1 -1.1104 9.49838 13.8669 20.6164
571 1 -1.1104 11.9527 19.4354 23.5617
601 2 2.2208 10.8119 15.382 24.9055
596 1 -1.1104 12.362 19.4634 26.3219
600 1 -1.1104 12.1768 16.5345 23.3485
404 1 -1.1104 9.35886 19.5867 26.2908
537 1 -1.1104 9.57088 13.9255 23.469
538 2 2.2208 10.6748 18.015 22.2248
536 1 -1.1104 9.28529 19.4888 23.3389
633 2 2.2208 -0.30801 12.536 22.0572
9079 2 2.2208 -0.375057 6.87655 22.1329
8745 2 2.2208 13.7314 3.94738 27.6343
8786 2 2.2208 13.58 -1.63788 16.335
335 2 2.2208 -0.489584 6.75898 27.7641
9051 2 2.2208 13.6028 9.5963 21.9511
8900 2 2.2208 -0.407661 9.62987 19.4074
8785 2 2.2208 13.5526 4.12703 16.5193
8901 2 2.2208 -0.37645 6.93959 16.4986
373 2 2.2208 -0.329996 -1.43754 19.2747
306 2 2.2208 5.19296 4.10149 13.6222
307 2 2.2208 8.10355 15.3935 27.6411
327 2 2.2208 8.03348 9.73034 27.6219
312 2 2.2208 10.834 4.23055 13.6818
595 2 2.2208 8.1462 4.10594 27.6449
563 2 2.2208 5.31267 1.36867 27.565
9004 2 2.2208 13.7267 -1.60265 27.534
329 2 2.2208 2.40556 15.4286 27.505
645 2 2.2208 5.30017 23.85 5.17314
646 2 2.2208 5.29096 29.2466 5.25949
647 1 -1.1104 0.943169 25.1339 0.893273
648 1 -1.1104 0.928083 25.1853 3.58397
649 1 -1.1104 1.05862 22.3857 0.948893
650 1 -1.1104 1.07992 28.031 0.894714
651 2 2.2208 5.24323 26.6323 2.41894
652 1 -1.1104 1.024 22.3949 3.57773
653 1 -1.1104 1.14381 27.878 3.57215
654 1 -1.1104 3.83312 25.0893 1.03232
655 2 2.2208 2.43791 23.7863 2.37326
656 2 2.2208 2.38505 29.4427 2.30323
657 1 -1.1104 3.71419 25.2204 3.76006
658 2 2.2208 2.41042 26.5609 5.15763
659 1 -1.1104 3.89386 22.3425 1.09342
660 1 -1.1104 3.69517 27.8881 1.03468
661 1 -1.1104 3.86194 22.3641 3.94482
662 1 -1.1104 3.84235 27.9383 3.80572
793 1 -1.1104 3.72413 22.2848 6.60427
669 1 -1.1104 6.62743 28.0593 0.98362
670 1 -1.1104 6.44954 22.3291 3.85573
790 1 -1.1104 6.52245 22.1535 6.74819
788 1 -1.1104 1.06952 22.243 6.56135
668 1 -1.1104 6.75337 22.464 0.891053
666 1 -1.1104 6.58645 25.1423 1.08944
667 1 -1.1104 6.61514 25.1719 3.88467
792 1 -1.1104 3.82807 25.2881 6.65344
786 1 -1.1104 1.0387 24.9549 6.42863
787 1 -1.1104 6.61306 25.0191 6.71785
671 1 -1.1104 6.60857 27.8209 3.84268
794 1 -1.1104 3.80532 27.9923 6.56763
9413 2 2.2208 13.643 34.8596 2.40648
942 1 -1.1104 9.49129 41.9585 9.35906
945 2 2.2208 2.55259 23.8763 13.5659
672 2 2.2208 10.8512 23.857 5.18386
673 2 2.2208 10.8514 29.2061 5.13612
674 1 -1.1104 12.1344 25.0778 0.874007
675 1 -1.1104 12.1923 25.1688 3.7052
676 1 -1.1104 12.1867 22.2949 0.950071
677 1 -1.1104 12.1773 27.8566 1.05177
678 2 2.2208 10.7623 26.472 2.46139
679 1 -1.1104 12.1775 22.4119 3.72061
680 1 -1.1104 12.2015 27.8114 3.85448
681 1 -1.1104 9.36633 25.1143 0.959783
682 2 2.2208 8.03624 23.7814 2.34549
683 2 2.2208 7.92917 29.2635 2.40866
684 1 -1.1104 9.47776 25.2396 3.83257
685 2 2.2208 7.90829 26.4768 5.2842
686 1 -1.1104 9.35581 22.3092 0.960834
687 1 -1.1104 9.42723 27.9738 1.13527
688 1 -1.1104 9.41762 22.4497 3.80873
689 1 -1.1104 9.40524 27.9198 3.8045
823 1 -1.1104 9.35945 22.4374 6.5323
9409 2 2.2208 13.5175 29.2137 2.3379
9301 2 2.2208 13.5913 34.9382 8.07341
820 1 -1.1104 12.1747 22.4766 6.70016
821 1 -1.1104 12.1689 28.0804 6.74155
819 1 -1.1104 12.4089 25.1644 6.51146
822 1 -1.1104 9.40303 25.222 6.70382
664 2 2.2208 10.9208 46.1094 10.8805
693 2 2.2208 5.4473 34.8703 5.21743
694 1 -1.1104 0.923307 30.739 0.933061
695 1 -1.1104 1.05465 36.3275 1.05997
697 1 -1.1104 0.937575 30.6116 3.78765
698 1 -1.1104 0.998833 36.2497 3.88478
700 1 -1.1104 1.20432 33.5101 1.00266
701 2 2.2208 5.28815 32.1578 2.42832
702 2 2.2208 5.28571 37.7289 2.31789
703 1 -1.1104 1.0351 33.328 3.73339
705 1 -1.1104 3.73125 30.7548 0.93273
706 1 -1.1104 3.76826 36.2836 0.804614
707 2 2.2208 2.43836 34.9195 2.34951
708 1 -1.1104 3.90866 30.5823 3.83581
709 1 -1.1104 3.83569 36.3523 3.73545
710 2 2.2208 2.50246 32.0382 5.32304
711 2 2.2208 2.61405 37.7289 5.2189
712 1 -1.1104 3.9149 33.4775 0.968757
713 1 -1.1104 3.96075 33.6297 3.7915
847 1 -1.1104 1.12233 33.495 6.61853
718 1 -1.1104 6.53794 30.6168 3.82992
719 1 -1.1104 6.69684 33.7288 0.94258
717 1 -1.1104 6.63274 30.7683 1.11577
704 1 -1.1104 6.78613 33.3348 3.89542
849 1 -1.1104 3.89682 30.8584 6.64941
845 1 -1.1104 6.64585 30.6008 6.58336
699 1 -1.1104 6.70231 36.3968 3.73625
691 1 -1.1104 12.2872 41.9411 9.41296
844 1 -1.1104 1.0307 36.3084 6.57811
850 1 -1.1104 3.8475 36.4499 6.64616
851 1 -1.1104 3.966 33.619 6.66029
765 1 -1.1104 12.2602 39.0499 12.3161