ITEM: TIMESTEP
30000
ITEM: NUMBER OF ATOMS
17670
ITEM: BOX BOUNDS pp pp pp
-3.6435154890377425e-01 2.7704351548903627e+01
-4.3719985390692067e+00 3.3245199853906820e+02
-3.4195889432117560e-01 2.7681958894321024e+01
ITEM: ATOMS id type q x y z
1 2 2.2208 5.36711 1.24068 5.30332
2 1 -1.1104 1.12728 -3.07856 1.15938
3 1 -1.1104 1.12113 2.4696 1.06196
6 1 -1.1104 1.26741 -2.90975 3.94229
7 1 -1.1104 1.21468 2.62777 3.77452
10 1 -1.1104 0.961313 -0.429319 1.05509
12 2 2.2208 5.45642 -1.59215 2.49355
13 2 2.2208 5.30282 4.03149 2.45743
14 1 -1.1104 1.19039 -0.0507343 3.95779
16 1 -1.1104 3.93758 -2.8811 1.07589
17 1 -1.1104 3.89906 2.51196 1.23486
18 2 2.2208 2.47761 1.08655 2.52211
19 1 -1.1104 4.06043 -2.91372 3.87657
20 1 -1.1104 3.97264 2.67297 3.94945
21 2 2.2208 2.56774 -1.56571 5.35937
22 2 2.2208 2.52702 3.94852 5.29792
23 1 -1.1104 3.93583 -0.0544747 1.12375
24 1 -1.1104 3.97176 -0.2054 3.99626
167 1 -1.1104 1.37714 2.55193 6.72474
170 1 -1.1104 1.10802 0.0125357 6.74364
172 1 -1.1104 4.04663 -3.12265 6.64608
8790 2 2.2208 -0.355648 1.07937 -0.262611
173 1 -1.1104 4.03216 2.62407 6.7227
26 2 2.2208 -0.299577 1.17001 5.29362
334 2 2.2208 -0.243947 12.5336 -0.0565348
17302 2 2.2208 -0.262042 -4.31378 -0.226386
7997 2 2.2208 -0.262453 -4.35848 5.42037
8406 2 2.2208 -0.276735 18.0744 10.9942
8703 2 2.2208 -0.250758 3.94275 2.3761
11 1 -1.1104 6.80781 -0.28474 0.969501
5 1 -1.1104 6.75685 2.66417 1.05185
8 1 -1.1104 6.77522 -3.11935 3.86722
4 1 -1.1104 6.75028 -3.1465 1.20128
8539 2 2.2208 13.8447 4.00508 10.8717
9 1 -1.1104 6.75964 2.70545 3.96797
15 1 -1.1104 6.73494 -0.205543 3.88378
31 2 2.2208 10.8861 1.18431 5.40804
32 1 -1.1104 12.3401 -2.94049 1.26911
33 1 -1.1104 12.3382 2.64808 1.26025
34 1 -1.1104 12.4392 -2.90446 4.03477
35 1 -1.1104 12.3667 2.61227 4.06537
36 1 -1.1104 12.2886 -0.106214 1.06054
37 2 2.2208 10.9303 -1.51293 2.50682
38 2 2.2208 10.9432 4.05613 2.54873
39 1 -1.1104 12.3278 -0.0370473 3.86647
40 1 -1.1104 9.58022 -3.15727 1.10979
41 1 -1.1104 9.47568 2.5538 1.02987
42 2 2.2208 8.12135 1.21679 2.49809
43 1 -1.1104 9.6008 -2.98064 4.05969
44 1 -1.1104 9.50479 2.5779 3.87722
45 2 2.2208 8.09407 -1.67417 5.3371
46 2 2.2208 8.25017 4.09009 5.23816
47 1 -1.1104 9.55773 -0.204789 1.21269
48 1 -1.1104 9.51143 -0.141817 4.02358
209 1 -1.1104 9.6997 2.6709 6.79349
330 2 2.2208 5.2839 18.1103 -0.224376
206 1 -1.1104 12.3638 2.70297 6.87025
335 2 2.2208 -0.158164 6.92124 -0.211772
169 1 -1.1104 6.87593 2.74005 6.86426
205 1 -1.1104 12.4179 -2.97301 6.83261
7998 2 2.2208 8.22381 -4.344 2.55501
593 2 2.2208 11.0604 1.23718 -0.320181
595 2 2.2208 8.24635 4.06366 -0.242066
54 2 2.2208 5.27103 6.88398 5.32047
55 2 2.2208 5.22836 12.5469 5.49205
56 1 -1.1104 1.22868 8.20953 1.19314
58 1 -1.1104 1.14675 8.14248 3.86394
60 1 -1.1104 1.24317 5.2909 1.19875
61 1 -1.1104 1.17421 11.2911 1.18273
66 2 2.2208 5.28486 9.74759 2.674
67 1 -1.1104 1.16219 5.29427 3.92041
68 1 -1.1104 1.02509 11.1647 3.96778
71 1 -1.1104 3.99716 8.20096 1.14247
72 2 2.2208 2.6062 6.80304 2.56457
73 2 2.2208 2.57117 12.544 2.5794
74 1 -1.1104 3.82721 8.35332 4.0395
75 2 2.2208 2.51692 9.62889 5.34573
76 1 -1.1104 4.09163 5.41614 1.0387
77 1 -1.1104 3.85385 10.9857 1.4442
79 1 -1.1104 3.91287 5.39358 3.87425
80 1 -1.1104 3.82367 11.0675 3.97402
82 2 2.2208 -0.22512 9.67122 2.57906
8709 2 2.2208 -0.328077 6.74276 5.23898
333 2 2.2208 2.53077 9.7609 -0.158009
8710 2 2.2208 -0.315228 12.5748 5.40087
563 2 2.2208 5.30774 1.14024 -0.360136
63 1 -1.1104 6.81961 5.57239 1.27832
64 1 -1.1104 6.68075 11.2224 1.25834
326 2 2.2208 10.903 12.4245 -0.244297
57 1 -1.1104 6.65557 8.34595 1.11175
69 1 -1.1104 6.65056 5.55769 3.8809
59 1 -1.1104 6.64561 8.37866 4.01664
70 1 -1.1104 6.67461 11.2187 4.06812
84 2 2.2208 10.8862 6.8561 5.38283
85 2 2.2208 10.9816 12.5482 5.31557
86 1 -1.1104 12.2663 8.32294 1.10378
87 1 -1.1104 12.2901 8.41411 3.88094
88 1 -1.1104 12.3365 5.38403 1.28139
89 1 -1.1104 12.2006 11.1361 1.15466
91 2 2.2208 10.9415 9.65303 2.57845
92 1 -1.1104 12.219 5.40873 3.92445
93 1 -1.1104 12.2921 11.1417 3.93791
94 1 -1.1104 9.42371 8.27441 1.1373
95 2 2.2208 8.00931 7.00992 2.59799
96 2 2.2208 8.03427 12.4839 2.68343
97 1 -1.1104 9.45518 8.33326 3.99912
98 2 2.2208 8.03965 9.7245 5.50053
99 1 -1.1104 9.64173 5.41483 1.13696
100 1 -1.1104 9.44207 11.2252 1.09249
102 1 -1.1104 9.52125 5.52774 4.00706
103 1 -1.1104 9.5592 11.1981 3.95888
269 1 -1.1104 9.64788 5.49664 6.67731
327 2 2.2208 8.10005 9.73787 -0.181468
8003 2 2.2208 8.1877 -4.39836 8.15962
331 2 2.2208 2.52892 20.8871 -0.0947678
8600 2 2.2208 -0.244357 18.2549 5.41294
106 2 2.2208 5.38622 18.0589 5.38101
107 1 -1.1104 1.22363 14.0099 1.2377
109 1 -1.1104 1.06498 19.6154 1.31823
113 1 -1.1104 1.31035 13.9679 3.96736
114 1 -1.1104 1.15254 19.5729 4.04059
116 1 -1.1104 1.17103 16.8366 1.04959
119 2 2.2208 5.26293 15.3382 2.61933
120 2 2.2208 5.3851 21.0374 2.60641
121 1 -1.1104 0.993837 16.7468 4.01812
123 1 -1.1104 3.80344 13.9133 1.15201
125 1 -1.1104 3.93019 19.6405 1.20557
127 2 2.2208 2.48438 18.1793 2.55057
128 1 -1.1104 3.89319 13.8114 4.08133
129 1 -1.1104 3.82823 19.6638 4.04845
130 2 2.2208 2.54716 15.3805 5.42494
131 2 2.2208 2.53141 21.0228 5.41628
132 1 -1.1104 3.96716 16.7944 1.19242
134 1 -1.1104 3.82082 16.7049 3.95062
8708 2 2.2208 -0.202585 20.9713 2.58416
115 1 -1.1104 6.73199 14.0325 3.97633
307 2 2.2208 8.12306 15.3486 -0.211962
117 1 -1.1104 1.17574 16.8385 6.81255
302 1 -1.1104 1.26008 19.6833 6.73385
8721 2 2.2208 -0.306899 18.1056 -0.259691
200 2 2.2208 -0.203038 -1.55291 8.23128
135 1 -1.1104 12.3222 16.8801 9.62124
139 1 -1.1104 6.57842 19.4952 3.91639
138 1 -1.1104 6.72598 19.5793 1.13598
110 1 -1.1104 6.55391 13.9405 1.23084
140 1 -1.1104 6.62252 16.7063 1.22035
122 1 -1.1104 6.79498 16.7143 4.10469
141 2 2.2208 10.8917 18.2084 5.3547
142 1 -1.1104 12.1826 13.8991 1.06093
144 1 -1.1104 12.2654 19.6211 1.21565
146 1 -1.1104 12.4787 14.0459 3.83724
147 1 -1.1104 12.2451 19.5838 3.93088
148 1 -1.1104 12.3884 16.8068 1.04804
150 2 2.2208 10.9242 15.3871 2.58206
151 2 2.2208 10.9149 20.8626 2.56848
152 1 -1.1104 12.1843 16.8448 3.95188
153 1 -1.1104 9.46753 13.9913 1.29291
155 1 -1.1104 9.5996 19.4598 1.24118
157 2 2.2208 8.07905 18.0963 2.60555
158 1 -1.1104 9.57474 13.9414 4.0853
159 1 -1.1104 9.41812 19.4158 4.06524
160 2 2.2208 8.19047 15.3086 5.39062
161 2 2.2208 8.11021 20.98 5.56207
162 1 -1.1104 9.5257 16.5919 1.03174
164 1 -1.1104 9.47257 16.8167 3.80826
149 1 -1.1104 12.3517 16.8038 6.79047
154 1 -1.1104 9.61457 13.9042 6.87299
8719 2 2.2208 13.6639 15.4701 -0.263655
145 1 -1.1104 12.2341 19.7166 6.78686
7995 2 2.2208 2.56648 -4.36763 2.47081
308 2 2.2208 10.8129 18.1183 -0.249496
166 1 -1.1104 1.15776 -2.9463 6.77112
174 1 -1.1104 3.95979 -0.234947 6.81992
288 1 -1.1104 6.77791 19.5551 9.63755
297 1 -1.1104 6.69825 13.9238 12.3844
8565 2 2.2208 -0.164547 3.93063 8.13518
175 2 2.2208 5.36022 1.23362 10.9791
176 1 -1.1104 1.11813 -2.85035 12.4431
177 1 -1.1104 1.08689 2.64538 12.2301
180 1 -1.1104 1.27796 -2.94153 9.65007
181 1 -1.1104 1.18569 2.66354 9.51158
184 1 -1.1104 1.10959 -0.059378 12.3522
186 2 2.2208 5.43275 -1.52685 8.10367
187 2 2.2208 5.50249 4.11184 8.09348
188 1 -1.1104 1.18181 -0.0656411 9.53954
190 1 -1.1104 3.79948 -2.77878 12.4422
191 1 -1.1104 3.85049 2.58133 12.4152
192 2 2.2208 2.65536 1.31127 8.09197
193 1 -1.1104 4.16817 -2.93871 9.49033
194 1 -1.1104 4.0711 2.68874 9.45845
195 2 2.2208 2.69928 -1.55508 10.9153
196 2 2.2208 2.62202 4.00031 10.927
197 1 -1.1104 4.00704 -0.0712253 12.3623
198 1 -1.1104 4.0287 -0.204528 9.61723
182 1 -1.1104 6.93686 -2.90465 9.44502
179 1 -1.1104 6.68434 2.73751 12.4339
201 2 2.2208 -0.22835 1.21382 10.9738
83 1 -1.1104 12.2922 16.879 12.3453
208 1 -1.1104 9.53474 -3.06223 6.93961
207 1 -1.1104 12.397 -0.179626 6.803
8713 2 2.2208 -0.203448 15.3719 2.58829
171 1 -1.1104 6.80338 -0.0924411 6.72247
210 1 -1.1104 9.67946 -0.133189 6.94428
168 1 -1.1104 6.82249 -2.94897 6.72233
189 1 -1.1104 6.93094 -0.18283 9.50696
183 1 -1.1104 6.80387 2.6491 9.76081
185 1 -1.1104 6.79979 -0.129912 12.4432
178 1 -1.1104 6.61093 -2.92458 12.3444
211 2 2.2208 11.0906 1.29217 11.1127
212 1 -1.1104 12.4106 -3.01656 12.3475
213 1 -1.1104 12.3102 2.68316 12.3258
214 1 -1.1104 12.3193 -3.07426 9.64166
215 1 -1.1104 12.3237 2.81741 9.63397
216 1 -1.1104 12.5339 -0.166851 12.3176
217 2 2.2208 11.0772 -1.61353 8.38856
218 2 2.2208 10.8613 4.09419 8.22871
219 1 -1.1104 12.5977 -0.104505 9.64535
220 1 -1.1104 9.46686 -2.98045 12.3821
221 1 -1.1104 9.59712 2.69633 12.3653
222 2 2.2208 8.20836 1.36336 8.29987
223 1 -1.1104 9.67267 -2.91754 9.56046
224 1 -1.1104 9.55261 2.79919 9.52047
225 2 2.2208 8.26244 -1.55619 10.9306
226 2 2.2208 8.15441 4.19944 11.027
227 1 -1.1104 9.61219 -0.0450988 12.3029
228 1 -1.1104 9.81626 -0.0689006 9.60176
329 2 2.2208 2.51067 15.4034 -0.208358
234 1 -1.1104 1.30123 8.22627 6.78558
238 1 -1.1104 3.88751 8.31518 6.8317
78 1 -1.1104 3.88819 11.0098 6.90054
8634 2 2.2208 -0.2208 6.81697 10.9717
239 1 -1.1104 4.09908 5.47917 6.6912
8405 2 2.2208 -0.203172 15.3858 8.08462
8626 2 2.2208 -0.348482 12.4851 11.023
62 1 -1.1104 1.08043 11.034 6.76641
236 1 -1.1104 1.24271 5.317 6.76975
240 2 2.2208 5.26524 6.85772 10.9567
241 2 2.2208 5.37124 12.5176 11.1097
242 1 -1.1104 1.04978 8.25025 12.3813
244 1 -1.1104 1.22265 8.1474 9.62592
246 1 -1.1104 1.19197 5.34775 12.3141
247 1 -1.1104 1.17958 11.0724 12.2806
250 2 2.2208 5.19109 9.67932 8.19058
251 1 -1.1104 1.12372 5.38648 9.51978
252 1 -1.1104 1.0477 10.9755 9.4254
255 1 -1.1104 3.90094 8.34912 12.4624
256 2 2.2208 2.50913 6.6955 8.11661
257 2 2.2208 2.52194 12.4661 8.20866
258 1 -1.1104 3.98378 8.15238 9.59494
259 2 2.2208 2.50112 9.64475 10.9978
260 1 -1.1104 3.95344 5.51962 12.3408
261 1 -1.1104 3.98099 11.1131 12.494
262 1 -1.1104 3.9666 5.28372 9.57764
263 1 -1.1104 3.95741 10.9883 9.79843
332 2 2.2208 5.35987 6.85495 -0.179369
8004 2 2.2208 11.0865 -4.47366 10.9496
266 1 -1.1104 12.3036 5.48719 6.72939
237 1 -1.1104 6.91705 5.54458 6.68529
65 1 -1.1104 6.6811 11.2071 6.92684
101 1 -1.1104 9.56786 11.0807 6.67076
90 1 -1.1104 12.5022 10.9662 6.63145
265 1 -1.1104 12.2802 8.28077 6.67932
267 1 -1.1104 9.47946 8.34258 6.83132
249 1 -1.1104 6.85774 11.0289 12.4407
235 1 -1.1104 6.54304 8.45166 6.70478
248 1 -1.1104 6.59504 5.49569 12.3872
245 1 -1.1104 6.6431 8.39879 9.5427
243 1 -1.1104 6.77638 8.29743 12.3005
254 1 -1.1104 6.83005 11.3381 9.66254
253 1 -1.1104 6.74473 5.58957 9.40019
264 1 -1.1104 9.57441 11.2372 9.45119
268 1 -1.1104 9.56301 5.54907 9.6635
270 1 -1.1104 9.58415 11.1887 12.4306
271 1 -1.1104 9.59937 5.52689 12.4483
272 2 2.2208 8.14683 9.7305 10.9632
273 1 -1.1104 9.42309 8.30116 9.55051
274 2 2.2208 8.09994 12.5792 8.21125
275 2 2.2208 8.15746 6.9279 8.21849
276 2 2.2208 10.9787 6.97201 10.8779
277 2 2.2208 11.0094 12.5484 10.829
278 1 -1.1104 12.4613 8.25385 12.3024
279 1 -1.1104 12.3097 8.2761 9.45959
280 1 -1.1104 12.3814 5.44369 12.3081
281 1 -1.1104 12.2874 11.1345 12.2277
282 2 2.2208 10.9646 9.79518 8.00968
283 1 -1.1104 12.3972 5.57412 9.43788
284 1 -1.1104 12.4231 11.1777 9.47324
285 1 -1.1104 9.63376 8.27923 12.1548
133 1 -1.1104 3.96527 16.5622 6.69934
124 1 -1.1104 4.01669 13.9847 6.80297
126 1 -1.1104 4.00567 19.4727 6.84217
8431 2 2.2208 -0.304457 20.957 8.29983
165 2 2.2208 8.15605 18.2001 8.25602
108 1 -1.1104 1.16893 14.0084 6.78303
301 1 -1.1104 3.86632 19.6004 9.54873
51 2 2.2208 2.55378 15.2051 10.8996
52 2 2.2208 2.56295 20.9207 10.9858
202 1 -1.1104 3.89874 16.5696 12.3228
203 1 -1.1104 1.11487 16.7624 12.3779
231 1 -1.1104 3.91245 13.8868 9.54367
232 1 -1.1104 3.91041 16.7648 9.44086
233 2 2.2208 2.55313 18.1409 8.16523
286 1 -1.1104 4.01273 19.378 12.444
287 1 -1.1104 3.93178 13.8187 12.3807
291 1 -1.1104 1.01467 19.4856 9.58081
292 1 -1.1104 1.10353 16.6998 9.55647
293 2 2.2208 5.27817 20.9799 8.23774
294 1 -1.1104 1.27185 13.8691 9.48407
295 2 2.2208 5.30283 15.3241 8.15488
298 1 -1.1104 1.19496 19.6897 12.4391
299 1 -1.1104 0.977398 14.0812 12.3776
300 2 2.2208 5.2983 18.0038 10.9469
204 1 -1.1104 6.68138 16.7547 12.4171
49 1 -1.1104 12.3842 13.9275 12.1795
289 1 -1.1104 6.73137 16.731 9.52405
199 1 -1.1104 9.70994 13.9937 9.45635
112 1 -1.1104 6.75262 19.7324 6.84733
163 1 -1.1104 9.62775 16.7775 6.73806
53 1 -1.1104 12.4823 14.0103 9.42971
230 2 2.2208 8.13309 15.3515 10.9982
81 1 -1.1104 12.4435 19.5835 9.50387
50 1 -1.1104 12.49 19.6848 12.4314
104 2 2.2208 11.0601 15.4103 8.16607
290 1 -1.1104 6.58521 14.033 9.52855
28 1 -1.1104 9.55079 16.9009 9.47399
137 1 -1.1104 9.54618 19.5556 12.4687
296 1 -1.1104 6.69122 19.5206 12.5666
111 1 -1.1104 6.85666 13.9911 6.78751
118 1 -1.1104 6.8235 16.9274 6.85471
30 2 2.2208 8.08828 20.9091 10.9556
156 1 -1.1104 9.51495 19.5557 6.87027
143 1 -1.1104 12.4897 13.7599 6.63692
27 2 2.2208 11.0487 18.263 11.1346
29 1 -1.1104 9.59274 16.8326 12.3186
136 1 -1.1104 9.5409 13.9476 12.3197
229 1 -1.1104 9.54698 19.7421 9.76933
105 2 2.2208 10.9002 20.9541 8.09792
8001 2 2.2208 5.38389 -4.28412 10.83
328 2 2.2208 10.8641 6.90087 -0.182864
630 2 2.2208 5.20616 12.5729 -0.126169
317 2 2.2208 11.0654 9.76112 13.745
336 2 2.2208 5.44869 1.25888 16.649
337 1 -1.1104 1.00785 -2.92078 18.0603
338 1 -1.1104 1.08152 2.71836 18.0018
341 1 -1.1104 1.27622 -2.90911 15.2276
343 1 -1.1104 1.28183 2.75977 15.006
349 1 -1.1104 1.13934 -0.0725301 18.127
351 2 2.2208 5.33711 -1.69414 19.3791
352 2 2.2208 5.34005 4.0483 19.3065
353 1 -1.1104 1.02121 -0.227783 15.3645
357 1 -1.1104 3.88868 -3.11389 18.0951
358 1 -1.1104 4.04553 2.55278 18.098
359 2 2.2208 2.55475 1.30396 19.4373
360 1 -1.1104 3.97546 -3.14224 15.2521
362 1 -1.1104 3.94204 2.53325 15.1969
364 2 2.2208 2.46559 -1.68618 16.7344
365 2 2.2208 2.64424 4.01063 16.5972
366 1 -1.1104 4.01436 -0.154951 17.9627
367 1 -1.1104 3.87226 -0.253385 15.3052
354 1 -1.1104 1.17319 -0.162181 20.8707
355 1 -1.1104 6.72417 -0.117135 15.2032
372 2 2.2208 -0.255273 1.35721 16.6109
8727 2 2.2208 -0.339891 3.87775 13.7068
345 1 -1.1104 6.73681 -2.94133 15.2067
340 1 -1.1104 6.84486 2.64166 17.9178
572 1 -1.1104 12.2721 14.0626 26.418
373 2 2.2208 -0.280229 -1.53627 19.4799
313 2 2.2208 2.50495 6.83419 13.8309
8736 2 2.2208 -0.271212 9.59664 13.7316
8970 2 2.2208 -0.220959 20.9123 19.4595
8789 2 2.2208 13.7232 15.3725 22.2006
306 2 2.2208 5.22949 4.0984 13.7385
8932 2 2.2208 13.737 20.9729 16.5794
339 1 -1.1104 6.75887 -2.71465 17.8602
350 1 -1.1104 6.83409 -0.0955983 18.1739
347 1 -1.1104 6.63073 2.75122 15.2319
379 2 2.2208 11.0324 1.33636 16.5185
380 1 -1.1104 12.2772 -2.776 18.0927
381 1 -1.1104 12.3817 2.76946 17.9588
382 1 -1.1104 12.1855 -3.02179 15.1119
384 1 -1.1104 12.4354 2.73541 15.1944
386 1 -1.1104 12.3983 -0.0990433 17.8723
387 2 2.2208 10.8572 -1.43985 19.391
388 2 2.2208 11.1061 4.02085 19.384
389 1 -1.1104 12.3064 -0.181799 15.0431
391 1 -1.1104 9.45679 -2.93878 17.8268
392 1 -1.1104 9.54251 2.69066 18.0187
393 2 2.2208 8.13588 1.32011 19.5271
394 1 -1.1104 9.49104 -3.00543 15.1291
396 1 -1.1104 9.57184 2.64485 15.3045
398 2 2.2208 8.26385 -1.46709 16.4951
399 2 2.2208 8.27426 3.98579 16.6008
400 1 -1.1104 9.69861 -0.159503 17.8484
401 1 -1.1104 9.51164 -0.0560421 15.0957
395 1 -1.1104 9.58995 -2.92263 20.6078
390 1 -1.1104 12.4171 -0.25573 20.5953
8086 2 2.2208 2.61754 -4.4857 24.9617
8866 2 2.2208 -0.269627 12.4788 16.5639
573 2 2.2208 -0.236252 1.28276 22.0977
412 2 2.2208 5.442 6.74925 16.4813
413 2 2.2208 5.33166 12.4063 16.6067
414 1 -1.1104 1.0256 8.16827 17.8766
416 1 -1.1104 1.13083 8.25621 15.1104
420 1 -1.1104 1.23323 5.43718 18.0315
421 1 -1.1104 1.1231 11.0821 18.0228
424 2 2.2208 5.39243 9.59677 19.3193
425 1 -1.1104 0.995739 5.43557 15.1772
427 1 -1.1104 0.981521 11.1168 15.1392
433 1 -1.1104 3.95302 8.0531 17.9629
434 2 2.2208 2.63067 6.73097 19.3622
435 2 2.2208 2.68252 12.4134 19.4814
436 1 -1.1104 3.90703 8.07903 15.2264
438 2 2.2208 2.6 9.607 16.5635
439 1 -1.1104 4.03243 5.31221 17.9642
440 1 -1.1104 3.96125 11.0181 17.9883
441 1 -1.1104 3.83512 5.45199 15.1624
443 1 -1.1104 4.01666 10.9407 15.1964
314 2 2.2208 5.45293 9.66169 13.8028
8744 2 2.2208 -0.294309 21.0047 13.8073
423 1 -1.1104 6.72429 11.1938 18.0668
8901 2 2.2208 -0.318169 6.79891 16.5302
8900 2 2.2208 -0.351049 9.70675 19.4231
315 2 2.2208 2.53558 12.5343 13.8405
417 1 -1.1104 1.13009 8.32733 20.6352
415 1 -1.1104 6.78493 8.25432 17.8318
446 1 -1.1104 6.40455 19.5972 23.5066
431 1 -1.1104 6.81884 11.0087 15.2478
430 1 -1.1104 6.84878 5.543 20.8714
418 1 -1.1104 6.83442 8.19232 15.0412
422 1 -1.1104 6.99566 5.44014 17.9819
429 1 -1.1104 6.86049 5.34593 15.1843
448 2 2.2208 10.9088 6.91226 16.6141
449 2 2.2208 10.8952 12.5401 16.6023
450 1 -1.1104 12.5085 8.24951 17.9644
451 1 -1.1104 12.4349 8.36453 14.953
453 1 -1.1104 12.4557 5.58416 17.9149
454 1 -1.1104 12.3021 11.0901 17.8736
455 2 2.2208 11.1416 9.62883 19.4336
456 1 -1.1104 12.2904 5.59575 15.0777
458 1 -1.1104 12.487 11.2165 15.0242
460 1 -1.1104 9.80628 8.32771 17.8972
461 2 2.2208 8.36346 6.92295 19.3945
462 2 2.2208 8.21466 12.3181 19.429
463 1 -1.1104 9.62417 8.287 14.9864
465 2 2.2208 8.33863 9.66432 16.5271
466 1 -1.1104 9.80491 5.36309 17.8806
467 1 -1.1104 9.558 10.9761 18.0782
468 1 -1.1104 9.60565 5.42472 15.1824
470 1 -1.1104 9.6433 11.1312 15.1841
452 1 -1.1104 12.5384 8.3398 20.8255
471 1 -1.1104 9.66962 11.0514 20.8429
459 1 -1.1104 12.4647 11.2852 20.7277
316 2 2.2208 8.10617 6.8086 13.6996
303 2 2.2208 -0.199373 -1.42751 13.8585
318 2 2.2208 8.13987 12.4167 13.7763
8971 2 2.2208 -0.183666 15.2849 19.307
475 2 2.2208 5.36118 18.1303 16.6446
476 1 -1.1104 1.12474 13.7893 18.0928
477 1 -1.1104 1.25743 19.5513 17.9749
480 1 -1.1104 1.1348 13.9022 15.2396
482 1 -1.1104 1.1014 19.6325 15.0841
488 1 -1.1104 1.23024 16.7432 17.9861
490 2 2.2208 5.39435 15.232 19.2728
491 2 2.2208 5.20143 20.8464 19.3673
492 1 -1.1104 1.14273 16.7872 15.2773
496 1 -1.1104 3.84828 13.9136 17.9421
497 1 -1.1104 3.93535 19.332 18.0179
498 2 2.2208 2.5608 17.9796 19.4509
499 1 -1.1104 3.91687 13.8665 15.1453
501 1 -1.1104 3.82239 19.5563 15.3387
503 2 2.2208 2.46926 15.2353 16.6586
504 2 2.2208 2.38937 21.0235 16.5448
505 1 -1.1104 3.99769 16.5502 18.0996
506 1 -1.1104 3.89213 16.8395 15.3122
8972 2 2.2208 -0.273373 18.1887 16.6595
8088 2 2.2208 -0.36264 -4.32234 22.0586
486 1 -1.1104 6.65603 19.775 15.2826
321 2 2.2208 5.31236 15.3255 13.8283
310 2 2.2208 8.143 1.38808 13.808
319 2 2.2208 2.5892 18.1677 13.8031
8124 2 2.2208 2.48329 -4.43591 19.3698
311 2 2.2208 10.9599 -1.48126 13.6202
494 1 -1.1104 6.81781 16.6762 15.1894
479 1 -1.1104 6.87131 19.346 18.092
484 1 -1.1104 6.69982 13.7801 15.099
478 1 -1.1104 6.61804 13.8505 17.8624
489 1 -1.1104 6.79647 16.5431 17.9318
511 2 2.2208 11.0199 18.0893 16.4781
512 1 -1.1104 12.3372 13.9301 17.8575
513 1 -1.1104 12.4565 19.5641 18.072
514 1 -1.1104 12.4239 13.9499 15.0752
516 1 -1.1104 12.2944 19.5455 15.1121
518 1 -1.1104 12.3717 16.7129 18.0658
519 2 2.2208 10.9773 15.3366 19.2956
520 2 2.2208 10.8357 20.9393 19.3439
521 1 -1.1104 12.4438 16.7506 15.0729
523 1 -1.1104 9.42535 13.9213 17.9952
524 1 -1.1104 9.6403 19.5404 17.9464
525 2 2.2208 8.21305 18.1051 19.3955
526 1 -1.1104 9.53101 13.8026 15.1467
528 1 -1.1104 9.53389 19.4991 15.1713
530 2 2.2208 8.05883 15.22 16.4966
531 2 2.2208 8.13081 20.9422 16.5668
532 1 -1.1104 9.71785 16.6901 17.881
533 1 -1.1104 9.60664 16.6546 15.0961
324 2 2.2208 8.13362 18.1498 13.7749
529 1 -1.1104 9.50798 19.4335 20.7117
323 2 2.2208 11.0159 15.2844 13.6953
322 2 2.2208 10.9017 21.0357 13.7138
342 1 -1.1104 1.18376 -3.06384 20.7706
363 1 -1.1104 3.90763 2.61099 20.7726
368 1 -1.1104 3.99355 -0.265001 20.841
361 1 -1.1104 3.90021 -3.05634 20.7277
344 1 -1.1104 0.976513 2.70234 20.7514
9007 2 2.2208 -0.284296 -1.52556 24.9785
474 1 -1.1104 6.64306 16.7181 26.4511
574 2 2.2208 -0.260177 4.04222 24.8979
320 2 2.2208 5.30555 20.995 13.8843
539 2 2.2208 5.32994 1.23987 22.1952
540 1 -1.1104 1.1768 -3.0603 23.641
541 1 -1.1104 1.27247 2.63692 23.5506
544 1 -1.1104 1.14503 -2.93615 26.3704
545 1 -1.1104 1.0742 2.72436 26.4087
548 1 -1.1104 1.22289 -0.159344 23.6525
550 2 2.2208 5.34568 -1.71207 25.0288
552 1 -1.1104 1.05832 -0.184711 26.4293
554 1 -1.1104 4.00352 -3.15775 23.6159
555 1 -1.1104 4.02011 2.45763 23.5389
556 2 2.2208 2.52404 1.20729 25.044
557 1 -1.1104 3.79592 -3.06004 26.3843
558 1 -1.1104 3.8982 2.59425 26.362
559 2 2.2208 2.52814 -1.70936 22.2086
560 2 2.2208 2.5065 4.10011 22.1314
561 1 -1.1104 4.06764 -0.210447 23.4764
562 1 -1.1104 3.99134 -0.221219 26.2116
551 2 2.2208 5.36628 4.09772 25.1167
8122 2 2.2208 8.18649 -4.30667 19.3193
536 1 -1.1104 9.42744 19.6142 23.6055
374 1 -1.1104 6.62292 16.6784 23.4048
346 1 -1.1104 6.79467 -2.92535 20.6414
348 1 -1.1104 6.77582 2.65352 20.7611
402 1 -1.1104 9.47741 -0.158791 20.7718
397 1 -1.1104 9.59474 2.56202 20.8322
356 1 -1.1104 6.76167 -0.111086 20.8875
385 1 -1.1104 12.4251 2.52645 20.8755
538 2 2.2208 10.7968 18.1667 22.1106
547 1 -1.1104 6.7865 2.65707 26.367
549 1 -1.1104 6.78175 -0.246145 23.587
542 1 -1.1104 6.83285 -3.12056 23.4663
553 1 -1.1104 6.70196 -0.153666 26.3367
546 1 -1.1104 6.84488 -3.02256 26.2723
383 1 -1.1104 12.3984 -2.99257 20.919
543 1 -1.1104 6.86968 2.62273 23.6228
575 2 2.2208 11.0348 1.25176 22.0947
576 1 -1.1104 12.559 -3.13507 23.4415
577 1 -1.1104 12.627 2.47076 23.5007
578 1 -1.1104 12.4484 -2.91895 26.2806
579 1 -1.1104 12.5514 2.65345 26.3661
580 1 -1.1104 12.3577 -0.208018 23.452
581 2 2.2208 11.0328 -1.53988 24.8727
582 2 2.2208 11.1195 3.95293 24.9452
583 1 -1.1104 12.4998 -0.211711 26.1597
584 1 -1.1104 9.76718 -2.90963 23.2528
585 1 -1.1104 9.79567 2.6961 23.4968
586 2 2.2208 8.14906 1.12864 24.8608
587 1 -1.1104 9.63335 -2.8611 26.233
588 1 -1.1104 9.48462 2.76562 26.3199
589 2 2.2208 8.13195 -1.5741 22.1607
590 2 2.2208 8.14211 4.03286 22.2242
591 1 -1.1104 9.5967 -0.104774 23.5645
592 1 -1.1104 9.63103 -0.00587476 26.448
410 1 -1.1104 6.81859 13.87 23.6042
428 1 -1.1104 1.1396 11.002 20.7785
444 1 -1.1104 4.06381 11.0749 20.8144
426 1 -1.1104 1.02368 5.50193 20.9006
632 2 2.2208 -0.134418 9.62676 25.0745
442 1 -1.1104 4.04022 5.37687 20.7493
437 1 -1.1104 3.99375 8.24884 20.7144
604 2 2.2208 5.44795 6.84431 22.2424
605 2 2.2208 5.46348 12.4994 22.2899
606 1 -1.1104 1.10708 8.35079 23.5113
608 1 -1.1104 1.33648 8.35821 26.4257
610 1 -1.1104 1.18891 5.38307 23.5979
611 1 -1.1104 1.20364 11.1741 23.5848
614 2 2.2208 5.35335 9.66199 24.9801
615 1 -1.1104 1.10305 5.4584 26.3181
616 1 -1.1104 0.944726 11.0979 26.631
619 1 -1.1104 3.95522 8.22724 23.5371
620 2 2.2208 2.65157 6.91262 25.0045
621 2 2.2208 2.48243 12.5537 25.081
622 1 -1.1104 4.06956 8.36257 26.3306
623 2 2.2208 2.59236 9.61999 22.0728
624 1 -1.1104 3.99242 5.33184 23.5056
625 1 -1.1104 4.07151 11.23 23.6015
626 1 -1.1104 3.8928 5.5641 26.3562
627 1 -1.1104 3.98767 11.0075 26.5229
633 2 2.2208 -0.268772 12.3304 22.191
9079 2 2.2208 -0.320712 6.86564 22.1697
469 1 -1.1104 9.6776 5.42266 20.6456
612 1 -1.1104 6.77179 5.40562 23.5647
464 1 -1.1104 9.73454 8.09481 20.723
419 1 -1.1104 6.81298 8.26944 20.7812
613 1 -1.1104 6.76071 11.1662 23.6565
617 1 -1.1104 6.8266 5.56291 26.359
609 1 -1.1104 6.87448 8.16724 26.3812
432 1 -1.1104 6.82831 10.9599 20.8521
607 1 -1.1104 6.75099 8.26841 23.6262
457 1 -1.1104 12.5589 5.56707 20.7813
618 1 -1.1104 6.61054 11.0637 26.4336
565 1 -1.1104 9.78253 8.30412 23.5554
567 1 -1.1104 12.3784 11.1632 26.4099
568 1 -1.1104 12.3988 5.52914 26.5603
569 2 2.2208 10.9641 9.64408 24.9862
628 1 -1.1104 12.408 11.1283 23.5895
629 1 -1.1104 12.5374 5.52714 23.6392
631 1 -1.1104 12.3015 8.33318 26.4895
634 1 -1.1104 12.4048 8.31578 23.5847
635 1 -1.1104 9.62039 11.0443 26.4445
636 1 -1.1104 9.72604 5.41831 26.3504
637 1 -1.1104 9.48945 11.1443 23.4893
638 1 -1.1104 9.63 5.52669 23.5204
639 2 2.2208 8.24569 9.58607 22.1763
640 1 -1.1104 9.51476 8.36638 26.3998
641 2 2.2208 8.16173 12.4567 25.0415
642 2 2.2208 8.24053 6.93557 25.0463
643 2 2.2208 11.1207 6.77104 22.2016
644 2 2.2208 11.1277 12.5437 22.1767
8784 2 2.2208 -0.158563 20.9776 25.0261
500 1 -1.1104 4.21102 13.9556 20.7649
483 1 -1.1104 1.02123 19.5308 20.8237
8783 2 2.2208 -0.312235 17.9743 22.2185
507 1 -1.1104 3.97161 16.7005 20.858
502 1 -1.1104 3.68424 19.4553 20.8243
481 1 -1.1104 1.35387 13.7278 20.8565
493 1 -1.1104 1.10249 16.6389 20.8473
599 1 -1.1104 1.17429 16.689 23.643
598 1 -1.1104 3.88749 16.7649 23.5565
376 1 -1.1104 3.97014 13.8571 26.45
377 1 -1.1104 3.95243 16.7648 26.4307
378 2 2.2208 2.56005 18.0909 25.0865
403 1 -1.1104 3.85993 19.5657 26.5116
407 2 2.2208 5.18022 18.0655 22.1828
408 1 -1.1104 1.15042 13.982 23.596
409 1 -1.1104 1.11736 19.447 23.6685
411 2 2.2208 5.34946 15.2837 24.9062
445 2 2.2208 5.29298 20.9798 25.151
447 1 -1.1104 1.29749 13.7622 26.5654
472 1 -1.1104 1.16437 16.6554 26.3791
473 1 -1.1104 1.13359 19.5449 26.5517
508 1 -1.1104 4.11476 13.9574 23.447
510 1 -1.1104 3.75176 19.5849 23.7545
570 2 2.2208 2.64132 15.2143 22.1817
597 2 2.2208 2.46204 20.9781 22.2614
17380 2 2.2208 13.5297 -4.35781 19.3108
535 2 2.2208 8.11952 18.0411 24.8348
566 1 -1.1104 12.4917 13.9032 23.5458
369 2 2.2208 8.00401 20.9874 22.213
527 1 -1.1104 9.65186 13.7771 20.7205
495 1 -1.1104 6.75544 16.6536 20.8233
522 1 -1.1104 12.3265 16.7162 20.8277
571 1 -1.1104 12.3575 19.5773 23.5405
602 2 2.2208 10.9082 20.9099 25.0778
509 1 -1.1104 6.66079 13.9123 26.4048
603 1 -1.1104 12.1475 16.8463 26.23
405 1 -1.1104 9.42854 13.837 26.4636
485 1 -1.1104 6.84443 13.8008 20.8417
487 1 -1.1104 6.61194 19.5161 20.8007
406 1 -1.1104 6.62189 19.5923 26.4615
600 1 -1.1104 12.3145 16.8439 23.6488
534 1 -1.1104 9.57301 16.7486 20.7286
537 1 -1.1104 9.60315 14.0415 23.5367
375 2 2.2208 8.07228 15.2641 22.1264
370 1 -1.1104 9.49239 16.7778 23.4412
517 1 -1.1104 12.448 19.4443 20.8096
515 1 -1.1104 12.4022 13.9799 20.7678
596 1 -1.1104 12.3228 19.5519 26.4017
601 2 2.2208 10.9039 15.3229 25.0127
371 1 -1.1104 9.43251 16.6852 26.2492
404 1 -1.1104 9.56366 19.4725 26.4268
8743 2 2.2208 -0.294082 15.3385 13.8097
8825 2 2.2208 -0.186701 15.3157 24.9121
8123 2 2.2208 10.8352 -4.39593 16.4198
8017 2 2.2208 2.53354 -4.27365 13.8005
325 2 2.2208 2.54512 3.96874 27.8025
594 2 2.2208 8.2135 -1.51109 27.6715
312 2 2.2208 11.0883 4.08693 13.778
309 2 2.2208 8.10643 20.9544 27.8166
564 2 2.2208 2.49665 -1.60733 27.7184
305 2 2.2208 2.51148 1.13788 13.7297
304 2 2.2208 5.34974 -1.56186 13.8179
645 2 2.2208 5.18424 23.9106 5.3497
646 2 2.2208 5.2644 29.4226 5.4334
647 1 -1.1104 1.07256 25.2792 1.23705
648 1 -1.1104 1.04399 25.2513 3.89407
649 1 -1.1104 1.02506 22.4454 1.27795
650 1 -1.1104 0.84963 27.9475 1.32932
651 2 2.2208 5.25131 26.4987 2.67284
652 1 -1.1104 1.13861 22.4079 4.04153
653 1 -1.1104 0.975478 28.0255 4.06163
654 1 -1.1104 3.87576 25.117 1.21447
655 2 2.2208 2.50825 23.8109 2.52871
656 2 2.2208 2.27004 29.3847 2.6276
657 1 -1.1104 3.80235 25.1973 3.9785
658 2 2.2208 2.36617 26.5928 5.43594
659 1 -1.1104 4.01118 22.4117 1.16767
660 1 -1.1104 3.72596 27.9857 1.35124
661 1 -1.1104 4.02424 22.5051 3.97022
662 1 -1.1104 3.91204 27.9625 4.11488
1276 2 2.2208 10.7638 34.9976 -0.187621
670 1 -1.1104 6.79906 22.3423 4.05433
965 2 2.2208 2.40397 26.5967 -0.107146
9438 2 2.2208 -0.257576 23.7706 -0.16012
9418 2 2.2208 13.6029 40.669 2.58874
1274 2 2.2208 7.96896 37.814 -0.147499
9406 2 2.2208 13.5576 43.5942 10.9139
9413 2 2.2208 13.5993 35.0408 2.54998
9305 2 2.2208 13.4984 37.8496 11.0387
669 1 -1.1104 6.514 27.8697 1.14906
668 1 -1.1104 6.71741 22.3286 1.1132
666 1 -1.1104 6.62184 25.1911 1.48282
671 1 -1.1104 6.64522 27.8542 4.04507
667 1 -1.1104 6.69443 25.1203 4.10177
672 2 2.2208 10.8526 23.747 5.2758
673 2 2.2208 10.8377 29.4208 5.30806
674 1 -1.1104 12.477 25.1495 1.16388
675 1 -1.1104 12.2115 25.2103 3.96557
676 1 -1.1104 12.1563 22.4416 1.01957
677 1 -1.1104 12.3928 28.0424 1.13954
678 2 2.2208 10.8065 26.557 2.45089
679 1 -1.1104 12.2973 22.2804 3.92818
680 1 -1.1104 12.2393 28.1108 3.89606
681 1 -1.1104 9.49976 25.1559 1.18124
682 2 2.2208 8.10471 23.6974 2.55108
683 2 2.2208 7.99128 29.2466 2.69112
684 1 -1.1104 9.51008 24.9388 3.88605
685 2 2.2208 8.0567 26.5184 5.37075
686 1 -1.1104 9.45908 22.2537 1.11978
687 1 -1.1104 9.44919 27.9618 1.14357
688 1 -1.1104 9.63401 22.1226 4.10569
689 1 -1.1104 9.50665 27.9172 3.70483
821 1 -1.1104 12.1254 28.1183 6.76018
791 1 -1.1104 6.6249 28.2328 6.85128
823 1 -1.1104 9.35109 22.3459 6.97251
968 2 2.2208 10.9722 23.7958 -0.299495
966 2 2.2208 5.20286 29.4667 -0.213075
971 2 2.2208 2.35252 32.1875 -0.210028
1246 2 2.2208 5.17973 34.9068 -0.0688976
964 2 2.2208 5.35677 23.7785 -0.0858998
693 2 2.2208 5.08741 34.9746 5.58373
694 1 -1.1104 1.0572 30.7619 1.18959
695 1 -1.1104 1.00711 36.416 1.28896
697 1 -1.1104 0.897749 30.7375 3.95433
698 1 -1.1104 0.995411 36.5128 4.02561
700 1 -1.1104 0.916386 33.7393 1.20617
701 2 2.2208 5.16486 32.1645 2.48927
702 2 2.2208 5.0688 37.7468 2.53721
703 1 -1.1104 0.975042 33.7192 3.98207
705 1 -1.1104 3.73872 30.7983 1.15291
706 1 -1.1104 3.73157 36.3576 1.03557
707 2 2.2208 2.32811 34.9601 2.61374
708 1 -1.1104 3.85631 30.8566 4.12837
709 1 -1.1104 3.72765 36.4018 3.96249
710 2 2.2208 2.29757 32.1642 5.42308
711 2 2.2208 2.23096 37.9099 5.36999
712 1 -1.1104 3.65859 33.5518 1.03267
713 1 -1.1104 3.7216 33.6326 4.0688
951 2 2.2208 10.8187 46.1479 -0.311826
9188 2 2.2208 13.7364 43.4447 5.17165
970 2 2.2208 10.8975 29.4224 -0.0388975
1244 2 2.2208 2.3216 37.7112 -0.244312
972 2 2.2208 7.98656 32.0851 -0.177634
699 1 -1.1104 6.59956 36.3036 4.09647
717 1 -1.1104 6.54658 30.6763 1.19738
704 1 -1.1104 6.62574 33.4678 3.97024
718 1 -1.1104 6.53808 30.6805 3.90568
696 1 -1.1104 6.61993 36.3421 1.23329
719 1 -1.1104 6.56806 33.607 1.23369
720 2 2.2208 10.8089 35.1918 5.38813
721 1 -1.1104 12.0778 30.8975 1.23023
722 1 -1.1104 12.1108 36.3528 1.18894
723 1 -1.1104 12.1994 30.7896 4.04395
724 1 -1.1104 12.1553 36.4303 3.99219
725 1 -1.1104 12.0956 33.4971 1.10797
726 2 2.2208 10.697 32.1861 2.63541
727 2 2.2208 10.8399 37.9284 2.57919
728 1 -1.1104 12.0959 33.5994 3.92959
729 1 -1.1104 9.412 30.8001 1.30549