ITEM: TIMESTEP
50000
ITEM: NUMBER OF ATOMS
17670
ITEM: BOX BOUNDS pp pp pp
-3.6069434100776770e-01 2.7700694341007782e+01
-4.3246535307381686e+00 3.3240465353073552e+02
-3.5486406005534071e-01 2.7694864060055608e+01
ITEM: ATOMS id type q x y z
1 2 2.2208 5.34931 1.32227 5.13788
2 1 -1.1104 1.08693 -2.98274 0.933419
3 1 -1.1104 1.00203 2.64755 0.984463
6 1 -1.1104 1.08607 -2.9712 3.79711
7 1 -1.1104 1.03918 2.71146 3.69303
10 1 -1.1104 1.10513 -0.269737 1.07599
12 2 2.2208 5.35464 -1.54886 2.43549
13 2 2.2208 5.27994 4.17049 2.25358
14 1 -1.1104 1.15021 -0.132789 3.86485
16 1 -1.1104 4.02042 -2.98575 0.950029
17 1 -1.1104 3.76983 2.79694 1.04207
18 2 2.2208 2.41654 1.2379 2.34254
19 1 -1.1104 3.93409 -2.98184 3.78873
20 1 -1.1104 3.76238 2.51345 3.71147
21 2 2.2208 2.56146 -1.43295 5.25765
22 2 2.2208 2.39712 4.05931 5.21927
23 1 -1.1104 3.69753 -0.139924 0.923492
24 1 -1.1104 3.97728 -0.148485 3.74884
8 1 -1.1104 6.77043 -2.8334 3.70415
4 1 -1.1104 6.74158 -2.95312 0.860195
174 1 -1.1104 3.83426 -0.114683 6.63269
15 1 -1.1104 6.67747 -0.0883453 3.93525
166 1 -1.1104 1.20891 -2.83851 6.65633
11 1 -1.1104 6.69449 -0.187941 0.996397
5 1 -1.1104 6.56123 2.79445 0.79741
7998 2 2.2208 8.02564 -4.35662 2.38611
167 1 -1.1104 0.976654 2.67345 6.54864
322 2 2.2208 10.6762 20.9478 13.4429
169 1 -1.1104 6.60101 2.72773 6.59263
9 1 -1.1104 6.67109 2.80329 3.72513
31 2 2.2208 10.8789 1.30826 5.10732
32 1 -1.1104 12.2885 -2.88156 1.04124
33 1 -1.1104 12.2457 2.61101 0.862894
34 1 -1.1104 12.2725 -2.84032 3.79546
35 1 -1.1104 12.4712 2.55649 3.77762
36 1 -1.1104 12.2411 -0.0831082 0.873017
37 2 2.2208 10.7961 -1.47857 2.38178
38 2 2.2208 10.8801 4.10691 2.3257
39 1 -1.1104 12.2261 -0.134056 3.53098
40 1 -1.1104 9.41231 -2.88417 0.940025
41 1 -1.1104 9.43857 2.75723 0.829668
42 2 2.2208 7.98035 1.36991 2.21996
43 1 -1.1104 9.55325 -2.96089 3.83637
44 1 -1.1104 9.68087 2.72608 3.68003
45 2 2.2208 8.11738 -1.54198 5.2066
46 2 2.2208 7.96358 4.18795 5.2547
47 1 -1.1104 9.37888 -0.0449849 0.809411
48 1 -1.1104 9.43286 -0.00223645 3.79089
205 1 -1.1104 12.3475 -3.00479 6.56157
206 1 -1.1104 12.3048 2.59589 6.52743
210 1 -1.1104 9.55488 -0.142142 6.50646
208 1 -1.1104 9.5453 -2.95523 6.62939
209 1 -1.1104 9.54836 2.64433 6.53862
8004 2 2.2208 11.0272 -4.25185 10.8686
8743 2 2.2208 -0.258272 15.3034 13.5626
306 2 2.2208 5.23923 3.98016 13.6418
54 2 2.2208 5.11186 6.93223 5.29679
55 2 2.2208 5.31201 12.4611 5.21308
56 1 -1.1104 0.966342 8.19231 1.08474
58 1 -1.1104 0.969079 8.17671 3.88335
60 1 -1.1104 0.927258 5.43368 0.996579
61 1 -1.1104 1.16157 11.1445 1.10142
66 2 2.2208 5.28211 9.64943 2.41317
67 1 -1.1104 1.00546 5.32871 3.74844
68 1 -1.1104 1.17167 11.0009 3.87809
71 1 -1.1104 3.7775 8.1719 1.02772
72 2 2.2208 2.46142 6.76637 2.49374
73 2 2.2208 2.54366 12.5597 2.42029
74 1 -1.1104 3.81332 8.26233 3.883
75 2 2.2208 2.44449 9.68313 5.25564
76 1 -1.1104 3.84298 5.44917 0.957234
77 1 -1.1104 3.88452 11.0682 1.1274
79 1 -1.1104 3.74474 5.37696 3.96051
80 1 -1.1104 3.89779 10.9553 3.77482
239 1 -1.1104 3.6378 5.51664 6.62541
69 1 -1.1104 6.5437 5.60242 3.84487
64 1 -1.1104 6.71948 11.0422 0.999332
238 1 -1.1104 3.7708 8.27391 6.63537
57 1 -1.1104 6.64186 8.37849 0.942573
237 1 -1.1104 6.43082 5.509 6.52907
78 1 -1.1104 3.97941 11.0577 6.66046
62 1 -1.1104 1.21077 11.1398 6.69155
201 2 2.2208 -0.318298 1.27513 10.7872
165 2 2.2208 8.07072 17.9988 7.90776
8712 2 2.2208 13.5936 6.81554 2.51371
70 1 -1.1104 6.70087 10.9416 3.80476
59 1 -1.1104 6.37868 8.20984 3.9042
63 1 -1.1104 6.73347 5.6461 1.09289
84 2 2.2208 10.8524 6.67477 5.12804
85 2 2.2208 10.8876 12.5931 5.16959
86 1 -1.1104 12.1853 8.15175 1.09822
87 1 -1.1104 12.1997 8.18928 3.81833
88 1 -1.1104 12.1948 5.53067 0.820221
89 1 -1.1104 12.2994 10.9879 1.12676
91 2 2.2208 10.8387 9.67716 2.45816
92 1 -1.1104 12.2666 5.41864 3.75039
93 1 -1.1104 12.327 11.03 3.92736
94 1 -1.1104 9.40998 8.3243 1.11446
95 2 2.2208 8.00368 6.8201 2.48208
96 2 2.2208 8.05348 12.3897 2.37847
97 1 -1.1104 9.45933 8.26677 3.89096
98 2 2.2208 8.11463 9.6218 5.25758
99 1 -1.1104 9.5309 5.49665 1.05542
100 1 -1.1104 9.45174 10.9648 1.08772
102 1 -1.1104 9.38501 5.37107 3.83053
103 1 -1.1104 9.57468 11.1311 3.80978
266 1 -1.1104 12.2741 5.36765 6.50324
267 1 -1.1104 9.68436 8.15439 6.74452
101 1 -1.1104 9.62865 10.8849 6.65127
265 1 -1.1104 12.4141 8.05378 6.61986
30 2 2.2208 7.99204 20.9422 10.6735
90 1 -1.1104 12.3275 10.879 6.81791
269 1 -1.1104 9.39583 5.42732 6.6373
317 2 2.2208 11.0114 9.63698 13.5753
106 2 2.2208 5.26042 18.0284 5.34425
107 1 -1.1104 1.06392 13.9726 1.05787
109 1 -1.1104 0.999715 19.401 1.05265
113 1 -1.1104 1.15177 13.7059 3.96233
114 1 -1.1104 0.872877 19.3869 3.84987
116 1 -1.1104 1.03496 16.6063 0.874933
119 2 2.2208 5.22989 15.3657 2.28039
120 2 2.2208 5.11587 20.7982 2.4703
121 1 -1.1104 1.0044 16.583 3.77557
123 1 -1.1104 3.77691 14.0523 1.07155
125 1 -1.1104 3.70321 19.4308 0.91763
127 2 2.2208 2.41781 17.8921 2.37564
128 1 -1.1104 3.94553 14.0509 3.7882
129 1 -1.1104 3.77621 19.3519 3.86676
130 2 2.2208 2.64217 15.3115 5.25671
131 2 2.2208 2.37732 20.8464 5.09006
132 1 -1.1104 3.8621 16.845 1.03636
134 1 -1.1104 3.86159 16.7433 3.84705
124 1 -1.1104 4.00173 13.8215 6.52851
140 1 -1.1104 6.6753 16.8053 1.05831
122 1 -1.1104 6.54081 16.4586 3.93501
138 1 -1.1104 6.47925 19.4776 1.00886
108 1 -1.1104 1.09823 13.8434 6.71108
115 1 -1.1104 6.63548 13.7904 3.73537
139 1 -1.1104 6.58907 19.2075 3.84836
118 1 -1.1104 6.78888 16.6314 6.67292
111 1 -1.1104 6.71745 13.8644 6.69672
289 1 -1.1104 6.62393 16.7553 9.28143
302 1 -1.1104 1.04466 19.4274 6.66767
112 1 -1.1104 6.67183 19.3187 6.62491
297 1 -1.1104 6.56687 13.8618 12.1464
126 1 -1.1104 3.8935 19.4446 6.66292
27 2 2.2208 10.7361 18.155 10.8743
8704 2 2.2208 13.5548 15.1478 10.8036
8706 2 2.2208 13.7408 1.22656 2.31206
17300 2 2.2208 13.5144 -4.31539 2.42333
154 1 -1.1104 9.54354 13.7758 6.65737
110 1 -1.1104 6.75013 13.8162 0.86611
141 2 2.2208 10.9692 18.0073 5.28611
142 1 -1.1104 12.3857 13.8855 0.99057
144 1 -1.1104 12.1631 19.385 0.829713
146 1 -1.1104 12.2486 13.8614 3.76248
147 1 -1.1104 12.274 19.2969 3.80089
148 1 -1.1104 12.2528 16.8243 1.08321
150 2 2.2208 10.9071 15.2628 2.35557
151 2 2.2208 10.8486 20.739 2.41485
152 1 -1.1104 12.207 16.5569 3.90265
153 1 -1.1104 9.52493 13.7259 0.989982
155 1 -1.1104 9.37945 19.4993 1.01411
157 2 2.2208 8.10121 18.0714 2.42834
158 1 -1.1104 9.36892 13.8747 3.87458
159 1 -1.1104 9.51061 19.4191 3.73064
160 2 2.2208 8.07732 15.1743 5.17375
161 2 2.2208 7.91508 20.672 5.1705
162 1 -1.1104 9.45597 16.662 0.86715
164 1 -1.1104 9.41454 16.6896 3.66011
163 1 -1.1104 9.4968 16.5564 6.48973
156 1 -1.1104 9.42957 19.4512 6.56447
296 1 -1.1104 6.54858 19.5533 12.1441
137 1 -1.1104 9.33754 19.5022 12.1456
143 1 -1.1104 12.3817 13.6472 6.67707
149 1 -1.1104 12.3083 16.5624 6.72413
327 2 2.2208 8.05245 9.65641 -0.405938
173 1 -1.1104 3.83688 2.70272 6.58045
172 1 -1.1104 3.96797 -2.88859 6.44536
8713 2 2.2208 -0.33104 15.2221 2.33262
29 1 -1.1104 9.33061 16.7051 12.0988
324 2 2.2208 7.98112 18.1669 13.442
170 1 -1.1104 1.03411 -0.226738 6.63582
168 1 -1.1104 6.71022 -3.04902 6.63422
175 2 2.2208 5.24022 1.27701 10.8643
176 1 -1.1104 1.07037 -2.95464 12.3097
177 1 -1.1104 1.03801 2.69866 12.2037
180 1 -1.1104 1.0509 -2.84462 9.44197
181 1 -1.1104 1.0466 2.57551 9.37144
184 1 -1.1104 1.13257 0.0584374 12.2596
186 2 2.2208 5.27994 -1.6427 7.98677
187 2 2.2208 5.21027 3.97611 7.95507
188 1 -1.1104 1.10274 -0.111672 9.42632
190 1 -1.1104 3.91711 -2.98004 12.2369
191 1 -1.1104 3.85444 2.53452 12.3466
192 2 2.2208 2.48398 1.22469 7.98857
193 1 -1.1104 3.89772 -2.96008 9.55132
194 1 -1.1104 3.8738 2.71431 9.38069
195 2 2.2208 2.53857 -1.53103 10.7707
196 2 2.2208 2.39827 4.001 10.8413
197 1 -1.1104 3.85172 -0.0895374 12.2223
198 1 -1.1104 3.81428 -0.238151 9.30722
183 1 -1.1104 6.59077 2.73317 9.40594
178 1 -1.1104 6.79102 -2.91278 12.1296
315 2 2.2208 2.43613 12.5111 13.6716
230 2 2.2208 8.02195 15.1892 10.878
104 2 2.2208 10.8941 15.219 8.067
8003 2 2.2208 8.13316 -4.30144 8.04647
49 1 -1.1104 12.1809 13.8602 12.2869
8406 2 2.2208 -0.405992 17.9993 10.7609
171 1 -1.1104 6.64473 -0.206301 6.76373
179 1 -1.1104 6.50044 2.64008 12.3494
189 1 -1.1104 6.60639 -0.265185 9.60242
185 1 -1.1104 6.65117 -0.220008 12.3233
207 1 -1.1104 12.4472 -0.152618 6.48846
182 1 -1.1104 6.68154 -3.05511 9.34134
211 2 2.2208 10.8513 1.24325 10.7951
212 1 -1.1104 12.454 -2.86645 12.3581
213 1 -1.1104 12.3144 2.65788 12.1063
214 1 -1.1104 12.2068 -2.75363 9.57909
215 1 -1.1104 12.1801 2.70776 9.41953
216 1 -1.1104 12.343 -0.212431 12.2678
217 2 2.2208 10.7968 -1.57815 7.95514
218 2 2.2208 10.9469 3.94982 7.98897
219 1 -1.1104 12.1343 -0.096612 9.32649
220 1 -1.1104 9.67052 -3.01533 12.177
221 1 -1.1104 9.34277 2.75468 12.2416
222 2 2.2208 8.04577 1.19173 7.99323
223 1 -1.1104 9.41969 -2.9297 9.37433
224 1 -1.1104 9.38952 2.57785 9.46673
225 2 2.2208 8.06368 -1.49947 10.8226
226 2 2.2208 8.12963 4.01818 10.8701
227 1 -1.1104 9.44419 -0.157346 12.1541
228 1 -1.1104 9.40746 -0.260702 9.30663
8710 2 2.2208 -0.266012 12.4997 5.19131
8626 2 2.2208 -0.33719 12.7079 10.7606
50 1 -1.1104 12.1468 19.4458 12.2437
235 1 -1.1104 6.72375 8.36056 6.69971
234 1 -1.1104 1.04878 8.35855 6.60909
199 1 -1.1104 9.39957 13.7967 9.45731
236 1 -1.1104 0.967684 5.52608 6.60448
240 2 2.2208 5.29222 6.81612 10.9544
241 2 2.2208 5.30255 12.4412 10.8058
242 1 -1.1104 1.08893 8.29448 12.2266
244 1 -1.1104 0.852086 8.3167 9.37192
246 1 -1.1104 0.998287 5.63687 12.2358
247 1 -1.1104 1.03407 11.1518 12.4104
250 2 2.2208 5.24707 9.62849 8.09076
251 1 -1.1104 1.09981 5.23232 9.44961
252 1 -1.1104 1.14782 11.1534 9.41305
255 1 -1.1104 3.87089 8.26763 12.3484
256 2 2.2208 2.41 6.86438 8.03094
257 2 2.2208 2.50018 12.4993 7.94806
258 1 -1.1104 3.83795 8.37685 9.37733
259 2 2.2208 2.35551 9.75518 10.8901
260 1 -1.1104 3.93245 5.34879 12.2124
261 1 -1.1104 3.79043 11.0213 12.3611
262 1 -1.1104 3.82007 5.61279 9.51936
263 1 -1.1104 3.78274 11.0685 9.54825
253 1 -1.1104 6.7341 5.50257 9.48312
145 1 -1.1104 12.087 19.3109 6.64028
318 2 2.2208 8.06437 12.4373 13.7177
8481 2 2.2208 13.5674 20.7243 5.13172
8707 2 2.2208 13.6033 -1.48215 5.25717
319 2 2.2208 2.44176 18.0405 13.5983
8705 2 2.2208 13.5848 18.0206 8.02487
65 1 -1.1104 6.8003 11.1709 6.56778
243 1 -1.1104 6.69219 8.18813 12.252
249 1 -1.1104 6.6784 11.1337 12.2914
245 1 -1.1104 6.61753 8.35114 9.45181
248 1 -1.1104 6.67049 5.43315 12.277
254 1 -1.1104 6.69749 10.9777 9.47686
264 1 -1.1104 9.42804 11.1473 9.47879
268 1 -1.1104 9.34086 5.37706 9.57511
270 1 -1.1104 9.5423 11.1899 12.2661
271 1 -1.1104 9.65854 5.4249 12.2263
272 2 2.2208 8.05233 9.75877 10.895
273 1 -1.1104 9.54411 8.32178 9.35748
274 2 2.2208 8.15705 12.3676 7.98603
275 2 2.2208 8.04252 6.81587 8.04042
276 2 2.2208 10.9367 6.81762 10.8108
277 2 2.2208 10.8589 12.4269 10.7764
278 1 -1.1104 12.2829 8.11328 12.1399
279 1 -1.1104 12.4097 8.34937 9.44561
280 1 -1.1104 12.4021 5.32967 12.3302
281 1 -1.1104 12.3521 10.9611 12.3695
282 2 2.2208 11.0033 9.59777 8.05872
283 1 -1.1104 12.3807 5.54623 9.33654
284 1 -1.1104 12.4171 11.1734 9.64898
285 1 -1.1104 9.61715 8.25611 12.062
136 1 -1.1104 9.37966 13.9323 12.2528
229 1 -1.1104 9.43228 19.3733 9.41882
83 1 -1.1104 12.1463 16.5809 12.1367
200 2 2.2208 -0.374645 -1.62784 8.09078
117 1 -1.1104 0.995695 16.5427 6.5338
133 1 -1.1104 3.86342 16.5965 6.66553
204 1 -1.1104 6.52735 16.6237 12.16
301 1 -1.1104 3.78059 19.459 9.2327
51 2 2.2208 2.49101 15.1834 10.6902
52 2 2.2208 2.35692 20.8478 10.7681
202 1 -1.1104 3.7913 16.7063 12.1341
203 1 -1.1104 1.07506 16.586 12.1732
231 1 -1.1104 3.79034 13.917 9.2941
232 1 -1.1104 3.80618 16.8174 9.31587
233 2 2.2208 2.4266 18.0134 7.91951
286 1 -1.1104 3.64358 19.4064 12.0835
287 1 -1.1104 3.9181 13.8587 12.231
291 1 -1.1104 1.01061 19.4061 9.43112
292 1 -1.1104 0.972718 16.6956 9.41082
293 2 2.2208 5.25215 20.9083 8.0222
294 1 -1.1104 0.955112 13.9923 9.31949
295 2 2.2208 5.3038 15.2328 8.04015
298 1 -1.1104 0.982721 19.4407 12.1902
299 1 -1.1104 1.13827 13.8684 12.2078
300 2 2.2208 5.25306 18.0846 10.6523
288 1 -1.1104 6.71693 19.5966 9.37181
290 1 -1.1104 6.53788 13.7645 9.43608
105 2 2.2208 10.8292 20.8347 8.1033
314 2 2.2208 5.26668 9.70325 13.619
28 1 -1.1104 9.21379 16.4724 9.31165
81 1 -1.1104 12.006 19.5287 9.55639
135 1 -1.1104 12.1668 16.6182 9.3389
53 1 -1.1104 12.3382 13.9352 9.45023
8502 2 2.2208 13.7043 15.1944 5.38434
25 2 2.2208 -0.373199 -1.54123 2.51726
8014 2 2.2208 8.08302 -4.28719 13.5879
8666 2 2.2208 13.637 20.8422 10.7777
326 2 2.2208 10.8082 12.4771 -0.403798
82 2 2.2208 -0.237956 9.6312 2.47279
333 2 2.2208 2.46565 9.69652 -0.283946
320 2 2.2208 5.0869 20.7658 13.5324
309 2 2.2208 8.0075 20.8227 -0.331522
311 2 2.2208 10.8816 -1.5417 13.6131
316 2 2.2208 8.09476 6.96176 13.5943
323 2 2.2208 10.8535 15.1744 13.6068
334 2 2.2208 -0.240534 12.4535 -0.205781
630 2 2.2208 5.29992 12.4569 -0.386182
303 2 2.2208 -0.271808 -1.51751 13.5632
336 2 2.2208 5.33084 1.20702 16.3319
337 1 -1.1104 1.04512 -3.00312 17.8721
338 1 -1.1104 1.09836 2.63575 17.8446
341 1 -1.1104 1.12452 -2.95964 15.0069
343 1 -1.1104 0.882438 2.55808 15.0774
349 1 -1.1104 0.981293 -0.253359 17.7894
351 2 2.2208 5.27868 -1.52012 19.12
352 2 2.2208 5.33824 4.10912 19.2071
353 1 -1.1104 0.967092 -0.147381 15.0489
357 1 -1.1104 3.92236 -3.03762 17.8476
358 1 -1.1104 3.95327 2.56266 17.8688
359 2 2.2208 2.5414 1.30431 19.3211
360 1 -1.1104 3.98394 -2.97543 15.0492
362 1 -1.1104 3.75532 2.66197 15.1672
364 2 2.2208 2.49216 -1.60037 16.5118
365 2 2.2208 2.47554 3.97086 16.4975
366 1 -1.1104 3.81839 -0.236314 17.8107
367 1 -1.1104 3.87783 -0.280036 14.945
339 1 -1.1104 6.60129 -3.04143 17.8363
345 1 -1.1104 6.79883 -2.88998 15.0027
363 1 -1.1104 4.01141 2.78945 20.5914
350 1 -1.1104 6.54569 -0.0198583 17.8195
347 1 -1.1104 6.66447 2.63808 15.071
348 1 -1.1104 6.64306 2.75996 20.6363
361 1 -1.1104 3.86013 -2.88202 20.5856
355 1 -1.1104 6.5996 -0.148372 15.0459
8084 2 2.2208 8.08008 -4.37543 24.7459
509 1 -1.1104 6.55878 13.9048 26.1083
371 1 -1.1104 9.44704 16.6501 26.0346
368 1 -1.1104 4.00312 -0.0724634 20.5404
344 1 -1.1104 1.14025 2.63701 20.6836
354 1 -1.1104 1.11888 -0.163682 20.6605
346 1 -1.1104 6.65868 -2.89782 20.6062
8729 2 2.2208 13.6996 6.83363 13.7979
340 1 -1.1104 6.8452 2.6804 17.8463
8932 2 2.2208 13.565 20.9556 16.4287
379 2 2.2208 10.8958 1.19349 16.3924
380 1 -1.1104 12.2528 -3.05322 18.078
381 1 -1.1104 12.2858 2.40755 17.7389
382 1 -1.1104 12.2919 -2.89877 15.1166
384 1 -1.1104 12.2662 2.57642 14.9726
386 1 -1.1104 12.2398 -0.23719 17.9383
387 2 2.2208 10.9469 -1.5861 19.3517
388 2 2.2208 10.8518 3.85516 19.2759
389 1 -1.1104 12.2361 -0.153394 15.0486
391 1 -1.1104 9.39594 -2.87808 17.7413
392 1 -1.1104 9.5505 2.48523 17.759
393 2 2.2208 8.09268 1.24823 19.1104
394 1 -1.1104 9.46258 -2.92767 14.9696
396 1 -1.1104 9.39722 2.53886 14.9635
398 2 2.2208 8.14535 -1.52173 16.3977
400 1 -1.1104 9.50367 -0.281308 17.8025
401 1 -1.1104 9.42177 -0.134143 15.0664
399 2 2.2208 8.17203 4.09941 16.5044
383 1 -1.1104 12.4152 -3.04023 20.7642
385 1 -1.1104 12.3113 2.59633 20.5269
8012 2 2.2208 5.28628 -4.33533 27.6238
395 1 -1.1104 9.61392 -3.00043 20.6787
308 2 2.2208 10.8209 18.0775 27.7101
370 1 -1.1104 9.31745 16.6747 23.2857
412 2 2.2208 5.26222 6.75769 16.3974
413 2 2.2208 5.25573 12.4883 16.452
414 1 -1.1104 1.05917 8.25876 17.7511
416 1 -1.1104 1.10888 8.31437 15.026
420 1 -1.1104 1.11515 5.40495 17.7865
421 1 -1.1104 0.946686 11.0503 17.8763
424 2 2.2208 5.13517 9.65858 19.2665
425 1 -1.1104 1.06487 5.47194 15.1015
427 1 -1.1104 1.05918 11.2408 14.9969
433 1 -1.1104 3.86406 8.12325 17.8982
434 2 2.2208 2.54013 6.93322 19.2934
435 2 2.2208 2.33672 12.4926 19.1871
436 1 -1.1104 3.87296 8.14127 15.0715
438 2 2.2208 2.54793 9.6162 16.4358
439 1 -1.1104 3.88373 5.4456 17.8632
440 1 -1.1104 3.7584 11.106 17.796
441 1 -1.1104 3.92698 5.39929 15.0017
443 1 -1.1104 4.02315 10.9215 15.1892
417 1 -1.1104 1.18676 8.4347 20.7021
437 1 -1.1104 4.05249 8.39726 20.7338
429 1 -1.1104 6.68488 5.36556 15.1349
423 1 -1.1104 6.64281 11.1096 17.8376
418 1 -1.1104 6.71902 8.25819 15.0135
426 1 -1.1104 1.17523 5.53433 20.6548
432 1 -1.1104 6.64784 11.0243 20.6447
602 2 2.2208 10.7906 20.8295 24.7896
430 1 -1.1104 6.71741 5.63492 20.6836
428 1 -1.1104 0.941386 10.954 20.7342
444 1 -1.1104 3.75375 11.2067 20.5519
596 1 -1.1104 12.2767 19.4546 26.2231
415 1 -1.1104 6.65106 8.3012 17.865
422 1 -1.1104 6.68778 5.46129 17.903
431 1 -1.1104 6.71626 10.911 15.046
448 2 2.2208 10.885 6.96046 16.4771
449 2 2.2208 10.9238 12.4189 16.5018
450 1 -1.1104 12.4163 8.31088 17.9722
451 1 -1.1104 12.3116 8.32289 15.0168
453 1 -1.1104 12.2702 5.55384 17.8041
454 1 -1.1104 12.2888 11.0104 17.8409
455 2 2.2208 10.8925 9.63965 19.2521
456 1 -1.1104 12.3453 5.45989 15.0744
458 1 -1.1104 12.332 11.1563 15.1267
460 1 -1.1104 9.46971 8.27996 17.7316
461 2 2.2208 8.05276 6.86347 19.2011
462 2 2.2208 8.127 12.4877 19.1918
463 1 -1.1104 9.49984 8.29316 14.9504
465 2 2.2208 8.04395 9.69614 16.4451
466 1 -1.1104 9.58443 5.41035 17.8198
467 1 -1.1104 9.38983 11.0943 17.7856
468 1 -1.1104 9.59052 5.46829 15.1724
470 1 -1.1104 9.59289 11.2217 15.0192
464 1 -1.1104 9.40907 8.21521 20.7216
457 1 -1.1104 12.3186 5.47087 20.6011
452 1 -1.1104 12.2007 8.33125 20.7655
471 1 -1.1104 9.41284 11.0464 20.5535
564 2 2.2208 2.44012 -1.60065 27.6529
571 1 -1.1104 12.1575 19.3801 23.307
572 1 -1.1104 12.263 13.9959 26.2845
475 2 2.2208 5.21057 18.1886 16.4742
476 1 -1.1104 0.930876 13.9265 17.8045
477 1 -1.1104 1.10215 19.4649 17.9271
480 1 -1.1104 0.940926 13.9553 15.0077
482 1 -1.1104 1.06655 19.4052 15.0898
488 1 -1.1104 0.825705 16.6867 17.8141
490 2 2.2208 5.23784 15.2697 19.0935
491 2 2.2208 5.1599 21.0175 19.2778
492 1 -1.1104 1.1853 16.7268 15.0677
496 1 -1.1104 3.74107 13.9953 17.7585
497 1 -1.1104 3.84839 19.5109 17.7963
498 2 2.2208 2.4054 18.093 19.2854
499 1 -1.1104 3.82367 13.7421 15.0482
501 1 -1.1104 3.96765 19.3688 15.005
503 2 2.2208 2.37022 15.2794 16.4198
504 2 2.2208 2.36404 20.8007 16.5136
505 1 -1.1104 3.67795 16.8043 17.8523
506 1 -1.1104 3.99945 16.6728 14.9812
494 1 -1.1104 6.71788 16.6514 14.9065
493 1 -1.1104 1.045 16.7412 20.5817
478 1 -1.1104 6.6374 13.8171 17.7246
484 1 -1.1104 6.64404 13.7064 14.9803
483 1 -1.1104 1.00096 19.5385 20.6567
500 1 -1.1104 3.65972 13.9051 20.5803
486 1 -1.1104 6.63985 19.3699 14.9198
479 1 -1.1104 6.60006 19.523 17.8173
489 1 -1.1104 6.54805 16.7106 17.7474
487 1 -1.1104 6.61176 19.5469 20.6651
495 1 -1.1104 6.69046 16.7584 20.4825
481 1 -1.1104 0.974561 13.977 20.651
325 2 2.2208 2.38076 4.10368 27.6577
485 1 -1.1104 6.65363 13.7887 20.5299
8861 2 2.2208 13.6402 12.5202 19.1607
511 2 2.2208 10.7182 18.1116 16.3224
512 1 -1.1104 12.271 13.9346 17.8051
513 1 -1.1104 12.1766 19.4129 17.8981
514 1 -1.1104 12.2843 13.9348 14.9851
516 1 -1.1104 12.2408 19.5156 14.9772
518 1 -1.1104 12.1299 16.7365 17.6604
519 2 2.2208 10.8383 15.3534 19.1464
520 2 2.2208 10.8421 20.8749 19.0906
521 1 -1.1104 12.3768 16.657 14.8524
523 1 -1.1104 9.4716 13.7515 17.8734
524 1 -1.1104 9.38172 19.6131 17.6481
525 2 2.2208 7.95904 18.1069 19.1446
526 1 -1.1104 9.32773 13.8296 15.0107
528 1 -1.1104 9.42068 19.5007 14.9056
530 2 2.2208 8.01542 15.3403 16.3346
531 2 2.2208 8.01938 20.9566 16.1914
532 1 -1.1104 9.31662 16.8258 17.5937
533 1 -1.1104 9.5715 16.6709 14.9363
529 1 -1.1104 9.36056 19.3929 20.5149
534 1 -1.1104 9.44544 16.636 20.4057
522 1 -1.1104 12.1455 16.529 20.5474
517 1 -1.1104 12.2447 19.5562 20.5968
515 1 -1.1104 12.2338 13.8951 20.8139
373 2 2.2208 -0.339698 -1.5832 19.276
342 1 -1.1104 1.04103 -3.0705 20.6142
595 2 2.2208 8.23275 4.15302 27.4887
600 1 -1.1104 12.0772 16.7168 23.2629
539 2 2.2208 5.36477 1.25104 22.0112
540 1 -1.1104 1.11711 -2.8945 23.4321
541 1 -1.1104 1.06453 2.65757 23.3864
544 1 -1.1104 1.10425 -3.07273 26.1734
545 1 -1.1104 1.02398 2.56462 26.1077
548 1 -1.1104 1.17673 -0.167293 23.505
550 2 2.2208 5.3809 -1.54026 24.7056
552 1 -1.1104 1.1119 -0.139214 26.2485
554 1 -1.1104 3.86613 -2.78719 23.4023
555 1 -1.1104 3.74584 2.61708 23.4009
556 2 2.2208 2.50286 1.26435 24.8929
557 1 -1.1104 3.89523 -3.09531 26.1055
558 1 -1.1104 3.8144 2.61659 26.2645
559 2 2.2208 2.50304 -1.544 22.0033
560 2 2.2208 2.52535 4.08569 21.9721
561 1 -1.1104 3.98109 -0.115506 23.3662
562 1 -1.1104 4.01622 -0.200957 26.2185
551 2 2.2208 5.25118 3.97855 24.8771
547 1 -1.1104 6.60517 2.57757 26.0665
546 1 -1.1104 6.80389 -2.9068 26.1117
542 1 -1.1104 6.63946 -2.85259 23.3528
543 1 -1.1104 6.65907 2.69698 23.289
549 1 -1.1104 6.76869 -0.0940047 23.3596
356 1 -1.1104 6.7162 -0.0865815 20.5739
8124 2 2.2208 2.46867 -4.34647 19.1847
8087 2 2.2208 5.28194 -4.21489 22.0038
563 2 2.2208 5.35175 1.27876 27.5683
536 1 -1.1104 9.42561 19.4548 23.4527
537 1 -1.1104 9.36856 13.9382 23.4044
603 1 -1.1104 12.115 16.722 26.336
397 1 -1.1104 9.45118 2.44805 20.5252
402 1 -1.1104 9.46234 -0.210329 20.5732
390 1 -1.1104 12.2754 -0.165291 20.5992
8085 2 2.2208 10.9474 -4.32465 22.0723
538 2 2.2208 10.7862 18.0354 21.8735
553 1 -1.1104 6.81981 -0.048749 26.2192
575 2 2.2208 11.0017 1.27344 22.026
576 1 -1.1104 12.4521 -2.94366 23.5815
577 1 -1.1104 12.318 2.75904 23.3121
578 1 -1.1104 12.2321 -2.91781 26.2445
579 1 -1.1104 12.2971 2.88325 26.1176
580 1 -1.1104 12.4423 -0.0325005 23.3396
581 2 2.2208 10.9631 -1.44937 24.8498
583 1 -1.1104 12.3495 0.0463467 26.1244
584 1 -1.1104 9.48334 -2.90618 23.3849
585 1 -1.1104 9.63683 2.6509 23.3835
586 2 2.2208 8.14384 1.36054 24.7026
587 1 -1.1104 9.539 -2.98747 26.227
588 1 -1.1104 9.55713 2.73461 26.0761
589 2 2.2208 8.19544 -1.46982 22.0052
590 2 2.2208 8.12303 4.07318 21.9857
591 1 -1.1104 9.62334 -0.154514 23.3387
592 1 -1.1104 9.48899 -0.0647784 26.0905
582 2 2.2208 10.869 4.16847 24.877
8744 2 2.2208 -0.402176 20.6868 13.5975
405 1 -1.1104 9.39876 13.845 26.2573
442 1 -1.1104 4.03744 5.66621 20.6176
8788 2 2.2208 13.6602 17.9266 24.8377
8123 2 2.2208 10.837 -4.27772 16.5614
604 2 2.2208 5.31759 6.84315 22.0491
605 2 2.2208 5.24365 12.5722 21.8953
606 1 -1.1104 1.23873 8.36601 23.5651
608 1 -1.1104 1.23138 8.27251 26.4649
610 1 -1.1104 1.0416 5.52402 23.3035
611 1 -1.1104 1.04259 11.1276 23.6267
614 2 2.2208 5.25838 9.71478 24.7979
615 1 -1.1104 1.09728 5.41323 26.2527
616 1 -1.1104 1.07403 11.0421 26.3497
619 1 -1.1104 3.91151 8.32503 23.4207
620 2 2.2208 2.4958 6.82661 24.921
621 2 2.2208 2.44373 12.4225 24.9925
622 1 -1.1104 3.92147 8.25491 26.1996
623 2 2.2208 2.47491 9.69784 22.1196
624 1 -1.1104 3.94475 5.42371 23.4986
625 1 -1.1104 3.90913 11.0889 23.4896
626 1 -1.1104 3.83494 5.46942 26.2058
627 1 -1.1104 3.79246 11.0893 26.4337
607 1 -1.1104 6.68774 8.332 23.3326
613 1 -1.1104 6.50593 11.0606 23.3923
609 1 -1.1104 6.76276 8.23291 26.1078
419 1 -1.1104 6.65766 8.37542 20.5474
459 1 -1.1104 12.0673 11.1542 20.5807
469 1 -1.1104 9.45618 5.38707 20.4681
8860 2 2.2208 13.6726 6.74413 19.2265
612 1 -1.1104 6.65479 5.40655 23.4549
527 1 -1.1104 9.3576 14.0487 20.5386
617 1 -1.1104 6.53337 5.3758 26.2464
618 1 -1.1104 6.65267 10.9673 26.2774
565 1 -1.1104 9.45654 8.15657 23.6655
567 1 -1.1104 12.0891 11.0725 26.2966
568 1 -1.1104 12.2286 5.56724 26.2093
569 2 2.2208 10.8985 9.60815 24.8165
628 1 -1.1104 12.2147 11.0994 23.421
629 1 -1.1104 12.1822 5.49806 23.4354
631 1 -1.1104 12.3082 8.23097 26.2635
634 1 -1.1104 12.2585 8.36095 23.5008
635 1 -1.1104 9.26161 11.2193 26.3036
636 1 -1.1104 9.51895 5.54503 26.1543
637 1 -1.1104 9.44156 11.091 23.4011
638 1 -1.1104 9.37612 5.50136 23.2951
639 2 2.2208 8.11793 9.68624 22.1019
640 1 -1.1104 9.41041 8.41179 26.4359
641 2 2.2208 7.93997 12.4569 24.7514
642 2 2.2208 7.95795 6.9131 24.7915
643 2 2.2208 10.8531 6.86393 22.0758
644 2 2.2208 10.7672 12.5194 22.035
9079 2 2.2208 -0.248633 6.93197 22.0771
594 2 2.2208 8.00201 -1.51348 27.5768
570 2 2.2208 2.33808 15.3096 21.9037
502 1 -1.1104 3.82616 19.4712 20.6358
510 1 -1.1104 3.78617 19.5945 23.4248
406 1 -1.1104 6.59158 19.5463 26.0729
8929 2 2.2208 13.6243 15.315 16.345
508 1 -1.1104 3.76551 13.9344 23.4005
597 2 2.2208 2.39934 20.8448 22.0966
507 1 -1.1104 3.89844 16.7187 20.6693
410 1 -1.1104 6.70268 13.9733 23.2767
374 1 -1.1104 6.62288 16.8416 23.4349
446 1 -1.1104 6.65932 19.6034 23.2905
474 1 -1.1104 6.60542 16.7102 26.2775
599 1 -1.1104 0.817502 16.5599 23.4201
598 1 -1.1104 3.87112 16.7487 23.4571
376 1 -1.1104 3.86752 13.9607 26.2796
377 1 -1.1104 3.84342 16.7065 26.1732
378 2 2.2208 2.37177 18.1333 24.818
403 1 -1.1104 3.58416 19.5493 26.1104
407 2 2.2208 5.21502 18.1388 22.036
408 1 -1.1104 0.919922 13.9705 23.386
409 1 -1.1104 1.00066 19.4754 23.4902
411 2 2.2208 5.33095 15.3052 24.8471
445 2 2.2208 5.19908 20.9642 24.8025
447 1 -1.1104 1.05144 13.8111 26.3333
472 1 -1.1104 1.08414 16.6691 26.2052
473 1 -1.1104 0.719646 19.4895 26.2878
369 2 2.2208 8.03384 20.8602 21.9348
332 2 2.2208 5.27703 6.81805 27.5575
593 2 2.2208 10.8364 1.27649 27.4349
566 1 -1.1104 12.1867 13.9261 23.5511
535 2 2.2208 8.06206 18.2572 24.7824
404 1 -1.1104 9.45486 19.4655 26.221
375 2 2.2208 7.95357 15.4597 21.8956
601 2 2.2208 10.8676 15.3343 24.8096
310 2 2.2208 7.9842 1.27287 13.5974
8866 2 2.2208 -0.434873 12.4842 16.3522
8931 2 2.2208 13.5717 18.0619 19.1379
8826 2 2.2208 13.6645 6.85473 24.8504
329 2 2.2208 2.42032 15.2821 27.5828
304 2 2.2208 5.30371 -1.61957 13.6231
328 2 2.2208 10.7855 6.97172 27.6794
574 2 2.2208 -0.248252 4.00557 24.7097
372 2 2.2208 -0.382764 1.1958 16.4396
8718 2 2.2208 13.5901 20.8261 27.7341
8828 2 2.2208 -0.340607 4.04806 19.2108
8975 2 2.2208 13.5283 12.3714 24.8665
330 2 2.2208 5.22217 18.2529 27.5976
8745 2 2.2208 13.5897 4.06358 27.637
8790 2 2.2208 -0.233867 1.14678 27.6293
9007 2 2.2208 -0.337032 -1.73324 24.8445
307 2 2.2208 8.12119 15.3132 27.502
321 2 2.2208 5.21466 15.2661 13.669
312 2 2.2208 10.8427 4.10085 13.7038
305 2 2.2208 2.52587 1.081 13.7945
331 2 2.2208 2.37579 20.91 27.5119
313 2 2.2208 2.4946 6.72351 13.6801
645 2 2.2208 5.15483 23.4845 5.15596
646 2 2.2208 5.21864 29.1631 5.10325
647 1 -1.1104 1.0435 25.178 1.04846
648 1 -1.1104 0.984159 24.9185 3.77961
649 1 -1.1104 0.937106 22.1956 0.927075
650 1 -1.1104 1.03806 27.8425 0.905501
651 2 2.2208 5.30257 26.3417 2.41914
652 1 -1.1104 1.09766 22.261 3.72639
653 1 -1.1104 1.10655 27.7113 3.67995
654 1 -1.1104 3.87583 24.923 1.03361
655 2 2.2208 2.32026 23.6157 2.35239
656 2 2.2208 2.42783 29.1882 2.38629
657 1 -1.1104 3.99877 25.1204 3.84522
658 2 2.2208 2.41151 26.4003 5.13215
659 1 -1.1104 3.80244 22.2318 0.939033
660 1 -1.1104 3.76328 27.801 0.815068
661 1 -1.1104 3.74144 22.2865 3.79632
662 1 -1.1104 3.843 27.9519 3.68644
669 1 -1.1104 6.53885 27.8018 0.873918
666 1 -1.1104 6.58829 24.9325 1.09949
671 1 -1.1104 6.59704 27.7799 3.67892
1497 1 -1.1104 3.68663 47.3691 12.301
788 1 -1.1104 0.859859 22.1938 6.61045
794 1 -1.1104 3.71857 27.8124 6.47089
789 1 -1.1104 1.0455 27.7759 6.46292
790 1 -1.1104 6.53575 22.0376 6.37656
791 1 -1.1104 6.76091 27.6549 6.70372
787 1 -1.1104 6.62791 24.7538 6.5686
1488 1 -1.1104 6.60985 47.3427 9.58337
9371 2 2.2208 13.3429 45.9746 8.11534
667 1 -1.1104 6.70506 25.0373 3.92008
670 1 -1.1104 6.55129 22.1512 3.69755
668 1 -1.1104 6.64085 22.1387 0.881551
672 2 2.2208 10.8377 23.5352 5.23431
673 2 2.2208 10.881 29.16 5.34181
674 1 -1.1104 12.2202 25.04 0.928974
675 1 -1.1104 12.0821 24.8962 3.85456
676 1 -1.1104 12.0076 22.1572 0.883968
677 1 -1.1104 12.1541 27.8291 0.903553
678 2 2.2208 10.8567 26.451 2.3784
679 1 -1.1104 12.1167 22.0929 3.78234
680 1 -1.1104 12.3575 27.5903 3.84296
681 1 -1.1104 9.52654 25.2062 0.852446
682 2 2.2208 8.01652 23.5434 2.3304
683 2 2.2208 8.01497 29.1727 2.36699
684 1 -1.1104 9.3176 24.9958 3.78993
685 2 2.2208 8.09968 26.3938 5.2734
686 1 -1.1104 9.26957 22.2953 0.913768
687 1 -1.1104 9.35259 27.8708 0.968341
688 1 -1.1104 9.32876 22.1003 3.84417
689 1 -1.1104 9.40561 27.944 3.8856
823 1 -1.1104 9.54317 22.2262 6.7056
820 1 -1.1104 12.2857 22.1461 6.60306
1518 1 -1.1104 12.0856 47.1982 12.3074
824 1 -1.1104 9.5149 27.7443 6.59883
821 1 -1.1104 12.302 27.5837 6.69339
819 1 -1.1104 12.2249 24.8323 6.65749
822 1 -1.1104 9.42325 25.0956 6.57631
9360 2 2.2208 13.5272 40.4113 8.00765
9409 2 2.2208 13.5767 29.0895 2.47445
1486 1 -1.1104 1.07829 47.3149 9.40089
1485 1 -1.1104 6.53641 47.3531 12.4828
693 2 2.2208 5.14747 34.843 5.21301
694 1 -1.1104 1.0642 30.6467 0.943437
695 1 -1.1104 0.899461 36.2421 0.975938
697 1 -1.1104 0.926532 30.5391 3.69395
698 1 -1.1104 0.976143 36.1822 3.81681
700 1 -1.1104 0.998365 33.323 0.921038
701 2 2.2208 5.14396 32.0719 2.45073
702 2 2.2208 5.15643 37.5859 2.43442
703 1 -1.1104 0.924269 33.4312 3.6056
705 1 -1.1104 3.82787 30.7218 1.20553
706 1 -1.1104 3.73779 36.1953 0.820868
707 2 2.2208 2.3114 34.8905 2.33202
708 1 -1.1104 3.86167 30.7909 3.85261
709 1 -1.1104 3.63528 36.4302 3.61153
710 2 2.2208 2.36218 32.0441 5.01045
711 2 2.2208 2.44745 37.6575 5.19667
712 1 -1.1104 3.8517 33.422 0.855713
713 1 -1.1104 3.81843 33.5753 3.68196
851 1 -1.1104 3.84271 33.2779 6.58813
717 1 -1.1104 6.64696 30.5898 0.967493
696 1 -1.1104 6.53944 36.2901 0.946038
704 1 -1.1104 6.5619 33.3922 3.83572
849 1 -1.1104 3.72866 30.596 6.53918
718 1 -1.1104 6.55304 30.6138 3.68474
699 1 -1.1104 6.48583 36.1902 3.74804
719 1 -1.1104 6.61932 33.4745 0.916589
847 1 -1.1104 0.931456 33.4367 6.52062
843 1 -1.1104 1.01079 30.5857 6.54954
1531 1 -1.1104 9.36581 47.1749 9.41534
1520 1 -1.1104 12.087 47.3291 9.49987
720 2 2.2208 10.8104 34.7053 5.19904
721 1 -1.1104 12.1499 30.4866 1.11374
722 1 -1.1104 12.3105 36.0853 0.840704
723 1 -1.1104 12.2928 30.3524 3.91638
724 1 -1.1104 12.0476 36.0701 3.86362
725 1 -1.1104 12.1414 33.4926 1.03342
726 2 2.2208 10.8821 31.9295 2.37027
727 2 2.2208 10.7001 37.5821 2.51359
728 1 -1.1104 12.1939 33.1947 3.95126
729 1 -1.1104 9.35449 30.5819 0.965774
730 1 -1.1104 9.43409 36.2148 0.918161
731 2 2.2208 7.96525 34.7752 2.42681
732 1 -1.1104 9.53839 30.6088 3.88557
733 1 -1.1104 9.22657 36.1546 3.77857
734 2 2.2208 8.00935 32.0646 5.24537
735 2 2.2208 7.94664 37.571 5.27436
736 1 -1.1104 9.35729 33.3481 1.0812