ITEM: TIMESTEP
40000
ITEM: NUMBER OF ATOMS
17670
ITEM: BOX BOUNDS pp pp pp
-3.5550031589525655e-01 2.7695500315895146e+01
-4.2570875304705833e+00 3.3233708753046619e+02
-3.5437675800108054e-01 2.7694376758000978e+01
ITEM: ATOMS id type q x y z
1 2 2.2208 5.29902 1.37511 5.19987
2 1 -1.1104 1.22671 -2.91283 1.01521
3 1 -1.1104 0.969995 2.80679 1.15951
6 1 -1.1104 1.00983 -2.91435 3.77036
7 1 -1.1104 1.08691 2.72768 4.00517
10 1 -1.1104 1.08593 -0.0142748 1.11513
12 2 2.2208 5.25418 -1.5484 2.60575
13 2 2.2208 5.10213 4.2075 2.49059
14 1 -1.1104 1.01276 -0.0694776 3.87638
16 1 -1.1104 3.99715 -2.89769 1.08541
17 1 -1.1104 3.8087 2.84332 1.12919
18 2 2.2208 2.5366 1.29678 2.53918
19 1 -1.1104 3.76905 -2.90164 3.96974
20 1 -1.1104 3.77667 2.71252 3.81944
21 2 2.2208 2.40604 -1.59657 5.26338
22 2 2.2208 2.33202 4.1886 5.28194
23 1 -1.1104 3.9655 -0.177465 1.08348
24 1 -1.1104 3.76185 -0.155405 3.96334
5 1 -1.1104 6.53948 2.62235 1.06488
166 1 -1.1104 0.962491 -2.90987 6.59655
170 1 -1.1104 1.04248 -0.138153 6.58455
168 1 -1.1104 6.64615 -2.8643 6.74195
8 1 -1.1104 6.52596 -2.88727 3.94524
230 2 2.2208 7.95139 15.3116 10.8636
9 1 -1.1104 6.61569 2.83201 3.83198
4 1 -1.1104 6.77673 -2.89531 0.948919
8003 2 2.2208 7.9384 -4.20492 8.11477
15 1 -1.1104 6.66995 -0.0278601 3.85243
11 1 -1.1104 6.60513 -0.147711 1.14039
31 2 2.2208 10.8232 1.36161 5.21458
32 1 -1.1104 12.095 -3.07706 1.12699
33 1 -1.1104 12.1122 2.87758 1.1723
34 1 -1.1104 12.1444 -2.76482 3.9058
35 1 -1.1104 12.1297 2.87744 3.86708
36 1 -1.1104 12.2278 -0.0987412 1.06059
37 2 2.2208 10.8308 -1.50795 2.37124
38 2 2.2208 10.7147 4.29673 2.41082
39 1 -1.1104 12.2319 0.128862 3.88679
40 1 -1.1104 9.38285 -2.75789 0.93673
41 1 -1.1104 9.25091 2.81675 0.970546
42 2 2.2208 7.93404 1.36997 2.3591
43 1 -1.1104 9.32914 -2.81103 3.87873
44 1 -1.1104 9.31817 2.77573 3.76872
45 2 2.2208 8.04128 -1.43805 5.31946
46 2 2.2208 8.05017 4.10597 5.24562
47 1 -1.1104 9.36694 -0.0594429 1.04323
48 1 -1.1104 9.3405 0.0892559 3.92203
210 1 -1.1104 9.28476 -0.0466171 6.8339
8004 2 2.2208 10.815 -4.26988 10.928
205 1 -1.1104 12.2335 -2.90223 6.78226
8615 2 2.2208 13.5228 7.04499 8.10654
630 2 2.2208 5.22465 12.596 -0.378571
305 2 2.2208 2.50617 1.324 13.7978
7999 2 2.2208 10.8326 -4.21426 5.26605
333 2 2.2208 2.4175 9.86128 -0.304346
54 2 2.2208 5.08772 6.89702 5.4007
55 2 2.2208 5.25334 12.5914 5.22885
56 1 -1.1104 1.03978 8.48029 1.07004
58 1 -1.1104 0.948778 8.35953 3.91184
60 1 -1.1104 0.943742 5.53284 1.09411
61 1 -1.1104 0.865692 11.2364 0.810752
66 2 2.2208 5.18072 9.80286 2.48945
67 1 -1.1104 1.01316 5.61189 3.90464
68 1 -1.1104 1.00849 11.2524 3.74326
71 1 -1.1104 3.82202 8.29518 1.03295
72 2 2.2208 2.37472 6.99651 2.51419
73 2 2.2208 2.36552 12.6188 2.42009
74 1 -1.1104 3.7056 8.48273 3.86874
75 2 2.2208 2.42937 9.81001 5.19575
76 1 -1.1104 3.7028 5.60118 1.13926
77 1 -1.1104 3.63922 11.2579 1.06076
79 1 -1.1104 3.73863 5.50213 3.89242
80 1 -1.1104 3.81579 11.2948 3.8648
234 1 -1.1104 0.818667 8.35642 6.68045
78 1 -1.1104 3.79137 11.2528 6.66503
57 1 -1.1104 6.60245 8.36483 1.18285
70 1 -1.1104 6.68189 11.2595 3.82591
69 1 -1.1104 6.58671 5.7602 3.82862
63 1 -1.1104 6.49129 5.6437 1.13746
62 1 -1.1104 1.01368 11.1653 6.56152
237 1 -1.1104 6.43711 5.55029 6.64248
8708 2 2.2208 -0.342474 21.198 2.44752
59 1 -1.1104 6.58048 8.40522 3.96918
64 1 -1.1104 6.38649 11.1872 1.0932
84 2 2.2208 10.7892 6.96288 5.27952
85 2 2.2208 10.8023 12.5768 5.26777
86 1 -1.1104 12.2842 8.45341 1.00558
87 1 -1.1104 12.1923 8.35323 3.83993
88 1 -1.1104 12.1924 5.65696 1.00767
89 1 -1.1104 12.264 11.1499 1.04248
91 2 2.2208 10.8885 9.7919 2.53411
92 1 -1.1104 12.2236 5.67577 3.98962
93 1 -1.1104 12.2672 11.2094 3.80683
94 1 -1.1104 9.51502 8.3792 1.00762
95 2 2.2208 7.97826 7.04317 2.50564
96 2 2.2208 8.00538 12.5841 2.42332
97 1 -1.1104 9.48803 8.48889 3.93666
98 2 2.2208 7.97303 9.73692 5.3447
99 1 -1.1104 9.25583 5.57579 1.22698
100 1 -1.1104 9.41853 11.1388 1.08831
102 1 -1.1104 9.3759 5.49033 3.83167
103 1 -1.1104 9.41837 11.1315 3.86567
265 1 -1.1104 12.1135 8.53095 6.5693
101 1 -1.1104 9.36367 10.9689 6.77296
90 1 -1.1104 12.13 11.2475 6.61236
267 1 -1.1104 9.43626 8.16819 6.70891
201 2 2.2208 -0.265368 1.24432 10.9961
27 2 2.2208 10.9497 18.238 10.9273
106 2 2.2208 5.2863 18.2198 5.25039
107 1 -1.1104 1.03124 13.9998 1.05213
109 1 -1.1104 1.01461 19.6901 1.08107
113 1 -1.1104 0.928911 14.0239 3.75789
114 1 -1.1104 1.04503 19.9319 3.85716
116 1 -1.1104 1.01752 16.7349 1.06297
119 2 2.2208 5.22479 15.4112 2.54089
120 2 2.2208 5.16921 21.0968 2.48532
121 1 -1.1104 0.971675 16.882 3.80147
123 1 -1.1104 3.82256 14.0111 1.08202
125 1 -1.1104 3.8024 19.6025 0.993998
127 2 2.2208 2.36291 18.2421 2.61285
128 1 -1.1104 3.80181 14.1471 3.99946
129 1 -1.1104 3.77974 19.7524 3.78896
130 2 2.2208 2.42518 15.5231 5.28984
131 2 2.2208 2.4327 21.1683 5.25073
132 1 -1.1104 3.75056 16.6761 1.1777
134 1 -1.1104 3.76417 16.881 4.07219
115 1 -1.1104 6.65374 14.1172 3.91508
117 1 -1.1104 1.04288 16.8675 6.59512
122 1 -1.1104 6.66531 16.8886 3.82738
138 1 -1.1104 6.54457 19.7392 1.08147
139 1 -1.1104 6.64331 19.6674 3.84214
133 1 -1.1104 3.94733 16.8115 6.62487
112 1 -1.1104 6.56418 19.5735 6.60141
108 1 -1.1104 0.866763 14.1024 6.54375
111 1 -1.1104 6.58337 14.0036 6.66961
124 1 -1.1104 3.72711 14.027 6.77237
563 2 2.2208 5.38171 1.32114 -0.398998
110 1 -1.1104 6.66818 14.1116 1.19173
140 1 -1.1104 6.63737 16.911 1.02865
8502 2 2.2208 13.6079 15.4754 5.34311
141 2 2.2208 10.8894 18.3621 5.20536
142 1 -1.1104 12.1907 13.9683 1.10979
144 1 -1.1104 12.1307 19.7366 0.931391
146 1 -1.1104 12.2748 13.989 3.83937
147 1 -1.1104 12.2898 19.7331 3.85685
148 1 -1.1104 12.0977 16.8365 1.08565
150 2 2.2208 10.7013 15.4104 2.35216
151 2 2.2208 10.8535 21.036 2.40501
152 1 -1.1104 12.2092 16.9248 4.02001
153 1 -1.1104 9.50689 14.0145 1.1056
155 1 -1.1104 9.33342 19.715 1.14395
157 2 2.2208 7.97967 18.3836 2.40665
158 1 -1.1104 9.39684 14.1474 3.81238
159 1 -1.1104 9.47217 19.7318 3.87139
160 2 2.2208 7.95294 15.504 5.22095
161 2 2.2208 8.09811 20.9974 5.15575
162 1 -1.1104 9.33851 16.9609 0.919729
164 1 -1.1104 9.43771 17.0865 3.58159
156 1 -1.1104 9.37156 19.4873 6.60523
149 1 -1.1104 12.329 16.8234 6.85277
8404 2 2.2208 13.5435 4.31694 5.30035
53 1 -1.1104 12.2668 14.0013 9.52077
145 1 -1.1104 12.3131 19.7229 6.6878
8564 2 2.2208 13.6401 1.48579 8.02583
172 1 -1.1104 3.87191 -2.94511 6.66121
174 1 -1.1104 3.86871 -0.0295928 6.68205
171 1 -1.1104 6.65177 0.0133105 6.64274
169 1 -1.1104 6.4897 2.80067 6.59522
136 1 -1.1104 9.50706 13.8506 12.3488
8616 2 2.2208 13.5823 12.6251 8.00966
8707 2 2.2208 13.5757 -1.35757 5.30789
173 1 -1.1104 3.75642 2.80607 6.66103
167 1 -1.1104 0.88197 2.75577 6.65611
175 2 2.2208 5.22435 1.2287 10.8934
176 1 -1.1104 0.934007 -2.94189 12.1154
177 1 -1.1104 0.997994 2.76953 12.3251
180 1 -1.1104 0.953783 -3.04829 9.41357
181 1 -1.1104 1.01677 2.87439 9.47589
184 1 -1.1104 0.971843 -0.0750479 12.3594
186 2 2.2208 5.21707 -1.42569 8.01511
187 2 2.2208 5.04374 4.1289 8.08861
188 1 -1.1104 1.1556 -0.0984838 9.47358
190 1 -1.1104 3.77619 -2.85108 12.3993
191 1 -1.1104 3.67856 2.65781 12.2977
192 2 2.2208 2.39066 1.30655 7.93724
193 1 -1.1104 3.79214 -2.85744 9.55785
194 1 -1.1104 3.8236 2.60642 9.44226
195 2 2.2208 2.36261 -1.58312 10.9199
196 2 2.2208 2.33209 4.06503 10.7772
197 1 -1.1104 3.8842 -0.189722 12.2552
198 1 -1.1104 3.90455 -0.187816 9.51474
179 1 -1.1104 6.62999 2.83249 12.1301
178 1 -1.1104 6.5651 -2.90887 12.2816
185 1 -1.1104 6.68664 -0.131165 12.297
182 1 -1.1104 6.54701 -2.85818 9.59253
183 1 -1.1104 6.53021 2.72738 9.4224
594 2 2.2208 8.03445 -1.33231 -0.356267
332 2 2.2208 5.1686 6.9016 -0.472029
209 1 -1.1104 9.38996 2.82546 6.73832
206 1 -1.1104 12.1549 2.82183 6.67243
8481 2 2.2208 13.6368 21.2554 5.27814
8000 2 2.2208 2.3497 -4.30928 8.03288
189 1 -1.1104 6.67979 -0.0286846 9.4233
207 1 -1.1104 12.1834 0.0391899 6.73488
208 1 -1.1104 9.52563 -2.66638 6.62613
211 2 2.2208 10.6957 1.4272 10.9134
212 1 -1.1104 12.2497 -2.74602 12.294
213 1 -1.1104 12.1632 2.85554 12.2178
214 1 -1.1104 12.241 -2.76584 9.46426
215 1 -1.1104 12.1031 2.82554 9.42386
216 1 -1.1104 12.1468 0.059519 12.2813
217 2 2.2208 10.7437 -1.32199 8.12465
218 2 2.2208 10.6595 4.13431 8.09451
219 1 -1.1104 12.2343 0.0487028 9.57751
220 1 -1.1104 9.4065 -2.81653 12.4385
221 1 -1.1104 9.44784 2.67567 12.386
222 2 2.2208 7.91391 1.40098 8.03011
223 1 -1.1104 9.38046 -2.6497 9.58659
224 1 -1.1104 9.1431 2.78423 9.53686
225 2 2.2208 7.95678 -1.35376 10.8694
226 2 2.2208 7.91873 4.20986 10.8096
227 1 -1.1104 9.40206 -0.0801916 12.217
228 1 -1.1104 9.31136 0.176646 9.52819
236 1 -1.1104 0.910253 5.52635 6.67749
238 1 -1.1104 3.67333 8.4867 6.61909
239 1 -1.1104 3.58193 5.61248 6.6824
240 2 2.2208 5.25623 6.96711 10.7106
241 2 2.2208 5.22369 12.5354 10.9718
242 1 -1.1104 0.889138 8.26988 12.3498
244 1 -1.1104 0.918198 8.43517 9.43169
246 1 -1.1104 1.07588 5.45862 12.2759
247 1 -1.1104 0.905871 11.0478 12.2014
250 2 2.2208 5.18857 9.99615 8.06361
251 1 -1.1104 1.005 5.59597 9.39377
252 1 -1.1104 0.841139 11.2788 9.31226
255 1 -1.1104 3.71371 8.17746 12.2137
256 2 2.2208 2.23192 7.00554 7.98376
257 2 2.2208 2.3103 12.4414 8.00874
258 1 -1.1104 3.7944 8.43659 9.39963
259 2 2.2208 2.35086 9.73521 10.8446
260 1 -1.1104 3.85367 5.42287 12.252
261 1 -1.1104 3.73973 11.0666 12.3245
262 1 -1.1104 3.85162 5.56329 9.34196
263 1 -1.1104 3.72788 11.1086 9.60465
248 1 -1.1104 6.71715 5.60569 12.3684
254 1 -1.1104 6.65589 11.1598 9.48848
253 1 -1.1104 6.60701 5.53955 9.43043
314 2 2.2208 5.16963 9.54315 13.6812
104 2 2.2208 10.9077 15.5086 8.18912
65 1 -1.1104 6.53783 11.4066 6.74548
266 1 -1.1104 12.217 5.69278 6.77544
135 1 -1.1104 12.3201 16.9019 9.54829
8704 2 2.2208 13.6716 15.3969 10.901
243 1 -1.1104 6.52136 8.29905 12.2852
245 1 -1.1104 6.46372 8.4208 9.41822
8712 2 2.2208 13.5854 6.98755 2.3648
8431 2 2.2208 -0.455431 21.0929 8.05717
269 1 -1.1104 9.32197 5.52679 6.70993
235 1 -1.1104 6.61364 8.42055 6.75511
249 1 -1.1104 6.61481 11.1501 12.3956
264 1 -1.1104 9.36955 11.1043 9.4066
268 1 -1.1104 9.43536 5.65671 9.44562
270 1 -1.1104 9.30793 11.0064 12.2687
271 1 -1.1104 9.4793 5.42749 12.2362
272 2 2.2208 7.9695 9.75004 10.8687
273 1 -1.1104 9.22729 8.4048 9.59756
274 2 2.2208 8.08729 12.6476 8.11425
275 2 2.2208 7.90727 6.90323 8.07874
276 2 2.2208 10.6956 6.95097 10.9014
277 2 2.2208 10.8181 12.5893 10.8082
278 1 -1.1104 12.1989 8.38702 12.2292
279 1 -1.1104 11.9457 8.50413 9.48583
280 1 -1.1104 12.1566 5.65848 12.4723
281 1 -1.1104 12.1763 11.2408 12.3162
282 2 2.2208 10.7454 9.81243 8.04758
283 1 -1.1104 12.3384 5.73243 9.56901
284 1 -1.1104 12.158 11.2235 9.40266
285 1 -1.1104 9.45836 8.19006 12.5154
137 1 -1.1104 9.65022 19.7767 12.319
8620 2 2.2208 13.5426 9.792 10.9484
8706 2 2.2208 13.5091 1.50596 2.49717
302 1 -1.1104 1.10528 19.6639 6.60183
126 1 -1.1104 3.83592 19.671 6.4089
118 1 -1.1104 6.70344 16.7455 6.73973
204 1 -1.1104 6.6508 16.93 12.2758
301 1 -1.1104 3.87332 19.6496 9.28676
51 2 2.2208 2.33154 15.3704 10.7939
52 2 2.2208 2.41433 21.1963 10.9716
202 1 -1.1104 3.74523 16.9326 12.2638
203 1 -1.1104 0.961752 16.7802 12.2294
231 1 -1.1104 3.87605 14.0054 9.54974
232 1 -1.1104 3.77008 16.8836 9.51553
233 2 2.2208 2.44205 18.3235 8.01532
286 1 -1.1104 3.76547 19.6957 12.2602
287 1 -1.1104 3.77837 14.0513 12.2931
291 1 -1.1104 1.09068 19.7019 9.53666
292 1 -1.1104 0.963842 16.9847 9.35212
293 2 2.2208 5.22971 21.1506 8.00319
294 1 -1.1104 0.953572 14.0972 9.44454
295 2 2.2208 5.17563 15.3378 8.12527
298 1 -1.1104 0.943313 19.6978 12.3521
299 1 -1.1104 1.03832 13.9071 12.3583
300 2 2.2208 5.27483 18.302 10.8844
290 1 -1.1104 6.53645 13.906 9.58803
9004 2 2.2208 13.7015 -1.35229 -0.430951
30 2 2.2208 8.0869 21.1711 10.8242
50 1 -1.1104 12.4649 19.7992 12.3265
165 2 2.2208 7.97959 18.2294 8.06811
143 1 -1.1104 12.2695 13.9243 6.60751
163 1 -1.1104 9.39965 16.8947 6.5361
199 1 -1.1104 9.42176 14.0597 9.50559
105 2 2.2208 10.8942 21.1286 8.13143
49 1 -1.1104 12.3112 14.0396 12.406
83 1 -1.1104 12.1862 16.7639 12.3672
154 1 -1.1104 9.50727 13.8378 6.78446
229 1 -1.1104 9.51601 19.5848 9.46875
29 1 -1.1104 9.39915 16.8855 12.3258
28 1 -1.1104 9.653 16.8732 9.42165
296 1 -1.1104 6.63188 19.6663 12.1445
289 1 -1.1104 6.62635 16.7029 9.53012
81 1 -1.1104 12.3741 19.5218 9.6001
288 1 -1.1104 6.75239 19.7382 9.43953
297 1 -1.1104 6.61736 13.831 12.2616
8433 2 2.2208 13.6104 9.81245 5.4125
200 2 2.2208 -0.381937 -1.48356 8.07273
8719 2 2.2208 13.4792 15.4778 -0.278001
8599 2 2.2208 13.7229 18.2751 2.43292
329 2 2.2208 2.42437 15.2724 -0.363495
8432 2 2.2208 13.6761 -1.30936 10.819
593 2 2.2208 10.7851 1.42574 -0.338837
595 2 2.2208 8.03095 4.19448 -0.325468
315 2 2.2208 2.34279 12.386 13.7339
330 2 2.2208 5.08058 18.191 -0.30961
323 2 2.2208 10.7699 15.4421 13.7637
8539 2 2.2208 13.5497 4.25568 10.8262
313 2 2.2208 2.45797 6.81359 13.5595
324 2 2.2208 7.97729 18.2054 13.7064
309 2 2.2208 7.97312 21.1433 -0.160868
331 2 2.2208 2.38201 21.0894 -0.112741
310 2 2.2208 7.98887 1.40288 13.6759
564 2 2.2208 2.47914 -1.46155 -0.282498
325 2 2.2208 2.38362 4.22048 -0.341046
327 2 2.2208 8.02744 9.77814 -0.286158
326 2 2.2208 10.8445 12.546 -0.24877
320 2 2.2208 5.29082 21.0434 13.6435
8722 2 2.2208 13.7064 9.89941 -0.293241
336 2 2.2208 5.15869 1.34113 16.497
337 1 -1.1104 0.800589 -2.84053 17.8941
338 1 -1.1104 0.992828 2.85354 17.8741
341 1 -1.1104 1.07802 -2.97358 15.1142
343 1 -1.1104 0.889196 2.71964 15.1565
349 1 -1.1104 0.853518 -0.023852 17.9211
351 2 2.2208 5.21648 -1.45533 19.336
352 2 2.2208 5.10801 4.20349 19.2925
353 1 -1.1104 0.942255 -0.0419399 15.141
357 1 -1.1104 3.6355 -2.92248 17.8871
358 1 -1.1104 3.74007 2.88714 17.9432
359 2 2.2208 2.32462 1.24633 19.2992
360 1 -1.1104 3.88903 -2.86413 15.0792
362 1 -1.1104 3.83118 2.73786 15.1332
364 2 2.2208 2.40191 -1.47646 16.4449
365 2 2.2208 2.34829 4.28928 16.4715
366 1 -1.1104 3.72298 -0.0678432 17.833
367 1 -1.1104 3.91222 -0.0888148 15.1529
361 1 -1.1104 3.94067 -2.80975 20.6815
339 1 -1.1104 6.64832 -2.76682 17.9028
350 1 -1.1104 6.49916 -0.0305511 17.9199
355 1 -1.1104 6.63657 0.0278826 15.1336
344 1 -1.1104 0.911369 2.87053 20.746
340 1 -1.1104 6.51754 2.88171 17.8132
345 1 -1.1104 6.74083 -2.74197 14.9547
347 1 -1.1104 6.66795 2.72719 15.0136
354 1 -1.1104 0.913647 -0.00934756 20.6763
363 1 -1.1104 3.7808 2.94203 20.706
321 2 2.2208 5.21017 15.4723 13.599
8014 2 2.2208 8.03635 -4.18517 13.6624
368 1 -1.1104 3.72336 0.044787 20.6616
356 1 -1.1104 6.50937 -0.0777754 20.6738
8123 2 2.2208 10.9074 -4.26388 16.395
379 2 2.2208 10.9081 1.33195 16.4731
380 1 -1.1104 12.4305 -2.76996 17.8623
381 1 -1.1104 12.1145 2.819 17.7734
382 1 -1.1104 12.2961 -2.84276 15.0631
384 1 -1.1104 12.2255 2.67804 15.0146
386 1 -1.1104 12.3643 -0.0142288 17.8311
387 2 2.2208 10.9136 -1.38782 19.1786
388 2 2.2208 10.8088 4.09819 19.2159
389 1 -1.1104 12.1957 -0.135643 15.1406
391 1 -1.1104 9.33037 -2.80197 17.8817
392 1 -1.1104 9.35111 2.69665 17.848
393 2 2.2208 7.95468 1.26335 19.2624
394 1 -1.1104 9.49084 -2.91772 15.1084
396 1 -1.1104 9.45477 2.83807 15.1088
398 2 2.2208 8.00043 -1.41393 16.4434
400 1 -1.1104 9.57076 -0.0805774 17.905
401 1 -1.1104 9.48687 -0.076896 15.1999
399 2 2.2208 8.0951 4.14465 16.4579
395 1 -1.1104 9.39513 -2.82952 20.658
385 1 -1.1104 12.221 2.83122 20.6551
8718 2 2.2208 13.5355 21.1238 27.6498
369 2 2.2208 7.97939 21.1148 22.1265
8789 2 2.2208 13.6143 15.4154 22.1459
402 1 -1.1104 9.43321 -0.102869 20.7157
8791 2 2.2208 13.6357 1.31467 19.3281
8786 2 2.2208 13.596 -1.46395 16.5174
308 2 2.2208 10.6913 18.2731 27.7144
304 2 2.2208 5.23507 -1.45207 13.6623
412 2 2.2208 5.27409 7.02878 16.4961
413 2 2.2208 5.10894 12.5681 16.4376
414 1 -1.1104 0.820491 8.44877 17.8799
416 1 -1.1104 1.05018 8.33252 15.0738
420 1 -1.1104 0.966289 5.64889 17.8397
421 1 -1.1104 1.05758 11.2004 18.0043
424 2 2.2208 5.16466 9.79732 19.2117
425 1 -1.1104 1.05644 5.54727 15.0163
427 1 -1.1104 0.979522 11.1674 15.1254
433 1 -1.1104 3.75914 8.4346 17.8586
434 2 2.2208 2.33823 7.0203 19.2615
435 2 2.2208 2.41132 12.5642 19.2466
436 1 -1.1104 3.87448 8.23319 14.9403
438 2 2.2208 2.36893 9.56591 16.4597
439 1 -1.1104 3.8466 5.77812 17.8275
440 1 -1.1104 3.86004 11.1429 17.8961
441 1 -1.1104 3.84837 5.50277 15.0908
443 1 -1.1104 3.65066 10.959 14.9983
437 1 -1.1104 3.84371 8.56648 20.749
431 1 -1.1104 6.73341 11.152 15.1034
428 1 -1.1104 1.01841 11.0815 20.6748
423 1 -1.1104 6.59511 11.2466 17.8868
415 1 -1.1104 6.56204 8.2892 18.0283
418 1 -1.1104 6.64048 8.38392 15.151
8992 2 2.2208 13.5847 4.38514 22.0386
426 1 -1.1104 0.915289 5.64461 20.711
444 1 -1.1104 3.82014 11.1953 20.7814
417 1 -1.1104 1.0688 8.36738 20.7171
432 1 -1.1104 6.58578 10.9822 20.6761
419 1 -1.1104 6.69987 8.40772 20.8688
8931 2 2.2208 13.67 18.3451 19.3028
429 1 -1.1104 6.5703 5.61161 15.0278
422 1 -1.1104 6.69351 5.55441 17.8276
448 2 2.2208 10.8794 7.04408 16.5211
449 2 2.2208 10.6597 12.6043 16.6987
450 1 -1.1104 12.1106 8.5101 17.722
451 1 -1.1104 12.3112 8.42306 15.0585
453 1 -1.1104 12.2653 5.62094 17.8314
454 1 -1.1104 12.1212 11.263 17.8834
455 2 2.2208 10.9185 9.83202 19.2175
456 1 -1.1104 12.107 5.52466 15.3185
458 1 -1.1104 12.2183 11.3128 15.2051
460 1 -1.1104 9.34414 8.26658 17.8718
461 2 2.2208 8.10485 6.89353 19.341
462 2 2.2208 7.86918 12.5151 19.4491
463 1 -1.1104 9.48666 8.45581 15.2228
465 2 2.2208 8.02454 9.78019 16.4945
466 1 -1.1104 9.31591 5.47916 18.0035
467 1 -1.1104 9.33655 11.0516 17.983
468 1 -1.1104 9.34684 5.66805 15.1127
470 1 -1.1104 9.42736 11.3061 15.2838
459 1 -1.1104 12.1861 11.373 20.6837
471 1 -1.1104 9.36648 11.2018 20.6366
469 1 -1.1104 9.26164 5.4922 20.7633
457 1 -1.1104 12.0468 5.65495 20.6674
8861 2 2.2208 13.586 12.7315 19.3647
430 1 -1.1104 6.57346 5.54822 20.5421
452 1 -1.1104 12.2462 8.52443 20.5621
319 2 2.2208 2.38171 18.1953 13.6893
317 2 2.2208 10.7419 9.74203 13.7592
475 2 2.2208 5.16374 18.1622 16.5141
476 1 -1.1104 1.10253 13.9927 17.8819
477 1 -1.1104 1.14472 19.6147 17.8663
480 1 -1.1104 0.882508 13.8652 15.1781
482 1 -1.1104 0.962371 19.8744 15.123
488 1 -1.1104 0.905161 16.6961 17.9099
490 2 2.2208 5.11194 15.3333 19.3638
491 2 2.2208 5.19016 21.0163 19.3475
492 1 -1.1104 1.03931 16.8066 15.0341
496 1 -1.1104 3.88612 13.917 17.9295
497 1 -1.1104 3.87184 19.5129 17.9994
498 2 2.2208 2.43937 18.2552 19.3186
499 1 -1.1104 3.77537 13.8896 15.0808
501 1 -1.1104 3.73663 19.6001 15.1126
503 2 2.2208 2.41976 15.3743 16.4534
504 2 2.2208 2.37694 21.0886 16.4498
505 1 -1.1104 3.69389 16.7585 17.9747
506 1 -1.1104 3.79057 16.85 14.9976
486 1 -1.1104 6.59346 19.6705 15.039
478 1 -1.1104 6.47433 14.074 17.9295
502 1 -1.1104 3.72865 19.6905 20.7522
493 1 -1.1104 1.01822 16.7309 20.7652
507 1 -1.1104 3.95039 16.8065 20.7891
494 1 -1.1104 6.61401 16.7976 15.0491
479 1 -1.1104 6.75387 19.6367 17.8694
484 1 -1.1104 6.42688 13.9202 14.9831
481 1 -1.1104 0.970278 13.9523 20.7404
500 1 -1.1104 3.74356 14 20.7763
487 1 -1.1104 6.53887 19.4996 20.6491
489 1 -1.1104 6.35707 16.8511 17.994
511 2 2.2208 10.7438 18.1643 16.4958
512 1 -1.1104 12.0492 14.0241 17.9072
513 1 -1.1104 12.2959 19.6144 18.0335
514 1 -1.1104 12.2038 14.245 15.1639
516 1 -1.1104 12.4571 19.8843 15.1362
518 1 -1.1104 12.269 16.8645 17.909
519 2 2.2208 10.8218 15.4417 19.3811
520 2 2.2208 10.852 21.0807 19.3978
521 1 -1.1104 12.0158 16.9236 15.1496
523 1 -1.1104 9.18902 14.0259 18.1477
524 1 -1.1104 9.38742 19.6786 17.9405
525 2 2.2208 7.96522 18.155 19.3592
526 1 -1.1104 9.40525 14.0979 15.128
528 1 -1.1104 9.42377 19.7516 15.1281
530 2 2.2208 7.87054 15.4643 16.5199
531 2 2.2208 7.96654 21.1717 16.4495
532 1 -1.1104 9.29841 16.9726 17.8539
533 1 -1.1104 9.28495 16.9641 15.0765
527 1 -1.1104 9.45131 14.0736 20.8584
522 1 -1.1104 12.2916 16.8576 20.6935
515 1 -1.1104 12.2639 13.9318 20.7776
538 2 2.2208 10.7858 18.3176 22.1127
534 1 -1.1104 9.44803 16.8654 20.8401
8731 2 2.2208 13.5336 12.615 13.7492
8087 2 2.2208 5.33195 -4.28022 22.0322
8859 2 2.2208 13.5728 9.78755 16.494
342 1 -1.1104 1.10385 -2.85142 20.7283
8125 2 2.2208 5.28348 -4.17603 16.2877
312 2 2.2208 10.7897 4.11163 13.7753
8860 2 2.2208 13.5947 6.95945 19.2576
17380 2 2.2208 13.6229 -4.28895 19.2489
571 1 -1.1104 12.171 19.6996 23.5801
346 1 -1.1104 6.67158 -2.89252 20.6796
539 2 2.2208 5.20419 1.41571 22.0582
540 1 -1.1104 0.96251 -2.88972 23.5087
541 1 -1.1104 0.996631 2.89006 23.5095
544 1 -1.1104 0.972358 -2.83301 26.357
545 1 -1.1104 1.04548 2.89011 26.4065
548 1 -1.1104 0.92184 0.0564883 23.4246
550 2 2.2208 5.1564 -1.43424 24.8293
552 1 -1.1104 1.16772 0.0854663 26.4202
554 1 -1.1104 3.79511 -2.82731 23.4816
555 1 -1.1104 3.78958 2.65894 23.4493
556 2 2.2208 2.41748 1.42328 24.8607
557 1 -1.1104 3.85783 -2.87395 26.3769
558 1 -1.1104 3.7523 2.79236 26.3081
559 2 2.2208 2.34425 -1.4478 22.0383
560 2 2.2208 2.3671 4.21879 22.1248
561 1 -1.1104 3.89223 -0.00841483 23.4408
562 1 -1.1104 3.99302 0.00262105 26.2596
551 2 2.2208 5.25627 4.17 24.8492
542 1 -1.1104 6.43705 -2.74439 23.3583
543 1 -1.1104 6.64677 2.63721 23.4384
547 1 -1.1104 6.52344 2.71154 26.2766
546 1 -1.1104 6.50889 -2.88476 26.257
8975 2 2.2208 13.6205 12.6238 25.0271
8122 2 2.2208 8.16343 -4.26838 19.2972
348 1 -1.1104 6.65113 2.68354 20.6961
8932 2 2.2208 13.6654 21.2664 16.579
383 1 -1.1104 12.1666 -2.9398 20.5971
9002 2 2.2208 13.5369 -1.45598 22.0337
375 2 2.2208 7.99599 15.3857 22.2049
535 2 2.2208 7.96605 18.2785 24.8999
553 1 -1.1104 6.78449 -0.0843069 26.2773
549 1 -1.1104 6.79509 0.00603731 23.5462
397 1 -1.1104 9.47062 2.66995 20.7003
390 1 -1.1104 12.0968 -0.085622 20.5623
575 2 2.2208 10.757 1.40695 22.0628
576 1 -1.1104 12.1624 -3.02718 23.435
577 1 -1.1104 12.2571 2.78041 23.5171
578 1 -1.1104 12.3063 -2.92592 26.3497
579 1 -1.1104 12.1701 2.79332 26.3926
580 1 -1.1104 12.223 -0.0810457 23.5398
581 2 2.2208 10.8151 -1.49096 24.8511
582 2 2.2208 10.8322 4.10768 24.947
583 1 -1.1104 12.3681 -0.0828188 26.2442
584 1 -1.1104 9.33024 -2.83761 23.4583
585 1 -1.1104 9.44537 2.80311 23.5612
586 2 2.2208 8.00801 1.41966 24.9278
587 1 -1.1104 9.40013 -2.91489 26.2325
588 1 -1.1104 9.45967 2.85103 26.3158
589 2 2.2208 7.90411 -1.47118 22.0457
590 2 2.2208 7.98172 4.06681 22.0172
591 1 -1.1104 9.40959 0.113844 23.4335
592 1 -1.1104 9.57561 0.030046 26.2236
572 1 -1.1104 12.2645 14.0233 26.4433
442 1 -1.1104 3.71506 5.58751 20.6152
604 2 2.2208 5.28363 6.98399 21.9971
605 2 2.2208 5.21903 12.5182 22.0875
606 1 -1.1104 0.994465 8.50353 23.4713
608 1 -1.1104 0.966164 8.4071 26.2174
610 1 -1.1104 1.12077 5.72123 23.5622
611 1 -1.1104 1.20967 11.2352 23.4505
614 2 2.2208 5.2931 9.79487 24.9461
615 1 -1.1104 0.943401 5.58419 26.3622
616 1 -1.1104 0.984871 11.1787 26.2446
619 1 -1.1104 3.9293 8.25849 23.5689
620 2 2.2208 2.54278 6.97726 24.9089
621 2 2.2208 2.47752 12.5514 24.8928
622 1 -1.1104 3.80237 8.37784 26.2807
623 2 2.2208 2.45887 9.76428 22.1088
624 1 -1.1104 3.93862 5.4615 23.4339
625 1 -1.1104 3.96162 11.0867 23.5618
626 1 -1.1104 3.74919 5.52584 26.3001
627 1 -1.1104 3.83037 11.0974 26.3617
609 1 -1.1104 6.59122 8.34505 26.4208
613 1 -1.1104 6.70707 11.3166 23.5489
607 1 -1.1104 6.57582 8.38631 23.5763
8826 2 2.2208 13.6298 7.03834 24.9446
612 1 -1.1104 6.71741 5.50246 23.4216
536 1 -1.1104 9.18185 19.7783 23.63
529 1 -1.1104 9.44888 19.7383 20.7149
603 1 -1.1104 12.1545 16.7595 26.3467
632 2 2.2208 -0.357853 9.86689 24.9148
8977 2 2.2208 13.5851 1.38083 24.8227
617 1 -1.1104 6.63128 5.51815 26.1957
618 1 -1.1104 6.58049 11.1319 26.3117
464 1 -1.1104 9.49981 8.42181 20.5377
565 1 -1.1104 9.43711 8.35509 23.451
567 1 -1.1104 12.2279 11.205 26.3838
568 1 -1.1104 12.3744 5.66935 26.3292
569 2 2.2208 10.8888 9.87542 24.8504
628 1 -1.1104 12.165 11.3795 23.502
629 1 -1.1104 12.2444 5.59585 23.5144
631 1 -1.1104 12.2508 8.40315 26.3176
634 1 -1.1104 12.2094 8.52594 23.461
635 1 -1.1104 9.38051 11.1451 26.3388
636 1 -1.1104 9.40882 5.61484 26.4979
637 1 -1.1104 9.43447 11.1134 23.4744
638 1 -1.1104 9.45013 5.65735 23.5159
639 2 2.2208 8.02737 9.74229 22.0783
640 1 -1.1104 9.56736 8.47957 26.2095
641 2 2.2208 8.14948 12.6203 25.0394
642 2 2.2208 7.99495 7.01873 24.8515
643 2 2.2208 10.7312 6.94802 21.9936
644 2 2.2208 10.7429 12.6592 22.202
495 1 -1.1104 6.75897 16.7035 20.6496
600 1 -1.1104 12.1702 16.7614 23.404
374 1 -1.1104 6.44575 16.8226 23.4502
483 1 -1.1104 1.00119 19.4602 20.6458
9051 2 2.2208 13.5089 9.89982 22.015
410 1 -1.1104 6.57196 14.0442 23.6339
485 1 -1.1104 6.60955 13.9089 20.7311
474 1 -1.1104 6.63504 16.8584 26.2594
599 1 -1.1104 0.956955 16.8942 23.4701
598 1 -1.1104 3.74833 16.9494 23.7575
376 1 -1.1104 3.76778 13.8438 26.2812
377 1 -1.1104 3.77659 16.7139 26.5037
378 2 2.2208 2.31985 18.2846 25.0118
403 1 -1.1104 3.65183 19.7241 26.4313
407 2 2.2208 5.15177 18.2398 22.1648
408 1 -1.1104 1.14355 14.0056 23.5645
409 1 -1.1104 1.17927 19.7719 23.5356
411 2 2.2208 5.15105 15.3089 25.0469
445 2 2.2208 5.23489 20.9815 24.8766
447 1 -1.1104 1.01459 14.0329 26.2892
472 1 -1.1104 1.01929 16.8172 26.2578
473 1 -1.1104 0.811368 19.6544 26.3082
508 1 -1.1104 3.89404 13.9916 23.5872
510 1 -1.1104 3.91737 19.687 23.5474
570 2 2.2208 2.50077 15.4994 22.1591
597 2 2.2208 2.41405 21.1333 22.1996
406 1 -1.1104 6.42171 19.6739 26.2828
509 1 -1.1104 6.62248 13.8633 26.4251
446 1 -1.1104 6.62536 19.5403 23.3388
566 1 -1.1104 12.1416 13.9957 23.5953
602 2 2.2208 10.79 21.0559 25.027
537 1 -1.1104 9.40297 14.0777 23.5823
596 1 -1.1104 12.1452 19.4996 26.1395
404 1 -1.1104 9.31924 19.6037 26.5358
405 1 -1.1104 9.52696 14.0288 26.341
370 1 -1.1104 9.41139 17.0468 23.6046
517 1 -1.1104 12.1736 19.7202 20.7734
601 2 2.2208 10.8506 15.4693 24.9176
371 1 -1.1104 9.32 16.906 26.2697
8787 2 2.2208 13.6386 21.0588 22.1169
8788 2 2.2208 13.6715 18.2013 24.9153
8971 2 2.2208 -0.373321 15.4654 19.3705
335 2 2.2208 -0.343433 7.0083 27.6885
8012 2 2.2208 5.30814 -4.27712 27.7848
8972 2 2.2208 -0.352864 18.2299 16.4959
9007 2 2.2208 -0.289612 -1.39121 24.9063
633 2 2.2208 -0.223102 12.7386 22.1384
328 2 2.2208 10.839 7.08966 27.6933
322 2 2.2208 10.8645 21.1899 13.8148
307 2 2.2208 8.08258 15.5479 27.7232
8727 2 2.2208 -0.43373 4.14668 13.7621
8715 2 2.2208 13.66 18.3003 13.7058
8745 2 2.2208 13.7372 4.11513 27.6455
318 2 2.2208 8.05641 12.5766 13.828
306 2 2.2208 5.32019 4.21128 13.6354
316 2 2.2208 8.05802 6.94386 13.794
311 2 2.2208 10.8452 -1.3363 13.6765
645 2 2.2208 5.28659 24.0307 5.14801
646 2 2.2208 5.31978 29.5339 5.24413
647 1 -1.1104 0.986629 25.4598 1.00241
648 1 -1.1104 0.882858 25.3474 3.88919
649 1 -1.1104 0.838839 22.6775 1.12534
650 1 -1.1104 1.00561 28.1532 1.01055
651 2 2.2208 5.31919 26.7978 2.49326
652 1 -1.1104 0.96365 22.5798 3.77978
653 1 -1.1104 1.22997 28.1908 3.76502
654 1 -1.1104 3.88214 25.2671 1.20079
655 2 2.2208 2.35443 23.9465 2.4542
656 2 2.2208 2.4484 29.5049 2.38608
657 1 -1.1104 3.80921 25.4569 3.93058
658 2 2.2208 2.61713 26.7924 5.33061
659 1 -1.1104 3.66099 22.3475 1.22219
660 1 -1.1104 3.9224 28.1735 1.00349
661 1 -1.1104 3.85342 22.5323 3.91472
662 1 -1.1104 3.96195 28.246 3.86181
794 1 -1.1104 3.90957 28.1855 6.70571
670 1 -1.1104 6.74723 22.5856 3.80817
788 1 -1.1104 1.10253 22.5762 6.71066
668 1 -1.1104 6.60447 22.5181 1.07091
791 1 -1.1104 6.73319 28.1567 6.59299
793 1 -1.1104 3.82564 22.6056 6.65418
666 1 -1.1104 6.6371 25.3261 1.08999
669 1 -1.1104 6.75183 28.1598 1.01179
786 1 -1.1104 1.2205 25.4109 6.60856
789 1 -1.1104 1.09363 28.2784 6.52873
792 1 -1.1104 4.03161 25.377 6.76881
787 1 -1.1104 6.91209 25.3715 6.6055
936 2 2.2208 8.10432 40.7682 8.09701
671 1 -1.1104 6.752 28.1742 3.78731
790 1 -1.1104 6.60237 22.6701 6.63514
667 1 -1.1104 6.56465 25.3992 3.83169
672 2 2.2208 10.7961 23.917 5.14931
673 2 2.2208 10.8952 29.5645 5.32292
674 1 -1.1104 12.1354 25.3749 1.16691
675 1 -1.1104 12.4804 25.3713 3.77304
676 1 -1.1104 12.2596 22.4821 1.08143
677 1 -1.1104 12.2073 28.2402 1.10615
678 2 2.2208 10.8473 26.7564 2.42009
679 1 -1.1104 12.213 22.614 3.6837
680 1 -1.1104 12.119 28.1772 3.84551
681 1 -1.1104 9.35509 25.3306 1.18857
682 2 2.2208 8.05388 23.9705 2.5968
683 2 2.2208 8.09207 29.6044 2.53409
684 1 -1.1104 9.47627 25.4111 3.89698
685 2 2.2208 8.1243 26.7114 5.40673
686 1 -1.1104 9.50078 22.4372 1.1014
687 1 -1.1104 9.54054 28.2334 0.950713
688 1 -1.1104 9.48401 22.5352 3.79697
689 1 -1.1104 9.49583 28.1868 3.81276
819 1 -1.1104 12.1809 25.3765 6.48475
821 1 -1.1104 12.4424 28.0919 6.62037
820 1 -1.1104 12.1936 22.628 6.7404
823 1 -1.1104 9.4185 22.2759 6.48358
824 1 -1.1104 9.50643 28.0969 6.71085
934 1 -1.1104 12.3866 44.8607 9.29043
950 2 2.2208 8.05255 24.0084 13.6434
9281 2 2.2208 -0.365072 29.6315 10.7334
693 2 2.2208 5.3439 35.1624 5.16834
694 1 -1.1104 0.99136 31.0059 1.03274
695 1 -1.1104 1.21051 36.5929 0.937265
697 1 -1.1104 1.02599 31.0211 3.88456
698 1 -1.1104 1.07534 36.5754 3.75818
700 1 -1.1104 0.958682 33.7208 0.805241
701 2 2.2208 5.37974 32.2762 2.42435
702 2 2.2208 5.24564 38.0595 2.32996
703 1 -1.1104 1.08107 33.8279 3.696
705 1 -1.1104 3.8373 30.9574 0.874472
706 1 -1.1104 3.95709 36.6084 0.905565
707 2 2.2208 2.53291 35.1011 2.3766
708 1 -1.1104 4.00445 31.0671 3.94101
709 1 -1.1104 3.83474 36.3763 3.69212
710 2 2.2208 2.53337 32.3729 5.24252
711 2 2.2208 2.55703 37.8445 5.18616
712 1 -1.1104 3.90268 33.7725 1.01036
713 1 -1.1104 3.79301 33.6777 3.67682
719 1 -1.1104 6.55388 33.7583 1.01106
717 1 -1.1104 6.69177 30.8471 0.98767
696 1 -1.1104 6.62066 36.6295 1.02065
704 1 -1.1104 6.76022 33.7727 3.71581
718 1 -1.1104 6.7561 30.9065 3.89988
699 1 -1.1104 6.61262 36.4032 3.75552
850 1 -1.1104 3.80488 36.5583 6.51563
843 1 -1.1104 0.985904 30.8376 6.57341
845 1 -1.1104 6.65788 31.0286 6.62331
848 1 -1.1104 6.69351 33.7921 6.628
847 1 -1.1104 1.03235 33.7129 6.67179
765 1 -1.1104 12.3136 39.1588 12.3404
720 2 2.2208 10.9714 35.1285 5.196
721 1 -1.1104 12.3297 30.9285 1.05679
722 1 -1.1104 12.3132 36.7344 1.14101
723 1 -1.1104 12.2645 31.0885 3.82084
724 1 -1.1104 12.3845 36.621 3.83751
725 1 -1.1104 12.3756 33.8321 1.10725
726 2 2.2208 10.9491 32.4263 2.47658
727 2 2.2208 10.901 38.1352 2.43553
728 1 -1.1104 12.4143 33.8347 3.86067