ITEM: TIMESTEP
70000
ITEM: NUMBER OF ATOMS
17670
ITEM: BOX BOUNDS pp pp pp
-3.5335838075240206e-01 2.7693358380752571e+01
-4.0439630564713420e+00 3.3212396305646337e+02
-3.6340152068583820e-01 2.7703401520686118e+01
ITEM: ATOMS id type q x y z
1 2 2.2208 5.49446 1.45686 5.29544
2 1 -1.1104 1.20467 -2.63361 1.00912
3 1 -1.1104 1.18048 3.03748 1.08541
6 1 -1.1104 1.27043 -2.73576 3.84779
7 1 -1.1104 1.07384 2.88157 4.02608
10 1 -1.1104 1.28404 0.326315 1.09581
12 2 2.2208 5.42051 -1.22015 2.46111
13 2 2.2208 5.50331 4.41695 2.45756
14 1 -1.1104 1.11974 0.0676567 3.83767
16 1 -1.1104 3.98708 -2.73807 1.03303
17 1 -1.1104 3.93922 2.99442 1.06627
18 2 2.2208 2.59968 1.67879 2.55292
19 1 -1.1104 4.06572 -2.56705 3.9327
20 1 -1.1104 4.02172 3.07426 3.97604
21 2 2.2208 2.59062 -1.20044 5.34141
22 2 2.2208 2.59482 4.36356 5.32203
23 1 -1.1104 4.05006 0.279891 1.24969
24 1 -1.1104 4.03642 0.135933 3.86744
166 1 -1.1104 1.09331 -2.67741 6.72404
170 1 -1.1104 1.11301 0.19106 6.7115
167 1 -1.1104 1.34718 2.96984 6.70803
82 2 2.2208 -0.345787 9.94366 2.5376
9 1 -1.1104 6.68453 2.98675 3.87372
8703 2 2.2208 -0.228576 4.425 2.55274
8626 2 2.2208 -0.307043 12.6244 11.0086
26 2 2.2208 -0.265257 1.47901 5.2147
174 1 -1.1104 3.91847 0.127964 6.78691
325 2 2.2208 2.63966 4.38963 -0.177253
593 2 2.2208 11.0885 1.55052 -0.23697
327 2 2.2208 8.34512 9.9586 -0.258041
326 2 2.2208 11.0613 12.7853 -0.303003
309 2 2.2208 8.12835 21.0354 -0.271564
15 1 -1.1104 6.94255 0.228043 3.97384
11 1 -1.1104 6.8229 0.0820394 1.06074
4 1 -1.1104 6.90552 -2.61236 1.0288
5 1 -1.1104 6.74855 2.99609 1.08717
8 1 -1.1104 6.91807 -2.73831 3.87272
31 2 2.2208 11.0754 1.60397 5.31388
32 1 -1.1104 12.3934 -2.55243 1.08882
33 1 -1.1104 12.4075 2.92738 1.12249
34 1 -1.1104 12.3033 -2.68421 4.01188
35 1 -1.1104 12.3298 3.05717 3.87319
36 1 -1.1104 12.5643 0.354437 1.19464
37 2 2.2208 10.9607 -1.26021 2.59738
38 2 2.2208 10.9384 4.18277 2.45775
39 1 -1.1104 12.5998 0.30656 3.94633
40 1 -1.1104 9.64659 -2.56002 1.22858
41 1 -1.1104 9.5572 2.95107 1.11446
42 2 2.2208 8.08842 1.62608 2.48622
43 1 -1.1104 9.50367 -2.71587 3.86447
44 1 -1.1104 9.544 2.77464 3.91252
45 2 2.2208 8.41376 -1.3017 5.33032
46 2 2.2208 8.16901 4.34487 5.26485
47 1 -1.1104 9.63783 0.201622 1.2133
48 1 -1.1104 9.75958 0.00215672 4.02671
330 2 2.2208 5.23893 18.2739 -0.297343
318 2 2.2208 8.12817 12.8497 13.6307
206 1 -1.1104 12.4368 2.84533 6.75512
7996 2 2.2208 5.38164 -4.03145 5.27941
594 2 2.2208 8.24955 -1.2647 -0.346666
8001 2 2.2208 5.44166 -4.00844 10.9593
7998 2 2.2208 8.18463 -4.01403 2.3826
54 2 2.2208 5.35792 7.28535 5.36877
55 2 2.2208 5.33011 12.7156 5.33445
56 1 -1.1104 1.16399 8.62335 1.14527
58 1 -1.1104 1.1442 8.59315 4.02964
60 1 -1.1104 1.40024 5.64916 1.38796
61 1 -1.1104 1.08158 11.5246 1.03176
66 2 2.2208 5.4343 9.94138 2.58765
67 1 -1.1104 1.22271 5.74405 3.99204
68 1 -1.1104 1.10747 11.3312 3.90433
71 1 -1.1104 4.19777 8.54844 1.06022
72 2 2.2208 2.65948 7.20658 2.59794
73 2 2.2208 2.5477 12.674 2.6137
74 1 -1.1104 4.00885 8.67678 3.81911
75 2 2.2208 2.44372 9.9169 5.37393
76 1 -1.1104 4.20958 5.81009 1.2015
77 1 -1.1104 4.08479 11.2644 1.13439
79 1 -1.1104 4.06132 5.8186 3.92873
80 1 -1.1104 3.99396 11.3723 3.936
332 2 2.2208 5.46051 7.255 -0.249622
230 2 2.2208 8.04629 15.6102 10.9304
8709 2 2.2208 -0.255444 7.17582 5.40851
8009 2 2.2208 10.9909 -3.92693 -0.309159
333 2 2.2208 2.47374 9.96728 -0.333454
8002 2 2.2208 -0.199197 -4.01149 10.9784
69 1 -1.1104 6.77807 5.76904 3.95869
57 1 -1.1104 6.94808 8.65408 0.976618
59 1 -1.1104 6.72046 8.52198 3.97889
70 1 -1.1104 6.68689 11.1909 4.09231
63 1 -1.1104 6.92542 5.57141 0.987782
235 1 -1.1104 6.73465 8.4392 6.78003
64 1 -1.1104 7.07352 11.4136 1.13583
84 2 2.2208 10.9983 7.18302 5.36427
85 2 2.2208 11.0826 12.815 5.33399
86 1 -1.1104 12.3505 8.67002 1.16687
87 1 -1.1104 12.4799 8.67756 3.88107
88 1 -1.1104 12.356 5.6815 1.22565
89 1 -1.1104 12.569 11.5348 1.15282
91 2 2.2208 11.0247 10.0477 2.51382
92 1 -1.1104 12.4255 5.80853 3.95137
93 1 -1.1104 12.4788 11.4598 3.89792
94 1 -1.1104 9.51878 8.52901 1.12722
95 2 2.2208 8.18698 7.0708 2.42349
96 2 2.2208 8.20334 12.7349 2.59995
97 1 -1.1104 9.67386 8.60662 3.89212
98 2 2.2208 8.13774 9.84974 5.26439
99 1 -1.1104 9.5945 5.70115 1.02947
100 1 -1.1104 9.79294 11.1606 0.955932
102 1 -1.1104 9.59592 5.88309 3.84166
103 1 -1.1104 9.62338 11.2739 3.94187
237 1 -1.1104 6.76001 5.67231 6.6525
266 1 -1.1104 12.2495 5.7485 6.84547
328 2 2.2208 11.0408 7.17268 -0.164221
8790 2 2.2208 -0.171066 1.5128 -0.204711
8708 2 2.2208 -0.261957 21.2337 2.54059
106 2 2.2208 5.32812 18.361 5.2847
107 1 -1.1104 1.3001 14.2915 1.2259
109 1 -1.1104 1.15541 19.846 1.1182
113 1 -1.1104 1.13843 14.0857 4.10837
114 1 -1.1104 1.03874 19.7164 3.91994
116 1 -1.1104 1.17834 16.9326 1.00205
119 2 2.2208 5.3161 15.542 2.4708
120 2 2.2208 5.34035 21.161 2.46779
121 1 -1.1104 1.05798 17.0089 3.86818
123 1 -1.1104 3.95868 14.1985 1.16105
125 1 -1.1104 4.01913 19.8246 1.0308
127 2 2.2208 2.44924 18.4227 2.46163
128 1 -1.1104 3.89349 14.1911 3.78923
129 1 -1.1104 3.98464 19.5708 3.81491
130 2 2.2208 2.58868 15.6731 5.24306
131 2 2.2208 2.46339 21.1796 5.34394
132 1 -1.1104 3.9927 16.9778 1.06851
134 1 -1.1104 3.83241 16.9087 3.96564
140 1 -1.1104 6.77874 16.9121 1.03886
138 1 -1.1104 6.7124 19.6608 1.17098
302 1 -1.1104 1.07023 19.8843 6.68522
122 1 -1.1104 6.74109 16.9703 3.90205
110 1 -1.1104 6.87871 14.2731 1.32352
115 1 -1.1104 6.68152 14.0634 4.02286
8713 2 2.2208 -0.308472 15.5378 2.59763
329 2 2.2208 2.55126 15.6548 -0.33056
53 1 -1.1104 12.3801 14.1682 9.51257
126 1 -1.1104 3.82585 19.7041 6.72655
133 1 -1.1104 3.95242 16.8401 6.82199
139 1 -1.1104 6.72763 19.7646 4.07904
141 2 2.2208 10.9471 18.3465 5.41822
142 1 -1.1104 12.3083 14.1281 1.06414
144 1 -1.1104 12.2007 19.7696 1.12243
146 1 -1.1104 12.5045 14.1734 3.98372
147 1 -1.1104 12.2951 19.8301 4.01074
148 1 -1.1104 12.4425 17.0266 1.0446
150 2 2.2208 10.9637 15.5041 2.41924
151 2 2.2208 10.8932 21.1969 2.49702
152 1 -1.1104 12.3134 16.9959 3.89382
153 1 -1.1104 9.56651 14.0315 1.04186
155 1 -1.1104 9.45264 19.7576 1.14511
157 2 2.2208 8.1171 18.4053 2.5669
158 1 -1.1104 9.51613 14.1355 3.86167
159 1 -1.1104 9.52777 19.7893 3.84379
160 2 2.2208 8.1003 15.5733 5.3312
161 2 2.2208 8.21006 21.1544 5.3182
162 1 -1.1104 9.64114 16.9532 1.0867
164 1 -1.1104 9.67578 16.8798 3.88507
156 1 -1.1104 9.52998 19.7692 6.75949
25 2 2.2208 -0.169599 -1.29978 2.52651
112 1 -1.1104 6.73458 19.7813 6.69196
8666 2 2.2208 13.6702 21.1423 10.9909
172 1 -1.1104 3.96206 -2.59867 6.74745
173 1 -1.1104 4.0205 2.89346 6.82382
8565 2 2.2208 -0.183667 4.30375 8.19195
175 2 2.2208 5.41612 1.448 10.9878
176 1 -1.1104 1.27647 -2.75269 12.1945
177 1 -1.1104 1.21354 2.89438 12.4316
180 1 -1.1104 1.12537 -2.70929 9.4082
181 1 -1.1104 1.11034 2.83438 9.54953
184 1 -1.1104 1.30852 0.210475 12.2777
186 2 2.2208 5.38502 -1.24755 8.22073
187 2 2.2208 5.33716 4.29124 8.1325
188 1 -1.1104 1.27101 0.127382 9.56364
190 1 -1.1104 4.17275 -2.45989 12.2785
191 1 -1.1104 4.19427 3.02467 12.3925
192 2 2.2208 2.59068 1.51096 8.16501
193 1 -1.1104 3.94979 -2.68971 9.44425
194 1 -1.1104 4.15395 2.88436 9.70204
195 2 2.2208 2.67533 -1.32148 10.9508
196 2 2.2208 2.64959 4.22259 11.0135
197 1 -1.1104 4.12611 0.168167 12.6122
198 1 -1.1104 3.98354 0.110668 9.67919
189 1 -1.1104 6.81318 0.194348 9.58146
183 1 -1.1104 6.87129 2.98472 9.48732
201 2 2.2208 -0.197089 1.48385 10.9522
104 2 2.2208 10.852 15.5666 8.04508
8634 2 2.2208 -0.217601 7.2981 11.0885
8431 2 2.2208 -0.343988 21.2558 8.19439
169 1 -1.1104 6.69372 2.83672 6.75267
210 1 -1.1104 9.60068 0.112788 6.74368
205 1 -1.1104 12.4553 -2.68351 6.83328
171 1 -1.1104 6.83571 0.0598843 6.72591
185 1 -1.1104 6.81349 0.137919 12.3363
179 1 -1.1104 6.89741 3.03915 12.4269
168 1 -1.1104 6.76139 -2.60349 6.79084
208 1 -1.1104 9.68448 -2.59828 6.80688
207 1 -1.1104 12.2714 -0.148827 6.6474
209 1 -1.1104 9.38652 2.81455 6.70725
182 1 -1.1104 6.78845 -2.60648 9.72957
178 1 -1.1104 7.00547 -2.62799 12.4528
211 2 2.2208 10.9987 1.59824 10.89
212 1 -1.1104 12.4417 -2.75056 12.5219
213 1 -1.1104 12.3771 2.9309 12.3396
214 1 -1.1104 12.5862 -2.75299 9.63536
215 1 -1.1104 12.2708 2.95047 9.47184
216 1 -1.1104 12.4085 0.208124 12.3763
217 2 2.2208 11.0175 -1.38419 8.16271
218 2 2.2208 10.9565 4.25538 8.072
219 1 -1.1104 12.5149 0.126682 9.4878
220 1 -1.1104 9.72817 -2.66196 12.4257
221 1 -1.1104 9.61025 3.02638 12.379
222 2 2.2208 8.12794 1.45218 8.13918
223 1 -1.1104 9.69429 -2.69031 9.69029
224 1 -1.1104 9.55579 2.77787 9.57258
225 2 2.2208 8.23915 -1.21659 11.0413
226 2 2.2208 8.16004 4.28642 10.8962
227 1 -1.1104 9.82295 0.298123 12.3636
228 1 -1.1104 9.66408 0.0821401 9.58021
564 2 2.2208 2.66923 -1.12572 -0.194446
239 1 -1.1104 3.86609 5.71565 6.84272
65 1 -1.1104 6.79612 11.222 6.70667
199 1 -1.1104 9.43019 14.3479 9.43619
238 1 -1.1104 3.92356 8.55713 6.66873
236 1 -1.1104 1.07448 5.71796 6.7645
62 1 -1.1104 1.09119 11.1549 6.73527
234 1 -1.1104 0.975831 8.50729 6.88239
78 1 -1.1104 3.85929 11.3451 6.78255
240 2 2.2208 5.37453 7.10666 10.816
241 2 2.2208 5.25834 12.839 10.819
242 1 -1.1104 1.21706 8.60963 12.3729
244 1 -1.1104 1.20404 8.59607 9.66255
246 1 -1.1104 1.13484 5.67614 12.2642
247 1 -1.1104 1.18026 11.4089 12.335
250 2 2.2208 5.39769 9.98463 8.02004
251 1 -1.1104 1.1954 5.66579 9.65163
252 1 -1.1104 1.19402 11.2878 9.61037
255 1 -1.1104 3.88912 8.60604 12.4361
256 2 2.2208 2.51923 7.08817 8.2001
257 2 2.2208 2.39795 12.6711 8.11632
258 1 -1.1104 3.93535 8.4106 9.49905
259 2 2.2208 2.61858 9.97068 10.9944
260 1 -1.1104 3.98739 5.90396 12.411
261 1 -1.1104 3.87335 11.4749 12.289
262 1 -1.1104 3.96336 5.60486 9.58344
263 1 -1.1104 3.97061 11.4363 9.46355
137 1 -1.1104 9.48186 19.816 12.2244
269 1 -1.1104 9.43626 5.74053 6.70581
267 1 -1.1104 9.49121 8.57506 6.73999
245 1 -1.1104 6.70296 8.63291 9.55819
248 1 -1.1104 6.71959 5.74008 12.1974
243 1 -1.1104 6.78038 8.53725 12.3426
254 1 -1.1104 6.71732 11.4029 9.51847
249 1 -1.1104 6.63618 11.329 12.2584
265 1 -1.1104 12.3588 8.53469 6.64259
253 1 -1.1104 6.60368 5.80848 9.34246
101 1 -1.1104 9.59993 11.4685 6.73947
90 1 -1.1104 12.4696 11.2918 6.70443
264 1 -1.1104 9.51532 11.3217 9.54423
268 1 -1.1104 9.53476 5.67473 9.47266
270 1 -1.1104 9.49981 11.2939 12.381
271 1 -1.1104 9.43088 5.85077 12.2205
272 2 2.2208 8.1401 9.84197 10.9646
273 1 -1.1104 9.5507 8.53285 9.56555
274 2 2.2208 8.06139 12.8355 8.10646
275 2 2.2208 8.13938 7.06035 8.08287
276 2 2.2208 10.9614 7.14616 10.9554
277 2 2.2208 11.0821 12.7149 10.9208
278 1 -1.1104 12.3956 8.47642 12.4082
279 1 -1.1104 12.4215 8.46639 9.60542
280 1 -1.1104 12.279 5.73245 12.4199
281 1 -1.1104 12.3616 11.36 12.2277
282 2 2.2208 10.9702 9.95163 8.21164
283 1 -1.1104 12.3913 5.76009 9.58237
284 1 -1.1104 12.4696 11.3873 9.42148
285 1 -1.1104 9.64652 8.52521 12.3573
117 1 -1.1104 0.943164 16.9965 6.56415
8406 2 2.2208 -0.253796 18.5176 10.8629
290 1 -1.1104 6.62755 14.1588 9.52911
124 1 -1.1104 3.80737 14.1904 6.68063
108 1 -1.1104 1.07275 14.1589 6.77525
297 1 -1.1104 6.79194 14.1622 12.305
301 1 -1.1104 3.91507 19.7048 9.49678
51 2 2.2208 2.47304 15.4824 10.9235
52 2 2.2208 2.47639 21.1757 10.9437
202 1 -1.1104 3.95377 16.9765 12.2716
203 1 -1.1104 1.17973 16.944 12.4199
231 1 -1.1104 3.81427 14.2505 9.42379
232 1 -1.1104 3.89699 16.8492 9.49359
233 2 2.2208 2.5381 18.4002 8.0251
286 1 -1.1104 3.7723 19.9117 12.2548
287 1 -1.1104 3.96881 14.1604 12.1292
291 1 -1.1104 1.03089 19.8098 9.4581
292 1 -1.1104 1.05445 16.9904 9.59706
293 2 2.2208 5.35869 21.1302 8.07644
294 1 -1.1104 1.10219 14.0668 9.43167
295 2 2.2208 5.28028 15.4868 8.13878
298 1 -1.1104 1.1185 19.7859 12.2964
299 1 -1.1104 1.19356 14.1227 12.2007
300 2 2.2208 5.16715 18.4297 10.9038
563 2 2.2208 5.39782 1.5573 -0.260665
229 1 -1.1104 9.50808 19.7986 9.52953
29 1 -1.1104 9.40888 17.0635 12.3248
136 1 -1.1104 9.5597 14.1168 12.3214
118 1 -1.1104 6.67292 16.8755 6.83025
111 1 -1.1104 6.66559 14.0391 6.77673
296 1 -1.1104 6.62518 19.8168 12.4039
154 1 -1.1104 9.62633 14.3007 6.65224
163 1 -1.1104 9.41801 17.0135 6.59996
49 1 -1.1104 12.3672 14.2428 12.309
145 1 -1.1104 12.2875 19.7279 6.7119
27 2 2.2208 10.7686 18.3296 10.8897
50 1 -1.1104 12.2809 19.6722 12.2351
81 1 -1.1104 12.4245 19.7528 9.3059
165 2 2.2208 8.09947 18.3727 8.03851
288 1 -1.1104 6.68935 19.7442 9.59068
289 1 -1.1104 6.74556 16.8836 9.47797
204 1 -1.1104 6.76586 17.0409 12.4194
105 2 2.2208 10.8902 21.1716 8.01439
83 1 -1.1104 12.2542 17.0131 12.2665
135 1 -1.1104 12.222 16.7878 9.44563
28 1 -1.1104 9.6113 17.0559 9.42157
149 1 -1.1104 12.2559 16.8427 6.69692
143 1 -1.1104 12.2836 13.9714 6.81189
30 2 2.2208 8.09481 21.2003 10.8918
8710 2 2.2208 -0.315817 12.8434 5.43209
335 2 2.2208 -0.213122 7.16123 -0.176159
200 2 2.2208 -0.189992 -1.31455 8.20306
8405 2 2.2208 -0.263036 15.4525 8.16875
8721 2 2.2208 -0.316557 18.4901 -0.227983
7995 2 2.2208 2.66055 -4.02455 2.48312
324 2 2.2208 8.15606 18.4399 13.6366
7997 2 2.2208 -0.208673 -4.02146 5.19652
8600 2 2.2208 -0.292737 18.3878 5.38795
8599 2 2.2208 13.5931 18.4461 2.60156
630 2 2.2208 5.49592 12.7478 -0.177459
314 2 2.2208 5.34591 10.1243 13.5818
307 2 2.2208 8.01971 15.542 -0.204701
315 2 2.2208 2.5677 12.8424 13.6696
334 2 2.2208 -0.213548 12.9515 -0.207727
312 2 2.2208 10.8979 4.38722 13.6607
308 2 2.2208 11.0019 18.3976 -0.30754
331 2 2.2208 2.54735 21.2693 -0.204742
336 2 2.2208 5.52479 1.63861 16.5565
337 1 -1.1104 1.18175 -2.64452 17.91
338 1 -1.1104 1.13531 3.00492 18.1698
341 1 -1.1104 1.32788 -2.54977 15.0858
343 1 -1.1104 1.32166 2.96334 15.3061
349 1 -1.1104 1.26374 0.204097 18.0109
351 2 2.2208 5.4726 -1.16613 19.4246
352 2 2.2208 5.22702 4.40616 19.3852
353 1 -1.1104 1.28618 0.132978 15.2016
357 1 -1.1104 3.99861 -2.69093 17.9856
358 1 -1.1104 4.00062 2.95993 18.0263
359 2 2.2208 2.66089 1.54347 19.5279
360 1 -1.1104 4.09427 -2.62247 15.0525
362 1 -1.1104 4.00474 2.97259 15.1316
364 2 2.2208 2.72681 -1.24014 16.6663
365 2 2.2208 2.63663 4.29979 16.6455
366 1 -1.1104 3.96096 0.1138 18.1452
367 1 -1.1104 4.05824 0.167314 15.2791
347 1 -1.1104 6.84366 3.04066 15.0897
363 1 -1.1104 3.97428 2.99332 20.8427
8736 2 2.2208 -0.277828 9.98228 13.8157
373 2 2.2208 -0.256453 -1.24795 19.3548
311 2 2.2208 10.9409 -1.08438 13.7598
8972 2 2.2208 -0.291267 18.3047 16.6118
573 2 2.2208 -0.23579 1.60457 22.2973
348 1 -1.1104 6.76175 3.02231 20.734
8971 2 2.2208 -0.188185 15.5242 19.2815
306 2 2.2208 5.49446 4.4771 13.8013
340 1 -1.1104 6.84261 3.08877 17.8759
355 1 -1.1104 6.95221 0.104383 15.1162
339 1 -1.1104 6.83207 -2.6756 17.8447
345 1 -1.1104 6.88308 -2.61509 15.1471
350 1 -1.1104 6.96364 0.17334 17.9499
379 2 2.2208 11.1303 1.69975 16.6693
380 1 -1.1104 12.3039 -2.61239 17.8469
381 1 -1.1104 12.3945 2.94092 18.0583
382 1 -1.1104 12.5724 -2.55703 15.1267
384 1 -1.1104 12.4849 3.02277 15.2404
386 1 -1.1104 12.471 0.083991 18.1197
387 2 2.2208 11.0023 -1.21657 19.4175
388 2 2.2208 10.9727 4.39024 19.4434
389 1 -1.1104 12.4624 0.213139 15.2747
391 1 -1.1104 9.57204 -2.59128 18.0109
392 1 -1.1104 9.6561 2.96708 18.0525
393 2 2.2208 8.22255 1.576 19.3705
394 1 -1.1104 9.62786 -2.50262 15.1071
396 1 -1.1104 9.58695 3.09141 15.1971
398 2 2.2208 8.37291 -1.16241 16.4942
400 1 -1.1104 9.68703 0.174188 18.0094
401 1 -1.1104 9.79221 0.358483 15.1839
399 2 2.2208 8.19161 4.40385 16.6081
383 1 -1.1104 12.2867 -2.54429 20.7498
385 1 -1.1104 12.4831 3.09325 20.7919
310 2 2.2208 8.1663 1.71029 13.6689
8901 2 2.2208 -0.263027 7.24419 16.5804
17380 2 2.2208 13.6355 -3.95585 19.3189
8931 2 2.2208 13.6614 18.3294 19.3583
412 2 2.2208 5.29985 7.3314 16.5412
413 2 2.2208 5.35148 12.8778 16.4239
414 1 -1.1104 1.20069 8.63381 17.9123
416 1 -1.1104 1.15556 8.54768 15.1426
420 1 -1.1104 1.172 5.76425 17.9598
421 1 -1.1104 1.03734 11.3182 17.8573
424 2 2.2208 5.29884 9.87896 19.3068
425 1 -1.1104 1.11435 5.71563 15.1548
427 1 -1.1104 1.07905 11.4801 15.0435
433 1 -1.1104 4.02896 8.43329 17.9414
434 2 2.2208 2.50044 7.08096 19.3137
435 2 2.2208 2.66099 12.739 19.2866
436 1 -1.1104 3.94679 8.76146 15.1277
438 2 2.2208 2.54275 10.1086 16.4789
439 1 -1.1104 4.03168 5.61056 17.9159
440 1 -1.1104 3.80707 11.409 17.8547
441 1 -1.1104 4.02498 5.69566 15.1942
443 1 -1.1104 3.98573 11.5705 15.0147
431 1 -1.1104 6.77224 11.4509 15.0336
415 1 -1.1104 6.87129 8.75922 18.0482
422 1 -1.1104 6.79431 6.01957 17.9066
8084 2 2.2208 8.13517 -3.97529 24.9537
8743 2 2.2208 -0.272967 15.6599 13.7122
432 1 -1.1104 6.66683 11.2929 20.8047
603 1 -1.1104 12.3622 17.054 26.2408
303 2 2.2208 -0.0756703 -1.15368 13.8249
418 1 -1.1104 6.75671 8.62925 15.1736
429 1 -1.1104 6.71242 5.92252 14.9688
419 1 -1.1104 6.74471 8.45397 20.8501
423 1 -1.1104 6.53929 11.5253 17.9718
316 2 2.2208 8.20523 7.25065 13.7736
448 2 2.2208 11.0653 7.24674 16.5764
449 2 2.2208 10.9578 12.6577 16.5235
450 1 -1.1104 12.5302 8.70599 17.92
451 1 -1.1104 12.3306 8.49843 15.0979
453 1 -1.1104 12.369 5.75687 18.0213
454 1 -1.1104 12.4105 11.2967 17.9381
455 2 2.2208 10.9595 10.0226 19.4101
456 1 -1.1104 12.3233 5.75868 15.2256
458 1 -1.1104 12.2989 11.2846 15.0824
460 1 -1.1104 9.66333 8.5965 17.8399
461 2 2.2208 8.18914 7.19483 19.3627
462 2 2.2208 8.04201 12.8547 19.2653
463 1 -1.1104 9.58794 8.68733 15.0931
465 2 2.2208 8.13685 9.92844 16.5683
466 1 -1.1104 9.62025 5.81343 17.9136
467 1 -1.1104 9.5008 11.3638 17.9226
468 1 -1.1104 9.44437 5.88243 15.1548
470 1 -1.1104 9.44044 11.5197 15.0874
313 2 2.2208 2.54559 7.13968 13.892
633 2 2.2208 -0.21324 12.7756 22.2775
457 1 -1.1104 12.2621 5.81115 20.796
8783 2 2.2208 -0.325347 18.3483 21.9521
305 2 2.2208 2.68915 1.5543 13.7941
475 2 2.2208 5.3228 18.4103 16.3826
476 1 -1.1104 1.03203 14.0812 17.8882
477 1 -1.1104 1.06654 19.7592 17.8335
480 1 -1.1104 1.20962 14.2622 15.0412
482 1 -1.1104 1.22711 19.7092 15.2089
488 1 -1.1104 1.26776 17.0933 17.8908
490 2 2.2208 5.28577 15.6828 19.2627
491 2 2.2208 5.45805 21.1341 19.3547
492 1 -1.1104 1.11194 16.9707 15.1634
496 1 -1.1104 3.92005 14.2032 17.8246
497 1 -1.1104 3.9395 19.7799 17.9664
498 2 2.2208 2.52157 18.4452 19.337
499 1 -1.1104 3.96978 14.299 14.9751
501 1 -1.1104 3.98002 19.8668 15.0966
503 2 2.2208 2.61791 15.6806 16.3817
504 2 2.2208 2.58701 21.2326 16.5791
505 1 -1.1104 4.09341 17.0348 17.8992
506 1 -1.1104 3.8705 17.0277 14.9822
489 1 -1.1104 6.87754 16.936 17.9429
494 1 -1.1104 6.73339 16.9396 15.2261
486 1 -1.1104 6.80545 19.7756 15.1258
485 1 -1.1104 6.66389 14.146 20.5803
369 2 2.2208 8.01966 21.1499 22.19
515 1 -1.1104 12.3595 14.0671 20.6837
566 1 -1.1104 12.3925 14.2886 23.2966
484 1 -1.1104 6.73803 14.2095 15.0545
479 1 -1.1104 6.80112 19.6972 17.9389
8014 2 2.2208 8.23799 -4.04411 13.8629
478 1 -1.1104 6.71515 14.2587 17.7899
511 2 2.2208 10.9767 18.3022 16.3735
512 1 -1.1104 12.3329 14.0483 17.8559
513 1 -1.1104 12.3836 19.8012 17.7051
514 1 -1.1104 12.5373 14.1213 15.1777
516 1 -1.1104 12.3316 19.7462 14.9922
518 1 -1.1104 12.3334 17.0045 17.9644
519 2 2.2208 10.8475 15.5632 19.428
520 2 2.2208 10.9636 21.0976 19.2601
521 1 -1.1104 12.3105 16.7979 15.1374
523 1 -1.1104 9.62864 14.2313 18.0167
524 1 -1.1104 9.61279 19.7761 17.9322
525 2 2.2208 8.1854 18.3213 19.2963
526 1 -1.1104 9.74674 14.1918 15.2389
528 1 -1.1104 9.62082 19.6941 15.0437
530 2 2.2208 8.19634 15.5519 16.5403
531 2 2.2208 8.09396 21.1041 16.4386
532 1 -1.1104 9.60824 17.0181 17.8526
533 1 -1.1104 9.52629 16.9627 15.0476
517 1 -1.1104 12.3195 19.8312 20.7342
487 1 -1.1104 6.76524 19.6621 20.8298
8727 2 2.2208 -0.176466 4.44146 13.6988
474 1 -1.1104 6.79589 16.8991 26.3009
8085 2 2.2208 10.9753 -3.9502 22.2057
344 1 -1.1104 1.2429 2.93068 20.9118
368 1 -1.1104 4.05669 0.113693 20.9919
354 1 -1.1104 1.25899 0.155592 21.006
361 1 -1.1104 4.02663 -2.78837 20.6729
8828 2 2.2208 -0.212163 4.34958 19.5205
8970 2 2.2208 -0.271856 21.2786 19.3031
8017 2 2.2208 2.59995 -3.91277 13.7603
342 1 -1.1104 1.21032 -2.50832 20.7262
574 2 2.2208 -0.297326 4.4666 25.1071
539 2 2.2208 5.41134 1.52334 22.2224
540 1 -1.1104 1.16052 -2.68082 23.5054
541 1 -1.1104 1.24643 3.0215 23.7199
544 1 -1.1104 1.11623 -2.77451 26.3365
545 1 -1.1104 1.06676 2.97747 26.445
548 1 -1.1104 1.1456 0.0610296 23.7114
550 2 2.2208 5.34558 -1.1988 24.9453
552 1 -1.1104 1.32447 0.059173 26.596
554 1 -1.1104 4.01258 -2.68344 23.4455
555 1 -1.1104 4.00614 2.92122 23.4826
556 2 2.2208 2.56656 1.56816 25.0543
557 1 -1.1104 3.89109 -2.58337 26.3731
558 1 -1.1104 3.85119 2.99928 26.4018
559 2 2.2208 2.6011 -1.28826 22.1198
560 2 2.2208 2.55995 4.46529 22.1963
561 1 -1.1104 3.86754 0.185755 23.7001
562 1 -1.1104 4.08141 0.17994 26.5172
551 2 2.2208 5.35355 4.28079 24.9442
553 1 -1.1104 6.91455 0.063451 26.317
346 1 -1.1104 6.85808 -2.67569 20.7455
9007 2 2.2208 -0.328292 -1.19194 25.0635
8744 2 2.2208 -0.229852 21.2116 13.8268
356 1 -1.1104 6.82829 0.176993 20.8121
395 1 -1.1104 9.581 -2.68097 20.6828
317 2 2.2208 10.9083 9.94755 13.7923
390 1 -1.1104 12.2994 0.279046 20.9834
402 1 -1.1104 9.51359 0.235414 20.7726
547 1 -1.1104 6.88484 2.7831 26.4004
542 1 -1.1104 6.81025 -2.6424 23.5492
543 1 -1.1104 6.68333 2.98468 23.5649
546 1 -1.1104 6.80109 -2.63787 26.3245
549 1 -1.1104 6.73817 0.157394 23.5632
397 1 -1.1104 9.57453 3.10608 20.7736
575 2 2.2208 10.9895 1.66743 22.265
576 1 -1.1104 12.465 -2.56886 23.5366
577 1 -1.1104 12.4794 3.13317 23.756
578 1 -1.1104 12.3213 -2.75238 26.2808
579 1 -1.1104 12.248 2.97311 26.4523
580 1 -1.1104 12.4316 0.345547 23.6631
581 2 2.2208 11.0257 -1.16079 25.1173
583 1 -1.1104 12.4829 0.151679 26.4523
584 1 -1.1104 9.76654 -2.43286 23.5682
585 1 -1.1104 9.58439 3.08951 23.4897
586 2 2.2208 8.23527 1.54382 25.0458
587 1 -1.1104 9.54079 -2.67113 26.4561
588 1 -1.1104 9.64092 3.00857 26.3337
589 2 2.2208 8.17582 -1.17439 22.0895
590 2 2.2208 7.93691 4.37258 22.1187
591 1 -1.1104 9.66058 0.173991 23.7899
592 1 -1.1104 9.69262 0.221726 26.6505
582 2 2.2208 10.978 4.49608 25.0175
406 1 -1.1104 6.67024 19.7641 26.4742
442 1 -1.1104 3.94921 5.6392 20.6615
437 1 -1.1104 3.91338 8.50905 20.8228
430 1 -1.1104 6.77296 5.71129 20.7076
444 1 -1.1104 3.85247 11.2603 20.6578
417 1 -1.1104 1.11266 8.6852 20.7385
428 1 -1.1104 1.16957 11.4063 20.823
426 1 -1.1104 1.0362 5.76287 20.8912
604 2 2.2208 5.48312 7.21981 22.2147
605 2 2.2208 5.3157 12.8524 22.0144
606 1 -1.1104 1.04123 8.68307 23.7618
608 1 -1.1104 1.05277 8.53493 26.4314
610 1 -1.1104 1.10817 5.89452 23.6613
611 1 -1.1104 1.19029 11.3055 23.721
614 2 2.2208 5.33035 10.0795 25.0511
615 1 -1.1104 1.24195 5.80095 26.4674
616 1 -1.1104 1.13612 11.5186 26.5404
619 1 -1.1104 4.03618 8.6506 23.6028
620 2 2.2208 2.54311 7.17821 25.0498
621 2 2.2208 2.53551 12.7179 24.9773
622 1 -1.1104 3.94338 8.64269 26.3635
623 2 2.2208 2.55708 9.99203 22.171
624 1 -1.1104 4.01449 5.92009 23.5864
625 1 -1.1104 4.03705 11.4959 23.4897
626 1 -1.1104 4.07847 5.75708 26.2652
627 1 -1.1104 3.8771 11.3651 26.3589
617 1 -1.1104 6.8368 5.75381 26.3649
632 2 2.2208 -0.317212 9.89788 25.0212
8866 2 2.2208 -0.28374 12.7435 16.4898
452 1 -1.1104 12.3177 8.55313 20.6571
618 1 -1.1104 6.8144 11.4586 26.4335
613 1 -1.1104 6.74232 11.3761 23.6455
609 1 -1.1104 6.89554 8.6366 26.3621
469 1 -1.1104 9.69939 6.05783 20.6207
459 1 -1.1104 12.3711 11.3802 20.7754
471 1 -1.1104 9.53801 11.3233 20.6639
464 1 -1.1104 9.51909 8.72559 20.6524
607 1 -1.1104 6.83957 8.62259 23.5533
612 1 -1.1104 6.71475 5.70185 23.6228
565 1 -1.1104 9.66059 8.59897 23.6022
567 1 -1.1104 12.5187 11.3269 26.3396
568 1 -1.1104 12.3444 5.68294 26.392
569 2 2.2208 11.095 10.0371 25.0182
628 1 -1.1104 12.3583 11.3736 23.6175
629 1 -1.1104 12.2676 5.864 23.5492
631 1 -1.1104 12.4744 8.42058 26.3708
634 1 -1.1104 12.4856 8.62466 23.5755
635 1 -1.1104 9.6971 11.4056 26.2803
636 1 -1.1104 9.51351 5.84908 26.3439
637 1 -1.1104 9.49498 11.2623 23.5746
638 1 -1.1104 9.49711 5.93434 23.3877
639 2 2.2208 8.03804 9.98249 22.1337
640 1 -1.1104 9.75148 8.69696 26.4196
641 2 2.2208 8.22437 12.6859 25.0192
642 2 2.2208 8.17251 7.23029 25.0423
643 2 2.2208 10.8159 7.21279 22.174
644 2 2.2208 10.9824 12.6931 22.1285
502 1 -1.1104 4.02327 19.761 20.7388
483 1 -1.1104 1.1015 19.7275 20.7508
493 1 -1.1104 1.12839 16.9204 20.5943
481 1 -1.1104 1.32523 14.1268 20.7574
507 1 -1.1104 3.82708 17.0509 20.6934
500 1 -1.1104 3.8833 14.1957 20.5533
374 1 -1.1104 6.75086 16.9194 23.5661
473 1 -1.1104 1.13365 19.7651 26.4944
570 2 2.2208 2.53642 15.5629 22.0536
510 1 -1.1104 4.01062 19.7022 23.5829
508 1 -1.1104 3.84289 14.1335 23.5117
597 2 2.2208 2.52348 21.2728 22.2239
599 1 -1.1104 1.1551 17.1255 23.337
598 1 -1.1104 3.91774 16.8882 23.4711
376 1 -1.1104 3.9577 14.0942 26.4737
377 1 -1.1104 4.02533 16.8837 26.301
378 2 2.2208 2.46268 18.4139 24.8669
403 1 -1.1104 4.02969 19.8009 26.4812
407 2 2.2208 5.29064 18.3562 22.1146
408 1 -1.1104 1.19384 14.207 23.4331
409 1 -1.1104 1.16639 19.8952 23.5929
411 2 2.2208 5.35669 15.4421 24.8547
445 2 2.2208 5.29993 21.1194 24.9967
447 1 -1.1104 1.06506 14.208 26.2055
472 1 -1.1104 1.26421 16.8605 26.2091
446 1 -1.1104 6.72204 19.7451 23.5716
304 2 2.2208 5.51889 -1.27502 13.7859
8123 2 2.2208 11.0686 -4.0063 16.4458
8153 2 2.2208 -0.236504 -4.00009 16.4856
405 1 -1.1104 9.65378 14.1089 26.4545
600 1 -1.1104 12.3611 16.9877 23.5079
371 1 -1.1104 9.55931 17.0305 26.5252
602 2 2.2208 10.8777 21.2319 25.0214
495 1 -1.1104 6.7832 16.9596 20.756
536 1 -1.1104 9.47869 19.7487 23.553
370 1 -1.1104 9.51771 17.0002 23.5548
509 1 -1.1104 6.72804 14.2655 26.4202
527 1 -1.1104 9.32555 14.1169 20.8611
410 1 -1.1104 6.79633 14.01 23.597
404 1 -1.1104 9.52684 19.683 26.3102
529 1 -1.1104 9.48443 19.7814 20.7918
534 1 -1.1104 9.661 16.8964 20.8282
596 1 -1.1104 12.3999 19.9228 26.3139
537 1 -1.1104 9.58814 14.0225 23.5615
572 1 -1.1104 12.4354 14.2907 26.1133
538 2 2.2208 10.9321 18.5047 22.1504
571 1 -1.1104 12.2614 19.6618 23.6122
522 1 -1.1104 12.3576 17.0356 20.8074
535 2 2.2208 8.17367 18.3333 24.9319
375 2 2.2208 8.04394 15.463 22.0716
601 2 2.2208 10.9783 15.6698 24.8236
372 2 2.2208 -0.0989177 1.60441 16.4716
8900 2 2.2208 -0.224939 10.0046 19.3816
9079 2 2.2208 -0.236794 7.28621 22.2405
320 2 2.2208 5.37294 21.2878 13.7312
322 2 2.2208 10.9551 21.159 13.7422
319 2 2.2208 2.48688 18.4229 13.7235
595 2 2.2208 8.19562 4.36318 27.655
8012 2 2.2208 5.43347 -4.03631 27.5696
323 2 2.2208 11.0461 15.438 13.819
321 2 2.2208 5.37575 15.5856 13.7289
645 2 2.2208 5.40141 23.8437 5.33065
646 2 2.2208 5.19855 29.5406 5.17804
647 1 -1.1104 1.08834 25.408 1.28867
648 1 -1.1104 1.23429 25.4632 3.94784
649 1 -1.1104 1.15642 22.711 1.2459
650 1 -1.1104 1.08851 28.2406 1.09933
651 2 2.2208 5.35958 26.8241 2.3937
652 1 -1.1104 1.09249 22.4841 3.93613
653 1 -1.1104 1.10892 28.1465 3.87386
654 1 -1.1104 3.84272 25.4564 1.01575
655 2 2.2208 2.53913 24.0083 2.45937
656 2 2.2208 2.43073 29.5605 2.42034
657 1 -1.1104 4.02031 25.3675 3.83197
658 2 2.2208 2.51994 26.809 5.16672
659 1 -1.1104 3.87993 22.5633 1.15051
660 1 -1.1104 3.92682 28.1516 1.05939
661 1 -1.1104 3.99113 22.4615 4.06406
662 1 -1.1104 3.8094 28.1481 3.74529
789 1 -1.1104 1.15898 28.2113 6.64252
668 1 -1.1104 6.70652 22.65 1.16645
666 1 -1.1104 6.70171 25.5221 1.02815
671 1 -1.1104 6.64087 28.2497 3.81564
670 1 -1.1104 6.70881 22.5216 3.99533
669 1 -1.1104 6.65497 28.2414 0.914919
9310 2 2.2208 13.6235 32.3935 10.8404
966 2 2.2208 5.24419 29.5714 -0.365779
935 1 -1.1104 9.42308 42.206 12.3669
912 1 -1.1104 6.53685 39.3808 12.3469
9371 2 2.2208 13.5058 46.3876 8.10507
667 1 -1.1104 6.7605 25.35 3.87674
787 1 -1.1104 6.6192 25.4092 6.69179
672 2 2.2208 11.0117 24.0427 5.2735
673 2 2.2208 11.0257 29.5568 5.25838
674 1 -1.1104 12.4158 25.3715 1.07637
675 1 -1.1104 12.3391 25.423 3.86035
676 1 -1.1104 12.3713 22.5459 1.12617
677 1 -1.1104 12.3153 28.2977 0.894132
678 2 2.2208 10.7435 26.8339 2.4936
679 1 -1.1104 12.5535 22.6279 3.86503
680 1 -1.1104 12.2506 28.189 3.8928
681 1 -1.1104 9.46171 25.2464 1.0498
682 2 2.2208 8.07021 23.9804 2.473
683 2 2.2208 8.03319 29.6627 2.50098
684 1 -1.1104 9.58092 25.3345 3.87522
685 2 2.2208 8.0849 26.8641 5.31662
686 1 -1.1104 9.48288 22.5129 1.09076
687 1 -1.1104 9.48946 28.212 1.09463
688 1 -1.1104 9.63508 22.5109 3.85912
689 1 -1.1104 9.43049 28.1018 3.86984
819 1 -1.1104 12.255 25.3019 6.67273
823 1 -1.1104 9.58488 22.6489 6.56946
1518 1 -1.1104 12.2545 47.683 12.2481
9153 2 2.2208 13.5988 32.3968 5.30709
664 2 2.2208 10.828 46.3425 10.9471
9188 2 2.2208 13.5611 43.679 5.26786
968 2 2.2208 10.9363 24.1851 -0.276232
9416 2 2.2208 -0.283906 40.7527 5.35242
693 2 2.2208 5.1359 35.1591 5.34075
694 1 -1.1104 1.11182 31.0092 1.05308
695 1 -1.1104 1.17371 36.491 0.957004
697 1 -1.1104 1.09597 31.0244 3.88936
698 1 -1.1104 1.01834 36.5731 3.92346
700 1 -1.1104 1.1829 33.7557 1.09751
701 2 2.2208 5.35683 32.3362 2.34091
702 2 2.2208 5.24546 38.0713 2.4171
703 1 -1.1104 0.946007 33.8753 3.88882
705 1 -1.1104 3.88615 30.9726 1.07806
706 1 -1.1104 4.00029 36.5424 1.0684
707 2 2.2208 2.49246 35.0839 2.48408
708 1 -1.1104 3.70956 31.0213 3.85885
709 1 -1.1104 3.85138 36.5288 3.83071
710 2 2.2208 2.45078 32.3821 5.30145
711 2 2.2208 2.44883 38.0994 5.23869
712 1 -1.1104 3.95924 33.7473 1.08373
713 1 -1.1104 3.9071 33.7254 3.76079
851 1 -1.1104 3.73399 33.7411 6.70422
717 1 -1.1104 6.64412 30.9745 1.00377
704 1 -1.1104 6.66559 33.6349 3.79438
696 1 -1.1104 6.57158 36.7277 1.07857
699 1 -1.1104 6.47559 36.4495 3.7818
719 1 -1.1104 6.60367 33.7886 0.907665
718 1 -1.1104 6.66499 30.9713 3.81876
9406 2 2.2208 13.6215 43.5123 10.86
9407 2 2.2208 -0.203449 23.9837 5.40773
849 1 -1.1104 3.94372 30.8936 6.73608
848 1 -1.1104 6.5354 33.5953 6.78907
9344 2 2.2208 -0.215383 32.2986 8.1829
720 2 2.2208 10.8529 35.2082 5.22495
721 1 -1.1104 12.3669 31.0672 1.16438
722 1 -1.1104 12.2565 36.6395 1.16166
723 1 -1.1104 12.3173 30.889 3.9668
724 1 -1.1104 12.2261 36.6088 3.9614
725 1 -1.1104 12.2085 33.8768 0.997177
726 2 2.2208 10.8308 32.4446 2.42564
727 2 2.2208 10.8874 37.9875 2.50688
728 1 -1.1104 12.2827 33.7587 3.83926
729 1 -1.1104 9.41248 31.0167 0.990688
730 1 -1.1104 9.4481 36.4813 0.958367
731 2 2.2208 7.97727 35.2678 2.34464
732 1 -1.1104 9.40103 30.9832 3.91513