ITEM: TIMESTEP
10000
ITEM: NUMBER OF ATOMS
17670
ITEM: BOX BOUNDS pp pp pp
-3.5375338826983682e-01 2.7693753388269769e+01
-4.2546636424245792e+00 3.3233466364242366e+02
-3.6025746834772515e-01 2.7700257468347406e+01
ITEM: ATOMS id type q x y z
1 2 2.2208 5.3698 1.37765 5.19582
2 1 -1.1104 0.883156 -2.86244 1.13481
3 1 -1.1104 1.07955 2.91169 1.13054
6 1 -1.1104 1.02405 -2.76535 3.79491
7 1 -1.1104 1.0569 2.78884 3.92485
10 1 -1.1104 1.04829 0.111277 0.926606
12 2 2.2208 5.32349 -1.3519 2.34091
13 2 2.2208 5.22893 4.24909 2.38157
14 1 -1.1104 0.830982 -0.0743778 3.66059
16 1 -1.1104 3.82996 -2.84808 0.966783
17 1 -1.1104 3.80613 2.81006 0.986453
18 2 2.2208 2.39208 1.41406 2.39302
19 1 -1.1104 3.86392 -2.81238 3.76271
20 1 -1.1104 3.83182 2.8727 3.78427
21 2 2.2208 2.4458 -1.35287 5.11755
22 2 2.2208 2.3623 4.06334 5.22983
23 1 -1.1104 3.90644 -0.077159 0.970704
24 1 -1.1104 3.89005 0.076482 3.79109
4 1 -1.1104 6.71639 -2.67417 1.0084
166 1 -1.1104 1.0415 -2.86413 6.50604
9 1 -1.1104 6.55739 2.87726 3.89807
331 2 2.2208 2.37143 20.9191 -0.437104
8014 2 2.2208 7.88217 -4.22502 13.6831
8001 2 2.2208 5.16555 -4.23017 10.7257
8433 2 2.2208 13.5811 9.77027 5.12841
49 1 -1.1104 12.2917 13.9604 12.1132
8017 2 2.2208 2.2585 -4.08343 13.6352
7999 2 2.2208 10.9071 -4.23589 5.14769
15 1 -1.1104 6.76499 0.0592072 3.76319
8 1 -1.1104 6.64654 -2.71798 3.71703
11 1 -1.1104 6.66766 0.0798921 0.964776
5 1 -1.1104 6.78091 2.77384 1.07768
31 2 2.2208 10.8694 1.39396 5.33375
32 1 -1.1104 12.2141 -2.85936 0.96956
33 1 -1.1104 12.4474 2.76236 1.10905
34 1 -1.1104 12.4371 -2.84482 3.79153
35 1 -1.1104 12.1263 2.70003 3.82205
36 1 -1.1104 12.2999 -0.0906609 1.2003
37 2 2.2208 10.8949 -1.36604 2.46387
38 2 2.2208 10.8759 4.16044 2.4333
39 1 -1.1104 12.1931 -0.0392779 3.89263
40 1 -1.1104 9.51897 -2.78585 1.04669
41 1 -1.1104 9.54662 2.84515 1.02696
42 2 2.2208 8.11223 1.48126 2.40288
43 1 -1.1104 9.5978 -2.82639 3.71839
44 1 -1.1104 9.47235 2.71845 3.87829
45 2 2.2208 8.1917 -1.47505 5.0196
46 2 2.2208 8.02769 4.15364 5.2377
47 1 -1.1104 9.5379 0.0230085 0.99713
48 1 -1.1104 9.4335 -0.0148826 3.8339
208 1 -1.1104 9.42979 -2.69752 6.60159
209 1 -1.1104 9.52717 2.92299 6.68411
206 1 -1.1104 12.4499 2.82117 6.61711
171 1 -1.1104 6.75944 -0.0531729 6.73339
8005 2 2.2208 13.6118 -4.23965 7.97265
319 2 2.2208 2.39697 18.0793 13.5874
314 2 2.2208 5.19378 9.84614 13.5954
289 1 -1.1104 6.69936 16.9343 9.56994
315 2 2.2208 2.44106 12.5559 13.6763
54 2 2.2208 5.29878 6.94341 5.21375
55 2 2.2208 5.22729 12.5204 5.23094
56 1 -1.1104 1.09438 8.46223 0.858396
58 1 -1.1104 1.20884 8.48051 3.65884
60 1 -1.1104 1.11018 5.58669 1.08192
61 1 -1.1104 0.993445 11.0927 1.04266
66 2 2.2208 5.26583 9.84048 2.40319
67 1 -1.1104 1.05196 5.58171 3.94091
68 1 -1.1104 1.11238 11.1993 3.77926
71 1 -1.1104 3.87795 8.3763 1.0112
72 2 2.2208 2.52932 7.01305 2.42296
73 2 2.2208 2.50918 12.5696 2.36843
74 1 -1.1104 4.0834 8.43077 4.05515
75 2 2.2208 2.46375 9.75941 5.21922
76 1 -1.1104 3.90138 5.52613 0.949216
77 1 -1.1104 3.90544 11.1789 0.906523
79 1 -1.1104 3.97061 5.55672 3.73626
80 1 -1.1104 3.96677 11.1575 3.71428
70 1 -1.1104 6.6651 11.0648 3.77678
238 1 -1.1104 3.92749 8.40188 6.7505
69 1 -1.1104 6.73666 5.5524 3.83522
59 1 -1.1104 6.713 8.29199 3.79709
64 1 -1.1104 6.84037 11.1118 0.878426
237 1 -1.1104 6.66536 5.474 6.81639
78 1 -1.1104 3.97007 11.1107 6.52613
8004 2 2.2208 10.7263 -4.22817 10.8437
50 1 -1.1104 12.2593 19.6349 12.2724
63 1 -1.1104 6.77465 5.55186 0.921177
57 1 -1.1104 6.78553 8.34589 0.900219
84 2 2.2208 10.8883 6.96845 5.22896
85 2 2.2208 10.8489 12.6396 5.25836
86 1 -1.1104 12.3807 8.49102 0.846712
87 1 -1.1104 12.2718 8.30745 3.79625
88 1 -1.1104 12.2372 5.59221 0.865018
89 1 -1.1104 12.3723 11.203 0.923166
91 2 2.2208 10.7923 9.79347 2.40556
92 1 -1.1104 12.2679 5.51156 3.60439
93 1 -1.1104 12.2113 11.1206 3.81617
94 1 -1.1104 9.52033 8.46664 1.01424
95 2 2.2208 8.06092 7.02112 2.37605
96 2 2.2208 8.1165 12.595 2.26058
97 1 -1.1104 9.48329 8.45341 3.76868
98 2 2.2208 8.06737 9.68644 5.22795
99 1 -1.1104 9.44534 5.58926 0.967738
100 1 -1.1104 9.68495 11.2472 0.888584
102 1 -1.1104 9.44593 5.59845 3.77095
103 1 -1.1104 9.45708 11.3369 3.81326
101 1 -1.1104 9.47914 11.2265 6.68963
90 1 -1.1104 12.3887 11.2096 6.59046
265 1 -1.1104 12.3638 8.33217 6.64955
8744 2 2.2208 -0.428372 20.9496 13.7129
317 2 2.2208 10.7977 9.93506 13.4707
269 1 -1.1104 9.53439 5.70395 6.60479
7995 2 2.2208 2.44439 -4.28432 2.36431
106 2 2.2208 5.22988 18.0678 5.13961
107 1 -1.1104 1.05808 13.9168 1.02537
109 1 -1.1104 0.890881 19.4481 0.999736
113 1 -1.1104 1.10462 13.9913 3.83763
114 1 -1.1104 1.00924 19.6612 3.66841
116 1 -1.1104 1.03455 16.7297 0.994759
119 2 2.2208 5.21924 15.2756 2.39694
120 2 2.2208 5.20623 20.8478 2.35774
121 1 -1.1104 0.942228 16.8722 3.79695
123 1 -1.1104 3.89065 13.9566 0.905945
125 1 -1.1104 3.77528 19.6091 0.990437
127 2 2.2208 2.39463 18.1298 2.37659
128 1 -1.1104 3.74553 13.9877 3.67135
129 1 -1.1104 3.88823 19.5133 3.83989
130 2 2.2208 2.36097 15.5052 5.11615
131 2 2.2208 2.48436 21.032 5.2142
132 1 -1.1104 3.85948 16.7593 0.950562
134 1 -1.1104 3.70546 16.8491 3.74576
124 1 -1.1104 3.79337 13.863 6.74137
302 1 -1.1104 1.0052 19.6869 6.52256
117 1 -1.1104 0.883491 16.9337 6.68569
110 1 -1.1104 6.70219 13.8905 1.0146
115 1 -1.1104 6.66846 13.8527 3.89245
122 1 -1.1104 6.47828 16.7693 3.66257
111 1 -1.1104 6.56897 13.9698 6.55519
118 1 -1.1104 6.56363 16.6746 6.56319
126 1 -1.1104 3.82773 19.4544 6.60452
313 2 2.2208 2.50424 6.99783 13.5722
310 2 2.2208 7.94498 1.48739 13.5648
154 1 -1.1104 9.44808 14.0504 6.58444
140 1 -1.1104 6.68303 16.8473 0.985752
112 1 -1.1104 6.66906 19.5242 6.5755
139 1 -1.1104 6.74528 19.5856 3.81954
138 1 -1.1104 6.71787 19.52 0.913276
141 2 2.2208 10.7852 18.1949 5.1864
142 1 -1.1104 12.1586 14.1051 1.08073
144 1 -1.1104 12.2766 19.5717 1.04121
146 1 -1.1104 12.2197 13.9803 3.85346
147 1 -1.1104 12.1859 19.5411 3.6894
148 1 -1.1104 12.2704 16.8591 1.01344
150 2 2.2208 10.7611 15.3862 2.4255
151 2 2.2208 10.8406 20.8738 2.4239
152 1 -1.1104 12.0846 16.8521 3.82723
153 1 -1.1104 9.41516 14.0032 0.964144
155 1 -1.1104 9.50134 19.6459 0.965387
157 2 2.2208 8.06628 18.1533 2.42093
158 1 -1.1104 9.41141 13.9672 3.74786
159 1 -1.1104 9.38759 19.3982 3.90329
160 2 2.2208 7.95539 15.3252 5.19828
161 2 2.2208 7.99649 20.9373 5.23701
162 1 -1.1104 9.4588 16.6945 1.05919
164 1 -1.1104 9.24492 16.6957 3.82397
156 1 -1.1104 9.46392 19.5548 6.64635
163 1 -1.1104 9.38735 16.9103 6.70619
149 1 -1.1104 12.3304 16.6668 6.54666
7996 2 2.2208 5.20981 -4.18692 5.15956
8003 2 2.2208 7.95832 -4.20392 7.96877
316 2 2.2208 8.06023 6.95638 13.5857
174 1 -1.1104 3.85696 -0.111687 6.65122
169 1 -1.1104 6.71528 2.64224 6.52389
8000 2 2.2208 2.49049 -4.08498 8.02149
173 1 -1.1104 3.8963 2.62287 6.68089
170 1 -1.1104 1.10706 0.0913921 6.5376
167 1 -1.1104 1.13231 2.80675 6.59432
172 1 -1.1104 3.77698 -2.8468 6.63598
175 2 2.2208 5.11944 1.37324 10.8264
176 1 -1.1104 0.855585 -2.81413 12.2926
177 1 -1.1104 0.87167 2.67771 12.3361
180 1 -1.1104 0.858015 -2.75168 9.46864
181 1 -1.1104 0.977491 2.7645 9.62177
184 1 -1.1104 0.925133 -0.0394775 12.3831
186 2 2.2208 5.29803 -1.40858 7.94958
187 2 2.2208 5.19219 4.07016 7.97434
188 1 -1.1104 0.967826 -0.0886066 9.48342
190 1 -1.1104 3.80274 -2.71866 11.9881
191 1 -1.1104 3.82953 2.84299 12.0174
192 2 2.2208 2.41543 1.37074 8.1243
193 1 -1.1104 3.74662 -2.83951 9.3004
194 1 -1.1104 3.7509 2.87749 9.32464
195 2 2.2208 2.34549 -1.42086 10.8161
196 2 2.2208 2.41662 4.12701 10.798
197 1 -1.1104 3.76325 0.134107 12.2908
198 1 -1.1104 3.80201 -0.0346096 9.51041
185 1 -1.1104 6.62805 -0.0793268 12.1708
182 1 -1.1104 6.49094 -2.8458 9.35093
189 1 -1.1104 6.56453 0.0329632 9.51855
183 1 -1.1104 6.61137 2.78983 9.37398
8616 2 2.2208 13.607 12.6961 8.08143
207 1 -1.1104 12.2391 0.0311956 6.57992
210 1 -1.1104 9.537 0.0659521 6.59175
324 2 2.2208 8.06937 18.206 13.5751
323 2 2.2208 10.8831 15.4422 13.5604
168 1 -1.1104 6.70902 -2.84158 6.51249
8599 2 2.2208 13.6061 18.1474 2.33611
205 1 -1.1104 12.2887 -2.88895 6.59568
179 1 -1.1104 6.62336 2.73869 12.2229
178 1 -1.1104 6.44282 -2.9786 12.1776
211 2 2.2208 10.7504 1.34301 10.776
212 1 -1.1104 12.0932 -2.83749 12.2067
213 1 -1.1104 12.267 2.91373 12.0602
214 1 -1.1104 12.1391 -2.65904 9.48637
215 1 -1.1104 12.3243 2.89247 9.38106
216 1 -1.1104 12.3277 0.0376447 12.1636
217 2 2.2208 10.8642 -1.46349 7.9607
218 2 2.2208 10.9147 4.24397 8.03052
219 1 -1.1104 12.1997 0.023823 9.2333
220 1 -1.1104 9.28731 -2.78422 12.1844
221 1 -1.1104 9.38827 2.78847 12.3681
222 2 2.2208 8.11114 1.35114 8.11453
223 1 -1.1104 9.33072 -2.9373 9.32363
224 1 -1.1104 9.46203 2.75934 9.49514
225 2 2.2208 7.91646 -1.46425 10.8497
226 2 2.2208 8.1337 4.19539 10.9307
227 1 -1.1104 9.39475 -0.0681447 12.252
228 1 -1.1104 9.39907 -0.0428406 9.25587
83 1 -1.1104 12.2881 16.7524 12.0906
165 2 2.2208 7.98469 18.1507 7.96249
62 1 -1.1104 1.04157 11.251 6.52891
65 1 -1.1104 6.66079 11.1265 6.55991
236 1 -1.1104 1.0589 5.52542 6.68772
234 1 -1.1104 1.06437 8.4538 6.47776
239 1 -1.1104 3.9278 5.55584 6.59835
240 2 2.2208 5.41981 7.00155 10.8257
241 2 2.2208 5.28027 12.6157 10.7127
242 1 -1.1104 1.07346 8.33397 12.1524
244 1 -1.1104 1.12287 8.14554 9.311
246 1 -1.1104 1.18845 5.53257 12.2251
247 1 -1.1104 0.92667 11.1503 12.2363
250 2 2.2208 5.34066 9.84937 8.00606
251 1 -1.1104 1.09197 5.47192 9.31724
252 1 -1.1104 0.920181 10.9953 9.42577
255 1 -1.1104 4.0103 8.42734 12.208
256 2 2.2208 2.54719 6.86133 7.97616
257 2 2.2208 2.3053 12.6263 7.99909
258 1 -1.1104 3.86246 8.38521 9.55456
259 2 2.2208 2.47045 9.75165 10.8385
260 1 -1.1104 3.89871 5.52656 12.0882
261 1 -1.1104 3.81159 11.0891 12.0951
262 1 -1.1104 3.96827 5.61297 9.30128
263 1 -1.1104 3.65033 11.1999 9.18216
248 1 -1.1104 6.58547 5.60515 12.2492
243 1 -1.1104 6.77265 8.45978 12.1116
235 1 -1.1104 6.7587 8.23538 6.6118
254 1 -1.1104 6.68544 11.3283 9.39659
312 2 2.2208 10.7793 4.08852 13.5822
320 2 2.2208 5.11869 20.9147 13.7347
27 2 2.2208 10.8953 18.0745 10.7379
266 1 -1.1104 12.3946 5.59765 6.50887
8564 2 2.2208 13.7853 1.47648 8.0377
249 1 -1.1104 6.66878 11.3259 12.1972
245 1 -1.1104 6.66551 8.50226 9.30586
253 1 -1.1104 6.76295 5.58901 9.61909
267 1 -1.1104 9.55384 8.40795 6.6299
264 1 -1.1104 9.48959 11.2247 9.4585
268 1 -1.1104 9.4902 5.52811 9.45439
270 1 -1.1104 9.42386 11.3419 12.0781
271 1 -1.1104 9.59986 5.71782 12.187
272 2 2.2208 8.02393 9.90619 10.732
273 1 -1.1104 9.46695 8.52869 9.38018
274 2 2.2208 8.01978 12.597 8.01427
275 2 2.2208 8.07574 6.92116 8.13172
276 2 2.2208 10.9754 7.01742 10.8423
277 2 2.2208 10.9137 12.6841 10.803
278 1 -1.1104 12.3718 8.59264 12.1286
279 1 -1.1104 12.4408 8.34563 9.42579
280 1 -1.1104 12.2739 5.60299 12.3606
281 1 -1.1104 12.2062 11.2494 12.1202
282 2 2.2208 10.9652 9.78091 8.03593
283 1 -1.1104 12.3285 5.6415 9.33814
284 1 -1.1104 12.2601 11.2798 9.4409
285 1 -1.1104 9.54554 8.53006 12.0683
29 1 -1.1104 9.59692 16.8604 12.1214
321 2 2.2208 5.31275 15.3359 13.615
108 1 -1.1104 1.00904 14.0258 6.51701
8706 2 2.2208 13.6406 1.45699 2.56076
133 1 -1.1104 3.77644 16.5822 6.50284
51 2 2.2208 2.37893 15.3658 10.7938
52 2 2.2208 2.39597 20.9041 10.8381
202 1 -1.1104 3.83117 16.7815 12.1477
203 1 -1.1104 0.915792 16.6388 12.2408
231 1 -1.1104 3.73472 13.9509 9.43909
232 1 -1.1104 3.81489 16.7216 9.4165
233 2 2.2208 2.39666 18.0266 7.94921
286 1 -1.1104 3.76249 19.513 12.2253
287 1 -1.1104 3.89806 13.9996 12.2329
291 1 -1.1104 1.01195 19.4554 9.3916
292 1 -1.1104 1.09785 16.4218 9.32382
293 2 2.2208 5.24259 20.8632 7.97075
294 1 -1.1104 0.917041 13.796 9.51404
295 2 2.2208 5.13239 15.3338 8.06877
298 1 -1.1104 1.04716 19.464 12.143
299 1 -1.1104 1.10356 13.9312 12.3085
300 2 2.2208 5.24959 18.2239 10.7989
301 1 -1.1104 3.87579 19.4639 9.29071
297 1 -1.1104 6.65275 14.1234 12.2386
290 1 -1.1104 6.58717 14.0134 9.40174
296 1 -1.1104 6.63038 19.6322 12.4135
288 1 -1.1104 6.72368 19.6039 9.44292
318 2 2.2208 8.07623 12.5514 13.574
28 1 -1.1104 9.37048 16.7511 9.26183
53 1 -1.1104 12.2877 14.0274 9.41136
105 2 2.2208 10.8814 20.9977 7.97188
204 1 -1.1104 6.60913 16.7527 12.1507
229 1 -1.1104 9.48395 19.4757 9.39947
81 1 -1.1104 12.3101 19.5341 9.36583
135 1 -1.1104 12.2289 16.8512 9.26613
136 1 -1.1104 9.46562 14.1717 12.2256
145 1 -1.1104 12.26 19.5948 6.59473
230 2 2.2208 8.07054 15.485 10.7748
143 1 -1.1104 12.147 13.9643 6.61894
137 1 -1.1104 9.5865 19.5467 12.1012
8432 2 2.2208 13.6349 -1.35315 10.8578
30 2 2.2208 8.03546 21.0017 10.8851
199 1 -1.1104 9.40127 13.9241 9.38319
104 2 2.2208 10.7579 15.2983 8.03462
306 2 2.2208 5.08109 4.19283 13.5668
304 2 2.2208 5.23167 -1.57352 13.5917
8666 2 2.2208 13.6234 21.0033 10.8318
305 2 2.2208 2.21688 1.27294 13.7529
8709 2 2.2208 -0.215773 7.03032 5.25829
7997 2 2.2208 -0.342003 -4.21051 5.17994
8703 2 2.2208 -0.318694 4.18526 2.38389
8431 2 2.2208 -0.524484 20.8771 8.04265
8708 2 2.2208 -0.395507 20.9008 2.39118
8539 2 2.2208 13.674 4.20578 10.8451
8404 2 2.2208 13.6252 4.22966 5.1576
8634 2 2.2208 -0.314082 6.92468 10.8007
8713 2 2.2208 -0.295224 15.3324 2.31467
8502 2 2.2208 13.5694 15.3008 5.15779
8729 2 2.2208 13.7264 7.04649 13.6403
8745 2 2.2208 13.7426 4.18216 -0.36267
311 2 2.2208 10.8002 -1.37257 13.5914
594 2 2.2208 8.15939 -1.35064 -0.369422
8715 2 2.2208 13.6507 18.2347 13.5796
595 2 2.2208 8.09832 4.23302 -0.348161
593 2 2.2208 10.9534 1.43072 -0.332482
9004 2 2.2208 13.6876 -1.44131 -0.389311
336 2 2.2208 5.2598 1.27548 16.3532
337 1 -1.1104 0.985303 -2.82664 17.8024
338 1 -1.1104 1.00539 2.50253 17.7263
341 1 -1.1104 1.05388 -2.70268 15.0527
343 1 -1.1104 0.908941 2.71539 15.0284
349 1 -1.1104 0.951275 -0.160266 17.906
351 2 2.2208 5.20452 -1.55767 19.3296
352 2 2.2208 5.20932 4.2521 19.189
353 1 -1.1104 0.912429 -0.109587 15.1649
357 1 -1.1104 3.82688 -2.85958 17.6543
358 1 -1.1104 3.78994 2.78485 17.8238
359 2 2.2208 2.37761 1.31945 19.2821
360 1 -1.1104 3.83982 -2.88572 14.8375
362 1 -1.1104 3.77384 2.67981 14.9362
364 2 2.2208 2.39918 -1.43774 16.4706
365 2 2.2208 2.29021 4.11516 16.3271
366 1 -1.1104 3.70048 -0.0550255 17.905
367 1 -1.1104 3.82836 -0.142261 15.1177
355 1 -1.1104 6.70116 -0.0465189 14.9872
350 1 -1.1104 6.59172 -0.129878 17.7751
345 1 -1.1104 6.5158 -2.90557 15.0715
340 1 -1.1104 6.61304 2.8857 17.9048
630 2 2.2208 5.31257 12.5807 27.5731
9002 2 2.2208 13.688 -1.38937 22.0895
363 1 -1.1104 3.9648 2.75064 20.7783
8087 2 2.2208 5.2133 -4.316 22.0798
8972 2 2.2208 -0.381666 18.0868 16.4588
8122 2 2.2208 7.97459 -4.17924 19.3318
339 1 -1.1104 6.65938 -2.91601 17.8695
347 1 -1.1104 6.57791 2.78976 15.0308
8123 2 2.2208 10.7975 -4.12908 16.305
379 2 2.2208 10.7475 1.30502 16.4665
380 1 -1.1104 12.3218 -2.84223 17.6534
381 1 -1.1104 12.258 2.75456 17.8295
382 1 -1.1104 12.1688 -2.72072 14.9175
384 1 -1.1104 12.1568 2.81466 15.0178
386 1 -1.1104 12.3226 -0.0159703 17.8234
387 2 2.2208 10.8261 -1.48159 19.2144
388 2 2.2208 10.7614 4.00738 19.2739
389 1 -1.1104 12.3438 -0.0100234 15.0209
391 1 -1.1104 9.40515 -2.76161 17.7686
392 1 -1.1104 9.37866 2.63121 17.8532
393 2 2.2208 7.87379 1.30786 19.2989
394 1 -1.1104 9.33821 -2.79296 14.9522
396 1 -1.1104 9.36378 2.71337 14.9137
398 2 2.2208 7.93816 -1.47161 16.377
399 2 2.2208 7.98823 4.06621 16.453
400 1 -1.1104 9.29404 -0.115179 17.9743
401 1 -1.1104 9.49959 -0.067322 15.1013
385 1 -1.1104 12.1941 2.77775 20.5521
390 1 -1.1104 12.1794 -0.0537308 20.5854
8009 2 2.2208 10.9521 -4.2746 27.6887
8084 2 2.2208 8.04011 -4.15843 24.942
333 2 2.2208 2.52005 9.97294 27.5213
308 2 2.2208 10.8416 18.1254 27.7273
383 1 -1.1104 12.1845 -2.81921 20.4946
348 1 -1.1104 6.62063 2.73709 20.6215
402 1 -1.1104 9.3076 -0.144274 20.7516
412 2 2.2208 5.22219 6.93811 16.3621
413 2 2.2208 5.25452 12.7126 16.2716
414 1 -1.1104 1.00401 8.30583 17.6529
416 1 -1.1104 0.943478 8.31034 14.9997
420 1 -1.1104 0.919957 5.43875 17.8682
421 1 -1.1104 1.05033 11.1144 17.6807
424 2 2.2208 5.26675 9.95588 19.1537
425 1 -1.1104 0.892884 5.48509 14.961
427 1 -1.1104 1.03899 11.0569 14.932
433 1 -1.1104 3.76864 8.66158 17.8922
434 2 2.2208 2.45786 6.88073 19.1524
435 2 2.2208 2.44628 12.6733 19.1375
436 1 -1.1104 3.82299 8.43978 14.9754
438 2 2.2208 2.3415 9.76307 16.3988
439 1 -1.1104 3.72474 5.62969 17.7602
440 1 -1.1104 3.89113 11.4524 17.703
441 1 -1.1104 3.75959 5.60495 14.9744
443 1 -1.1104 3.87442 11.1912 14.8964
418 1 -1.1104 6.68112 8.37303 14.8264
429 1 -1.1104 6.58432 5.52648 14.9912
444 1 -1.1104 3.81797 11.1654 20.3986
423 1 -1.1104 6.73449 11.1741 17.8258
415 1 -1.1104 6.52191 8.42175 17.6364
432 1 -1.1104 6.55744 11.1009 20.6625
8012 2 2.2208 5.23823 -4.16121 27.5812
437 1 -1.1104 3.81453 8.31077 20.674
430 1 -1.1104 6.73733 5.50588 20.5431
8859 2 2.2208 13.5764 9.77609 16.3587
327 2 2.2208 8.15813 9.79686 27.6114
574 2 2.2208 -0.294031 4.19359 24.8146
422 1 -1.1104 6.59247 5.65234 17.8057
431 1 -1.1104 6.61591 11.2596 15.0437
448 2 2.2208 10.7999 6.97265 16.2129
449 2 2.2208 10.8362 12.5604 16.3055
450 1 -1.1104 12.2402 8.37842 17.7243
451 1 -1.1104 12.1329 8.53524 14.9265
453 1 -1.1104 12.2177 5.59989 17.857
454 1 -1.1104 12.3487 11.097 17.9152
455 2 2.2208 10.9398 9.78447 19.1848
456 1 -1.1104 12.2765 5.73042 14.9847
458 1 -1.1104 12.1826 11.157 14.9239
460 1 -1.1104 9.36855 8.31178 17.8037
461 2 2.2208 8.03865 6.96908 19.0083
462 2 2.2208 8.08807 12.5701 19.1159
463 1 -1.1104 9.37592 8.29592 15.0285
465 2 2.2208 7.97912 9.76418 16.3715
466 1 -1.1104 9.45644 5.40229 17.7006
467 1 -1.1104 9.53727 11.0345 17.8507
468 1 -1.1104 9.42061 5.42866 14.9645
470 1 -1.1104 9.4643 11.2345 14.9873
469 1 -1.1104 9.50393 5.49757 20.5865
457 1 -1.1104 12.2406 5.63525 20.4485
459 1 -1.1104 12.2569 11.1102 20.7231
464 1 -1.1104 9.35688 8.30201 20.6183
8785 2 2.2208 13.5168 4.22747 16.3537
8719 2 2.2208 13.6636 15.5718 27.6468
329 2 2.2208 2.53134 15.342 27.6406
8860 2 2.2208 13.4912 6.98161 19.217
475 2 2.2208 5.20956 18.1886 16.4568
476 1 -1.1104 0.951234 13.9834 17.8345
477 1 -1.1104 1.16748 19.4743 17.9691
480 1 -1.1104 0.933434 13.8938 14.9929
482 1 -1.1104 0.896161 19.4464 15.0567
488 1 -1.1104 1.1482 16.7269 17.9095
490 2 2.2208 5.24819 15.2681 19.2036
491 2 2.2208 5.12257 20.9423 19.3829
492 1 -1.1104 0.952394 16.6973 15.0748
496 1 -1.1104 3.82185 14.0099 17.7413
497 1 -1.1104 3.76917 19.5566 17.8579
498 2 2.2208 2.49375 18.014 19.2502
499 1 -1.1104 3.88339 13.9963 14.9643
501 1 -1.1104 3.67454 19.5324 15.0265
503 2 2.2208 2.51756 15.3147 16.386
504 2 2.2208 2.34313 20.8768 16.5502
505 1 -1.1104 3.72841 16.6844 17.8405
506 1 -1.1104 3.76925 16.8404 14.9796
484 1 -1.1104 6.63287 13.9951 15.0335
485 1 -1.1104 6.62026 13.874 20.5817
495 1 -1.1104 6.6208 16.7558 20.7065
487 1 -1.1104 6.67282 19.6381 20.7404
493 1 -1.1104 1.06213 16.7923 20.613
483 1 -1.1104 1.05308 19.5462 20.6534
481 1 -1.1104 0.964824 14.0562 20.5169
489 1 -1.1104 6.49283 16.7939 17.8247
8932 2 2.2208 13.6041 21.0136 16.4767
8975 2 2.2208 13.5924 12.7726 24.8741
601 2 2.2208 10.7917 15.4867 24.8006
564 2 2.2208 2.46487 -1.36659 27.7398
478 1 -1.1104 6.73243 13.9489 17.8215
527 1 -1.1104 9.41475 14.0538 20.6703
486 1 -1.1104 6.5841 19.3905 15.0341
494 1 -1.1104 6.62912 16.7406 14.9958
479 1 -1.1104 6.42981 19.584 17.8865
511 2 2.2208 10.7065 18.2387 16.5105
512 1 -1.1104 12.3027 13.9792 17.8105
513 1 -1.1104 12.0199 19.7121 17.7436
514 1 -1.1104 12.2786 14.0626 14.9064
516 1 -1.1104 12.1166 19.5598 15.0688
518 1 -1.1104 12.2734 16.8609 17.8918
519 2 2.2208 10.9434 15.4033 19.2496
520 2 2.2208 10.7764 21.0282 19.3103
521 1 -1.1104 11.958 16.7875 15.1213
523 1 -1.1104 9.50514 14.0369 17.8141
524 1 -1.1104 9.22106 19.5827 17.8967
525 2 2.2208 7.94441 18.1527 19.2589
526 1 -1.1104 9.41565 13.9781 15.0042
528 1 -1.1104 9.30851 19.6771 14.9335
530 2 2.2208 8.03921 15.4355 16.3246
531 2 2.2208 7.93132 21.0233 16.497
532 1 -1.1104 9.40067 16.806 17.7666
533 1 -1.1104 9.32292 16.7878 14.9166
529 1 -1.1104 9.51558 19.4909 20.4903
534 1 -1.1104 9.33533 16.7546 20.5749
571 1 -1.1104 12.3993 19.6478 23.4105
354 1 -1.1104 1.04765 -0.0530771 20.6698
344 1 -1.1104 1.01237 2.75854 20.6617
368 1 -1.1104 3.61699 -0.0767918 20.8501
361 1 -1.1104 3.80871 -2.81897 20.7397
342 1 -1.1104 1.15156 -2.88543 20.7895
356 1 -1.1104 6.45232 0.00595535 20.5724
539 2 2.2208 5.22006 1.34354 22.1579
540 1 -1.1104 1.09781 -2.94591 23.5836
541 1 -1.1104 1.13376 2.75681 23.492
544 1 -1.1104 0.989248 -2.76029 26.4534
545 1 -1.1104 1.08374 2.7967 26.3055
548 1 -1.1104 0.919228 0.0155921 23.5051
550 2 2.2208 5.28109 -1.35356 24.8606
552 1 -1.1104 0.880191 0.0391462 26.3292
554 1 -1.1104 4.06433 -2.83288 23.5025
555 1 -1.1104 3.85639 2.83814 23.5809
556 2 2.2208 2.42928 1.28769 24.9489
557 1 -1.1104 3.77336 -2.75086 26.16
558 1 -1.1104 3.89406 2.73259 26.298
559 2 2.2208 2.41269 -1.47654 22.1745
560 2 2.2208 2.45575 4.13602 21.9507
561 1 -1.1104 3.74379 -0.066132 23.6304
562 1 -1.1104 3.85881 -0.0412426 26.3778
551 2 2.2208 5.22845 4.26419 24.8988
549 1 -1.1104 6.58526 0.0390725 23.5491
547 1 -1.1104 6.65127 2.85278 26.2972
346 1 -1.1104 6.57654 -2.72435 20.8329
596 1 -1.1104 12.2299 19.556 26.3121
328 2 2.2208 10.8762 6.96932 27.6771
369 2 2.2208 8.00686 20.9513 22.0984
537 1 -1.1104 9.35366 14.1301 23.498
326 2 2.2208 10.9644 12.6485 27.5871
371 1 -1.1104 9.36098 16.793 26.3065
553 1 -1.1104 6.61375 0.113266 26.2083
543 1 -1.1104 6.6159 2.86569 23.3988
546 1 -1.1104 6.60956 -2.68999 26.3388
397 1 -1.1104 9.29741 2.61675 20.6384
542 1 -1.1104 6.7875 -2.7884 23.6405
395 1 -1.1104 9.48261 -2.85576 20.5894
575 2 2.2208 10.7344 1.3399 22.0163
576 1 -1.1104 12.2459 -2.9616 23.411
577 1 -1.1104 12.2461 2.7082 23.3542
578 1 -1.1104 12.2679 -2.73807 26.0828
579 1 -1.1104 12.1744 2.90584 26.3493
580 1 -1.1104 12.2816 -0.0458277 23.5067
581 2 2.2208 10.8345 -1.31974 24.8508
582 2 2.2208 10.8878 4.25619 24.8397
583 1 -1.1104 12.2383 0.0270779 26.3778
584 1 -1.1104 9.58238 -2.78056 23.5098
585 1 -1.1104 9.53494 2.84981 23.475
586 2 2.2208 8.03101 1.47652 24.8738
587 1 -1.1104 9.46999 -2.83473 26.3047
588 1 -1.1104 9.54144 2.85064 26.4158
589 2 2.2208 8.02886 -1.33923 22.1989
590 2 2.2208 7.94037 4.21975 22.0314
591 1 -1.1104 9.47194 -0.0313816 23.5906
592 1 -1.1104 9.58946 -0.0997867 26.3388
563 2 2.2208 5.27276 1.41207 27.5965
9051 2 2.2208 13.7234 9.84203 22.0308
535 2 2.2208 7.96261 18.1745 24.8624
417 1 -1.1104 0.974979 8.35731 20.4092
428 1 -1.1104 1.01616 11.2209 20.5058
419 1 -1.1104 6.77299 8.37258 20.4559
426 1 -1.1104 1.02066 5.41329 20.6995
442 1 -1.1104 3.96464 5.67388 20.5518
604 2 2.2208 5.34879 6.98782 21.9632
605 2 2.2208 5.2955 12.5811 22.0507
606 1 -1.1104 0.943389 8.38851 23.2643
608 1 -1.1104 1.01981 8.4669 26.0852
610 1 -1.1104 1.05516 5.61569 23.4356
611 1 -1.1104 1.14744 11.2944 23.3097
614 2 2.2208 5.3055 9.74134 24.8057
615 1 -1.1104 0.982723 5.65188 26.2944
616 1 -1.1104 1.05141 11.1344 26.2049
619 1 -1.1104 3.8458 8.35444 23.3578
620 2 2.2208 2.30462 7.08261 24.7415
621 2 2.2208 2.32808 12.6158 24.74
622 1 -1.1104 3.82371 8.43629 26.216
623 2 2.2208 2.51701 9.83639 21.7714
624 1 -1.1104 3.86057 5.57867 23.3056
625 1 -1.1104 3.9122 11.2166 23.3406
626 1 -1.1104 3.84762 5.7363 26.065
627 1 -1.1104 3.97302 11.2415 26.1381
613 1 -1.1104 6.88961 11.1367 23.3974
617 1 -1.1104 6.65865 5.70145 26.3095
612 1 -1.1104 6.57657 5.68068 23.5336
618 1 -1.1104 6.66632 11.2547 26.1669
446 1 -1.1104 6.59775 19.5606 23.4622
536 1 -1.1104 9.38315 19.6867 23.4989
609 1 -1.1104 6.73102 8.39339 26.1423
471 1 -1.1104 9.55991 11.1943 20.7136
607 1 -1.1104 6.65269 8.44696 23.3074
452 1 -1.1104 12.2045 8.39434 20.8109
565 1 -1.1104 9.45207 8.36625 23.48
567 1 -1.1104 12.3394 11.2368 26.3295
568 1 -1.1104 12.2811 5.7146 26.0954
569 2 2.2208 10.9039 9.81094 24.7359
628 1 -1.1104 12.3073 11.3339 23.4793
629 1 -1.1104 12.2924 5.46194 23.3175
631 1 -1.1104 12.3117 8.39449 26.1304
634 1 -1.1104 12.2271 8.28246 23.4233
635 1 -1.1104 9.55727 11.1801 26.1928
636 1 -1.1104 9.53665 5.52865 26.2208
637 1 -1.1104 9.54796 11.2049 23.397
638 1 -1.1104 9.35863 5.45925 23.3806
639 2 2.2208 8.18416 9.71664 22.0397
640 1 -1.1104 9.48733 8.31321 26.1725
641 2 2.2208 8.15641 12.6434 24.8515
642 2 2.2208 8.08767 6.98255 24.917
643 2 2.2208 10.8266 6.97679 22.0947
644 2 2.2208 10.8019 12.6729 22.1306
474 1 -1.1104 6.54779 16.7446 26.3406
325 2 2.2208 2.41547 4.1986 27.7061
502 1 -1.1104 3.79429 19.4539 20.522
500 1 -1.1104 3.79912 13.911 20.6199
374 1 -1.1104 6.71553 16.8744 23.5439
406 1 -1.1104 6.66759 19.5588 26.1331
507 1 -1.1104 3.93848 16.7083 20.7511
599 1 -1.1104 1.14691 16.6495 23.4553
598 1 -1.1104 3.89076 16.7204 23.4406
376 1 -1.1104 3.90081 13.9326 26.1136
377 1 -1.1104 3.84829 16.7445 26.3181
378 2 2.2208 2.43012 18.1369 24.7769
403 1 -1.1104 4.02855 19.4854 26.1764
407 2 2.2208 5.22212 18.1946 22.0088
408 1 -1.1104 0.927384 14.0598 23.2848
409 1 -1.1104 0.990739 19.6646 23.4497
411 2 2.2208 5.31762 15.3162 24.773
445 2 2.2208 5.29904 20.9838 24.817
447 1 -1.1104 1.0041 13.9979 26.1895
472 1 -1.1104 0.993834 16.7602 26.3348
473 1 -1.1104 1.06035 19.5971 26.2144
508 1 -1.1104 3.77146 14.1309 23.4024
510 1 -1.1104 3.77238 19.4677 23.3078
570 2 2.2208 2.4126 15.3633 21.8921
597 2 2.2208 2.46942 21.0079 22.096
509 1 -1.1104 6.73159 14.0174 26.1825
404 1 -1.1104 9.43828 19.4113 26.3394
375 2 2.2208 8.0687 15.5107 21.9646
370 1 -1.1104 9.41139 16.8561 23.4203
603 1 -1.1104 12.3363 16.8295 26.2196
538 2 2.2208 10.7902 18.254 22.0061
410 1 -1.1104 6.61898 13.9681 23.4007
517 1 -1.1104 12.312 19.6779 20.5302
515 1 -1.1104 12.2182 13.9584 20.7112
522 1 -1.1104 12.2877 16.9634 20.6568
405 1 -1.1104 9.58301 13.9414 26.2001
572 1 -1.1104 12.3832 14.1862 26.3027
602 2 2.2208 11.0242 20.9555 24.9044
566 1 -1.1104 12.2231 14.0654 23.4418
600 1 -1.1104 12.2534 16.892 23.3947
17302 2 2.2208 -0.31142 -4.23466 27.7075
8783 2 2.2208 -0.375624 18.1017 21.9716
372 2 2.2208 -0.464147 1.20534 16.5385
17381 2 2.2208 13.6161 -4.16108 24.7669
8866 2 2.2208 -0.362659 12.4947 16.3207
8929 2 2.2208 13.5443 15.4297 16.3985
8977 2 2.2208 13.6523 1.41883 24.8824
332 2 2.2208 5.30803 7.04183 27.4574
307 2 2.2208 8.08452 15.3725 27.5564
309 2 2.2208 8.14651 20.9713 27.5888
330 2 2.2208 5.25721 18.2205 27.5948
322 2 2.2208 10.7661 20.9147 13.671
645 2 2.2208 5.28123 23.6476 5.17208
646 2 2.2208 5.17413 29.4392 5.21791
647 1 -1.1104 0.927182 25.0528 0.954857
648 1 -1.1104 1.12187 25.1565 3.72065
649 1 -1.1104 1.0545 22.3393 0.850459
650 1 -1.1104 1.01276 27.7984 1.12245
651 2 2.2208 5.25064 26.5546 2.3384
652 1 -1.1104 1.04886 22.3923 3.93478
653 1 -1.1104 1.08923 27.9038 3.93992
654 1 -1.1104 3.82986 25.0367 1.04647
655 2 2.2208 2.41724 23.6395 2.38298
656 2 2.2208 2.34492 29.396 2.3482
657 1 -1.1104 3.8651 25.0254 3.69691
658 2 2.2208 2.46477 26.3436 5.17669
659 1 -1.1104 3.88654 22.26 1.03797
660 1 -1.1104 3.79522 27.9288 0.973096
661 1 -1.1104 3.84578 22.2187 3.80759
662 1 -1.1104 3.70407 27.9223 3.69696
789 1 -1.1104 1.09164 27.7739 6.67702
786 1 -1.1104 1.13674 25.0943 6.48652
961 2 2.2208 8.09055 46.1909 13.5546
671 1 -1.1104 6.57761 28.1888 3.88415
666 1 -1.1104 6.64491 25.282 1.03726
668 1 -1.1104 6.66312 22.4236 0.947519
792 1 -1.1104 4.08922 25.0456 6.4831
788 1 -1.1104 1.08598 22.4115 6.81137
790 1 -1.1104 6.72967 22.3367 6.62842
9405 2 2.2208 -0.209265 29.3214 5.25184
665 2 2.2208 -0.297755 26.4654 2.48681
9438 2 2.2208 -0.378118 23.7622 -0.417849
1485 1 -1.1104 6.67103 47.7309 12.1699
669 1 -1.1104 6.6658 28.1272 1.11858
667 1 -1.1104 6.50657 25.241 3.77223
670 1 -1.1104 6.65889 22.2336 3.7319
672 2 2.2208 10.8764 23.8133 5.1823
673 2 2.2208 10.9047 29.479 5.19647
674 1 -1.1104 12.3134 25.2089 1.15886
675 1 -1.1104 12.3139 25.1374 3.92864
676 1 -1.1104 12.2645 22.3602 1.10346
677 1 -1.1104 12.1234 28.0111 0.934458
678 2 2.2208 10.8767 26.5687 2.50548
679 1 -1.1104 12.2995 22.3933 3.74551
680 1 -1.1104 12.2321 27.9419 3.87198
681 1 -1.1104 9.52961 25.1734 1.0989
682 2 2.2208 8.07757 23.7477 2.37675
683 2 2.2208 8.04342 29.4158 2.44877
684 1 -1.1104 9.5163 25.2517 3.80775
685 2 2.2208 8.01489 26.5764 5.22496
686 1 -1.1104 9.45049 22.3437 0.931759
687 1 -1.1104 9.46456 27.994 1.16909
688 1 -1.1104 9.51271 22.4094 3.76663
689 1 -1.1104 9.23442 28.0482 3.88856
820 1 -1.1104 12.3314 22.3415 6.66219
821 1 -1.1104 12.2778 28.0542 6.59834
823 1 -1.1104 9.53062 22.4038 6.70479
9411 2 2.2208 -0.296003 37.6981 2.53079
693 2 2.2208 5.28539 34.8445 5.22956
694 1 -1.1104 0.970977 30.6428 0.926239
695 1 -1.1104 1.09603 36.3804 1.09902
697 1 -1.1104 1.06678 30.7505 3.80249
698 1 -1.1104 1.11154 36.3624 3.94139
700 1 -1.1104 0.980002 33.4906 0.977752
701 2 2.2208 5.28466 32.2024 2.41838
702 2 2.2208 5.1679 37.7689 2.4872
703 1 -1.1104 0.956394 33.7206 3.80567
705 1 -1.1104 3.85161 30.7656 0.942981
706 1 -1.1104 3.86095 36.4691 1.0911
707 2 2.2208 2.43381 35.0229 2.38489
708 1 -1.1104 3.80695 30.8531 3.77507
709 1 -1.1104 3.78232 36.3513 3.9516
710 2 2.2208 2.47246 32.1651 5.12897
711 2 2.2208 2.61052 37.7961 5.33529
712 1 -1.1104 3.69816 33.6114 0.955777
713 1 -1.1104 3.83096 33.5173 3.76078
851 1 -1.1104 3.96714 33.5726 6.53301
850 1 -1.1104 4.06941 36.3117 6.57809
717 1 -1.1104 6.56277 30.9431 0.876552
704 1 -1.1104 6.69016 33.5315 3.67944
718 1 -1.1104 6.5795 30.8266 3.82208
750 1 -1.1104 1.24784 39.0882 3.78623
692 1 -1.1104 9.43211 44.9169 6.36389
763 1 -1.1104 12.2029 39.3456 6.59846
849 1 -1.1104 3.81761 30.7582 6.72872
843 1 -1.1104 1.02614 30.6883 6.57997
846 1 -1.1104 6.67603 36.2297 6.56382
1342 1 -1.1104 9.62733 47.6872 3.83969
696 1 -1.1104 6.75899 36.5297 1.0723
699 1 -1.1104 6.61554 36.3961 3.78777
719 1 -1.1104 6.67283 33.7242 0.848164
720 2 2.2208 10.7962 35.0858 5.31993
721 1 -1.1104 12.2013 30.8566 0.943723
722 1 -1.1104 12.1347 36.3285 0.899007
723 1 -1.1104 12.2432 30.7322 3.77633
724 1 -1.1104 12.1149 36.4519 3.7608
725 1 -1.1104 12.336 33.6263 1.11606
726 2 2.2208 10.9313 32.27 2.51277
727 2 2.2208 10.6988 37.7232 2.35394
728 1 -1.1104 12.3246 33.6458 3.83695
729 1 -1.1104 9.39081 30.6947 0.969377
730 1 -1.1104 9.32137 36.4426 0.820094
731 2 2.2208 8.03366 35.028 2.40084
732 1 -1.1104 9.44742 30.7883 3.86296