ITEM: TIMESTEP
60000
ITEM: NUMBER OF ATOMS
17670
ITEM: BOX BOUNDS pp pp pp
-3.6312338914832454e-01 2.7703123389148548e+01
-4.2886117837909232e+00 3.3236861178378518e+02
-3.5094610242704433e-01 2.7690946102427709e+01
ITEM: ATOMS id type q x y z
1 2 2.2208 5.10826 1.34612 5.19119
2 1 -1.1104 0.979287 -2.70953 0.923119
3 1 -1.1104 0.946828 2.79182 1.1418
6 1 -1.1104 1.10618 -2.90427 3.63063
7 1 -1.1104 0.842771 2.71102 3.91712
10 1 -1.1104 0.815498 -0.0621241 1.074
12 2 2.2208 5.18502 -1.36883 2.38606
13 2 2.2208 5.1487 4.32984 2.48196
14 1 -1.1104 1.11059 -0.104908 3.85611
16 1 -1.1104 3.74286 -2.74267 1.09007
17 1 -1.1104 3.80317 2.9246 1.07505
18 2 2.2208 2.26989 1.43218 2.50148
19 1 -1.1104 3.90399 -2.71944 3.83944
20 1 -1.1104 3.80511 2.87026 3.75851
21 2 2.2208 2.40982 -1.56208 5.22898
22 2 2.2208 2.31033 4.21443 5.31342
23 1 -1.1104 3.67934 0.0370675 0.909948
24 1 -1.1104 3.90774 0.163751 3.64003
15 1 -1.1104 6.63106 -0.15232 3.70145
8001 2 2.2208 5.12191 -4.24689 10.8436
166 1 -1.1104 0.947092 -2.85239 6.65713
8 1 -1.1104 6.55631 -2.94276 3.89622
5 1 -1.1104 6.53206 2.78564 1.16065
8003 2 2.2208 8.11793 -4.18482 7.92472
8706 2 2.2208 13.5444 1.31932 2.44721
172 1 -1.1104 3.84137 -2.89593 6.59951
173 1 -1.1104 3.65072 2.67975 6.62858
167 1 -1.1104 0.876366 2.81164 6.69766
8004 2 2.2208 10.7515 -4.15807 10.8582
8432 2 2.2208 13.7284 -1.3567 10.6683
7999 2 2.2208 11.0042 -4.20767 5.15971
8709 2 2.2208 -0.366225 6.96776 5.2951
9 1 -1.1104 6.57962 2.68026 3.91332
171 1 -1.1104 6.67759 0.138749 6.48536
4 1 -1.1104 6.70145 -2.89569 1.00418
11 1 -1.1104 6.43584 -0.0795507 1.04619
31 2 2.2208 10.8063 1.30332 5.27545
32 1 -1.1104 12.2429 -2.96498 0.880822
33 1 -1.1104 12.0737 2.84347 1.20852
34 1 -1.1104 12.2426 -2.81355 3.73719
35 1 -1.1104 12.1898 2.74293 3.90558
36 1 -1.1104 12.1523 -0.0782997 1.04066
37 2 2.2208 10.7254 -1.48561 2.4958
38 2 2.2208 10.9226 4.18767 2.3801
39 1 -1.1104 12.2075 -0.105659 3.77672
40 1 -1.1104 9.38041 -2.92467 1.05854
41 1 -1.1104 9.39089 2.76695 1.07547
42 2 2.2208 7.95621 1.31401 2.40674
43 1 -1.1104 9.38118 -2.89301 3.96927
44 1 -1.1104 9.41006 2.64713 3.82931
45 2 2.2208 8.0821 -1.38606 5.32516
46 2 2.2208 8.01792 4.11591 5.22896
47 1 -1.1104 9.34374 -0.0841967 1.18023
48 1 -1.1104 9.29803 -0.0228059 3.98712
210 1 -1.1104 9.54371 0.0411222 6.77768
208 1 -1.1104 9.6276 -2.79338 6.71025
323 2 2.2208 11.0068 15.3629 13.6807
8017 2 2.2208 2.31645 -4.15111 13.5586
8710 2 2.2208 -0.255436 12.5522 5.29553
168 1 -1.1104 6.76919 -2.78754 6.60622
209 1 -1.1104 9.4854 2.87597 6.67692
205 1 -1.1104 12.4111 -2.97164 6.43866
206 1 -1.1104 12.1263 2.78384 6.68713
136 1 -1.1104 9.59281 14.1722 12.3098
304 2 2.2208 5.18862 -1.36813 13.5522
54 2 2.2208 5.26732 7.05658 5.32046
55 2 2.2208 5.17794 12.505 5.07936
56 1 -1.1104 1.09553 8.38177 0.978989
58 1 -1.1104 1.15419 8.42513 3.92082
60 1 -1.1104 0.999174 5.45881 1.08855
61 1 -1.1104 1.04008 11.144 1.04494
66 2 2.2208 5.19142 9.785 2.38901
67 1 -1.1104 0.901347 5.51104 3.89041
68 1 -1.1104 0.975529 11.152 3.91069
71 1 -1.1104 3.88642 8.45186 0.915796
72 2 2.2208 2.43403 6.82138 2.47536
73 2 2.2208 2.49156 12.5871 2.42767
74 1 -1.1104 3.88599 8.26802 3.71862
75 2 2.2208 2.50175 9.69315 5.33687
76 1 -1.1104 3.81615 5.47423 0.932153
77 1 -1.1104 3.89704 11.0989 0.957361
79 1 -1.1104 3.74248 5.53125 3.80147
80 1 -1.1104 3.92451 11.1246 3.64295
63 1 -1.1104 6.67434 5.6674 0.99522
64 1 -1.1104 6.68535 11.334 1.01143
59 1 -1.1104 6.73358 8.36507 3.94819
27 2 2.2208 10.925 18.2783 10.8471
334 2 2.2208 -0.366395 12.5807 -0.356715
239 1 -1.1104 3.78991 5.47681 6.61803
234 1 -1.1104 1.16771 8.50008 6.80117
236 1 -1.1104 1.00509 5.68266 6.77727
17303 2 2.2208 13.6538 -4.16519 13.6126
8433 2 2.2208 13.5619 9.83114 5.11588
8014 2 2.2208 7.93902 -4.19164 13.5644
82 2 2.2208 -0.377825 9.947 2.43894
8712 2 2.2208 13.6196 7.0157 2.40678
57 1 -1.1104 6.58462 8.36796 1.09303
70 1 -1.1104 6.684 11.1557 3.92716
69 1 -1.1104 6.51505 5.60177 3.83267
84 2 2.2208 10.8411 7.04232 5.24776
85 2 2.2208 10.8716 12.6757 5.23065
86 1 -1.1104 12.2888 8.31483 0.860556
87 1 -1.1104 12.1317 8.41542 3.76335
88 1 -1.1104 12.3239 5.54191 0.983274
89 1 -1.1104 12.2426 11.2061 0.88716
91 2 2.2208 10.7784 9.88855 2.37072
92 1 -1.1104 12.2507 5.56117 3.75047
93 1 -1.1104 12.1798 11.2247 3.76931
94 1 -1.1104 9.49959 8.46003 0.913421
95 2 2.2208 7.92793 6.8524 2.47261
96 2 2.2208 8 12.8168 2.44516
97 1 -1.1104 9.38758 8.30976 3.82415
98 2 2.2208 8.05242 9.82579 5.27573
99 1 -1.1104 9.35067 5.58742 1.11227
100 1 -1.1104 9.33117 11.3266 1.02634
102 1 -1.1104 9.42463 5.52897 3.82363
103 1 -1.1104 9.39887 11.2779 3.81975
65 1 -1.1104 6.78626 11.1072 6.74537
90 1 -1.1104 12.3252 11.2785 6.54835
265 1 -1.1104 12.2743 8.56937 6.61978
229 1 -1.1104 9.65385 19.764 9.394
237 1 -1.1104 6.80266 5.48115 6.76004
269 1 -1.1104 9.47012 5.69969 6.6464
7996 2 2.2208 5.16112 -4.18062 5.18917
7995 2 2.2208 2.4788 -4.21157 2.31479
17300 2 2.2208 13.6227 -4.22431 2.23384
106 2 2.2208 5.34207 18.1945 5.19692
107 1 -1.1104 1.02982 13.9898 1.1002
109 1 -1.1104 1.12253 19.8134 1.05401
113 1 -1.1104 1.10223 13.9411 3.99521
114 1 -1.1104 1.09327 19.6112 3.74495
116 1 -1.1104 1.17366 16.8103 1.03288
119 2 2.2208 5.26858 15.4056 2.56852
120 2 2.2208 5.30957 20.9319 2.39271
121 1 -1.1104 0.964487 16.7813 3.71632
123 1 -1.1104 3.88575 14.0637 1.03789
125 1 -1.1104 3.98093 19.7162 1.02329
127 2 2.2208 2.53849 18.1844 2.41138
128 1 -1.1104 3.8528 13.9089 3.89206
129 1 -1.1104 3.94743 19.7054 3.94776
130 2 2.2208 2.53325 15.3271 5.38557
131 2 2.2208 2.54511 21.1097 5.33743
132 1 -1.1104 3.85155 16.842 1.08794
134 1 -1.1104 3.80867 16.81 3.94623
138 1 -1.1104 6.74132 19.5685 1.05597
115 1 -1.1104 6.64871 14.011 3.95923
122 1 -1.1104 6.61812 16.6727 3.8506
124 1 -1.1104 3.99845 13.9213 6.68936
108 1 -1.1104 1.19736 13.9098 6.7751
302 1 -1.1104 1.04133 19.6244 6.53124
9004 2 2.2208 13.6387 -1.50908 -0.412915
7998 2 2.2208 7.95266 -4.27788 2.48258
297 1 -1.1104 6.57532 13.9877 12.4283
139 1 -1.1104 6.78188 19.6326 3.88543
140 1 -1.1104 6.72057 16.7141 1.05108
110 1 -1.1104 6.68021 13.9848 1.09121
141 2 2.2208 10.9133 18.2705 5.35608
142 1 -1.1104 12.0369 14.0283 0.874079
144 1 -1.1104 12.4113 19.654 1.08399
146 1 -1.1104 12.3237 14.0883 3.81395
147 1 -1.1104 12.2706 19.7518 3.89356
148 1 -1.1104 12.4271 16.7824 1.20591
150 2 2.2208 10.8964 15.3607 2.4497
151 2 2.2208 10.8706 21.0141 2.42658
152 1 -1.1104 12.1362 16.8623 3.83401
153 1 -1.1104 9.38663 14.0154 1.08255
155 1 -1.1104 9.56613 19.6305 1.04144
157 2 2.2208 8.16506 18.2443 2.48407
158 1 -1.1104 9.38909 14.0225 3.97295
159 1 -1.1104 9.52392 19.7338 3.737
160 2 2.2208 8.06569 15.3589 5.32827
161 2 2.2208 8.30212 21.0407 5.22261
162 1 -1.1104 9.66428 16.9193 1.19002
164 1 -1.1104 9.33266 16.8412 3.99329
163 1 -1.1104 9.56113 16.816 6.62975
143 1 -1.1104 12.3103 14.1311 6.62449
149 1 -1.1104 12.3318 16.9259 6.63425
145 1 -1.1104 12.434 19.6635 6.64745
83 1 -1.1104 12.3924 16.876 12.3235
165 2 2.2208 8.14542 18.2572 7.90361
289 1 -1.1104 6.88299 16.9587 9.46813
8633 2 2.2208 -0.278011 9.78608 8.21701
174 1 -1.1104 3.86653 -0.341159 6.45859
8708 2 2.2208 -0.274494 21.097 2.46585
311 2 2.2208 10.829 -1.35679 13.625
296 1 -1.1104 6.81986 19.6358 12.3853
330 2 2.2208 5.45871 18.1846 -0.394203
593 2 2.2208 10.8073 1.27775 -0.312973
170 1 -1.1104 1.10988 0.0247415 6.71585
175 2 2.2208 5.15852 1.456 10.75
176 1 -1.1104 1.01359 -2.72801 12.1243
177 1 -1.1104 1.07406 2.75371 12.1462
180 1 -1.1104 0.981732 -2.84404 9.37819
181 1 -1.1104 0.90406 2.87046 9.44492
184 1 -1.1104 0.918685 0.0157379 12.1663
186 2 2.2208 5.25437 -1.48937 7.98889
187 2 2.2208 5.2888 4.22316 8.01633
188 1 -1.1104 0.982167 -0.0571267 9.47746
190 1 -1.1104 3.78423 -2.88069 12.1743
191 1 -1.1104 3.76688 2.60384 12.2696
192 2 2.2208 2.36355 1.36523 8.09615
193 1 -1.1104 3.85543 -2.92741 9.36685
194 1 -1.1104 3.82828 2.69817 9.43779
195 2 2.2208 2.41098 -1.4836 10.7836
196 2 2.2208 2.48362 4.18745 10.8671
197 1 -1.1104 3.75906 -0.146775 12.0877
198 1 -1.1104 3.73513 -0.070164 9.35188
182 1 -1.1104 6.69158 -2.96008 9.36218
178 1 -1.1104 6.63836 -2.72829 12.1442
135 1 -1.1104 12.2631 16.7871 9.50758
156 1 -1.1104 9.60005 19.713 6.61122
154 1 -1.1104 9.64323 13.9493 6.82518
207 1 -1.1104 12.3016 -0.0487936 6.66863
179 1 -1.1104 6.54071 2.8895 12.2687
185 1 -1.1104 6.60295 0.0953117 12.111
169 1 -1.1104 6.56081 2.79049 6.72774
189 1 -1.1104 6.49482 0.11166 9.37093
183 1 -1.1104 6.54967 2.97479 9.48949
211 2 2.2208 10.9543 1.48098 10.7829
212 1 -1.1104 12.1955 -2.62524 12.0832
213 1 -1.1104 12.3247 2.78904 12.1432
214 1 -1.1104 12.1839 -2.75852 9.26569
215 1 -1.1104 12.499 2.86477 9.30808
216 1 -1.1104 12.2398 -0.0213119 12.2814
217 2 2.2208 10.8807 -1.4313 8.18636
218 2 2.2208 10.8374 4.1589 8.04302
219 1 -1.1104 12.3831 0.081211 9.45011
220 1 -1.1104 9.39642 -2.81795 12.277
221 1 -1.1104 9.37417 2.65055 12.0501
222 2 2.2208 8.04171 1.41108 8.1213
223 1 -1.1104 9.4849 -2.7178 9.46238
224 1 -1.1104 9.44723 2.93805 9.39133
225 2 2.2208 8.04848 -1.35462 10.7992
226 2 2.2208 7.95889 4.22116 10.7484
227 1 -1.1104 9.46938 0.0407951 12.1914
228 1 -1.1104 9.37402 0.133072 9.39136
137 1 -1.1104 9.53505 19.7988 12.3705
230 2 2.2208 8.14276 15.4328 10.8961
594 2 2.2208 8.00761 -1.38336 -0.34168
78 1 -1.1104 3.94462 11.134 6.65674
238 1 -1.1104 3.77689 8.30267 6.60382
62 1 -1.1104 1.19124 11.1745 6.66984
240 2 2.2208 5.41195 6.96208 11.0105
241 2 2.2208 5.24431 12.6513 10.9306
242 1 -1.1104 1.05764 8.3255 12.3303
244 1 -1.1104 0.949976 8.45168 9.59054
246 1 -1.1104 1.07225 5.4263 12.4352
247 1 -1.1104 0.968324 11.2342 12.2797
250 2 2.2208 5.2937 9.79517 8.13354
251 1 -1.1104 1.141 5.77318 9.5648
252 1 -1.1104 1.11993 11.1356 9.41527
255 1 -1.1104 3.91387 8.45775 12.31
256 2 2.2208 2.45612 7.00027 8.13748
257 2 2.2208 2.57905 12.5632 8.10604
258 1 -1.1104 3.83348 8.37 9.44864
259 2 2.2208 2.40455 9.84237 10.9283
260 1 -1.1104 3.88122 5.58883 12.2009
261 1 -1.1104 3.7974 11.2355 12.4907
262 1 -1.1104 3.922 5.66744 9.33921
263 1 -1.1104 3.94217 11.2365 9.65435
235 1 -1.1104 6.57053 8.37572 6.63764
105 2 2.2208 11.0169 21.1184 7.97867
8626 2 2.2208 -0.238699 12.5601 10.9141
28 1 -1.1104 9.55947 16.8674 9.47364
81 1 -1.1104 12.4345 19.6432 9.36767
266 1 -1.1104 12.3356 5.64706 6.56247
50 1 -1.1104 12.3241 19.6634 12.1679
245 1 -1.1104 6.75398 8.51478 9.44276
249 1 -1.1104 6.69912 11.1404 12.2754
253 1 -1.1104 6.60995 5.62639 9.50723
243 1 -1.1104 6.66487 8.37545 12.3209
254 1 -1.1104 6.73179 11.2897 9.46954
267 1 -1.1104 9.51817 8.40793 6.61818
101 1 -1.1104 9.53897 11.0823 6.61766
248 1 -1.1104 6.6767 5.65098 12.3188
264 1 -1.1104 9.63697 11.0979 9.52911
268 1 -1.1104 9.39112 5.6997 9.37612
270 1 -1.1104 9.52634 11.2319 12.2437
271 1 -1.1104 9.31323 5.44321 12.2085
272 2 2.2208 8.1223 9.75149 10.9359
273 1 -1.1104 9.60863 8.38315 9.56647
274 2 2.2208 8.15942 12.644 8.05884
275 2 2.2208 8.09917 6.97635 8.07009
276 2 2.2208 10.9212 7.00821 10.8652
277 2 2.2208 10.9141 12.6622 10.9224
278 1 -1.1104 12.3471 8.32586 12.1549
279 1 -1.1104 12.3276 8.42046 9.55273
280 1 -1.1104 12.1595 5.63198 12.3451
281 1 -1.1104 12.3897 11.048 12.1199
282 2 2.2208 10.9417 9.87462 8.10978
283 1 -1.1104 12.2646 5.60152 9.53277
284 1 -1.1104 12.3779 11.2805 9.3577
285 1 -1.1104 9.48518 8.34232 12.2368
8431 2 2.2208 -0.28048 21.0704 8.1658
111 1 -1.1104 6.75991 13.8153 6.73448
204 1 -1.1104 6.75058 16.6746 12.3341
112 1 -1.1104 6.75452 19.4096 6.55332
8406 2 2.2208 -0.247752 18.3369 10.9788
290 1 -1.1104 6.81446 14.0446 9.50721
126 1 -1.1104 3.96471 19.5479 6.71582
133 1 -1.1104 3.98213 16.7248 6.69909
117 1 -1.1104 1.13153 16.7978 6.72712
301 1 -1.1104 3.98543 19.6312 9.52859
51 2 2.2208 2.53585 15.4226 10.8831
52 2 2.2208 2.66194 21.0833 10.832
202 1 -1.1104 4.00821 16.8199 12.2872
203 1 -1.1104 1.17435 16.8671 12.2473
231 1 -1.1104 3.88531 14.0765 9.45532
232 1 -1.1104 4.10118 16.9128 9.53027
233 2 2.2208 2.48814 18.1137 8.12661
286 1 -1.1104 3.76121 19.6582 12.3079
287 1 -1.1104 3.93787 14.037 12.2905
291 1 -1.1104 1.11765 19.524 9.40056
292 1 -1.1104 1.20848 16.6044 9.41555
293 2 2.2208 5.405 20.9083 8.09738
294 1 -1.1104 1.06954 13.8308 9.42195
295 2 2.2208 5.45288 15.4036 8.10275
298 1 -1.1104 1.05124 19.5917 12.2674
299 1 -1.1104 1.21796 14.0027 12.2154
300 2 2.2208 5.405 18.1883 10.8852
288 1 -1.1104 6.84861 19.5603 9.36029
199 1 -1.1104 9.54638 13.9523 9.65275
118 1 -1.1104 6.70116 16.6337 6.58654
53 1 -1.1104 12.3416 14.1354 9.36038
104 2 2.2208 10.9288 15.4224 8.09768
29 1 -1.1104 9.56897 16.9678 12.1261
49 1 -1.1104 12.3402 14.1033 12.3242
30 2 2.2208 8.2831 21.0891 10.8439
8727 2 2.2208 -0.362508 4.1429 13.6181
8707 2 2.2208 13.6333 -1.54452 5.18034
319 2 2.2208 2.58899 18.1455 13.722
8744 2 2.2208 -0.268389 20.9691 13.6155
312 2 2.2208 10.8093 4.2205 13.5269
317 2 2.2208 10.9862 9.7329 13.5674
314 2 2.2208 5.22618 9.83097 13.6608
563 2 2.2208 5.2656 1.49266 -0.26239
310 2 2.2208 8.07673 1.4142 13.4765
308 2 2.2208 11.0214 18.329 -0.260766
328 2 2.2208 10.7931 6.96661 -0.240904
313 2 2.2208 2.53528 7.01871 13.7036
595 2 2.2208 7.94132 4.16726 -0.302153
8745 2 2.2208 13.5693 4.08187 -0.358487
336 2 2.2208 5.29762 1.39171 16.2639
337 1 -1.1104 1.0079 -2.89046 17.7773
338 1 -1.1104 0.971776 2.63092 17.877
341 1 -1.1104 0.931619 -2.79421 14.8618
343 1 -1.1104 0.97645 2.69078 15.1048
349 1 -1.1104 1.02925 -0.105852 18.0421
351 2 2.2208 5.27322 -1.49467 19.1472
352 2 2.2208 5.17857 4.1455 19.2189
353 1 -1.1104 0.974425 -0.132778 15.0686
357 1 -1.1104 3.81444 -2.90376 17.7911
358 1 -1.1104 3.71186 2.72381 17.8868
359 2 2.2208 2.35341 1.29729 19.2463
360 1 -1.1104 3.99145 -2.89412 14.9538
362 1 -1.1104 3.91725 2.6392 15.0777
364 2 2.2208 2.37898 -1.43312 16.4698
365 2 2.2208 2.31372 4.23313 16.5295
366 1 -1.1104 3.73454 -0.0167091 17.7786
367 1 -1.1104 3.69618 -0.0896651 14.8958
339 1 -1.1104 6.6202 -2.79187 17.8737
8086 2 2.2208 2.33701 -4.25319 24.8935
340 1 -1.1104 6.56277 2.59288 17.7998
350 1 -1.1104 6.54617 -0.0731107 17.7256
348 1 -1.1104 6.77485 2.8255 20.6675
356 1 -1.1104 6.59596 -0.146865 20.5769
8087 2 2.2208 5.0958 -4.30266 22.0388
354 1 -1.1104 1.03315 -0.0336616 20.654
633 2 2.2208 -0.301073 12.46 22.0763
8123 2 2.2208 10.6973 -4.15886 16.5065
8122 2 2.2208 8.00636 -4.20203 19.2141
8825 2 2.2208 -0.264125 15.3848 24.9122
347 1 -1.1104 6.73911 2.85581 14.94
9002 2 2.2208 13.5416 -1.36821 22.1175
369 2 2.2208 8.06348 21.1631 22.0712
17380 2 2.2208 13.5362 -4.18979 19.214
355 1 -1.1104 6.6048 0.0261074 14.8352
345 1 -1.1104 6.7325 -2.70279 14.9867
379 2 2.2208 10.7558 1.33001 16.5166
380 1 -1.1104 12.088 -2.81161 17.7758
381 1 -1.1104 12.285 2.83184 17.7966
382 1 -1.1104 12.2502 -2.72628 15.0147
384 1 -1.1104 12.1469 2.73565 15.0071
386 1 -1.1104 12.1273 -0.0110522 17.9489
387 2 2.2208 10.7716 -1.46489 19.3019
388 2 2.2208 10.8385 4.13476 19.2152
389 1 -1.1104 12.2021 0.0577151 15.131
391 1 -1.1104 9.3958 -2.94439 18.012
392 1 -1.1104 9.40097 2.76522 17.8594
393 2 2.2208 7.86725 1.21656 19.2457
394 1 -1.1104 9.43876 -2.8239 15.0708
396 1 -1.1104 9.53326 2.74407 14.9704
398 2 2.2208 8.14202 -1.38108 16.363
400 1 -1.1104 9.4593 -0.0910475 17.765
401 1 -1.1104 9.39586 0.00779165 14.9833
399 2 2.2208 8.05444 4.24577 16.4686
402 1 -1.1104 9.3247 -0.179049 20.7238
383 1 -1.1104 12.0551 -2.95351 20.5898
397 1 -1.1104 9.59554 2.70463 20.6335
390 1 -1.1104 12.0432 0.0484063 20.7702
395 1 -1.1104 9.39777 -2.89546 20.7767
374 1 -1.1104 6.73643 16.798 23.3749
8866 2 2.2208 -0.161487 12.5071 16.4867
8860 2 2.2208 13.6319 7.03353 19.2207
412 2 2.2208 5.17234 6.97128 16.4993
413 2 2.2208 5.36553 12.6631 16.5066
414 1 -1.1104 0.948536 8.50273 17.9307
416 1 -1.1104 1.04601 8.398 15.0906
420 1 -1.1104 0.974712 5.48899 17.7541
421 1 -1.1104 1.06156 11.1877 17.907
424 2 2.2208 5.23118 9.65982 19.3598
425 1 -1.1104 1.08392 5.50048 15.0464
427 1 -1.1104 1.17721 11.3608 15.0752
433 1 -1.1104 3.75046 8.36389 17.8369
434 2 2.2208 2.38966 6.87917 19.2608
435 2 2.2208 2.5486 12.6625 19.2883
436 1 -1.1104 3.79543 8.49917 15.168
438 2 2.2208 2.42355 9.92221 16.5262
439 1 -1.1104 3.73837 5.55481 17.8571
440 1 -1.1104 3.98413 11.2204 17.9834
441 1 -1.1104 3.8885 5.56436 14.9917
443 1 -1.1104 3.94952 11.2963 15.2072
316 2 2.2208 8.0076 6.92339 13.7653
431 1 -1.1104 6.67895 11.2593 14.9771
8084 2 2.2208 7.87747 -4.22101 24.8107
8736 2 2.2208 -0.303693 9.73556 13.6633
417 1 -1.1104 0.892653 8.24092 20.7419
428 1 -1.1104 1.13855 11.1579 20.5812
426 1 -1.1104 1.04677 5.41702 20.5878
8786 2 2.2208 13.5995 -1.39986 16.451
8970 2 2.2208 -0.21387 20.8867 19.3337
423 1 -1.1104 6.80899 11.146 17.8049
415 1 -1.1104 6.55087 8.32641 17.8873
418 1 -1.1104 6.55934 8.43044 14.9997
422 1 -1.1104 6.58777 5.57508 17.8523
429 1 -1.1104 6.60683 5.64615 15.0849
448 2 2.2208 10.8253 7.05378 16.5113
449 2 2.2208 10.8585 12.6195 16.468
450 1 -1.1104 12.1368 8.47074 17.9224
451 1 -1.1104 12.146 8.43101 15.08
453 1 -1.1104 12.2012 5.73992 17.8315
454 1 -1.1104 12.234 11.0692 17.8726
455 2 2.2208 10.8228 9.63498 19.3903
456 1 -1.1104 12.2165 5.49386 14.9985
458 1 -1.1104 12.3282 11.2455 14.8079
460 1 -1.1104 9.4316 8.2982 17.8138
461 2 2.2208 7.94144 6.98517 19.2587
462 2 2.2208 8.17499 12.6435 19.3492
463 1 -1.1104 9.47105 8.39401 15.0562
465 2 2.2208 8.03983 9.86067 16.3665
466 1 -1.1104 9.41003 5.6632 17.7565
467 1 -1.1104 9.37154 11.2473 17.9241
468 1 -1.1104 9.36639 5.60117 15.0908
470 1 -1.1104 9.58336 11.1879 15.0205
419 1 -1.1104 6.5751 8.33311 20.7211
469 1 -1.1104 9.35935 5.58472 20.734
464 1 -1.1104 9.41649 8.41706 20.8578
459 1 -1.1104 12.2878 11.2232 20.805
457 1 -1.1104 12.0221 5.56696 20.6229
432 1 -1.1104 6.97067 11.0544 20.624
8992 2 2.2208 13.668 4.15356 21.9865
8900 2 2.2208 -0.354818 9.69139 19.3593
8972 2 2.2208 -0.117818 18.278 16.4678
475 2 2.2208 5.33046 18.1161 16.5126
476 1 -1.1104 1.17125 13.997 17.6812
477 1 -1.1104 1.17983 19.6238 17.9257
480 1 -1.1104 1.0677 14.1137 14.9485
482 1 -1.1104 1.17919 19.6134 15.0203
488 1 -1.1104 1.28636 16.8272 17.9351
490 2 2.2208 5.35727 15.404 19.2315
491 2 2.2208 5.36586 20.9119 19.3047
492 1 -1.1104 1.35353 16.803 15.2231
496 1 -1.1104 3.92064 14.0749 17.8032
497 1 -1.1104 3.86629 19.4516 17.8378
498 2 2.2208 2.54133 18.1901 19.2514
499 1 -1.1104 3.91754 14.0291 15.0893
501 1 -1.1104 3.95848 19.6983 14.9209
503 2 2.2208 2.5839 15.4181 16.4509
504 2 2.2208 2.58389 21.1762 16.4855
505 1 -1.1104 4.02613 16.8035 17.9007
506 1 -1.1104 4.07875 16.9912 15.0798
493 1 -1.1104 0.964772 16.8269 20.7172
494 1 -1.1104 6.79625 16.7322 14.9903
8971 2 2.2208 -0.366869 15.4877 19.2217
500 1 -1.1104 3.95868 14.0596 20.734
485 1 -1.1104 6.7308 13.8587 20.7329
315 2 2.2208 2.63373 12.731 13.6883
535 2 2.2208 8.13553 18.2906 24.8593
603 1 -1.1104 12.222 16.8876 26.3435
370 1 -1.1104 9.59199 16.8874 23.4975
307 2 2.2208 8.17499 15.5042 27.7033
489 1 -1.1104 6.87836 16.7566 17.8113
478 1 -1.1104 6.78038 13.9966 17.9758
486 1 -1.1104 6.77836 19.5733 15.2482
484 1 -1.1104 6.81677 14.0559 15.2172
479 1 -1.1104 6.71069 19.5807 17.9065
511 2 2.2208 10.9711 18.2649 16.5392
512 1 -1.1104 12.522 13.9188 17.8355
513 1 -1.1104 12.2799 19.5393 17.9378
514 1 -1.1104 12.3973 13.9132 14.9774
516 1 -1.1104 12.3677 19.7466 15.2049
518 1 -1.1104 12.4512 16.7831 17.8492
519 2 2.2208 11.0047 15.4238 19.2179
520 2 2.2208 11.0572 21.0454 19.2765
521 1 -1.1104 12.5546 16.743 15.0054
523 1 -1.1104 9.58975 14.0904 17.8146
524 1 -1.1104 9.5493 19.7064 17.9075
525 2 2.2208 8.0756 18.2456 19.1968
526 1 -1.1104 9.57204 14.0398 14.9838
528 1 -1.1104 9.60751 19.5681 15.1199
530 2 2.2208 8.20394 15.4589 16.4701
531 2 2.2208 8.24761 21.02 16.4981
532 1 -1.1104 9.69316 16.9291 17.9115
533 1 -1.1104 9.72525 16.7854 15.0164
571 1 -1.1104 12.3864 19.6076 23.3595
534 1 -1.1104 9.63258 16.8729 20.7049
515 1 -1.1104 12.5282 14.2156 20.6088
527 1 -1.1104 9.64525 14.0147 20.6056
529 1 -1.1104 9.41725 19.7694 20.8062
517 1 -1.1104 12.4467 19.8479 20.4729
487 1 -1.1104 6.63054 19.6059 20.6687
522 1 -1.1104 12.4756 17.0145 20.7833
566 1 -1.1104 12.4319 14.0288 23.5071
363 1 -1.1104 3.82994 2.77371 20.7073
601 2 2.2208 10.9872 15.4995 24.8538
8085 2 2.2208 10.9326 -4.19571 22.018
346 1 -1.1104 6.55344 -2.84022 20.5796
342 1 -1.1104 0.978992 -2.77765 20.677
368 1 -1.1104 3.98135 0.0380832 20.548
361 1 -1.1104 3.62625 -2.8471 20.57
344 1 -1.1104 1.10231 2.61207 20.6449
539 2 2.2208 5.26093 1.45294 22.0854
540 1 -1.1104 0.82948 -2.98063 23.5013
541 1 -1.1104 0.942748 2.75809 23.5506
544 1 -1.1104 0.996271 -2.834 26.2468
545 1 -1.1104 0.966666 2.77766 26.3687
548 1 -1.1104 1.05465 -0.0375689 23.3661
550 2 2.2208 5.14223 -1.50594 24.8517
552 1 -1.1104 1.01316 -0.0881157 26.1609
554 1 -1.1104 3.68123 -2.81179 23.4916
555 1 -1.1104 3.7006 2.79483 23.4717
556 2 2.2208 2.50631 1.43274 24.8567
557 1 -1.1104 3.61866 -2.92193 26.2366
558 1 -1.1104 3.83884 2.80941 26.3669
559 2 2.2208 2.47726 -1.42215 21.9895
560 2 2.2208 2.34257 4.17957 22.0354
561 1 -1.1104 3.78746 -0.0215127 23.4106
562 1 -1.1104 3.74093 -0.0545324 26.2279
551 2 2.2208 5.26406 4.20202 24.844
542 1 -1.1104 6.54335 -2.75936 23.3474
546 1 -1.1104 6.51563 -2.7961 26.3647
375 2 2.2208 8.21193 15.468 22.0886
410 1 -1.1104 6.88457 14.0092 23.5132
537 1 -1.1104 9.77568 14.1582 23.2688
385 1 -1.1104 12.4009 2.73143 20.6186
8785 2 2.2208 13.5853 4.18481 16.5556
553 1 -1.1104 6.67004 0.0392963 26.2516
543 1 -1.1104 6.4672 2.82758 23.372
549 1 -1.1104 6.53619 0.0477828 23.4725
547 1 -1.1104 6.65269 2.79049 26.1917
575 2 2.2208 10.889 1.3338 22.1414
576 1 -1.1104 12.1301 -2.85834 23.4504
577 1 -1.1104 12.2241 2.73839 23.6277
578 1 -1.1104 12.0867 -2.71908 26.2914
579 1 -1.1104 12.1978 2.78263 26.3534
580 1 -1.1104 12.1671 -0.0479317 23.5989
581 2 2.2208 10.7572 -1.45489 24.8972
583 1 -1.1104 12.287 -0.0913901 26.4133
584 1 -1.1104 9.29047 -2.82016 23.5555
585 1 -1.1104 9.40823 2.7572 23.4177
586 2 2.2208 7.97632 1.41108 24.7296
587 1 -1.1104 9.2754 -2.96025 26.2167
588 1 -1.1104 9.43588 2.798 26.3094
589 2 2.2208 7.86963 -1.47725 22.1095
590 2 2.2208 8.04654 4.10018 22.1632
591 1 -1.1104 9.44377 -0.0454231 23.5812
592 1 -1.1104 9.43202 0.0606394 26.217
582 2 2.2208 10.8552 4.21409 24.9185
474 1 -1.1104 6.68026 16.901 26.2457
405 1 -1.1104 9.51793 14.0222 26.2655
509 1 -1.1104 6.76963 14.1059 26.1928
444 1 -1.1104 3.90263 11.1135 20.8576
437 1 -1.1104 3.79767 8.3602 20.5938
442 1 -1.1104 3.86961 5.55432 20.7019
604 2 2.2208 5.13834 6.96309 22.023
605 2 2.2208 5.38015 12.6461 22.1476
606 1 -1.1104 1.00903 8.32648 23.3815
608 1 -1.1104 1.20975 8.21495 26.3338
610 1 -1.1104 0.929771 5.61433 23.4609
611 1 -1.1104 0.957982 11.0455 23.5337
614 2 2.2208 5.27419 9.6863 24.7917
615 1 -1.1104 1.01766 5.63178 26.365
616 1 -1.1104 0.995114 10.9886 26.3372
619 1 -1.1104 3.86432 8.39703 23.3922
620 2 2.2208 2.44462 6.96741 24.951
621 2 2.2208 2.40845 12.5276 24.8506
622 1 -1.1104 3.94968 8.35098 26.2625
623 2 2.2208 2.28792 9.77517 22.1274
624 1 -1.1104 3.6542 5.60014 23.487
625 1 -1.1104 3.81217 11.2627 23.5214
626 1 -1.1104 3.88647 5.51252 26.2411
627 1 -1.1104 3.82544 11.1726 26.1977
613 1 -1.1104 6.63169 11.1473 23.537
406 1 -1.1104 6.68612 19.6051 26.3161
600 1 -1.1104 12.3048 17.003 23.5207
430 1 -1.1104 6.59105 5.61613 20.5677
609 1 -1.1104 6.719 8.36775 26.2914
618 1 -1.1104 6.72195 11.3719 26.2816
471 1 -1.1104 9.62239 11.0499 20.8438
452 1 -1.1104 12.2639 8.34857 20.6914
607 1 -1.1104 6.58454 8.44688 23.5304
612 1 -1.1104 6.6427 5.51974 23.4623
617 1 -1.1104 6.61857 5.65733 26.3087
565 1 -1.1104 9.38101 8.29844 23.5617
567 1 -1.1104 12.3781 11.2276 26.1495
568 1 -1.1104 12.2969 5.62279 26.311
569 2 2.2208 10.9998 9.71055 24.7147
628 1 -1.1104 12.4657 11.179 23.441
629 1 -1.1104 12.3297 5.54477 23.4615
631 1 -1.1104 12.3864 8.4019 26.1201
634 1 -1.1104 12.2313 8.36271 23.2187
635 1 -1.1104 9.64879 11.1525 26.2636
636 1 -1.1104 9.45728 5.64365 26.2649
637 1 -1.1104 9.63143 11.2173 23.57
638 1 -1.1104 9.48301 5.63523 23.5716
639 2 2.2208 8.14858 9.80906 22.2046
640 1 -1.1104 9.51083 8.30541 26.295
641 2 2.2208 8.10934 12.6571 24.971
642 2 2.2208 7.96835 6.91385 24.9425
643 2 2.2208 10.7517 6.9015 22.1299
644 2 2.2208 11.0276 12.6389 22.1642
371 1 -1.1104 9.43289 16.7463 26.3571
8012 2 2.2208 5.06204 -4.18928 27.6866
8783 2 2.2208 -0.217787 18.0881 22.1256
536 1 -1.1104 9.37892 19.7274 23.4519
446 1 -1.1104 6.68436 19.7099 23.4791
481 1 -1.1104 1.131 14.104 20.5552
483 1 -1.1104 1.12539 19.5238 20.7559
502 1 -1.1104 3.95754 19.6609 20.6809
507 1 -1.1104 3.96079 16.8059 20.8118
570 2 2.2208 2.5103 15.4103 22.1783
510 1 -1.1104 3.89589 19.5574 23.3895
508 1 -1.1104 3.86826 13.9912 23.4095
597 2 2.2208 2.5267 21.027 22.0987
599 1 -1.1104 1.10292 16.6898 23.5175
598 1 -1.1104 3.86485 16.7845 23.5253
376 1 -1.1104 3.95083 13.9838 26.2344
377 1 -1.1104 3.93151 16.6151 26.2613
378 2 2.2208 2.37859 18.1855 24.9385
403 1 -1.1104 3.82581 19.6244 26.299
407 2 2.2208 5.22982 18.2064 22.1428
408 1 -1.1104 0.947078 14.0326 23.5495
409 1 -1.1104 1.16406 19.5367 23.456
411 2 2.2208 5.30967 15.3604 24.8315
445 2 2.2208 5.32197 20.996 24.8964
447 1 -1.1104 1.24803 14.0123 26.3275
472 1 -1.1104 1.03807 16.6849 26.3106
473 1 -1.1104 1.09855 19.6731 26.2505
8784 2 2.2208 -0.270048 21.018 24.8904
602 2 2.2208 11.0486 21.0479 24.8522
404 1 -1.1104 9.48129 19.4285 26.3929
572 1 -1.1104 12.4456 14.025 26.1476
495 1 -1.1104 6.77902 16.725 20.6178
538 2 2.2208 10.9143 18.302 22.118
596 1 -1.1104 12.5049 19.7483 26.2598
8722 2 2.2208 13.6691 9.76619 27.571
309 2 2.2208 8.23269 20.9298 27.6243
8743 2 2.2208 -0.151766 15.4457 13.598
8977 2 2.2208 13.593 1.40551 24.943
332 2 2.2208 5.20185 6.98699 27.6765
632 2 2.2208 -0.333671 9.68697 25.03
327 2 2.2208 8.05625 9.7753 27.6389
318 2 2.2208 8.12358 12.6489 13.7196
630 2 2.2208 5.23393 12.6301 27.6496
564 2 2.2208 2.36409 -1.32514 27.6382
326 2 2.2208 10.8717 12.5019 27.589
320 2 2.2208 5.45415 21.0089 13.8416
331 2 2.2208 2.56667 21.2131 27.6461
329 2 2.2208 2.37172 15.3369 27.6692
305 2 2.2208 2.37556 1.15384 13.622
324 2 2.2208 8.26653 18.3062 13.6969
321 2 2.2208 5.34747 15.397 13.7255
325 2 2.2208 2.44228 4.14467 27.7133
8720 2 2.2208 13.6694 1.45217 13.6452
322 2 2.2208 11.0695 21.13 13.7578
306 2 2.2208 5.25774 4.10797 13.7276
8009 2 2.2208 10.7671 -4.26741 27.5354
333 2 2.2208 2.45615 9.71575 27.673
645 2 2.2208 5.51824 23.7621 5.16623
646 2 2.2208 5.53528 29.3794 5.30866
647 1 -1.1104 1.16341 25.227 1.07236
648 1 -1.1104 1.20102 25.3266 3.87079
649 1 -1.1104 1.16486 22.5197 1.03676
650 1 -1.1104 1.04901 28.0375 1.0444
651 2 2.2208 5.41873 26.5989 2.48984
652 1 -1.1104 1.13425 22.404 3.88017
653 1 -1.1104 1.20701 28.0506 3.97952
654 1 -1.1104 4.12576 25.1687 0.980394
655 2 2.2208 2.5868 23.8562 2.49754
656 2 2.2208 2.61587 29.4534 2.56366
657 1 -1.1104 4.1061 25.2557 3.81274
658 2 2.2208 2.67322 26.6752 5.37739
659 1 -1.1104 3.9315 22.6248 1.055
660 1 -1.1104 3.90608 27.9792 1.29939
661 1 -1.1104 3.98696 22.4475 3.79972
662 1 -1.1104 4.06749 28.0516 4.0661
668 1 -1.1104 6.78953 22.4311 0.853367
9419 2 2.2208 -0.194972 37.9437 8.05121
670 1 -1.1104 6.71341 22.362 3.86163
9405 2 2.2208 -0.133463 29.3556 5.40623
9345 2 2.2208 -0.246248 35.0768 10.9986
665 2 2.2208 -0.336818 26.7101 2.58144
9407 2 2.2208 -0.249921 23.8842 5.40218
792 1 -1.1104 3.91299 25.1714 6.56873
791 1 -1.1104 7.04183 28.0711 6.65936
715 2 2.2208 -0.0987074 32.1604 2.54425
1328 1 -1.1104 12.368 47.7127 3.99833
943 2 2.2208 8.16788 46.2134 8.21004
667 1 -1.1104 6.88961 25.2222 3.90822
671 1 -1.1104 6.86519 27.9089 3.92268
669 1 -1.1104 6.73303 27.9802 1.17812
666 1 -1.1104 6.95264 25.3001 1.14929
672 2 2.2208 11.0359 23.9618 5.27032
673 2 2.2208 11.1322 29.5481 5.24514
674 1 -1.1104 12.343 25.2226 0.897094
675 1 -1.1104 12.3168 25.3846 3.80367
676 1 -1.1104 12.2117 22.2991 0.988263
677 1 -1.1104 12.3273 28.0315 0.932671
678 2 2.2208 10.8873 26.8009 2.43418
679 1 -1.1104 12.3165 22.507 3.66211
680 1 -1.1104 12.4053 28.1429 3.768
681 1 -1.1104 9.55452 25.2817 0.950954
682 2 2.2208 8.21614 23.7625 2.34939
683 2 2.2208 8.24105 29.4469 2.35471
684 1 -1.1104 9.64672 25.3275 3.82158
685 2 2.2208 8.26618 26.6031 5.31305
686 1 -1.1104 9.41661 22.3528 0.832247
687 1 -1.1104 9.48875 28.0904 0.932126
688 1 -1.1104 9.56495 22.4109 3.8249
689 1 -1.1104 9.61246 28.0756 3.91371
824 1 -1.1104 9.80913 28.0735 6.7584
690 1 -1.1104 12.4173 42.045 12.3812
822 1 -1.1104 9.6448 25.1662 6.69419
716 1 -1.1104 9.63495 41.9289 6.61897
1034 2 2.2208 -0.198503 40.6013 -0.262157
693 2 2.2208 5.55537 35.1938 5.43357
694 1 -1.1104 1.26507 30.8288 1.00599
695 1 -1.1104 1.30269 36.3523 1.10972
697 1 -1.1104 1.27843 30.8496 3.86474
698 1 -1.1104 1.16923 36.4232 4.01651
700 1 -1.1104 1.29776 33.6108 1.1063
701 2 2.2208 5.34857 32.2873 2.4225
702 2 2.2208 5.58563 37.8275 2.60039
703 1 -1.1104 1.27437 33.7361 3.83045
705 1 -1.1104 3.95796 30.7846 0.99803
706 1 -1.1104 4.02648 36.3618 1.17233
707 2 2.2208 2.72904 34.9566 2.49016
708 1 -1.1104 4.08844 30.8167 3.84008
709 1 -1.1104 4.096 36.357 3.94837
710 2 2.2208 2.65778 32.2663 5.299
711 2 2.2208 2.63394 37.7872 5.20532
712 1 -1.1104 4.04611 33.5179 0.964482
713 1 -1.1104 4.08479 33.6175 3.80444
9420 2 2.2208 -0.157362 43.5537 8.13577
663 2 2.2208 10.9964 40.4853 10.8282
717 1 -1.1104 6.83887 30.7456 1.03074
718 1 -1.1104 6.87264 30.7317 3.74779
9411 2 2.2208 -0.163759 37.8565 2.53294
9412 2 2.2208 -0.163192 35.0129 5.35656
9282 2 2.2208 -0.226668 26.6342 8.15793
9417 2 2.2208 13.6426 46.2085 2.55332
942 1 -1.1104 9.57686 41.9902 9.54265
699 1 -1.1104 6.99073 36.4617 3.93955
696 1 -1.1104 6.90255 36.5054 1.36784
704 1 -1.1104 6.75137 33.6297 3.92484
719 1 -1.1104 6.68491 33.6681 1.03306
720 2 2.2208 11.1507 35.135 5.36268
721 1 -1.1104 12.3309 30.7474 1.123
722 1 -1.1104 12.4155 36.5392 1.02906
723 1 -1.1104 12.4888 30.8632 3.87969
724 1 -1.1104 12.5017 36.5302 3.89845
725 1 -1.1104 12.2543 33.6285 1.18114
726 2 2.2208 11.0661 32.1743 2.45043
727 2 2.2208 11.0933 37.8832 2.32963
728 1 -1.1104 12.6045 33.7939 3.89827
729 1 -1.1104 9.7063 30.9059 0.942272
730 1 -1.1104 9.72111 36.5359 1.11756
731 2 2.2208 8.25748 34.8843 2.61743
732 1 -1.1104 9.60468 30.8591 3.71443