ITEM: TIMESTEP
20000
ITEM: NUMBER OF ATOMS
17672
ITEM: BOX BOUNDS pp pp pp
-3.2054122881942965e-01 2.7660541228819465e+01
-3.7080309560850075e+00 3.3178803095608436e+02
-3.2095175211404042e-01 2.7660951752114169e+01
ITEM: ATOMS id type q x y z
1 2 2.2208 5.20578 1.90659 5.39551
2 1 -1.1104 1.04473 -2.25622 1.13516
3 1 -1.1104 1.08235 3.27759 1.11633
6 1 -1.1104 1.14404 -2.34733 3.89598
7 1 -1.1104 0.988985 3.18626 3.87661
10 1 -1.1104 1.0702 0.445721 1.09389
12 2 2.2208 5.27183 -1.02391 2.47389
13 2 2.2208 5.19329 4.62864 2.43556
14 1 -1.1104 1.14658 0.450586 3.92678
16 1 -1.1104 3.90134 -2.32588 1.10979
17 1 -1.1104 3.74793 3.20623 1.0612
18 2 2.2208 2.43463 1.8175 2.45467
19 1 -1.1104 3.8982 -2.31712 3.86162
20 1 -1.1104 3.86081 3.27361 3.89522
21 2 2.2208 2.45039 -0.914926 5.31997
22 2 2.2208 2.35749 4.65246 5.2318
23 1 -1.1104 3.9087 0.405725 0.93625
24 1 -1.1104 3.90543 0.519094 3.90641
170 1 -1.1104 0.997381 0.515268 6.74446
200 2 2.2208 -0.388183 -0.911893 8.12007
173 1 -1.1104 3.77847 3.23539 6.71001
4 1 -1.1104 6.70784 -2.52772 1.07917
204 2 2.2208 -0.329322 -3.71816 10.9098
393 2 2.2208 5.27479 7.50885 -0.256277
389 2 2.2208 8.03076 4.64436 -0.263508
401 2 2.2208 -0.221285 18.8002 -0.293796
311 2 2.2208 -0.401744 21.5321 8.15909
8 1 -1.1104 6.67017 -2.36897 3.87386
15 1 -1.1104 6.56358 0.4268 3.94103
9 1 -1.1104 6.62789 3.22385 4.03604
5 1 -1.1104 6.58559 3.2303 1.12938
11 1 -1.1104 6.72661 0.422577 1.07063
31 2 2.2208 10.8239 1.71671 5.24413
32 1 -1.1104 12.2391 -2.3402 1.08459
33 1 -1.1104 12.1925 3.2167 1.06581
34 1 -1.1104 12.2993 -2.40969 3.88438
35 1 -1.1104 12.2828 3.1203 3.93547
36 1 -1.1104 12.2836 0.373006 1.19401
37 2 2.2208 10.8709 -0.982549 2.54558
38 2 2.2208 10.8203 4.54491 2.43568
39 1 -1.1104 12.3033 0.351807 3.86166
40 1 -1.1104 9.46115 -2.3062 1.02552
41 1 -1.1104 9.44029 3.22957 1.13816
42 2 2.2208 8.03654 1.77603 2.48587
43 1 -1.1104 9.46124 -2.3463 3.96203
44 1 -1.1104 9.52659 3.11346 3.78212
45 2 2.2208 8.05159 -1.05038 5.25796
46 2 2.2208 8.06734 4.57873 5.29369
47 1 -1.1104 9.45247 0.487762 1.16537
48 1 -1.1104 9.40919 0.360375 3.89085
169 1 -1.1104 6.57978 3.21123 6.80534
168 1 -1.1104 6.66298 -2.31659 6.80192
210 1 -1.1104 9.61622 0.359631 6.80654
400 2 2.2208 10.845 13.044 -0.298199
163 1 -1.1104 9.4708 17.2292 6.70886
339 2 2.2208 13.6226 7.40754 7.94847
54 2 2.2208 5.20384 7.36405 5.25474
55 2 2.2208 5.34809 12.9791 5.39087
56 1 -1.1104 0.918209 8.96358 1.03934
58 1 -1.1104 1.08428 8.78011 3.75675
60 1 -1.1104 1.01155 6.14079 1.11917
61 1 -1.1104 1.05185 11.7975 1.10691
66 2 2.2208 5.19931 10.2852 2.44618
67 1 -1.1104 1.16507 6.01239 3.87636
68 1 -1.1104 0.987708 11.5522 3.88815
71 1 -1.1104 3.78606 8.81678 1.08154
72 2 2.2208 2.46557 7.45378 2.47773
73 2 2.2208 2.51485 13.0484 2.52957
74 1 -1.1104 3.86433 8.81349 3.90387
75 2 2.2208 2.43497 10.2849 5.28827
76 1 -1.1104 3.83719 6.02693 1.02366
77 1 -1.1104 3.78962 11.7523 1.1132
79 1 -1.1104 3.82797 5.95347 3.79996
80 1 -1.1104 3.84435 11.5775 3.87483
239 1 -1.1104 3.75427 5.99695 6.72462
65 1 -1.1104 6.59088 11.5365 6.73804
63 1 -1.1104 6.62512 6.08689 1.09614
328 1 -1.1104 12.1944 14.4215 9.48445
405 2 2.2208 2.56449 21.4883 -0.212532
236 1 -1.1104 1.03466 6.09182 6.7749
201 2 2.2208 -0.325729 1.81202 10.788
297 1 -1.1104 6.69494 14.3864 12.2842
70 1 -1.1104 6.62279 11.5692 3.90668
64 1 -1.1104 6.68845 11.6623 1.04863
59 1 -1.1104 6.62673 8.81781 3.97761
69 1 -1.1104 6.54012 5.9975 3.85276
57 1 -1.1104 6.63872 8.85039 1.13425
84 2 2.2208 10.8735 7.32132 5.29363
85 2 2.2208 10.8443 12.9624 5.28276
86 1 -1.1104 12.1031 8.76801 1.14393
87 1 -1.1104 12.2708 8.76783 4.00165
88 1 -1.1104 12.2062 6.04701 1.03595
89 1 -1.1104 12.1171 11.5321 1.15895
91 2 2.2208 10.7623 10.1884 2.56252
92 1 -1.1104 12.2293 5.87638 3.82698
93 1 -1.1104 12.2099 11.6311 3.83566
94 1 -1.1104 9.35385 8.87643 1.15274
95 2 2.2208 8.06514 7.4061 2.50786
96 2 2.2208 8.03718 13.0149 2.59868
97 1 -1.1104 9.43942 8.71846 3.89753
98 2 2.2208 8.06516 10.1415 5.40195
99 1 -1.1104 9.37227 5.96839 1.1115
100 1 -1.1104 9.3232 11.6446 1.17509
102 1 -1.1104 9.48387 5.98564 3.86655
103 1 -1.1104 9.3732 11.5681 4.01479
269 1 -1.1104 9.54504 5.83356 6.67128
267 1 -1.1104 9.44444 8.68907 6.60075
235 1 -1.1104 6.59334 8.7345 6.76988
136 2 2.2208 -0.172051 21.5924 2.54819
398 2 2.2208 10.862 7.39615 -0.301925
404 2 2.2208 5.33418 18.7004 -0.282847
106 2 2.2208 5.34233 18.683 5.19445
107 1 -1.1104 1.10535 14.4927 1.13155
109 1 -1.1104 1.0876 20.1328 1.10568
113 1 -1.1104 1.21652 14.4647 3.9295
114 1 -1.1104 1.131 20.1321 3.84945
116 1 -1.1104 1.10203 17.2955 1.01891
119 2 2.2208 5.35502 15.8663 2.49929
120 2 2.2208 5.36239 21.5324 2.59922
121 1 -1.1104 1.18181 17.3279 3.95413
123 1 -1.1104 3.93295 14.5243 1.05537
125 1 -1.1104 3.90379 20.0894 1.12116
127 2 2.2208 2.52963 18.6156 2.50054
128 1 -1.1104 3.96663 14.3357 4.00331
129 1 -1.1104 3.89568 20.0655 3.90974
130 2 2.2208 2.61912 15.9118 5.36363
131 2 2.2208 2.52732 21.4745 5.39661
132 1 -1.1104 3.90451 17.3649 0.997109
134 1 -1.1104 3.94383 17.2337 3.82118
124 1 -1.1104 3.92211 14.3663 6.75443
139 1 -1.1104 6.79119 20.113 3.89297
115 1 -1.1104 6.66131 14.4441 3.96278
122 1 -1.1104 6.72072 17.2826 3.75111
288 1 -1.1104 6.74362 20.1641 9.47689
331 2 2.2208 10.8808 18.7331 10.8981
117 1 -1.1104 1.17857 17.4586 6.72436
133 1 -1.1104 4.0523 17.1849 6.75156
334 2 2.2208 13.7313 4.48837 5.32082
145 1 -1.1104 12.2956 20.1029 6.57191
140 1 -1.1104 6.71605 17.2808 1.0034
110 1 -1.1104 6.72969 14.4753 1.1496
138 1 -1.1104 6.63565 20.118 1.1283
141 2 2.2208 10.8815 18.743 5.29803
142 1 -1.1104 12.3106 14.3919 1.10531
144 1 -1.1104 12.2295 20.1228 1.07621
146 1 -1.1104 12.416 14.492 3.89509
147 1 -1.1104 12.3706 20.1232 3.82674
148 1 -1.1104 12.3416 17.2444 1.14107
150 2 2.2208 10.869 15.8334 2.49722
151 2 2.2208 10.988 21.5188 2.4882
152 1 -1.1104 12.3066 17.3093 3.91458
153 1 -1.1104 9.53647 14.3998 1.22135
155 1 -1.1104 9.30116 20.0684 1.02312
157 2 2.2208 8.10388 18.6662 2.38227
158 1 -1.1104 9.53051 14.4491 3.93425
159 1 -1.1104 9.59192 20.1028 3.84915
160 2 2.2208 8.08333 15.9098 5.2799
161 2 2.2208 8.19833 21.5109 5.255
162 1 -1.1104 9.57772 17.2439 1.22956
164 1 -1.1104 9.50116 17.3267 3.94286
379 2 2.2208 8.03648 21.47 -0.368056
111 1 -1.1104 6.65371 14.4871 6.70325
105 2 2.2208 13.571 7.43163 2.57736
320 2 2.2208 8.03235 18.6507 8.11252
395 2 2.2208 5.31543 13.1324 -0.319688
174 1 -1.1104 3.82497 0.474683 6.66894
166 1 -1.1104 1.05925 -2.37467 6.69178
335 2 2.2208 13.5942 10.3298 5.23478
332 2 2.2208 13.6551 18.6734 8.01237
167 1 -1.1104 0.980295 3.36999 6.67818
171 1 -1.1104 6.80292 0.403859 6.68196
104 2 2.2208 13.6813 13.0165 2.41626
172 1 -1.1104 3.89611 -2.36732 6.6987
143 1 -1.1104 12.1779 14.452 6.72378
312 2 2.2208 -0.251454 18.741 10.9433
175 2 2.2208 5.17133 1.84123 10.7973
176 1 -1.1104 1.06145 -2.42623 12.3672
177 1 -1.1104 1.13402 3.17271 12.1327
180 1 -1.1104 1.01812 -2.34169 9.51288
181 1 -1.1104 1.13218 3.27906 9.44867
184 1 -1.1104 1.14005 0.340289 12.2555
186 2 2.2208 5.32129 -0.937816 8.06168
187 2 2.2208 5.16833 4.64054 8.0901
188 1 -1.1104 1.16798 0.42362 9.61121
190 1 -1.1104 3.8212 -2.33115 12.4047
191 1 -1.1104 3.83512 3.27156 12.2824
192 2 2.2208 2.40921 1.87688 8.00775
193 1 -1.1104 3.84093 -2.42421 9.46662
194 1 -1.1104 3.85595 3.23162 9.46696
195 2 2.2208 2.4944 -1.03606 10.8566
196 2 2.2208 2.48294 4.64799 10.8776
197 1 -1.1104 3.94697 0.415326 12.2624
198 1 -1.1104 3.89156 0.439525 9.33192
324 2 2.2208 10.82 21.4029 8.06956
326 1 -1.1104 12.2604 17.2822 12.2074
209 1 -1.1104 9.41301 3.10897 6.55518
208 1 -1.1104 9.48761 -2.4292 6.69209
206 1 -1.1104 12.1775 3.21636 6.73074
205 1 -1.1104 12.3415 -2.41504 6.64019
321 1 -1.1104 9.52292 20.1317 12.3334
207 1 -1.1104 12.45 0.407514 6.64904
178 1 -1.1104 6.7819 -2.3571 12.2494
182 1 -1.1104 6.64173 -2.49429 9.51654
189 1 -1.1104 6.68476 0.37339 9.40862
185 1 -1.1104 6.66446 0.425785 12.1945
179 1 -1.1104 6.56894 3.16299 12.2612
183 1 -1.1104 6.67386 3.23955 9.55719
211 2 2.2208 10.9166 1.809 10.8588
212 1 -1.1104 12.302 -2.23002 12.3337
213 1 -1.1104 12.1185 3.24876 12.2906
214 1 -1.1104 12.2848 -2.34729 9.37862
215 1 -1.1104 12.3009 3.28071 9.50968
216 1 -1.1104 12.3489 0.420295 12.2507
217 2 2.2208 10.9699 -0.979595 8.00687
218 2 2.2208 10.8805 4.58666 8.019
219 1 -1.1104 12.4234 0.422328 9.48424
220 1 -1.1104 9.52093 -2.2824 12.3034
221 1 -1.1104 9.46174 3.25429 12.1929
222 2 2.2208 8.116 1.76176 8.09274
223 1 -1.1104 9.4851 -2.38836 9.50086
224 1 -1.1104 9.45074 3.11119 9.36059
225 2 2.2208 8.08339 -0.977923 10.8223
226 2 2.2208 8.03007 4.54099 10.8153
227 1 -1.1104 9.48741 0.427328 12.2494
228 1 -1.1104 9.67094 0.355552 9.52246
325 2 2.2208 10.806 15.8847 8.07242
78 1 -1.1104 3.76562 11.5977 6.66328
327 1 -1.1104 12.3418 20.103 9.4475
403 2 2.2208 2.53165 15.8995 -0.379868
62 1 -1.1104 1.03548 11.7053 6.60093
234 1 -1.1104 1.01586 8.86762 6.63608
238 1 -1.1104 3.76801 8.79227 6.70984
240 2 2.2208 5.18579 7.37425 10.9828
241 2 2.2208 5.2736 12.9957 10.9442
242 1 -1.1104 1.11761 8.86925 12.309
244 1 -1.1104 1.11782 8.82645 9.51794
246 1 -1.1104 1.06126 6.05702 12.3851
247 1 -1.1104 1.18625 11.7424 12.2595
250 2 2.2208 5.22339 10.1964 8.07275
251 1 -1.1104 1.12775 6.12595 9.54799
252 1 -1.1104 1.11998 11.5882 9.4785
255 1 -1.1104 3.95691 8.87462 12.3476
256 2 2.2208 2.43778 7.49591 8.09891
257 2 2.2208 2.42083 13.0358 8.12655
258 1 -1.1104 3.8744 8.87885 9.50978
259 2 2.2208 2.54333 10.1892 10.9703
260 1 -1.1104 3.80112 6.01674 12.3291
261 1 -1.1104 3.88067 11.6758 12.4558
262 1 -1.1104 3.84544 6.02736 9.51499
263 1 -1.1104 3.84949 11.6376 9.63146
249 1 -1.1104 6.77397 11.5472 12.4804
254 1 -1.1104 6.61154 11.6354 9.56281
315 1 -1.1104 9.50039 17.2518 12.2289
49 2 2.2208 13.5908 1.79308 2.51477
318 1 -1.1104 9.49333 20.1914 9.55602
237 1 -1.1104 6.62415 5.9427 6.65494
266 1 -1.1104 12.3482 5.95052 6.60893
265 1 -1.1104 12.2035 8.86648 6.65429
101 1 -1.1104 9.32737 11.4822 6.78606
253 1 -1.1104 6.59848 6.09103 9.45597
245 1 -1.1104 6.58515 8.85697 9.59629
248 1 -1.1104 6.63413 5.95149 12.1968
90 1 -1.1104 12.2469 11.64 6.67286
243 1 -1.1104 6.62983 8.74913 12.3642
264 1 -1.1104 9.41936 11.5911 9.53229
268 1 -1.1104 9.41204 5.99111 9.42084
270 1 -1.1104 9.32709 11.6904 12.2416
271 1 -1.1104 9.45622 6.00914 12.1339
272 2 2.2208 7.99846 10.1159 10.9406
273 1 -1.1104 9.38833 8.81043 9.44086
274 2 2.2208 8.05483 13.0082 8.19969
275 2 2.2208 7.98939 7.35585 8.09084
276 2 2.2208 10.8257 7.3725 10.812
277 2 2.2208 10.8857 12.9894 10.9493
278 1 -1.1104 12.1503 8.79865 12.3285
279 1 -1.1104 12.2076 8.86081 9.47797
280 1 -1.1104 12.3061 5.95986 12.242
281 1 -1.1104 12.2708 11.6965 12.3376
282 2 2.2208 10.8317 10.1679 8.1091
283 1 -1.1104 12.2005 6.09778 9.3751
284 1 -1.1104 12.2342 11.6452 9.47357
285 1 -1.1104 9.46544 8.75589 12.1782
319 1 -1.1104 9.35626 14.475 9.49632
348 2 2.2208 5.30851 -0.984472 13.6783
126 1 -1.1104 3.88435 20.0256 6.63689
306 1 -1.1104 6.64979 17.2968 12.208
112 1 -1.1104 6.73307 20.0974 6.68603
118 1 -1.1104 6.70979 17.2825 6.53896
289 1 -1.1104 6.67575 17.3348 9.52119
296 1 -1.1104 6.7849 20.0599 12.2037
108 1 -1.1104 1.13456 14.457 6.71888
302 1 -1.1104 1.04116 20.1945 6.68934
310 2 2.2208 2.51199 15.9779 10.9687
309 2 2.2208 2.56811 21.5774 10.8523
308 1 -1.1104 3.90151 17.4148 12.3671
307 1 -1.1104 1.18995 17.3804 12.3298
305 1 -1.1104 3.88638 14.5011 9.6021
304 1 -1.1104 3.88649 17.2773 9.53214
303 2 2.2208 2.49749 18.7715 8.05776
301 1 -1.1104 3.88928 20.1742 9.42097
287 1 -1.1104 3.87318 14.5264 12.3142
286 1 -1.1104 3.96609 20.1215 12.2855
300 2 2.2208 5.28207 18.7605 10.9152
299 1 -1.1104 1.14589 14.6483 12.3435
298 1 -1.1104 1.16826 20.1433 12.2775
295 2 2.2208 5.33328 15.8094 8.15754
294 1 -1.1104 1.09839 14.4693 9.43892
293 2 2.2208 5.33786 21.5588 8.05809
292 1 -1.1104 1.0972 17.3887 9.46906
291 1 -1.1104 1.05637 20.1957 9.48039
290 1 -1.1104 6.63211 14.4434 9.50165
314 1 -1.1104 9.47703 17.3347 9.45687
317 2 2.2208 8.07118 15.9122 10.8588
323 1 -1.1104 12.238 17.3327 9.44066
322 1 -1.1104 9.44883 14.4383 12.2951
149 1 -1.1104 12.2288 17.3163 6.65036
154 1 -1.1104 9.37291 14.3918 6.63021
156 1 -1.1104 9.46686 19.994 6.67515
316 2 2.2208 8.12653 21.5378 10.9253
330 1 -1.1104 12.3711 14.4776 12.2476
329 1 -1.1104 12.3652 19.9943 12.3235
333 2 2.2208 13.688 15.8702 10.8394
135 2 2.2208 -0.236064 15.8951 2.50951
313 2 2.2208 -0.237426 15.8649 8.02442
342 2 2.2208 -0.228141 13.1156 10.8811
137 2 2.2208 -0.242746 18.7971 5.26803
402 2 2.2208 13.5161 10.2256 -0.32103
346 2 2.2208 -0.254287 -0.990807 13.7571
25 2 2.2208 -0.258523 -0.899724 2.49125
338 2 2.2208 13.7286 4.7097 10.9531
83 2 2.2208 -0.255917 13.0974 5.29576
343 2 2.2208 -0.34139 10.2757 8.04256
340 2 2.2208 13.6643 13.0773 8.05777
337 2 2.2208 13.6626 15.8543 5.34375
375 2 2.2208 13.6511 21.4018 -0.33375
392 2 2.2208 13.555 4.57971 -0.272534
373 2 2.2208 10.8675 15.9247 13.6337
391 2 2.2208 13.6025 -0.94347 -0.338761
352 2 2.2208 5.29613 4.54628 13.6549
349 2 2.2208 2.42987 1.78683 13.6014
378 2 2.2208 10.8744 18.6434 -0.244536
365 2 2.2208 8.10304 13.0263 13.7431
387 2 2.2208 10.8088 1.82395 -0.228315
366 2 2.2208 13.6083 7.4127 13.6422
364 2 2.2208 10.8625 10.2313 13.6447
363 2 2.2208 8.04523 7.42744 13.695
372 2 2.2208 10.9169 21.4914 13.7664
355 2 2.2208 8.08107 1.82386 13.5929
394 2 2.2208 2.40319 10.2807 -0.2643
383 2 2.2208 2.45109 4.716 -0.318544
388 2 2.2208 8.00963 -0.982352 -0.343169
377 2 2.2208 8.0058 15.7652 -0.297273
367 2 2.2208 -0.338347 4.59373 13.7262
356 2 2.2208 10.8275 -0.937386 13.6404
406 2 2.2208 5.27044 1.83006 16.5022
407 1 -1.1104 1.14587 -2.33809 17.9739
408 1 -1.1104 1.14294 3.26616 17.8826
411 1 -1.1104 1.0595 -2.38891 15.2041
413 1 -1.1104 1.03716 3.12339 14.9811
419 1 -1.1104 1.09737 0.537032 17.8432
421 2 2.2208 5.3311 -0.945538 19.304
422 2 2.2208 5.31462 4.61589 19.2456
423 1 -1.1104 1.09761 0.35655 15.0695
427 1 -1.1104 3.94368 -2.30695 17.969
428 1 -1.1104 3.88302 3.26719 17.8613
429 2 2.2208 2.45212 1.90495 19.2314
430 1 -1.1104 3.84199 -2.37417 15.2067
432 1 -1.1104 3.79046 3.20789 15.1177
434 2 2.2208 2.4953 -0.886525 16.5321
435 2 2.2208 2.51202 4.69817 16.4289
436 1 -1.1104 3.94831 0.493099 17.8899
437 1 -1.1104 3.93468 0.394233 15.1668
369 2 2.2208 5.29413 21.5034 13.6945
412 1 -1.1104 1.15072 -2.32003 20.7207
431 1 -1.1104 3.99758 -2.27901 20.7064
353 2 2.2208 8.12225 -3.74675 13.6141
357 2 2.2208 10.8833 4.65803 13.6064
410 1 -1.1104 6.65008 3.31427 17.8202
426 1 -1.1104 6.80152 0.34374 20.6804
641 2 2.2208 10.8907 21.4788 24.8411
671 2 2.2208 13.6447 -0.917084 22.0647
605 2 2.2208 13.6997 18.5672 24.8151
672 2 2.2208 13.6523 1.81782 24.9642
445 2 2.2208 13.5798 10.3287 22.0364
368 2 2.2208 2.46718 18.7584 13.7091
443 2 2.2208 -0.239195 -0.927898 19.3121
425 1 -1.1104 6.65607 0.452683 15.0422
409 1 -1.1104 6.63238 -2.30524 17.8556
417 1 -1.1104 6.66189 3.23945 15.1317
415 1 -1.1104 6.75835 -2.30439 15.0406
420 1 -1.1104 6.70188 0.381536 17.8652
449 2 2.2208 10.886 1.92732 16.4116
450 1 -1.1104 12.2003 -2.24255 17.8325
451 1 -1.1104 12.2613 3.25509 17.8849
452 1 -1.1104 12.3254 -2.264 15.0744
454 1 -1.1104 12.2954 3.3616 15.0475
456 1 -1.1104 12.1679 0.528676 17.891
457 2 2.2208 10.8508 -0.840825 19.2213
458 2 2.2208 10.9051 4.60658 19.2802
459 1 -1.1104 12.2089 0.603508 14.9909
461 1 -1.1104 9.47028 -2.35635 17.9161
462 1 -1.1104 9.41446 3.24736 17.7431
463 2 2.2208 8.03066 1.88991 19.2105
464 1 -1.1104 9.57531 -2.2696 15.1418
466 1 -1.1104 9.52436 3.19185 14.8549
468 2 2.2208 8.11711 -0.877502 16.4471
469 2 2.2208 8.13113 4.64489 16.3227
470 1 -1.1104 9.42725 0.542444 17.8381
471 1 -1.1104 9.44284 0.414936 15.008
472 1 -1.1104 9.44792 0.513378 20.6404
416 1 -1.1104 6.73526 -2.31955 20.7324
453 1 -1.1104 12.2483 -2.25989 20.6482
467 1 -1.1104 9.41141 3.23535 20.6034
418 1 -1.1104 6.63247 3.28498 20.675
455 1 -1.1104 12.3005 3.3775 20.7037
465 1 -1.1104 9.4956 -2.26555 20.633
723 2 2.2208 -0.218063 18.7511 22.0941
639 2 2.2208 5.35484 -3.7666 22.1321
350 2 2.2208 -0.407835 21.5982 13.5816
441 2 2.2208 2.48464 -3.75748 19.3514
442 2 2.2208 -0.286016 1.83724 16.4438
482 2 2.2208 5.26381 7.35957 16.4935
483 2 2.2208 5.20667 13.1424 16.4756
484 1 -1.1104 1.12526 8.90749 17.8736
486 1 -1.1104 1.06406 8.89868 15.0547
490 1 -1.1104 1.07541 6.11635 17.8162
491 1 -1.1104 0.983683 11.6452 17.8224
494 2 2.2208 5.26527 10.279 19.2373
495 1 -1.1104 1.1211 5.99113 15.1406
497 1 -1.1104 1.09188 11.6486 15.0682
503 1 -1.1104 3.92578 8.92483 17.8682
504 2 2.2208 2.54104 7.45865 19.1695
505 2 2.2208 2.4966 13.0882 19.2133
506 1 -1.1104 3.82487 8.84913 15.0546
508 2 2.2208 2.45386 10.226 16.5103
509 1 -1.1104 3.90792 6.01652 17.9097
510 1 -1.1104 3.8964 11.6376 17.8829
511 1 -1.1104 3.92036 6.05994 15.1202
513 1 -1.1104 3.85219 11.6456 15.2018
512 1 -1.1104 3.95264 6.03844 20.6602
487 1 -1.1104 1.07953 8.93521 20.6654
500 1 -1.1104 6.72137 6.08957 20.604
542 2 2.2208 13.6152 7.49102 19.3296
496 1 -1.1104 1.18192 6.06837 20.5056
514 1 -1.1104 3.89878 11.6596 20.7024
507 1 -1.1104 3.89483 8.87619 20.5848
637 2 2.2208 -0.40824 -3.70786 22.1281
634 1 -1.1104 12.2702 14.4356 26.2113
640 2 2.2208 2.48585 -3.77138 24.982
543 2 2.2208 13.6469 10.2342 16.41
501 1 -1.1104 6.68026 11.6889 15.2187
499 1 -1.1104 6.76427 5.97152 15.048
488 1 -1.1104 6.64478 8.72544 15.0807
493 1 -1.1104 6.71433 11.6821 17.9633
485 1 -1.1104 6.70369 8.82652 17.8596
492 1 -1.1104 6.7507 6.09881 17.75
518 2 2.2208 10.9024 7.55473 16.4904
519 2 2.2208 10.843 13.1052 16.4932
520 1 -1.1104 12.2074 8.85691 17.7804
521 1 -1.1104 12.2628 8.81411 14.9569
523 1 -1.1104 12.2635 5.99369 17.9475
524 1 -1.1104 12.1824 11.6581 17.8323
525 2 2.2208 10.8812 10.283 19.2565
526 1 -1.1104 12.2576 6.11935 15.0551
528 1 -1.1104 12.27 11.6126 15.0379
530 1 -1.1104 9.41655 8.96188 17.8403
531 2 2.2208 8.07737 7.4601 19.2251
532 2 2.2208 8.09987 13.1082 19.2845
533 1 -1.1104 9.48353 8.9075 15.1203
535 2 2.2208 8.06441 10.2798 16.5148
536 1 -1.1104 9.54809 6.06267 17.7115
537 1 -1.1104 9.48852 11.8115 17.9505
538 1 -1.1104 9.5535 6.03739 15.0084
540 1 -1.1104 9.49028 11.6176 15.1226
541 1 -1.1104 9.40228 11.6498 20.6749
673 1 -1.1104 9.4172 14.4546 26.3317
702 2 2.2208 -0.408562 10.3227 24.9008
633 1 -1.1104 12.405 20.0786 23.4524
545 2 2.2208 5.34715 18.7333 16.4373
546 1 -1.1104 1.09499 14.5731 17.9529
547 1 -1.1104 1.09807 20.1423 17.8706
550 1 -1.1104 1.15552 14.4928 15.1146
552 1 -1.1104 1.08722 20.1176 15.1637
558 1 -1.1104 1.16179 17.3116 17.8639
560 2 2.2208 5.3609 15.9451 19.3512
561 2 2.2208 5.17564 21.5877 19.3055
562 1 -1.1104 0.937175 17.4012 15.0268
566 1 -1.1104 3.90686 14.4672 17.888
567 1 -1.1104 3.91177 20.2072 17.9204
568 2 2.2208 2.49987 18.7545 19.2241
569 1 -1.1104 3.85451 14.4384 15.0626
571 1 -1.1104 3.93262 20.1585 15.0383
573 2 2.2208 2.52344 15.9264 16.4976
574 2 2.2208 2.56865 21.4975 16.4174
575 1 -1.1104 3.88238 17.3727 17.8753
576 1 -1.1104 3.9413 17.299 15.1474
570 1 -1.1104 3.87498 14.4285 20.6371
549 1 -1.1104 6.64844 20.1293 17.9412
565 1 -1.1104 6.8759 17.2436 20.6593
563 1 -1.1104 1.1953 17.3617 20.6803
564 1 -1.1104 6.71119 17.2634 15.0714
556 1 -1.1104 6.7427 20.1256 15.1162
551 1 -1.1104 1.13456 14.505 20.7527
664 1 -1.1104 9.48056 14.4671 23.6227
732 1 -1.1104 6.70019 17.245 26.2845
477 2 2.2208 13.5749 -0.830698 16.4252
559 1 -1.1104 6.76753 17.3558 17.8762
555 1 -1.1104 6.6032 14.5529 20.7141
548 1 -1.1104 6.69158 14.5274 17.9017
554 1 -1.1104 6.70868 14.517 15.0728
581 2 2.2208 10.9667 18.6611 16.4869
582 1 -1.1104 12.3252 14.4577 17.9294
583 1 -1.1104 12.3053 20.0671 17.9549
584 1 -1.1104 12.2817 14.5246 15.0637
586 1 -1.1104 12.2616 20.0129 15.1284
588 1 -1.1104 12.222 17.2643 17.9132
589 2 2.2208 10.8627 15.9125 19.3183
590 2 2.2208 10.8941 21.5796 19.3033
591 1 -1.1104 12.3033 17.2924 15.0211
593 1 -1.1104 9.474 14.6014 17.8937
594 1 -1.1104 9.56034 20.18 17.9115
595 2 2.2208 8.15098 18.7642 19.222
596 1 -1.1104 9.46466 14.5287 15.0633
598 1 -1.1104 9.54776 20.0152 15.1223
600 2 2.2208 8.09841 15.9594 16.4237
601 2 2.2208 8.17323 21.4583 16.4851
602 1 -1.1104 9.43466 17.4067 17.8706
603 1 -1.1104 9.53871 17.2486 15.0332
597 1 -1.1104 9.50769 14.4499 20.7178
587 1 -1.1104 12.4267 20.1894 20.6836
592 1 -1.1104 12.3237 17.2658 20.6124
599 1 -1.1104 9.55969 20.1098 20.6225
578 2 2.2208 13.6469 1.93425 19.3539
424 1 -1.1104 1.07603 0.506306 20.6064
433 1 -1.1104 3.84544 3.26446 20.6801
414 1 -1.1104 1.14255 3.25491 20.7368
438 1 -1.1104 3.93449 0.510756 20.6535
585 1 -1.1104 12.2398 14.4617 20.698
476 2 2.2208 -0.24466 21.5161 19.2977
609 2 2.2208 5.22528 1.77924 22.104
610 1 -1.1104 1.14937 -2.42413 23.5106
611 1 -1.1104 1.08194 3.32068 23.4645
614 1 -1.1104 1.1087 -2.29962 26.2622
615 1 -1.1104 1.04446 3.30579 26.2799
618 1 -1.1104 1.21531 0.454621 23.446
620 2 2.2208 5.30912 -0.984756 24.8804
621 2 2.2208 5.24595 4.6195 24.8595
622 1 -1.1104 1.09932 0.574477 26.2003
624 1 -1.1104 3.87727 -2.43785 23.4876
625 1 -1.1104 3.81344 3.30937 23.5337
626 2 2.2208 2.47975 1.93457 24.8852
627 1 -1.1104 3.92581 -2.28092 26.2885
628 1 -1.1104 3.86109 3.34986 26.2946
629 2 2.2208 2.60573 -1.05697 22.127
630 2 2.2208 2.47394 4.582 22.1149
631 1 -1.1104 3.92754 0.46434 23.5279
632 1 -1.1104 3.91441 0.493494 26.2237
725 2 2.2208 -0.275504 15.9254 24.8988
667 2 2.2208 8.05572 18.688 24.906
616 1 -1.1104 6.7148 -2.37617 26.2538
557 1 -1.1104 6.73974 20.0862 20.6957
701 1 -1.1104 9.45316 17.2681 23.5591
604 1 -1.1104 9.61628 17.3093 20.6558
698 1 -1.1104 9.53796 20.1023 26.3254
724 2 2.2208 -0.273903 21.5232 24.9757
460 1 -1.1104 12.2487 0.598799 20.6918
613 1 -1.1104 6.65195 3.17085 23.5077
623 1 -1.1104 6.684 0.308197 26.232
617 1 -1.1104 6.69196 3.15555 26.2901
619 1 -1.1104 6.64697 0.370298 23.53
612 1 -1.1104 6.72998 -2.41423 23.5395
645 2 2.2208 10.7811 1.90117 22.1023
646 1 -1.1104 12.2699 -2.36807 23.4398
647 1 -1.1104 12.189 3.21845 23.5702
648 1 -1.1104 12.2668 -2.32632 26.2442
649 1 -1.1104 12.2088 3.2339 26.2706
650 1 -1.1104 12.2978 0.439111 23.5404
651 2 2.2208 10.821 -0.984291 24.8506
652 2 2.2208 10.837 4.678 24.9002
653 1 -1.1104 12.1742 0.330881 26.3089
654 1 -1.1104 9.54109 -2.44066 23.443
655 1 -1.1104 9.43785 3.3276 23.517
656 2 2.2208 8.11712 1.86425 24.9015
657 1 -1.1104 9.39548 -2.4176 26.2258
658 1 -1.1104 9.47908 3.2891 26.3571
659 2 2.2208 8.16235 -0.904734 22.1236
660 2 2.2208 8.05961 4.60952 22.0633
661 1 -1.1104 9.50285 0.498826 23.5329
662 1 -1.1104 9.41748 0.449368 26.3205
638 2 2.2208 10.8225 15.9172 24.8861
704 1 -1.1104 9.36835 17.2667 26.3636
635 1 -1.1104 12.1993 20.0162 26.1916
498 1 -1.1104 1.09139 11.694 20.5806
644 2 2.2208 -0.318956 4.69073 24.8452
699 2 2.2208 8.16634 15.937 22.1618
674 2 2.2208 5.24379 7.44804 22.0251
675 2 2.2208 5.23717 13.0738 22.0874
676 1 -1.1104 1.06308 8.90924 23.4428
678 1 -1.1104 1.01281 8.91907 26.3436
680 1 -1.1104 1.04432 6.11299 23.4018
681 1 -1.1104 1.07516 11.6435 23.4168
684 2 2.2208 5.27522 10.2095 24.8877
685 1 -1.1104 1.06277 6.02534 26.2973
686 1 -1.1104 1.07971 11.6891 26.2952
689 1 -1.1104 3.843 8.84711 23.4842
690 2 2.2208 2.50067 7.53016 24.8881
691 2 2.2208 2.49144 13.0529 24.9597
692 1 -1.1104 3.7643 8.83198 26.331
693 2 2.2208 2.51352 10.2336 22.032
694 1 -1.1104 3.81368 6.18744 23.4545
695 1 -1.1104 3.88047 11.7201 23.5092
696 1 -1.1104 3.76513 6.04694 26.2601
697 1 -1.1104 3.94396 11.6353 26.2985
682 1 -1.1104 6.59086 5.9539 23.4101
679 1 -1.1104 6.72694 8.87316 26.283
608 1 -1.1104 12.2621 14.4958 23.5466
382 2 2.2208 2.47554 -0.946614 27.6631
663 1 -1.1104 12.2204 17.1631 26.3679
529 1 -1.1104 12.1157 11.7409 20.6717
502 1 -1.1104 6.60626 11.748 20.6487
522 1 -1.1104 12.3302 8.94539 20.5666
489 1 -1.1104 6.65582 8.81223 20.6066
534 1 -1.1104 9.51902 8.91213 20.5399
527 1 -1.1104 12.2551 6.11537 20.7517
539 1 -1.1104 9.47448 6.04532 20.6442
687 1 -1.1104 6.5869 6.00442 26.3579
683 1 -1.1104 6.62745 11.6066 23.4934
688 1 -1.1104 6.68548 11.5942 26.293
677 1 -1.1104 6.69919 8.74544 23.4859
705 1 -1.1104 9.42171 11.6749 26.2456
706 1 -1.1104 9.40544 6.08619 26.2293
707 1 -1.1104 9.4142 11.7206 23.4639
708 1 -1.1104 9.44056 6.09189 23.4195
709 2 2.2208 7.9971 10.2862 21.9315
710 1 -1.1104 9.52274 8.81756 26.2036
711 2 2.2208 8.02891 12.989 24.889
712 2 2.2208 8.00872 7.37202 24.9005
713 2 2.2208 10.8521 7.44556 22.0959
714 2 2.2208 10.8181 13.0839 22.1605
715 1 -1.1104 12.2772 8.90894 23.4717
716 1 -1.1104 12.2802 8.75877 26.2137
717 1 -1.1104 12.3269 6.06429 23.5663
718 1 -1.1104 12.238 11.6889 23.4961
719 2 2.2208 10.8406 10.2649 24.8967
720 1 -1.1104 12.222 5.9519 26.2725
721 1 -1.1104 12.1715 11.641 26.3588
722 1 -1.1104 9.513 8.91128 23.4133
730 1 -1.1104 6.61708 14.4726 26.3626
636 1 -1.1104 12.3345 17.2874 23.4495
572 1 -1.1104 3.87957 20.1466 20.7435
553 1 -1.1104 1.07997 20.1331 20.572
577 1 -1.1104 4.01362 17.3035 20.7299
739 1 -1.1104 6.65506 14.4863 23.4837
376 2 2.2208 8.12385 18.7161 13.7091
670 1 -1.1104 6.79996 20.0322 26.1987
747 1 -1.1104 6.65367 17.2537 23.4798
746 1 -1.1104 3.77337 14.5193 26.1943
750 2 2.2208 2.51227 21.5205 22.1068
749 1 -1.1104 3.92003 17.2521 23.5991
748 1 -1.1104 1.09047 17.3678 23.4011
727 2 2.2208 2.46762 15.8604 22.0656
729 1 -1.1104 3.93164 20.1724 23.432
731 1 -1.1104 3.92305 14.4506 23.5014
733 1 -1.1104 1.21844 20.162 26.3036
734 1 -1.1104 1.02436 17.3532 26.2443
735 1 -1.1104 1.08228 14.4289 26.3209
737 2 2.2208 5.3229 21.578 24.9065
738 2 2.2208 5.37309 15.8818 24.8859
740 1 -1.1104 1.14861 20.1568 23.5062
741 1 -1.1104 1.15276 14.5322 23.5331
742 2 2.2208 5.29946 18.6812 22.066
743 1 -1.1104 4.07018 20.1472 26.2937
744 2 2.2208 2.54574 18.7569 24.8606
745 1 -1.1104 3.90005 17.3087 26.2808
736 1 -1.1104 6.68558 20.1172 23.4586
700 2 2.2208 8.09461 21.503 22.1048
607 2 2.2208 10.9658 18.6459 21.9833
665 1 -1.1104 9.58049 20.0757 23.4687
371 2 2.2208 5.31558 15.9205 13.6669
448 2 2.2208 -0.344578 15.9263 19.3301
447 2 2.2208 -0.277178 18.7585 16.4981
516 2 2.2208 -0.326969 13.0883 16.511
362 2 2.2208 13.677 13.0695 13.7192
351 2 2.2208 -0.184426 15.9435 13.7156
399 2 2.2208 8.1325 10.2327 27.7176
361 2 2.2208 2.53201 13.0794 13.757
359 2 2.2208 2.42294 7.45593 13.685
360 2 2.2208 5.33512 10.2821 13.786
381 2 2.2208 5.25554 1.81061 27.6338
374 2 2.2208 13.6476 15.8196 27.6745
397 2 2.2208 -0.367945 7.51943 27.6652
358 2 2.2208 -0.317157 10.288 13.6576
751 2 2.2208 5.42027 24.337 5.30886
752 2 2.2208 5.44799 29.8867 5.37975
753 1 -1.1104 1.17173 25.6803 1.22839
754 1 -1.1104 1.21739 25.7076 3.99354
755 1 -1.1104 1.22806 22.9072 1.19569
756 1 -1.1104 1.1382 28.5113 1.16649
757 2 2.2208 5.47284 27.1488 2.49461
758 1 -1.1104 1.20424 22.9399 4.06592
759 1 -1.1104 1.24381 28.4539 4.03195
760 1 -1.1104 4.0228 25.74 1.18907
761 2 2.2208 2.58218 24.3183 2.53787
762 2 2.2208 2.59444 29.915 2.6293
763 1 -1.1104 4.07389 25.7757 3.93049
764 2 2.2208 2.59496 27.0761 5.36786
765 1 -1.1104 3.88909 22.8758 1.14463
766 1 -1.1104 3.99226 28.6261 1.19242
767 1 -1.1104 4.04458 22.8409 3.96896
768 1 -1.1104 3.99205 28.5502 3.95948
772 1 -1.1104 6.72777 25.7235 1.07333
776 1 -1.1104 6.81106 22.865 4.00571
773 1 -1.1104 6.78535 25.7419 3.87796
777 1 -1.1104 6.78124 28.5064 3.94308
1074 2 2.2208 -0.247515 29.9181 10.9321
1124 2 2.2208 10.9272 29.9537 -0.307812
1121 2 2.2208 10.9001 24.2055 -0.376795
1049 2 2.2208 7.96175 46.5033 7.94161
900 1 -1.1104 3.98563 28.4153 6.70685
893 1 -1.1104 6.79733 25.6758 6.62374
775 1 -1.1104 6.77108 28.5542 1.08999
774 1 -1.1104 6.63092 22.9215 1.24685
778 2 2.2208 11.0647 24.3079 5.33549
779 2 2.2208 11.0135 29.9352 5.31412
780 1 -1.1104 12.3395 25.7065 1.05019
781 1 -1.1104 12.4143 25.7592 3.85508
782 1 -1.1104 12.2683 22.8992 1.14328
783 1 -1.1104 12.4052 28.5331 1.11699
784 2 2.2208 10.9517 27.0661 2.42329
785 1 -1.1104 12.4327 23.0093 3.94601
786 1 -1.1104 12.3734 28.5676 3.85807
787 1 -1.1104 9.54302 25.6407 1.0446
788 2 2.2208 8.07332 24.2502 2.56418
789 2 2.2208 8.18928 29.8763 2.51777
790 1 -1.1104 9.6324 25.6634 3.88646
791 2 2.2208 8.25041 27.1034 5.33876
792 1 -1.1104 9.45926 22.8284 1.05827
793 1 -1.1104 9.54721 28.4624 1.02083
794 1 -1.1104 9.60929 22.938 3.91273
795 1 -1.1104 9.61564 28.4707 3.9116
925 1 -1.1104 12.2958 25.6443 6.67767
926 1 -1.1104 12.378 22.8295 6.75384
820 2 2.2208 -0.306241 38.3247 2.45825
1018 1 -1.1104 6.68938 39.6066 12.3106
1080 2 2.2208 -0.168761 35.6002 10.8861
1040 2 2.2208 -0.141726 43.9886 7.9223
822 2 2.2208 -0.185456 35.5348 5.24804
1122 2 2.2208 8.1814 27.0691 -0.320948
799 2 2.2208 5.35696 35.4062 5.34099
800 1 -1.1104 1.14176 31.3049 1.18128
801 1 -1.1104 1.14282 36.8827 1.14796
803 1 -1.1104 1.16513 31.314 4.00793
804 1 -1.1104 1.16969 36.8852 3.91548
806 1 -1.1104 1.093 34.1161 1.04635
807 2 2.2208 5.30808 32.6981 2.49511
808 2 2.2208 5.22896 38.2336 2.49093
809 1 -1.1104 1.22432 34.0843 3.9968
811 1 -1.1104 3.88394 31.3003 1.20036
812 1 -1.1104 3.87905 36.7852 1.24313
813 2 2.2208 2.56503 35.388 2.54601
814 1 -1.1104 3.95334 31.3534 3.94533
815 1 -1.1104 3.98976 36.7269 3.97549
816 2 2.2208 2.62349 32.6729 5.35791
817 2 2.2208 2.62271 38.2349 5.31738
818 1 -1.1104 3.8621 34.0283 1.15805
819 1 -1.1104 4.0587 34.0784 3.96604
824 1 -1.1104 6.86913 31.2902 3.96075
1098 2 2.2208 10.9169 38.3154 13.6631
957 1 -1.1104 4.08783 34.1181 6.72256
955 1 -1.1104 4.06577 31.193 6.73461
810 1 -1.1104 6.71957 34.0809 3.9908
770 2 2.2208 -0.323657 24.3293 5.3924
823 1 -1.1104 6.78381 31.3357 1.09415
802 1 -1.1104 6.66877 36.838 1.10207
805 1 -1.1104 6.722 36.9186 3.97806
825 1 -1.1104 6.6615 34.0517 1.18254
826 2 2.2208 10.9914 35.4945 5.274
827 1 -1.1104 12.3248 31.2998 1.12958
828 1 -1.1104 12.3802 36.9779 1.02478
829 1 -1.1104 12.3925 31.2823 3.91495
830 1 -1.1104 12.3473 36.8279 3.96456
831 1 -1.1104 12.3673 34.17 1.03148
832 2 2.2208 10.9311 32.6874 2.54834
833 2 2.2208 10.9244 38.2484 2.42241
834 1 -1.1104 12.282 34.0854 3.82171
835 1 -1.1104 9.63048 31.3406 1.11678
836 1 -1.1104 9.4166 36.7971 0.953544
837 2 2.2208 8.10978 35.4461 2.53574
838 1 -1.1104 9.57086 31.2097 3.90842
839 1 -1.1104 9.47723 36.7777 3.82103
840 2 2.2208 8.19388 32.6897 5.41218
841 2 2.2208 8.10373 38.2448 5.29216