ITEM: TIMESTEP
100000
ITEM: NUMBER OF ATOMS
17672
ITEM: BOX BOUNDS pp pp pp
-3.1865429840250792e-01 2.7658654298402030e+01
-3.8458062704899270e+00 3.3192580627048142e+02
-3.1939881105480600e-01 2.7659398811055325e+01
ITEM: ATOMS id type q x y z
1 2 2.2208 5.27937 1.75608 5.21674
2 1 -1.1104 0.991871 -2.37869 1.02252
3 1 -1.1104 1.0472 3.20999 0.975219
6 1 -1.1104 1.07075 -2.56151 3.85613
7 1 -1.1104 1.10916 3.08223 3.95768
10 1 -1.1104 0.959199 0.381937 1.05475
12 2 2.2208 5.3197 -1.09328 2.43512
13 2 2.2208 5.19155 4.57388 2.42648
14 1 -1.1104 1.04804 0.312757 3.84258
16 1 -1.1104 3.86858 -2.50529 1.01131
17 1 -1.1104 3.75762 3.09889 0.949127
18 2 2.2208 2.4439 1.68873 2.42297
19 1 -1.1104 3.85582 -2.42383 3.83484
20 1 -1.1104 3.94412 3.08402 3.71295
21 2 2.2208 2.44458 -1.0566 5.26601
22 2 2.2208 2.41327 4.48761 5.27899
23 1 -1.1104 3.86895 0.331176 1.12472
24 1 -1.1104 3.86543 0.345092 3.8237
377 2 2.2208 8.07343 15.7489 -0.290005
204 2 2.2208 -0.240923 -3.78117 10.8538
172 1 -1.1104 3.92078 -2.52018 6.71909
167 1 -1.1104 1.06465 3.09966 6.56794
174 1 -1.1104 3.95756 0.228874 6.72278
166 1 -1.1104 1.12193 -2.47779 6.6672
105 2 2.2208 13.6253 7.24095 2.50821
199 2 2.2208 -0.377885 4.52673 7.99612
170 1 -1.1104 1.19754 0.267923 6.79159
173 1 -1.1104 3.82412 3.01358 6.61981
202 2 2.2208 2.41072 -3.76453 8.07928
168 1 -1.1104 6.64582 -2.4965 6.63969
344 2 2.2208 -0.226043 7.32006 10.9102
5 1 -1.1104 6.61299 3.10735 1.13215
9 1 -1.1104 6.70463 3.13412 3.78015
15 1 -1.1104 6.67556 0.391946 3.88779
8 1 -1.1104 6.78361 -2.50857 3.82466
4 1 -1.1104 6.76258 -2.43467 1.05948
11 1 -1.1104 6.74481 0.35892 1.03091
31 2 2.2208 10.7715 1.66683 5.23144
32 1 -1.1104 12.2106 -2.41905 1.0769
33 1 -1.1104 12.2608 3.19274 1.02657
34 1 -1.1104 12.2531 -2.53306 3.94644
35 1 -1.1104 12.2452 3.10859 3.93696
36 1 -1.1104 12.2641 0.375846 1.0325
37 2 2.2208 10.8627 -1.06838 2.40106
38 2 2.2208 10.8364 4.54996 2.53186
39 1 -1.1104 12.1948 0.353165 3.82575
40 1 -1.1104 9.4409 -2.47467 1.083
41 1 -1.1104 9.38647 3.19248 1.10835
42 2 2.2208 8.08732 1.73095 2.50546
43 1 -1.1104 9.41388 -2.4581 3.83483
44 1 -1.1104 9.40951 3.09758 3.8017
45 2 2.2208 8.07461 -1.09826 5.23854
46 2 2.2208 8.08118 4.57369 5.21781
47 1 -1.1104 9.49942 0.313747 1.20256
48 1 -1.1104 9.45606 0.359767 3.89245
207 1 -1.1104 12.2555 0.366113 6.55138
206 1 -1.1104 12.2674 3.16861 6.6584
208 1 -1.1104 9.48573 -2.36911 6.63524
171 1 -1.1104 6.67145 0.293259 6.6959
210 1 -1.1104 9.50838 0.273211 6.66939
209 1 -1.1104 9.45826 3.08258 6.6659
205 1 -1.1104 12.2775 -2.53919 6.71752
83 2 2.2208 -0.39526 12.9231 5.30751
54 2 2.2208 5.29681 7.32346 5.24011
55 2 2.2208 5.3432 12.9107 5.25982
56 1 -1.1104 1.15238 8.75438 1.11986
58 1 -1.1104 1.13312 8.72234 3.90357
60 1 -1.1104 1.10658 5.99209 1.05856
61 1 -1.1104 1.19015 11.5064 1.13097
66 2 2.2208 5.27278 10.0556 2.45103
67 1 -1.1104 1.05422 5.98809 3.80883
68 1 -1.1104 1.08102 11.5163 3.89698
71 1 -1.1104 3.90273 8.75288 1.13292
72 2 2.2208 2.46901 7.3547 2.48109
73 2 2.2208 2.4958 12.9148 2.4249
74 1 -1.1104 3.948 8.78844 3.96729
75 2 2.2208 2.48888 10.1239 5.32282
76 1 -1.1104 3.79278 5.85333 1.07247
77 1 -1.1104 3.89573 11.5425 0.930974
79 1 -1.1104 3.83285 5.93581 3.79849
80 1 -1.1104 3.86152 11.5941 3.86443
366 2 2.2208 13.6471 7.44142 13.6203
82 2 2.2208 -0.312475 10.1797 2.4385
78 1 -1.1104 3.83798 11.532 6.63813
234 1 -1.1104 1.10137 8.71951 6.69275
404 2 2.2208 5.30949 18.5329 -0.287436
235 1 -1.1104 6.73452 8.7246 6.75372
237 1 -1.1104 6.71115 5.94993 6.64189
28 2 2.2208 2.44208 -3.89675 2.40456
236 1 -1.1104 1.02718 5.84329 6.57594
239 1 -1.1104 3.8205 5.8324 6.66083
333 2 2.2208 13.6053 15.7523 10.9383
59 1 -1.1104 6.59999 8.71748 3.83063
69 1 -1.1104 6.57854 5.91925 3.8169
57 1 -1.1104 6.65032 8.61098 1.09921
70 1 -1.1104 6.55649 11.4899 3.85015
64 1 -1.1104 6.64623 11.514 1.01802
63 1 -1.1104 6.66815 5.82102 1.00019
84 2 2.2208 10.8768 7.40335 5.25125
85 2 2.2208 10.811 12.8895 5.2488
86 1 -1.1104 12.21 8.7124 1.10429
87 1 -1.1104 12.2732 8.73817 3.81648
88 1 -1.1104 12.2708 5.95454 0.973953
89 1 -1.1104 12.2367 11.4877 1.0094
91 2 2.2208 10.8514 10.1812 2.41549
92 1 -1.1104 12.3099 6.00299 3.94263
93 1 -1.1104 12.1403 11.537 3.76099
94 1 -1.1104 9.39545 8.71439 1.05445
95 2 2.2208 8.01548 7.30298 2.46276
96 2 2.2208 7.96457 12.878 2.42249
97 1 -1.1104 9.45667 8.78713 3.71977
98 2 2.2208 8.09328 10.1078 5.28196
99 1 -1.1104 9.41728 5.95217 1.07089
100 1 -1.1104 9.4415 11.4512 0.88932
102 1 -1.1104 9.35043 6.04508 3.80008
103 1 -1.1104 9.36422 11.5108 3.79529
267 1 -1.1104 9.44261 8.70671 6.64305
266 1 -1.1104 12.1919 5.95113 6.68909
101 1 -1.1104 9.43705 11.519 6.67722
136 2 2.2208 -0.345037 21.2638 2.45712
106 2 2.2208 5.20169 18.4333 5.21384
107 1 -1.1104 1.04596 14.3056 1.02267
109 1 -1.1104 1.07509 19.8691 1.03772
113 1 -1.1104 1.02964 14.3034 3.80171
114 1 -1.1104 1.0315 19.9735 3.87923
116 1 -1.1104 1.09278 17.0679 1.14206
119 2 2.2208 5.21274 15.7581 2.46233
120 2 2.2208 5.26911 21.3249 2.46566
121 1 -1.1104 0.976586 17.0907 3.88569
123 1 -1.1104 3.95766 14.264 1.12114
125 1 -1.1104 3.89802 19.9195 1.21164
127 2 2.2208 2.46196 18.4974 2.5571
128 1 -1.1104 3.79153 14.2977 3.8614
129 1 -1.1104 3.81655 19.958 3.81922
130 2 2.2208 2.4468 15.662 5.313
131 2 2.2208 2.43281 21.3693 5.25891
132 1 -1.1104 4.01343 17.1275 1.096
134 1 -1.1104 3.80483 17.1271 3.88714
399 2 2.2208 8.05969 10.0563 -0.36442
137 2 2.2208 -0.327131 18.4626 5.34081
140 1 -1.1104 6.69616 17.1525 1.07753
124 1 -1.1104 3.86886 14.2741 6.64081
302 1 -1.1104 1.09521 19.9431 6.68729
133 1 -1.1104 3.80172 17.123 6.66891
332 2 2.2208 13.6616 18.4852 8.08041
330 1 -1.1104 12.1716 14.3876 12.2801
115 1 -1.1104 6.61619 14.2634 3.80892
122 1 -1.1104 6.67385 17.0968 3.98149
110 1 -1.1104 6.71748 14.3018 1.01722
139 1 -1.1104 6.62146 19.8855 3.82292
138 1 -1.1104 6.72168 19.9419 1.08932
141 2 2.2208 10.9194 18.477 5.22705
142 1 -1.1104 12.3248 14.3572 0.924749
144 1 -1.1104 12.2646 19.9225 1.06022
146 1 -1.1104 12.2177 14.4183 3.7946
147 1 -1.1104 12.2575 19.861 3.86252
148 1 -1.1104 12.2902 17.0712 0.905885
150 2 2.2208 10.9775 15.7226 2.40951
151 2 2.2208 10.7625 21.3025 2.39936
152 1 -1.1104 12.2755 17.1729 3.78245
153 1 -1.1104 9.4664 14.2443 1.10229
155 1 -1.1104 9.4695 19.875 1.03753
157 2 2.2208 8.03709 18.4106 2.49627
158 1 -1.1104 9.39367 14.2042 3.89692
159 1 -1.1104 9.50682 19.7425 3.75458
160 2 2.2208 8.05899 15.7111 5.24856
161 2 2.2208 7.98015 21.3574 5.19738
162 1 -1.1104 9.40088 17.0688 1.05548
164 1 -1.1104 9.57299 16.9851 3.82606
143 1 -1.1104 12.2413 14.2784 6.62206
163 1 -1.1104 9.40916 17.2337 6.66206
156 1 -1.1104 9.42605 20.0433 6.64385
154 1 -1.1104 9.41165 14.4063 6.63518
145 1 -1.1104 12.2455 19.9095 6.73478
111 1 -1.1104 6.62883 14.4263 6.67499
340 2 2.2208 13.6021 13.0203 8.03647
341 2 2.2208 13.6211 10.2247 10.9689
318 1 -1.1104 9.41193 19.9078 9.53266
175 2 2.2208 5.28595 1.65958 10.8989
176 1 -1.1104 1.10516 -2.30081 12.2286
177 1 -1.1104 1.19641 3.19382 12.2491
180 1 -1.1104 1.00515 -2.3243 9.5139
181 1 -1.1104 1.13683 3.23359 9.37752
184 1 -1.1104 1.11543 0.396726 12.3161
186 2 2.2208 5.33803 -1.09629 8.12513
187 2 2.2208 5.23579 4.4926 8.05437
188 1 -1.1104 1.10873 0.530887 9.556
190 1 -1.1104 3.80951 -2.48176 12.1822
191 1 -1.1104 3.87627 3.14818 12.3029
192 2 2.2208 2.47889 1.74977 8.04191
193 1 -1.1104 3.79489 -2.45946 9.39115
194 1 -1.1104 3.89629 3.16647 9.419
195 2 2.2208 2.42268 -0.952497 10.8213
196 2 2.2208 2.43407 4.56691 10.8358
197 1 -1.1104 3.86352 0.292524 12.251
198 1 -1.1104 3.95883 0.263373 9.45391
169 1 -1.1104 6.65124 3.14589 6.54533
178 1 -1.1104 6.57463 -2.43096 12.2109
182 1 -1.1104 6.71571 -2.43792 9.50289
27 2 2.2208 -0.279418 4.58499 2.4985
348 2 2.2208 5.26559 -1.05283 13.6807
335 2 2.2208 13.6129 10.0921 5.24236
185 1 -1.1104 6.67477 0.305513 12.2828
179 1 -1.1104 6.73013 3.04163 12.1926
189 1 -1.1104 6.7514 0.374954 9.41501
183 1 -1.1104 6.66597 3.19292 9.39396
211 2 2.2208 10.8996 1.7189 10.8406
212 1 -1.1104 12.129 -2.33618 12.2406
213 1 -1.1104 12.3388 3.14528 12.2822
214 1 -1.1104 12.2782 -2.41916 9.55602
215 1 -1.1104 12.2759 3.21688 9.42373
216 1 -1.1104 12.3326 0.399912 12.2758
217 2 2.2208 10.8706 -1.04503 8.07399
218 2 2.2208 10.8231 4.53588 8.03387
219 1 -1.1104 12.2741 0.318454 9.37659
220 1 -1.1104 9.33221 -2.43135 12.3147
221 1 -1.1104 9.48716 3.16774 12.2353
222 2 2.2208 8.01689 1.74798 8.05369
223 1 -1.1104 9.45073 -2.41134 9.49421
224 1 -1.1104 9.49748 3.1233 9.5458
225 2 2.2208 8.0999 -1.04647 10.888
226 2 2.2208 8.1217 4.51034 10.9255
227 1 -1.1104 9.49297 0.322244 12.2444
228 1 -1.1104 9.52031 0.380295 9.43784
232 2 2.2208 10.8552 -3.87686 10.8616
231 2 2.2208 8.06645 -3.84177 8.10153
62 1 -1.1104 1.12385 11.4766 6.67253
360 2 2.2208 5.20865 10.134 13.6455
238 1 -1.1104 3.93017 8.73203 6.73394
165 2 2.2208 13.6804 18.5751 2.45987
317 2 2.2208 8.00633 15.6623 10.8055
319 1 -1.1104 9.42239 14.2832 9.31957
240 2 2.2208 5.27955 7.30467 10.8345
241 2 2.2208 5.22809 12.9367 10.8019
242 1 -1.1104 1.09574 8.67292 12.2538
244 1 -1.1104 1.06244 8.79487 9.41997
246 1 -1.1104 1.10663 5.90214 12.1577
247 1 -1.1104 1.10796 11.5393 12.3303
250 2 2.2208 5.26798 10.1218 8.06653
251 1 -1.1104 1.05501 5.97386 9.37674
252 1 -1.1104 1.05361 11.4639 9.47347
255 1 -1.1104 3.82545 8.70668 12.2778
256 2 2.2208 2.52594 7.29704 8.04665
257 2 2.2208 2.4611 12.8755 8.03798
258 1 -1.1104 3.83649 8.74662 9.45425
259 2 2.2208 2.44915 10.1167 10.8303
260 1 -1.1104 3.82744 5.85607 12.1405
261 1 -1.1104 3.93316 11.4842 12.3304
262 1 -1.1104 3.91819 5.95823 9.36683
263 1 -1.1104 3.90551 11.5645 9.4399
306 1 -1.1104 6.58002 17.1427 12.247
265 1 -1.1104 12.1976 8.84104 6.67788
90 1 -1.1104 12.2398 11.6193 6.5863
269 1 -1.1104 9.45741 5.97526 6.57179
65 1 -1.1104 6.70227 11.6375 6.62201
249 1 -1.1104 6.72339 11.5751 12.0982
245 1 -1.1104 6.57731 8.72016 9.55733
248 1 -1.1104 6.67345 5.93868 12.3548
253 1 -1.1104 6.69977 5.86057 9.52769
243 1 -1.1104 6.60714 8.74706 12.3094
254 1 -1.1104 6.65866 11.4271 9.28404
264 1 -1.1104 9.45138 11.5157 9.43409
268 1 -1.1104 9.53471 5.94358 9.48371
270 1 -1.1104 9.45539 11.4913 12.2453
271 1 -1.1104 9.46922 5.90134 12.1998
272 2 2.2208 8.01205 10.1148 10.8203
273 1 -1.1104 9.41982 8.64341 9.45909
274 2 2.2208 8.01078 12.9025 7.96773
275 2 2.2208 7.98627 7.26225 8.13604
276 2 2.2208 10.8507 7.31539 10.8841
277 2 2.2208 10.8886 12.9157 10.8017
278 1 -1.1104 12.0832 8.74235 12.2603
279 1 -1.1104 12.2235 8.73411 9.58366
280 1 -1.1104 12.3797 5.99152 12.3015
281 1 -1.1104 12.2479 11.6209 12.2395
282 2 2.2208 10.8298 10.0456 8.10823
283 1 -1.1104 12.396 6.02967 9.46772
284 1 -1.1104 12.2483 11.581 9.38599
285 1 -1.1104 9.33693 8.70279 12.1947
104 2 2.2208 13.5886 13.0218 2.45513
398 2 2.2208 10.8453 7.31936 -0.320517
126 1 -1.1104 3.88743 19.8602 6.60517
312 2 2.2208 -0.327958 18.4637 10.901
108 1 -1.1104 0.930449 14.2366 6.63955
117 1 -1.1104 1.03646 17.1119 6.68145
311 2 2.2208 -0.316273 21.3442 8.0624
369 2 2.2208 5.22557 21.3468 13.5953
310 2 2.2208 2.43367 15.6445 10.8705
309 2 2.2208 2.41656 21.3181 10.8552
308 1 -1.1104 3.76281 17.0814 12.3558
307 1 -1.1104 1.04088 17.0629 12.2455
305 1 -1.1104 3.81511 14.2313 9.41909
304 1 -1.1104 3.91869 17.0026 9.53627
303 2 2.2208 2.5081 18.5307 8.04329
301 1 -1.1104 3.90605 19.9096 9.47386
287 1 -1.1104 3.96582 14.3252 12.2097
286 1 -1.1104 3.88336 19.886 12.2612
300 2 2.2208 5.26345 18.4764 10.8877
299 1 -1.1104 1.18161 14.2686 12.2138
298 1 -1.1104 0.983747 19.8022 12.3279
295 2 2.2208 5.24046 15.7026 8.07643
294 1 -1.1104 0.992359 14.279 9.48718
293 2 2.2208 5.2316 21.324 8.00569
292 1 -1.1104 1.11253 17.2152 9.45164
291 1 -1.1104 0.994181 19.903 9.48336
296 1 -1.1104 6.71235 19.8928 12.3104
149 1 -1.1104 12.3233 17.0957 6.59321
112 1 -1.1104 6.68304 19.9368 6.64884
118 1 -1.1104 6.50244 17.1626 6.68309
329 1 -1.1104 12.1571 19.9171 12.2941
327 1 -1.1104 12.1728 19.8729 9.56166
314 1 -1.1104 9.39289 17.1195 9.47369
320 2 2.2208 8.0346 18.6055 8.03216
290 1 -1.1104 6.62378 14.2621 9.45731
322 1 -1.1104 9.4092 14.3594 12.1669
323 1 -1.1104 12.1828 17.0602 9.52964
324 2 2.2208 10.8603 21.3308 8.089
315 1 -1.1104 9.33133 17.1081 12.2343
352 2 2.2208 5.25331 4.49211 13.6293
326 1 -1.1104 12.1859 17.1326 12.3735
289 1 -1.1104 6.72854 17.0694 9.50566
316 2 2.2208 8.06955 21.2589 10.864
321 1 -1.1104 9.44109 19.9798 12.2707
325 2 2.2208 10.8006 15.6635 8.10012
328 1 -1.1104 12.3062 14.3208 9.56424
331 2 2.2208 10.8052 18.4319 10.8786
297 1 -1.1104 6.69001 14.3603 12.2246
288 1 -1.1104 6.63106 19.8878 9.48981
50 2 2.2208 13.5974 -1.10222 5.24216
363 2 2.2208 8.05606 7.33565 13.692
356 2 2.2208 10.819 -1.0557 13.6992
380 2 2.2208 13.5978 18.5177 13.6765
336 2 2.2208 13.5832 21.2697 5.32092
334 2 2.2208 13.6405 4.52455 5.31558
346 2 2.2208 -0.28846 -1.01581 13.638
345 2 2.2208 13.6609 21.26 10.9426
375 2 2.2208 13.6185 21.3482 -0.271914
359 2 2.2208 2.4447 7.32657 13.6019
382 2 2.2208 2.44247 -1.0633 -0.305409
368 2 2.2208 2.52966 18.579 13.6749
373 2 2.2208 10.8062 15.7184 13.6382
365 2 2.2208 8.03423 12.9632 13.6391
387 2 2.2208 10.8751 1.79064 -0.32016
394 2 2.2208 2.46039 10.02 -0.258171
396 2 2.2208 -0.311842 12.8797 -0.335159
403 2 2.2208 2.43984 15.6581 -0.227236
357 2 2.2208 10.9589 4.62553 13.6187
406 2 2.2208 5.28642 1.71544 16.5008
407 1 -1.1104 1.06515 -2.40233 17.8253
408 1 -1.1104 1.09145 3.16564 17.8496
411 1 -1.1104 1.11307 -2.51369 15.0418
413 1 -1.1104 1.10574 3.17097 15.0845
419 1 -1.1104 1.00721 0.392186 17.9009
421 2 2.2208 5.34104 -1.02871 19.1576
422 2 2.2208 5.23754 4.55764 19.2687
423 1 -1.1104 0.993337 0.397631 15.0698
427 1 -1.1104 3.88655 -2.52056 17.8846
428 1 -1.1104 3.92497 3.1964 17.867
429 2 2.2208 2.43654 1.80968 19.2286
430 1 -1.1104 3.8655 -2.56214 14.9994
432 1 -1.1104 3.90791 3.0904 15.0295
434 2 2.2208 2.47327 -1.12339 16.4119
435 2 2.2208 2.51076 4.47422 16.4443
436 1 -1.1104 3.82133 0.336451 17.7409
437 1 -1.1104 3.84152 0.263792 15.1145
424 1 -1.1104 1.04639 0.332015 20.6155
371 2 2.2208 5.24985 15.7267 13.6544
376 2 2.2208 8.04886 18.5438 13.7084
395 2 2.2208 5.27738 12.8873 27.5994
414 1 -1.1104 1.13827 3.13397 20.7533
412 1 -1.1104 1.11713 -2.41045 20.6843
580 2 2.2208 13.7019 15.7223 22.0885
438 1 -1.1104 3.9116 0.363972 20.5744
433 1 -1.1104 3.8742 3.19984 20.6552
431 1 -1.1104 3.81532 -2.43454 20.5883
448 2 2.2208 -0.236922 15.7825 19.2242
728 2 2.2208 13.62 7.43848 24.8423
415 1 -1.1104 6.69586 -2.35686 14.9849
409 1 -1.1104 6.63819 -2.45129 17.8201
410 1 -1.1104 6.62078 3.16613 17.9251
425 1 -1.1104 6.62311 0.42734 15.0646
420 1 -1.1104 6.68819 0.433669 17.736
417 1 -1.1104 6.61549 3.17176 15.1354
449 2 2.2208 10.9303 1.76423 16.408
450 1 -1.1104 12.2552 -2.42662 17.8213
451 1 -1.1104 12.2145 3.04988 17.8321
452 1 -1.1104 12.3436 -2.54525 15.0239
454 1 -1.1104 12.3159 3.1908 15.0161
456 1 -1.1104 12.2771 0.311333 17.8199
457 2 2.2208 10.898 -1.04686 19.2454
458 2 2.2208 10.8863 4.54854 19.2127
459 1 -1.1104 12.282 0.20753 15.018
461 1 -1.1104 9.48998 -2.49979 17.7977
462 1 -1.1104 9.44772 3.21393 17.7648
463 2 2.2208 8.13853 1.78907 19.2493
464 1 -1.1104 9.5491 -2.44255 15.1206
466 1 -1.1104 9.44084 3.17071 15.0787
468 2 2.2208 8.09676 -1.01121 16.4607
469 2 2.2208 8.09788 4.63244 16.4709
470 1 -1.1104 9.54422 0.401957 17.8656
471 1 -1.1104 9.43648 0.327285 14.9818
416 1 -1.1104 6.5799 -2.42613 20.6106
426 1 -1.1104 6.77539 0.30071 20.498
460 1 -1.1104 12.3066 0.281492 20.5628
372 2 2.2208 10.7942 21.3791 13.6882
455 1 -1.1104 12.2812 3.02548 20.5977
351 2 2.2208 -0.25836 15.7026 13.7232
390 2 2.2208 10.8685 -3.89773 27.6295
482 2 2.2208 5.30355 7.34792 16.4389
483 2 2.2208 5.29412 12.9523 16.4934
484 1 -1.1104 1.09376 8.68146 17.7963
486 1 -1.1104 1.0594 8.76277 15.0149
490 1 -1.1104 1.13078 5.90582 17.951
491 1 -1.1104 1.16606 11.4863 17.8202
494 2 2.2208 5.26265 10.1774 19.1811
495 1 -1.1104 1.04549 5.92807 15.0909
497 1 -1.1104 0.964943 11.696 15.0163
503 1 -1.1104 3.92334 8.7655 17.8
504 2 2.2208 2.49835 7.35998 19.2064
505 2 2.2208 2.49409 12.8765 19.2632
506 1 -1.1104 3.80551 8.66673 15.05
508 2 2.2208 2.45425 10.0262 16.3788
509 1 -1.1104 3.94091 5.95464 17.8456
510 1 -1.1104 3.83916 11.5468 17.7355
511 1 -1.1104 3.85993 5.88385 15.0261
513 1 -1.1104 3.82354 11.4245 15.0346
393 2 2.2208 5.2447 7.2625 27.5861
350 2 2.2208 -0.323022 21.375 13.7326
507 1 -1.1104 3.76338 8.75332 20.6585
514 1 -1.1104 4.00289 11.4754 20.6618
496 1 -1.1104 1.14754 6.02795 20.677
498 1 -1.1104 1.19941 11.5321 20.7918
383 2 2.2208 2.3831 4.57583 27.6138
638 2 2.2208 10.9674 15.7443 24.9608
439 2 2.2208 -0.290854 -3.88469 16.4098
634 1 -1.1104 12.2694 14.2049 26.1665
488 1 -1.1104 6.63935 8.81302 15.0262
492 1 -1.1104 6.77124 5.94789 17.8411
501 1 -1.1104 6.67974 11.6704 15.0042
499 1 -1.1104 6.67581 6.02006 15.1097
485 1 -1.1104 6.60517 8.82052 17.834
493 1 -1.1104 6.66908 11.5623 17.7774
518 2 2.2208 10.77 7.3103 16.4931
519 2 2.2208 10.8402 12.9517 16.3856
520 1 -1.1104 12.2738 8.78821 17.7897
521 1 -1.1104 12.211 8.88143 15.0294
523 1 -1.1104 12.3158 5.92262 17.8857
524 1 -1.1104 12.2132 11.5002 17.8421
525 2 2.2208 10.8701 10.1109 19.2705
526 1 -1.1104 12.2478 6.03395 15.0395
528 1 -1.1104 12.2465 11.5505 15.017
530 1 -1.1104 9.41462 8.66234 17.8367
531 2 2.2208 7.99197 7.42825 19.3396
532 2 2.2208 8.04381 12.9566 19.1992
533 1 -1.1104 9.45573 8.65425 15.0399
535 2 2.2208 8.0197 10.141 16.4248
536 1 -1.1104 9.46945 5.93272 17.9267
537 1 -1.1104 9.54294 11.5459 17.8033
538 1 -1.1104 9.56207 5.9172 15.011
540 1 -1.1104 9.38709 11.6607 15.011
529 1 -1.1104 12.2691 11.5123 20.5962
522 1 -1.1104 12.2933 8.70269 20.4937
539 1 -1.1104 9.40793 6.09106 20.7226
502 1 -1.1104 6.6827 11.5725 20.6124
500 1 -1.1104 6.58858 5.97948 20.6875
541 1 -1.1104 9.4894 11.4829 20.5973
527 1 -1.1104 12.2408 5.88497 20.639
545 2 2.2208 5.31125 18.5434 16.5094
546 1 -1.1104 1.07903 14.3479 17.8752
547 1 -1.1104 1.11618 20.024 17.8716
550 1 -1.1104 1.08407 14.4004 15.1439
552 1 -1.1104 1.15281 19.8976 15.1155
558 1 -1.1104 1.14492 17.215 17.9008
560 2 2.2208 5.29007 15.6826 19.3108
561 2 2.2208 5.32698 21.3875 19.2362
562 1 -1.1104 1.17348 17.1535 15.1009
566 1 -1.1104 3.91481 14.2829 17.8915
567 1 -1.1104 3.94236 19.9838 17.9229
568 2 2.2208 2.54787 18.5008 19.3788
569 1 -1.1104 3.87264 14.2321 15.1053
571 1 -1.1104 3.8337 19.92 15.1286
573 2 2.2208 2.56733 15.6959 16.4509
574 2 2.2208 2.55162 21.3135 16.5462
575 1 -1.1104 3.9297 17.0881 17.9432
576 1 -1.1104 4.08704 17.105 15.095
637 2 2.2208 -0.247908 -3.82829 22.0566
447 2 2.2208 -0.285798 18.6151 16.5247
640 2 2.2208 2.40982 -3.88331 24.79
577 1 -1.1104 3.95152 17.0178 20.5797
553 1 -1.1104 1.04991 19.9396 20.6549
555 1 -1.1104 6.61147 14.1923 20.6351
747 1 -1.1104 6.62003 17.1027 23.3871
381 2 2.2208 5.27606 1.81825 27.6971
673 1 -1.1104 9.49968 14.3835 26.3979
664 1 -1.1104 9.49942 14.433 23.544
736 1 -1.1104 6.75605 20.0895 23.4168
559 1 -1.1104 6.71309 17.099 17.9144
554 1 -1.1104 6.64739 14.2948 15.0683
556 1 -1.1104 6.6568 19.868 15.0945
548 1 -1.1104 6.74645 14.3585 17.6945
549 1 -1.1104 6.71707 20.0055 17.8333
564 1 -1.1104 6.75339 17.0738 15.0797
581 2 2.2208 10.9106 18.5267 16.4859
582 1 -1.1104 12.1936 14.308 17.8056
583 1 -1.1104 12.3006 19.8751 17.892
584 1 -1.1104 12.2557 14.367 15.1004
586 1 -1.1104 12.1766 19.927 15.1443
588 1 -1.1104 12.3425 17.113 17.9299
589 2 2.2208 10.8255 15.7286 19.2136
590 2 2.2208 10.8259 21.3152 19.2207
591 1 -1.1104 12.3061 17.1869 15.095
593 1 -1.1104 9.54387 14.3362 17.8506
594 1 -1.1104 9.47242 20.006 17.8301
595 2 2.2208 8.11532 18.5656 19.2014
596 1 -1.1104 9.45313 14.4296 15.0591
598 1 -1.1104 9.48965 19.9952 14.9674
600 2 2.2208 8.12962 15.7207 16.4168
601 2 2.2208 8.03698 21.3398 16.3937
602 1 -1.1104 9.47019 17.1312 17.7783
603 1 -1.1104 9.59107 17.22 14.9379
565 1 -1.1104 6.6733 17.0727 20.6244
585 1 -1.1104 12.2175 14.2916 20.622
599 1 -1.1104 9.41904 19.9302 20.5968
587 1 -1.1104 12.1828 19.9903 20.693
592 1 -1.1104 12.2738 17.1279 20.6775
597 1 -1.1104 9.33668 14.4169 20.6442
604 1 -1.1104 9.44282 17.194 20.6346
644 2 2.2208 -0.301439 4.51529 24.8476
609 2 2.2208 5.30033 1.86866 22.0757
610 1 -1.1104 1.0771 -2.49619 23.4424
611 1 -1.1104 1.06695 3.14192 23.5175
614 1 -1.1104 1.06432 -2.43143 26.2578
615 1 -1.1104 1.17591 3.12294 26.1863
618 1 -1.1104 1.14751 0.358345 23.4634
620 2 2.2208 5.32853 -1.10088 24.8614
621 2 2.2208 5.25663 4.62299 24.8663
622 1 -1.1104 1.02525 0.395487 26.2599
624 1 -1.1104 3.89701 -2.46083 23.4542
625 1 -1.1104 3.90761 3.12879 23.4319
626 2 2.2208 2.54886 1.766 24.8412
627 1 -1.1104 3.86795 -2.42327 26.231
628 1 -1.1104 3.86589 3.2139 26.1207
629 2 2.2208 2.55473 -1.07492 22.1181
630 2 2.2208 2.45075 4.59949 22.0435
631 1 -1.1104 4.02887 0.351895 23.4748
632 1 -1.1104 3.86496 0.387414 26.3018
445 2 2.2208 13.6063 10.1358 21.9455
389 2 2.2208 8.0053 4.5715 27.6645
613 1 -1.1104 6.63333 3.13903 23.5182
515 2 2.2208 -0.229315 10.0917 19.1988
453 1 -1.1104 12.2365 -2.52508 20.6028
472 1 -1.1104 9.51846 0.32786 20.6446
643 2 2.2208 -0.256807 1.74211 22.0617
700 2 2.2208 8.15104 21.4273 22.0975
418 1 -1.1104 6.72841 3.17529 20.7336
467 1 -1.1104 9.46358 3.25941 20.6321
465 1 -1.1104 9.39657 -2.45378 20.6518
617 1 -1.1104 6.66823 3.14476 26.2826
623 1 -1.1104 6.5716 0.301691 26.2255
619 1 -1.1104 6.79792 0.430527 23.4546
616 1 -1.1104 6.67316 -2.51144 26.1872
612 1 -1.1104 6.77246 -2.45345 23.4441
645 2 2.2208 10.8314 1.73562 22.0224
646 1 -1.1104 12.2416 -2.50448 23.3933
647 1 -1.1104 12.1812 3.21755 23.4136
648 1 -1.1104 12.257 -2.41332 26.1712
649 1 -1.1104 12.2423 3.25772 26.104
650 1 -1.1104 12.2623 0.33118 23.3508
651 2 2.2208 10.832 -1.09959 24.7243
652 2 2.2208 10.8155 4.51041 24.8913
653 1 -1.1104 12.259 0.400055 26.2427
654 1 -1.1104 9.49977 -2.54138 23.3574
655 1 -1.1104 9.41865 3.04339 23.3828
656 2 2.2208 7.96971 1.76912 24.87
657 1 -1.1104 9.51624 -2.38711 26.2402
658 1 -1.1104 9.47101 3.09176 26.357
659 2 2.2208 8.00537 -1.04054 22.0114
660 2 2.2208 8.09108 4.55436 22.0206
661 1 -1.1104 9.47144 0.213227 23.3826
662 1 -1.1104 9.3722 0.34282 26.169
667 2 2.2208 8.12042 18.5871 24.8188
388 2 2.2208 8.07211 -1.0684 27.6313
642 2 2.2208 -0.277374 -1.01487 24.8153
512 1 -1.1104 3.8236 5.99928 20.6142
487 1 -1.1104 1.09157 8.69845 20.5138
641 2 2.2208 10.9623 21.4722 24.8519
674 2 2.2208 5.15847 7.37584 22.1225
675 2 2.2208 5.31396 12.9403 22.1031
676 1 -1.1104 0.977599 8.70679 23.398
678 1 -1.1104 1.07914 8.71468 26.2362
680 1 -1.1104 1.12137 5.90825 23.459
681 1 -1.1104 1.09487 11.5505 23.566
684 2 2.2208 5.30663 10.1258 24.8715
685 1 -1.1104 1.07238 5.90508 26.1866
686 1 -1.1104 1.03145 11.4843 26.2692
689 1 -1.1104 3.85632 8.77104 23.5108
690 2 2.2208 2.46567 7.30494 24.8916
691 2 2.2208 2.52706 12.8777 24.8414
692 1 -1.1104 3.86106 8.64486 26.2848
693 2 2.2208 2.47481 10.2249 22.1116
694 1 -1.1104 3.81045 5.96068 23.4845
695 1 -1.1104 3.83524 11.5578 23.4026
696 1 -1.1104 3.97852 5.97392 26.3104
697 1 -1.1104 3.89434 11.549 26.143
362 2 2.2208 13.608 12.9635 13.6813
446 2 2.2208 13.6387 4.56554 22.0134
701 1 -1.1104 9.41383 17.1192 23.4501
679 1 -1.1104 6.70733 8.78583 26.1746
636 1 -1.1104 12.1772 17.1846 23.5199
698 1 -1.1104 9.46975 19.8948 26.2284
489 1 -1.1104 6.4725 8.75433 20.699
534 1 -1.1104 9.42985 8.76109 20.6678
703 2 2.2208 -0.274835 12.9658 22.0921
677 1 -1.1104 6.7057 8.65015 23.4546
687 1 -1.1104 6.67894 6.0263 26.2086
688 1 -1.1104 6.68371 11.5854 26.1623
682 1 -1.1104 6.63017 5.97041 23.4158
683 1 -1.1104 6.6811 11.4767 23.3252
705 1 -1.1104 9.4974 11.5839 26.2075
706 1 -1.1104 9.37776 5.88384 26.2708
707 1 -1.1104 9.39816 11.6177 23.4963
708 1 -1.1104 9.49439 5.87749 23.5229
709 2 2.2208 8.08268 10.1677 22.052
710 1 -1.1104 9.41028 8.72263 26.2456
711 2 2.2208 8.07386 13.023 24.8379
712 2 2.2208 8.08226 7.29608 24.7923
713 2 2.2208 10.865 7.29801 22.0425
714 2 2.2208 10.8072 12.9841 22.0792
715 1 -1.1104 12.2759 8.74051 23.2901
716 1 -1.1104 12.243 8.70512 26.205
717 1 -1.1104 12.2733 5.97274 23.4208
718 1 -1.1104 12.1955 11.5619 23.379
719 2 2.2208 10.7924 10.1387 24.8267
720 1 -1.1104 12.1694 5.99598 26.1843
721 1 -1.1104 12.3119 11.474 26.1325
722 1 -1.1104 9.49767 8.77 23.5358
607 2 2.2208 10.8537 18.5394 22.0233
608 1 -1.1104 12.308 14.3653 23.4197
572 1 -1.1104 3.85172 19.799 20.7107
563 1 -1.1104 1.16526 17.0215 20.7318
570 1 -1.1104 3.82783 14.2632 20.8365
551 1 -1.1104 1.20902 14.3186 20.681
635 1 -1.1104 12.3079 19.9934 26.2714
364 2 2.2208 10.8292 10.1395 13.6551
733 1 -1.1104 1.07365 20.0014 26.2123
731 1 -1.1104 3.79883 14.4806 23.6017
729 1 -1.1104 3.83355 19.9054 23.6485
740 1 -1.1104 1.09777 19.8326 23.3978
738 2 2.2208 5.28386 15.7237 24.8583
737 2 2.2208 5.29691 21.3936 24.8828
735 1 -1.1104 1.02238 14.2192 26.1947
734 1 -1.1104 1.13789 17.0883 26.305
745 1 -1.1104 3.87641 17.0868 26.2716
744 2 2.2208 2.53228 18.5211 24.9344
743 1 -1.1104 3.86291 19.9217 26.305
742 2 2.2208 5.27999 18.4557 22.0763
741 1 -1.1104 1.1534 14.2976 23.4771
746 1 -1.1104 3.81724 14.2507 26.3815
750 2 2.2208 2.54865 21.2663 22.15
749 1 -1.1104 3.86068 17.1148 23.4795
748 1 -1.1104 1.06932 17.0534 23.5007
727 2 2.2208 2.50054 15.6356 22.103
670 1 -1.1104 6.65317 19.872 26.276
481 2 2.2208 -0.313537 7.29866 16.4452
663 1 -1.1104 12.3814 17.1412 26.2404
633 1 -1.1104 12.3244 19.8919 23.3995
665 1 -1.1104 9.44938 19.982 23.494
730 1 -1.1104 6.6419 14.3399 26.0999
557 1 -1.1104 6.64689 19.8851 20.6129
739 1 -1.1104 6.70703 14.3655 23.4736
732 1 -1.1104 6.70732 17.1496 26.3206
704 1 -1.1104 9.57633 17.1105 26.1594
699 2 2.2208 7.99379 15.7601 22.0791
517 2 2.2208 13.598 12.93 19.2566
702 2 2.2208 -0.317234 10.085 24.8524
723 2 2.2208 -0.223903 18.5356 22.0646
477 2 2.2208 13.6455 -1.09926 16.396
725 2 2.2208 -0.228273 15.7447 24.919
543 2 2.2208 13.7082 10.1509 16.4032
391 2 2.2208 13.6676 -1.09041 27.5437
666 2 2.2208 13.6432 -3.85538 24.8331
478 2 2.2208 13.7118 21.3137 16.3341
579 2 2.2208 13.7122 4.52206 16.5048
379 2 2.2208 8.07347 21.3276 27.638
405 2 2.2208 2.47296 21.2913 27.6437
361 2 2.2208 2.52784 12.9093 13.6692
367 2 2.2208 -0.281193 4.54972 13.6803
355 2 2.2208 8.03117 1.76396 13.6725
378 2 2.2208 10.8728 18.5455 27.5538
400 2 2.2208 10.8932 12.9705 27.5808
392 2 2.2208 13.6087 4.56846 27.6277
349 2 2.2208 2.51376 1.6397 13.6609
402 2 2.2208 13.6571 10.1774 27.5999
751 2 2.2208 5.29989 24.192 5.32523
752 2 2.2208 5.37082 29.768 5.31244
753 1 -1.1104 1.11789 25.5237 1.06616
754 1 -1.1104 1.07374 25.4898 3.86194
755 1 -1.1104 1.06749 22.7042 1.08952
756 1 -1.1104 1.05768 28.3674 1.06612
757 2 2.2208 5.37525 26.9823 2.47697
758 1 -1.1104 1.19033 22.7352 3.77341
759 1 -1.1104 1.11831 28.257 3.8187
760 1 -1.1104 3.97537 25.6682 1.13202
761 2 2.2208 2.51018 24.1921 2.50924
762 2 2.2208 2.54857 29.7259 2.4092
763 1 -1.1104 3.92934 25.6947 4.00942
764 2 2.2208 2.43712 26.9045 5.33221
765 1 -1.1104 3.83639 22.7693 1.0825
766 1 -1.1104 3.92322 28.4617 1.02946
767 1 -1.1104 3.90696 22.8407 4.00487
768 1 -1.1104 4.0456 28.4877 3.80284
899 1 -1.1104 3.791 22.6554 6.73347
771 2 2.2208 -0.264403 26.8792 2.51811
895 1 -1.1104 1.07064 28.294 6.71664
898 1 -1.1104 3.93393 25.5538 6.61235
769 2 2.2208 -0.271682 29.7283 5.31411
897 1 -1.1104 6.7223 28.3405 6.76827
894 1 -1.1104 1.08702 22.7241 6.59976
770 2 2.2208 -0.270235 24.1074 5.16974
1678 1 -1.1104 1.14955 47.9017 9.49979
1106 2 2.2208 8.17154 46.4065 13.5433
1673 1 -1.1104 4.07386 47.8166 6.69242
1675 1 -1.1104 1.1547 47.8459 12.3605
772 1 -1.1104 6.80164 25.6687 1.08286
776 1 -1.1104 6.69923 22.7953 3.80929
774 1 -1.1104 6.619 22.7736 1.02523
773 1 -1.1104 6.70541 25.5395 3.91541
775 1 -1.1104 6.76151 28.3943 1.16137
777 1 -1.1104 6.77421 28.3429 4.03263
778 2 2.2208 10.8669 24.1225 5.353
779 2 2.2208 10.9128 29.7636 5.35244
780 1 -1.1104 12.3703 25.468 0.987774
781 1 -1.1104 12.3318 25.497 3.88597
782 1 -1.1104 12.2148 22.7452 1.14304
783 1 -1.1104 12.2637 28.3163 1.12333
784 2 2.2208 10.9331 26.9347 2.53287
785 1 -1.1104 12.2906 22.8012 3.95157
786 1 -1.1104 12.2963 28.3794 3.94439
787 1 -1.1104 9.51828 25.5304 1.14586
788 2 2.2208 8.07078 24.1654 2.38976
789 2 2.2208 8.14678 29.7028 2.64389
790 1 -1.1104 9.49915 25.3884 3.97348
791 2 2.2208 8.20573 26.8162 5.31999
792 1 -1.1104 9.40339 22.7531 1.0955
793 1 -1.1104 9.53996 28.269 1.0996
794 1 -1.1104 9.47966 22.6125 3.77615
795 1 -1.1104 9.59033 28.3333 3.95793
925 1 -1.1104 12.3663 25.392 6.65058
926 1 -1.1104 12.1685 22.6188 6.74084
1046 1 -1.1104 9.57534 39.5665 12.2756
799 2 2.2208 5.36665 35.3098 5.22642
800 1 -1.1104 1.10431 31.1118 0.99436
801 1 -1.1104 1.16629 36.7533 1.07855
803 1 -1.1104 1.15122 31.0748 3.80338
804 1 -1.1104 1.15328 36.7377 3.81299
806 1 -1.1104 1.17177 33.913 1.1406
807 2 2.2208 5.26388 32.5347 2.44702
808 2 2.2208 5.42548 38.1584 2.47251
809 1 -1.1104 1.12924 33.9628 3.9347
811 1 -1.1104 3.95195 31.1744 1.11927
812 1 -1.1104 3.90908 36.747 1.03384
813 2 2.2208 2.51045 35.3176 2.51632
814 1 -1.1104 3.93343 31.2752 3.87008
815 1 -1.1104 3.93582 36.677 3.75247
816 2 2.2208 2.48811 32.4947 5.25572
817 2 2.2208 2.55667 38.111 5.31169
818 1 -1.1104 3.96306 33.9943 1.04112
819 1 -1.1104 3.86689 33.949 3.93481
953 1 -1.1104 1.14924 33.8407 6.71631
825 1 -1.1104 6.69804 33.9575 1.19142
805 1 -1.1104 6.80455 36.7263 3.8244
821 2 2.2208 -0.229415 32.4483 2.42992
820 2 2.2208 -0.307971 38.0863 2.4792
1032 1 -1.1104 6.77573 42.2762 12.282
1482 1 -1.1104 6.7842 47.7717 3.9162
1084 1 -1.1104 12.3908 47.8607 6.81416
824 1 -1.1104 6.71605 31.1499 3.81098
810 1 -1.1104 6.64082 33.862 3.95723
802 1 -1.1104 6.72194 36.6255 1.06479
823 1 -1.1104 6.68398 31.1084 1.00714
826 2 2.2208 10.9374 35.2444 5.36812
827 1 -1.1104 12.3453 31.1354 1.14133
828 1 -1.1104 12.3902 36.6334 1.1572
829 1 -1.1104 12.3441 31.1613 3.86918
830 1 -1.1104 12.4735 36.7197 3.87456
831 1 -1.1104 12.375 33.8559 1.10749
832 2 2.2208 10.9633 32.5104 2.58096
833 2 2.2208 10.9956 38.028 2.49736
834 1 -1.1104 12.3674 33.9065 3.98954
835 1 -1.1104 9.45356 31.1102 1.2511
836 1 -1.1104 9.71818 36.628 1.12716
837 2 2.2208 8.10032 35.3192 2.53087
838 1 -1.1104 9.58468 31.0802 4.01808
839 1 -1.1104 9.58906 36.6768 3.93669