ITEM: TIMESTEP
60000
ITEM: NUMBER OF ATOMS
17672
ITEM: BOX BOUNDS pp pp pp
-3.1645465566048014e-01 2.7656454655659868e+01
-3.7437999984947599e+00 3.3182379999848894e+02
-3.1626835882497661e-01 2.7656268358825351e+01
ITEM: ATOMS id type q x y z
1 2 2.2208 5.32128 1.92545 5.22267
2 1 -1.1104 1.12807 -2.30487 1.07239
3 1 -1.1104 1.18839 3.21989 1.06423
6 1 -1.1104 1.0656 -2.28418 3.839
7 1 -1.1104 1.01002 3.32441 3.87146
10 1 -1.1104 0.993926 0.439268 1.05774
12 2 2.2208 5.34261 -0.997519 2.46412
13 2 2.2208 5.24124 4.59008 2.47325
14 1 -1.1104 1.10541 0.454118 3.9441
16 1 -1.1104 3.98628 -2.43203 1.12233
17 1 -1.1104 3.91769 3.27457 1.00891
18 2 2.2208 2.42897 1.86077 2.55565
19 1 -1.1104 3.8349 -2.37246 3.8827
20 1 -1.1104 3.8628 3.21087 3.81788
21 2 2.2208 2.48359 -0.894972 5.33118
22 2 2.2208 2.40501 4.67471 5.2902
23 1 -1.1104 3.85453 0.417352 1.0443
24 1 -1.1104 3.85864 0.433498 3.86657
172 1 -1.1104 3.79402 -2.26451 6.72835
26 2 2.2208 -0.305929 1.88719 5.38654
173 1 -1.1104 3.81669 3.34296 6.65119
167 1 -1.1104 1.04545 3.38492 6.65379
174 1 -1.1104 3.89068 0.453063 6.7208
9 1 -1.1104 6.78384 3.30974 3.98265
15 1 -1.1104 6.65173 0.431508 4.07456
358 2 2.2208 -0.275655 10.26 13.6166
135 2 2.2208 -0.263676 15.7551 2.49043
82 2 2.2208 -0.278955 10.2753 2.50917
163 1 -1.1104 9.60272 17.362 6.6304
232 2 2.2208 10.8041 -3.71155 10.8832
314 1 -1.1104 9.33738 17.2215 9.51035
5 1 -1.1104 6.68749 3.16235 1.23068
8 1 -1.1104 6.60568 -2.28861 3.86512
4 1 -1.1104 6.83235 -2.31947 1.09386
11 1 -1.1104 6.66361 0.437834 1.21094
31 2 2.2208 10.868 1.94388 5.37311
32 1 -1.1104 12.3095 -2.28387 1.13049
33 1 -1.1104 12.224 3.22558 1.1591
34 1 -1.1104 12.2251 -2.3454 3.89928
35 1 -1.1104 12.2722 3.23393 3.98529
36 1 -1.1104 12.2204 0.499751 1.16564
37 2 2.2208 10.8282 -0.887969 2.5389
38 2 2.2208 10.806 4.58722 2.59657
39 1 -1.1104 12.2372 0.513666 3.96893
40 1 -1.1104 9.48515 -2.28036 1.0016
41 1 -1.1104 9.48191 3.22604 1.17442
42 2 2.2208 8.03161 1.7873 2.58553
43 1 -1.1104 9.36542 -2.39634 3.8316
44 1 -1.1104 9.43048 3.2278 3.98666
45 2 2.2208 8.13783 -0.915226 5.3463
46 2 2.2208 8.00841 4.66711 5.40998
47 1 -1.1104 9.37087 0.500411 1.11369
48 1 -1.1104 9.50387 0.507793 3.99959
206 1 -1.1104 12.2472 3.27708 6.74676
171 1 -1.1104 6.6786 0.584764 6.75971
208 1 -1.1104 9.45863 -2.35895 6.71798
351 2 2.2208 -0.30483 15.8214 13.6386
205 1 -1.1104 12.217 -2.28423 6.68294
392 2 2.2208 13.6629 4.60266 -0.265556
398 2 2.2208 10.8274 7.46253 -0.196022
311 2 2.2208 -0.230139 21.4631 8.06946
202 2 2.2208 2.49022 -3.59623 8.14295
28 2 2.2208 2.60061 -3.70692 2.54694
54 2 2.2208 5.24848 7.52352 5.23273
55 2 2.2208 5.29513 13.0064 5.37291
56 1 -1.1104 1.13069 8.77527 1.1353
58 1 -1.1104 1.22316 8.95745 3.87634
60 1 -1.1104 1.05737 6.05485 1.04299
61 1 -1.1104 1.16646 11.6195 1.12068
66 2 2.2208 5.37351 10.2945 2.52433
67 1 -1.1104 1.13276 6.08945 3.83143
68 1 -1.1104 1.18286 11.6071 3.88255
71 1 -1.1104 3.96686 8.88777 1.03219
72 2 2.2208 2.53772 7.46882 2.56331
73 2 2.2208 2.61849 13.0094 2.43869
74 1 -1.1104 3.98866 8.81504 3.78834
75 2 2.2208 2.52433 10.2628 5.33173
76 1 -1.1104 3.80908 6.09151 0.980151
77 1 -1.1104 3.94103 11.6347 1.10239
79 1 -1.1104 3.90781 6.04248 3.81875
80 1 -1.1104 4.01183 11.6292 3.83282
234 1 -1.1104 1.13563 8.8624 6.70801
57 1 -1.1104 6.73128 8.80545 1.03821
59 1 -1.1104 6.78105 8.8881 3.94955
62 1 -1.1104 1.09048 11.5923 6.64918
237 1 -1.1104 6.64373 6.09758 6.70494
64 1 -1.1104 6.6793 11.6764 1.2244
327 1 -1.1104 12.2867 20.0878 9.64147
136 2 2.2208 -0.238807 21.4344 2.44088
63 1 -1.1104 6.64228 6.03963 1.15346
70 1 -1.1104 6.8234 11.7109 4.01934
69 1 -1.1104 6.55504 6.0499 3.91639
84 2 2.2208 10.8884 7.42285 5.39169
85 2 2.2208 10.9612 13.0662 5.31297
86 1 -1.1104 12.2675 8.76969 1.10493
87 1 -1.1104 12.2168 8.8054 3.91134
88 1 -1.1104 12.172 6.03547 1.22979
89 1 -1.1104 12.2446 11.6325 1.20551
91 2 2.2208 10.8301 10.2032 2.55138
92 1 -1.1104 12.2055 5.94144 3.99071
93 1 -1.1104 12.3135 11.7547 3.86759
94 1 -1.1104 9.53097 8.8424 1.09459
95 2 2.2208 8.08373 7.37025 2.52004
96 2 2.2208 8.1992 13.1263 2.59625
97 1 -1.1104 9.55108 8.77784 3.9466
98 2 2.2208 8.09736 10.2571 5.36288
99 1 -1.1104 9.42485 6.02243 1.13499
100 1 -1.1104 9.54501 11.5432 1.23579
102 1 -1.1104 9.27454 6.05416 3.97806
103 1 -1.1104 9.57497 11.647 3.97625
101 1 -1.1104 9.49644 11.7531 6.78261
397 2 2.2208 -0.331334 7.48102 -0.248683
231 2 2.2208 7.99363 -3.71454 8.19471
203 2 2.2208 5.20116 -3.63415 10.8623
106 2 2.2208 5.41168 18.6792 5.31901
107 1 -1.1104 1.14993 14.5179 1.02529
109 1 -1.1104 1.12149 20.1045 0.969545
113 1 -1.1104 1.07005 14.4473 3.88585
114 1 -1.1104 1.23181 19.9748 3.90014
116 1 -1.1104 1.1188 17.2363 1.09385
119 2 2.2208 5.36601 15.7709 2.49974
120 2 2.2208 5.31256 21.4808 2.41437
121 1 -1.1104 1.18421 17.3198 3.84328
123 1 -1.1104 3.93644 14.4666 1.05969
125 1 -1.1104 3.93874 20.0628 1.1613
127 2 2.2208 2.59121 18.631 2.50879
128 1 -1.1104 3.86229 14.3936 3.88565
129 1 -1.1104 4.08235 20.0079 3.80461
130 2 2.2208 2.48123 15.8655 5.29801
131 2 2.2208 2.53863 21.3955 5.28617
132 1 -1.1104 3.99653 17.2852 1.14449
134 1 -1.1104 4.05144 17.1921 3.95734
139 1 -1.1104 6.7432 19.976 3.97112
122 1 -1.1104 6.88081 17.3233 3.86043
387 2 2.2208 10.8819 1.88406 -0.234213
137 2 2.2208 -0.276606 18.6125 5.32148
302 1 -1.1104 1.06765 20.0339 6.63874
201 2 2.2208 -0.289859 1.95817 10.8562
401 2 2.2208 -0.202527 18.6467 -0.321448
115 1 -1.1104 6.65754 14.5421 3.98869
138 1 -1.1104 6.75816 20.0089 1.21384
110 1 -1.1104 6.82859 14.4209 1.15422
140 1 -1.1104 6.69144 17.1815 1.07326
141 2 2.2208 10.959 18.7535 5.25777
142 1 -1.1104 12.3497 14.4149 1.15419
144 1 -1.1104 12.2306 20.0129 1.20162
146 1 -1.1104 12.3196 14.4544 3.84326
147 1 -1.1104 12.4042 20.2002 3.98108
148 1 -1.1104 12.3345 17.18 1.08748
150 2 2.2208 10.9397 15.9041 2.47316
151 2 2.2208 10.9652 21.5069 2.54859
152 1 -1.1104 12.4264 17.35 3.86848
153 1 -1.1104 9.55381 14.4403 1.13525
155 1 -1.1104 9.50877 20.0343 1.13655
157 2 2.2208 8.07911 18.7429 2.53118
158 1 -1.1104 9.47719 14.6387 3.87024
159 1 -1.1104 9.50068 20.139 3.92735
160 2 2.2208 8.14362 15.973 5.26233
161 2 2.2208 8.13717 21.481 5.32081
162 1 -1.1104 9.47222 17.2518 1.15529
164 1 -1.1104 9.61788 17.4044 3.75017
145 1 -1.1104 12.3527 20.0797 6.78253
112 1 -1.1104 6.75401 20.0421 6.74389
170 1 -1.1104 1.14218 0.462411 6.76818
166 1 -1.1104 1.06823 -2.31755 6.5856
169 1 -1.1104 6.67506 3.34413 6.70836
343 2 2.2208 -0.261907 10.3084 8.06453
338 2 2.2208 13.6414 4.70575 10.8528
394 2 2.2208 2.49855 10.2263 -0.295438
175 2 2.2208 5.29495 1.86252 10.9452
176 1 -1.1104 0.981391 -2.34815 12.2397
177 1 -1.1104 1.08077 3.34772 12.2796
180 1 -1.1104 1.07301 -2.34797 9.5581
181 1 -1.1104 1.04592 3.32103 9.41908
184 1 -1.1104 1.12783 0.49114 12.3136
186 2 2.2208 5.24681 -0.813652 8.04716
187 2 2.2208 5.26507 4.74545 8.02571
188 1 -1.1104 0.96262 0.543641 9.48567
190 1 -1.1104 3.78237 -2.24389 12.3138
191 1 -1.1104 3.81325 3.21558 12.2386
192 2 2.2208 2.46901 1.90328 8.10045
193 1 -1.1104 3.88548 -2.27102 9.5148
194 1 -1.1104 3.95207 3.35797 9.39458
195 2 2.2208 2.43597 -0.812152 10.9002
196 2 2.2208 2.50268 4.64344 10.9577
197 1 -1.1104 3.88181 0.499849 12.2898
198 1 -1.1104 3.74481 0.601203 9.56292
83 2 2.2208 -0.207306 13.0106 5.35269
395 2 2.2208 5.31424 13.0597 -0.272783
382 2 2.2208 2.41181 -0.862655 -0.312483
350 2 2.2208 -0.251982 21.4227 13.65
323 1 -1.1104 12.1737 17.295 9.3682
209 1 -1.1104 9.48632 3.30471 6.68525
207 1 -1.1104 12.283 0.584517 6.62559
210 1 -1.1104 9.41999 0.435725 6.82112
53 2 2.2208 13.6411 -3.63387 2.50155
168 1 -1.1104 6.61647 -2.17759 6.71427
178 1 -1.1104 6.67266 -2.3539 12.2713
185 1 -1.1104 6.74922 0.513972 12.4372
189 1 -1.1104 6.64915 0.602327 9.67047
179 1 -1.1104 6.65667 3.30254 12.3033
183 1 -1.1104 6.80031 3.18072 9.58268
182 1 -1.1104 6.61606 -2.26271 9.44485
211 2 2.2208 10.9257 1.81739 10.8953
212 1 -1.1104 12.3437 -2.35169 12.2951
213 1 -1.1104 12.338 3.33052 12.2627
214 1 -1.1104 12.2087 -2.33278 9.52979
215 1 -1.1104 12.1459 3.2912 9.53314
216 1 -1.1104 12.3942 0.410611 12.2963
217 2 2.2208 10.8789 -0.947926 8.05159
218 2 2.2208 10.8402 4.72332 8.20483
219 1 -1.1104 12.2141 0.457466 9.55584
220 1 -1.1104 9.53664 -2.1981 12.3401
221 1 -1.1104 9.60298 3.34785 12.3004
222 2 2.2208 8.17588 1.9099 8.22898
223 1 -1.1104 9.50954 -2.26228 9.48636
224 1 -1.1104 9.51099 3.30514 9.46897
225 2 2.2208 8.10607 -0.898668 10.9673
226 2 2.2208 8.20801 4.71025 10.9561
227 1 -1.1104 9.55262 0.469443 12.3705
228 1 -1.1104 9.47873 0.461957 9.5719
289 1 -1.1104 6.65389 17.2731 9.40134
325 2 2.2208 10.9287 15.8522 8.08118
238 1 -1.1104 3.91187 8.90982 6.66802
78 1 -1.1104 3.81548 11.7206 6.70705
235 1 -1.1104 6.64365 8.84781 6.71008
65 1 -1.1104 6.69627 11.6621 6.73482
236 1 -1.1104 1.01231 6.12693 6.66872
239 1 -1.1104 3.78107 6.16905 6.67151
240 2 2.2208 5.23779 7.40054 10.912
241 2 2.2208 5.16315 13.1104 10.8629
242 1 -1.1104 1.13082 8.9311 12.2928
244 1 -1.1104 1.10069 8.9287 9.45674
246 1 -1.1104 1.09509 6.11925 12.3496
247 1 -1.1104 1.02375 11.7707 12.3238
250 2 2.2208 5.28208 10.2279 8.08351
251 1 -1.1104 1.09748 6.13393 9.53033
252 1 -1.1104 1.09282 11.8014 9.44801
255 1 -1.1104 3.94183 8.92153 12.3163
256 2 2.2208 2.49094 7.52007 8.11607
257 2 2.2208 2.44065 13.025 8.05152
258 1 -1.1104 3.89507 8.81503 9.50702
259 2 2.2208 2.51221 10.3063 10.885
260 1 -1.1104 3.78981 6.09315 12.342
261 1 -1.1104 3.80563 11.7023 12.2528
262 1 -1.1104 3.82157 6.05471 9.57065
263 1 -1.1104 3.88287 11.5997 9.46297
322 1 -1.1104 9.38777 14.4443 12.378
254 1 -1.1104 6.69525 11.5766 9.50747
253 1 -1.1104 6.72528 6.00682 9.52132
243 1 -1.1104 6.79078 8.88628 12.2999
90 1 -1.1104 12.3651 11.6756 6.69841
267 1 -1.1104 9.46174 8.90088 6.69866
266 1 -1.1104 12.2814 6.06183 6.76483
265 1 -1.1104 12.2418 8.85861 6.67208
269 1 -1.1104 9.47005 6.12445 6.76457
249 1 -1.1104 6.63559 11.6803 12.2286
245 1 -1.1104 6.64423 8.82475 9.53317
248 1 -1.1104 6.68763 6.02674 12.3011
264 1 -1.1104 9.44434 11.6201 9.42186
268 1 -1.1104 9.48381 6.06598 9.52968
270 1 -1.1104 9.5192 11.642 12.1586
271 1 -1.1104 9.45209 6.18445 12.3587
272 2 2.2208 8.0426 10.2135 10.918
273 1 -1.1104 9.35167 8.81047 9.39887
274 2 2.2208 8.06272 13.0759 8.10659
275 2 2.2208 8.07405 7.4204 8.11029
276 2 2.2208 10.8414 7.59462 10.9547
277 2 2.2208 10.8714 13.0806 10.9107
278 1 -1.1104 12.3809 8.9144 12.3026
279 1 -1.1104 12.2332 8.92303 9.54563
280 1 -1.1104 12.224 6.1181 12.344
281 1 -1.1104 12.4231 11.7458 12.3739
282 2 2.2208 10.8422 10.2824 7.99569
283 1 -1.1104 12.2853 6.18461 9.49862
284 1 -1.1104 12.3501 11.6602 9.485
285 1 -1.1104 9.59544 8.93433 12.3416
318 1 -1.1104 9.53928 20.0511 9.38221
306 1 -1.1104 6.7773 17.3091 12.2321
133 1 -1.1104 3.93237 17.2445 6.74008
124 1 -1.1104 3.9484 14.4127 6.69286
108 1 -1.1104 1.07196 14.4881 6.6971
126 1 -1.1104 3.92264 20.0001 6.67821
118 1 -1.1104 6.76342 17.2004 6.66989
111 1 -1.1104 6.76573 14.4266 6.69456
288 1 -1.1104 6.80399 20.0216 9.55734
297 1 -1.1104 6.55544 14.5465 12.2909
117 1 -1.1104 1.18033 17.2743 6.63333
317 2 2.2208 8.07633 15.852 10.8894
310 2 2.2208 2.53753 15.9002 10.84
309 2 2.2208 2.52114 21.4322 10.8376
308 1 -1.1104 3.88947 17.3727 12.3076
307 1 -1.1104 1.03044 17.2516 12.2197
305 1 -1.1104 3.89246 14.4541 9.45268
304 1 -1.1104 3.88949 17.1743 9.47165
303 2 2.2208 2.46068 18.5846 8.03425
301 1 -1.1104 3.92621 20.0144 9.47736
287 1 -1.1104 3.81238 14.5612 12.295
286 1 -1.1104 3.87402 20.0741 12.2373
300 2 2.2208 5.24625 18.629 10.8516
299 1 -1.1104 1.15819 14.4588 12.324
298 1 -1.1104 1.12721 20.1025 12.3588
295 2 2.2208 5.27856 15.8961 8.04431
294 1 -1.1104 1.15849 14.4941 9.49548
293 2 2.2208 5.33557 21.4283 7.9993
292 1 -1.1104 1.08565 17.3308 9.48145
291 1 -1.1104 1.13844 20.1247 9.47927
296 1 -1.1104 6.66377 20.0969 12.3667
313 2 2.2208 -0.224243 15.8777 8.09015
328 1 -1.1104 12.341 14.4714 9.5359
321 1 -1.1104 9.42704 19.9423 12.2087
315 1 -1.1104 9.56392 17.1719 12.3397
154 1 -1.1104 9.5996 14.5252 6.678
156 1 -1.1104 9.5164 20.1608 6.64247
149 1 -1.1104 12.3904 17.2166 6.67356
143 1 -1.1104 12.3885 14.4938 6.69484
290 1 -1.1104 6.76115 14.4102 9.50948
319 1 -1.1104 9.54453 14.3973 9.53877
329 1 -1.1104 12.2346 20.0037 12.3154
326 1 -1.1104 12.2915 17.2378 12.1035
330 1 -1.1104 12.2873 14.4779 12.3012
320 2 2.2208 8.12104 18.6985 8.08983
316 2 2.2208 8.13633 21.4354 10.8949
324 2 2.2208 10.9749 21.4277 8.08217
331 2 2.2208 10.8623 18.6057 10.8164
29 2 2.2208 5.2865 -3.76316 5.37309
365 2 2.2208 8.06943 13.0895 13.6283
396 2 2.2208 -0.295484 13.1377 -0.288991
30 2 2.2208 -0.324719 -3.72175 5.28137
393 2 2.2208 5.27134 7.42345 -0.279746
204 2 2.2208 -0.281416 -3.70754 10.943
344 2 2.2208 -0.289382 7.48742 10.8755
200 2 2.2208 -0.316837 -0.943769 8.08889
332 2 2.2208 13.6595 18.6508 8.10152
345 2 2.2208 13.6555 21.4658 10.879
105 2 2.2208 13.6323 7.42299 2.5344
335 2 2.2208 13.6532 10.251 5.27306
49 2 2.2208 13.6571 1.84274 2.57464
81 2 2.2208 -0.286913 7.54435 5.29009
384 2 2.2208 -0.2223 -3.71068 -0.280426
379 2 2.2208 8.11498 21.4158 -0.260738
378 2 2.2208 10.9269 18.601 -0.199065
404 2 2.2208 5.33375 18.659 -0.182036
389 2 2.2208 8.06153 4.5779 -0.252925
346 2 2.2208 -0.308785 -0.905074 13.6212
377 2 2.2208 8.09116 15.8397 -0.209547
353 2 2.2208 8.16933 -3.66733 13.6443
400 2 2.2208 10.8748 13.0492 -0.190607
403 2 2.2208 2.51998 15.9275 -0.314496
372 2 2.2208 10.8124 21.3305 13.6597
402 2 2.2208 13.6122 10.2249 -0.194043
388 2 2.2208 8.06453 -0.901363 -0.28521
381 2 2.2208 5.21435 1.83424 -0.281217
406 2 2.2208 5.30547 1.87216 16.576
407 1 -1.1104 1.10179 -2.34027 17.8405
408 1 -1.1104 1.15725 3.18209 17.8464
411 1 -1.1104 1.06233 -2.30235 15.0212
413 1 -1.1104 1.21387 3.29003 15.0193
419 1 -1.1104 1.14142 0.462746 17.9156
421 2 2.2208 5.32675 -0.954611 19.3318
422 2 2.2208 5.19771 4.62337 19.3583
423 1 -1.1104 1.18721 0.523904 15.0283
427 1 -1.1104 3.94144 -2.2752 17.9344
428 1 -1.1104 3.79633 3.2953 17.9663
429 2 2.2208 2.53784 1.78 19.3619
430 1 -1.1104 3.91052 -2.31958 15.032
432 1 -1.1104 4.00087 3.3027 15.069
434 2 2.2208 2.49981 -0.899221 16.5231
435 2 2.2208 2.52639 4.72192 16.4294
436 1 -1.1104 3.94182 0.484406 17.944
437 1 -1.1104 3.95227 0.466149 15.0908
348 2 2.2208 5.32805 -0.919235 13.7435
433 1 -1.1104 3.92622 3.14949 20.7709
410 1 -1.1104 6.69591 3.36168 17.8762
364 2 2.2208 10.8922 10.313 13.7
409 1 -1.1104 6.68259 -2.2345 17.9304
361 2 2.2208 2.52519 13.0525 13.7396
474 2 2.2208 11.0812 -3.7039 16.5142
442 2 2.2208 -0.263518 1.86794 16.4576
431 1 -1.1104 4.0067 -2.31034 20.6788
369 2 2.2208 5.26939 21.4149 13.6956
371 2 2.2208 5.33254 15.8493 13.6783
355 2 2.2208 8.13588 1.91918 13.7109
475 2 2.2208 8.15957 -3.6771 19.2963
349 2 2.2208 2.53208 1.9227 13.7307
420 1 -1.1104 6.73333 0.558074 17.9179
425 1 -1.1104 6.75423 0.505697 15.1305
417 1 -1.1104 6.65969 3.23978 15.0935
415 1 -1.1104 6.6562 -2.33887 15.168
449 2 2.2208 10.8963 1.91142 16.5081
450 1 -1.1104 12.378 -2.40586 17.9211
451 1 -1.1104 12.317 3.2326 17.8057
452 1 -1.1104 12.3933 -2.29239 15.0976
454 1 -1.1104 12.3284 3.31052 15.0975
456 1 -1.1104 12.3594 0.470432 17.8584
457 2 2.2208 10.8993 -0.863372 19.3153
458 2 2.2208 10.9127 4.69188 19.254
459 1 -1.1104 12.3808 0.564277 15.06
461 1 -1.1104 9.58185 -2.24212 17.8464
462 1 -1.1104 9.50023 3.34585 17.9204
463 2 2.2208 8.04215 1.93065 19.291
464 1 -1.1104 9.60452 -2.42345 15.0808
466 1 -1.1104 9.54009 3.37046 15.1262
468 2 2.2208 8.16708 -0.841014 16.4725
469 2 2.2208 8.12708 4.69753 16.5711
470 1 -1.1104 9.54874 0.559932 17.889
471 1 -1.1104 9.63669 0.513399 15.0873
426 1 -1.1104 6.77108 0.405859 20.7614
472 1 -1.1104 9.51005 0.490099 20.6071
465 1 -1.1104 9.55424 -2.1917 20.7606
455 1 -1.1104 12.2714 3.18392 20.6527
453 1 -1.1104 12.298 -2.37356 20.6909
441 2 2.2208 2.50908 -3.73247 19.3088
636 1 -1.1104 12.3984 17.21 23.4561
368 2 2.2208 2.45727 18.6088 13.6753
482 2 2.2208 5.31994 7.42381 16.5014
483 2 2.2208 5.30099 13.1148 16.6278
484 1 -1.1104 1.10797 8.85075 17.9283
486 1 -1.1104 1.03856 8.91811 15.0757
490 1 -1.1104 1.10751 6.07609 17.8535
491 1 -1.1104 1.0369 11.5944 17.9111
494 2 2.2208 5.42684 10.216 19.3204
495 1 -1.1104 1.10396 6.15504 15.1626
497 1 -1.1104 1.1666 11.5517 15.1033
503 1 -1.1104 3.91479 8.82044 17.887
504 2 2.2208 2.55433 7.37527 19.2713
505 2 2.2208 2.51156 13.1374 19.4069
506 1 -1.1104 3.86124 8.90624 15.1449
508 2 2.2208 2.4491 10.2889 16.5569
509 1 -1.1104 3.84457 6.07104 17.815
510 1 -1.1104 3.86443 11.6481 17.9975
511 1 -1.1104 3.97023 6.0741 15.0053
513 1 -1.1104 3.96517 11.6316 15.2704
477 2 2.2208 13.6831 -0.923018 16.5271
507 1 -1.1104 3.92539 8.77318 20.7659
498 1 -1.1104 1.04201 11.7366 20.7141
496 1 -1.1104 1.11921 6.04872 20.5566
493 1 -1.1104 6.70776 11.6736 17.9267
487 1 -1.1104 1.08877 8.91458 20.6565
500 1 -1.1104 6.59061 6.02242 20.8137
663 1 -1.1104 12.2657 17.2282 26.1897
638 2 2.2208 10.8842 15.7598 24.901
514 1 -1.1104 3.89822 11.5375 20.8104
635 1 -1.1104 12.3739 19.8162 26.2291
357 2 2.2208 10.9377 4.73267 13.7005
700 2 2.2208 8.08781 21.3803 22.1983
736 1 -1.1104 6.65162 20.017 23.5634
356 2 2.2208 10.9695 -0.894631 13.7248
488 1 -1.1104 6.69729 8.89705 15.1105
501 1 -1.1104 6.71578 11.6721 15.0512
485 1 -1.1104 6.7474 8.86888 17.8902
499 1 -1.1104 6.76002 6.142 15.0808
492 1 -1.1104 6.68573 6.01985 18.0368
518 2 2.2208 10.8437 7.47606 16.5051
519 2 2.2208 10.944 13.0333 16.5056
520 1 -1.1104 12.2992 8.74565 18.0105
521 1 -1.1104 12.2422 8.81844 15.141
523 1 -1.1104 12.2881 6.05202 17.8555
524 1 -1.1104 12.318 11.6614 17.8165
525 2 2.2208 10.9233 10.2606 19.3869
526 1 -1.1104 12.341 6.08837 15.0951
528 1 -1.1104 12.326 11.6306 15.0226
530 1 -1.1104 9.44596 8.91879 17.8876
531 2 2.2208 8.09754 7.49101 19.3925
532 2 2.2208 8.10214 13.0369 19.4118
533 1 -1.1104 9.43314 8.83572 15.1475
535 2 2.2208 8.0663 10.3184 16.5282
536 1 -1.1104 9.44961 6.11963 17.9265
537 1 -1.1104 9.54945 11.6823 18.0595
538 1 -1.1104 9.50356 6.02172 15.1646
540 1 -1.1104 9.51193 11.6333 15.0879
522 1 -1.1104 12.2447 8.83711 20.7279
489 1 -1.1104 6.69729 8.85028 20.6912
747 1 -1.1104 6.63692 17.2103 23.4728
665 1 -1.1104 9.4933 20.0285 23.5195
607 2 2.2208 10.9003 18.5152 22.1386
516 2 2.2208 -0.2923 12.9907 16.5167
360 2 2.2208 5.28333 10.3167 13.6965
347 2 2.2208 2.4943 -3.70912 13.7499
399 2 2.2208 8.1253 10.2189 27.6179
640 2 2.2208 2.50588 -3.64796 24.8844
545 2 2.2208 5.25553 18.6634 16.4729
546 1 -1.1104 1.12457 14.4452 17.8618
547 1 -1.1104 1.06515 20.0488 17.9845
550 1 -1.1104 1.11538 14.4439 15.0973
552 1 -1.1104 1.10164 19.8494 15.22
558 1 -1.1104 1.02427 17.1803 17.834
560 2 2.2208 5.35869 15.7673 19.3708
561 2 2.2208 5.24345 21.5092 19.2698
562 1 -1.1104 1.05604 17.1648 14.9469
566 1 -1.1104 3.91367 14.4551 17.9192
567 1 -1.1104 3.87522 20.0504 17.877
568 2 2.2208 2.48939 18.6758 19.3093
569 1 -1.1104 3.92132 14.4358 15.1174
571 1 -1.1104 3.97753 20.0468 15.0543
573 2 2.2208 2.49294 15.8119 16.4446
574 2 2.2208 2.5109 21.4542 16.4984
575 1 -1.1104 3.82425 17.225 17.8524
576 1 -1.1104 3.83754 17.1663 15.0942
557 1 -1.1104 6.6654 20.1144 20.7293
670 1 -1.1104 6.69367 20.1478 26.3971
668 2 2.2208 10.8942 -3.72022 22.1562
556 1 -1.1104 6.74308 20.0656 15.2072
564 1 -1.1104 6.63451 17.321 15.0707
548 1 -1.1104 6.73825 14.4734 18.0223
554 1 -1.1104 6.69989 14.4197 15.1313
559 1 -1.1104 6.64801 17.2891 17.8726
549 1 -1.1104 6.63724 20.1284 17.9451
581 2 2.2208 10.7898 18.6029 16.3874
582 1 -1.1104 12.3404 14.4133 17.8828
583 1 -1.1104 12.2281 20.0169 17.7692
584 1 -1.1104 12.2785 14.4643 15.0927
586 1 -1.1104 12.3075 20.0324 15.0184
588 1 -1.1104 12.2123 17.2491 17.8887
589 2 2.2208 10.8493 15.847 19.2734
590 2 2.2208 10.9035 21.3354 19.2554
591 1 -1.1104 12.3426 17.2497 14.9304
593 1 -1.1104 9.44867 14.3892 18.005
594 1 -1.1104 9.44735 19.9931 17.8057
595 2 2.2208 8.05014 18.6983 19.2641
596 1 -1.1104 9.39795 14.4377 15.0954
598 1 -1.1104 9.56609 19.9445 14.9046
600 2 2.2208 8.11656 15.8156 16.5829
601 2 2.2208 8.09709 21.4225 16.4182
602 1 -1.1104 9.42104 17.2475 17.8753
603 1 -1.1104 9.49843 17.164 15.1494
585 1 -1.1104 12.3247 14.4624 20.7795
359 2 2.2208 2.48524 7.54261 13.763
667 2 2.2208 8.09114 18.5845 24.9647
445 2 2.2208 13.6419 10.2911 22.1242
439 2 2.2208 -0.296589 -3.71463 16.5144
424 1 -1.1104 1.12001 0.400623 20.6647
414 1 -1.1104 1.18343 3.22691 20.636
412 1 -1.1104 1.14929 -2.35425 20.6884
438 1 -1.1104 3.96104 0.452452 20.8565
723 2 2.2208 -0.268996 18.6515 22.0571
609 2 2.2208 5.2838 1.81607 22.1916
610 1 -1.1104 1.13663 -2.20431 23.5729
611 1 -1.1104 1.15816 3.31989 23.5722
614 1 -1.1104 1.10496 -2.23763 26.2693
615 1 -1.1104 1.02266 3.31241 26.3015
618 1 -1.1104 1.10693 0.489317 23.3946
620 2 2.2208 5.32545 -0.978707 24.956
621 2 2.2208 5.34505 4.62755 24.9831
622 1 -1.1104 1.0119 0.628884 26.2231
624 1 -1.1104 3.89259 -2.29586 23.5152
625 1 -1.1104 3.89855 3.28145 23.5181
626 2 2.2208 2.50133 1.89837 24.8986
627 1 -1.1104 3.91998 -2.30179 26.3552
628 1 -1.1104 3.89942 3.30545 26.228
629 2 2.2208 2.52279 -0.973903 22.0923
630 2 2.2208 2.49107 4.69472 22.1815
631 1 -1.1104 3.91788 0.497597 23.6554
632 1 -1.1104 3.83803 0.445542 26.3665
375 2 2.2208 13.6781 21.4069 27.6285
673 1 -1.1104 9.57621 14.473 26.3547
443 2 2.2208 -0.282709 -0.957196 19.2494
701 1 -1.1104 9.49147 17.1678 23.4144
669 2 2.2208 8.19951 -3.69752 24.9648
416 1 -1.1104 6.67448 -2.42115 20.74
460 1 -1.1104 12.3284 0.366232 20.587
418 1 -1.1104 6.72161 3.31772 20.7697
623 1 -1.1104 6.73475 0.410593 26.4057
467 1 -1.1104 9.54548 3.25072 20.5691
616 1 -1.1104 6.71284 -2.36711 26.3693
619 1 -1.1104 6.7553 0.454946 23.5199
617 1 -1.1104 6.71206 3.09075 26.3951
613 1 -1.1104 6.70734 3.32723 23.6135
612 1 -1.1104 6.68159 -2.22909 23.5169
645 2 2.2208 10.7827 1.78676 22.0962
646 1 -1.1104 12.377 -2.23868 23.3957
647 1 -1.1104 12.2471 3.2252 23.4654
648 1 -1.1104 12.3264 -2.30964 26.2348
649 1 -1.1104 12.3001 3.1104 26.2586
650 1 -1.1104 12.2299 0.504421 23.5234
651 2 2.2208 10.9093 -0.947183 24.9283
652 2 2.2208 10.8515 4.58595 24.9095
653 1 -1.1104 12.3134 0.447239 26.3827
654 1 -1.1104 9.50515 -2.28816 23.4406
655 1 -1.1104 9.42849 3.28982 23.4789
656 2 2.2208 8.13658 1.83386 24.9024
657 1 -1.1104 9.53544 -2.35098 26.2971
658 1 -1.1104 9.42891 3.21466 26.2447
659 2 2.2208 8.08706 -0.989816 22.1533
660 2 2.2208 8.11202 4.71704 22.0869
661 1 -1.1104 9.536 0.501446 23.5075
662 1 -1.1104 9.49406 0.341507 26.3395
698 1 -1.1104 9.52044 20.0064 26.3277
512 1 -1.1104 3.90088 5.97857 20.7999
699 2 2.2208 8.09577 15.8624 22.0997
480 2 2.2208 13.6478 15.9039 16.4446
674 2 2.2208 5.28761 7.41642 22.0652
675 2 2.2208 5.25866 13.0542 22.0871
676 1 -1.1104 1.08771 8.7917 23.4736
678 1 -1.1104 1.0118 8.90074 26.2651
680 1 -1.1104 1.04295 6.05434 23.3797
681 1 -1.1104 1.0015 11.6566 23.4991
684 2 2.2208 5.28496 10.2168 24.8577
685 1 -1.1104 1.1152 6.18088 26.1989
686 1 -1.1104 1.01252 11.709 26.3112
689 1 -1.1104 3.80856 8.95632 23.5566
690 2 2.2208 2.40604 7.56245 24.8943
691 2 2.2208 2.38128 13.1103 24.9266
692 1 -1.1104 4.00429 8.87492 26.2692
693 2 2.2208 2.45787 10.1937 22.0107
694 1 -1.1104 3.86007 6.15279 23.6017
695 1 -1.1104 3.90976 11.7495 23.5412
696 1 -1.1104 3.85624 6.06331 26.2355
697 1 -1.1104 3.91238 11.8074 26.3566
683 1 -1.1104 6.69921 11.6218 23.5151
502 1 -1.1104 6.6097 11.7076 20.6556
688 1 -1.1104 6.73503 11.7296 26.2702
677 1 -1.1104 6.71292 8.79583 23.4023
679 1 -1.1104 6.75181 8.8276 26.197
565 1 -1.1104 6.68774 17.2557 20.6963
704 1 -1.1104 9.55687 17.2512 26.2373
539 1 -1.1104 9.57954 5.98884 20.7265
534 1 -1.1104 9.47319 8.77298 20.6528
529 1 -1.1104 12.3154 11.7789 20.7454
527 1 -1.1104 12.3196 5.96999 20.7665
687 1 -1.1104 6.66614 5.96784 26.3479
541 1 -1.1104 9.44839 11.476 20.8772
682 1 -1.1104 6.69631 6.04028 23.5531
705 1 -1.1104 9.57974 11.6226 26.399
706 1 -1.1104 9.41598 6.03219 26.3492
707 1 -1.1104 9.43133 11.6062 23.5744
708 1 -1.1104 9.49678 6.03072 23.5241
709 2 2.2208 8.10145 10.2155 22.1841
710 1 -1.1104 9.55437 8.80728 26.3253
711 2 2.2208 8.05826 13.0485 24.9508
712 2 2.2208 8.01769 7.37729 24.95
713 2 2.2208 10.8662 7.44909 22.1811
714 2 2.2208 10.9484 13.0622 22.1374
715 1 -1.1104 12.2813 8.89484 23.5341
716 1 -1.1104 12.3232 8.80644 26.3035
717 1 -1.1104 12.2925 6.15277 23.5967
718 1 -1.1104 12.3064 11.6446 23.5507
719 2 2.2208 10.853 10.2203 24.9264
720 1 -1.1104 12.284 5.9333 26.4171
721 1 -1.1104 12.3507 11.6163 26.3051
722 1 -1.1104 9.50115 8.80229 23.496
633 1 -1.1104 12.338 19.9704 23.4779
634 1 -1.1104 12.3292 14.3779 26.3965
577 1 -1.1104 3.79292 17.2072 20.6601
572 1 -1.1104 3.9121 20.0582 20.7038
732 1 -1.1104 6.6973 17.2087 26.2923
724 2 2.2208 -0.319824 21.4425 24.9425
730 1 -1.1104 6.62634 14.4594 26.2393
563 1 -1.1104 1.09025 17.2848 20.6494
570 1 -1.1104 3.87961 14.5175 20.7564
553 1 -1.1104 1.12617 20.0784 20.7192
551 1 -1.1104 1.08324 14.5259 20.6788
746 1 -1.1104 3.88066 14.5575 26.3047
750 2 2.2208 2.49756 21.3592 22.1549
749 1 -1.1104 3.87071 17.3425 23.5221
748 1 -1.1104 1.15316 17.2215 23.482
727 2 2.2208 2.47575 15.9007 22.0631
729 1 -1.1104 3.96789 20.0607 23.5046
731 1 -1.1104 3.80775 14.4292 23.4968
733 1 -1.1104 1.12059 20.0269 26.2249
734 1 -1.1104 1.13036 17.2728 26.273
735 1 -1.1104 1.10552 14.563 26.2533
737 2 2.2208 5.32454 21.4333 24.8696
738 2 2.2208 5.29435 15.8679 24.8865
740 1 -1.1104 1.20242 20.0248 23.5138
741 1 -1.1104 0.973388 14.4991 23.5376
742 2 2.2208 5.3565 18.7135 22.1353
743 1 -1.1104 3.85261 20.0049 26.2662
744 2 2.2208 2.46807 18.612 24.8688
745 1 -1.1104 3.95073 17.3084 26.2482
725 2 2.2208 -0.251786 15.8875 24.857
555 1 -1.1104 6.76465 14.5001 20.7369
642 2 2.2208 -0.302453 -0.86051 24.8207
664 1 -1.1104 9.4418 14.3903 23.5475
739 1 -1.1104 6.69323 14.4118 23.4958
604 1 -1.1104 9.51758 17.2039 20.6492
592 1 -1.1104 12.3326 17.3016 20.659
599 1 -1.1104 9.43007 19.9591 20.7604
587 1 -1.1104 12.2618 19.9484 20.6529
597 1 -1.1104 9.58903 14.3659 20.8423
608 1 -1.1104 12.2659 14.4849 23.5663
641 2 2.2208 10.94 21.3359 24.9141
543 2 2.2208 13.6414 10.2405 16.4475
440 2 2.2208 5.36413 -3.665 16.4992
405 2 2.2208 2.53422 21.5128 27.6091
643 2 2.2208 -0.213125 1.95747 22.096
476 2 2.2208 -0.223057 21.4981 19.3698
373 2 2.2208 10.8873 15.8003 13.6811
363 2 2.2208 8.08311 7.5363 13.7257
367 2 2.2208 -0.230495 4.80101 13.7213
376 2 2.2208 8.08236 18.7054 13.6767
672 2 2.2208 13.6515 1.80755 24.8774
544 2 2.2208 -0.224782 4.69066 19.2757
515 2 2.2208 -0.275014 10.2951 19.3111
644 2 2.2208 -0.245539 4.70021 24.945
391 2 2.2208 13.662 -0.935701 27.6164
352 2 2.2208 5.31452 4.63756 13.7175
383 2 2.2208 2.41387 4.70211 27.6389
751 2 2.2208 5.35754 24.2575 5.286
752 2 2.2208 5.34 29.8913 5.23708
753 1 -1.1104 1.12511 25.6796 1.14442
754 1 -1.1104 1.10361 25.6332 3.86492
755 1 -1.1104 1.03377 22.922 1.10488
756 1 -1.1104 1.17065 28.4276 1.18233
757 2 2.2208 5.33939 26.9949 2.44197
758 1 -1.1104 1.24279 22.7999 3.92326
759 1 -1.1104 1.1373 28.3908 3.87465
760 1 -1.1104 3.96869 25.6632 0.93357
761 2 2.2208 2.5975 24.2711 2.54236
762 2 2.2208 2.55335 29.8511 2.4685
763 1 -1.1104 3.98594 25.5752 3.75567
764 2 2.2208 2.59979 27.0092 5.23538
765 1 -1.1104 3.93918 22.8649 0.958816
766 1 -1.1104 3.99784 28.4012 0.993551
767 1 -1.1104 3.93456 22.7933 3.81502
768 1 -1.1104 3.91505 28.374 3.81063
770 2 2.2208 -0.209996 24.1905 5.3331
898 1 -1.1104 3.9939 25.6226 6.61785
1085 1 -1.1104 9.44162 47.7529 6.67757
895 1 -1.1104 1.14335 28.356 6.64558
900 1 -1.1104 3.96166 28.4066 6.7245
1071 2 2.2208 13.6289 29.8921 8.0013
1099 2 2.2208 8.22103 35.3531 13.655
10354 2 2.2208 13.6012 43.7959 10.6942
820 2 2.2208 -0.286636 38.203 2.47577
1055 1 -1.1104 13.4752 45.2376 12.4698
773 1 -1.1104 6.75084 25.6088 3.92176
777 1 -1.1104 6.61145 28.433 3.93135
776 1 -1.1104 6.70341 22.87 3.80537
775 1 -1.1104 6.75073 28.3832 0.997559
774 1 -1.1104 6.72689 22.894 1.0185
772 1 -1.1104 6.71529 25.6122 1.19224
778 2 2.2208 10.8786 24.2226 5.31639
779 2 2.2208 10.8962 29.7974 5.24782
780 1 -1.1104 12.2642 25.5572 1.13166
781 1 -1.1104 12.3381 25.5033 3.92451
782 1 -1.1104 12.3612 22.774 1.09843
783 1 -1.1104 12.446 28.4803 1.03735
784 2 2.2208 10.908 26.9384 2.47527
785 1 -1.1104 12.3995 22.8739 4.0182
786 1 -1.1104 12.3241 28.3981 3.79908
787 1 -1.1104 9.50785 25.5756 1.07325
788 2 2.2208 8.06324 24.2794 2.50861
789 2 2.2208 8.04853 29.7132 2.45735
790 1 -1.1104 9.47639 25.5977 3.82226
791 2 2.2208 8.12835 27.0734 5.34312
792 1 -1.1104 9.70187 22.8126 1.07707
793 1 -1.1104 9.57197 28.2125 1.10944
794 1 -1.1104 9.54226 22.9622 3.87156
795 1 -1.1104 9.41668 28.3919 3.85629
926 1 -1.1104 12.3299 22.7793 6.73771
925 1 -1.1104 12.3505 25.6461 6.71942
928 1 -1.1104 9.57494 25.6046 6.66904
1057 1 -1.1104 12.3155 42.3867 6.62802
771 2 2.2208 -0.194406 27.0285 2.51914
799 2 2.2208 5.35542 35.493 5.20924
800 1 -1.1104 1.12968 31.2903 1.0418
801 1 -1.1104 1.12075 36.8105 1.12169
803 1 -1.1104 1.06036 31.2047 3.91862
804 1 -1.1104 1.22892 36.7857 3.91654
806 1 -1.1104 1.12421 34.0432 1.15075
807 2 2.2208 5.34639 32.6199 2.42783
808 2 2.2208 5.22878 38.3496 2.43948
809 1 -1.1104 1.16056 34.0014 3.87187
811 1 -1.1104 3.8797 31.1814 1.05448
812 1 -1.1104 3.85522 36.8609 1.03688
813 2 2.2208 2.62276 35.3763 2.53697
814 1 -1.1104 3.91952 31.2416 3.92738
815 1 -1.1104 3.99264 36.912 3.76309
816 2 2.2208 2.59358 32.6542 5.33158
817 2 2.2208 2.51994 38.1994 5.31364
818 1 -1.1104 3.94869 33.9966 1.06139
819 1 -1.1104 3.90595 33.9334 3.83734
1042 2 2.2208 -0.18311 41.0434 10.8312
950 1 -1.1104 1.19082 36.82 6.59628
805 1 -1.1104 6.70316 36.8143 3.77521
810 1 -1.1104 6.78507 34.0071 3.83312
952 1 -1.1104 6.68821 36.775 6.53922
957 1 -1.1104 4.01054 34.1225 6.62557
1044 1 -1.1104 9.54268 39.5763 9.502
954 1 -1.1104 6.75723 34.056 6.65577
1107 2 2.2208 8.17453 40.9963 13.5694
891 2 2.2208 13.5619 40.9353 2.40847
825 1 -1.1104 6.72666 34.0523 1.08299
823 1 -1.1104 6.69113 31.2251 0.96003
802 1 -1.1104 6.64265 36.894 1.12747
824 1 -1.1104 6.61351 31.1708 3.74771
826 2 2.2208 10.9076 35.4248 5.22566
827 1 -1.1104 12.2877 31.2784 1.11129
828 1 -1.1104 12.3568 36.729 1.05238
829 1 -1.1104 12.4004 31.1538 3.83274