ITEM: TIMESTEP
40000
ITEM: NUMBER OF ATOMS
17672
ITEM: BOX BOUNDS pp pp pp
-3.1668398109675810e-01 2.7656683981096347e+01
-3.7540028389866209e+00 3.3183400283898203e+02
-3.2199773842571994e-01 2.7661997738426013e+01
ITEM: ATOMS id type q x y z
1 2 2.2208 5.38431 1.8806 5.3305
2 1 -1.1104 1.17719 -2.37993 1.13074
3 1 -1.1104 1.22819 3.19165 1.28019
6 1 -1.1104 1.08372 -2.28111 3.96502
7 1 -1.1104 1.12196 3.26466 4.03805
10 1 -1.1104 1.16362 0.522214 1.15561
12 2 2.2208 5.21827 -0.882336 2.50185
13 2 2.2208 5.33645 4.66521 2.5011
14 1 -1.1104 1.09247 0.518396 3.86007
16 1 -1.1104 4.02183 -2.26715 1.10175
17 1 -1.1104 3.96234 3.28568 1.13135
18 2 2.2208 2.59259 1.89684 2.56344
19 1 -1.1104 3.83046 -2.36221 3.89822
20 1 -1.1104 3.94774 3.24874 3.94634
21 2 2.2208 2.55144 -0.948312 5.32095
22 2 2.2208 2.43286 4.7242 5.30694
23 1 -1.1104 3.91612 0.480132 1.11064
24 1 -1.1104 3.94058 0.393741 4.00919
4 1 -1.1104 6.64374 -2.37806 1.10043
11 1 -1.1104 6.73817 0.425666 1.11767
5 1 -1.1104 6.6832 3.27637 1.12267
172 1 -1.1104 4.02241 -2.36433 6.74579
174 1 -1.1104 3.83233 0.446314 6.72457
166 1 -1.1104 1.07858 -2.30591 6.77792
169 1 -1.1104 6.72698 3.16118 6.76135
170 1 -1.1104 1.10737 0.572304 6.70257
9 1 -1.1104 6.71696 3.27247 3.9535
339 2 2.2208 13.6784 7.39143 8.13195
377 2 2.2208 8.06249 15.8541 -0.328443
30 2 2.2208 -0.290662 -3.72162 5.35058
8 1 -1.1104 6.69989 -2.23841 3.79767
15 1 -1.1104 6.76598 0.453191 3.93089
31 2 2.2208 10.8728 1.74793 5.31593
32 1 -1.1104 12.3187 -2.32177 1.03513
33 1 -1.1104 12.3621 3.2131 1.29713
34 1 -1.1104 12.2533 -2.44492 3.93704
35 1 -1.1104 12.2928 3.20069 4.04378
36 1 -1.1104 12.3322 0.421905 1.09226
37 2 2.2208 10.9977 -0.959473 2.49223
38 2 2.2208 10.8945 4.63122 2.56678
39 1 -1.1104 12.4413 0.368924 3.92001
40 1 -1.1104 9.57649 -2.34313 1.14283
41 1 -1.1104 9.50677 3.35433 1.13773
42 2 2.2208 8.09242 1.88411 2.47804
43 1 -1.1104 9.47786 -2.36117 4.02519
44 1 -1.1104 9.42574 3.16737 3.85831
45 2 2.2208 8.14492 -0.93658 5.32353
46 2 2.2208 8.14643 4.62285 5.35523
47 1 -1.1104 9.53477 0.486298 1.15792
48 1 -1.1104 9.53797 0.415939 3.95609
202 2 2.2208 2.46293 -3.72857 8.11654
206 1 -1.1104 12.2194 3.14238 6.81373
209 1 -1.1104 9.4534 3.25677 6.69235
210 1 -1.1104 9.46327 0.403701 6.78478
208 1 -1.1104 9.49995 -2.42964 6.81279
329 1 -1.1104 12.4142 19.9476 12.1669
384 2 2.2208 -0.333227 -3.79133 -0.342234
199 2 2.2208 -0.314003 4.67804 8.13833
54 2 2.2208 5.23409 7.40021 5.45432
55 2 2.2208 5.21664 13.0165 5.33971
56 1 -1.1104 1.19199 8.85844 1.25724
58 1 -1.1104 1.04136 8.89212 4.00758
60 1 -1.1104 1.14548 6.12135 1.14621
61 1 -1.1104 1.20623 11.5962 1.1728
66 2 2.2208 5.42898 10.1834 2.53979
67 1 -1.1104 1.14119 6.08698 3.9257
68 1 -1.1104 1.01141 11.6355 3.93921
71 1 -1.1104 4.01201 8.90367 1.21134
72 2 2.2208 2.5732 7.43601 2.6169
73 2 2.2208 2.54685 13.0279 2.5275
74 1 -1.1104 3.89378 8.76538 4.0354
75 2 2.2208 2.53809 10.2292 5.38935
76 1 -1.1104 3.95422 6.16778 1.16694
77 1 -1.1104 4.03354 11.7912 1.11596
79 1 -1.1104 3.86923 6.04332 3.98489
80 1 -1.1104 3.91309 11.5692 3.93857
238 1 -1.1104 3.81948 8.76139 6.85019
62 1 -1.1104 1.07052 11.6993 6.77105
59 1 -1.1104 6.63782 8.72765 3.94486
64 1 -1.1104 6.75792 11.5162 1.09487
69 1 -1.1104 6.77822 5.9173 3.85009
237 1 -1.1104 6.71886 5.93653 6.74114
65 1 -1.1104 6.70359 11.6311 6.72046
239 1 -1.1104 3.91585 6.00476 6.74688
231 2 2.2208 8.04705 -3.69006 8.18445
70 1 -1.1104 6.64866 11.5885 3.90909
57 1 -1.1104 6.81945 8.74834 1.13161
63 1 -1.1104 6.727 5.95168 1.18818
400 2 2.2208 10.8701 13.0744 -0.310642
84 2 2.2208 10.9411 7.40845 5.36288
85 2 2.2208 10.7928 12.9543 5.2464
86 1 -1.1104 12.3579 8.71324 1.08276
87 1 -1.1104 12.2522 8.83372 3.95572
88 1 -1.1104 12.2729 5.94564 1.12362
89 1 -1.1104 12.4637 11.546 1.16783
91 2 2.2208 10.9394 10.2901 2.49152
92 1 -1.1104 12.3832 6.06106 3.93353
93 1 -1.1104 12.2607 11.7462 3.93988
94 1 -1.1104 9.58635 8.9549 1.09796
95 2 2.2208 8.17096 7.42166 2.55657
96 2 2.2208 8.05147 13.0375 2.47824
97 1 -1.1104 9.42544 8.74015 3.87044
98 2 2.2208 8.10261 10.1862 5.28975
99 1 -1.1104 9.52388 6.12714 1.12796
100 1 -1.1104 9.4767 11.7032 1.14167
102 1 -1.1104 9.53157 5.98187 3.99703
103 1 -1.1104 9.44296 11.3995 3.9297
269 1 -1.1104 9.46989 6.12729 6.8022
90 1 -1.1104 12.2519 11.5494 6.62612
266 1 -1.1104 12.2315 5.9837 6.75464
267 1 -1.1104 9.56817 8.86882 6.60928
265 1 -1.1104 12.381 8.80428 6.71455
235 1 -1.1104 6.74791 8.85018 6.70861
106 2 2.2208 5.35111 18.7346 5.23746
107 1 -1.1104 1.16658 14.3373 1.20845
109 1 -1.1104 1.11119 20.0457 1.06255
113 1 -1.1104 1.19733 14.3378 3.94539
114 1 -1.1104 1.10589 19.9309 3.86361
116 1 -1.1104 1.09931 17.2224 1.09383
119 2 2.2208 5.30109 15.8083 2.48408
120 2 2.2208 5.18218 21.4331 2.43145
121 1 -1.1104 1.10584 17.0804 3.84774
123 1 -1.1104 3.89799 14.4863 1.07408
125 1 -1.1104 3.88706 19.9859 1.01865
127 2 2.2208 2.47186 18.5762 2.47014
128 1 -1.1104 3.95143 14.4503 3.90255
129 1 -1.1104 3.91275 20.075 3.88705
130 2 2.2208 2.55498 15.79 5.28322
131 2 2.2208 2.47032 21.4334 5.11737
132 1 -1.1104 3.93805 17.291 1.11021
134 1 -1.1104 3.8993 17.3359 3.86881
138 1 -1.1104 6.6295 20.055 1.04273
139 1 -1.1104 6.67602 20.0587 3.76347
110 1 -1.1104 6.66257 14.393 1.06826
115 1 -1.1104 6.69312 14.3822 3.84492
126 1 -1.1104 3.87763 20.0098 6.6141
117 1 -1.1104 1.16745 17.2729 6.66046
118 1 -1.1104 6.67127 17.2824 6.61251
331 2 2.2208 10.9322 18.6358 10.807
314 1 -1.1104 9.53206 17.2647 9.38342
133 1 -1.1104 3.91321 17.2712 6.69177
108 1 -1.1104 1.07466 14.4333 6.74683
380 2 2.2208 13.7244 18.6302 13.6349
320 2 2.2208 8.16331 18.61 8.02517
140 1 -1.1104 6.782 17.1149 1.05472
122 1 -1.1104 6.74186 17.2695 3.82964
143 1 -1.1104 12.167 14.3473 6.72792
141 2 2.2208 10.9723 18.6156 5.18559
142 1 -1.1104 12.3465 14.4712 1.12063
144 1 -1.1104 12.2638 20.0156 0.960001
146 1 -1.1104 12.3737 14.4179 3.8881
147 1 -1.1104 12.255 19.9967 3.77647
148 1 -1.1104 12.2558 17.2447 0.991111
150 2 2.2208 10.8356 15.7735 2.43892
151 2 2.2208 10.8342 21.3887 2.37742
152 1 -1.1104 12.292 17.1804 3.77217
153 1 -1.1104 9.43804 14.4646 1.10874
155 1 -1.1104 9.42761 20.0503 1.13038
157 2 2.2208 8.101 18.552 2.49476
158 1 -1.1104 9.46105 14.3102 3.84105
159 1 -1.1104 9.39491 19.8772 3.86264
160 2 2.2208 8.10845 15.7879 5.22749
161 2 2.2208 8.05535 21.4983 5.23428
162 1 -1.1104 9.49168 17.3405 1.07793
164 1 -1.1104 9.5813 17.1406 3.84059
145 1 -1.1104 12.2881 20.0006 6.5605
163 1 -1.1104 9.47495 17.1658 6.62821
336 2 2.2208 13.6755 21.3534 5.14629
154 1 -1.1104 9.4384 14.3794 6.60793
112 1 -1.1104 6.63841 20.0936 6.52668
156 1 -1.1104 9.47778 19.9953 6.61933
167 1 -1.1104 1.04034 3.30876 6.78016
173 1 -1.1104 3.9431 3.21233 6.75883
168 1 -1.1104 6.69779 -2.34631 6.67213
393 2 2.2208 5.3351 7.4246 -0.186053
388 2 2.2208 8.08607 -0.89543 -0.249197
175 2 2.2208 5.23091 1.8809 10.967
176 1 -1.1104 1.07782 -2.34336 12.2721
177 1 -1.1104 0.976786 3.33157 12.2957
180 1 -1.1104 1.06464 -2.33265 9.55555
181 1 -1.1104 1.01451 3.26749 9.53014
184 1 -1.1104 1.17161 0.515496 12.2762
186 2 2.2208 5.30382 -0.792254 8.10105
187 2 2.2208 5.32236 4.65045 8.16397
188 1 -1.1104 1.05605 0.370048 9.54331
190 1 -1.1104 3.87203 -2.30195 12.3661
191 1 -1.1104 3.80076 3.20519 12.3545
192 2 2.2208 2.46506 1.87737 8.11873
193 1 -1.1104 3.93196 -2.35629 9.59746
194 1 -1.1104 3.87619 3.26286 9.61978
195 2 2.2208 2.54186 -0.991767 10.9074
196 2 2.2208 2.43543 4.63484 10.9754
197 1 -1.1104 3.90482 0.392494 12.2642
198 1 -1.1104 3.83913 0.46264 9.54994
178 1 -1.1104 6.71082 -2.32764 12.367
185 1 -1.1104 6.6555 0.396331 12.2002
179 1 -1.1104 6.58046 3.29977 12.4746
389 2 2.2208 8.13194 4.66341 -0.219633
171 1 -1.1104 6.71183 0.418322 6.65568
328 1 -1.1104 12.3542 14.4416 9.50776
205 1 -1.1104 12.364 -2.35592 6.70481
207 1 -1.1104 12.1836 0.370125 6.7219
345 2 2.2208 13.7504 21.3382 10.7893
203 2 2.2208 5.35602 -3.62197 11.0231
183 1 -1.1104 6.72114 3.30825 9.6197
189 1 -1.1104 6.58401 0.602883 9.42134
182 1 -1.1104 6.68843 -2.17581 9.51479
211 2 2.2208 10.8395 1.81504 10.8748
212 1 -1.1104 12.2268 -2.40479 12.3765
213 1 -1.1104 12.2853 3.11329 12.2704
214 1 -1.1104 12.233 -2.36605 9.54697
215 1 -1.1104 12.4169 3.21202 9.5661
216 1 -1.1104 12.3767 0.355163 12.4628
217 2 2.2208 10.8806 -0.991711 8.16121
218 2 2.2208 10.8904 4.63585 8.08598
219 1 -1.1104 12.2221 0.388429 9.63337
220 1 -1.1104 9.39938 -2.37758 12.3422
221 1 -1.1104 9.45146 3.26735 12.4235
222 2 2.2208 8.08012 1.87716 8.10102
223 1 -1.1104 9.35611 -2.28404 9.6183
224 1 -1.1104 9.41901 3.26383 9.62517
225 2 2.2208 8.04085 -0.872254 10.9466
226 2 2.2208 8.05048 4.68039 11.0707
227 1 -1.1104 9.53048 0.406887 12.3249
228 1 -1.1104 9.46301 0.455675 9.45949
81 2 2.2208 -0.273592 7.55016 5.37174
52 2 2.2208 10.8562 -3.86767 5.28633
368 2 2.2208 2.44692 18.5848 13.6676
317 2 2.2208 8.11709 15.8438 10.8505
234 1 -1.1104 1.15979 8.85318 6.73482
236 1 -1.1104 1.07603 6.05167 6.77139
78 1 -1.1104 3.94935 11.6505 6.72915
240 2 2.2208 5.28655 7.40048 10.9545
241 2 2.2208 5.32633 13.0448 10.8434
242 1 -1.1104 1.11455 8.86048 12.3385
244 1 -1.1104 0.923476 8.92123 9.58729
246 1 -1.1104 1.08591 6.15478 12.3444
247 1 -1.1104 1.15545 11.658 12.3231
250 2 2.2208 5.29752 10.1688 8.09703
251 1 -1.1104 1.01336 6.06857 9.56876
252 1 -1.1104 1.10917 11.7592 9.50852
255 1 -1.1104 3.84528 8.8097 12.2947
256 2 2.2208 2.43705 7.4148 8.13502
257 2 2.2208 2.54154 13.085 8.12735
258 1 -1.1104 3.91812 8.78704 9.50552
259 2 2.2208 2.43434 10.3398 10.9078
260 1 -1.1104 3.86348 6.00092 12.2427
261 1 -1.1104 3.97655 11.6896 12.3265
262 1 -1.1104 3.87465 6.08953 9.52466
263 1 -1.1104 3.91256 11.6046 9.5097
254 1 -1.1104 6.63164 11.5905 9.49151
249 1 -1.1104 6.75873 11.6339 12.3099
245 1 -1.1104 6.66523 8.69867 9.49409
101 1 -1.1104 9.47593 11.5897 6.66703
248 1 -1.1104 6.66532 6.044 12.3409
243 1 -1.1104 6.69094 8.7875 12.2252
253 1 -1.1104 6.69857 5.99763 9.54561
264 1 -1.1104 9.56019 11.6763 9.40612
268 1 -1.1104 9.43765 6.0674 9.66515
270 1 -1.1104 9.59147 11.4872 12.2165
271 1 -1.1104 9.61609 5.97848 12.5276
272 2 2.2208 8.01156 10.1888 10.8597
273 1 -1.1104 9.5209 8.93064 9.4976
274 2 2.2208 8.11007 13.0751 8.0315
275 2 2.2208 8.08998 7.41869 8.15684
276 2 2.2208 10.9842 7.39619 10.9123
277 2 2.2208 10.8738 13.0452 10.8367
278 1 -1.1104 12.3888 8.80892 12.3061
279 1 -1.1104 12.3172 8.81601 9.53981
280 1 -1.1104 12.3737 5.9207 12.3767
281 1 -1.1104 12.3083 11.5951 12.2825
282 2 2.2208 10.8228 10.2538 8.0407
283 1 -1.1104 12.1878 6.00039 9.46817
284 1 -1.1104 12.2947 11.5858 9.45429
285 1 -1.1104 9.53638 8.7505 12.3669
51 2 2.2208 8.11354 -3.75742 2.57247
322 1 -1.1104 9.50836 14.3152 12.3522
383 2 2.2208 2.64598 4.64624 -0.280935
387 2 2.2208 10.9579 1.90756 -0.248551
25 2 2.2208 -0.255987 -0.924918 2.43983
343 2 2.2208 -0.445474 10.3449 8.24312
326 1 -1.1104 12.3322 17.3194 12.2077
111 1 -1.1104 6.71474 14.4617 6.63952
124 1 -1.1104 3.91453 14.4277 6.62863
327 1 -1.1104 12.2664 19.9916 9.39523
338 2 2.2208 13.6645 4.58511 10.9431
289 1 -1.1104 6.63569 17.1787 9.47485
296 1 -1.1104 6.64473 20.0059 12.201
302 1 -1.1104 1.06823 19.9945 6.74819
290 1 -1.1104 6.74241 14.3577 9.49374
306 1 -1.1104 6.78528 17.247 12.2707
297 1 -1.1104 6.75537 14.3917 12.1836
310 2 2.2208 2.5039 15.9638 10.8598
309 2 2.2208 2.50704 21.4651 10.8789
308 1 -1.1104 3.9372 17.2701 12.2893
307 1 -1.1104 1.02388 17.1436 12.2101
305 1 -1.1104 3.87728 14.4599 9.50384
304 1 -1.1104 3.91731 17.2733 9.52447
303 2 2.2208 2.60648 18.6261 8.0373
301 1 -1.1104 3.99952 20.0862 9.46217
287 1 -1.1104 3.94179 14.4815 12.3234
286 1 -1.1104 3.86293 20.1328 12.3467
300 2 2.2208 5.29273 18.6078 10.8251
299 1 -1.1104 1.14744 14.432 12.3672
298 1 -1.1104 1.117 20.028 12.2379
295 2 2.2208 5.18008 15.7662 8.0183
294 1 -1.1104 1.09687 14.6236 9.50575
293 2 2.2208 5.32482 21.4873 8.02289
292 1 -1.1104 1.18532 17.3282 9.45592
291 1 -1.1104 1.14405 20.1257 9.44836
369 2 2.2208 5.27796 21.4338 13.6142
357 2 2.2208 10.8837 4.65317 13.7778
288 1 -1.1104 6.67705 19.9973 9.35197
319 1 -1.1104 9.50953 14.465 9.49994
315 1 -1.1104 9.57921 17.1787 12.0951
165 2 2.2208 13.5938 18.617 2.36141
323 1 -1.1104 12.2851 17.2351 9.37464
324 2 2.2208 10.9287 21.4212 8.03982
330 1 -1.1104 12.3726 14.423 12.2988
321 1 -1.1104 9.44801 19.9713 12.2404
325 2 2.2208 10.9624 15.8185 8.01264
316 2 2.2208 8.1163 21.469 10.8737
149 1 -1.1104 12.2956 17.1257 6.5757
318 1 -1.1104 9.46991 20.0381 9.38134
27 2 2.2208 -0.220524 4.67854 2.62091
230 2 2.2208 13.6602 -0.982713 11.0429
135 2 2.2208 -0.345093 15.793 2.39972
337 2 2.2208 13.7687 15.8377 5.26689
365 2 2.2208 8.12818 12.9905 13.6895
372 2 2.2208 10.9068 21.4367 13.6022
355 2 2.2208 8.14571 1.85548 13.7727
352 2 2.2208 5.2118 4.68296 13.8097
398 2 2.2208 10.9197 7.48954 -0.290134
405 2 2.2208 2.53222 21.4729 -0.409778
395 2 2.2208 5.3244 13.012 -0.36175
381 2 2.2208 5.22941 1.89052 -0.310142
399 2 2.2208 8.13403 10.1667 -0.356871
366 2 2.2208 13.7328 7.41791 13.7525
403 2 2.2208 2.43159 15.8473 -0.224894
394 2 2.2208 2.61627 10.1464 -0.248851
373 2 2.2208 10.8822 15.8192 13.6384
378 2 2.2208 10.9303 18.6198 -0.369703
406 2 2.2208 5.29452 1.86948 16.5218
407 1 -1.1104 1.15023 -2.48124 17.8592
408 1 -1.1104 1.04924 3.22844 17.9582
411 1 -1.1104 1.09421 -2.26022 15.0994
413 1 -1.1104 1.14803 3.36122 15.1499
419 1 -1.1104 1.15948 0.486643 17.8733
421 2 2.2208 5.24272 -0.917427 19.3118
422 2 2.2208 5.28737 4.68427 19.3189
423 1 -1.1104 1.06699 0.528458 15.1247
427 1 -1.1104 3.85268 -2.27081 17.868
428 1 -1.1104 3.84577 3.24522 17.9229
429 2 2.2208 2.40331 1.87508 19.3594
430 1 -1.1104 3.92885 -2.31201 15.1228
432 1 -1.1104 3.90088 3.23702 15.1095
434 2 2.2208 2.5495 -0.94661 16.5357
435 2 2.2208 2.48475 4.7109 16.5995
436 1 -1.1104 3.88537 0.435833 17.9296
437 1 -1.1104 3.93788 0.508856 15.1352
438 1 -1.1104 3.8694 0.45742 20.7766
420 1 -1.1104 6.61167 0.485531 17.9474
431 1 -1.1104 3.83785 -2.35674 20.6384
433 1 -1.1104 3.87905 3.18688 20.7125
410 1 -1.1104 6.67839 3.26668 17.9247
412 1 -1.1104 1.1027 -2.33508 20.6425
409 1 -1.1104 6.68882 -2.31508 17.932
415 1 -1.1104 6.65114 -2.37068 15.1165
416 1 -1.1104 6.71195 -2.33288 20.696
673 1 -1.1104 9.47357 14.3769 26.2003
606 2 2.2208 13.6202 21.4877 21.9738
579 2 2.2208 13.7704 4.58439 16.5417
425 1 -1.1104 6.64675 0.466833 15.0821
417 1 -1.1104 6.72132 3.31053 15.282
426 1 -1.1104 6.78832 0.440756 20.706
449 2 2.2208 10.9345 1.84353 16.5961
450 1 -1.1104 12.3812 -2.21548 17.9455
451 1 -1.1104 12.2885 3.23967 17.912
452 1 -1.1104 12.1935 -2.34787 15.1798
454 1 -1.1104 12.3752 3.21996 15.1476
456 1 -1.1104 12.3217 0.492761 17.8713
457 2 2.2208 10.9607 -0.882237 19.2857
458 2 2.2208 10.9515 4.70436 19.3109
459 1 -1.1104 12.248 0.418332 15.2256
461 1 -1.1104 9.58943 -2.30082 18.0141
462 1 -1.1104 9.43682 3.35653 17.9565
463 2 2.2208 8.07739 1.91263 19.3628
464 1 -1.1104 9.42968 -2.34641 15.1713
466 1 -1.1104 9.58466 3.20613 15.155
468 2 2.2208 8.04072 -0.986839 16.6848
469 2 2.2208 8.06745 4.72709 16.6024
470 1 -1.1104 9.47266 0.534145 17.9399
471 1 -1.1104 9.46992 0.410989 15.2309
472 1 -1.1104 9.57954 0.456602 20.6763
349 2 2.2208 2.52636 1.80594 13.7005
467 1 -1.1104 9.45363 3.16895 20.7668
455 1 -1.1104 12.2933 3.25395 20.6803
460 1 -1.1104 12.321 0.539284 20.6765
453 1 -1.1104 12.3632 -2.35152 20.7791
363 2 2.2208 8.13023 7.48465 13.728
465 1 -1.1104 9.49409 -2.33531 20.7375
725 2 2.2208 -0.393008 15.8481 24.905
482 2 2.2208 5.34809 7.42791 16.5422
483 2 2.2208 5.2317 13.0075 16.4889
484 1 -1.1104 1.04511 8.90448 17.9335
486 1 -1.1104 0.996832 8.81185 15.0684
490 1 -1.1104 1.15148 6.15602 18.0792
491 1 -1.1104 1.15842 11.5625 17.93
494 2 2.2208 5.32027 10.2478 19.3215
495 1 -1.1104 1.09598 6.1394 15.2331
497 1 -1.1104 1.20898 11.6283 15.2247
503 1 -1.1104 3.85857 8.86822 17.9369
504 2 2.2208 2.52587 7.47942 19.3697
505 2 2.2208 2.4527 13.0815 19.3754
506 1 -1.1104 3.90257 8.83698 15.2144
508 2 2.2208 2.49385 10.1541 16.5595
509 1 -1.1104 3.89948 6.088 17.9572
510 1 -1.1104 3.96277 11.6059 17.9383
511 1 -1.1104 3.91339 6.00814 15.0853
513 1 -1.1104 3.95694 11.7005 15.0475
488 1 -1.1104 6.68932 8.85457 15.1165
493 1 -1.1104 6.79211 11.5705 17.97
485 1 -1.1104 6.67659 8.79504 17.9069
492 1 -1.1104 6.73022 6.12281 17.9162
499 1 -1.1104 6.72076 6.06911 15.1481
501 1 -1.1104 6.717 11.5662 15.124
496 1 -1.1104 1.18798 6.10835 20.8077
487 1 -1.1104 1.1219 8.93296 20.7375
512 1 -1.1104 3.964 6.05373 20.7577
498 1 -1.1104 1.00724 11.6949 20.745
489 1 -1.1104 6.69913 8.83117 20.7324
665 1 -1.1104 9.58936 19.9819 23.4543
473 2 2.2208 13.696 -3.70773 19.2782
474 2 2.2208 10.9123 -3.69349 16.51
371 2 2.2208 5.29855 15.8235 13.6241
500 1 -1.1104 6.66251 6.06447 20.7121
518 2 2.2208 10.8908 7.50849 16.4982
519 2 2.2208 10.838 13.0815 16.4588
520 1 -1.1104 12.2565 8.94841 17.8359
521 1 -1.1104 12.2961 8.71218 15.02
523 1 -1.1104 12.2469 6.0981 18.0356
524 1 -1.1104 12.3647 11.6751 17.8727
525 2 2.2208 10.8926 10.3459 19.3148
526 1 -1.1104 12.3107 5.97303 15.3097
528 1 -1.1104 12.3019 11.7465 15.021
530 1 -1.1104 9.51962 8.86867 17.9533
531 2 2.2208 8.20169 7.46444 19.3441
532 2 2.2208 8.08489 13.1263 19.2672
533 1 -1.1104 9.514 8.89044 15.1916
535 2 2.2208 8.10008 10.2225 16.556
536 1 -1.1104 9.53643 6.15995 17.9274
537 1 -1.1104 9.52371 11.6437 17.9054
538 1 -1.1104 9.50875 6.06215 15.2487
540 1 -1.1104 9.51911 11.6637 15.0564
440 2 2.2208 5.30158 -3.76218 16.5386
534 1 -1.1104 9.49581 8.90671 20.7912
541 1 -1.1104 9.47744 11.7419 20.6696
642 2 2.2208 -0.28547 -0.982064 24.9207
477 2 2.2208 13.687 -0.919119 16.5141
502 1 -1.1104 6.68025 11.7562 20.7408
527 1 -1.1104 12.3177 6.06334 20.7363
522 1 -1.1104 12.299 8.82241 20.6461
539 1 -1.1104 9.5075 6.07325 20.6056
529 1 -1.1104 12.2442 11.7043 20.7053
698 1 -1.1104 9.4983 19.919 26.1648
545 2 2.2208 5.27005 18.6426 16.4023
546 1 -1.1104 0.988638 14.4162 17.8996
547 1 -1.1104 1.1028 20.0867 17.9235
550 1 -1.1104 1.15227 14.3237 15.1071
552 1 -1.1104 1.05741 20.0482 14.9742
558 1 -1.1104 1.04062 17.2471 17.9372
560 2 2.2208 5.16294 15.8846 19.2671
561 2 2.2208 5.31385 21.4551 19.187
562 1 -1.1104 0.985143 17.2184 14.9629
566 1 -1.1104 3.82416 14.4763 17.9707
567 1 -1.1104 3.94993 20.0394 17.9028
568 2 2.2208 2.43435 18.6303 19.258
569 1 -1.1104 3.83886 14.5665 15.1712
571 1 -1.1104 3.79149 19.9883 15.1222
573 2 2.2208 2.43356 15.7445 16.5036
574 2 2.2208 2.51074 21.4047 16.4788
575 1 -1.1104 3.82855 17.263 17.7601
576 1 -1.1104 3.85932 17.2233 14.9738
559 1 -1.1104 6.61538 17.2484 17.855
549 1 -1.1104 6.62975 19.9701 17.7375
553 1 -1.1104 0.993924 20.0124 20.6674
556 1 -1.1104 6.58713 20.0492 14.8639
554 1 -1.1104 6.68351 14.4073 15.0143
577 1 -1.1104 3.83475 17.2386 20.6586
557 1 -1.1104 6.58479 20.0469 20.6202
572 1 -1.1104 3.857 20.0221 20.6206
551 1 -1.1104 1.0429 14.4313 20.6866
563 1 -1.1104 1.06941 17.1686 20.7284
667 2 2.2208 8.05972 18.624 24.9082
636 1 -1.1104 12.2639 17.166 23.3478
548 1 -1.1104 6.72316 14.4246 17.8878
555 1 -1.1104 6.53368 14.5392 20.6308
564 1 -1.1104 6.6189 17.2072 15.1195
585 1 -1.1104 12.2771 14.4776 20.6384
592 1 -1.1104 12.2497 17.2471 20.5538
581 2 2.2208 10.8286 18.6146 16.3633
582 1 -1.1104 12.2825 14.5194 17.862
583 1 -1.1104 12.1794 20.0618 17.8797
584 1 -1.1104 12.2408 14.5401 15.1582
586 1 -1.1104 12.2974 20.0275 14.9521
588 1 -1.1104 12.2387 17.3246 17.7217
589 2 2.2208 10.8877 15.8486 19.2574
590 2 2.2208 10.8898 21.4553 19.2674
591 1 -1.1104 12.1815 17.18 14.9437
593 1 -1.1104 9.51157 14.4343 17.97
594 1 -1.1104 9.44411 20.0282 17.858
595 2 2.2208 8.01741 18.6792 19.2722
596 1 -1.1104 9.48896 14.4245 15.1066
598 1 -1.1104 9.39557 20.0784 15.0597
600 2 2.2208 8.00117 15.8852 16.4511
601 2 2.2208 8.01315 21.4008 16.3526
602 1 -1.1104 9.36905 17.27 17.782
603 1 -1.1104 9.43042 17.3843 14.9747
597 1 -1.1104 9.51192 14.4366 20.6803
587 1 -1.1104 12.2554 20.0555 20.6217
634 1 -1.1104 12.3118 14.4952 26.2712
599 1 -1.1104 9.48783 20.1077 20.6106
418 1 -1.1104 6.64374 3.2548 20.8031
346 2 2.2208 -0.297206 -0.926491 13.6411
414 1 -1.1104 1.00946 3.2917 20.7238
424 1 -1.1104 0.999172 0.457162 20.7467
609 2 2.2208 5.31559 1.90452 22.1218
610 1 -1.1104 1.06173 -2.36565 23.621
611 1 -1.1104 1.0921 3.16068 23.6038
614 1 -1.1104 1.02253 -2.35558 26.3171
615 1 -1.1104 1.12964 3.3515 26.396
618 1 -1.1104 1.0672 0.444372 23.5771
620 2 2.2208 5.30242 -0.922904 24.8692
621 2 2.2208 5.37121 4.65712 24.8386
622 1 -1.1104 1.08201 0.471091 26.3671
624 1 -1.1104 3.83264 -2.31943 23.5662
625 1 -1.1104 3.92813 3.2067 23.5116
626 2 2.2208 2.52504 1.78823 24.9036
627 1 -1.1104 3.91733 -2.32402 26.3388
628 1 -1.1104 3.88186 3.38389 26.2105
629 2 2.2208 2.38744 -1.05536 22.0452
630 2 2.2208 2.47929 4.59224 22.1706
631 1 -1.1104 3.85238 0.407146 23.4669
632 1 -1.1104 3.83217 0.485498 26.2718
617 1 -1.1104 6.63216 3.35188 26.2452
613 1 -1.1104 6.76926 3.20403 23.5388
619 1 -1.1104 6.76984 0.45979 23.4847
612 1 -1.1104 6.66874 -2.32321 23.4558
623 1 -1.1104 6.59365 0.614769 26.33
441 2 2.2208 2.42048 -3.83451 19.2183
637 2 2.2208 -0.297359 -3.81163 22.164
616 1 -1.1104 6.73192 -2.23683 26.2723
448 2 2.2208 -0.358294 15.8291 19.2236
645 2 2.2208 10.9354 1.88749 22.0955
646 1 -1.1104 12.3195 -2.28319 23.4235
647 1 -1.1104 12.3094 3.20257 23.5348
648 1 -1.1104 12.2869 -2.41648 26.1718
649 1 -1.1104 12.3248 3.31959 26.4748
650 1 -1.1104 12.3605 0.394213 23.5493
651 2 2.2208 10.9457 -0.941105 24.8562
652 2 2.2208 11 4.65284 24.9263
653 1 -1.1104 12.2115 0.488385 26.3032
654 1 -1.1104 9.47006 -2.33039 23.5157
655 1 -1.1104 9.45734 3.20154 23.4802
656 2 2.2208 8.12493 1.8531 24.9522
657 1 -1.1104 9.46115 -2.2794 26.3148
658 1 -1.1104 9.51212 3.24437 26.3999
659 2 2.2208 8.11624 -0.871429 22.1388
660 2 2.2208 8.09611 4.5804 22.0605
661 1 -1.1104 9.63437 0.477973 23.5414
662 1 -1.1104 9.36791 0.494381 26.3205
605 2 2.2208 13.6742 18.6813 24.7392
663 1 -1.1104 12.297 17.2771 26.1234
375 2 2.2208 13.7047 21.4108 27.5149
580 2 2.2208 13.6169 15.7999 21.9593
514 1 -1.1104 3.82509 11.711 20.6855
507 1 -1.1104 3.86062 8.89507 20.7902
633 1 -1.1104 12.279 20.0648 23.4056
674 2 2.2208 5.26696 7.43679 22.1328
675 2 2.2208 5.23802 13.0431 22.0751
676 1 -1.1104 1.20052 8.7845 23.5259
678 1 -1.1104 1.08153 8.93582 26.3754
680 1 -1.1104 1.07447 6.02665 23.5708
681 1 -1.1104 1.09671 11.6301 23.5088
684 2 2.2208 5.32947 10.2306 24.9643
685 1 -1.1104 1.23647 6.07213 26.3464
686 1 -1.1104 1.15067 11.5716 26.2974
689 1 -1.1104 3.96088 8.7575 23.5451
690 2 2.2208 2.58078 7.47856 24.8781
691 2 2.2208 2.51612 13.0058 24.9612
692 1 -1.1104 3.95056 8.85989 26.3556
693 2 2.2208 2.5125 10.2673 22.1735
694 1 -1.1104 3.91262 5.92692 23.581
695 1 -1.1104 3.89267 11.5198 23.6026
696 1 -1.1104 4.0732 6.0805 26.3013
697 1 -1.1104 3.91937 11.5939 26.2958
683 1 -1.1104 6.78491 11.6429 23.4389
679 1 -1.1104 6.80253 8.80896 26.3515
682 1 -1.1104 6.72458 6.03867 23.5172
747 1 -1.1104 6.62986 17.2035 23.465
664 1 -1.1104 9.48643 14.4409 23.3659
688 1 -1.1104 6.80543 11.573 26.2589
687 1 -1.1104 6.76699 6.12349 26.4553
677 1 -1.1104 6.72481 8.83284 23.5153
635 1 -1.1104 12.2699 20.0723 26.1127
699 2 2.2208 8.05947 15.8293 22.0345
704 1 -1.1104 9.55854 17.2511 26.2405
705 1 -1.1104 9.57136 11.6371 26.2976
706 1 -1.1104 9.49276 5.97059 26.2959
707 1 -1.1104 9.50674 11.6424 23.493
708 1 -1.1104 9.50062 6.02041 23.3683
709 2 2.2208 8.13203 10.2778 22.0525
710 1 -1.1104 9.60698 8.80616 26.2709
711 2 2.2208 8.12518 13.0237 24.8466
712 2 2.2208 8.10704 7.36342 24.8391
713 2 2.2208 10.8658 7.45528 22.0407
714 2 2.2208 10.8795 13.1048 22.1033
715 1 -1.1104 12.3261 8.78474 23.4832
716 1 -1.1104 12.3273 8.83404 26.2508
717 1 -1.1104 12.3069 6.00434 23.4695
718 1 -1.1104 12.2513 11.623 23.5846
719 2 2.2208 10.9284 10.2416 24.8867
720 1 -1.1104 12.3955 6.05708 26.2319
721 1 -1.1104 12.2989 11.6457 26.3268
722 1 -1.1104 9.55697 8.91482 23.508
607 2 2.2208 10.8727 18.6549 22.049
480 2 2.2208 13.6168 15.8374 16.437
701 1 -1.1104 9.40709 17.1529 23.441
672 2 2.2208 13.772 1.81665 24.9478
739 1 -1.1104 6.62603 14.3424 23.3758
570 1 -1.1104 3.7991 14.4781 20.7012
746 1 -1.1104 3.86218 14.4124 26.3381
750 2 2.2208 2.51165 21.4892 22.0337
749 1 -1.1104 3.89328 17.2748 23.5749
748 1 -1.1104 1.09691 17.251 23.5172
727 2 2.2208 2.45932 15.8502 22.1137
729 1 -1.1104 3.84676 20.0541 23.3554
731 1 -1.1104 3.7931 14.3996 23.4492
733 1 -1.1104 1.1104 20.137 26.3328
734 1 -1.1104 1.09988 17.2832 26.247
735 1 -1.1104 1.05061 14.3716 26.3294
737 2 2.2208 5.30386 21.4731 24.7561
738 2 2.2208 5.25117 15.8562 24.9061
740 1 -1.1104 0.989681 20.0777 23.5559
741 1 -1.1104 1.0823 14.4547 23.5453
742 2 2.2208 5.25036 18.6219 22.017
743 1 -1.1104 3.98397 20.0168 26.1346
744 2 2.2208 2.481 18.7123 24.8039
745 1 -1.1104 3.90237 17.2617 26.3344
730 1 -1.1104 6.62502 14.3649 26.2002
736 1 -1.1104 6.7451 19.9941 23.4121
732 1 -1.1104 6.61059 17.1993 26.2355
670 1 -1.1104 6.73802 20.0959 26.1423
608 1 -1.1104 12.3111 14.4288 23.4478
565 1 -1.1104 6.59736 17.2045 20.5891
638 2 2.2208 10.8518 15.8278 24.8137
515 2 2.2208 -0.306121 10.3143 19.3855
700 2 2.2208 8.08203 21.4806 22.1026
604 1 -1.1104 9.47937 17.4332 20.6224
641 2 2.2208 10.8856 21.4262 24.7793
724 2 2.2208 -0.369096 21.4734 24.8484
446 2 2.2208 13.6954 4.61321 22.1303
517 2 2.2208 13.6431 13.1371 19.2285
478 2 2.2208 13.6758 21.4389 16.3389
374 2 2.2208 13.76 15.916 27.6001
643 2 2.2208 -0.372546 1.80625 22.1444
479 2 2.2208 13.5852 18.6551 19.2495
726 2 2.2208 13.7878 13.0899 24.8699
544 2 2.2208 -0.363915 4.70682 19.4269
379 2 2.2208 8.07571 21.4561 27.7052
351 2 2.2208 -0.370618 15.8217 13.6871
382 2 2.2208 2.57275 -0.92469 27.7094
348 2 2.2208 5.26996 -0.941046 13.6794
404 2 2.2208 5.27454 18.6635 27.6061
356 2 2.2208 10.8946 -1.01818 13.7999
350 2 2.2208 -0.271155 21.5012 13.6855
360 2 2.2208 5.40381 10.2343 13.6383
376 2 2.2208 8.01935 18.7211 13.6196
364 2 2.2208 10.8908 10.2328 13.6025
361 2 2.2208 2.54824 13.0846 13.7195
359 2 2.2208 2.45611 7.49398 13.7539
358 2 2.2208 -0.30171 10.3323 13.7536
751 2 2.2208 5.28611 24.2942 5.24249
752 2 2.2208 5.2057 29.7767 5.22164
753 1 -1.1104 0.975075 25.5639 1.15438
754 1 -1.1104 1.05079 25.5763 3.91644
755 1 -1.1104 1.15434 22.8017 0.998341
756 1 -1.1104 1.05586 28.366 1.04554
757 2 2.2208 5.21411 27.0354 2.44983
758 1 -1.1104 1.01929 22.7205 3.68881
759 1 -1.1104 1.07663 28.376 3.87058
760 1 -1.1104 3.82062 25.6954 0.976114
761 2 2.2208 2.46887 24.2718 2.4048
762 2 2.2208 2.45658 29.8137 2.42759
763 1 -1.1104 3.85789 25.6304 3.9333
764 2 2.2208 2.3858 27.0023 5.25823
765 1 -1.1104 3.89044 22.8466 1.04142
766 1 -1.1104 3.87897 28.401 1.00263
767 1 -1.1104 3.75282 22.881 3.80157
768 1 -1.1104 3.85016 28.4112 3.78973
776 1 -1.1104 6.63786 22.9491 3.97165
895 1 -1.1104 1.04238 28.4179 6.62878
775 1 -1.1104 6.65807 28.4281 1.11247
773 1 -1.1104 6.61867 25.6582 3.84505
892 1 -1.1104 0.98596 25.5873 6.67622
774 1 -1.1104 6.60578 22.8697 1.10141
898 1 -1.1104 3.76235 25.6752 6.68829
899 1 -1.1104 4.0053 22.8033 6.59296
777 1 -1.1104 6.68048 28.3579 3.78324
1047 2 2.2208 8.14082 43.7364 10.8074
1051 1 -1.1104 9.50148 42.3388 12.3678
896 1 -1.1104 6.70614 22.914 6.68737
772 1 -1.1104 6.56013 25.6287 0.997826
778 2 2.2208 10.8802 24.1854 5.25125
779 2 2.2208 10.9102 29.7869 5.22748
780 1 -1.1104 12.3203 25.5494 0.91763
781 1 -1.1104 12.1589 25.5358 3.79739
782 1 -1.1104 12.2301 22.7969 0.95898
783 1 -1.1104 12.1748 28.4012 1.12183
784 2 2.2208 10.8657 27.0045 2.42435
785 1 -1.1104 12.2944 22.7477 3.6945
786 1 -1.1104 12.2613 28.3667 3.9071
787 1 -1.1104 9.41473 25.6499 1.05663
788 2 2.2208 8.00149 24.3183 2.43069
789 2 2.2208 8.11566 29.79 2.37466
790 1 -1.1104 9.43489 25.5152 3.86063
791 2 2.2208 8.05217 27.021 5.18412
792 1 -1.1104 9.52086 22.9031 1.09368
793 1 -1.1104 9.54438 28.5257 0.875833
794 1 -1.1104 9.46501 22.7386 3.77974
795 1 -1.1104 9.48693 28.4364 3.74454
925 1 -1.1104 12.293 25.5773 6.57949
930 1 -1.1104 9.36816 28.4506 6.50268
927 1 -1.1104 12.2729 28.3745 6.72943
929 1 -1.1104 9.48755 22.752 6.6957
926 1 -1.1104 12.2963 22.7725 6.51489
893 1 -1.1104 6.69467 25.6515 6.63116
928 1 -1.1104 9.56541 25.5215 6.73141
1049 2 2.2208 8.19878 46.4285 7.88376
1064 1 -1.1104 12.2345 42.7382 12.2011
799 2 2.2208 5.1686 35.4587 5.24017
800 1 -1.1104 1.1623 31.1036 1.0421
801 1 -1.1104 1.11524 36.7852 1.15497
803 1 -1.1104 1.09141 31.1798 3.89385
804 1 -1.1104 1.04256 36.8784 3.88694
806 1 -1.1104 1.07965 33.9543 1.09576
807 2 2.2208 5.26606 32.6531 2.49076
808 2 2.2208 5.32469 38.2146 2.38165
809 1 -1.1104 1.09842 34.1266 3.86554
811 1 -1.1104 3.90926 31.1601 1.0335
812 1 -1.1104 3.89552 36.7514 1.03225
813 2 2.2208 2.4827 35.4324 2.43136
814 1 -1.1104 3.79716 31.2564 3.82015
815 1 -1.1104 3.9294 36.8995 3.87624
816 2 2.2208 2.39709 32.5681 5.19929
817 2 2.2208 2.52002 38.2386 5.23782
818 1 -1.1104 3.84708 33.9985 1.08646
819 1 -1.1104 3.87508 34.0268 3.91436
949 1 -1.1104 1.11028 31.2206 6.67183
802 1 -1.1104 6.70149 36.8686 1.12974
957 1 -1.1104 3.7731 34.0606 6.66329
956 1 -1.1104 3.85379 36.8741 6.63836
810 1 -1.1104 6.61463 33.9985 3.80753
823 1 -1.1104 6.60869 31.2203 1.09294
952 1 -1.1104 6.60922 36.8726 6.74075
1058 1 -1.1104 12.2568 39.5796 6.64545
1050 2 2.2208 8.08116 41.085 7.98153
953 1 -1.1104 1.04277 34.0291 6.62998
1048 1 -1.1104 9.52794 42.2464 9.52848
824 1 -1.1104 6.6499 31.1924 3.85431
951 1 -1.1104 6.72831 31.2486 6.65954
825 1 -1.1104 6.63067 34.0863 0.954204
805 1 -1.1104 6.64616 36.8247 3.90733
826 2 2.2208 10.7734 35.4466 5.23252
827 1 -1.1104 12.3057 31.1823 1.01574
828 1 -1.1104 12.1219 36.8566 0.972542
829 1 -1.1104 12.3378 31.1295 3.82614
830 1 -1.1104 12.3498 36.8599 3.8451
831 1 -1.1104 12.1591 34.0011 1.09944
832 2 2.2208 10.8431 32.6091 2.47178
833 2 2.2208 10.8927 38.2836 2.33654
834 1 -1.1104 12.0814 34.145 3.89992
835 1 -1.1104 9.40248 31.2984 1.06304
836 1 -1.1104 9.48478 36.8591 1.04681
837 2 2.2208 7.99684 35.3613 2.45113
838 1 -1.1104 9.49112 31.1696 3.90675
839 1 -1.1104 9.42876 36.8789 3.89645
840 2 2.2208 8.02273 32.6061 5.30289
841 2 2.2208 8.00382 38.1704 5.25074
842 1 -1.1104 9.47374 33.9482 1.1346
843 1 -1.1104 9.3342 33.931 3.925
983 1 -1.1104 12.2639 31.189 6.62734