ITEM: TIMESTEP
40000
ITEM: NUMBER OF ATOMS
17688
ITEM: BOX BOUNDS pp pp pp
-3.6091548917279198e-01 2.7700915489172484e+01
-4.3928341114928955e+00 3.3247283411149465e+02
-3.6946937726180668e-01 2.7709469377262071e+01
ITEM: ATOMS id type q x y z
1 2 2.2208 5.0951 1.11651 5.19396
2 1 -1.1104 1.031 -3.10029 1.03145
3 1 -1.1104 1.02909 2.48249 1.19108
6 1 -1.1104 0.932939 -3.11074 3.91583
7 1 -1.1104 1.2105 2.56959 3.88869
10 1 -1.1104 1.03163 -0.428962 1.1909
12 2 2.2208 5.2182 -1.68725 2.32936
13 2 2.2208 5.33493 3.96669 2.42339
14 1 -1.1104 0.91431 -0.190088 3.9724
16 1 -1.1104 3.67889 -3.02437 1.11525
17 1 -1.1104 3.82688 2.556 0.999233
18 2 2.2208 2.40253 1.05395 2.44015
19 1 -1.1104 3.74747 -3.00565 3.92703
20 1 -1.1104 3.96818 2.6767 3.93464
21 2 2.2208 2.32879 -1.64874 5.23976
23 1 -1.1104 3.85367 -0.307415 1.00463
24 1 -1.1104 3.85465 -0.168045 3.6939
22 2 2.2208 2.64239 4.08149 5.22679
9 1 -1.1104 6.70383 2.4248 3.89674
8 1 -1.1104 6.67594 -2.92316 3.755
5 1 -1.1104 6.70549 2.49361 1.03567
166 1 -1.1104 1.20271 -3.09918 6.81937
170 1 -1.1104 1.08087 -0.387695 6.71603
168 1 -1.1104 6.4957 -2.94242 6.63987
174 1 -1.1104 3.82697 -0.26711 6.5374
15 1 -1.1104 6.5035 -0.249797 3.89591
11 1 -1.1104 6.55657 -0.281549 1.04921
171 1 -1.1104 6.64557 -0.333928 6.76725
4 1 -1.1104 6.47083 -3.14477 1.06434
8863 2 2.2208 -0.437894 1.26945 11.0009
8293 2 2.2208 13.5127 -4.55045 8.08453
337 2 2.2208 13.577 -1.7801 -0.544948
8286 2 2.2208 10.8518 -4.43201 5.25364
31 2 2.2208 11.0246 1.18085 5.21106
32 1 -1.1104 12.1855 -3.0891 0.936769
33 1 -1.1104 12.2122 2.6689 0.964463
34 1 -1.1104 12.1999 -3.23533 3.87805
35 1 -1.1104 12.3716 2.51936 3.74394
36 1 -1.1104 12.2491 -0.295702 0.884149
37 2 2.2208 10.7447 -1.68505 2.34043
38 2 2.2208 10.8607 3.98426 2.48605
39 1 -1.1104 12.0704 -0.305187 3.76392
40 1 -1.1104 9.4076 -2.9096 1.01418
41 1 -1.1104 9.4607 2.70514 0.988911
42 2 2.2208 8.02687 1.17404 2.42051
43 1 -1.1104 9.51229 -3.08185 3.69947
44 1 -1.1104 9.60302 2.65408 3.88109
45 2 2.2208 7.99631 -1.65086 5.19718
46 2 2.2208 8.08059 3.91759 5.26849
47 1 -1.1104 9.21611 -0.185638 1.03129
48 1 -1.1104 9.34804 -0.253361 3.76055
205 1 -1.1104 12.255 -3.09808 6.63011
333 2 2.2208 8.07246 20.9388 -0.200273
8862 2 2.2208 13.6716 1.25713 8.03106
304 2 2.2208 2.59127 14.9838 -0.235822
339 2 2.2208 5.27853 17.807 -0.22139
311 2 2.2208 10.7853 3.97279 13.6529
637 2 2.2208 8.05712 15.1103 -0.278663
54 2 2.2208 5.31461 6.7732 5.25859
55 2 2.2208 5.32269 12.4871 5.39394
56 1 -1.1104 1.14866 8.18106 1.01722
58 1 -1.1104 1.07024 8.18936 3.84226
60 1 -1.1104 0.982396 5.31062 0.938223
61 1 -1.1104 1.10211 10.9556 1.13888
66 2 2.2208 5.28506 9.51218 2.50604
67 1 -1.1104 1.19731 5.36497 3.77731
68 1 -1.1104 1.06945 10.9901 3.8576
71 1 -1.1104 3.87782 8.07708 1.10822
72 2 2.2208 2.48342 6.74194 2.45718
73 2 2.2208 2.5895 12.2521 2.47806
74 1 -1.1104 3.8303 8.24128 3.85442
75 2 2.2208 2.48618 9.56459 5.28838
76 1 -1.1104 3.80001 5.25919 1.00675
77 1 -1.1104 4.08429 10.8869 1.14458
79 1 -1.1104 4.21854 5.48814 3.67106
80 1 -1.1104 3.89083 10.9552 3.94536
57 1 -1.1104 6.64388 8.25835 1.03763
69 1 -1.1104 6.81527 5.23944 3.98504
70 1 -1.1104 6.68204 11.0529 4.00948
64 1 -1.1104 6.69998 11.1952 1.23489
63 1 -1.1104 6.60209 5.45277 1.11936
59 1 -1.1104 6.66517 8.2241 3.92283
325 2 2.2208 5.27922 6.64939 -0.404094
84 2 2.2208 10.9078 6.87281 5.30281
85 2 2.2208 10.9061 12.4625 5.25253
86 1 -1.1104 12.1024 8.21251 0.995454
87 1 -1.1104 12.2682 8.28984 3.90734
88 1 -1.1104 12.2767 5.43296 1.15153
89 1 -1.1104 12.2781 11.1335 1.15636
91 2 2.2208 10.818 9.63468 2.47429
92 1 -1.1104 12.3189 5.38341 3.91939
93 1 -1.1104 12.2734 11.2266 3.86644
94 1 -1.1104 9.38147 8.12717 1.16095
95 2 2.2208 8.05944 6.7758 2.44761
96 2 2.2208 8.08743 12.4435 2.53701
97 1 -1.1104 9.50449 8.12125 3.97332
98 2 2.2208 8.12313 9.57559 5.35301
99 1 -1.1104 9.52005 5.36323 1.02125
100 1 -1.1104 9.5402 10.9482 1.02279
102 1 -1.1104 9.52288 5.36449 3.84372
103 1 -1.1104 9.41184 10.7552 3.93546
269 1 -1.1104 9.49494 5.34687 6.66558
327 2 2.2208 10.9536 12.4481 -0.257073
8289 2 2.2208 5.30105 -4.54732 10.8729
9021 2 2.2208 -0.197839 12.3216 -0.243632
9013 2 2.2208 -0.26954 15.228 2.47612
9019 2 2.2208 13.7292 15.4255 -0.263652
8703 2 2.2208 -0.350063 17.9923 10.9386
9009 2 2.2208 -0.311697 9.44335 2.43203
106 2 2.2208 5.37917 18.1379 5.31418
107 1 -1.1104 1.2546 13.6883 1.17264
109 1 -1.1104 1.0132 19.3302 1.13574
113 1 -1.1104 1.11318 13.6384 4.06462
114 1 -1.1104 1.02492 19.4386 3.80005
116 1 -1.1104 1.05695 16.4831 0.55607
119 2 2.2208 5.36268 15.1031 2.67783
120 2 2.2208 5.19003 20.935 2.42712
121 1 -1.1104 1.15214 16.6538 3.6561
123 1 -1.1104 3.83106 13.54 1.13315
125 1 -1.1104 3.83035 19.5099 0.8705
127 2 2.2208 2.54909 18.1737 2.52666
128 1 -1.1104 3.93228 13.8206 3.95462
129 1 -1.1104 3.82899 19.454 3.79625
130 2 2.2208 2.58675 15.1327 5.34405
131 2 2.2208 2.59576 20.9182 5.22781
132 1 -1.1104 3.75867 16.5207 1.01476
134 1 -1.1104 3.97053 16.6576 3.9809
138 1 -1.1104 6.70877 19.4469 1.00355
139 1 -1.1104 6.54905 19.4859 3.89702
117 1 -1.1104 1.11265 16.5206 6.53037
108 1 -1.1104 1.21814 13.7793 6.86841
124 1 -1.1104 4.06096 13.7435 6.879
126 1 -1.1104 3.94431 19.4212 6.67938
110 1 -1.1104 6.68096 13.9462 1.10175
122 1 -1.1104 6.80522 16.6249 4.06115
118 1 -1.1104 6.77665 16.7062 6.61865
112 1 -1.1104 6.72927 19.5765 6.75797
140 1 -1.1104 6.721 16.6176 1.29699
115 1 -1.1104 6.65177 13.7104 3.95133
231 1 -1.1104 1.16892 19.3986 6.65023
303 2 2.2208 5.15746 -1.53653 13.71
8918 2 2.2208 13.6225 9.64589 10.8743
141 2 2.2208 11.0867 18.3079 5.28028
142 1 -1.1104 12.3228 13.9295 1.21323
144 1 -1.1104 12.3202 19.5152 1.12307
146 1 -1.1104 12.3079 14.0202 3.98248
147 1 -1.1104 12.3261 19.5793 3.91068
148 1 -1.1104 12.2076 16.8306 1.11772
150 2 2.2208 10.8979 15.38 2.52948
151 2 2.2208 10.8187 20.9715 2.60811
152 1 -1.1104 12.2541 16.8377 3.96422
153 1 -1.1104 9.49107 13.7949 1.16354
155 1 -1.1104 9.42887 19.4565 1.25832
157 2 2.2208 8.01759 18.1147 2.52022
158 1 -1.1104 9.51609 13.7861 3.87705
159 1 -1.1104 9.42165 19.5873 3.88724
160 2 2.2208 8.24548 15.2574 5.38529
161 2 2.2208 8.13031 20.918 5.28645
162 1 -1.1104 9.35322 16.5263 1.09736
164 1 -1.1104 9.55377 16.7816 3.81649
156 1 -1.1104 9.60587 19.4991 6.67327
149 1 -1.1104 12.4255 16.7001 6.67844
30 1 -1.1104 12.1919 13.7696 9.34116
306 2 2.2208 2.26309 20.844 -0.210325
338 2 2.2208 2.50544 9.53881 -0.179782
9011 2 2.2208 13.8252 12.559 2.48499
302 2 2.2208 5.34057 12.3888 -0.253942
173 1 -1.1104 3.89905 2.66428 6.72921
172 1 -1.1104 3.80509 -2.92012 6.59099
167 1 -1.1104 0.920261 2.52105 6.8755
169 1 -1.1104 6.59309 2.54506 6.63466
201 1 -1.1104 9.51099 16.4849 12.2368
175 2 2.2208 5.17916 1.32385 10.7654
176 1 -1.1104 0.783442 -3.12741 12.4393
177 1 -1.1104 1.11053 2.74036 12.4753
180 1 -1.1104 0.789667 -2.84266 9.7055
181 1 -1.1104 0.896979 2.70457 9.7765
184 1 -1.1104 0.89453 -0.118703 12.3837
186 2 2.2208 5.21186 -1.58241 8.13588
187 2 2.2208 5.27457 4.13525 8.10822
188 1 -1.1104 1.00227 -0.177425 9.60354
190 1 -1.1104 3.68473 -3.00151 12.2438
191 1 -1.1104 3.70649 2.60305 12.4031
192 2 2.2208 2.53907 1.13286 8.13347
193 1 -1.1104 3.60063 -3.03217 9.43264
194 1 -1.1104 3.8099 2.74007 9.45557
195 2 2.2208 2.25891 -1.57019 10.934
196 2 2.2208 2.3967 4.13518 10.8945
197 1 -1.1104 3.69636 -0.121879 12.306
198 1 -1.1104 3.88425 -0.133641 9.58778
179 1 -1.1104 6.52166 2.66792 12.1796
182 1 -1.1104 6.56308 -2.93279 9.38742
185 1 -1.1104 6.52377 -0.174113 12.2771
178 1 -1.1104 6.55693 -2.90385 12.0413
183 1 -1.1104 6.56866 2.6477 9.49738
9256 2 2.2208 -0.423988 6.9098 -0.363766
189 1 -1.1104 6.55841 -0.0844627 9.49389
9004 2 2.2208 -0.308269 1.15208 5.40586
229 1 -1.1104 9.58491 16.6392 9.5191
336 2 2.2208 7.93905 3.88439 -0.268994
210 1 -1.1104 9.53593 -0.176192 6.61022
207 1 -1.1104 12.4441 -0.217235 6.52165
209 1 -1.1104 9.57656 2.56934 6.64027
208 1 -1.1104 9.21578 -2.96778 6.62
206 1 -1.1104 12.3518 2.58366 6.56333
8924 2 2.2208 -0.272156 12.5258 10.9566
50 1 -1.1104 12.2429 19.4892 9.58883
211 2 2.2208 10.8022 1.15813 10.8901
212 1 -1.1104 12.1606 -2.85433 12.4129
213 1 -1.1104 12.2851 2.58321 12.2646
214 1 -1.1104 12.191 -3.03377 9.4541
215 1 -1.1104 12.085 2.49798 9.55263
216 1 -1.1104 12.1941 -0.189783 12.2347
217 2 2.2208 10.8618 -1.63211 8.03798
218 2 2.2208 10.8529 4.00242 7.99655
219 1 -1.1104 12.3451 -0.250745 9.41668
220 1 -1.1104 9.27662 -2.86573 12.3669
221 1 -1.1104 9.4554 2.61691 12.1897
222 2 2.2208 8.02842 1.1392 8.08318
223 1 -1.1104 9.32583 -2.97427 9.49414
224 1 -1.1104 9.24454 2.50478 9.43121
225 2 2.2208 7.97015 -1.53921 10.8945
226 2 2.2208 7.98611 3.95365 10.8649
227 1 -1.1104 9.42428 -0.121499 12.3314
228 1 -1.1104 9.36932 -0.212872 9.53111
230 2 2.2208 13.4751 -1.6682 10.883
8837 2 2.2208 13.5832 4.04341 10.8715
83 2 2.2208 10.8345 21.002 8.17102
136 2 2.2208 8.2261 18.0851 8.14571
82 2 2.2208 10.9924 15.2313 7.95697
78 1 -1.1104 3.95443 11.0247 6.79578
239 1 -1.1104 3.72346 5.52064 6.58924
234 1 -1.1104 1.0015 8.22424 6.73192
62 1 -1.1104 1.13914 11.0059 6.7774
236 1 -1.1104 1.01721 5.33969 6.68614
65 1 -1.1104 6.56859 11.1162 6.86396
235 1 -1.1104 6.57274 8.14748 6.71926
237 1 -1.1104 6.63592 5.44376 6.84493
238 1 -1.1104 3.78009 8.33313 6.73185
240 2 2.2208 5.18932 6.82664 10.8778
241 2 2.2208 5.36 12.3079 10.7844
242 1 -1.1104 0.926497 8.42285 12.3538
244 1 -1.1104 1.12386 8.33054 9.50277
246 1 -1.1104 1.2038 5.52188 12.3918
247 1 -1.1104 1.04466 11.2478 12.5662
250 2 2.2208 5.19016 9.60034 8.15224
251 1 -1.1104 1.15285 5.48396 9.73829
252 1 -1.1104 1.11214 11.0749 9.66158
255 1 -1.1104 3.7948 8.16674 12.3051
256 2 2.2208 2.38869 6.84104 8.16089
257 2 2.2208 2.45506 12.431 8.26259
258 1 -1.1104 3.95752 8.2541 9.51152
259 2 2.2208 2.54507 9.61563 10.924
260 1 -1.1104 3.92628 5.42773 12.217
261 1 -1.1104 3.96121 10.8492 12.362
262 1 -1.1104 3.93185 5.56313 9.31449
263 1 -1.1104 3.75687 11.1029 9.5893
243 1 -1.1104 6.51552 8.1586 12.3075
254 1 -1.1104 6.65384 10.9286 9.55951
245 1 -1.1104 6.60996 8.22832 9.51203
253 1 -1.1104 6.71699 5.32888 9.56984
81 1 -1.1104 12.3429 16.7013 12.4808
101 1 -1.1104 9.48243 11.0507 6.81348
266 1 -1.1104 12.2217 5.3831 6.67719
90 1 -1.1104 12.3912 11.1641 6.69849
267 1 -1.1104 9.49767 8.23585 6.68896
265 1 -1.1104 12.2797 8.10392 6.67166
137 1 -1.1104 9.5634 13.8002 9.38989
248 1 -1.1104 6.8148 5.51563 12.2809
249 1 -1.1104 6.65219 10.9391 12.2735
335 2 2.2208 7.93421 -1.69902 -0.389728
104 1 -1.1104 12.2953 16.6851 9.50457
264 1 -1.1104 9.57472 10.9916 9.52899
268 1 -1.1104 9.41491 5.31545 9.50553
270 1 -1.1104 9.4546 11.0893 12.2214
271 1 -1.1104 9.49677 5.47911 12.2804
272 2 2.2208 8.02655 9.59628 10.9121
273 1 -1.1104 9.42648 8.0673 9.59085
274 2 2.2208 8.12022 12.3627 8.03569
275 2 2.2208 8.01732 6.76005 8.20428
276 2 2.2208 10.7484 6.83682 10.9517
277 2 2.2208 10.8362 12.4251 10.8213
278 1 -1.1104 12.2181 8.45975 12.2636
279 1 -1.1104 12.2846 8.06294 9.54309
280 1 -1.1104 12.294 5.5415 12.266
281 1 -1.1104 12.2556 11.0423 12.3943
282 2 2.2208 10.961 9.46838 8.10833
283 1 -1.1104 12.1635 5.30765 9.45243
284 1 -1.1104 12.3131 10.8752 9.42586
285 1 -1.1104 9.39879 8.32717 12.3484
199 2 2.2208 8.1344 15.2253 10.8534
133 1 -1.1104 3.92096 16.6085 6.73572
111 1 -1.1104 6.84541 13.9049 6.78933
135 1 -1.1104 9.47187 19.3024 12.3213
288 1 -1.1104 6.60617 19.5306 9.52622
296 1 -1.1104 6.83697 19.6665 12.3587
28 2 2.2208 2.40173 15.3112 10.9689
29 2 2.2208 2.47141 20.9537 10.8218
51 1 -1.1104 3.96586 16.6202 12.4844
52 1 -1.1104 1.09041 16.6428 12.3152
202 1 -1.1104 4.00853 13.7536 9.61272
203 1 -1.1104 3.8188 16.6069 9.57086
204 2 2.2208 2.58457 18.0841 8.14533
232 1 -1.1104 3.92947 19.5195 9.53824
233 2 2.2208 5.23808 18.0637 10.9353
286 1 -1.1104 4.03841 19.5092 12.2755
287 1 -1.1104 3.92895 13.8264 12.3531
291 1 -1.1104 1.06185 19.4 9.46993
292 1 -1.1104 1.08585 16.6979 9.38272
293 2 2.2208 5.3093 20.9114 8.11591
294 1 -1.1104 1.17058 13.9023 9.63262
295 2 2.2208 5.35823 15.2943 8.23062
298 1 -1.1104 1.33406 19.5097 12.2165
299 1 -1.1104 1.12531 13.9702 12.4397
53 1 -1.1104 6.6374 16.6734 12.4394
290 1 -1.1104 6.82256 13.889 9.52057
289 1 -1.1104 6.75391 16.6559 9.54891
297 1 -1.1104 6.8017 13.8369 12.3745
165 1 -1.1104 9.42311 19.4811 9.45283
26 1 -1.1104 12.2795 13.7396 12.181
163 1 -1.1104 9.68845 16.7595 6.63285
145 1 -1.1104 12.3484 19.5567 6.87597
143 1 -1.1104 12.5705 13.9322 6.74431
154 1 -1.1104 9.6642 13.8292 6.60311
105 1 -1.1104 9.60233 13.7521 12.2693
25 2 2.2208 10.9858 18.0092 10.8999
27 1 -1.1104 12.262 19.4921 12.4459
200 2 2.2208 8.15628 20.9349 11.0028
8931 2 2.2208 -0.28909 9.59512 8.01219
326 2 2.2208 10.7977 18.0547 -0.38929
8287 2 2.2208 13.5434 -4.40997 2.37924
308 2 2.2208 13.5572 1.1626 13.6008
9007 2 2.2208 13.6445 -1.581 5.17813
9010 2 2.2208 -0.366499 12.4398 5.19089
9008 2 2.2208 -0.393474 6.76078 5.20542
9001 2 2.2208 -0.398737 -1.7577 2.4507
9015 2 2.2208 -0.284784 18.0285 5.32336
8897 2 2.2208 -0.41053 -1.66489 8.13382
320 2 2.2208 5.27163 20.9638 13.6722
330 2 2.2208 5.2373 1.10667 -0.416983
310 2 2.2208 10.7091 -1.51378 13.7407
8301 2 2.2208 5.17515 -4.46577 -0.299838
341 2 2.2208 5.17908 1.21182 16.5681
342 1 -1.1104 0.974256 -2.96657 17.888
343 1 -1.1104 1.0251 2.57469 17.9706
346 1 -1.1104 1.07361 -3.02132 15.2712
348 1 -1.1104 1.23255 2.82209 15.1054
354 1 -1.1104 0.991249 -0.234141 17.851
356 2 2.2208 5.22085 -1.59631 19.2934
357 2 2.2208 5.19744 4.06338 19.364
358 1 -1.1104 0.94179 -0.13423 15.1197
362 1 -1.1104 3.82757 -3.11998 17.8769
363 1 -1.1104 3.75458 2.75702 17.9179
364 2 2.2208 2.34205 1.24503 19.4873
365 1 -1.1104 3.7386 -2.84633 15.0637
367 1 -1.1104 3.93581 2.63457 15.1705
369 2 2.2208 2.35734 -1.58567 16.4836
370 2 2.2208 2.39353 4.07405 16.5058
371 1 -1.1104 3.79429 -0.223202 17.9384
372 1 -1.1104 3.79767 -0.0538003 15.0891
347 1 -1.1104 1.06524 -3.17864 20.7465
360 1 -1.1104 6.58987 -0.100517 15.2369
345 1 -1.1104 6.4893 2.74903 17.8872
344 1 -1.1104 6.64696 -2.81713 17.8471
366 1 -1.1104 3.86115 -3.04426 20.7123
373 1 -1.1104 3.8771 -0.197354 20.6585
361 1 -1.1104 6.64533 -0.192978 20.7934
352 1 -1.1104 6.49975 2.72773 15.1448
353 1 -1.1104 6.59506 2.67141 20.7568
350 1 -1.1104 6.58417 -2.83972 15.0967
9109 2 2.2208 13.657 12.4275 24.9561
355 1 -1.1104 6.55289 -0.12592 17.9662
384 2 2.2208 10.6818 1.18378 16.3835
385 1 -1.1104 12.2722 -2.96507 17.7676
386 1 -1.1104 12.0814 2.64089 17.7207
387 1 -1.1104 12.3692 -2.95375 15.0109
389 1 -1.1104 11.9672 2.55068 15.1069
391 1 -1.1104 11.9404 -0.275188 17.8094
392 2 2.2208 10.8587 -1.53415 19.2627
394 1 -1.1104 12.1017 -0.200072 15.077
396 1 -1.1104 9.53002 -3.00465 17.8849
397 1 -1.1104 9.31962 2.63961 17.8723
398 2 2.2208 7.83217 1.31957 19.3772
399 1 -1.1104 9.38731 -3.17096 15.1068
401 1 -1.1104 9.44081 2.70166 15.0434
403 2 2.2208 8.01736 -1.60961 16.6241
404 2 2.2208 7.97375 3.99551 16.5387
405 1 -1.1104 9.26891 -0.134309 17.9575
406 1 -1.1104 9.37982 -0.224264 15.1202
390 1 -1.1104 12.0878 2.49635 20.5518
393 2 2.2208 10.6893 3.98523 19.3451
402 1 -1.1104 9.37884 2.6718 20.6938
407 1 -1.1104 9.35526 -0.0270083 20.8408
379 1 -1.1104 9.45215 13.6491 23.6705
380 1 -1.1104 12.1748 16.7142 26.3359
572 1 -1.1104 9.06195 19.3765 26.4827
318 2 2.2208 5.31456 15.2328 13.7211
417 2 2.2208 5.32069 6.7919 16.5137
418 2 2.2208 5.25362 12.3485 16.4244
419 1 -1.1104 0.828484 8.25925 17.8704
421 1 -1.1104 1.13022 8.22839 15.2093
425 1 -1.1104 0.922684 5.45933 17.8786
426 1 -1.1104 0.973639 11.096 18.5036
429 2 2.2208 5.22927 9.49212 19.3731
430 1 -1.1104 0.939426 5.51505 15.1428
432 1 -1.1104 1.1382 10.9552 15.4421
437 1 -1.1104 3.81758 8.18682 17.9661
438 2 2.2208 2.24967 6.7635 19.3612
439 2 2.2208 2.65323 12.3935 19.2461
440 1 -1.1104 3.91241 8.15871 15.0882
442 2 2.2208 2.53183 9.47788 16.5532
443 1 -1.1104 3.83553 5.35175 17.9332
444 1 -1.1104 3.87182 10.8513 17.9056
445 1 -1.1104 3.80976 5.35881 15.0546
447 1 -1.1104 3.8637 10.9127 15.1761
420 1 -1.1104 6.6104 8.04983 17.9418
435 1 -1.1104 6.65981 11.0153 14.9771
428 1 -1.1104 6.56146 10.8601 18.0071
448 1 -1.1104 3.645 10.995 20.7322
427 1 -1.1104 6.65576 5.39552 17.9482
449 1 -1.1104 3.62022 21.8703 26.238
317 2 2.2208 8.14379 6.85922 13.7193
423 1 -1.1104 6.73828 8.30073 15.005
433 1 -1.1104 6.71903 5.52715 15.1676
454 2 2.2208 10.9202 6.79744 16.6009
455 2 2.2208 10.8347 12.5039 16.455
456 1 -1.1104 12.3477 8.28875 17.7219
457 1 -1.1104 12.2719 8.33691 14.9164
459 1 -1.1104 12.2619 5.36132 18.011
460 1 -1.1104 12.3295 11.1875 17.8917
461 2 2.2208 10.8817 9.70935 19.2282
462 1 -1.1104 12.2112 5.42661 15.1151
464 1 -1.1104 12.2482 11.2181 15.0649
466 1 -1.1104 9.48467 8.13858 17.9456
467 2 2.2208 8.13192 6.77997 19.2915
468 2 2.2208 7.98612 12.3028 19.3184
469 1 -1.1104 9.57495 8.34383 15.2299
471 2 2.2208 7.99703 9.69768 16.4793
472 1 -1.1104 9.51452 5.48863 17.9764
473 1 -1.1104 9.41868 11.0578 17.9154
474 1 -1.1104 9.41027 5.53205 15.2215
476 1 -1.1104 9.41731 11.1794 15.0473
477 1 -1.1104 9.42897 10.9859 20.6576
639 2 2.2208 13.7509 9.8321 16.417
9143 2 2.2208 13.7033 12.5854 19.3488
410 2 2.2208 13.5191 1.27142 19.2829
458 1 -1.1104 12.299 8.24164 20.6401
638 2 2.2208 -0.41315 3.96468 24.8092
8380 2 2.2208 5.42483 -4.44242 22.2017
323 2 2.2208 10.9279 15.3732 13.7981
315 2 2.2208 8.05417 12.4786 13.6513
480 2 2.2208 5.31796 17.9884 16.55
481 1 -1.1104 1.15811 13.9641 18.4736
482 1 -1.1104 1.12675 19.5507 18.1514
485 1 -1.1104 1.10942 13.8368 15.4864
486 1 -1.1104 1.06928 19.5551 15.2059
491 1 -1.1104 1.06144 16.679 18.2506
493 2 2.2208 5.23696 15.2009 19.4677
494 2 2.2208 5.51261 21.0834 19.2503
495 1 -1.1104 1.06288 16.6878 15.1866
498 1 -1.1104 3.94994 13.7146 17.9086
499 1 -1.1104 3.93622 19.5159 17.7755
500 2 2.2208 2.71797 18.1247 19.2148
501 1 -1.1104 3.8195 13.8871 15.0564
502 1 -1.1104 3.91956 19.5758 15.0776
504 2 2.2208 2.49549 15.2276 16.6569
505 2 2.2208 2.53044 21.0418 16.5371
506 1 -1.1104 3.83887 16.657 17.8921
507 1 -1.1104 3.79329 16.6786 15.2533
9250 1 -1.1104 3.86197 13.7245 20.6996
508 1 -1.1104 3.72393 16.9821 20.8321
483 1 -1.1104 6.41878 13.6279 18.1527
503 1 -1.1104 3.62817 19.7406 20.6405
487 1 -1.1104 6.65986 13.8227 15.0898
484 1 -1.1104 6.81774 19.2619 17.8464
488 1 -1.1104 6.64116 13.9548 20.8629
496 1 -1.1104 6.665 16.614 15.1785
492 1 -1.1104 6.70078 16.443 18.1906
490 1 -1.1104 6.63118 19.7468 20.6883
489 1 -1.1104 6.59884 19.4247 15.0743
514 2 2.2208 10.8773 18.0428 16.6333
515 1 -1.1104 12.2079 13.8921 17.7574
516 1 -1.1104 12.2406 19.2104 18.022
517 1 -1.1104 12.3144 13.9582 14.9816
519 1 -1.1104 12.2558 19.416 15.1755
521 1 -1.1104 12.1938 16.4761 17.8726
522 2 2.2208 10.7709 15.155 19.2799
523 2 2.2208 10.9182 20.8238 19.3829
524 1 -1.1104 12.4797 16.7388 15.1947
526 1 -1.1104 9.28311 13.6975 17.8623
527 1 -1.1104 9.53399 19.4895 17.9486
528 2 2.2208 8.09148 17.9121 19.2835
529 1 -1.1104 9.48549 13.9388 15.2269
531 1 -1.1104 9.3912 19.4316 15.0785
533 2 2.2208 7.98063 15.118 16.5373
534 2 2.2208 8.17522 20.7783 16.4737
535 1 -1.1104 9.38037 16.5433 17.9641
536 1 -1.1104 9.50497 16.6782 15.1912
520 1 -1.1104 12.3547 19.2697 20.8171
525 1 -1.1104 12.3905 16.5151 20.7229
9214 2 2.2208 13.7721 17.9824 19.3292
532 1 -1.1104 9.48475 19.3842 20.6997
319 2 2.2208 2.40695 18.0751 13.7479
640 2 2.2208 2.52096 12.4394 13.714
349 1 -1.1104 1.13242 2.62239 20.726
359 1 -1.1104 0.950523 -0.231577 20.7225
368 1 -1.1104 3.94826 2.5426 20.7474
541 2 2.2208 5.15608 1.10491 22.2111
542 1 -1.1104 0.976351 -2.9856 23.695
543 1 -1.1104 1.04353 2.56898 23.5626
546 1 -1.1104 1.10045 -3.09149 26.2643
547 1 -1.1104 0.789083 2.53141 26.2398
550 1 -1.1104 1.05734 -0.25227 23.4786
552 2 2.2208 5.30061 -1.63121 24.9756
553 2 2.2208 5.21625 3.91019 24.9136
554 1 -1.1104 0.97627 -0.198929 26.5003
556 1 -1.1104 3.95786 -3.06835 23.5332
557 1 -1.1104 3.87021 2.58801 23.4733
558 2 2.2208 2.36257 1.09973 24.8452
559 1 -1.1104 3.94396 -2.89988 26.3779
560 1 -1.1104 3.77089 2.50395 26.3165
561 2 2.2208 2.47164 -1.69273 22.1182
562 2 2.2208 2.52182 4.04253 22.0616
563 1 -1.1104 3.73806 -0.291716 23.4408
564 1 -1.1104 3.8609 -0.192743 26.4076
548 1 -1.1104 6.69881 -2.96347 26.4295
544 1 -1.1104 6.97127 -3.00906 23.5118
545 1 -1.1104 6.64807 2.37914 23.5552
551 1 -1.1104 6.58925 -0.302713 23.5421
549 1 -1.1104 6.5874 2.5284 26.2604
351 1 -1.1104 6.72819 -3.19074 20.6873
601 2 2.2208 13.6055 -1.68732 22.0452
400 1 -1.1104 9.5101 -2.87812 20.7293
395 1 -1.1104 12.2329 -0.40263 20.7325
388 1 -1.1104 12.2886 -3.03684 20.752
555 1 -1.1104 6.74077 -0.220032 26.3002
575 2 2.2208 10.816 1.12572 22.105
576 1 -1.1104 12.2864 -3.01401 23.4952
577 1 -1.1104 12.3341 2.61025 23.3106
578 1 -1.1104 12.2067 -3.13066 26.1589
579 1 -1.1104 12.3682 2.47244 26.3116
580 1 -1.1104 12.2292 -0.033364 23.4412
581 2 2.2208 10.9454 -1.66336 24.9449
582 2 2.2208 10.8617 3.90673 24.9024
583 1 -1.1104 12.4598 -0.2562 26.1986
584 1 -1.1104 9.69299 -2.95652 23.4287
585 1 -1.1104 9.46267 2.46782 23.6874
586 2 2.2208 8.11554 1.15145 25.0416
587 1 -1.1104 9.46138 -3.12311 26.3105
588 1 -1.1104 9.54594 2.5103 26.3577
589 2 2.2208 8.04538 -1.51136 22.2076
590 2 2.2208 8.0334 3.95903 22.1551
591 1 -1.1104 9.46217 -0.231224 23.6952
592 1 -1.1104 9.50628 -0.218219 26.451
307 2 2.2208 5.10224 4.0135 13.7385
313 2 2.2208 5.3284 9.64569 13.6697
422 1 -1.1104 1.05299 8.44353 20.5893
436 1 -1.1104 6.60482 11.0263 20.781
446 1 -1.1104 3.83139 5.52027 20.7113
434 1 -1.1104 6.63423 5.47878 20.7484
424 1 -1.1104 6.75798 8.1913 20.7077
431 1 -1.1104 0.955552 5.43799 20.6398
441 1 -1.1104 3.89228 8.37146 20.852
605 2 2.2208 5.27143 6.75262 22.1522
606 2 2.2208 5.18078 12.4763 22.2202
607 1 -1.1104 1.13496 7.98687 23.3583
609 1 -1.1104 1.03869 8.18853 26.1224
611 1 -1.1104 0.938187 5.28699 23.3084
612 1 -1.1104 1.23221 10.8299 23.5702
615 2 2.2208 5.26511 9.64478 24.9201
616 1 -1.1104 1.10894 5.38475 26.1831
620 1 -1.1104 3.82722 8.27073 23.6542
621 2 2.2208 2.5282 6.76025 25.0338
622 2 2.2208 2.48451 12.2205 25.0318
623 1 -1.1104 3.80705 8.09458 26.4712
624 2 2.2208 2.48282 9.39892 22.2051
625 1 -1.1104 3.90195 5.35614 23.5534
626 1 -1.1104 3.94919 10.929 23.571
627 1 -1.1104 3.90876 5.32726 26.2919
628 1 -1.1104 3.88567 10.9006 26.4564
9350 1 -1.1104 1.1032 10.8095 26.4068
613 1 -1.1104 6.52659 5.39238 23.5733
618 1 -1.1104 6.60588 5.23253 26.3837
614 1 -1.1104 6.71281 10.9331 23.6209
619 1 -1.1104 6.70143 10.9635 26.393
599 1 -1.1104 9.38988 16.5309 26.4241
598 1 -1.1104 9.24535 16.5684 23.6735
470 1 -1.1104 9.59373 8.23502 20.7459
465 1 -1.1104 12.1621 11.112 20.8408
475 1 -1.1104 9.34298 5.41391 20.6951
463 1 -1.1104 12.1953 5.36878 20.6322
608 1 -1.1104 6.62003 8.05624 23.5695
610 1 -1.1104 6.6181 8.11725 26.3408
334 2 2.2208 10.9566 1.18982 27.664
378 1 -1.1104 9.49095 5.26607 23.5993
513 2 2.2208 7.99846 9.60885 22.0841
540 1 -1.1104 9.48364 8.06813 23.5812
565 1 -1.1104 12.2628 11.0006 26.4061
566 1 -1.1104 12.4435 5.32579 26.2885
567 2 2.2208 10.8625 9.51305 24.8872
568 1 -1.1104 12.2496 10.9827 23.5195
593 1 -1.1104 12.3265 5.33706 23.5363
594 1 -1.1104 12.3116 8.06609 26.2449
595 1 -1.1104 12.2905 8.04757 23.3766
600 2 2.2208 10.8051 12.3246 22.1867
602 1 -1.1104 9.45487 10.8576 23.4391
603 2 2.2208 10.8471 6.71228 22.0968
629 2 2.2208 8.01731 6.74832 24.9644
630 2 2.2208 8.05992 12.4306 24.991
631 1 -1.1104 9.41006 8.01963 26.3728
634 1 -1.1104 9.49305 10.859 26.2416
635 1 -1.1104 9.43923 5.27605 26.3472
8307 2 2.2208 2.37795 -4.37304 13.6336
538 2 2.2208 10.9432 21.0086 24.8656
497 1 -1.1104 6.65761 16.8087 20.8794
509 1 -1.1104 6.74447 16.4294 26.4757
617 1 -1.1104 1.1864 13.6056 26.3835
376 3 0 1.17906 17.2912 23.5657
382 3 0 0.686066 13.8646 22.7421
383 2 2.2208 2.61488 21.3128 22.2082
408 1 -1.1104 6.29149 16.5214 23.6034
415 1 -1.1104 3.88264 13.5454 26.4325
416 1 -1.1104 3.98525 16.4616 26.4486
450 2 2.2208 5.24146 18.3437 22.1555
452 2 2.2208 5.1962 15.094 25.0637
453 2 2.2208 5.42719 20.8877 24.7995
479 1 -1.1104 0.904299 19.6632 26.4579
510 1 -1.1104 3.7864 13.8122 23.7774
512 1 -1.1104 3.83157 19.7549 23.371
570 1 -1.1104 5.91227 19.1429 26.058
511 1 -1.1104 6.61675 13.8278 26.3631
451 1 -1.1104 6.62189 13.7288 23.5712
414 1 -1.1104 6.84471 19.3649 23.3881
316 2 2.2208 10.835 9.86606 13.7175
633 1 -1.1104 12.2723 16.5129 23.5646
537 1 -1.1104 9.43253 16.6039 20.7715
530 1 -1.1104 9.37179 13.6716 20.7399
518 1 -1.1104 12.2641 13.8363 20.511
569 2 2.2208 10.8667 18.0807 22.3293
539 2 2.2208 10.9283 15.1781 24.9167
596 2 2.2208 8.03276 15.2377 22.1982
411 1 -1.1104 9.65491 19.4849 23.6722
413 2 2.2208 7.89836 17.8973 25.0461
597 2 2.2208 8.05641 20.921 22.0538
9075 2 2.2208 13.8628 15.3329 22.1638
571 1 -1.1104 9.50062 13.6938 26.36
9254 2 2.2208 -0.432084 18.2308 16.5325
573 1 -1.1104 12.2469 13.8176 23.4896
632 1 -1.1104 12.1092 19.5077 26.3067
604 1 -1.1104 12.362 13.9172 26.4162
574 1 -1.1104 12.3849 19.3723 23.5566
374 2 2.2208 13.5616 3.99175 22.0143
381 2 2.2208 13.5387 9.57716 22.0325
9073 2 2.2208 13.6872 18.0928 24.9237
9280 2 2.2208 13.6965 6.83865 24.9388
9039 2 2.2208 -0.314825 15.2354 13.7735
412 2 2.2208 13.5943 -1.54184 16.3358
331 2 2.2208 2.45544 -1.59621 27.805
332 2 2.2208 2.32665 3.80939 27.6264
321 2 2.2208 13.6159 20.8966 27.732
328 2 2.2208 8.05991 9.501 27.7686
329 2 2.2208 10.8875 6.79445 27.7842
305 2 2.2208 2.35883 1.18287 13.7351
322 2 2.2208 8.06473 18.0801 13.7566
324 2 2.2208 10.864 20.9327 13.778
309 2 2.2208 7.87424 1.27218 13.7079
314 2 2.2208 2.41367 6.84797 13.8439
9038 2 2.2208 -0.342986 20.9413 13.6596
641 2 2.2208 5.29136 23.5444 5.24202
642 2 2.2208 5.09855 29.2053 5.35649
643 1 -1.1104 0.99764 25.0479 1.0396
644 1 -1.1104 1.05008 24.8653 3.85676
645 1 -1.1104 1.00019 22.1801 1.14867
646 1 -1.1104 1.18113 27.792 1.09836
647 2 2.2208 5.35118 26.5169 2.46521
648 1 -1.1104 1.10919 22.2607 3.8235
649 1 -1.1104 1.04085 27.7432 3.74452
650 1 -1.1104 3.73193 25.2209 1.21378
651 2 2.2208 2.46798 23.7899 2.44766
652 2 2.2208 2.48192 29.2944 2.42732
653 1 -1.1104 3.9681 25.1079 3.87302
654 2 2.2208 2.46936 26.3731 5.23522
655 1 -1.1104 3.76796 22.3823 0.938228
656 1 -1.1104 3.88533 27.876 1.02843
657 1 -1.1104 3.78271 22.295 3.74031
658 1 -1.1104 3.76079 27.8656 3.89911
666 1 -1.1104 6.65805 22.19 3.90893
682 1 -1.1104 6.67615 22.2336 1.22762
663 1 -1.1104 6.70168 25.008 4.05984
665 1 -1.1104 6.74115 27.9702 1.3884
789 1 -1.1104 3.81846 22.2061 6.68224
667 1 -1.1104 6.6127 27.9635 4.06159
783 1 -1.1104 6.5756 25.2637 6.74928
662 1 -1.1104 6.64566 24.7331 1.03906
782 1 -1.1104 1.00827 25.0274 6.60215
788 1 -1.1104 3.83896 24.8987 6.60259
787 1 -1.1104 6.4945 28.1404 6.89366
790 1 -1.1104 3.70839 27.8611 6.63195
950 2 2.2208 -0.296892 43.151 13.5966
668 2 2.2208 10.9577 23.7809 5.2257
669 2 2.2208 10.9218 29.4834 5.26365
671 1 -1.1104 12.3925 25.2578 3.89061
672 1 -1.1104 12.1499 22.2489 1.11734
673 1 -1.1104 12.3279 27.9204 1.09859
674 2 2.2208 11.0989 26.7117 2.54644
675 1 -1.1104 12.2608 22.3418 3.91104
676 1 -1.1104 12.2579 28.2113 3.89133
677 1 -1.1104 11.8815 25.0402 1.05261
678 2 2.2208 7.98707 23.6488 2.55748
679 2 2.2208 7.88694 29.4983 2.64512
680 1 -1.1104 9.42579 25.2726 3.63461
681 2 2.2208 8.05334 26.5967 5.27214
683 1 -1.1104 9.56675 22.6312 1.07935
684 1 -1.1104 9.52297 22.4836 3.89198
685 1 -1.1104 9.46243 28.037 3.70129
820 1 -1.1104 9.42556 27.9743 6.48522
819 1 -1.1104 9.44352 22.3363 6.70168
686 2 2.2208 13.7115 23.6354 2.39213
818 1 -1.1104 9.40149 25.1554 6.44523
815 1 -1.1104 12.205 25.2051 6.59956
958 2 2.2208 8.07734 23.6682 13.5665
816 1 -1.1104 12.2604 22.4435 6.72594
781 2 2.2208 5.19438 43.2903 13.7347
690 2 2.2208 5.27653 35.0197 5.13077
691 1 -1.1104 0.908118 30.6083 1.00046
692 1 -1.1104 1.03713 36.211 1.08974
694 1 -1.1104 1.08059 30.6504 3.83329
695 1 -1.1104 1.11216 36.2273 3.8238
697 1 -1.1104 1.03103 33.4836 0.885009
698 2 2.2208 5.29364 32.1308 2.48309
699 2 2.2208 5.23943 37.7898 2.38284
700 1 -1.1104 0.969134 33.4443 3.70177
702 1 -1.1104 3.74672 30.5914 1.14402
703 1 -1.1104 3.89061 36.3065 0.762036
704 2 2.2208 2.43572 34.8952 2.41678
705 1 -1.1104 3.84747 30.5535 3.84091
706 1 -1.1104 3.88435 36.4158 3.66924
707 2 2.2208 2.48975 32.0655 5.28839
708 2 2.2208 2.36294 37.6961 5.29378
709 1 -1.1104 3.90951 33.4174 1.06945
710 1 -1.1104 3.77732 33.4576 3.84116
713 1 -1.1104 6.37641 30.7522 1.09622
693 1 -1.1104 6.55786 36.3539 1.00861
715 1 -1.1104 6.69119 33.4956 1.00329
714 1 -1.1104 6.64948 30.7311 3.84549
846 1 -1.1104 3.9536 36.4104 6.65704
839 1 -1.1104 0.974168 30.569 6.66087
696 1 -1.1104 6.59147 36.5022 3.98836
844 1 -1.1104 6.68654 33.5872 6.65157
841 1 -1.1104 6.66536 30.8363 6.61229
701 1 -1.1104 6.73139 33.6571 3.72016
842 1 -1.1104 6.66793 36.2046 6.67027
840 1 -1.1104 1.08762 36.1425 6.57566
843 1 -1.1104 1.02859 33.4344 6.48804
847 1 -1.1104 3.79384 33.641 6.54586
689 2 2.2208 10.9383 46.0719 10.8754
728 1 -1.1104 9.33375 30.6857 4.08811
716 2 2.2208 10.9336 35.106 5.19603
717 1 -1.1104 12.3349 30.8034 1.14295
718 1 -1.1104 12.2303 36.2233 1.05505
719 1 -1.1104 12.2637 30.9001 4.09065
720 1 -1.1104 12.3485 36.4276 3.62903
721 1 -1.1104 12.4421 33.4516 0.893537
722 2 2.2208 10.7786 32.0421 2.43538
723 2 2.2208 10.853 37.6546 2.29056
724 1 -1.1104 12.2589 33.5933 3.67907
725 1 -1.1104 9.17027 30.8461 1.35833
726 1 -1.1104 9.48182 36.2704 1.1349
727 2 2.2208 8.14388 34.8984 2.50778
729 1 -1.1104 9.28559 36.4291 3.93215
730 2 2.2208 8.09259 32.2482 5.34008
731 2 2.2208 8.05895 37.8051 5.23109
732 1 -1.1104 9.55544 33.6022 1.05423
733 1 -1.1104 9.56585 33.6701 3.87623
877 1 -1.1104 9.51195 33.5254 6.65824
734 2 2.2208 13.7171 34.986 2.28566
873 1 -1.1104 12.4138 36.4082 6.55514
876 1 -1.1104 9.42375 36.4098 6.69053
946 2 2.2208 13.6838 32.3053 5.23114
875 1 -1.1104 9.51898 30.7604 6.82522
874 1 -1.1104 12.2268 33.6333 6.75354
872 1 -1.1104 12.1839 30.7492 6.83491
935 2 2.2208 8.16702 40.4546 8.00299
1480 1 -1.1104 1.19127 47.4307 12.0292
10049 2 2.2208 13.6743 40.5406 13.5257
746 1 -1.1104 1.07402 39.0363 3.75181
735 2 2.2208 5.37374 40.4287 5.31284
736 2 2.2208 5.28556 46.1771 5.27295
737 1 -1.1104 0.990865 41.95 1.05238
739 1 -1.1104 1.11123 41.8827 3.73347