ITEM: TIMESTEP
60000
ITEM: NUMBER OF ATOMS
17688
ITEM: BOX BOUNDS pp pp pp
-3.6553961996866108e-01 2.7705539619968622e+01
-4.3265077634041349e+00 3.3240650776341261e+02
-3.6674563284873085e-01 2.7706745632849241e+01
ITEM: ATOMS id type q x y z
1 2 2.2208 5.37246 1.24824 5.31485
2 1 -1.1104 1.20589 -2.89213 1.07545
3 1 -1.1104 1.13859 2.78692 1.20195
6 1 -1.1104 1.06864 -2.87124 3.8708
7 1 -1.1104 1.1554 2.82685 3.91125
10 1 -1.1104 1.04935 -0.0493865 1.06417
12 2 2.2208 5.31432 -1.51683 2.58703
13 2 2.2208 5.34245 3.96994 2.52139
14 1 -1.1104 1.05047 0.00371425 3.96112
16 1 -1.1104 3.87621 -2.87652 1.05188
17 1 -1.1104 3.85 2.60383 1.07991
18 2 2.2208 2.32662 1.36356 2.49903
19 1 -1.1104 3.86487 -3.01103 3.93417
20 1 -1.1104 3.81458 2.63166 3.91595
21 2 2.2208 2.49904 -1.58789 5.31903
23 1 -1.1104 3.90486 -0.0196477 1.02218
24 1 -1.1104 3.95238 -0.15959 3.8778
22 2 2.2208 2.53838 4.11054 5.30778
166 1 -1.1104 1.02791 -3.05689 6.5048
11 1 -1.1104 6.77613 -0.166025 1.21184
9010 2 2.2208 -0.304236 12.4863 5.29275
167 1 -1.1104 1.12668 2.76858 6.63918
172 1 -1.1104 3.90157 -2.86509 6.63262
174 1 -1.1104 3.93958 -0.0390757 6.82719
8914 2 2.2208 13.4768 12.5326 8.15583
9 1 -1.1104 6.59418 2.53809 4.04102
15 1 -1.1104 6.71352 -0.258049 4.01417
169 1 -1.1104 6.65242 2.6622 6.81079
9004 2 2.2208 -0.268856 1.37871 5.33284
9005 2 2.2208 -0.325749 4.1683 2.43351
8 1 -1.1104 6.67482 -2.89685 4.12786
4 1 -1.1104 6.72338 -2.88848 1.14603
168 1 -1.1104 6.77964 -2.9773 6.77912
5 1 -1.1104 6.69447 2.64355 1.20266
31 2 2.2208 11.0148 1.19982 5.3422
32 1 -1.1104 12.402 -2.81386 1.00952
33 1 -1.1104 12.2053 2.52899 1.14164
34 1 -1.1104 12.4491 -2.93241 3.91748
35 1 -1.1104 12.3131 2.5356 3.89499
36 1 -1.1104 12.333 -0.0456045 1.01371
37 2 2.2208 10.9421 -1.40599 2.47285
38 2 2.2208 10.9113 4.01774 2.59116
39 1 -1.1104 12.4532 -0.242532 3.79388
40 1 -1.1104 9.50741 -2.97285 0.909666
41 1 -1.1104 9.34177 2.74865 1.23894
42 2 2.2208 8.07461 1.29279 2.62956
43 1 -1.1104 9.63933 -2.86866 3.75377
44 1 -1.1104 9.43032 2.63805 4.02527
45 2 2.2208 8.25171 -1.61378 5.28352
46 2 2.2208 8.16438 4.06307 5.53404
47 1 -1.1104 9.55014 -0.0707959 1.13964
48 1 -1.1104 9.60289 -0.0963727 3.8816
171 1 -1.1104 6.76261 -0.132373 6.80091
209 1 -1.1104 9.59643 2.75351 6.81999
208 1 -1.1104 9.57805 -2.86986 6.74527
207 1 -1.1104 12.3844 -0.233137 6.66143
8293 2 2.2208 13.5403 -4.28058 8.17107
339 2 2.2208 5.55051 17.948 -0.325051
8283 2 2.2208 2.49959 -4.1649 2.52361
210 1 -1.1104 9.58782 -0.155587 6.74648
54 2 2.2208 5.4085 6.86776 5.36726
55 2 2.2208 5.25144 12.4575 5.41617
56 1 -1.1104 0.939642 8.25913 1.18977
58 1 -1.1104 1.0334 8.49514 4.05881
60 1 -1.1104 1.13199 5.50763 1.18933
61 1 -1.1104 1.13814 11.0909 1.27588
66 2 2.2208 5.35303 9.73068 2.66621
67 1 -1.1104 1.25114 5.62511 4.06881
68 1 -1.1104 1.18054 11.0449 3.94319
71 1 -1.1104 3.81175 8.2274 1.25988
72 2 2.2208 2.46863 6.87856 2.66923
73 2 2.2208 2.55353 12.4716 2.60866
74 1 -1.1104 3.77061 8.1815 4.05635
75 2 2.2208 2.44884 9.70817 5.37451
76 1 -1.1104 3.84251 5.44838 1.12568
77 1 -1.1104 3.98768 11.0775 1.2374
79 1 -1.1104 4.01915 5.44182 3.90605
80 1 -1.1104 3.97587 10.9943 4.07723
234 1 -1.1104 1.03503 8.27979 6.80582
8285 2 2.2208 8.09064 -4.24219 2.43909
8731 2 2.2208 13.6682 9.67825 5.27429
236 1 -1.1104 1.0161 5.58113 6.80688
62 1 -1.1104 1.02732 11.0695 6.71478
238 1 -1.1104 3.84469 8.30972 6.76491
637 2 2.2208 8.22256 15.2015 -0.247312
328 2 2.2208 8.08451 9.6571 -0.0290389
336 2 2.2208 8.12255 4.09926 -0.231641
59 1 -1.1104 6.829 8.39379 3.98972
57 1 -1.1104 6.56093 8.41422 1.17717
69 1 -1.1104 6.78929 5.49197 3.9295
64 1 -1.1104 6.80497 11.1457 1.26364
70 1 -1.1104 6.70944 11.146 4.12437
63 1 -1.1104 6.775 5.58751 1.09536
84 2 2.2208 10.9639 6.89728 5.18461
85 2 2.2208 10.9056 12.5512 5.28119
86 1 -1.1104 12.2344 8.21036 1.07058
87 1 -1.1104 12.3785 8.32641 3.86541
88 1 -1.1104 12.324 5.41774 1.09114
89 1 -1.1104 12.1939 11.0766 1.22581
91 2 2.2208 10.8799 9.62615 2.53465
92 1 -1.1104 12.4036 5.29946 3.81582
93 1 -1.1104 12.3665 11.1699 3.96166
94 1 -1.1104 9.52179 8.36863 1.27693
95 2 2.2208 8.21349 6.86128 2.63253
96 2 2.2208 8.19974 12.5326 2.55818
97 1 -1.1104 9.5245 8.3691 3.94688
98 2 2.2208 8.21397 9.85563 5.40114
99 1 -1.1104 9.61358 5.55827 1.13554
100 1 -1.1104 9.57109 11.0945 1.15644
102 1 -1.1104 9.55913 5.52818 3.99506
103 1 -1.1104 9.5947 11.2304 3.95479
101 1 -1.1104 9.50547 11.2158 6.75035
235 1 -1.1104 6.78655 8.27572 6.88007
267 1 -1.1104 9.53319 8.30525 6.69511
8924 2 2.2208 -0.261983 12.5673 10.7703
335 2 2.2208 8.20195 -1.49356 -0.288602
9021 2 2.2208 -0.184753 12.5365 -0.219398
8730 2 2.2208 -0.354748 21.0451 8.18941
325 2 2.2208 5.31217 6.82877 -0.224966
106 2 2.2208 5.29436 18.0992 5.22914
107 1 -1.1104 1.12012 13.9696 1.11958
109 1 -1.1104 0.990115 19.508 0.959367
113 1 -1.1104 1.23996 14.0619 3.83085
114 1 -1.1104 1.0105 19.5287 3.81296
116 1 -1.1104 1.0816 16.7143 0.357828
119 2 2.2208 5.31928 15.2718 2.53112
120 2 2.2208 5.24041 20.9254 2.50229
121 1 -1.1104 0.904187 16.8959 3.58717
123 1 -1.1104 4.09402 13.7906 1.27329
125 1 -1.1104 3.91424 19.4855 0.673049
127 2 2.2208 2.49205 18.2213 2.36715
128 1 -1.1104 4.00392 13.8685 3.96748
129 1 -1.1104 3.82946 19.6057 3.80707
130 2 2.2208 2.61526 15.4668 5.239
131 2 2.2208 2.38606 20.8661 5.28012
132 1 -1.1104 3.85609 16.5151 1.00156
134 1 -1.1104 3.97285 16.7076 3.75975
115 1 -1.1104 6.76241 13.8659 3.91273
108 1 -1.1104 1.11007 13.8769 6.69669
327 2 2.2208 10.895 12.3862 -0.258036
138 1 -1.1104 6.68341 19.5305 1.03852
110 1 -1.1104 6.68163 13.8771 1.14429
306 2 2.2208 2.36238 20.9563 -0.283814
126 1 -1.1104 3.84522 19.4955 6.6389
117 1 -1.1104 1.27033 16.7429 6.73587
231 1 -1.1104 1.04148 19.4448 6.73663
201 1 -1.1104 9.58078 16.9215 12.0848
139 1 -1.1104 6.60019 19.6637 3.95803
122 1 -1.1104 6.76726 16.7946 3.98991
140 1 -1.1104 6.63491 16.6375 1.11347
141 2 2.2208 10.9655 18.2346 5.19394
142 1 -1.1104 12.2248 13.8231 0.98306
144 1 -1.1104 12.1421 19.4578 1.02874
146 1 -1.1104 12.3653 13.9686 3.81834
147 1 -1.1104 12.347 19.6432 3.65556
148 1 -1.1104 12.3562 16.611 1.22205
150 2 2.2208 10.8804 15.3323 2.60401
151 2 2.2208 10.8275 20.9977 2.27191
152 1 -1.1104 12.3638 16.7527 3.87971
153 1 -1.1104 9.52151 13.891 1.15264
155 1 -1.1104 9.40539 19.7746 1.02204
157 2 2.2208 8.05061 18.1043 2.39812
158 1 -1.1104 9.48834 14.0456 3.85729
159 1 -1.1104 9.34763 19.537 3.79034
160 2 2.2208 8.20712 15.4049 5.1852
161 2 2.2208 8.15415 20.9648 5.26971
162 1 -1.1104 9.49435 16.7213 1.14742
164 1 -1.1104 9.55784 16.8818 3.86607
145 1 -1.1104 12.4337 19.5273 6.49237
118 1 -1.1104 6.77723 16.6904 6.6654
149 1 -1.1104 12.2598 16.8754 6.6909
154 1 -1.1104 9.43977 14.058 6.76902
143 1 -1.1104 12.0991 14.1053 6.55629
334 2 2.2208 10.9958 1.28436 -0.317123
170 1 -1.1104 1.18625 -0.245226 6.63571
137 1 -1.1104 9.45235 13.9064 9.55144
8703 2 2.2208 -0.324916 18.183 10.9258
83 2 2.2208 10.9824 20.9267 8.04449
81 1 -1.1104 12.2857 16.7766 12.2359
173 1 -1.1104 3.91633 2.69682 6.62243
175 2 2.2208 5.38214 1.18725 10.9087
176 1 -1.1104 0.996384 -3.11989 12.2769
177 1 -1.1104 1.04781 2.54357 12.2037
180 1 -1.1104 0.963141 -2.96564 9.34684
181 1 -1.1104 1.18062 2.64651 9.50827
184 1 -1.1104 1.01862 -0.415589 12.267
186 2 2.2208 5.44363 -1.49703 8.0787
187 2 2.2208 5.27293 3.95848 8.04262
188 1 -1.1104 1.13678 -0.099771 9.50987
190 1 -1.1104 3.85641 -2.92952 12.2336
191 1 -1.1104 3.92324 2.58429 12.1352
192 2 2.2208 2.57529 1.25869 8.12024
193 1 -1.1104 3.87949 -2.75252 9.52585
194 1 -1.1104 4.0056 2.63345 9.44089
195 2 2.2208 2.54429 -1.5938 10.8026
196 2 2.2208 2.54758 4.11381 10.8468
197 1 -1.1104 3.8722 -0.148968 12.2579
198 1 -1.1104 4.09945 -0.125928 9.60523
179 1 -1.1104 6.87933 2.7297 12.3022
178 1 -1.1104 6.66183 -3.03481 12.2967
26 1 -1.1104 12.3385 13.9309 12.3264
9001 2 2.2208 -0.346162 -1.36856 2.51024
27 1 -1.1104 12.3832 19.5518 12.3206
288 1 -1.1104 6.73067 19.5367 9.32337
163 1 -1.1104 9.65353 16.7002 6.6097
182 1 -1.1104 6.78226 -2.96626 9.46848
205 1 -1.1104 12.3049 -2.82781 6.78053
183 1 -1.1104 6.84024 2.67863 9.53004
206 1 -1.1104 12.5178 2.5838 6.57102
189 1 -1.1104 6.86445 -0.0598642 9.58216
185 1 -1.1104 6.6855 -0.127724 12.3706
211 2 2.2208 10.9441 1.32031 10.9886
212 1 -1.1104 12.3865 -2.91839 12.3664
213 1 -1.1104 12.4161 2.59091 12.3819
214 1 -1.1104 12.3095 -2.99451 9.54601
215 1 -1.1104 12.26 2.68342 9.56203
216 1 -1.1104 12.2661 -0.134526 12.1506
217 2 2.2208 10.9733 -1.55388 8.26939
218 2 2.2208 10.9258 4.05943 8.0254
219 1 -1.1104 12.4183 -0.148755 9.39157
220 1 -1.1104 9.5205 -2.95327 12.2756
221 1 -1.1104 9.65139 2.77019 12.295
222 2 2.2208 8.24018 1.29848 8.12957
223 1 -1.1104 9.63874 -2.93656 9.53624
224 1 -1.1104 9.5966 2.72288 9.51947
225 2 2.2208 8.08961 -1.63372 10.9025
226 2 2.2208 8.19734 4.16563 10.8393
227 1 -1.1104 9.47232 -0.186441 12.4072
228 1 -1.1104 9.49487 -0.104319 9.59729
8964 2 2.2208 13.5856 21.0639 10.9545
50 1 -1.1104 12.3511 19.6703 9.43776
165 1 -1.1104 9.43101 19.4904 9.27345
78 1 -1.1104 4.03142 11.187 6.70852
104 1 -1.1104 12.1849 16.6472 9.59369
239 1 -1.1104 4.10785 5.51742 6.7934
240 2 2.2208 5.34029 6.88205 10.9242
241 2 2.2208 5.32874 12.4972 11.0175
242 1 -1.1104 1.03005 8.3413 12.1821
244 1 -1.1104 1.09958 8.28877 9.44961
246 1 -1.1104 1.12676 5.4311 12.3505
247 1 -1.1104 1.14642 11.2105 12.352
250 2 2.2208 5.26427 9.668 8.20205
251 1 -1.1104 1.12684 5.56966 9.53117
252 1 -1.1104 1.04847 11.1898 9.56128
255 1 -1.1104 3.99246 8.27675 12.4109
256 2 2.2208 2.47325 7.01119 8.0449
257 2 2.2208 2.37391 12.5698 8.06821
258 1 -1.1104 3.90895 8.12048 9.67814
259 2 2.2208 2.53647 9.67286 10.9866
260 1 -1.1104 3.95378 5.46574 12.325
261 1 -1.1104 3.88663 11.1647 12.4105
262 1 -1.1104 3.92386 5.31921 9.36093
263 1 -1.1104 3.89025 10.7901 9.59814
254 1 -1.1104 6.64108 11.1799 9.50361
249 1 -1.1104 6.84184 11.076 12.3861
135 1 -1.1104 9.63893 19.7206 12.0682
199 2 2.2208 8.04457 15.3167 10.7631
266 1 -1.1104 12.4908 5.44952 6.63151
90 1 -1.1104 12.2506 11.0838 6.67687
243 1 -1.1104 6.73523 8.26493 12.3524
65 1 -1.1104 6.7105 11.1453 6.84229
269 1 -1.1104 9.67946 5.53223 6.75757
245 1 -1.1104 6.73193 8.2138 9.56754
248 1 -1.1104 6.75408 5.51796 12.303
237 1 -1.1104 6.83914 5.53656 6.65253
253 1 -1.1104 6.63695 5.44229 9.34647
265 1 -1.1104 12.324 8.21325 6.59268
264 1 -1.1104 9.58354 11.0332 9.56686
268 1 -1.1104 9.49911 5.48016 9.43325
270 1 -1.1104 9.53472 11.1003 12.4047
271 1 -1.1104 9.66372 5.4754 12.1179
272 2 2.2208 8.07828 9.83201 10.9029
273 1 -1.1104 9.62348 8.29044 9.61823
274 2 2.2208 8.11328 12.5903 8.09896
275 2 2.2208 8.11498 6.84634 8.14493
276 2 2.2208 11.0071 6.76857 10.8816
277 2 2.2208 10.8414 12.5569 11.0001
278 1 -1.1104 12.4089 8.17697 12.1426
279 1 -1.1104 12.432 8.24875 9.32762
280 1 -1.1104 12.4446 5.41291 12.3032
281 1 -1.1104 12.4166 11.1548 12.1339
282 2 2.2208 10.862 9.69076 8.00822
283 1 -1.1104 12.2639 5.41515 9.49243
284 1 -1.1104 12.223 11.0604 9.38198
285 1 -1.1104 9.48452 8.36985 12.4145
200 2 2.2208 8.15143 21.1802 10.8062
229 1 -1.1104 9.42109 16.7728 9.45322
30 1 -1.1104 12.1912 13.8573 9.5204
112 1 -1.1104 6.7393 19.5322 6.59996
290 1 -1.1104 6.64549 13.8949 9.42156
296 1 -1.1104 6.78039 19.6169 12.1555
53 1 -1.1104 6.6018 16.7753 12.2705
133 1 -1.1104 3.80676 16.7756 6.62579
124 1 -1.1104 3.80494 14.0003 6.77203
28 2 2.2208 2.49327 15.174 10.9755
29 2 2.2208 2.38722 20.9983 10.937
51 1 -1.1104 3.72898 16.7021 12.2418
52 1 -1.1104 0.886406 16.7817 12.346
202 1 -1.1104 3.91236 13.7188 9.52584
203 1 -1.1104 3.96402 16.62 9.52372
204 2 2.2208 2.50404 18.2185 8.20416
232 1 -1.1104 3.88861 19.4651 9.59899
233 2 2.2208 5.3063 18.1567 10.9004
286 1 -1.1104 3.92081 19.5404 12.4531
287 1 -1.1104 3.93163 14.0152 12.3087
291 1 -1.1104 1.16238 19.6671 9.50106
292 1 -1.1104 1.04705 16.8627 9.53417
293 2 2.2208 5.30738 21.005 8.09347
294 1 -1.1104 1.15848 13.9424 9.42278
295 2 2.2208 5.26763 15.2985 8.13788
298 1 -1.1104 1.12038 19.5955 12.2546
299 1 -1.1104 1.17991 13.894 12.3696
111 1 -1.1104 6.53047 13.9329 6.8048
289 1 -1.1104 6.77648 16.7603 9.4191
136 2 2.2208 8.04559 18.1544 8.03603
297 1 -1.1104 6.70892 13.9244 12.2694
82 2 2.2208 10.907 15.4425 8.04871
156 1 -1.1104 9.63701 19.5938 6.60808
105 1 -1.1104 9.46225 14.0945 12.3578
25 2 2.2208 10.9582 18.2499 10.6986
302 2 2.2208 5.44492 12.3926 -0.120418
329 2 2.2208 10.9246 6.86262 -0.303169
8897 2 2.2208 -0.278838 -1.63242 7.99046
8898 2 2.2208 -0.275195 4.17793 8.09949
8932 2 2.2208 -0.391843 6.89057 10.8416
330 2 2.2208 5.32096 1.34777 -0.262772
9015 2 2.2208 -0.217544 18.2015 5.2905
9009 2 2.2208 -0.33863 9.73878 2.4217
9258 2 2.2208 -0.251061 1.36603 -0.402235
332 2 2.2208 2.66206 4.04146 -0.262383
312 2 2.2208 13.673 9.6104 -0.223466
8704 2 2.2208 -0.228819 15.4248 8.15998
8800 2 2.2208 13.6318 15.3051 5.21927
331 2 2.2208 2.59417 -1.47217 -0.245734
17688 2 2.2208 -0.168797 -4.27787 -0.171496
316 2 2.2208 10.9319 9.70724 13.682
320 2 2.2208 5.3554 21.0659 13.5033
314 2 2.2208 2.55793 6.81957 13.6041
303 2 2.2208 5.34029 -1.51967 13.6183
322 2 2.2208 8.11743 18.2062 13.5128
310 2 2.2208 10.9233 -1.62146 13.6756
338 2 2.2208 2.36356 9.50487 -0.11402
326 2 2.2208 10.6567 18.1315 -0.245666
307 2 2.2208 5.42617 4.06504 13.6498
9031 2 2.2208 -0.242183 9.74847 13.5456
305 2 2.2208 2.59705 1.36358 13.543
341 2 2.2208 5.36944 1.35788 16.4788
342 1 -1.1104 1.18215 -2.98233 17.9496
343 1 -1.1104 1.14039 2.84225 17.8167
346 1 -1.1104 1.14891 -2.94481 15.052
348 1 -1.1104 1.22045 2.60899 15.0058
354 1 -1.1104 1.26888 -0.0173335 17.8394
356 2 2.2208 5.36612 -1.45342 19.2697
357 2 2.2208 5.26731 4.08105 19.4716
358 1 -1.1104 1.22482 -0.181631 15.1297
362 1 -1.1104 3.98497 -2.75554 17.8117
363 1 -1.1104 4.0214 2.68017 17.8384
364 2 2.2208 2.67887 1.34765 19.2273
365 1 -1.1104 3.87397 -2.92609 14.9808
367 1 -1.1104 4.12126 2.87222 14.9661
369 2 2.2208 2.62167 -1.46742 16.4937
370 2 2.2208 2.57412 4.11404 16.5019
371 1 -1.1104 3.9781 0.00199728 17.9176
372 1 -1.1104 4.04476 -0.0331502 15.0309
349 1 -1.1104 1.33574 2.74583 20.7255
355 1 -1.1104 6.80339 -0.0183461 17.9398
366 1 -1.1104 3.81366 -2.92454 20.617
9214 2 2.2208 13.5889 18.2222 19.3217
345 1 -1.1104 6.77287 2.73795 17.9623
360 1 -1.1104 6.80924 -0.128608 15.2464
352 1 -1.1104 6.79471 2.66952 15.1179
9257 2 2.2208 -0.367788 -1.43455 24.9151
8326 2 2.2208 8.05665 -4.29987 24.9455
8447 2 2.2208 11.105 -4.26111 16.6119
9038 2 2.2208 -0.445892 21.0646 13.7195
9069 2 2.2208 -0.221139 -1.54874 19.1678
636 2 2.2208 -0.276785 1.18491 22.0736
344 1 -1.1104 6.73239 -2.90711 17.9137
350 1 -1.1104 6.49098 -2.90841 15.1415
351 1 -1.1104 6.64595 -2.67463 20.6227
361 1 -1.1104 6.81766 -0.0669747 20.7589
384 2 2.2208 10.9961 1.22351 16.4169
385 1 -1.1104 12.4845 -2.94065 17.9251
386 1 -1.1104 12.3434 2.54705 18.0324
387 1 -1.1104 12.3507 -3.04289 15.1058
389 1 -1.1104 12.2607 2.68558 15.1835
391 1 -1.1104 12.3836 -0.289242 17.8148
392 2 2.2208 10.8336 -1.52885 19.2781
394 1 -1.1104 12.4291 -0.195906 14.9514
396 1 -1.1104 9.57943 -3.04099 17.8292
397 1 -1.1104 9.64593 2.67101 17.876
398 2 2.2208 8.13651 1.27309 19.2886
399 1 -1.1104 9.57652 -2.95475 15.0809
401 1 -1.1104 9.63068 2.60868 14.9081
403 2 2.2208 8.1138 -1.53408 16.5784
404 2 2.2208 8.13399 4.05802 16.539
405 1 -1.1104 9.51777 -0.190685 17.8816
406 1 -1.1104 9.56797 -0.107068 15.1469
393 2 2.2208 11.033 4.17875 19.3283
407 1 -1.1104 9.57238 -0.277997 20.6406
388 1 -1.1104 12.3519 -2.92493 20.7366
400 1 -1.1104 9.45653 -2.87172 20.7474
390 1 -1.1104 12.3454 2.77298 20.8625
9252 2 2.2208 -0.203516 21.1333 19.3052
413 2 2.2208 8.05445 18.1013 24.8901
402 1 -1.1104 9.57366 2.64864 20.7593
395 1 -1.1104 12.3869 -0.0528661 20.7089
9113 2 2.2208 -0.236803 4.10272 19.1856
417 2 2.2208 5.24054 6.82711 16.5546
418 2 2.2208 5.29108 12.5411 16.4954
419 1 -1.1104 1.0241 8.30439 17.8333
421 1 -1.1104 0.980238 8.3756 14.996
425 1 -1.1104 1.03174 5.57506 17.8613
426 1 -1.1104 1.09538 11.1431 18.2295
429 2 2.2208 5.24576 9.79674 19.3306
430 1 -1.1104 1.25828 5.51285 15.0104
432 1 -1.1104 1.00597 11.2861 15.2537
437 1 -1.1104 3.81519 8.19249 17.9508
438 2 2.2208 2.40811 6.94678 19.3561
439 2 2.2208 2.66081 12.6436 19.1373
440 1 -1.1104 3.86834 8.34934 15.1029
442 2 2.2208 2.55672 9.79316 16.4555
443 1 -1.1104 3.82879 5.41246 17.8758
444 1 -1.1104 3.78898 11.0274 17.8901
445 1 -1.1104 3.98648 5.52228 14.9839
447 1 -1.1104 3.95437 11.2757 15.1166
423 1 -1.1104 6.81841 8.30371 15.2902
446 1 -1.1104 3.91688 5.48804 20.5764
422 1 -1.1104 1.20709 8.71789 20.6841
420 1 -1.1104 6.66889 8.32744 18.0386
509 1 -1.1104 6.82417 16.6341 26.3845
441 1 -1.1104 3.85149 8.26134 20.7054
431 1 -1.1104 1.17238 5.72175 20.7097
448 1 -1.1104 3.40895 11.1359 20.782
8381 2 2.2208 8.07193 -4.3004 19.2992
377 2 2.2208 -0.218166 1.23042 16.433
574 1 -1.1104 12.161 19.6605 23.3519
433 1 -1.1104 6.80511 5.44023 15.3323
435 1 -1.1104 6.91115 11.1001 15.0538
427 1 -1.1104 6.6948 5.66576 17.9389
428 1 -1.1104 6.6124 11.2021 17.8963
454 2 2.2208 10.9417 6.93029 16.3992
455 2 2.2208 11.0017 12.5541 16.6232
456 1 -1.1104 12.283 8.30282 17.8625
457 1 -1.1104 12.3875 8.3116 15.0213
459 1 -1.1104 12.3488 5.53337 17.813
460 1 -1.1104 12.3589 11.0983 17.8974
461 2 2.2208 10.8608 9.61992 19.3675
462 1 -1.1104 12.4204 5.52245 15.0197
464 1 -1.1104 12.2708 11.1523 15.0365
466 1 -1.1104 9.46743 8.35593 17.9374
467 2 2.2208 8.04141 6.96901 19.3482
468 2 2.2208 8.06403 12.6304 19.372
469 1 -1.1104 9.58641 8.29655 15.1988
471 2 2.2208 8.32701 9.78156 16.5535
472 1 -1.1104 9.55409 5.45897 17.9972
473 1 -1.1104 9.54307 11.172 18.0601
474 1 -1.1104 9.49682 5.53975 15.1009
476 1 -1.1104 9.64216 11.0862 15.2642
458 1 -1.1104 12.4044 8.24746 20.7657
424 1 -1.1104 6.63255 8.40966 20.8103
465 1 -1.1104 12.1958 11.1789 20.7017
463 1 -1.1104 12.4393 5.60674 20.8497
477 1 -1.1104 9.39784 11.0298 20.8949
470 1 -1.1104 9.40042 8.1969 20.8258
598 1 -1.1104 9.23048 16.6396 23.4565
480 2 2.2208 5.27582 18.1274 16.4448
481 1 -1.1104 0.933754 13.8729 18.204
482 1 -1.1104 1.27607 19.575 17.7754
485 1 -1.1104 1.06065 13.9727 15.2082
486 1 -1.1104 1.00326 19.4589 14.9714
491 1 -1.1104 1.01289 16.6256 18.3206
493 2 2.2208 5.16015 15.4163 19.4569
494 2 2.2208 5.36167 21.0853 18.9399
495 1 -1.1104 1.18806 16.7091 15.3282
498 1 -1.1104 3.72589 14.0282 17.7789
499 1 -1.1104 3.98197 19.5979 17.975
500 2 2.2208 2.50486 18.1626 19.1
501 1 -1.1104 3.85258 13.977 15.1277
502 1 -1.1104 3.91004 19.6594 15.1804
504 2 2.2208 2.44673 15.4002 16.4362
505 2 2.2208 2.49822 21.0206 16.3652
506 1 -1.1104 3.69566 16.745 17.7345
507 1 -1.1104 3.87176 16.8003 14.9192
487 1 -1.1104 6.80594 13.8971 15.2137
492 1 -1.1104 6.55386 16.7329 17.889
490 1 -1.1104 6.40868 19.5076 20.5992
508 1 -1.1104 3.92441 17.2153 20.6018
571 1 -1.1104 9.66626 13.99 26.4199
483 1 -1.1104 6.58718 14.0637 17.9748
489 1 -1.1104 6.71304 19.5793 14.9208
380 1 -1.1104 12.0991 16.6873 26.6146
488 1 -1.1104 6.61898 13.6866 20.8051
9250 1 -1.1104 3.8232 13.9797 20.6151
604 1 -1.1104 12.3339 13.9027 26.2764
569 2 2.2208 10.8241 18.1982 22.0324
518 1 -1.1104 12.2407 13.9426 20.7385
520 1 -1.1104 12.0527 19.5059 20.6103
532 1 -1.1104 9.42466 19.5421 20.5282
496 1 -1.1104 6.66617 16.7402 15.1541
484 1 -1.1104 6.80451 19.5752 17.703
514 2 2.2208 10.9521 18.1161 16.3705
515 1 -1.1104 12.3398 14.0003 17.9495
516 1 -1.1104 12.4676 19.5613 17.8891
517 1 -1.1104 12.2668 13.9437 15.0873
519 1 -1.1104 12.3419 19.5159 15.0325
521 1 -1.1104 12.011 16.816 17.9194
522 2 2.2208 10.7871 15.3606 19.3086
523 2 2.2208 10.9779 20.9601 19.1672
524 1 -1.1104 12.2776 16.6251 14.9908
526 1 -1.1104 9.35632 13.8305 17.8745
527 1 -1.1104 9.53853 19.4913 17.8184
528 2 2.2208 8.06867 18.0281 19.3512
529 1 -1.1104 9.55713 14.0477 15.0315
531 1 -1.1104 9.54741 19.4585 14.947
533 2 2.2208 8.0173 15.3181 16.5628
534 2 2.2208 8.05106 21.1007 16.2037
535 1 -1.1104 9.40029 16.7758 17.937
536 1 -1.1104 9.50764 16.8052 15.0484
530 1 -1.1104 9.58044 13.7365 20.7553
525 1 -1.1104 12.2054 16.6365 20.7542
497 1 -1.1104 6.66671 16.6088 20.8117
451 1 -1.1104 6.79079 13.8957 23.6738
379 1 -1.1104 9.5404 13.8639 23.6837
347 1 -1.1104 1.00832 -2.95766 20.751
319 2 2.2208 2.45185 18.2525 13.694
373 1 -1.1104 4.08395 -0.0400925 20.7529
359 1 -1.1104 1.238 -0.0961052 20.696
597 2 2.2208 8.02896 21.0804 21.8966
599 1 -1.1104 9.42532 16.6649 26.5244
368 1 -1.1104 4.00671 2.74091 20.7577
541 2 2.2208 5.40713 1.15872 22.1266
542 1 -1.1104 1.1836 -2.77742 23.737
543 1 -1.1104 1.2308 2.68721 23.4927
546 1 -1.1104 1.13025 -3.04759 26.3879
547 1 -1.1104 1.3019 2.64096 26.3305
550 1 -1.1104 1.17885 -0.0154009 23.3283
552 2 2.2208 5.30796 -1.53631 25.0643
553 2 2.2208 5.34107 4.04687 24.851
554 1 -1.1104 1.21206 -0.0155832 26.1866
556 1 -1.1104 4.00945 -2.8009 23.5837
557 1 -1.1104 4.06479 2.802 23.4849
558 2 2.2208 2.57621 1.39001 24.8978
559 1 -1.1104 3.79239 -3.00366 26.4135
560 1 -1.1104 4.11321 2.70862 26.288
561 2 2.2208 2.51883 -1.44621 22.1262
562 2 2.2208 2.47416 4.08349 22.0966
563 1 -1.1104 3.95402 -0.0521359 23.5717
564 1 -1.1104 3.96393 -0.0891561 26.4165
572 1 -1.1104 9.26035 19.5742 26.1756
633 1 -1.1104 12.087 16.9395 23.6591
8450 2 2.2208 5.2709 -4.22461 16.5058
9075 2 2.2208 13.5818 15.3692 22.1539
315 2 2.2208 8.19681 12.5911 13.7546
309 2 2.2208 8.22043 1.25794 13.7462
551 1 -1.1104 6.68676 -0.19314 23.5571
353 1 -1.1104 6.85906 2.56744 20.7623
544 1 -1.1104 6.71979 -2.97329 23.4872
548 1 -1.1104 6.64577 -3.08341 26.3647
555 1 -1.1104 6.87418 -0.217199 26.2964
545 1 -1.1104 6.97163 2.58374 23.5198
549 1 -1.1104 6.88942 2.62247 26.3427
575 2 2.2208 11.0376 1.20914 22.0432
576 1 -1.1104 12.2884 -3.0032 23.6064
577 1 -1.1104 12.694 2.54554 23.6369
578 1 -1.1104 12.196 -2.88375 26.3656
579 1 -1.1104 12.6424 2.70229 26.3901
580 1 -1.1104 12.1762 -0.106829 23.5027
581 2 2.2208 10.8901 -1.56303 24.9231
583 1 -1.1104 12.5857 -0.00681993 26.4924
584 1 -1.1104 9.63354 -2.91489 23.4767
585 1 -1.1104 9.76082 2.57012 23.5729
586 2 2.2208 8.18864 1.2145 24.9256
587 1 -1.1104 9.38755 -2.88766 26.2063
588 1 -1.1104 9.70687 2.77578 26.4846
589 2 2.2208 8.13931 -1.42924 22.0901
590 2 2.2208 8.18758 4.03411 22.147
591 1 -1.1104 9.53396 -0.176977 23.5156
592 1 -1.1104 9.58367 -0.117848 26.186
582 2 2.2208 10.9781 4.0025 25.0266
537 1 -1.1104 9.4924 16.7529 20.829
381 2 2.2208 13.4495 9.71873 22.1454
538 2 2.2208 10.7322 21.0216 24.8446
411 1 -1.1104 9.43569 19.4295 23.3489
9210 2 2.2208 13.6579 20.935 16.4832
434 1 -1.1104 6.7318 5.32285 20.778
9110 2 2.2208 -0.281991 9.66473 24.88
605 2 2.2208 5.38073 6.99556 22.0383
606 2 2.2208 5.16187 12.4762 22.36
607 1 -1.1104 1.11118 8.11418 23.5593
609 1 -1.1104 1.18002 8.22066 26.3879
611 1 -1.1104 0.924163 5.44104 23.5667
612 1 -1.1104 1.18115 10.8886 23.6225
615 2 2.2208 5.22379 9.67272 25.228
616 1 -1.1104 1.05043 5.33796 26.388
620 1 -1.1104 3.82014 8.20434 23.7161
621 2 2.2208 2.45215 6.80645 24.9936
622 2 2.2208 2.48375 12.3969 25.0574
623 1 -1.1104 3.86044 8.21914 26.4891
624 2 2.2208 2.61608 9.48732 22.3055
625 1 -1.1104 3.81407 5.52762 23.5535
626 1 -1.1104 4.02679 10.9923 23.6731
627 1 -1.1104 4.08618 5.46622 26.3303
628 1 -1.1104 3.97749 11.0662 26.5644
9350 1 -1.1104 1.11162 10.9871 26.401
436 1 -1.1104 6.42159 11.0304 20.8145
511 1 -1.1104 6.89909 13.7466 26.5213
8380 2 2.2208 5.30683 -4.21584 22.0765
475 1 -1.1104 9.68743 5.5655 20.8691
610 1 -1.1104 6.76157 8.19556 26.4996
619 1 -1.1104 6.85513 10.9463 26.351
608 1 -1.1104 6.64817 8.22689 23.5634
614 1 -1.1104 6.7758 11.0869 23.626
618 1 -1.1104 6.74529 5.34139 26.3277
613 1 -1.1104 6.69158 5.6011 23.4827
378 1 -1.1104 9.56637 5.42406 23.7166
513 2 2.2208 7.98447 9.66292 22.2051
540 1 -1.1104 9.52074 8.16713 23.6604
565 1 -1.1104 12.3444 10.9357 26.3788
566 1 -1.1104 12.6343 5.56217 26.4844
567 2 2.2208 10.8814 9.58497 25.0268
568 1 -1.1104 12.1644 11.1097 23.5081
593 1 -1.1104 12.5266 5.39022 23.5741
594 1 -1.1104 12.3166 8.15401 26.315
595 1 -1.1104 12.3323 8.2869 23.6055
600 2 2.2208 10.8522 12.5141 22.1678
602 1 -1.1104 9.47366 10.8572 23.6783
603 2 2.2208 10.9471 6.7904 22.313
629 2 2.2208 8.07245 6.86778 24.9823
630 2 2.2208 8.11567 12.2822 24.9744
631 1 -1.1104 9.52904 8.19413 26.5041
634 1 -1.1104 9.56126 11.0446 26.4551
635 1 -1.1104 9.64901 5.4629 26.3075
596 2 2.2208 8.02565 15.1817 22.204
539 2 2.2208 10.8027 15.2932 25.0239
503 1 -1.1104 1.73497 19.6739 20.6196
414 1 -1.1104 6.67841 19.4033 23.4667
632 1 -1.1104 12.0882 19.444 26.2668
617 1 -1.1104 1.05293 13.7273 26.2952
376 3 0 1.19843 17.339 23.5944
382 3 0 0.682677 13.9678 22.1677
383 2 2.2208 2.50504 21.2669 22.1012
408 1 -1.1104 6.29069 16.6321 23.6321
415 1 -1.1104 3.92839 13.7809 26.326
416 1 -1.1104 4.06514 16.6884 26.2903
450 2 2.2208 5.46633 18.1011 22.1418
452 2 2.2208 5.48321 15.0714 25.1852
453 2 2.2208 5.32424 21.0058 24.7384
479 1 -1.1104 0.925005 19.6359 26.2465
510 1 -1.1104 3.93147 13.8331 23.8579
512 1 -1.1104 4.02817 19.7579 23.1078
570 1 -1.1104 6.32081 19.5402 26.2344
573 1 -1.1104 12.2305 13.9018 23.4777
8343 2 2.2208 10.9504 -4.27666 22.21
9073 2 2.2208 13.494 18.2421 24.8422
9071 2 2.2208 13.6052 21.0691 22.1939
323 2 2.2208 10.8817 15.5206 13.6941
9143 2 2.2208 13.5969 12.6391 19.3141
9212 2 2.2208 13.6615 15.25 16.4498
9149 2 2.2208 -0.438429 12.6048 16.4386
601 2 2.2208 13.7014 -1.53316 22.0064
321 2 2.2208 13.5558 21.0583 27.5847
9254 2 2.2208 -0.311106 18.2216 16.4294
317 2 2.2208 8.01618 6.92804 13.788
324 2 2.2208 10.9804 20.9526 13.677
318 2 2.2208 5.26179 15.3738 13.6905
333 2 2.2208 7.93091 21.0974 27.6351
313 2 2.2208 5.39143 9.63481 13.8315
8297 2 2.2208 10.8878 -4.29084 27.6587
301 2 2.2208 -0.200558 -1.56794 13.7402
311 2 2.2208 11.0078 4.11612 13.7971
304 2 2.2208 2.52152 15.1516 27.6012
9025 2 2.2208 -0.255102 4.11819 13.7839
640 2 2.2208 2.37232 12.4982 13.7955
641 2 2.2208 5.19128 23.8189 5.31266
642 2 2.2208 5.18057 29.5664 5.23593
643 1 -1.1104 0.95191 25.1287 1.14453
644 1 -1.1104 1.18769 25.2579 3.8462
645 1 -1.1104 1.14699 22.3695 1.06726
646 1 -1.1104 1.04955 27.9772 1.06066
647 2 2.2208 5.29082 26.7917 2.46651
648 1 -1.1104 1.14099 22.3276 3.87252
649 1 -1.1104 0.977221 27.9611 3.85509
650 1 -1.1104 3.80913 25.0456 1.21307
651 2 2.2208 2.48815 23.7047 2.61777
652 2 2.2208 2.35223 29.3994 2.43467
653 1 -1.1104 4.00421 25.2899 3.89026
654 2 2.2208 2.44591 26.6059 5.19638
655 1 -1.1104 3.80064 22.1096 1.1159
656 1 -1.1104 3.69067 27.9741 1.14231
657 1 -1.1104 3.80617 22.3807 3.90823
658 1 -1.1104 3.74779 28.0761 3.85834
925 2 2.2208 5.33721 23.8178 -0.103722
663 1 -1.1104 6.77632 25.2198 4.02012
665 1 -1.1104 6.50807 28.0807 1.00011
951 2 2.2208 13.6222 40.7099 8.13764
786 1 -1.1104 6.56638 22.6495 6.72194
1322 1 -1.1104 12.1 47.6219 1.03122
789 1 -1.1104 3.76136 22.4763 6.61485
790 1 -1.1104 3.78743 28.1463 6.6423
783 1 -1.1104 6.58389 25.5393 6.89886
957 2 2.2208 8.22257 29.5038 13.6845
940 1 -1.1104 12.1858 44.7323 12.2113
666 1 -1.1104 6.56614 22.3692 3.98497
667 1 -1.1104 6.5809 28.103 3.88304
682 1 -1.1104 6.61387 22.3756 1.11898
662 1 -1.1104 6.58655 25.1102 1.19023
668 2 2.2208 10.8034 23.7136 5.14499
669 2 2.2208 10.8953 29.4358 5.26697
671 1 -1.1104 12.3232 25.1115 3.95657
672 1 -1.1104 12.2216 22.3187 0.982971
673 1 -1.1104 12.4344 27.8383 1.38162
674 2 2.2208 11.0366 26.639 2.51246
675 1 -1.1104 12.2213 22.4796 3.86262
676 1 -1.1104 12.1862 27.9375 4.01555
677 1 -1.1104 11.8225 25.0128 1.07085
678 2 2.2208 7.89559 23.6203 2.61213
679 2 2.2208 7.89296 29.526 2.52839
680 1 -1.1104 9.64679 25.0963 3.52581
681 2 2.2208 8.03726 26.7661 5.31329
683 1 -1.1104 9.36286 22.632 1.05723
684 1 -1.1104 9.35827 22.2345 3.72765
685 1 -1.1104 9.31315 28.0811 3.62117
820 1 -1.1104 9.47302 27.9543 6.58263
818 1 -1.1104 9.38957 25.2341 6.30845
960 2 2.2208 7.89274 37.9468 -0.360896
819 1 -1.1104 9.50523 22.3317 6.60982
1244 2 2.2208 10.6435 35.116 -0.346452
952 2 2.2208 8.18723 34.9824 13.5714
9579 2 2.2208 13.6127 46.1771 2.54663
690 2 2.2208 5.24096 35.0633 5.20642
691 1 -1.1104 0.932482 30.8717 1.14148
692 1 -1.1104 0.95392 36.5429 1.07638
694 1 -1.1104 0.963159 30.8998 3.85365
695 1 -1.1104 0.845023 36.3792 3.8841
697 1 -1.1104 0.888921 33.6537 0.971403
698 2 2.2208 5.0828 32.4074 2.42486
699 2 2.2208 5.2552 37.9243 2.52539
700 1 -1.1104 0.895154 33.7752 3.8345
702 1 -1.1104 3.72886 30.9239 1.18635
703 1 -1.1104 3.62523 36.5886 1.02831
704 2 2.2208 2.39568 35.0837 2.43253
705 1 -1.1104 3.86579 30.93 3.93824
706 1 -1.1104 3.72406 36.2498 4.03121
707 2 2.2208 2.44511 32.3016 5.22795
708 2 2.2208 2.29015 37.7961 5.23766
709 1 -1.1104 3.7267 33.7164 0.959513
710 1 -1.1104 3.69368 33.5988 3.87692
714 1 -1.1104 6.54805 30.9016 3.84613
713 1 -1.1104 6.38434 30.9265 1.10585
839 1 -1.1104 1.07224 30.8897 6.63881
693 1 -1.1104 6.43116 36.524 1.09051
701 1 -1.1104 6.54319 33.807 3.94557
696 1 -1.1104 6.52702 36.5645 3.89054
761 2 2.2208 5.31529 32.364 13.6592
715 1 -1.1104 6.47813 33.9077 0.990021
728 1 -1.1104 9.35608 30.8625 4.19889
716 2 2.2208 10.8049 35.0986 5.23819
717 1 -1.1104 12.4324 30.9223 1.11476
718 1 -1.1104 12.0751 36.3983 1.08757
719 1 -1.1104 12.1302 30.8628 3.83485
720 1 -1.1104 12.3206 36.4643 3.80119
721 1 -1.1104 12.0337 33.6505 1.09973
722 2 2.2208 10.7608 32.2272 2.33694
723 2 2.2208 10.7586 37.8805 2.4847
724 1 -1.1104 12.2205 33.5366 3.86301
725 1 -1.1104 9.08328 30.9349 1.45087
726 1 -1.1104 9.19528 36.5707 1.00125
727 2 2.2208 8.01526 35.0581 2.4399
729 1 -1.1104 9.45651 36.3621 3.745
730 2 2.2208 8.0284 32.3494 5.34033
731 2 2.2208 7.87098 37.9838 5.30759
732 1 -1.1104 9.30922 33.6395 1.00437
733 1 -1.1104 9.34697 33.7438 3.95648
841 1 -1.1104 6.63792 30.8313 6.73167
874 1 -1.1104 12.2354 33.6253 6.56228
941 1 -1.1104 12.1075 39.2318 12.1978
949 2 2.2208 10.8697 37.7651 13.5913
659 2 2.2208 5.04225 29.5562 -0.217446
686 2 2.2208 13.5953 23.878 2.44685
1272 2 2.2208 2.25203 43.5574 -0.37629
9714 2 2.2208 13.633 40.6963 2.5314
928 1 -1.1104 9.41551 44.9298 9.50484
746 1 -1.1104 0.8257 39.2327 3.86409
735 2 2.2208 5.16767 40.7991 5.3184
736 2 2.2208 5.05201 46.2846 5.22504
737 1 -1.1104 0.910282 42.1628 0.990018
739 1 -1.1104 0.886077 42.1017 3.8018
741 1 -1.1104 0.912416 39.2526 0.918535