LAMMPS (29 Oct 2020)
OMP_NUM_THREADS environment is not set. Defaulting to 1 thread. (../comm.cpp:94)
  using 1 OpenMP thread(s) per MPI task
OMP_NUM_THREADS environment is not set. Defaulting to 1 thread. (../comm.cpp:94)
  using 1 OpenMP thread(s) per MPI task
Reading data file ...
  orthogonal box = (-0.3699962 -4.4854297 -0.36570331) to (27.709996 332.56543 27.705703)
  2 by 13 by 2 MPI processor grid
  reading atoms ...
  17730 atoms
  reading velocities ...
  17730 velocities
Finding 1-2 1-3 1-4 neighbors ...
  special bond factors lj:    0.0      0.0      0.0     
  special bond factors coul:  0.0      0.0      0.0     
     0 = max # of 1-2 neighbors
     0 = max # of 1-3 neighbors
     0 = max # of 1-4 neighbors
     1 = max # of special neighbors
  special bonds CPU = 0.003 seconds
  read_data CPU = 0.089 seconds
WARNING: 13 of 1000 force values in table Xe-Xe are inconsistent with -dE/dr.
  Should only be flagged at inflection points (../pair_table.cpp:461)
WARNING: 2 of 1000 force values in table Xe-O are inconsistent with -dE/dr.
  Should only be flagged at inflection points (../pair_table.cpp:461)
WARNING: 2 of 1000 force values in table Xe-Th are inconsistent with -dE/dr.
  Should only be flagged at inflection points (../pair_table.cpp:461)
Setting atom values ...
  11760 settings made for charge
Setting atom values ...
  5880 settings made for charge
Setting atom values ...
  90 settings made for charge
PPPM initialization ...
  using 12-bit tables for long-range coulomb (../kspace.cpp:328)
  G vector (1/distance) = 0.29876592
  grid = 40 240 40
  stencil order = 5
  estimated absolute RMS force accuracy = 0.00015618752
  estimated relative force accuracy = 1.0846623e-05
  using single precision MKL FFT
  3d grid and FFT values/proc = 18225 7600
Neighbor list info ...
  update every 1 steps, delay 0 steps, check yes
  max neighbors/atom: 2000, page size: 100000
  master list distance cutoff = 13
  ghost atom cutoff = 13
  binsize = 6.5, bins = 5 52 5
  3 neighbor lists, perpetual/occasional/extra = 3 0 0
  (1) pair coul/long, perpetual
      attributes: half, newton on
      pair build: half/bin/newton
      stencil: half/bin/3d/newton
      bin: standard
  (2) pair eam/alloy, perpetual, skip from (1)
      attributes: half, newton on
      pair build: skip
      stencil: none
      bin: none
  (3) pair table, perpetual, skip from (1)
      attributes: half, newton on
      pair build: skip
      stencil: none
      bin: none
Setting up Verlet run ...
  Unit style    : metal
  Current step  : 0
  Time step     : 0.001
Per MPI rank memory allocation (min/avg/max) = 9.250 | 9.933 | 10.04 Mbytes
Step Temp E_pair E_mol TotEng Press 
       0          600   -230471.15            0   -229096.15   -2205.2995 
  100000    596.03907   -230470.77            0   -229104.85   -2422.0833 
Loop time of 692.444 on 52 procs for 100000 steps with 17730 atoms

Performance: 12.478 ns/day, 1.923 hours/ns, 144.416 timesteps/s
99.8% CPU use with 52 MPI tasks x 1 OpenMP threads

MPI task timing breakdown:
Section |  min time  |  avg time  |  max time  |%varavg| %total
---------------------------------------------------------------
Pair    | 480.59     | 499.03     | 521.7      |  49.0 | 72.07
Bond    | 0.0091013  | 0.014506   | 0.020811   |   2.1 |  0.00
Kspace  | 148.07     | 169.59     | 186.8      |  80.5 | 24.49
Neigh   | 1.8135     | 1.9932     | 2.1532     |   5.2 |  0.29
Comm    | 14.68      | 15.745     | 17.401     |  18.5 |  2.27
Output  | 7.3764e-05 | 8.0668e-05 | 0.0003332  |   0.0 |  0.00
Modify  | 3.2589     | 4.5317     | 6.7706     |  49.9 |  0.65
Other   |            | 1.536      |            |       |  0.22

Nlocal:        340.962 ave         375 max         314 min
Histogram: 3 3 5 9 17 3 8 3 0 1
Nghost:        5532.44 ave        5701 max        5344 min
Histogram: 16 4 0 0 3 6 3 0 0 20
Neighs:       107633.0 ave      119871 max       94802 min
Histogram: 2 5 2 1 7 19 9 4 2 1

Total # of neighbors = 5596922
Ave neighs/atom = 315.67524
Ave special neighs/atom = 0.0000000
Neighbor list builds = 646
Dangerous builds = 0
11760 atoms in group oxygen
PPPM initialization ...
  using 12-bit tables for long-range coulomb (../kspace.cpp:328)
  G vector (1/distance) = 0.29876592
  grid = 40 240 40
  stencil order = 5
  estimated absolute RMS force accuracy = 0.00015618752
  estimated relative force accuracy = 1.0846623e-05
  using single precision MKL FFT
  3d grid and FFT values/proc = 18225 7600
Neighbor list info ...
  update every 1 steps, delay 0 steps, check yes
  max neighbors/atom: 2000, page size: 100000
  master list distance cutoff = 13
  ghost atom cutoff = 13
  binsize = 6.5, bins = 5 52 5
  3 neighbor lists, perpetual/occasional/extra = 3 0 0
  (1) pair coul/long, perpetual
      attributes: half, newton on
      pair build: half/bin/newton
      stencil: half/bin/3d/newton
      bin: standard
  (2) pair eam/alloy, perpetual, skip from (1)
      attributes: half, newton on
      pair build: skip
      stencil: none
      bin: none
  (3) pair table, perpetual, skip from (1)
      attributes: half, newton on
      pair build: skip
      stencil: none
      bin: none
Setting up Verlet run ...
  Unit style    : metal
  Current step  : 0
  Time step     : 0.001
Per MPI rank memory allocation (min/avg/max) = 9.505 | 10.19 | 10.29 Mbytes
Step f_2 Temp v_Tdiff v_deltaT 
       0            0    596.03907            0            0 
  100000    692.36435    593.79208  0.018174119    210.99983 
  200000    1359.8187    597.03296  0.020824999    241.77631 
  300000    2027.9164    593.79776  0.020263471    235.25702 
  400000     2694.432    599.96949  0.020289068     235.5542 
  500000    3361.7288     600.0936  0.020632943    239.54655 
  600000    4031.3543    598.35834  0.021136571    245.39362 
  700000    4702.9006    608.83294  0.020310805    235.80656 
  800000    5372.6196    602.36862   0.02069318     240.2459 
  900000    6042.7789    599.18519  0.020456022    237.49252 
 1000000    6715.3589    596.67495  0.020454252    237.47196 
Loop time of 6928.57 on 52 procs for 1000000 steps with 17730 atoms

Performance: 12.470 ns/day, 1.925 hours/ns, 144.330 timesteps/s
99.8% CPU use with 52 MPI tasks x 1 OpenMP threads

MPI task timing breakdown:
Section |  min time  |  avg time  |  max time  |%varavg| %total
---------------------------------------------------------------
Pair    | 4805.6     | 5001.5     | 5228.7     | 156.1 | 72.19
Bond    | 0.095267   | 0.14088    | 0.18906    |   5.8 |  0.00
Kspace  | 1488.9     | 1703.5     | 1890.5     | 256.9 | 24.59
Neigh   | 17.41      | 19.133     | 20.612     |  17.3 |  0.28
Comm    | 145        | 156.81     | 173.22     |  60.9 |  2.26
Output  | 0.0011936  | 0.0012709  | 0.0023924  |   0.4 |  0.00
Modify  | 6.1944     | 6.5845     | 7.0791     |   8.2 |  0.10
Other   |            | 40.88      |            |       |  0.59

Nlocal:        340.962 ave         371 max         322 min
Histogram: 4 12 3 6 12 7 3 3 1 1
Nghost:        5534.42 ave        5701 max        5336 min
Histogram: 12 8 0 0 4 4 1 3 0 20
Neighs:       107639.0 ave      118238 max       94773 min
Histogram: 3 3 1 6 3 10 14 7 3 2

Total # of neighbors = 5597229
Ave neighs/atom = 315.69255
Ave special neighs/atom = 0.0000000
Neighbor list builds = 6210
Dangerous builds = 0
Total wall time: 2:07:01
