LAMMPS (29 Oct 2020)
OMP_NUM_THREADS environment is not set. Defaulting to 1 thread. (../comm.cpp:94)
  using 1 OpenMP thread(s) per MPI task
OMP_NUM_THREADS environment is not set. Defaulting to 1 thread. (../comm.cpp:94)
  using 1 OpenMP thread(s) per MPI task
Reading data file ...
  orthogonal box = (-0.27717828 -3.4472206 -0.27717828) to (27.617178 331.52722 27.617178)
  2 by 13 by 2 MPI processor grid
  reading atoms ...
  18000 atoms
  reading velocities ...
  18000 velocities
Finding 1-2 1-3 1-4 neighbors ...
  special bond factors lj:    0.0      0.0      0.0     
  special bond factors coul:  0.0      0.0      0.0     
     0 = max # of 1-2 neighbors
     0 = max # of 1-3 neighbors
     0 = max # of 1-4 neighbors
     1 = max # of special neighbors
  special bonds CPU = 0.004 seconds
  read_data CPU = 0.069 seconds
131 atoms in group sphere
8 atoms in group oxygen
3 atoms in group thorium
120 atoms in group cluster
6000 atoms in group Th
12000 atoms in group O
40 atoms in group Th_group
80 atoms in group O_group
Setting atom values ...
  40 settings made for type/subset
40 atoms in group Xe
80 atoms in group delete
WARNING: Ignoring 'compress yes' for molecular system (../delete_atoms.cpp:125)
Deleted 80 atoms, new total = 17920
131 atoms in group sphere
8 atoms in group oxygen
3 atoms in group thorium
120 atoms in group cluster
5960 atoms in group Th
11920 atoms in group O
40 atoms in group Th_group
80 atoms in group O_group
Setting atom values ...
  40 settings made for type/subset
80 atoms in group Xe
80 atoms in group delete
WARNING: Ignoring 'compress yes' for molecular system (../delete_atoms.cpp:125)
Deleted 80 atoms, new total = 17840
131 atoms in group sphere
8 atoms in group oxygen
3 atoms in group thorium
120 atoms in group cluster
5920 atoms in group Th
11840 atoms in group O
40 atoms in group Th_group
80 atoms in group O_group
Setting atom values ...
  40 settings made for type/subset
120 atoms in group Xe
80 atoms in group delete
WARNING: Ignoring 'compress yes' for molecular system (../delete_atoms.cpp:125)
Deleted 80 atoms, new total = 17760
Setting atom values ...
  11760 settings made for charge
Setting atom values ...
  5880 settings made for charge
Setting atom values ...
  120 settings made for charge
WARNING: 13 of 1000 force values in table Xe-Xe are inconsistent with -dE/dr.
  Should only be flagged at inflection points (../pair_table.cpp:461)
WARNING: 2 of 1000 force values in table Xe-O are inconsistent with -dE/dr.
  Should only be flagged at inflection points (../pair_table.cpp:461)
WARNING: 2 of 1000 force values in table Xe-Th are inconsistent with -dE/dr.
  Should only be flagged at inflection points (../pair_table.cpp:461)
PPPM initialization ...
  using 12-bit tables for long-range coulomb (../kspace.cpp:328)
  G vector (1/distance) = 0.29911239
  grid = 40 240 40
  stencil order = 5
  estimated absolute RMS force accuracy = 0.00015328544
  estimated relative force accuracy = 1.0645085e-05
  using single precision MKL FFT
  3d grid and FFT values/proc = 18225 7600
Neighbor list info ...
  update every 1 steps, delay 0 steps, check yes
  max neighbors/atom: 2000, page size: 100000
  master list distance cutoff = 13
  ghost atom cutoff = 13
  binsize = 6.5, bins = 5 52 5
  3 neighbor lists, perpetual/occasional/extra = 3 0 0
  (1) pair coul/long, perpetual
      attributes: half, newton on
      pair build: half/bin/newton
      stencil: half/bin/3d/newton
      bin: standard
  (2) pair eam/alloy, perpetual, skip from (1)
      attributes: half, newton on
      pair build: skip
      stencil: none
      bin: none
  (3) pair table, perpetual, skip from (1)
      attributes: half, newton on
      pair build: skip
      stencil: none
      bin: none
Setting up cg style minimization ...
  Unit style    : metal
  Current step  : 0
WARNING: Energy due to 3 extra global DOFs will be included in minimizer energies
Per MPI rank memory allocation (min/avg/max) = 10.35 | 10.99 | 11.16 Mbytes
Step Temp E_pair E_mol TotEng Press Volume 
       0            0   -231354.64            0   -231354.64    3560.6402    260641.98 
      15            0   -231499.13            0   -231499.13   -213.38641    261129.88 
Loop time of 0.840033 on 52 procs for 15 steps with 17760 atoms

98.6% CPU use with 52 MPI tasks x 1 OpenMP threads

Minimization stats:
  Stopping criterion = linesearch alpha is zero
  Energy initial, next-to-last, final = 
     -231354.643708301  -231499.127950115  -231499.127950115
  Force two-norm initial, final = 1048.0942 118.31514
  Force max component initial, final = 697.28728 62.015420
  Final line search alpha, max atom move = 4.8056310e-13 2.9802322e-11
  Iterations, force evaluations = 15 69

MPI task timing breakdown:
Section |  min time  |  avg time  |  max time  |%varavg| %total
---------------------------------------------------------------
Pair    | 0.45286    | 0.48208    | 0.53435    |   2.3 | 57.39
Bond    | 6.8163e-06 | 1.1088e-05 | 2.4654e-05 |   0.0 |  0.00
Kspace  | 0.1407     | 0.19267    | 0.22203    |   3.7 | 22.94
Neigh   | 0          | 0          | 0          |   0.0 |  0.00
Comm    | 0.014573   | 0.015369   | 0.016294   |   0.3 |  1.83
Output  | 0          | 0          | 0          |   0.0 |  0.00
Modify  | 0          | 0          | 0          |   0.0 |  0.00
Other   |            | 0.1499     |            |       | 17.84

Nlocal:        341.538 ave         404 max         297 min
Histogram: 9 5 5 6 7 6 7 4 1 2
Nghost:        5580.27 ave        5833 max        5357 min
Histogram: 11 5 1 4 4 3 8 12 2 2
Neighs:       108861.0 ave      130396 max       89512 min
Histogram: 3 5 6 6 8 7 7 4 4 2

Total # of neighbors = 5660796
Ave neighs/atom = 318.73851
Ave special neighs/atom = 0.0000000
Neighbor list builds = 0
Dangerous builds = 0
Resetting atom IDs ...
PPPM initialization ...
  using 12-bit tables for long-range coulomb (../kspace.cpp:328)
  G vector (1/distance) = 0.29908544
  grid = 40 240 40
  stencil order = 5
  estimated absolute RMS force accuracy = 0.0001534649
  estimated relative force accuracy = 1.0657547e-05
  using single precision MKL FFT
  3d grid and FFT values/proc = 18225 7600
Neighbor list info ...
  update every 1 steps, delay 0 steps, check yes
  max neighbors/atom: 2000, page size: 100000
  master list distance cutoff = 13
  ghost atom cutoff = 13
  binsize = 6.5, bins = 5 52 5
  3 neighbor lists, perpetual/occasional/extra = 3 0 0
  (1) pair coul/long, perpetual
      attributes: half, newton on
      pair build: half/bin/newton
      stencil: half/bin/3d/newton
      bin: standard
  (2) pair eam/alloy, perpetual, skip from (1)
      attributes: half, newton on
      pair build: skip
      stencil: none
      bin: none
  (3) pair table, perpetual, skip from (1)
      attributes: half, newton on
      pair build: skip
      stencil: none
      bin: none
Finding 1-2 1-3 1-4 neighbors ...
  special bond factors lj:    0.0      0.0      0.0     
  special bond factors coul:  0.0      0.0      0.0     
     0 = max # of 1-2 neighbors
     0 = max # of 1-3 neighbors
     0 = max # of 1-4 neighbors
     1 = max # of special neighbors
  special bonds CPU = 0.001 seconds
WARNING: Shell command 'mkdir' failed with error 'File exists' (../input.cpp:1197)
PPPM initialization ...
  using 12-bit tables for long-range coulomb (../kspace.cpp:328)
  G vector (1/distance) = 0.29908544
  grid = 40 240 40
  stencil order = 5
  estimated absolute RMS force accuracy = 0.0001534649
  estimated relative force accuracy = 1.0657547e-05
  using single precision MKL FFT
  3d grid and FFT values/proc = 18225 7600
Neighbor list info ...
  update every 1 steps, delay 0 steps, check yes
  max neighbors/atom: 2000, page size: 100000
  master list distance cutoff = 13
  ghost atom cutoff = 13
  binsize = 6.5, bins = 5 52 5
  3 neighbor lists, perpetual/occasional/extra = 3 0 0
  (1) pair coul/long, perpetual
      attributes: half, newton on
      pair build: half/bin/newton
      stencil: half/bin/3d/newton
      bin: standard
  (2) pair eam/alloy, perpetual, skip from (1)
      attributes: half, newton on
      pair build: skip
      stencil: none
      bin: none
  (3) pair table, perpetual, skip from (1)
      attributes: half, newton on
      pair build: skip
      stencil: none
      bin: none
Setting up Verlet run ...
  Unit style    : metal
  Current step  : 0
  Time step     : 0.001
Per MPI rank memory allocation (min/avg/max) = 10.49 | 11.18 | 11.31 Mbytes
Step Dt Time Atoms Temp PotEng KinEng Press Volume 
       0        0.001            0    17760          600   -231499.13    1377.3185    5420.2942    261129.88 
   20000        0.001           20    17760    598.58931   -230419.37    1374.0803   -1098.7174    266037.94 
   40000        0.001           40    17760    599.03012   -230400.44    1375.0921   -902.85376    266080.78 
   60000        0.001           60    17760    596.55094   -230415.92    1369.4011    1386.9899    265656.98 
   80000        0.001           80    17760    598.44023   -230413.54     1373.738   -826.41032    265952.92 
  100000        0.001          100    17760    598.31268   -230409.36    1373.4453   -588.57507    265990.96 
Loop time of 879.918 on 52 procs for 100000 steps with 17760 atoms

Performance: 9.819 ns/day, 2.444 hours/ns, 113.647 timesteps/s
99.8% CPU use with 52 MPI tasks x 1 OpenMP threads

MPI task timing breakdown:
Section |  min time  |  avg time  |  max time  |%varavg| %total
---------------------------------------------------------------
Pair    | 530.53     | 546.12     | 567.38     |  38.6 | 62.06
Bond    | 0.011193   | 0.018072   | 0.03524    |   3.8 |  0.00
Kspace  | 178.54     | 200.1      | 216.64     |  64.4 | 22.74
Neigh   | 2.2525     | 2.4826     | 2.6451     |   5.8 |  0.28
Comm    | 22.905     | 24.095     | 25.356     |  15.1 |  2.74
Output  | 0.039939   | 0.039959   | 0.040808   |   0.1 |  0.00
Modify  | 92.982     | 98.249     | 102.98     |  24.7 | 11.17
Other   |            | 8.817      |            |       |  1.00

Nlocal:        341.538 ave         365 max         322 min
Histogram: 4 6 3 12 5 9 5 3 3 2
Nghost:        5535.19 ave        5721 max        5289 min
Histogram: 4 7 9 0 0 5 7 0 0 20
Neighs:       107808.0 ave      117712 max       94775 min
Histogram: 3 3 2 2 3 11 14 9 3 2

Total # of neighbors = 5606025
Ave neighs/atom = 315.65456
Ave special neighs/atom = 0.0000000
Neighbor list builds = 773
Dangerous builds = 0
WARNING: Shell command 'mkdir' failed with error 'File exists' (../input.cpp:1197)
System init for write_data ...
PPPM initialization ...
  using 12-bit tables for long-range coulomb (../kspace.cpp:328)
  G vector (1/distance) = 0.29874844
  grid = 40 240 40
  stencil order = 5
  estimated absolute RMS force accuracy = 0.00015615711
  estimated relative force accuracy = 1.0844511e-05
  using single precision MKL FFT
  3d grid and FFT values/proc = 18225 7600
Neighbor list info ...
  update every 1 steps, delay 0 steps, check yes
  max neighbors/atom: 2000, page size: 100000
  master list distance cutoff = 13
  ghost atom cutoff = 13
  binsize = 6.5, bins = 5 52 5
  3 neighbor lists, perpetual/occasional/extra = 3 0 0
  (1) pair coul/long, perpetual
      attributes: half, newton on
      pair build: half/bin/newton
      stencil: half/bin/3d/newton
      bin: standard
  (2) pair eam/alloy, perpetual, skip from (1)
      attributes: half, newton on
      pair build: skip
      stencil: none
      bin: none
  (3) pair table, perpetual, skip from (1)
      attributes: half, newton on
      pair build: skip
      stencil: none
      bin: none
Total wall time: 0:14:41
