ITEM: TIMESTEP
50000
ITEM: NUMBER OF ATOMS
17640
ITEM: BOX BOUNDS pp pp pp
-4.5104147572239206e-01 2.7791041475722615e+01
-5.1827708657392186e+00 3.3326277086574152e+02
-4.4166951488309514e-01 2.7781669514883511e+01
ITEM: ATOMS id type q x y z
1 2 2.2208 4.92048 0.363604 5.14823
2 1 -1.1104 0.656122 -3.74723 1.14896
6 1 -1.1104 0.454105 -3.87252 3.86862
10 1 -1.1104 0.96668 -0.9 0.939554
12 2 2.2208 4.8883 -2.47191 2.29586
14 1 -1.1104 0.501152 -1.03215 3.59123
16 1 -1.1104 3.37353 -3.68813 0.917025
18 2 2.2208 2.21928 0.36308 2.47641
19 1 -1.1104 3.44909 -3.94397 3.78064
21 2 2.2208 2.16807 -2.60585 5.11367
23 1 -1.1104 3.74865 -0.735959 1.1164
24 1 -1.1104 3.49012 -1.06164 3.70256
15 1 -1.1104 6.23339 -0.944528 3.8021
172 1 -1.1104 3.6692 -3.76885 6.57455
170 1 -1.1104 0.927225 -0.96068 6.33035
4 1 -1.1104 6.31741 -3.67186 0.949369
8 1 -1.1104 6.25891 -3.82051 3.92317
11 1 -1.1104 6.37463 -1.1425 1.01433
391 2 2.2208 10.5961 -2.57135 13.7822
174 1 -1.1104 3.57609 -1.0989 6.57524
313 2 2.2208 -0.425485 14.4799 8.09485
137 2 2.2208 -0.376829 17.3649 5.21443
31 2 2.2208 10.7409 0.628465 5.10572
32 1 -1.1104 12.3272 -3.79986 0.933377
34 1 -1.1104 11.9691 -3.69525 3.83782
36 1 -1.1104 12.0975 -1.13498 0.860835
37 2 2.2208 10.7118 -2.36644 2.37369
39 1 -1.1104 12.1146 -0.76728 3.68923
40 1 -1.1104 9.31434 -3.92745 0.973406
42 2 2.2208 7.89244 0.402601 2.40526
43 1 -1.1104 9.10258 -3.97526 3.70159
45 2 2.2208 7.73427 -2.40322 4.9949
47 1 -1.1104 9.26055 -1.05431 0.855881
48 1 -1.1104 9.46857 -1.20265 3.66149
208 1 -1.1104 9.34706 -3.88134 6.53793
231 2 2.2208 13.6143 3.07857 5.0367
8457 2 2.2208 13.3971 -5.13091 7.85127
207 1 -1.1104 12.3039 -0.9035 6.55887
3 1 -1.1104 0.827839 1.91878 0.876672
7 1 -1.1104 0.776631 1.7352 3.86049
13 2 2.2208 5.10332 3.24996 2.43677
17 1 -1.1104 3.6711 1.86209 1.03254
20 1 -1.1104 3.71714 1.78847 3.833
22 2 2.2208 2.35413 2.96286 5.02387
54 2 2.2208 5.13141 5.94344 5.21842
56 1 -1.1104 0.946937 7.51094 1.06192
60 1 -1.1104 0.472522 4.75114 0.866419
67 1 -1.1104 0.843833 4.52179 3.86709
72 2 2.2208 2.19248 6.12025 2.54089
74 1 -1.1104 3.62094 7.46253 3.7906
76 1 -1.1104 3.41328 4.62947 1.02598
79 1 -1.1104 3.9029 4.54697 3.73934
71 1 -1.1104 3.79968 7.25301 1.00499
58 1 -1.1104 1.08782 7.5842 3.78065
236 1 -1.1104 0.876901 4.60857 6.5048
59 1 -1.1104 6.51713 7.49334 3.87627
63 1 -1.1104 6.32816 4.57034 0.847315
69 1 -1.1104 6.51067 4.68868 3.65691
239 1 -1.1104 3.5325 4.48346 6.48811
9 1 -1.1104 6.65955 1.81392 3.72215
57 1 -1.1104 6.49807 7.41642 0.982991
27 2 2.2208 13.6108 17.2173 7.91394
173 1 -1.1104 3.92995 1.73633 6.7378
234 1 -1.1104 1.01594 7.41665 6.77283
167 1 -1.1104 0.943079 1.78309 6.50207
5 1 -1.1104 6.47151 1.72733 1.06059
33 1 -1.1104 12.1104 1.6815 0.622061
35 1 -1.1104 12.0392 1.97078 3.54863
38 2 2.2208 10.5542 3.22439 2.19348
41 1 -1.1104 9.19669 1.8811 1.00211
44 1 -1.1104 9.31956 2.02179 3.62278
46 2 2.2208 7.96817 3.33166 5.22069
84 2 2.2208 10.7607 6.05124 5.06812
86 1 -1.1104 12.19 7.59275 0.944224
87 1 -1.1104 11.987 7.48791 3.61922
88 1 -1.1104 12.0389 4.75364 0.901858
92 1 -1.1104 12.351 4.64896 3.66376
95 2 2.2208 7.8617 6.23732 2.43925
97 1 -1.1104 9.22953 7.44466 3.79309
99 1 -1.1104 8.8991 4.64648 1.07553
102 1 -1.1104 9.3015 4.77759 3.73252
94 1 -1.1104 9.21716 7.52011 0.923234
266 1 -1.1104 12.0824 4.63466 6.43804
206 1 -1.1104 12.284 1.9332 6.61987
169 1 -1.1104 6.72781 1.94257 6.7268
269 1 -1.1104 9.45399 4.81272 6.54827
265 1 -1.1104 12.037 7.31413 6.59027
576 2 2.2208 7.76833 3.17518 -0.383717
209 1 -1.1104 9.55738 1.9254 6.68087
267 1 -1.1104 9.16765 7.67694 6.57237
55 2 2.2208 5.02788 11.5808 5.35463
61 1 -1.1104 0.846038 10.0525 0.928469
66 2 2.2208 5.17905 8.70124 2.47316
68 1 -1.1104 0.893329 10.4455 3.82242
73 2 2.2208 2.3701 11.5245 2.42215
75 2 2.2208 2.30308 8.79034 5.33639
77 1 -1.1104 3.76406 10.3137 1.11883
80 1 -1.1104 3.7285 10.2151 3.91489
107 1 -1.1104 0.604047 12.8269 1.15884
113 1 -1.1104 0.821178 13.3253 3.84929
123 1 -1.1104 3.53981 13.1333 0.900051
128 1 -1.1104 3.80602 13.0216 3.73261
62 1 -1.1104 0.989692 10.2534 6.65062
110 1 -1.1104 6.49468 13.0935 1.04046
124 1 -1.1104 3.7737 12.9982 6.70171
8450 2 2.2208 7.87867 -5.21961 2.33796
8835 2 2.2208 4.9731 -5.04225 -0.346032
70 1 -1.1104 6.30496 10.2135 3.92418
64 1 -1.1104 6.53146 10.2463 1.16877
65 1 -1.1104 6.74053 10.2949 6.51536
115 1 -1.1104 6.51898 13.0367 3.81642
85 2 2.2208 10.6832 11.8886 5.17001
89 1 -1.1104 12.1114 10.1256 1.11232
91 2 2.2208 10.7649 8.90073 2.26008
93 1 -1.1104 12.1174 10.283 3.89693
96 2 2.2208 7.79714 11.7111 2.37719
98 2 2.2208 8.03424 8.95321 5.15654
100 1 -1.1104 9.36356 10.2191 0.817292
103 1 -1.1104 9.0472 10.244 3.48882
142 1 -1.1104 12.2315 12.8657 0.991379
146 1 -1.1104 11.9678 13.0425 3.87693
153 1 -1.1104 9.21393 13.0222 1.24397
158 1 -1.1104 9.16851 13.0031 4.10526
101 1 -1.1104 9.55325 10.3185 6.28659
90 1 -1.1104 12.5186 10.2483 6.88594
154 1 -1.1104 9.50153 13.0659 6.73512
119 2 2.2208 5.20855 14.5724 2.27685
106 2 2.2208 5.29168 17.1414 5.11351
109 1 -1.1104 0.965148 18.8975 0.745495
114 1 -1.1104 0.896984 18.8926 3.84464
116 1 -1.1104 0.819353 15.8172 1.04033
120 2 2.2208 5.22227 20.0878 2.35476
121 1 -1.1104 1.16248 15.8079 3.97897
125 1 -1.1104 3.64351 18.6718 0.895278
127 2 2.2208 2.35829 17.3098 2.34091
129 1 -1.1104 3.7443 18.7585 3.58291
130 2 2.2208 2.4079 14.3658 5.27695
131 2 2.2208 2.19657 20.3538 5.4191
132 1 -1.1104 3.73053 15.9694 0.996133
134 1 -1.1104 3.77442 15.8168 3.78424
126 1 -1.1104 3.75406 18.5905 6.63418
133 1 -1.1104 3.88034 15.6858 6.55076
117 1 -1.1104 1.01363 16.0796 6.70422
29 2 2.2208 13.6857 8.91968 10.8863
9152 2 2.2208 13.336 -2.22166 5.23384
122 1 -1.1104 6.75403 15.9949 3.79975
8448 2 2.2208 2.19976 -5.20474 2.33864
139 1 -1.1104 6.49243 18.7758 3.95647
140 1 -1.1104 6.36553 16.1089 1.25618
138 1 -1.1104 6.67335 18.8831 1.11979
150 2 2.2208 10.6927 14.4579 2.42451
141 2 2.2208 10.7455 17.1434 5.31186
144 1 -1.1104 12.0808 18.2116 1.16465
147 1 -1.1104 12.206 18.8442 3.85721
148 1 -1.1104 11.9556 15.6306 0.936537
151 2 2.2208 10.8803 19.9392 2.32692
152 1 -1.1104 12.4187 15.9629 3.63337
155 1 -1.1104 9.41258 18.7836 0.924627
157 2 2.2208 7.9567 17.4282 2.53409
159 1 -1.1104 9.36834 18.6446 3.68218
160 2 2.2208 7.75743 14.5149 5.25859
161 2 2.2208 7.98042 20.2792 5.32293
162 1 -1.1104 9.32355 15.7512 0.958532
164 1 -1.1104 9.54654 15.8265 3.92738
145 1 -1.1104 12.1571 18.6136 6.57335
149 1 -1.1104 12.0617 15.7726 6.64002
156 1 -1.1104 9.45415 18.8307 6.68823
230 2 2.2208 13.4223 -2.33996 10.8446
168 1 -1.1104 6.37012 -3.78201 6.55888
9148 2 2.2208 -0.497366 0.386822 5.30676
609 2 2.2208 5.11473 5.98917 -0.349638
166 1 -1.1104 0.774015 -3.68357 6.70124
175 2 2.2208 5.33973 0.545465 10.9968
176 1 -1.1104 0.790237 -3.74829 12.3302
180 1 -1.1104 0.825231 -3.72829 9.46967
184 1 -1.1104 0.918001 -1.06292 12.2962
186 2 2.2208 4.99356 -2.3668 8.09849
188 1 -1.1104 0.682955 -0.777214 9.26855
190 1 -1.1104 3.60719 -3.92786 12.255
192 2 2.2208 2.3444 0.425171 8.15663
193 1 -1.1104 3.5799 -3.65203 9.41894
195 2 2.2208 2.28129 -2.31924 10.9047
197 1 -1.1104 3.67744 -0.931517 12.016
198 1 -1.1104 3.47053 -1.06495 9.46307
171 1 -1.1104 6.60602 -1.08835 6.64065
189 1 -1.1104 6.38763 -0.74693 9.38703
178 1 -1.1104 6.54233 -3.80666 12.1705
182 1 -1.1104 6.47829 -3.80324 9.20202
185 1 -1.1104 6.63356 -1.01353 12.0899
8455 2 2.2208 7.7708 -5.14357 7.74044
205 1 -1.1104 12.0458 -3.65267 6.51761
9052 2 2.2208 13.5059 6.2476 2.3424
428 2 2.2208 2.46574 11.6523 13.6687
358 2 2.2208 2.2406 0.513074 13.5522
210 1 -1.1104 9.47114 -0.949469 6.45372
211 2 2.2208 10.9565 0.27542 10.8151
212 1 -1.1104 12.2019 -3.78659 12.3134
214 1 -1.1104 11.8926 -3.71663 9.43965
216 1 -1.1104 12.2199 -1.05648 12.2905
217 2 2.2208 10.4227 -2.49169 7.81295
219 1 -1.1104 12.2027 -0.962739 9.22394
220 1 -1.1104 9.25378 -3.84082 12.2548
222 2 2.2208 8.06435 0.463124 8.06587
223 1 -1.1104 9.23545 -3.76509 9.3788
225 2 2.2208 7.97491 -2.50103 10.8533
227 1 -1.1104 9.46349 -1.19055 12.2527
228 1 -1.1104 9.28135 -1.01614 9.24553
104 2 2.2208 13.5621 11.5157 2.37724
237 1 -1.1104 6.39192 4.55892 6.70018
238 1 -1.1104 3.66958 7.38179 6.601
177 1 -1.1104 1.03219 1.84246 12.093
181 1 -1.1104 0.820944 2.02184 9.43023
187 2 2.2208 5.08228 3.06533 8.15359
191 1 -1.1104 3.68374 1.93557 12.2469
194 1 -1.1104 3.54584 1.78012 9.48346
196 2 2.2208 2.24728 3.21249 10.9329
240 2 2.2208 5.28974 5.82135 11.0528
244 1 -1.1104 1.16072 7.29905 9.68499
246 1 -1.1104 0.875882 4.52089 12.5072
251 1 -1.1104 0.815386 4.7091 9.56763
256 2 2.2208 2.40261 5.93594 7.91985
260 1 -1.1104 3.63831 4.62387 12.1658
262 1 -1.1104 3.73497 4.46938 9.46719
258 1 -1.1104 3.84144 7.30833 9.35688
245 1 -1.1104 6.70901 7.4639 9.37008
255 1 -1.1104 3.75211 7.42363 12.3575
183 1 -1.1104 6.604 1.8339 9.47301
253 1 -1.1104 6.43782 4.52252 9.53147
242 1 -1.1104 1.06409 7.08926 12.3042
548 2 2.2208 10.6798 17.0468 -0.270978
359 2 2.2208 5.18648 3.47536 13.5657
8858 2 2.2208 -0.306754 17.2433 10.9598
248 1 -1.1104 6.7449 4.50245 12.2541
235 1 -1.1104 6.57872 7.41663 6.62184
243 1 -1.1104 6.51474 7.22355 12.4424
179 1 -1.1104 6.53481 1.86132 12.3012
213 1 -1.1104 12.3431 1.56239 12.2201
215 1 -1.1104 12.2192 1.87794 9.40696
218 2 2.2208 10.8442 3.32297 7.96151
221 1 -1.1104 9.46857 1.57894 12.3985
224 1 -1.1104 9.47456 1.81678 9.48596
226 2 2.2208 8.19831 3.02539 10.9679
268 1 -1.1104 9.48378 4.53223 9.41757
271 1 -1.1104 9.37145 4.65581 12.1927
273 1 -1.1104 9.3843 7.39634 9.31204
275 2 2.2208 7.97845 5.99574 7.93836
276 2 2.2208 10.7248 6.05764 10.7175
278 1 -1.1104 12.2603 7.51352 12.3124
280 1 -1.1104 12.4753 4.51073 12.2883
283 1 -1.1104 12.2957 4.80281 9.40496
279 1 -1.1104 12.359 7.58808 9.49779
285 1 -1.1104 9.26465 7.3513 12.0577
8452 2 2.2208 2.25754 -5.12611 8.1632
26 2 2.2208 13.7124 14.4542 10.8448
108 1 -1.1104 1.11045 13.1155 6.62236
78 1 -1.1104 3.76514 10.0357 6.65768
199 1 -1.1104 12.1208 15.8658 9.42966
241 2 2.2208 5.38847 11.7048 10.8854
247 1 -1.1104 1.20184 10.1298 12.5346
250 2 2.2208 5.05865 8.76976 8.07489
252 1 -1.1104 1.01494 9.92116 9.64485
257 2 2.2208 2.46727 11.3997 8.1701
259 2 2.2208 2.45485 8.63022 10.9307
261 1 -1.1104 4.19111 10.1687 12.3032
263 1 -1.1104 3.70081 10.1621 9.59775
287 1 -1.1104 3.58108 12.9755 12.1449
294 1 -1.1104 1.0848 12.9746 9.49793
299 1 -1.1104 0.947146 12.8426 12.4193
305 1 -1.1104 3.78259 13.062 9.47887
9018 2 2.2208 -0.277221 20.3028 2.21538
143 1 -1.1104 12.2454 12.847 6.52445
290 1 -1.1104 6.52555 13.0218 9.46767
249 1 -1.1104 6.95204 10.0769 12.4064
111 1 -1.1104 6.62312 13.2135 6.55345
297 1 -1.1104 6.68131 13.1534 12.2851
254 1 -1.1104 6.49782 10.4751 9.27155
312 1 -1.1104 9.28744 12.8949 9.80774
264 1 -1.1104 9.22381 10.2179 9.29426
270 1 -1.1104 9.59649 10.1758 12.3444
272 2 2.2208 8.18759 8.88267 10.8416
274 2 2.2208 8.10896 11.7576 7.97709
277 2 2.2208 10.7204 11.6324 10.9406
281 1 -1.1104 12.3485 10.3299 12.3008
282 2 2.2208 10.6011 8.78772 7.88967
284 1 -1.1104 12.0111 10.2582 9.4658
200 1 -1.1104 9.5755 13.1176 12.511
49 1 -1.1104 12.1717 13.1992 12.0736
53 1 -1.1104 12.1751 13.0673 9.39239
392 2 2.2208 10.985 3.00936 13.5545
9150 2 2.2208 -0.338212 6.01284 5.11259
163 1 -1.1104 9.29081 15.9257 6.4661
302 1 -1.1104 0.867362 18.8858 6.80893
118 1 -1.1104 6.50563 15.7969 6.67947
9151 2 2.2208 13.6279 0.441441 2.14592
52 2 2.2208 13.5204 6.09503 8.00991
112 1 -1.1104 6.57218 18.609 6.63147
289 1 -1.1104 6.68098 16.153 9.61616
296 1 -1.1104 6.79298 18.7904 12.2364
310 2 2.2208 2.50268 14.5288 10.8616
288 1 -1.1104 6.59232 18.8988 9.42408
295 2 2.2208 5.339 14.4572 8.07855
308 1 -1.1104 3.89385 16.0128 12.1776
309 2 2.2208 2.36115 20.0649 10.9542
307 1 -1.1104 1.26577 15.8132 12.4793
304 1 -1.1104 4.15604 15.9368 9.32579
286 1 -1.1104 3.86163 18.7501 12.393
291 1 -1.1104 1.09949 18.3712 9.47276
292 1 -1.1104 1.10152 15.7845 9.46492
293 2 2.2208 5.22637 20.1796 7.94799
298 1 -1.1104 1.10983 18.8595 12.4307
300 2 2.2208 5.18586 17.4398 10.9085
301 1 -1.1104 3.64562 18.8917 9.42889
303 2 2.2208 2.38946 17.2764 7.92849
28 2 2.2208 -0.313408 11.5759 10.8242
233 2 2.2208 7.93334 14.5581 10.9623
311 2 2.2208 7.93766 17.373 8.02516
316 2 2.2208 7.89325 20.1656 10.869
550 2 2.2208 13.7247 11.8284 13.647
30 2 2.2208 10.8761 17.4062 10.6769
232 1 -1.1104 9.41765 18.6138 9.50437
50 1 -1.1104 12.3796 18.6631 12.2637
306 1 -1.1104 6.54813 15.8805 12.3076
82 1 -1.1104 12.3696 15.9451 12.2344
315 1 -1.1104 9.57644 16.0039 12.234
314 1 -1.1104 9.16899 15.6878 9.26725
136 2 2.2208 10.6355 20.0192 8.06295
201 1 -1.1104 9.44044 18.667 12.0837
105 2 2.2208 10.8175 14.4311 7.9924
81 1 -1.1104 12.1889 18.7335 9.26508
552 2 2.2208 7.96506 20.1912 -0.365535
664 2 2.2208 5.28997 17.4917 -0.293186
202 2 2.2208 13.4237 14.3053 5.1122
9119 2 2.2208 13.5162 19.9779 10.859
9087 2 2.2208 -0.359525 6.13327 10.8868
204 2 2.2208 13.4469 8.88927 5.25131
203 2 2.2208 13.4871 20.1478 5.38588
687 2 2.2208 13.5684 0.282029 13.6074
517 2 2.2208 11.0596 14.6475 13.5305
610 2 2.2208 2.45621 8.94382 -0.266141
9219 2 2.2208 -0.419305 0.516452 -0.358733
357 2 2.2208 5.00841 -2.44536 13.5446
518 2 2.2208 8.20796 17.2226 13.5604
546 2 2.2208 1.99702 3.28624 -0.256891
544 2 2.2208 5.0663 0.538412 -0.226952
636 2 2.2208 10.8292 11.5454 -0.410491
9368 2 2.2208 -0.476733 20.1732 13.6452
491 2 2.2208 5.27229 14.4313 13.6457
665 2 2.2208 2.31638 14.4369 -0.268764
611 2 2.2208 5.24525 11.6233 -0.283664
575 2 2.2208 7.86969 -2.33439 -0.31337
317 2 2.2208 5.1721 0.401208 16.3764
318 1 -1.1104 0.819982 -3.63197 17.9569
322 1 -1.1104 1.15941 -3.82123 15.1177
330 1 -1.1104 0.983246 -0.860039 17.9523
332 2 2.2208 5.04074 -2.47187 19.2118
334 1 -1.1104 0.75299 -0.950337 15.0867
338 1 -1.1104 3.71608 -3.86994 17.7622
340 2 2.2208 2.17639 0.421658 19.4043
341 1 -1.1104 3.7521 -3.81651 14.937
345 2 2.2208 2.1375 -2.28194 16.4596
347 1 -1.1104 3.79855 -1.26604 17.8701
348 1 -1.1104 3.4634 -0.814804 15.0714
331 1 -1.1104 6.69133 -0.864308 17.7668
349 1 -1.1104 3.61986 -0.905771 20.6981
327 1 -1.1104 6.62154 -3.67139 20.4139
387 2 2.2208 -0.392128 5.99366 16.6702
547 2 2.2208 7.74321 14.474 27.7497
335 1 -1.1104 0.634769 -0.762949 20.5994
342 1 -1.1104 3.68405 -3.73553 20.7253
516 2 2.2208 10.7911 20.0026 13.8362
578 2 2.2208 13.5155 8.8345 16.6163
336 1 -1.1104 6.38081 -1.18988 14.96
8828 2 2.2208 2.46041 -5.12806 19.347
320 1 -1.1104 6.30893 -3.76689 17.7509
326 1 -1.1104 6.55873 -3.94791 15.1242
360 2 2.2208 10.7141 0.316463 16.3752
361 1 -1.1104 12.2323 -4.02383 17.6899
363 1 -1.1104 11.924 -3.95138 15.0364
367 1 -1.1104 12.2202 -1.00787 17.9198
368 2 2.2208 10.9978 -2.50042 19.2432
370 1 -1.1104 12.1227 -1.2909 15.0743
372 1 -1.1104 9.22933 -4.07298 17.8236
374 2 2.2208 8.01696 0.424118 19.1775
375 1 -1.1104 9.25747 -3.8538 15.0367
379 2 2.2208 7.96078 -2.51046 16.5765
381 1 -1.1104 9.45825 -1.13799 17.8433
382 1 -1.1104 9.17941 -1.05844 15.113
376 1 -1.1104 9.55927 -3.7737 20.4779
364 1 -1.1104 12.1118 -3.91701 20.6401
337 1 -1.1104 6.38241 -0.947382 20.8586
383 1 -1.1104 9.05226 -0.739365 20.7413
371 1 -1.1104 12.1501 -1.18427 20.7165
574 2 2.2208 10.6949 0.351126 27.7988
319 1 -1.1104 1.09887 1.65834 17.7643
324 1 -1.1104 1.07036 1.75132 14.9777
333 2 2.2208 5.30307 3.16668 19.3557
339 1 -1.1104 3.81369 1.81613 17.9349
343 1 -1.1104 3.81067 1.91763 15.0844
346 2 2.2208 2.50024 3.24481 16.4743
393 2 2.2208 5.1653 6.13208 16.5059
395 1 -1.1104 0.894348 7.40059 18.0766
397 1 -1.1104 0.946166 7.66541 15.1703
401 1 -1.1104 0.990188 4.46011 18.1115
406 1 -1.1104 1.14235 4.70364 15.3451
415 2 2.2208 2.34349 6.01095 19.3921
420 1 -1.1104 3.87264 4.41529 17.9632
422 1 -1.1104 3.88641 4.65669 14.9925
417 1 -1.1104 3.54234 7.42211 15.1549
414 1 -1.1104 3.66472 7.30522 17.9195
410 1 -1.1104 6.54471 4.73329 14.8574
321 1 -1.1104 6.56455 1.91168 17.9348
386 2 2.2208 -0.301475 8.94773 13.8011
398 1 -1.1104 0.889433 7.40281 20.6433
407 1 -1.1104 0.801213 4.8308 20.797
411 1 -1.1104 6.43536 4.53512 20.9279
9386 2 2.2208 13.347 3.22309 21.9366
681 2 2.2208 10.6893 20.1561 25.2384
328 1 -1.1104 6.42024 1.79358 15.1568
399 1 -1.1104 6.66777 7.57275 15.3767
403 1 -1.1104 6.53709 4.68044 17.8755
396 1 -1.1104 6.35783 7.56132 18.0524
362 1 -1.1104 12.2058 1.93043 17.9171
365 1 -1.1104 12.1875 1.58019 15.0091
369 2 2.2208 10.6115 3.28622 19.1805
373 1 -1.1104 9.36669 1.82342 17.716
377 1 -1.1104 9.45828 1.71702 15.0244
380 2 2.2208 7.91087 3.19616 16.3211
429 2 2.2208 10.7521 6.06646 16.4301
432 1 -1.1104 12.2136 7.32819 15.2613
434 1 -1.1104 12.3785 4.86173 17.6841
437 1 -1.1104 12.2438 4.41176 15.0445
441 1 -1.1104 9.16353 7.68302 17.9128
442 2 2.2208 7.87121 6.18095 19.2037
444 1 -1.1104 9.56407 7.40923 15.0584
447 1 -1.1104 9.19477 4.8666 17.7778
449 1 -1.1104 9.28103 4.58289 15.1575
431 1 -1.1104 12.1953 7.46832 17.8789
433 1 -1.1104 12.2143 7.4623 20.7404
400 1 -1.1104 6.62181 7.54222 20.755
366 1 -1.1104 12.0096 1.73038 20.6464
450 1 -1.1104 9.1128 4.81212 20.5924
445 1 -1.1104 9.58074 7.51175 20.672
581 2 2.2208 13.4695 -2.42139 27.7588
551 2 2.2208 13.517 11.7638 19.2788
638 2 2.2208 13.5673 8.69334 27.7412
8832 2 2.2208 7.89287 -5.13653 19.3196
394 2 2.2208 5.13371 11.8384 16.4262
402 1 -1.1104 1.07529 10.4421 18.0349
405 2 2.2208 5.17384 8.86702 19.3413
408 1 -1.1104 1.00906 10.433 15.3039
416 2 2.2208 2.33601 11.7222 19.4505
419 2 2.2208 2.51209 9.01034 16.5186
421 1 -1.1104 3.84013 10.4545 17.8356
424 1 -1.1104 3.78396 10.4052 14.9985
457 1 -1.1104 1.02951 13.3093 18.0096
461 1 -1.1104 0.839662 13.4957 15.2376
477 1 -1.1104 3.72413 13.1473 17.9826
480 1 -1.1104 3.74906 13.0281 14.8965
462 1 -1.1104 0.741675 13.0928 20.8214
481 1 -1.1104 3.63844 13.0207 20.7961
409 1 -1.1104 0.714435 10.097 20.7594
466 1 -1.1104 6.5293 13.0388 20.6197
352 2 2.2208 -0.399321 14.5463 19.2787
465 1 -1.1104 6.62766 13.2561 15.1371
459 1 -1.1104 6.52564 13.206 17.8795
412 1 -1.1104 6.53614 10.3687 15.152
404 1 -1.1104 6.47694 10.3091 18.0533
430 2 2.2208 10.8268 11.7959 16.5279
435 1 -1.1104 12.2704 10.2548 18.0155
436 2 2.2208 10.7849 8.84238 19.2841
439 1 -1.1104 12.3845 10.2629 15.1399
443 2 2.2208 7.91343 11.6421 19.1697
446 2 2.2208 7.80033 9.1204 16.4595
448 1 -1.1104 9.40405 10.3823 17.7163
451 1 -1.1104 9.25812 9.85508 14.8077
493 1 -1.1104 12.1283 13.262 18.0991
495 1 -1.1104 12.1356 13.1493 15.0654
504 1 -1.1104 9.39748 13.3329 17.8954
507 1 -1.1104 9.34821 12.8771 15.2073
496 1 -1.1104 12.2808 12.9177 20.8669
508 1 -1.1104 9.35892 12.9901 20.7721
413 1 -1.1104 6.40898 10.2625 20.8896
452 1 -1.1104 9.1918 10.439 20.5828
440 1 -1.1104 12.0102 10.1562 20.7657
471 2 2.2208 5.17119 14.3993 19.4359
484 2 2.2208 2.34382 14.5419 16.5374
456 2 2.2208 5.25459 17.0974 16.5752
458 1 -1.1104 0.709553 18.8852 17.8411
463 1 -1.1104 0.93734 18.7481 15.0908
469 1 -1.1104 1.11059 15.9886 17.9317
472 2 2.2208 4.99525 19.9729 19.4516
473 1 -1.1104 0.838539 16.0954 15.3546
478 1 -1.1104 3.61666 18.772 18.0882
479 2 2.2208 2.38944 17.3027 19.3221
482 1 -1.1104 3.81018 18.569 15.1488
485 2 2.2208 2.09924 20.2076 16.5394
486 1 -1.1104 3.94319 15.9926 17.925
487 1 -1.1104 3.83596 15.7327 15.078
467 1 -1.1104 6.56977 18.745 15.0063
488 1 -1.1104 3.67138 15.7441 20.6717
460 1 -1.1104 6.49015 18.7823 18.0308
474 1 -1.1104 0.889012 15.9271 20.6912
9371 2 2.2208 -0.310647 0.493823 16.386
454 2 2.2208 10.8492 8.74589 13.6792
688 2 2.2208 13.5603 0.222139 19.3132
356 2 2.2208 13.5897 20.2589 16.5591
470 1 -1.1104 6.64647 16.1029 18.1465
475 1 -1.1104 6.77013 15.9548 14.8745
511 2 2.2208 8.10631 14.7035 16.3769
492 2 2.2208 10.9667 17.5405 16.6769
494 1 -1.1104 12.3172 19.0186 17.9474
497 1 -1.1104 12.1548 18.8509 15.2982
499 1 -1.1104 12.245 15.9566 17.8293
500 2 2.2208 10.8002 14.5558 19.3602
501 2 2.2208 10.7272 19.9633 19.5446
502 1 -1.1104 12.4904 15.9628 15.0624
505 1 -1.1104 9.65499 18.7908 17.9457
506 2 2.2208 7.9399 17.4361 19.5842
509 1 -1.1104 9.33654 18.7063 15.0992
512 2 2.2208 7.85012 20.1687 16.7263
513 1 -1.1104 9.35242 16.0725 17.9974
514 1 -1.1104 9.57314 15.6983 14.9946
498 1 -1.1104 12.0538 18.3735 20.845
515 1 -1.1104 9.39316 15.8154 20.766
510 1 -1.1104 9.42136 18.7277 20.9544
351 2 2.2208 13.5234 8.88738 22.1351
323 1 -1.1104 0.956731 -3.72008 20.4719
669 1 -1.1104 12.1452 18.7611 23.6611
520 2 2.2208 5.12811 0.617885 22.0625
521 1 -1.1104 0.952483 -3.84659 23.4771
525 1 -1.1104 0.870936 -3.70835 26.3634
529 1 -1.1104 0.882387 -1.07429 23.4094
531 2 2.2208 5.12273 -2.29192 25.0604
533 1 -1.1104 1.0345 -0.876634 26.1345
535 1 -1.1104 3.8583 -3.59344 23.7583
537 2 2.2208 2.2064 0.567839 24.8893
538 1 -1.1104 3.57414 -3.62425 26.3792
540 2 2.2208 2.43157 -2.16713 22.3161
542 1 -1.1104 3.94234 -0.814048 23.6665
543 1 -1.1104 3.78449 -1.03861 26.5597
523 1 -1.1104 6.59534 -3.81266 23.3908
527 1 -1.1104 6.39626 -3.83739 26.1799
530 1 -1.1104 6.65298 -0.95915 23.6239
9370 2 2.2208 13.5952 14.686 22.2311
682 2 2.2208 10.7293 14.3592 25.0194
545 2 2.2208 2.17213 -2.30276 27.7722
582 2 2.2208 13.5519 -2.4766 22.2189
534 1 -1.1104 6.37815 -0.829581 26.5042
385 2 2.2208 13.6338 14.5276 16.5855
556 2 2.2208 10.7626 0.31769 22.1053
557 1 -1.1104 12.2351 -4.07583 23.4668
559 1 -1.1104 11.7995 -3.94135 26.2956
561 1 -1.1104 12.3054 -1.15181 23.5881
562 2 2.2208 10.5947 -2.42053 24.8419
564 1 -1.1104 11.9166 -0.897683 26.3254
565 1 -1.1104 9.39471 -3.75697 23.3372
567 2 2.2208 7.92142 0.334019 25.0474
568 1 -1.1104 9.15877 -3.68885 26.3964
570 2 2.2208 7.93793 -2.40977 22.0085
572 1 -1.1104 9.48696 -0.755303 23.5893
573 1 -1.1104 9.14616 -1.04435 26.4248
489 2 2.2208 2.36822 17.2725 13.8048
9178 2 2.2208 13.7277 11.6758 24.9524
670 1 -1.1104 9.26613 15.7385 26.2574
418 1 -1.1104 3.65543 7.623 20.5218
423 1 -1.1104 3.63544 4.72977 20.9148
325 1 -1.1104 1.06116 1.92571 20.7695
344 1 -1.1104 3.79717 1.8993 20.7378
522 1 -1.1104 0.727921 2.11611 23.5456
526 1 -1.1104 0.902931 1.90758 26.3223
532 2 2.2208 4.93396 3.51933 25.0689
536 1 -1.1104 3.68295 2.05463 23.6056
539 1 -1.1104 3.61844 1.83116 26.5518
541 2 2.2208 2.20945 3.4937 22.246
585 2 2.2208 5.2376 6.14375 22.1497
587 1 -1.1104 0.869861 7.52171 23.7363
591 1 -1.1104 0.832273 4.80094 23.4514
596 1 -1.1104 0.834014 4.73533 26.3112
601 2 2.2208 2.31226 6.20309 25.1577
603 1 -1.1104 3.81608 7.54129 26.4911
605 1 -1.1104 3.46899 4.89306 23.6251
607 1 -1.1104 3.55777 4.85841 26.56
589 1 -1.1104 0.942905 7.61435 26.4178
600 1 -1.1104 3.68463 7.61332 23.5052
598 1 -1.1104 6.47725 4.76281 26.3701
528 1 -1.1104 6.28637 1.99892 26.3764
329 1 -1.1104 6.6333 1.62674 20.5959
678 1 -1.1104 9.29767 18.6791 23.6938
672 2 2.2208 8.00569 20.0638 22.3647
524 1 -1.1104 6.46784 1.96641 23.5389
438 1 -1.1104 11.9333 4.71711 20.7279
378 1 -1.1104 9.35094 1.97026 20.4773
588 1 -1.1104 6.76318 7.35861 23.5832
593 1 -1.1104 6.53227 4.61986 23.5618
590 1 -1.1104 6.65513 7.50348 26.4193
558 1 -1.1104 12.2454 1.80448 23.2728
560 1 -1.1104 12.0336 1.86324 26.1391
563 2 2.2208 10.6963 3.3229 24.5966
566 1 -1.1104 9.33498 1.75629 23.4579
569 1 -1.1104 9.23126 1.64343 26.2496
571 2 2.2208 7.90831 3.32909 22.0765
617 1 -1.1104 9.46193 4.66146 26.5078
619 1 -1.1104 9.10282 4.60816 23.4728
621 1 -1.1104 9.36153 7.29583 26.3898
623 2 2.2208 8.0535 5.97385 25.0712
624 2 2.2208 10.724 6.14586 22.1877
627 1 -1.1104 12.0318 7.47999 26.1578
628 1 -1.1104 12.083 4.71626 23.5714
631 1 -1.1104 12.1068 4.59296 26.3801
633 1 -1.1104 9.41878 7.54314 23.673
626 1 -1.1104 12.2209 7.24268 23.5272
583 2 2.2208 13.4828 0.703451 24.8277
388 2 2.2208 13.5435 -2.41877 16.5315
426 2 2.2208 2.25479 5.94161 13.725
425 1 -1.1104 3.65 10.1287 20.8704
657 1 -1.1104 3.55278 13.164 26.5158
586 2 2.2208 5.21745 11.7307 22.2942
592 1 -1.1104 0.805641 10.3317 23.7211
595 2 2.2208 5.11465 8.65948 24.859
597 1 -1.1104 0.760667 10.1662 26.4877
602 2 2.2208 2.1943 11.6843 25.0391
604 2 2.2208 2.19869 8.68428 21.9889
606 1 -1.1104 3.87718 10.1666 23.643
608 1 -1.1104 3.87623 10.4246 26.4918
652 1 -1.1104 0.704302 13.1459 23.4558
642 1 -1.1104 3.64194 12.9672 23.6723
646 1 -1.1104 0.828753 13.0363 26.4264
650 1 -1.1104 6.64681 12.9985 23.474
594 1 -1.1104 6.5907 9.8841 23.6307
662 2 2.2208 2.28676 14.5191 22.1966
490 2 2.2208 5.13961 20.1294 13.7095
674 1 -1.1104 9.3979 18.4784 26.4997
663 2 2.2208 2.51843 20.3481 27.6861
641 1 -1.1104 6.27534 13.0573 26.3479
599 1 -1.1104 6.97499 10.5469 26.8165
685 1 -1.1104 12.0153 12.9571 26.4456
679 1 -1.1104 9.43758 12.9326 23.5291
637 1 -1.1104 12.3696 12.9862 23.4489
675 1 -1.1104 9.0184 13.0373 26.4421
616 1 -1.1104 9.50287 10.157 26.1303
618 1 -1.1104 9.23371 10.207 23.2751
620 2 2.2208 7.92482 8.78907 22.044
622 2 2.2208 7.92123 11.5259 24.9299
625 2 2.2208 10.7092 11.634 22.2341
629 1 -1.1104 12.2809 10.2163 23.4549
630 2 2.2208 10.8869 8.73817 24.7576
632 1 -1.1104 12.4362 10.0748 26.435
671 1 -1.1104 9.41728 15.6674 23.5502
643 1 -1.1104 6.50843 15.973 26.2654
464 1 -1.1104 0.788949 18.7683 20.5935
483 1 -1.1104 3.63441 18.5538 20.8419
468 1 -1.1104 6.45865 18.7574 20.9141
8837 2 2.2208 2.38122 -5.13896 25.0816
9177 2 2.2208 -0.413696 17.3877 22.1087
647 1 -1.1104 6.53794 18.7365 23.6038
649 2 2.2208 4.97561 14.4922 25.1589
660 1 -1.1104 3.74427 15.9514 23.6167
659 1 -1.1104 0.954355 15.878 23.5432
656 1 -1.1104 3.7344 15.8866 26.5969
655 2 2.2208 2.27532 17.2694 25.0866
654 1 -1.1104 3.75566 18.8584 26.4281
653 2 2.2208 5.12691 17.2863 22.205
651 1 -1.1104 0.99901 18.7642 23.2742
661 2 2.2208 2.37777 20.0954 22.2725
640 1 -1.1104 3.7753 18.6287 23.6518
644 1 -1.1104 0.777332 18.596 26.1194
645 1 -1.1104 1.0005 16.0253 26.6898
648 2 2.2208 5.38218 20.1777 25.0156
658 1 -1.1104 6.49569 15.6555 23.6055
680 1 -1.1104 12.0647 15.7767 26.4782
676 1 -1.1104 6.46926 18.6138 26.4552
684 1 -1.1104 12.6012 18.7788 26.6126
553 2 2.2208 10.7894 17.2023 22.2208
677 2 2.2208 7.97992 17.2066 25.0468
683 1 -1.1104 12.0726 15.7966 23.5695
476 1 -1.1104 6.55618 15.9571 20.8289
503 1 -1.1104 12.2959 15.7843 20.7997
673 2 2.2208 7.93362 14.3881 22.1665
8836 2 2.2208 5.11156 -5.18714 22.2013
384 2 2.2208 13.6349 17.3742 19.3861
584 2 2.2208 13.4499 3.24391 27.7258
635 2 2.2208 8.05225 8.93121 27.6017
639 2 2.2208 13.6035 6.111 24.8726
455 2 2.2208 8.31903 11.5531 13.7565
453 2 2.2208 8.05503 5.95889 13.6888
8834 2 2.2208 13.6667 -5.0618 13.6655
390 2 2.2208 7.95971 0.305097 13.7401
427 2 2.2208 5.12879 8.72836 13.8987
634 2 2.2208 10.617 6.12021 27.7197
689 2 2.2208 5.27798 23.2423 5.40497
691 1 -1.1104 0.997762 24.4629 0.81784
692 1 -1.1104 1.11374 24.4233 3.65539
693 1 -1.1104 1.10682 21.7285 0.855454
695 2 2.2208 5.22477 25.8266 2.3121
696 1 -1.1104 0.946055 21.6136 3.78079
698 1 -1.1104 3.77694 24.4283 0.864624
699 2 2.2208 2.26339 23.0914 2.41443
701 1 -1.1104 4.029 24.4844 3.81844
702 2 2.2208 2.34257 26.0081 5.34179
703 1 -1.1104 4.05952 21.5247 0.808481
705 1 -1.1104 3.6458 21.6147 3.79944
694 1 -1.1104 1.01905 27.1023 1.04872
836 1 -1.1104 3.7299 24.2882 6.70973
837 1 -1.1104 3.73722 21.5453 6.61581
832 1 -1.1104 0.651511 21.5603 6.7477
706 1 -1.1104 3.87904 27.2585 3.85447
9809 2 2.2208 -0.383432 31.2876 2.66666
830 1 -1.1104 0.78718 24.4996 6.51965
714 1 -1.1104 6.48857 21.6348 4.01009
834 1 -1.1104 6.55031 21.4923 6.748
835 1 -1.1104 6.98131 27.313 6.86495
712 1 -1.1104 6.94734 21.8435 0.868413
710 1 -1.1104 6.52619 24.4655 0.95966
715 1 -1.1104 6.59475 27.2077 4.03271
711 1 -1.1104 6.93487 24.3595 3.76145
713 1 -1.1104 6.74421 27.1909 1.09893
716 2 2.2208 11.0436 22.8098 5.34177
718 1 -1.1104 12.364 24.3388 0.795162
719 1 -1.1104 12.5231 24.1659 3.58297
720 1 -1.1104 12.4061 21.3513 1.23023
722 2 2.2208 10.9382 25.7261 2.36609
723 1 -1.1104 12.2901 21.6147 4.15977
725 1 -1.1104 9.40808 24.2727 1.23385
726 2 2.2208 8.20096 22.7794 2.60334
728 1 -1.1104 9.94023 24.2616 3.93106
729 2 2.2208 8.22775 25.8384 5.15014
730 1 -1.1104 9.70836 21.3572 1.18401
732 1 -1.1104 9.3573 21.5284 4.21501
731 1 -1.1104 9.66729 27.0478 0.935367
724 1 -1.1104 12.3546 27.1189 3.52286
1286 2 2.2208 11.0914 34.2029 -0.293462
972 2 2.2208 -0.300468 39.7518 10.8644
865 1 -1.1104 12.4737 27.0086 6.56665
697 1 -1.1104 1.02173 27.2747 3.97141
704 1 -1.1104 3.76106 27.2137 0.916926
690 2 2.2208 5.37055 28.6603 5.34673
700 2 2.2208 2.50548 28.6016 2.44882
738 1 -1.1104 0.852318 30.2016 1.09291
741 1 -1.1104 0.998634 29.9297 3.97067
744 1 -1.1104 0.894625 32.9563 1.17988
745 2 2.2208 5.30731 31.2447 2.38295
747 1 -1.1104 1.07034 32.6956 3.85067
749 1 -1.1104 3.73262 29.7939 1.11407
752 1 -1.1104 3.94786 29.8251 4.01287
754 2 2.2208 2.67448 31.443 5.40439
756 1 -1.1104 3.81597 32.5767 1.00164
757 1 -1.1104 3.89026 32.8093 3.9077
9686 2 2.2208 -0.511168 28.5079 10.799
838 1 -1.1104 3.97155 27.3141 6.55821
890 1 -1.1104 3.69798 32.9113 6.8824
888 1 -1.1104 3.94292 29.897 6.71812
882 1 -1.1104 1.32878 30.0641 6.86843
887 1 -1.1104 6.49978 32.6657 6.67365
884 1 -1.1104 6.81423 29.9721 6.63695
1292 2 2.2208 5.34431 45.4762 -0.330054
721 1 -1.1104 12.281 27.3591 0.855221
733 1 -1.1104 9.57765 26.9486 3.6299
748 1 -1.1104 6.75397 32.6791 3.53058
763 1 -1.1104 6.71631 32.7417 0.982469
762 1 -1.1104 6.64054 29.9111 3.89698
761 1 -1.1104 6.47168 29.9284 0.944735
717 2 2.2208 10.918 28.3268 5.05267
727 2 2.2208 7.99305 28.6702 2.24974
765 1 -1.1104 12.322 30.033 1.12154
767 1 -1.1104 12.2582 29.7362 3.88103
769 1 -1.1104 12.3347 32.6892 1.08707
770 2 2.2208 10.9126 31.461 2.58373
772 1 -1.1104 12.3308 32.791 3.85973
773 1 -1.1104 9.34153 30.0687 1.00851
776 1 -1.1104 9.41456 29.7701 3.60697
778 2 2.2208 8.1061 31.3012 5.14548
780 1 -1.1104 9.46529 32.8442 0.991836
781 1 -1.1104 9.60103 32.8333 3.83145
918 1 -1.1104 12.3875 33.0241 6.77716
921 1 -1.1104 9.36305 32.7252 6.40335
919 1 -1.1104 9.56909 29.905 6.57921
9808 2 2.2208 -0.244999 34.2756 5.31456
1575 1 -1.1104 9.6043 47.0672 12.3177
737 2 2.2208 5.43183 34.3172 5.30262
739 1 -1.1104 1.1841 35.8845 0.988374
742 1 -1.1104 1.08294 35.5958 3.8707
746 2 2.2208 5.2727 36.8172 2.46838
750 1 -1.1104 3.92497 35.4354 0.946985
751 2 2.2208 2.43505 34.084 2.35958
753 1 -1.1104 3.98564 35.5621 4.04723
755 2 2.2208 2.64857 36.9939 5.33987
783 2 2.2208 5.4232 39.8253 5.26649
789 1 -1.1104 1.01582 38.5883 1.16518