ITEM: TIMESTEP
60000
ITEM: NUMBER OF ATOMS
17640
ITEM: BOX BOUNDS pp pp pp
-4.3996158270856073e-01 2.7779961582708484e+01
-5.3037642372314711e+00 3.3338376423723724e+02
-4.3831648231873094e-01 2.7778316482319163e+01
ITEM: ATOMS id type q x y z
1 2 2.2208 5.15096 0.122597 5.18971
2 1 -1.1104 1.14327 -3.98054 1.05228
6 1 -1.1104 1.06993 -3.96392 3.95326
10 1 -1.1104 0.934281 -1.20557 1.09447
12 2 2.2208 5.24517 -2.55941 2.37788
14 1 -1.1104 1.025 -0.933327 3.93955
16 1 -1.1104 3.92716 -4.087 0.996565
18 2 2.2208 2.34103 0.254188 2.43695
19 1 -1.1104 3.82686 -3.8224 3.78715
21 2 2.2208 2.32023 -2.52046 5.27398
23 1 -1.1104 3.75627 -1.2074 1.18467
24 1 -1.1104 3.87108 -1.08585 3.83307
636 2 2.2208 10.7532 11.7454 -0.305682
609 2 2.2208 5.15763 5.97103 -0.254398
8 1 -1.1104 6.72184 -3.76225 3.71432
11 1 -1.1104 6.70224 -1.26168 0.896923
8829 2 2.2208 2.39722 -5.22618 13.6665
166 1 -1.1104 0.910971 -3.94712 6.67976
229 2 2.2208 13.6898 0.382988 7.94737
547 2 2.2208 8.14923 14.4565 -0.330436
313 2 2.2208 -0.245521 14.4724 8.21288
4 1 -1.1104 6.6039 -4.13415 0.817945
168 1 -1.1104 6.66035 -4.10505 6.45953
15 1 -1.1104 6.60677 -1.08406 3.59934
31 2 2.2208 10.8308 0.583497 5.0474
32 1 -1.1104 12.3469 -3.78767 1.03278
34 1 -1.1104 12.069 -3.76026 3.68117
36 1 -1.1104 12.4194 -1.14059 0.840936
37 2 2.2208 10.821 -2.5176 2.22719
39 1 -1.1104 12.0412 -0.874118 3.60156
40 1 -1.1104 9.45722 -3.83338 0.841876
42 2 2.2208 7.97723 0.29709 2.3025
43 1 -1.1104 9.43026 -3.72488 3.69521
45 2 2.2208 8.08714 -2.34973 5.07939
47 1 -1.1104 9.55977 -0.902575 0.981331
48 1 -1.1104 9.56371 -0.92856 3.73412
205 1 -1.1104 12.0982 -3.75375 6.50905
207 1 -1.1104 12.401 -1.20057 6.67001
546 2 2.2208 2.51218 3.0362 -0.378718
171 1 -1.1104 6.36694 -1.38142 6.36305
208 1 -1.1104 9.30764 -3.80011 6.55668
8834 2 2.2208 13.6281 -5.16403 13.4751
3 1 -1.1104 0.973843 1.52247 1.11842
7 1 -1.1104 1.03082 1.72905 3.84526
13 2 2.2208 5.27368 3.05624 2.51233
17 1 -1.1104 3.64615 1.60633 1.00244
20 1 -1.1104 3.67454 1.57127 3.7376
22 2 2.2208 2.30925 3.1364 5.22549
54 2 2.2208 5.13278 5.9704 5.12135
56 1 -1.1104 0.946465 7.20249 1.15529
60 1 -1.1104 0.886888 4.33027 0.935076
67 1 -1.1104 0.739112 4.58354 3.91484
72 2 2.2208 2.5012 5.8527 2.52778
74 1 -1.1104 3.90777 7.1184 3.71124
76 1 -1.1104 3.66419 4.49112 1.10901
79 1 -1.1104 3.73311 4.33782 3.86263
71 1 -1.1104 3.82256 7.47095 0.802019
58 1 -1.1104 1.18108 7.40514 3.8958
489 2 2.2208 2.34753 17.134 13.5705
234 1 -1.1104 1.12575 7.48516 6.69638
69 1 -1.1104 6.60215 4.4467 3.80793
357 2 2.2208 5.19022 -2.43033 13.6729
490 2 2.2208 5.28833 19.9953 13.5627
236 1 -1.1104 0.957132 4.53439 6.65047
173 1 -1.1104 3.6591 1.71552 6.58121
167 1 -1.1104 0.874173 1.68959 6.70586
239 1 -1.1104 3.65187 4.47837 6.70524
169 1 -1.1104 6.72819 1.57052 6.67467
59 1 -1.1104 6.62752 7.37945 3.82439
57 1 -1.1104 6.50374 7.44872 0.928524
63 1 -1.1104 6.59815 4.4236 1.27893
5 1 -1.1104 6.52836 1.71251 0.921396
9 1 -1.1104 6.46278 1.56061 3.72907
33 1 -1.1104 12.2558 1.8868 0.743991
35 1 -1.1104 12.3992 1.98412 3.57939
38 2 2.2208 10.8329 3.1931 2.53401
41 1 -1.1104 9.69341 1.78992 0.970921
44 1 -1.1104 9.2976 1.79906 3.78752
46 2 2.2208 8.04766 3.02847 5.26493
84 2 2.2208 10.7122 5.9102 5.16742
86 1 -1.1104 12.1829 7.22176 1.06527
87 1 -1.1104 12.4039 7.32509 3.7563
88 1 -1.1104 12.168 4.52374 1.03156
92 1 -1.1104 12.2662 4.45912 3.81311
95 2 2.2208 8.03707 5.9768 2.40769
97 1 -1.1104 9.39122 7.43884 3.81418
99 1 -1.1104 9.39681 4.47452 0.91158
102 1 -1.1104 9.42774 4.70401 3.83047
94 1 -1.1104 9.51682 7.26271 1.28432
269 1 -1.1104 9.5581 4.6291 6.41395
266 1 -1.1104 12.3162 4.19779 6.72786
9151 2 2.2208 13.6053 0.315523 2.18802
237 1 -1.1104 6.84957 4.49875 6.6349
265 1 -1.1104 12.2416 7.19056 6.39159
267 1 -1.1104 9.44999 7.24047 6.52556
206 1 -1.1104 12.3566 1.55994 6.48833
209 1 -1.1104 9.39051 1.75601 6.61889
665 2 2.2208 2.43338 14.3216 -0.302881
55 2 2.2208 5.2104 11.8621 5.35869
61 1 -1.1104 0.87504 10.0385 1.04095
66 2 2.2208 5.16276 8.89274 2.50774
68 1 -1.1104 0.913814 10.3221 3.84369
73 2 2.2208 2.46354 11.6059 2.58503
75 2 2.2208 2.48501 8.90554 5.30647
77 1 -1.1104 3.51499 10.0213 1.31884
80 1 -1.1104 3.85858 10.3178 3.87715
107 1 -1.1104 0.98374 12.878 1.17858
113 1 -1.1104 0.999239 13.1996 4.12583
123 1 -1.1104 3.74312 12.8717 1.09192
128 1 -1.1104 3.77502 13.253 3.86977
78 1 -1.1104 3.74528 10.1756 6.71362
115 1 -1.1104 6.8308 13.1038 3.83268
64 1 -1.1104 6.56631 10.339 1.21924
25 2 2.2208 -0.482135 -2.45417 2.45004
201 1 -1.1104 9.64868 18.7093 12.3006
8451 2 2.2208 10.7715 -5.22017 5.24148
70 1 -1.1104 6.70136 10.3055 3.88976
110 1 -1.1104 6.53559 13.0193 1.19694
85 2 2.2208 11.0872 11.6931 5.36768
89 1 -1.1104 12.127 10.2146 1.03923
91 2 2.2208 10.9628 8.72403 2.45859
93 1 -1.1104 12.4447 10.2677 3.83563
96 2 2.2208 8.13648 11.6406 2.53273
98 2 2.2208 8.11312 8.97498 5.36872
100 1 -1.1104 9.58327 10.1937 1.07596
103 1 -1.1104 9.7021 10.261 3.94448
142 1 -1.1104 12.3263 12.9725 1.05092
146 1 -1.1104 12.2225 13.0806 3.98335
153 1 -1.1104 9.35333 13.0749 0.980417
158 1 -1.1104 9.51872 13.2429 3.76266
9052 2 2.2208 13.5365 5.82002 2.3668
9018 2 2.2208 -0.407702 19.8554 2.62513
9149 2 2.2208 -0.399238 3.12828 2.37176
199 1 -1.1104 12.3092 16.1539 9.26003
579 2 2.2208 13.6899 6.08643 13.5211
130 2 2.2208 2.34129 14.6343 5.21901
119 2 2.2208 5.33712 14.4399 2.6229
106 2 2.2208 5.51489 17.5557 5.40908
109 1 -1.1104 0.985904 18.7834 1.13329
114 1 -1.1104 1.04675 18.5635 3.93214
116 1 -1.1104 1.21854 15.7964 1.17849
120 2 2.2208 5.32209 20.2279 2.48736
121 1 -1.1104 0.791399 15.9911 3.95184
125 1 -1.1104 3.7083 18.58 0.800457
127 2 2.2208 2.42534 17.4606 2.5326
129 1 -1.1104 3.8343 18.8839 3.70435
131 2 2.2208 2.31527 20.0928 5.2501
132 1 -1.1104 3.89395 15.6645 0.92706
134 1 -1.1104 3.78845 15.9791 3.66353
117 1 -1.1104 1.11385 15.972 6.69818
139 1 -1.1104 6.6726 18.8856 3.86776
112 1 -1.1104 6.74462 19.036 6.78531
140 1 -1.1104 6.66078 15.9198 1.16085
118 1 -1.1104 6.62444 16.2741 7.01496
138 1 -1.1104 6.68151 18.6864 0.97303
122 1 -1.1104 6.67441 15.8565 4.13265
150 2 2.2208 10.8348 14.4549 2.34133
141 2 2.2208 10.9091 17.3168 5.34264
144 1 -1.1104 12.0454 18.7687 1.08938
147 1 -1.1104 12.533 18.41 3.98081
148 1 -1.1104 12.5688 16.0762 0.850644
151 2 2.2208 10.7633 20.1533 2.44255
152 1 -1.1104 12.3688 15.6504 3.5389
155 1 -1.1104 9.39861 18.5905 0.795638
157 2 2.2208 8.01764 17.3282 2.55451
159 1 -1.1104 9.60546 18.9036 3.80048
160 2 2.2208 8.11502 14.4906 5.24359
161 2 2.2208 8.15363 20.2281 5.31329
162 1 -1.1104 9.46878 15.8268 1.21336
164 1 -1.1104 9.46161 16.1067 3.87255
28 2 2.2208 -0.185181 11.5979 11.0414
8884 2 2.2208 -0.352075 0.409495 10.7903
145 1 -1.1104 12.387 18.8857 6.54462
149 1 -1.1104 12.1093 16.0621 6.63577
156 1 -1.1104 9.4268 18.6662 6.64038
610 2 2.2208 2.26589 8.65366 -0.388113
391 2 2.2208 10.9515 -2.42435 13.6367
172 1 -1.1104 3.70171 -3.74207 6.59569
170 1 -1.1104 0.626576 -1.13455 6.79742
548 2 2.2208 10.9026 17.4069 -0.311323
174 1 -1.1104 3.53637 -0.923925 6.53805
175 2 2.2208 5.03715 0.208253 10.9567
176 1 -1.1104 0.95364 -3.91292 12.286
180 1 -1.1104 0.935037 -3.84915 9.47385
184 1 -1.1104 0.896182 -1.06345 12.357
186 2 2.2208 5.06362 -2.51264 7.9705
188 1 -1.1104 1.03561 -0.926711 9.28814
190 1 -1.1104 3.77803 -3.66408 12.362
192 2 2.2208 2.22231 0.480442 7.95351
193 1 -1.1104 3.72486 -3.86484 9.62642
195 2 2.2208 2.37928 -2.16338 10.8478
197 1 -1.1104 3.73551 -0.922604 12.3669
198 1 -1.1104 3.7681 -1.04912 9.48491
9150 2 2.2208 -0.29556 6.16228 5.30813
185 1 -1.1104 6.85971 -1.00695 12.2068
8455 2 2.2208 8.13029 -5.21024 7.90144
550 2 2.2208 13.6114 11.7733 13.6655
306 1 -1.1104 6.94595 15.8879 12.6486
105 2 2.2208 10.9207 14.5382 8.04985
210 1 -1.1104 9.46587 -0.819774 6.57181
135 2 2.2208 -0.400877 14.3012 2.61879
611 2 2.2208 5.33487 11.7529 -0.224749
178 1 -1.1104 6.65852 -3.91898 12.4207
182 1 -1.1104 6.60939 -3.90044 9.30626
189 1 -1.1104 6.55004 -1.13525 9.15521
211 2 2.2208 11.0265 0.41754 10.8812
212 1 -1.1104 12.1321 -3.81498 12.2767
214 1 -1.1104 12.2259 -3.99089 9.41454
216 1 -1.1104 12.3052 -1.23391 12.2131
217 2 2.2208 11.0044 -2.3198 8.00424
219 1 -1.1104 12.308 -0.961105 9.4711
220 1 -1.1104 9.42952 -3.75193 12.1791
222 2 2.2208 8.05825 0.494743 8.0432
223 1 -1.1104 9.35579 -3.83015 9.3631
225 2 2.2208 8.11741 -2.30961 10.8637
227 1 -1.1104 9.51459 -0.951365 12.1814
228 1 -1.1104 9.35962 -0.97794 9.35543
491 2 2.2208 5.33396 14.4436 13.5924
238 1 -1.1104 4.02407 7.43695 6.41091
8859 2 2.2208 -0.259896 20.1881 7.94775
82 1 -1.1104 12.5296 16.0526 12.1869
232 1 -1.1104 9.82217 18.9994 9.6007
177 1 -1.1104 1.13866 1.63823 12.2651
181 1 -1.1104 0.919856 1.85476 9.42294
187 2 2.2208 5.07082 3.20288 8.20538
191 1 -1.1104 3.85734 1.71841 12.3035
194 1 -1.1104 3.66575 1.84411 9.39432
196 2 2.2208 2.39422 3.05494 11.0473
240 2 2.2208 5.16374 6.06434 10.8759
244 1 -1.1104 0.796386 7.39528 9.32528
246 1 -1.1104 1.20394 4.36207 12.4921
251 1 -1.1104 1.02587 4.56657 9.73455
256 2 2.2208 2.37525 5.97126 8.09294
260 1 -1.1104 3.86301 4.63731 12.3129
262 1 -1.1104 3.76853 4.62499 9.33005
258 1 -1.1104 3.58733 7.33616 9.33063
255 1 -1.1104 3.82163 7.37585 12.3072
242 1 -1.1104 1.03309 7.22852 12.1561
179 1 -1.1104 6.5247 1.80514 12.371
81 1 -1.1104 12.4664 18.9742 9.38475
664 2 2.2208 5.20917 17.2427 -0.347099
248 1 -1.1104 6.62396 4.66719 12.6097
243 1 -1.1104 6.62912 7.30875 12.2021
235 1 -1.1104 6.56668 7.41796 6.67021
183 1 -1.1104 6.7775 1.81404 9.41624
253 1 -1.1104 6.54687 4.60517 9.55101
245 1 -1.1104 6.58006 7.44816 9.54127
213 1 -1.1104 12.2064 1.90174 12.1627
215 1 -1.1104 12.3679 1.82561 9.40264
218 2 2.2208 10.8208 3.13798 8.05155
221 1 -1.1104 9.54597 1.59648 12.2969
224 1 -1.1104 9.48055 1.85277 9.47427
226 2 2.2208 8.21044 3.23893 10.9623
268 1 -1.1104 9.47598 4.8676 9.41234
271 1 -1.1104 9.45953 4.59924 12.4264
273 1 -1.1104 9.35514 7.66913 9.39775
275 2 2.2208 8.02754 6.17553 8.22726
276 2 2.2208 10.9472 6.13224 10.7917
278 1 -1.1104 12.4123 7.58351 12.1744
280 1 -1.1104 12.5073 4.79195 12.2463
283 1 -1.1104 12.4333 4.69209 9.63462
279 1 -1.1104 12.2548 7.54266 9.38635
285 1 -1.1104 9.67954 7.43479 12.2715
136 2 2.2208 10.96 20.3689 8.16685
62 1 -1.1104 1.01533 10.169 6.66606
108 1 -1.1104 1.20523 13.0056 6.78289
124 1 -1.1104 3.78242 13.0299 6.5542
241 2 2.2208 5.23368 11.5643 11.0562
247 1 -1.1104 0.827285 10.2992 12.6072
250 2 2.2208 5.20354 8.91316 7.9926
252 1 -1.1104 1.16256 10.2106 9.44053
257 2 2.2208 2.49469 11.7164 8.12413
259 2 2.2208 2.46927 8.72809 10.8504
261 1 -1.1104 3.55003 10.3131 12.3086
263 1 -1.1104 4.043 10.2937 9.61538
287 1 -1.1104 3.92488 13.19 11.873
294 1 -1.1104 1.12656 13.0653 9.46076
299 1 -1.1104 0.988754 13.105 12.3735
305 1 -1.1104 3.76114 13.3486 9.19159
254 1 -1.1104 6.83161 10.1471 9.29105
297 1 -1.1104 6.62378 12.9079 12.3744
249 1 -1.1104 6.58861 9.99294 12.4404
290 1 -1.1104 6.39161 12.8869 9.5992
143 1 -1.1104 12.4684 13.1444 6.62113
154 1 -1.1104 9.74807 13.0055 6.48077
90 1 -1.1104 12.5682 10.0964 6.6494
233 2 2.2208 8.23096 14.4594 11.1771
111 1 -1.1104 6.61212 13.2784 6.71478
101 1 -1.1104 9.51168 10.2636 6.48574
65 1 -1.1104 6.71067 10.3536 6.65091
312 1 -1.1104 9.54821 13.3168 9.42064
264 1 -1.1104 9.53348 10.4522 9.55907
270 1 -1.1104 9.36976 10.2397 12.38
272 2 2.2208 7.98979 8.82538 10.8991
274 2 2.2208 8.21102 11.6961 7.96185
277 2 2.2208 10.8907 11.6199 10.8774
281 1 -1.1104 12.1216 10.3661 12.2728
282 2 2.2208 10.9318 8.5823 7.79282
284 1 -1.1104 12.2549 10.2588 9.59534
200 1 -1.1104 9.5436 13.0832 12.6049
49 1 -1.1104 12.1202 13.2454 11.9347
53 1 -1.1104 12.2515 13.324 9.44571
311 2 2.2208 8.15875 17.249 8.29357
634 2 2.2208 10.7833 5.69919 -0.376961
133 1 -1.1104 3.82088 15.9459 6.73648
126 1 -1.1104 3.96412 18.6317 6.52832
302 1 -1.1104 0.911368 18.7529 6.46491
296 1 -1.1104 6.65932 18.7175 12.2553
289 1 -1.1104 6.83296 15.8189 9.7598
310 2 2.2208 2.40095 14.5958 10.75
295 2 2.2208 5.3848 14.6616 8.09662
308 1 -1.1104 3.87445 15.8118 12.2664
309 2 2.2208 2.61473 20.2397 10.7393
307 1 -1.1104 1.00989 15.8811 12.1245
304 1 -1.1104 4.25539 16.3296 9.43868
286 1 -1.1104 3.63135 18.6763 12.0985
291 1 -1.1104 1.25498 18.6222 9.36554
292 1 -1.1104 1.09801 16.0188 9.34566
293 2 2.2208 5.37686 20.3603 8.16038
298 1 -1.1104 0.879063 18.7885 12.1504
300 2 2.2208 5.4335 17.1495 11.0402
301 1 -1.1104 4.09608 19.059 9.31906
303 2 2.2208 2.64677 17.3655 8.09335
288 1 -1.1104 6.96901 18.6844 9.58018
316 2 2.2208 8.25723 20.1498 10.981
315 1 -1.1104 9.76805 15.9491 12.3485
163 1 -1.1104 9.40448 15.7608 6.73814
30 2 2.2208 11.1536 17.4407 10.7969
50 1 -1.1104 12.4197 18.9087 12.252
314 1 -1.1104 9.55171 15.86 9.63999
9053 2 2.2208 -0.307462 8.73621 2.42927
104 2 2.2208 13.6718 11.6232 2.42651
545 2 2.2208 2.43252 -2.58346 -0.304481
8858 2 2.2208 -0.317423 17.2673 10.8476
9086 2 2.2208 -0.364737 8.87619 8.02315
663 2 2.2208 2.37291 20.1297 -0.439659
615 2 2.2208 -0.359336 6.06287 -0.276562
453 2 2.2208 8.05436 5.99967 13.5879
9017 2 2.2208 -0.339002 3.25754 8.04096
17273 2 2.2208 13.608 -5.31208 2.33668
552 2 2.2208 7.99422 20.0445 -0.413842
635 2 2.2208 8.10596 8.79014 -0.417406
52 2 2.2208 13.5196 5.93476 7.95587
9152 2 2.2208 13.5424 -2.45112 5.06109
51 2 2.2208 13.5497 11.6655 8.05956
26 2 2.2208 13.6008 14.5958 10.6923
9087 2 2.2208 -0.342647 5.98881 10.7796
516 2 2.2208 10.8771 20.1138 13.6616
544 2 2.2208 5.21628 0.279427 -0.313034
454 2 2.2208 10.7133 8.84261 13.5957
317 2 2.2208 5.37057 0.389538 16.7037
318 1 -1.1104 0.939493 -3.90198 17.6948
322 1 -1.1104 0.92105 -3.94333 14.9685
330 1 -1.1104 0.888986 -1.21428 18.0297
332 2 2.2208 5.10172 -2.44612 19.436
334 1 -1.1104 1.02075 -0.986056 15.3987
338 1 -1.1104 3.67938 -3.84391 18.1198
340 2 2.2208 2.22168 0.176743 19.2946
341 1 -1.1104 3.62244 -3.82732 15.2254
345 2 2.2208 2.29823 -2.57726 16.44
347 1 -1.1104 3.64841 -0.970034 18.3062
348 1 -1.1104 3.95854 -1.26049 15.1362
349 1 -1.1104 3.75078 -1.06093 20.8297
8524 2 2.2208 10.823 -5.13906 21.959
8827 2 2.2208 5.18574 -5.18391 16.4307
17634 2 2.2208 -0.410927 -5.29806 21.9792
427 2 2.2208 5.108 8.75302 13.7538
517 2 2.2208 10.9845 14.492 13.7887
336 1 -1.1104 6.92282 -0.987479 15.1598
320 1 -1.1104 6.596 -3.8454 17.9884
326 1 -1.1104 6.57581 -3.81611 15.2821
331 1 -1.1104 6.50513 -1.14417 18.0039
360 2 2.2208 10.8299 0.414918 16.4327
361 1 -1.1104 12.3906 -3.89865 17.8665
363 1 -1.1104 12.3465 -3.79181 15.1455
367 1 -1.1104 12.2992 -1.0146 17.6766
368 2 2.2208 11.0179 -2.50401 19.0632
370 1 -1.1104 12.3331 -0.894002 14.8563
372 1 -1.1104 9.46767 -3.85126 17.8121
374 2 2.2208 8.1281 0.500057 19.3107
375 1 -1.1104 9.49502 -3.72934 15.0936
379 2 2.2208 7.98436 -2.50132 16.5212
381 1 -1.1104 9.40703 -1.06525 17.9029
382 1 -1.1104 9.54616 -0.89975 15.1089
455 2 2.2208 8.06862 11.6214 13.9013
327 1 -1.1104 6.71706 -3.49814 20.7997
376 1 -1.1104 9.29467 -3.58459 20.7483
383 1 -1.1104 9.5896 -0.875009 20.7639
576 2 2.2208 7.94016 3.05149 27.7751
8828 2 2.2208 2.43492 -5.22236 19.4948
319 1 -1.1104 0.891955 1.83747 18.0458
324 1 -1.1104 0.941966 1.72513 15.1466
333 2 2.2208 5.09072 3.27506 19.2276
339 1 -1.1104 3.72792 1.80907 17.9694
343 1 -1.1104 3.85207 1.87834 14.9594
346 2 2.2208 2.18202 3.19565 16.6011
393 2 2.2208 5.29155 6.03004 16.4542
395 1 -1.1104 0.772744 7.39776 17.7972
397 1 -1.1104 0.777084 7.68641 15.0433
401 1 -1.1104 0.848388 4.70374 17.8996
406 1 -1.1104 1.05361 4.51401 15.249
415 2 2.2208 2.29098 5.85261 19.4283
420 1 -1.1104 3.64232 4.42248 17.8752
422 1 -1.1104 3.69823 4.74738 15.3009
417 1 -1.1104 3.57525 7.59273 15.1474
414 1 -1.1104 3.91187 7.33947 17.955
9184 2 2.2208 -0.299966 -2.49846 24.9924
358 2 2.2208 2.27857 0.233907 13.7436
344 1 -1.1104 3.52048 1.76341 20.8502
411 1 -1.1104 6.58647 4.64617 20.6282
403 1 -1.1104 6.31045 4.68283 18.0216
399 1 -1.1104 6.4327 7.20301 15.0051
321 1 -1.1104 6.72432 1.79891 18.0881
410 1 -1.1104 6.8183 4.66397 15.1174
396 1 -1.1104 6.9016 7.37191 17.8263
328 1 -1.1104 6.73319 1.95555 15.3078
362 1 -1.1104 12.3407 2.05107 17.6393
365 1 -1.1104 12.407 2.00131 14.8693
369 2 2.2208 10.9777 3.21263 19.1646
373 1 -1.1104 9.55606 1.85505 17.7713
377 1 -1.1104 9.41966 1.94948 14.9697
380 2 2.2208 8.08811 3.27352 16.5893
429 2 2.2208 11.1076 5.98048 16.5069
432 1 -1.1104 12.2767 7.40108 14.9501
434 1 -1.1104 12.509 4.84941 18.0745
437 1 -1.1104 12.4729 4.71625 15.2067
441 1 -1.1104 9.54698 7.35981 18.0453
442 2 2.2208 8.01758 6.00971 19.316
444 1 -1.1104 9.4656 7.3171 15.0991
447 1 -1.1104 9.46215 4.5497 17.8914
449 1 -1.1104 9.53871 4.48852 15.2478
431 1 -1.1104 12.3661 7.44819 17.8917
433 1 -1.1104 12.4802 7.56139 20.7383
575 2 2.2208 8.04206 -2.43427 27.7023
428 2 2.2208 2.3603 11.593 13.7471
445 1 -1.1104 9.52804 7.34613 20.7089
366 1 -1.1104 12.1917 1.83015 20.471
378 1 -1.1104 9.41169 1.96301 20.5871
394 2 2.2208 5.18129 11.6109 16.6177
402 1 -1.1104 0.985361 10.1372 17.9583
405 2 2.2208 5.22818 8.87848 19.4271
408 1 -1.1104 0.979907 10.2071 15.2323
416 2 2.2208 2.30583 11.5659 19.2552
419 2 2.2208 2.36296 8.79728 16.6426
421 1 -1.1104 3.77509 10.1202 17.8274
424 1 -1.1104 3.91066 10.5008 14.956
457 1 -1.1104 0.900696 12.9055 18.0523
461 1 -1.1104 0.806771 12.8974 15.2662
477 1 -1.1104 3.72737 12.9748 17.997
480 1 -1.1104 3.51287 13.2094 14.8987
409 1 -1.1104 1.10765 10.2619 20.9562
462 1 -1.1104 0.760092 13.1456 20.9898
404 1 -1.1104 6.54257 10.0192 17.9549
413 1 -1.1104 6.61951 10.5357 20.9653
8525 2 2.2208 10.9476 -5.2351 27.6659
574 2 2.2208 11.0153 0.454984 27.6645
465 1 -1.1104 6.41393 13.0714 15.2038
412 1 -1.1104 6.69541 9.98313 15.1645
459 1 -1.1104 6.56549 13.0034 17.8364
430 2 2.2208 10.7446 11.5964 16.6357
435 1 -1.1104 12.1732 10.2974 18.2244
436 2 2.2208 10.8128 8.80258 19.4871
439 1 -1.1104 12.1047 10.0791 15.1369
443 2 2.2208 7.93631 11.7128 19.5301
446 2 2.2208 8.06819 8.73317 16.6183
448 1 -1.1104 9.50422 10.1756 18.1387
451 1 -1.1104 9.38567 10.3232 15.2706
493 1 -1.1104 12.1558 12.8845 17.8609
495 1 -1.1104 12.2205 12.9301 14.9363
504 1 -1.1104 9.29698 13.0067 18.0453
507 1 -1.1104 9.28966 13.048 15.3716
667 2 2.2208 -0.235127 17.1399 27.7499
356 2 2.2208 13.5996 20.0888 16.6165
484 2 2.2208 2.34241 14.3331 16.5448
471 2 2.2208 5.02634 14.4623 19.3764
456 2 2.2208 5.2719 17.1194 16.4807
458 1 -1.1104 1.30866 18.5696 17.7567
463 1 -1.1104 0.882572 18.5662 14.9953
469 1 -1.1104 0.849159 15.8481 18.15
472 2 2.2208 5.22279 19.8305 19.4336
473 1 -1.1104 1.25505 15.8832 15.0344
478 1 -1.1104 4.00456 18.3975 18.0854
479 2 2.2208 2.5619 17.1702 19.4107
482 1 -1.1104 3.81127 18.8183 14.904
485 2 2.2208 2.59128 20.0871 16.2745
486 1 -1.1104 3.85568 15.6596 17.903
487 1 -1.1104 3.87331 15.8469 15.264
681 2 2.2208 10.8113 20.1627 25.0393
467 1 -1.1104 6.47934 18.6344 15.1121
475 1 -1.1104 6.64437 15.7918 15.1678
470 1 -1.1104 6.62583 15.8263 17.9872
460 1 -1.1104 6.58863 18.4836 17.8854
9366 2 2.2208 -0.339398 17.2506 16.6262
518 2 2.2208 8.1251 17.4576 13.9872
669 1 -1.1104 12.076 18.6605 23.7699
677 2 2.2208 8.0369 17.187 25.2129
392 2 2.2208 10.9888 3.08598 13.6537
511 2 2.2208 7.98084 14.4462 16.5767
492 2 2.2208 10.7679 17.2168 16.6523
494 1 -1.1104 12.2696 18.4576 17.9326
497 1 -1.1104 12.4939 18.6478 15.2463
499 1 -1.1104 12.0374 15.7898 18.0116
500 2 2.2208 10.9019 14.3856 19.5197
501 2 2.2208 10.8177 20.0402 19.519
502 1 -1.1104 12.3725 15.7933 15.0175
505 1 -1.1104 9.52903 18.5622 17.9514
506 2 2.2208 8.09406 17.1178 19.4623
509 1 -1.1104 9.51825 18.8453 15.1271
512 2 2.2208 7.90942 19.9976 16.626
513 1 -1.1104 9.44471 15.7306 18.1994
514 1 -1.1104 9.5002 15.9959 15.1221
510 1 -1.1104 9.6587 18.6196 20.7866
9178 2 2.2208 13.5671 11.3512 25.0717
385 2 2.2208 13.5819 14.4552 16.6294
8832 2 2.2208 7.92718 -4.92526 19.4213
342 1 -1.1104 3.87498 -3.76908 20.9797
8523 2 2.2208 7.98063 -5.23326 24.889
8831 2 2.2208 10.9867 -5.17659 16.5168
666 2 2.2208 -0.374358 14.5615 25.0982
335 1 -1.1104 0.715439 -1.11163 20.6697
323 1 -1.1104 0.935902 -3.85244 20.8159
520 2 2.2208 5.24629 0.507648 22.1359
521 1 -1.1104 0.871677 -4.01846 23.5434
525 1 -1.1104 1.04888 -4.1177 26.3462
529 1 -1.1104 0.622223 -1.22524 23.5313
531 2 2.2208 5.00948 -2.31136 24.9492
533 1 -1.1104 0.787194 -1.23693 26.4665
535 1 -1.1104 3.65212 -3.55344 23.6656
537 2 2.2208 2.34645 0.284186 25.2184
538 1 -1.1104 3.83987 -3.97737 26.2448
540 2 2.2208 2.18062 -2.26152 22.2084
542 1 -1.1104 3.48696 -0.856774 23.7138
543 1 -1.1104 3.67715 -1.22099 26.6149
684 1 -1.1104 12.3225 18.4751 26.6135
527 1 -1.1104 6.63765 -3.88144 26.4799
534 1 -1.1104 6.71995 -0.934281 26.4063
523 1 -1.1104 6.37242 -3.81279 23.5648
384 2 2.2208 13.5906 17.2678 19.4629
688 2 2.2208 13.6362 0.645993 19.114
8836 2 2.2208 5.13833 -5.16389 22.2013
364 1 -1.1104 12.1921 -3.8967 20.4038
371 1 -1.1104 12.3067 -0.910906 20.5259
9226 2 2.2208 -0.376673 3.16075 13.7035
671 1 -1.1104 9.5455 15.7358 23.8692
337 1 -1.1104 6.74562 -0.683689 20.7586
530 1 -1.1104 6.32424 -0.912772 23.462
556 2 2.2208 10.8852 0.560263 22.0458
557 1 -1.1104 12.1801 -3.69476 23.3468
559 1 -1.1104 12.3626 -3.90512 26.3059
561 1 -1.1104 11.8315 -1.2431 23.1321
562 2 2.2208 10.7763 -2.40811 24.7817
564 1 -1.1104 12.469 -0.875918 26.2707
565 1 -1.1104 9.33153 -3.90327 23.4175
567 2 2.2208 8.09028 0.501508 25.1028
568 1 -1.1104 9.63756 -3.84363 26.1768
570 2 2.2208 7.97714 -2.1693 22.184
572 1 -1.1104 9.26874 -0.927215 23.5902
573 1 -1.1104 9.6196 -1.1149 26.41
582 2 2.2208 13.4525 -2.46509 21.7461
398 1 -1.1104 1.05286 7.3545 20.7538
325 1 -1.1104 0.776172 1.66933 21.0776
329 1 -1.1104 6.39785 2.0605 20.8099
400 1 -1.1104 6.6188 7.52352 20.6181
672 2 2.2208 8.15661 19.9165 22.2572
407 1 -1.1104 0.8179 4.58107 20.8254
418 1 -1.1104 3.89725 7.52334 20.7283
423 1 -1.1104 3.83227 4.74438 20.74
522 1 -1.1104 0.998247 1.76998 23.7811
526 1 -1.1104 0.910513 1.73315 26.5133
532 2 2.2208 5.20204 3.20652 25.0372
536 1 -1.1104 3.74221 1.78617 23.746
539 1 -1.1104 3.90081 1.67324 26.5288
541 2 2.2208 2.39825 3.08737 22.3888
585 2 2.2208 5.36424 5.9461 22.0864
587 1 -1.1104 1.02601 7.44617 23.3819
591 1 -1.1104 0.751004 4.27971 23.7938
596 1 -1.1104 1.04532 4.56629 26.2348
601 2 2.2208 2.27848 5.9412 24.7957
603 1 -1.1104 3.64104 7.41115 26.4021
605 1 -1.1104 3.73812 4.52678 23.652
607 1 -1.1104 4.05212 4.44176 26.4989
589 1 -1.1104 0.951042 7.33427 26.4736
600 1 -1.1104 4.03977 7.2995 23.7894
524 1 -1.1104 6.57282 1.80287 23.6349
598 1 -1.1104 6.75733 4.8216 26.5067
528 1 -1.1104 6.61887 2.04412 26.4364
593 1 -1.1104 6.60958 4.62765 23.3791
588 1 -1.1104 6.92872 7.45521 23.524
450 1 -1.1104 9.57072 4.51715 20.7249
578 2 2.2208 13.5947 8.95604 16.5001
590 1 -1.1104 6.54328 7.40688 26.3884
438 1 -1.1104 12.3388 4.66753 20.8909
558 1 -1.1104 12.3115 1.62995 23.4144
560 1 -1.1104 12.2212 1.86655 26.1362
563 2 2.2208 10.8187 3.08047 25.0809
566 1 -1.1104 9.39556 1.81255 23.3084
569 1 -1.1104 9.38727 1.5842 26.3284
571 2 2.2208 8.16155 3.24879 22.0534
617 1 -1.1104 9.54109 4.37643 26.587
619 1 -1.1104 9.40996 4.46467 23.8652
621 1 -1.1104 9.4112 7.30956 26.5276
623 2 2.2208 8.04901 5.97175 25.1306
624 2 2.2208 10.9424 5.9839 22.3132
628 1 -1.1104 12.4355 4.53044 23.6807
631 1 -1.1104 12.2411 4.5201 26.4255
633 1 -1.1104 9.47384 7.13302 23.6157
626 1 -1.1104 12.4035 7.32304 23.6551
627 1 -1.1104 12.3642 7.3894 26.2253
481 1 -1.1104 3.62123 12.9869 20.9591
613 2 2.2208 -0.353279 8.87021 24.9818
680 1 -1.1104 12.232 15.7263 26.414
425 1 -1.1104 3.9525 10.3628 20.863
657 1 -1.1104 3.94881 13.0277 26.6901
586 2 2.2208 5.06869 11.7649 22.4537
592 1 -1.1104 1.0666 10.3211 23.6256
595 2 2.2208 5.1011 8.81201 25.1517
597 1 -1.1104 1.05282 10.0958 26.5815
602 2 2.2208 2.54412 11.6943 25.3214
604 2 2.2208 2.65351 8.80778 22.3343
606 1 -1.1104 3.86829 10.0763 23.7316
608 1 -1.1104 3.80315 10.2615 26.8514
652 1 -1.1104 1.01368 13.0895 23.6949
642 1 -1.1104 3.84863 12.9689 24.1155
646 1 -1.1104 0.948363 12.937 26.6664
466 1 -1.1104 6.50657 13.2206 20.572
594 1 -1.1104 6.60729 10.3416 23.7588
359 2 2.2208 5.16103 3.27607 13.9371
452 1 -1.1104 9.40638 10.1187 20.9195
440 1 -1.1104 12.1767 10.1901 21.0555
496 1 -1.1104 12.3422 13.1363 20.8711
508 1 -1.1104 9.33784 12.9687 20.9932
641 1 -1.1104 6.546 13.0371 26.4359
599 1 -1.1104 6.75721 10.3102 26.5624
650 1 -1.1104 6.78993 13.0922 23.6037
685 1 -1.1104 12.2533 12.8373 26.4166
679 1 -1.1104 9.41808 12.8953 23.6363
637 1 -1.1104 12.1462 12.9769 23.7646
675 1 -1.1104 9.36602 13.0892 26.506
616 1 -1.1104 9.46024 10.1532 26.516
618 1 -1.1104 9.50185 10.2237 23.7936
620 2 2.2208 7.86367 8.91536 22.1739
622 2 2.2208 8.06115 11.653 25.1558
625 2 2.2208 10.7045 11.6093 22.3434
629 1 -1.1104 12.338 10.1861 23.6868
630 2 2.2208 10.7675 8.74336 25.0669
632 1 -1.1104 12.2391 10.0373 26.6578
643 1 -1.1104 6.79982 15.8598 26.6683
474 1 -1.1104 0.979725 16.0422 20.8397
483 1 -1.1104 3.80487 18.5239 20.8566
488 1 -1.1104 3.66633 15.7934 20.7415
464 1 -1.1104 0.856115 18.8014 20.6716
662 2 2.2208 2.28572 14.5228 22.3175
649 2 2.2208 5.29345 14.4277 25.1542
660 1 -1.1104 3.97448 15.8151 23.6069
659 1 -1.1104 0.963854 15.9903 23.6285
656 1 -1.1104 3.94412 15.8995 26.3563
655 2 2.2208 2.53254 17.3123 25.1067
654 1 -1.1104 3.75783 18.8871 26.4749
653 2 2.2208 5.25225 17.2556 22.2638
651 1 -1.1104 0.967726 18.7288 23.4319
661 2 2.2208 2.45167 20.067 22.0245
640 1 -1.1104 3.75261 18.7844 23.8559
644 1 -1.1104 0.864568 18.4097 26.287
645 1 -1.1104 1.24578 15.7748 26.5307
648 2 2.2208 5.15024 20.1814 25.0005
676 1 -1.1104 6.39286 18.775 26.448
647 1 -1.1104 6.73191 18.6718 23.6542
9177 2 2.2208 -0.331795 17.3845 22.1033
682 2 2.2208 10.9289 14.426 25.0653
658 1 -1.1104 6.51257 15.7716 23.7531
553 2 2.2208 10.9236 17.2621 22.3113
673 2 2.2208 8.11121 14.4947 22.3503
674 1 -1.1104 9.4119 18.7049 26.344
678 1 -1.1104 9.35497 18.6591 23.6931
476 1 -1.1104 6.62737 15.9265 20.9111
515 1 -1.1104 9.39924 15.8775 21.0976
468 1 -1.1104 6.67814 18.5774 20.7248
498 1 -1.1104 12.2929 18.5092 20.8575
503 1 -1.1104 12.2295 15.8218 20.7142
683 1 -1.1104 12.2577 15.7994 23.6133
670 1 -1.1104 9.50821 15.8874 26.648
668 2 2.2208 -0.375043 20.3416 24.8444
388 2 2.2208 13.6469 -2.38987 16.3047
390 2 2.2208 8.19202 0.377128 13.7692
426 2 2.2208 2.26581 5.96584 13.691
389 2 2.2208 -0.364395 8.87302 19.4903
614 2 2.2208 -0.48122 11.7723 22.3053
689 2 2.2208 5.24841 23.1273 5.13412
691 1 -1.1104 0.768199 24.4304 0.777607
692 1 -1.1104 1.01813 24.3849 3.61433
693 1 -1.1104 1.02962 21.4185 1.05894
695 2 2.2208 5.27677 26.08 2.49847
696 1 -1.1104 0.858718 21.4678 3.9028
698 1 -1.1104 3.8311 24.4909 1.22527
699 2 2.2208 2.48299 23.1806 2.41511
701 1 -1.1104 3.73358 24.3326 3.80387
702 2 2.2208 2.54366 25.9883 5.2623
703 1 -1.1104 3.84942 21.6455 0.838809
705 1 -1.1104 3.88842 21.6819 3.51476
694 1 -1.1104 0.77505 27.2518 0.875804
832 1 -1.1104 1.00708 21.7702 6.55839
712 1 -1.1104 6.51293 21.7429 1.19835
711 1 -1.1104 6.55644 24.5948 3.75207
714 1 -1.1104 6.88555 21.8159 3.97536
9950 2 2.2208 -0.330379 31.532 13.637
9804 2 2.2208 -0.427051 23.1257 5.08873
9685 2 2.2208 -0.286063 25.9219 7.86012
710 1 -1.1104 6.78813 24.7141 1.07797
713 1 -1.1104 6.78022 27.3658 0.855884
716 2 2.2208 10.9088 23.1425 5.29032
718 1 -1.1104 12.4088 24.4561 0.90195
719 1 -1.1104 12.2092 24.3011 3.99191
720 1 -1.1104 12.2541 21.4924 0.899449
722 2 2.2208 10.9924 25.7753 2.57646
723 1 -1.1104 12.2313 21.5181 3.78665
725 1 -1.1104 9.50332 24.4356 1.02871
726 2 2.2208 7.9694 23.1711 2.29387
728 1 -1.1104 9.54826 24.5291 3.77978
729 2 2.2208 8.08414 25.9566 5.22703
730 1 -1.1104 9.52604 21.5739 1.15222
732 1 -1.1104 9.52153 21.7385 3.75958
724 1 -1.1104 12.2519 27.2788 3.59969
721 1 -1.1104 12.0097 27.1991 0.936187
733 1 -1.1104 9.59107 27.4063 3.91079
865 1 -1.1104 12.2166 27.0071 6.40625
731 1 -1.1104 9.37595 27.3673 0.985886
1025 2 2.2208 2.33801 22.9043 13.4565
866 1 -1.1104 9.30654 24.6637 6.73441
9808 2 2.2208 -0.401171 34.3765 5.21444
706 1 -1.1104 4.06211 27.3849 3.81868
697 1 -1.1104 0.974409 27.0946 3.7748
9722 2 2.2208 -0.390016 31.5556 8.05705
704 1 -1.1104 3.57437 27.1591 1.0489
690 2 2.2208 5.53054 28.8615 5.19066
700 2 2.2208 2.42638 28.5545 2.42132
738 1 -1.1104 0.971706 30.1723 1.12601
741 1 -1.1104 0.997803 29.9484 3.92177
744 1 -1.1104 0.913677 32.835 1.16645
745 2 2.2208 5.22963 31.5859 2.29619
747 1 -1.1104 1.14928 32.9637 3.96035
749 1 -1.1104 3.93312 29.9158 1.11544
752 1 -1.1104 3.71581 30.0923 3.76996
754 2 2.2208 2.38144 31.3402 5.32218
756 1 -1.1104 3.84607 33.0684 0.915743
757 1 -1.1104 4.07059 32.7131 3.84863
748 1 -1.1104 6.78531 32.712 3.84223
887 1 -1.1104 6.69835 32.8875 6.56224
888 1 -1.1104 4.11903 30.0574 6.67444
807 2 2.2208 -0.471965 39.8536 5.23763
1257 2 2.2208 4.99857 34.4566 -0.420787
838 1 -1.1104 3.75709 27.0871 6.77089
1316 2 2.2208 5.29151 39.8579 -0.336305
9660 2 2.2208 -0.287388 22.9033 10.5979
715 1 -1.1104 6.8199 27.2981 3.78413
763 1 -1.1104 6.78809 32.7478 1.00648
761 1 -1.1104 6.6987 30.0443 0.999397
762 1 -1.1104 6.75113 29.9686 3.84306
717 2 2.2208 10.9762 28.8652 5.20034
727 2 2.2208 8.18828 28.8346 2.22132
765 1 -1.1104 12.2793 29.9281 1.19146
767 1 -1.1104 12.444 29.9067 3.78641
769 1 -1.1104 12.2822 32.6618 0.973772
770 2 2.2208 11.0155 31.4285 2.36274
772 1 -1.1104 12.2987 32.8179 3.63891
773 1 -1.1104 9.64762 30.1789 0.871877
776 1 -1.1104 9.47665 30.1383 3.69254
778 2 2.2208 8.1847 31.4138 5.1493
780 1 -1.1104 9.41113 32.8141 0.984899
781 1 -1.1104 9.38008 32.8129 3.80975
1256 2 2.2208 2.26253 31.4324 -0.33039
918 1 -1.1104 12.0774 32.5852 6.31718
921 1 -1.1104 9.4291 33.0088 6.73237
987 2 2.2208 13.4618 45.6751 8.05324
1048 2 2.2208 8.05983 22.9876 13.6312
737 2 2.2208 5.24045 34.1908 5.15506
739 1 -1.1104 0.731878 35.7429 0.836362
742 1 -1.1104 0.986607 35.6997 3.78955
746 2 2.2208 5.34685 37.0637 2.38618
750 1 -1.1104 3.55726 35.7801 1.19455
751 2 2.2208 2.33265 34.3302 2.54806
753 1 -1.1104 3.94968 35.6799 3.8452
755 2 2.2208 2.48848 37.1087 5.30515
783 2 2.2208 5.00444 39.8227 5.1667
789 1 -1.1104 1.07021 38.6092 1.07523
794 1 -1.1104 1.1763 38.3671 3.94637
799 2 2.2208 2.40422 39.9376 2.63275
803 1 -1.1104 3.8043 38.5822 1.07537
805 1 -1.1104 3.91726 38.3636 3.64504