ITEM: TIMESTEP
80000
ITEM: NUMBER OF ATOMS
17640
ITEM: BOX BOUNDS pp pp pp
-4.5250928269848817e-01 2.7792509282698404e+01
-5.3251652322868948e+00 3.3340516523229451e+02
-4.4087412406225501e-01 2.7780874124062567e+01
ITEM: ATOMS id type q x y z
1 2 2.2208 5.11775 0.317909 5.42698
2 1 -1.1104 0.830082 -4.05017 1.19469
6 1 -1.1104 0.984321 -4.1072 4.22027
10 1 -1.1104 0.883061 -1.20482 1.09854
12 2 2.2208 5.22442 -2.22696 2.47899
14 1 -1.1104 1.06214 -1.19066 3.88702
16 1 -1.1104 3.73599 -3.68455 1.0698
18 2 2.2208 2.18523 0.155888 2.43889
19 1 -1.1104 3.68191 -3.92474 3.72665
21 2 2.2208 2.31541 -2.56834 5.46523
23 1 -1.1104 3.5904 -1.04956 0.951038
24 1 -1.1104 3.75288 -0.867636 3.88765
8 1 -1.1104 6.36658 -3.73282 3.71226
11 1 -1.1104 6.69038 -0.923367 1.06843
15 1 -1.1104 6.49321 -1.04935 3.99569
544 2 2.2208 5.11595 0.417156 -0.424686
545 2 2.2208 2.23607 -2.43305 -0.393262
174 1 -1.1104 3.73097 -1.19473 6.84526
8452 2 2.2208 2.29355 -5.27337 8.04269
4 1 -1.1104 6.60919 -3.93282 0.728596
31 2 2.2208 10.8206 0.286931 5.53695
32 1 -1.1104 12.246 -3.99824 1.10517
34 1 -1.1104 11.968 -3.89171 3.93882
36 1 -1.1104 12.2959 -1.21965 1.14648
37 2 2.2208 10.5304 -2.48729 2.62175
39 1 -1.1104 12.0131 -1.05858 3.86541
40 1 -1.1104 9.41983 -3.7557 1.04373
42 2 2.2208 8.09414 0.364292 2.42438
43 1 -1.1104 9.14931 -3.93052 4.13491
45 2 2.2208 7.76537 -2.46371 5.31713
47 1 -1.1104 9.57016 -1.06321 1.14501
48 1 -1.1104 9.21036 -1.027 3.97792
581 2 2.2208 13.5121 -2.60834 -0.375735
8457 2 2.2208 13.4641 -5.19688 8.21448
26 2 2.2208 13.5845 14.3881 10.8874
546 2 2.2208 2.21991 3.23156 -0.277684
8835 2 2.2208 5.07116 -5.1574 -0.416957
575 2 2.2208 8.04027 -2.41958 -0.381056
27 2 2.2208 13.6128 17.0939 8.15023
8992 2 2.2208 13.4158 3.20202 10.9248
3 1 -1.1104 1.03187 1.67572 1.06868
7 1 -1.1104 0.854067 1.66386 3.85139
13 2 2.2208 5.10851 3.12907 2.46028
17 1 -1.1104 3.75154 1.59352 0.963155
20 1 -1.1104 3.81122 1.83747 3.89628
22 2 2.2208 2.33379 3.23429 5.31135
54 2 2.2208 5.03468 5.93067 5.34504
56 1 -1.1104 0.811681 7.18347 1.13586
60 1 -1.1104 0.654919 4.30891 0.782253
67 1 -1.1104 0.749769 4.64153 3.80338
72 2 2.2208 2.23669 5.87521 2.43377
76 1 -1.1104 3.59968 4.47424 1.4215
79 1 -1.1104 3.48774 4.5765 3.97815
58 1 -1.1104 0.922919 7.43996 4.00861
71 1 -1.1104 3.52053 7.26734 0.933538
74 1 -1.1104 3.70547 7.37591 3.62197
63 1 -1.1104 6.4821 4.63501 0.786617
9 1 -1.1104 6.64642 1.657 3.71431
5 1 -1.1104 6.52783 1.96535 0.882101
57 1 -1.1104 6.48458 7.22681 1.1584
235 1 -1.1104 6.66793 7.34179 6.55577
236 1 -1.1104 1.07464 4.51832 6.55491
239 1 -1.1104 3.68011 4.59899 6.74017
8858 2 2.2208 -0.434186 17.0789 10.7317
69 1 -1.1104 6.50865 4.47645 3.78847
59 1 -1.1104 6.50309 7.34366 3.92799
33 1 -1.1104 11.9927 1.81642 1.0478
35 1 -1.1104 12.1054 1.87429 3.829
38 2 2.2208 10.6092 3.03658 2.56399
41 1 -1.1104 9.33979 1.69197 1.00033
44 1 -1.1104 9.32858 1.75088 3.92712
46 2 2.2208 7.66199 3.11233 5.34418
84 2 2.2208 10.6701 5.99107 5.19749
86 1 -1.1104 12.0696 7.3866 1.14121
87 1 -1.1104 12.4835 7.36309 3.86538
88 1 -1.1104 12.2453 4.74302 0.946999
92 1 -1.1104 12.0436 4.42399 3.96057
95 2 2.2208 8.00382 5.81959 2.3687
97 1 -1.1104 9.49961 7.28131 3.83567
99 1 -1.1104 9.32483 4.4883 1.08815
102 1 -1.1104 9.06414 4.53783 4.03832
94 1 -1.1104 9.40777 7.23527 1.10546
269 1 -1.1104 9.38302 4.71185 6.67448
8449 2 2.2208 5.06065 -5.24235 5.20783
634 2 2.2208 10.7969 5.82368 -0.345518
665 2 2.2208 2.15371 14.5554 -0.375213
55 2 2.2208 5.17393 11.7834 5.45521
61 1 -1.1104 0.906525 10.3357 1.14517
66 2 2.2208 5.21594 8.89023 2.50173
68 1 -1.1104 0.902058 10.0288 3.90727
73 2 2.2208 2.49761 11.5811 2.44071
75 2 2.2208 2.46007 8.80349 5.38354
77 1 -1.1104 3.66269 10.1584 0.901577
80 1 -1.1104 3.59165 10.1604 3.92115
107 1 -1.1104 0.715319 13.1976 0.719345
113 1 -1.1104 1.05079 12.9526 3.71502
123 1 -1.1104 3.74946 12.8258 1.02841
128 1 -1.1104 3.76186 13.0532 4.07509
70 1 -1.1104 6.37761 10.3694 3.88955
110 1 -1.1104 6.60188 13.065 1.07999
547 2 2.2208 7.81499 14.6208 -0.18506
584 2 2.2208 13.5797 3.05227 -0.311636
230 2 2.2208 13.5617 -2.56173 11.131
664 2 2.2208 5.18105 17.4323 -0.100668
9152 2 2.2208 13.5325 -2.51648 5.14492
203 2 2.2208 13.3459 20.0341 5.59574
64 1 -1.1104 6.51704 10.1823 0.991198
115 1 -1.1104 6.50303 13.0447 3.73273
85 2 2.2208 10.8166 11.4806 5.29807
89 1 -1.1104 12.1067 10.347 0.919675
91 2 2.2208 10.7818 8.80554 2.45601
93 1 -1.1104 12.1667 10.2168 3.91334
96 2 2.2208 7.87432 11.552 2.52868
98 2 2.2208 7.9012 8.71082 5.41579
100 1 -1.1104 9.29486 10.2406 0.845104
103 1 -1.1104 9.25281 9.94088 3.85946
142 1 -1.1104 12.3313 13.0656 0.747722
146 1 -1.1104 12.2471 12.9417 3.74868
153 1 -1.1104 9.4453 13.1425 0.907477
158 1 -1.1104 9.20775 12.6399 3.82172
154 1 -1.1104 9.51783 12.9129 6.73775
9052 2 2.2208 13.5808 5.75181 2.48336
574 2 2.2208 10.9004 0.344518 -0.30605
52 2 2.2208 13.607 6.02181 7.87586
663 2 2.2208 2.03865 19.8495 -0.283774
130 2 2.2208 2.23195 14.3675 5.35741
119 2 2.2208 5.07154 14.37 2.64902
106 2 2.2208 5.16047 17.3354 5.4754
109 1 -1.1104 0.640155 18.5829 1.13416
114 1 -1.1104 1.04762 18.4594 3.99418
116 1 -1.1104 0.934358 15.7555 1.2731
120 2 2.2208 5.03727 19.998 2.52834
121 1 -1.1104 0.71608 15.5707 3.96695
125 1 -1.1104 3.45325 18.7441 1.23725
127 2 2.2208 2.32887 17.1352 2.53114
129 1 -1.1104 3.73272 18.4683 3.88313
131 2 2.2208 2.15247 20.0803 5.46302
132 1 -1.1104 3.58137 15.6599 1.32071
134 1 -1.1104 3.53113 15.758 3.99977
139 1 -1.1104 6.55141 18.9982 3.95952
29 2 2.2208 13.5714 8.93378 10.9381
9151 2 2.2208 13.592 0.272154 2.48627
491 2 2.2208 5.07624 14.2879 13.6244
140 1 -1.1104 6.5939 15.9981 1.2305
138 1 -1.1104 6.352 18.5276 1.46571
122 1 -1.1104 6.38649 15.8333 4.13884
160 2 2.2208 7.81221 14.4154 5.36951
150 2 2.2208 10.725 14.3472 2.27485
141 2 2.2208 10.6803 17.1658 5.27319
144 1 -1.1104 12.0825 18.627 1.08154
147 1 -1.1104 12.0571 18.4983 3.99162
148 1 -1.1104 12.2284 15.8541 1.02848
151 2 2.2208 10.5677 20.1727 2.49086
152 1 -1.1104 12.0052 15.6072 3.79683
155 1 -1.1104 9.25919 18.7382 1.06599
157 2 2.2208 7.96274 17.2132 2.52835
159 1 -1.1104 9.31679 18.4891 3.70206
161 2 2.2208 7.99092 20.1148 5.26134
162 1 -1.1104 9.31872 15.9786 0.900505
164 1 -1.1104 9.2693 15.5324 3.71473
145 1 -1.1104 12.1064 18.3514 6.72459
392 2 2.2208 10.7947 3.30478 13.5934
163 1 -1.1104 9.4314 15.7366 6.60362
9053 2 2.2208 -0.368385 8.70034 2.56076
172 1 -1.1104 3.59758 -3.91842 6.75891
316 2 2.2208 7.75091 20.0602 10.8939
166 1 -1.1104 0.877653 -3.75847 6.93382
168 1 -1.1104 6.38642 -3.86792 6.66766
171 1 -1.1104 6.40714 -1.07928 6.80567
170 1 -1.1104 0.94418 -1.1759 6.60689
175 2 2.2208 5.21133 0.371988 10.8751
176 1 -1.1104 0.969136 -3.79354 12.3211
180 1 -1.1104 0.97799 -3.87294 9.54145
184 1 -1.1104 1.02042 -0.997339 12.2178
186 2 2.2208 5.10877 -2.60462 8.17801
188 1 -1.1104 0.899088 -1.13012 9.56379
190 1 -1.1104 3.79622 -3.85531 12.3397
192 2 2.2208 2.2601 0.319805 8.09928
193 1 -1.1104 3.85956 -3.905 9.62616
195 2 2.2208 2.33015 -2.45849 10.826
197 1 -1.1104 3.82871 -1.24268 12.3051
198 1 -1.1104 3.66271 -1.12147 9.57318
178 1 -1.1104 6.50945 -3.82747 12.3907
205 1 -1.1104 11.9889 -3.83205 6.58594
9148 2 2.2208 -0.385333 0.277143 5.43698
548 2 2.2208 10.8579 17.332 -0.40287
210 1 -1.1104 9.26088 -1.13725 6.99662
208 1 -1.1104 9.0012 -3.73279 6.73789
207 1 -1.1104 12.2284 -1.09739 6.70369
189 1 -1.1104 6.53807 -1.27776 9.62316
182 1 -1.1104 6.57703 -3.9774 9.39683
185 1 -1.1104 6.75567 -1.20085 12.5036
211 2 2.2208 10.5392 0.470729 10.974
212 1 -1.1104 12.2023 -4.06665 12.4445
214 1 -1.1104 12.158 -3.92275 9.48824
216 1 -1.1104 12.3156 -1.1639 12.3846
217 2 2.2208 10.6343 -2.47758 8.22442
219 1 -1.1104 12.3822 -1.2232 9.43483
220 1 -1.1104 9.36914 -3.81311 12.3909
222 2 2.2208 7.85841 0.20778 8.22625
223 1 -1.1104 9.20426 -3.84345 9.50726
225 2 2.2208 7.94524 -2.55739 11.057
227 1 -1.1104 9.52614 -0.896733 12.552
228 1 -1.1104 9.20312 -1.0553 9.88567
237 1 -1.1104 6.39514 4.70872 6.70417
234 1 -1.1104 0.973961 7.34052 6.66692
238 1 -1.1104 3.69763 7.42716 6.61245
173 1 -1.1104 3.7726 1.72869 6.92529
167 1 -1.1104 0.869075 1.71964 6.48516
177 1 -1.1104 1.05621 1.76018 12.3133
181 1 -1.1104 0.955656 1.77215 9.48238
187 2 2.2208 5.33256 3.18936 8.19345
191 1 -1.1104 3.81639 1.70993 12.495
194 1 -1.1104 4.00113 1.88864 9.57088
196 2 2.2208 2.44286 3.11743 10.8996
240 2 2.2208 5.18216 5.95531 10.9311
244 1 -1.1104 0.957514 7.45104 9.48918
246 1 -1.1104 0.959924 4.53905 12.1405
251 1 -1.1104 0.658032 4.63053 9.39566
256 2 2.2208 2.31601 5.94209 8.05662
260 1 -1.1104 3.87423 4.50641 12.1308
262 1 -1.1104 3.61682 4.51413 9.44794
258 1 -1.1104 3.81362 7.30292 9.68461
255 1 -1.1104 3.6636 7.17892 12.3973
242 1 -1.1104 0.72987 7.35508 12.6457
243 1 -1.1104 6.44151 7.33223 12.3948
179 1 -1.1104 6.45762 1.70272 12.2885
183 1 -1.1104 6.4459 1.8823 9.6186
248 1 -1.1104 6.55375 4.53214 12.2499
169 1 -1.1104 6.49431 1.58938 6.87796
245 1 -1.1104 6.55282 7.38607 9.46098
266 1 -1.1104 12.1929 4.63116 6.57159
206 1 -1.1104 12.1906 1.7055 6.87251
267 1 -1.1104 9.54261 7.49839 6.80517
265 1 -1.1104 12.2551 7.418 6.68229
231 2 2.2208 13.3861 3.24774 5.39527
156 1 -1.1104 9.28638 18.6357 6.48896
209 1 -1.1104 9.03312 1.51394 6.62058
253 1 -1.1104 6.6303 4.68208 9.39709
213 1 -1.1104 12.0567 1.82831 12.471
215 1 -1.1104 11.9522 1.78987 9.57491
218 2 2.2208 10.6941 3.10066 8.00594
221 1 -1.1104 9.38439 1.84509 12.2518
224 1 -1.1104 9.18958 1.70843 9.34115
226 2 2.2208 7.9463 3.31971 10.899
268 1 -1.1104 9.52343 4.5956 9.43425
271 1 -1.1104 9.21683 4.65067 12.297
273 1 -1.1104 9.24396 7.47363 9.48369
275 2 2.2208 7.97968 6.00171 8.1085
276 2 2.2208 10.811 5.87763 10.6938
278 1 -1.1104 12.1995 7.44792 12.2996
280 1 -1.1104 12.2047 4.69404 12.2499
283 1 -1.1104 12.4334 4.66184 9.25401
279 1 -1.1104 11.9659 7.49399 9.53624
285 1 -1.1104 9.48626 7.24225 12.3271
288 1 -1.1104 6.2949 18.6075 9.80603
62 1 -1.1104 0.918084 10.2107 6.65048
108 1 -1.1104 0.972598 12.801 6.68817
124 1 -1.1104 3.78574 13.065 6.89843
78 1 -1.1104 3.89175 10.3723 6.81749
65 1 -1.1104 6.58181 10.1029 6.59758
241 2 2.2208 5.05549 11.566 10.938
247 1 -1.1104 0.763403 10.0833 12.1865
250 2 2.2208 5.06406 8.81084 8.15255
252 1 -1.1104 0.660198 10.1707 9.35862
257 2 2.2208 2.1359 11.4662 8.29306
259 2 2.2208 2.26174 8.67013 11.1351
261 1 -1.1104 3.50482 10.1391 12.3612
263 1 -1.1104 3.74007 10.0285 9.79831
287 1 -1.1104 3.78347 12.858 12.3521
294 1 -1.1104 0.85229 12.8236 9.52133
299 1 -1.1104 0.91244 12.8073 12.2293
305 1 -1.1104 3.47506 12.7617 9.7301
254 1 -1.1104 6.54857 10.2774 9.66149
552 2 2.2208 7.95567 20.1464 -0.316587
143 1 -1.1104 12.1551 12.9383 6.43411
90 1 -1.1104 11.9465 10.1203 6.59708
233 2 2.2208 7.82588 14.2334 10.9307
101 1 -1.1104 9.39873 9.99355 6.90596
111 1 -1.1104 6.63473 13.0304 6.79497
290 1 -1.1104 6.56449 12.9188 9.32181
249 1 -1.1104 6.33463 9.97269 12.4375
297 1 -1.1104 6.66457 12.721 12.1985
312 1 -1.1104 9.2904 13.147 9.70342
264 1 -1.1104 9.2424 10.3964 9.53788
270 1 -1.1104 9.40151 9.85218 12.2977
272 2 2.2208 7.88969 8.79409 10.9987
274 2 2.2208 8.00793 11.6173 7.99791
277 2 2.2208 10.7278 11.5822 11.0361
281 1 -1.1104 12.0118 10.3004 12.3614
282 2 2.2208 10.7144 8.75159 8.20737
284 1 -1.1104 12.1665 10.4031 9.45383
200 1 -1.1104 9.29766 12.9409 12.4403
49 1 -1.1104 12.217 12.9722 12.1993
53 1 -1.1104 12.0752 13.0608 9.30145
289 1 -1.1104 6.43277 15.8479 9.47184
118 1 -1.1104 6.48862 15.8119 6.62597
302 1 -1.1104 0.752736 18.5024 7.08237
126 1 -1.1104 3.6195 18.5282 6.70354
117 1 -1.1104 0.770744 15.7323 6.61341
310 2 2.2208 2.23292 14.322 11.1653
133 1 -1.1104 3.85664 15.8698 6.85532
295 2 2.2208 5.15267 14.4314 8.20146
303 2 2.2208 2.23997 17.0804 8.14589
308 1 -1.1104 3.47656 15.8477 12.3021
309 2 2.2208 2.37831 19.9879 10.9912
307 1 -1.1104 0.650823 15.6852 12.2773
304 1 -1.1104 3.65 15.3735 9.63269
286 1 -1.1104 3.93483 18.7484 12.2088
291 1 -1.1104 0.945388 18.6408 9.62903
292 1 -1.1104 0.87718 15.7041 9.41508
293 2 2.2208 5.19907 20.1487 8.19399
298 1 -1.1104 0.842452 18.5343 12.2664
300 2 2.2208 5.07863 17.1471 10.8895
301 1 -1.1104 3.73477 18.5419 9.43949
296 1 -1.1104 6.83533 18.4538 12.4045
136 2 2.2208 10.7965 20.0189 8.0965
81 1 -1.1104 12.1044 18.4277 9.68096
149 1 -1.1104 12.0482 15.729 6.56847
105 2 2.2208 10.679 14.3768 8.1346
232 1 -1.1104 9.16549 18.9597 9.38171
112 1 -1.1104 6.53825 18.8634 6.74454
201 1 -1.1104 9.33014 18.4689 12.4951
311 2 2.2208 7.8603 17.2426 8.06461
30 2 2.2208 10.6081 17.3294 10.9977
82 1 -1.1104 12.134 15.6226 12.3466
50 1 -1.1104 12.4016 18.4929 12.4096
199 1 -1.1104 12.2168 15.8078 9.49407
315 1 -1.1104 9.11113 15.5242 12.2516
314 1 -1.1104 9.52838 15.9589 9.42254
306 1 -1.1104 6.122 15.4991 12.1448
8450 2 2.2208 7.93273 -5.25477 2.42268
609 2 2.2208 5.1303 6.05002 -0.376635
51 2 2.2208 13.5401 11.7657 8.25032
202 2 2.2208 13.5563 14.3925 5.21379
165 2 2.2208 13.5502 17.2495 2.43425
104 2 2.2208 13.4897 11.5889 2.46142
610 2 2.2208 2.22878 8.85177 -0.42441
517 2 2.2208 10.8126 14.4268 13.628
9221 2 2.2208 13.5883 20.1781 -0.102566
635 2 2.2208 8.05075 8.75905 -0.288169
638 2 2.2208 13.6185 8.70289 -0.321842
8859 2 2.2208 -0.432665 19.9963 8.28726
8829 2 2.2208 2.45619 -5.20121 13.5642
428 2 2.2208 2.18039 11.5853 13.6459
317 2 2.2208 5.30634 0.289005 16.5466
318 1 -1.1104 0.796578 -3.96673 18.1128
322 1 -1.1104 1.05213 -3.90252 15.1323
330 1 -1.1104 0.811593 -0.955189 18.2243
332 2 2.2208 5.20351 -2.38755 19.2786
334 1 -1.1104 0.945807 -0.94129 15.3966
338 1 -1.1104 3.79046 -3.89257 18.1081
340 2 2.2208 2.33004 0.391941 19.2477
341 1 -1.1104 3.62299 -4.19788 15.315
345 2 2.2208 2.32796 -2.37313 16.5896
347 1 -1.1104 3.69884 -0.902241 17.7965
348 1 -1.1104 3.57746 -1.2641 14.9475
331 1 -1.1104 6.77056 -1.11058 17.8161
336 1 -1.1104 6.55353 -1.19032 15.3621
8523 2 2.2208 7.86536 -5.28895 25.1125
8834 2 2.2208 13.5793 -5.30242 13.8829
686 2 2.2208 13.5249 3.14093 16.6177
387 2 2.2208 -0.409445 6.13089 16.5545
320 1 -1.1104 6.52421 -4.21801 17.9513
326 1 -1.1104 6.55049 -4.1632 15.1037
360 2 2.2208 11.0135 0.643933 16.4216
361 1 -1.1104 12.2692 -3.70684 17.8199
363 1 -1.1104 12.1946 -3.83208 14.9544
367 1 -1.1104 12.2293 -0.880864 18.1918
368 2 2.2208 10.6485 -2.37335 19.5198
370 1 -1.1104 12.1969 -1.00424 15.4545
372 1 -1.1104 9.35887 -4.09068 17.8255
374 2 2.2208 8.02913 0.410378 19.3471
375 1 -1.1104 9.1898 -3.96639 15.0626
379 2 2.2208 7.95767 -2.68326 16.6279
381 1 -1.1104 9.44053 -1.19597 18.111
382 1 -1.1104 9.23566 -0.912719 15.3291
426 2 2.2208 2.44756 5.78489 13.8012
577 2 2.2208 13.6183 5.92716 19.3765
9226 2 2.2208 -0.397335 3.32283 13.6805
579 2 2.2208 13.5876 6.12357 13.7701
674 1 -1.1104 9.31351 18.7873 26.5586
582 2 2.2208 13.5942 -2.31006 22.3469
319 1 -1.1104 1.10833 1.81107 17.9179
324 1 -1.1104 1.00315 1.81493 15.1125
333 2 2.2208 5.15946 3.19851 19.4479
339 1 -1.1104 3.91012 1.81309 18.0832
343 1 -1.1104 4.01914 1.60261 15.2955
346 2 2.2208 2.3292 3.19809 16.4525
393 2 2.2208 5.33535 5.97075 16.6316
395 1 -1.1104 0.951643 7.39531 18.1846
397 1 -1.1104 1.02412 7.44885 15.157
401 1 -1.1104 1.10102 4.65225 17.8943
406 1 -1.1104 0.997158 4.67142 15.1936
415 2 2.2208 2.31547 5.87319 19.4514
420 1 -1.1104 3.81979 4.53094 18.223
422 1 -1.1104 3.82558 4.41822 15.0536
417 1 -1.1104 3.80476 7.10512 15.4111
414 1 -1.1104 3.89319 7.32596 18.1371
396 1 -1.1104 6.74084 7.36997 17.9223
403 1 -1.1104 6.71477 4.49085 17.952
328 1 -1.1104 6.70043 1.89815 15.03
399 1 -1.1104 6.54945 7.40511 15.3048
321 1 -1.1104 6.78213 1.65324 17.8763
329 1 -1.1104 6.49256 2.1122 20.9279
418 1 -1.1104 3.49995 7.39912 20.8566
410 1 -1.1104 6.58837 4.67795 15.0096
359 2 2.2208 5.28664 3.226 13.7301
8836 2 2.2208 4.94857 -5.25894 22.1718
510 1 -1.1104 9.2421 18.5173 20.7392
550 2 2.2208 13.5932 11.7268 13.7597
9369 2 2.2208 13.545 17.1114 25.2791
362 1 -1.1104 12.2266 1.79928 18.3562
365 1 -1.1104 12.3293 1.85606 15.1879
369 2 2.2208 10.713 3.22462 19.3194
373 1 -1.1104 9.47071 1.83627 17.8215
377 1 -1.1104 9.56749 1.96882 15.0831
380 2 2.2208 7.98196 3.2741 16.5865
429 2 2.2208 10.8227 5.9887 16.4753
432 1 -1.1104 12.208 7.69073 15.1127
434 1 -1.1104 12.3088 4.5116 17.7411
437 1 -1.1104 12.0579 4.62576 15.1313
441 1 -1.1104 9.27149 7.48651 18.0833
442 2 2.2208 8.08465 6.03684 19.4458
444 1 -1.1104 9.42714 7.30037 15.1074
447 1 -1.1104 9.61446 4.60051 17.8387
449 1 -1.1104 9.32021 4.83671 15.0864
431 1 -1.1104 12.1088 7.66953 18.0116
8830 2 2.2208 13.5083 -4.90501 19.5683
9371 2 2.2208 -0.45132 0.426655 16.6554
391 2 2.2208 10.6935 -2.43066 13.7174
670 1 -1.1104 9.0819 15.7489 26.3864
427 2 2.2208 5.16973 8.64103 13.7779
394 2 2.2208 5.08101 11.6431 16.5314
402 1 -1.1104 0.828161 10.2483 17.9917
405 2 2.2208 5.09551 8.76137 19.4801
408 1 -1.1104 1.02712 10.2715 15.2009
416 2 2.2208 2.20853 11.6585 19.2373
419 2 2.2208 2.40613 8.72509 16.5227
421 1 -1.1104 3.67154 10.288 17.8382
424 1 -1.1104 3.87951 10.235 15.1395
457 1 -1.1104 0.725185 12.9902 17.7468
461 1 -1.1104 0.649841 13.0673 14.799
477 1 -1.1104 3.70865 13.1361 17.8978
480 1 -1.1104 3.75694 12.9916 15.0839
459 1 -1.1104 6.56407 12.9122 17.9114
412 1 -1.1104 6.6493 10.2359 15.0737
404 1 -1.1104 6.4471 10.1779 17.7927
351 2 2.2208 13.636 8.94578 22.3897
503 1 -1.1104 12.1214 15.8757 20.8018
672 2 2.2208 7.82238 19.9444 22.1232
551 2 2.2208 13.4113 11.8006 19.4204
465 1 -1.1104 6.73179 13.0432 14.9909
430 2 2.2208 11.0351 11.7362 16.582
435 1 -1.1104 12.3451 10.3134 18.0054
436 2 2.2208 10.8855 8.87728 19.4244
439 1 -1.1104 12.3946 10.398 15.0756
443 2 2.2208 7.86608 11.4121 19.4538
446 2 2.2208 7.89491 8.82806 16.5921
448 1 -1.1104 9.52213 10.2385 17.9952
451 1 -1.1104 9.49008 10.1815 15.1906
493 1 -1.1104 12.1488 13.1708 17.856
495 1 -1.1104 12.1185 13.1561 15.1115
504 1 -1.1104 9.37426 13.0431 18.0355
507 1 -1.1104 9.61839 13.0017 15.0698
413 1 -1.1104 6.44138 10.2265 20.7296
440 1 -1.1104 12.0289 10.2366 20.8252
508 1 -1.1104 9.09176 12.956 20.912
455 2 2.2208 8.05197 11.5585 13.7539
636 2 2.2208 10.7746 11.4669 27.6701
519 2 2.2208 13.4365 17.2356 13.8711
484 2 2.2208 2.24852 14.3907 16.5797
471 2 2.2208 5.17259 14.3737 19.4774
456 2 2.2208 5.02967 16.9129 16.5779
458 1 -1.1104 0.644338 18.6432 17.8456
463 1 -1.1104 0.768839 18.4946 14.9852
469 1 -1.1104 0.797813 15.6806 17.8895
472 2 2.2208 5.06322 19.8416 19.3299
473 1 -1.1104 0.885354 15.8407 15.2541
478 1 -1.1104 3.60067 18.3291 17.8421
479 2 2.2208 2.36079 17.1298 19.5444
482 1 -1.1104 3.76288 18.4689 15.0707
485 2 2.2208 2.40419 19.9163 16.5851
486 1 -1.1104 3.45047 15.6563 18.2012
487 1 -1.1104 3.53718 15.7045 15.2095
467 1 -1.1104 6.46205 18.467 15.3379
470 1 -1.1104 6.4807 15.5345 18.0297
475 1 -1.1104 6.5813 15.8672 15.1494
460 1 -1.1104 6.40721 18.5171 18.0503
358 2 2.2208 2.35699 0.417247 13.8282
385 2 2.2208 13.4918 14.589 16.7504
474 1 -1.1104 1.01432 15.8106 20.7259
483 1 -1.1104 3.71171 18.5723 20.9268
390 2 2.2208 7.83451 0.468014 13.8861
688 2 2.2208 13.5976 0.206053 19.5614
9220 2 2.2208 13.6402 19.9569 22.2118
500 2 2.2208 10.5727 14.4984 19.4394
511 2 2.2208 8.01845 14.2794 16.5732
492 2 2.2208 10.8337 17.3749 16.6725
494 1 -1.1104 12.3392 18.8174 17.9956
497 1 -1.1104 12.1799 18.8048 15.1825
499 1 -1.1104 12.1205 15.8709 18.233
501 2 2.2208 10.8884 19.8809 19.4848
502 1 -1.1104 12.1002 15.9394 15.2191
505 1 -1.1104 9.30625 18.4161 18.0233
506 2 2.2208 7.92314 17.0799 19.3896
509 1 -1.1104 9.33261 18.4552 15.3776
512 2 2.2208 7.86801 19.8851 16.7887
513 1 -1.1104 9.54321 15.7943 17.9052
514 1 -1.1104 9.30126 15.7877 15.0024
8831 2 2.2208 10.7693 -5.18602 16.5206
9370 2 2.2208 13.3893 14.5223 22.3275
516 2 2.2208 10.7929 19.9741 13.7717
671 1 -1.1104 9.35983 16.0907 23.6164
515 1 -1.1104 9.5122 15.8162 20.944
669 1 -1.1104 11.9353 18.5689 23.4974
323 1 -1.1104 0.599352 -4.04837 20.6854
337 1 -1.1104 6.49866 -0.771668 20.4916
327 1 -1.1104 6.37451 -3.62031 20.7881
335 1 -1.1104 0.874316 -1.05821 20.9554
349 1 -1.1104 3.75331 -0.847443 20.6915
342 1 -1.1104 3.43894 -3.94931 20.8853
520 2 2.2208 5.11029 0.469579 22.0968
521 1 -1.1104 0.757332 -3.92874 23.6336
525 1 -1.1104 1.024 -3.82928 26.4344
529 1 -1.1104 0.883597 -1.13138 23.7768
531 2 2.2208 5.02602 -2.46305 24.8469
533 1 -1.1104 0.891604 -1.04729 26.4996
535 1 -1.1104 3.69097 -3.75102 23.6613
537 2 2.2208 2.22053 0.396141 25.1353
538 1 -1.1104 3.5123 -4.03008 26.4909
540 2 2.2208 2.04339 -2.47509 22.1529
542 1 -1.1104 3.4536 -1.17189 23.5971
543 1 -1.1104 3.91129 -1.06401 26.4624
523 1 -1.1104 6.54957 -4.14524 23.4398
527 1 -1.1104 6.23501 -3.82701 26.2785
534 1 -1.1104 6.59857 -0.988426 26.3784
681 2 2.2208 10.9589 19.9047 24.992
384 2 2.2208 13.5739 17.2512 19.6223
518 2 2.2208 7.90031 17.0012 13.9147
376 1 -1.1104 9.32824 -3.81393 20.8786
371 1 -1.1104 12.1222 -1.0198 20.9947
364 1 -1.1104 12.0106 -3.63549 20.7474
530 1 -1.1104 6.41767 -1.09711 23.5182
383 1 -1.1104 9.30847 -1.10309 20.8374
556 2 2.2208 10.7648 0.483583 22.2238
557 1 -1.1104 11.9633 -3.74671 23.6563
559 1 -1.1104 12.171 -3.95468 26.5276
561 1 -1.1104 12.1981 -0.842573 23.712
562 2 2.2208 10.6136 -2.40795 25.132
564 1 -1.1104 11.9291 -1.25192 26.6324
565 1 -1.1104 9.16391 -3.74145 23.7787
567 2 2.2208 8.00431 0.46103 25.1865
568 1 -1.1104 9.49465 -4.0258 26.6203
570 2 2.2208 8.00686 -2.50163 22.1825
572 1 -1.1104 9.42949 -0.807053 23.7793
573 1 -1.1104 9.32272 -1.01485 26.5567
553 2 2.2208 10.7093 17.1639 22.0801
576 2 2.2208 7.97513 3.00765 27.6718
398 1 -1.1104 0.754238 7.24919 20.8107
325 1 -1.1104 0.902913 1.64881 20.7673
344 1 -1.1104 3.64698 1.82911 20.764
423 1 -1.1104 3.72225 4.63 21.0687
407 1 -1.1104 0.781226 4.48115 20.6916
522 1 -1.1104 0.862766 1.7613 23.8353
526 1 -1.1104 0.800448 1.67677 26.5538
532 2 2.2208 5.02497 3.19146 25.1313
536 1 -1.1104 3.70986 1.7073 23.6394
539 1 -1.1104 3.73414 1.64407 26.5133
541 2 2.2208 2.17456 3.08669 22.3002
585 2 2.2208 4.96801 5.99597 22.3804
591 1 -1.1104 0.871944 4.54009 23.6079
596 1 -1.1104 1.00157 4.52253 26.3777
601 2 2.2208 2.2365 6.14384 25.1166
603 1 -1.1104 3.75379 7.40121 26.3527
605 1 -1.1104 3.75865 4.57687 23.7229
607 1 -1.1104 3.59928 4.61246 26.717
589 1 -1.1104 0.64912 7.23604 26.3283
600 1 -1.1104 3.58553 7.39292 23.5784
587 1 -1.1104 0.806826 7.43972 23.7129
593 1 -1.1104 6.40999 4.57158 23.7797
528 1 -1.1104 6.48956 1.82722 26.3409
598 1 -1.1104 6.36179 4.59364 26.2986
590 1 -1.1104 6.8074 7.3549 26.6923
400 1 -1.1104 6.27612 7.45825 20.7377
588 1 -1.1104 6.47517 7.28195 23.7078
524 1 -1.1104 6.52566 1.73259 23.5416
578 2 2.2208 13.5637 8.99155 16.6286
647 1 -1.1104 6.2408 18.5427 23.4483
438 1 -1.1104 12.0151 4.55962 20.7624
445 1 -1.1104 9.25801 7.24314 21.2152
411 1 -1.1104 6.53554 4.70228 20.8479
366 1 -1.1104 12.4627 1.63187 21.1375
378 1 -1.1104 9.47555 1.73087 20.7963
433 1 -1.1104 12.2554 7.41961 20.812
450 1 -1.1104 9.17078 4.52186 20.7126
558 1 -1.1104 12.2863 1.98329 23.6267
560 1 -1.1104 12.3927 1.64466 26.6746
563 2 2.2208 10.8629 3.14391 25.0479
566 1 -1.1104 9.36392 1.89333 23.7038
569 1 -1.1104 9.42732 1.77777 26.5019
571 2 2.2208 7.85192 3.22701 22.1906
617 1 -1.1104 9.18546 4.41029 26.3863
619 1 -1.1104 9.33135 4.51325 23.6864
621 1 -1.1104 9.49348 7.40341 26.57
623 2 2.2208 7.91749 6.01247 25.0053
624 2 2.2208 10.8864 5.97773 22.2443
628 1 -1.1104 12.3626 4.58055 23.4584
631 1 -1.1104 12.2189 4.35099 26.3172
633 1 -1.1104 9.3276 7.39275 23.8458
626 1 -1.1104 12.2143 7.29678 23.4894
627 1 -1.1104 12.2234 7.36605 26.3965
687 2 2.2208 13.5591 0.309139 13.9266
643 1 -1.1104 6.44016 15.7495 26.8158
409 1 -1.1104 0.609389 10.1835 20.8176
466 1 -1.1104 6.42103 12.9279 20.736
425 1 -1.1104 3.6018 10.3774 20.6838
462 1 -1.1104 0.885385 13.0729 20.5562
481 1 -1.1104 3.70276 13.035 20.9667
657 1 -1.1104 3.77534 12.8579 26.5512
586 2 2.2208 4.92906 11.6285 22.2635
592 1 -1.1104 0.822784 10.2982 23.5151
595 2 2.2208 5.12387 8.78098 25.0442
597 1 -1.1104 0.842443 10.2426 26.3288
602 2 2.2208 2.20328 11.6496 25.0437
604 2 2.2208 2.12065 8.72531 22.3041
606 1 -1.1104 3.52414 10.2007 23.6593
608 1 -1.1104 3.45224 10.1366 26.3739
652 1 -1.1104 0.689284 12.9372 23.5
642 1 -1.1104 3.75148 13.1326 23.6174
646 1 -1.1104 0.725732 13.0159 26.3092
594 1 -1.1104 6.34442 9.91271 23.3114
599 1 -1.1104 6.4943 10.1799 26.2196
641 1 -1.1104 6.648 12.9002 26.3945
490 2 2.2208 5.30402 19.9307 13.9403
452 1 -1.1104 9.39544 10.1995 20.6861
650 1 -1.1104 6.52504 13.0053 23.5514
496 1 -1.1104 12.1342 13.1432 20.8763
685 1 -1.1104 12.2415 13.0721 26.2884
679 1 -1.1104 9.27277 13.0677 23.7147
637 1 -1.1104 12.2522 12.9313 23.4868
675 1 -1.1104 9.52758 12.885 26.399
616 1 -1.1104 9.35745 10.1869 26.3122
618 1 -1.1104 9.18791 10.2727 23.472
620 2 2.2208 7.89688 8.75853 22.1498
622 2 2.2208 8.08953 11.5539 25.1817
625 2 2.2208 10.6212 11.638 22.3059
629 1 -1.1104 12.1242 10.1673 23.8627
630 2 2.2208 10.8129 8.76251 25.1208
632 1 -1.1104 12.2474 10.185 26.6668
676 1 -1.1104 6.51785 18.6612 26.4788
488 1 -1.1104 3.7305 15.8157 20.8455
658 1 -1.1104 6.54229 15.8016 23.8006
476 1 -1.1104 6.55221 15.6284 21.0478
468 1 -1.1104 6.30136 18.5307 20.6868
464 1 -1.1104 0.934949 18.6676 20.708
648 2 2.2208 5.12057 19.8759 24.9072
662 2 2.2208 2.15542 14.2883 22.1422
649 2 2.2208 4.99149 14.4938 25.108
660 1 -1.1104 3.50231 15.6727 23.563
659 1 -1.1104 0.868303 15.4978 23.9863
656 1 -1.1104 3.79624 15.8519 26.607
655 2 2.2208 2.1367 17.1334 25.1519
654 1 -1.1104 3.46516 18.4501 26.6925
653 2 2.2208 4.8187 17.0046 22.3483
651 1 -1.1104 0.849763 18.4389 23.6013
661 2 2.2208 2.3864 20.0029 22.0402
640 1 -1.1104 3.52734 18.3469 23.8564
644 1 -1.1104 0.658557 18.7833 26.4227
645 1 -1.1104 0.93 15.947 26.7246
684 1 -1.1104 12.1355 18.6967 26.4666
498 1 -1.1104 12.2999 18.7172 20.8696
678 1 -1.1104 9.12214 18.6358 23.4901
682 2 2.2208 10.708 14.5797 25.1191
683 1 -1.1104 12.0023 15.8094 23.722
673 2 2.2208 7.86083 14.3031 22.3378
677 2 2.2208 7.90321 17.2478 25.0238
680 1 -1.1104 11.99 15.7565 26.5849
453 2 2.2208 7.97041 6.02168 13.8171
639 2 2.2208 13.6663 5.82226 25.0339
8826 2 2.2208 -0.427964 -5.13808 16.5492
8832 2 2.2208 7.98551 -5.28592 19.3182
8838 2 2.2208 13.6471 -5.20835 25.1443
454 2 2.2208 10.8872 8.89534 13.7249
611 2 2.2208 5.10729 11.5305 27.6971
489 2 2.2208 2.28788 17.271 13.6925
357 2 2.2208 5.11135 -2.66244 13.7153
689 2 2.2208 5.03455 22.8907 5.40476
691 1 -1.1104 0.909688 24.3629 0.885887
692 1 -1.1104 0.97646 24.364 3.90603
693 1 -1.1104 0.758272 21.5599 1.10937
695 2 2.2208 5.09259 25.6941 2.38618
696 1 -1.1104 0.485988 21.2861 3.9651
698 1 -1.1104 3.68049 24.4196 0.890373
699 2 2.2208 2.32829 22.7678 2.55157
701 1 -1.1104 3.66581 24.2277 4.07938
702 2 2.2208 2.24898 25.6595 5.32768
703 1 -1.1104 3.71718 21.6138 1.02447
705 1 -1.1104 3.44299 21.2986 3.86155
706 1 -1.1104 3.73252 27.0594 3.7309
694 1 -1.1104 0.841441 27.2157 1.09843
704 1 -1.1104 3.84935 27.1372 0.913094
715 1 -1.1104 6.75168 27.1166 3.98753
714 1 -1.1104 6.11808 21.497 4.06073
712 1 -1.1104 6.46339 21.4843 0.948663
697 1 -1.1104 0.850244 27.2266 4.05826
1569 1 -1.1104 12.2736 46.5442 9.64113
9562 2 2.2208 13.6684 31.1895 5.34542
711 1 -1.1104 6.63727 24.2389 3.81925
710 1 -1.1104 6.2886 24.3336 1.01782
716 2 2.2208 10.8005 22.9384 5.29601
718 1 -1.1104 12.1066 24.0615 0.90531
719 1 -1.1104 12.1088 24.2651 3.86035
720 1 -1.1104 12.2665 21.2801 1.35886
722 2 2.2208 10.6642 25.6378 2.46889
723 1 -1.1104 11.8665 21.3922 4.01315
725 1 -1.1104 9.22047 24.2124 0.950212
726 2 2.2208 7.69939 22.9074 2.35235
728 1 -1.1104 9.61515 24.1449 3.73698
729 2 2.2208 7.92466 25.6807 5.4358
730 1 -1.1104 9.46976 21.671 0.955122
732 1 -1.1104 9.05693 21.4174 3.63493
731 1 -1.1104 9.33641 27.1647 0.908925
863 1 -1.1104 12.605 24.2112 6.50178
724 1 -1.1104 12.2145 27.4123 3.86938
1529 1 -1.1104 6.38677 46.6714 6.58617
864 1 -1.1104 12.1796 21.4305 6.86444
868 1 -1.1104 9.18453 27.0003 7.02896
1172 2 2.2208 10.6616 39.7215 -0.298435
838 1 -1.1104 3.51871 27.236 6.62252
1177 2 2.2208 7.8212 42.6466 -0.0804968
713 1 -1.1104 6.67503 27.0932 1.1215
690 2 2.2208 5.19842 28.5217 5.33703
700 2 2.2208 2.22474 28.6666 2.38553
738 1 -1.1104 0.537005 29.9583 1.15638
741 1 -1.1104 0.86637 29.9474 3.94408
744 1 -1.1104 0.525819 32.6612 1.06648
745 2 2.2208 5.04341 31.3365 2.20071
747 1 -1.1104 0.912121 32.6818 3.96404
749 1 -1.1104 3.54083 29.8021 0.822503
752 1 -1.1104 3.92705 30.0244 3.78553
754 2 2.2208 2.26562 31.2595 5.2409
756 1 -1.1104 3.30227 32.665 0.95155
757 1 -1.1104 3.66719 32.8376 3.95222
763 1 -1.1104 6.27057 32.7045 0.894746
882 1 -1.1104 0.801334 29.7644 6.60361
886 1 -1.1104 0.744137 32.8308 6.71826
762 1 -1.1104 6.50181 30.0939 3.50323
884 1 -1.1104 6.43644 30.0441 6.48461
890 1 -1.1104 3.6509 32.6267 6.80633
887 1 -1.1104 6.56929 32.7049 6.54086
733 1 -1.1104 9.40692 27.317 3.65687
865 1 -1.1104 11.8671 26.9444 6.47423
721 1 -1.1104 12.1781 27.103 1.18104
748 1 -1.1104 6.5965 32.7589 3.60946
761 1 -1.1104 6.59413 30.0874 0.655037
717 2 2.2208 10.7678 28.6321 5.09417
727 2 2.2208 7.95383 28.5833 2.35241
765 1 -1.1104 12.1343 30.0457 1.04325
767 1 -1.1104 12.2819 30.1168 3.73835
769 1 -1.1104 12.0742 32.8981 1.0754
770 2 2.2208 10.8112 31.4071 2.28687
772 1 -1.1104 12.3993 32.8577 4.18177
773 1 -1.1104 9.37381 29.9766 1.08288
776 1 -1.1104 9.52768 30.2366 3.94934
778 2 2.2208 8.05987 31.5607 5.22717
780 1 -1.1104 9.09376 32.7464 1.00056
781 1 -1.1104 9.58296 33.0556 3.67912
9807 2 2.2208 13.6069 25.7147 5.24093
919 1 -1.1104 9.38487 29.8167 6.59228
921 1 -1.1104 9.11952 32.853 6.66488
918 1 -1.1104 12.0458 33.0843 6.98877
835 1 -1.1104 6.32912 27.1038 6.83316
737 2 2.2208 4.95308 33.9672 5.34708
739 1 -1.1104 0.986358 35.5853 1.0738
742 1 -1.1104 0.91321 35.439 4.00098
746 2 2.2208 5.14422 37.0571 2.45228
750 1 -1.1104 3.85955 35.7198 0.916138
751 2 2.2208 2.17014 34.0529 2.42527
753 1 -1.1104 3.48697 35.4173 3.79117
755 2 2.2208 2.12523 36.9355 5.13631
783 2 2.2208 5.04363 39.7565 5.10437
789 1 -1.1104 0.856606 38.32 0.984656
794 1 -1.1104 0.629986 38.2201 3.78252
799 2 2.2208 2.31526 39.8071 2.43009
803 1 -1.1104 3.64279 38.6448 1.04057
805 1 -1.1104 3.64574 38.2847 3.73686
889 1 -1.1104 3.65513 35.4202 6.71081