LAMMPS data file via write_data, version 29 Oct 2020, timestep = 100286

17730 atoms
3 atom types

-0.3686776105647375 27.70867761056438 xlo xhi
-4.30153836366921 332.38153836366837 ylo yhi
-0.3650409532795129 27.70504095327895 zlo zhi

Masses

1 15.9994
2 232.0381
3 131.293

Atoms # full

1 0 2 2.2208 5.183358708979565 1.2565981857972461 5.302239135831685 0 0 0
2 0 1 -1.1104 0.9574987289459144 -2.8942239159375136 1.0873713908915728 0 0 0
3 0 1 -1.1104 0.8728548133285099 2.730121957194995 1.0855148914519532 0 0 0
6 0 1 -1.1104 1.021021785708032 -2.7113109576176924 3.780633964110646 0 0 0
7 0 1 -1.1104 1.0555051063271936 2.8884222439478804 3.9311204321704167 0 0 0
10 0 1 -1.1104 0.9813183518247245 -0.13019481318726323 0.9058122692062367 0 0 0
12 0 2 2.2208 5.255941813580228 -1.5069404616598778 2.4174788501535502 0 0 0
14 0 1 -1.1104 0.983449648018321 0.04329800860997227 3.8151245999051104 0 0 0
16 0 1 -1.1104 3.8373256208574897 -3.015739077543839 1.0589995779274604 0 0 0
17 0 1 -1.1104 3.843692749809464 2.7558159227350365 1.1182581577490354 0 0 0
18 0 2 2.2208 2.280480907868376 1.378258082601341 2.3543048501902346 0 0 0
19 0 1 -1.1104 3.911343243813669 -2.888124701450166 3.911246522703486 0 0 0
20 0 1 -1.1104 3.9182094209410687 2.642672139369303 3.768103982821761 0 0 0
21 0 2 2.2208 2.4384936356558993 -1.4967837603342256 5.304143388058982 0 0 0
23 0 1 -1.1104 3.7153429680423646 -0.18105601111132538 1.1092806254821757 0 0 0
24 0 1 -1.1104 3.7746230680066404 -0.09250848786748188 3.9003672236761577 0 0 0
22 0 2 2.2208 2.483335517801754 4.160350469325842 5.22794375835326 0 0 0
13 0 2 2.2208 5.287672789327943 4.0267702298929215 2.645955361556177 0 0 0
8 0 1 -1.1104 6.674537156076277 -2.849793963111237 3.8212235335789946 0 0 0
9 0 1 -1.1104 6.713962230060667 2.6589141026089873 4.019763174066722 0 0 0
167 0 1 -1.1104 0.9813979540441944 2.736348872907154 6.721837354734767 0 0 0
9005 0 2 2.2208 5.288248328270525 -4.271076805373463 5.267241387397264 0 0 0
365 0 2 2.2208 2.314340953244263 -1.537067854055422 -0.3324039954734434 0 0 0
9006 0 2 2.2208 -0.28170870296010825 -4.210115867018083 5.286973194983491 0 0 0
26 0 2 2.2208 -0.35695133875224433 1.3615036011972828 5.2695955221714765 0 0 0
9013 0 2 2.2208 8.048462267159847 -4.2194089685003755 8.02445659068358 0 0 0
9007 0 2 2.2208 8.032266335036125 -4.155248390756332 2.60317651935805 0 0 0
11 0 1 -1.1104 6.683372146208147 -0.03884658090290622 1.154204786136634 0 0 0
15 0 1 -1.1104 6.583225633671247 0.009346271123802196 3.8017406082116327 0 0 0
5 0 1 -1.1104 6.699287983377452 2.695055276610077 1.1167101922639575 0 0 0
4 0 1 -1.1104 6.790701600724162 -2.9625147086216352 0.9471829487533152 0 0 0
31 0 2 2.2208 10.995283379681934 1.4007554864121732 5.309214655384187 0 0 0
32 0 1 -1.1104 12.398681425984465 -2.906931291775912 0.9573015277736309 0 0 0
33 0 1 -1.1104 12.27123676811206 2.7499723028980165 0.9908829617495881 0 0 0
34 0 1 -1.1104 12.210629537479868 -2.7441332509783862 3.7991185199746638 0 0 0
35 0 1 -1.1104 12.294828597539912 2.8322602052684216 3.8369116476326046 0 0 0
36 0 1 -1.1104 12.198335602775662 -0.031671836234647525 1.1886589462119943 0 0 0
37 0 2 2.2208 10.92245054270077 -1.3516055238850884 2.4752066951793226 0 0 0
39 0 1 -1.1104 12.298685304737722 0.03865042248490023 3.890657213809119 0 0 0
40 0 1 -1.1104 9.647433385218205 -2.688090139035262 1.0602668814586211 0 0 0
41 0 1 -1.1104 9.522896122641212 2.7584604324706645 1.1071455101041356 0 0 0
42 0 2 2.2208 8.083636843384644 1.3802290717719334 2.5060754810651065 0 0 0
43 0 1 -1.1104 9.438126464136747 -2.791974776249798 3.7330498182260916 0 0 0
44 0 1 -1.1104 9.393786933075697 2.823844533575371 3.8040877874030317 0 0 0
45 0 2 2.2208 8.110941592372967 -1.387154440625762 5.308908205845422 0 0 0
46 0 2 2.2208 8.068126521164164 4.117677317979207 5.332835670761491 0 0 0
47 0 1 -1.1104 9.579064039587895 0.05187239879056634 1.0108095844382021 0 0 0
48 0 1 -1.1104 9.37372285543513 0.072785088878647 3.9210794601066676 0 0 0
38 0 2 2.2208 10.916162352302507 4.147007428741028 2.582689520655802 0 0 0
206 0 1 -1.1104 12.325323070311303 2.7863699710029315 6.697262155500242 0 0 0
9008 0 2 2.2208 10.908057858298543 -4.294578416724906 5.2799143746826145 0 0 0
169 0 1 -1.1104 6.6223338979002495 2.768217510383964 6.8025452387381895 0 0 0
207 0 1 -1.1104 12.293735631913423 -0.11644262375758685 6.5418929387888 0 0 0
9004 0 2 2.2208 2.5101720248806854 -4.221931751776123 2.377103676697491 0 0 0
324 0 2 2.2208 10.927931104026756 21.002999204635735 8.016199717634692 0 0 0
54 0 2 2.2208 5.327544871998948 7.028950839421743 5.314938225247816 0 0 0
55 0 2 2.2208 5.1984190768046075 12.452141998270054 5.182027746535357 0 0 0
56 0 1 -1.1104 1.2139380189250604 8.318530132834184 1.0159412419324132 0 0 0
58 0 1 -1.1104 1.038795137030644 8.383372507067854 3.8686293806316354 0 0 0
60 0 1 -1.1104 0.9799013699251895 5.568431364683061 1.353152719530296 0 0 0
61 0 1 -1.1104 1.1433142052142582 11.084640973091233 1.0771514836320195 0 0 0
66 0 2 2.2208 5.359475613561743 9.717409346522212 2.4978653176545778 0 0 0
67 0 1 -1.1104 0.9534266341081861 5.649539413772313 3.8723854697036235 0 0 0
68 0 1 -1.1104 0.9932718395583428 11.226790977710058 3.7000364543624817 0 0 0
71 0 1 -1.1104 3.9568017357275793 8.16243437308596 0.8951508635205416 0 0 0
72 0 2 2.2208 2.4011487429173863 6.9254140985307835 2.4478996419977777 0 0 0
73 0 2 2.2208 2.5288060476592684 12.624242624191725 2.401731789363537 0 0 0
74 0 1 -1.1104 3.8844399729928236 8.497513891236393 3.8021485199029934 0 0 0
75 0 2 2.2208 2.5580719264124547 9.741959745495443 5.195417639397309 0 0 0
76 0 1 -1.1104 3.8517770444529007 5.398662253860024 1.193137685107947 0 0 0
77 0 1 -1.1104 3.870457817647375 11.187120075422815 0.9820847512851902 0 0 0
79 0 1 -1.1104 3.7853345996188943 5.564306041210647 3.8945216445881186 0 0 0
80 0 1 -1.1104 3.8670597890961016 11.181213376222855 3.7206224611544907 0 0 0
59 0 1 -1.1104 6.78690689087938 8.362780003939202 3.8562661876074866 0 0 0
63 0 1 -1.1104 6.666267639636072 5.459240330068301 1.199457023169737 0 0 0
69 0 1 -1.1104 6.770615024367787 5.604648132729392 3.981515815509952 0 0 0
239 0 1 -1.1104 3.998822718831829 5.613267474887486 6.673701185440142 0 0 0
330 0 1 -1.1104 12.26316806753232 13.80757372574153 12.245475257914565 0 0 0
57 0 1 -1.1104 6.819801933833907 8.354656545684291 0.966314964978922 0 0 0
81 0 2 2.2208 -0.20337051052203672 7.015291261494895 5.300031479316629 0 0 0
334 0 2 2.2208 -0.232117496381947 -1.4954691092730639 13.658585883708117 0 0 0
296 0 1 -1.1104 6.607799321743685 19.44487305287537 12.19975199826953 0 0 0
199 0 2 2.2208 -0.22423999591347551 4.1627998454745425 8.038255112350754 0 0 0
64 0 1 -1.1104 6.663315329864778 11.220357866285323 1.1142597481235383 0 0 0
70 0 1 -1.1104 6.902177508688979 10.95504404424538 3.8505597165751717 0 0 0
84 0 2 2.2208 10.90455336585847 6.979718615620708 5.348051971136969 0 0 0
85 0 2 2.2208 10.96817181138835 12.695961430465934 5.267055878064218 0 0 0
86 0 1 -1.1104 12.360358498156991 8.37249496407101 1.1901164675744413 0 0 0
87 0 1 -1.1104 12.409963337661608 8.516792982145532 3.938765245422128 0 0 0
88 0 1 -1.1104 12.340347403471274 5.500272711629787 1.175330112482713 0 0 0
89 0 1 -1.1104 12.307327847501929 11.10053040446998 1.0586067029944408 0 0 0
91 0 2 2.2208 10.914458790015821 9.70613129021512 2.5172696397842818 0 0 0
92 0 1 -1.1104 12.314832995746153 5.45630248534499 4.058180701939655 0 0 0
93 0 1 -1.1104 12.238826037620539 11.189481373578282 3.8843533796978194 0 0 0
94 0 1 -1.1104 9.552026065831429 8.244932941681396 1.2603903651034694 0 0 0
95 0 2 2.2208 8.194746185536934 6.859898247510127 2.5890182162697406 0 0 0
96 0 2 2.2208 8.187690307388541 12.541595391312992 2.2832215927187356 0 0 0
97 0 1 -1.1104 9.524585186184515 8.20745509795579 3.946059332146236 0 0 0
98 0 2 2.2208 8.106217060078626 9.754338548989523 5.364941914726299 0 0 0
99 0 1 -1.1104 9.55030021942131 5.528165784093477 1.1096259904049504 0 0 0
100 0 1 -1.1104 9.672531246658233 11.036540195250351 1.0240500239101265 0 0 0
102 0 1 -1.1104 9.473245588048515 5.508642366557408 4.002965489679923 0 0 0
103 0 1 -1.1104 9.598071078938473 11.14137614130121 3.8729841010141053 0 0 0
267 0 1 -1.1104 9.780192482828042 8.273354960122516 6.765139290926731 0 0 0
90 0 1 -1.1104 12.519525149878692 11.389624691863437 6.59791188151071 0 0 0
269 0 1 -1.1104 9.477778720826997 5.496519060520036 6.645650367991525 0 0 0
265 0 1 -1.1104 12.453143715451525 8.53167583156968 6.586712569298635 0 0 0
323 0 1 -1.1104 12.2099318296109 16.746007356609923 9.421568957222856 0 0 0
384 0 2 2.2208 10.997002569110762 7.024340045202474 -0.2785314387990506 0 0 0
375 0 2 2.2208 2.415690815955576 20.988261521214973 -0.32882046852577906 0 0 0
328 0 1 -1.1104 12.391157030172261 13.974908569147674 9.532742643100928 0 0 0
106 0 2 2.2208 5.37698186816283 18.147129969059108 5.231611736204366 0 0 0
107 0 1 -1.1104 1.0321844456398848 14.077847572221653 1.1352964938686583 0 0 0
109 0 1 -1.1104 0.9221012061918368 19.561871562484654 1.0587558798675496 0 0 0
113 0 1 -1.1104 1.2642118271269005 14.09208943620681 3.856250306133705 0 0 0
114 0 1 -1.1104 1.0243519727402253 19.54240726732644 3.86557356798708 0 0 0
116 0 1 -1.1104 1.0294433253101662 16.784706068754907 1.092584683011261 0 0 0
119 0 2 2.2208 5.271593699298694 15.24828095642209 2.418412391195558 0 0 0
120 0 2 2.2208 5.2536019561038865 20.998953224849995 2.420505627159875 0 0 0
121 0 1 -1.1104 0.8983695289783733 16.82056455323129 3.9759446375302088 0 0 0
123 0 1 -1.1104 3.874814814328091 13.983327739830047 0.9445097687747422 0 0 0
125 0 1 -1.1104 3.82243668212813 19.54556708972572 1.0203595320199672 0 0 0
127 0 2 2.2208 2.40019822756545 18.222457411585488 2.469985402317441 0 0 0
128 0 1 -1.1104 3.9317844171304 13.947114960935108 3.9518639925199692 0 0 0
129 0 1 -1.1104 3.838239059126571 19.656566000951358 3.7756903641678212 0 0 0
130 0 2 2.2208 2.4568456028773937 15.350180638336827 5.2474842728562265 0 0 0
131 0 2 2.2208 2.3412425353460646 20.94866280550698 5.229394440417913 0 0 0
132 0 1 -1.1104 3.7615112277300535 16.73473108668164 1.128509076847095 0 0 0
134 0 1 -1.1104 3.7761094532587682 16.824397732738614 3.8288230362082194 0 0 0
140 0 1 -1.1104 6.589071687194165 16.74393514400057 1.0327257012497895 0 0 0
115 0 1 -1.1104 6.613890584843657 13.703629456062956 3.665331913467202 0 0 0
133 0 1 -1.1104 3.9188837897568423 16.7810055171033 6.5498453487842125 0 0 0
124 0 1 -1.1104 3.756726352650867 13.889655147513414 6.80060890682401 0 0 0
122 0 1 -1.1104 6.611869144315609 16.77804700501651 3.7760240901474984 0 0 0
139 0 1 -1.1104 6.6259738829694985 19.595098001217345 3.9798700120638166 0 0 0
331 0 2 2.2208 10.823018453642998 18.18506560379004 10.833121259502711 0 0 0
314 0 1 -1.1104 9.493319644258886 16.79248511368858 9.383593788024491 0 0 0
108 0 1 -1.1104 0.9305933061716076 14.090970956933258 6.607289924015639 0 0 0
373 0 2 2.2208 2.338526244554576 15.4509472335075 -0.2031535047402366 0 0 0
289 0 1 -1.1104 6.680179892483678 16.705800193769882 9.446713220572267 0 0 0
374 0 2 2.2208 5.1876034805838795 18.139179689441242 -0.23794460542614307 0 0 0
138 0 1 -1.1104 6.632692116966847 19.713880740476586 1.1618707034112385 0 0 0
110 0 1 -1.1104 6.8370003499511975 14.146283645959661 0.9169859396201591 0 0 0
141 0 2 2.2208 10.865379450404037 18.190698270160723 5.393068155026755 0 0 0
142 0 1 -1.1104 12.138552189110923 14.013561078500636 0.9796920360518911 0 0 0
144 0 1 -1.1104 12.30063959695366 19.632333754737857 1.0572974053862225 0 0 0
146 0 1 -1.1104 12.262435536404107 14.064928874381723 3.9332538907968764 0 0 0
147 0 1 -1.1104 12.137387280618135 19.597998132589016 3.918995420589024 0 0 0
148 0 1 -1.1104 12.229041716048853 16.822528736380878 1.0716071955606752 0 0 0
150 0 2 2.2208 10.761084125335675 15.422496047394839 2.342261279409881 0 0 0
151 0 2 2.2208 10.800156112314326 21.015358205053694 2.340085474282483 0 0 0
152 0 1 -1.1104 12.241481840012282 16.778635095897712 3.7583039992495917 0 0 0
153 0 1 -1.1104 9.451243702905526 13.973673437108529 0.9576214617293191 0 0 0
155 0 1 -1.1104 9.357534209482129 19.50435641830499 0.9264927387054862 0 0 0
157 0 2 2.2208 7.827199922777666 18.23853769513598 2.4198620149590218 0 0 0
158 0 1 -1.1104 9.485375486787316 13.863605070569788 3.798852571720942 0 0 0
159 0 1 -1.1104 9.467909827200945 19.767616443492194 3.803676225225241 0 0 0
160 0 2 2.2208 8.027760682053712 15.331255641387664 5.065169865847833 0 0 0
161 0 2 2.2208 7.967139855006453 21.072182182302925 5.21508120688259 0 0 0
162 0 1 -1.1104 9.431518959042522 16.831210391961758 1.0612416806189882 0 0 0
164 0 1 -1.1104 9.429774785701179 16.818502559571108 3.822214855750786 0 0 0
145 0 1 -1.1104 12.294851751278925 19.627343163498324 6.657608048106884 0 0 0
156 0 1 -1.1104 9.497768241372558 19.694322674030605 6.711404626418869 0 0 0
149 0 1 -1.1104 12.154073544624177 16.930447882847425 6.793430235338049 0 0 0
165 0 2 2.2208 13.613507380753006 18.169738986557764 2.448486887332969 0 0 0
173 0 1 -1.1104 3.7561064794495254 2.8524618585475428 6.559833620682561 0 0 0
367 0 2 2.2208 -0.2549392466688866 9.80277741614339 13.582414320897023 0 0 0
382 0 2 2.2208 -0.34917476791929764 12.41144469215445 -0.31295136731139495 0 0 0
201 0 2 2.2208 -0.22343975007522593 1.3520061542608324 10.908350037187137 0 0 0
166 0 1 -1.1104 1.2571707575319289 -2.907706759702493 6.592471183820628 0 0 0
174 0 1 -1.1104 3.690850505649709 -0.0030576315175832322 6.650638509880384 0 0 0
170 0 1 -1.1104 0.9336103115858434 -0.10484571318739122 6.6592805063192415 0 0 0
172 0 1 -1.1104 3.8890281635935344 -2.822008033095702 6.582557257258718 0 0 0
175 0 2 2.2208 5.156700814335098 1.2833386972458554 10.822835653751138 0 0 0
176 0 1 -1.1104 1.1173597068488699 -2.975572084221373 12.247188012611096 0 0 0
177 0 1 -1.1104 1.06134423921563 2.723268934899097 12.47425790952125 0 0 0
180 0 1 -1.1104 1.0925590207297122 -2.767825582370499 9.323813700888758 0 0 0
181 0 1 -1.1104 1.1151875487547316 2.76432624968073 9.580046358006078 0 0 0
184 0 1 -1.1104 1.358171189902203 -0.07292646088690256 12.321113707663962 0 0 0
186 0 2 2.2208 5.212782928884813 -1.5323071575756348 8.082081183246803 0 0 0
188 0 1 -1.1104 1.1355039481432165 0.01826058575755566 9.392393457233034 0 0 0
190 0 1 -1.1104 3.8832407899844648 -2.805752865211082 12.143954871842723 0 0 0
191 0 1 -1.1104 3.809562763793611 2.666044686202636 12.176034294108891 0 0 0
192 0 2 2.2208 2.461221246251673 1.4111492485909969 7.998540928404698 0 0 0
193 0 1 -1.1104 3.7742708740132116 -2.7357569911639374 9.494693162499978 0 0 0
194 0 1 -1.1104 4.0439039778118495 2.7169869131585087 9.334011230691818 0 0 0
195 0 2 2.2208 2.469546245662099 -1.4574526627527158 10.879563210655116 0 0 0
196 0 2 2.2208 2.47469883137608 4.128364421156574 10.97810770574843 0 0 0
197 0 1 -1.1104 4.089221223335651 -0.09716425925498266 12.349933743527226 0 0 0
198 0 1 -1.1104 3.7778482450509836 -0.10907644593460919 9.40203340615829 0 0 0
187 0 2 2.2208 5.26254761094858 4.169619473310949 8.134255115254037 0 0 0
179 0 1 -1.1104 6.666969437069364 2.8191128697152656 12.3495436179827 0 0 0
168 0 1 -1.1104 6.69265617547423 -2.871063888073083 6.678436471100549 0 0 0
83 0 2 2.2208 -0.34140408868654254 12.62951097781646 5.365293534537883 0 0 0
171 0 1 -1.1104 6.495408508195197 -0.0901088967021802 6.637808924222421 0 0 0
379 0 2 2.2208 5.360359580574931 6.696121873407311 -0.2527314077163117 0 0 0
183 0 1 -1.1104 6.604257845779597 2.7775088307239715 9.613103235764907 0 0 0
182 0 1 -1.1104 6.582885284322759 -2.9067413764036023 9.484077191842184 0 0 0
189 0 1 -1.1104 6.525443187224598 -0.029377343213592748 9.49311847002892 0 0 0
185 0 1 -1.1104 6.79210982781488 -0.07703862644762584 12.27518865673372 0 0 0
178 0 1 -1.1104 6.660906850905889 -2.890501124043227 12.311810124539406 0 0 0
209 0 1 -1.1104 9.397584936982666 2.7196456310280657 6.746888816321062 0 0 0
205 0 1 -1.1104 12.312194104701184 -2.8084585725177003 6.630590502165032 0 0 0
210 0 1 -1.1104 9.48713741965758 -0.031290281818401176 6.810371285752053 0 0 0
208 0 1 -1.1104 9.363447857984704 -3.012430792900792 6.512538418289797 0 0 0
211 0 2 2.2208 10.892897357133483 1.318926631850081 10.825467352540192 0 0 0
212 0 1 -1.1104 12.158432803810983 -3.0586023348328957 12.269618656939183 0 0 0
213 0 1 -1.1104 12.127401432372038 2.846160862660463 12.403791958403996 0 0 0
214 0 1 -1.1104 12.14231549935437 -2.8723475415945305 9.48735214693072 0 0 0
215 0 1 -1.1104 12.245776384088279 2.6529567673509313 9.435290853643595 0 0 0
216 0 1 -1.1104 12.183441826377594 -0.058239952239348435 12.207563379006881 0 0 0
217 0 2 2.2208 10.873193448934915 -1.4673364144704557 8.01100394783842 0 0 0
218 0 2 2.2208 10.90138473419192 4.21757716422332 8.136560474235898 0 0 0
219 0 1 -1.1104 12.228805624510187 -0.11431087388367255 9.35823387926981 0 0 0
220 0 1 -1.1104 9.46962664161043 -2.917206013413284 12.214819112135501 0 0 0
221 0 1 -1.1104 9.551089193022841 2.6606195069930743 12.288859711782756 0 0 0
222 0 2 2.2208 8.004747202137438 1.2311811020848102 8.118053829358674 0 0 0
223 0 1 -1.1104 9.482812691650858 -2.783554977055062 9.310380016186839 0 0 0
224 0 1 -1.1104 9.545398488123116 2.718535847585207 9.521590241151788 0 0 0
225 0 2 2.2208 8.043096624938798 -1.432216273627759 10.806860101290901 0 0 0
226 0 2 2.2208 8.057895601588843 4.146038186395571 10.978393840076102 0 0 0
227 0 1 -1.1104 9.518784803884898 -0.20970264032952765 12.288350255844628 0 0 0
228 0 1 -1.1104 9.43884510163996 -0.037413445596942756 9.475313877114395 0 0 0
306 0 1 -1.1104 6.703742177920785 16.60753304626205 12.233727827158004 0 0 0
104 0 2 2.2208 13.524018528724424 12.599374657699444 2.4629490763678237 0 0 0
318 0 1 -1.1104 9.645161166228625 19.627193593169682 9.482941964508967 0 0 0
30 0 2 2.2208 -0.23138838016534863 9.761637529031034 8.067928564383676 0 0 0
325 0 2 2.2208 10.849625326348136 15.354539855651558 8.017985071178716 0 0 0
238 0 1 -1.1104 3.956645686480234 8.3415263293298 6.682939047560726 0 0 0
78 0 1 -1.1104 3.9174769356168846 11.075639575932318 6.461288208201548 0 0 0
62 0 1 -1.1104 1.1878961209174497 11.219626776959434 6.775120338704917 0 0 0
235 0 1 -1.1104 6.865937776994701 8.374943887524251 6.699944657094845 0 0 0
65 0 1 -1.1104 6.6316928619195545 11.062957803349217 6.675091360391308 0 0 0
236 0 1 -1.1104 1.0535974974418052 5.586527520074715 6.719945227821589 0 0 0
237 0 1 -1.1104 6.777392981040048 5.518010096207296 6.776254088044931 0 0 0
234 0 1 -1.1104 1.1962588229716022 8.367636445125987 6.68357881738687 0 0 0
240 0 2 2.2208 5.3291174976626134 6.947099124227227 10.977367032458632 0 0 0
241 0 2 2.2208 5.261756442474215 12.54017057106213 10.819972374990042 0 0 0
242 0 1 -1.1104 1.0699805280755628 8.350192068879148 12.188887272308879 0 0 0
244 0 1 -1.1104 1.0552431001581901 8.34279748650945 9.474765152233452 0 0 0
246 0 1 -1.1104 1.112946995437298 5.486231323151367 12.372141531041784 0 0 0
247 0 1 -1.1104 0.9358983942396053 11.267505488546687 12.305849767402199 0 0 0
250 0 2 2.2208 5.41375717925488 9.673300337070035 8.08488863593601 0 0 0
251 0 1 -1.1104 1.1141460542098665 5.458692295531473 9.555842636502506 0 0 0
252 0 1 -1.1104 1.1391997826260476 11.181473211582631 9.472618019482988 0 0 0
255 0 1 -1.1104 3.8416949845785786 8.498383647058041 12.198978003461916 0 0 0
256 0 2 2.2208 2.4150441762900203 7.0286461375186375 8.09421171564565 0 0 0
257 0 2 2.2208 2.4528991258975132 12.52817229043318 8.087331401515877 0 0 0
258 0 1 -1.1104 3.8356403780224286 8.275107573821392 9.573740428411062 0 0 0
259 0 2 2.2208 2.549083338528637 9.785353607663366 10.829132372178753 0 0 0
260 0 1 -1.1104 3.836181931023479 5.620676578001817 12.358060625913815 0 0 0
261 0 1 -1.1104 3.745971709162651 11.342245632778067 12.349759388883921 0 0 0
262 0 1 -1.1104 3.9223306066050094 5.474386562169655 9.583148129650723 0 0 0
263 0 1 -1.1104 3.968254239575337 11.08380161114513 9.38406269827841 0 0 0
245 0 1 -1.1104 6.646080452826529 8.383014079824202 9.556498611629594 0 0 0
254 0 1 -1.1104 6.743981220539031 11.274822983202581 9.359068353227347 0 0 0
249 0 1 -1.1104 6.704132589033765 11.09355672618775 12.143217293601042 0 0 0
253 0 1 -1.1104 6.630594523900419 5.450326993262054 9.528389397797246 0 0 0
248 0 1 -1.1104 6.666029604088194 5.470537285565665 12.422686228608981 0 0 0
29 0 2 2.2208 -0.27013226254754436 6.931819093883697 10.836865975008651 0 0 0
370 0 2 2.2208 8.103965654668395 -1.3519384663136844 -0.27882277226736074 0 0 0
311 0 2 2.2208 -0.32022444602738354 21.004860925853407 7.9949905242953525 0 0 0
50 0 2 2.2208 13.646194648453488 -1.4908752432461327 5.266112181250136 0 0 0
266 0 1 -1.1104 12.343617248308474 5.6522994720811885 6.847373873433475 0 0 0
101 0 1 -1.1104 9.582638960709794 11.161594780830717 6.64071118083399 0 0 0
329 0 1 -1.1104 12.271860436695881 19.67325656398274 12.39967955488589 0 0 0
243 0 1 -1.1104 6.8203430045516065 8.119991552210028 12.257085734259007 0 0 0
264 0 1 -1.1104 9.512940008162289 11.121015715491838 9.463322751613918 0 0 0
268 0 1 -1.1104 9.423953230366399 5.5156269772910305 9.55197778004437 0 0 0
270 0 1 -1.1104 9.526880887569611 11.230390861446377 12.247358478293695 0 0 0
271 0 1 -1.1104 9.455000762160653 5.494352884279166 12.31206279078943 0 0 0
272 0 2 2.2208 8.175923834167284 9.709548833741813 10.844061722050037 0 0 0
273 0 1 -1.1104 9.493370424022295 8.342479572061901 9.522493264859289 0 0 0
274 0 2 2.2208 8.133787810298575 12.597789375187812 8.048405162756792 0 0 0
275 0 2 2.2208 8.107534161641832 6.846150744310498 8.030274576135124 0 0 0
276 0 2 2.2208 10.93619638597719 6.959861740183409 10.949153509993879 0 0 0
277 0 2 2.2208 10.961435921935323 12.57314138474691 10.88225183411903 0 0 0
278 0 1 -1.1104 12.320860486141196 8.444754856381872 12.421943619259194 0 0 0
279 0 1 -1.1104 12.418921011655211 8.34134994844722 9.583687849097663 0 0 0
280 0 1 -1.1104 12.413111414907663 5.53352460337953 12.406714965914881 0 0 0
281 0 1 -1.1104 12.31278165083107 11.155406140128575 12.245626361572194 0 0 0
282 0 2 2.2208 11.071217333909242 9.789734323074752 8.04124679243231 0 0 0
283 0 1 -1.1104 12.322156181056277 5.516986139553602 9.554239897617707 0 0 0
284 0 1 -1.1104 12.245717449090284 11.095337001085415 9.407419131743724 0 0 0
285 0 1 -1.1104 9.597268378722326 8.352038780944866 12.286276824398033 0 0 0
327 0 1 -1.1104 12.282428696666466 19.52045734962396 9.586724648981303 0 0 0
335 0 2 2.2208 -0.3020463962989774 21.093790569783504 13.601355008657832 0 0 0
320 0 2 2.2208 8.117684179110748 18.127413933584887 8.02354848662863 0 0 0
297 0 1 -1.1104 6.794030664056926 13.982624014770323 12.264756778049733 0 0 0
126 0 1 -1.1104 3.93053771263129 19.525753546830494 6.690616229838527 0 0 0
319 0 1 -1.1104 9.502757976575698 13.940809010919994 9.560642655596906 0 0 0
118 0 1 -1.1104 6.68330990933562 16.595006687407285 6.587254210825084 0 0 0
117 0 1 -1.1104 0.9879624574854201 16.771515260789805 6.7006580937718425 0 0 0
290 0 1 -1.1104 6.644610611054833 13.923346462887277 9.447356030765274 0 0 0
302 0 1 -1.1104 1.1619552234330721 19.603519427783947 6.7526680308785805 0 0 0
305 0 1 -1.1104 3.7806718198201246 13.896753015720249 9.514906690184608 0 0 0
307 0 1 -1.1104 1.0358115885550288 16.93204931768174 12.166707425714964 0 0 0
300 0 2 2.2208 5.228211009727324 18.078501446857363 10.817183178088781 0 0 0
304 0 1 -1.1104 3.778936388438735 16.674378905702774 9.479452984776977 0 0 0
303 0 2 2.2208 2.448878614968216 18.117575415886677 8.041357250556798 0 0 0
294 0 1 -1.1104 1.0986935720643258 14.08014583930885 9.438613375958413 0 0 0
292 0 1 -1.1104 1.0519360218238922 16.84387247828488 9.338226966276071 0 0 0
291 0 1 -1.1104 1.1563511505069033 19.534055703222663 9.578509470884386 0 0 0
287 0 1 -1.1104 3.8650326325406343 14.066037351983558 12.239402195961848 0 0 0
286 0 1 -1.1104 4.005115946234134 19.613789846627043 12.236091893854798 0 0 0
293 0 2 2.2208 5.290131498022258 20.992245995511333 7.975968212960908 0 0 0
309 0 2 2.2208 2.546764577513936 20.894349043566123 10.79853245249791 0 0 0
299 0 1 -1.1104 0.912844496715808 14.09470037452434 12.209751693710764 0 0 0
298 0 1 -1.1104 1.0883234360954759 19.696583514176893 12.351542772098268 0 0 0
310 0 2 2.2208 2.3903237410413904 15.280363012978885 10.941248543274089 0 0 0
295 0 2 2.2208 5.293730518010858 15.375757551223307 8.049239141411356 0 0 0
308 0 1 -1.1104 3.8450649999255178 16.7707738560194 12.231473273645689 0 0 0
301 0 1 -1.1104 3.9351789432322613 19.58732442938923 9.461386176121271 0 0 0
111 0 1 -1.1104 6.477611807634594 13.847598069736712 6.470177232024828 0 0 0
112 0 1 -1.1104 6.775698952024883 19.452358428777238 6.692543870418182 0 0 0
288 0 1 -1.1104 6.746421957874649 19.382174984657627 9.514329836364784 0 0 0
316 0 2 2.2208 8.025254710411318 20.873946872406492 10.83166407452646 0 0 0
163 0 1 -1.1104 9.378786035219054 16.623662489746497 6.428948085539905 0 0 0
143 0 1 -1.1104 12.231357443076387 14.096732613259586 6.657420638750283 0 0 0
154 0 1 -1.1104 9.325395993602942 13.950234085233044 6.831314953651331 0 0 0
315 0 1 -1.1104 9.469898813076094 16.87772916239148 12.20301706909896 0 0 0
322 0 1 -1.1104 9.573431377559602 14.134864060798888 12.31588742295293 0 0 0
321 0 1 -1.1104 9.419614138622357 19.584900194645407 12.295721359744908 0 0 0
317 0 2 2.2208 8.133012245111267 15.311519264179989 10.829229662534607 0 0 0
326 0 1 -1.1104 12.23739985671231 16.69773354387617 12.333166821665463 0 0 0
341 0 2 2.2208 5.353331488146213 4.0970809299247355 13.640003334656983 0 0 0
346 0 2 2.2208 10.868831772257433 -1.5003688036627647 13.594454964627484 0 0 0
348 0 2 2.2208 10.859803223099727 18.143853965536042 -0.32405566582419604 0 0 0
356 0 2 2.2208 8.187590076207886 12.664434478795052 13.530024252315906 0 0 0
358 0 2 2.2208 5.328621933715908 21.02274476641937 13.556865224627982 0 0 0
364 0 2 2.2208 5.209797683529995 1.345065426801447 -0.25549457453809893 0 0 0
366 0 2 2.2208 2.491942806093046 4.173349355956354 -0.18050152548102222 0 0 0
372 0 2 2.2208 8.232828570097878 4.064309575322393 -0.32084578987673834 0 0 0
369 0 2 2.2208 10.9147553328969 1.4813571499478428 -0.3127280126244922 0 0 0
233 0 2 2.2208 13.653576699914822 4.20316323391474 5.346653524996023 0 0 0
9031 0 2 2.2208 2.453351450037352 -4.2577140866592345 13.664646226523175 0 0 0
333 0 2 2.2208 13.565841810492364 15.559045093054783 10.907307669184563 0 0 0
312 0 2 2.2208 -0.3179159503601028 18.23069221068283 10.807704320306488 0 0 0
231 0 2 2.2208 13.580760956496741 21.17672693784541 5.3010272769826186 0 0 0
135 0 2 2.2208 -0.3109748596696349 15.478653909685951 2.444087659125224 0 0 0
136 0 2 2.2208 -0.31964689057222984 21.028841007882917 2.354773339707181 0 0 0
82 0 2 2.2208 -0.35665533400401017 9.722611779762426 2.486772767058009 0 0 0
9014 0 2 2.2208 10.92779038536552 -4.27556202076039 10.779425517166029 0 0 0
9010 0 2 2.2208 2.5074566236566302 -4.254049740072048 8.111188498886595 0 0 0
357 0 2 2.2208 2.4543593985581142 18.3261479667877 13.53020531537754 0 0 0
9027 0 2 2.2208 8.120375089664007 -4.140840886457999 13.634113152653752 0 0 0
359 0 2 2.2208 5.215520799866471 15.390539628170496 13.605654144371439 0 0 0
376 0 2 2.2208 13.633433430518066 12.673135287127588 13.647431179666961 0 0 0
361 0 2 2.2208 10.995850972355356 15.330834430041877 13.613880308384056 0 0 0
362 0 2 2.2208 8.038872627930338 18.140175151228718 13.587772282913615 0 0 0
385 0 2 2.2208 8.091307708633979 9.734225932776551 -0.2937116765588925 0 0 0
344 0 2 2.2208 13.531181392813428 15.337942697732473 -0.3577914542745724 0 0 0
388 0 2 2.2208 5.281718763240603 1.300032649135749 16.455187839923504 0 0 0
389 0 1 -1.1104 1.1030251294098843 -2.807370885186763 17.7856829532028 0 0 0
390 0 1 -1.1104 1.2157987903159349 2.79911472154456 18.035760985236646 0 0 0
393 0 1 -1.1104 1.1978266474922534 -2.8279083001686334 15.11040771600956 0 0 0
395 0 1 -1.1104 1.056823192788018 2.830219673795035 15.14180800794011 0 0 0
401 0 1 -1.1104 1.00756023379105 -0.01180785007882532 17.87507872296511 0 0 0
403 0 2 2.2208 5.171547709360797 -1.4482896068880524 19.272793438317308 0 0 0
404 0 2 2.2208 5.272037628688064 4.238012073188531 19.45881876289772 0 0 0
405 0 1 -1.1104 0.9940716782612593 -0.04782202887178486 14.980349138117212 0 0 0
409 0 1 -1.1104 3.7909211083196697 -2.7354227875169754 17.941597637094766 0 0 0
410 0 1 -1.1104 4.021779904701047 2.814473737180074 17.809695700385962 0 0 0
411 0 2 2.2208 2.386769170437423 1.3085947222645564 19.339384756800644 0 0 0
412 0 1 -1.1104 3.8734488639072326 -2.8383057563966556 14.959906296947274 0 0 0
414 0 1 -1.1104 3.904737199395682 2.6084473144597466 15.050142167656276 0 0 0
416 0 2 2.2208 2.406475356732021 -1.4366963703691167 16.507668935256078 0 0 0
417 0 2 2.2208 2.5399181125861534 4.22631300541497 16.618424702354265 0 0 0
418 0 1 -1.1104 3.918560921187471 0.10583838795847908 17.987373265583987 0 0 0
419 0 1 -1.1104 3.8549414004816978 -0.1325888796519761 15.149092463332684 0 0 0
407 0 1 -1.1104 6.574149357056589 -0.06248440585260252 15.102714688935661 0 0 0
392 0 1 -1.1104 6.706164796106455 2.6392532644307796 17.971723356155593 0 0 0
397 0 1 -1.1104 6.701355996693236 -2.903181829044466 15.166497635915858 0 0 0
338 0 2 2.2208 5.264111565874337 -1.428390771537347 13.717356335063075 0 0 0
9170 0 2 2.2208 -0.2831647046225329 -4.225665130184268 16.445298756812825 0 0 0
461 0 2 2.2208 13.627871891620526 21.04897031457902 22.21218482815419 0 0 0
396 0 1 -1.1104 0.9199663623217234 2.7997632720877106 20.818858347336075 0 0 0
9103 0 2 2.2208 5.2960914194611615 -4.222615931425125 22.174992545783244 0 0 0
399 0 1 -1.1104 6.5070416132641675 2.7111139985083907 15.073514731075715 0 0 0
391 0 1 -1.1104 6.70501381906887 -2.985930019803166 17.881702933172555 0 0 0
402 0 1 -1.1104 6.763614647023054 -0.24646046717387585 17.986030970757447 0 0 0
431 0 2 2.2208 10.705796938702683 1.2657881387778174 16.540487800647156 0 0 0
432 0 1 -1.1104 12.430345186261695 -2.74664412048487 17.803712012551035 0 0 0
433 0 1 -1.1104 12.15488776579538 2.76560475907499 17.85294663053148 0 0 0