ITEM: TIMESTEP
10000
ITEM: NUMBER OF ATOMS
17732
ITEM: BOX BOUNDS pp pp pp
-4.1456679911442268e-01 2.7754566799114553e+01
-4.8112619615656032e+00 3.3289126196156604e+02
-4.0858595481460014e-01 2.7748585954814658e+01
ITEM: ATOMS id type q x y z
1 2 2.2208 5.02298 0.9646 5.22079
2 1 -1.1104 0.9223 -3.49592 1.03132
6 1 -1.1104 0.865512 -3.54844 3.7933
10 1 -1.1104 0.949899 -0.626069 0.840544
12 2 2.2208 5.1213 -1.89714 2.40232
14 1 -1.1104 0.541467 -0.611285 3.62899
16 1 -1.1104 3.72153 -3.35716 0.938762
18 2 2.2208 2.29594 0.803284 2.23657
19 1 -1.1104 3.79769 -3.28285 3.86662
21 2 2.2208 2.3578 -1.98652 5.04727
23 1 -1.1104 3.84758 -0.576359 0.885329
24 1 -1.1104 3.49337 -0.457681 3.80959
174 1 -1.1104 3.72681 -0.526221 6.59875
15 1 -1.1104 6.44129 -0.400798 3.69327
4 1 -1.1104 6.56909 -3.28376 1.04674
11 1 -1.1104 6.61275 -0.46959 0.763324
170 1 -1.1104 1.01887 -0.485481 6.55228
166 1 -1.1104 1.04752 -3.18541 6.61885
171 1 -1.1104 6.52088 -0.523093 6.36233
172 1 -1.1104 3.80729 -3.42727 6.5706
168 1 -1.1104 6.83428 -3.28733 6.61947
8 1 -1.1104 6.51111 -3.3936 3.84672
31 2 2.2208 10.7056 0.780549 5.12717
32 1 -1.1104 12.2542 -3.36018 0.89676
34 1 -1.1104 12.1052 -3.31189 3.67635
36 1 -1.1104 12.1874 -0.506648 1.02767
37 2 2.2208 10.7175 -1.94273 2.31864
39 1 -1.1104 12.0545 -0.656056 3.76798
40 1 -1.1104 9.2241 -3.52333 0.913602
42 2 2.2208 7.89474 0.980425 2.45414
43 1 -1.1104 9.25932 -3.39756 3.62618
45 2 2.2208 7.95748 -1.99329 5.10544
47 1 -1.1104 9.40922 -0.762624 0.862034
48 1 -1.1104 9.11391 -0.413839 3.72781
208 1 -1.1104 9.48668 -3.49595 6.69074
207 1 -1.1104 11.8661 -0.546264 6.68456
357 2 2.2208 10.7191 3.65416 13.6396
205 1 -1.1104 12.0901 -3.2224 6.43815
210 1 -1.1104 9.17625 -0.582041 6.53076
323 1 -1.1104 12.3091 16.1139 9.18804
361 2 2.2208 2.34238 12.0669 13.5528
369 2 2.2208 5.09696 20.5586 13.5134
3 1 -1.1104 0.939071 2.18882 0.974147
7 1 -1.1104 0.717158 2.20055 3.79212
13 2 2.2208 4.9849 3.71267 2.08286
17 1 -1.1104 3.72549 2.24984 0.894035
20 1 -1.1104 3.49632 2.25695 3.66471
22 2 2.2208 2.28796 3.70481 5.19982
173 1 -1.1104 3.62783 2.18914 6.68977
9 1 -1.1104 6.40841 2.47624 3.61594
167 1 -1.1104 0.894588 2.31163 6.48652
169 1 -1.1104 6.29255 2.3643 6.51781
54 2 2.2208 5.23839 6.58602 4.97314
56 1 -1.1104 1.11362 7.69721 1.01646
58 1 -1.1104 0.902298 7.7707 3.72845
60 1 -1.1104 0.960263 5.07621 0.9078
67 1 -1.1104 0.965155 5.01656 3.85603
71 1 -1.1104 3.85534 7.98327 0.796835
72 2 2.2208 2.51644 6.30372 2.28423
74 1 -1.1104 3.73565 7.85896 3.64684
76 1 -1.1104 3.62019 5.07644 0.869479
79 1 -1.1104 3.82704 5.03077 3.80142
69 1 -1.1104 6.50481 5.16499 3.44975
236 1 -1.1104 0.894059 4.91001 6.77834
63 1 -1.1104 6.37902 5.12801 0.870503
239 1 -1.1104 3.82502 5.08447 6.65304
59 1 -1.1104 6.62871 7.94679 3.60578
234 1 -1.1104 1.07198 7.94629 6.3656
238 1 -1.1104 3.76481 7.648 6.47479
237 1 -1.1104 6.55288 5.21274 6.60538
321 1 -1.1104 9.36859 19.0307 11.9015
331 2 2.2208 10.81 17.5851 10.6256
5 1 -1.1104 6.46044 2.51035 0.738837
33 1 -1.1104 12.1906 2.36026 0.895812
35 1 -1.1104 11.9112 2.18711 3.71235
38 2 2.2208 10.8306 3.76025 2.38136
41 1 -1.1104 9.33506 2.15316 0.922291
44 1 -1.1104 9.24294 2.50635 3.80397
46 2 2.2208 7.75692 3.81159 4.99838
206 1 -1.1104 12.195 2.16178 6.41454
51 2 2.2208 7.88552 -4.79919 2.48727
57 1 -1.1104 6.55355 8.05067 0.917321
105 2 2.2208 13.4199 6.43352 2.1563
84 2 2.2208 10.6427 6.65722 5.02232
86 1 -1.1104 12.1305 7.9605 0.918925
87 1 -1.1104 12.1341 7.82309 3.67451
88 1 -1.1104 12.0474 5.00286 0.879341
92 1 -1.1104 12.1117 5.11712 3.7461
94 1 -1.1104 9.29014 7.83219 0.768239
95 2 2.2208 7.92585 6.50549 2.16088
97 1 -1.1104 9.32995 8.03996 3.57422
99 1 -1.1104 9.4019 5.08817 0.908408
102 1 -1.1104 9.44697 5.23119 3.59587
269 1 -1.1104 9.24099 4.97909 6.57147
266 1 -1.1104 12.2542 5.07317 6.56827
235 1 -1.1104 6.57791 7.97014 6.44443
265 1 -1.1104 12.2437 7.81448 6.39225
267 1 -1.1104 9.34224 7.82429 6.52312
55 2 2.2208 5.21857 12.0402 5.03815
61 1 -1.1104 1.08886 10.5658 0.876887
66 2 2.2208 5.11146 9.46528 2.30724
68 1 -1.1104 0.967784 10.7504 3.6738
73 2 2.2208 2.27425 12.1123 2.18512
75 2 2.2208 2.37772 9.178 5.02472
77 1 -1.1104 3.7803 10.8843 0.998535
80 1 -1.1104 3.76703 10.7136 3.65592
107 1 -1.1104 0.915364 13.4228 0.755862
113 1 -1.1104 0.809951 13.6839 3.53939
123 1 -1.1104 3.58528 13.6747 0.75897
128 1 -1.1104 3.52923 13.3956 3.72758
108 1 -1.1104 0.942413 13.4275 6.47983
110 1 -1.1104 6.42635 13.4839 0.756172
115 1 -1.1104 6.37485 13.5709 3.57864
78 1 -1.1104 3.67413 10.6591 6.41021
65 1 -1.1104 6.62378 10.7477 6.5938
111 1 -1.1104 6.3567 13.4923 6.17265
124 1 -1.1104 3.73789 13.5581 6.54069
352 2 2.2208 5.04868 3.58248 13.5063
320 2 2.2208 7.89825 17.5852 7.84696
70 1 -1.1104 6.68691 10.6724 3.58775
64 1 -1.1104 6.35783 10.7613 0.919405
85 2 2.2208 10.7398 12.0947 4.94772
89 1 -1.1104 12.1929 10.7552 0.839289
91 2 2.2208 10.8032 9.43285 2.27063
93 1 -1.1104 12.1672 10.6557 3.60355
96 2 2.2208 7.75208 11.9949 2.22778
98 2 2.2208 8.0375 9.28203 5.04203
100 1 -1.1104 9.34341 10.519 0.891412
103 1 -1.1104 9.34712 10.7889 3.59282
373 2 2.2208 10.6801 14.8294 13.4577
142 1 -1.1104 12.2839 13.4843 0.824544
146 1 -1.1104 12.095 13.464 3.59015
153 1 -1.1104 9.23905 13.3501 0.998074
158 1 -1.1104 9.32273 13.5119 3.60956
90 1 -1.1104 12.0986 10.5831 6.60261
143 1 -1.1104 12.1222 13.3959 6.49206
154 1 -1.1104 9.06139 13.2725 6.40018
28 2 2.2208 2.36721 -4.73863 2.37565
106 2 2.2208 5.07488 17.7865 5.03677
109 1 -1.1104 0.775507 19.074 1.01234
114 1 -1.1104 0.860463 19.1638 3.77138
116 1 -1.1104 0.705641 16.3681 0.569187
119 2 2.2208 4.97835 15.0036 2.27707
120 2 2.2208 4.88646 20.4901 2.12276
121 1 -1.1104 1.12075 16.4105 3.6274
125 1 -1.1104 3.48012 19.247 0.85402
127 2 2.2208 2.38423 17.8236 2.28306
129 1 -1.1104 3.76553 19.0928 3.66226
130 2 2.2208 2.40713 14.8504 5.04058
131 2 2.2208 2.24839 20.5876 5.05963
132 1 -1.1104 3.53821 16.4161 0.583681
134 1 -1.1104 3.79964 16.3854 3.6242
138 1 -1.1104 6.49119 18.9739 0.58004
126 1 -1.1104 3.84262 19.0208 6.73141
133 1 -1.1104 3.62989 16.2929 6.45773
122 1 -1.1104 6.36309 16.465 3.58141
139 1 -1.1104 6.4576 19.1179 3.64251
140 1 -1.1104 6.52175 16.2939 0.931774
340 2 2.2208 13.5612 12.0516 7.969
326 1 -1.1104 12.2226 16.0834 12.1915
117 1 -1.1104 0.974921 16.2624 6.43383
376 2 2.2208 8.06757 17.7129 13.5395
337 2 2.2208 13.538 14.9246 4.96062
141 2 2.2208 10.6647 17.7529 4.93748
144 1 -1.1104 12.185 19.0929 0.691744
147 1 -1.1104 12.1996 19.0574 3.51157
148 1 -1.1104 12.3756 16.3224 0.824888
150 2 2.2208 10.8298 14.9105 2.32468
151 2 2.2208 10.7449 20.5247 2.1095
152 1 -1.1104 12.1344 16.3662 3.69307
155 1 -1.1104 9.29837 19.144 0.633785
157 2 2.2208 7.89025 17.7637 2.18453
159 1 -1.1104 9.5126 19.0627 3.47544
160 2 2.2208 7.96995 14.8578 5.04171
161 2 2.2208 7.83451 20.5046 5.09764
162 1 -1.1104 9.56024 16.3293 0.921594
164 1 -1.1104 9.2472 16.2331 3.63243
317 2 2.2208 8.02469 14.8639 10.6144
338 2 2.2208 13.3077 3.69216 10.8451
145 1 -1.1104 12.1091 18.9195 6.44427
163 1 -1.1104 9.3027 16.2962 6.47541
175 2 2.2208 5.21261 0.840549 10.8
176 1 -1.1104 0.897703 -3.44333 12.0917
180 1 -1.1104 0.829923 -3.50232 9.40919
184 1 -1.1104 0.750341 -0.611549 12.0144
186 2 2.2208 5.22305 -1.8799 7.95409
188 1 -1.1104 0.915284 -0.575584 9.3466
190 1 -1.1104 3.70844 -3.37901 12.0339
192 2 2.2208 2.24516 0.922368 7.96127
193 1 -1.1104 3.71885 -3.46529 9.36837
195 2 2.2208 2.22155 -1.95335 10.6932
197 1 -1.1104 3.56751 -0.771623 12.1213
198 1 -1.1104 3.80034 -0.580526 9.37855
182 1 -1.1104 6.42031 -3.31533 9.30781
185 1 -1.1104 6.43933 -0.604966 12.3671
189 1 -1.1104 6.57152 -0.513861 9.43136
178 1 -1.1104 6.48552 -3.51354 12.2757
49 2 2.2208 13.5804 0.743013 2.28367
318 1 -1.1104 9.4617 19.0082 9.09082
349 2 2.2208 2.23607 0.815368 13.4087
203 2 2.2208 5.11655 -4.7862 10.7515
339 2 2.2208 13.5835 6.39647 7.84351
348 2 2.2208 5.04506 -2.07156 13.5175
211 2 2.2208 10.6634 0.952743 10.8797
212 1 -1.1104 12.1311 -3.33048 12.1907
214 1 -1.1104 11.8582 -3.2928 9.529
216 1 -1.1104 11.8458 -0.665361 12.463
217 2 2.2208 10.5875 -2.01476 8.06483
219 1 -1.1104 12.1076 -0.403768 9.43691
220 1 -1.1104 9.39532 -3.4069 12.3598
222 2 2.2208 7.88253 0.77129 7.86351
223 1 -1.1104 9.10438 -3.54333 9.54984
225 2 2.2208 7.88587 -2.0107 10.8379
227 1 -1.1104 9.15509 -0.265772 12.1141
228 1 -1.1104 9.11648 -0.765545 9.33725
50 2 2.2208 13.5404 -2.01871 5.13178
230 2 2.2208 13.4208 -1.75779 10.7487
177 1 -1.1104 0.88705 2.15324 12.1414
181 1 -1.1104 0.889276 2.23693 9.45231
187 2 2.2208 5.28044 3.83495 8.05163
191 1 -1.1104 3.84814 2.17217 12.2199
194 1 -1.1104 3.80235 2.26819 9.50396
196 2 2.2208 2.25301 3.49157 10.9106
183 1 -1.1104 6.56804 2.20876 9.33815
372 2 2.2208 10.7481 20.4798 13.4875
179 1 -1.1104 6.61978 2.24554 12.2242
240 2 2.2208 5.20224 6.46808 10.7545
242 1 -1.1104 1.13203 7.75301 12.0924
244 1 -1.1104 0.833358 7.7938 9.16544
246 1 -1.1104 0.811529 5.01286 12.3135
251 1 -1.1104 0.679791 4.79248 9.49728
255 1 -1.1104 3.72785 7.93409 12.1674
256 2 2.2208 2.35281 6.47913 8.02741
258 1 -1.1104 3.74545 8.05158 9.39376
260 1 -1.1104 3.71137 4.91255 12.1067
262 1 -1.1104 3.83344 5.21412 9.27406
243 1 -1.1104 6.51006 7.97058 12.232
245 1 -1.1104 6.47238 7.76372 9.34855
248 1 -1.1104 6.38207 5.07141 12.3216
253 1 -1.1104 6.66629 5.02939 9.57455
365 2 2.2208 7.84121 11.9836 13.511
313 2 2.2208 -0.300366 14.8067 7.8971
311 2 2.2208 -0.32266 20.3853 7.85161
209 1 -1.1104 9.34787 2.16023 6.70514
213 1 -1.1104 11.9377 2.03842 12.3871
215 1 -1.1104 12.0836 2.26503 9.34845
218 2 2.2208 10.7861 3.64247 7.91916
221 1 -1.1104 9.29571 2.34265 12.3056
224 1 -1.1104 9.40838 2.24009 9.41785
226 2 2.2208 7.99439 3.73321 10.7639
268 1 -1.1104 9.31248 5.16539 9.17966
271 1 -1.1104 9.24002 5.06063 12.0232
273 1 -1.1104 9.40983 7.91562 9.27728
275 2 2.2208 7.99518 6.53022 7.85482
276 2 2.2208 10.7177 6.5154 10.8456
278 1 -1.1104 12.0854 7.6549 12.1039
279 1 -1.1104 12.1112 7.75265 9.41434
280 1 -1.1104 11.9161 4.97017 11.9794
283 1 -1.1104 12.2971 4.92274 9.31264
285 1 -1.1104 9.36219 7.7089 12.2023
306 1 -1.1104 6.65591 16.2573 12.2114
112 1 -1.1104 6.67882 19.0355 6.55201
62 1 -1.1104 0.842419 10.6399 6.59557
241 2 2.2208 5.17333 12.0862 10.5179
247 1 -1.1104 0.914074 10.4661 12.0759
250 2 2.2208 5.11544 9.26432 7.85257
252 1 -1.1104 0.861092 10.5315 9.42648
257 2 2.2208 2.32208 12.0186 7.96497
259 2 2.2208 2.38229 9.33054 10.7096
261 1 -1.1104 3.79053 10.7403 12.0627
263 1 -1.1104 3.67381 10.7198 9.24091
249 1 -1.1104 6.50218 10.6234 12.1202
254 1 -1.1104 6.53286 10.598 9.32497
297 1 -1.1104 6.51778 13.3506 12.0059
305 1 -1.1104 3.76374 13.4776 9.37292
299 1 -1.1104 0.873663 13.177 12.2029
294 1 -1.1104 0.858177 13.3365 9.41836
287 1 -1.1104 3.65329 13.7411 12.2948
290 1 -1.1104 6.52899 13.3253 9.16594
29 2 2.2208 5.14599 -4.82399 5.35641
101 1 -1.1104 9.29405 10.4855 6.59349
330 1 -1.1104 12.2836 13.1839 11.8585
319 1 -1.1104 9.34736 13.3185 9.0577
314 1 -1.1104 9.32714 16.2416 9.31716
264 1 -1.1104 9.28447 10.6373 9.35486
270 1 -1.1104 9.28577 10.5836 12.3027
272 2 2.2208 7.87938 9.23284 10.7919
274 2 2.2208 8.00938 11.9289 7.92321
277 2 2.2208 10.875 11.9964 10.6249
281 1 -1.1104 11.9872 10.3744 11.9658
282 2 2.2208 10.79 9.14221 7.93703
284 1 -1.1104 12.1272 10.5597 9.22841
315 1 -1.1104 9.2982 16.2967 12.1094
328 1 -1.1104 11.9904 13.5102 9.22544
322 1 -1.1104 9.42334 13.5916 11.8999
81 2 2.2208 -0.370324 6.32131 5.29049
325 2 2.2208 10.6994 14.807 7.93998
232 2 2.2208 10.6569 -4.76768 10.9336
327 1 -1.1104 12.1004 18.8629 9.25505
302 1 -1.1104 1.08568 19.2247 6.42538
104 2 2.2208 13.5362 12.1266 2.22377
341 2 2.2208 13.5333 9.19606 10.68
309 2 2.2208 2.28654 20.3235 10.7551
308 1 -1.1104 3.73555 16.3815 12.0858
307 1 -1.1104 0.809998 16.2115 12.1806
304 1 -1.1104 3.69031 16.2319 9.1735
303 2 2.2208 2.35136 17.6252 7.91187
301 1 -1.1104 3.61929 19.0053 9.31223
300 2 2.2208 5.23892 17.627 10.8025
298 1 -1.1104 0.922347 18.9123 12.0441
295 2 2.2208 5.16325 14.9145 7.80249
310 2 2.2208 2.37796 14.888 10.7226
293 2 2.2208 5.26936 20.3798 7.96936
292 1 -1.1104 0.871371 16.0584 9.35762
291 1 -1.1104 0.715213 18.8764 9.16482
286 1 -1.1104 3.73357 18.9735 12.1153
371 2 2.2208 5.26369 14.8048 13.4742
296 1 -1.1104 6.58922 19.1831 12.0062
288 1 -1.1104 6.4907 18.8482 9.26885
289 1 -1.1104 6.61367 16.1037 9.25429
324 2 2.2208 10.7228 20.4599 7.60299
329 1 -1.1104 12.2262 18.8103 11.9524
333 2 2.2208 13.6226 14.7744 10.7183
359 2 2.2208 2.36323 6.51985 13.5395
118 1 -1.1104 6.56364 16.2335 6.53885
156 1 -1.1104 9.20749 19.1721 6.2841
316 2 2.2208 8.04359 20.4795 10.7394
334 2 2.2208 13.541 3.63475 4.96783
149 1 -1.1104 12.1151 16.2485 6.44445
202 2 2.2208 2.25834 -4.85083 7.918
332 2 2.2208 13.5507 17.5466 7.87023
336 2 2.2208 13.6018 20.4381 4.90254
229 2 2.2208 13.4167 0.926954 7.96006
360 2 2.2208 5.03133 9.259 13.4845
400 2 2.2208 10.6815 11.9638 -0.407659
385 2 2.2208 5.18624 -4.75301 -0.281797
368 2 2.2208 2.38033 17.6277 13.4135
406 2 2.2208 4.9944 0.550008 16.3341
407 1 -1.1104 0.661816 -3.19002 17.6656
411 1 -1.1104 0.977694 -3.4022 15.0304
419 1 -1.1104 0.791517 -0.732815 17.957
421 2 2.2208 5.10106 -1.99032 19.1569
423 1 -1.1104 0.863909 -0.676726 15.0682
427 1 -1.1104 3.58567 -3.29779 17.7845
429 2 2.2208 2.20207 0.889014 19.2091
430 1 -1.1104 3.74196 -3.64841 14.8029
434 2 2.2208 2.33256 -2.13678 16.3226
436 1 -1.1104 3.58641 -0.609426 17.7357
437 1 -1.1104 3.81567 -0.856533 14.9857
415 1 -1.1104 6.41723 -3.48946 15.003
409 1 -1.1104 6.40096 -3.47505 17.857
424 1 -1.1104 0.812431 -0.743883 20.6328
425 1 -1.1104 6.59268 -0.572467 15.0673
420 1 -1.1104 6.39942 -0.936304 17.8034
412 1 -1.1104 0.859268 -3.6005 20.72
438 1 -1.1104 3.76257 -0.705299 20.5445
431 1 -1.1104 3.77378 -3.41564 20.5065
416 1 -1.1104 6.57808 -3.38268 20.6497
426 1 -1.1104 6.37107 -0.457319 20.5435
477 2 2.2208 13.6104 -2.04994 16.4329
449 2 2.2208 10.6746 0.811359 16.4413
450 1 -1.1104 12.0121 -3.41516 17.7852
452 1 -1.1104 12.108 -3.42657 14.8486
456 1 -1.1104 11.9967 -0.693773 17.8433
457 2 2.2208 10.7981 -1.98237 19.1407
459 1 -1.1104 12.0754 -0.473733 15.1858
461 1 -1.1104 9.25653 -3.31251 17.8816
463 2 2.2208 7.75113 0.824203 19.1158
464 1 -1.1104 9.33067 -3.43041 14.9786
468 2 2.2208 8.02698 -1.93726 16.3768
470 1 -1.1104 9.36189 -0.678633 17.7779
471 1 -1.1104 9.36728 -0.586309 14.8639
460 1 -1.1104 12.1378 -0.744637 20.6488
393 2 2.2208 5.11903 6.52657 27.6387
472 1 -1.1104 9.27713 -0.631414 20.6047
402 2 2.2208 13.5671 9.30075 27.6412
478 2 2.2208 13.606 20.6163 16.2159
465 1 -1.1104 9.31523 -3.32616 20.5174
408 1 -1.1104 0.870756 2.10772 17.7504
413 1 -1.1104 0.736092 2.19315 14.8371
422 2 2.2208 4.9859 3.74261 19.0352
428 1 -1.1104 3.5896 2.28953 17.7747
432 1 -1.1104 3.46494 2.11939 14.9738
435 2 2.2208 2.25075 3.57282 16.3289
410 1 -1.1104 6.47785 2.16593 17.4148
417 1 -1.1104 6.40678 2.13914 14.8911
482 2 2.2208 5.15922 6.50791 16.2197
484 1 -1.1104 0.880789 7.77875 17.8945
486 1 -1.1104 0.864075 7.86478 14.9023
490 1 -1.1104 0.666449 4.85917 17.6452
495 1 -1.1104 0.942149 5.07502 14.9992
503 1 -1.1104 3.726 7.86098 17.652
504 2 2.2208 2.41093 6.53778 19.0392
506 1 -1.1104 3.74582 7.94719 14.9096
509 1 -1.1104 3.54152 5.1298 17.8211
511 1 -1.1104 3.69536 5.1619 15.0644
496 1 -1.1104 1.07631 4.92005 20.4492
487 1 -1.1104 0.913344 7.66849 20.5279
489 1 -1.1104 6.44108 7.95093 20.5487
488 1 -1.1104 6.59539 7.89466 14.7951
512 1 -1.1104 3.66127 5.09385 20.6206
500 1 -1.1104 6.52632 5.12428 20.535
405 2 2.2208 2.3012 20.5295 27.5488
485 1 -1.1104 6.46087 7.89196 17.7213
414 1 -1.1104 0.75205 2.10735 20.5874
398 2 2.2208 10.7268 6.39553 27.7199
451 1 -1.1104 12.106 2.27419 17.8886
454 1 -1.1104 11.9772 2.42989 15.1656
458 2 2.2208 10.5798 3.5541 19.165
462 1 -1.1104 9.32564 2.19864 17.8019
466 1 -1.1104 9.21068 2.15525 15.0135
469 2 2.2208 7.96402 3.61101 16.3525
440 2 2.2208 5.10522 -4.66214 16.4874
467 1 -1.1104 9.34701 2.18387 20.5978
499 1 -1.1104 6.45903 5.00782 15.0299
492 1 -1.1104 6.49942 5.11708 17.8282
518 2 2.2208 10.5541 6.3813 16.3995
520 1 -1.1104 12.2029 7.89826 17.6818
521 1 -1.1104 12.0095 7.79943 14.9152
523 1 -1.1104 12.0666 5.14886 17.8552
526 1 -1.1104 11.9761 5.03236 15.1081
530 1 -1.1104 9.20083 7.80286 17.8206
531 2 2.2208 7.90147 6.40172 19.1008
533 1 -1.1104 9.22 7.89044 15.0553
536 1 -1.1104 9.29168 4.86044 17.8041
538 1 -1.1104 9.29678 5.08379 14.9623
418 1 -1.1104 6.39139 2.39965 20.5306
483 2 2.2208 5.09895 11.9632 16.347
491 1 -1.1104 0.776835 10.4278 17.814
494 2 2.2208 4.98145 9.29634 19.2382
497 1 -1.1104 0.95182 10.6561 14.9951
505 2 2.2208 2.18448 12.0281 19.2693
508 2 2.2208 2.21731 9.29957 16.3915
510 1 -1.1104 3.79379 10.7349 17.6842
513 1 -1.1104 3.59372 10.8034 15.0188
501 1 -1.1104 6.36047 10.6644 14.8679
546 1 -1.1104 0.905367 13.3311 17.8669
550 1 -1.1104 0.932928 13.3537 14.948
566 1 -1.1104 3.75195 13.529 17.7599
569 1 -1.1104 3.81807 13.4865 14.9514
548 1 -1.1104 6.52967 13.4844 17.6882
502 1 -1.1104 6.36071 10.6089 20.5006
570 1 -1.1104 3.76437 13.3551 20.5978
555 1 -1.1104 6.48107 13.4506 20.566
441 2 2.2208 2.26774 -4.87968 19.2619
475 2 2.2208 7.98356 -4.75312 19.0843
391 2 2.2208 13.5772 -1.91937 27.6865
493 1 -1.1104 6.69061 10.8452 17.6766
519 2 2.2208 10.8441 12.1147 16.2619
524 1 -1.1104 12.1793 10.8864 17.7293
525 2 2.2208 10.5899 9.09809 19.1216
528 1 -1.1104 12.1347 10.6664 14.8714
532 2 2.2208 7.90359 12.093 19.1521
535 2 2.2208 7.90497 9.25755 16.4152
537 1 -1.1104 9.31684 10.5851 17.7469
540 1 -1.1104 9.28976 10.6593 14.9708
585 1 -1.1104 12.0354 13.7876 20.6556
554 1 -1.1104 6.73011 13.6569 14.9852
582 1 -1.1104 12.1555 13.5976 17.8734
584 1 -1.1104 12.2842 13.4134 14.9995
593 1 -1.1104 9.33832 13.5103 17.8464
596 1 -1.1104 9.37343 13.4592 14.8698
597 1 -1.1104 9.17029 13.5571 20.5141
480 2 2.2208 13.5224 14.9716 16.2623
541 1 -1.1104 9.27065 10.6348 20.5402
529 1 -1.1104 12.2688 10.675 20.7236
545 2 2.2208 5.25961 17.7521 16.4646
547 1 -1.1104 1.01655 19.2115 17.8387
552 1 -1.1104 1.07418 18.8075 14.9535
558 1 -1.1104 1.04009 16.2364 17.7356
560 2 2.2208 5.22055 14.8906 19.1746
561 2 2.2208 5.30924 20.5695 19.044
562 1 -1.1104 0.944541 16.1305 14.9786
567 1 -1.1104 3.8207 19.189 17.643
568 2 2.2208 2.30723 17.7096 19.1064
571 1 -1.1104 3.75464 19.3124 14.9249
573 2 2.2208 2.47183 14.8835 16.3431
574 2 2.2208 2.35564 20.5151 16.4427
575 1 -1.1104 3.8069 16.4752 17.7244
576 1 -1.1104 3.81483 16.3358 14.8053
556 1 -1.1104 6.63995 19.1811 14.938
564 1 -1.1104 6.64632 16.5502 14.817
606 2 2.2208 13.6501 20.5379 21.7191
553 1 -1.1104 0.779947 19.2046 20.5384
577 1 -1.1104 3.76456 16.2183 20.6198
579 2 2.2208 13.5147 3.70067 16.4676
542 2 2.2208 13.5493 6.28433 19.2103
404 2 2.2208 5.11605 17.5659 27.4963
559 1 -1.1104 6.6195 16.3533 17.7041
549 1 -1.1104 6.73324 19.3138 17.9075
581 2 2.2208 10.8586 17.7377 16.2475
583 1 -1.1104 12.2863 19.1979 17.5494
586 1 -1.1104 12.1393 19.0759 14.7205
588 1 -1.1104 12.1234 16.3395 17.6291
589 2 2.2208 10.8721 14.9736 18.9579
590 2 2.2208 10.7994 20.5534 18.9719
591 1 -1.1104 12.1455 16.1804 14.7883
594 1 -1.1104 9.45519 19.2637 17.6751
595 2 2.2208 8.09287 17.7308 19.105
598 1 -1.1104 9.37657 19.0575 14.7832
600 2 2.2208 7.99173 14.8737 16.4243
601 2 2.2208 7.92528 20.5 16.4014
602 1 -1.1104 9.34766 16.4461 17.5839
603 1 -1.1104 9.55021 16.2262 14.8836
604 1 -1.1104 9.30366 16.2996 20.516
587 1 -1.1104 12.2766 19.1717 20.3713
377 2 2.2208 7.91281 14.8562 27.6779
636 1 -1.1104 12.3072 16.3425 23.3373
387 2 2.2208 10.7195 0.801743 27.636
732 1 -1.1104 6.50738 16.2689 26.1426
363 2 2.2208 7.9072 6.38009 13.592
667 2 2.2208 8.19658 17.6933 24.6598
592 1 -1.1104 12.1767 16.4776 20.3603
609 2 2.2208 5.07469 0.861169 22.0195
610 1 -1.1104 1.00709 -3.49904 23.4135
614 1 -1.1104 0.891916 -3.54202 26.3885
618 1 -1.1104 1.14022 -0.746047 23.4824
620 2 2.2208 5.21036 -1.99587 24.8482
622 1 -1.1104 1.13222 -0.581044 26.2219
624 1 -1.1104 3.83592 -3.55411 23.3768
626 2 2.2208 2.46285 0.80736 24.8244
627 1 -1.1104 3.82977 -3.36232 26.1898
629 2 2.2208 2.20443 -2.0432 21.9714
631 1 -1.1104 4.03953 -0.56421 23.6394
632 1 -1.1104 3.78239 -0.719127 26.2458
619 1 -1.1104 6.64227 -0.524715 23.2596
612 1 -1.1104 6.55852 -3.36927 23.5156
607 2 2.2208 10.9137 17.6953 21.8385
665 1 -1.1104 9.50444 19.0883 23.4155
453 1 -1.1104 12.2258 -3.50649 20.6732
728 2 2.2208 13.5623 6.50468 24.7757
616 1 -1.1104 6.49333 -3.51155 26.3396
623 1 -1.1104 6.48407 -0.624976 26.2253
645 2 2.2208 10.7886 0.844021 21.8916
646 1 -1.1104 12.1 -3.31031 23.6324
648 1 -1.1104 11.9854 -3.33554 26.3825
650 1 -1.1104 12.3869 -0.592332 23.3727
651 2 2.2208 10.7583 -1.93784 24.8641
653 1 -1.1104 12.0787 -0.674604 26.2256
654 1 -1.1104 9.21256 -3.14807 23.491
656 2 2.2208 8.03106 0.801476 24.8018
657 1 -1.1104 9.29906 -3.41924 26.4037
659 2 2.2208 7.86984 -1.9634 21.9935
661 1 -1.1104 9.47321 -0.500463 23.4237
662 1 -1.1104 9.28467 -0.454836 26.2736
379 2 2.2208 7.834 20.5676 27.4997
671 2 2.2208 13.5646 -2.00099 22.1526
640 2 2.2208 2.49648 -4.78481 24.8344
446 2 2.2208 13.5956 3.68 22.0698
507 1 -1.1104 3.71814 7.80824 20.513
704 1 -1.1104 9.37129 16.2995 26.2788
433 1 -1.1104 3.67089 2.19313 20.5371
611 1 -1.1104 0.750562 2.10432 23.3021
615 1 -1.1104 0.864489 2.36458 26.2115
621 2 2.2208 5.02875 3.53799 24.8831
625 1 -1.1104 3.76149 2.22542 23.254
628 1 -1.1104 3.70349 2.17653 26.3483
630 2 2.2208 2.34663 3.65826 21.9155
617 1 -1.1104 6.58675 2.31072 26.247
674 2 2.2208 5.06717 6.46486 21.8815
676 1 -1.1104 0.863121 7.77353 23.4176
678 1 -1.1104 0.941445 7.63391 26.2219
680 1 -1.1104 1.00231 4.77518 23.2327
685 1 -1.1104 0.96057 5.02579 26.1047
689 1 -1.1104 3.77609 7.65928 23.266
690 2 2.2208 2.42173 6.22384 24.8783
692 1 -1.1104 3.62155 7.87407 26.1241
694 1 -1.1104 3.70188 4.92298 23.5285
696 1 -1.1104 3.78188 5.08161 26.3129
682 1 -1.1104 6.60148 4.91174 23.3695
679 1 -1.1104 6.55043 7.85643 26.2676
687 1 -1.1104 6.4808 5.21551 26.1912
381 2 2.2208 5.18068 0.923744 27.65
638 2 2.2208 10.9661 14.932 24.8794
633 1 -1.1104 12.1481 19.1508 23.0375
455 1 -1.1104 12.0312 2.27031 20.6077
527 1 -1.1104 12.1951 5.13741 20.6806
534 1 -1.1104 9.2052 7.76082 20.4498
389 2 2.2208 7.98824 3.59398 27.5777
613 1 -1.1104 6.62045 2.28339 23.3503
399 2 2.2208 7.84607 9.33606 27.6298
647 1 -1.1104 12.2049 2.22195 23.3232
649 1 -1.1104 12.1433 2.20138 26.2292
652 2 2.2208 10.7658 3.52564 24.7881
655 1 -1.1104 9.42653 2.17591 23.4804
658 1 -1.1104 9.39809 2.27939 26.3243
660 2 2.2208 7.91008 3.78116 22.0434
677 1 -1.1104 6.68255 7.87361 23.2821
539 1 -1.1104 9.44914 5.03494 20.6276
522 1 -1.1104 12.0156 7.80134 20.4838
706 1 -1.1104 9.12221 5.05746 26.108
708 1 -1.1104 9.502 4.98773 23.364
710 1 -1.1104 9.46724 7.89575 25.9486
712 2 2.2208 7.93443 6.58076 24.7203
713 2 2.2208 10.7269 6.40899 22.0153
715 1 -1.1104 12.1666 7.96855 23.4667
716 1 -1.1104 12.2465 7.92285 26.374
717 1 -1.1104 12.173 5.1613 23.4355
720 1 -1.1104 12.0849 5.03591 26.2736
722 1 -1.1104 9.43212 7.77444 23.2699
668 2 2.2208 10.7503 -4.70201 22.1065
580 2 2.2208 13.6449 14.7516 22.0187
498 1 -1.1104 0.820506 10.6455 20.6602
395 2 2.2208 5.03679 12.0812 27.6863
382 2 2.2208 2.36156 -1.98712 27.7575
514 1 -1.1104 3.62536 10.47 20.4996
675 2 2.2208 5.16009 12.0194 21.8795
681 1 -1.1104 0.909823 10.5973 23.5544
684 2 2.2208 5.01634 9.05805 24.764
686 1 -1.1104 0.6869 10.6179 26.2311
691 2 2.2208 2.37482 12.0605 25.1004
693 2 2.2208 2.27326 9.07925 21.9611
695 1 -1.1104 3.66235 10.5448 23.2809
697 1 -1.1104 3.64651 10.6131 26.2751
683 1 -1.1104 6.50655 10.5741 23.4063
551 1 -1.1104 0.912971 13.5539 20.5708
746 1 -1.1104 3.9055 13.5314 26.1972
731 1 -1.1104 3.84456 13.35 23.4563
735 1 -1.1104 1.01273 13.4868 26.1678
741 1 -1.1104 1.1111 13.5729 23.5132
698 1 -1.1104 9.38903 19.1312 26.1482
669 2 2.2208 7.90612 -4.73415 24.9236
739 1 -1.1104 6.53716 13.5317 23.5037
634 1 -1.1104 12.4123 13.4878 26.3594
664 1 -1.1104 9.48705 13.4705 23.4294
605 2 2.2208 13.7143 17.8128 24.6131
608 1 -1.1104 12.2735 13.4723 23.4247
688 1 -1.1104 6.37264 10.6579 26.2802
673 1 -1.1104 9.3678 13.278 26.2469
705 1 -1.1104 9.08301 10.623 26.2776
707 1 -1.1104 9.35948 10.6124 23.26
709 2 2.2208 7.98635 9.29043 21.977
711 2 2.2208 7.87117 11.8456 24.818
714 2 2.2208 10.7478 12.1144 22.1371
718 1 -1.1104 12.2873 10.8221 23.3979
719 2 2.2208 10.7992 9.3499 24.8176
721 1 -1.1104 11.9091 10.7303 26.2674
730 1 -1.1104 6.60974 13.3953 26.3257
700 2 2.2208 7.97483 20.5018 21.7675
736 1 -1.1104 6.68635 19.088 23.1347
565 1 -1.1104 6.60406 16.3241 20.4398
747 1 -1.1104 6.63687 16.2853 23.4463
557 1 -1.1104 6.58526 19.156 20.4767
572 1 -1.1104 3.69079 19.011 20.6021
563 1 -1.1104 0.748819 16.2859 20.4965
748 1 -1.1104 0.936285 16.3132 23.2203
745 1 -1.1104 3.85248 16.3635 25.9825
744 2 2.2208 2.33995 17.7284 24.6467
750 2 2.2208 2.37007 20.5317 21.9305
749 1 -1.1104 3.72239 16.2326 23.1714
727 2 2.2208 2.23423 14.9316 22.0628
729 1 -1.1104 3.69569 19.2475 23.4183
733 1 -1.1104 0.960567 19.1497 26.0199
734 1 -1.1104 0.758045 16.4663 25.9919
737 2 2.2208 5.10757 20.4611 24.7207
738 2 2.2208 5.19496 14.8523 24.7274
740 1 -1.1104 1.01246 18.9937 23.3095
742 2 2.2208 5.19205 17.8886 21.8838
743 1 -1.1104 3.81139 19.0723 26.2196
383 2 2.2208 2.28103 3.63089 27.7587
445 2 2.2208 13.604 9.17524 21.9298
378 2 2.2208 10.8116 17.6537 27.6026
635 1 -1.1104 12.3673 19.1509 25.9832
641 2 2.2208 10.7209 20.5854 24.9275
701 1 -1.1104 9.61131 16.3084 23.4384
699 2 2.2208 8.01824 15.0519 22.0231
599 1 -1.1104 9.31314 19.0832 20.5847
670 1 -1.1104 6.61841 19.1098 25.9435
663 1 -1.1104 12.3093 16.3257 26.1761
543 2 2.2208 13.6039 9.36434 16.4094
388 2 2.2208 7.85045 -1.91031 27.7037
578 2 2.2208 13.4495 0.72273 19.3639
517 2 2.2208 13.5675 12.0854 19.2928
473 2 2.2208 13.4444 -4.7923 19.1098
375 2 2.2208 13.517 20.6038 27.5625
403 2 2.2208 2.32922 15.0486 27.4221
355 2 2.2208 7.84298 0.682367 13.6204
364 2 2.2208 10.5388 9.19784 13.5896
666 2 2.2208 13.627 -4.78585 24.9049
444 2 2.2208 -0.390853 6.35099 21.8235
356 2 2.2208 10.6741 -2.0663 13.7249
392 2 2.2208 13.5761 3.72237 27.606
394 2 2.2208 2.30705 9.30039 27.5503
366 2 2.2208 13.5633 6.39352 13.6853
370 2 2.2208 13.233 0.847933 13.8029
751 2 2.2208 5.09239 23.3075 5.06601
753 1 -1.1104 0.942659 24.7117 0.951836
754 1 -1.1104 0.870184 24.7731 3.67833
755 1 -1.1104 0.884139 21.8857 0.701321
756 1 -1.1104 0.963007 27.5354 0.831621
757 2 2.2208 4.95486 26.1908 2.15715
758 1 -1.1104 0.811915 22.0532 3.7216
759 1 -1.1104 1.01347 27.4284 3.7257
760 1 -1.1104 3.66913 24.9749 0.732455
761 2 2.2208 2.17915 23.3431 2.27634
763 1 -1.1104 3.59341 24.6926 3.67621
764 2 2.2208 2.3486 26.1615 5.15587
765 1 -1.1104 3.47902 22.0944 0.664305
766 1 -1.1104 3.68432 27.8972 0.875645
767 1 -1.1104 3.67771 21.8041 3.50538
768 1 -1.1104 3.6538 27.5665 3.70002
774 1 -1.1104 6.29184 21.8078 0.593044
772 1 -1.1104 6.53873 24.6187 0.725013
896 1 -1.1104 6.42221 21.8876 6.57602
775 1 -1.1104 6.37339 27.3539 0.826191
776 1 -1.1104 6.54562 21.7397 3.49204
777 1 -1.1104 6.30703 27.5256 3.76004
893 1 -1.1104 6.54003 24.7361 6.27579
894 1 -1.1104 0.840528 22.0366 6.52548
773 1 -1.1104 6.37367 24.5722 3.50292
1078 2 2.2208 13.6237 31.7683 10.7009
897 1 -1.1104 6.71593 27.4927 6.43951
778 2 2.2208 10.8553 23.3173 4.9318
780 1 -1.1104 12.141 24.6967 0.973159
781 1 -1.1104 12.1308 24.788 3.6499
782 1 -1.1104 12.253 21.981 0.785518
783 1 -1.1104 12.2361 27.483 0.774926
784 2 2.2208 10.6614 26.0372 2.1673
785 1 -1.1104 12.1513 21.8932 3.56336
786 1 -1.1104 11.9196 27.4773 3.52935
787 1 -1.1104 9.34253 24.612 0.779584
788 2 2.2208 7.75701 23.1884 2.17588
790 1 -1.1104 9.41652 24.5784 3.76417
791 2 2.2208 8.06945 26.1657 5.061
792 1 -1.1104 9.31269 21.8701 0.651193
793 1 -1.1104 9.05691 27.4826 0.797934
794 1 -1.1104 9.2802 21.7684 3.51003
795 1 -1.1104 9.21248 27.2678 3.55449
925 1 -1.1104 12.2634 24.6694 6.41281
927 1 -1.1104 12.292 27.5805 6.4778
930 1 -1.1104 9.5812 27.4272 6.28989
926 1 -1.1104 12.2828 21.7721 6.30508
928 1 -1.1104 9.45274 24.6988 6.47412
891 2 2.2208 13.6787 40.1415 2.40296
1105 2 2.2208 2.44931 40.1944 13.5002
1089 2 2.2208 2.17877 23.2273 13.5571
752 2 2.2208 5.05013 29.0716 5.04515
762 2 2.2208 2.30056 29.0216 2.40928
800 1 -1.1104 0.850026 30.2869 0.922619
803 1 -1.1104 0.808003 30.3736 3.64242
806 1 -1.1104 0.744215 32.9579 0.924926
807 2 2.2208 5.07824 31.7828 2.3301
809 1 -1.1104 0.711995 33.1671 3.71508
811 1 -1.1104 3.9193 30.3638 0.913589
814 1 -1.1104 3.6616 30.4695 3.75462
816 2 2.2208 2.09703 31.7572 5.14087
818 1 -1.1104 3.61042 33.2807 0.842935
819 1 -1.1104 3.49522 33.1549 3.83379
825 1 -1.1104 6.46141 33.2357 1.00956
824 1 -1.1104 6.42424 30.369 3.66659
954 1 -1.1104 6.62924 33.2581 6.60713
1067 2 2.2208 13.5666 37.1715 5.23276
1102 2 2.2208 7.74067 34.5212 13.5637
955 1 -1.1104 3.60036 30.2425 6.45673
779 2 2.2208 10.8671 28.8846 4.99547
789 2 2.2208 7.92922 28.9031 2.3105
1474 2 2.2208 10.7364 31.7036 13.4226
810 1 -1.1104 6.30604 33.0135 3.72893
823 1 -1.1104 6.69409 30.3266 0.612894
827 1 -1.1104 12.3432 30.3781 0.808629
829 1 -1.1104 12.077 30.3832 3.6079
831 1 -1.1104 12.2013 32.9143 0.61411
832 2 2.2208 10.8783 31.7413 2.21593
834 1 -1.1104 12.2249 33.0763 3.64488
835 1 -1.1104 9.41132 30.3705 0.993964
838 1 -1.1104 9.19169 30.2178 3.76296
840 2 2.2208 7.94521 31.6723 5.0914
842 1 -1.1104 9.44898 33.1569 0.766184
843 1 -1.1104 9.31868 32.9014 3.60692
10305 2 2.2208 13.5718 42.7848 5.07485
799 2 2.2208 5.02285 34.4593 5.09011
801 1 -1.1104 0.860508 35.8693 0.907294
804 1 -1.1104 0.780457 35.9169 3.60833
808 2 2.2208 5.18429 37.3792 2.19158
812 1 -1.1104 3.63696 36.1382 0.741641
813 2 2.2208 2.1583 34.5645 2.28742
815 1 -1.1104 3.68629 35.8408 3.65035
817 2 2.2208 2.27465 37.3202 5.14282
802 1 -1.1104 6.54924 35.739 0.7369
845 2 2.2208 5.06089 40.029 5.14345
851 1 -1.1104 0.870526 38.8357 0.835361
856 1 -1.1104 0.910153 38.7038 3.69058
861 2 2.2208 2.37229 40.2429 2.31035
865 1 -1.1104 3.80054 38.8993 0.75964
867 1 -1.1104 3.68488 38.5532 3.78064
1094 2 2.2208 5.22813 31.7288 13.5978
956 1 -1.1104 3.66697 35.9832 6.47809
1029 1 -1.1104 3.6346 38.8245 6.57542