ITEM: TIMESTEP
90000
ITEM: NUMBER OF ATOMS
17732
ITEM: BOX BOUNDS pp pp pp
-4.0543675075012453e-01 2.7745436750751601e+01
-4.9373455878473029e+00 3.3301734558784631e+02
-4.0911904801623800e-01 2.7749119048016414e+01
ITEM: ATOMS id type q x y z
1 2 2.2208 5.33064 0.832183 4.92213
2 1 -1.1104 1.08955 -3.64638 0.939919
6 1 -1.1104 0.906282 -3.46329 3.52365
10 1 -1.1104 1.10415 -0.670647 0.962
12 2 2.2208 5.36254 -2.0634 2.42936
14 1 -1.1104 0.923749 -0.655639 3.83185
16 1 -1.1104 3.72653 -3.46247 1.10427
18 2 2.2208 2.44964 0.828171 2.34578
19 1 -1.1104 3.83244 -3.54985 3.78021
21 2 2.2208 2.31303 -1.9491 5.01337
23 1 -1.1104 4.11344 -0.786875 0.632846
24 1 -1.1104 3.81799 -0.646898 3.5669
170 1 -1.1104 0.985689 -0.621841 6.6907
166 1 -1.1104 0.915029 -3.21437 6.29692
174 1 -1.1104 3.83893 -0.75374 6.57882
3 1 -1.1104 1.11265 2.18545 0.983606
7 1 -1.1104 1.04794 2.03465 3.96263
17 1 -1.1104 3.95055 2.01827 0.77055
20 1 -1.1104 3.81182 2.32546 3.43405
22 2 2.2208 2.44719 3.5456 5.08571
13 2 2.2208 5.41259 3.54155 2.18765
203 2 2.2208 5.21383 -4.97539 10.8089
360 2 2.2208 5.2811 9.11871 13.6605
201 2 2.2208 -0.433182 0.764213 10.7879
172 1 -1.1104 3.60921 -3.44653 6.37569
204 2 2.2208 -0.235812 -4.98944 10.6534
8 1 -1.1104 6.58171 -3.52565 3.52271
15 1 -1.1104 6.73644 -0.786391 3.84895
11 1 -1.1104 6.82698 -0.717581 1.16837
4 1 -1.1104 6.76053 -3.43895 0.971539
31 2 2.2208 11.0136 0.869055 5.19131
32 1 -1.1104 12.4124 -3.6648 1.00567
34 1 -1.1104 12.3363 -3.5982 3.9174
36 1 -1.1104 12.5078 -0.737479 0.929923
37 2 2.2208 11.0342 -2.2038 2.34788
39 1 -1.1104 12.3475 -0.851882 3.76981
40 1 -1.1104 9.63032 -3.52928 0.813963
42 2 2.2208 8.15939 0.654295 2.46956
43 1 -1.1104 9.51585 -3.45765 3.75599
45 2 2.2208 8.16886 -2.13954 5.25809
47 1 -1.1104 9.6606 -0.864004 1.03208
48 1 -1.1104 9.6608 -0.682967 3.71581
208 1 -1.1104 9.33837 -3.45478 6.70587
5 1 -1.1104 6.79354 2.0764 0.925438
9 1 -1.1104 6.7609 2.22587 3.5696
33 1 -1.1104 12.382 2.21269 0.80361
35 1 -1.1104 12.2407 2.29165 3.68962
41 1 -1.1104 9.70845 2.11968 0.914255
44 1 -1.1104 9.50552 2.10055 3.76167
46 2 2.2208 8.22157 3.47337 5.21422
38 2 2.2208 11.0594 3.68315 2.25175
169 1 -1.1104 6.68323 2.21194 6.59726
207 1 -1.1104 12.421 -0.609351 6.5269
210 1 -1.1104 9.71801 -0.83081 6.42853
205 1 -1.1104 12.2447 -3.42769 6.65599
209 1 -1.1104 9.44865 1.98118 6.59168
25 2 2.2208 -0.49896 -2.04415 2.32358
27 2 2.2208 -0.308458 3.47266 2.40075
81 2 2.2208 -0.412897 6.42359 5.2287
54 2 2.2208 5.4686 6.38745 5.12726
56 1 -1.1104 1.18249 7.85929 0.909813
58 1 -1.1104 0.779191 7.60262 3.8046
60 1 -1.1104 1.0523 4.94209 1.08537
67 1 -1.1104 1.16039 4.85466 3.71611
71 1 -1.1104 3.92552 7.84867 0.93017
72 2 2.2208 2.43765 6.3315 2.34122
74 1 -1.1104 3.74021 7.71844 3.61806
76 1 -1.1104 3.964 5.04148 0.963758
79 1 -1.1104 3.98015 4.92998 3.84711
236 1 -1.1104 1.03977 5.15104 6.5704
55 2 2.2208 5.37 12.0014 5.2781
61 1 -1.1104 1.22775 10.6686 0.959265
66 2 2.2208 5.27531 9.11566 2.41683
68 1 -1.1104 1.28246 10.3116 3.74426
73 2 2.2208 2.51601 11.9677 2.3223
75 2 2.2208 2.44903 9.01782 5.21957
77 1 -1.1104 3.87989 10.7436 0.830456
80 1 -1.1104 4.04509 10.5949 3.7053
327 1 -1.1104 12.5047 18.8496 9.22993
83 2 2.2208 -0.302919 11.9877 4.9975
239 1 -1.1104 3.92793 4.84106 6.65656
234 1 -1.1104 1.23491 7.8128 6.62506
238 1 -1.1104 4.04729 7.77653 6.48176
397 2 2.2208 -0.285321 6.53374 -0.599582
69 1 -1.1104 6.78845 5.03587 3.82361
59 1 -1.1104 6.72924 7.80393 3.67941
57 1 -1.1104 6.73357 7.52175 0.864529
63 1 -1.1104 6.91412 4.76734 1.04214
84 2 2.2208 11.12 6.37051 5.12544
86 1 -1.1104 12.325 8.03555 1.06671
87 1 -1.1104 12.5385 7.71173 3.84532
88 1 -1.1104 12.4948 4.94113 0.792113
92 1 -1.1104 12.4458 5.1508 3.662
94 1 -1.1104 9.58892 7.56987 1.01939
95 2 2.2208 8.31236 6.29009 2.37065
97 1 -1.1104 9.68485 7.79976 3.7381
99 1 -1.1104 9.74226 5.06804 0.84142
102 1 -1.1104 9.7344 4.90112 3.72054
235 1 -1.1104 6.86485 7.83668 6.71278
237 1 -1.1104 6.62243 4.88514 6.545
70 1 -1.1104 6.79911 10.4234 3.69102
64 1 -1.1104 6.74832 10.4342 0.744512
85 2 2.2208 11.0681 12.1757 5.19889
89 1 -1.1104 12.3445 10.6155 0.90564
91 2 2.2208 10.9925 9.39473 2.40495
93 1 -1.1104 12.3916 10.6658 3.629
96 2 2.2208 8.05942 11.8841 2.51506
98 2 2.2208 8.20914 9.19834 5.16998
100 1 -1.1104 9.56586 10.4974 0.987696
103 1 -1.1104 9.55899 10.7419 3.72011
65 1 -1.1104 6.75094 10.5103 6.53697
267 1 -1.1104 9.5933 7.59725 6.44716
265 1 -1.1104 12.287 7.75136 6.61123
90 1 -1.1104 12.4483 10.6485 6.53695
349 2 2.2208 2.49185 0.70493 13.5734
107 1 -1.1104 1.19856 13.4831 0.971925
113 1 -1.1104 0.978644 13.2625 3.55171
123 1 -1.1104 3.91335 13.4922 0.700084
128 1 -1.1104 3.86119 13.3491 3.69788
136 2 2.2208 -0.465922 20.4967 2.34334
130 2 2.2208 2.41699 14.7874 5.18928
106 2 2.2208 5.1763 17.5625 5.31384
109 1 -1.1104 0.990859 19.0805 1.00416
114 1 -1.1104 0.954475 19.1203 3.70396
116 1 -1.1104 1.02314 16.3102 0.823754
119 2 2.2208 5.26689 14.7674 2.45631
120 2 2.2208 5.25758 20.4564 2.49058
121 1 -1.1104 1.09283 16.4433 3.81025
125 1 -1.1104 3.81812 19.0109 1.08016
127 2 2.2208 2.4055 17.5208 2.35051
129 1 -1.1104 3.81365 18.9229 3.89666
131 2 2.2208 2.4745 20.4464 5.27903
132 1 -1.1104 3.86631 16.13 1.20273
134 1 -1.1104 3.80398 16.1039 4.00798
137 2 2.2208 -0.389289 17.7167 5.08326
126 1 -1.1104 3.96526 18.9171 6.71745
117 1 -1.1104 1.03276 16.1683 6.43321
52 2 2.2208 10.8107 -4.85309 5.32196
115 1 -1.1104 6.57366 13.412 3.8752
110 1 -1.1104 6.84718 13.31 1.08508
142 1 -1.1104 12.3691 13.3701 0.957808
146 1 -1.1104 12.4533 13.5704 3.74281
153 1 -1.1104 9.72695 13.3121 1.07102
158 1 -1.1104 9.5107 13.3096 3.78169
143 1 -1.1104 12.3346 13.3479 6.49616
154 1 -1.1104 9.48671 13.4398 6.71249
140 1 -1.1104 6.66587 16.2666 1.28233
149 1 -1.1104 12.5287 16.3746 6.78856
138 1 -1.1104 6.55805 19.0425 1.16837
139 1 -1.1104 6.65846 19.0437 3.94733
122 1 -1.1104 6.6769 16.1298 4.11651
150 2 2.2208 11.0355 14.7961 2.50812
141 2 2.2208 11.0243 17.6901 5.35559
144 1 -1.1104 12.212 19.0442 0.719178
147 1 -1.1104 12.5112 19.0528 3.61868
148 1 -1.1104 12.1495 16.2121 1.06166
151 2 2.2208 10.8957 20.291 2.31775
152 1 -1.1104 12.6034 16.2898 3.90577
155 1 -1.1104 9.37404 18.9215 0.986838
157 2 2.2208 8.04601 17.6048 2.51248
159 1 -1.1104 9.46219 19.0608 3.89812
160 2 2.2208 8.16326 14.8077 5.28712
161 2 2.2208 8.18541 20.4815 5.29463
162 1 -1.1104 9.55284 16.0251 0.935415
164 1 -1.1104 9.54874 16.1176 3.72283
145 1 -1.1104 12.4894 19.1614 6.32235
163 1 -1.1104 9.57966 16.2219 6.61103
368 2 2.2208 2.61696 17.605 13.7685
199 2 2.2208 -0.32057 3.53343 7.93981
314 1 -1.1104 9.50989 16.2426 9.47089
173 1 -1.1104 3.90358 2.04835 6.33844
167 1 -1.1104 0.947585 2.20835 6.68873
82 2 2.2208 -0.255277 9.18184 2.34905
175 2 2.2208 5.26277 0.61921 10.8848
176 1 -1.1104 1.10353 -3.41047 12.0402
180 1 -1.1104 1.00656 -3.26424 9.40665
184 1 -1.1104 0.976037 -0.682354 12.2343
186 2 2.2208 5.27278 -2.10878 8.00712
188 1 -1.1104 1.24852 -0.471674 9.45159
190 1 -1.1104 3.90468 -3.53596 12.2179
192 2 2.2208 2.57797 0.797906 7.9322
193 1 -1.1104 3.92216 -3.5333 9.34541
195 2 2.2208 2.60568 -2.07717 10.8552
197 1 -1.1104 3.88711 -0.543926 12.1961
198 1 -1.1104 3.99944 -0.786334 9.42478
28 2 2.2208 2.36653 -5.03391 2.50104
365 2 2.2208 8.19847 11.9567 13.6216
178 1 -1.1104 6.76221 -3.47018 12.1097
185 1 -1.1104 6.74213 -0.715603 12.2713
177 1 -1.1104 1.08224 2.23516 12.2836
181 1 -1.1104 1.04897 2.17531 9.4763
187 2 2.2208 5.19775 3.48121 7.92034
191 1 -1.1104 3.92633 2.19503 12.3785
194 1 -1.1104 4.06795 1.95109 9.3951
196 2 2.2208 2.55607 3.50817 10.8377
318 1 -1.1104 9.84578 18.9985 9.57567
330 1 -1.1104 12.3733 13.4259 12.201
168 1 -1.1104 6.82066 -3.49577 6.55673
306 1 -1.1104 6.91839 16.2237 12.0945
206 1 -1.1104 12.235 2.22639 6.71411
171 1 -1.1104 6.81743 -0.653743 6.61313
189 1 -1.1104 6.82326 -0.663488 9.45914
182 1 -1.1104 6.70551 -3.39146 9.35987
211 2 2.2208 10.8114 0.892784 10.7716
212 1 -1.1104 12.3335 -3.30034 12.0567
214 1 -1.1104 12.3148 -3.57447 9.4998
216 1 -1.1104 12.2211 -0.57084 12.1265
217 2 2.2208 10.9142 -2.01906 8.04994
219 1 -1.1104 12.3568 -0.475568 9.2867
220 1 -1.1104 9.44578 -3.45801 12.4148
222 2 2.2208 8.01242 0.696065 7.99516
223 1 -1.1104 9.59629 -3.39631 9.60674
225 2 2.2208 8.07125 -1.89068 10.7896
227 1 -1.1104 9.41554 -0.561207 12.1784
228 1 -1.1104 9.43639 -0.450182 9.2898
183 1 -1.1104 6.65186 2.12546 9.39502
179 1 -1.1104 6.78758 2.22192 12.2506
213 1 -1.1104 12.2524 2.11877 12.2779
215 1 -1.1104 12.1703 2.16354 9.45185
221 1 -1.1104 9.42597 2.17374 12.0654
224 1 -1.1104 9.59053 2.40111 9.38765
226 2 2.2208 8.04062 3.62704 10.8318
218 2 2.2208 10.9431 3.57155 7.92098
322 1 -1.1104 9.5701 13.0935 12.2002
363 2 2.2208 8.23219 6.48177 13.6276
240 2 2.2208 5.17898 6.31326 10.7501
242 1 -1.1104 0.910671 7.84066 12.3328
244 1 -1.1104 1.03233 7.68953 9.68093
246 1 -1.1104 1.21119 4.89882 12.1
251 1 -1.1104 0.979096 5.07018 9.32831
255 1 -1.1104 3.68523 7.74757 12.2218
256 2 2.2208 2.60966 6.3348 7.90733
258 1 -1.1104 3.79903 7.70129 9.32041
260 1 -1.1104 3.93839 4.83348 12.2623
262 1 -1.1104 3.89465 4.93729 9.4303
78 1 -1.1104 3.87432 10.4116 6.60614
62 1 -1.1104 1.10668 10.7202 6.65429
342 2 2.2208 -0.364929 12.1142 10.8221
343 2 2.2208 -0.421147 9.08666 8.01693
241 2 2.2208 5.18534 12.0178 10.914
247 1 -1.1104 1.10123 10.6527 12.2685
250 2 2.2208 5.28792 9.09085 7.97104
252 1 -1.1104 0.873711 10.5126 9.5017
257 2 2.2208 2.41567 11.8172 8.04917
259 2 2.2208 2.31682 9.17294 10.8898
261 1 -1.1104 3.96306 10.5652 12.2414
263 1 -1.1104 3.60145 10.6043 9.55116
319 1 -1.1104 9.39516 13.3953 9.48521
328 1 -1.1104 12.239 13.3462 9.53938
269 1 -1.1104 9.7772 4.93076 6.54527
266 1 -1.1104 12.4297 4.99358 6.55442
248 1 -1.1104 6.79867 4.99202 12.0815
253 1 -1.1104 6.68608 4.7156 9.32508
243 1 -1.1104 6.56202 7.68617 12.0331
245 1 -1.1104 6.5956 7.80695 9.47894
268 1 -1.1104 9.42522 5.01356 9.24256
271 1 -1.1104 9.55255 4.88216 12.2567
273 1 -1.1104 9.6182 7.7792 9.41901
275 2 2.2208 8.28445 6.32745 8.02507
276 2 2.2208 10.9691 6.51222 10.7398
278 1 -1.1104 12.3772 7.79685 12.2832
279 1 -1.1104 12.293 7.69259 9.39118
280 1 -1.1104 12.2012 5.02579 12.1983
283 1 -1.1104 12.3454 5.011 9.43236
285 1 -1.1104 9.65358 7.84404 12.1671
101 1 -1.1104 9.5042 10.5687 6.4788
249 1 -1.1104 6.77414 10.5375 12.2681
254 1 -1.1104 6.48668 10.6477 9.34195
264 1 -1.1104 9.49892 10.4731 9.45776
270 1 -1.1104 9.62756 10.4057 12.4026
272 2 2.2208 8.1189 9.09448 10.8722
274 2 2.2208 8.01021 11.9164 8.02754
277 2 2.2208 11.0069 11.9258 10.9458
281 1 -1.1104 12.3335 10.5696 12.4342
282 2 2.2208 10.8789 9.09927 7.99064
284 1 -1.1104 12.3924 10.5746 9.36957
355 2 2.2208 8.02957 0.775279 13.6418
378 2 2.2208 10.8343 17.3886 -0.514589
124 1 -1.1104 3.95736 13.3265 6.5513
133 1 -1.1104 3.73112 16.2482 6.70468
108 1 -1.1104 1.15894 13.4064 6.56819
305 1 -1.1104 3.89732 13.3641 9.26462
299 1 -1.1104 1.24665 13.3527 12.0408
294 1 -1.1104 1.05532 13.2667 9.26038
287 1 -1.1104 3.998 13.5071 12.2198
295 2 2.2208 5.23331 14.7691 7.92833
111 1 -1.1104 6.64555 13.3022 6.5467
311 2 2.2208 -0.202678 20.4256 8.00331
313 2 2.2208 -0.363646 14.9216 7.90671
302 1 -1.1104 1.10446 19.064 6.60933
309 2 2.2208 2.62165 20.4742 10.8095
308 1 -1.1104 4.06496 16.2994 12.3716
307 1 -1.1104 1.18007 16.1437 12.3488
304 1 -1.1104 4.08072 16.1413 9.7593
303 2 2.2208 2.5522 17.5229 7.99953
301 1 -1.1104 4.06475 19.0253 9.42296
300 2 2.2208 5.4039 17.6164 10.9633
298 1 -1.1104 1.34509 18.94 12.2918
310 2 2.2208 2.6633 14.7388 10.8714
293 2 2.2208 5.37577 20.3426 7.97018
292 1 -1.1104 1.06306 16.253 9.29465
291 1 -1.1104 1.11471 18.9724 9.58601
286 1 -1.1104 4.00111 19.1388 12.3781
297 1 -1.1104 6.67732 13.5888 12.2132
329 1 -1.1104 12.552 19.046 12.142
331 2 2.2208 10.9997 17.6193 10.8496
290 1 -1.1104 6.70764 13.4977 9.29769
317 2 2.2208 8.10587 14.7164 10.82
316 2 2.2208 8.17894 20.2904 10.9939
324 2 2.2208 11.0339 20.304 7.9634
156 1 -1.1104 9.65363 19.0206 6.58073
323 1 -1.1104 12.4829 16.0588 9.4773
325 2 2.2208 10.9146 14.7404 8.13788
112 1 -1.1104 6.92202 19.1063 6.73711
326 1 -1.1104 12.3649 16.0199 12.3461
320 2 2.2208 8.06632 17.588 8.02984
118 1 -1.1104 6.6889 16.1417 6.54056
321 1 -1.1104 9.79191 19.1256 12.3501
289 1 -1.1104 6.56991 16.2939 9.27962
288 1 -1.1104 6.92691 19.0688 9.50315
296 1 -1.1104 6.79666 18.8816 12.3894
315 1 -1.1104 9.66472 16.2562 12.346
371 2 2.2208 5.451 14.9801 13.6609
26 2 2.2208 -0.333556 0.69396 5.29053
312 2 2.2208 -0.295431 17.6135 10.8965
358 2 2.2208 -0.316085 9.19266 13.7249
202 2 2.2208 2.46644 -4.80245 7.92899
29 2 2.2208 5.15127 -4.82562 5.12399
200 2 2.2208 -0.335948 -2.02793 8.04925
233 2 2.2208 13.7827 -4.79834 7.98351
339 2 2.2208 13.8512 6.23925 8.05536
373 2 2.2208 10.8686 14.7518 13.6288
372 2 2.2208 11.0527 20.4737 13.6953
361 2 2.2208 2.50419 11.9144 13.7571
230 2 2.2208 13.6827 -1.99763 10.5814
364 2 2.2208 11.0109 9.23223 13.7941
332 2 2.2208 13.9909 17.6059 7.93014
356 2 2.2208 10.868 -1.96117 13.7372
333 2 2.2208 13.8415 14.7202 10.8428
346 2 2.2208 -0.293943 -2.08558 13.6102
231 2 2.2208 8.12905 -4.8744 8.26
351 2 2.2208 -0.275523 14.8602 13.6331
400 2 2.2208 11.0113 11.917 -0.442188
395 2 2.2208 5.43261 11.9134 -0.476242
393 2 2.2208 5.29267 6.28557 -0.534176
388 2 2.2208 8.21072 -2.19381 -0.430838
404 2 2.2208 5.10034 17.7142 -0.334212
383 2 2.2208 2.59276 3.53558 -0.444067
403 2 2.2208 2.52755 14.6835 -0.551233
377 2 2.2208 8.15716 14.6687 -0.325687
381 2 2.2208 5.37125 0.797874 -0.41086
357 2 2.2208 10.9199 3.55995 13.5254
406 2 2.2208 5.40109 0.709662 16.4429
407 1 -1.1104 1.04596 -3.29146 17.7018
411 1 -1.1104 1.23975 -3.43679 14.6259
419 1 -1.1104 1.04864 -0.71838 17.9554
421 2 2.2208 5.25354 -2.15578 19.3575
423 1 -1.1104 1.16633 -0.688145 15.1119
427 1 -1.1104 3.76537 -3.56676 17.9535
429 2 2.2208 2.36966 0.773933 19.1493
430 1 -1.1104 3.95828 -3.56818 15.1109
434 2 2.2208 2.63915 -2.17047 16.5201
436 1 -1.1104 3.9972 -0.870902 17.9467
437 1 -1.1104 4.03239 -0.849718 15.1707
666 2 2.2208 13.8897 -4.97376 24.7253
424 1 -1.1104 0.966617 -0.531602 20.6155
408 1 -1.1104 1.09139 2.16405 17.8363
413 1 -1.1104 1.11019 2.28587 15.1221
422 2 2.2208 5.22897 3.53915 19.2526
428 1 -1.1104 3.9278 2.08098 17.9724
432 1 -1.1104 3.94726 2.07987 15.1689
435 2 2.2208 2.48781 3.68664 16.303
477 2 2.2208 13.7653 -2.22246 16.4653
414 1 -1.1104 0.98234 2.19525 20.5904
412 1 -1.1104 0.89715 -3.6188 20.6091
431 1 -1.1104 3.76895 -3.61619 20.7834
438 1 -1.1104 3.77882 -0.521479 20.5136
433 1 -1.1104 3.67208 2.28352 20.6845
474 2 2.2208 10.9411 -4.97377 16.4834
441 2 2.2208 2.4222 -4.91192 19.3353
669 2 2.2208 8.02748 -4.9469 24.8277
396 2 2.2208 -0.319437 12.1832 27.6106
420 1 -1.1104 6.7885 -0.551257 17.795
409 1 -1.1104 6.58979 -3.4195 17.7969
415 1 -1.1104 6.72695 -3.51665 15.0591
425 1 -1.1104 6.65707 -0.657789 14.9796
449 2 2.2208 10.7787 0.672905 16.5747
450 1 -1.1104 12.2491 -3.57126 17.9949
452 1 -1.1104 12.2128 -3.46773 15.1233
456 1 -1.1104 12.2746 -0.706373 17.8769
457 2 2.2208 10.9318 -2.09261 19.3365
459 1 -1.1104 12.1979 -0.763976 15.1725
461 1 -1.1104 9.49045 -3.50606 17.8286
463 2 2.2208 8.13063 0.835261 19.0734
464 1 -1.1104 9.49363 -3.46306 15.033
468 2 2.2208 8.09191 -2.07267 16.5003
470 1 -1.1104 9.57739 -0.632782 17.9962
471 1 -1.1104 9.46536 -0.739724 14.9937
417 1 -1.1104 6.71415 2.15544 15.2302
410 1 -1.1104 6.77114 2.19216 17.8069
451 1 -1.1104 12.1299 2.17566 17.7481
454 1 -1.1104 12.2565 1.98245 14.9873
458 2 2.2208 10.7755 3.50532 19.2544
462 1 -1.1104 9.48274 2.12387 17.7539
466 1 -1.1104 9.48646 2.09305 15.1374
469 2 2.2208 8.09771 3.64807 16.3408
398 2 2.2208 11.0553 6.37932 27.7614
465 1 -1.1104 9.54146 -3.47866 20.7437
472 1 -1.1104 9.44485 -0.788797 20.7141
416 1 -1.1104 6.73706 -3.60829 20.6995
426 1 -1.1104 6.55721 -0.976058 20.6161
467 1 -1.1104 9.3532 1.9735 20.5114
418 1 -1.1104 6.57019 2.118 20.5686
475 2 2.2208 7.9461 -4.9221 19.1817
482 2 2.2208 5.36003 6.37291 16.3942
484 1 -1.1104 1.01089 8.03759 18.037
486 1 -1.1104 1.15652 7.76584 15.1396
490 1 -1.1104 1.15649 5.08867 17.6995
495 1 -1.1104 1.0558 5.02495 15.0176
503 1 -1.1104 3.9445 7.74195 17.8671
504 2 2.2208 2.52366 6.52796 19.2668
506 1 -1.1104 3.70117 7.76225 15.0422
509 1 -1.1104 3.80493 4.98025 17.8919
511 1 -1.1104 4.09844 5.01229 15.0131
483 2 2.2208 5.23076 12.0143 16.3863
491 1 -1.1104 1.01049 10.7938 18.0633
494 2 2.2208 5.23954 9.08187 19.2216
497 1 -1.1104 0.972931 10.6614 15.2281
505 2 2.2208 2.45858 12.0675 19.3258
508 2 2.2208 2.36626 9.28413 16.6881
510 1 -1.1104 3.81147 10.587 17.7318
513 1 -1.1104 4.00843 10.6018 15.0993
516 2 2.2208 -0.385715 12.0886 16.3837
515 2 2.2208 -0.345491 9.24811 19.4561
512 1 -1.1104 3.60737 5.12178 20.7934
496 1 -1.1104 0.790944 4.91343 20.5609
507 1 -1.1104 3.90215 7.88425 20.636
487 1 -1.1104 1.06414 7.72741 20.6268
498 1 -1.1104 1.14311 10.5433 20.7529
633 1 -1.1104 12.3203 19.0035 23.2425
608 1 -1.1104 12.2539 13.358 23.5112
488 1 -1.1104 6.6137 7.83755 14.9856
492 1 -1.1104 6.63447 5.04614 17.824
485 1 -1.1104 6.68888 7.90373 17.6702
499 1 -1.1104 6.84704 5.07114 15.076
518 2 2.2208 10.9094 6.12779 16.4122
520 1 -1.1104 12.4077 7.62864 17.9547
521 1 -1.1104 12.2156 7.59481 15.0883
523 1 -1.1104 12.1726 4.82249 17.8081
526 1 -1.1104 12.2976 4.906 15.0149
530 1 -1.1104 9.61949 7.62718 17.9322
531 2 2.2208 8.14962 6.46144 19.3618
533 1 -1.1104 9.47796 7.83231 14.9555
536 1 -1.1104 9.45533 4.97634 17.9089
538 1 -1.1104 9.45745 4.86663 14.9707
534 1 -1.1104 9.59206 7.73218 20.6892
501 1 -1.1104 6.6396 10.6975 14.9438
493 1 -1.1104 6.79445 10.5301 17.8014
519 2 2.2208 10.9086 11.8105 16.4849
524 1 -1.1104 12.4682 10.4088 17.837
525 2 2.2208 11.0087 9.04711 19.3625
528 1 -1.1104 12.3 10.6086 15.0974
532 2 2.2208 7.96936 11.9216 19.2503
535 2 2.2208 8.02344 9.18107 16.3922
537 1 -1.1104 9.56137 10.2554 17.8971
540 1 -1.1104 9.34464 10.6401 15.093
673 1 -1.1104 9.36893 13.3976 26.2544
500 1 -1.1104 6.46152 4.98718 20.5451
489 1 -1.1104 6.70742 7.75243 20.8284
539 1 -1.1104 9.64651 4.91473 20.6258
502 1 -1.1104 6.80546 10.5109 20.588
353 2 2.2208 8.19162 -4.86665 13.5921
546 1 -1.1104 0.940654 13.4973 18.0164
550 1 -1.1104 1.13916 13.403 14.9951
566 1 -1.1104 3.8778 13.347 17.7557
569 1 -1.1104 3.89439 13.5351 14.9503
448 2 2.2208 -0.2212 14.9227 19.4115
730 1 -1.1104 6.83489 13.1389 26.408
476 2 2.2208 -0.262354 20.3831 19.2114
639 2 2.2208 5.35918 -4.81501 22.0441
573 2 2.2208 2.42197 14.7852 16.4285
545 2 2.2208 5.33846 17.5736 16.5161
547 1 -1.1104 1.09242 19.1844 17.8535
552 1 -1.1104 1.12772 18.9887 15.0872
558 1 -1.1104 1.45899 16.3256 17.8466
560 2 2.2208 5.41667 14.7829 19.3983
561 2 2.2208 5.23777 20.3245 19.3704
562 1 -1.1104 1.00357 16.0891 15.1
567 1 -1.1104 3.78763 19.0806 17.8608
568 2 2.2208 2.62228 17.7542 19.3005
571 1 -1.1104 3.96159 18.9538 15.1495
574 2 2.2208 2.48065 20.4477 16.4809
575 1 -1.1104 4.06218 16.3134 17.9752
576 1 -1.1104 3.90381 16.2992 15.1538
572 1 -1.1104 4.01886 19.0258 20.8134
664 1 -1.1104 9.58965 13.139 23.4474
551 1 -1.1104 1.06793 13.4555 20.5989
577 1 -1.1104 4.09431 16.1223 20.8019
382 2 2.2208 2.52237 -2.07325 27.8122
352 2 2.2208 5.36182 3.51939 13.5591
557 1 -1.1104 6.7344 19.067 20.6825
739 1 -1.1104 6.80287 13.3926 23.408
548 1 -1.1104 6.6276 13.3099 17.9012
554 1 -1.1104 6.74068 13.5041 15.1141
582 1 -1.1104 12.3803 13.2324 17.8749
584 1 -1.1104 12.4 13.3024 15.0456
593 1 -1.1104 9.37056 13.3184 18.0116
596 1 -1.1104 9.55745 13.1911 15.122
600 2 2.2208 8.13435 14.8102 16.5445
585 1 -1.1104 12.3122 13.3861 20.6371
559 1 -1.1104 6.92309 16.0718 18.1106
549 1 -1.1104 6.87027 18.8402 17.7602
556 1 -1.1104 6.81728 18.9707 15.074
564 1 -1.1104 6.67619 16.3139 15.0664
581 2 2.2208 10.9261 17.5478 16.5076
583 1 -1.1104 12.46 18.9025 17.8923
586 1 -1.1104 12.492 18.9364 14.9279
588 1 -1.1104 12.3211 16.0759 17.8255
589 2 2.2208 10.8703 14.7161 19.3598
590 2 2.2208 10.8537 20.5401 19.367
591 1 -1.1104 12.488 16.1224 15.1484
594 1 -1.1104 9.6155 18.9054 17.8961
595 2 2.2208 8.26349 17.5732 19.481
598 1 -1.1104 9.66036 19.0041 15.0423
601 2 2.2208 8.17947 20.3296 16.6174
602 1 -1.1104 9.66091 16.0561 17.9417
603 1 -1.1104 9.4993 16.1689 15.1318
587 1 -1.1104 12.3095 19.0044 20.7848
592 1 -1.1104 12.2575 16.3712 20.533
599 1 -1.1104 9.52922 19.101 20.7058
481 2 2.2208 -0.283759 6.48944 16.4674
609 2 2.2208 5.14644 0.766077 21.9825
610 1 -1.1104 1.06231 -3.45561 23.3763
614 1 -1.1104 0.927721 -3.62366 26.1684
618 1 -1.1104 1.27864 -0.64076 23.5813
620 2 2.2208 5.30671 -2.25601 24.891
622 1 -1.1104 1.02206 -0.839383 26.4797
624 1 -1.1104 4.02358 -3.50382 23.5235
626 2 2.2208 2.70074 0.769074 24.8959
627 1 -1.1104 3.81661 -3.49908 26.3635
629 2 2.2208 2.34925 -2.18003 22.0788
631 1 -1.1104 4.08359 -0.794975 23.2538
632 1 -1.1104 3.97188 -0.621958 26.2054
619 1 -1.1104 6.88695 -1.00029 23.5665
611 1 -1.1104 1.11192 2.16422 23.482
615 1 -1.1104 1.05239 2.16401 26.3852
621 2 2.2208 5.42416 3.44344 24.9822
625 1 -1.1104 3.93895 2.05745 23.4806
628 1 -1.1104 4.00224 2.19455 26.2556
630 2 2.2208 2.3791 3.60803 22.1148
643 2 2.2208 -0.224915 0.761003 22.1806
617 1 -1.1104 6.70766 2.20054 26.1791
440 2 2.2208 5.30129 -5.09666 16.4952
606 2 2.2208 13.7599 20.415 22.0435
447 2 2.2208 -0.318221 17.6323 16.4135
640 2 2.2208 2.28969 -4.94759 24.8685
405 2 2.2208 2.25042 20.2822 27.769
453 1 -1.1104 12.2407 -3.57073 20.8064
460 1 -1.1104 12.1745 -0.584204 20.694
616 1 -1.1104 6.85429 -3.58143 26.3844
612 1 -1.1104 6.84943 -3.43719 23.5082
623 1 -1.1104 6.74181 -0.703265 26.4554
645 2 2.2208 10.8797 0.70058 22.005
646 1 -1.1104 12.4387 -3.49583 23.4116
648 1 -1.1104 12.3297 -3.3586 26.5112
650 1 -1.1104 12.449 -0.633407 23.4243
651 2 2.2208 10.8423 -2.16567 24.9726
653 1 -1.1104 12.3414 -0.633632 26.1824
654 1 -1.1104 9.58459 -3.76733 23.7046
656 2 2.2208 7.99498 0.475029 25.0213
657 1 -1.1104 9.47086 -3.58424 26.3557
659 2 2.2208 8.18543 -2.21141 22.0887
661 1 -1.1104 9.49859 -0.721277 23.6123
662 1 -1.1104 9.56531 -0.963556 26.383
455 1 -1.1104 12.0202 2.07945 20.4879
613 1 -1.1104 6.66662 1.95817 23.3976
647 1 -1.1104 12.3607 1.97582 23.2046
649 1 -1.1104 12.4552 2.2672 26.0688
655 1 -1.1104 9.44099 1.9788 23.3582
658 1 -1.1104 9.44319 1.75876 26.2593
660 2 2.2208 8.16768 3.30924 21.9962
652 2 2.2208 11.0181 3.42504 24.6498
580 2 2.2208 13.6465 14.6779 22.0107
642 2 2.2208 -0.455153 -2.12528 25.0048
644 2 2.2208 -0.231811 3.5893 24.9694
597 1 -1.1104 9.32271 13.2525 20.6097
442 2 2.2208 -0.252708 0.744619 16.3317
444 2 2.2208 -0.427554 6.42429 22.082
674 2 2.2208 5.26376 6.25425 22.1115
676 1 -1.1104 1.24701 7.774 23.3515
678 1 -1.1104 1.2048 7.88356 26.1586
680 1 -1.1104 0.957333 5.10554 23.509
685 1 -1.1104 0.998775 5.09422 26.3314
689 1 -1.1104 3.97283 7.74577 23.3341
690 2 2.2208 2.60236 6.36139 24.8714
692 1 -1.1104 4.05048 7.7114 26.2417
694 1 -1.1104 3.88576 4.84305 23.5758
696 1 -1.1104 4.02126 4.83825 26.3921
677 1 -1.1104 6.75825 7.58893 23.6659
682 1 -1.1104 6.80603 4.82227 23.5491
514 1 -1.1104 3.95808 10.6253 20.5176
379 2 2.2208 8.12241 20.3083 27.9507
675 2 2.2208 5.27762 11.9098 22.0128
681 1 -1.1104 1.03382 10.8198 23.5442
684 2 2.2208 5.3801 8.95227 24.7692
686 1 -1.1104 1.01526 10.5824 26.3537
691 2 2.2208 2.61423 12.0456 24.8631
693 2 2.2208 2.54816 9.26277 22.0666
695 1 -1.1104 3.75776 10.7007 23.3024
697 1 -1.1104 3.92404 10.5655 26.1839
703 2 2.2208 -0.273137 12.0365 21.9037
638 2 2.2208 10.708 14.6642 24.809
555 1 -1.1104 6.67511 13.292 20.6459
443 2 2.2208 -0.376763 -2.09468 19.2561
634 1 -1.1104 12.2412 13.3163 26.098
522 1 -1.1104 12.3531 7.79805 20.7969
527 1 -1.1104 12.4151 4.89811 20.6592
679 1 -1.1104 6.90903 7.57614 26.2786
687 1 -1.1104 6.85119 4.87082 26.3959
706 1 -1.1104 9.5712 4.61397 26.1389
708 1 -1.1104 9.69517 4.67364 23.3013
710 1 -1.1104 9.54695 7.65832 26.1454
712 2 2.2208 8.20719 6.18774 24.9121
713 2 2.2208 11.0085 6.26245 22.1239
715 1 -1.1104 12.5631 7.61788 23.5336
716 1 -1.1104 12.4704 7.52466 26.4753
717 1 -1.1104 12.5994 4.82898 23.592
720 1 -1.1104 12.3618 4.90778 26.3802
722 1 -1.1104 9.59704 7.52304 23.4471
541 1 -1.1104 9.44585 10.377 20.7519
529 1 -1.1104 12.3805 10.6553 20.651
683 1 -1.1104 6.73358 10.4332 23.4267
688 1 -1.1104 6.67644 10.5018 26.2066
705 1 -1.1104 9.61906 10.5511 26.2647
707 1 -1.1104 9.40975 10.3456 23.611
709 2 2.2208 8.05309 9.11767 22.0464
711 2 2.2208 8.16934 11.8261 24.9475
714 2 2.2208 10.88 11.7534 22.0095
718 1 -1.1104 12.3664 10.4894 23.435
719 2 2.2208 11.0492 9.11444 24.9714
721 1 -1.1104 12.3927 10.42 26.2136
663 1 -1.1104 12.3417 15.9979 26.2088
700 2 2.2208 8.15122 20.4622 22.1631
701 1 -1.1104 9.43851 16.0895 23.4613
553 1 -1.1104 1.27611 19.1261 20.6772
570 1 -1.1104 3.82986 13.4091 20.6442
746 1 -1.1104 4.04526 13.3932 26.1626
731 1 -1.1104 4.0788 13.374 23.4376
735 1 -1.1104 1.10687 13.3496 26.2701
741 1 -1.1104 1.0892 13.5269 23.3632
724 2 2.2208 -0.46077 20.4832 24.7804
563 1 -1.1104 1.33099 16.4059 20.7047
723 2 2.2208 -0.323525 17.6626 21.9932
743 1 -1.1104 3.72046 18.8887 26.4552
748 1 -1.1104 1.18392 16.3742 23.3287
745 1 -1.1104 3.78934 16.2797 26.2954
744 2 2.2208 2.38654 17.7578 24.9491
750 2 2.2208 2.56949 20.3698 22.0806
749 1 -1.1104 3.9546 16.3018 23.5688
727 2 2.2208 2.47505 14.8958 22.0269
729 1 -1.1104 3.87899 19.0337 23.6196
733 1 -1.1104 0.873251 19.112 26.0941
734 1 -1.1104 1.11782 16.2605 26.1402
737 2 2.2208 5.29593 20.3543 25.1141
738 2 2.2208 5.36709 14.7228 24.9511
740 1 -1.1104 0.883848 19.1075 23.3947
742 2 2.2208 5.32396 17.4979 22.2163
725 2 2.2208 -0.367037 14.8351 24.8366
704 1 -1.1104 9.51833 16.2359 26.3563
698 1 -1.1104 9.35643 18.9471 26.6291
702 2 2.2208 -0.236068 9.30334 24.7132
636 1 -1.1104 12.2765 16.1176 23.5079
387 2 2.2208 10.9834 0.6521 27.7007
699 2 2.2208 8.09255 14.647 21.9891
641 2 2.2208 10.9204 20.3129 24.9202
732 1 -1.1104 6.82399 16.0499 26.5378
607 2 2.2208 10.8501 17.4114 22.189
747 1 -1.1104 6.76358 16.246 23.5933
667 2 2.2208 8.07113 17.5563 24.9973
635 1 -1.1104 12.2211 18.9047 26.1333
736 1 -1.1104 6.66827 18.9852 23.6741
665 1 -1.1104 9.35818 18.9813 23.5629
670 1 -1.1104 6.6837 19.0327 26.5557
565 1 -1.1104 6.81694 16.1084 20.858
604 1 -1.1104 9.48833 16.1292 20.854
399 2 2.2208 8.14713 8.96754 27.7349
386 2 2.2208 -0.36694 0.764879 27.6983
366 2 2.2208 13.827 6.45325 13.5349
367 2 2.2208 -0.318918 3.64797 13.5124
376 2 2.2208 8.27045 17.6463 13.5769
390 2 2.2208 11.0628 -4.98421 27.6891
359 2 2.2208 2.49837 6.51468 13.6699
389 2 2.2208 8.26287 3.49673 27.7296
369 2 2.2208 5.35446 20.3484 13.7637
348 2 2.2208 5.22945 -2.18531 13.5882
394 2 2.2208 2.57969 9.23912 27.645
751 2 2.2208 5.33087 23.1723 5.28566
753 1 -1.1104 1.23749 24.547 0.852967
754 1 -1.1104 1.19082 24.5993 3.76439
755 1 -1.1104 0.980941 21.7666 0.971655
757 2 2.2208 5.422 25.9508 2.51884
758 1 -1.1104 0.981281 21.8346 3.85755
760 1 -1.1104 4.03992 24.7092 1.00951
761 2 2.2208 2.53674 23.113 2.37634
763 1 -1.1104 3.8842 24.4523 3.92192
764 2 2.2208 2.55924 25.9609 5.12701
765 1 -1.1104 3.80966 21.8656 1.0944
767 1 -1.1104 3.78013 21.6648 3.91612
759 1 -1.1104 1.19439 27.3795 3.70361
766 1 -1.1104 4.00824 27.4596 1.22336
756 1 -1.1104 1.18995 27.5093 0.821709
892 1 -1.1104 1.19127 24.6329 6.55089
898 1 -1.1104 4.10842 24.4372 6.73031
768 1 -1.1104 4.10823 27.2877 3.83035
771 2 2.2208 -0.285382 25.9679 2.32221
770 2 2.2208 -0.26559 23.3084 5.23135
752 2 2.2208 5.46646 28.7487 5.13755
762 2 2.2208 2.66153 28.7802 2.50213
769 2 2.2208 -0.350674 28.7618 5.21932
894 1 -1.1104 1.1381 21.8774 6.76932
1085 1 -1.1104 12.5396 46.7745 6.43662
982 2 2.2208 -0.20102 37.3255 8.06328
1673 1 -1.1104 1.26237 47.2981 6.59261
777 1 -1.1104 6.87839 27.4367 3.77642
774 1 -1.1104 6.66125 21.862 1.06975
775 1 -1.1104 6.84572 27.384 1.06388
772 1 -1.1104 6.87234 24.5005 1.17449
773 1 -1.1104 6.65135 24.6205 3.93063
776 1 -1.1104 6.63281 21.7881 3.87869
778 2 2.2208 10.9102 23.2879 5.12319
780 1 -1.1104 12.3378 24.8082 0.839293
781 1 -1.1104 12.4777 24.6201 3.86081
782 1 -1.1104 12.2796 21.906 0.878749
784 2 2.2208 11.142 26.1138 2.57125
785 1 -1.1104 12.3939 21.845 3.77861
787 1 -1.1104 9.72946 24.5479 0.970009
788 2 2.2208 8.23378 23.2046 2.4513
790 1 -1.1104 9.62276 24.5729 3.69329
791 2 2.2208 8.33944 26.0152 5.30317
792 1 -1.1104 9.50035 21.787 0.935019
793 1 -1.1104 9.66816 27.3824 1.0439
794 1 -1.1104 9.59057 21.6656 3.8433
783 1 -1.1104 12.4907 27.4141 1.22414
795 1 -1.1104 9.6788 27.2358 3.75549
786 1 -1.1104 12.7577 27.4369 3.82487
897 1 -1.1104 6.77051 27.4111 6.60831
926 1 -1.1104 12.6103 21.6861 6.50552
779 2 2.2208 11.211 28.7637 5.14071
789 2 2.2208 8.16292 28.8534 2.30358
927 1 -1.1104 12.3749 27.167 6.59426
896 1 -1.1104 6.78407 21.7817 6.60835
800 1 -1.1104 1.19793 30.3059 1.1116
803 1 -1.1104 1.04417 30.1276 3.94116
806 1 -1.1104 1.32149 33.073 0.79785
807 2 2.2208 5.39698 31.6184 2.49344
809 1 -1.1104 1.00722 33.0474 3.71873
811 1 -1.1104 3.91572 30.104 1.03485
814 1 -1.1104 3.94114 30.0455 3.79706
816 2 2.2208 2.50379 31.5103 5.14243
818 1 -1.1104 3.89416 33.191 1.07207
819 1 -1.1104 3.80215 32.9269 3.85669
822 2 2.2208 -0.247566 31.6419 2.35513
823 1 -1.1104 6.66299 30.2813 1.09952
799 2 2.2208 5.28235 34.3298 5.13867
801 1 -1.1104 1.10427 35.8659 0.887431
804 1 -1.1104 1.08548 35.9077 3.86536
808 2 2.2208 5.38741 37.2839 2.62888
812 1 -1.1104 4.03919 36.0056 1.15104
813 2 2.2208 2.41087 34.6183 2.28128
815 1 -1.1104 3.85007 35.764 3.79439
817 2 2.2208 2.67042 37.3697 5.28976
956 1 -1.1104 3.9686 35.8325 6.49379
950 1 -1.1104 1.08514 35.9936 6.49226
820 2 2.2208 -0.299283 34.4476 5.29403
1029 1 -1.1104 4.15039 38.5944 6.90607
821 2 2.2208 -0.0902603 37.2161 2.50427
953 1 -1.1104 1.22404 33.2333 6.57844
824 1 -1.1104 6.7364 30.3288 3.94613
825 1 -1.1104 6.70178 33.0342 0.877276
810 1 -1.1104 6.70951 33.101 3.61167
827 1 -1.1104 12.4754 30.0571 0.874055
829 1 -1.1104 12.1996 30.1208 3.66689
831 1 -1.1104 12.2309 32.9103 0.700077
832 2 2.2208 10.9249 31.6273 2.3017
834 1 -1.1104 12.2482 32.9699 3.63715
835 1 -1.1104 9.54769 30.1939 0.898942
838 1 -1.1104 9.4754 30.0979 3.77515
840 2 2.2208 8.21814 31.5997 5.17594
842 1 -1.1104 9.53622 33.0057 1.05629