ITEM: TIMESTEP
100000
ITEM: NUMBER OF ATOMS
17732
ITEM: BOX BOUNDS pp pp pp
-4.0715567666806429e-01 2.7747155676669532e+01
-4.8423456683550716e+00 3.3292234566835890e+02
-4.0552647403513586e-01 2.7745526474035572e+01
ITEM: ATOMS id type q x y z
1 2 2.2208 5.38872 0.845953 5.20456
2 1 -1.1104 1.39392 -3.37014 0.966174
6 1 -1.1104 1.29652 -3.49355 3.73991
10 1 -1.1104 1.15621 -0.58944 0.874704
12 2 2.2208 5.38212 -1.92512 2.38103
14 1 -1.1104 1.31935 -0.697923 3.73311
16 1 -1.1104 4.14248 -3.30675 1.09841
18 2 2.2208 2.6359 0.89207 2.387
19 1 -1.1104 4.00837 -3.44752 3.95615
21 2 2.2208 2.6602 -2.00538 5.13591
23 1 -1.1104 3.93656 -0.37576 1.0255
24 1 -1.1104 4.01307 -0.629873 3.76014
3 1 -1.1104 1.13416 2.37143 1.07816
7 1 -1.1104 1.1687 2.11903 3.82769
17 1 -1.1104 3.86486 2.35141 0.958719
20 1 -1.1104 3.95093 2.19993 3.7255
22 2 2.2208 2.61146 3.71537 5.21035
13 2 2.2208 5.49662 3.6034 2.43556
9 1 -1.1104 6.77574 2.2929 3.98166
169 1 -1.1104 6.88474 2.2515 6.83864
26 2 2.2208 -0.0304938 0.879451 5.27307
5 1 -1.1104 6.87469 2.20114 1.02213
25 2 2.2208 -0.156649 -1.9919 2.4534
395 2 2.2208 5.46794 11.9482 -0.310402
202 2 2.2208 2.65312 -4.80411 8.11763
171 1 -1.1104 6.80099 -0.622255 6.5687
174 1 -1.1104 4.01001 -0.576553 6.8275
51 2 2.2208 8.23248 -4.79422 2.57375
313 2 2.2208 -0.310196 14.9176 7.92835
358 2 2.2208 -0.13091 9.12799 13.6025
27 2 2.2208 -0.344439 3.63343 2.36082
28 2 2.2208 2.7222 -4.77195 2.38063
15 1 -1.1104 6.82024 -0.696401 3.83996
11 1 -1.1104 6.99449 -0.622247 0.859094
8 1 -1.1104 6.84811 -3.47429 3.81132
4 1 -1.1104 6.90122 -3.43346 1.01485
31 2 2.2208 11.0375 0.637501 5.37912
32 1 -1.1104 12.5672 -3.54966 1.10914
34 1 -1.1104 12.5811 -3.49432 3.9278
36 1 -1.1104 12.4603 -0.709654 1.14672
37 2 2.2208 11.0538 -2.04656 2.62924
39 1 -1.1104 12.5748 -0.786749 3.8525
40 1 -1.1104 9.82822 -3.37991 1.25087
42 2 2.2208 8.3213 0.718183 2.43156
43 1 -1.1104 9.80648 -3.45721 3.95402
45 2 2.2208 8.18287 -2.13395 5.29465
47 1 -1.1104 9.72161 -0.652028 1.0623
48 1 -1.1104 9.49622 -0.879245 4.06962
33 1 -1.1104 12.3566 2.11986 1.0584
35 1 -1.1104 12.2953 2.12661 4.01532
41 1 -1.1104 9.50883 2.21922 1.1676
44 1 -1.1104 9.6601 2.01577 3.92886
46 2 2.2208 8.3507 3.39996 5.44684
38 2 2.2208 11.0332 3.61261 2.63678
344 2 2.2208 -0.141383 6.32692 10.8947
209 1 -1.1104 9.65587 1.9808 6.71311
386 2 2.2208 -0.147751 0.859799 -0.30193
54 2 2.2208 5.40692 6.42359 5.30986
56 1 -1.1104 0.954713 7.8778 1.03176
58 1 -1.1104 0.971443 7.79675 3.90322
60 1 -1.1104 1.03092 5.0755 1.06279
67 1 -1.1104 1.09495 4.91475 3.84727
71 1 -1.1104 3.89897 7.99974 0.822415
72 2 2.2208 2.48376 6.38579 2.4901
74 1 -1.1104 3.89657 7.92395 3.77024
76 1 -1.1104 3.98875 5.13757 1.01824
79 1 -1.1104 4.13434 5.01025 3.90365
55 2 2.2208 5.44649 11.9796 5.28474
61 1 -1.1104 1.08952 10.5774 0.827844
66 2 2.2208 5.40931 9.19699 2.43298
68 1 -1.1104 1.25239 10.5033 3.79432
73 2 2.2208 2.48107 11.9021 2.41971
75 2 2.2208 2.46605 9.17813 5.31326
77 1 -1.1104 4.12152 10.5718 0.99568
80 1 -1.1104 4.05054 10.8884 3.75949
234 1 -1.1104 0.95798 7.64966 6.75255
238 1 -1.1104 4.0586 7.71408 6.51971
235 1 -1.1104 7.06841 7.85707 6.74443
356 2 2.2208 11.249 -2.02654 13.6173
137 2 2.2208 -0.166398 17.6033 5.22822
135 2 2.2208 -0.272683 14.6382 2.44879
371 2 2.2208 5.36707 14.7254 13.5981
64 1 -1.1104 6.92803 10.622 0.8633
63 1 -1.1104 6.83818 5.08182 1.07147
70 1 -1.1104 6.82196 10.7305 3.6801
57 1 -1.1104 6.64787 7.79354 0.965966
361 2 2.2208 2.64731 11.9229 13.5839
59 1 -1.1104 6.67833 7.90551 3.8447
69 1 -1.1104 6.91242 5.06561 3.7947
84 2 2.2208 11.0123 6.29806 5.30265
86 1 -1.1104 12.3289 7.75886 1.07921
87 1 -1.1104 12.5143 7.83806 3.63128
88 1 -1.1104 12.4104 4.89299 1.05605
92 1 -1.1104 12.4534 5.03202 3.98879
94 1 -1.1104 9.58919 7.676 1.22397
95 2 2.2208 8.16571 6.37577 2.37691
97 1 -1.1104 9.62072 7.71849 3.99519
99 1 -1.1104 9.6432 4.90173 1.21312
102 1 -1.1104 9.49979 4.96782 3.92872
85 2 2.2208 11.1045 11.9276 5.0932
89 1 -1.1104 12.3576 10.6853 0.90096
91 2 2.2208 11.0311 9.23034 2.46257
93 1 -1.1104 12.4724 10.5527 3.71489
96 2 2.2208 8.27414 11.9819 2.30912
98 2 2.2208 8.38955 9.10397 5.24128
100 1 -1.1104 9.69625 10.4715 1.04183
103 1 -1.1104 9.80945 10.5834 3.71659
266 1 -1.1104 12.4765 4.88072 6.94095
101 1 -1.1104 9.66063 10.4597 6.52009
265 1 -1.1104 12.3674 7.78488 6.68304
82 2 2.2208 -0.350782 9.13689 2.29411
107 1 -1.1104 1.14203 13.3284 1.0975
113 1 -1.1104 1.01695 13.2983 3.86099
123 1 -1.1104 3.80101 13.0947 0.880352
128 1 -1.1104 3.99428 13.6178 3.96837
130 2 2.2208 2.5426 14.8425 5.3349
106 2 2.2208 5.31142 17.7054 5.46925
109 1 -1.1104 1.14387 19.1365 0.957716
114 1 -1.1104 1.38901 18.9453 3.81646
116 1 -1.1104 1.12517 16.1505 0.971481
119 2 2.2208 5.30669 14.7512 2.38754
120 2 2.2208 5.46575 20.5246 2.46085
121 1 -1.1104 1.27758 16.0865 3.76418
125 1 -1.1104 3.94727 19.1291 0.751122
127 2 2.2208 2.64722 17.5495 2.40897
129 1 -1.1104 4.20112 19.1345 3.94061
131 2 2.2208 2.67542 20.5048 5.24505
132 1 -1.1104 4.14918 16.0472 1.00458
134 1 -1.1104 4.11948 16.4218 3.65024
140 1 -1.1104 6.84472 16.3461 0.929078
139 1 -1.1104 6.88511 19.0613 3.83435
138 1 -1.1104 6.85235 19.1151 1.0709
108 1 -1.1104 1.14526 13.5646 6.60853
126 1 -1.1104 3.95622 19.2352 6.701
118 1 -1.1104 6.76715 16.0778 6.6594
124 1 -1.1104 4.00221 13.5583 6.72489
302 1 -1.1104 1.10805 18.9996 6.75819
342 2 2.2208 -0.338382 11.9428 10.8572
351 2 2.2208 -0.270478 14.7199 13.5871
403 2 2.2208 2.62534 14.5728 -0.320599
83 2 2.2208 -0.330374 12.1586 5.21861
122 1 -1.1104 6.76438 16.2386 3.75306
115 1 -1.1104 6.71787 13.337 3.71
110 1 -1.1104 6.55134 13.5856 0.963929
142 1 -1.1104 12.4029 13.3939 0.797471
146 1 -1.1104 12.4145 13.2851 3.71259
153 1 -1.1104 9.55298 13.3978 1.20082
158 1 -1.1104 9.49668 13.4845 3.8833
150 2 2.2208 10.8998 14.881 2.52295
141 2 2.2208 10.7891 17.4741 5.23476
144 1 -1.1104 12.3835 18.9031 1.10472
147 1 -1.1104 12.4991 18.9219 3.79572
148 1 -1.1104 12.428 16.094 1.02772
151 2 2.2208 10.9783 20.2393 2.56708
152 1 -1.1104 12.265 16.182 3.88087
155 1 -1.1104 9.5402 18.9198 0.930854
157 2 2.2208 8.19147 17.6504 2.37834
159 1 -1.1104 9.55058 18.8478 3.83441
160 2 2.2208 8.13465 14.8755 5.12179
161 2 2.2208 8.13199 20.3557 5.29904
162 1 -1.1104 9.47741 16.2553 0.730098
164 1 -1.1104 9.48185 16.1922 3.58064
145 1 -1.1104 12.5308 19.0196 6.80111
319 1 -1.1104 9.39576 13.3465 9.39127
312 2 2.2208 -0.313537 17.571 10.9176
163 1 -1.1104 9.55554 16.2461 6.56543
154 1 -1.1104 9.68281 13.4482 6.5423
173 1 -1.1104 4.04405 2.26129 6.56883
199 2 2.2208 -0.202387 3.66426 8.0456
201 2 2.2208 0.00478659 0.936936 10.9846
167 1 -1.1104 1.26567 2.31769 6.66251
170 1 -1.1104 1.42379 -0.325472 6.50432
166 1 -1.1104 1.35332 -3.38712 6.62215
172 1 -1.1104 3.97222 -3.60119 6.75192
175 2 2.2208 5.55822 0.68128 10.8704
176 1 -1.1104 1.30158 -3.44798 12.2505
180 1 -1.1104 1.30749 -3.3329 9.44724
184 1 -1.1104 1.57305 -0.57203 12.3812
186 2 2.2208 5.43673 -2.14062 8.14453
188 1 -1.1104 1.27991 -0.502239 9.37628
190 1 -1.1104 4.04452 -3.64354 12.3102
192 2 2.2208 2.58134 0.900194 7.97509
193 1 -1.1104 4.17133 -3.48069 9.63789
195 2 2.2208 2.61192 -2.00197 10.7808
197 1 -1.1104 4.15451 -0.688463 12.3381
198 1 -1.1104 4.22827 -0.599698 9.51926
177 1 -1.1104 1.39888 2.25535 12.2014
181 1 -1.1104 1.40668 2.20381 9.4826
187 2 2.2208 5.52074 3.74004 8.05721
191 1 -1.1104 4.31137 2.20813 12.3289
194 1 -1.1104 4.04116 2.05402 9.41397
196 2 2.2208 2.79751 3.53622 11.0578
200 2 2.2208 -0.0295997 -1.84965 7.97727
352 2 2.2208 5.55485 3.62526 13.7061
323 1 -1.1104 12.6777 16.1364 9.29121
168 1 -1.1104 6.86622 -3.54841 6.5855
206 1 -1.1104 12.434 2.12917 6.667
210 1 -1.1104 9.63759 -0.819172 6.65817
208 1 -1.1104 9.74263 -3.65457 6.65356
340 2 2.2208 13.725 11.8545 7.98507
324 2 2.2208 11.1218 20.3986 7.96929
178 1 -1.1104 6.8101 -3.67281 12.2763
189 1 -1.1104 6.87918 -0.668255 9.45028
185 1 -1.1104 6.91288 -0.744192 12.1363
183 1 -1.1104 6.94965 2.32003 9.38923
207 1 -1.1104 12.5457 -0.880489 6.6632
205 1 -1.1104 12.5856 -3.71775 6.6067
182 1 -1.1104 6.96869 -3.43082 9.4354
179 1 -1.1104 6.93197 2.16425 12.299
211 2 2.2208 10.9094 0.511273 10.7646
212 1 -1.1104 12.744 -3.36583 12.3506
214 1 -1.1104 12.5938 -3.2589 9.32623
216 1 -1.1104 12.4424 -0.507896 12.096
217 2 2.2208 11.1889 -2.14739 8.06899
219 1 -1.1104 12.4085 -0.621901 9.45412
220 1 -1.1104 9.76942 -3.58105 12.2519
222 2 2.2208 8.21466 0.676375 8.07113
223 1 -1.1104 9.77466 -3.61684 9.72114
225 2 2.2208 8.25511 -2.1973 10.9381
227 1 -1.1104 9.74498 -0.858449 12.2806
228 1 -1.1104 9.67113 -0.739449 9.39606
213 1 -1.1104 12.5766 2.15982 12.463
215 1 -1.1104 12.588 2.03655 9.50017
221 1 -1.1104 9.63999 2.19095 12.2649
224 1 -1.1104 9.43369 2.06182 9.47244
226 2 2.2208 8.28335 3.54033 10.9195
218 2 2.2208 11.0307 3.39993 8.24498
289 1 -1.1104 6.89144 16.3926 9.6126
62 1 -1.1104 1.11184 10.6917 6.59095
239 1 -1.1104 4.09345 4.97767 6.62477
156 1 -1.1104 9.60581 19.0726 6.50722
236 1 -1.1104 1.11786 4.98646 6.56244
78 1 -1.1104 4.10478 10.4845 6.66451
65 1 -1.1104 6.85345 10.5701 6.65287
240 2 2.2208 5.4055 6.2875 10.9609
242 1 -1.1104 1.12409 7.70208 12.2513
244 1 -1.1104 1.37606 7.9405 9.35749
246 1 -1.1104 1.26272 4.95298 12.109
251 1 -1.1104 1.09405 4.97306 9.32303
255 1 -1.1104 3.92643 7.59717 12.1155
256 2 2.2208 2.52134 6.31945 8.03084
258 1 -1.1104 4.13438 7.9541 9.35945
260 1 -1.1104 4.04691 5.03013 12.4227
262 1 -1.1104 4.08693 5.0914 9.47125
253 1 -1.1104 6.89096 4.94424 9.55945
243 1 -1.1104 6.82718 7.83244 12.2868
248 1 -1.1104 6.88677 5.06672 12.494
241 2 2.2208 5.34474 12.1583 10.6777
247 1 -1.1104 1.15483 10.733 12.124
250 2 2.2208 5.55993 9.23517 7.8592
252 1 -1.1104 1.31228 10.6286 9.1798
257 2 2.2208 2.59549 12.0329 7.95412
259 2 2.2208 2.6951 9.21627 10.7554
261 1 -1.1104 4.1324 10.4997 12.2732
263 1 -1.1104 3.93255 10.8491 9.28719
387 2 2.2208 11.0514 0.806237 -0.407106
343 2 2.2208 -0.33682 9.21722 7.8651
311 2 2.2208 -0.204185 20.4629 8.23611
326 1 -1.1104 12.621 16.159 12.356
267 1 -1.1104 9.80844 7.70668 6.63996
269 1 -1.1104 9.64967 4.67993 6.70082
237 1 -1.1104 6.93983 5.11735 6.57396
249 1 -1.1104 6.94214 10.7427 12.2071
254 1 -1.1104 6.73097 10.5312 9.35852
245 1 -1.1104 6.79632 7.67847 9.4636
90 1 -1.1104 12.2369 10.3394 6.46029
268 1 -1.1104 9.72361 4.78339 9.50096
271 1 -1.1104 9.54539 5.0531 12.2812
273 1 -1.1104 9.57415 7.75603 9.58115
275 2 2.2208 8.24244 6.27877 8.11454
276 2 2.2208 11.0654 6.41248 11.0561
278 1 -1.1104 12.3559 7.81977 12.33
279 1 -1.1104 12.353 7.66457 9.65094
280 1 -1.1104 12.3918 4.94411 12.3594
283 1 -1.1104 12.3618 4.92372 9.70512
285 1 -1.1104 9.51468 7.78131 12.352
264 1 -1.1104 9.57193 10.7397 9.48667
270 1 -1.1104 9.56819 10.3776 12.2734
272 2 2.2208 8.17218 9.19425 10.843
274 2 2.2208 8.06938 12.1036 7.96978
277 2 2.2208 11.0464 11.8362 10.8533
281 1 -1.1104 12.53 10.464 12.2976
282 2 2.2208 11.0127 9.14106 8.0039
284 1 -1.1104 12.404 10.4535 9.31514
290 1 -1.1104 6.56417 13.4386 9.40262
365 2 2.2208 8.12872 11.9685 13.6167
133 1 -1.1104 3.81473 16.2583 6.5294
117 1 -1.1104 1.10712 16.2416 6.57978
112 1 -1.1104 6.75003 19.0893 6.80043
305 1 -1.1104 3.86691 13.4096 9.41613
299 1 -1.1104 1.11038 13.3345 12.2241
294 1 -1.1104 1.13266 13.2816 9.34527
287 1 -1.1104 3.97233 13.5157 12.0401
295 2 2.2208 5.38476 14.974 8.02519
309 2 2.2208 2.52794 20.553 10.8722
308 1 -1.1104 4.1024 16.3674 12.2131
307 1 -1.1104 1.19353 16.0907 12.0423
304 1 -1.1104 4.08473 16.2405 9.41901
303 2 2.2208 2.45635 17.7223 8.10982
301 1 -1.1104 3.87111 19.0931 9.47833
300 2 2.2208 5.4164 17.7056 10.8665
298 1 -1.1104 1.06845 18.7955 12.2664
310 2 2.2208 2.38758 14.7527 10.6853
293 2 2.2208 5.21291 20.5062 8.05211
292 1 -1.1104 1.12023 16.2345 9.27816
291 1 -1.1104 1.00155 19.0978 9.50166
286 1 -1.1104 3.78074 19.1923 12.3051
296 1 -1.1104 6.8081 19.0197 12.3908
288 1 -1.1104 6.9083 19.1838 9.43973
136 2 2.2208 -0.292815 20.3827 2.50538
322 1 -1.1104 9.4392 13.385 12.2024
306 1 -1.1104 6.81276 16.1967 12.2202
373 2 2.2208 11.014 14.6165 13.6562
330 1 -1.1104 12.4664 13.2664 12.1868
316 2 2.2208 8.20751 20.6223 10.88
317 2 2.2208 8.10496 14.8189 10.8219
401 2 2.2208 -0.204527 17.434 -0.360839
325 2 2.2208 11.1106 14.7027 7.99418
149 1 -1.1104 12.3899 15.8888 6.4245
143 1 -1.1104 12.4115 13.1772 6.61834
315 1 -1.1104 9.74274 16.4712 12.1852
327 1 -1.1104 12.3058 18.9953 9.36621
329 1 -1.1104 12.5547 18.8429 12.3027
320 2 2.2208 8.24721 17.7028 8.1507
314 1 -1.1104 9.60134 16.2027 9.32501
331 2 2.2208 11.211 17.6639 10.9034
318 1 -1.1104 9.69854 18.8581 9.42661
328 1 -1.1104 12.4458 13.3557 9.50009
321 1 -1.1104 9.71999 19.0986 12.2634
297 1 -1.1104 6.69721 13.4946 12.2317
111 1 -1.1104 6.84886 13.3621 6.57114
347 2 2.2208 2.54364 -4.78351 13.6311
405 2 2.2208 2.47183 20.4114 -0.36627
360 2 2.2208 5.48695 9.15513 13.5878
383 2 2.2208 2.59064 3.81874 -0.35486
398 2 2.2208 10.9991 6.32986 -0.272636
376 2 2.2208 8.25949 17.6389 13.4298
400 2 2.2208 10.9879 12.154 -0.342453
389 2 2.2208 8.2371 3.60458 -0.314207
359 2 2.2208 2.62983 6.33163 13.5012
372 2 2.2208 11.0896 20.287 13.6111
406 2 2.2208 5.42333 0.654299 16.6492
407 1 -1.1104 1.24193 -3.25118 17.8599
411 1 -1.1104 1.17116 -3.65689 15.1978
419 1 -1.1104 1.22665 -0.576618 17.807
421 2 2.2208 5.50922 -2.02231 19.1326
423 1 -1.1104 1.2685 -0.734809 15.1025
427 1 -1.1104 4.11663 -3.41987 18.1173
429 2 2.2208 2.48685 0.746582 19.3273
430 1 -1.1104 4.06964 -3.2282 15.2711
434 2 2.2208 2.51706 -1.95046 16.4267
436 1 -1.1104 4.09928 -0.693509 17.969
437 1 -1.1104 4.07834 -0.494475 15.1213
408 1 -1.1104 1.2993 2.17808 17.8173
413 1 -1.1104 1.23612 2.40489 14.9348
422 2 2.2208 5.55621 3.51508 19.4072
428 1 -1.1104 3.94441 2.09623 18.0716
432 1 -1.1104 3.95949 2.17097 15.2734
435 2 2.2208 2.69681 3.59053 16.5049
420 1 -1.1104 6.94131 -0.442076 17.974
414 1 -1.1104 1.20682 2.22937 20.6735
723 2 2.2208 -0.250267 17.4289 22.0474
425 1 -1.1104 7.00084 -0.716299 15.1334
417 1 -1.1104 6.83153 2.01765 15.0592
476 2 2.2208 -0.135828 20.3709 19.494
440 2 2.2208 5.51345 -4.83127 16.3373
443 2 2.2208 -0.0871059 -2.12682 19.3408
441 2 2.2208 2.52477 -4.79342 19.3131
442 2 2.2208 -0.111087 0.660774 16.5009
438 1 -1.1104 3.92591 -0.708578 20.6003
418 1 -1.1104 6.8801 2.09699 20.5933
724 2 2.2208 -0.254586 20.4263 25.1094
544 2 2.2208 -0.227864 3.66114 19.0937
669 2 2.2208 8.30971 -4.81231 24.9229
516 2 2.2208 -0.0919255 11.9184 16.4024
409 1 -1.1104 6.88845 -3.38445 17.7006
415 1 -1.1104 6.95431 -3.55798 15.1745
410 1 -1.1104 6.96241 2.27155 17.8183
474 2 2.2208 11.198 -4.83152 16.3889
393 2 2.2208 5.32451 6.34246 27.6998
449 2 2.2208 11.0314 0.805862 16.3701
450 1 -1.1104 12.3435 -3.51819 17.8115
452 1 -1.1104 12.4211 -3.42604 15.2312
456 1 -1.1104 12.3931 -0.659266 17.8348
457 2 2.2208 10.9527 -1.97877 19.3008
459 1 -1.1104 12.5436 -0.658596 14.8682
461 1 -1.1104 9.70825 -3.62548 18.0294
463 2 2.2208 8.36485 0.791411 19.3956
464 1 -1.1104 9.74355 -3.45257 14.9903
468 2 2.2208 8.36863 -2.15195 16.599
470 1 -1.1104 9.48629 -0.664385 17.8522
471 1 -1.1104 9.73803 -0.656007 15.1544
451 1 -1.1104 12.5351 2.1662 18.0494
454 1 -1.1104 12.5139 2.16778 15.2946
458 2 2.2208 11.1147 3.58536 19.3254
462 1 -1.1104 9.84812 2.25384 17.729
466 1 -1.1104 9.49859 2.26216 14.9551
469 2 2.2208 8.22179 3.53736 16.615
447 2 2.2208 -0.217064 17.5302 16.4931
467 1 -1.1104 9.65847 2.24893 20.7935
397 2 2.2208 -0.220616 6.40519 27.7011
725 2 2.2208 -0.0991534 14.7791 24.9044
439 2 2.2208 -0.220913 -4.82112 16.3933
349 2 2.2208 2.74746 0.940263 13.7575
368 2 2.2208 2.78217 17.5245 13.6974
482 2 2.2208 5.37983 6.23824 16.3871
484 1 -1.1104 1.06559 7.80402 17.8447
486 1 -1.1104 1.43119 7.67715 15.0274
490 1 -1.1104 1.14511 5.1073 17.6766
495 1 -1.1104 1.18217 5.08942 15.033
503 1 -1.1104 4.01934 7.72177 17.8625
504 2 2.2208 2.47674 6.29053 19.1394
506 1 -1.1104 4.30898 7.61305 14.9118
509 1 -1.1104 3.99285 4.68235 17.9173
511 1 -1.1104 3.89148 4.97691 15.1444
483 2 2.2208 5.39601 11.945 16.4179
491 1 -1.1104 1.0581 10.5031 17.7894
494 2 2.2208 5.29185 9.10929 19.3665
497 1 -1.1104 1.23825 10.4271 14.8483
505 2 2.2208 2.60201 11.92 19.2133
508 2 2.2208 2.6605 9.14261 16.3662
510 1 -1.1104 3.98165 10.6472 17.9113
513 1 -1.1104 4.08248 10.6347 14.9872
501 1 -1.1104 6.74933 10.704 14.9316
492 1 -1.1104 6.89492 5.0889 17.9628
487 1 -1.1104 1.2445 7.51319 20.736
514 1 -1.1104 4.13501 10.6777 20.6688
507 1 -1.1104 3.97669 7.8018 20.7444
512 1 -1.1104 3.86257 4.97803 20.8034
481 2 2.2208 -0.217281 6.38324 16.2791
665 1 -1.1104 9.52505 18.8695 23.3743
485 1 -1.1104 6.74657 7.73973 17.8426
499 1 -1.1104 6.71377 4.94097 15.0234
493 1 -1.1104 6.69343 10.605 17.8912
500 1 -1.1104 6.70304 4.93456 20.6148
488 1 -1.1104 6.88683 7.83636 14.9367
518 2 2.2208 11.115 6.35465 16.5701
520 1 -1.1104 12.467 7.92842 17.8295
521 1 -1.1104 12.4464 7.82353 15.0671
523 1 -1.1104 12.5071 4.95416 18.0393
526 1 -1.1104 12.4699 5.0183 15.1602
530 1 -1.1104 9.72928 7.7834 17.7646
531 2 2.2208 8.27838 6.50128 19.3509
533 1 -1.1104 9.71057 7.80754 15.0148
536 1 -1.1104 9.51678 5.04584 18.1388
538 1 -1.1104 9.64522 4.93081 15.401
519 2 2.2208 11.0852 11.8553 16.4793
524 1 -1.1104 12.4472 10.6308 18.0665
525 2 2.2208 10.956 9.11061 19.1639
528 1 -1.1104 12.5811 10.5088 15.2686
532 2 2.2208 8.30573 11.9724 19.2995
535 2 2.2208 8.24971 9.19867 16.5044
537 1 -1.1104 9.50715 10.4335 17.8327
540 1 -1.1104 9.4353 10.5465 15.0355
522 1 -1.1104 12.2246 7.56829 20.5429
541 1 -1.1104 9.58253 10.6467 20.6587
700 2 2.2208 8.16012 20.4961 22.1162
355 2 2.2208 8.28236 0.800981 13.7567
367 2 2.2208 -0.231567 3.65337 13.6653
382 2 2.2208 2.63894 -1.89402 27.6982
546 1 -1.1104 1.21132 13.3932 17.8925
550 1 -1.1104 1.258 13.3445 14.9527
566 1 -1.1104 4.0465 13.4729 17.9971
569 1 -1.1104 4.0458 13.3996 14.9626
573 2 2.2208 2.64401 14.7337 16.3503
545 2 2.2208 5.51105 17.7111 16.4961
547 1 -1.1104 1.02874 18.9634 17.8884
552 1 -1.1104 1.20394 18.8646 15.2615
558 1 -1.1104 1.26524 16.0701 17.6768
560 2 2.2208 5.60932 14.8079 19.2206
561 2 2.2208 5.45398 20.4604 19.3578
562 1 -1.1104 1.14923 15.986 14.8365
567 1 -1.1104 4.19559 19.1424 17.7471
568 2 2.2208 2.71622 17.6307 19.1947
571 1 -1.1104 4.11304 19.0729 14.9628
574 2 2.2208 2.56797 20.3633 16.5304
575 1 -1.1104 4.15682 16.3736 17.7297
576 1 -1.1104 4.06818 16.2238 15.1562
564 1 -1.1104 6.64527 16.3453 14.7935
577 1 -1.1104 4.03744 16.424 20.6929
553 1 -1.1104 1.05711 18.8748 20.7419
551 1 -1.1104 1.34202 13.3347 20.6588
563 1 -1.1104 1.23905 16.0805 20.6187
369 2 2.2208 5.45051 20.5186 13.757
570 1 -1.1104 3.98627 13.5449 20.6306
730 1 -1.1104 6.84265 13.3299 26.3075
747 1 -1.1104 6.72393 16.3255 23.5421
548 1 -1.1104 6.90646 13.3428 17.8305
554 1 -1.1104 6.85506 13.5228 14.881
556 1 -1.1104 6.80884 19.2337 15.1664
559 1 -1.1104 6.95333 16.2175 17.8206
549 1 -1.1104 6.84175 18.9691 17.787
582 1 -1.1104 12.4664 13.4022 17.9009
584 1 -1.1104 12.5552 13.261 14.8822
593 1 -1.1104 9.61163 13.1939 17.7926
596 1 -1.1104 9.69153 13.3967 14.9901
600 2 2.2208 8.16343 14.7326 16.3628
581 2 2.2208 11.0015 17.4228 16.4622
583 1 -1.1104 12.6231 18.925 17.8843
586 1 -1.1104 12.4064 19.074 15.0868
588 1 -1.1104 12.506 16.038 17.8515
589 2 2.2208 11.0347 14.7934 19.2393
590 2 2.2208 11.023 20.3484 19.31
591 1 -1.1104 12.3683 16.1058 14.9872
594 1 -1.1104 9.87151 18.8746 17.9024
595 2 2.2208 8.27572 17.5697 19.2762
598 1 -1.1104 9.43184 18.951 15.083
601 2 2.2208 8.34481 20.2898 16.5062
602 1 -1.1104 9.59687 15.8911 17.8361
603 1 -1.1104 9.52745 16.1841 14.9257
587 1 -1.1104 12.4305 18.9424 20.666
394 2 2.2208 2.66736 9.26172 27.6017
557 1 -1.1104 6.95274 18.9732 20.6469
565 1 -1.1104 6.8095 16.0203 20.8073
604 1 -1.1104 9.66857 16.1449 20.5819
585 1 -1.1104 12.6017 13.3481 20.4194
699 2 2.2208 8.24948 14.7613 22.1355
702 2 2.2208 -0.322205 9.12558 24.8692
433 1 -1.1104 4.01947 2.21787 20.8495
412 1 -1.1104 1.26962 -3.42174 20.6216
431 1 -1.1104 4.17759 -3.4999 20.7541
357 2 2.2208 11.0437 3.51335 13.7548
599 1 -1.1104 9.71908 19.1375 20.7569
644 2 2.2208 -0.2239 3.66256 24.9877
424 1 -1.1104 1.23782 -0.637417 20.6819
416 1 -1.1104 6.83803 -3.49706 20.5508
609 2 2.2208 5.23852 0.660886 22.1065
610 1 -1.1104 1.15367 -3.37173 23.5875
614 1 -1.1104 1.35353 -3.24673 26.2402
618 1 -1.1104 1.15857 -0.62253 23.3816
620 2 2.2208 5.31717 -2.04247 24.7794
622 1 -1.1104 1.32526 -0.546593 26.3024
624 1 -1.1104 3.93618 -3.45301 23.4921
626 2 2.2208 2.65936 0.629535 24.9599
627 1 -1.1104 4.12771 -3.46043 26.2111
629 2 2.2208 2.6264 -2.07704 22.1835
631 1 -1.1104 3.85891 -0.733907 23.4718
632 1 -1.1104 4.15795 -0.687124 26.2846
616 1 -1.1104 6.93617 -3.58552 26.2234
611 1 -1.1104 1.11035 2.28248 23.6727
615 1 -1.1104 1.19545 2.2893 26.4772
621 2 2.2208 5.45014 3.51556 24.7903
625 1 -1.1104 3.9189 2.0186 23.5711
628 1 -1.1104 4.02757 2.01513 26.4666
630 2 2.2208 2.64166 3.59563 22.1713
642 2 2.2208 -0.279128 -2.03922 24.8506
597 1 -1.1104 9.89075 13.5149 20.8317
732 1 -1.1104 6.8227 16.17 26.2625
348 2 2.2208 5.54436 -2.09634 13.7208
635 1 -1.1104 12.6495 18.944 26.4646
453 1 -1.1104 12.3469 -3.47863 20.5872
472 1 -1.1104 9.75404 -0.508344 20.593
703 2 2.2208 -0.221 11.9591 21.9297
426 1 -1.1104 6.92762 -0.752582 20.9008
619 1 -1.1104 6.66914 -0.591408 23.5431
623 1 -1.1104 6.79911 -0.794551 26.3133
612 1 -1.1104 6.86323 -3.46064 23.3925
617 1 -1.1104 6.71787 2.17767 26.2455
613 1 -1.1104 6.93776 2.1492 23.4544
465 1 -1.1104 9.54042 -3.27742 20.9108
460 1 -1.1104 12.5879 -0.638179 20.8592
455 1 -1.1104 12.5049 2.11165 20.7483
645 2 2.2208 11.0573 0.744605 22.2005
646 1 -1.1104 12.5197 -3.50627 23.4821
648 1 -1.1104 12.5847 -3.17283 26.2789
650 1 -1.1104 12.3299 -0.745444 23.5612
651 2 2.2208 11.2286 -1.91525 24.8912
653 1 -1.1104 12.349 -0.682146 26.2714
654 1 -1.1104 9.78596 -3.31621 23.6415
656 2 2.2208 8.2275 0.765473 25.0769
657 1 -1.1104 9.74301 -3.31448 26.3731
659 2 2.2208 8.21686 -1.99039 22.1972
661 1 -1.1104 9.50203 -0.555062 23.4013
662 1 -1.1104 9.64997 -0.638142 26.335
647 1 -1.1104 12.4847 2.0376 23.6131
649 1 -1.1104 12.3465 2.15693 26.4664
655 1 -1.1104 9.66043 2.1555 23.6133
658 1 -1.1104 9.60919 2.07182 26.4623
660 2 2.2208 8.25102 3.53299 22.179
652 2 2.2208 11.0493 3.4681 24.941
739 1 -1.1104 6.83961 13.2752 23.5656
498 1 -1.1104 1.08981 10.4201 20.2915
489 1 -1.1104 6.74135 7.74719 20.7395
496 1 -1.1104 1.07589 4.91186 20.6533
643 2 2.2208 -0.178765 0.819899 22.0785
396 2 2.2208 -0.350578 11.8548 27.7213
636 1 -1.1104 12.5515 16.2607 23.5591
674 2 2.2208 5.3599 6.46447 22.0295
676 1 -1.1104 1.14332 7.75306 23.5192
678 1 -1.1104 1.06571 7.8065 26.4111
680 1 -1.1104 1.19168 5.05776 23.556
685 1 -1.1104 1.09285 5.10226 26.3119
689 1 -1.1104 3.98716 7.70887 23.4195
690 2 2.2208 2.59569 6.37489 24.8619
692 1 -1.1104 3.87474 7.94 26.0695
694 1 -1.1104 4.0045 4.79276 23.7014
696 1 -1.1104 3.87087 5.04782 26.4016
679 1 -1.1104 6.75315 7.66674 26.3006
675 2 2.2208 5.38559 11.9973 22.1442
681 1 -1.1104 1.01315 10.4092 23.1647
684 2 2.2208 5.13856 9.17068 24.7507
686 1 -1.1104 1.23805 10.7287 26.0131
691 2 2.2208 2.63193 12.054 24.8299
693 2 2.2208 2.52573 9.20071 22.0643
695 1 -1.1104 3.79018 10.4114 23.375
697 1 -1.1104 4.02226 10.5874 26.2326
444 2 2.2208 -0.140824 6.35231 22.1247
607 2 2.2208 11.1264 17.5919 22.0937
555 1 -1.1104 6.90976 13.374 20.6926
534 1 -1.1104 9.50605 7.95468 20.6638
502 1 -1.1104 6.91281 10.5464 20.7665
682 1 -1.1104 6.8277 5.04641 23.3047
687 1 -1.1104 6.74929 5.08224 26.2759
688 1 -1.1104 6.74204 10.4574 26.4922
683 1 -1.1104 6.73385 10.5488 23.6392
677 1 -1.1104 6.75384 7.93112 23.6148
539 1 -1.1104 9.71439 5.12762 20.9503
529 1 -1.1104 12.5892 10.2813 20.8277
527 1 -1.1104 12.6587 4.79216 20.6945
706 1 -1.1104 9.50723 4.84841 26.321
708 1 -1.1104 9.82837 4.97875 23.6745
710 1 -1.1104 9.54385 7.73029 26.4477
712 2 2.2208 8.19005 6.38301 24.8627
713 2 2.2208 11.1344 6.30367 22.1879
715 1 -1.1104 12.4512 7.75874 23.5718
716 1 -1.1104 12.4626 7.74892 26.3808
717 1 -1.1104 12.5523 4.89252 23.5971
720 1 -1.1104 12.4219 4.98871 26.401
722 1 -1.1104 9.72179 7.74978 23.314
705 1 -1.1104 9.60433 10.4305 26.5392
707 1 -1.1104 9.65128 10.5472 23.5771
709 2 2.2208 8.27434 9.19889 22.1891
711 2 2.2208 8.14183 11.9403 25.1015
714 2 2.2208 11.0359 11.7734 22.0739
718 1 -1.1104 12.2792 10.4833 23.5098
719 2 2.2208 10.9261 9.11765 25.0021
721 1 -1.1104 12.3989 10.5305 26.328
592 1 -1.1104 12.5072 16.0846 20.8057
448 2 2.2208 -0.249317 14.7965 19.2358
667 2 2.2208 8.22317 17.4892 24.8658
572 1 -1.1104 3.92261 19.0984 20.5982
746 1 -1.1104 4.01676 13.2509 26.4176
731 1 -1.1104 4.02553 13.4178 23.5287
735 1 -1.1104 1.24593 13.3048 26.395
741 1 -1.1104 1.27439 13.34 23.5311
743 1 -1.1104 3.9222 19.067 26.1923
748 1 -1.1104 1.35999 16.1423 23.6062
745 1 -1.1104 3.96738 15.9672 26.3665
744 2 2.2208 2.53279 17.6293 25.0602
750 2 2.2208 2.45229 20.3636 22.2746
749 1 -1.1104 4.07257 16.3095 23.4593
727 2 2.2208 2.71062 14.8902 22.1329
729 1 -1.1104 3.71277 19.0821 23.5337
733 1 -1.1104 1.18344 18.8613 26.4875
734 1 -1.1104 1.14384 16.1097 26.4047
737 2 2.2208 5.52914 20.535 24.9184
738 2 2.2208 5.42704 14.7245 24.9089
740 1 -1.1104 1.10171 18.9192 23.5504
742 2 2.2208 5.46824 17.7104 22.1232
736 1 -1.1104 6.70726 19.0173 23.5986
670 1 -1.1104 6.84036 19.0016 26.3964
663 1 -1.1104 12.4346 16.1281 26.2919
701 1 -1.1104 9.51582 15.9941 23.4987
704 1 -1.1104 9.59838 16.1164 26.1298
641 2 2.2208 10.9865 20.4418 25.0646
698 1 -1.1104 9.58624 18.8424 26.2005
638 2 2.2208 10.9484 14.6967 24.9299
664 1 -1.1104 9.49788 13.3305 23.6342
608 1 -1.1104 12.347 13.3324 23.4844
633 1 -1.1104 12.4357 19.0545 23.617
673 1 -1.1104 9.3739 13.4154 26.506
634 1 -1.1104 12.3937 13.3361 26.1651
399 2 2.2208 8.11464 9.19182 27.7479
404 2 2.2208 5.47124 17.5817 27.748
385 2 2.2208 5.60741 -4.83959 27.6948
384 2 2.2208 -0.147628 -4.83903 27.656
346 2 2.2208 -0.159566 -2.06436 13.7682
364 2 2.2208 11.0644 9.13147 13.7089
377 2 2.2208 8.02709 14.8382 27.6926
363 2 2.2208 8.15425 6.4406 13.7571
379 2 2.2208 8.13824 20.5499 27.687
381 2 2.2208 5.42105 0.739683 27.7108
388 2 2.2208 8.35796 -2.08435 27.7548
378 2 2.2208 10.9185 17.5152 27.6735
751 2 2.2208 5.34822 23.4835 5.29459
753 1 -1.1104 1.07935 24.6677 1.11875
754 1 -1.1104 1.04721 24.6637 3.89989
755 1 -1.1104 1.29345 21.9441 1.26142
757 2 2.2208 5.35357 26.1525 2.45512
758 1 -1.1104 1.26421 21.8509 3.94801
760 1 -1.1104 3.89697 24.806 1.07583
761 2 2.2208 2.5871 23.4325 2.52795
763 1 -1.1104 3.91372 24.7649 3.89921
764 2 2.2208 2.45342 26.1171 5.47336
765 1 -1.1104 4.26518 22.0578 1.08903
767 1 -1.1104 4.0352 21.9909 3.99782
759 1 -1.1104 1.01401 27.4392 4.21084
766 1 -1.1104 4.15823 27.6756 1.1747
756 1 -1.1104 1.03623 27.441 1.2977
768 1 -1.1104 3.86112 27.614 3.95176
777 1 -1.1104 6.552 27.5169 3.77873
752 2 2.2208 5.41199 28.9596 5.26068
762 2 2.2208 2.50406 28.8675 2.42551
774 1 -1.1104 6.878 22.0139 1.04533
892 1 -1.1104 1.03834 24.6796 6.93356
899 1 -1.1104 3.87865 22.0436 6.6258
894 1 -1.1104 1.06764 21.7026 6.80071
898 1 -1.1104 3.73593 24.8559 6.89215
896 1 -1.1104 6.72635 21.8519 6.72522
1074 2 2.2208 -0.502359 26.1037 8.01652
1136 2 2.2208 13.5109 31.7044 -0.22142
773 1 -1.1104 6.59249 24.686 3.79049
893 1 -1.1104 6.61694 24.6079 6.68076
772 1 -1.1104 6.68527 24.7066 1.06693
775 1 -1.1104 6.71468 27.5901 1.05252
897 1 -1.1104 6.67105 27.4641 6.57413
1675 1 -1.1104 3.54296 47.0843 6.49469
776 1 -1.1104 6.83792 21.8087 3.8619
778 2 2.2208 11.0325 23.1831 5.18124
780 1 -1.1104 12.2643 24.7454 1.12456
781 1 -1.1104 12.4356 24.6436 3.8424
782 1 -1.1104 12.4051 21.7656 1.10367
784 2 2.2208 10.9044 25.947 2.5108
785 1 -1.1104 12.3376 21.6337 3.92988
787 1 -1.1104 9.57362 24.4452 1.10397
788 2 2.2208 8.15362 23.3223 2.50391
790 1 -1.1104 9.46243 24.6945 3.94321
791 2 2.2208 7.95063 25.9681 5.33576
792 1 -1.1104 9.64473 21.6548 1.01651
793 1 -1.1104 9.44034 27.3703 1.06733
794 1 -1.1104 9.66818 21.8626 3.85508
783 1 -1.1104 12.2059 27.5816 1.10903
795 1 -1.1104 9.4 27.2994 3.9905
786 1 -1.1104 12.1948 27.3931 3.77912
779 2 2.2208 10.9421 28.804 5.27394
789 2 2.2208 8.08996 28.7586 2.38448
925 1 -1.1104 12.5162 24.6041 6.62602
928 1 -1.1104 9.58092 24.609 6.9912
929 1 -1.1104 9.4081 21.9348 6.64969
1519 1 -1.1104 12.2123 47.0947 0.793061
820 2 2.2208 -0.406141 34.6059 5.21016
770 2 2.2208 -0.239306 23.2637 5.4713
800 1 -1.1104 1.03639 30.2322 1.04207
803 1 -1.1104 1.19947 30.4002 3.80676
806 1 -1.1104 0.900797 33.2019 1.01467
807 2 2.2208 5.3167 31.6578 2.30462
809 1 -1.1104 1.06011 33.1576 3.88756
811 1 -1.1104 3.87226 30.3292 0.968278
814 1 -1.1104 3.9764 30.3997 3.61078
816 2 2.2208 2.48941 31.6896 5.19617
818 1 -1.1104 3.72397 33.2378 0.928227
819 1 -1.1104 3.81653 32.9972 3.56797
799 2 2.2208 5.23341 34.6071 5.09379
801 1 -1.1104 0.963174 36.0924 1.03246
804 1 -1.1104 0.831447 36.016 3.84044
808 2 2.2208 5.19064 37.2824 2.37942
812 1 -1.1104 3.83656 35.9239 0.954686
813 2 2.2208 2.29267 34.6767 2.32092
815 1 -1.1104 3.74402 35.9904 3.70499
817 2 2.2208 2.31292 37.3985 5.19021
802 1 -1.1104 6.67921 35.946 0.904242
805 1 -1.1104 6.53619 35.7835 3.66786
824 1 -1.1104 6.84575 30.1809 3.8351
823 1 -1.1104 6.68039 30.1926 1.04593
825 1 -1.1104 6.54536 33.0237 0.909669
955 1 -1.1104 3.74762 30.3308 6.66688
956 1 -1.1104 3.75268 35.9506 6.61895
950 1 -1.1104 0.996768 36.0082 6.60338
957 1 -1.1104 4.0304 33.0712 6.6411
810 1 -1.1104 6.66456 33.0442 3.62679
951 1 -1.1104 6.58552 30.2593 6.67301
953 1 -1.1104 0.993532 33.1496 6.54765
954 1 -1.1104 6.70667 33.1128 6.65393
952 1 -1.1104 6.64211 35.8559 6.41785
827 1 -1.1104 12.2197 30.2947 1.08585
829 1 -1.1104 12.3406 30.046 3.97158
831 1 -1.1104 12.379 33.0342 1.18771
832 2 2.2208 10.8241 31.5625 2.49494
834 1 -1.1104 12.226 32.8358 3.97929
835 1 -1.1104 9.35079 30.0811 0.92314
838 1 -1.1104 9.37894 30.2528 3.78579
840 2 2.2208 8.01232 31.5983 5.24159
842 1 -1.1104 9.68094 32.8656 0.814518
843 1 -1.1104 9.5436 33.2406 3.58567
826 2 2.2208 10.7885 34.3882 5.13709
828 1 -1.1104 12.1176 35.8459 1.19953
830 1 -1.1104 12.3338 35.7713 3.86307
833 2 2.2208 10.7925 37.2573 2.39612
836 1 -1.1104 9.43342 35.8192 1.09543
837 2 2.2208 8.01089 34.5799 2.26867