ITEM: TIMESTEP
100000
ITEM: NUMBER OF ATOMS
17700
ITEM: BOX BOUNDS pp pp pp
-4.3922813371453623e-01 2.7779228133714408e+01
-5.2809668735908097e+00 3.3336096687360907e+02
-4.5202704249668924e-01 2.7792027042497082e+01
ITEM: ATOMS id type q x y z
1 2 2.2208 5.50483 0.44761 5.38924
2 1 -1.1104 1.32686 -3.91688 0.979388
6 1 -1.1104 1.26267 -3.90708 3.89312
10 1 -1.1104 1.20217 -1.22428 1.27682
12 2 2.2208 5.40467 -2.25024 2.6297
14 1 -1.1104 1.25673 -0.985605 4.02034
16 1 -1.1104 4.08398 -4.01152 0.862508
18 2 2.2208 2.58167 0.301596 2.438
19 1 -1.1104 4.10069 -3.78492 3.83005
21 2 2.2208 2.77743 -2.5461 5.30174
23 1 -1.1104 4.13043 -0.974736 0.903509
24 1 -1.1104 3.85037 -1.05868 3.82708
15 1 -1.1104 6.76199 -1.03811 3.87525
171 1 -1.1104 7.04335 -1.18597 6.73778
8983 2 2.2208 -0.0665691 0.103335 5.35418
8979 2 2.2208 -0.0377116 -2.44808 8.23872
8227 2 2.2208 8.33578 -5.18693 7.94672
8891 2 2.2208 -0.175152 11.6302 10.9828
639 2 2.2208 11.0004 11.6392 -0.259211
320 2 2.2208 5.42879 6.02577 -0.18189
524 2 2.2208 10.9839 17.3433 -0.22926
8 1 -1.1104 6.7908 -3.92686 3.66044
11 1 -1.1104 6.89196 -1.03884 1.1159
4 1 -1.1104 6.75594 -3.92954 0.909628
31 2 2.2208 11.0514 0.341848 5.11264
32 1 -1.1104 12.326 -3.88698 0.967906
34 1 -1.1104 12.444 -3.79493 3.69979
36 1 -1.1104 12.3257 -1.08868 0.931652
37 2 2.2208 10.9731 -2.5681 2.25068
39 1 -1.1104 12.626 -0.935816 3.63603
40 1 -1.1104 9.45945 -3.87115 0.82964
42 2 2.2208 8.30882 0.320819 2.59401
43 1 -1.1104 9.6821 -3.89182 3.79667
45 2 2.2208 8.41273 -2.58249 5.24233
47 1 -1.1104 9.62149 -0.788514 1.12979
48 1 -1.1104 9.77407 -1.22159 3.86014
205 1 -1.1104 12.645 -3.87288 6.58942
210 1 -1.1104 9.78623 -1.13484 6.73268
8980 2 2.2208 -0.195771 0.324699 11.1982
359 2 2.2208 -0.24501 0.442557 -0.401132
358 2 2.2208 8.13355 14.5438 -0.227783
8829 2 2.2208 -0.209044 6.13888 5.07335
8155 2 2.2208 2.68335 -5.22585 8.01174
615 2 2.2208 2.50712 8.77892 -0.40687
3 1 -1.1104 1.03279 1.85958 1.05704
7 1 -1.1104 1.11487 1.61219 3.87424
13 2 2.2208 5.52754 3.16295 2.50675
17 1 -1.1104 3.87667 1.83242 1.30006
20 1 -1.1104 4.0062 1.9576 3.96638
22 2 2.2208 2.53953 3.18393 5.17925
54 2 2.2208 5.20756 6.02765 5.50316
56 1 -1.1104 0.671943 7.47811 0.928826
60 1 -1.1104 1.3338 4.79753 0.896782
67 1 -1.1104 1.16681 4.43657 3.73136
72 2 2.2208 2.5817 5.87538 2.43117
76 1 -1.1104 4.10853 4.52062 1.16632
79 1 -1.1104 4.24661 4.7635 3.957
74 1 -1.1104 4.03905 7.58136 3.82566
71 1 -1.1104 3.76366 7.33496 1.00084
5 1 -1.1104 6.64943 1.89373 1.14343
58 1 -1.1104 1.28081 7.48266 3.64333
69 1 -1.1104 7.06105 4.73648 3.87985
239 1 -1.1104 3.82726 4.68809 6.75742
167 1 -1.1104 1.37368 1.61013 6.54921
9 1 -1.1104 7.08309 1.85934 4.04639
82 2 2.2208 10.8176 14.488 8.17477
25 2 2.2208 10.9213 17.299 10.9447
8984 2 2.2208 -0.358336 3.09033 2.35359
394 2 2.2208 2.59227 20.3271 -0.255124
59 1 -1.1104 6.6416 7.33954 4.07999
63 1 -1.1104 6.80826 4.55508 1.05454
57 1 -1.1104 6.85607 7.50842 1.07033
33 1 -1.1104 12.3621 1.81462 1.10897
35 1 -1.1104 12.4691 2.03471 4.04284
38 2 2.2208 10.9266 3.18498 2.43144
41 1 -1.1104 9.46202 1.8285 0.980909
44 1 -1.1104 9.75939 1.58748 3.7401
46 2 2.2208 8.32184 3.28735 5.33596
84 2 2.2208 11.0981 6.24512 5.3137
88 1 -1.1104 12.4985 4.463 1.02462
92 1 -1.1104 12.3013 4.85455 3.70691
95 2 2.2208 8.22112 6.12781 2.79043
99 1 -1.1104 9.5713 4.61415 1.24039
102 1 -1.1104 9.75826 4.62039 4.00635
87 1 -1.1104 12.3185 7.75762 4.06858
94 1 -1.1104 9.58123 7.21639 0.964679
97 1 -1.1104 9.52451 7.59946 3.90669
266 1 -1.1104 12.6591 4.62705 6.56666
209 1 -1.1104 9.76999 1.54992 6.86725
86 1 -1.1104 12.5291 7.44949 1.32667
8284 2 2.2208 5.37053 -5.29771 5.16105
17307 2 2.2208 0.0334822 -5.27707 10.9925
55 2 2.2208 5.40306 11.7354 5.46212
61 1 -1.1104 1.16219 10.0653 0.928475
66 2 2.2208 5.34945 8.81172 2.44426
68 1 -1.1104 0.889628 10.2883 3.72358
73 2 2.2208 2.40438 11.7592 2.52809
75 2 2.2208 2.42173 9.02725 5.14115
77 1 -1.1104 4.15916 10.2373 1.08345
80 1 -1.1104 3.71102 10.358 4.00147
107 1 -1.1104 1.20994 13.3282 1.0952
113 1 -1.1104 1.26178 13.2628 4.02985
123 1 -1.1104 3.8831 13.1528 1.19618
128 1 -1.1104 3.77443 13.1478 4.00773
108 1 -1.1104 1.10227 13.2713 6.88336
64 1 -1.1104 6.85107 10.1576 1.18958
8696 2 2.2208 -0.197549 19.9044 8.33582
315 2 2.2208 2.55859 -2.42735 -0.452662
111 1 -1.1104 6.92214 13.2607 6.79594
110 1 -1.1104 6.84811 13.0804 1.11921
70 1 -1.1104 6.35132 10.2696 3.90643
115 1 -1.1104 6.85114 13.011 3.96146
85 2 2.2208 10.8748 11.7164 5.28541
89 1 -1.1104 12.4684 10.1473 1.14018
91 2 2.2208 11.1283 8.87341 2.46431
93 1 -1.1104 12.2998 10.4954 3.95946
96 2 2.2208 8.00002 11.66 2.46257
98 2 2.2208 7.98335 8.95489 5.32189
100 1 -1.1104 9.99251 10.3006 0.945773
103 1 -1.1104 9.1379 10.2768 3.84759
142 1 -1.1104 12.3796 12.9414 1.0991
146 1 -1.1104 12.4812 13.2267 4.14044
153 1 -1.1104 9.6731 13.133 1.05706
158 1 -1.1104 9.56535 13.2538 4.06616
8968 2 2.2208 -0.161241 5.99603 11.0128
199 2 2.2208 7.97766 14.3928 11.1571
143 1 -1.1104 12.3361 13.0706 6.71897
119 2 2.2208 5.27355 14.5425 2.48343
130 2 2.2208 2.42135 14.4379 5.43684
106 2 2.2208 5.30938 17.2785 5.39681
109 1 -1.1104 0.981946 18.6308 1.29147
114 1 -1.1104 1.11678 18.9012 4.11522
116 1 -1.1104 1.08395 16.0187 0.924475
120 2 2.2208 5.32668 20.0175 2.57348
121 1 -1.1104 1.21966 16.157 3.80515
125 1 -1.1104 3.86361 18.7778 1.07237
127 2 2.2208 2.58276 17.4599 2.62584
129 1 -1.1104 4.01338 18.7188 3.94505
131 2 2.2208 2.61426 20.145 5.43644
132 1 -1.1104 4.25352 15.9419 1.03902
134 1 -1.1104 3.90506 15.9607 4.03857
117 1 -1.1104 1.01049 15.8121 6.79351
138 1 -1.1104 6.73282 18.623 1.04035
126 1 -1.1104 4.1018 18.817 6.71744
316 2 2.2208 2.71515 3.38401 -0.368841
301 2 2.2208 -0.214011 -2.37494 2.5727
318 2 2.2208 8.12231 -2.55743 -0.40189
319 2 2.2208 8.2154 3.06752 -0.361894
8670 2 2.2208 -0.388388 14.4525 8.2218
140 1 -1.1104 6.88955 16.029 1.15056
139 1 -1.1104 6.98289 18.599 4.05619
122 1 -1.1104 6.77719 15.84 3.90132
160 2 2.2208 8.20077 14.5704 5.23411
150 2 2.2208 11.0266 14.6746 2.53897
141 2 2.2208 11.0699 17.3507 5.3664
144 1 -1.1104 12.4304 18.6718 1.16581
147 1 -1.1104 12.4544 18.7685 3.94342
148 1 -1.1104 12.651 15.7178 1.26611
151 2 2.2208 11.0567 20.1463 2.59501
152 1 -1.1104 12.5076 15.9356 3.90084
155 1 -1.1104 9.49759 18.6326 1.23546
157 2 2.2208 8.26274 17.2968 2.6025
159 1 -1.1104 9.7696 18.6177 4.19958
161 2 2.2208 8.14265 20.045 5.47399
162 1 -1.1104 9.83544 16.0066 1.12306
164 1 -1.1104 9.67519 15.8639 3.91117
156 1 -1.1104 9.60025 18.7824 6.96935
118 1 -1.1104 6.84799 15.9552 6.76839
112 1 -1.1104 6.81561 18.6792 6.87375
28 1 -1.1104 9.31144 15.7638 9.63484
8285 2 2.2208 2.74782 -5.23764 2.48771
640 2 2.2208 8.26911 8.78698 -0.43667
8288 2 2.2208 5.28768 -5.25035 10.7308
174 1 -1.1104 4.12118 -1.05436 6.6021
172 1 -1.1104 4.09417 -3.91086 6.63324
166 1 -1.1104 1.33646 -3.97392 6.52434
170 1 -1.1104 1.43131 -1.17712 6.64708
391 2 2.2208 2.48667 14.4976 -0.231764
136 2 2.2208 8.04378 17.21 8.21337
175 2 2.2208 5.51105 0.301671 10.7568
176 1 -1.1104 1.52072 -3.86205 12.2296
180 1 -1.1104 1.35949 -3.70106 9.33555
184 1 -1.1104 1.22406 -1.43671 12.2103
186 2 2.2208 5.54711 -2.43832 8.06633
188 1 -1.1104 1.30859 -0.953759 9.39926
190 1 -1.1104 4.02382 -3.65729 12.0769
192 2 2.2208 2.6261 0.403073 7.96265
193 1 -1.1104 4.15685 -3.81552 9.28281
195 2 2.2208 2.66995 -2.37065 10.6393
197 1 -1.1104 4.01544 -0.865896 12.0878
198 1 -1.1104 4.27013 -0.931624 9.24352
185 1 -1.1104 6.73912 -1.03723 12.3458
182 1 -1.1104 6.87659 -3.72766 9.4047
165 1 -1.1104 9.58718 18.6312 9.61954
168 1 -1.1104 6.97085 -3.83237 6.40395
208 1 -1.1104 9.84838 -3.95256 6.50943
207 1 -1.1104 12.5533 -1.26243 6.74132
8899 2 2.2208 -0.363382 11.8886 5.38137
229 1 -1.1104 9.48015 16.0327 12.573
178 1 -1.1104 7.10153 -3.84096 12.2973
189 1 -1.1104 6.98474 -1.0682 9.54864
145 1 -1.1104 12.4284 18.8428 6.74566
211 2 2.2208 11.1868 0.368096 10.9324
212 1 -1.1104 12.7146 -3.89197 12.3151
214 1 -1.1104 12.441 -3.86251 9.43106
216 1 -1.1104 12.2664 -1.16647 12.2981
217 2 2.2208 11.0939 -2.66562 8.07161
219 1 -1.1104 12.4444 -0.883833 9.51725
220 1 -1.1104 9.76797 -3.87812 12.3516
222 2 2.2208 8.36791 0.192092 8.1463
223 1 -1.1104 9.84358 -4.10465 9.41919
225 2 2.2208 8.38792 -2.54424 11.0385
227 1 -1.1104 9.59651 -0.985878 12.2094
228 1 -1.1104 9.74771 -1.34225 9.44888
135 1 -1.1104 9.65387 18.7895 12.3854
149 1 -1.1104 12.4303 15.9025 6.81934
234 1 -1.1104 1.089 7.45961 6.42972
169 1 -1.1104 7.10461 1.73342 6.75432
173 1 -1.1104 4.09468 1.86462 6.69509
236 1 -1.1104 1.16507 4.35039 6.7444
201 2 2.2208 8.24136 20.1102 11.1756
238 1 -1.1104 3.91903 7.60775 6.9836
177 1 -1.1104 1.1955 1.74396 12.2958
181 1 -1.1104 1.49443 1.8687 9.24831
187 2 2.2208 5.56829 3.18149 8.12657
191 1 -1.1104 3.9168 1.75717 12.2737
194 1 -1.1104 4.11586 1.68687 9.45772
196 2 2.2208 2.57477 3.1072 10.8985
240 2 2.2208 5.44297 6.06385 10.9152
246 1 -1.1104 1.06777 4.53255 12.5619
251 1 -1.1104 1.35472 4.58674 9.59369
255 1 -1.1104 3.97483 7.50014 12.496
256 2 2.2208 2.617 5.98874 8.09525
260 1 -1.1104 3.95852 4.57716 12.2073
262 1 -1.1104 4.15453 4.63317 9.47864
244 1 -1.1104 1.11626 7.28236 9.28776
258 1 -1.1104 4.10392 7.21582 9.62802
242 1 -1.1104 1.14164 7.37239 12.4062
248 1 -1.1104 6.96809 4.52691 12.2436
245 1 -1.1104 6.89339 7.43474 9.56047
183 1 -1.1104 7.08791 1.69118 9.57386
8865 2 2.2208 -0.388037 17.3093 5.44443
83 2 2.2208 10.9793 20.0445 8.23857
309 2 2.2208 8.09948 0.4769 13.6158
235 1 -1.1104 6.94954 7.45927 6.88797
269 1 -1.1104 9.58562 4.42958 6.70964
179 1 -1.1104 6.79538 1.81833 12.4377
253 1 -1.1104 7.12988 4.48233 9.71783
243 1 -1.1104 6.87352 7.53022 12.2966
237 1 -1.1104 6.79014 4.47018 6.89463
206 1 -1.1104 12.4843 1.8689 6.73001
265 1 -1.1104 12.7756 7.48288 6.5758
213 1 -1.1104 12.5366 1.85129 12.3581
215 1 -1.1104 12.3803 1.86951 9.59162
218 2 2.2208 11.2252 3.18269 8.02744
221 1 -1.1104 9.72873 1.74941 12.4572
224 1 -1.1104 9.78052 1.74823 9.55128
226 2 2.2208 8.42989 3.09339 10.8584
268 1 -1.1104 9.90302 4.65516 9.58001
271 1 -1.1104 9.76934 4.56164 12.3235
273 1 -1.1104 9.59798 7.48277 9.55609
275 2 2.2208 8.28132 6.0129 8.20425
276 2 2.2208 11.3231 5.8979 10.9961
278 1 -1.1104 12.655 7.21438 12.3338
280 1 -1.1104 12.5533 4.66735 12.3991
283 1 -1.1104 12.7424 4.56407 9.52848
285 1 -1.1104 9.73416 7.35579 12.4885
279 1 -1.1104 12.5447 7.57904 9.4653
124 1 -1.1104 4.1603 13.3394 6.68238
62 1 -1.1104 1.2263 10.3565 6.68015
78 1 -1.1104 4.02468 10.5413 6.73988
8830 2 2.2208 -0.185908 3.10822 8.20558
241 2 2.2208 5.23011 11.6268 11.0003
247 1 -1.1104 1.04714 10.1596 12.2825
250 2 2.2208 5.35029 9.01293 8.15704
252 1 -1.1104 1.17149 10.2097 9.49717
257 2 2.2208 2.49177 11.7583 8.32765
259 2 2.2208 2.57177 8.78429 11.0759
261 1 -1.1104 3.86241 10.2172 12.4068
263 1 -1.1104 3.9023 10.4332 9.50349
200 1 -1.1104 1.34264 13.173 12.4639
202 1 -1.1104 4.0597 13.1725 9.54694
287 1 -1.1104 3.97861 13.0698 12.4061
294 1 -1.1104 1.13682 13.2031 9.4643
254 1 -1.1104 6.76281 10.2794 9.69122
288 1 -1.1104 6.82102 18.595 9.54644
392 2 2.2208 5.35203 17.1835 -0.391183
267 1 -1.1104 9.90392 7.17906 6.79033
90 1 -1.1104 12.3269 10.2063 6.61055
8671 2 2.2208 -0.228514 17.2799 11.2176
249 1 -1.1104 6.54956 10.382 12.4068
297 1 -1.1104 6.69301 13.0534 12.3204
65 1 -1.1104 6.96688 10.382 6.68721
101 1 -1.1104 9.64871 10.0475 6.6593
154 1 -1.1104 9.76785 12.9519 6.9223
290 1 -1.1104 6.72483 12.9672 9.5398
264 1 -1.1104 9.53989 10.2511 9.40658
270 1 -1.1104 9.40947 10.1909 12.263
272 2 2.2208 8.14858 8.79404 10.9066
274 2 2.2208 8.29688 11.7976 8.14344
277 2 2.2208 11.1209 11.5939 10.8727
281 1 -1.1104 12.2201 10.0806 12.3142
282 2 2.2208 11.0869 8.92377 8.1917
284 1 -1.1104 12.2682 10.2087 9.5719
26 1 -1.1104 12.509 13.1473 12.3162
49 1 -1.1104 12.2583 12.9918 9.45399
105 1 -1.1104 9.63239 13.0721 12.5093
137 1 -1.1104 9.59654 13.1652 9.81108
104 1 -1.1104 12.2365 15.9177 9.56239
9035 2 2.2208 -0.407243 17.355 -0.198034
616 2 2.2208 5.43905 11.6183 -0.251232
231 1 -1.1104 0.998638 18.6199 6.81642
50 1 -1.1104 12.2218 18.8169 9.77209
27 1 -1.1104 12.3862 18.9056 12.406
8804 2 2.2208 -0.105451 14.6809 2.493
133 1 -1.1104 3.95533 16.0978 7.05226
296 1 -1.1104 6.70128 18.7069 12.2768
295 2 2.2208 5.33593 14.5675 8.20305
29 2 2.2208 2.66384 14.5175 11.0139
30 2 2.2208 2.6205 20.0899 11.0978
51 1 -1.1104 3.76036 15.7076 12.6205
52 1 -1.1104 1.085 15.9974 12.5356
203 1 -1.1104 3.87801 15.8968 9.68199
204 2 2.2208 2.29786 17.3365 8.17254
232 1 -1.1104 3.95585 18.6276 9.45445
233 2 2.2208 5.49604 17.3791 10.9211
286 1 -1.1104 3.89594 18.6865 12.2561
291 1 -1.1104 1.07957 18.7183 9.72355
292 1 -1.1104 1.34189 16.02 9.70658
293 2 2.2208 5.35847 20.0408 8.24425
298 1 -1.1104 1.11281 18.9505 12.4298
53 1 -1.1104 6.53405 15.7513 12.4991
289 1 -1.1104 6.52982 15.9809 9.5964
81 1 -1.1104 12.27 15.9107 12.5612
163 1 -1.1104 9.52957 15.9791 6.68112
306 2 2.2208 5.38509 -2.46993 13.6044
17324 2 2.2208 -0.22654 -5.07638 -0.362397
321 2 2.2208 10.8781 5.79071 -0.284438
8697 2 2.2208 -0.269619 20.2847 2.67546
8898 2 2.2208 -0.171613 8.84308 8.1495
8307 2 2.2208 2.75408 -5.1858 13.7138
8157 2 2.2208 11.206 -5.29825 5.10795
9221 2 2.2208 -0.251183 5.75653 -0.32503
9249 2 2.2208 -0.149608 11.7457 -0.201092
313 2 2.2208 8.30683 5.92142 13.5441
314 2 2.2208 5.45453 0.394478 -0.282033
557 2 2.2208 8.08422 20.0349 -0.0797002
308 2 2.2208 5.36502 3.13718 13.489
322 2 2.2208 5.34053 0.244032 16.4661
323 1 -1.1104 1.45228 -3.86654 17.9298
327 1 -1.1104 1.32395 -3.84334 15.1784
335 1 -1.1104 1.22156 -1.10742 17.9522
337 2 2.2208 5.50851 -2.51549 19.2915
339 1 -1.1104 1.25028 -1.13066 15.0789
343 1 -1.1104 4.22771 -3.67214 17.777
345 2 2.2208 2.81146 0.203507 19.369
346 1 -1.1104 4.13458 -4.02225 14.9584
350 2 2.2208 2.74845 -2.53472 16.5011
352 1 -1.1104 3.98114 -1.16599 17.9448
353 1 -1.1104 3.86411 -1.1402 14.8174
341 1 -1.1104 6.61683 -1.1887 15.1194
389 2 2.2208 8.04983 14.5865 22.1865
9215 2 2.2208 -0.277082 20.066 19.4381
460 2 2.2208 8.05461 11.6496 13.7837
9243 2 2.2208 -0.194483 8.7048 19.1674
9219 2 2.2208 -0.327445 20.0412 13.9213
325 1 -1.1104 7.04191 -3.91715 18.034
331 1 -1.1104 7.08044 -3.90736 15.2406
336 1 -1.1104 6.55188 -0.947423 18.1342
365 2 2.2208 10.9204 0.459019 16.3998
366 1 -1.1104 12.4041 -3.87472 18.2815
368 1 -1.1104 12.3135 -3.94006 15.3434
372 1 -1.1104 12.4049 -0.896428 17.9186
373 2 2.2208 10.9915 -2.40843 19.3034
375 1 -1.1104 12.457 -1.10099 15.1222
377 1 -1.1104 9.70533 -3.67503 17.7793
379 2 2.2208 8.1554 0.452 19.3304
380 1 -1.1104 9.571 -3.87102 15.0988
384 2 2.2208 8.28295 -2.33383 16.5712
386 1 -1.1104 9.38515 -0.94033 17.8164
387 1 -1.1104 9.74417 -1.04807 14.8975
369 1 -1.1104 12.4425 -3.79373 20.8287
360 2 2.2208 -0.374808 -2.52198 24.9643
8453 2 2.2208 2.52956 -5.1276 25.2207
342 1 -1.1104 6.79063 -1.03089 20.7679
8384 2 2.2208 5.45113 -5.20736 16.6191
310 2 2.2208 11.0923 -2.54621 13.7803
433 2 2.2208 2.63527 11.7274 13.8985
8312 2 2.2208 5.45817 -5.29911 27.7937
324 1 -1.1104 1.50929 1.56935 17.9533
329 1 -1.1104 1.16126 1.47814 14.9903
338 2 2.2208 5.49517 3.04821 19.2612
344 1 -1.1104 4.3465 1.54849 18.0699
348 1 -1.1104 3.82202 1.51184 15.0432
351 2 2.2208 2.50899 2.95366 16.4467
398 2 2.2208 5.38219 5.95654 16.6438
400 1 -1.1104 1.16286 7.29169 17.8013
406 1 -1.1104 1.23615 4.44972 17.8841
411 1 -1.1104 1.27805 4.28647 15.0909
420 2 2.2208 2.50254 5.66129 19.2059
422 1 -1.1104 4.04236 7.48059 15.2291
425 1 -1.1104 4.10774 4.30885 17.8905
427 1 -1.1104 3.90597 4.50052 14.9733
419 1 -1.1104 4.17251 7.22498 17.9276
402 1 -1.1104 1.39697 7.25493 15.1808
326 1 -1.1104 6.9548 1.77957 17.8702
408 1 -1.1104 6.9314 4.76315 17.8762
333 1 -1.1104 6.71896 1.72706 15.1643
415 1 -1.1104 6.95339 4.48934 14.9795
403 1 -1.1104 1.41357 7.08806 20.7475
412 1 -1.1104 1.13267 4.24159 20.7629
423 1 -1.1104 4.11733 7.55618 20.7527
523 2 2.2208 8.03498 17.3043 13.7825
9070 2 2.2208 -0.3974 14.2403 25.1128
330 1 -1.1104 1.16022 1.66373 20.4708
401 1 -1.1104 7.08532 7.37486 18.047
404 1 -1.1104 6.63344 7.32584 15.2153
367 1 -1.1104 12.5014 1.86526 17.9094
370 1 -1.1104 12.374 1.78119 15.1503
374 2 2.2208 11.0531 3.33049 19.4265
378 1 -1.1104 9.60066 1.82259 17.8432
382 1 -1.1104 9.68825 1.72748 15.0437
385 2 2.2208 8.23802 3.19953 16.4955
434 2 2.2208 10.989 5.83698 16.5438
437 1 -1.1104 12.4596 7.39216 14.9889
439 1 -1.1104 12.5692 4.63051 18.0795
442 1 -1.1104 12.507 4.38361 15.2792
447 2 2.2208 8.34183 6.02772 19.3794
449 1 -1.1104 9.53407 7.37054 15.168
452 1 -1.1104 9.5925 4.78627 18.0781
454 1 -1.1104 9.85113 4.54914 15.022
446 1 -1.1104 9.99 7.38596 17.845
436 1 -1.1104 12.4722 7.48992 17.9033
383 1 -1.1104 9.57396 1.59968 20.7147
371 1 -1.1104 12.2274 1.77273 20.9445
438 1 -1.1104 12.446 7.33341 20.7376
455 1 -1.1104 9.77564 4.35363 20.9799
9029 2 2.2208 -0.213221 20.0985 25.2149
521 2 2.2208 10.8048 20.0958 13.862
9245 2 2.2208 -0.114397 8.68897 13.7308
399 2 2.2208 5.37177 11.6784 16.6043
407 1 -1.1104 0.99652 10.1078 17.8712
410 2 2.2208 5.43037 8.76112 19.4648
413 1 -1.1104 1.34827 10.1626 15.2581
421 2 2.2208 2.66199 11.6616 19.6293
424 2 2.2208 2.76701 8.91362 16.7323
426 1 -1.1104 3.92102 10.2095 18.2149
429 1 -1.1104 3.95587 10.4027 15.2323
462 1 -1.1104 1.0298 13.3053 18.0833
466 1 -1.1104 1.0841 13.0649 15.3863
482 1 -1.1104 3.82942 12.8542 18.0367
485 1 -1.1104 3.96849 13.0864 15.0882
430 1 -1.1104 4.00815 10.313 21.1067
486 1 -1.1104 4.09501 13.3418 20.8302
417 1 -1.1104 6.96559 10.2625 15.1777
9111 2 2.2208 -0.272726 11.6247 16.5329
418 1 -1.1104 6.51853 10.2633 20.8132
9275 2 2.2208 -0.209497 5.7806 22.2664
470 1 -1.1104 6.58299 13.1183 15.178
464 1 -1.1104 6.59013 12.8278 17.9797
409 1 -1.1104 6.74115 10.0326 18.0585
8994 2 2.2208 -0.0720541 -2.60529 13.7386
435 2 2.2208 10.923 11.5696 16.4247
440 1 -1.1104 12.4299 10.3092 17.9035
441 2 2.2208 11.2534 8.77688 19.4204
444 1 -1.1104 12.5544 10.3741 15.2171
448 2 2.2208 8.0877 11.4453 19.523
451 2 2.2208 8.37278 8.75262 16.6386
453 1 -1.1104 9.55565 10.1786 18.1138
456 1 -1.1104 9.78764 10.2211 15.1255
498 1 -1.1104 12.4963 12.9545 17.9405
500 1 -1.1104 12.3046 13.0087 15.2533
509 1 -1.1104 9.59608 13.1133 18.2251
512 1 -1.1104 9.44576 12.9714 15.1871
457 1 -1.1104 9.64742 10.3234 20.8106
494 2 2.2208 2.66204 17.2247 13.8293
558 2 2.2208 10.8442 17.2437 22.3875
489 2 2.2208 2.42493 14.4895 16.7872
476 2 2.2208 5.39613 14.4393 19.3525
461 2 2.2208 5.37881 17.2709 16.6967
463 1 -1.1104 1.10874 18.7047 18.105
468 1 -1.1104 1.16909 18.6297 15.319
474 1 -1.1104 1.05433 16.0216 18.1187
477 2 2.2208 5.09263 20.0322 19.3067
478 1 -1.1104 1.10795 15.9206 15.2889
483 1 -1.1104 3.90238 18.5871 18.0008
484 2 2.2208 2.7489 17.1672 19.6235
487 1 -1.1104 4.15921 18.636 15.1833
490 2 2.2208 2.47007 19.9927 16.7073
491 1 -1.1104 3.84527 15.673 18.1411
492 1 -1.1104 3.86216 15.8977 15.4099
465 1 -1.1104 6.70969 18.6349 17.9824
493 1 -1.1104 3.94898 15.9819 20.9735
589 2 2.2208 10.8265 14.4618 25.1463
560 1 -1.1104 12.3089 18.6119 23.7266
469 1 -1.1104 0.844295 18.6401 21.1179
620 1 -1.1104 9.48489 18.7284 23.6217
480 1 -1.1104 6.67013 15.9434 15.2345
475 1 -1.1104 6.81962 15.6378 18.1276
472 1 -1.1104 6.87112 18.6774 15.144
516 2 2.2208 8.04538 14.3884 16.7264
505 2 2.2208 10.9408 14.4394 19.4601
497 2 2.2208 10.9899 17.2784 16.753
499 1 -1.1104 12.6668 18.8016 18.0607
502 1 -1.1104 12.274 18.8247 15.2795
504 1 -1.1104 12.3175 15.7113 18.0664
506 2 2.2208 10.9748 20.0684 19.5702
507 1 -1.1104 12.2396 15.9378 15.4051
510 1 -1.1104 9.46447 18.7975 18.0066
511 2 2.2208 8.08276 17.2873 19.5341
514 1 -1.1104 9.45939 18.5518 15.0422
517 2 2.2208 8.10407 20.0767 16.705
518 1 -1.1104 9.58585 15.9066 18.1162
519 1 -1.1104 9.47811 15.5969 15.2973
515 1 -1.1104 9.42459 18.7412 20.9248
307 2 2.2208 2.5711 0.338271 13.6345
481 1 -1.1104 6.56848 15.9441 20.7431
361 2 2.2208 8.05671 19.987 22.3788
503 1 -1.1104 12.1107 18.4502 20.7427
311 2 2.2208 2.6806 5.89517 13.7273
614 2 2.2208 8.15979 17.2798 25.137
347 1 -1.1104 4.12335 -3.87254 20.6756
354 1 -1.1104 4.1395 -1.15687 20.7101
328 1 -1.1104 1.26474 -3.84684 20.8866
340 1 -1.1104 1.21408 -1.23492 20.9535
525 2 2.2208 5.50773 0.434632 22.297
526 1 -1.1104 1.13983 -3.88774 23.6761
530 1 -1.1104 1.02531 -3.67454 26.5066
534 1 -1.1104 1.27077 -1.01078 23.6768
536 2 2.2208 5.44918 -2.36211 25.0675
538 1 -1.1104 1.14229 -0.930453 26.6215
540 1 -1.1104 4.01353 -3.84205 23.8158
542 2 2.2208 2.48128 0.314271 24.9999
543 1 -1.1104 3.83402 -3.6498 26.4583
545 2 2.2208 2.55522 -2.50928 22.3286
547 1 -1.1104 4.16297 -1.02545 23.5751
548 1 -1.1104 3.85957 -0.927941 26.2439
528 1 -1.1104 7.02905 -3.837 23.4432
539 1 -1.1104 6.66573 -0.90558 26.3322
532 1 -1.1104 6.73025 -3.89943 26.2746
535 1 -1.1104 7.02538 -0.785798 23.5678
356 1 -1.1104 9.54231 15.9935 26.6492
8382 2 2.2208 8.27015 -5.3682 24.903
522 2 2.2208 10.9001 14.4863 13.8217
17403 2 2.2208 -0.421383 -5.14904 22.2862
332 1 -1.1104 6.96066 -4.00108 20.9172
381 1 -1.1104 9.74626 -3.73879 20.7939
388 1 -1.1104 9.67127 -1.09813 20.6641
9032 2 2.2208 -0.248782 0.198398 16.3819
587 1 -1.1104 12.4034 18.4132 26.584
9244 2 2.2208 -0.168135 5.73902 16.524
376 1 -1.1104 12.4772 -1.07936 20.5868
561 2 2.2208 10.9924 0.292416 22.18
562 1 -1.1104 12.6554 -3.69555 23.58
564 1 -1.1104 12.3932 -3.89046 26.4643
566 1 -1.1104 12.4525 -0.94991 23.7535
567 2 2.2208 11.1009 -2.65267 25.0672
569 1 -1.1104 12.4928 -0.932137 26.2356
570 1 -1.1104 9.82729 -3.96129 23.4023
572 2 2.2208 8.44881 0.41863 25.1826
573 1 -1.1104 9.61553 -4.00995 26.3526
575 2 2.2208 8.29907 -2.46514 22.1266
577 1 -1.1104 9.81984 -1.2212 23.7622
578 1 -1.1104 9.51543 -1.10875 26.6482
496 2 2.2208 5.29483 14.4923 13.8423
230 2 2.2208 11.0827 8.67764 13.7399
9216 2 2.2208 -0.429808 14.372 19.6392
334 1 -1.1104 6.75278 1.79756 20.9096
349 1 -1.1104 3.9677 1.70832 20.95
428 1 -1.1104 4.0352 4.46762 20.6154
527 1 -1.1104 1.17613 1.6502 23.5618
531 1 -1.1104 1.13145 1.98317 26.6587
537 2 2.2208 5.40759 3.25376 25.0589
541 1 -1.1104 4.04234 1.85731 23.8182
544 1 -1.1104 4.06153 1.9424 26.7006
546 2 2.2208 2.51832 2.99435 22.1533
590 2 2.2208 5.39671 5.87042 22.143
596 1 -1.1104 1.11493 4.46929 23.5842
601 1 -1.1104 1.18356 4.66836 26.3924
605 1 -1.1104 3.98215 7.2955 23.4034
606 2 2.2208 2.60141 5.90176 24.9788
610 1 -1.1104 3.82858 4.47228 23.3577
612 1 -1.1104 3.97927 4.53693 26.4817
608 1 -1.1104 3.82557 7.71716 26.5203
594 1 -1.1104 1.1121 7.57067 26.3851
592 1 -1.1104 1.14539 7.42394 23.5225
533 1 -1.1104 6.97034 1.7483 26.5895
593 1 -1.1104 6.74066 7.2364 23.752
603 1 -1.1104 6.67391 4.52518 26.5718
598 1 -1.1104 6.67349 4.66651 23.4552
9217 2 2.2208 -0.306715 17.3156 16.896
581 1 -1.1104 6.65847 18.6923 26.5562
405 1 -1.1104 6.91138 7.34834 21.006
416 1 -1.1104 6.94888 4.46248 20.5574
443 1 -1.1104 12.483 4.62509 21.1059
450 1 -1.1104 9.52585 7.52461 20.6191
495 2 2.2208 5.42077 20.1876 13.9991
595 1 -1.1104 6.82898 7.33077 26.591
529 1 -1.1104 6.73809 1.84844 23.6153
563 1 -1.1104 12.3457 1.85509 23.8658
565 1 -1.1104 12.5105 1.76745 26.5789
568 2 2.2208 10.9712 3.22645 25.0536
571 1 -1.1104 9.65564 1.59515 23.5633
574 1 -1.1104 9.76239 1.7515 26.467
576 2 2.2208 8.23184 3.01676 22.1148
622 1 -1.1104 9.54337 4.74835 26.447
624 1 -1.1104 9.45585 4.34524 23.7164
628 2 2.2208 8.10059 6.0826 25.1663
629 2 2.2208 10.949 5.96733 22.3224
633 1 -1.1104 12.3841 4.61648 23.9178
636 1 -1.1104 12.4741 4.73818 26.6547
626 1 -1.1104 9.50455 7.40006 26.4656
638 1 -1.1104 9.55052 7.28573 23.659
632 1 -1.1104 12.4494 7.53289 26.6076
631 1 -1.1104 12.2574 7.45371 23.4322
414 1 -1.1104 0.999152 10.1232 20.8738
467 1 -1.1104 1.11912 12.9206 20.8755
9076 2 2.2208 -0.0594147 0.343316 22.0959
591 2 2.2208 5.49368 11.6506 22.4531
597 1 -1.1104 1.07148 10.362 23.7707
600 2 2.2208 5.34213 8.82675 25.1666
602 1 -1.1104 1.16731 10.2884 26.4428
607 2 2.2208 2.46227 11.5927 25.1117
609 2 2.2208 2.41244 8.75211 22.2182
611 1 -1.1104 4.11276 10.1447 23.9036
613 1 -1.1104 3.83646 10.2476 26.8177
393 1 -1.1104 1.19565 13.0301 23.8285
431 1 -1.1104 1.02624 13.3844 26.61
550 1 -1.1104 3.80723 12.8576 23.566
582 1 -1.1104 3.89745 12.9983 26.4614
604 1 -1.1104 6.89666 10.2687 26.5606
551 1 -1.1104 6.72259 12.9544 26.511
9075 2 2.2208 -0.268026 3.18137 24.9938
390 1 -1.1104 9.49299 18.8969 26.3618
549 1 -1.1104 6.64493 15.8854 26.4452
618 1 -1.1104 12.3715 15.68 26.5492
471 1 -1.1104 6.80507 13.1468 20.7295
363 1 -1.1104 6.69918 12.9947 23.9097
513 1 -1.1104 9.61044 13.2233 21.1391
501 1 -1.1104 12.666 13.1137 20.9371
445 1 -1.1104 12.4791 10.2715 20.7633
599 1 -1.1104 6.82576 10.2492 23.7441
621 1 -1.1104 9.53884 10.3037 26.5063
623 1 -1.1104 9.70466 10.1787 23.6319
625 2 2.2208 8.34744 8.68385 22.2518
627 2 2.2208 8.21215 11.6036 25.1718
630 2 2.2208 11.1704 11.616 22.2986
634 1 -1.1104 12.4725 10.2532 23.8038
635 2 2.2208 11.0429 8.74772 25.1349
637 1 -1.1104 12.3967 10.3446 26.5245
559 1 -1.1104 12.4747 13.024 23.7257
580 1 -1.1104 9.51465 13.1861 26.5578
586 1 -1.1104 12.3056 13.0505 26.6856
619 1 -1.1104 9.56446 12.9324 23.6912
479 1 -1.1104 0.995823 15.6001 21.0091
488 1 -1.1104 3.82688 18.8084 20.9622
556 1 -1.1104 6.46278 15.7203 23.4958
299 2 2.2208 11.1229 3.20286 13.713
9110 2 2.2208 -0.162328 -2.31217 19.3323
364 2 2.2208 5.30903 14.2708 25.3337
552 2 2.2208 2.42192 14.3492 22.4074
585 1 -1.1104 3.91128 18.7825 26.564
355 2 2.2208 5.22859 17.1422 22.3288
395 2 2.2208 5.09198 20.0656 25.1406
432 1 -1.1104 1.02815 15.969 26.5616
458 1 -1.1104 1.10054 18.7879 26.7408
459 1 -1.1104 1.06805 18.5977 24.0078
553 2 2.2208 2.46605 20.1419 22.096
554 1 -1.1104 3.9024 15.7375 23.912
555 1 -1.1104 0.969365 15.8074 23.6676
579 1 -1.1104 3.86027 18.3377 23.7536
583 1 -1.1104 3.90187 15.9438 26.516
584 2 2.2208 2.39219 17.2068 25.0984
396 1 -1.1104 6.75984 18.6491 23.7205
473 1 -1.1104 6.56167 18.5806 20.9774
312 2 2.2208 5.44202 8.85686 13.8971
617 2 2.2208 10.8125 20.2169 25.1135
508 1 -1.1104 12.4009 15.8302 20.9384
520 1 -1.1104 9.47111 15.9464 21.0187
357 1 -1.1104 9.46387 15.8498 23.8
588 1 -1.1104 12.4905 15.7582 23.8087
9247 2 2.2208 -0.28063 8.7738 25.0808
9033 2 2.2208 -0.162846 3.03824 19.3122
9028 2 2.2208 -0.343262 17.1815 22.3595
9218 2 2.2208 -0.213327 14.3978 13.8284
8987 2 2.2208 -0.218258 2.94374 13.6904
317 2 2.2208 11.1836 0.332192 27.7201
641 2 2.2208 5.21653 23.1374 5.29411
643 1 -1.1104 1.05511 24.1564 1.15603
644 1 -1.1104 1.14012 24.325 4.16861
645 1 -1.1104 1.17643 21.4518 1.1812
647 2 2.2208 5.26744 25.814 2.50625
648 1 -1.1104 1.09297 21.5588 3.90367
650 1 -1.1104 3.94446 24.4505 0.723392
651 2 2.2208 2.62427 22.8961 2.53913
653 1 -1.1104 3.87736 24.3776 3.818
654 2 2.2208 2.61261 25.8046 5.33935
655 1 -1.1104 4.05055 21.5268 1.15371
657 1 -1.1104 3.96983 21.7237 4.04123
789 1 -1.1104 4.01898 21.6453 6.86898
662 1 -1.1104 6.64922 24.3197 1.08053
663 1 -1.1104 6.41261 24.3144 3.86565
658 1 -1.1104 3.9405 27.1454 4.20007
649 1 -1.1104 1.23775 27.1753 3.94053
665 1 -1.1104 6.92902 27.137 1.06245
1042 2 2.2208 2.33387 34.1326 13.5756
1244 2 2.2208 10.8185 34.0402 -0.429771
788 1 -1.1104 3.9778 24.3582 6.76774
9675 2 2.2208 -0.491698 42.6795 8.11078
1102 2 2.2208 5.23075 42.4967 13.6141
666 1 -1.1104 6.88162 21.2414 3.82238
667 1 -1.1104 6.6307 27.1239 3.84099
664 1 -1.1104 6.88076 21.6714 1.09769
668 2 2.2208 10.9325 22.9353 5.40024
670 1 -1.1104 12.3529 24.3251 1.00174
671 1 -1.1104 12.2888 24.5035 3.99328
672 1 -1.1104 12.4791 21.5605 1.22343
674 2 2.2208 10.9746 25.6222 2.60961
675 1 -1.1104 12.1598 21.5483 4.00743
677 1 -1.1104 9.64831 24.2655 1.32802
678 2 2.2208 8.04343 23.0714 2.64059
680 1 -1.1104 9.73407 24.294 4.0321
681 2 2.2208 8.02862 25.7998 5.31131
682 1 -1.1104 9.68944 21.4948 1.16346
684 1 -1.1104 9.56075 21.3329 4.06736
683 1 -1.1104 9.71078 27.2449 1.30451
673 1 -1.1104 12.3514 27.1894 1.06521
820 1 -1.1104 9.44524 27.006 6.58031
819 1 -1.1104 9.64383 21.5325 6.89645
685 1 -1.1104 9.40341 27.1662 3.80291
9665 2 2.2208 -0.178342 28.5101 5.35446
816 1 -1.1104 12.3062 21.4754 6.87055
815 1 -1.1104 12.3428 24.2258 6.82895
646 1 -1.1104 1.1048 27.0045 1.06972
656 1 -1.1104 3.74956 27.0967 1.25145
1185 2 2.2208 5.1155 39.9122 -0.378241
9666 2 2.2208 -0.310055 22.9593 5.44146
642 2 2.2208 5.36295 28.5865 5.19832
652 2 2.2208 2.50017 28.5596 2.44258
690 1 -1.1104 1.17067 29.9691 1.07091
693 1 -1.1104 1.0687 30.1002 3.89483
696 1 -1.1104 0.886354 33.0074 1.01519
697 2 2.2208 5.2156 31.4964 2.17971
699 1 -1.1104 0.996258 32.7546 3.73425
701 1 -1.1104 3.9523 29.9584 1.1303
704 1 -1.1104 3.85222 29.9232 3.67047
706 2 2.2208 2.50691 31.316 5.13157
708 1 -1.1104 3.87704 32.6754 0.861128
709 1 -1.1104 3.6349 33.0035 3.65374
714 1 -1.1104 6.76401 29.8389 3.59846
713 1 -1.1104 6.76751 30.0425 0.892786
1214 2 2.2208 2.39705 31.2879 -0.312886
837 1 -1.1104 6.72001 29.8166 6.46396
9667 2 2.2208 13.63 45.2894 2.34643
936 2 2.2208 10.9761 28.5608 -0.3512
676 1 -1.1104 12.3647 27.1192 3.95284
715 1 -1.1104 6.80288 32.7455 0.849122
700 1 -1.1104 6.60508 32.8317 3.61223
669 2 2.2208 10.932 28.5912 5.18455
679 2 2.2208 8.11746 28.5007 2.29755
717 1 -1.1104 12.2314 30.0428 1.11209
719 1 -1.1104 12.3221 29.8691 3.79576
721 1 -1.1104 12.365 32.7086 0.930646
722 2 2.2208 10.8632 31.3974 2.35494
724 1 -1.1104 12.2371 32.6358 3.67446
725 1 -1.1104 9.51925 30.0521 0.79989
728 1 -1.1104 9.61636 30.0031 3.81286
730 2 2.2208 8.17596 31.3425 5.27083
732 1 -1.1104 9.4173 32.6885 1.14571
733 1 -1.1104 9.58152 32.6468 3.87726
869 1 -1.1104 12.3527 30.2312 6.52694
1242 2 2.2208 8.0774 36.8164 -0.228891
840 1 -1.1104 6.70556 32.701 6.38999
872 1 -1.1104 9.55025 29.8352 6.7567
871 1 -1.1104 12.3467 32.8994 6.50483
689 2 2.2208 5.09624 34.0836 5.1753
691 1 -1.1104 0.893685 35.8063 0.849557
694 1 -1.1104 0.897565 35.4806 3.4512
698 2 2.2208 5.02031 36.9968 2.54535
702 1 -1.1104 3.68794 35.3774 0.79158
703 2 2.2208 2.45149 34.2924 2.19861
705 1 -1.1104 3.62405 35.5313 3.89909
707 2 2.2208 2.32095 36.9546 5.30152
735 2 2.2208 5.196 39.7693 5.26387
741 1 -1.1104 1.07859 38.5728 0.953218
746 1 -1.1104 0.77796 38.4176 3.78593
751 2 2.2208 2.1202 40.0233 2.49393
755 1 -1.1104 3.77908 38.4702 1.18389