ITEM: TIMESTEP
10000
ITEM: NUMBER OF ATOMS
17700
ITEM: BOX BOUNDS pp pp pp
-4.3889036520235997e-01 2.7778890365202507e+01
-5.4464437637865490e+00 3.3352644376378936e+02
-4.4224317783658812e-01 2.7782243177836726e+01
ITEM: ATOMS id type q x y z
1 2 2.2208 5.05694 0.265016 5.25742
2 1 -1.1104 0.966926 -3.94563 0.894491
6 1 -1.1104 0.798214 -3.82997 3.58769
10 1 -1.1104 0.697974 -1.18906 0.749255
12 2 2.2208 5.04734 -2.49786 2.37297
14 1 -1.1104 0.70448 -1.11282 3.62117
16 1 -1.1104 3.57548 -3.86894 0.76624
18 2 2.2208 2.15321 0.243923 2.2284
19 1 -1.1104 3.94968 -4.01071 3.65055
21 2 2.2208 2.16264 -2.50365 5.08089
23 1 -1.1104 3.535 -0.987075 0.936439
24 1 -1.1104 3.65581 -1.2728 3.84284
4 1 -1.1104 6.55264 -3.88986 0.865325
8 1 -1.1104 6.65634 -3.77407 3.82289
17318 2 2.2208 13.5577 -5.30896 2.31204
11 1 -1.1104 6.34244 -1.13559 1.05198
15 1 -1.1104 6.55313 -0.680008 3.93985
8285 2 2.2208 2.22005 -5.22808 2.46232
8975 2 2.2208 13.5318 -2.641 10.7881
230 2 2.2208 10.603 8.66425 13.452
8669 2 2.2208 13.2976 3.19258 5.12697
168 1 -1.1104 6.21067 -3.95306 6.63194
174 1 -1.1104 3.47906 -1.26284 6.44863
8982 2 2.2208 13.4867 0.178269 2.20115
31 2 2.2208 10.5127 0.52515 5.25707
32 1 -1.1104 12.2183 -3.99702 1.08002
34 1 -1.1104 12.0431 -3.86098 3.82367
36 1 -1.1104 11.9357 -1.1111 0.867186
37 2 2.2208 10.7197 -2.39004 2.41475
39 1 -1.1104 12.1431 -1.20219 3.92411
40 1 -1.1104 9.32294 -4.19728 0.972121
42 2 2.2208 7.72552 0.437114 2.38445
43 1 -1.1104 9.126 -3.70565 3.7011
45 2 2.2208 7.89188 -2.41675 5.20727
47 1 -1.1104 9.265 -1.28225 1.185
48 1 -1.1104 9.17182 -0.946876 3.80337
494 2 2.2208 2.25652 17.2738 13.4749
8981 2 2.2208 13.502 -2.46024 5.28409
311 2 2.2208 2.30021 5.87071 13.6186
135 1 -1.1104 9.55189 18.4315 12.0971
83 2 2.2208 10.6002 19.8306 7.89051
136 2 2.2208 7.95 17.1946 7.9632
302 2 2.2208 13.5955 14.3293 10.7807
3 1 -1.1104 0.983703 1.72719 0.763761
7 1 -1.1104 0.82871 1.64127 3.65153
13 2 2.2208 4.79056 3.23139 2.19925
17 1 -1.1104 3.57053 1.74504 1.07097
20 1 -1.1104 3.55994 1.6935 3.86732
22 2 2.2208 2.1022 3.15815 5.05125
54 2 2.2208 5.14902 5.85175 5.20157
56 1 -1.1104 0.618931 7.16122 0.896804
58 1 -1.1104 0.990404 7.49681 3.50137
60 1 -1.1104 0.690575 4.42823 0.64388
67 1 -1.1104 0.711913 4.50467 3.6617
71 1 -1.1104 3.40994 7.53676 1.17941
72 2 2.2208 2.06304 6.07708 2.37172
74 1 -1.1104 3.70625 7.36347 3.89185
76 1 -1.1104 3.64292 4.77846 0.734236
79 1 -1.1104 3.40529 4.45178 3.5709
234 1 -1.1104 0.834369 7.45646 6.42883
57 1 -1.1104 6.30941 7.28086 0.917491
63 1 -1.1104 6.55638 4.47345 0.943362
69 1 -1.1104 6.35672 4.59708 3.71912
237 1 -1.1104 6.30463 4.46409 6.60169
167 1 -1.1104 0.707237 1.75915 6.27724
5 1 -1.1104 6.35799 1.71637 0.982875
9 1 -1.1104 6.34832 1.89155 3.75467
173 1 -1.1104 3.41463 1.71945 6.70004
235 1 -1.1104 6.46516 7.2558 6.56261
229 1 -1.1104 9.1382 15.6954 11.9834
59 1 -1.1104 6.42932 7.32164 3.62749
33 1 -1.1104 12.01 1.59132 0.966776
35 1 -1.1104 12.006 1.54753 3.70517
38 2 2.2208 10.4995 2.95823 2.39728
41 1 -1.1104 9.18957 1.58513 1.00041
44 1 -1.1104 9.14587 1.69685 3.76348
46 2 2.2208 7.74821 3.08289 5.11033
84 2 2.2208 10.5948 5.93541 5.1779
86 1 -1.1104 12.2589 7.35132 0.768405
87 1 -1.1104 12.1165 7.31409 3.57114
88 1 -1.1104 11.8119 4.49126 0.873028
92 1 -1.1104 12.0729 4.41321 3.59344
94 1 -1.1104 9.15965 7.34248 0.902669
95 2 2.2208 7.71503 5.86548 2.22587
97 1 -1.1104 9.27696 7.43707 3.55928
99 1 -1.1104 9.09275 4.55305 0.955697
102 1 -1.1104 9.33231 4.50381 3.75782
28 1 -1.1104 9.26428 15.925 9.32313
522 2 2.2208 10.6908 14.4066 13.625
8880 2 2.2208 13.6808 5.83624 2.28396
433 2 2.2208 2.39386 11.4588 13.4639
8226 2 2.2208 10.7476 -5.31743 10.7165
104 1 -1.1104 11.9756 15.6886 9.44375
55 2 2.2208 4.93798 11.7273 5.14558
61 1 -1.1104 0.644136 10.0495 0.832529
66 2 2.2208 5.1066 8.65129 2.31461
68 1 -1.1104 0.69125 10.3147 3.72229
73 2 2.2208 2.15174 11.4513 2.20881
75 2 2.2208 2.23763 8.83513 5.01033
77 1 -1.1104 3.55796 10.0523 0.954731
80 1 -1.1104 3.63136 10.234 3.72984
107 1 -1.1104 0.953529 12.7794 0.732896
113 1 -1.1104 1.10597 12.9837 3.70347
123 1 -1.1104 3.76567 12.8304 1.03021
128 1 -1.1104 3.81538 13.2798 3.91352
70 1 -1.1104 6.69105 10.2206 3.87084
65 1 -1.1104 6.56883 10.3366 6.34126
108 1 -1.1104 0.699498 12.9993 6.28144
111 1 -1.1104 6.39565 13.0244 6.54624
115 1 -1.1104 6.6876 13.0214 3.753
110 1 -1.1104 6.54245 13.0755 0.982554
64 1 -1.1104 6.45859 10.0428 0.89129
85 2 2.2208 10.7352 11.3765 5.15973
89 1 -1.1104 11.9574 10.2121 0.741669
91 2 2.2208 10.7467 8.77103 2.13827
93 1 -1.1104 12.177 10.1122 3.47737
96 2 2.2208 8.09441 11.5771 2.45595
98 2 2.2208 7.93544 8.74627 5.11113
100 1 -1.1104 9.18002 10.2821 0.979188
103 1 -1.1104 9.29712 10.2688 3.85083
142 1 -1.1104 12.0727 12.9547 0.776556
146 1 -1.1104 12.0855 12.9007 3.59672
153 1 -1.1104 9.28379 12.9396 0.86887
158 1 -1.1104 9.44926 13.2104 3.76725
8885 2 2.2208 13.5202 11.6322 2.20528
156 1 -1.1104 9.45192 18.5209 6.49495
8698 2 2.2208 13.4727 8.54176 4.97172
495 2 2.2208 5.17588 19.9806 13.5167
397 2 2.2208 13.6765 17.2454 13.5001
119 2 2.2208 5.1503 14.4474 2.2535
106 2 2.2208 4.9909 17.2545 5.22852
109 1 -1.1104 0.615554 18.6041 0.796568
114 1 -1.1104 0.699306 18.5611 3.62038
116 1 -1.1104 0.752168 15.6339 0.739302
120 2 2.2208 4.81074 20.0776 2.31837
121 1 -1.1104 0.630704 15.7868 3.52311
125 1 -1.1104 3.59917 18.3702 0.761416
127 2 2.2208 2.11461 17.0426 2.22591
129 1 -1.1104 3.34237 18.5043 3.49663
130 2 2.2208 2.18791 14.4044 5.08732
131 2 2.2208 2.19503 19.9749 5.14515
132 1 -1.1104 3.56082 15.4911 0.854546
134 1 -1.1104 3.69338 16.0593 3.75668
122 1 -1.1104 6.62244 15.8101 3.65319
138 1 -1.1104 6.23631 18.6852 0.784046
117 1 -1.1104 0.8602 15.5914 6.71388
8288 2 2.2208 4.87901 -5.32989 10.8929
50 1 -1.1104 12.1651 18.555 9.58529
8864 2 2.2208 13.4664 17.1204 2.14557
312 2 2.2208 5.04055 8.76624 13.5292
8767 2 2.2208 13.496 14.4014 5.14818
8284 2 2.2208 5.09991 -5.35964 5.05797
140 1 -1.1104 6.41202 15.8865 0.969969
145 1 -1.1104 11.9974 18.6146 6.51193
139 1 -1.1104 6.18262 18.8043 3.5917
141 2 2.2208 10.6234 17.2654 5.03525
144 1 -1.1104 12.0658 18.5088 0.925108
147 1 -1.1104 11.946 18.716 3.56215
148 1 -1.1104 11.999 15.6979 0.768049
150 2 2.2208 10.7392 14.4253 2.42312
151 2 2.2208 10.6629 20.165 2.08088
152 1 -1.1104 12.1065 15.9054 3.71928
155 1 -1.1104 9.06507 18.5572 0.800862
157 2 2.2208 7.8654 17.3539 2.20965
159 1 -1.1104 9.17679 18.6247 3.78725
160 2 2.2208 8.00258 14.391 5.19117
161 2 2.2208 7.69687 20.0513 5.01227
162 1 -1.1104 9.29083 15.8594 0.869896
164 1 -1.1104 9.28091 15.7188 3.61037
149 1 -1.1104 12.0287 15.7813 6.65571
199 2 2.2208 7.65896 14.4751 10.8141
8157 2 2.2208 10.6718 -5.48874 5.06751
523 2 2.2208 7.8644 17.1707 13.4125
27 1 -1.1104 12.424 19.9311 12.2269
303 2 2.2208 13.457 20.0725 10.2528
172 1 -1.1104 3.23766 -4.05513 6.35784
166 1 -1.1104 0.727877 -3.98842 6.49132
170 1 -1.1104 0.755975 -1.20719 6.46692
171 1 -1.1104 6.45668 -0.987917 6.70249
175 2 2.2208 5.04256 0.248973 10.8386
176 1 -1.1104 0.781079 -3.87397 12.1811
180 1 -1.1104 1.0225 -4.25417 9.25164
184 1 -1.1104 0.681341 -1.01055 12.1042
186 2 2.2208 5.07893 -2.5452 7.95507
188 1 -1.1104 0.610783 -1.08348 9.32106
190 1 -1.1104 3.4209 -4.01828 12.0812
192 2 2.2208 2.03965 0.223173 7.76801
193 1 -1.1104 3.53729 -3.91883 9.15427
195 2 2.2208 2.1683 -2.47995 10.8015
197 1 -1.1104 3.7685 -1.02405 12.0091
198 1 -1.1104 3.66964 -0.922888 9.19716
178 1 -1.1104 6.5407 -4.0801 12.1703
185 1 -1.1104 6.45648 -1.33162 12.4135
189 1 -1.1104 6.58096 -1.09333 9.58084
182 1 -1.1104 6.39245 -3.93407 9.41063
300 2 2.2208 13.4357 19.9513 4.96557
8969 2 2.2208 13.5625 8.70353 10.9497
208 1 -1.1104 9.2929 -3.96908 6.51548
210 1 -1.1104 9.12865 -1.24968 6.77666
8977 2 2.2208 13.4423 0.135707 7.91162
205 1 -1.1104 12.1387 -4.10094 6.64758
207 1 -1.1104 11.9955 -1.08089 6.6802
316 2 2.2208 2.19115 3.17839 -0.464272
211 2 2.2208 10.7911 0.101215 10.8787
212 1 -1.1104 12.2271 -3.89319 12.3756
214 1 -1.1104 12.1569 -4.02397 9.32106
216 1 -1.1104 12.0789 -1.26366 12.2759
217 2 2.2208 10.4933 -2.66152 7.9699
219 1 -1.1104 12.1045 -1.35586 9.37202
220 1 -1.1104 9.40105 -4.04496 12.1615
222 2 2.2208 8.01123 0.276196 8.16204
223 1 -1.1104 9.20643 -4.20171 9.41026
225 2 2.2208 7.79864 -2.69317 10.8605
227 1 -1.1104 9.23524 -1.00934 12.2205
228 1 -1.1104 9.31284 -1.54039 9.58465
25 2 2.2208 10.6492 17.1142 10.5567
201 2 2.2208 8.00637 20.0697 10.5926
81 1 -1.1104 12.0578 16.2777 12.3717
236 1 -1.1104 0.584191 4.63934 6.46783
238 1 -1.1104 3.56602 7.30901 6.45098
239 1 -1.1104 3.39019 4.57458 6.33092
177 1 -1.1104 0.547412 1.73369 11.9265
181 1 -1.1104 0.77026 1.62711 9.16199
187 2 2.2208 5.15245 2.98038 8.16439
191 1 -1.1104 3.49196 1.56576 12.3295
194 1 -1.1104 3.65201 1.85455 9.37897
196 2 2.2208 2.10742 3.10451 10.7361
240 2 2.2208 4.9677 5.86755 10.8823
242 1 -1.1104 0.958651 7.17353 12.1118
244 1 -1.1104 0.896972 7.25876 9.26183
246 1 -1.1104 0.679433 4.47942 12.0661
251 1 -1.1104 0.475784 4.32423 9.32421
255 1 -1.1104 3.50923 7.27907 12.224
256 2 2.2208 2.23267 5.78943 7.72845
258 1 -1.1104 3.76351 7.32598 9.25321
260 1 -1.1104 3.6459 4.32372 12.0268
262 1 -1.1104 3.46421 4.44714 9.22623
183 1 -1.1104 6.51974 1.64075 9.61335
169 1 -1.1104 6.44194 1.74514 6.78678
245 1 -1.1104 6.19166 7.32065 9.30353
248 1 -1.1104 6.46283 4.50829 12.4078
243 1 -1.1104 6.50804 7.51279 12.2952
179 1 -1.1104 6.43787 1.51002 12.2261
253 1 -1.1104 6.29404 4.45026 9.5481
8970 2 2.2208 13.278 5.95272 7.90264
265 1 -1.1104 12.1006 7.28549 6.48346
209 1 -1.1104 9.41454 1.82559 6.69406
266 1 -1.1104 11.9577 4.68466 6.46666
267 1 -1.1104 9.40836 7.42088 6.23229
8967 2 2.2208 13.4988 2.88086 10.7756
269 1 -1.1104 9.21664 4.55077 6.43075
206 1 -1.1104 11.9146 1.73084 6.73462
213 1 -1.1104 12.0998 1.46963 12.2116
215 1 -1.1104 12.1666 1.41004 9.52753
218 2 2.2208 10.6537 3.11465 8.1379
221 1 -1.1104 9.2287 1.79869 12.1787
224 1 -1.1104 9.50116 1.44592 9.38292
226 2 2.2208 7.71933 3.0861 10.9513
268 1 -1.1104 8.91109 4.28369 9.21451
271 1 -1.1104 9.23005 4.38871 12.2217
273 1 -1.1104 9.11309 7.42329 9.31306
275 2 2.2208 7.59812 5.82089 8.00874
276 2 2.2208 10.4211 5.79644 10.9242
278 1 -1.1104 11.9326 7.02366 12.4181
279 1 -1.1104 11.7612 7.06692 9.58042
280 1 -1.1104 11.9775 4.12436 12.1921
283 1 -1.1104 11.9503 4.33686 9.54025
285 1 -1.1104 9.0911 7.13678 12.278
165 1 -1.1104 9.51734 18.7408 9.42158
124 1 -1.1104 3.49222 12.9961 6.94704
62 1 -1.1104 0.669215 10.0983 6.52816
78 1 -1.1104 3.53966 10.2362 6.43433
241 2 2.2208 4.93216 11.4601 10.8675
247 1 -1.1104 0.754952 9.88526 12.2338
250 2 2.2208 5.05988 8.83277 7.91101
252 1 -1.1104 0.690811 10.0747 9.2839
257 2 2.2208 1.99851 11.5191 8.06368
259 2 2.2208 2.14237 8.61753 10.6694
261 1 -1.1104 3.47809 10.0015 12.0859
263 1 -1.1104 3.73657 10.1579 9.39349
200 1 -1.1104 1.19424 12.8434 12.0614
202 1 -1.1104 3.30825 12.807 9.78103
287 1 -1.1104 3.80416 12.8476 12.3911
294 1 -1.1104 0.614354 12.9208 9.42757
254 1 -1.1104 6.33632 10.4249 9.27363
249 1 -1.1104 6.30772 10.1166 12.0363
90 1 -1.1104 12.1638 9.96112 6.34682
290 1 -1.1104 6.29091 13.2345 9.32519
101 1 -1.1104 9.323 10.1835 6.73209
154 1 -1.1104 9.16021 12.8473 6.54502
143 1 -1.1104 12.0577 12.6837 6.54889
264 1 -1.1104 9.11941 10.2287 9.34485
270 1 -1.1104 9.12455 10.2063 12.1587
272 2 2.2208 7.73841 8.8002 10.7175
274 2 2.2208 7.79679 11.6264 7.80883
277 2 2.2208 10.627 11.6605 10.7001
281 1 -1.1104 12.0471 10.274 12.1599
282 2 2.2208 10.6728 8.63053 7.75088
284 1 -1.1104 11.9669 9.83446 9.31042
297 1 -1.1104 6.51131 12.9246 12.2188
26 1 -1.1104 12.0568 13.2008 12.2796
49 1 -1.1104 11.9914 12.9156 9.35628
105 1 -1.1104 9.24703 12.9457 12.0558
137 1 -1.1104 9.15728 13.1417 9.30471
309 2 2.2208 7.87325 0.293184 13.5104
231 1 -1.1104 0.896469 18.457 6.59883
82 2 2.2208 10.6657 14.2129 8.02243
126 1 -1.1104 3.56913 18.6898 6.68835
133 1 -1.1104 3.53523 15.9758 6.58655
118 1 -1.1104 6.41715 15.5784 6.66456
289 1 -1.1104 6.49159 16.0449 9.56435
29 2 2.2208 2.17234 14.4484 10.9774
30 2 2.2208 2.4719 20.1672 10.8828
51 1 -1.1104 3.84045 15.7614 12.2305
52 1 -1.1104 0.929245 15.683 12.2529
203 1 -1.1104 3.6766 15.8139 9.32869
204 2 2.2208 2.2538 17.2846 8.06106
232 1 -1.1104 3.51682 18.7104 9.37572
233 2 2.2208 5.16857 17.1571 10.8946
286 1 -1.1104 3.81126 18.5708 12.284
291 1 -1.1104 0.740197 18.7731 9.56295
292 1 -1.1104 1.08572 16.0017 9.62654
293 2 2.2208 4.97072 19.9549 7.95071
295 2 2.2208 4.8868 14.4488 7.99095
298 1 -1.1104 0.856957 18.5018 12.1087
288 1 -1.1104 6.64825 18.7533 9.28824
112 1 -1.1104 6.62382 18.5026 6.43947
163 1 -1.1104 9.42889 15.6877 6.50915
8881 2 2.2208 13.5143 11.444 7.821
304 2 2.2208 13.478 17.1978 7.72483
53 1 -1.1104 6.53603 15.8741 12.2387
296 1 -1.1104 6.5993 18.5374 12.0498
17305 2 2.2208 13.4501 -5.46553 7.96172
313 2 2.2208 7.77045 5.77791 13.753
8312 2 2.2208 5.20828 -5.38977 -0.276512
8319 2 2.2208 7.95052 -5.23238 13.5808
8974 2 2.2208 13.4071 5.7056 13.47
8224 2 2.2208 7.98144 -5.36527 2.42687
358 2 2.2208 8.00589 14.4793 -0.360588
616 2 2.2208 5.07698 11.5709 -0.293286
307 2 2.2208 2.20386 0.00463224 13.5856
8978 2 2.2208 13.0365 2.88919 -0.445905
640 2 2.2208 7.88392 8.71246 -0.427768
521 2 2.2208 10.6599 19.8145 13.6259
308 2 2.2208 4.83368 3.1375 13.5861
314 2 2.2208 4.94985 0.269672 -0.335774
460 2 2.2208 7.87577 11.4641 13.5528
322 2 2.2208 5.20924 0.374279 16.3033
323 1 -1.1104 0.829614 -4.06776 17.7343
327 1 -1.1104 0.937268 -4.11295 14.9881
335 1 -1.1104 0.660177 -1.1755 17.8441
337 2 2.2208 5.08199 -2.58567 19.1784
339 1 -1.1104 0.728045 -1.16853 15.0087
343 1 -1.1104 3.57031 -3.88785 17.689
345 2 2.2208 2.32324 0.276107 19.2331
346 1 -1.1104 3.50782 -3.96244 14.9376
350 2 2.2208 2.00047 -2.50846 16.5547
352 1 -1.1104 3.71221 -0.983297 17.7395
353 1 -1.1104 3.50769 -1.00364 15.0693
325 1 -1.1104 6.36414 -3.90526 17.632
331 1 -1.1104 6.73512 -3.67882 14.9173
341 1 -1.1104 6.66633 -0.990665 15.3014
9148 2 2.2208 13.3173 11.6207 19.154
336 1 -1.1104 6.63584 -1.06466 18.0369
354 1 -1.1104 3.68422 -1.05585 20.7666
342 1 -1.1104 6.50307 -1.17726 21.0644
639 2 2.2208 10.673 11.4154 27.6309
8457 2 2.2208 7.93786 -5.27367 19.1869
9071 2 2.2208 13.4719 14.4214 27.6464
365 2 2.2208 10.6149 0.172642 16.6488
366 1 -1.1104 12.202 -4.08111 17.9803
368 1 -1.1104 12.2375 -3.73661 15.2309
372 1 -1.1104 11.9537 -1.10755 18.032
373 2 2.2208 10.5646 -2.50541 19.2812
375 1 -1.1104 12.0809 -1.12259 15.0939
377 1 -1.1104 9.27731 -3.91996 17.86
379 2 2.2208 7.74382 0.543606 19.5093
380 1 -1.1104 9.43427 -4.07858 15.1022
384 2 2.2208 7.95224 -2.61888 16.4292
386 1 -1.1104 9.27718 -0.934172 17.9473
387 1 -1.1104 9.40935 -1.26495 14.9557
9102 2 2.2208 13.6423 -2.5694 16.569
318 2 2.2208 7.86343 -2.5308 27.7859
9031 2 2.2208 13.5439 0.329351 19.1613
17320 2 2.2208 13.4931 -5.2585 13.5923
324 1 -1.1104 0.613044 1.65759 17.773
329 1 -1.1104 0.833393 1.65828 14.8249
338 2 2.2208 4.90142 3.17711 19.1977
344 1 -1.1104 3.36719 1.83114 17.8705
348 1 -1.1104 3.73214 1.73939 15.0692
351 2 2.2208 2.14855 3.13128 16.4374
398 2 2.2208 4.88375 6.0731 16.4447
400 1 -1.1104 0.783416 7.60613 17.9781
402 1 -1.1104 0.770245 7.28242 15.0555
406 1 -1.1104 0.908326 4.78845 17.6816
411 1 -1.1104 0.711123 4.33629 15.0476
419 1 -1.1104 3.44646 7.47618 17.9451
420 2 2.2208 2.25121 5.98934 19.2201
422 1 -1.1104 3.59447 7.25294 15.0026
425 1 -1.1104 3.41963 4.63848 17.7756
427 1 -1.1104 3.6063 4.52066 15.0181
9030 2 2.2208 13.5563 16.9346 19.2593
404 1 -1.1104 6.55686 7.28713 15.187
333 1 -1.1104 6.49418 1.88955 15.0625
408 1 -1.1104 6.31955 4.64446 17.8794
326 1 -1.1104 6.17732 1.81642 17.8724
401 1 -1.1104 6.40925 7.4129 17.8161
319 2 2.2208 7.70612 3.21045 27.6536
8454 2 2.2208 5.02324 -5.41779 21.8807
557 2 2.2208 7.82848 19.9793 27.6051
415 1 -1.1104 6.22996 4.58134 15.0855
367 1 -1.1104 12.0866 1.76442 17.8509
370 1 -1.1104 11.8785 1.44536 14.9832
374 2 2.2208 10.6706 3.25834 19.2667
378 1 -1.1104 9.00965 1.8966 17.9796
382 1 -1.1104 9.28178 1.50597 15.1385
385 2 2.2208 7.76012 3.20292 16.4657
434 2 2.2208 10.6091 6.05575 16.4166
436 1 -1.1104 11.8731 7.29617 17.9041
437 1 -1.1104 11.9764 7.39655 14.96
439 1 -1.1104 11.8419 4.52956 17.7727
442 1 -1.1104 11.9188 4.53723 15.0759
446 1 -1.1104 9.25577 7.48877 17.9486
447 2 2.2208 7.82833 6.00767 19.3829
449 1 -1.1104 9.1106 7.29617 14.9866
452 1 -1.1104 9.07627 4.66281 17.9046
454 1 -1.1104 9.06629 4.32365 15.0195
9297 2 2.2208 13.3854 3.17289 16.4054
9174 2 2.2208 13.4939 5.95564 19.4192
399 2 2.2208 5.04373 11.6087 16.4386
407 1 -1.1104 0.692242 10.1557 17.5661
410 2 2.2208 4.88412 8.76933 19.2876
413 1 -1.1104 0.766021 9.96793 14.7964
421 2 2.2208 2.17332 11.4672 19.1871
424 2 2.2208 2.09773 8.81046 16.2967
426 1 -1.1104 3.49787 10.1207 17.8233
429 1 -1.1104 3.64434 9.88983 14.8422
462 1 -1.1104 0.90959 12.9037 17.702
466 1 -1.1104 1.06658 13.2016 14.6728
482 1 -1.1104 4.0252 12.9609 17.7162
485 1 -1.1104 3.6222 12.9164 14.9013
414 1 -1.1104 0.813256 10.1395 20.7405
409 1 -1.1104 6.44657 10.1475 17.9422
417 1 -1.1104 6.30925 9.92652 15.1042
464 1 -1.1104 6.55145 12.8816 17.7564
470 1 -1.1104 6.51081 12.7839 14.8606
476 2 2.2208 5.06375 14.1174 19.3231
8972 2 2.2208 13.5476 8.76662 27.6709
524 2 2.2208 10.3777 17.2176 27.6766
9220 2 2.2208 13.5328 11.4534 24.8826
391 2 2.2208 2.21415 14.2175 27.566
8382 2 2.2208 7.81058 -5.31209 24.9792
9242 2 2.2208 13.1306 8.64749 16.3362
435 2 2.2208 10.6597 11.5431 16.4906
440 1 -1.1104 12.1269 10.0863 17.7457
441 2 2.2208 10.6387 8.79214 19.2163
444 1 -1.1104 11.957 10.0813 15.0546
448 2 2.2208 7.89162 11.3648 19.1537
451 2 2.2208 7.8235 8.68728 16.3744
453 1 -1.1104 9.35553 10.2898 17.7899
456 1 -1.1104 9.23646 10.156 14.8979
498 1 -1.1104 12.1598 13.1126 17.874
500 1 -1.1104 12.2357 12.7338 15.1028
509 1 -1.1104 9.29221 12.8373 17.8909
512 1 -1.1104 9.3389 12.981 15.1319
8384 2 2.2208 4.96534 -5.2414 16.3819
501 1 -1.1104 12.3499 12.8656 20.7105
513 1 -1.1104 9.29624 12.8247 20.6421
9077 2 2.2208 13.4431 14.3028 22.0571
461 2 2.2208 4.99691 17.0705 16.1613
463 1 -1.1104 0.957836 18.4471 17.9258
468 1 -1.1104 0.819724 18.7099 14.7941
474 1 -1.1104 0.760492 15.697 17.7173
477 2 2.2208 4.84087 19.8139 19.133
478 1 -1.1104 0.904538 15.8984 15.1796
483 1 -1.1104 3.53791 18.3695 17.7628
484 2 2.2208 2.27469 17.0775 19.1555
487 1 -1.1104 3.56698 18.5473 15.0638
489 2 2.2208 2.40822 14.4499 16.0864
490 2 2.2208 2.16462 19.9415 16.22
491 1 -1.1104 3.49727 15.7522 17.7759
492 1 -1.1104 3.64869 15.8238 14.6784
465 1 -1.1104 6.30873 18.6996 17.7082
480 1 -1.1104 6.42433 15.4416 15.1232
469 1 -1.1104 0.649558 18.5649 20.6312
493 1 -1.1104 3.6322 15.4301 20.7149
320 2 2.2208 5.01254 6.16371 27.6371
615 2 2.2208 2.04105 8.7421 27.7782
475 1 -1.1104 6.26292 15.7783 18.0721
472 1 -1.1104 6.47145 18.4734 14.9702
473 1 -1.1104 6.43211 18.5211 20.7691
503 1 -1.1104 12.4508 18.3982 20.782
505 2 2.2208 10.6466 14.3742 19.46
497 2 2.2208 10.8421 17.0181 16.4106
499 1 -1.1104 12.0076 18.4202 17.8295
502 1 -1.1104 12.2158 18.5704 15.0088
504 1 -1.1104 12.1142 15.7429 17.8518
506 2 2.2208 10.6979 19.8417 19.0359
507 1 -1.1104 12.1417 15.5708 14.9451
510 1 -1.1104 9.24563 18.4486 17.866
511 2 2.2208 7.93088 17.0957 19.2977
514 1 -1.1104 9.42953 18.5602 14.9367
516 2 2.2208 7.96681 14.3103 16.4003
517 2 2.2208 7.90526 19.8349 16.4
518 1 -1.1104 9.21371 15.609 17.9387
519 1 -1.1104 9.25941 15.8927 14.9155
392 2 2.2208 4.99091 16.9762 27.6726
315 2 2.2208 2.11261 -2.38411 27.6284
515 1 -1.1104 9.42457 18.539 20.6427
328 1 -1.1104 0.845187 -4.09302 20.5844
347 1 -1.1104 3.80662 -3.96236 20.5246
340 1 -1.1104 0.829675 -1.30696 20.5867
332 1 -1.1104 6.47918 -3.8077 20.4286
525 2 2.2208 5.0687 0.161134 22.1499
526 1 -1.1104 0.757315 -4.02096 23.471
530 1 -1.1104 0.629623 -3.97707 26.1058
534 1 -1.1104 0.678962 -1.08148 23.3892
536 2 2.2208 4.95308 -2.47289 24.8481
538 1 -1.1104 0.782521 -1.24118 26.1649
540 1 -1.1104 3.70306 -4.17169 23.5593
542 2 2.2208 2.03439 0.374147 24.9358
543 1 -1.1104 3.4936 -3.97722 26.2232
545 2 2.2208 2.22597 -2.51493 22.1527
547 1 -1.1104 3.58435 -1.39479 23.4984
548 1 -1.1104 3.41051 -0.982765 26.2773
528 1 -1.1104 6.57202 -4.02581 23.3005
535 1 -1.1104 6.66526 -1.10437 23.48
539 1 -1.1104 6.2548 -1.06708 26.3508
532 1 -1.1104 6.51465 -4.04287 26.4199
376 1 -1.1104 11.9992 -1.16877 20.7866
381 1 -1.1104 9.2208 -3.88411 20.5227
369 1 -1.1104 12.0124 -3.77838 20.8356
388 1 -1.1104 9.2286 -0.940987 20.6399
561 2 2.2208 10.5196 0.355541 22.127
562 1 -1.1104 12.3693 -4.12343 23.3474
564 1 -1.1104 12.1375 -4.3168 26.3088
566 1 -1.1104 12.1151 -1.28919 23.5964
567 2 2.2208 10.6554 -2.68273 24.8301
569 1 -1.1104 12.0287 -1.19258 26.1967
570 1 -1.1104 9.57546 -4.1107 23.4016
572 2 2.2208 7.71482 0.346986 24.8114
573 1 -1.1104 9.41412 -3.93511 26.2478
575 2 2.2208 7.94343 -2.59147 22.0997
577 1 -1.1104 9.26757 -1.07444 23.4378
578 1 -1.1104 9.24253 -1.45999 26.1963
9074 2 2.2208 13.5051 -2.47172 22.0629
362 2 2.2208 13.5464 14.4458 16.5547
428 1 -1.1104 3.53663 4.67827 20.6493
423 1 -1.1104 3.51599 7.32594 20.789
405 1 -1.1104 6.28035 7.40305 20.7979
349 1 -1.1104 3.79154 1.89806 20.5465
330 1 -1.1104 0.85477 1.7853 20.5387
412 1 -1.1104 0.447085 4.49207 20.5044
403 1 -1.1104 0.960397 7.23793 20.6687
527 1 -1.1104 0.541198 1.65993 23.3513
531 1 -1.1104 0.547622 1.61487 26.207
537 2 2.2208 4.88329 3.05005 24.887
541 1 -1.1104 3.42976 1.44899 23.3449
544 1 -1.1104 3.47495 1.71266 26.2687
546 2 2.2208 2.0254 3.11274 22.0044
590 2 2.2208 5.08248 6.03867 22.1284
592 1 -1.1104 0.710617 7.31553 23.4617
594 1 -1.1104 0.676572 7.37427 26.325
596 1 -1.1104 0.61368 4.41047 23.284
601 1 -1.1104 0.833868 4.41765 26.1128
605 1 -1.1104 3.62063 7.28864 23.6445
606 2 2.2208 1.97659 6.04505 24.923
608 1 -1.1104 3.32698 7.51959 26.4029
610 1 -1.1104 3.31812 4.37473 23.5646
612 1 -1.1104 3.60565 4.57245 26.3016
334 1 -1.1104 6.24975 1.84299 20.9583
533 1 -1.1104 6.36645 1.53789 26.3669
529 1 -1.1104 6.24579 1.57771 23.531
593 1 -1.1104 6.4472 7.3554 23.5568
603 1 -1.1104 6.45029 4.73453 26.2637
595 1 -1.1104 6.32766 7.16483 26.3196
416 1 -1.1104 6.4657 4.75735 20.773
598 1 -1.1104 6.29571 4.45735 23.5237
9177 2 2.2208 13.3122 19.9844 16.6509
455 1 -1.1104 9.27183 4.69673 20.7093
371 1 -1.1104 11.9434 1.65227 20.6585
383 1 -1.1104 9.09916 2.01284 20.8752
438 1 -1.1104 12.2498 7.31761 20.6162
443 1 -1.1104 12.1188 4.39597 20.6038
450 1 -1.1104 9.37609 7.3678 20.6065
9246 2 2.2208 13.3914 2.90664 22.0853
563 1 -1.1104 11.961 1.51553 23.4409
565 1 -1.1104 11.9562 1.70619 26.2809
568 2 2.2208 10.624 3.08574 24.7011
571 1 -1.1104 9.08209 1.54966 23.5443
574 1 -1.1104 9.11426 1.64653 26.3063
576 2 2.2208 7.6761 3.19225 22.0998
622 1 -1.1104 9.28108 4.44669 26.3132
624 1 -1.1104 9.33417 4.42614 23.457
626 1 -1.1104 9.22518 7.16744 26.2382
628 2 2.2208 8.02886 5.78311 24.7164
629 2 2.2208 10.6431 5.85341 21.9525
631 1 -1.1104 12.0951 7.28011 23.4785
633 1 -1.1104 11.8878 4.32494 23.5264
636 1 -1.1104 12.1463 4.41864 26.3274
638 1 -1.1104 9.3441 7.12665 23.237
632 1 -1.1104 11.9695 7.36943 26.2885
9109 2 2.2208 13.4651 5.79803 25.0415
486 1 -1.1104 3.57149 12.8056 20.6649
418 1 -1.1104 6.46768 9.89245 20.6432
467 1 -1.1104 0.781832 12.7637 20.503
430 1 -1.1104 3.51895 10.1127 20.5683
591 2 2.2208 4.94711 11.3566 22.0553
597 1 -1.1104 0.843519 10.0521 23.4672
600 2 2.2208 5.00477 8.80556 24.9374
602 1 -1.1104 0.701534 10.1805 26.1407
607 2 2.2208 2.17321 11.502 24.8527
609 2 2.2208 2.32528 8.69828 22.095
611 1 -1.1104 3.60073 10.0118 23.6558
613 1 -1.1104 3.64807 10.2045 26.456
393 1 -1.1104 0.923029 12.8915 23.4159
431 1 -1.1104 0.680311 12.9414 26.2001
550 1 -1.1104 3.54386 12.7479 23.4727
582 1 -1.1104 3.47234 12.9006 26.343
604 1 -1.1104 6.5387 10.2055 26.3249
471 1 -1.1104 6.48883 12.8305 20.8303
9072 2 2.2208 13.3948 0.12732 24.8249
17371 2 2.2208 13.5499 -5.48321 19.2846
9248 2 2.2208 13.549 8.671 22.1237
363 1 -1.1104 6.55097 12.914 23.6113
599 1 -1.1104 6.49516 10.2487 23.3189
457 1 -1.1104 9.27337 10.0276 20.7423
445 1 -1.1104 12.1361 10.0277 20.628
621 1 -1.1104 9.43682 10.1407 26.1586
623 1 -1.1104 9.34302 9.9263 23.4013
625 2 2.2208 7.84359 8.65812 22.1184
627 2 2.2208 8.07693 11.6532 24.8968
630 2 2.2208 10.631 11.3448 22.0351
634 1 -1.1104 12.1287 10.113 23.3415
635 2 2.2208 10.8142 8.69116 24.7678
637 1 -1.1104 12.2023 10.1899 26.17
551 1 -1.1104 6.59889 12.9147 26.5172
559 1 -1.1104 12.2107 12.9139 23.5555
580 1 -1.1104 9.41213 12.9581 26.1574
586 1 -1.1104 12.261 12.9181 26.2136
619 1 -1.1104 9.45648 12.9383 23.5171
508 1 -1.1104 11.999 15.6884 20.7058
581 1 -1.1104 6.46356 18.429 26.1354
479 1 -1.1104 0.997962 15.7173 20.4183
488 1 -1.1104 3.47033 18.4502 20.5346
556 1 -1.1104 6.43876 15.9365 23.2913
585 1 -1.1104 3.61113 18.4595 26.3101
355 2 2.2208 5.03581 17.1036 21.92
364 2 2.2208 5.02296 14.2556 24.9512
549 1 -1.1104 6.50845 15.5513 26.2714
395 2 2.2208 5.045 20.1466 24.6559
432 1 -1.1104 0.716892 15.7435 26.0671
458 1 -1.1104 0.624109 18.5621 26.2579
459 1 -1.1104 0.537111 18.5965 23.3579
552 2 2.2208 2.20665 14.2539 21.8804
553 2 2.2208 1.90878 19.7839 22.0014
554 1 -1.1104 3.50804 15.4526 23.4148
555 1 -1.1104 0.754574 15.9012 23.1288
579 1 -1.1104 3.52224 18.4806 23.2977
583 1 -1.1104 3.72465 15.7213 26.093
584 2 2.2208 2.31503 17.0348 24.7223
396 1 -1.1104 6.45566 18.7242 23.3464
481 1 -1.1104 6.31849 15.6354 20.588
8386 2 2.2208 10.7041 -5.25032 16.5701
394 2 2.2208 2.24094 20.007 27.3169
357 1 -1.1104 9.17233 15.6004 23.4699
614 2 2.2208 7.7097 17.415 24.7141
356 1 -1.1104 9.24568 15.8551 26.303
620 1 -1.1104 9.23673 18.5624 23.4204
618 1 -1.1104 11.9746 15.7276 26.2014
588 1 -1.1104 12.0297 15.8114 23.4887
589 2 2.2208 10.7162 14.4794 24.8853
361 2 2.2208 7.84163 20.1035 21.9964
389 2 2.2208 7.86626 14.3056 22.0156
560 1 -1.1104 12.1266 18.6704 23.5258
558 2 2.2208 10.6663 17.1062 22.2397
587 1 -1.1104 12.1327 18.4439 26.4332
390 1 -1.1104 9.38304 18.544 26.1788
617 2 2.2208 10.6819 19.9226 24.7672
520 1 -1.1104 9.29847 15.7329 20.5067
9073 2 2.2208 13.5366 17.1588 24.7013
9215 2 2.2208 -0.456962 19.9961 19.0327
321 2 2.2208 10.6573 5.97212 27.6421
317 2 2.2208 10.6844 0.250492 27.5334
8990 2 2.2208 13.3365 -2.52666 27.545
299 2 2.2208 10.5685 2.96307 13.7184
305 2 2.2208 13.4593 11.5498 13.7674
310 2 2.2208 10.8601 -2.7227 13.8219
8976 2 2.2208 13.4588 0.183258 13.6809
496 2 2.2208 5.07609 14.3591 13.7003
306 2 2.2208 5.04413 -2.60216 13.6876
641 2 2.2208 5.13048 22.9199 4.81904
643 1 -1.1104 0.901791 24.2217 0.762756
644 1 -1.1104 0.822116 24.326 3.58741
645 1 -1.1104 0.921 21.4566 0.366582
647 2 2.2208 5.02226 25.5538 2.17732
648 1 -1.1104 0.815147 21.5669 3.35907
650 1 -1.1104 3.64999 24.1627 0.678196
651 2 2.2208 2.18494 23.0663 2.16532
653 1 -1.1104 3.68215 24.4183 3.56703
654 2 2.2208 2.43489 25.8682 5.0419
655 1 -1.1104 3.54412 21.4588 0.833316
656 1 -1.1104 3.68275 27.0001 0.920463
657 1 -1.1104 3.5555 21.4016 3.71994
649 1 -1.1104 0.850904 27.118 3.60381
658 1 -1.1104 3.75049 27.3478 3.64744
666 1 -1.1104 6.39608 21.6158 3.57941
9668 2 2.2208 13.6419 45.3521 7.82864
782 1 -1.1104 0.91147 23.9881 6.27658
662 1 -1.1104 6.29337 24.1583 0.75934
664 1 -1.1104 6.37946 21.6327 0.728093
1134 2 2.2208 11.1013 42.6307 13.5853
938 2 2.2208 13.427 31.3578 4.96299
784 1 -1.1104 0.809041 21.3217 6.24819
663 1 -1.1104 6.532 24.3753 3.53809
667 1 -1.1104 6.6203 27.2947 3.68592
665 1 -1.1104 6.34534 27.0048 0.686299
668 2 2.2208 10.5954 22.865 4.89211
670 1 -1.1104 11.8708 24.2262 0.930221
671 1 -1.1104 12.0975 24.1991 3.68755
672 1 -1.1104 12.1609 21.5162 0.673034
674 2 2.2208 10.6557 25.5434 2.28305
675 1 -1.1104 12.1587 21.5087 3.41868
677 1 -1.1104 9.09606 24.0981 0.748069
678 2 2.2208 7.76729 23.0529 2.07681
680 1 -1.1104 9.16494 24.2837 3.51926
681 2 2.2208 8.00388 25.7254 5.01463
682 1 -1.1104 9.35114 21.3386 0.514546
684 1 -1.1104 9.24009 21.4623 3.50004
676 1 -1.1104 12.0435 27.0056 3.53793
685 1 -1.1104 9.49607 27.1758 3.76598
815 1 -1.1104 11.9343 24.5916 6.22384
673 1 -1.1104 11.8963 27.1961 0.724429
818 1 -1.1104 9.15632 24.0907 6.27502
683 1 -1.1104 8.90038 27.0552 0.957244
686 1 -1.1104 12.1191 41.2457 12.1967
646 1 -1.1104 0.939975 27.1113 0.755529
642 2 2.2208 5.26523 28.5861 4.98094
652 2 2.2208 2.23787 28.5913 2.29864
690 1 -1.1104 0.808372 29.9186 0.91488
693 1 -1.1104 0.701143 30.0762 3.5521
696 1 -1.1104 0.839464 32.8364 0.985259
697 2 2.2208 5.07812 31.4026 2.11754
699 1 -1.1104 0.755153 32.6746 3.74228
701 1 -1.1104 3.87856 29.7795 0.701366
704 1 -1.1104 3.67796 29.9836 3.52236
706 2 2.2208 2.15651 31.3463 4.91038
708 1 -1.1104 3.6894 32.8356 0.708004
709 1 -1.1104 3.65991 32.9159 3.61255
9698 2 2.2208 13.4537 22.142 13.436
839 1 -1.1104 0.639219 32.7179 6.49211
9620 2 2.2208 13.6299 34.0208 13.3703
841 1 -1.1104 3.82577 29.7553 6.48839
843 1 -1.1104 3.67914 32.7118 6.38448
837 1 -1.1104 6.4416 29.9547 6.37355
817 1 -1.1104 12.2739 27.3041 6.26188
700 1 -1.1104 6.55265 32.8505 3.49327
715 1 -1.1104 6.30184 32.9243 0.680106
714 1 -1.1104 6.48876 29.9934 3.85022
713 1 -1.1104 6.74463 30.0886 0.849656
669 2 2.2208 10.7412 28.5009 4.90796
679 2 2.2208 7.78884 28.5445 2.1484
717 1 -1.1104 12.1438 30.2637 0.78944
719 1 -1.1104 11.9221 29.8339 3.52239
721 1 -1.1104 12.0812 32.9737 0.950437
722 2 2.2208 10.714 31.4022 2.19759
724 1 -1.1104 12.0591 32.6255 3.64527
725 1 -1.1104 9.26849 29.8969 0.648462
728 1 -1.1104 9.30686 29.7948 3.50445
730 2 2.2208 8.12693 31.37 4.74124
732 1 -1.1104 9.21929 32.652 0.741372
733 1 -1.1104 9.31749 32.7302 3.45605
874 1 -1.1104 9.4141 32.8928 6.33068
1005 2 2.2208 8.07412 22.6555 13.5718
840 1 -1.1104 6.62981 32.6393 6.41626
871 1 -1.1104 12.1912 32.7421 6.41771
872 1 -1.1104 9.30532 30.0344 6.22074
869 1 -1.1104 12.137 29.9899 6.65971
1470 1 -1.1104 1.07921 46.8391 12.1019
689 2 2.2208 5.16642 34.1576 4.99795
691 1 -1.1104 0.923297 35.7449 0.782284
694 1 -1.1104 0.892828 35.5097 3.85033
698 2 2.2208 5.16806 37.0364 2.25648
702 1 -1.1104 3.90276 35.6204 0.810477
703 2 2.2208 2.26612 34.1953 2.19293
705 1 -1.1104 3.79619 35.7195 3.6082
707 2 2.2208 2.29506 36.8476 5.02213
735 2 2.2208 5.19035 39.9413 4.95903