ITEM: TIMESTEP
90000
ITEM: NUMBER OF ATOMS
17700
ITEM: BOX BOUNDS pp pp pp
-4.6113183632102744e-01 2.7801131836321026e+01
-5.4108174516399439e+00 3.3349081745165842e+02
-4.3790632751393027e-01 2.7777906327514224e+01
ITEM: ATOMS id type q x y z
1 2 2.2208 5.48899 0.192267 5.25041
2 1 -1.1104 1.26595 -4.1311 1.05062
6 1 -1.1104 1.37449 -4.14924 3.84353
10 1 -1.1104 1.45615 -1.57556 1.08202
12 2 2.2208 5.56345 -2.63839 2.41911
14 1 -1.1104 1.47432 -1.33079 3.90679
16 1 -1.1104 4.10886 -4.03794 1.27865
18 2 2.2208 2.81661 0.0602924 2.49195
19 1 -1.1104 4.13232 -4.06299 3.90067
21 2 2.2208 2.6653 -2.70683 5.21214
23 1 -1.1104 4.07541 -1.3712 1.05658
24 1 -1.1104 4.26259 -1.09947 3.80691
8983 2 2.2208 -0.20914 0.0497187 5.10551
301 2 2.2208 0.030425 -2.84442 2.37372
174 1 -1.1104 3.97782 -1.2808 6.4237
8697 2 2.2208 -0.308801 19.9647 2.46403
288 1 -1.1104 6.629 18.5596 9.35085
8224 2 2.2208 8.42521 -5.39867 2.35542
8975 2 2.2208 13.6496 -3.06296 10.7151
310 2 2.2208 10.9038 -2.74466 13.6007
318 2 2.2208 8.45309 -2.57468 -0.338316
4 1 -1.1104 7.1108 -4.08814 0.961407
8 1 -1.1104 6.85535 -4.10893 3.77509
15 1 -1.1104 7.14178 -1.27909 3.83989
11 1 -1.1104 6.76599 -1.10463 1.0644
31 2 2.2208 11.0758 0.0876491 5.14998
32 1 -1.1104 12.6109 -4.15082 0.947289
34 1 -1.1104 12.5082 -4.13324 3.76042
36 1 -1.1104 12.5239 -1.11943 0.976456
37 2 2.2208 11.0427 -2.54986 2.41308
39 1 -1.1104 12.5806 -1.45395 3.58138
40 1 -1.1104 9.67006 -3.91092 0.911
42 2 2.2208 8.27235 0.205752 2.39405
43 1 -1.1104 9.77434 -3.91718 3.70391
45 2 2.2208 8.32939 -2.59061 5.27883
47 1 -1.1104 9.59147 -1.27583 0.962553
48 1 -1.1104 9.65875 -1.27678 3.78865
433 2 2.2208 2.7006 11.5344 13.6291
53 1 -1.1104 6.8782 15.6257 12.3742
83 2 2.2208 10.9692 19.8659 8.29539
319 2 2.2208 8.23828 3.22131 -0.397905
8284 2 2.2208 5.59676 -5.3983 5.36747
8829 2 2.2208 -0.186241 5.65305 5.2106
3 1 -1.1104 1.178 1.10367 1.15975
7 1 -1.1104 1.11253 1.70829 3.86534
13 2 2.2208 5.53212 3.04043 2.55923
17 1 -1.1104 4.34008 1.56259 1.04862
20 1 -1.1104 3.95388 1.62575 3.8602
22 2 2.2208 2.54633 3.03338 5.03755
54 2 2.2208 5.4881 5.66414 5.24778
56 1 -1.1104 0.928867 7.11858 1.17913
58 1 -1.1104 1.53067 7.08628 3.9655
60 1 -1.1104 1.15423 3.96698 0.827742
67 1 -1.1104 1.01783 4.29126 3.74593
72 2 2.2208 2.44004 5.62107 2.25138
76 1 -1.1104 3.80579 4.60641 0.684435
79 1 -1.1104 3.86329 4.33193 3.5467
74 1 -1.1104 4.268 7.26029 3.95723
71 1 -1.1104 3.77967 7.49953 1.259
8984 2 2.2208 -0.203409 2.73476 2.25519
9 1 -1.1104 6.66309 1.5491 3.61949
524 2 2.2208 11.194 17.3236 -0.336901
9035 2 2.2208 -0.265135 16.9461 -0.386312
59 1 -1.1104 6.93797 7.19403 3.65285
69 1 -1.1104 6.81182 4.41754 3.86352
5 1 -1.1104 7.10268 1.65841 0.948294
63 1 -1.1104 6.76583 4.30889 1.0558
33 1 -1.1104 12.4187 1.65723 1.02672
35 1 -1.1104 12.5997 1.40866 3.83577
38 2 2.2208 11.2813 2.91751 2.3571
41 1 -1.1104 9.74019 1.49812 0.851684
44 1 -1.1104 9.7883 1.63944 3.91019
46 2 2.2208 8.36746 3.10529 5.21565
84 2 2.2208 11.0071 5.8222 5.14163
88 1 -1.1104 12.5991 4.34724 1.0559
92 1 -1.1104 12.564 4.38238 3.85235
95 2 2.2208 8.28158 5.97552 2.43695
99 1 -1.1104 9.56389 4.41547 1.13432
102 1 -1.1104 9.56094 4.5611 3.87818
87 1 -1.1104 12.4106 7.09951 3.51376
86 1 -1.1104 12.7816 7.33695 0.700804
94 1 -1.1104 9.89523 7.23755 0.710161
97 1 -1.1104 9.85573 7.37727 3.79655
57 1 -1.1104 6.67378 7.18819 1.02219
557 2 2.2208 8.39174 20.033 -0.33962
616 2 2.2208 5.39832 11.5948 -0.272276
209 1 -1.1104 9.80579 1.72742 6.45692
8899 2 2.2208 -0.0918505 11.5403 5.30309
55 2 2.2208 5.31714 11.4914 5.19825
61 1 -1.1104 1.11977 10.1107 1.03834
66 2 2.2208 5.28714 8.62442 2.42771
68 1 -1.1104 1.20321 10.2125 3.81804
73 2 2.2208 2.56523 11.485 2.4985
75 2 2.2208 2.60504 8.72736 5.26927
77 1 -1.1104 3.9581 10.0726 1.04181
80 1 -1.1104 4.02208 10.243 3.92387
107 1 -1.1104 1.46454 12.8766 0.883091
113 1 -1.1104 0.853734 12.8359 3.68403
123 1 -1.1104 4.07251 13.0426 1.0237
128 1 -1.1104 3.83583 13.0369 3.75234
8746 2 2.2208 -0.123643 8.82825 2.44924
124 1 -1.1104 3.88786 12.9491 6.32879
320 2 2.2208 5.42946 5.84899 -0.371477
8288 2 2.2208 5.4266 -5.23052 10.9878
156 1 -1.1104 9.81538 18.4539 6.85096
110 1 -1.1104 6.60048 12.8831 1.02636
70 1 -1.1104 6.88723 10.2168 3.48858
115 1 -1.1104 6.59549 12.8837 3.82156
64 1 -1.1104 6.95363 10.0863 0.61662
85 2 2.2208 10.8947 11.3555 5.02458
89 1 -1.1104 12.4511 10.1015 1.03702
91 2 2.2208 11.0643 8.60244 2.22071
93 1 -1.1104 12.5172 9.94803 3.79566
96 2 2.2208 8.12366 11.4238 2.23032
98 2 2.2208 8.36632 8.68279 5.13446
100 1 -1.1104 9.76907 9.98621 1.01481
103 1 -1.1104 9.5009 10.017 3.69049
142 1 -1.1104 12.3466 12.8764 0.961139
146 1 -1.1104 12.474 12.8275 3.7572
153 1 -1.1104 9.39384 12.8624 0.723145
158 1 -1.1104 9.46249 12.812 3.42012
81 1 -1.1104 12.5332 15.9599 12.0993
8804 2 2.2208 -0.328701 14.3323 2.44697
119 2 2.2208 5.42332 14.5503 2.4537
130 2 2.2208 2.64424 14.2854 5.19828
106 2 2.2208 5.41265 17.1561 5.40361
109 1 -1.1104 1.34913 18.6269 1.01566
114 1 -1.1104 1.08429 18.6302 3.95334
116 1 -1.1104 0.990544 15.7923 1.09116
120 2 2.2208 5.54177 20.1108 2.41266
121 1 -1.1104 1.39403 15.7754 3.98817
125 1 -1.1104 4.08272 18.5685 0.844236
127 2 2.2208 2.52084 17.1814 2.54226
129 1 -1.1104 4.00085 18.6664 3.71818
131 2 2.2208 2.5121 20.043 5.22037
132 1 -1.1104 3.9156 15.8452 0.803753
134 1 -1.1104 4.14179 15.8757 3.90533
8865 2 2.2208 -0.117085 17.2302 5.15889
229 1 -1.1104 9.80784 15.6345 12.4318
8994 2 2.2208 -0.140914 -2.64695 13.5932
314 2 2.2208 5.67466 0.369408 -0.428778
309 2 2.2208 8.3648 0.183735 13.5997
122 1 -1.1104 6.89139 15.9098 3.9322
139 1 -1.1104 7.08415 18.8887 3.77719
140 1 -1.1104 7.05884 15.6703 1.02311
138 1 -1.1104 6.77942 18.5478 0.933114
150 2 2.2208 10.7582 14.3862 2.22287
141 2 2.2208 11.0217 17.0212 5.31631
144 1 -1.1104 12.4441 18.7359 1.0953
147 1 -1.1104 12.693 18.1341 3.89065
148 1 -1.1104 12.3847 16.0418 1.12889
151 2 2.2208 10.9779 19.9514 2.41994
152 1 -1.1104 12.4358 15.3823 3.96932
155 1 -1.1104 9.65521 18.5835 1.30178
157 2 2.2208 8.27975 17.1908 2.4426
159 1 -1.1104 9.83228 18.6883 4.0065
160 2 2.2208 8.04312 14.2572 5.12527
161 2 2.2208 8.23082 19.92 5.34725
162 1 -1.1104 9.67635 15.8582 0.855024
164 1 -1.1104 9.65999 15.7034 3.73376
315 2 2.2208 2.73533 -2.72545 -0.301993
118 1 -1.1104 6.6552 15.8324 6.69353
163 1 -1.1104 9.51838 15.4045 6.60865
25 2 2.2208 10.9986 16.9966 10.825
170 1 -1.1104 0.969777 -1.18043 6.70786
172 1 -1.1104 4.12728 -4.22374 6.78919
166 1 -1.1104 1.10653 -4.06478 6.53987
82 2 2.2208 10.9237 14.2904 7.97588
8979 2 2.2208 -0.35443 -2.76425 7.9582
175 2 2.2208 5.39487 0.208994 10.6301
176 1 -1.1104 1.11067 -4.19067 12.2059
180 1 -1.1104 1.23528 -4.05894 9.24265
184 1 -1.1104 1.10565 -1.3889 12.3456
186 2 2.2208 5.47906 -2.67479 8.16862
188 1 -1.1104 1.35398 -1.09655 9.65116
190 1 -1.1104 3.96888 -3.91803 12.1654
192 2 2.2208 2.53541 0.114994 8.0688
193 1 -1.1104 4.06076 -3.93637 9.58539
195 2 2.2208 2.47598 -2.69088 10.8361
197 1 -1.1104 3.92752 -1.00317 12.314
198 1 -1.1104 4.15608 -1.18259 9.21744
8980 2 2.2208 -0.316098 0.29633 10.7783
28 1 -1.1104 9.61321 15.6044 9.50201
171 1 -1.1104 6.74636 -1.21003 6.63666
168 1 -1.1104 7.11424 -4.0772 6.66423
208 1 -1.1104 9.83344 -3.91778 6.49928
207 1 -1.1104 12.4294 -1.32808 6.31558
210 1 -1.1104 9.74165 -1.22806 6.63598
205 1 -1.1104 12.6415 -4.12489 6.53533
189 1 -1.1104 7.18881 -1.12701 9.40489
178 1 -1.1104 6.75506 -3.93876 12.0214
185 1 -1.1104 6.94224 -1.01403 11.9501
182 1 -1.1104 6.85725 -3.92335 9.46498
211 2 2.2208 11.0073 0.184894 10.8133
212 1 -1.1104 12.4129 -4.17507 12.3615
214 1 -1.1104 12.4568 -4.34195 9.36009
216 1 -1.1104 12.4213 -1.21138 12.2265
217 2 2.2208 11.0884 -2.71019 7.93692
219 1 -1.1104 12.4143 -1.63849 9.31452
220 1 -1.1104 9.57105 -4.2754 12.0944
222 2 2.2208 8.37036 0.296174 7.94797
223 1 -1.1104 9.77486 -4.2017 9.52321
225 2 2.2208 8.4029 -2.5536 10.7842
227 1 -1.1104 9.82543 -1.33654 12.1449
228 1 -1.1104 9.85059 -1.38285 9.48387
234 1 -1.1104 1.1074 6.97438 6.83746
239 1 -1.1104 4.02611 4.4124 6.54417
238 1 -1.1104 3.98869 7.13827 6.60723
167 1 -1.1104 0.949881 1.35171 6.63808
8968 2 2.2208 -0.164458 5.7517 10.8349
173 1 -1.1104 3.89704 1.62748 6.58001
236 1 -1.1104 1.28789 4.28468 6.538
8830 2 2.2208 -0.131606 2.929 8.02655
177 1 -1.1104 1.33484 1.65621 12.2923
181 1 -1.1104 1.28571 1.86032 9.43701
187 2 2.2208 5.38987 2.87496 8.03112
191 1 -1.1104 4.15185 1.75861 12.3511
194 1 -1.1104 4.06998 1.63017 9.48928
196 2 2.2208 2.58487 3.0031 10.8445
240 2 2.2208 5.40274 5.726 10.7767
246 1 -1.1104 1.24586 4.53718 12.2335
251 1 -1.1104 1.19982 4.49138 9.52206
255 1 -1.1104 4.13662 6.99795 12.1707
256 2 2.2208 2.68412 5.69535 8.01307
260 1 -1.1104 3.90362 4.298 12.153
262 1 -1.1104 4.07844 4.38183 9.36175
244 1 -1.1104 1.27672 7.36173 9.42437
258 1 -1.1104 3.9987 7.16002 9.45174
242 1 -1.1104 1.09948 7.19935 12.1176
265 1 -1.1104 12.3724 7.20794 6.54354
235 1 -1.1104 6.82307 7.25417 6.36461
206 1 -1.1104 12.7115 1.35294 6.67618
266 1 -1.1104 12.6594 4.22905 6.67262
269 1 -1.1104 10.0829 4.60696 6.70433
169 1 -1.1104 6.9164 1.73838 6.44002
253 1 -1.1104 6.88797 4.39474 9.74968
243 1 -1.1104 7.01033 7.23551 12.3471
267 1 -1.1104 9.53585 7.18404 6.53938
183 1 -1.1104 6.81719 1.61879 9.1044
179 1 -1.1104 6.73062 1.81468 12.1552
237 1 -1.1104 6.99704 4.28414 6.69187
245 1 -1.1104 6.83859 7.07775 9.23176
248 1 -1.1104 6.82129 4.45312 12.5279
213 1 -1.1104 12.6218 1.4955 12.3638
215 1 -1.1104 12.3564 1.5081 9.53548
218 2 2.2208 11.1373 3.03744 8.10502
221 1 -1.1104 9.68179 1.68936 12.2795
224 1 -1.1104 9.47245 1.54837 9.47054
226 2 2.2208 8.42593 3.19219 10.9181
268 1 -1.1104 9.7449 4.49228 9.47402
271 1 -1.1104 9.64537 4.64187 12.1946
273 1 -1.1104 9.7072 7.33573 9.32302
275 2 2.2208 8.37109 5.83705 7.95332
276 2 2.2208 11.2343 5.87578 10.791
278 1 -1.1104 12.5447 7.11845 12.2672
280 1 -1.1104 12.4757 4.1655 12.3315
283 1 -1.1104 12.5279 4.28816 9.59554
285 1 -1.1104 9.78996 7.23844 11.9956
279 1 -1.1104 12.4547 7.14384 9.19997
165 1 -1.1104 9.21988 18.5184 9.56972
201 2 2.2208 8.22144 20.1078 11.0812
62 1 -1.1104 1.46884 9.90283 6.73116
8891 2 2.2208 -0.0209109 11.4841 10.8811
78 1 -1.1104 4.19089 10.1877 6.69244
108 1 -1.1104 1.16202 12.7212 6.74061
241 2 2.2208 5.58036 11.4281 11.0631
247 1 -1.1104 1.40146 10.1151 12.3589
250 2 2.2208 5.3829 8.51738 7.99715
252 1 -1.1104 1.28044 10.1088 9.48143
257 2 2.2208 2.73573 11.4038 8.06355
259 2 2.2208 2.61238 8.50594 10.9239
261 1 -1.1104 4.24074 9.96911 12.3536
263 1 -1.1104 4.13259 9.97545 9.75866
200 1 -1.1104 1.30346 12.9172 12.4039
202 1 -1.1104 3.9088 12.9252 9.52291
287 1 -1.1104 4.21769 13.0867 12.4342
294 1 -1.1104 1.19832 12.9958 9.64781
8898 2 2.2208 -0.157481 8.73601 8.02442
65 1 -1.1104 6.88303 10.0877 6.62097
143 1 -1.1104 12.5573 12.871 6.75474
111 1 -1.1104 6.7528 12.9443 6.5325
154 1 -1.1104 9.46268 12.7294 6.38038
90 1 -1.1104 12.3792 10.1361 6.57859
290 1 -1.1104 6.56201 12.811 9.49817
101 1 -1.1104 9.83128 9.95388 6.41175
297 1 -1.1104 6.97841 12.7336 12.1709
254 1 -1.1104 6.82971 9.98693 9.35814
249 1 -1.1104 7.06016 10.0645 12.0321
264 1 -1.1104 9.79717 10.113 9.23116
270 1 -1.1104 9.61466 10.0758 12.276
272 2 2.2208 8.31662 8.58684 10.923
274 2 2.2208 8.15334 11.3666 8.18341
277 2 2.2208 11.1916 11.354 10.8946
281 1 -1.1104 12.4819 9.98704 12.434
282 2 2.2208 10.9214 8.5795 7.91515
284 1 -1.1104 12.603 10.01 9.59369
26 1 -1.1104 12.5462 12.8408 12.3729
49 1 -1.1104 12.3891 12.8697 9.54963
105 1 -1.1104 9.65925 12.8068 12.1732
137 1 -1.1104 9.36258 12.8505 9.29407
8696 2 2.2208 -0.0201233 20.0835 7.90785
117 1 -1.1104 1.0383 15.5879 6.73834
8670 2 2.2208 -0.21845 14.3509 8.14275
8671 2 2.2208 -0.211478 17.074 10.8112
126 1 -1.1104 3.76397 18.5594 6.66374
295 2 2.2208 5.31619 14.2685 8.0047
231 1 -1.1104 1.21383 18.455 6.50425
133 1 -1.1104 3.71734 15.6745 6.55598
29 2 2.2208 2.70358 14.3391 11.0661
30 2 2.2208 2.40366 20.06 10.7618
51 1 -1.1104 3.85859 15.9437 12.2093
52 1 -1.1104 1.20461 15.773 12.2886
203 1 -1.1104 4.17548 15.78 9.34823
204 2 2.2208 2.46899 17.1448 7.90969
232 1 -1.1104 3.77481 18.5253 9.30891
233 2 2.2208 5.44428 17.0927 10.7532
286 1 -1.1104 3.9043 18.5103 12.2358
291 1 -1.1104 1.083 18.6083 9.40474
292 1 -1.1104 1.26479 15.762 9.49353
293 2 2.2208 5.23095 20.0425 8.06072
298 1 -1.1104 1.02513 18.689 12.2204
199 2 2.2208 8.2911 14.1976 10.9615
296 1 -1.1104 6.73955 18.712 12.4502
289 1 -1.1104 6.96802 15.5095 9.51594
149 1 -1.1104 12.3855 15.9113 6.66574
145 1 -1.1104 12.6172 18.9373 6.92296
27 1 -1.1104 12.334 18.862 12.5049
135 1 -1.1104 9.41801 18.5125 12.2658
112 1 -1.1104 6.79568 18.4329 6.59182
50 1 -1.1104 12.2131 18.1524 9.52477
104 1 -1.1104 12.401 15.514 9.36734
136 2 2.2208 8.23008 17.0561 8.0754
311 2 2.2208 2.6712 5.79511 13.6139
9249 2 2.2208 -0.251488 11.5503 -0.376616
494 2 2.2208 2.56861 17.169 13.5777
306 2 2.2208 5.44196 -2.36187 13.5244
317 2 2.2208 11.046 0.231952 -0.325491
299 2 2.2208 11.0573 2.94342 13.637
522 2 2.2208 11.0985 14.1385 13.6676
308 2 2.2208 5.44223 2.88626 13.658
9221 2 2.2208 -0.255663 5.81551 -0.392504
322 2 2.2208 5.45422 0.151139 16.5529
323 1 -1.1104 1.2361 -3.9364 17.9989
327 1 -1.1104 1.0419 -3.87987 15.2357
335 1 -1.1104 0.982917 -1.02129 17.83
337 2 2.2208 5.40765 -2.58867 19.4849
339 1 -1.1104 1.11467 -1.16899 15.0855
343 1 -1.1104 4.14548 -3.83804 17.6473
345 2 2.2208 2.52354 0.52257 19.1956
346 1 -1.1104 3.77312 -3.7987 14.829
350 2 2.2208 2.69409 -2.52884 16.436
352 1 -1.1104 3.84628 -1.05379 18.0007
353 1 -1.1104 4.33091 -1.14633 15.1341
9032 2 2.2208 -0.340286 0.154422 16.5127
392 2 2.2208 5.50465 17.0406 27.7219
9110 2 2.2208 -0.235097 -2.46953 19.1982
8312 2 2.2208 5.61351 -5.34434 27.7809
495 2 2.2208 5.45769 20.0229 13.7657
8308 2 2.2208 11.137 -5.35554 27.6485
8453 2 2.2208 2.75911 -5.36634 24.8915
549 1 -1.1104 6.86979 15.585 26.1732
336 1 -1.1104 6.83503 -1.17098 18.1444
325 1 -1.1104 6.82349 -3.97777 17.8141
341 1 -1.1104 7.04151 -1.29499 15.0404
331 1 -1.1104 6.63329 -3.99169 14.8612
365 2 2.2208 10.9617 0.0563048 16.4886
366 1 -1.1104 12.4513 -4.267 17.7645
368 1 -1.1104 12.1483 -4.0732 14.9352
372 1 -1.1104 12.4903 -1.2672 17.8664
373 2 2.2208 10.9081 -2.71945 19.2606
375 1 -1.1104 12.4439 -1.24752 15.1188
377 1 -1.1104 9.67985 -4.39631 17.9533
379 2 2.2208 8.17668 0.205988 19.3248
380 1 -1.1104 9.43038 -3.89037 15.089
384 2 2.2208 8.16841 -2.55716 16.603
386 1 -1.1104 9.70228 -1.36305 17.833
387 1 -1.1104 9.60448 -1.07488 14.978
381 1 -1.1104 9.52255 -3.90344 20.5489
615 2 2.2208 2.71704 8.68164 27.5362
376 1 -1.1104 12.509 -1.27762 20.4955
316 2 2.2208 2.89052 3.01463 27.6734
324 1 -1.1104 1.09996 1.95209 17.9403
329 1 -1.1104 1.42168 1.42357 15.3662
338 2 2.2208 5.34102 3.14164 19.502
344 1 -1.1104 3.99211 1.79341 17.9529
348 1 -1.1104 4.10155 1.6178 15.0179
351 2 2.2208 2.66916 3.0899 16.3677
398 2 2.2208 5.40611 5.67067 16.5008
400 1 -1.1104 1.23046 7.41379 17.6926
406 1 -1.1104 1.20348 4.57166 17.7353
411 1 -1.1104 1.2031 4.45686 15.1008
420 2 2.2208 2.58827 5.78048 19.2495
422 1 -1.1104 3.87004 7.18493 15.0883
425 1 -1.1104 3.78705 4.42526 17.8131
427 1 -1.1104 3.98953 4.38507 15.0288
419 1 -1.1104 3.9056 6.96122 17.8436
402 1 -1.1104 1.15654 7.13281 14.8916
9244 2 2.2208 -0.354645 5.78657 16.4288
9033 2 2.2208 -0.290578 3.21904 19.3036
9218 2 2.2208 -0.212425 14.15 13.8623
358 2 2.2208 8.30758 14.4727 27.5675
230 2 2.2208 11.1974 8.51618 13.7537
330 1 -1.1104 1.20914 1.77529 20.7284
321 2 2.2208 11.16 5.82364 27.5963
408 1 -1.1104 6.59644 4.27236 17.9379
333 1 -1.1104 6.77704 1.39887 15.0461
326 1 -1.1104 6.75533 1.52506 17.9533
415 1 -1.1104 7.03056 4.30868 15.1619
404 1 -1.1104 6.68812 7.13364 14.8789
401 1 -1.1104 6.87839 7.10702 17.8344
367 1 -1.1104 12.3864 1.56476 17.9732
370 1 -1.1104 12.3943 1.69789 15.2198
374 2 2.2208 10.9689 2.77432 19.3546
378 1 -1.1104 9.63653 1.3317 17.9156
382 1 -1.1104 9.47077 1.72545 15.1907
385 2 2.2208 8.33531 3.03804 16.6169
434 2 2.2208 11.1476 5.6483 16.4669
437 1 -1.1104 12.5707 7.0581 15.2298
439 1 -1.1104 12.3107 4.17017 17.9468
442 1 -1.1104 12.4829 4.31724 14.9458
447 2 2.2208 8.19473 5.76867 19.3518
449 1 -1.1104 9.61715 7.04249 14.9802
452 1 -1.1104 9.49379 4.33842 18.1419
454 1 -1.1104 9.79779 4.35995 15.1117
446 1 -1.1104 9.58073 7.1719 17.8263
436 1 -1.1104 12.4577 6.97303 17.828
455 1 -1.1104 9.63251 4.36201 20.843
383 1 -1.1104 9.46763 1.56461 20.6828
438 1 -1.1104 12.6389 7.31817 20.5336
371 1 -1.1104 12.4227 1.4648 20.678
8382 2 2.2208 8.28261 -5.39128 24.8112
399 2 2.2208 5.41198 11.4203 16.5514
407 1 -1.1104 1.2301 10.1927 18.1332
410 2 2.2208 5.42285 8.53111 19.4269
413 1 -1.1104 1.16102 9.95504 15.4185
421 2 2.2208 2.67433 11.4692 19.3751
424 2 2.2208 2.675 8.6208 16.5818
426 1 -1.1104 3.97028 9.94165 18.0221
429 1 -1.1104 4.05453 9.84395 15.1488
462 1 -1.1104 1.18942 12.843 18.2085
466 1 -1.1104 1.2745 12.9279 15.2937
482 1 -1.1104 3.96338 12.8582 18.0809
485 1 -1.1104 3.99076 12.9461 15.2432
9243 2 2.2208 -0.165933 8.6504 19.2751
9111 2 2.2208 -0.193045 11.4181 16.6034
640 2 2.2208 8.23286 8.59053 27.6361
464 1 -1.1104 6.81614 12.7972 18.0332
470 1 -1.1104 6.95454 12.9789 14.9148
417 1 -1.1104 6.95143 9.95706 14.9908
409 1 -1.1104 6.90524 10.0403 17.8694
435 2 2.2208 11.0976 11.3135 16.5317
440 1 -1.1104 12.4208 9.96991 17.8633
441 2 2.2208 11.215 8.5254 19.277
444 1 -1.1104 12.7436 9.88486 15.1019
448 2 2.2208 8.39723 11.3606 19.4421
451 2 2.2208 8.27157 8.35261 16.4123
453 1 -1.1104 9.86473 9.85685 17.8508
456 1 -1.1104 9.87326 9.86694 15.0132
498 1 -1.1104 12.386 12.9026 17.691
500 1 -1.1104 12.4986 12.9334 14.9651
509 1 -1.1104 9.49817 12.7008 17.8881
512 1 -1.1104 9.71607 12.6751 14.9146
445 1 -1.1104 12.7261 10.211 20.6143
359 2 2.2208 -0.108925 0.0581104 27.7665
588 1 -1.1104 12.727 15.7065 23.4818
9217 2 2.2208 -0.151732 17.0801 16.4177
9215 2 2.2208 -0.0606622 19.8838 19.0714
489 2 2.2208 2.59442 14.315 16.6539
476 2 2.2208 5.45181 14.2359 19.4535
461 2 2.2208 5.16047 17.3418 16.5402
463 1 -1.1104 1.15535 18.1161 17.9088
468 1 -1.1104 1.19457 18.5058 15.1398
474 1 -1.1104 1.21485 15.5125 17.8298
477 2 2.2208 5.3806 19.7104 19.4575
478 1 -1.1104 1.19767 15.7265 15.0898
483 1 -1.1104 3.88082 18.5392 18.1039
484 2 2.2208 2.56506 17.0504 19.2947
487 1 -1.1104 3.9714 18.7554 14.9069
490 2 2.2208 2.48201 20.0942 16.6422
491 1 -1.1104 4.0282 15.8146 18.0316
492 1 -1.1104 4.00488 15.8847 15.139
469 1 -1.1104 1.36761 18.5206 20.6975
479 1 -1.1104 1.12306 15.654 20.9671
9216 2 2.2208 -0.186887 14.2475 19.3204
493 1 -1.1104 3.91845 15.4538 20.6317
520 1 -1.1104 9.82379 15.6994 20.9991
503 1 -1.1104 12.6016 18.5104 20.7428
480 1 -1.1104 6.74813 15.8044 15.159
475 1 -1.1104 6.99381 15.6903 18.0561
465 1 -1.1104 6.7407 18.5912 17.9255
472 1 -1.1104 6.77553 18.6132 15.1038
516 2 2.2208 8.19065 14.2854 16.596
505 2 2.2208 11.118 14.3461 19.3579
497 2 2.2208 11.0456 17.0937 16.4856
499 1 -1.1104 12.4536 18.532 18.1022
502 1 -1.1104 12.5041 18.5822 15.0502
504 1 -1.1104 12.6557 15.8645 17.8596
506 2 2.2208 11.1116 20.1423 19.4096
507 1 -1.1104 12.7124 15.7427 15.0877
510 1 -1.1104 9.8034 18.7103 17.9892
511 2 2.2208 8.26926 17.1547 19.335
514 1 -1.1104 9.53797 18.3806 15.2604
517 2 2.2208 8.20207 19.7793 16.7541
518 1 -1.1104 9.71904 15.7727 18.097
519 1 -1.1104 9.59476 15.5118 15.1221
473 1 -1.1104 6.87712 18.3175 20.7278
340 1 -1.1104 1.28594 -1.15421 20.5322
347 1 -1.1104 3.97128 -4.23746 20.8631
354 1 -1.1104 4.24059 -1.2432 20.8838
618 1 -1.1104 12.6629 15.744 26.5125
360 2 2.2208 -0.117674 -2.79156 24.9833
328 1 -1.1104 1.2712 -4.22169 20.581
525 2 2.2208 5.51798 0.163721 22.2355
526 1 -1.1104 1.19095 -3.96306 23.577
530 1 -1.1104 1.44103 -3.98693 26.3619
534 1 -1.1104 1.23671 -1.17366 23.4418
536 2 2.2208 5.3918 -2.58782 24.946
538 1 -1.1104 1.1722 -1.34205 26.3605
540 1 -1.1104 3.98099 -4.05674 23.6612
542 2 2.2208 2.60574 0.241919 25.0529
543 1 -1.1104 4.14418 -4.16397 26.5162
545 2 2.2208 2.5372 -2.63822 21.9842
547 1 -1.1104 4.05437 -1.29346 23.454
548 1 -1.1104 4.09491 -1.22594 26.4065
9076 2 2.2208 -0.34318 0.21224 22.2473
515 1 -1.1104 9.70746 18.6574 20.6027
560 1 -1.1104 12.5149 18.4297 23.7033
521 2 2.2208 11.0755 20.0155 13.8566
481 1 -1.1104 6.82492 15.4449 20.6688
388 1 -1.1104 9.79639 -1.18536 20.5438
369 1 -1.1104 12.5726 -3.97042 20.4044
342 1 -1.1104 6.9716 -1.14904 20.7595
332 1 -1.1104 6.86105 -4.05394 20.7782
532 1 -1.1104 6.96391 -3.9475 26.3567
535 1 -1.1104 6.96367 -1.10083 23.4944
528 1 -1.1104 6.89187 -3.92298 23.3326
539 1 -1.1104 6.72428 -0.91428 26.3189
561 2 2.2208 11.102 0.162582 21.962
562 1 -1.1104 12.4437 -4.07859 23.2616
564 1 -1.1104 12.4243 -4.04254 26.0366
566 1 -1.1104 12.6841 -1.09989 23.3079
567 2 2.2208 11.0992 -2.59944 24.8063
569 1 -1.1104 12.363 -1.33299 26.2265
570 1 -1.1104 9.65155 -3.91143 23.5614
572 2 2.2208 8.40128 0.0568404 24.9169
573 1 -1.1104 9.7699 -3.89288 26.2825
575 2 2.2208 8.29811 -2.40101 21.9901
577 1 -1.1104 9.7866 -1.19173 23.3899
578 1 -1.1104 9.63722 -1.18815 26.3064
361 2 2.2208 8.23789 19.9559 22.2091
423 1 -1.1104 4.2872 7.17282 20.7765
349 1 -1.1104 3.99551 1.71214 20.6127
403 1 -1.1104 1.26068 7.32733 20.6163
9275 2 2.2208 -0.229613 5.91611 22.0339
428 1 -1.1104 3.96553 4.39823 20.7763
9075 2 2.2208 -0.0397532 3.10061 25.2015
412 1 -1.1104 1.13614 4.49469 20.6435
527 1 -1.1104 1.05434 1.64109 23.8818
531 1 -1.1104 1.34036 1.55136 26.603
537 2 2.2208 5.42818 3.06712 24.967
541 1 -1.1104 3.88019 1.68516 23.6493
544 1 -1.1104 4.04576 1.50795 26.4763
546 2 2.2208 2.58959 3.03058 22.2407
590 2 2.2208 5.47257 5.80759 22.1715
596 1 -1.1104 1.2517 4.48744 23.5684
601 1 -1.1104 1.25589 4.53896 26.3489
605 1 -1.1104 4.06331 7.30462 23.402
606 2 2.2208 2.59211 6.05943 25.0124
610 1 -1.1104 3.99475 4.31727 23.4169
612 1 -1.1104 4.10653 4.55779 26.4203
608 1 -1.1104 3.99246 7.38944 26.1909
594 1 -1.1104 1.32445 7.26912 26.6567
592 1 -1.1104 1.15179 7.27607 23.649
405 1 -1.1104 7.17464 6.929 20.8171
443 1 -1.1104 12.5195 4.30828 20.7012
334 1 -1.1104 6.66855 1.6493 20.9001
450 1 -1.1104 9.91729 7.13148 20.6565
595 1 -1.1104 6.72574 7.22974 26.3673
603 1 -1.1104 6.7751 4.46446 26.5431
416 1 -1.1104 6.82939 4.39942 20.7039
598 1 -1.1104 6.82234 4.35219 23.6347
529 1 -1.1104 6.8666 1.67471 23.5812
533 1 -1.1104 6.98547 1.66195 26.1812
563 1 -1.1104 12.6602 1.49857 23.4673
565 1 -1.1104 12.5539 1.47568 26.483
568 2 2.2208 11.2384 2.90807 24.9462
571 1 -1.1104 9.69546 1.6119 23.4342
574 1 -1.1104 9.61635 1.63349 26.3526
576 2 2.2208 8.24765 2.97274 22.2814
622 1 -1.1104 9.59938 4.37186 26.3407
624 1 -1.1104 9.86793 4.34171 23.6977
628 2 2.2208 8.31314 5.66866 24.9916
629 2 2.2208 11.0055 5.65865 22.0972
633 1 -1.1104 12.4605 4.29051 23.5357
636 1 -1.1104 12.3909 4.287 26.4987
626 1 -1.1104 9.70288 7.19163 26.171
638 1 -1.1104 9.7746 6.77559 23.5229
632 1 -1.1104 12.5473 7.09069 26.0928
631 1 -1.1104 12.3617 7.19917 23.236
593 1 -1.1104 7.06302 7.19007 23.573
587 1 -1.1104 12.586 18.5061 26.3291
9247 2 2.2208 -0.261865 8.82392 25.0427
486 1 -1.1104 4.10378 12.8179 20.797
430 1 -1.1104 4.17019 9.99752 20.9412
467 1 -1.1104 1.18811 12.8678 20.9859
414 1 -1.1104 1.31153 10.1521 20.7589
9222 2 2.2208 -0.19618 11.3622 22.0876
591 2 2.2208 5.60267 11.5977 22.2235
597 1 -1.1104 1.20903 10.0559 23.4443
600 2 2.2208 5.63176 8.77799 24.8838
602 1 -1.1104 1.13202 10.1537 26.4275
607 2 2.2208 2.52806 11.445 24.8356
609 2 2.2208 2.67628 8.74208 22.134
611 1 -1.1104 4.05127 10.1111 23.6871
613 1 -1.1104 4.17388 10.1575 26.4613
393 1 -1.1104 1.28049 12.9534 23.7833
431 1 -1.1104 1.31421 12.8462 26.415
550 1 -1.1104 4.02348 12.8987 23.3182
582 1 -1.1104 4.14682 12.8004 26.252
581 1 -1.1104 7.30367 18.4489 26.2799
471 1 -1.1104 6.87283 12.6906 20.6875
513 1 -1.1104 9.81703 12.8842 20.6849
418 1 -1.1104 6.97691 9.73099 20.5895
457 1 -1.1104 9.94847 9.88575 20.7357
599 1 -1.1104 7.15704 10.023 23.4782
604 1 -1.1104 6.99535 10.0647 26.2658
363 1 -1.1104 6.84343 12.9652 23.5826
551 1 -1.1104 7.00363 12.6694 26.2621
501 1 -1.1104 12.7621 12.9473 20.5645
621 1 -1.1104 9.68688 9.85501 26.3568
623 1 -1.1104 9.84722 9.88056 23.5368
625 2 2.2208 8.66729 8.38937 22.0359
627 2 2.2208 8.4528 11.2655 24.8747
630 2 2.2208 11.4036 11.5077 22.0676
634 1 -1.1104 12.702 10.1097 23.6934
635 2 2.2208 11.1932 8.5401 24.9145
637 1 -1.1104 12.4064 9.99036 26.3342
559 1 -1.1104 12.5848 12.8008 23.4008
580 1 -1.1104 9.90345 12.8383 26.28
586 1 -1.1104 12.522 12.7932 26.4828
619 1 -1.1104 9.71452 12.8227 23.4035
496 2 2.2208 5.5111 14.2742 13.7348
9029 2 2.2208 -0.173234 19.9599 24.8758
9070 2 2.2208 -0.387228 14.3703 24.7551
9028 2 2.2208 -0.284034 17.1062 22.2863
488 1 -1.1104 4.1703 18.3569 20.8015
364 2 2.2208 5.53251 14.1234 24.8615
552 2 2.2208 2.59857 14.148 21.9523
585 1 -1.1104 4.44749 18.0892 26.0998
355 2 2.2208 5.56674 17.064 22.3192
395 2 2.2208 5.54579 19.7691 25.0035
432 1 -1.1104 1.28727 15.8099 26.5435
458 1 -1.1104 1.55189 18.7991 26.3525
459 1 -1.1104 1.11858 18.5493 23.4731
553 2 2.2208 2.54607 19.8445 22.1195
554 1 -1.1104 4.20204 15.8155 23.6089
555 1 -1.1104 1.10751 15.7638 23.6308
579 1 -1.1104 4.17978 18.5939 23.5247
583 1 -1.1104 4.08579 15.4097 26.1326
584 2 2.2208 2.74126 17.1626 24.8483
389 2 2.2208 8.28831 14.2663 22.1135
558 2 2.2208 11.2776 17.0944 22.1219
614 2 2.2208 8.52962 17.0435 24.9786
390 1 -1.1104 9.82384 18.7519 26.6226
556 1 -1.1104 7.1736 15.5841 23.4789
357 1 -1.1104 9.88469 15.7819 23.7023
356 1 -1.1104 9.74698 15.6112 26.4722
508 1 -1.1104 12.6293 15.7539 20.6318
589 2 2.2208 11.1788 14.4856 24.9023
396 1 -1.1104 6.87464 18.5429 23.4241
620 1 -1.1104 9.82869 18.5757 23.4215
617 2 2.2208 11.2422 19.881 25.016
17688 2 2.2208 -0.268702 -5.37637 16.5609
312 2 2.2208 5.5261 8.48295 13.7724
391 2 2.2208 2.67426 14.2965 27.6185
9219 2 2.2208 -0.222314 19.9338 13.7815
460 2 2.2208 8.30558 11.4068 13.6999
8307 2 2.2208 2.43915 -5.3944 13.6966
523 2 2.2208 8.1098 17.1126 13.8098
9245 2 2.2208 -0.215883 8.68467 13.6887
313 2 2.2208 8.22139 5.76334 13.6968
307 2 2.2208 2.62325 0.206726 13.7058
8987 2 2.2208 -0.177593 2.95229 13.7703
639 2 2.2208 10.9326 11.3584 27.7029
394 2 2.2208 2.79208 20.0423 27.7358
641 2 2.2208 5.61463 23.0267 5.21366
643 1 -1.1104 1.2213 24.2834 1.07842
644 1 -1.1104 1.11436 24.3449 4.00779
645 1 -1.1104 1.11452 21.4593 1.10104
647 2 2.2208 5.40635 25.6023 2.31347
648 1 -1.1104 1.14637 21.4481 3.85506
650 1 -1.1104 4.03276 24.4194 1.00949
651 2 2.2208 2.42727 22.8519 2.60477
653 1 -1.1104 4.00821 24.3307 3.90491
654 2 2.2208 2.63563 25.6855 5.23808
655 1 -1.1104 4.03388 21.4374 1.14432
657 1 -1.1104 4.03617 21.487 3.88238
649 1 -1.1104 1.31229 27.2675 3.58318
9676 2 2.2208 -0.216785 42.5946 2.51619
656 1 -1.1104 4.20844 27.1025 0.990099
658 1 -1.1104 4.30015 26.9563 3.85563
9683 2 2.2208 -0.206191 45.3436 10.8863
1183 2 2.2208 11.0337 22.8432 -0.427887
784 1 -1.1104 1.39799 21.6532 6.80428
789 1 -1.1104 4.15744 21.248 6.5708
665 1 -1.1104 6.97984 27.0613 1.12689
662 1 -1.1104 6.68048 24.3849 0.901892
664 1 -1.1104 6.86445 21.5358 0.906201
666 1 -1.1104 6.72966 21.7611 3.59924
663 1 -1.1104 6.94597 24.5455 3.81864
668 2 2.2208 11.1129 22.739 5.28487
670 1 -1.1104 12.3908 24.0445 0.927718
671 1 -1.1104 12.3095 24.3476 3.72756
672 1 -1.1104 12.4501 21.3888 1.06296
674 2 2.2208 11.0303 25.5702 2.44974
675 1 -1.1104 12.3544 21.3073 3.89196
677 1 -1.1104 9.452 24.3312 0.948289
678 2 2.2208 8.08571 22.9618 2.36861
680 1 -1.1104 9.72373 24.1087 3.80749
681 2 2.2208 8.27344 25.6588 5.29173
682 1 -1.1104 9.68473 21.3239 0.85901
684 1 -1.1104 9.67329 21.3719 3.87101
673 1 -1.1104 12.5709 26.8763 0.851636
818 1 -1.1104 9.67499 24.1921 6.61473
786 1 -1.1104 6.89131 21.4118 6.55186
815 1 -1.1104 12.6269 24.321 6.89381
9677 2 2.2208 -0.159372 39.7769 10.9952
1325 1 -1.1104 9.71223 46.685 1.06216
646 1 -1.1104 1.31098 27.0605 1.11094
642 2 2.2208 5.69216 28.4599 5.18854
652 2 2.2208 2.76485 28.5858 2.3536
690 1 -1.1104 1.3605 30.0676 0.793586
693 1 -1.1104 1.36718 29.9349 3.82025
696 1 -1.1104 1.13947 32.688 1.08998
697 2 2.2208 5.51993 31.4556 2.40454
699 1 -1.1104 1.39259 32.6635 4.08554
701 1 -1.1104 4.11787 30.0697 0.953565
704 1 -1.1104 4.14883 29.9444 3.85657
706 2 2.2208 2.77343 31.1287 5.30277
708 1 -1.1104 4.13069 32.8692 1.08563
709 1 -1.1104 4.13164 32.8025 3.86996
714 1 -1.1104 6.83684 30.1502 3.96781
713 1 -1.1104 6.94607 29.6863 1.07219
843 1 -1.1104 4.13963 32.5932 6.75758
9665 2 2.2208 -0.170148 28.5671 5.13591
9546 2 2.2208 -0.356925 28.6037 10.8473
839 1 -1.1104 1.36265 32.8484 6.82471
835 1 -1.1104 1.36298 29.9341 6.63217
1315 1 -1.1104 12.6013 46.4714 4.01927
1214 2 2.2208 2.77541 31.4303 -0.31777
667 1 -1.1104 6.7758 27.1141 3.92418
9671 2 2.2208 -0.223414 31.2956 2.431
676 1 -1.1104 12.5257 27.0653 4.04412
683 1 -1.1104 9.74245 27.0653 0.981304
685 1 -1.1104 9.57832 27.0558 3.90533
700 1 -1.1104 6.83925 32.9161 3.88687
715 1 -1.1104 7.01809 32.6511 1.07325
669 2 2.2208 10.8098 28.494 5.37333
679 2 2.2208 8.39645 28.3197 2.40567
717 1 -1.1104 12.757 29.7307 1.05329
719 1 -1.1104 12.3438 29.6767 3.755
721 1 -1.1104 12.615 32.6036 1.04869
722 2 2.2208 11.034 31.3285 2.81845
724 1 -1.1104 12.3727 32.6349 4.05248
725 1 -1.1104 9.68664 29.7723 1.28716
728 1 -1.1104 9.62916 29.7547 3.90087
730 2 2.2208 8.28036 31.3315 5.3408
732 1 -1.1104 9.75276 32.7532 1.08274
733 1 -1.1104 9.50488 32.7633 3.68684
820 1 -1.1104 9.69626 27.088 6.86811
787 1 -1.1104 6.9298 27.0831 6.83024
869 1 -1.1104 12.5853 30.0271 6.52112
1155 2 2.2208 5.50545 28.5241 -0.383534
9672 2 2.2208 -0.302083 36.9301 2.48214
936 2 2.2208 11.1417 28.3889 -0.32667
689 2 2.2208 5.45998 34.0344 5.25817
691 1 -1.1104 1.22172 35.6939 1.21831
694 1 -1.1104 1.17638 35.5925 4.13299
698 2 2.2208 5.4866 37.1262 2.57262
702 1 -1.1104 4.03214 35.627 1.06916
703 2 2.2208 2.69326 34.1749 2.71629
705 1 -1.1104 4.04591 35.5457 3.85492
707 2 2.2208 2.58224 37.0426 5.25252
735 2 2.2208 5.45428 39.9126 5.19652
741 1 -1.1104 0.988936 38.3316 1.0803
746 1 -1.1104 0.989319 38.1932 3.87166
751 2 2.2208 2.43655 39.7294 2.34538
755 1 -1.1104 3.9555 38.3971 0.948989
757 1 -1.1104 3.88519 38.568 3.85125