ITEM: TIMESTEP
30000
ITEM: NUMBER OF ATOMS
17700
ITEM: BOX BOUNDS pp pp pp
-4.5516225105650332e-01 2.7795162251056734e+01
-5.1954083618980995e+00 3.3327540836190389e+02
-4.3826293053450699e-01 2.7778262930534467e+01
ITEM: ATOMS id type q x y z
1 2 2.2208 5.43095 0.544607 5.26625
2 1 -1.1104 1.14821 -3.84656 1.02864
6 1 -1.1104 1.18693 -4.05386 3.70145
10 1 -1.1104 0.95222 -0.886234 1.18237
12 2 2.2208 5.22638 -2.46886 2.33898
14 1 -1.1104 1.07806 -1.13827 3.95984
16 1 -1.1104 4.01848 -3.85134 0.917868
18 2 2.2208 2.44635 0.569005 2.49375
19 1 -1.1104 3.99002 -3.81633 3.73369
21 2 2.2208 2.47746 -2.45872 5.0859
23 1 -1.1104 3.83855 -1.00166 0.987725
24 1 -1.1104 3.8286 -1.05304 3.86367
4 1 -1.1104 6.79377 -3.67106 0.847688
11 1 -1.1104 6.7595 -0.885761 1.14756
172 1 -1.1104 3.83924 -3.9265 6.38414
168 1 -1.1104 6.75307 -3.61102 6.77478
166 1 -1.1104 1.21617 -3.75005 6.84602
391 2 2.2208 2.56718 14.6941 -0.237504
8696 2 2.2208 -0.0554976 20.2659 8.06121
8 1 -1.1104 6.65047 -3.76446 3.87778
15 1 -1.1104 6.82232 -0.720111 3.84763
171 1 -1.1104 6.78424 -0.943332 6.5427
31 2 2.2208 11.0589 0.483638 5.37749
32 1 -1.1104 12.5942 -3.90707 0.777702
34 1 -1.1104 12.3421 -3.85766 3.74482
36 1 -1.1104 12.4106 -1.23792 1.16362
37 2 2.2208 10.8643 -2.21846 2.49332
39 1 -1.1104 12.5314 -1.09014 3.81782
40 1 -1.1104 9.50532 -3.7265 0.887801
42 2 2.2208 8.0812 0.568749 2.53209
43 1 -1.1104 9.43872 -3.68742 3.90886
45 2 2.2208 8.1637 -2.20266 5.33471
47 1 -1.1104 9.62088 -0.931609 0.994038
48 1 -1.1104 9.64864 -0.802304 4.00823
210 1 -1.1104 9.67787 -0.925337 6.70214
207 1 -1.1104 12.4542 -0.979163 6.59185
208 1 -1.1104 9.57766 -3.78868 6.67327
8829 2 2.2208 -0.335017 6.13723 5.30023
8898 2 2.2208 -0.20213 9.05973 8.10473
3 1 -1.1104 1.01507 2.07861 1.05591
7 1 -1.1104 1.16248 2.08363 3.86495
13 2 2.2208 5.09678 3.24558 2.65343
17 1 -1.1104 4.08591 1.72612 1.161
20 1 -1.1104 3.89825 1.83271 3.85473
22 2 2.2208 2.59036 3.24009 5.33483
54 2 2.2208 5.23235 6.04435 5.42617
56 1 -1.1104 0.907399 7.62884 0.992868
58 1 -1.1104 1.01184 7.71616 3.88239
60 1 -1.1104 1.02815 4.94127 0.945548
67 1 -1.1104 1.1751 5.03132 3.8744
71 1 -1.1104 3.99405 7.61091 1.10491
72 2 2.2208 2.43625 6.18492 2.47906
76 1 -1.1104 3.93237 4.67307 1.0509
79 1 -1.1104 3.98307 4.50996 4.02551
9 1 -1.1104 6.82432 2.16475 4.00852
234 1 -1.1104 0.998056 7.80794 6.57123
239 1 -1.1104 3.71819 4.76723 6.87004
63 1 -1.1104 6.53969 4.66335 1.29634
173 1 -1.1104 4.10966 1.83836 6.62614
238 1 -1.1104 3.98825 7.32815 6.80303
236 1 -1.1104 1.02358 4.66232 6.74478
8899 2 2.2208 -0.168287 11.9149 5.32289
74 1 -1.1104 4.10608 7.55231 3.94945
167 1 -1.1104 1.13743 1.69892 6.76921
8880 2 2.2208 13.6276 5.93652 2.45128
69 1 -1.1104 6.72547 4.66919 3.9964
5 1 -1.1104 6.79588 2.02032 1.19925
59 1 -1.1104 6.7359 7.37058 3.95508
235 1 -1.1104 6.79239 7.55616 6.7564
57 1 -1.1104 6.85611 7.4885 1.13943
237 1 -1.1104 6.51622 4.80589 6.79187
33 1 -1.1104 12.3406 1.65015 1.25289
35 1 -1.1104 12.3441 1.7207 4.02012
38 2 2.2208 11.2567 2.97359 2.60101
41 1 -1.1104 9.53336 1.91685 1.21343
44 1 -1.1104 9.62855 1.94685 4.06814
46 2 2.2208 8.21139 3.48094 5.31471
84 2 2.2208 10.9577 6.04363 5.19336
86 1 -1.1104 12.4386 7.37704 0.896381
88 1 -1.1104 12.315 4.55656 1.11957
92 1 -1.1104 12.3421 4.55281 3.96501
94 1 -1.1104 9.58344 7.40418 1.00276
95 2 2.2208 8.1499 6.00593 2.75654
99 1 -1.1104 9.45021 4.88327 1.36137
102 1 -1.1104 9.65801 4.64859 4.07089
97 1 -1.1104 9.5262 7.44026 3.87252
87 1 -1.1104 12.5922 7.42178 3.93215
209 1 -1.1104 9.83146 1.96356 6.7992
206 1 -1.1104 12.5913 1.88739 6.78727
269 1 -1.1104 9.53166 4.71973 6.70376
266 1 -1.1104 12.409 4.76223 6.77288
265 1 -1.1104 12.3576 7.47617 6.78488
267 1 -1.1104 9.60208 7.59885 6.75038
8284 2 2.2208 5.37887 -5.07659 5.40279
55 2 2.2208 5.27452 11.6775 5.33736
61 1 -1.1104 1.21703 10.444 1.30431
66 2 2.2208 5.40546 8.89129 2.55143
68 1 -1.1104 1.18032 10.5303 3.95563
73 2 2.2208 2.56722 11.8582 2.55349
75 2 2.2208 2.58677 8.87201 5.37885
77 1 -1.1104 3.93022 10.4289 1.19155
80 1 -1.1104 3.89609 10.5671 4.00911
107 1 -1.1104 1.1079 13.3253 1.10794
113 1 -1.1104 1.17771 13.2937 4.01703
123 1 -1.1104 4.02609 13.1194 1.25015
128 1 -1.1104 4.13078 13.3097 4.17965
62 1 -1.1104 1.11584 10.5857 6.6837
124 1 -1.1104 3.66453 13.2712 6.77044
78 1 -1.1104 4.09546 10.2477 6.9151
108 1 -1.1104 1.09175 13.5283 6.57854
8979 2 2.2208 -0.288267 -2.53648 8.21287
110 1 -1.1104 6.84895 13.1759 1.00224
115 1 -1.1104 6.85116 12.8899 3.79063
64 1 -1.1104 6.95183 10.3967 1.16793
111 1 -1.1104 6.78026 12.9647 6.67107
70 1 -1.1104 6.68561 10.2331 3.89923
65 1 -1.1104 6.96642 10.2646 6.6417
85 2 2.2208 11.1817 11.833 5.23242
89 1 -1.1104 12.3428 10.2586 1.01659
91 2 2.2208 11.174 9.00001 2.426
93 1 -1.1104 12.4727 10.3456 3.98328
96 2 2.2208 8.28647 11.6035 2.47871
98 2 2.2208 8.37105 8.8719 5.38484
100 1 -1.1104 9.85311 10.3446 1.24682
103 1 -1.1104 9.62739 10.3971 4.10684
142 1 -1.1104 12.5166 13.1386 1.0908
146 1 -1.1104 12.6406 13.0905 3.77341
153 1 -1.1104 9.52633 13.2188 1.15281
158 1 -1.1104 9.84122 13.1986 3.71375
143 1 -1.1104 12.6804 13.3834 6.58951
154 1 -1.1104 9.73911 13.241 6.64327
90 1 -1.1104 12.4864 10.3247 6.92496
101 1 -1.1104 9.81475 10.3787 6.88196
130 2 2.2208 2.53159 14.7122 5.2033
119 2 2.2208 5.34915 14.5978 2.54391
106 2 2.2208 5.49722 17.2872 5.48754
109 1 -1.1104 1.17301 19.0415 0.926829
114 1 -1.1104 1.24034 18.7553 3.95764
116 1 -1.1104 1.18209 16.1622 0.940656
120 2 2.2208 5.52677 20.2407 2.52012
121 1 -1.1104 1.19991 16.0195 3.80183
125 1 -1.1104 4.17466 18.9627 1.28352
127 2 2.2208 2.6098 17.3856 2.43696
129 1 -1.1104 3.95744 18.8971 4.00811
131 2 2.2208 2.77868 20.1877 5.40307
132 1 -1.1104 4.12553 16.1627 1.05147
134 1 -1.1104 4.07381 16.1582 3.90065
138 1 -1.1104 6.82484 18.8039 0.765767
112 1 -1.1104 7.14243 18.6723 6.50408
8670 2 2.2208 0.0407726 14.7639 8.2276
8865 2 2.2208 -0.0762303 17.444 5.10321
50 1 -1.1104 12.2689 18.6664 9.30434
8308 2 2.2208 10.9683 -4.99555 -0.434967
8980 2 2.2208 -0.42145 0.342023 10.9108
25 2 2.2208 11.0269 17.6722 10.8674
122 1 -1.1104 6.75889 15.9301 3.85348
118 1 -1.1104 7.02185 15.7234 6.80474
139 1 -1.1104 6.88578 18.6566 3.62272
140 1 -1.1104 6.90185 15.8611 1.09057
145 1 -1.1104 12.5363 18.7706 6.62041
156 1 -1.1104 9.85236 18.691 6.58572
150 2 2.2208 10.883 14.6318 2.33941
141 2 2.2208 11.1439 17.4564 5.26269
144 1 -1.1104 12.3954 18.5399 0.89616
147 1 -1.1104 12.6201 18.6839 3.66096
148 1 -1.1104 12.277 15.8635 0.957004
151 2 2.2208 11.1045 20.14 2.13188
152 1 -1.1104 12.3997 16.1218 3.77436
155 1 -1.1104 9.47807 18.7362 0.763867
157 2 2.2208 8.22485 17.3402 2.28977
159 1 -1.1104 9.76742 18.743 3.64957
160 2 2.2208 8.22901 14.5139 5.11568
161 2 2.2208 8.47101 20.0879 5.23464
162 1 -1.1104 9.55162 15.9373 0.856136
164 1 -1.1104 9.66412 16.0443 3.763
163 1 -1.1104 9.75198 16.062 6.56402
149 1 -1.1104 12.7446 16.1664 6.6264
307 2 2.2208 2.35141 0.40804 13.6665
170 1 -1.1104 1.113 -1.17136 6.66553
174 1 -1.1104 4.04942 -1.13311 6.73718
9221 2 2.2208 -0.452835 6.29054 -0.348261
358 2 2.2208 8.12185 14.5424 -0.231332
175 2 2.2208 5.28372 0.352208 10.9053
176 1 -1.1104 1.11397 -3.72663 12.2567
180 1 -1.1104 1.2801 -4.0021 9.60886
184 1 -1.1104 0.896748 -0.934179 12.2704
186 2 2.2208 5.53366 -2.44474 8.20487
188 1 -1.1104 1.11884 -1.14846 9.51077
190 1 -1.1104 3.87684 -3.6389 12.6848
192 2 2.2208 2.5748 0.0813204 7.99695
193 1 -1.1104 3.80971 -4.01103 9.3637
195 2 2.2208 2.45141 -2.56301 10.9765
197 1 -1.1104 3.95445 -0.945581 12.2797
198 1 -1.1104 3.97721 -1.26837 9.56619
178 1 -1.1104 6.55568 -3.81074 12.3002
8804 2 2.2208 -0.435038 14.7962 2.34486
8968 2 2.2208 -0.37145 6.14602 10.8584
301 2 2.2208 -0.278073 -2.37735 2.41701
392 2 2.2208 5.48766 17.346 -0.367927
205 1 -1.1104 12.4141 -3.74573 6.30416
321 2 2.2208 10.838 6.02849 -0.242272
199 2 2.2208 8.28021 14.4444 10.8085
185 1 -1.1104 6.99476 -0.935701 12.1741
182 1 -1.1104 6.801 -3.79177 9.54832
189 1 -1.1104 7.0367 -1.09748 9.57334
211 2 2.2208 10.9645 0.354273 11.0151
212 1 -1.1104 12.5197 -3.80767 12.2597
214 1 -1.1104 12.2578 -3.77098 9.27677
216 1 -1.1104 12.3245 -1.26058 12.2631
217 2 2.2208 10.9644 -2.33675 8.01709
219 1 -1.1104 12.6172 -0.969454 9.48261
220 1 -1.1104 9.44023 -3.962 12.3732
222 2 2.2208 8.28902 0.548893 8.14855
223 1 -1.1104 9.5287 -3.99775 9.41791
225 2 2.2208 8.22297 -2.44863 10.9546
227 1 -1.1104 9.67094 -1.13087 12.5868
228 1 -1.1104 9.9507 -0.949598 9.50146
28 1 -1.1104 9.68388 16.1329 9.61633
394 2 2.2208 2.86302 20.3213 -0.332973
319 2 2.2208 8.10186 3.47517 -0.0382482
177 1 -1.1104 1.18406 1.90776 12.1861
181 1 -1.1104 0.837406 1.77319 9.52526
187 2 2.2208 5.27127 3.3167 8.11639
191 1 -1.1104 3.8498 1.67042 12.2717
194 1 -1.1104 3.81995 1.65888 9.31468
196 2 2.2208 2.38175 3.23296 10.943
240 2 2.2208 5.36613 6.12947 10.8395
242 1 -1.1104 1.10569 7.45498 12.4165
246 1 -1.1104 0.915364 4.58444 12.2633
251 1 -1.1104 1.11996 4.72537 9.50107
255 1 -1.1104 4.06776 7.54776 12.1809
256 2 2.2208 2.27692 6.21146 8.21047
258 1 -1.1104 3.6761 7.5366 9.38955
260 1 -1.1104 3.73079 4.6083 12.3487
262 1 -1.1104 3.91166 4.55352 9.49205
244 1 -1.1104 1.01052 7.47761 9.56066
320 2 2.2208 5.34339 6.27005 -0.193142
229 1 -1.1104 9.57484 16.1473 12.4064
27 1 -1.1104 12.5093 19.0077 12.0736
615 2 2.2208 2.56986 9.11805 -0.207813
169 1 -1.1104 6.82978 1.81363 6.8109
9249 2 2.2208 -0.356167 11.9329 -0.372029
81 1 -1.1104 12.6188 16.128 12.3992
248 1 -1.1104 6.61132 4.66373 12.3497
183 1 -1.1104 6.75368 1.70108 9.61823
245 1 -1.1104 6.9249 7.6432 9.46735
179 1 -1.1104 6.53132 1.75755 12.2032
243 1 -1.1104 6.82829 7.3964 12.5066
253 1 -1.1104 6.73303 4.81253 9.5461
213 1 -1.1104 12.0647 1.56457 12.4682
215 1 -1.1104 12.3635 1.82301 9.46011
218 2 2.2208 11.1377 3.27492 8.24408
221 1 -1.1104 9.11971 1.86063 12.5351
224 1 -1.1104 9.53645 1.69185 9.74333
226 2 2.2208 8.04924 3.19825 10.9592
268 1 -1.1104 9.62172 4.56919 9.54278
271 1 -1.1104 9.59096 4.53085 12.3545
273 1 -1.1104 9.69353 7.41708 9.32228
275 2 2.2208 8.21902 5.96848 8.24648
276 2 2.2208 11.0001 6.04077 11.1422
278 1 -1.1104 12.4199 7.32571 12.6893
279 1 -1.1104 12.3518 7.29504 9.56102
280 1 -1.1104 12.3755 4.52304 12.4347
283 1 -1.1104 12.4915 4.45975 9.60236
285 1 -1.1104 9.68789 7.65449 12.0923
165 1 -1.1104 9.6045 18.9035 9.40438
241 2 2.2208 5.46713 11.7054 10.8413
247 1 -1.1104 1.0796 10.4235 12.3284
250 2 2.2208 5.44648 9.00778 8.12702
252 1 -1.1104 1.12719 10.3318 9.44312
257 2 2.2208 2.5774 11.8261 8.0469
259 2 2.2208 2.55759 9.02068 11.0292
261 1 -1.1104 3.7406 10.1872 12.7397
263 1 -1.1104 4.04528 10.509 9.62731
200 1 -1.1104 1.06691 13.363 12.5301
202 1 -1.1104 3.88767 13.108 9.44481
287 1 -1.1104 4.12023 13.1356 12.4039
294 1 -1.1104 1.25978 13.2285 9.73665
297 1 -1.1104 6.84186 13.0376 12.2261
306 2 2.2208 5.50105 -2.29447 13.568
8983 2 2.2208 -0.328736 0.370277 5.24833
8891 2 2.2208 -0.283138 11.8057 10.8637
8697 2 2.2208 -0.178791 20.4229 2.19822
640 2 2.2208 8.25401 8.83609 -0.104285
254 1 -1.1104 6.87329 10.2193 9.36339
249 1 -1.1104 6.59984 10.2924 12.2222
290 1 -1.1104 6.77302 13.1231 9.40815
264 1 -1.1104 9.55494 10.3989 9.70395
270 1 -1.1104 9.45947 10.3287 12.2702
272 2 2.2208 8.2617 8.83644 10.7637
274 2 2.2208 8.21478 11.7236 8.08596
277 2 2.2208 10.8026 11.9131 10.9792
281 1 -1.1104 12.5433 10.2375 12.2452
282 2 2.2208 11.0564 8.95358 8.07469
284 1 -1.1104 12.5586 10.3764 9.53877
26 1 -1.1104 12.3781 13.2107 12.2129
49 1 -1.1104 12.5031 13.3912 9.37667
105 1 -1.1104 9.62857 13.2633 12.2384
137 1 -1.1104 9.54486 13.1769 9.54648
317 2 2.2208 10.9353 0.490562 -0.395732
231 1 -1.1104 1.3082 18.7308 6.64707
117 1 -1.1104 1.37792 16.0898 6.97489
133 1 -1.1104 4.21485 16.0482 6.74681
126 1 -1.1104 4.15319 18.8089 6.61154
8830 2 2.2208 -0.134906 3.31934 8.09537
83 2 2.2208 10.9849 20.0604 7.86641
289 1 -1.1104 6.6795 16.0015 9.52473
53 1 -1.1104 6.63138 15.8376 12.1216
295 2 2.2208 5.32577 14.4563 8.10126
29 2 2.2208 2.46869 14.626 10.9667
30 2 2.2208 2.61505 20.3126 10.9521
51 1 -1.1104 4.01099 15.9514 12.1899
52 1 -1.1104 1.01374 16.1102 12.4274
203 1 -1.1104 3.88909 16.1227 9.66067
204 2 2.2208 2.7373 17.3944 8.10739
232 1 -1.1104 4.33092 19.1098 9.68728
233 2 2.2208 5.5055 17.4851 11.0278
286 1 -1.1104 3.95603 18.96 12.4945
291 1 -1.1104 1.47449 18.7576 9.31786
292 1 -1.1104 1.12937 16.0813 9.66144
293 2 2.2208 5.59488 20.265 8.15637
298 1 -1.1104 1.19937 18.9114 12.3255
296 1 -1.1104 6.7543 19.0101 12.2884
288 1 -1.1104 6.98301 18.8143 9.24636
82 2 2.2208 11.1734 14.6797 7.99095
8671 2 2.2208 -0.270247 17.5764 10.8601
8746 2 2.2208 -0.277823 9.11 2.51688
104 1 -1.1104 12.5809 15.9502 9.40575
135 1 -1.1104 9.48743 18.8648 12.2881
201 2 2.2208 8.31849 20.2988 10.8032
136 2 2.2208 8.27878 17.3575 7.95625
496 2 2.2208 5.39167 14.5687 13.5685
521 2 2.2208 11.0337 20.3741 13.5977
523 2 2.2208 8.25166 17.4311 13.6457
309 2 2.2208 8.2221 0.317818 13.6584
359 2 2.2208 -0.298655 0.494609 -0.313779
616 2 2.2208 5.57562 11.7035 -0.412048
494 2 2.2208 2.62772 17.5025 13.66
316 2 2.2208 2.53046 3.37466 -0.344919
322 2 2.2208 5.34682 0.305978 16.4622
323 1 -1.1104 0.961101 -3.85523 18.1649
327 1 -1.1104 1.16901 -3.89777 15.032
335 1 -1.1104 1.11717 -1.12605 17.9921
337 2 2.2208 5.32274 -2.34458 19.6571
339 1 -1.1104 1.15826 -0.720891 15.1877
343 1 -1.1104 4.11344 -3.87174 18.195
345 2 2.2208 2.58726 0.285292 19.376
346 1 -1.1104 3.86094 -3.91133 15.4783
350 2 2.2208 2.47841 -2.53371 16.3881
352 1 -1.1104 3.8718 -1.15562 17.8156
353 1 -1.1104 4.10195 -1.08486 14.7739
325 1 -1.1104 6.97357 -3.72725 18.181
336 1 -1.1104 6.7045 -0.936378 18.2513
8319 2 2.2208 8.24782 -5.04051 13.7908
340 1 -1.1104 1.10025 -0.954348 20.5349
9243 2 2.2208 -0.295751 8.84301 19.4483
8386 2 2.2208 11.089 -5.02391 16.6553
341 1 -1.1104 6.96149 -0.910642 15.4019
331 1 -1.1104 6.70354 -3.70124 15.0252
524 2 2.2208 10.9781 17.4018 27.7304
342 1 -1.1104 6.6909 -0.95322 21.2058
365 2 2.2208 10.894 0.389045 16.4822
366 1 -1.1104 12.5103 -3.69355 18.019
368 1 -1.1104 12.6323 -3.55028 15.1101
372 1 -1.1104 12.2363 -0.890908 17.9602
373 2 2.2208 11.1737 -2.45187 19.3354
375 1 -1.1104 12.4373 -0.823504 15.295
377 1 -1.1104 9.62359 -3.71289 17.9583
379 2 2.2208 8.28242 0.392632 19.5079
380 1 -1.1104 9.57749 -3.79007 15.3018
384 2 2.2208 8.23042 -2.28248 16.8148
386 1 -1.1104 9.53524 -0.872279 17.9152
387 1 -1.1104 9.54494 -0.886666 15.1514
381 1 -1.1104 9.71715 -3.93297 20.7205
388 1 -1.1104 9.478 -1.06771 20.7803
376 1 -1.1104 12.2653 -0.845363 20.8339
332 1 -1.1104 6.61265 -3.8782 20.7959
369 1 -1.1104 12.6298 -3.3585 20.8803
9218 2 2.2208 -0.268807 14.6536 13.8016
324 1 -1.1104 1.04 1.83393 17.898
329 1 -1.1104 0.985428 2.01477 14.9591
338 2 2.2208 5.35291 3.22489 19.4422
344 1 -1.1104 3.89238 1.55923 17.8919
348 1 -1.1104 4.12074 1.73646 15.3387
351 2 2.2208 2.4656 3.10354 16.5493
398 2 2.2208 5.26649 6.05182 16.554
400 1 -1.1104 0.970231 7.47105 17.9868
402 1 -1.1104 1.12697 7.54569 15.1757
406 1 -1.1104 1.28406 4.53846 18.1566
411 1 -1.1104 0.94931 4.66702 15.5028
419 1 -1.1104 3.85443 7.26821 17.9649
420 2 2.2208 2.42143 6.05882 19.2939
422 1 -1.1104 3.74328 7.52992 14.8511
425 1 -1.1104 3.94521 4.42307 18.1269
427 1 -1.1104 3.61832 4.85181 15.2449
415 1 -1.1104 6.66684 4.61675 15.2709
408 1 -1.1104 6.69882 4.72549 18.1269
326 1 -1.1104 6.59407 1.89279 18.0245
404 1 -1.1104 6.67567 7.48193 15.316
349 1 -1.1104 3.87001 2.02851 20.6339
423 1 -1.1104 3.60914 7.43432 20.816
416 1 -1.1104 6.4868 4.80618 21.0454
428 1 -1.1104 3.73921 4.867 20.7668
412 1 -1.1104 0.985376 4.74622 20.9833
403 1 -1.1104 0.938141 7.49396 20.7708
330 1 -1.1104 1.03434 1.94189 20.8723
557 2 2.2208 8.22117 20.1447 27.685
433 2 2.2208 2.42841 11.9319 13.7064
405 1 -1.1104 6.66804 7.5474 20.8872
401 1 -1.1104 6.63907 7.37513 17.9557
333 1 -1.1104 6.82572 1.79148 15.0449
367 1 -1.1104 12.3937 1.83626 17.9746
370 1 -1.1104 12.5325 1.78053 15.258
374 2 2.2208 10.9318 3.23345 19.4311
378 1 -1.1104 9.50238 1.83981 17.9263
382 1 -1.1104 9.73113 1.94874 15.0667
385 2 2.2208 8.05432 3.16736 16.6425
434 2 2.2208 10.9757 6.00098 16.5708
436 1 -1.1104 12.2799 7.31343 18.0591
437 1 -1.1104 12.3213 7.55096 15.1452
439 1 -1.1104 12.3691 4.78822 18.0384
442 1 -1.1104 12.3158 4.56766 15.2959
446 1 -1.1104 9.5787 7.49685 17.5649
447 2 2.2208 8.11476 5.99517 19.3063
449 1 -1.1104 9.75393 7.34132 14.7365
452 1 -1.1104 9.46705 4.67833 18.1108
454 1 -1.1104 9.43291 4.76749 15.3796
443 1 -1.1104 12.4469 4.67306 20.8046
371 1 -1.1104 12.3025 1.9442 20.7552
438 1 -1.1104 12.3582 7.55866 20.8297
383 1 -1.1104 9.45445 1.76094 20.9397
455 1 -1.1104 9.53989 4.67439 20.8293
334 1 -1.1104 6.72368 1.88506 20.9333
450 1 -1.1104 9.28137 7.42959 20.8241
589 2 2.2208 10.9622 14.3301 25.0669
399 2 2.2208 5.41839 11.875 16.6667
407 1 -1.1104 0.99848 10.1612 18.2235
410 2 2.2208 5.07078 8.86313 19.3998
413 1 -1.1104 1.23496 10.342 15.4843
421 2 2.2208 2.62139 11.6807 19.3818
424 2 2.2208 2.40791 8.67564 16.5185
426 1 -1.1104 3.79282 10.1484 17.972
429 1 -1.1104 4.08483 10.2012 15.4451
462 1 -1.1104 1.30852 12.9608 18.0339
466 1 -1.1104 1.10395 13.3258 15.0902
482 1 -1.1104 4.11831 13.1765 18.0097
485 1 -1.1104 3.92006 13.0937 15.1998
470 1 -1.1104 6.77349 13.4099 15.1389
418 1 -1.1104 6.52868 10.2967 20.844
9111 2 2.2208 -0.274529 11.7146 16.646
9029 2 2.2208 -0.163209 20.1866 25.0902
464 1 -1.1104 6.76172 13.4453 17.836
409 1 -1.1104 6.60261 10.3359 18.0195
417 1 -1.1104 6.69054 10.5453 15.1541
435 2 2.2208 10.9201 11.8364 16.4798
440 1 -1.1104 12.2984 10.3229 17.9349
441 2 2.2208 11.0911 8.85052 19.3337
444 1 -1.1104 12.4073 10.3331 15.3274
448 2 2.2208 8.23649 11.6138 19.7108
451 2 2.2208 8.06007 9.01042 16.5417
453 1 -1.1104 9.38343 10.3024 17.9201
456 1 -1.1104 9.32856 10.5592 15.1233
498 1 -1.1104 12.4416 13.0671 17.9717
500 1 -1.1104 12.5304 13.409 15.0779
509 1 -1.1104 9.63099 13.2073 18.0326
512 1 -1.1104 9.64025 13.2674 15.0438
501 1 -1.1104 12.2331 13.0237 20.8233
513 1 -1.1104 9.46005 13.4778 20.8972
471 1 -1.1104 6.71259 13.141 20.8726
476 2 2.2208 5.36105 14.5898 19.1531
461 2 2.2208 5.29039 17.4428 16.5042
463 1 -1.1104 0.991315 18.8463 17.929
468 1 -1.1104 1.32566 19.2531 15.0852
474 1 -1.1104 1.27296 15.8895 17.8977
477 2 2.2208 5.36659 20.2496 19.2651
478 1 -1.1104 1.31232 16.1927 15.2187
483 1 -1.1104 4.00227 18.9326 17.7517
484 2 2.2208 2.60075 17.5101 19.0903
487 1 -1.1104 4.06815 18.869 15.2333
489 2 2.2208 2.58594 14.6468 16.4025
490 2 2.2208 2.70957 20.5818 16.3888
491 1 -1.1104 4.10977 16.0963 17.8034
492 1 -1.1104 3.85742 16.014 14.9902
480 1 -1.1104 6.75777 16.0653 14.9045
475 1 -1.1104 6.86743 16.1535 17.7982
473 1 -1.1104 6.89446 18.9301 20.7127
481 1 -1.1104 6.84648 16.1367 20.6837
469 1 -1.1104 1.16087 19.0314 20.8237
8385 2 2.2208 11.0208 -4.96532 22.2183
9245 2 2.2208 -0.267672 8.98654 13.7025
465 1 -1.1104 6.84253 19.0289 17.8405
505 2 2.2208 11.1019 14.4279 19.3924
8307 2 2.2208 2.44455 -5.0793 13.8147
472 1 -1.1104 6.7407 18.7967 14.9967
497 2 2.2208 11.0133 17.4165 16.572
499 1 -1.1104 12.4765 18.8948 17.6778
502 1 -1.1104 12.3641 19.0569 15.1703
504 1 -1.1104 12.4896 16.084 18.029
506 2 2.2208 11.0608 20.0392 19.2539
507 1 -1.1104 12.4035 16.2198 15.0555
510 1 -1.1104 9.70142 18.6108 17.896
511 2 2.2208 8.32589 17.4378 19.3077
514 1 -1.1104 9.62923 18.9769 15.0806
516 2 2.2208 8.17848 14.7251 16.4661
517 2 2.2208 8.3535 20.1757 16.4186
518 1 -1.1104 9.78012 15.8055 18.0173
519 1 -1.1104 9.57539 15.9917 15.1191
520 1 -1.1104 9.7195 16.1551 20.6189
354 1 -1.1104 3.9403 -1.05834 20.7852
328 1 -1.1104 1.17424 -3.94475 20.8238
347 1 -1.1104 3.9971 -3.8037 20.8709
525 2 2.2208 5.52449 0.607373 22.3697
526 1 -1.1104 0.998384 -3.81015 23.5496
530 1 -1.1104 1.13175 -3.79065 26.6715
534 1 -1.1104 1.1064 -1.0483 23.527
536 2 2.2208 5.2932 -2.3307 25.0077
538 1 -1.1104 1.21068 -0.752518 26.4172
540 1 -1.1104 3.86178 -3.80873 23.6373
542 2 2.2208 2.6877 0.610937 25.0745
543 1 -1.1104 3.57752 -3.5523 26.3154
545 2 2.2208 2.50085 -2.46896 22.2978
547 1 -1.1104 4.06004 -0.954561 23.5609
548 1 -1.1104 4.07341 -0.984009 26.4345
539 1 -1.1104 6.96461 -1.05907 26.4849
532 1 -1.1104 6.87242 -3.62602 26.1548
9110 2 2.2208 -0.250223 -2.47398 19.3033
310 2 2.2208 11.1464 -2.53771 13.8326
9216 2 2.2208 -0.0739779 14.5473 19.3009
9275 2 2.2208 -0.342262 6.28299 22.307
528 1 -1.1104 6.75964 -3.60114 23.7077
535 1 -1.1104 6.76214 -0.76492 23.6707
561 2 2.2208 11.09 0.699613 22.2747
562 1 -1.1104 12.3468 -3.86125 23.6187
564 1 -1.1104 12.3971 -3.73696 26.3064
566 1 -1.1104 12.5103 -0.834772 23.6282
567 2 2.2208 10.9875 -2.42473 25.0253
569 1 -1.1104 12.4365 -1.00981 26.3861
570 1 -1.1104 9.52178 -3.58835 23.7774
572 2 2.2208 8.37911 0.442465 25.1319
573 1 -1.1104 9.70151 -3.87408 26.4409
575 2 2.2208 8.19287 -2.19924 22.3743
577 1 -1.1104 9.69492 -0.884206 23.7255
578 1 -1.1104 9.63542 -1.13516 26.4657
8453 2 2.2208 2.48619 -5.04163 25.1708
308 2 2.2208 5.27439 3.23012 13.9073
9032 2 2.2208 -0.369232 0.456613 16.4951
9033 2 2.2208 -0.163841 3.23186 19.38
9215 2 2.2208 -0.162186 20.3599 19.4012
527 1 -1.1104 1.13267 1.89179 23.6611
531 1 -1.1104 1.06003 1.9209 26.6242
537 2 2.2208 5.34354 3.2242 25.0744
541 1 -1.1104 4.03026 1.83454 23.5557
544 1 -1.1104 4.06506 1.70749 26.599
546 2 2.2208 2.55219 3.37142 22.1511
590 2 2.2208 4.99129 6.23136 22.0931
592 1 -1.1104 1.14006 7.69724 23.6857
594 1 -1.1104 1.18287 7.68987 26.5024
596 1 -1.1104 1.00031 4.87144 23.6295
601 1 -1.1104 0.950865 4.97225 26.4198
605 1 -1.1104 3.82562 7.57451 23.6736
606 2 2.2208 2.42759 6.33499 25.0717
610 1 -1.1104 3.81015 4.81448 23.4394
612 1 -1.1104 3.57104 4.44848 26.1567
608 1 -1.1104 4.02144 7.40251 26.2229
9028 2 2.2208 -0.190249 17.4041 21.9681
618 1 -1.1104 12.6197 16.0351 26.4918
598 1 -1.1104 6.9486 4.49824 23.751
533 1 -1.1104 6.84968 1.89388 26.7668
603 1 -1.1104 6.55869 4.74241 26.6124
595 1 -1.1104 6.8346 7.46003 26.6759
593 1 -1.1104 6.78791 7.61354 23.736
529 1 -1.1104 6.6302 1.83608 23.8328
563 1 -1.1104 12.4692 1.99924 23.6987
565 1 -1.1104 12.2774 1.86621 26.6027
568 2 2.2208 11.012 3.37696 25.1455
571 1 -1.1104 9.75862 2.08029 23.7089
574 1 -1.1104 9.7048 1.76183 26.4328
576 2 2.2208 8.13763 3.30095 22.3711
622 1 -1.1104 9.46905 4.56031 26.6202
624 1 -1.1104 9.87009 4.75234 23.8398
626 1 -1.1104 9.86437 7.39668 26.3485
628 2 2.2208 8.19979 6.20173 25.2321
629 2 2.2208 10.8256 6.20037 22.2278
631 1 -1.1104 12.2705 7.21517 23.7425
633 1 -1.1104 12.6202 4.77698 23.7238
636 1 -1.1104 12.4842 4.64881 26.8487
638 1 -1.1104 9.40268 7.47099 23.5083
632 1 -1.1104 12.5539 7.45044 26.5098
17403 2 2.2208 -0.231834 -5.14003 22.0436
9247 2 2.2208 -0.269843 8.95461 24.9968
639 2 2.2208 11.1052 11.7151 27.7636
522 2 2.2208 11.0345 14.5447 13.7654
486 1 -1.1104 3.94539 13.2335 20.8331
414 1 -1.1104 1.11343 10.5106 21.0302
467 1 -1.1104 1.16838 13.3394 20.7007
312 2 2.2208 5.30917 8.98501 13.7977
620 1 -1.1104 9.70995 18.7321 23.5861
430 1 -1.1104 3.93134 10.2774 20.8803
591 2 2.2208 5.19495 11.7108 22.152
597 1 -1.1104 0.95945 10.4775 23.9419
600 2 2.2208 5.53579 8.84443 25.036
602 1 -1.1104 1.49903 10.5889 26.6102
607 2 2.2208 2.67864 11.915 25.1779
609 2 2.2208 2.53247 8.94214 22.3788
611 1 -1.1104 3.7577 10.2058 23.7168
613 1 -1.1104 4.27702 10.2389 26.6865
393 1 -1.1104 1.05829 13.3541 23.5406
431 1 -1.1104 1.10104 13.4587 26.6184
550 1 -1.1104 4.03253 13.154 23.7707
582 1 -1.1104 4.21885 13.2695 26.7034
551 1 -1.1104 6.76125 13.2633 26.3805
604 1 -1.1104 6.97451 10.2767 26.3643
9031 2 2.2208 13.6198 0.495121 19.3226
9217 2 2.2208 -0.267785 17.5073 16.4898
9076 2 2.2208 -0.282146 0.560522 22.1946
445 1 -1.1104 12.4644 10.2324 20.8431
457 1 -1.1104 9.62937 10.2818 20.769
599 1 -1.1104 6.52 10.3266 23.7034
363 1 -1.1104 6.83251 13.1282 23.6844
621 1 -1.1104 9.51068 10.2353 26.6546
623 1 -1.1104 9.60368 10.2443 23.7974
625 2 2.2208 8.07938 8.86004 22.2066
627 2 2.2208 8.03587 11.7973 25.0567
630 2 2.2208 11.0803 11.4983 22.3966
634 1 -1.1104 12.3142 9.92733 23.4935
635 2 2.2208 11.0901 8.65132 24.9921
637 1 -1.1104 12.4911 10.2362 26.1821
559 1 -1.1104 12.5737 13.0396 23.5716
580 1 -1.1104 9.51731 13.0263 26.4232
586 1 -1.1104 12.5044 13.1377 26.3907
619 1 -1.1104 9.80222 12.9354 23.8246
495 2 2.2208 5.50691 20.4545 13.8299
493 1 -1.1104 4.03354 16.0321 20.526
8454 2 2.2208 5.25525 -5.14483 22.3546
488 1 -1.1104 4.08779 18.5232 20.6412
479 1 -1.1104 1.27095 16.0852 20.489
552 2 2.2208 2.75883 14.683 22.0581
364 2 2.2208 5.43421 14.7934 25.0311
585 1 -1.1104 4.07726 18.8512 26.7464
355 2 2.2208 5.47351 17.4413 22.1067
395 2 2.2208 5.38716 20.2768 25.1917
432 1 -1.1104 1.05912 16.0183 26.2082
458 1 -1.1104 1.30111 18.6827 26.4676
459 1 -1.1104 1.05986 18.9204 23.6614
553 2 2.2208 2.48555 20.3062 22.3215
554 1 -1.1104 4.02285 15.9209 23.3786
555 1 -1.1104 1.09286 16.325 23.4297
579 1 -1.1104 3.83993 19.0066 23.7265
583 1 -1.1104 3.77474 16.0648 26.3889
584 2 2.2208 2.39887 17.4556 24.9821
549 1 -1.1104 6.90429 16.2766 26.3573
581 1 -1.1104 6.79514 18.9284 26.369
9070 2 2.2208 -0.331444 14.728 24.9649
356 1 -1.1104 9.66824 15.8577 26.4278
8457 2 2.2208 8.19199 -5.12731 19.4339
587 1 -1.1104 12.3685 19.0546 26.406
361 2 2.2208 8.56414 20.2988 22.218
614 2 2.2208 8.32948 17.4208 25.0268
588 1 -1.1104 12.4401 15.7943 23.7449
515 1 -1.1104 9.67206 18.8745 20.8274
508 1 -1.1104 12.5193 15.8482 20.9205
503 1 -1.1104 12.4901 18.6613 20.5427
560 1 -1.1104 12.4857 18.7242 23.6064
389 2 2.2208 8.14135 14.7217 22.2107
9075 2 2.2208 -0.33846 3.41835 25.0764
396 1 -1.1104 6.86438 18.838 23.5806
556 1 -1.1104 6.76568 16.068 23.5283
460 2 2.2208 7.99455 11.8136 13.742
558 2 2.2208 11.1276 17.3303 22.1055
390 1 -1.1104 9.67829 18.7475 26.273
357 1 -1.1104 9.62712 15.9046 23.4537
617 2 2.2208 11.0148 20.195 25.0211
315 2 2.2208 2.40335 -2.20382 27.7711
230 2 2.2208 11.0552 8.82236 13.8714
311 2 2.2208 2.26219 6.02682 13.7022
9244 2 2.2208 -0.353913 6.10642 16.6589
299 2 2.2208 11.0798 3.24345 13.8439
313 2 2.2208 8.20074 5.77362 13.908
314 2 2.2208 5.44337 0.278817 27.7558
9035 2 2.2208 -0.211217 17.4902 27.7485
9219 2 2.2208 -0.305419 20.3693 13.7227
318 2 2.2208 8.17779 -2.48534 27.7261
8987 2 2.2208 -0.370926 3.37136 13.6845
641 2 2.2208 5.42324 23.0171 5.28258
643 1 -1.1104 1.19541 24.3825 1.01809
644 1 -1.1104 1.24874 24.3537 3.90775
645 1 -1.1104 1.31251 21.773 0.974293
647 2 2.2208 5.43189 25.897 2.48492
648 1 -1.1104 1.18697 21.5056 3.67074
650 1 -1.1104 4.1321 24.5702 1.16581
651 2 2.2208 2.67833 23.0356 2.43987
653 1 -1.1104 3.91118 24.5518 3.97957
654 2 2.2208 2.64042 25.9843 5.32979
655 1 -1.1104 4.4394 21.745 1.1985
657 1 -1.1104 4.03999 21.7479 3.78454
649 1 -1.1104 1.21398 27.3144 3.74715
664 1 -1.1104 7.09565 21.5799 1.11862
646 1 -1.1104 1.29505 27.489 1.07623
1101 2 2.2208 8.19218 42.7064 -0.206116
667 1 -1.1104 6.84921 27.2012 3.95275
656 1 -1.1104 3.96612 27.4414 1.17274
1244 2 2.2208 11.0032 34.4722 -0.341462
1154 2 2.2208 2.68069 25.8677 -0.221709
1273 1 -1.1104 6.72058 46.7812 1.16959
666 1 -1.1104 7.02437 21.4621 3.893
663 1 -1.1104 7.03448 24.4473 4.09468
662 1 -1.1104 6.91747 24.5509 1.18798
665 1 -1.1104 6.94055 27.3526 1.20959
668 2 2.2208 11.1584 22.9423 5.13919
670 1 -1.1104 12.4981 24.268 0.859028
671 1 -1.1104 12.7011 24.3634 3.78232
672 1 -1.1104 12.4461 21.2716 0.818164
674 2 2.2208 11.0608 25.8115 2.31257
675 1 -1.1104 12.5013 21.3701 3.58156
677 1 -1.1104 9.64392 24.5114 1.05042
678 2 2.2208 8.45675 22.8503 2.4745
680 1 -1.1104 9.8199 24.4312 3.91281
681 2 2.2208 8.28736 25.9433 5.29538
682 1 -1.1104 9.82586 21.6079 0.96908
684 1 -1.1104 9.7294 21.4519 3.80166
819 1 -1.1104 9.54542 21.4114 6.64741
685 1 -1.1104 9.80133 27.2837 3.61891
683 1 -1.1104 9.71727 27.5059 1.10187
676 1 -1.1104 12.5274 27.3537 3.47968
658 1 -1.1104 4.14487 27.203 3.95786
642 2 2.2208 5.54877 28.8428 5.18623
652 2 2.2208 2.49907 28.7347 2.54259
690 1 -1.1104 1.25869 30.4244 0.964196
693 1 -1.1104 0.806803 30.2829 3.73857
696 1 -1.1104 1.1147 33.0738 1.06232
697 2 2.2208 5.44988 31.6496 2.32212
699 1 -1.1104 1.1692 33.0703 3.82778
701 1 -1.1104 3.93393 30.2564 1.00715
704 1 -1.1104 3.74222 30.1889 3.56918
706 2 2.2208 2.39015 31.4124 5.17559
708 1 -1.1104 4.00074 32.9512 0.745074
709 1 -1.1104 4.28429 33.264 3.48317
837 1 -1.1104 6.80883 30.3893 6.84342
713 1 -1.1104 6.87039 30.2737 0.9174
9672 2 2.2208 -0.399554 37.1874 2.33235
686 1 -1.1104 12.4863 41.3943 12.3182
9710 3 0 12.8629 26.1216 11.8923
9674 2 2.2208 -0.232288 39.9752 5.22244
673 1 -1.1104 12.4808 27.1535 0.638195
700 1 -1.1104 7.10767 32.7468 3.70415
714 1 -1.1104 6.80529 30.1759 3.84794
715 1 -1.1104 6.70092 33.1731 0.905471
669 2 2.2208 10.8823 28.6891 5.18465
679 2 2.2208 8.28735 28.7824 2.3245
717 1 -1.1104 12.6808 30.0657 1.05542
719 1 -1.1104 12.4561 30.1832 3.86988
721 1 -1.1104 12.3952 32.9069 0.9522
722 2 2.2208 11.0464 31.6063 2.51608
724 1 -1.1104 12.2325 32.9909 3.83509
725 1 -1.1104 9.9098 30.2453 0.964607
728 1 -1.1104 9.66725 29.9872 3.65284
730 2 2.2208 8.1758 31.6349 5.25603
732 1 -1.1104 9.55527 33.1846 0.907194
733 1 -1.1104 9.57372 33.1602 3.9723
874 1 -1.1104 9.75838 32.9459 6.70905
9665 2 2.2208 -0.324024 28.7875 5.0453
840 1 -1.1104 6.85184 33.326 6.45112
872 1 -1.1104 9.41155 30.0742 6.28165
1155 2 2.2208 5.45288 28.6866 -0.224875
9778 2 2.2208 -0.319749 39.9284 -0.440176
9677 2 2.2208 -0.385822 40.0701 10.9933
689 2 2.2208 5.40429 34.6284 5.12252
691 1 -1.1104 0.966003 35.934 0.927888
694 1 -1.1104 1.10519 35.7621 3.69089
698 2 2.2208 5.42572 37.1332 2.31788
702 1 -1.1104 3.95706 35.799 0.944303
703 2 2.2208 2.49835 34.4659 2.25988
705 1 -1.1104 3.76312 35.8802 3.95556
707 2 2.2208 2.39343 37.152 5.22077
735 2 2.2208 5.31647 40.0039 5.24892
741 1 -1.1104 0.900576 38.5316 0.931851
746 1 -1.1104 1.19902 38.6874 3.78234
751 2 2.2208 2.48362 39.9915 2.54187
755 1 -1.1104 4.06786 38.7046 1.03016
757 1 -1.1104 3.89931 38.5937 3.75032
838 1 -1.1104 6.74071 35.8911 6.48636
743 1 -1.1104 6.6783 38.4996 1.0448
748 1 -1.1104 6.72782 38.4841 3.80101
836 1 -1.1104 1.02607 35.5847 6.57845
842 1 -1.1104 3.63156 35.6549 6.6088
9671 2 2.2208 -0.261304 31.8602 2.48721
9546 2 2.2208 -0.282659 28.8255 10.8655