ITEM: TIMESTEP
60000
ITEM: NUMBER OF ATOMS
17700
ITEM: BOX BOUNDS pp pp pp
-4.4423455470871259e-01 2.7784234554709130e+01
-5.3437858593479755e+00 3.3342378585935944e+02
-4.3884010030755000e-01 2.7778840100307839e+01
ITEM: ATOMS id type q x y z
1 2 2.2208 5.23172 0.384998 5.22744
2 1 -1.1104 1.24489 -3.97329 0.807593
6 1 -1.1104 1.31137 -3.84613 3.60166
10 1 -1.1104 1.28622 -1.276 0.869308
12 2 2.2208 5.34947 -2.51407 2.48394
14 1 -1.1104 0.907365 -1.05136 3.84382
16 1 -1.1104 3.96525 -4.05099 1.18619
18 2 2.2208 2.6729 0.226971 2.39226
19 1 -1.1104 4.10312 -3.99579 3.99414
21 2 2.2208 2.73379 -2.6334 5.28882
23 1 -1.1104 4.13631 -1.29727 1.01389
24 1 -1.1104 3.93471 -1.18206 3.95215
8983 2 2.2208 -0.216965 0.258364 5.28774
9071 2 2.2208 13.6729 14.3874 -0.185971
301 2 2.2208 -0.213875 -2.47668 2.43178
524 2 2.2208 11.0758 17.2108 -0.407708
172 1 -1.1104 4.18485 -3.88791 6.5419
15 1 -1.1104 6.95544 -0.977352 3.78586
11 1 -1.1104 6.88215 -0.914313 0.932953
4 1 -1.1104 6.8854 -3.93576 0.89635
8 1 -1.1104 6.96623 -3.77274 3.86086
31 2 2.2208 11.0375 0.457034 5.34957
32 1 -1.1104 12.6713 -4.00342 0.804946
34 1 -1.1104 12.4968 -3.89821 3.90251
36 1 -1.1104 12.4953 -0.824542 1.02958
37 2 2.2208 11.0614 -2.48921 2.47358
39 1 -1.1104 12.5494 -1.05296 3.90838
40 1 -1.1104 9.76121 -3.85957 1.08294
42 2 2.2208 8.23011 0.564525 2.39697
43 1 -1.1104 9.73949 -3.80982 3.91952
45 2 2.2208 8.48281 -2.36086 5.3052
47 1 -1.1104 9.72552 -1.29875 0.975997
48 1 -1.1104 9.78309 -0.763158 3.68372
208 1 -1.1104 9.8394 -3.73766 6.76263
8891 2 2.2208 -0.229999 11.5911 10.9644
17307 2 2.2208 -0.115611 -5.14705 10.7882
171 1 -1.1104 6.89817 -0.700324 6.69459
205 1 -1.1104 12.4666 -3.84535 6.77446
320 2 2.2208 5.41573 5.85743 -0.461451
640 2 2.2208 8.20429 8.84289 -0.444468
8984 2 2.2208 -0.0758709 3.0793 2.38533
3 1 -1.1104 1.27012 1.61618 0.805572
7 1 -1.1104 1.02018 1.65576 3.62466
13 2 2.2208 5.65349 3.33208 2.3459
17 1 -1.1104 4.17254 1.69016 1.154
20 1 -1.1104 3.88661 1.6956 3.89859
22 2 2.2208 2.60488 3.21994 5.29706
54 2 2.2208 5.58863 5.84838 5.35118
56 1 -1.1104 1.42463 7.48512 1.14408
58 1 -1.1104 1.25022 7.34952 4.06987
60 1 -1.1104 1.32529 4.67981 1.14326
67 1 -1.1104 1.29958 4.52529 4.05328
71 1 -1.1104 4.17149 7.28655 0.938139
72 2 2.2208 2.64306 6.0405 2.6255
76 1 -1.1104 4.15335 4.44048 1.15166
79 1 -1.1104 4.23381 4.73577 3.80661
74 1 -1.1104 3.97682 7.37848 4.12895
8829 2 2.2208 -0.0628239 6.05604 5.19136
358 2 2.2208 8.28672 14.4317 -0.191554
173 1 -1.1104 3.89317 1.87312 6.65035
9035 2 2.2208 -0.134299 17.3041 -0.378952
8671 2 2.2208 -0.393516 17.2191 10.9746
5 1 -1.1104 6.867 1.98824 1.05966
289 1 -1.1104 6.49044 15.7673 9.6286
63 1 -1.1104 6.8987 4.80269 0.874239
9 1 -1.1104 6.67975 2.034 3.93092
69 1 -1.1104 6.93347 4.69424 3.70573
57 1 -1.1104 6.80983 7.20093 1.07541
59 1 -1.1104 6.72803 7.13362 4.098
33 1 -1.1104 12.4537 1.98074 0.942867
35 1 -1.1104 12.5399 1.98612 3.77936
38 2 2.2208 11.0607 3.18881 2.51135
41 1 -1.1104 9.64234 1.67066 1.04373
44 1 -1.1104 9.5835 2.29095 3.84634
46 2 2.2208 8.09652 3.32937 5.31238
84 2 2.2208 11.0961 5.96917 5.21109
88 1 -1.1104 12.753 4.73697 1.12864
92 1 -1.1104 12.4773 4.67742 3.93283
94 1 -1.1104 9.68851 7.44602 0.905402
95 2 2.2208 8.27091 6.19705 2.31418
99 1 -1.1104 9.71544 4.5611 0.975006
102 1 -1.1104 9.60363 4.85923 3.65054
87 1 -1.1104 12.4372 7.49516 3.86854
86 1 -1.1104 12.4092 7.69075 1.1912
97 1 -1.1104 9.46135 7.69945 3.91897
206 1 -1.1104 12.4628 1.66296 6.65132
81 1 -1.1104 12.2209 15.9127 12.5581
237 1 -1.1104 6.71941 4.61369 7.01883
169 1 -1.1104 6.70842 1.92088 6.71006
8227 2 2.2208 8.41596 -5.15828 8.21575
8804 2 2.2208 -0.285868 14.5448 2.45767
55 2 2.2208 5.35649 11.6611 5.28903
61 1 -1.1104 1.1973 10.1581 1.06747
66 2 2.2208 5.29383 8.58843 2.40511
68 1 -1.1104 1.48178 10.2162 3.86244
73 2 2.2208 2.511 11.6752 2.35803
75 2 2.2208 2.6429 8.76399 5.4416
77 1 -1.1104 4.10163 10.0935 0.980413
80 1 -1.1104 4.24308 10.1304 4.16826
107 1 -1.1104 1.15645 12.8272 0.899849
113 1 -1.1104 1.10928 13.0499 3.88263
123 1 -1.1104 4.10204 12.9306 0.911608
128 1 -1.1104 3.97469 13.1382 3.72306
8864 2 2.2208 13.62 17.3927 2.52241
115 1 -1.1104 6.82717 13.0313 3.79088
9249 2 2.2208 -0.255386 11.5518 -0.37909
8899 2 2.2208 -0.203923 11.7095 5.09243
53 1 -1.1104 6.83286 16.0088 12.6255
78 1 -1.1104 3.81924 10.4475 6.76097
136 2 2.2208 8.07011 17.4564 8.19055
64 1 -1.1104 6.64995 10.1449 1.09306
110 1 -1.1104 6.93208 13.0612 1.10438
70 1 -1.1104 6.93278 10.1358 3.99583
85 2 2.2208 11.2116 11.7602 5.43517
89 1 -1.1104 12.5685 10.2344 1.00673
91 2 2.2208 10.9361 9.06181 2.59004
93 1 -1.1104 12.4638 10.5049 3.88323
96 2 2.2208 8.14842 11.5227 2.64486
98 2 2.2208 8.29122 8.87069 5.48896
100 1 -1.1104 9.4715 10.3421 1.06655
103 1 -1.1104 9.63018 10.1956 4.05683
142 1 -1.1104 12.4471 13.058 1.23368
146 1 -1.1104 12.8121 13.2807 4.06566
153 1 -1.1104 9.74307 12.9395 1.22437
158 1 -1.1104 9.89375 13.024 3.92171
8670 2 2.2208 -0.112479 14.3094 8.04963
101 1 -1.1104 9.71061 10.4395 6.87509
394 2 2.2208 2.43356 20.1217 -0.414133
119 2 2.2208 5.38975 14.4966 2.43138
8865 2 2.2208 -0.244168 17.3309 5.23819
433 2 2.2208 2.68749 11.6579 13.6703
130 2 2.2208 2.71065 14.479 5.27045
106 2 2.2208 5.51202 17.3166 5.44143
109 1 -1.1104 1.26055 18.5448 1.00333
114 1 -1.1104 1.10791 18.5779 3.99773
116 1 -1.1104 1.28136 15.8674 1.04315
120 2 2.2208 5.42756 20.1719 2.50351
121 1 -1.1104 1.16236 15.8582 3.76764
125 1 -1.1104 4.06915 18.5849 1.07885
127 2 2.2208 2.6241 17.238 2.58802
129 1 -1.1104 3.76682 18.8861 3.70366
131 2 2.2208 2.48917 20.0309 5.35704
132 1 -1.1104 3.76085 15.6396 1.30608
134 1 -1.1104 4.03545 16.0164 4.09684
318 2 2.2208 8.28004 -2.58809 -0.301228
8746 2 2.2208 -0.0165187 8.731 2.47064
139 1 -1.1104 6.76581 18.663 3.84922
296 1 -1.1104 7.00795 18.6943 12.5119
557 2 2.2208 8.23555 20.1308 -0.417366
8697 2 2.2208 -0.299178 20.1712 2.42479
8696 2 2.2208 -0.259989 20.1914 8.32214
138 1 -1.1104 6.90933 18.6354 1.10295
140 1 -1.1104 6.54432 15.8956 0.94648
122 1 -1.1104 6.85608 15.7556 3.77117
150 2 2.2208 10.9637 14.5663 2.50037
141 2 2.2208 10.8196 17.4152 5.44932
144 1 -1.1104 12.4179 18.627 1.05909
147 1 -1.1104 12.3329 18.7631 3.9934
148 1 -1.1104 12.2687 15.8459 0.97381
151 2 2.2208 10.8151 20.0539 2.61972
152 1 -1.1104 12.3762 16.0015 3.96687
155 1 -1.1104 9.46996 18.8459 1.28286
157 2 2.2208 7.99465 17.2942 2.52146
159 1 -1.1104 9.42706 18.7898 4.0357
160 2 2.2208 8.22421 14.4582 5.22861
161 2 2.2208 8.05271 20.1593 5.20717
162 1 -1.1104 9.53001 15.7808 1.09703
164 1 -1.1104 9.46607 16.1804 3.96171
170 1 -1.1104 1.16321 -1.46869 6.57344
8979 2 2.2208 -0.301725 -2.54359 7.91968
166 1 -1.1104 1.22098 -4.15152 6.59121
174 1 -1.1104 4.00612 -0.97237 6.74015
175 2 2.2208 5.41286 0.248806 11.0357
176 1 -1.1104 1.12358 -4.13597 12.4151
180 1 -1.1104 1.11911 -3.85554 9.33043
184 1 -1.1104 1.36294 -1.31209 12.4278
186 2 2.2208 5.42994 -2.56756 8.04341
188 1 -1.1104 1.29453 -1.3033 9.46117
190 1 -1.1104 4.22961 -4.04478 12.253
192 2 2.2208 2.44907 0.0604333 8.14505
193 1 -1.1104 4.15784 -3.82537 9.50325
195 2 2.2208 2.62115 -2.61552 10.7904
197 1 -1.1104 4.19431 -1.15373 12.1857
198 1 -1.1104 3.96822 -1.24706 9.51483
8980 2 2.2208 -0.0994559 0.304654 11.0061
207 1 -1.1104 12.512 -1.05301 6.53165
185 1 -1.1104 6.94726 -1.11337 12.1617
182 1 -1.1104 7.00986 -4.14983 9.50706
210 1 -1.1104 9.55309 -0.929873 6.57242
168 1 -1.1104 6.95738 -3.83406 6.64387
189 1 -1.1104 6.81299 -1.31656 9.64282
178 1 -1.1104 6.82391 -3.77131 12.3504
211 2 2.2208 11.2183 0.302769 10.8233
212 1 -1.1104 12.5704 -4.23999 12.1924
214 1 -1.1104 12.5152 -3.94573 9.55449
216 1 -1.1104 12.652 -1.3175 12.211
217 2 2.2208 11.1873 -2.44575 8.13816
219 1 -1.1104 12.5651 -1.13972 9.29519
220 1 -1.1104 9.75241 -3.88594 12.5676
222 2 2.2208 8.2567 0.392589 8.1864
223 1 -1.1104 9.8052 -3.86518 9.66939
225 2 2.2208 8.29661 -2.49861 10.9471
227 1 -1.1104 9.79436 -1.17631 12.0696
228 1 -1.1104 9.86797 -1.06806 9.20269
236 1 -1.1104 1.0154 4.5186 6.71326
234 1 -1.1104 1.42077 7.37812 6.91919
8968 2 2.2208 -0.207087 6.06543 10.8838
167 1 -1.1104 1.16527 1.52485 6.59444
238 1 -1.1104 3.91898 7.65018 6.71108
8830 2 2.2208 -0.195494 3.10046 8.1811
239 1 -1.1104 4.02071 4.62451 6.5945
177 1 -1.1104 1.39062 1.53447 12.2692
181 1 -1.1104 1.13922 1.43033 9.40651
187 2 2.2208 5.31641 3.02342 8.2266
191 1 -1.1104 4.21624 1.84538 12.1783
194 1 -1.1104 3.84805 1.51865 9.45101
196 2 2.2208 2.57679 3.20073 10.7878
240 2 2.2208 5.4362 6.04684 10.9579
242 1 -1.1104 1.35106 7.18524 12.2308
246 1 -1.1104 1.21482 4.21586 12.3165
251 1 -1.1104 1.19621 4.64724 9.48981
255 1 -1.1104 4.16802 7.41115 12.4104
256 2 2.2208 2.64506 5.93245 7.95698
260 1 -1.1104 4.169 4.6641 12.2247
262 1 -1.1104 4.09604 4.47126 9.54955
244 1 -1.1104 1.26937 7.79744 9.68643
258 1 -1.1104 3.85415 7.36386 9.63815
267 1 -1.1104 9.58159 7.47797 6.86495
265 1 -1.1104 12.5015 7.33249 6.70195
209 1 -1.1104 9.63888 1.778 6.74761
266 1 -1.1104 12.6244 4.59314 6.63881
269 1 -1.1104 9.64187 4.78023 6.65623
235 1 -1.1104 6.86983 7.62005 6.91691
183 1 -1.1104 6.89813 1.67883 9.52278
179 1 -1.1104 7.02088 1.79429 12.3767
243 1 -1.1104 6.88216 7.23504 12.3996
245 1 -1.1104 6.6862 7.54566 9.58597
253 1 -1.1104 6.90137 4.64483 9.77441
248 1 -1.1104 7.129 4.25431 12.5179
213 1 -1.1104 12.6009 1.46709 12.3295
215 1 -1.1104 12.5404 1.65147 9.49956
218 2 2.2208 11.027 3.39508 8.0053
221 1 -1.1104 9.69277 1.58872 12.3351
224 1 -1.1104 9.64912 1.79689 9.56509
226 2 2.2208 8.24819 3.04026 10.9855
268 1 -1.1104 9.77883 4.68655 9.46121
271 1 -1.1104 9.79757 4.43285 12.2726
273 1 -1.1104 9.48337 7.41878 9.8386
275 2 2.2208 8.27013 6.15326 8.22581
276 2 2.2208 11.111 5.9075 10.9663
278 1 -1.1104 12.7164 7.38131 12.2815
280 1 -1.1104 12.786 4.44975 12.3512
283 1 -1.1104 12.6068 4.54673 9.50984
285 1 -1.1104 9.79393 7.29889 12.4882
279 1 -1.1104 12.4649 7.32612 9.52118
108 1 -1.1104 1.42753 13.1887 6.56908
316 2 2.2208 2.76277 2.92903 -0.229884
124 1 -1.1104 4.04364 13.2089 6.68359
8898 2 2.2208 -0.217835 8.94881 8.00694
62 1 -1.1104 1.11134 10.4428 6.56757
241 2 2.2208 5.52752 11.6164 10.9318
247 1 -1.1104 1.19543 10.1073 12.5411
250 2 2.2208 5.44727 8.83989 8.07669
252 1 -1.1104 1.33359 10.4786 9.62597
257 2 2.2208 2.74241 11.6911 8.06255
259 2 2.2208 2.62225 8.74613 10.9483
261 1 -1.1104 4.29653 10.1479 12.2208
263 1 -1.1104 4.09957 10.2418 9.43612
200 1 -1.1104 1.26619 12.929 12.4124
202 1 -1.1104 4.0133 13.129 9.54349
287 1 -1.1104 4.25768 13.0379 12.593
294 1 -1.1104 1.07899 13.0906 9.61663
143 1 -1.1104 12.4837 13.0704 6.82173
90 1 -1.1104 12.4607 10.1705 6.73855
28 1 -1.1104 9.65656 15.9057 9.50371
111 1 -1.1104 6.78624 13.1668 6.58591
65 1 -1.1104 7.04467 10.4047 6.87153
154 1 -1.1104 9.54081 13.1955 6.68155
249 1 -1.1104 6.97194 10.0034 12.4507
290 1 -1.1104 6.99998 12.9636 9.55745
297 1 -1.1104 6.81348 13.0525 12.2435
254 1 -1.1104 6.81415 10.2497 9.60622
264 1 -1.1104 9.93961 10.3317 9.69318
270 1 -1.1104 9.72336 10.2172 12.5107
272 2 2.2208 8.25466 8.86579 11.0352
274 2 2.2208 8.35808 11.7092 8.26653
277 2 2.2208 11.0423 11.6324 10.9891
281 1 -1.1104 12.3525 10.1146 12.4247
282 2 2.2208 11.1101 8.94271 8.20348
284 1 -1.1104 12.7391 10.1761 9.48319
26 1 -1.1104 12.5773 12.9278 12.3243
49 1 -1.1104 12.4358 13.0362 9.52399
105 1 -1.1104 9.68195 13.0176 12.3764
137 1 -1.1104 9.63217 13.2422 9.54863
231 1 -1.1104 1.07042 18.7794 6.74259
118 1 -1.1104 6.79837 16.035 6.68737
135 1 -1.1104 9.77643 18.5991 12.4192
133 1 -1.1104 3.99991 15.9171 6.8405
310 2 2.2208 11.3317 -2.58119 13.6394
117 1 -1.1104 1.22159 16.1387 6.59861
126 1 -1.1104 3.95804 18.6804 6.58819
29 2 2.2208 2.42407 14.64 10.8977
295 2 2.2208 5.37654 14.4572 8.161
30 2 2.2208 2.64277 19.9956 11.1927
51 1 -1.1104 3.98158 15.9872 12.5129
52 1 -1.1104 0.981147 15.7606 12.424
203 1 -1.1104 3.97429 15.9363 9.65757
204 2 2.2208 2.38888 17.5361 8.00228
232 1 -1.1104 4.0048 18.7356 9.51911
233 2 2.2208 5.29372 17.2046 11.0393
286 1 -1.1104 4.31211 18.7426 12.4063
291 1 -1.1104 0.963496 18.8432 9.7997
292 1 -1.1104 1.12157 15.9502 9.59475
293 2 2.2208 5.29048 20.0867 8.17224
298 1 -1.1104 1.49499 18.5315 12.484
25 2 2.2208 11.0192 17.2939 11.0177
145 1 -1.1104 12.3703 18.7516 6.78914
201 2 2.2208 8.37785 20.2071 11.0471
149 1 -1.1104 12.3194 15.8634 6.67503
156 1 -1.1104 9.55047 18.6502 6.73849
199 2 2.2208 8.1786 14.5474 11.0197
165 1 -1.1104 9.65439 18.8104 9.63614
288 1 -1.1104 6.86717 18.8363 9.57145
50 1 -1.1104 12.4655 18.621 9.53731
112 1 -1.1104 6.84104 18.8166 6.57033
163 1 -1.1104 9.57816 15.7889 6.66454
27 1 -1.1104 12.1481 19.2162 12.2445
82 2 2.2208 11.1832 14.4676 8.21591
104 1 -1.1104 12.3996 15.7386 9.68658
229 1 -1.1104 9.64851 15.7466 12.3847
83 2 2.2208 10.9567 20.0354 8.19854
639 2 2.2208 11.0508 11.4943 -0.366627
321 2 2.2208 10.9595 6.09997 -0.389261
392 2 2.2208 5.37505 17.3748 -0.394146
8157 2 2.2208 11.1478 -5.21863 5.30764
616 2 2.2208 5.33266 11.4604 -0.418646
8308 2 2.2208 11.0653 -5.33249 -0.365193
8224 2 2.2208 8.37202 -5.30813 2.54487
315 2 2.2208 2.70709 -2.64172 -0.320015
391 2 2.2208 2.66731 14.3422 -0.280396
9221 2 2.2208 -0.171613 5.81219 -0.405202
322 2 2.2208 5.51479 0.295219 16.4168
323 1 -1.1104 1.26973 -4.34475 18.0769
327 1 -1.1104 1.21372 -4.00944 15.1161
335 1 -1.1104 1.21745 -1.42229 18.0593
337 2 2.2208 5.34575 -2.40694 19.2713
339 1 -1.1104 1.11946 -1.19328 15.374
343 1 -1.1104 4.10233 -4.1503 17.9189
345 2 2.2208 2.55341 0.278298 19.4865
346 1 -1.1104 3.90749 -4.06456 15.1336
350 2 2.2208 2.63103 -2.82552 16.7692
352 1 -1.1104 3.86762 -1.12947 17.9568
353 1 -1.1104 3.90614 -1.25103 15.0091
9110 2 2.2208 -0.2324 -2.69097 19.424
9032 2 2.2208 -0.0870554 0.241919 16.6336
9029 2 2.2208 -0.190269 19.9048 24.9599
311 2 2.2208 2.58103 5.81943 13.7837
347 1 -1.1104 4.16243 -3.81632 20.6814
354 1 -1.1104 3.82874 -0.820611 21.1617
340 1 -1.1104 1.25639 -1.08515 20.861
549 1 -1.1104 7.03642 15.7749 26.6117
325 1 -1.1104 6.98769 -3.94707 17.8693
331 1 -1.1104 6.9658 -3.73888 15.089
336 1 -1.1104 6.47853 -1.1969 17.8046
341 1 -1.1104 6.81365 -1.11822 14.9518
365 2 2.2208 11.1922 0.404487 16.7746
366 1 -1.1104 12.2904 -3.68393 18.0126
368 1 -1.1104 12.6765 -4.05539 15.0108
372 1 -1.1104 12.66 -0.971173 17.8055
373 2 2.2208 11.1798 -2.32739 19.3818
375 1 -1.1104 12.6195 -1.08189 15.0036
377 1 -1.1104 9.61944 -3.68079 18.1576
379 2 2.2208 8.55005 0.54079 19.3763
380 1 -1.1104 9.91179 -3.73622 15.2477
384 2 2.2208 8.30732 -2.50327 16.4752
386 1 -1.1104 9.8364 -0.864869 18.1046
387 1 -1.1104 9.73964 -1.0094 15.0633
481 1 -1.1104 6.70846 15.7891 21.0689
388 1 -1.1104 9.84576 -0.86867 20.8153
381 1 -1.1104 9.70092 -3.79975 20.899
369 1 -1.1104 12.5856 -4.05122 20.5712
306 2 2.2208 5.48708 -2.5594 13.6626
312 2 2.2208 5.49631 8.60126 13.8593
589 2 2.2208 11.0468 14.6153 25.0192
324 1 -1.1104 1.09048 1.56828 18.0792
329 1 -1.1104 1.27791 1.65634 15.192
338 2 2.2208 5.40764 3.20048 19.1525
344 1 -1.1104 4.06383 1.71147 17.7329
348 1 -1.1104 4.04359 1.59256 14.8682
351 2 2.2208 2.65394 3.05944 16.6052
398 2 2.2208 5.43923 5.95105 16.5992
400 1 -1.1104 1.01738 7.38524 18.0154
402 1 -1.1104 1.13478 7.17237 15.2435
406 1 -1.1104 1.22259 4.41101 18.0105
411 1 -1.1104 1.19538 4.2537 15.3583
420 2 2.2208 2.53672 5.70931 19.5028
422 1 -1.1104 3.73821 7.33675 15.2988
425 1 -1.1104 4.07236 4.46399 17.833
427 1 -1.1104 4.12606 4.51861 15.0617
419 1 -1.1104 4.00364 7.07764 18.1995
9033 2 2.2208 -0.234062 3.04923 19.5262
9219 2 2.2208 -0.244285 20.2006 13.6886
9070 2 2.2208 -0.158693 14.1819 25.1861
401 1 -1.1104 6.79379 7.39356 17.9007
404 1 -1.1104 6.91006 7.29695 15.1691
326 1 -1.1104 7.04093 1.52461 17.9287
408 1 -1.1104 6.84345 4.39865 17.9037
333 1 -1.1104 6.8175 1.74651 15.1425
415 1 -1.1104 6.87103 4.35788 15.1477
367 1 -1.1104 12.566 1.83218 18.0778
370 1 -1.1104 12.7283 1.57849 15.3896
374 2 2.2208 11.2896 3.27032 19.4571
378 1 -1.1104 9.85956 2.02944 17.9867
382 1 -1.1104 9.86211 1.84197 15.2853
385 2 2.2208 8.37135 3.15893 16.5632
434 2 2.2208 11.1486 5.91313 16.4595
436 1 -1.1104 12.4203 7.45535 17.8809
437 1 -1.1104 12.377 7.42347 15.126
439 1 -1.1104 12.6427 4.66584 17.8291
442 1 -1.1104 12.6764 4.50393 15.0497
447 2 2.2208 8.35962 5.83585 19.3409
449 1 -1.1104 9.71328 7.23838 15.2765
452 1 -1.1104 9.92608 4.54303 17.8405
454 1 -1.1104 9.76275 4.68205 14.8785
446 1 -1.1104 9.56103 7.32518 18.0323
9215 2 2.2208 -0.321796 20 19.185
522 2 2.2208 11.0538 14.2723 13.7425
399 2 2.2208 5.39991 11.4348 16.5451
407 1 -1.1104 1.21172 10.0383 18.0624
410 2 2.2208 5.34351 8.82289 19.3581
413 1 -1.1104 1.07214 10.0678 15.2339
421 2 2.2208 2.68559 11.57 19.395
424 2 2.2208 2.54282 8.68066 16.6299
426 1 -1.1104 4.06663 9.8858 17.9362
429 1 -1.1104 3.8361 10.0507 15.0256
462 1 -1.1104 1.1709 13.0413 18.1013
466 1 -1.1104 1.0303 12.9891 15.1374
482 1 -1.1104 4.00934 12.8818 18.088
485 1 -1.1104 3.86033 12.9072 15.1444
9243 2 2.2208 -0.127019 8.84215 19.3285
409 1 -1.1104 6.70921 10.1576 18.1357
307 2 2.2208 2.69434 0.0522359 13.7226
495 2 2.2208 5.55177 20.1514 13.8058
9111 2 2.2208 -0.352761 11.4837 16.4668
309 2 2.2208 8.392 0.316515 13.7118
390 1 -1.1104 9.5582 18.483 26.6387
515 1 -1.1104 9.54333 18.7139 20.7567
417 1 -1.1104 6.84383 10.138 15.242
470 1 -1.1104 6.72595 13.0586 15.0573
464 1 -1.1104 6.79486 12.929 17.864
435 2 2.2208 10.931 11.4518 16.6168
440 1 -1.1104 12.5137 10.2352 17.9852
441 2 2.2208 11.1362 8.85694 19.1564
444 1 -1.1104 12.2106 10.4311 15.364
448 2 2.2208 8.28014 11.4697 19.5613
451 2 2.2208 8.15231 8.91285 16.5536
453 1 -1.1104 9.57649 10.0762 18.1031
456 1 -1.1104 9.53552 10.0971 15.3026
498 1 -1.1104 12.4976 13.0067 18.1018
500 1 -1.1104 12.4394 13.4313 15.3462
509 1 -1.1104 9.62357 12.9038 18.0309
512 1 -1.1104 9.63481 12.9691 15.2283
9245 2 2.2208 -0.192619 8.67899 13.6827
460 2 2.2208 8.20152 11.5941 13.8042
9217 2 2.2208 -0.190187 17.3804 16.4948
357 1 -1.1104 9.67826 15.767 23.9331
489 2 2.2208 2.60188 14.4041 16.5356
476 2 2.2208 5.39984 14.2725 19.4912
461 2 2.2208 5.39417 17.1479 16.7932
463 1 -1.1104 1.01874 18.7255 17.8716
468 1 -1.1104 1.11431 18.4925 15.1012
474 1 -1.1104 1.02219 16.0034 17.9967
477 2 2.2208 5.24412 19.8384 19.5832
478 1 -1.1104 1.22116 15.8739 15.2018
483 1 -1.1104 3.59614 18.5872 18.4909
484 2 2.2208 2.44548 16.9772 19.3609
487 1 -1.1104 3.98687 18.7739 15.4443
490 2 2.2208 2.59523 20.064 16.7272
491 1 -1.1104 3.81297 15.612 18.1705
492 1 -1.1104 4.08383 15.8192 15.2167
308 2 2.2208 5.46679 3.25861 13.6936
587 1 -1.1104 12.3462 18.7824 26.515
389 2 2.2208 8.20727 14.3676 22.4272
8382 2 2.2208 8.46309 -5.27613 25.0064
9216 2 2.2208 -0.248362 14.3753 19.374
9244 2 2.2208 -0.295502 5.75877 16.6971
521 2 2.2208 11.0395 20.2735 14.0067
472 1 -1.1104 6.60401 18.6635 15.4477
475 1 -1.1104 6.9443 15.741 18.0965
465 1 -1.1104 6.44458 18.5285 18.1807
480 1 -1.1104 6.70763 15.8726 15.56
516 2 2.2208 8.26337 14.4248 16.7549
505 2 2.2208 11.0747 14.3897 19.399
497 2 2.2208 10.8967 17.2704 16.6507
499 1 -1.1104 12.5089 18.696 17.9398
502 1 -1.1104 12.32 18.8068 15.2292
504 1 -1.1104 12.3459 15.971 18.0847
506 2 2.2208 11.0133 20.1549 19.4448
507 1 -1.1104 12.4462 16.1362 15.1364
510 1 -1.1104 9.54216 18.6548 18.0236
511 2 2.2208 8.09303 17.2288 19.4232
514 1 -1.1104 9.54732 18.7098 15.2785
517 2 2.2208 8.02965 19.9056 16.6223
518 1 -1.1104 9.62444 15.8208 18.0169
519 1 -1.1104 9.60099 15.7806 15.2703
503 1 -1.1104 12.3923 18.6741 20.7425
523 2 2.2208 8.38791 17.28 13.9181
328 1 -1.1104 1.18996 -3.74341 20.9072
360 2 2.2208 -0.158495 -2.64546 25.078
9076 2 2.2208 -0.314914 0.392441 22.0256
525 2 2.2208 5.49808 0.39014 22.2443
526 1 -1.1104 1.18916 -3.92951 23.4227
530 1 -1.1104 1.10341 -3.99071 26.3259
534 1 -1.1104 1.09719 -1.2344 23.8313
536 2 2.2208 5.47645 -2.66857 25.0599
538 1 -1.1104 1.4699 -1.03325 26.5562
540 1 -1.1104 4.16402 -4.06675 23.5309
542 2 2.2208 2.56737 0.264166 24.9818
543 1 -1.1104 3.95841 -3.88085 26.3506
545 2 2.2208 2.57044 -2.46523 22.257
547 1 -1.1104 4.12509 -1.2062 23.805
548 1 -1.1104 4.28169 -1.22023 26.5959
313 2 2.2208 8.33895 5.91384 13.7272
9247 2 2.2208 -0.298283 8.71352 25.1102
539 1 -1.1104 6.92696 -1.3429 26.4879
342 1 -1.1104 6.84983 -0.928579 20.7783
332 1 -1.1104 6.93114 -3.72765 20.6494
376 1 -1.1104 12.7129 -1.2188 20.7148
532 1 -1.1104 6.79389 -4.21994 26.3979
528 1 -1.1104 6.90145 -3.7489 23.5746
535 1 -1.1104 7.1983 -0.814933 23.5291
561 2 2.2208 11.0815 0.610041 22.1444
562 1 -1.1104 12.5259 -3.9742 23.3789
564 1 -1.1104 12.7624 -3.85882 26.285
566 1 -1.1104 12.6204 -0.855537 23.6113
567 2 2.2208 11.3185 -2.44432 24.8481
569 1 -1.1104 12.5415 -0.992622 26.6325
570 1 -1.1104 9.72864 -3.78131 23.6892
572 2 2.2208 8.3541 0.417222 24.9914
573 1 -1.1104 9.94249 -3.9336 26.53
575 2 2.2208 8.38737 -2.52311 22.0504
577 1 -1.1104 9.9554 -0.719729 23.5087
578 1 -1.1104 9.66051 -1.20227 26.2994
588 1 -1.1104 12.3355 16.0108 23.5451
8457 2 2.2208 8.26155 -5.19446 19.4808
9075 2 2.2208 -0.185442 3.1124 24.7526
428 1 -1.1104 4.04298 4.49305 20.7618
423 1 -1.1104 4.13422 7.29765 20.8533
349 1 -1.1104 4.0623 1.79137 20.6351
403 1 -1.1104 1.34457 7.28058 21.0588
330 1 -1.1104 1.34867 1.70942 20.812
412 1 -1.1104 1.16344 4.42556 20.8653
527 1 -1.1104 1.25546 1.62385 23.2817
531 1 -1.1104 1.36957 1.95629 26.3319
537 2 2.2208 5.61188 3.23421 25.0118
541 1 -1.1104 4.049 1.49888 23.5332
544 1 -1.1104 4.00739 1.49939 26.2392
546 2 2.2208 2.78501 3.11823 22.1835
590 2 2.2208 5.51572 6.00281 22.1818
594 1 -1.1104 1.04218 7.29928 26.5114
596 1 -1.1104 1.18381 4.63104 23.5791
601 1 -1.1104 1.08193 4.57804 26.4449
605 1 -1.1104 3.86814 7.40948 23.7344
606 2 2.2208 2.63626 5.76524 25.0441
610 1 -1.1104 3.98754 4.53965 23.5939
612 1 -1.1104 4.02669 4.38751 26.4728
608 1 -1.1104 4.06481 7.33677 26.3925
592 1 -1.1104 0.840955 7.26862 23.8865
494 2 2.2208 2.68331 17.161 13.9564
455 1 -1.1104 9.53362 4.59095 20.7658
405 1 -1.1104 7.00927 7.29578 20.9815
383 1 -1.1104 9.86846 1.83471 20.7762
371 1 -1.1104 12.7242 1.78166 20.7912
416 1 -1.1104 6.87221 4.45574 20.6667
438 1 -1.1104 12.62 7.45752 20.8166
450 1 -1.1104 9.66829 7.49259 20.7236
334 1 -1.1104 6.93988 1.80013 20.4958
593 1 -1.1104 6.83287 7.38572 23.6275
443 1 -1.1104 12.3699 4.62574 20.7059
533 1 -1.1104 6.85613 1.85211 26.3369
529 1 -1.1104 6.76683 1.77256 23.6323
603 1 -1.1104 6.95538 4.75266 26.2655
595 1 -1.1104 6.8185 7.55064 26.4647
598 1 -1.1104 6.93071 4.56955 23.6465
563 1 -1.1104 12.6887 2.03714 23.568
565 1 -1.1104 12.5781 1.74468 26.3532
568 2 2.2208 11.1813 3.37513 24.9522
571 1 -1.1104 9.64726 1.92074 23.6062
574 1 -1.1104 9.51651 1.77713 26.636
576 2 2.2208 8.25268 3.09109 22.1134
622 1 -1.1104 9.5943 4.62595 26.2506
624 1 -1.1104 9.89168 4.77618 23.3868
628 2 2.2208 8.28854 6.22147 24.7801
629 2 2.2208 11.1835 6.17061 22.1107
633 1 -1.1104 12.754 4.65305 23.5409
636 1 -1.1104 12.5269 4.68742 26.4009
632 1 -1.1104 12.504 7.42801 26.4197
631 1 -1.1104 12.6079 7.50226 23.5788
626 1 -1.1104 9.60464 7.49632 26.0578
638 1 -1.1104 9.86725 7.50718 23.4623
9222 2 2.2208 -0.110507 11.4696 22.0466
414 1 -1.1104 1.3491 10.0574 20.7961
8454 2 2.2208 5.46601 -5.08033 22.1963
486 1 -1.1104 3.99545 12.8604 20.995
467 1 -1.1104 1.065 12.8488 20.6665
430 1 -1.1104 4.11483 10.2186 20.6342
591 2 2.2208 5.54624 11.7065 22.4025
597 1 -1.1104 1.49544 10.1268 23.7495
600 2 2.2208 5.45543 8.78885 25.0448
602 1 -1.1104 1.05925 10.1133 26.5484
607 2 2.2208 2.68762 11.5873 25.0315
609 2 2.2208 2.63712 8.74654 22.1958
611 1 -1.1104 4.33052 10.161 23.5753
613 1 -1.1104 3.94249 10.1539 26.2423
393 1 -1.1104 1.3116 12.8181 23.4396
431 1 -1.1104 1.38247 12.9852 26.2506
550 1 -1.1104 4.10437 13.0532 23.7907
582 1 -1.1104 3.92368 12.9919 26.4231
471 1 -1.1104 6.81885 12.956 20.7893
363 1 -1.1104 6.88127 12.9921 23.7952
501 1 -1.1104 12.636 13.1254 21.1311
513 1 -1.1104 9.80178 13.0515 20.8711
445 1 -1.1104 12.6404 10.2698 20.7972
418 1 -1.1104 6.7991 10.2427 21.1721
604 1 -1.1104 6.96179 10.2526 26.446
551 1 -1.1104 6.8513 12.9627 26.5378
457 1 -1.1104 9.93748 10.2513 20.6283
599 1 -1.1104 7.23843 10.0095 23.7682
621 1 -1.1104 9.92455 10.0492 26.4481
623 1 -1.1104 9.91369 10.167 23.4192
625 2 2.2208 8.36154 8.8183 22.2434
627 2 2.2208 8.36929 11.5393 25.091
630 2 2.2208 11.1827 11.6445 22.2605
634 1 -1.1104 12.5511 10.499 23.7174
635 2 2.2208 11.1907 8.97037 24.9102
637 1 -1.1104 12.6529 10.5972 26.4748
559 1 -1.1104 12.3182 13.3572 23.6114
580 1 -1.1104 9.61838 13.0148 26.5473
586 1 -1.1104 12.1572 13.3971 26.6739
619 1 -1.1104 9.60794 12.7265 23.7091
581 1 -1.1104 6.7528 18.7772 26.401
469 1 -1.1104 1.07559 18.4419 20.8193
479 1 -1.1104 1.29824 15.6195 20.8208
8386 2 2.2208 11.2215 -5.22685 16.622
493 1 -1.1104 4.03034 15.7493 20.7694
488 1 -1.1104 4.08848 18.624 21.0577
620 1 -1.1104 9.49136 18.5571 23.6104
552 2 2.2208 2.60569 14.3391 22.3633
364 2 2.2208 5.5188 14.2021 25.1716
585 1 -1.1104 3.97622 18.6464 26.4664
355 2 2.2208 5.46177 17.1951 22.3131
395 2 2.2208 5.44465 20.0882 24.9886
432 1 -1.1104 1.20938 15.9009 26.5
458 1 -1.1104 1.01803 18.7096 26.629
459 1 -1.1104 1.24524 18.5284 23.7217
553 2 2.2208 2.53778 19.9578 22.2537
554 1 -1.1104 4.02405 15.9225 23.7851
555 1 -1.1104 1.00164 15.6009 23.668
579 1 -1.1104 4.04266 18.6677 23.8522
583 1 -1.1104 4.01146 15.9116 26.5851
584 2 2.2208 2.73167 17.258 25.0119
396 1 -1.1104 6.92954 18.6055 23.7124
9028 2 2.2208 -0.233948 17.0406 22.3581
560 1 -1.1104 12.2849 18.729 23.5665
361 2 2.2208 8.13835 20.201 22.2141
558 2 2.2208 10.9486 17.4411 22.1301
356 1 -1.1104 9.66998 15.7031 26.471
520 1 -1.1104 9.84311 15.8526 20.7855
473 1 -1.1104 6.8921 18.5537 20.9101
617 2 2.2208 10.8721 20.2003 25.1746
618 1 -1.1104 12.4902 15.8969 26.497
508 1 -1.1104 12.5173 15.8354 20.7021
614 2 2.2208 8.26035 17.1665 25.1405
556 1 -1.1104 6.88048 15.7056 23.8096
496 2 2.2208 5.4197 14.4335 13.7483
299 2 2.2208 11.144 3.07435 13.7684
8994 2 2.2208 -0.143 -2.65843 13.8653
9218 2 2.2208 -0.262838 14.3263 13.691
359 2 2.2208 -0.158287 0.358632 27.8077
319 2 2.2208 8.15335 3.3171 27.7777
317 2 2.2208 11.0966 0.400807 27.71
9275 2 2.2208 -0.226658 6.10931 22.2965
314 2 2.2208 5.60286 0.317122 27.7226
230 2 2.2208 11.0488 8.79001 13.7515
8987 2 2.2208 -0.0182285 3.03579 13.8423
615 2 2.2208 2.51024 8.52682 27.7366
641 2 2.2208 5.31792 22.9187 5.41215
643 1 -1.1104 0.887238 24.5917 0.969043
644 1 -1.1104 1.00234 24.5387 4.0078
645 1 -1.1104 0.922247 21.683 1.2791
647 2 2.2208 5.10457 25.647 2.40307
648 1 -1.1104 1.03574 21.4403 4.04425
650 1 -1.1104 3.83696 24.1831 1.04779
651 2 2.2208 2.32398 22.9198 2.66199
653 1 -1.1104 3.71785 24.3642 3.96308
654 2 2.2208 2.26738 25.7526 5.42037
655 1 -1.1104 3.57228 21.3289 1.20695
657 1 -1.1104 3.79992 21.6991 4.00911
649 1 -1.1104 0.955674 27.1319 3.98548
656 1 -1.1104 3.88975 27.0883 0.941015
658 1 -1.1104 3.86574 27.2104 3.86203
662 1 -1.1104 6.69371 23.9988 1.19839
664 1 -1.1104 6.85742 21.4372 0.997541
1275 1 -1.1104 0.754895 46.858 3.87079
1154 2 2.2208 2.34812 25.7055 -0.42203
667 1 -1.1104 6.60802 27.1228 3.97876
9683 2 2.2208 -0.298947 45.7557 10.9335
1153 2 2.2208 5.21199 22.8871 -0.247581
1183 2 2.2208 10.8608 22.9026 -0.293444
663 1 -1.1104 6.68841 24.24 4.09207
665 1 -1.1104 6.62475 26.9383 1.21965
666 1 -1.1104 6.54513 21.5905 3.74159
668 2 2.2208 11.0523 23.0847 5.55195
670 1 -1.1104 12.3744 24.2312 0.989452
671 1 -1.1104 12.5584 24.6789 3.82785
672 1 -1.1104 12.2035 21.218 1.37992
674 2 2.2208 11.0779 25.7736 2.50958
675 1 -1.1104 12.4949 21.9308 4.02751
677 1 -1.1104 9.5846 24.417 1.20253
678 2 2.2208 8.07773 23.0314 2.4772
680 1 -1.1104 9.60699 24.3807 3.90221
681 2 2.2208 8.12868 25.6753 5.36493
682 1 -1.1104 9.51207 21.6361 0.958703
684 1 -1.1104 9.42593 21.5549 3.93493
673 1 -1.1104 12.4452 27.2023 1.01129
817 1 -1.1104 12.564 27.2088 6.68588
683 1 -1.1104 9.50062 27.0405 1.33647
1101 2 2.2208 8.03364 42.5612 -0.364748
1184 2 2.2208 8.20038 25.6476 -0.215482
1185 2 2.2208 5.35157 39.7916 -0.373708
9546 2 2.2208 -0.403594 28.6723 11.0418
646 1 -1.1104 0.946973 27.1673 1.18629
642 2 2.2208 5.13584 28.426 5.35356
652 2 2.2208 2.38303 28.5597 2.73706
690 1 -1.1104 1.20205 30.135 1.27274
693 1 -1.1104 0.962738 29.8457 3.99001
696 1 -1.1104 1.03543 32.8164 1.45157
697 2 2.2208 4.94704 31.4342 2.35313
699 1 -1.1104 0.912231 32.8232 4.14235
701 1 -1.1104 3.82028 29.9631 1.11369
704 1 -1.1104 3.65905 30.0922 4.07307
706 2 2.2208 2.31711 31.5693 5.45217
708 1 -1.1104 3.86168 32.8704 1.00395
709 1 -1.1104 3.72986 32.7203 4.10525
714 1 -1.1104 6.34101 29.9471 4.08072
1155 2 2.2208 5.39914 28.598 -0.0482154
9545 2 2.2208 -0.186998 25.807 8.24992
1214 2 2.2208 2.38595 31.4974 -0.290158
676 1 -1.1104 12.0876 27.4871 3.73233
700 1 -1.1104 6.62588 32.9281 3.80106
715 1 -1.1104 6.49143 32.8557 1.08904
713 1 -1.1104 6.55173 29.9967 1.35418
685 1 -1.1104 9.40727 27.1029 4.18336
669 2 2.2208 10.8611 28.4412 5.55473
679 2 2.2208 8.02361 28.5794 2.67867
717 1 -1.1104 12.1152 30.164 1.09293
719 1 -1.1104 12.5437 30.1187 3.77494
721 1 -1.1104 12.2537 33.0008 1.17207
722 2 2.2208 11.0502 31.446 2.5658
724 1 -1.1104 12.1987 32.8919 4.01899
725 1 -1.1104 9.23074 30.0592 1.25077
728 1 -1.1104 9.65915 29.9281 3.97997
730 2 2.2208 7.77655 31.2811 5.40398
732 1 -1.1104 9.4378 32.8598 1.1149
733 1 -1.1104 9.37484 32.8969 3.92655
840 1 -1.1104 6.3498 32.6426 6.72633
1243 2 2.2208 7.98204 31.3543 -0.304105
9678 2 2.2208 13.7251 39.9567 2.67348
10041 2 2.2208 -0.353585 28.3955 -0.139731
689 2 2.2208 5.33513 34.1363 5.51319
691 1 -1.1104 1.06078 35.5271 1.20658
694 1 -1.1104 1.04892 35.5605 4.10242
698 2 2.2208 5.42528 37.098 2.52247
702 1 -1.1104 3.93484 35.6949 1.26009
703 2 2.2208 2.51637 34.3691 2.67989
705 1 -1.1104 3.77489 35.6237 3.87054
707 2 2.2208 2.46356 36.8875 5.39146
735 2 2.2208 5.32541 39.754 5.30491
741 1 -1.1104 0.907109 38.3211 1.20735
746 1 -1.1104 1.02061 38.3979 3.97224
751 2 2.2208 2.35495 39.9632 2.72119
755 1 -1.1104 3.75007 38.5718 1.31607
757 1 -1.1104 4.04514 38.5317 4.05269
695 1 -1.1104 6.44937 35.8132 4.38455
692 1 -1.1104 7.01726 35.7708 1.35493
1244 2 2.2208 10.9262 34.2129 -0.347886
1213 2 2.2208 2.39587 37.0277 -0.0937215