LAMMPS (29 Oct 2020)
OMP_NUM_THREADS environment is not set. Defaulting to 1 thread. (../comm.cpp:94)
  using 1 OpenMP thread(s) per MPI task
OMP_NUM_THREADS environment is not set. Defaulting to 1 thread. (../comm.cpp:94)
  using 1 OpenMP thread(s) per MPI task
Reading data file ...
  orthogonal box = (-0.40173553 -4.9729997 -0.41830695) to (27.741736 333.05300 27.758307)
  2 by 13 by 2 MPI processor grid
  reading atoms ...
  17760 atoms
  reading velocities ...
  17760 velocities
Finding 1-2 1-3 1-4 neighbors ...
  special bond factors lj:    0.0      0.0      0.0     
  special bond factors coul:  0.0      0.0      0.0     
     0 = max # of 1-2 neighbors
     0 = max # of 1-3 neighbors
     0 = max # of 1-4 neighbors
     1 = max # of special neighbors
  special bonds CPU = 0.004 seconds
  read_data CPU = 0.058 seconds
WARNING: 13 of 1000 force values in table Xe-Xe are inconsistent with -dE/dr.
  Should only be flagged at inflection points (../pair_table.cpp:461)
WARNING: 2 of 1000 force values in table Xe-O are inconsistent with -dE/dr.
  Should only be flagged at inflection points (../pair_table.cpp:461)
WARNING: 2 of 1000 force values in table Xe-Th are inconsistent with -dE/dr.
  Should only be flagged at inflection points (../pair_table.cpp:461)
Setting atom values ...
  11760 settings made for charge
Setting atom values ...
  5880 settings made for charge
Setting atom values ...
  120 settings made for charge
PPPM initialization ...
  using 12-bit tables for long-range coulomb (../kspace.cpp:328)
  G vector (1/distance) = 0.29860018
  grid = 40 240 40
  stencil order = 5
  estimated absolute RMS force accuracy = 0.0001573825
  estimated relative force accuracy = 1.092961e-05
  using single precision MKL FFT
  3d grid and FFT values/proc = 18225 7600
Neighbor list info ...
  update every 1 steps, delay 0 steps, check yes
  max neighbors/atom: 2000, page size: 100000
  master list distance cutoff = 13
  ghost atom cutoff = 13
  binsize = 6.5, bins = 5 53 5
  3 neighbor lists, perpetual/occasional/extra = 3 0 0
  (1) pair coul/long, perpetual
      attributes: half, newton on
      pair build: half/bin/newton
      stencil: half/bin/3d/newton
      bin: standard
  (2) pair eam/alloy, perpetual, skip from (1)
      attributes: half, newton on
      pair build: skip
      stencil: none
      bin: none
  (3) pair table, perpetual, skip from (1)
      attributes: half, newton on
      pair build: skip
      stencil: none
      bin: none
Setting up Verlet run ...
  Unit style    : metal
  Current step  : 0
  Time step     : 0.001
Per MPI rank memory allocation (min/avg/max) = 9.252 | 9.932 | 10.04 Mbytes
Step Temp E_pair E_mol TotEng Press 
       0          900   -229689.08            0    -227623.1    339.09794 
  100000    888.76916    -229690.3            0    -227650.1    681.93317 
Loop time of 724.996 on 52 procs for 100000 steps with 17760 atoms

Performance: 11.917 ns/day, 2.014 hours/ns, 137.932 timesteps/s
99.8% CPU use with 52 MPI tasks x 1 OpenMP threads

MPI task timing breakdown:
Section |  min time  |  avg time  |  max time  |%varavg| %total
---------------------------------------------------------------
Pair    | 510.77     | 524.74     | 544.57     |  34.7 | 72.38
Bond    | 0.0081073  | 0.013302   | 0.017774   |   1.8 |  0.00
Kspace  | 151.15     | 169.42     | 182.36     |  56.6 | 23.37
Neigh   | 3.08       | 3.3508     | 3.5615     |   5.6 |  0.46
Comm    | 20.385     | 22.198     | 25.441     |  26.2 |  3.06
Output  | 5.7011e-05 | 6.2136e-05 | 0.0002682  |   0.0 |  0.00
Modify  | 2.257      | 3.3717     | 6.3019     |  83.3 |  0.47
Other   |            | 1.9        |            |       |  0.26

Nlocal:        341.538 ave         371 max         326 min
Histogram: 4 6 12 14 7 4 2 1 1 1
Nghost:        5518.65 ave        5687 max        5321 min
Histogram: 12 8 0 0 1 6 1 1 10 13
Neighs:       106604.0 ave      117470 max       95369 min
Histogram: 3 2 3 3 9 16 10 3 1 2

Total # of neighbors = 5543427
Ave neighs/atom = 312.12990
Ave special neighs/atom = 0.0000000
Neighbor list builds = 1098
Dangerous builds = 0
11760 atoms in group oxygen
PPPM initialization ...
  using 12-bit tables for long-range coulomb (../kspace.cpp:328)
  G vector (1/distance) = 0.29860018
  grid = 40 240 40
  stencil order = 5
  estimated absolute RMS force accuracy = 0.0001573825
  estimated relative force accuracy = 1.092961e-05
  using single precision MKL FFT
  3d grid and FFT values/proc = 18225 7600
Neighbor list info ...
  update every 1 steps, delay 0 steps, check yes
  max neighbors/atom: 2000, page size: 100000
  master list distance cutoff = 13
  ghost atom cutoff = 13
  binsize = 6.5, bins = 5 53 5
  3 neighbor lists, perpetual/occasional/extra = 3 0 0
  (1) pair coul/long, perpetual
      attributes: half, newton on
      pair build: half/bin/newton
      stencil: half/bin/3d/newton
      bin: standard
  (2) pair eam/alloy, perpetual, skip from (1)
      attributes: half, newton on
      pair build: skip
      stencil: none
      bin: none
  (3) pair table, perpetual, skip from (1)
      attributes: half, newton on
      pair build: skip
      stencil: none
      bin: none
Setting up Verlet run ...
  Unit style    : metal
  Current step  : 0
  Time step     : 0.001
Per MPI rank memory allocation (min/avg/max) = 9.502 | 10.18 | 10.29 Mbytes
Step f_2 Temp v_Tdiff v_deltaT 
       0            0    888.76916            0            0 
  100000    990.76866    896.13933  0.031753501    368.65519 
  200000    1944.2385    883.94599  0.037317504    433.25276 
  300000     2892.129    895.52225  0.037347453    433.60046 
  400000    3840.3802    890.30758  0.037774873    438.56276 
  500000    4796.9904    895.72682  0.036792867    427.16177 
  600000    5746.4281    890.84576  0.037375057    433.92094 
  700000    6696.5092    897.43247  0.037310871    433.17574 
  800000    7641.8589    895.67169  0.037226604    432.19742 
  900000    8589.9075    897.72862  0.037075376    430.44168 
 1000000    9540.3309    903.95292  0.038400773    445.82941 
Loop time of 7240.8 on 52 procs for 1000000 steps with 17760 atoms

Performance: 11.932 ns/day, 2.011 hours/ns, 138.106 timesteps/s
99.9% CPU use with 52 MPI tasks x 1 OpenMP threads

MPI task timing breakdown:
Section |  min time  |  avg time  |  max time  |%varavg| %total
---------------------------------------------------------------
Pair    | 5077.8     | 5249       | 5454.8     | 111.4 | 72.49
Bond    | 0.08718    | 0.13394    | 0.17836    |   5.8 |  0.00
Kspace  | 1499.8     | 1695.8     | 1854.5     | 179.5 | 23.42
Neigh   | 32.608     | 35.873     | 38.345     |  23.9 |  0.50
Comm    | 196.55     | 220.14     | 252.38     |  86.9 |  3.04
Output  | 0.0010736  | 0.0011355  | 0.002385   |   0.5 |  0.00
Modify  | 6.1144     | 7.2423     | 7.9238     |  15.2 |  0.10
Other   |            | 32.56      |            |       |  0.45

Nlocal:        341.538 ave         369 max         318 min
Histogram: 3 5 4 8 10 9 4 6 1 2
Nghost:        5522.77 ave        5695 max        5290 min
Histogram: 4 7 9 0 0 6 6 0 0 20
Neighs:       106595.0 ave      116708 max       92670 min
Histogram: 3 2 2 5 0 11 11 13 3 2

Total # of neighbors = 5542933
Ave neighs/atom = 312.10208
Ave special neighs/atom = 0.0000000
Neighbor list builds = 11803
Dangerous builds = 0
Total wall time: 2:12:46
