ITEM: TIMESTEP
342
ITEM: NUMBER OF ATOMS
17748
ITEM: BOX BOUNDS pp pp pp
-2.7717828229332220e-01 2.7617178282293317e+01
-3.4472205766305355e+00 3.3152722057663055e+02
-2.7717827830221448e-01 2.7617178278302212e+01
ITEM: ATOMS id type q x y z
1 2 2.2208 5.24373 2.13648 5.32405
2 1 -1.1104 1.05609 -2.04479 1.139
3 1 -1.1104 1.06072 3.52905 1.13988
4 1 -1.1104 1.05621 -2.04488 3.92895
5 1 -1.1104 1.06075 3.52897 3.92978
6 1 -1.1104 1.05841 0.742103 1.14
7 2 2.2208 5.24144 -0.650289 2.53418
8 1 -1.1104 1.05834 0.742017 3.92893
9 1 -1.1104 3.84562 -2.04473 1.13945
10 1 -1.1104 3.85021 3.52896 1.1404
11 2 2.2208 2.45427 2.13655 2.53466
12 1 -1.1104 3.84556 -2.04483 3.92841
13 1 -1.1104 3.85012 3.52888 3.92929
14 2 2.2208 2.45202 -0.650392 5.32365
15 2 2.2208 2.45662 4.92344 5.32437
16 1 -1.1104 3.84778 0.742108 1.13946
17 1 -1.1104 3.84786 0.742 3.9294
18 2 2.2208 5.2461 4.9234 2.53501
34 1 -1.1104 6.63962 3.52894 1.13987
28 1 -1.1104 1.05847 0.742011 6.71883
291 1 -1.1104 12.2304 17.4631 12.3001
33 1 -1.1104 6.63966 3.52886 3.9298
25 1 -1.1104 6.63734 0.742122 1.13996
32 1 -1.1104 6.63511 -2.04475 3.92889
30 1 -1.1104 6.63958 3.52885 6.71868
233 2 2.2208 13.6099 -0.650037 10.9025
29 1 -1.1104 3.8457 -2.04486 6.71836
57 1 -1.1104 6.63737 0.742033 6.71881
23 1 -1.1104 3.85019 3.52886 6.71918
19 1 -1.1104 1.06069 3.52895 6.71867
158 2 2.2208 13.6286 21.645 5.32682
22 1 -1.1104 6.63499 -2.04468 1.13894
20 1 -1.1104 6.63725 0.742038 3.92887
35 2 2.2208 10.8227 2.13661 5.32405
36 1 -1.1104 12.2139 -2.04467 1.13905
37 1 -1.1104 12.2186 3.52907 1.13985
38 1 -1.1104 12.2141 -2.04466 3.92897
39 1 -1.1104 12.2186 3.52902 3.9298
40 1 -1.1104 12.2163 0.742209 1.14
41 2 2.2208 10.8204 -0.650196 2.53422
42 1 -1.1104 12.2162 0.742167 3.9289
43 1 -1.1104 9.42456 -2.04465 1.13947
44 1 -1.1104 9.42919 3.52898 1.1404
45 2 2.2208 8.03321 2.13657 2.53464
46 1 -1.1104 9.42449 -2.04471 3.92842
47 1 -1.1104 9.42908 3.52893 3.92927
48 2 2.2208 8.03094 -0.65028 5.32362
49 1 -1.1104 9.42674 0.742161 1.13945
50 1 -1.1104 9.42682 0.742108 3.92939
51 2 2.2208 8.03555 4.92337 5.32441
52 2 2.2208 10.8251 4.92348 2.53501
54 2 2.2208 13.6145 4.92358 5.32439
53 2 2.2208 13.6099 -0.650174 5.32368
347 2 2.2208 2.47033 21.6458 -0.25177
209 1 -1.1104 9.42465 -2.0447 6.71836
21 1 -1.1104 6.63507 -2.04477 6.71785
59 1 -1.1104 12.2186 3.52903 6.71867
56 2 2.2208 13.6122 2.13672 2.53466
63 2 2.2208 5.24844 7.71025 5.32471
64 2 2.2208 5.25312 13.284 5.32548
65 1 -1.1104 1.06552 9.10304 1.14051
66 1 -1.1104 1.06553 9.10299 3.93035
67 1 -1.1104 1.06321 6.31602 1.14067
68 1 -1.1104 1.06791 11.8901 1.1414
69 2 2.2208 5.25085 10.4972 2.53568
70 1 -1.1104 1.06309 6.31597 3.92955
71 1 -1.1104 1.06776 11.89 3.93034
72 1 -1.1104 3.85503 9.10279 1.14099
73 2 2.2208 2.45905 7.71046 2.53529
74 2 2.2208 2.46368 13.2844 2.53613
75 1 -1.1104 3.85488 9.10274 3.92991
76 2 2.2208 2.46135 10.4974 5.32505
77 1 -1.1104 3.85258 6.31587 1.14019
78 1 -1.1104 3.85724 11.8898 1.14097
79 1 -1.1104 3.85257 6.31579 3.93008
80 1 -1.1104 3.85729 11.8897 3.93078
94 1 -1.1104 6.64669 11.8895 3.93032
81 1 -1.1104 6.64198 6.31572 3.92961
237 1 -1.1104 1.0654 9.10292 6.71928
84 1 -1.1104 3.85718 11.8896 6.71972
82 1 -1.1104 6.64442 9.10264 1.14053
91 1 -1.1104 6.6421 6.31577 1.14073
26 2 2.2208 13.6286 21.6448 10.9056
90 1 -1.1104 1.06311 6.31594 6.71942
87 1 -1.1104 3.8549 9.10268 6.71978
86 1 -1.1104 3.85247 6.31576 6.71897
85 1 -1.1104 6.6443 9.10253 6.71932
238 1 -1.1104 6.64674 11.8894 6.7202
89 1 -1.1104 6.642 6.31569 6.71951
83 1 -1.1104 6.64681 11.8895 1.14142
95 2 2.2208 13.6193 10.4974 5.32508
88 1 -1.1104 6.64442 9.10259 3.93043
96 2 2.2208 10.8274 7.7103 5.32474
97 2 2.2208 10.8321 13.284 5.32551
98 1 -1.1104 12.2234 9.10277 1.14051
99 1 -1.1104 12.2234 9.10274 3.93047
100 1 -1.1104 12.2211 6.31591 1.14074
101 1 -1.1104 12.2258 11.8896 1.14146
102 2 2.2208 10.8298 10.4972 2.5357
103 1 -1.1104 12.221 6.31589 3.92958
104 1 -1.1104 12.2257 11.8896 3.9303
105 1 -1.1104 9.43399 9.10264 1.14107
106 2 2.2208 8.03798 7.71026 2.53534
107 2 2.2208 8.04263 13.284 2.53612
108 1 -1.1104 9.43386 9.10261 3.92993
109 2 2.2208 8.0403 10.4971 5.32508
110 1 -1.1104 9.43153 6.31582 1.14021
111 1 -1.1104 9.43623 11.8895 1.14093
112 1 -1.1104 9.43155 6.31576 3.93015
113 1 -1.1104 9.43628 11.8894 3.93084
119 2 2.2208 13.617 7.71049 2.53532
114 1 -1.1104 9.43618 11.8894 6.71971
117 1 -1.1104 12.221 6.31586 6.71953
115 2 2.2208 13.6216 13.2843 2.53613
118 1 -1.1104 12.2233 9.10272 6.7193
265 1 -1.1104 9.43388 9.10256 6.71986
121 2 2.2208 5.25757 18.8578 5.32631
122 1 -1.1104 1.07001 14.6772 1.1415
123 1 -1.1104 1.07441 20.2516 1.14242
124 1 -1.1104 1.07009 14.6771 3.93124
125 1 -1.1104 1.07446 20.2514 3.93203
126 1 -1.1104 1.0723 17.4643 1.14236
127 2 2.2208 5.25534 16.0711 2.53658
128 2 2.2208 5.25981 21.645 2.53739
129 1 -1.1104 1.07222 17.4642 3.9313
130 1 -1.1104 3.85955 14.6767 1.14188
131 1 -1.1104 3.86391 20.2508 1.14274
132 2 2.2208 2.46809 18.8586 2.53703
133 1 -1.1104 3.85945 14.6766 3.93081
134 1 -1.1104 3.86387 20.2506 3.93164
135 2 2.2208 2.46589 16.0713 5.32594
136 2 2.2208 2.47034 21.6454 5.32664
137 1 -1.1104 3.8616 17.4637 1.14195
138 1 -1.1104 3.8617 17.4636 3.93164
153 1 -1.1104 6.65342 20.25 3.93202
142 1 -1.1104 6.65123 17.4629 6.72103
144 1 -1.1104 1.07001 14.6769 6.72021
143 1 -1.1104 3.86169 17.4633 6.72062
147 1 -1.1104 3.86388 20.2501 6.72133
145 1 -1.1104 1.07225 17.4639 6.72103
151 1 -1.1104 3.85952 14.6764 6.7206
148 1 -1.1104 6.65332 20.2502 1.14233
140 1 -1.1104 6.6512 17.4633 1.14233
155 1 -1.1104 6.64902 14.6763 3.93123
141 1 -1.1104 6.65115 17.4632 3.93122
150 1 -1.1104 1.07446 20.2509 6.72101
149 1 -1.1104 6.64896 14.6762 6.72016
157 2 2.2208 13.6239 16.0712 5.32598
181 1 -1.1104 9.44075 17.4629 6.72058
154 2 2.2208 13.6262 18.8581 2.53706
139 1 -1.1104 6.64893 14.6764 1.14143
159 2 2.2208 10.8367 18.8576 5.32638
160 1 -1.1104 12.228 14.6765 1.14138
161 1 -1.1104 12.2325 20.2502 1.14226
162 1 -1.1104 12.2281 14.6765 3.93131
163 1 -1.1104 12.2327 20.2501 3.93223
164 1 -1.1104 12.2303 17.4633 1.14241
165 2 2.2208 10.8344 16.0709 2.53658
166 2 2.2208 10.839 21.6446 2.53744
167 1 -1.1104 12.2302 17.4633 3.93121
168 1 -1.1104 9.43856 14.6763 1.1419
169 1 -1.1104 9.44302 20.25 1.14279
170 2 2.2208 8.04707 18.8577 2.53701
171 1 -1.1104 9.43846 14.6763 3.93076
172 1 -1.1104 9.443 20.2498 3.93158
173 2 2.2208 8.04487 16.0707 5.32593
174 2 2.2208 8.04943 21.6442 5.32666
175 1 -1.1104 9.44064 17.4632 1.14187
176 1 -1.1104 9.44076 17.4631 3.93172
156 1 -1.1104 12.228 14.6764 6.72015
146 1 -1.1104 6.65348 20.2495 6.72093
320 1 -1.1104 9.44087 17.4625 12.2995
178 1 -1.1104 9.43855 14.6762 6.72068
180 1 -1.1104 12.2303 17.4632 6.7212
270 2 2.2208 13.6169 7.71045 8.1141
27 1 -1.1104 1.05618 -2.04489 6.71792
206 1 -1.1104 9.44316 20.2493 9.51036
239 1 -1.1104 12.2327 20.2499 9.51109
24 1 -1.1104 3.84782 0.741977 6.71832
182 2 2.2208 5.24379 2.13653 10.9029
183 1 -1.1104 1.05626 -2.04476 12.2968
184 1 -1.1104 1.06077 3.52904 12.2975
185 1 -1.1104 1.05633 -2.04484 9.50783
186 1 -1.1104 1.0608 3.52899 9.50854
187 1 -1.1104 1.05859 0.742141 12.2976
188 2 2.2208 5.24152 -0.650348 8.11306
189 1 -1.1104 1.05844 0.742048 9.50775
190 1 -1.1104 3.8458 -2.0448 12.2972
191 1 -1.1104 3.85026 3.52894 12.298
192 2 2.2208 2.45431 2.13652 8.11345
193 1 -1.1104 3.84567 -2.04484 9.50731
194 1 -1.1104 3.85014 3.52887 9.50808
195 2 2.2208 2.45213 -0.650319 10.9025
196 2 2.2208 2.45664 4.92347 10.9032
197 1 -1.1104 3.84792 0.742064 12.2972
198 1 -1.1104 3.84796 0.742014 9.50823
199 2 2.2208 5.24605 4.92335 8.11378
203 1 -1.1104 6.63733 0.742034 9.50773
211 1 -1.1104 6.63746 0.742083 12.2977
200 1 -1.1104 6.63961 3.5289 12.2975
202 1 -1.1104 6.63523 -2.04477 9.50779
205 1 -1.1104 6.63515 -2.04474 12.2967
201 1 -1.1104 6.63967 3.52886 9.5086
234 2 2.2208 10.8182 -3.43703 5.32319
208 2 2.2208 2.44979 -3.43717 2.53372
316 1 -1.1104 9.43851 14.676 9.50957
61 1 -1.1104 12.214 -2.04466 6.71791
60 1 -1.1104 9.42676 0.74209 6.7183
289 2 2.2208 8.04956 21.6434 10.9055
212 2 2.2208 13.6122 2.13673 8.11347
290 2 2.2208 10.8368 18.8573 10.9052
210 2 2.2208 13.6076 -3.43704 2.53381
235 2 2.2208 13.6145 4.92361 10.9032
62 1 -1.1104 12.2163 0.742184 6.71883
55 1 -1.1104 9.42915 3.52891 6.71921
215 2 2.2208 10.8227 2.13668 10.9029
216 1 -1.1104 12.2141 -2.04452 12.2968
217 1 -1.1104 12.2186 3.5291 12.2975
218 1 -1.1104 12.2142 -2.04457 9.50784
219 1 -1.1104 12.2186 3.52905 9.50862
220 1 -1.1104 12.2164 0.7423 12.2977
221 2 2.2208 10.8205 -0.650181 8.11307
222 1 -1.1104 12.2163 0.742237 9.50775
223 1 -1.1104 9.42471 -2.04463 12.2973
224 1 -1.1104 9.42916 3.52898 12.298
225 2 2.2208 8.03323 2.13654 8.11346
226 1 -1.1104 9.4246 -2.04466 9.50731
227 1 -1.1104 9.42906 3.52894 9.50809
228 2 2.2208 8.03102 -0.650232 10.9025
229 2 2.2208 8.03553 4.92339 10.9032
230 1 -1.1104 9.42682 0.742178 12.2972
231 1 -1.1104 9.42689 0.742145 9.50824
232 2 2.2208 10.825 4.92346 8.1138
152 2 2.2208 5.23936 -3.43714 10.9021
92 1 -1.1104 1.0678 11.8899 6.72016
242 2 2.2208 5.24839 7.71023 10.9035
243 2 2.2208 5.25313 13.2838 10.9043
244 1 -1.1104 1.06538 9.10281 12.2981
245 1 -1.1104 1.06545 9.10286 9.50916
246 1 -1.1104 1.06314 6.31595 12.2983
247 1 -1.1104 1.0678 11.8897 12.2991
248 2 2.2208 5.25077 10.4971 8.11446
249 1 -1.1104 1.06304 6.31591 9.50834
250 1 -1.1104 1.06771 11.8898 9.50915
251 1 -1.1104 3.8549 9.10262 12.2986
252 2 2.2208 2.45896 7.71038 8.11406
253 2 2.2208 2.46364 13.2842 8.11488
254 1 -1.1104 3.8548 9.10263 9.50872
255 2 2.2208 2.46132 10.4972 10.9039
256 1 -1.1104 3.85246 6.31578 12.2978
257 1 -1.1104 3.85718 11.8894 12.2986
258 1 -1.1104 3.85252 6.31577 9.50886
259 1 -1.1104 3.85724 11.8895 9.5096
260 1 -1.1104 6.64191 6.31567 9.5084
262 1 -1.1104 6.642 6.31572 12.2983
261 1 -1.1104 6.64435 9.10249 9.50924
213 2 2.2208 2.44988 -3.43723 8.11266
264 1 -1.1104 6.64429 9.10248 12.2982
266 1 -1.1104 6.64666 11.8893 9.50913
204 2 2.2208 8.02869 -3.43704 2.5337
214 2 2.2208 13.6077 -3.43696 8.11269
207 2 2.2208 5.23928 -3.43715 5.32317
269 2 2.2208 13.6192 10.4973 10.9039
267 2 2.2208 13.6216 13.2842 8.11492
263 1 -1.1104 6.64676 11.8892 12.2991
120 1 -1.1104 12.2258 11.8896 6.72026
116 1 -1.1104 9.43143 6.31574 6.719
271 1 -1.1104 9.43624 11.8893 9.50967
272 1 -1.1104 9.43148 6.31573 9.50894
273 1 -1.1104 9.43618 11.8892 12.2986
274 1 -1.1104 9.43141 6.31575 12.2978
275 2 2.2208 8.04027 10.497 10.9039
276 1 -1.1104 9.43378 9.10252 9.50873
277 2 2.2208 8.04262 13.2838 8.11489
278 2 2.2208 8.03789 7.71019 8.11413
279 2 2.2208 10.8274 7.71027 10.9035
280 2 2.2208 10.8321 13.2838 10.9043
281 1 -1.1104 12.2233 9.10267 12.2981
282 1 -1.1104 12.2234 9.10268 9.50927
283 1 -1.1104 12.221 6.31588 12.2983
284 1 -1.1104 12.2257 11.8895 12.2991
285 2 2.2208 10.8298 10.4971 8.11448
286 1 -1.1104 12.2209 6.31587 9.50838
287 1 -1.1104 12.2257 11.8895 9.50912
288 1 -1.1104 9.43387 9.1025 12.2987
58 2 2.2208 10.8183 -3.43694 10.9021
31 2 2.2208 8.02879 -3.43706 8.11262
241 2 2.2208 10.8391 21.6441 8.11612
325 1 -1.1104 12.228 14.6763 12.299
324 2 2.2208 8.04494 16.0704 10.9048
315 1 -1.1104 12.2303 17.4631 9.51004
294 1 -1.1104 6.64905 14.676 9.51006
292 1 -1.1104 3.85947 14.6762 9.50961
293 1 -1.1104 3.86173 17.4629 9.51045
297 1 -1.1104 1.07226 17.4632 12.3
298 2 2.2208 2.4659 16.0708 10.9048
299 2 2.2208 2.47033 21.6441 10.9055
300 1 -1.1104 3.86173 17.4627 12.2996
301 1 -1.1104 3.86396 20.2491 12.3003
302 1 -1.1104 3.85956 14.6761 12.2995
303 1 -1.1104 1.07441 20.2503 9.5108
304 1 -1.1104 1.07223 17.4635 9.51009
305 2 2.2208 5.25988 21.6441 8.11597
306 1 -1.1104 1.07005 14.6766 9.51005
307 2 2.2208 5.25538 16.0707 8.11531
308 1 -1.1104 1.07443 20.2498 12.3
309 1 -1.1104 1.06999 14.6764 12.2991
310 2 2.2208 5.25765 18.8571 10.9052
311 1 -1.1104 3.86395 20.2496 9.51041
312 2 2.2208 2.46811 18.8579 8.11571
295 1 -1.1104 6.64902 14.6758 12.2991
268 1 -1.1104 6.65353 20.2491 9.51083
296 1 -1.1104 6.65359 20.2487 12.2999
93 2 2.2208 13.6262 18.8579 8.11583
314 1 -1.1104 6.65135 17.4624 12.3
240 2 2.2208 13.6239 16.071 10.9048
323 1 -1.1104 9.44326 20.2491 12.3005
313 1 -1.1104 6.65126 17.4626 9.51001
177 1 -1.1104 9.4431 20.2495 6.7215
317 1 -1.1104 12.2281 14.6763 9.51016
322 2 2.2208 8.04716 18.8572 8.11571
319 1 -1.1104 12.2327 20.25 12.2999
318 1 -1.1104 9.44086 17.4627 9.51056
236 1 -1.1104 9.43862 14.6759 12.2996
321 2 2.2208 10.8344 16.0707 8.11536
179 1 -1.1104 12.2327 20.25 6.721
350 2 2.2208 13.6285 21.6449 -0.251852
332 2 2.2208 8.04933 21.6445 -0.251835
328 2 2.2208 5.23922 -3.43701 -0.25576
327 2 2.2208 13.6239 16.0711 -0.252772
342 2 2.2208 5.25316 13.2841 -0.253247
330 2 2.2208 2.45198 -0.650215 -0.255239
336 2 2.2208 10.8181 -3.437 -0.255694
329 2 2.2208 5.24376 2.13664 -0.25478
334 2 2.2208 13.6098 -0.650126 -0.255159
340 2 2.2208 13.6146 4.92364 -0.254419
335 2 2.2208 8.03092 -0.650162 -0.255256
337 2 2.2208 10.8227 2.1367 -0.254774
331 2 2.2208 2.4567 4.92356 -0.254406
333 2 2.2208 8.03564 4.92347 -0.254393
338 2 2.2208 2.46146 10.4974 -0.25372
341 2 2.2208 5.24856 7.71034 -0.25408
339 2 2.2208 8.04038 10.4971 -0.253701
344 2 2.2208 10.8322 13.284 -0.253257
343 2 2.2208 13.6194 10.4974 -0.253705
345 2 2.2208 10.8275 7.71035 -0.254066
348 2 2.2208 5.25753 18.858 -0.252268
346 2 2.2208 2.46589 16.0715 -0.252721
326 2 2.2208 8.04484 16.0708 -0.252766
349 2 2.2208 10.8366 18.8577 -0.252308
351 2 2.2208 5.24385 2.13668 16.4817
352 1 -1.1104 1.05622 -2.04464 17.8756
353 1 -1.1104 1.06085 3.52913 17.8764
354 1 -1.1104 1.05636 -2.04471 15.0867
355 1 -1.1104 1.0609 3.52909 15.0874
356 1 -1.1104 1.05862 0.742244 17.8765
357 2 2.2208 5.24156 -0.650117 19.2708
358 1 -1.1104 1.05853 0.742194 15.0866
359 1 -1.1104 3.84576 -2.04466 17.8761
360 1 -1.1104 3.85033 3.52906 17.8769
361 2 2.2208 2.45443 2.13675 19.2712
362 1 -1.1104 3.8457 -2.04473 15.0861
363 1 -1.1104 3.85021 3.52899 15.0869
364 2 2.2208 2.45216 -0.650177 16.4813
365 1 -1.1104 3.84794 0.742215 17.876
366 1 -1.1104 3.84805 0.74214 15.0871
367 2 2.2208 2.45673 4.92357 16.4821
368 2 2.2208 5.24618 4.92352 19.2716
374 1 -1.1104 6.63737 0.742149 15.0866
370 1 -1.1104 6.63973 3.52898 15.0875
369 1 -1.1104 6.63969 3.52902 17.8764
386 2 2.2208 13.6122 2.1368 24.8502
379 1 -1.1104 3.84801 0.742245 20.666
378 1 -1.1104 3.85025 3.52908 20.6659
381 1 -1.1104 9.44307 20.2494 23.4585
372 1 -1.1104 6.63748 0.742223 17.8766
667 2 2.2208 13.6261 18.8577 24.8527
527 1 -1.1104 1.06092 3.52917 20.6664
380 1 -1.1104 1.05627 -2.04462 20.6655
377 1 -1.1104 6.63517 -2.0446 20.6655
583 2 2.2208 13.6076 -3.43699 24.8493
584 1 -1.1104 9.44067 17.4628 23.4575
554 2 2.2208 13.6076 -3.43685 19.2705
561 2 2.2208 8.0287 -3.43697 19.2703
373 1 -1.1104 6.6351 -2.04463 17.8756
371 1 -1.1104 6.63524 -2.0447 15.0867
464 2 2.2208 13.6193 10.4971 16.4828
389 2 2.2208 10.8228 2.13674 16.4818
390 1 -1.1104 12.214 -2.0445 17.8757
391 1 -1.1104 12.2186 3.52909 17.8764
392 1 -1.1104 12.2141 -2.0445 15.0867
393 1 -1.1104 12.2187 3.5291 15.0875
394 1 -1.1104 12.2164 0.742319 17.8766
395 2 2.2208 10.8205 -0.650055 19.2708
396 2 2.2208 10.8251 4.92353 19.2716
397 1 -1.1104 12.2163 0.742318 15.0866
398 1 -1.1104 9.42465 -2.0446 17.8761
399 1 -1.1104 9.42924 3.52903 17.877
400 2 2.2208 8.03331 2.13673 19.2712
401 1 -1.1104 9.42459 -2.04461 15.0862
402 1 -1.1104 9.42911 3.529 15.087
403 2 2.2208 8.03102 -0.65014 16.4814
405 1 -1.1104 9.42683 0.74223 17.8761
406 1 -1.1104 9.42693 0.742213 15.0871
404 2 2.2208 8.0356 4.92347 16.4821
387 2 2.2208 13.6146 4.92361 16.4821
467 2 2.2208 13.617 7.71037 19.2719
675 2 2.2208 10.8344 16.0707 24.8522
408 1 -1.1104 12.2163 0.742304 20.6655
562 1 -1.1104 9.42918 3.52906 20.6659
407 1 -1.1104 12.214 -2.04453 20.6656
409 1 -1.1104 9.42451 -2.04458 20.665
411 1 -1.1104 9.42692 0.742268 20.666
385 2 2.2208 13.6099 -0.649968 16.4814
637 1 -1.1104 12.2304 17.4629 23.458
412 2 2.2208 5.24848 7.71027 16.4824
413 2 2.2208 5.25318 13.2837 16.4833
414 1 -1.1104 1.06551 9.10284 17.8771
415 1 -1.1104 1.06553 9.10282 15.0881
416 1 -1.1104 1.06326 6.31601 17.8772
417 1 -1.1104 1.06791 11.8896 17.878
418 2 2.2208 5.25091 10.497 19.2723
419 1 -1.1104 1.06311 6.31595 15.0872
420 1 -1.1104 1.06774 11.8896 15.0881
421 1 -1.1104 3.85503 9.10264 17.8776
422 2 2.2208 2.45913 7.71044 19.2719
423 2 2.2208 2.46373 13.284 19.2728
424 1 -1.1104 3.85486 9.10261 15.0876
425 2 2.2208 2.4614 10.4972 16.4828
426 1 -1.1104 3.85258 6.31586 17.8767
427 1 -1.1104 3.85725 11.8894 17.8776
428 1 -1.1104 3.8526 6.31583 15.0877
429 1 -1.1104 3.85731 11.8893 15.0886
430 1 -1.1104 6.64685 11.8892 17.8781
431 1 -1.1104 6.64211 6.31579 17.8772
441 1 -1.1104 6.64676 11.8893 20.667
434 1 -1.1104 6.64197 6.31574 15.0873
442 1 -1.1104 6.64439 9.1025 17.8771
555 2 2.2208 5.23931 -3.43705 16.4809
440 1 -1.1104 1.06784 11.8897 20.6671
432 1 -1.1104 6.64442 9.10249 15.0881
433 1 -1.1104 6.6467 11.8892 15.0881
443 2 2.2208 10.8275 7.71025 16.4824
444 2 2.2208 10.8322 13.2837 16.4833
445 1 -1.1104 12.2234 9.10258 17.8771
446 1 -1.1104 12.2234 9.10261 15.0882
447 1 -1.1104 12.2211 6.31585 17.8773
448 1 -1.1104 12.2258 11.8893 17.8781
449 2 2.2208 10.8299 10.497 19.2723
450 1 -1.1104 12.221 6.31586 15.0872
451 1 -1.1104 12.2257 11.8894 15.088
452 1 -1.1104 9.43398 9.1025 17.8776
453 2 2.2208 8.03802 7.71023 19.2719
454 2 2.2208 8.0427 13.2836 19.2728
455 1 -1.1104 9.43383 9.10248 15.0876
456 2 2.2208 8.04034 10.4969 16.4828
457 1 -1.1104 9.43151 6.31577 17.8767
458 1 -1.1104 9.43625 11.8892 17.8775
459 1 -1.1104 9.43153 6.31577 15.0878
460 1 -1.1104 9.4363 11.8892 15.0886
610 2 2.2208 13.6217 13.2839 19.2728
465 1 -1.1104 12.2235 9.10262 20.6671
461 1 -1.1104 12.2211 6.31587 20.6662
466 1 -1.1104 12.2258 11.8894 20.667
612 1 -1.1104 9.43638 11.8892 20.6675
462 1 -1.1104 9.43165 6.31581 20.6667
463 1 -1.1104 9.43394 9.10252 20.6666
382 2 2.2208 8.04707 18.8574 24.8527
470 2 2.2208 5.25766 18.8568 16.4843
471 1 -1.1104 1.07 14.6764 17.8782
472 1 -1.1104 1.0743 20.2498 17.8792
473 1 -1.1104 1.07009 14.6763 15.089
474 1 -1.1104 1.07443 20.2496 15.0899
475 1 -1.1104 1.07231 17.4631 17.8791
476 2 2.2208 5.25543 16.0704 19.2733
477 2 2.2208 5.2598 21.6434 19.2744
478 1 -1.1104 1.07219 17.463 15.0892
479 1 -1.1104 3.85963 14.676 17.8786
480 1 -1.1104 3.86398 20.2491 17.8796
481 2 2.2208 2.46809 18.8574 19.2739
482 1 -1.1104 3.85949 14.676 15.0886
483 1 -1.1104 3.86391 20.2489 15.0896
484 2 2.2208 2.46592 16.0706 16.4838
485 2 2.2208 2.47026 21.6437 16.4847
486 1 -1.1104 3.86167 17.4626 17.8787
487 1 -1.1104 3.8618 17.4625 15.0895
503 1 -1.1104 6.6513 17.4623 15.089
488 1 -1.1104 6.65363 20.2485 15.09
490 1 -1.1104 6.65347 20.2487 17.8791
489 1 -1.1104 6.64902 14.6758 17.8781
493 1 -1.1104 3.86182 17.4629 20.6686
641 1 -1.1104 6.65355 20.249 20.6691
495 1 -1.1104 1.07216 17.4634 20.6682
501 1 -1.1104 6.64912 14.6758 15.0891
498 1 -1.1104 1.07018 14.6766 20.6681
491 1 -1.1104 1.0745 20.2502 20.6691
524 1 -1.1104 12.2327 20.2494 20.6689
502 1 -1.1104 6.65138 17.4623 17.8791
492 1 -1.1104 6.64914 14.6759 20.668
504 2 2.2208 10.8368 18.857 16.4842
505 1 -1.1104 12.228 14.6761 17.878
506 1 -1.1104 12.2327 20.2496 17.8788
507 1 -1.1104 12.2281 14.6761 15.0891
508 1 -1.1104 12.2328 20.2497 15.09
509 1 -1.1104 12.2304 17.4628 17.879
510 2 2.2208 10.8345 16.0704 19.2733
511 2 2.2208 10.839 21.6436 19.2741
512 1 -1.1104 12.2304 17.4629 15.089
513 1 -1.1104 9.43867 14.6758 17.8786
514 1 -1.1104 9.44323 20.2488 17.8795
515 2 2.2208 8.0472 18.8568 19.2738
516 1 -1.1104 9.43856 14.6758 15.0885
517 1 -1.1104 9.44323 20.2489 15.0894
518 2 2.2208 8.04498 16.0702 16.4838
519 2 2.2208 8.04953 21.643 16.4846
520 1 -1.1104 9.44084 17.4624 17.8785
521 1 -1.1104 9.44096 17.4624 15.0895
525 1 -1.1104 9.44298 20.249 20.6685
526 1 -1.1104 9.43852 14.6759 20.6675
523 1 -1.1104 9.4409 17.4625 20.6685
585 2 2.2208 13.6239 16.0707 16.4838
522 2 2.2208 13.6286 21.6445 16.4845
673 1 -1.1104 12.2281 14.6761 20.668
499 1 -1.1104 12.2326 20.25 26.2478
670 1 -1.1104 9.44077 17.463 26.2474
376 1 -1.1104 6.63978 3.52905 20.6664
530 1 -1.1104 3.84561 -2.0446 20.665
500 2 2.2208 13.6262 18.8575 19.2737
552 2 2.2208 10.8182 -3.43691 16.481
375 1 -1.1104 1.05848 0.742297 20.6655
529 1 -1.1104 6.63736 0.74225 20.6655
531 2 2.2208 5.24384 2.13674 22.0607
532 1 -1.1104 1.05611 -2.04459 23.4545
533 1 -1.1104 1.0608 3.52919 23.4554
534 1 -1.1104 1.05617 -2.04468 26.2444
535 1 -1.1104 1.06082 3.52913 26.2453
536 1 -1.1104 1.05851 0.74228 23.4555
537 2 2.2208 5.24149 -0.650113 24.8496
538 1 -1.1104 1.05836 0.742229 26.2444
539 1 -1.1104 3.84567 -2.0446 23.4549
540 1 -1.1104 3.8503 3.52909 23.4559
541 2 2.2208 2.45434 2.13674 24.8501
542 1 -1.1104 3.84554 -2.04463 26.2439
543 1 -1.1104 3.85019 3.52906 26.2448
544 2 2.2208 2.45207 -0.650094 22.0602
545 1 -1.1104 3.84786 0.742267 23.4549
546 1 -1.1104 3.8479 0.7422 26.2449
547 2 2.2208 5.24619 4.92353 24.8505
548 2 2.2208 2.45677 4.92363 22.061
551 1 -1.1104 6.63729 0.742211 26.2444
560 1 -1.1104 6.6351 -2.04462 26.2444
550 1 -1.1104 6.63974 3.52902 26.2453
553 1 -1.1104 6.63743 0.742254 23.4555
556 2 2.2208 2.44982 -3.43701 19.2703
388 2 2.2208 13.6123 2.13683 19.2712
640 2 2.2208 8.04492 16.0704 22.0628
549 1 -1.1104 6.63503 -2.04459 23.4544
586 2 2.2208 13.6099 -0.650034 22.0603
582 2 2.2208 13.6147 4.92364 22.061
559 1 -1.1104 6.6397 3.52907 23.4554
410 1 -1.1104 12.2188 3.52911 20.6664
564 2 2.2208 10.8228 2.13677 22.0607
565 1 -1.1104 12.2139 -2.04458 23.4546
566 1 -1.1104 12.2187 3.52913 23.4553
567 1 -1.1104 12.214 -2.04462 26.2445
568 1 -1.1104 12.2187 3.5291 26.2453
569 1 -1.1104 12.2164 0.742301 23.4555
570 2 2.2208 10.8204 -0.650087 24.8497
571 1 -1.1104 12.2162 0.742253 26.2444
572 1 -1.1104 9.42458 -2.04458 23.455
573 1 -1.1104 9.42927 3.52907 23.4559
574 2 2.2208 8.03328 2.13672 24.8501
575 1 -1.1104 9.42447 -2.04461 26.2439
576 1 -1.1104 9.42916 3.52905 26.2448
577 2 2.2208 8.03098 -0.650081 22.0602
578 1 -1.1104 9.42681 0.742266 23.455
579 1 -1.1104 9.42686 0.742235 26.2449
580 2 2.2208 10.8252 4.92356 24.8505
581 2 2.2208 8.03567 4.92352 22.061
558 2 2.2208 2.44975 -3.43699 24.8492
528 2 2.2208 5.23923 -3.43697 22.0597
563 2 2.2208 8.02867 -3.43696 24.8492
643 1 -1.1104 6.65129 17.4629 23.458
649 1 -1.1104 6.65328 20.2496 23.4581
438 1 -1.1104 1.06567 9.10291 20.6671
437 1 -1.1104 6.64455 9.10255 20.6671
435 1 -1.1104 3.85499 9.10268 20.6666
587 1 -1.1104 1.06323 6.31605 20.6662
468 1 -1.1104 12.2302 17.4632 26.2468
436 1 -1.1104 3.85271 6.3159 20.6667
439 1 -1.1104 3.85741 11.8895 20.6675
588 2 2.2208 5.24859 7.71032 22.0614
589 2 2.2208 5.25321 13.2839 22.0623
590 1 -1.1104 1.0656 9.10299 23.456
591 1 -1.1104 1.06567 9.10303 26.2459
592 1 -1.1104 1.0633 6.31608 23.4562
593 1 -1.1104 1.068 11.8899 23.457
594 2 2.2208 5.25094 10.4972 24.8512
595 1 -1.1104 1.0632 6.31608 26.2451
596 1 -1.1104 1.06785 11.89 26.246
597 1 -1.1104 3.85511 9.10275 23.4565
598 2 2.2208 2.45915 7.7105 24.8508
599 2 2.2208 2.46374 13.2843 24.8517
600 1 -1.1104 3.855 9.1028 26.2455
601 2 2.2208 2.4615 10.4973 22.0618
602 1 -1.1104 3.85264 6.31592 23.4557
603 1 -1.1104 3.85729 11.8896 23.4565
604 1 -1.1104 3.85269 6.31591 26.2456
605 1 -1.1104 3.85739 11.8897 26.2464
609 1 -1.1104 6.64447 9.10262 23.456
615 1 -1.1104 6.64218 6.31585 23.4562
614 1 -1.1104 6.64209 6.31584 26.2451
384 2 2.2208 10.8367 18.8572 22.0632
613 1 -1.1104 6.64208 6.3158 20.6662
606 1 -1.1104 6.64455 9.10265 26.246
608 1 -1.1104 6.64674 11.8895 26.2459
671 2 2.2208 10.8389 21.6441 24.8531
617 2 2.2208 13.6217 13.2841 24.8517
642 1 -1.1104 9.44286 20.2498 26.2473
616 2 2.2208 13.6194 10.4972 22.0618
638 2 2.2208 13.6171 7.71047 24.8508
607 1 -1.1104 6.64689 11.8894 23.457
618 1 -1.1104 9.43406 9.10259 23.4566
619 1 -1.1104 12.2257 11.8896 26.2459
620 1 -1.1104 12.2211 6.31594 26.2451
621 2 2.2208 10.8299 10.4971 24.8512
622 1 -1.1104 12.2259 11.8894 23.457
623 1 -1.1104 12.2212 6.31591 23.4562
624 1 -1.1104 12.2235 9.10274 26.246
625 1 -1.1104 12.2235 9.10268 23.456
626 1 -1.1104 9.43636 11.8894 26.2464
627 1 -1.1104 9.43165 6.31583 26.2457
628 1 -1.1104 9.43626 11.8893 23.4565
629 1 -1.1104 9.43159 6.31584 23.4557
630 2 2.2208 8.04041 10.497 22.0618
631 1 -1.1104 9.43396 9.10264 26.2455
632 2 2.2208 8.04267 13.2839 24.8517
633 2 2.2208 8.03807 7.7103 24.8509
634 2 2.2208 10.8276 7.7103 22.0614
635 2 2.2208 10.8322 13.2838 22.0622
669 1 -1.1104 12.2281 14.6764 26.2469
674 1 -1.1104 12.2303 17.4628 20.6679
557 1 -1.1104 12.228 14.6762 23.4569
497 1 -1.1104 3.86376 20.2495 20.6687
496 1 -1.1104 6.65118 17.4626 20.6681
494 1 -1.1104 3.85949 14.6762 20.6676
651 1 -1.1104 6.64907 14.6763 26.2469
648 1 -1.1104 6.64896 14.6762 23.457
652 1 -1.1104 6.65345 20.25 26.2478
644 1 -1.1104 3.86398 20.2501 23.4585
645 1 -1.1104 3.85963 14.6764 23.4575
646 1 -1.1104 1.07455 20.2514 26.2479
647 1 -1.1104 1.07217 17.4642 26.247
653 2 2.2208 2.46593 16.071 22.0629
654 2 2.2208 2.47026 21.6446 22.0639
655 1 -1.1104 3.8616 17.4633 23.4576
656 1 -1.1104 1.07236 17.4638 23.458
657 1 -1.1104 3.85945 14.6766 26.2465
658 1 -1.1104 3.86174 17.4636 26.2474
659 2 2.2208 2.46808 18.8583 24.8528
660 1 -1.1104 3.86376 20.2507 26.2475
661 2 2.2208 5.25758 18.8573 22.0634
662 1 -1.1104 1.07003 14.6768 23.4571
663 1 -1.1104 1.07431 20.2508 23.4582
664 2 2.2208 5.25537 16.0709 24.8522
665 2 2.2208 5.25975 21.6446 24.8533
666 1 -1.1104 1.07017 14.677 26.2469
469 1 -1.1104 9.43844 14.6762 26.2464
672 2 2.2208 8.04934 21.6436 22.0638
383 2 2.2208 10.8181 -3.43694 22.0598
650 1 -1.1104 6.65108 17.4632 26.2469
636 2 2.2208 13.6285 21.6442 22.0636
639 1 -1.1104 9.43862 14.6761 23.4575
611 1 -1.1104 12.2325 20.2497 23.4578
668 2 2.2208 13.6239 16.0708 22.0627
689 2 2.2208 10.8205 -0.650084 13.6919
681 2 2.2208 5.2461 4.92344 13.6926
683 2 2.2208 2.45441 2.13665 13.6923
686 2 2.2208 13.6122 2.13684 13.6923
678 2 2.2208 8.0288 -3.43703 13.6915
684 2 2.2208 10.825 4.9235 13.6926
690 2 2.2208 2.46366 13.284 13.6938
692 2 2.2208 5.2508 10.497 13.6933
687 2 2.2208 13.6077 -3.43682 13.6916
691 2 2.2208 2.459 7.71039 13.6929
676 2 2.2208 8.04726 18.8568 13.6947
693 2 2.2208 8.04266 13.2836 13.6938
694 2 2.2208 10.8298 10.497 13.6934
695 2 2.2208 13.6169 7.7104 13.6929
680 2 2.2208 2.44991 -3.43713 13.6915
677 2 2.2208 13.6263 18.8577 13.6947
700 2 2.2208 10.8392 21.6438 13.695
682 2 2.2208 5.24159 -0.650256 13.6919
685 2 2.2208 8.03791 7.7102 13.693
679 2 2.2208 13.6216 13.284 13.6938
698 2 2.2208 5.25991 21.6431 13.6951
697 2 2.2208 2.46812 18.8572 13.6947
696 2 2.2208 5.25544 16.0703 13.6943
699 2 2.2208 10.8345 16.0705 13.6943
688 2 2.2208 8.03326 2.13663 13.6923
701 2 2.2208 5.26216 24.4315 5.32686
702 2 2.2208 5.26684 30.0052 5.32711
703 1 -1.1104 1.07903 25.8267 1.14318
704 1 -1.1104 1.07896 25.8262 3.93252
705 1 -1.1104 1.0768 23.039 1.14315
706 1 -1.1104 1.08154 28.6148 1.1438
707 2 2.2208 5.26451 27.2193 2.53812
708 1 -1.1104 1.07674 23.0387 3.93199
709 1 -1.1104 1.08142 28.6141 3.93247
710 1 -1.1104 3.8685 25.8254 1.14344
711 2 2.2208 2.47266 24.4332 2.53777
712 2 2.2208 2.47752 30.0088 2.53845
713 1 -1.1104 3.86849 25.8248 3.93223
714 2 2.2208 2.47495 27.2198 5.32705
715 1 -1.1104 3.86609 23.038 1.14279
716 1 -1.1104 3.87076 28.613 1.14359
717 1 -1.1104 3.86613 23.0377 3.93226
718 1 -1.1104 3.87061 28.612 3.93259
719 1 -1.1104 6.66049 28.6112 1.14384
722 1 -1.1104 6.65576 23.0368 3.9319
733 1 -1.1104 6.65806 25.8235 3.93253
725 1 -1.1104 6.66026 28.6084 6.72185
730 1 -1.1104 3.86828 25.8236 6.72167
724 1 -1.1104 3.87077 28.6102 6.72158
729 1 -1.1104 6.65575 23.0361 6.72162
731 1 -1.1104 1.07902 25.8252 6.72148
721 1 -1.1104 6.65574 23.0371 1.14311
723 1 -1.1104 1.08092 28.6124 6.72175
972 1 -1.1104 6.67376 47.9806 9.38892
848 2 2.2208 10.8415 43.9932 8.15349
728 1 -1.1104 6.658 25.8241 1.14315
720 1 -1.1104 6.66055 28.6101 3.93242
734 2 2.2208 10.8415 24.4311 5.3271
735 2 2.2208 10.8466 30.0043 5.32783
736 1 -1.1104 12.2375 25.8237 1.14305
737 1 -1.1104 12.2377 25.8236 3.93305
738 1 -1.1104 12.2351 23.037 1.14328
739 1 -1.1104 12.2403 28.6104 1.14424
740 2 2.2208 10.844 27.2181 2.53838
741 1 -1.1104 12.2351 23.0369 3.93195
742 1 -1.1104 12.2404 28.61 3.93271
743 1 -1.1104 9.44787 25.8235 1.1436
744 2 2.2208 8.05177 24.4314 2.53779
745 2 2.2208 8.05662 30.0053 2.5387
746 1 -1.1104 9.44793 25.823 3.93222
747 2 2.2208 8.05425 27.2174 5.32718
748 1 -1.1104 9.44529 23.0367 1.14267
749 1 -1.1104 9.4502 28.6102 1.14359
750 1 -1.1104 9.44544 23.0365 3.93245
751 1 -1.1104 9.45039 28.6095 3.93309
755 1 -1.1104 9.45056 28.608 6.72172
754 1 -1.1104 9.44795 25.8222 6.72212
906 1 -1.1104 12.2352 23.0367 6.72203
757 1 -1.1104 12.2404 28.6096 6.72296
880 2 2.2208 13.6232 43.8755 5.27011
753 2 2.2208 13.6363 30.0058 2.53904
759 2 2.2208 13.6337 27.2187 5.32763
758 1 -1.1104 9.44553 23.0359 6.72123
756 1 -1.1104 12.2377 25.8232 6.72169
760 2 2.2208 5.27178 35.5801 5.32656
761 1 -1.1104 1.08396 31.4033 1.14385
762 1 -1.1104 1.09 36.9832 1.14393
763 1 -1.1104 1.08355 31.4022 3.93274
764 1 -1.1104 1.08856 36.9809 3.9321
765 1 -1.1104 1.08682 34.1926 1.1443
766 2 2.2208 5.26945 32.7948 2.53886
767 2 2.2208 5.27508 38.3735 2.53775
768 1 -1.1104 1.08647 34.1912 3.93249
769 1 -1.1104 3.87326 31.401 1.14405
770 1 -1.1104 3.87847 36.9793 1.14393
771 2 2.2208 2.48326 35.587 2.53879
772 1 -1.1104 3.87321 31.3995 3.93258
773 1 -1.1104 3.87814 36.976 3.93164
774 2 2.2208 2.4799 32.7954 5.32704
775 2 2.2208 2.48612 38.3739 5.32545
776 1 -1.1104 3.87581 34.1896 1.14418
777 1 -1.1104 3.87502 34.1873 3.93235
779 1 -1.1104 6.66279 31.3985 1.14406
781 1 -1.1104 6.66828 36.9753 1.14379
780 1 -1.1104 6.66551 34.1835 3.93231
785 1 -1.1104 1.08363 31.4001 6.72159
789 1 -1.1104 6.66263 31.3968 3.93268
782 1 -1.1104 6.66534 34.1865 1.14437
941 1 -1.1104 6.66745 36.9635 6.72003
787 1 -1.1104 1.08896 36.9766 6.72066
778 1 -1.1104 6.66654 36.9704 3.93124
938 1 -1.1104 6.66436 34.1791 6.72103
786 1 -1.1104 3.87536 34.1835 6.7213
937 1 -1.1104 1.08531 34.188 6.72136
784 1 -1.1104 3.87642 36.9703 6.72008
752 2 2.2208 13.6311 24.4319 2.53793
1036 2 2.2208 5.28012 41.1695 -0.250394
808 2 2.2208 13.6392 32.7926 5.32838
790 2 2.2208 10.8516 35.5774 5.32779
791 1 -1.1104 12.2427 31.397 1.14406