ITEM: TIMESTEP
343
ITEM: NUMBER OF ATOMS
17684
ITEM: BOX BOUNDS pp pp pp
-2.7717828229332220e-01 2.7617178282293317e+01
-3.4472205766305355e+00 3.3152722057663055e+02
-2.7717827830221448e-01 2.7617178278302212e+01
ITEM: ATOMS id type q x y z
1 2 2.2208 5.26995 2.13764 5.31708
2 1 -1.1104 1.08311 -2.05047 1.13239
3 1 -1.1104 1.08663 3.53217 1.13277
4 1 -1.1104 1.08313 -2.05046 3.9222
5 1 -1.1104 1.08666 3.53212 3.92258
6 1 -1.1104 1.08489 0.740845 1.13296
7 2 2.2208 5.26819 -0.65367 2.52747
8 1 -1.1104 1.08484 0.740815 3.92202
9 1 -1.1104 3.87259 -2.05044 1.13282
10 1 -1.1104 3.87611 3.53216 1.13319
11 2 2.2208 2.48049 2.13761 2.5276
12 1 -1.1104 3.87256 -2.05047 3.92189
13 1 -1.1104 3.87609 3.5321 3.92224
14 2 2.2208 2.47874 -0.653682 5.31687
15 2 2.2208 2.48225 4.9289 5.31724
16 1 -1.1104 3.87431 0.740848 1.13263
17 1 -1.1104 3.87436 0.74082 3.92245
18 2 2.2208 5.27173 4.92895 2.52781
31 1 -1.1104 6.66378 0.7409 1.13304
32 1 -1.1104 6.66554 3.5322 1.1328
30 1 -1.1104 6.66558 3.53216 3.92264
29 1 -1.1104 6.66377 0.740856 3.92211
23 1 -1.1104 3.87256 -2.05047 6.71173
19 1 -1.1104 1.08487 0.740814 6.71185
21 1 -1.1104 3.87611 3.53213 6.71207
205 2 2.2208 13.64 4.92951 10.896
28 1 -1.1104 6.66206 -2.05044 3.92233
84 2 2.2208 5.26642 -3.44496 5.31672
20 1 -1.1104 1.08306 -2.05045 6.71128
52 1 -1.1104 6.66197 -2.05041 6.71138
327 2 2.2208 8.06859 16.0939 -0.26161
27 1 -1.1104 6.662 -2.05044 1.13248
174 1 -1.1104 9.46438 17.4898 12.2904
33 2 2.2208 10.8488 2.13782 5.31703
34 1 -1.1104 12.2408 -2.05035 1.13243
35 1 -1.1104 12.2444 3.53238 1.1327
36 1 -1.1104 12.2409 -2.05035 3.92227
37 1 -1.1104 12.2445 3.53239 3.92256
38 1 -1.1104 12.2426 0.74101 1.13298
39 2 2.2208 10.847 -0.653559 2.52745
40 1 -1.1104 12.2426 0.741029 3.92201
41 1 -1.1104 9.45145 -2.05038 1.13285
42 1 -1.1104 9.45502 3.53228 1.13318
43 2 2.2208 8.0594 2.13771 2.52763
44 1 -1.1104 9.45142 -2.05039 3.92192
45 1 -1.1104 9.455 3.53229 3.92222
46 2 2.2208 8.05761 -0.653606 5.31695
47 1 -1.1104 9.45319 0.740941 1.13263
48 1 -1.1104 9.45323 0.740944 3.92247
49 2 2.2208 8.06118 4.92904 5.31723
50 2 2.2208 10.8506 4.92916 2.52773
317 2 2.2208 10.8601 18.8871 10.8961
54 1 -1.1104 12.2426 0.741066 6.71186
60 1 -1.1104 9.45503 3.53233 6.71205
57 1 -1.1104 9.45144 -2.05037 6.71177
324 2 2.2208 10.8622 21.6781 8.10672
26 2 2.2208 13.6495 18.8873 8.10686
55 1 -1.1104 6.66553 3.5322 6.71168
175 2 2.2208 8.07055 18.8858 8.10664
56 1 -1.1104 12.2408 -2.05028 6.71132
51 1 -1.1104 9.45319 0.740988 6.71153
62 2 2.2208 5.2735 7.72024 5.31741
63 2 2.2208 5.27707 13.3027 5.31749
64 1 -1.1104 1.0902 9.11476 1.13314
65 1 -1.1104 1.09018 9.11471 3.92296
66 1 -1.1104 1.08844 6.32347 1.13334
67 1 -1.1104 1.09197 11.906 1.13353
68 2 2.2208 5.27532 10.5115 2.52807
69 1 -1.1104 1.08838 6.3234 3.92241
70 1 -1.1104 1.09193 11.906 3.92268
71 1 -1.1104 3.8797 9.1147 1.13354
72 2 2.2208 2.48404 7.72022 2.52797
73 2 2.2208 2.48761 13.3027 2.52805
74 1 -1.1104 3.87964 9.11466 3.9226
75 2 2.2208 2.48577 10.5115 5.31754
76 1 -1.1104 3.87788 6.32343 1.13298
77 1 -1.1104 3.8815 11.9059 1.13319
78 1 -1.1104 3.87789 6.32339 3.92283
79 1 -1.1104 3.88143 11.9059 3.92305
88 1 -1.1104 6.67095 11.906 3.92259
83 1 -1.1104 3.88137 11.9059 6.7121
82 1 -1.1104 1.08838 6.32342 6.71225
92 1 -1.1104 6.66916 9.11474 3.92296
91 1 -1.1104 6.66735 6.32348 3.9224
85 1 -1.1104 6.66735 6.32349 6.71225
81 1 -1.1104 1.0901 9.11473 6.71206
233 1 -1.1104 3.87963 9.11466 6.71245
234 1 -1.1104 3.87783 6.32341 6.71188
314 2 2.2208 13.6436 10.5126 10.8961
90 1 -1.1104 6.66918 9.11475 1.13311
89 1 -1.1104 6.671 11.9059 1.13355
204 2 2.2208 13.6437 10.5122 5.31735
93 1 -1.1104 6.66738 6.32347 1.13336
94 2 2.2208 10.8524 7.72057 5.31729
95 2 2.2208 10.8561 13.3033 5.31744
96 1 -1.1104 12.2481 9.11509 1.13293
97 1 -1.1104 12.2481 9.11516 3.92281
98 1 -1.1104 12.2463 6.32374 1.13323
99 1 -1.1104 12.25 11.9064 1.13344
100 2 2.2208 10.8543 10.5118 2.52794
101 1 -1.1104 12.2463 6.3238 3.92227
102 1 -1.1104 12.2499 11.9065 3.92246
103 1 -1.1104 9.45867 9.11488 1.13345
104 2 2.2208 8.06301 7.72035 2.52792
105 2 2.2208 8.06666 13.3028 2.52802
106 1 -1.1104 9.45863 9.11496 3.92246
107 2 2.2208 8.06477 10.5117 5.31747
108 1 -1.1104 9.45682 6.32361 1.13289
109 1 -1.1104 9.4605 11.9061 1.13304
110 1 -1.1104 9.45685 6.32361 3.92275
111 1 -1.1104 9.46048 11.9062 3.92298
179 2 2.2208 13.6456 13.3034 2.52797
114 1 -1.1104 12.248 9.11533 6.71182
112 1 -1.1104 12.2499 11.9068 6.71237
115 1 -1.1104 9.46039 11.9064 6.71195
263 1 -1.1104 12.2463 6.32386 6.71211
117 1 -1.1104 9.45861 9.11504 6.71234
118 2 2.2208 13.6455 13.3039 8.10684
139 2 2.2208 13.6495 18.8861 2.52795
120 2 2.2208 5.28094 18.885 5.31718
121 1 -1.1104 1.09378 14.6972 1.1331
122 1 -1.1104 1.09749 20.2794 1.13276
123 1 -1.1104 1.0937 14.6972 3.92291
124 1 -1.1104 1.09748 20.2795 3.92255
125 1 -1.1104 1.09557 17.4883 1.13323
126 2 2.2208 5.27899 16.0937 2.5279
127 2 2.2208 5.28296 21.6756 2.52764
128 1 -1.1104 1.09554 17.4884 3.92239
129 1 -1.1104 3.88325 14.697 1.13345
130 1 -1.1104 3.88712 20.2789 1.13308
131 2 2.2208 2.49133 18.8849 2.52774
132 1 -1.1104 3.88324 14.697 3.92253
133 1 -1.1104 3.88706 20.2791 3.92217
134 2 2.2208 2.48938 16.0939 5.31736
135 2 2.2208 2.49326 21.6762 5.31706
136 1 -1.1104 3.88516 17.488 1.13286
137 1 -1.1104 3.88511 17.4881 3.92273
149 1 -1.1104 6.6728 14.6971 3.92294
146 1 -1.1104 6.67475 17.488 1.13329
143 1 -1.1104 3.88708 20.2794 6.71197
138 1 -1.1104 3.88319 14.6972 6.71237
141 1 -1.1104 6.67285 14.697 1.13301
148 1 -1.1104 6.67675 20.2788 1.13266
145 1 -1.1104 6.67275 14.6973 6.71191
287 1 -1.1104 1.0955 17.4886 6.71212
142 1 -1.1104 3.88509 17.4883 6.71174
144 1 -1.1104 1.09365 14.6973 6.71201
294 1 -1.1104 1.09738 20.2798 6.71165
348 2 2.2208 5.28096 18.8846 -0.261784
349 2 2.2208 2.48946 16.0938 -0.261584
180 2 2.2208 10.8451 -3.44477 10.8956
147 1 -1.1104 6.67472 17.4882 3.9223
150 1 -1.1104 6.67679 20.2791 3.92267
151 2 2.2208 10.8601 18.886 5.31738
152 1 -1.1104 12.2519 14.6977 1.13297
153 1 -1.1104 12.2559 20.2799 1.13279
154 1 -1.1104 12.2518 14.6979 3.92299
155 1 -1.1104 12.256 20.2805 3.92299
156 1 -1.1104 12.2539 17.4889 1.13343
157 2 2.2208 10.8581 16.0944 2.52794
158 2 2.2208 10.8622 21.6766 2.52782
159 1 -1.1104 12.2538 17.4892 3.92244
160 1 -1.1104 9.4624 14.6973 1.13346
161 1 -1.1104 9.4664 20.2793 1.13327
162 2 2.2208 8.07057 18.885 2.52778
163 1 -1.1104 9.46232 14.6975 3.92246
164 1 -1.1104 9.46636 20.2796 3.92225
165 2 2.2208 8.06853 16.0942 5.31737
166 2 2.2208 8.07266 21.6764 5.31718
167 1 -1.1104 9.46433 17.4883 1.13284
168 1 -1.1104 9.46435 17.4886 3.9229
171 1 -1.1104 9.46428 17.489 6.71178
176 2 2.2208 13.6516 21.6782 5.31745
80 2 2.2208 8.05588 -3.44494 2.52728
178 2 2.2208 10.8452 -3.4449 5.31674
24 1 -1.1104 3.87429 0.740849 6.71153
25 1 -1.1104 1.08658 3.53213 6.71167
181 2 2.2208 5.26987 2.13777 10.896
182 1 -1.1104 1.0829 -2.05033 12.2902
183 1 -1.1104 1.08649 3.53229 12.2906
184 1 -1.1104 1.08303 -2.0504 9.50112
185 1 -1.1104 1.08659 3.53219 9.5015
186 1 -1.1104 1.08477 0.740972 12.2908
187 2 2.2208 5.26813 -0.65363 8.10637
188 2 2.2208 5.27169 4.92897 8.10668
189 1 -1.1104 1.08476 0.74091 9.50093
190 1 -1.1104 3.87242 -2.05032 12.2906
191 1 -1.1104 3.87603 3.5323 12.291
192 2 2.2208 2.48045 2.13766 8.10651
193 1 -1.1104 3.87245 -2.05038 9.5008
194 1 -1.1104 3.87601 3.5322 9.50114
195 2 2.2208 2.47861 -0.65358 10.8958
196 2 2.2208 2.48216 4.92902 10.8962
197 1 -1.1104 3.87418 0.740998 12.2904
198 1 -1.1104 3.87431 0.740899 9.50138
208 1 -1.1104 6.66555 3.53227 9.50155
59 1 -1.1104 6.6638 0.740893 6.71194
332 2 2.2208 5.27718 13.3027 -0.261439
342 2 2.2208 5.27353 7.72028 -0.261477
86 2 2.2208 13.6474 16.096 10.8962
329 2 2.2208 8.07259 21.6756 -0.261842
321 1 -1.1104 9.46436 17.4895 9.50173
53 1 -1.1104 12.2444 3.53247 6.71159
207 1 -1.1104 6.66184 -2.05026 12.2902
211 1 -1.1104 6.66195 -2.05036 9.50121
209 1 -1.1104 6.66369 0.741053 12.2908
210 1 -1.1104 6.66371 0.740965 9.501
119 2 2.2208 13.6475 16.0951 5.31747
238 1 -1.1104 12.2538 17.4903 9.50124
212 1 -1.1104 6.66544 3.53239 12.2906
213 2 2.2208 10.8488 2.13798 10.8959
214 1 -1.1104 12.2407 -2.05014 12.2902
215 1 -1.1104 12.2444 3.53267 12.2904
216 1 -1.1104 12.2408 -2.05024 9.50117
217 1 -1.1104 12.2444 3.53256 9.50142
218 1 -1.1104 12.2426 0.74123 12.2908
219 2 2.2208 10.847 -0.653499 8.10635
220 1 -1.1104 12.2426 0.741172 9.5009
221 1 -1.1104 9.45133 -2.05022 12.2906
222 1 -1.1104 9.45497 3.53251 12.2909
223 2 2.2208 8.05938 2.13777 8.10652
224 1 -1.1104 9.45134 -2.0503 9.50081
225 1 -1.1104 9.45496 3.53244 9.50107
226 2 2.2208 8.05753 -0.653486 10.8958
227 2 2.2208 8.06112 4.9292 10.8961
228 1 -1.1104 9.4531 0.741167 12.2904
229 1 -1.1104 9.4532 0.741056 9.50138
230 2 2.2208 10.8506 4.92928 8.10658
346 2 2.2208 8.06485 10.5116 -0.261455
330 2 2.2208 13.6516 21.677 -0.261789
343 2 2.2208 2.48585 10.5116 -0.261387
237 1 -1.1104 9.4664 20.2809 9.50103
232 1 -1.1104 1.09187 11.906 6.71248
260 1 -1.1104 6.67091 11.9061 6.71247
239 2 2.2208 5.27343 7.72039 10.8963
240 2 2.2208 5.27702 13.303 10.8963
241 1 -1.1104 1.09 9.11494 12.2909
242 1 -1.1104 1.0901 9.11481 9.50185
243 1 -1.1104 1.0883 6.3236 12.2911
244 1 -1.1104 1.09181 11.9063 12.2913
245 2 2.2208 5.27522 10.5116 8.10695
246 1 -1.1104 1.08828 6.3235 9.50132
247 1 -1.1104 1.09181 11.9061 9.50153
248 1 -1.1104 3.87955 9.11488 12.2913
249 2 2.2208 2.48396 7.72023 8.10686
250 2 2.2208 2.48752 13.3028 8.10694
251 1 -1.1104 3.87954 9.11479 9.50148
252 2 2.2208 2.48569 10.5116 10.8964
253 1 -1.1104 3.87775 6.32361 12.2908
254 1 -1.1104 3.88133 11.9062 12.2909
255 1 -1.1104 3.87783 6.32347 9.50171
256 1 -1.1104 3.88135 11.9061 9.5019
257 1 -1.1104 6.66909 9.11492 9.50182
264 1 -1.1104 6.66728 6.32369 12.2911
262 1 -1.1104 6.66905 9.11507 12.2908
266 1 -1.1104 6.66727 6.32362 9.50128
265 1 -1.1104 6.67085 11.9063 9.5014
116 1 -1.1104 6.66908 9.11482 6.71198
261 1 -1.1104 6.67088 11.9064 12.2912
61 2 2.2208 2.47688 -3.44492 8.10613
316 2 2.2208 8.06853 16.0948 10.8961
325 2 2.2208 8.07268 21.6775 10.8958
113 1 -1.1104 9.45678 6.32372 6.71176
22 2 2.2208 5.26628 -3.44485 10.8956
289 2 2.2208 13.6418 7.72087 8.10664
267 1 -1.1104 9.46039 11.9066 9.5018
268 1 -1.1104 9.45678 6.32378 9.50163
269 1 -1.1104 9.46037 11.9068 12.2907
270 1 -1.1104 9.45671 6.32392 12.2906
271 2 2.2208 8.06471 10.512 10.8963
272 1 -1.1104 9.45852 9.11522 9.5013
273 2 2.2208 8.06658 13.3032 8.10686
274 2 2.2208 8.06294 7.72047 8.10678
275 2 2.2208 10.8523 7.72081 10.8961
276 2 2.2208 10.856 13.3038 10.8962
277 1 -1.1104 12.2479 9.11565 12.2906
278 1 -1.1104 12.248 9.11549 9.50166
279 1 -1.1104 12.2462 6.32411 12.291
280 1 -1.1104 12.2498 11.9072 12.2911
281 2 2.2208 10.8542 10.5121 8.1068
282 1 -1.1104 12.2462 6.32402 9.50113
283 1 -1.1104 12.2498 11.9071 9.50128
284 1 -1.1104 9.45853 9.11534 12.2911
347 2 2.2208 2.49332 21.6757 -0.261838
203 2 2.2208 8.05578 -3.44488 8.10619
140 1 -1.1104 6.67474 17.4885 6.71223
286 1 -1.1104 6.67275 14.6976 9.50176
331 2 2.2208 13.6475 16.0946 -0.26158
206 1 -1.1104 12.2538 17.4908 12.2911
291 1 -1.1104 6.67476 17.4891 12.2909
231 2 2.2208 13.6347 -3.44486 2.52724
290 1 -1.1104 6.67278 14.6977 12.2906
285 1 -1.1104 6.67683 20.28 9.50149
295 1 -1.1104 1.09544 17.489 12.2908
296 2 2.2208 2.48936 16.0943 10.8961
297 2 2.2208 2.49314 21.6768 10.8957
298 1 -1.1104 3.88511 17.4888 12.2904
299 1 -1.1104 3.88703 20.2799 12.2906
300 1 -1.1104 3.88318 14.6975 12.2911
301 1 -1.1104 1.09737 20.2801 9.50125
302 1 -1.1104 1.09548 17.4888 9.50116
303 2 2.2208 5.28294 21.6764 8.10644
304 1 -1.1104 1.09361 14.6975 9.50173
305 2 2.2208 5.27895 16.0941 8.10672
306 1 -1.1104 1.0973 20.2804 12.2903
307 1 -1.1104 1.09362 14.6977 12.2907
308 2 2.2208 5.28092 18.8856 10.8959
309 1 -1.1104 3.88702 20.2797 9.50091
310 2 2.2208 2.49127 18.8854 8.10653
311 1 -1.1104 3.88508 17.4886 9.5015
312 1 -1.1104 3.88318 14.6973 9.50133
322 1 -1.1104 6.67683 20.2803 12.2902
288 1 -1.1104 6.67472 17.4888 9.50107
333 2 2.2208 13.6438 10.512 -0.261591
58 2 2.2208 13.6515 21.6801 10.8961
200 2 2.2208 13.6346 -3.4448 8.10613
87 1 -1.1104 9.46227 14.6981 9.50125
315 2 2.2208 10.858 16.0951 8.10681
323 1 -1.1104 9.46232 14.6983 12.2911
170 1 -1.1104 6.67673 20.2795 6.71158
173 1 -1.1104 9.46232 14.6977 6.71241
172 1 -1.1104 12.2539 17.4897 6.71248
293 1 -1.1104 12.2558 20.2812 6.71186
169 1 -1.1104 9.46649 20.2803 6.71233
318 1 -1.1104 12.2517 14.6983 6.71192
319 1 -1.1104 9.46648 20.2814 12.2909
320 1 -1.1104 12.2518 14.6987 9.5018
292 1 -1.1104 12.2559 20.2829 12.2904
313 1 -1.1104 12.256 20.2822 9.50185
259 1 -1.1104 12.2518 14.6989 12.2906
328 2 2.2208 10.8601 18.8853 -0.261707
199 2 2.2208 13.6382 2.13797 8.1064
202 2 2.2208 13.6419 7.72065 2.52777
236 2 2.2208 13.6382 2.13787 2.52752
235 2 2.2208 13.6401 4.92931 5.3171
201 2 2.2208 13.6364 -0.65334 10.8957
258 2 2.2208 13.6364 -0.653471 5.31683
177 2 2.2208 2.477 -3.44498 2.52722
344 2 2.2208 10.8562 13.3031 -0.26153
335 2 2.2208 2.47873 -0.653651 -0.262014
334 2 2.2208 5.26642 -3.44494 -0.262194
336 2 2.2208 2.48227 4.929 -0.261646
326 2 2.2208 10.8453 -3.44489 -0.262189
340 2 2.2208 10.8488 2.13782 -0.261843
338 2 2.2208 5.26993 2.1377 -0.261781
339 2 2.2208 8.06119 4.92907 -0.261673
341 2 2.2208 8.05759 -0.653588 -0.261969
345 2 2.2208 10.8525 7.7205 -0.261604
337 2 2.2208 13.6364 -0.653501 -0.262062
350 2 2.2208 13.6401 4.92926 -0.261786
351 2 2.2208 5.26978 2.13789 16.4749
352 1 -1.1104 1.08283 -2.05035 17.869
353 1 -1.1104 1.08647 3.53236 17.8694
354 1 -1.1104 1.08289 -2.05032 15.08
355 1 -1.1104 1.0865 3.53234 15.0804
356 1 -1.1104 1.08468 0.741001 17.8697
357 2 2.2208 5.26796 -0.653474 19.2641
358 2 2.2208 5.27162 4.92919 19.2644
359 1 -1.1104 1.08465 0.741011 15.0798
360 1 -1.1104 3.87234 -2.05029 17.8695
361 1 -1.1104 3.87596 3.53237 17.8699
362 2 2.2208 2.48033 2.13783 19.2643
363 1 -1.1104 3.8723 -2.05029 15.0796
364 1 -1.1104 3.87594 3.53236 15.08
365 2 2.2208 2.4785 -0.6535 16.4746
366 1 -1.1104 3.8741 0.74104 17.8693
367 1 -1.1104 3.87416 0.741052 15.0802
368 2 2.2208 2.48212 4.92918 16.475
536 1 -1.1104 1.08653 3.53234 20.6593
382 1 -1.1104 6.6636 0.741119 17.8697
369 2 2.2208 2.47693 -3.44493 24.8427
372 1 -1.1104 3.87416 0.741013 20.6591
538 1 -1.1104 6.66546 3.53241 20.6593
380 1 -1.1104 6.66542 3.53246 17.8694
383 1 -1.1104 6.66546 3.53242 15.0804
373 1 -1.1104 6.66175 -2.05022 17.8691
378 1 -1.1104 6.66359 0.741125 15.0798
381 1 -1.1104 6.66183 -2.05022 15.0801
642 2 2.2208 13.6399 4.92958 16.4748
534 1 -1.1104 1.08469 0.740954 20.6587
376 1 -1.1104 3.87233 -2.05033 20.6585
402 1 -1.1104 6.66183 -2.05025 20.6589
374 1 -1.1104 6.6636 0.741076 20.6587
384 2 2.2208 10.8487 2.13808 16.4748
385 1 -1.1104 12.2406 -2.05013 17.869
386 1 -1.1104 12.2443 3.53267 17.8693
387 1 -1.1104 12.2407 -2.05012 15.08
388 1 -1.1104 12.2444 3.5327 15.0803
389 1 -1.1104 12.2425 0.74127 17.8696
390 2 2.2208 10.8469 -0.65336 19.264
391 2 2.2208 10.8505 4.92939 19.2643
392 1 -1.1104 12.2425 0.741291 15.0798
393 1 -1.1104 9.45125 -2.05017 17.8695
394 1 -1.1104 9.45489 3.53255 17.8698
395 2 2.2208 8.05925 2.13795 19.2642
396 1 -1.1104 9.45123 -2.05016 15.0797
397 1 -1.1104 9.45488 3.53259 15.08
398 2 2.2208 8.05742 -0.653368 16.4747
399 2 2.2208 8.06109 4.92932 16.475
400 1 -1.1104 9.45303 0.741212 17.8692
401 1 -1.1104 9.4531 0.7412 15.0802
436 2 2.2208 5.26627 -3.44485 22.0533
588 2 2.2208 13.6475 16.096 16.4747
403 1 -1.1104 9.4549 3.53249 20.6588
406 1 -1.1104 12.2425 0.741193 20.6586
539 2 2.2208 13.6381 2.13809 19.2642
405 1 -1.1104 9.45123 -2.05021 20.6585
408 1 -1.1104 12.2407 -2.0502 20.6589
404 1 -1.1104 9.45308 0.74114 20.6591
409 1 -1.1104 12.2443 3.53258 20.6592
471 2 2.2208 8.05579 -3.44486 24.8427
590 2 2.2208 13.6418 7.72093 19.2643
414 2 2.2208 5.27341 7.72052 16.4752
415 2 2.2208 5.27707 13.3031 16.475
416 1 -1.1104 1.09005 9.11506 17.8697
417 1 -1.1104 1.09004 9.11505 15.0807
418 1 -1.1104 1.08829 6.32373 17.87
419 1 -1.1104 1.09182 11.9064 17.87
420 2 2.2208 5.27525 10.5118 19.2646
421 1 -1.1104 1.08824 6.3237 15.0802
422 1 -1.1104 1.09181 11.9064 15.0803
423 1 -1.1104 3.87955 9.115 17.8701
424 2 2.2208 2.48394 7.72049 19.2646
425 2 2.2208 2.48755 13.3031 19.2645
426 1 -1.1104 3.87954 9.11498 15.0803
427 2 2.2208 2.4857 10.5118 16.4752
428 1 -1.1104 3.87775 6.32369 17.8696
429 1 -1.1104 3.88139 11.9063 17.8697
430 1 -1.1104 3.87779 6.32366 15.0806
431 1 -1.1104 3.88132 11.9063 15.0806
444 1 -1.1104 6.67091 11.9064 15.0802
440 1 -1.1104 6.66907 9.11507 17.8696
439 1 -1.1104 6.66722 6.32377 15.0802
438 1 -1.1104 6.6709 11.9063 17.87
441 1 -1.1104 3.87961 9.11495 20.6592
434 1 -1.1104 1.0883 6.32369 20.6591
435 1 -1.1104 3.88138 11.9062 20.6595
613 2 2.2208 13.6455 13.3039 19.2642
442 1 -1.1104 1.0901 9.11504 20.6595
623 1 -1.1104 6.67098 11.9062 20.659
412 2 2.2208 13.6475 16.095 22.0536
433 1 -1.1104 6.66725 6.32377 17.87
614 2 2.2208 13.6436 10.5126 16.4749
437 1 -1.1104 6.66906 9.11511 15.0806
445 2 2.2208 10.8524 7.72085 16.475
446 2 2.2208 10.8561 13.3038 16.4749
447 1 -1.1104 12.248 9.11556 17.8694
448 1 -1.1104 12.248 9.11565 15.0804
449 1 -1.1104 12.2462 6.32409 17.8698
450 1 -1.1104 12.2498 11.9071 17.8698
451 2 2.2208 10.8542 10.5122 19.2644
452 1 -1.1104 12.2461 6.32417 15.08
453 1 -1.1104 12.2498 11.9072 15.0799
454 1 -1.1104 9.45855 9.11527 17.8699
455 2 2.2208 8.0629 7.72061 19.2645
456 2 2.2208 8.06664 13.3032 19.2643
457 1 -1.1104 9.45853 9.11537 15.0801
458 2 2.2208 8.06473 10.512 16.4751
459 1 -1.1104 9.45673 6.32393 17.8695
460 1 -1.1104 9.46045 11.9067 17.8694
461 1 -1.1104 9.45672 6.32394 15.0805
462 1 -1.1104 9.46039 11.9068 15.0805
617 1 -1.1104 6.66909 9.11499 20.6595
465 1 -1.1104 9.45675 6.32383 20.6593
676 2 2.2208 8.07059 18.8863 13.6852
464 1 -1.1104 12.2499 11.9068 20.6588
463 1 -1.1104 9.46042 11.9064 20.6593
469 1 -1.1104 12.2462 6.32398 20.6588
467 1 -1.1104 6.66728 6.32372 20.659
466 1 -1.1104 9.4586 9.11515 20.659
413 2 2.2208 2.47675 -3.44487 19.2638
472 2 2.2208 5.28092 18.8855 16.4745
473 1 -1.1104 1.09368 14.6977 17.8695
474 1 -1.1104 1.09732 20.28 17.869
475 1 -1.1104 1.09359 14.6978 15.0804
476 1 -1.1104 1.0972 20.2803 15.0798
477 1 -1.1104 1.09543 17.4889 17.8695
478 2 2.2208 5.27899 16.0942 19.2642
479 2 2.2208 5.28284 21.676 19.2638
480 1 -1.1104 1.09549 17.4891 15.0798
481 1 -1.1104 3.88317 14.6975 17.8698
482 1 -1.1104 3.88693 20.2795 17.8693
483 2 2.2208 2.49124 18.8853 19.2639
484 1 -1.1104 3.88324 14.6976 15.08
485 1 -1.1104 3.88706 20.2798 15.0795
486 2 2.2208 2.48937 16.0944 16.4748
487 2 2.2208 2.49307 21.6766 16.4743
488 1 -1.1104 3.88515 17.4886 17.8691
489 1 -1.1104 3.88506 17.4888 15.0801
498 1 -1.1104 6.67676 20.2802 15.08
506 1 -1.1104 6.67483 17.489 15.0797
503 1 -1.1104 6.67472 17.4887 17.8695
495 1 -1.1104 1.09556 17.4887 20.6587
491 1 -1.1104 3.88706 20.2792 20.6584
497 1 -1.1104 6.67286 14.6976 17.8693
470 2 2.2208 13.6495 18.8871 19.2639
504 1 -1.1104 6.67683 20.2797 17.8688
501 1 -1.1104 6.67277 14.6977 15.0804
507 2 2.2208 10.8601 18.8869 16.4745
508 1 -1.1104 12.2519 14.6986 17.8692
509 1 -1.1104 12.256 20.282 17.8687
510 1 -1.1104 12.2518 14.6989 15.0804
511 1 -1.1104 12.2559 20.2828 15.0802
512 1 -1.1104 12.2538 17.4903 17.8696
513 2 2.2208 10.8581 16.095 19.2641
514 2 2.2208 10.8622 21.6777 19.2636
515 1 -1.1104 12.2539 17.4907 15.0797
516 1 -1.1104 9.46232 14.698 17.8698
517 1 -1.1104 9.46636 20.2807 17.8694
518 2 2.2208 8.07056 18.8856 19.2639
519 1 -1.1104 9.46237 14.6983 15.0799
520 1 -1.1104 9.46656 20.2813 15.0794
521 2 2.2208 8.06856 16.0947 16.4747
522 2 2.2208 8.07263 21.6772 16.4743
523 1 -1.1104 9.46443 17.4894 17.869
524 1 -1.1104 9.46434 17.4898 15.0803
525 1 -1.1104 12.2518 14.6982 20.6592
670 1 -1.1104 9.46242 14.6977 20.6587
443 2 2.2208 13.6515 21.68 16.4743
528 1 -1.1104 9.46644 20.2799 20.6582
682 2 2.2208 2.49123 18.8857 13.6851
535 1 -1.1104 3.87597 3.53234 20.6589
562 2 2.2208 13.64 4.9294 22.0537
375 1 -1.1104 1.08292 -2.05037 20.6588
542 2 2.2208 5.26982 2.13783 22.0537
543 1 -1.1104 1.08297 -2.05041 23.4479
544 1 -1.1104 1.08656 3.53229 23.4483
545 1 -1.1104 1.0831 -2.0504 26.2377
546 1 -1.1104 1.08663 3.53223 26.2381
547 1 -1.1104 1.08479 0.740951 23.4485
548 2 2.2208 5.26809 -0.653574 24.8429
549 1 -1.1104 1.08482 0.74088 26.2375
550 1 -1.1104 3.87247 -2.05035 23.4483
551 1 -1.1104 3.87604 3.5323 23.4487
552 2 2.2208 2.48044 2.13774 24.8431
553 1 -1.1104 3.87252 -2.05042 26.2373
554 1 -1.1104 3.87606 3.53222 26.2377
555 2 2.2208 2.47858 -0.653582 22.0535
556 1 -1.1104 3.8742 0.74095 23.4481
557 1 -1.1104 3.87429 0.740912 26.2379
558 2 2.2208 5.27169 4.92907 24.8433
559 2 2.2208 2.48217 4.92913 22.0539
568 1 -1.1104 6.66368 0.741016 23.4485
560 1 -1.1104 6.66372 0.740937 26.2376
566 1 -1.1104 6.66554 3.53225 26.2381
569 1 -1.1104 6.662 -2.05036 26.2378
667 1 -1.1104 6.67674 20.2789 23.4479
700 2 2.2208 5.27897 16.0944 13.6854
502 1 -1.1104 6.67482 17.4884 20.6585
371 2 2.2208 10.8451 -3.44479 22.0533
698 2 2.2208 5.28291 21.6768 13.685
589 2 2.2208 13.6346 -3.44484 24.8427
567 1 -1.1104 6.66188 -2.05032 23.4479
565 1 -1.1104 6.66548 3.53233 23.4483
570 2 2.2208 10.8487 2.13795 22.0536
571 1 -1.1104 12.2407 -2.05027 23.4479
572 1 -1.1104 12.2444 3.53248 23.4482
573 1 -1.1104 12.2408 -2.05032 26.2377
574 1 -1.1104 12.2444 3.5324 26.238
575 1 -1.1104 12.2425 0.741109 23.4485
576 2 2.2208 10.847 -0.653496 24.8429
577 1 -1.1104 12.2426 0.741036 26.2375
578 1 -1.1104 9.45133 -2.05027 23.4483
579 1 -1.1104 9.45495 3.53239 23.4486
580 2 2.2208 8.05933 2.1378 24.8431
581 1 -1.1104 9.45137 -2.05035 26.2374
582 1 -1.1104 9.45497 3.53232 26.2377
583 2 2.2208 8.05746 -0.653464 22.0535
584 1 -1.1104 9.45311 0.741065 23.4481
585 1 -1.1104 9.45318 0.740978 26.2379
586 2 2.2208 10.8506 4.92922 24.8432
587 2 2.2208 8.06111 4.92922 22.0538
500 2 2.2208 5.26617 -3.4448 16.4744
697 2 2.2208 8.06659 13.3034 13.6856
529 1 -1.1104 12.2557 20.2809 20.6588
696 2 2.2208 10.8542 10.5124 13.6856
695 2 2.2208 5.27521 10.5118 13.6857
679 2 2.2208 13.6455 13.3043 13.6855
647 1 -1.1104 9.46235 14.6974 23.4487
432 1 -1.1104 1.09191 11.9063 20.6591
591 1 -1.1104 3.87781 6.32365 20.6595
537 2 2.2208 8.05564 -3.44477 19.2639
370 1 -1.1104 12.2539 17.4888 26.2376
595 2 2.2208 5.27347 7.72045 22.054
596 2 2.2208 5.27715 13.3029 22.0539
597 1 -1.1104 1.09017 9.11495 23.4486
598 1 -1.1104 1.0902 9.11487 26.2384
599 1 -1.1104 1.08837 6.32364 23.4488
600 1 -1.1104 1.09194 11.9062 23.4489
601 2 2.2208 5.27534 10.5116 24.8435
602 1 -1.1104 1.0884 6.32355 26.2379
603 1 -1.1104 1.092 11.9061 26.2381
604 1 -1.1104 3.87965 9.11487 23.449
605 2 2.2208 2.48403 7.72037 24.8434
606 2 2.2208 2.48764 13.3028 24.8434
607 1 -1.1104 3.87968 9.11478 26.238
608 2 2.2208 2.48577 10.5118 22.054
609 1 -1.1104 3.87784 6.32358 23.4485
610 1 -1.1104 3.88149 11.9061 23.4486
611 1 -1.1104 3.87788 6.32352 26.2383
612 1 -1.1104 3.88149 11.906 26.2384
620 1 -1.1104 6.66732 6.32363 23.4488
622 1 -1.1104 6.67097 11.9061 23.4489
492 2 2.2208 13.6345 -3.44472 19.2638
621 1 -1.1104 6.66916 9.11491 23.4485
648 2 2.2208 13.6456 13.3034 24.8432
692 2 2.2208 2.4875 13.3031 13.6857
468 1 -1.1104 12.248 9.11537 20.6593
619 1 -1.1104 6.66919 9.1148 26.2384
616 1 -1.1104 6.66734 6.32354 26.2379
618 1 -1.1104 6.67104 11.906 26.238
624 1 -1.1104 9.45862 9.11502 23.4488
625 1 -1.1104 12.25 11.9064 26.2378
626 1 -1.1104 12.2463 6.32377 26.2377
627 2 2.2208 10.8543 10.5119 24.8433
628 1 -1.1104 12.2499 11.9065 23.4487
629 1 -1.1104 12.2462 6.32384 23.4487
630 1 -1.1104 12.2481 9.11511 26.2382
631 1 -1.1104 12.2481 9.11521 23.4483
632 1 -1.1104 9.46051 11.9061 26.2383
633 1 -1.1104 9.45683 6.32364 26.2382
634 1 -1.1104 9.46053 11.9063 23.4484
635 1 -1.1104 9.45678 6.32373 23.4484
636 2 2.2208 8.0648 10.5118 22.0539
637 1 -1.1104 9.45868 9.11493 26.2379
638 2 2.2208 8.0667 13.3028 24.8434
639 2 2.2208 8.06299 7.72044 24.8434
640 2 2.2208 10.8524 7.72066 22.0538
641 2 2.2208 10.8562 13.3033 22.0538
645 2 2.2208 13.6437 10.5122 22.0537
499 1 -1.1104 1.0973 20.2797 20.6587
527 1 -1.1104 6.67278 14.6974 20.6592
490 1 -1.1104 3.88329 14.6973 20.6589
673 1 -1.1104 6.67478 17.488 26.2376
594 1 -1.1104 6.67671 20.2788 26.2379
494 1 -1.1104 3.88507 17.4883 20.659
493 1 -1.1104 1.09365 14.6976 20.6592
564 1 -1.1104 6.6747 17.4881 23.4485
649 2 2.2208 2.49317 21.6759 22.0533
650 1 -1.1104 3.88519 17.4881 23.4481
651 1 -1.1104 1.09554 17.4885 23.4485
652 1 -1.1104 3.88334 14.697 26.2379
653 1 -1.1104 3.88514 17.488 26.2381
654 2 2.2208 2.49135 18.8849 24.843
655 1 -1.1104 3.88711 20.2789 26.2375
656 2 2.2208 5.28091 18.8849 22.0534
657 1 -1.1104 1.0938 14.6974 23.4484
658 1 -1.1104 1.09747 20.2794 23.448
659 2 2.2208 5.27902 16.0938 24.8432
660 2 2.2208 5.28291 21.6754 24.8429
661 1 -1.1104 1.09376 14.6973 26.2383
662 1 -1.1104 1.09564 17.4883 26.2377
663 1 -1.1104 1.09747 20.2793 26.2379
664 1 -1.1104 3.88326 14.6972 23.4488
665 1 -1.1104 3.88701 20.279 23.4483
666 2 2.2208 2.48945 16.0941 22.0537
668 1 -1.1104 6.67289 14.6972 23.4483
674 1 -1.1104 6.67285 14.697 26.2383
533 2 2.2208 10.8451 -3.4447 16.4744
561 2 2.2208 13.6363 -0.653392 22.0534
496 2 2.2208 13.6419 7.7207 24.8432
678 2 2.2208 10.8581 16.0955 13.6854
505 1 -1.1104 6.67664 20.2792 20.6588
643 1 -1.1104 12.2519 14.6976 26.2382
675 1 -1.1104 9.46426 17.4889 20.659
526 1 -1.1104 12.2539 17.4896 20.6585
379 1 -1.1104 9.46243 14.6973 26.2378
407 1 -1.1104 12.2538 17.489 23.4485
411 2 2.2208 10.8601 18.8857 22.0534
646 1 -1.1104 9.46432 17.4883 26.2381
593 2 2.2208 10.8581 16.0943 24.8432
592 1 -1.1104 12.2558 20.2799 26.2381
531 1 -1.1104 12.2559 20.2801 23.4478
615 2 2.2208 8.07054 18.8849 24.843
541 1 -1.1104 9.46636 20.2791 26.2374
532 2 2.2208 10.8621 21.6763 24.8429
540 2 2.2208 8.06857 16.0941 22.0536
377 2 2.2208 13.6495 18.8859 24.843
410 2 2.2208 13.6515 21.6777 22.0531
671 1 -1.1104 9.46438 17.4885 23.448
644 2 2.2208 8.07254 21.676 22.0533
672 1 -1.1104 12.2519 14.6978 23.4482
530 1 -1.1104 9.46626 20.2794 23.4484
677 2 2.2208 10.8622 21.6791 13.6851
669 2 2.2208 13.6382 2.13793 24.843
563 2 2.2208 13.6363 -0.653277 16.4746
680 2 2.2208 13.6495 18.8881 13.6853
681 2 2.2208 13.6417 7.72108 13.6854
683 2 2.2208 8.05565 -3.44477 13.6851
694 2 2.2208 2.4839 7.72044 13.6857
685 2 2.2208 2.48033 2.13781 13.6854
686 2 2.2208 5.27162 4.92917 13.6856
684 2 2.2208 5.268 -0.653461 13.6853
691 2 2.2208 10.8469 -0.653336 13.6852
693 2 2.2208 10.8505 4.92944 13.6855
690 2 2.2208 8.05927 2.13794 13.6854
689 2 2.2208 8.06288 7.72064 13.6856
688 2 2.2208 2.47674 -3.44484 13.685
699 2 2.2208 13.6345 -3.44469 13.685
687 2 2.2208 13.6382 2.13813 13.6853
701 2 2.2208 5.28501 24.4668 5.31704
702 2 2.2208 5.28928 30.0478 5.31712
703 1 -1.1104 1.10136 25.8612 1.13287
704 1 -1.1104 1.10136 25.8615 3.9225
705 1 -1.1104 1.0995 23.0703 1.13303
706 1 -1.1104 1.10345 28.652 1.13327
707 2 2.2208 5.28714 27.2569 2.52776
708 1 -1.1104 1.09936 23.0706 3.92222
709 1 -1.1104 1.10309 28.6524 3.92254
710 1 -1.1104 3.89117 25.8603 1.13307
711 2 2.2208 2.49533 24.4668 2.52766
712 2 2.2208 2.49949 30.0482 2.52807
713 1 -1.1104 3.89099 25.8606 3.92219
714 2 2.2208 2.49718 27.2579 5.31715
715 1 -1.1104 3.88908 23.0697 1.13267
716 1 -1.1104 3.89304 28.6508 1.13292
717 1 -1.1104 3.88911 23.0699 3.9225
718 1 -1.1104 3.89307 28.651 3.92261
732 1 -1.1104 6.68296 28.6506 3.92208
726 1 -1.1104 3.89279 28.6513 6.71167
729 1 -1.1104 6.67879 23.0698 3.9221
881 1 -1.1104 3.88898 23.0702 6.71151
721 1 -1.1104 1.1029 28.6527 6.71199
1025 2 2.2208 2.50886 38.4203 -0.259974
1032 2 2.2208 10.8686 30.0482 -0.261631
965 2 2.2208 13.6559 27.2614 5.31748
728 1 -1.1104 6.67883 23.0696 1.13311
725 1 -1.1104 6.68083 25.8601 1.13261
731 1 -1.1104 6.68098 25.8604 3.92262
733 1 -1.1104 6.68309 28.6504 1.13323
734 2 2.2208 10.8644 24.4684 5.31732
735 2 2.2208 10.8689 30.0507 5.31747
736 1 -1.1104 12.2601 25.8618 1.13251
737 1 -1.1104 12.2604 25.8627 3.92303
738 1 -1.1104 12.2581 23.071 1.13331
739 1 -1.1104 12.2626 28.6525 1.13324
740 2 2.2208 10.8665 27.2584 2.52783
741 1 -1.1104 12.258 23.0716 3.92231
742 1 -1.1104 12.2624 28.6536 3.92223
743 1 -1.1104 9.47069 25.8606 1.1332
744 2 2.2208 8.07475 24.4666 2.52769
745 2 2.2208 8.07918 30.0478 2.52796
746 1 -1.1104 9.47062 25.8612 3.92211
747 2 2.2208 8.07694 27.258 5.31712
748 1 -1.1104 9.46845 23.07 1.1326
749 1 -1.1104 9.47273 28.6511 1.13253
750 1 -1.1104 9.46862 23.0705 3.92283
751 1 -1.1104 9.4731 28.6517 3.92288
752 1 -1.1104 12.2601 25.8643 6.71181
755 1 -1.1104 12.2628 28.6558 6.71286
754 1 -1.1104 9.47087 25.8622 6.71239
904 2 2.2208 13.6581 30.0511 2.52801
988 2 2.2208 13.6538 24.4687 2.52784
1037 2 2.2208 8.08122 32.8375 -0.260717
758 2 2.2208 5.29475 35.6282 5.31731
759 1 -1.1104 1.10532 31.4426 1.13327
760 1 -1.1104 1.11052 37.0242 1.13308
761 1 -1.1104 1.10518 31.4429 3.92281
762 1 -1.1104 1.10986 37.0241 3.92243
763 1 -1.1104 1.10784 34.2334 1.1336
764 2 2.2208 5.2918 32.8379 2.5283
765 2 2.2208 5.29798 38.4191 2.52809
766 1 -1.1104 1.10733 34.2335 3.92252
767 1 -1.1104 3.89532 31.4412 1.1335
768 1 -1.1104 3.90027 37.0221 1.13363
769 2 2.2208 2.50493 35.6295 2.52834
770 1 -1.1104 3.89504 31.4412 3.9224
771 1 -1.1104 3.89989 37.021 3.92185
772 2 2.2208 2.50174 32.839 5.3173
773 2 2.2208 2.50888 38.4195 5.31645
774 1 -1.1104 3.89748 34.2315 1.13325
775 1 -1.1104 3.89734 34.2312 3.92279
791 1 -1.1104 6.68765 34.2308 1.13368
790 1 -1.1104 6.68532 31.4405 3.92273
792 1 -1.1104 6.68987 37.0191 3.92257
789 1 -1.1104 6.69032 37.021 1.13263
777 1 -1.1104 1.10694 34.2334 6.71202
1038 2 2.2208 10.8727 35.6292 -0.26047
1380 2 2.2208 13.6414 41.2882 13.6632
787 1 -1.1104 6.68507 31.4406 1.13288
786 1 -1.1104 6.68759 34.23 3.92202
793 2 2.2208 10.874 35.633 5.31818
794 1 -1.1104 12.2646 31.443 1.13244
795 1 -1.1104 12.2696 37.0232 1.13251
796 1 -1.1104 12.2654 31.4444 3.92336
797 1 -1.1104 12.2712 37.0242 3.92328
798 1 -1.1104 12.2675 34.2333 1.13335
799 2 2.2208 10.8711 32.84 2.52838
800 2 2.2208 10.8743 38.422 2.52955
801 1 -1.1104 12.2675 34.2345 3.92248
802 1 -1.1104 9.47527 31.4414 1.13343
803 1 -1.1104 9.48005 37.0221 1.13356
804 2 2.2208 8.08409 35.6291 2.52877
805 1 -1.1104 9.4752 31.4418 3.92203