ITEM: TIMESTEP
307
ITEM: NUMBER OF ATOMS
17708
ITEM: BOX BOUNDS pp pp pp
-2.7717828229332220e-01 2.7617178282293317e+01
-3.4472205766305355e+00 3.3152722057663055e+02
-2.7717827830221448e-01 2.7617178278302212e+01
ITEM: ATOMS id type q x y z
1 2 2.2208 5.27766 2.13324 5.316
2 1 -1.1104 1.09026 -2.0539 1.13071
3 1 -1.1104 1.09454 3.52703 1.13205
4 1 -1.1104 1.0903 -2.05392 3.92063
5 1 -1.1104 1.09468 3.52709 3.92197
6 1 -1.1104 1.09259 0.736547 1.13179
7 2 2.2208 5.27556 -0.657116 2.52602
8 1 -1.1104 1.09237 0.736605 3.92076
9 1 -1.1104 3.87983 -2.05381 1.13128
10 1 -1.1104 3.88419 3.52702 1.13242
11 2 2.2208 2.48826 2.13335 2.52661
12 1 -1.1104 3.87965 -2.05388 3.92021
13 1 -1.1104 3.88399 3.52705 3.9214
14 2 2.2208 2.486 -0.657195 5.3154
15 2 2.2208 2.49039 4.92377 5.3168
16 1 -1.1104 3.8819 0.736614 1.13131
17 1 -1.1104 3.88194 0.736572 3.92122
18 2 2.2208 5.27989 4.92374 2.52726
111 2 2.2208 13.6548 13.2949 2.5298
19 1 -1.1104 6.67151 0.736564 1.1318
25 1 -1.1104 6.6735 3.52698 1.13193
179 1 -1.1104 3.87963 -2.054 6.71008
178 1 -1.1104 1.09239 0.736489 6.71067
31 1 -1.1104 6.6692 -2.05393 3.92075
346 2 2.2208 2.49884 16.0851 -0.259043
175 1 -1.1104 3.88406 3.52689 6.71128
22 1 -1.1104 3.88174 0.736468 6.71015
207 1 -1.1104 6.66905 -2.05404 6.70968
296 1 -1.1104 12.2611 14.6893 9.50406
204 2 2.2208 8.07782 16.0856 10.8988
348 2 2.2208 2.50251 21.6658 -0.25702
21 1 -1.1104 6.67359 3.52697 3.9218
20 1 -1.1104 6.67132 0.73653 3.92075
32 1 -1.1104 6.66921 -2.05385 1.13088
33 2 2.2208 10.8567 2.13306 5.31604
34 1 -1.1104 12.2481 -2.05419 1.13093
35 1 -1.1104 12.2525 3.52679 1.13197
36 1 -1.1104 12.2482 -2.0542 3.92082
37 1 -1.1104 12.2526 3.52676 3.92188
38 1 -1.1104 12.2504 0.736324 1.13189
39 2 2.2208 10.8545 -0.657353 2.5261
40 1 -1.1104 12.2503 0.736295 3.92084
41 1 -1.1104 9.45878 -2.054 1.13136
42 1 -1.1104 9.46315 3.52687 1.13239
43 2 2.2208 8.06723 2.13323 2.52658
44 1 -1.1104 9.45863 -2.05403 3.92034
45 1 -1.1104 9.46296 3.52685 3.92139
46 2 2.2208 8.06497 -0.657293 5.31547
47 1 -1.1104 9.46087 0.73645 1.13139
48 1 -1.1104 9.46093 0.736399 3.92124
49 2 2.2208 8.06935 4.92362 5.31666
50 2 2.2208 10.8588 4.92357 2.52723
238 2 2.2208 8.08195 21.6668 10.9007
51 1 -1.1104 9.45862 -2.05415 6.71021
55 1 -1.1104 9.46075 0.736319 6.71019
57 1 -1.1104 12.2481 -2.05431 6.70976
56 1 -1.1104 12.2503 0.736187 6.7107
341 2 2.2208 5.28637 13.2946 -0.259847
344 2 2.2208 10.8653 13.2947 -0.259781
342 2 2.2208 10.8692 18.8754 -0.2578
59 2 2.2208 5.2821 7.71414 5.31751
60 2 2.2208 5.28643 13.295 5.31911
61 1 -1.1104 1.09883 9.10785 1.13357
62 1 -1.1104 1.09904 9.10798 3.92351
63 1 -1.1104 1.09687 6.31745 1.13325
64 1 -1.1104 1.1012 11.8983 1.13475
65 2 2.2208 5.28431 10.5045 2.52886
66 1 -1.1104 1.09668 6.31757 3.92226
67 1 -1.1104 1.10108 11.8984 3.92378
68 1 -1.1104 3.88852 9.10778 1.13397
69 2 2.2208 2.49261 7.71423 2.52812
70 2 2.2208 2.49693 13.295 2.52963
71 1 -1.1104 3.88838 9.10789 3.92299
72 2 2.2208 2.49483 10.5047 5.31835
73 1 -1.1104 3.88614 6.31741 1.13269
74 1 -1.1104 3.8905 11.8981 1.1343
75 1 -1.1104 3.88633 6.31746 3.92264
76 1 -1.1104 3.89076 11.8983 3.92422
88 1 -1.1104 6.67563 6.31741 3.92207
87 1 -1.1104 6.67805 9.10781 3.92337
239 1 -1.1104 1.09681 6.31748 6.71216
82 1 -1.1104 3.89058 11.8983 6.71322
176 1 -1.1104 9.47348 17.4796 12.2938
83 1 -1.1104 6.68007 11.8982 3.92375
81 1 -1.1104 3.88615 6.31739 6.7116
240 1 -1.1104 3.88855 9.10782 6.71288
299 1 -1.1104 6.68621 20.2696 9.5058
350 2 2.2208 8.08158 21.6655 -0.256866
84 1 -1.1104 6.6758 6.31736 1.13306
89 1 -1.1104 6.68023 11.8981 1.13471
77 1 -1.1104 6.67779 9.10773 1.13341
90 2 2.2208 10.861 7.71401 5.31744
91 2 2.2208 10.8654 13.295 5.31922
92 1 -1.1104 12.2567 9.10766 1.1334
93 1 -1.1104 12.2569 9.10772 3.92339
94 1 -1.1104 12.2547 6.31725 1.1331
95 1 -1.1104 12.2591 11.8981 1.13475
96 2 2.2208 10.8632 10.5044 2.5288
97 1 -1.1104 12.2545 6.31723 3.92211
98 1 -1.1104 12.2589 11.8982 3.92381
99 1 -1.1104 9.46747 9.10773 1.13383
100 2 2.2208 8.07157 7.7141 2.52795
101 2 2.2208 8.0759 13.2949 2.52966
102 1 -1.1104 9.46731 9.10774 3.92286
103 2 2.2208 8.0738 10.5045 5.31828
104 1 -1.1104 9.4651 6.31732 1.13258
105 1 -1.1104 9.46946 11.8981 1.13425
106 1 -1.1104 9.46525 6.3173 3.92252
107 1 -1.1104 9.46975 11.8982 3.9242
110 1 -1.1104 12.2567 9.10773 6.71238
79 1 -1.1104 6.67789 9.10779 6.71236
109 1 -1.1104 9.46751 9.10774 6.71282
108 1 -1.1104 12.2547 6.3172 6.71205
270 1 -1.1104 9.4651 6.31724 6.71153
330 2 2.2208 8.07782 16.085 -0.25889
681 2 2.2208 5.27978 4.92327 13.6849
117 2 2.2208 5.29025 18.8758 5.32087
118 1 -1.1104 1.10306 14.6887 1.13505
119 1 -1.1104 1.10665 20.2694 1.13694
120 1 -1.1104 1.10331 14.6888 3.92487
121 1 -1.1104 1.10695 20.2697 3.9267
122 1 -1.1104 1.10514 17.479 1.13629
123 2 2.2208 5.28836 16.0852 2.53048
124 2 2.2208 5.29208 21.6659 2.53246
125 1 -1.1104 1.10491 17.4793 3.92535
126 1 -1.1104 3.89277 14.6885 1.13545
127 1 -1.1104 3.89647 20.2692 1.13734
128 2 2.2208 2.5007 18.8758 2.53132
129 1 -1.1104 3.8926 14.6887 3.92453
130 1 -1.1104 3.89622 20.2693 3.92639
131 2 2.2208 2.49888 16.0855 5.31983
132 2 2.2208 2.50262 21.6664 5.32174
133 1 -1.1104 3.89438 17.4788 1.13596
134 1 -1.1104 3.89465 17.479 3.92577
135 1 -1.1104 6.68416 17.4787 1.13648
147 1 -1.1104 6.68574 20.2689 1.13709
142 1 -1.1104 6.68231 14.6886 3.92501
139 1 -1.1104 1.10517 17.4794 6.7151
145 1 -1.1104 1.10306 14.6889 6.71391
140 1 -1.1104 6.68202 14.6884 1.13513
136 1 -1.1104 1.10679 20.2698 6.71575
143 1 -1.1104 3.89444 17.4791 6.71481
144 1 -1.1104 3.89658 20.2695 6.71617
29 1 -1.1104 12.2631 17.4803 12.2943
166 1 -1.1104 9.47569 20.2697 6.71657
141 1 -1.1104 6.68392 17.4789 3.92554
297 1 -1.1104 9.47164 14.689 12.2933
138 1 -1.1104 6.68605 20.2692 3.92692
148 2 2.2208 10.8693 18.876 5.32116
149 1 -1.1104 12.2609 14.6885 1.13526
150 1 -1.1104 12.2648 20.2692 1.13724
151 1 -1.1104 12.2612 14.6887 3.92521
152 1 -1.1104 12.2651 20.2696 3.92724
153 1 -1.1104 12.2631 17.4789 1.13674
154 2 2.2208 10.8673 16.0853 2.53072
155 2 2.2208 10.8711 21.6661 2.53269
156 1 -1.1104 12.2629 17.4791 3.92577
157 1 -1.1104 9.47174 14.6885 1.13565
158 1 -1.1104 9.47555 20.269 1.13763
159 2 2.2208 8.07973 18.8755 2.53159
160 1 -1.1104 9.47156 14.6886 3.92471
161 1 -1.1104 9.47532 20.2693 3.92665
162 2 2.2208 8.07786 16.0854 5.32006
163 2 2.2208 8.08176 21.6662 5.32197
164 1 -1.1104 9.47339 17.4787 1.13619
165 1 -1.1104 9.47369 17.479 3.92611
169 1 -1.1104 9.47174 14.6887 6.71459
167 1 -1.1104 12.2648 20.2701 6.71614
266 1 -1.1104 6.68611 20.2696 12.2947
58 2 2.2208 10.8713 21.6671 8.11146
274 1 -1.1104 6.68419 17.4792 12.2942
321 1 -1.1104 6.68206 14.6887 6.71407
320 1 -1.1104 6.68418 17.4791 6.71538
349 2 2.2208 5.29022 18.8753 -0.257992
319 2 2.2208 10.8693 18.8768 10.8998
146 1 -1.1104 6.6859 20.2694 6.71592
23 1 -1.1104 1.09009 -2.05397 6.70957
28 1 -1.1104 1.09444 3.52701 6.71092
180 2 2.2208 5.27758 2.13297 10.8948
181 1 -1.1104 1.09 -2.05419 12.2884
182 1 -1.1104 1.09434 3.52686 12.2897
183 1 -1.1104 1.09012 -2.0541 9.49948
184 1 -1.1104 1.09451 3.52691 9.50078
185 1 -1.1104 1.09229 0.736333 12.2895
186 2 2.2208 5.2754 -0.657361 8.10484
187 2 2.2208 5.27985 4.92355 8.10611
188 1 -1.1104 1.0922 0.736427 9.49962
189 1 -1.1104 3.87957 -2.05427 12.2889
190 1 -1.1104 3.88397 3.52663 12.2901
191 2 2.2208 2.48811 2.1332 8.10546
192 1 -1.1104 3.87951 -2.05414 9.49903
193 1 -1.1104 3.88387 3.52678 9.50023
194 2 2.2208 2.48588 -0.657431 10.8942
195 2 2.2208 2.49027 4.92356 10.8956
196 1 -1.1104 3.88167 0.736182 12.289
197 1 -1.1104 3.88178 0.736306 9.50004
24 1 -1.1104 6.67133 0.736402 6.71061
683 2 2.2208 2.48806 2.13298 13.6843
323 1 -1.1104 9.47148 14.6889 9.50351
52 1 -1.1104 12.2524 3.52669 6.71086
267 1 -1.1104 9.47547 20.2701 9.50539
275 1 -1.1104 6.682 14.6886 12.2928
200 1 -1.1104 6.66908 -2.05419 9.49955
199 1 -1.1104 6.67337 3.52657 12.2896
216 1 -1.1104 6.66902 -2.05434 12.2885
213 1 -1.1104 6.67119 0.736252 9.49954
208 1 -1.1104 6.67342 3.52687 6.71075
198 1 -1.1104 6.67351 3.5267 9.50065
684 2 2.2208 5.2754 -0.65762 13.6836
212 1 -1.1104 6.67128 0.736108 12.2894
209 1 -1.1104 9.46303 3.52678 6.71124
217 2 2.2208 10.8566 2.13289 10.8949
218 1 -1.1104 12.248 -2.05446 12.2886
219 1 -1.1104 12.2523 3.52667 12.2897
220 1 -1.1104 12.2481 -2.05441 9.4996
221 1 -1.1104 12.2525 3.52667 9.50074
222 1 -1.1104 12.2503 0.736092 12.2895
223 2 2.2208 10.8544 -0.657535 8.10491
224 1 -1.1104 12.2502 0.73611 9.49963
225 1 -1.1104 9.4586 -2.0544 12.289
226 1 -1.1104 9.463 3.52656 12.2901
227 2 2.2208 8.06712 2.13305 8.10538
228 1 -1.1104 9.45854 -2.05425 9.49914
229 1 -1.1104 9.46289 3.5267 9.50019
230 2 2.2208 8.0649 -0.657546 10.8942
231 2 2.2208 8.06932 4.92338 10.8955
232 1 -1.1104 9.46071 0.736063 12.289
233 1 -1.1104 9.4608 0.736233 9.50003
234 2 2.2208 10.8588 4.92348 8.10612
688 2 2.2208 10.8587 4.92336 13.685
687 2 2.2208 8.06712 2.13278 13.6842
689 2 2.2208 10.8544 -0.657711 13.6837
78 1 -1.1104 1.09888 9.10797 6.71249
86 1 -1.1104 6.68023 11.8982 6.71366
80 1 -1.1104 6.6758 6.31733 6.71201
85 1 -1.1104 1.10122 11.8984 6.71364
202 1 -1.1104 9.47577 20.2704 12.2953
241 2 2.2208 5.28207 7.71391 10.8963
242 2 2.2208 5.28636 13.295 10.8979
243 1 -1.1104 1.0988 9.10789 12.2912
244 1 -1.1104 1.09901 9.10792 9.50229
245 1 -1.1104 1.09666 6.31737 12.2909
246 1 -1.1104 1.10113 11.8984 12.2924
247 2 2.2208 5.28432 10.5045 8.10774
248 1 -1.1104 1.09659 6.31746 9.50109
249 1 -1.1104 1.10101 11.8984 9.50259
250 1 -1.1104 3.88849 9.10765 12.2916
251 2 2.2208 2.4926 7.71415 8.10699
252 2 2.2208 2.49688 13.2951 8.10847
253 1 -1.1104 3.8884 9.10774 9.5018
254 2 2.2208 2.49478 10.5046 10.8971
255 1 -1.1104 3.88604 6.31715 12.2904
256 1 -1.1104 3.8905 11.8982 12.292
257 1 -1.1104 3.88625 6.31724 9.50144
258 1 -1.1104 3.89069 11.8983 9.50303
272 1 -1.1104 6.68016 11.8981 12.2924
170 1 -1.1104 12.2609 14.6889 6.71419
264 1 -1.1104 6.67805 9.10766 9.50224
693 2 2.2208 2.49248 7.71396 13.6857
168 1 -1.1104 9.47344 17.4792 6.7151
268 2 2.2208 8.07981 18.876 8.11042
115 1 -1.1104 9.4695 11.8982 6.71322
262 2 2.2208 13.6439 -0.657682 10.8943
261 1 -1.1104 6.67571 6.31705 12.2908
259 1 -1.1104 6.67562 6.31719 9.50093
260 1 -1.1104 6.68003 11.8982 9.50264
263 1 -1.1104 6.67785 9.10757 12.2911
114 1 -1.1104 12.2591 11.8983 6.71378
277 1 -1.1104 9.46967 11.8983 9.50312
278 1 -1.1104 9.46524 6.31718 9.50146
279 1 -1.1104 9.46946 11.8983 12.292
280 1 -1.1104 9.46504 6.31711 12.2904
281 2 2.2208 8.07376 10.5044 10.8971
282 1 -1.1104 9.46734 9.1077 9.50179
283 2 2.2208 8.07587 13.295 8.10861
284 2 2.2208 8.07159 7.714 8.10688
285 2 2.2208 10.861 7.71399 10.8964
286 2 2.2208 10.8653 13.2953 10.898
287 1 -1.1104 12.2567 9.10792 12.2912
288 1 -1.1104 12.2569 9.1079 9.50234
289 1 -1.1104 12.2546 6.31726 12.2909
290 1 -1.1104 12.259 11.8986 12.2925
291 2 2.2208 10.8632 10.5046 8.10778
292 1 -1.1104 12.2545 6.31727 9.50101
293 1 -1.1104 12.2589 11.8986 9.50268
294 1 -1.1104 9.46744 9.10769 12.2917
325 2 2.2208 10.8673 16.0858 8.10955
271 1 -1.1104 9.47368 17.4795 9.50497
696 2 2.2208 8.07146 7.71378 13.6857
171 1 -1.1104 12.2632 17.4795 6.71567
206 1 -1.1104 12.2651 20.2709 9.50602
265 1 -1.1104 12.2609 14.6894 12.2929
300 1 -1.1104 6.68218 14.6887 9.50389
269 1 -1.1104 6.68396 17.4792 9.50435
137 1 -1.1104 3.89274 14.6887 6.71436
301 1 -1.1104 1.10516 17.4793 12.2939
302 2 2.2208 2.49885 16.0856 10.8987
303 2 2.2208 2.50288 21.6664 10.9004
304 1 -1.1104 3.89451 17.4791 12.2936
305 1 -1.1104 3.89672 20.2695 12.295
306 1 -1.1104 3.89268 14.6887 12.2932
307 1 -1.1104 1.1071 20.2699 9.50547
308 1 -1.1104 1.10495 17.4794 9.50414
309 2 2.2208 5.29234 21.6663 8.11118
310 1 -1.1104 1.10317 14.6889 9.50372
311 2 2.2208 5.28834 16.0855 8.10935
312 1 -1.1104 1.10702 20.2697 12.2945
313 1 -1.1104 1.10303 14.6888 12.2927
314 2 2.2208 5.29034 18.8759 10.8997
315 1 -1.1104 3.89646 20.2695 9.50519
316 2 2.2208 2.5008 18.8761 8.11015
317 1 -1.1104 3.89464 17.4792 9.50462
318 1 -1.1104 3.8925 14.6887 9.50337
324 1 -1.1104 12.2628 17.48 9.50451
211 1 -1.1104 12.2649 20.2714 12.2947
295 2 2.2208 13.6547 13.2954 8.10872
30 2 2.2208 13.6461 2.13292 8.10549
54 2 2.2208 13.6606 21.667 5.32214
327 2 2.2208 13.6567 16.0853 -0.25868
328 2 2.2208 13.6605 21.666 -0.256845
172 2 2.2208 13.6567 16.0857 5.32026
173 2 2.2208 13.6587 18.8759 2.53181
322 2 2.2208 13.6586 18.8769 8.1106
678 2 2.2208 13.6503 7.7142 13.6858
116 2 2.2208 13.6482 4.92352 5.31672
237 2 2.2208 13.644 -0.657542 5.31554
685 2 2.2208 13.646 2.1329 13.6843
273 2 2.2208 13.6504 7.71411 8.10694
276 2 2.2208 13.6526 10.5049 10.8972
174 2 2.2208 13.6462 2.13307 2.52666
215 2 2.2208 13.6481 4.92354 10.8956
177 2 2.2208 13.6606 21.6684 10.9008
298 2 2.2208 13.6566 16.0864 10.899
113 2 2.2208 13.6504 7.71401 2.52802
112 2 2.2208 13.6526 10.5046 5.31838
339 2 2.2208 2.49473 10.5044 -0.260605
331 2 2.2208 8.07371 10.5043 -0.260707
345 2 2.2208 13.6526 10.5044 -0.260647
214 2 2.2208 2.48388 -3.4476 2.52548
679 2 2.2208 13.6417 -3.44828 13.6833
26 2 2.2208 13.6417 -3.44818 8.10449
682 2 2.2208 2.48368 -3.44796 13.6832
201 2 2.2208 5.27315 -3.44795 10.8938
680 2 2.2208 8.0627 -3.44814 13.6833
236 2 2.2208 13.6417 -3.44798 2.52567
53 2 2.2208 8.06281 -3.44766 2.52566
205 2 2.2208 5.27326 -3.44767 5.31498
203 2 2.2208 10.8522 -3.44789 5.31511
210 2 2.2208 2.48371 -3.44778 8.10432
27 2 2.2208 10.8522 -3.44812 10.8939
235 2 2.2208 8.06268 -3.44786 8.10446
351 2 2.2208 5.27765 2.13275 16.4736
352 1 -1.1104 1.08999 -2.05412 17.8673
353 1 -1.1104 1.09437 3.52672 17.8685
354 1 -1.1104 1.09011 -2.05417 15.0783
355 1 -1.1104 1.09446 3.52676 15.0795
356 1 -1.1104 1.09236 0.736309 17.8683
357 2 2.2208 5.27549 -0.657593 19.2625
358 2 2.2208 5.27976 4.92316 19.2637
359 1 -1.1104 1.09218 0.736294 15.0784
360 1 -1.1104 3.87965 -2.05428 17.8678
361 1 -1.1104 3.88404 3.52649 17.8689
362 2 2.2208 2.48815 2.13294 19.2631
363 1 -1.1104 3.87951 -2.05432 15.0779
364 1 -1.1104 3.88387 3.52651 15.079
365 2 2.2208 2.48593 -0.657494 16.4731
366 1 -1.1104 3.88174 0.736092 17.8678
367 1 -1.1104 3.88183 0.736108 15.0789
368 2 2.2208 2.49024 4.92335 16.4743
381 1 -1.1104 6.66906 -2.05442 17.8674
676 2 2.2208 8.0758 13.2949 13.6873
372 1 -1.1104 6.67141 0.735981 17.8683
383 1 -1.1104 6.66911 -2.05443 15.0784
376 1 -1.1104 1.09454 3.52674 20.6584
370 1 -1.1104 3.8839 3.52655 20.6579
374 1 -1.1104 1.09224 0.73638 20.6573
699 2 2.2208 5.29248 21.6662 13.69
698 2 2.2208 2.50092 18.8758 13.689
371 1 -1.1104 6.67351 3.52644 15.0794
380 1 -1.1104 6.67124 0.735976 15.0784
375 1 -1.1104 6.6734 3.52638 17.8684
384 2 2.2208 10.8566 2.13272 16.4737
385 1 -1.1104 12.248 -2.05457 17.8674
386 1 -1.1104 12.2522 3.52652 17.8685
387 1 -1.1104 12.2481 -2.05453 15.0784
388 1 -1.1104 12.2524 3.52661 15.0796
389 1 -1.1104 12.2503 0.735964 17.8684
390 2 2.2208 10.8545 -0.657795 19.2626
391 2 2.2208 10.8587 4.92321 19.2638
392 1 -1.1104 12.2502 0.736017 15.0785
393 1 -1.1104 9.45865 -2.05455 17.8678
394 1 -1.1104 9.463 3.52641 17.8689
395 2 2.2208 8.06718 2.13271 19.2631
396 1 -1.1104 9.45855 -2.0545 15.0779
397 1 -1.1104 9.46286 3.52645 15.079
398 2 2.2208 8.06496 -0.657763 16.4731
399 2 2.2208 8.06924 4.92317 16.4743
400 1 -1.1104 9.46075 0.735893 17.8678
401 1 -1.1104 9.46083 0.735973 15.0788
405 1 -1.1104 12.2524 3.52644 20.6585
552 1 -1.1104 9.46092 0.735986 20.6578
690 2 2.2208 2.49686 13.2949 13.6872
697 2 2.2208 5.28839 16.0853 13.6881
686 2 2.2208 8.0799 18.8761 13.6891
700 2 2.2208 10.8673 16.086 13.6882
409 2 2.2208 5.28187 7.71365 16.475
410 2 2.2208 5.28637 13.2946 16.4767
411 1 -1.1104 1.09865 9.10763 17.8699
412 1 -1.1104 1.09885 9.10772 15.081
413 1 -1.1104 1.09662 6.31716 17.8696
414 1 -1.1104 1.10106 11.898 17.8712
415 2 2.2208 5.28404 10.504 19.2653
416 1 -1.1104 1.09649 6.31725 15.0798
417 1 -1.1104 1.10097 11.8982 15.0813
418 1 -1.1104 3.88825 9.10733 17.8703
419 2 2.2208 2.49237 7.71375 19.2645
420 2 2.2208 2.49685 13.2946 19.2661
421 1 -1.1104 3.88824 9.10748 15.0805
422 2 2.2208 2.49464 10.5043 16.4758
423 1 -1.1104 3.88595 6.31691 17.8691
424 1 -1.1104 3.89039 11.8978 17.8707
425 1 -1.1104 3.88613 6.31695 15.0801
426 1 -1.1104 3.8906 11.898 15.0818
438 1 -1.1104 6.67785 9.10741 15.081
437 1 -1.1104 6.67558 6.31682 17.8696
431 1 -1.1104 1.09879 9.10753 20.6598
434 1 -1.1104 1.09647 6.31715 20.6586
428 1 -1.1104 6.67994 11.8979 15.0813
427 1 -1.1104 6.67549 6.31691 15.0797
585 1 -1.1104 1.10087 11.8979 20.6602
433 1 -1.1104 6.67981 11.8976 20.6602
461 1 -1.1104 6.67546 6.31677 20.6585
669 2 2.2208 8.0817 21.6652 22.0584
636 1 -1.1104 12.2631 17.4787 23.452
347 2 2.2208 2.49041 4.92366 27.6322
439 1 -1.1104 6.67999 11.8977 17.8712
429 1 -1.1104 6.67757 9.10725 17.8699
440 2 2.2208 10.8608 7.71386 16.4752
441 2 2.2208 10.8652 13.295 16.4767
442 1 -1.1104 12.2565 9.10769 17.87
443 1 -1.1104 12.2567 9.10787 15.0811
444 1 -1.1104 12.2545 6.31709 17.8697
445 1 -1.1104 12.2588 11.8983 17.8712
446 2 2.2208 10.8629 10.5042 19.2653
447 1 -1.1104 12.2544 6.31724 15.0798
448 1 -1.1104 12.2588 11.8986 15.0813
449 1 -1.1104 9.46718 9.10738 17.8705
450 2 2.2208 8.07131 7.71357 19.2645
451 2 2.2208 8.07576 13.2945 19.2661
452 1 -1.1104 9.46715 9.10753 15.0806
453 2 2.2208 8.07355 10.5042 16.4759
454 1 -1.1104 9.46493 6.3169 17.8692
455 1 -1.1104 9.46929 11.8979 17.8707
456 1 -1.1104 9.46511 6.31697 15.0803
457 1 -1.1104 9.4695 11.8981 15.0819
463 1 -1.1104 12.2566 9.10748 20.6599
464 1 -1.1104 9.46512 6.31686 20.659
465 1 -1.1104 12.2587 11.8979 20.6601
458 1 -1.1104 9.46703 9.1073 20.6593
460 1 -1.1104 12.2544 6.31694 20.6587
660 1 -1.1104 6.68605 20.2687 26.2424
673 1 -1.1104 12.265 20.269 26.2425
496 1 -1.1104 9.47555 20.2688 20.6629
467 2 2.2208 5.29048 18.8754 16.4785
468 1 -1.1104 1.10315 14.6884 17.8716
469 1 -1.1104 1.10705 20.2689 17.8734
470 1 -1.1104 1.10326 14.6886 15.0825
471 1 -1.1104 1.10717 20.2694 15.0843
472 1 -1.1104 1.10535 17.4787 17.8728
473 2 2.2208 5.28851 16.0848 19.267
474 2 2.2208 5.29231 21.6652 19.2689
475 1 -1.1104 1.10514 17.479 15.083
476 1 -1.1104 3.8928 14.6882 17.872
477 1 -1.1104 3.89672 20.2688 17.8739
478 2 2.2208 2.50094 18.8751 19.2679
479 1 -1.1104 3.89261 14.6884 15.0821
480 1 -1.1104 3.89663 20.2692 15.084
481 2 2.2208 2.49902 16.0851 16.4775
482 2 2.2208 2.50286 21.6657 16.4793
483 1 -1.1104 3.89472 17.4785 17.8725
484 1 -1.1104 3.89478 17.4789 15.0835
498 1 -1.1104 6.68629 20.2694 15.0846
495 1 -1.1104 6.68224 14.6885 15.0826
489 1 -1.1104 6.68214 14.6882 17.8715
487 1 -1.1104 6.68617 20.2684 20.6634
612 1 -1.1104 6.68587 20.2684 23.4525
492 1 -1.1104 3.8926 14.688 20.661
486 1 -1.1104 3.89482 17.4782 20.6624
491 1 -1.1104 1.10707 20.2687 20.6633
637 1 -1.1104 1.1051 17.4785 20.662
494 1 -1.1104 6.68437 17.4786 17.873
675 1 -1.1104 12.2631 17.479 20.6619
500 1 -1.1104 6.68617 20.2689 17.8735
499 1 -1.1104 6.68414 17.4789 15.0831
502 2 2.2208 10.8694 18.8764 16.4785
503 1 -1.1104 12.2609 14.6889 17.8716
504 1 -1.1104 12.2651 20.2703 17.8733
505 1 -1.1104 12.261 14.6893 15.0827
506 1 -1.1104 12.2651 20.2711 15.0845
507 1 -1.1104 12.2632 17.4796 17.873
508 2 2.2208 10.8674 16.0852 19.267
509 2 2.2208 10.8713 21.6663 19.2687
510 1 -1.1104 12.263 17.4801 15.0831
511 1 -1.1104 9.47169 14.6884 17.8721
512 1 -1.1104 9.47575 20.2694 17.8739
513 2 2.2208 8.07997 18.8753 19.268
514 1 -1.1104 9.47152 14.6888 15.0821
515 1 -1.1104 9.47567 20.2701 15.084
516 2 2.2208 8.07794 16.0852 16.4776
517 2 2.2208 8.08196 21.6662 16.4794
518 1 -1.1104 9.4737 17.479 17.8724
519 1 -1.1104 9.47371 17.4794 15.0836
490 1 -1.1104 6.68417 17.4783 20.662
521 1 -1.1104 6.68226 14.688 20.6615
670 2 2.2208 10.8693 18.8754 22.0574
501 1 -1.1104 12.265 20.2694 20.6633
613 2 2.2208 8.0779 16.0847 22.0565
639 1 -1.1104 12.2648 20.2691 23.4524
671 1 -1.1104 9.47366 17.4785 26.2415
377 1 -1.1104 3.87959 -2.05413 20.6568
378 1 -1.1104 6.67356 3.5264 20.6583
661 1 -1.1104 6.68221 14.6881 26.2404
635 1 -1.1104 12.2611 14.6884 26.2406
373 1 -1.1104 1.09019 -2.05399 20.6572
524 1 -1.1104 3.88192 0.736208 20.6577
527 2 2.2208 5.27771 2.1329 22.0525
528 1 -1.1104 1.09016 -2.05395 23.4462
529 1 -1.1104 1.09442 3.52681 23.4474
530 1 -1.1104 1.09036 -2.05386 26.2361
531 1 -1.1104 1.09468 3.52689 26.2374
532 1 -1.1104 1.09244 0.736456 23.4472
533 2 2.2208 5.27563 -0.65724 24.8415
534 1 -1.1104 1.0924 0.736507 26.2362
535 1 -1.1104 3.87979 -2.05396 23.4467
536 1 -1.1104 3.88411 3.52667 23.4478
537 2 2.2208 2.48824 2.13316 24.8421
538 1 -1.1104 3.87973 -2.05389 26.2357
539 1 -1.1104 3.884 3.52684 26.2368
540 2 2.2208 2.48602 -0.657324 22.052
541 1 -1.1104 3.88183 0.736364 23.4468
542 1 -1.1104 3.88204 0.736489 26.2367
543 2 2.2208 5.27985 4.92342 24.8426
544 2 2.2208 2.49027 4.92338 22.0532
550 1 -1.1104 6.67345 3.52659 23.4473
546 1 -1.1104 6.66935 -2.0539 26.2363
382 1 -1.1104 6.66923 -2.05431 20.6573
333 2 2.2208 2.48616 -0.657152 27.6309
332 2 2.2208 5.27778 2.13326 27.6315
692 2 2.2208 10.8713 21.6677 13.69
525 1 -1.1104 6.6713 0.736028 20.6573
559 1 -1.1104 12.2482 -2.05454 20.6573
554 1 -1.1104 9.45859 -2.05446 20.6569
403 1 -1.1104 9.46288 3.5264 20.6579
553 1 -1.1104 12.2502 0.735922 20.6574
338 2 2.2208 8.06939 4.92357 27.6321
335 2 2.2208 10.8567 2.13308 27.6315
549 1 -1.1104 6.6714 0.736497 26.2363
557 1 -1.1104 6.66917 -2.0541 23.4463
545 1 -1.1104 6.67367 3.52685 26.2373
520 1 -1.1104 9.4738 17.4785 20.6624
560 1 -1.1104 6.6715 0.736269 23.4472
561 2 2.2208 10.8567 2.13277 22.0526
562 1 -1.1104 12.2481 -2.05443 23.4463
563 1 -1.1104 12.2524 3.52653 23.4474
564 1 -1.1104 12.2482 -2.05429 26.2363
565 1 -1.1104 12.2526 3.5267 26.2373
566 1 -1.1104 12.2504 0.736073 23.4473
567 2 2.2208 10.8546 -0.657516 24.8416
568 1 -1.1104 12.2503 0.736206 26.2363
569 1 -1.1104 9.4588 -2.05426 23.4468
570 1 -1.1104 9.46312 3.52655 23.4478
571 2 2.2208 8.06725 2.13303 24.842
572 1 -1.1104 9.45869 -2.05409 26.2358
573 1 -1.1104 9.46301 3.52673 26.2368
574 2 2.2208 8.06507 -0.657589 22.052
575 1 -1.1104 9.46082 0.736138 23.4468
576 1 -1.1104 9.46102 0.736352 26.2367
577 2 2.2208 10.8588 4.92335 24.8427
578 2 2.2208 8.06929 4.92319 22.0532
672 1 -1.1104 9.47559 20.2685 23.4529
663 1 -1.1104 12.2628 17.4787 26.2411
337 2 2.2208 8.06511 -0.657201 27.631
614 2 2.2208 10.8711 21.6655 24.8479
430 1 -1.1104 3.88611 6.31688 20.659
584 1 -1.1104 3.88808 9.10726 20.6593
432 1 -1.1104 3.89052 11.8976 20.6606
588 2 2.2208 5.28188 7.71357 22.0539
589 2 2.2208 5.2863 13.2943 22.0555
590 1 -1.1104 1.09868 9.10751 23.4489
591 1 -1.1104 1.09898 9.10767 26.2389
592 1 -1.1104 1.0967 6.31715 23.4485
593 1 -1.1104 1.10106 11.8979 23.4501
594 2 2.2208 5.28412 10.5041 24.8442
595 1 -1.1104 1.09661 6.31728 26.2376
596 1 -1.1104 1.10092 11.8981 26.2392
597 1 -1.1104 3.88834 9.10731 23.4493
598 2 2.2208 2.49247 7.71383 24.8434
599 2 2.2208 2.49681 13.2946 24.845
600 1 -1.1104 3.88822 9.10751 26.2384
601 2 2.2208 2.49459 10.5041 22.0547
602 1 -1.1104 3.88599 6.31698 23.448
603 1 -1.1104 3.89034 11.8977 23.4497
604 1 -1.1104 3.88629 6.31716 26.238
605 1 -1.1104 3.89062 11.8978 26.2396
608 1 -1.1104 6.67988 11.8978 26.2391
606 1 -1.1104 6.67794 9.10747 26.2387
586 2 2.2208 13.6439 -0.657758 22.0521
340 2 2.2208 5.28202 7.71397 27.6329
497 1 -1.1104 12.2611 14.6885 20.6615
583 1 -1.1104 9.47528 20.2687 26.242
587 1 -1.1104 9.47142 14.6882 26.24
610 1 -1.1104 6.67557 6.31715 26.2375
607 1 -1.1104 6.67762 9.10723 23.4488
611 1 -1.1104 6.67571 6.31692 23.4484
435 1 -1.1104 6.67773 9.10718 20.6598
609 1 -1.1104 6.68001 11.8976 23.4501
459 1 -1.1104 9.4694 11.8977 20.6607
615 1 -1.1104 9.4673 9.10731 23.4493
616 1 -1.1104 12.2588 11.898 26.2391
617 1 -1.1104 12.2546 6.31714 26.2375
618 2 2.2208 10.8631 10.5042 24.8442
619 1 -1.1104 12.2589 11.8979 23.4501
620 1 -1.1104 12.2547 6.31699 23.4485
621 1 -1.1104 12.2569 9.10759 26.2387
622 1 -1.1104 12.2566 9.10744 23.4488
623 1 -1.1104 9.46958 11.8978 26.2396
624 1 -1.1104 9.46528 6.3171 26.2379
625 1 -1.1104 9.46925 11.8977 23.4496
626 1 -1.1104 9.46503 6.31691 23.448
627 2 2.2208 8.07351 10.504 22.0547
628 1 -1.1104 9.46721 9.10747 26.2382
629 2 2.2208 8.07575 13.2944 24.845
630 2 2.2208 8.07145 7.71371 24.8433
631 2 2.2208 10.8609 7.71367 22.0539
632 2 2.2208 10.8652 13.2945 22.0556
638 1 -1.1104 9.47353 17.4783 23.4515
633 2 2.2208 13.6524 10.5043 22.0548
343 2 2.2208 10.861 7.71394 27.6328
674 2 2.2208 8.0798 18.875 24.847
641 1 -1.1104 6.68198 14.6879 23.4505
662 1 -1.1104 6.68392 17.4784 26.241
640 1 -1.1104 6.68426 17.4782 23.4519
666 2 2.2208 10.8673 16.085 24.846
488 1 -1.1104 1.10324 14.6882 20.6614
485 1 -1.1104 3.89645 20.2685 20.663
642 2 2.2208 2.5026 21.6652 22.0584
643 1 -1.1104 3.89448 17.4783 23.4514
644 1 -1.1104 1.10518 17.4785 23.4518
645 1 -1.1104 3.89249 14.6882 26.2399
646 1 -1.1104 3.89466 17.4785 26.2413
647 2 2.2208 2.50074 18.8752 24.8469
648 1 -1.1104 3.89622 20.2688 26.2419
649 2 2.2208 5.29038 18.8749 22.0575
650 1 -1.1104 1.10299 14.6882 23.4505
651 1 -1.1104 1.10673 20.2688 23.4524
652 2 2.2208 5.28836 16.0847 24.8459
653 2 2.2208 5.29208 21.6652 24.848
654 1 -1.1104 1.1032 14.6884 26.2403
655 1 -1.1104 1.10485 17.4788 26.2409
656 1 -1.1104 1.10694 20.2691 26.2422
657 1 -1.1104 3.8927 14.688 23.4509
658 1 -1.1104 3.89655 20.2685 23.4529
659 2 2.2208 2.49893 16.0848 22.0564
665 1 -1.1104 12.2608 14.6883 23.4505
664 1 -1.1104 9.47163 14.688 23.451
523 1 -1.1104 9.47153 14.6881 20.661
466 2 2.2208 13.6567 16.0861 16.4776
493 2 2.2208 13.6524 10.5047 16.4759
667 2 2.2208 13.6586 18.8756 24.8471
369 2 2.2208 13.6587 18.8763 19.2679
379 2 2.2208 13.6606 21.6679 16.4792
582 2 2.2208 13.6439 -0.65774 16.4732
677 2 2.2208 13.6587 18.8773 13.6892
694 2 2.2208 13.6546 13.2956 13.6874
555 2 2.2208 13.6605 21.6662 22.0582
579 2 2.2208 13.6462 2.13291 24.8421
334 2 2.2208 13.6483 4.92351 27.6322
326 2 2.2208 13.644 -0.657453 27.631
580 2 2.2208 13.6545 13.295 19.2662
402 2 2.2208 13.646 2.13274 19.2632
406 2 2.2208 13.6481 4.92344 16.4744
548 2 2.2208 13.6482 4.92328 22.0533
462 2 2.2208 13.6502 7.71392 19.2645
547 2 2.2208 13.6546 13.2948 24.8451
668 2 2.2208 13.6567 16.0853 22.0565
634 2 2.2208 13.6504 7.71383 24.8434
691 2 2.2208 5.28422 10.5043 13.6865
695 2 2.2208 10.8631 10.5046 13.6865
329 2 2.2208 10.8523 -3.44786 27.6306
407 2 2.2208 2.48375 -3.44778 19.262
551 2 2.2208 5.27322 -3.44805 16.4726
436 2 2.2208 8.06279 -3.44811 19.2622
408 2 2.2208 10.8522 -3.44827 16.4727
556 2 2.2208 5.27334 -3.44777 22.0516
558 2 2.2208 2.48388 -3.44759 24.841
522 2 2.2208 10.8523 -3.44813 22.0516
526 2 2.2208 8.0629 -3.44777 24.8411
336 2 2.2208 5.27343 -3.44754 27.6305
581 2 2.2208 13.6417 -3.44812 24.8411
404 2 2.2208 13.6417 -3.44833 19.2622
701 2 2.2208 5.2942 24.4564 5.32277
702 2 2.2208 5.29844 30.0372 5.32448
703 1 -1.1104 1.11023 25.8501 1.139
704 1 -1.1104 1.11066 25.8505 3.92864
705 1 -1.1104 1.10877 23.0598 1.1383
706 1 -1.1104 1.11253 28.6406 1.14031
707 2 2.2208 5.29599 27.2465 2.53453
708 1 -1.1104 1.10852 23.0601 3.92737
709 1 -1.1104 1.11235 28.641 3.92919
710 1 -1.1104 3.90013 25.8497 1.1394
711 2 2.2208 2.5044 24.4565 2.53343
712 2 2.2208 2.50859 30.0375 2.53546
713 1 -1.1104 3.90001 25.8499 3.92836
714 2 2.2208 2.5066 27.2472 5.32359
715 1 -1.1104 3.89797 23.0594 1.13803
716 1 -1.1104 3.90171 28.64 1.14007
717 1 -1.1104 3.89837 23.0597 3.92774
718 1 -1.1104 3.90224 28.6402 3.92965
720 1 -1.1104 6.69225 28.64 6.719
725 1 -1.1104 6.68772 23.0594 3.92747
719 1 -1.1104 6.69172 28.6396 1.14048
727 2 2.2208 -0.261391 41.2001 10.8985
728 1 -1.1104 3.90047 25.85 6.71803
729 1 -1.1104 3.8983 23.0598 6.71672
9605 2 2.2208 13.6777 41.2139 8.1063
844 2 2.2208 13.6665 30.0418 8.11411
897 2 2.2208 -0.254295 46.7872 5.31747
926 1 -1.1104 12.4148 45.4392 9.4498
732 1 -1.1104 6.68784 23.0592 1.13848
734 1 -1.1104 6.68995 25.8497 3.92882
731 1 -1.1104 6.6894 25.8493 1.13904
726 1 -1.1104 6.68992 25.8498 6.71767
733 1 -1.1104 6.69168 28.6397 3.92925
735 2 2.2208 10.8732 24.4571 5.32302
736 2 2.2208 10.8774 30.0386 5.32495
737 1 -1.1104 12.2685 25.8498 1.13895
738 1 -1.1104 12.269 25.8506 3.92907
739 1 -1.1104 12.2669 23.0595 1.1386
740 1 -1.1104 12.2708 28.6401 1.14043
741 2 2.2208 10.875 27.2469 2.53461
742 1 -1.1104 12.2667 23.0601 3.92763
743 1 -1.1104 12.2707 28.641 3.92944
744 1 -1.1104 9.47933 25.8495 1.13949
745 2 2.2208 8.08355 24.4561 2.53356
746 2 2.2208 8.08765 30.037 2.53573
747 1 -1.1104 9.47923 25.8498 3.92842
748 2 2.2208 8.08583 27.247 5.32378
749 1 -1.1104 9.47711 23.0592 1.13812
750 1 -1.1104 9.48087 28.6396 1.13999
751 1 -1.1104 9.47758 23.0596 3.92806
752 1 -1.1104 9.48167 28.6402 3.92993
757 1 -1.1104 12.2671 23.0609 6.71764
753 1 -1.1104 12.2688 25.8516 6.71794
1033 2 2.2208 10.8766 30.0363 -0.253572
759 1 -1.1104 6.68816 23.0597 6.7173
758 1 -1.1104 9.48161 28.6407 6.71859
1044 2 2.2208 2.52827 43.9946 -0.251571
846 1 -1.1104 9.38299 48.0501 6.71143
868 2 2.2208 13.6682 41.193 2.52434
760 2 2.2208 5.3042 35.6191 5.32603
761 1 -1.1104 1.11428 31.4311 1.14073
762 1 -1.1104 1.11974 37.013 1.14175
763 1 -1.1104 1.11471 31.4316 3.93033
764 1 -1.1104 1.12 37.0134 3.93126
765 1 -1.1104 1.11721 34.222 1.14194
766 2 2.2208 5.30065 32.8278 2.53673
767 2 2.2208 5.30757 38.4111 2.53822
768 1 -1.1104 1.11697 34.2223 3.93034
769 1 -1.1104 3.9042 31.4305 1.1414
770 1 -1.1104 3.90945 37.0124 1.14294
771 2 2.2208 2.51445 35.6193 2.5372
772 1 -1.1104 3.90413 31.4305 3.93003
773 1 -1.1104 3.90937 37.0116 3.9306
774 2 2.2208 2.51139 32.8285 5.32512
775 2 2.2208 2.51935 38.4106 5.32559
776 1 -1.1104 3.90621 34.221 1.1417
777 1 -1.1104 3.90672 34.2211 3.93121
1038 2 2.2208 5.30312 35.6181 -0.250687
923 1 -1.1104 3.90445 31.4303 6.71956
1037 2 2.2208 2.5109 32.8274 -0.252534
779 1 -1.1104 6.69847 37.0115 1.1423
955 2 2.2208 13.6671 38.4374 10.9007
9890 2 2.2208 13.6713 43.996 -0.269225
1035 2 2.2208 8.08529 27.2458 -0.254749
782 1 -1.1104 6.69889 37.0107 3.93191
783 1 -1.1104 6.6933 31.4297 1.14108
778 1 -1.1104 6.69618 34.2206 1.14258
780 1 -1.1104 6.69412 31.43 3.93062
786 1 -1.1104 6.69621 34.2201 3.93066
790 2 2.2208 10.882 35.6214 5.3268
791 1 -1.1104 12.2723 31.4303 1.14093
792 1 -1.1104 12.2766 37.0115 1.14242
793 1 -1.1104 12.2735 31.4315 3.93112
794 1 -1.1104 12.2784 37.0121 3.93158
795 1 -1.1104 12.2752 34.2207 1.14217