ITEM: TIMESTEP
287
ITEM: NUMBER OF ATOMS
17716
ITEM: BOX BOUNDS pp pp pp
-2.7717828229332220e-01 2.7617178282293317e+01
-3.4472205766305355e+00 3.3152722057663055e+02
-2.7717827830221448e-01 2.7617178278302212e+01
ITEM: ATOMS id type q x y z
1 2 2.2208 5.27689 2.13131 5.31008
2 1 -1.1104 1.08957 -2.0554 1.12521
3 1 -1.1104 1.09373 3.52478 1.12604
4 1 -1.1104 1.08971 -2.05544 3.91508
5 1 -1.1104 1.09381 3.52476 3.91591
6 1 -1.1104 1.09177 0.734696 1.12606
7 2 2.2208 5.27481 -0.658768 2.52022
8 1 -1.1104 1.09169 0.734666 3.91505
9 1 -1.1104 3.87908 -2.05542 1.12557
10 1 -1.1104 3.88327 3.5247 1.12638
11 2 2.2208 2.48748 2.13138 2.52074
12 1 -1.1104 3.87905 -2.05546 3.91457
13 1 -1.1104 3.88313 3.52474 3.9154
14 2 2.2208 2.48545 -0.658774 5.30975
15 2 2.2208 2.48947 4.92146 5.31063
16 1 -1.1104 3.88108 0.734662 1.12551
17 1 -1.1104 3.88119 0.734635 3.91539
18 2 2.2208 5.27894 4.92139 2.52111
379 2 2.2208 2.48752 2.13109 13.6784
24 1 -1.1104 6.66852 -2.0555 3.91497
327 2 2.2208 13.6596 21.6634 10.8931
172 1 -1.1104 3.88322 3.5247 6.70526
175 1 -1.1104 3.88113 0.734613 6.7044
50 1 -1.1104 6.67257 3.52465 6.70475
171 1 -1.1104 1.08969 -2.05554 6.70406
311 1 -1.1104 6.68287 17.4748 12.2871
403 2 2.2208 8.0664 2.1311 13.6784
402 2 2.2208 10.8537 -0.65909 13.678
143 2 2.2208 13.6554 16.0819 5.31319
30 1 -1.1104 6.67258 3.52465 1.12583
23 1 -1.1104 6.67057 0.734562 1.12583
28 1 -1.1104 6.6705 0.73459 3.91486
21 1 -1.1104 6.66841 -2.05551 1.12507
29 1 -1.1104 6.67267 3.52463 3.91573
169 2 2.2208 8.08059 21.6608 -0.26449
31 2 2.2208 10.8557 2.13119 5.31001
32 1 -1.1104 12.2473 -2.05563 1.12511
33 1 -1.1104 12.2515 3.52455 1.12586
34 1 -1.1104 12.2474 -2.05564 3.91498
35 1 -1.1104 12.2515 3.52455 3.91576
36 1 -1.1104 12.2494 0.734472 1.12587
37 2 2.2208 10.8536 -0.658903 2.52019
38 1 -1.1104 12.2493 0.734453 3.91488
39 1 -1.1104 9.45791 -2.05559 1.1255
40 1 -1.1104 9.46214 3.52453 1.12624
41 2 2.2208 8.06629 2.13122 2.52053
42 1 -1.1104 9.45788 -2.05559 3.91452
43 1 -1.1104 9.46197 3.52455 3.91524
44 2 2.2208 8.06422 -0.658841 5.30963
45 1 -1.1104 9.45992 0.734487 1.12536
46 1 -1.1104 9.45999 0.734495 3.91526
47 2 2.2208 8.06837 4.92132 5.31051
48 2 2.2208 10.8578 4.92125 2.52107
337 2 2.2208 13.6431 -0.659043 10.8885
77 2 2.2208 10.8681 18.8712 -0.265184
209 1 -1.1104 12.2473 -2.05565 6.704
206 1 -1.1104 12.2494 0.734475 6.70477
320 1 -1.1104 6.68482 20.2646 12.2872
78 2 2.2208 13.6555 16.0814 -0.265805
346 2 2.2208 13.6431 -0.658933 5.30969
111 2 2.2208 8.07863 18.8715 8.10309
55 2 2.2208 5.28095 7.71144 5.31113
56 2 2.2208 5.28503 13.2914 5.31234
57 1 -1.1104 1.09781 9.10486 1.12704
58 1 -1.1104 1.09782 9.10486 3.9169
59 1 -1.1104 1.09592 6.3148 1.12697
60 1 -1.1104 1.09993 11.8948 1.12796
61 2 2.2208 5.28309 10.5014 2.5223
62 1 -1.1104 1.09571 6.31485 3.91598
63 1 -1.1104 1.09968 11.8949 3.91701
64 1 -1.1104 3.88741 9.10476 1.12747
65 2 2.2208 2.49155 7.71151 2.52171
66 2 2.2208 2.49557 13.2914 2.52283
67 1 -1.1104 3.88719 9.10481 3.91648
68 2 2.2208 2.49348 10.5015 5.31169
69 1 -1.1104 3.88522 6.31479 1.12649
70 1 -1.1104 3.88931 11.8947 1.1276
71 1 -1.1104 3.88528 6.31478 3.91636
72 1 -1.1104 3.88935 11.8947 3.91746
88 1 -1.1104 6.67898 11.8946 1.12811
233 1 -1.1104 1.09765 9.10488 6.70592
79 1 -1.1104 1.09976 11.8949 6.70688
25 2 2.2208 5.28912 18.8709 -0.265195
84 1 -1.1104 6.67461 6.3147 3.91588
234 1 -1.1104 1.09577 6.31482 6.70583
232 1 -1.1104 3.88913 11.8948 6.70649
345 2 2.2208 13.6451 2.13119 2.52064
324 1 -1.1104 9.4724 17.4752 9.49783
330 2 2.2208 13.6595 21.6614 -0.264583
86 1 -1.1104 6.67677 9.10468 1.12708
73 1 -1.1104 6.67481 6.31466 1.12687
75 1 -1.1104 6.67682 9.1047 3.91694
87 1 -1.1104 6.67873 11.8946 3.91714
89 2 2.2208 10.8599 7.71136 5.3112
90 2 2.2208 10.864 13.2915 5.31252
91 1 -1.1104 12.2557 9.10464 1.12712
92 1 -1.1104 12.2558 9.10471 3.91707
93 1 -1.1104 12.2537 6.31461 1.12692
94 1 -1.1104 12.2579 11.8946 1.12823
95 2 2.2208 10.8621 10.5013 2.52241
96 1 -1.1104 12.2535 6.31464 3.91591
97 1 -1.1104 12.2577 11.8948 3.91726
98 1 -1.1104 9.46639 9.10457 1.12755
99 2 2.2208 8.0705 7.71131 2.5217
100 2 2.2208 8.07464 13.2913 2.523
101 1 -1.1104 9.46616 9.10463 3.91656
102 2 2.2208 8.0725 10.5014 5.31181
103 1 -1.1104 9.46414 6.31458 1.12639
104 1 -1.1104 9.46832 11.8946 1.12775
105 1 -1.1104 9.46421 6.31461 3.91633
106 1 -1.1104 9.46839 11.8946 3.91767
109 1 -1.1104 12.2555 9.10488 6.70605
372 2 2.2208 5.27487 -0.658991 13.678
322 1 -1.1104 12.264 20.266 9.49854
114 2 2.2208 5.2891 18.8712 5.31365
115 1 -1.1104 1.10178 14.6848 1.12819
116 1 -1.1104 1.10566 20.2646 1.12972
117 1 -1.1104 1.10183 14.6848 3.91804
118 1 -1.1104 1.10589 20.2647 3.91951
119 1 -1.1104 1.10389 17.4747 1.12931
120 2 2.2208 5.28714 16.0812 2.52356
121 2 2.2208 5.29115 21.6609 2.52495
122 1 -1.1104 1.10367 17.4748 3.91838
123 1 -1.1104 3.89146 14.6846 1.12864
124 1 -1.1104 3.89539 20.2643 1.13005
125 2 2.2208 2.49956 18.8712 2.52423
126 1 -1.1104 3.89122 14.6846 3.91769
127 1 -1.1104 3.89523 20.2643 3.91906
128 2 2.2208 2.4975 16.0814 5.31296
129 2 2.2208 2.50162 21.6612 5.31437
130 1 -1.1104 3.89325 17.4744 1.12892
131 1 -1.1104 3.89339 17.4745 3.9188
290 1 -1.1104 1.1016 14.6849 6.70711
291 1 -1.1104 3.89538 20.2644 6.70888
140 1 -1.1104 6.68499 20.2642 3.91949
146 1 -1.1104 6.68084 14.6845 1.12833
142 1 -1.1104 6.68477 20.2641 1.12962
288 1 -1.1104 6.68289 17.4746 6.7083
137 1 -1.1104 1.10376 17.4748 6.7082
136 1 -1.1104 3.89315 17.4746 6.7078
230 1 -1.1104 12.2618 17.4761 12.2872
82 2 2.2208 13.6554 16.0825 10.892
314 1 -1.1104 9.47036 14.6849 6.70776
144 1 -1.1104 6.68091 14.6846 3.91822
141 1 -1.1104 6.68277 17.4744 3.91841
168 1 -1.1104 9.47457 20.2648 6.70902
133 1 -1.1104 6.683 17.4743 1.1294
148 2 2.2208 10.8681 18.8717 5.31376
149 1 -1.1104 12.2598 14.6847 1.12841
150 1 -1.1104 12.2638 20.2646 1.12956
151 1 -1.1104 12.2599 14.6849 3.91839
152 1 -1.1104 12.264 20.2649 3.91963
153 1 -1.1104 12.2619 17.4746 1.12951
154 2 2.2208 10.8661 16.0813 2.5237
155 2 2.2208 10.8702 21.6613 2.52494
156 1 -1.1104 12.2617 17.4749 3.9185
157 1 -1.1104 9.47049 14.6845 1.12885
158 1 -1.1104 9.4745 20.2643 1.13007
159 2 2.2208 8.07868 18.8711 2.52427
160 1 -1.1104 9.47026 14.6846 3.91786
161 1 -1.1104 9.47434 20.2645 3.91904
162 2 2.2208 8.0766 16.0814 5.31308
163 2 2.2208 8.08075 21.6612 5.31433
164 1 -1.1104 9.47233 17.4744 1.129
165 1 -1.1104 9.47247 17.4746 3.91896
167 1 -1.1104 12.2638 20.2654 6.70853
263 1 -1.1104 12.2619 17.4753 6.70848
313 1 -1.1104 12.2596 14.6852 6.70736
147 1 -1.1104 9.47223 17.4749 6.70787
332 2 2.2208 13.6597 21.6622 5.31442
173 1 -1.1104 3.87916 -2.05553 6.70446
369 2 2.2208 5.27905 4.92122 13.6788
335 2 2.2208 13.6514 10.5016 5.31193
334 2 2.2208 13.6494 7.71136 2.52179
174 1 -1.1104 1.0937 3.52474 6.7049
170 1 -1.1104 1.09178 0.734595 6.70489
176 2 2.2208 5.27695 2.13119 10.8889
177 1 -1.1104 1.08964 -2.05566 12.2829
178 1 -1.1104 1.09377 3.52454 12.2837
179 1 -1.1104 1.08975 -2.05561 9.4939
180 1 -1.1104 1.0938 3.52464 9.49471
181 1 -1.1104 1.09177 0.734434 12.2837
182 2 2.2208 5.27485 -0.658855 8.09912
183 2 2.2208 5.27895 4.92138 8.1
184 1 -1.1104 1.09171 0.734533 9.49385
185 1 -1.1104 3.87916 -2.05568 12.2833
186 1 -1.1104 3.88333 3.52453 12.2841
187 2 2.2208 2.48749 2.13129 8.09957
188 1 -1.1104 3.8791 -2.0556 9.49346
189 1 -1.1104 3.88319 3.52464 9.49424
190 2 2.2208 2.48545 -0.658923 10.8886
191 2 2.2208 2.48954 4.92132 10.8894
192 1 -1.1104 3.88117 0.734429 12.2832
193 1 -1.1104 3.88121 0.734542 9.49427
205 1 -1.1104 6.66859 -2.05562 9.49386
211 1 -1.1104 6.66849 -2.05556 6.70398
204 1 -1.1104 6.67272 3.52461 9.49462
203 1 -1.1104 6.67059 0.734487 9.49378
194 1 -1.1104 6.67269 3.52454 12.2836
201 1 -1.1104 6.67059 0.734553 6.70476
319 2 2.2208 8.08079 21.6617 10.8931
333 2 2.2208 13.6575 18.8717 2.52432
200 1 -1.1104 9.45796 -2.0556 6.7044
202 1 -1.1104 6.66853 -2.05568 12.2829
195 1 -1.1104 6.67069 0.734434 12.2837
207 1 -1.1104 9.46209 3.5246 6.70516
208 1 -1.1104 12.2514 3.52458 6.70476
210 1 -1.1104 9.45992 0.734493 6.70429
212 2 2.2208 10.8558 2.13116 10.8889
213 1 -1.1104 12.2474 -2.0558 12.2829
214 1 -1.1104 12.2515 3.52456 12.2836
215 1 -1.1104 12.2474 -2.05571 9.49387
216 1 -1.1104 12.2515 3.52461 9.49465
217 1 -1.1104 12.2495 0.734382 12.2837
218 2 2.2208 10.8537 -0.658934 8.09908
219 1 -1.1104 12.2494 0.73443 9.49377
220 1 -1.1104 9.45802 -2.05573 12.2833
221 1 -1.1104 9.46218 3.52457 12.2841
222 2 2.2208 8.06632 2.13122 8.09946
223 1 -1.1104 9.45794 -2.05566 9.49342
224 1 -1.1104 9.46203 3.52459 9.49417
225 2 2.2208 8.0643 -0.658956 10.8885
226 2 2.2208 8.06845 4.92131 10.8894
227 1 -1.1104 9.46004 0.734398 12.2832
228 1 -1.1104 9.46004 0.734482 9.49419
229 2 2.2208 10.8578 4.92134 8.09997
113 2 2.2208 13.6535 13.2915 2.52308
383 2 2.2208 10.8579 4.92125 13.6788
26 2 2.2208 2.50152 21.661 -0.264384
139 1 -1.1104 12.2597 14.6856 12.2861
76 1 -1.1104 3.88726 9.10482 6.70634
80 1 -1.1104 3.88514 6.31479 6.70537
235 2 2.2208 5.28099 7.7114 10.89
236 2 2.2208 5.28498 13.2915 10.8912
237 1 -1.1104 1.09773 9.10469 12.2848
238 1 -1.1104 1.09777 9.10481 9.49577
239 1 -1.1104 1.09586 6.31463 12.2846
240 1 -1.1104 1.09976 11.8947 12.2858
241 2 2.2208 5.28295 10.5015 8.10116
242 1 -1.1104 1.09571 6.31474 9.49482
243 1 -1.1104 1.09961 11.8948 9.49592
244 1 -1.1104 3.88732 9.10469 12.2852
245 2 2.2208 2.49147 7.71148 8.10057
246 2 2.2208 2.49542 13.2915 8.10172
247 1 -1.1104 3.88715 9.10478 9.49534
248 2 2.2208 2.49347 10.5014 10.8906
249 1 -1.1104 3.88525 6.31462 12.2842
250 1 -1.1104 3.88917 11.8947 12.2853
251 1 -1.1104 3.88528 6.31474 9.49521
252 1 -1.1104 3.88924 11.8948 9.49634
265 1 -1.1104 6.67463 6.31471 9.49475
256 1 -1.1104 6.67862 11.8948 9.49596
255 1 -1.1104 6.67881 11.8948 12.2858
257 1 -1.1104 6.6767 9.10475 12.2848
197 1 -1.1104 12.2598 14.6855 9.49725
22 2 2.2208 13.6575 18.8725 8.10322
231 1 -1.1104 6.67472 6.31471 6.70577
258 1 -1.1104 6.67879 11.8948 6.70701
253 1 -1.1104 6.67677 9.1048 9.49581
264 1 -1.1104 6.67662 9.10474 6.70595
266 1 -1.1104 12.2536 6.31473 6.70583
254 1 -1.1104 6.67481 6.31465 12.2846
110 1 -1.1104 9.46403 6.31468 6.70532
267 1 -1.1104 9.46625 9.10476 6.70646
268 1 -1.1104 9.46814 11.8948 6.70665
108 1 -1.1104 12.2578 11.895 6.7072
269 1 -1.1104 9.46828 11.895 9.49651
270 1 -1.1104 9.46421 6.31474 9.49519
271 1 -1.1104 9.4682 11.895 12.2854
272 1 -1.1104 9.46414 6.31472 12.2842
273 2 2.2208 8.07248 10.5016 10.8906
274 1 -1.1104 9.46608 9.10487 9.4954
275 2 2.2208 8.07448 13.2915 8.10186
276 2 2.2208 8.07042 7.71142 8.10059
277 2 2.2208 10.8599 7.71152 10.89
278 2 2.2208 10.864 13.2919 10.8913
279 1 -1.1104 12.2556 9.10502 12.2848
280 1 -1.1104 12.2557 9.10502 9.49593
281 1 -1.1104 12.2536 6.31478 12.2846
282 1 -1.1104 12.2578 11.8953 12.2859
283 2 2.2208 10.8619 10.5016 8.10129
284 1 -1.1104 12.2535 6.3148 9.49478
285 1 -1.1104 12.2576 11.8952 9.49612
286 1 -1.1104 9.46629 9.10492 12.2852
262 2 2.2208 13.6514 10.5018 10.8907
261 2 2.2208 13.6534 13.292 8.10201
132 2 2.2208 2.49764 16.0812 -0.265961
166 2 2.2208 8.07672 16.0811 -0.265836
287 1 -1.1104 6.68271 17.4747 9.49721
134 1 -1.1104 1.10565 20.2648 6.70854
289 1 -1.1104 6.68071 14.6848 12.286
312 1 -1.1104 6.6808 14.6848 9.49707
145 1 -1.1104 6.6848 20.2644 6.70842
326 1 -1.1104 6.68498 20.2646 9.49836
135 1 -1.1104 3.89128 14.6847 6.70755
292 1 -1.1104 1.10364 17.4747 12.287
293 2 2.2208 2.4974 16.0814 10.8918
294 2 2.2208 2.50152 21.6612 10.8931
295 1 -1.1104 3.89314 17.4746 12.2866
296 1 -1.1104 3.89526 20.2644 12.2877
297 1 -1.1104 3.89127 14.6847 12.2864
298 1 -1.1104 1.10572 20.2647 9.49832
299 1 -1.1104 1.10355 17.4748 9.49725
300 2 2.2208 5.2912 21.6611 8.10368
301 1 -1.1104 1.1017 14.6848 9.49696
302 2 2.2208 5.287 16.0814 8.10242
303 1 -1.1104 1.1055 20.2646 12.2873
304 1 -1.1104 1.10159 14.6847 12.286
305 2 2.2208 5.28905 18.8713 10.8924
306 1 -1.1104 3.89519 20.2645 9.49786
307 2 2.2208 2.49948 18.8713 8.10304
308 1 -1.1104 3.89326 17.4746 9.49765
309 1 -1.1104 3.8911 14.6847 9.49655
310 1 -1.1104 6.68067 14.6847 6.70719
331 2 2.2208 13.6493 7.71156 8.10067
697 2 2.2208 13.6452 2.13104 13.6784
350 2 2.2208 13.6451 2.13119 8.09951
316 1 -1.1104 9.47014 14.6851 9.49667
336 2 2.2208 13.6472 4.92134 10.8894
318 1 -1.1104 9.47227 17.4753 12.2866
198 2 2.2208 10.8703 21.6622 8.10377
260 1 -1.1104 9.47454 20.2655 12.2878
199 1 -1.1104 9.47438 20.2652 9.49784
259 1 -1.1104 9.47037 14.6852 12.2865
315 2 2.2208 10.8681 18.8724 10.8925
323 2 2.2208 10.866 16.0819 8.10257
325 1 -1.1104 12.2617 17.4757 9.49737
317 1 -1.1104 12.2638 20.2666 12.2872
321 2 2.2208 8.07654 16.0817 10.8919
329 2 2.2208 13.6472 4.92132 5.31059
54 2 2.2208 5.28111 7.71139 -0.267743
83 2 2.2208 13.6516 10.5014 -0.26708
107 2 2.2208 10.8642 13.2912 -0.266424
74 2 2.2208 5.28521 13.2913 -0.266562
112 2 2.2208 10.86 7.71131 -0.267742
81 2 2.2208 2.49368 10.5014 -0.267202
85 2 2.2208 8.07267 10.5013 -0.267113
351 2 2.2208 5.27694 2.13106 16.4678
352 1 -1.1104 1.0895 -2.05571 17.8617
353 1 -1.1104 1.09372 3.52438 17.8625
354 1 -1.1104 1.08965 -2.05574 15.0727
355 1 -1.1104 1.09386 3.52442 15.0735
356 1 -1.1104 1.09166 0.734326 17.8625
357 2 2.2208 5.27475 -0.659037 19.2568
358 1 -1.1104 1.09166 0.73434 15.0726
359 1 -1.1104 3.87904 -2.05575 17.8621
360 1 -1.1104 3.88329 3.52442 17.863
361 2 2.2208 2.48743 2.13105 19.2572
362 1 -1.1104 3.87904 -2.05573 15.0723
363 1 -1.1104 3.88325 3.52445 15.0731
364 2 2.2208 2.48537 -0.659026 16.4674
365 1 -1.1104 3.88106 0.734347 17.8621
366 1 -1.1104 3.88121 0.734364 15.0731
367 2 2.2208 2.4896 4.92111 16.4683
368 2 2.2208 5.27904 4.92119 19.2577
382 1 -1.1104 6.66841 -2.05577 17.8617
371 1 -1.1104 6.67264 3.52448 17.8625
693 2 2.2208 8.07862 18.8717 13.6818
374 1 -1.1104 6.67278 3.52447 15.0735
488 2 2.2208 13.6556 16.0817 22.0495
52 2 2.2208 8.06843 4.92128 27.626
53 2 2.2208 2.48957 4.9214 27.6261
519 1 -1.1104 1.09381 3.52439 20.6524
377 1 -1.1104 3.88109 0.734397 20.6519
520 1 -1.1104 3.87892 -2.05567 20.6512
633 2 2.2208 8.08046 21.6606 22.0508
688 2 2.2208 13.6517 10.5015 22.0482
370 1 -1.1104 6.67059 0.734335 17.8625
373 1 -1.1104 6.67058 0.734361 15.0726
380 1 -1.1104 6.66856 -2.05574 15.0727
384 2 2.2208 10.8558 2.131 16.4678
385 1 -1.1104 12.2473 -2.05592 17.8618
386 1 -1.1104 12.2515 3.52441 17.8625
387 1 -1.1104 12.2474 -2.0559 15.0727
388 1 -1.1104 12.2516 3.52444 15.0735
389 1 -1.1104 12.2494 0.734231 17.8625
390 2 2.2208 10.8536 -0.659109 19.2568
391 2 2.2208 10.8579 4.92122 19.2577
392 1 -1.1104 12.2494 0.734247 15.0727
393 1 -1.1104 9.45793 -2.05585 17.8621
394 1 -1.1104 9.46218 3.52443 17.8629
395 2 2.2208 8.0663 2.13107 19.2572
396 1 -1.1104 9.45792 -2.05581 15.0723
397 1 -1.1104 9.46212 3.52447 15.0731
398 2 2.2208 8.06426 -0.659075 16.4674
399 2 2.2208 8.06851 4.92119 16.4683
400 1 -1.1104 9.45992 0.734289 17.8621
401 1 -1.1104 9.46009 0.734316 15.0731
490 2 2.2208 10.8661 16.0822 13.6813
539 1 -1.1104 6.66844 -2.05575 20.6515
575 2 2.2208 13.6473 4.92128 22.0471
540 1 -1.1104 6.67042 0.734392 20.6515
552 1 -1.1104 6.67271 3.52451 20.6524
551 1 -1.1104 9.46203 3.52452 20.6519
411 2 2.2208 5.28114 7.71125 16.4688
412 2 2.2208 5.28519 13.2913 16.47
413 1 -1.1104 1.09792 9.10449 17.8636
414 1 -1.1104 1.09793 9.10457 15.0746
415 1 -1.1104 1.09598 6.31443 17.8635
416 1 -1.1104 1.10001 11.8945 17.8646
417 2 2.2208 5.28327 10.5013 19.2588
418 1 -1.1104 1.09583 6.3145 15.0736
419 1 -1.1104 1.09976 11.8946 15.0748
420 1 -1.1104 3.88754 9.10454 17.864
421 2 2.2208 2.49173 7.71116 19.2582
422 2 2.2208 2.49573 13.2912 19.2594
423 1 -1.1104 3.88732 9.10459 15.0741
424 2 2.2208 2.49366 10.5012 16.4694
425 1 -1.1104 3.88534 6.31449 17.863
426 1 -1.1104 3.88941 11.8945 17.8641
427 1 -1.1104 3.88541 6.31454 15.074
428 1 -1.1104 3.8894 11.8946 15.0751
430 1 -1.1104 6.67692 9.10461 17.8635
431 1 -1.1104 3.88962 11.8945 20.654
485 2 2.2208 13.6574 18.873 13.6819
605 2 2.2208 13.6536 13.2914 24.8384
433 1 -1.1104 6.67908 11.8946 17.8646
438 1 -1.1104 6.67477 6.31458 15.0736
580 1 -1.1104 3.88746 9.10455 20.653
378 2 2.2208 5.29106 21.661 13.6825
574 2 2.2208 13.6451 2.1312 24.8361
436 1 -1.1104 6.67884 11.8947 15.0747
437 1 -1.1104 6.67693 9.10469 15.0746
429 1 -1.1104 6.67491 6.31457 17.8635
439 2 2.2208 10.8601 7.71138 16.4688
440 2 2.2208 10.8642 13.2918 16.47
441 1 -1.1104 12.2558 9.10483 17.8636
442 1 -1.1104 12.2558 9.10495 15.0746
443 1 -1.1104 12.2538 6.31462 17.8634
444 1 -1.1104 12.258 11.8951 17.8646
445 2 2.2208 10.8622 10.5015 19.2588
446 1 -1.1104 12.2536 6.31465 15.0736
447 1 -1.1104 12.2578 11.8952 15.0748
448 1 -1.1104 9.46651 9.10473 17.864
449 2 2.2208 8.07067 7.71131 19.2582
450 2 2.2208 8.07478 13.2914 19.2594
451 1 -1.1104 9.4663 9.1048 15.0741
452 2 2.2208 8.07269 10.5014 16.4694
453 1 -1.1104 9.46425 6.3146 17.863
454 1 -1.1104 9.46846 11.8948 17.8642
455 1 -1.1104 9.46431 6.31465 15.074
456 1 -1.1104 9.46847 11.895 15.0752
689 2 2.2208 13.6537 13.2918 19.2594
460 1 -1.1104 9.46438 6.31464 20.6529
19 2 2.2208 2.48537 -0.658717 27.6252
27 2 2.2208 8.0642 -0.658862 27.6251
602 1 -1.1104 6.67481 6.31461 20.6524
606 1 -1.1104 6.67709 9.10462 20.6535
613 1 -1.1104 12.258 11.8949 20.6536
461 1 -1.1104 12.2537 6.31464 20.6524
611 1 -1.1104 9.4686 11.8947 20.6541
673 1 -1.1104 12.2638 20.2646 23.4448
576 1 -1.1104 9.47239 17.4744 23.4444
674 2 2.2208 10.87 21.661 24.8403
464 2 2.2208 5.28902 18.871 16.4713
465 1 -1.1104 1.1018 14.6845 17.8648
466 1 -1.1104 1.10539 20.2643 17.8662
467 1 -1.1104 1.10178 14.6846 15.0758
468 1 -1.1104 1.10552 20.2644 15.0771
469 1 -1.1104 1.10375 17.4744 17.8659
470 2 2.2208 5.28718 16.0811 19.2601
471 2 2.2208 5.29087 21.6605 19.2614
472 1 -1.1104 1.10356 17.4746 15.0761
473 1 -1.1104 3.89148 14.6845 17.8652
474 1 -1.1104 3.89514 20.264 17.8666
475 2 2.2208 2.4994 18.8709 19.2607
476 1 -1.1104 3.89126 14.6845 15.0754
477 1 -1.1104 3.89508 20.2642 15.0767
478 2 2.2208 2.49753 16.0812 16.4706
479 2 2.2208 2.50127 21.6608 16.472
480 1 -1.1104 3.89322 17.4743 17.8655
481 1 -1.1104 3.89329 17.4744 15.0765
491 1 -1.1104 6.68486 20.2644 15.0772
494 1 -1.1104 6.68094 14.6847 15.0758
489 1 -1.1104 6.68282 17.4743 20.6549
634 1 -1.1104 1.10559 20.2642 20.656
492 1 -1.1104 6.6828 17.4746 15.076
659 1 -1.1104 6.68476 20.264 20.656
639 1 -1.1104 3.89339 17.4742 20.6553
635 1 -1.1104 3.895 20.2639 20.6557
348 2 2.2208 13.6431 -0.658894 27.6252
664 2 2.2208 13.6555 16.0824 16.4707
493 1 -1.1104 6.6847 20.2642 17.8661
487 1 -1.1104 6.68293 17.4744 17.8659
660 1 -1.1104 6.68107 14.6845 20.6547
486 1 -1.1104 6.68094 14.6846 17.8648
495 2 2.2208 10.8681 18.8722 16.4712
496 1 -1.1104 12.2599 14.6853 17.8648
497 1 -1.1104 12.2638 20.2659 17.8658
498 1 -1.1104 12.2599 14.6856 15.0759
499 1 -1.1104 12.2639 20.2664 15.0771
500 1 -1.1104 12.2619 17.4756 17.8659
501 2 2.2208 10.8662 16.0817 19.26
502 2 2.2208 10.87 21.6617 19.2612
503 1 -1.1104 12.2618 17.476 15.076
504 1 -1.1104 9.47054 14.6849 17.8653
505 1 -1.1104 9.47436 20.2649 17.8665
506 2 2.2208 8.07861 18.8712 19.2607
507 1 -1.1104 9.47036 14.6851 15.0754
508 1 -1.1104 9.47439 20.2654 15.0765
509 2 2.2208 8.07669 16.0815 16.4706
510 2 2.2208 8.08058 21.6613 16.4718
511 1 -1.1104 9.4724 17.4749 17.8654
512 1 -1.1104 9.47244 17.4753 15.0766
667 1 -1.1104 9.47428 20.2644 20.6554
683 1 -1.1104 12.2619 17.4751 20.6548
669 1 -1.1104 12.26 14.685 20.6547
685 1 -1.1104 9.47047 14.6847 20.6542
516 1 -1.1104 1.08954 -2.05568 20.6517
517 1 -1.1104 3.88315 3.52449 20.6519
518 1 -1.1104 1.09154 0.734371 20.6515
408 2 2.2208 13.6431 -0.659206 16.4674
672 2 2.2208 10.8662 16.0812 24.839
681 1 -1.1104 12.2618 17.4746 26.2339
521 2 2.2208 5.27685 2.13115 22.0466
522 1 -1.1104 1.08946 -2.05553 23.4407
523 1 -1.1104 1.0937 3.52453 23.4414
524 1 -1.1104 1.0896 -2.05544 26.2306
525 1 -1.1104 1.09385 3.52468 26.2314
526 1 -1.1104 1.09165 0.734505 23.4415
527 2 2.2208 5.27474 -0.658848 24.8357
528 1 -1.1104 1.0916 0.734635 26.2305
529 1 -1.1104 3.879 -2.05558 23.441
530 1 -1.1104 3.88327 3.52456 23.4418
531 2 2.2208 2.48742 2.13126 24.8361
532 1 -1.1104 3.87895 -2.05545 26.23
533 1 -1.1104 3.88316 3.52467 26.2308
534 2 2.2208 2.48528 -0.658909 22.0463
535 1 -1.1104 3.88099 0.734506 23.4409
536 1 -1.1104 3.88114 0.734604 26.2308
537 2 2.2208 5.279 4.92132 24.8366
538 2 2.2208 2.48958 4.92119 22.0472
541 1 -1.1104 6.67052 0.734458 23.4413
692 2 2.2208 10.8702 21.6628 13.6824
482 2 2.2208 2.4994 18.8712 13.6818
543 1 -1.1104 6.67273 3.52461 26.2312
554 1 -1.1104 12.2493 0.734359 20.6515
406 1 -1.1104 12.2516 3.52452 20.6524
553 1 -1.1104 6.67047 0.734538 26.2303
544 1 -1.1104 6.66835 -2.05565 23.4405
550 1 -1.1104 9.45778 -2.0558 20.6511
542 1 -1.1104 6.67259 3.52458 23.4413
555 1 -1.1104 9.45996 0.734362 20.6519
548 1 -1.1104 6.66844 -2.05554 26.2304
549 1 -1.1104 12.2473 -2.05581 20.6516
556 2 2.2208 10.8557 2.13114 22.0466
557 1 -1.1104 12.2472 -2.0557 23.4406
558 1 -1.1104 12.2515 3.52458 23.4413
559 1 -1.1104 12.2473 -2.05561 26.2305
560 1 -1.1104 12.2516 3.52461 26.2312
561 1 -1.1104 12.2494 0.734463 23.4414
562 2 2.2208 10.8536 -0.65893 24.8357
563 1 -1.1104 12.2493 0.734489 26.2303
564 1 -1.1104 9.45785 -2.05568 23.441
565 1 -1.1104 9.46214 3.52457 23.4417
566 2 2.2208 8.06628 2.1312 24.836
567 1 -1.1104 9.45782 -2.05563 26.23
568 1 -1.1104 9.46203 3.52457 26.2307
569 2 2.2208 8.06414 -0.658999 22.0462
570 1 -1.1104 9.45984 0.734449 23.4409
571 1 -1.1104 9.45997 0.734477 26.2307
572 2 2.2208 10.8579 4.92131 24.8365
573 2 2.2208 8.06848 4.92129 22.0471
670 1 -1.1104 9.47251 17.4743 26.2343
668 1 -1.1104 12.26 14.6846 26.2337
632 2 2.2208 13.6594 21.6617 22.0506
665 2 2.2208 13.6594 21.6633 16.4716
690 2 2.2208 13.6516 10.5017 16.4694
579 1 -1.1104 1.09589 6.31444 20.6525
581 1 -1.1104 1.09814 9.10447 20.6535
577 1 -1.1104 6.67899 11.8946 20.6536
49 2 2.2208 10.8557 2.13119 27.6255
582 1 -1.1104 3.88546 6.31454 20.6529
435 1 -1.1104 1.09999 11.8945 20.6536
583 2 2.2208 5.2812 7.71128 22.0477
584 2 2.2208 5.28529 13.2912 22.0489
585 1 -1.1104 1.09801 9.1046 23.4425
586 1 -1.1104 1.09807 9.10472 26.2324
587 1 -1.1104 1.09603 6.31456 23.4424
588 1 -1.1104 1.10014 11.8946 23.4434
589 2 2.2208 5.28325 10.5013 24.8377
590 1 -1.1104 1.09586 6.31472 26.2314
591 1 -1.1104 1.09992 11.8947 26.2325
592 1 -1.1104 3.88759 9.10462 23.4429
593 2 2.2208 2.49172 7.71132 24.8372
594 2 2.2208 2.49576 13.2913 24.8383
595 1 -1.1104 3.88738 9.10471 26.232
596 2 2.2208 2.49381 10.5012 22.0482
597 1 -1.1104 3.88533 6.31461 23.4419
598 1 -1.1104 3.88948 11.8946 23.443
599 1 -1.1104 3.88543 6.31468 26.2318
600 1 -1.1104 3.88955 11.8946 26.2329
609 1 -1.1104 6.67475 6.31466 26.2313
603 1 -1.1104 6.67493 6.31463 23.4423
578 2 2.2208 8.07864 18.8709 24.8397
513 2 2.2208 13.6575 18.8723 19.2606
678 1 -1.1104 9.47427 20.2642 26.2345
608 1 -1.1104 6.67892 11.8946 26.2326
607 1 -1.1104 6.677 9.10463 26.2324
601 1 -1.1104 6.6791 11.8946 23.4435
612 1 -1.1104 12.256 9.10479 20.6534
604 1 -1.1104 6.67694 9.10463 23.4425
610 1 -1.1104 9.46643 9.10471 20.653
614 1 -1.1104 9.46654 9.10465 23.4429
615 1 -1.1104 12.2579 11.8946 26.2326
616 1 -1.1104 12.2537 6.31466 26.2313
617 2 2.2208 10.8622 10.5013 24.8377
618 1 -1.1104 12.258 11.8947 23.4435
619 1 -1.1104 12.2538 6.31468 23.4423
620 1 -1.1104 12.2559 9.10465 26.2324
621 1 -1.1104 12.2559 9.10471 23.4424
622 1 -1.1104 9.46853 11.8946 26.2331
623 1 -1.1104 9.46433 6.31462 26.2318
624 1 -1.1104 9.46846 11.8946 23.4431
625 1 -1.1104 9.46425 6.31465 23.4418
626 2 2.2208 8.07278 10.5013 22.0482
627 1 -1.1104 9.46633 9.10461 26.232
628 2 2.2208 8.07476 13.2912 24.8384
629 2 2.2208 8.07063 7.71133 24.8371
630 2 2.2208 10.8601 7.71138 22.0476
631 2 2.2208 10.8643 13.2914 22.0489
483 2 2.2208 5.28704 16.0814 13.6812
638 1 -1.1104 3.89142 14.6844 20.6542
484 1 -1.1104 1.10367 17.4744 20.655
405 2 2.2208 13.6473 4.92116 16.4683
636 1 -1.1104 1.10202 14.6845 20.6546
640 2 2.2208 2.50127 21.6606 22.051
641 1 -1.1104 3.89325 17.4743 23.4444
642 1 -1.1104 1.10386 17.4745 23.4447
643 1 -1.1104 3.89137 14.6845 26.2331
644 1 -1.1104 3.89343 17.4743 26.2342
645 2 2.2208 2.49949 18.871 24.8397
646 1 -1.1104 3.89511 20.2641 26.2346
647 2 2.2208 5.28904 18.8708 22.0502
648 1 -1.1104 1.10188 14.6846 23.4437
649 1 -1.1104 1.10547 20.2643 23.4452
650 2 2.2208 5.2872 16.0811 24.839
651 2 2.2208 5.29095 21.6605 24.8405
652 1 -1.1104 1.102 14.6847 26.2335
653 1 -1.1104 1.1037 17.4746 26.2338
654 1 -1.1104 1.10579 20.2645 26.235
655 1 -1.1104 3.89157 14.6845 23.4441
656 1 -1.1104 3.89523 20.264 23.4455
657 2 2.2208 2.49765 16.0811 22.0495
662 1 -1.1104 6.68488 20.264 26.235
637 1 -1.1104 6.68297 17.4742 23.4448
661 1 -1.1104 6.68284 17.4742 26.2339
328 2 2.2208 13.6473 4.92129 27.626
691 2 2.2208 13.6495 7.71137 19.2582
663 2 2.2208 10.8681 18.8713 22.0501
666 1 -1.1104 9.4704 14.6845 26.2333
675 1 -1.1104 9.47435 20.2641 23.4454
463 2 2.2208 13.643 -0.659015 22.0463
686 1 -1.1104 9.47248 17.4746 20.6553
671 1 -1.1104 12.2638 20.2651 20.6558
677 1 -1.1104 12.2619 17.4747 23.4448
676 1 -1.1104 12.2599 14.6847 23.4437
514 2 2.2208 13.6575 18.8714 24.8396
679 1 -1.1104 6.68464 20.2639 23.4451
684 1 -1.1104 9.47057 14.6845 23.4442
658 1 -1.1104 6.68094 14.6845 23.4437
680 1 -1.1104 6.68105 14.6844 26.2336
682 2 2.2208 8.07673 16.0811 22.0495
545 1 -1.1104 12.2639 20.2645 26.2349
20 2 2.2208 5.27687 2.13129 27.6255
547 2 2.2208 13.6495 7.71135 24.8371
687 2 2.2208 13.6451 2.13101 19.2573
432 2 2.2208 5.28307 10.5014 13.68
459 2 2.2208 13.6535 13.2921 13.6807
409 2 2.2208 2.49159 7.71127 13.6794
410 2 2.2208 2.49551 13.2913 13.6806
695 2 2.2208 8.07053 7.71138 13.6794
462 2 2.2208 13.6494 7.7115 13.6795
458 2 2.2208 10.862 10.5017 13.68
457 2 2.2208 8.07459 13.2916 13.6806
701 2 2.2208 5.29331 24.4508 5.31501
702 2 2.2208 5.29768 30.0306 5.31642
703 1 -1.1104 1.1097 25.8447 1.13132
704 1 -1.1104 1.10999 25.8448 3.92092
705 1 -1.1104 1.10789 23.0546 1.13088
706 1 -1.1104 1.11207 28.635 1.13242
707 2 2.2208 5.2953 27.2408 2.52659
708 1 -1.1104 1.10775 23.0547 3.9199
709 1 -1.1104 1.1119 28.6351 3.92125
710 1 -1.1104 3.89941 25.8441 1.13162
711 2 2.2208 2.50365 24.4511 2.52579
712 2 2.2208 2.50814 30.0316 2.52744
713 1 -1.1104 3.89932 25.8441 3.92053
714 2 2.2208 2.50586 27.2412 5.31572
715 1 -1.1104 3.89715 23.0541 1.13045
716 1 -1.1104 3.90124 28.6342 1.13209
717 1 -1.1104 3.89745 23.0542 3.92018
718 1 -1.1104 3.90154 28.6341 3.9216
726 1 -1.1104 6.69105 28.6334 3.92119
729 1 -1.1104 6.69112 28.6336 1.13251
724 1 -1.1104 6.68871 25.8437 1.13115
895 1 -1.1104 6.68712 23.0541 6.70959
867 1 -1.1104 3.90145 28.6336 6.71048
872 1 -1.1104 1.11194 28.6348 6.71079
777 2 2.2208 2.51072 32.8218 -0.260326
1010 1 -1.1104 9.37942 48.0328 6.70227
719 1 -1.1104 3.89954 25.8439 6.71022
1009 1 -1.1104 12.2647 42.8599 12.293
9913 2 2.2208 13.6696 35.6166 8.10808
725 1 -1.1104 6.68685 23.054 3.9197
728 1 -1.1104 6.68693 23.0539 1.13077
727 1 -1.1104 6.68912 25.8438 3.92091
902 1 -1.1104 6.69129 28.6331 6.71098
730 2 2.2208 10.8724 24.4517 5.3151
731 2 2.2208 10.8768 30.0316 5.31698
732 1 -1.1104 12.2678 25.8443 1.13096
733 1 -1.1104 12.2684 25.8447 3.92109
734 1 -1.1104 12.266 23.0545 1.13073
735 1 -1.1104 12.2703 28.6341 1.13251
736 2 2.2208 10.8743 27.2411 2.52665
737 1 -1.1104 12.2659 23.0548 3.9197
738 1 -1.1104 12.2702 28.6344 3.92142
739 1 -1.1104 9.47856 25.8439 1.13158
740 2 2.2208 8.08273 24.4508 2.5257
741 2 2.2208 8.0871 30.0307 2.52768
742 1 -1.1104 9.47852 25.844 3.92042
743 2 2.2208 8.08504 27.2408 5.3158
744 1 -1.1104 9.47628 23.0541 1.13025
745 1 -1.1104 9.48037 28.6336 1.13202
746 1 -1.1104 9.47665 23.0543 3.92023
747 1 -1.1104 9.48097 28.6337 3.9219
751 1 -1.1104 12.2663 23.0555 6.70979
807 2 2.2208 8.08915 32.8206 -0.259616
1023 2 2.2208 13.6617 24.4517 2.52568
720 1 -1.1104 6.68906 25.8437 6.70975
896 1 -1.1104 12.2708 28.6353 6.7117
9917 2 2.2208 13.6757 41.1987 8.09829
776 2 2.2208 5.30307 35.6124 -0.258418
753 2 2.2208 5.3032 35.6114 5.31798
754 1 -1.1104 1.1141 31.4255 1.13283
755 1 -1.1104 1.1198 37.0077 1.13436
756 1 -1.1104 1.11424 31.4255 3.92228
757 1 -1.1104 1.11946 37.0073 3.92365
758 1 -1.1104 1.1171 34.2164 1.13421
759 2 2.2208 5.3002 32.8215 2.52864
760 2 2.2208 5.30719 38.4045 2.53027
761 1 -1.1104 1.11657 34.2162 3.92254
762 1 -1.1104 3.90385 31.4245 1.13337
763 1 -1.1104 3.90931 37.0065 1.13521
764 2 2.2208 2.51413 35.6134 2.52941
765 1 -1.1104 3.90362 31.4241 3.92194
766 1 -1.1104 3.90877 37.0049 3.92281
767 2 2.2208 2.51071 32.8219 5.31707
768 2 2.2208 2.51836 38.4037 5.31798
769 1 -1.1104 3.90606 34.2151 1.13381
770 1 -1.1104 3.90604 34.2144 3.92308
783 1 -1.1104 6.69341 31.4231 3.92244
782 1 -1.1104 6.69572 34.2128 3.9226
774 1 -1.1104 3.90585 34.2127 6.71167
929 1 -1.1104 1.11626 34.2152 6.71202
931 1 -1.1104 1.11399 31.4249 6.71109
771 1 -1.1104 6.6985 37.0052 1.13442
781 1 -1.1104 6.69589 34.2142 1.13458
773 1 -1.1104 1.11928 37.0055 6.71186
779 2 2.2208 2.51815 38.4047 -0.257414
784 1 -1.1104 6.69304 31.4236 1.13307
775 1 -1.1104 6.69798 37.0027 3.92362
804 1 -1.1104 6.69806 36.9986 6.71192
9914 2 2.2208 13.6684 32.823 5.31823
785 2 2.2208 10.8814 35.6122 5.31892
786 1 -1.1104 12.2722 31.4238 1.13302
787 1 -1.1104 12.2771 37.0041 1.13478
788 1 -1.1104 12.273 31.4242 3.92317
789 1 -1.1104 12.2781 37.003 3.92376
790 1 -1.1104 12.2751 34.2138 1.13447
791 2 2.2208 10.8788 32.8214 2.52914
792 2 2.2208 10.882 38.4044 2.53151
793 1 -1.1104 12.2752 34.2136 3.92345
794 1 -1.1104 9.48309 31.4236 1.13366
795 1 -1.1104 9.48788 37.0052 1.13537
796 2 2.2208 8.09213 35.6124 2.5302
797 1 -1.1104 9.483 31.4232 3.92215
798 1 -1.1104 9.4879 37.0025 3.92337
799 2 2.2208 8.08964 32.8206 5.31734
800 2 2.2208 8.09473 38.4023 5.32021
801 1 -1.1104 9.48502 34.2138 1.13425
802 1 -1.1104 9.48569 34.2129 3.92357
954 1 -1.1104 12.278 37.0016 6.71434
9911 2 2.2208 13.6731 38.403 5.31731
9919 2 2.2208 13.6703 35.612 2.52986
1008 2 2.2208 13.6533 43.9301 5.27244
808 2 2.2208 10.8804 35.6111 -0.258011
722 2 2.2208 2.53001 43.9909 -0.257825
9912 2 2.2208 13.6737 43.99 -0.274412
840 2 2.2208 5.31194 41.1983 -0.257618
812 2 2.2208 5.3125 41.1931 5.31774
813 2 2.2208 5.3026 46.777 5.29777
814 1 -1.1104 1.12778 42.5933 1.13375
815 1 -1.1104 1.12548 42.5921 3.92222