ITEM: TIMESTEP
318
ITEM: NUMBER OF ATOMS
17676
ITEM: BOX BOUNDS pp pp pp
-2.7717828229332220e-01 2.7617178282293317e+01
-3.4472205766305355e+00 3.3152722057663055e+02
-2.7717827830221448e-01 2.7617178278302212e+01
ITEM: ATOMS id type q x y z
1 2 2.2208 5.29153 2.13975 5.30469
2 1 -1.1104 1.10503 -2.04859 1.12007
3 1 -1.1104 1.10815 3.5343 1.12045
4 1 -1.1104 1.10506 -2.04851 3.90986
5 1 -1.1104 1.10813 3.53437 3.91025
6 1 -1.1104 1.10661 0.742847 1.12058
7 2 2.2208 5.29003 -0.651795 2.51507
8 1 -1.1104 1.1065 0.742935 3.90973
9 1 -1.1104 3.89456 -2.04863 1.12043
10 1 -1.1104 3.89768 3.53422 1.12078
11 2 2.2208 2.5021 2.13965 2.51526
12 1 -1.1104 3.89448 -2.04854 3.90957
13 1 -1.1104 3.89755 3.53434 3.90991
14 2 2.2208 2.50051 -0.651715 5.30451
15 2 2.2208 2.50363 4.93122 5.30493
16 1 -1.1104 3.89602 0.742807 1.12025
17 1 -1.1104 3.89604 0.742897 3.91005
18 2 2.2208 5.29316 4.93107 2.51545
22 1 -1.1104 6.684 -2.04862 1.12008
23 1 -1.1104 1.10653 0.743035 6.69949
186 1 -1.1104 3.89597 0.742996 6.69915
24 1 -1.1104 1.10497 -2.04846 6.69902
20 1 -1.1104 6.6871 3.53436 3.91023
30 1 -1.1104 6.68393 -2.04844 6.69898
26 2 2.2208 -0.276686 21.6807 8.09633
28 1 -1.1104 3.89758 3.53448 6.6997
29 1 -1.1104 1.10802 3.53452 6.69938
181 1 -1.1104 3.89448 -2.0485 6.69933
8974 2 2.2208 -0.287431 2.13985 5.30473
8975 2 2.2208 -0.285777 4.93119 2.51549
19 1 -1.1104 6.68547 0.742916 3.90971
21 1 -1.1104 6.68555 0.742815 1.12058
34 1 -1.1104 6.68707 3.53425 1.12041
35 1 -1.1104 6.68699 3.53453 6.69932
33 1 -1.1104 6.68401 -2.04853 3.90989
37 2 2.2208 10.8704 2.13994 5.30472
38 1 -1.1104 12.2629 -2.04853 1.12008
39 1 -1.1104 12.266 3.53449 1.12047
40 1 -1.1104 12.2629 -2.04843 3.90988
41 1 -1.1104 12.266 3.53464 3.91029
42 1 -1.1104 12.2645 0.742992 1.12062
43 2 2.2208 10.8689 -0.651679 2.51508
44 1 -1.1104 12.2644 0.743098 3.90974
45 1 -1.1104 9.4735 -2.04857 1.12043
46 1 -1.1104 9.4766 3.53437 1.12081
47 2 2.2208 8.08103 2.1397 2.51524
48 1 -1.1104 9.47342 -2.04848 3.90957
49 1 -1.1104 9.47648 3.53449 3.90989
50 2 2.2208 8.07946 -0.651649 5.30453
51 1 -1.1104 9.47496 0.74291 1.12024
52 1 -1.1104 9.47498 0.743008 3.91007
53 2 2.2208 8.08258 4.93132 5.30492
54 2 2.2208 10.8721 4.9313 2.51551
60 1 -1.1104 9.47652 3.53465 6.6997
58 1 -1.1104 6.6855 0.743032 6.69949
59 1 -1.1104 9.4749 0.743111 6.69916
61 1 -1.1104 12.2659 3.53483 6.69936
55 1 -1.1104 12.2628 -2.04832 6.69902
57 1 -1.1104 9.47345 -2.0484 6.69935
675 2 2.2208 10.8788 16.0986 13.6743
313 1 -1.1104 9.48657 20.2848 12.2805
64 2 2.2208 5.29474 7.72267 5.3052
65 2 2.2208 5.29807 13.3055 5.30585
66 1 -1.1104 1.11136 9.11707 1.121
67 1 -1.1104 1.11138 9.11725 3.91081
68 1 -1.1104 1.10983 6.32568 1.12101
69 1 -1.1104 1.11308 11.9084 1.12162
70 2 2.2208 5.29644 10.5138 2.51604
71 1 -1.1104 1.10965 6.32583 3.91017
72 1 -1.1104 1.11292 11.9087 3.91082
73 1 -1.1104 3.90094 9.11697 1.12131
74 2 2.2208 2.5053 7.72249 2.51573
75 2 2.2208 2.50859 13.3052 2.51638
76 1 -1.1104 3.90076 9.11715 3.91045
77 2 2.2208 2.50691 10.5141 5.30552
78 1 -1.1104 3.89923 6.32562 1.12065
79 1 -1.1104 3.90248 11.9083 1.12128
80 1 -1.1104 3.89923 6.32574 3.9105
81 1 -1.1104 3.90254 11.9085 3.91111
89 1 -1.1104 1.11126 9.11748 6.69993
83 1 -1.1104 6.68861 6.32582 3.91013
88 1 -1.1104 6.69208 11.9084 1.12165
9064 2 2.2208 -0.284219 7.72282 5.30523
85 1 -1.1104 1.11301 11.9089 6.70057
82 1 -1.1104 3.9024 11.9088 6.70022
86 1 -1.1104 3.8991 6.32596 6.69959
90 1 -1.1104 1.10971 6.32599 6.69993
91 1 -1.1104 3.90087 9.11741 6.70025
8973 2 2.2208 -0.282542 10.5141 2.51608
9036 2 2.2208 -0.280971 13.3058 5.30589
8913 2 2.2208 -0.288938 -0.651739 2.51506
87 1 -1.1104 6.69036 9.11721 3.91084
97 1 -1.1104 6.69035 9.11702 1.12096
98 1 -1.1104 6.68878 6.32564 1.12103
96 1 -1.1104 6.69194 11.9086 3.91074
99 2 2.2208 10.8737 7.72302 5.30526
100 2 2.2208 10.877 13.306 5.30595
101 1 -1.1104 12.2692 9.11746 1.12102
102 1 -1.1104 12.2693 9.11772 3.91092
103 1 -1.1104 12.2677 6.32598 1.12113
104 1 -1.1104 12.271 11.9089 1.12177
105 2 2.2208 10.8754 10.5143 2.51612
106 1 -1.1104 12.2675 6.32617 3.91019
107 1 -1.1104 12.2709 11.9092 3.91087
108 1 -1.1104 9.47992 9.11722 1.1214
109 2 2.2208 8.08425 7.7226 2.51576
110 2 2.2208 8.0876 13.3054 2.51641
111 1 -1.1104 9.47975 9.1174 3.91047
112 2 2.2208 8.08589 10.5142 5.30555
113 1 -1.1104 9.47816 6.32581 1.12068
114 1 -1.1104 9.48146 11.9086 1.12129
115 1 -1.1104 9.47819 6.32596 3.91054
116 1 -1.1104 9.48156 11.9088 3.91123
262 1 -1.1104 9.47986 9.1177 6.70034
119 1 -1.1104 12.2676 6.32642 6.70003
118 1 -1.1104 9.47807 6.32616 6.69958
120 1 -1.1104 12.2692 9.11801 6.69997
93 1 -1.1104 6.69026 9.11746 6.69989
122 1 -1.1104 12.271 11.9096 6.70076
92 1 -1.1104 6.69207 11.9089 6.7006
94 1 -1.1104 6.6887 6.32601 6.69995
260 1 -1.1104 9.48143 11.9092 6.70025
149 1 -1.1104 12.2759 20.2865 12.2799
209 1 -1.1104 9.48488 17.493 12.2796
8887 2 2.2208 -0.279349 16.0967 2.51673
8884 2 2.2208 -0.277918 18.8885 5.30659
180 2 2.2208 -0.276274 21.6791 2.5174
123 2 2.2208 5.30127 18.8879 5.3066
124 1 -1.1104 1.11456 14.6997 1.12166
125 1 -1.1104 1.11763 20.2819 1.12236
126 1 -1.1104 1.11467 14.7 3.91146
127 1 -1.1104 1.11772 20.2823 3.91214
128 1 -1.1104 1.11625 17.4908 1.12225
129 2 2.2208 5.29974 16.0964 2.51675
130 2 2.2208 5.30291 21.6785 2.51749
131 1 -1.1104 1.11603 17.4912 3.91154
132 1 -1.1104 3.90423 14.6995 1.12196
133 1 -1.1104 3.90737 20.2816 1.12269
134 2 2.2208 2.51174 18.8876 2.51707
135 1 -1.1104 3.90405 14.6998 3.91113
136 1 -1.1104 3.90714 20.282 3.91189
137 2 2.2208 2.51014 16.0968 5.30622
138 2 2.2208 2.51318 21.6792 5.30694
139 1 -1.1104 3.90568 17.4906 1.122
140 1 -1.1104 3.90578 17.4909 3.91185
145 1 -1.1104 3.90417 14.7001 6.70092
143 1 -1.1104 6.697 20.2821 3.9123
150 1 -1.1104 6.69538 17.4907 1.12238
152 1 -1.1104 6.69522 17.491 3.9115
287 1 -1.1104 1.11446 14.7004 6.70065
141 1 -1.1104 3.90724 20.2825 6.70164
151 1 -1.1104 6.69366 14.6996 1.12162
154 1 -1.1104 6.69375 14.6999 3.91152
177 1 -1.1104 6.69357 14.7002 6.70058
153 1 -1.1104 6.69684 20.2817 1.12236
144 1 -1.1104 6.69538 17.4915 6.70137
156 2 2.2208 10.8804 18.889 5.30669
157 1 -1.1104 12.2726 14.7003 1.12162
158 1 -1.1104 12.2758 20.2829 1.12227
159 1 -1.1104 12.2727 14.7007 3.91163
160 1 -1.1104 12.2761 20.2836 3.91242
161 1 -1.1104 12.2744 17.4916 1.1224
162 2 2.2208 10.8787 16.0971 2.51678
163 2 2.2208 10.882 21.6796 2.51755
164 1 -1.1104 12.2742 17.4922 3.91153
165 1 -1.1104 9.48328 14.6999 1.12205
166 1 -1.1104 9.48656 20.2822 1.1228
167 2 2.2208 8.09089 18.8878 2.51713
168 1 -1.1104 9.4831 14.7002 3.91114
169 1 -1.1104 9.48639 20.2827 3.91188
170 2 2.2208 8.08925 16.097 5.30626
171 2 2.2208 8.09249 21.6795 5.30705
172 1 -1.1104 9.48478 17.4911 1.12195
173 1 -1.1104 9.48496 17.4915 3.91196
176 1 -1.1104 9.48328 14.7007 6.70107
155 1 -1.1104 9.48477 17.4921 6.70098
655 2 2.2208 -0.277026 21.6815 13.6748
9034 2 2.2208 -0.285847 4.9315 8.09439
9520 2 2.2208 -0.28895 -0.651598 13.6728
9067 2 2.2208 -0.287412 2.14 10.8836
187 2 2.2208 5.2915 2.1399 10.8835
188 1 -1.1104 1.10496 -2.04847 12.2779
189 1 -1.1104 1.10807 3.53467 12.2782
190 1 -1.1104 1.10499 -2.04843 9.48875
191 1 -1.1104 1.1081 3.53464 9.48911
192 1 -1.1104 1.10655 0.743092 12.2783
193 2 2.2208 5.28997 -0.651655 8.09396
194 2 2.2208 5.29309 4.93136 8.09434
195 1 -1.1104 1.10647 0.743079 9.48858
196 1 -1.1104 3.89446 -2.04852 12.2782
197 1 -1.1104 3.89758 3.53462 12.2785
198 2 2.2208 2.50203 2.13985 8.09414
199 1 -1.1104 3.89445 -2.0485 9.48844
200 1 -1.1104 3.89752 3.53454 9.48875
201 2 2.2208 2.50047 -0.651669 10.8834
202 2 2.2208 2.50363 4.93146 10.8837
203 1 -1.1104 3.89598 0.743043 12.278
204 1 -1.1104 3.89599 0.742999 9.4889
661 2 2.2208 2.50207 2.13986 13.6729
211 1 -1.1104 6.68393 -2.04844 12.2778
205 1 -1.1104 6.68702 3.53468 12.2781
658 2 2.2208 5.28997 -0.65167 13.6728
660 2 2.2208 5.29314 4.93146 13.6731
9519 2 2.2208 -0.2858 4.93156 13.6732
9087 2 2.2208 -0.288977 -0.6516 8.09396
62 1 -1.1104 12.2644 0.743241 6.69955
206 1 -1.1104 6.68708 3.53464 9.48911
207 1 -1.1104 6.68548 0.743124 12.2783
208 1 -1.1104 6.68542 0.743091 9.48857
212 1 -1.1104 6.68395 -2.04844 9.48875
213 2 2.2208 10.8704 2.14012 10.8836
214 1 -1.1104 12.2628 -2.04832 12.2779
215 1 -1.1104 12.2659 3.53499 12.2782
216 1 -1.1104 12.2629 -2.0483 9.48879
217 1 -1.1104 12.266 3.53497 9.48916
218 1 -1.1104 12.2644 0.743339 12.2784
219 2 2.2208 10.8689 -0.651505 8.09399
220 1 -1.1104 12.2643 0.743321 9.48863
221 1 -1.1104 9.47341 -2.04838 12.2782
222 1 -1.1104 9.47652 3.53484 12.2785
223 2 2.2208 8.08097 2.13993 8.09413
224 1 -1.1104 9.4734 -2.04839 9.48844
225 1 -1.1104 9.47647 3.53476 9.48875
226 2 2.2208 8.07943 -0.651575 10.8834
227 2 2.2208 8.08259 4.93158 10.8838
228 1 -1.1104 9.47492 0.743212 12.278
229 1 -1.1104 9.47493 0.743173 9.48894
230 2 2.2208 10.872 4.93165 8.09437
664 2 2.2208 10.8689 -0.651518 13.6728
665 2 2.2208 10.8721 4.93173 13.6732
662 2 2.2208 8.081 2.13997 13.6729
284 2 2.2208 10.8788 16.0981 8.09575
231 1 -1.1104 12.2727 14.7021 12.2793
9090 2 2.2208 -0.279466 16.0977 8.09565
9528 2 2.2208 -0.282586 10.5148 13.6737
9146 2 2.2208 -0.281023 13.3064 10.8847
9124 2 2.2208 -0.284228 7.72318 10.884
9121 2 2.2208 -0.282619 10.5146 8.09497
233 2 2.2208 5.29476 7.723 10.884
234 2 2.2208 5.29808 13.306 10.8847
235 1 -1.1104 1.11129 9.11783 12.2787
236 1 -1.1104 1.11136 9.11772 9.48963
237 1 -1.1104 1.10972 6.32624 12.2787
238 1 -1.1104 1.11298 11.9094 12.2793
239 2 2.2208 5.29642 10.5144 8.09495
240 1 -1.1104 1.10964 6.32618 9.48902
241 1 -1.1104 1.11285 11.9093 9.48967
242 1 -1.1104 3.90087 9.11772 12.279
243 2 2.2208 2.50525 7.72287 8.09462
244 2 2.2208 2.50851 13.3058 8.09529
245 1 -1.1104 3.90076 9.1176 9.4893
246 2 2.2208 2.50689 10.5146 10.8843
247 1 -1.1104 3.89915 6.32617 12.2784
248 1 -1.1104 3.90245 11.9092 12.279
249 1 -1.1104 3.8992 6.32608 9.48936
250 1 -1.1104 3.90252 11.9091 9.48998
668 2 2.2208 2.50852 13.3061 13.674
255 1 -1.1104 6.69032 9.11776 12.2787
256 1 -1.1104 6.68861 6.32616 9.48899
672 2 2.2208 2.50529 7.72303 13.6734
666 2 2.2208 5.29647 10.5146 13.6737
288 1 -1.1104 6.69676 20.2836 12.28
254 1 -1.1104 6.69195 11.9092 9.48962
670 2 2.2208 8.08767 13.3063 13.674
671 2 2.2208 10.8754 10.5151 13.6737
263 1 -1.1104 6.6921 11.9093 12.2794
251 1 -1.1104 6.68872 6.32622 12.2787
252 1 -1.1104 6.6904 9.11768 9.48968
264 1 -1.1104 9.48158 11.9095 9.49009
265 1 -1.1104 9.47816 6.32636 9.4894
266 1 -1.1104 9.48156 11.9097 12.279
267 1 -1.1104 9.47816 6.32643 12.2784
268 2 2.2208 8.08594 10.5147 10.8844
269 1 -1.1104 9.47976 9.11794 9.48934
270 2 2.2208 8.08759 13.306 8.09531
271 2 2.2208 8.08422 7.723 8.09463
272 2 2.2208 10.8737 7.72339 10.8841
273 2 2.2208 10.8771 13.3067 10.8847
274 1 -1.1104 12.2693 9.11839 12.2787
275 1 -1.1104 12.2693 9.11828 9.48979
276 1 -1.1104 12.2677 6.32669 12.2789
277 1 -1.1104 12.2711 11.9102 12.2795
278 2 2.2208 10.8754 10.5148 8.09502
279 1 -1.1104 12.2675 6.3266 9.48906
280 1 -1.1104 12.2709 11.91 9.48969
281 1 -1.1104 9.47988 9.11806 12.2791
669 2 2.2208 8.0843 7.72315 13.6734
310 1 -1.1104 6.69366 14.7008 12.2793
146 1 -1.1104 1.11733 20.283 6.70141
673 2 2.2208 2.51144 18.8891 13.6746
285 1 -1.1104 3.90556 17.4914 6.70099
142 1 -1.1104 1.11613 17.4917 6.70123
292 1 -1.1104 1.11593 17.4926 12.2799
293 2 2.2208 2.51004 16.0976 10.885
294 2 2.2208 2.51282 21.6804 10.8857
295 1 -1.1104 3.90552 17.4921 12.2797
296 1 -1.1104 3.90701 20.2834 12.2803
297 1 -1.1104 3.90411 14.7007 12.2796
298 1 -1.1104 1.11736 20.2837 9.49091
299 1 -1.1104 1.11586 17.4923 9.49039
300 2 2.2208 5.30274 21.6796 8.0964
301 1 -1.1104 1.11456 14.7008 9.49028
302 2 2.2208 5.29967 16.0972 8.09565
303 1 -1.1104 1.11713 20.2841 12.2801
304 1 -1.1104 1.11443 14.701 12.2794
305 2 2.2208 5.30117 18.8889 10.8854
306 1 -1.1104 3.90693 20.2831 9.49074
307 2 2.2208 2.51157 18.8886 8.09599
308 1 -1.1104 3.90566 17.4919 9.49066
309 1 -1.1104 3.90402 14.7005 9.48999
654 2 2.2208 5.30259 21.6802 13.675
8947 2 2.2208 -0.278157 18.8897 10.8853
9510 2 2.2208 -0.279565 16.0981 13.6743
667 2 2.2208 10.8819 21.6826 13.6749
282 1 -1.1104 12.2744 17.4942 12.2802
311 2 2.2208 8.09085 18.8889 8.09606
315 2 2.2208 10.882 21.6814 8.09654
286 1 -1.1104 6.69674 20.2826 6.70134
31 2 2.2208 8.08927 16.0978 10.885
261 2 2.2208 8.0924 21.6808 10.8858
175 1 -1.1104 9.48664 20.2834 6.70191
178 1 -1.1104 12.2726 14.7012 6.70065
179 1 -1.1104 12.2759 20.2845 6.70139
63 2 2.2208 10.8804 18.8904 10.8854
312 1 -1.1104 12.2728 14.7018 9.4905
289 1 -1.1104 6.6969 20.2832 9.49115
257 1 -1.1104 6.69376 14.7006 9.49038
290 1 -1.1104 6.69518 17.492 9.49033
291 1 -1.1104 6.69532 17.4923 12.2801
174 1 -1.1104 12.2744 17.4929 6.70153
314 1 -1.1104 9.48497 17.4927 9.49086
232 1 -1.1104 12.2761 20.2857 9.49133
25 1 -1.1104 9.48316 14.7011 9.48999
253 1 -1.1104 9.48332 14.7014 12.2798
210 1 -1.1104 9.4864 20.2842 9.4907
259 1 -1.1104 12.2742 17.4937 9.4904
674 2 2.2208 5.29967 16.0975 13.6743
663 2 2.2208 8.09084 18.8895 13.6747
8391 2 2.2208 8.07793 -3.44312 8.09384
8363 2 2.2208 2.49899 -3.44318 8.09383
8843 2 2.2208 2.49897 -3.44324 13.6727
8186 2 2.2208 5.28848 -3.44318 5.30438
17126 2 2.2208 -0.290487 -3.44313 10.8832
8245 2 2.2208 2.49902 -3.44322 2.51492
17033 2 2.2208 -0.290466 -3.44314 5.30439
8178 2 2.2208 10.8674 -3.4431 5.30439
8307 2 2.2208 8.07796 -3.44321 2.51493
8839 2 2.2208 8.07791 -3.44317 13.6727
8364 2 2.2208 5.28844 -3.44318 10.8833
8390 2 2.2208 10.8674 -3.44307 10.8833
338 2 2.2208 5.29158 2.1398 16.4623
339 1 -1.1104 1.10498 -2.0486 17.8567
340 1 -1.1104 1.1082 3.53448 17.857
341 1 -1.1104 1.105 -2.04854 15.0676
342 1 -1.1104 1.10815 3.5346 15.0679
343 1 -1.1104 1.10661 0.742941 17.8571
344 2 2.2208 5.29003 -0.65185 19.2516
345 2 2.2208 5.29327 4.93118 19.2519
346 1 -1.1104 1.10653 0.743014 15.0674
347 1 -1.1104 3.89448 -2.04864 17.857
348 1 -1.1104 3.89771 3.53443 17.8573
349 2 2.2208 2.50216 2.13968 19.2518
350 1 -1.1104 3.89447 -2.04855 15.0672
351 1 -1.1104 3.89759 3.53456 15.0675
352 2 2.2208 2.50053 -0.651751 16.4622
353 1 -1.1104 3.89607 0.742893 17.8568
354 1 -1.1104 3.89603 0.743 15.0677
355 2 2.2208 2.50372 4.93134 16.4625
372 1 -1.1104 6.68718 3.53444 17.8569
517 1 -1.1104 1.10823 3.53438 20.6467
366 1 -1.1104 6.68709 3.53462 15.0679
361 1 -1.1104 1.10661 0.74286 20.6462
9253 2 2.2208 -0.288905 -0.651752 19.2516
368 1 -1.1104 6.68554 0.742942 17.8571
453 1 -1.1104 12.2743 17.4917 23.4375
651 2 2.2208 8.09227 21.6789 22.0431
357 1 -1.1104 3.89769 3.53426 20.6464
363 1 -1.1104 3.89611 0.742787 20.6465
516 1 -1.1104 3.8945 -2.04869 20.6461
362 1 -1.1104 1.10504 -2.04865 20.6464
9254 2 2.2208 -0.285685 4.93132 19.2519
9315 2 2.2208 -0.287341 2.13988 16.4624
365 1 -1.1104 6.68548 0.74304 15.0674
358 1 -1.1104 6.68719 3.53431 20.6467
331 2 2.2208 10.8771 13.3055 27.6213
367 1 -1.1104 6.68395 -2.04861 17.8567
356 1 -1.1104 6.68395 -2.04852 15.0676
373 2 2.2208 10.8705 2.13996 16.4624
374 1 -1.1104 12.2628 -2.04853 17.8566
375 1 -1.1104 12.2661 3.53469 17.857
376 1 -1.1104 12.2629 -2.04841 15.0676
377 1 -1.1104 12.266 3.53488 15.068
378 1 -1.1104 12.2644 0.743079 17.8572
379 2 2.2208 10.8689 -0.651775 19.2516
380 2 2.2208 10.8722 4.93139 19.252
381 1 -1.1104 12.2644 0.743223 15.0674
382 1 -1.1104 9.47342 -2.04859 17.857
383 1 -1.1104 9.47665 3.53458 17.8573
384 2 2.2208 8.08109 2.13971 19.2518
385 1 -1.1104 9.4734 -2.04846 15.0673
386 1 -1.1104 9.47657 3.53471 15.0676
387 2 2.2208 8.07945 -0.651704 16.4622
388 2 2.2208 8.08271 4.93142 16.4625
389 1 -1.1104 9.475 0.742979 17.8568
390 1 -1.1104 9.47495 0.743131 15.0677
395 1 -1.1104 9.47665 3.53438 20.6464
392 1 -1.1104 12.2628 -2.04865 20.6464
360 1 -1.1104 6.68555 0.742799 20.6462
541 1 -1.1104 9.4734 -2.04869 20.6461
393 1 -1.1104 9.47503 0.742842 20.6466
544 1 -1.1104 6.68398 -2.04871 20.6464
9286 2 2.2208 -0.282488 10.5144 19.2524
9314 2 2.2208 -0.284129 7.72307 16.4628
397 2 2.2208 5.29486 7.72287 16.4628
398 2 2.2208 5.29814 13.3059 16.4634
399 1 -1.1104 1.11143 9.11755 17.8575
400 1 -1.1104 1.11139 9.11777 15.0684
401 1 -1.1104 1.10983 6.32602 17.8575
402 1 -1.1104 1.11301 11.9091 17.858
403 2 2.2208 5.29655 10.5141 19.2525
404 1 -1.1104 1.10974 6.32617 15.0678
405 1 -1.1104 1.11295 11.9093 15.0684
406 1 -1.1104 3.90097 9.11741 17.8578
407 2 2.2208 2.50542 7.72269 19.2522
408 2 2.2208 2.50862 13.3056 19.2527
409 1 -1.1104 3.90088 9.11763 15.068
410 2 2.2208 2.50698 10.5144 16.463
411 1 -1.1104 3.89933 6.32591 17.8572
412 1 -1.1104 3.90258 11.9089 17.8577
413 1 -1.1104 3.89926 6.32612 15.0681
414 1 -1.1104 3.90254 11.9091 15.0687
424 1 -1.1104 1.11307 11.9087 20.6471
421 1 -1.1104 6.69213 11.9089 17.8581
9310 2 2.2208 -0.280997 13.3063 16.4633
569 1 -1.1104 3.90099 9.11717 20.6468
418 1 -1.1104 1.10987 6.32585 20.6466
427 1 -1.1104 6.69207 11.9092 15.0683
420 1 -1.1104 6.69047 9.11746 17.8574
419 1 -1.1104 6.68873 6.32615 15.0677
417 1 -1.1104 3.90261 11.9086 20.6475
425 1 -1.1104 6.6905 9.11723 20.6472
415 1 -1.1104 6.68884 6.32598 17.8575
416 1 -1.1104 6.69043 9.11772 15.0684
428 2 2.2208 10.8738 7.72322 16.4628
429 2 2.2208 10.8772 13.3066 16.4634
430 1 -1.1104 12.2694 9.11801 17.8575
431 1 -1.1104 12.2694 9.11828 15.0685
432 1 -1.1104 12.2677 6.32635 17.8576
433 1 -1.1104 12.2711 11.9097 17.8581
434 2 2.2208 10.8755 10.5146 19.2525
435 1 -1.1104 12.2677 6.32655 15.0678
436 1 -1.1104 12.271 11.9101 15.0683
437 1 -1.1104 9.47997 9.11772 17.8578
438 2 2.2208 8.0844 7.72278 19.2522
439 2 2.2208 8.0877 13.3058 19.2528
440 1 -1.1104 9.4799 9.11795 15.0681
441 2 2.2208 8.08603 10.5146 16.4631
442 1 -1.1104 9.47831 6.32613 17.8572
443 1 -1.1104 9.48165 11.9093 17.8577
444 1 -1.1104 9.47824 6.32635 15.0682
445 1 -1.1104 9.48161 11.9096 15.0688
447 1 -1.1104 12.2694 9.11766 20.6473
448 1 -1.1104 9.47832 6.32592 20.647
452 1 -1.1104 9.47997 9.11743 20.6469
450 1 -1.1104 12.2677 6.32608 20.6466
423 1 -1.1104 6.68886 6.32578 20.6466
451 1 -1.1104 9.48163 11.9089 20.6476
446 1 -1.1104 12.2711 11.9093 20.6471
332 2 2.2208 8.08598 10.5138 27.6209
316 2 2.2208 10.8804 18.888 27.6219
457 2 2.2208 5.30117 18.8886 16.464
458 1 -1.1104 1.11455 14.7005 17.858
459 1 -1.1104 1.11729 20.2832 17.8586
460 1 -1.1104 1.11449 14.7009 15.0689
461 1 -1.1104 1.11711 20.2839 15.0694
462 1 -1.1104 1.11589 17.4919 17.8585
463 2 2.2208 5.29969 16.0969 19.2531
464 2 2.2208 5.30257 21.6791 19.2537
465 1 -1.1104 1.1159 17.4924 15.069
466 1 -1.1104 3.90412 14.7003 17.8583
467 1 -1.1104 3.90695 20.2827 17.8589
468 2 2.2208 2.5115 18.8882 19.2533
469 1 -1.1104 3.90408 14.7006 15.0687
470 1 -1.1104 3.90693 20.2832 15.0693
471 2 2.2208 2.51006 16.0974 16.4636
472 2 2.2208 2.51274 21.68 16.4642
473 1 -1.1104 3.9056 17.4915 17.8583
474 1 -1.1104 3.90558 17.492 15.0693
627 1 -1.1104 1.11729 20.2825 20.6482
9405 2 2.2208 -0.278202 18.8895 16.4638
480 1 -1.1104 3.90704 20.282 20.6481
488 1 -1.1104 6.69374 14.7007 15.0691
485 1 -1.1104 6.69668 20.2821 20.6484
624 1 -1.1104 3.90561 17.491 20.6481
483 2 2.2208 -0.276842 21.6801 19.2534
9393 2 2.2208 -0.279461 16.0973 19.253
515 1 -1.1104 12.2727 14.7004 23.4368
484 1 -1.1104 9.48637 20.2822 23.4379
508 1 -1.1104 6.6953 17.4911 20.6477
486 1 -1.1104 12.2727 14.7008 20.6478
478 1 -1.1104 6.69525 17.4917 17.8587
477 1 -1.1104 6.69681 20.2829 17.8586
476 1 -1.1104 6.69528 17.4921 15.0689
487 1 -1.1104 6.69677 20.2835 15.0697
479 1 -1.1104 6.69375 14.7003 17.858
489 2 2.2208 10.8804 18.8901 16.4639
490 1 -1.1104 12.2728 14.7015 17.8579
491 1 -1.1104 12.276 20.2854 17.8582
492 1 -1.1104 12.2728 14.702 15.0691
493 1 -1.1104 12.276 20.2863 15.0696
494 1 -1.1104 12.2743 17.4934 17.8586
495 2 2.2208 10.8788 16.0978 19.253
496 2 2.2208 10.8818 21.6809 19.2534
497 1 -1.1104 12.2744 17.494 15.0688
498 1 -1.1104 9.48328 14.7008 17.8584
499 1 -1.1104 9.48641 20.2839 17.8589
500 2 2.2208 8.09082 18.8885 19.2533
501 1 -1.1104 9.48331 14.7012 15.0686
502 1 -1.1104 9.48651 20.2847 15.0691
503 2 2.2208 8.08929 16.0976 16.4637
504 2 2.2208 8.09232 21.6806 16.4642
505 1 -1.1104 9.48495 17.4924 17.8582
506 1 -1.1104 9.48491 17.4929 15.0694
507 1 -1.1104 12.2758 20.284 20.6481
511 1 -1.1104 9.4833 14.7003 20.6474
648 1 -1.1104 9.48644 20.2829 20.6478
426 2 2.2208 10.8787 16.0968 24.832
9404 2 2.2208 -0.287292 2.13969 22.0412
9178 2 2.2208 -0.287332 2.13965 27.6201
333 2 2.2208 2.50375 4.931 27.6203
518 2 2.2208 5.29164 2.13958 22.0412
519 1 -1.1104 1.10506 -2.04865 23.4355
520 1 -1.1104 1.10823 3.53427 23.4358
521 1 -1.1104 1.10508 -2.04865 26.2253
522 1 -1.1104 1.10824 3.53422 26.2256
523 1 -1.1104 1.10665 0.742836 23.436
524 2 2.2208 5.29005 -0.651919 24.8305
525 1 -1.1104 1.10661 0.742805 26.2251
526 1 -1.1104 3.89457 -2.04871 23.4359
527 1 -1.1104 3.89773 3.5342 23.4362
528 2 2.2208 2.50217 2.13956 24.8306
529 1 -1.1104 3.89451 -2.04868 26.225
530 1 -1.1104 3.89767 3.53416 26.2253
531 2 2.2208 2.50058 -0.65187 22.041
532 1 -1.1104 3.89608 0.742754 23.4356
533 1 -1.1104 3.89612 0.742736 26.2255
534 2 2.2208 5.29326 4.93097 24.8309
535 2 2.2208 2.5038 4.93107 22.0414
318 2 2.2208 2.50057 -0.651865 27.62
591 1 -1.1104 12.2727 14.7002 26.2268
9371 2 2.2208 -0.285677 4.93109 24.8309
9426 2 2.2208 -0.288872 -0.651832 24.8305
321 2 2.2208 5.29161 2.13954 27.6201
391 1 -1.1104 12.2644 0.742926 20.6462
394 1 -1.1104 12.2661 3.53452 20.6468
539 1 -1.1104 6.68557 0.742751 23.436
538 1 -1.1104 6.68716 3.53421 23.4358
545 1 -1.1104 6.68401 -2.04867 26.2253
536 1 -1.1104 6.68552 0.742762 26.2251
543 1 -1.1104 6.68716 3.53419 26.2256
537 1 -1.1104 6.68401 -2.04872 23.4355
548 2 2.2208 10.8705 2.13969 22.0412
549 1 -1.1104 12.2629 -2.04868 23.4355
550 1 -1.1104 12.266 3.53441 23.4359
551 1 -1.1104 12.2629 -2.04864 26.2253
552 1 -1.1104 12.266 3.53438 26.2257
553 1 -1.1104 12.2645 0.742874 23.436
554 2 2.2208 10.8689 -0.651851 24.8305
555 1 -1.1104 12.2644 0.742883 26.2252
556 1 -1.1104 9.47349 -2.04871 23.4359
557 1 -1.1104 9.47664 3.5343 23.4362
558 2 2.2208 8.08107 2.13958 24.8307
559 1 -1.1104 9.47343 -2.04867 26.225
560 1 -1.1104 9.47656 3.53428 26.2253
561 2 2.2208 8.0795 -0.651895 22.041
562 1 -1.1104 9.47498 0.742801 23.4357
563 1 -1.1104 9.47503 0.74282 26.2255
564 2 2.2208 10.8722 4.93115 24.8309
565 2 2.2208 8.08274 4.9311 22.0414
325 2 2.2208 10.8705 2.1397 27.6202
512 1 -1.1104 9.48483 17.4917 20.6481
652 2 2.2208 10.8803 18.8886 22.0427
324 2 2.2208 8.08267 4.93105 27.6204
326 2 2.2208 8.07951 -0.651831 27.62
336 2 2.2208 8.09244 21.6785 27.6223
9188 2 2.2208 -0.284092 7.72252 27.6206
570 1 -1.1104 1.11147 9.11728 20.6472
9177 2 2.2208 -0.280898 13.3052 27.6212
9454 2 2.2208 -0.284052 7.72265 22.0416
329 2 2.2208 2.507 10.5137 27.6209
571 1 -1.1104 3.89939 6.32574 20.6469
328 2 2.2208 5.29486 7.72237 27.6206
572 2 2.2208 5.29494 7.72248 22.0416
573 2 2.2208 5.29817 13.3052 22.0422
574 1 -1.1104 1.11149 9.11709 23.4363
575 1 -1.1104 1.11149 9.11701 26.2261
576 1 -1.1104 1.10988 6.3257 23.4364
577 1 -1.1104 1.1131 11.9084 23.4369
578 2 2.2208 5.29654 10.5137 24.8314
579 1 -1.1104 1.10982 6.32565 26.2256
580 1 -1.1104 1.11303 11.9083 26.2261
581 1 -1.1104 3.90103 9.11697 23.4367
582 2 2.2208 2.50542 7.72239 24.8311
583 2 2.2208 2.50865 13.305 24.8317
584 1 -1.1104 3.90092 9.1169 26.2258
585 2 2.2208 2.50707 10.5139 22.0419
586 1 -1.1104 3.89935 6.3256 23.436
587 1 -1.1104 3.9026 11.9083 23.4366
588 1 -1.1104 3.89936 6.32554 26.2259
589 1 -1.1104 3.90261 11.9082 26.2265
9283 2 2.2208 -0.282434 10.5139 24.8314
9394 2 2.2208 -0.280886 13.3055 22.0422
422 1 -1.1104 6.69213 11.9086 20.6471
593 1 -1.1104 6.69047 9.11694 26.2262
599 1 -1.1104 6.69206 11.9083 26.2261
330 2 2.2208 10.8738 7.72265 27.6207
600 1 -1.1104 6.69213 11.9084 23.437
592 1 -1.1104 6.69048 9.11702 23.4363
598 1 -1.1104 6.68885 6.32563 23.4364
590 1 -1.1104 6.68877 6.32559 26.2255
601 1 -1.1104 9.47997 9.1172 23.4367
602 1 -1.1104 12.271 11.9088 26.2262
603 1 -1.1104 12.2676 6.32589 26.2256
604 2 2.2208 10.8755 10.5141 24.8315
605 1 -1.1104 12.271 11.9089 23.437
606 1 -1.1104 12.2677 6.32593 23.4365
607 1 -1.1104 12.2694 9.11736 26.2263
608 1 -1.1104 12.2694 9.11743 23.4364
609 1 -1.1104 9.4816 11.9085 26.2265
610 1 -1.1104 9.47829 6.32572 26.2259
611 1 -1.1104 9.4816 11.9086 23.4366
612 1 -1.1104 9.47829 6.32575 23.4361
613 2 2.2208 8.08606 10.514 22.0419
614 1 -1.1104 9.47988 9.11713 26.2258
615 2 2.2208 8.08766 13.3052 24.8317
616 2 2.2208 8.08438 7.72245 24.8311
617 2 2.2208 10.8738 7.72276 22.0417
618 2 2.2208 10.8772 13.3057 22.0422
475 1 -1.1104 1.11604 17.4913 20.6477
481 1 -1.1104 3.90418 14.6998 20.6475
626 1 -1.1104 1.11459 14.7 20.6477
568 1 -1.1104 6.69688 20.2815 26.2275
9252 2 2.2208 -0.277981 18.8881 22.0427
320 2 2.2208 5.30132 18.8873 27.6219
334 2 2.2208 2.5102 16.0962 27.6215
628 2 2.2208 2.51298 21.6786 22.0431
629 1 -1.1104 3.90568 17.4906 23.4373
630 1 -1.1104 1.1161 17.4909 23.4375
631 1 -1.1104 3.90415 14.6994 26.2264
632 1 -1.1104 3.90578 17.4905 26.2271
633 2 2.2208 2.51168 18.8873 24.8323
634 1 -1.1104 3.9072 20.2814 26.2272
635 2 2.2208 5.30119 18.8875 22.0428
636 1 -1.1104 1.11463 14.6997 23.4369
637 1 -1.1104 1.11752 20.2819 23.4375
638 2 2.2208 5.29976 16.0962 24.832
639 2 2.2208 5.30276 21.6782 24.8327
640 1 -1.1104 1.11467 14.6995 26.2268
641 1 -1.1104 1.11614 17.4907 26.2268
642 1 -1.1104 1.11768 20.2817 26.2274
643 1 -1.1104 3.9042 14.6995 23.4373
644 1 -1.1104 3.90713 20.2816 23.4379
645 2 2.2208 2.51015 16.0965 22.0425
625 1 -1.1104 6.69678 20.2817 23.4376
9174 2 2.2208 -0.277791 18.8876 27.6218
9370 2 2.2208 -0.279343 16.0965 24.832
567 2 2.2208 -0.276406 21.6787 24.8325
335 2 2.2208 2.51329 21.6783 27.6223
621 1 -1.1104 12.2759 20.2827 26.2274
456 1 -1.1104 9.48484 17.4912 23.4371
482 1 -1.1104 6.69375 14.6999 20.6478
619 1 -1.1104 9.48489 17.4909 26.2271
650 1 -1.1104 12.2744 17.4925 20.6475
510 1 -1.1104 9.48326 14.6999 23.4373
595 1 -1.1104 6.69374 14.6995 26.2268
649 1 -1.1104 6.69373 14.6996 23.4369
596 1 -1.1104 6.69527 17.4907 23.4376
646 1 -1.1104 9.48636 20.282 26.227
622 2 2.2208 8.09082 18.8875 24.8323
364 2 2.2208 8.08929 16.0967 22.0425
623 2 2.2208 10.8819 21.6792 24.8326
509 1 -1.1104 9.48318 14.6998 26.2264
594 1 -1.1104 12.2759 20.2831 23.4372
337 2 2.2208 8.08927 16.0964 27.6216
647 1 -1.1104 12.2743 17.4915 26.2267
597 1 -1.1104 6.69529 17.4906 26.2268
327 2 2.2208 5.29814 13.305 27.6212
8491 2 2.2208 10.8674 -3.44328 27.6198
8743 2 2.2208 10.8673 -3.44341 22.0409
8660 2 2.2208 2.49898 -3.44334 19.2515
17552 2 2.2208 -0.290458 -3.44332 22.0409
8717 2 2.2208 8.07791 -3.44335 19.2515
8655 2 2.2208 5.28843 -3.44327 16.4621
17524 2 2.2208 -0.290512 -3.44325 16.4621
8712 2 2.2208 10.8673 -3.44324 16.4621
8739 2 2.2208 5.28848 -3.44338 22.0409
17311 2 2.2208 -0.290442 -3.44327 27.6198
8483 2 2.2208 5.28851 -3.4433 27.6198
8626 2 2.2208 2.49903 -3.44333 24.8304
8740 2 2.2208 8.07797 -3.44337 24.8304
676 2 2.2208 5.30446 24.4699 5.30741
677 2 2.2208 5.30828 30.0514 5.30838
678 1 -1.1104 1.12074 25.8635 1.12308
679 1 -1.1104 1.12082 25.8642 3.91296
680 1 -1.1104 1.1193 23.0728 1.12295
681 1 -1.1104 1.12288 28.6542 1.12386
682 2 2.2208 5.30641 27.2602 2.5185
683 1 -1.1104 1.119 23.0734 3.9123
684 1 -1.1104 1.12237 28.6549 3.9131
685 1 -1.1104 3.91062 25.8631 1.12358
686 2 2.2208 2.51495 24.4695 2.51786
687 2 2.2208 2.5193 30.051 2.51884
688 1 -1.1104 3.91032 25.8636 3.91273
689 2 2.2208 2.51651 27.261 5.30776
690 1 -1.1104 3.90877 23.0724 1.12276
691 1 -1.1104 3.91231 28.6537 1.12373
692 1 -1.1104 3.90892 23.0729 3.91261
693 1 -1.1104 3.91242 28.6541 3.91367
695 1 -1.1104 6.70034 25.8637 3.91328
703 1 -1.1104 6.69992 25.8643 6.70223
697 1 -1.1104 3.90849 23.0735 6.70177
855 1 -1.1104 1.12193 28.656 6.7028
705 1 -1.1104 1.11898 23.0742 6.70194
854 1 -1.1104 6.70189 28.6546 6.7033
704 1 -1.1104 3.91156 28.6548 6.7027
696 1 -1.1104 3.91026 25.8642 6.7025
701 1 -1.1104 6.69842 23.073 3.91227
698 1 -1.1104 1.1201 25.8653 6.70227
880 1 -1.1104 6.69857 23.0736 6.7022
931 2 2.2208 -0.274918 24.471 5.30731
928 2 2.2208 -0.272795 27.2609 2.51811
1354 2 2.2208 2.51849 41.2124 13.675
700 1 -1.1104 6.70197 28.6542 3.9133
694 1 -1.1104 6.70223 28.6539 1.12444
699 1 -1.1104 6.70009 25.8632 1.12326
702 1 -1.1104 6.69859 23.0725 1.12318
706 2 2.2208 10.8837 24.4717 5.30761
707 2 2.2208 10.8871 30.0541 5.3089
708 1 -1.1104 12.2791 25.8651 1.12311
709 1 -1.1104 12.2796 25.8661 3.91351
710 1 -1.1104 12.2777 23.074 1.12317
711 1 -1.1104 12.2812 28.6559 1.12427
712 2 2.2208 10.8853 27.2618 2.5186
713 1 -1.1104 12.2775 23.0749 3.91234
714 1 -1.1104 12.2811 28.6571 3.91348
715 1 -1.1104 9.48994 25.864 1.12378
716 2 2.2208 8.09416 24.4698 2.51801
717 2 2.2208 8.09788 30.0516 2.51934
718 1 -1.1104 9.48976 25.8646 3.9128
719 2 2.2208 8.09587 27.2614 5.30804
720 1 -1.1104 9.488 23.0731 1.12271
721 1 -1.1104 9.49151 28.6547 1.12388
722 1 -1.1104 9.48833 23.0737 3.91286
723 1 -1.1104 9.49201 28.6554 3.91415
726 1 -1.1104 9.48804 23.0746 6.70178
725 1 -1.1104 9.49013 25.8656 6.70302
731 2 2.2208 -0.23694 44.0085 8.09377
1346 2 2.2208 5.30204 38.4178 13.6772
732 2 2.2208 5.31492 35.6347 5.30999
733 1 -1.1104 1.12511 31.4444 1.12377
734 1 -1.1104 1.13289 37.0252 1.1245
735 1 -1.1104 1.12513 31.4453 3.91405
736 1 -1.1104 1.13323 37.0263 3.91575
737 1 -1.1104 1.12863 34.2353 1.12529
738 2 2.2208 5.31169 32.8425 2.52015
739 2 2.2208 5.32181 38.4283 2.52283
740 1 -1.1104 1.12827 34.2356 3.91358
741 1 -1.1104 3.91498 31.4444 1.12511
742 1 -1.1104 3.92243 37.0266 1.12773
743 2 2.2208 2.52762 35.6334 2.52029
744 1 -1.1104 3.91456 31.4446 3.91372
745 1 -1.1104 3.92191 37.0262 3.91484
746 2 2.2208 2.52208 32.8426 5.30873
747 2 2.2208 2.53332 38.426 5.3099
748 1 -1.1104 3.9178 34.2349 1.12517
749 1 -1.1104 3.91794 34.2352 3.91543
753 1 -1.1104 3.91969 37.025 6.70571
751 1 -1.1104 6.70724 34.2353 3.91476
752 1 -1.1104 1.12668 34.2368 6.70407
758 1 -1.1104 6.71141 37.026 3.91718
755 1 -1.1104 3.91371 31.4448 6.70362
766 1 -1.1104 6.7042 31.4445 1.12476
761 1 -1.1104 1.12342 31.4469 6.70309
1352 2 2.2208 10.8868 32.8549 13.6769
904 2 2.2208 -0.266703 32.8417 2.5186
1353 2 2.2208 5.30549 43.9939 13.6719
763 2 2.2208 -0.239855 44.0082 2.51981
902 2 2.2208 -0.256338 41.2183 10.8855
905 2 2.2208 -0.270976 30.0529 5.30804
767 1 -1.1104 6.70449 31.4446 3.91467