ITEM: TIMESTEP
353
ITEM: NUMBER OF ATOMS
17680
ITEM: BOX BOUNDS pp pp pp
-2.7717828229332220e-01 2.7617178282293317e+01
-3.4472205766305355e+00 3.3152722057663055e+02
-2.7717827830221448e-01 2.7617178278302212e+01
ITEM: ATOMS id type q x y z
1 2 2.2208 5.25545 2.13771 5.33812
2 1 -1.1104 1.06774 -2.05018 1.15384
3 1 -1.1104 1.07248 3.53248 1.15365
4 1 -1.1104 1.06768 -2.05017 3.94378
5 1 -1.1104 1.07241 3.5325 3.9436
6 1 -1.1104 1.07009 0.741144 1.15428
7 2 2.2208 5.25311 -0.653608 2.54877
8 1 -1.1104 1.07004 0.741167 3.94322
9 1 -1.1104 3.85723 -2.05023 1.15434
10 1 -1.1104 3.86193 3.5324 1.15416
11 2 2.2208 2.466 2.13775 2.54869
12 1 -1.1104 3.85717 -2.05018 3.94329
13 1 -1.1104 3.86194 3.53243 3.94309
14 2 2.2208 2.46357 -0.653574 5.33822
15 2 2.2208 2.46838 4.92908 5.33797
16 1 -1.1104 3.85958 0.741097 1.15378
17 1 -1.1104 3.85951 0.74112 3.94373
18 2 2.2208 5.25789 4.92902 2.54851
20 1 -1.1104 1.06995 0.74115 6.73316
22 1 -1.1104 1.06761 -2.05018 6.73272
26 1 -1.1104 3.86185 3.53242 6.73305
30 2 2.2208 5.25071 -3.44504 10.9171
28 1 -1.1104 3.8571 -2.05021 6.73322
21 1 -1.1104 3.85947 0.741105 6.73266
27 1 -1.1104 1.0724 3.5325 6.73254
83 2 2.2208 13.6386 18.8875 8.12584
19 1 -1.1104 6.64671 -2.05026 1.15383
35 1 -1.1104 6.64666 -2.05024 3.94377
31 1 -1.1104 6.64901 0.741101 3.9432
23 1 -1.1104 6.65139 3.53241 3.9436
32 1 -1.1104 6.64904 0.74106 1.15427
33 1 -1.1104 6.65145 3.53239 1.15361
36 2 2.2208 10.8344 2.13784 5.33807
37 1 -1.1104 12.2256 -2.0502 1.15373
38 1 -1.1104 12.2304 3.53258 1.15354
39 1 -1.1104 12.2256 -2.05019 3.94369
40 1 -1.1104 12.2303 3.53263 3.94356
41 1 -1.1104 12.228 0.741188 1.15419
42 2 2.2208 10.832 -0.653564 2.5487
43 1 -1.1104 12.2279 0.741233 3.94312
44 1 -1.1104 9.43618 -2.05024 1.15429
45 1 -1.1104 9.4409 3.53245 1.15411
46 2 2.2208 8.04497 2.13772 2.54866
47 1 -1.1104 9.43614 -2.05021 3.94323
48 1 -1.1104 9.4409 3.5325 3.94304
49 2 2.2208 8.04255 -0.653588 5.33819
50 1 -1.1104 9.43852 0.741129 1.15371
51 1 -1.1104 9.43847 0.741139 3.94368
52 2 2.2208 8.04737 4.9291 5.33794
53 2 2.2208 10.8368 4.92918 2.54846
56 1 -1.1104 9.43845 0.741184 6.73262
24 1 -1.1104 6.64661 -2.05022 6.73272
57 1 -1.1104 12.2303 3.53271 6.73246
206 1 -1.1104 12.2279 0.741254 6.73311
34 1 -1.1104 6.65139 3.53243 6.73251
58 1 -1.1104 12.2255 -2.05016 6.73265
59 1 -1.1104 9.43609 -2.0502 6.73319
9142 2 2.2208 13.641 21.6803 10.9146
55 1 -1.1104 6.64894 0.741093 6.73317
54 1 -1.1104 9.44085 3.53254 6.73304
178 2 2.2208 2.46122 -3.44495 8.12769
62 2 2.2208 5.26033 7.72033 5.33772
63 2 2.2208 5.2652 13.3028 5.33705
64 1 -1.1104 1.07729 9.11507 1.15318
65 1 -1.1104 1.07727 9.11513 3.94311
66 1 -1.1104 1.07485 6.32379 1.15393
67 1 -1.1104 1.07961 11.9063 1.1533
68 2 2.2208 5.26274 10.5115 2.54793
69 1 -1.1104 1.07489 6.32383 3.94289
70 1 -1.1104 1.07971 11.9064 3.94234
71 1 -1.1104 3.86672 9.11492 1.15363
72 2 2.2208 2.47082 7.72037 2.54827
73 2 2.2208 2.47561 13.3028 2.54763
74 1 -1.1104 3.86682 9.11496 3.9426
75 2 2.2208 2.47328 10.5117 5.33744
76 1 -1.1104 3.86437 6.32368 1.15342
77 1 -1.1104 3.86918 11.9061 1.15279
78 1 -1.1104 3.86434 6.3237 3.9434
79 1 -1.1104 3.86917 11.9062 3.94278
89 2 2.2208 8.04029 -3.44495 2.54879
80 1 -1.1104 1.07735 9.11519 6.73209
87 1 -1.1104 1.07483 6.32385 6.73283
85 1 -1.1104 3.86928 11.9063 6.73173
125 2 2.2208 5.25076 -3.44491 5.33825
121 1 -1.1104 6.65382 6.32375 6.73286
60 2 2.2208 13.6362 16.0962 10.9155
236 1 -1.1104 9.45083 14.6983 9.52068
95 1 -1.1104 6.65874 11.9062 3.94221
82 1 -1.1104 6.65863 11.9061 1.15326
93 1 -1.1104 6.65627 9.11491 1.15307
81 1 -1.1104 6.65387 6.32371 3.94286
92 1 -1.1104 6.65626 9.11496 3.9431
94 1 -1.1104 6.65382 6.32367 1.15393
96 2 2.2208 10.8393 7.72064 5.33769
97 2 2.2208 10.8442 13.3034 5.33708
98 1 -1.1104 12.2352 9.11529 1.15304
99 1 -1.1104 12.2352 9.11544 3.94311
100 1 -1.1104 12.2327 6.32393 1.15391
101 1 -1.1104 12.2376 11.9066 1.15331
102 2 2.2208 10.8417 10.5119 2.54791
103 1 -1.1104 12.2328 6.32404 3.94281
104 1 -1.1104 12.2377 11.9068 3.94223
105 1 -1.1104 9.44571 9.11507 1.15361
106 2 2.2208 8.0498 7.72036 2.54823
107 2 2.2208 8.05466 13.3028 2.54756
108 1 -1.1104 9.44578 9.11515 3.94253
109 2 2.2208 8.05226 10.5117 5.33739
110 1 -1.1104 9.44334 6.32378 1.15336
111 1 -1.1104 9.44818 11.9063 1.15269
112 1 -1.1104 9.4433 6.32384 3.94339
113 1 -1.1104 9.44819 11.9064 3.94279
119 1 -1.1104 12.2377 11.9071 6.7323
116 1 -1.1104 9.44334 6.3239 6.73228
117 1 -1.1104 12.2353 9.1156 6.73198
122 1 -1.1104 9.44828 11.9066 6.73165
118 1 -1.1104 6.65634 9.11504 6.73202
114 1 -1.1104 9.44578 9.11526 6.73258
180 2 2.2208 13.6337 13.3041 8.12655
203 2 2.2208 13.6361 16.0953 5.33683
128 2 2.2208 5.26999 18.885 5.33623
129 1 -1.1104 1.08204 14.6974 1.15252
130 1 -1.1104 1.0867 20.2795 1.15163
131 1 -1.1104 1.08202 14.6976 3.94245
132 1 -1.1104 1.08665 20.2798 3.9415
133 1 -1.1104 1.08432 17.4885 1.15253
134 2 2.2208 5.26756 16.0938 2.54719
135 2 2.2208 5.27235 21.6755 2.54623
136 1 -1.1104 1.08439 17.4887 3.94163
137 1 -1.1104 3.87151 14.6972 1.15291
138 1 -1.1104 3.87625 20.279 1.15196
139 2 2.2208 2.48034 18.8849 2.5468
140 1 -1.1104 3.87161 14.6973 3.94192
141 1 -1.1104 3.87633 20.2792 3.94101
142 2 2.2208 2.47803 16.0941 5.33673
143 2 2.2208 2.48269 21.6762 5.33571
144 1 -1.1104 3.87396 17.4881 1.15201
145 1 -1.1104 3.87393 17.4883 3.94199
146 1 -1.1104 3.87162 14.6975 6.73187
204 2 2.2208 13.6385 18.8862 2.54696
156 1 -1.1104 6.66361 17.4887 6.73147
152 1 -1.1104 6.66112 14.6972 1.15234
291 1 -1.1104 3.87401 17.4886 6.73097
151 1 -1.1104 3.87631 20.2796 6.73091
150 1 -1.1104 1.08211 14.6978 6.73149
154 1 -1.1104 6.66122 14.6975 6.73131
148 1 -1.1104 6.6635 17.4881 1.15248
149 1 -1.1104 6.66357 17.4883 3.94143
155 1 -1.1104 6.66598 20.2789 1.15144
153 1 -1.1104 6.66111 14.6973 3.94241
147 1 -1.1104 6.66598 20.2792 3.94153
157 2 2.2208 10.8491 18.886 5.33634
158 1 -1.1104 12.2401 14.6979 1.15238
159 1 -1.1104 12.2451 20.2801 1.15153
160 1 -1.1104 12.2401 14.6981 3.94254
161 1 -1.1104 12.2452 20.2807 3.94184
162 1 -1.1104 12.2426 17.4891 1.15264
163 2 2.2208 10.8466 16.0944 2.54724
164 2 2.2208 10.8516 21.6766 2.54641
165 1 -1.1104 12.2426 17.4894 3.94153
166 1 -1.1104 9.45059 14.6974 1.15293
167 1 -1.1104 9.45555 20.2794 1.15211
168 2 2.2208 8.05956 18.8849 2.54677
169 1 -1.1104 9.45068 14.6976 3.94184
170 1 -1.1104 9.45563 20.2798 3.94099
171 2 2.2208 8.05716 16.0942 5.33668
172 2 2.2208 8.06209 21.6763 5.33576
173 1 -1.1104 9.45313 17.4885 1.15191
174 1 -1.1104 9.45314 17.4888 3.9421
321 1 -1.1104 9.45572 20.2804 6.73117
318 1 -1.1104 6.66605 20.2796 6.73038
176 1 -1.1104 9.45321 17.4892 6.7309
312 1 -1.1104 12.2427 17.4901 6.73169
175 1 -1.1104 9.45073 14.698 6.73193
124 1 -1.1104 9.45336 17.49 12.3095
316 2 2.2208 8.05966 18.8858 8.12564
8977 2 2.2208 13.6411 21.6784 5.33607
91 2 2.2208 2.46131 -3.4449 2.54881
90 2 2.2208 10.8297 -3.44493 5.3382
229 2 2.2208 13.6336 13.3035 2.54764
29 2 2.2208 10.8296 -3.44498 10.9171
181 2 2.2208 5.25538 2.13763 10.917
182 1 -1.1104 1.0676 -2.05037 12.3116
183 1 -1.1104 1.07237 3.53236 12.3114
184 1 -1.1104 1.06757 -2.05027 9.52264
185 1 -1.1104 1.07232 3.53245 9.52248
186 1 -1.1104 1.06988 0.740984 12.312
187 2 2.2208 5.25302 -0.653635 8.12765
188 2 2.2208 5.25785 4.92902 8.12741
189 1 -1.1104 1.06993 0.741072 9.52209
190 1 -1.1104 3.85707 -2.05038 12.3121
191 1 -1.1104 3.86181 3.5323 12.3119
192 2 2.2208 2.4659 2.13771 8.12757
193 1 -1.1104 3.85709 -2.05028 9.52216
194 1 -1.1104 3.86187 3.53236 9.52198
195 2 2.2208 2.4635 -0.653711 10.9171
196 2 2.2208 2.46835 4.929 10.9168
197 1 -1.1104 3.85942 0.740952 12.3115
198 1 -1.1104 3.85939 0.741026 9.5226
265 2 2.2208 13.6238 2.13801 8.1275
230 2 2.2208 13.6191 -3.44494 8.12761
202 2 2.2208 13.6214 -0.653461 10.917
231 2 2.2208 13.6287 7.72074 2.54821
179 2 2.2208 8.04021 -3.44495 8.12767
257 2 2.2208 13.6311 10.5123 5.33742
287 2 2.2208 13.6262 4.92956 10.9168
315 1 -1.1104 12.2427 17.4911 12.3103
200 1 -1.1104 6.64658 -2.05035 12.3116
207 1 -1.1104 6.65133 3.53241 9.52251
208 1 -1.1104 6.64888 0.741005 12.3121
209 1 -1.1104 6.64894 0.741079 9.52209
210 1 -1.1104 6.64657 -2.05026 9.52266
201 1 -1.1104 6.65135 3.53238 12.3114
211 2 2.2208 10.8343 2.13789 10.917
212 1 -1.1104 12.2255 -2.05019 12.3115
213 1 -1.1104 12.2303 3.5328 12.3113
214 1 -1.1104 12.2255 -2.05018 9.52261
215 1 -1.1104 12.2303 3.53276 9.52247
216 1 -1.1104 12.2278 0.741286 12.312
217 2 2.2208 10.832 -0.653528 8.12761
218 1 -1.1104 12.2279 0.741299 9.52203
219 1 -1.1104 9.43605 -2.05028 12.3121
220 1 -1.1104 9.4408 3.53255 12.3119
221 2 2.2208 8.04489 2.13776 8.12755
222 1 -1.1104 9.43607 -2.05023 9.52214
223 1 -1.1104 9.44085 3.53257 9.52194
224 2 2.2208 8.04249 -0.653642 10.9171
225 2 2.2208 8.04733 4.92911 10.9168
226 1 -1.1104 9.4384 0.741133 12.3115
227 1 -1.1104 9.4384 0.741158 9.52261
228 2 2.2208 10.8368 4.9293 8.12738
260 2 2.2208 13.6192 -3.44494 2.5487
84 1 -1.1104 1.07972 11.9065 6.73226
88 1 -1.1104 3.86679 9.11501 6.73257
86 1 -1.1104 3.86437 6.32372 6.73233
264 2 2.2208 13.6262 4.92942 5.33791
199 2 2.2208 13.6239 2.13791 2.54858
234 1 -1.1104 9.45578 20.2811 9.51975
205 1 -1.1104 12.2427 17.4906 9.52033
239 2 2.2208 5.26034 7.72035 10.9166
240 2 2.2208 5.26529 13.3031 10.9159
241 1 -1.1104 1.07738 9.11518 12.3109
242 1 -1.1104 1.07732 9.1152 9.522
243 1 -1.1104 1.07481 6.32377 12.3117
244 1 -1.1104 1.07975 11.9066 12.3111
245 2 2.2208 5.26282 10.5117 8.12685
246 1 -1.1104 1.07488 6.32382 9.52176
247 1 -1.1104 1.07981 11.9066 9.52122
248 1 -1.1104 3.86682 9.11503 12.3114
249 2 2.2208 2.47085 7.7204 8.12717
250 2 2.2208 2.47572 13.303 8.12655
251 1 -1.1104 3.86688 9.11503 9.52149
252 2 2.2208 2.47334 10.5118 10.9163
253 1 -1.1104 3.86436 6.32366 12.3112
254 1 -1.1104 3.86936 11.9064 12.3105
255 1 -1.1104 3.86431 6.3237 9.52229
256 1 -1.1104 3.86926 11.9064 9.52166
268 1 -1.1104 6.65632 9.1151 9.52201
261 2 2.2208 13.6214 -0.65348 5.33811
233 1 -1.1104 12.2403 14.6992 12.31
120 1 -1.1104 6.65875 11.9063 6.73224
266 1 -1.1104 6.65882 11.9065 12.3111
258 1 -1.1104 6.6564 9.11513 12.3108
115 1 -1.1104 12.2328 6.32415 6.73283
267 1 -1.1104 6.6538 6.32374 12.3117
263 1 -1.1104 6.65886 11.9064 9.52109
259 1 -1.1104 6.65386 6.32375 9.52174
269 1 -1.1104 9.44831 11.9068 9.52168
270 1 -1.1104 9.44329 6.32399 9.52231
271 1 -1.1104 9.44841 11.907 12.3104
272 1 -1.1104 9.44335 6.32398 12.3111
273 2 2.2208 8.05234 10.5119 10.9162
274 1 -1.1104 9.44587 9.11541 9.5214
275 2 2.2208 8.05477 13.3032 8.12648
276 2 2.2208 8.04983 7.72048 8.12715
277 2 2.2208 10.8393 7.72081 10.9165
278 2 2.2208 10.8443 13.3039 10.9159
279 1 -1.1104 12.2353 9.11587 12.3108
280 1 -1.1104 12.2353 9.11578 9.52202
281 1 -1.1104 12.2327 6.32431 12.3117
282 1 -1.1104 12.2378 11.9075 12.3111
283 2 2.2208 10.8418 10.5122 8.12683
284 1 -1.1104 12.2328 6.32425 9.52169
285 1 -1.1104 12.2378 11.9073 9.52109
286 1 -1.1104 9.44582 9.11546 12.3114
314 1 -1.1104 6.66608 20.2802 9.52038
311 1 -1.1104 6.66124 14.6978 9.52129
292 1 -1.1104 1.08437 17.489 6.73148
290 1 -1.1104 6.66371 17.489 9.52025
126 2 2.2208 13.6287 7.72101 8.12713
288 1 -1.1104 6.66135 14.6979 12.31
313 1 -1.1104 6.66366 17.4892 12.3102
123 1 -1.1104 12.2453 20.2832 12.309
323 1 -1.1104 12.2452 20.2815 6.73058
289 1 -1.1104 1.08668 20.2801 6.7306
293 1 -1.1104 1.08434 17.4894 12.3102
294 2 2.2208 2.47808 16.0945 10.9155
295 2 2.2208 2.48263 21.6769 10.9144
296 1 -1.1104 3.87408 17.489 12.3097
297 1 -1.1104 3.87628 20.2801 12.3096
298 1 -1.1104 3.87167 14.6977 12.3107
299 1 -1.1104 1.08659 20.2805 9.52031
300 1 -1.1104 1.08443 17.4893 9.52049
301 2 2.2208 5.27243 21.6764 8.12505
302 1 -1.1104 1.08209 14.6979 9.52131
303 2 2.2208 5.26764 16.0942 8.1261
304 1 -1.1104 1.08666 20.2807 12.3093
305 1 -1.1104 1.08217 14.698 12.3103
306 2 2.2208 5.27005 18.8856 10.9149
307 1 -1.1104 3.87637 20.2799 9.51981
308 2 2.2208 2.48037 18.8855 8.12568
309 1 -1.1104 3.87399 17.4888 9.52084
310 1 -1.1104 3.87171 14.6976 9.5208
237 1 -1.1104 12.2453 20.2825 9.52066
177 2 2.2208 13.6312 10.5127 10.9162
232 2 2.2208 10.8467 16.0951 8.12614
319 2 2.2208 8.05726 16.0948 10.9154
324 2 2.2208 10.8492 18.8871 10.915
322 1 -1.1104 12.2402 14.6985 6.73136
61 1 -1.1104 9.45576 20.2816 12.3097
325 1 -1.1104 12.2402 14.699 9.52139
238 1 -1.1104 9.45326 17.4897 9.52094
262 1 -1.1104 6.66619 20.2805 12.309
235 1 -1.1104 9.45081 14.6985 12.3107
317 2 2.2208 10.8517 21.6782 8.12528
320 2 2.2208 8.06219 21.6775 10.9144
332 2 2.2208 10.8298 -3.44497 -0.240718
343 2 2.2208 8.0571 16.0938 -0.242351
331 2 2.2208 10.8491 18.8852 -0.242749
342 2 2.2208 8.06197 21.6755 -0.243278
9183 2 2.2208 13.6409 21.677 -0.243128
327 2 2.2208 13.636 16.0947 -0.242241
335 2 2.2208 5.26512 13.3026 -0.241935
330 2 2.2208 13.6311 10.512 -0.241572
326 2 2.2208 5.25085 -3.44496 -0.240626
334 2 2.2208 2.46368 -0.653618 -0.240661
333 2 2.2208 2.46841 4.92903 -0.240927
338 2 2.2208 13.6215 -0.653539 -0.2408
337 2 2.2208 5.25551 2.13767 -0.24076
340 2 2.2208 8.04738 4.92903 -0.240975
339 2 2.2208 10.8345 2.13778 -0.240841
341 2 2.2208 8.04262 -0.65363 -0.240699
345 2 2.2208 5.2603 7.72026 -0.241222
344 2 2.2208 2.47319 10.5115 -0.241527
328 2 2.2208 10.8441 13.303 -0.241942
346 2 2.2208 10.8392 7.72048 -0.241254
329 2 2.2208 8.0522 10.5116 -0.241594
349 2 2.2208 2.48267 21.6756 -0.24326
347 2 2.2208 5.26994 18.8845 -0.242781
348 2 2.2208 2.47798 16.0938 -0.242265
336 2 2.2208 13.6263 4.92928 -0.241026
350 2 2.2208 5.2554 2.13752 16.4959
351 1 -1.1104 1.06764 -2.05044 17.8905
352 1 -1.1104 1.07239 3.53229 17.8902
353 1 -1.1104 1.06759 -2.05043 15.1015
354 1 -1.1104 1.07233 3.53232 15.1013
355 1 -1.1104 1.06997 0.740932 17.8909
356 2 2.2208 5.25309 -0.65383 19.2854
357 2 2.2208 5.25784 4.92888 19.2851
358 1 -1.1104 1.06994 0.740926 15.1009
359 1 -1.1104 3.85715 -2.05047 17.891
360 1 -1.1104 3.86184 3.53223 17.8908
361 2 2.2208 2.46595 2.13754 19.2853
362 1 -1.1104 3.85711 -2.05046 15.101
363 1 -1.1104 3.86185 3.53224 15.1008
364 2 2.2208 2.46354 -0.653829 16.496
365 1 -1.1104 3.85949 0.740853 17.8904
366 1 -1.1104 3.85941 0.740892 15.1015
367 2 2.2208 2.46835 4.9289 16.4957
380 2 2.2208 2.46137 -3.44501 24.8643
585 1 -1.1104 12.2426 17.4889 26.2567
527 2 2.2208 10.8298 -3.44511 22.0748
377 1 -1.1104 3.85952 0.740909 20.6803
385 1 -1.1104 6.64666 -2.05048 17.8905
407 1 -1.1104 6.64904 0.740924 20.6798
379 1 -1.1104 1.06771 -2.05039 20.6804
378 1 -1.1104 3.85722 -2.05043 20.6799
384 2 2.2208 13.6385 18.8859 24.862
382 1 -1.1104 6.64895 0.74093 15.101
610 1 -1.1104 9.45067 14.6974 26.2571
368 1 -1.1104 6.65137 3.53229 17.8902
386 1 -1.1104 6.6466 -2.05044 15.1015
373 1 -1.1104 6.64896 0.740909 17.8909
370 1 -1.1104 6.65131 3.53232 15.1013
387 2 2.2208 10.8344 2.13783 16.4958
388 1 -1.1104 12.2256 -2.05032 17.8904
389 1 -1.1104 12.2303 3.53271 17.8901
390 1 -1.1104 12.2255 -2.05027 15.1015
391 1 -1.1104 12.2303 3.53277 15.1013
392 1 -1.1104 12.2279 0.741194 17.8908
393 2 2.2208 10.832 -0.653686 19.2853
394 2 2.2208 10.8368 4.92925 19.285
395 1 -1.1104 12.2279 0.741253 15.1009
396 1 -1.1104 9.43613 -2.05041 17.8909
397 1 -1.1104 9.44081 3.53247 17.8907
398 2 2.2208 8.04492 2.13762 19.2853
399 1 -1.1104 9.4361 -2.05036 15.101
400 1 -1.1104 9.44084 3.53253 15.1008
401 2 2.2208 8.04253 -0.653773 16.496
402 2 2.2208 8.04731 4.92905 16.4957
403 1 -1.1104 9.43847 0.741024 17.8904
404 1 -1.1104 9.4384 0.741075 15.1015
410 1 -1.1104 6.64671 -2.05043 20.6804
405 1 -1.1104 9.44089 3.53243 20.6796
409 1 -1.1104 9.43849 0.741018 20.6803
408 1 -1.1104 9.43618 -2.0504 20.6798
553 1 -1.1104 12.228 0.741173 20.6797
374 1 -1.1104 12.2425 17.4892 23.4678
406 1 -1.1104 12.2256 -2.05032 20.6803
554 1 -1.1104 12.2303 3.53264 20.6801
9479 2 2.2208 13.6409 21.6777 22.0717
581 2 2.2208 10.8491 18.8857 22.0724
381 2 2.2208 13.6361 16.0951 22.0729
495 2 2.2208 2.4613 -3.44516 19.2854
413 2 2.2208 5.26032 7.72029 16.4954
414 2 2.2208 5.2653 13.303 16.4946
415 1 -1.1104 1.07735 9.11507 17.8897
416 1 -1.1104 1.07729 9.11513 15.1008
417 1 -1.1104 1.07479 6.32369 17.8905
418 1 -1.1104 1.0797 11.9064 17.8898
419 2 2.2208 5.26279 10.5116 19.2844
420 1 -1.1104 1.07487 6.32371 15.1006
421 1 -1.1104 1.07982 11.9065 15.1
422 1 -1.1104 3.86676 9.11492 17.8902
423 2 2.2208 2.47082 7.72026 19.2848
424 2 2.2208 2.4757 13.3029 19.284
425 1 -1.1104 3.86688 9.11499 15.1003
426 2 2.2208 2.47332 10.5117 16.495
427 1 -1.1104 3.86434 6.32357 17.89
428 1 -1.1104 3.86934 11.9063 17.8892
429 1 -1.1104 3.8643 6.32361 15.1011
430 1 -1.1104 3.86927 11.9063 15.1004
431 1 -1.1104 1.07977 11.9063 20.6787
441 1 -1.1104 6.65378 6.32366 17.8905
435 1 -1.1104 1.07487 6.32368 20.6794
439 1 -1.1104 3.86917 11.9061 20.6792
411 2 2.2208 5.25084 -3.44511 22.0749
442 1 -1.1104 6.65631 9.1151 15.1008
432 1 -1.1104 6.65877 11.9064 17.8898
438 1 -1.1104 6.65385 6.32371 15.1005
437 1 -1.1104 6.65637 9.11504 17.8896
434 1 -1.1104 3.86682 9.11488 20.6791
586 1 -1.1104 1.07725 9.11501 20.6796
9332 2 2.2208 13.641 21.6801 16.4928
436 1 -1.1104 6.65892 11.9065 15.0998
443 2 2.2208 10.8393 7.7208 16.4953
444 2 2.2208 10.8443 13.3038 16.4945
445 1 -1.1104 12.2353 9.11576 17.8895
446 1 -1.1104 12.2353 9.11587 15.1008
447 1 -1.1104 12.2327 6.32423 17.8905
448 1 -1.1104 12.2377 11.9073 17.8898
449 2 2.2208 10.8418 10.5121 19.2843
450 1 -1.1104 12.2328 6.32432 15.1005
451 1 -1.1104 12.2379 11.9075 15.0998
452 1 -1.1104 9.44576 9.11534 17.8902
453 2 2.2208 8.04979 7.72041 19.2847
454 2 2.2208 8.05479 13.3031 19.2839
455 1 -1.1104 9.44589 9.11546 15.1002
456 2 2.2208 8.05234 10.5119 16.495
457 1 -1.1104 9.44333 6.32391 17.8899
458 1 -1.1104 9.44841 11.9068 17.8891
459 1 -1.1104 9.44328 6.32397 15.1011
460 1 -1.1104 9.44832 11.9069 15.1004
466 1 -1.1104 9.44819 11.9065 20.6791
467 1 -1.1104 12.2378 11.907 20.6785
462 1 -1.1104 9.44325 6.32382 20.6799
463 1 -1.1104 9.44581 9.11522 20.679
465 1 -1.1104 6.65384 6.32363 20.6794
461 1 -1.1104 12.2351 9.11555 20.6795
464 1 -1.1104 12.2328 6.32411 20.6793
552 2 2.2208 13.6386 18.8872 19.2829
372 2 2.2208 8.04034 -3.44504 24.8643
470 2 2.2208 5.27002 18.8854 16.4935
471 1 -1.1104 1.08219 14.6978 17.8889
472 1 -1.1104 1.08667 20.2802 17.8879
473 1 -1.1104 1.08208 14.6979 15.1
474 1 -1.1104 1.08645 20.2805 15.0989
475 1 -1.1104 1.08429 17.489 17.8889
476 2 2.2208 5.26765 16.094 19.2835
477 2 2.2208 5.27229 21.6759 19.2823
478 1 -1.1104 1.08447 17.4893 15.0991
479 1 -1.1104 3.87163 14.6975 17.8893
480 1 -1.1104 3.87616 20.2796 17.8882
481 2 2.2208 2.48032 18.8852 19.283
482 1 -1.1104 3.87178 14.6977 15.0995
483 1 -1.1104 3.87641 20.28 15.0984
484 2 2.2208 2.47807 16.0943 16.4942
485 2 2.2208 2.48254 21.6766 16.493
486 1 -1.1104 3.87411 17.4887 17.8883
487 1 -1.1104 3.87396 17.4889 15.0995
639 1 -1.1104 3.87171 14.6973 20.6782
490 1 -1.1104 3.87637 20.2792 20.6772
584 2 2.2208 13.6191 -3.44511 19.2853
640 1 -1.1104 1.08203 14.6975 20.6788
493 1 -1.1104 3.8739 17.4883 20.6783
638 1 -1.1104 1.08446 17.4887 20.6779
469 2 2.2208 13.6287 7.7207 24.8636
504 1 -1.1104 6.66138 14.6977 17.8887
503 1 -1.1104 6.66601 20.2803 15.0989
488 1 -1.1104 1.08648 20.2797 20.6777
433 2 2.2208 5.25075 -3.44519 16.496
491 1 -1.1104 6.66126 14.6978 15.1
498 1 -1.1104 6.66372 17.4884 20.6776
500 1 -1.1104 6.66359 17.4888 17.8888
501 1 -1.1104 6.66618 20.2798 17.8876
492 1 -1.1104 6.66585 20.2793 20.6776
502 1 -1.1104 6.6638 17.4891 15.0988
505 2 2.2208 10.8492 18.887 16.4935
506 1 -1.1104 12.2404 14.6989 17.8886
507 1 -1.1104 12.2453 20.2822 17.8874
508 1 -1.1104 12.2403 14.6992 15.1
509 1 -1.1104 12.2451 20.283 15.0989
510 1 -1.1104 12.2426 17.4905 17.8888
511 2 2.2208 10.8468 16.095 19.2834
512 2 2.2208 10.8516 21.6776 19.2822
513 1 -1.1104 12.2429 17.491 15.0988
514 1 -1.1104 9.45076 14.6982 17.8893
515 1 -1.1104 9.45558 20.2808 17.8882
516 2 2.2208 8.05965 18.8855 19.2829
517 1 -1.1104 9.45094 14.6984 15.0993
518 1 -1.1104 9.4559 20.2815 15.0981
519 2 2.2208 8.05729 16.0947 16.494
520 2 2.2208 8.06212 21.6772 16.4928
521 1 -1.1104 9.4534 17.4895 17.8881
522 1 -1.1104 9.45324 17.49 15.0995
499 1 -1.1104 12.2401 14.6984 20.6787
672 1 -1.1104 12.2428 17.4898 20.6775
670 1 -1.1104 6.66116 14.6974 20.6787
525 1 -1.1104 9.45576 20.28 20.6769
523 1 -1.1104 12.2449 20.2811 20.6776
497 1 -1.1104 9.45545 20.2794 23.4672
588 1 -1.1104 12.2452 20.2803 23.4665
611 2 2.2208 10.8515 21.6762 24.8614
412 2 2.2208 10.8297 -3.44513 16.4959
371 1 -1.1104 1.07005 0.740948 20.6798
376 1 -1.1104 3.86191 3.53223 20.6797
369 1 -1.1104 1.0724 3.53233 20.6802
489 2 2.2208 8.04029 -3.44518 19.2854
383 1 -1.1104 6.65136 3.53228 20.6802
550 2 2.2208 13.6238 2.13796 19.2852
642 2 2.2208 8.05718 16.094 22.0729
665 1 -1.1104 9.4556 20.2792 26.2562
530 2 2.2208 5.25548 2.13757 22.0747
531 1 -1.1104 1.06776 -2.05032 23.4693
532 1 -1.1104 1.07248 3.53237 23.4691
533 1 -1.1104 1.06778 -2.05025 26.2592
534 1 -1.1104 1.07247 3.53243 26.259
535 1 -1.1104 1.07009 0.741034 23.4697
536 2 2.2208 5.25316 -0.653697 24.8643
537 1 -1.1104 1.07012 0.741075 26.2587
538 1 -1.1104 3.85725 -2.05036 23.4698
539 1 -1.1104 3.86192 3.53229 23.4696
540 2 2.2208 2.46602 2.13765 24.8642
541 1 -1.1104 3.85725 -2.05027 26.2588
542 1 -1.1104 3.86197 3.53234 26.2586
543 2 2.2208 2.46364 -0.653751 22.0748
544 1 -1.1104 3.85957 0.740964 23.4692
545 1 -1.1104 3.85958 0.741039 26.2592
546 2 2.2208 5.25788 4.92895 24.864
547 2 2.2208 2.46838 4.92893 22.0745
558 1 -1.1104 6.64907 0.741054 26.2587
582 2 2.2208 13.6215 -0.653576 22.0747
529 2 2.2208 13.6263 4.92937 22.0744
591 2 2.2208 13.6214 -0.653535 16.4959
644 1 -1.1104 6.66349 17.4881 23.4677
556 1 -1.1104 6.65143 3.53231 23.4691
559 1 -1.1104 6.65141 3.53236 26.2591
560 1 -1.1104 6.64673 -2.05036 23.4693
555 1 -1.1104 6.64905 0.740979 23.4697
557 1 -1.1104 6.64674 -2.0503 26.2592
561 2 2.2208 10.8344 2.13777 22.0746
562 1 -1.1104 12.2256 -2.05029 23.4692
563 1 -1.1104 12.2304 3.53258 23.469
564 1 -1.1104 12.2256 -2.05026 26.2591
565 1 -1.1104 12.2304 3.53255 26.259
566 1 -1.1104 12.228 0.741154 23.4696
567 2 2.2208 10.8321 -0.65362 24.8642
568 1 -1.1104 12.228 0.741171 26.2586
569 1 -1.1104 9.43621 -2.05035 23.4698
570 1 -1.1104 9.44088 3.53242 23.4696
571 2 2.2208 8.04497 2.13768 24.8641
572 1 -1.1104 9.4362 -2.05027 26.2587
573 1 -1.1104 9.44093 3.53243 26.2585
574 2 2.2208 8.04262 -0.653735 22.0748
575 1 -1.1104 9.43854 0.741059 23.4692
576 1 -1.1104 9.43852 0.741089 26.2591
577 2 2.2208 10.8368 4.92915 24.8639
578 2 2.2208 8.04733 4.929 22.0745
615 2 2.2208 13.6362 16.0961 16.4941
579 2 2.2208 13.6192 -3.44503 24.8641
583 2 2.2208 13.6287 7.72099 19.2847
590 1 -1.1104 3.86429 6.32356 20.6799
668 1 -1.1104 12.245 20.28 26.2569
526 2 2.2208 10.8466 16.0942 24.8625
641 1 -1.1104 6.66586 20.2788 26.2568
592 2 2.2208 5.26029 7.72023 22.0742
593 2 2.2208 5.26519 13.3027 22.0734
594 1 -1.1104 1.0773 9.11499 23.4686
595 1 -1.1104 1.07721 9.11501 26.2585
596 1 -1.1104 1.07483 6.3237 23.4694
597 1 -1.1104 1.07961 11.9062 23.4687
598 2 2.2208 5.26271 10.5115 24.8633
599 1 -1.1104 1.07489 6.32374 26.2583
600 1 -1.1104 1.07967 11.9062 26.2577
601 1 -1.1104 3.86671 9.11485 23.469
602 2 2.2208 2.47081 7.72028 24.8637
603 2 2.2208 2.4756 13.3027 24.863
604 1 -1.1104 3.86677 9.11487 26.258
605 2 2.2208 2.47324 10.5115 22.0739
606 1 -1.1104 3.86435 6.3236 23.4689
607 1 -1.1104 3.86922 11.9061 23.4681
608 1 -1.1104 3.86432 6.32363 26.2588
609 1 -1.1104 3.8691 11.906 26.2581
589 2 2.2208 13.6337 13.304 19.2839
587 2 2.2208 13.6312 10.5127 16.495
664 2 2.2208 8.05955 18.8847 24.862
619 1 -1.1104 6.65386 6.32364 26.2583
440 1 -1.1104 6.65622 9.11495 20.6796
614 1 -1.1104 6.6587 11.9061 26.2576
613 1 -1.1104 6.6562 9.11488 26.2585
618 1 -1.1104 6.65378 6.32362 23.4694
617 1 -1.1104 6.65629 9.1149 23.4685
616 1 -1.1104 6.65864 11.9061 23.4686
612 1 -1.1104 6.65882 11.9062 20.6786
620 1 -1.1104 9.44567 9.11509 23.469
621 1 -1.1104 12.2376 11.9066 26.2575
622 1 -1.1104 12.2328 6.32394 26.2582
623 2 2.2208 10.8417 10.5118 24.8633
624 1 -1.1104 12.2376 11.9067 23.4686
625 1 -1.1104 12.2327 6.32398 23.4693
626 1 -1.1104 12.2351 9.11527 26.2585
627 1 -1.1104 12.2352 9.11536 23.4684
628 1 -1.1104 9.4481 11.9063 26.2581
629 1 -1.1104 9.44328 6.32375 26.2588
630 1 -1.1104 9.44825 11.9064 23.468
631 1 -1.1104 9.44332 6.32378 23.4688
632 2 2.2208 8.05223 10.5117 22.0738
633 1 -1.1104 9.44576 9.11503 26.2579
634 2 2.2208 8.05465 13.3027 24.8629
635 2 2.2208 8.04976 7.72031 24.8636
636 2 2.2208 10.8392 7.72058 22.0742
637 2 2.2208 10.8442 13.3033 22.0734
643 2 2.2208 13.6262 4.92955 16.4956
549 1 -1.1104 12.24 14.6978 26.2578
375 2 2.2208 8.06195 21.6758 22.0718
528 2 2.2208 13.6311 10.5123 22.0738
671 1 -1.1104 9.45304 17.4884 26.2573
673 1 -1.1104 9.45061 14.6975 23.4682
468 2 2.2208 13.6336 13.3034 24.8629
645 2 2.2208 2.48257 21.6757 22.0719
646 1 -1.1104 3.87403 17.4881 23.4673
647 1 -1.1104 1.0843 17.4885 23.4678
648 1 -1.1104 3.87159 14.6971 26.2572
649 1 -1.1104 3.87389 17.4881 26.2573
650 2 2.2208 2.48033 18.8847 24.8621
651 1 -1.1104 3.87633 20.2789 26.2563
652 2 2.2208 5.26995 18.8847 22.0725
653 1 -1.1104 1.0821 14.6974 23.4678
654 1 -1.1104 1.08671 20.2794 23.4669
655 2 2.2208 5.26756 16.0936 24.8625
656 2 2.2208 5.27229 21.6752 24.8615
657 1 -1.1104 1.08197 14.6973 26.2578
658 1 -1.1104 1.08441 17.4884 26.2569
659 1 -1.1104 1.0866 20.2793 26.2568
660 1 -1.1104 3.87153 14.6972 23.4682
661 1 -1.1104 3.87618 20.2789 23.4672
662 2 2.2208 2.47802 16.0939 22.073
663 1 -1.1104 6.66602 20.2789 23.4666
667 1 -1.1104 6.66121 14.6972 23.4676
548 2 2.2208 13.6239 2.13787 24.864
524 1 -1.1104 9.45086 14.6978 20.6781
669 1 -1.1104 9.45323 17.4886 23.4671
496 1 -1.1104 12.2402 14.698 23.4676
551 1 -1.1104 6.66359 17.4881 26.2567
674 1 -1.1104 6.66105 14.6971 26.2577
580 1 -1.1104 9.4531 17.489 20.6782
680 2 2.2208 8.05972 18.8863 13.7042
700 2 2.2208 10.8517 21.6792 13.7036
675 2 2.2208 10.8468 16.0956 13.7047
686 2 2.2208 13.6337 13.3045 13.7052
684 2 2.2208 13.6386 18.8883 13.7043
678 2 2.2208 13.6287 7.72115 13.7059
698 2 2.2208 2.48035 18.8857 13.7043
676 2 2.2208 8.04021 -3.4451 13.7065
682 2 2.2208 5.253 -0.653793 13.7065
681 2 2.2208 2.46588 2.13757 13.7064
683 2 2.2208 5.25783 4.92894 13.7063
685 2 2.2208 13.6238 2.13804 13.7064
677 2 2.2208 2.46122 -3.44513 13.7066
697 2 2.2208 8.04983 7.72052 13.706
690 2 2.2208 8.04486 2.13768 13.7064
688 2 2.2208 10.832 -0.653596 13.7065
691 2 2.2208 2.47576 13.3031 13.7053
689 2 2.2208 10.8368 4.92933 13.7062
692 2 2.2208 2.47084 7.72033 13.706
693 2 2.2208 5.26285 10.5117 13.7056
695 2 2.2208 10.8418 10.5124 13.7056
694 2 2.2208 8.05484 13.3034 13.7052
699 2 2.2208 5.27241 21.6768 13.7036
696 2 2.2208 13.6191 -3.44502 13.7065
687 2 2.2208 5.26769 16.0944 13.7048
701 2 2.2208 5.27482 24.4667 5.33508
702 2 2.2208 5.27998 30.0475 5.33388
703 1 -1.1104 1.09125 25.8611 1.15045
704 1 -1.1104 1.09119 25.8615 3.94022
705 1 -1.1104 1.08893 23.0703 1.15138
706 1 -1.1104 1.09359 28.6518 1.15015
707 2 2.2208 5.27726 27.2567 2.54515
708 1 -1.1104 1.08895 23.0707 3.94057
709 1 -1.1104 1.09348 28.6523 3.93936
710 1 -1.1104 3.88096 25.8602 1.15077
711 2 2.2208 2.48503 24.4666 2.54567
712 2 2.2208 2.48999 30.0478 2.54461
713 1 -1.1104 3.881 25.8605 3.93982
714 2 2.2208 2.48739 27.2578 5.33444
715 1 -1.1104 3.87865 23.0697 1.15093
716 1 -1.1104 3.88335 28.6505 1.14982
717 1 -1.1104 3.87863 23.07 3.94087
718 1 -1.1104 3.88339 28.6509 3.93963
723 1 -1.1104 1.08887 23.0712 6.73029
726 1 -1.1104 3.88098 25.861 6.72965
722 1 -1.1104 1.09331 28.6528 6.72891
728 1 -1.1104 1.09111 25.8621 6.72939
9741 2 2.2208 13.6544 41.2039 2.53131
871 2 2.2208 13.6394 46.7635 2.48682
735 1 -1.1104 6.67079 25.86 1.15031
725 1 -1.1104 3.88335 28.6512 6.72858
967 2 2.2208 13.6507 38.4597 10.9093
736 1 -1.1104 6.66834 23.0696 1.15147
727 1 -1.1104 6.66843 23.0699 3.94039
724 1 -1.1104 6.67356 28.6512 6.72935
719 1 -1.1104 6.6709 25.8604 3.94044
733 1 -1.1104 6.67342 28.6505 3.9392
734 1 -1.1104 6.67332 28.6503 1.15043
737 2 2.2208 10.8542 24.4685 5.33549
738 2 2.2208 10.8597 30.0509 5.3348
739 1 -1.1104 12.2501 25.862 1.15051
740 1 -1.1104 12.2504 25.8631 3.94113
741 1 -1.1104 12.2476 23.0712 1.1518
742 1 -1.1104 12.2528 28.6527 1.15096
743 2 2.2208 10.8567 27.2584 2.5456
744 1 -1.1104 12.2476 23.0719 3.94068
745 1 -1.1104 12.2529 28.6539 3.93981
746 1 -1.1104 9.46058 25.8607 1.15116
747 2 2.2208 8.06452 24.4665 2.54579
748 2 2.2208 8.06974 30.0475 2.545
749 1 -1.1104 9.46066 25.8613 3.93995
750 2 2.2208 8.06721 27.2579 5.3347
751 1 -1.1104 9.45806 23.0701 1.15092
752 1 -1.1104 9.46307 28.651 1.1499
753 1 -1.1104 9.45818 23.0707 3.94125
754 1 -1.1104 9.4635 28.6519 3.94042
909 1 -1.1104 12.2503 25.8647 6.72974
905 1 -1.1104 12.2478 23.0731 6.731
756 1 -1.1104 9.46093 25.8624 6.73034
904 1 -1.1104 12.2534 28.6563 6.73058
1026 2 2.2208 5.31411 46.7971 -0.254341
989 2 2.2208 13.6626 41.2361 8.11496
759 2 2.2208 5.28631 35.6278 5.33292
760 1 -1.1104 1.09602 31.4423 1.14935
761 1 -1.1104 1.10196 37.0237 1.14801
762 1 -1.1104 1.09591 31.4428 3.93896
763 1 -1.1104 1.1014 37.0238 3.93745
764 1 -1.1104 1.09882 34.233 1.14913
765 2 2.2208 5.28276 32.8374 2.54443
766 2 2.2208 5.28976 38.4183 2.54318
767 1 -1.1104 1.09857 34.2333 3.938
768 1 -1.1104 3.88592 31.4409 1.14979
769 1 -1.1104 3.89167 37.0215 1.14879
770 2 2.2208 2.49625 35.6289 2.54365
771 1 -1.1104 3.88592 31.441 3.93862
772 1 -1.1104 3.89155 37.0205 3.93695
773 2 2.2208 2.49282 32.8387 5.33318
774 2 2.2208 2.50088 38.419 5.3312
775 1 -1.1104 3.88858 34.231 1.14884
776 1 -1.1104 3.88853 34.2309 3.9385
777 1 -1.1104 3.8917 37.0197 6.72713
779 1 -1.1104 1.09824 34.2335 6.72755
781 1 -1.1104 3.88579 31.4411 6.72839
783 1 -1.1104 1.09564 31.4434 6.72813
934 1 -1.1104 3.88862 34.2305 6.72722
995 1 -1.1104 6.7035 48.0449 9.38911
900 1 -1.1104 9.48083 39.8216 9.52138
932 1 -1.1104 1.10169 37.023 6.72612
847 1 -1.1104 9.36228 48.0411 6.71147
960 1 -1.1104 6.67915 34.2297 6.72827
778 1 -1.1104 6.67889 34.2297 3.93801
782 1 -1.1104 6.67581 31.4402 1.1494
792 1 -1.1104 6.68207 37.0172 6.72649
791 1 -1.1104 6.68178 37.0202 1.1481
790 1 -1.1104 6.67613 31.4405 3.9394
793 1 -1.1104 6.6787 34.2304 1.14975
780 1 -1.1104 6.68153 37.0188 3.93821
794 2 2.2208 10.8656 35.6333 5.33465