ITEM: TIMESTEP
361
ITEM: NUMBER OF ATOMS
17652
ITEM: BOX BOUNDS pp pp pp
-2.7717828229332220e-01 2.7617178282293317e+01
-3.4472205766305355e+00 3.3152722057663055e+02
-2.7717827830221448e-01 2.7617178278302212e+01
ITEM: ATOMS id type q x y z
1 2 2.2208 5.28109 2.13982 5.31967
2 1 -1.1104 1.09338 -2.04931 1.13493
3 1 -1.1104 1.09804 3.53395 1.13539
4 1 -1.1104 1.09341 -2.04927 3.92492
5 1 -1.1104 1.09809 3.53401 3.9254
6 1 -1.1104 1.09575 0.742315 1.13565
7 2 2.2208 5.27875 -0.65194 2.52987
8 2 2.2208 5.28356 4.93134 2.5305
9 1 -1.1104 1.09568 0.742429 3.92461
10 1 -1.1104 3.88288 -2.04929 1.13528
11 1 -1.1104 3.88759 3.53402 1.13588
12 2 2.2208 2.49165 2.13966 2.53021
13 1 -1.1104 3.88281 -2.04917 3.92424
14 1 -1.1104 3.88751 3.53408 3.92482
15 2 2.2208 2.48926 -0.651894 5.31944
16 2 2.2208 2.49406 4.93137 5.31999
17 1 -1.1104 3.88515 0.742395 1.13503
18 1 -1.1104 3.88523 0.74244 3.92501
24 1 -1.1104 1.09802 3.53409 6.71432
23 1 -1.1104 3.88759 3.53422 6.71485
62 2 2.2208 5.2763 -3.44349 10.8981
25 1 -1.1104 1.09571 0.742406 6.71463
22 1 -1.1104 3.88279 -2.0491 6.71423
29 1 -1.1104 3.88512 0.74257 6.71398
150 2 2.2208 2.48685 -3.44355 8.10866
28 1 -1.1104 6.67708 3.53415 3.92539
34 1 -1.1104 6.67237 -2.0492 3.9247
31 1 -1.1104 6.677 3.53426 6.71429
21 1 -1.1104 1.09326 -2.04924 6.71383
176 2 2.2208 10.8553 -3.4437 5.31922
293 2 2.2208 8.06584 -3.44373 2.52963
19 1 -1.1104 6.67698 3.53403 1.13537
26 1 -1.1104 6.67469 0.742381 1.13555
35 1 -1.1104 6.67227 -2.04935 1.13476
20 1 -1.1104 6.6746 0.742499 3.92452
36 2 2.2208 10.86 2.13976 5.31981
37 1 -1.1104 12.2511 -2.04952 1.13501
38 1 -1.1104 12.2559 3.53397 1.13547
39 1 -1.1104 12.2512 -2.04937 3.92497
40 1 -1.1104 12.256 3.53409 3.9255
41 1 -1.1104 12.2535 0.742267 1.13576
42 2 2.2208 10.8576 -0.65207 2.53003
43 2 2.2208 10.8625 4.93132 2.53056
44 1 -1.1104 12.2535 0.742335 3.92474
45 1 -1.1104 9.46179 -2.04941 1.13533
46 1 -1.1104 9.46652 3.53396 1.13597
47 2 2.2208 8.07055 2.13971 2.53025
48 1 -1.1104 9.46172 -2.04933 3.9243
49 1 -1.1104 9.46646 3.53408 3.92492
50 2 2.2208 8.06818 -0.651884 5.31939
51 2 2.2208 8.07305 4.9315 5.32
52 1 -1.1104 9.46402 0.742284 1.13513
53 1 -1.1104 9.46412 0.742396 3.92511
54 1 -1.1104 9.46175 -2.04918 6.71428
57 1 -1.1104 9.46656 3.53428 6.7149
27 1 -1.1104 6.67221 -2.04909 6.71369
30 1 -1.1104 6.67467 0.742585 6.71451
56 1 -1.1104 12.2511 -2.04931 6.71396
60 1 -1.1104 12.2536 0.742471 6.71469
59 1 -1.1104 12.2559 3.53423 6.71441
209 1 -1.1104 9.46403 0.742529 6.71409
269 2 2.2208 2.48691 -3.44362 2.52969
64 2 2.2208 5.28621 7.72308 5.32021
65 2 2.2208 5.2918 13.3062 5.3205
66 1 -1.1104 1.10324 9.11711 1.13581
67 1 -1.1104 1.10333 9.11723 3.92589
68 1 -1.1104 1.10061 6.32554 1.13618
69 1 -1.1104 1.10612 11.9086 1.13651
70 2 2.2208 5.28891 10.5145 2.53091
71 1 -1.1104 1.10054 6.32562 3.9251
72 1 -1.1104 1.10605 11.9088 3.92543
73 1 -1.1104 3.89276 9.11716 1.13643
74 2 2.2208 2.49667 7.72287 2.53077
75 2 2.2208 2.50228 13.3059 2.53101
76 1 -1.1104 3.89274 9.11726 3.92532
77 2 2.2208 2.49947 10.5146 5.32041
78 1 -1.1104 3.89003 6.32564 1.13566
79 1 -1.1104 3.89555 11.9086 1.13594
80 1 -1.1104 3.89012 6.32566 3.92571
81 1 -1.1104 3.89561 11.9088 3.92604
237 1 -1.1104 3.89006 6.32586 6.71456
271 2 2.2208 5.27636 -3.4435 5.31909
242 1 -1.1104 1.10329 9.11744 6.71475
82 1 -1.1104 3.89288 9.11749 6.71538
87 1 -1.1104 1.10066 6.32578 6.71515
83 1 -1.1104 1.10617 11.9091 6.7155
86 1 -1.1104 3.89559 11.9091 6.71488
91 1 -1.1104 6.68521 11.9092 6.71548
346 2 2.2208 5.2975 18.8884 -0.258542
85 1 -1.1104 6.67956 6.32564 1.13618
119 1 -1.1104 6.68229 9.11757 6.71469
84 1 -1.1104 6.68505 11.9089 3.92539
92 1 -1.1104 6.68231 9.11734 3.92587
90 1 -1.1104 6.6851 11.9087 1.13653
88 1 -1.1104 6.67955 6.32574 3.92511
89 1 -1.1104 6.6822 9.11721 1.13579
94 2 2.2208 10.8651 7.72324 5.32018
95 2 2.2208 10.8708 13.3067 5.32035
96 1 -1.1104 12.2611 9.11731 1.13568
97 1 -1.1104 12.2612 9.11756 3.9258
98 1 -1.1104 12.2584 6.32563 1.1362
99 1 -1.1104 12.264 11.9089 1.13637
100 2 2.2208 10.8679 10.5147 2.53079
101 1 -1.1104 12.2584 6.32582 3.92514
102 1 -1.1104 12.2639 11.9093 3.92525
103 1 -1.1104 9.47172 9.11724 1.13631
104 2 2.2208 8.07563 7.72297 2.53072
105 2 2.2208 8.08127 13.3061 2.53095
106 1 -1.1104 9.4717 9.11747 3.92521
107 2 2.2208 8.07843 10.5148 5.32031
108 1 -1.1104 9.46897 6.32561 1.13565
109 1 -1.1104 9.47453 11.9088 1.13577
110 1 -1.1104 9.4691 6.32579 3.92567
111 1 -1.1104 9.4746 11.9091 3.92592
116 1 -1.1104 9.47459 11.9094 6.71474
114 1 -1.1104 12.2611 9.11784 6.71466
113 1 -1.1104 9.47182 9.11771 6.71529
112 1 -1.1104 12.2586 6.32606 6.71514
118 1 -1.1104 12.2641 11.9096 6.71536
238 2 2.2208 8.08701 18.89 8.10986
345 2 2.2208 2.51052 21.6795 -0.258625
178 2 2.2208 10.8552 -3.44362 10.8982
120 2 2.2208 5.29743 18.889 5.32047
121 1 -1.1104 1.1089 14.7 1.13599
122 1 -1.1104 1.11437 20.2825 1.13587
123 1 -1.1104 1.10893 14.7003 3.92606
124 1 -1.1104 1.11431 20.283 3.92587
125 1 -1.1104 1.11171 17.4914 1.13653
126 2 2.2208 5.29469 16.0973 2.53105
127 2 2.2208 5.30012 21.6797 2.53097
128 1 -1.1104 1.11165 17.4917 3.92548
129 1 -1.1104 3.89847 14.7 1.13663
130 1 -1.1104 3.90405 20.2824 1.13646
131 2 2.2208 2.50786 18.8886 2.53098
132 1 -1.1104 3.8984 14.7002 3.92551
133 1 -1.1104 3.90386 20.2827 3.92541
134 2 2.2208 2.5051 16.0977 5.3205
135 2 2.2208 2.51036 21.6803 5.32033
136 1 -1.1104 3.90129 17.4912 1.13596
137 1 -1.1104 3.90131 17.4916 3.92605
144 1 -1.1104 3.90118 17.492 6.7149
140 1 -1.1104 3.89852 14.7006 6.71558
207 1 -1.1104 12.2727 20.2862 9.50497
138 1 -1.1104 1.11169 17.4922 6.71544
143 1 -1.1104 3.9039 20.2833 6.7154
139 1 -1.1104 1.10889 14.7007 6.71496
148 1 -1.1104 6.68796 14.7001 1.13593
145 1 -1.1104 1.11412 20.2836 6.71483
179 2 2.2208 10.8737 16.0989 8.10987
152 1 -1.1104 6.69346 20.2835 6.71488
146 1 -1.1104 6.68802 14.7003 3.92611
294 1 -1.1104 9.47765 14.7019 12.2942
147 1 -1.1104 6.69092 17.4913 1.13657
151 1 -1.1104 6.6908 17.4917 3.92545
141 1 -1.1104 6.69359 20.2825 1.13587
295 1 -1.1104 6.688 14.7007 6.7149
171 1 -1.1104 9.48324 20.2842 6.71561
149 1 -1.1104 6.69363 20.2829 3.92607
153 2 2.2208 10.8765 18.8899 5.3205
154 1 -1.1104 12.2669 14.7005 1.1358
155 1 -1.1104 12.2726 20.2833 1.1358
156 1 -1.1104 12.267 14.7009 3.92601
157 1 -1.1104 12.2728 20.284 3.9261
158 1 -1.1104 12.2699 17.492 1.13648
159 2 2.2208 10.8737 16.0978 2.53093
160 2 2.2208 10.8792 21.6806 2.53102
161 1 -1.1104 12.2698 17.4925 3.92539
162 1 -1.1104 9.4775 14.7002 1.1365
163 1 -1.1104 9.48325 20.2828 1.13653
164 2 2.2208 8.08704 18.8888 2.53099
165 1 -1.1104 9.47746 14.7006 3.92534
166 1 -1.1104 9.4831 20.2834 3.92541
167 2 2.2208 8.08421 16.0979 5.32047
168 2 2.2208 8.08967 21.6807 5.32052
169 1 -1.1104 9.4804 17.4916 1.13585
170 1 -1.1104 9.48045 17.492 3.92609
322 1 -1.1104 12.2669 14.7014 6.71481
142 1 -1.1104 6.69091 17.4921 6.71556
173 1 -1.1104 9.47763 14.701 6.71551
177 1 -1.1104 9.48035 17.4926 6.71486
172 1 -1.1104 12.27 17.4933 6.71558
175 1 -1.1104 12.2725 20.285 6.71488
324 1 -1.1104 12.2671 14.702 9.50488
298 1 -1.1104 6.69086 17.4927 9.50426
296 1 -1.1104 6.69352 20.2847 12.2934
319 1 -1.1104 9.48051 17.4933 9.50495
181 2 2.2208 5.28113 2.13999 10.8986
182 1 -1.1104 1.09324 -2.04924 12.2927
183 1 -1.1104 1.09812 3.53428 12.2932
184 1 -1.1104 1.09331 -2.04927 9.50384
185 1 -1.1104 1.09814 3.53424 9.50433
186 1 -1.1104 1.09575 0.742509 12.2935
187 2 2.2208 5.27871 -0.651786 8.10885
188 2 2.2208 5.28361 4.9316 8.10944
189 1 -1.1104 1.09566 0.742481 9.50351
190 1 -1.1104 3.88277 -2.04913 12.2932
191 1 -1.1104 3.88764 3.53443 12.2937
192 2 2.2208 2.49163 2.13983 8.10918
193 1 -1.1104 3.88273 -2.04907 9.50319
194 1 -1.1104 3.88755 3.53432 9.50374
195 2 2.2208 2.48923 -0.651877 10.8984
196 2 2.2208 2.49416 4.93164 10.8989
197 1 -1.1104 3.88515 0.742638 12.2929
198 1 -1.1104 3.88518 0.742596 9.50399
208 2 2.2208 10.8792 21.6826 8.10992
349 2 2.2208 8.08422 16.0973 -0.258554
9031 2 2.2208 13.6659 18.8914 8.10989
321 1 -1.1104 9.47758 14.7016 9.50422
212 1 -1.1104 6.67229 -2.04905 9.50368
236 1 -1.1104 12.2671 14.7024 12.2935
9039 2 2.2208 13.6574 10.5157 10.899
8942 2 2.2208 13.6546 7.72352 8.10962
206 1 -1.1104 6.6747 0.742689 12.2934
9059 2 2.2208 13.6602 13.3073 8.10976
9001 2 2.2208 13.6659 18.8897 2.53094
329 2 2.2208 10.8765 18.8914 10.8992
199 1 -1.1104 6.67708 3.53446 12.2931
201 1 -1.1104 6.67711 3.53439 9.50427
200 1 -1.1104 6.6746 0.742654 9.50345
205 1 -1.1104 6.67221 -2.04908 12.2926
213 2 2.2208 10.8601 2.13998 10.8986
214 1 -1.1104 12.2511 -2.04926 12.2929
215 1 -1.1104 12.256 3.53447 12.2932
216 1 -1.1104 12.2512 -2.04927 9.50391
217 1 -1.1104 12.256 3.53441 9.50434
218 1 -1.1104 12.2536 0.742611 12.2935
219 2 2.2208 10.8576 -0.65188 8.10899
221 1 -1.1104 12.2535 0.742543 9.50364
222 1 -1.1104 9.4617 -2.04913 12.2932
223 1 -1.1104 9.46661 3.53451 12.2937
224 2 2.2208 8.07057 2.13992 8.10917
225 1 -1.1104 9.46169 -2.04909 9.50327
226 1 -1.1104 9.46648 3.53442 9.50378
227 2 2.2208 8.06816 -0.651766 10.8983
228 2 2.2208 8.07312 4.9318 10.8989
229 1 -1.1104 9.4641 0.742656 12.2929
230 1 -1.1104 9.46413 0.742645 9.50405
220 2 2.2208 10.8625 4.93169 8.10947
9007 2 2.2208 13.6601 13.3064 2.53086
328 1 -1.1104 9.4804 17.4938 12.2935
234 2 2.2208 13.652 4.9318 10.8989
243 2 2.2208 5.28632 7.72346 10.8991
244 2 2.2208 5.29194 13.3069 10.8993
245 1 -1.1104 1.1034 9.11789 12.2935
246 1 -1.1104 1.10347 9.11771 9.50476
247 1 -1.1104 1.10074 6.3261 12.294
248 1 -1.1104 1.10622 11.9097 12.2942
249 2 2.2208 5.28905 10.5149 8.10982
250 1 -1.1104 1.10062 6.32596 9.504
251 1 -1.1104 1.10617 11.9094 9.5043
252 1 -1.1104 3.89296 9.11794 12.2941
253 2 2.2208 2.49677 7.72321 8.10968
254 2 2.2208 2.50236 13.3065 8.10994
255 1 -1.1104 3.89289 9.11772 9.50417
256 2 2.2208 2.49959 10.5152 10.8992
257 1 -1.1104 3.89018 6.32619 12.2934
258 1 -1.1104 3.89573 11.9097 12.2936
259 1 -1.1104 3.89021 6.32601 9.50458
260 1 -1.1104 3.8958 11.9094 9.50491
211 2 2.2208 13.6494 2.13982 8.1093
262 1 -1.1104 6.6824 9.11804 12.2935
326 1 -1.1104 9.48322 20.2857 12.2942
320 1 -1.1104 12.2726 20.2871 12.2934
180 2 2.2208 13.647 -0.651979 10.8985
9006 2 2.2208 13.6631 16.0987 5.32045
273 1 -1.1104 6.67964 6.32609 9.50399
264 1 -1.1104 9.48308 20.2851 9.50421
93 1 -1.1104 6.67967 6.32595 6.71515
265 1 -1.1104 9.46903 6.326 6.71455
8946 2 2.2208 13.6573 10.5151 5.32024
8884 2 2.2208 13.6545 7.72305 2.53068
261 1 -1.1104 6.68523 11.9095 9.50423
266 1 -1.1104 6.67974 6.32623 12.294
270 1 -1.1104 6.68532 11.9098 12.2942
267 1 -1.1104 6.68247 9.1178 9.50476
274 1 -1.1104 9.47479 11.9098 9.50484
275 1 -1.1104 9.46917 6.32624 9.50457
276 1 -1.1104 9.47478 11.91 12.2935
277 1 -1.1104 9.46916 6.32636 12.2934
278 2 2.2208 8.07859 10.5154 10.8992
279 1 -1.1104 9.47187 9.11802 9.50409
280 2 2.2208 8.08141 13.3068 8.10988
281 2 2.2208 8.07575 7.7234 8.10964
282 2 2.2208 10.8652 7.72369 10.899
283 2 2.2208 10.8709 13.3074 10.8992
284 1 -1.1104 12.2613 9.11835 12.2934
285 1 -1.1104 12.2613 9.11813 9.50467
286 1 -1.1104 12.2586 6.32641 12.2939
287 1 -1.1104 12.2642 11.9103 12.2942
288 2 2.2208 10.8679 10.5153 8.10973
289 1 -1.1104 12.2585 6.32626 9.50397
290 1 -1.1104 12.2641 11.91 9.50412
291 1 -1.1104 9.47192 9.1182 12.2941
233 2 2.2208 13.6519 4.93151 5.32006
292 2 2.2208 8.08425 16.0989 10.8992
33 2 2.2208 13.6447 -3.44378 8.10887
174 2 2.2208 8.06581 -3.4435 8.1086
323 1 -1.1104 12.2698 17.494 9.50421
9032 2 2.2208 13.6631 16.0998 10.8992
299 1 -1.1104 1.11152 17.4931 12.2941
300 2 2.2208 2.50509 16.0985 10.8993
301 2 2.2208 2.5101 21.6816 10.899
302 1 -1.1104 3.90119 17.4929 12.2936
303 1 -1.1104 3.90373 20.2844 12.294
304 1 -1.1104 3.89855 14.7013 12.2942
305 1 -1.1104 1.11408 20.2842 9.5046
306 1 -1.1104 1.11158 17.4927 9.50431
307 2 2.2208 5.29994 21.681 8.1098
308 1 -1.1104 1.10899 14.7011 9.50491
309 2 2.2208 5.29469 16.0981 8.10991
310 1 -1.1104 1.11393 20.2847 12.2935
311 1 -1.1104 1.10893 14.7014 12.2937
312 2 2.2208 5.29736 18.8901 10.8992
313 1 -1.1104 3.9037 20.2839 9.5042
314 2 2.2208 2.5077 18.8896 8.10981
315 1 -1.1104 3.90127 17.4925 9.50485
316 1 -1.1104 3.8985 14.701 9.50435
297 1 -1.1104 6.69085 17.4931 12.2942
63 2 2.2208 13.6447 -3.44389 2.52989
239 1 -1.1104 6.6881 14.7015 12.2936
317 1 -1.1104 6.68815 14.7012 9.50493
327 2 2.2208 8.08966 21.6823 10.8991
55 2 2.2208 13.6494 2.13959 2.53036
318 1 -1.1104 6.69356 20.2842 9.50485
325 1 -1.1104 12.2699 17.4946 12.2942
61 2 2.2208 13.6471 -0.65207 5.31961
334 2 2.2208 10.8552 -3.44392 -0.259732
340 2 2.2208 5.27637 -3.44375 -0.259822
344 2 2.2208 2.50513 16.0972 -0.258475
342 2 2.2208 10.865 7.72289 -0.258786
333 2 2.2208 2.49407 4.93127 -0.25897
235 2 2.2208 2.48929 -0.652037 -0.25951
332 2 2.2208 5.28109 2.13965 -0.259289
335 2 2.2208 8.06817 -0.652081 -0.259551
58 2 2.2208 8.073 4.93126 -0.258968
115 2 2.2208 13.6518 4.93123 -0.258927
330 2 2.2208 13.647 -0.652217 -0.259328
202 2 2.2208 10.86 2.13956 -0.259176
347 2 2.2208 10.8765 18.8889 -0.25865
350 2 2.2208 8.08974 21.6797 -0.258586
339 2 2.2208 2.49943 10.5144 -0.258574
337 2 2.2208 5.29178 13.3059 -0.258517
338 2 2.2208 5.28614 7.72288 -0.258725
343 2 2.2208 10.8708 13.3061 -0.258669
9156 2 2.2208 13.6573 10.5146 -0.258769
9164 2 2.2208 13.6631 16.0978 -0.258651
341 2 2.2208 8.0784 10.5145 -0.25865
9058 2 2.2208 13.6685 21.6847 10.8991
9004 2 2.2208 13.6686 21.6822 5.32055
9153 2 2.2208 13.6686 21.6807 -0.258732
351 2 2.2208 5.28114 2.14 16.4774
352 1 -1.1104 1.09322 -2.04917 17.8716
353 1 -1.1104 1.09816 3.53439 17.8719
354 1 -1.1104 1.09328 -2.04925 15.0827
355 1 -1.1104 1.09822 3.53436 15.0831
356 1 -1.1104 1.09568 0.742588 17.8723
357 2 2.2208 5.27865 -0.651832 19.2665
358 2 2.2208 5.28363 4.93163 19.267
359 1 -1.1104 1.09567 0.742555 15.0823
360 1 -1.1104 3.88273 -2.04913 17.872
361 1 -1.1104 3.88764 3.53436 17.8725
362 2 2.2208 2.49165 2.13991 19.2668
363 1 -1.1104 3.88269 -2.04908 15.0821
364 1 -1.1104 3.88763 3.53445 15.0825
365 2 2.2208 2.48919 -0.651823 16.4772
366 2 2.2208 2.4942 4.93173 16.4776
367 1 -1.1104 3.88512 0.74263 17.8717
368 1 -1.1104 3.88518 0.742659 15.0828
377 1 -1.1104 3.88757 3.53426 20.6613
376 1 -1.1104 1.09568 0.74253 20.6612
697 2 2.2208 10.8792 21.6839 13.6882
638 2 2.2208 8.06577 -3.44387 24.8451
374 1 -1.1104 3.8827 -2.04924 20.6609
370 1 -1.1104 1.09326 -2.04922 20.6615
699 2 2.2208 5.29988 21.6817 13.6883
9414 2 2.2208 13.6545 7.72295 24.846
385 1 -1.1104 6.67217 -2.04924 20.6613
375 1 -1.1104 1.09812 3.53425 20.6619
380 1 -1.1104 6.67463 0.742631 17.8722
379 1 -1.1104 6.67464 0.742697 15.0823
386 1 -1.1104 6.67216 -2.04911 17.8714
369 1 -1.1104 6.67709 3.5344 17.8719
372 1 -1.1104 6.67716 3.53445 15.0831
378 1 -1.1104 6.67459 0.742513 20.6611
373 1 -1.1104 6.67221 -2.04904 15.0826
387 2 2.2208 10.8601 2.13995 16.4774
388 1 -1.1104 12.2511 -2.04933 17.8716
389 1 -1.1104 12.256 3.53434 17.8719
390 1 -1.1104 12.2511 -2.04926 15.0827
391 1 -1.1104 12.2561 3.53446 15.0831
392 1 -1.1104 12.2535 0.742539 17.8723
393 2 2.2208 10.8576 -0.651954 19.2666
394 2 2.2208 10.8626 4.93159 19.267
395 1 -1.1104 12.2536 0.742599 15.0824
396 1 -1.1104 9.46167 -2.04922 17.872
397 1 -1.1104 9.46658 3.53437 17.8724
398 2 2.2208 8.07057 2.1399 19.2667
399 1 -1.1104 9.46163 -2.04913 15.0821
400 1 -1.1104 9.46658 3.53447 15.0825
401 2 2.2208 8.06815 -0.651772 16.4771
402 2 2.2208 8.07314 4.93176 16.4776
403 1 -1.1104 9.46404 0.742568 17.8717
404 1 -1.1104 9.46413 0.742653 15.0828
407 1 -1.1104 12.256 3.53417 20.6619
409 1 -1.1104 12.251 -2.04942 20.6615
564 1 -1.1104 9.46655 3.53416 20.6613
406 1 -1.1104 9.46409 0.742444 20.6616
408 1 -1.1104 12.2535 0.742379 20.6612
410 1 -1.1104 9.46157 -2.04936 20.6609
9357 2 2.2208 13.6573 10.5149 22.0566
531 2 2.2208 2.48689 -3.44376 24.8452
414 2 2.2208 5.28628 7.72351 16.4778
415 2 2.2208 5.29184 13.3069 16.478
416 1 -1.1104 1.10334 9.11786 17.8722
417 1 -1.1104 1.10341 9.11798 15.0835
418 1 -1.1104 1.10073 6.32616 17.8727
419 1 -1.1104 1.10603 11.9095 17.8729
420 2 2.2208 5.28896 10.515 19.2673
421 1 -1.1104 1.10074 6.32615 15.0827
422 1 -1.1104 1.10613 11.9097 15.083
423 1 -1.1104 3.89282 9.11781 17.8729
424 2 2.2208 2.49676 7.72337 19.2672
425 2 2.2208 2.50224 13.3066 19.2674
426 1 -1.1104 3.8929 9.11799 15.0829
427 2 2.2208 2.49951 10.5152 16.4779
428 1 -1.1104 3.89021 6.3261 17.8721
429 1 -1.1104 3.89563 11.9095 17.8723
430 1 -1.1104 3.89026 6.3262 15.0833
431 1 -1.1104 3.89568 11.9097 15.0836
433 1 -1.1104 1.10327 9.11761 20.6622
441 1 -1.1104 1.10608 11.9092 20.6618
442 1 -1.1104 1.10066 6.32593 20.6615
412 2 2.2208 2.48677 -3.4436 19.2663
432 1 -1.1104 3.89555 11.9091 20.6624
437 1 -1.1104 3.89012 6.32595 20.6621
382 2 2.2208 5.27623 -3.44351 16.4769
413 2 2.2208 10.8552 -3.44369 16.477
440 1 -1.1104 6.68525 11.9098 15.0829
438 1 -1.1104 6.68238 9.11802 15.0835
434 1 -1.1104 3.89278 9.1176 20.6617
447 1 -1.1104 6.68225 9.11749 20.6623
435 1 -1.1104 6.67971 6.32623 15.0827
439 1 -1.1104 6.6851 11.9095 17.8729
444 1 -1.1104 6.67968 6.32612 17.8727
436 1 -1.1104 6.68234 9.11784 17.8723
445 1 -1.1104 6.68513 11.9091 20.6618
448 2 2.2208 10.8652 7.72361 16.4777
449 2 2.2208 10.8708 13.3073 16.4779
450 1 -1.1104 12.2613 9.11801 17.8721
451 1 -1.1104 12.2613 9.11827 15.0834
452 1 -1.1104 12.2586 6.32617 17.8726
453 1 -1.1104 12.264 11.9099 17.8728
454 2 2.2208 10.8679 10.5151 19.2672
455 1 -1.1104 12.2586 6.32635 15.0827
456 1 -1.1104 12.2641 11.9103 15.0828
457 1 -1.1104 9.47178 9.11787 17.8728
458 2 2.2208 8.07571 7.72332 19.2672
459 2 2.2208 8.0813 13.3066 19.2673
460 1 -1.1104 9.47187 9.11816 15.0829
461 2 2.2208 8.07851 10.5153 16.4779
462 1 -1.1104 9.46916 6.32613 17.8721
463 1 -1.1104 9.47467 11.9097 17.8723
464 1 -1.1104 9.46919 6.32631 15.0833
465 1 -1.1104 9.4747 11.91 15.0836
468 1 -1.1104 12.2586 6.32591 20.6615
470 1 -1.1104 12.2612 9.11764 20.6622
471 1 -1.1104 9.46909 6.32584 20.662
467 1 -1.1104 9.47175 9.11757 20.6616
683 1 -1.1104 9.47752 14.7002 26.2407
383 2 2.2208 10.8551 -3.4439 22.0558
472 2 2.2208 5.27628 -3.44372 22.0557
384 2 2.2208 8.06571 -3.44366 19.2663
473 2 2.2208 5.29725 18.8899 16.4777
474 1 -1.1104 1.10885 14.7011 17.8723
475 1 -1.1104 1.11398 20.284 17.8721
476 1 -1.1104 1.10881 14.7014 15.0835
477 1 -1.1104 1.11383 20.2846 15.0831
478 1 -1.1104 1.11135 17.4926 17.8727
479 2 2.2208 5.2946 16.098 19.2673
480 2 2.2208 5.29982 21.6805 19.267
481 1 -1.1104 1.11149 17.4931 15.0829
482 1 -1.1104 3.89835 14.701 17.873
483 1 -1.1104 3.90354 20.2837 17.8726
484 2 2.2208 2.50758 18.8894 19.2671
485 1 -1.1104 3.89845 14.7014 15.083
486 1 -1.1104 3.90371 20.2842 15.0827
487 2 2.2208 2.50496 16.0985 16.4779
488 2 2.2208 2.51 21.6813 16.4775
489 1 -1.1104 3.90117 17.4924 17.8722
490 1 -1.1104 3.90106 17.4929 15.0834
498 1 -1.1104 3.90109 17.4918 20.6623
499 1 -1.1104 6.69351 20.2839 17.872
504 1 -1.1104 6.69082 17.4931 15.0829
491 1 -1.1104 3.9038 20.2829 20.6616
493 1 -1.1104 1.11393 20.2833 20.662
496 1 -1.1104 1.1116 17.492 20.6617
494 1 -1.1104 3.89846 14.7006 20.6618
492 1 -1.1104 1.1088 14.7007 20.6623
502 1 -1.1104 6.69336 20.2831 20.6621
505 1 -1.1104 6.69089 17.4919 20.6616
495 1 -1.1104 6.68802 14.701 17.8723
500 1 -1.1104 6.69068 17.4925 17.8728
497 1 -1.1104 6.68793 14.7006 20.6624
501 1 -1.1104 6.68799 14.7014 15.0836
506 1 -1.1104 6.69339 20.2846 15.0834
507 2 2.2208 10.8764 18.8912 16.4776
508 1 -1.1104 12.2671 14.7018 17.8721
509 1 -1.1104 12.2727 20.2859 17.8717
510 1 -1.1104 12.2669 14.7023 15.0835
511 1 -1.1104 12.2725 20.2869 15.0832
512 1 -1.1104 12.2697 17.4938 17.8727
513 2 2.2208 10.8737 16.0986 19.2672
514 2 2.2208 10.879 21.682 19.2668
515 1 -1.1104 12.2698 17.4945 15.0827
516 1 -1.1104 9.47747 14.7014 17.8729
517 1 -1.1104 9.48296 20.2847 17.8726
518 2 2.2208 8.08691 18.8897 19.2671
519 1 -1.1104 9.47759 14.7018 15.0829
520 1 -1.1104 9.48321 20.2856 15.0826
521 2 2.2208 8.08415 16.0987 16.4779
522 2 2.2208 8.08957 21.682 16.4775
523 1 -1.1104 9.48043 17.4931 17.8721
524 1 -1.1104 9.48031 17.4937 15.0835
525 1 -1.1104 9.48317 20.2837 20.6613
527 1 -1.1104 12.2724 20.2845 20.6618
526 1 -1.1104 9.47759 14.7008 20.6616
528 1 -1.1104 12.2669 14.7011 20.6622
678 2 2.2208 10.8764 18.8895 22.0565
371 1 -1.1104 3.88516 0.742505 20.6616
663 1 -1.1104 6.69354 20.2825 23.4511
533 2 2.2208 5.2811 2.13978 22.0562
534 1 -1.1104 1.09335 -2.04934 23.4504
535 1 -1.1104 1.09809 3.53409 23.4508
536 1 -1.1104 1.09342 -2.04935 26.2403
537 1 -1.1104 1.09811 3.53398 26.2408
538 1 -1.1104 1.09572 0.742418 23.4511
539 2 2.2208 5.2787 -0.652064 24.8453
540 1 -1.1104 1.09569 0.74232 26.24
541 1 -1.1104 3.88282 -2.04936 23.4508
542 1 -1.1104 3.88758 3.53407 23.4513
543 2 2.2208 2.49164 2.13967 24.8457
544 1 -1.1104 3.8828 -2.0494 26.2397
545 1 -1.1104 3.88752 3.534 26.2403
546 2 2.2208 2.48926 -0.651947 22.056
547 2 2.2208 2.49411 4.93148 22.0565
548 1 -1.1104 3.88514 0.742399 23.4505
549 1 -1.1104 3.88519 0.742311 26.2405
550 2 2.2208 5.28355 4.93133 24.8459
679 1 -1.1104 12.2698 17.4921 23.4516
9353 2 2.2208 13.6602 13.3063 24.8461
503 2 2.2208 10.8791 21.6802 24.846
670 2 2.2208 13.6519 4.93141 22.0564
669 2 2.2208 13.6494 2.13951 24.8457
682 1 -1.1104 6.69089 17.4913 26.2407
589 1 -1.1104 12.267 14.7003 26.2413
381 1 -1.1104 6.67709 3.53422 20.6618
672 1 -1.1104 9.48302 20.2829 23.4516
555 1 -1.1104 6.6722 -2.04944 23.4502
560 1 -1.1104 6.67704 3.53393 26.2408
565 2 2.2208 13.647 -0.65216 22.0561
559 1 -1.1104 6.67702 3.53405 23.4508
561 1 -1.1104 6.67231 -2.04943 26.2402
562 1 -1.1104 6.6746 0.742337 23.451
551 1 -1.1104 6.67459 0.742275 26.2399
566 2 2.2208 10.86 2.13967 22.0562
567 1 -1.1104 12.251 -2.04958 23.4504
568 1 -1.1104 12.2559 3.53395 23.4508
569 1 -1.1104 12.2511 -2.04957 26.2404
570 1 -1.1104 12.2559 3.53385 26.2409
571 1 -1.1104 12.2535 0.742226 23.4511
572 2 2.2208 10.8576 -0.65218 24.8454
573 2 2.2208 10.8625 4.93124 24.8459
574 1 -1.1104 12.2534 0.742134 26.2401
575 1 -1.1104 9.46166 -2.0495 23.4508
576 1 -1.1104 9.46654 3.53397 23.4513
577 2 2.2208 8.07054 2.13962 24.8456
578 1 -1.1104 9.46167 -2.04949 26.2397
579 1 -1.1104 9.46644 3.53396 26.2403
580 2 2.2208 8.06812 -0.652023 22.0559
581 2 2.2208 8.07308 4.93142 22.0564
582 1 -1.1104 9.46402 0.742251 23.4505
583 1 -1.1104 9.46409 0.742269 26.2405
9378 2 2.2208 13.6574 10.5156 16.4778
9417 2 2.2208 13.6659 18.8894 24.846
9381 2 2.2208 13.663 16.0997 16.4777
640 2 2.2208 8.08419 16.0977 22.0567
9440 2 2.2208 13.6631 16.0983 22.0565
590 2 2.2208 5.28617 7.7231 22.0567
591 2 2.2208 5.29176 13.3062 22.0568
592 1 -1.1104 1.10329 9.11729 23.4511
593 1 -1.1104 1.10328 9.11717 26.2412
594 1 -1.1104 1.10059 6.32572 23.4516
595 1 -1.1104 1.10604 11.9088 23.4518
596 2 2.2208 5.28889 10.5145 24.8463
597 1 -1.1104 1.10056 6.32559 26.2405
598 1 -1.1104 1.10606 11.9086 26.2407
599 1 -1.1104 3.89272 9.11729 23.4518
600 2 2.2208 2.49666 7.72292 24.8461
601 2 2.2208 2.50228 13.3059 24.8464
602 1 -1.1104 3.89275 9.11717 26.2407
603 2 2.2208 2.49944 10.5147 22.0568
604 1 -1.1104 3.89006 6.32573 23.451
605 1 -1.1104 3.89559 11.9088 23.4513
606 1 -1.1104 3.89009 6.32563 26.2411
607 1 -1.1104 3.89557 11.9086 26.2414
673 2 2.2208 10.8737 16.0976 24.8462
610 1 -1.1104 9.4832 20.2827 26.2405
9386 2 2.2208 13.6602 13.3071 19.2672
9268 2 2.2208 13.6546 7.7234 19.2671
9415 2 2.2208 13.6658 18.891 19.2669
617 1 -1.1104 6.67958 6.32569 23.4516
446 1 -1.1104 6.67963 6.32589 20.6616
469 1 -1.1104 12.2641 11.9094 20.6616
608 1 -1.1104 6.68223 9.11715 26.2412
609 1 -1.1104 6.68508 11.9087 23.4519
615 1 -1.1104 6.68507 11.9086 26.2407
614 1 -1.1104 6.67952 6.32559 26.2405
616 1 -1.1104 6.68226 9.11725 23.4512
556 2 2.2208 13.6446 -3.44401 24.8453
466 1 -1.1104 9.47456 11.9092 20.6623
618 1 -1.1104 9.47171 9.11725 23.4517
619 1 -1.1104 12.264 11.9088 26.2406
620 1 -1.1104 12.2584 6.32555 26.2405
621 2 2.2208 10.8679 10.5145 24.8461
622 1 -1.1104 12.264 11.909 23.4517
623 1 -1.1104 12.2585 6.32564 23.4515
624 1 -1.1104 12.2612 9.1172 26.2411
625 1 -1.1104 12.2612 9.11733 23.451
626 1 -1.1104 9.47455 11.9087 26.2413
627 1 -1.1104 9.46901 6.32558 26.241
628 1 -1.1104 9.47463 11.9089 23.4511
629 1 -1.1104 9.46906 6.32565 23.451
630 2 2.2208 8.07842 10.5147 22.0567
631 1 -1.1104 9.47168 9.11715 26.2406
632 2 2.2208 8.0813 13.306 24.8463
633 2 2.2208 8.07564 7.72288 24.8461
634 2 2.2208 10.8651 7.72309 22.0566
635 2 2.2208 10.8708 13.3064 22.0567
557 2 2.2208 13.647 -0.65198 16.4773
680 1 -1.1104 6.68804 14.7002 23.4513
677 1 -1.1104 12.2726 20.2831 26.2411
532 2 2.2208 13.652 4.93175 16.4776
675 1 -1.1104 12.2726 20.2835 23.4507
443 2 2.2208 13.6446 -3.44387 19.2665
644 2 2.2208 2.51023 21.6798 22.0565
645 1 -1.1104 3.90125 17.4914 23.4512
646 1 -1.1104 1.11155 17.4916 23.4517
647 1 -1.1104 3.89848 14.7 26.2408
648 1 -1.1104 3.90127 17.4912 26.2414
649 2 2.2208 2.50781 18.8884 24.8462
650 1 -1.1104 3.90401 20.2823 26.2407
651 2 2.2208 5.29735 18.8887 22.0567
652 1 -1.1104 1.10892 14.7003 23.4513
653 1 -1.1104 1.11427 20.2827 23.4511
654 2 2.2208 5.29467 16.0973 24.8463
655 2 2.2208 5.30005 21.6794 24.8462
656 1 -1.1104 1.10893 14.7 26.2414
657 1 -1.1104 1.11172 17.4913 26.2408
658 1 -1.1104 1.11434 20.2825 26.2412
659 1 -1.1104 3.89841 14.7002 23.4519
660 1 -1.1104 3.9038 20.2825 23.4517
661 2 2.2208 2.50505 16.0976 22.0568
643 1 -1.1104 6.69361 20.2823 26.2413
662 1 -1.1104 6.68801 14.7 26.2414
405 2 2.2208 13.6495 2.13979 19.2668
642 1 -1.1104 6.69078 17.4914 23.4518
671 1 -1.1104 9.47748 14.7003 23.4518
529 1 -1.1104 12.2699 17.4928 20.6614
530 1 -1.1104 9.48029 17.4923 20.6622
586 1 -1.1104 9.48043 17.4915 26.2413
666 2 2.2208 8.08952 21.6802 22.0565
667 1 -1.1104 12.2699 17.4918 26.2405
674 1 -1.1104 12.267 14.7006 23.451
676 2 2.2208 8.087 18.8886 24.8462
681 1 -1.1104 9.48044 17.4917 23.451
588 2 2.2208 2.48679 -3.44359 13.6876
554 2 2.2208 8.06573 -3.44352 13.6875
587 2 2.2208 5.28368 4.93177 13.6882
563 2 2.2208 5.2787 -0.651743 13.6877
687 2 2.2208 13.6495 2.13993 13.6881
584 2 2.2208 2.49168 2.13994 13.688
9504 2 2.2208 13.6602 13.3078 13.6885
9511 2 2.2208 13.6547 7.72377 13.6883
696 2 2.2208 10.8737 16.0995 13.6885
685 2 2.2208 10.8576 -0.65183 13.6879
558 2 2.2208 10.8626 4.93187 13.6882
553 2 2.2208 8.07061 2.14004 13.688
688 2 2.2208 5.2891 10.5154 13.6886
690 2 2.2208 2.49684 7.72353 13.6884
700 2 2.2208 8.08697 18.8908 13.6884
689 2 2.2208 2.50233 13.307 13.6886
694 2 2.2208 10.868 10.5156 13.6885
684 2 2.2208 13.6446 -3.44382 13.6877
691 2 2.2208 8.08142 13.3072 13.6886
411 2 2.2208 8.0758 7.72366 13.6884
9509 2 2.2208 13.6658 18.8924 13.6883
698 2 2.2208 5.29465 16.0987 13.6886
695 2 2.2208 2.50759 18.8903 13.6884
9412 2 2.2208 13.6684 21.6816 22.0561
9385 2 2.2208 13.6684 21.6844 16.4772
701 2 2.2208 5.30265 24.4714 5.32041
702 2 2.2208 5.30857 30.0532 5.32027
703 1 -1.1104 1.11943 25.8645 1.13561
704 1 -1.1104 1.11942 25.8652 3.92559
705 1 -1.1104 1.11696 23.0736 1.13628
706 1 -1.1104 1.12221 28.6554 1.13588
707 2 2.2208 5.30551 27.2616 2.531
708 1 -1.1104 1.11675 23.0742 3.92531
709 1 -1.1104 1.12195 28.656 3.92488
710 1 -1.1104 3.90917 25.8642 1.1364
711 2 2.2208 2.51309 24.4708 2.53084
712 2 2.2208 2.51893 30.0526 2.53066
713 1 -1.1104 3.909 25.8647 3.9253
714 2 2.2208 2.51567 27.2625 5.32005
715 1 -1.1104 3.90653 23.0733 1.13588
716 1 -1.1104 3.91172 28.6548 1.13573
717 1 -1.1104 3.90655 23.0738 3.92593
718 1 -1.1104 3.91189 28.6554 3.92577
879 1 -1.1104 1.12176 28.6569 6.71476
726 1 -1.1104 1.11665 23.0749 6.71516
725 1 -1.1104 3.90892 25.8654 6.71527
723 1 -1.1104 3.90623 23.0744 6.71481
727 1 -1.1104 1.11895 25.8661 6.7146
1041 2 2.2208 5.34614 46.81 -0.254277
9843 2 2.2208 13.6585 41.2996 13.6663
9811 2 2.2208 13.6606 43.9539 5.2848
905 1 -1.1104 9.41274 48.0726 6.72385
722 1 -1.1104 6.69873 25.8642 1.13592
731 1 -1.1104 6.69891 25.8648 3.92614
880 1 -1.1104 6.69861 25.8656 6.71481
719 1 -1.1104 6.69627 23.0734 1.13654
720 1 -1.1104 6.70158 28.655 1.13663
721 1 -1.1104 6.70151 28.6554 3.92536
729 1 -1.1104 6.70171 28.6563 6.71563
728 1 -1.1104 6.69609 23.0739 3.92543
733 2 2.2208 10.8818 24.473 5.32067
734 2 2.2208 10.8875 30.0559 5.32109
735 1 -1.1104 12.2778 25.8656 1.13575
736 1 -1.1104 12.2782 25.8667 3.92637
737 1 -1.1104 12.2753 23.0745 1.13651
738 1 -1.1104 12.2807 28.6564 1.13654
739 2 2.2208 10.8845 27.263 2.53122
740 1 -1.1104 12.2752 23.0754 3.92552
741 1 -1.1104 12.2806 28.6576 3.92569
742 1 -1.1104 9.48847 25.8648 1.1366
743 2 2.2208 8.09235 24.4711 2.53108
744 2 2.2208 8.09798 30.0531 2.53143
745 1 -1.1104 9.48837 25.8655 3.9255
746 2 2.2208 8.0951 27.2631 5.3206
747 1 -1.1104 9.48577 23.0739 1.13588
748 1 -1.1104 9.49098 28.6555 1.13595
749 1 -1.1104 9.48592 23.0745 3.92621
750 1 -1.1104 9.49148 28.6564 3.92648
751 1 -1.1104 9.49118 28.6576 6.71506
755 1 -1.1104 9.48863 25.8668 6.71588
754 1 -1.1104 12.2812 28.6602 6.71647
752 1 -1.1104 12.2777 25.8685 6.71514
931 1 -1.1104 9.52738 42.6265 9.51979
930 1 -1.1104 6.72895 48.0583 9.3866
759 2 2.2208 5.31686 35.6354 5.32073
760 1 -1.1104 1.12499 31.4459 1.13521
761 1 -1.1104 1.13266 37.0271 1.13488
762 1 -1.1104 1.12513 31.4466 3.92534
763 1 -1.1104 1.13317 37.0277 3.92561
764 1 -1.1104 1.12863 34.2368 1.13614
765 2 2.2208 5.31207 32.8436 2.53148
766 2 2.2208 5.32205 38.428 2.53248
767 1 -1.1104 1.12855 34.237 3.92444
768 1 -1.1104 3.91487 31.4456 1.13646
769 1 -1.1104 3.92221 37.0278 1.13745
770 2 2.2208 2.52745 35.6343 2.53105
771 1 -1.1104 3.91479 31.4459 3.92502
772 1 -1.1104 3.92262 37.0269 3.92466
773 2 2.2208 2.52258 32.844 5.31986
774 2 2.2208 2.53526 38.4255 5.31946
775 1 -1.1104 3.91799 34.2361 1.13582
776 1 -1.1104 3.91841 34.2365 3.9261
786 1 -1.1104 1.12818 34.2377 6.71481
781 1 -1.1104 6.71173 37.0269 3.92701
779 1 -1.1104 3.91812 34.2363 6.71427
1024 2 2.2208 -0.27117 30.0542 5.31961
1042 2 2.2208 10.9038 46.8283 -0.260753
780 1 -1.1104 6.71112 37.0277 1.13656
785 1 -1.1104 3.92272 37.0264 6.71581
758 2 2.2208 -0.237517 44.0057 2.52552
783 1 -1.1104 6.70425 31.4455 1.13614
777 1 -1.1104 6.70482 31.4459 3.92629
778 1 -1.1104 6.70776 34.2366 1.13748
782 1 -1.1104 6.70791 34.2361 3.92552
792 1 -1.1104 6.70829 34.2363 6.71596
789 1 -1.1104 6.7119 37.0255 6.71469
793 2 2.2208 10.8935 35.6395 5.32212
794 1 -1.1104 12.2831 31.447 1.13594