ITEM: TIMESTEP
490
ITEM: NUMBER OF ATOMS
17740
ITEM: BOX BOUNDS pp pp pp
-2.7717828229332220e-01 2.7617178282293317e+01
-3.4472205766305355e+00 3.3152722057663055e+02
-2.7717827830221448e-01 2.7617178278302212e+01
ITEM: ATOMS id type q x y z
1 2 2.2208 5.25874 2.13359 5.31849
2 1 -1.1104 1.07154 -2.04981 1.1335
3 1 -1.1104 1.07549 3.52595 1.13431
4 1 -1.1104 1.07164 -2.04968 3.92337
5 1 -1.1104 1.07557 3.52606 3.92415
6 1 -1.1104 1.07367 0.738069 1.13435
7 2 2.2208 5.25679 -0.654349 2.52869
8 1 -1.1104 1.07354 0.738199 3.92335
9 1 -1.1104 3.86112 -2.04982 1.13397
10 1 -1.1104 3.86504 3.52587 1.13471
11 2 2.2208 2.4693 2.13356 2.52905
12 1 -1.1104 3.86099 -2.04969 3.92295
13 1 -1.1104 3.86494 3.52601 3.92374
14 2 2.2208 2.46731 -0.654228 5.31808
15 2 2.2208 2.47121 4.92149 5.3188
16 1 -1.1104 3.863 0.738031 1.13395
17 1 -1.1104 3.8631 0.73817 3.92379
18 2 2.2208 5.26068 4.92132 2.52935
206 1 -1.1104 6.65046 -2.04968 6.71242
22 1 -1.1104 3.86107 -2.04963 6.71279
58 2 2.2208 13.6251 -0.654414 5.31824
181 1 -1.1104 1.07152 -2.04965 6.71234
178 1 -1.1104 6.65441 3.52598 6.71319
120 1 -1.1104 9.45184 14.6769 12.2929
21 1 -1.1104 3.86499 3.52603 6.71359
180 1 -1.1104 1.0736 0.738226 6.71322
20 1 -1.1104 1.07547 3.5261 6.71318
30 1 -1.1104 3.86297 0.738202 6.7128
90 2 2.2208 13.6231 -3.44233 8.10726
213 2 2.2208 13.6291 4.92124 10.8978
32 1 -1.1104 6.65246 0.738098 3.92341
19 1 -1.1104 6.65442 3.52579 1.13432
25 1 -1.1104 6.65047 -2.04988 1.13359
31 1 -1.1104 6.65449 3.52592 3.92417
53 1 -1.1104 6.65253 0.738149 6.71325
33 1 -1.1104 6.65258 0.737969 1.13441
319 1 -1.1104 9.45585 20.2525 12.2929
24 1 -1.1104 6.65057 -2.04973 3.92343
34 2 2.2208 10.8377 2.13349 5.31858
35 1 -1.1104 12.2294 -2.04999 1.1337
36 1 -1.1104 12.2334 3.52574 1.1344
37 1 -1.1104 12.2295 -2.04988 3.92354
38 1 -1.1104 12.2334 3.52589 3.92427
39 1 -1.1104 12.2315 0.737895 1.13451
40 2 2.2208 10.8357 -0.654461 2.52879
41 1 -1.1104 12.2314 0.738014 3.9235
42 1 -1.1104 9.44005 -2.04993 1.13408
43 1 -1.1104 9.44399 3.52575 1.13478
44 2 2.2208 8.04823 2.13344 2.52911
45 1 -1.1104 9.43993 -2.04982 3.92306
46 1 -1.1104 9.44389 3.52588 3.9238
47 2 2.2208 8.04624 -0.654312 5.31816
48 1 -1.1104 9.44194 0.737913 1.13404
49 1 -1.1104 9.44203 0.738046 3.92388
50 2 2.2208 8.05016 4.92135 5.31882
51 2 2.2208 10.8396 4.92125 2.52943
60 1 -1.1104 12.2334 3.52592 6.71328
55 1 -1.1104 9.44191 0.738094 6.71288
56 1 -1.1104 12.2315 0.738046 6.71335
54 1 -1.1104 9.44001 -2.04976 6.7129
62 1 -1.1104 12.2294 -2.04984 6.71252
61 1 -1.1104 9.44395 3.52594 6.71365
64 2 2.2208 5.26259 7.70923 5.31897
65 2 2.2208 5.26652 13.2848 5.31903
66 1 -1.1104 1.07929 9.10172 1.13471
67 1 -1.1104 1.07933 9.1018 3.92453
68 1 -1.1104 1.07745 6.31383 1.13497
69 1 -1.1104 1.08128 11.8896 1.13512
70 2 2.2208 5.26451 10.4969 2.5296
71 1 -1.1104 1.0774 6.31394 3.92401
72 1 -1.1104 1.08126 11.8897 3.92416
73 1 -1.1104 3.86881 9.10153 1.13506
74 2 2.2208 2.47311 7.70926 2.52954
75 2 2.2208 2.477 13.285 2.52962
76 1 -1.1104 3.86877 9.10167 3.92412
77 2 2.2208 2.47504 10.4972 5.31906
78 1 -1.1104 3.86685 6.31372 1.13455
79 1 -1.1104 3.87072 11.8894 1.13471
80 1 -1.1104 3.86691 6.31384 3.92439
81 1 -1.1104 3.87074 11.8895 3.92453
84 1 -1.1104 6.65634 6.31373 3.92399
92 1 -1.1104 1.08127 11.8897 6.71399
87 1 -1.1104 3.87076 11.8894 6.71358
208 1 -1.1104 12.2413 14.6773 9.50344
93 1 -1.1104 1.07932 9.10181 6.71358
236 1 -1.1104 3.86687 6.31385 6.71344
88 1 -1.1104 1.07744 6.31395 6.71386
82 1 -1.1104 6.6564 6.3136 1.13495
94 1 -1.1104 6.65829 9.10152 3.9245
83 1 -1.1104 6.66024 11.8892 1.13508
235 1 -1.1104 6.6583 9.10155 6.71354
91 1 -1.1104 6.66027 11.8893 6.71397
89 1 -1.1104 3.86882 9.10165 6.71396
86 1 -1.1104 6.66024 11.8893 3.92411
85 1 -1.1104 6.65825 9.10141 1.13466
96 2 2.2208 10.8416 7.70916 5.319
97 2 2.2208 10.8455 13.2848 5.31903
98 1 -1.1104 12.2372 9.10144 1.13468
99 1 -1.1104 12.2373 9.10158 3.92456
100 1 -1.1104 12.2353 6.31361 1.13505
101 1 -1.1104 12.2392 11.8893 1.13513
102 2 2.2208 10.8435 10.4969 2.5296
103 1 -1.1104 12.2353 6.31373 3.92405
104 1 -1.1104 12.2392 11.8894 3.92409
105 1 -1.1104 9.44778 9.10138 1.13508
106 2 2.2208 8.05207 7.70906 2.52954
107 2 2.2208 8.056 13.2846 2.5296
108 1 -1.1104 9.44776 9.10149 3.92409
109 2 2.2208 8.05404 10.4969 5.31902
110 1 -1.1104 9.44582 6.31357 1.13457
111 1 -1.1104 9.44971 11.8892 1.13465
112 1 -1.1104 9.44588 6.31369 3.92444
113 1 -1.1104 9.44977 11.8893 3.92453
119 1 -1.1104 12.2354 6.31378 6.71392
263 1 -1.1104 12.2373 9.10162 6.71355
264 1 -1.1104 9.44782 9.10155 6.71397
262 1 -1.1104 9.44585 6.31373 6.71346
268 1 -1.1104 9.4498 11.8893 6.71353
234 1 -1.1104 6.6564 6.31378 6.71384
29 1 -1.1104 9.45585 20.2526 9.50301
114 2 2.2208 13.635 13.2849 2.52964
28 1 -1.1104 12.2433 17.4653 12.2928
123 2 2.2208 5.27049 18.8603 5.31909
124 1 -1.1104 1.08324 14.6776 1.13473
125 1 -1.1104 1.08711 20.2536 1.13494
126 1 -1.1104 1.08325 14.6776 3.9245
127 1 -1.1104 1.08714 20.2536 3.92456
128 1 -1.1104 1.08525 17.4656 1.13513
129 2 2.2208 5.26849 16.0726 2.52963
130 2 2.2208 5.27237 21.6482 2.5299
131 1 -1.1104 1.08523 17.4656 3.92417
132 1 -1.1104 3.87273 14.6772 1.13508
133 1 -1.1104 3.87664 20.253 1.13525
134 2 2.2208 2.48095 18.8608 2.52971
135 1 -1.1104 3.87273 14.6773 3.92412
136 1 -1.1104 3.87661 20.2529 3.92428
137 2 2.2208 2.47901 16.0728 5.31903
138 2 2.2208 2.48286 21.6487 5.31916
139 1 -1.1104 3.87466 17.4651 1.13479
140 1 -1.1104 3.87471 17.4651 3.92451
146 1 -1.1104 6.6622 14.677 1.13469
145 1 -1.1104 1.08327 14.6775 6.71356
150 1 -1.1104 3.87274 14.6772 6.71393
141 1 -1.1104 6.66612 20.2525 1.13493
149 1 -1.1104 1.0852 17.4655 6.71388
296 1 -1.1104 3.87474 17.465 6.71356
291 1 -1.1104 6.66229 14.677 6.71354
148 1 -1.1104 1.08714 20.2534 6.71361
292 1 -1.1104 6.66427 17.4647 6.71397
27 1 -1.1104 9.45389 17.4647 12.2924
59 2 2.2208 13.639 18.861 8.10855
147 1 -1.1104 6.66621 20.2525 3.92466
143 1 -1.1104 6.66423 17.4648 1.13516
175 1 -1.1104 12.2434 17.4652 6.71409
176 1 -1.1104 12.2413 14.6773 6.71352
142 1 -1.1104 6.66225 14.6771 3.92452
144 1 -1.1104 6.66424 17.4648 3.92415
155 2 2.2208 10.8496 18.8604 5.31917
156 1 -1.1104 12.2412 14.6771 1.13465
157 1 -1.1104 12.2453 20.2526 1.13487
158 1 -1.1104 12.2413 14.6773 3.92458
159 1 -1.1104 12.2454 20.2529 3.92484
160 1 -1.1104 12.2433 17.4649 1.13523
161 2 2.2208 10.8475 16.0725 2.52965
162 2 2.2208 10.8515 21.648 2.52999
163 1 -1.1104 12.2433 17.4651 3.92414
164 1 -1.1104 9.45175 14.6769 1.13511
165 1 -1.1104 9.45579 20.2524 1.13537
166 2 2.2208 8.06 18.8601 2.52975
167 1 -1.1104 9.45178 14.677 3.92408
168 1 -1.1104 9.45576 20.2525 3.92429
169 2 2.2208 8.05804 16.0724 5.31905
170 2 2.2208 8.06199 21.6479 5.31927
171 1 -1.1104 9.45372 17.4647 1.13475
172 1 -1.1104 9.45383 17.4648 3.92462
323 1 -1.1104 9.45183 14.6771 6.71399
289 1 -1.1104 6.66623 20.2524 6.71364
322 1 -1.1104 12.2453 20.2531 6.71368
151 1 -1.1104 12.2453 20.2534 12.2923
174 1 -1.1104 9.45584 20.2525 6.71416
173 1 -1.1104 9.45384 17.4648 6.71356
325 2 2.2208 8.06006 18.8601 8.10851
265 2 2.2208 5.25476 -3.44215 10.8965
63 2 2.2208 13.637 16.0729 10.8979
23 2 2.2208 13.6232 -3.4424 2.52843
182 2 2.2208 5.25868 2.13347 10.8974
183 1 -1.1104 1.0715 -2.04987 12.2912
184 1 -1.1104 1.07544 3.52586 12.2921
185 1 -1.1104 1.07158 -2.04973 9.50222
186 1 -1.1104 1.07552 3.52599 9.50304
187 1 -1.1104 1.07354 0.737977 12.2921
188 2 2.2208 5.25675 -0.654257 8.10752
189 1 -1.1104 1.0735 0.738138 9.50222
190 1 -1.1104 3.86102 -2.04981 12.2917
191 1 -1.1104 3.86493 3.52582 12.2925
192 2 2.2208 2.46925 2.13361 8.10791
193 1 -1.1104 3.86097 -2.04969 9.50179
194 1 -1.1104 3.86493 3.52598 9.5026
195 2 2.2208 2.46726 -0.654347 10.8969
196 2 2.2208 2.47118 4.92134 10.8977
197 1 -1.1104 3.86293 0.738009 12.2917
198 1 -1.1104 3.86302 0.738142 9.50265
199 2 2.2208 5.26066 4.9214 8.10823
200 1 -1.1104 6.65438 3.5258 12.2921
209 1 -1.1104 6.65246 0.737988 12.2921
211 2 2.2208 13.6271 2.13346 8.10804
212 2 2.2208 13.6251 -0.654507 10.8971
52 2 2.2208 13.6271 2.13341 2.52918
57 2 2.2208 13.6291 4.92137 5.31889
267 2 2.2208 13.631 7.70922 8.10848
269 2 2.2208 13.633 10.497 10.8979
179 2 2.2208 5.25478 -3.4421 5.31769
202 1 -1.1104 6.65044 -2.04981 12.2913
210 1 -1.1104 6.65052 -2.04971 9.50226
201 1 -1.1104 6.65242 0.738089 9.50225
177 2 2.2208 8.04424 -3.44214 8.10716
203 1 -1.1104 6.65444 3.52592 9.50304
214 2 2.2208 10.8376 2.13341 10.8974
215 1 -1.1104 12.2294 -2.04996 12.2914
216 1 -1.1104 12.2333 3.52575 12.2921
217 1 -1.1104 12.2294 -2.04985 9.50237
218 1 -1.1104 12.2334 3.52587 9.50313
219 1 -1.1104 12.2314 0.737903 12.2922
220 2 2.2208 10.8357 -0.654366 8.10762
221 1 -1.1104 12.2314 0.738006 9.50235
222 1 -1.1104 9.43999 -2.04985 12.2918
223 1 -1.1104 9.4439 3.52577 12.2925
224 2 2.2208 8.04819 2.13353 8.10795
225 1 -1.1104 9.43992 -2.04978 9.5019
226 1 -1.1104 9.44388 3.52588 9.50266
227 2 2.2208 8.04621 -0.654371 10.897
228 2 2.2208 8.05014 4.92126 10.8977
229 1 -1.1104 9.44188 0.737952 12.2917
230 1 -1.1104 9.44196 0.738055 9.50272
231 2 2.2208 10.8396 4.92133 8.1083
318 1 -1.1104 6.66629 20.252 12.2924
288 2 2.2208 10.8337 -3.44228 10.8967
261 2 2.2208 2.46532 -3.44218 2.52824
232 1 -1.1104 9.45387 17.4648 9.50346
205 2 2.2208 8.04425 -3.44227 2.52835
317 1 -1.1104 6.6643 17.4645 12.2928
237 2 2.2208 5.26261 7.70909 10.8979
238 2 2.2208 5.26655 13.2846 10.8979
239 1 -1.1104 1.07935 9.10155 12.2925
240 1 -1.1104 1.07933 9.1017 9.50344
241 1 -1.1104 1.07742 6.3137 12.2928
242 1 -1.1104 1.08127 11.8894 12.2929
243 2 2.2208 5.26455 10.497 8.10849
244 1 -1.1104 1.07741 6.31386 9.5029
245 1 -1.1104 1.0813 11.8895 9.50307
246 1 -1.1104 3.86882 9.10143 12.2929
247 2 2.2208 2.47312 7.70929 8.10844
248 2 2.2208 2.47702 13.2849 8.10849
249 1 -1.1104 3.86882 9.10157 9.50302
250 2 2.2208 2.47507 10.497 10.898
251 1 -1.1104 3.86687 6.31364 12.2923
252 1 -1.1104 3.8708 11.8892 12.2925
253 1 -1.1104 3.8669 6.31379 9.50329
254 1 -1.1104 3.87076 11.8893 9.50343
256 1 -1.1104 6.6603 11.8891 12.2929
255 1 -1.1104 6.65637 6.31371 9.50288
266 2 2.2208 13.635 13.285 8.10849
233 2 2.2208 10.8337 -3.44226 5.31782
116 2 2.2208 13.633 10.4971 5.31907
260 1 -1.1104 6.65832 9.10149 9.50342
258 1 -1.1104 6.65834 9.10135 12.2925
118 1 -1.1104 12.2393 11.8895 6.71401
153 2 2.2208 13.6411 21.6488 5.31937
257 1 -1.1104 6.65638 6.31359 12.2927
152 2 2.2208 13.6371 16.0729 5.31908
259 1 -1.1104 6.66031 11.8892 9.50301
270 1 -1.1104 9.44981 11.8892 9.50343
271 1 -1.1104 9.44588 6.31369 9.50332
272 1 -1.1104 9.44985 11.8891 12.2924
273 1 -1.1104 9.44585 6.31356 12.2923
274 2 2.2208 8.05408 10.4968 10.8979
275 1 -1.1104 9.44784 9.10148 9.50299
276 2 2.2208 8.05607 13.2847 8.10847
277 2 2.2208 8.0521 7.70914 8.10843
278 2 2.2208 10.8416 7.70905 10.8979
279 2 2.2208 10.8456 13.2847 10.8979
280 1 -1.1104 12.2373 9.10144 12.2925
281 1 -1.1104 12.2373 9.10157 9.50345
282 1 -1.1104 12.2353 6.31359 12.2928
283 1 -1.1104 12.2393 11.8893 12.2929
284 2 2.2208 10.8436 10.497 8.10849
285 1 -1.1104 12.2353 6.31371 9.50293
286 1 -1.1104 12.2393 11.8894 9.50297
287 1 -1.1104 9.44783 9.10136 12.2929
204 2 2.2208 2.46529 -3.44208 8.10707
295 1 -1.1104 6.66234 14.6768 12.2924
315 1 -1.1104 6.66624 20.2522 9.50344
290 1 -1.1104 3.87661 20.2528 6.71394
316 1 -1.1104 6.6623 14.6769 9.5034
294 1 -1.1104 6.66432 17.4646 9.50296
297 1 -1.1104 1.08516 17.465 12.2927
298 2 2.2208 2.479 16.0725 10.8979
299 2 2.2208 2.48284 21.648 10.8978
300 1 -1.1104 3.87476 17.4646 12.2924
301 1 -1.1104 3.87661 20.2522 12.2928
302 1 -1.1104 3.87275 14.6769 12.2928
303 1 -1.1104 1.08708 20.2531 9.50327
304 1 -1.1104 1.08524 17.4652 9.50296
305 2 2.2208 5.27241 21.6479 8.10851
306 1 -1.1104 1.08323 14.6774 9.50337
307 2 2.2208 5.26854 16.0724 8.10845
308 1 -1.1104 1.08711 20.2528 12.2924
309 1 -1.1104 1.08327 14.6772 12.2925
310 2 2.2208 5.27051 18.86 10.8979
311 1 -1.1104 3.87667 20.2525 9.50301
312 2 2.2208 2.48096 18.8605 8.10844
313 1 -1.1104 3.87471 17.4648 9.50335
314 1 -1.1104 3.87278 14.6771 9.503
154 2 2.2208 13.639 18.8606 2.52978
121 2 2.2208 10.8516 21.6483 8.10866
115 2 2.2208 13.631 7.70916 2.52961
207 2 2.2208 13.641 21.6492 10.898
324 2 2.2208 10.8476 16.0726 8.10849
122 2 2.2208 8.06204 21.6477 10.8979
117 1 -1.1104 12.2434 17.4653 9.50296
95 1 -1.1104 12.2454 20.2533 9.50361
321 1 -1.1104 12.2413 14.6773 12.2923
320 2 2.2208 8.05809 16.0723 10.8979
293 1 -1.1104 9.45186 14.677 9.50295
26 2 2.2208 10.8496 18.8605 10.8979
342 2 2.2208 10.8416 7.70893 -0.25987
329 2 2.2208 10.8495 18.86 -0.259647
347 2 2.2208 13.6329 10.4969 -0.259801
346 2 2.2208 2.47121 4.92127 -0.260078
327 2 2.2208 13.6252 -0.654622 -0.260599
334 2 2.2208 13.6291 4.92114 -0.259983
350 2 2.2208 13.637 16.0726 -0.259791
336 2 2.2208 5.25477 -3.44235 -0.261115
332 2 2.2208 5.25877 2.13334 -0.260369
330 2 2.2208 2.46733 -0.654467 -0.260769
331 2 2.2208 10.8377 2.13325 -0.260276
337 2 2.2208 10.8337 -3.44246 -0.261006
333 2 2.2208 8.04626 -0.654557 -0.260678
345 2 2.2208 8.05017 4.9211 -0.260057
328 2 2.2208 13.641 21.6481 -0.259456
339 2 2.2208 5.26647 13.2846 -0.259818
338 2 2.2208 5.26259 7.709 -0.259905
335 2 2.2208 2.47503 10.497 -0.259812
343 2 2.2208 8.054 10.4967 -0.259848
344 2 2.2208 10.8455 13.2846 -0.259837
349 2 2.2208 5.27042 18.8602 -0.259631
341 2 2.2208 2.47898 16.0728 -0.259758
348 2 2.2208 2.48285 21.6486 -0.259425
326 2 2.2208 8.05797 16.0723 -0.259777
340 2 2.2208 8.06189 21.6477 -0.259407
351 2 2.2208 5.25865 2.13317 16.4762
352 1 -1.1104 1.07146 -2.05016 17.8701
353 1 -1.1104 1.07543 3.5256 17.8709
354 1 -1.1104 1.07153 -2.05004 15.0811
355 1 -1.1104 1.07548 3.5257 15.0819
356 1 -1.1104 1.0735 0.737706 17.871
357 2 2.2208 5.25668 -0.654749 19.2653
358 1 -1.1104 1.07345 0.737836 15.0811
359 1 -1.1104 3.86098 -2.0501 17.8706
360 1 -1.1104 3.86493 3.52554 17.8713
361 2 2.2208 2.46921 2.13311 19.2657
362 1 -1.1104 3.86093 -2.04996 15.0807
363 1 -1.1104 3.86488 3.52568 15.0815
364 2 2.2208 2.46722 -0.654662 16.4758
365 1 -1.1104 3.86289 0.737701 17.8705
366 1 -1.1104 3.86295 0.737839 15.0815
367 2 2.2208 2.47117 4.92107 16.4766
368 2 2.2208 5.26066 4.9209 19.266
445 2 2.2208 13.635 13.2846 19.2662
375 1 -1.1104 3.86299 0.737649 20.6604
377 1 -1.1104 3.86092 -2.05019 20.6596
380 1 -1.1104 3.8649 3.52548 20.6603
378 1 -1.1104 1.07155 -2.0502 20.66
532 1 -1.1104 6.65444 3.52543 20.6608
556 2 2.2208 8.04419 -3.44255 19.2649
381 1 -1.1104 6.65047 -2.05017 20.6601
585 2 2.2208 5.25472 -3.44243 16.4754
379 1 -1.1104 1.07346 0.737673 20.66
531 1 -1.1104 6.65238 0.737603 20.66
376 1 -1.1104 1.07553 3.52556 20.6608
371 1 -1.1104 6.65437 3.52548 17.8709
372 1 -1.1104 6.65238 0.737821 15.0811
384 1 -1.1104 6.65047 -2.04996 15.0811
370 1 -1.1104 6.65242 0.737684 17.871
562 2 2.2208 13.6251 -0.654865 22.0549
385 1 -1.1104 6.65039 -2.0501 17.8702
369 1 -1.1104 6.6544 3.52563 15.0819
386 2 2.2208 10.8376 2.13311 16.4763
387 1 -1.1104 12.2294 -2.0502 17.8703
388 1 -1.1104 12.2333 3.52546 17.871
389 1 -1.1104 12.2294 -2.05007 15.0812
390 1 -1.1104 12.2334 3.5256 15.082
391 1 -1.1104 12.2314 0.737635 17.8711
392 2 2.2208 10.8356 -0.654796 19.2654
393 2 2.2208 10.8396 4.92085 19.2661
394 1 -1.1104 12.2313 0.737761 15.0812
395 1 -1.1104 9.43994 -2.05013 17.8707
396 1 -1.1104 9.44389 3.52546 17.8714
397 2 2.2208 8.04815 2.13302 19.2657
398 1 -1.1104 9.4399 -2.05001 15.0808
399 1 -1.1104 9.44385 3.52559 15.0815
400 2 2.2208 8.04616 -0.65466 16.4759
401 2 2.2208 8.05013 4.92095 16.4766
402 1 -1.1104 9.44185 0.737652 17.8706
403 1 -1.1104 9.44191 0.7378 15.0816
407 1 -1.1104 12.2334 3.52541 20.6609
409 1 -1.1104 12.2294 -2.05026 20.6601
559 1 -1.1104 9.44387 3.52538 20.6604
408 1 -1.1104 12.2313 0.737551 20.6601
373 2 2.2208 8.04424 -3.44253 24.8439
415 2 2.2208 5.26263 7.7088 16.4768
416 2 2.2208 5.26655 13.2844 16.4768
417 1 -1.1104 1.07939 9.10135 17.8714
418 1 -1.1104 1.07937 9.10143 15.0823
419 1 -1.1104 1.07746 6.31348 17.8716
420 1 -1.1104 1.08133 11.8892 17.8718
421 2 2.2208 5.2646 10.4965 19.2663
422 1 -1.1104 1.0774 6.31359 15.0818
423 1 -1.1104 1.08132 11.8893 15.082
424 1 -1.1104 3.86888 9.1012 17.8718
425 2 2.2208 2.47316 7.70885 19.2662
426 2 2.2208 2.47705 13.2845 19.2663
427 1 -1.1104 3.86885 9.10129 15.0819
428 2 2.2208 2.47511 10.4967 16.4769
429 1 -1.1104 3.86689 6.31338 17.8712
430 1 -1.1104 3.87082 11.889 17.8714
431 1 -1.1104 3.86689 6.31349 15.0822
432 1 -1.1104 3.87079 11.8891 15.0824
434 1 -1.1104 6.65837 9.10109 17.8713
437 1 -1.1104 6.66034 11.889 15.0819
433 1 -1.1104 6.66033 11.8888 17.8718
438 1 -1.1104 3.87081 11.889 20.6612
436 1 -1.1104 6.65835 9.1012 15.0823
442 1 -1.1104 1.07942 9.10134 20.6612
588 1 -1.1104 1.07743 6.31345 20.6607
586 1 -1.1104 1.08132 11.8892 20.6609
435 1 -1.1104 3.86886 9.10119 20.6608
439 1 -1.1104 3.86694 6.31334 20.661
587 1 -1.1104 6.65838 9.10104 20.6612
374 2 2.2208 13.6232 -3.44264 24.8439
443 2 2.2208 2.46524 -3.44258 19.2649
446 1 -1.1104 6.65641 6.31329 17.8716
441 1 -1.1104 6.65637 6.31342 15.0818
622 2 2.2208 13.6349 13.2846 24.8451
447 2 2.2208 10.8416 7.70876 16.4768
448 2 2.2208 10.8456 13.2844 16.4768
449 1 -1.1104 12.2373 9.10118 17.8713
450 1 -1.1104 12.2373 9.10129 15.0823
451 1 -1.1104 12.2354 6.31331 17.8717
452 1 -1.1104 12.2393 11.889 17.8717
453 2 2.2208 10.8436 10.4965 19.2662
454 1 -1.1104 12.2353 6.31343 15.0818
455 1 -1.1104 12.2393 11.8892 15.0818
456 1 -1.1104 9.44786 9.10108 17.8717
457 2 2.2208 8.05213 7.70866 19.2662
458 2 2.2208 8.05604 13.2842 19.2662
459 1 -1.1104 9.44787 9.1012 15.0819
460 2 2.2208 8.0541 10.4966 16.4768
461 1 -1.1104 9.44587 6.31326 17.8712
462 1 -1.1104 9.44985 11.8889 17.8713
463 1 -1.1104 9.44587 6.3134 15.0822
464 1 -1.1104 9.44982 11.889 15.0823
617 1 -1.1104 9.44979 11.8888 20.6612
624 1 -1.1104 12.2393 11.889 20.6607
526 1 -1.1104 12.2452 20.2521 20.6611
469 1 -1.1104 9.44785 9.10103 20.6607
625 1 -1.1104 9.4459 6.31321 20.6611
616 1 -1.1104 6.65638 6.31323 20.6606
618 1 -1.1104 12.2353 6.31326 20.6607
612 1 -1.1104 6.6603 11.8888 20.6608
619 1 -1.1104 12.2373 9.10112 20.6612
623 2 2.2208 13.633 10.4967 22.0557
472 2 2.2208 5.27045 18.8596 16.4768
473 1 -1.1104 1.08326 14.677 17.8714
474 1 -1.1104 1.08702 20.2524 17.8714
475 1 -1.1104 1.08324 14.6771 15.0823
476 1 -1.1104 1.08702 20.2525 15.0822
477 1 -1.1104 1.08516 17.4647 17.8717
478 2 2.2208 5.26848 16.072 19.2663
479 2 2.2208 5.27229 21.647 19.2664
480 1 -1.1104 1.08519 17.4648 15.0819
481 1 -1.1104 3.87276 14.6767 17.8718
482 1 -1.1104 3.87656 20.2519 17.8718
483 2 2.2208 2.48087 18.8599 19.2663
484 1 -1.1104 3.87278 14.6768 15.0819
485 1 -1.1104 3.87663 20.252 15.0819
486 2 2.2208 2.47899 16.0722 16.4768
487 2 2.2208 2.48277 21.6475 16.4768
488 1 -1.1104 3.87468 17.4644 17.8714
489 1 -1.1104 3.8747 17.4644 15.0823
491 1 -1.1104 6.66616 20.2517 17.8714
500 1 -1.1104 6.66229 14.6766 17.8713
495 1 -1.1104 6.66431 17.4643 15.0818
494 1 -1.1104 1.08709 20.2526 20.6613
645 1 -1.1104 3.87467 17.4644 20.6612
490 1 -1.1104 6.66229 14.6767 15.0823
646 1 -1.1104 3.87649 20.252 20.661
497 1 -1.1104 1.08326 14.677 20.6612
492 1 -1.1104 6.66621 20.2518 15.0823
647 1 -1.1104 3.87271 14.6768 20.6608
499 1 -1.1104 1.08514 17.4648 20.6609
563 2 2.2208 13.6272 2.1331 24.8447
493 1 -1.1104 6.66423 17.4642 17.8717
498 1 -1.1104 6.66415 17.4642 20.6608
674 1 -1.1104 6.66611 20.2516 20.6613
496 1 -1.1104 6.66224 14.6765 20.6612
502 2 2.2208 13.637 16.0726 16.4767
503 2 2.2208 10.8495 18.8601 16.4767
504 1 -1.1104 12.2413 14.6769 17.8712
505 1 -1.1104 12.2453 20.2526 17.8711
506 1 -1.1104 12.2413 14.6771 15.0822
507 1 -1.1104 12.2453 20.253 15.0822
508 1 -1.1104 12.2432 17.4647 17.8716
509 2 2.2208 10.8475 16.0721 19.2662
510 2 2.2208 10.8514 21.6474 19.2662
511 1 -1.1104 12.2433 17.465 15.0817
512 1 -1.1104 9.4518 14.6766 17.8717
513 1 -1.1104 9.45572 20.2519 17.8717
514 2 2.2208 8.05995 18.8595 19.2663
515 1 -1.1104 9.45186 14.6768 15.0818
516 1 -1.1104 9.45586 20.2523 15.0817
517 2 2.2208 8.05806 16.072 16.4768
518 2 2.2208 8.06197 21.6472 16.4768
519 1 -1.1104 9.45379 17.4643 17.8712
520 1 -1.1104 9.45382 17.4645 15.0823
521 1 -1.1104 12.2432 17.4645 20.6606
675 1 -1.1104 9.45565 20.2517 20.6608
524 1 -1.1104 9.45174 14.6766 20.6607
523 1 -1.1104 9.45371 17.4642 20.6612
522 2 2.2208 13.6409 21.6486 16.4766
557 2 2.2208 10.8337 -3.4425 16.4755
465 2 2.2208 13.6311 7.70878 19.2662
621 2 2.2208 13.631 7.70887 24.8451
560 2 2.2208 13.6291 4.9209 22.0555
405 2 2.2208 13.6271 2.13301 19.2658
533 2 2.2208 5.2587 2.13306 22.0551
534 1 -1.1104 1.0715 -2.05017 23.449
535 1 -1.1104 1.07547 3.52562 23.4498
536 1 -1.1104 1.07166 -2.04999 26.2389
537 1 -1.1104 1.07559 3.52578 26.2396
538 1 -1.1104 1.07362 0.737729 23.4498
539 2 2.2208 5.25676 -0.654668 24.8442
540 1 -1.1104 1.07354 0.737891 26.2388
541 1 -1.1104 3.86106 -2.05013 23.4495
542 1 -1.1104 3.86501 3.52555 23.4502
543 2 2.2208 2.46928 2.13323 24.8445
544 1 -1.1104 3.86098 -2.05001 26.2385
545 1 -1.1104 3.86494 3.5257 26.2392
546 2 2.2208 2.46725 -0.654748 22.0547
547 1 -1.1104 3.86296 0.737692 23.4494
548 1 -1.1104 3.86311 0.737863 26.2393
549 2 2.2208 5.26069 4.921 24.8448
550 2 2.2208 2.47121 4.92099 22.0554
561 1 -1.1104 6.65043 -2.05017 23.4491
558 2 2.2208 13.6231 -3.4427 19.265
411 2 2.2208 13.6291 4.92097 16.4767
404 2 2.2208 13.6251 -0.654745 16.476
555 1 -1.1104 6.65252 0.737661 23.4499
440 2 2.2208 13.6389 18.8601 24.8452
382 2 2.2208 13.6369 16.0723 22.0556
410 1 -1.1104 9.44194 0.73759 20.6605
669 1 -1.1104 12.2432 17.4646 26.2396
673 2 2.2208 10.8475 16.0722 24.8451
551 1 -1.1104 6.65439 3.52546 23.4498
552 1 -1.1104 6.65246 0.73778 26.2389
553 1 -1.1104 6.65452 3.52562 26.2396
466 2 2.2208 13.633 10.4968 16.4768
564 1 -1.1104 6.65057 -2.05003 26.239
406 1 -1.1104 9.43988 -2.05022 20.6597
565 2 2.2208 10.8377 2.133 22.0552
566 1 -1.1104 12.2294 -2.05024 23.4492
567 1 -1.1104 12.2334 3.52544 23.4499
568 1 -1.1104 12.2295 -2.05013 26.2391
569 1 -1.1104 12.2335 3.52559 26.2397
570 1 -1.1104 12.2315 0.737599 23.45
571 2 2.2208 10.8357 -0.654753 24.8443
572 1 -1.1104 12.2314 0.737718 26.239
573 1 -1.1104 9.44001 -2.05018 23.4496
574 1 -1.1104 9.44396 3.52544 23.4503
575 2 2.2208 8.04822 2.13311 24.8446
576 1 -1.1104 9.43993 -2.05009 26.2386
577 1 -1.1104 9.4439 3.52556 26.2393
578 2 2.2208 8.04619 -0.654787 22.0548
579 1 -1.1104 9.44191 0.737603 23.4495
580 1 -1.1104 9.44204 0.737746 26.2394
581 2 2.2208 10.8396 4.92093 24.8449
582 2 2.2208 8.05016 4.92084 22.0554
501 2 2.2208 13.6389 18.8602 19.2661
584 2 2.2208 2.46531 -3.4425 24.8438
644 2 2.2208 13.6409 21.6476 22.0557
528 2 2.2208 8.05991 18.8598 24.8453
671 1 -1.1104 9.45365 17.4643 23.4502
589 2 2.2208 5.26264 7.70873 22.0556
590 2 2.2208 5.26652 13.2844 22.0557
591 1 -1.1104 1.07936 9.10143 23.4502
592 1 -1.1104 1.07936 9.10155 26.24
593 1 -1.1104 1.07749 6.31352 23.4505
594 1 -1.1104 1.08133 11.8893 23.4507
595 2 2.2208 5.26455 10.4967 24.8451
596 1 -1.1104 1.07739 6.31368 26.2395
597 1 -1.1104 1.08126 11.8895 26.2397
598 1 -1.1104 3.86887 9.10124 23.4506
599 2 2.2208 2.47314 7.70897 24.845
600 2 2.2208 2.47701 13.2847 24.8452
601 1 -1.1104 3.86878 9.10139 26.2396
602 2 2.2208 2.4751 10.4967 22.0557
603 1 -1.1104 3.86688 6.31339 23.4501
604 1 -1.1104 3.87076 11.8891 23.4502
605 1 -1.1104 3.86694 6.31355 26.2399
606 1 -1.1104 3.87075 11.8892 26.24
615 1 -1.1104 12.2412 14.6769 26.24
672 2 2.2208 8.06182 21.647 22.056
609 1 -1.1104 6.6602 11.8891 26.2396
614 2 2.2208 10.8337 -3.44263 22.0545
412 2 2.2208 5.25474 -3.44257 22.0544
620 1 -1.1104 6.65635 6.31344 26.2395
610 1 -1.1104 6.65831 9.10112 23.4502
608 1 -1.1104 6.65643 6.3133 23.4505
611 1 -1.1104 6.65831 9.10126 26.24
607 1 -1.1104 6.66027 11.8889 23.4506
626 1 -1.1104 9.44782 9.10108 23.4506
627 1 -1.1104 12.2392 11.8891 26.2396
628 1 -1.1104 12.2353 6.31343 26.2395
629 2 2.2208 10.8435 10.4966 24.8451
630 1 -1.1104 12.2392 11.889 23.4506
631 1 -1.1104 12.2354 6.3133 23.4505
632 1 -1.1104 12.2373 9.10129 26.24
633 1 -1.1104 12.2373 9.10115 23.4502
634 1 -1.1104 9.44973 11.889 26.24
635 1 -1.1104 9.44589 6.3134 26.2399
636 1 -1.1104 9.44973 11.8889 23.4502
637 1 -1.1104 9.44585 6.31325 23.4501
638 2 2.2208 8.05406 10.4965 22.0557
639 1 -1.1104 9.44775 9.10122 26.2396
640 2 2.2208 8.05597 13.2844 24.8451
641 2 2.2208 8.05209 7.70876 24.845
642 2 2.2208 10.8416 7.70868 22.0556
643 2 2.2208 10.8455 13.2843 22.0556
470 1 -1.1104 12.2453 20.2523 26.2403
554 1 -1.1104 9.45172 14.6766 23.4506
530 1 -1.1104 9.45373 17.4645 26.2401
670 1 -1.1104 9.45567 20.2518 23.4508
667 1 -1.1104 6.66413 17.4646 26.2397
648 1 -1.1104 6.66602 20.2519 23.4505
649 2 2.2208 2.47897 16.0724 22.0558
650 2 2.2208 2.48277 21.6478 22.056
651 1 -1.1104 3.87461 17.4647 23.4503
652 1 -1.1104 1.08523 17.4651 23.4507
653 1 -1.1104 3.87267 14.6771 26.2397
654 1 -1.1104 3.87469 17.4649 26.2401
655 2 2.2208 2.48091 18.8604 24.8453
656 1 -1.1104 3.87652 20.2528 26.2399
657 2 2.2208 5.27037 18.8598 22.0559
658 1 -1.1104 1.08323 14.6772 23.4503
659 1 -1.1104 1.08704 20.2529 23.4505
660 2 2.2208 5.26844 16.0723 24.8452
661 2 2.2208 5.27229 21.6477 24.8455
662 1 -1.1104 1.08327 14.6774 26.2401
663 1 -1.1104 1.08517 17.4654 26.2398
664 1 -1.1104 1.0872 20.2533 26.2402
665 1 -1.1104 3.87273 14.6769 23.4506
666 1 -1.1104 3.8766 20.2524 23.4508
668 1 -1.1104 6.66218 14.6767 23.4502
468 1 -1.1104 6.66221 14.6768 26.24
413 2 2.2208 10.8514 21.6474 24.8454
613 1 -1.1104 12.2432 17.4645 23.4506
467 1 -1.1104 6.66418 17.4644 23.4507
471 1 -1.1104 6.66616 20.2523 26.2403
527 1 -1.1104 12.2451 20.252 23.4502
383 2 2.2208 8.05796 16.072 22.0557
444 1 -1.1104 9.45562 20.2521 26.2399
529 1 -1.1104 9.45168 14.6768 26.2396
583 1 -1.1104 12.2412 14.6768 23.4501
414 2 2.2208 10.8494 18.8597 22.0557
525 1 -1.1104 12.2412 14.6768 20.6611
699 2 2.2208 13.639 18.8609 13.6872
687 2 2.2208 2.46526 -3.44233 13.6859
688 2 2.2208 8.04422 -3.4423 13.686
680 2 2.2208 13.635 13.2848 13.6873
676 2 2.2208 5.2567 -0.654481 13.6864
681 2 2.2208 5.26064 4.92114 13.6871
682 2 2.2208 2.46921 2.13334 13.6868
683 2 2.2208 13.6271 2.13325 13.6869
692 2 2.2208 13.6311 7.70897 13.6874
678 2 2.2208 13.6231 -3.4425 13.6861
690 2 2.2208 5.27241 21.6473 13.6873
695 2 2.2208 10.8357 -0.654549 13.6865
679 2 2.2208 10.8396 4.92109 13.6872
696 2 2.2208 8.04814 2.1333 13.6868
693 2 2.2208 2.47313 7.70903 13.6873
684 2 2.2208 5.26458 10.4967 13.6874
694 2 2.2208 2.47704 13.2846 13.6874
691 2 2.2208 8.05211 7.70889 13.6873
686 2 2.2208 8.05608 13.2844 13.6874
697 2 2.2208 10.8515 21.6482 13.6873
698 2 2.2208 5.26854 16.0721 13.6873
685 2 2.2208 10.8436 10.4967 13.6874
689 2 2.2208 2.48093 18.8601 13.6873
677 2 2.2208 8.06007 18.8599 13.6873
700 2 2.2208 10.8476 16.0724 13.6873
701 2 2.2208 5.27431 24.4359 5.31934
702 2 2.2208 5.27827 30.0116 5.31959
703 1 -1.1104 1.09083 25.8301 1.13542
704 1 -1.1104 1.09087 25.8301 3.92479
705 1 -1.1104 1.08908 23.0418 1.13542
706 1 -1.1104 1.09292 28.6187 1.13589
707 2 2.2208 5.27621 27.224 2.53045
708 1 -1.1104 1.08899 23.0418 3.92444
709 1 -1.1104 1.09274 28.6186 3.92479
710 1 -1.1104 3.88041 25.8289 1.13565
711 2 2.2208 2.48476 24.4369 2.5301
712 2 2.2208 2.48873 30.0138 2.53068
713 1 -1.1104 3.88034 25.8288 3.92463
714 2 2.2208 2.48668 27.2249 5.31939
715 1 -1.1104 3.87842 23.0409 1.13517
716 1 -1.1104 3.88211 28.617 1.13579
717 1 -1.1104 3.87849 23.0408 3.9247
718 1 -1.1104 3.8822 28.6168 3.92495
721 1 -1.1104 6.66808 23.0402 3.92445
720 1 -1.1104 6.6681 23.0402 1.13549
878 1 -1.1104 1.09256 28.6179 6.714
722 1 -1.1104 6.67197 28.6156 1.13606
724 1 -1.1104 6.67005 25.8278 3.92498
729 1 -1.1104 6.66987 25.8279 1.13546
726 1 -1.1104 3.88229 28.6159 6.71393
725 1 -1.1104 3.88029 25.8283 6.71406
728 1 -1.1104 6.67199 28.6147 6.71436
753 1 -1.1104 6.66814 23.04 6.71413
719 1 -1.1104 1.08894 23.0415 6.71394
877 1 -1.1104 3.87851 23.0405 6.71373
994 1 -1.1104 6.69224 48.0023 9.3689
723 1 -1.1104 6.67196 28.6153 3.92487
750 2 2.2208 13.6474 30.0121 2.53154
731 2 2.2208 10.8536 24.436 5.31961
732 2 2.2208 10.8579 30.0115 5.32044
733 1 -1.1104 12.2493 25.8278 1.13546
734 1 -1.1104 12.2497 25.8283 3.92548
735 1 -1.1104 12.2474 23.0403 1.13567
736 1 -1.1104 12.2517 28.6154 1.13657
737 2 2.2208 10.8556 27.2234 2.53078
738 1 -1.1104 12.2474 23.0406 3.92451
739 1 -1.1104 12.2517 28.6158 3.92525
740 1 -1.1104 9.45978 25.8275 1.13591
741 2 2.2208 8.0639 24.4356 2.53023
742 2 2.2208 8.06788 30.011 2.5311
743 1 -1.1104 9.45976 25.8276 3.92473
744 2 2.2208 8.06598 27.2232 5.31968
745 1 -1.1104 9.45763 23.0399 1.13515
746 1 -1.1104 9.46155 28.6149 1.13591
747 1 -1.1104 9.45782 23.0401 3.92497
748 1 -1.1104 9.46197 28.6151 3.92557
751 1 -1.1104 9.46197 28.6146 6.71424
911 1 -1.1104 9.4578 23.0401 6.71381
752 2 2.2208 13.6453 27.2249 5.32006
749 2 2.2208 13.6431 24.4364 2.53034
906 1 -1.1104 12.2495 25.8287 6.71417
909 1 -1.1104 9.45991 25.8276 6.71459
907 1 -1.1104 12.2475 23.0409 6.71449
758 2 2.2208 5.28273 35.5881 5.31972
759 1 -1.1104 1.09471 31.4077 1.13602
760 1 -1.1104 1.09933 36.9877 1.13608
761 1 -1.1104 1.0946 31.4075 3.92497
762 1 -1.1104 1.09853 36.9869 3.9243
763 1 -1.1104 1.09711 34.1972 1.13633
764 2 2.2208 5.28031 32.8006 2.53127
765 2 2.2208 5.28474 38.3791 2.53062
766 1 -1.1104 1.09676 34.1968 3.92484
767 1 -1.1104 3.88425 31.4055 1.1362
768 1 -1.1104 3.88822 36.984 1.13614
769 2 2.2208 2.49343 35.5925 2.53107
770 1 -1.1104 3.88414 31.4049 3.92498
771 1 -1.1104 3.88802 36.982 3.92436
772 2 2.2208 2.49093 32.8021 5.31949
773 2 2.2208 2.49641 38.381 5.31813
774 1 -1.1104 3.88607 34.1943 1.1364
775 1 -1.1104 3.88587 34.1934 3.92494
780 1 -1.1104 6.67393 31.4028 3.92527
787 1 -1.1104 3.88627 34.1912 6.71387
781 1 -1.1104 6.67601 34.19 3.92512
776 1 -1.1104 6.67721 36.9774 3.92467
779 1 -1.1104 6.67791 36.9803 1.13636
785 1 -1.1104 1.09472 31.4064 6.71388
935 1 -1.1104 3.88393 31.4036 6.71403
783 1 -1.1104 6.6759 34.1879 6.71421
786 1 -1.1104 1.09641 34.1953 6.7137
937 1 -1.1104 6.67815 36.9731 6.71369
777 1 -1.1104 1.09934 36.9842 6.71294
936 1 -1.1104 3.88783 36.9791 6.7132
912 3 0 11.538 47.6785 12.4054
784 1 -1.1104 6.67412 31.4014 6.71404
778 1 -1.1104 6.6759 34.1918 1.13675
782 1 -1.1104 6.67366 31.4034 1.13631
790 2 2.2208 10.8622 35.5871 5.32141
791 1 -1.1104 12.2535 31.4026 1.13659