ITEM: TIMESTEP
292
ITEM: NUMBER OF ATOMS
17700
ITEM: BOX BOUNDS pp pp pp
-2.7717828229332220e-01 2.7617178282293317e+01
-3.4472205766305355e+00 3.3152722057663055e+02
-2.7717827830221448e-01 2.7617178278302212e+01
ITEM: ATOMS id type q x y z
1 2 2.2208 5.27938 2.13788 5.30505
2 1 -1.1104 1.09297 -2.04933 1.12085
3 1 -1.1104 1.09589 3.53203 1.12064
4 1 -1.1104 1.09296 -2.0493 3.91064
5 1 -1.1104 1.09586 3.53207 3.9104
6 1 -1.1104 1.09444 0.741345 1.12105
7 2 2.2208 5.27794 -0.652806 2.5157
8 1 -1.1104 1.09444 0.741391 3.91018
9 1 -1.1104 3.88242 -2.04932 1.12122
10 1 -1.1104 3.88539 3.53195 1.12099
11 2 2.2208 2.48989 2.13786 2.51559
12 1 -1.1104 3.88247 -2.04926 3.91033
13 1 -1.1104 3.88535 3.53203 3.91016
14 2 2.2208 2.48842 -0.652775 5.30513
15 2 2.2208 2.4913 4.92857 5.30497
16 1 -1.1104 3.88393 0.741312 1.12077
17 1 -1.1104 3.8839 0.741395 3.91051
18 2 2.2208 5.28083 4.92847 2.51553
347 2 2.2208 5.27635 -3.44352 10.8842
31 1 -1.1104 6.67195 -2.04932 1.12089
171 1 -1.1104 1.09437 0.741399 6.69994
173 1 -1.1104 1.09584 3.53213 6.69953
519 2 2.2208 8.07749 18.8821 13.6737
400 2 2.2208 10.8568 -0.652882 13.6734
372 2 2.2208 5.27781 -0.652808 13.6734
170 1 -1.1104 1.09297 -2.0493 6.69978
175 1 -1.1104 3.88531 3.53207 6.69988
341 2 2.2208 5.27642 -3.44343 5.30532
340 2 2.2208 2.48694 -3.44348 2.51586
691 2 2.2208 8.06581 -3.44355 13.6735
28 1 -1.1104 6.6734 0.741354 3.91021
24 1 -1.1104 6.67485 3.53203 3.91046
29 1 -1.1104 6.67192 -2.04928 3.91067
19 1 -1.1104 6.67489 3.53194 1.12068
23 1 -1.1104 6.67343 0.741293 1.12107
32 2 2.2208 10.8583 2.13794 5.305
33 1 -1.1104 12.2509 -2.04939 1.12085
34 1 -1.1104 12.2539 3.53204 1.12061
35 1 -1.1104 12.2509 -2.04933 3.91064
36 1 -1.1104 12.2538 3.53214 3.91039
37 1 -1.1104 12.2524 0.741316 1.12103
38 2 2.2208 10.8569 -0.652804 2.51569
39 1 -1.1104 12.2524 0.741417 3.91017
40 1 -1.1104 9.46141 -2.04934 1.1212
41 1 -1.1104 9.46439 3.53197 1.12098
42 2 2.2208 8.06889 2.13784 2.51559
43 1 -1.1104 9.46142 -2.04927 3.91033
44 1 -1.1104 9.46435 3.53207 3.9101
45 2 2.2208 8.0674 -0.652761 5.30517
46 1 -1.1104 9.46296 0.741341 1.12076
47 1 -1.1104 9.46289 0.741382 3.91051
48 2 2.2208 8.07031 4.92857 5.30498
49 2 2.2208 10.8598 4.92856 2.51549
208 1 -1.1104 12.2509 -2.04931 6.69975
210 1 -1.1104 12.2537 3.53222 6.6995
497 2 2.2208 10.8656 16.092 13.6735
350 2 2.2208 2.48691 -3.44349 8.09476
209 1 -1.1104 12.2523 0.74143 6.69995
199 1 -1.1104 9.46289 0.741455 6.69961
461 2 2.2208 8.07171 7.71933 13.6732
54 2 2.2208 5.28222 7.71918 5.30495
55 2 2.2208 5.28507 13.3003 5.30516
56 1 -1.1104 1.0987 9.1133 1.12067
57 1 -1.1104 1.0987 9.11341 3.91042
58 1 -1.1104 1.0973 6.32267 1.1209
59 1 -1.1104 1.10014 11.9039 1.12105
60 2 2.2208 5.28367 10.5097 2.51556
61 1 -1.1104 1.09727 6.32273 3.91007
62 1 -1.1104 1.10006 11.9041 3.91025
63 1 -1.1104 3.88823 9.11316 1.12096
64 2 2.2208 2.49273 7.71913 2.51551
65 2 2.2208 2.49557 13.3004 2.51572
66 1 -1.1104 3.88815 9.11326 3.91013
67 2 2.2208 2.49412 10.5099 5.30503
68 1 -1.1104 3.88676 6.32255 1.12065
69 1 -1.1104 3.88958 11.9037 1.12075
70 1 -1.1104 3.88678 6.32265 3.91038
71 1 -1.1104 3.88964 11.9038 3.91048
74 1 -1.1104 6.67629 6.32257 1.12097
233 1 -1.1104 1.09724 6.32281 6.69979
231 1 -1.1104 3.88954 11.904 6.69965
232 1 -1.1104 3.88818 9.11336 6.69984
76 1 -1.1104 1.09863 9.11352 6.69959
79 1 -1.1104 3.88674 6.32272 6.69951
230 1 -1.1104 1.10008 11.9042 6.69994
73 1 -1.1104 6.67915 11.9036 1.12106
85 1 -1.1104 6.67771 9.11312 1.12065
77 1 -1.1104 6.67772 9.11324 3.9104
109 1 -1.1104 6.67766 9.11337 6.69953
344 2 2.2208 10.8554 -3.44348 5.30529
72 1 -1.1104 6.6763 6.32267 3.91013
83 1 -1.1104 6.6791 11.9038 3.9102
86 2 2.2208 10.8612 7.71937 5.30497
87 2 2.2208 10.8641 13.3007 5.30516
88 1 -1.1104 12.2567 9.11341 1.12058
89 1 -1.1104 12.2567 9.11356 3.9104
90 1 -1.1104 12.2553 6.32273 1.1209
91 1 -1.1104 12.2582 11.904 1.12106
92 2 2.2208 10.8627 10.5099 2.51555
93 1 -1.1104 12.2552 6.32287 3.91005
94 1 -1.1104 12.2581 11.9043 3.91016
95 1 -1.1104 9.46725 9.11321 1.12095
96 2 2.2208 8.07176 7.71911 2.5155
97 2 2.2208 8.07461 13.3003 2.51571
98 1 -1.1104 9.4672 9.11336 3.91006
99 2 2.2208 8.07315 10.5099 5.30501
100 1 -1.1104 9.4658 6.3226 1.1206
101 1 -1.1104 9.4686 11.9038 1.12072
102 1 -1.1104 9.46582 6.32273 3.91037
103 1 -1.1104 9.46868 11.904 3.91054
105 1 -1.1104 12.2552 6.32298 6.69983
110 1 -1.1104 6.67624 6.32274 6.69985
108 1 -1.1104 12.2566 9.11377 6.69949
84 1 -1.1104 6.67914 11.904 6.69998
261 1 -1.1104 12.2581 11.9045 6.7
262 1 -1.1104 9.46859 11.9042 6.69962
260 1 -1.1104 9.46574 6.32283 6.69949
431 2 2.2208 2.4955 13.3006 13.6734
348 2 2.2208 10.8553 -3.44355 10.8841
343 2 2.2208 8.06589 -3.44348 2.51583
694 2 2.2208 2.48687 -3.44355 13.6736
115 2 2.2208 5.28789 18.8813 5.30562
116 1 -1.1104 1.10147 14.6945 1.121
117 1 -1.1104 1.10421 20.2755 1.12145
118 1 -1.1104 1.10152 14.6947 3.91067
119 1 -1.1104 1.10427 20.2758 3.91106
120 1 -1.1104 1.10297 17.485 1.12143
121 2 2.2208 5.28652 16.0907 2.51591
122 2 2.2208 5.28935 21.6714 2.51648
123 1 -1.1104 1.10284 17.4852 3.91067
124 1 -1.1104 3.89106 14.6942 1.12119
125 1 -1.1104 3.89388 20.275 1.12168
126 2 2.2208 2.49837 18.8814 2.51617
127 1 -1.1104 3.89097 14.6943 3.91039
128 1 -1.1104 3.89374 20.2752 3.9109
129 2 2.2208 2.49695 16.0911 5.30536
130 2 2.2208 2.49967 21.672 5.30587
131 1 -1.1104 3.8924 17.4846 1.12116
132 1 -1.1104 3.89248 17.4848 3.91088
284 1 -1.1104 1.10138 14.6949 6.69986
290 1 -1.1104 1.10407 20.276 6.70036
133 1 -1.1104 6.68054 14.6941 1.1209
142 1 -1.1104 6.6835 20.275 3.91123
316 1 -1.1104 6.68051 14.6945 6.69981
291 1 -1.1104 1.10285 17.4855 6.70028
137 1 -1.1104 3.89231 17.4851 6.70007
345 2 2.2208 8.06587 -3.44344 8.09475
253 1 -1.1104 9.47298 20.2764 9.48968
143 1 -1.1104 6.68338 20.2748 1.12141
326 1 -1.1104 12.2611 17.486 6.7005
140 1 -1.1104 6.68195 17.4847 3.9106
134 1 -1.1104 6.68061 14.6943 3.9107
141 1 -1.1104 6.68206 17.4845 1.12145
144 2 2.2208 10.867 18.882 5.3057
145 1 -1.1104 12.2596 14.6947 1.12088
146 1 -1.1104 12.2625 20.2757 1.12132
147 1 -1.1104 12.2597 14.6949 3.91075
148 1 -1.1104 12.2627 20.2761 3.91136
149 1 -1.1104 12.2611 17.4852 1.12152
150 2 2.2208 10.8656 16.0911 2.51594
151 2 2.2208 10.8685 21.672 2.51653
152 1 -1.1104 12.261 17.4856 3.91059
153 1 -1.1104 9.47016 14.6943 1.12126
154 1 -1.1104 9.47311 20.275 1.12179
155 2 2.2208 8.07752 18.8811 2.5162
156 1 -1.1104 9.47005 14.6945 3.91036
157 1 -1.1104 9.47298 20.2753 3.91089
158 2 2.2208 8.07606 16.091 5.30539
159 2 2.2208 8.07899 21.6718 5.30597
160 1 -1.1104 9.47151 17.4847 1.12112
161 1 -1.1104 9.47165 17.485 3.91102
286 1 -1.1104 6.68334 20.2753 6.70032
164 1 -1.1104 9.47016 14.6948 6.7002
318 1 -1.1104 9.47148 17.4854 6.70005
204 1 -1.1104 12.2625 20.2768 6.70035
196 1 -1.1104 12.2595 14.6953 6.6998
321 1 -1.1104 6.68202 17.485 6.70038
168 1 -1.1104 3.88389 0.741416 6.69962
322 1 -1.1104 6.68057 14.6947 9.48954
369 2 2.2208 5.28076 4.92857 13.6732
167 2 2.2208 10.8656 16.0917 8.09481
410 2 2.2208 2.48978 2.13789 13.6733
169 1 -1.1104 3.8824 -2.04928 6.70011
176 2 2.2208 5.27931 2.13791 10.8839
177 1 -1.1104 1.09292 -2.04935 12.2786
178 1 -1.1104 1.09576 3.53212 12.2784
179 1 -1.1104 1.09289 -2.04934 9.48957
180 1 -1.1104 1.09577 3.53211 9.48926
181 1 -1.1104 1.09434 0.74139 12.2788
182 2 2.2208 5.27788 -0.652759 8.09459
183 2 2.2208 5.28077 4.92857 8.0944
184 1 -1.1104 1.09437 0.741409 9.48909
185 1 -1.1104 3.88233 -2.04932 12.279
186 1 -1.1104 3.88523 3.53207 12.2787
187 2 2.2208 2.48983 2.13792 8.09447
188 1 -1.1104 3.88238 -2.04929 9.48921
189 1 -1.1104 3.88529 3.53209 9.48898
190 2 2.2208 2.48837 -0.652791 10.884
191 2 2.2208 2.49124 4.9286 10.8838
192 1 -1.1104 3.88384 0.7414 12.2785
193 1 -1.1104 3.88382 0.741399 9.48937
194 1 -1.1104 6.67477 3.53209 9.48932
203 1 -1.1104 6.67182 -2.04929 9.48955
310 1 -1.1104 12.2596 14.6956 9.48961
324 1 -1.1104 6.68194 17.4852 9.48944
315 2 2.2208 8.07604 16.0914 10.8842
325 1 -1.1104 9.47156 17.4859 12.2787
311 1 -1.1104 9.47163 17.4858 9.48987
198 1 -1.1104 6.67338 0.741402 6.69998
207 1 -1.1104 6.67482 3.53207 6.69956
50 1 -1.1104 6.67192 -2.04924 6.6998
51 1 -1.1104 9.46137 -2.04925 6.70011
202 1 -1.1104 6.67336 0.74142 9.4891
195 1 -1.1104 6.67477 3.53209 12.2784
205 1 -1.1104 6.67182 -2.04932 12.2786
206 1 -1.1104 6.6733 0.741389 12.2788
200 1 -1.1104 9.4643 3.53213 6.69985
211 2 2.2208 10.8583 2.13796 10.8839
212 1 -1.1104 12.2508 -2.04941 12.2786
213 1 -1.1104 12.2537 3.53221 12.2784
214 1 -1.1104 12.2508 -2.04934 9.48948
215 1 -1.1104 12.2537 3.53226 9.48926
216 1 -1.1104 12.2522 0.7414 12.2788
217 2 2.2208 10.8568 -0.652751 8.09456
218 1 -1.1104 12.2523 0.741481 9.48906
219 1 -1.1104 9.46129 -2.04936 12.2789
220 1 -1.1104 9.46422 3.53212 12.2787
221 2 2.2208 8.06884 2.13794 8.09448
222 1 -1.1104 9.46138 -2.04928 9.4892
223 1 -1.1104 9.46429 3.53217 9.48897
224 2 2.2208 8.06731 -0.652805 10.884
225 2 2.2208 8.07022 4.92864 10.8838
226 1 -1.1104 9.46281 0.74136 12.2785
227 1 -1.1104 9.46281 0.741413 9.48937
228 2 2.2208 10.8597 4.92871 8.09438
409 2 2.2208 10.8597 4.92869 13.6732
408 2 2.2208 8.06879 2.13787 13.6733
229 1 -1.1104 9.47308 20.2768 12.2794
282 1 -1.1104 9.47013 14.6952 12.2789
234 2 2.2208 5.28219 7.71927 10.8838
235 2 2.2208 5.28505 13.3006 10.884
236 1 -1.1104 1.09865 9.11357 12.2784
237 1 -1.1104 1.09867 9.11357 9.48925
238 1 -1.1104 1.0972 6.32285 12.2786
239 1 -1.1104 1.10005 11.9043 12.2787
240 2 2.2208 5.28363 10.5099 8.09444
241 1 -1.1104 1.09721 6.32283 9.48892
242 1 -1.1104 1.10002 11.9043 9.48909
243 1 -1.1104 3.88815 9.11344 12.2787
244 2 2.2208 2.4927 7.71929 8.09437
245 2 2.2208 2.49549 13.3006 8.09459
246 1 -1.1104 3.88814 9.11345 9.48896
247 2 2.2208 2.4941 10.51 10.8839
248 1 -1.1104 3.88673 6.32275 12.2783
249 1 -1.1104 3.88957 11.9041 12.2784
250 1 -1.1104 3.88671 6.32279 9.48924
251 1 -1.1104 3.8896 11.9041 9.48935
259 1 -1.1104 6.6777 9.11346 12.2783
256 1 -1.1104 6.67912 11.9041 12.2787
327 1 -1.1104 12.261 17.4865 9.48943
437 2 2.2208 2.49269 7.71928 13.6732
435 2 2.2208 5.28364 10.5099 13.6732
257 1 -1.1104 9.46721 9.11349 6.69985
320 1 -1.1104 6.68348 20.2757 9.49008
255 1 -1.1104 6.67909 11.9041 9.48904
258 1 -1.1104 6.6762 6.32278 9.48894
462 2 2.2208 10.8627 10.5103 13.6732
254 1 -1.1104 6.67769 9.11344 9.48928
252 1 -1.1104 6.6762 6.3228 12.2787
263 1 -1.1104 9.46865 11.9043 9.48942
264 1 -1.1104 9.46573 6.3229 9.48925
265 1 -1.1104 9.46864 11.9044 12.2784
266 1 -1.1104 9.46571 6.32289 12.2783
267 2 2.2208 8.07317 10.51 10.8838
268 1 -1.1104 9.46718 9.11362 9.4889
269 2 2.2208 8.07459 13.3006 8.09458
270 2 2.2208 8.07169 7.71931 8.09439
271 2 2.2208 10.8612 7.7195 10.8838
272 2 2.2208 10.8641 13.3011 10.884
273 1 -1.1104 12.2566 9.11388 12.2783
274 1 -1.1104 12.2567 9.11385 9.48927
275 1 -1.1104 12.2552 6.32303 12.2786
276 1 -1.1104 12.2581 11.9048 12.2788
277 2 2.2208 10.8626 10.5102 8.09443
278 1 -1.1104 12.2552 6.32306 9.48889
279 1 -1.1104 12.2581 11.9047 9.48903
280 1 -1.1104 9.46721 9.11364 12.2787
460 2 2.2208 8.07461 13.3007 13.6733
317 1 -1.1104 12.2595 14.6957 12.2785
138 1 -1.1104 3.89379 20.2754 6.70055
328 2 2.2208 10.8685 21.6733 8.09541
488 2 2.2208 2.49816 18.8818 13.6737
287 1 -1.1104 6.68201 17.4853 12.2791
289 1 -1.1104 3.891 14.6946 6.70009
292 1 -1.1104 1.10269 17.4856 12.279
293 2 2.2208 2.49687 16.0913 10.8842
294 2 2.2208 2.49953 21.6724 10.8846
295 1 -1.1104 3.89229 17.4852 12.2788
296 1 -1.1104 3.89369 20.2757 12.2793
297 1 -1.1104 3.89099 14.6947 12.2789
298 1 -1.1104 1.10408 20.2762 9.48989
299 1 -1.1104 1.10272 17.4856 9.48947
300 2 2.2208 5.28929 21.672 8.09527
301 1 -1.1104 1.10144 14.695 9.4895
302 2 2.2208 5.28645 16.0911 8.09477
303 1 -1.1104 1.10397 20.2763 12.2791
304 1 -1.1104 1.10137 14.695 12.2786
305 2 2.2208 5.28787 18.8817 10.8844
306 1 -1.1104 3.89367 20.2757 9.48971
307 2 2.2208 2.49825 18.8818 8.095
308 1 -1.1104 3.8924 17.4852 9.48973
309 1 -1.1104 3.89094 14.6947 9.48923
285 1 -1.1104 6.68054 14.6947 12.2786
469 2 2.2208 5.28923 21.6721 13.6739
319 1 -1.1104 6.6834 20.2759 12.279
313 2 2.2208 10.867 18.8829 10.8844
314 2 2.2208 8.07751 18.8818 8.09506
468 2 2.2208 5.28647 16.0912 13.6735
323 1 -1.1104 12.2624 20.2782 12.2789
522 2 2.2208 10.8685 21.674 13.6739
288 1 -1.1104 12.2626 20.2775 9.4902
312 2 2.2208 8.07898 21.6727 10.8847
81 1 -1.1104 9.47006 14.695 9.48917
201 1 -1.1104 12.261 17.4868 12.2792
163 1 -1.1104 9.47312 20.2759 6.7008
329 2 2.2208 13.6463 -0.652804 5.30513
20 2 2.2208 13.655 16.0925 10.8842
113 2 2.2208 13.6521 10.5103 5.30501
338 2 2.2208 13.6507 7.71941 2.51546
696 2 2.2208 13.6447 -3.44372 13.6735
197 2 2.2208 13.6565 18.8822 2.5162
27 2 2.2208 13.655 16.0919 5.3054
78 2 2.2208 13.658 21.6735 5.30603
335 2 2.2208 13.6492 4.92884 10.8838
339 2 2.2208 13.6448 -3.4436 8.09468
346 2 2.2208 13.6448 -3.44363 2.51582
331 2 2.2208 13.6477 2.13804 8.09443
411 2 2.2208 13.6563 18.8838 13.6737
687 2 2.2208 13.6477 2.13793 13.6732
281 2 2.2208 13.6535 13.3014 8.0946
172 2 2.2208 13.6536 13.3008 2.51571
330 2 2.2208 13.6478 2.13791 2.51556
332 2 2.2208 13.6492 4.92877 5.30493
333 2 2.2208 13.6462 -0.652821 10.884
80 2 2.2208 13.6521 10.5106 10.8838
336 2 2.2208 13.6506 7.71967 8.09435
681 2 2.2208 13.6506 7.71964 13.6732
375 2 2.2208 13.6535 13.3015 13.6733
26 2 2.2208 13.6578 21.6751 10.8847
283 2 2.2208 13.6565 18.8832 8.09508
351 2 2.2208 5.2793 2.13785 16.4627
352 1 -1.1104 1.09293 -2.04941 17.8575
353 1 -1.1104 1.0958 3.53205 17.8572
354 1 -1.1104 1.09287 -2.04937 15.0684
355 1 -1.1104 1.09576 3.53209 15.0681
356 1 -1.1104 1.09435 0.741335 17.8577
357 2 2.2208 5.27787 -0.652852 19.2523
358 2 2.2208 5.28077 4.92848 19.2521
359 1 -1.1104 1.09434 0.741354 15.0679
360 1 -1.1104 3.88236 -2.04935 17.8578
361 1 -1.1104 3.88527 3.53203 17.8576
362 2 2.2208 2.48986 2.13784 19.2522
363 1 -1.1104 3.88236 -2.04933 15.0681
364 1 -1.1104 3.88527 3.53206 15.0678
365 2 2.2208 2.48836 -0.652848 16.4629
366 1 -1.1104 3.88388 0.741336 17.8573
367 1 -1.1104 3.88377 0.741363 15.0683
368 2 2.2208 2.49126 4.92855 16.4626
371 1 -1.1104 6.67476 3.53205 15.0681
524 1 -1.1104 3.88388 0.741314 20.6471
377 1 -1.1104 6.67482 3.53199 17.8572
379 1 -1.1104 6.67181 -2.04934 15.0684
380 1 -1.1104 6.67188 -2.04935 17.8574
135 2 2.2208 5.28792 18.8809 27.6211
695 2 2.2208 5.27639 -3.44355 22.0419
525 1 -1.1104 1.09442 0.74131 20.6468
528 1 -1.1104 3.88536 3.53197 20.6467
402 1 -1.1104 6.67481 3.53195 20.647
21 2 2.2208 2.48844 -0.652876 27.6206
25 2 2.2208 5.27942 2.13778 27.6205
378 1 -1.1104 6.67333 0.741356 15.0679
693 2 2.2208 8.06585 -3.44357 19.2524
403 1 -1.1104 6.67187 -2.04935 20.6472
381 1 -1.1104 6.67331 0.741327 17.8576
382 2 2.2208 10.8583 2.13785 16.4627
383 1 -1.1104 12.2508 -2.04954 17.8574
384 1 -1.1104 12.2538 3.53203 17.8572
385 1 -1.1104 12.2508 -2.0495 15.0683
386 1 -1.1104 12.2537 3.53213 15.0681
387 1 -1.1104 12.2523 0.741234 17.8576
388 2 2.2208 10.8569 -0.652934 19.2522
389 2 2.2208 10.8598 4.92851 19.2521
390 1 -1.1104 12.2523 0.741318 15.0679
391 1 -1.1104 9.46134 -2.04942 17.8577
392 1 -1.1104 9.46427 3.53201 17.8575
393 2 2.2208 8.06884 2.1378 19.2521
394 1 -1.1104 9.46133 -2.04941 15.068
395 1 -1.1104 9.46429 3.53209 15.0678
396 2 2.2208 8.06734 -0.652852 16.4628
397 2 2.2208 8.07027 4.92853 16.4626
398 1 -1.1104 9.46282 0.74132 17.8573
399 1 -1.1104 9.46279 0.741342 15.0682
406 1 -1.1104 9.46288 0.741284 20.6471
404 1 -1.1104 12.2538 3.53197 20.6469
349 2 2.2208 10.8554 -3.44358 27.6207
692 2 2.2208 10.8553 -3.44368 16.463
560 1 -1.1104 12.2508 -2.04956 20.6471
407 1 -1.1104 9.46434 3.53194 20.6467
561 1 -1.1104 12.2524 0.741212 20.6467
412 2 2.2208 5.28222 7.71918 16.4626
413 2 2.2208 5.28506 13.3004 16.4627
414 1 -1.1104 1.09866 9.11341 17.8572
415 1 -1.1104 1.09866 9.11347 15.068
416 1 -1.1104 1.09722 6.32274 17.8575
417 1 -1.1104 1.10004 11.9041 17.8575
418 2 2.2208 5.28364 10.5097 19.2521
419 1 -1.1104 1.0972 6.3228 15.0678
420 1 -1.1104 1.10003 11.9042 15.0679
421 1 -1.1104 3.88815 9.11326 17.8575
422 2 2.2208 2.4927 7.71914 19.252
423 2 2.2208 2.49549 13.3003 19.2522
424 1 -1.1104 3.88818 9.11337 15.0678
425 2 2.2208 2.49411 10.5099 16.4626
426 1 -1.1104 3.88675 6.32264 17.8571
427 1 -1.1104 3.88959 11.9039 17.8572
428 1 -1.1104 3.8867 6.32273 15.068
429 1 -1.1104 3.88958 11.904 15.0681
433 1 -1.1104 6.67626 6.32275 15.0677
438 1 -1.1104 6.67771 9.11343 15.068
440 1 -1.1104 6.67915 11.9041 15.0678
582 1 -1.1104 1.09867 9.11332 20.6469
585 1 -1.1104 3.88958 11.9037 20.647
700 2 2.2208 8.06589 -3.44355 24.8313
441 1 -1.1104 6.67914 11.9038 17.8575
430 1 -1.1104 6.67624 6.32265 17.8575
434 1 -1.1104 6.67772 9.11325 17.8571
442 2 2.2208 10.8612 7.71935 16.4626
443 2 2.2208 10.8641 13.3009 16.4627
444 1 -1.1104 12.2567 9.11362 17.8571
445 1 -1.1104 12.2567 9.11378 15.0681
446 1 -1.1104 12.2552 6.32282 17.8575
447 1 -1.1104 12.2581 11.9044 17.8575
448 2 2.2208 10.8626 10.5099 19.252
449 1 -1.1104 12.2552 6.32294 15.0677
450 1 -1.1104 12.2581 11.9047 15.0678
451 1 -1.1104 9.4672 9.11338 17.8575
452 2 2.2208 8.07174 7.7191 19.252
453 2 2.2208 8.07461 13.3003 19.2521
454 1 -1.1104 9.46725 9.11355 15.0677
455 2 2.2208 8.07319 10.5099 16.4626
456 1 -1.1104 9.46577 6.32268 17.8571
457 1 -1.1104 9.46871 11.9041 17.8571
458 1 -1.1104 9.46571 6.32283 15.0681
459 1 -1.1104 9.46868 11.9043 15.0681
610 1 -1.1104 6.67912 11.9037 20.6466
463 1 -1.1104 9.46722 9.11321 20.6466
609 1 -1.1104 9.46863 11.9038 20.647
619 1 -1.1104 12.2567 9.11344 20.6469
615 1 -1.1104 6.67628 6.32254 20.6466
464 1 -1.1104 9.46578 6.3226 20.6469
617 1 -1.1104 12.2581 11.9042 20.6466
616 1 -1.1104 12.2553 6.32271 20.6465
689 2 2.2208 5.27635 -3.44356 16.463
690 2 2.2208 2.4869 -3.4436 19.2524
688 2 2.2208 2.48693 -3.44356 24.8313
470 2 2.2208 5.28783 18.8814 16.4631
471 1 -1.1104 1.10139 14.6946 17.8574
472 1 -1.1104 1.10397 20.2757 17.8578
473 1 -1.1104 1.10139 14.6949 15.0682
474 1 -1.1104 1.10391 20.276 15.0686
475 1 -1.1104 1.10269 17.4852 17.8578
476 2 2.2208 5.28648 16.0907 19.2523
477 2 2.2208 5.28915 21.6713 19.2528
478 1 -1.1104 1.10269 17.4855 15.0682
479 1 -1.1104 3.89096 14.6944 17.8577
480 1 -1.1104 3.89361 20.2752 17.858
481 2 2.2208 2.49821 18.8813 19.2525
482 1 -1.1104 3.89096 14.6946 15.068
483 1 -1.1104 3.89364 20.2755 15.0684
484 2 2.2208 2.49685 16.0911 16.4629
485 2 2.2208 2.49944 21.672 16.4633
486 1 -1.1104 3.89231 17.4848 17.8576
487 1 -1.1104 3.89233 17.4851 15.0685
496 1 -1.1104 6.68334 20.2752 17.8577
498 1 -1.1104 6.68055 14.6946 15.0683
493 1 -1.1104 3.89366 20.2748 20.6473
490 1 -1.1104 6.68194 17.4848 17.8578
673 1 -1.1104 6.6833 20.2748 20.6475
342 2 2.2208 5.27643 -3.44349 27.6207
699 2 2.2208 10.8554 -3.44367 22.0418
642 1 -1.1104 3.89237 17.4846 20.6473
645 1 -1.1104 1.10278 17.485 20.6471
644 1 -1.1104 3.89097 14.6942 20.6469
491 1 -1.1104 6.68201 17.4852 15.0681
520 1 -1.1104 12.2595 14.6949 20.6471
489 1 -1.1104 6.68338 20.2756 15.0687
495 1 -1.1104 6.68055 14.6944 17.8573
499 2 2.2208 10.867 18.8826 16.463
500 1 -1.1104 12.2596 14.6953 17.8572
501 1 -1.1104 12.2625 20.2772 17.8574
502 1 -1.1104 12.2596 14.6956 15.0683
503 1 -1.1104 12.2624 20.2779 15.0686
504 1 -1.1104 12.2609 17.4861 17.8578
505 2 2.2208 10.8655 16.0913 19.2522
506 2 2.2208 10.8684 21.6727 19.2525
507 1 -1.1104 12.261 17.4867 15.068
508 1 -1.1104 9.47009 14.6947 17.8577
509 1 -1.1104 9.4729 20.276 17.858
510 2 2.2208 8.07745 18.8813 19.2525
511 1 -1.1104 9.47011 14.695 15.0679
512 1 -1.1104 9.47303 20.2766 15.0682
513 2 2.2208 8.07604 16.0912 16.4629
514 2 2.2208 8.07884 21.6723 16.4632
515 1 -1.1104 9.47156 17.4854 17.8574
516 1 -1.1104 9.47155 17.4858 15.0685
670 1 -1.1104 9.4701 14.6944 20.6467
53 2 2.2208 8.07893 21.6712 27.6213
521 1 -1.1104 6.68054 14.6941 20.6471
671 1 -1.1104 12.261 17.4856 20.6468
674 1 -1.1104 12.2596 14.6945 26.2261
529 1 -1.1104 3.88242 -2.04937 20.6469
139 2 2.2208 2.49975 21.6715 27.6213
52 2 2.2208 8.06744 -0.652844 27.6206
667 1 -1.1104 9.47295 20.2749 23.437
665 1 -1.1104 6.68336 20.2746 23.4367
664 1 -1.1104 6.68343 20.2746 26.2266
370 1 -1.1104 1.09291 -2.04942 20.6472
526 1 -1.1104 1.09583 3.53201 20.647
531 2 2.2208 5.27937 2.13778 22.0416
532 1 -1.1104 1.09296 -2.04942 23.4363
533 1 -1.1104 1.09589 3.53194 23.4361
534 1 -1.1104 1.09296 -2.0494 26.2261
535 1 -1.1104 1.09587 3.53198 26.2258
536 1 -1.1104 1.09442 0.741268 23.4365
537 2 2.2208 5.27794 -0.652867 24.8312
538 1 -1.1104 1.09446 0.741265 26.2257
539 1 -1.1104 3.88242 -2.04935 23.4367
540 1 -1.1104 3.88533 3.53191 23.4364
541 2 2.2208 2.4899 2.13777 24.831
542 1 -1.1104 3.88245 -2.04936 26.2258
543 1 -1.1104 3.88539 3.53189 26.2256
544 2 2.2208 2.48843 -0.652881 22.0417
545 1 -1.1104 3.88392 0.741277 23.4362
546 1 -1.1104 3.88393 0.741282 26.226
547 2 2.2208 5.28083 4.92836 24.831
548 2 2.2208 2.49131 4.92844 22.0415
557 1 -1.1104 6.67488 3.53189 26.2259
639 2 2.2208 8.07748 18.8808 24.8315
136 2 2.2208 2.49135 4.92843 27.6204
494 2 2.2208 10.8684 21.6716 24.8317
405 1 -1.1104 6.67342 0.74128 20.6468
640 2 2.2208 10.8656 16.0908 24.8313
401 1 -1.1104 9.46139 -2.04942 20.6469
162 2 2.2208 10.8671 18.8813 27.621
550 1 -1.1104 6.67195 -2.04934 26.2261
558 1 -1.1104 6.67341 0.741264 23.4365
559 1 -1.1104 6.67345 0.741275 26.2257
549 1 -1.1104 6.67487 3.53187 23.4361
551 1 -1.1104 6.67194 -2.04938 23.4363
562 2 2.2208 10.8584 2.13776 22.0416
563 1 -1.1104 12.2509 -2.04949 23.4363
564 1 -1.1104 12.2538 3.53195 23.436
565 1 -1.1104 12.2509 -2.04945 26.2261
566 1 -1.1104 12.2539 3.53196 26.2258
567 1 -1.1104 12.2524 0.741243 23.4365
568 2 2.2208 10.8569 -0.652915 24.8311
569 1 -1.1104 12.2524 0.741249 26.2256
570 1 -1.1104 9.46139 -2.0494 23.4366
571 1 -1.1104 9.46434 3.53194 23.4364
572 2 2.2208 8.0689 2.13776 24.831
573 1 -1.1104 9.46143 -2.04936 26.2258
574 1 -1.1104 9.4644 3.5319 26.2256
575 2 2.2208 8.06742 -0.65289 22.0417
576 1 -1.1104 9.46293 0.741273 23.4362
577 1 -1.1104 9.46292 0.741296 26.226
578 2 2.2208 10.8598 4.92844 24.8309
579 2 2.2208 8.07032 4.92842 22.0415
30 2 2.2208 10.8584 2.1378 27.6205
111 2 2.2208 8.07034 4.92841 27.6205
669 1 -1.1104 9.47295 20.2748 26.2261
584 1 -1.1104 3.88672 6.3226 20.6469
583 1 -1.1104 1.10005 11.9039 20.6467
107 2 2.2208 2.49417 10.5097 27.6205
587 1 -1.1104 3.88817 9.11316 20.6466
586 1 -1.1104 1.09726 6.32265 20.6466
588 2 2.2208 5.28222 7.71901 22.0415
589 2 2.2208 5.28505 13.3001 22.0416
590 1 -1.1104 1.09868 9.11324 23.4361
591 1 -1.1104 1.09872 9.11324 26.2258
592 1 -1.1104 1.09728 6.32261 23.4363
593 1 -1.1104 1.1001 11.9039 23.4365
594 2 2.2208 5.28365 10.5095 24.831
595 1 -1.1104 1.09732 6.32262 26.2255
596 1 -1.1104 1.1001 11.9038 26.2257
597 1 -1.1104 3.88818 9.11308 23.4363
598 2 2.2208 2.49275 7.71903 24.8309
599 2 2.2208 2.49556 13.3002 24.8312
600 1 -1.1104 3.88819 9.11308 26.2255
601 2 2.2208 2.49412 10.5097 22.0415
602 1 -1.1104 3.8868 6.32248 23.4361
603 1 -1.1104 3.88958 11.9036 23.4362
604 1 -1.1104 3.88681 6.32252 26.2258
605 1 -1.1104 3.88962 11.9036 26.2259
439 1 -1.1104 6.67768 9.11312 20.6469
614 1 -1.1104 6.67774 9.11306 26.2259
612 1 -1.1104 6.67912 11.9036 23.4364
75 2 2.2208 5.2851 13.3001 27.6206
82 2 2.2208 5.28228 7.719 27.6204
607 1 -1.1104 12.261 17.485 26.2259
112 2 2.2208 10.8612 7.71913 27.6204
104 2 2.2208 8.07318 10.5096 27.6205
611 1 -1.1104 6.67629 6.32249 23.4363
613 1 -1.1104 6.67771 9.11306 23.4361
606 1 -1.1104 6.67911 11.9036 26.2256
618 1 -1.1104 6.67632 6.32247 26.2255
620 1 -1.1104 9.46723 9.11313 23.4364
621 1 -1.1104 12.2581 11.9039 26.2256
622 1 -1.1104 12.2553 6.32266 26.2255
623 2 2.2208 10.8627 10.5097 24.831
624 1 -1.1104 12.2581 11.904 23.4365
625 1 -1.1104 12.2553 6.32264 23.4363
626 1 -1.1104 12.2567 9.11331 26.2258
627 1 -1.1104 12.2567 9.11334 23.436
628 1 -1.1104 9.46867 11.9037 26.2259
629 1 -1.1104 9.4658 6.32254 26.2258
630 1 -1.1104 9.46863 11.9037 23.4361
631 1 -1.1104 9.46582 6.32254 23.4361
632 2 2.2208 8.07317 10.5096 22.0415
633 1 -1.1104 9.46723 9.11314 26.2255
634 2 2.2208 8.07461 13.3 24.8311
635 2 2.2208 8.07176 7.71899 24.831
636 2 2.2208 10.8612 7.71913 22.0415
637 2 2.2208 10.8641 13.3004 22.0416
106 2 2.2208 10.8641 13.3003 27.6206
523 2 2.2208 8.07604 16.0906 22.0418
580 1 -1.1104 9.4716 17.4845 26.2263
666 2 2.2208 10.867 18.8815 22.0419
555 1 -1.1104 9.47152 17.4846 23.4364
643 1 -1.1104 1.10142 14.6945 20.6471
492 1 -1.1104 1.10402 20.2754 20.6474
646 2 2.2208 2.49955 21.6714 22.0423
647 1 -1.1104 3.89235 17.4844 23.4366
648 1 -1.1104 1.10283 17.4849 23.4367
649 1 -1.1104 3.89099 14.6941 26.2258
650 1 -1.1104 3.89248 17.4845 26.2263
651 2 2.2208 2.49833 18.881 24.8315
652 1 -1.1104 3.89374 20.2748 26.2263
653 2 2.2208 5.28785 18.8808 22.042
654 1 -1.1104 1.10143 14.6944 23.4364
655 1 -1.1104 1.10412 20.2752 23.4368
656 2 2.2208 5.2865 16.0904 24.8313
657 2 2.2208 5.28928 21.671 24.8318
658 1 -1.1104 1.10153 14.6944 26.2261
659 1 -1.1104 1.10287 17.4849 26.2261
660 1 -1.1104 1.10428 20.2753 26.2265
661 1 -1.1104 3.891 14.6941 23.4366
662 1 -1.1104 3.89376 20.2747 23.437
663 2 2.2208 2.49692 16.0907 22.0418
465 1 -1.1104 6.68061 14.694 26.2261
556 1 -1.1104 6.68199 17.4843 26.226
553 1 -1.1104 6.68198 17.4843 23.4368
114 2 2.2208 2.49699 16.0907 27.6208
165 2 2.2208 8.07607 16.0905 27.6208
672 1 -1.1104 12.261 17.4851 23.4367
668 2 2.2208 8.07882 21.6712 22.0422
436 1 -1.1104 12.2625 20.2756 23.4364
518 1 -1.1104 12.2624 20.2762 20.6473
676 1 -1.1104 6.68198 17.4845 20.647
517 1 -1.1104 9.47297 20.2753 20.647
581 1 -1.1104 6.68055 14.694 23.4363
466 1 -1.1104 12.2596 14.6946 23.4362
467 1 -1.1104 9.47011 14.6942 23.4366
677 1 -1.1104 9.4715 17.4849 20.6473
675 1 -1.1104 12.2626 20.2754 26.2265
641 1 -1.1104 9.47009 14.6942 26.2257
374 2 2.2208 13.6536 13.3006 24.8311
373 2 2.2208 13.6578 21.6728 22.0419
680 2 2.2208 13.6478 2.13778 19.2521
679 2 2.2208 13.6492 4.92868 16.4626
678 2 2.2208 13.6463 -0.652978 16.4628
697 2 2.2208 13.6448 -3.44384 19.2523
683 2 2.2208 13.6492 4.92849 22.0415
22 2 2.2208 13.6579 21.6724 27.6212
698 2 2.2208 13.6448 -3.44373 24.8313
376 2 2.2208 13.6521 10.5104 16.4626
682 2 2.2208 13.6507 7.71935 19.252
554 2 2.2208 13.6549 16.0923 16.4628
608 2 2.2208 13.6535 13.301 19.2521
552 2 2.2208 13.6563 18.8828 19.2523
432 2 2.2208 13.6577 21.6747 16.463
638 2 2.2208 13.655 16.0915 22.0417
686 2 2.2208 13.6507 7.71922 24.8309
337 2 2.2208 13.6463 -0.652954 27.6206
685 2 2.2208 13.6478 2.13774 24.831
684 2 2.2208 13.6463 -0.653044 22.0416
334 2 2.2208 13.6493 4.92857 27.6204
166 2 2.2208 13.6521 10.51 27.6204
527 2 2.2208 13.6521 10.51 22.0415
174 2 2.2208 13.655 16.0913 27.6208
530 2 2.2208 13.6564 18.8818 24.8314
701 2 2.2208 5.29076 24.4619 5.3062
702 2 2.2208 5.29394 30.0419 5.30699
703 1 -1.1104 1.10679 25.8563 1.12213
704 1 -1.1104 1.10691 25.8566 3.91164
705 1 -1.1104 1.10564 23.0659 1.12187
706 1 -1.1104 1.10839 28.6466 1.12266
707 2 2.2208 5.29226 27.2516 2.51726
708 1 -1.1104 1.10545 23.0662 3.91121
709 1 -1.1104 1.10814 28.6469 3.91199
710 1 -1.1104 3.89661 25.8553 1.12231
711 2 2.2208 2.50111 24.4621 2.51679
712 2 2.2208 2.50415 30.0426 2.51771
713 1 -1.1104 3.89646 25.8556 3.91154
714 2 2.2208 2.5025 27.2527 5.30651
715 1 -1.1104 3.8951 23.0652 1.12176
716 1 -1.1104 3.89782 28.6454 1.12259
717 1 -1.1104 3.89522 23.0654 3.91142
718 1 -1.1104 3.89807 28.6455 3.91212
872 1 -1.1104 1.10665 25.8569 6.70096
723 1 -1.1104 3.89502 23.0657 6.70062
874 1 -1.1104 6.68626 25.8555 6.7009
1360 2 2.2208 2.50353 46.7576 13.6671
989 1 -1.1104 6.71442 48.0459 9.37053
871 1 -1.1104 3.89782 28.6456 6.70133
878 1 -1.1104 1.10546 23.0665 6.70074
873 1 -1.1104 1.1081 28.6472 6.70133
10239 2 2.2208 -0.275095 43.9932 13.6719
864 2 2.2208 13.6446 46.7539 2.46152
719 1 -1.1104 6.68776 28.6448 3.91193
730 1 -1.1104 6.68491 23.0649 1.12202
721 1 -1.1104 6.68619 25.8549 1.12206
877 1 -1.1104 6.68492 23.0656 6.70095
728 1 -1.1104 6.68478 23.0652 3.91115
729 1 -1.1104 6.68787 28.6448 1.12292
720 1 -1.1104 6.68642 25.8551 3.91186
731 2 2.2208 10.8701 24.4631 5.30643
732 2 2.2208 10.8735 30.0439 5.30768
733 1 -1.1104 12.2654 25.8562 1.12197
734 1 -1.1104 12.2659 25.857 3.91227
735 1 -1.1104 12.2641 23.066 1.1221
736 1 -1.1104 12.2674 28.6463 1.12317
737 2 2.2208 10.8716 27.2526 2.51749
738 1 -1.1104 12.264 23.0666 3.9112
739 1 -1.1104 12.2672 28.6472 3.91224
740 1 -1.1104 9.4761 25.8553 1.12254
741 2 2.2208 8.08046 24.4616 2.51685
742 2 2.2208 8.08364 30.0416 2.51805
743 1 -1.1104 9.47597 25.8557 3.91156
744 2 2.2208 8.08208 27.2522 5.30672
745 1 -1.1104 9.47441 23.0652 1.12163
746 1 -1.1104 9.4774 28.6451 1.12256
747 1 -1.1104 9.47463 23.0656 3.91166
748 1 -1.1104 9.47791 28.6456 3.91268
904 1 -1.1104 12.2678 28.6489 6.70271
912 1 -1.1104 12.2655 25.8583 6.70119
875 1 -1.1104 6.68801 28.6452 6.70177
903 1 -1.1104 12.2642 23.0676 6.7013
908 1 -1.1104 9.47632 25.8565 6.70167
845 2 2.2208 13.6449 43.9397 5.26884
754 2 2.2208 5.29808 35.6218 5.30806
755 1 -1.1104 1.10968 31.437 1.12301
756 1 -1.1104 1.11356 37.0183 1.12385
757 1 -1.1104 1.10975 31.4372 3.91238
758 1 -1.1104 1.11324 37.0182 3.913
759 1 -1.1104 1.11167 34.2275 1.12365
760 2 2.2208 5.29571 32.8318 2.51858
761 2 2.2208 5.30029 38.4128 2.51946
762 1 -1.1104 1.1113 34.2275 3.91261
763 1 -1.1104 3.89962 31.4355 1.12332
764 1 -1.1104 3.90319 37.0161 1.12439
765 2 2.2208 2.50834 35.6235 2.51884
766 1 -1.1104 3.89941 31.4353 3.91236
767 1 -1.1104 3.90288 37.0148 3.91279
768 2 2.2208 2.50601 32.833 5.30725
769 2 2.2208 2.51182 38.4135 5.30748
770 1 -1.1104 3.90106 34.2255 1.12368
771 1 -1.1104 3.90116 34.2252 3.913
933 1 -1.1104 1.11356 37.0169 6.7018
773 1 -1.1104 6.69114 34.2235 3.9128
934 1 -1.1104 6.69305 37.0104 6.70237
782 1 -1.1104 1.10939 31.4374 6.70168
1063 2 2.2208 2.50074 24.4627 13.6741
937 2 2.2208 8.03674 46.7192 8.03438
772 1 -1.1104 6.68917 31.4344 1.12323
775 1 -1.1104 6.69293 37.0144 1.12402
774 1 -1.1104 6.69271 37.0124 3.91351
786 1 -1.1104 6.6896 31.4344 3.91281
785 1 -1.1104 6.69117 34.2245 1.12422
787 2 2.2208 10.8772 35.6246 5.3093
788 1 -1.1104 12.2687 31.4361 1.12318
789 1 -1.1104 12.2724 37.0152 1.12427
790 1 -1.1104 12.2696 31.4372 3.9138
791 1 -1.1104 12.2741 37.0154 3.91444
792 1 -1.1104 12.2711 34.2259 1.12446
793 2 2.2208 10.875 32.8329 2.51919