ITEM: TIMESTEP
312
ITEM: NUMBER OF ATOMS
17656
ITEM: BOX BOUNDS pp pp pp
-2.7717828229332220e-01 2.7617178282293317e+01
-3.4472205766305355e+00 3.3152722057663055e+02
-2.7717827830221448e-01 2.7617178278302212e+01
ITEM: ATOMS id type q x y z
1 2 2.2208 5.27785 2.14436 5.32076
2 1 -1.1104 1.0894 -2.04438 1.13608
3 1 -1.1104 1.09508 3.53881 1.13636
4 1 -1.1104 1.08942 -2.04433 3.92615
5 1 -1.1104 1.09509 3.53889 3.9264
6 1 -1.1104 1.09227 0.747199 1.13684
7 2 2.2208 5.27504 -0.647314 2.53116
9 1 -1.1104 1.0922 0.747285 3.92569
10 1 -1.1104 3.87891 -2.04439 1.13666
11 1 -1.1104 3.88459 3.53876 1.13694
12 2 2.2208 2.48841 2.14431 2.53131
13 1 -1.1104 3.87886 -2.04435 3.92553
14 1 -1.1104 3.88451 3.53883 3.9258
15 2 2.2208 2.48555 -0.647231 5.32063
16 2 2.2208 2.49121 4.936 5.32089
17 1 -1.1104 3.8817 0.747206 1.13621
18 1 -1.1104 3.88172 0.747236 3.92627
8 2 2.2208 5.28072 4.93587 2.53142
26 1 -1.1104 6.67402 3.53883 3.9264
35 1 -1.1104 6.67115 0.74724 3.92566
23 1 -1.1104 3.87887 -2.04426 6.71559
20 1 -1.1104 3.88456 3.53894 6.71586
19 1 -1.1104 1.09503 3.53903 6.71527
207 2 2.2208 13.6633 18.8959 8.11104
32 1 -1.1104 6.67402 3.53874 1.13633
22 1 -1.1104 1.09224 0.747378 6.71573
24 1 -1.1104 3.88167 0.747339 6.71512
29 1 -1.1104 1.08937 -2.04427 6.715
33 1 -1.1104 6.67123 0.747169 1.13681
27 1 -1.1104 6.66836 -2.04435 3.92612
34 1 -1.1104 6.66836 -2.0444 1.13605
28 1 -1.1104 6.67397 3.53896 6.71524
56 1 -1.1104 6.66831 -2.04429 6.71497
36 2 2.2208 10.8568 2.14444 5.32074
37 1 -1.1104 12.2472 -2.04438 1.13605
38 1 -1.1104 12.2529 3.53889 1.1363
39 1 -1.1104 12.2473 -2.04432 3.92614
40 1 -1.1104 12.2529 3.53899 3.92641
41 1 -1.1104 12.2501 0.74725 1.13681
42 2 2.2208 10.854 -0.647287 2.53117
43 2 2.2208 10.8596 4.93599 2.5314
44 1 -1.1104 12.2501 0.747326 3.92566
45 1 -1.1104 9.45785 -2.0444 1.13665
46 1 -1.1104 9.46353 3.53882 1.13693
47 2 2.2208 8.06733 2.14429 2.5313
48 1 -1.1104 9.45778 -2.04436 3.9255
49 1 -1.1104 9.46344 3.53889 3.92576
50 2 2.2208 8.06449 -0.647253 5.3206
51 2 2.2208 8.07017 4.93599 5.32086
52 1 -1.1104 9.46064 0.74722 1.13619
53 1 -1.1104 9.46065 0.747253 3.92627
58 1 -1.1104 12.2472 -2.04428 6.71499
323 2 2.2208 13.6462 2.14442 2.5313
59 1 -1.1104 12.2501 0.747418 6.71573
57 1 -1.1104 6.67119 0.747325 6.71571
61 1 -1.1104 9.4606 0.747357 6.71509
54 1 -1.1104 9.45782 -2.04428 6.71559
55 1 -1.1104 9.46348 3.53901 6.71585
60 1 -1.1104 12.2529 3.53913 6.71523
63 2 2.2208 5.28353 7.72754 5.321
64 2 2.2208 5.28915 13.3106 5.32123
65 1 -1.1104 1.10067 9.12191 1.13661
66 1 -1.1104 1.10072 9.12204 3.92666
67 1 -1.1104 1.09794 6.33038 1.13706
68 1 -1.1104 1.10348 11.9134 1.13725
69 2 2.2208 5.28635 10.5189 2.53164
70 1 -1.1104 1.09785 6.33049 3.92594
71 1 -1.1104 1.10342 11.9136 3.92618
72 1 -1.1104 3.89022 9.12177 1.13716
73 2 2.2208 2.49405 7.72744 2.53155
74 2 2.2208 2.4996 13.3104 2.53175
75 1 -1.1104 3.89016 9.12191 3.92605
76 2 2.2208 2.49684 10.5191 5.32113
77 1 -1.1104 3.8874 6.3303 1.13645
78 1 -1.1104 3.89295 11.9132 1.13668
79 1 -1.1104 3.88739 6.3304 3.92651
80 1 -1.1104 3.89301 11.9134 3.92673
94 1 -1.1104 6.68252 11.9132 1.13727
92 1 -1.1104 6.68247 11.9134 3.92615
96 1 -1.1104 6.67969 9.12179 1.13653
93 1 -1.1104 6.67972 9.12193 3.92665
84 1 -1.1104 3.89021 9.12211 6.71609
81 1 -1.1104 3.88732 6.33054 6.71537
83 1 -1.1104 1.10063 9.12226 6.71554
85 1 -1.1104 1.09788 6.33065 6.71599
268 1 -1.1104 6.6769 6.33055 6.71598
90 1 -1.1104 6.67692 6.33028 1.13706
87 1 -1.1104 3.89294 11.9137 6.71561
86 1 -1.1104 1.10348 11.9138 6.71618
95 1 -1.1104 6.67685 6.3304 3.9259
271 2 2.2208 13.6519 7.72776 2.53155
97 2 2.2208 10.8625 7.72778 5.321
98 2 2.2208 10.8682 13.3111 5.32127
99 1 -1.1104 12.2586 9.12214 1.13654
100 1 -1.1104 12.2586 9.12231 3.92668
101 1 -1.1104 12.2558 6.33052 1.13706
102 1 -1.1104 12.2615 11.9137 1.13732
103 2 2.2208 10.8653 10.5192 2.53165
104 1 -1.1104 12.2557 6.33065 3.9259
105 1 -1.1104 12.2614 11.9139 3.92614
106 1 -1.1104 9.4692 9.12192 1.13717
107 2 2.2208 8.07304 7.72746 2.53153
108 2 2.2208 8.07867 13.3104 2.53177
109 1 -1.1104 9.46913 9.12211 3.92602
110 2 2.2208 8.07584 10.5192 5.32112
111 1 -1.1104 9.46635 6.3304 1.1364
112 1 -1.1104 9.47198 11.9134 1.13664
113 1 -1.1104 9.46637 6.33049 3.92652
114 1 -1.1104 9.47205 11.9136 3.92681
239 2 2.2208 13.6576 13.3111 2.53181
116 1 -1.1104 12.2586 9.12257 6.71546
119 1 -1.1104 12.2615 11.9143 6.71628
117 1 -1.1104 9.46919 9.12233 6.71611
270 2 2.2208 13.6547 10.5197 5.32114
88 1 -1.1104 6.68255 11.9137 6.71624
118 1 -1.1104 12.2558 6.33085 6.71599
269 1 -1.1104 9.4663 6.33066 6.71534
123 2 2.2208 5.29478 18.8933 5.32144
124 1 -1.1104 1.10616 14.7047 1.13677
125 1 -1.1104 1.11168 20.2872 1.13694
126 1 -1.1104 1.10625 14.705 3.92682
127 1 -1.1104 1.11178 20.2876 3.92697
128 1 -1.1104 1.10898 17.4961 1.13738
129 2 2.2208 5.29195 16.1017 2.53188
130 2 2.2208 5.29762 21.6839 2.53206
131 1 -1.1104 1.10889 17.4964 3.92642
132 1 -1.1104 3.89575 14.7046 1.13734
133 1 -1.1104 3.90136 20.2869 1.13749
134 2 2.2208 2.50518 18.893 2.53194
135 1 -1.1104 3.89571 14.7048 3.92628
136 1 -1.1104 3.90125 20.2872 3.92645
137 2 2.2208 2.50238 16.1021 5.32134
138 2 2.2208 2.50796 21.6847 5.32151
139 1 -1.1104 3.89849 17.4958 1.13685
140 1 -1.1104 3.89859 17.4961 3.92695
154 1 -1.1104 6.68809 17.4961 3.92639
153 1 -1.1104 6.68813 17.4958 1.1375
147 1 -1.1104 6.68527 14.7046 1.13675
155 1 -1.1104 6.69089 20.2868 1.13691
141 1 -1.1104 3.8985 17.4965 6.71582
144 1 -1.1104 1.10899 17.4969 6.71636
148 1 -1.1104 1.11157 20.2883 6.71597
178 1 -1.1104 6.68826 17.4966 6.71651
145 1 -1.1104 3.9014 20.2878 6.71648
151 1 -1.1104 6.68536 14.7048 3.92692
156 1 -1.1104 6.68529 14.7052 6.71571
142 1 -1.1104 3.89581 14.7051 6.71631
146 1 -1.1104 1.10614 14.7054 6.71577
150 1 -1.1104 6.69097 20.2879 6.7159
211 2 2.2208 13.6547 10.5203 10.8999
158 1 -1.1104 6.69106 20.2873 3.92714
180 1 -1.1104 9.4777 17.4971 6.71585
182 1 -1.1104 12.27 20.2896 6.71606
265 2 2.2208 13.6604 16.1032 5.32146
349 2 2.2208 13.6662 21.6867 5.3218
159 2 2.2208 10.8739 18.8942 5.32157
160 1 -1.1104 12.2643 14.7052 1.13673
161 1 -1.1104 12.27 20.2879 1.1369
162 1 -1.1104 12.2644 14.7056 3.92698
163 1 -1.1104 12.2702 20.2886 3.92735
164 1 -1.1104 12.2672 17.4966 1.13754
165 2 2.2208 10.871 16.1022 2.53189
166 2 2.2208 10.8768 21.6849 2.53216
167 1 -1.1104 12.2671 17.4971 3.92641
168 1 -1.1104 9.47486 14.7048 1.13741
169 1 -1.1104 9.48055 20.2873 1.13764
170 2 2.2208 8.08433 18.8931 2.53201
171 1 -1.1104 9.47479 14.7051 3.92625
172 1 -1.1104 9.48053 20.2877 3.92648
173 2 2.2208 8.08153 16.1022 5.32139
174 2 2.2208 8.08733 21.6849 5.32163
175 1 -1.1104 9.47761 17.4961 1.13681
176 1 -1.1104 9.47778 17.4965 3.92711
179 1 -1.1104 9.47494 14.7055 6.71642
181 1 -1.1104 12.2673 17.4979 6.71667
326 2 2.2208 13.6434 -0.647184 5.32062
187 2 2.2208 5.27783 2.14449 10.8996
188 1 -1.1104 1.08937 -2.04421 12.2938
189 1 -1.1104 1.09504 3.53914 12.2941
190 1 -1.1104 1.08941 -2.04423 9.50504
191 1 -1.1104 1.09507 3.5391 9.50529
192 1 -1.1104 1.09223 0.747459 12.2946
193 2 2.2208 5.275 -0.647191 8.11007
194 2 2.2208 5.28068 4.93609 8.11031
195 1 -1.1104 1.0922 0.747437 9.50457
196 1 -1.1104 3.87886 -2.04425 12.2944
197 1 -1.1104 3.88455 3.53906 12.2947
198 2 2.2208 2.48838 2.14447 8.1102
199 1 -1.1104 3.87883 -2.04426 9.50443
200 1 -1.1104 3.8845 3.53903 9.50468
201 2 2.2208 2.48554 -0.64714 10.8995
202 2 2.2208 2.49121 4.93618 10.8998
203 1 -1.1104 3.88168 0.747411 12.294
204 1 -1.1104 3.8817 0.747376 9.50516
209 1 -1.1104 6.66833 -2.04427 9.50502
218 1 -1.1104 6.67402 3.53903 9.50527
219 1 -1.1104 6.67113 0.747377 9.50451
678 2 2.2208 5.28073 4.93617 13.6891
681 2 2.2208 2.48838 2.14451 13.689
217 1 -1.1104 6.67401 3.53908 12.2941
220 1 -1.1104 6.66831 -2.04426 12.2938
294 2 2.2208 13.649 4.93625 5.32089
267 1 -1.1104 9.48065 20.2895 9.5053
264 2 2.2208 13.6434 -0.647072 10.8995
213 1 -1.1104 6.67117 0.747408 12.2945
241 2 2.2208 13.6491 4.93653 10.8997
221 2 2.2208 10.8568 2.14462 10.8996
222 1 -1.1104 12.2472 -2.04421 12.2938
223 1 -1.1104 12.2529 3.53932 12.294
224 1 -1.1104 12.2473 -2.04422 9.50502
225 1 -1.1104 12.253 3.53927 9.50527
226 1 -1.1104 12.2501 0.74755 12.2946
227 2 2.2208 10.8539 -0.647145 8.11006
228 1 -1.1104 12.25 0.747528 9.50452
229 1 -1.1104 9.45781 -2.04423 12.2945
230 1 -1.1104 9.46351 3.53918 12.2947
231 2 2.2208 8.0673 2.14448 8.11018
232 1 -1.1104 9.45778 -2.04426 9.50442
233 1 -1.1104 9.46345 3.53914 9.50463
234 2 2.2208 8.06447 -0.647154 10.8995
235 2 2.2208 8.07018 4.93622 10.8997
236 1 -1.1104 9.46062 0.747471 12.2939
237 1 -1.1104 9.46064 0.74743 9.50513
238 2 2.2208 10.8596 4.93625 8.11031
685 2 2.2208 10.854 -0.647095 13.6889
686 2 2.2208 10.8597 4.93638 13.6891
260 2 2.2208 13.6462 2.14463 8.11019
298 1 -1.1104 12.2672 17.4987 9.50525
680 2 2.2208 13.6462 2.14474 13.689
687 2 2.2208 8.06733 2.14454 13.689
91 1 -1.1104 6.67964 9.12213 6.71549
689 2 2.2208 2.49403 7.72787 13.6892
242 2 2.2208 5.28353 7.72781 10.8998
243 2 2.2208 5.28917 13.3111 10.9
244 1 -1.1104 1.10065 9.12254 12.2943
245 1 -1.1104 1.10067 9.12245 9.50551
246 1 -1.1104 1.09788 6.33082 12.2948
247 1 -1.1104 1.10344 11.9142 12.295
248 2 2.2208 5.28634 10.5193 8.11056
249 1 -1.1104 1.09782 6.33077 9.50485
250 1 -1.1104 1.10339 11.9141 9.50506
251 1 -1.1104 3.89019 9.12237 12.2949
252 2 2.2208 2.494 7.72775 8.11046
253 2 2.2208 2.49961 13.311 8.11067
254 1 -1.1104 3.89015 9.12229 9.5049
255 2 2.2208 2.49682 10.5195 10.9
256 1 -1.1104 3.88735 6.33071 12.2942
257 1 -1.1104 3.89297 11.914 12.2944
258 1 -1.1104 3.88736 6.33067 9.50539
259 1 -1.1104 3.89301 11.9139 9.50561
272 1 -1.1104 6.68248 11.914 9.505
274 1 -1.1104 6.68255 11.9141 12.295
688 2 2.2208 5.28638 10.5195 13.6893
696 2 2.2208 13.6633 18.897 13.6894
679 2 2.2208 5.27501 -0.64718 13.6889
299 2 2.2208 13.6604 16.1044 10.9002
205 2 2.2208 10.8769 21.6869 8.11116
691 2 2.2208 2.49959 13.3112 13.6894
115 1 -1.1104 9.47198 11.9139 6.71559
695 2 2.2208 8.07306 7.72795 13.6892
683 2 2.2208 13.6519 7.72842 13.6892
275 1 -1.1104 6.67971 9.12235 9.50553
273 1 -1.1104 6.6769 6.33076 12.2948
266 1 -1.1104 6.67684 6.3307 9.50476
261 1 -1.1104 6.67969 9.12245 12.2943
212 2 2.2208 13.6519 7.72818 8.11045
214 2 2.2208 13.6576 13.3119 8.11071
276 1 -1.1104 9.47208 11.9143 9.50567
277 1 -1.1104 9.46638 6.33085 9.50541
278 1 -1.1104 9.47204 11.9145 12.2943
279 1 -1.1104 9.46634 6.3309 12.2941
280 2 2.2208 8.07586 10.5196 10.8999
281 1 -1.1104 9.46915 9.12255 9.50486
282 2 2.2208 8.0787 13.3111 8.11067
283 2 2.2208 8.07302 7.7278 8.11044
284 2 2.2208 10.8625 7.72814 10.8998
285 2 2.2208 10.8682 13.3118 10.9
286 1 -1.1104 12.2586 9.12302 12.2942
287 1 -1.1104 12.2587 9.12286 9.50555
288 1 -1.1104 12.2558 6.33113 12.2948
289 1 -1.1104 12.2615 11.915 12.295
290 2 2.2208 10.8653 10.5197 8.11055
291 1 -1.1104 12.2558 6.33103 9.50476
292 1 -1.1104 12.2614 11.9147 9.50499
293 1 -1.1104 9.46922 9.12269 12.2949
694 2 2.2208 8.07872 13.3114 13.6894
692 2 2.2208 10.8653 10.52 13.6893
682 2 2.2208 13.6576 13.3124 13.6894
215 2 2.2208 13.6633 18.8942 2.53205
698 2 2.2208 2.50502 18.8944 13.6894
697 2 2.2208 5.29196 16.1028 13.6894
318 1 -1.1104 6.68823 17.4974 12.2952
324 1 -1.1104 6.69115 20.2885 9.50599
300 1 -1.1104 1.10884 17.4976 12.295
301 2 2.2208 2.50235 16.1028 10.9001
302 2 2.2208 2.50779 21.6858 10.9002
303 1 -1.1104 3.8985 17.4972 12.2945
304 1 -1.1104 3.90128 20.2886 12.2951
305 1 -1.1104 3.89577 14.7056 12.295
306 1 -1.1104 1.11161 20.2888 9.50577
307 1 -1.1104 1.10883 17.4973 9.50524
308 2 2.2208 5.29766 21.6851 8.11093
309 1 -1.1104 1.10618 14.7057 9.50568
310 2 2.2208 5.29198 16.1024 8.11076
311 1 -1.1104 1.11144 20.2892 12.2946
312 1 -1.1104 1.10613 14.7059 12.2945
313 2 2.2208 5.29481 18.8942 10.9002
314 1 -1.1104 3.90127 20.2883 9.50527
315 2 2.2208 2.50514 18.8939 8.11083
316 1 -1.1104 3.89858 17.4969 9.50577
317 1 -1.1104 3.89571 14.7054 9.50512
185 1 -1.1104 6.69109 20.2889 12.2945
375 2 2.2208 5.29756 21.6858 13.6894
152 1 -1.1104 9.47496 14.7063 12.2951
371 2 2.2208 10.8769 21.6883 13.6895
240 1 -1.1104 9.4778 17.4982 12.2944
262 1 -1.1104 9.4808 20.2901 12.2954
263 1 -1.1104 12.2701 20.2918 12.2945
322 2 2.2208 8.08737 21.6865 10.9003
684 2 2.2208 10.8711 16.1039 13.6894
690 2 2.2208 8.08443 18.8949 13.6895
295 2 2.2208 8.08156 16.103 10.9001
157 1 -1.1104 9.4808 20.2886 6.71677
177 1 -1.1104 12.2643 14.7061 6.71575
348 2 2.2208 13.6662 21.6893 10.9004
186 1 -1.1104 9.47786 17.4978 9.50598
216 2 2.2208 10.874 18.8957 10.9003
183 1 -1.1104 12.2644 14.7067 9.50586
210 1 -1.1104 12.2643 14.707 12.2944
184 1 -1.1104 6.68815 17.4971 9.50519
321 1 -1.1104 6.6854 14.7056 9.50576
320 1 -1.1104 6.68536 14.7058 12.2944
208 1 -1.1104 9.47484 14.706 9.50509
149 2 2.2208 10.871 16.1032 8.11085
120 2 2.2208 8.08444 18.8942 8.11091
143 1 -1.1104 12.2703 20.2908 9.50626
325 1 -1.1104 12.2673 17.4993 12.2953
676 2 2.2208 2.48269 -3.43882 13.6888
62 2 2.2208 2.48274 -3.43888 2.53104
82 2 2.2208 5.2722 -3.43884 5.32049
296 2 2.2208 13.6406 -3.43885 8.10995
30 2 2.2208 10.8511 -3.43885 5.3205
31 2 2.2208 8.06168 -3.43891 2.53102
319 2 2.2208 13.6406 -3.43891 2.53104
122 2 2.2208 10.8511 -3.43883 10.8994
677 2 2.2208 8.06165 -3.43884 13.6888
21 2 2.2208 5.27219 -3.43881 10.8994
693 2 2.2208 13.6405 -3.43884 13.6888
25 2 2.2208 2.48272 -3.43881 8.10994
297 2 2.2208 8.06166 -3.43885 8.10995
351 2 2.2208 5.27789 2.14445 16.4784
352 1 -1.1104 1.08938 -2.04435 17.8727
353 1 -1.1104 1.09511 3.539 17.8729
354 1 -1.1104 1.08939 -2.04427 15.0839
355 1 -1.1104 1.09506 3.53911 15.0841
356 1 -1.1104 1.09227 0.747338 17.8734
357 2 2.2208 5.27504 -0.647292 19.2677
358 2 2.2208 5.28076 4.936 19.2679
359 1 -1.1104 1.09221 0.747413 15.0834
360 1 -1.1104 3.87887 -2.04438 17.8733
361 1 -1.1104 3.88459 3.53893 17.8735
362 2 2.2208 2.48844 2.14436 19.2679
363 1 -1.1104 3.87883 -2.0443 15.0832
364 1 -1.1104 3.88454 3.53902 15.0835
365 2 2.2208 2.48554 -0.647217 16.4783
366 2 2.2208 2.49125 4.93613 16.4786
367 1 -1.1104 3.88173 0.747282 17.8728
368 1 -1.1104 3.8817 0.747365 15.084
350 2 2.2208 13.666 21.6852 27.6368
529 1 -1.1104 3.88175 0.747203 20.6628
377 1 -1.1104 6.66837 -2.0444 20.6627
384 1 -1.1104 6.67122 0.747223 20.6622
369 1 -1.1104 3.88462 3.53882 20.6623
373 1 -1.1104 3.87885 -2.04442 20.6621
378 1 -1.1104 1.09512 3.5389 20.6629
385 1 -1.1104 6.66833 -2.04431 15.0838
370 1 -1.1104 1.09226 0.747264 20.6622
346 2 2.2208 13.6604 16.1024 27.6367
410 2 2.2208 13.6548 10.5196 22.0575
380 1 -1.1104 6.67116 0.747387 15.0833
382 1 -1.1104 6.67406 3.53897 17.8729
383 1 -1.1104 6.67406 3.53907 15.0841
381 1 -1.1104 6.66834 -2.04434 17.8726
379 1 -1.1104 6.67121 0.747328 17.8734
386 2 2.2208 10.8568 2.14458 16.4784
387 1 -1.1104 12.2473 -2.04432 17.8726
388 1 -1.1104 12.253 3.53922 17.8728
389 1 -1.1104 12.2473 -2.04424 15.0839
390 1 -1.1104 12.253 3.5393 15.0841
391 1 -1.1104 12.2501 0.747455 17.8734
392 2 2.2208 10.854 -0.647234 19.2677
393 2 2.2208 10.8597 4.9362 19.2679
394 1 -1.1104 12.2501 0.747528 15.0833
395 1 -1.1104 9.45782 -2.04434 17.8733
396 1 -1.1104 9.46354 3.53906 17.8735
397 2 2.2208 8.06738 2.14441 19.2678
398 1 -1.1104 9.4578 -2.04428 15.0833
399 1 -1.1104 9.46353 3.53915 15.0834
400 2 2.2208 8.0645 -0.647198 16.4783
401 2 2.2208 8.07024 4.93619 16.4785
402 1 -1.1104 9.46068 0.747362 17.8728
403 1 -1.1104 9.46066 0.747442 15.084
408 1 -1.1104 12.2501 0.747343 20.6622
404 1 -1.1104 12.253 3.53906 20.6629
550 2 2.2208 13.6575 13.311 24.8471
642 2 2.2208 13.6491 4.93648 16.4785
405 1 -1.1104 12.2472 -2.04436 20.6627
639 2 2.2208 13.6434 -0.647114 16.4783
556 1 -1.1104 6.67408 3.53886 20.6629
409 1 -1.1104 9.45782 -2.0444 20.6621
121 2 2.2208 2.50795 21.6838 27.6368
412 2 2.2208 5.28358 7.72776 16.4786
413 2 2.2208 5.28917 13.311 16.4787
414 1 -1.1104 1.10071 9.12233 17.8731
415 1 -1.1104 1.10068 9.12248 15.0843
416 1 -1.1104 1.09791 6.33067 17.8736
417 1 -1.1104 1.1034 11.914 17.8737
418 2 2.2208 5.28638 10.5192 19.2681
419 1 -1.1104 1.09788 6.33078 15.0836
420 1 -1.1104 1.10344 11.9142 15.0838
421 1 -1.1104 3.89021 9.1222 17.8737
422 2 2.2208 2.49408 7.72763 19.268
423 2 2.2208 2.49958 13.3108 19.2681
424 1 -1.1104 3.89021 9.12236 15.0837
425 2 2.2208 2.49686 10.5195 16.4787
426 1 -1.1104 3.88742 6.33058 17.873
427 1 -1.1104 3.89301 11.9138 17.8731
428 1 -1.1104 3.88739 6.33069 15.0842
429 1 -1.1104 3.89299 11.914 15.0843
438 1 -1.1104 6.68256 11.9141 15.0837
443 1 -1.1104 6.68251 11.9138 17.8737
444 1 -1.1104 6.67692 6.33061 17.8736
440 1 -1.1104 3.89026 9.12198 20.6625
612 1 -1.1104 6.67694 6.33048 20.6624
441 1 -1.1104 6.67975 9.12203 20.6631
584 2 2.2208 13.6631 18.894 24.8471
432 1 -1.1104 1.09792 6.33051 20.6624
431 1 -1.1104 1.10348 11.9137 20.6626
430 1 -1.1104 1.1007 9.12211 20.6631
434 1 -1.1104 3.89297 11.9135 20.6631
435 1 -1.1104 3.88742 6.33041 20.663
446 1 -1.1104 6.68255 11.9136 20.6625
667 1 -1.1104 9.47477 14.7049 23.4527
442 1 -1.1104 6.67691 6.33074 15.0836
439 1 -1.1104 6.67973 9.1224 15.0843
445 1 -1.1104 6.67975 9.12224 17.873
447 2 2.2208 10.8625 7.72809 16.4786
448 2 2.2208 10.8682 13.3117 16.4787
449 1 -1.1104 12.2587 9.1228 17.873
450 1 -1.1104 12.2587 9.123 15.0843
451 1 -1.1104 12.2558 6.33099 17.8736
452 1 -1.1104 12.2615 11.9147 17.8737
453 2 2.2208 10.8653 10.5196 19.2681
454 1 -1.1104 12.2558 6.33111 15.0835
455 1 -1.1104 12.2615 11.915 15.0837
456 1 -1.1104 9.46922 9.12247 17.8737
457 2 2.2208 8.07309 7.72771 19.268
458 2 2.2208 8.07869 13.3109 19.2681
459 1 -1.1104 9.46923 9.12268 15.0836
460 2 2.2208 8.07588 10.5196 16.4787
461 1 -1.1104 9.46642 6.33078 17.8729
462 1 -1.1104 9.47207 11.9142 17.873
463 1 -1.1104 9.4664 6.3309 15.0842
464 1 -1.1104 9.47206 11.9145 15.0844
465 1 -1.1104 12.2559 6.33079 20.6623
468 1 -1.1104 9.46925 9.12223 20.6624
467 1 -1.1104 9.46641 6.3306 20.663
613 1 -1.1104 12.2615 11.9142 20.6624
466 1 -1.1104 12.2587 9.1225 20.663
583 2 2.2208 13.6548 10.5202 16.4786
473 2 2.2208 5.29471 18.894 16.4787
474 1 -1.1104 1.10615 14.7056 17.8732
475 1 -1.1104 1.11144 20.2885 17.8732
476 1 -1.1104 1.1061 14.7059 15.0843
477 1 -1.1104 1.11134 20.289 15.0843
478 1 -1.1104 1.10871 17.4971 17.8736
479 2 2.2208 5.29192 16.1022 19.2681
480 2 2.2208 5.2974 21.6846 19.2681
481 1 -1.1104 1.10881 17.4975 15.0838
482 1 -1.1104 3.89569 14.7053 17.8737
483 1 -1.1104 3.90107 20.2879 17.8737
484 2 2.2208 2.50498 18.8936 19.2681
485 1 -1.1104 3.89577 14.7056 15.0838
486 1 -1.1104 3.90124 20.2885 15.0838
487 2 2.2208 2.5023 16.1026 16.4787
488 2 2.2208 2.50761 21.6855 16.4787
489 1 -1.1104 3.8985 17.4967 17.8731
490 1 -1.1104 3.89844 17.4971 15.0844
504 1 -1.1104 6.68535 14.7057 15.0844
501 1 -1.1104 6.68537 14.7054 17.8731
505 1 -1.1104 6.69098 20.2888 15.0845
491 1 -1.1104 3.89838 17.4962 20.6631
494 1 -1.1104 3.90119 20.2873 20.6626
497 1 -1.1104 3.89575 14.7049 20.6626
495 1 -1.1104 1.11138 20.2878 20.663
496 1 -1.1104 1.10886 17.4965 20.6626
498 1 -1.1104 1.10611 14.7052 20.6631
526 1 -1.1104 9.47489 14.7054 20.6625
492 1 -1.1104 6.691 20.2882 17.873
502 1 -1.1104 6.68807 17.4968 17.8738
493 1 -1.1104 6.6882 17.4973 15.0837
499 1 -1.1104 6.69076 20.2874 20.6632
506 2 2.2208 10.8739 18.8956 16.4787
507 1 -1.1104 12.2644 14.7066 17.873
508 1 -1.1104 12.2702 20.2907 17.8728
509 1 -1.1104 12.2643 14.707 15.0844
510 1 -1.1104 12.2701 20.2916 15.0845
511 1 -1.1104 12.2671 17.4986 17.8737
512 2 2.2208 10.871 16.1031 19.2681
513 2 2.2208 10.8767 21.6865 19.2679
514 1 -1.1104 12.2673 17.4992 15.0837
515 1 -1.1104 9.47484 14.7059 17.8737
516 1 -1.1104 9.4805 20.2892 17.8737
517 2 2.2208 8.08429 18.8939 19.2681
518 1 -1.1104 9.47494 14.7063 15.0837
519 1 -1.1104 9.48077 20.29 15.0836
520 2 2.2208 8.08152 16.1029 16.4787
521 2 2.2208 8.08724 21.6862 16.4787
522 1 -1.1104 9.47778 17.4976 17.873
523 1 -1.1104 9.47776 17.4981 15.0845
525 1 -1.1104 12.2698 20.2893 20.663
668 1 -1.1104 12.2672 17.4977 20.6623
669 1 -1.1104 9.47757 17.4969 20.6632
527 1 -1.1104 12.2642 14.7059 20.6631
374 1 -1.1104 1.08939 -2.04439 20.6627
553 2 2.2208 13.6463 2.14439 24.8467
531 2 2.2208 5.27792 2.14426 22.0573
532 1 -1.1104 1.08938 -2.04444 23.4515
533 1 -1.1104 1.09512 3.5388 23.4518
534 1 -1.1104 1.08944 -2.04443 26.2416
535 1 -1.1104 1.09512 3.53878 26.2418
536 1 -1.1104 1.09228 0.747192 23.4523
537 2 2.2208 5.27506 -0.64737 24.8466
538 1 -1.1104 1.09225 0.747176 26.2411
539 1 -1.1104 3.8789 -2.04446 23.4521
540 1 -1.1104 3.88461 3.53875 23.4524
541 2 2.2208 2.48844 2.14424 24.8467
542 1 -1.1104 3.87887 -2.04444 26.241
543 1 -1.1104 3.88457 3.53872 26.2412
544 2 2.2208 2.48557 -0.647331 22.0572
545 2 2.2208 2.49127 4.9359 22.0574
546 1 -1.1104 3.88174 0.747138 23.4516
547 1 -1.1104 3.88175 0.747145 26.2417
548 2 2.2208 5.28075 4.93581 24.8469
562 1 -1.1104 6.66838 -2.04445 26.2416
333 2 2.2208 5.27789 2.14423 27.6362
331 2 2.2208 2.49126 4.93582 27.6363
559 1 -1.1104 6.67408 3.53872 26.2418
564 1 -1.1104 6.67119 0.747144 26.2411
332 2 2.2208 2.48557 -0.647339 27.6361
406 1 -1.1104 9.46355 3.53894 20.6623
407 1 -1.1104 9.46069 0.74728 20.6628
563 1 -1.1104 6.67123 0.747183 23.4522
335 2 2.2208 8.07022 4.93584 27.6363
334 2 2.2208 8.06453 -0.647353 27.6361
561 1 -1.1104 6.67408 3.53878 23.4517
558 1 -1.1104 6.66835 -2.04443 23.4515
565 2 2.2208 10.8568 2.14438 22.0572
566 1 -1.1104 12.2472 -2.04441 23.4515
567 1 -1.1104 12.253 3.53893 23.4517
568 1 -1.1104 12.2473 -2.04442 26.2416
569 1 -1.1104 12.253 3.53887 26.2418
570 1 -1.1104 12.2501 0.747266 23.4522
571 2 2.2208 10.854 -0.647339 24.8466
572 2 2.2208 10.8597 4.93595 24.8468
573 1 -1.1104 12.2501 0.747236 26.2411
574 1 -1.1104 9.45783 -2.04444 23.4521
575 1 -1.1104 9.46357 3.53883 23.4523
576 2 2.2208 8.06738 2.14427 24.8467
577 1 -1.1104 9.45779 -2.04446 26.241
578 1 -1.1104 9.46353 3.53878 26.2412
579 2 2.2208 8.06452 -0.647322 22.0572
580 2 2.2208 8.07025 4.93595 22.0574
581 1 -1.1104 9.46068 0.747204 23.4516
582 1 -1.1104 9.46067 0.74717 26.2417
338 2 2.2208 10.8568 2.14431 27.6362
336 2 2.2208 13.6491 4.93605 27.6363
337 2 2.2208 13.6434 -0.647293 27.6361
469 1 -1.1104 9.4748 14.7048 26.2415
503 1 -1.1104 6.68527 14.705 20.6632
343 2 2.2208 5.28357 7.72732 27.6364
588 2 2.2208 5.28359 7.72744 22.0575
589 2 2.2208 5.28913 13.3104 22.0576
590 1 -1.1104 1.10073 9.12194 23.452
591 1 -1.1104 1.10072 9.12187 26.242
592 1 -1.1104 1.09795 6.33037 23.4525
593 1 -1.1104 1.10345 11.9134 23.4526
594 2 2.2208 5.28636 10.5188 24.847
595 1 -1.1104 1.09792 6.33034 26.2414
596 1 -1.1104 1.10346 11.9133 26.2416
597 1 -1.1104 3.89022 9.12183 23.4525
598 2 2.2208 2.49408 7.72738 24.8469
599 2 2.2208 2.49959 13.3103 24.8471
600 1 -1.1104 3.8902 9.12176 26.2415
601 2 2.2208 2.49686 10.519 22.0576
602 1 -1.1104 3.88743 6.33033 23.4519
603 1 -1.1104 3.89299 11.9133 23.452
604 1 -1.1104 3.88743 6.33025 26.2419
605 1 -1.1104 3.89299 11.9132 26.2421
616 1 -1.1104 6.68249 11.9132 26.2415
614 1 -1.1104 6.67972 9.12175 26.242
342 2 2.2208 5.28913 13.3102 27.6366
341 2 2.2208 2.49686 10.5189 27.6365
615 1 -1.1104 6.68248 11.9133 23.4526
611 1 -1.1104 6.67692 6.33031 23.4525
620 1 -1.1104 9.472 11.9138 20.6631
330 2 2.2208 10.8625 7.72755 27.6364
345 2 2.2208 13.6548 10.5193 27.6365
617 1 -1.1104 6.6769 6.33027 26.2413
618 1 -1.1104 6.67973 9.12183 23.4519
344 2 2.2208 10.8681 13.3106 27.6366
621 1 -1.1104 9.46919 9.122 23.4525
622 1 -1.1104 12.2615 11.9137 26.2415
623 1 -1.1104 12.2558 6.33052 26.2413
624 2 2.2208 10.8653 10.5191 24.847
625 1 -1.1104 12.2614 11.9138 23.4526
626 1 -1.1104 12.2558 6.3306 23.4524
627 1 -1.1104 12.2586 9.12211 26.242
628 1 -1.1104 12.2587 9.12224 23.4519
629 1 -1.1104 9.472 11.9134 26.2421
630 1 -1.1104 9.46639 6.33036 26.2419
631 1 -1.1104 9.47201 11.9135 23.4519
632 1 -1.1104 9.46638 6.33045 23.4518
633 2 2.2208 8.07586 10.5191 22.0575
634 1 -1.1104 9.46918 9.1219 26.2414
635 2 2.2208 8.07864 13.3103 24.8471
636 2 2.2208 8.07306 7.72742 24.8469
637 2 2.2208 10.8625 7.7277 22.0574
638 2 2.2208 10.8681 13.3109 22.0575
376 2 2.2208 13.6519 7.72774 24.8469
347 2 2.2208 8.07584 10.5189 27.6365
329 2 2.2208 2.50235 16.1016 27.6367
663 1 -1.1104 6.69088 20.2867 26.2423
664 1 -1.1104 6.68527 14.7045 26.2422
640 1 -1.1104 6.6853 14.7047 23.452
554 1 -1.1104 6.68804 17.4957 26.2416
645 2 2.2208 2.50772 21.6841 22.0576
646 1 -1.1104 3.89847 17.4958 23.4521
647 1 -1.1104 1.10885 17.4961 23.4526
648 1 -1.1104 3.89571 14.7045 26.2416
649 1 -1.1104 3.89847 17.4957 26.2422
650 2 2.2208 2.50509 18.8928 24.8472
651 1 -1.1104 3.90125 20.2867 26.2417
652 2 2.2208 5.29463 18.893 22.0576
653 1 -1.1104 1.10619 14.7048 23.4521
654 1 -1.1104 1.11159 20.2872 23.4521
655 2 2.2208 5.29189 16.1015 24.8471
656 2 2.2208 5.29747 21.6836 24.8473
657 1 -1.1104 1.10619 14.7047 26.2421
658 1 -1.1104 1.10891 17.4959 26.2416
659 1 -1.1104 1.11166 20.2871 26.2422
660 1 -1.1104 3.89568 14.7046 23.4526
661 1 -1.1104 3.90115 20.2869 23.4527
662 2 2.2208 2.5023 16.1018 22.0576
666 1 -1.1104 6.688 17.4959 23.4527
500 1 -1.1104 6.68813 17.4963 20.6625
89 2 2.2208 5.29471 18.8926 27.6368
340 2 2.2208 8.08716 21.6839 27.6369
549 1 -1.1104 12.267 17.4969 23.4526
606 2 2.2208 10.8709 16.1021 24.8471
586 2 2.2208 8.08146 16.102 22.0576
339 2 2.2208 10.8738 18.8933 27.6368
206 2 2.2208 8.08146 16.1017 27.6367
607 1 -1.1104 9.48045 20.2872 26.2416
673 1 -1.1104 12.2643 14.7054 23.4519
672 1 -1.1104 12.2671 17.4966 26.2415
641 1 -1.1104 12.2699 20.2879 26.2423
530 1 -1.1104 6.69087 20.2869 23.452
587 2 2.2208 13.6603 16.103 22.0575
528 2 2.2208 10.8737 18.894 22.0575
699 2 2.2208 13.6659 21.6863 22.0573
643 1 -1.1104 12.27 20.2883 23.4518
675 1 -1.1104 9.47765 17.4963 23.452
671 2 2.2208 8.08705 21.6845 22.0576
551 2 2.2208 10.8766 21.6847 24.8471
557 1 -1.1104 9.48037 20.2875 23.4527
524 1 -1.1104 9.48056 20.2882 20.6623
674 2 2.2208 8.08424 18.8929 24.8472
670 1 -1.1104 9.47761 17.496 26.2423
555 1 -1.1104 12.2643 14.7051 26.2422
560 2 2.2208 13.6434 -0.64724 22.0571
665 2 2.2208 13.6463 2.14456 19.2678
609 2 2.2208 13.652 7.72814 19.268
608 2 2.2208 13.6576 13.3118 19.2681
700 2 2.2208 13.666 21.6892 16.4785
610 2 2.2208 13.6632 18.8957 19.2679
585 2 2.2208 13.6604 16.1043 16.4787
552 2 2.2208 13.6491 4.9362 22.0574
433 2 2.2208 2.4827 -3.43893 19.2676
644 2 2.2208 13.6405 -3.43893 19.2676
436 2 2.2208 5.27218 -3.43889 16.4782
471 2 2.2208 5.2722 -3.43897 22.057
411 2 2.2208 2.48273 -3.43898 24.8465
470 2 2.2208 10.8511 -3.43896 22.0571
372 2 2.2208 8.06167 -3.43899 24.8465
472 2 2.2208 8.06167 -3.43893 19.2676
327 2 2.2208 10.8511 -3.43896 27.6359
328 2 2.2208 5.27222 -3.43894 27.6359
619 2 2.2208 13.6405 -3.43899 24.8465
437 2 2.2208 10.8511 -3.43889 16.4782
701 2 2.2208 5.30059 24.4755 5.32166
702 2 2.2208 5.307 30.057 5.32193
703 1 -1.1104 1.11729 25.8691 1.1371
704 1 -1.1104 1.11741 25.8697 3.92714
705 1 -1.1104 1.11455 23.0783 1.13751
706 1 -1.1104 1.12046 28.6598 1.13776
707 2 2.2208 5.30365 27.2656 2.53239
708 1 -1.1104 1.11439 23.0788 3.92659
709 1 -1.1104 1.12017 28.6605 3.9268
710 1 -1.1104 3.90712 25.8685 1.13771
711 2 2.2208 2.51089 24.4751 2.53212
712 2 2.2208 2.51739 30.0566 2.5325
713 1 -1.1104 3.90698 25.869 3.92666
714 2 2.2208 2.51384 27.2667 5.32169
715 1 -1.1104 3.9041 23.0777 1.13701
716 1 -1.1104 3.91 28.659 1.13729
717 1 -1.1104 3.90423 23.0782 3.92714
718 1 -1.1104 3.91022 28.6595 3.92744
719 1 -1.1104 1.12003 28.6615 6.71667
723 1 -1.1104 1.117 25.8707 6.71619
876 1 -1.1104 3.90979 28.6602 6.7162
729 1 -1.1104 6.69697 25.869 3.92744
735 1 -1.1104 6.69383 23.0782 3.92655
728 1 -1.1104 6.6967 25.8684 1.13712
9855 2 2.2208 13.6863 41.2375 8.10579
721 1 -1.1104 3.90709 25.8697 6.7167
720 1 -1.1104 1.11444 23.0795 6.71649
734 1 -1.1104 6.70011 28.6603 6.71716
759 1 -1.1104 6.72944 48.0575 9.38755
733 1 -1.1104 6.69986 28.6594 3.92683
730 1 -1.1104 6.69678 25.8697 6.71611
731 1 -1.1104 6.69388 23.0778 1.1377
732 1 -1.1104 6.69996 28.659 1.13813
736 2 2.2208 10.8798 24.4772 5.32196
737 2 2.2208 10.886 30.0598 5.32265
738 1 -1.1104 12.2758 25.87 1.13707
739 1 -1.1104 12.2763 25.8711 3.92785
740 1 -1.1104 12.273 23.0791 1.13778
741 1 -1.1104 12.2791 28.6608 1.13811
742 2 2.2208 10.8827 27.2671 2.53261
743 1 -1.1104 12.2729 23.0799 3.9267
744 1 -1.1104 12.279 28.662 3.9272
745 1 -1.1104 9.48651 25.8691 1.13794
746 2 2.2208 8.09019 24.4752 2.53226
747 2 2.2208 8.09648 30.0569 2.53288
748 1 -1.1104 9.48644 25.8697 3.92676
749 2 2.2208 8.09336 27.267 5.32198
750 1 -1.1104 9.4834 23.0783 1.13696
751 1 -1.1104 9.48937 28.6596 1.1373
752 1 -1.1104 9.48369 23.0789 3.92744
753 1 -1.1104 9.48991 28.6605 3.92798
754 1 -1.1104 9.48963 28.6618 6.71652
757 1 -1.1104 12.2759 25.873 6.71655
902 1 -1.1104 9.48353 23.0799 6.71613
755 1 -1.1104 9.48689 25.8711 6.71729
756 1 -1.1104 12.2798 28.6647 6.71816
9569 2 2.2208 13.6691 24.4771 2.53236
901 1 -1.1104 6.69407 23.079 6.71677
904 1 -1.1104 12.2733 23.0814 6.71719
9718 2 2.2208 13.6795 41.2113 2.51968
760 2 2.2208 5.31573 35.6391 5.32258
761 1 -1.1104 1.12361 31.4503 1.13729
762 1 -1.1104 1.13219 37.0312 1.13731
763 1 -1.1104 1.12373 31.4511 3.92749
764 1 -1.1104 1.13243 37.032 3.92808
765 1 -1.1104 1.12772 34.241 1.13838
766 2 2.2208 5.31088 32.8474 2.53319
767 2 2.2208 5.32178 38.4314 2.53439
768 1 -1.1104 1.12743 34.2415 3.92674
769 1 -1.1104 3.91356 31.4496 1.13833
770 1 -1.1104 3.9219 37.0313 1.13959
771 2 2.2208 2.52672 35.6384 2.53314
772 1 -1.1104 3.91336 31.4499 3.92689
773 1 -1.1104 3.92185 37.0307 3.9268
774 2 2.2208 2.52132 32.848 5.32191
775 2 2.2208 2.53451 38.4298 5.32177
776 1 -1.1104 3.91709 34.24 1.1378
777 1 -1.1104 3.91734 34.2404 3.92813
779 1 -1.1104 6.71116 37.0302 3.92886
789 1 -1.1104 6.7069 34.2398 3.92721
786 1 -1.1104 6.70298 31.4494 1.13768
933 1 -1.1104 1.12288 31.4523 6.71637
930 1 -1.1104 1.13172 37.0321 6.71579
929 1 -1.1104 3.91321 31.4504 6.71702
783 1 -1.1104 6.71095 37.0311 1.13836
784 1 -1.1104 3.92162 37.0301 6.71789
1377 2 2.2208 2.52256 46.7702 13.6812
983 1 -1.1104 9.52387 45.4289 12.4463
788 1 -1.1104 6.70696 34.2402 1.1392
814 1 -1.1104 6.70308 31.4503 6.7163
9753 2 2.2208 13.6806 35.6407 2.53323
787 1 -1.1104 6.70344 31.4497 3.92794
792 2 2.2208 10.8924 35.6427 5.32372
793 1 -1.1104 12.282 31.4513 1.13744
794 1 -1.1104 12.2888 37.0319 1.13807