ITEM: TIMESTEP
367
ITEM: NUMBER OF ATOMS
17720
ITEM: BOX BOUNDS pp pp pp
-2.7717828229332220e-01 2.7617178282293317e+01
-3.4472205766305355e+00 3.3152722057663055e+02
-2.7717827830221448e-01 2.7617178278302212e+01
ITEM: ATOMS id type q x y z
1 2 2.2208 5.27395 2.13204 5.31236
2 1 -1.1104 1.08624 -2.05382 1.12724
3 1 -1.1104 1.0907 3.5254 1.12808
4 1 -1.1104 1.08636 -2.05387 3.9172
5 1 -1.1104 1.09073 3.52545 3.91797
6 1 -1.1104 1.0886 0.735798 1.1282
7 2 2.2208 5.27174 -0.657574 2.52248
8 1 -1.1104 1.08849 0.735799 3.91723
9 1 -1.1104 3.87587 -2.05383 1.12775
10 1 -1.1104 3.88029 3.52524 1.12857
11 2 2.2208 2.4844 2.13206 2.52292
12 1 -1.1104 3.87576 -2.05382 3.91673
13 1 -1.1104 3.88019 3.5253 3.9176
14 2 2.2208 2.48216 -0.657528 5.31195
15 2 2.2208 2.48651 4.92174 5.31262
16 1 -1.1104 3.87803 0.735694 1.12775
17 1 -1.1104 3.87815 0.735737 3.91771
18 2 2.2208 5.27606 4.92152 2.52325
328 1 -1.1104 12.261 20.2659 12.2873
23 1 -1.1104 3.878 0.735812 6.70664
171 1 -1.1104 3.87588 -2.05381 6.70664
25 1 -1.1104 1.08625 -2.05393 6.70613
175 1 -1.1104 1.09063 3.52549 6.70695
30 1 -1.1104 6.66976 3.52513 1.12811
22 1 -1.1104 3.88024 3.5254 6.70746
329 2 2.2208 8.07361 16.0808 10.8924
292 1 -1.1104 6.6778 14.6842 9.49788
315 2 2.2208 13.6464 7.71184 8.10238
141 1 -1.1104 12.2589 17.4756 12.2876
32 1 -1.1104 6.66763 0.735703 3.91717
33 1 -1.1104 6.6653 -2.0539 1.12723
20 1 -1.1104 6.66545 -2.05386 3.91717
31 1 -1.1104 6.66769 0.735599 1.12816
34 1 -1.1104 6.66988 3.52526 3.91803
36 2 2.2208 10.8531 2.13209 5.31219
37 1 -1.1104 12.2444 -2.05402 1.1271
38 1 -1.1104 12.2488 3.52537 1.12794
39 1 -1.1104 12.2445 -2.05396 3.91704
40 1 -1.1104 12.2489 3.52544 3.9179
41 1 -1.1104 12.2467 0.735676 1.128
42 2 2.2208 10.8509 -0.657651 2.5223
43 1 -1.1104 12.2467 0.73575 3.91694
44 1 -1.1104 9.45498 -2.05398 1.12763
45 1 -1.1104 9.45937 3.52519 1.12851
46 2 2.2208 8.06353 2.13192 2.52285
47 1 -1.1104 9.4549 -2.05393 3.91661
48 1 -1.1104 9.45931 3.52529 3.91752
49 2 2.2208 8.06131 -0.657558 5.31184
50 1 -1.1104 9.45712 0.735602 1.12758
51 1 -1.1104 9.45731 0.735646 3.91754
52 2 2.2208 8.06558 4.92164 5.31268
53 2 2.2208 10.8551 4.92166 2.52317
196 1 -1.1104 6.66532 -2.05384 6.70611
208 1 -1.1104 9.45716 0.735797 6.70649
24 1 -1.1104 6.66974 3.52534 6.70701
203 1 -1.1104 9.45499 -2.05386 6.70655
207 1 -1.1104 12.2488 3.52558 6.7069
200 1 -1.1104 6.6677 0.735729 6.70706
56 1 -1.1104 12.2444 -2.05389 6.70598
206 1 -1.1104 9.45939 3.52539 6.70743
326 2 2.2208 10.8629 16.0811 8.10308
416 2 2.2208 13.6546 18.8724 13.6821
62 2 2.2208 5.27804 7.71126 5.31294
63 2 2.2208 5.28191 13.2906 5.31338
64 1 -1.1104 1.09472 9.10473 1.12861
65 1 -1.1104 1.09489 9.10487 3.91836
66 1 -1.1104 1.09285 6.31508 1.12873
67 1 -1.1104 1.09669 11.8944 1.1292
68 2 2.2208 5.27998 10.5008 2.52368
69 1 -1.1104 1.09279 6.31514 3.91775
70 1 -1.1104 1.09672 11.8946 3.9183
71 1 -1.1104 3.88432 9.10444 1.12907
72 2 2.2208 2.48858 7.71133 2.52339
73 2 2.2208 2.49237 13.2907 2.52388
74 1 -1.1104 3.88426 9.10455 3.9181
75 2 2.2208 2.49059 10.5011 5.31306
76 1 -1.1104 3.8823 6.31481 1.12844
77 1 -1.1104 3.88609 11.894 1.12886
78 1 -1.1104 3.88232 6.31493 3.91827
79 1 -1.1104 3.88627 11.8942 3.91868
230 1 -1.1104 12.2568 14.6853 12.2868
232 1 -1.1104 3.88223 6.31502 6.7073
86 1 -1.1104 3.88626 11.8943 6.7078
231 1 -1.1104 3.88436 9.10469 6.70798
82 1 -1.1104 1.09688 11.8947 6.70806
319 2 2.2208 13.6443 4.922 10.8914
80 1 -1.1104 6.67563 11.894 1.12929
92 1 -1.1104 6.67379 9.10452 3.9186
84 1 -1.1104 6.67177 6.31488 3.91793
81 1 -1.1104 1.09486 9.10495 6.70745
257 1 -1.1104 6.67183 6.31494 6.70781
91 1 -1.1104 6.67189 6.31472 1.12892
93 1 -1.1104 6.67562 11.8941 3.91835
90 1 -1.1104 6.67377 9.10435 1.12875
94 2 2.2208 10.857 7.71147 5.313
95 2 2.2208 10.8608 13.291 5.31343
96 1 -1.1104 12.2526 9.10481 1.12872
97 1 -1.1104 12.2527 9.10489 3.91866
98 1 -1.1104 12.2508 6.31507 1.12885
99 1 -1.1104 12.2545 11.8946 1.12944
100 2 2.2208 10.8589 10.5011 2.52382
101 1 -1.1104 12.2507 6.31514 3.91786
102 1 -1.1104 12.2545 11.8947 3.9184
103 1 -1.1104 9.46328 9.10451 1.12921
104 2 2.2208 8.06756 7.71117 2.52355
105 2 2.2208 8.07126 13.2905 2.52393
106 1 -1.1104 9.46318 9.1046 3.91821
107 2 2.2208 8.06945 10.501 5.31322
108 1 -1.1104 9.46128 6.31484 1.12844
109 1 -1.1104 9.46504 11.8942 1.12893
110 1 -1.1104 9.46137 6.31491 3.91836
111 1 -1.1104 9.46512 11.8943 3.91883
264 1 -1.1104 9.46328 9.10476 6.70808
112 1 -1.1104 12.2526 9.10508 6.70759
258 1 -1.1104 6.67579 11.8942 6.70826
260 1 -1.1104 6.67373 9.10457 6.70764
263 1 -1.1104 9.46123 6.31506 6.70738
265 1 -1.1104 9.46514 11.8945 6.70779
261 1 -1.1104 12.2508 6.31529 6.7078
266 1 -1.1104 12.2547 11.8949 6.70828
54 2 2.2208 13.6401 -0.657558 10.8906
174 2 2.2208 13.6464 7.71167 2.52352
256 2 2.2208 13.6543 18.8717 8.10357
115 2 2.2208 5.28575 18.8697 5.31372
116 1 -1.1104 1.09845 14.684 1.1291
117 1 -1.1104 1.10227 20.2631 1.12956
118 1 -1.1104 1.09859 14.6842 3.91887
119 1 -1.1104 1.10237 20.2634 3.91938
120 1 -1.1104 1.10038 17.4736 1.12965
121 2 2.2208 5.28371 16.08 2.52411
122 2 2.2208 5.28786 21.6588 2.52455
123 1 -1.1104 1.10027 17.4739 3.91885
124 1 -1.1104 3.88801 14.6836 1.1294
125 1 -1.1104 3.89196 20.2625 1.12982
126 2 2.2208 2.49612 18.8698 2.52433
127 1 -1.1104 3.888 14.6838 3.91856
128 1 -1.1104 3.89185 20.2627 3.91889
129 2 2.2208 2.49423 16.0804 5.31356
130 2 2.2208 2.49823 21.6595 5.31399
131 1 -1.1104 3.88981 17.4731 1.12922
132 1 -1.1104 3.88992 17.4733 3.91908
133 1 -1.1104 1.09853 14.6844 6.70801
314 1 -1.1104 6.67758 14.6838 6.70801
290 1 -1.1104 1.10228 20.2636 6.70847
140 1 -1.1104 3.88988 17.4735 6.70813
295 1 -1.1104 3.88814 14.684 6.70833
317 2 2.2208 13.6424 2.13223 8.10156
135 1 -1.1104 6.6816 20.2626 3.9194
147 1 -1.1104 6.67945 17.473 1.12969
138 1 -1.1104 6.67955 17.4735 6.70859
144 1 -1.1104 6.67755 14.6837 3.91898
136 1 -1.1104 6.67739 14.6836 1.12904
145 1 -1.1104 6.67938 17.4732 3.91871
137 1 -1.1104 6.68145 20.2624 1.12942
148 2 2.2208 10.8648 18.8704 5.31402
149 1 -1.1104 12.2563 14.6842 1.12918
150 1 -1.1104 12.2605 20.2634 1.12967
151 1 -1.1104 12.2565 14.6844 3.91915
152 1 -1.1104 12.2607 20.2638 3.91989
153 1 -1.1104 12.2584 17.4739 1.13
154 2 2.2208 10.8627 16.0805 2.52427
155 2 2.2208 10.867 21.6596 2.52485
156 1 -1.1104 12.2584 17.4741 3.91894
157 1 -1.1104 9.46694 14.6838 1.12961
158 1 -1.1104 9.47114 20.2628 1.13013
159 2 2.2208 8.07525 18.8696 2.52441
160 1 -1.1104 9.46693 14.6839 3.91858
161 1 -1.1104 9.47107 20.263 3.91903
162 2 2.2208 8.07325 16.0803 5.31361
163 2 2.2208 8.07756 21.6594 5.31409
164 1 -1.1104 9.4689 17.4733 1.12933
165 1 -1.1104 9.46903 17.4736 3.91936
169 1 -1.1104 9.46899 17.4738 6.7082
143 1 -1.1104 9.46714 14.6842 6.70853
168 1 -1.1104 12.2565 14.6847 6.70803
146 1 -1.1104 9.47131 20.2635 6.7091
166 1 -1.1104 12.2606 20.2643 6.70874
167 1 -1.1104 12.2586 17.4746 6.70894
293 1 -1.1104 6.68156 20.2629 6.70827
176 1 -1.1104 1.08854 0.735797 6.70711
201 2 2.2208 8.07786 21.6604 10.8927
320 1 -1.1104 9.46947 17.4745 12.2868
142 2 2.2208 13.6524 16.082 10.8925
21 2 2.2208 13.6566 21.6626 10.8932
177 2 2.2208 5.27379 2.13216 10.8911
178 1 -1.1104 1.08628 -2.05394 12.285
179 1 -1.1104 1.09045 3.5257 12.2857
180 1 -1.1104 1.08637 -2.05394 9.49604
181 1 -1.1104 1.09063 3.52557 9.4968
182 1 -1.1104 1.08843 0.735881 12.2858
183 2 2.2208 5.2717 -0.657528 8.10133
184 2 2.2208 5.27597 4.92175 8.1021
185 1 -1.1104 1.0884 0.735805 9.49602
186 1 -1.1104 3.87585 -2.05391 12.2854
187 1 -1.1104 3.88006 3.52557 12.2862
188 2 2.2208 2.4843 2.13216 8.10175
189 1 -1.1104 3.87577 -2.05387 9.49557
190 1 -1.1104 3.88007 3.52552 9.49641
191 2 2.2208 2.48212 -0.657546 10.8907
192 2 2.2208 2.48634 4.92198 10.8915
193 1 -1.1104 3.87787 0.735834 12.2853
194 1 -1.1104 3.87804 0.735805 9.49649
199 1 -1.1104 6.66951 3.52552 12.2858
294 1 -1.1104 6.68187 20.2634 9.49818
291 1 -1.1104 6.6779 14.6843 12.2868
285 2 2.2208 13.6484 10.5018 10.892
324 1 -1.1104 9.46743 14.6847 12.2873
321 2 2.2208 10.8672 21.6608 8.10374
205 1 -1.1104 6.66748 0.735789 12.2858
197 1 -1.1104 6.66974 3.52542 9.49685
198 1 -1.1104 6.6675 0.735792 9.49599
286 2 2.2208 13.6503 13.2916 8.10288
195 1 -1.1104 6.66538 -2.05387 9.49605
204 1 -1.1104 6.66525 -2.0539 12.285
57 1 -1.1104 12.2468 0.735797 6.70689
209 2 2.2208 10.8528 2.13218 10.8911
210 1 -1.1104 12.2442 -2.05385 12.2849
211 1 -1.1104 12.2485 3.52564 12.2858
212 1 -1.1104 12.2444 -2.05389 9.49592
213 1 -1.1104 12.2487 3.52555 9.49679
214 1 -1.1104 12.2465 0.735826 12.2858
215 2 2.2208 10.8508 -0.657533 8.10121
216 1 -1.1104 12.2465 0.735866 9.49587
217 1 -1.1104 9.45487 -2.05381 12.2855
218 1 -1.1104 9.45914 3.52556 12.2862
219 2 2.2208 8.06346 2.13209 8.10172
220 1 -1.1104 9.4548 -2.05383 9.49552
221 1 -1.1104 9.45916 3.52552 9.49638
222 2 2.2208 8.06116 -0.65754 10.8907
223 2 2.2208 8.0654 4.92188 10.8915
224 1 -1.1104 9.45691 0.735874 12.2854
225 1 -1.1104 9.45713 0.735782 9.49643
226 2 2.2208 10.855 4.92187 8.10211
227 2 2.2208 13.6502 13.2912 2.52407
170 2 2.2208 13.6565 21.6609 5.31453
327 1 -1.1104 12.2586 17.4751 9.49772
88 1 -1.1104 9.46932 17.4744 9.49811
58 1 -1.1104 6.682 20.2636 12.2869
202 2 2.2208 13.6542 18.8707 2.52466
26 1 -1.1104 6.67996 17.474 12.2873
87 2 2.2208 13.6425 2.13217 2.52266
60 2 2.2208 13.6403 -0.657581 5.31165
85 1 -1.1104 1.09284 6.31524 6.70758
29 2 2.2208 13.6522 16.0812 5.31379
233 2 2.2208 5.27791 7.71154 10.8919
234 2 2.2208 5.28207 13.2909 10.8923
235 1 -1.1104 1.09466 9.10514 12.2864
236 1 -1.1104 1.09488 9.10505 9.49731
237 1 -1.1104 1.09264 6.31545 12.2865
238 1 -1.1104 1.09673 11.8948 12.287
239 2 2.2208 5.28003 10.5011 8.10265
240 1 -1.1104 1.09268 6.31532 9.4966
241 1 -1.1104 1.09678 11.8947 9.49716
242 1 -1.1104 3.88419 9.10496 12.287
243 2 2.2208 2.48854 7.71155 8.10229
244 2 2.2208 2.49251 13.2909 8.10276
245 1 -1.1104 3.88424 9.10484 9.49705
246 2 2.2208 2.49054 10.5014 10.892
247 1 -1.1104 3.88201 6.31528 12.2862
248 1 -1.1104 3.88626 11.8946 12.2867
249 1 -1.1104 3.88223 6.31519 9.49717
250 1 -1.1104 3.88637 11.8945 9.49766
259 1 -1.1104 6.67379 9.1048 9.49752
173 2 2.2208 13.6483 10.5016 5.31325
254 1 -1.1104 6.67362 9.10493 12.2865
325 2 2.2208 10.8651 18.8714 10.8927
323 1 -1.1104 9.47135 20.2641 9.4978
252 1 -1.1104 6.67578 11.8945 9.49727
262 1 -1.1104 6.67162 6.31521 12.2867
253 1 -1.1104 6.67583 11.8946 12.2872
251 1 -1.1104 6.67165 6.31512 9.4968
267 1 -1.1104 9.46533 11.8948 9.49771
268 1 -1.1104 9.46127 6.31523 9.49726
269 1 -1.1104 9.46529 11.8949 12.2866
270 1 -1.1104 9.46106 6.31535 12.2862
271 2 2.2208 8.06949 10.5013 10.8921
272 1 -1.1104 9.46319 9.10499 9.49702
273 2 2.2208 8.07147 13.2908 8.10286
274 2 2.2208 8.06749 7.71143 8.10242
275 2 2.2208 10.8569 7.71175 10.8918
276 2 2.2208 10.861 13.2914 10.8922
277 1 -1.1104 12.2526 9.10534 12.2863
278 1 -1.1104 12.2527 9.1052 9.49746
279 1 -1.1104 12.2506 6.31544 12.2866
280 1 -1.1104 12.2548 11.8953 12.287
281 2 2.2208 10.8589 10.5014 8.10262
282 1 -1.1104 12.2506 6.31539 9.49677
283 1 -1.1104 12.2547 11.8951 9.49717
284 1 -1.1104 9.46318 9.10509 12.2869
322 1 -1.1104 9.47167 20.2646 12.2877
139 1 -1.1104 1.10036 17.474 6.70857
134 1 -1.1104 3.89201 20.263 6.70869
330 2 2.2208 13.6445 4.92198 5.31257
623 2 2.2208 5.28416 16.0806 13.6817
255 1 -1.1104 12.2567 14.6851 9.49796
536 2 2.2208 2.49653 18.8702 13.6817
359 2 2.2208 8.07579 18.8706 13.6818
296 1 -1.1104 1.10064 17.474 12.2872
297 2 2.2208 2.49443 16.0806 10.8923
298 2 2.2208 2.49846 21.6599 10.8926
299 1 -1.1104 3.89029 17.4738 12.2868
300 1 -1.1104 3.89231 20.2634 12.2873
301 1 -1.1104 3.88831 14.6842 12.2872
302 1 -1.1104 1.10244 20.2637 9.49812
303 1 -1.1104 1.10042 17.474 9.4976
304 2 2.2208 5.28803 21.6595 8.10332
305 1 -1.1104 1.09863 14.6844 9.4977
306 2 2.2208 5.28388 16.0804 8.10295
307 1 -1.1104 1.10258 20.2637 12.287
308 1 -1.1104 1.09866 14.6844 12.2867
309 2 2.2208 5.28606 18.8702 10.8924
310 1 -1.1104 3.89207 20.2633 9.49763
311 2 2.2208 2.49621 18.8702 8.10315
312 1 -1.1104 3.89011 17.4738 9.49788
313 1 -1.1104 3.88818 14.6841 9.49739
421 2 2.2208 5.28829 21.6598 13.6819
289 1 -1.1104 6.67967 17.4738 9.49745
114 1 -1.1104 12.2609 20.2653 9.49876
535 2 2.2208 10.8674 21.6617 13.6822
318 1 -1.1104 9.46722 14.6845 9.4974
61 2 2.2208 8.07544 18.8703 8.10319
333 2 2.2208 2.48215 -0.657503 -0.26699
337 2 2.2208 13.6445 4.92184 -0.266382
332 2 2.2208 2.48655 4.9216 -0.266245
59 2 2.2208 13.652 16.0808 -0.265156
228 2 2.2208 13.6483 10.5013 -0.26565
338 2 2.2208 5.27391 2.13191 -0.266592
334 2 2.2208 8.06124 -0.65768 -0.267082
331 2 2.2208 8.06557 4.92143 -0.266243
336 2 2.2208 10.8529 2.13194 -0.266721
335 2 2.2208 13.6403 -0.657674 -0.267201
113 2 2.2208 5.28178 13.2903 -0.265583
316 2 2.2208 5.27811 7.71105 -0.265919
27 2 2.2208 2.49046 10.5009 -0.265776
172 2 2.2208 10.8607 13.2907 -0.265423
19 2 2.2208 8.06948 10.5008 -0.265653
28 2 2.2208 10.857 7.71131 -0.265923
288 2 2.2208 8.07315 16.08 -0.26531
287 2 2.2208 2.49415 16.08 -0.265402
339 2 2.2208 5.27367 2.13216 16.4698
340 1 -1.1104 1.08622 -2.05393 17.8637
341 1 -1.1104 1.09038 3.52546 17.8645
342 1 -1.1104 1.08635 -2.05394 15.0748
343 1 -1.1104 1.09046 3.52564 15.0755
344 1 -1.1104 1.08833 0.735763 17.8645
345 2 2.2208 5.27156 -0.65754 19.2589
346 1 -1.1104 1.08829 0.735862 15.0747
347 1 -1.1104 3.87579 -2.05384 17.8642
348 1 -1.1104 3.87999 3.52544 17.8649
349 2 2.2208 2.48415 2.13209 19.2592
350 1 -1.1104 3.87574 -2.05391 15.0744
351 1 -1.1104 3.8799 3.52556 15.0751
352 2 2.2208 2.48205 -0.657538 16.4694
353 1 -1.1104 3.8778 0.735787 17.864
354 1 -1.1104 3.87788 0.73583 15.0751
355 2 2.2208 2.4862 4.92189 16.4703
356 2 2.2208 5.27578 4.92169 19.2597
360 1 -1.1104 6.66952 3.52553 15.0756
35 2 2.2208 8.07738 21.6588 27.6295
89 2 2.2208 13.6564 21.66 27.6297
364 1 -1.1104 1.09054 3.52538 20.6544
512 1 -1.1104 1.08829 0.735746 20.6535
366 1 -1.1104 3.8757 -2.05385 20.6532
510 1 -1.1104 1.08628 -2.05387 20.6536
511 1 -1.1104 3.87998 3.52531 20.6539
394 1 -1.1104 6.66958 3.52532 20.6544
653 1 -1.1104 9.471 20.2628 23.4453
370 1 -1.1104 6.66734 0.735834 15.0747
393 1 -1.1104 6.66737 0.735722 20.6536
565 1 -1.1104 9.46892 17.4733 26.2347
659 2 2.2208 13.6541 18.8704 24.8398
371 1 -1.1104 6.66534 -2.05383 15.0749
369 1 -1.1104 6.6674 0.73579 17.8646
358 1 -1.1104 6.66945 3.52542 17.8645
357 1 -1.1104 6.66524 -2.05386 17.8638
372 2 2.2208 10.8527 2.13227 16.4699
373 1 -1.1104 12.2442 -2.05388 17.8638
374 1 -1.1104 12.2484 3.52568 17.8646
375 1 -1.1104 12.2443 -2.05385 15.0748
376 1 -1.1104 12.2485 3.52565 15.0756
377 1 -1.1104 12.2464 0.735894 17.8647
378 2 2.2208 10.8506 -0.657557 19.2589
379 2 2.2208 10.8548 4.92192 19.2597
380 1 -1.1104 12.2463 0.735894 15.0748
381 1 -1.1104 9.45484 -2.05384 17.8643
382 1 -1.1104 9.45902 3.52557 17.865
383 2 2.2208 8.06322 2.1321 19.2593
384 1 -1.1104 9.45474 -2.05381 15.0744
385 1 -1.1104 9.45897 3.52563 15.0752
386 2 2.2208 8.06109 -0.657492 16.4695
387 2 2.2208 8.06524 4.92189 16.4703
388 1 -1.1104 9.45685 0.735841 17.8642
389 1 -1.1104 9.45693 0.735895 15.0753
538 1 -1.1104 12.2463 0.735754 20.6536
395 1 -1.1104 9.45902 3.52538 20.654
546 1 -1.1104 12.2443 -2.05398 20.6536
542 1 -1.1104 9.45477 -2.05392 20.6532
539 1 -1.1104 12.2485 3.52551 20.6545
544 1 -1.1104 9.45695 0.735714 20.6541
392 2 2.2208 13.6443 4.92192 22.0491
396 2 2.2208 5.27778 7.7115 16.4708
397 2 2.2208 5.28201 13.2908 16.471
398 1 -1.1104 1.09458 9.10486 17.8654
399 1 -1.1104 1.09458 9.10507 15.0763
400 1 -1.1104 1.09254 6.31519 17.8654
401 1 -1.1104 1.09659 11.8946 17.8659
402 2 2.2208 5.2799 10.501 19.2604
403 1 -1.1104 1.09247 6.31535 15.0756
404 1 -1.1104 1.09663 11.8947 15.076
405 1 -1.1104 3.88407 9.10473 17.8659
406 2 2.2208 2.48835 7.71138 19.2602
407 2 2.2208 2.49235 13.2907 19.2604
408 1 -1.1104 3.88405 9.10493 15.076
409 2 2.2208 2.49035 10.5012 16.471
410 1 -1.1104 3.88197 6.31507 17.8651
411 1 -1.1104 3.88617 11.8943 17.8655
412 1 -1.1104 3.88201 6.31526 15.0761
413 1 -1.1104 3.88618 11.8945 15.0765
420 1 -1.1104 3.88417 9.10451 20.6549
415 1 -1.1104 3.88611 11.8941 20.6554
570 1 -1.1104 1.09258 6.315 20.6544
418 1 -1.1104 6.67569 11.8944 17.866
572 1 -1.1104 6.67567 11.8941 20.6549
422 2 2.2208 13.6423 2.13205 24.8382
571 1 -1.1104 1.09467 9.1047 20.6552
574 1 -1.1104 3.88216 6.31494 20.6549
575 1 -1.1104 1.09664 11.8943 20.6549
654 2 2.2208 13.6401 -0.657647 22.0483
414 1 -1.1104 6.67356 9.10474 17.8654
423 1 -1.1104 6.67576 11.8946 15.0761
424 1 -1.1104 6.67359 9.10488 15.0764
419 1 -1.1104 6.67145 6.31522 15.0756
425 1 -1.1104 6.67154 6.31508 17.8655
426 2 2.2208 10.8568 7.71177 16.4706
427 2 2.2208 10.861 13.2913 16.471
428 1 -1.1104 12.2526 9.10521 17.8651
429 1 -1.1104 12.2526 9.10528 15.0762
430 1 -1.1104 12.2505 6.31543 17.8654
431 1 -1.1104 12.2546 11.895 17.8658
432 2 2.2208 10.8589 10.5013 19.2602
433 1 -1.1104 12.2505 6.31547 15.0755
434 1 -1.1104 12.2547 11.8952 15.0759
435 1 -1.1104 9.46309 9.10494 17.8657
436 2 2.2208 8.06733 7.71142 19.2601
437 2 2.2208 8.07145 13.2907 19.2605
438 1 -1.1104 9.46306 9.1051 15.0758
439 2 2.2208 8.06939 10.5013 16.4709
440 1 -1.1104 9.461 6.31525 17.865
441 1 -1.1104 9.46522 11.8947 17.8654
442 1 -1.1104 9.46104 6.31534 15.076
443 1 -1.1104 9.46529 11.8948 15.0765
450 1 -1.1104 12.2546 11.8948 20.6548
452 1 -1.1104 9.46514 11.8944 20.6554
449 1 -1.1104 6.67368 9.10454 20.6553
448 1 -1.1104 6.67159 6.31489 20.6545
445 1 -1.1104 9.46113 6.31507 20.6549
451 1 -1.1104 12.2506 6.31525 20.6543
604 1 -1.1104 9.46316 9.10475 20.6547
602 1 -1.1104 12.2526 9.10498 20.655
658 1 -1.1104 12.2563 14.6842 23.4446
514 2 2.2208 10.8626 16.0804 24.8396
650 2 2.2208 13.6463 7.71181 19.2599
667 2 2.2208 13.6464 7.71157 24.8389
456 2 2.2208 5.28612 18.8699 16.4711
457 1 -1.1104 1.09863 14.6842 17.8655
458 1 -1.1104 1.10272 20.2633 17.8657
459 1 -1.1104 1.09867 14.6843 15.0764
460 1 -1.1104 1.10273 20.2636 15.0767
461 1 -1.1104 1.10066 17.4738 17.8659
462 2 2.2208 5.2839 16.0801 19.2604
463 2 2.2208 5.28799 21.659 19.2607
464 1 -1.1104 1.10072 17.474 15.0762
465 1 -1.1104 3.88816 14.6839 17.8659
466 1 -1.1104 3.89225 20.2629 17.8661
467 2 2.2208 2.49641 18.8697 19.2605
468 1 -1.1104 3.88831 14.6842 15.0761
469 1 -1.1104 3.89239 20.2632 15.0762
470 2 2.2208 2.49449 16.0805 16.471
471 2 2.2208 2.49861 21.6595 16.4712
472 1 -1.1104 3.89026 17.4735 17.8655
473 1 -1.1104 3.89035 17.4737 15.0765
484 1 -1.1104 6.68188 20.263 17.8656
625 1 -1.1104 1.10049 17.4735 20.655
624 1 -1.1104 3.88807 14.6837 20.6549
480 1 -1.1104 3.89 17.4731 20.6554
627 1 -1.1104 1.09849 14.6839 20.6553
474 1 -1.1104 6.68203 20.2635 15.0768
475 1 -1.1104 6.6779 14.6842 15.0766
507 1 -1.1104 12.2586 17.4743 20.6551
486 1 -1.1104 6.67757 14.6837 20.6554
487 1 -1.1104 6.67781 14.684 17.8655
485 1 -1.1104 6.67978 17.4735 17.866
478 1 -1.1104 6.68002 17.4738 15.0761
488 2 2.2208 10.8652 18.8712 16.4713
489 1 -1.1104 12.2567 14.6849 17.8655
490 1 -1.1104 12.2609 20.265 17.8657
491 1 -1.1104 12.2568 14.6852 15.0767
492 1 -1.1104 12.261 20.2657 15.0771
493 1 -1.1104 12.2588 17.4749 17.8662
494 2 2.2208 10.8629 16.0808 19.2606
495 2 2.2208 10.867 21.6604 19.2608
496 1 -1.1104 12.259 17.4754 15.0763
497 1 -1.1104 9.46729 14.6843 17.8661
498 1 -1.1104 9.47134 20.2638 17.8663
499 2 2.2208 8.07545 18.8699 19.2606
500 1 -1.1104 9.46744 14.6846 15.0761
501 1 -1.1104 9.47164 20.2644 15.0763
502 2 2.2208 8.07365 16.0806 16.4711
503 2 2.2208 8.07779 21.66 16.4713
504 1 -1.1104 9.46938 17.4741 17.8656
505 1 -1.1104 9.46953 17.4745 15.0768
476 1 -1.1104 6.67956 17.4732 20.655
655 1 -1.1104 9.46905 17.4736 20.6556
656 1 -1.1104 12.2605 20.264 20.6558
506 1 -1.1104 9.47115 20.2632 20.6552
479 1 -1.1104 6.68157 20.2626 20.6557
508 1 -1.1104 12.2565 14.6845 20.6556
509 1 -1.1104 9.4671 14.6841 20.655
365 1 -1.1104 3.87789 0.735745 20.654
648 1 -1.1104 6.67935 17.4729 26.2341
516 2 2.2208 5.27374 2.13197 22.0487
517 1 -1.1104 1.08619 -2.0538 23.4426
518 1 -1.1104 1.09058 3.52534 23.4434
519 1 -1.1104 1.08632 -2.05378 26.2326
520 1 -1.1104 1.09075 3.5254 26.2334
521 1 -1.1104 1.08847 0.735801 23.4435
522 2 2.2208 5.27161 -0.657592 24.8378
523 1 -1.1104 1.08847 0.735811 26.2325
524 1 -1.1104 3.87578 -2.05383 23.4431
525 1 -1.1104 3.88017 3.52525 23.4439
526 2 2.2208 2.48432 2.13204 24.8382
527 1 -1.1104 3.8757 -2.0538 26.2322
528 1 -1.1104 3.88017 3.52521 26.233
529 2 2.2208 2.48206 -0.657524 22.0483
530 1 -1.1104 3.87788 0.735695 23.443
531 1 -1.1104 3.87805 0.735708 26.233
532 2 2.2208 5.276 4.92146 24.8386
533 2 2.2208 2.48639 4.92162 22.0491
540 1 -1.1104 6.66748 0.735585 26.2325
368 2 2.2208 13.6483 10.5014 22.0496
417 2 2.2208 13.6501 13.291 24.8395
660 1 -1.1104 6.68145 20.2624 23.4447
537 1 -1.1104 6.66977 3.52512 26.2334
545 1 -1.1104 6.66536 -2.05391 26.2326
543 1 -1.1104 6.66959 3.52516 23.4434
453 1 -1.1104 12.2605 20.2635 23.4447
513 2 2.2208 13.64 -0.65753 16.4695
391 1 -1.1104 6.66532 -2.05385 20.6537
541 1 -1.1104 6.66524 -2.05393 23.4427
534 1 -1.1104 6.66748 0.735608 23.4435
547 2 2.2208 10.8527 2.13203 22.0488
548 1 -1.1104 12.2443 -2.05404 23.4426
549 1 -1.1104 12.2485 3.5254 23.4434
550 1 -1.1104 12.2444 -2.05406 26.2325
551 1 -1.1104 12.2487 3.52535 26.2333
552 1 -1.1104 12.2465 0.735665 23.4435
553 2 2.2208 10.8507 -0.657727 24.8378
554 1 -1.1104 12.2465 0.735613 26.2324
555 1 -1.1104 9.45488 -2.05404 23.4431
556 1 -1.1104 9.45914 3.52523 23.4439
557 2 2.2208 8.06334 2.13187 24.8382
558 1 -1.1104 9.45481 -2.05401 26.2321
559 1 -1.1104 9.45917 3.52517 26.2329
560 2 2.2208 8.06112 -0.657645 22.0483
561 1 -1.1104 9.45692 0.735553 23.443
562 1 -1.1104 9.4571 0.735572 26.233
563 2 2.2208 10.8549 4.92164 24.8386
564 2 2.2208 8.06538 4.92158 22.0492
444 2 2.2208 13.6503 13.2915 19.2604
567 2 2.2208 13.6563 21.6604 22.0503
361 2 2.2208 13.6521 16.081 22.0501
455 2 2.2208 10.8669 21.6593 24.84
626 2 2.2208 13.6442 4.92206 16.4702
566 1 -1.1104 12.2563 14.6842 26.2346
515 1 -1.1104 12.2583 17.4738 26.2342
597 2 2.2208 13.6543 18.8713 19.2608
568 2 2.2208 13.6565 21.6624 16.4715
576 2 2.2208 5.27798 7.71117 22.0496
577 2 2.2208 5.28183 13.2904 22.0499
578 1 -1.1104 1.09471 9.10456 23.4442
579 1 -1.1104 1.09477 9.10462 26.2339
580 1 -1.1104 1.09281 6.31496 23.4443
581 1 -1.1104 1.09658 11.8942 23.4447
582 2 2.2208 5.27999 10.5007 24.8393
583 1 -1.1104 1.09279 6.31496 26.2333
584 1 -1.1104 1.09654 11.8942 26.2338
585 1 -1.1104 3.8843 9.1044 23.4447
586 2 2.2208 2.48855 7.71118 24.839
587 2 2.2208 2.49227 13.2904 24.8393
588 1 -1.1104 3.88429 9.10436 26.2337
589 2 2.2208 2.49042 10.5009 22.0498
590 1 -1.1104 3.88222 6.31478 23.4439
591 1 -1.1104 3.88613 11.894 23.4444
592 1 -1.1104 3.88237 6.31476 26.2338
593 1 -1.1104 3.88612 11.894 26.2342
483 2 2.2208 13.6525 16.0818 16.4712
569 2 2.2208 13.6483 10.5018 16.4707
594 1 -1.1104 6.67181 6.31468 26.2334
595 1 -1.1104 6.67178 6.31477 23.4444
601 1 -1.1104 6.67564 11.894 23.4448
599 1 -1.1104 6.67561 11.8939 26.2339
596 2 2.2208 8.0752 18.8694 24.8397
664 2 2.2208 8.07325 16.0801 22.05
665 1 -1.1104 12.2605 20.2633 26.235
600 1 -1.1104 6.67389 9.1043 26.2341
603 1 -1.1104 6.67379 9.10439 23.4442
661 1 -1.1104 9.46694 14.6838 23.445
605 1 -1.1104 9.46326 9.10456 23.4446
606 1 -1.1104 12.2545 11.8945 26.2338
607 1 -1.1104 12.2507 6.31508 26.2332
608 2 2.2208 10.8589 10.501 24.8392
609 1 -1.1104 12.2545 11.8945 23.4448
610 1 -1.1104 12.2507 6.31512 23.4443
611 1 -1.1104 12.2527 9.1048 26.2341
612 1 -1.1104 12.2526 9.10483 23.4441
613 1 -1.1104 9.46511 11.8942 26.2343
614 1 -1.1104 9.46133 6.31481 26.2338
615 1 -1.1104 9.4651 11.8942 23.4444
616 1 -1.1104 9.46119 6.31488 23.4438
617 2 2.2208 8.06944 10.5009 22.0498
618 1 -1.1104 9.46326 9.1045 26.2336
619 2 2.2208 8.07127 13.2904 24.8394
620 2 2.2208 8.06756 7.71112 24.839
621 2 2.2208 10.8569 7.71145 22.0495
622 2 2.2208 10.8608 13.2908 22.05
477 1 -1.1104 1.10251 20.263 20.6556
668 2 2.2208 13.6421 2.13223 19.2593
598 1 -1.1104 9.47099 20.2627 26.2343
367 2 2.2208 8.07736 21.659 22.0504
83 2 2.2208 5.28568 18.8692 27.6292
481 1 -1.1104 3.89206 20.2626 20.6552
628 2 2.2208 2.4983 21.6589 22.0503
629 1 -1.1104 3.88984 17.473 23.4445
630 1 -1.1104 1.10034 17.4732 23.4449
631 1 -1.1104 3.8879 14.6835 26.2339
632 1 -1.1104 3.88987 17.4729 26.2344
633 2 2.2208 2.49611 18.8694 24.8396
634 1 -1.1104 3.89183 20.2623 26.2343
635 2 2.2208 5.28573 18.8693 22.0501
636 1 -1.1104 1.09841 14.6838 23.4444
637 1 -1.1104 1.10236 20.2627 23.4448
638 2 2.2208 5.28366 16.0798 24.8394
639 2 2.2208 5.28777 21.6585 24.8399
640 1 -1.1104 1.09847 14.6838 26.2343
641 1 -1.1104 1.10026 17.4733 26.2342
642 1 -1.1104 1.10239 20.2628 26.2347
643 1 -1.1104 3.88793 14.6835 23.4448
644 1 -1.1104 3.8919 20.2623 23.4452
645 2 2.2208 2.49421 16.08 22.0499
647 1 -1.1104 6.67942 17.473 23.445
662 1 -1.1104 6.67746 14.6836 23.4444
663 1 -1.1104 6.67742 14.6835 26.2344
229 2 2.2208 2.49825 21.6589 27.6295
55 2 2.2208 10.8647 18.8699 27.6294
652 1 -1.1104 9.46686 14.6838 26.234
454 1 -1.1104 9.46892 17.4734 23.4446
646 1 -1.1104 6.68147 20.2623 26.2348
651 2 2.2208 10.8647 18.8701 22.0502
657 1 -1.1104 12.2584 17.4739 23.4452
446 2 2.2208 13.6463 7.71191 13.6811
675 2 2.2208 13.6422 2.13222 13.6805
673 2 2.2208 5.27575 4.92192 13.6809
672 2 2.2208 5.2716 -0.657528 13.6801
669 2 2.2208 2.48417 2.13226 13.6804
670 2 2.2208 8.06323 2.13221 13.6805
649 2 2.2208 13.6504 13.2919 13.6816
674 2 2.2208 10.8548 4.922 13.6809
671 2 2.2208 10.8506 -0.657479 13.6801
482 2 2.2208 2.49248 13.291 13.6816
666 2 2.2208 5.27995 10.5013 13.6816
573 2 2.2208 2.48832 7.71171 13.6813
363 2 2.2208 10.8589 10.5016 13.6814
362 2 2.2208 8.07162 13.2911 13.6816
447 2 2.2208 8.06731 7.71165 13.6813
390 2 2.2208 10.8632 16.0814 13.6818
676 2 2.2208 5.29018 24.4484 5.31415
677 2 2.2208 5.29489 30.027 5.31448
678 1 -1.1104 1.10676 25.8421 1.13007
679 1 -1.1104 1.10674 25.8424 3.91977
680 1 -1.1104 1.10462 23.0525 1.13015
681 1 -1.1104 1.10927 28.6318 1.13071
682 2 2.2208 5.29244 27.2375 2.52508
683 1 -1.1104 1.10439 23.0529 3.9193
684 1 -1.1104 1.10893 28.6321 3.91974
685 1 -1.1104 3.89643 25.8412 1.13034
686 2 2.2208 2.50049 24.4486 2.52485
687 2 2.2208 2.50527 30.0279 2.52547
688 1 -1.1104 3.89626 25.8413 3.91934
689 2 2.2208 2.5028 27.2384 5.31435
690 1 -1.1104 3.89404 23.0519 1.12971
691 1 -1.1104 3.89858 28.6306 1.13024
692 1 -1.1104 3.89416 23.0521 3.91956
693 1 -1.1104 3.89866 28.6306 3.91985
844 1 -1.1104 1.10661 25.8427 6.70883
694 1 -1.1104 6.68831 28.6299 3.91947
699 1 -1.1104 1.10891 28.6321 6.70924
702 1 -1.1104 3.89644 25.8416 6.70906
845 1 -1.1104 3.8941 23.0523 6.70851
695 1 -1.1104 6.68838 28.6301 1.13065
707 1 -1.1104 6.68614 25.841 3.91988
708 1 -1.1104 6.68867 28.6303 6.70941
698 1 -1.1104 3.89862 28.6306 6.70879
849 1 -1.1104 1.10448 23.0532 6.70893
730 1 -1.1104 6.68614 25.8414 6.70868
962 2 2.2208 13.6467 46.7307 2.45285
696 1 -1.1104 6.68596 25.8409 1.12993
706 1 -1.1104 6.68379 23.0517 1.13022
705 1 -1.1104 6.68375 23.0518 3.91914
709 2 2.2208 10.8695 24.4497 5.31464
710 2 2.2208 10.8742 30.0288 5.31545
711 1 -1.1104 12.2652 25.842 1.13016
712 1 -1.1104 12.2655 25.8428 3.92057
713 1 -1.1104 12.263 23.0528 1.13059
714 1 -1.1104 12.2678 28.6312 1.13119
715 2 2.2208 10.8717 27.2384 2.52553
716 1 -1.1104 12.2629 23.0533 3.91953
717 1 -1.1104 12.2676 28.632 3.92017
718 1 -1.1104 9.47577 25.8413 1.13066
719 2 2.2208 8.07978 24.4483 2.52495
720 2 2.2208 8.08437 30.0268 2.52566
721 1 -1.1104 9.4757 25.8415 3.91951
722 2 2.2208 8.08224 27.2381 5.31453
723 1 -1.1104 9.47331 23.052 1.12979
724 1 -1.1104 9.4779 28.6302 1.13026
725 1 -1.1104 9.47357 23.0525 3.91996
726 1 -1.1104 9.47828 28.6307 3.92047
878 1 -1.1104 12.2653 25.8439 6.70937
876 1 -1.1104 9.47347 23.0529 6.70876
877 1 -1.1104 9.47825 28.6313 6.70916
875 1 -1.1104 9.4761 25.8424 6.70975
1581 1 -1.1104 12.442 48.0862 6.67053
1016 2 2.2208 -0.270977 41.1926 5.31245
734 2 2.2208 5.29975 35.6059 5.31501
735 1 -1.1104 1.11133 31.4217 1.13077
736 1 -1.1104 1.11616 37.0027 1.13108
737 1 -1.1104 1.11127 31.4218 3.92015
738 1 -1.1104 1.11561 37.0023 3.92004
739 1 -1.1104 1.11384 34.2119 1.13124
740 2 2.2208 5.29711 32.8166 2.52592
741 2 2.2208 5.30218 38.3968 2.52592
742 1 -1.1104 1.1134 34.2118 3.91994
743 1 -1.1104 3.90095 31.4202 1.1309
744 1 -1.1104 3.90541 37.0002 1.13129
745 2 2.2208 2.5104 35.6081 2.52611
746 1 -1.1104 3.90079 31.4199 3.91974
747 1 -1.1104 3.90497 36.9987 3.91959
748 2 2.2208 2.5077 32.8177 5.31465
749 2 2.2208 2.51378 38.3979 5.3143
750 1 -1.1104 3.90301 34.21 1.1309
751 1 -1.1104 3.90285 34.2093 3.92012
908 1 -1.1104 3.90532 36.9972 6.70924
759 1 -1.1104 1.1161 37.0008 6.70875
762 1 -1.1104 6.69437 36.9958 3.92004
756 1 -1.1104 1.11111 31.4217 6.70916
905 1 -1.1104 3.90083 31.4196 6.70925
755 1 -1.1104 1.11334 34.2114 6.70927
761 1 -1.1104 6.6904 31.4192 1.13057
757 1 -1.1104 6.69504 36.9982 1.1307
933 1 -1.1104 6.69073 31.4186 6.70889
754 1 -1.1104 3.90303 34.2083 6.70902
763 1 -1.1104 6.695 36.9934 6.70907
1004 1 -1.1104 12.3947 45.3981 9.42724
701 1 -1.1104 9.36383 48.0196 6.68534
752 1 -1.1104 6.69068 31.4189 3.92017
758 1 -1.1104 6.69279 34.2086 1.13136
753 1 -1.1104 6.69271 34.2074 3.9199
765 2 2.2208 10.8787 35.6076 5.31658
766 1 -1.1104 12.2698 31.42 1.13082
767 1 -1.1104 12.2744 36.9968 1.13074
768 1 -1.1104 12.2706 31.421 3.92153
769 1 -1.1104 12.2756 36.9964 3.92104
770 1 -1.1104 12.2726 34.2086 1.13152
771 2 2.2208 10.8761 32.8168 2.52668
772 2 2.2208 10.8781 38.3952 2.52714
773 1 -1.1104 12.2726 34.2091 3.92105
774 1 -1.1104 9.48044 31.4193 1.13129
775 1 -1.1104 9.48445 36.9975 1.13126
776 2 2.2208 8.08869 35.6059 2.52683
777 1 -1.1104 9.48036 31.4193 3.92006
778 1 -1.1104 9.48455 36.9958 3.92037
779 2 2.2208 8.0869 32.8165 5.31509
780 2 2.2208 8.09028 38.3949 5.31701
781 1 -1.1104 9.48231 34.2082 1.13118
782 1 -1.1104 9.48302 34.2081 3.92109
935 1 -1.1104 9.48295 34.2071 6.70994
937 1 -1.1104 12.2737 34.2121 6.71253
934 1 -1.1104 6.69307 34.2067 6.70968
939 1 -1.1104 9.48636 36.9931 6.71129
783 1 -1.1104 12.2755 36.9995 6.71203
936 1 -1.1104 12.2701 31.4231 6.71053
786 2 2.2208 13.6465 43.9093 5.26354
841 2 2.2208 13.666 41.1713 2.50933
1014 2 2.2208 -0.275284 38.4012 2.52615
791 2 2.2208 5.30459 41.1838 5.31336