ITEM: TIMESTEP
308
ITEM: NUMBER OF ATOMS
17712
ITEM: BOX BOUNDS pp pp pp
-2.7717828229332220e-01 2.7617178282293317e+01
-3.4472205766305355e+00 3.3152722057663055e+02
-2.7717827830221448e-01 2.7617178278302212e+01
ITEM: ATOMS id type q x y z
1 2 2.2208 5.27777 2.1348 5.31544
2 1 -1.1104 1.09058 -2.05209 1.13087
3 1 -1.1104 1.09458 3.52831 1.13108
4 1 -1.1104 1.09055 -2.05209 3.92078
5 1 -1.1104 1.09459 3.52834 3.92093
6 1 -1.1104 1.09261 0.738118 1.13143
7 2 2.2208 5.27575 -0.65537 2.52597
8 1 -1.1104 1.09257 0.738112 3.92045
9 1 -1.1104 3.88003 -2.05207 1.13141
10 1 -1.1104 3.88405 3.52826 1.1315
11 2 2.2208 2.48832 2.13484 2.52599
12 1 -1.1104 3.87999 -2.05211 3.92045
13 1 -1.1104 3.88404 3.52827 3.92051
14 2 2.2208 2.48628 -0.655389 5.31538
15 2 2.2208 2.49033 4.92507 5.31544
16 1 -1.1104 3.88204 0.738098 1.13103
17 1 -1.1104 3.88202 0.738073 3.92092
18 2 2.2208 5.27978 4.92499 2.526
330 2 2.2208 2.48633 -0.65535 -0.263545
331 2 2.2208 5.27779 2.13479 -0.263466
34 1 -1.1104 6.66948 -2.05211 1.13108
323 2 2.2208 13.6588 18.8773 8.106
20 1 -1.1104 6.6715 0.738072 1.13148
24 1 -1.1104 6.66944 -2.05211 3.92095
174 2 2.2208 5.29044 18.8753 -0.26248
31 2 2.2208 2.5032 21.6654 -0.262164
334 2 2.2208 8.06523 -0.655419 -0.263453
33 1 -1.1104 6.67148 0.738083 3.9205
32 1 -1.1104 6.6735 3.52827 3.92092
21 1 -1.1104 6.6735 3.52825 1.13103
35 2 2.2208 10.8566 2.13482 5.31537
36 1 -1.1104 12.2484 -2.05222 1.13103
37 1 -1.1104 12.2524 3.52828 1.13093
38 1 -1.1104 12.2484 -2.05221 3.92089
39 1 -1.1104 12.2524 3.52831 3.92083
40 1 -1.1104 12.2504 0.738017 1.1314
41 2 2.2208 10.8546 -0.65544 2.52595
42 1 -1.1104 12.2504 0.73806 3.92041
43 1 -1.1104 9.45894 -2.05218 1.1315
44 1 -1.1104 9.46296 3.52823 1.13142
45 2 2.2208 8.06722 2.1348 2.52596
46 1 -1.1104 9.45892 -2.05217 3.92052
47 1 -1.1104 9.46293 3.52829 3.92045
48 2 2.2208 8.06519 -0.655432 5.31543
49 1 -1.1104 9.46095 0.738048 1.13103
50 1 -1.1104 9.46092 0.738051 3.92091
51 2 2.2208 8.06924 4.92505 5.31541
52 2 2.2208 10.8587 4.92504 2.52591
333 2 2.2208 10.8567 2.13477 -0.263533
207 1 -1.1104 6.67352 3.52827 6.70991
8417 2 2.2208 10.8527 -3.44578 10.8942
332 2 2.2208 8.06926 4.92495 -0.263506
329 2 2.2208 2.49033 4.92499 -0.263417
335 2 2.2208 5.2818 7.71508 -0.263412
61 2 2.2208 5.2818 7.71524 5.31546
62 2 2.2208 5.28594 13.2956 5.31583
63 1 -1.1104 1.09855 9.10867 1.1312
64 1 -1.1104 1.09858 9.10874 3.92105
65 1 -1.1104 1.09658 6.3185 1.13154
66 1 -1.1104 1.10064 11.8988 1.13175
67 2 2.2208 5.28384 10.5053 2.52616
68 1 -1.1104 1.09655 6.31855 3.92055
69 1 -1.1104 1.10059 11.8989 3.92078
70 1 -1.1104 3.88808 9.10856 1.13159
71 2 2.2208 2.49231 7.71522 2.52608
72 2 2.2208 2.49644 13.2955 2.52638
73 1 -1.1104 3.88804 9.10863 3.92059
74 2 2.2208 2.49435 10.5055 5.31561
75 1 -1.1104 3.88603 6.31843 1.13109
76 1 -1.1104 3.89007 11.8987 1.13131
77 1 -1.1104 3.88604 6.31846 3.92095
78 1 -1.1104 3.89016 11.8988 3.92119
89 1 -1.1104 6.67552 6.3184 1.13147
58 2 2.2208 5.2859 13.2953 -0.263067
80 1 -1.1104 6.67757 9.10863 3.92101
86 1 -1.1104 3.88809 9.10872 6.71043
60 2 2.2208 10.8694 18.8756 -0.262446
319 2 2.2208 13.6565 16.0859 -0.262691
236 1 -1.1104 1.10065 11.899 6.71064
85 1 -1.1104 3.88605 6.31852 6.70992
209 2 2.2208 2.49433 10.5053 -0.263261
232 2 2.2208 13.6565 16.087 10.895
116 2 2.2208 13.6522 10.5055 -0.263255
79 1 -1.1104 6.6755 6.31846 3.92048
198 2 2.2208 8.07331 10.5052 -0.263295
91 1 -1.1104 6.67752 9.10854 1.13111
84 1 -1.1104 6.67959 11.8988 3.92074
90 1 -1.1104 6.67965 11.8986 1.13176
92 2 2.2208 10.8607 7.71537 5.31545
93 2 2.2208 10.8649 13.2959 5.31592
94 1 -1.1104 12.2564 9.10873 1.13111
95 1 -1.1104 12.2565 9.10885 3.92105
96 1 -1.1104 12.2544 6.31851 1.13141
97 1 -1.1104 12.2586 11.8989 1.13187
98 2 2.2208 10.8628 10.5055 2.52619
99 1 -1.1104 12.2543 6.3186 3.92041
100 1 -1.1104 12.2585 11.8991 3.92084
101 1 -1.1104 9.46705 9.1086 1.13156
102 2 2.2208 8.07126 7.71519 2.52601
103 2 2.2208 8.07544 13.2955 2.52642
104 1 -1.1104 9.46698 9.10874 3.92055
105 2 2.2208 8.07332 10.5055 5.3156
106 1 -1.1104 9.46495 6.31844 1.13098
107 1 -1.1104 9.46906 11.8987 1.13133
108 1 -1.1104 9.46496 6.31852 3.9209
109 1 -1.1104 9.46917 11.8989 3.92127
59 2 2.2208 10.8649 13.2955 -0.262991
268 1 -1.1104 12.2586 11.8993 6.71077
110 1 -1.1104 12.2564 9.109 6.71002
114 1 -1.1104 9.46493 6.31859 6.7099
261 2 2.2208 8.07996 18.8762 8.1059
336 2 2.2208 10.8607 7.71518 -0.263476
19 2 2.2208 13.6544 13.2959 2.52653
117 2 2.2208 5.29042 18.8757 5.31643
118 1 -1.1104 1.10271 14.6889 1.13154
119 1 -1.1104 1.10718 20.269 1.13217
120 1 -1.1104 1.1028 14.689 3.92145
121 1 -1.1104 1.10724 20.2692 3.92204
122 1 -1.1104 1.10504 17.479 1.13228
123 2 2.2208 5.28815 16.0855 2.52669
124 2 2.2208 5.29276 21.6654 2.52727
125 1 -1.1104 1.1049 17.4791 3.92133
126 1 -1.1104 3.89229 14.6887 1.132
127 1 -1.1104 3.89684 20.2687 1.1326
128 2 2.2208 2.5009 18.8756 2.52697
129 1 -1.1104 3.89221 14.6889 3.92101
130 1 -1.1104 3.8967 20.2688 3.9216
131 2 2.2208 2.49862 16.0857 5.31611
132 2 2.2208 2.50311 21.6658 5.31669
133 1 -1.1104 3.89446 17.4787 1.13185
134 1 -1.1104 3.89454 17.4789 3.92178
25 2 2.2208 2.49862 16.0854 -0.262813
135 1 -1.1104 6.68409 17.4787 1.13239
141 1 -1.1104 1.10705 20.2694 6.71108
295 1 -1.1104 3.89228 14.689 6.71092
142 1 -1.1104 3.89439 17.479 6.71077
138 1 -1.1104 1.10496 17.4793 6.71119
8440 2 2.2208 8.0632 -3.44572 8.10485
292 1 -1.1104 12.2607 14.69 12.2893
148 1 -1.1104 6.68642 20.2688 3.92213
146 1 -1.1104 6.68397 17.4789 3.92133
136 1 -1.1104 6.68631 20.2686 1.13212
321 2 2.2208 13.6566 16.0865 5.31628
137 1 -1.1104 6.68183 14.6888 3.92153
176 1 -1.1104 6.68629 20.269 6.71103
140 1 -1.1104 6.6817 14.6887 1.13157
260 1 -1.1104 9.47348 17.4795 6.71081
149 2 2.2208 10.8695 18.8763 5.31656
150 1 -1.1104 12.2607 14.6891 1.13166
151 1 -1.1104 12.2653 20.2693 1.13214
152 1 -1.1104 12.2608 14.6893 3.92167
153 1 -1.1104 12.2655 20.2697 3.92231
154 1 -1.1104 12.2631 17.4792 1.13249
155 2 2.2208 10.8671 16.0858 2.52679
156 2 2.2208 10.8718 21.666 2.52737
157 1 -1.1104 12.2629 17.4795 3.92142
158 1 -1.1104 9.47131 14.6888 1.13214
159 1 -1.1104 9.47596 20.2688 1.13272
160 2 2.2208 8.07998 18.8756 2.52703
161 1 -1.1104 9.47122 14.689 3.92107
162 1 -1.1104 9.47585 20.2691 3.92163
163 2 2.2208 8.07765 16.0858 5.31618
164 2 2.2208 8.08235 21.6659 5.31676
165 1 -1.1104 9.47349 17.4788 1.13189
166 1 -1.1104 9.47363 17.4791 3.92194
115 2 2.2208 8.07763 16.0854 -0.262736
168 1 -1.1104 12.2653 20.2703 6.71116
145 1 -1.1104 9.476 20.2696 6.71173
88 2 2.2208 8.08231 21.6653 -0.262177
23 1 -1.1104 1.09258 0.738126 6.71031
177 1 -1.1104 1.09051 -2.05212 6.70981
26 1 -1.1104 3.88407 3.52829 6.71035
22 1 -1.1104 3.87996 -2.05216 6.71033
178 1 -1.1104 1.09459 3.52836 6.70992
27 1 -1.1104 3.88203 0.738039 6.70992
179 2 2.2208 5.27785 2.1348 10.8942
180 1 -1.1104 1.09058 -2.05213 12.2887
181 1 -1.1104 1.09466 3.52839 12.2887
182 1 -1.1104 1.09053 -2.05213 9.49968
183 1 -1.1104 1.09464 3.5284 9.49972
184 1 -1.1104 1.09263 0.738153 12.2891
185 2 2.2208 5.27574 -0.65546 8.10485
186 2 2.2208 5.27983 4.92506 8.10482
187 1 -1.1104 1.09259 0.738129 9.49929
188 1 -1.1104 3.88004 -2.05218 12.2892
189 1 -1.1104 3.88414 3.52831 12.2891
190 2 2.2208 2.48835 2.13485 8.10482
191 1 -1.1104 3.87997 -2.0522 9.49933
192 1 -1.1104 3.88412 3.52831 9.4993
193 2 2.2208 2.48632 -0.655389 10.8942
194 2 2.2208 2.49038 4.92512 10.8942
195 1 -1.1104 3.88211 0.738049 12.2887
196 1 -1.1104 3.88206 0.73806 9.49976
204 1 -1.1104 6.67362 3.5283 12.2887
210 1 -1.1104 6.67158 0.738031 12.2892
8298 2 2.2208 5.27373 -3.44571 10.8943
29 1 -1.1104 12.2608 14.6899 9.50048
170 2 2.2208 10.8718 21.6671 8.10626
201 1 -1.1104 9.47588 20.27 9.50046
54 1 -1.1104 9.45891 -2.05222 6.71036
197 1 -1.1104 6.67147 0.738027 6.71038
205 1 -1.1104 6.6695 -2.05225 12.2888
206 1 -1.1104 6.67152 0.738002 9.49933
208 1 -1.1104 6.67357 3.5283 9.49974
203 1 -1.1104 6.66944 -2.05225 9.49979
57 1 -1.1104 12.2504 0.738075 6.71028
211 1 -1.1104 9.46295 3.52831 6.71034
200 1 -1.1104 12.2523 3.52837 6.70984
56 1 -1.1104 12.2484 -2.0522 6.70989
55 1 -1.1104 9.46093 0.738047 6.7099
28 1 -1.1104 6.66944 -2.0522 6.70995
212 2 2.2208 10.8567 2.13484 10.8942
213 1 -1.1104 12.2484 -2.05227 12.2887
214 1 -1.1104 12.2525 3.5284 12.2887
215 1 -1.1104 12.2484 -2.05225 9.49973
216 1 -1.1104 12.2524 3.52841 9.49972
217 1 -1.1104 12.2505 0.738063 12.2891
218 2 2.2208 10.8547 -0.655453 8.10482
219 1 -1.1104 12.2504 0.738078 9.49926
220 1 -1.1104 9.45895 -2.05227 12.2892
221 1 -1.1104 9.46306 3.52835 12.2891
222 2 2.2208 8.06725 2.13479 8.10484
223 1 -1.1104 9.45892 -2.05226 9.49932
224 1 -1.1104 9.463 3.52834 9.49931
225 2 2.2208 8.06524 -0.655483 10.8942
226 2 2.2208 8.06929 4.92512 10.8942
227 1 -1.1104 9.46103 0.738027 12.2887
228 1 -1.1104 9.46097 0.738032 9.49976
229 2 2.2208 10.8587 4.92515 8.10481
144 1 -1.1104 12.263 17.4806 12.2902
235 1 -1.1104 6.67554 6.31852 6.71035
82 1 -1.1104 3.89008 11.8989 6.71018
233 1 -1.1104 1.09854 9.10881 6.71004
81 1 -1.1104 1.09659 6.3186 6.71037
238 2 2.2208 5.2818 7.71535 10.8943
239 2 2.2208 5.28589 13.2958 10.8947
240 1 -1.1104 1.09851 9.1089 12.2888
241 1 -1.1104 1.09857 9.10888 9.49986
242 1 -1.1104 1.0966 6.31864 12.2891
243 1 -1.1104 1.10058 11.8991 12.2895
244 2 2.2208 5.28383 10.5055 8.10501
245 1 -1.1104 1.09658 6.31865 9.49935
246 1 -1.1104 1.10055 11.8991 9.49964
247 1 -1.1104 3.88802 9.10878 12.2892
248 2 2.2208 2.49233 7.71535 8.10488
249 2 2.2208 2.49642 13.2957 8.10526
250 1 -1.1104 3.88802 9.10881 9.4994
251 2 2.2208 2.49431 10.5056 10.8944
252 1 -1.1104 3.88607 6.31856 12.2887
253 1 -1.1104 3.89004 11.899 12.289
254 1 -1.1104 3.88609 6.31857 9.49972
255 1 -1.1104 3.89012 11.899 9.50005
258 1 -1.1104 6.67755 9.10885 9.49985
264 1 -1.1104 6.67555 6.31859 12.2891
256 1 -1.1104 6.67959 11.899 12.2895
266 1 -1.1104 6.67955 11.8991 9.49958
267 1 -1.1104 6.6775 9.10884 12.2888
234 1 -1.1104 6.67966 11.8989 6.71064
147 1 -1.1104 9.47128 14.6896 12.2898
237 1 -1.1104 9.47598 20.2702 12.2905
316 2 2.2208 13.6543 13.2964 8.10537
327 2 2.2208 13.6521 10.506 10.8945
290 1 -1.1104 12.2631 17.48 6.71146
111 1 -1.1104 6.67752 9.10875 6.70998
265 1 -1.1104 6.67553 6.31858 9.4993
113 1 -1.1104 12.2544 6.31867 6.71033
112 1 -1.1104 9.46703 9.10886 6.71046
262 1 -1.1104 9.46905 11.8991 6.7102
269 1 -1.1104 9.46911 11.8993 9.50011
270 1 -1.1104 9.46498 6.31867 9.49977
271 1 -1.1104 9.46904 11.8993 12.289
272 1 -1.1104 9.46501 6.31866 12.2887
273 2 2.2208 8.07328 10.5057 10.8944
274 1 -1.1104 9.46696 9.10898 9.49942
275 2 2.2208 8.07542 13.2959 8.10527
276 2 2.2208 8.07126 7.71538 8.10488
277 2 2.2208 10.8607 7.71552 10.8943
278 2 2.2208 10.8649 13.2962 10.8947
279 1 -1.1104 12.2564 9.10914 12.2888
280 1 -1.1104 12.2564 9.10913 9.49991
281 1 -1.1104 12.2544 6.31877 12.2892
282 1 -1.1104 12.2585 11.8996 12.2895
283 2 2.2208 10.8627 10.5058 8.10506
284 1 -1.1104 12.2544 6.31876 9.49931
285 1 -1.1104 12.2585 11.8995 9.49965
286 1 -1.1104 9.46698 9.10898 12.2893
294 1 -1.1104 6.68396 17.4793 9.5002
173 1 -1.1104 6.68406 17.4791 6.71133
202 1 -1.1104 6.68172 14.6892 12.2893
139 1 -1.1104 1.10269 14.6892 6.71047
143 1 -1.1104 3.89675 20.269 6.7115
296 1 -1.1104 1.10481 17.4795 12.29
297 2 2.2208 2.49853 16.0859 10.895
298 2 2.2208 2.50298 21.666 10.8954
299 1 -1.1104 3.89437 17.4792 12.2896
300 1 -1.1104 3.89665 20.2692 12.2903
301 1 -1.1104 3.89221 14.6891 12.2898
302 1 -1.1104 1.10706 20.2695 9.50086
303 1 -1.1104 1.10481 17.4794 9.5002
304 2 2.2208 5.29271 21.6658 8.10609
305 1 -1.1104 1.10273 14.6893 9.50033
306 2 2.2208 5.2881 16.0858 8.10557
307 1 -1.1104 1.10694 20.2696 12.2899
308 1 -1.1104 1.10263 14.6893 12.2893
309 2 2.2208 5.29037 18.876 10.8953
310 1 -1.1104 3.89664 20.2692 9.50046
311 2 2.2208 2.50079 18.876 8.10583
312 1 -1.1104 3.89445 17.4792 9.50068
313 1 -1.1104 3.89216 14.6891 9.49989
172 1 -1.1104 6.6817 14.6891 6.71046
171 1 -1.1104 6.68403 17.4793 12.2901
293 1 -1.1104 6.68178 14.6892 9.50039
257 1 -1.1104 12.2607 14.6896 6.71055
167 1 -1.1104 9.47132 14.6893 6.71103
175 2 2.2208 10.8694 18.877 10.8953
199 1 -1.1104 9.47121 14.6895 9.49989
315 1 -1.1104 12.2653 20.2715 12.2898
83 1 -1.1104 9.47354 17.4799 12.2896
53 2 2.2208 8.08236 21.6665 10.8955
169 1 -1.1104 6.68633 20.2694 12.2898
30 2 2.2208 8.07763 16.0861 10.895
291 1 -1.1104 12.2654 20.271 9.50121
287 2 2.2208 10.8671 16.0864 8.10565
288 1 -1.1104 9.4736 17.4798 9.50082
314 1 -1.1104 12.2629 17.4804 9.50025
87 1 -1.1104 6.68638 20.2693 9.50103
259 2 2.2208 13.6611 21.6685 10.8956
337 2 2.2208 13.6481 4.92502 -0.263591
325 2 2.2208 13.648 4.92518 5.31531
320 2 2.2208 13.6612 21.6661 -0.262188
328 2 2.2208 13.6501 7.71558 8.10488
318 2 2.2208 13.6612 21.6672 5.31691
322 2 2.2208 13.6589 18.8764 2.52712
231 2 2.2208 13.6501 7.71536 2.52598
230 2 2.2208 13.6522 10.5058 5.31568
289 2 2.2208 13.6481 4.92524 10.8942
263 2 2.2208 13.6441 -0.655437 10.8942
8366 2 2.2208 5.27373 -3.44561 5.31542
8518 2 2.2208 5.2738 -3.44556 -0.263489
8444 2 2.2208 2.48431 -3.44555 2.52586
8416 2 2.2208 2.48424 -3.44563 8.10479
8521 2 2.2208 10.8527 -3.4457 -0.263437
8363 2 2.2208 8.06322 -3.4456 2.52602
8388 2 2.2208 10.8527 -3.44569 5.31544
324 2 2.2208 13.6461 2.13482 2.52585
326 2 2.2208 13.6441 -0.655415 5.31535
8327 2 2.2208 13.6421 -3.44572 2.526
338 2 2.2208 13.6441 -0.655501 -0.263528
8241 2 2.2208 13.6421 -3.44572 8.10485
317 2 2.2208 13.6461 2.1349 8.10475
339 2 2.2208 5.2779 2.13473 16.473
340 1 -1.1104 1.09065 -2.05214 17.8675
341 1 -1.1104 1.09466 3.5283 17.8675
342 1 -1.1104 1.09062 -2.05213 15.0785
343 1 -1.1104 1.09466 3.52834 15.0785
344 1 -1.1104 1.09267 0.738097 17.8679
345 2 2.2208 5.27587 -0.655474 19.2625
347 1 -1.1104 1.09269 0.738103 15.0781
348 1 -1.1104 3.88011 -2.05218 17.868
349 1 -1.1104 3.88413 3.52818 17.8679
350 2 2.2208 2.4884 2.13478 19.2625
351 1 -1.1104 3.88009 -2.05217 15.0781
352 1 -1.1104 3.88416 3.52826 15.0781
353 2 2.2208 2.4864 -0.655404 16.473
354 1 -1.1104 3.88216 0.738007 17.8676
355 1 -1.1104 3.88215 0.738052 15.0786
356 2 2.2208 2.49037 4.92501 16.473
346 2 2.2208 5.27984 4.92485 19.2624
666 2 2.2208 5.27985 4.92503 13.6836
359 1 -1.1104 6.67163 0.737944 17.868
368 1 -1.1104 6.67363 3.52813 17.8675
668 2 2.2208 5.27584 -0.655454 13.6837
367 1 -1.1104 6.67164 0.737989 15.0781
366 1 -1.1104 6.67362 3.52822 15.0785
8583 2 2.2208 5.27381 -3.44568 16.4731
8559 2 2.2208 2.48437 -3.44562 19.2625
512 1 -1.1104 3.88212 0.738013 20.6574
364 2 2.2208 5.29268 21.6659 13.6848
667 2 2.2208 2.48841 2.13485 13.6836
360 1 -1.1104 6.66955 -2.05224 15.0786
8645 2 2.2208 10.8527 -3.44585 16.4731
357 1 -1.1104 6.66958 -2.05225 17.8676
669 2 2.2208 10.8588 4.92512 13.6836
369 2 2.2208 10.8568 2.1347 16.473
370 1 -1.1104 12.2485 -2.05239 17.8676
371 1 -1.1104 12.2525 3.52819 17.8675
372 1 -1.1104 12.2484 -2.05235 15.0786
373 1 -1.1104 12.2525 3.52829 15.0785
374 1 -1.1104 12.2505 0.737901 17.868
375 2 2.2208 10.8548 -0.655581 19.2625
376 2 2.2208 10.8588 4.92489 19.2624
377 1 -1.1104 12.2505 0.737961 15.0781
378 1 -1.1104 9.45902 -2.05233 17.868
379 1 -1.1104 9.46308 3.52813 17.8679
380 2 2.2208 8.06735 2.13465 19.2625
381 1 -1.1104 9.45899 -2.05231 15.0781
382 1 -1.1104 9.4631 3.52824 15.0781
383 2 2.2208 8.06533 -0.655533 16.4731
384 2 2.2208 8.06933 4.92494 16.473
385 1 -1.1104 9.4611 0.737909 17.8676
386 1 -1.1104 9.46108 0.737965 15.0786
671 2 2.2208 10.8547 -0.655519 13.6836
670 2 2.2208 8.06735 2.13477 13.6836
8644 2 2.2208 8.06328 -3.44574 19.2626
625 2 2.2208 13.6482 4.92508 16.473
387 1 -1.1104 12.2525 3.52815 20.6574
8706 2 2.2208 13.6421 -3.44587 19.2625
659 2 2.2208 13.6442 -0.655562 16.473
672 2 2.2208 2.4923 7.71532 13.6837
389 2 2.2208 2.49637 13.2957 13.6841
393 2 2.2208 5.2818 7.71512 16.4731
394 2 2.2208 5.28588 13.2954 16.4735
395 1 -1.1104 1.09856 9.10865 17.8677
396 1 -1.1104 1.09854 9.10878 15.0787
397 1 -1.1104 1.09659 6.31847 17.868
398 1 -1.1104 1.10057 11.8988 17.8683
399 2 2.2208 5.28381 10.5051 19.2627
400 1 -1.1104 1.09659 6.31858 15.0781
401 1 -1.1104 1.10054 11.899 15.0785
402 1 -1.1104 3.88805 9.10849 17.8681
403 2 2.2208 2.49232 7.71508 19.2625
404 2 2.2208 2.49637 13.2954 19.2629
405 1 -1.1104 3.88801 9.10865 15.0782
406 2 2.2208 2.49431 10.5054 16.4733
407 1 -1.1104 3.88607 6.31835 17.8675
408 1 -1.1104 3.89006 11.8986 17.8679
409 1 -1.1104 3.88606 6.31846 15.0785
410 1 -1.1104 3.89006 11.8988 15.0789
412 1 -1.1104 6.67555 6.3183 17.8679
424 1 -1.1104 6.67753 9.10846 17.8676
573 1 -1.1104 3.89008 11.8985 20.6577
534 2 2.2208 5.28379 10.5055 13.6838
423 1 -1.1104 6.67958 11.8986 17.8683
8677 2 2.2208 10.8527 -3.44579 22.052
417 1 -1.1104 1.10058 11.8987 20.6573
415 1 -1.1104 6.67956 11.8988 15.0784
411 1 -1.1104 6.67751 9.10867 15.0786
416 1 -1.1104 6.67556 6.31845 15.0781
425 2 2.2208 10.8607 7.71529 16.4731
426 2 2.2208 10.8648 13.2959 16.4735
427 1 -1.1104 12.2565 9.10882 17.8676
428 1 -1.1104 12.2564 9.10902 15.0787
429 1 -1.1104 12.2545 6.3185 17.868
430 1 -1.1104 12.2585 11.8992 17.8683
431 2 2.2208 10.8627 10.5054 19.2627
432 1 -1.1104 12.2545 6.31864 15.0781
433 1 -1.1104 12.2585 11.8994 15.0784
434 1 -1.1104 9.46701 9.10861 17.8681
435 2 2.2208 8.07129 7.71501 19.2625
436 2 2.2208 8.07535 13.2954 19.2629
437 1 -1.1104 9.46699 9.10882 15.0782
438 2 2.2208 8.07328 10.5054 16.4733
439 1 -1.1104 9.46505 6.31837 17.8675
440 1 -1.1104 9.46904 11.8988 17.8678
441 1 -1.1104 9.46502 6.31854 15.0785
442 1 -1.1104 9.46905 11.8991 15.0789
358 2 2.2208 8.07539 13.2958 13.6841
422 2 2.2208 10.8627 10.5058 13.6839
661 2 2.2208 13.6543 13.2964 13.6841
444 1 -1.1104 9.46504 6.31828 20.6574
447 1 -1.1104 12.2545 6.31841 20.6569
674 2 2.2208 13.6501 7.71556 13.6837
594 2 2.2208 13.6442 -0.655582 22.0519
451 2 2.2208 5.29032 18.8757 16.474
452 1 -1.1104 1.10262 14.689 17.8681
453 1 -1.1104 1.10695 20.2691 17.8686
454 1 -1.1104 1.10264 14.6892 15.0791
455 1 -1.1104 1.10692 20.2694 15.0796
456 1 -1.1104 1.10475 17.4791 17.8688
457 2 2.2208 5.28803 16.0854 19.2632
458 2 2.2208 5.29262 21.6653 19.2637
459 1 -1.1104 1.10475 17.4793 15.079
460 1 -1.1104 3.89216 14.6887 17.8686
461 1 -1.1104 3.89659 20.2688 17.8691
462 2 2.2208 2.50071 18.8755 19.2634
463 1 -1.1104 3.89216 14.689 15.0787
464 1 -1.1104 3.89662 20.269 15.0792
465 2 2.2208 2.49849 16.0857 16.4738
466 2 2.2208 2.50292 21.6657 16.4742
467 1 -1.1104 3.89434 17.4788 17.8684
468 1 -1.1104 3.89437 17.479 15.0795
365 2 2.2208 2.5007 18.876 13.6846
390 2 2.2208 5.28808 16.0858 13.6844
477 1 -1.1104 1.10479 17.4789 20.6578
660 2 2.2208 13.6588 18.8777 13.6846
471 1 -1.1104 6.68168 14.6888 17.8681
478 1 -1.1104 6.68392 17.4788 17.8689
542 2 2.2208 13.6564 16.0859 22.0526
500 1 -1.1104 6.6839 17.4786 20.6578
392 2 2.2208 10.8671 16.0865 13.6844
469 1 -1.1104 6.68632 20.2692 15.0797
481 1 -1.1104 6.68398 17.4791 15.079
480 1 -1.1104 6.68629 20.2689 17.8685
470 1 -1.1104 6.68172 14.689 15.0792
482 2 2.2208 10.8694 18.8767 16.4739
483 1 -1.1104 12.2606 14.6895 17.868
484 1 -1.1104 12.2654 20.2705 17.8683
485 1 -1.1104 12.2607 14.6899 15.0792
486 1 -1.1104 12.2653 20.2712 15.0797
487 1 -1.1104 12.2629 17.4799 17.8688
488 2 2.2208 10.867 16.0859 19.2632
489 2 2.2208 10.8718 21.6664 19.2635
490 1 -1.1104 12.263 17.4804 15.0789
491 1 -1.1104 9.47117 14.6891 17.8686
492 1 -1.1104 9.47583 20.2695 17.8691
493 2 2.2208 8.07986 18.8756 19.2634
494 1 -1.1104 9.47122 14.6894 15.0787
495 1 -1.1104 9.47596 20.27 15.079
496 2 2.2208 8.07758 16.0858 16.4738
497 2 2.2208 8.08231 21.6661 16.4741
498 1 -1.1104 9.47348 17.4793 17.8683
499 1 -1.1104 9.47352 17.4797 15.0795
657 2 2.2208 13.6587 18.8767 19.2633
656 2 2.2208 13.6588 18.8759 24.8423
8646 2 2.2208 5.27384 -3.44564 22.052
511 1 -1.1104 1.09064 -2.05213 20.6573
362 1 -1.1104 3.88412 3.52816 20.657
363 1 -1.1104 1.09264 0.738074 20.657
361 1 -1.1104 1.09464 3.52824 20.6574
507 1 -1.1104 3.8801 -2.05217 20.657
513 2 2.2208 5.27784 2.1347 22.0519
514 1 -1.1104 1.09062 -2.05213 23.4463
515 1 -1.1104 1.09463 3.52826 23.4465
516 1 -1.1104 1.09062 -2.0521 26.2362
517 1 -1.1104 1.09463 3.52829 26.2364
518 1 -1.1104 1.09263 0.73809 23.4469
519 2 2.2208 5.27581 -0.655411 24.8414
520 1 -1.1104 1.09259 0.738103 26.2359
521 1 -1.1104 3.88009 -2.05215 23.4469
522 1 -1.1104 3.8841 3.52817 23.4469
523 2 2.2208 2.48835 2.13481 24.8414
524 1 -1.1104 3.88005 -2.05211 26.2359
525 1 -1.1104 3.88407 3.52822 26.236
526 2 2.2208 2.48637 -0.655393 22.0519
527 1 -1.1104 3.88209 0.73803 23.4465
528 1 -1.1104 3.88206 0.738075 26.2364
529 2 2.2208 5.27982 4.92488 24.8414
530 2 2.2208 2.49036 4.92492 22.052
533 1 -1.1104 6.66957 -2.05224 20.6575
537 1 -1.1104 6.6716 0.737934 20.657
548 1 -1.1104 6.67157 0.737977 23.4469
531 1 -1.1104 6.67356 3.52812 23.4464
546 1 -1.1104 6.67355 3.52818 26.2363
545 1 -1.1104 6.66955 -2.0522 23.4465
449 1 -1.1104 12.2653 20.2691 26.2375
8864 2 2.2208 8.06323 -3.44576 13.6837
535 2 2.2208 13.6502 7.71523 24.8414
532 1 -1.1104 6.66952 -2.05215 26.2364
538 1 -1.1104 12.2485 -2.05235 20.6575
539 1 -1.1104 9.45903 -2.0523 20.6571
540 1 -1.1104 9.46307 3.5281 20.6569
508 1 -1.1104 6.67358 3.52807 20.6574
544 1 -1.1104 6.67152 0.738033 26.236
541 1 -1.1104 12.2505 0.737906 20.657
388 1 -1.1104 9.46106 0.737892 20.6574
549 2 2.2208 10.8568 2.13466 22.0519
550 1 -1.1104 12.2484 -2.05233 23.4465
551 1 -1.1104 12.2525 3.52816 23.4464
552 1 -1.1104 12.2484 -2.05228 26.2364
553 1 -1.1104 12.2525 3.52821 26.2363
554 1 -1.1104 12.2505 0.7379 23.4469
555 2 2.2208 10.8547 -0.655521 24.8414
556 1 -1.1104 12.2504 0.737982 26.2359
557 1 -1.1104 9.459 -2.05227 23.4469
558 1 -1.1104 9.46303 3.5281 23.4468
559 2 2.2208 8.06729 2.13471 24.8414
560 1 -1.1104 9.45896 -2.0522 26.236
561 1 -1.1104 9.463 3.5282 26.2359
562 2 2.2208 8.0653 -0.655521 22.052
563 1 -1.1104 9.46103 0.737938 23.4465
564 1 -1.1104 9.46098 0.737996 26.2364
565 2 2.2208 10.8587 4.92491 24.8413
566 2 2.2208 8.06931 4.92482 22.0519
663 2 2.2208 13.6462 2.13472 24.8413
595 2 2.2208 13.6482 4.92496 22.0519
623 1 -1.1104 9.47342 17.4787 23.4472
418 1 -1.1104 6.67954 11.8984 20.6573
626 2 2.2208 8.0799 18.8752 24.8424
414 1 -1.1104 1.0966 6.3184 20.6571
572 1 -1.1104 3.88805 9.10837 20.6571
413 1 -1.1104 1.09859 9.10853 20.6575
571 1 -1.1104 3.88607 6.31826 20.6574
574 2 2.2208 5.28181 7.71494 22.052
575 2 2.2208 5.28586 13.2951 22.0524
576 1 -1.1104 1.09858 9.10853 23.4466
577 1 -1.1104 1.0986 9.10859 26.2365
578 1 -1.1104 1.09664 6.3184 23.4469
579 1 -1.1104 1.1006 11.8986 23.4472
580 2 2.2208 5.2838 10.5051 24.8416
581 1 -1.1104 1.09659 6.31846 26.236
582 1 -1.1104 1.10056 11.8987 26.2362
583 1 -1.1104 3.88808 9.10838 23.447
584 2 2.2208 2.49234 7.71508 24.8415
585 2 2.2208 2.49639 13.2953 24.8418
586 1 -1.1104 3.88803 9.10846 26.2361
587 2 2.2208 2.49433 10.5051 22.0522
588 1 -1.1104 3.88607 6.31829 23.4465
589 1 -1.1104 3.89003 11.8985 23.4468
590 1 -1.1104 3.88608 6.31834 26.2364
591 1 -1.1104 3.8901 11.8985 26.2366
603 1 -1.1104 6.67957 11.8984 23.4472
419 1 -1.1104 6.67555 6.31822 20.6569
601 1 -1.1104 6.67556 6.31822 23.4469
600 1 -1.1104 6.67752 9.10833 23.4465
543 2 2.2208 13.6543 13.2956 24.8419
602 1 -1.1104 6.67756 9.10833 20.6575
593 1 -1.1104 6.67757 9.10842 26.2365
592 1 -1.1104 6.67952 11.8985 26.2362
599 1 -1.1104 6.67552 6.31832 26.2359
446 1 -1.1104 9.46702 9.10847 20.657
604 1 -1.1104 9.46904 11.8986 20.6578
443 1 -1.1104 12.2565 9.10866 20.6575
445 1 -1.1104 12.2585 11.8989 20.6572
605 1 -1.1104 9.46705 9.10842 23.447
606 1 -1.1104 12.2585 11.8988 26.2362
607 1 -1.1104 12.2544 6.31845 26.2358
608 2 2.2208 10.8628 10.5053 24.8416
609 1 -1.1104 12.2585 11.8988 23.4472
610 1 -1.1104 12.2545 6.31838 23.4468
611 1 -1.1104 12.2565 9.10863 26.2365
612 1 -1.1104 12.2565 9.10859 23.4465
613 1 -1.1104 9.4691 11.8986 26.2367
614 1 -1.1104 9.46502 6.31835 26.2363
615 1 -1.1104 9.46901 11.8985 23.4467
616 1 -1.1104 9.46502 6.31829 23.4464
617 2 2.2208 8.07329 10.5051 22.0521
618 1 -1.1104 9.46699 9.1085 26.236
619 2 2.2208 8.07536 13.2952 24.8418
620 2 2.2208 8.07129 7.715 24.8414
621 2 2.2208 10.8608 7.71508 22.0519
622 2 2.2208 10.8648 13.2954 22.0524
662 2 2.2208 13.6611 21.6663 22.0529
420 2 2.2208 8.08222 21.6652 22.0531
476 1 -1.1104 1.10705 20.2689 20.6585
632 1 -1.1104 3.89662 20.2685 20.6581
631 1 -1.1104 1.10265 14.6888 20.6579
629 1 -1.1104 6.68395 17.4785 23.4478
474 1 -1.1104 3.89213 14.6886 20.6575
475 1 -1.1104 3.89436 17.4786 20.6583
633 2 2.2208 2.50306 21.6653 22.0532
634 1 -1.1104 3.89437 17.4785 23.4473
635 1 -1.1104 1.1049 17.4788 23.4477
636 1 -1.1104 3.89216 14.6886 26.2364
637 1 -1.1104 3.89451 17.4786 26.2372
638 2 2.2208 2.50085 18.8754 24.8424
639 1 -1.1104 3.89673 20.2685 26.237
640 2 2.2208 5.29033 18.8752 22.0529
641 1 -1.1104 1.10263 14.6888 23.447
642 1 -1.1104 1.10713 20.2688 23.4475
643 2 2.2208 5.28807 16.0852 24.8421
644 2 2.2208 5.29271 21.665 24.8427
645 1 -1.1104 1.10275 14.6888 26.2369
646 1 -1.1104 1.10491 17.4789 26.2367
647 1 -1.1104 1.10728 20.2689 26.2375
648 1 -1.1104 3.89218 14.6886 23.4474
649 1 -1.1104 3.89673 20.2685 23.448
650 2 2.2208 2.49852 16.0854 22.0526
627 1 -1.1104 6.68162 14.6885 23.447
472 1 -1.1104 6.68624 20.2685 20.6585
501 1 -1.1104 6.68166 14.6886 20.658
628 1 -1.1104 6.68395 17.4785 26.2367
448 1 -1.1104 6.68637 20.2684 26.2375
502 2 2.2208 10.8693 18.8757 22.0528
654 2 2.2208 13.6564 16.0867 16.4737
658 2 2.2208 13.6611 21.6681 16.474
598 1 -1.1104 9.47116 14.6887 26.2365
450 1 -1.1104 9.47583 20.2689 20.6578
510 1 -1.1104 12.2607 14.6889 26.237
596 1 -1.1104 12.2606 14.6891 20.658
506 1 -1.1104 9.47352 17.4787 26.2373
503 1 -1.1104 12.2652 20.2696 20.6584
630 2 2.2208 10.867 16.0855 24.8421
505 1 -1.1104 12.2653 20.2691 23.4473
570 2 2.2208 10.8717 21.6655 24.8426
567 1 -1.1104 9.47581 20.2686 23.448
651 1 -1.1104 12.2606 14.6889 23.447
421 1 -1.1104 12.2629 17.4791 23.4477
597 1 -1.1104 9.47581 20.2686 26.2369
473 1 -1.1104 6.68625 20.2684 23.4475
509 1 -1.1104 6.68174 14.6886 26.2369
568 1 -1.1104 12.2629 17.479 26.2367
504 2 2.2208 8.07753 16.0853 22.0526
479 1 -1.1104 12.2629 17.4794 20.6576
652 1 -1.1104 9.47116 14.6886 23.4475
653 1 -1.1104 9.47113 14.6888 20.6575
547 1 -1.1104 9.47341 17.4789 20.6583
664 2 2.2208 13.6462 2.1347 19.2624
624 2 2.2208 13.6522 10.5055 22.0521
665 2 2.2208 13.6542 13.2959 19.2629
655 2 2.2208 13.6521 10.5058 16.4732
569 2 2.2208 13.6502 7.7153 19.2625
536 2 2.2208 10.8718 21.6676 13.6848
391 2 2.2208 8.07995 18.8763 13.6846
8862 2 2.2208 2.48431 -3.44564 13.6836
673 2 2.2208 8.07127 7.71534 13.6837
8860 2 2.2208 13.6421 -3.44583 13.6837
675 2 2.2208 13.6462 2.13483 13.6836
8703 2 2.2208 13.6422 -3.44582 24.8414
8647 2 2.2208 2.48437 -3.44559 24.8413
8680 2 2.2208 8.06328 -3.44566 24.8415
676 2 2.2208 5.29511 24.4554 5.31695
677 2 2.2208 5.30036 30.0349 5.31737
678 1 -1.1104 1.11174 25.849 1.13276
679 1 -1.1104 1.11175 25.8491 3.92254
680 1 -1.1104 1.10955 23.059 1.13289
681 1 -1.1104 1.11429 28.639 1.1334
682 2 2.2208 5.29761 27.2451 2.52795
683 1 -1.1104 1.10935 23.0592 3.92194
684 1 -1.1104 1.11407 28.6391 3.92234
685 1 -1.1104 3.90147 25.8484 1.1332
686 2 2.2208 2.5055 24.4555 2.52759
687 2 2.2208 2.51063 30.0354 2.52818
688 1 -1.1104 3.90131 25.8485 3.92211
689 2 2.2208 2.50787 27.2456 5.31713
690 1 -1.1104 3.899 23.0585 1.13243
691 1 -1.1104 3.90374 28.6382 1.13303
692 1 -1.1104 3.89908 23.0587 3.92231
693 1 -1.1104 3.90385 28.6382 3.9228
698 1 -1.1104 3.90132 25.8485 6.71196
707 1 -1.1104 6.69105 25.8484 6.71147
818 2 2.2208 5.33062 46.7875 -0.266131
732 2 2.2208 2.53288 43.9915 -0.261639
962 2 2.2208 5.30004 30.0347 -0.260755
706 1 -1.1104 6.69096 25.8482 1.13271
695 1 -1.1104 6.68863 23.0586 3.92182
708 1 -1.1104 6.69358 28.6378 3.92234
705 1 -1.1104 6.69115 25.8483 3.9227
704 1 -1.1104 6.68873 23.0584 1.13293
696 1 -1.1104 6.6936 28.638 1.13366
709 2 2.2208 10.8743 24.4567 5.3172
710 2 2.2208 10.8795 30.0371 5.31819
711 1 -1.1104 12.27 25.8492 1.13274
712 1 -1.1104 12.2704 25.85 3.9231
713 1 -1.1104 12.2678 23.0593 1.13304
714 1 -1.1104 12.2728 28.6392 1.13394
715 2 2.2208 10.8767 27.2461 2.52824
716 1 -1.1104 12.2677 23.0599 3.92197
717 1 -1.1104 12.2727 28.6399 3.92285
718 1 -1.1104 9.48075 25.8486 1.13339
719 2 2.2208 8.08473 24.4554 2.52765
720 2 2.2208 8.08987 30.0352 2.52859
721 1 -1.1104 9.48066 25.8488 3.92219
722 2 2.2208 8.08733 27.2456 5.31737
723 1 -1.1104 9.47817 23.0587 1.13237
724 1 -1.1104 9.48302 28.6383 1.13315
725 1 -1.1104 9.47839 23.0591 3.92253
726 1 -1.1104 9.48349 28.6386 3.92337
853 2 2.2208 13.6685 30.0373 2.52899
1006 2 2.2208 13.6659 27.2462 -0.261408
878 2 2.2208 10.8741 24.4556 -0.261824
727 1 -1.1104 12.2679 23.0606 6.7122
729 2 2.2208 10.879 30.0353 -0.260572
735 2 2.2208 5.30709 35.6146 5.31767
736 1 -1.1104 1.11667 31.429 1.13317
737 1 -1.1104 1.12288 37.0099 1.13316
738 1 -1.1104 1.11668 31.429 3.92286
739 1 -1.1104 1.12255 37.0093 3.92278
740 1 -1.1104 1.11967 34.2194 1.13392
741 2 2.2208 5.30327 32.8251 2.5288
742 2 2.2208 5.31105 38.4067 2.52886
743 1 -1.1104 1.11949 34.219 3.92236
744 1 -1.1104 3.90645 31.4282 1.13383
745 1 -1.1104 3.91236 37.009 1.13428
746 2 2.2208 2.51731 35.6159 2.5287
747 1 -1.1104 3.90641 31.4278 3.92244
748 1 -1.1104 3.91245 37.0071 3.92189
749 2 2.2208 2.51364 32.8252 5.31735
750 2 2.2208 2.52247 38.4051 5.31651
751 1 -1.1104 3.90908 34.2182 1.13347
752 1 -1.1104 3.90913 34.2175 3.92311
756 1 -1.1104 6.702 37.008 1.13343
754 1 -1.1104 3.90625 31.4271 6.71225
908 1 -1.1104 1.1228 37.0074 6.71104
907 1 -1.1104 3.9092 34.2161 6.71164
760 1 -1.1104 6.70178 37.0058 3.92318
753 2 2.2208 5.3062 35.6155 -0.259206
755 2 2.2208 2.51339 32.8253 -0.260418
759 2 2.2208 8.08707 27.2449 -0.26129
784 2 2.2208 2.52128 38.4068 -0.259227
902 2 2.2208 13.6706 32.8257 -0.25988
762 1 -1.1104 6.69892 34.2178 1.13448
764 1 -1.1104 6.69914 34.2164 3.92248
763 1 -1.1104 6.69631 31.4273 3.92321
761 1 -1.1104 6.69594 31.4276 1.13344
765 2 2.2208 10.8853 35.6184 5.31926
766 1 -1.1104 12.275 31.4289 1.13376
767 1 -1.1104 12.2804 37.0089 1.13466
768 1 -1.1104 12.2759 31.4299 3.92431
769 1 -1.1104 12.2822 37.0094 3.9244
770 1 -1.1104 12.2783 34.2189 1.13488
771 2 2.2208 10.8819 32.8265 2.52967
772 2 2.2208 10.886 38.4092 2.53131
773 1 -1.1104 12.2785 34.2195 3.92385