ITEM: TIMESTEP
327
ITEM: NUMBER OF ATOMS
17696
ITEM: BOX BOUNDS pp pp pp
-2.7717828229332220e-01 2.7617178282293317e+01
-3.4472205766305355e+00 3.3152722057663055e+02
-2.7717827830221448e-01 2.7617178278302212e+01
ITEM: ATOMS id type q x y z
1 2 2.2208 5.26886 2.13603 5.31262
2 1 -1.1104 1.08235 -2.05156 1.1277
3 1 -1.1104 1.0854 3.53027 1.12842
4 1 -1.1104 1.08242 -2.05155 3.9175
5 1 -1.1104 1.08545 3.53029 3.9182
6 1 -1.1104 1.08395 0.73937 1.12842
7 2 2.2208 5.26733 -0.654856 2.52279
8 1 -1.1104 1.08387 0.73937 3.91753
9 1 -1.1104 3.87187 -2.05145 1.12808
10 1 -1.1104 3.87494 3.53032 1.1288
11 2 2.2208 2.4794 2.13595 2.52316
12 1 -1.1104 3.87179 -2.05146 3.91717
13 1 -1.1104 3.87485 3.53031 3.91791
14 2 2.2208 2.47788 -0.654959 5.31224
15 2 2.2208 2.4809 4.92684 5.31297
16 1 -1.1104 3.87332 0.739445 1.12809
17 1 -1.1104 3.87341 0.739446 3.91789
18 2 2.2208 5.2704 4.92688 2.52351
32 1 -1.1104 6.66432 3.53039 1.12843
341 2 2.2208 13.6453 16.0918 10.8934
19 2 2.2208 2.47788 -0.654947 -0.26665
339 2 2.2208 13.6491 21.672 -0.2635
34 1 -1.1104 6.66289 0.739525 1.12842
26 1 -1.1104 6.66442 3.53039 3.91824
25 2 2.2208 5.26888 2.13602 -0.2663
342 2 2.2208 13.6489 21.6748 10.8942
347 2 2.2208 13.6454 16.091 5.31472
21 1 -1.1104 6.6628 0.739532 3.91753
22 1 -1.1104 6.66133 -2.05138 3.91747
55 2 2.2208 10.8478 2.13606 -0.266352
27 1 -1.1104 6.66126 -2.05136 1.1277
35 2 2.2208 10.8478 2.13616 5.31256
36 1 -1.1104 12.2402 -2.05143 1.12761
37 1 -1.1104 12.2433 3.53045 1.1284
38 1 -1.1104 12.2403 -2.05138 3.9174
39 1 -1.1104 12.2433 3.53054 3.91819
40 1 -1.1104 12.2418 0.739508 1.12834
41 2 2.2208 10.8463 -0.654815 2.52271
42 1 -1.1104 12.2417 0.739597 3.91747
43 1 -1.1104 9.45082 -2.05138 1.12798
44 1 -1.1104 9.45389 3.53042 1.12875
45 2 2.2208 8.05836 2.13608 2.52313
46 1 -1.1104 9.45072 -2.05133 3.91709
47 1 -1.1104 9.4538 3.53048 3.91788
48 2 2.2208 8.0568 -0.654818 5.31219
49 1 -1.1104 9.45228 0.739541 1.12803
50 1 -1.1104 9.45236 0.739566 3.91781
51 2 2.2208 8.05986 4.92699 5.31297
52 2 2.2208 10.8493 4.927 2.52348
200 1 -1.1104 6.66126 -2.0514 6.70657
206 1 -1.1104 9.45078 -2.05138 6.70687
53 2 2.2208 8.05682 -0.654828 -0.266685
56 2 2.2208 8.06997 21.6707 -0.263404
62 2 2.2208 5.2719 7.71774 5.31335
63 2 2.2208 5.27508 13.2993 5.31421
64 1 -1.1104 1.0884 9.11201 1.12919
65 1 -1.1104 1.0885 9.11204 3.91895
66 1 -1.1104 1.08698 6.32115 1.12913
67 1 -1.1104 1.09003 11.9028 1.1299
68 2 2.2208 5.27348 10.5085 2.5243
69 1 -1.1104 1.08688 6.32118 3.91826
70 1 -1.1104 1.08995 11.9029 3.91905
71 1 -1.1104 3.87798 9.11195 1.12951
72 2 2.2208 2.48244 7.71768 2.52388
73 2 2.2208 2.48556 13.2993 2.52471
74 1 -1.1104 3.87788 9.11197 3.91864
75 2 2.2208 2.48396 10.5086 5.31374
76 1 -1.1104 3.87638 6.32116 1.12878
77 1 -1.1104 3.87945 11.9027 1.12962
78 1 -1.1104 3.87645 6.32115 3.91859
79 1 -1.1104 3.87956 11.9028 3.91941
86 1 -1.1104 6.66583 6.32122 3.91824
84 1 -1.1104 6.66909 11.9027 1.12999
87 1 -1.1104 6.66595 6.32121 1.12912
85 2 2.2208 5.27506 13.2991 -0.264724
241 1 -1.1104 1.08838 9.11212 6.70809
80 1 -1.1104 6.66747 9.11202 3.91901
327 2 2.2208 13.6491 21.6731 5.31564
237 1 -1.1104 3.87634 6.32121 6.70771
349 2 2.2208 13.6419 10.5094 10.8926
169 1 -1.1104 9.46017 14.6942 9.49839
81 2 2.2208 5.27193 7.71768 -0.265591
89 1 -1.1104 6.66897 11.9028 3.91908
82 1 -1.1104 6.66905 11.9029 6.70892
90 1 -1.1104 6.66738 9.11198 1.12919
91 2 2.2208 10.8508 7.71798 5.31335
92 2 2.2208 10.8541 13.2997 5.31427
93 1 -1.1104 12.2463 9.11222 1.12918
94 1 -1.1104 12.2464 9.11232 3.91903
95 1 -1.1104 12.2449 6.32134 1.12909
96 1 -1.1104 12.2481 11.9031 1.13001
97 2 2.2208 10.8525 10.5087 2.52433
98 1 -1.1104 12.2447 6.32144 3.91822
99 1 -1.1104 12.248 11.9032 3.9191
100 1 -1.1104 9.45698 9.11208 1.12954
101 2 2.2208 8.06141 7.71778 2.52388
102 2 2.2208 8.06465 13.2993 2.52477
103 1 -1.1104 9.45685 9.11216 3.91866
104 2 2.2208 8.06296 10.5087 5.31379
105 1 -1.1104 9.45534 6.32127 1.12876
106 1 -1.1104 9.4585 11.9028 1.1296
107 1 -1.1104 9.4554 6.32132 3.91859
108 1 -1.1104 9.45862 11.9029 3.91951
54 2 2.2208 8.06298 10.5085 -0.265168
113 1 -1.1104 12.2448 6.32153 6.70805
29 2 2.2208 10.8541 13.2994 -0.264721
61 2 2.2208 2.48396 10.5085 -0.265187
112 1 -1.1104 12.2463 9.11248 6.70811
268 1 -1.1104 6.66735 9.11213 6.70811
240 1 -1.1104 6.66591 6.32128 6.70806
23 2 2.2208 8.05989 4.92691 -0.265975
60 2 2.2208 10.8509 7.71784 -0.265596
340 2 2.2208 13.6419 10.509 5.3138
31 2 2.2208 2.48721 16.0899 -0.264329
119 2 2.2208 5.27853 18.8806 5.31511
120 1 -1.1104 1.09156 14.6936 1.13002
121 1 -1.1104 1.09493 20.2751 1.13094
122 1 -1.1104 1.09168 14.6938 3.91978
123 1 -1.1104 1.09507 20.2753 3.92063
124 1 -1.1104 1.09339 17.4844 1.13074
125 2 2.2208 5.27678 16.0898 2.52521
126 2 2.2208 5.28034 21.6708 2.52608
127 1 -1.1104 1.09321 17.4846 3.91994
128 1 -1.1104 3.88117 14.6934 1.13038
129 1 -1.1104 3.88466 20.2745 1.13125
130 2 2.2208 2.48895 18.8807 2.52561
131 1 -1.1104 3.88107 14.6935 3.91952
132 1 -1.1104 3.88451 20.2747 3.92042
133 2 2.2208 2.4872 16.0902 5.3146
134 2 2.2208 2.49065 21.6716 5.31546
135 1 -1.1104 3.88278 17.4839 1.1305
136 1 -1.1104 3.88291 17.4841 3.92029
137 1 -1.1104 6.67064 14.6933 1.13006
148 1 -1.1104 6.67079 14.6934 3.91992
117 2 2.2208 5.27851 18.8803 -0.263828
20 2 2.2208 2.48094 4.92682 -0.265956
295 1 -1.1104 3.8827 17.4843 6.7094
294 1 -1.1104 3.88462 20.275 6.71013
140 2 2.2208 2.49065 21.6711 -0.263427
146 1 -1.1104 6.6724 17.484 3.91999
147 1 -1.1104 6.67251 17.4838 1.1309
139 1 -1.1104 6.67435 20.2745 3.92085
145 1 -1.1104 6.67419 20.2742 1.13094
149 2 2.2208 10.8578 18.8813 5.31518
150 1 -1.1104 12.2497 14.6938 1.13004
151 1 -1.1104 12.2534 20.2752 1.13085
152 1 -1.1104 12.2499 14.694 3.92002
153 1 -1.1104 12.2536 20.2756 3.92098
154 1 -1.1104 12.2517 17.4846 1.13095
155 2 2.2208 10.856 16.0902 2.52525
156 2 2.2208 10.8597 21.6715 2.52613
157 1 -1.1104 12.2516 17.4848 3.91997
158 1 -1.1104 9.46032 14.6935 1.13048
159 1 -1.1104 9.46398 20.2746 1.13139
160 2 2.2208 8.06819 18.8805 2.52568
161 1 -1.1104 9.46022 14.6936 3.91954
162 1 -1.1104 9.46387 20.2748 3.92041
163 2 2.2208 8.06637 16.0901 5.3147
164 2 2.2208 8.07005 21.6713 5.31558
165 1 -1.1104 9.46201 17.4841 1.13046
166 1 -1.1104 9.46218 17.4843 3.92047
144 2 2.2208 10.8577 18.8807 -0.263848
110 1 -1.1104 9.46407 20.2754 6.71042
170 1 -1.1104 9.46034 14.6939 6.70945
171 2 2.2208 8.06635 16.0898 -0.264268
329 2 2.2208 13.6419 10.5088 -0.265176
142 2 2.2208 10.8559 16.0909 8.10415
174 1 -1.1104 3.87333 0.739442 6.70699
175 1 -1.1104 3.87187 -2.05147 6.70695
178 1 -1.1104 1.08232 -2.05154 6.70659
177 1 -1.1104 1.08394 0.739382 6.70732
336 2 2.2208 13.6436 13.2998 2.52478
176 1 -1.1104 1.08536 3.53029 6.70733
343 2 2.2208 13.6454 16.0905 -0.264309
179 1 -1.1104 3.87491 3.53033 6.70769
180 2 2.2208 5.26884 2.13599 10.8915
181 1 -1.1104 1.0823 -2.05155 12.2855
182 1 -1.1104 1.08532 3.53033 12.2862
183 1 -1.1104 1.08239 -2.05155 9.49639
184 1 -1.1104 1.08543 3.53034 9.49709
185 1 -1.1104 1.08391 0.739396 12.2862
186 2 2.2208 5.26734 -0.654915 8.10167
187 2 2.2208 5.27036 4.92691 8.10241
188 1 -1.1104 1.08385 0.739392 9.49642
189 1 -1.1104 3.87183 -2.05155 12.2858
190 1 -1.1104 3.87487 3.53033 12.2865
191 2 2.2208 2.47938 2.13596 8.10205
192 1 -1.1104 3.87178 -2.05149 9.49604
193 1 -1.1104 3.87482 3.53034 9.49678
194 2 2.2208 2.47785 -0.654991 10.8911
195 2 2.2208 2.48088 4.92689 10.8918
196 1 -1.1104 3.87329 0.739402 12.2858
197 1 -1.1104 3.87338 0.739423 9.49675
208 1 -1.1104 6.66439 3.5304 9.49712
199 1 -1.1104 6.66428 3.53037 12.2862
168 1 -1.1104 12.2497 14.6944 6.70902
344 2 2.2208 13.6473 18.8815 2.52568
172 1 -1.1104 6.66289 0.739502 6.70732
59 1 -1.1104 9.45226 0.739565 6.70692
210 1 -1.1104 9.45386 3.5305 6.70767
118 1 -1.1104 12.2516 17.4863 12.2886
203 1 -1.1104 6.66279 0.739465 9.49641
202 1 -1.1104 6.66131 -2.05148 9.49636
324 1 -1.1104 12.2534 20.2763 6.70986
198 1 -1.1104 6.66121 -2.05153 12.2855
201 1 -1.1104 6.66283 0.739419 12.2862
57 1 -1.1104 6.66431 3.53041 6.70735
207 1 -1.1104 12.2401 -2.05137 6.7065
209 1 -1.1104 12.2418 0.739583 6.70725
58 1 -1.1104 12.2432 3.53057 6.70733
211 2 2.2208 10.8477 2.13607 10.8914
212 1 -1.1104 12.2401 -2.05156 12.2854
213 1 -1.1104 12.2432 3.53052 12.2862
214 1 -1.1104 12.2402 -2.05146 9.49628
215 1 -1.1104 12.2433 3.53054 9.4971
216 1 -1.1104 12.2417 0.739455 12.2861
217 2 2.2208 10.8462 -0.654842 8.1016
218 1 -1.1104 12.2417 0.739548 9.49635
219 1 -1.1104 9.45072 -2.05156 12.2858
220 1 -1.1104 9.45381 3.53044 12.2865
221 2 2.2208 8.05833 2.13608 8.10204
222 1 -1.1104 9.45068 -2.05145 9.49598
223 1 -1.1104 9.45378 3.53048 9.49676
224 2 2.2208 8.05676 -0.654931 10.8911
225 2 2.2208 8.05983 4.927 10.8918
226 1 -1.1104 9.45222 0.739446 12.2858
227 1 -1.1104 9.45231 0.739501 9.49672
228 2 2.2208 10.8493 4.9271 8.1024
167 1 -1.1104 9.46395 20.2765 12.289
238 1 -1.1104 1.09002 11.903 6.70878
239 1 -1.1104 3.87939 11.9029 6.70852
83 1 -1.1104 3.87796 9.11206 6.70844
242 1 -1.1104 1.08694 6.32121 6.70803
243 2 2.2208 5.27188 7.71784 10.8922
244 2 2.2208 5.27503 13.2996 10.893
245 1 -1.1104 1.08832 9.11226 12.2869
246 1 -1.1104 1.08843 9.11221 9.49781
247 1 -1.1104 1.0869 6.32131 12.2869
248 1 -1.1104 1.08995 11.9032 12.2876
249 2 2.2208 5.27342 10.5087 8.1032
250 1 -1.1104 1.08684 6.32128 9.49714
251 1 -1.1104 1.08988 11.9031 9.4979
252 1 -1.1104 3.87792 9.11218 12.2873
253 2 2.2208 2.48239 7.71778 8.10277
254 2 2.2208 2.4855 13.2995 8.10358
255 1 -1.1104 3.87783 9.11214 9.49753
256 2 2.2208 2.48391 10.5088 10.8926
257 1 -1.1104 3.87632 6.32126 12.2866
258 1 -1.1104 3.87939 11.9031 12.2873
259 1 -1.1104 3.87641 6.32125 9.49748
260 1 -1.1104 3.8795 11.903 9.49827
263 1 -1.1104 6.66589 6.32133 12.2869
326 1 -1.1104 9.46386 20.2761 9.49919
270 1 -1.1104 6.66743 9.11222 9.49789
261 1 -1.1104 6.66892 11.9031 9.49796
262 1 -1.1104 6.66902 11.9032 12.2877
109 1 -1.1104 9.45697 9.11228 6.7085
264 1 -1.1104 6.66581 6.32133 9.49714
269 1 -1.1104 6.66734 9.11226 12.2869
271 1 -1.1104 9.45529 6.3214 6.70771
267 1 -1.1104 12.2481 11.9034 6.70899
111 1 -1.1104 9.45846 11.9031 6.70857
272 1 -1.1104 9.45858 11.9033 9.49839
273 1 -1.1104 9.45537 6.32145 9.4975
274 1 -1.1104 9.45846 11.9035 12.2874
275 1 -1.1104 9.45529 6.32146 12.2865
276 2 2.2208 8.06293 10.5089 10.8926
277 1 -1.1104 9.45683 9.1124 9.49755
278 2 2.2208 8.06459 13.2996 8.10369
279 2 2.2208 8.06137 7.71791 8.10281
280 2 2.2208 10.8508 7.71812 10.8922
281 2 2.2208 10.8541 13.3002 10.8931
282 1 -1.1104 12.2463 9.11269 12.287
283 1 -1.1104 12.2464 9.11261 9.49793
284 1 -1.1104 12.2448 6.32159 12.2869
285 1 -1.1104 12.248 11.9038 12.2878
286 2 2.2208 10.8524 10.509 8.10325
287 1 -1.1104 12.2447 6.32158 9.49713
288 1 -1.1104 12.2479 11.9037 9.49798
289 1 -1.1104 9.45694 9.11246 12.2873
338 2 2.2208 13.6436 13.3003 8.10369
292 1 -1.1104 9.46029 14.6944 12.2882
345 2 2.2208 13.6472 18.8827 8.10457
141 1 -1.1104 1.0915 14.6939 6.70892
234 1 -1.1104 6.67061 14.694 12.2878
298 1 -1.1104 6.67419 20.2748 6.70985
236 1 -1.1104 6.67243 17.4849 12.2886
30 1 -1.1104 12.2536 20.2772 9.49981
138 1 -1.1104 3.88117 14.6936 6.70929
300 1 -1.1104 1.09483 20.2756 6.70983
299 1 -1.1104 1.09328 17.4848 6.70962
304 1 -1.1104 1.0931 17.4851 12.2883
305 2 2.2208 2.48709 16.0905 10.8934
306 2 2.2208 2.49046 21.6722 10.8941
307 1 -1.1104 3.88265 17.4847 12.2881
308 1 -1.1104 3.88446 20.2754 12.2888
309 1 -1.1104 3.88108 14.6939 12.2881
310 1 -1.1104 1.09486 20.2759 9.49939
311 1 -1.1104 1.09309 17.485 9.49874
312 2 2.2208 5.2803 21.6715 8.10487
313 1 -1.1104 1.09155 14.6941 9.49859
314 2 2.2208 5.27674 16.0902 8.10408
315 1 -1.1104 1.09466 20.276 12.2885
316 1 -1.1104 1.09141 14.6942 12.2877
317 2 2.2208 5.27846 18.8812 10.8938
318 1 -1.1104 3.88441 20.2753 9.49918
319 2 2.2208 2.48884 18.8812 8.10441
320 1 -1.1104 3.88282 17.4846 9.49912
321 1 -1.1104 3.88099 14.6938 9.49836
115 1 -1.1104 12.2498 14.6948 9.49887
116 1 -1.1104 9.46214 17.4852 9.49935
325 2 2.2208 8.07 21.6724 10.8942
231 2 2.2208 10.8577 18.8824 10.8939
265 2 2.2208 8.06817 18.8812 8.10456
88 2 2.2208 8.06633 16.0907 10.8935
301 1 -1.1104 6.67061 14.6936 6.70899
323 1 -1.1104 12.2497 14.695 12.2877
204 1 -1.1104 9.46198 17.4847 6.70944
302 1 -1.1104 6.67417 20.2756 12.2884
235 1 -1.1104 6.67434 20.2753 9.49965
296 1 -1.1104 6.67252 17.4843 6.70987
322 1 -1.1104 6.67073 14.6939 9.49881
291 1 -1.1104 12.2533 20.2779 12.2884
303 1 -1.1104 6.67236 17.4846 9.49881
293 1 -1.1104 9.46197 17.4854 12.2881
230 1 -1.1104 12.2517 17.4853 6.70997
297 1 -1.1104 12.2515 17.4859 9.4988
143 2 2.2208 10.8596 21.6729 8.105
332 2 2.2208 13.6357 -0.654823 5.31214
335 2 2.2208 13.6373 2.13611 2.5231
333 2 2.2208 13.6372 2.13615 8.10201
334 2 2.2208 13.6388 4.92713 5.31296
330 2 2.2208 13.6356 -0.654926 10.891
337 2 2.2208 13.6388 4.92696 -0.266003
346 2 2.2208 13.6387 4.92716 10.8918
348 2 2.2208 13.6403 7.71819 8.1028
331 2 2.2208 13.6357 -0.654936 -0.266758
350 2 2.2208 13.6403 7.71797 2.52388
351 2 2.2208 5.26883 2.13591 16.4703
352 1 -1.1104 1.0823 -2.05163 17.8643
353 1 -1.1104 1.08536 3.5303 17.865
354 1 -1.1104 1.08236 -2.05159 15.0753
355 1 -1.1104 1.08541 3.53035 15.0759
356 1 -1.1104 1.08391 0.739358 17.865
357 2 2.2208 5.26729 -0.65502 19.2594
358 2 2.2208 5.2704 4.92682 19.2601
359 1 -1.1104 1.08382 0.739386 15.0753
360 1 -1.1104 3.87181 -2.0516 17.8647
361 1 -1.1104 3.87489 3.53026 17.8653
362 2 2.2208 2.47937 2.13591 19.2597
363 1 -1.1104 3.87173 -2.05158 15.0749
364 1 -1.1104 3.87483 3.53031 15.0756
365 2 2.2208 2.47782 -0.655033 16.47
366 1 -1.1104 3.87329 0.739344 17.8647
367 1 -1.1104 3.87335 0.739374 15.0756
368 2 2.2208 2.4809 4.92687 16.4706
439 2 2.2208 5.27036 4.9269 13.6812
537 1 -1.1104 1.08238 -2.0516 20.6541
380 1 -1.1104 6.66435 3.53031 15.0759
372 2 2.2208 5.26729 -0.654998 13.6805
679 2 2.2208 13.6488 21.6725 22.0515
699 2 2.2208 13.6436 13.2997 24.8401
688 2 2.2208 13.6435 13.3006 13.6824
694 2 2.2208 13.6419 10.5093 16.4714
383 1 -1.1104 6.66431 3.53027 17.865
374 1 -1.1104 6.66275 0.739365 15.0753
371 1 -1.1104 6.66126 -2.0516 15.0752
376 1 -1.1104 6.6612 -2.0516 17.8644
377 1 -1.1104 6.66283 0.739336 17.865
384 2 2.2208 10.8477 2.13593 16.4703
385 1 -1.1104 12.2401 -2.0517 17.8642
386 1 -1.1104 12.2432 3.53033 17.865
387 1 -1.1104 12.2402 -2.05167 15.0751
388 1 -1.1104 12.2432 3.53043 15.0759
389 1 -1.1104 12.2417 0.7393 17.8649
390 2 2.2208 10.8462 -0.655102 19.2593
391 2 2.2208 10.8493 4.92688 19.26
392 1 -1.1104 12.2416 0.739378 15.0752
393 1 -1.1104 9.45074 -2.05165 17.8646
394 1 -1.1104 9.45383 3.53032 17.8653
395 2 2.2208 8.05831 2.1359 19.2597
396 1 -1.1104 9.45065 -2.05163 15.0749
397 1 -1.1104 9.45374 3.53035 15.0756
398 2 2.2208 8.05673 -0.655058 16.4699
399 2 2.2208 8.05983 4.9269 16.4706
400 1 -1.1104 9.45222 0.739329 17.8646
401 1 -1.1104 9.45226 0.739343 15.0756
526 2 2.2208 10.8462 -0.655024 13.6805
408 1 -1.1104 9.45068 -2.05163 20.6537
570 1 -1.1104 6.66442 3.53026 20.6548
530 1 -1.1104 6.6613 -2.05156 20.6541
404 1 -1.1104 12.2433 3.5303 20.6547
561 1 -1.1104 6.66278 0.739363 20.6541
573 1 -1.1104 9.45232 0.73932 20.6544
407 1 -1.1104 9.4538 3.53026 20.6544
402 2 2.2208 8.05827 2.13597 13.6809
435 2 2.2208 10.8493 4.92705 13.6812
370 2 2.2208 2.47936 2.13595 13.6809
693 2 2.2208 13.647 18.8834 13.6831
412 2 2.2208 5.27191 7.71777 16.471
413 2 2.2208 5.27501 13.2995 16.4718
414 1 -1.1104 1.08838 9.11217 17.8657
415 1 -1.1104 1.08842 9.11227 15.0766
416 1 -1.1104 1.08695 6.32126 17.8657
417 1 -1.1104 1.08995 11.9031 17.8664
418 2 2.2208 5.27345 10.5086 19.2608
419 1 -1.1104 1.08685 6.3213 15.0759
420 1 -1.1104 1.08987 11.9032 15.0767
421 1 -1.1104 3.87795 9.11206 17.8661
422 2 2.2208 2.48244 7.71773 19.2604
423 2 2.2208 2.48546 13.2994 19.2612
424 1 -1.1104 3.87786 9.11216 15.0763
425 2 2.2208 2.48392 10.5087 16.4714
426 1 -1.1104 3.87638 6.32116 17.8654
427 1 -1.1104 3.87944 11.9029 17.8661
428 1 -1.1104 3.87641 6.32125 15.0763
429 1 -1.1104 3.87946 11.9031 15.077
432 1 -1.1104 6.66592 6.3212 17.8657
592 2 2.2208 2.48545 13.2997 13.6823
691 2 2.2208 13.6488 21.6746 16.4726
433 1 -1.1104 6.66584 6.32127 15.0759
437 1 -1.1104 6.6674 9.1121 17.8657
469 2 2.2208 5.27343 10.5088 13.682
405 1 -1.1104 12.2533 20.2753 23.4459
440 2 2.2208 2.48239 7.71785 13.6816
441 1 -1.1104 6.66745 9.11221 15.0767
625 1 -1.1104 6.66747 9.11201 20.6555
436 1 -1.1104 6.66895 11.9031 15.0767
431 1 -1.1104 6.66903 11.903 17.8665
442 2 2.2208 10.8508 7.71799 16.471
443 2 2.2208 10.8541 13.3001 16.4718
444 1 -1.1104 12.2464 9.11248 17.8657
445 1 -1.1104 12.2464 9.11262 15.0767
446 1 -1.1104 12.2448 6.3214 17.8657
447 1 -1.1104 12.248 11.9036 17.8665
448 2 2.2208 10.8524 10.5089 19.2608
449 1 -1.1104 12.2447 6.32151 15.0759
450 1 -1.1104 12.248 11.9038 15.0767
451 1 -1.1104 9.45698 9.11226 17.8661
452 2 2.2208 8.0614 7.71777 19.2604
453 2 2.2208 8.06456 13.2995 19.2612
454 1 -1.1104 9.45688 9.11239 15.0763
455 2 2.2208 8.06296 10.5088 16.4714
456 1 -1.1104 9.45533 6.3213 17.8653
457 1 -1.1104 9.4585 11.9032 17.8661
458 1 -1.1104 9.45537 6.32138 15.0763
459 1 -1.1104 9.45855 11.9034 15.0771
468 2 2.2208 8.06458 13.2999 13.6824
430 2 2.2208 8.06138 7.71793 13.6816
466 2 2.2208 10.8524 10.5092 13.682
462 1 -1.1104 9.45689 9.11213 20.6551
629 1 -1.1104 9.45542 6.32121 20.6551
564 1 -1.1104 6.6707 14.6933 26.2353
571 1 -1.1104 12.2496 14.6939 23.4453
677 1 -1.1104 9.4602 14.6936 23.4458
502 2 2.2208 5.27666 16.0905 13.6828
379 2 2.2208 5.28016 21.6719 13.6835
472 2 2.2208 5.27835 18.881 16.4725
473 1 -1.1104 1.09142 14.6939 17.8665
474 1 -1.1104 1.09465 20.2755 17.8672
475 1 -1.1104 1.09145 14.6941 15.0773
476 1 -1.1104 1.09462 20.2759 15.078
477 1 -1.1104 1.09304 17.4848 17.8671
478 2 2.2208 5.27663 16.0901 19.2616
479 2 2.2208 5.28007 21.6711 19.2623
480 1 -1.1104 1.09301 17.485 15.0774
481 1 -1.1104 3.88101 14.6937 17.8668
482 1 -1.1104 3.88432 20.275 17.8676
483 2 2.2208 2.48869 18.8809 19.2619
484 1 -1.1104 3.88097 14.6939 15.0771
485 1 -1.1104 3.88433 20.2753 15.0778
486 2 2.2208 2.48702 16.0904 16.4721
487 2 2.2208 2.49031 21.6718 16.4728
488 1 -1.1104 3.88263 17.4844 17.8669
489 1 -1.1104 3.88267 17.4847 15.0778
470 2 2.2208 2.4887 18.8814 13.6831
496 1 -1.1104 6.67413 20.2755 15.0782
490 1 -1.1104 6.67229 17.4844 17.8673
497 1 -1.1104 6.67231 17.4848 15.0775
655 1 -1.1104 1.09473 20.2751 20.6569
500 1 -1.1104 3.88435 20.2746 20.6567
648 2 2.2208 10.8595 21.6713 24.8412
504 1 -1.1104 6.67058 14.6937 17.8665
494 1 -1.1104 6.67409 20.2751 17.8671
523 2 2.2208 10.8558 16.0913 13.6828
495 1 -1.1104 6.67063 14.694 15.0775
505 2 2.2208 10.8576 18.8822 16.4724
506 1 -1.1104 12.2497 14.6947 17.8664
507 1 -1.1104 12.2533 20.277 17.8668
508 1 -1.1104 12.2497 14.6949 15.0775
509 1 -1.1104 12.2533 20.2777 15.0782
510 1 -1.1104 12.2514 17.4858 17.8672
511 2 2.2208 10.8558 16.0907 19.2615
512 2 2.2208 10.8594 21.6725 19.262
513 1 -1.1104 12.2514 17.4863 15.0773
514 1 -1.1104 9.46019 14.6941 17.8669
515 1 -1.1104 9.46372 20.2758 17.8675
516 2 2.2208 8.06799 18.881 19.2619
517 1 -1.1104 9.46016 14.6944 15.0771
518 1 -1.1104 9.46381 20.2764 15.0776
519 2 2.2208 8.06624 16.0906 16.4722
520 2 2.2208 8.06984 21.6722 16.4727
521 1 -1.1104 9.46192 17.485 17.8667
522 1 -1.1104 9.46198 17.4854 15.0779
618 1 -1.1104 9.46374 20.2751 20.6564
411 1 -1.1104 12.2532 20.276 20.6569
524 2 2.2208 8.06807 18.8817 13.6832
527 1 -1.1104 12.2497 14.6942 20.6563
525 1 -1.1104 6.67063 14.6935 20.6563
503 2 2.2208 10.8595 21.6738 13.6834
565 2 2.2208 8.06626 16.09 22.0511
534 1 -1.1104 3.87338 0.739345 20.6545
535 1 -1.1104 1.08385 0.739341 20.6541
378 1 -1.1104 1.08547 3.53028 20.6548
680 2 2.2208 13.6419 10.5089 22.0502
538 1 -1.1104 3.87487 3.53025 20.6544
536 1 -1.1104 3.87175 -2.05158 20.6538
700 2 2.2208 13.6471 18.8813 24.8408
539 2 2.2208 5.26888 2.13593 22.0492
540 1 -1.1104 1.08233 -2.05159 23.4432
541 1 -1.1104 1.08542 3.53026 23.4439
542 1 -1.1104 1.08242 -2.05157 26.233
543 1 -1.1104 1.08548 3.53028 26.2337
544 1 -1.1104 1.08395 0.739355 23.4439
545 2 2.2208 5.26734 -0.654908 24.8383
546 1 -1.1104 1.08388 0.739361 26.233
547 1 -1.1104 3.87187 -2.05151 23.4435
548 1 -1.1104 3.87495 3.53027 23.4442
549 2 2.2208 2.47941 2.13594 24.8386
550 1 -1.1104 3.8718 -2.05146 26.2326
551 1 -1.1104 3.87487 3.5303 26.2333
552 2 2.2208 2.47786 -0.655011 22.0488
553 1 -1.1104 3.87333 0.739396 23.4436
554 1 -1.1104 3.87342 0.739442 26.2333
555 2 2.2208 5.27042 4.92683 24.8389
556 2 2.2208 2.48094 4.9268 22.0495
558 1 -1.1104 6.66436 3.53031 23.4439
559 1 -1.1104 6.66137 -2.05139 26.233
569 1 -1.1104 6.66124 -2.05149 23.4432
696 2 2.2208 13.647 18.8824 19.2617
653 1 -1.1104 6.67236 17.4839 23.4462
690 2 2.2208 13.6452 16.0917 16.4721
471 1 -1.1104 9.46192 17.4842 23.4457
650 1 -1.1104 6.67236 17.4838 26.2353
563 1 -1.1104 6.66444 3.53035 26.2336
557 1 -1.1104 6.6629 0.739426 23.4439
562 1 -1.1104 6.6628 0.739503 26.233
410 1 -1.1104 12.2402 -2.0517 20.654
409 1 -1.1104 12.2417 0.739292 20.654
574 2 2.2208 10.8478 2.13591 22.0491
575 1 -1.1104 12.2402 -2.05161 23.4431
576 1 -1.1104 12.2433 3.53032 23.4438
577 1 -1.1104 12.2403 -2.05153 26.2328
578 1 -1.1104 12.2434 3.53037 26.2336
579 1 -1.1104 12.2418 0.739351 23.4438
580 2 2.2208 10.8463 -0.654954 24.8382
581 1 -1.1104 12.2417 0.739436 26.2329
582 1 -1.1104 9.45081 -2.05153 23.4435
583 1 -1.1104 9.4539 3.53031 23.4442
584 2 2.2208 8.05836 2.136 24.8386
585 1 -1.1104 9.45074 -2.05142 26.2326
586 1 -1.1104 9.45382 3.53037 26.2333
587 2 2.2208 8.05679 -0.654986 22.0488
588 1 -1.1104 9.45226 0.739405 23.4435
589 1 -1.1104 9.45236 0.739484 26.2333
590 2 2.2208 10.8493 4.92689 24.8389
591 2 2.2208 8.05989 4.92683 22.0495
532 1 -1.1104 9.46204 17.4841 26.2358
567 1 -1.1104 6.67057 14.6934 23.4454
597 1 -1.1104 1.08846 9.11207 20.6555
438 1 -1.1104 1.08988 11.9029 20.6555
596 1 -1.1104 3.87648 6.32114 20.6551
594 1 -1.1104 3.87946 11.9028 20.6559
593 1 -1.1104 1.08693 6.32118 20.6548
434 1 -1.1104 3.87789 9.11199 20.6552
598 2 2.2208 5.27192 7.71768 22.0498
599 2 2.2208 5.275 13.2992 22.0507
600 1 -1.1104 1.08836 9.11202 23.4446
601 1 -1.1104 1.08847 9.11199 26.2344
602 1 -1.1104 1.087 6.32117 23.4445
603 1 -1.1104 1.08995 11.9028 23.4453
604 2 2.2208 5.27343 10.5085 24.8397
605 1 -1.1104 1.08692 6.32116 26.2337
606 1 -1.1104 1.08991 11.9028 26.2345
607 1 -1.1104 3.87795 9.11195 23.4449
608 2 2.2208 2.48244 7.71767 24.8393
609 2 2.2208 2.4855 13.2992 24.8401
610 1 -1.1104 3.87787 9.11192 26.2341
611 2 2.2208 2.48392 10.5085 22.0502
612 1 -1.1104 3.87639 6.32112 23.4442
613 1 -1.1104 3.87939 11.9027 23.445
614 1 -1.1104 3.87647 6.32113 26.234
615 1 -1.1104 3.87951 11.9027 26.2348
616 1 -1.1104 6.66895 11.9027 26.2345
566 1 -1.1104 12.2515 17.4845 26.2352
689 2 2.2208 13.6435 13.3002 19.2611
622 1 -1.1104 9.45852 11.903 20.6559
620 1 -1.1104 6.66894 11.9028 20.6556
626 1 -1.1104 6.66596 6.32116 23.4445
628 1 -1.1104 6.669 11.9027 23.4454
627 1 -1.1104 6.66736 9.11197 23.4446
624 1 -1.1104 6.66746 9.11198 26.2344
460 1 -1.1104 6.66588 6.32115 20.6548
461 1 -1.1104 12.2448 6.3213 20.6548
621 1 -1.1104 12.248 11.9033 20.6555
623 1 -1.1104 6.66586 6.32119 26.2337
463 1 -1.1104 12.2464 9.1123 20.6555
630 1 -1.1104 9.45695 9.11208 23.4449
631 1 -1.1104 12.248 11.903 26.2344
632 1 -1.1104 12.2448 6.32129 26.2336
633 2 2.2208 10.8524 10.5087 24.8397
634 1 -1.1104 12.248 11.9031 23.4453
635 1 -1.1104 12.2449 6.32127 23.4445
636 1 -1.1104 12.2464 9.11219 26.2344
637 1 -1.1104 12.2463 9.11221 23.4446
638 1 -1.1104 9.45856 11.9028 26.2348
639 1 -1.1104 9.45543 6.32124 26.234
640 1 -1.1104 9.45845 11.9029 23.445
641 1 -1.1104 9.45534 6.32121 23.4442
642 2 2.2208 8.06295 10.5086 22.0503
643 1 -1.1104 9.45688 9.11207 26.234
644 2 2.2208 8.06458 13.2992 24.8401
645 2 2.2208 8.06141 7.71773 24.8393
646 2 2.2208 10.8509 7.71782 22.0498
647 2 2.2208 10.8541 13.2996 22.0506
697 2 2.2208 13.6452 16.0908 22.0509
617 2 2.2208 8.06807 18.8804 24.841
652 2 2.2208 10.8558 16.0902 24.8405
491 1 -1.1104 9.46017 14.6935 26.2349
501 1 -1.1104 3.88267 17.4841 20.6567
499 1 -1.1104 1.09149 14.6937 20.6562
492 1 -1.1104 3.88099 14.6935 20.6559
498 1 -1.1104 1.09306 17.4845 20.6563
657 2 2.2208 2.49044 21.6711 22.0518
658 1 -1.1104 3.88269 17.4839 23.4458
659 1 -1.1104 1.0932 17.4843 23.4461
660 1 -1.1104 3.88104 14.6933 26.2349
661 1 -1.1104 3.88284 17.4839 26.2357
662 2 2.2208 2.48884 18.8805 24.841
663 1 -1.1104 3.88446 20.2744 26.2358
664 2 2.2208 5.27837 18.8804 22.0515
665 1 -1.1104 1.09146 14.6936 23.4454
666 1 -1.1104 1.0948 20.2749 23.4462
667 2 2.2208 5.27671 16.0898 24.8406
668 2 2.2208 5.28019 21.6706 24.8414
669 1 -1.1104 1.09161 14.6936 26.2352
670 1 -1.1104 1.09319 17.4843 26.2353
671 1 -1.1104 1.095 20.2749 26.236
672 1 -1.1104 3.88106 14.6934 23.4458
673 1 -1.1104 3.88445 20.2744 23.4466
674 2 2.2208 2.48708 16.09 22.051
656 1 -1.1104 6.67422 20.2742 26.2362
678 1 -1.1104 6.67407 20.2743 23.4462
649 2 2.2208 10.8576 18.8811 22.0513
651 1 -1.1104 9.46375 20.2746 23.4465
675 2 2.2208 8.06981 21.6709 22.0517
619 1 -1.1104 9.46379 20.2745 26.2357
406 1 -1.1104 9.46015 14.6938 20.6559
595 1 -1.1104 12.2514 17.4852 20.6561
568 1 -1.1104 12.2515 17.4847 23.4461
654 1 -1.1104 6.67405 20.2745 20.657
493 1 -1.1104 12.2498 14.6938 26.2353
676 1 -1.1104 12.2534 20.2751 26.2361
572 1 -1.1104 6.67228 17.4841 20.6563
528 1 -1.1104 9.46192 17.4845 20.6567
681 2 2.2208 13.6356 -0.655107 16.4699
686 2 2.2208 13.6387 4.92703 16.4706
687 2 2.2208 13.6372 2.13589 19.2597
695 2 2.2208 13.6402 7.71823 13.6816
698 2 2.2208 13.6403 7.718 19.2604
684 2 2.2208 13.6388 4.9269 22.0495
682 2 2.2208 13.6357 -0.655111 22.0487
683 2 2.2208 13.6372 2.13596 24.8385
692 2 2.2208 13.6403 7.71788 24.8393
685 2 2.2208 13.6371 2.13604 13.6809
701 2 2.2208 5.28214 24.4616 5.31585
702 2 2.2208 5.28607 30.0419 5.31648
703 1 -1.1104 1.09837 25.8563 1.13176
704 1 -1.1104 1.09843 25.8566 3.92134
705 1 -1.1104 1.09679 23.0657 1.13159
706 1 -1.1104 1.10039 28.6468 1.13223
707 2 2.2208 5.28404 27.2514 2.52689
708 1 -1.1104 1.0966 23.066 3.92086
709 1 -1.1104 1.10005 28.6472 3.92153
710 1 -1.1104 3.88818 25.8552 1.13199
711 2 2.2208 2.49245 24.4619 2.52645
712 2 2.2208 2.49634 30.0427 2.52719
713 1 -1.1104 3.88799 25.8554 3.92118
714 2 2.2208 2.49419 27.2527 5.31613
715 1 -1.1104 3.88626 23.0649 1.13134
716 1 -1.1104 3.88986 28.6453 1.13212
717 1 -1.1104 3.88642 23.0651 3.92106
718 1 -1.1104 3.88997 28.6456 3.92172
730 1 -1.1104 6.67973 28.6448 3.92146
733 1 -1.1104 6.678 25.8549 3.92157
732 1 -1.1104 6.67778 25.8546 1.13168
871 1 -1.1104 3.88806 25.8557 6.71082
725 1 -1.1104 3.8862 23.0654 6.71022
806 2 2.2208 8.07767 32.8309 -0.2608
808 2 2.2208 8.08258 38.4128 -0.260483
721 2 2.2208 2.49428 27.2519 -0.262572
841 2 2.2208 8.09144 41.2139 8.11309
720 1 -1.1104 6.676 23.0648 3.92079
719 1 -1.1104 6.67991 28.6446 1.13252
731 1 -1.1104 6.67611 23.0645 1.13172
734 2 2.2208 10.8616 24.4628 5.31606
735 2 2.2208 10.8657 30.0441 5.31717
736 1 -1.1104 12.2572 25.8561 1.13155
737 1 -1.1104 12.2576 25.8569 3.92197
738 1 -1.1104 12.2554 23.0657 1.13181
739 1 -1.1104 12.2595 28.6463 1.13274
740 2 2.2208 10.8635 27.2524 2.52708
741 1 -1.1104 12.2553 23.0663 3.92081
742 1 -1.1104 12.2593 28.6473 3.92171
743 1 -1.1104 9.46775 25.855 1.1322
744 2 2.2208 8.07189 24.4612 2.52653
745 2 2.2208 8.07588 30.0416 2.52755
746 1 -1.1104 9.46761 25.8555 3.92115
747 2 2.2208 8.07386 27.2521 5.31632
748 1 -1.1104 9.46569 23.0649 1.13125
749 1 -1.1104 9.4695 28.645 1.13203
750 1 -1.1104 9.46594 23.0653 3.92136
751 1 -1.1104 9.46995 28.6456 3.92227
904 1 -1.1104 9.46573 23.0659 6.71023
755 2 2.2208 10.8614 24.4616 -0.263068
753 2 2.2208 10.8653 30.0418 -0.261908
900 1 -1.1104 9.46963 28.6463 6.71096
754 2 2.2208 8.07368 27.251 -0.262494
758 2 2.2208 5.2911 35.622 5.3172
759 1 -1.1104 1.10214 31.4373 1.13238
760 1 -1.1104 1.10681 37.0188 1.13273
761 1 -1.1104 1.10207 31.4376 3.92182
762 1 -1.1104 1.10638 37.0187 3.92192
763 1 -1.1104 1.10449 34.228 1.13283
764 2 2.2208 5.28835 32.8319 2.5279
765 2 2.2208 5.2938 38.4128 2.52832
766 1 -1.1104 1.10406 34.228 3.9218
767 1 -1.1104 3.89204 31.4356 1.13275
768 1 -1.1104 3.89644 37.0163 1.13338
769 2 2.2208 2.50136 35.6238 2.52789
770 1 -1.1104 3.89178 31.4355 3.92177
771 1 -1.1104 3.89612 37.0151 3.92178
772 2 2.2208 2.49852 32.8333 5.31658
773 2 2.2208 2.50519 38.4139 5.31634
774 1 -1.1104 3.89393 34.2257 1.13285
775 1 -1.1104 3.89392 34.2255 3.92224
779 1 -1.1104 6.68166 31.4344 1.1326
778 1 -1.1104 6.68397 34.2236 3.92204
786 1 -1.1104 6.68598 37.0126 3.92262
787 1 -1.1104 6.68627 37.0144 1.13295
928 1 -1.1104 3.89638 37.0141 6.71168
929 1 -1.1104 3.8917 31.4354 6.71131
757 2 2.2208 2.50477 38.4147 -0.260044
776 2 2.2208 5.29068 35.622 -0.260285
955 1 -1.1104 6.68178 31.4345 6.71105
923 1 -1.1104 1.10384 34.2279 6.71122
782 1 -1.1104 1.10164 31.4378 6.7111
1014 1 -1.1104 9.35146 45.3894 9.38033
777 2 2.2208 2.49855 32.8327 -0.261494
784 1 -1.1104 6.68405 34.2245 1.13349
785 1 -1.1104 6.68198 31.4345 3.92229
788 2 2.2208 10.8703 35.6251 5.31856
789 1 -1.1104 12.2613 31.4362 1.13245
790 1 -1.1104 12.2658 37.0153 1.13297
791 1 -1.1104 12.2621 31.4374 3.92329
792 1 -1.1104 12.2674 37.0157 3.92352
793 1 -1.1104 12.264 34.226 1.13362
794 2 2.2208 10.8677 32.833 2.52851
795 2 2.2208 10.8701 38.4136 2.52994
796 1 -1.1104 12.264 34.2269 3.92281
797 1 -1.1104 9.47192 31.4349 1.13324
798 1 -1.1104 9.47606 37.0147 1.13384
799 2 2.2208 8.08027 35.6221 2.52899
800 1 -1.1104 9.4718 31.4351 3.92197
801 1 -1.1104 9.47619 37.0133 3.92258
802 2 2.2208 8.07828 32.8322 5.31713
803 2 2.2208 8.08247 38.4122 5.31964
804 1 -1.1104 9.47367 34.2245 1.13312
805 1 -1.1104 9.47455 34.2247 3.92321
1033 2 2.2208 13.6623 38.4193 5.31717
1034 2 2.2208 13.6592 35.6254 2.52884
951 1 -1.1104 9.47429 34.2241 6.71178
870 1 -1.1104 9.36589 48.0358 6.69789
956 1 -1.1104 12.2651 34.2299 6.7144
958 1 -1.1104 9.47799 37.0108 6.71368
722 2 2.2208 5.28594 30.0412 -0.261869
807 2 2.2208 10.869 35.6217 -0.260083
813 2 2.2208 5.29745 41.2007 5.31657
814 2 2.2208 5.29133 46.7865 5.30149
815 1 -1.1104 1.11342 42.6029 1.13139
816 1 -1.1104 1.11146 42.6024 3.9197
817 1 -1.1104 1.11 39.8105 1.13318
818 1 -1.1104 1.11723 45.3961 1.13061