LAMMPS (29 Oct 2020)
OMP_NUM_THREADS environment is not set. Defaulting to 1 thread. (../comm.cpp:94)
  using 1 OpenMP thread(s) per MPI task
OMP_NUM_THREADS environment is not set. Defaulting to 1 thread. (../comm.cpp:94)
  using 1 OpenMP thread(s) per MPI task
Reading data file ...
  orthogonal box = (-0.43283249 -5.3144693 -0.43630999) to (27.772832 333.39447 27.776310)
  2 by 13 by 2 MPI processor grid
  reading atoms ...
  17640 atoms
  reading velocities ...
  17640 velocities
Finding 1-2 1-3 1-4 neighbors ...
  special bond factors lj:    0.0      0.0      0.0     
  special bond factors coul:  0.0      0.0      0.0     
     0 = max # of 1-2 neighbors
     0 = max # of 1-3 neighbors
     0 = max # of 1-4 neighbors
     1 = max # of special neighbors
  special bonds CPU = 0.004 seconds
  read_data CPU = 0.067 seconds
Setting atom values ...
  11760 settings made for charge
Setting atom values ...
  5880 settings made for charge
PPPM initialization ...
  using 12-bit tables for long-range coulomb (../kspace.cpp:328)
  G vector (1/distance) = 0.29850373
  grid = 40 240 40
  stencil order = 5
  estimated absolute RMS force accuracy = 0.00015874665
  estimated relative force accuracy = 1.1024344e-05
  using single precision MKL FFT
  3d grid and FFT values/proc = 15000 7600
Neighbor list info ...
  update every 1 steps, delay 0 steps, check yes
  max neighbors/atom: 2000, page size: 100000
  master list distance cutoff = 11.3
  ghost atom cutoff = 11.3
  binsize = 5.65, bins = 5 60 5
  2 neighbor lists, perpetual/occasional/extra = 2 0 0
  (1) pair coul/long, perpetual
      attributes: half, newton on
      pair build: half/bin/newton
      stencil: half/bin/3d/newton
      bin: standard
  (2) pair eam/alloy, perpetual, copy from (1)
      attributes: half, newton on
      pair build: copy
      stencil: none
      bin: none
Setting up Verlet run ...
  Unit style    : metal
  Current step  : 0
  Time step     : 0.001
Per MPI rank memory allocation (min/avg/max) = 8.147 | 8.170 | 8.186 Mbytes
Step Temp E_pair E_mol TotEng Press 
       0         1200   -228947.24            0   -226211.21    972.84587 
  100000    1197.8155   -228950.72            0   -226219.68    851.27561 
Loop time of 666.575 on 52 procs for 100000 steps with 17640 atoms

Performance: 12.962 ns/day, 1.852 hours/ns, 150.021 timesteps/s
99.8% CPU use with 52 MPI tasks x 1 OpenMP threads

MPI task timing breakdown:
Section |  min time  |  avg time  |  max time  |%varavg| %total
---------------------------------------------------------------
Pair    | 431.38     | 443.45     | 460.99     |  32.1 | 66.53
Bond    | 0.0059833  | 0.0099984  | 0.014518   |   1.9 |  0.00
Kspace  | 134.51     | 154.02     | 169.35     |  58.7 | 23.11
Neigh   | 41.87      | 45.005     | 49.411     |  27.0 |  6.75
Comm    | 17.696     | 19.677     | 22.103     |  20.5 |  2.95
Output  | 5.6864e-05 | 6.219e-05  | 0.00026281 |   0.0 |  0.00
Modify  | 2.0022     | 2.9563     | 4.761      |  48.4 |  0.44
Other   |            | 1.456      |            |       |  0.22

Nlocal:        339.231 ave         365 max         319 min
Histogram: 1 6 9 10 5 10 6 1 2 2
Nghost:        3980.50 ave        4081 max        3877 min
Histogram: 5 2 3 9 14 1 4 2 4 8
Neighs:        67220.2 ave       73380 max       61151 min
Histogram: 3 4 3 4 14 9 6 3 4 2

Total # of neighbors = 3495453
Ave neighs/atom = 198.15493
Ave special neighs/atom = 0.0000000
Neighbor list builds = 21969
Dangerous builds = 0
11760 atoms in group oxygen
PPPM initialization ...
  using 12-bit tables for long-range coulomb (../kspace.cpp:328)
  G vector (1/distance) = 0.29850373
  grid = 40 240 40
  stencil order = 5
  estimated absolute RMS force accuracy = 0.00015874665
  estimated relative force accuracy = 1.1024344e-05
  using single precision MKL FFT
  3d grid and FFT values/proc = 15000 7600
Setting up Verlet run ...
  Unit style    : metal
  Current step  : 0
  Time step     : 0.001
Per MPI rank memory allocation (min/avg/max) = 8.398 | 8.421 | 8.437 Mbytes
Step f_2 Temp v_Tdiff v_deltaT 
       0            0    1197.8155            0            0 
  100000    1301.5259    1200.4685  0.049879747    579.09923 
  200000    2528.0111    1201.0684  0.058378605    677.77019 
  300000    3746.4354    1194.3158  0.060059267    697.28251 
  400000    4977.8407     1188.793  0.058524886    679.46849 
  500000    6198.4111    1194.2381  0.059929138    695.77173 
  600000    7427.2619    1191.7505  0.058328071    677.18349 
  700000    8663.8998    1208.5058   0.05886111    683.37202 
  800000     9881.605    1206.6953  0.060571474    703.22919 
  900000    11109.869     1198.563  0.059134475    686.54577 
 1000000    12346.942    1194.7598   0.05872804    681.82708 
Loop time of 6684.9 on 52 procs for 1000000 steps with 17640 atoms

Performance: 12.925 ns/day, 1.857 hours/ns, 149.591 timesteps/s
99.8% CPU use with 52 MPI tasks x 1 OpenMP threads

MPI task timing breakdown:
Section |  min time  |  avg time  |  max time  |%varavg| %total
---------------------------------------------------------------
Pair    | 4265.4     | 4417.5     | 4605       | 108.6 | 66.08
Bond    | 0.065138   | 0.099105   | 0.14604    |   6.7 |  0.00
Kspace  | 1335.5     | 1546.9     | 1688.4     | 185.0 | 23.14
Neigh   | 449.48     | 483.43     | 529.52     |  80.2 |  7.23
Comm    | 179.19     | 201.92     | 223.46     |  70.8 |  3.02
Output  | 0.0011059  | 0.0011788  | 0.0023436  |   0.5 |  0.00
Modify  | 5.5813     | 6.2095     | 6.9633     |  12.6 |  0.09
Other   |            | 28.84      |            |       |  0.43

Nlocal:        339.231 ave         358 max         321 min
Histogram: 3 7 7 4 3 10 4 5 6 3
Nghost:        3989.29 ave        4098 max        3910 min
Histogram: 4 5 10 7 7 6 6 2 4 1
Neighs:        67212.1 ave       71937 max       61827 min
Histogram: 4 5 1 8 5 3 8 9 6 3

Total # of neighbors = 3495027
Ave neighs/atom = 198.13078
Ave special neighs/atom = 0.0000000
Neighbor list builds = 236257
Dangerous builds = 0
Total wall time: 2:02:32
