LAMMPS data file via write_data, version 29 Oct 2020, timestep = 100132

17760 atoms
3 atom types

-0.37351369551170555 27.713513695511647 xlo xhi
-4.624775573548907 332.7047755735671 ylo yhi
-0.36999021068390014 27.709990210684058 zlo zhi

Masses

1 15.9994
2 232.0381
3 131.293

Atoms # full

1 0 2 2.2208 5.188600673200704 0.9958355062868535 5.374850832462957 0 0 0
2 0 1 -1.1104 1.0114297225369422 -3.303463625366407 1.0433261152767777 0 0 0
3 0 1 -1.1104 1.0174981916950752 2.371128078507018 0.8431365653146743 0 0 0
6 0 1 -1.1104 1.0233486755877164 -3.3734454268356675 3.8441076631869686 0 0 0
7 0 1 -1.1104 1.0212891072097516 2.4650268864019935 3.8920766902340844 0 0 0
10 0 1 -1.1104 1.1424991552455501 -0.4373670756252131 0.9225101434783775 0 0 0
12 0 2 2.2208 5.26594204142312 -1.7963193488331932 2.5764695250336196 0 0 0
13 0 2 2.2208 5.316627154044989 3.862027319380995 2.4783449013154852 0 0 0
14 0 1 -1.1104 1.068558228495099 -0.4137307015618898 3.8135528524486415 0 0 0
16 0 1 -1.1104 3.8582520677227157 -3.3448592207470256 1.120584930873765 0 0 0
17 0 1 -1.1104 3.8282443700292794 2.518015693316615 1.0569398212026146 0 0 0
18 0 2 2.2208 2.459313415483558 0.9726695894525664 2.4265223365911384 0 0 0
19 0 1 -1.1104 3.7739648583953542 -3.4189859309459156 3.8191133529524253 0 0 0
20 0 1 -1.1104 3.8171842488103507 2.2109437593953225 3.8759408015332886 0 0 0
21 0 2 2.2208 2.476092500221278 -2.044162431838583 5.294559966633559 0 0 0
23 0 1 -1.1104 3.9247715325215182 -0.41994153472538065 1.1443154380221972 0 0 0
24 0 1 -1.1104 3.731623196789641 -0.47549517786372036 4.037916820419847 0 0 0
22 0 2 2.2208 2.426526120857934 3.7538528326982914 5.296307862983729 0 0 0
11 0 1 -1.1104 6.617497404892256 -0.519161295498765 1.1194565008326094 0 0 0
4 0 1 -1.1104 6.6452308397881845 -3.3304480654681825 1.083636211879031 0 0 0
5 0 1 -1.1104 6.641817144810092 2.3398821652138846 1.0766596890542601 0 0 0
9 0 1 -1.1104 6.525439577255515 2.414748938654492 3.7925631921390375 0 0 0
333 0 2 2.2208 13.574169946479245 15.025812401950413 10.909901828916464 0 0 0
381 0 2 2.2208 5.173447735454315 0.9975339034986462 -0.24248652965431097 0 0 0
25 0 2 2.2208 -0.36626138049094203 -1.8778112729821528 2.5658448969001797 0 0 0
27 0 2 2.2208 -0.3203513651858104 3.7125465122367776 2.3249241587769403 0 0 0
382 0 2 2.2208 2.4701964904310345 -1.967456325951614 -0.25864009841103724 0 0 0
389 0 2 2.2208 8.057986205031648 3.798105060054337 -0.2784231919624462 0 0 0
15 0 1 -1.1104 6.508583416484031 -0.6017397673898927 4.015794308553638 0 0 0
8 0 1 -1.1104 6.55078773788143 -3.312071608678776 3.912959848491905 0 0 0
31 0 2 2.2208 10.704671699649841 1.0155260060584121 5.379710475831876 0 0 0
32 0 1 -1.1104 12.074039409923433 -3.040735618314179 1.027802746604146 0 0 0
33 0 1 -1.1104 12.006045760147451 2.331715676786029 1.1525600387243005 0 0 0
34 0 1 -1.1104 12.196345155358056 -3.2050632605363583 3.7548947543624696 0 0 0
35 0 1 -1.1104 12.200988822462522 2.487471402849207 3.8694913938222344 0 0 0
36 0 1 -1.1104 12.216919356945215 -0.4418614311359926 1.2684002886893038 0 0 0
37 0 2 2.2208 10.696919691103002 -1.8245971934815512 2.531957013732673 0 0 0
39 0 1 -1.1104 12.184271539330375 -0.4251189457023187 4.025402927193858 0 0 0
40 0 1 -1.1104 9.323774304291925 -3.2166606784246197 1.10952257406684 0 0 0
41 0 1 -1.1104 9.314802062212168 2.3801161891720546 1.1781275465583918 0 0 0
42 0 2 2.2208 8.057650075083082 0.9607514091518599 2.4391156689232174 0 0 0
43 0 1 -1.1104 9.420140973481962 -3.222800639695006 3.9216146015847517 0 0 0
44 0 1 -1.1104 9.297339336747953 2.2006604731087376 3.9810450336790675 0 0 0
45 0 2 2.2208 8.042043073431113 -1.9699956772314844 5.24856079088034 0 0 0
47 0 1 -1.1104 9.375192617272262 -0.4027125370814606 1.0407134629352823 0 0 0
48 0 1 -1.1104 9.311817638923976 -0.5190837786173969 3.8920744299912777 0 0 0
38 0 2 2.2208 10.955302652802532 3.8341142925746947 2.5470652342318694 0 0 0
387 0 2 2.2208 10.703925749200977 0.8709264659938125 -0.2585665997155715 0 0 0
388 0 2 2.2208 7.9266694488349 -1.9084015826210625 -0.2663839270225435 0 0 0
390 0 2 2.2208 10.828729971441044 -4.509517748954995 -0.3351050556191276 0 0 0
46 0 2 2.2208 7.9339051374530785 3.8699021942060052 5.344592518201631 0 0 0
392 0 2 2.2208 13.556417561379172 3.7572016225165896 -0.3073045957937903 0 0 0
391 0 2 2.2208 13.551361244222527 -1.8226854839397584 -0.2864647904860501 0 0 0
334 0 2 2.2208 13.62980937298077 3.8089183467902985 5.336606932762121 0 0 0
317 0 2 2.2208 8.056456300389645 15.016562855043464 11.01287619232226 0 0 0
50 0 2 2.2208 13.644362794068243 -1.803434130969451 5.201352263688294 0 0 0
54 0 2 2.2208 5.213285837558902 6.576888532956805 5.2413772062886235 0 0 0
55 0 2 2.2208 5.357424753607826 12.341067871399003 5.330004247117629 0 0 0
56 0 1 -1.1104 0.9478552845562139 7.836520980394399 0.9925291899676658 0 0 0
58 0 1 -1.1104 0.9091875487342402 7.888050498546969 3.7143844648954696 0 0 0
60 0 1 -1.1104 1.2030935379997216 5.103240391756288 0.9948722597218336 0 0 0
61 0 1 -1.1104 1.0943593720676443 10.73211295090597 1.0952397810021894 0 0 0
66 0 2 2.2208 5.216794340155377 9.36885242533109 2.578651887513124 0 0 0
67 0 1 -1.1104 0.961578201103893 5.104300839219395 3.911980766247979 0 0 0
68 0 1 -1.1104 1.0278200685394276 10.768534437381573 4.051469093246794 0 0 0
71 0 1 -1.1104 3.7847463347235983 7.885610096554473 1.0545456726081655 0 0 0
72 0 2 2.2208 2.4676351420841094 6.545822472608954 2.2935429659712865 0 0 0
73 0 2 2.2208 2.444688748731165 12.154111202611777 2.397794847590712 0 0 0
74 0 1 -1.1104 3.6388658484622898 8.128024081555862 3.868857806644912 0 0 0
75 0 2 2.2208 2.5295945959203068 9.468282602998322 5.265922046928535 0 0 0
76 0 1 -1.1104 3.9874590275013424 5.271667080488302 1.0732165282127775 0 0 0
77 0 1 -1.1104 3.7953633491195924 10.755710154356558 1.1917452082363083 0 0 0
79 0 1 -1.1104 3.6569829126521256 5.162264673177939 3.7402407168864675 0 0 0
80 0 1 -1.1104 3.96307563390617 10.909223982030298 3.918756100650785 0 0 0
57 0 1 -1.1104 6.668259583682474 7.836881949154058 1.0971877883891477 0 0 0
393 0 2 2.2208 5.237323927352001 6.507974368484741 -0.31166952086512956 0 0 0
51 0 2 2.2208 8.03498367015543 -4.606502522471317 2.560413399626769 0 0 0
59 0 1 -1.1104 6.55703786648519 7.972604189918356 3.852412771630485 0 0 0
234 0 1 -1.1104 0.9814410689314794 8.018848210006459 6.578493985909557 0 0 0
398 0 2 2.2208 10.91902916466714 6.573938954295045 -0.24635176840634818 0 0 0
69 0 1 -1.1104 6.438185704472378 5.155839104883891 3.893785559150948 0 0 0
399 0 2 2.2208 8.010665582910695 9.46600750985216 -0.1888496347811926 0 0 0
400 0 2 2.2208 10.823598888488712 12.294931279752804 -0.14579592949608602 0 0 0
64 0 1 -1.1104 6.6077368337297395 10.867338240857647 1.1128293968732161 0 0 0
63 0 1 -1.1104 6.684226529285917 4.9677136578721575 1.0854709474864555 0 0 0
70 0 1 -1.1104 6.5662395468045744 10.821551856216475 4.032915423344807 0 0 0
84 0 2 2.2208 10.89880952142581 6.5777784281850895 5.2790577233089895 0 0 0
85 0 2 2.2208 10.85853276888411 12.248002440836043 5.347952998557547 0 0 0
86 0 1 -1.1104 12.289800401447165 8.027356757357568 1.0457222994487276 0 0 0
87 0 1 -1.1104 12.386697222468712 7.990301603968019 3.8256270370753214 0 0 0
88 0 1 -1.1104 12.376601285283728 5.084587951798029 1.1085269305287933 0 0 0
89 0 1 -1.1104 12.199440484948322 11.106988385414025 1.1948888294842746 0 0 0
91 0 2 2.2208 10.76999903861177 9.490085683397389 2.640272870617462 0 0 0
92 0 1 -1.1104 12.286728589602644 5.21110897902275 3.8888711681876478 0 0 0
93 0 1 -1.1104 12.13667919906493 10.784300769735369 3.8958992744799876 0 0 0
94 0 1 -1.1104 9.407014626777745 8.263548225791409 1.2089119419590866 0 0 0
95 0 2 2.2208 8.036702069188514 6.608027107951296 2.4683314445776454 0 0 0
96 0 2 2.2208 8.039195167369995 12.27483687090789 2.4747292109254873 0 0 0
97 0 1 -1.1104 9.477107217052733 7.890803536004978 4.030053969941093 0 0 0
98 0 2 2.2208 8.05661393141989 9.434864082057574 5.454162021547153 0 0 0
99 0 1 -1.1104 9.466978561590503 5.387912278932979 1.047069750053715 0 0 0
100 0 1 -1.1104 9.541862402916605 11.005946935898647 1.2384924684706713 0 0 0
102 0 1 -1.1104 9.42729711165803 5.031896390614271 3.9732772645180274 0 0 0
103 0 1 -1.1104 9.389892914444303 10.820631508527113 3.9508641868464394 0 0 0
269 0 1 -1.1104 9.379277238229985 5.277660118546729 6.803313661746977 0 0 0
402 0 2 2.2208 13.566938410100951 9.583546646764127 -0.23176874142109818 0 0 0
111 0 1 -1.1104 6.667928545365894 13.557168435608883 6.779269752541454 0 0 0
405 0 2 2.2208 2.3140841075728216 20.71144042926412 -0.2715354015538891 0 0 0
106 0 2 2.2208 5.151366055114346 17.951729971150066 5.395044071017146 0 0 0
107 0 1 -1.1104 0.7888149280579556 13.612752936037419 1.079839992954703 0 0 0
109 0 1 -1.1104 0.8641872072310525 19.165207085012774 1.1145436559423683 0 0 0
113 0 1 -1.1104 1.1631569411920033 13.471294769098593 3.818067979877448 0 0 0
114 0 1 -1.1104 0.87516522630008 19.26743270567018 3.9974983991169992 0 0 0
116 0 1 -1.1104 0.9482490713402075 16.309199308574627 1.1067744991259434 0 0 0
119 0 2 2.2208 5.193506018739405 15.103174264025208 2.5127888955466338 0 0 0
120 0 2 2.2208 5.133569877387964 20.719066762311687 2.5857568645409037 0 0 0
121 0 1 -1.1104 1.0076589678140124 16.34280629938546 3.887125912573926 0 0 0
123 0 1 -1.1104 3.833303404409674 13.574488598393172 1.0313888422547794 0 0 0
125 0 1 -1.1104 3.6889905912760024 19.211739794738605 1.127785327237757 0 0 0
127 0 2 2.2208 2.3897270200331704 17.792248790658782 2.534452215623293 0 0 0
128 0 1 -1.1104 3.957102655352827 13.649747342833177 3.919510881914935 0 0 0
129 0 1 -1.1104 3.6635824261324257 19.419132342038488 3.9531634988514153 0 0 0
130 0 2 2.2208 2.429666138285179 14.83344005947821 5.355021360607602 0 0 0
131 0 2 2.2208 2.288361222834492 20.692226511431556 5.353630374441004 0 0 0
132 0 1 -1.1104 3.836393570186065 16.54467521822291 1.1321317981065362 0 0 0
134 0 1 -1.1104 3.762015769885365 16.541467809607752 3.8815500723392478 0 0 0
138 0 1 -1.1104 6.585953878776646 19.449833574753917 1.1561712455896416 0 0 0
140 0 1 -1.1104 6.5261163055242015 16.589347226167657 1.1873979955301022 0 0 0
115 0 1 -1.1104 6.808193223740476 13.637661115865392 3.7604019497141703 0 0 0
110 0 1 -1.1104 6.717948969207093 13.678416324954494 1.069496999954016 0 0 0
122 0 1 -1.1104 6.63998814057586 16.581625729459017 3.939981241888463 0 0 0
139 0 1 -1.1104 6.5147205266635675 19.266349922859575 4.053574503066326 0 0 0
404 0 2 2.2208 5.153901552990861 17.994263709815563 -0.26763357676236227 0 0 0
117 0 1 -1.1104 1.092132502660734 16.327615865898704 6.815923729573805 0 0 0
403 0 2 2.2208 2.343532746045883 15.004614459542703 -0.3095660391101273 0 0 0
137 0 2 2.2208 -0.3733320888279154 17.772259528258402 5.262133500628719 0 0 0
337 0 2 2.2208 13.54495072636206 15.065790611805287 5.316195414614746 0 0 0
141 0 2 2.2208 10.830011350935477 17.68354035418336 5.306600119520208 0 0 0
142 0 1 -1.1104 12.362675391285524 13.710403196177705 1.1390312570460288 0 0 0
144 0 1 -1.1104 12.055011443611539 19.354921995357422 1.1441096373988762 0 0 0
146 0 1 -1.1104 12.242804896634704 13.584510926129829 3.987055436462089 0 0 0
147 0 1 -1.1104 12.28650473432682 19.286432649257208 4.013400249925289 0 0 0
148 0 1 -1.1104 12.042606235318505 16.460822293335386 1.0338836073252746 0 0 0
150 0 2 2.2208 10.803311636121947 15.079518637225108 2.505931986264859 0 0 0
151 0 2 2.2208 10.85009998059526 20.712263784133167 2.59916806042723 0 0 0
152 0 1 -1.1104 12.141959527047646 16.501021887748976 3.9770072702719523 0 0 0
153 0 1 -1.1104 9.530053287393802 13.817174499735007 1.0916837113674318 0 0 0
155 0 1 -1.1104 9.370683460812282 19.2883177298845 1.1844662387502887 0 0 0
157 0 2 2.2208 7.948792775271177 17.86344393918877 2.5858240092457256 0 0 0
158 0 1 -1.1104 9.495365143769424 13.80514037349631 3.848096439707898 0 0 0
159 0 1 -1.1104 9.321907155407708 19.305393195113624 3.8813661135504596 0 0 0
160 0 2 2.2208 7.985564346826469 15.12619430591932 5.345658207308808 0 0 0
161 0 2 2.2208 7.89217551667325 20.63093716727236 5.283753700009301 0 0 0
162 0 1 -1.1104 9.308692726028008 16.627211906564092 1.2711276243761886 0 0 0
164 0 1 -1.1104 9.4090259825536 16.350141526586807 4.021415552245486 0 0 0
379 0 2 2.2208 8.034083994680561 20.640197784425474 -0.23555493882549244 0 0 0
377 0 2 2.2208 8.064212628202249 15.153837442893865 -0.13018486905569274 0 0 0
378 0 2 2.2208 10.701893406622949 17.890787372142462 -0.23032920166159052 0 0 0
375 0 2 2.2208 13.624460373406615 20.757575946499898 -0.3318149990207573 0 0 0
336 0 2 2.2208 13.661865894733511 20.633116376670756 5.513354881868592 0 0 0
165 0 2 2.2208 13.585373526005347 18.003649800084442 2.5522546037006086 0 0 0
342 0 2 2.2208 -0.28876865372278004 12.141143487803461 10.86843403986002 0 0 0
170 0 1 -1.1104 1.108022220014641 -0.4397210789003421 6.544578952234629 0 0 0
340 0 2 2.2208 13.638158804201362 12.229045977823105 8.199326538417987 0 0 0
167 0 1 -1.1104 1.0595469332227059 2.344741216661674 6.701421227607585 0 0 0
166 0 1 -1.1104 1.162557640526538 -3.3975542844685234 6.740460653498286 0 0 0
173 0 1 -1.1104 3.8755726444229173 2.416461751888813 6.692432732225524 0 0 0
172 0 1 -1.1104 3.912630152648569 -3.2936247098102163 6.771860856292125 0 0 0
174 0 1 -1.1104 3.9270293951033444 -0.48037057199763433 6.809374603063691 0 0 0
175 0 2 2.2208 5.291276721882386 0.992705647341215 10.967185338481032 0 0 0
176 0 1 -1.1104 0.9011699317791052 -3.2267145889649687 12.382495005862761 0 0 0
177 0 1 -1.1104 0.8640385125949717 2.3728693711818374 12.42629122395271 0 0 0
180 0 1 -1.1104 0.9843926742467252 -3.181915534807728 9.58695511121786 0 0 0
181 0 1 -1.1104 0.8897889243030731 2.302686492753794 9.499238461727586 0 0 0
184 0 1 -1.1104 1.045132485185103 -0.3936140104539012 12.272063272814782 0 0 0
186 0 2 2.2208 5.292341751568243 -1.9044132654960864 8.117511699458744 0 0 0
188 0 1 -1.1104 0.9955185185626189 -0.5674134770758942 9.504916699586772 0 0 0
190 0 1 -1.1104 3.775485830793188 -3.1930725772958395 12.251854120890208 0 0 0
191 0 1 -1.1104 3.7336259545357744 2.359794043535682 12.419409699760953 0 0 0
192 0 2 2.2208 2.435316170755161 0.9492265143487989 8.118744564959245 0 0 0
193 0 1 -1.1104 3.85861712339601 -3.3242235226828267 9.603158009890539 0 0 0
194 0 1 -1.1104 3.7711316076599894 2.3451798550673026 9.551061647016123 0 0 0
195 0 2 2.2208 2.3631002560440693 -1.833890951870911 10.926223962944238 0 0 0
197 0 1 -1.1104 3.675513986021638 -0.4785914591853702 12.25137347508384 0 0 0
198 0 1 -1.1104 3.74817383822507 -0.5350719597706431 9.49568508114136 0 0 0
196 0 2 2.2208 2.430090371133884 3.781876189079578 10.91972099250707 0 0 0
187 0 2 2.2208 5.233899532687386 3.8092204385466895 8.156937500115722 0 0 0
178 0 1 -1.1104 6.691912949081531 -3.2852468084533455 12.27501103182611 0 0 0
179 0 1 -1.1104 6.6493269068971905 2.337203169152329 12.374021038297679 0 0 0
168 0 1 -1.1104 6.813082416187486 -3.375478506226953 6.686994586978168 0 0 0
182 0 1 -1.1104 6.672441885967111 -3.451512332731929 9.54332448842946 0 0 0
183 0 1 -1.1104 6.6069393589590835 2.2783629185723058 9.561829555930487 0 0 0
185 0 1 -1.1104 6.512820490577327 -0.37299515459585475 12.499141172550901 0 0 0
347 0 2 2.2208 2.2851568320586595 -4.533389035790441 13.615496517571678 0 0 0
171 0 1 -1.1104 6.665819786365099 -0.38858246560496795 6.796140236767949 0 0 0
232 0 2 2.2208 10.88727910107144 -4.5869666783000715 10.954140842134231 0 0 0
206 0 1 -1.1104 12.115057856930536 2.330918367612374 6.794274546342575 0 0 0
189 0 1 -1.1104 6.543555613448949 -0.4968141993561163 9.636426272889727 0 0 0
205 0 1 -1.1104 12.167183880076115 -3.2938754363452687 6.730854174939144 0 0 0
208 0 1 -1.1104 9.550870876031832 -3.3387180731051984 6.764723536017907 0 0 0
210 0 1 -1.1104 9.511295277118508 -0.42107182869781135 6.757234568963102 0 0 0
169 0 1 -1.1104 6.630556951820802 2.3654975023815994 6.682927957064149 0 0 0
207 0 1 -1.1104 12.411088628466693 -0.3957457534402606 6.8080303911433155 0 0 0
209 0 1 -1.1104 9.317094333070756 2.5522314328730333 6.638585733905435 0 0 0
211 0 2 2.2208 10.680629733999723 0.9687650003369878 10.788312923238044 0 0 0
212 0 1 -1.1104 12.30002370359602 -3.2706317429731193 12.20752552911488 0 0 0
213 0 1 -1.1104 12.13884370707315 2.391024210870559 12.311566191000491 0 0 0
214 0 1 -1.1104 12.219650843611584 -3.0820401747319264 9.505629305907556 0 0 0
215 0 1 -1.1104 12.08647719154559 2.4130335740570272 9.694179211141673 0 0 0
216 0 1 -1.1104 12.247120897700114 -0.42865322222895785 12.243573252261971 0 0 0
217 0 2 2.2208 11.00521322134388 -1.795628515318456 8.101133333744581 0 0 0
219 0 1 -1.1104 12.30932805985097 -0.3481998754544432 9.54934272724626 0 0 0
220 0 1 -1.1104 9.412019991281063 -3.220212202307318 12.234094522860108 0 0 0
221 0 1 -1.1104 9.330436463691237 2.4544208137532872 12.335475207889536 0 0 0
222 0 2 2.2208 8.057751590312908 1.0088100484184348 8.008865768335188 0 0 0
223 0 1 -1.1104 9.5149484547668 -3.2589907025983127 9.558464563638104 0 0 0
224 0 1 -1.1104 9.37380441857389 2.2799204704427503 9.353748709138877 0 0 0
225 0 2 2.2208 8.087171088881707 -1.8662442433814135 10.821070528272175 0 0 0
227 0 1 -1.1104 9.371720265865042 -0.3101026299152165 12.33465245862596 0 0 0
228 0 1 -1.1104 9.405778653166484 -0.45663653147623223 9.473430771251452 0 0 0
218 0 2 2.2208 10.754985884046697 3.8385322667667725 8.150366782076413 0 0 0
226 0 2 2.2208 7.9937737138998815 3.6966148255670634 10.962962050828981 0 0 0
230 0 2 2.2208 13.647606269185156 -1.757285891380585 10.954297078833903 0 0 0
338 0 2 2.2208 13.463145593993957 3.7031387362999273 10.954223599359235 0 0 0
236 0 1 -1.1104 1.1325374019836323 5.239608477719218 6.688463292367542 0 0 0
78 0 1 -1.1104 3.8879361036250755 10.725719534601172 6.809746212937596 0 0 0
237 0 1 -1.1104 6.640718947891146 5.171864223446676 6.514965136820843 0 0 0
62 0 1 -1.1104 1.1146626441590752 10.76438290492394 6.714845408858475 0 0 0
238 0 1 -1.1104 3.850224220606951 8.032375609300942 6.670821610936812 0 0 0
239 0 1 -1.1104 3.7871489482575207 5.130757636630307 6.653396989613738 0 0 0
240 0 2 2.2208 5.174553312296459 6.441389096020197 10.995933079709515 0 0 0
241 0 2 2.2208 5.140776100112839 12.199394480186635 11.023369039673387 0 0 0
242 0 1 -1.1104 0.9919094943256371 8.018263107980339 12.467802421567425 0 0 0
244 0 1 -1.1104 1.0659524865488472 7.931116620949939 9.416891912019803 0 0 0
246 0 1 -1.1104 1.1446496493435772 5.106362323939305 12.368528635852496 0 0 0
247 0 1 -1.1104 0.9257413737444916 10.755069183098806 12.365454414643532 0 0 0
250 0 2 2.2208 5.18516328869276 9.332562388083204 8.244537927902346 0 0 0
251 0 1 -1.1104 1.0428224303989369 5.061212612972529 9.565851523457269 0 0 0
252 0 1 -1.1104 0.9862628709452917 10.683109130368656 9.543719334815831 0 0 0
255 0 1 -1.1104 3.7841965739919354 8.056497501294535 12.22992212340484 0 0 0
256 0 2 2.2208 2.4081948061535643 6.615733444808693 8.018061045313141 0 0 0
257 0 2 2.2208 2.4431046424321647 12.089729011959884 8.115604489651174 0 0 0
258 0 1 -1.1104 3.7876707686862434 7.767890308421279 9.451557132335362 0 0 0
259 0 2 2.2208 2.3554059672496077 9.483455480560346 10.9694817538296 0 0 0
260 0 1 -1.1104 3.854729297325495 5.115112802780189 12.375382748067134 0 0 0
261 0 1 -1.1104 3.752238834179721 10.79208585981982 12.400212406102472 0 0 0
262 0 1 -1.1104 3.752340519941652 5.067680565143189 9.51927615774979 0 0 0
263 0 1 -1.1104 3.798241020150972 10.801779837536522 9.662781816661063 0 0 0
65 0 1 -1.1104 6.713858139468971 10.819014949680161 6.715845055815592 0 0 0
254 0 1 -1.1104 6.482680433903898 10.874034720801491 9.548398710532076 0 0 0
243 0 1 -1.1104 6.489964686232877 7.879187838886479 12.356762209408606 0 0 0
235 0 1 -1.1104 6.595391344201181 8.166836439969087 6.70157779116462 0 0 0
245 0 1 -1.1104 6.675713916267193 8.088824861665346 9.59400601236211 0 0 0
248 0 1 -1.1104 6.579714426348172 5.020461828709336 12.533396824511291 0 0 0
315 0 1 -1.1104 9.455406117741557 16.497499699913057 12.225423794745575 0 0 0
341 0 2 2.2208 13.619062148999785 9.406493157791504 11.123535367221622 0 0 0
253 0 1 -1.1104 6.641065644621296 5.270694983609073 9.36694005835636 0 0 0
249 0 1 -1.1104 6.608513817851269 10.763961770345581 12.274784676623414 0 0 0
101 0 1 -1.1104 9.507281354090086 10.731341202661632 6.726939705983876 0 0 0
267 0 1 -1.1104 9.447046239468403 8.00309868786537 6.708750971991196 0 0 0
266 0 1 -1.1104 12.230667646154599 5.1755265748619825 6.753007838174851 0 0 0
90 0 1 -1.1104 12.320106265018325 10.70350786262863 6.6621754273952405 0 0 0
265 0 1 -1.1104 12.307073163338048 7.888931956642156 6.7587453759411495 0 0 0
264 0 1 -1.1104 9.245609550539719 10.764128132242826 9.620267597363974 0 0 0
268 0 1 -1.1104 9.34231123696347 5.1588384532878475 9.577640758552343 0 0 0
270 0 1 -1.1104 9.400767003947868 10.800743772471968 12.40200079940913 0 0 0
271 0 1 -1.1104 9.369435164138634 5.245141545712212 12.409817638817724 0 0 0
272 0 2 2.2208 7.9398189202923595 9.393872903770589 10.992567863773443 0 0 0
273 0 1 -1.1104 9.469948387040704 8.012590296588355 9.587441422615594 0 0 0
274 0 2 2.2208 7.9738103881503495 12.3173264645874 8.094141926890222 0 0 0
275 0 2 2.2208 7.997708715104878 6.606913264686048 8.067355592962548 0 0 0
276 0 2 2.2208 10.794190258151183 6.643281981295484 10.995921741510907 0 0 0
277 0 2 2.2208 10.827215107855402 12.195196360111416 10.891943344247302 0 0 0
278 0 1 -1.1104 12.197558827590926 8.01530828816735 12.363086033370294 0 0 0
279 0 1 -1.1104 12.306296897291057 8.097340923934679 9.467220147770844 0 0 0
280 0 1 -1.1104 12.14455116792279 5.035246198089276 12.326497937575931 0 0 0
281 0 1 -1.1104 12.204321520141999 10.741213372301194 12.396163574200653 0 0 0
282 0 2 2.2208 10.801755137874082 9.465277545292448 8.223374492476767 0 0 0
283 0 1 -1.1104 12.281489158781818 5.291117298998447 9.567161868861419 0 0 0
284 0 1 -1.1104 12.180412168365258 10.857394991049041 9.571694693824822 0 0 0
285 0 1 -1.1104 9.491079869113758 7.960470059716563 12.413689173473433 0 0 0
126 0 1 -1.1104 3.7433648407575126 19.26045716984108 6.814465837809687 0 0 0
133 0 1 -1.1104 3.8643405878996595 16.280348348335604 6.640321647644671 0 0 0
108 0 1 -1.1104 1.0191498811857331 13.5362585123965 6.77502629810254 0 0 0
118 0 1 -1.1104 6.607821121516344 16.433430348983745 6.642004164183561 0 0 0
328 0 1 -1.1104 12.190954250711691 13.659076043661214 9.490176800762704 0 0 0
302 0 1 -1.1104 0.9763872426726101 19.127033691497065 6.6587460773250955 0 0 0
124 0 1 -1.1104 3.839227768737845 13.635034344758271 6.769771530771108 0 0 0
112 0 1 -1.1104 6.70711961298075 19.23927080535319 6.684378443105899 0 0 0
310 0 2 2.2208 2.3316374076114625 15.099156303275912 10.954759651661629 0 0 0
309 0 2 2.2208 2.3474647328500806 20.613016557165167 10.840079835689021 0 0 0
308 0 1 -1.1104 3.8022675221051236 16.613838442543457 12.286177601890317 0 0 0
307 0 1 -1.1104 0.8543547745755815 16.362822507488282 12.437599536481766 0 0 0
305 0 1 -1.1104 3.8151993263914834 13.737026826173635 9.6336429576813 0 0 0
304 0 1 -1.1104 3.9376329077589167 16.456654820798907 9.47087153783808 0 0 0
303 0 2 2.2208 2.520969758717022 17.891238139878553 8.087637320524815 0 0 0
301 0 1 -1.1104 3.785810460401891 19.249778672788015 9.621375049412203 0 0 0
300 0 2 2.2208 5.29645589060147 17.989619760127866 10.929332252214827 0 0 0
299 0 1 -1.1104 0.8482882782779503 13.630942701970246 12.200586326531708 0 0 0
298 0 1 -1.1104 0.9891709047010547 19.183792104720773 12.30502887594226 0 0 0
295 0 2 2.2208 5.167581067756655 15.022483052631063 8.225537155148725 0 0 0
286 0 1 -1.1104 3.7909701712752626 19.35880545206973 12.354302568116138 0 0 0
291 0 1 -1.1104 1.0036143967976467 19.278793324609747 9.355604012901772 0 0 0
294 0 1 -1.1104 1.161984146866325 13.65760571913744 9.465136388700186 0 0 0
293 0 2 2.2208 5.060323177881151 20.678785293881546 8.061935207540564 0 0 0
292 0 1 -1.1104 1.1439320024170372 16.48986505820861 9.59642870548258 0 0 0
287 0 1 -1.1104 3.646060955863849 13.755023275644799 12.41647508905312 0 0 0
297 0 1 -1.1104 6.554435767831411 13.521666266864393 12.253296543659596 0 0 0
288 0 1 -1.1104 6.452877136561803 19.374805539795357 9.280568714456557 0 0 0
313 0 2 2.2208 -0.2821888933317923 14.985294187771718 8.081137489322792 0 0 0
345 0 2 2.2208 13.446935414866884 20.711743682539716 10.919232510275755 0 0 0
143 0 1 -1.1104 12.118969465571523 13.515086138128813 6.800338357511425 0 0 0
326 0 1 -1.1104 12.235645444384613 16.439652597218753 12.198506600787058 0 0 0
321 0 1 -1.1104 9.410524005151936 19.135449290923987 12.348465057477142 0 0 0
332 0 2 2.2208 13.566759943426863 17.79514799999041 8.085912457171792 0 0 0
145 0 1 -1.1104 12.196783165312066 19.213451186373852 6.724591021197472 0 0 0
149 0 1 -1.1104 12.213928250328049 16.182957518831202 6.849349733603948 0 0 0
154 0 1 -1.1104 9.448741234779366 13.579136526910485 6.722787290191466 0 0 0
163 0 1 -1.1104 9.463291174294453 16.482298050343527 6.722738242857436 0 0 0
322 0 1 -1.1104 9.42672803473142 13.75691864620422 12.334029383083607 0 0 0
314 0 1 -1.1104 9.39214152759766 16.40071004167598 9.42888053664279 0 0 0
327 0 1 -1.1104 12.050850007566655 19.18454118981975 9.467175010611163 0 0 0
319 0 1 -1.1104 9.42190693455901 13.663366842547497 9.483233966396714 0 0 0
320 0 2 2.2208 7.949397715283434 17.78484575080697 8.117139307486969 0 0 0
306 0 1 -1.1104 6.590982836143111 16.455165958154513 12.383491312895595 0 0 0
289 0 1 -1.1104 6.6716287056633385 16.594026085244156 9.687256498510747 0 0 0
325 0 2 2.2208 10.790311631926926 15.012956846813035 8.176327960077828 0 0 0
330 0 1 -1.1104 12.278490994001519 13.729753497112922 12.255117008414048 0 0 0
316 0 2 2.2208 7.977400812451716 20.733059605211846 10.778502002100469 0 0 0
290 0 1 -1.1104 6.599397479241541 13.679869436763397 9.553809343565149 0 0 0
323 0 1 -1.1104 12.267479514669471 16.38796837946924 9.551058950327207 0 0 0
331 0 2 2.2208 10.762723506677371 17.7560908871486 10.972668466901222 0 0 0
324 0 2 2.2208 10.644603692303637 20.476550298121285 8.034223372491828 0 0 0
318 0 1 -1.1104 9.322758333061584 19.15004777464235 9.567273888805932 0 0 0
156 0 1 -1.1104 9.279369396014419 19.081519461489712 6.642045800397668 0 0 0
329 0 1 -1.1104 12.190214615496679 19.360075455354863 12.374816067032254 0 0 0
296 0 1 -1.1104 6.569945751565625 19.33824157945119 12.126527264806064 0 0 0
335 0 2 2.2208 13.668792188018745 9.279876399359775 5.349100583335841 0 0 0
233 0 2 2.2208 13.566897724174282 -4.606053259789633 8.153513039435738 0 0 0
83 0 2 2.2208 -0.3468118619889218 12.093713026865121 5.3129351044072886 0 0 0
81 0 2 2.2208 -0.36392817598089877 6.5508680954121274 5.288154286655302 0 0 0
354 0 2 2.2208 13.644537258632468 -4.604497073956025 13.63801576217658 0 0 0
339 0 2 2.2208 13.639340471706527 6.510317869573028 8.265805078397479 0 0 0
380 0 2 2.2208 13.629199324792785 17.809693618964133 13.624150049206367 0 0 0
394 0 2 2.2208 2.4583556325702705 9.330520858067944 -0.3159079422441273 0 0 0
406 0 2 2.2208 5.177581569962684 0.9495891259438693 16.49399327085026 0 0 0
407 0 1 -1.1104 0.9644673831391017 -3.306235471941462 17.999424791669718 0 0 0
408 0 1 -1.1104 1.0625915272395032 2.4145643783574595 17.973729945434002 0 0 0
411 0 1 -1.1104 1.0680544258081615 -3.2974700414503233 15.218708754216346 0 0 0
413 0 1 -1.1104 0.961556252336008 2.3297055101754185 15.252574879714984 0 0 0
419 0 1 -1.1104 1.0470311190091117 -0.4853623107124057 17.897153730588798 0 0 0
421 0 2 2.2208 5.207756926515005 -1.739936265629414 19.35012322585788 0 0 0
423 0 1 -1.1104 0.8977689927732939 -0.5209636352426217 15.120827321916956 0 0 0
427 0 1 -1.1104 3.9114588426409123 -3.155278576990187 17.80103448255032 0 0 0
428 0 1 -1.1104 3.9262897599506528 2.390791286298915 18.05214747177327 0 0 0
429 0 2 2.2208 2.498651966895375 0.9745172840001978 19.31832553346474 0 0 0
430 0 1 -1.1104 3.7381188310379057 -3.2994894470255938 15.132995463036055 0 0 0
432 0 1 -1.1104 3.7647871368498596 2.4750682910616284 15.17522085386028 0 0 0
434 0 2 2.2208 2.3423737326086367 -1.992362291261376 16.564205651425386 0 0 0
435 0 2 2.2208 2.3868288857893494 3.861860745477001 16.560960910522777 0 0 0
436 0 1 -1.1104 3.8794955720317392 -0.3647224495486052 17.94560945427225 0 0 0
437 0 1 -1.1104 3.8466465517059514 -0.4103944114272056 15.086309300198131 0 0 0
422 0 2 2.2208 5.211462475250791 3.797924847319699 19.38630171325139 0 0 0
348 0 2 2.2208 5.193442433898136 -1.7777956528469054 13.771399166362388 0 0 0
443 0 2 2.2208 -0.3219273740323159 -1.791014729486146 19.46843931863105 0 0 0
417 0 1 -1.1104 6.668805609058773 2.185353922700376 15.106141982177125 0 0 0
352 0 2 2.2208 5.128939256665082 3.71689558767067 13.77445535811641 0 0 0
349 0 2 2.2208 2.3554614590507943 1.0971730419770156 13.67197132627335 0 0 0
415 0 1 -1.1104 6.523284792256715 -3.320983524598743 15.017486689790825 0 0 0
410 0 1 -1.1104 6.657158021969528 2.431754632818813 18.07931054549506 0 0 0
597 0 1 -1.1104 9.590307269120984 13.791562674886219 20.853165763143796 0 0 0
433 0 1 -1.1104 3.867401314894709 2.2808564810325604 20.80985261140066 0 0 0
441 0 2 2.2208 2.4216128386132367 -4.606251948902899 19.23539672168014 0 0 0
409 0 1 -1.1104 6.629507817982963 -3.2249829753620527 17.938375870074925 0 0 0
357 0 2 2.2208 10.65374508544488 3.8210338624514977 13.836528544709932 0 0 0
420 0 1 -1.1104 6.612755947153381 -0.4686623455270104 17.966067351104773 0 0 0
356 0 2 2.2208 10.853208652849297 -1.7409453683950697 13.769367367038278 0 0 0
425 0 1 -1.1104 6.537525522352998 -0.649152068118343 15.291680077791986 0 0 0
449 0 2 2.2208 10.753675808004708 0.9843151090953224 16.525898480233916 0 0 0
450 0 1 -1.1104 12.153353370906549 -3.1417467531974475 17.985261544814797 0 0 0
451 0 1 -1.1104 12.063631605258697 2.5420869241200106 17.95721708466235 0 0 0
452 0 1 -1.1104 12.225459184510202 -3.327446826903373 15.081126293939851 0 0 0
454 0 1 -1.1104 12.147694269356254 2.47717414526367 15.204296281335337 0 0 0
456 0 1 -1.1104 12.263848362482648 -0.35542498087153207 17.816115742066625 0 0 0