LAMMPS (29 Oct 2020)
OMP_NUM_THREADS environment is not set. Defaulting to 1 thread. (../comm.cpp:94)
  using 1 OpenMP thread(s) per MPI task
#-------------------------
#
#This script is used to create different concentrations of vacancies in thorium dioxide
#By Ziqiang Wang on 07/03/2023
#
#-------------------------

clear
OMP_NUM_THREADS environment is not set. Defaulting to 1 thread. (../comm.cpp:94)
  using 1 OpenMP thread(s) per MPI task
units                        metal
dimension                        3
boundary                     p p p
atom_style                   full
atom_modify                  map array

read_data                   perfect_relaxed.dat
Reading data file ...
  orthogonal box = (-0.27717828 -3.4472206 -0.27717828) to (27.617178 331.52722 27.617178)
  2 by 13 by 2 MPI processor grid
  reading atoms ...
  18000 atoms
  reading velocities ...
  18000 velocities
Finding 1-2 1-3 1-4 neighbors ...
  special bond factors lj:    0.0      0.0      0.0     
  special bond factors coul:  0.0      0.0      0.0     
     0 = max # of 1-2 neighbors
     0 = max # of 1-3 neighbors
     0 = max # of 1-4 neighbors
     1 = max # of special neighbors
  special bonds CPU = 0.004 seconds
  read_data CPU = 0.071 seconds

# randomly create vacancies in the relaxed perfect crystal
variable         n               equal    20
variable         vac_ratio       equal    0.02
region           sphere    sphere     13.67 35.6331 13.67 6.5  units box
group            sphere     region  sphere
75 atoms in group sphere
group            oxygen     id 7643 4052 3990 4050 3992 7581 4042 3984 4056 7601 4062 4004 3994 4054 3996 7663
16 atoms in group oxygen
group            thorium    id 7705
1 atoms in group thorium
group            1          subtract sphere oxygen
59 atoms in group 1
group            cluster          union    1 thorium
60 atoms in group cluster
group            Th       type     2
6000 atoms in group Th
group            O        type     1
12000 atoms in group O
group            Th_group   intersect  cluster   Th
20 atoms in group Th_group
group            O_group    intersect  cluster   O
40 atoms in group O_group
set              group      Th_group     type/subset   3   $n   5224
set              group      Th_group     type/subset   3   20   5224
Setting atom values ...
  20 settings made for type/subset
group            Xe         type         3
20 atoms in group Xe
group            delete     subtract     cluster   Xe
40 atoms in group delete
delete_atoms     group      delete
WARNING: Ignoring 'compress yes' for molecular system (../delete_atoms.cpp:125)
Deleted 40 atoms, new total = 17960
group            Xe         delete
group            delete     delete
region           sphere     delete
group            sphere     delete
group            oxygen     delete
group            thorium    delete
group            1          delete
group            cluster    delete
group            Th         delete
group            O          delete
group            Th_group   delete
group            O_group    delete

region           sphere    sphere     13.67 91.4622 13.67 6.5  units box
group            sphere     region  sphere
75 atoms in group sphere
group            oxygen     id 8305
1 atoms in group oxygen
group            thorium    id 8243 4642 4652 4650 4590 4592 8181 4584 4656 4654 8201 4604 4594 4596 4662 8263
16 atoms in group thorium
group            1          subtract sphere thorium
59 atoms in group 1
group            cluster          union    1 oxygen
60 atoms in group cluster
group            Th       type     2
5980 atoms in group Th
group            O        type     1
11960 atoms in group O
group            Th_group   intersect  cluster   Th
20 atoms in group Th_group
group            O_group    intersect  cluster   O
40 atoms in group O_group
set              group      Th_group     type/subset   3   $n   5224
set              group      Th_group     type/subset   3   20   5224
Setting atom values ...
  20 settings made for type/subset
group            Xe         type         3
40 atoms in group Xe
group            delete     subtract     cluster   Xe
40 atoms in group delete
delete_atoms     group      delete
WARNING: Ignoring 'compress yes' for molecular system (../delete_atoms.cpp:125)
Deleted 40 atoms, new total = 17920
group            Xe         delete
group            delete     delete
region           sphere     delete
group            sphere     delete
group            oxygen     delete
group            thorium    delete
group            1          delete
group            cluster    delete
group            Th         delete
group            O          delete
group            Th_group   delete
group            O_group    delete

region           sphere    sphere     13.67 141.708 13.67 6.5  units box
group            sphere     region  sphere
75 atoms in group sphere
group            oxygen     id 8845
1 atoms in group oxygen
group            thorium    id 8783 5182 5192 5190 5130 5132 8721 5124 8803 5196 8741 5144 5134 5194 5136 5202
16 atoms in group thorium
group            1          subtract sphere thorium
59 atoms in group 1
group            cluster          union    1 oxygen
60 atoms in group cluster
group            Th       type     2
5960 atoms in group Th
group            O        type     1
11920 atoms in group O
group            Th_group   intersect  cluster   Th
20 atoms in group Th_group
group            O_group    intersect  cluster   O
40 atoms in group O_group
set              group      Th_group     type/subset   3   $n   5224
set              group      Th_group     type/subset   3   20   5224
Setting atom values ...
  20 settings made for type/subset
group            Xe         type         3
60 atoms in group Xe
group            delete     subtract     cluster   Xe
40 atoms in group delete
delete_atoms     group      delete
WARNING: Ignoring 'compress yes' for molecular system (../delete_atoms.cpp:125)
Deleted 40 atoms, new total = 17880
group            Xe         delete
group            delete     delete
region           sphere     delete
group            sphere     delete
group            oxygen     delete
group            thorium    delete
group            1          delete
group            cluster    delete
group            Th         delete
group            O          delete
group            Th_group   delete
group            O_group    delete

region           sphere    sphere     13.67 197.537 13.67 6.5  units box
group            sphere     region  sphere
75 atoms in group sphere
group            oxygen     id 9445
1 atoms in group oxygen
group            thorium    id 5724 9383 5782 5792 5732 5790 5730 9321 5796 5736 5794 9341 5744 5734 5802 9403
16 atoms in group thorium
group            1          subtract sphere thorium
59 atoms in group 1
group            cluster          union    1 oxygen
60 atoms in group cluster
group            Th       type     2
5940 atoms in group Th
group            O        type     1
11880 atoms in group O
group            Th_group   intersect  cluster   Th
20 atoms in group Th_group
group            O_group    intersect  cluster   O
40 atoms in group O_group
set              group      Th_group     type/subset   3   $n   5224
set              group      Th_group     type/subset   3   20   5224
Setting atom values ...
  20 settings made for type/subset
group            Xe         type         3
80 atoms in group Xe
group            delete     subtract     cluster   Xe
40 atoms in group delete
delete_atoms     group      delete
WARNING: Ignoring 'compress yes' for molecular system (../delete_atoms.cpp:125)
Deleted 40 atoms, new total = 17840
group            Xe         delete
group            delete     delete
region           sphere     delete
group            sphere     delete
group            oxygen     delete
group            thorium    delete
group            1          delete
group            cluster    delete
group            Th         delete
group            O          delete
group            Th_group   delete
group            O_group    delete

region           sphere    sphere     13.67 247.784 13.67 6.5  units box
group            sphere     region  sphere
75 atoms in group sphere
group            oxygen     id 9985
1 atoms in group oxygen
group            thorium    id 6264 9923 6322 6332 6272 6330 6270 9861 6336 6276 6334 9881 6274 6342 9943 6284
16 atoms in group thorium
group            1          subtract sphere thorium
59 atoms in group 1
group            cluster          union    1 oxygen
60 atoms in group cluster
group            Th       type     2
5920 atoms in group Th
group            O        type     1
11840 atoms in group O
group            Th_group   intersect  cluster   Th
20 atoms in group Th_group
group            O_group    intersect  cluster   O
40 atoms in group O_group
set              group      Th_group     type/subset   3   $n   5224
set              group      Th_group     type/subset   3   20   5224
Setting atom values ...
  20 settings made for type/subset
group            Xe         type         3
100 atoms in group Xe
group            delete     subtract     cluster   Xe
40 atoms in group delete
delete_atoms     group      delete
WARNING: Ignoring 'compress yes' for molecular system (../delete_atoms.cpp:125)
Deleted 40 atoms, new total = 17800
group            Xe         delete
group            delete     delete
region           sphere     delete
group            sphere     delete
group            oxygen     delete
group            thorium    delete
group            1          delete
group            cluster    delete
group            Th         delete
group            O          delete
group            Th_group   delete
group            O_group    delete

region           sphere    sphere     13.67 298.03 13.67 6.5  units box
group            sphere     region  sphere
75 atoms in group sphere
group            oxygen     id 10525
1 atoms in group oxygen
group            thorium    id 10463 6862 6872 6870 6810 6812 10401 6804 6876 6874 10421 6824 6814 6816 6882 10483
16 atoms in group thorium
group            1          subtract sphere thorium
59 atoms in group 1
group            cluster          union    1 oxygen
60 atoms in group cluster
group            Th       type     2
5900 atoms in group Th
group            O        type     1
11800 atoms in group O
group            Th_group   intersect  cluster   Th
20 atoms in group Th_group
group            O_group    intersect  cluster   O
40 atoms in group O_group
set              group      Th_group     type/subset   3   $n   5224
set              group      Th_group     type/subset   3   20   5224
Setting atom values ...
  20 settings made for type/subset
group            Xe         type         3
120 atoms in group Xe
group            delete     subtract     cluster   Xe
40 atoms in group delete
delete_atoms     group      delete
WARNING: Ignoring 'compress yes' for molecular system (../delete_atoms.cpp:125)
Deleted 40 atoms, new total = 17760
group            Xe         delete
group            delete     delete
region           sphere     delete
group            sphere     delete
group            oxygen     delete
group            thorium    delete
group            1          delete
group            cluster    delete
group            Th         delete
group            O          delete
group            Th_group   delete
group            O_group    delete

set                         type    1      charge   -1.1104
Setting atom values ...
  11760 settings made for charge
set                         type    2      charge    2.2208
Setting atom values ...
  5880 settings made for charge
set                         type    3      charge    0.0
Setting atom values ...
  120 settings made for charge
kspace_style                pppm     1.0e-05
pair_style                  hybrid/overlay  coul/long   11.0  eam/alloy  table  linear  1000  pppm
pair_coeff                  * * coul/long
pair_coeff                  * * eam/alloy CeThUNpPuAmCmO.eam.alloy O Th NULL
pair_coeff                  3 3 table CRG_gas_potentials.lmptab Xe-Xe 11
WARNING: 13 of 1000 force values in table Xe-Xe are inconsistent with -dE/dr.
  Should only be flagged at inflection points (../pair_table.cpp:461)
pair_coeff                  1 3 table CRG_gas_potentials.lmptab Xe-O 11
WARNING: 2 of 1000 force values in table Xe-O are inconsistent with -dE/dr.
  Should only be flagged at inflection points (../pair_table.cpp:461)
pair_coeff                  2 3 table CRG_gas_potentials.lmptab Xe-Th 11
WARNING: 2 of 1000 force values in table Xe-Th are inconsistent with -dE/dr.
  Should only be flagged at inflection points (../pair_table.cpp:461)
neighbor                    2.0  bin
neigh_modify                every  1  delay  0  check  yes

# fully relaxing the defect configuration at 0K
fix                box_relax  all  box/relax aniso 0.0 vmax 0.001
min_style          cg
minimize           1.0e-30 1.0e-30 10000 10000
PPPM initialization ...
  using 12-bit tables for long-range coulomb (../kspace.cpp:328)
  G vector (1/distance) = 0.29911239
  grid = 40 240 40
  stencil order = 5
  estimated absolute RMS force accuracy = 0.00015328544
  estimated relative force accuracy = 1.0645085e-05
  using single precision MKL FFT
  3d grid and FFT values/proc = 18225 7600
Neighbor list info ...
  update every 1 steps, delay 0 steps, check yes
  max neighbors/atom: 2000, page size: 100000
  master list distance cutoff = 13
  ghost atom cutoff = 13
  binsize = 6.5, bins = 5 52 5
  3 neighbor lists, perpetual/occasional/extra = 3 0 0
  (1) pair coul/long, perpetual
      attributes: half, newton on
      pair build: half/bin/newton
      stencil: half/bin/3d/newton
      bin: standard
  (2) pair eam/alloy, perpetual, skip from (1)
      attributes: half, newton on
      pair build: skip
      stencil: none
      bin: none
  (3) pair table, perpetual, skip from (1)
      attributes: half, newton on
      pair build: skip
      stencil: none
      bin: none
Per MPI rank memory allocation (min/avg/max) = 10.36 | 10.98 | 11.16 Mbytes
Step Temp E_pair E_mol TotEng Press Volume 
       0            0   -230342.26            0   -230342.26    6330.8171    260641.98 
     163            0    -231330.8            0    -231330.8    148.56552    262127.72 
Loop time of 3.16621 on 52 procs for 163 steps with 17760 atoms

99.4% CPU use with 52 MPI tasks x 1 OpenMP threads

Minimization stats:
  Stopping criterion = linesearch alpha is zero
  Energy initial, next-to-last, final = 
     -230342.263478741  -231330.797710969  -231330.797710969
  Force two-norm initial, final = 1914.5713 49.415094
  Force max component initial, final = 1404.7499 33.120328
  Final line search alpha, max atom move = 2.7657802e-12 9.1603548e-11
  Iterations, force evaluations = 163 273

MPI task timing breakdown:
Section |  min time  |  avg time  |  max time  |%varavg| %total
---------------------------------------------------------------
Pair    | 1.801      | 1.8815     | 1.9683     |   3.1 | 59.43
Bond    | 2.2136e-05 | 3.6326e-05 | 5.5941e-05 |   0.0 |  0.00
Kspace  | 0.56622    | 0.65322    | 0.73215    |   5.3 | 20.63
Neigh   | 0.00273    | 0.0034058  | 0.0042485  |   0.8 |  0.11
Comm    | 0.059225   | 0.060308   | 0.062496   |   0.3 |  1.90
Output  | 0          | 0          | 0          |   0.0 |  0.00
Modify  | 0          | 0          | 0          |   0.0 |  0.00
Other   |            | 0.5677     |            |       | 17.93

Nlocal:        341.538 ave         412 max         290 min
Histogram: 7 3 9 8 6 6 6 1 0 6
Nghost:        5546.00 ave        5703 max        5398 min
Histogram: 2 6 6 9 7 4 6 5 6 1
Neighs:       108806.0 ave      132563 max       93213 min
Histogram: 7 4 14 2 6 12 0 1 0 6

Total # of neighbors = 5657892
Ave neighs/atom = 318.57500
Ave special neighs/atom = 0.0000000
Neighbor list builds = 1
Dangerous builds = 0
unfix              box_relax

# apply the temperature into the system and relaxing at the temperature of interest
reset_atom_ids
Resetting atom IDs ...
PPPM initialization ...
  using 12-bit tables for long-range coulomb (../kspace.cpp:328)
  G vector (1/distance) = 0.29901009
  grid = 40 240 40
  stencil order = 5
  estimated absolute RMS force accuracy = 0.00015409319
  estimated relative force accuracy = 1.070118e-05
  using single precision MKL FFT
  3d grid and FFT values/proc = 18225 7600
Neighbor list info ...
  update every 1 steps, delay 0 steps, check yes
  max neighbors/atom: 2000, page size: 100000
  master list distance cutoff = 13
  ghost atom cutoff = 13
  binsize = 6.5, bins = 5 52 5
  3 neighbor lists, perpetual/occasional/extra = 3 0 0
  (1) pair coul/long, perpetual
      attributes: half, newton on
      pair build: half/bin/newton
      stencil: half/bin/3d/newton
      bin: standard
  (2) pair eam/alloy, perpetual, skip from (1)
      attributes: half, newton on
      pair build: skip
      stencil: none
      bin: none
  (3) pair table, perpetual, skip from (1)
      attributes: half, newton on
      pair build: skip
      stencil: none
      bin: none
Finding 1-2 1-3 1-4 neighbors ...
  special bond factors lj:    0.0      0.0      0.0     
  special bond factors coul:  0.0      0.0      0.0     
     0 = max # of 1-2 neighbors
     0 = max # of 1-3 neighbors
     0 = max # of 1-4 neighbors
     1 = max # of special neighbors
  special bonds CPU = 0.001 seconds
variable                    temp      equal    300
velocity                    all  create   ${temp}  4542  dist  gaussian  rot  yes  mom  yes
velocity                    all  create   300  4542  dist  gaussian  rot  yes  mom  yes
fix                         npt  all  npt  temp  ${temp}  ${temp}  $(100*dt) aniso  0.0  0.0  $(1000*dt)
fix                         npt  all  npt  temp  300  ${temp}  $(100*dt) aniso  0.0  0.0  $(1000*dt)
fix                         npt  all  npt  temp  300  300  $(100*dt) aniso  0.0  0.0  $(1000*dt)
fix                         npt  all  npt  temp  300  300  0.10000000000000000555 aniso  0.0  0.0  $(1000*dt)
fix                         npt  all  npt  temp  300  300  0.10000000000000000555 aniso  0.0  0.0  1

thermo                      10000
thermo_style                custom   step dt time atoms temp pe ke press vol

shell                       mkdir vac_${vac_ratio}_${temp}K
shell                       mkdir vac_0.02_${temp}K
shell                       mkdir vac_0.02_300K
dump                        1  all  custom  10000  ./vac_${vac_ratio}_${temp}K/dump_relax.atom.* id type q x y z
dump                        1  all  custom  10000  ./vac_0.02_${temp}K/dump_relax.atom.* id type q x y z
dump                        1  all  custom  10000  ./vac_0.02_300K/dump_relax.atom.* id type q x y z
dump_modify                 1  element  O  Th Xe

run                         100000
PPPM initialization ...
  using 12-bit tables for long-range coulomb (../kspace.cpp:328)
  G vector (1/distance) = 0.29901009
  grid = 40 240 40
  stencil order = 5
  estimated absolute RMS force accuracy = 0.00015409319
  estimated relative force accuracy = 1.070118e-05
  using single precision MKL FFT
  3d grid and FFT values/proc = 18225 7600
Neighbor list info ...
  update every 1 steps, delay 0 steps, check yes
  max neighbors/atom: 2000, page size: 100000
  master list distance cutoff = 13
  ghost atom cutoff = 13
  binsize = 6.5, bins = 5 52 5
  3 neighbor lists, perpetual/occasional/extra = 3 0 0
  (1) pair coul/long, perpetual
      attributes: half, newton on
      pair build: half/bin/newton
      stencil: half/bin/3d/newton
      bin: standard
  (2) pair eam/alloy, perpetual, skip from (1)
      attributes: half, newton on
      pair build: skip
      stencil: none
      bin: none
  (3) pair table, perpetual, skip from (1)
      attributes: half, newton on
      pair build: skip
      stencil: none
      bin: none
Per MPI rank memory allocation (min/avg/max) = 9.231 | 9.879 | 10.03 Mbytes
Step Dt Time Atoms Temp PotEng KinEng Press Volume 
     163        0.001            0    17760          300    -231330.8    688.65927    2954.4921    262127.72 
   10000        0.001        9.837    17760    301.21326    -231072.4    691.44434   -218.63515    263712.49 
   20000        0.001       19.837    17760    302.45866   -231078.31     694.3032    259.97965    263682.44 
   30000        0.001       29.837    17760    299.10069   -231088.26    686.59488     408.4684    263642.81 
   40000        0.001       39.837    17760    296.51829   -231088.97    680.66691    109.97805    263680.71 
   50000        0.001       49.837    17760    301.94655    -231086.2    693.12764    647.68362    263582.97 
   60000        0.001       59.837    17760     299.1863   -231090.56     686.7914   -119.50524    263707.56 
   70000        0.001       69.837    17760     299.5724    -231093.8     687.6777    460.11426    263584.41 
   80000        0.001       79.837    17760    302.77017   -231090.67    695.01828   -391.94004    263764.53 
   90000        0.001       89.837    17760    297.76697   -231086.56    683.53329    163.80001    263680.61 
  100000        0.001       99.837    17760    297.19715   -231091.53    682.22525    42.650152    263686.78 
  100163        0.001          100    17760    300.48098   -231085.45    689.76339   -545.29537    263793.16 
Loop time of 888.745 on 52 procs for 100000 steps with 17760 atoms

Performance: 9.722 ns/day, 2.469 hours/ns, 112.518 timesteps/s
99.8% CPU use with 52 MPI tasks x 1 OpenMP threads

MPI task timing breakdown:
Section |  min time  |  avg time  |  max time  |%varavg| %total
---------------------------------------------------------------
Pair    | 538.78     | 552.52     | 570.5      |  39.8 | 62.17
Bond    | 0.0096042  | 0.015227   | 0.022398   |   2.4 |  0.00
Kspace  | 180.47     | 198.52     | 212.76     |  66.9 | 22.34
Neigh   | 1.0099     | 1.0829     | 1.1659     |   5.2 |  0.12
Comm    | 23.053     | 23.88      | 24.653     |   8.9 |  2.69
Output  | 0.048081   | 0.048126   | 0.050057   |   0.1 |  0.01
Modify  | 92.662     | 98.24      | 110.8      |  31.2 | 11.05
Other   |            | 14.43      |            |       |  1.62

Nlocal:        341.538 ave         368 max         315 min
Histogram: 4 4 5 12 3 1 6 6 5 6
Nghost:        5554.71 ave        5665 max        5464 min
Histogram: 8 10 5 3 2 1 6 7 6 4
Neighs:       108623.0 ave      118963 max       99074 min
Histogram: 5 10 7 3 1 5 3 8 5 5

Total # of neighbors = 5648420
Ave neighs/atom = 318.04167
Ave special neighs/atom = 0.0000000
Neighbor list builds = 339
Dangerous builds = 0
shell                       mkdir thermal_condu
write_data                  thermal_condu/vac_${vac_ratio}_relaxed.dat
write_data                  thermal_condu/vac_0.02_relaxed.dat
System init for write_data ...
PPPM initialization ...
  using 12-bit tables for long-range coulomb (../kspace.cpp:328)
  G vector (1/distance) = 0.29889861
  grid = 40 240 40
  stencil order = 5
  estimated absolute RMS force accuracy = 0.00015496244
  estimated relative force accuracy = 1.0761546e-05
  using single precision MKL FFT
  3d grid and FFT values/proc = 18225 7600
Neighbor list info ...
  update every 1 steps, delay 0 steps, check yes
  max neighbors/atom: 2000, page size: 100000
  master list distance cutoff = 13
  ghost atom cutoff = 13
  binsize = 6.5, bins = 5 52 5
  3 neighbor lists, perpetual/occasional/extra = 3 0 0
  (1) pair coul/long, perpetual
      attributes: half, newton on
      pair build: half/bin/newton
      stencil: half/bin/3d/newton
      bin: standard
  (2) pair eam/alloy, perpetual, skip from (1)
      attributes: half, newton on
      pair build: skip
      stencil: none
      bin: none
  (3) pair table, perpetual, skip from (1)
      attributes: half, newton on
      pair build: skip
      stencil: none
      bin: none
Total wall time: 0:14:52
