LAMMPS (29 Oct 2020)
OMP_NUM_THREADS environment is not set. Defaulting to 1 thread. (../comm.cpp:94)
  using 1 OpenMP thread(s) per MPI task
OMP_NUM_THREADS environment is not set. Defaulting to 1 thread. (../comm.cpp:94)
  using 1 OpenMP thread(s) per MPI task
Reading data file ...
  orthogonal box = (-0.27717828 -3.4472206 -0.27717828) to (27.617178 331.52722 27.617178)
  2 by 13 by 2 MPI processor grid
  reading atoms ...
  18000 atoms
  reading velocities ...
  18000 velocities
Finding 1-2 1-3 1-4 neighbors ...
  special bond factors lj:    0.0      0.0      0.0     
  special bond factors coul:  0.0      0.0      0.0     
     0 = max # of 1-2 neighbors
     0 = max # of 1-3 neighbors
     0 = max # of 1-4 neighbors
     1 = max # of special neighbors
  special bonds CPU = 0.004 seconds
  read_data CPU = 0.071 seconds
75 atoms in group sphere
16 atoms in group oxygen
1 atoms in group thorium
59 atoms in group 1
60 atoms in group cluster
6000 atoms in group Th
12000 atoms in group O
20 atoms in group Th_group
40 atoms in group O_group
Setting atom values ...
  20 settings made for type/subset
20 atoms in group Xe
40 atoms in group delete
WARNING: Ignoring 'compress yes' for molecular system (../delete_atoms.cpp:125)
Deleted 40 atoms, new total = 17960
75 atoms in group sphere
1 atoms in group oxygen
16 atoms in group thorium
59 atoms in group 1
60 atoms in group cluster
5980 atoms in group Th
11960 atoms in group O
20 atoms in group Th_group
40 atoms in group O_group
Setting atom values ...
  20 settings made for type/subset
40 atoms in group Xe
40 atoms in group delete
WARNING: Ignoring 'compress yes' for molecular system (../delete_atoms.cpp:125)
Deleted 40 atoms, new total = 17920
75 atoms in group sphere
1 atoms in group oxygen
16 atoms in group thorium
59 atoms in group 1
60 atoms in group cluster
5960 atoms in group Th
11920 atoms in group O
20 atoms in group Th_group
40 atoms in group O_group
Setting atom values ...
  20 settings made for type/subset
60 atoms in group Xe
40 atoms in group delete
WARNING: Ignoring 'compress yes' for molecular system (../delete_atoms.cpp:125)
Deleted 40 atoms, new total = 17880
75 atoms in group sphere
1 atoms in group oxygen
16 atoms in group thorium
59 atoms in group 1
60 atoms in group cluster
5940 atoms in group Th
11880 atoms in group O
20 atoms in group Th_group
40 atoms in group O_group
Setting atom values ...
  20 settings made for type/subset
80 atoms in group Xe
40 atoms in group delete
WARNING: Ignoring 'compress yes' for molecular system (../delete_atoms.cpp:125)
Deleted 40 atoms, new total = 17840
75 atoms in group sphere
1 atoms in group oxygen
16 atoms in group thorium
59 atoms in group 1
60 atoms in group cluster
5920 atoms in group Th
11840 atoms in group O
20 atoms in group Th_group
40 atoms in group O_group
Setting atom values ...
  20 settings made for type/subset
100 atoms in group Xe
40 atoms in group delete
WARNING: Ignoring 'compress yes' for molecular system (../delete_atoms.cpp:125)
Deleted 40 atoms, new total = 17800
75 atoms in group sphere
1 atoms in group oxygen
16 atoms in group thorium
59 atoms in group 1
60 atoms in group cluster
5900 atoms in group Th
11800 atoms in group O
20 atoms in group Th_group
40 atoms in group O_group
Setting atom values ...
  20 settings made for type/subset
120 atoms in group Xe
40 atoms in group delete
WARNING: Ignoring 'compress yes' for molecular system (../delete_atoms.cpp:125)
Deleted 40 atoms, new total = 17760
Setting atom values ...
  11760 settings made for charge
Setting atom values ...
  5880 settings made for charge
Setting atom values ...
  120 settings made for charge
WARNING: 13 of 1000 force values in table Xe-Xe are inconsistent with -dE/dr.
  Should only be flagged at inflection points (../pair_table.cpp:461)
WARNING: 2 of 1000 force values in table Xe-O are inconsistent with -dE/dr.
  Should only be flagged at inflection points (../pair_table.cpp:461)
WARNING: 2 of 1000 force values in table Xe-Th are inconsistent with -dE/dr.
  Should only be flagged at inflection points (../pair_table.cpp:461)
PPPM initialization ...
  using 12-bit tables for long-range coulomb (../kspace.cpp:328)
  G vector (1/distance) = 0.29911239
  grid = 40 240 40
  stencil order = 5
  estimated absolute RMS force accuracy = 0.00015328544
  estimated relative force accuracy = 1.0645085e-05
  using single precision MKL FFT
  3d grid and FFT values/proc = 18225 7600
Neighbor list info ...
  update every 1 steps, delay 0 steps, check yes
  max neighbors/atom: 2000, page size: 100000
  master list distance cutoff = 13
  ghost atom cutoff = 13
  binsize = 6.5, bins = 5 52 5
  3 neighbor lists, perpetual/occasional/extra = 3 0 0
  (1) pair coul/long, perpetual
      attributes: half, newton on
      pair build: half/bin/newton
      stencil: half/bin/3d/newton
      bin: standard
  (2) pair eam/alloy, perpetual, skip from (1)
      attributes: half, newton on
      pair build: skip
      stencil: none
      bin: none
  (3) pair table, perpetual, skip from (1)
      attributes: half, newton on
      pair build: skip
      stencil: none
      bin: none
Setting up cg style minimization ...
  Unit style    : metal
  Current step  : 0
WARNING: Energy due to 3 extra global DOFs will be included in minimizer energies
Per MPI rank memory allocation (min/avg/max) = 10.36 | 10.98 | 11.16 Mbytes
Step Temp E_pair E_mol TotEng Press Volume 
       0            0   -230342.26            0   -230342.26    6330.8171    260641.98 
     163            0    -231330.8            0    -231330.8    148.56552    262127.72 
Loop time of 3.16621 on 52 procs for 163 steps with 17760 atoms

99.4% CPU use with 52 MPI tasks x 1 OpenMP threads

Minimization stats:
  Stopping criterion = linesearch alpha is zero
  Energy initial, next-to-last, final = 
     -230342.263478741  -231330.797710969  -231330.797710969
  Force two-norm initial, final = 1914.5713 49.415094
  Force max component initial, final = 1404.7499 33.120328
  Final line search alpha, max atom move = 2.7657802e-12 9.1603548e-11
  Iterations, force evaluations = 163 273

MPI task timing breakdown:
Section |  min time  |  avg time  |  max time  |%varavg| %total
---------------------------------------------------------------
Pair    | 1.801      | 1.8815     | 1.9683     |   3.1 | 59.43
Bond    | 2.2136e-05 | 3.6326e-05 | 5.5941e-05 |   0.0 |  0.00
Kspace  | 0.56622    | 0.65322    | 0.73215    |   5.3 | 20.63
Neigh   | 0.00273    | 0.0034058  | 0.0042485  |   0.8 |  0.11
Comm    | 0.059225   | 0.060308   | 0.062496   |   0.3 |  1.90
Output  | 0          | 0          | 0          |   0.0 |  0.00
Modify  | 0          | 0          | 0          |   0.0 |  0.00
Other   |            | 0.5677     |            |       | 17.93

Nlocal:        341.538 ave         412 max         290 min
Histogram: 7 3 9 8 6 6 6 1 0 6
Nghost:        5546.00 ave        5703 max        5398 min
Histogram: 2 6 6 9 7 4 6 5 6 1
Neighs:       108806.0 ave      132563 max       93213 min
Histogram: 7 4 14 2 6 12 0 1 0 6

Total # of neighbors = 5657892
Ave neighs/atom = 318.57500
Ave special neighs/atom = 0.0000000
Neighbor list builds = 1
Dangerous builds = 0
Resetting atom IDs ...
PPPM initialization ...
  using 12-bit tables for long-range coulomb (../kspace.cpp:328)
  G vector (1/distance) = 0.29901009
  grid = 40 240 40
  stencil order = 5
  estimated absolute RMS force accuracy = 0.00015409319
  estimated relative force accuracy = 1.070118e-05
  using single precision MKL FFT
  3d grid and FFT values/proc = 18225 7600
Neighbor list info ...
  update every 1 steps, delay 0 steps, check yes
  max neighbors/atom: 2000, page size: 100000
  master list distance cutoff = 13
  ghost atom cutoff = 13
  binsize = 6.5, bins = 5 52 5
  3 neighbor lists, perpetual/occasional/extra = 3 0 0
  (1) pair coul/long, perpetual
      attributes: half, newton on
      pair build: half/bin/newton
      stencil: half/bin/3d/newton
      bin: standard
  (2) pair eam/alloy, perpetual, skip from (1)
      attributes: half, newton on
      pair build: skip
      stencil: none
      bin: none
  (3) pair table, perpetual, skip from (1)
      attributes: half, newton on
      pair build: skip
      stencil: none
      bin: none
Finding 1-2 1-3 1-4 neighbors ...
  special bond factors lj:    0.0      0.0      0.0     
  special bond factors coul:  0.0      0.0      0.0     
     0 = max # of 1-2 neighbors
     0 = max # of 1-3 neighbors
     0 = max # of 1-4 neighbors
     1 = max # of special neighbors
  special bonds CPU = 0.001 seconds
PPPM initialization ...
  using 12-bit tables for long-range coulomb (../kspace.cpp:328)
  G vector (1/distance) = 0.29901009
  grid = 40 240 40
  stencil order = 5
  estimated absolute RMS force accuracy = 0.00015409319
  estimated relative force accuracy = 1.070118e-05
  using single precision MKL FFT
  3d grid and FFT values/proc = 18225 7600
Neighbor list info ...
  update every 1 steps, delay 0 steps, check yes
  max neighbors/atom: 2000, page size: 100000
  master list distance cutoff = 13
  ghost atom cutoff = 13
  binsize = 6.5, bins = 5 52 5
  3 neighbor lists, perpetual/occasional/extra = 3 0 0
  (1) pair coul/long, perpetual
      attributes: half, newton on
      pair build: half/bin/newton
      stencil: half/bin/3d/newton
      bin: standard
  (2) pair eam/alloy, perpetual, skip from (1)
      attributes: half, newton on
      pair build: skip
      stencil: none
      bin: none
  (3) pair table, perpetual, skip from (1)
      attributes: half, newton on
      pair build: skip
      stencil: none
      bin: none
Setting up Verlet run ...
  Unit style    : metal
  Current step  : 163
  Time step     : 0.001
Per MPI rank memory allocation (min/avg/max) = 9.231 | 9.879 | 10.03 Mbytes
Step Dt Time Atoms Temp PotEng KinEng Press Volume 
     163        0.001            0    17760          300    -231330.8    688.65927    2954.4921    262127.72 
   10000        0.001        9.837    17760    301.21326    -231072.4    691.44434   -218.63515    263712.49 
   20000        0.001       19.837    17760    302.45866   -231078.31     694.3032    259.97965    263682.44 
   30000        0.001       29.837    17760    299.10069   -231088.26    686.59488     408.4684    263642.81 
   40000        0.001       39.837    17760    296.51829   -231088.97    680.66691    109.97805    263680.71 
   50000        0.001       49.837    17760    301.94655    -231086.2    693.12764    647.68362    263582.97 
   60000        0.001       59.837    17760     299.1863   -231090.56     686.7914   -119.50524    263707.56 
   70000        0.001       69.837    17760     299.5724    -231093.8     687.6777    460.11426    263584.41 
   80000        0.001       79.837    17760    302.77017   -231090.67    695.01828   -391.94004    263764.53 
   90000        0.001       89.837    17760    297.76697   -231086.56    683.53329    163.80001    263680.61 
  100000        0.001       99.837    17760    297.19715   -231091.53    682.22525    42.650152    263686.78 
  100163        0.001          100    17760    300.48098   -231085.45    689.76339   -545.29537    263793.16 
Loop time of 888.745 on 52 procs for 100000 steps with 17760 atoms

Performance: 9.722 ns/day, 2.469 hours/ns, 112.518 timesteps/s
99.8% CPU use with 52 MPI tasks x 1 OpenMP threads

MPI task timing breakdown:
Section |  min time  |  avg time  |  max time  |%varavg| %total
---------------------------------------------------------------
Pair    | 538.78     | 552.52     | 570.5      |  39.8 | 62.17
Bond    | 0.0096042  | 0.015227   | 0.022398   |   2.4 |  0.00
Kspace  | 180.47     | 198.52     | 212.76     |  66.9 | 22.34
Neigh   | 1.0099     | 1.0829     | 1.1659     |   5.2 |  0.12
Comm    | 23.053     | 23.88      | 24.653     |   8.9 |  2.69
Output  | 0.048081   | 0.048126   | 0.050057   |   0.1 |  0.01
Modify  | 92.662     | 98.24      | 110.8      |  31.2 | 11.05
Other   |            | 14.43      |            |       |  1.62

Nlocal:        341.538 ave         368 max         315 min
Histogram: 4 4 5 12 3 1 6 6 5 6
Nghost:        5554.71 ave        5665 max        5464 min
Histogram: 8 10 5 3 2 1 6 7 6 4
Neighs:       108623.0 ave      118963 max       99074 min
Histogram: 5 10 7 3 1 5 3 8 5 5

Total # of neighbors = 5648420
Ave neighs/atom = 318.04167
Ave special neighs/atom = 0.0000000
Neighbor list builds = 339
Dangerous builds = 0
System init for write_data ...
PPPM initialization ...
  using 12-bit tables for long-range coulomb (../kspace.cpp:328)
  G vector (1/distance) = 0.29889861
  grid = 40 240 40
  stencil order = 5
  estimated absolute RMS force accuracy = 0.00015496244
  estimated relative force accuracy = 1.0761546e-05
  using single precision MKL FFT
  3d grid and FFT values/proc = 18225 7600
Neighbor list info ...
  update every 1 steps, delay 0 steps, check yes
  max neighbors/atom: 2000, page size: 100000
  master list distance cutoff = 13
  ghost atom cutoff = 13
  binsize = 6.5, bins = 5 52 5
  3 neighbor lists, perpetual/occasional/extra = 3 0 0
  (1) pair coul/long, perpetual
      attributes: half, newton on
      pair build: half/bin/newton
      stencil: half/bin/3d/newton
      bin: standard
  (2) pair eam/alloy, perpetual, skip from (1)
      attributes: half, newton on
      pair build: skip
      stencil: none
      bin: none
  (3) pair table, perpetual, skip from (1)
      attributes: half, newton on
      pair build: skip
      stencil: none
      bin: none
Total wall time: 0:14:52
