ITEM: TIMESTEP
80000
ITEM: NUMBER OF ATOMS
17700
ITEM: BOX BOUNDS pp pp pp
-3.4969369493327240e-01 2.7689693694933410e+01
-4.2578276931990322e+00 3.3233782769319129e+02
-3.5907414290340561e-01 2.7699074142902823e+01
ITEM: ATOMS id type q x y z
1 2 2.2208 5.15126 1.30007 5.21483
2 1 -1.1104 1.10682 -2.77652 1.1969
3 1 -1.1104 1.11861 2.74214 0.943373
6 1 -1.1104 1.12535 -2.89601 3.95085
7 1 -1.1104 1.00573 2.60053 3.70556
10 1 -1.1104 1.017 -0.0495405 0.886967
12 2 2.2208 5.16168 -1.379 2.42418
13 2 2.2208 5.20967 4.17196 2.26024
14 1 -1.1104 1.01774 -0.140273 3.7937
16 1 -1.1104 3.97711 -2.87336 1.09189
17 1 -1.1104 3.77781 2.71313 1.06845
18 2 2.2208 2.4156 1.25491 2.42383
19 1 -1.1104 3.85158 -2.92906 3.87949
20 1 -1.1104 4.03793 2.76624 3.80497
21 2 2.2208 2.4362 -1.5585 5.30247
22 2 2.2208 2.38274 3.9613 5.12347
23 1 -1.1104 3.81746 -0.122372 0.838878
24 1 -1.1104 3.80441 -0.0304302 3.70273
174 1 -1.1104 3.72865 -0.140244 6.60316
167 1 -1.1104 1.01618 2.55903 6.49655
172 1 -1.1104 3.93417 -2.9277 6.57793
169 1 -1.1104 6.55462 2.72881 6.47114
4 1 -1.1104 6.63076 -2.86104 0.950499
15 1 -1.1104 6.56097 -0.156243 3.77571
168 1 -1.1104 6.65116 -2.96605 6.50503
8 1 -1.1104 6.62909 -2.92175 3.6865
5 1 -1.1104 6.54551 2.63229 0.853028
173 1 -1.1104 3.80639 2.61179 6.62732
170 1 -1.1104 1.06794 -0.266228 6.68539
171 1 -1.1104 6.45293 -0.0842333 6.55437
118 1 -1.1104 6.5108 16.5373 6.46866
9 1 -1.1104 6.66207 2.7327 3.75315
11 1 -1.1104 6.58229 -0.117968 1.18727
31 2 2.2208 10.8453 1.30111 5.19722
32 1 -1.1104 12.2699 -2.96176 0.688249
33 1 -1.1104 12.0724 2.48539 1.14059
34 1 -1.1104 12.1406 -2.94535 3.67149
35 1 -1.1104 12.2336 2.6254 3.88801
36 1 -1.1104 12.2086 -0.121864 0.963176
37 2 2.2208 10.7413 -1.43882 2.25008
38 2 2.2208 10.7394 3.99238 2.31142
39 1 -1.1104 12.2275 -0.144268 3.67684
40 1 -1.1104 9.42131 -2.81216 0.775727
41 1 -1.1104 9.28204 2.64659 0.889202
42 2 2.2208 7.91036 1.32148 2.36687
43 1 -1.1104 9.35364 -2.95555 3.77153
44 1 -1.1104 9.37669 2.56196 3.65969
45 2 2.2208 7.98502 -1.52616 5.11115
46 2 2.2208 8.03296 4.11512 5.19554
47 1 -1.1104 9.22283 -0.0815099 1.06531
48 1 -1.1104 9.37528 -0.325055 3.74879
209 1 -1.1104 9.37969 2.66773 6.40455
208 1 -1.1104 9.34338 -2.88537 6.61199
205 1 -1.1104 12.1478 -2.94173 6.40537
210 1 -1.1104 9.42793 -0.0584055 6.50443
8419 2 2.2208 13.6602 9.64266 5.19113
207 1 -1.1104 12.101 -0.126052 6.34418
206 1 -1.1104 12.1049 2.6611 6.72081
83 1 -1.1104 9.37325 13.792 12.2478
391 2 2.2208 10.7571 -1.45186 13.5115
54 2 2.2208 5.15659 6.69757 5.10963
55 2 2.2208 5.14138 12.3128 5.25796
56 1 -1.1104 1.08531 8.30419 1.11694
58 1 -1.1104 1.00775 8.07399 3.8851
60 1 -1.1104 1.129 5.46619 0.801606
61 1 -1.1104 1.17146 10.9714 0.985646
66 2 2.2208 5.18284 9.5929 2.34001
67 1 -1.1104 0.962207 5.43601 3.67581
68 1 -1.1104 1.02607 10.9305 3.897
71 1 -1.1104 3.8855 8.09699 0.874487
72 2 2.2208 2.54374 6.82053 2.32072
73 2 2.2208 2.37347 12.3808 2.37923
74 1 -1.1104 3.7239 8.19265 3.70802
75 2 2.2208 2.36534 9.53462 5.20618
76 1 -1.1104 3.78593 5.47806 0.856097
77 1 -1.1104 3.90526 10.9322 0.850156
79 1 -1.1104 3.77425 5.46977 3.7502
80 1 -1.1104 3.82949 10.9313 3.80176
239 1 -1.1104 3.6028 5.39672 6.50157
62 1 -1.1104 0.911375 10.9808 6.46887
57 1 -1.1104 6.55031 8.14083 0.973402
237 1 -1.1104 6.46073 5.37795 6.59729
69 1 -1.1104 6.61574 5.40608 3.82755
238 1 -1.1104 3.71821 8.14377 6.51287
234 1 -1.1104 0.925729 8.15616 6.70099
78 1 -1.1104 3.70471 10.958 6.65279
235 1 -1.1104 6.51724 8.08839 6.50214
236 1 -1.1104 0.812105 5.31643 6.47279
82 1 -1.1104 12.2873 16.7197 9.3092
288 1 -1.1104 6.55323 19.3747 9.30142
70 1 -1.1104 6.63997 10.8741 3.7412
59 1 -1.1104 6.53238 8.00561 3.72077
64 1 -1.1104 6.53991 10.9649 1.06602
63 1 -1.1104 6.62425 5.45752 1.07968
65 1 -1.1104 6.5854 10.9479 6.56602
84 2 2.2208 10.8572 6.67403 5.03786
85 2 2.2208 10.7599 12.2914 5.17685
86 1 -1.1104 12.1272 8.22344 0.890791
87 1 -1.1104 12.1895 8.05206 3.71361
88 1 -1.1104 12.1866 5.32635 0.700912
89 1 -1.1104 12.1174 11.034 0.915241
91 2 2.2208 10.9501 9.53814 2.39578
92 1 -1.1104 12.2886 5.30423 3.62782
93 1 -1.1104 12.1062 11.0118 3.8135
94 1 -1.1104 9.47941 8.25243 0.953762
95 2 2.2208 8.03936 6.84702 2.30175
96 2 2.2208 8.10682 12.3134 2.38902
97 1 -1.1104 9.36629 8.3277 3.72307
98 2 2.2208 7.87932 9.51754 5.16147
99 1 -1.1104 9.37412 5.48511 0.901799
100 1 -1.1104 9.3488 11.1573 0.776855
102 1 -1.1104 9.47334 5.37009 3.72287
103 1 -1.1104 9.50511 10.9146 3.75797
101 1 -1.1104 9.35569 10.9892 6.43185
266 1 -1.1104 12.1132 5.43529 6.55797
269 1 -1.1104 9.32036 5.44959 6.63286
267 1 -1.1104 9.36166 8.27266 6.37527
90 1 -1.1104 12.2766 11.1374 6.44432
265 1 -1.1104 12.1511 8.29062 6.41703
106 2 2.2208 5.26714 17.9262 5.11335
107 1 -1.1104 1.05431 13.8123 1.04998
109 1 -1.1104 0.986562 19.3017 1.02788
113 1 -1.1104 0.951571 13.7544 3.82994
114 1 -1.1104 1.04719 19.3239 3.79748
116 1 -1.1104 0.957176 16.6646 0.858109
119 2 2.2208 5.22159 15.1107 2.38797
120 2 2.2208 5.26601 20.7587 2.18615
121 1 -1.1104 1.07757 16.4873 3.72078
123 1 -1.1104 4.00877 13.8702 0.900837
125 1 -1.1104 3.78271 19.2694 0.835319
127 2 2.2208 2.43626 17.8332 2.32808
128 1 -1.1104 3.73976 13.7395 3.87134
129 1 -1.1104 3.90402 19.2927 3.56922
130 2 2.2208 2.43455 15.2322 5.13769
131 2 2.2208 2.4258 20.739 5.12326
132 1 -1.1104 3.72814 16.5031 0.999857
134 1 -1.1104 3.87235 16.5273 3.79726
117 1 -1.1104 0.867038 16.5614 6.5125
124 1 -1.1104 3.89222 13.7123 6.59241
133 1 -1.1104 3.75666 16.5912 6.58941
108 1 -1.1104 1.04843 13.9326 6.70155
126 1 -1.1104 3.91459 19.3837 6.57319
122 1 -1.1104 6.61777 16.5361 3.68138
203 1 -1.1104 1.05169 19.422 6.69196
289 1 -1.1104 6.70234 16.5981 9.27795
137 2 2.2208 8.02169 15.1714 10.8566
7988 2 2.2208 2.38189 -4.3183 7.93221
154 1 -1.1104 9.42198 13.7084 6.57709
115 1 -1.1104 6.6008 13.7044 3.82969
138 1 -1.1104 6.6546 19.5387 0.832199
110 1 -1.1104 6.72889 13.8353 0.965791
112 1 -1.1104 6.61498 19.3831 6.46847
140 1 -1.1104 6.81873 16.733 0.966865
139 1 -1.1104 6.69553 19.4964 3.70444
141 2 2.2208 10.8577 18.0335 5.24493
142 1 -1.1104 12.2646 13.8055 0.94869
144 1 -1.1104 12.0831 19.507 0.910911
146 1 -1.1104 12.1904 13.7112 3.88507
147 1 -1.1104 12.2522 19.2557 3.65368
148 1 -1.1104 12.4843 16.5605 1.05479
150 2 2.2208 10.912 15.2847 2.3892
151 2 2.2208 10.8263 20.9816 2.33086
152 1 -1.1104 12.3185 16.5024 3.87327
153 1 -1.1104 9.36216 13.8114 0.92334
155 1 -1.1104 9.42074 19.5445 0.890399
157 2 2.2208 8.16041 18.0687 2.27599
158 1 -1.1104 9.41912 13.6563 3.76047
159 1 -1.1104 9.56218 19.5474 3.79938
160 2 2.2208 8.03309 15.1222 5.11184
161 2 2.2208 8.09321 20.803 5.19928
162 1 -1.1104 9.58194 16.6905 0.987187
164 1 -1.1104 9.42138 16.6434 3.92021
143 1 -1.1104 12.0713 13.8317 6.56283
149 1 -1.1104 12.092 16.6977 6.55142
145 1 -1.1104 12.2961 19.5939 6.59179
156 1 -1.1104 9.39227 19.3647 6.49019
111 1 -1.1104 6.6602 13.7428 6.57221
163 1 -1.1104 9.37198 16.5846 6.62715
26 1 -1.1104 12.2947 13.7904 12.1798
8696 2 2.2208 13.489 -1.56091 5.19262
358 2 2.2208 2.21095 1.32206 13.5866
166 1 -1.1104 0.965074 -2.90122 6.58571
175 2 2.2208 5.11035 1.22376 10.8523
176 1 -1.1104 0.86709 -2.86969 12.3506
177 1 -1.1104 0.852676 2.55522 12.1173
180 1 -1.1104 0.9302 -2.90307 9.53503
181 1 -1.1104 0.830128 2.7128 9.40318
184 1 -1.1104 0.979296 -0.170297 12.2537
186 2 2.2208 5.15743 -1.39544 7.99283
188 1 -1.1104 0.848069 -0.0999964 9.37463
190 1 -1.1104 3.76691 -3.01983 12.0986
191 1 -1.1104 3.59846 2.81241 12.1399
192 2 2.2208 2.34564 1.22072 8.05684
193 1 -1.1104 3.83491 -2.82235 9.31098
194 1 -1.1104 3.68034 2.71668 9.4619
195 2 2.2208 2.31684 -1.52856 10.8321
197 1 -1.1104 3.65174 -0.107903 12.1856
198 1 -1.1104 3.78241 -0.145937 9.48379
196 2 2.2208 2.28791 4.08485 10.6062
187 2 2.2208 5.17393 4.04447 7.95308
185 1 -1.1104 6.49815 -0.128696 12.1006
189 1 -1.1104 6.57735 -0.091784 9.37969
178 1 -1.1104 6.56773 -2.84437 12.0691
359 2 2.2208 5.05444 3.98896 13.5594
357 2 2.2208 5.06938 -1.48312 13.4473
183 1 -1.1104 6.63709 2.68865 9.38426
182 1 -1.1104 6.58211 -2.82721 9.26843
179 1 -1.1104 6.54591 2.68965 12.1985
49 1 -1.1104 12.1127 19.3572 9.4738
27 1 -1.1104 12.282 19.4894 12.2835
290 1 -1.1104 6.47548 13.6944 9.48323
8392 2 2.2208 -0.397911 20.8304 7.84536
392 2 2.2208 10.7648 4.18089 13.5129
211 2 2.2208 10.7436 1.31354 10.8144
212 1 -1.1104 12.1791 -3.01885 12.0775
213 1 -1.1104 12.1436 2.66976 12.2136
214 1 -1.1104 12.0994 -2.94032 9.33654
215 1 -1.1104 12.1551 2.63969 9.4241
216 1 -1.1104 12.12 -0.164666 12.0342
217 2 2.2208 10.76 -1.53377 7.8972
219 1 -1.1104 12.0787 -0.150684 9.13306
220 1 -1.1104 9.39647 -2.93636 12.1703
221 1 -1.1104 9.32711 2.80382 12.1782
222 2 2.2208 7.99117 1.28198 7.96644
223 1 -1.1104 9.43086 -2.84295 9.33943
224 1 -1.1104 9.41734 2.66047 9.30091
225 2 2.2208 7.90569 -1.47587 10.7374
226 2 2.2208 7.99272 4.01488 10.7856
227 1 -1.1104 9.35391 -0.0175803 12.1926
228 1 -1.1104 9.2143 -0.075493 9.47726
218 2 2.2208 10.6735 4.11705 7.98017
428 2 2.2208 2.2976 12.3286 13.6356
390 2 2.2208 7.95097 1.2305 13.648
8344 2 2.2208 2.40212 -4.2612 13.6256
517 2 2.2208 10.8171 15.1456 13.5475
25 2 2.2208 10.8382 17.9759 10.8314
426 2 2.2208 2.12932 6.87527 13.5226
240 2 2.2208 5.09563 6.81038 10.8586
241 2 2.2208 5.16555 12.4269 10.7643
242 1 -1.1104 0.818957 8.26807 12.1698
244 1 -1.1104 0.879233 8.31889 9.41615
246 1 -1.1104 0.782977 5.43268 12.0224
247 1 -1.1104 1.00958 10.9116 12.2445
250 2 2.2208 5.22145 9.56455 7.97481
251 1 -1.1104 0.885924 5.61989 9.37614
252 1 -1.1104 0.950804 11.0751 9.29152
255 1 -1.1104 3.53755 8.26108 12.0497
256 2 2.2208 2.41979 6.85211 7.95021
257 2 2.2208 2.33174 12.363 7.9254
258 1 -1.1104 3.80075 8.27659 9.23309
259 2 2.2208 2.395 9.6376 10.7874
260 1 -1.1104 3.55182 5.45478 12.1882
261 1 -1.1104 3.83961 11.0023 12.2454
262 1 -1.1104 3.74509 5.47439 9.37486
263 1 -1.1104 3.79955 11.0106 9.26919
245 1 -1.1104 6.60104 8.15198 9.43153
253 1 -1.1104 6.58495 5.48216 9.34752
248 1 -1.1104 6.46036 5.45044 12.1654
8689 2 2.2208 -0.347989 -1.58709 2.46302
427 2 2.2208 5.11237 9.55141 13.5256
249 1 -1.1104 6.75918 11.2274 12.0376
165 2 2.2208 8.07003 20.7056 10.7641
50 1 -1.1104 12.346 16.5884 12.1225
105 2 2.2208 8.1221 18.0851 7.86282
243 1 -1.1104 6.38925 8.25932 12.1557
254 1 -1.1104 6.61415 10.9635 9.35034
264 1 -1.1104 9.37484 11.1387 9.34855
268 1 -1.1104 9.32735 5.38112 9.46357
270 1 -1.1104 9.40941 11.0782 12.0957
271 1 -1.1104 9.54499 5.51704 12.064
272 2 2.2208 8.048 9.68656 10.75
273 1 -1.1104 9.4545 8.32949 9.29525
274 2 2.2208 8.04299 12.4355 7.95048
275 2 2.2208 7.96992 6.89514 8.00917
276 2 2.2208 10.8051 6.86715 10.7224
277 2 2.2208 10.8762 12.356 10.7083
278 1 -1.1104 12.3379 8.15771 12.0952
279 1 -1.1104 12.1672 8.23268 9.30087
280 1 -1.1104 12.125 5.48562 12.2123
281 1 -1.1104 12.2364 10.983 12.1254
282 2 2.2208 10.7588 9.56316 7.71296
283 1 -1.1104 12.1674 5.47707 9.34174
284 1 -1.1104 11.9281 10.9237 9.17722
285 1 -1.1104 9.36862 8.24228 12.1962
455 2 2.2208 7.99052 12.4736 13.504
453 2 2.2208 7.97117 6.87519 13.4514
454 2 2.2208 10.8261 9.72776 13.6075
516 2 2.2208 10.911 20.8728 13.5445
30 1 -1.1104 12.2364 13.8823 9.50569
297 1 -1.1104 6.5502 13.9533 12.193
104 1 -1.1104 9.60355 19.4612 12.107
491 2 2.2208 5.09349 15.2478 13.5976
490 2 2.2208 5.15732 20.7752 13.5214
489 2 2.2208 2.40595 18.0046 13.57
200 1 -1.1104 9.49917 16.5583 9.48267
136 1 -1.1104 9.40648 19.3033 9.27782
296 1 -1.1104 6.71867 19.2901 12.2438
29 1 -1.1104 6.54687 16.6698 12.2079
28 1 -1.1104 0.952401 16.64 12.2098
51 1 -1.1104 3.62418 13.7562 9.4037
52 1 -1.1104 3.78205 16.6431 9.36783
202 2 2.2208 2.31033 17.927 7.96907
204 1 -1.1104 3.76424 19.3902 9.31996
229 2 2.2208 2.42834 15.1555 10.7352
230 2 2.2208 2.34177 20.6939 10.8484
231 2 2.2208 5.2223 18.068 10.7939
232 1 -1.1104 0.986098 13.8041 12.2078
233 1 -1.1104 3.74084 16.6744 12.1541
286 1 -1.1104 3.87391 19.4763 12.1228
287 1 -1.1104 3.70814 13.7387 12.1165
291 1 -1.1104 0.975104 19.4484 9.42403
292 1 -1.1104 0.87699 16.489 9.32479
293 2 2.2208 5.29974 20.8577 7.98223
294 1 -1.1104 0.877746 13.8346 9.43701
295 2 2.2208 5.34221 15.1759 7.9844
298 1 -1.1104 0.924235 19.3882 12.2149
8467 2 2.2208 13.6015 20.9219 5.04709
7989 2 2.2208 5.13283 -4.26319 10.6923
135 1 -1.1104 9.38278 13.9278 9.42214
81 2 2.2208 10.864 20.8363 8.01631
199 1 -1.1104 9.46176 16.6313 12.2984
53 2 2.2208 10.7832 15.2242 7.96705
8550 2 2.2208 13.5561 1.33947 7.97736
8525 2 2.2208 13.4175 4.03551 10.7677
8391 2 2.2208 13.4872 -1.63947 10.6971
8835 2 2.2208 13.5942 12.398 13.7281
8601 2 2.2208 13.4645 6.98319 7.87259
8761 2 2.2208 13.4752 1.28731 13.5659
8948 2 2.2208 13.5595 17.9582 13.5871
8390 2 2.2208 13.655 4.05289 5.23903
8586 2 2.2208 13.7099 17.9822 2.25734
8606 2 2.2208 13.5611 9.60263 10.7794
8702 2 2.2208 13.5327 6.78674 2.38403
8697 2 2.2208 -0.341155 20.7542 2.19738
8695 2 2.2208 13.5895 1.25042 2.34089
8691 2 2.2208 13.6465 18.0529 7.85657
8945 2 2.2208 -0.27388 15.0889 13.6075
8698 2 2.2208 -0.391577 6.74897 5.1207
8703 2 2.2208 -0.320832 15.2215 2.44462
8602 2 2.2208 13.5837 12.4169 7.93037
8692 2 2.2208 -0.416559 1.21583 5.20536
7987 2 2.2208 10.7228 -4.30821 4.99351
8287 2 2.2208 8.01133 -4.31957 13.5316
317 2 2.2208 5.14164 1.27282 16.3357
318 1 -1.1104 0.836998 -2.91917 17.935
319 1 -1.1104 0.853071 2.69623 17.8624
322 1 -1.1104 1.0992 -2.85113 15.0949
324 1 -1.1104 0.841348 2.68225 15.026
330 1 -1.1104 0.940264 -0.197776 17.7785
332 2 2.2208 5.09854 -1.44732 19.151
333 2 2.2208 5.20738 4.10008 19.1564
334 1 -1.1104 0.918644 -0.024677 15.0365
338 1 -1.1104 3.74527 -3.07663 17.6992
339 1 -1.1104 3.81713 2.53546 17.8013
340 2 2.2208 2.37323 1.27316 19.1339
341 1 -1.1104 3.84482 -2.90177 14.8923
343 1 -1.1104 3.54696 2.65849 14.9892
345 2 2.2208 2.44389 -1.56683 16.3734
347 1 -1.1104 3.67616 -0.271274 17.8217
348 1 -1.1104 3.7914 -0.0374925 14.9072
346 2 2.2208 2.12891 3.95999 16.4608
344 1 -1.1104 3.79599 2.65748 20.5729
323 1 -1.1104 1.01515 -2.96613 20.7143
342 1 -1.1104 3.74059 -2.88486 20.4932
349 1 -1.1104 3.83255 -0.0954597 20.6091
326 1 -1.1104 6.70466 -2.77501 14.6964
327 1 -1.1104 6.43798 -2.91192 20.4468
328 1 -1.1104 6.46651 2.5127 14.9985
336 1 -1.1104 6.50462 -0.117666 14.8637
325 1 -1.1104 0.980573 2.6101 20.5048
337 1 -1.1104 6.47597 -0.0834926 20.5466
8972 2 2.2208 13.6971 15.1696 21.9332
8719 2 2.2208 13.6401 4.03426 27.6197
320 1 -1.1104 6.57767 -2.81875 17.7337
329 1 -1.1104 6.5776 2.7249 20.5004
321 1 -1.1104 6.43709 2.59133 17.8192
331 1 -1.1104 6.40637 -0.15988 17.6736
360 2 2.2208 10.79 1.2414 16.4067
361 1 -1.1104 12.2148 -2.91852 17.6433
362 1 -1.1104 12.0644 2.62388 17.8421
363 1 -1.1104 12.1544 -2.92281 14.9313
365 1 -1.1104 12.1424 2.69806 14.9702
367 1 -1.1104 12.297 -0.125628 17.6707
368 2 2.2208 10.7999 -1.45379 19.0866
370 1 -1.1104 12.1311 -0.159457 14.9824
372 1 -1.1104 9.42336 -2.89902 17.5614
373 1 -1.1104 9.29441 2.62349 17.672
374 2 2.2208 7.86646 1.2163 19.1414
375 1 -1.1104 9.4797 -2.88484 14.8939
377 1 -1.1104 9.3107 2.59912 14.9179
379 2 2.2208 7.95633 -1.55135 16.2244
381 1 -1.1104 9.42208 -0.119357 17.8116
382 1 -1.1104 9.35976 -0.0533391 15.0611
369 2 2.2208 10.8197 4.05129 19.0417
380 2 2.2208 7.97933 3.948 16.3024
366 1 -1.1104 12.1809 2.46714 20.5046
378 1 -1.1104 9.40537 2.92086 20.3817
309 2 2.2208 7.93248 -1.43507 27.6346
371 1 -1.1104 12.0725 -0.102608 20.5268
383 1 -1.1104 9.28234 0.0273443 20.6678
8971 2 2.2208 13.6425 17.971 24.8087
364 1 -1.1104 12.154 -2.81954 20.5402
8831 2 2.2208 13.6208 9.68415 16.2973
8798 2 2.2208 13.6352 6.79301 24.7053
548 1 -1.1104 12.299 13.8988 23.2136
393 2 2.2208 5.11144 6.75267 16.2217
394 2 2.2208 5.20906 12.4291 16.3316
395 1 -1.1104 0.907615 8.30778 17.8742
397 1 -1.1104 0.807495 8.22019 14.9546
401 1 -1.1104 0.999218 5.49001 17.8421
402 1 -1.1104 0.895185 10.9978 17.7023
405 2 2.2208 5.20507 9.7822 19.1725
406 1 -1.1104 0.75433 5.42205 14.9337
408 1 -1.1104 0.898084 11.0465 14.9368
414 1 -1.1104 3.83612 7.9681 17.7319
415 2 2.2208 2.44817 6.85123 19.1589
416 2 2.2208 2.32768 12.4746 19.1995
417 1 -1.1104 3.64846 8.25003 14.8982
419 2 2.2208 2.32412 9.5104 16.3637
420 1 -1.1104 3.68296 5.29968 17.7614
421 1 -1.1104 3.74771 10.9726 17.8691
422 1 -1.1104 3.66531 5.39833 14.9072
424 1 -1.1104 3.73828 10.9889 15.0693
398 1 -1.1104 0.997153 8.15195 20.6786
418 1 -1.1104 3.83343 8.24279 20.6176
425 1 -1.1104 3.76018 11.0533 20.4837
410 1 -1.1104 6.55157 5.41609 14.9462
409 1 -1.1104 1.00418 10.9841 20.6799
407 1 -1.1104 0.885812 5.39726 20.505
584 1 -1.1104 9.37161 19.3523 23.3083
423 1 -1.1104 3.78461 5.58254 20.5232
403 1 -1.1104 6.54951 5.38195 17.6854
399 1 -1.1104 6.60607 8.18382 14.8465
404 1 -1.1104 6.62927 11.1432 17.7507
413 1 -1.1104 6.65359 11.0346 20.6143
412 1 -1.1104 6.64676 10.9719 14.9587
396 1 -1.1104 6.6783 8.22638 17.6691
400 1 -1.1104 6.46335 8.39195 20.4818
429 2 2.2208 10.7051 6.87554 16.3227
430 2 2.2208 10.6698 12.3517 16.3704
431 1 -1.1104 12.2203 8.35468 17.6608
432 1 -1.1104 12.2581 8.24042 14.9884
434 1 -1.1104 12.2786 5.63009 17.6797
435 1 -1.1104 12.0148 11.1193 17.7226
436 2 2.2208 10.724 9.59011 19.1536
437 1 -1.1104 12.1641 5.4222 14.9617
439 1 -1.1104 12.0772 11.1491 14.9693
441 1 -1.1104 9.41001 8.26171 17.6692
442 2 2.2208 7.95615 6.9312 19.0218
443 2 2.2208 8.06362 12.3943 19.1077
444 1 -1.1104 9.43387 8.2712 14.8866
446 2 2.2208 8.03668 9.57842 16.2306
447 1 -1.1104 9.42909 5.40386 17.5673
448 1 -1.1104 9.36686 10.9698 17.6411
449 1 -1.1104 9.33829 5.61267 14.8221
451 1 -1.1104 9.41531 10.9922 14.8597
438 1 -1.1104 12.4628 5.39896 20.3529
433 1 -1.1104 12.1543 8.16908 20.4188
450 1 -1.1104 9.57412 5.52856 20.5108
452 1 -1.1104 9.45435 10.9812 20.5753
440 1 -1.1104 12.2717 11.1002 20.4944
445 1 -1.1104 9.28926 8.17725 20.6631
635 2 2.2208 8.02026 20.857 21.9391
614 1 -1.1104 9.36499 13.8357 26.1731
456 2 2.2208 5.16339 17.9968 16.3379
457 1 -1.1104 0.828889 13.741 17.8493
458 1 -1.1104 0.794023 19.3256 17.8376
461 1 -1.1104 1.14787 13.8722 15.0463
463 1 -1.1104 1.04899 19.5057 15.0754
469 1 -1.1104 1.05117 16.6124 17.8342
471 2 2.2208 5.2268 15.1693 19.2486
472 2 2.2208 5.1963 20.8225 19.0131
473 1 -1.1104 0.885442 16.6645 14.8891
477 1 -1.1104 3.69707 13.9548 17.8405
478 1 -1.1104 3.69558 19.4594 17.6571
479 2 2.2208 2.40306 18.018 19.1958
480 1 -1.1104 3.75913 13.7913 14.9666
482 1 -1.1104 3.68998 19.2843 14.9082
484 2 2.2208 2.39619 15.2389 16.4135
485 2 2.2208 2.26815 20.8548 16.4232
486 1 -1.1104 3.68729 16.6783 17.6807
487 1 -1.1104 3.81364 16.479 15.0158
474 1 -1.1104 1.06798 16.6301 20.5474
462 1 -1.1104 1.0093 13.7594 20.6119
488 1 -1.1104 3.91211 16.506 20.6336
466 1 -1.1104 6.74842 13.7612 20.5475
481 1 -1.1104 3.85336 13.8077 20.6183
483 1 -1.1104 3.82357 19.3206 20.5403
464 1 -1.1104 1.02971 19.4149 20.4792
468 1 -1.1104 6.71433 19.3789 20.4706
475 1 -1.1104 6.56855 16.6384 15.0103
467 1 -1.1104 6.45407 19.5107 14.8951
476 1 -1.1104 6.65716 16.5113 20.6277
465 1 -1.1104 6.61989 13.7928 14.9072
459 1 -1.1104 6.48364 13.8481 17.6692
470 1 -1.1104 6.5245 16.4895 17.8639
9023 2 2.2208 13.6257 9.649 22.0183
313 2 2.2208 5.26071 12.3618 27.5683
460 1 -1.1104 6.66337 19.3666 17.6984
510 1 -1.1104 9.44719 19.3608 20.6019
515 1 -1.1104 9.45742 16.5703 20.459
492 2 2.2208 10.6992 18.0685 16.3065
493 1 -1.1104 12.16 13.8917 17.7673
494 1 -1.1104 12.0388 19.3464 17.7226
495 1 -1.1104 12.1367 13.823 14.8925
497 1 -1.1104 12.1508 19.4662 14.8561
499 1 -1.1104 12.328 16.5636 17.6822
500 2 2.2208 10.7661 15.2842 19.155
501 2 2.2208 10.8378 20.7017 19.0832
502 1 -1.1104 12.1525 16.753 14.9048
504 1 -1.1104 9.43113 13.8483 17.8052
505 1 -1.1104 9.34068 19.5857 17.7846
506 2 2.2208 8.05412 17.9783 19.1803
507 1 -1.1104 9.27699 13.7814 15.0429
509 1 -1.1104 9.28707 19.2915 15.0095
511 2 2.2208 7.96468 15.2319 16.3154
512 2 2.2208 8.08625 20.8628 16.1976
513 1 -1.1104 9.28452 16.5761 17.6744
514 1 -1.1104 9.41425 16.5921 15.0098
498 1 -1.1104 12.3012 19.4368 20.6244
496 1 -1.1104 12.2363 14.0036 20.5303
612 2 2.2208 8.04246 17.958 24.8043
508 1 -1.1104 9.42887 13.8965 20.5813
503 1 -1.1104 12.4149 16.7249 20.6333
551 1 -1.1104 6.66461 16.6297 23.3087
335 1 -1.1104 0.993936 -0.229359 20.4674
306 2 2.2208 2.34043 -1.54328 27.5712
520 2 2.2208 5.21648 1.43177 21.9029
521 1 -1.1104 1.06142 -3.10748 23.6732
522 1 -1.1104 0.967602 2.62548 23.3134
525 1 -1.1104 0.91419 -2.89446 26.4588
526 1 -1.1104 0.919961 2.66225 26.1597
529 1 -1.1104 0.918602 -0.295952 23.2361
531 2 2.2208 5.10608 -1.41688 24.7469
533 1 -1.1104 1.05856 -0.138549 26.0388
535 1 -1.1104 3.78407 -2.99087 23.4772
536 1 -1.1104 3.77544 2.62855 23.4578
537 2 2.2208 2.30525 1.21675 24.7405
538 1 -1.1104 3.76432 -2.93665 26.315
539 1 -1.1104 3.78086 2.60285 26.3035
540 2 2.2208 2.41018 -1.60799 22.0385
541 2 2.2208 2.40543 4.14774 21.9421
542 1 -1.1104 3.69412 -0.236664 23.3783
543 1 -1.1104 3.7531 -0.11402 26.1398
532 2 2.2208 5.19378 4.01029 24.7801
305 2 2.2208 5.04274 1.12405 27.6763
523 1 -1.1104 6.55618 -2.71682 23.3581
527 1 -1.1104 6.45705 -2.92986 26.1276
307 2 2.2208 2.41079 4.03227 27.6237
524 1 -1.1104 6.54486 2.80552 23.2298
552 1 -1.1104 12.0804 19.3925 23.4041
8964 2 2.2208 13.5956 4.03837 21.8964
310 2 2.2208 8.02448 3.98257 27.5215
376 1 -1.1104 9.2263 -2.71992 20.4716
308 2 2.2208 10.8351 1.25932 27.511
534 1 -1.1104 6.68486 0.00223549 26.2758
530 1 -1.1104 6.44406 0.0604084 23.3474
528 1 -1.1104 6.66503 2.71232 26.0997
556 2 2.2208 10.7608 1.38929 21.8856
557 1 -1.1104 12.347 -2.95393 23.2232
558 1 -1.1104 12.2514 2.63328 23.2841
559 1 -1.1104 12.2456 -2.80324 26.0034
560 1 -1.1104 12.3055 2.70507 26.1634
561 1 -1.1104 12.2216 -0.113368 23.3816
562 2 2.2208 10.6182 -1.42975 24.6937
564 1 -1.1104 12.1537 -0.0938185 26.2531
565 1 -1.1104 9.47233 -2.80398 23.2706
566 1 -1.1104 9.34034 2.74962 23.1608
567 2 2.2208 7.93197 1.35724 24.7015
568 1 -1.1104 9.24062 -2.75012 26.0751
569 1 -1.1104 9.30598 2.63077 26.0425
570 2 2.2208 7.89284 -1.52597 21.9699
571 2 2.2208 7.97049 4.10407 21.8644
572 1 -1.1104 9.31594 -0.0810676 23.4412
573 1 -1.1104 9.49832 -0.172247 26.1957
563 2 2.2208 10.7381 4.13756 24.6306
8970 2 2.2208 13.5734 20.7833 21.9825
615 1 -1.1104 9.29716 19.2815 26.1147
311 2 2.2208 5.29171 6.77667 27.568
553 1 -1.1104 12.1005 13.899 26.257
312 2 2.2208 2.47566 9.48218 27.648
585 2 2.2208 5.22229 6.88279 21.882
586 2 2.2208 5.29461 12.3546 22.0769
587 1 -1.1104 1.13555 8.18147 23.4907
589 1 -1.1104 0.937017 8.10812 26.1978
591 1 -1.1104 0.980021 5.34723 23.2527
592 1 -1.1104 1.05069 11.0163 23.3987
595 2 2.2208 5.26791 9.64577 24.8589
596 1 -1.1104 1.1096 5.27008 26.0256
597 1 -1.1104 1.00947 10.8621 26.2251
600 1 -1.1104 3.83754 8.20754 23.418
601 2 2.2208 2.52217 6.76081 24.7833
602 2 2.2208 2.41982 12.3395 24.8592
603 1 -1.1104 3.87448 8.23676 26.2373
604 2 2.2208 2.5313 9.54369 21.9688
605 1 -1.1104 3.81284 5.26837 23.3659
606 1 -1.1104 3.82958 10.9553 23.3537
607 1 -1.1104 3.86685 5.44298 26.155
608 1 -1.1104 3.79671 10.9431 26.1614
593 1 -1.1104 6.63998 5.58558 23.3513
590 1 -1.1104 6.62438 8.33147 26.3095
582 1 -1.1104 12.3903 16.6508 26.1862
610 1 -1.1104 6.58934 13.7911 26.1789
576 1 -1.1104 6.66185 16.5629 26.1365
8903 2 2.2208 13.763 18.0803 19.2295
301 2 2.2208 7.9303 15.1913 27.5747
316 2 2.2208 10.7511 12.3637 27.501
411 1 -1.1104 6.64135 5.47047 20.4591
581 2 2.2208 10.7584 20.7323 24.7968
314 2 2.2208 10.8114 6.87611 27.5792
598 1 -1.1104 6.68091 5.43351 26.3234
594 1 -1.1104 6.67698 10.9695 23.519
599 1 -1.1104 6.56822 11.0833 26.3369
588 1 -1.1104 6.47095 8.27514 23.4392
616 1 -1.1104 9.45083 10.9175 26.0767
617 1 -1.1104 9.33392 5.47932 26.0048
618 1 -1.1104 9.52328 10.9694 23.3521
619 1 -1.1104 9.31621 5.53474 23.4006
620 2 2.2208 7.95069 9.59232 21.9343
621 1 -1.1104 9.45602 8.17281 26.152
622 2 2.2208 7.97571 12.472 24.8062
623 2 2.2208 7.91968 6.89493 24.7803
624 2 2.2208 10.7924 6.83904 21.8128
625 2 2.2208 10.8364 12.4317 21.854
626 1 -1.1104 12.1128 8.05765 23.3002
627 1 -1.1104 12.2069 8.28396 26.0319
628 1 -1.1104 12.2052 5.474 23.1636
629 1 -1.1104 12.3439 10.8275 23.4459
630 2 2.2208 10.9012 9.60019 24.7323
631 1 -1.1104 12.1399 5.51587 26.0064
632 1 -1.1104 12.2947 11.1288 26.2004
633 1 -1.1104 9.27257 8.22527 23.2849
315 2 2.2208 7.98333 9.67345 27.6354
634 1 -1.1104 9.50077 16.514 23.3595
8763 2 2.2208 13.5258 1.11715 19.1001
299 2 2.2208 2.44095 15.1072 27.521
545 1 -1.1104 6.54488 19.4129 23.1833
611 1 -1.1104 3.658 19.3309 23.3679
609 1 -1.1104 3.91936 13.7223 23.3477
580 2 2.2208 2.40758 17.8615 24.6851
352 1 -1.1104 3.84043 19.4781 26.0945
356 2 2.2208 5.28928 18 21.9559
384 1 -1.1104 1.11622 13.8876 23.4108
385 1 -1.1104 0.992455 19.321 23.207
386 2 2.2208 2.4407 15.2122 22.0305
387 2 2.2208 2.43779 20.7252 21.9777
519 2 2.2208 5.24013 15.2398 24.7491
544 2 2.2208 5.22965 20.7604 24.7153
546 1 -1.1104 1.11344 13.7683 26.1788
549 1 -1.1104 3.92567 16.6544 23.4037
550 1 -1.1104 1.02827 16.5637 23.3715
574 1 -1.1104 1.00783 16.4238 26.1251
575 1 -1.1104 1.03862 19.4077 26.0408
578 1 -1.1104 3.84877 13.8219 26.16
579 1 -1.1104 3.8632 16.3908 26.123
300 2 2.2208 5.26095 17.986 27.5937
302 2 2.2208 2.43045 20.7553 27.4614
389 1 -1.1104 6.65342 13.8885 23.4206
8904 2 2.2208 13.5642 20.7769 16.4007
547 2 2.2208 10.8679 18.0365 22.0083
351 1 -1.1104 9.48359 16.6281 26.2075
555 1 -1.1104 12.2288 16.563 23.3576
304 2 2.2208 7.93923 20.8055 27.5363
554 1 -1.1104 12.1496 19.4124 26.1597
577 2 2.2208 10.8479 15.1733 24.7716
303 2 2.2208 10.6954 18.0548 27.5782
583 1 -1.1104 9.43884 13.7127 23.4868
636 2 2.2208 8.03996 15.15 21.9929
613 1 -1.1104 6.55914 19.2934 26.0991
8714 2 2.2208 13.6928 15.2309 27.5575
8973 2 2.2208 13.521 1.22321 24.8609
8762 2 2.2208 -0.307859 1.17215 21.9941
8797 2 2.2208 -0.444197 15.2613 24.8565
8718 2 2.2208 -0.199373 12.4145 27.6301
8949 2 2.2208 -0.302913 12.4708 22.0666
8833 2 2.2208 13.5891 12.604 19.1281
8755 2 2.2208 -0.449264 20.697 24.6796
8901 2 2.2208 13.6231 15.3125 16.3005
8705 2 2.2208 13.5583 9.69144 27.4674
8713 2 2.2208 13.53 20.68 27.5966
8969 2 2.2208 13.5847 -1.45197 21.942
8804 2 2.2208 -0.238091 4.0138 24.7515
8231 2 2.2208 7.98571 -4.15958 24.7334
8316 2 2.2208 10.775 -4.25666 16.2484
7996 2 2.2208 10.8721 -4.27006 27.5108
8830 2 2.2208 13.5499 6.94941 13.6151
518 2 2.2208 7.9783 17.9663 13.5758
637 2 2.2208 5.20764 23.5908 5.04319
638 2 2.2208 5.31425 29.2238 5.04692
639 1 -1.1104 1.15985 24.6998 0.849371
640 1 -1.1104 0.96141 25.0975 3.73232
641 1 -1.1104 0.94537 22.0604 0.694479
642 1 -1.1104 1.09059 27.6813 0.929647
643 2 2.2208 5.13367 26.2437 2.26648
644 1 -1.1104 1.05788 22.1665 3.76339
645 1 -1.1104 1.12432 27.9469 3.7022
646 1 -1.1104 3.89834 24.8591 0.794834
647 2 2.2208 2.32792 23.4296 2.23163
648 2 2.2208 2.47627 29.2749 2.34733
649 1 -1.1104 3.75307 24.9212 3.62079
650 2 2.2208 2.33286 26.453 5.08863
651 1 -1.1104 3.69989 22.1735 0.698449
652 1 -1.1104 3.81493 27.6916 0.832711
653 1 -1.1104 3.94076 22.1545 3.71923
654 1 -1.1104 3.94555 27.786 3.57945
662 1 -1.1104 6.72461 22.058 3.62934
784 1 -1.1104 3.73224 24.9628 6.47459
659 1 -1.1104 6.64139 24.9566 3.76261
780 1 -1.1104 1.0821 22.2448 6.53312
1476 1 -1.1104 1.03582 47.6403 12.3513
786 1 -1.1104 3.68478 27.6587 6.49632
781 1 -1.1104 1.04071 27.8569 6.51297
1513 1 -1.1104 12.3901 47.2516 9.36552
785 1 -1.1104 3.97537 22.1988 6.49534
778 1 -1.1104 0.985288 25.1304 6.64841
782 1 -1.1104 6.73646 22.2425 6.43424
661 1 -1.1104 6.63422 27.7395 0.891567
660 1 -1.1104 6.62213 22.2616 0.825082
658 1 -1.1104 6.61716 24.9221 0.928229
783 1 -1.1104 6.47872 27.6446 6.51236
663 1 -1.1104 6.64808 27.664 3.65847
664 2 2.2208 10.8202 23.5478 5.18879
665 2 2.2208 10.7938 29.1769 5.22998
666 1 -1.1104 12.4107 25.0815 0.963142
667 1 -1.1104 12.0894 25.0036 3.77865
668 1 -1.1104 12.2965 22.3135 0.816263
669 1 -1.1104 12.2967 27.9436 0.896057
670 2 2.2208 10.8121 26.3527 2.37015
671 1 -1.1104 12.3164 22.2491 3.68459
672 1 -1.1104 12.2006 27.6852 3.63427
673 1 -1.1104 9.5041 25.007 0.845805
674 2 2.2208 8.00504 23.5981 2.21528
675 2 2.2208 8.0465 29.2109 2.24586
676 1 -1.1104 9.35097 24.9256 3.6508
677 2 2.2208 7.92808 26.2921 5.16625
678 1 -1.1104 9.40055 22.244 1.02905
679 1 -1.1104 9.4949 27.6267 0.800358
680 1 -1.1104 9.59285 22.1931 3.83726
681 1 -1.1104 9.40657 27.8919 3.78006
812 1 -1.1104 12.15 22.2009 6.48754
811 1 -1.1104 12.1606 24.8349 6.64549
816 1 -1.1104 9.18297 27.6325 6.61966
815 1 -1.1104 9.37438 22.0594 6.65772
779 1 -1.1104 6.48236 24.955 6.48878
814 1 -1.1104 9.45658 24.9767 6.45588
813 1 -1.1104 12.1135 27.793 6.47553
1472 1 -1.1104 0.916232 47.2621 6.64381
1521 1 -1.1104 9.52981 47.4444 12.2589
685 2 2.2208 5.25477 34.7042 5.17503
686 1 -1.1104 1.01723 30.5881 0.964225
687 1 -1.1104 1.02966 36.1422 0.869903
689 1 -1.1104 1.067 30.744 3.82227
690 1 -1.1104 1.0778 36.1229 3.62744
692 1 -1.1104 1.05896 33.4773 0.804515
693 2 2.2208 5.13464 31.9875 2.27793
694 2 2.2208 5.20818 37.6052 2.37475
695 1 -1.1104 0.795404 33.4229 3.69202
697 1 -1.1104 3.87983 30.4745 1.00447
698 1 -1.1104 3.80707 36.0544 0.901167
699 2 2.2208 2.29767 34.7463 2.37623
700 1 -1.1104 3.98858 30.5045 3.73502
701 1 -1.1104 3.90804 36.0791 3.80127
702 2 2.2208 2.4589 31.9558 5.19307
703 2 2.2208 2.50386 37.5542 5.02481
704 1 -1.1104 3.78 33.33 0.910428
705 1 -1.1104 3.67978 33.3129 3.60171
841 1 -1.1104 3.71607 30.442 6.46932
688 1 -1.1104 6.57687 36.1269 0.970157
843 1 -1.1104 3.76552 33.2613 6.46731
836 1 -1.1104 0.953289 36.3023 6.54418
842 1 -1.1104 3.81068 36.0962 6.48996
837 1 -1.1104 6.61978 30.5682 6.51317
835 1 -1.1104 1.10518 30.5615 6.53244
709 1 -1.1104 6.57166 30.5519 0.726145
840 1 -1.1104 6.5502 33.408 6.67612
839 1 -1.1104 1.19764 33.3527 6.56423
1072 2 2.2208 10.829 31.9509 13.5732
1504 1 -1.1104 12.3222 47.2865 6.44071
691 1 -1.1104 6.73345 36.3081 3.61959
710 1 -1.1104 6.71475 30.7408 3.51475
711 1 -1.1104 6.61019 33.4451 0.824072
696 1 -1.1104 6.55063 33.4438 3.83157
712 2 2.2208 10.9197 34.6958 5.16959
713 1 -1.1104 12.385 30.7187 1.02409
714 1 -1.1104 12.2311 36.2068 1.06511
715 1 -1.1104 12.2108 30.4505 3.748
716 1 -1.1104 12.2549 36.1967 3.74876
717 1 -1.1104 12.2661 33.411 0.93144