ITEM: TIMESTEP
20000
ITEM: NUMBER OF ATOMS
17700
ITEM: BOX BOUNDS pp pp pp
-3.6068827054949049e-01 2.7700688270549293e+01
-4.3476192466305923e+00 3.3242761924663182e+02
-3.5538097147707626e-01 2.7695380971476666e+01
ITEM: ATOMS id type q x y z
1 2 2.2208 5.15978 1.37569 5.18966
2 1 -1.1104 0.875637 -3.02328 1.09524
3 1 -1.1104 1.00196 2.49766 1.02378
6 1 -1.1104 0.975872 -3.15683 3.77642
7 1 -1.1104 1.08158 2.62459 3.82725
10 1 -1.1104 1.11263 -0.179045 1.00483
12 2 2.2208 5.22742 -1.41197 2.43243
13 2 2.2208 5.15879 4.00903 2.41781
14 1 -1.1104 1.0038 -0.270831 3.7864
16 1 -1.1104 3.71349 -3.08666 0.994983
17 1 -1.1104 3.83482 2.73002 1.0252
18 2 2.2208 2.4072 1.08584 2.29793
19 1 -1.1104 3.92001 -2.8637 3.71201
20 1 -1.1104 3.87362 2.64667 3.72179
21 2 2.2208 2.38883 -1.56325 5.24505
22 2 2.2208 2.37842 3.97811 5.23389
23 1 -1.1104 3.97917 -0.211248 0.902185
24 1 -1.1104 3.66877 -0.163088 3.76497
8 1 -1.1104 6.66629 -2.79035 3.85176
11 1 -1.1104 6.70349 -0.0205528 0.968919
5 1 -1.1104 6.61632 2.65224 1.02913
4 1 -1.1104 6.60762 -2.89707 1.00438
171 1 -1.1104 6.58664 -0.103733 6.65038
8701 2 2.2208 13.5538 12.4086 2.44677
7985 2 2.2208 5.15395 -4.25698 5.26423
174 1 -1.1104 3.74615 -0.25113 6.57496
172 1 -1.1104 3.81285 -2.96575 6.67383
303 2 2.2208 10.7262 18.0258 -0.336202
391 2 2.2208 10.6838 -1.47039 13.645
15 1 -1.1104 6.41371 -0.00618984 3.82324
9 1 -1.1104 6.62646 2.76221 3.82317
31 2 2.2208 10.7572 1.16277 5.20859
32 1 -1.1104 12.2302 -2.94622 1.23127
33 1 -1.1104 12.363 2.62135 1.01109
34 1 -1.1104 12.4995 -3.00857 4.01439
35 1 -1.1104 12.3088 2.65269 3.80342
36 1 -1.1104 12.2388 -0.0159627 1.1158
37 2 2.2208 10.8905 -1.43913 2.51303
38 2 2.2208 10.8483 4.02775 2.46583
39 1 -1.1104 12.3594 -0.160205 3.93016
40 1 -1.1104 9.45596 -2.98401 1.1245
41 1 -1.1104 9.63183 2.58536 0.972279
42 2 2.2208 8.0715 1.21215 2.42154
43 1 -1.1104 9.51835 -2.876 4.06709
44 1 -1.1104 9.48696 2.55621 3.90452
45 2 2.2208 7.96573 -1.62823 5.28051
46 2 2.2208 8.06268 4.0889 5.3827
47 1 -1.1104 9.56099 -0.208761 1.03526
48 1 -1.1104 9.41757 -0.237459 3.80596
8467 2 2.2208 13.6014 20.8338 5.24012
207 1 -1.1104 12.1707 -0.154097 6.67218
313 2 2.2208 5.16309 12.4927 -0.233451
169 1 -1.1104 6.5805 2.70519 6.5756
209 1 -1.1104 9.3468 2.77313 6.56534
205 1 -1.1104 12.3058 -2.97137 6.66364
206 1 -1.1104 12.1964 2.59787 6.69156
210 1 -1.1104 9.38022 0.0265583 6.74704
208 1 -1.1104 9.42981 -2.84636 6.7246
7987 2 2.2208 10.8491 -4.30465 5.30171
8417 2 2.2208 -0.361215 18.057 10.8124
199 1 -1.1104 9.43524 16.5933 12.2844
8695 2 2.2208 13.6541 1.28509 2.39426
299 2 2.2208 2.39706 15.228 -0.366415
54 2 2.2208 5.11612 6.6442 5.26347
55 2 2.2208 5.25925 12.3393 5.18094
56 1 -1.1104 1.12093 8.20301 1.11359
58 1 -1.1104 0.846712 8.28377 3.81715
60 1 -1.1104 1.06129 5.35459 1.2544
61 1 -1.1104 0.939047 11.0569 1.17847
66 2 2.2208 5.19947 9.53343 2.44671
67 1 -1.1104 0.966649 5.47562 3.92992
68 1 -1.1104 1.03256 10.9951 4.02764
71 1 -1.1104 3.79691 8.37996 0.97512
72 2 2.2208 2.41527 6.8702 2.46761
73 2 2.2208 2.32286 12.3928 2.43737
74 1 -1.1104 3.65233 8.07317 4.01874
75 2 2.2208 2.44659 9.59939 5.23507
76 1 -1.1104 3.76308 5.64551 0.920614
77 1 -1.1104 3.81898 11.0208 1.08675
79 1 -1.1104 3.76872 5.42489 3.79819
80 1 -1.1104 3.8156 10.9157 3.85357
69 1 -1.1104 6.47742 5.49609 3.82999
57 1 -1.1104 6.59502 8.12066 1.21621
70 1 -1.1104 6.70576 11.0631 3.9521
63 1 -1.1104 6.55289 5.49036 1.12587
59 1 -1.1104 6.63107 8.37638 3.90725
64 1 -1.1104 6.45195 11.0684 1.16564
62 1 -1.1104 1.00654 11.1193 6.72804
7992 2 2.2208 10.8313 -4.34098 10.8055
7986 2 2.2208 8.08635 -4.30973 2.5776
8601 2 2.2208 13.4647 6.84293 8.20865
84 2 2.2208 10.897 6.93759 5.25156
85 2 2.2208 10.7645 12.373 5.332
86 1 -1.1104 12.2808 8.17805 1.00279
87 1 -1.1104 12.3674 8.31366 3.74388
88 1 -1.1104 12.1137 5.52892 1.00645
89 1 -1.1104 12.1939 11.0339 1.07298
91 2 2.2208 10.9287 9.65214 2.37271
92 1 -1.1104 12.1849 5.5367 3.91624
93 1 -1.1104 12.3212 10.9714 3.75542
94 1 -1.1104 9.45398 8.2088 1.19735
95 2 2.2208 8.03087 6.79565 2.58005
96 2 2.2208 8.01678 12.3942 2.65564
97 1 -1.1104 9.54969 8.26594 3.83479
98 2 2.2208 8.01514 9.63898 5.37758
99 1 -1.1104 9.37419 5.42608 1.06018
100 1 -1.1104 9.43222 11.1862 0.974689
102 1 -1.1104 9.38025 5.51468 3.8983
103 1 -1.1104 9.58689 11.0484 3.80745
50 1 -1.1104 12.2491 16.6175 12.1135
8419 2 2.2208 13.6454 9.59492 5.23355
237 1 -1.1104 6.60705 5.58318 6.58133
267 1 -1.1104 9.46071 8.2165 6.75395
266 1 -1.1104 12.1219 5.4434 6.71242
269 1 -1.1104 9.48778 5.58952 6.71361
8586 2 2.2208 13.615 17.964 2.40515
30 1 -1.1104 12.228 13.6611 9.53199
8700 2 2.2208 -0.279018 12.442 5.32128
149 1 -1.1104 12.1869 16.5788 6.61986
106 2 2.2208 5.2275 17.9632 5.26529
107 1 -1.1104 0.891494 13.8531 1.08274
109 1 -1.1104 1.00751 19.3647 1.20811
113 1 -1.1104 1.01596 13.8036 3.85511
114 1 -1.1104 0.922735 19.3033 3.82559
116 1 -1.1104 1.05523 16.6082 0.839433
119 2 2.2208 5.05092 15.2244 2.37321
120 2 2.2208 5.09316 20.8386 2.50669
121 1 -1.1104 0.967336 16.6931 3.82236
123 1 -1.1104 3.71574 13.8804 1.0838
125 1 -1.1104 3.68502 19.3685 1.13385
127 2 2.2208 2.35164 18.0273 2.4909
128 1 -1.1104 3.78675 13.6237 3.91006
129 1 -1.1104 3.86375 19.3977 3.96389
130 2 2.2208 2.55681 15.2379 5.3838
131 2 2.2208 2.38274 20.7454 5.13115
132 1 -1.1104 3.68954 16.6407 1.1526
134 1 -1.1104 3.72806 16.6111 3.83851
139 1 -1.1104 6.76558 19.3549 3.85798
110 1 -1.1104 6.56489 13.895 1.13798
138 1 -1.1104 6.55759 19.4446 1.08944
140 1 -1.1104 6.58416 16.629 0.965985
8619 2 2.2208 -0.33463 9.63692 8.15527
203 1 -1.1104 1.15214 19.4214 6.53782
117 1 -1.1104 1.13272 16.6226 6.57497
133 1 -1.1104 3.89966 16.6015 6.64915
118 1 -1.1104 6.62913 16.5421 6.6433
8606 2 2.2208 13.5992 9.75463 10.9004
8652 2 2.2208 13.6331 20.7832 10.8018
8693 2 2.2208 -0.357787 3.94228 2.45894
115 1 -1.1104 6.50396 13.8914 3.90591
122 1 -1.1104 6.52266 16.5977 3.81615
141 2 2.2208 10.8023 17.9934 5.20153
142 1 -1.1104 12.0964 13.8382 0.985188
144 1 -1.1104 12.1236 19.5296 0.90369
146 1 -1.1104 12.2012 13.7741 3.79142
147 1 -1.1104 12.2697 19.3682 3.80156
148 1 -1.1104 12.2098 16.6381 1.00334
150 2 2.2208 10.8553 15.1715 2.45901
151 2 2.2208 10.6984 20.7834 2.49253
152 1 -1.1104 12.1163 16.6187 3.87799
153 1 -1.1104 9.28038 13.9246 1.31149
155 1 -1.1104 9.31728 19.3322 1.10597
157 2 2.2208 7.94224 17.8976 2.54768
158 1 -1.1104 9.37853 13.8057 3.91905
159 1 -1.1104 9.45927 19.22 3.94298
160 2 2.2208 7.91416 15.1485 5.30455
161 2 2.2208 8.02294 20.7642 5.27407
162 1 -1.1104 9.46736 16.6142 1.26068
164 1 -1.1104 9.3681 16.6027 3.89497
297 1 -1.1104 6.62727 13.806 12.2075
145 1 -1.1104 12.245 19.235 6.60448
316 2 2.2208 10.7998 12.4134 -0.300235
8488 2 2.2208 13.6063 15.1661 5.25312
8390 2 2.2208 13.6163 3.95683 5.29006
301 2 2.2208 7.98034 15.3544 -0.288109
163 1 -1.1104 9.29715 16.7029 6.71614
168 1 -1.1104 6.661 -2.94068 6.69713
166 1 -1.1104 1.03938 -2.92452 6.68996
170 1 -1.1104 1.14073 -0.20253 6.58767
167 1 -1.1104 0.963437 2.71712 6.59636
173 1 -1.1104 3.69868 2.37841 6.65588
175 2 2.2208 5.2846 1.19842 10.9315
176 1 -1.1104 1.1077 -2.91059 12.3601
177 1 -1.1104 0.912712 2.57475 12.25
180 1 -1.1104 1.12573 -3.05538 9.46313
181 1 -1.1104 1.06325 2.60933 9.39749
184 1 -1.1104 1.05101 -0.183842 12.2158
186 2 2.2208 5.2169 -1.57664 8.04938
187 2 2.2208 5.10577 4.02309 8.04758
188 1 -1.1104 1.0536 -0.145769 9.45877
190 1 -1.1104 3.83166 -3.19984 12.2087
191 1 -1.1104 3.6823 2.59589 12.359
192 2 2.2208 2.4186 1.26334 8.00195
193 1 -1.1104 3.84792 -2.90858 9.46605
194 1 -1.1104 3.72561 2.6729 9.49801
195 2 2.2208 2.45061 -1.53958 10.9215
196 2 2.2208 2.34389 3.99693 10.8254
197 1 -1.1104 3.85255 -0.250091 12.3282
198 1 -1.1104 3.85205 -0.162378 9.49966
185 1 -1.1104 6.74421 -0.184462 12.3246
182 1 -1.1104 6.51692 -3.06315 9.49877
183 1 -1.1104 6.61384 2.61119 9.26115
178 1 -1.1104 6.50934 -2.95398 12.3069
189 1 -1.1104 6.62438 -0.154329 9.53622
8945 2 2.2208 -0.346357 15.1469 13.5608
136 1 -1.1104 9.37566 19.4304 9.58244
8761 2 2.2208 13.6152 1.23729 13.6264
8550 2 2.2208 13.6623 1.21598 8.03784
8551 2 2.2208 -0.346423 -1.66246 8.04463
179 1 -1.1104 6.55001 2.7108 12.2174
211 2 2.2208 10.8624 1.29028 10.8328
212 1 -1.1104 12.1861 -2.80452 12.2431
213 1 -1.1104 12.2558 2.69434 12.2374
214 1 -1.1104 12.2788 -2.95546 9.41807
215 1 -1.1104 12.2793 2.72369 9.46029
216 1 -1.1104 12.2247 -0.0103519 12.1882
217 2 2.2208 10.7484 -1.55547 8.15224
218 2 2.2208 10.8131 4.04261 7.98663
219 1 -1.1104 12.2249 -0.0833373 9.45988
220 1 -1.1104 9.32571 -2.90039 12.1855
221 1 -1.1104 9.35681 2.53786 12.294
222 2 2.2208 7.98608 1.25008 8.00156
223 1 -1.1104 9.50705 -2.96439 9.38946
224 1 -1.1104 9.25513 2.75693 9.23482
225 2 2.2208 8.09366 -1.43827 10.8604
226 2 2.2208 7.92088 4.0195 10.8951
227 1 -1.1104 9.41964 -0.172528 12.2204
228 1 -1.1104 9.4251 -0.0705228 9.50146
53 2 2.2208 10.8107 15.1573 8.13018
154 1 -1.1104 9.37362 13.8367 6.56308
235 1 -1.1104 6.58423 8.22692 6.54376
78 1 -1.1104 3.86045 11.0699 6.61353
236 1 -1.1104 0.953492 5.35611 6.64613
234 1 -1.1104 0.915288 8.20876 6.68227
238 1 -1.1104 3.78291 8.1126 6.81578
239 1 -1.1104 3.89729 5.25748 6.5516
240 2 2.2208 5.2329 6.70549 10.885
241 2 2.2208 5.206 12.3572 10.8863
242 1 -1.1104 0.910966 8.22164 12.336
244 1 -1.1104 1.07204 8.17259 9.53627
246 1 -1.1104 0.912928 5.38498 12.3063
247 1 -1.1104 1.0319 11.0622 12.3873
250 2 2.2208 5.24848 9.59794 8.00945
251 1 -1.1104 0.81214 5.47866 9.4447
252 1 -1.1104 1.09673 10.9606 9.64239
255 1 -1.1104 3.67236 8.17135 12.3818
256 2 2.2208 2.38733 6.78971 8.11123
257 2 2.2208 2.3536 12.3959 7.9956
258 1 -1.1104 3.97598 8.20617 9.51275
259 2 2.2208 2.49683 9.53428 10.954
260 1 -1.1104 3.77667 5.3261 12.1877
261 1 -1.1104 3.78822 10.9713 12.4051
262 1 -1.1104 3.74847 5.43303 9.31658
263 1 -1.1104 3.88066 11.0486 9.49279
254 1 -1.1104 6.62307 10.8862 9.36945
65 1 -1.1104 6.68841 11.0376 6.62761
249 1 -1.1104 6.73041 10.8998 12.2812
248 1 -1.1104 6.66055 5.43319 12.2326
8602 2 2.2208 13.6444 12.3819 8.05537
243 1 -1.1104 6.57894 8.08592 12.3205
245 1 -1.1104 6.63223 8.04539 9.44
253 1 -1.1104 6.51348 5.3942 9.40226
90 1 -1.1104 12.2917 10.9589 6.60211
265 1 -1.1104 12.1195 8.23798 6.52453
101 1 -1.1104 9.42719 10.9577 6.62567
264 1 -1.1104 9.45167 11.0359 9.44015
268 1 -1.1104 9.25537 5.41495 9.50363
270 1 -1.1104 9.34287 11.0428 12.2647
271 1 -1.1104 9.5435 5.30381 12.3525
272 2 2.2208 7.96231 9.49921 10.9032
273 1 -1.1104 9.47298 8.13269 9.55012
274 2 2.2208 8.01958 12.3727 8.08166
275 2 2.2208 7.97668 6.82795 8.09286
276 2 2.2208 10.7311 6.83203 10.9932
277 2 2.2208 10.7091 12.4312 10.9446
278 1 -1.1104 12.1819 8.28196 12.3965
279 1 -1.1104 12.2332 8.35785 9.62662
280 1 -1.1104 12.2954 5.50953 12.2652
281 1 -1.1104 12.2138 11.121 12.3493
282 2 2.2208 10.8889 9.58453 8.06729
283 1 -1.1104 12.0969 5.46446 9.53271
284 1 -1.1104 12.1299 11.0636 9.49311
285 1 -1.1104 9.44619 8.21413 12.207
314 2 2.2208 10.7995 6.85457 -0.345796
104 1 -1.1104 9.56333 19.3623 12.2729
29 1 -1.1104 6.64772 16.6081 12.4318
111 1 -1.1104 6.64514 13.7438 6.69378
289 1 -1.1104 6.60381 16.6048 9.50004
112 1 -1.1104 6.60406 19.254 6.68724
126 1 -1.1104 3.92251 19.4239 6.59485
124 1 -1.1104 3.86527 13.7515 6.74046
108 1 -1.1104 0.970238 13.8947 6.75118
28 1 -1.1104 1.01906 16.604 12.268
51 1 -1.1104 3.72731 13.8238 9.52639
52 1 -1.1104 3.81444 16.5081 9.53375
202 2 2.2208 2.40991 18.0252 8.02535
204 1 -1.1104 3.74519 19.2494 9.43793
229 2 2.2208 2.4457 15.271 10.9682
230 2 2.2208 2.35298 20.7718 10.778
231 2 2.2208 5.27731 18.0757 11.0036
232 1 -1.1104 1.15909 13.7747 12.1754
233 1 -1.1104 3.9592 16.5854 12.25
286 1 -1.1104 3.87999 19.5646 12.2787
287 1 -1.1104 3.81288 13.7582 12.3134
291 1 -1.1104 0.967439 19.4398 9.3274
292 1 -1.1104 0.871692 16.5472 9.36885
293 2 2.2208 5.28183 20.7713 7.98853
294 1 -1.1104 0.82489 13.8049 9.39352
295 2 2.2208 5.22907 15.1754 8.10156
298 1 -1.1104 0.984083 19.3953 12.12
290 1 -1.1104 6.6085 13.7685 9.49179
288 1 -1.1104 6.57572 19.4343 9.50626
296 1 -1.1104 6.60503 19.4027 12.3059
135 1 -1.1104 9.52202 13.7777 9.465
25 2 2.2208 10.7659 18.0106 10.7711
27 1 -1.1104 12.2718 19.4537 12.1641
81 2 2.2208 10.8578 20.7587 8.07841
26 1 -1.1104 12.2106 13.8167 12.3529
105 2 2.2208 8.00091 18.0177 8.06864
143 1 -1.1104 12.3071 13.6857 6.65651
83 1 -1.1104 9.41004 13.7708 12.3213
200 1 -1.1104 9.44648 16.6397 9.44564
137 2 2.2208 7.97595 15.1899 10.8662
156 1 -1.1104 9.38509 19.5201 6.87745
165 2 2.2208 8.03958 20.8251 10.9003
49 1 -1.1104 12.2103 19.3085 9.50498
82 1 -1.1104 12.3297 16.5835 9.40243
8391 2 2.2208 13.6246 -1.51401 10.8287
8690 2 2.2208 13.5426 15.267 10.7558
8525 2 2.2208 13.65 4.09117 10.8814
8692 2 2.2208 -0.303555 1.12596 5.15985
8702 2 2.2208 13.5853 6.80546 2.48147
8876 2 2.2208 -0.295963 9.62219 13.665
8708 2 2.2208 -0.268583 6.82081 -0.326662
311 2 2.2208 5.18771 6.88721 -0.329578
454 2 2.2208 10.8494 9.65547 13.6586
8287 2 2.2208 7.92888 -4.28096 13.5725
309 2 2.2208 8.06674 -1.60281 -0.339339
8705 2 2.2208 13.6493 9.67199 -0.269738
491 2 2.2208 5.21531 15.0396 13.6453
307 2 2.2208 2.50177 3.96933 -0.278723
426 2 2.2208 2.32481 6.69998 13.5555
300 2 2.2208 5.21178 18.0198 -0.280695
310 2 2.2208 8.10034 4.04215 -0.213932
315 2 2.2208 8.03331 9.58599 -0.235251
427 2 2.2208 5.13596 9.6149 13.6179
304 2 2.2208 8.00092 20.8792 -0.316115
8948 2 2.2208 13.5869 17.9556 13.5327
317 2 2.2208 5.20395 1.18144 16.5044
318 1 -1.1104 1.02635 -2.98946 18.0096
319 1 -1.1104 0.977938 2.57891 17.9455
322 1 -1.1104 1.04404 -2.8833 15.1512
324 1 -1.1104 0.943627 2.453 15.096
330 1 -1.1104 1.00776 -0.221353 18.0804
332 2 2.2208 5.35653 -1.6726 19.348
333 2 2.2208 5.2527 3.98078 19.4185
334 1 -1.1104 1.18792 -0.249606 15.2111
338 1 -1.1104 3.89636 -2.94325 18.0711
339 1 -1.1104 3.80557 2.45505 17.9981
340 2 2.2208 2.48253 1.19663 19.3755
341 1 -1.1104 3.85965 -3.11774 15.044
343 1 -1.1104 3.81087 2.58197 15.2181
345 2 2.2208 2.46901 -1.59143 16.5067
346 2 2.2208 2.4282 3.94905 16.6282
347 1 -1.1104 3.89368 -0.23238 18.1222
348 1 -1.1104 3.78409 -0.240596 15.128
331 1 -1.1104 6.78343 -0.236098 17.9162
326 1 -1.1104 6.61488 -3.00081 15.0936
337 1 -1.1104 6.59191 -0.350254 20.7385
8971 2 2.2208 13.5731 17.9372 24.7877
336 1 -1.1104 6.60677 -0.279803 15.1034
349 1 -1.1104 3.94508 -0.159232 20.7026
323 1 -1.1104 1.02917 -2.93201 20.8403
335 1 -1.1104 1.09898 -0.275046 20.7412
342 1 -1.1104 4.01854 -3.08683 20.8588
325 1 -1.1104 1.14797 2.59629 20.7164
344 1 -1.1104 3.93179 2.66228 20.808
327 1 -1.1104 6.77317 -2.98393 20.8091
553 1 -1.1104 12.344 13.9279 26.2929
548 1 -1.1104 12.2584 13.8448 23.5872
320 1 -1.1104 6.6026 -2.96845 17.8973
321 1 -1.1104 6.57497 2.54111 17.9565
328 1 -1.1104 6.51693 2.59645 15.0998
360 2 2.2208 10.8181 1.32157 16.5696
361 1 -1.1104 12.2097 -2.75941 17.7439
362 1 -1.1104 12.2778 2.64375 17.8113
363 1 -1.1104 12.1674 -2.76141 14.8889
365 1 -1.1104 12.2785 2.72598 15.1158
367 1 -1.1104 12.3091 -0.183863 17.911
368 2 2.2208 10.8816 -1.6258 19.354
369 2 2.2208 11.0201 4.09277 19.2985
370 1 -1.1104 12.1759 0.0763474 15.0846
372 1 -1.1104 9.44033 -2.9668 17.8246
373 1 -1.1104 9.4253 2.63284 17.8424
374 2 2.2208 8.08086 1.19091 19.3214
375 1 -1.1104 9.26146 -2.75173 14.867
377 1 -1.1104 9.32826 2.66746 15.0715
379 2 2.2208 8.07271 -1.46506 16.4925
380 2 2.2208 7.96118 3.90391 16.4035
381 1 -1.1104 9.51149 -0.097873 17.8484
382 1 -1.1104 9.28992 -0.041881 15.1176
364 1 -1.1104 12.4066 -3.04391 20.6675
376 1 -1.1104 9.48961 -3.02123 20.8212
371 1 -1.1104 12.3269 -0.310666 20.7535
552 1 -1.1104 12.1142 19.3709 23.4007
378 1 -1.1104 9.55498 2.66684 20.5404
366 1 -1.1104 12.2772 2.57249 20.531
8833 2 2.2208 13.6272 12.4111 19.2205
8762 2 2.2208 -0.310098 1.21084 22.1931
17575 2 2.2208 13.5521 -4.32555 13.7634
393 2 2.2208 5.26366 6.72016 16.4801
394 2 2.2208 5.26369 12.4421 16.5553
395 1 -1.1104 1.02265 8.12405 17.9202
397 1 -1.1104 1.00372 8.09754 14.9888
401 1 -1.1104 1.03007 5.37118 17.8991
402 1 -1.1104 0.90111 10.9238 18.0443
405 2 2.2208 5.19832 9.62804 19.2801
406 1 -1.1104 1.10701 5.19525 15.048
408 1 -1.1104 1.05347 10.9215 15.1576
414 1 -1.1104 3.96114 8.12552 17.9616
415 2 2.2208 2.39879 6.7049 19.3538
416 2 2.2208 2.26502 12.365 19.2379
417 1 -1.1104 3.78597 8.13158 15.0925
419 2 2.2208 2.53442 9.42069 16.4689
420 1 -1.1104 3.93224 5.29491 17.8986
421 1 -1.1104 3.64689 10.8793 18.1135
422 1 -1.1104 3.76667 5.37074 15.0649
424 1 -1.1104 3.89005 10.9421 15.2474
396 1 -1.1104 6.62375 8.20341 17.9005
410 1 -1.1104 6.57782 5.31356 14.9735
412 1 -1.1104 6.64365 10.8959 14.9469
399 1 -1.1104 6.60262 8.10608 15.1808
404 1 -1.1104 6.59948 11.0327 17.8408
498 1 -1.1104 12.2967 19.365 20.6758
423 1 -1.1104 3.83569 5.34176 20.7628
615 1 -1.1104 9.33101 19.2665 26.2621
614 1 -1.1104 9.37784 13.7677 26.3118
8231 2 2.2208 8.02416 -4.33958 24.9836
8903 2 2.2208 13.6103 18.083 19.2278
8316 2 2.2208 10.7923 -4.23152 16.416
403 1 -1.1104 6.61081 5.34891 17.9271
453 2 2.2208 8.02582 6.77428 13.7161
429 2 2.2208 10.9231 6.85296 16.5719
430 2 2.2208 10.8371 12.3872 16.3913
431 1 -1.1104 12.2534 8.26018 17.9731
432 1 -1.1104 12.2473 8.3267 15.2039
434 1 -1.1104 12.273 5.35962 18.0374
435 1 -1.1104 12.2525 11.0811 17.9275
436 2 2.2208 10.8249 9.6192 19.2571
437 1 -1.1104 12.1494 5.56136 14.9821
439 1 -1.1104 12.2416 10.9854 15.2179
441 1 -1.1104 9.40926 8.22153 17.8446
442 2 2.2208 7.975 6.82933 19.3652
443 2 2.2208 7.97338 12.4152 19.228
444 1 -1.1104 9.46875 8.25824 14.9463
446 2 2.2208 8.16449 9.49827 16.3405
447 1 -1.1104 9.4697 5.3222 17.846
448 1 -1.1104 9.45982 10.9823 17.6856
449 1 -1.1104 9.36843 5.43987 15.2372
451 1 -1.1104 9.44085 10.9099 14.986
452 1 -1.1104 9.4206 11.0061 20.4765
450 1 -1.1104 9.4496 5.6009 20.6111
445 1 -1.1104 9.51725 8.29279 20.5438
438 1 -1.1104 12.3396 5.43582 20.6836
8972 2 2.2208 13.5705 15.1902 22.0258
8757 2 2.2208 13.6733 3.93481 16.4762
8799 2 2.2208 -0.330229 -1.54743 25.0035
8713 2 2.2208 13.6218 20.7831 27.6446
456 2 2.2208 5.11601 17.9753 16.4853
457 1 -1.1104 0.900013 13.7879 17.6966
458 1 -1.1104 1.05975 19.316 17.8676
461 1 -1.1104 1.08373 13.7882 14.9407
463 1 -1.1104 0.942497 19.4368 15.0339
469 1 -1.1104 0.87175 16.4726 17.7559
471 2 2.2208 5.18472 15.142 19.3752
472 2 2.2208 5.16199 20.8312 19.2182
473 1 -1.1104 1.0182 16.7026 15.1361
477 1 -1.1104 3.81012 13.6406 17.8667
478 1 -1.1104 3.78295 19.1263 17.8549
479 2 2.2208 2.36615 17.8814 19.3159
480 1 -1.1104 3.7731 13.7793 15.061
482 1 -1.1104 3.77848 19.3441 15.0115
484 2 2.2208 2.50262 15.0873 16.4158
485 2 2.2208 2.24275 20.7543 16.4369
486 1 -1.1104 3.65075 16.4327 17.8777
487 1 -1.1104 3.86123 16.5343 15.0099
467 1 -1.1104 6.63495 19.4054 15.1609
465 1 -1.1104 6.55956 13.6368 15.1102
460 1 -1.1104 6.58578 19.3565 17.8526
475 1 -1.1104 6.64095 16.5864 15.1227
483 1 -1.1104 3.82295 19.3781 20.6014
8804 2 2.2208 -0.345534 4.09567 24.9423
503 1 -1.1104 12.0996 16.4662 20.6616
582 1 -1.1104 12.251 16.6484 26.296
470 1 -1.1104 6.54583 16.6009 17.8522
459 1 -1.1104 6.63574 13.9234 17.8979
492 2 2.2208 10.8332 18.0245 16.4809
493 1 -1.1104 12.3325 13.8298 17.7903
494 1 -1.1104 12.3508 19.4371 17.9068
495 1 -1.1104 12.1283 13.8697 15.1471
497 1 -1.1104 12.2027 19.4319 15.0699
499 1 -1.1104 12.2719 16.5324 17.8449
500 2 2.2208 10.9053 15.04 19.265
501 2 2.2208 10.9477 20.8413 19.3572
502 1 -1.1104 12.1845 16.6531 14.9671
504 1 -1.1104 9.24415 13.8507 17.8713
505 1 -1.1104 9.50296 19.3246 17.8839
506 2 2.2208 7.95039 17.9254 19.2933
507 1 -1.1104 9.36794 13.976 15.045
509 1 -1.1104 9.39202 19.3642 15.1309
511 2 2.2208 8.04678 15.3567 16.5193
512 2 2.2208 8.10672 20.7897 16.5331
513 1 -1.1104 9.46025 16.6323 17.8886
514 1 -1.1104 9.48127 16.6367 15.1852
510 1 -1.1104 9.45088 19.3707 20.6465
351 1 -1.1104 9.38859 16.444 26.2028
635 2 2.2208 8.00565 20.7964 22.0694
8798 2 2.2208 13.5797 6.78118 24.9325
9023 2 2.2208 13.6326 9.71944 22.0672
357 2 2.2208 5.19519 -1.57054 13.6976
517 2 2.2208 10.8549 15.2623 13.728
354 2 2.2208 -0.315051 -1.64812 19.4311
520 2 2.2208 5.21284 1.06412 22.1287
521 1 -1.1104 0.984191 -2.97594 23.5662
522 1 -1.1104 1.0458 2.67479 23.4692
525 1 -1.1104 0.940582 -2.89351 26.3983
526 1 -1.1104 1.10672 2.74177 26.2475
529 1 -1.1104 1.05477 -0.259712 23.6014
531 2 2.2208 5.16002 -1.60632 25.013
532 2 2.2208 5.24923 4.11246 24.9164
533 1 -1.1104 0.980392 -0.086398 26.2036
535 1 -1.1104 3.94751 -3.15012 23.5681
536 1 -1.1104 3.76868 2.59157 23.5221
537 2 2.2208 2.35732 1.28376 24.8644
538 1 -1.1104 3.7077 -2.9808 26.176
539 1 -1.1104 3.90811 2.58 26.2835
540 2 2.2208 2.50357 -1.65112 22.1987
541 2 2.2208 2.46119 3.92338 22.0228
542 1 -1.1104 3.74227 -0.230314 23.5848
543 1 -1.1104 3.73961 -0.164854 26.2078
527 1 -1.1104 6.64509 -3.03997 26.4194
530 1 -1.1104 6.635 -0.141018 23.6534
528 1 -1.1104 6.68703 2.74582 26.4057
389 1 -1.1104 6.64561 13.7054 23.5763
634 1 -1.1104 9.37173 16.478 23.4388
476 1 -1.1104 6.61108 16.587 20.7395
8714 2 2.2208 13.6308 15.0969 27.6784
584 1 -1.1104 9.29704 19.4017 23.5164
455 2 2.2208 8.05848 12.387 13.6874
524 1 -1.1104 6.51209 2.60703 23.5519
329 1 -1.1104 6.78032 2.51547 20.6811
534 1 -1.1104 6.62577 -0.196965 26.338
523 1 -1.1104 6.76344 -2.9708 23.7041
383 1 -1.1104 9.44816 -0.209186 20.7116
556 2 2.2208 10.8935 1.15872 22.0313
557 1 -1.1104 12.2096 -3.03476 23.626
558 1 -1.1104 12.2904 2.53525 23.4754
559 1 -1.1104 12.3769 -3.16752 26.3924
560 1 -1.1104 12.2689 2.53591 26.2771
561 1 -1.1104 12.4874 -0.0799468 23.525
562 2 2.2208 10.8195 -1.57161 24.9106
563 2 2.2208 10.834 3.89397 24.8572
564 1 -1.1104 12.2055 -0.281714 26.4077
565 1 -1.1104 9.48612 -2.98203 23.6572
566 1 -1.1104 9.37083 2.52703 23.3244
567 2 2.2208 7.97421 1.22366 24.9709
568 1 -1.1104 9.61528 -3.05394 26.5104
569 1 -1.1104 9.52971 2.71629 26.3362
570 2 2.2208 8.07675 -1.557 22.1418
571 2 2.2208 8.00325 3.99143 22.003
572 1 -1.1104 9.61518 -0.28383 23.4627
573 1 -1.1104 9.48693 -0.120385 26.2935
576 1 -1.1104 6.57579 16.6108 26.3349
398 1 -1.1104 1.09621 7.981 20.6869
418 1 -1.1104 3.84163 8.22617 20.7679
425 1 -1.1104 3.80917 11.0265 20.818
409 1 -1.1104 1.23661 10.9248 20.7933
407 1 -1.1104 1.01979 5.25158 20.6159
585 2 2.2208 5.11763 6.85962 22.173
586 2 2.2208 5.12855 12.4651 22.0192
587 1 -1.1104 0.953282 8.23057 23.5219
589 1 -1.1104 1.0792 8.20994 26.3329
591 1 -1.1104 1.03703 5.54963 23.6294
592 1 -1.1104 0.881843 10.8825 23.404
595 2 2.2208 5.32805 9.53202 24.9615
596 1 -1.1104 1.06829 5.41349 26.5133
597 1 -1.1104 0.928085 11.0248 26.1899
600 1 -1.1104 3.91527 8.09526 23.691
601 2 2.2208 2.4676 6.86164 24.9714
602 2 2.2208 2.35763 12.3116 24.8307
603 1 -1.1104 3.8816 8.3697 26.384
604 2 2.2208 2.54675 9.51196 22.1462
605 1 -1.1104 3.8112 5.46497 23.4354
606 1 -1.1104 3.87199 10.8436 23.5963
607 1 -1.1104 3.92622 5.44414 26.3582
608 1 -1.1104 3.70112 11.0697 26.2596
599 1 -1.1104 6.70334 10.9004 26.3935
411 1 -1.1104 6.49131 5.33403 20.859
593 1 -1.1104 6.63403 5.47369 23.5293
588 1 -1.1104 6.55064 8.14267 23.5706
590 1 -1.1104 6.78365 8.15082 26.3707
598 1 -1.1104 6.67601 5.35809 26.4533
594 1 -1.1104 6.64337 11.0732 23.6013
555 1 -1.1104 12.1285 16.5143 23.405
508 1 -1.1104 9.41981 13.8319 20.7164
400 1 -1.1104 6.61005 8.17911 20.7233
440 1 -1.1104 12.306 11.0193 20.678
413 1 -1.1104 6.51179 10.978 20.7474
433 1 -1.1104 12.2739 8.2563 20.6885
616 1 -1.1104 9.4833 10.9494 26.3541
617 1 -1.1104 9.55973 5.32222 26.1936
618 1 -1.1104 9.4008 10.9938 23.4284
619 1 -1.1104 9.44919 5.27395 23.3813
620 2 2.2208 7.94502 9.5709 22.1887
621 1 -1.1104 9.42916 8.21345 26.1491
622 2 2.2208 8.0243 12.3114 24.9986
623 2 2.2208 8.06448 6.721 24.9503
624 2 2.2208 10.8593 6.83328 22.1007
625 2 2.2208 10.8628 12.386 22.0131
626 1 -1.1104 12.2025 8.23545 23.5553
627 1 -1.1104 12.1797 8.18423 26.3347
628 1 -1.1104 12.1974 5.36534 23.6427
629 1 -1.1104 12.1279 11.0705 23.3775
630 2 2.2208 10.7786 9.59226 24.8415
631 1 -1.1104 12.2658 5.33039 26.2858
632 1 -1.1104 12.3126 11.0745 26.2876
633 1 -1.1104 9.42698 8.11688 23.3965
8943 2 2.2208 -0.361257 15.2385 19.1362
581 2 2.2208 10.6967 20.834 24.8674
515 1 -1.1104 9.26427 16.5578 20.6004
545 1 -1.1104 6.59672 19.274 23.5025
466 1 -1.1104 6.57547 13.7953 20.6843
551 1 -1.1104 6.65421 16.5144 23.5643
468 1 -1.1104 6.59448 19.3748 20.6729
613 1 -1.1104 6.47162 19.3472 26.3358
610 1 -1.1104 6.53832 13.7049 26.3455
462 1 -1.1104 0.929389 13.7738 20.5976
488 1 -1.1104 3.75954 16.6681 20.6742
464 1 -1.1104 0.989264 19.3257 20.6543
481 1 -1.1104 3.75306 13.8013 20.8203
474 1 -1.1104 0.880782 16.6282 20.5658
352 1 -1.1104 3.61305 19.3507 26.2948
356 2 2.2208 5.22278 17.9878 22.0538
384 1 -1.1104 1.03878 13.7939 23.5172
385 1 -1.1104 1.07123 19.4618 23.5559
386 2 2.2208 2.41516 15.1289 22.1254
387 2 2.2208 2.41712 20.6939 22.045
519 2 2.2208 5.03224 15.1501 24.9642
544 2 2.2208 5.20637 20.7616 24.8177
546 1 -1.1104 0.94516 13.7741 26.2573
549 1 -1.1104 3.70994 16.5048 23.519
550 1 -1.1104 0.994701 16.7002 23.2526
574 1 -1.1104 0.950256 16.6201 26.1639
575 1 -1.1104 0.963 19.4439 26.2882
578 1 -1.1104 3.74452 13.8523 26.4549
579 1 -1.1104 3.71154 16.5899 26.2582
580 2 2.2208 2.37926 17.9586 24.8375
609 1 -1.1104 3.80629 13.764 23.4961
611 1 -1.1104 3.85789 19.3491 23.4491
8970 2 2.2208 13.5455 20.8398 22.0757
8901 2 2.2208 13.6558 15.2156 16.5047
577 2 2.2208 10.8003 15.133 24.8279
612 2 2.2208 8.07762 17.8985 24.8889
554 1 -1.1104 12.0308 19.4481 26.2459
547 2 2.2208 10.7781 17.9256 22.0636
636 2 2.2208 8.01584 15.13 22.1432
583 1 -1.1104 9.40728 13.6475 23.5843
496 1 -1.1104 12.2561 13.7122 20.7526
392 2 2.2208 10.8921 4.02351 13.6832
8947 2 2.2208 13.6151 12.3972 24.8643
355 2 2.2208 -0.340673 -1.68902 13.7383
312 2 2.2208 2.34593 9.65385 27.6784
302 2 2.2208 2.31052 20.7962 27.6294
428 2 2.2208 2.47312 12.3999 13.7593
489 2 2.2208 2.46314 17.8902 13.7099
306 2 2.2208 2.48535 -1.52807 27.5202
308 2 2.2208 10.8986 1.23077 27.6504
358 2 2.2208 2.50642 1.29527 13.8259
390 2 2.2208 8.00352 1.26639 13.7114
518 2 2.2208 8.00903 17.9857 13.8629
305 2 2.2208 5.27104 1.30417 27.6296
490 2 2.2208 5.19687 20.7115 13.797
8830 2 2.2208 13.5958 6.87763 13.7101
359 2 2.2208 5.11156 3.99277 13.8041
516 2 2.2208 10.8589 20.7624 13.681
637 2 2.2208 5.15566 23.5968 5.22393
638 2 2.2208 5.391 29.2042 5.1624
639 1 -1.1104 0.925757 25.0455 1.01022
640 1 -1.1104 0.940444 25.0692 3.76095
641 1 -1.1104 0.965775 22.2899 0.884966
642 1 -1.1104 1.06351 27.9405 1.05585
643 2 2.2208 5.10639 26.4145 2.37357
644 1 -1.1104 1.07555 22.1106 3.67931
645 1 -1.1104 0.937584 27.8525 3.85115
646 1 -1.1104 3.73705 24.971 1.02272
647 2 2.2208 2.36663 23.6721 2.39483
648 2 2.2208 2.52247 29.2659 2.47361
649 1 -1.1104 3.68778 25.0836 3.80386
650 2 2.2208 2.40939 26.4329 5.17357
651 1 -1.1104 3.66629 22.1288 0.88746
652 1 -1.1104 3.77385 27.8258 0.917373
653 1 -1.1104 3.92422 22.3034 3.74678
654 1 -1.1104 3.72329 27.756 3.70995
659 1 -1.1104 6.51411 24.7828 3.87236
660 1 -1.1104 6.83435 22.2464 1.02085
662 1 -1.1104 6.48095 22.0711 3.84139
663 1 -1.1104 6.64567 27.5898 3.75808
661 1 -1.1104 6.58601 27.7352 0.983826
658 1 -1.1104 6.65822 24.8746 1.09364
786 1 -1.1104 3.93445 27.8744 6.61321
941 2 2.2208 5.21556 23.538 -0.330763
781 1 -1.1104 1.1328 27.8112 6.6943
780 1 -1.1104 1.00389 22.2947 6.43356
782 1 -1.1104 6.68223 22.2379 6.64749
1481 1 -1.1104 6.74154 47.3269 9.30314
1331 1 -1.1104 9.29624 47.298 0.979035
9407 2 2.2208 -0.251616 34.8592 5.24256
664 2 2.2208 10.8945 23.6113 5.1775
665 2 2.2208 10.9237 29.3288 5.32193
666 1 -1.1104 12.2673 25.0477 0.989812
667 1 -1.1104 12.2407 24.9958 3.74052
668 1 -1.1104 12.1703 22.3611 1.21514
669 1 -1.1104 12.2462 27.8891 1.068
670 2 2.2208 10.7316 26.3964 2.48269
671 1 -1.1104 12.2169 22.2117 3.85955
672 1 -1.1104 12.2116 27.8091 3.96335
673 1 -1.1104 9.45076 24.9357 0.971718
674 2 2.2208 8.0248 23.5345 2.51372
675 2 2.2208 8.05614 29.1127 2.37745
676 1 -1.1104 9.37219 24.8651 3.84982
677 2 2.2208 7.97518 26.4226 5.28075
678 1 -1.1104 9.37297 22.2065 1.07135
679 1 -1.1104 9.46138 27.6416 1.04926
680 1 -1.1104 9.42524 22.1082 3.88622
681 1 -1.1104 9.48749 27.6952 3.98925
1296 1 -1.1104 3.85736 47.317 1.10973
9416 2 2.2208 -0.271277 45.965 10.7758
779 1 -1.1104 6.65213 25.0315 6.74486
783 1 -1.1104 6.78554 27.8982 6.66757
814 1 -1.1104 9.53926 24.9507 6.62205
811 1 -1.1104 12.4638 25.156 6.70387
9410 2 2.2208 -0.293649 45.9859 5.19874
1504 1 -1.1104 12.2983 47.399 6.74402
9276 2 2.2208 -0.342369 26.4353 7.94014
685 2 2.2208 5.2404 34.8804 5.25031
686 1 -1.1104 0.975316 30.5875 1.01033
687 1 -1.1104 1.08958 36.1248 1.04436
689 1 -1.1104 1.15502 30.5259 3.80466
690 1 -1.1104 0.998664 36.3242 3.95031
692 1 -1.1104 1.15632 33.3035 1.16936
693 2 2.2208 5.35727 31.9509 2.42403
694 2 2.2208 5.23464 37.5621 2.3565
695 1 -1.1104 1.16983 33.4276 3.93051
697 1 -1.1104 4.07923 30.5147 1.08983
698 1 -1.1104 3.78805 36.0279 0.997644
699 2 2.2208 2.64955 34.7279 2.45668
700 1 -1.1104 3.98506 30.6037 3.764
701 1 -1.1104 3.92643 36.3131 3.80517
702 2 2.2208 2.48745 31.9067 5.26037
703 2 2.2208 2.44009 37.5701 5.2341
704 1 -1.1104 3.83087 33.3626 0.978725
705 1 -1.1104 3.88456 33.4527 3.72363
691 1 -1.1104 6.75028 36.1097 3.69169
688 1 -1.1104 6.52021 36.1603 1.02726
711 1 -1.1104 6.62941 33.2991 1.08059
1472 1 -1.1104 0.99724 47.1935 6.68167
696 1 -1.1104 6.66058 33.2406 3.92555
710 1 -1.1104 6.73904 30.5741 3.79389
709 1 -1.1104 6.76359 30.5006 1.00966
841 1 -1.1104 3.94766 30.6584 6.62783
742 1 -1.1104 1.08392 39.0462 3.76237
836 1 -1.1104 1.02394 36.1909 6.69543
1318 1 -1.1104 12.2852 47.246 0.991101
9417 2 2.2208 -0.320525 40.526 10.8758
712 2 2.2208 10.8685 34.8254 5.17665
713 1 -1.1104 12.2473 30.6501 0.934184
714 1 -1.1104 12.2609 36.2447 1.02376
715 1 -1.1104 12.404 30.575 3.72149
716 1 -1.1104 12.2859 36.2761 3.75491
717 1 -1.1104 12.1776 33.3525 1.07923
718 2 2.2208 10.8173 31.8314 2.37408
719 2 2.2208 10.9347 37.6876 2.49252
720 1 -1.1104 12.4425 33.4061 3.79538
721 1 -1.1104 9.50646 30.5019 1.07417
722 1 -1.1104 9.41233 36.166 0.990885
723 2 2.2208 8.0053 34.8033 2.28621
724 1 -1.1104 9.52893 30.5222 3.84341
725 1 -1.1104 9.48468 36.3643 3.76344
726 2 2.2208 8.11461 32.1213 5.30096