ITEM: TIMESTEP
40000
ITEM: NUMBER OF ATOMS
17700
ITEM: BOX BOUNDS pp pp pp
-3.4791512536291636e-01 2.7687915125362853e+01
-4.4213913511324749e+00 3.3250139135113074e+02
-3.5451485994251219e-01 2.7694514859942185e+01
ITEM: ATOMS id type q x y z
1 2 2.2208 5.2761 1.19314 5.16921
2 1 -1.1104 1.10356 -3.18959 1.0691
3 1 -1.1104 1.05877 2.58008 0.943708
6 1 -1.1104 1.06963 -2.88659 3.85263
7 1 -1.1104 1.24073 2.6688 3.74766
10 1 -1.1104 1.20476 -0.174179 0.956147
12 2 2.2208 5.33766 -1.51614 2.38938
13 2 2.2208 5.36156 4.15093 2.38901
14 1 -1.1104 1.07041 -0.107158 3.81329
16 1 -1.1104 3.86501 -2.96544 0.979987
17 1 -1.1104 3.83471 2.76325 0.884019
18 2 2.2208 2.55529 1.34044 2.4021
19 1 -1.1104 3.78877 -2.89571 3.79063
20 1 -1.1104 3.90758 2.77505 3.69891
21 2 2.2208 2.42558 -1.53574 5.17071
22 2 2.2208 2.56012 4.0001 5.18553
23 1 -1.1104 3.95841 -0.227402 0.971872
24 1 -1.1104 3.90269 -0.144223 3.83977
170 1 -1.1104 0.985912 -0.218468 6.70918
174 1 -1.1104 3.82697 -0.076342 6.49725
172 1 -1.1104 3.85162 -2.91987 6.65098
166 1 -1.1104 1.01134 -2.99526 6.53667
11 1 -1.1104 6.76039 -0.113194 0.97669
4 1 -1.1104 6.61408 -2.976 0.876317
15 1 -1.1104 6.78765 -0.1811 3.78082
173 1 -1.1104 3.84184 2.6811 6.60566
171 1 -1.1104 6.65249 -0.200886 6.5214
5 1 -1.1104 6.71157 2.51993 0.878373
9 1 -1.1104 6.59801 2.63868 3.72711
516 2 2.2208 11.0107 20.9068 13.576
8287 2 2.2208 8.0773 -4.25615 13.4346
8948 2 2.2208 13.6284 18.014 13.5508
169 1 -1.1104 6.63086 2.56887 6.43268
8 1 -1.1104 6.52116 -2.93833 3.69429
168 1 -1.1104 6.72622 -2.96141 6.43403
31 2 2.2208 10.8931 1.27268 5.33853
32 1 -1.1104 12.311 -2.92682 0.980902
33 1 -1.1104 12.2038 2.59472 0.934857
34 1 -1.1104 12.2377 -2.91361 3.82463
35 1 -1.1104 12.4035 2.63315 3.94167
36 1 -1.1104 12.2436 -0.233306 0.901188
37 2 2.2208 10.8128 -1.56502 2.33296
38 2 2.2208 10.8956 3.92842 2.4086
39 1 -1.1104 12.226 -0.185221 3.76098
40 1 -1.1104 9.37378 -3.11029 0.928044
41 1 -1.1104 9.39986 2.65225 0.994329
42 2 2.2208 8.10221 1.13731 2.385
43 1 -1.1104 9.44033 -3.04329 3.70825
44 1 -1.1104 9.59202 2.57255 3.86895
45 2 2.2208 8.10631 -1.64021 5.04752
46 2 2.2208 8.05597 3.94399 5.17672
47 1 -1.1104 9.52314 -0.229808 0.969514
48 1 -1.1104 9.53262 -0.225994 3.76351
205 1 -1.1104 12.1818 -3.11874 6.68178
209 1 -1.1104 9.36669 2.62669 6.45673
207 1 -1.1104 12.317 -0.265829 6.52694
206 1 -1.1104 12.1564 2.66646 6.69307
8830 2 2.2208 13.5596 6.89919 13.6448
210 1 -1.1104 9.4339 -0.252578 6.4596
208 1 -1.1104 9.49158 -3.0389 6.4173
50 1 -1.1104 12.0923 16.7102 12.1447
8689 2 2.2208 -0.238309 -1.49298 2.29537
8344 2 2.2208 2.37238 -4.39721 13.5047
136 1 -1.1104 9.4442 19.4213 9.23381
26 1 -1.1104 12.3774 13.9773 12.1429
54 2 2.2208 5.2519 6.79153 5.14528
55 2 2.2208 5.39129 12.4299 5.11636
56 1 -1.1104 1.11534 8.30623 1.00499
58 1 -1.1104 1.07335 8.28565 3.60018
60 1 -1.1104 1.02836 5.51958 0.827381
61 1 -1.1104 1.05482 11.1395 1.10597
66 2 2.2208 5.39544 9.67835 2.27381
67 1 -1.1104 1.10164 5.38823 3.68384
68 1 -1.1104 1.0998 11.094 3.78317
71 1 -1.1104 3.97278 8.18873 0.897236
72 2 2.2208 2.48496 6.87812 2.27175
73 2 2.2208 2.43393 12.4392 2.37876
74 1 -1.1104 3.85881 8.28582 3.67719
75 2 2.2208 2.47028 9.67278 5.15359
76 1 -1.1104 3.76101 5.40751 0.978881
77 1 -1.1104 3.91799 10.8931 0.908316
79 1 -1.1104 3.87143 5.47727 3.87345
80 1 -1.1104 3.91446 11.0971 3.73347
63 1 -1.1104 6.63253 5.46735 1.01011
78 1 -1.1104 3.87395 11.0778 6.71699
238 1 -1.1104 3.77587 8.26749 6.50365
236 1 -1.1104 1.02828 5.48063 6.62716
62 1 -1.1104 1.19454 10.9122 6.59575
239 1 -1.1104 3.83458 5.48412 6.69158
65 1 -1.1104 6.71713 10.984 6.62561
64 1 -1.1104 6.72145 11.1269 0.979227
57 1 -1.1104 6.66692 8.23228 0.898909
234 1 -1.1104 1.01403 8.15314 6.42333
53 2 2.2208 10.8089 15.2951 7.89451
59 1 -1.1104 6.54789 8.25084 3.90315
69 1 -1.1104 6.78356 5.53388 3.88056
70 1 -1.1104 6.67101 10.9772 3.81646
84 2 2.2208 10.8752 6.9824 5.18643
85 2 2.2208 10.8184 12.4645 5.24992
86 1 -1.1104 12.2361 8.11133 0.869328
87 1 -1.1104 12.1148 8.2442 3.62279
88 1 -1.1104 12.2941 5.2003 1.15395
89 1 -1.1104 12.4018 11.0891 0.646712
91 2 2.2208 10.8714 9.79489 2.35205
92 1 -1.1104 12.28 5.4426 3.76567
93 1 -1.1104 12.2239 11.0444 3.7126
94 1 -1.1104 9.44818 8.20822 0.960112
95 2 2.2208 8.16091 6.91451 2.46182
96 2 2.2208 8.12446 12.5491 2.36994
97 1 -1.1104 9.41021 8.43344 3.74099
98 2 2.2208 8.05992 9.63619 5.21813
99 1 -1.1104 9.50264 5.45086 1.01069
100 1 -1.1104 9.545 11.0433 1.0568
102 1 -1.1104 9.56104 5.45688 3.73552
103 1 -1.1104 9.48771 11.3445 3.71885
269 1 -1.1104 9.46363 5.45751 6.44315
90 1 -1.1104 12.2793 11.1303 6.43732
265 1 -1.1104 12.2595 8.26569 6.51148
266 1 -1.1104 12.0282 5.47792 6.49845
235 1 -1.1104 6.71702 8.27192 6.65336
237 1 -1.1104 6.53182 5.48345 6.64499
267 1 -1.1104 9.63054 8.29425 6.65343
101 1 -1.1104 9.53464 11.1096 6.7022
8525 2 2.2208 13.4717 4.05463 10.9405
106 2 2.2208 5.23817 18.0728 5.17843
107 1 -1.1104 0.899159 13.9432 0.973682
109 1 -1.1104 1.18166 19.6063 1.0369
113 1 -1.1104 1.00624 13.8937 3.71379
114 1 -1.1104 1.01658 19.5182 3.82539
116 1 -1.1104 1.02691 16.6923 1.08965
119 2 2.2208 5.25943 15.3069 2.23163
120 2 2.2208 5.28797 21.0257 2.41609
121 1 -1.1104 1.06247 16.8347 3.98798
123 1 -1.1104 3.80643 13.8891 0.806904
125 1 -1.1104 4.02103 19.5693 0.949016
127 2 2.2208 2.49364 18.234 2.35702
128 1 -1.1104 3.92254 13.7247 3.76576
129 1 -1.1104 3.85719 19.4644 3.82625
130 2 2.2208 2.45473 15.4002 5.17202
131 2 2.2208 2.43551 20.8456 5.17906
132 1 -1.1104 3.85649 16.7116 1.04959
134 1 -1.1104 3.94892 16.5857 3.76862
203 1 -1.1104 0.944488 19.5158 6.68334
117 1 -1.1104 0.857626 16.8299 6.79176
138 1 -1.1104 6.66625 19.6377 1.00023
115 1 -1.1104 6.67142 13.8571 3.77298
139 1 -1.1104 6.60936 19.6399 3.91156
126 1 -1.1104 3.83751 19.5644 6.68624
118 1 -1.1104 6.53207 16.7515 6.4856
124 1 -1.1104 3.93152 13.9609 6.50991
122 1 -1.1104 6.60202 16.6417 3.62418
112 1 -1.1104 6.79306 19.5767 6.58661
133 1 -1.1104 3.78028 16.8494 6.54957
110 1 -1.1104 6.70238 13.7553 0.944496
140 1 -1.1104 6.58251 16.6089 0.875778
143 1 -1.1104 12.1892 13.8955 6.58081
141 2 2.2208 10.9309 18.0744 5.23742
142 1 -1.1104 12.3197 13.9503 0.959278
144 1 -1.1104 12.2351 19.5487 0.938043
146 1 -1.1104 12.2296 13.905 3.79082
147 1 -1.1104 12.2332 19.5099 3.74299
148 1 -1.1104 12.2614 16.7686 0.892322
150 2 2.2208 10.9096 15.3574 2.37692
151 2 2.2208 10.7309 20.9185 2.34602
152 1 -1.1104 12.2272 16.8197 3.8256
153 1 -1.1104 9.49535 13.8812 0.802075
155 1 -1.1104 9.39009 19.4902 0.824051
157 2 2.2208 8.01436 18.0836 2.43175
158 1 -1.1104 9.42063 14.0068 3.59322
159 1 -1.1104 9.42262 19.4928 3.59922
160 2 2.2208 8.03479 15.2063 5.07642
161 2 2.2208 8.13072 21.0301 5.06682
162 1 -1.1104 9.39475 16.7524 0.935522
164 1 -1.1104 9.42443 16.837 3.82844
163 1 -1.1104 9.40741 16.551 6.58724
149 1 -1.1104 12.1381 16.725 6.64999
154 1 -1.1104 9.36376 13.849 6.47504
156 1 -1.1104 9.66956 19.5153 6.49756
111 1 -1.1104 6.63757 13.8783 6.56483
8586 2 2.2208 13.5832 18.2592 2.45517
145 1 -1.1104 12.3682 19.3696 6.43679
517 2 2.2208 10.7076 15.2551 13.3825
135 1 -1.1104 9.49179 13.856 9.27777
167 1 -1.1104 0.991353 2.6429 6.57329
358 2 2.2208 2.47155 1.21936 13.5554
175 2 2.2208 5.19932 1.25232 10.6605
176 1 -1.1104 0.930865 -2.89851 12.1783
177 1 -1.1104 1.13896 2.71546 12.2477
180 1 -1.1104 1.13169 -3.07485 9.40675
181 1 -1.1104 0.926986 2.68262 9.33265
184 1 -1.1104 0.963402 -0.18781 12.1041
186 2 2.2208 5.28615 -1.63995 7.97859
187 2 2.2208 5.31708 4.02608 7.96829
188 1 -1.1104 1.14179 -0.289934 9.49285
190 1 -1.1104 3.8056 -3.22079 12.196
191 1 -1.1104 3.7679 2.528 12.0011
192 2 2.2208 2.47649 1.19745 7.88127
193 1 -1.1104 3.87152 -3.10647 9.3885
194 1 -1.1104 3.81134 2.73707 9.36808
195 2 2.2208 2.42424 -1.69049 10.8023
197 1 -1.1104 3.80583 -0.332735 12.2117
198 1 -1.1104 3.85721 -0.174023 9.2751
196 2 2.2208 2.44692 3.97381 10.7407
183 1 -1.1104 6.66863 2.67648 9.34219
359 2 2.2208 5.14487 4.00532 13.4502
185 1 -1.1104 6.72668 -0.156684 12.0769
357 2 2.2208 5.19852 -1.70797 13.555
182 1 -1.1104 6.70815 -2.95451 9.28934
49 1 -1.1104 12.2999 19.5384 9.43146
199 1 -1.1104 9.36766 16.7194 12.2268
8601 2 2.2208 13.6163 6.99069 7.92162
27 1 -1.1104 12.2507 19.5884 12.2066
8467 2 2.2208 13.6691 20.9936 5.18499
17329 2 2.2208 13.4443 -4.31638 2.40335
189 1 -1.1104 6.68239 -0.131411 9.2684
179 1 -1.1104 6.52914 2.67664 12.0969
390 2 2.2208 8.01328 1.29088 13.4573
178 1 -1.1104 6.5263 -2.95525 12.0638
8697 2 2.2208 -0.297464 20.895 2.35997
211 2 2.2208 10.7321 1.39713 10.675
212 1 -1.1104 12.1617 -3.02742 12.3037
213 1 -1.1104 12.0921 2.66365 12.1306
214 1 -1.1104 12.3619 -2.89391 9.45686
215 1 -1.1104 12.3182 2.7464 9.31859
216 1 -1.1104 12.3569 -0.198858 12.1168
217 2 2.2208 10.9622 -1.5713 8.11048
219 1 -1.1104 12.3656 -0.028804 9.28731
220 1 -1.1104 9.41692 -2.81918 12.0799
221 1 -1.1104 9.35646 2.7541 12.1195
222 2 2.2208 8.02654 1.07488 7.83106
223 1 -1.1104 9.49766 -2.96314 9.16199
224 1 -1.1104 9.3262 2.62137 9.30058
225 2 2.2208 8.0581 -1.52607 10.7313
226 2 2.2208 7.94666 4.08383 10.8045
227 1 -1.1104 9.49605 -0.0463493 12.1419
228 1 -1.1104 9.48292 -0.266534 9.34791
218 2 2.2208 10.847 4.10455 7.94125
105 2 2.2208 8.0692 18.1033 7.83236
30 1 -1.1104 12.2416 13.9299 9.41728
81 2 2.2208 10.8676 20.9319 7.99487
165 2 2.2208 8.11601 20.9943 10.7411
137 2 2.2208 8.06289 15.3438 10.7609
428 2 2.2208 2.29088 12.5992 13.569
427 2 2.2208 5.14239 9.77779 13.5012
240 2 2.2208 5.19917 6.77018 10.7621
241 2 2.2208 5.12549 12.3988 10.7592
242 1 -1.1104 0.960934 8.33392 12.1663
244 1 -1.1104 0.983123 8.30176 9.30787
246 1 -1.1104 1.01639 5.47083 12.2462
247 1 -1.1104 0.959053 11.103 12.162
250 2 2.2208 5.28718 9.51682 7.97786
251 1 -1.1104 0.96832 5.47996 9.48702
252 1 -1.1104 1.0016 11.0713 9.32176
255 1 -1.1104 3.82844 8.27363 12.1432
256 2 2.2208 2.41534 6.90823 8.02715
257 2 2.2208 2.44343 12.4131 7.9888
258 1 -1.1104 3.86675 8.13447 9.3189
259 2 2.2208 2.36337 9.6792 10.7784
260 1 -1.1104 3.89846 5.53932 12.0566
261 1 -1.1104 3.82664 11.1173 12.1389
262 1 -1.1104 3.71051 5.45851 9.36074
263 1 -1.1104 3.70924 10.9467 9.50191
243 1 -1.1104 6.62443 8.16434 12.2124
253 1 -1.1104 6.50113 5.39311 9.35694
249 1 -1.1104 6.65571 11.0252 12.1459
245 1 -1.1104 6.51909 8.18994 9.54884
426 2 2.2208 2.39908 6.81447 13.5464
254 1 -1.1104 6.55525 11.0846 9.32473
200 1 -1.1104 9.58547 16.6032 9.3748
82 1 -1.1104 12.1053 16.6046 9.38426
454 2 2.2208 10.7303 9.63392 13.5076
83 1 -1.1104 9.39067 13.8906 12.1511
8652 2 2.2208 13.6317 20.9212 10.6854
248 1 -1.1104 6.65588 5.48791 12.0926
455 2 2.2208 7.88845 12.4707 13.4039
264 1 -1.1104 9.33412 11.0984 9.39148
268 1 -1.1104 9.35078 5.43021 9.40841
270 1 -1.1104 9.34515 11.0649 12.199
271 1 -1.1104 9.42111 5.49413 12.0403
272 2 2.2208 8.0915 9.57537 10.7519
273 1 -1.1104 9.38503 8.19093 9.43307
274 2 2.2208 7.97393 12.4999 8.02111
275 2 2.2208 8.03175 6.84084 8.02244
276 2 2.2208 10.8667 6.80653 10.741
277 2 2.2208 10.8048 12.402 10.7904
278 1 -1.1104 12.1652 8.25396 12.1267
279 1 -1.1104 12.151 8.26403 9.33871
280 1 -1.1104 12.2797 5.50938 12.3246
281 1 -1.1104 12.2915 11.0011 12.0782
282 2 2.2208 10.8079 9.66937 8.0559
283 1 -1.1104 12.2617 5.57445 9.35102
284 1 -1.1104 12.2002 11.0856 9.35902
285 1 -1.1104 9.33456 8.2439 12.1637
453 2 2.2208 7.96483 6.97147 13.6102
297 1 -1.1104 6.53455 13.7797 12.1665
25 2 2.2208 10.8113 18.127 10.6652
29 1 -1.1104 6.7119 16.6913 12.212
108 1 -1.1104 1.04052 14.0106 6.60645
289 1 -1.1104 6.80459 16.7141 9.30589
489 2 2.2208 2.36576 18.2073 13.6109
28 1 -1.1104 0.888261 16.5938 12.3294
51 1 -1.1104 3.81823 13.7861 9.37868
52 1 -1.1104 3.97266 16.6417 9.37808
202 2 2.2208 2.48692 18.206 8.04776
204 1 -1.1104 3.97145 19.5541 9.502
229 2 2.2208 2.378 15.339 10.8662
230 2 2.2208 2.51284 20.9518 10.7578
231 2 2.2208 5.33899 18.1121 10.8261
232 1 -1.1104 0.753868 13.7606 12.2374
233 1 -1.1104 3.80843 16.7566 12.1797
286 1 -1.1104 3.90502 19.5656 12.2317
287 1 -1.1104 3.66718 13.9918 12.3238
291 1 -1.1104 1.01644 19.485 9.51334
292 1 -1.1104 1.0139 16.7735 9.45244
293 2 2.2208 5.2833 20.8947 7.93121
294 1 -1.1104 0.948989 13.8752 9.42925
295 2 2.2208 5.19896 15.3465 7.90349
298 1 -1.1104 1.09308 19.4453 12.2307
8698 2 2.2208 -0.32902 6.80228 5.03106
296 1 -1.1104 6.67228 19.4943 12.2702
8690 2 2.2208 13.6243 15.309 10.8332
290 1 -1.1104 6.59359 13.9302 9.48348
288 1 -1.1104 6.76299 19.5321 9.44364
104 1 -1.1104 9.43747 19.5246 12.0191
518 2 2.2208 8.01116 18.1511 13.6837
491 2 2.2208 5.13728 15.4183 13.5103
8835 2 2.2208 13.5829 12.5577 13.4521
8606 2 2.2208 13.5926 9.63297 10.7386
299 2 2.2208 2.35728 15.2773 -0.292869
490 2 2.2208 5.18958 20.9409 13.6494
355 2 2.2208 -0.321206 -1.52699 13.5708
8390 2 2.2208 13.6267 4.01773 5.23542
8488 2 2.2208 13.5374 15.2359 5.16807
7985 2 2.2208 5.1926 -4.33874 5.13667
8419 2 2.2208 13.5796 9.72062 5.0429
8761 2 2.2208 13.6051 1.36409 13.5231
8702 2 2.2208 13.6197 6.81528 2.24773
8699 2 2.2208 -0.270446 9.7735 2.36748
8619 2 2.2208 -0.300316 9.63444 7.96493
8700 2 2.2208 -0.208416 12.4682 5.25405
350 2 2.2208 -0.277879 4.14066 13.6416
8418 2 2.2208 -0.299052 15.3182 8.05962
8693 2 2.2208 -0.207021 4.0775 2.27222
8551 2 2.2208 -0.323787 -1.59383 8.03002
8695 2 2.2208 13.6529 1.19772 2.42233
8696 2 2.2208 13.648 -1.577 5.31002
7984 2 2.2208 2.56216 -4.32543 2.31715
7991 2 2.2208 8.08575 -4.40247 7.83745
392 2 2.2208 10.7573 4.00732 13.532
317 2 2.2208 5.1914 1.38417 16.3847
318 1 -1.1104 1.09426 -3.01592 17.5787
319 1 -1.1104 0.959948 2.69754 17.6574
322 1 -1.1104 0.927502 -3.07602 14.943
324 1 -1.1104 1.0608 2.62392 14.8991
330 1 -1.1104 1.03378 -0.124728 17.5108
332 2 2.2208 5.08089 -1.58189 19.1146
333 2 2.2208 5.19204 4.09717 19.0847
334 1 -1.1104 1.09129 -0.215005 14.7771
338 1 -1.1104 3.77128 -3.00316 17.7299
339 1 -1.1104 3.73361 2.69759 17.757
340 2 2.2208 2.24887 1.26634 19.0775
341 1 -1.1104 3.71564 -3.03632 14.8722
343 1 -1.1104 3.67635 2.7012 14.767
345 2 2.2208 2.51499 -1.59958 16.2246
347 1 -1.1104 3.82064 -0.132048 17.7231
348 1 -1.1104 3.87956 -0.101017 14.9516
346 2 2.2208 2.36711 4.03815 16.3304
335 1 -1.1104 0.98567 -0.176632 20.3407
320 1 -1.1104 6.54522 -2.86386 17.7437
323 1 -1.1104 0.879623 -2.95072 20.4934
326 1 -1.1104 6.57332 -3.04083 14.9149
337 1 -1.1104 6.47015 -0.192848 20.4987
331 1 -1.1104 6.58917 -0.0846372 17.6292
327 1 -1.1104 6.50529 -2.93795 20.6937
329 1 -1.1104 6.64194 2.64426 20.5265
342 1 -1.1104 3.62761 -2.99157 20.4633
344 1 -1.1104 3.68035 2.74003 20.5105
328 1 -1.1104 6.58541 2.78784 14.9899
325 1 -1.1104 0.862936 2.65843 20.5319
8757 2 2.2208 13.5 3.98278 16.388
336 1 -1.1104 6.44141 -0.196895 14.8968
321 1 -1.1104 6.63187 2.70902 17.6997
360 2 2.2208 10.7618 1.28861 16.3831
361 1 -1.1104 12.3264 -2.9196 17.963
362 1 -1.1104 12.2272 2.68568 17.8414
363 1 -1.1104 12.2879 -2.90497 15.03
365 1 -1.1104 12.161 2.7398 14.8551
367 1 -1.1104 12.1308 -0.140047 17.6056
368 2 2.2208 10.6775 -1.53054 19.2537
369 2 2.2208 10.6622 4.15782 19.1357
370 1 -1.1104 12.3781 -0.11065 14.9624
372 1 -1.1104 9.4561 -2.87413 17.7137
373 1 -1.1104 9.32733 2.73453 17.6844
374 2 2.2208 7.96707 1.19385 19.2613
375 1 -1.1104 9.39151 -2.90834 14.8271
377 1 -1.1104 9.40028 2.61089 14.9601
379 2 2.2208 7.84511 -1.59362 16.3438
381 1 -1.1104 9.33517 -0.0924431 17.9734
382 1 -1.1104 9.19709 -0.181679 14.9656
380 2 2.2208 7.94262 4.13765 16.3761
378 1 -1.1104 9.49998 2.59064 20.5729
364 1 -1.1104 12.1266 -3.01275 20.526
376 1 -1.1104 9.28208 -3.01088 20.5422
383 1 -1.1104 9.17246 -0.254655 20.7254
366 1 -1.1104 12.3214 2.73049 20.7233
371 1 -1.1104 12.0499 -0.075723 20.4939
8231 2 2.2208 7.98189 -4.3673 24.8619
388 2 2.2208 13.6542 -1.56509 16.4074
301 2 2.2208 8.13842 15.4688 27.5948
8313 2 2.2208 7.96144 -4.38289 19.1044
393 2 2.2208 5.13285 6.99523 16.2272
394 2 2.2208 5.21989 12.4509 16.3893
395 1 -1.1104 0.959555 8.41258 17.6917
397 1 -1.1104 1.01451 8.37826 14.707
401 1 -1.1104 1.0408 5.48132 17.7526
402 1 -1.1104 1.11416 11.0996 17.7809
405 2 2.2208 5.17669 9.72733 19.2194
406 1 -1.1104 1.09516 5.39937 15.0967
408 1 -1.1104 1.06599 11.3207 14.9889
414 1 -1.1104 3.68419 8.37374 17.5935
415 2 2.2208 2.44145 6.86714 19.1508
416 2 2.2208 2.46646 12.5229 19.2018
417 1 -1.1104 3.76082 8.28658 14.8895
419 2 2.2208 2.4175 9.81181 16.2569
420 1 -1.1104 3.8921 5.49112 17.6274
421 1 -1.1104 3.88334 11.1828 17.7806
422 1 -1.1104 3.80209 5.40864 14.8668
424 1 -1.1104 3.79213 11.1315 14.8844
407 1 -1.1104 1.06403 5.66872 20.5616
398 1 -1.1104 1.12899 8.35885 20.4379
418 1 -1.1104 3.76649 8.3656 20.6145
423 1 -1.1104 3.85125 5.43326 20.5285
425 1 -1.1104 3.7322 11.1129 20.6367
409 1 -1.1104 1.02483 11.3493 20.5809
404 1 -1.1104 6.67613 11.0303 17.9771
403 1 -1.1104 6.61107 5.61185 17.6627
399 1 -1.1104 6.55937 8.38294 15.0806
396 1 -1.1104 6.46561 8.32499 17.7066
412 1 -1.1104 6.43632 11.0662 15.0575
400 1 -1.1104 6.56053 8.26807 20.6808
410 1 -1.1104 6.57936 5.54782 14.7981
411 1 -1.1104 6.52975 5.39662 20.4881
413 1 -1.1104 6.55272 11.1181 20.711
429 2 2.2208 10.7423 6.86651 16.301
430 2 2.2208 10.9161 12.3494 16.3274
431 1 -1.1104 12.2183 8.14698 17.5653
432 1 -1.1104 12.2529 8.36749 14.9506
434 1 -1.1104 12.2658 5.48776 17.7728
435 1 -1.1104 12.2181 10.9819 17.8133
436 2 2.2208 10.7967 9.60069 19.0872
437 1 -1.1104 12.0496 5.46709 15.0176
439 1 -1.1104 12.2491 10.939 14.8602
441 1 -1.1104 9.37585 8.22677 17.7916
442 2 2.2208 7.90694 6.95106 19.0923
443 2 2.2208 8.00233 12.4967 19.2753
444 1 -1.1104 9.33007 8.23457 14.9763
446 2 2.2208 8.00415 9.76474 16.3927
447 1 -1.1104 9.47656 5.44492 17.6478
448 1 -1.1104 9.50518 11.0354 17.7126
449 1 -1.1104 9.27958 5.25869 14.9111
451 1 -1.1104 9.48507 11.0427 14.989
438 1 -1.1104 12.2006 5.35302 20.4767
452 1 -1.1104 9.31836 10.9812 20.6527
440 1 -1.1104 12.2045 11.03 20.5609
433 1 -1.1104 12.2344 8.1465 20.5469
445 1 -1.1104 9.48271 8.22205 20.5318
8345 2 2.2208 2.36252 -4.43086 19.051
314 2 2.2208 10.8177 6.76432 27.695
8942 2 2.2208 -0.27971 20.9707 19.3647
456 2 2.2208 5.18488 18.1436 16.5217
457 1 -1.1104 0.938629 14.0031 17.8459
458 1 -1.1104 1.05143 19.5587 18.0265
461 1 -1.1104 0.967226 13.9518 14.9964
463 1 -1.1104 0.937682 19.6415 15.0341
469 1 -1.1104 1.18491 16.605 17.9334
471 2 2.2208 5.27216 15.5278 19.2162
472 2 2.2208 5.23157 20.9834 19.247
473 1 -1.1104 1.00436 16.8885 15.1214
477 1 -1.1104 3.81801 13.9603 18.044
478 1 -1.1104 3.70994 19.5912 17.8307
479 2 2.2208 2.44938 18.2232 19.3414
480 1 -1.1104 3.72528 13.9335 15.1673
482 1 -1.1104 3.85264 19.4202 15.1215
484 2 2.2208 2.49513 15.3529 16.4915
485 2 2.2208 2.36406 20.9337 16.4839
486 1 -1.1104 3.88067 16.8154 17.8924
487 1 -1.1104 3.84664 16.7357 14.9776
464 1 -1.1104 1.06737 19.4667 20.9038
474 1 -1.1104 1.11758 16.952 20.755
459 1 -1.1104 6.67685 14.0086 17.7484
476 1 -1.1104 6.76621 16.8372 20.6066
460 1 -1.1104 6.70686 19.7002 17.7843
481 1 -1.1104 3.92385 14.1292 20.6815
483 1 -1.1104 3.86956 19.5902 20.6798
475 1 -1.1104 6.43647 16.8264 15.1206
467 1 -1.1104 6.575 19.6833 15.0391
465 1 -1.1104 6.469 13.8116 14.8382
466 1 -1.1104 6.6748 14.0023 20.5539
468 1 -1.1104 6.54757 19.5527 20.6202
488 1 -1.1104 3.99845 16.9329 20.6245
462 1 -1.1104 1.06481 14.2825 20.6277
614 1 -1.1104 9.51996 14.1485 26.2391
548 1 -1.1104 12.128 13.7928 23.445
584 1 -1.1104 9.47409 19.6184 23.403
470 1 -1.1104 6.70096 16.7329 17.7929
492 2 2.2208 10.8129 18.0807 16.2329
493 1 -1.1104 12.3587 13.8372 17.6489
494 1 -1.1104 12.2999 19.5664 17.6541
495 1 -1.1104 12.0884 13.7715 14.8837
497 1 -1.1104 12.1701 19.3883 14.7875
499 1 -1.1104 12.3629 16.7518 17.5954
500 2 2.2208 10.851 15.1398 19.0525
501 2 2.2208 10.8737 20.8173 19.1717
502 1 -1.1104 12.2308 16.7046 14.9341
504 1 -1.1104 9.42143 13.8615 17.7265
505 1 -1.1104 9.5374 19.4941 17.7552
506 2 2.2208 7.99098 18.2122 19.2402
507 1 -1.1104 9.17479 13.8552 14.7563
509 1 -1.1104 9.50181 19.4561 14.8103
511 2 2.2208 7.95101 15.3092 16.4236
512 2 2.2208 8.08994 20.9588 16.3369
513 1 -1.1104 9.49667 16.6983 17.8251
514 1 -1.1104 9.43426 16.5881 14.939
508 1 -1.1104 9.58788 13.79 20.5345
503 1 -1.1104 12.4572 16.6291 20.5905
498 1 -1.1104 12.2198 19.4393 20.5124
515 1 -1.1104 9.61323 16.7144 20.5186
615 1 -1.1104 9.3418 19.6282 26.1537
510 1 -1.1104 9.40413 19.5115 20.7211
496 1 -1.1104 12.3915 13.8238 20.4938
545 1 -1.1104 6.66861 19.7223 23.4284
349 1 -1.1104 3.67177 -0.117342 20.5799
306 2 2.2208 2.57042 -1.57707 27.6245
305 2 2.2208 5.23051 1.24996 27.5163
520 2 2.2208 5.14954 1.29677 21.8871
521 1 -1.1104 0.897405 -3.0721 23.2994
522 1 -1.1104 1.14739 2.78606 23.3523
525 1 -1.1104 0.998872 -2.91635 26.2837
526 1 -1.1104 0.873506 2.77899 26.239
529 1 -1.1104 0.954678 -0.0686298 23.18
531 2 2.2208 5.24123 -1.58147 24.688
532 2 2.2208 5.16486 4.03925 24.8763
533 1 -1.1104 1.03287 -0.114471 26.1631
535 1 -1.1104 3.72243 -2.98667 23.3118
536 1 -1.1104 3.91627 2.58766 23.4364
537 2 2.2208 2.27525 1.30594 24.8131
538 1 -1.1104 3.77278 -2.92711 25.9922
539 1 -1.1104 3.67972 2.74169 26.2173
540 2 2.2208 2.3237 -1.61237 21.8805
541 2 2.2208 2.37755 4.11936 21.9031
542 1 -1.1104 3.81406 -0.283641 23.3861
543 1 -1.1104 3.81541 -0.0478682 26.2408
524 1 -1.1104 6.75806 2.7154 23.4256
530 1 -1.1104 6.80508 -0.132435 23.2917
527 1 -1.1104 6.52393 -3.01042 26.0658
528 1 -1.1104 6.62399 2.69199 26.1687
523 1 -1.1104 6.46348 -2.99865 23.4084
307 2 2.2208 2.30966 4.08639 27.5968
351 1 -1.1104 9.53151 16.9857 26.0018
8833 2 2.2208 13.6558 12.4488 19.1384
308 2 2.2208 10.9066 1.24239 27.5468
636 2 2.2208 8.00577 15.3714 22.0254
534 1 -1.1104 6.64294 -0.112352 26.1204
309 2 2.2208 8.07014 -1.67887 27.5989
556 2 2.2208 10.7855 1.26808 21.9958
557 1 -1.1104 12.3071 -3.02544 23.3878
558 1 -1.1104 12.1889 2.72548 23.4162
559 1 -1.1104 12.1704 -2.85067 26.2258
560 1 -1.1104 12.2034 2.63322 26.0943
561 1 -1.1104 12.1998 -0.140649 23.2664
562 2 2.2208 10.799 -1.57689 24.7925
563 2 2.2208 10.7731 4.03453 24.7479
564 1 -1.1104 12.2125 -0.085797 26.1068
565 1 -1.1104 9.44166 -2.9913 23.388
566 1 -1.1104 9.51486 2.73253 23.3491
567 2 2.2208 8.08245 1.32204 24.7558
568 1 -1.1104 9.49705 -3.05341 26.2229
569 1 -1.1104 9.39713 2.58572 26.2807
570 2 2.2208 8.01156 -1.58702 22.0233
571 2 2.2208 8.03734 4.19043 21.9546
572 1 -1.1104 9.51861 -0.26595 23.3964
573 1 -1.1104 9.37588 -0.18963 26.1212
310 2 2.2208 8.01389 4.05962 27.6397
576 1 -1.1104 6.70669 16.8724 26.2293
613 1 -1.1104 6.5507 19.7467 26.1858
581 2 2.2208 10.9046 20.8422 24.83
551 1 -1.1104 6.80986 16.8651 23.3419
313 2 2.2208 5.22959 12.414 27.5989
585 2 2.2208 5.20925 6.87572 21.9933
586 2 2.2208 5.17706 12.5197 22.0077
587 1 -1.1104 0.965932 8.26168 23.3439
589 1 -1.1104 1.01861 8.29154 26.2643
591 1 -1.1104 0.979135 5.46059 23.3607
592 1 -1.1104 1.01818 11.0425 23.4385
595 2 2.2208 5.2392 9.72221 24.7523
596 1 -1.1104 0.94382 5.38474 26.087
597 1 -1.1104 0.850142 10.9477 26.35
600 1 -1.1104 3.80367 8.03646 23.4066
601 2 2.2208 2.36266 6.84728 24.8281
602 2 2.2208 2.55542 12.5784 24.7296
603 1 -1.1104 3.83128 8.41842 26.1632
604 2 2.2208 2.26944 9.68781 21.9403
605 1 -1.1104 3.80211 5.45017 23.3994
606 1 -1.1104 3.76082 10.9812 23.4295
607 1 -1.1104 3.8047 5.5707 26.2281
608 1 -1.1104 3.7703 11.1685 26.1407
590 1 -1.1104 6.62529 8.3319 26.2086
594 1 -1.1104 6.68861 11.2286 23.4678
311 2 2.2208 5.29712 6.86062 27.643
593 1 -1.1104 6.65493 5.5584 23.365
610 1 -1.1104 6.73585 13.9445 26.1174
598 1 -1.1104 6.61012 5.44195 26.3089
634 1 -1.1104 9.55888 16.7318 23.2479
583 1 -1.1104 9.35417 13.8138 23.2297
303 2 2.2208 10.8711 18.2003 27.6324
554 1 -1.1104 12.2123 19.559 26.2184
450 1 -1.1104 9.39884 5.59904 20.5045
577 2 2.2208 10.889 15.3898 24.7181
588 1 -1.1104 6.64162 8.40206 23.5786
316 2 2.2208 10.8525 12.6809 27.4939
599 1 -1.1104 6.57935 11.157 26.1718
616 1 -1.1104 9.23367 11.2296 26.1595
617 1 -1.1104 9.41069 5.50228 26.2592
618 1 -1.1104 9.37277 10.9455 23.37
619 1 -1.1104 9.50594 5.48819 23.4094
620 2 2.2208 8.08608 9.62083 22.0814
621 1 -1.1104 9.40256 8.4603 26.2575
622 2 2.2208 8.00148 12.5118 24.7155
623 2 2.2208 8.03413 6.87602 24.8742
624 2 2.2208 10.7957 6.89984 21.9372
625 2 2.2208 10.8474 12.4529 21.9744
626 1 -1.1104 12.1542 8.32829 23.309
627 1 -1.1104 12.155 8.32845 26.094
628 1 -1.1104 12.2425 5.61255 23.3343
629 1 -1.1104 12.288 11.1195 23.4411
630 2 2.2208 10.7915 9.67162 24.7795
631 1 -1.1104 12.1572 5.50939 26.3422
632 1 -1.1104 12.1793 11.2213 26.0326
633 1 -1.1104 9.44342 8.17668 23.3821
304 2 2.2208 8.05837 21.0017 27.6319
315 2 2.2208 7.98653 9.68325 27.5787
312 2 2.2208 2.55351 9.64554 27.5521
8903 2 2.2208 13.5651 18.1201 19.1646
389 1 -1.1104 6.53141 14.1434 23.2508
8258 2 2.2208 2.40795 -4.41322 24.6186
352 1 -1.1104 3.90016 19.5192 26.1553
356 2 2.2208 5.42219 18.205 22.094
384 1 -1.1104 0.989497 13.9418 23.3747
385 1 -1.1104 1.03755 19.4387 23.4999
386 2 2.2208 2.5516 15.5195 22.0059
387 2 2.2208 2.49676 20.9418 22.074
519 2 2.2208 5.34979 15.3918 24.8904
544 2 2.2208 5.28525 20.9807 24.7975
546 1 -1.1104 1.08012 13.925 26.3092
549 1 -1.1104 3.95988 16.695 23.487
550 1 -1.1104 1.12128 16.6534 23.5632
574 1 -1.1104 1.22758 16.8549 26.3538
575 1 -1.1104 1.15403 19.5756 26.2012
578 1 -1.1104 3.9727 13.9277 26.1321
579 1 -1.1104 3.95787 16.6548 26.35
580 2 2.2208 2.46169 18.0787 24.8572
609 1 -1.1104 3.87146 13.9424 23.3943
611 1 -1.1104 3.86489 19.486 23.3719
582 1 -1.1104 12.5046 16.8217 26.138
553 1 -1.1104 12.3837 13.9905 26.1835
635 2 2.2208 8.125 21.0305 22.0816
612 2 2.2208 8.05484 18.2845 24.631
552 1 -1.1104 12.3157 19.2565 23.3629
555 1 -1.1104 12.2875 16.5125 23.251
547 2 2.2208 10.8565 18.0365 21.9499
8704 2 2.2208 -0.298822 18.1134 27.651
9023 2 2.2208 13.6478 9.66355 21.9333
8282 2 2.2208 5.04748 -4.40799 21.7457
8797 2 2.2208 -0.254265 15.1543 24.8446
8719 2 2.2208 13.5843 4.03441 27.5296
17446 2 2.2208 13.6511 -4.32922 24.7613
8798 2 2.2208 13.6049 6.76945 24.854
17578 2 2.2208 13.5672 -4.37816 19.3076
8755 2 2.2208 -0.194913 20.8979 24.8577
7996 2 2.2208 10.7662 -4.35771 27.5474
8832 2 2.2208 13.6466 7.00102 19.0588
8718 2 2.2208 -0.33262 12.4407 27.6444
8973 2 2.2208 13.5833 1.20578 24.6208
8901 2 2.2208 13.5964 15.2749 16.3263
8756 2 2.2208 -0.331862 18.2586 22.1114
8949 2 2.2208 -0.286435 12.5178 21.9792
17333 2 2.2208 -0.265389 -4.36613 27.6518
8713 2 2.2208 13.6614 20.8041 27.5631
8969 2 2.2208 13.5845 -1.61691 21.9704
8707 2 2.2208 -0.295254 1.29759 27.5706
8944 2 2.2208 -0.263898 18.1872 16.4775
8708 2 2.2208 -0.338228 6.8402 27.453
8709 2 2.2208 13.6327 -1.5349 27.5798
391 2 2.2208 10.8894 -1.53986 13.694
302 2 2.2208 2.57413 21.0366 27.5848
300 2 2.2208 5.22703 18.2378 27.6144
637 2 2.2208 5.35814 23.7611 5.12323
638 2 2.2208 5.47651 29.3594 5.06808
639 1 -1.1104 1.16866 25.1345 0.839162
640 1 -1.1104 1.09515 25.1507 3.71591
641 1 -1.1104 0.947737 22.3692 1.04891
642 1 -1.1104 1.07759 28.0353 0.862749
643 2 2.2208 5.23955 26.5228 2.38204
644 1 -1.1104 1.01425 22.2422 3.74963
645 1 -1.1104 1.25823 27.9504 3.72467
646 1 -1.1104 3.75533 25.2133 1.01654
647 2 2.2208 2.40021 23.7747 2.28986
648 2 2.2208 2.5505 29.3192 2.40926
649 1 -1.1104 3.88071 24.9124 3.85048
650 2 2.2208 2.53937 26.5029 5.29944
651 1 -1.1104 3.79157 22.3377 1.15514
652 1 -1.1104 4.05806 27.9839 1.10206
653 1 -1.1104 3.92242 22.3191 3.78792
654 1 -1.1104 3.90504 27.7132 3.87505
786 1 -1.1104 3.95157 28.09 6.5035
659 1 -1.1104 6.77224 25.1567 3.77126
778 1 -1.1104 0.991695 25.2077 6.6494
784 1 -1.1104 3.95461 25.1948 6.64278
779 1 -1.1104 6.78612 25.1662 6.63454
785 1 -1.1104 3.94027 22.334 6.58351
780 1 -1.1104 0.955825 22.414 6.71144
783 1 -1.1104 6.69264 27.9589 6.50183
661 1 -1.1104 6.6915 28.2844 0.797663
662 1 -1.1104 6.76536 22.4544 3.70726
782 1 -1.1104 6.73108 22.5144 6.59056
660 1 -1.1104 6.59657 22.4401 1.00046
658 1 -1.1104 6.61918 25.18 1.01738
663 1 -1.1104 6.66733 27.9941 3.52809
664 2 2.2208 10.9908 23.8467 5.17755
665 2 2.2208 10.8693 29.3576 5.26766
666 1 -1.1104 12.2315 25.1053 1.03351
667 1 -1.1104 12.3832 25.0015 3.86849
668 1 -1.1104 12.2009 22.4709 0.9671
669 1 -1.1104 12.3722 27.7482 0.95487
670 2 2.2208 10.9141 26.4952 2.45361
671 1 -1.1104 12.3139 22.2586 3.77764
672 1 -1.1104 12.3965 27.9155 3.78497
673 1 -1.1104 9.53398 25.2155 0.99576
674 2 2.2208 8.08917 23.793 2.32732
675 2 2.2208 8.06338 29.5565 2.26054
676 1 -1.1104 9.46228 25.2907 3.78465
677 2 2.2208 8.11707 26.537 5.15652
678 1 -1.1104 9.50844 22.2698 0.930808
679 1 -1.1104 9.57192 27.8885 0.985176
680 1 -1.1104 9.35351 22.4045 3.68228
681 1 -1.1104 9.45803 28.1436 3.70751
811 1 -1.1104 12.4104 25.1292 6.52821
813 1 -1.1104 12.4031 27.8635 6.67891
812 1 -1.1104 12.2941 22.1949 6.64297
816 1 -1.1104 9.42101 27.8562 6.56005
814 1 -1.1104 9.4912 25.04 6.5563
815 1 -1.1104 9.53251 22.2038 6.50922
9581 2 2.2208 -0.24517 32.2123 13.5894
9421 2 2.2208 13.6543 46.137 13.674
685 2 2.2208 5.31721 34.9882 5.06536
686 1 -1.1104 1.13842 30.8883 0.877453
687 1 -1.1104 1.00469 36.4742 1.02114
689 1 -1.1104 1.18933 30.8048 3.62542
690 1 -1.1104 0.856459 36.3933 3.90825
692 1 -1.1104 1.02677 33.5924 0.996917
693 2 2.2208 5.35995 32.3064 2.28122
694 2 2.2208 5.158 37.8215 2.40201
695 1 -1.1104 1.17503 33.5794 3.81646
697 1 -1.1104 3.80912 30.7605 0.920508
698 1 -1.1104 3.86951 36.499 1.02499
699 2 2.2208 2.45023 35.0093 2.37547
700 1 -1.1104 3.98014 30.6781 3.79044
701 1 -1.1104 3.76513 36.3908 3.71653
702 2 2.2208 2.45872 32.2481 5.22144
703 2 2.2208 2.44263 37.9011 5.17329
704 1 -1.1104 3.80608 33.6633 0.808873
705 1 -1.1104 4.00628 33.6319 3.74171
843 1 -1.1104 3.90664 33.6376 6.4965
842 1 -1.1104 3.90862 36.4694 6.47937
841 1 -1.1104 3.84431 30.7834 6.46822
688 1 -1.1104 6.70408 36.5044 0.912936
835 1 -1.1104 1.12649 30.9407 6.45485
839 1 -1.1104 0.976195 33.6513 6.79268
691 1 -1.1104 6.44163 36.3592 3.55137
696 1 -1.1104 6.72356 33.6223 3.66855
710 1 -1.1104 6.76383 30.8811 3.70267
840 1 -1.1104 6.67306 33.5556 6.48526
742 1 -1.1104 1.00899 39.1453 3.77577
711 1 -1.1104 6.76484 33.6978 1.02984
838 1 -1.1104 6.59631 36.4366 6.54714
709 1 -1.1104 6.67309 30.9761 0.835645
712 2 2.2208 10.8821 35.0305 5.18313
713 1 -1.1104 12.2419 30.6594 0.893996
714 1 -1.1104 12.3327 36.3515 0.919916