ITEM: TIMESTEP
40000
ITEM: NUMBER OF ATOMS
17700
ITEM: BOX BOUNDS pp pp pp
-3.5892090363749596e-01 2.7698920903636932e+01
-4.3148708048685132e+00 3.3239487080487123e+02
-3.5744353382047961e-01 2.7697443533820230e+01
ITEM: ATOMS id type q x y z
1 2 2.2208 5.27523 1.20796 5.2605
2 1 -1.1104 0.92441 -3.01048 0.95905
3 1 -1.1104 1.10978 2.69754 1.00128
6 1 -1.1104 0.829449 -3.17132 3.81422
7 1 -1.1104 1.08155 2.64798 3.74781
10 1 -1.1104 1.01507 -0.107536 1.07186
12 2 2.2208 5.19615 -1.62134 2.3727
13 2 2.2208 5.32432 3.96806 2.54428
14 1 -1.1104 0.941171 -0.349601 3.80379
16 1 -1.1104 3.67518 -3.12158 1.09515
17 1 -1.1104 3.89799 2.48912 0.914046
18 2 2.2208 2.50058 1.28139 2.39251
19 1 -1.1104 3.78297 -2.84425 3.80066
20 1 -1.1104 3.81143 2.57105 3.88218
21 2 2.2208 2.47828 -1.53219 5.21969
23 1 -1.1104 3.84818 -0.202281 0.992842
24 1 -1.1104 3.76313 -0.122419 3.69759
22 2 2.2208 2.33881 4.00544 5.28981
4 1 -1.1104 6.66149 -3.00685 1.05341
9 1 -1.1104 6.60986 2.73514 3.93272
8 1 -1.1104 6.62771 -3.01461 3.81792
15 1 -1.1104 6.47592 -0.13391 3.85336
5 1 -1.1104 6.73949 2.40707 0.989472
11 1 -1.1104 6.63632 -0.236422 1.04863
53 2 2.2208 13.5049 -4.35377 2.49661
166 1 -1.1104 1.06978 -2.92834 6.51156
174 1 -1.1104 3.90069 -0.115473 6.69391
171 1 -1.1104 6.41766 -0.188074 6.78747
167 1 -1.1104 0.910312 2.70704 6.61265
169 1 -1.1104 6.5912 2.54986 6.71297
170 1 -1.1104 1.0383 -0.0653309 6.65472
231 2 2.2208 7.9638 -4.53415 8.07779
31 2 2.2208 10.8819 1.24152 5.24208
32 1 -1.1104 12.2716 -3.00858 1.06217
33 1 -1.1104 12.2919 2.55663 0.823272
34 1 -1.1104 11.9823 -3.02864 3.92292
35 1 -1.1104 12.2517 2.69245 3.77294
36 1 -1.1104 12.1488 -0.255586 1.02129
37 2 2.2208 10.729 -1.59532 2.40738
39 1 -1.1104 12.0481 -0.220933 3.79522
40 1 -1.1104 9.41416 -2.96908 1.07447
41 1 -1.1104 9.39443 2.73766 1.04927
42 2 2.2208 8.05491 1.23559 2.42396
43 1 -1.1104 9.37238 -2.92838 3.84474
44 1 -1.1104 9.45572 2.61932 3.98327
45 2 2.2208 7.81319 -1.61024 5.30694
46 2 2.2208 8.07734 4.03034 5.24876
47 1 -1.1104 9.33966 -0.13906 0.907827
48 1 -1.1104 9.2634 -0.260433 3.74869
38 2 2.2208 10.8805 4.05102 2.4104
330 2 2.2208 13.624 12.3946 8.08888
49 2 2.2208 13.5795 1.17793 2.49147
325 2 2.2208 13.662 4.07015 5.16339
207 1 -1.1104 12.054 -0.0262127 6.6747
205 1 -1.1104 12.0814 -3.02384 6.62253
210 1 -1.1104 9.24351 -0.170638 6.50055
322 1 -1.1104 9.32491 13.8688 12.3141
9173 2 2.2208 -0.544676 20.9534 8.08651
229 1 -1.1104 12.1488 13.8082 9.54544
54 2 2.2208 5.21771 6.96184 5.20929
55 2 2.2208 5.12922 12.5269 5.1808
56 1 -1.1104 1.07712 8.10464 0.936372
58 1 -1.1104 1.10137 8.15697 3.85311
60 1 -1.1104 1.19034 5.34517 0.934772
61 1 -1.1104 0.872917 10.9582 0.908358
66 2 2.2208 5.3964 9.63256 2.37129
67 1 -1.1104 1.04352 5.36216 3.74979
68 1 -1.1104 0.787561 10.9383 3.82395
71 1 -1.1104 3.86759 8.18934 1.08991
72 2 2.2208 2.49917 6.87745 2.3543
73 2 2.2208 2.30933 12.5008 2.33429
74 1 -1.1104 3.89108 8.2903 3.86904
75 2 2.2208 2.47388 9.6383 5.25354
76 1 -1.1104 3.98698 5.41655 0.96742
77 1 -1.1104 3.60488 11.0283 0.904242
79 1 -1.1104 3.8747 5.36055 3.80043
80 1 -1.1104 3.73043 11.0431 3.71041
64 1 -1.1104 6.5169 11.0458 0.894561
57 1 -1.1104 6.68449 8.1615 1.09428
69 1 -1.1104 6.64349 5.58157 3.9089
70 1 -1.1104 6.6512 11.0938 3.61858
59 1 -1.1104 6.57064 8.34479 3.83719
63 1 -1.1104 6.83209 5.19991 1.09511
78 1 -1.1104 3.8126 11.015 6.62248
62 1 -1.1104 0.992064 11.2473 6.46938
65 1 -1.1104 6.54742 11.2022 6.57975
235 1 -1.1104 6.61986 8.28516 6.50497
238 1 -1.1104 3.87331 8.16372 6.59706
236 1 -1.1104 0.947987 5.57808 6.69536
318 1 -1.1104 9.41339 19.5146 9.45367
104 2 2.2208 13.636 12.5237 2.60338
84 2 2.2208 10.7968 6.81073 5.27847
85 2 2.2208 10.786 12.5046 5.23196
86 1 -1.1104 12.2338 8.25227 0.939462
87 1 -1.1104 12.2233 8.27184 3.73962
88 1 -1.1104 12.2256 5.41003 1.13639
89 1 -1.1104 12.0647 11.0033 0.980062
91 2 2.2208 10.7481 9.59035 2.35552
92 1 -1.1104 12.3136 5.59021 3.84602
93 1 -1.1104 12.2621 11.1273 3.88248
94 1 -1.1104 9.36196 8.22499 0.946267
95 2 2.2208 8.00132 6.81434 2.43992
96 2 2.2208 7.96627 12.4994 2.44122
97 1 -1.1104 9.45399 8.19648 3.73965
98 2 2.2208 7.96274 9.52616 5.13913
99 1 -1.1104 9.36147 5.38376 0.919603
100 1 -1.1104 9.19967 11.0074 0.955764
102 1 -1.1104 9.48311 5.352 3.83385
103 1 -1.1104 9.49031 10.9222 3.74414
326 2 2.2208 13.4752 9.65854 5.26125
105 2 2.2208 13.5732 6.93295 2.30851
267 1 -1.1104 9.46372 8.24584 6.66005
101 1 -1.1104 9.29466 10.9841 6.5982
265 1 -1.1104 12.2905 8.29659 6.53094
90 1 -1.1104 12.1419 11.0638 6.71868
9136 2 2.2208 13.5606 20.8404 10.8629
311 1 -1.1104 12.0926 19.5862 9.63191
106 2 2.2208 5.24205 18.1336 5.20286
107 1 -1.1104 0.907123 13.827 1.06081
109 1 -1.1104 0.947712 19.5793 0.998544
113 1 -1.1104 0.965673 13.6553 3.89478
114 1 -1.1104 0.858533 19.2934 3.94661
116 1 -1.1104 0.90657 16.8622 1.0781
119 2 2.2208 5.14719 15.3405 2.40388
120 2 2.2208 5.10595 21.0142 2.44666
121 1 -1.1104 0.985643 16.4977 3.82565
123 1 -1.1104 3.54604 13.9287 0.958084
125 1 -1.1104 3.69843 19.537 1.08813
127 2 2.2208 2.26616 18.1451 2.44659
128 1 -1.1104 3.81318 13.8991 3.77345
129 1 -1.1104 3.85539 19.5523 4.02453
130 2 2.2208 2.36296 15.2488 5.18957
131 2 2.2208 2.34882 20.7511 5.31503
132 1 -1.1104 3.70177 16.764 0.963787
134 1 -1.1104 3.69116 16.7863 3.88844
138 1 -1.1104 6.52643 19.4465 1.0183
115 1 -1.1104 6.47085 13.8489 3.85227
140 1 -1.1104 6.60367 16.6508 1.02126
122 1 -1.1104 6.71871 16.624 4.02987
139 1 -1.1104 6.44064 19.57 3.94455
110 1 -1.1104 6.4 13.9072 1.12488
108 1 -1.1104 1.05267 13.952 6.59601
124 1 -1.1104 3.71677 13.8378 6.49343
302 1 -1.1104 0.96011 19.3172 6.66335
111 1 -1.1104 6.63408 13.8935 6.55567
117 1 -1.1104 0.891671 16.5908 6.70405
133 1 -1.1104 3.83148 16.6893 6.6134
118 1 -1.1104 6.62304 16.7175 6.60802
156 1 -1.1104 9.46123 19.4341 6.73205
165 2 2.2208 13.5555 18.119 2.38637
327 2 2.2208 13.5149 20.8764 5.31449
141 2 2.2208 10.8048 18.2288 5.30292
142 1 -1.1104 12.2658 14.0837 1.17165
144 1 -1.1104 12.132 19.4882 1.02672
146 1 -1.1104 12.0951 14.0976 3.90862
147 1 -1.1104 12.1464 19.4375 3.79243
148 1 -1.1104 12.0956 16.9013 0.978676
150 2 2.2208 10.7852 15.3851 2.61702
151 2 2.2208 10.8209 20.8854 2.42622
152 1 -1.1104 12.1737 16.8234 3.92373
153 1 -1.1104 9.2412 13.8893 1.04435
155 1 -1.1104 9.35246 19.4043 1.07093
157 2 2.2208 7.95039 18.1528 2.53635
158 1 -1.1104 9.40498 13.87 3.92515
159 1 -1.1104 9.30627 19.6232 3.9423
160 2 2.2208 8.07407 15.3085 5.35542
161 2 2.2208 8.01758 21.0473 5.3638
162 1 -1.1104 9.3142 16.5477 1.14873
164 1 -1.1104 9.48565 16.7464 3.91037
8972 2 2.2208 13.5622 15.3593 5.38489
149 1 -1.1104 12.1776 16.8037 6.76577
154 1 -1.1104 9.5442 13.7971 6.71875
83 1 -1.1104 12.1451 13.8913 12.349
323 1 -1.1104 12.2781 16.6814 9.45095
345 2 2.2208 13.6904 1.20752 13.5873
9170 2 2.2208 -0.508957 12.5909 5.16791
315 1 -1.1104 9.28201 16.7046 12.2363
320 2 2.2208 7.83135 18.0255 7.98934
173 1 -1.1104 3.80119 2.66993 6.62728
172 1 -1.1104 3.72616 -2.98031 6.61788
175 2 2.2208 5.09602 1.32174 10.8502
176 1 -1.1104 1.08305 -3.01717 12.2185
177 1 -1.1104 0.777173 2.63556 12.2967
180 1 -1.1104 1.00126 -2.86292 9.38964
181 1 -1.1104 0.970286 2.69935 9.53225
184 1 -1.1104 1.04018 -0.183818 12.3228
186 2 2.2208 5.19987 -1.62124 8.13916
187 2 2.2208 5.16932 4.0962 8.09396
188 1 -1.1104 0.976176 -0.197885 9.42692
190 1 -1.1104 3.76871 -2.88872 12.3606
191 1 -1.1104 3.71293 2.62709 12.3174
192 2 2.2208 2.48303 1.13114 7.93835
193 1 -1.1104 3.85455 -2.95236 9.50997
194 1 -1.1104 3.68762 2.57965 9.45645
195 2 2.2208 2.42636 -1.67595 10.917
196 2 2.2208 2.29807 4.01062 10.822
197 1 -1.1104 3.83085 -0.140061 12.2675
198 1 -1.1104 3.71521 -0.275575 9.55469
182 1 -1.1104 6.72161 -3.16994 9.46114
178 1 -1.1104 6.64695 -3.01336 12.163
183 1 -1.1104 6.55064 2.58338 9.4196
179 1 -1.1104 6.68451 2.48097 12.2509
185 1 -1.1104 6.66932 -0.0272039 12.238
189 1 -1.1104 6.47897 -0.216608 9.47056
168 1 -1.1104 6.39541 -2.94703 6.56604
206 1 -1.1104 12.3578 2.60869 6.65487
209 1 -1.1104 9.4947 2.57993 6.59511
230 2 2.2208 13.677 -1.71241 10.8381
328 2 2.2208 13.6682 4.11847 10.9188
377 2 2.2208 2.2624 15.3748 -0.419947
208 1 -1.1104 9.10467 -3.13915 6.64745
211 2 2.2208 10.8148 1.25486 10.8506
212 1 -1.1104 12.2335 -3.12194 12.2052
213 1 -1.1104 12.2141 2.78368 12.2375
214 1 -1.1104 12.273 -3.03464 9.40363
215 1 -1.1104 12.2584 2.62712 9.44104
216 1 -1.1104 12.3893 -0.285624 12.1324
217 2 2.2208 10.7625 -1.60939 7.94839
218 2 2.2208 10.8284 3.96422 8.01283
219 1 -1.1104 12.1764 -0.280777 9.49815
220 1 -1.1104 9.35935 -3.01707 12.2463
221 1 -1.1104 9.42847 2.55895 12.2677
222 2 2.2208 8.01388 1.24767 8.14255
223 1 -1.1104 9.51294 -3.11201 9.38163
224 1 -1.1104 9.44789 2.69058 9.47547
225 2 2.2208 7.97109 -1.5798 10.9274
226 2 2.2208 7.92919 4.01758 10.7839
227 1 -1.1104 9.54263 -0.231843 12.2551
228 1 -1.1104 9.33103 -0.140854 9.36788
9168 2 2.2208 13.5558 15.2529 10.9206
341 2 2.2208 13.5352 6.91601 13.8002
357 2 2.2208 7.85632 18.166 13.8269
239 1 -1.1104 3.78146 5.46456 6.73779
234 1 -1.1104 1.09475 8.52368 6.57024
237 1 -1.1104 6.70799 5.5108 6.64577
240 2 2.2208 5.17349 6.72978 10.9003
241 2 2.2208 5.10396 12.5386 10.7309
242 1 -1.1104 0.888987 8.44189 12.2161
244 1 -1.1104 1.05809 8.2245 9.37399
246 1 -1.1104 0.857782 5.39789 12.1554
247 1 -1.1104 0.899608 10.9999 12.1501
250 2 2.2208 5.12842 9.56442 8.00919
251 1 -1.1104 1.06129 5.46339 9.47287
252 1 -1.1104 1.02428 11.0507 9.52179
255 1 -1.1104 3.75564 8.17914 12.2742
256 2 2.2208 2.43283 6.81781 8.11546
257 2 2.2208 2.32734 12.4925 7.99804
258 1 -1.1104 3.76514 8.15387 9.46498
259 2 2.2208 2.31169 9.56196 10.7368
260 1 -1.1104 3.56478 5.44323 12.0866
261 1 -1.1104 3.74497 10.9091 12.1099
262 1 -1.1104 3.75916 5.38052 9.42326
263 1 -1.1104 3.8274 11.0008 9.41318
248 1 -1.1104 6.30327 5.33366 12.1908
243 1 -1.1104 6.48699 8.30753 12.0359
249 1 -1.1104 6.69735 10.9829 12.3074
245 1 -1.1104 6.64995 8.24081 9.31206
254 1 -1.1104 6.54808 10.9896 9.49214
253 1 -1.1104 6.65733 5.30161 9.46924
321 1 -1.1104 9.4299 19.4538 12.2447
313 2 2.2208 10.8209 15.3325 8.16057
266 1 -1.1104 12.2014 5.37731 6.57007
379 2 2.2208 2.45147 20.8493 -0.3479
269 1 -1.1104 9.39883 5.36088 6.54615
264 1 -1.1104 9.49926 11.1021 9.40892
268 1 -1.1104 9.47001 5.34296 9.37356
270 1 -1.1104 9.50517 10.9313 12.468
271 1 -1.1104 9.43447 5.47783 12.1661
272 2 2.2208 8.00456 9.64495 10.7856
273 1 -1.1104 9.44992 8.12603 9.48049
274 2 2.2208 8.01388 12.3841 8.09028
275 2 2.2208 8.06103 6.81177 8.02242
276 2 2.2208 10.9712 6.79759 10.8699
277 2 2.2208 10.7697 12.5248 10.921
278 1 -1.1104 12.1808 8.19654 12.4122
279 1 -1.1104 12.2308 8.27882 9.39577
280 1 -1.1104 12.232 5.41698 12.3219
281 1 -1.1104 12.2758 11.0672 12.3941
282 2 2.2208 10.8439 9.62753 8.04174
283 1 -1.1104 12.2823 5.36156 9.37732
284 1 -1.1104 12.1693 11.1164 9.62182
285 1 -1.1104 9.32434 8.19632 12.2933
340 2 2.2208 2.35268 12.396 13.738
329 2 2.2208 13.5591 6.93497 7.92276
324 2 2.2208 10.7282 20.8476 8.11406
344 2 2.2208 10.8101 9.71333 13.8712
126 1 -1.1104 3.86471 19.3644 6.66519
112 1 -1.1104 6.6498 19.5528 6.75473
297 1 -1.1104 6.55683 13.8943 12.299
306 1 -1.1104 6.5302 16.693 12.3786
288 1 -1.1104 6.58034 19.2103 9.5321
295 2 2.2208 5.27118 15.2389 7.84446
294 1 -1.1104 0.936441 13.6674 9.57505
293 2 2.2208 5.10012 20.7974 8.21465
301 1 -1.1104 3.72856 19.4258 9.58376
299 1 -1.1104 0.90375 13.6838 12.2556
310 2 2.2208 2.35789 15.1458 10.8274
309 2 2.2208 2.2508 20.7788 10.9093
300 2 2.2208 5.11016 17.8962 10.995
292 1 -1.1104 1.04608 16.5278 9.36088
287 1 -1.1104 3.77431 13.7687 12.2588
291 1 -1.1104 0.819582 19.3866 9.47563
308 1 -1.1104 3.69601 16.507 12.3181
298 1 -1.1104 0.956604 19.2535 12.3901
307 1 -1.1104 0.992175 16.5077 12.3271
305 1 -1.1104 3.85396 13.9573 9.34415
304 1 -1.1104 3.81107 16.5309 9.43731
303 2 2.2208 2.44296 17.9699 8.08051
286 1 -1.1104 3.84756 19.3347 12.3508
290 1 -1.1104 6.56575 13.7445 9.36492
289 1 -1.1104 6.47843 16.6841 9.41374
296 1 -1.1104 6.60631 19.4209 12.3572
314 1 -1.1104 9.3321 16.7151 9.42619
316 2 2.2208 7.81359 20.8115 10.8921
50 2 2.2208 10.6432 18.1024 10.9459
317 2 2.2208 7.91416 15.3946 10.9126
9169 2 2.2208 13.5627 18.1454 8.20849
312 1 -1.1104 12.1417 16.7692 12.18
145 1 -1.1104 12.1898 19.5089 6.76929
199 1 -1.1104 12.1913 19.5521 12.2896
143 1 -1.1104 12.222 13.8765 6.56672
319 1 -1.1104 9.34219 14.0064 9.56766
163 1 -1.1104 9.39179 16.5576 6.70234
354 2 2.2208 5.15508 15.2183 13.8097
336 2 2.2208 10.8075 -1.65332 13.5316
360 2 2.2208 2.50202 3.98665 -0.452872
378 2 2.2208 5.1628 18.0377 -0.326508
347 2 2.2208 2.43646 18.0356 13.6779
371 2 2.2208 -0.451837 6.85845 -0.435123
358 2 2.2208 5.2505 1.20154 -0.453046
366 2 2.2208 13.7453 4.17052 -0.369049
346 2 2.2208 7.98186 12.4193 13.787
355 2 2.2208 10.6948 20.9288 13.6388
351 2 2.2208 7.99163 15.3267 -0.377873
352 2 2.2208 10.7157 18.0655 -0.375936
374 2 2.2208 10.6023 12.466 -0.345851
333 2 2.2208 2.31302 1.24447 13.6626
337 2 2.2208 10.7185 4.02715 13.7081
365 2 2.2208 13.4933 -1.4938 -0.368901
376 2 2.2208 13.6497 9.81162 -0.370345
380 2 2.2208 5.16456 1.14366 16.3781
381 1 -1.1104 1.0845 -2.84701 17.8547
382 1 -1.1104 1.07097 2.57695 17.709
385 1 -1.1104 1.01439 -3.0108 14.9668
387 1 -1.1104 0.886885 2.67964 15.1207
393 1 -1.1104 0.893787 -0.16188 17.6219
395 2 2.2208 5.17173 -1.63067 19.2637
396 2 2.2208 5.18376 4.03069 19.1934
397 1 -1.1104 1.11761 -0.118517 15.0592
401 1 -1.1104 4.03023 -3.07987 17.7942
402 1 -1.1104 3.91377 2.64078 17.8723
403 2 2.2208 2.42491 1.2906 19.1606
404 1 -1.1104 3.92285 -3.13796 14.9485
406 1 -1.1104 3.57404 2.61406 15.0426
408 2 2.2208 2.392 -1.53967 16.4628
409 2 2.2208 2.31541 4.11207 16.4627
410 1 -1.1104 3.75994 -0.129508 17.762
411 1 -1.1104 3.8068 -0.147343 14.97
384 1 -1.1104 6.65307 2.36721 17.7971
399 1 -1.1104 6.76799 -0.0871698 14.99
391 1 -1.1104 6.29805 2.63191 15.0634
383 1 -1.1104 6.73164 -3.11979 17.7428
394 1 -1.1104 6.53082 -0.437291 17.8378
389 1 -1.1104 6.75817 -3.0852 15.0187
386 1 -1.1104 1.06508 -2.91072 20.6245
388 1 -1.1104 0.922239 2.62284 20.6562
412 1 -1.1104 3.8289 -0.178962 20.6143
407 1 -1.1104 3.77736 2.73979 20.5855
338 2 2.2208 2.24352 6.91879 13.5236
518 2 2.2208 13.5521 18.0145 24.8579
423 2 2.2208 10.7265 1.11727 16.4456
424 1 -1.1104 12.3453 -3.15115 17.8321
425 1 -1.1104 12.4055 2.43163 17.8623
426 1 -1.1104 12.2052 -2.94822 15.062
428 1 -1.1104 12.1053 2.5091 14.9826
430 1 -1.1104 12.2591 -0.2746 17.8338
431 2 2.2208 10.7607 -1.58607 19.2096
432 2 2.2208 10.8311 3.93961 19.1216
433 1 -1.1104 12.1827 -0.215651 14.9308
435 1 -1.1104 9.52536 -2.88707 17.6975
436 1 -1.1104 9.52632 2.52656 17.782
437 2 2.2208 7.99988 1.22675 19.4587
438 1 -1.1104 9.44734 -3.04751 14.9161
440 1 -1.1104 9.40707 2.63194 15.0669
442 2 2.2208 8.03232 -1.5332 16.4935
443 2 2.2208 7.93162 3.95973 16.4237
444 1 -1.1104 9.35488 -0.0613293 18.0145
445 1 -1.1104 9.40586 -0.320202 15.0586
516 2 2.2208 13.7606 1.19667 19.2292
451 2 2.2208 13.6098 -1.61524 16.4562
517 2 2.2208 13.6124 3.87735 16.3836
439 1 -1.1104 9.45476 -3.07218 20.5879
559 1 -1.1104 12.1584 14.0694 20.649
614 2 2.2208 2.33661 -4.30978 24.8888
456 2 2.2208 5.27636 6.83142 16.3448
457 2 2.2208 5.25736 12.4115 16.493
458 1 -1.1104 1.05026 8.46949 18.1206
460 1 -1.1104 1.0736 8.28177 15.153
464 1 -1.1104 0.799883 5.36759 17.8147
465 1 -1.1104 0.994315 11.0081 17.9866
468 2 2.2208 5.27259 9.56248 19.3718
469 1 -1.1104 1.05444 5.56654 14.9723
471 1 -1.1104 0.954997 11.0314 15.0778
477 1 -1.1104 3.73966 8.14204 17.8087
478 2 2.2208 2.35913 6.81896 19.1946
479 2 2.2208 2.37816 12.3004 19.3327
480 1 -1.1104 3.984 8.2389 14.9775
482 2 2.2208 2.50296 9.68939 16.4741
483 1 -1.1104 3.7598 5.44602 17.8605
484 1 -1.1104 3.78856 10.9531 17.8867
485 1 -1.1104 3.81384 5.47862 14.9345
487 1 -1.1104 3.68084 11.1564 15.0732
462 1 -1.1104 6.51936 8.17273 14.9837
467 1 -1.1104 6.77621 11.0184 17.8413
473 1 -1.1104 6.4993 5.36999 14.9934
459 1 -1.1104 6.66414 8.18687 17.8555
466 1 -1.1104 6.56318 5.25526 17.8365
475 1 -1.1104 6.46023 11.0206 15.1446
476 1 -1.1104 6.53751 10.948 20.8441
461 1 -1.1104 0.91581 8.34627 20.7882
486 1 -1.1104 3.71461 5.44663 20.6108
481 1 -1.1104 3.80202 8.09794 20.6117
488 1 -1.1104 3.78218 10.9342 20.6294
463 1 -1.1104 6.68113 8.15687 20.6489
474 1 -1.1104 6.57955 5.31268 20.6095
9317 2 2.2208 13.6003 9.67868 16.5856
492 2 2.2208 10.718 6.81064 16.4992
493 2 2.2208 10.7207 12.4868 16.4784
494 1 -1.1104 12.0394 8.34876 17.9298
495 1 -1.1104 12.2376 8.27318 15.2026
497 1 -1.1104 12.1599 5.13462 17.7478
498 1 -1.1104 12.1315 11.1203 17.9073
499 2 2.2208 10.6459 9.63825 19.3473
500 1 -1.1104 12.1979 5.48464 15.0452
502 1 -1.1104 12.3084 11.2141 15.1728
504 1 -1.1104 9.31882 8.02006 17.8969
505 2 2.2208 7.98045 6.82673 19.3212
506 2 2.2208 7.96007 12.413 19.4227
507 1 -1.1104 9.42566 8.27314 14.9962
509 2 2.2208 8.00254 9.48457 16.4921
510 1 -1.1104 9.35881 5.4418 17.8413
511 1 -1.1104 9.38547 10.8883 17.9367
512 1 -1.1104 9.27352 5.39649 14.9899
514 1 -1.1104 9.39126 10.9884 15.1571
489 2 2.2208 13.6318 12.4386 19.2166
490 2 2.2208 13.7102 6.76436 19.1735
496 1 -1.1104 12.195 8.29355 20.5912
508 1 -1.1104 9.30064 8.06999 20.7925
515 1 -1.1104 9.40149 10.9774 20.6375
503 1 -1.1104 12.3257 11.1782 20.7095
501 1 -1.1104 12.274 5.47655 20.541
639 2 2.2208 7.83239 18.0201 25.0306
553 2 2.2208 10.727 17.9951 22.147
519 2 2.2208 5.12715 17.9821 16.5885
520 1 -1.1104 1.05524 13.7153 17.963
521 1 -1.1104 0.96379 19.3026 17.8576
524 1 -1.1104 0.944229 13.767 15.1023
526 1 -1.1104 0.914655 19.375 15.2615
532 1 -1.1104 0.859345 16.6377 17.9065
534 2 2.2208 5.08999 15.1942 19.3536
535 2 2.2208 5.14291 20.8947 19.3834
536 1 -1.1104 0.949841 16.4911 15.0086
540 1 -1.1104 3.79542 13.7772 17.8272
541 1 -1.1104 3.8603 19.5468 17.8907
542 2 2.2208 2.34768 17.8953 19.3389
543 1 -1.1104 3.82745 13.8633 15.1253
545 1 -1.1104 3.66587 19.3444 15.0893
547 2 2.2208 2.42206 15.1635 16.4944
548 2 2.2208 2.34475 20.7284 16.4854
549 1 -1.1104 3.74853 16.5013 18.0454
550 1 -1.1104 3.74306 16.5706 15.1885
528 1 -1.1104 6.71609 13.7992 15.1628
530 1 -1.1104 6.33291 19.7235 15.1297
523 1 -1.1104 6.58272 19.2775 17.9107
533 1 -1.1104 6.50828 16.5523 18.0062
522 1 -1.1104 6.65109 13.8977 17.9321
538 1 -1.1104 6.5977 16.6873 15.3115
551 1 -1.1104 3.84356 16.499 20.8798
525 1 -1.1104 0.919265 13.9254 20.748
546 1 -1.1104 3.62805 19.3418 20.7284
529 1 -1.1104 6.55624 13.6448 20.7218
539 1 -1.1104 6.52234 16.6478 20.6929
531 1 -1.1104 6.44582 19.4742 20.6936
544 1 -1.1104 3.77698 13.6904 20.6824
554 1 -1.1104 12.1515 13.9964 23.4709
422 2 2.2208 13.5512 18.0174 19.2213
555 2 2.2208 10.6469 18.1443 16.4576
556 1 -1.1104 12.1425 13.7927 17.9457
557 1 -1.1104 12.1673 19.5116 17.8108
558 1 -1.1104 12.2286 13.8968 15.1928
560 1 -1.1104 11.9915 19.526 15.0373
562 1 -1.1104 12.1212 16.6398 17.9049
563 2 2.2208 10.7703 15.3263 19.3029
564 2 2.2208 10.6236 20.9227 19.2621
565 1 -1.1104 12.1417 16.7275 15.1255
567 1 -1.1104 9.24133 13.7948 18.0727
568 1 -1.1104 9.32906 19.4817 17.8617
569 2 2.2208 7.93698 18.0049 19.2863
570 1 -1.1104 9.39605 13.9087 15.1797
572 1 -1.1104 9.24354 19.6595 15.0258
574 2 2.2208 7.98819 15.3024 16.5991
575 2 2.2208 7.95899 20.9722 16.4567
576 1 -1.1104 9.39257 16.6525 17.9296
577 1 -1.1104 9.31911 16.7163 15.1801
9387 2 2.2208 13.4745 15.2288 16.689
9390 2 2.2208 13.5305 20.8853 16.4182
578 1 -1.1104 9.38063 16.7215 20.79
571 1 -1.1104 9.26328 13.9424 20.767
561 1 -1.1104 12.0975 19.6721 20.6598
608 2 2.2208 10.8209 15.2054 24.8763
673 2 2.2208 7.97268 15.2793 22.1358
392 1 -1.1104 6.63125 2.60063 20.6473
400 1 -1.1104 6.58434 -0.254412 20.6438
674 2 2.2208 7.86618 20.7754 22.1232
405 1 -1.1104 3.70348 -2.87996 20.6172
390 1 -1.1104 6.63947 -2.99527 20.6252
398 1 -1.1104 0.946491 -0.133026 20.6083
583 2 2.2208 5.2127 1.27404 21.9454
584 1 -1.1104 0.909962 -2.91933 23.3421
585 1 -1.1104 0.853578 2.67471 23.4183
588 1 -1.1104 0.92607 -3.00273 26.2526
589 1 -1.1104 0.942012 2.73023 26.2495
592 1 -1.1104 1.013 -0.327697 23.6055
594 2 2.2208 5.2481 -1.4989 24.8806
595 2 2.2208 5.33042 4.06683 24.7741
596 1 -1.1104 0.984201 -0.0681371 26.263
598 1 -1.1104 3.6726 -3.09045 23.3586
599 1 -1.1104 3.75571 2.63672 23.4243
600 2 2.2208 2.33523 1.32842 24.79
601 1 -1.1104 3.70334 -2.91132 26.2656
602 1 -1.1104 3.69194 2.59412 26.2334
603 2 2.2208 2.44732 -1.64548 21.9753
605 1 -1.1104 3.83523 -0.231876 23.3066
606 1 -1.1104 3.89898 -0.267312 26.3316
590 1 -1.1104 6.30455 -2.96935 26.4968
586 1 -1.1104 6.62659 -3.01284 23.4925
593 1 -1.1104 6.51414 -0.128637 23.383
597 1 -1.1104 6.71307 -0.126422 26.2882
587 1 -1.1104 6.61781 2.56036 23.4359
591 1 -1.1104 6.49778 2.76294 26.1614
604 2 2.2208 2.31463 4.0522 22.0073
607 1 -1.1104 12.1212 16.6781 23.4676
580 1 -1.1104 12.2535 13.8867 26.4125
441 1 -1.1104 9.35505 2.7844 20.5176
446 1 -1.1104 9.4667 -0.093781 20.6808
645 2 2.2208 13.6455 -1.61615 22.146
646 2 2.2208 13.6323 1.31908 24.8396
427 1 -1.1104 12.0974 -3.10698 20.6222
429 1 -1.1104 12.1123 2.61209 20.6644
434 1 -1.1104 12.2179 -0.121596 20.5668
619 2 2.2208 10.9037 1.18682 22.0229
620 1 -1.1104 12.2112 -2.9831 23.5239
621 1 -1.1104 12.2194 2.63553 23.4645
622 1 -1.1104 12.056 -2.78031 26.2834
623 1 -1.1104 12.2274 2.76386 26.2025
624 1 -1.1104 12.1912 -0.12426 23.3281
625 2 2.2208 10.7317 -1.46158 24.895
626 2 2.2208 10.7233 4.00397 24.8259
627 1 -1.1104 12.1804 -0.0123432 26.1623
628 1 -1.1104 9.39785 -2.94883 23.3618
629 1 -1.1104 9.3804 2.68212 23.331
630 2 2.2208 8.0002 1.25081 24.8104
631 1 -1.1104 9.20051 -2.78517 26.3299
632 1 -1.1104 9.27598 2.55018 26.2703
633 2 2.2208 7.90586 -1.55471 22.0835
634 2 2.2208 8.03924 4.06605 21.9474
635 1 -1.1104 9.35148 -0.169579 23.4279
636 1 -1.1104 9.44928 -0.0462312 26.3084
9450 2 2.2208 13.6671 4.01001 22.0042
638 1 -1.1104 9.19615 19.4027 23.5346
472 1 -1.1104 0.934372 11.222 20.7373
414 2 2.2208 5.21938 -4.38511 16.3012
470 1 -1.1104 0.919115 5.50189 20.5385
648 2 2.2208 5.18042 6.77528 22.0409
649 2 2.2208 5.16479 12.3977 22.1948
650 1 -1.1104 0.820911 8.17742 23.3928
652 1 -1.1104 1.01853 8.32991 26.2719
654 1 -1.1104 0.911561 5.38139 23.3933
655 1 -1.1104 0.938328 10.9706 23.5145
658 2 2.2208 5.04805 9.67224 24.8452
659 1 -1.1104 0.957251 5.54874 26.1208
660 1 -1.1104 0.828228 11.1513 26.2744
663 1 -1.1104 3.64531 8.27743 23.4155
664 2 2.2208 2.34713 6.8294 24.7566
665 2 2.2208 2.29959 12.3422 24.9243
666 1 -1.1104 3.78979 8.22901 26.1596
667 2 2.2208 2.32381 9.64674 21.9946
668 1 -1.1104 3.76299 5.47316 23.3772
669 1 -1.1104 3.71772 11.0425 23.5994
670 1 -1.1104 3.67796 5.34262 26.1098
671 1 -1.1104 3.72833 11.0455 26.2811
653 1 -1.1104 6.55632 8.11457 26.235
656 1 -1.1104 6.65824 5.51379 23.2901
651 1 -1.1104 6.37446 8.14229 23.4729
662 1 -1.1104 6.35737 11.0215 26.203
661 1 -1.1104 6.57253 5.47987 26.3021
657 1 -1.1104 6.57869 11.0091 23.4627
618 2 2.2208 -0.452203 4.10239 24.9356
417 2 2.2208 -0.465014 -1.66441 19.2193
513 1 -1.1104 9.46712 5.43691 20.6021
702 2 2.2208 13.5949 6.92418 24.8699
700 2 2.2208 13.6646 12.517 24.9223
679 1 -1.1104 9.37762 11.0014 26.2104
680 1 -1.1104 9.49811 5.39709 26.2208
681 1 -1.1104 9.38668 10.9774 23.3921
682 1 -1.1104 9.37595 5.38369 23.4115
683 2 2.2208 7.97381 9.62442 22.2156
684 1 -1.1104 9.2729 8.15096 26.2448
685 2 2.2208 7.95623 12.5046 24.8178
686 2 2.2208 7.83882 6.77761 24.8063
687 2 2.2208 10.8418 6.80421 21.9833
688 2 2.2208 10.7909 12.4575 21.9958
689 1 -1.1104 12.118 8.31695 23.404
690 1 -1.1104 12.1936 8.36025 26.1766
691 1 -1.1104 12.3341 5.49155 23.4711
692 1 -1.1104 12.0883 11.245 23.511
693 2 2.2208 10.8455 9.66221 24.8547
694 1 -1.1104 12.2983 5.61592 26.3462
695 1 -1.1104 12.0935 11.1067 26.2938
696 1 -1.1104 9.32882 8.15539 23.5351
9509 2 2.2208 13.6014 9.62104 22.0091
364 2 2.2208 7.98652 3.9881 27.6407
582 2 2.2208 13.5462 15.2532 22.1046
615 1 -1.1104 12.285 16.6741 26.197
581 1 -1.1104 12.0119 19.463 26.2363
537 1 -1.1104 0.995706 16.6717 20.9345
527 1 -1.1104 0.900001 19.4186 20.7916
701 2 2.2208 2.3209 15.2335 22.1683
703 1 -1.1104 3.75206 19.4575 23.5576
705 1 -1.1104 3.63685 13.8186 23.476
707 1 -1.1104 1.00788 19.5513 26.3513
708 1 -1.1104 0.87964 16.8534 26.4624
709 1 -1.1104 0.808371 13.9272 26.3466
711 2 2.2208 5.10227 20.774 25.0118
712 2 2.2208 5.11099 15.1418 24.971
714 1 -1.1104 0.916976 19.4006 23.6138
715 1 -1.1104 0.8737 13.7918 23.5278
716 2 2.2208 5.15857 17.9723 22.0315
717 1 -1.1104 3.8041 19.3941 26.3309
718 2 2.2208 2.44377 18.0716 24.9229
719 1 -1.1104 3.7505 16.542 26.2642
720 1 -1.1104 3.56712 13.9011 26.4279
722 1 -1.1104 1.00821 16.5605 23.7077
723 1 -1.1104 3.81383 16.7203 23.5981
724 2 2.2208 2.34335 20.762 22.23
721 1 -1.1104 6.6243 16.5893 23.559
713 1 -1.1104 6.61845 13.724 23.4393
706 1 -1.1104 6.51741 16.5608 26.3007
704 1 -1.1104 6.4673 13.7985 26.2235
644 1 -1.1104 6.57776 19.4331 26.3738
710 1 -1.1104 6.45795 19.331 23.6438
678 1 -1.1104 9.44887 16.6644 26.2986
552 2 2.2208 13.4308 20.8624 22.1295
675 1 -1.1104 9.24686 16.5564 23.6497
609 2 2.2208 10.5831 20.8169 24.9938
579 1 -1.1104 11.9945 19.3877 23.4072
637 1 -1.1104 9.25294 13.7278 23.4236
647 1 -1.1104 9.26556 13.801 26.1294
672 1 -1.1104 9.24276 19.4413 26.3149
573 1 -1.1104 9.38478 19.5062 20.6394
566 1 -1.1104 12.1033 16.769 20.7195
359 2 2.2208 2.39475 -1.53819 27.8027
339 2 2.2208 5.30466 9.61698 13.4664
350 2 2.2208 4.94317 20.8735 13.7126
353 2 2.2208 7.91859 20.9204 27.8428
362 2 2.2208 10.7604 1.34065 27.6808
334 2 2.2208 5.01211 4.00856 13.5935
348 2 2.2208 13.597 15.3045 27.6808
363 2 2.2208 7.8858 -1.49211 27.6976
368 2 2.2208 2.45391 9.64473 27.5841
373 2 2.2208 7.94182 9.59591 27.5812
343 2 2.2208 8.07883 6.90205 13.6207
372 2 2.2208 10.7475 6.86348 27.6203
9177 2 2.2208 13.5687 18.075 13.6536
356 2 2.2208 10.8324 15.3017 13.8127
332 2 2.2208 5.24758 -1.44963 13.4767
9188 2 2.2208 13.6472 12.47 13.746
335 2 2.2208 8.04437 1.20764 13.5857
349 2 2.2208 13.4414 20.8981 27.6361
369 2 2.2208 5.04701 12.4458 27.6935
367 2 2.2208 5.1763 6.94914 27.709
725 2 2.2208 5.09287 23.6218 5.3569
726 2 2.2208 5.09025 29.3674 5.32355
727 1 -1.1104 1.01824 25.1389 1.10334
728 1 -1.1104 0.768542 25.0064 3.90133
729 1 -1.1104 0.781766 22.3274 1.02234
730 1 -1.1104 0.929508 27.7487 1.18129
731 2 2.2208 5.08182 26.4132 2.55821
732 1 -1.1104 0.952287 22.2062 3.80737
733 1 -1.1104 1.09911 27.942 3.93904
734 1 -1.1104 3.79444 25.0843 1.15682
735 2 2.2208 2.29874 23.5677 2.58639
736 2 2.2208 2.34314 29.1666 2.59341
737 1 -1.1104 3.56579 25.1192 3.85722
738 2 2.2208 2.37742 26.4065 5.32491
739 1 -1.1104 3.69917 22.2035 1.08862
740 1 -1.1104 3.87402 27.8365 1.04905
741 1 -1.1104 3.74723 22.2438 3.958
742 1 -1.1104 3.74987 27.9251 3.93261
748 1 -1.1104 6.44467 22.289 1.07935
751 1 -1.1104 6.55414 27.9432 3.93066
746 1 -1.1104 6.46792 25.0461 1.08596
749 1 -1.1104 6.43584 27.7825 1.03215
747 1 -1.1104 6.43697 25.0752 3.94955
750 1 -1.1104 6.42287 22.2915 3.86058
1049 1 -1.1104 9.04845 47.3169 6.5805
771 2 2.2208 13.5341 29.3219 2.54435
1618 1 -1.1104 6.30627 47.5881 6.59713
752 2 2.2208 10.7996 23.6796 5.453
753 2 2.2208 10.6582 29.2438 5.27497
754 1 -1.1104 12.1603 25.0643 1.0753
755 1 -1.1104 12.1359 25.0124 3.9298
756 1 -1.1104 12.2108 22.3248 1.03305
757 1 -1.1104 12.1944 27.8004 1.19292
758 2 2.2208 10.727 26.5033 2.61517
759 1 -1.1104 12.0954 22.4039 3.93111
760 1 -1.1104 12.0261 27.753 3.98713
761 1 -1.1104 9.27408 25.0562 1.12637
762 2 2.2208 7.9861 23.7468 2.4886
763 2 2.2208 7.93991 29.2281 2.52654
764 1 -1.1104 9.33457 25.1498 3.82246
765 2 2.2208 7.80715 26.5293 5.36073
766 1 -1.1104 9.32441 22.2255 1.11905
767 1 -1.1104 9.44289 27.8465 1.16153
768 1 -1.1104 9.27608 22.2917 3.90756
769 1 -1.1104 9.28123 27.989 3.89558
772 2 2.2208 13.6185 26.4632 5.23317
1093 2 2.2208 2.30808 43.1862 -0.211668
1476 1 -1.1104 9.36073 47.4876 1.06492
899 1 -1.1104 12.3611 25.0203 6.75462
1068 2 2.2208 7.88215 43.3262 -0.485873
902 1 -1.1104 9.36923 24.9717 6.69388
1094 2 2.2208 13.5617 32.0524 -0.262064
1082 2 2.2208 2.36261 37.6943 -0.285151
773 2 2.2208 5.29891 34.9415 5.27767
774 1 -1.1104 1.02532 30.5793 1.13648
775 1 -1.1104 1.1018 36.2297 0.997699
777 1 -1.1104 0.833745 30.6937 3.95503
778 1 -1.1104 1.10242 36.373 3.75723
780 1 -1.1104 0.941185 33.3846 1.07634
781 2 2.2208 5.1688 32.0863 2.56307
782 2 2.2208 5.29477 37.6251 2.39095
783 1 -1.1104 0.961934 33.4588 3.88055
785 1 -1.1104 3.80328 30.7203 1.17315
786 1 -1.1104 3.95567 36.1539 1.08141
787 2 2.2208 2.38376 34.8627 2.52195
788 1 -1.1104 3.76028 30.6884 3.96881
789 1 -1.1104 3.87519 36.3831 3.8851
790 2 2.2208 2.33293 32.0955 5.36089
791 2 2.2208 2.40291 37.743 5.35791
792 1 -1.1104 3.76581 33.5521 1.0194
793 1 -1.1104 3.78461 33.5239 3.8701
779 1 -1.1104 6.69682 36.3759 3.73872
784 1 -1.1104 6.62077 33.5418 3.80377
797 1 -1.1104 6.61136 30.5943 1.15242
799 1 -1.1104 6.63397 33.3856 1.10035
776 1 -1.1104 6.65974 36.1604 0.963747
798 1 -1.1104 6.52223 30.6848 4.03114
926 1 -1.1104 6.56073 36.2743 6.69161
925 1 -1.1104 6.46786 30.6814 6.73951
929 1 -1.1104 3.77068 30.7809 6.74941
930 1 -1.1104 3.7277 36.2842 6.61212
1084 2 2.2208 5.20858 34.8961 -0.421393
1087 2 2.2208 7.97922 37.6407 -0.490604
1041 2 2.2208 13.5863 32.0365 5.38631
800 2 2.2208 10.7476 34.8406 5.36371
801 1 -1.1104 12.1941 30.7332 1.08519
802 1 -1.1104 12.2804 36.3191 0.918634
803 1 -1.1104 12.0073 30.7549 3.98921
804 1 -1.1104 12.1614 36.2127 3.94587
805 1 -1.1104 12.2151 33.5908 1.08874
806 2 2.2208 10.7731 32.114 2.34109
807 2 2.2208 10.8787 37.7008 2.41338
808 1 -1.1104 12.1224 33.3447 3.87855
809 1 -1.1104 9.43464 30.7344 0.989066
810 1 -1.1104 9.47771 36.1794 0.929894
811 2 2.2208 8.03283 34.8755 2.42301
812 1 -1.1104 9.40667 30.7158 3.80443
813 1 -1.1104 9.39077 36.3363 3.88646
814 2 2.2208 8.05941 32.1505 5.26084
815 2 2.2208 8.04084 37.7383 5.10138
816 1 -1.1104 9.32117 33.3425 0.978276
817 1 -1.1104 9.42017 33.4773 3.83396
818 2 2.2208 13.581 34.8258 2.54809
1040 2 2.2208 13.6904 37.7616 5.31494
959 1 -1.1104 12.1842 33.4144 6.82491
1092 2 2.2208 5.14039 40.527 -0.402061
958 1 -1.1104 12.3252 36.2434 6.68316
961 1 -1.1104 9.46434 36.271 6.59954