ITEM: TIMESTEP
100000
ITEM: NUMBER OF ATOMS
17700
ITEM: BOX BOUNDS pp pp pp
-3.6005407319178512e-01 2.7700054073190667e+01
-4.2833656987825091e+00 3.3236336569879410e+02
-3.5184766478804791e-01 2.7691847664787744e+01
ITEM: ATOMS id type q x y z
1 2 2.2208 5.56449 1.23879 5.2073
2 1 -1.1104 1.55715 -2.88267 0.893143
3 1 -1.1104 1.22888 2.67417 1.03331
6 1 -1.1104 1.26422 -2.7648 3.63462
7 1 -1.1104 1.31114 2.61062 3.80761
10 1 -1.1104 1.39842 -0.0479277 0.941836
12 2 2.2208 5.49669 -1.52751 2.4886
14 1 -1.1104 1.34174 0.000857259 3.5972
16 1 -1.1104 4.26026 -2.84576 0.933038
17 1 -1.1104 4.03499 2.616 0.828294
18 2 2.2208 2.81026 1.40545 2.28686
19 1 -1.1104 4.07039 -2.98248 3.73408
20 1 -1.1104 4.12789 2.64763 3.80089
21 2 2.2208 2.6779 -1.40613 5.23598
23 1 -1.1104 4.14334 0.0287234 1.02725
24 1 -1.1104 4.18593 -0.150066 3.85295
22 2 2.2208 2.77715 4.10751 5.13913
13 2 2.2208 5.42624 4.12735 2.4383
173 1 -1.1104 4.11728 2.6725 6.48125
166 1 -1.1104 1.19122 -2.81068 6.52921
25 2 2.2208 0.0600678 -1.4268 2.38419
26 2 2.2208 -0.135334 1.31445 5.01565
27 2 2.2208 -0.0546441 4.24426 2.2747
170 1 -1.1104 1.18636 -0.0242211 6.40744
174 1 -1.1104 3.94329 -0.0905201 6.66131
28 2 2.2208 2.63531 -4.20435 2.32717
172 1 -1.1104 4.08338 -2.77145 6.5454
323 1 -1.1104 12.7496 16.9273 9.42756
316 2 2.2208 8.39135 20.98 10.6868
8 1 -1.1104 6.6807 -3.00182 3.83736
9 1 -1.1104 6.95437 2.79021 3.82138
5 1 -1.1104 6.98914 2.65517 0.913814
11 1 -1.1104 6.95261 -0.0764262 1.1654
4 1 -1.1104 6.92705 -2.83915 0.894872
15 1 -1.1104 6.92239 -0.162875 3.91726
31 2 2.2208 11.0576 1.28557 5.27749
32 1 -1.1104 12.508 -2.84284 1.04442
33 1 -1.1104 12.585 2.73512 0.965101
34 1 -1.1104 12.2338 -2.99022 3.88199
35 1 -1.1104 12.4334 2.56178 3.75891
36 1 -1.1104 12.6165 -0.0188451 1.06501
37 2 2.2208 11.0235 -1.48053 2.47972
39 1 -1.1104 12.5155 -0.314525 3.76371
40 1 -1.1104 9.5823 -2.8718 1.07761
41 1 -1.1104 9.74249 2.79381 1.03739
42 2 2.2208 8.37119 1.33589 2.47296
43 1 -1.1104 9.52625 -2.81553 3.823
44 1 -1.1104 9.58489 2.82563 3.8631
45 2 2.2208 8.32563 -1.43341 5.21577
46 2 2.2208 8.31201 4.03042 5.31577
47 1 -1.1104 9.74374 0.0476246 1.13253
48 1 -1.1104 9.70466 -0.023816 4.00494
38 2 2.2208 11.0943 4.14487 2.49212
210 1 -1.1104 9.76914 -0.0696512 6.69301
209 1 -1.1104 9.73038 2.56482 6.59569
205 1 -1.1104 12.5485 -2.92951 6.68691
168 1 -1.1104 7.05366 -2.98268 6.58469
207 1 -1.1104 12.6659 -0.171658 6.64258
206 1 -1.1104 12.593 2.59122 6.59064
171 1 -1.1104 6.79951 -0.12447 6.70894
332 2 2.2208 5.44813 -1.44689 13.6027
9170 2 2.2208 -0.269675 12.4032 5.23926
54 2 2.2208 5.59288 6.87505 5.16795
55 2 2.2208 5.56219 12.408 5.03103
56 1 -1.1104 1.35086 8.41963 0.848337
58 1 -1.1104 1.26588 8.26967 3.66617
60 1 -1.1104 1.30693 5.4906 1.14541
61 1 -1.1104 1.26042 11.156 0.849033
66 2 2.2208 5.45334 9.71615 2.37648
67 1 -1.1104 1.29904 5.53454 3.83546
68 1 -1.1104 1.27337 11.0135 3.65552
71 1 -1.1104 4.17158 8.36267 0.813924
72 2 2.2208 2.62006 6.95681 2.3049
73 2 2.2208 2.60149 12.5185 2.36858
74 1 -1.1104 4.04729 8.33539 3.6155
75 2 2.2208 2.72153 9.75594 5.11193
76 1 -1.1104 4.10842 5.50619 0.78238
77 1 -1.1104 4.12526 11.0853 0.892935
79 1 -1.1104 4.02895 5.53682 3.69725
80 1 -1.1104 4.09985 11.1189 3.78366
62 1 -1.1104 1.13809 11.0676 6.61157
78 1 -1.1104 4.16834 11.0931 6.59878
81 2 2.2208 -0.171769 7.01919 5.19702
82 2 2.2208 -0.103118 9.75188 2.34433
234 1 -1.1104 1.16517 8.33996 6.58874
238 1 -1.1104 4.06086 8.31609 6.4581
236 1 -1.1104 1.36052 5.65932 6.51839
239 1 -1.1104 4.31933 5.40525 6.55378
342 2 2.2208 -0.155416 4.12412 13.5996
289 1 -1.1104 6.99024 16.7023 9.28323
312 1 -1.1104 12.6539 16.5579 12.1377
320 2 2.2208 8.34876 18.2597 7.88891
59 1 -1.1104 6.93639 8.3 3.80762
64 1 -1.1104 6.82735 11.1391 1.10521
57 1 -1.1104 6.91885 8.32944 0.96891
63 1 -1.1104 6.90861 5.55586 0.871675
69 1 -1.1104 6.85466 5.69724 3.67356
70 1 -1.1104 6.85401 11.1721 3.73428
84 2 2.2208 11.0917 6.90149 5.15369
85 2 2.2208 11.1915 12.6627 5.24482
86 1 -1.1104 12.5271 8.42226 0.989251
87 1 -1.1104 12.4246 8.2978 3.85966
88 1 -1.1104 12.4769 5.5921 0.975868
89 1 -1.1104 12.5335 11.1625 0.935537
91 2 2.2208 11.2056 9.89876 2.36279
92 1 -1.1104 12.5766 5.40039 3.77897
93 1 -1.1104 12.5696 11.2348 3.84488
94 1 -1.1104 9.6824 8.26236 1.00466
95 2 2.2208 8.36437 7.02693 2.34856
96 2 2.2208 8.41963 12.5099 2.38334
97 1 -1.1104 9.71944 8.40235 3.78788
98 2 2.2208 8.45008 9.71376 5.12067
99 1 -1.1104 9.71346 5.54384 0.973256
100 1 -1.1104 9.67123 11.0815 1.10975
102 1 -1.1104 9.68212 5.62381 3.79661
103 1 -1.1104 9.84459 11.2282 3.76922
265 1 -1.1104 12.4017 8.25007 6.65431
65 1 -1.1104 6.87591 10.9977 6.69001
267 1 -1.1104 9.72193 8.20468 6.56876
237 1 -1.1104 7.01465 5.39737 6.58496
101 1 -1.1104 9.68447 11.0108 6.63004
269 1 -1.1104 9.65837 5.37997 6.59362
229 1 -1.1104 12.5484 14.0308 9.37707
313 2 2.2208 11.1158 15.4388 7.90347
136 2 2.2208 0.0285981 20.8766 2.35052
137 2 2.2208 0.0633303 18.0149 5.1993
135 2 2.2208 -0.0135086 15.2975 2.3483
106 2 2.2208 5.58438 18.153 5.03274
107 1 -1.1104 1.34568 13.8268 1.12422
109 1 -1.1104 1.38025 19.3686 0.827761
113 1 -1.1104 1.23373 13.9387 3.87116
114 1 -1.1104 1.36114 19.5162 3.71942
116 1 -1.1104 1.24515 16.6619 0.962929
119 2 2.2208 5.49113 15.3459 2.25671
120 2 2.2208 5.45771 21.0007 2.27727
121 1 -1.1104 1.43961 16.7219 3.64142
123 1 -1.1104 4.07272 13.9364 1.04368
125 1 -1.1104 4.16238 19.5114 0.734421
127 2 2.2208 2.75158 18.1316 2.21603
128 1 -1.1104 4.02785 13.8754 3.70762
129 1 -1.1104 4.20038 19.441 3.73877
130 2 2.2208 2.69009 15.1526 5.23917
131 2 2.2208 2.73088 20.9761 5.2673
132 1 -1.1104 4.05703 16.7246 0.894089
134 1 -1.1104 4.19404 16.7499 3.74469
302 1 -1.1104 1.46263 19.5717 6.56671
117 1 -1.1104 1.30297 16.7464 6.53502
133 1 -1.1104 4.17865 16.6641 6.54953
126 1 -1.1104 4.18431 19.409 6.56698
124 1 -1.1104 4.13857 13.7874 6.4591
140 1 -1.1104 6.81207 16.7342 0.954736
138 1 -1.1104 6.83737 19.5402 1.02643
115 1 -1.1104 6.85566 13.9125 3.76451
122 1 -1.1104 6.98521 16.6644 3.6996
139 1 -1.1104 6.96355 19.4912 3.82836
110 1 -1.1104 7.05577 13.9634 1.0781
141 2 2.2208 11.1153 18.0653 5.16105
142 1 -1.1104 12.6438 13.8181 1.03145
144 1 -1.1104 12.6092 19.5738 0.933152
146 1 -1.1104 12.6404 14.0732 3.87306
147 1 -1.1104 12.4909 19.3616 3.78177
148 1 -1.1104 12.5721 16.596 0.868185
150 2 2.2208 11.0844 15.2948 2.47162
151 2 2.2208 11.1896 20.9496 2.30144
152 1 -1.1104 12.5846 16.788 3.84659
153 1 -1.1104 9.86 13.9052 1.09945
155 1 -1.1104 9.8086 19.5377 0.895349
157 2 2.2208 8.31488 18.1183 2.29568
158 1 -1.1104 9.62877 13.9151 3.8596
159 1 -1.1104 9.63451 19.5694 3.57998
160 2 2.2208 8.1479 15.3598 5.12331
161 2 2.2208 8.37369 20.9543 5.12939
162 1 -1.1104 9.63621 16.8091 0.925635
164 1 -1.1104 9.68535 16.8164 3.73839
163 1 -1.1104 9.7624 16.7793 6.51451
149 1 -1.1104 12.5674 16.8667 6.61954
145 1 -1.1104 12.6013 19.4871 6.54023
118 1 -1.1104 6.93358 16.7909 6.38951
111 1 -1.1104 6.91663 13.8604 6.64135
156 1 -1.1104 9.88476 19.5008 6.5035
154 1 -1.1104 9.79023 13.9799 6.64864
143 1 -1.1104 12.6246 14.0274 6.54405
112 1 -1.1104 7.02351 19.6744 6.56676
167 1 -1.1104 1.33179 2.80292 6.60392
199 1 -1.1104 12.5987 19.5012 12.1928
200 2 2.2208 -0.158371 -1.48558 7.99642
175 2 2.2208 5.46969 1.29252 10.8037
176 1 -1.1104 1.30694 -2.99965 12.1817
177 1 -1.1104 1.1802 2.55692 12.1201
180 1 -1.1104 1.21662 -2.97716 9.3034
181 1 -1.1104 1.33938 2.76169 9.37522
184 1 -1.1104 1.30004 -0.214484 12.1527
186 2 2.2208 5.47276 -1.53464 8.05939
188 1 -1.1104 1.33854 -0.0149522 9.32868
190 1 -1.1104 4.09753 -2.97068 12.1292
191 1 -1.1104 4.0789 2.69649 12.2068
192 2 2.2208 2.65137 1.30792 7.98168
193 1 -1.1104 4.02168 -2.92838 9.3748
194 1 -1.1104 4.16258 2.61778 9.33889
195 2 2.2208 2.62882 -1.56904 10.7255
196 2 2.2208 2.6588 4.07035 10.7616
197 1 -1.1104 4.07579 -0.106539 12.2176
198 1 -1.1104 4.05769 -0.169444 9.40234
187 2 2.2208 5.67075 3.9415 7.99543
9171 2 2.2208 -0.0442843 4.20317 7.9651
201 2 2.2208 -0.207887 1.29471 10.7568
333 2 2.2208 2.62519 1.29623 13.5824
296 1 -1.1104 6.97187 19.4545 12.1092
9201 2 2.2208 -0.0410989 15.263 13.6293
419 2 2.2208 2.7523 -4.24635 13.5899
334 2 2.2208 5.43218 4.13402 13.676
30 2 2.2208 -0.153126 -4.15961 5.1267
317 2 2.2208 8.33519 15.3478 10.815
208 1 -1.1104 9.65741 -2.95916 6.71794
83 1 -1.1104 12.4565 13.7689 12.1718
322 1 -1.1104 9.60834 14.0925 12.345
169 1 -1.1104 7.03052 2.49116 6.53521
185 1 -1.1104 6.83011 -0.252216 12.3297
178 1 -1.1104 7.00579 -2.88985 12.2104
183 1 -1.1104 6.98895 2.68729 9.42657
189 1 -1.1104 6.79959 -0.125685 9.43045
182 1 -1.1104 6.83581 -2.89433 9.39874
179 1 -1.1104 6.81699 2.71464 12.3148
211 2 2.2208 10.99 1.23125 10.6948
212 1 -1.1104 12.4199 -3.00015 12.3036
213 1 -1.1104 12.4262 2.71407 12.161
214 1 -1.1104 12.3582 -2.89769 9.37311
215 1 -1.1104 12.3732 2.6534 9.3243
216 1 -1.1104 12.463 -0.0837292 12.0624
217 2 2.2208 11.0132 -1.51676 7.84876
218 2 2.2208 11.0568 4.11008 7.9356
219 1 -1.1104 12.1882 -0.0804723 9.273
220 1 -1.1104 9.6919 -2.90034 12.335
221 1 -1.1104 9.59099 2.80117 12.0155
222 2 2.2208 8.24849 1.23517 8.0825
223 1 -1.1104 9.54494 -2.92117 9.55169
224 1 -1.1104 9.66999 2.64229 9.33427
225 2 2.2208 8.1922 -1.55055 10.7849
226 2 2.2208 8.20323 4.06445 10.7831
227 1 -1.1104 9.62892 -0.140146 12.3257
228 1 -1.1104 9.53692 -0.164396 9.39875
331 2 2.2208 -0.214316 -1.56412 13.464
288 1 -1.1104 6.82477 19.5656 9.27555
315 1 -1.1104 9.84088 16.8311 12.2484
336 2 2.2208 10.9729 -1.51733 13.5521
9103 2 2.2208 -0.210472 9.79149 8.00756
9104 2 2.2208 -0.0451274 6.98456 10.8148
240 2 2.2208 5.49459 6.78211 10.6223
241 2 2.2208 5.52988 12.4576 10.8552
242 1 -1.1104 1.34892 8.3631 12.1794
244 1 -1.1104 1.35334 8.37174 9.23156
246 1 -1.1104 1.18075 5.50969 12.1294
247 1 -1.1104 1.24737 11.1177 12.2937
250 2 2.2208 5.4924 9.67031 8.04615
251 1 -1.1104 1.36209 5.62355 9.35081
252 1 -1.1104 1.29749 11.146 9.41268
255 1 -1.1104 3.99662 8.12294 12.086
256 2 2.2208 2.57962 6.90619 7.92156
257 2 2.2208 2.70441 12.4352 8.01725
258 1 -1.1104 4.14766 8.28318 9.40031
259 2 2.2208 2.67001 9.71294 10.838
260 1 -1.1104 4.13331 5.33312 12.1702
261 1 -1.1104 4.02657 11.0566 12.2136
262 1 -1.1104 4.10209 5.43977 9.23366
263 1 -1.1104 4.09261 10.9974 9.34258
9096 2 2.2208 -0.066005 12.5873 10.8129
338 2 2.2208 2.71392 6.88602 13.5688
343 2 2.2208 8.41095 6.88468 13.5647
235 1 -1.1104 6.90304 8.36118 6.5677
90 1 -1.1104 12.464 11.1844 6.72376
266 1 -1.1104 12.5497 5.44581 6.537
253 1 -1.1104 6.97758 5.52478 9.35526
249 1 -1.1104 6.81367 11.2804 12.261
245 1 -1.1104 6.95375 8.30059 9.44847
254 1 -1.1104 6.80956 11.0189 9.49092
243 1 -1.1104 6.87554 8.21573 12.1329
248 1 -1.1104 6.93134 5.47319 12.1784
264 1 -1.1104 9.612 11.1223 9.36017
268 1 -1.1104 9.71074 5.33396 9.4187
270 1 -1.1104 9.79227 11.1923 12.2753
271 1 -1.1104 9.84417 5.52883 12.2316
272 2 2.2208 8.27723 9.68819 10.9222
273 1 -1.1104 9.84637 8.23221 9.38883
274 2 2.2208 8.29386 12.5666 7.94729
275 2 2.2208 8.20429 7.00485 7.95179
276 2 2.2208 11.1326 6.93581 10.8843
277 2 2.2208 11.147 12.471 10.8541
278 1 -1.1104 12.4843 8.26876 12.3053
279 1 -1.1104 12.5574 8.47345 9.46331
280 1 -1.1104 12.5008 5.59855 12.2325
281 1 -1.1104 12.6754 11.0073 12.173
282 2 2.2208 11.1257 9.76971 8.03773
283 1 -1.1104 12.5934 5.60312 9.40721
284 1 -1.1104 12.3955 11.2113 9.43585
285 1 -1.1104 9.69703 8.43164 12.176
340 2 2.2208 2.74285 12.6182 13.5789
450 2 2.2208 8.22294 -4.18758 13.596
108 1 -1.1104 1.33789 13.7394 6.66473
356 2 2.2208 11.1346 15.4287 13.5434
9173 2 2.2208 -0.211612 20.8918 7.96082
9175 2 2.2208 -0.0373417 15.3299 7.96856
295 2 2.2208 5.57083 15.2289 7.95828
294 1 -1.1104 1.29716 13.9373 9.46874
293 2 2.2208 5.52584 20.9082 8.02648
301 1 -1.1104 3.94388 19.6161 9.3242
299 1 -1.1104 1.30878 13.947 12.2391
310 2 2.2208 2.73635 15.2954 10.7447
309 2 2.2208 2.76225 21.035 10.8158
300 2 2.2208 5.53168 18.1598 10.8561
292 1 -1.1104 1.40265 16.7665 9.3514
287 1 -1.1104 4.09671 14.0249 12.3345
291 1 -1.1104 1.18228 19.6392 9.44661
308 1 -1.1104 4.04715 16.6701 12.1654
298 1 -1.1104 1.31952 19.4716 12.1444
307 1 -1.1104 1.16266 16.7928 12.0707
305 1 -1.1104 4.23565 13.8669 9.34029
304 1 -1.1104 4.16891 16.7134 9.37612
303 2 2.2208 2.84104 18.1513 7.92855
286 1 -1.1104 4.09865 19.6303 12.2409
9174 2 2.2208 0.00950684 18.1362 10.6702
346 2 2.2208 8.35564 12.5701 13.6381
350 2 2.2208 5.56535 20.8859 13.6291
319 1 -1.1104 9.72936 13.9046 9.48902
324 2 2.2208 11.1347 21.0319 7.9509
50 2 2.2208 11.1592 18.1563 10.7608
311 1 -1.1104 12.5479 19.5836 9.45693
314 1 -1.1104 9.85951 16.8023 9.35945
321 1 -1.1104 9.74681 19.6032 12.0521
318 1 -1.1104 9.65289 19.6112 9.27865
297 1 -1.1104 6.86433 13.9933 12.1019
290 1 -1.1104 6.83899 13.8427 9.36711
306 1 -1.1104 7.06606 16.8568 12.0994
337 2 2.2208 11.1628 4.12786 13.6002
354 2 2.2208 5.47104 15.4096 13.5731
9193 2 2.2208 -0.0700292 9.77733 13.5654
357 2 2.2208 8.34214 18.0657 13.4997
355 2 2.2208 11.1742 20.8932 13.4859
9202 2 2.2208 -0.0596523 20.7831 13.5989
373 2 2.2208 8.40447 9.80116 -0.3269
339 2 2.2208 5.50433 9.68661 13.4962
351 2 2.2208 8.29004 15.2576 -0.317278
380 2 2.2208 5.31443 1.35271 16.4024
381 1 -1.1104 1.29699 -2.87082 17.8838
382 1 -1.1104 1.34276 2.64381 17.6934
385 1 -1.1104 1.34287 -2.95571 14.9299
387 1 -1.1104 1.15963 2.84535 14.8222
393 1 -1.1104 1.22051 -0.133491 17.6875
395 2 2.2208 5.45645 -1.49533 19.1409
396 2 2.2208 5.40072 4.12809 19.138
397 1 -1.1104 1.30332 -0.00863307 14.9922
401 1 -1.1104 4.12627 -2.97182 17.7971
402 1 -1.1104 4.054 2.74188 17.8178
403 2 2.2208 2.59672 1.20112 19.0974
404 1 -1.1104 4.01099 -2.93412 15.119
406 1 -1.1104 3.89378 2.64344 15.0397
408 2 2.2208 2.58514 -1.67574 16.3528
410 1 -1.1104 3.92901 -0.133963 17.6942
411 1 -1.1104 4.13138 -0.134945 14.992
409 2 2.2208 2.68199 4.21723 16.3393
491 2 2.2208 -0.183547 4.1038 19.0619
417 2 2.2208 -0.163878 -1.53209 19.3304
416 2 2.2208 -0.176368 1.34146 16.388
412 1 -1.1104 4.12467 -0.121926 20.6337
388 1 -1.1104 1.26304 2.51902 20.439
398 1 -1.1104 1.27235 -0.203895 20.5565
405 1 -1.1104 3.99291 -2.80893 20.7074
371 2 2.2208 -0.0557879 6.94599 27.6514
361 2 2.2208 -0.134013 1.35635 27.5832
386 1 -1.1104 1.18699 -2.93444 20.6486
369 2 2.2208 5.48821 12.5448 27.6862
399 1 -1.1104 6.86887 -0.0748883 15.1312
383 1 -1.1104 6.78571 -3.01929 17.6651
384 1 -1.1104 6.79055 2.64975 17.7334
391 1 -1.1104 6.92966 2.83213 14.9869
394 1 -1.1104 6.93431 -0.266824 17.9762
389 1 -1.1104 6.72344 -2.83535 15.037
423 2 2.2208 11.1501 1.27617 16.3648
424 1 -1.1104 12.5963 -2.99887 17.7617
425 1 -1.1104 12.5642 2.64054 17.8188
426 1 -1.1104 12.3068 -2.9313 14.9873
428 1 -1.1104 12.5622 2.68381 15.1103
430 1 -1.1104 12.5121 -0.201344 17.8749
431 2 2.2208 11.1747 -1.53538 19.2294
433 1 -1.1104 12.5698 -0.188671 14.9723
435 1 -1.1104 9.80544 -2.85683 17.7595
436 1 -1.1104 9.58845 2.68712 17.8007
437 2 2.2208 8.2304 1.3134 19.2825
438 1 -1.1104 9.60511 -2.98963 15.0731
440 1 -1.1104 9.76071 2.63396 15.0327
442 2 2.2208 8.27327 -1.57094 16.4229
443 2 2.2208 8.27884 4.10681 16.3687
444 1 -1.1104 9.85739 -0.18929 17.793
445 1 -1.1104 9.60008 -0.192711 15.0476
432 2 2.2208 11.1189 4.12422 19.2278
392 1 -1.1104 6.7531 2.75569 20.4913
434 1 -1.1104 12.5473 -0.17682 20.7188
441 1 -1.1104 9.63464 2.74286 20.5588
439 1 -1.1104 9.63616 -2.70246 20.5447
427 1 -1.1104 12.5032 -2.96741 20.6653
446 1 -1.1104 9.75356 -0.0893277 20.5502
400 1 -1.1104 6.88977 -0.068751 20.7611
390 1 -1.1104 6.82448 -2.85017 20.5444
429 1 -1.1104 12.501 2.6826 20.4452
611 2 2.2208 -0.126482 -4.2765 22.2238
610 2 2.2208 -0.133837 -4.27621 27.5702
454 2 2.2208 -0.283804 9.7443 19.152
456 2 2.2208 5.6037 6.96561 16.3348
457 2 2.2208 5.58859 12.4685 16.3607
458 1 -1.1104 1.24759 8.34246 17.8166
460 1 -1.1104 1.48199 8.53195 14.9593
464 1 -1.1104 1.20847 5.48085 17.7586
465 1 -1.1104 1.21837 11.1378 17.7567
468 2 2.2208 5.37636 9.62969 19.1819
469 1 -1.1104 1.25037 5.69743 14.9053
471 1 -1.1104 1.45883 11.1458 14.8799
477 1 -1.1104 4.11217 8.2648 17.6422
478 2 2.2208 2.58492 6.95412 19.0915
479 2 2.2208 2.41826 12.442 19.2085
480 1 -1.1104 4.35487 8.22324 14.8865
482 2 2.2208 2.72855 9.78118 16.4641
483 1 -1.1104 3.94053 5.48093 17.7235
484 1 -1.1104 3.97075 11.0375 17.7974
485 1 -1.1104 4.17425 5.50052 14.8974
487 1 -1.1104 4.05584 11.0547 15.0095
481 1 -1.1104 4.04113 8.2535 20.6114
486 1 -1.1104 3.98991 5.56308 20.4643
461 1 -1.1104 1.12213 8.25285 20.5541
455 2 2.2208 -0.110768 12.4106 16.3541
472 1 -1.1104 1.16416 11.0207 20.5479
453 2 2.2208 -0.107638 6.97945 16.4185
488 1 -1.1104 3.97839 11.0214 20.5992
466 1 -1.1104 6.88373 5.54576 17.703
462 1 -1.1104 6.98899 8.38954 15.0366
473 1 -1.1104 6.97913 5.56628 14.8849
467 1 -1.1104 6.90154 11.0379 17.8086
459 1 -1.1104 6.96795 8.38927 17.7439
475 1 -1.1104 7.03541 11.2321 14.9578
492 2 2.2208 11.1269 6.86657 16.5363
493 2 2.2208 11.1523 12.5307 16.3429
494 1 -1.1104 12.466 8.45975 17.8162
495 1 -1.1104 12.5642 8.12476 15.008
497 1 -1.1104 12.4945 5.53504 17.8349
498 1 -1.1104 12.6181 11.2422 17.7645
499 2 2.2208 11.1965 9.8168 19.2797
500 1 -1.1104 12.5358 5.48789 15.1606
502 1 -1.1104 12.6141 11.0388 15.0076
504 1 -1.1104 9.81593 8.32414 17.7804
505 2 2.2208 8.27183 6.97151 19.0111
506 2 2.2208 8.20538 12.3727 19.1491
507 1 -1.1104 9.80928 8.14692 15.1035
509 2 2.2208 8.42743 9.66256 16.3417
510 1 -1.1104 9.6874 5.4866 17.6623
511 1 -1.1104 9.80053 11.1809 17.7616
512 1 -1.1104 9.6844 5.37127 14.9749
514 1 -1.1104 9.82498 11.1321 14.9432
515 1 -1.1104 9.76264 11.1058 20.4876
508 1 -1.1104 9.6857 8.35849 20.468
474 1 -1.1104 6.73673 5.60453 20.3799
476 1 -1.1104 6.85383 11.0322 20.5627
496 1 -1.1104 12.5822 8.31786 20.5911
372 2 2.2208 11.1771 6.96617 27.6439
421 2 2.2208 -0.0288978 20.9217 19.141
519 2 2.2208 5.48862 18.1464 16.3895
520 1 -1.1104 1.17448 13.7639 17.8139
521 1 -1.1104 1.36519 19.6122 17.8758
524 1 -1.1104 1.27616 13.8505 14.9326
526 1 -1.1104 1.31429 19.3687 14.9014
532 1 -1.1104 1.35585 16.7216 17.9114
534 2 2.2208 5.48972 15.1706 19.1285
535 2 2.2208 5.48943 20.9325 19.1875
536 1 -1.1104 1.37223 16.5873 14.9959
540 1 -1.1104 4.10157 13.7749 17.8341
541 1 -1.1104 3.97514 19.5531 17.6742
542 2 2.2208 2.66359 18.0516 19.1891
543 1 -1.1104 4.20059 13.9421 15.0461
545 1 -1.1104 4.12233 19.5393 14.9895
547 2 2.2208 2.81829 15.2365 16.393
548 2 2.2208 2.78653 21.0619 16.3832
549 1 -1.1104 4.14022 16.7936 17.7473
550 1 -1.1104 4.26409 16.8411 14.9446
546 1 -1.1104 4.1434 19.6206 20.4774
420 2 2.2208 -0.0893986 15.3351 19.1385
9430 2 2.2208 -0.118297 18.054 16.4361
537 1 -1.1104 1.31177 16.8219 20.6972
544 1 -1.1104 4.02704 13.7579 20.6229
551 1 -1.1104 4.14928 16.714 20.4991
527 1 -1.1104 1.41866 19.4928 20.6014
370 2 2.2208 -0.139179 12.6114 27.4312
375 2 2.2208 -0.189262 18.116 27.5885
523 1 -1.1104 6.75991 19.4021 17.8082
530 1 -1.1104 7.03922 19.4965 14.948
538 1 -1.1104 6.86806 16.7505 14.9113
533 1 -1.1104 6.76216 16.4947 17.6202
529 1 -1.1104 6.85838 13.8027 20.3603
522 1 -1.1104 6.84664 13.8094 17.7983
528 1 -1.1104 6.95833 13.9826 14.898
555 2 2.2208 11.0827 18.113 16.3604
556 1 -1.1104 12.4266 14.0057 17.8037
557 1 -1.1104 12.6264 19.6146 17.9193
558 1 -1.1104 12.6311 13.7417 14.9517
560 1 -1.1104 12.724 19.3332 15.006
562 1 -1.1104 12.5384 16.9544 17.6637
563 2 2.2208 11.088 15.3648 19.1507
564 2 2.2208 11.0775 20.9332 19.2454
565 1 -1.1104 12.6803 16.6335 14.9205
567 1 -1.1104 9.52566 13.898 17.7811
568 1 -1.1104 9.61363 19.457 17.7078
569 2 2.2208 8.20941 17.9759 19.0468
570 1 -1.1104 9.87505 13.9069 15.0711
572 1 -1.1104 9.84157 19.5663 14.8939
574 2 2.2208 8.19504 15.2914 16.3902
575 2 2.2208 8.34157 20.7792 16.3005
576 1 -1.1104 9.61841 16.6447 17.7758
577 1 -1.1104 9.77548 16.7514 15.0308
578 1 -1.1104 9.60472 16.7048 20.5672
573 1 -1.1104 9.57562 19.5283 20.5741
571 1 -1.1104 9.60563 13.8285 20.5577
561 1 -1.1104 12.5007 19.5439 20.5882
539 1 -1.1104 6.84363 16.607 20.5095
531 1 -1.1104 6.84962 19.5109 20.5138
559 1 -1.1104 12.3056 13.9985 20.61
638 1 -1.1104 9.66594 19.5628 23.4171
352 2 2.2208 11.113 18.135 27.5269
407 1 -1.1104 3.97502 2.58591 20.4664
618 2 2.2208 -0.117957 4.07863 24.8104
617 2 2.2208 -0.204781 1.26631 21.9501
616 2 2.2208 -0.122282 -1.46749 24.8271
583 2 2.2208 5.44154 1.30391 21.9113
584 1 -1.1104 1.28372 -2.87342 23.4686
585 1 -1.1104 1.32751 2.62958 23.4604
588 1 -1.1104 1.24222 -2.84381 26.2449
589 1 -1.1104 1.17444 2.67138 26.2034
592 1 -1.1104 1.16494 -0.0678031 23.4267
594 2 2.2208 5.50266 -1.51647 24.699
595 2 2.2208 5.43985 4.09637 24.721
596 1 -1.1104 1.4705 -0.174097 26.2359
598 1 -1.1104 4.08057 -2.93685 23.3683
599 1 -1.1104 4.16164 2.70869 23.274
600 2 2.2208 2.76383 1.32265 24.7137
601 1 -1.1104 4.09316 -2.91507 26.1274
602 1 -1.1104 4.0289 2.61767 26.1185
603 2 2.2208 2.65443 -1.51837 22.0665
605 1 -1.1104 4.05301 -0.181873 23.3508
606 1 -1.1104 4.30536 -0.157009 26.01
604 2 2.2208 2.78808 4.04067 21.845
674 2 2.2208 8.18427 20.9685 21.9477
673 2 2.2208 8.14901 15.2809 21.8449
359 2 2.2208 2.81187 -1.416 27.5433
358 2 2.2208 5.5651 1.34487 27.5941
360 2 2.2208 2.69594 4.04299 27.6796
379 2 2.2208 2.76637 20.9402 27.6658
643 2 2.2208 8.32995 -4.22796 24.8788
593 1 -1.1104 6.79255 0.0557336 23.4205
587 1 -1.1104 6.81065 2.69425 23.4984
590 1 -1.1104 6.85376 -2.82426 26.1974
586 1 -1.1104 6.85327 -2.87141 23.2815
597 1 -1.1104 7.01887 -0.142794 26.3436
591 1 -1.1104 6.8437 2.79329 26.1702
619 2 2.2208 11.07 1.41137 21.9576
620 1 -1.1104 12.5081 -2.73958 23.4561
621 1 -1.1104 12.3766 2.77284 23.381
622 1 -1.1104 12.4515 -2.8378 26.2998
623 1 -1.1104 12.6269 2.60169 26.1709
624 1 -1.1104 12.5396 -0.0225416 23.5104
625 2 2.2208 11.0799 -1.48814 24.7128
627 1 -1.1104 12.5083 -0.077289 26.3896
628 1 -1.1104 9.65697 -2.76338 23.3939
629 1 -1.1104 9.6308 2.76016 23.322
630 2 2.2208 8.28273 1.37412 24.6548
631 1 -1.1104 9.73914 -2.83833 26.2263
632 1 -1.1104 9.60168 2.68136 26.2456
633 2 2.2208 8.18965 -1.48737 22.0024
634 2 2.2208 8.15659 4.11773 22.0014
635 1 -1.1104 9.64846 0.0106256 23.4455
636 1 -1.1104 9.84687 0.000568105 26.3079
626 2 2.2208 11.0042 4.10873 24.845
353 2 2.2208 8.33002 20.9599 27.5824
362 2 2.2208 11.1621 1.33425 27.6743
364 2 2.2208 8.34401 4.05315 27.7632
470 1 -1.1104 1.11949 5.47358 20.4342
676 2 2.2208 -0.0189099 9.54846 24.803
648 2 2.2208 5.56427 7.0107 21.9857
649 2 2.2208 5.4883 12.3999 21.8994
650 1 -1.1104 1.28022 8.24522 23.4696
652 1 -1.1104 1.33749 8.25534 26.1761
654 1 -1.1104 1.33302 5.45075 23.443
655 1 -1.1104 1.24088 11.1468 23.4093
658 2 2.2208 5.57397 9.81351 24.9125
659 1 -1.1104 1.26617 5.55627 26.3578
660 1 -1.1104 1.27891 11.0385 26.0316
663 1 -1.1104 3.93555 8.36414 23.3648
664 2 2.2208 2.79355 6.87298 24.7508
665 2 2.2208 2.64221 12.5995 24.707
666 1 -1.1104 4.14341 8.29447 26.0645
667 2 2.2208 2.59793 9.59537 22.0151
668 1 -1.1104 4.29665 5.5943 23.2518
669 1 -1.1104 4.01378 11.2183 23.4108
670 1 -1.1104 3.97188 5.26936 26.0534
671 1 -1.1104 3.98854 11.117 26.2667
677 2 2.2208 -0.0231479 12.4115 21.974
418 2 2.2208 -0.267744 6.83148 21.942
647 1 -1.1104 9.68804 14.0102 26.2144
503 1 -1.1104 12.572 11.2527 20.4794
463 1 -1.1104 6.8493 8.50023 20.6274
513 1 -1.1104 9.51255 5.58845 20.5522
501 1 -1.1104 12.5234 5.52082 20.606
656 1 -1.1104 6.87995 5.36512 23.3916
661 1 -1.1104 6.74809 5.52543 26.1583
662 1 -1.1104 7.0232 11.127 26.2961
657 1 -1.1104 6.99634 11.0696 23.4008
653 1 -1.1104 6.99647 8.39657 26.3313
651 1 -1.1104 6.7927 8.35517 23.4663
679 1 -1.1104 9.71982 11.2293 26.2719
680 1 -1.1104 9.6862 5.57734 26.2913
681 1 -1.1104 9.82826 11.1885 23.3735
682 1 -1.1104 9.61684 5.56641 23.4496
683 2 2.2208 8.31689 9.77902 21.9842
684 1 -1.1104 9.73744 8.32537 26.2989
685 2 2.2208 8.22112 12.5659 24.7866
686 2 2.2208 8.10548 7.02914 24.8828
687 2 2.2208 11.0685 6.94497 22.0265
688 2 2.2208 11.024 12.6329 21.9746
689 1 -1.1104 12.4936 8.37358 23.4466
690 1 -1.1104 12.5405 8.38559 26.2798
691 1 -1.1104 12.5362 5.55839 23.5662
692 1 -1.1104 12.4928 11.161 23.2703
693 2 2.2208 11.128 9.83636 24.8904
694 1 -1.1104 12.4146 5.52892 26.302
695 1 -1.1104 12.5068 11.1516 26.1718
696 1 -1.1104 9.54496 8.26847 23.3182
367 2 2.2208 5.5562 6.96525 27.5943
525 1 -1.1104 1.36307 13.8254 20.5022
697 2 2.2208 -0.070897 18.12 22.089
698 2 2.2208 -0.0398273 21.0799 24.9377
699 2 2.2208 -0.0840546 15.388 24.743
701 2 2.2208 2.76356 15.453 21.9427
703 1 -1.1104 4.08167 19.3394 23.2801
705 1 -1.1104 4.1264 13.8656 23.4389
707 1 -1.1104 1.38948 19.589 26.2015
708 1 -1.1104 1.27838 16.7254 26.2237
709 1 -1.1104 1.35692 13.9456 26.1332
711 2 2.2208 5.4858 20.8006 24.7447
712 2 2.2208 5.37212 15.2746 24.7189
714 1 -1.1104 1.2979 19.6222 23.3978
715 1 -1.1104 1.32223 14.0446 23.3533
716 2 2.2208 5.44491 18.1182 21.8985
717 1 -1.1104 4.12288 19.4946 26.0663
718 2 2.2208 2.60765 18.1775 24.8223
719 1 -1.1104 3.98356 16.519 26.1129
720 1 -1.1104 4.06668 13.8421 26.2058
722 1 -1.1104 1.36134 16.7974 23.4536
723 1 -1.1104 4.17688 16.6843 23.3123
724 2 2.2208 2.67041 20.9377 22.0156
368 2 2.2208 2.66954 9.80222 27.5498
672 1 -1.1104 9.66074 19.4801 26.2344
713 1 -1.1104 6.74615 13.8448 23.4123
637 1 -1.1104 9.53033 14.0529 23.4936
608 2 2.2208 11.1237 15.3914 24.8386
615 1 -1.1104 12.4409 16.7827 26.1622
566 1 -1.1104 12.4945 16.7052 20.432
639 2 2.2208 8.24904 18.1069 24.6786
553 2 2.2208 10.9782 18.224 21.9447
710 1 -1.1104 6.78534 19.5349 23.3372
644 1 -1.1104 6.94014 19.6988 26.1605
580 1 -1.1104 12.5112 13.8525 26.2811
721 1 -1.1104 6.87049 16.5999 23.3627
704 1 -1.1104 6.93625 13.9046 26.4184
609 2 2.2208 11.1103 20.895 24.9244
377 2 2.2208 2.6846 15.2663 27.6537
706 1 -1.1104 6.76792 16.6434 26.0834
678 1 -1.1104 9.59999 16.7249 26.1465
675 1 -1.1104 9.65933 16.9024 23.339
607 1 -1.1104 12.4361 16.7072 23.2423
579 1 -1.1104 12.39 19.5443 23.4552
581 1 -1.1104 12.4905 19.482 26.1305
554 1 -1.1104 12.3691 13.9788 23.3677
335 2 2.2208 8.18233 1.31139 13.8129
612 2 2.2208 5.50264 -4.22097 27.6161
374 2 2.2208 11.1476 12.6269 27.601
344 2 2.2208 11.2647 9.70663 13.6919
347 2 2.2208 2.81032 18.1329 13.6747
641 2 2.2208 11.1464 -4.07448 27.6122
363 2 2.2208 8.36382 -1.40612 27.6588
378 2 2.2208 5.55345 18.1768 27.4246
725 2 2.2208 5.59311 23.764 5.06904
726 2 2.2208 5.51289 29.2732 5.14043
727 1 -1.1104 1.41235 25.2031 1.0466
728 1 -1.1104 1.27276 25.1841 3.74354
729 1 -1.1104 1.20118 22.2435 1.02663
730 1 -1.1104 1.28128 27.8561 1.13357
731 2 2.2208 5.50519 26.5248 2.25189
732 1 -1.1104 1.4277 22.4159 3.66713
733 1 -1.1104 1.35469 27.9299 3.84313
734 1 -1.1104 4.22408 25.1082 0.933097
735 2 2.2208 2.71833 23.8516 2.44053
736 2 2.2208 2.62572 29.4449 2.361
737 1 -1.1104 4.16977 25.2659 3.74394
738 2 2.2208 2.7469 26.5449 5.18194
739 1 -1.1104 3.84465 22.4381 0.978074
740 1 -1.1104 4.05711 27.8844 0.849941
741 1 -1.1104 4.22895 22.3842 3.74587
742 1 -1.1104 4.0383 27.9913 3.73778
866 1 -1.1104 1.3214 25.1331 6.56414
869 1 -1.1104 1.45635 27.922 6.57292
743 2 2.2208 -0.074415 29.2778 5.19254
873 1 -1.1104 4.24789 22.2795 6.58634
868 1 -1.1104 1.41539 22.4045 6.53299
744 2 2.2208 -0.0609936 23.7882 5.17095
874 1 -1.1104 4.16697 27.8831 6.53617
745 2 2.2208 -0.106095 26.5726 2.33852
872 1 -1.1104 4.13415 25.1226 6.55511
1051 2 2.2208 2.78567 23.7645 13.5435
747 1 -1.1104 7.083 24.987 3.68028
748 1 -1.1104 6.69581 22.4725 0.97643
750 1 -1.1104 7.10965 22.2259 3.66461
749 1 -1.1104 6.89841 27.8783 0.937278
867 1 -1.1104 6.87881 25.1918 6.42229
746 1 -1.1104 7.02674 25.194 0.944812
751 1 -1.1104 6.94035 27.8821 3.68161
752 2 2.2208 11.2577 23.7726 5.04111
753 2 2.2208 11.1699 29.2866 5.16377
754 1 -1.1104 12.5445 25.1208 0.973097
755 1 -1.1104 12.6258 25.0999 3.73162
756 1 -1.1104 12.6129 22.2658 0.78057
757 1 -1.1104 12.6469 28.0736 0.892208
758 2 2.2208 11.1478 26.5891 2.37591
759 1 -1.1104 12.6248 22.384 3.62227
760 1 -1.1104 12.5015 27.7963 3.84052
761 1 -1.1104 9.91699 25.2124 0.882483
762 2 2.2208 8.33978 23.6828 2.28427
763 2 2.2208 8.24835 29.2958 2.34133
764 1 -1.1104 9.67049 25.1175 3.69259
765 2 2.2208 8.39555 26.4802 4.97835
766 1 -1.1104 9.61485 22.1683 0.952631
767 1 -1.1104 9.67275 28.0205 0.956421
768 1 -1.1104 9.86317 22.3518 3.73095
769 1 -1.1104 9.76072 27.9706 3.70089
902 1 -1.1104 9.75159 25.074 6.54251
900 1 -1.1104 12.6106 22.2631 6.41266
903 1 -1.1104 9.871 22.4301 6.62387
871 1 -1.1104 7.06061 27.9144 6.58307
796 2 2.2208 -0.163985 32.1168 2.43942
773 2 2.2208 5.57119 34.9825 5.34537
774 1 -1.1104 1.30386 30.725 0.977376
775 1 -1.1104 1.32865 36.4887 1.19689
777 1 -1.1104 1.27437 30.6961 3.73125
778 1 -1.1104 1.23252 36.2887 3.93272
780 1 -1.1104 1.47263 33.5602 1.13479
781 2 2.2208 5.57275 32.107 2.42068
782 2 2.2208 5.61102 37.704 2.51588
783 1 -1.1104 1.20568 33.5076 3.94089
785 1 -1.1104 4.08504 30.7004 1.05215
786 1 -1.1104 3.946 36.3517 1.02403
787 2 2.2208 2.70031 34.9245 2.59156
788 1 -1.1104 4.12449 30.7302 3.8726
789 1 -1.1104 4.09184 36.3339 3.85591
790 2 2.2208 2.7933 32.0972 5.16635
791 2 2.2208 2.61062 37.7004 5.34905
792 1 -1.1104 4.2349 33.6237 1.17715
793 1 -1.1104 4.11448 33.4961 3.84165
795 2 2.2208 -0.0908595 37.863 2.4356
794 2 2.2208 -0.127943 34.8896 5.25044
923 1 -1.1104 1.33694 30.7019 6.77401
931 1 -1.1104 4.00992 33.5256 6.64224
929 1 -1.1104 4.17641 30.6913 6.57522
930 1 -1.1104 4.10129 36.3231 6.69495
927 1 -1.1104 1.29676 33.5729 6.71432
1047 1 -1.1104 6.91697 47.5578 12.4432
1023 2 2.2208 8.10316 45.9081 7.99498
1018 1 -1.1104 9.74727 39.0512 9.50765
797 1 -1.1104 6.9199 30.6757 1.14759
779 1 -1.1104 6.89602 36.3441 3.91165
784 1 -1.1104 6.9879 33.4072 3.7395
776 1 -1.1104 6.91056 36.3764 1.06293
799 1 -1.1104 6.85736 33.4391 0.988992
798 1 -1.1104 6.98309 30.6455 4.04881
800 2 2.2208 11.101 34.8565 5.14346
801 1 -1.1104 12.4741 30.755 0.968938
802 1 -1.1104 12.4714 36.3729 0.970617
803 1 -1.1104 12.5259 30.6701 3.73225
804 1 -1.1104 12.4279 36.266 3.91603
805 1 -1.1104 12.6313 33.6121 0.971815
806 2 2.2208 11.1119 32.1555 2.30603
807 2 2.2208 11.0669 37.555 2.50832
808 1 -1.1104 12.5741 33.5373 3.81144
809 1 -1.1104 9.52872 30.8429 0.883768
810 1 -1.1104 9.60913 36.251 1.10835
811 2 2.2208 8.26803 34.9608 2.39433
812 1 -1.1104 9.74288 30.6703 3.87951