ITEM: TIMESTEP
90000
ITEM: NUMBER OF ATOMS
17760
ITEM: BOX BOUNDS pp pp pp
-3.7460282127707767e-01 2.7714602821276713e+01
-4.5894854464102108e+00 3.3266948544641048e+02
-3.6790978791550955e-01 2.7707909787915010e+01
ITEM: ATOMS id type q x y z
1 2 2.2208 5.12167 1.16559 5.05952
2 1 -1.1104 1.01792 -3.06608 0.892648
3 1 -1.1104 0.800853 2.49886 1.00209
6 1 -1.1104 1.00107 -3.07247 3.71597
7 1 -1.1104 0.760302 2.62985 3.91131
10 1 -1.1104 0.923525 -0.272673 0.912815
12 2 2.2208 5.22799 -1.74589 2.40708
13 2 2.2208 5.16161 3.93059 2.24762
14 1 -1.1104 0.977225 -0.313993 3.92215
16 1 -1.1104 3.86036 -3.28798 0.986515
17 1 -1.1104 3.52585 2.30183 0.826987
18 2 2.2208 2.26332 1.01296 2.44971
19 1 -1.1104 3.76541 -3.04984 3.75493
20 1 -1.1104 3.64451 2.43608 3.64981
21 2 2.2208 2.32002 -1.73257 5.18706
23 1 -1.1104 3.87072 -0.443534 0.994703
24 1 -1.1104 3.87637 -0.311544 3.66426
22 2 2.2208 2.2198 3.92713 5.16165
8 1 -1.1104 6.49246 -3.20156 3.71067
4 1 -1.1104 6.71817 -3.21015 1.04718
173 1 -1.1104 3.60955 2.49628 6.42712
172 1 -1.1104 3.48388 -3.25232 6.53515
174 1 -1.1104 3.6965 -0.132177 6.55385
49 2 2.2208 13.5369 1.01534 2.43655
9 1 -1.1104 6.51789 2.66667 3.76288
11 1 -1.1104 6.62527 -0.246167 0.858565
167 1 -1.1104 0.895144 2.52485 6.77105
170 1 -1.1104 0.862498 -0.312989 6.69054
332 2 2.2208 13.5547 17.7805 7.92147
360 2 2.2208 10.7056 20.7249 13.4323
229 2 2.2208 13.4612 1.02418 8.07917
316 2 2.2208 8.02907 20.6985 10.7191
333 2 2.2208 13.6468 14.9674 10.7559
15 1 -1.1104 6.59802 -0.247612 3.75682
5 1 -1.1104 6.48002 2.5514 0.983689
31 2 2.2208 10.7466 1.0335 5.13012
32 1 -1.1104 12.3276 -3.14952 0.900874
33 1 -1.1104 12.2116 2.45204 1.02224
34 1 -1.1104 12.1995 -3.22352 3.73364
35 1 -1.1104 12.0431 2.37761 3.7993
36 1 -1.1104 12.2198 -0.332525 0.968722
37 2 2.2208 10.7944 -1.66912 2.36146
38 2 2.2208 10.6999 3.93518 2.32524
39 1 -1.1104 12.2032 -0.441924 3.8652
40 1 -1.1104 9.51194 -3.17808 0.947518
41 1 -1.1104 9.45734 2.45813 1.0376
42 2 2.2208 7.9084 1.05025 2.32158
43 1 -1.1104 9.29749 -3.22146 3.77099
44 1 -1.1104 9.24482 2.35727 3.78317
45 2 2.2208 7.85744 -1.79281 5.12274
47 1 -1.1104 9.45854 -0.297746 1.02706
48 1 -1.1104 9.41146 -0.43966 3.74637
46 2 2.2208 7.87869 3.83292 5.20971
207 1 -1.1104 11.919 -0.327904 6.57279
205 1 -1.1104 12.0213 -3.0604 6.57538
9029 2 2.2208 5.08499 -4.57052 10.8948
362 2 2.2208 7.99206 17.8369 13.508
328 1 -1.1104 12.1751 13.7508 9.42973
323 1 -1.1104 12.2268 16.4557 9.34974
54 2 2.2208 5.1511 6.60518 5.12516
55 2 2.2208 5.04045 12.1092 5.25396
56 1 -1.1104 0.827958 8.10543 0.922838
58 1 -1.1104 0.965599 8.0137 3.82124
60 1 -1.1104 0.879695 5.28275 0.942135
61 1 -1.1104 0.949007 10.8611 0.870084
66 2 2.2208 5.18701 9.43591 2.3755
67 1 -1.1104 0.803893 5.25278 3.61419
68 1 -1.1104 0.765182 10.754 3.72371
71 1 -1.1104 3.69806 8.05019 0.998529
72 2 2.2208 2.30435 6.63528 2.35714
73 2 2.2208 2.23098 12.1307 2.41621
74 1 -1.1104 3.69503 7.93753 3.7258
75 2 2.2208 2.25208 9.31118 5.2126
76 1 -1.1104 3.72031 5.04308 1.04277
77 1 -1.1104 3.78031 10.8693 1.10854
79 1 -1.1104 3.65436 5.24115 3.85779
80 1 -1.1104 3.60288 10.6284 3.86831
234 1 -1.1104 0.959177 7.91737 6.66529
62 1 -1.1104 0.925185 10.8632 6.44267
238 1 -1.1104 3.74217 7.99979 6.49414
236 1 -1.1104 1.02817 5.2109 6.67117
57 1 -1.1104 6.50113 8.12477 0.899958
63 1 -1.1104 6.51335 5.29075 0.890147
70 1 -1.1104 6.47375 10.8482 3.72822
65 1 -1.1104 6.63896 10.898 6.54642
64 1 -1.1104 6.49946 10.8558 0.892988
361 2 2.2208 10.9022 14.9857 13.5958
78 1 -1.1104 3.72836 10.8613 6.60389
237 1 -1.1104 6.48968 5.35637 6.47415
317 2 2.2208 7.94352 15.1106 10.7481
235 1 -1.1104 6.55363 8.11736 6.53449
318 1 -1.1104 9.30928 19.2235 9.1964
59 1 -1.1104 6.57557 8.01062 3.82563
69 1 -1.1104 6.46293 5.2932 3.71164
84 2 2.2208 10.7625 6.55699 5.25192
85 2 2.2208 10.8529 12.2944 5.26935
86 1 -1.1104 12.0951 7.88834 0.950729
87 1 -1.1104 12.1875 7.98452 3.76975
88 1 -1.1104 12.2128 5.20052 0.804486
89 1 -1.1104 11.9525 10.7752 0.872407
91 2 2.2208 10.7128 9.3113 2.28893
92 1 -1.1104 12.0407 5.26 3.72796
93 1 -1.1104 11.9201 10.7367 3.67565
94 1 -1.1104 9.28057 8.07259 1.02419
95 2 2.2208 7.99345 6.61808 2.33913
96 2 2.2208 7.92591 12.3282 2.57647
97 1 -1.1104 9.41399 8.0423 3.79311
98 2 2.2208 8.01177 9.44494 4.99986
99 1 -1.1104 9.39017 5.23004 0.806644
100 1 -1.1104 9.2676 10.981 0.9884
102 1 -1.1104 9.33747 5.15816 3.73727
103 1 -1.1104 9.27031 11.0129 3.87682
90 1 -1.1104 12.2 10.8023 6.45058
265 1 -1.1104 12.0592 8.0794 6.40978
101 1 -1.1104 9.53314 10.8597 6.6497
266 1 -1.1104 12.1076 5.10245 6.61867
269 1 -1.1104 9.3091 5.0348 6.60654
105 2 2.2208 13.5556 6.5741 2.32721
104 2 2.2208 13.3691 12.1898 2.18379
232 2 2.2208 13.5019 9.40131 5.09113
355 2 2.2208 10.8322 9.39703 13.5841
202 2 2.2208 13.5136 6.70424 7.91817
50 2 2.2208 13.5574 -1.80753 5.19975
106 2 2.2208 5.14391 17.9568 5.14237
107 1 -1.1104 1.02006 13.7345 1.04378
109 1 -1.1104 0.739435 19.2436 0.960259
113 1 -1.1104 0.886485 13.5134 3.70467
114 1 -1.1104 1.02117 19.4199 3.5716
116 1 -1.1104 1.00592 16.5293 0.897825
119 2 2.2208 5.17484 15.0718 2.45485
120 2 2.2208 4.85596 20.7695 2.41712
121 1 -1.1104 1.0192 16.3438 3.74097
123 1 -1.1104 3.69058 13.6938 1.03432
125 1 -1.1104 3.58957 19.3068 1.02437
127 2 2.2208 2.25795 17.9923 2.35474
128 1 -1.1104 3.82796 13.5684 3.77951
129 1 -1.1104 3.72774 19.2794 3.83576
130 2 2.2208 2.36509 15.0189 5.02847
131 2 2.2208 2.33591 20.7029 5.21086
132 1 -1.1104 3.77404 16.5901 0.951902
134 1 -1.1104 3.78418 16.4955 3.77315
126 1 -1.1104 3.84757 19.3872 6.55213
302 1 -1.1104 1.01623 19.1595 6.48444
117 1 -1.1104 1.02279 16.415 6.54885
139 1 -1.1104 6.53248 19.2888 3.63168
122 1 -1.1104 6.5304 16.5761 3.64335
138 1 -1.1104 6.56024 19.2739 0.847097
115 1 -1.1104 6.47447 13.8421 3.96583
111 1 -1.1104 6.5613 13.7244 6.72105
118 1 -1.1104 6.4912 16.3723 6.47868
314 1 -1.1104 9.37007 16.5114 9.41696
124 1 -1.1104 3.75965 13.609 6.50804
108 1 -1.1104 1.03502 13.7385 6.5537
329 1 -1.1104 12.3601 19.2407 12.1259
163 1 -1.1104 9.42938 16.4653 6.66353
110 1 -1.1104 6.41289 13.6397 1.09348
112 1 -1.1104 6.58902 19.292 6.59707
140 1 -1.1104 6.54539 16.4178 0.933335
141 2 2.2208 10.6045 17.6663 5.11142
142 1 -1.1104 12.0014 13.4966 0.829886
144 1 -1.1104 12.3493 19.327 1.00464
146 1 -1.1104 12.1467 13.5546 3.71515
147 1 -1.1104 12.059 19.0767 3.82571
148 1 -1.1104 12.2219 16.3313 0.895011
150 2 2.2208 10.7493 14.9058 2.23858
151 2 2.2208 10.6398 20.5958 2.37307
152 1 -1.1104 12.184 16.349 3.70212
153 1 -1.1104 9.19076 13.7014 1.12667
155 1 -1.1104 9.31571 19.164 0.815743
157 2 2.2208 8.03486 17.8282 2.16119
158 1 -1.1104 9.40629 13.7332 4.00937
159 1 -1.1104 9.26893 19.1022 3.68355
160 2 2.2208 8.051 15.0921 5.27135
161 2 2.2208 7.78296 20.6268 5.09042
162 1 -1.1104 9.41882 16.3476 0.733917
164 1 -1.1104 9.44676 16.3481 3.66497
149 1 -1.1104 12.0289 16.3779 6.48733
165 2 2.2208 13.4994 17.8173 2.34799
321 1 -1.1104 9.41158 19.2967 12.1686
143 1 -1.1104 12.2337 13.5767 6.60066
350 2 2.2208 10.8421 3.60461 13.6152
166 1 -1.1104 0.790099 -3.19637 6.65399
168 1 -1.1104 6.43242 -3.04903 6.42999
204 2 2.2208 13.4833 15.0217 5.10968
175 2 2.2208 5.10707 1.0238 10.7472
176 1 -1.1104 0.94638 -3.18629 12.2102
177 1 -1.1104 0.928328 2.32886 12.1982
180 1 -1.1104 0.954328 -3.24931 9.40399
181 1 -1.1104 0.95606 2.51921 9.51957
184 1 -1.1104 0.991624 -0.541756 12.3576
186 2 2.2208 5.17582 -1.71674 7.9081
187 2 2.2208 5.11251 3.82822 7.94288
188 1 -1.1104 0.927279 -0.340517 9.4838
190 1 -1.1104 3.76236 -3.02188 12.2829
191 1 -1.1104 3.77556 2.46703 12.2673
192 2 2.2208 2.24499 1.16786 7.98339
193 1 -1.1104 3.82649 -3.07955 9.41079
194 1 -1.1104 3.74061 2.431 9.38335
195 2 2.2208 2.39891 -1.68523 10.8526
196 2 2.2208 2.43636 3.74687 10.9319
197 1 -1.1104 3.7469 -0.424123 12.1952
198 1 -1.1104 3.81498 -0.280122 9.39994
178 1 -1.1104 6.54721 -3.01443 12.2404
189 1 -1.1104 6.66962 -0.450833 9.43118
156 1 -1.1104 9.26158 19.2184 6.40933
185 1 -1.1104 6.51974 -0.320311 12.1756
322 1 -1.1104 9.34644 13.814 12.1452
327 1 -1.1104 12.1766 19.1399 9.22915
331 2 2.2208 10.8879 17.8663 10.7143
363 2 2.2208 13.594 17.9198 13.4858
171 1 -1.1104 6.43827 -0.402003 6.43292
169 1 -1.1104 6.47355 2.45494 6.55059
208 1 -1.1104 9.22589 -3.40992 6.71564
210 1 -1.1104 9.27237 -0.562922 6.5352
206 1 -1.1104 12.1366 2.39074 6.73271
183 1 -1.1104 6.47521 2.32249 9.36639
182 1 -1.1104 6.49916 -3.17699 9.35402
203 2 2.2208 13.4915 3.73676 10.8083
179 1 -1.1104 6.54356 2.48397 12.2442
209 1 -1.1104 9.25335 2.29534 6.47498
211 2 2.2208 10.7694 0.976293 10.8758
212 1 -1.1104 12.0444 -3.38767 12.3156
213 1 -1.1104 12.2422 2.23888 12.2586
214 1 -1.1104 12.1205 -3.24109 9.27091
215 1 -1.1104 12.0041 2.41106 9.41484
216 1 -1.1104 12.1657 -0.6452 12.2415
217 2 2.2208 10.7287 -1.78003 8.03681
218 2 2.2208 10.677 3.7876 7.84084
219 1 -1.1104 12.0629 -0.372054 9.39688
220 1 -1.1104 9.31271 -3.14993 12.2418
221 1 -1.1104 9.37636 2.4544 12.2012
222 2 2.2208 8.00424 0.978822 7.83197
223 1 -1.1104 9.377 -3.1115 9.50556
224 1 -1.1104 9.30397 2.45326 9.18543
225 2 2.2208 7.91887 -1.66713 10.8541
227 1 -1.1104 9.48276 -0.283693 12.2557
228 1 -1.1104 9.3071 -0.257508 9.38893
226 2 2.2208 7.98024 3.80038 10.7108
230 2 2.2208 13.5148 -1.9399 10.6425
358 2 2.2208 5.11413 20.7014 13.5432
9022 2 2.2208 2.43582 -4.44957 2.35447
315 1 -1.1104 9.37194 16.5771 12.105
239 1 -1.1104 3.83408 5.21406 6.65474
240 2 2.2208 5.17564 6.70014 10.7482
241 2 2.2208 5.18905 12.1088 10.6855
242 1 -1.1104 0.954104 8.02873 12.2434
244 1 -1.1104 0.998104 8.15349 9.3659
246 1 -1.1104 0.912213 5.27178 12.2036
247 1 -1.1104 0.909568 10.7678 12.1244
250 2 2.2208 5.28938 9.46874 7.97995
251 1 -1.1104 0.907063 5.39287 9.20361
252 1 -1.1104 1.06517 10.7289 9.1795
255 1 -1.1104 3.75162 8.05258 12.1622
256 2 2.2208 2.40926 6.66228 7.9716
257 2 2.2208 2.34563 12.2591 7.8671
258 1 -1.1104 3.75329 8.01552 9.4743
259 2 2.2208 2.41915 9.42093 10.7759
260 1 -1.1104 3.77635 5.20692 12.286
261 1 -1.1104 3.73271 10.8774 12.1953
262 1 -1.1104 3.75134 5.26142 9.49098
263 1 -1.1104 3.82615 10.7573 9.33666
248 1 -1.1104 6.44261 5.29547 12.1155
245 1 -1.1104 6.57305 8.03794 9.40649
249 1 -1.1104 6.53218 10.7132 12.0567
352 2 2.2208 5.17148 9.36208 13.4538
330 1 -1.1104 12.1315 13.7261 12.2959
254 1 -1.1104 6.63716 10.7051 9.31418
9026 2 2.2208 10.6717 -4.5401 5.24802
356 2 2.2208 7.95234 12.2109 13.5305
267 1 -1.1104 9.37623 7.81967 6.59258
253 1 -1.1104 6.72438 5.16901 9.34792
243 1 -1.1104 6.61864 8.05149 12.1464
264 1 -1.1104 9.36945 10.7103 9.44169
268 1 -1.1104 9.42707 5.13209 9.31762
270 1 -1.1104 9.47002 10.8642 12.11
271 1 -1.1104 9.24105 5.27467 12.0944
272 2 2.2208 8.07741 9.35107 10.7212
273 1 -1.1104 9.52852 7.99001 9.3141
274 2 2.2208 7.96067 12.2756 7.95531
275 2 2.2208 7.98143 6.6778 7.97949
276 2 2.2208 10.8285 6.61271 10.7265
277 2 2.2208 10.7517 12.3484 10.7904
278 1 -1.1104 12.1742 7.94579 12.0584
279 1 -1.1104 12.4415 8.17828 9.13839
280 1 -1.1104 12.0906 5.10482 12.3193
281 1 -1.1104 12.2979 10.89 12.1455
282 2 2.2208 10.7119 9.3654 7.89633
283 1 -1.1104 12.1495 5.31174 9.4965
284 1 -1.1104 12.1315 10.9804 9.28813
285 1 -1.1104 9.40513 8.02519 12.1353
53 2 2.2208 13.5074 12.2465 7.94625
354 2 2.2208 8.05626 6.53968 13.6319
353 2 2.2208 2.24184 12.2877 13.6289
233 2 2.2208 13.4841 3.77309 5.21671
288 1 -1.1104 6.57111 19.2577 9.42833
306 1 -1.1104 6.57844 16.5182 12.0661
359 2 2.2208 5.10415 14.9846 13.6099
289 1 -1.1104 6.65252 16.3725 9.2878
296 1 -1.1104 6.53063 19.3401 12.0732
145 1 -1.1104 12.2353 19.1877 6.48837
290 1 -1.1104 6.54066 13.6368 9.43125
133 1 -1.1104 3.72983 16.5207 6.66975
303 2 2.2208 2.44655 17.8357 8.03401
298 1 -1.1104 0.96991 19.2891 12.1709
305 1 -1.1104 3.63996 13.5204 9.16926
304 1 -1.1104 3.83786 16.335 9.56739
301 1 -1.1104 3.70058 19.1827 9.23505
295 2 2.2208 5.04972 15.0522 7.98723
310 2 2.2208 2.38874 14.9435 10.8367
309 2 2.2208 2.38542 20.6449 10.6736
308 1 -1.1104 3.60479 16.4678 12.3073
307 1 -1.1104 0.764814 16.3745 12.094
300 2 2.2208 5.17403 17.9782 10.8069
299 1 -1.1104 0.871554 13.5402 12.0849
294 1 -1.1104 0.852424 13.6898 9.28856
286 1 -1.1104 3.69344 19.3755 12.1198
287 1 -1.1104 3.78551 13.6874 12.0887
291 1 -1.1104 0.816779 19.3459 9.39349
292 1 -1.1104 0.969937 16.4906 9.27463
293 2 2.2208 5.17065 20.6726 7.85416
297 1 -1.1104 6.56412 13.3981 12.1457
154 1 -1.1104 9.38309 13.5486 6.70402
325 2 2.2208 10.6978 15.1356 7.98195
324 2 2.2208 10.66 20.5565 7.82061
326 1 -1.1104 12.2603 16.4205 12.1512
28 2 2.2208 13.5125 20.619 10.6401
341 2 2.2208 5.14045 3.9705 13.6237
319 1 -1.1104 9.43895 13.5785 9.38571
320 2 2.2208 7.91631 17.7808 7.99944
357 2 2.2208 2.34073 17.846 13.5488
231 2 2.2208 13.3715 20.5838 5.13196
338 2 2.2208 5.04888 -1.67541 13.5765
81 2 2.2208 -0.436933 6.59409 5.15814
340 2 2.2208 13.5793 0.880548 13.5866
336 2 2.2208 13.4606 6.59016 13.5405
376 2 2.2208 13.64 12.1947 13.5588
9027 2 2.2208 13.5945 -4.52872 2.40605
335 2 2.2208 -0.392415 20.7032 13.4787
9031 2 2.2208 7.98351 -4.56547 8.14558
9023 2 2.2208 5.11393 -4.59297 5.14517
9045 2 2.2208 8.01097 -4.53032 13.517
381 2 2.2208 5.13774 12.2256 -0.285172
373 2 2.2208 2.46102 15.0779 -0.339922
380 2 2.2208 2.35 9.42095 -0.408581
351 2 2.2208 2.33519 6.60453 13.7231
343 2 2.2208 7.83061 0.996967 13.5387
388 2 2.2208 5.0213 1.15548 16.5028
389 1 -1.1104 0.868274 -3.11659 17.7229
390 1 -1.1104 0.850032 2.45403 17.8231
393 1 -1.1104 1.11302 -3.21108 14.9954
395 1 -1.1104 0.927656 2.39904 15.0249
401 1 -1.1104 0.882901 -0.27692 18.0055
403 2 2.2208 5.15117 -1.80831 19.3242
404 2 2.2208 5.05802 3.83087 19.2613
405 1 -1.1104 1.02848 -0.426213 15.2067
409 1 -1.1104 3.62304 -3.16446 17.7533
410 1 -1.1104 3.57249 2.60486 17.8561
411 2 2.2208 2.29418 1.06882 19.2088
412 1 -1.1104 3.77783 -3.10965 15.0519
414 1 -1.1104 3.59509 2.47057 15.0747
416 2 2.2208 2.28365 -1.7745 16.4367
418 1 -1.1104 3.7395 -0.37951 17.7751
419 1 -1.1104 3.66705 -0.228959 15.0156
417 2 2.2208 2.32202 3.89741 16.4445
420 1 -1.1104 3.67923 -0.203773 20.5491
413 1 -1.1104 3.55503 -3.06066 20.5833
365 2 2.2208 2.44421 -1.6962 27.6629
408 1 -1.1104 6.54782 -0.538118 20.6528
391 1 -1.1104 6.54383 -3.17494 17.8963
407 1 -1.1104 6.29879 -0.360566 15.1617
428 2 2.2208 13.5133 1.03099 19.1682
455 2 2.2208 13.5984 17.8719 24.7774
344 2 2.2208 13.6424 15.0986 27.6133
396 1 -1.1104 1.03016 2.5729 20.6627
406 1 -1.1104 0.756084 -0.175244 20.6742
394 1 -1.1104 0.858316 -3.19983 20.5401
400 1 -1.1104 6.33164 2.34843 20.664
348 2 2.2208 10.9039 17.7984 27.392
379 2 2.2208 5.18945 6.65194 27.5949
397 1 -1.1104 6.61567 -3.2509 15.1407
402 1 -1.1104 6.52619 -0.316795 17.9152
399 1 -1.1104 6.4771 2.47667 15.0777
392 1 -1.1104 6.39027 2.48053 17.9027
398 1 -1.1104 6.52644 -3.16996 20.5481
431 2 2.2208 10.7128 0.940448 16.3558
432 1 -1.1104 11.9818 -3.3194 17.9525
433 1 -1.1104 12.1408 2.27851 17.8277
434 1 -1.1104 12.1008 -3.26929 15.0667
436 1 -1.1104 12.1483 2.26139 14.9868
438 1 -1.1104 12.1708 -0.404492 17.9388
439 2 2.2208 10.9052 -1.86191 19.3326
440 2 2.2208 10.7332 3.70065 19.1417
441 1 -1.1104 12.0022 -0.44907 15.0454
443 1 -1.1104 9.35252 -3.13012 17.9551
444 1 -1.1104 9.47743 2.33549 17.819
445 2 2.2208 7.88784 0.923213 19.4104
446 1 -1.1104 9.47398 -3.21039 15.0002
448 1 -1.1104 9.28886 2.41869 15.085
450 2 2.2208 7.9349 -1.61541 16.4971
451 2 2.2208 7.7902 3.86647 16.4813
452 1 -1.1104 9.4411 -0.47433 17.9155
453 1 -1.1104 9.13842 -0.417961 14.9339
454 1 -1.1104 9.34011 -0.373993 20.7279
437 1 -1.1104 12.0561 2.21267 20.677
714 1 -1.1104 6.44283 16.559 25.9356
369 2 2.2208 10.7529 1.07017 27.6363
384 2 2.2208 10.8267 6.59622 27.4468
449 1 -1.1104 9.05751 2.43543 20.5801
447 1 -1.1104 9.37481 -3.22632 20.7658
615 2 2.2208 7.82987 15.0048 21.7864
654 2 2.2208 13.5835 1.10284 24.9369
464 2 2.2208 5.16057 6.59216 16.3901
465 2 2.2208 5.01759 12.2448 16.2446
466 1 -1.1104 0.802413 7.9684 17.9407
468 1 -1.1104 1.07024 8.14381 15.1176
472 1 -1.1104 0.811809 5.2091 17.8021
473 1 -1.1104 0.950168 10.7761 17.7489
476 2 2.2208 5.08223 9.37736 19.1324
477 1 -1.1104 0.817 5.24363 15.0733
479 1 -1.1104 0.943768 10.8617 14.9408
485 1 -1.1104 3.6578 8.10745 17.7785
486 2 2.2208 2.26332 6.7378 19.1518
487 2 2.2208 2.30372 12.2405 19.1796
488 1 -1.1104 3.7511 7.89631 14.947
490 2 2.2208 2.35504 9.51247 16.314
491 1 -1.1104 3.68498 5.48624 17.8186
492 1 -1.1104 3.61861 11.1323 17.8001
493 1 -1.1104 3.55273 5.22131 15.0513
495 1 -1.1104 3.693 10.748 14.9683
480 1 -1.1104 0.893406 10.8436 20.6972
489 1 -1.1104 3.63275 8.24919 20.5025
496 1 -1.1104 3.65834 10.886 20.5846
484 1 -1.1104 6.51362 10.7407 20.5551
469 1 -1.1104 0.857615 8.07114 20.7036
478 1 -1.1104 0.898009 5.38206 20.7129
494 1 -1.1104 3.61042 5.26098 20.6084
475 1 -1.1104 6.36678 10.7136 17.669
467 1 -1.1104 6.46145 8.08666 17.745
481 1 -1.1104 6.53282 5.13602 15.1401
474 1 -1.1104 6.46333 5.19489 17.9394
470 1 -1.1104 6.49529 7.89575 14.9301
569 1 -1.1104 12.0505 19.2038 20.3884
387 2 2.2208 13.4163 9.38323 27.6062
483 1 -1.1104 6.48891 10.8423 14.9091
482 1 -1.1104 6.48983 5.30714 20.5931
500 2 2.2208 10.7175 6.49659 16.4697
501 2 2.2208 10.8177 12.2413 16.3216
502 1 -1.1104 12.0355 8.10303 17.7202
503 1 -1.1104 12.0327 7.96176 14.9194
505 1 -1.1104 12.2272 5.15472 18.0351
506 1 -1.1104 12.1195 10.8406 17.6603
507 2 2.2208 10.6324 9.37104 19.1879
508 1 -1.1104 12.2831 5.06624 15.0818
510 1 -1.1104 12.1146 10.7743 14.8474
512 1 -1.1104 9.20398 7.81255 17.7866
513 2 2.2208 7.92186 6.54565 19.1902
514 2 2.2208 7.73062 12.1092 19.0604
515 1 -1.1104 9.38088 8.09403 15.0113
517 2 2.2208 7.85124 9.33439 16.3603
518 1 -1.1104 9.32795 5.14676 17.7509
519 1 -1.1104 9.2497 10.8206 17.7066
520 1 -1.1104 9.3743 5.24074 14.9851
522 1 -1.1104 9.27712 10.7796 15.0106
516 1 -1.1104 9.28277 7.94065 20.5078
521 1 -1.1104 9.33088 5.25139 20.5999
504 1 -1.1104 12.0902 8.05008 20.5694
509 1 -1.1104 12.0673 5.1695 20.648
523 1 -1.1104 9.23482 10.5477 20.5288
650 2 2.2208 13.4596 12.283 19.1997
370 2 2.2208 7.997 -1.77466 27.631
527 2 2.2208 5.12743 17.7021 16.3134
528 1 -1.1104 0.925707 13.6443 17.6096
529 1 -1.1104 0.867431 19.3073 17.7525
532 1 -1.1104 0.861692 13.697 14.9403
534 1 -1.1104 0.921411 19.2251 14.9644
540 1 -1.1104 0.88176 16.4719 17.8719
542 2 2.2208 5.12152 14.9993 19.111
543 2 2.2208 5.12719 20.7016 19.109
544 1 -1.1104 0.85856 16.4208 15.0091
548 1 -1.1104 3.72639 13.6967 17.694
549 1 -1.1104 3.58122 19.3372 17.755
550 2 2.2208 2.26207 18.0009 19.1772
551 1 -1.1104 3.67847 13.6833 14.973
553 1 -1.1104 3.73693 19.3088 14.8716
555 2 2.2208 2.25184 15.2113 16.414
556 2 2.2208 2.35379 20.6778 16.324
557 1 -1.1104 3.70393 16.6251 17.9613
558 1 -1.1104 3.65205 16.415 15.0594
535 1 -1.1104 0.917292 19.2203 20.4908
533 1 -1.1104 0.873816 13.5998 20.7074
545 1 -1.1104 0.826992 16.286 20.6418
552 1 -1.1104 3.524 13.7333 20.5765
531 1 -1.1104 6.51826 19.3872 17.7184
559 1 -1.1104 3.78441 16.5375 20.6459
546 1 -1.1104 6.4381 16.4479 14.8752
530 1 -1.1104 6.48634 13.6692 17.7926
524 1 -1.1104 12.0979 16.4901 23.3883
554 1 -1.1104 3.77657 19.4027 20.5041
651 2 2.2208 13.5246 6.64776 19.2801
617 1 -1.1104 9.308 16.3222 23.4775
459 2 2.2208 13.4272 -1.86501 16.511
619 2 2.2208 13.6038 14.9458 16.453
541 1 -1.1104 6.65482 16.5674 17.476
538 1 -1.1104 6.44146 19.2615 14.8466
536 1 -1.1104 6.54062 13.7451 15.0257
539 1 -1.1104 6.66578 19.0896 20.5579
563 2 2.2208 10.787 17.8321 16.3425
564 1 -1.1104 12.1202 13.6661 17.742
565 1 -1.1104 12.0871 19.2638 17.6223
566 1 -1.1104 12.2281 13.5758 14.9893
568 1 -1.1104 12.1147 19.3271 14.8798
570 1 -1.1104 12.0711 16.5704 17.7945
571 2 2.2208 10.6409 15.0141 19.2001
572 2 2.2208 10.7023 20.7193 18.9754
573 1 -1.1104 11.9893 16.3968 14.9204
575 1 -1.1104 9.311 13.5806 17.7536
576 1 -1.1104 9.2266 19.239 17.5988
577 2 2.2208 7.90166 17.805 19.0538
578 1 -1.1104 9.42304 13.5048 14.7852
580 1 -1.1104 9.31226 19.1693 14.8588
582 2 2.2208 8.05872 14.8445 16.3612
583 2 2.2208 7.94258 20.5201 16.2186
584 1 -1.1104 9.26638 16.3604 17.5781
585 1 -1.1104 9.25844 16.3269 14.8251
579 1 -1.1104 9.01011 13.5405 20.4559
586 1 -1.1104 9.14316 16.3449 20.5418
567 1 -1.1104 11.9076 13.704 20.5955
347 2 2.2208 7.76516 15.0773 27.6151
537 1 -1.1104 6.23274 13.6034 20.46
574 1 -1.1104 12.0458 16.3487 20.6107
526 2 2.2208 10.795 20.666 24.7011
429 2 2.2208 13.6096 3.63071 16.4677
9120 2 2.2208 13.5421 -4.60567 24.9171
422 2 2.2208 13.4646 9.58278 21.8448
9188 2 2.2208 5.15471 -4.51342 16.5182
415 1 -1.1104 3.77792 2.56317 20.5364
591 2 2.2208 5.07875 1.02858 22.1245
592 1 -1.1104 0.936959 -3.21634 23.3519
593 1 -1.1104 0.841453 2.48582 23.4789
596 1 -1.1104 1.05257 -3.1073 26.178
597 1 -1.1104 0.756943 2.36368 26.2182
600 1 -1.1104 0.906669 -0.447357 23.4992
602 2 2.2208 5.19561 -1.72682 24.8407
604 1 -1.1104 0.901162 -0.291384 26.2511
606 1 -1.1104 3.67574 -3.12145 23.4752
607 1 -1.1104 3.70982 2.40701 23.4287
608 2 2.2208 2.26245 0.985362 24.8801
609 1 -1.1104 3.76528 -3.08228 26.3249
610 1 -1.1104 3.61284 2.5597 26.0827
611 2 2.2208 2.22111 -1.68231 22.0488
612 2 2.2208 2.304 3.99031 21.9853
613 1 -1.1104 3.67398 -0.275188 23.4249
614 1 -1.1104 3.71886 -0.191701 26.2404
603 2 2.2208 5.06799 3.93678 24.8029
595 1 -1.1104 6.62694 2.39484 23.585
366 2 2.2208 2.30554 3.81875 27.6228
653 2 2.2208 13.6372 -1.79744 22.1081
581 1 -1.1104 9.39903 19.2641 20.3694
590 1 -1.1104 9.26676 19.2412 26.1339
460 2 2.2208 13.5561 20.6009 16.3551
364 2 2.2208 5.04479 1.06509 27.6212
442 1 -1.1104 12.1593 -0.532958 20.6645
435 1 -1.1104 12.3109 -3.20094 20.7664
497 1 -1.1104 12.2201 19.2563 23.4207
385 2 2.2208 7.92033 9.36116 27.5777
525 2 2.2208 10.6112 14.8875 24.7866
599 1 -1.1104 6.52393 2.50813 26.3648
463 1 -1.1104 11.997 13.6459 23.3411
377 2 2.2208 13.71 -1.80311 27.5599
605 1 -1.1104 6.41464 -0.350067 26.1587
594 1 -1.1104 6.49686 -3.28554 23.3841
598 1 -1.1104 6.61831 -3.14908 26.1918
601 1 -1.1104 6.54121 -0.401184 23.3659
627 2 2.2208 10.7951 0.941681 22.1199
628 1 -1.1104 12.1522 -3.1578 23.439
629 1 -1.1104 12.169 2.36594 23.4457
630 1 -1.1104 12.2581 -3.19897 26.1916
631 1 -1.1104 12.2382 2.48892 26.3547
632 1 -1.1104 12.1871 -0.285787 23.6115
633 2 2.2208 10.8016 -1.77729 24.8319
635 1 -1.1104 12.2428 -0.373086 26.2512
636 1 -1.1104 9.26926 -3.37732 23.4582
637 1 -1.1104 9.36878 2.33191 23.4803
638 2 2.2208 7.9257 1.12469 24.9577
639 1 -1.1104 9.39087 -3.12081 26.2864
640 1 -1.1104 9.30837 2.42136 26.3277
641 2 2.2208 7.87903 -1.9379 22.0567
642 2 2.2208 7.87606 3.7775 22.0882
643 1 -1.1104 9.40098 -0.603034 23.5329
644 1 -1.1104 9.27389 -0.295807 26.2104
634 2 2.2208 10.7465 3.80654 24.9004
349 2 2.2208 7.93684 20.636 27.5299
562 1 -1.1104 9.45163 19.1941 23.1877
547 1 -1.1104 6.59665 16.5075 20.4167
656 2 2.2208 5.17704 6.58044 21.9302
657 2 2.2208 5.00184 12.3227 21.9424
658 1 -1.1104 1.00335 7.98694 23.3949
660 1 -1.1104 0.936764 7.87699 26.1986
662 1 -1.1104 0.822816 5.2614 23.4723
663 1 -1.1104 0.877012 10.7924 23.3794
666 2 2.2208 5.08141 9.51132 24.7171
667 1 -1.1104 0.957233 5.07255 26.2393
668 1 -1.1104 0.898692 10.6436 26.1971
671 1 -1.1104 3.67303 8.0991 23.2699
672 2 2.2208 2.3522 6.59956 24.8099
673 2 2.2208 2.32316 12.2729 24.7819
674 1 -1.1104 3.65974 8.0256 26.074
675 2 2.2208 2.2767 9.49858 21.9848
676 1 -1.1104 3.71541 5.16503 23.4438
677 1 -1.1104 3.57376 10.8009 23.5074
678 1 -1.1104 3.686 5.21637 26.2831
679 1 -1.1104 3.66937 10.8221 26.2595
661 1 -1.1104 6.54467 7.96754 26.1319
669 1 -1.1104 6.56773 5.23827 26.2441
665 1 -1.1104 6.31048 10.8948 23.2639
471 1 -1.1104 6.49541 8.0309 20.5285
659 1 -1.1104 6.46601 8.05546 23.4137
670 1 -1.1104 6.55976 10.8356 26.1299
9187 2 2.2208 2.30787 -4.52047 19.1178
616 2 2.2208 7.93192 20.5843 21.8191
498 1 -1.1104 12.0422 13.6799 26.2193
589 1 -1.1104 9.24498 13.5565 26.2873
618 2 2.2208 13.5342 17.8664 19.1303
587 2 2.2208 7.99817 17.8862 24.7243
511 1 -1.1104 11.9792 10.7985 20.5005
664 1 -1.1104 6.55854 5.14841 23.3955
687 1 -1.1104 9.27388 10.6969 26.2006
688 1 -1.1104 9.36109 5.05666 26.0738
689 1 -1.1104 9.04214 10.8514 23.3513
690 1 -1.1104 9.36245 5.20531 23.3155
691 2 2.2208 7.7344 9.37763 22.043
692 1 -1.1104 9.29427 7.95239 26.2681
693 2 2.2208 7.76332 12.3224 24.839
694 2 2.2208 7.89668 6.51796 24.829
695 2 2.2208 10.7318 6.52869 22.0136
696 2 2.2208 10.5966 12.1168 21.9764
697 1 -1.1104 12.0014 7.9075 23.4727
698 1 -1.1104 12.1629 7.95751 26.2526
699 1 -1.1104 12.2045 5.13179 23.376
700 1 -1.1104 11.9002 10.7935 23.3864
701 2 2.2208 10.6192 9.43148 24.7573
702 1 -1.1104 12.1428 5.10309 26.1846
703 1 -1.1104 11.9764 10.8956 26.089
704 1 -1.1104 9.30305 8.11038 23.4247
386 2 2.2208 10.6356 12.2616 27.5416
708 2 2.2208 13.3843 12.1792 24.7432
561 1 -1.1104 9.36402 13.4045 23.3451
426 2 2.2208 13.5757 9.41521 16.3701
375 2 2.2208 2.34726 20.7305 27.5265
718 1 -1.1104 6.57953 19.1981 23.2867
374 2 2.2208 5.15195 17.9225 27.5228
680 1 -1.1104 6.48418 16.4494 23.1251
709 1 -1.1104 6.67926 13.6931 23.3605
647 2 2.2208 2.24964 15.0114 22.0422
649 2 2.2208 2.29375 20.6868 22.0152
652 1 -1.1104 3.60265 16.4323 23.3656
655 1 -1.1104 0.911831 16.5112 23.3628
681 1 -1.1104 3.7669 13.7193 26.2375
682 1 -1.1104 3.77636 16.5675 26.2762
683 2 2.2208 2.44719 17.9417 24.9938
686 1 -1.1104 3.76511 19.3528 26.1853
705 2 2.2208 5.11385 17.8665 21.9036
706 1 -1.1104 0.783623 13.5779 23.4676
707 1 -1.1104 0.936143 19.2868 23.4863
711 1 -1.1104 3.6921 19.225 23.3775
713 1 -1.1104 3.72844 13.7015 23.4194
715 1 -1.1104 0.916653 19.151 26.3044
716 1 -1.1104 1.01442 16.4848 26.1835
717 1 -1.1104 0.980109 13.54 26.2553
719 2 2.2208 5.1345 20.6992 24.6614
720 2 2.2208 5.14322 15.2449 24.655
588 1 -1.1104 6.55936 19.4172 26.0566
712 1 -1.1104 6.47477 13.7974 26.2207
430 2 2.2208 13.4402 15.0008 21.9338
560 1 -1.1104 12.2768 16.4495 26.0083
378 2 2.2208 13.6608 3.80506 27.6412
499 1 -1.1104 12.1454 19.242 26.2281
620 1 -1.1104 9.3227 16.336 26.0341
462 2 2.2208 10.7157 17.8214 21.9623
710 2 2.2208 13.4987 6.58707 24.8627
461 2 2.2208 13.4912 20.6087 21.9392
423 2 2.2208 13.5285 3.74835 21.9628
372 2 2.2208 7.9627 3.78362 27.5969
345 2 2.2208 13.6698 20.5306 27.5905
9037 2 2.2208 10.9398 -4.54919 27.7564
9157 2 2.2208 7.98113 -4.5505 19.253
346 2 2.2208 10.8029 -1.83462 13.7198
339 2 2.2208 2.3676 1.06602 13.6971
721 2 2.2208 5.24665 23.5528 5.11017
722 2 2.2208 5.14061 29.1512 4.9635
723 1 -1.1104 0.916102 24.8566 0.998507
724 1 -1.1104 1.01543 24.923 3.69287
725 1 -1.1104 0.99256 22.0869 0.699113
726 1 -1.1104 0.784854 27.7387 0.823373
727 2 2.2208 5.17262 26.2393 2.20264
728 1 -1.1104 0.894497 22.1114 3.70433
729 1 -1.1104 1.03242 27.7224 3.69956
730 1 -1.1104 3.78268 24.9378 0.756555
731 2 2.2208 2.40662 23.4531 2.24477
732 2 2.2208 2.25784 29.0184 2.18657
733 1 -1.1104 3.84627 24.7099 3.7633
734 2 2.2208 2.43349 26.263 5.04735
735 1 -1.1104 3.80863 22.2173 0.906076
736 1 -1.1104 3.66482 27.6717 0.932824
737 1 -1.1104 3.60006 22.0568 3.75375
738 1 -1.1104 3.72677 27.5333 3.61782
864 1 -1.1104 0.853937 21.9485 6.58289
747 1 -1.1104 6.55926 27.7642 3.60249
746 1 -1.1104 6.45878 22.1339 3.5756
742 1 -1.1104 6.53128 24.8075 0.747909
745 1 -1.1104 6.59864 27.6279 0.707006
867 1 -1.1104 6.4417 27.6321 6.41679
744 1 -1.1104 6.51649 22.0209 0.828942
866 1 -1.1104 6.49778 22.1512 6.42344
1036 2 2.2208 13.6358 29.1469 7.95371
869 1 -1.1104 3.68533 22.0319 6.50833
865 1 -1.1104 0.860883 27.5769 6.49064
870 1 -1.1104 3.78338 27.6874 6.54695
868 1 -1.1104 3.65263 24.9039 6.62341
863 1 -1.1104 6.62064 25.0402 6.37526
767 2 2.2208 13.4332 29.0487 2.41168
743 1 -1.1104 6.42139 25.0193 3.71223
748 2 2.2208 10.7529 23.4167 5.06281
749 2 2.2208 10.7689 29.1594 5.0544
750 1 -1.1104 12.2751 24.8476 0.857293
751 1 -1.1104 12.2042 24.7778 3.76491
752 1 -1.1104 11.9358 22.1862 0.861788
753 1 -1.1104 12.0195 27.6473 0.861183
754 2 2.2208 10.7047 26.3299 2.27385
755 1 -1.1104 12.1149 21.9457 3.65478
756 1 -1.1104 12.0961 27.5819 3.70169
757 1 -1.1104 9.41684 24.9256 0.856221
758 2 2.2208 7.97079 23.4815 2.25819
759 2 2.2208 7.95871 29.0706 2.24273
760 1 -1.1104 9.29076 24.7749 3.66329
761 2 2.2208 8.0266 26.365 5.04536
762 1 -1.1104 9.28623 22.1095 0.88832
763 1 -1.1104 9.33002 27.7542 0.826961
764 1 -1.1104 9.26955 21.8757 3.73459
765 1 -1.1104 9.29745 27.7431 3.54582
900 1 -1.1104 9.33828 27.7584 6.32371
895 1 -1.1104 11.9378 24.8875 6.40593
899 1 -1.1104 9.07806 22.0638 6.48703
768 2 2.2208 13.5052 26.2797 5.06089
766 2 2.2208 13.4819 23.4106 2.2069
898 1 -1.1104 9.35975 24.9927 6.47932
1007 2 2.2208 -0.30464 40.3455 10.8758
1058 2 2.2208 2.35226 40.2844 13.5842
769 2 2.2208 5.22181 34.7116 5.11592
770 1 -1.1104 0.91231 30.6586 0.849248
771 1 -1.1104 1.12324 36.1901 0.960011
773 1 -1.1104 0.994978 30.3947 3.63876
774 1 -1.1104 1.08136 36.1508 3.83228
776 1 -1.1104 1.08569 33.2836 1.02454
777 2 2.2208 5.21102 31.8232 2.31046
778 2 2.2208 5.28547 37.5493 2.33366
779 1 -1.1104 0.981052 33.3751 3.74907
781 1 -1.1104 3.56021 30.4373 0.843985
782 1 -1.1104 3.88532 36.0723 1.02438
783 2 2.2208 2.41735 34.7064 2.45144
784 1 -1.1104 3.74107 30.5098 3.46482
785 1 -1.1104 3.93231 36.1293 3.82549
786 2 2.2208 2.43306 31.7683 5.08625
787 2 2.2208 2.51287 37.5155 5.1006
788 1 -1.1104 3.95427 33.1843 0.883462
789 1 -1.1104 3.90763 33.2666 3.72907
927 1 -1.1104 3.7198 33.1511 6.5575
795 1 -1.1104 6.5583 33.3561 0.873005
923 1 -1.1104 0.981636 33.2808 6.46275
772 1 -1.1104 6.57266 36.2176 0.722821
775 1 -1.1104 6.73242 36.0757 3.68057
926 1 -1.1104 3.78973 36.0028 6.55076
922 1 -1.1104 6.46615 36.2813 6.6035
780 1 -1.1104 6.60056 33.3426 3.6294
921 1 -1.1104 6.60026 30.4594 6.43424
794 1 -1.1104 6.62045 30.4184 3.64373
919 1 -1.1104 0.956754 30.5061 6.56427
925 1 -1.1104 3.74253 30.3857 6.4253
924 1 -1.1104 6.57513 33.3146 6.45159
920 1 -1.1104 0.94824 36.0665 6.46035
1066 2 2.2208 13.5214 23.2933 13.5703
793 1 -1.1104 6.34198 30.4683 0.852628
796 2 2.2208 10.8297 34.6907 5.14904
797 1 -1.1104 12.1448 30.5231 1.00582
798 1 -1.1104 12.0934 36.0944 1.18205
799 1 -1.1104 12.1417 30.517 3.73925
800 1 -1.1104 12.2677 36.225 3.97158
801 1 -1.1104 12.2701 33.3805 0.961051
802 2 2.2208 10.8257 32.062 2.38268