ITEM: TIMESTEP
10000
ITEM: NUMBER OF ATOMS
17760
ITEM: BOX BOUNDS pp pp pp
-3.6943850924216165e-01 2.7709438509241956e+01
-4.5766684093964516e+00 3.3265666840939394e+02
-3.7322812817279061e-01 2.7713228128172656e+01
ITEM: ATOMS id type q x y z
1 2 2.2208 5.30322 1.21048 5.07396
2 1 -1.1104 0.931838 -3.34298 1.05106
3 1 -1.1104 1.03584 2.40364 0.786449
6 1 -1.1104 0.951469 -3.03332 3.83691
7 1 -1.1104 1.16576 2.63806 3.55836
10 1 -1.1104 1.02624 -0.502725 0.779621
12 2 2.2208 5.26216 -1.73635 2.2252
13 2 2.2208 5.15139 3.96462 2.28332
14 1 -1.1104 1.06345 -0.293569 3.55353
16 1 -1.1104 3.76953 -3.21407 0.952883
17 1 -1.1104 3.81936 2.55551 0.76915
18 2 2.2208 2.45969 1.06091 2.24206
19 1 -1.1104 3.84907 -2.89392 3.79461
20 1 -1.1104 3.92807 2.56816 3.5907
21 2 2.2208 2.53547 -1.72538 5.28566
23 1 -1.1104 3.84996 -0.237703 0.992705
24 1 -1.1104 4.00254 -0.187393 3.61587
170 1 -1.1104 1.16355 -0.389657 6.56232
4 1 -1.1104 6.65559 -3.0903 0.746565
11 1 -1.1104 6.7097 -0.248531 0.710668
9 1 -1.1104 6.66328 2.57503 3.72074
22 2 2.2208 2.56427 3.96077 5.02003
172 1 -1.1104 3.91189 -2.95064 6.5003
171 1 -1.1104 6.7228 -0.294974 6.49416
15 1 -1.1104 6.71057 -0.27188 3.56887
8 1 -1.1104 6.62326 -3.32069 3.67837
361 2 2.2208 10.7862 15.0392 13.5907
332 2 2.2208 13.67 17.9421 7.93628
167 1 -1.1104 1.2107 2.59834 6.43683
168 1 -1.1104 6.64358 -3.05879 6.45516
204 2 2.2208 13.4907 15.0836 5.16398
328 1 -1.1104 12.1706 13.7231 9.47065
5 1 -1.1104 6.65379 2.55967 0.862216
31 2 2.2208 10.7287 1.08219 5.09706
32 1 -1.1104 12.0956 -3.20865 0.804263
33 1 -1.1104 12.3803 2.50662 0.986605
34 1 -1.1104 12.2564 -3.16506 3.59809
35 1 -1.1104 12.2672 2.37508 3.80105
36 1 -1.1104 12.245 -0.312093 1.02013
37 2 2.2208 10.7925 -1.79306 2.24944
38 2 2.2208 10.8304 3.86632 2.22577
39 1 -1.1104 12.3095 -0.313421 3.75872
40 1 -1.1104 9.37745 -3.13292 0.899631
41 1 -1.1104 9.53134 2.54659 0.842001
42 2 2.2208 8.0646 1.12242 2.15612
43 1 -1.1104 9.49048 -3.11782 3.67927
44 1 -1.1104 9.429 2.47437 3.71781
45 2 2.2208 7.98838 -1.74697 5.13565
46 2 2.2208 7.98237 4.03009 5.06233
47 1 -1.1104 9.5463 -0.271852 0.899096
48 1 -1.1104 9.38046 -0.371356 3.68171
169 1 -1.1104 6.71472 2.53278 6.52371
207 1 -1.1104 12.1973 -0.353072 6.65461
206 1 -1.1104 12.3034 2.46018 6.61009
9026 2 2.2208 10.9502 -4.56878 5.12916
54 2 2.2208 5.28899 6.79597 5.1964
55 2 2.2208 5.3374 12.3987 5.13865
56 1 -1.1104 0.837014 8.24486 0.917465
58 1 -1.1104 0.935648 8.2243 3.78887
60 1 -1.1104 1.0323 5.31581 0.979354
61 1 -1.1104 1.09013 10.9612 1.03037
66 2 2.2208 5.27453 9.37279 2.36365
67 1 -1.1104 1.04442 5.42713 3.78759
68 1 -1.1104 1.00441 10.9594 3.85365
71 1 -1.1104 3.6468 8.09935 1.07798
72 2 2.2208 2.40297 6.71606 2.41465
73 2 2.2208 2.47589 12.418 2.53464
74 1 -1.1104 3.93969 8.14326 3.76964
75 2 2.2208 2.42304 9.62499 5.16067
76 1 -1.1104 3.79267 5.30697 0.753529
77 1 -1.1104 3.76998 10.8354 1.07821
79 1 -1.1104 3.95842 5.44612 3.69109
80 1 -1.1104 3.73525 10.9893 3.76417
236 1 -1.1104 1.04529 5.28151 6.4757
238 1 -1.1104 3.96835 8.09647 6.56043
65 1 -1.1104 6.68203 11.184 6.43013
237 1 -1.1104 6.59674 5.48093 6.63353
69 1 -1.1104 6.60086 5.3957 3.7372
70 1 -1.1104 6.56033 10.9595 3.73031
64 1 -1.1104 6.53352 10.8698 1.05274
331 2 2.2208 10.8223 17.8342 10.7172
323 1 -1.1104 12.1649 16.549 9.37698
239 1 -1.1104 3.85175 5.34181 6.38538
234 1 -1.1104 1.12426 8.11628 6.51167
78 1 -1.1104 3.89357 10.9637 6.5081
314 1 -1.1104 9.4465 16.5828 9.4162
57 1 -1.1104 6.64405 8.0304 0.938451
63 1 -1.1104 6.58903 5.21197 0.961161
59 1 -1.1104 6.81394 8.08248 3.83277
84 2 2.2208 10.8001 6.65357 5.14851
85 2 2.2208 10.8522 12.2726 5.19871
86 1 -1.1104 12.2562 8.15373 1.05505
87 1 -1.1104 12.2705 8.13909 3.82826
88 1 -1.1104 12.2411 5.22145 0.896812
89 1 -1.1104 12.2215 10.7871 0.821281
91 2 2.2208 10.8947 9.39353 2.48738
92 1 -1.1104 12.1142 5.2801 3.60452
93 1 -1.1104 12.2247 10.8751 3.8463
94 1 -1.1104 9.55404 8.06212 0.941153
95 2 2.2208 8.09021 6.66171 2.33972
96 2 2.2208 8.00258 12.296 2.39434
97 1 -1.1104 9.45503 8.06038 3.68005
98 2 2.2208 8.07259 9.5365 5.16139
99 1 -1.1104 9.46897 5.28409 0.823671
100 1 -1.1104 9.38108 10.9697 1.0275
102 1 -1.1104 9.49363 5.27891 3.73277
103 1 -1.1104 9.53698 10.9375 3.74873
90 1 -1.1104 12.2045 10.8582 6.5917
266 1 -1.1104 12.1865 5.26774 6.41585
324 2 2.2208 10.8068 20.6408 7.9862
9049 2 2.2208 2.46317 -4.48953 13.5666
269 1 -1.1104 9.35883 5.3304 6.69967
267 1 -1.1104 9.32401 8.11137 6.46521
9023 2 2.2208 5.18305 -4.418 5.11145
106 2 2.2208 5.22021 17.8821 5.20647
107 1 -1.1104 1.0946 13.8278 1.11914
109 1 -1.1104 0.820915 19.3993 0.924349
113 1 -1.1104 1.02953 13.8071 3.79146
114 1 -1.1104 0.771936 19.3546 3.73521
116 1 -1.1104 0.984042 16.6058 0.98274
119 2 2.2208 5.23122 15.0164 2.31312
120 2 2.2208 5.13134 20.6865 2.39432
121 1 -1.1104 0.998184 16.5722 3.82917
123 1 -1.1104 3.80844 13.6663 0.84515
125 1 -1.1104 3.71598 19.4585 1.12529
127 2 2.2208 2.26421 17.9571 2.43888
128 1 -1.1104 3.82415 13.7865 3.75725
129 1 -1.1104 3.65964 19.3006 3.81198
130 2 2.2208 2.31037 15.2634 5.23132
131 2 2.2208 2.3039 20.6932 5.18449
132 1 -1.1104 3.77475 16.4955 1.06945
134 1 -1.1104 3.76949 16.5536 3.85424
108 1 -1.1104 0.99319 13.5452 6.59864
139 1 -1.1104 6.52724 19.2036 3.70791
126 1 -1.1104 3.77588 19.3461 6.55306
124 1 -1.1104 3.78872 13.785 6.45657
138 1 -1.1104 6.62478 19.2448 0.949297
140 1 -1.1104 6.63789 16.4774 0.895616
115 1 -1.1104 6.66034 13.6948 3.61962
117 1 -1.1104 0.770425 16.5018 6.68433
112 1 -1.1104 6.82633 19.2264 6.52609
122 1 -1.1104 6.5023 16.5196 3.78704
111 1 -1.1104 6.6743 13.6391 6.63555
104 2 2.2208 13.6839 12.151 2.29296
118 1 -1.1104 6.56654 16.5165 6.67876
143 1 -1.1104 12.215 13.7208 6.65052
110 1 -1.1104 6.59268 13.5663 0.950781
141 2 2.2208 10.7447 17.7897 5.20484
142 1 -1.1104 12.3111 13.4608 0.853417
144 1 -1.1104 12.1851 19.1294 0.978413
146 1 -1.1104 12.2406 13.6926 3.73756
147 1 -1.1104 12.3919 19.1175 3.75576
148 1 -1.1104 12.2691 16.2552 1.04854
150 2 2.2208 10.9121 14.952 2.46906
151 2 2.2208 10.7453 20.5365 2.33232
152 1 -1.1104 12.2181 16.4828 3.69154
153 1 -1.1104 9.44288 13.681 1.02156
155 1 -1.1104 9.26213 19.2124 0.983903
157 2 2.2208 7.862 17.8715 2.3289
158 1 -1.1104 9.35575 13.7384 3.81426
159 1 -1.1104 9.45972 19.2465 3.76433
160 2 2.2208 7.96484 15.0556 5.2213
161 2 2.2208 8.04339 20.6676 5.18907
162 1 -1.1104 9.37446 16.3816 0.994304
164 1 -1.1104 9.44035 16.4252 3.87725
156 1 -1.1104 9.41136 19.3577 6.58902
163 1 -1.1104 9.286 16.5857 6.57827
9022 2 2.2208 2.42222 -4.56115 2.31704
322 1 -1.1104 9.51616 13.6689 12.1609
9028 2 2.2208 2.40348 -4.55227 7.97292
9045 2 2.2208 7.97587 -4.46527 13.4612
173 1 -1.1104 3.97144 2.55776 6.43665
174 1 -1.1104 3.84153 -0.113104 6.54911
9025 2 2.2208 8.16577 -4.48486 2.34155
362 2 2.2208 7.93602 17.9446 13.6669
166 1 -1.1104 1.08976 -3.04961 6.57826
175 2 2.2208 5.29091 1.0982 10.6687
176 1 -1.1104 1.09911 -3.15824 12.0841
177 1 -1.1104 0.965701 2.48075 12.0384
180 1 -1.1104 0.983684 -3.14574 9.23854
181 1 -1.1104 0.908402 2.44013 9.19095
184 1 -1.1104 1.07019 -0.310981 12.1971
186 2 2.2208 5.29962 -1.59466 7.94101
187 2 2.2208 5.30457 3.94292 7.95818
188 1 -1.1104 0.928071 -0.441883 9.20026
190 1 -1.1104 3.93889 -3.1818 12.2396
191 1 -1.1104 3.78214 2.35708 12.1179
192 2 2.2208 2.48894 1.07201 7.89374
193 1 -1.1104 3.81406 -3.15571 9.38856
194 1 -1.1104 3.88488 2.56099 9.46268
195 2 2.2208 2.57809 -1.81314 10.7978
196 2 2.2208 2.39262 3.88092 10.6219
197 1 -1.1104 3.89843 -0.355643 12.1233
198 1 -1.1104 3.93126 -0.388875 9.36766
179 1 -1.1104 6.63828 2.52937 12.2056
189 1 -1.1104 6.81619 -0.192798 9.2356
183 1 -1.1104 6.51505 2.56044 9.44857
178 1 -1.1104 6.62067 -3.24905 12.1156
231 2 2.2208 13.5265 20.6271 5.18493
339 2 2.2208 2.42781 1.01771 13.5457
341 2 2.2208 5.19217 3.91506 13.5297
9029 2 2.2208 5.22336 -4.50942 10.8007
325 2 2.2208 10.7855 15.1816 7.92455
205 1 -1.1104 12.3289 -3.01745 6.55766
210 1 -1.1104 9.31875 -0.280689 6.47719
208 1 -1.1104 9.46417 -3.14528 6.34064
316 2 2.2208 8.09185 20.73 10.8776
182 1 -1.1104 6.55078 -2.84297 9.23231
9024 2 2.2208 -0.398863 -4.49601 5.16787
358 2 2.2208 5.08311 20.7544 13.5535
185 1 -1.1104 6.62999 -0.431178 12.0149
209 1 -1.1104 9.53382 2.52514 6.61116
211 2 2.2208 10.8075 1.03776 10.8373
212 1 -1.1104 12.1823 -2.94686 12.0863
213 1 -1.1104 12.289 2.67278 12.2869
214 1 -1.1104 12.4038 -3.11788 9.33403
215 1 -1.1104 12.1405 2.45392 9.31042
216 1 -1.1104 12.2936 -0.17695 12.1858
217 2 2.2208 10.874 -1.7052 8.01153
218 2 2.2208 10.7743 3.84919 7.95015
219 1 -1.1104 12.2438 -0.350639 9.50526
220 1 -1.1104 9.3666 -3.17393 12.0824
221 1 -1.1104 9.53421 2.52516 12.1607
222 2 2.2208 8.15547 1.16099 8.04756
223 1 -1.1104 9.60198 -3.18127 9.17009
224 1 -1.1104 9.42963 2.54905 9.4842
225 2 2.2208 8.10435 -1.77442 10.7139
226 2 2.2208 8.04834 3.97287 10.8317
227 1 -1.1104 9.41567 -0.470421 12.1664
228 1 -1.1104 9.48295 -0.372492 9.36061
350 2 2.2208 10.7753 4.10379 13.6816
338 2 2.2208 5.35816 -1.75704 13.4931
320 2 2.2208 8.03699 17.8928 7.97606
343 2 2.2208 8.02694 1.21511 13.426
62 1 -1.1104 1.0677 10.8207 6.65186
346 2 2.2208 10.8848 -1.73597 13.5123
235 1 -1.1104 6.67646 8.22535 6.61121
240 2 2.2208 5.23826 6.83996 10.6647
241 2 2.2208 5.28142 12.2542 10.7256
242 1 -1.1104 1.08905 8.09608 12.1811
244 1 -1.1104 0.957439 8.25878 9.33831
246 1 -1.1104 1.04528 5.38629 12.0974
247 1 -1.1104 1.10696 10.7809 12.2706
250 2 2.2208 5.20112 9.64147 7.84782
251 1 -1.1104 1.10418 5.37882 9.27691
252 1 -1.1104 0.943886 10.9526 9.47092
255 1 -1.1104 3.88368 8.16602 12.0757
256 2 2.2208 2.47332 6.73502 7.85716
257 2 2.2208 2.36708 12.2406 7.99247
258 1 -1.1104 3.72726 8.25551 9.23581
259 2 2.2208 2.37432 9.56643 10.7491
260 1 -1.1104 3.72008 5.40539 12.0736
261 1 -1.1104 3.96013 10.892 12.036
262 1 -1.1104 3.82282 5.27245 9.33502
263 1 -1.1104 3.8521 11.0929 9.27985
248 1 -1.1104 6.70488 5.48825 12.212
253 1 -1.1104 6.72637 5.39994 9.45378
243 1 -1.1104 6.6528 8.24947 12.2815
254 1 -1.1104 6.61995 10.8103 9.18226
9032 2 2.2208 10.8947 -4.54713 10.787
9031 2 2.2208 8.00403 -4.44467 7.87056
342 2 2.2208 -0.437893 15.1573 13.6042
318 1 -1.1104 9.41362 19.2857 9.41615
101 1 -1.1104 9.36772 10.9432 6.63224
249 1 -1.1104 6.72069 11.0297 12.0971
245 1 -1.1104 6.59057 8.10798 9.3928
327 1 -1.1104 12.2504 19.3493 9.4239
265 1 -1.1104 12.0333 8.07002 6.58496
264 1 -1.1104 9.4038 11.0084 9.457
268 1 -1.1104 9.41715 5.35767 9.42068
270 1 -1.1104 9.38289 10.7572 12.1576
271 1 -1.1104 9.40357 5.2858 12.0959
272 2 2.2208 8.06646 9.52885 10.733
273 1 -1.1104 9.33122 8.15298 9.19672
274 2 2.2208 8.11687 12.2897 7.85972
275 2 2.2208 7.97674 6.85411 7.92155
276 2 2.2208 10.7267 6.64305 10.693
277 2 2.2208 10.8143 12.3355 10.8996
278 1 -1.1104 12.3412 8.19698 12.207
279 1 -1.1104 12.1975 8.14803 9.35944
280 1 -1.1104 12.2534 5.44978 12.1582
281 1 -1.1104 12.2467 10.8816 12.2255
282 2 2.2208 10.7724 9.51762 7.96903
283 1 -1.1104 12.2248 5.32159 9.28544
284 1 -1.1104 12.1174 10.9479 9.41734
285 1 -1.1104 9.48019 8.13792 12.0948
321 1 -1.1104 9.25949 19.112 12.1632
354 2 2.2208 7.93826 6.80691 13.566
355 2 2.2208 10.9272 9.53916 13.5449
330 1 -1.1104 12.3565 13.776 12.2433
133 1 -1.1104 3.69347 16.6001 6.6322
302 1 -1.1104 0.932693 19.3874 6.57554
154 1 -1.1104 9.46628 13.7798 6.41374
297 1 -1.1104 6.56183 13.7332 12.4076
306 1 -1.1104 6.54797 16.5873 12.313
288 1 -1.1104 6.34401 19.2874 9.39502
303 2 2.2208 2.26611 17.8959 8.046
298 1 -1.1104 0.955686 19.3613 12.1882
305 1 -1.1104 3.80497 13.8266 9.44389
304 1 -1.1104 3.68888 16.4616 9.36196
301 1 -1.1104 3.7317 19.2963 9.28362
295 2 2.2208 5.20383 15.029 8.01249
310 2 2.2208 2.28788 15.0398 10.7526
309 2 2.2208 2.31876 20.755 10.7171
308 1 -1.1104 3.76332 16.406 12.2527
307 1 -1.1104 0.858062 16.456 12.1729
300 2 2.2208 5.12929 17.9607 10.8658
299 1 -1.1104 0.914236 13.6595 12.1793
294 1 -1.1104 0.946453 13.7309 9.42138
286 1 -1.1104 3.69678 19.2446 12.1719
287 1 -1.1104 3.76194 13.6327 12.3282
291 1 -1.1104 0.73917 19.3318 9.3463
292 1 -1.1104 0.75675 16.4661 9.48019
293 2 2.2208 5.09781 20.7198 8.0627
289 1 -1.1104 6.70535 16.4822 9.48026
290 1 -1.1104 6.59277 13.6037 9.28503
296 1 -1.1104 6.36985 19.285 12.1809
326 1 -1.1104 12.1932 16.4278 12.1673
82 2 2.2208 -0.318284 9.62341 2.40629
145 1 -1.1104 12.2125 19.2194 6.62195
360 2 2.2208 10.8276 20.5815 13.6915
329 1 -1.1104 11.9354 19.155 12.2678
319 1 -1.1104 9.24107 13.8324 9.21512
315 1 -1.1104 9.38261 16.3508 12.0853
149 1 -1.1104 12.295 16.4065 6.47042
317 2 2.2208 8.04933 15.1054 10.8174
351 2 2.2208 2.37878 6.74781 13.573
230 2 2.2208 13.7894 -1.72247 10.7344
9044 2 2.2208 13.6272 -4.53845 13.5928
53 2 2.2208 13.6352 12.2674 7.91321
200 2 2.2208 -0.388767 -1.70706 7.88497
367 2 2.2208 -0.471284 9.5021 13.4746
340 2 2.2208 13.7084 1.17499 13.5704
26 2 2.2208 -0.457179 1.31132 4.99543
232 2 2.2208 13.5427 9.45141 5.17188
233 2 2.2208 13.7094 3.83286 5.12014
9033 2 2.2208 13.6732 -4.38198 7.92885
203 2 2.2208 13.606 3.883 10.7783
49 2 2.2208 13.6553 1.00733 2.4507
25 2 2.2208 -0.296798 -1.77255 2.33581
199 2 2.2208 -0.305772 3.84374 7.75251
165 2 2.2208 13.7323 17.8214 2.43385
81 2 2.2208 -0.321763 6.79101 5.11062
50 2 2.2208 13.7203 -1.67891 5.16368
359 2 2.2208 5.09734 15.0691 13.6655
352 2 2.2208 5.15219 9.58678 13.6202
9041 2 2.2208 5.24928 -4.40009 -0.503583
353 2 2.2208 2.33988 12.3225 13.5255
363 2 2.2208 13.4869 17.7269 13.6676
357 2 2.2208 2.36249 17.8836 13.656
380 2 2.2208 2.36575 9.42687 -0.438457
349 2 2.2208 7.91992 20.6638 -0.4403
381 2 2.2208 5.22361 12.2305 -0.373544
344 2 2.2208 13.6222 15.0384 -0.406155
388 2 2.2208 5.20131 1.09665 16.2752
389 1 -1.1104 0.983296 -3.00397 17.7966
390 1 -1.1104 0.955552 2.47125 17.7934
393 1 -1.1104 1.11817 -3.06753 15.0483
395 1 -1.1104 0.961076 2.45326 14.7428
401 1 -1.1104 0.959613 -0.225345 17.7252
403 2 2.2208 5.22279 -1.70206 19.1728
404 2 2.2208 5.1571 4.05997 19.045
405 1 -1.1104 1.02795 -0.334963 14.8691
409 1 -1.1104 3.78785 -3.11876 17.745
410 1 -1.1104 3.89223 2.45013 17.6871
411 2 2.2208 2.40448 1.09811 19.1117
412 1 -1.1104 3.85503 -3.05328 14.9827
414 1 -1.1104 3.76997 2.47689 14.9619
416 2 2.2208 2.35838 -1.66571 16.4525
417 2 2.2208 2.37599 3.91121 16.3422
418 1 -1.1104 3.74797 -0.314424 17.7049
419 1 -1.1104 3.71996 -0.332481 14.8417
407 1 -1.1104 6.50833 -0.163279 14.8658
420 1 -1.1104 3.90565 -0.430466 20.627
413 1 -1.1104 3.79928 -3.07535 20.5173
392 1 -1.1104 6.46874 2.49185 17.741
399 1 -1.1104 6.64438 2.57661 14.8274
347 2 2.2208 8.01094 14.9866 27.708
391 1 -1.1104 6.61096 -3.12437 17.8449
415 1 -1.1104 3.82796 2.48487 20.3642
402 1 -1.1104 6.7276 -0.279823 17.6159
397 1 -1.1104 6.55012 -2.98055 15.0171
431 2 2.2208 10.8843 1.07485 16.3242
432 1 -1.1104 12.2394 -3.08892 17.8489
433 1 -1.1104 12.1608 2.53051 17.7756
434 1 -1.1104 12.1681 -3.07427 14.9869
436 1 -1.1104 12.3893 2.59247 14.9986
438 1 -1.1104 12.2669 -0.32925 17.7162
439 2 2.2208 10.8903 -1.65957 19.2024
440 2 2.2208 10.8883 3.82661 19.1208
441 1 -1.1104 12.3234 -0.239716 15.0021
443 1 -1.1104 9.46827 -3.10259 17.8811
444 1 -1.1104 9.39242 2.454 17.6434
445 2 2.2208 8.06592 1.10793 19.0696
446 1 -1.1104 9.32469 -3.08649 14.9146
448 1 -1.1104 9.45412 2.53865 14.8822
450 2 2.2208 8.00868 -1.64322 16.271
451 2 2.2208 7.91555 3.80343 16.3714
452 1 -1.1104 9.44464 -0.362648 17.6841
453 1 -1.1104 9.40521 -0.170192 14.9097
447 1 -1.1104 9.45692 -3.04636 20.668
366 2 2.2208 2.31696 3.87876 27.5828
379 2 2.2208 5.304 6.61895 27.5436
373 2 2.2208 2.37279 15.1578 27.6671
651 2 2.2208 13.6515 6.58414 19.2026
408 1 -1.1104 6.69692 -0.291749 20.4124
435 1 -1.1104 12.2772 -3.0845 20.6196
454 1 -1.1104 9.56636 -0.25023 20.5006
442 1 -1.1104 12.2188 -0.319594 20.4886
437 1 -1.1104 12.2235 2.47554 20.5716
9037 2 2.2208 10.8054 -4.59283 27.6584
464 2 2.2208 5.25023 6.8095 16.4115
465 2 2.2208 5.18706 12.3266 16.4437
466 1 -1.1104 0.907571 8.10463 17.8603
468 1 -1.1104 0.939676 8.1997 14.9974
472 1 -1.1104 0.984514 5.16415 17.7299
473 1 -1.1104 0.89689 10.9637 17.9124
476 2 2.2208 5.19557 9.51323 19.2229
477 1 -1.1104 0.969247 5.37178 14.8679
479 1 -1.1104 0.999884 10.9108 14.9648
485 1 -1.1104 3.75285 8.1317 17.9466
486 2 2.2208 2.3492 6.80961 19.1433
487 2 2.2208 2.41644 12.3449 19.2344
488 1 -1.1104 3.85635 7.96332 14.8569
490 2 2.2208 2.42457 9.55723 16.2826
491 1 -1.1104 3.74664 5.36119 17.7354
492 1 -1.1104 3.74624 10.9059 17.6858
493 1 -1.1104 3.95295 5.18891 15.0757
495 1 -1.1104 3.713 10.8711 14.9195
494 1 -1.1104 3.80248 5.36587 20.3998
478 1 -1.1104 0.970607 5.18269 20.5514
467 1 -1.1104 6.44411 8.06848 17.8191
475 1 -1.1104 6.65976 10.9747 17.7195
480 1 -1.1104 1.05053 10.8281 20.7365
469 1 -1.1104 0.825141 8.02722 20.6964
470 1 -1.1104 6.68108 8.19817 15.1159
474 1 -1.1104 6.66054 5.351 17.8939
483 1 -1.1104 6.54577 10.957 14.9911
482 1 -1.1104 6.67346 5.30157 20.5764
484 1 -1.1104 6.51107 10.8186 20.6221
489 1 -1.1104 3.77273 8.11887 20.7208
481 1 -1.1104 6.57097 5.32993 14.9041
500 2 2.2208 10.8486 6.68972 16.4745
501 2 2.2208 10.7806 12.1012 16.4336
502 1 -1.1104 12.1961 7.98568 17.8929
503 1 -1.1104 12.1671 8.15837 15.0426
505 1 -1.1104 12.3411 5.29172 17.7089
506 1 -1.1104 12.4192 10.8091 17.8251
507 2 2.2208 10.9358 9.47434 19.212
508 1 -1.1104 12.3516 5.42313 14.9744
510 1 -1.1104 12.2624 10.8149 15.0526
512 1 -1.1104 9.31309 8.05786 17.7787
513 2 2.2208 7.98832 6.67676 19.2967
514 2 2.2208 7.92952 12.2321 19.2652
515 1 -1.1104 9.53499 8.19472 14.9079
517 2 2.2208 7.9811 9.52003 16.3194
518 1 -1.1104 9.45715 5.23015 17.7824
519 1 -1.1104 9.441 10.7587 17.8653
520 1 -1.1104 9.39956 5.4378 15.0732
522 1 -1.1104 9.36341 10.9542 15.0461
521 1 -1.1104 9.47388 5.33668 20.6027
471 1 -1.1104 6.64847 8.18763 20.6582
9118 2 2.2208 7.91581 -4.35771 24.7171
375 2 2.2208 2.28335 20.7562 27.5796
9157 2 2.2208 7.96099 -4.43545 19.1785
718 1 -1.1104 6.54011 19.1868 23.3716
527 2 2.2208 5.22586 17.9075 16.3366
528 1 -1.1104 0.878076 13.6813 17.7338
529 1 -1.1104 1.05213 19.0616 17.8621
532 1 -1.1104 0.813219 13.6841 15.004
534 1 -1.1104 1.09415 19.2988 14.9882
540 1 -1.1104 0.995816 16.4018 17.8741
542 2 2.2208 5.25362 15.0924 19.2122
543 2 2.2208 5.17217 20.6482 19.2321
544 1 -1.1104 1.0913 16.5199 15.0956
548 1 -1.1104 3.68227 13.6261 17.7522
549 1 -1.1104 3.67467 19.1074 17.7812
550 2 2.2208 2.35937 17.7186 19.2959
551 1 -1.1104 3.86811 13.7162 15.0962
553 1 -1.1104 3.94487 19.2441 15.0047
555 2 2.2208 2.33894 15.149 16.4729
556 2 2.2208 2.39228 20.6077 16.3821
557 1 -1.1104 3.89013 16.4755 17.7745
558 1 -1.1104 3.6283 16.5081 14.9624
546 1 -1.1104 6.59551 16.5835 15.1099
530 1 -1.1104 6.70835 13.8091 17.9105
538 1 -1.1104 6.60361 19.4152 15.0515
533 1 -1.1104 0.937074 13.6775 20.6741
559 1 -1.1104 3.85509 16.3903 20.6707
536 1 -1.1104 6.69739 13.6875 15.0665
545 1 -1.1104 1.06941 16.3407 20.6359
535 1 -1.1104 0.951759 19.2519 20.5598
554 1 -1.1104 3.7479 19.1096 20.6527
458 2 2.2208 -0.432598 20.6726 19.207
531 1 -1.1104 6.49312 19.1547 17.8532
541 1 -1.1104 6.78716 16.4338 17.8696
579 1 -1.1104 9.52247 13.6373 20.7969
547 1 -1.1104 6.58574 16.5485 20.5473
563 2 2.2208 10.7934 17.9105 16.5954
564 1 -1.1104 12.1971 13.6108 17.8201
565 1 -1.1104 12.1918 19.4138 17.9871
566 1 -1.1104 12.3686 13.5977 15.1272
568 1 -1.1104 12.2582 19.1018 15.1347
570 1 -1.1104 12.1363 16.505 17.8547
571 2 2.2208 10.8435 15.0169 19.1983
572 2 2.2208 10.816 20.7631 19.3303
573 1 -1.1104 12.1574 16.3996 15.1676
575 1 -1.1104 9.318 13.4938 17.968
576 1 -1.1104 9.2496 19.2571 17.9065
577 2 2.2208 8.0377 17.8449 19.2148
578 1 -1.1104 9.38411 13.7029 15.0459
580 1 -1.1104 9.49066 19.1704 15.1256
582 2 2.2208 8.0139 15.0861 16.3355
583 2 2.2208 8.12436 20.7331 16.5188
584 1 -1.1104 9.46117 16.3854 17.7617
585 1 -1.1104 9.3952 16.4829 14.7947
574 1 -1.1104 12.4384 16.5537 20.6342
586 1 -1.1104 9.29667 16.4923 20.6011
581 1 -1.1104 9.59113 19.1628 20.6503
569 1 -1.1104 12.3507 19.3448 20.7024
539 1 -1.1104 6.6945 19.3205 20.5776
406 1 -1.1104 0.906731 -0.389288 20.4607
396 1 -1.1104 0.964471 2.47775 20.5731
646 2 2.2208 -0.309755 15.1643 25.0277
394 1 -1.1104 0.86606 -3.14067 20.6233
591 2 2.2208 5.15338 1.06569 21.7988
592 1 -1.1104 0.837427 -3.15263 23.5101
593 1 -1.1104 0.897076 2.42847 23.3335
596 1 -1.1104 1.04732 -3.075 26.2854
597 1 -1.1104 1.07352 2.4319 26.1272
600 1 -1.1104 1.01058 -0.344919 23.1505
602 2 2.2208 5.22718 -1.67565 24.725
603 2 2.2208 5.15323 3.79849 24.6956
604 1 -1.1104 0.908775 -0.276957 26.0167
606 1 -1.1104 3.78295 -3.104 23.4979
607 1 -1.1104 3.64801 2.37944 23.1381
608 2 2.2208 2.33158 1.12515 24.5577
609 1 -1.1104 3.91465 -2.99502 26.1909
610 1 -1.1104 3.8053 2.40804 25.9922
611 2 2.2208 2.383 -1.76817 21.9177
612 2 2.2208 2.43478 3.84307 21.7361
613 1 -1.1104 3.84931 -0.289208 23.2101
614 1 -1.1104 3.77646 -0.265389 26.1763
398 1 -1.1104 6.47224 -2.96461 20.618
595 1 -1.1104 6.52335 2.45913 23.1823
601 1 -1.1104 6.68377 -0.29845 23.2313
365 2 2.2208 2.40084 -1.75373 27.48
9119 2 2.2208 10.8045 -4.39724 22.0158
623 2 2.2208 -0.359313 17.754 22.0224
372 2 2.2208 8.03754 3.87921 27.6427
560 1 -1.1104 12.1602 16.3946 26.3496
400 1 -1.1104 6.69162 2.44748 20.4926
9159 2 2.2208 13.5751 -4.54756 19.2028
594 1 -1.1104 6.58747 -2.92628 23.5417
598 1 -1.1104 6.64081 -2.94124 26.1807
605 1 -1.1104 6.80387 -0.169971 26.1547
449 1 -1.1104 9.52385 2.47606 20.5057
599 1 -1.1104 6.70493 2.47885 26.0914
627 2 2.2208 10.8888 1.01163 21.9466
628 1 -1.1104 12.1145 -3.19771 23.485
629 1 -1.1104 12.1748 2.48459 23.4261
630 1 -1.1104 12.248 -2.91892 26.2546
631 1 -1.1104 12.2593 2.45897 26.1209
632 1 -1.1104 12.2309 -0.375484 23.2452
633 2 2.2208 10.8582 -1.74473 24.7913
634 2 2.2208 10.8951 3.79955 24.8379
635 1 -1.1104 12.2218 -0.203499 26.1482
636 1 -1.1104 9.3482 -2.87301 23.4326
637 1 -1.1104 9.48098 2.51117 23.398
638 2 2.2208 7.9707 1.11817 24.6144
639 1 -1.1104 9.49255 -3.09571 26.2038
640 1 -1.1104 9.40736 2.41989 26.2768
641 2 2.2208 8.02129 -1.69747 21.9011
642 2 2.2208 8.07975 3.80725 21.9952
643 1 -1.1104 9.40125 -0.25217 23.3051
644 1 -1.1104 9.53975 -0.281896 26.1179
461 2 2.2208 13.6517 20.6837 22.1965
422 2 2.2208 13.6922 9.3801 22.0081
9122 2 2.2208 5.28406 -4.48543 22.134
617 1 -1.1104 9.48793 16.47 23.338
427 2 2.2208 -0.509435 3.77341 19.1325
496 1 -1.1104 3.84966 10.9281 20.6486
656 2 2.2208 5.11701 6.74275 22.0192
657 2 2.2208 5.28354 12.2762 21.9983
658 1 -1.1104 0.991883 8.14474 23.3709
660 1 -1.1104 1.05398 8.25721 26.1572
662 1 -1.1104 1.11172 5.1663 23.4206
663 1 -1.1104 0.882203 10.9353 23.6683
666 2 2.2208 5.16365 9.56614 24.8964
667 1 -1.1104 0.894279 5.25735 26.2131
668 1 -1.1104 1.0955 10.972 26.352
671 1 -1.1104 3.69658 7.98864 23.401
672 2 2.2208 2.40934 6.57781 24.7529
673 2 2.2208 2.40396 12.2996 24.9693
674 1 -1.1104 3.97163 7.96799 26.2565
675 2 2.2208 2.36599 9.47294 22.0964
676 1 -1.1104 3.72643 5.22925 23.1562
677 1 -1.1104 3.82656 10.7149 23.4931
678 1 -1.1104 3.76475 5.20261 26.1778
679 1 -1.1104 3.80836 10.8853 26.2657
659 1 -1.1104 6.55591 8.12613 23.467
669 1 -1.1104 6.57682 5.28145 26.1837
664 1 -1.1104 6.473 5.36493 23.57
661 1 -1.1104 6.6517 8.00012 26.1999
9158 2 2.2208 10.7244 -4.47455 16.3869
9121 2 2.2208 2.33156 -4.55321 24.8061
384 2 2.2208 10.8396 6.71022 27.6009
511 1 -1.1104 12.2307 10.8887 20.6558
516 1 -1.1104 9.45167 8.0977 20.6858
509 1 -1.1104 12.1575 5.2009 20.5661
670 1 -1.1104 6.68716 10.8413 26.3826
504 1 -1.1104 12.3329 7.94632 20.8179
523 1 -1.1104 9.33425 10.8928 20.5826
665 1 -1.1104 6.68851 10.864 23.5334
687 1 -1.1104 9.42002 10.8049 26.2029
688 1 -1.1104 9.45587 5.14921 26.3038
689 1 -1.1104 9.42889 10.8766 23.479
690 1 -1.1104 9.41188 5.23635 23.4535
691 2 2.2208 8.01444 9.50207 22.1425
692 1 -1.1104 9.38064 8.0561 26.3805
693 2 2.2208 8.04759 12.1983 24.7952
694 2 2.2208 7.99099 6.71362 24.8212
695 2 2.2208 10.8573 6.66193 22.1501
696 2 2.2208 10.8793 12.2622 22.0207
697 1 -1.1104 12.2497 7.96499 23.5398
698 1 -1.1104 12.3154 7.99148 26.3905
699 1 -1.1104 12.1546 5.21681 23.4179
700 1 -1.1104 12.2467 10.7711 23.3892
701 2 2.2208 10.8183 9.4489 24.9534
702 1 -1.1104 12.3365 5.25618 26.2244
703 1 -1.1104 12.1389 10.9402 26.1379
704 1 -1.1104 9.4168 8.16475 23.6322
524 1 -1.1104 12.3202 16.464 23.3485
386 2 2.2208 10.8103 12.1609 27.5773
552 1 -1.1104 3.71244 13.6252 20.5025
621 2 2.2208 -0.386219 6.72847 16.4232
462 2 2.2208 10.8722 17.7435 22.0912
712 1 -1.1104 6.51182 13.7134 26.2581
709 1 -1.1104 6.53006 13.6229 23.5147
647 2 2.2208 2.53212 15.049 22.0592
649 2 2.2208 2.38678 20.661 21.9973
652 1 -1.1104 3.97844 16.4514 23.5151
655 1 -1.1104 1.0744 16.5809 23.4107
681 1 -1.1104 3.80069 13.7695 26.1252
682 1 -1.1104 3.77055 16.5732 26.3995
683 2 2.2208 2.41442 17.9374 24.8567
686 1 -1.1104 3.79712 19.435 26.3451
705 2 2.2208 5.34564 17.7968 22.0175
706 1 -1.1104 1.05236 13.7935 23.5364
707 1 -1.1104 0.931514 19.3479 23.3342
711 1 -1.1104 3.69106 19.3195 23.4939
713 1 -1.1104 3.82374 13.574 23.331
715 1 -1.1104 0.983035 19.3342 26.1976
716 1 -1.1104 0.999428 16.4336 26.1764
717 1 -1.1104 0.987937 13.7092 26.5107
719 2 2.2208 5.13358 20.6845 24.7878
720 2 2.2208 5.22504 15.0783 24.9388
714 1 -1.1104 6.59459 16.5496 26.3466
460 2 2.2208 13.626 20.7164 16.5162
9188 2 2.2208 5.21355 -4.4108 16.3999
588 1 -1.1104 6.60177 19.3076 26.0752
561 1 -1.1104 9.28995 13.6631 23.5499
616 2 2.2208 8.04953 20.5538 22.2509
620 1 -1.1104 9.38192 16.4326 26.2226
526 2 2.2208 10.8001 20.6397 25.0093
567 1 -1.1104 12.2662 13.5798 20.5904
525 2 2.2208 10.8996 15.0682 24.8136
589 1 -1.1104 9.43907 13.5787 26.1929
463 1 -1.1104 12.152 13.672 23.4639
498 1 -1.1104 12.3955 13.595 26.1419
385 2 2.2208 8.05363 9.32944 27.6516
587 2 2.2208 7.93428 17.7821 24.8622
537 1 -1.1104 6.52777 13.7921 20.7249
680 1 -1.1104 6.73618 16.4381 23.4416
497 1 -1.1104 12.1807 19.2569 23.638
423 2 2.2208 13.6207 3.86933 21.8959
562 1 -1.1104 9.30399 19.1793 23.5803
590 1 -1.1104 9.53822 19.3038 26.3929
499 1 -1.1104 12.2416 19.2488 26.3448
615 2 2.2208 7.93724 14.9659 22.0408
9187 2 2.2208 2.26772 -4.46793 19.1733
369 2 2.2208 10.8012 1.09062 27.6007
426 2 2.2208 13.6367 9.44367 16.4548
459 2 2.2208 13.6159 -1.75353 16.3705
428 2 2.2208 13.6151 1.08745 19.211
622 2 2.2208 -0.462314 9.46152 19.0969
348 2 2.2208 10.7758 17.8003 27.7959
618 2 2.2208 13.6844 17.9075 19.3483
374 2 2.2208 5.12679 17.9161 27.7255
370 2 2.2208 8.01277 -1.65827 27.5497
376 2 2.2208 13.6918 12.1968 13.7443
356 2 2.2208 7.95591 12.369 13.6139
364 2 2.2208 5.29476 1.11375 27.6037
721 2 2.2208 5.20802 23.4965 5.18478
722 2 2.2208 5.28486 29.1631 5.12545
723 1 -1.1104 0.876935 25.0085 1.02633
724 1 -1.1104 0.832036 24.8576 3.84598
725 1 -1.1104 0.930983 22.1684 0.891324
726 1 -1.1104 1.01348 27.7589 1.06266
727 2 2.2208 5.15023 26.2581 2.26637
728 1 -1.1104 0.869683 22.0853 3.72339
729 1 -1.1104 0.99651 27.7595 3.635
730 1 -1.1104 3.89995 24.7955 0.878382
731 2 2.2208 2.27118 23.4654 2.35171
732 2 2.2208 2.4542 29.1557 2.39669
733 1 -1.1104 3.58967 25.005 3.61199
734 2 2.2208 2.31866 26.2611 5.20684
735 1 -1.1104 3.73284 22.0008 0.96173
736 1 -1.1104 3.74987 27.7493 0.814968
737 1 -1.1104 3.62286 22.2167 3.94708
738 1 -1.1104 3.93353 27.7787 3.75582
869 1 -1.1104 3.70472 22.2672 6.7765
868 1 -1.1104 3.70965 24.9881 6.58609
742 1 -1.1104 6.58701 24.8711 0.901716
864 1 -1.1104 0.930426 22.1647 6.61599
862 1 -1.1104 0.93497 24.9568 6.73306
747 1 -1.1104 6.67704 27.7844 3.64892
744 1 -1.1104 6.62827 21.9007 1.03927
865 1 -1.1104 0.964229 27.8285 6.48337
743 1 -1.1104 6.29736 24.9436 3.77063
745 1 -1.1104 6.5722 27.6213 0.953336
863 1 -1.1104 6.68275 24.8412 6.55816
866 1 -1.1104 6.48945 22.0459 6.58355
746 1 -1.1104 6.38381 21.9855 3.83056
867 1 -1.1104 6.57738 27.6621 6.53069
748 2 2.2208 10.7526 23.3928 5.07273
749 2 2.2208 10.7475 29.0078 5.20708
750 1 -1.1104 12.1067 24.8173 1.12639
751 1 -1.1104 12.0237 24.9794 3.93322
752 1 -1.1104 12.2099 21.8408 0.977492
753 1 -1.1104 12.1398 27.5117 0.951052
754 2 2.2208 10.744 26.2656 2.42094
755 1 -1.1104 12.0124 21.8229 3.72783
756 1 -1.1104 12.2978 27.5729 3.7775
757 1 -1.1104 9.56124 24.8814 0.936747
758 2 2.2208 7.9474 23.4743 2.31801
759 2 2.2208 8.02505 29.185 2.19161
760 1 -1.1104 9.11062 24.7744 3.83991
761 2 2.2208 8.0063 26.3459 5.17051
762 1 -1.1104 9.51053 21.9631 0.905403
763 1 -1.1104 9.26905 27.8223 0.897162
764 1 -1.1104 9.33889 22.1491 3.6346
765 1 -1.1104 9.45582 27.5796 3.83706
899 1 -1.1104 9.40105 22.1034 6.59641
900 1 -1.1104 9.35637 27.6899 6.77817
897 1 -1.1104 12.1682 27.6987 6.59718
896 1 -1.1104 12.2704 22.1194 6.54
895 1 -1.1104 12.183 24.8937 6.59142
1081 2 2.2208 10.8306 46.1434 -0.300186
898 1 -1.1104 9.39024 24.819 6.66156
769 2 2.2208 5.21488 34.8672 5.20205
770 1 -1.1104 1.01293 30.5855 0.9942
771 1 -1.1104 0.807858 36.2022 1.05696
773 1 -1.1104 1.14512 30.4854 3.8244
774 1 -1.1104 0.931828 36.1915 3.78343
776 1 -1.1104 0.820213 33.3517 0.926303
777 2 2.2208 5.18789 32.0527 2.36365
778 2 2.2208 5.18136 37.7075 2.43728
779 1 -1.1104 0.972118 33.3559 3.71203
781 1 -1.1104 3.81384 30.7177 1.04198
782 1 -1.1104 3.71974 36.3081 1.04573
783 2 2.2208 2.29001 34.8641 2.46971
784 1 -1.1104 3.88894 30.4526 3.73651
785 1 -1.1104 3.73418 36.1716 3.82468
786 2 2.2208 2.54037 31.935 5.18283
787 2 2.2208 2.42882 37.6321 5.3115
788 1 -1.1104 3.60946 33.5285 0.956646
789 1 -1.1104 3.80015 33.4309 3.85313
921 1 -1.1104 6.56088 30.4147 6.64269
922 1 -1.1104 6.45206 36.2473 6.61718
926 1 -1.1104 3.72946 36.0788 6.64396
927 1 -1.1104 3.72554 33.2905 6.62422
920 1 -1.1104 1.08068 36.2069 6.48364
780 1 -1.1104 6.60358 33.5435 3.74009
772 1 -1.1104 6.52784 36.1039 1.02552
793 1 -1.1104 6.60941 30.539 0.84854
1043 2 2.2208 13.4099 40.2136 8.31877
775 1 -1.1104 6.52854 36.3204 3.74615
795 1 -1.1104 6.52112 33.3076 0.966723
923 1 -1.1104 1.06655 33.3454 6.55208
919 1 -1.1104 0.978539 30.6108 6.54758
1066 2 2.2208 13.7326 23.5872 13.5592
794 1 -1.1104 6.51613 30.7404 3.77907
796 2 2.2208 10.9806 34.8644 5.12446
797 1 -1.1104 12.1563 30.493 1.01264
798 1 -1.1104 11.983 36.1921 1.01669
799 1 -1.1104 12.1732 30.4668 3.85626
800 1 -1.1104 12.1418 36.113 3.80344
801 1 -1.1104 12.0698 33.4119 0.886163