ITEM: TIMESTEP
70000
ITEM: NUMBER OF ATOMS
17670
ITEM: BOX BOUNDS pp pp pp
-3.6007749873378292e-01 2.7700077498734142e+01
-4.3144626846750862e+00 3.3239446268467560e+02
-3.4378206144184881e-01 2.7683782061441320e+01
ITEM: ATOMS id type q x y z
1 2 2.2208 5.36154 1.4066 5.3492
2 1 -1.1104 1.23406 -3.08548 1.13749
3 1 -1.1104 1.18247 2.6801 1.24838
6 1 -1.1104 1.22259 -2.78991 4.0031
7 1 -1.1104 1.04365 2.75429 4.03811
10 1 -1.1104 1.07607 -0.0900309 1.23082
12 2 2.2208 5.32473 -1.41573 2.59858
13 2 2.2208 5.45664 4.13246 2.60015
14 1 -1.1104 1.10212 -0.117384 3.9794
16 1 -1.1104 3.97095 -2.83943 0.96399
17 1 -1.1104 4.00612 2.81219 1.21507
18 2 2.2208 2.48663 1.35411 2.70108
19 1 -1.1104 3.9831 -2.84271 4.04259
20 1 -1.1104 3.93633 2.75818 4.04915
21 2 2.2208 2.53535 -1.43267 5.36904
22 2 2.2208 2.49812 4.12039 5.44316
23 1 -1.1104 3.83418 -0.0866214 1.23395
24 1 -1.1104 3.89762 0.0765549 4.04232
9002 2 2.2208 8.16464 -4.28731 8.28327
364 2 2.2208 5.21827 1.30319 -0.245429
382 2 2.2208 -0.104593 12.4554 -0.176129
374 2 2.2208 5.35065 18.1041 -0.304143
27 2 2.2208 -0.239275 4.10853 2.65693
25 2 2.2208 -0.225332 -1.52412 2.5615
26 2 2.2208 -0.350412 1.18843 5.46139
349 2 2.2208 8.01334 20.97 -0.295205
8996 2 2.2208 8.26422 -4.00284 2.4857
369 2 2.2208 10.9765 1.2815 -0.230357
11 1 -1.1104 6.52267 0.0703662 1.11774
8 1 -1.1104 6.79874 -2.76776 4.03855
5 1 -1.1104 6.9591 2.87396 1.25107
15 1 -1.1104 6.68834 -0.0736129 4.14317
4 1 -1.1104 6.74643 -2.83519 1.22456
9 1 -1.1104 6.84533 2.66748 3.96851
31 2 2.2208 11.0946 1.26043 5.29949
32 1 -1.1104 12.2044 -2.7787 1.04822
33 1 -1.1104 12.3482 2.76039 1.14284
34 1 -1.1104 12.335 -2.88214 3.75131
35 1 -1.1104 12.377 2.66963 3.95609
36 1 -1.1104 12.3064 -0.117742 1.18848
37 2 2.2208 10.9381 -1.44367 2.48571
39 1 -1.1104 12.4406 -0.0585688 3.82797
40 1 -1.1104 9.46992 -2.67567 1.08372
41 1 -1.1104 9.61795 2.65944 1.08187
42 2 2.2208 8.16972 1.36566 2.56706
43 1 -1.1104 9.65 -2.74292 3.9386
44 1 -1.1104 9.53506 2.78916 3.91502
45 2 2.2208 8.01585 -1.44513 5.57254
46 2 2.2208 8.18009 4.08264 5.3847
47 1 -1.1104 9.47514 0.0238955 1.16768
48 1 -1.1104 9.51829 -0.00577878 4.00785
38 2 2.2208 10.8776 4.23599 2.60733
384 2 2.2208 11.0072 6.96952 -0.245727
29 2 2.2208 -0.202189 6.84906 10.8401
372 2 2.2208 8.1396 4.1554 -0.233431
54 2 2.2208 5.49617 6.87951 5.31128
55 2 2.2208 5.30124 12.5197 5.31644
56 1 -1.1104 1.23173 8.29004 1.09035
58 1 -1.1104 1.35306 8.42888 3.86808
60 1 -1.1104 1.08901 5.44165 1.12003
61 1 -1.1104 1.23548 11.1735 1.21376
66 2 2.2208 5.44957 9.7342 2.54567
67 1 -1.1104 1.13074 5.49424 3.96847
68 1 -1.1104 1.1209 11.2205 3.87795
71 1 -1.1104 3.99912 8.34254 1.23528
72 2 2.2208 2.62623 7.00036 2.71508
73 2 2.2208 2.43862 12.6089 2.52465
74 1 -1.1104 4.11043 8.20315 4.0984
75 2 2.2208 2.59706 9.85601 5.28736
76 1 -1.1104 4.0141 5.57242 1.25962
77 1 -1.1104 3.98309 11.2304 1.15825
79 1 -1.1104 3.90139 5.4871 4.19677
80 1 -1.1104 3.87357 11.043 3.81458
365 2 2.2208 2.56622 -1.44792 -0.338854
82 2 2.2208 -0.27539 9.67242 2.52601
83 2 2.2208 -0.33747 12.5964 5.36081
9008 2 2.2208 10.9402 -4.20544 -0.251788
64 1 -1.1104 6.8114 11.1907 1.20845
70 1 -1.1104 6.68117 11.1622 3.95396
236 1 -1.1104 1.06409 5.54559 6.79464
9000 2 2.2208 5.44018 -4.2321 11.0319
380 2 2.2208 2.5924 9.68384 -0.209237
385 2 2.2208 8.19065 9.83314 -0.340751
386 2 2.2208 10.9953 12.5876 -0.327347
57 1 -1.1104 6.63751 8.34343 1.11335
69 1 -1.1104 6.72517 5.39801 3.96239
59 1 -1.1104 6.89691 8.40906 3.87143
63 1 -1.1104 6.73424 5.62232 1.07588
84 2 2.2208 10.9721 6.88487 5.38787
85 2 2.2208 11.0557 12.4969 5.3461
86 1 -1.1104 12.287 8.28716 1.20595
87 1 -1.1104 12.4083 8.31733 4.02993
88 1 -1.1104 12.339 5.53595 1.24602
89 1 -1.1104 12.2438 11.1909 1.23673
91 2 2.2208 10.9594 9.62657 2.53275
92 1 -1.1104 12.3627 5.50943 4.07026
93 1 -1.1104 12.5465 11.0891 4.06403
94 1 -1.1104 9.46936 8.31897 1.12898
95 2 2.2208 8.12644 6.89305 2.61531
96 2 2.2208 8.15181 12.5932 2.47154
97 1 -1.1104 9.56278 8.31636 4.01043
98 2 2.2208 8.31631 9.78786 5.34355
99 1 -1.1104 9.55294 5.68297 1.223
100 1 -1.1104 9.51254 11.2782 1.06803
102 1 -1.1104 9.39651 5.54206 3.98275
103 1 -1.1104 9.62807 11.1446 3.67865
329 1 -1.1104 12.4051 19.5997 12.3069
375 2 2.2208 2.47528 20.8296 -0.175806
90 1 -1.1104 12.3967 11.0311 6.84535
136 2 2.2208 -0.254051 20.9581 2.68759
106 2 2.2208 5.22674 18.1756 5.42348
107 1 -1.1104 1.07698 14.0185 1.12606
109 1 -1.1104 0.972308 19.6235 1.16018
113 1 -1.1104 1.04351 13.9764 4.04808
114 1 -1.1104 1.02884 19.5223 3.96662
116 1 -1.1104 1.09252 16.8591 1.00538
119 2 2.2208 5.35242 15.3099 2.51587
120 2 2.2208 5.28051 20.9553 2.53061
121 1 -1.1104 1.03396 16.8174 3.78144
123 1 -1.1104 3.86844 14.0036 1.34079
125 1 -1.1104 3.8184 19.4366 1.16767
127 2 2.2208 2.42736 18.163 2.41921
128 1 -1.1104 3.91543 13.8599 3.94037
129 1 -1.1104 3.89451 19.5839 4.16518
130 2 2.2208 2.56656 15.4144 5.40315
131 2 2.2208 2.42486 20.9172 5.39702
132 1 -1.1104 4.00005 16.7934 1.00827
134 1 -1.1104 3.96496 16.788 3.83405
368 2 2.2208 -0.221654 1.37264 -0.246865
138 1 -1.1104 6.50736 19.5063 1.19111
115 1 -1.1104 6.66687 14.01 3.87029
124 1 -1.1104 3.88583 14.0699 6.77733
302 1 -1.1104 1.05266 19.4943 6.82343
126 1 -1.1104 3.86954 19.4933 6.8271
118 1 -1.1104 6.62527 16.8014 6.94865
8995 2 2.2208 -0.217408 -4.28573 5.25546
8993 2 2.2208 2.72997 -4.23814 2.53591
290 1 -1.1104 6.71826 14.02 9.5136
110 1 -1.1104 6.70814 13.9436 1.09368
122 1 -1.1104 6.69656 16.7188 3.97108
140 1 -1.1104 6.76016 16.8384 1.05672
139 1 -1.1104 6.71586 19.563 3.92252
141 2 2.2208 10.8151 18.1233 5.30089
142 1 -1.1104 12.4998 14.0587 1.20145
144 1 -1.1104 12.1952 19.5122 1.06118
146 1 -1.1104 12.3972 13.9296 4.01614
147 1 -1.1104 12.3185 19.5535 3.94656
148 1 -1.1104 12.3096 16.7047 1.08149
150 2 2.2208 10.8753 15.379 2.59972
151 2 2.2208 10.844 20.9158 2.49409
152 1 -1.1104 12.2163 16.6516 3.84592
153 1 -1.1104 9.58383 13.9324 1.10072
155 1 -1.1104 9.46402 19.5826 1.0761
157 2 2.2208 8.01135 18.2411 2.51506
158 1 -1.1104 9.63794 14.0259 3.91519
159 1 -1.1104 9.53998 19.4705 3.80214
160 2 2.2208 8.18538 15.2916 5.3103
161 2 2.2208 8.04728 20.9876 5.34031
162 1 -1.1104 9.43986 16.8127 1.00607
164 1 -1.1104 9.38429 16.8449 3.84211
30 2 2.2208 -0.191421 9.83282 8.03701
347 2 2.2208 8.1632 15.3705 -0.348625
112 1 -1.1104 6.80989 19.6776 6.76323
51 2 2.2208 -0.212868 12.6835 11.061
199 2 2.2208 -0.194599 4.04946 8.19414
170 1 -1.1104 1.05769 -0.158122 6.78522
166 1 -1.1104 1.25658 -2.91892 6.8628
173 1 -1.1104 4.02895 2.7584 6.79117
167 1 -1.1104 1.15189 2.57203 6.80517
174 1 -1.1104 3.79567 -0.0185424 6.75258
172 1 -1.1104 4.13751 -2.76188 6.80941
175 2 2.2208 5.36558 1.57138 10.9816
176 1 -1.1104 1.11498 -2.8688 12.406
177 1 -1.1104 1.14262 2.79918 12.2685
180 1 -1.1104 1.06575 -2.88303 9.65125
181 1 -1.1104 1.06191 2.69084 9.51388
184 1 -1.1104 1.10177 -0.0756499 12.2668
186 2 2.2208 5.32886 -1.33099 8.2699
187 2 2.2208 5.32725 4.13568 8.05903
188 1 -1.1104 1.12889 -0.124857 9.52769
190 1 -1.1104 3.88908 -2.73377 12.3805
191 1 -1.1104 3.85924 2.99665 12.3528
192 2 2.2208 2.47365 1.32085 8.15091
193 1 -1.1104 3.89969 -2.8197 9.65851
194 1 -1.1104 4.01016 2.81986 9.74417
195 2 2.2208 2.59494 -1.40984 10.907
196 2 2.2208 2.43503 4.28719 10.9893
197 1 -1.1104 3.87177 0.0762061 12.3008
198 1 -1.1104 3.91695 0.0581413 9.55069
201 2 2.2208 -0.266823 1.30261 10.9457
200 2 2.2208 -0.257258 -1.4512 8.25901
9003 2 2.2208 10.9375 -4.21814 11.0114
171 1 -1.1104 6.81027 0.0117965 6.92944
209 1 -1.1104 9.51684 2.72867 6.76707
210 1 -1.1104 9.59892 -0.142021 6.75418
207 1 -1.1104 12.403 -0.0700484 6.7953
288 1 -1.1104 6.71852 19.5094 9.59808
169 1 -1.1104 6.66404 2.68502 6.68641
206 1 -1.1104 12.3162 2.74021 6.71877
208 1 -1.1104 9.67397 -2.9046 6.78822
168 1 -1.1104 6.89354 -2.97878 6.9231
185 1 -1.1104 6.88 0.00710745 12.3729
179 1 -1.1104 6.7239 2.77201 12.4995
189 1 -1.1104 6.61598 -0.0296939 9.70093
183 1 -1.1104 6.80285 2.72937 9.53757
205 1 -1.1104 12.5303 -2.88283 6.62228
178 1 -1.1104 6.70595 -2.83308 12.3262
182 1 -1.1104 6.82502 -2.87338 9.65507
211 2 2.2208 10.8341 1.39649 10.9497
212 1 -1.1104 12.3295 -2.86312 12.3261
213 1 -1.1104 12.3794 2.72205 12.263
214 1 -1.1104 12.5374 -2.99943 9.47473
215 1 -1.1104 12.3404 2.72335 9.46833
216 1 -1.1104 12.5142 -0.183702 12.4101
217 2 2.2208 10.913 -1.51572 8.17293
219 1 -1.1104 12.2468 -0.292197 9.57087
220 1 -1.1104 9.51519 -2.81624 12.4619
221 1 -1.1104 9.57429 2.76323 12.417
222 2 2.2208 8.16376 1.39331 8.23023
223 1 -1.1104 9.77574 -2.77842 9.6555
224 1 -1.1104 9.49397 2.76537 9.61527
225 2 2.2208 8.17913 -1.39855 11.0777
226 2 2.2208 8.07012 4.16727 11.0259
227 1 -1.1104 9.61985 -0.00574854 12.3508
228 1 -1.1104 9.46328 0.00601651 9.56629
218 2 2.2208 10.9036 4.20959 8.23412
62 1 -1.1104 1.16849 11.3764 6.73913
78 1 -1.1104 3.98829 11.2757 6.64823
348 2 2.2208 10.816 18.251 -0.236305
238 1 -1.1104 3.99181 8.52278 6.6834
239 1 -1.1104 3.99321 5.58316 6.73005
234 1 -1.1104 1.26585 8.38413 6.67325
240 2 2.2208 5.39442 6.89571 10.8595
241 2 2.2208 5.30617 12.5624 10.8752
242 1 -1.1104 1.31279 8.35058 12.3049
244 1 -1.1104 1.16203 8.37909 9.38617
246 1 -1.1104 1.16333 5.48041 12.3003
247 1 -1.1104 1.20815 11.2102 12.3473
250 2 2.2208 5.3632 9.75197 8.08395
251 1 -1.1104 1.11709 5.56357 9.44231
252 1 -1.1104 1.1292 11.0773 9.58665
255 1 -1.1104 4.19905 8.36931 12.1337
256 2 2.2208 2.64927 6.93116 8.04211
257 2 2.2208 2.45233 12.6809 8.20333
258 1 -1.1104 4.06759 8.3487 9.38674
259 2 2.2208 2.5661 9.72708 10.8477
260 1 -1.1104 4.0616 5.66644 12.2003
261 1 -1.1104 3.98408 11.1542 12.3089
262 1 -1.1104 3.99804 5.57911 9.45783
263 1 -1.1104 3.91233 11.2311 9.52353
330 1 -1.1104 12.2981 14.0472 12.371
371 2 2.2208 -0.389208 18.0646 -0.332495
322 1 -1.1104 9.71599 13.8952 12.3793
265 1 -1.1104 12.4024 8.33505 6.64863
269 1 -1.1104 9.53507 5.53454 6.82596
237 1 -1.1104 6.74959 5.42712 6.74965
248 1 -1.1104 6.82435 5.46501 12.4005
235 1 -1.1104 6.8193 8.10981 6.75385
65 1 -1.1104 6.86104 11.0748 6.80333
245 1 -1.1104 6.72261 8.35082 9.43987
254 1 -1.1104 6.80081 11.1433 9.48271
253 1 -1.1104 6.78913 5.44273 9.53268
243 1 -1.1104 7.03077 8.31061 12.1569
101 1 -1.1104 9.60915 11.2653 6.72535
266 1 -1.1104 12.3289 5.5276 6.78517
267 1 -1.1104 9.55377 8.43576 6.88589
249 1 -1.1104 6.78123 11.1522 12.2104
264 1 -1.1104 9.54679 11.169 9.53649
268 1 -1.1104 9.55481 5.60507 9.61464
270 1 -1.1104 9.57378 11.0912 12.3861
271 1 -1.1104 9.64603 5.54631 12.3128
272 2 2.2208 8.21708 9.73714 10.8837
273 1 -1.1104 9.60063 8.33199 9.59094
274 2 2.2208 8.25761 12.5321 8.21456
275 2 2.2208 8.18391 6.92135 8.1719
276 2 2.2208 11.089 6.87516 10.8364
277 2 2.2208 11.0103 12.5171 11.0673
278 1 -1.1104 12.4837 8.43103 12.4238
279 1 -1.1104 12.3617 8.23322 9.64405
280 1 -1.1104 12.5014 5.64492 12.3589
281 1 -1.1104 12.4341 11.202 12.2891
282 2 2.2208 11.0427 9.67287 8.17782
283 1 -1.1104 12.4706 5.4971 9.43782
284 1 -1.1104 12.3987 11.0795 9.61499
285 1 -1.1104 9.76886 8.35844 12.3491
383 2 2.2208 -0.219633 6.99873 -0.215582
312 2 2.2208 -0.356749 18.2245 11.048
311 2 2.2208 -0.207637 20.9449 8.26749
9001 2 2.2208 -0.234416 -4.26526 11.0236
117 1 -1.1104 1.07358 16.6989 6.59658
108 1 -1.1104 1.00992 13.8931 6.73981
133 1 -1.1104 3.80995 16.6962 6.7338
310 2 2.2208 2.6342 15.2936 10.8943
305 1 -1.1104 3.90462 13.8586 9.5453
309 2 2.2208 2.43925 20.9192 10.9413
301 1 -1.1104 3.84396 19.6589 9.57239
304 1 -1.1104 4.04443 16.7358 9.52514
298 1 -1.1104 1.18546 19.5677 12.3862
295 2 2.2208 5.30001 15.3436 8.23399
300 2 2.2208 5.45263 18.1612 11.0911
308 1 -1.1104 4.06223 16.8344 12.4721
307 1 -1.1104 1.11706 16.7689 12.2558
299 1 -1.1104 1.11095 14.1174 12.2607
303 2 2.2208 2.54308 18.2527 8.20572
286 1 -1.1104 3.98688 19.5182 12.3374
287 1 -1.1104 4.04883 13.9905 12.3676
291 1 -1.1104 1.13706 19.5325 9.65821
292 1 -1.1104 1.1208 16.7887 9.32821
293 2 2.2208 5.26955 20.9866 8.24443
294 1 -1.1104 1.06363 14.0196 9.58643
326 1 -1.1104 12.4742 16.9068 12.3058
324 2 2.2208 10.9272 21.0404 8.06812
111 1 -1.1104 6.82176 13.884 6.69048
321 1 -1.1104 9.6554 19.7246 12.3198
143 1 -1.1104 12.4385 13.9965 6.68819
328 1 -1.1104 12.4868 13.9345 9.58914
154 1 -1.1104 9.58748 13.8433 6.74378
325 2 2.2208 10.9612 15.3484 8.20036
145 1 -1.1104 12.3311 19.4886 6.73452
323 1 -1.1104 12.3402 16.7827 9.60882
317 2 2.2208 8.28926 15.3126 10.9065
289 1 -1.1104 6.83183 16.8819 9.49334
320 2 2.2208 8.09115 18.1028 8.13394
306 1 -1.1104 6.79929 16.6592 12.2972
297 1 -1.1104 6.73891 13.9712 12.2972
314 1 -1.1104 9.63775 16.7932 9.42627
331 2 2.2208 10.994 18.322 10.9379
318 1 -1.1104 9.53136 19.7499 9.40946
319 1 -1.1104 9.69897 13.9707 9.62597
315 1 -1.1104 9.62221 16.8534 12.3012
316 2 2.2208 8.17926 20.9978 10.9315
327 1 -1.1104 12.4627 19.7214 9.44789
296 1 -1.1104 6.92828 19.5898 12.3515
156 1 -1.1104 9.55935 19.4925 6.73924
149 1 -1.1104 12.2884 16.7607 6.7168
163 1 -1.1104 9.39555 16.6875 6.69743
8994 2 2.2208 5.3644 -4.20169 5.50335
8997 2 2.2208 10.9644 -4.177 5.29916
8999 2 2.2208 2.56821 -4.26674 8.24988
204 2 2.2208 13.6901 15.3808 5.32807
345 2 2.2208 13.6605 20.8951 -0.18595
231 2 2.2208 13.5481 20.9831 5.3394
165 2 2.2208 13.6319 18.083 2.39114
81 2 2.2208 -0.220832 6.88207 5.38806
352 2 2.2208 5.46713 9.72256 13.5033
357 2 2.2208 2.44323 18.158 13.673
356 2 2.2208 8.16478 12.4498 13.652
381 2 2.2208 5.31183 12.4929 -0.178546
379 2 2.2208 5.23409 6.89769 -0.229099
366 2 2.2208 2.60965 4.16814 -0.201407
388 2 2.2208 5.34025 1.24863 16.5655
389 1 -1.1104 1.26856 -2.9437 18.0645
390 1 -1.1104 1.09504 2.60738 18.001
393 1 -1.1104 1.04939 -2.92253 15.2603
395 1 -1.1104 1.0771 2.83829 15.1764
401 1 -1.1104 1.14146 -0.258894 17.9432
403 2 2.2208 5.37129 -1.56835 19.4675
404 2 2.2208 5.41558 4.04487 19.3777
405 1 -1.1104 1.12356 -0.0810641 15.1794
409 1 -1.1104 4.07353 -2.91279 17.9733
410 1 -1.1104 3.98865 2.69125 17.9535
411 2 2.2208 2.50096 1.2298 19.35
412 1 -1.1104 4.05921 -2.91577 15.1563
414 1 -1.1104 4.05317 2.66857 15.0976
416 2 2.2208 2.55527 -1.54661 16.5921
417 2 2.2208 2.7296 4.05065 16.5664
418 1 -1.1104 3.92938 -0.193222 17.9912
419 1 -1.1104 3.81105 -0.128105 15.1166
339 2 2.2208 2.5197 1.36102 13.7198
425 2 2.2208 -0.329017 -1.53426 19.4118
338 2 2.2208 5.28552 -1.47944 13.6693
334 2 2.2208 -0.274292 -1.44694 13.7708
341 2 2.2208 5.37502 4.21328 13.7569
355 2 2.2208 11.0721 9.80349 13.661
406 1 -1.1104 0.956591 -0.168033 20.8644
9159 2 2.2208 5.41747 -4.31777 16.5418
420 1 -1.1104 4.09372 0.0533464 20.8323
626 2 2.2208 -0.200745 4.18572 24.9825
391 1 -1.1104 6.81889 -3.0913 18.0697
526 2 2.2208 10.9201 20.9621 24.9574
343 2 2.2208 8.23446 1.39603 13.7287
9092 2 2.2208 2.47995 -4.3243 25.0078
392 1 -1.1104 6.86495 2.53457 17.9237
397 1 -1.1104 6.78568 -2.86701 15.1415
399 1 -1.1104 6.81669 2.9338 15.1676
402 1 -1.1104 6.73549 -0.227213 18.0868
407 1 -1.1104 6.7228 0.0184803 15.1768
431 2 2.2208 11.0266 1.36855 16.6237
432 1 -1.1104 12.517 -2.81926 17.986
433 1 -1.1104 12.4684 2.72964 17.9932
434 1 -1.1104 12.3433 -2.77912 15.291
436 1 -1.1104 12.495 2.71295 15.2277
438 1 -1.1104 12.4386 -0.0877044 17.9792
439 2 2.2208 11.0644 -1.47497 19.3846
440 2 2.2208 11.0552 4.01121 19.3269
441 1 -1.1104 12.2638 0.0166898 15.2724
443 1 -1.1104 9.51464 -2.86589 18.043
444 1 -1.1104 9.67952 2.76258 17.8581
445 2 2.2208 8.18526 1.2776 19.3617
446 1 -1.1104 9.57699 -2.8314 15.2641
448 1 -1.1104 9.66041 2.75288 15.234
450 2 2.2208 8.21011 -1.46896 16.6354
451 2 2.2208 8.20522 4.1731 16.5546
452 1 -1.1104 9.65774 -0.0425706 17.904
453 1 -1.1104 9.45859 -0.129214 14.9918
350 2 2.2208 10.9771 4.21625 13.8093
685 2 2.2208 -0.258225 12.5934 22.1732
621 2 2.2208 -0.163691 6.91767 16.538
622 2 2.2208 -0.294856 9.82395 19.3267
464 2 2.2208 5.4418 6.94542 16.4237
465 2 2.2208 5.23873 12.4542 16.3939
466 1 -1.1104 1.1449 8.20868 17.8976
468 1 -1.1104 1.28688 8.22637 15.1581
472 1 -1.1104 1.31868 5.49727 17.9246
473 1 -1.1104 1.15905 11.1071 17.8681
476 2 2.2208 5.3506 9.75363 19.4593
477 1 -1.1104 1.16243 5.46245 15.1131
479 1 -1.1104 1.09957 11.0108 15.0759
485 1 -1.1104 3.99068 8.22181 17.7237
486 2 2.2208 2.57663 6.93786 19.313
487 2 2.2208 2.55767 12.4533 19.2892
488 1 -1.1104 3.92168 8.24766 14.967
490 2 2.2208 2.52021 9.7329 16.4714
491 1 -1.1104 4.18289 5.44671 17.8822
492 1 -1.1104 3.9268 11.0361 17.9833
493 1 -1.1104 4.06132 5.51932 15.1249
495 1 -1.1104 3.88677 10.9871 15.0698
648 2 2.2208 -0.204686 12.4916 16.4906
430 2 2.2208 13.6386 15.4434 22.1233
481 1 -1.1104 6.83141 5.652 15.0644
367 2 2.2208 -0.236365 9.77586 13.6588
353 2 2.2208 2.5563 12.4549 13.7361
478 1 -1.1104 1.22431 5.56864 20.8693
475 1 -1.1104 6.76853 11.1331 17.7435
474 1 -1.1104 6.95662 5.46046 17.9713
470 1 -1.1104 6.77166 8.41001 15.0947
483 1 -1.1104 6.6974 11.1259 14.9922
467 1 -1.1104 6.83229 8.26624 17.8717
500 2 2.2208 11.0173 7.06892 16.5983
501 2 2.2208 10.9028 12.5177 16.4326
502 1 -1.1104 12.3809 8.35697 18.0546
503 1 -1.1104 12.5079 8.41533 15.2348
505 1 -1.1104 12.377 5.49978 17.9706
506 1 -1.1104 12.4594 11.0959 17.6994
507 2 2.2208 11.0589 9.73024 19.3227
508 1 -1.1104 12.3593 5.60571 15.2144
510 1 -1.1104 12.2518 11.2844 14.9602
512 1 -1.1104 9.49021 8.40714 17.8932
513 2 2.2208 8.18593 6.86301 19.2995
514 2 2.2208 8.32912 12.6411 19.2546
515 1 -1.1104 9.64972 8.34847 15.1955
517 2 2.2208 8.16265 9.71179 16.5425
518 1 -1.1104 9.71409 5.66093 17.8667
519 1 -1.1104 9.67084 11.3006 18.0425
520 1 -1.1104 9.53434 5.56138 15.0996
522 1 -1.1104 9.54956 11.1218 15.283
616 2 2.2208 8.16359 20.8906 22.1594
516 1 -1.1104 9.6285 8.13669 20.6753
457 2 2.2208 -0.26731 15.3196 19.3756
351 2 2.2208 2.56477 6.81224 13.6905
455 2 2.2208 13.5401 18.0786 24.988
456 2 2.2208 -0.0506677 18.1357 16.5856
527 2 2.2208 5.41679 18.106 16.4609
528 1 -1.1104 1.13895 13.8335 17.893
529 1 -1.1104 1.20471 19.5819 18.0435
532 1 -1.1104 1.22711 13.8866 14.9884
534 1 -1.1104 1.21332 19.5573 15.1601
540 1 -1.1104 1.22935 16.5984 18.0639
542 2 2.2208 5.395 15.2507 19.237
543 2 2.2208 5.38747 21.0116 19.3597
544 1 -1.1104 1.26502 16.7248 15.2075
548 1 -1.1104 3.93498 13.7837 17.8661
549 1 -1.1104 3.97029 19.3993 17.8733
550 2 2.2208 2.66306 18.099 19.3983
551 1 -1.1104 3.97205 13.8732 14.9779
553 1 -1.1104 3.94886 19.4223 15.2532
555 2 2.2208 2.65207 15.2837 16.4931
556 2 2.2208 2.66192 20.8854 16.5931
557 1 -1.1104 4.07747 16.6276 17.9761
558 1 -1.1104 3.99838 16.6028 15.1708
552 1 -1.1104 3.88152 13.9972 20.7515
358 2 2.2208 5.30052 20.9337 13.8657
535 1 -1.1104 1.30701 19.4713 20.7333
554 1 -1.1104 3.93686 19.6266 20.7044
361 2 2.2208 10.8586 15.575 13.7696
359 2 2.2208 5.51199 15.4112 13.7426
9129 2 2.2208 11.0058 -4.28793 16.6157
427 2 2.2208 -0.292635 4.0159 19.3921
360 2 2.2208 10.9283 21.0396 13.7063
538 1 -1.1104 6.71738 19.4843 15.0668
541 1 -1.1104 6.76363 16.9506 17.9841
530 1 -1.1104 6.82132 14.1174 17.9744
536 1 -1.1104 6.69124 13.8877 15.1764
531 1 -1.1104 6.82192 19.7021 17.9438
546 1 -1.1104 6.87405 16.7908 15.2133
563 2 2.2208 10.9628 18.2691 16.5398
564 1 -1.1104 12.4711 13.8866 17.9335
565 1 -1.1104 12.3817 19.796 17.9041
566 1 -1.1104 12.3988 14.0421 15.1059
568 1 -1.1104 12.5979 19.601 15.1745
570 1 -1.1104 12.4834 16.6853 18.0126
571 2 2.2208 10.9911 15.4099 19.322
572 2 2.2208 10.9903 21.0293 19.2858
573 1 -1.1104 12.2954 16.8799 15.2688
575 1 -1.1104 9.6945 13.9977 17.8154
576 1 -1.1104 9.54373 19.6263 17.969
577 2 2.2208 8.06356 18.2004 19.466
578 1 -1.1104 9.35224 14.0002 15.0888
580 1 -1.1104 9.62742 19.5081 15.065
582 2 2.2208 8.19882 15.3693 16.5366
583 2 2.2208 8.17118 20.8948 16.464
584 1 -1.1104 9.53791 16.8571 17.8801
585 1 -1.1104 9.56745 16.8938 15.201
574 1 -1.1104 12.3152 16.8316 20.7651
586 1 -1.1104 9.36716 16.7304 20.6683
537 1 -1.1104 6.9771 13.8701 20.7488
547 1 -1.1104 6.73937 16.6914 20.8323
362 2 2.2208 8.22668 18.1932 13.6656
415 1 -1.1104 3.94517 2.7204 20.6597
497 1 -1.1104 12.2908 19.4934 23.6423
615 2 2.2208 8.1132 15.3915 22.0558
413 1 -1.1104 3.90745 -2.88937 20.7782
562 1 -1.1104 9.47475 19.4752 23.5884
394 1 -1.1104 1.16687 -2.9336 20.8371
396 1 -1.1104 1.19339 2.66672 20.8458
591 2 2.2208 5.30608 1.39616 22.1497
592 1 -1.1104 1.11954 -2.79836 23.6655
593 1 -1.1104 1.15664 2.63699 23.6071
596 1 -1.1104 1.16447 -3.00594 26.3801
597 1 -1.1104 1.36475 2.66041 26.5635
600 1 -1.1104 1.30587 -0.159528 23.5682
602 2 2.2208 5.39577 -1.4012 24.8922
603 2 2.2208 5.34429 4.08507 24.9853
604 1 -1.1104 1.05099 -0.137983 26.3959
606 1 -1.1104 3.8628 -2.8403 23.5048
607 1 -1.1104 3.88664 2.62585 23.3949
608 2 2.2208 2.55618 1.20026 24.9698
609 1 -1.1104 3.9237 -2.87921 26.275
610 1 -1.1104 3.83589 2.66014 26.3949
611 2 2.2208 2.51652 -1.55348 22.2549
612 2 2.2208 2.6346 4.2481 22.1381
613 1 -1.1104 3.96186 0.0773882 23.6244
614 1 -1.1104 3.94658 -0.182004 26.417
625 2 2.2208 -0.215594 1.41171 22.2382
408 1 -1.1104 6.72732 -0.240972 20.8224
646 2 2.2208 -0.311678 15.3205 24.874
400 1 -1.1104 6.78011 2.64125 20.7652
435 1 -1.1104 12.2882 -2.97925 20.8359
9020 2 2.2208 2.54674 -4.19049 13.8169
599 1 -1.1104 6.65684 2.62817 26.4511
398 1 -1.1104 6.76839 -2.94422 20.9116
437 1 -1.1104 12.3144 2.70756 20.7986
447 1 -1.1104 9.58448 -2.88103 20.7083
442 1 -1.1104 12.2941 -0.167874 20.7915
598 1 -1.1104 6.76933 -2.84893 26.2664
605 1 -1.1104 6.80857 -0.0232742 26.3754
594 1 -1.1104 6.76416 -3.00112 23.5975
601 1 -1.1104 6.68669 0.146462 23.6943
595 1 -1.1104 6.62124 2.78233 23.4835
449 1 -1.1104 9.5207 2.71145 20.713
454 1 -1.1104 9.53456 -0.0717871 20.6166
627 2 2.2208 10.8074 1.24562 22.1779
628 1 -1.1104 12.4176 -2.91254 23.5286
629 1 -1.1104 12.4146 2.61211 23.5887
630 1 -1.1104 12.481 -2.97268 26.4107
631 1 -1.1104 12.3091 2.72223 26.4834
632 1 -1.1104 12.1507 -0.117483 23.6072
633 2 2.2208 10.9748 -1.54172 24.9967
635 1 -1.1104 12.435 -0.170154 26.4464
636 1 -1.1104 9.65407 -2.87214 23.5771
637 1 -1.1104 9.4916 2.62766 23.4253
638 2 2.2208 8.17465 1.31595 24.9992
639 1 -1.1104 9.4735 -2.82809 26.2878
640 1 -1.1104 9.44131 2.93766 26.2566
641 2 2.2208 8.20964 -1.49249 22.1148
642 2 2.2208 8.22665 4.05017 22.0822
643 1 -1.1104 9.53015 -0.0871183 23.6354
644 1 -1.1104 9.51698 0.0569265 26.4703
634 2 2.2208 11.0023 4.03762 24.8803
589 1 -1.1104 9.50399 13.8739 26.3128
496 1 -1.1104 4.00445 11.1292 20.7478
424 2 2.2208 -0.214145 1.24778 16.5815
337 2 2.2208 -0.276845 4.15507 13.7735
469 1 -1.1104 1.10325 8.28016 20.603
489 1 -1.1104 3.92262 8.43084 20.8543
480 1 -1.1104 1.21691 11.2005 20.7431
494 1 -1.1104 4.05397 5.40665 20.7594
656 2 2.2208 5.40913 7.00361 22.2098
657 2 2.2208 5.3858 12.6457 22.1479
658 1 -1.1104 1.20094 8.22542 23.4325
660 1 -1.1104 1.33552 8.35809 26.1972
662 1 -1.1104 1.14639 5.53159 23.5167
663 1 -1.1104 1.12742 11.0418 23.4221
666 2 2.2208 5.29414 9.85708 25.1259
667 1 -1.1104 1.17636 5.7001 26.5189
668 1 -1.1104 1.22582 11.1229 26.3959
671 1 -1.1104 3.98984 8.35032 23.5698
672 2 2.2208 2.6876 6.94364 24.9209
673 2 2.2208 2.54222 12.4924 25.0086
674 1 -1.1104 4.09662 8.30001 26.4405
675 2 2.2208 2.68509 9.75181 22.202
676 1 -1.1104 4.01951 5.54923 23.5585
677 1 -1.1104 4.09555 11.0753 23.6735
678 1 -1.1104 3.89185 5.45552 26.4337
679 1 -1.1104 3.89392 11.0757 26.4422
661 1 -1.1104 6.70105 8.32996 26.4115
579 1 -1.1104 9.79148 13.9288 20.7666
482 1 -1.1104 6.81893 5.51528 20.8048
484 1 -1.1104 6.77386 11.2133 20.7062
471 1 -1.1104 6.74935 8.32367 20.6655
664 1 -1.1104 6.86009 5.50237 23.519
659 1 -1.1104 6.76593 8.35742 23.6641
670 1 -1.1104 6.76471 11.243 26.4399
521 1 -1.1104 9.58588 5.47307 20.5807
504 1 -1.1104 12.4188 8.38465 20.8153
511 1 -1.1104 12.4495 11.2099 20.6739
509 1 -1.1104 12.4259 5.45356 20.8591
523 1 -1.1104 9.63322 11.0608 20.662
665 1 -1.1104 6.76561 11.1507 23.6043
669 1 -1.1104 6.63117 5.44469 26.3025
687 1 -1.1104 9.62005 11.1865 26.2963
688 1 -1.1104 9.41131 5.65851 26.3431
689 1 -1.1104 9.52894 11.1325 23.5693
690 1 -1.1104 9.68705 5.31861 23.3434
691 2 2.2208 8.34431 9.59046 22.0162
692 1 -1.1104 9.60828 8.35704 26.3208
693 2 2.2208 8.14446 12.509 24.9136
694 2 2.2208 8.04761 7.06691 24.9946
695 2 2.2208 11.039 6.90826 22.1833
696 2 2.2208 11.0123 12.533 22.1177
697 1 -1.1104 12.4241 8.01732 23.6331
698 1 -1.1104 12.4709 8.38386 26.4553
699 1 -1.1104 12.4506 5.39585 23.6724
700 1 -1.1104 12.1542 11.0571 23.5552
701 2 2.2208 10.9302 9.73105 24.975
702 1 -1.1104 12.3476 5.63696 26.3473
703 1 -1.1104 12.4262 11.1683 26.3411
704 1 -1.1104 9.45961 8.29966 23.5176
545 1 -1.1104 1.18717 16.758 20.6838
623 2 2.2208 -0.299221 18.1293 22.1188
590 1 -1.1104 9.38874 19.615 26.436
712 1 -1.1104 6.63625 13.9769 26.3948
559 1 -1.1104 3.98229 16.7808 20.9019
533 1 -1.1104 0.99856 13.9329 20.7929
719 2 2.2208 5.28666 20.9725 24.9625
717 1 -1.1104 1.17742 13.9147 26.4516
720 2 2.2208 5.32908 15.2964 24.9185
647 2 2.2208 2.47746 15.4715 22.1514
649 2 2.2208 2.50899 21.1003 22.1427
652 1 -1.1104 3.98958 16.8911 23.5692
655 1 -1.1104 1.05841 16.714 23.5091
681 1 -1.1104 3.9483 13.8879 26.4431
682 1 -1.1104 3.89959 16.6151 26.3569
683 2 2.2208 2.50662 18.0721 24.9623
686 1 -1.1104 3.74711 19.5062 26.3661
705 2 2.2208 5.37559 18.2493 22.1373
706 1 -1.1104 1.25751 13.9925 23.5752
707 1 -1.1104 1.07829 19.5828 23.5143
711 1 -1.1104 3.88476 19.5834 23.5551
713 1 -1.1104 4.06264 13.8855 23.6488
715 1 -1.1104 1.10165 19.3815 26.4364
716 1 -1.1104 1.04738 16.7055 26.2605
645 2 2.2208 -0.170988 20.9225 25.1145
680 1 -1.1104 6.79023 16.7325 23.4837
714 1 -1.1104 6.82393 16.6543 26.2679
709 1 -1.1104 6.74312 13.9812 23.5103
539 1 -1.1104 6.68226 19.6783 20.7556
587 2 2.2208 8.16884 18.0613 24.9318
620 1 -1.1104 9.59779 16.7572 26.3031
569 1 -1.1104 12.3394 19.5415 20.6249
498 1 -1.1104 12.3838 13.9634 26.4121
560 1 -1.1104 12.2241 16.779 26.4604
499 1 -1.1104 12.2462 19.6178 26.3512
462 2 2.2208 10.9634 18.2275 22.0338
718 1 -1.1104 6.79048 19.4905 23.5444
588 1 -1.1104 6.66884 19.5259 26.318
524 1 -1.1104 12.1904 16.7563 23.4337
561 1 -1.1104 9.48307 13.9584 23.5667
567 1 -1.1104 12.4273 13.8666 20.657
463 1 -1.1104 12.2905 13.8691 23.6269
617 1 -1.1104 9.52489 16.7536 23.4358
581 1 -1.1104 9.5105 19.5826 20.805
525 2 2.2208 10.8159 15.3778 24.8819
423 2 2.2208 13.6145 4.0463 22.1184
354 2 2.2208 8.27631 7.00123 13.8299
342 2 2.2208 -0.216954 15.2918 13.8427
9089 2 2.2208 8.18337 -4.29367 24.9356
421 2 2.2208 -0.135964 6.83737 22.0974
9093 2 2.2208 5.38134 -4.319 22.2808
9127 2 2.2208 -0.189517 -4.12913 22.1501
458 2 2.2208 -0.266283 20.9191 19.4167
684 2 2.2208 -0.201194 9.70669 24.9253
624 2 2.2208 -0.172435 -1.50357 25.0307
370 2 2.2208 8.10504 -1.38139 27.6472
335 2 2.2208 -0.211599 21.2149 13.8995
9012 2 2.2208 5.21837 -4.1856 27.6706
373 2 2.2208 2.59043 15.3007 27.7147
346 2 2.2208 10.9702 -1.38843 13.9485
721 2 2.2208 5.20603 23.8016 5.25963
722 2 2.2208 5.31908 29.3019 5.31593
723 1 -1.1104 0.997535 25.1332 1.1755
724 1 -1.1104 1.06551 25.28 4.03515
725 1 -1.1104 1.09827 22.376 1.44261
726 1 -1.1104 1.01129 27.9855 1.23284
727 2 2.2208 5.2979 26.597 2.58037
728 1 -1.1104 0.926548 22.4662 4.10559
729 1 -1.1104 1.02113 28.0506 4.09181
730 1 -1.1104 3.87359 25.2473 1.30099
731 2 2.2208 2.43051 23.7431 2.65084
732 2 2.2208 2.35182 29.2618 2.65174
733 1 -1.1104 3.73973 25.1221 4.11837
734 2 2.2208 2.5199 26.5612 5.46368
735 1 -1.1104 3.8549 22.3771 1.11454
736 1 -1.1104 3.80182 27.8384 1.12357
737 1 -1.1104 3.87777 22.2618 3.83068
738 1 -1.1104 3.84671 27.9646 3.96199
742 1 -1.1104 6.63699 25.1458 1.20462
745 1 -1.1104 6.59754 27.9862 1.11569
747 1 -1.1104 6.62707 27.9596 3.95164
740 2 2.2208 -0.375602 29.3389 5.52632
864 1 -1.1104 1.02703 22.3469 6.81911
862 1 -1.1104 0.924527 25.2449 6.8674
868 1 -1.1104 3.86874 25.1108 6.84209
1079 2 2.2208 2.369 32.1443 -0.284768
1071 2 2.2208 2.42372 26.6208 -0.229897
1072 2 2.2208 5.28578 29.4586 -0.181889
743 1 -1.1104 6.77219 25.0973 4.03092
746 1 -1.1104 6.59724 22.486 3.92126
744 1 -1.1104 6.6445 22.3311 1.05627
748 2 2.2208 10.8449 23.8704 5.40241
749 2 2.2208 10.8193 29.5149 5.41182
750 1 -1.1104 12.1202 24.9378 1.29284
751 1 -1.1104 12.4581 25.3862 3.88201
752 1 -1.1104 12.2031 22.1667 1.03391
753 1 -1.1104 12.2557 27.7988 1.02446
754 2 2.2208 10.8312 26.6354 2.59598
755 1 -1.1104 12.0675 22.3936 3.90255
756 1 -1.1104 12.3486 28.1468 3.95038
757 1 -1.1104 9.36507 25.2981 1.21413
758 2 2.2208 8.14383 23.725 2.56611
759 2 2.2208 8.10286 29.4159 2.59636
760 1 -1.1104 9.6629 25.2634 4.05316
761 2 2.2208 8.10792 26.6679 5.35977
762 1 -1.1104 9.50262 22.4094 1.13064
763 1 -1.1104 9.57724 28.0272 1.28584
764 1 -1.1104 9.41825 22.2813 3.93481
765 1 -1.1104 9.43692 28.123 4.06058
1074 2 2.2208 10.8213 23.7134 -0.287649
1042 2 2.2208 13.6216 40.6086 8.29785
899 1 -1.1104 9.42718 22.4012 6.70371
1081 2 2.2208 5.30738 35.0331 -0.32095
1005 2 2.2208 -0.251086 46.0397 11.0301
769 2 2.2208 5.20305 35.0268 5.39837
770 1 -1.1104 1.05573 30.7383 1.35103
771 1 -1.1104 1.03598 36.2662 1.29002
773 1 -1.1104 0.956414 30.6914 4.12493
774 1 -1.1104 1.0964 36.506 3.91581
776 1 -1.1104 0.989446 33.5462 0.980257
777 2 2.2208 5.24598 32.1701 2.56802
778 2 2.2208 5.34031 37.8016 2.51898
779 1 -1.1104 1.01545 33.54 3.78093
781 1 -1.1104 3.83143 30.6636 1.09593
782 1 -1.1104 4.025 36.3004 1.12768
783 2 2.2208 2.61408 35.0274 2.56563
784 1 -1.1104 3.80884 30.6321 4.03846
785 1 -1.1104 3.96392 36.4276 3.91969
786 2 2.2208 2.43679 32.0967 5.46028
787 2 2.2208 2.50976 37.8561 5.3393
788 1 -1.1104 3.93921 33.5291 1.08437
789 1 -1.1104 3.85831 33.5343 4.03425
775 1 -1.1104 6.76353 36.4721 3.89496
925 1 -1.1104 3.87398 30.7674 6.92156
772 1 -1.1104 6.71577 36.3273 1.04326
1086 2 2.2208 11.0365 34.8276 -0.234423
1054 2 2.2208 5.14391 38.0564 13.7109
793 1 -1.1104 6.71911 30.6242 1.1973
795 1 -1.1104 6.81096 33.5087 1.19481
794 1 -1.1104 6.59245 30.8033 3.97426
780 1 -1.1104 6.58032 33.4645 4.1092
796 2 2.2208 11.0374 35.0646 5.41766
797 1 -1.1104 12.3745 30.6124 1.09775
798 1 -1.1104 12.2841 36.2181 1.14304
799 1 -1.1104 12.3696 30.8858 4.08764
800 1 -1.1104 12.5154 36.4146 3.96479
801 1 -1.1104 12.5282 33.4194 1.02103
802 2 2.2208 10.9432 32.3087 2.65769
803 2 2.2208 10.9925 37.6621 2.59561
804 1 -1.1104 12.4795 33.6602 3.8265