ITEM: TIMESTEP
10000
ITEM: NUMBER OF ATOMS
17670
ITEM: BOX BOUNDS pp pp pp
-3.4871670445381708e-01 2.7688716704453860e+01
-4.4035954364917629e+00 3.3248359543649161e+02
-3.5992503930934422e-01 2.7699925039309377e+01
ITEM: ATOMS id type q x y z
1 2 2.2208 5.21862 1.20936 5.11363
2 1 -1.1104 0.874861 -3.04449 0.732174
3 1 -1.1104 0.830916 2.71189 0.895846
6 1 -1.1104 0.856745 -2.79646 3.66046
7 1 -1.1104 0.965155 2.62004 3.85975
10 1 -1.1104 0.997817 -0.286357 0.818651
12 2 2.2208 5.08878 -1.59285 2.30154
13 2 2.2208 5.07601 4.08021 2.23005
14 1 -1.1104 0.844396 -0.0416108 3.49937
16 1 -1.1104 3.68653 -2.93581 0.936808
17 1 -1.1104 3.61387 2.76803 0.971711
18 2 2.2208 2.38539 1.12114 2.27886
19 1 -1.1104 3.57666 -3.03266 3.67791
20 1 -1.1104 3.82083 2.55947 3.69703
21 2 2.2208 2.2926 -1.58556 5.15201
22 2 2.2208 2.45985 4.03677 5.07293
23 1 -1.1104 3.67746 -0.264493 0.872647
24 1 -1.1104 3.88044 -0.294222 3.73538
8 1 -1.1104 6.57461 -2.8932 3.614
166 1 -1.1104 0.994523 -2.93158 6.49184
5 1 -1.1104 6.40883 2.52858 0.913328
11 1 -1.1104 6.52145 -0.248491 0.942333
174 1 -1.1104 3.82451 -0.223181 6.58918
171 1 -1.1104 6.60859 -0.300155 6.39278
4 1 -1.1104 6.60332 -3.03598 0.799042
168 1 -1.1104 6.60262 -3.10728 6.42886
170 1 -1.1104 0.919522 -0.124799 6.37375
172 1 -1.1104 3.73804 -2.90591 6.49986
15 1 -1.1104 6.63746 -0.091475 3.65173
9 1 -1.1104 6.45505 2.7601 3.86368
8994 2 2.2208 5.14937 -4.32682 5.05853
31 2 2.2208 10.7988 1.29722 5.12417
32 1 -1.1104 12.2576 -2.90522 0.942526
33 1 -1.1104 12.1456 2.65941 0.682467
34 1 -1.1104 12.1132 -2.94714 3.69249
35 1 -1.1104 12.14 2.69184 3.69179
36 1 -1.1104 12.1594 -0.130965 0.992094
37 2 2.2208 10.626 -1.47728 2.27968
39 1 -1.1104 12.0388 -0.0925075 3.81428
40 1 -1.1104 9.33578 -2.92194 0.784946
41 1 -1.1104 9.37624 2.54578 1.00361
42 2 2.2208 8.02333 1.16836 2.32149
43 1 -1.1104 9.33886 -2.89358 3.51885
44 1 -1.1104 9.29508 2.73146 3.7127
45 2 2.2208 7.95838 -1.56568 5.00706
46 2 2.2208 7.87964 4.03436 5.26537
47 1 -1.1104 9.4147 -0.174754 0.794266
48 1 -1.1104 9.3179 -0.109435 3.5876
207 1 -1.1104 12.2126 -0.260571 6.53091
38 2 2.2208 10.8018 3.97217 2.30132
205 1 -1.1104 12.2869 -2.96066 6.40823
210 1 -1.1104 9.38854 -0.1216 6.44793
50 2 2.2208 13.6101 -1.56109 5.16492
208 1 -1.1104 9.4431 -2.98059 6.40583
206 1 -1.1104 12.2591 2.56772 6.44841
8997 2 2.2208 10.7832 -4.26644 5.10272
8996 2 2.2208 7.95928 -4.40053 2.27206
49 2 2.2208 13.51 1.12782 2.24509
54 2 2.2208 5.15043 6.80046 5.09656
55 2 2.2208 5.31683 12.4764 5.0726
56 1 -1.1104 0.890782 8.38664 0.764243
58 1 -1.1104 1.042 8.21931 3.68571
60 1 -1.1104 1.01481 5.4315 0.847667
61 1 -1.1104 1.01658 11.0703 0.926286
66 2 2.2208 5.29449 9.50504 2.21236
67 1 -1.1104 0.959762 5.41371 3.71949
68 1 -1.1104 1.17541 10.9734 3.65301
71 1 -1.1104 3.79468 8.33367 0.84902
72 2 2.2208 2.29167 6.89609 2.18651
73 2 2.2208 2.49426 12.4301 2.30954
74 1 -1.1104 3.75541 8.13843 3.53888
75 2 2.2208 2.42451 9.58384 5.1013
76 1 -1.1104 3.76753 5.54198 0.73496
77 1 -1.1104 3.68799 11.1592 0.887114
79 1 -1.1104 3.82708 5.34705 3.70792
80 1 -1.1104 3.94389 10.9736 3.87038
59 1 -1.1104 6.64994 8.23698 3.65155
63 1 -1.1104 6.53525 5.31405 0.961215
57 1 -1.1104 6.6515 8.03197 0.666923
234 1 -1.1104 1.20068 8.23213 6.58924
236 1 -1.1104 1.11479 5.43911 6.4439
69 1 -1.1104 6.5013 5.47278 3.73658
238 1 -1.1104 3.99672 8.34363 6.24123
62 1 -1.1104 1.1493 11.0511 6.50873
239 1 -1.1104 3.74723 5.39313 6.43467
237 1 -1.1104 6.5972 5.46902 6.57841
83 2 2.2208 -0.324829 12.401 5.01481
81 2 2.2208 -0.278041 6.86088 5.07403
105 2 2.2208 13.6472 6.729 2.22751
235 1 -1.1104 6.66464 8.19079 6.55296
64 1 -1.1104 6.69624 10.7612 0.86341
70 1 -1.1104 6.71282 10.8618 3.6115
65 1 -1.1104 6.8651 11.0241 6.5124
84 2 2.2208 10.8121 6.85592 5.01147
85 2 2.2208 10.8461 12.3894 5.08821
86 1 -1.1104 12.2793 8.24609 0.790145
87 1 -1.1104 12.1753 8.16051 3.6336
88 1 -1.1104 12.2261 5.32435 0.97551
89 1 -1.1104 12.2652 11.1412 0.83488
91 2 2.2208 10.8696 9.68401 2.29912
92 1 -1.1104 12.2553 5.38006 3.56272
93 1 -1.1104 12.2292 11.0799 3.75802
94 1 -1.1104 9.40844 8.08372 0.932283
95 2 2.2208 8.02973 6.78177 2.29828
96 2 2.2208 8.02907 12.2231 2.27362
97 1 -1.1104 9.25402 8.29298 3.67872
98 2 2.2208 8.03671 9.54167 5.25107
99 1 -1.1104 9.41863 5.36079 0.888824
100 1 -1.1104 9.54599 10.9694 0.906845
102 1 -1.1104 9.39031 5.49188 3.66572
103 1 -1.1104 9.45424 11.1695 3.79115
101 1 -1.1104 9.66892 10.9813 6.57907
90 1 -1.1104 12.4798 11.028 6.57305
265 1 -1.1104 12.1628 8.21526 6.43915
266 1 -1.1104 12.1498 5.39382 6.50453
232 2 2.2208 13.571 9.6156 5.01181
269 1 -1.1104 9.28832 5.42449 6.46207
267 1 -1.1104 9.42546 8.25246 6.51915
106 2 2.2208 5.27932 18.0966 5.05659
107 1 -1.1104 1.05809 13.9361 0.938607
109 1 -1.1104 1.09418 19.4954 0.87431
113 1 -1.1104 1.18937 13.8919 3.74871
114 1 -1.1104 1.07698 19.5841 3.88653
116 1 -1.1104 1.07454 16.8295 1.01111
119 2 2.2208 5.32974 15.1566 2.23363
120 2 2.2208 5.25955 20.8225 2.29434
121 1 -1.1104 1.28213 16.8055 3.67994
123 1 -1.1104 4.00931 13.8887 0.969406
125 1 -1.1104 3.84536 19.567 0.793508
127 2 2.2208 2.44905 18.1271 2.30265
128 1 -1.1104 3.88156 13.7797 3.66652
129 1 -1.1104 3.9868 19.3987 3.69734
130 2 2.2208 2.45836 15.2422 5.11595
131 2 2.2208 2.43747 20.8829 5.33369
132 1 -1.1104 3.94198 16.7026 0.896848
134 1 -1.1104 3.91589 16.6651 3.77134
112 1 -1.1104 6.60792 19.3949 6.59739
117 1 -1.1104 0.978791 16.6804 6.42044
122 1 -1.1104 6.61068 16.6399 3.53563
133 1 -1.1104 3.8942 16.6725 6.61858
108 1 -1.1104 0.94134 13.8056 6.51539
124 1 -1.1104 3.8248 13.9097 6.44634
126 1 -1.1104 3.93406 19.2871 6.49912
118 1 -1.1104 6.65129 16.5853 6.42439
135 2 2.2208 -0.288523 15.3184 2.37793
137 2 2.2208 -0.315375 18.0897 5.17105
140 1 -1.1104 6.76102 16.6559 0.816926
110 1 -1.1104 6.80487 13.7486 0.8905
111 1 -1.1104 6.6692 13.7453 6.5251
138 1 -1.1104 6.70936 19.4597 0.818486
115 1 -1.1104 6.8034 13.6864 3.64189
139 1 -1.1104 6.66777 19.6028 3.65462
154 1 -1.1104 9.46269 13.757 6.40415
141 2 2.2208 10.7398 18.0558 5.0981
142 1 -1.1104 12.2989 13.8051 0.828313
144 1 -1.1104 12.2224 19.4928 0.978898
146 1 -1.1104 12.3014 13.8269 3.70347
147 1 -1.1104 12.1135 19.4389 3.77503
148 1 -1.1104 12.2815 16.6293 0.847937
150 2 2.2208 10.8357 15.2477 2.23031
151 2 2.2208 10.8941 20.8864 2.39546
152 1 -1.1104 12.1199 16.5981 3.76431
153 1 -1.1104 9.66036 13.7844 0.718211
155 1 -1.1104 9.50514 19.3702 0.939766
157 2 2.2208 8.07698 18.0713 2.26159
158 1 -1.1104 9.48104 13.8209 3.6319
159 1 -1.1104 9.33118 19.3842 3.79818
160 2 2.2208 7.98201 15.1473 5.00344
161 2 2.2208 7.98033 20.8359 5.12428
162 1 -1.1104 9.471 16.5069 0.960825
164 1 -1.1104 9.37009 16.7254 3.74588
149 1 -1.1104 12.2918 16.4969 6.55737
156 1 -1.1104 9.43189 19.4897 6.44906
145 1 -1.1104 12.2322 19.3038 6.53407
163 1 -1.1104 9.48269 16.5434 6.60994
143 1 -1.1104 12.2853 13.8715 6.55387
165 2 2.2208 13.5706 17.9689 2.34562
204 2 2.2208 13.6498 15.2133 5.19438
231 2 2.2208 13.5557 20.8517 5.18577
345 2 2.2208 13.6321 20.8733 -0.317817
173 1 -1.1104 4.01046 2.60423 6.68445
167 1 -1.1104 0.969375 2.52441 6.68771
9000 2 2.2208 5.20345 -4.37573 10.7606
9020 2 2.2208 2.42879 -4.28818 13.5502
339 2 2.2208 2.44701 1.25228 13.5957
341 2 2.2208 5.26554 4.06651 13.5282
338 2 2.2208 5.1557 -1.48105 13.5827
175 2 2.2208 5.22184 1.23437 10.736
176 1 -1.1104 0.931659 -2.90444 12.0649
177 1 -1.1104 0.918234 2.6398 12.1308
180 1 -1.1104 0.973606 -2.82726 9.26472
181 1 -1.1104 0.955366 2.58362 9.36072
184 1 -1.1104 1.02622 -0.197451 12.0911
186 2 2.2208 5.10744 -1.59737 7.91949
187 2 2.2208 5.23472 4.04857 8.01674
188 1 -1.1104 0.896815 -0.164177 9.41239
190 1 -1.1104 3.74374 -3.15082 12.176
191 1 -1.1104 3.80356 2.54855 12.2272
192 2 2.2208 2.39198 1.27896 7.96905
193 1 -1.1104 3.80246 -2.88848 9.37128
194 1 -1.1104 3.77768 2.68012 9.46489
195 2 2.2208 2.36472 -1.58992 10.6553
196 2 2.2208 2.39195 4.04416 10.791
197 1 -1.1104 3.72018 -0.278874 12.064
198 1 -1.1104 3.82742 -0.0868788 9.33451
185 1 -1.1104 6.45013 -0.130674 12.0783
189 1 -1.1104 6.61458 -0.216841 9.32458
178 1 -1.1104 6.61982 -2.94746 12.1426
183 1 -1.1104 6.56403 2.5106 9.43241
179 1 -1.1104 6.59512 2.69222 12.155
182 1 -1.1104 6.5971 -2.97015 9.34716
9001 2 2.2208 -0.324425 -4.33744 10.6683
8999 2 2.2208 2.4065 -4.27597 7.96249
169 1 -1.1104 6.67233 2.64019 6.65894
209 1 -1.1104 9.45043 2.71934 6.65516
346 2 2.2208 10.7984 -1.62668 13.5194
350 2 2.2208 10.9773 3.9937 13.5812
203 2 2.2208 13.6142 4.077 10.6838
229 2 2.2208 13.5611 1.17098 7.90478
9003 2 2.2208 10.8038 -4.37541 10.6267
343 2 2.2208 7.95037 1.31128 13.4511
211 2 2.2208 10.7582 1.21625 10.7321
212 1 -1.1104 12.2866 -2.88247 12.2008
213 1 -1.1104 12.2362 2.38786 12.0307
214 1 -1.1104 12.1891 -3.00597 9.38034
215 1 -1.1104 12.1385 2.62073 9.26832
216 1 -1.1104 12.0643 -0.151112 12.1308
217 2 2.2208 10.7575 -1.47453 7.92533
218 2 2.2208 10.8667 4.09306 7.89984
219 1 -1.1104 12.086 -0.271287 9.30969
220 1 -1.1104 9.42451 -2.98831 12.1218
221 1 -1.1104 9.35806 2.65056 12.1908
222 2 2.2208 8.01092 1.1599 8.01329
223 1 -1.1104 9.39469 -3.04209 9.19143
224 1 -1.1104 9.33972 2.63575 9.48343
225 2 2.2208 7.92741 -1.50963 10.7444
226 2 2.2208 7.92467 4.02042 10.821
227 1 -1.1104 9.267 -0.156922 12.0425
228 1 -1.1104 9.31066 -0.184103 9.33097
230 2 2.2208 13.4998 -1.59838 10.6856
9016 2 2.2208 8.15659 -4.29151 13.4465
9004 2 2.2208 13.6453 -4.27017 7.89295
9015 2 2.2208 13.6303 -4.32174 13.4733
78 1 -1.1104 3.8681 11.1347 6.68985
351 2 2.2208 2.42115 7.02968 13.5197
353 2 2.2208 2.52573 12.4266 13.4121
240 2 2.2208 5.32031 6.92112 10.6515
241 2 2.2208 5.28963 12.553 10.7417
242 1 -1.1104 1.0586 8.35537 12.2446
244 1 -1.1104 1.23098 8.36518 9.26564
246 1 -1.1104 0.933577 5.60816 11.9886
247 1 -1.1104 1.16984 11.0202 12.1331
250 2 2.2208 5.29964 9.6312 7.72438
251 1 -1.1104 1.06178 5.43661 9.21413
252 1 -1.1104 1.1189 11.2031 9.36096
255 1 -1.1104 3.94569 8.35346 11.9975
256 2 2.2208 2.43384 6.78851 7.90656
257 2 2.2208 2.42886 12.488 7.97435
258 1 -1.1104 3.88103 8.32376 9.20105
259 2 2.2208 2.47295 9.78893 10.6488
260 1 -1.1104 3.54424 5.58667 12.0658
261 1 -1.1104 3.88211 11.2592 12.0382
262 1 -1.1104 3.90124 5.54931 9.26007
263 1 -1.1104 3.98071 11.1548 9.23904
245 1 -1.1104 6.65914 8.31323 9.28976
248 1 -1.1104 6.4729 5.50246 12.1381
367 2 2.2208 -0.233895 9.72959 13.5507
30 2 2.2208 -0.314701 9.72078 7.88967
29 2 2.2208 -0.244328 7.03314 10.7223
352 2 2.2208 5.35396 9.70309 13.4276
53 2 2.2208 13.6055 12.3203 7.93908
253 1 -1.1104 6.68184 5.42121 9.28397
243 1 -1.1104 6.7341 8.34402 11.9016
254 1 -1.1104 6.73753 11.2029 9.23854
249 1 -1.1104 6.79409 11.0664 12.0941
356 2 2.2208 8.08795 12.4824 13.5173
354 2 2.2208 8.02416 6.92188 13.5455
355 2 2.2208 10.87 9.57624 13.5098
264 1 -1.1104 9.45823 11.0671 9.38939
268 1 -1.1104 9.37646 5.42114 9.17781
270 1 -1.1104 9.36876 11.1457 12.0206
271 1 -1.1104 9.49995 5.5084 12.1084
272 2 2.2208 8.05097 9.73734 10.5954
273 1 -1.1104 9.53697 8.17221 9.21071
274 2 2.2208 8.18737 12.3816 7.88624
275 2 2.2208 8.12058 6.83126 7.95731
276 2 2.2208 10.8548 6.76479 10.6208
277 2 2.2208 10.8529 12.3029 10.7608
278 1 -1.1104 12.2982 8.12204 12.0349
279 1 -1.1104 12.1854 8.17622 9.23612
280 1 -1.1104 12.1849 5.40508 12.0559
281 1 -1.1104 12.2614 10.887 12.2192
282 2 2.2208 10.8841 9.59125 8.01025
283 1 -1.1104 12.1731 5.35599 9.35574
284 1 -1.1104 12.2798 11.0494 9.36118
285 1 -1.1104 9.57373 8.28643 12.0185
336 2 2.2208 13.643 6.87413 13.4845
52 2 2.2208 13.6611 9.40421 10.7004
376 2 2.2208 13.6044 12.4939 13.5908
302 1 -1.1104 0.979 19.3649 6.7337
358 2 2.2208 5.31275 20.78 13.48
359 2 2.2208 5.25318 15.3169 13.5958
288 1 -1.1104 6.6533 19.4737 9.4507
357 2 2.2208 2.37278 18.1564 13.3808
310 2 2.2208 2.47604 15.304 10.7094
305 1 -1.1104 3.89424 14.0061 9.33831
309 2 2.2208 2.34989 20.9098 10.7848
301 1 -1.1104 3.80131 19.524 9.29965
304 1 -1.1104 3.91059 16.7807 9.49595
298 1 -1.1104 0.949621 19.4746 12.099
295 2 2.2208 5.34719 15.2364 7.86758
300 2 2.2208 5.27537 18.0687 10.7335
308 1 -1.1104 3.99866 16.8595 12.2254
307 1 -1.1104 1.04998 16.6423 12.1752
299 1 -1.1104 1.14354 13.9087 12.0785
303 2 2.2208 2.49283 18.0224 7.94887
286 1 -1.1104 3.76848 19.6368 12.0924
287 1 -1.1104 3.85602 14.0262 12.1186
291 1 -1.1104 1.08126 19.4903 9.44486
292 1 -1.1104 1.03643 16.7841 9.26672
293 2 2.2208 5.23406 20.7852 7.97203
294 1 -1.1104 1.0125 13.9776 9.24656
289 1 -1.1104 6.58774 16.8102 9.15525
335 2 2.2208 -0.282527 20.9679 13.3484
361 2 2.2208 10.7454 15.081 13.5059
321 1 -1.1104 9.43799 19.4308 12.0838
322 1 -1.1104 9.45027 13.8136 12.1032
296 1 -1.1104 6.71574 19.4493 12.2479
328 1 -1.1104 12.1834 13.7268 9.32984
330 1 -1.1104 12.1434 13.6372 12.2217
363 2 2.2208 13.5851 18.0035 13.509
323 1 -1.1104 12.278 16.5127 9.31938
315 1 -1.1104 9.46599 16.5872 12.0691
306 1 -1.1104 6.75046 16.6189 12.087
290 1 -1.1104 6.69824 13.7326 9.35666
297 1 -1.1104 6.72146 13.7597 12.1272
360 2 2.2208 10.836 20.8583 13.5472
327 1 -1.1104 12.1584 19.3844 9.24042
319 1 -1.1104 9.30995 13.7458 9.31857
318 1 -1.1104 9.4984 19.2966 9.24464
324 2 2.2208 10.7944 20.8001 7.89563
316 2 2.2208 8.1074 20.7893 10.7569
314 1 -1.1104 9.4308 16.49 9.25849
326 1 -1.1104 12.2227 16.4216 12.1408
325 2 2.2208 10.8432 15.1762 7.84429
362 2 2.2208 8.06931 17.9177 13.5487
320 2 2.2208 8.09205 17.8895 7.86746
329 1 -1.1104 12.2745 19.3376 12.0943
331 2 2.2208 10.7858 17.9759 10.6752
317 2 2.2208 8.00511 15.088 10.6838
333 2 2.2208 13.6485 15.2725 10.7005
28 2 2.2208 13.5819 20.8805 10.7398
388 2 2.2208 5.22747 1.34458 16.3449
389 1 -1.1104 1.05304 -2.95885 17.6219
390 1 -1.1104 1.10151 2.65737 17.7358
393 1 -1.1104 0.954682 -2.96813 14.8641
395 1 -1.1104 1.09724 2.77592 14.7789
401 1 -1.1104 0.94654 -0.212713 17.6725
403 2 2.2208 5.19615 -1.5927 19.1373
404 2 2.2208 5.33155 3.90926 19.2164
405 1 -1.1104 0.986201 -0.0503931 14.9433
409 1 -1.1104 3.82009 -2.96305 17.7445
410 1 -1.1104 3.76493 2.59302 17.7724
411 2 2.2208 2.41786 1.1887 19.17
412 1 -1.1104 3.9028 -2.82997 15.0246
414 1 -1.1104 3.749 2.74392 14.8929
416 2 2.2208 2.53602 -1.51026 16.3077
417 2 2.2208 2.56987 4.12889 16.3362
418 1 -1.1104 3.78716 -0.134226 17.7726
419 1 -1.1104 3.93089 0.00152028 14.9762
420 1 -1.1104 3.86304 -0.283805 20.5187
415 1 -1.1104 3.80971 2.71372 20.5513
408 1 -1.1104 6.64399 -0.092709 20.3544
413 1 -1.1104 3.79469 -3.03684 20.4067
406 1 -1.1104 1.13379 -0.12967 20.652
396 1 -1.1104 0.993866 2.57175 20.5746
397 1 -1.1104 6.6148 -3.04856 14.7906
399 1 -1.1104 6.53196 2.69057 14.9851
402 1 -1.1104 6.65552 -0.164529 17.6625
398 1 -1.1104 6.59728 -2.9734 20.4578
427 2 2.2208 -0.315216 3.94303 19.1318
9158 2 2.2208 2.31101 -4.25551 19.051
9159 2 2.2208 5.20502 -4.3986 16.3091
394 1 -1.1104 1.04884 -2.78858 20.5799
392 1 -1.1104 6.75113 2.62213 17.6694
407 1 -1.1104 6.73542 -0.0969281 14.8466
400 1 -1.1104 6.68882 2.64861 20.4843
391 1 -1.1104 6.67751 -2.91536 17.6749
431 2 2.2208 10.8059 1.15583 16.1432
432 1 -1.1104 12.0946 -2.92459 17.6404
433 1 -1.1104 12.2861 2.77166 17.616
434 1 -1.1104 12.2605 -3.14833 15.0892
436 1 -1.1104 12.3393 2.66633 14.8954
438 1 -1.1104 12.3008 -0.0593795 17.5016
439 2 2.2208 10.8968 -1.57816 19.0142
440 2 2.2208 10.8844 4.06439 19.0709
441 1 -1.1104 12.265 -0.370026 14.7842
443 1 -1.1104 9.3512 -3.0513 17.805
444 1 -1.1104 9.51091 2.50814 17.6503
445 2 2.2208 8.08993 1.20282 18.9684
446 1 -1.1104 9.44335 -2.97912 14.9821
448 1 -1.1104 9.37991 2.55508 14.9218
450 2 2.2208 8.02383 -1.55017 16.3298
451 2 2.2208 8.10716 4.02221 16.3172
452 1 -1.1104 9.57999 -0.218621 17.4965
453 1 -1.1104 9.33125 -0.247589 14.7739
437 1 -1.1104 12.1865 2.46202 20.4029
447 1 -1.1104 9.44689 -2.99083 20.4719
449 1 -1.1104 9.40574 2.78684 20.429
442 1 -1.1104 12.2873 -0.106428 20.2681
454 1 -1.1104 9.457 -0.208602 20.3583
428 2 2.2208 13.6255 1.26973 19.0399
9128 2 2.2208 7.99867 -4.39943 19.1867
435 1 -1.1104 12.0565 -2.85545 20.5212
459 2 2.2208 13.5785 -1.62992 16.3218
464 2 2.2208 5.26995 6.84308 16.2794
465 2 2.2208 5.25943 12.4689 16.3374
466 1 -1.1104 0.947086 8.29344 17.518
468 1 -1.1104 1.13384 8.30469 14.8737
472 1 -1.1104 1.01373 5.58006 17.7156
473 1 -1.1104 1.03084 11.0854 17.8089
476 2 2.2208 5.20078 9.64222 19.0898
477 1 -1.1104 1.05959 5.57238 14.8788
479 1 -1.1104 1.04872 10.9884 14.996
485 1 -1.1104 3.73994 8.20063 17.7023
486 2 2.2208 2.36572 6.90358 19.0296
487 2 2.2208 2.35421 12.6245 19.2519
488 1 -1.1104 3.998 8.20922 14.9128
490 2 2.2208 2.47498 9.71223 16.3496
491 1 -1.1104 3.99385 5.3516 17.6983
492 1 -1.1104 3.84882 11.2394 17.7196
493 1 -1.1104 3.86122 5.36979 14.9895
495 1 -1.1104 3.89285 10.9774 14.9191
483 1 -1.1104 6.62886 11.0872 14.8577
469 1 -1.1104 0.998923 8.32038 20.2991
494 1 -1.1104 3.79025 5.44363 20.4401
474 1 -1.1104 6.65344 5.38071 17.7811
489 1 -1.1104 3.73942 8.26115 20.4672
480 1 -1.1104 0.987885 11.2239 20.5577
496 1 -1.1104 3.70182 11.1801 20.5561
471 1 -1.1104 6.51705 8.29102 20.4993
484 1 -1.1104 6.46297 11.0619 20.5661
482 1 -1.1104 6.65316 5.32845 20.4515
467 1 -1.1104 6.65555 8.17212 17.7901
478 1 -1.1104 0.94897 5.50549 20.5049
470 1 -1.1104 6.74244 8.41184 14.7889
481 1 -1.1104 6.73452 5.39848 14.9152
475 1 -1.1104 6.67679 10.9712 17.7874
500 2 2.2208 10.8396 6.83858 16.4201
501 2 2.2208 10.9229 12.3822 16.3487
502 1 -1.1104 12.3363 8.13605 17.7932
503 1 -1.1104 12.2546 8.32258 14.9091
505 1 -1.1104 12.2352 5.41129 17.694
506 1 -1.1104 12.2832 11.0246 17.8852
507 2 2.2208 10.7901 9.63895 19.2162
508 1 -1.1104 12.4914 5.38178 14.9457
510 1 -1.1104 12.3095 11.0251 15.0271
512 1 -1.1104 9.41784 8.36503 17.7569
513 2 2.2208 8.01125 6.80198 19.1857
514 2 2.2208 7.98127 12.4835 19.2353
515 1 -1.1104 9.44846 8.20827 14.9063
517 2 2.2208 8.07233 9.70415 16.327
518 1 -1.1104 9.31313 5.46071 17.6346
519 1 -1.1104 9.40273 11.1792 17.8432
520 1 -1.1104 9.57354 5.34062 14.8935
522 1 -1.1104 9.54691 11.0194 15.0905
509 1 -1.1104 12.2609 5.37202 20.5871
523 1 -1.1104 9.38681 10.965 20.5698
521 1 -1.1104 9.57599 5.42872 20.4732
504 1 -1.1104 12.2332 8.2402 20.4952
516 1 -1.1104 9.30037 8.14898 20.6504
511 1 -1.1104 12.2678 10.9766 20.5488
651 2 2.2208 13.6008 6.80558 19.1483
527 2 2.2208 5.26632 18.1619 16.3721
528 1 -1.1104 0.938317 13.9075 17.6798
529 1 -1.1104 1.22188 19.5455 17.721
532 1 -1.1104 1.06607 13.6789 14.9074
534 1 -1.1104 0.882289 19.5887 15.0217
540 1 -1.1104 1.01588 16.7781 17.7248
542 2 2.2208 5.23626 15.3106 19.2474
543 2 2.2208 5.29414 20.9931 19.0995
544 1 -1.1104 1.03012 16.6345 14.8185
548 1 -1.1104 3.68356 14.0037 17.9879
549 1 -1.1104 3.94676 19.6058 17.7416
550 2 2.2208 2.5611 18.0872 19.0741
551 1 -1.1104 3.98417 13.764 15.0013
553 1 -1.1104 3.8161 19.3905 14.7195
555 2 2.2208 2.51558 15.2145 16.4788
556 2 2.2208 2.44869 20.9162 16.2936
557 1 -1.1104 3.91087 16.6849 17.9228
558 1 -1.1104 3.97564 16.5622 15.0885
538 1 -1.1104 6.61756 19.2886 15.0054
533 1 -1.1104 1.03795 13.9986 20.6287
554 1 -1.1104 3.97126 19.4662 20.5379
535 1 -1.1104 1.16258 19.5393 20.487
541 1 -1.1104 6.58414 16.6604 17.7408
546 1 -1.1104 6.6513 16.5834 14.9617
545 1 -1.1104 0.965107 16.6812 20.6306
537 1 -1.1104 6.54299 14.076 20.5853
530 1 -1.1104 6.61992 13.7789 17.834
457 2 2.2208 -0.264792 15.3391 19.1888
547 1 -1.1104 6.61661 16.8517 20.447
458 2 2.2208 -0.320177 20.9928 19.157
536 1 -1.1104 6.85428 13.886 15.1001
531 1 -1.1104 6.71294 19.5024 17.6682
579 1 -1.1104 9.49614 13.9351 20.5408
563 2 2.2208 10.852 18.0736 16.3797
564 1 -1.1104 12.31 13.7822 17.6204
565 1 -1.1104 12.2455 19.5408 17.8389
566 1 -1.1104 12.3058 13.8669 15.0211
568 1 -1.1104 12.2828 19.4112 14.9158
570 1 -1.1104 12.2427 16.6963 17.7778
571 2 2.2208 10.8781 15.257 19.1241
572 2 2.2208 10.9627 20.898 19.1614
573 1 -1.1104 12.2559 16.721 15.0024
575 1 -1.1104 9.48817 13.9716 17.7795
576 1 -1.1104 9.48577 19.5357 17.7725
577 2 2.2208 8.109 18.1721 19.1266
578 1 -1.1104 9.55808 13.7862 14.9184
580 1 -1.1104 9.438 19.3826 14.8759
582 2 2.2208 8.00953 15.3386 16.4222
583 2 2.2208 8.14517 20.9363 16.3117
584 1 -1.1104 9.56003 16.8133 17.8128
585 1 -1.1104 9.44245 16.6707 15.0616
586 1 -1.1104 9.38835 16.7982 20.5134
567 1 -1.1104 12.2692 13.8478 20.521
569 1 -1.1104 12.2709 19.4157 20.6446
581 1 -1.1104 9.48411 19.5983 20.5009
574 1 -1.1104 12.203 16.6841 20.5241
460 2 2.2208 13.6493 20.8651 16.4254
9093 2 2.2208 5.06954 -4.37699 21.9011
365 2 2.2208 2.36133 -1.69557 27.5952
591 2 2.2208 5.37905 1.1925 21.9127
592 1 -1.1104 1.08741 -2.9487 23.2557
593 1 -1.1104 1.0882 2.71669 23.3912
596 1 -1.1104 0.841713 -2.86557 26.0699
597 1 -1.1104 0.971673 2.6023 26.2204
600 1 -1.1104 1.19324 -0.194426 23.3593
602 2 2.2208 5.34205 -1.62253 24.6205
603 2 2.2208 5.30389 3.99407 24.645
604 1 -1.1104 0.961693 0.00737628 26.0506
606 1 -1.1104 3.86226 -2.85325 23.4259
607 1 -1.1104 3.81703 2.61117 23.2961
608 2 2.2208 2.41596 1.24024 24.8602
609 1 -1.1104 3.73449 -3.04225 26.11
610 1 -1.1104 3.9014 2.5236 26.1109
611 2 2.2208 2.48923 -1.55298 21.9116
612 2 2.2208 2.40765 3.9621 21.8566
613 1 -1.1104 3.96631 -0.313826 23.3576
614 1 -1.1104 3.78494 -0.359021 26.199
595 1 -1.1104 6.64688 2.7476 23.2619
598 1 -1.1104 6.5218 -3.13544 26.0461
599 1 -1.1104 6.65451 2.57411 26.1436
605 1 -1.1104 6.49704 -0.256161 26.2332
364 2 2.2208 5.18683 1.13871 27.5507
366 2 2.2208 2.3115 4.0762 27.4803
625 2 2.2208 -0.285727 1.2155 21.9752
9092 2 2.2208 2.31603 -4.28423 24.6381
9008 2 2.2208 10.8605 -4.31698 27.4723
9090 2 2.2208 10.777 -4.32909 21.8612
377 2 2.2208 13.4533 -1.57431 27.4646
601 1 -1.1104 6.7225 -0.120162 23.4757
594 1 -1.1104 6.72916 -2.89338 23.1607
369 2 2.2208 10.6877 1.18238 27.503
372 2 2.2208 7.9316 3.9167 27.5599
627 2 2.2208 10.8202 1.33001 21.8884
628 1 -1.1104 12.1414 -2.80799 23.2673
629 1 -1.1104 12.3069 2.65713 23.1237
630 1 -1.1104 12.0887 -3.04553 26.0391
631 1 -1.1104 12.0144 2.40941 25.8521
632 1 -1.1104 12.2181 -0.0632288 23.2018
633 2 2.2208 10.7612 -1.53283 24.6116
634 2 2.2208 10.9619 4.01746 24.6062
635 1 -1.1104 12.1765 -0.32645 26.0853
636 1 -1.1104 9.32282 -2.96894 23.2982
637 1 -1.1104 9.47027 2.62788 23.2575
638 2 2.2208 8.0379 1.2549 24.6829
639 1 -1.1104 9.18634 -2.86801 26.0283
640 1 -1.1104 9.25673 2.5823 26.0552
641 2 2.2208 8.06077 -1.53926 21.7613
642 2 2.2208 8.08079 4.01781 21.966
643 1 -1.1104 9.39893 -0.161497 23.2825
644 1 -1.1104 9.37139 -0.0350762 26.0416
653 2 2.2208 13.5235 -1.58871 21.8712
654 2 2.2208 13.5824 1.19265 24.657
370 2 2.2208 7.94567 -1.61061 27.4656
378 2 2.2208 13.6155 3.88856 27.4904
381 2 2.2208 5.09242 12.4283 27.5502
656 2 2.2208 5.18143 6.75547 21.8766
657 2 2.2208 5.2382 12.5616 21.929
658 1 -1.1104 0.983633 8.32506 23.2415
660 1 -1.1104 1.05668 8.14024 26.0001
662 1 -1.1104 0.865183 5.62936 23.3458
663 1 -1.1104 0.903171 11.0321 23.2798
666 2 2.2208 5.16216 9.642 24.6694
667 1 -1.1104 0.992424 5.39917 26.2169
668 1 -1.1104 0.976679 10.9926 26.1715
671 1 -1.1104 3.80027 8.10443 23.3503
672 2 2.2208 2.45867 6.8111 24.7433
673 2 2.2208 2.39218 12.4286 24.7845
674 1 -1.1104 3.82058 8.10862 26.1449
675 2 2.2208 2.33464 9.73014 21.8222
676 1 -1.1104 3.80121 5.35127 23.1282
677 1 -1.1104 3.70455 11.0153 23.3492
678 1 -1.1104 3.73099 5.38864 26.0586
679 1 -1.1104 3.76035 10.8939 26.049
661 1 -1.1104 6.57573 8.21707 25.8944
664 1 -1.1104 6.64833 5.39185 23.2135
669 1 -1.1104 6.62028 5.43748 25.9666
380 2 2.2208 2.36837 9.59976 27.5274
379 2 2.2208 5.30687 6.77893 27.3525
670 1 -1.1104 6.58832 10.9212 26.2714
665 1 -1.1104 6.542 11.1826 23.4487
659 1 -1.1104 6.61824 8.1794 23.1141
382 2 2.2208 -0.308851 12.5027 27.6177
385 2 2.2208 8.02768 9.4774 27.4962
708 2 2.2208 13.6181 12.4037 24.7017
384 2 2.2208 10.8433 6.82809 27.5289
386 2 2.2208 10.8809 12.4162 27.3469
687 1 -1.1104 9.50338 10.9411 26.1471
688 1 -1.1104 9.52523 5.35906 26.103
689 1 -1.1104 9.34513 11.0861 23.4206
690 1 -1.1104 9.5373 5.3912 23.4041
691 2 2.2208 7.91441 9.69943 22.0651
692 1 -1.1104 9.32583 8.09067 26.1875
693 2 2.2208 8.05984 12.4596 24.8743
694 2 2.2208 7.98627 6.7934 24.6659
695 2 2.2208 10.8806 6.89569 22.0295
696 2 2.2208 10.9439 12.321 21.9326
697 1 -1.1104 12.4607 8.29293 23.2943
698 1 -1.1104 12.0938 8.10268 26.0834
699 1 -1.1104 12.3829 5.39362 23.3049
700 1 -1.1104 12.2882 11.0457 23.4943
701 2 2.2208 10.8053 9.53612 24.7552
702 1 -1.1104 12.2338 5.30898 26.1436
703 1 -1.1104 12.2498 10.8803 26.1535
704 1 -1.1104 9.54709 8.37751 23.3229
387 2 2.2208 13.6608 9.77276 27.5362
680 1 -1.1104 6.63791 16.7101 23.2606
559 1 -1.1104 3.67198 16.733 20.7228
552 1 -1.1104 3.7354 13.8747 20.7718
374 2 2.2208 5.35922 18.0408 27.5405
375 2 2.2208 2.4054 20.9784 27.5537
539 1 -1.1104 6.63426 19.6881 20.6943
712 1 -1.1104 6.54498 13.7904 26.2265
718 1 -1.1104 6.64883 19.4572 23.4317
720 2 2.2208 5.24997 15.2948 24.7196
714 1 -1.1104 6.61008 16.6385 26.015
647 2 2.2208 2.42947 15.3253 22.1748
649 2 2.2208 2.45265 20.8511 21.9586
652 1 -1.1104 3.87534 16.6983 23.3876
655 1 -1.1104 1.10866 16.6507 23.5958
681 1 -1.1104 3.80829 13.8162 26.1568
682 1 -1.1104 3.85668 16.7168 26.1703
683 2 2.2208 2.42233 18.1647 24.827
686 1 -1.1104 3.81795 19.5702 26.095
705 2 2.2208 5.3068 18.1274 21.8366
706 1 -1.1104 1.01618 13.7197 23.3418
707 1 -1.1104 1.15352 19.535 23.4091
711 1 -1.1104 3.89216 19.5419 23.3029
713 1 -1.1104 3.9037 13.9059 23.4279
715 1 -1.1104 0.869727 19.5712 26.2242
716 1 -1.1104 1.07902 16.6949 26.3507
717 1 -1.1104 1.04534 13.8659 26.057
719 2 2.2208 5.32838 20.8088 24.7479
373 2 2.2208 2.51318 15.3791 27.5956
645 2 2.2208 -0.334878 20.8669 24.7652
623 2 2.2208 -0.2066 18.2722 21.8475
371 2 2.2208 -0.236001 18.0531 27.5805
646 2 2.2208 -0.278339 15.2822 24.7185
616 2 2.2208 8.08166 21.0476 22.0174
561 1 -1.1104 9.51178 13.8658 23.4677
617 1 -1.1104 9.48257 16.6885 23.4364
461 2 2.2208 13.6442 20.8768 21.9336
588 1 -1.1104 6.7868 19.5561 26.1746
615 2 2.2208 8.11512 15.3196 21.9957
560 1 -1.1104 12.2137 16.6612 26.012
590 1 -1.1104 9.50938 19.4033 26.1561
525 2 2.2208 10.788 15.3317 24.7723
430 2 2.2208 13.6448 15.2658 21.8957
497 1 -1.1104 12.1946 19.4666 23.3159
709 1 -1.1104 6.76845 13.9614 23.3795
347 2 2.2208 8.05259 15.2635 27.5263
349 2 2.2208 8.00019 21.049 27.6071
587 2 2.2208 8.08273 18.1213 24.8031
463 1 -1.1104 12.2314 13.9338 23.3704
499 1 -1.1104 12.2372 19.5978 26.0121
348 2 2.2208 10.81 18.0568 27.6812
620 1 -1.1104 9.41975 16.6895 26.2072
589 1 -1.1104 9.38915 13.8873 26.1705
498 1 -1.1104 12.3515 13.8525 26.2909
524 1 -1.1104 12.244 16.6658 23.2925
562 1 -1.1104 9.4056 19.46 23.2787
526 2 2.2208 10.8657 20.8807 24.7466
462 2 2.2208 10.8119 18.1118 21.986
455 2 2.2208 13.6039 18.0863 24.7997
721 2 2.2208 5.43243 23.6372 5.15546
722 2 2.2208 5.26584 29.2363 5.18511
723 1 -1.1104 0.99637 25.2769 0.92352
724 1 -1.1104 1.09375 25.0782 3.834
725 1 -1.1104 1.12004 22.3203 0.879966
726 1 -1.1104 1.07755 27.9981 1.05338
727 2 2.2208 5.1549 26.4807 2.23286
728 1 -1.1104 1.02015 22.2005 3.8018
729 1 -1.1104 0.992866 27.8523 3.77794
730 1 -1.1104 3.73498 25.0249 0.981691
731 2 2.2208 2.33583 23.5574 2.33077
732 2 2.2208 2.51808 29.3074 2.40296
733 1 -1.1104 3.87379 25.1011 3.68978
734 2 2.2208 2.46705 26.4171 5.07421
735 1 -1.1104 3.86047 22.2875 0.898917
736 1 -1.1104 3.94713 28.035 0.899057
737 1 -1.1104 3.89716 22.1476 3.94553
738 1 -1.1104 3.79861 27.8273 3.82646
862 1 -1.1104 1.11959 25.1262 6.51951
868 1 -1.1104 3.84213 24.9783 6.4412
870 1 -1.1104 3.84592 27.8781 6.59894
867 1 -1.1104 6.5652 27.758 6.60982
865 1 -1.1104 1.09193 27.8242 6.64319
864 1 -1.1104 0.997758 22.1662 6.49881
866 1 -1.1104 6.64507 22.2316 6.56672
863 1 -1.1104 6.62519 25.0006 6.55111
742 1 -1.1104 6.55955 25.0716 1.13941
743 1 -1.1104 6.60103 25.1245 3.80805
747 1 -1.1104 6.63108 27.923 3.72936
739 2 2.2208 -0.328311 26.4793 2.35563
744 1 -1.1104 6.69832 22.4163 0.798071
746 1 -1.1104 6.77372 22.2902 3.73113
745 1 -1.1104 6.73948 27.7654 1.08231
748 2 2.2208 10.9545 23.6676 5.04008
749 2 2.2208 10.8204 29.3273 5.07553
750 1 -1.1104 12.281 25.0331 0.969137
751 1 -1.1104 12.2868 25.0496 3.8427
752 1 -1.1104 12.2694 22.325 0.949207
753 1 -1.1104 12.2645 27.8282 0.801536
754 2 2.2208 10.891 26.386 2.41181
755 1 -1.1104 12.3424 22.2322 3.74428
756 1 -1.1104 12.153 27.8714 3.63033
757 1 -1.1104 9.43343 25.0027 0.91099
758 2 2.2208 8.02983 23.7979 2.45471
759 2 2.2208 8.10459 29.3239 2.36603
760 1 -1.1104 9.41251 25.0959 3.72934
761 2 2.2208 8.03092 26.4871 5.21838
762 1 -1.1104 9.43325 22.1995 1.0075
763 1 -1.1104 9.53238 27.8102 1.09035
764 1 -1.1104 9.70111 22.2736 3.67653
765 1 -1.1104 9.46476 27.9083 3.70035
899 1 -1.1104 9.54534 22.377 6.53013
897 1 -1.1104 12.3603 27.7314 6.53809
898 1 -1.1104 9.3601 25.0633 6.4701
895 1 -1.1104 12.1781 25.0583 6.47694
900 1 -1.1104 9.5067 27.8151 6.50189
896 1 -1.1104 12.2705 22.2175 6.49316
767 2 2.2208 13.5596 29.3775 2.4589
1075 2 2.2208 8.08327 26.3719 -0.331672
1077 2 2.2208 10.8357 29.3139 -0.303461
769 2 2.2208 5.39278 35.0037 5.21589
770 1 -1.1104 1.13687 30.827 1.07191
771 1 -1.1104 1.06257 36.3629 1.01847
773 1 -1.1104 1.01571 30.6553 3.83337
774 1 -1.1104 1.07163 36.3198 3.82214
776 1 -1.1104 1.04761 33.5784 1.01224
777 2 2.2208 5.31349 32.1247 2.31477
778 2 2.2208 5.30046 37.6524 2.28276
779 1 -1.1104 1.03709 33.5793 3.91801
781 1 -1.1104 3.83298 30.8556 0.942591
782 1 -1.1104 3.91231 36.4359 0.892584
783 2 2.2208 2.46407 35.0006 2.55966
784 1 -1.1104 3.79593 30.7322 3.85978
785 1 -1.1104 3.84777 36.5724 3.65091
786 2 2.2208 2.40307 32.1636 5.20881
787 2 2.2208 2.40433 38.0034 5.11349
788 1 -1.1104 3.84457 33.5512 1.09329
789 1 -1.1104 3.95151 33.7142 3.78368
926 1 -1.1104 3.72664 36.3353 6.37329
923 1 -1.1104 1.04906 33.6396 6.63611
920 1 -1.1104 0.996845 36.4222 6.49149
925 1 -1.1104 3.9467 30.5862 6.44904
927 1 -1.1104 3.95905 33.4442 6.56718
794 1 -1.1104 6.64539 30.7432 3.64247
795 1 -1.1104 6.57184 33.535 0.926383
922 1 -1.1104 6.48256 36.4168 6.61721
775 1 -1.1104 6.5804 36.3678 3.76063
791 2 2.2208 -0.29849 32.2564 2.5143
792 2 2.2208 -0.291287 37.7787 2.37234
1079 2 2.2208 2.5551 32.1936 -0.28175
814 2 2.2208 13.6302 34.8868 2.5229
921 1 -1.1104 6.72134 30.7393 6.45659
924 1 -1.1104 6.72129 33.6287 6.49906
772 1 -1.1104 6.78191 36.3941 0.7825