ITEM: TIMESTEP
30000
ITEM: NUMBER OF ATOMS
17670
ITEM: BOX BOUNDS pp pp pp
-3.5669239794665858e-01 2.7696692397946819e+01
-4.3085368307715859e+00 3.3238853683077059e+02
-3.6415963059423012e-01 2.7704159630594283e+01
ITEM: ATOMS id type q x y z
1 2 2.2208 5.48187 1.34515 5.32756
2 1 -1.1104 1.3157 -2.81869 1.19177
3 1 -1.1104 1.10124 2.76027 1.18883
6 1 -1.1104 1.22559 -3.02691 4.0004
7 1 -1.1104 1.02888 2.67608 3.79648
10 1 -1.1104 1.0702 -0.123252 1.22778
12 2 2.2208 5.4603 -1.53548 2.54162
13 2 2.2208 5.27306 4.11668 2.52828
14 1 -1.1104 1.15267 -0.196348 3.87891
16 1 -1.1104 4.11906 -3.05252 1.21757
17 1 -1.1104 3.90158 2.75365 1.11787
18 2 2.2208 2.50128 1.36751 2.42613
19 1 -1.1104 4.05562 -2.80296 3.99278
20 1 -1.1104 3.77798 2.59628 3.92247
21 2 2.2208 2.6836 -1.49545 5.31488
22 2 2.2208 2.57708 4.10743 5.34959
23 1 -1.1104 3.98558 -0.292038 1.12678
24 1 -1.1104 4.03337 0.0965175 3.92354
9002 2 2.2208 8.28537 -4.29448 8.16315
27 2 2.2208 -0.341282 4.06123 2.59914
25 2 2.2208 -0.176808 -1.56755 2.53346
373 2 2.2208 2.49644 15.397 -0.355476
386 2 2.2208 10.9593 12.4501 -0.354859
8993 2 2.2208 2.54216 -4.25575 2.58429
9000 2 2.2208 5.39986 -4.27831 10.9018
372 2 2.2208 8.11836 4.00346 -0.32054
371 2 2.2208 -0.296751 18.0226 -0.263311
154 1 -1.1104 9.36587 14.0068 6.69141
387 2 2.2208 13.6601 9.63048 -0.229083
28 2 2.2208 13.4779 21.0403 11.0851
315 1 -1.1104 9.61492 16.7645 12.4002
370 2 2.2208 8.18021 -1.55034 -0.198221
4 1 -1.1104 6.78518 -3.0357 1.27831
5 1 -1.1104 6.67712 2.70628 1.27807
9 1 -1.1104 6.59797 2.71757 3.93807
15 1 -1.1104 6.71081 -0.00711519 3.95696
11 1 -1.1104 6.81837 -0.0753919 1.1106
8 1 -1.1104 6.86484 -2.91317 4.17479
31 2 2.2208 11.0247 1.39463 5.29404
32 1 -1.1104 12.3274 -3.12572 1.28236
33 1 -1.1104 12.2474 2.68546 1.12218
34 1 -1.1104 12.4236 -2.9395 4.07565
35 1 -1.1104 12.2443 2.57722 3.81039
36 1 -1.1104 12.3574 -0.151951 1.25234
37 2 2.2208 10.9834 -1.53777 2.59895
39 1 -1.1104 12.3261 -0.0968182 4.02999
40 1 -1.1104 9.62958 -2.94488 0.996167
41 1 -1.1104 9.46759 2.6271 1.16141
42 2 2.2208 8.14268 1.38422 2.5509
43 1 -1.1104 9.49417 -2.76594 3.91105
44 1 -1.1104 9.48062 2.7992 3.97147
45 2 2.2208 8.14768 -1.43228 5.51848
46 2 2.2208 8.00605 4.11365 5.3899
47 1 -1.1104 9.62775 -0.104258 1.23979
48 1 -1.1104 9.53799 0.122384 3.98834
38 2 2.2208 10.9232 4.02976 2.54881
320 2 2.2208 8.12034 18.198 8.11998
385 2 2.2208 8.05237 9.61575 -0.170552
369 2 2.2208 10.9553 1.23699 -0.294955
375 2 2.2208 2.42291 21.024 -0.313723
168 1 -1.1104 6.81298 -2.99229 6.84941
207 1 -1.1104 12.2985 -0.111484 6.77754
382 2 2.2208 -0.306622 12.5627 -0.376558
349 2 2.2208 8.09806 20.9326 -0.183999
54 2 2.2208 5.32409 7.02584 5.37905
55 2 2.2208 5.23335 12.5334 5.36018
56 1 -1.1104 1.14826 8.30428 0.984044
58 1 -1.1104 1.01193 8.34768 3.88295
60 1 -1.1104 1.30167 5.4582 1.15603
61 1 -1.1104 0.975392 11.093 1.00976
66 2 2.2208 5.31232 9.66285 2.57069
67 1 -1.1104 1.11629 5.42991 4.00766
68 1 -1.1104 1.04874 10.9958 3.77367
71 1 -1.1104 3.85555 8.41206 1.011
72 2 2.2208 2.4266 6.95142 2.50541
73 2 2.2208 2.36203 12.4674 2.4697
74 1 -1.1104 3.83415 8.22478 3.87672
75 2 2.2208 2.51589 9.63937 5.20773
76 1 -1.1104 3.99412 5.46192 1.12308
77 1 -1.1104 3.7605 11.2982 1.06932
79 1 -1.1104 3.92037 5.38717 3.92114
80 1 -1.1104 3.92288 11.0785 3.97256
383 2 2.2208 -0.307257 6.93345 -0.292244
30 2 2.2208 -0.194309 9.75121 8.01296
230 2 2.2208 13.6511 -1.50049 10.987
82 2 2.2208 -0.322663 9.73342 2.35251
297 1 -1.1104 6.72652 13.9877 12.3152
234 1 -1.1104 1.1479 8.45013 6.60283
63 1 -1.1104 6.70839 5.39857 1.0972
59 1 -1.1104 6.65297 8.3069 3.92718
64 1 -1.1104 6.75564 11.1313 1.23932
70 1 -1.1104 6.83523 11.1548 4.0472
69 1 -1.1104 6.74156 5.63611 4.13638
57 1 -1.1104 6.7033 8.24596 1.20248
84 2 2.2208 10.9472 6.92066 5.30824
85 2 2.2208 11.0008 12.6044 5.35376
86 1 -1.1104 12.2581 8.18912 1.10863
87 1 -1.1104 12.4068 8.43558 3.86011
88 1 -1.1104 12.2883 5.36519 1.11369
89 1 -1.1104 12.1843 10.9983 1.04631
91 2 2.2208 10.8598 9.73821 2.57198
92 1 -1.1104 12.4215 5.47281 3.94728
93 1 -1.1104 12.3504 11.1672 3.94089
94 1 -1.1104 9.50177 8.30436 1.17816
95 2 2.2208 8.2174 6.84041 2.52158
96 2 2.2208 8.10453 12.5371 2.61084
97 1 -1.1104 9.6005 8.35683 3.90063
98 2 2.2208 8.1199 9.75854 5.36196
99 1 -1.1104 9.50813 5.37989 0.955487
100 1 -1.1104 9.47802 11.0607 1.18328
102 1 -1.1104 9.6992 5.45875 3.88735
103 1 -1.1104 9.55467 11.0706 3.96259
112 1 -1.1104 6.63443 19.567 6.67604
8996 2 2.2208 8.24039 -4.2895 2.72386
26 2 2.2208 -0.254453 1.25063 5.26873
237 1 -1.1104 6.55168 5.55972 6.85586
90 1 -1.1104 12.3039 11.3023 6.7687
8995 2 2.2208 -0.151327 -4.27916 5.29279
106 2 2.2208 5.3461 18.0798 5.29333
107 1 -1.1104 1.10505 13.8107 1.04065
109 1 -1.1104 1.2883 19.5527 1.18382
113 1 -1.1104 0.996175 13.8676 3.9432
114 1 -1.1104 1.2941 19.5125 4.0549
116 1 -1.1104 1.04206 16.7209 1.14876
119 2 2.2208 5.39054 15.2962 2.37525
120 2 2.2208 5.44942 20.9261 2.51242
121 1 -1.1104 1.09852 16.8051 3.8743
123 1 -1.1104 4.03999 14.0298 1.07592
125 1 -1.1104 4.08699 19.6683 0.908762
127 2 2.2208 2.56925 18.1545 2.51033
128 1 -1.1104 3.82471 13.9288 3.87005
129 1 -1.1104 3.951 19.5619 3.87491
130 2 2.2208 2.56689 15.2953 5.23751
131 2 2.2208 2.52638 20.9404 5.30765
132 1 -1.1104 3.77189 16.7461 0.997066
134 1 -1.1104 3.83163 16.6548 3.91444
53 2 2.2208 13.7251 12.6058 8.12074
316 2 2.2208 8.11903 20.9008 11.068
140 1 -1.1104 6.65969 16.5849 1.1211
136 2 2.2208 -0.290129 20.9316 2.54357
126 1 -1.1104 3.88291 19.6268 6.67092
110 1 -1.1104 6.84392 13.9056 1.29867
138 1 -1.1104 6.86092 19.381 1.11845
122 1 -1.1104 6.59769 16.7847 3.95027
139 1 -1.1104 6.78878 19.4161 3.93541
115 1 -1.1104 6.71566 13.936 4.12099
141 2 2.2208 10.9767 18.1454 5.31826
142 1 -1.1104 12.2195 13.9074 1.10982
144 1 -1.1104 12.3663 19.5494 1.15242
146 1 -1.1104 12.3963 13.8825 3.8556
147 1 -1.1104 12.477 19.648 3.88216
148 1 -1.1104 12.3764 16.7596 1.13447
150 2 2.2208 10.9457 15.1571 2.55249
151 2 2.2208 10.8876 20.8221 2.55324
152 1 -1.1104 12.2921 16.7322 3.86204
153 1 -1.1104 9.43421 13.9803 1.07781
155 1 -1.1104 9.53126 19.4807 1.18564
157 2 2.2208 8.11651 18.0611 2.55451
158 1 -1.1104 9.65082 13.8395 3.85089
159 1 -1.1104 9.77056 19.1716 3.79931
160 2 2.2208 8.08016 15.2851 5.36592
161 2 2.2208 8.12128 20.8806 5.39687
162 1 -1.1104 9.45879 16.6175 1.2173
164 1 -1.1104 9.36048 16.5549 3.9645
143 1 -1.1104 12.3386 14.1065 6.65117
149 1 -1.1104 12.4371 16.7966 6.7145
145 1 -1.1104 12.3254 19.4635 6.6947
118 1 -1.1104 6.73204 16.7001 6.73091
163 1 -1.1104 9.43521 16.7931 6.80404
384 2 2.2208 10.8043 6.77896 -0.34435
323 1 -1.1104 12.4 16.8798 9.573
170 1 -1.1104 1.26759 -0.199489 6.72357
173 1 -1.1104 3.88809 2.71405 6.79154
314 1 -1.1104 9.67047 16.948 9.4918
167 1 -1.1104 1.04019 2.71426 6.59992
199 2 2.2208 -0.272783 4.08215 8.12193
200 2 2.2208 -0.204077 -1.53936 8.09822
174 1 -1.1104 4.08654 -0.10127 6.84153
166 1 -1.1104 1.22415 -2.96573 6.79591
172 1 -1.1104 3.83333 -3.01553 6.7938
175 2 2.2208 5.34101 1.26773 10.9994
176 1 -1.1104 1.19869 -2.80588 12.3477
177 1 -1.1104 1.23952 2.78076 12.5083
180 1 -1.1104 1.26131 -2.85052 9.75322
181 1 -1.1104 1.08984 2.86412 9.62547
184 1 -1.1104 1.23015 0.0793306 12.259
186 2 2.2208 5.29693 -1.40571 8.18642
187 2 2.2208 5.29354 4.08836 8.21517
188 1 -1.1104 1.08859 0.0469347 9.37935
190 1 -1.1104 4.02168 -2.96116 12.5341
191 1 -1.1104 4.03599 2.72243 12.4016
192 2 2.2208 2.55626 1.40738 8.12333
193 1 -1.1104 4.09989 -2.91619 9.581
194 1 -1.1104 3.83276 2.72896 9.51012
195 2 2.2208 2.51375 -1.35751 10.9615
196 2 2.2208 2.47078 4.1381 10.8973
197 1 -1.1104 3.97157 -0.0537714 12.3307
198 1 -1.1104 3.93142 -0.156513 9.65008
201 2 2.2208 -0.294191 1.417 10.9548
290 1 -1.1104 6.61744 14.0129 9.53239
306 1 -1.1104 6.65299 16.8203 12.2874
326 1 -1.1104 12.3489 16.8754 12.3209
205 1 -1.1104 12.4812 -2.82502 6.9177
189 1 -1.1104 6.7153 -0.168107 9.40539
185 1 -1.1104 6.59752 -0.176674 12.2274
169 1 -1.1104 6.80161 2.76963 6.77245
171 1 -1.1104 6.73716 -0.136501 6.77735
206 1 -1.1104 12.4599 2.57358 6.66195
208 1 -1.1104 9.69535 -2.95464 6.68026
179 1 -1.1104 6.84916 2.70949 12.1968
182 1 -1.1104 7.02141 -2.99212 9.45606
178 1 -1.1104 6.8849 -2.94464 12.3027
209 1 -1.1104 9.52551 2.75449 6.7846
210 1 -1.1104 9.54112 -0.101479 6.83923
183 1 -1.1104 6.70666 2.7077 9.57977
211 2 2.2208 10.9907 1.26312 10.8986
212 1 -1.1104 12.3532 -2.82617 12.4032
213 1 -1.1104 12.4469 2.68075 12.4917
214 1 -1.1104 12.3591 -2.9238 9.68402
215 1 -1.1104 12.3743 2.74041 9.48468
216 1 -1.1104 12.3515 -0.0734726 12.272
217 2 2.2208 11.0574 -1.52792 8.26821
218 2 2.2208 10.9795 4.15257 8.05301
219 1 -1.1104 12.3892 -0.0612463 9.47485
220 1 -1.1104 9.51129 -3.01573 12.5274
221 1 -1.1104 9.67752 2.65699 12.342
222 2 2.2208 8.15172 1.35619 8.16137
223 1 -1.1104 9.64815 -2.86871 9.70503
224 1 -1.1104 9.61964 2.82424 9.5569
225 2 2.2208 8.1527 -1.45792 11.0582
226 2 2.2208 8.1964 4.12043 10.8785
227 1 -1.1104 9.41931 -0.164926 12.5001
228 1 -1.1104 9.57451 -0.0134404 9.73109
239 1 -1.1104 3.69524 5.41278 6.71878
236 1 -1.1104 0.945132 5.66861 6.80076
78 1 -1.1104 3.86902 11.1047 6.83476
62 1 -1.1104 1.12543 11.2034 6.52378
365 2 2.2208 2.65334 -1.55135 -0.183785
29 2 2.2208 -0.318768 7.01612 10.8894
238 1 -1.1104 3.87714 8.20337 6.76338
240 2 2.2208 5.30384 6.77073 10.9398
241 2 2.2208 5.17217 12.6004 10.9442
242 1 -1.1104 1.02828 8.3496 12.2699
244 1 -1.1104 1.15217 8.45493 9.3613
246 1 -1.1104 1.3156 5.54812 12.3729
247 1 -1.1104 1.15805 11.2066 12.3319
250 2 2.2208 5.27258 9.74993 8.17904
251 1 -1.1104 1.0958 5.59715 9.47012
252 1 -1.1104 1.01148 11.1757 9.60106
255 1 -1.1104 3.81887 8.31797 12.4458
256 2 2.2208 2.47543 6.94468 8.07868
257 2 2.2208 2.3865 12.7341 8.18301
258 1 -1.1104 3.83194 8.3479 9.39309
259 2 2.2208 2.4034 9.72849 10.9361
260 1 -1.1104 3.95574 5.41968 12.3162
261 1 -1.1104 3.90588 11.2027 12.3499
262 1 -1.1104 4.01973 5.49152 9.55005
263 1 -1.1104 3.72019 11.2739 9.5668
350 2 2.2208 11.0317 4.0987 13.6496
324 2 2.2208 11.0072 20.9983 8.18444
296 1 -1.1104 6.7835 19.6238 12.3215
265 1 -1.1104 12.0719 8.40553 6.75406
235 1 -1.1104 6.80105 8.37964 6.8015
65 1 -1.1104 6.56349 11.0477 6.74169
254 1 -1.1104 6.70239 11.2913 9.47718
245 1 -1.1104 6.70873 8.29527 9.53282
248 1 -1.1104 6.91135 5.59177 12.2477
243 1 -1.1104 6.5906 8.41383 12.2696
266 1 -1.1104 12.2023 5.59605 6.83789
267 1 -1.1104 9.6211 8.39134 6.63927
101 1 -1.1104 9.5098 11.1883 6.67941
249 1 -1.1104 6.69888 11.1713 12.3589
253 1 -1.1104 6.79303 5.43285 9.48312
269 1 -1.1104 9.37752 5.40871 6.54213
264 1 -1.1104 9.43152 11.1487 9.60875
268 1 -1.1104 9.79626 5.81652 9.24559
270 1 -1.1104 9.67912 11.1811 12.4576
271 1 -1.1104 9.61093 5.52386 12.3192
272 2 2.2208 8.10286 9.73927 10.7849
273 1 -1.1104 9.63828 8.49025 9.40284
274 2 2.2208 7.99158 12.5769 8.19636
275 2 2.2208 8.14899 7.02227 7.97134
276 2 2.2208 11.0113 7.01267 10.7598
277 2 2.2208 10.8992 12.5471 11.0289
278 1 -1.1104 12.3278 8.21157 12.2372
279 1 -1.1104 12.5845 8.38588 9.63286
280 1 -1.1104 12.2255 5.37406 12.1618
281 1 -1.1104 12.38 11.0681 12.4244
282 2 2.2208 10.9361 9.74508 8.17731
283 1 -1.1104 12.3198 5.50793 9.58438
284 1 -1.1104 12.251 11.0893 9.53154
285 1 -1.1104 9.50032 8.28623 12.1499
289 1 -1.1104 6.63184 16.8844 9.60471
108 1 -1.1104 1.03359 13.8733 6.72619
233 2 2.2208 13.6354 4.21265 5.313
133 1 -1.1104 3.97215 16.8251 6.59489
302 1 -1.1104 1.12962 19.3812 6.87162
347 2 2.2208 8.14038 15.3011 -0.297629
124 1 -1.1104 3.846 13.931 6.75054
117 1 -1.1104 1.1794 16.5515 6.70799
310 2 2.2208 2.31475 15.4267 10.8744
305 1 -1.1104 3.7101 14.1515 9.5376
309 2 2.2208 2.51305 20.9063 10.987
301 1 -1.1104 3.86344 19.5259 9.42794
304 1 -1.1104 4.1 16.8784 9.3056
298 1 -1.1104 1.09719 19.5335 12.2093
295 2 2.2208 5.30712 15.3646 8.08313
300 2 2.2208 5.32472 18.2439 10.912
308 1 -1.1104 3.87402 16.9146 12.3366
307 1 -1.1104 0.941499 16.8067 12.4576
299 1 -1.1104 1.07919 14.0391 12.462
303 2 2.2208 2.60622 18.1348 8.03826
286 1 -1.1104 4.04252 19.6721 12.4199
287 1 -1.1104 3.87058 14.0717 12.2891
291 1 -1.1104 1.00293 19.5123 9.75689
292 1 -1.1104 1.05287 16.8057 9.3901
293 2 2.2208 5.26196 20.8791 8.13779
294 1 -1.1104 0.86633 13.9692 9.54057
325 2 2.2208 10.9907 15.3561 8.15056
288 1 -1.1104 6.76533 19.5655 9.55656
318 1 -1.1104 9.42495 19.7774 9.49882
329 1 -1.1104 12.1869 19.5929 12.4559
319 1 -1.1104 9.36487 14.0105 9.5962
317 2 2.2208 7.95732 15.3252 10.9357
327 1 -1.1104 12.3168 19.7367 9.61685
322 1 -1.1104 9.5211 13.965 12.3421
321 1 -1.1104 9.48806 19.5463 12.4004
111 1 -1.1104 6.69078 13.8769 6.91065
156 1 -1.1104 9.42017 19.5221 6.70463
328 1 -1.1104 12.2783 13.8662 9.58491
331 2 2.2208 10.9522 18.2707 10.9824
330 1 -1.1104 12.3431 13.8866 12.5119
379 2 2.2208 5.38876 6.84743 -0.28753
135 2 2.2208 -0.274703 15.296 2.61224
137 2 2.2208 -0.184439 18.1846 5.34971
354 2 2.2208 8.16485 6.96436 13.667
343 2 2.2208 8.12905 1.30299 13.5865
364 2 2.2208 5.36194 1.39311 -0.212083
368 2 2.2208 -0.165632 1.17533 -0.216234
348 2 2.2208 10.8589 18.1254 -0.307053
355 2 2.2208 10.8584 9.6838 13.6715
362 2 2.2208 8.15396 18.1483 13.5822
388 2 2.2208 5.48033 1.433 16.5046
389 1 -1.1104 1.21309 -2.83415 17.9431
390 1 -1.1104 1.10463 2.86152 18.0817
393 1 -1.1104 1.10719 -2.7206 15.1151
395 1 -1.1104 1.27673 2.77816 15.2741
401 1 -1.1104 1.21976 0.0233305 17.9245
403 2 2.2208 5.36094 -1.60276 19.3673
404 2 2.2208 5.27281 4.1623 19.3088
405 1 -1.1104 1.21392 0.0326122 15.0442
409 1 -1.1104 4.03318 -3.12316 17.9416
410 1 -1.1104 3.94535 2.72685 17.926
411 2 2.2208 2.68189 1.28659 19.3635
412 1 -1.1104 3.9806 -2.98196 15.3034
414 1 -1.1104 3.99549 2.76381 15.1262
416 2 2.2208 2.61433 -1.3891 16.4724
417 2 2.2208 2.45419 4.14431 16.4716
418 1 -1.1104 3.92376 -0.188204 17.9206
419 1 -1.1104 3.95802 -0.098908 15.1993
621 2 2.2208 -0.247249 7.01615 16.6279
415 1 -1.1104 3.97473 2.58194 20.7243
420 1 -1.1104 4.06415 -0.178176 20.819
425 2 2.2208 -0.0326273 -1.49585 19.4062
424 2 2.2208 -0.238267 1.3092 16.7065
456 2 2.2208 -0.355644 18.1983 16.6074
499 1 -1.1104 12.3384 19.5012 26.4168
334 2 2.2208 -0.232719 -1.47099 13.7668
587 2 2.2208 8.00637 18.193 25.0251
339 2 2.2208 2.5573 1.31821 13.8235
392 1 -1.1104 6.68273 2.78947 17.9374
399 1 -1.1104 6.77505 2.78626 15.0142
391 1 -1.1104 6.87574 -2.90525 17.8729
397 1 -1.1104 6.7806 -2.89324 14.9988
407 1 -1.1104 6.78509 -0.00977815 14.9853
400 1 -1.1104 6.82846 2.54773 20.767
402 1 -1.1104 6.90958 -0.0241612 17.8027
431 2 2.2208 10.8457 1.36094 16.498
432 1 -1.1104 12.3567 -2.99604 18.0822
433 1 -1.1104 12.3822 2.66144 18.1096
434 1 -1.1104 12.3952 -2.88536 15.2427
436 1 -1.1104 12.5131 2.67141 15.1968
438 1 -1.1104 12.4083 -0.114772 17.9129
439 2 2.2208 11.0863 -1.56132 19.4395
440 2 2.2208 10.8715 4.12369 19.4597
441 1 -1.1104 12.4774 0.0289873 15.114
443 1 -1.1104 9.64681 -2.90376 18.0391
444 1 -1.1104 9.42396 2.86162 17.9879
445 2 2.2208 8.2693 1.30656 19.394
446 1 -1.1104 9.6424 -2.99131 15.1999
448 1 -1.1104 9.46505 2.62413 15.0534
450 2 2.2208 8.24428 -1.46454 16.5635
451 2 2.2208 8.06309 4.12186 16.477
452 1 -1.1104 9.63408 -0.0717538 18.1073
453 1 -1.1104 9.62993 -0.111812 15.1643
620 1 -1.1104 9.55952 16.7513 26.4367
567 1 -1.1104 12.4254 13.8597 20.699
346 2 2.2208 10.9817 -1.51647 13.8471
360 2 2.2208 10.8127 20.8686 13.9114
525 2 2.2208 10.93 15.309 25.0378
380 2 2.2208 2.49519 9.77103 27.665
9160 2 2.2208 -0.166959 -4.24024 16.4799
423 2 2.2208 13.649 4.09662 22.2516
464 2 2.2208 5.31891 7.01848 16.4572
465 2 2.2208 5.36125 12.6036 16.5553
466 1 -1.1104 1.00756 8.40497 18.0651
468 1 -1.1104 0.881319 8.50319 15.152
472 1 -1.1104 0.994345 5.62956 18.0124
473 1 -1.1104 1.14167 11.2117 18.0356
476 2 2.2208 5.38986 9.91459 19.3241
477 1 -1.1104 1.2845 5.73846 15.2455
479 1 -1.1104 1.03228 11.3012 15.1202
485 1 -1.1104 3.86645 8.32689 17.8719
486 2 2.2208 2.47268 6.95487 19.3679
487 2 2.2208 2.45764 12.5528 19.3984
488 1 -1.1104 3.76617 8.40882 15.1126
490 2 2.2208 2.41038 9.88785 16.5904
491 1 -1.1104 3.91004 5.46613 17.9681
492 1 -1.1104 3.90911 11.2048 17.749
493 1 -1.1104 4.05064 5.54538 15.0632
495 1 -1.1104 3.95892 11.216 15.0873
494 1 -1.1104 3.98726 5.44559 20.8668
685 2 2.2208 -0.244254 12.5461 22.141
470 1 -1.1104 6.56661 8.35988 15.1011
478 1 -1.1104 1.04199 5.33515 20.8958
361 2 2.2208 10.9746 15.3632 13.6909
351 2 2.2208 2.40022 7.00481 13.7356
467 1 -1.1104 6.78495 8.37886 17.9234
483 1 -1.1104 6.63102 11.1483 15.0892
475 1 -1.1104 6.94447 11.2239 17.92
474 1 -1.1104 6.81563 5.62347 17.8066
481 1 -1.1104 6.77411 5.56324 15.0593
500 2 2.2208 10.9798 6.82274 16.4826
501 2 2.2208 10.8244 12.48 16.5176
502 1 -1.1104 12.4112 8.20519 18.0585
503 1 -1.1104 12.3435 8.32514 15.2272
505 1 -1.1104 12.352 5.52475 17.9424
506 1 -1.1104 12.3938 11.0388 18.0354
507 2 2.2208 10.9807 9.6371 19.3944
508 1 -1.1104 12.423 5.434 15.0622
510 1 -1.1104 12.4139 11.1691 15.2678
512 1 -1.1104 9.62572 8.34312 17.7083
513 2 2.2208 8.14378 6.89173 19.3179
514 2 2.2208 8.20218 12.6353 19.4244
515 1 -1.1104 9.4208 8.17969 14.9848
517 2 2.2208 8.12342 9.64042 16.4918
518 1 -1.1104 9.57971 5.50125 17.9552
519 1 -1.1104 9.63184 11.0165 17.9915
520 1 -1.1104 9.68593 5.44244 15.1298
522 1 -1.1104 9.44225 11.0702 15.2001
352 2 2.2208 5.2766 9.81058 13.7649
615 2 2.2208 8.03762 15.3395 22.0673
484 1 -1.1104 6.64123 11.3267 20.8443
509 1 -1.1104 12.3262 5.53454 20.7588
521 1 -1.1104 9.53101 5.4531 20.7385
341 2 2.2208 5.28381 4.17774 13.7474
527 2 2.2208 5.13804 18.2907 16.5039
528 1 -1.1104 1.10929 13.8277 17.9797
529 1 -1.1104 1.0045 19.6277 17.8243
532 1 -1.1104 1.05316 13.9283 15.2074
534 1 -1.1104 0.956203 19.6453 15.0605
540 1 -1.1104 0.974474 16.7711 17.965
542 2 2.2208 5.42287 15.4346 19.2811
543 2 2.2208 5.15329 20.9627 19.2135
544 1 -1.1104 1.00558 16.6549 15.333
548 1 -1.1104 3.98301 14.1057 17.7193
549 1 -1.1104 3.82589 19.7193 17.7528
550 2 2.2208 2.38964 18.2124 19.1702
551 1 -1.1104 3.92488 13.9799 14.9435
553 1 -1.1104 3.7039 19.6575 15.1668
555 2 2.2208 2.4557 15.2977 16.6022
556 2 2.2208 2.47668 21.08 16.4294
557 1 -1.1104 3.90303 16.888 17.9907
558 1 -1.1104 3.92094 16.7398 15.2346
554 1 -1.1104 3.7672 19.3999 20.5591
338 2 2.2208 5.2945 -1.46453 13.7685
559 1 -1.1104 3.96785 16.6787 20.667
535 1 -1.1104 1.04386 19.621 20.6437
458 2 2.2208 -0.305239 20.9714 19.3186
714 1 -1.1104 6.70653 16.7932 26.4374
712 1 -1.1104 6.74751 14.0299 26.3714
359 2 2.2208 5.22608 15.5046 13.7455
531 1 -1.1104 6.49489 19.5239 17.9591
538 1 -1.1104 6.53752 19.6524 15.0281
530 1 -1.1104 6.69987 13.9409 17.9657
536 1 -1.1104 6.78703 14.0732 15.1615
546 1 -1.1104 6.74052 16.9023 15.0099
541 1 -1.1104 6.66954 16.7374 17.7742
563 2 2.2208 10.9217 18.2183 16.6023
564 1 -1.1104 12.2729 14.069 17.9757
565 1 -1.1104 12.1705 19.6214 18.0102
566 1 -1.1104 12.2794 14.0329 15.2998
568 1 -1.1104 12.3699 19.4923 15.2794
570 1 -1.1104 12.5222 16.7517 18.0515
571 2 2.2208 10.8724 15.4145 19.3834
572 2 2.2208 10.8114 20.9548 19.3732
573 1 -1.1104 12.3915 16.7174 15.2158
575 1 -1.1104 9.41495 14.0659 18.0434
576 1 -1.1104 9.43683 19.4688 17.9781
577 2 2.2208 7.98276 18.1964 19.3722
578 1 -1.1104 9.59708 13.8938 15.1369
580 1 -1.1104 9.53485 19.6278 15.2272
582 2 2.2208 8.16683 15.4784 16.5002
583 2 2.2208 8.03772 20.9029 16.4726
584 1 -1.1104 9.37506 16.7075 17.9697
585 1 -1.1104 9.59319 16.8155 15.1907
709 1 -1.1104 6.56187 14.0463 23.4988
537 1 -1.1104 6.65877 13.9579 20.8562
574 1 -1.1104 12.2372 16.7022 20.8861
547 1 -1.1104 6.65505 16.8492 20.7412
586 1 -1.1104 9.47767 16.8555 20.7277
413 1 -1.1104 3.96735 -3.19898 20.7818
396 1 -1.1104 1.09401 2.68583 20.7165
680 1 -1.1104 6.75121 16.8264 23.4559
539 1 -1.1104 6.60891 19.5918 20.6994
406 1 -1.1104 1.31867 -0.116087 20.7319
394 1 -1.1104 1.14419 -3.02579 20.9031
625 2 2.2208 -0.273497 1.265 22.1242
591 2 2.2208 5.38409 1.16192 22.1759
592 1 -1.1104 1.2802 -3.00033 23.6483
593 1 -1.1104 1.14054 2.62222 23.5234
596 1 -1.1104 1.15988 -2.90092 26.4929
597 1 -1.1104 1.07973 2.74858 26.4607
600 1 -1.1104 1.13461 -0.0918663 23.6713
602 2 2.2208 5.25517 -1.67803 25.0852
603 2 2.2208 5.12351 4.06525 24.9002
604 1 -1.1104 1.19482 -0.277536 26.4511
606 1 -1.1104 3.97773 -3.16131 23.6731
607 1 -1.1104 3.84684 2.4741 23.4727
608 2 2.2208 2.51623 1.26005 24.9913
609 1 -1.1104 3.94683 -3.09749 26.487
610 1 -1.1104 3.83446 2.79468 26.3104
611 2 2.2208 2.50359 -1.65701 22.2383
612 2 2.2208 2.51074 3.96884 22.1398
613 1 -1.1104 3.76842 -0.326299 23.594
614 1 -1.1104 3.91387 -0.0931563 26.4645
624 2 2.2208 -0.0800641 -1.67412 25.045
626 2 2.2208 -0.32489 4.01024 25.0735
408 1 -1.1104 6.88401 -0.107436 20.6612
435 1 -1.1104 12.4972 -3.09213 20.8737
398 1 -1.1104 6.78263 -2.89878 20.7456
595 1 -1.1104 6.55635 2.60847 23.7248
449 1 -1.1104 9.64363 2.6557 20.846
442 1 -1.1104 12.4868 -0.157141 20.6901
594 1 -1.1104 6.74642 -3.15303 23.4941
601 1 -1.1104 6.60451 -0.137503 23.6709
605 1 -1.1104 6.7565 -0.175852 26.3604
598 1 -1.1104 6.63404 -2.99219 26.4259
599 1 -1.1104 6.76407 2.68581 26.4617
437 1 -1.1104 12.45 2.69824 20.8635
447 1 -1.1104 9.62469 -2.88833 20.7587
454 1 -1.1104 9.64478 -0.171917 20.9294
627 2 2.2208 11.0423 1.27376 22.1452
628 1 -1.1104 12.4026 -2.8761 23.7495
629 1 -1.1104 12.2375 2.6352 23.6791
630 1 -1.1104 12.2966 -2.94454 26.4482
631 1 -1.1104 12.4047 2.63196 26.3485
632 1 -1.1104 12.4412 -0.130085 23.5086
633 2 2.2208 10.9717 -1.49816 25.0791
634 2 2.2208 10.9014 4.09164 24.9911
635 1 -1.1104 12.4022 -0.117274 26.4551
636 1 -1.1104 9.43955 -2.82632 23.6141
637 1 -1.1104 9.357 2.59817 23.8006
638 2 2.2208 8.05292 1.17177 24.8992
639 1 -1.1104 9.51142 -3.00877 26.4278
640 1 -1.1104 9.59696 2.73194 26.5504
641 2 2.2208 8.13312 -1.49023 22.2579
642 2 2.2208 8.05643 4.05329 22.1962
643 1 -1.1104 9.56968 -0.143026 23.5743
644 1 -1.1104 9.50719 -0.0448192 26.3518
718 1 -1.1104 6.5985 19.5889 23.6572
489 1 -1.1104 4.00739 8.1904 20.7153
469 1 -1.1104 0.998768 8.37676 20.6636
480 1 -1.1104 1.09649 11.1824 20.7525
496 1 -1.1104 3.82218 11.0382 20.6173
684 2 2.2208 -0.207741 9.72414 24.9164
353 2 2.2208 2.51497 12.5899 13.773
623 2 2.2208 -0.228852 18.0994 22.1223
656 2 2.2208 5.34483 7.01285 22.1504
657 2 2.2208 5.28575 12.4757 22.2094
658 1 -1.1104 1.0894 8.31764 23.4983
660 1 -1.1104 1.161 8.29536 26.2838
662 1 -1.1104 1.04236 5.39397 23.6203
663 1 -1.1104 1.05301 11.2172 23.4759
666 2 2.2208 5.32693 9.72499 24.9737
667 1 -1.1104 1.06759 5.43819 26.3707
668 1 -1.1104 1.13728 11.1471 26.0951
671 1 -1.1104 3.87165 8.39255 23.5407
672 2 2.2208 2.46049 6.86537 24.9126
673 2 2.2208 2.46132 12.6106 25.0091
674 1 -1.1104 4.05801 8.22003 26.4698
675 2 2.2208 2.49916 9.66998 22.1074
676 1 -1.1104 3.79023 5.45602 23.5319
677 1 -1.1104 3.91375 11.1736 23.5281
678 1 -1.1104 3.92488 5.58049 26.2732
679 1 -1.1104 3.86241 11.2148 26.2649
579 1 -1.1104 9.53179 14.0782 20.8099
516 1 -1.1104 9.55986 8.21661 20.6605
504 1 -1.1104 12.2043 8.45579 20.8545
471 1 -1.1104 6.83164 8.44951 20.8275
482 1 -1.1104 6.66924 5.61376 20.7382
664 1 -1.1104 6.67932 5.54323 23.6034
670 1 -1.1104 6.75169 11.164 26.2926
659 1 -1.1104 6.73186 8.30478 23.6077
665 1 -1.1104 6.6306 11.0463 23.5769
669 1 -1.1104 6.52979 5.32939 26.2779
523 1 -1.1104 9.61512 11.1544 20.7884
511 1 -1.1104 12.441 11.0349 20.9405
661 1 -1.1104 6.70714 8.39827 26.334
687 1 -1.1104 9.54652 11.0283 26.5469
688 1 -1.1104 9.38414 5.45867 26.4007
689 1 -1.1104 9.44064 11.1748 23.6547
690 1 -1.1104 9.41427 5.36579 23.4768
691 2 2.2208 8.09378 9.68016 22.2392
692 1 -1.1104 9.37091 8.18469 26.5416
693 2 2.2208 8.05869 12.5176 25.0223
694 2 2.2208 7.97604 6.81208 24.9944
695 2 2.2208 10.8929 6.83976 22.1074
696 2 2.2208 10.955 12.4474 22.197
697 1 -1.1104 12.1862 8.20771 23.5093
698 1 -1.1104 12.3546 8.30426 26.325
699 1 -1.1104 12.3742 5.46466 23.6147
700 1 -1.1104 12.3106 10.94 23.6258
701 2 2.2208 10.8604 9.54753 25.0424
702 1 -1.1104 12.2501 5.47085 26.407
703 1 -1.1104 12.3777 11.1992 26.3238
704 1 -1.1104 9.51371 8.19647 23.5381
645 2 2.2208 -0.317906 21.0804 24.9423
358 2 2.2208 5.29515 20.9803 13.793
545 1 -1.1104 1.10899 16.7235 20.7145
552 1 -1.1104 3.91132 13.8666 20.9288
533 1 -1.1104 1.06982 13.9881 20.7485
720 2 2.2208 5.36271 15.4268 24.8349
647 2 2.2208 2.51426 15.4684 22.1494
649 2 2.2208 2.29944 21.0507 22.1423
652 1 -1.1104 3.87151 16.8556 23.4774
655 1 -1.1104 1.19641 16.8135 23.6632
681 1 -1.1104 3.98946 13.9156 26.3767
682 1 -1.1104 3.95098 16.7175 26.2893
683 2 2.2208 2.64284 18.1778 25.0178
686 1 -1.1104 3.85489 19.6054 26.2251
705 2 2.2208 5.2408 18.2992 22.0717
706 1 -1.1104 1.0305 14.1521 23.5001
707 1 -1.1104 1.10891 19.6007 23.5308
711 1 -1.1104 3.88829 19.7094 23.4026
713 1 -1.1104 3.82846 13.9653 23.5965
715 1 -1.1104 1.02733 19.6475 26.3961
716 1 -1.1104 1.11314 16.8808 26.3692
717 1 -1.1104 1.17034 13.9571 26.3341
719 2 2.2208 5.29567 20.9839 24.9493
335 2 2.2208 -0.347454 21.0958 13.7007
581 1 -1.1104 9.52718 19.5597 20.7089
648 2 2.2208 -0.255126 12.5537 16.5597
524 1 -1.1104 12.1954 16.6927 23.6029
561 1 -1.1104 9.27211 13.974 23.4224
617 1 -1.1104 9.53303 16.7927 23.5939
562 1 -1.1104 9.60244 19.6863 23.5041
616 2 2.2208 8.06525 20.8502 22.1633
463 1 -1.1104 12.0952 13.8022 23.6194
526 2 2.2208 11.0202 20.9365 25.029
590 1 -1.1104 9.49076 19.5838 26.3938
588 1 -1.1104 6.6469 19.592 26.5316
589 1 -1.1104 9.56774 13.9845 26.3206
569 1 -1.1104 12.3899 19.4926 20.8208
560 1 -1.1104 12.365 16.7534 26.3453
462 2 2.2208 10.8932 18.2448 22.1335
497 1 -1.1104 12.3488 19.4836 23.6601
498 1 -1.1104 12.3255 13.9059 26.3392
427 2 2.2208 -0.36453 4.08384 19.3535
337 2 2.2208 -0.186945 4.23334 13.7191
366 2 2.2208 2.50134 4.14333 27.6496
357 2 2.2208 2.45308 18.1967 13.7832
381 2 2.2208 5.34438 12.6688 27.6941
374 2 2.2208 5.34181 18.2319 27.7088
356 2 2.2208 8.14018 12.5361 13.8079
721 2 2.2208 5.39087 23.7758 5.31914
722 2 2.2208 5.27772 29.4961 5.27751
723 1 -1.1104 1.22614 25.0037 1.06549
724 1 -1.1104 1.15553 25.2128 3.83334
725 1 -1.1104 1.0985 22.3077 1.16394
726 1 -1.1104 1.01427 27.838 0.945685
727 2 2.2208 5.26989 26.6175 2.52417
728 1 -1.1104 1.17463 22.4164 3.67665
729 1 -1.1104 1.24169 28.0539 3.85404
730 1 -1.1104 4.05848 25.1044 1.14444
731 2 2.2208 2.64117 23.8094 2.52433
732 2 2.2208 2.58829 29.5321 2.42204
733 1 -1.1104 3.92701 25.1696 3.91355
734 2 2.2208 2.58995 26.5593 5.30345
735 1 -1.1104 3.95496 22.281 0.972886
736 1 -1.1104 3.91559 27.9587 1.09117
737 1 -1.1104 4.08306 22.2771 3.95097
738 1 -1.1104 3.91231 28.1117 3.93193
790 2 2.2208 -0.25418 34.9767 5.29617
741 2 2.2208 -0.294798 23.697 5.27779
1029 3 0 12.6852 31.9906 13.3127
869 1 -1.1104 3.91774 22.4821 6.73953
864 1 -1.1104 1.0024 22.1472 6.64912
870 1 -1.1104 3.83951 28.0444 6.58731
862 1 -1.1104 1.2148 24.9139 6.49662
865 1 -1.1104 1.0389 27.9815 6.78207
1092 2 2.2208 -0.296138 40.5699 -0.293796
747 1 -1.1104 6.66754 28.0369 3.78341
746 1 -1.1104 6.89699 22.3197 4.02206
742 1 -1.1104 6.7482 25.062 1.08764
744 1 -1.1104 6.63122 22.3826 1.20978
745 1 -1.1104 6.61717 27.9222 0.970795
743 1 -1.1104 6.62083 25.1401 3.9488
748 2 2.2208 10.8731 23.8071 5.18542
749 2 2.2208 10.9902 29.3895 5.19234
750 1 -1.1104 12.2886 24.9776 1.08762
751 1 -1.1104 12.2643 25.1748 3.8587
752 1 -1.1104 12.2981 22.18 1.05792
753 1 -1.1104 12.3686 27.9366 1.06299
754 2 2.2208 10.9559 26.5185 2.47063
755 1 -1.1104 12.3013 22.3597 3.91696
756 1 -1.1104 12.3973 27.9941 3.70263
757 1 -1.1104 9.41959 25.1273 0.995771
758 2 2.2208 8.0461 23.7615 2.50268
759 2 2.2208 8.18551 29.452 2.49933
760 1 -1.1104 9.51128 25.1034 3.86383
761 2 2.2208 8.14264 26.5498 5.34999
762 1 -1.1104 9.43126 22.2582 1.12346
763 1 -1.1104 9.57644 27.8478 1.14688
764 1 -1.1104 9.42061 22.2374 3.93999
765 1 -1.1104 9.5309 27.9611 3.95332
1068 2 2.2208 5.41146 23.6853 -0.29259
866 1 -1.1104 6.73056 22.2737 6.83261
1077 2 2.2208 11.0303 29.4318 -0.273384
1078 2 2.2208 2.544 37.7039 -0.344728
1075 2 2.2208 8.1207 26.5648 -0.298031
769 2 2.2208 5.29459 35.1532 5.49795
770 1 -1.1104 1.4023 30.5872 0.758103
771 1 -1.1104 1.23236 36.2435 1.18862
773 1 -1.1104 1.16858 30.8616 3.84125
774 1 -1.1104 1.14894 36.5286 3.9077
776 1 -1.1104 1.24262 33.381 1.10855
777 2 2.2208 5.38791 32.2854 2.50667
778 2 2.2208 5.2981 37.7607 2.55614
779 1 -1.1104 1.06 33.5892 3.90851
781 1 -1.1104 3.94839 30.7525 1.02149
782 1 -1.1104 3.95745 36.2315 1.20343
783 2 2.2208 2.62341 35.12 2.55962
784 1 -1.1104 3.95119 31.0007 3.80343
785 1 -1.1104 3.86924 36.4206 4.00002
786 2 2.2208 2.52712 32.2332 5.28602
787 2 2.2208 2.54456 37.9093 5.36933
788 1 -1.1104 4.03645 33.5201 0.917615
789 1 -1.1104 3.89143 33.747 3.87651
780 1 -1.1104 6.68488 33.8123 4.01862
772 1 -1.1104 6.81891 36.3833 1.21633
975 1 -1.1104 6.58042 44.9363 9.65686
795 1 -1.1104 6.83565 33.5235 1.06751
775 1 -1.1104 6.58357 36.6493 4.09911
1040 2 2.2208 -0.246569 34.922 10.9706
926 1 -1.1104 3.90162 36.5149 6.78809
921 1 -1.1104 6.75126 30.8843 6.67518
1041 2 2.2208 -0.22114 32.1441 8.1175
739 2 2.2208 -0.31227 26.4634 2.44665
1070 2 2.2208 8.1165 43.3604 -0.262382
839 2 2.2208 -0.293653 40.6078 5.19174
1048 2 2.2208 8.0729 29.1776 13.4442
1038 2 2.2208 -0.263981 26.5452 8.01264
1086 2 2.2208 10.8695 35.1181 -0.335636
793 1 -1.1104 6.77094 30.7805 1.0662
794 1 -1.1104 6.6313 30.8471 3.84418
796 2 2.2208 10.8833 35.1905 5.50043
797 1 -1.1104 12.3909 30.8577 1.06705
798 1 -1.1104 12.2117 36.4671 1.17937
799 1 -1.1104 12.4085 30.8707 3.84646
800 1 -1.1104 12.3071 36.4494 3.90643
801 1 -1.1104 12.2958 33.6588 1.00746
802 2 2.2208 10.9166 32.2802 2.52537
803 2 2.2208 10.8832 37.7784 2.59774
804 1 -1.1104 12.215 33.7021 3.99772
805 1 -1.1104 9.55536 30.7437 1.05514
806 1 -1.1104 9.34958 36.4178 1.05003
807 2 2.2208 8.1013 35.0057 2.55382
808 1 -1.1104 9.50194 30.7373 3.84043
809 1 -1.1104 9.46072 36.4515 4.01908
810 2 2.2208 8.09267 32.3733 5.33307
811 2 2.2208 8.08547 37.9049 5.29399
812 1 -1.1104 9.49372 33.6288 1.08698
813 1 -1.1104 9.40564 33.6428 3.93471
1039 2 2.2208 -0.320922 29.3026 10.7482
955 1 -1.1104 12.2474 33.6382 6.77526
1043 2 2.2208 13.63 46.3506 8.09799
826 1 -1.1104 1.12729 39.1836 3.82381
815 2 2.2208 5.26546 40.6927 5.42288