LAMMPS (29 Oct 2020)
OMP_NUM_THREADS environment is not set. Defaulting to 1 thread. (../comm.cpp:94)
  using 1 OpenMP thread(s) per MPI task
OMP_NUM_THREADS environment is not set. Defaulting to 1 thread. (../comm.cpp:94)
  using 1 OpenMP thread(s) per MPI task
Reading data file ...
  orthogonal box = (-0.44150644 -5.2857301 -0.44599121) to (27.781506 333.36573 27.785991)
  2 by 13 by 2 MPI processor grid
  reading atoms ...
  17700 atoms
  reading velocities ...
  17700 velocities
Finding 1-2 1-3 1-4 neighbors ...
  special bond factors lj:    0.0      0.0      0.0     
  special bond factors coul:  0.0      0.0      0.0     
     0 = max # of 1-2 neighbors
     0 = max # of 1-3 neighbors
     0 = max # of 1-4 neighbors
     1 = max # of special neighbors
  special bonds CPU = 0.004 seconds
  read_data CPU = 0.061 seconds
WARNING: 13 of 1000 force values in table Xe-Xe are inconsistent with -dE/dr.
  Should only be flagged at inflection points (../pair_table.cpp:461)
WARNING: 2 of 1000 force values in table Xe-O are inconsistent with -dE/dr.
  Should only be flagged at inflection points (../pair_table.cpp:461)
WARNING: 2 of 1000 force values in table Xe-Th are inconsistent with -dE/dr.
  Should only be flagged at inflection points (../pair_table.cpp:461)
Setting atom values ...
  11760 settings made for charge
Setting atom values ...
  5880 settings made for charge
Setting atom values ...
  60 settings made for charge
PPPM initialization ...
  using 12-bit tables for long-range coulomb (../kspace.cpp:328)
  G vector (1/distance) = 0.29848558
  grid = 40 240 40
  stencil order = 5
  estimated absolute RMS force accuracy = 0.00015857524
  estimated relative force accuracy = 1.1012441e-05
  using single precision MKL FFT
  3d grid and FFT values/proc = 18225 7600
Neighbor list info ...
  update every 1 steps, delay 0 steps, check yes
  max neighbors/atom: 2000, page size: 100000
  master list distance cutoff = 13
  ghost atom cutoff = 13
  binsize = 6.5, bins = 5 53 5
  3 neighbor lists, perpetual/occasional/extra = 3 0 0
  (1) pair coul/long, perpetual
      attributes: half, newton on
      pair build: half/bin/newton
      stencil: half/bin/3d/newton
      bin: standard
  (2) pair eam/alloy, perpetual, skip from (1)
      attributes: half, newton on
      pair build: skip
      stencil: none
      bin: none
  (3) pair table, perpetual, skip from (1)
      attributes: half, newton on
      pair build: skip
      stencil: none
      bin: none
Setting up Verlet run ...
  Unit style    : metal
  Current step  : 0
  Time step     : 0.001
Per MPI rank memory allocation (min/avg/max) = 9.238 | 9.889 | 10.03 Mbytes
Step Temp E_pair E_mol TotEng Press 
       0         1200   -229045.73            0    -226300.4    127.49965 
   50000    1202.5072   -229067.45            0   -226316.38    268.87054 
Loop time of 353.634 on 52 procs for 50000 steps with 17700 atoms

Performance: 12.216 ns/day, 1.965 hours/ns, 141.389 timesteps/s
99.8% CPU use with 52 MPI tasks x 1 OpenMP threads

MPI task timing breakdown:
Section |  min time  |  avg time  |  max time  |%varavg| %total
---------------------------------------------------------------
Pair    | 250.31     | 264.81     | 271.52     |  29.6 | 74.88
Bond    | 0.0044711  | 0.0066528  | 0.010317   |   1.3 |  0.00
Kspace  | 68.729     | 75.117     | 89.459     |  54.6 | 21.24
Neigh   | 2.8735     | 3.5047     | 3.7795     |  12.2 |  0.99
Comm    | 7.1042     | 7.6374     | 8.5188     |  13.3 |  2.16
Output  | 5.3236e-05 | 5.8202e-05 | 0.00026792 |   0.0 |  0.00
Modify  | 0.96593    | 1.85       | 2.7101     |  44.9 |  0.52
Other   |            | 0.704      |            |       |  0.20

Nlocal:        340.385 ave         368 max         303 min
Histogram: 4 3 1 0 3 16 11 5 6 3
Nghost:        5456.52 ave        5666 max        5152 min
Histogram: 4 0 4 5 4 9 6 8 3 9
Neighs:       104947.0 ave      115543 max       80226 min
Histogram: 2 2 0 3 1 1 7 16 14 6

Total # of neighbors = 5457230
Ave neighs/atom = 308.31808
Ave special neighs/atom = 0.0000000
Neighbor list builds = 1180
Dangerous builds = 0
11760 atoms in group oxygen
PPPM initialization ...
  using 12-bit tables for long-range coulomb (../kspace.cpp:328)
  G vector (1/distance) = 0.29848558
  grid = 40 240 40
  stencil order = 5
  estimated absolute RMS force accuracy = 0.00015857524
  estimated relative force accuracy = 1.1012441e-05
  using single precision MKL FFT
  3d grid and FFT values/proc = 18225 7600
Neighbor list info ...
  update every 1 steps, delay 0 steps, check yes
  max neighbors/atom: 2000, page size: 100000
  master list distance cutoff = 13
  ghost atom cutoff = 13
  binsize = 6.5, bins = 5 53 5
  3 neighbor lists, perpetual/occasional/extra = 3 0 0
  (1) pair coul/long, perpetual
      attributes: half, newton on
      pair build: half/bin/newton
      stencil: half/bin/3d/newton
      bin: standard
  (2) pair eam/alloy, perpetual, skip from (1)
      attributes: half, newton on
      pair build: skip
      stencil: none
      bin: none
  (3) pair table, perpetual, skip from (1)
      attributes: half, newton on
      pair build: skip
      stencil: none
      bin: none
Setting up Verlet run ...
  Unit style    : metal
  Current step  : 0
  Time step     : 0.001
Per MPI rank memory allocation (min/avg/max) = 9.489 | 10.14 | 10.28 Mbytes
Step f_2 Temp v_Tdiff v_deltaT 
       0            0    1202.5072            0            0 
  100000    1330.5387    1199.6714  0.049635276    576.26095 
  200000    2583.6486    1193.0631  0.060484501    702.21944 
  300000    3838.5068    1203.2578  0.058115328    674.71356 
  400000    5102.7098    1201.9256  0.056714844    658.45407 
  500000    6369.3837    1194.8284  0.058828793    682.99683 
  600000    7640.4939     1204.903  0.058288067    676.71905 
  700000    8895.6021    1200.9785  0.058791784    682.56715 
  800000     10161.39    1210.8205  0.059161102     686.8549 
  900000     11422.67    1207.2924  0.060229365    699.25733 
 1000000    12683.131    1201.0675  0.057862345    671.77645 
Loop time of 7082.35 on 52 procs for 1000000 steps with 17700 atoms

Performance: 12.199 ns/day, 1.967 hours/ns, 141.196 timesteps/s
99.9% CPU use with 52 MPI tasks x 1 OpenMP threads

MPI task timing breakdown:
Section |  min time  |  avg time  |  max time  |%varavg| %total
---------------------------------------------------------------
Pair    | 4960.1     | 5289.8     | 5422.3     | 155.9 | 74.69
Bond    | 0.090145   | 0.13191    | 0.20512    |   5.8 |  0.00
Kspace  | 1403.1     | 1514.6     | 1839       | 282.5 | 21.39
Neigh   | 66.769     | 82.504     | 88.534     |  63.8 |  1.16
Comm    | 142.06     | 153.94     | 178.93     |  74.8 |  2.17
Output  | 0.0010497  | 0.0011054  | 0.0023112  |   0.5 |  0.00
Modify  | 5.7191     | 6.1689     | 6.8132     |  10.9 |  0.09
Other   |            | 35.16      |            |       |  0.50

Nlocal:        340.385 ave         363 max         296 min
Histogram: 2 3 3 0 0 6 6 17 8 7
Nghost:        5478.81 ave        5668 max        5145 min
Histogram: 4 0 2 7 3 0 9 15 4 8
Neighs:       104970.0 ave      113960 max       78539 min
Histogram: 2 2 0 1 3 1 3 10 18 12

Total # of neighbors = 5458460
Ave neighs/atom = 308.38757
Ave special neighs/atom = 0.0000000
Neighbor list builds = 27729
Dangerous builds = 0
Total wall time: 2:03:56
