ITEM: TIMESTEP
100000
ITEM: NUMBER OF ATOMS
17700
ITEM: BOX BOUNDS pp pp pp
-4.3594836301053169e-01 2.7775948363011054e+01
-5.3175728500037103e+00 3.3339757285000246e+02
-4.4494835150565104e-01 2.7784948351505644e+01
ITEM: ATOMS id type q x y z
1 2 2.2208 5.53861 0.318748 5.16336
2 1 -1.1104 1.26252 -3.95263 0.948662
6 1 -1.1104 1.38398 -3.99071 4.03262
10 1 -1.1104 1.33155 -1.13393 1.17084
12 2 2.2208 5.62936 -2.61622 2.36639
14 1 -1.1104 1.52367 -1.08539 3.87076
16 1 -1.1104 4.03822 -3.77778 0.947383
18 2 2.2208 2.7579 0.329196 2.28767
19 1 -1.1104 4.2563 -3.69682 3.79141
21 2 2.2208 2.83327 -2.39106 5.21853
23 1 -1.1104 4.20978 -1.03637 1.03089
24 1 -1.1104 4.13763 -1.1908 3.8081
166 1 -1.1104 1.59946 -3.84444 6.80581
8841 2 2.2208 0.0385644 -5.2129 5.40707
26 2 2.2208 -0.203552 0.155892 5.38218
25 2 2.2208 -0.0163499 -2.65522 2.43906
30 2 2.2208 -0.323109 8.61251 8.16925
380 2 2.2208 2.77025 8.82435 -0.446832
29 2 2.2208 -0.0333696 5.8764 10.9722
8858 2 2.2208 5.5987 -5.36648 -0.398392
8849 2 2.2208 10.9132 -5.25991 10.914
8 1 -1.1104 7.11115 -3.9397 3.50776
11 1 -1.1104 7.08835 -1.23204 0.967582
15 1 -1.1104 7.02503 -0.982987 3.78989
4 1 -1.1104 7.06479 -4.16751 0.985853
31 2 2.2208 11.3252 0.359363 5.02651
32 1 -1.1104 12.7837 -3.9029 1.08808
34 1 -1.1104 12.8687 -3.99298 3.6106
36 1 -1.1104 12.6203 -1.16198 0.938795
37 2 2.2208 11.2864 -2.45754 2.39594
39 1 -1.1104 12.6682 -1.24341 3.7217
40 1 -1.1104 9.86851 -3.6719 1.11441
42 2 2.2208 8.24811 0.320547 2.42065
43 1 -1.1104 9.80508 -3.83272 4.01248
45 2 2.2208 8.45917 -2.42067 5.21996
47 1 -1.1104 9.77123 -1.0946 0.97777
48 1 -1.1104 9.83853 -0.979934 3.691
370 2 2.2208 8.49912 -2.43631 -0.260882
168 1 -1.1104 6.83757 -4.01986 6.6258
306 1 -1.1104 6.72701 15.8429 12.3316
81 2 2.2208 -0.328722 5.81152 5.19069
368 2 2.2208 -0.138832 0.249426 -0.192954
3 1 -1.1104 1.46918 1.75568 0.887238
7 1 -1.1104 1.24009 1.48117 3.86402
13 2 2.2208 5.51006 2.98565 2.516
17 1 -1.1104 4.40553 1.68755 0.923595
20 1 -1.1104 3.9205 1.444 3.80679
22 2 2.2208 2.55699 2.9865 5.24836
54 2 2.2208 5.5432 5.80214 5.32607
60 1 -1.1104 1.11264 4.30211 1.29585
67 1 -1.1104 0.974031 4.14573 3.98921
71 1 -1.1104 4.19378 7.31384 1.07848
72 2 2.2208 2.59965 5.83866 2.52578
76 1 -1.1104 4.02503 4.57172 1.06222
79 1 -1.1104 3.95322 4.50347 3.85152
58 1 -1.1104 1.10968 7.08525 3.91167
74 1 -1.1104 4.15969 7.30839 4.02837
239 1 -1.1104 4.23834 4.55442 6.80706
234 1 -1.1104 1.34073 7.03561 6.64059
59 1 -1.1104 7.01775 7.28583 3.67808
56 1 -1.1104 1.44363 7.25242 0.951691
199 2 2.2208 -0.168728 3.14047 8.1549
135 2 2.2208 -0.455594 14.3009 2.42998
27 2 2.2208 -0.358076 3.08098 2.4907
361 2 2.2208 10.9653 14.1366 13.7059
289 1 -1.1104 6.89657 15.9158 9.41759
69 1 -1.1104 6.90704 4.65061 4.00876
5 1 -1.1104 6.99464 1.86766 1.05332
57 1 -1.1104 6.96553 7.4556 1.02588
9 1 -1.1104 6.8972 1.74875 3.87297
63 1 -1.1104 7.03907 4.53053 1.22147
33 1 -1.1104 12.3671 1.69027 0.834768
35 1 -1.1104 12.6691 1.63798 3.72502
38 2 2.2208 10.9321 3.02825 2.28876
41 1 -1.1104 9.53282 1.71887 0.938225
44 1 -1.1104 9.61742 1.67332 3.82645
46 2 2.2208 8.37358 3.14411 5.25508
84 2 2.2208 11.2034 5.9995 5.147
88 1 -1.1104 12.567 4.52539 1.10484
92 1 -1.1104 12.5612 4.6729 3.86195
95 2 2.2208 8.35024 6.00755 2.40674
99 1 -1.1104 9.76283 4.51573 0.833941
102 1 -1.1104 9.5195 4.56296 3.78604
86 1 -1.1104 12.2083 7.18184 0.902265
87 1 -1.1104 12.6664 7.41037 3.67151
94 1 -1.1104 9.52997 7.43565 1.01773
97 1 -1.1104 9.70524 7.38593 3.75155
266 1 -1.1104 12.553 4.55905 6.55309
267 1 -1.1104 9.85961 7.27038 6.48107
382 2 2.2208 -0.362818 11.4598 -0.203367
312 2 2.2208 -0.420147 17.1516 11.0571
8839 2 2.2208 2.97063 -5.22485 2.46155
55 2 2.2208 5.45581 11.5817 5.41285
61 1 -1.1104 1.3418 9.9222 1.08377
66 2 2.2208 5.54405 8.85482 2.43725
68 1 -1.1104 1.25551 10.2389 3.90628
73 2 2.2208 2.6396 11.4646 2.4167
75 2 2.2208 2.7372 8.35183 5.3443
77 1 -1.1104 4.12215 10.1951 0.99917
80 1 -1.1104 3.98031 10.0801 3.94658
107 1 -1.1104 0.947643 12.7712 1.14919
113 1 -1.1104 1.11343 12.925 3.94951
123 1 -1.1104 3.81165 13.1175 0.980316
128 1 -1.1104 4.12722 12.9456 3.7803
115 1 -1.1104 6.78111 13.0316 3.9967
108 1 -1.1104 0.992906 13.0414 6.7808
62 1 -1.1104 1.29591 10.0722 6.69911
78 1 -1.1104 4.02697 9.9987 6.80556
110 1 -1.1104 6.69359 13.168 1.1036
83 2 2.2208 -0.323508 11.5443 5.31961
111 1 -1.1104 6.73451 12.9642 6.84262
64 1 -1.1104 6.83001 10.4191 0.948957
70 1 -1.1104 6.74432 10.3247 3.76968
65 1 -1.1104 6.96876 10.1088 6.78187
85 2 2.2208 11.1785 11.7067 5.0915
89 1 -1.1104 12.2599 9.97659 0.990546
91 2 2.2208 11.0062 8.70629 2.45591
93 1 -1.1104 12.3847 10.1795 3.74309
96 2 2.2208 8.37652 11.6083 2.45257
98 2 2.2208 8.38017 8.70588 5.31711
100 1 -1.1104 9.46026 10.3098 0.992766
103 1 -1.1104 9.53056 10.3752 4.00843
142 1 -1.1104 12.2592 12.9283 1.15811
146 1 -1.1104 12.5117 13.2015 3.75179
153 1 -1.1104 9.60433 13.1333 0.869964
158 1 -1.1104 9.68711 13.0533 3.87771
143 1 -1.1104 12.4782 12.8582 6.69709
154 1 -1.1104 9.59046 13.0112 6.53046
101 1 -1.1104 9.5999 10.0294 6.64756
8843 2 2.2208 11.3525 -5.2013 5.30812
362 2 2.2208 8.20682 17.1143 13.6645
136 2 2.2208 -0.329599 19.7212 2.54813
347 2 2.2208 8.27414 14.5776 -0.232738
372 2 2.2208 8.29036 3.16337 -0.419594
130 2 2.2208 2.37258 14.3855 5.28667
119 2 2.2208 5.36778 14.4769 2.53603
106 2 2.2208 5.0681 17.0947 5.12235
109 1 -1.1104 0.922722 18.5725 0.959646
114 1 -1.1104 1.18849 18.4838 4.01612
116 1 -1.1104 1.10022 15.7096 0.996461
120 2 2.2208 5.37292 20.0663 2.46284
121 1 -1.1104 1.11158 15.7445 3.85701
125 1 -1.1104 3.81879 18.6941 1.04174
127 2 2.2208 2.36609 17.1853 2.42635
129 1 -1.1104 3.74417 18.5271 3.8479
131 2 2.2208 2.53021 19.9088 5.22579
132 1 -1.1104 3.88395 16.0617 1.13873
134 1 -1.1104 3.93244 15.5744 3.92372
139 1 -1.1104 6.634 18.7008 3.86473
302 1 -1.1104 1.14745 18.4772 6.62655
122 1 -1.1104 6.83696 15.8601 3.87478
369 2 2.2208 11.1484 0.227087 -0.494123
320 2 2.2208 8.04584 17.3583 7.93269
118 1 -1.1104 6.70696 15.8176 6.58816
112 1 -1.1104 6.52071 18.5581 6.7013
138 1 -1.1104 6.79222 18.7005 1.05302
140 1 -1.1104 6.54754 15.8496 0.95832
150 2 2.2208 11.0248 14.5644 2.53387
160 2 2.2208 8.31855 14.3156 5.2622
141 2 2.2208 10.9657 17.4171 5.32367
144 1 -1.1104 12.571 18.4921 0.954213
147 1 -1.1104 12.3879 18.6348 3.85504
148 1 -1.1104 12.2345 15.7313 1.10927
151 2 2.2208 11.0271 20.0018 2.5351
152 1 -1.1104 12.4739 15.8739 3.93752
155 1 -1.1104 9.60753 18.6228 0.929703
157 2 2.2208 8.26984 17.2705 2.49453
159 1 -1.1104 9.50959 18.6675 3.80588
161 2 2.2208 8.03231 19.9661 5.26095
162 1 -1.1104 9.45349 15.937 1.24204
164 1 -1.1104 9.56385 15.8872 4.00616
145 1 -1.1104 12.3775 18.6926 6.74715
82 2 2.2208 -0.0125544 8.868 2.54324
174 1 -1.1104 4.20317 -0.887514 6.66583
172 1 -1.1104 4.15609 -3.70856 6.80728
201 2 2.2208 -0.0334196 0.312711 11.1352
170 1 -1.1104 1.32259 -1.07883 6.83225
175 2 2.2208 5.53449 0.362737 10.9444
176 1 -1.1104 1.42276 -3.8463 12.5859
180 1 -1.1104 1.60244 -3.97855 9.76786
184 1 -1.1104 1.42511 -0.815073 12.4779
186 2 2.2208 5.69252 -2.57821 8.0477
188 1 -1.1104 1.31866 -1.10699 9.79464
190 1 -1.1104 4.0886 -4.0082 12.477
192 2 2.2208 2.78859 0.382845 8.2077
193 1 -1.1104 4.27691 -4.02602 9.59947
195 2 2.2208 2.81602 -2.65005 11.0789
197 1 -1.1104 4.16942 -1.15098 12.5223
198 1 -1.1104 4.15959 -1.15835 9.43692
189 1 -1.1104 6.88589 -0.973577 9.60191
317 2 2.2208 8.11013 14.2607 10.812
329 1 -1.1104 12.4593 18.4427 12.3777
51 2 2.2208 -0.194003 11.5841 11.0042
374 2 2.2208 5.26601 17.4952 -0.154236
311 2 2.2208 -0.346926 19.8804 8.24065
208 1 -1.1104 9.87765 -3.90466 6.71533
207 1 -1.1104 12.5867 -1.11845 6.64646
205 1 -1.1104 12.7411 -4.04186 6.45203
210 1 -1.1104 9.8803 -1.01876 6.69379
200 2 2.2208 0.0500504 -2.40299 8.2321
171 1 -1.1104 7.06046 -1.11913 6.79952
178 1 -1.1104 6.79352 -3.99975 12.2334
182 1 -1.1104 7.06649 -3.83106 9.41309
185 1 -1.1104 6.97994 -1.08081 12.2576
211 2 2.2208 11.1101 0.284869 10.8996
212 1 -1.1104 12.8292 -3.70019 12.1897
214 1 -1.1104 12.5142 -3.75597 9.32245
216 1 -1.1104 12.5557 -0.939879 12.3221
217 2 2.2208 11.1755 -2.43839 8.08273
219 1 -1.1104 12.4477 -1.00261 9.42785
220 1 -1.1104 9.88324 -3.82582 12.5538
222 2 2.2208 8.35255 0.319934 8.34286
223 1 -1.1104 9.84775 -3.74966 9.87703
225 2 2.2208 8.25489 -2.64598 10.96
227 1 -1.1104 9.735 -1.17046 12.4299
228 1 -1.1104 9.69762 -1.09093 9.41305
173 1 -1.1104 4.20531 1.83974 6.70481
236 1 -1.1104 1.33332 4.34639 6.51169
238 1 -1.1104 4.01813 7.19117 6.85847
366 2 2.2208 2.69053 3.0984 -0.378443
167 1 -1.1104 1.34846 1.68688 6.93367
177 1 -1.1104 1.41657 1.88125 12.6759
181 1 -1.1104 1.21297 1.6291 9.70181
187 2 2.2208 5.56396 3.14145 8.17032
191 1 -1.1104 4.24179 1.74336 12.6579
194 1 -1.1104 4.00854 1.75459 9.67751
196 2 2.2208 2.89606 3.16126 11.1487
240 2 2.2208 5.71556 6.05168 10.9217
246 1 -1.1104 1.20468 4.71104 12.4116
251 1 -1.1104 1.20429 4.58237 9.46921
255 1 -1.1104 4.05777 7.32635 12.4674
256 2 2.2208 2.6341 5.91892 8.11856
260 1 -1.1104 4.25144 4.58747 12.5236
262 1 -1.1104 4.14952 4.45708 9.50536
242 1 -1.1104 1.27866 7.50602 12.5618
244 1 -1.1104 1.21731 7.42952 9.86392
258 1 -1.1104 4.04378 7.36915 9.57131
253 1 -1.1104 7.1004 4.61862 9.52218
243 1 -1.1104 6.90694 7.20419 12.3827
237 1 -1.1104 7.1419 4.51766 6.76855
169 1 -1.1104 6.93889 1.71929 6.79257
235 1 -1.1104 7.12677 7.25745 6.49852
265 1 -1.1104 12.5736 7.41089 6.53855
269 1 -1.1104 9.98652 4.53453 6.45527
179 1 -1.1104 6.73845 1.65251 12.4063
183 1 -1.1104 6.79124 1.74764 9.61003
245 1 -1.1104 6.89772 7.48427 9.41432
206 1 -1.1104 12.6901 1.52587 6.37668
248 1 -1.1104 6.88051 4.51934 12.4482
209 1 -1.1104 9.84651 1.92589 6.76227
213 1 -1.1104 12.7601 1.81993 12.3937
215 1 -1.1104 12.7071 1.74867 9.25894
218 2 2.2208 11.1039 3.11946 8.10351
221 1 -1.1104 9.67188 1.55721 12.3089
224 1 -1.1104 9.72338 1.6698 9.53103
226 2 2.2208 8.26691 3.14317 10.9794
268 1 -1.1104 9.80753 4.37676 9.52204
271 1 -1.1104 9.7186 4.42419 12.4629
275 2 2.2208 8.68023 5.89416 7.97661
276 2 2.2208 11.1141 5.79084 10.9856
280 1 -1.1104 12.5755 4.49441 12.5682
283 1 -1.1104 12.6647 4.73333 9.6097
273 1 -1.1104 9.91233 7.14017 9.38802
285 1 -1.1104 9.81526 7.20109 12.3153
279 1 -1.1104 12.5808 7.48961 9.2551
149 1 -1.1104 12.534 15.9492 6.69397
364 2 2.2208 5.58963 0.365586 -0.438326
124 1 -1.1104 3.77414 12.934 6.76079
241 2 2.2208 5.31416 11.4707 11.0551
247 1 -1.1104 1.06393 10.2055 12.481
250 2 2.2208 5.39515 8.68773 8.07549
252 1 -1.1104 1.17892 10.1784 9.70888
257 2 2.2208 2.41629 11.577 8.16331
259 2 2.2208 2.58922 8.97388 11.0944
261 1 -1.1104 4.03905 10.2211 12.5132
263 1 -1.1104 4.04653 10.1925 9.72054
294 1 -1.1104 1.1109 12.9858 9.45553
287 1 -1.1104 3.99576 13.0134 12.4521
299 1 -1.1104 1.08889 13.0256 12.4172
305 1 -1.1104 3.96796 12.9422 9.60054
254 1 -1.1104 6.92749 10.0849 9.78761
296 1 -1.1104 6.75276 18.805 12.5346
323 1 -1.1104 12.687 15.7157 9.35868
90 1 -1.1104 12.5065 10.2437 6.59732
327 1 -1.1104 12.4357 18.4226 9.49594
278 1 -1.1104 12.444 7.37344 12.1918
297 1 -1.1104 6.85194 12.8146 12.2272
249 1 -1.1104 6.69266 10.0961 12.5315
290 1 -1.1104 6.7069 12.7016 9.55807
319 1 -1.1104 9.57312 12.8045 9.43305
264 1 -1.1104 9.75907 10.1984 9.54607
270 1 -1.1104 9.61576 10.106 12.4257
272 2 2.2208 8.23657 8.79379 11.0447
274 2 2.2208 8.10373 11.539 7.99136
277 2 2.2208 11.0217 11.6874 11.0002
281 1 -1.1104 12.4527 10.2246 12.8159
282 2 2.2208 11.162 8.70615 8.08721
284 1 -1.1104 12.4787 9.98482 9.64661
330 1 -1.1104 12.5961 12.9913 12.3093
328 1 -1.1104 12.2693 12.9176 9.43816
322 1 -1.1104 9.52585 12.9309 12.2625
137 2 2.2208 -0.296943 17.1313 5.35003
117 1 -1.1104 1.19656 15.7427 6.69425
126 1 -1.1104 3.88281 18.5121 6.56316
288 1 -1.1104 6.71476 18.8391 9.49901
383 2 2.2208 -0.00822244 5.96925 -0.35673
326 1 -1.1104 12.3219 15.7114 12.296
313 2 2.2208 -0.418144 14.3624 8.15705
133 1 -1.1104 3.84131 15.6997 6.60493
295 2 2.2208 5.36668 14.3721 8.04151
310 2 2.2208 2.75973 14.4482 10.9024
308 1 -1.1104 3.83235 15.7571 12.5095
309 2 2.2208 2.39786 20.0049 10.7799
303 2 2.2208 2.58715 17.1951 7.94607
292 1 -1.1104 1.23914 15.7149 9.62025
307 1 -1.1104 1.08856 15.7969 12.1355
304 1 -1.1104 4.35 15.6872 9.6793
298 1 -1.1104 1.02789 18.6403 12.2885
301 1 -1.1104 3.88976 18.6571 9.33607
291 1 -1.1104 0.93225 18.4115 9.48594
300 2 2.2208 5.42129 17.1999 11.0059
286 1 -1.1104 3.79161 18.6939 12.2048
293 2 2.2208 5.28137 20.136 8.08226
379 2 2.2208 5.61983 5.9672 -0.252499
156 1 -1.1104 9.4589 18.6911 6.5899
331 2 2.2208 10.9831 17.0347 10.6956
318 1 -1.1104 9.55276 18.6113 9.37031
314 1 -1.1104 9.67849 15.6018 9.49511
321 1 -1.1104 9.62 18.4694 12.1302
325 2 2.2208 11.0382 14.2656 7.9559
324 2 2.2208 11.0188 20.0426 8.04163
163 1 -1.1104 9.63443 15.7861 6.796
316 2 2.2208 8.16911 20.0349 10.7346
315 1 -1.1104 9.5686 15.6056 12.42
8848 2 2.2208 8.12747 -5.30768 7.9951
386 2 2.2208 11.004 11.6432 -0.347205
348 2 2.2208 11.0516 17.1919 -0.329587
346 2 2.2208 11.3907 -2.47789 13.6278
356 2 2.2208 8.21061 11.3601 13.5869
343 2 2.2208 8.32676 0.376075 13.6313
373 2 2.2208 2.4396 14.6104 -0.268493
381 2 2.2208 5.4103 11.7645 -0.277297
388 2 2.2208 5.56229 0.149875 16.6354
389 1 -1.1104 1.30382 -3.71451 18.1327
393 1 -1.1104 1.32441 -3.79684 15.3815
401 1 -1.1104 1.42347 -1.14133 17.7974
403 2 2.2208 5.79985 -2.44969 19.5122
405 1 -1.1104 1.37172 -1.02761 15.1742
409 1 -1.1104 3.91876 -4.03717 17.8614
411 2 2.2208 2.72087 0.496489 19.3556
412 1 -1.1104 4.29295 -3.71772 15.1891
416 2 2.2208 2.80029 -2.47539 16.7221
418 1 -1.1104 4.0339 -1.26979 18.4563
419 1 -1.1104 4.0925 -1.08848 15.5304
391 1 -1.1104 6.94438 -3.93251 17.9761
397 1 -1.1104 7.03174 -4.07764 14.9563
406 1 -1.1104 1.69043 -1.00467 20.801
402 1 -1.1104 7.0171 -1.19422 17.8201
408 1 -1.1104 7.06422 -0.958189 20.6248
351 2 2.2208 2.65415 5.9156 13.9873
337 2 2.2208 -0.0275652 3.01934 13.9273
424 2 2.2208 -0.154208 0.242371 16.5769
341 2 2.2208 5.40774 3.11719 13.8906
339 2 2.2208 2.87634 0.17124 13.8763
334 2 2.2208 -0.0744777 -2.56617 13.9631
407 1 -1.1104 6.99967 -1.11636 15.0327
355 2 2.2208 11.0295 8.68393 13.7427
431 2 2.2208 11.0599 0.360895 16.6032
432 1 -1.1104 12.4644 -3.86776 17.9203
434 1 -1.1104 12.9004 -4.09165 15.039
438 1 -1.1104 12.5766 -1.23119 17.862
439 2 2.2208 11.2021 -2.52041 19.432
441 1 -1.1104 12.542 -1.29237 15.1932
443 1 -1.1104 9.69129 -3.88281 18.1246
445 2 2.2208 8.56552 0.458702 19.3593
446 1 -1.1104 10.0553 -3.78729 15.2094
450 2 2.2208 8.41129 -2.54267 16.4033
452 1 -1.1104 9.80869 -1.17569 17.9299
453 1 -1.1104 9.77039 -0.865678 15.3
398 1 -1.1104 6.7411 -3.72732 21.0598
357 2 2.2208 2.25775 17.2097 13.6698
457 2 2.2208 0.0208405 14.4728 19.3095
447 1 -1.1104 9.46902 -3.86279 20.9857
367 2 2.2208 -0.148688 8.79413 13.7786
427 2 2.2208 -0.136878 3.23255 19.4531
390 1 -1.1104 1.20127 1.57123 18.1145
395 1 -1.1104 1.30148 1.86814 15.3837
404 2 2.2208 5.53357 3.06909 19.5245
410 1 -1.1104 4.18402 1.60742 18.0016
414 1 -1.1104 3.92564 1.61382 15.1009
417 2 2.2208 2.78013 3.10113 16.6773
464 2 2.2208 5.44872 5.78233 16.7505
466 1 -1.1104 1.3969 7.22114 18.2891
472 1 -1.1104 1.48482 4.30343 18.0217
477 1 -1.1104 1.39775 4.58937 15.3515
486 2 2.2208 2.69674 5.81193 19.5519
491 1 -1.1104 4.16158 4.53564 18.2711
493 1 -1.1104 4.16657 4.6998 15.2843
488 1 -1.1104 3.90878 7.24302 15.4535
485 1 -1.1104 4.16583 7.43927 18.1572
468 1 -1.1104 1.08014 7.52045 15.5086
489 1 -1.1104 4.01246 7.4113 20.9723
470 1 -1.1104 6.86968 7.25727 15.276
497 1 -1.1104 12.2867 18.6376 23.4607
615 2 2.2208 8.03141 14.4365 22.3187
469 1 -1.1104 1.17037 7.28006 20.9313
478 1 -1.1104 1.2253 4.5997 20.7615
621 2 2.2208 -0.0768824 5.886 16.6522
399 1 -1.1104 6.71531 1.5722 15.2375
392 1 -1.1104 7.01007 1.60443 18.128
474 1 -1.1104 6.94329 4.51559 18.0458
481 1 -1.1104 6.85754 4.51205 15.2535
467 1 -1.1104 6.96734 7.21637 17.7925
433 1 -1.1104 12.6446 1.67402 17.8528
436 1 -1.1104 12.5087 1.67181 15.1222
440 2 2.2208 11.0432 3.20164 19.388
444 1 -1.1104 9.93461 1.6231 18.0359
448 1 -1.1104 9.64469 1.79914 15.1926
451 2 2.2208 8.17482 3.00064 16.6172
500 2 2.2208 11.1329 5.89592 16.6291
505 1 -1.1104 12.3528 4.73395 18.188
508 1 -1.1104 12.5054 4.31654 15.3948
513 2 2.2208 8.24161 5.97289 19.3457
515 1 -1.1104 9.84774 7.12784 15.2505
518 1 -1.1104 9.67052 4.20091 17.849
520 1 -1.1104 9.69447 4.41184 15.311
503 1 -1.1104 12.6033 7.21011 15.2629
502 1 -1.1104 12.6665 7.56355 18.1695
449 1 -1.1104 9.70357 1.78453 20.7437
516 1 -1.1104 9.54228 7.26684 20.8516
509 1 -1.1104 12.815 4.50418 20.8668
512 1 -1.1104 9.62614 7.17789 17.9938
504 1 -1.1104 12.414 7.44718 20.8087
400 1 -1.1104 6.86403 1.95344 20.8113
421 2 2.2208 -0.0365527 5.91383 22.3284
622 2 2.2208 -0.266709 8.57774 19.4835
465 2 2.2208 5.37703 11.5443 16.7046
473 1 -1.1104 1.06116 9.93519 18.0214
476 2 2.2208 5.34662 8.79814 19.4902
479 1 -1.1104 1.39764 10.1659 15.3476
487 2 2.2208 2.40938 11.599 19.3241
490 2 2.2208 2.53731 8.69368 16.8936
492 1 -1.1104 3.82938 10.2289 17.9435
495 1 -1.1104 4.06773 10.3435 15.068
528 1 -1.1104 1.02689 12.9497 17.7818
532 1 -1.1104 0.862382 12.9218 15.1866
548 1 -1.1104 3.72834 13.1681 17.8525
551 1 -1.1104 3.8341 12.9604 15.1376
552 1 -1.1104 3.82979 12.9961 20.8034
458 2 2.2208 -0.294611 20.0263 19.3571
648 2 2.2208 -0.22042 11.2967 16.6407
587 2 2.2208 8.19289 17.3476 25.0226
8866 2 2.2208 2.81621 -5.3062 13.9939
536 1 -1.1104 6.52402 13.1636 15.4393
530 1 -1.1104 6.68009 12.9004 18.0524
475 1 -1.1104 6.63237 10.2536 18.2018
483 1 -1.1104 6.95629 10.1436 15.4312
484 1 -1.1104 6.74049 10.3361 20.8307
501 2 2.2208 11.0067 11.6103 16.5425
506 1 -1.1104 12.3419 10.2474 18.0289
507 2 2.2208 10.8742 8.63615 19.422
510 1 -1.1104 12.4431 10.1858 15.4101
514 2 2.2208 8.25615 11.7327 19.4063
517 2 2.2208 8.24819 8.6598 16.5927
519 1 -1.1104 9.53306 10.1238 17.6849
522 1 -1.1104 9.56543 9.78917 15.0429
564 1 -1.1104 12.6092 13.0894 18.0254
566 1 -1.1104 12.3223 12.919 15.2474
575 1 -1.1104 9.81179 13.1403 17.8118
578 1 -1.1104 9.56047 12.7351 14.9953
567 1 -1.1104 12.4766 12.966 20.6419
718 1 -1.1104 6.78349 18.4442 23.578
360 2 2.2208 11.0922 19.931 13.6747
542 2 2.2208 5.34487 14.4328 19.2942
555 2 2.2208 2.45013 14.3711 16.3857
527 2 2.2208 5.28799 17.1044 16.5232
529 1 -1.1104 0.930162 18.7391 17.6451
534 1 -1.1104 0.976116 18.6018 15.0041
540 1 -1.1104 1.08939 15.93 17.9176
543 2 2.2208 5.27229 19.9858 19.1922
544 1 -1.1104 1.10196 15.7584 15.1167
549 1 -1.1104 3.79203 18.5943 17.7452
550 2 2.2208 2.58349 17.2356 19.2306
553 1 -1.1104 3.6912 18.4546 15.0616
556 2 2.2208 2.38276 19.9736 16.4812
557 1 -1.1104 3.93841 15.681 17.9836
558 1 -1.1104 3.83442 15.6945 15.2889
559 1 -1.1104 4.02532 15.7835 20.7944
335 2 2.2208 -0.277922 20.2111 13.6604
539 1 -1.1104 6.53113 18.6014 20.6964
358 2 2.2208 5.1048 20.1401 13.7223
535 1 -1.1104 1.09431 18.594 20.7105
538 1 -1.1104 6.43546 18.8389 15.3501
541 1 -1.1104 6.91382 15.7481 17.9168
546 1 -1.1104 6.90914 15.8337 15.2222
531 1 -1.1104 6.59901 18.3439 18.0009
571 2 2.2208 11.2601 14.4269 19.343
582 2 2.2208 8.23888 14.2933 16.6697
563 2 2.2208 11.0549 17.0806 16.4262
565 1 -1.1104 12.5911 18.8362 17.9032
568 1 -1.1104 12.4035 18.5484 15.1803
570 1 -1.1104 12.5485 15.9074 17.7833
572 2 2.2208 10.8962 20.0368 19.2555
573 1 -1.1104 12.3953 15.6676 14.8443
576 1 -1.1104 9.60033 18.6851 17.7777
577 2 2.2208 8.21964 17.0628 19.3203
580 1 -1.1104 9.53711 18.3745 15.0575
583 2 2.2208 8.0428 19.9473 16.4657
584 1 -1.1104 9.76149 15.7079 17.9878
585 1 -1.1104 9.63455 15.7626 15.1896
581 1 -1.1104 9.56127 18.5236 20.5356
569 1 -1.1104 12.2266 18.4379 20.6597
574 1 -1.1104 12.4197 15.845 20.672
456 2 2.2208 -0.365545 17.2714 16.4827
394 1 -1.1104 1.28098 -3.92473 20.893
365 2 2.2208 2.68015 -2.49848 27.764
350 2 2.2208 11.0112 3.00261 13.8482
625 2 2.2208 -0.0686854 0.339546 22.2054
420 1 -1.1104 4.49962 -1.16321 21.1836
413 1 -1.1104 4.00063 -3.83548 20.7742
591 2 2.2208 5.61407 0.374228 22.3757
592 1 -1.1104 1.32625 -3.94546 23.6845
596 1 -1.1104 1.26924 -3.7068 26.5186
600 1 -1.1104 1.37448 -1.12516 23.4985
602 2 2.2208 5.49747 -2.67213 25.1991
604 1 -1.1104 1.24826 -1.05024 26.5057
606 1 -1.1104 4.1194 -3.89186 23.5527
608 2 2.2208 2.64554 0.2755 25.0373
609 1 -1.1104 4.06919 -4.17216 26.4363
611 2 2.2208 2.86932 -2.43088 22.1008
613 1 -1.1104 4.09913 -1.02959 23.8667
614 1 -1.1104 4.06966 -1.13892 26.5692
624 2 2.2208 -0.0283592 -2.4767 24.9282
442 1 -1.1104 12.6121 -1.30553 20.7592
525 2 2.2208 10.8745 14.26 25.0653
352 2 2.2208 5.25931 8.61498 13.9776
601 1 -1.1104 6.92825 -0.9945 23.6216
594 1 -1.1104 6.94374 -4.09079 23.6742
605 1 -1.1104 6.807 -1.03581 26.3513
598 1 -1.1104 7.20487 -3.81884 26.526
435 1 -1.1104 12.6977 -3.90194 20.8242
454 1 -1.1104 9.77156 -0.946829 20.7862
627 2 2.2208 11.0872 0.290656 22.0733
628 1 -1.1104 12.6795 -4.0433 23.6373
630 1 -1.1104 12.7737 -4.07757 26.4916
632 1 -1.1104 12.6266 -1.13955 23.5269
633 2 2.2208 11.409 -2.54964 25.0352
635 1 -1.1104 12.6265 -1.16241 26.458
636 1 -1.1104 9.69827 -3.94827 23.5802
638 2 2.2208 8.09629 0.314398 25.081
639 1 -1.1104 10.1493 -3.5744 26.7176
641 2 2.2208 8.2373 -2.40704 22.1941
643 1 -1.1104 9.70929 -1.04714 23.6598
644 1 -1.1104 9.87524 -0.998201 26.2155
375 2 2.2208 2.62907 20.2231 27.8079
396 1 -1.1104 1.20485 1.83922 21.0488
415 1 -1.1104 4.0801 1.63911 20.7377
494 1 -1.1104 4.05832 4.54736 21.0301
593 1 -1.1104 1.26981 1.88342 23.7307
597 1 -1.1104 1.25585 1.69656 26.5265
603 2 2.2208 5.37911 3.12738 25.2586
607 1 -1.1104 4.15179 1.78123 23.4875
610 1 -1.1104 4.29947 1.63184 26.3935
612 2 2.2208 2.70009 3.08425 22.2306
656 2 2.2208 5.32605 5.83739 22.2655
660 1 -1.1104 1.30666 7.3665 26.4406
662 1 -1.1104 1.25349 4.54109 23.5863
667 1 -1.1104 1.26272 4.66326 26.3833
672 2 2.2208 2.6457 5.78228 25.129
676 1 -1.1104 3.98943 4.57376 23.8182
678 1 -1.1104 4.04675 4.42374 26.616
671 1 -1.1104 4.1356 7.56198 23.5992
674 1 -1.1104 4.31055 7.30792 26.2234
658 1 -1.1104 1.38645 7.51698 23.8193
595 1 -1.1104 6.86613 1.81221 23.5716
499 1 -1.1104 12.1204 18.5795 26.1776
626 2 2.2208 -0.0857779 3.07102 25.2397
471 1 -1.1104 6.92127 7.39629 20.5583
664 1 -1.1104 6.75574 4.48504 23.7987
659 1 -1.1104 6.77568 7.25623 23.4045
669 1 -1.1104 6.5845 4.56073 26.4346
482 1 -1.1104 6.8321 4.63499 20.8129
521 1 -1.1104 9.87811 4.70909 20.626
437 1 -1.1104 12.4486 1.58406 21.0715
599 1 -1.1104 6.92641 1.76699 26.511
661 1 -1.1104 6.9801 7.5734 26.399
629 1 -1.1104 12.6867 1.72616 23.7005
631 1 -1.1104 12.5661 1.6973 26.3851
634 2 2.2208 11.1894 3.1254 24.9194
637 1 -1.1104 9.81133 1.84113 23.6555
640 1 -1.1104 9.64886 1.5268 26.5752
642 2 2.2208 8.14658 3.25182 22.361
688 1 -1.1104 9.52987 4.52888 26.1072
690 1 -1.1104 9.62323 4.63524 23.488
694 2 2.2208 8.27304 6.02892 25.1038
695 2 2.2208 11.1185 6.1279 22.2293
699 1 -1.1104 12.5077 4.5507 23.691
702 1 -1.1104 12.4819 4.52065 26.4506
704 1 -1.1104 9.64938 7.56053 23.6281
697 1 -1.1104 12.5327 7.561 23.6594
698 1 -1.1104 12.5637 7.29253 26.5271
692 1 -1.1104 9.66945 7.55876 26.3965
480 1 -1.1104 1.15286 10.0843 20.7846
425 2 2.2208 -0.0139222 -2.44712 19.4473
685 2 2.2208 -0.221563 11.4797 22.2316
338 2 2.2208 5.68256 -2.65127 13.7067
496 1 -1.1104 3.94867 10.2294 20.637
533 1 -1.1104 1.17066 13.0597 20.7219
657 2 2.2208 5.22277 11.7466 22.0612
663 1 -1.1104 1.21459 10.2421 23.6547
666 2 2.2208 5.35575 8.82687 25.0125
668 1 -1.1104 1.14872 10.2394 26.5791
673 2 2.2208 2.4903 11.6763 25.0359
675 2 2.2208 2.65177 8.91094 22.2819
677 1 -1.1104 3.89086 10.2482 23.6029
679 1 -1.1104 3.84109 10.104 26.4695
681 1 -1.1104 4.11175 12.8865 26.2174
706 1 -1.1104 1.09822 13.0324 23.825
713 1 -1.1104 3.84197 13.068 23.6335
717 1 -1.1104 1.3194 13.3153 26.4817
684 2 2.2208 -0.11364 8.68722 25.0255
524 1 -1.1104 12.1682 15.651 23.4967
537 1 -1.1104 6.75916 13.2415 20.8807
579 1 -1.1104 9.61149 12.9442 20.6897
511 1 -1.1104 12.2576 10.2301 20.7142
616 2 2.2208 8.13354 19.7921 21.9949
712 1 -1.1104 6.7764 13.0377 26.5156
670 1 -1.1104 6.65996 10.2448 26.41
523 1 -1.1104 9.29093 10.0349 20.6792
665 1 -1.1104 6.75676 10.2359 23.5978
709 1 -1.1104 6.70212 12.983 23.4208
463 1 -1.1104 12.3191 12.9051 23.6329
687 1 -1.1104 9.65476 10.5031 26.4071
689 1 -1.1104 9.45366 10.4247 23.596
691 2 2.2208 8.17389 8.83294 22.279
693 2 2.2208 8.03295 11.8114 24.9121
696 2 2.2208 10.9482 11.6621 22.2055
700 1 -1.1104 12.5279 10.2227 23.4054
701 2 2.2208 11.1621 8.87978 24.9403
703 1 -1.1104 12.4544 9.98249 26.4064
498 1 -1.1104 12.5589 12.8956 26.515
589 1 -1.1104 9.6145 13.104 26.4476
561 1 -1.1104 9.5035 13.2431 23.464
560 1 -1.1104 12.4465 15.7929 26.4955
623 2 2.2208 -0.165679 17.2644 22.1453
554 1 -1.1104 3.82085 18.6002 20.6185
545 1 -1.1104 1.15784 15.8287 20.8863
720 2 2.2208 5.28965 14.5852 25.1026
647 2 2.2208 2.41625 14.3983 22.3131
711 1 -1.1104 3.92443 18.5695 23.4985
655 1 -1.1104 1.10595 16.066 23.7474
715 1 -1.1104 1.21811 18.7344 26.371
682 1 -1.1104 3.8582 15.872 26.5945
649 2 2.2208 2.36636 20.0033 22.1332
652 1 -1.1104 3.98297 15.8858 23.6834
716 1 -1.1104 0.972883 16.0717 26.5346
707 1 -1.1104 1.22777 18.7644 23.6861
705 2 2.2208 5.32362 17.1766 22.2436
686 1 -1.1104 4.15069 18.6063 26.4588
683 2 2.2208 2.58807 17.2619 25.0238
719 2 2.2208 5.40595 19.9493 25.0434
646 2 2.2208 -0.271234 14.5341 25.1988
645 2 2.2208 -0.40529 20.1072 24.9592
8904 2 2.2208 8.39308 -5.32491 24.9692
620 1 -1.1104 9.71512 15.83 26.5895
588 1 -1.1104 6.85077 18.6516 26.436
617 1 -1.1104 9.49841 15.8367 23.8658
562 1 -1.1104 9.58387 18.5219 23.4135
714 1 -1.1104 6.57729 15.8616 26.3984
462 2 2.2208 11.0339 17.1279 22.2063
590 1 -1.1104 9.72475 18.5697 26.2026
547 1 -1.1104 6.78435 15.8139 20.7578
586 1 -1.1104 9.59466 15.6357 20.9197
680 1 -1.1104 6.83943 15.8651 23.4414
526 2 2.2208 11.1004 19.9171 24.7832
8942 2 2.2208 -0.156458 -5.09589 22.2138
8973 2 2.2208 2.62258 -5.28054 19.4559
354 2 2.2208 8.35853 5.86904 13.8915
359 2 2.2208 5.28133 14.517 13.933
8943 2 2.2208 8.34554 -5.23605 19.5407
353 2 2.2208 2.35807 11.6888 13.7063
385 2 2.2208 8.25217 8.96504 27.609
349 2 2.2208 8.28444 19.8167 27.7376
455 2 2.2208 13.7001 17.1662 25.1385
8975 2 2.2208 -0.132198 -5.25604 16.6741
384 2 2.2208 11.0629 5.99271 27.6133
363 2 2.2208 13.6227 17.0731 13.8547
342 2 2.2208 -0.263477 14.4268 13.7757
721 2 2.2208 5.42795 22.9757 5.22897
723 1 -1.1104 1.15846 24.0996 0.727445
724 1 -1.1104 1.08035 24.0918 3.51662
725 1 -1.1104 0.877771 21.212 0.985948
727 2 2.2208 5.50084 25.5279 2.27438
728 1 -1.1104 1.33306 21.3564 3.88167
730 1 -1.1104 4.06831 24.0686 0.888786
731 2 2.2208 2.52885 22.6554 2.36766
733 1 -1.1104 3.91123 24.1477 3.61432
734 2 2.2208 2.37663 25.5141 5.03276
735 1 -1.1104 4.05004 21.2667 1.03454
737 1 -1.1104 4.09329 21.3045 4.03258
746 1 -1.1104 6.93933 21.5001 3.98739
864 1 -1.1104 0.801441 21.4998 6.63157
743 1 -1.1104 6.70114 24.1569 3.84682
738 1 -1.1104 3.79292 27.0145 3.83834
870 1 -1.1104 3.85557 27.0496 6.78826
865 1 -1.1104 1.2097 26.7819 6.66854
740 2 2.2208 -0.33545 28.2515 5.14797
791 2 2.2208 -0.349318 31.3133 2.27643
747 1 -1.1104 6.45328 27.0915 3.88204
866 1 -1.1104 6.57045 21.4502 6.52739
742 1 -1.1104 6.87453 24.1987 1.03693
744 1 -1.1104 6.85159 21.4394 0.92077
867 1 -1.1104 6.72779 27.1574 6.48243
748 2 2.2208 11.0714 22.6271 5.35475
750 1 -1.1104 12.218 24.1231 1.29839
751 1 -1.1104 12.4384 24.2397 3.94153
752 1 -1.1104 12.3689 21.5203 0.926272
754 2 2.2208 10.86 25.5568 2.50915
755 1 -1.1104 12.3055 21.417 3.76369
757 1 -1.1104 9.4208 24.2167 1.0038
758 2 2.2208 8.21278 22.8135 2.37414
760 1 -1.1104 9.58902 24.1003 3.73362
761 2 2.2208 8.18017 25.5537 5.18517
762 1 -1.1104 9.34857 21.23 1.03244
764 1 -1.1104 9.59909 21.2711 3.95987
756 1 -1.1104 12.4061 26.9766 3.67932
765 1 -1.1104 9.3852 26.9868 3.7411
753 1 -1.1104 12.3008 26.6402 0.97971
900 1 -1.1104 9.57064 26.806 6.64624
863 1 -1.1104 6.67573 24.3528 6.56572
899 1 -1.1104 9.56734 21.5277 6.77871
898 1 -1.1104 9.62695 24.26 6.61224
729 1 -1.1104 0.899174 27.0341 3.66082
736 1 -1.1104 3.78842 27.0666 0.912123
726 1 -1.1104 1.19595 26.8432 1.06184
745 1 -1.1104 6.58654 27.131 0.931073
722 2 2.2208 5.12203 28.5376 5.27518
732 2 2.2208 2.51749 28.3364 2.44039
770 1 -1.1104 1.03419 29.8795 0.920526
773 1 -1.1104 1.09046 29.9671 3.71129
776 1 -1.1104 1.01471 32.7877 0.830663
777 2 2.2208 5.28637 31.2143 2.44949
779 1 -1.1104 1.01032 32.7482 3.76431
781 1 -1.1104 3.88986 29.9233 0.818557
784 1 -1.1104 4.1678 29.8205 3.67673
786 2 2.2208 2.42944 31.397 5.03036
788 1 -1.1104 3.78277 32.7145 0.879725
789 1 -1.1104 3.55741 32.697 3.47451
923 1 -1.1104 0.898784 32.702 6.66251
927 1 -1.1104 3.86304 32.5128 6.50779
921 1 -1.1104 6.56918 29.8042 6.78361
1053 2 2.2208 -0.304717 31.4545 13.6343
925 1 -1.1104 3.97024 29.8601 6.63678
10176 2 2.2208 -0.30822 42.6697 7.94526
763 1 -1.1104 9.38295 26.8871 1.08578
793 1 -1.1104 6.57014 29.8751 1.03796
794 1 -1.1104 6.70494 29.776 3.89491
780 1 -1.1104 6.60273 32.7135 3.83862
795 1 -1.1104 6.66286 32.7938 1.01194
749 2 2.2208 11.0442 28.5321 5.3318
759 2 2.2208 7.99554 28.3251 2.44735
797 1 -1.1104 12.388 29.4602 1.11542
799 1 -1.1104 12.3683 29.6971 3.86598
801 1 -1.1104 12.1015 32.366 0.767038
802 2 2.2208 10.7455 31.0734 2.38736
804 1 -1.1104 12.463 32.4849 3.76951
805 1 -1.1104 9.45608 29.5431 0.844891
808 1 -1.1104 9.45864 29.6227 3.68206
810 2 2.2208 8.01929 31.1337 5.26567
812 1 -1.1104 9.35109 32.5864 0.792129
813 1 -1.1104 9.59537 32.5347 3.63047
958 1 -1.1104 9.61199 32.4599 6.51045
1036 2 2.2208 -0.30562 22.7744 10.6875
953 1 -1.1104 12.1993 29.8875 6.83259
1038 2 2.2208 -0.151601 28.5735 10.8777
1016 1 -1.1104 12.4501 43.9977 9.57445
840 2 2.2208 -0.430102 45.2684 5.05123
769 2 2.2208 5.23208 34.2573 5.20965
771 1 -1.1104 1.07156 35.6708 0.818628
774 1 -1.1104 0.938591 35.5854 3.81805
778 2 2.2208 5.32997 37.0491 2.55312
782 1 -1.1104 3.87901 35.5126 0.856909
783 2 2.2208 2.47548 34.296 2.25318
785 1 -1.1104 3.80222 35.2959 3.8475
787 2 2.2208 2.41464 36.8466 5.24491
821 1 -1.1104 1.21316 38.5246 1.01615
826 1 -1.1104 1.04099 38.3818 3.90525
835 1 -1.1104 3.80569 38.5153 0.998977
837 1 -1.1104 3.7577 38.0791 3.75788