ITEM: TIMESTEP
60000
ITEM: NUMBER OF ATOMS
17700
ITEM: BOX BOUNDS pp pp pp
-4.5065317640750807e-01 2.7790653176408281e+01
-5.2927658446094279e+00 3.3337276584460921e+02
-4.4355053851909193e-01 2.7783550538518917e+01
ITEM: ATOMS id type q x y z
1 2 2.2208 5.17145 0.369643 5.09906
2 1 -1.1104 1.22184 -3.7833 1.51324
6 1 -1.1104 1.15934 -3.90333 4.17751
10 1 -1.1104 0.872619 -0.944338 1.13523
12 2 2.2208 5.27755 -2.40255 2.53928
14 1 -1.1104 1.20262 -1.00699 3.97934
16 1 -1.1104 4.12591 -3.92329 1.12672
18 2 2.2208 2.3427 0.475702 2.43759
19 1 -1.1104 4.0423 -3.91682 3.91158
21 2 2.2208 2.57964 -2.24624 5.48296
23 1 -1.1104 3.91505 -0.983557 1.28353
24 1 -1.1104 3.86241 -0.99298 4.04961
25 2 2.2208 -0.35838 -2.29767 2.48796
26 2 2.2208 -0.242658 0.522377 5.25588
170 1 -1.1104 0.991655 -0.824804 6.66473
29 2 2.2208 -0.4089 6.06452 10.7496
8843 2 2.2208 11.1615 -5.10437 5.19562
8845 2 2.2208 2.80184 -5.19998 8.35596
296 1 -1.1104 6.87196 18.652 12.1572
371 2 2.2208 -0.269913 17.2665 -0.282163
4 1 -1.1104 7.22106 -3.68254 1.141
11 1 -1.1104 6.75366 -0.847119 1.06001
15 1 -1.1104 6.58084 -1.16092 3.72164
8 1 -1.1104 6.97426 -3.9011 3.96412
31 2 2.2208 11.2332 0.443417 5.19255
32 1 -1.1104 12.6435 -3.6828 1.13538
34 1 -1.1104 12.4006 -3.73591 3.89416
36 1 -1.1104 12.7219 -1.09518 1.06176
37 2 2.2208 11.0955 -2.45969 2.46512
39 1 -1.1104 12.1809 -1.13522 4.09586
40 1 -1.1104 10.0876 -3.90207 0.917329
42 2 2.2208 8.31872 0.426092 2.32156
43 1 -1.1104 9.72677 -3.79006 3.80639
45 2 2.2208 8.16315 -2.26489 5.42457
47 1 -1.1104 9.73843 -1.13487 0.900109
48 1 -1.1104 9.59388 -0.944629 3.5582
210 1 -1.1104 9.69728 -0.770655 6.64006
171 1 -1.1104 6.71078 -1.04871 6.61446
207 1 -1.1104 12.7355 -1.16156 7.02564
30 2 2.2208 -0.207135 8.76235 7.90698
351 2 2.2208 2.40522 5.99001 13.6435
368 2 2.2208 -0.37591 0.268367 -0.182226
81 2 2.2208 -0.338151 6.04375 5.16309
3 1 -1.1104 1.15845 2.0608 1.06007
7 1 -1.1104 1.06395 1.89419 3.77405
13 2 2.2208 5.25703 3.12612 2.46347
17 1 -1.1104 3.89175 1.72055 1.10923
20 1 -1.1104 3.83784 1.76321 3.82907
22 2 2.2208 2.49412 3.12586 5.16936
54 2 2.2208 5.30217 6.24973 5.13317
56 1 -1.1104 0.971645 7.51756 1.06663
58 1 -1.1104 0.923549 7.39926 3.72414
60 1 -1.1104 1.13624 4.84005 0.94189
67 1 -1.1104 1.0331 4.55483 3.76748
71 1 -1.1104 3.7701 7.33395 1.23201
72 2 2.2208 2.41957 6.09642 2.51062
76 1 -1.1104 4.10815 4.56563 0.899921
79 1 -1.1104 3.6994 4.38113 3.74234
74 1 -1.1104 3.88313 7.51768 3.75283
376 2 2.2208 13.6556 11.7066 13.542
8849 2 2.2208 10.9746 -5.19777 10.9097
51 2 2.2208 -0.271289 11.7208 11.0005
333 2 2.2208 13.6401 14.4272 10.7276
63 1 -1.1104 6.73156 4.67518 0.903626
5 1 -1.1104 6.83793 1.99384 0.975723
57 1 -1.1104 6.61908 7.2961 0.928982
59 1 -1.1104 6.80809 7.38943 3.82779
9 1 -1.1104 6.88841 1.67018 3.78157
69 1 -1.1104 6.83869 4.65636 3.6346
33 1 -1.1104 12.1772 1.59558 1.01678
35 1 -1.1104 12.6333 1.56267 3.74935
38 2 2.2208 10.9285 3.11748 2.27249
41 1 -1.1104 9.50643 1.99591 1.03035
44 1 -1.1104 9.65281 1.93314 3.75007
46 2 2.2208 8.23799 3.15982 4.98483
84 2 2.2208 10.9489 6.05923 5.23389
88 1 -1.1104 12.1781 4.55239 0.920952
92 1 -1.1104 12.5125 4.48215 3.85927
95 2 2.2208 8.06351 5.93837 2.36465
99 1 -1.1104 9.53061 4.63068 1.10282
102 1 -1.1104 9.72679 4.55369 3.70037
94 1 -1.1104 9.51139 7.53654 1.01562
97 1 -1.1104 9.33304 7.21752 3.89169
86 1 -1.1104 12.3293 7.35639 0.945239
87 1 -1.1104 12.5467 7.2595 3.59258
267 1 -1.1104 9.60184 7.5439 6.75267
352 2 2.2208 5.24926 8.86272 13.6188
55 2 2.2208 5.23648 11.5152 5.13129
61 1 -1.1104 1.07713 10.2155 0.841711
66 2 2.2208 5.44824 8.79225 2.447
68 1 -1.1104 1.07995 10.2883 3.72805
73 2 2.2208 2.67674 11.5927 2.3439
75 2 2.2208 2.52632 8.8709 5.08442
77 1 -1.1104 3.99464 10.0881 0.927906
80 1 -1.1104 3.967 10.2516 3.60439
107 1 -1.1104 1.23406 12.9634 1.0495
113 1 -1.1104 0.966095 13.0765 3.80963
123 1 -1.1104 4.07718 12.8153 0.982531
128 1 -1.1104 3.87314 12.8569 3.67068
366 2 2.2208 2.55724 3.1954 -0.395179
112 1 -1.1104 6.72819 18.3349 6.52631
370 2 2.2208 8.33957 -2.37439 -0.373691
145 1 -1.1104 12.4879 18.5221 6.17985
8858 2 2.2208 5.56132 -5.21223 -0.0545169
110 1 -1.1104 6.79672 13.1174 1.20497
64 1 -1.1104 6.7723 10.0789 1.03185
115 1 -1.1104 6.61762 13.2412 3.92987
70 1 -1.1104 6.79179 10.1393 3.93188
85 2 2.2208 10.8621 11.5518 5.24552
89 1 -1.1104 12.3242 10.0106 1.18407
91 2 2.2208 10.8957 8.79381 2.39953
93 1 -1.1104 12.3819 10.2787 3.95667
96 2 2.2208 8.25959 11.6183 2.34439
98 2 2.2208 8.32622 8.69762 5.31742
100 1 -1.1104 9.56774 10.0996 1.05444
103 1 -1.1104 9.45329 10.0736 3.91842
142 1 -1.1104 12.3622 12.8597 1.0325
146 1 -1.1104 12.3378 13.1393 3.75845
153 1 -1.1104 9.65738 12.8384 1.07333
158 1 -1.1104 9.62137 12.8905 3.74788
111 1 -1.1104 6.90442 13.0968 6.65299
101 1 -1.1104 9.47053 10.2834 6.51875
90 1 -1.1104 12.2359 10.1462 6.83467
118 1 -1.1104 6.5921 15.6793 6.45502
8840 2 2.2208 5.50138 -5.09867 5.39894
331 2 2.2208 11.0642 17.4106 10.8012
136 2 2.2208 -0.270951 20.064 2.35822
135 2 2.2208 -0.184314 14.5875 2.29695
119 2 2.2208 5.3244 14.5636 2.39583
130 2 2.2208 2.3699 14.57 4.99733
106 2 2.2208 5.19174 17.3305 5.12553
109 1 -1.1104 1.18011 18.5366 0.994741
114 1 -1.1104 0.929346 18.8109 3.65482
116 1 -1.1104 1.13662 15.7336 0.955803
120 2 2.2208 5.3407 20.2011 2.34215
121 1 -1.1104 0.990515 15.98 3.68091
125 1 -1.1104 3.79685 18.5406 0.825229
127 2 2.2208 2.56167 17.3258 2.141
129 1 -1.1104 3.70548 18.5841 3.62519
131 2 2.2208 2.57796 20.0469 5.16215
132 1 -1.1104 3.92785 15.7454 0.685902
134 1 -1.1104 3.75564 15.755 3.63079
126 1 -1.1104 3.94757 18.8948 6.58464
137 2 2.2208 -0.244154 17.3057 5.31122
326 1 -1.1104 12.3923 15.9297 12.183
317 2 2.2208 8.17871 14.5707 10.7389
160 2 2.2208 8.11558 14.3783 5.1802
138 1 -1.1104 6.67408 18.7726 0.801528
140 1 -1.1104 6.68912 16.145 0.975506
139 1 -1.1104 6.5058 18.8015 3.69785
122 1 -1.1104 6.56349 15.9391 3.63384
150 2 2.2208 11.0256 14.4722 2.33232
141 2 2.2208 10.8532 17.1381 5.05881
144 1 -1.1104 12.4687 18.6126 0.651704
147 1 -1.1104 12.256 18.853 3.39822
148 1 -1.1104 12.2396 15.7062 0.831089
151 2 2.2208 10.8629 20.2623 2.36942
152 1 -1.1104 12.1601 16.061 3.76942
155 1 -1.1104 9.52606 18.7515 1.02123
157 2 2.2208 8.07199 17.2151 2.40999
159 1 -1.1104 9.59569 18.7262 3.72162
161 2 2.2208 7.94914 20.0437 5.23807
162 1 -1.1104 9.63409 15.7532 1.04001
164 1 -1.1104 9.31845 15.8157 3.81485
156 1 -1.1104 9.52997 18.647 6.51314
364 2 2.2208 5.5924 0.500637 -0.313918
354 2 2.2208 8.16907 6.0636 13.6742
347 2 2.2208 8.1071 14.408 -0.421249
166 1 -1.1104 1.18524 -3.61299 6.97504
172 1 -1.1104 3.84009 -3.8787 6.68986
149 1 -1.1104 12.477 15.9706 6.48104
174 1 -1.1104 3.78882 -0.930416 6.73366
200 2 2.2208 -0.311893 -2.4841 8.1729
175 2 2.2208 5.30765 0.626069 10.934
176 1 -1.1104 0.819798 -4.13293 12.4808
180 1 -1.1104 0.857163 -3.85795 9.70039
184 1 -1.1104 1.01385 -1.10788 12.2525
186 2 2.2208 5.34986 -2.35059 8.12084
188 1 -1.1104 1.32588 -1.0611 9.46854
190 1 -1.1104 3.73003 -3.77076 12.4483
192 2 2.2208 2.35783 0.496618 8.12705
193 1 -1.1104 4.04865 -3.74762 9.67337
195 2 2.2208 2.55456 -2.4386 11.0217
197 1 -1.1104 3.80669 -0.91648 12.1905
198 1 -1.1104 4.04791 -0.984954 9.55932
201 2 2.2208 -0.405571 0.391299 10.836
163 1 -1.1104 9.50225 15.87 6.50638
316 2 2.2208 8.18839 20.0597 10.8102
306 1 -1.1104 6.77729 15.9861 11.9845
208 1 -1.1104 9.59484 -3.69026 6.56101
168 1 -1.1104 6.81096 -3.58591 6.70051
182 1 -1.1104 6.93409 -3.78889 9.44033
189 1 -1.1104 6.80405 -1.05706 9.57174
205 1 -1.1104 12.4954 -3.86866 6.79031
185 1 -1.1104 6.47624 -0.804403 12.5253
178 1 -1.1104 6.77354 -3.65354 12.349
211 2 2.2208 10.9733 0.336224 10.9735
212 1 -1.1104 12.5216 -4.00943 12.3276
214 1 -1.1104 12.5632 -3.98753 9.43867
216 1 -1.1104 12.2045 -1.20797 12.4521
217 2 2.2208 11.0076 -2.53366 8.19395
219 1 -1.1104 12.5028 -1.01459 9.8295
220 1 -1.1104 9.69639 -3.88446 12.3263
222 2 2.2208 8.21052 0.544105 7.97071
223 1 -1.1104 9.72295 -3.94713 9.38889
225 2 2.2208 8.28646 -2.4437 10.9106
227 1 -1.1104 9.42962 -0.917843 12.4011
228 1 -1.1104 9.74353 -1.11092 9.54518
329 1 -1.1104 12.5317 18.7925 12.0098
8842 2 2.2208 8.32207 -5.27451 2.58989
8846 2 2.2208 5.35206 -5.18289 11.1172
234 1 -1.1104 1.27015 7.4844 6.61
238 1 -1.1104 4.06646 7.47059 6.524
167 1 -1.1104 1.06937 2.17454 6.69327
173 1 -1.1104 3.91354 1.82824 6.84549
199 2 2.2208 -0.39206 3.37429 8.13899
239 1 -1.1104 4.19809 4.69009 6.29061
236 1 -1.1104 1.26274 4.80205 6.41933
177 1 -1.1104 1.20215 1.91649 12.3088
181 1 -1.1104 0.986962 1.76243 9.60922
187 2 2.2208 5.41494 3.33651 8.06425
191 1 -1.1104 3.91642 1.78239 12.4333
194 1 -1.1104 3.81529 2.03111 9.58388
196 2 2.2208 2.48069 3.21576 10.9764
240 2 2.2208 5.35734 6.02296 10.8071
246 1 -1.1104 1.0016 4.56427 12.3027
251 1 -1.1104 0.894605 4.78182 9.27158
255 1 -1.1104 3.89721 7.3262 12.3667
256 2 2.2208 2.60341 6.07513 7.86174
260 1 -1.1104 3.89168 4.59645 12.0613
262 1 -1.1104 3.88013 4.68041 9.31785
258 1 -1.1104 3.91349 7.46192 9.43984
242 1 -1.1104 1.34138 7.44024 12.1554
244 1 -1.1104 1.1281 7.64483 9.48133
314 1 -1.1104 9.56395 15.7581 9.45541
266 1 -1.1104 12.7073 4.23133 6.84138
269 1 -1.1104 9.84412 4.69389 6.77954
235 1 -1.1104 6.67389 7.48306 6.54584
179 1 -1.1104 6.64999 1.91983 12.3573
206 1 -1.1104 12.4181 1.59416 6.69776
209 1 -1.1104 9.50125 1.87291 6.75355
265 1 -1.1104 12.38 7.338 6.33639
169 1 -1.1104 6.58988 1.58915 6.73321
237 1 -1.1104 6.8323 4.37311 6.41053
248 1 -1.1104 6.79607 4.58428 12.1894
245 1 -1.1104 6.86643 7.30188 9.2952
253 1 -1.1104 6.81025 4.8305 9.29284
243 1 -1.1104 6.98043 7.37595 12.1728
183 1 -1.1104 6.68526 2.0132 9.77243
213 1 -1.1104 12.4933 1.73235 12.3178
215 1 -1.1104 12.5093 1.89381 9.33792
218 2 2.2208 11.0257 3.14509 8.02163
221 1 -1.1104 9.63461 1.99786 12.2239
224 1 -1.1104 9.56132 1.74524 9.43332
226 2 2.2208 8.17567 3.27987 10.8394
268 1 -1.1104 9.5174 4.43207 9.35948
271 1 -1.1104 9.52152 4.78298 12.39
275 2 2.2208 8.24678 5.90951 7.98811
276 2 2.2208 10.9615 6.06103 10.7271
279 1 -1.1104 12.3439 7.44958 9.26786
280 1 -1.1104 12.3746 4.58427 12.0261
283 1 -1.1104 12.4032 4.60222 9.42477
285 1 -1.1104 9.81139 7.78041 12.0616
278 1 -1.1104 12.51 7.3549 12.2272
273 1 -1.1104 9.56658 7.17713 9.39991
327 1 -1.1104 12.5727 18.7762 9.21381
108 1 -1.1104 0.954694 12.9703 6.63581
124 1 -1.1104 3.9681 13.1587 6.47321
78 1 -1.1104 3.81652 10.1739 6.5544
62 1 -1.1104 1.10392 10.1678 6.66952
27 2 2.2208 -0.29049 3.34523 2.32031
8847 2 2.2208 -0.394578 -5.25666 10.9143
241 2 2.2208 5.26271 11.7471 10.7613
247 1 -1.1104 0.984481 10.145 12.5351
250 2 2.2208 5.32892 8.80333 8.07317
252 1 -1.1104 1.20275 10.2987 9.68896
257 2 2.2208 2.41399 11.566 8.04992
259 2 2.2208 2.46609 8.82086 10.8894
261 1 -1.1104 3.7401 10.3602 12.305
263 1 -1.1104 3.92528 10.5087 9.32211
294 1 -1.1104 1.11476 13.0119 9.65416
287 1 -1.1104 3.67821 13.0022 12.1785
299 1 -1.1104 0.929582 13.0989 12.3839
305 1 -1.1104 4.04888 13.3394 9.46526
143 1 -1.1104 12.3948 13.0686 6.51824
65 1 -1.1104 6.8008 10.1292 6.75546
254 1 -1.1104 6.59436 10.1827 9.41289
297 1 -1.1104 6.73812 13.1296 12.1738
290 1 -1.1104 6.82657 13.1384 9.40562
249 1 -1.1104 6.61607 10.286 12.1424
154 1 -1.1104 9.60516 12.9251 6.6479
319 1 -1.1104 9.6377 13.1083 9.28665
264 1 -1.1104 9.46336 10.3352 9.42826
270 1 -1.1104 9.33396 10.4754 12.0469
272 2 2.2208 8.08089 8.87896 10.74
274 2 2.2208 8.08946 11.7101 7.97117
277 2 2.2208 10.9635 11.7774 10.8058
281 1 -1.1104 12.2596 10.3013 12.0944
282 2 2.2208 10.8281 8.82817 8.12421
284 1 -1.1104 12.4509 10.223 9.43948
330 1 -1.1104 12.3053 13.0295 12.174
328 1 -1.1104 12.5076 12.8881 9.36602
322 1 -1.1104 9.51128 13.1623 12.2499
133 1 -1.1104 3.82886 16.0912 6.53733
117 1 -1.1104 1.15262 15.8886 6.60495
289 1 -1.1104 6.8397 15.7609 9.16159
232 2 2.2208 13.6022 8.7776 5.27786
324 2 2.2208 10.8723 19.8926 7.91568
302 1 -1.1104 1.26233 18.5883 6.73744
8848 2 2.2208 8.3067 -5.21239 7.91764
292 1 -1.1104 0.866691 15.764 9.59018
307 1 -1.1104 1.15001 15.8421 12.3546
310 2 2.2208 2.38243 14.5453 10.7497
295 2 2.2208 5.33092 14.5339 7.8495
304 1 -1.1104 3.73426 16.1003 9.31443
298 1 -1.1104 0.974111 18.6538 12.2958
301 1 -1.1104 3.94925 18.6955 9.59353
291 1 -1.1104 1.11347 18.7386 9.44001
300 2 2.2208 5.28941 17.2861 10.8038
286 1 -1.1104 3.79583 18.8282 12.2192
293 2 2.2208 5.3944 19.8507 8.1472
303 2 2.2208 2.4828 17.2826 7.98615
309 2 2.2208 2.46934 20.248 11.0126
308 1 -1.1104 3.94447 15.8127 12.0773
288 1 -1.1104 6.85576 18.4629 9.28501
325 2 2.2208 11.0717 14.3227 7.94449
315 1 -1.1104 9.72674 16.0471 12.2909
320 2 2.2208 8.28564 17.1044 7.92584
321 1 -1.1104 9.71883 18.7108 12.3844
323 1 -1.1104 12.1847 15.8752 9.18553
318 1 -1.1104 9.61454 18.5918 9.52177
353 2 2.2208 2.37534 11.6758 13.6511
383 2 2.2208 -0.357377 6.11491 -0.432461
365 2 2.2208 2.71997 -2.44419 -0.192033
358 2 2.2208 5.32429 20.1573 13.5857
386 2 2.2208 10.9799 11.5392 -0.284976
312 2 2.2208 -0.436558 17.1894 10.8822
384 2 2.2208 11.0447 6.2003 -0.410366
362 2 2.2208 8.14731 17.3054 13.502
372 2 2.2208 8.27866 3.30982 -0.323608
385 2 2.2208 8.01757 8.71549 -0.420247
165 2 2.2208 13.602 17.2562 2.18368
356 2 2.2208 8.02491 11.8395 13.4998
313 2 2.2208 -0.250417 14.5786 8.04164
355 2 2.2208 10.9405 9.12427 13.5691
381 2 2.2208 5.41134 11.4583 -0.40377
311 2 2.2208 -0.209682 20.119 8.07805
379 2 2.2208 5.17439 6.00613 -0.399891
373 2 2.2208 2.59216 14.2531 -0.433047
369 2 2.2208 10.9405 0.385045 -0.408503
367 2 2.2208 -0.336684 8.66507 13.6336
380 2 2.2208 2.39592 8.75495 -0.38452
388 2 2.2208 5.3514 0.38844 16.7127
389 1 -1.1104 1.07377 -3.87859 18.1714
393 1 -1.1104 1.11733 -3.81771 15.3158
401 1 -1.1104 1.27231 -1.11667 18.0066
403 2 2.2208 5.34757 -2.32935 19.3719
405 1 -1.1104 1.12939 -0.902568 15.0357
409 1 -1.1104 3.98001 -3.91945 18.022
411 2 2.2208 2.51931 0.246377 19.4211
412 1 -1.1104 3.93861 -4.03881 15.13
416 2 2.2208 2.63872 -2.69951 16.6773
418 1 -1.1104 4.00704 -0.911814 17.9427
419 1 -1.1104 3.80886 -1.14868 15.1982
339 2 2.2208 2.46082 0.291065 13.6968
425 2 2.2208 -0.411433 -2.40085 19.5392
8908 2 2.2208 5.09849 -5.19407 22.2779
341 2 2.2208 5.28381 3.20188 13.7319
357 2 2.2208 2.26691 17.3067 13.7362
619 2 2.2208 13.6465 14.6697 16.467
8904 2 2.2208 8.16529 -5.26537 25.0473
407 1 -1.1104 6.67961 -0.821476 15.1688
402 1 -1.1104 6.58221 -0.991535 18.0352
391 1 -1.1104 6.72695 -3.6765 17.7359
397 1 -1.1104 6.80217 -3.89537 15.0399
431 2 2.2208 10.8477 0.595866 16.4085
432 1 -1.1104 12.2497 -3.78419 17.8394
434 1 -1.1104 12.3987 -3.89366 15.0407
438 1 -1.1104 12.2931 -1.02708 17.732
439 2 2.2208 11.0231 -2.40416 19.1244
441 1 -1.1104 12.463 -0.703967 15.1081
443 1 -1.1104 9.38438 -4.02263 17.8357
445 2 2.2208 8.13774 0.288895 19.3186
446 1 -1.1104 9.59266 -3.85877 15.1258
450 2 2.2208 8.18613 -2.46551 16.4805
452 1 -1.1104 9.54096 -1.06696 17.9051
453 1 -1.1104 9.51483 -0.914007 15.3032
456 2 2.2208 -0.403613 17.2985 16.566
435 1 -1.1104 12.4435 -3.79424 20.6572
442 1 -1.1104 12.2966 -0.741149 20.5371
454 1 -1.1104 9.66195 -1.05343 20.7668
342 2 2.2208 -0.275991 14.6847 13.7503
390 1 -1.1104 1.15323 1.67322 18.0412
395 1 -1.1104 0.936328 1.69208 15.1492
404 2 2.2208 5.22908 3.29554 19.4377
410 1 -1.1104 3.59861 1.80535 18.071
414 1 -1.1104 3.74472 1.58704 15.3031
417 2 2.2208 2.45415 3.15131 16.6223
464 2 2.2208 5.27488 6.11895 16.4943
466 1 -1.1104 1.09105 7.11247 17.8696
468 1 -1.1104 0.955078 7.37573 15.1253
472 1 -1.1104 0.860108 4.58298 17.945
477 1 -1.1104 1.17842 4.33664 15.2463
486 2 2.2208 2.41591 5.84988 19.2724
491 1 -1.1104 3.90817 4.42534 17.8547
493 1 -1.1104 3.89178 4.49174 15.1297
488 1 -1.1104 3.68312 7.35999 15.0705
485 1 -1.1104 4.18937 7.20666 17.9855
621 2 2.2208 -0.365304 6.00713 16.4018
427 2 2.2208 -0.349266 3.25752 19.3005
8942 2 2.2208 -0.313063 -5.1899 22.1528
350 2 2.2208 10.8726 3.23561 13.8167
335 2 2.2208 -0.249093 20.2568 13.8444
481 1 -1.1104 6.75037 4.5725 15.0712
470 1 -1.1104 6.53791 7.40286 14.95
474 1 -1.1104 6.59854 4.62633 17.9826
399 1 -1.1104 6.62978 1.87548 15.3226
392 1 -1.1104 6.5873 1.86166 18.125
433 1 -1.1104 12.0723 1.87689 18.0539
436 1 -1.1104 12.4074 1.93626 15.0705
440 2 2.2208 10.8369 3.28106 19.3592
444 1 -1.1104 9.34117 1.75628 17.8321
448 1 -1.1104 9.49188 1.74797 14.8942
451 2 2.2208 7.94868 3.28097 16.5712
500 2 2.2208 11.0549 6.2271 16.5343
502 1 -1.1104 12.343 7.53212 17.7647
505 1 -1.1104 12.6721 4.91903 17.7238
508 1 -1.1104 12.3069 4.68047 15.1422
513 2 2.2208 7.89482 5.9782 19.4178
515 1 -1.1104 9.4748 7.55191 14.936
518 1 -1.1104 9.36102 4.50463 17.9966
520 1 -1.1104 9.51635 4.69385 15.2341
503 1 -1.1104 12.3595 7.65515 14.9647
512 1 -1.1104 9.51818 7.31345 17.7848
467 1 -1.1104 6.73586 7.48975 17.8414
421 2 2.2208 -0.324695 5.99829 22.2577
8943 2 2.2208 8.25722 -5.24414 19.4825
338 2 2.2208 5.20072 -2.50898 13.8438
465 2 2.2208 5.3445 11.899 16.4966
473 1 -1.1104 0.951994 10.1278 18.0301
476 2 2.2208 5.22449 8.85716 19.1777
479 1 -1.1104 0.933984 10.176 15.2471
487 2 2.2208 2.41637 11.6022 19.2813
490 2 2.2208 2.31089 8.8644 16.5282
492 1 -1.1104 3.60924 9.99925 17.9231
495 1 -1.1104 3.71877 10.3536 15.3049
528 1 -1.1104 1.03915 12.963 17.8872
532 1 -1.1104 1.06507 13.1039 15.0433
548 1 -1.1104 4.05449 13.1866 17.928
551 1 -1.1104 3.76809 13.1132 15.0997
622 2 2.2208 -0.354481 8.60997 19.2762
646 2 2.2208 -0.300923 14.5273 24.9771
496 1 -1.1104 3.7913 10.2893 20.6781
8862 2 2.2208 8.24727 -5.25864 13.6697
536 1 -1.1104 6.75482 13.1407 14.8724
475 1 -1.1104 6.53248 10.3692 17.9403
530 1 -1.1104 6.88197 13.1418 17.8466
483 1 -1.1104 6.63132 10.3284 15.2074
501 2 2.2208 11.1025 11.6904 16.3309
506 1 -1.1104 12.5125 10.3411 17.7548
507 2 2.2208 11.0187 8.8689 19.2132
510 1 -1.1104 12.2578 10.5834 14.8104
514 2 2.2208 8.17305 11.6565 19.2394
517 2 2.2208 8.05343 8.86429 16.4396
519 1 -1.1104 9.5186 10.2095 17.784
522 1 -1.1104 9.54687 10.1103 14.921
564 1 -1.1104 12.2721 13.0488 17.8736
566 1 -1.1104 12.4933 13.2596 14.888
575 1 -1.1104 9.68794 13.181 17.5756
578 1 -1.1104 9.53306 13.0356 14.9812
616 2 2.2208 8.19599 20.0201 22.0678
525 2 2.2208 11.0186 14.4343 25.1061
343 2 2.2208 8.01303 0.339504 13.8531
555 2 2.2208 2.35997 14.3446 16.4854
542 2 2.2208 5.3346 14.5664 19.4363
527 2 2.2208 5.44509 17.1856 16.3326
529 1 -1.1104 0.937617 18.5884 17.9816
534 1 -1.1104 1.09057 18.7567 14.9926
540 1 -1.1104 1.08859 15.5823 17.9035
543 2 2.2208 5.21282 20.176 19.1838
544 1 -1.1104 1.05547 15.9414 15.1123
549 1 -1.1104 3.45079 18.8146 17.8836
550 2 2.2208 2.46201 17.3453 19.3264
553 1 -1.1104 3.84847 18.5617 15.0831
556 2 2.2208 2.46806 20.1771 16.4333
557 1 -1.1104 3.94131 16.0247 17.8346
558 1 -1.1104 3.79191 15.7858 14.9437
375 2 2.2208 2.61441 20.0693 27.7277
458 2 2.2208 -0.363522 20.0469 19.3218
559 1 -1.1104 4.13881 15.9428 20.7239
680 1 -1.1104 6.49289 15.8396 23.6634
428 2 2.2208 13.6428 0.525807 19.247
382 2 2.2208 -0.339457 11.55 27.7449
8973 2 2.2208 2.46042 -5.16356 19.5459
424 2 2.2208 -0.173242 0.444727 16.6725
8907 2 2.2208 2.45562 -5.25713 25.2445
349 2 2.2208 8.17914 20.1897 27.6265
541 1 -1.1104 6.70493 16.0493 17.9187
531 1 -1.1104 6.53047 18.8142 17.8133
546 1 -1.1104 6.82034 15.9638 14.9458
538 1 -1.1104 6.97097 18.8392 15.0425
582 2 2.2208 8.12524 14.5805 16.5044
571 2 2.2208 10.9533 14.4013 19.1785
563 2 2.2208 11.1463 17.4461 16.455
565 1 -1.1104 12.4341 18.6313 17.7008
568 1 -1.1104 12.451 18.8114 15.0639
570 1 -1.1104 12.2356 15.9361 17.8304
572 2 2.2208 10.871 20.0063 19.2447
573 1 -1.1104 12.3704 15.9897 14.8307
576 1 -1.1104 9.488 18.7472 18.2504
577 2 2.2208 8.20963 17.2286 19.3625
580 1 -1.1104 9.71973 18.6415 15.2674
583 2 2.2208 8.10436 20.1024 16.5338
584 1 -1.1104 9.58413 16.0844 17.9213
585 1 -1.1104 9.55416 15.6892 14.9291
539 1 -1.1104 6.84318 18.6421 20.5512
547 1 -1.1104 6.90165 15.7208 20.6157
714 1 -1.1104 6.90478 15.6102 26.44
394 1 -1.1104 1.05901 -3.64544 20.8671
420 1 -1.1104 3.88503 -1.13764 20.7795
406 1 -1.1104 1.03778 -1.02349 21.0304
413 1 -1.1104 4.15385 -3.88099 20.7396
625 2 2.2208 -0.440947 0.475897 22.2122
591 2 2.2208 5.20814 0.44802 22.3302
592 1 -1.1104 1.08561 -3.94959 23.7354
596 1 -1.1104 1.10716 -3.83056 26.8186
600 1 -1.1104 1.16581 -1.08853 23.9384
602 2 2.2208 5.27415 -2.65328 25.0339
604 1 -1.1104 1.08847 -1.06282 26.615
606 1 -1.1104 3.72623 -3.70785 23.6475
608 2 2.2208 2.64586 0.603349 25.1666
609 1 -1.1104 3.97632 -3.92262 26.5979
611 2 2.2208 2.53517 -2.31548 22.3468
613 1 -1.1104 3.968 -0.949868 23.7422
614 1 -1.1104 3.89714 -1.01763 26.5918
624 2 2.2208 -0.219865 -2.56432 25.0873
497 1 -1.1104 12.6063 18.5663 23.4093
408 1 -1.1104 6.68357 -0.858344 20.7593
588 1 -1.1104 6.76611 18.5561 26.1188
447 1 -1.1104 9.94374 -4.04018 20.5331
398 1 -1.1104 6.69855 -3.82689 20.9495
598 1 -1.1104 6.77585 -3.64052 26.3044
605 1 -1.1104 6.86319 -0.980842 26.5293
594 1 -1.1104 6.79979 -4.10281 23.5334
601 1 -1.1104 6.67878 -1.04357 23.5104
627 2 2.2208 10.9268 0.41565 22.1624
628 1 -1.1104 12.3162 -3.88934 23.6227
630 1 -1.1104 12.5158 -3.69947 26.436
632 1 -1.1104 12.3788 -1.14378 23.6705
633 2 2.2208 11.0358 -2.44595 24.905
635 1 -1.1104 12.4685 -0.824773 26.2764
636 1 -1.1104 9.54844 -3.90127 23.3321
638 2 2.2208 8.14211 0.230233 24.9567
639 1 -1.1104 9.60117 -3.81864 26.3166
641 2 2.2208 8.02116 -2.51886 22.0487
643 1 -1.1104 9.60373 -0.901998 23.4511
644 1 -1.1104 9.66735 -1.005 26.3444
396 1 -1.1104 1.07106 1.69021 21.0178
494 1 -1.1104 3.80835 4.47923 20.8447
489 1 -1.1104 3.71758 7.53929 20.6497
469 1 -1.1104 1.04318 7.16474 20.7711
478 1 -1.1104 0.929261 4.36304 20.8735
587 2 2.2208 7.9754 17.2487 24.9135
415 1 -1.1104 3.66275 1.56674 20.9295
593 1 -1.1104 1.12673 1.67523 23.8565
597 1 -1.1104 1.2134 1.95295 26.4896
603 2 2.2208 5.40736 3.38653 24.9479
607 1 -1.1104 4.03481 1.84355 23.8258
610 1 -1.1104 4.11821 1.79929 26.6794
612 2 2.2208 2.44164 2.99726 22.3682
656 2 2.2208 5.3565 6.07533 22.0825
660 1 -1.1104 1.03724 7.49914 26.4098
662 1 -1.1104 1.10298 4.59731 23.7353
667 1 -1.1104 1.00354 4.80979 26.4747
672 2 2.2208 2.55672 5.85983 25.0643
674 1 -1.1104 3.97491 7.33264 26.3488
676 1 -1.1104 3.9651 4.56303 23.6742
678 1 -1.1104 3.93352 4.58082 26.4207
658 1 -1.1104 1.08223 7.59175 23.7202
671 1 -1.1104 3.76462 7.31784 23.6437
626 2 2.2208 -0.380806 3.38202 25.1387
482 1 -1.1104 6.57792 4.62029 20.6489
471 1 -1.1104 6.52261 7.44216 20.4739
521 1 -1.1104 9.41913 4.65752 20.8447
504 1 -1.1104 12.5725 7.69695 20.6451
400 1 -1.1104 6.57508 1.94394 20.925
449 1 -1.1104 9.56364 1.75494 20.7671
509 1 -1.1104 12.4648 4.89085 20.5941
437 1 -1.1104 12.4345 1.94206 20.6866
669 1 -1.1104 6.75979 4.83262 26.3544
664 1 -1.1104 6.63487 4.54516 23.4098
661 1 -1.1104 6.74476 7.34973 26.262
595 1 -1.1104 6.67396 1.7521 23.8513
599 1 -1.1104 6.87082 1.94556 26.5002
659 1 -1.1104 6.70816 7.22709 23.3949
516 1 -1.1104 9.70641 7.6985 20.7237
629 1 -1.1104 12.2106 1.71795 23.486
631 1 -1.1104 12.5767 2.04374 26.2621
634 2 2.2208 11.0345 3.26039 24.9804
637 1 -1.1104 9.45407 1.79265 23.7808
640 1 -1.1104 9.71494 1.83292 26.5527
642 2 2.2208 8.0996 3.06409 22.2901
688 1 -1.1104 9.54567 4.66242 26.4328
690 1 -1.1104 9.39957 4.62332 23.5298
694 2 2.2208 8.2292 6.01859 24.9754
695 2 2.2208 10.8877 6.14021 22.17
697 1 -1.1104 12.3737 7.23828 23.4631
699 1 -1.1104 12.6491 4.50137 23.5651
702 1 -1.1104 12.2428 4.71384 26.4012
704 1 -1.1104 9.57714 7.43151 23.586
698 1 -1.1104 12.4322 7.2996 26.1891
692 1 -1.1104 9.55328 7.39778 26.4285
524 1 -1.1104 12.23 15.9611 23.6737
480 1 -1.1104 1.11584 9.91391 20.9462
552 1 -1.1104 3.72573 13.0871 20.5757
684 2 2.2208 -0.347668 8.81026 25.0596
560 1 -1.1104 12.4228 15.9242 26.3957
533 1 -1.1104 0.808521 12.6987 20.7548
657 2 2.2208 5.19995 11.5087 22.0529
663 1 -1.1104 0.987654 10.2038 23.7014
666 2 2.2208 5.33751 8.83908 25.1012
668 1 -1.1104 1.0703 10.0337 26.4512
673 2 2.2208 2.53063 11.4327 24.895
675 2 2.2208 2.5118 8.84737 22.1924
677 1 -1.1104 4.00211 10.1219 23.4913
679 1 -1.1104 3.93039 10.1166 26.3792
681 1 -1.1104 3.77034 13.1296 26.3135
706 1 -1.1104 1.0992 13.2317 23.484
713 1 -1.1104 3.72655 12.7661 23.3001
717 1 -1.1104 1.0906 12.9893 26.3159
567 1 -1.1104 12.2233 13.0648 20.8396
484 1 -1.1104 6.82692 10.3061 20.689
579 1 -1.1104 9.5466 12.9248 20.4484
523 1 -1.1104 9.39921 10.3012 20.665
709 1 -1.1104 6.49317 12.9685 23.2741
511 1 -1.1104 12.3106 10.4953 20.5475
670 1 -1.1104 6.68986 10.2603 26.5325
665 1 -1.1104 6.862 10.0392 23.7301
712 1 -1.1104 6.61562 12.8013 26.3458
537 1 -1.1104 6.64999 12.9868 20.5783
463 1 -1.1104 12.2918 12.8945 23.5523
687 1 -1.1104 9.32318 10.1837 26.4246
689 1 -1.1104 9.57253 10.1689 23.5326
691 2 2.2208 8.08617 8.87439 21.9274
693 2 2.2208 8.1751 11.5579 25.0075
696 2 2.2208 10.8712 11.6189 22.1567
700 1 -1.1104 12.2997 10.0203 23.5447
701 2 2.2208 10.87 8.7229 24.9363
703 1 -1.1104 12.3943 10.2343 26.598
498 1 -1.1104 12.3052 12.9406 26.4797
589 1 -1.1104 9.36119 12.8782 26.4448
561 1 -1.1104 9.40409 13.1286 23.5957
535 1 -1.1104 0.924597 18.6228 20.8448
545 1 -1.1104 1.0102 15.709 20.4425
554 1 -1.1104 4.06921 18.5776 20.7182
337 2 2.2208 -0.145116 3.19629 13.9164
334 2 2.2208 -0.27082 -2.4359 13.8223
647 2 2.2208 2.38939 14.4185 22.1268
720 2 2.2208 5.09803 14.4171 25.0081
707 1 -1.1104 1.22814 18.6751 23.4684
705 2 2.2208 5.28592 17.2586 22.0092
686 1 -1.1104 4.13701 18.8208 26.2495
683 2 2.2208 2.53918 17.4584 24.9626
719 2 2.2208 5.36291 20.1295 24.9631
716 1 -1.1104 0.982515 16.1007 26.4763
682 1 -1.1104 3.95666 16.0902 26.3168
715 1 -1.1104 1.12238 18.8359 26.3208
655 1 -1.1104 0.964533 16.0272 23.4403
711 1 -1.1104 4.14925 18.6798 23.4676
652 1 -1.1104 3.70379 15.7493 23.5735
649 2 2.2208 2.49318 19.9207 22.1048
526 2 2.2208 10.9044 20.0442 24.9301
574 1 -1.1104 12.3122 15.7452 20.645
586 1 -1.1104 9.70725 15.7299 20.7503
581 1 -1.1104 9.60645 18.4729 20.9756
569 1 -1.1104 12.318 18.5545 20.6579
617 1 -1.1104 9.35544 15.7894 23.7184
562 1 -1.1104 9.39907 18.4746 23.608
590 1 -1.1104 9.55301 18.6689 26.2298
499 1 -1.1104 12.1807 18.4499 26.1482
462 2 2.2208 10.8954 16.9704 22.297
718 1 -1.1104 6.64869 18.749 23.5474
620 1 -1.1104 9.62027 15.7036 26.5108
615 2 2.2208 8.00007 14.2757 22.2499
346 2 2.2208 11.0245 -2.46565 13.8856
361 2 2.2208 10.9808 14.5605 13.7063
360 2 2.2208 10.959 20.0858 13.8787
374 2 2.2208 5.41716 17.2976 27.7204
348 2 2.2208 10.9597 17.2208 27.7514
359 2 2.2208 5.20645 14.5656 13.6731
721 2 2.2208 5.31418 22.9238 5.16753
723 1 -1.1104 1.00691 24.386 0.908809
724 1 -1.1104 1.2995 24.1044 3.71748
725 1 -1.1104 1.07648 21.4084 0.696734
727 2 2.2208 5.3043 25.633 2.22286
728 1 -1.1104 1.17677 21.2629 3.93175
730 1 -1.1104 3.74938 24.225 0.987094
731 2 2.2208 2.46271 22.764 2.202
733 1 -1.1104 3.73064 24.3348 3.60971
734 2 2.2208 2.41594 25.709 4.96503
735 1 -1.1104 4.21504 21.388 0.85296
737 1 -1.1104 3.90742 21.3843 3.62987
726 1 -1.1104 1.09899 27.1407 1.03855
870 1 -1.1104 3.77217 27.1641 6.44526
1054 2 2.2208 2.83183 34.1255 13.5329
736 1 -1.1104 3.85992 27.0314 0.867161
1061 2 2.2208 2.46022 37.0694 -0.417334
1643 1 -1.1104 9.81795 46.7559 12.3878
10183 2 2.2208 -0.188108 34.0063 10.679
746 1 -1.1104 6.82065 21.5378 4.03434
745 1 -1.1104 6.73217 27.3589 0.9928
743 1 -1.1104 6.55449 24.3036 3.85309
866 1 -1.1104 6.76517 21.3657 6.59225
742 1 -1.1104 6.82936 24.3822 0.921367
744 1 -1.1104 6.74352 21.4503 1.07036
748 2 2.2208 11.0459 22.8704 5.16824
750 1 -1.1104 12.286 24.5401 0.746858
751 1 -1.1104 12.4197 24.2531 3.79616
752 1 -1.1104 12.4817 21.7201 0.872651
754 2 2.2208 11.0154 25.733 2.37727
755 1 -1.1104 12.4094 21.6486 3.86555
757 1 -1.1104 9.56826 24.3341 0.99162
758 2 2.2208 8.20878 23.0307 2.51834
760 1 -1.1104 9.35883 24.4078 3.98459
761 2 2.2208 8.0812 25.7903 5.14096
762 1 -1.1104 9.64183 21.6142 0.951237
764 1 -1.1104 9.70826 21.6246 3.73745
753 1 -1.1104 12.365 27.3096 0.859603
756 1 -1.1104 12.3567 27.1285 3.87404
763 1 -1.1104 9.42844 27.0827 0.912707
765 1 -1.1104 9.30773 27.3285 3.85788
896 1 -1.1104 12.5802 21.3506 6.62373
895 1 -1.1104 12.292 24.2196 6.64012
898 1 -1.1104 9.71411 24.0429 6.62841
863 1 -1.1104 6.82831 24.476 6.47815
897 1 -1.1104 12.199 27.0058 6.41975
738 1 -1.1104 3.91538 27.0858 3.94793
729 1 -1.1104 1.05429 27.1465 3.73516
1010 2 2.2208 10.8009 28.8275 -0.265534
747 1 -1.1104 6.53899 27.0887 3.86619
722 2 2.2208 5.32299 28.5908 5.21332
732 2 2.2208 2.40336 28.5522 2.3203
770 1 -1.1104 1.08423 30.0308 1.20149
773 1 -1.1104 1.00894 29.8654 3.89528
776 1 -1.1104 1.27111 32.851 0.772486
777 2 2.2208 5.08813 31.4166 2.25081
779 1 -1.1104 0.888934 32.941 3.86352
781 1 -1.1104 3.77995 29.9725 0.910024
784 1 -1.1104 3.71999 29.8561 3.80146
786 2 2.2208 2.38607 31.2666 5.32922
788 1 -1.1104 4.05047 33.0154 1.1188
789 1 -1.1104 3.59609 32.6892 3.8162
1050 2 2.2208 5.68621 37.0818 13.565
923 1 -1.1104 1.08435 32.736 6.6226
927 1 -1.1104 3.93051 32.5399 6.72517
867 1 -1.1104 6.43633 27.3838 6.80735
795 1 -1.1104 6.94701 32.7711 0.864055
794 1 -1.1104 6.38509 29.9686 3.74102
793 1 -1.1104 6.76867 30.1415 0.923516
780 1 -1.1104 6.53657 32.9072 3.65768
749 2 2.2208 11.0442 28.7963 5.14566
759 2 2.2208 7.90544 28.6168 2.48424
797 1 -1.1104 12.176 30.185 0.837766
799 1 -1.1104 12.4008 29.8806 3.55696
801 1 -1.1104 12.1895 33.0287 0.811952
802 2 2.2208 10.6961 31.5949 2.3467
804 1 -1.1104 11.9128 32.9893 3.65501
805 1 -1.1104 9.37903 29.9562 1.01626
808 1 -1.1104 9.29337 30.1178 3.81278
810 2 2.2208 7.97093 31.5091 5.28011
812 1 -1.1104 9.39537 32.934 1.09143
813 1 -1.1104 9.28562 32.9876 3.81518
958 1 -1.1104 9.28718 33.0633 6.50318
953 1 -1.1104 12.2659 29.8491 6.77712
956 1 -1.1104 9.47708 29.8078 6.51825
955 1 -1.1104 11.9538 32.4381 6.10357
741 2 2.2208 -0.375406 22.9367 5.17854
10177 2 2.2208 -0.26452 39.9185 10.9133
769 2 2.2208 5.32631 34.2249 5.31353
771 1 -1.1104 1.19679 35.502 1.03582
774 1 -1.1104 1.0855 35.8728 3.74979
778 2 2.2208 5.30702 37.1958 2.41738
782 1 -1.1104 3.93002 35.7945 1.0204
783 2 2.2208 2.56491 34.2741 2.44649
785 1 -1.1104 3.94876 35.4858 3.8679
787 2 2.2208 2.42807 36.9976 5.12454
821 1 -1.1104 0.954716 38.4363 0.851516
826 1 -1.1104 0.970319 38.4486 3.69647