ITEM: TIMESTEP
30000
ITEM: NUMBER OF ATOMS
17700
ITEM: BOX BOUNDS pp pp pp
-4.4836163943316271e-01 2.7788361639433585e+01
-5.2847199686695712e+00 3.3336471996867141e+02
-4.5337971608365840e-01 2.7793379716083969e+01
ITEM: ATOMS id type q x y z
1 2 2.2208 5.61774 0.602371 5.29732
2 1 -1.1104 1.7062 -3.76751 1.15784
6 1 -1.1104 1.29185 -3.72876 4.01484
10 1 -1.1104 1.5364 -1.10711 1.06391
12 2 2.2208 5.70312 -2.20539 2.40434
14 1 -1.1104 1.26125 -0.888519 4.03527
16 1 -1.1104 4.61429 -3.62096 0.912305
18 2 2.2208 2.86283 0.448152 2.56048
19 1 -1.1104 4.25783 -3.84885 3.7577
21 2 2.2208 2.75635 -2.3125 5.37468
23 1 -1.1104 4.32844 -0.9297 0.983784
24 1 -1.1104 4.04692 -0.814392 4.02706
4 1 -1.1104 7.17504 -3.60056 1.0577
11 1 -1.1104 7.18441 -0.910687 1.06857
166 1 -1.1104 1.37228 -3.60656 6.76992
15 1 -1.1104 6.92632 -0.829554 3.8396
8860 2 2.2208 -0.00143324 -5.27754 -0.364031
8848 2 2.2208 8.59872 -5.03588 8.11842
369 2 2.2208 11.5244 0.399225 -0.316428
8845 2 2.2208 2.65868 -5.08001 8.45895
8840 2 2.2208 5.61846 -5.13662 5.37195
8 1 -1.1104 7.09414 -3.57591 4.03268
31 2 2.2208 11.0548 0.438576 5.3608
32 1 -1.1104 12.8359 -3.96207 1.2041
34 1 -1.1104 12.5803 -3.68282 3.90172
36 1 -1.1104 12.7796 -1.07456 1.11785
37 2 2.2208 11.2111 -2.4205 2.57948
39 1 -1.1104 12.6519 -0.942813 3.78334
40 1 -1.1104 9.66471 -3.46913 1.17774
42 2 2.2208 8.41564 0.694277 2.46122
43 1 -1.1104 9.77241 -3.93143 3.90725
45 2 2.2208 8.38536 -2.25777 5.35789
47 1 -1.1104 9.86293 -0.758995 1.10811
48 1 -1.1104 9.79848 -1.01032 3.87082
81 2 2.2208 -0.178909 6.14805 5.1728
368 2 2.2208 -0.143707 0.451014 -0.446735
201 2 2.2208 0.151259 0.564469 10.8106
381 2 2.2208 5.67729 11.6015 -0.387209
135 2 2.2208 -0.265693 14.5486 2.36482
3 1 -1.1104 1.35845 1.67166 1.15462
7 1 -1.1104 1.6022 1.76054 3.8393
13 2 2.2208 5.60609 3.33854 2.46826
17 1 -1.1104 4.16753 1.95604 0.91254
20 1 -1.1104 4.28516 1.96164 3.75744
22 2 2.2208 2.64776 3.28061 5.21961
54 2 2.2208 5.54913 6.30332 5.22463
56 1 -1.1104 1.17028 7.34811 1.11932
58 1 -1.1104 1.13512 7.51217 3.82666
60 1 -1.1104 1.14595 4.57696 0.910776
67 1 -1.1104 1.16615 4.65966 3.68636
71 1 -1.1104 4.09348 7.50404 1.10562
72 2 2.2208 2.60585 5.9448 2.25703
74 1 -1.1104 4.07195 7.5938 4.02642
76 1 -1.1104 3.9448 4.66134 1.0083
79 1 -1.1104 4.05337 4.72446 3.76361
9 1 -1.1104 6.98006 1.95517 3.88196
167 1 -1.1104 1.02856 2.01432 6.63783
239 1 -1.1104 4.08136 4.84318 6.24111
236 1 -1.1104 1.20675 4.66433 6.71438
8854 2 2.2208 11.2532 -4.99788 -0.207017
169 1 -1.1104 7.04205 1.82623 6.7285
234 1 -1.1104 1.46542 7.76843 6.72773
8841 2 2.2208 -0.0568051 -5.05869 5.20818
63 1 -1.1104 6.92881 4.82273 1.29981
57 1 -1.1104 6.98949 7.62624 0.892868
59 1 -1.1104 7.10992 7.53045 3.86975
5 1 -1.1104 7.00214 1.89189 0.961152
69 1 -1.1104 7.02731 4.68908 3.83844
326 1 -1.1104 12.8078 16.0383 12.3061
33 1 -1.1104 12.7444 1.84859 1.27079
35 1 -1.1104 12.4553 2.04634 3.96979
38 2 2.2208 11.1755 3.38971 2.48849
41 1 -1.1104 9.88203 1.92536 0.998384
44 1 -1.1104 9.64026 1.92619 3.9292
46 2 2.2208 8.24305 3.27577 5.39824
84 2 2.2208 11.3233 6.23199 5.21233
88 1 -1.1104 12.4199 4.52579 0.986102
92 1 -1.1104 12.682 4.82084 3.91162
95 2 2.2208 8.54442 6.17987 2.55377
99 1 -1.1104 9.57314 4.78614 0.975616
102 1 -1.1104 9.93513 4.68428 3.75458
87 1 -1.1104 12.8619 7.53781 3.70582
94 1 -1.1104 9.83009 7.53186 1.05242
97 1 -1.1104 10.0444 7.50159 3.864
86 1 -1.1104 12.6364 7.53816 0.978715
265 1 -1.1104 12.6153 7.58265 6.85542
269 1 -1.1104 9.69396 4.59407 6.83079
200 2 2.2208 -0.156412 -2.2797 8.22282
55 2 2.2208 5.44681 11.9927 5.04881
61 1 -1.1104 1.31011 10.0424 1.00549
66 2 2.2208 5.65129 8.89882 2.47107
68 1 -1.1104 1.23466 10.1658 3.8101
73 2 2.2208 2.50866 11.6815 2.34709
75 2 2.2208 2.9366 9.00075 5.35056
77 1 -1.1104 4.33174 10.3729 1.04206
80 1 -1.1104 4.0674 10.3255 3.85304
107 1 -1.1104 1.36396 13.007 0.954817
113 1 -1.1104 1.43848 13.1952 3.91164
123 1 -1.1104 4.0645 13.0092 1.01434
128 1 -1.1104 4.088 13.3177 3.79933
70 1 -1.1104 7.07124 10.3825 3.72278
115 1 -1.1104 6.88252 13.158 3.73323
8843 2 2.2208 11.3273 -5.20089 5.29111
62 1 -1.1104 1.64334 10.4878 6.74276
124 1 -1.1104 3.9613 13.3348 6.77044
78 1 -1.1104 4.44073 10.668 6.57863
82 2 2.2208 -0.174832 8.87514 2.38269
83 2 2.2208 0.0896954 11.6493 5.16348
313 2 2.2208 -0.116547 14.6808 8.02185
8858 2 2.2208 5.69466 -5.24891 -0.428445
199 2 2.2208 -0.338634 3.35487 7.94183
110 1 -1.1104 7.13153 13.1526 0.937558
64 1 -1.1104 6.91598 10.3444 1.01751
85 2 2.2208 11.0503 11.793 5.46261
89 1 -1.1104 12.4546 10.3729 0.945061
91 2 2.2208 11.3958 9.03699 2.36709
93 1 -1.1104 12.5526 10.2398 4.01774
96 2 2.2208 8.35521 11.6819 2.44962
98 2 2.2208 8.50502 8.92722 5.27986
100 1 -1.1104 9.7503 10.3353 1.29056
103 1 -1.1104 9.72636 10.4294 4.05054
142 1 -1.1104 12.3999 13.4138 0.987442
146 1 -1.1104 12.5172 12.9899 4.04911
153 1 -1.1104 9.75759 13.0732 1.03926
158 1 -1.1104 9.63491 13.2424 3.91156
90 1 -1.1104 12.5404 10.2832 6.83181
136 2 2.2208 -0.267136 20.1767 2.04544
106 2 2.2208 5.60469 17.6733 5.24658
109 1 -1.1104 1.24166 18.5563 0.989244
114 1 -1.1104 1.26503 18.9212 3.94113
116 1 -1.1104 1.36323 15.7674 0.93976
119 2 2.2208 5.52254 14.4478 2.23123
120 2 2.2208 5.38341 20.2663 2.34308
121 1 -1.1104 1.00429 16.201 3.83074
125 1 -1.1104 3.88775 18.6948 0.789525
127 2 2.2208 2.67376 17.3813 2.38913
129 1 -1.1104 4.00386 19.016 3.55977
130 2 2.2208 2.70469 14.6528 5.22498
131 2 2.2208 2.56639 20.264 5.21073
132 1 -1.1104 4.19323 15.7887 0.930653
134 1 -1.1104 4.14593 16.2522 3.88229
137 2 2.2208 -0.245301 17.42 5.25672
8839 2 2.2208 2.93687 -5.18257 2.53869
380 2 2.2208 2.62676 8.87068 -0.288202
379 2 2.2208 5.58454 6.10749 -0.320922
139 1 -1.1104 6.92142 18.9281 3.65623
140 1 -1.1104 6.87941 15.9225 1.0694
138 1 -1.1104 6.64596 19.0019 0.726153
122 1 -1.1104 6.90054 16.2053 3.82733
160 2 2.2208 8.26048 14.6709 5.05268
150 2 2.2208 11.1645 14.5774 2.67489
141 2 2.2208 11.0491 17.3449 4.95597
144 1 -1.1104 12.4907 18.9585 1.11761
147 1 -1.1104 12.5319 18.5468 3.83582
148 1 -1.1104 12.457 16.2311 0.967025
151 2 2.2208 10.8574 20.3115 2.3097
152 1 -1.1104 12.7259 15.8648 3.77378
155 1 -1.1104 9.49987 18.933 0.798137
157 2 2.2208 8.31538 17.4832 2.27735
159 1 -1.1104 9.80803 18.8699 3.62297
161 2 2.2208 8.22571 20.4488 5.02626
162 1 -1.1104 9.66065 16.1852 0.650992
164 1 -1.1104 9.61188 16.1253 3.76274
8849 2 2.2208 11.4189 -5.20703 10.8176
118 1 -1.1104 7.12959 16.0849 6.54874
112 1 -1.1104 6.90406 19.0051 6.56447
163 1 -1.1104 9.96991 15.8763 6.56139
149 1 -1.1104 12.6559 16.0408 6.55918
384 2 2.2208 11.3032 6.03599 -0.384531
174 1 -1.1104 4.18686 -0.779026 6.62512
171 1 -1.1104 6.94421 -0.905196 6.71219
172 1 -1.1104 4.19696 -3.53648 6.70786
311 2 2.2208 -0.115645 20.3216 7.88426
352 2 2.2208 5.64296 8.97518 13.689
170 1 -1.1104 1.26233 -0.770377 6.85959
175 2 2.2208 5.43652 0.562709 10.844
176 1 -1.1104 1.38299 -3.74223 12.5774
180 1 -1.1104 1.32062 -3.68195 9.68154
184 1 -1.1104 1.31193 -0.937837 12.25
186 2 2.2208 5.48439 -2.2591 8.14644
188 1 -1.1104 1.37258 -0.781916 9.6356
190 1 -1.1104 4.24733 -3.59069 12.36
192 2 2.2208 2.83364 0.613269 8.08196
193 1 -1.1104 4.16128 -3.73502 9.53616
195 2 2.2208 2.76502 -2.24791 11.0542
197 1 -1.1104 4.12796 -0.835514 12.5056
198 1 -1.1104 4.11085 -0.963168 9.56415
185 1 -1.1104 6.94731 -0.727479 12.3938
182 1 -1.1104 7.10759 -3.65178 9.72887
27 2 2.2208 -0.045868 3.21961 2.36558
318 1 -1.1104 9.6748 19.0072 9.29176
8847 2 2.2208 -0.0444044 -5.13987 10.9081
168 1 -1.1104 6.93655 -3.68404 6.81074
207 1 -1.1104 12.4481 -0.956563 6.74916
370 2 2.2208 8.5321 -2.22638 -0.363512
25 2 2.2208 0.137683 -2.39987 2.44584
178 1 -1.1104 7.14977 -3.51885 12.3819
189 1 -1.1104 6.89227 -0.710459 9.5423
208 1 -1.1104 9.87293 -3.56301 6.55187
210 1 -1.1104 9.64097 -0.869149 7.02278
205 1 -1.1104 12.7245 -3.7625 6.70576
211 2 2.2208 11.245 0.49851 10.9985
212 1 -1.1104 13.088 -3.74707 12.3674
214 1 -1.1104 12.7394 -3.77062 9.40873
216 1 -1.1104 12.7955 -0.901047 12.3994
217 2 2.2208 11.3005 -2.29618 8.19298
219 1 -1.1104 12.5741 -0.94827 9.6857
220 1 -1.1104 9.95531 -3.62544 12.2158
222 2 2.2208 8.22192 0.560908 8.16747
223 1 -1.1104 9.71556 -3.35652 9.47934
225 2 2.2208 8.39575 -2.23653 10.9165
227 1 -1.1104 9.92697 -0.904393 12.6312
228 1 -1.1104 9.7731 -0.659837 9.75368
8846 2 2.2208 5.66379 -5.05425 11.0855
312 2 2.2208 0.0502749 17.5468 10.9571
29 2 2.2208 0.0202291 6.24025 10.9598
173 1 -1.1104 4.16594 2.03865 6.52318
238 1 -1.1104 4.00901 7.81091 6.94945
177 1 -1.1104 1.206 1.81337 12.4767
181 1 -1.1104 1.38971 1.9705 9.47263
187 2 2.2208 5.6336 3.45674 7.97089
191 1 -1.1104 4.15604 1.94406 12.1895
194 1 -1.1104 4.18944 2.031 9.44731
196 2 2.2208 2.89706 3.23391 10.8077
240 2 2.2208 5.70044 6.18644 10.9066
242 1 -1.1104 1.37533 7.67872 12.4341
246 1 -1.1104 1.31063 4.91446 12.407
251 1 -1.1104 1.67089 4.69461 9.66197
255 1 -1.1104 4.29522 7.57351 12.3851
256 2 2.2208 2.78795 6.18884 8.18436
260 1 -1.1104 4.34158 4.71936 12.1277
262 1 -1.1104 4.17262 4.8749 9.19795
244 1 -1.1104 1.32681 7.91575 9.75743
258 1 -1.1104 4.13679 7.63537 9.64042
183 1 -1.1104 6.75615 2.11635 9.71784
237 1 -1.1104 7.04374 4.62177 6.62071
235 1 -1.1104 6.8692 7.70964 6.65086
245 1 -1.1104 7.07407 7.7246 9.54347
179 1 -1.1104 6.83362 2.06426 12.1714
248 1 -1.1104 7.33076 4.54514 12.6568
253 1 -1.1104 6.93565 4.86182 9.64634
243 1 -1.1104 7.30233 7.50998 12.3073
267 1 -1.1104 9.75992 7.40116 6.72582
266 1 -1.1104 12.4884 4.7812 6.81821
209 1 -1.1104 9.70424 1.88037 6.81223
206 1 -1.1104 12.5142 1.79973 6.7387
213 1 -1.1104 12.6742 1.81819 12.3629
215 1 -1.1104 12.6296 1.70893 9.36566
218 2 2.2208 11.0697 3.30566 8.24962
221 1 -1.1104 9.83967 2.0419 12.0559
224 1 -1.1104 9.46322 2.04813 9.33912
226 2 2.2208 8.32805 3.32152 10.9099
268 1 -1.1104 9.79763 4.85005 9.59012
271 1 -1.1104 9.85983 4.77827 12.4961
273 1 -1.1104 9.74174 7.46891 9.58177
275 2 2.2208 8.37204 6.10767 8.21442
276 2 2.2208 11.2468 6.13235 11.0109
279 1 -1.1104 12.6473 7.49461 9.50411
280 1 -1.1104 12.7416 4.67843 12.3386
283 1 -1.1104 12.5986 4.6773 9.77668
285 1 -1.1104 10.1149 7.6473 12.3615
278 1 -1.1104 12.5881 7.71333 12.4641
26 2 2.2208 -0.0595482 0.467155 5.17155
320 2 2.2208 8.32098 17.4803 7.92624
65 1 -1.1104 6.98746 10.5173 6.57971
51 2 2.2208 -0.0327535 11.8399 10.7462
108 1 -1.1104 1.1985 13.1124 6.81986
241 2 2.2208 5.63888 11.8155 11.0612
247 1 -1.1104 1.28521 10.4906 12.2488
250 2 2.2208 5.66812 9.25553 8.14104
252 1 -1.1104 1.35769 10.5601 9.48629
257 2 2.2208 2.79995 11.9046 8.17411
259 2 2.2208 2.76326 9.19794 11.0197
261 1 -1.1104 4.31223 10.3944 12.255
263 1 -1.1104 4.21643 10.4807 9.52993
294 1 -1.1104 1.20738 13.3766 9.56587
287 1 -1.1104 4.12464 13.1147 12.4054
299 1 -1.1104 1.3394 13.383 12.4274
305 1 -1.1104 4.143 13.2957 9.75919
30 2 2.2208 0.0231062 9.08127 8.03866
347 2 2.2208 8.3533 14.6434 -0.410601
111 1 -1.1104 6.91628 13.3339 6.5388
316 2 2.2208 8.25495 20.1486 10.75
101 1 -1.1104 9.8753 10.0782 6.80618
297 1 -1.1104 6.9975 13.3671 12.2824
290 1 -1.1104 6.93471 13.2493 9.57558
249 1 -1.1104 7.25646 10.4023 12.1828
154 1 -1.1104 9.72194 13.123 6.78547
143 1 -1.1104 12.6158 13.146 6.68373
254 1 -1.1104 6.90204 10.6628 9.50633
319 1 -1.1104 9.72534 13.1782 9.54189
264 1 -1.1104 9.83362 10.376 9.47119
270 1 -1.1104 9.71543 10.5339 12.5254
272 2 2.2208 8.36735 9.04812 10.7748
274 2 2.2208 8.33801 11.7505 8.0967
277 2 2.2208 11.1469 11.7635 10.877
281 1 -1.1104 12.5955 10.5067 12.3878
282 2 2.2208 11.1891 8.8365 8.00106
284 1 -1.1104 12.5229 10.2003 9.60556
330 1 -1.1104 12.5243 13.2528 12.589
328 1 -1.1104 12.6821 13.1889 9.68553
322 1 -1.1104 9.76888 13.2655 12.3297
337 2 2.2208 -0.049409 3.51851 13.6389
117 1 -1.1104 1.2212 15.9211 6.62532
133 1 -1.1104 4.32832 16.153 6.6514
302 1 -1.1104 1.12631 18.762 6.7491
126 1 -1.1104 4.03106 18.8009 6.57105
289 1 -1.1104 7.18938 15.9987 9.43163
310 2 2.2208 2.67386 14.6223 10.8223
295 2 2.2208 5.57275 14.6381 7.9904
304 1 -1.1104 4.03145 15.9661 9.42166
298 1 -1.1104 1.29065 18.9007 12.405
301 1 -1.1104 3.99393 18.9602 9.4414
291 1 -1.1104 1.35165 18.969 9.50439
300 2 2.2208 5.62105 17.2974 10.8324
286 1 -1.1104 4.21482 18.8274 12.1172
293 2 2.2208 5.38571 20.2043 8.10232
303 2 2.2208 2.68596 17.369 8.082
309 2 2.2208 2.63041 20.2573 11.0189
308 1 -1.1104 4.18531 15.8861 12.3273
307 1 -1.1104 1.37312 16.0753 12.4394
292 1 -1.1104 1.43957 16.0486 9.35602
288 1 -1.1104 6.8622 18.7287 9.37759
365 2 2.2208 2.93613 -2.27807 -0.222068
314 1 -1.1104 9.79724 16.1297 9.31149
324 2 2.2208 11.1936 20.1642 7.85384
156 1 -1.1104 9.69673 19.0112 6.42595
315 1 -1.1104 9.99976 16.017 12.2707
145 1 -1.1104 12.3897 18.8851 6.5402
327 1 -1.1104 12.5798 18.8932 9.40567
325 2 2.2208 11.1949 14.6848 8.01895
317 2 2.2208 8.3255 14.4668 10.8986
321 1 -1.1104 9.83337 18.8337 12.1841
323 1 -1.1104 12.7339 16.0733 9.49517
329 1 -1.1104 12.6213 18.9936 12.3019
306 1 -1.1104 7.11605 16.0039 12.1334
296 1 -1.1104 7.13413 18.7476 12.1555
331 2 2.2208 10.9732 17.4151 10.7405
8842 2 2.2208 8.28517 -4.99107 2.5886
372 2 2.2208 8.5778 3.16359 -0.385659
383 2 2.2208 -0.210606 5.98071 -0.429711
366 2 2.2208 2.86382 3.24217 -0.408919
386 2 2.2208 11.158 11.8337 -0.379299
385 2 2.2208 8.37684 9.03665 -0.383198
373 2 2.2208 2.85662 14.5999 -0.476238
348 2 2.2208 11.1662 17.6172 -0.474799
367 2 2.2208 0.0540486 8.9698 13.576
351 2 2.2208 2.76732 6.21211 13.6003
364 2 2.2208 5.64078 0.546212 -0.35417
388 2 2.2208 5.54413 0.592601 16.4697
389 1 -1.1104 1.83016 -3.68674 18.0242
393 1 -1.1104 1.25326 -3.61392 15.3055
401 1 -1.1104 1.16933 -0.93835 18.1717
403 2 2.2208 5.37826 -2.22017 19.3889
405 1 -1.1104 1.38737 -1.01796 15.2549
409 1 -1.1104 4.32402 -3.81578 18.1319
411 2 2.2208 2.61105 0.647396 19.5213
412 1 -1.1104 4.10619 -3.81781 15.223
416 2 2.2208 2.63303 -2.22602 16.6972
418 1 -1.1104 4.03289 -0.789433 18.147
419 1 -1.1104 4.24545 -0.699508 15.1944
406 1 -1.1104 1.19732 -0.991039 20.9275
402 1 -1.1104 6.956 -0.726546 17.9251
394 1 -1.1104 1.2693 -3.84567 20.7162
425 2 2.2208 -0.0520258 -2.45055 19.5466
356 2 2.2208 8.47602 12.0004 13.8889
685 2 2.2208 -0.392812 11.6355 22.2791
420 1 -1.1104 3.81108 -0.747595 20.8114
645 2 2.2208 -0.395153 20.289 24.7856
391 1 -1.1104 7.15696 -3.68724 17.9761
407 1 -1.1104 7.00042 -0.844002 15.1124
397 1 -1.1104 7.06076 -3.44757 15.2964
408 1 -1.1104 6.98578 -0.86972 20.7956
431 2 2.2208 11.2048 0.7297 16.3918
432 1 -1.1104 12.7472 -3.43305 17.8595
434 1 -1.1104 12.5827 -3.5203 15.0752
438 1 -1.1104 12.3352 -0.683645 17.8455
439 2 2.2208 11.051 -2.1715 19.2383
441 1 -1.1104 12.7476 -0.78998 15.2271
443 1 -1.1104 9.96336 -3.50776 17.8787
445 2 2.2208 8.3726 0.510511 19.2817
446 1 -1.1104 9.72033 -3.7148 15.1829
450 2 2.2208 8.31211 -2.10819 16.6197
452 1 -1.1104 9.61093 -0.636974 17.8001
453 1 -1.1104 9.60073 -0.758841 15.2231
447 1 -1.1104 9.81791 -3.64458 20.6638
8944 2 2.2208 11.2425 -4.98803 16.507
354 2 2.2208 8.48503 6.28237 13.718
8905 2 2.2208 11.2051 -5.11243 22.1513
398 1 -1.1104 7.06958 -3.87438 20.7083
341 2 2.2208 5.69428 3.33226 13.6529
375 2 2.2208 2.53215 20.0982 27.7157
359 2 2.2208 5.68748 14.5683 13.7513
8904 2 2.2208 8.59677 -5.21867 25.2164
390 1 -1.1104 1.32748 2.03342 18.0125
395 1 -1.1104 1.24893 1.91734 15.2174
404 2 2.2208 5.55469 3.31567 19.444
410 1 -1.1104 4.16874 2.03304 17.8846
414 1 -1.1104 4.10641 2.04145 15.044
417 2 2.2208 2.72851 3.41961 16.4355
464 2 2.2208 5.37977 6.04509 16.6198
466 1 -1.1104 1.3687 7.40594 17.8439
468 1 -1.1104 1.27721 7.52752 15.1352
472 1 -1.1104 1.18904 4.73272 17.9113
477 1 -1.1104 1.28219 4.73575 14.9851
486 2 2.2208 2.5712 6.09587 19.3725
488 1 -1.1104 4.23112 7.55148 15.1264
491 1 -1.1104 4.10629 4.61485 17.7705
493 1 -1.1104 3.95911 4.82768 14.91
485 1 -1.1104 4.09147 7.44276 18.061
494 1 -1.1104 4.13332 4.48198 20.7909
415 1 -1.1104 4.12261 1.89452 20.8785
470 1 -1.1104 6.81893 7.53655 15.0222
474 1 -1.1104 6.82395 4.95549 18.0127
469 1 -1.1104 1.2128 7.62239 20.65
621 2 2.2208 -0.127605 6.06132 16.5223
396 1 -1.1104 1.31115 1.93913 20.9754
427 2 2.2208 -0.200336 3.47482 19.405
357 2 2.2208 2.63099 17.4067 13.7719
392 1 -1.1104 7.01968 2.13929 18.0051
467 1 -1.1104 7.0343 7.64043 17.9092
481 1 -1.1104 6.80587 4.68371 15.2337
399 1 -1.1104 6.76846 1.79577 15.1591
471 1 -1.1104 6.9295 7.5484 20.9515
433 1 -1.1104 12.5975 1.99637 17.6166
436 1 -1.1104 12.8895 2.05379 15.0274
440 2 2.2208 11.1477 3.31417 19.2141
444 1 -1.1104 9.67036 2.05925 17.8683
448 1 -1.1104 9.82992 2.00175 15.0321
451 2 2.2208 8.43964 3.64891 16.592
500 2 2.2208 11.3402 6.31303 16.6744
502 1 -1.1104 12.8132 7.70929 18.0336
505 1 -1.1104 12.6255 4.60259 18.0056
508 1 -1.1104 12.7892 4.85662 15.1794
513 2 2.2208 8.23495 6.26542 19.4792
515 1 -1.1104 9.79813 7.61318 15.2258
518 1 -1.1104 9.78154 4.77255 17.8663
520 1 -1.1104 9.92655 4.81056 15.1391
512 1 -1.1104 10.0678 7.68249 18.0806
503 1 -1.1104 12.491 7.58616 15.2413
504 1 -1.1104 12.3827 7.41774 20.8176
8866 2 2.2208 2.68526 -5.10081 13.8824
497 1 -1.1104 12.5387 18.7669 23.6313
465 2 2.2208 5.7068 11.6555 16.4212
473 1 -1.1104 1.20377 10.3738 18.0252
476 2 2.2208 5.62049 8.93775 19.2838
479 1 -1.1104 1.43085 10.3642 14.9472
487 2 2.2208 2.73809 11.659 19.5139
490 2 2.2208 2.97496 8.93044 16.5368
492 1 -1.1104 4.1318 10.1968 18.0151
495 1 -1.1104 4.18921 10.3487 15.1033
528 1 -1.1104 1.45462 13.1518 18.2447
532 1 -1.1104 1.44469 13.2512 15.2309
548 1 -1.1104 4.24846 12.875 17.9947
551 1 -1.1104 4.35259 13.1507 15.2252
648 2 2.2208 -0.0469243 11.8293 16.5193
8943 2 2.2208 8.43748 -5.15238 19.2741
353 2 2.2208 2.73685 11.8625 13.7532
475 1 -1.1104 6.7857 10.3591 17.8937
530 1 -1.1104 7.24957 13.0395 17.813
536 1 -1.1104 7.10071 13.3515 15.0735
483 1 -1.1104 7.04268 10.3742 15.0664
537 1 -1.1104 6.80794 13.005 20.7616
484 1 -1.1104 7.00849 10.1986 20.7064
501 2 2.2208 11.3581 11.8789 16.5813
506 1 -1.1104 12.6407 10.4469 17.9746
507 2 2.2208 11.4508 8.87977 19.3693
510 1 -1.1104 12.8431 10.3976 14.9246
514 2 2.2208 8.45411 11.7554 19.3711
517 2 2.2208 8.62478 8.94691 16.6754
519 1 -1.1104 9.97205 10.4002 18.0473
522 1 -1.1104 9.79777 10.4771 15.209
564 1 -1.1104 12.7045 13.2646 18.2144
566 1 -1.1104 12.87 13.1419 15.3005
575 1 -1.1104 9.89578 13.1656 18.0241
578 1 -1.1104 9.77436 13.1846 15.1879
349 2 2.2208 8.2878 20.4126 27.6405
523 1 -1.1104 9.86813 10.0894 20.961
579 1 -1.1104 9.62376 12.8902 20.9055
8907 2 2.2208 2.92139 -5.22221 25.118
526 2 2.2208 11.1355 20.3821 24.8465
456 2 2.2208 -0.16311 17.5282 16.5549
458 2 2.2208 -0.275946 20.3124 19.4154
457 2 2.2208 -0.0666326 14.5053 19.4111
542 2 2.2208 5.45253 14.5533 19.4669
555 2 2.2208 2.68981 14.3741 16.5761
527 2 2.2208 5.48985 17.347 16.4544
529 1 -1.1104 1.38518 18.8356 17.8444
534 1 -1.1104 1.46801 19.0385 14.9377
540 1 -1.1104 1.22354 16.0501 17.9264
543 2 2.2208 5.52409 20.2681 19.4434
544 1 -1.1104 1.2113 16.03 15.1626
549 1 -1.1104 4.1481 18.8282 17.9205
550 2 2.2208 2.64285 17.5064 19.4633
553 1 -1.1104 4.38351 18.768 15.0343
556 2 2.2208 2.79383 20.1861 16.5058
557 1 -1.1104 3.85906 15.799 18.1017
558 1 -1.1104 4.16627 15.8598 15.0271
339 2 2.2208 2.73888 0.562467 13.844
545 1 -1.1104 1.3808 15.9932 20.8371
424 2 2.2208 -0.0188591 0.330525 16.5666
8975 2 2.2208 0.0143716 -5.17252 16.5036
546 1 -1.1104 7.00435 16.1526 15.2133
541 1 -1.1104 6.87358 15.836 18.0132
531 1 -1.1104 6.879 18.7743 18.0975
538 1 -1.1104 6.90453 18.6812 15.139
582 2 2.2208 8.40422 14.6656 16.5521
571 2 2.2208 10.9941 14.4968 19.454
563 2 2.2208 11.1136 17.4034 16.4975
565 1 -1.1104 12.5736 18.9487 17.9904
568 1 -1.1104 12.6862 18.7071 15.0348
570 1 -1.1104 12.5472 16.2235 18.0435
572 2 2.2208 11.1312 20.1635 19.3455
573 1 -1.1104 12.6968 15.96 15.2382
576 1 -1.1104 9.6028 18.8071 17.8217
577 2 2.2208 8.19326 17.349 19.2005
580 1 -1.1104 9.75532 18.7617 15.0606
583 2 2.2208 8.38903 20.3586 16.5524
584 1 -1.1104 9.66261 15.8428 17.9467
585 1 -1.1104 9.80091 15.991 14.9638
586 1 -1.1104 9.42085 15.913 20.7168
574 1 -1.1104 12.4248 16.0715 20.732
560 1 -1.1104 12.769 16.0693 26.3825
569 1 -1.1104 12.6728 19.065 20.7282
615 2 2.2208 8.14354 14.5816 22.1365
342 2 2.2208 -0.222077 14.5698 13.68
413 1 -1.1104 4.00619 -3.75717 20.8836
617 1 -1.1104 9.5153 16.0846 23.3955
360 2 2.2208 11.0161 20.3601 13.7199
616 2 2.2208 8.19303 20.1899 22.1753
591 2 2.2208 5.58748 0.549875 22.3863
592 1 -1.1104 1.42189 -3.76879 23.4357
596 1 -1.1104 1.42287 -3.85942 26.7709
600 1 -1.1104 1.39017 -0.947606 23.8666
602 2 2.2208 5.80181 -2.55927 24.9339
604 1 -1.1104 1.37259 -0.969591 26.5091
606 1 -1.1104 4.22402 -3.93623 23.706
608 2 2.2208 2.87645 0.429747 25.1742
609 1 -1.1104 4.20065 -3.80764 26.5222
611 2 2.2208 2.74105 -2.29583 22.2825
613 1 -1.1104 4.35529 -1.15523 23.6054
614 1 -1.1104 4.24799 -1.21244 26.327
594 1 -1.1104 7.2574 -3.924 23.4503
625 2 2.2208 -0.156532 0.559076 22.189
499 1 -1.1104 12.8012 18.9284 26.3499
624 2 2.2208 0.186911 -2.35695 25.2262
442 1 -1.1104 12.3992 -0.659253 20.5564
454 1 -1.1104 9.5921 -0.700121 20.7111
435 1 -1.1104 12.5649 -3.51101 20.8168
718 1 -1.1104 6.93771 18.6789 23.524
601 1 -1.1104 6.96 -0.917188 23.605
605 1 -1.1104 7.08007 -0.932183 26.3778
598 1 -1.1104 7.07868 -3.95062 26.1978
627 2 2.2208 11.185 0.535345 22.0349
628 1 -1.1104 12.4207 -3.90543 23.7398
630 1 -1.1104 12.8774 -3.8642 26.7356
632 1 -1.1104 12.7642 -0.997795 23.6049
633 2 2.2208 11.2269 -2.2286 25.0157
635 1 -1.1104 12.9283 -0.873777 26.4594
636 1 -1.1104 9.8284 -3.65987 23.5842
638 2 2.2208 8.65258 0.300963 25.1006
639 1 -1.1104 9.92999 -3.5452 26.532
641 2 2.2208 8.46022 -2.41362 22.0625
643 1 -1.1104 9.99011 -0.815695 23.5423
644 1 -1.1104 9.96143 -0.973118 26.5552
587 2 2.2208 8.4071 17.3195 24.8201
421 2 2.2208 -0.195903 6.19543 22.308
482 1 -1.1104 6.92401 4.81163 20.6934
714 1 -1.1104 6.96102 16.1038 26.3099
478 1 -1.1104 1.15818 4.82729 20.778
489 1 -1.1104 3.97732 7.43621 21.0674
593 1 -1.1104 1.24277 1.95954 23.584
597 1 -1.1104 1.45737 1.77342 26.4691
603 2 2.2208 5.66092 3.21377 25.0216
607 1 -1.1104 4.25236 1.78316 23.8141
610 1 -1.1104 4.12069 1.72351 26.539
612 2 2.2208 2.78829 3.22625 22.2479
656 2 2.2208 5.60485 6.12456 22.3575
660 1 -1.1104 1.18466 7.39015 26.7849
662 1 -1.1104 1.32636 4.66554 23.681
667 1 -1.1104 1.27031 4.63698 26.284
672 2 2.2208 2.72779 6.15536 25.2151
674 1 -1.1104 4.17634 7.53548 26.5036
676 1 -1.1104 4.27197 4.50491 23.6634
678 1 -1.1104 4.1784 4.57797 26.3547
671 1 -1.1104 4.11196 7.57017 23.812
658 1 -1.1104 1.40331 7.49931 23.686
599 1 -1.1104 7.17582 1.84995 26.4232
400 1 -1.1104 7.35301 1.99564 20.8765
626 2 2.2208 0.0662719 3.30311 24.9135
462 2 2.2208 11.0962 17.3798 22.1339
437 1 -1.1104 12.9252 2.02095 20.721
516 1 -1.1104 9.68896 7.5984 20.9427
669 1 -1.1104 7.01498 4.92773 26.4372
664 1 -1.1104 7.00966 4.73861 23.8697
659 1 -1.1104 7.13124 7.37549 23.7356
661 1 -1.1104 7.0063 7.70384 26.4985
449 1 -1.1104 9.9213 2.17462 20.8321
509 1 -1.1104 12.7659 4.65362 20.829
521 1 -1.1104 9.86119 4.91595 20.7558
595 1 -1.1104 6.98149 1.97877 23.6524
629 1 -1.1104 12.723 1.85085 23.6631
631 1 -1.1104 12.9075 1.95995 26.5192
634 2 2.2208 11.364 3.2973 24.9385
637 1 -1.1104 9.87132 1.97817 23.4914
640 1 -1.1104 9.98735 1.82378 26.3752
642 2 2.2208 8.54072 3.39074 22.1711
688 1 -1.1104 9.96198 4.49862 26.4428
690 1 -1.1104 10.0096 4.97636 23.8882
694 2 2.2208 8.539 6.14854 25.0564
695 2 2.2208 11.3564 6.2049 22.2628
697 1 -1.1104 12.8903 7.42098 23.5576
699 1 -1.1104 12.9265 4.63735 23.7925
702 1 -1.1104 12.7961 4.60773 26.4828
704 1 -1.1104 10.0213 7.59205 23.7056
698 1 -1.1104 12.6813 7.41144 26.4087
692 1 -1.1104 9.72803 7.70936 26.4103
588 1 -1.1104 7.12364 18.8475 26.4074
480 1 -1.1104 1.07785 10.4589 20.8623
496 1 -1.1104 4.17402 10.412 20.7339
346 2 2.2208 11.1587 -2.49112 13.8864
552 1 -1.1104 4.08282 13.2049 20.6966
533 1 -1.1104 1.30726 12.9992 20.779
657 2 2.2208 5.49622 11.7303 22.131
663 1 -1.1104 1.1253 10.1939 23.7216
666 2 2.2208 5.62748 8.88154 25.0472
668 1 -1.1104 1.2501 10.269 26.5599
673 2 2.2208 2.83057 11.7659 25.0602
675 2 2.2208 2.55187 8.98982 22.1259
677 1 -1.1104 3.98797 10.3526 23.3588
679 1 -1.1104 4.16239 10.2326 26.1182
681 1 -1.1104 4.071 13.1877 26.2764
706 1 -1.1104 1.24677 13.0915 23.7879
713 1 -1.1104 3.98644 13.0445 23.5644
717 1 -1.1104 1.38392 13.1545 26.5433
670 1 -1.1104 6.95345 10.4832 26.4487
684 2 2.2208 -0.0899917 8.82133 25.1661
567 1 -1.1104 12.471 13.3697 20.8977
622 2 2.2208 -0.080801 8.88909 19.1758
665 1 -1.1104 6.97313 10.0669 23.6786
712 1 -1.1104 6.90734 13.3422 26.5773
709 1 -1.1104 6.79137 12.9267 23.4823
511 1 -1.1104 12.8502 10.3515 20.8154
463 1 -1.1104 12.6893 12.9896 23.5583
687 1 -1.1104 9.51229 10.6838 26.8988
689 1 -1.1104 9.78176 10.4982 23.8219
691 2 2.2208 8.2411 8.83169 22.2781
693 2 2.2208 8.38501 11.8213 25.1108
696 2 2.2208 11.1704 11.7903 22.2271
700 1 -1.1104 12.6702 10.2983 23.6022
701 2 2.2208 11.1695 8.8817 25.0007
703 1 -1.1104 12.503 10.3173 26.298
498 1 -1.1104 12.6256 13.268 26.3534
589 1 -1.1104 9.74807 13.2858 26.2474
561 1 -1.1104 9.64375 13.2253 23.562
525 2 2.2208 11.1633 14.6032 25.0329
554 1 -1.1104 3.96227 18.813 20.8582
646 2 2.2208 -0.0695986 14.4988 24.9701
623 2 2.2208 -0.262588 17.5346 22.3403
680 1 -1.1104 6.87243 15.6883 23.7836
559 1 -1.1104 4.12778 15.9488 20.9383
535 1 -1.1104 1.29943 19.0061 20.8611
707 1 -1.1104 1.04479 18.9844 23.488
705 2 2.2208 5.4876 17.2446 22.2969
686 1 -1.1104 4.32315 18.62 26.1077
683 2 2.2208 2.69164 17.3666 24.9254
719 2 2.2208 5.52632 20.252 24.9526
716 1 -1.1104 1.39481 15.6576 26.1768
682 1 -1.1104 4.16763 15.9942 26.365
715 1 -1.1104 1.36589 18.554 26.3698
655 1 -1.1104 1.23383 15.9548 23.5639
711 1 -1.1104 3.97882 18.5351 23.6802
652 1 -1.1104 4.26073 15.7843 23.6561
649 2 2.2208 2.55597 20.4137 22.0568
720 2 2.2208 5.50582 14.5559 25.1133
647 2 2.2208 2.8102 14.4913 22.2496
8974 2 2.2208 5.52874 -5.09257 16.5517
620 1 -1.1104 9.90961 16.1079 26.0155
547 1 -1.1104 6.74953 15.9014 20.8178
539 1 -1.1104 6.73505 18.71 20.897
562 1 -1.1104 9.67398 18.7506 23.5235
581 1 -1.1104 9.73517 18.6705 20.7273
524 1 -1.1104 12.5119 15.7312 23.3825
590 1 -1.1104 9.94708 18.8561 26.2905
334 2 2.2208 0.00809961 -2.29338 13.8766
338 2 2.2208 5.51281 -2.11509 13.6239
350 2 2.2208 11.3298 3.70392 13.7683
358 2 2.2208 5.7528 20.1722 13.9203
382 2 2.2208 -0.15206 11.8277 27.7529
335 2 2.2208 -0.215939 20.3342 13.8088
355 2 2.2208 11.2028 9.03799 13.799
343 2 2.2208 8.26868 0.491294 13.7661
371 2 2.2208 -0.0990027 17.1579 27.6278
361 2 2.2208 11.3705 14.5775 13.8409
374 2 2.2208 5.46451 17.4803 27.6592
362 2 2.2208 8.43835 17.5068 13.6625
8862 2 2.2208 8.394 -5.09148 13.8878
721 2 2.2208 5.34571 23.0111 5.23716
723 1 -1.1104 1.18295 24.5319 1.0326
724 1 -1.1104 1.24354 24.2796 3.74929
725 1 -1.1104 1.20356 21.4918 0.697686
727 2 2.2208 5.35817 26.1472 2.46433
728 1 -1.1104 1.10813 21.5799 3.64865
730 1 -1.1104 3.7876 24.6203 0.849996
731 2 2.2208 2.76087 23.1163 2.39751
733 1 -1.1104 4.26977 24.5649 3.81697
734 2 2.2208 2.57614 26.0209 5.16709
735 1 -1.1104 3.90238 21.5392 0.975178
737 1 -1.1104 4.04913 21.6526 3.79998
738 1 -1.1104 3.91347 27.5317 3.72998
726 1 -1.1104 1.18238 27.4091 0.830438
736 1 -1.1104 3.88309 27.3321 1.12134
868 1 -1.1104 4.02232 24.5537 6.56672
864 1 -1.1104 1.20571 21.6545 6.56026
746 1 -1.1104 6.5828 21.9509 3.70609
729 1 -1.1104 0.807962 27.2798 3.82526
1074 2 2.2208 8.07066 25.8399 -0.478952
841 2 2.2208 -0.394199 42.8044 2.29806
870 1 -1.1104 3.9255 27.3135 6.52086
1070 2 2.2208 2.4397 25.8826 -0.446008
744 1 -1.1104 6.68636 21.4993 0.850257
743 1 -1.1104 7.04241 24.8376 3.51794
867 1 -1.1104 6.76549 27.5333 6.6441
747 1 -1.1104 6.62155 27.4933 3.78307
866 1 -1.1104 6.70603 21.792 6.64453
742 1 -1.1104 6.59683 24.6144 0.828929
748 2 2.2208 11.0856 23.1283 5.3422
750 1 -1.1104 12.2939 24.6103 1.03442
751 1 -1.1104 12.4348 24.4285 3.69695
752 1 -1.1104 12.4822 21.7295 0.747534
754 2 2.2208 10.8875 25.919 2.42287
755 1 -1.1104 12.2696 21.5933 3.59475
757 1 -1.1104 9.46078 24.4397 0.663202
758 2 2.2208 8.14005 23.2236 2.27287
760 1 -1.1104 9.78709 24.4152 3.9336
761 2 2.2208 8.25952 26.0257 5.20744
762 1 -1.1104 9.61828 21.9137 1.03508
764 1 -1.1104 9.68403 21.6791 3.74659
753 1 -1.1104 12.2607 27.4259 1.00376
765 1 -1.1104 9.52704 27.3347 3.52365
899 1 -1.1104 9.67784 21.6752 6.84479
1009 1 -1.1104 9.44027 44.261 12.3549
896 1 -1.1104 12.4531 21.7146 6.38631
722 2 2.2208 5.28083 28.7099 5.27038
732 2 2.2208 2.49532 28.7535 2.40762
770 1 -1.1104 1.02818 29.9578 0.989205
773 1 -1.1104 1.15047 29.959 3.70908
776 1 -1.1104 0.853543 32.6515 0.752564
777 2 2.2208 5.21362 31.6493 2.30023
779 1 -1.1104 0.956054 33.1106 3.73023
781 1 -1.1104 3.73528 30.2436 0.72647
784 1 -1.1104 3.71514 30.2998 3.57583
786 2 2.2208 2.3743 31.7179 5.18448
788 1 -1.1104 3.83194 33.0018 0.972491
789 1 -1.1104 3.81082 32.8272 3.79025
795 1 -1.1104 6.68932 32.9655 0.724881
921 1 -1.1104 6.64999 30.2529 6.62411
925 1 -1.1104 3.95459 30.236 6.6155
919 1 -1.1104 1.02112 30.1872 6.59881
923 1 -1.1104 1.07474 32.8576 6.61802
791 2 2.2208 -0.279866 31.4735 2.31692
790 2 2.2208 -0.393983 34.3726 5.18557
1057 2 2.2208 -0.186621 25.9102 13.6621
745 1 -1.1104 6.62237 27.4077 0.988174
756 1 -1.1104 12.4389 27.4867 3.81688
793 1 -1.1104 6.32444 30.0984 0.847693
780 1 -1.1104 6.6305 33.1004 3.76418
763 1 -1.1104 9.57457 27.2021 0.912675
794 1 -1.1104 6.46671 30.1498 3.7285
749 2 2.2208 10.9346 28.7271 5.26407
759 2 2.2208 7.93717 28.7581 2.2807
797 1 -1.1104 12.3834 30.2024 1.03768
799 1 -1.1104 12.4079 30.2246 3.75889
801 1 -1.1104 12.4753 32.9786 0.722623
802 2 2.2208 10.8365 31.4321 2.30049
804 1 -1.1104 12.1064 32.9884 3.68729
805 1 -1.1104 9.30974 30.314 0.968011
808 1 -1.1104 9.52027 29.9111 3.8218
810 2 2.2208 8.08507 31.4293 5.25378
812 1 -1.1104 9.71862 33.068 0.837417
813 1 -1.1104 9.2401 32.6876 3.84356
1038 2 2.2208 -0.402688 28.6426 10.691
1048 2 2.2208 8.37792 23.127 13.6705
741 2 2.2208 -0.279636 22.9222 5.31015
955 1 -1.1104 12.1786 32.7351 6.31182
981 1 -1.1104 6.59197 44.5606 12.2798
769 2 2.2208 5.26158 34.3972 5.00726
771 1 -1.1104 1.00201 35.5545 0.957681