ITEM: TIMESTEP
50000
ITEM: NUMBER OF ATOMS
17700
ITEM: BOX BOUNDS pp pp pp
-4.5398435773341722e-01 2.7793984357734384e+01
-5.1902178111237030e+00 3.3327021781112330e+02
-4.4224527522266599e-01 2.7782245275222344e+01
ITEM: ATOMS id type q x y z
1 2 2.2208 5.41006 0.529041 5.26084
2 1 -1.1104 0.843675 -3.57565 1.10538
6 1 -1.1104 0.732546 -3.61882 4.002
10 1 -1.1104 1.06637 -1.02629 0.705629
12 2 2.2208 5.36381 -2.34467 2.40381
14 1 -1.1104 0.926605 -0.84873 3.66571
16 1 -1.1104 3.65975 -4.04496 0.911048
18 2 2.2208 2.37134 0.649134 2.45395
19 1 -1.1104 3.79189 -3.56427 3.71341
21 2 2.2208 2.29635 -2.24662 5.17979
23 1 -1.1104 4.07156 -1.20876 0.969075
24 1 -1.1104 3.99991 -0.891919 3.86378
170 1 -1.1104 1.03123 -1.09944 6.60923
8839 2 2.2208 2.3775 -5.08697 2.41463
8840 2 2.2208 5.30126 -5.12816 5.44574
8843 2 2.2208 11.0128 -5.0983 5.04935
166 1 -1.1104 0.841493 -3.76041 6.83184
4 1 -1.1104 6.56812 -3.83127 0.999858
11 1 -1.1104 6.85184 -1.08422 1.09127
15 1 -1.1104 6.7052 -0.952337 3.77078
8 1 -1.1104 6.83184 -3.83943 4.061
31 2 2.2208 10.8908 0.755139 5.14379
32 1 -1.1104 12.3785 -3.93322 0.993789
34 1 -1.1104 12.2871 -3.57172 3.67445
36 1 -1.1104 12.343 -0.822675 1.13327
37 2 2.2208 10.9329 -2.36643 2.3874
39 1 -1.1104 12.3249 -0.836796 3.88503
40 1 -1.1104 9.30308 -3.71885 0.855552
42 2 2.2208 8.17016 0.542828 2.17053
43 1 -1.1104 9.54487 -3.79774 3.59051
45 2 2.2208 8.18978 -2.24498 5.14176
47 1 -1.1104 9.71244 -1.12746 0.967532
48 1 -1.1104 9.59939 -0.740022 3.60816
205 1 -1.1104 12.4044 -3.795 6.51874
207 1 -1.1104 12.3089 -0.811343 6.65101
352 2 2.2208 5.19297 8.92532 13.5604
201 2 2.2208 -0.400682 0.371653 10.8096
171 1 -1.1104 6.82902 -0.870289 6.77349
210 1 -1.1104 9.41675 -0.731843 6.29758
208 1 -1.1104 9.5426 -3.66032 6.4151
8866 2 2.2208 2.56811 -5.12257 13.575
3 1 -1.1104 0.955026 1.84946 0.812504
7 1 -1.1104 0.980338 1.96705 3.70753
13 2 2.2208 5.30727 3.31498 2.24672
17 1 -1.1104 3.73737 1.98561 1.28343
20 1 -1.1104 3.9369 1.90557 3.80388
22 2 2.2208 2.45259 3.24875 5.08055
54 2 2.2208 5.4385 6.00154 5.06795
56 1 -1.1104 0.916985 7.50362 0.87594
58 1 -1.1104 0.948096 7.55807 3.77907
60 1 -1.1104 0.996984 4.64709 0.985126
67 1 -1.1104 0.996483 4.80945 3.62366
71 1 -1.1104 3.69671 7.47616 0.980312
72 2 2.2208 2.48165 6.18725 2.28988
76 1 -1.1104 3.67241 4.73706 0.871199
79 1 -1.1104 3.84817 4.70811 3.58758
74 1 -1.1104 4.00385 7.14973 3.80666
236 1 -1.1104 1.16849 4.47416 6.59801
234 1 -1.1104 1.01277 7.59482 6.64762
361 2 2.2208 10.8506 14.6121 13.6037
8845 2 2.2208 2.39648 -5.05154 8.07034
173 1 -1.1104 3.72815 1.95125 6.49947
8846 2 2.2208 5.36153 -5.12336 10.867
63 1 -1.1104 6.67323 4.5943 0.782203
5 1 -1.1104 6.72873 1.80633 0.859598
59 1 -1.1104 6.88864 7.52888 3.78689
9 1 -1.1104 6.90012 1.77622 3.63696
57 1 -1.1104 6.61016 7.41736 1.01053
69 1 -1.1104 6.77252 4.4893 3.53177
33 1 -1.1104 12.402 1.96479 1.14104
35 1 -1.1104 12.4515 2.08763 3.71571
38 2 2.2208 10.8741 3.26459 2.40066
41 1 -1.1104 9.73097 1.8092 1.05785
44 1 -1.1104 9.52076 2.10784 3.83855
46 2 2.2208 8.20341 3.42352 5.16443
84 2 2.2208 11.1139 6.19098 5.10206
88 1 -1.1104 12.3237 4.46149 1.0131
92 1 -1.1104 12.1961 4.7602 3.73975
95 2 2.2208 8.33491 6.06492 2.25267
99 1 -1.1104 9.66075 4.74122 1.00571
102 1 -1.1104 9.7039 4.88713 3.60835
94 1 -1.1104 9.61785 7.42957 0.667225
97 1 -1.1104 9.75566 7.64254 3.64015
86 1 -1.1104 12.3235 7.56019 0.921544
87 1 -1.1104 12.4693 7.53998 3.74137
265 1 -1.1104 12.3493 7.68564 6.47139
206 1 -1.1104 12.2211 2.12247 6.58363
169 1 -1.1104 6.58252 1.93201 6.61346
235 1 -1.1104 6.5938 7.33135 6.78647
237 1 -1.1104 6.91961 4.55415 6.50856
209 1 -1.1104 9.52249 2.01859 6.40639
269 1 -1.1104 9.56558 4.90752 6.39041
266 1 -1.1104 12.3909 4.89872 6.59769
334 2 2.2208 -0.268934 -2.35306 13.5665
55 2 2.2208 5.33937 11.7238 5.24232
61 1 -1.1104 1.33322 10.2361 0.751782
66 2 2.2208 5.3644 8.81497 2.38663
68 1 -1.1104 1.1318 10.4712 3.56786
73 2 2.2208 2.58887 11.7625 2.23595
75 2 2.2208 2.44246 9.10593 5.2214
77 1 -1.1104 3.96615 10.1256 0.744133
80 1 -1.1104 3.74373 10.3802 3.78235
107 1 -1.1104 1.24006 12.9866 1.00613
113 1 -1.1104 1.1447 13.2158 3.69828
123 1 -1.1104 3.99796 13.0868 0.711852
128 1 -1.1104 3.94704 13.1352 3.67265
62 1 -1.1104 0.999321 10.5111 6.59642
108 1 -1.1104 1.12977 12.898 6.5913
8849 2 2.2208 10.8551 -5.18187 10.8792
26 2 2.2208 -0.305752 0.461887 5.18023
78 1 -1.1104 3.84742 10.4247 6.71882
70 1 -1.1104 6.56512 10.2526 3.87099
110 1 -1.1104 6.73511 12.9417 0.878807
115 1 -1.1104 6.65872 13.1545 3.8361
64 1 -1.1104 6.67087 10.2884 1.22126
85 2 2.2208 11.0527 11.7782 5.22196
89 1 -1.1104 12.6391 10.3607 0.754056
91 2 2.2208 10.9999 8.76053 2.26091
93 1 -1.1104 12.2843 10.3413 3.47617
96 2 2.2208 8.09404 11.6285 2.2706
98 2 2.2208 7.90884 8.90606 5.2661
100 1 -1.1104 9.79507 10.2842 0.889048
103 1 -1.1104 9.38383 10.3813 3.79232
142 1 -1.1104 12.293 13.2403 0.578722
146 1 -1.1104 12.4252 13.1323 3.47373
153 1 -1.1104 9.5504 13.0383 0.820672
158 1 -1.1104 9.54262 13.1906 3.68124
90 1 -1.1104 12.5289 10.4461 6.31201
101 1 -1.1104 9.54104 10.3078 6.5082
154 1 -1.1104 9.69689 13.1456 6.34737
65 1 -1.1104 6.60996 10.2177 6.78427
337 2 2.2208 -0.379617 3.23791 13.5309
28 2 2.2208 13.6255 20.2103 10.8718
130 2 2.2208 2.38834 14.5968 5.15089
106 2 2.2208 5.07997 17.3879 4.99692
109 1 -1.1104 0.976111 18.7277 0.767182
114 1 -1.1104 1.10822 18.8505 3.4998
116 1 -1.1104 0.972082 15.6376 0.74254
119 2 2.2208 5.27126 14.2851 2.33318
120 2 2.2208 5.35297 20.2767 2.1786
121 1 -1.1104 0.920207 16.1119 3.8362
125 1 -1.1104 3.8297 18.6548 0.62296
127 2 2.2208 2.45645 17.1705 2.14937
129 1 -1.1104 3.78768 18.376 3.59209
131 2 2.2208 2.37568 20.0066 4.9966
132 1 -1.1104 3.81555 15.9064 0.75564
134 1 -1.1104 3.62027 15.7094 3.40495
302 1 -1.1104 1.00621 18.7601 6.56278
126 1 -1.1104 3.84545 18.6901 6.36709
200 2 2.2208 -0.366955 -2.25923 8.05616
140 1 -1.1104 6.42237 15.9731 0.827627
139 1 -1.1104 6.46541 18.9742 3.64548
318 1 -1.1104 9.61661 18.7603 9.42309
311 2 2.2208 -0.436183 19.8921 7.83226
327 1 -1.1104 12.2128 18.9267 9.40271
118 1 -1.1104 6.82614 15.7932 6.42971
138 1 -1.1104 6.44435 18.6436 0.836446
122 1 -1.1104 6.58201 15.8853 3.58741
160 2 2.2208 8.20724 14.5346 5.09614
150 2 2.2208 10.8976 14.5081 2.24005
141 2 2.2208 10.9657 17.3149 5.30044
144 1 -1.1104 12.1252 18.6263 0.987322
147 1 -1.1104 12.1937 18.7052 3.74248
148 1 -1.1104 12.4217 15.9938 0.798032
151 2 2.2208 10.7341 20.3378 2.32441
152 1 -1.1104 12.4404 15.8666 3.66562
155 1 -1.1104 9.38839 18.899 0.89636
157 2 2.2208 8.04497 17.3339 2.19193
159 1 -1.1104 9.32051 18.9223 3.58543
161 2 2.2208 7.92315 20.2042 5.06462
162 1 -1.1104 9.45297 16.0889 0.947933
164 1 -1.1104 9.63715 16.0069 3.94235
156 1 -1.1104 9.36529 18.769 6.59542
8842 2 2.2208 7.95624 -5.08493 2.40055
174 1 -1.1104 3.93826 -0.904987 6.65143
51 2 2.2208 -0.393486 11.6402 10.797
230 2 2.2208 13.6308 -2.33128 10.8458
172 1 -1.1104 3.42728 -3.81955 6.4256
339 2 2.2208 2.40859 0.39165 13.6032
175 2 2.2208 5.35777 0.393277 10.7834
176 1 -1.1104 0.943106 -3.77817 12.3029
180 1 -1.1104 1.0222 -3.60838 9.51819
184 1 -1.1104 1.21525 -0.927433 12.2509
186 2 2.2208 5.26259 -2.27687 7.8908
188 1 -1.1104 1.14726 -0.723833 9.28548
190 1 -1.1104 3.78029 -3.87877 12.0874
192 2 2.2208 2.47201 0.607998 8.05438
193 1 -1.1104 3.96368 -3.60551 9.31165
195 2 2.2208 2.77959 -2.3953 10.7771
197 1 -1.1104 4.00476 -1.17162 12.2688
198 1 -1.1104 3.97998 -0.799451 9.47799
182 1 -1.1104 6.62076 -3.56937 9.29707
189 1 -1.1104 6.78869 -0.853368 9.33046
341 2 2.2208 5.11666 3.06129 13.5438
168 1 -1.1104 6.83541 -3.60694 6.82394
362 2 2.2208 8.08763 17.4048 13.6816
365 2 2.2208 2.45622 -2.32846 -0.382674
178 1 -1.1104 6.73911 -3.88928 12.1075
185 1 -1.1104 6.58992 -1.28964 12.1355
211 2 2.2208 10.9518 0.423384 10.7261
212 1 -1.1104 12.4128 -3.86194 12.2792
214 1 -1.1104 12.3368 -3.64584 9.4565
216 1 -1.1104 12.135 -1.05143 12.1657
217 2 2.2208 10.8646 -2.32178 8.02354
219 1 -1.1104 12.2122 -1.01017 9.33408
220 1 -1.1104 9.28281 -3.75361 12.2101
222 2 2.2208 8.03388 0.505918 7.95204
223 1 -1.1104 9.61585 -3.61751 9.49765
225 2 2.2208 8.11715 -2.2934 10.691
227 1 -1.1104 9.50735 -0.799463 12.262
228 1 -1.1104 9.31236 -0.973547 9.21542
358 2 2.2208 5.25028 20.2841 13.5136
238 1 -1.1104 3.64528 7.7026 6.74289
316 2 2.2208 8.16721 20.0317 10.6911
320 2 2.2208 7.93423 17.2402 7.87416
239 1 -1.1104 3.91224 4.84291 6.29244
167 1 -1.1104 1.13624 1.76961 6.44391
177 1 -1.1104 1.03011 1.77756 12.2547
181 1 -1.1104 0.936884 1.93149 9.47044
187 2 2.2208 5.12016 3.34873 7.91382
191 1 -1.1104 3.6696 1.77194 12.1216
194 1 -1.1104 3.7651 2.06184 9.26993
196 2 2.2208 2.21388 3.31273 11.0174
240 2 2.2208 5.09546 6.00204 10.8785
246 1 -1.1104 0.981918 4.72219 12.4463
251 1 -1.1104 0.99087 4.81812 9.44084
255 1 -1.1104 3.89583 7.36082 12.369
256 2 2.2208 2.32473 6.17061 7.94444
260 1 -1.1104 3.62567 4.70938 12.0503
262 1 -1.1104 3.73498 4.68472 9.22416
258 1 -1.1104 3.75026 7.31891 9.54477
242 1 -1.1104 1.07647 7.31735 12.3631
229 2 2.2208 13.7391 0.63212 8.03111
326 1 -1.1104 12.4056 15.8456 12.3385
325 2 2.2208 11.0356 14.6178 7.95901
248 1 -1.1104 6.59522 4.72435 12.1813
245 1 -1.1104 6.55467 7.4706 9.48766
183 1 -1.1104 6.5788 1.83975 9.36926
253 1 -1.1104 6.52777 4.60293 9.42197
267 1 -1.1104 9.3777 7.47075 6.46215
243 1 -1.1104 6.5008 7.57362 12.3273
179 1 -1.1104 6.55293 1.72118 12.2964
213 1 -1.1104 12.1869 1.97053 12.3874
215 1 -1.1104 12.0462 1.79667 9.37738
218 2 2.2208 10.7506 3.43589 8.06648
221 1 -1.1104 9.60808 1.9544 11.9219
224 1 -1.1104 9.26779 1.93029 9.13992
226 2 2.2208 8.06958 3.19483 10.8604
268 1 -1.1104 9.51104 4.86693 9.47184
271 1 -1.1104 9.3011 4.76811 12.1917
275 2 2.2208 7.9925 6.12005 8.08156
276 2 2.2208 11.0206 6.24508 10.7929
279 1 -1.1104 12.4377 7.66007 9.41464
280 1 -1.1104 12.2732 4.8279 12.187
283 1 -1.1104 12.225 4.79296 9.39719
285 1 -1.1104 9.35314 7.83878 12.2767
278 1 -1.1104 12.2624 7.529 12.1114
273 1 -1.1104 9.52434 7.6778 9.39679
357 2 2.2208 2.40605 17.462 13.6636
244 1 -1.1104 0.949509 7.53032 9.39877
124 1 -1.1104 3.94086 13.2512 6.27755
241 2 2.2208 5.13742 11.689 10.7401
247 1 -1.1104 0.6991 10.0876 12.0174
250 2 2.2208 5.2424 8.83703 8.16122
252 1 -1.1104 0.98705 10.3621 9.22938
257 2 2.2208 2.38684 11.7375 8.09772
259 2 2.2208 2.4097 8.76086 10.95
261 1 -1.1104 3.47594 10.1338 12.4836
263 1 -1.1104 4.00245 10.2899 9.57997
294 1 -1.1104 1.11096 13.1868 9.44658
287 1 -1.1104 3.71501 13.0164 12.4357
299 1 -1.1104 1.02164 13.1224 12.3252
305 1 -1.1104 3.7384 13.0588 9.40154
25 2 2.2208 -0.475145 -2.30792 2.32343
315 1 -1.1104 9.54741 15.9808 12.1001
143 1 -1.1104 12.3688 13.3734 6.32906
111 1 -1.1104 6.74658 13.0727 6.66518
249 1 -1.1104 6.58105 10.3715 12.0701
254 1 -1.1104 6.80316 10.2223 9.36925
290 1 -1.1104 6.64939 13.1219 9.35329
297 1 -1.1104 6.51476 13.0775 12.2408
319 1 -1.1104 9.6486 13.1963 9.24702
264 1 -1.1104 9.6501 10.3877 9.34137
270 1 -1.1104 9.34129 10.5411 12.1801
272 2 2.2208 7.99392 9.01452 10.8637
274 2 2.2208 8.10624 11.7975 8.0441
277 2 2.2208 10.8933 11.8145 10.6685
281 1 -1.1104 12.2795 10.2883 11.9353
282 2 2.2208 10.8647 8.90684 7.7922
284 1 -1.1104 12.3728 10.4929 9.09847
330 1 -1.1104 12.0184 13.0613 11.993
328 1 -1.1104 12.5305 13.2844 9.18053
322 1 -1.1104 9.41161 13.2291 11.9715
342 2 2.2208 -0.247254 14.352 13.7686
338 2 2.2208 5.24693 -2.46498 13.6468
82 2 2.2208 -0.325547 9.08369 2.08072
306 1 -1.1104 6.71507 15.8921 12.0212
30 2 2.2208 -0.541968 9.18546 8.02659
117 1 -1.1104 1.01786 15.818 6.65688
133 1 -1.1104 3.89893 15.8373 6.4611
368 2 2.2208 -0.449196 0.313005 -0.373857
310 2 2.2208 2.55904 14.47 10.9022
295 2 2.2208 5.30101 14.5158 7.83637
304 1 -1.1104 3.85216 15.9133 9.3745
298 1 -1.1104 1.13832 18.8224 12.2042
301 1 -1.1104 4.00607 18.652 9.32118
291 1 -1.1104 1.0636 18.5745 9.21395
300 2 2.2208 5.33349 17.3583 10.6512
286 1 -1.1104 3.93238 18.9771 12.2192
293 2 2.2208 5.36574 19.9944 7.84724
303 2 2.2208 2.52296 17.281 8.05138
309 2 2.2208 2.39841 20.1622 10.6719
308 1 -1.1104 3.83717 15.8189 12.3503
307 1 -1.1104 1.02489 16.0486 12.1288
292 1 -1.1104 1.16842 15.9876 9.47558
8848 2 2.2208 8.17796 -4.89686 8.01279
331 2 2.2208 10.8006 17.4007 10.6761
289 1 -1.1104 6.74557 15.8958 9.26802
149 1 -1.1104 12.2808 16.0724 6.63961
163 1 -1.1104 9.49956 16.0024 6.55174
112 1 -1.1104 6.48786 18.6602 6.40594
314 1 -1.1104 9.47768 16.1037 9.21415
323 1 -1.1104 12.3496 16.0035 9.42429
329 1 -1.1104 12.2211 18.7307 12.1978
296 1 -1.1104 6.82211 18.7306 11.9276
317 2 2.2208 7.99626 14.4834 10.6362
324 2 2.2208 10.8415 20.1934 7.77767
145 1 -1.1104 12.1613 18.8174 6.53942
288 1 -1.1104 6.70157 18.7249 9.03542
321 1 -1.1104 9.53395 18.5614 12.2341
355 2 2.2208 10.8728 9.0503 13.6172
199 2 2.2208 -0.390149 3.22651 8.04088
29 2 2.2208 -0.356319 6.08309 10.7549
50 2 2.2208 13.5627 -2.31152 5.21336
366 2 2.2208 2.27702 3.2051 -0.324321
356 2 2.2208 7.96291 11.8793 13.5537
370 2 2.2208 8.12328 -2.33414 -0.406865
369 2 2.2208 11.0823 0.354157 -0.343653
8862 2 2.2208 8.07277 -5.04991 13.6105
388 2 2.2208 5.11024 0.299383 16.4016
389 1 -1.1104 0.738382 -3.92258 17.865
393 1 -1.1104 1.11733 -3.79024 15.0313
401 1 -1.1104 1.01687 -1.04239 17.9031
403 2 2.2208 5.26409 -2.43019 19.1698
405 1 -1.1104 1.04458 -1.06626 14.934
409 1 -1.1104 3.85345 -3.78909 17.8217
411 2 2.2208 2.36877 0.288538 19.1739
412 1 -1.1104 3.90275 -3.82197 14.9829
416 2 2.2208 2.3014 -2.59554 16.4998
418 1 -1.1104 3.61982 -1.01189 17.7881
419 1 -1.1104 3.49519 -1.07814 14.9409
617 1 -1.1104 9.38759 15.7897 23.3246
420 1 -1.1104 3.64565 -1.12551 20.6927
407 1 -1.1104 6.41815 -1.01072 15.092
349 2 2.2208 7.91374 20.1856 27.6808
346 2 2.2208 10.9268 -2.38592 13.779
622 2 2.2208 -0.440983 8.72405 19.402
387 2 2.2208 13.6078 8.97697 27.6548
383 2 2.2208 -0.34979 5.92022 27.747
8974 2 2.2208 5.39106 -5.21163 16.5034
402 1 -1.1104 6.56175 -0.857114 17.9877
397 1 -1.1104 6.69015 -3.65958 15.0393
391 1 -1.1104 6.57584 -3.8188 17.8486
431 2 2.2208 10.7462 0.293881 16.6022
432 1 -1.1104 12.286 -4.00786 17.8731
434 1 -1.1104 12.25 -3.75222 15.1341
438 1 -1.1104 12.117 -1.25833 17.6926
439 2 2.2208 10.7306 -2.48697 19.2773
441 1 -1.1104 12.2239 -0.953793 15.0219
443 1 -1.1104 9.38766 -3.72686 17.7774
445 2 2.2208 8.09727 0.33197 19.5178
446 1 -1.1104 9.46366 -3.84698 15.096
450 2 2.2208 7.96271 -2.41835 16.6031
452 1 -1.1104 9.3277 -0.986017 18.1072
453 1 -1.1104 9.38517 -1.04531 15.0362
398 1 -1.1104 6.69589 -3.73671 20.5702
408 1 -1.1104 6.52368 -1.14757 20.7723
442 1 -1.1104 12.5461 -1.14396 20.5172
435 1 -1.1104 12.2015 -3.73427 20.7641
525 2 2.2208 10.6411 14.6397 24.961
422 2 2.2208 13.6846 9.05438 21.9999
390 1 -1.1104 0.88108 1.81882 18.1156
395 1 -1.1104 1.0505 1.71002 15.054
404 2 2.2208 5.22264 3.10099 19.3324
410 1 -1.1104 3.57734 1.86311 17.7505
414 1 -1.1104 3.88771 1.63719 14.9296
417 2 2.2208 2.2826 3.17641 16.3967
464 2 2.2208 4.9606 6.0853 16.1833
466 1 -1.1104 0.921587 7.38469 18.0562
468 1 -1.1104 0.935814 7.38936 15.2742
472 1 -1.1104 1.05497 4.48413 17.9673
477 1 -1.1104 0.628027 4.69168 15.282
486 2 2.2208 2.56166 5.86252 19.3009
491 1 -1.1104 3.80794 4.54124 17.5372
493 1 -1.1104 3.61171 4.56953 14.8973
488 1 -1.1104 3.55237 7.50916 15.1315
396 1 -1.1104 0.950582 1.861 20.9009
469 1 -1.1104 1.1893 7.32693 20.6075
485 1 -1.1104 3.84485 7.16663 18.0937
494 1 -1.1104 3.82414 4.29603 20.7542
415 1 -1.1104 3.76597 1.64356 20.7133
353 2 2.2208 2.24449 11.6732 13.7882
467 1 -1.1104 6.49846 7.39157 17.7393
392 1 -1.1104 6.47041 2.00134 17.828
343 2 2.2208 7.83798 0.204944 13.6623
489 1 -1.1104 4.04405 7.04828 20.7865
8944 2 2.2208 11.0039 -5.19393 16.4146
350 2 2.2208 10.7706 3.39084 13.6697
399 1 -1.1104 6.6596 1.66376 15.0978
481 1 -1.1104 6.3786 4.72987 15.0886
470 1 -1.1104 6.41226 7.45674 15.0556
474 1 -1.1104 6.54815 4.56213 17.8252
433 1 -1.1104 12.1182 1.50174 18.1193
436 1 -1.1104 12.145 2.29073 15.4067
440 2 2.2208 10.9095 3.07975 19.3158
444 1 -1.1104 9.34064 1.7432 18.0198
448 1 -1.1104 9.31395 1.78768 14.8141
451 2 2.2208 7.93288 3.17621 16.3946
500 2 2.2208 10.8828 6.17371 16.4695
502 1 -1.1104 12.2096 7.70665 17.7062
505 1 -1.1104 12.3123 4.52724 18.0423
508 1 -1.1104 12.024 4.90036 15.123
513 2 2.2208 7.97493 5.82979 19.1743
515 1 -1.1104 9.562 7.47474 15.1169
518 1 -1.1104 9.52384 4.49233 17.9593
520 1 -1.1104 9.33778 4.60361 15.0246
503 1 -1.1104 12.3375 7.5447 14.9417
516 1 -1.1104 9.48472 7.09739 20.6454
521 1 -1.1104 9.44822 4.36488 20.5524
512 1 -1.1104 9.16848 7.50668 17.9966
437 1 -1.1104 12.1032 2.0394 20.9889
471 1 -1.1104 6.78972 6.94136 20.7586
504 1 -1.1104 12.1327 7.45987 20.655
465 2 2.2208 5.20092 11.5982 16.4369
473 1 -1.1104 1.00196 10.2412 18.0856
476 2 2.2208 5.42551 8.51217 19.4214
479 1 -1.1104 0.97219 10.4076 15.101
487 2 2.2208 2.38629 11.6003 19.2599
490 2 2.2208 2.27915 8.87598 16.5592
492 1 -1.1104 3.90092 10.3245 17.7232
495 1 -1.1104 3.7233 10.3441 15.0728
528 1 -1.1104 0.894957 12.9391 17.8937
532 1 -1.1104 0.97698 13.1931 15.0999
548 1 -1.1104 3.62655 13.1244 17.989
551 1 -1.1104 3.86377 13.0821 15.3701
480 1 -1.1104 1.11081 10.1639 20.8987
530 1 -1.1104 6.62442 12.9539 17.9552
483 1 -1.1104 6.36952 10.05 15.0794
8907 2 2.2208 2.39135 -5.06865 25.0176
381 2 2.2208 5.49559 11.6899 27.5318
620 1 -1.1104 9.27988 16.1633 26.4179
536 1 -1.1104 6.53497 13.0306 15.0045
475 1 -1.1104 6.58645 10.0581 17.9188
501 2 2.2208 10.8091 11.8186 16.3052
506 1 -1.1104 12.1218 10.3473 17.7398
507 2 2.2208 10.6971 8.9374 19.2818
510 1 -1.1104 12.3665 10.4804 14.7678
514 2 2.2208 8.00781 11.4878 19.2555
517 2 2.2208 7.9206 8.93905 16.4626
519 1 -1.1104 9.42898 10.2724 17.8052
522 1 -1.1104 9.3865 10.4076 15.0613
564 1 -1.1104 12.4573 13.3583 17.8046
566 1 -1.1104 12.1338 13.3043 15.0118
575 1 -1.1104 9.53864 13.0365 17.8385
578 1 -1.1104 9.32871 13.014 14.9884
523 1 -1.1104 9.34314 10.0248 20.6701
579 1 -1.1104 9.41216 13.1809 20.7791
587 2 2.2208 7.99896 17.3869 24.8265
718 1 -1.1104 6.65271 18.443 23.3719
555 2 2.2208 2.38908 14.5405 16.4887
542 2 2.2208 5.2084 14.3786 19.2459
527 2 2.2208 5.35901 17.4112 16.4212
529 1 -1.1104 0.976299 18.6963 17.7611
534 1 -1.1104 0.999628 18.8349 14.9821
540 1 -1.1104 1.07522 15.8595 17.8529
543 2 2.2208 5.02779 20.1995 19.2622
544 1 -1.1104 0.911804 16.077 15.2089
549 1 -1.1104 4.0026 18.6776 17.748
550 2 2.2208 2.38837 17.2838 19.2896
553 1 -1.1104 3.6735 18.9377 14.9613
556 2 2.2208 2.33411 20.1431 16.3201
557 1 -1.1104 3.83519 15.9014 17.9563
558 1 -1.1104 3.79323 15.8908 15.2176
373 2 2.2208 2.54721 14.3361 27.619
590 1 -1.1104 9.48053 18.9923 26.2742
554 1 -1.1104 3.79759 18.6999 20.5462
458 2 2.2208 -0.399194 20.3014 19.3586
430 2 2.2208 13.5063 14.603 22.2529
547 1 -1.1104 6.57532 15.7133 20.4552
546 1 -1.1104 6.7547 16.0981 14.8686
541 1 -1.1104 6.83999 16.0185 17.607
531 1 -1.1104 6.61515 18.6622 17.8746
538 1 -1.1104 6.59922 18.7295 14.9167
582 2 2.2208 8.34228 14.5441 16.3733
571 2 2.2208 10.9857 14.5686 19.4001
563 2 2.2208 10.8596 17.4085 16.4064
565 1 -1.1104 12.3656 18.8745 18.122
568 1 -1.1104 12.2329 18.799 15.2809
570 1 -1.1104 12.3606 16.0275 17.968
572 2 2.2208 10.8228 20.0974 19.3677
573 1 -1.1104 12.2558 15.9901 15.2084
576 1 -1.1104 9.22155 18.4844 17.7074
577 2 2.2208 8.09667 17.1912 19.2254
580 1 -1.1104 9.40231 18.6138 15.0816
583 2 2.2208 8.02875 20.0913 16.4127
584 1 -1.1104 9.63832 15.8583 17.7005
585 1 -1.1104 9.57205 15.8158 14.9285
569 1 -1.1104 12.2784 18.8378 20.6107
581 1 -1.1104 9.58228 18.6699 20.5548
574 1 -1.1104 12.4381 15.8388 20.5283
586 1 -1.1104 9.61492 15.7892 20.6578
406 1 -1.1104 0.933451 -1.21549 20.6795
345 2 2.2208 13.6407 20.2594 27.5088
371 2 2.2208 -0.352195 17.4932 27.5839
413 1 -1.1104 3.90343 -3.87067 20.7779
394 1 -1.1104 1.18251 -4.05989 20.7984
524 1 -1.1104 12.4629 16.194 23.5488
591 2 2.2208 5.18257 0.377293 22.1158
592 1 -1.1104 0.913867 -3.88999 23.4131
596 1 -1.1104 0.942311 -3.74341 26.3832
600 1 -1.1104 1.03652 -0.936629 23.578
602 2 2.2208 5.12079 -2.5645 24.9148
604 1 -1.1104 0.984831 -1.02618 26.3067
606 1 -1.1104 3.66099 -3.83172 23.6144
608 2 2.2208 2.49958 0.300732 25.083
609 1 -1.1104 3.93857 -3.82377 26.2081
611 2 2.2208 2.29759 -2.46625 22.2288
613 1 -1.1104 3.77856 -1.14611 23.6099
614 1 -1.1104 3.9059 -1.10588 26.2728
364 2 2.2208 5.3477 0.307732 27.8133
462 2 2.2208 10.7512 17.3213 21.9691
8904 2 2.2208 8.10976 -5.21368 24.9608
588 1 -1.1104 6.49534 18.8473 26.2904
539 1 -1.1104 6.68269 18.6351 20.6668
497 1 -1.1104 12.1185 18.816 23.5227
447 1 -1.1104 9.53821 -3.89055 20.758
454 1 -1.1104 9.39911 -1.12765 20.8022
598 1 -1.1104 6.6459 -3.55657 26.353
601 1 -1.1104 6.67681 -1.14339 23.6602
594 1 -1.1104 6.44005 -3.86241 23.5486
605 1 -1.1104 6.9745 -0.774839 26.6285
627 2 2.2208 10.9524 0.245466 21.962
628 1 -1.1104 12.1897 -4.01042 23.5444
630 1 -1.1104 12.339 -3.57773 26.361
632 1 -1.1104 12.181 -1.06861 23.4684
633 2 2.2208 10.7943 -2.61186 24.7636
635 1 -1.1104 12.3762 -0.94588 26.4619
636 1 -1.1104 9.42002 -3.98633 23.4179
638 2 2.2208 8.20499 0.422451 24.9317
639 1 -1.1104 9.43964 -3.83584 26.3055
641 2 2.2208 7.85616 -2.55827 22.0859
643 1 -1.1104 9.44964 -1.02041 23.5106
644 1 -1.1104 9.68426 -0.974953 26.3503
560 1 -1.1104 12.1409 16.1409 26.3168
400 1 -1.1104 6.637 1.67705 20.7367
478 1 -1.1104 1.15303 4.68213 20.7044
593 1 -1.1104 1.09026 1.64388 23.6876
597 1 -1.1104 1.09969 1.7862 26.4202
603 2 2.2208 5.19445 3.17824 25.0607
607 1 -1.1104 4.01076 1.79849 23.6317
610 1 -1.1104 3.6593 1.73551 26.4963
612 2 2.2208 2.4645 3.05842 22.1022
656 2 2.2208 5.33821 5.7534 22.178
660 1 -1.1104 1.07433 7.28523 26.3261
662 1 -1.1104 1.02568 4.54891 23.412
667 1 -1.1104 1.14723 4.539 26.4184
672 2 2.2208 2.47993 5.90686 24.8583
674 1 -1.1104 3.78973 7.23113 26.3154
676 1 -1.1104 3.8241 4.53433 23.386
678 1 -1.1104 4.05748 4.61562 26.3453
671 1 -1.1104 3.72532 7.51797 23.4973
658 1 -1.1104 0.89009 7.22386 23.4771
714 1 -1.1104 6.57958 15.8844 26.2613
669 1 -1.1104 6.88586 4.73776 26.3337
623 2 2.2208 -0.290371 17.4543 21.9168
461 2 2.2208 13.5988 19.9905 22.173
482 1 -1.1104 6.72652 4.37927 20.6796
509 1 -1.1104 12.4523 4.79396 20.8811
659 1 -1.1104 6.58288 7.13386 23.4057
664 1 -1.1104 6.87825 4.55782 23.4021
595 1 -1.1104 6.82744 1.82195 23.4447
449 1 -1.1104 9.52283 1.65375 20.524
599 1 -1.1104 6.49889 1.72606 26.3897
629 1 -1.1104 12.5523 1.7988 23.72
631 1 -1.1104 12.16 1.79965 26.4258
634 2 2.2208 10.8733 3.14392 25.0414
637 1 -1.1104 9.75643 1.68524 23.6471
640 1 -1.1104 9.4604 1.82563 26.4134
642 2 2.2208 8.14561 3.12816 22.0621
688 1 -1.1104 9.54584 4.58544 26.5342
690 1 -1.1104 9.50699 4.56974 23.5614
694 2 2.2208 8.18131 6.06043 24.8206
695 2 2.2208 10.7066 5.97501 22.1042
697 1 -1.1104 11.9556 7.4366 23.5297
699 1 -1.1104 12.0727 4.55365 23.473
702 1 -1.1104 12.5645 4.90185 26.394
704 1 -1.1104 9.39372 7.37958 23.4601
698 1 -1.1104 12.1866 7.52083 26.2282
692 1 -1.1104 9.44841 7.31851 26.1426
661 1 -1.1104 6.52796 7.55845 26.4037
615 2 2.2208 7.85712 14.3325 22.0877
526 2 2.2208 10.8556 20.3998 24.9117
616 2 2.2208 8.2569 20.263 21.8862
499 1 -1.1104 12.2459 18.9141 26.223
552 1 -1.1104 3.7741 13.0013 20.5942
484 1 -1.1104 6.8476 9.92107 20.6355
680 1 -1.1104 6.58056 15.6504 23.6176
496 1 -1.1104 3.86891 10.0864 20.794
533 1 -1.1104 0.966177 13.09 20.7182
657 2 2.2208 5.37952 11.4633 21.9342
663 1 -1.1104 0.920513 9.99822 23.7309
666 2 2.2208 5.34517 8.80398 24.9887
668 1 -1.1104 0.960548 9.91257 26.2485
673 2 2.2208 2.44838 11.5839 24.749
675 2 2.2208 2.42303 8.72319 22.2232
677 1 -1.1104 3.79901 10.0978 23.6423
679 1 -1.1104 3.95278 10.1635 26.2803
681 1 -1.1104 3.88147 12.8285 26.2066
706 1 -1.1104 0.957821 12.9038 23.5117
713 1 -1.1104 3.84842 12.8431 23.2735
717 1 -1.1104 1.2074 13.0241 26.2507
427 2 2.2208 -0.350324 3.26918 19.3458
712 1 -1.1104 6.7613 13.1737 26.2576
709 1 -1.1104 6.52975 12.7231 23.3816
562 1 -1.1104 9.51486 18.8321 23.281
459 2 2.2208 13.6073 -2.35196 16.514
537 1 -1.1104 6.67868 12.7999 20.6027
511 1 -1.1104 12.1943 10.3449 20.6447
670 1 -1.1104 6.82318 10.1728 26.2891
567 1 -1.1104 12.2544 13.1452 20.7545
665 1 -1.1104 6.7814 9.92284 23.3154
463 1 -1.1104 12.0954 13.3148 23.6644
687 1 -1.1104 9.31684 10.2235 26.3448
689 1 -1.1104 9.60149 10.2554 23.5108
691 2 2.2208 8.1887 8.66856 22.1566
693 2 2.2208 8.14215 11.5994 24.8331
696 2 2.2208 10.7765 11.7924 21.9841
700 1 -1.1104 12.2341 10.3362 23.3321
701 2 2.2208 10.8893 8.76129 24.8492
703 1 -1.1104 12.1327 10.3378 26.2616
498 1 -1.1104 12.2358 13.5764 26.1517
589 1 -1.1104 9.49963 13.1134 26.3299
561 1 -1.1104 9.24949 12.898 23.4742
8860 2 2.2208 -0.498047 -5.1902 27.7304
545 1 -1.1104 1.04692 15.9637 20.6308
626 2 2.2208 -0.267402 3.22327 25.0358
535 1 -1.1104 0.944854 18.8403 20.5254
559 1 -1.1104 3.7846 15.8772 20.5823
720 2 2.2208 5.19052 14.3855 24.8164
647 2 2.2208 2.32299 14.4713 21.8912
707 1 -1.1104 1.02349 18.7246 23.2883
705 2 2.2208 5.16775 17.2617 21.8467
686 1 -1.1104 3.82347 18.6611 26.135
683 2 2.2208 2.36965 17.2654 24.8466
719 2 2.2208 5.25512 20.0086 24.7362
716 1 -1.1104 0.966407 15.8269 26.4836
682 1 -1.1104 3.6898 15.7654 26.3254
715 1 -1.1104 0.764169 18.6943 26.0838
655 1 -1.1104 0.968876 15.8896 23.3779
711 1 -1.1104 3.73779 18.5139 23.2904
652 1 -1.1104 3.65631 15.7472 23.4884
649 2 2.2208 2.51636 20.0025 22.1269
347 2 2.2208 8.0796 14.574 27.6615
382 2 2.2208 -0.238339 11.7402 27.8082
651 2 2.2208 13.5423 6.14285 19.4213
379 2 2.2208 5.04623 6.07771 27.7989
455 2 2.2208 13.5822 17.3415 24.981
8858 2 2.2208 5.33311 -5.1413 27.8211
8854 2 2.2208 10.8932 -5.15014 27.718
421 2 2.2208 -0.248159 6.02142 21.9866
374 2 2.2208 5.15647 17.2738 27.568
385 2 2.2208 8.19059 8.80567 27.7107
348 2 2.2208 10.8321 17.4344 27.6871
375 2 2.2208 2.32712 19.9415 27.4832
386 2 2.2208 10.9895 11.7452 27.7736
340 2 2.2208 13.5573 0.294068 13.6927
710 2 2.2208 13.7058 6.22421 24.7829
344 2 2.2208 13.723 14.6057 27.705
708 2 2.2208 13.5393 11.8256 24.8266
367 2 2.2208 -0.402824 8.81175 13.7664
351 2 2.2208 2.24755 5.99712 13.7962
625 2 2.2208 -0.364652 0.495761 22.0426
372 2 2.2208 8.11274 3.23017 27.7349
425 2 2.2208 -0.480328 -2.41715 19.3754
646 2 2.2208 -0.330453 14.466 24.8832
359 2 2.2208 5.34866 14.5997 13.7865
426 2 2.2208 13.5886 8.97748 16.4124
380 2 2.2208 2.45427 8.7595 27.6052
424 2 2.2208 -0.280138 0.396065 16.5765
354 2 2.2208 7.86844 6.14397 13.7227
384 2 2.2208 10.8449 5.97144 27.6813
648 2 2.2208 -0.425754 11.4385 16.4881
619 2 2.2208 13.6191 14.6509 16.5198
360 2 2.2208 11.0152 20.1425 13.7256
721 2 2.2208 5.15285 22.8422 5.10932
723 1 -1.1104 1.16078 24.0976 0.864151
724 1 -1.1104 0.972601 24.283 3.81965
725 1 -1.1104 0.997324 21.497 0.951895
727 2 2.2208 5.37013 25.6995 2.41922
728 1 -1.1104 0.90646 21.4092 3.54966
730 1 -1.1104 3.89091 24.3777 0.695347
731 2 2.2208 2.52813 22.8289 2.20611
733 1 -1.1104 3.87732 24.547 3.44831
734 2 2.2208 2.23516 25.7677 5.15942
735 1 -1.1104 3.72791 21.393 0.700627
737 1 -1.1104 3.93304 21.364 3.48464
738 1 -1.1104 3.98917 27.304 4.09018
736 1 -1.1104 3.83276 27.0613 1.18394
870 1 -1.1104 3.92233 27.2885 6.6094
729 1 -1.1104 0.951744 26.9426 3.66673
741 2 2.2208 -0.318828 22.8932 5.0658
863 1 -1.1104 6.47289 24.0633 6.65756
726 1 -1.1104 1.20194 27.0793 1.03259
739 2 2.2208 -0.386436 25.5652 2.36978
868 1 -1.1104 3.62584 24.4531 6.44542
864 1 -1.1104 0.843033 21.4308 6.3385
869 1 -1.1104 3.95151 21.4229 6.42364
1040 2 2.2208 -0.189589 31.4494 7.83211
746 1 -1.1104 6.7988 21.6986 3.63347
744 1 -1.1104 6.50753 21.7583 0.819194
742 1 -1.1104 6.64452 24.277 0.833423
743 1 -1.1104 6.43212 24.3077 3.84535
748 2 2.2208 10.9046 23.0522 5.01808
750 1 -1.1104 12.4195 24.304 0.768236
751 1 -1.1104 12.159 24.2693 3.62574
752 1 -1.1104 12.2301 21.4475 0.739007
754 2 2.2208 10.7928 25.7375 2.19813
755 1 -1.1104 12.2882 21.6339 3.66491
757 1 -1.1104 9.63245 24.1006 0.82815
758 2 2.2208 7.9988 23.1279 2.27697
760 1 -1.1104 9.34932 24.6195 3.61133
761 2 2.2208 8.19161 25.8412 5.00632
762 1 -1.1104 9.34433 21.4963 0.805932
764 1 -1.1104 9.44323 21.886 3.66381
895 1 -1.1104 12.4035 24.5365 6.32305
897 1 -1.1104 12.4016 27.3333 6.18375
896 1 -1.1104 12.2665 21.6928 6.36437
747 1 -1.1104 6.78306 27.2026 3.54442
866 1 -1.1104 6.5171 21.4378 6.61249
745 1 -1.1104 6.69112 27.0272 0.814744
756 1 -1.1104 12.2084 27.2064 3.33017
753 1 -1.1104 12.4236 27.1617 0.694144
898 1 -1.1104 9.61731 24.3568 6.34887
10176 2 2.2208 -0.389258 42.4488 8.15442
1047 2 2.2208 8.02097 28.6004 13.432
722 2 2.2208 5.3434 28.5959 5.23163
732 2 2.2208 2.67082 28.5164 2.42978
770 1 -1.1104 1.17887 29.9576 0.891828
773 1 -1.1104 1.22198 30.1256 3.71409
776 1 -1.1104 1.07228 32.9705 0.823204
777 2 2.2208 5.28622 31.5575 2.19589
779 1 -1.1104 0.875539 33.0383 3.78182
781 1 -1.1104 3.94113 30.1238 0.916793
784 1 -1.1104 3.96025 30.2727 3.78341
786 2 2.2208 2.5129 31.717 5.05789
788 1 -1.1104 3.7811 32.9335 1.08354
789 1 -1.1104 3.66365 33.0708 3.73349
780 1 -1.1104 6.53744 32.9945 3.64558
921 1 -1.1104 6.50884 29.9954 6.67454
793 1 -1.1104 6.63484 29.8986 0.85684
919 1 -1.1104 1.21425 29.8649 6.43929
927 1 -1.1104 3.97963 32.9866 6.5742
925 1 -1.1104 3.86449 30.1516 6.69334
924 1 -1.1104 6.64815 32.7797 6.53971
1418 1 -1.1104 3.86881 46.7884 1.15017
763 1 -1.1104 9.47247 27.0816 0.771787
794 1 -1.1104 6.71737 30.3042 3.71079
765 1 -1.1104 9.49193 27.2702 3.6289
795 1 -1.1104 6.9241 32.7046 0.888555
749 2 2.2208 10.9806 28.6176 5.0015
759 2 2.2208 8.35931 28.6238 2.21444
797 1 -1.1104 12.3499 30.1897 0.63136
799 1 -1.1104 12.6148 29.8419 3.62681
801 1 -1.1104 12.6461 33.1103 0.863843
802 2 2.2208 11.0683 31.4203 2.31752
804 1 -1.1104 12.6424 32.7173 3.45742
805 1 -1.1104 9.75424 30.0528 0.947521
808 1 -1.1104 9.4991 30.1845 3.64923
810 2 2.2208 8.03938 31.3061 5.2187
812 1 -1.1104 9.67298 32.7087 0.868856
813 1 -1.1104 9.43755 32.6955 3.70252
956 1 -1.1104 9.36449 29.8687 6.55724
955 1 -1.1104 12.0567 32.5537 6.32592
867 1 -1.1104 6.84348 27.1828 6.3459
958 1 -1.1104 9.51821 32.7052 6.58807
953 1 -1.1104 12.1845 29.9807 6.56062
10177 2 2.2208 -0.377858 39.875 10.8475
769 2 2.2208 5.45467 34.286 5.06479
771 1 -1.1104 0.880551 35.895 0.822495