ITEM: TIMESTEP
10000
ITEM: NUMBER OF ATOMS
17700
ITEM: BOX BOUNDS pp pp pp
-4.3926282581702680e-01 2.7779262825817401e+01
-5.3821335742067244e+00 3.3346213357421010e+02
-4.3747355287397849e-01 2.7777473552874035e+01
ITEM: ATOMS id type q x y z
1 2 2.2208 5.25552 0.148862 5.23415
2 1 -1.1104 0.934784 -3.94025 0.830178
6 1 -1.1104 1.08575 -3.80773 3.54375
10 1 -1.1104 0.76632 -1.17653 0.833582
12 2 2.2208 5.21378 -2.47658 2.40283
14 1 -1.1104 1.07912 -1.23378 3.59532
16 1 -1.1104 3.56671 -3.66445 0.818962
18 2 2.2208 2.47411 0.228912 2.47631
19 1 -1.1104 3.93991 -3.70288 3.65819
21 2 2.2208 2.489 -2.47151 5.09581
23 1 -1.1104 3.92819 -0.951755 0.957834
24 1 -1.1104 3.93257 -1.12531 3.78157
11 1 -1.1104 6.55158 -1.18728 0.952562
8 1 -1.1104 6.63979 -3.9885 3.81992
168 1 -1.1104 6.6294 -3.77986 6.49275
15 1 -1.1104 6.50369 -1.08289 3.60253
171 1 -1.1104 6.82842 -1.17747 6.72197
174 1 -1.1104 3.85088 -1.184 6.66208
231 2 2.2208 13.4824 19.7948 5.20713
4 1 -1.1104 6.49039 -3.88741 0.784347
8850 2 2.2208 13.5753 -5.32762 8.04068
31 2 2.2208 10.9129 0.397539 5.23786
32 1 -1.1104 12.0246 -3.76737 1.03722
34 1 -1.1104 12.3008 -3.83635 3.96456
36 1 -1.1104 12.1164 -1.08534 1.06533
37 2 2.2208 10.8604 -2.48594 2.4954
39 1 -1.1104 12.3681 -1.07904 3.97188
40 1 -1.1104 9.24395 -3.88777 1.03539
42 2 2.2208 7.90151 0.296502 2.22517
43 1 -1.1104 9.37221 -3.88254 3.84461
45 2 2.2208 7.89394 -2.59091 5.10886
47 1 -1.1104 9.21369 -1.17192 0.888862
48 1 -1.1104 9.51102 -1.10209 3.89501
361 2 2.2208 10.8103 14.364 13.567
210 1 -1.1104 9.47671 -0.99538 6.55391
343 2 2.2208 7.80904 0.335659 13.4955
358 2 2.2208 5.19106 19.9434 13.6662
8849 2 2.2208 10.76 -5.37636 10.6562
149 1 -1.1104 12.0918 15.8857 6.42262
3 1 -1.1104 1.00338 1.5321 0.905567
7 1 -1.1104 1.03744 1.64593 3.85502
13 2 2.2208 5.32713 2.97657 2.33146
17 1 -1.1104 4.0179 1.68074 0.940682
20 1 -1.1104 3.89172 1.75279 3.58037
22 2 2.2208 2.39058 3.0876 5.22468
54 2 2.2208 5.00858 5.9171 5.30761
56 1 -1.1104 0.946077 7.08218 0.966301
58 1 -1.1104 0.907953 7.31404 3.66169
60 1 -1.1104 0.936581 4.25142 0.759537
67 1 -1.1104 1.01254 4.45702 3.80599
71 1 -1.1104 3.76012 7.17159 1.08123
72 2 2.2208 2.33787 5.75624 2.37925
74 1 -1.1104 3.70978 7.11947 3.62104
76 1 -1.1104 3.61529 4.31199 0.952267
79 1 -1.1104 3.63429 4.52078 3.9431
5 1 -1.1104 6.77856 2.03648 1.03677
9 1 -1.1104 6.5586 1.8006 3.77635
59 1 -1.1104 6.40295 7.48012 3.62711
169 1 -1.1104 6.66768 1.75879 6.52167
238 1 -1.1104 3.74364 7.22876 6.71292
236 1 -1.1104 0.999771 4.43739 6.47669
234 1 -1.1104 1.00813 7.27515 6.48906
235 1 -1.1104 6.57285 7.54681 6.4697
237 1 -1.1104 6.52734 4.8372 6.59037
57 1 -1.1104 6.36556 7.52749 0.792422
63 1 -1.1104 6.43273 4.65329 0.965588
53 2 2.2208 13.5082 11.3371 8.02598
365 2 2.2208 2.25377 -2.36919 -0.43656
69 1 -1.1104 6.38603 4.7118 3.90915
33 1 -1.1104 12.036 1.78725 0.836507
35 1 -1.1104 12.0118 1.72659 3.80028
38 2 2.2208 10.7168 3.33096 2.2787
41 1 -1.1104 9.42733 1.82143 0.879898
44 1 -1.1104 9.39651 1.84529 3.63613
46 2 2.2208 7.96143 3.18692 5.101
84 2 2.2208 10.4252 6.11989 5.30668
88 1 -1.1104 12.128 4.62985 0.744279
92 1 -1.1104 12.1011 4.45333 3.5413
94 1 -1.1104 9.1777 7.46161 0.902999
95 2 2.2208 7.75787 6.12698 2.34689
97 1 -1.1104 9.14233 7.37683 3.6816
99 1 -1.1104 9.30644 4.79526 0.944455
102 1 -1.1104 9.35843 4.62812 3.9518
86 1 -1.1104 12.1445 7.20089 0.905719
206 1 -1.1104 12.219 1.84025 6.53431
104 2 2.2208 13.6209 11.4288 2.51061
269 1 -1.1104 9.25634 4.6458 6.53325
209 1 -1.1104 9.45797 1.85283 6.56611
267 1 -1.1104 9.13334 7.54781 6.58756
55 2 2.2208 4.98505 11.5181 5.16849
61 1 -1.1104 0.684738 10.0533 0.908485
66 2 2.2208 5.06639 8.63162 2.2484
68 1 -1.1104 0.925423 10.2392 3.78274
73 2 2.2208 2.29268 11.512 2.16751
75 2 2.2208 2.24903 8.61088 5.13664
77 1 -1.1104 3.71718 10.2858 0.892408
80 1 -1.1104 3.5476 9.89194 3.63651
107 1 -1.1104 0.879883 12.6983 0.826924
113 1 -1.1104 0.850045 12.9733 3.53716
123 1 -1.1104 3.81002 12.9851 0.950735
128 1 -1.1104 3.50693 13.0466 3.60978
110 1 -1.1104 6.5958 13.1979 0.962993
64 1 -1.1104 6.49051 10.4303 0.854321
62 1 -1.1104 0.772043 10.0206 6.51496
70 1 -1.1104 6.43966 10.1995 3.79142
115 1 -1.1104 6.32271 12.9073 3.7399
356 2 2.2208 7.9773 11.3531 13.6503
124 1 -1.1104 3.80837 12.9096 6.66142
78 1 -1.1104 3.63909 10.0412 6.6282
108 1 -1.1104 1.01273 12.8643 6.55461
65 1 -1.1104 6.59746 10.0769 6.58299
111 1 -1.1104 6.57182 12.8857 6.45633
346 2 2.2208 10.7516 -2.61738 13.5644
87 1 -1.1104 12.1323 7.18547 3.92953
85 2 2.2208 10.6767 11.496 5.29442
89 1 -1.1104 12.2609 10.177 0.994482
91 2 2.2208 10.6396 8.65989 2.38953
93 1 -1.1104 12.1273 9.86004 3.76671
96 2 2.2208 7.87572 11.5966 2.45354
98 2 2.2208 7.88477 8.8348 5.10877
100 1 -1.1104 9.19201 10.2065 1.06232
103 1 -1.1104 9.53566 10.0867 3.91447
142 1 -1.1104 12.1279 13.1259 1.06251
146 1 -1.1104 12.1348 12.8531 3.90269
153 1 -1.1104 9.29301 13 1.07071
158 1 -1.1104 9.03294 13.3105 3.76372
143 1 -1.1104 12.1623 12.843 6.68425
106 2 2.2208 4.9448 17.0209 5.23447
109 1 -1.1104 0.818622 18.3138 1.03436
114 1 -1.1104 0.810642 18.5532 3.91768
116 1 -1.1104 0.847017 15.7051 0.699442
119 2 2.2208 5.18552 14.3926 2.31937
120 2 2.2208 5.04493 19.9744 2.45356
121 1 -1.1104 0.640932 15.7402 3.49636
125 1 -1.1104 3.75529 18.597 0.853154
127 2 2.2208 2.3311 17.0517 2.24523
129 1 -1.1104 3.55475 18.6373 3.72771
130 2 2.2208 2.1776 14.4351 5.04665
131 2 2.2208 2.16605 19.9998 5.1494
132 1 -1.1104 3.62427 15.8835 0.867695
134 1 -1.1104 3.80793 15.7522 3.83212
138 1 -1.1104 6.61423 18.4503 0.762203
117 1 -1.1104 0.653755 15.6516 6.29727
126 1 -1.1104 3.40861 18.6069 6.81411
112 1 -1.1104 6.17452 18.2677 6.68165
139 1 -1.1104 6.28908 18.7055 3.63818
122 1 -1.1104 6.6336 15.859 3.76346
118 1 -1.1104 6.44609 15.5355 6.6764
133 1 -1.1104 3.36728 15.7416 6.76911
8844 2 2.2208 13.4894 -5.15388 2.23908
336 2 2.2208 13.6617 5.97175 13.6305
160 2 2.2208 7.8974 14.4622 5.17335
140 1 -1.1104 6.47425 15.899 0.926251
156 1 -1.1104 9.17257 18.7551 6.64108
150 2 2.2208 10.6294 14.4772 2.44687
141 2 2.2208 10.6816 17.2061 5.21315
144 1 -1.1104 12.0797 18.6389 1.1121
147 1 -1.1104 11.8936 18.6996 4.0707
148 1 -1.1104 12.2506 15.8097 1.01402
151 2 2.2208 10.8116 19.9951 2.53267
152 1 -1.1104 12.0764 15.6399 3.84777
155 1 -1.1104 9.35529 18.6678 1.10627
157 2 2.2208 7.83395 17.3406 2.41443
159 1 -1.1104 9.14204 18.6112 3.86483
161 2 2.2208 7.94633 20.059 5.20966
162 1 -1.1104 9.38466 15.8891 1.05691
164 1 -1.1104 9.19284 15.8547 3.91461
145 1 -1.1104 12.2853 18.5068 6.68885
8842 2 2.2208 7.97792 -5.29004 2.33091
8866 2 2.2208 2.11515 -5.2364 13.5554
172 1 -1.1104 3.87091 -3.95054 6.65751
202 2 2.2208 13.4589 6.00178 7.91853
166 1 -1.1104 1.13264 -4.10294 6.40354
170 1 -1.1104 1.02058 -1.15712 6.40936
175 2 2.2208 5.08042 0.335148 10.6842
176 1 -1.1104 0.719176 -3.95625 11.9319
180 1 -1.1104 0.931327 -3.93903 9.22186
184 1 -1.1104 0.813288 -1.18334 12.1342
186 2 2.2208 5.27595 -2.44952 8.20338
188 1 -1.1104 0.835676 -1.21614 9.26856
190 1 -1.1104 3.6622 -3.79914 12.2098
192 2 2.2208 2.53486 0.322387 7.97558
193 1 -1.1104 3.71432 -3.9873 9.31587
195 2 2.2208 2.30613 -2.53634 10.6756
197 1 -1.1104 3.7102 -1.0323 11.9542
198 1 -1.1104 3.9 -1.21799 9.42414
182 1 -1.1104 6.63464 -3.76183 9.37102
189 1 -1.1104 6.71918 -0.847071 9.21884
185 1 -1.1104 6.56023 -1.2281 12.1615
178 1 -1.1104 6.67519 -4.1278 12.2439
207 1 -1.1104 12.2492 -0.925546 6.7632
205 1 -1.1104 12.4372 -3.89046 6.66235
208 1 -1.1104 9.59939 -3.86087 6.64828
211 2 2.2208 10.8689 0.401785 10.8528
212 1 -1.1104 12.3666 -3.92362 12.2287
214 1 -1.1104 12.3174 -3.95059 9.35462
216 1 -1.1104 12.3339 -1.1445 12.2212
217 2 2.2208 10.7292 -2.29579 8.14512
219 1 -1.1104 12.2151 -1.09876 9.5081
220 1 -1.1104 9.42455 -4.07926 12.0765
222 2 2.2208 8.0858 0.351581 7.82025
223 1 -1.1104 9.54719 -3.80125 9.36225
225 2 2.2208 8.20151 -2.54803 10.7839
227 1 -1.1104 9.38038 -1.2078 12.3484
228 1 -1.1104 9.59894 -0.885204 9.59121
8846 2 2.2208 5.18422 -5.1823 10.7619
369 2 2.2208 10.7134 0.391002 -0.258462
337 2 2.2208 -0.304164 3.12472 13.4383
327 1 -1.1104 12.0935 18.4827 9.34057
167 1 -1.1104 0.836489 1.73202 6.61234
173 1 -1.1104 3.89282 1.53005 6.55194
239 1 -1.1104 3.75946 4.40286 6.45604
233 2 2.2208 13.4298 3.20734 5.0768
177 1 -1.1104 1.04354 1.6477 12.3274
181 1 -1.1104 1.20181 1.57801 9.61667
187 2 2.2208 5.25477 3.08367 7.91249
191 1 -1.1104 3.80014 1.70308 12.1123
194 1 -1.1104 3.87817 1.65897 9.26333
196 2 2.2208 2.48462 3.03751 10.8062
240 2 2.2208 5.18192 5.91699 10.8246
242 1 -1.1104 0.89607 7.29549 12.0644
246 1 -1.1104 1.12428 4.49348 12.1655
251 1 -1.1104 1.12893 4.55204 9.3916
255 1 -1.1104 3.84108 7.14827 12.189
256 2 2.2208 2.35095 5.86735 7.92887
258 1 -1.1104 3.86196 7.05842 9.4766
260 1 -1.1104 3.92513 4.35902 12.1126
262 1 -1.1104 3.81109 4.41316 9.36561
183 1 -1.1104 6.61572 1.97184 9.35548
244 1 -1.1104 0.918652 7.27005 9.41941
245 1 -1.1104 6.52526 7.16922 9.2383
243 1 -1.1104 6.64233 7.36126 12.3304
253 1 -1.1104 6.66128 4.58559 9.27512
248 1 -1.1104 6.76305 4.68334 12.183
266 1 -1.1104 12.1156 4.81152 6.36566
17388 2 2.2208 13.6864 -5.36228 13.4165
8840 2 2.2208 5.09626 -5.126 5.16063
338 2 2.2208 5.16409 -2.5892 13.5437
179 1 -1.1104 6.54912 1.75798 12.2479
265 1 -1.1104 11.7977 7.36073 6.71703
213 1 -1.1104 12.467 1.69879 12.1303
215 1 -1.1104 12.2061 1.94498 9.34022
218 2 2.2208 10.8284 3.31493 7.95283
221 1 -1.1104 9.54669 1.59168 12.308
224 1 -1.1104 9.51187 1.72098 9.24276
226 2 2.2208 8.02955 3.21676 10.6673
268 1 -1.1104 9.48112 4.65194 9.49337
271 1 -1.1104 9.55293 4.40879 12.4925
273 1 -1.1104 9.31105 7.31124 9.39507
275 2 2.2208 7.94887 5.87126 7.98215
276 2 2.2208 10.9523 5.91688 10.8184
278 1 -1.1104 12.2519 7.27891 12.1671
279 1 -1.1104 12.1239 7.47735 9.20905
280 1 -1.1104 12.2025 4.33447 12.2079
283 1 -1.1104 12.441 4.65582 9.45833
285 1 -1.1104 9.67889 7.25026 12.5108
105 2 2.2208 13.5058 5.98589 2.25759
315 1 -1.1104 9.22873 15.4941 12.4704
241 2 2.2208 5.1051 11.4999 10.7593
247 1 -1.1104 0.990634 9.95883 12.3806
250 2 2.2208 5.22543 8.61182 8.01959
252 1 -1.1104 0.834806 10.0828 9.26835
257 2 2.2208 2.36312 11.4054 7.91373
259 2 2.2208 2.223 8.69156 10.8896
261 1 -1.1104 3.81031 10.2952 12.2932
263 1 -1.1104 3.73509 9.91756 9.52824
294 1 -1.1104 1.02471 12.8176 9.29376
287 1 -1.1104 3.35463 13.1261 12.3954
299 1 -1.1104 0.683987 12.7677 12.0903
305 1 -1.1104 3.80985 12.8077 9.39252
254 1 -1.1104 6.50838 10.0164 9.66845
249 1 -1.1104 6.62197 10.0732 12.4432
90 1 -1.1104 12.2074 10.0017 6.60819
101 1 -1.1104 9.37787 10.2032 6.58454
316 2 2.2208 8.16584 19.8863 10.8042
83 2 2.2208 -0.410983 11.6193 5.13552
290 1 -1.1104 6.48672 12.8617 9.33427
297 1 -1.1104 6.22843 12.9647 12.0508
154 1 -1.1104 9.2986 12.9347 6.43932
319 1 -1.1104 9.34388 12.8948 9.37358
264 1 -1.1104 9.39031 10.2259 9.53827
270 1 -1.1104 9.50112 10.2053 12.3008
272 2 2.2208 7.94793 8.66388 10.8562
274 2 2.2208 8.02832 11.4967 7.92025
277 2 2.2208 10.593 11.5675 10.9276
281 1 -1.1104 12.3777 10.1026 12.4668
282 2 2.2208 10.5828 8.91166 8.04019
284 1 -1.1104 12.0332 10.2752 9.31894
330 1 -1.1104 12.2353 12.8883 12.2456
328 1 -1.1104 12.0837 13.0425 9.47986
322 1 -1.1104 9.31704 12.9071 12.2077
318 1 -1.1104 9.53035 18.5131 9.4542
302 1 -1.1104 0.728108 18.3767 6.78165
314 1 -1.1104 9.26215 15.7341 9.8088
310 2 2.2208 2.33245 14.3427 10.7282
304 1 -1.1104 3.68929 15.8438 9.52213
298 1 -1.1104 1.09587 18.4462 12.1809
301 1 -1.1104 4.04269 18.6113 9.50087
295 2 2.2208 4.91417 14.3301 7.98161
291 1 -1.1104 0.881945 18.3905 9.6274
300 2 2.2208 5.29801 17.1371 10.9259
286 1 -1.1104 3.81155 18.5573 12.2563
293 2 2.2208 5.03448 20.0139 8.07858
303 2 2.2208 2.2678 17.0941 8.15129
309 2 2.2208 2.39501 20.0843 10.8342
308 1 -1.1104 3.58965 15.638 12.2617
307 1 -1.1104 0.821714 15.707 12.0396
292 1 -1.1104 0.986059 15.5983 9.21562
296 1 -1.1104 6.69743 18.54 12.2818
288 1 -1.1104 6.65204 18.5084 9.61029
329 1 -1.1104 12.1136 18.4587 12.1628
323 1 -1.1104 12.2936 15.7495 9.43174
320 2 2.2208 7.79278 17.1158 8.109
229 2 2.2208 13.4923 0.357091 8.17368
163 1 -1.1104 9.27198 15.763 6.90662
333 2 2.2208 13.5271 14.1855 10.8904
306 1 -1.1104 6.60319 15.8807 12.4978
289 1 -1.1104 6.47269 15.8592 9.33307
351 2 2.2208 2.29626 5.77467 13.4826
326 1 -1.1104 12.1009 15.7341 12.2479
324 2 2.2208 10.7198 19.9463 7.96054
317 2 2.2208 7.85529 14.0172 10.9014
321 1 -1.1104 9.42807 18.6112 12.3681
331 2 2.2208 10.8031 17.12 10.9677
325 2 2.2208 10.6808 14.5028 8.10348
52 2 2.2208 13.6037 8.53163 10.7208
28 2 2.2208 13.5731 20.0107 10.8494
312 2 2.2208 -0.450094 16.9407 10.7814
25 2 2.2208 -0.394467 -2.56428 2.38707
201 2 2.2208 -0.391045 0.162614 10.8183
8843 2 2.2208 10.9439 -5.29019 5.23767
49 2 2.2208 13.4581 0.38784 2.46362
204 2 2.2208 13.4884 14.1262 5.39097
339 2 2.2208 2.45487 0.321328 13.6885
341 2 2.2208 5.16477 3.14571 13.5259
26 2 2.2208 -0.423449 0.223438 5.20165
344 2 2.2208 13.4604 14.2841 -0.363916
386 2 2.2208 10.7769 11.594 -0.425962
232 2 2.2208 13.4676 8.67385 5.135
199 2 2.2208 -0.432916 3.10877 7.95004
345 2 2.2208 13.5065 20.0167 -0.315718
348 2 2.2208 10.6065 17.3679 -0.412796
353 2 2.2208 2.2825 11.4881 13.6223
81 2 2.2208 -0.366728 5.93183 5.05383
200 2 2.2208 -0.245255 -2.56994 7.74023
357 2 2.2208 2.3728 17.1913 13.6071
347 2 2.2208 8.03043 14.5688 -0.428125
379 2 2.2208 5.07023 5.76375 -0.389308
349 2 2.2208 8.00014 20.1505 -0.346416
362 2 2.2208 8.16115 17.1412 13.5676
384 2 2.2208 10.6629 6.02455 -0.437759
388 2 2.2208 5.39595 0.434083 16.3461
389 1 -1.1104 0.713812 -4.16319 17.7657
393 1 -1.1104 0.755233 -4.23143 14.8604
401 1 -1.1104 0.818962 -1.51365 17.6955
403 2 2.2208 5.08367 -2.44494 19.1331
405 1 -1.1104 1.02158 -1.13283 15.0376
409 1 -1.1104 3.81171 -3.8552 17.7788
411 2 2.2208 2.42179 0.271495 19.3036
412 1 -1.1104 3.67394 -3.99052 14.822
416 2 2.2208 2.30543 -2.7026 16.4243
418 1 -1.1104 3.72742 -1.14775 17.5053
419 1 -1.1104 3.62891 -1.39832 14.8387
406 1 -1.1104 0.710694 -1.08038 20.5788
391 1 -1.1104 6.58342 -3.87159 17.9299
407 1 -1.1104 6.65761 -1.09278 14.9533
397 1 -1.1104 6.76931 -3.97088 15.0705
408 1 -1.1104 6.75551 -1.12472 20.6414
402 1 -1.1104 6.65488 -1.16917 17.9192
420 1 -1.1104 3.79816 -1.11242 20.3663
646 2 2.2208 -0.380855 14.1698 25.019
8858 2 2.2208 5.0293 -5.22179 27.5162
8945 2 2.2208 13.5496 -5.32556 19.2099
431 2 2.2208 10.8352 0.181107 16.4347
432 1 -1.1104 12.2893 -3.84492 17.8876
434 1 -1.1104 12.1792 -3.94853 15.091
438 1 -1.1104 12.3534 -1.17769 17.5651
439 2 2.2208 10.6537 -2.57662 19.1984
441 1 -1.1104 12.2941 -1.21689 14.8263
443 1 -1.1104 9.46428 -3.8427 17.7624
445 2 2.2208 8.11114 0.266384 19.3049
446 1 -1.1104 9.41485 -4.1364 14.8985
450 2 2.2208 7.88248 -2.58754 16.4311
452 1 -1.1104 9.41807 -0.920324 17.7777
453 1 -1.1104 9.44714 -1.20476 15.0215
435 1 -1.1104 12.1192 -3.87229 20.6678
447 1 -1.1104 9.40756 -4.08855 20.6613
376 2 2.2208 13.6388 11.4946 13.6467
8907 2 2.2208 2.16489 -5.32994 24.8023
560 1 -1.1104 12.2082 15.7406 26.3672
390 1 -1.1104 1.06412 1.31749 17.7425
395 1 -1.1104 1.08464 1.79867 14.9825
404 2 2.2208 5.29674 3.16749 19.0757
410 1 -1.1104 3.91787 1.73266 17.7918
414 1 -1.1104 4.014 1.48199 14.7755
417 2 2.2208 2.32665 3.16429 16.5296
464 2 2.2208 4.9753 5.79821 16.4284
466 1 -1.1104 0.804562 7.45872 17.7636
468 1 -1.1104 1.00814 7.27821 14.8672
472 1 -1.1104 1.02856 4.54498 17.741
477 1 -1.1104 1.06957 4.64979 15.0386
486 2 2.2208 2.31473 6.01969 19.1724
488 1 -1.1104 3.80251 7.28675 15.0471
491 1 -1.1104 3.80016 4.37535 17.8345
493 1 -1.1104 3.83911 4.38036 15.1254
485 1 -1.1104 3.79176 7.35285 17.9094
399 1 -1.1104 6.78118 1.87965 14.9026
470 1 -1.1104 6.55943 7.20005 15.5113
392 1 -1.1104 6.60132 1.58614 17.8277
474 1 -1.1104 6.72267 4.42025 17.7629
481 1 -1.1104 6.45869 4.48778 15.0291
469 1 -1.1104 0.839076 7.18186 20.7434
489 1 -1.1104 3.58725 7.43989 20.8281
494 1 -1.1104 3.66084 4.68551 20.7294
471 1 -1.1104 6.43156 7.39354 20.8469
482 1 -1.1104 6.62256 4.50764 20.5723
400 1 -1.1104 6.626 1.63328 20.5354
430 2 2.2208 13.6428 14.6234 22.0685
587 2 2.2208 7.95295 17.437 24.8976
8905 2 2.2208 10.597 -5.29311 22.1501
467 1 -1.1104 6.5514 7.14481 18.0855
433 1 -1.1104 12.1526 1.64168 18.0782
436 1 -1.1104 12.3203 1.51762 15.0793
440 2 2.2208 10.7388 3.12333 19.3111
444 1 -1.1104 9.22402 1.86269 18.0849
448 1 -1.1104 9.4204 1.49168 15.2049
451 2 2.2208 8.1999 3.02215 16.3652
500 2 2.2208 10.8862 5.92794 16.4569
502 1 -1.1104 12.2885 7.3536 17.9176
503 1 -1.1104 12.1858 7.29925 15.0107
505 1 -1.1104 12.3103 4.50053 17.5928
508 1 -1.1104 12.3285 4.39664 14.9415
513 2 2.2208 8.10049 5.96573 19.1513
515 1 -1.1104 9.44282 7.35454 15.2574
518 1 -1.1104 9.55872 4.51149 17.9067
520 1 -1.1104 9.5657 4.4122 15.1679
512 1 -1.1104 9.36018 7.39837 17.8696
516 1 -1.1104 9.4602 7.33962 20.4123
449 1 -1.1104 9.44881 1.65316 20.8952
509 1 -1.1104 12.1535 4.64107 20.5667
437 1 -1.1104 12.0652 1.73989 20.7262
8943 2 2.2208 7.85721 -5.33336 19.2299
620 1 -1.1104 9.54511 15.9263 26.342
372 2 2.2208 8.06224 3.34229 27.7376
465 2 2.2208 5.14867 11.4762 16.254
473 1 -1.1104 1.10936 10.3468 17.9764
476 2 2.2208 5.11107 8.64105 19.4201
479 1 -1.1104 0.834329 10.0917 15.2449
487 2 2.2208 2.41613 11.7899 19.0367
490 2 2.2208 2.34752 8.88039 16.3517
492 1 -1.1104 3.89303 9.91352 17.7253
495 1 -1.1104 3.65188 10.1847 14.8798
528 1 -1.1104 0.889102 13.034 17.7596
532 1 -1.1104 0.875897 12.8062 14.9416
548 1 -1.1104 3.84519 13.0946 17.8927
551 1 -1.1104 3.71291 13.1134 15.202
483 1 -1.1104 6.59613 10.0347 14.9845
475 1 -1.1104 6.5808 10.1184 18.0035
552 1 -1.1104 3.69806 13.0453 20.558
480 1 -1.1104 0.920662 9.98633 20.8459
533 1 -1.1104 0.859038 12.8516 20.7437
536 1 -1.1104 6.44586 12.8153 14.9107
530 1 -1.1104 6.4931 12.8883 17.6394
537 1 -1.1104 6.72538 13.0696 20.6178
370 2 2.2208 8.05293 -2.46941 27.7034
501 2 2.2208 10.7481 11.5372 16.3901
506 1 -1.1104 12.3504 10.2063 17.945
507 2 2.2208 10.9641 8.72905 19.2857
510 1 -1.1104 12.1329 10.0558 15.0872
514 2 2.2208 7.93255 11.4641 19.316
517 2 2.2208 8.03759 8.76329 16.5664
519 1 -1.1104 9.44624 10.0483 17.8871
522 1 -1.1104 9.37611 10.0903 15.1501
564 1 -1.1104 12.1339 12.7743 17.8401
566 1 -1.1104 12.0832 12.885 14.8568
575 1 -1.1104 9.12477 12.7936 17.805
578 1 -1.1104 9.34426 12.895 14.9662
523 1 -1.1104 9.34936 10.0643 20.7719
377 2 2.2208 13.4841 -2.62586 27.7661
567 1 -1.1104 12.3062 13.099 20.9195
579 1 -1.1104 9.52171 12.9052 20.656
590 1 -1.1104 9.38639 18.9497 26.4411
387 2 2.2208 13.6739 8.65987 27.7341
542 2 2.2208 5.08845 14.4832 19.1669
527 2 2.2208 5.1812 17.2786 16.3635
529 1 -1.1104 0.721561 18.5077 17.8904
534 1 -1.1104 0.870099 18.668 14.9327
540 1 -1.1104 0.934057 15.9114 17.6548
543 2 2.2208 5.09547 20.0385 19.2489
544 1 -1.1104 0.933673 15.637 14.992
549 1 -1.1104 3.71729 18.752 17.7234
550 2 2.2208 2.27761 17.2396 19.2319
553 1 -1.1104 3.8743 18.6239 15.0478
555 2 2.2208 2.30433 14.39 16.3934
556 2 2.2208 2.35277 20.2448 16.3537
557 1 -1.1104 3.75554 15.9735 17.8427
558 1 -1.1104 3.76115 15.8525 15.0055
535 1 -1.1104 0.688126 18.4052 20.4779
559 1 -1.1104 3.60422 15.8249 20.6568
546 1 -1.1104 6.69405 15.5355 15.2365
547 1 -1.1104 6.45726 15.958 20.825
541 1 -1.1104 6.75114 15.7198 17.9335
616 2 2.2208 8.12339 20.0918 21.9599
374 2 2.2208 5.08188 17.3071 27.6453
531 1 -1.1104 6.49667 18.5249 18.0525
538 1 -1.1104 6.58013 18.5257 15.1373
563 2 2.2208 10.7267 17.1782 16.435
565 1 -1.1104 12.192 18.7228 17.9264
568 1 -1.1104 12.4077 18.6881 15.1651
570 1 -1.1104 12.2779 15.5492 17.6819
571 2 2.2208 10.8575 14.2452 19.2201
572 2 2.2208 10.8335 19.9191 19.2216
573 1 -1.1104 12.2321 15.8207 14.8257
576 1 -1.1104 9.44557 18.5445 17.6689
577 2 2.2208 8.14083 17.1406 19.3852
580 1 -1.1104 9.46614 18.53 15.1566
582 2 2.2208 7.94608 14.2378 16.4088
583 2 2.2208 8.02422 19.9796 16.427
584 1 -1.1104 9.59266 15.8619 17.9715
585 1 -1.1104 9.50139 15.6408 15.1929
569 1 -1.1104 12.4823 18.8147 20.6454
586 1 -1.1104 9.54874 15.6917 20.9464
363 2 2.2208 13.555 17.2546 13.7548
373 2 2.2208 2.16001 14.4689 27.4969
413 1 -1.1104 3.71373 -3.75727 20.6847
398 1 -1.1104 6.48841 -4.07012 20.5592
684 2 2.2208 -0.411386 8.7384 25.0466
394 1 -1.1104 1.02356 -3.85307 20.5135
591 2 2.2208 5.12313 0.401734 22.1608
592 1 -1.1104 0.622914 -3.93238 23.358
596 1 -1.1104 0.574915 -4.06362 26.2103
600 1 -1.1104 0.762757 -1.00985 23.2773
602 2 2.2208 5.10239 -2.52698 24.751
604 1 -1.1104 0.98014 -1.16171 25.9878
606 1 -1.1104 3.27862 -3.74319 23.3733
608 2 2.2208 2.28188 0.27548 24.6724
609 1 -1.1104 3.78414 -3.82065 26.0135
611 2 2.2208 2.2481 -2.32203 21.7511
613 1 -1.1104 3.75472 -1.09086 22.9729
614 1 -1.1104 3.48909 -1.06405 26.1463
598 1 -1.1104 6.62889 -3.85847 26.1891
594 1 -1.1104 6.46344 -3.88068 23.3767
601 1 -1.1104 6.56755 -0.947884 23.3074
375 2 2.2208 2.09919 19.8808 27.7854
454 1 -1.1104 9.55865 -1.02304 20.8001
442 1 -1.1104 12.0634 -1.12407 20.5293
422 2 2.2208 13.6288 8.82994 22.1183
605 1 -1.1104 6.4064 -1.0901 26.0515
615 2 2.2208 7.97767 14.4457 22.2049
423 2 2.2208 13.5328 3.18514 21.9834
627 2 2.2208 10.7794 0.335673 22.1967
628 1 -1.1104 12.3383 -3.71148 23.8443
630 1 -1.1104 12.2255 -4.08673 26.5076
632 1 -1.1104 11.9649 -1.11632 23.6222
633 2 2.2208 10.6272 -2.35627 25.0028
635 1 -1.1104 12.0708 -1.21217 26.3718
636 1 -1.1104 9.15547 -3.61618 23.602
638 2 2.2208 7.86811 0.420126 24.8145
639 1 -1.1104 9.48564 -3.89193 26.4419
641 2 2.2208 7.8842 -2.35098 22.1244
643 1 -1.1104 9.46231 -0.710686 23.5064
644 1 -1.1104 9.178 -0.882405 26.3239
654 2 2.2208 13.5596 0.36143 24.8307
456 2 2.2208 -0.443536 17.3013 16.3548
478 1 -1.1104 1.03769 4.41165 20.5634
396 1 -1.1104 0.832633 1.54174 20.4752
415 1 -1.1104 3.71485 1.6375 20.6952
593 1 -1.1104 0.951068 1.7632 23.2006
597 1 -1.1104 0.749708 1.49621 26.1358
603 2 2.2208 5.10543 3.10584 25.0199
607 1 -1.1104 3.7548 1.82135 23.4721
610 1 -1.1104 3.71044 1.60626 26.324
612 2 2.2208 2.36415 3.19181 22.1019
656 2 2.2208 5.01613 5.84916 22.2316
658 1 -1.1104 0.70829 7.30092 23.577
660 1 -1.1104 1.21791 7.17746 26.5469
662 1 -1.1104 0.823943 4.48777 23.3781
667 1 -1.1104 0.803354 4.40396 26.1528
672 2 2.2208 2.17838 5.82911 24.9817
674 1 -1.1104 3.83189 7.20897 26.4079
676 1 -1.1104 3.66082 4.52573 23.4594
678 1 -1.1104 3.5447 4.29341 26.2535
671 1 -1.1104 3.49472 7.3563 23.6266
599 1 -1.1104 6.65829 1.73252 26.375
595 1 -1.1104 6.65298 1.73573 23.6223
661 1 -1.1104 6.67449 7.21505 26.4945
525 2 2.2208 10.8703 14.5476 24.9565
521 1 -1.1104 9.51162 4.59616 20.6038
504 1 -1.1104 12.3203 7.36172 20.8501
364 2 2.2208 5.01195 0.268251 27.6723
664 1 -1.1104 6.36906 4.60682 23.5652
659 1 -1.1104 6.28061 7.26427 23.4839
629 1 -1.1104 12.3109 1.72059 23.7681
631 1 -1.1104 12.1967 1.88363 26.3382
634 2 2.2208 10.9144 3.20945 24.9106
637 1 -1.1104 9.30183 2.00998 23.5948
640 1 -1.1104 9.48255 1.85101 26.3552
642 2 2.2208 7.9961 3.28507 22.1146
669 1 -1.1104 6.44817 4.41656 26.2845
688 1 -1.1104 9.29054 4.68468 26.1052
690 1 -1.1104 9.34756 4.75758 23.3456
692 1 -1.1104 9.43956 7.50596 26.2604
694 2 2.2208 7.9377 6.11599 24.929
695 2 2.2208 10.6897 6.02458 22.01
697 1 -1.1104 12.1097 7.52854 23.4926
698 1 -1.1104 12.1259 7.49085 26.2468
699 1 -1.1104 12.2809 4.60185 23.4228
702 1 -1.1104 12.0486 4.72124 26.2405
704 1 -1.1104 9.23288 7.4828 23.5017
8904 2 2.2208 8.00399 -5.23823 24.8154
499 1 -1.1104 12.137 18.6048 26.4569
562 1 -1.1104 9.69239 18.7731 23.4884
619 2 2.2208 13.6268 14.4295 16.2788
718 1 -1.1104 6.48597 18.8843 23.5809
484 1 -1.1104 6.64582 10.2095 20.5379
496 1 -1.1104 3.92969 10.3178 20.7463
657 2 2.2208 5.38247 11.6298 21.9205
663 1 -1.1104 0.826059 9.98165 23.5082
666 2 2.2208 5.14197 8.66572 24.9713
668 1 -1.1104 1.10322 10.0501 26.3661
673 2 2.2208 2.49896 11.5688 24.9327
675 2 2.2208 2.24764 8.72861 22.0247
677 1 -1.1104 3.98077 10.1346 23.4303
679 1 -1.1104 3.82213 10.1995 26.2716
681 1 -1.1104 3.84299 13.0943 26.4149
706 1 -1.1104 0.960372 13.056 23.5266
713 1 -1.1104 3.89182 12.9668 23.4881
717 1 -1.1104 1.1158 12.8227 26.4262
712 1 -1.1104 6.83643 12.9742 26.344
665 1 -1.1104 6.54113 10.2327 23.5288
709 1 -1.1104 6.68789 13.1238 23.4619
670 1 -1.1104 6.64419 10.0028 26.3394
424 2 2.2208 -0.377398 0.0854798 16.4096
380 2 2.2208 2.47616 8.55634 27.6886
511 1 -1.1104 12.3991 10.309 20.938
8944 2 2.2208 10.7974 -5.32552 16.4568
350 2 2.2208 10.8174 2.93612 13.8577
621 2 2.2208 -0.420578 5.84993 16.4808
463 1 -1.1104 12.2621 12.8736 23.5117
687 1 -1.1104 9.32098 10.1609 26.6196
689 1 -1.1104 9.39444 10.2348 23.5647
691 2 2.2208 7.87819 8.8338 22.1109
693 2 2.2208 8.08798 11.6187 25.1045
696 2 2.2208 10.8409 11.479 22.245
700 1 -1.1104 12.4644 10.269 23.6882
701 2 2.2208 10.7056 9.10877 25.0558
703 1 -1.1104 12.2508 10.295 26.405
498 1 -1.1104 11.994 12.9666 26.4515
589 1 -1.1104 9.49642 13.0964 26.5605
561 1 -1.1104 9.47671 13.0085 23.6854
462 2 2.2208 11.0282 17.2608 22.1589
653 2 2.2208 13.4269 -2.45528 22.1039
545 1 -1.1104 0.79817 15.6984 20.397
554 1 -1.1104 3.61428 18.676 20.7819
497 1 -1.1104 12.3716 18.5866 23.602
526 2 2.2208 10.7973 20.0569 24.9838
588 1 -1.1104 6.3141 18.3197 26.0862
720 2 2.2208 5.29472 14.329 24.8855
647 2 2.2208 2.08617 14.4056 21.8456
649 2 2.2208 2.18726 19.951 22.0457
652 1 -1.1104 3.43439 15.8251 23.5323
655 1 -1.1104 0.729846 15.8121 23.1602
682 1 -1.1104 3.66457 15.7934 26.2942
683 2 2.2208 2.21021 17.224 24.7015
686 1 -1.1104 3.63981 18.5941 26.3878
705 2 2.2208 5.10489 17.3168 22.1248
707 1 -1.1104 0.447048 18.4451 23.4361
711 1 -1.1104 3.70033 18.7195 23.574
715 1 -1.1104 0.714474 18.5312 26.3012
716 1 -1.1104 0.720569 15.7382 26.1945
719 2 2.2208 5.03 20.1027 24.886
680 1 -1.1104 6.57468 15.8918 23.5664
714 1 -1.1104 6.509 15.6813 26.3211
524 1 -1.1104 12.2076 15.7513 23.3889
617 1 -1.1104 9.37061 16.1168 23.7609
581 1 -1.1104 9.61537 18.4695 20.643
539 1 -1.1104 6.62173 18.788 20.6708
574 1 -1.1104 12.2985 15.7529 20.3546
381 2 2.2208 5.10691 11.5798 27.6373
708 2 2.2208 13.6319 11.7016 24.9597
354 2 2.2208 8.21873 5.7207 13.7408
352 2 2.2208 5.2735 8.62426 13.748
428 2 2.2208 13.5651 0.207171 19.246
355 2 2.2208 10.8254 8.62964 13.7506
710 2 2.2208 13.5292 6.07662 24.9728
622 2 2.2208 -0.438489 8.92568 19.2613
650 2 2.2208 13.6703 11.6528 19.2778
359 2 2.2208 5.15616 14.3565 13.704
360 2 2.2208 10.8011 20.0172 13.733
378 2 2.2208 13.6013 3.17642 27.6656
385 2 2.2208 7.84245 8.83724 27.6839
366 2 2.2208 2.22657 2.84954 27.7306
721 2 2.2208 5.00736 22.7119 5.23505
723 1 -1.1104 0.786995 23.9988 1.19266
724 1 -1.1104 0.797435 24.4245 3.68229
725 1 -1.1104 0.660228 21.2886 0.973578
727 2 2.2208 5.07088 25.6824 2.27085
728 1 -1.1104 0.772949 21.3262 3.52949
730 1 -1.1104 3.68158 24.3186 0.85387
731 2 2.2208 2.15898 22.8086 2.28258
733 1 -1.1104 3.48551 24.18 3.96928
734 2 2.2208 2.28287 25.6771 5.23085
735 1 -1.1104 3.52838 21.5446 0.877232
737 1 -1.1104 3.71026 21.4884 3.7142
738 1 -1.1104 3.73806 27.0601 4.14134
729 1 -1.1104 0.715548 27.1125 3.77664
869 1 -1.1104 3.74188 21.4693 6.58001
862 1 -1.1104 0.871428 24.176 6.62296
866 1 -1.1104 6.39178 21.519 6.44861
726 1 -1.1104 0.746483 26.9092 0.96697
743 1 -1.1104 6.61123 24.2266 3.83537
1031 2 2.2208 13.4264 31.3981 5.37858
10271 3 0 13.6302 34.2233 9.82422
868 1 -1.1104 3.74307 24.1762 6.7337
863 1 -1.1104 6.61893 24.1025 6.55751
747 1 -1.1104 6.36414 26.9095 3.98086
746 1 -1.1104 6.58154 21.4707 3.93481
745 1 -1.1104 6.52517 27.0373 1.02931
742 1 -1.1104 6.39248 23.7952 1.01095
744 1 -1.1104 6.55152 21.2578 1.30519
748 2 2.2208 10.6609 22.8098 5.12815
750 1 -1.1104 12.0332 24.1643 1.0725
751 1 -1.1104 12.0329 24.2668 3.72542
752 1 -1.1104 11.9228 21.3805 0.987682
754 2 2.2208 10.7207 25.6772 2.42956
755 1 -1.1104 12.3153 21.3371 3.8875
757 1 -1.1104 9.32454 24.1369 1.09396
758 2 2.2208 7.84578 22.7339 2.55774
760 1 -1.1104 9.32004 24.2801 3.85582
761 2 2.2208 7.9094 25.5748 5.29248
762 1 -1.1104 9.10103 21.4717 1.29108
763 1 -1.1104 9.35834 27.1229 0.729783
764 1 -1.1104 9.31834 21.2545 3.88246
756 1 -1.1104 11.756 27.0966 3.77514
898 1 -1.1104 9.37577 24.2166 6.60255
899 1 -1.1104 9.34399 21.4193 6.66513
900 1 -1.1104 9.15839 26.9766 6.78728
895 1 -1.1104 11.9575 24.1973 6.65924
867 1 -1.1104 6.35838 26.997 6.92094
736 1 -1.1104 3.59379 27.2141 1.11404
722 2 2.2208 5.14334 28.4295 5.41015
732 2 2.2208 2.01432 28.5541 2.3198
770 1 -1.1104 0.823413 29.9702 1.13359
773 1 -1.1104 0.286098 29.8441 3.98718
776 1 -1.1104 0.480987 32.7335 1.10747
777 2 2.2208 4.94483 31.2299 2.50967
779 1 -1.1104 0.911595 32.5216 3.92708
781 1 -1.1104 3.63096 30.0634 1.11056
784 1 -1.1104 3.22004 29.9198 3.81575
786 2 2.2208 2.22591 31.2793 5.42609
788 1 -1.1104 3.51903 32.8791 1.14139
789 1 -1.1104 3.58194 32.8934 3.83059
919 1 -1.1104 0.861634 29.9625 6.82079
793 1 -1.1104 6.4207 29.7416 0.870492
1042 2 2.2208 13.4968 45.5183 8.03598
927 1 -1.1104 3.52947 32.4399 6.90798
921 1 -1.1104 6.42465 29.8569 6.78101
753 1 -1.1104 12.2654 27.0856 1.03383
765 1 -1.1104 9.0661 27.2113 3.87493
780 1 -1.1104 6.43469 32.7996 3.70009
794 1 -1.1104 6.31314 29.8749 3.6309
795 1 -1.1104 6.25374 32.493 0.960099
749 2 2.2208 10.6033 28.5665 5.12593
759 2 2.2208 7.69568 28.4076 2.35643
797 1 -1.1104 11.9543 29.9901 0.842815
799 1 -1.1104 12.0182 29.9524 3.84666
801 1 -1.1104 12.0358 32.8112 0.952369
802 2 2.2208 10.6398 31.3798 2.3526
804 1 -1.1104 12.0176 32.687 3.70191
805 1 -1.1104 9.28378 29.7168 1.00653
808 1 -1.1104 9.07919 30.103 3.91668
810 2 2.2208 7.76422 31.3773 5.15356
812 1 -1.1104 9.22924 32.8461 1.04183
813 1 -1.1104 9.09246 32.8971 3.77532
956 1 -1.1104 9.04467 29.8325 6.59116
767 2 2.2208 13.3466 28.6146 2.27997
924 1 -1.1104 6.48985 32.8028 6.55236
1016 1 -1.1104 12.0098 43.9802 9.32714
769 2 2.2208 4.97613 34.2122 5.1621
771 1 -1.1104 0.831942 35.6838 1.18432
774 1 -1.1104 0.620974 35.2065 4.16566
778 2 2.2208 4.82528 36.9757 2.42568
782 1 -1.1104 3.37905 35.4094 0.917952
783 2 2.2208 2.18418 34.2219 2.53022
785 1 -1.1104 3.26486 35.7445 3.75525
787 2 2.2208 1.95841 36.9352 5.38055
815 2 2.2208 4.85313 39.6706 5.16529
821 1 -1.1104 0.432105 38.5572 1.34738
826 1 -1.1104 0.618335 38.2077 3.97906