ITEM: TIMESTEP
90000
ITEM: NUMBER OF ATOMS
17700
ITEM: BOX BOUNDS pp pp pp
-4.4274666587976241e-01 2.7782746665880339e+01
-5.3189158746756640e+00 3.3339891587467758e+02
-4.2732280042830906e-01 2.7767322800428154e+01
ITEM: ATOMS id type q x y z
1 2 2.2208 5.38124 0.288406 5.14336
2 1 -1.1104 1.10252 -3.89887 1.15037
6 1 -1.1104 1.09597 -3.90583 3.96793
10 1 -1.1104 1.06588 -1.14363 0.795641
12 2 2.2208 5.40217 -2.44169 2.59857
14 1 -1.1104 1.28854 -1.02977 3.75712
16 1 -1.1104 4.23381 -3.89128 0.958447
18 2 2.2208 2.59517 0.38043 2.49997
19 1 -1.1104 3.85194 -3.99428 3.76718
21 2 2.2208 2.46901 -2.57525 5.37124
23 1 -1.1104 3.9714 -1.10325 1.34021
24 1 -1.1104 3.94639 -1.11375 4.11566
8848 2 2.2208 8.23839 -5.331 8.23886
4 1 -1.1104 6.83633 -4.13787 0.959025
11 1 -1.1104 6.98768 -1.43514 1.15087
311 2 2.2208 -0.200354 20.1108 7.96944
174 1 -1.1104 3.8929 -1.28281 6.97294
168 1 -1.1104 6.51661 -4.04789 6.77944
365 2 2.2208 2.61148 -2.72375 -0.350389
15 1 -1.1104 6.71743 -1.27756 3.86943
8 1 -1.1104 6.66652 -3.83373 3.90661
31 2 2.2208 11.0505 0.35114 5.25521
32 1 -1.1104 12.5925 -3.87616 1.0077
34 1 -1.1104 12.2346 -3.89441 3.7495
36 1 -1.1104 12.5693 -1.10454 1.12783
37 2 2.2208 11.0697 -2.57205 2.38846
39 1 -1.1104 12.3095 -1.1348 3.89973
40 1 -1.1104 9.64655 -4.03151 1.22653
42 2 2.2208 8.17667 0.119817 2.54795
43 1 -1.1104 9.64343 -3.82675 3.84228
45 2 2.2208 8.1526 -2.48665 5.34931
47 1 -1.1104 9.76377 -1.19603 0.746093
48 1 -1.1104 9.48751 -0.944395 3.75255
208 1 -1.1104 9.58102 -3.8627 6.94104
205 1 -1.1104 12.3569 -3.86845 6.56497
200 2 2.2208 -0.23052 -2.57389 8.08425
210 1 -1.1104 9.53648 -0.95665 6.66393
171 1 -1.1104 6.74144 -1.40182 6.71786
137 2 2.2208 -0.306835 17.222 5.16831
3 1 -1.1104 1.14557 1.72706 1.25439
7 1 -1.1104 1.14576 1.98017 4.05545
13 2 2.2208 5.45019 3.02368 2.34082
17 1 -1.1104 3.90566 1.75878 0.921728
20 1 -1.1104 4.05043 1.68867 3.71524
22 2 2.2208 2.64769 3.18645 5.06592
54 2 2.2208 5.55406 5.96694 5.29927
58 1 -1.1104 1.27961 7.2969 3.7453
60 1 -1.1104 1.06974 4.39963 0.82971
67 1 -1.1104 1.17161 4.713 3.80517
71 1 -1.1104 4.14439 7.47435 1.05525
72 2 2.2208 2.71441 5.9032 2.30586
76 1 -1.1104 4.09768 4.66266 1.0199
79 1 -1.1104 4.24572 4.52162 3.91819
74 1 -1.1104 4.12787 7.37097 3.7893
56 1 -1.1104 1.17659 7.31838 0.979562
9 1 -1.1104 6.88657 1.77349 3.9216
63 1 -1.1104 6.85072 4.27482 0.992487
238 1 -1.1104 4.10573 7.39308 6.55806
167 1 -1.1104 1.01459 1.59042 6.9497
69 1 -1.1104 6.86869 4.56637 3.78815
25 2 2.2208 -0.337949 -2.54281 2.4213
234 1 -1.1104 1.38308 7.24126 6.61827
239 1 -1.1104 3.87615 4.50066 6.61181
173 1 -1.1104 3.68492 1.72207 6.4909
236 1 -1.1104 0.987763 4.34185 6.59972
169 1 -1.1104 6.59057 1.628 6.54017
8843 2 2.2208 10.9394 -5.20411 5.24873
59 1 -1.1104 7.0551 7.38248 3.76071
5 1 -1.1104 6.81066 1.30211 1.19259
57 1 -1.1104 6.76703 7.18657 1.16413
33 1 -1.1104 12.346 1.96174 1.13249
35 1 -1.1104 12.5559 1.83002 3.92544
38 2 2.2208 10.9983 3.382 2.36337
41 1 -1.1104 9.5874 1.79873 1.14675
44 1 -1.1104 9.61603 1.83151 3.75001
46 2 2.2208 8.12327 3.2936 5.22172
84 2 2.2208 10.9491 6.00082 4.95626
88 1 -1.1104 12.412 4.48381 0.963731
92 1 -1.1104 12.4969 4.62125 3.71529
95 2 2.2208 8.14073 5.922 2.32377
99 1 -1.1104 9.63772 4.79561 0.852812
102 1 -1.1104 9.54711 4.67258 3.56292
86 1 -1.1104 12.4287 7.41353 1.11439
87 1 -1.1104 12.6054 7.48927 3.65584
94 1 -1.1104 9.73728 7.4784 0.773026
97 1 -1.1104 9.59952 7.27152 3.6579
267 1 -1.1104 9.67985 7.69669 6.40037
206 1 -1.1104 12.4032 1.35137 6.61619
209 1 -1.1104 9.47149 1.99871 6.76787
269 1 -1.1104 9.51304 4.86774 6.27952
235 1 -1.1104 6.88402 7.28946 6.55383
265 1 -1.1104 12.3424 7.10573 6.19386
55 2 2.2208 5.48756 11.588 5.27253
61 1 -1.1104 1.28303 10.0431 0.898137
66 2 2.2208 5.57338 8.75043 2.40276
68 1 -1.1104 1.27709 10.0808 3.75908
73 2 2.2208 2.61037 11.554 2.51014
75 2 2.2208 2.75299 8.77366 5.25677
77 1 -1.1104 4.20609 10.2676 1.19312
80 1 -1.1104 4.19426 10.2778 3.90426
107 1 -1.1104 0.928999 12.9464 0.926994
113 1 -1.1104 1.10325 12.9011 3.73179
123 1 -1.1104 4.10018 12.9527 1.21694
128 1 -1.1104 3.92179 13.0718 3.92072
124 1 -1.1104 3.89483 13.0518 6.70079
8849 2 2.2208 10.9368 -5.24845 10.9663
115 1 -1.1104 6.87301 13.0566 3.83856
8846 2 2.2208 5.26905 -5.24994 10.9274
201 2 2.2208 -0.385211 0.114922 11.1236
70 1 -1.1104 6.97754 10.3189 4.02253
110 1 -1.1104 6.99344 12.9295 1.13512
64 1 -1.1104 6.89002 10.3087 1.06115
85 2 2.2208 11.0639 11.6018 5.29836
89 1 -1.1104 12.3087 10.2455 0.984576
91 2 2.2208 10.9888 8.76992 2.38909
93 1 -1.1104 12.5569 10.2501 3.79628
96 2 2.2208 8.38629 11.7555 2.50496
98 2 2.2208 8.11997 8.92953 5.26922
100 1 -1.1104 9.59328 10.3026 0.87672
103 1 -1.1104 9.73365 10.2087 4.00371
142 1 -1.1104 12.4019 13.1171 1.03172
146 1 -1.1104 12.339 13.2222 3.82361
153 1 -1.1104 9.76475 13.1306 1.0312
158 1 -1.1104 9.74051 13.1163 3.85417
90 1 -1.1104 12.4188 10.0368 6.50805
154 1 -1.1104 9.57026 13.0466 6.83846
101 1 -1.1104 9.3391 10.5186 6.55674
111 1 -1.1104 6.82645 13.0247 6.48376
372 2 2.2208 8.15525 3.0012 -0.297654
83 2 2.2208 -0.289649 11.386 5.24456
130 2 2.2208 2.53933 14.3566 5.29002
119 2 2.2208 5.52099 14.4757 2.38814
106 2 2.2208 5.32356 17.238 5.29946
109 1 -1.1104 1.19633 18.7721 0.908042
114 1 -1.1104 1.09081 18.5598 3.72628
116 1 -1.1104 1.15698 15.67 0.819033
120 2 2.2208 5.32398 19.8869 2.302
121 1 -1.1104 1.17839 15.7759 3.56018
125 1 -1.1104 3.9137 18.4447 0.848089
127 2 2.2208 2.52114 17.0311 2.37274
129 1 -1.1104 3.873 18.5239 3.7424
131 2 2.2208 2.52222 20.1453 5.27712
132 1 -1.1104 4.23706 15.7925 1.08193
134 1 -1.1104 4.10588 15.8642 3.85999
133 1 -1.1104 4.07357 15.8407 6.49654
81 2 2.2208 -0.269578 5.92921 5.25259
136 2 2.2208 -0.291462 19.9434 2.1842
367 2 2.2208 -0.431503 8.8143 13.6277
150 2 2.2208 11.1113 14.4838 2.47861
139 1 -1.1104 6.83779 18.9043 3.76809
122 1 -1.1104 6.88166 16.0163 3.93966
140 1 -1.1104 6.91091 15.8404 1.12166
138 1 -1.1104 6.66575 18.6546 0.902642
160 2 2.2208 8.43959 14.4208 5.24698
141 2 2.2208 11.1364 17.2135 5.26383
144 1 -1.1104 12.3278 18.7487 0.970369
147 1 -1.1104 12.255 18.9925 3.77948
148 1 -1.1104 12.4002 16.0827 0.904998
151 2 2.2208 10.7935 19.987 2.3756
152 1 -1.1104 12.3769 15.9467 4.03153
155 1 -1.1104 9.56809 18.5995 1.05199
157 2 2.2208 8.19434 17.2352 2.5518
159 1 -1.1104 9.57382 18.635 4.0215
161 2 2.2208 8.23739 20.0653 5.37171
162 1 -1.1104 9.59607 15.824 0.90046
164 1 -1.1104 9.59369 15.7993 3.64865
156 1 -1.1104 9.6018 18.5013 6.53407
145 1 -1.1104 12.5031 18.756 6.72671
118 1 -1.1104 6.98914 15.6314 6.67436
341 2 2.2208 5.35562 3.10497 13.3886
320 2 2.2208 8.2178 17.1446 7.96919
349 2 2.2208 8.14282 20.1579 -0.485859
172 1 -1.1104 3.70536 -4.07397 6.59309
354 2 2.2208 8.12833 5.96755 13.5874
323 1 -1.1104 12.3772 15.9353 9.39322
343 2 2.2208 8.14388 0.436971 13.6499
170 1 -1.1104 1.02809 -1.03204 6.59744
166 1 -1.1104 0.875097 -3.80496 6.65305
175 2 2.2208 5.28815 0.353631 10.7826
176 1 -1.1104 1.33642 -4.16209 12.3147
180 1 -1.1104 1.20418 -3.93799 9.42643
184 1 -1.1104 1.15769 -1.36587 12.4343
186 2 2.2208 5.2742 -2.78538 8.08004
188 1 -1.1104 1.14784 -1.33088 9.65084
190 1 -1.1104 3.93075 -3.86183 12.2264
192 2 2.2208 2.33182 0.232318 8.1419
193 1 -1.1104 3.88737 -4.0724 9.47801
195 2 2.2208 2.54168 -2.61207 10.9175
197 1 -1.1104 3.96166 -1.08747 12.2708
198 1 -1.1104 3.82152 -1.16382 9.69619
51 2 2.2208 -0.406261 11.6094 10.9142
361 2 2.2208 10.9858 14.3093 13.5347
329 1 -1.1104 12.3527 18.5512 12.2327
314 1 -1.1104 9.63142 15.865 9.45924
207 1 -1.1104 12.5456 -1.17585 6.63516
185 1 -1.1104 6.94118 -0.995541 12.4146
182 1 -1.1104 6.79307 -3.92835 9.54552
189 1 -1.1104 6.6212 -0.910182 9.46957
178 1 -1.1104 6.60573 -3.84622 12.2356
211 2 2.2208 11.0956 0.218292 10.8262
212 1 -1.1104 12.1765 -3.94967 12.406
214 1 -1.1104 12.3282 -3.79985 9.57921
216 1 -1.1104 12.6401 -1.1524 12.3355
217 2 2.2208 11.0955 -2.5454 8.02452
219 1 -1.1104 12.5636 -1.12196 9.34909
220 1 -1.1104 9.40328 -3.85882 12.2572
222 2 2.2208 8.19357 0.440432 8.22854
223 1 -1.1104 9.51901 -3.75069 9.65324
225 2 2.2208 8.09198 -2.42143 10.924
227 1 -1.1104 9.81045 -1.05841 12.3078
228 1 -1.1104 9.70726 -1.15275 9.70531
29 2 2.2208 -0.326526 5.84377 10.9534
27 2 2.2208 -0.351629 3.10332 2.41904
177 1 -1.1104 1.0078 1.47518 12.6936
181 1 -1.1104 1.12196 1.58869 9.76564
187 2 2.2208 5.24007 2.99934 7.95976
191 1 -1.1104 3.84378 1.59098 12.2031
194 1 -1.1104 3.87659 1.74308 9.36501
196 2 2.2208 2.35703 2.99738 11.0403
240 2 2.2208 5.12984 5.91594 10.9557
246 1 -1.1104 0.839216 4.27701 12.6172
251 1 -1.1104 1.0691 4.44006 9.6007
255 1 -1.1104 3.64292 7.19732 12.2276
256 2 2.2208 2.47168 5.69032 8.07873
260 1 -1.1104 3.64377 4.23038 12.3834
262 1 -1.1104 3.81221 4.42747 9.56726
242 1 -1.1104 0.871535 7.19807 12.3954
244 1 -1.1104 1.101 7.37601 9.38699
258 1 -1.1104 4.14387 7.32728 9.53703
82 2 2.2208 -0.105115 8.64316 2.36645
266 1 -1.1104 12.696 4.2372 6.57071
163 1 -1.1104 9.67492 15.7655 6.60431
245 1 -1.1104 6.90467 7.44673 9.41549
237 1 -1.1104 6.66949 4.57292 6.63884
243 1 -1.1104 6.65171 7.23097 12.2152
179 1 -1.1104 6.75554 1.68935 12.2657
183 1 -1.1104 6.5163 1.80395 9.34614
248 1 -1.1104 6.73769 4.44945 12.0729
253 1 -1.1104 6.66497 4.77464 9.41163
213 1 -1.1104 12.5864 1.6839 12.2836
215 1 -1.1104 12.3091 1.87814 9.41323
218 2 2.2208 11.0492 3.18124 8.00979
221 1 -1.1104 9.7116 1.69646 12.1767
224 1 -1.1104 9.40777 1.64071 9.50736
226 2 2.2208 8.05945 3.01023 10.8371
268 1 -1.1104 9.50616 4.46182 9.29951
271 1 -1.1104 9.40963 4.37342 12.2477
275 2 2.2208 8.09327 5.94711 8.01586
276 2 2.2208 10.9829 5.88618 10.8987
279 1 -1.1104 12.6018 7.53024 9.12209
280 1 -1.1104 12.4442 4.5953 12.2899
283 1 -1.1104 12.5012 4.66848 9.66308
273 1 -1.1104 9.84405 7.18953 9.23509
278 1 -1.1104 12.3162 7.47059 12.0382
285 1 -1.1104 9.63663 7.2358 12.2602
386 2 2.2208 11.0027 11.8092 -0.335235
382 2 2.2208 -0.324773 11.6266 -0.374312
62 1 -1.1104 1.14558 10.137 6.54975
26 2 2.2208 -0.360641 0.478296 5.14481
108 1 -1.1104 1.12163 12.8359 6.34301
78 1 -1.1104 3.71952 10.091 6.87992
241 2 2.2208 5.12477 11.6572 10.7817
247 1 -1.1104 1.04751 10.4074 12.371
250 2 2.2208 5.2716 8.66055 8.13918
252 1 -1.1104 1.15057 10.2326 9.56001
257 2 2.2208 2.48804 11.6662 8.05437
259 2 2.2208 2.48345 8.80168 10.9762
261 1 -1.1104 3.88679 10.2863 12.2318
263 1 -1.1104 3.7475 10.2273 9.5597
294 1 -1.1104 1.07172 13.0798 9.34895
287 1 -1.1104 3.74175 12.8939 12.4231
299 1 -1.1104 1.14594 13.0917 12.2945
305 1 -1.1104 3.93959 12.9929 9.50525
295 2 2.2208 5.68747 14.4285 7.92806
249 1 -1.1104 6.65165 10.1175 12.3579
30 2 2.2208 -0.40187 8.67976 8.2569
368 2 2.2208 -0.205487 0.400951 -0.339932
143 1 -1.1104 12.3411 12.9338 6.57539
149 1 -1.1104 12.6616 15.849 6.6172
254 1 -1.1104 6.51752 10.2468 9.54907
65 1 -1.1104 6.57991 10.1972 6.72027
290 1 -1.1104 6.73 12.8901 9.30452
297 1 -1.1104 6.72228 12.9136 11.9888
319 1 -1.1104 9.37403 12.7874 9.45474
264 1 -1.1104 9.5998 10.1828 9.36698
270 1 -1.1104 9.43885 10.0267 12.1426
272 2 2.2208 7.92358 8.70771 10.9364
274 2 2.2208 7.97525 11.5785 8.01173
277 2 2.2208 10.8785 11.6567 10.7571
281 1 -1.1104 12.3516 10.1081 12.2638
282 2 2.2208 10.9674 8.74075 7.76928
284 1 -1.1104 12.1521 10.2894 9.39644
330 1 -1.1104 12.3613 12.7894 12.29
328 1 -1.1104 12.3222 13.2034 9.36713
322 1 -1.1104 9.44316 13.0154 12.2086
331 2 2.2208 11.0038 17.1807 10.7592
135 2 2.2208 -0.186413 14.4376 2.27441
326 1 -1.1104 12.3758 15.5907 12.2804
362 2 2.2208 8.21661 17.2542 13.5109
302 1 -1.1104 1.00817 18.6641 6.51612
117 1 -1.1104 1.09073 15.8532 6.45104
306 1 -1.1104 6.71651 15.6484 12.3337
325 2 2.2208 11.0341 14.513 8.06317
126 1 -1.1104 3.9222 18.5629 6.54552
308 1 -1.1104 3.70088 15.6765 12.1278
309 2 2.2208 2.60105 19.8575 10.7516
303 2 2.2208 2.50434 17.0983 7.8001
310 2 2.2208 2.40245 14.3762 10.8316
292 1 -1.1104 1.10923 15.8857 9.31704
307 1 -1.1104 1.08837 15.8773 12.3745
304 1 -1.1104 3.96952 15.7615 9.17263
298 1 -1.1104 1.30156 18.4596 12.1509
301 1 -1.1104 4.00567 18.5373 9.37776
291 1 -1.1104 1.14021 18.5639 9.33439
300 2 2.2208 5.43592 17.0869 10.627
286 1 -1.1104 4.06607 18.4856 11.9322
293 2 2.2208 5.37224 20.1562 7.9895
288 1 -1.1104 6.82371 18.5309 9.34401
316 2 2.2208 8.21467 19.8972 10.7621
318 1 -1.1104 9.59887 18.6835 9.33767
324 2 2.2208 11.0833 20.2024 8.04907
347 2 2.2208 8.40398 14.4242 -0.371771
112 1 -1.1104 6.85483 18.4485 6.67362
296 1 -1.1104 6.89199 18.5034 12.0828
317 2 2.2208 8.02898 14.322 10.9072
327 1 -1.1104 12.5305 18.6577 9.47648
321 1 -1.1104 9.55241 18.7423 12.1741
289 1 -1.1104 6.91784 15.7621 9.41033
315 1 -1.1104 9.69993 15.9183 12.1524
313 2 2.2208 -0.247438 14.3898 7.80966
373 2 2.2208 2.76484 14.3166 -0.247578
350 2 2.2208 10.964 3.2378 13.515
199 2 2.2208 -0.35047 2.994 8.14575
8860 2 2.2208 -0.419704 -5.27152 -0.332822
358 2 2.2208 5.42525 19.9858 13.4611
381 2 2.2208 5.57774 11.4361 -0.34413
346 2 2.2208 11.0604 -2.56812 13.6186
338 2 2.2208 5.26622 -2.57623 13.6131
359 2 2.2208 5.23422 14.2124 13.5544
364 2 2.2208 5.20583 0.283889 -0.292751
352 2 2.2208 5.28046 8.71547 13.6488
380 2 2.2208 2.58787 8.80391 -0.359271
355 2 2.2208 10.7561 8.86871 13.4828
385 2 2.2208 8.41154 8.85083 -0.317386
8862 2 2.2208 8.1301 -5.17937 13.6094
374 2 2.2208 5.44355 17.088 -0.327528
360 2 2.2208 11.0014 19.9663 13.5363
388 2 2.2208 5.31269 0.412539 16.2421
389 1 -1.1104 1.09807 -4.11257 17.8435
393 1 -1.1104 1.11447 -3.98278 15.0812
401 1 -1.1104 1.1983 -1.32413 17.8049
403 2 2.2208 5.27952 -2.44693 19.3524
405 1 -1.1104 0.744257 -1.19067 15.2178
409 1 -1.1104 3.83668 -3.9698 18.0033
411 2 2.2208 2.55026 0.40647 19.22
412 1 -1.1104 3.99083 -4.13851 15.2206
416 2 2.2208 2.58411 -2.54376 16.6152
418 1 -1.1104 3.94494 -1.10838 18.0663
419 1 -1.1104 3.88429 -1.44877 15.1577
413 1 -1.1104 4.01296 -3.71965 20.7578
406 1 -1.1104 1.18945 -0.926096 20.6684
348 2 2.2208 11.0582 17.2945 27.7052
425 2 2.2208 -0.328256 -2.43418 19.2614
8943 2 2.2208 7.97479 -5.29948 19.2318
407 1 -1.1104 6.80646 -1.22174 14.9205
397 1 -1.1104 6.79349 -3.81832 14.9446
391 1 -1.1104 6.77719 -3.92759 17.949
402 1 -1.1104 6.65153 -0.933804 17.8211
431 2 2.2208 10.9908 0.194292 16.3472
432 1 -1.1104 12.1279 -3.93356 17.7849
434 1 -1.1104 12.5741 -3.97864 14.9334
438 1 -1.1104 12.2584 -1.16365 17.9947
439 2 2.2208 10.7437 -2.40148 19.3061
441 1 -1.1104 12.3776 -1.16479 14.9353
443 1 -1.1104 9.38098 -3.80304 17.8063
445 2 2.2208 8.12111 0.307855 19.197
446 1 -1.1104 9.71429 -3.81894 15.094
450 2 2.2208 8.08174 -2.40363 16.2693
452 1 -1.1104 9.49028 -1.14929 17.6893
453 1 -1.1104 9.4447 -1.04522 14.9528
435 1 -1.1104 12.0586 -3.90389 20.533
339 2 2.2208 2.42291 0.112322 13.8832
337 2 2.2208 -0.330444 2.97947 13.8721
408 1 -1.1104 6.51374 -1.16408 20.7359
447 1 -1.1104 9.43425 -3.88787 20.6958
622 2 2.2208 -0.0764024 8.83409 19.5647
390 1 -1.1104 0.829622 1.71157 17.9784
395 1 -1.1104 0.938411 1.64257 15.3385
404 2 2.2208 5.29913 3.2225 19.1595
410 1 -1.1104 3.86452 1.58268 17.7016
414 1 -1.1104 3.84774 1.55361 15.017
417 2 2.2208 2.38653 3.085 16.57
464 2 2.2208 5.27364 5.89153 16.5547
466 1 -1.1104 1.08111 7.33195 17.8156
472 1 -1.1104 1.2475 4.42162 17.9465
477 1 -1.1104 1.18286 4.39426 15.167
486 2 2.2208 2.39742 6.09289 19.2808
491 1 -1.1104 3.83543 4.58229 17.8142
493 1 -1.1104 4.10033 4.49435 15.1051
488 1 -1.1104 3.9317 7.19509 15.0301
485 1 -1.1104 4.04516 7.32635 18.0938
468 1 -1.1104 1.07107 7.27923 15.2459
469 1 -1.1104 1.23792 7.41765 20.7999
415 1 -1.1104 3.85317 1.67114 20.8883
396 1 -1.1104 1.15101 1.89286 20.7491
377 2 2.2208 13.5022 -2.46929 27.7818
8907 2 2.2208 2.40149 -5.27317 24.8946
625 2 2.2208 -0.350275 0.411608 21.9778
474 1 -1.1104 6.76076 4.6984 17.7304
470 1 -1.1104 6.6829 7.36153 15.0097
481 1 -1.1104 6.93824 4.42149 14.9777
392 1 -1.1104 6.5539 1.73481 17.9064
399 1 -1.1104 6.71522 1.59005 14.9276
467 1 -1.1104 6.92361 7.47925 17.9805
433 1 -1.1104 12.3524 1.45328 17.842
436 1 -1.1104 12.1744 1.96766 15.1123
440 2 2.2208 10.8878 3.19038 19.2047
444 1 -1.1104 9.52607 1.74291 17.7039
448 1 -1.1104 9.33535 1.82443 14.8014
451 2 2.2208 8.18539 3.19679 16.3815
500 2 2.2208 10.8654 6.12835 16.4503
502 1 -1.1104 12.1828 7.19742 18.0999
505 1 -1.1104 12.4222 4.47519 17.8741
508 1 -1.1104 12.6346 4.6679 14.9508
513 2 2.2208 8.05337 6.02715 19.2196
515 1 -1.1104 9.36266 7.42544 14.9657
518 1 -1.1104 9.45485 4.59341 17.8789
520 1 -1.1104 9.54646 4.59221 15.2701
512 1 -1.1104 9.52784 7.36231 17.7786
503 1 -1.1104 12.4059 7.38791 15.0081
449 1 -1.1104 9.65928 1.8884 20.6386
509 1 -1.1104 12.4136 4.59939 20.6617
400 1 -1.1104 6.98623 1.93645 20.3734
680 1 -1.1104 6.90205 15.8156 23.6922
437 1 -1.1104 12.3912 1.57755 20.8035
504 1 -1.1104 12.4206 7.29044 20.834
482 1 -1.1104 6.70647 4.43597 20.7728
521 1 -1.1104 9.4253 4.596 20.8221
684 2 2.2208 -0.451922 8.81183 25.0725
456 2 2.2208 -0.195884 17.4109 16.5391
465 2 2.2208 5.53034 11.6894 16.6211
473 1 -1.1104 1.1367 10.1788 18.1719
476 2 2.2208 5.33887 8.80145 19.3239
479 1 -1.1104 1.16782 10.0573 15.1239
487 2 2.2208 2.73018 11.7183 19.4728
490 2 2.2208 2.61707 8.69244 16.5845
492 1 -1.1104 3.9792 10.1315 17.7641
495 1 -1.1104 3.89025 10.0278 15.0939
528 1 -1.1104 1.1874 12.9967 17.9325
532 1 -1.1104 1.31569 12.9886 15.2242
548 1 -1.1104 4.20286 13.0458 18.1208
551 1 -1.1104 4.02406 12.7417 15.1443
533 1 -1.1104 1.15123 13.082 20.8785
616 2 2.2208 8.41932 20.0237 22.0784
483 1 -1.1104 6.47549 10.0834 15.362
475 1 -1.1104 6.94472 10.2148 18.094
536 1 -1.1104 6.82077 12.8934 14.9696
530 1 -1.1104 7.1077 12.8271 17.8462
501 2 2.2208 11.0266 11.5187 16.5154
506 1 -1.1104 12.3581 10.1452 17.9557
507 2 2.2208 10.8585 8.62408 19.4021
510 1 -1.1104 12.2576 10.1744 15.0692
514 2 2.2208 8.26155 11.6992 19.3701
517 2 2.2208 8.10846 8.80281 16.6264
519 1 -1.1104 9.49678 10.259 17.8386
522 1 -1.1104 9.2491 10.2559 15.0523
564 1 -1.1104 12.5649 12.8633 17.8491
566 1 -1.1104 12.396 12.8706 15.1121
575 1 -1.1104 9.75099 13.1594 17.8599
578 1 -1.1104 9.90027 12.9076 14.9137
523 1 -1.1104 9.5952 10.1421 20.6755
484 1 -1.1104 6.80341 10.2335 20.739
579 1 -1.1104 9.51123 13.1141 20.88
626 2 2.2208 -0.132956 3.0817 24.7681
357 2 2.2208 2.61054 17.1501 13.7136
542 2 2.2208 5.36601 14.6212 19.3395
555 2 2.2208 2.64012 14.2546 16.5926
527 2 2.2208 5.51748 17.0367 16.4656
529 1 -1.1104 1.22909 18.6493 17.9033
534 1 -1.1104 1.29489 18.6136 14.9915
540 1 -1.1104 1.23805 15.7791 18.0798
543 2 2.2208 5.44502 19.9108 19.2095
544 1 -1.1104 1.04678 15.7725 15.3365
549 1 -1.1104 4.02755 18.2756 17.6724
550 2 2.2208 2.56224 17.2699 19.3545
553 1 -1.1104 4.06559 18.5555 14.9636
556 2 2.2208 2.65406 19.8201 16.5759
557 1 -1.1104 3.92164 15.6934 17.7694
558 1 -1.1104 4.05024 15.6162 14.7901
554 1 -1.1104 4.00355 18.5491 20.6183
366 2 2.2208 2.57549 3.09297 27.6055
457 2 2.2208 -0.241374 14.4935 19.5442
535 1 -1.1104 1.09708 18.834 20.6501
645 2 2.2208 -0.355304 20.0801 24.9317
562 1 -1.1104 9.57375 18.8229 23.4071
546 1 -1.1104 7.01863 15.7014 15.0458
539 1 -1.1104 6.85556 18.6503 20.8507
538 1 -1.1104 6.74553 18.3973 15.0328
541 1 -1.1104 6.74453 15.594 17.8801
531 1 -1.1104 6.96731 18.4339 17.7726
582 2 2.2208 8.25815 14.4063 16.3507
571 2 2.2208 11.0054 14.4305 19.1648
563 2 2.2208 11.0988 17.1616 16.2592
565 1 -1.1104 12.4838 18.6633 17.8374
568 1 -1.1104 12.2519 18.6929 15.0984
570 1 -1.1104 12.4584 15.6348 18.025
572 2 2.2208 11.0448 20.2189 19.1564
573 1 -1.1104 12.6962 15.7862 15.1378
576 1 -1.1104 9.60324 18.793 17.7847
577 2 2.2208 8.21152 17.3731 19.1578
580 1 -1.1104 9.37095 18.5922 15.1474
583 2 2.2208 8.14588 20.025 16.4459
584 1 -1.1104 9.65662 15.9407 17.7376
585 1 -1.1104 9.87892 15.8254 14.8689
351 2 2.2208 2.44148 5.9338 13.9914
586 1 -1.1104 9.44353 15.8749 20.3535
547 1 -1.1104 6.81183 15.8864 20.7791
617 1 -1.1104 9.53868 15.9977 23.201
420 1 -1.1104 3.93625 -1.0443 20.7716
525 2 2.2208 11.0763 14.4074 25.0207
394 1 -1.1104 1.11979 -4.01646 20.617
398 1 -1.1104 6.69519 -3.88806 20.6013
591 2 2.2208 5.38028 0.488396 22.1103
592 1 -1.1104 1.00169 -3.4724 23.4687
596 1 -1.1104 1.05402 -3.97379 26.3773
600 1 -1.1104 1.0481 -0.785756 23.4788
602 2 2.2208 5.32798 -2.54714 25.0261
604 1 -1.1104 1.0788 -1.1019 26.0968
606 1 -1.1104 3.95228 -4.07943 23.4746
608 2 2.2208 2.53833 0.259581 24.7865
609 1 -1.1104 3.81229 -4.00516 26.2573
611 2 2.2208 2.46538 -2.24617 21.9644
613 1 -1.1104 3.85234 -1.06976 23.5828
614 1 -1.1104 3.92598 -1.12064 26.3682
499 1 -1.1104 12.6068 18.6953 26.1651
646 2 2.2208 -0.441937 14.3599 24.7953
653 2 2.2208 13.5905 -2.53753 21.9674
8942 2 2.2208 -0.115974 -5.07425 22.2364
442 1 -1.1104 12.3226 -1.1882 20.8219
590 1 -1.1104 9.81439 18.6437 26.2796
454 1 -1.1104 9.50705 -0.821073 20.5322
605 1 -1.1104 6.98835 -0.871272 26.6961
601 1 -1.1104 6.65693 -1.14545 23.7383
598 1 -1.1104 6.617 -3.87133 26.3097
594 1 -1.1104 6.65916 -3.77555 23.2081
627 2 2.2208 10.8142 0.37928 22.1237
628 1 -1.1104 12.2895 -4.14433 23.6938
630 1 -1.1104 12.2026 -3.85701 26.4053
632 1 -1.1104 12.2168 -1.18365 23.6778
633 2 2.2208 10.9594 -2.5971 24.8527
635 1 -1.1104 12.3605 -1.06476 26.308
636 1 -1.1104 9.47482 -3.95637 23.6942
638 2 2.2208 8.11468 0.371073 25.0094
639 1 -1.1104 9.22622 -4.30459 26.3603
641 2 2.2208 8.07697 -2.51195 21.9907
643 1 -1.1104 9.46736 -0.982582 23.4821
644 1 -1.1104 9.75315 -1.21663 26.2983
353 2 2.2208 2.60576 11.5794 13.7417
462 2 2.2208 11.0599 17.068 21.8611
384 2 2.2208 11.0872 5.95069 27.7655
489 1 -1.1104 3.91724 7.37399 20.7248
427 2 2.2208 -0.31494 3.12525 19.3325
494 1 -1.1104 3.81171 4.55288 20.4188
478 1 -1.1104 1.05731 4.74826 20.5965
593 1 -1.1104 1.39588 1.9909 23.6289
597 1 -1.1104 1.0044 1.73726 26.4742
603 2 2.2208 5.43686 3.17499 25.0566
607 1 -1.1104 4.1139 1.7578 23.5676
610 1 -1.1104 3.9004 1.63316 26.3263
612 2 2.2208 2.61702 3.40554 22.0451
656 2 2.2208 5.3841 5.85531 22.1431
660 1 -1.1104 0.975876 7.2261 26.3144
662 1 -1.1104 1.20671 4.8558 23.2059
667 1 -1.1104 1.14947 4.39831 25.9817
672 2 2.2208 2.37535 6.01104 24.7964
674 1 -1.1104 3.91152 7.43778 26.2882
676 1 -1.1104 4.13094 4.63342 23.3145
678 1 -1.1104 4.0128 4.80581 26.1109
658 1 -1.1104 1.009 7.56621 23.6016
671 1 -1.1104 3.89933 7.34969 23.5116
599 1 -1.1104 6.72068 1.84136 26.4999
471 1 -1.1104 6.73628 7.3563 20.6837
664 1 -1.1104 6.91728 4.41151 23.6634
661 1 -1.1104 6.85681 7.30199 26.4112
595 1 -1.1104 7.08119 1.55116 23.3787
669 1 -1.1104 6.62196 4.5329 26.4925
659 1 -1.1104 6.83661 7.18206 23.6103
516 1 -1.1104 9.66429 7.33641 20.7116
629 1 -1.1104 12.4716 1.72972 23.6335
631 1 -1.1104 12.4834 1.71012 26.4425
634 2 2.2208 10.9587 3.07707 24.9934
637 1 -1.1104 9.49537 1.74972 23.6365
640 1 -1.1104 9.81162 1.65912 26.5344
642 2 2.2208 8.23376 3.21835 22.1339
688 1 -1.1104 9.67637 4.48672 26.4215
690 1 -1.1104 9.74993 4.48079 23.556
694 2 2.2208 8.3912 5.85241 24.9085
695 2 2.2208 11.0039 5.88688 22.1063
699 1 -1.1104 12.3647 4.57152 23.5887
702 1 -1.1104 12.4782 4.5539 26.2614
704 1 -1.1104 9.54535 7.32485 23.4747
698 1 -1.1104 12.3561 7.44302 26.5403
692 1 -1.1104 9.6165 7.37495 26.1462
697 1 -1.1104 12.4933 7.30319 23.6445
421 2 2.2208 -0.384126 6.0841 22.0453
623 2 2.2208 -0.161166 17.3639 22.1572
379 2 2.2208 5.37669 6.13354 27.7623
624 2 2.2208 -0.312269 -2.30476 24.8301
480 1 -1.1104 1.14904 10.3641 20.8468
496 1 -1.1104 3.93333 10.3379 20.7334
552 1 -1.1104 3.97218 13.1527 20.8273
657 2 2.2208 5.50625 11.7863 22.0164
663 1 -1.1104 1.02794 10.3554 23.6524
666 2 2.2208 5.3973 8.70894 24.8723
668 1 -1.1104 1.21181 10.2404 26.4319
673 2 2.2208 2.63924 11.7143 25.0995
675 2 2.2208 2.40731 9.03792 22.2222
677 1 -1.1104 3.80972 10.4498 23.6848
679 1 -1.1104 3.95121 10.0236 26.3812
681 1 -1.1104 4.2331 12.8759 26.7466
706 1 -1.1104 0.910699 13.1944 23.6546
713 1 -1.1104 4.00037 13.1488 23.7089
717 1 -1.1104 1.45585 13.0392 26.4011
712 1 -1.1104 6.89816 12.7937 26.3212
654 2 2.2208 13.6381 0.316681 24.9778
647 2 2.2208 2.60569 14.6152 22.2698
387 2 2.2208 13.6362 8.97488 27.6017
560 1 -1.1104 12.5633 15.932 26.2412
567 1 -1.1104 12.3716 13.0096 20.6743
537 1 -1.1104 6.72038 13.1517 20.669
511 1 -1.1104 12.2523 10.0772 20.6811
665 1 -1.1104 6.61746 10.1762 23.5998
670 1 -1.1104 7.0177 10.1205 26.3764
709 1 -1.1104 6.84932 12.8746 23.4515
463 1 -1.1104 12.4653 12.9612 23.5889
687 1 -1.1104 9.72989 10.2185 26.3787
689 1 -1.1104 9.45719 10.1542 23.739
691 2 2.2208 8.2204 8.77189 22.0634
693 2 2.2208 8.07641 11.4869 24.8663
696 2 2.2208 10.8089 11.7109 22.0268
700 1 -1.1104 12.3535 10.4803 23.321
701 2 2.2208 10.9807 8.64373 24.968
703 1 -1.1104 12.4128 10.0894 26.3361
498 1 -1.1104 12.6341 12.8917 26.5695
589 1 -1.1104 9.85638 13.1815 26.4434
561 1 -1.1104 9.5787 13.1009 23.5255
714 1 -1.1104 6.81226 15.7082 26.5272
383 2 2.2208 -0.296727 5.91834 27.7427
720 2 2.2208 5.45139 14.2974 25.1212
718 1 -1.1104 6.67347 18.5835 23.684
559 1 -1.1104 3.76893 15.9272 20.6747
545 1 -1.1104 1.13292 15.9086 20.7092
711 1 -1.1104 4.00007 18.7753 23.4948
655 1 -1.1104 1.07104 15.9908 23.5827
715 1 -1.1104 1.09991 18.6545 26.5032
682 1 -1.1104 4.10476 15.6323 26.5277
649 2 2.2208 2.53277 20.1911 22.1525
652 1 -1.1104 3.90228 16.0408 23.5782
716 1 -1.1104 1.19833 15.9534 26.3403
707 1 -1.1104 1.08244 18.7672 23.4869
705 2 2.2208 5.31106 17.4423 22.3155
686 1 -1.1104 3.89351 18.4647 26.2329
683 2 2.2208 2.52959 17.1955 25.1445
719 2 2.2208 5.24944 20.0666 25.045
356 2 2.2208 8.07348 11.4186 13.5911
526 2 2.2208 11.0103 19.8669 24.7618
588 1 -1.1104 6.99737 18.7852 26.404
524 1 -1.1104 12.308 15.8681 23.5131
620 1 -1.1104 9.60847 15.7541 26.2411
615 2 2.2208 8.04448 14.4407 22.1279
569 1 -1.1104 12.2972 18.5873 20.4854
581 1 -1.1104 9.50048 18.5502 20.7444
574 1 -1.1104 12.5627 15.7999 20.774
587 2 2.2208 8.36287 17.4454 24.8293
497 1 -1.1104 12.3527 18.6551 23.16
8945 2 2.2208 13.4857 -5.26018 19.2376
424 2 2.2208 -0.427761 0.190173 16.8457
334 2 2.2208 -0.368391 -2.60806 13.8887
8906 2 2.2208 13.639 -5.32413 24.8796
422 2 2.2208 13.595 8.79936 22.1965
370 2 2.2208 8.02087 -2.50703 27.768
648 2 2.2208 -0.105279 11.5345 16.7447
335 2 2.2208 -0.0658645 19.8694 13.7275
342 2 2.2208 -0.117666 14.3459 13.8683
375 2 2.2208 2.50671 19.8586 27.7048
371 2 2.2208 -0.269789 17.22 27.6599
369 2 2.2208 11.1595 0.258426 27.7271
721 2 2.2208 5.40925 22.7239 5.19249
723 1 -1.1104 1.10777 24.2826 0.805632
724 1 -1.1104 1.23459 24.2445 3.49097
725 1 -1.1104 0.948436 21.5073 1.15379
727 2 2.2208 5.46736 25.8116 2.37952
728 1 -1.1104 1.38409 21.5599 4.04916
730 1 -1.1104 3.85303 24.1962 0.913578
731 2 2.2208 2.6447 22.7806 2.48122
733 1 -1.1104 4.02497 24.231 3.77727
734 2 2.2208 2.54507 25.5969 5.04267
735 1 -1.1104 3.83084 21.5358 0.991756
737 1 -1.1104 3.94221 21.309 3.65421
726 1 -1.1104 1.3356 27.1311 0.966999
738 1 -1.1104 3.97972 26.9991 3.81547
870 1 -1.1104 4.03746 27.2402 6.82945
729 1 -1.1104 1.41467 27.2638 3.84683
736 1 -1.1104 4.17029 27.2285 1.13629
868 1 -1.1104 4.09431 24.1268 6.47909
743 1 -1.1104 6.7733 24.2626 3.8411
746 1 -1.1104 6.81267 21.5719 3.74898
741 2 2.2208 -0.282848 22.7733 5.18086
869 1 -1.1104 3.83497 21.366 6.56818
1037 2 2.2208 -0.151509 25.5811 7.97425
742 1 -1.1104 6.76988 24.203 0.796005
744 1 -1.1104 6.82553 21.6415 0.847071
748 2 2.2208 11.0322 22.8893 5.00966
750 1 -1.1104 12.3444 24.2581 0.742776
751 1 -1.1104 12.385 24.4319 3.51974
752 1 -1.1104 12.319 21.4583 0.949195
754 2 2.2208 11.0153 25.7151 2.26386
755 1 -1.1104 12.4966 21.7036 3.77128
757 1 -1.1104 9.60345 24.2324 0.802403
758 2 2.2208 8.11437 22.9398 2.21454
760 1 -1.1104 9.43311 24.1831 3.85489
761 2 2.2208 8.24353 25.5672 5.47232
762 1 -1.1104 9.56386 21.4476 0.91164
764 1 -1.1104 9.69149 21.4205 3.6811
753 1 -1.1104 12.4828 27.1524 0.918861
747 1 -1.1104 6.70438 27.095 4.10904
763 1 -1.1104 9.59451 27.1857 0.952098
765 1 -1.1104 9.61608 27.0066 3.64876
867 1 -1.1104 6.84809 26.8791 6.80013
756 1 -1.1104 12.457 27.0214 3.70761
898 1 -1.1104 9.76323 24.2574 6.58016
896 1 -1.1104 12.4648 21.5115 6.52799
900 1 -1.1104 9.61363 27.0529 6.69911
866 1 -1.1104 6.75539 21.3068 6.4796
1046 2 2.2208 10.837 25.7008 13.5031
865 1 -1.1104 1.54254 26.9956 6.48112
722 2 2.2208 5.47606 28.527 5.28164
732 2 2.2208 2.67057 28.5778 2.41114
770 1 -1.1104 1.31016 29.8013 0.801187
773 1 -1.1104 1.37342 29.9085 3.79565
776 1 -1.1104 1.16597 32.5381 0.889759
777 2 2.2208 5.41397 31.2464 2.32963
779 1 -1.1104 1.39961 32.5297 3.76676
781 1 -1.1104 3.99657 30.1013 0.987836
784 1 -1.1104 4.10238 29.7958 3.82296
786 2 2.2208 2.59329 31.2764 5.12106
788 1 -1.1104 4.00472 32.8927 0.916163
789 1 -1.1104 3.97075 32.6739 3.7821
927 1 -1.1104 4.06722 32.7951 6.85749
919 1 -1.1104 1.0387 29.9367 6.63155
923 1 -1.1104 1.01866 32.707 6.716
740 2 2.2208 -0.252858 28.5074 5.12753
1453 1 -1.1104 9.88027 46.4686 0.871967
1457 1 -1.1104 9.76663 46.6454 3.68121
791 2 2.2208 -0.181459 31.1773 2.38414
921 1 -1.1104 6.91055 29.8403 6.528
841 2 2.2208 -0.196489 42.2855 2.24619
745 1 -1.1104 7.0857 27.026 1.02997
780 1 -1.1104 6.65699 32.5697 3.80895
794 1 -1.1104 6.8269 29.7866 3.67008
795 1 -1.1104 6.70857 32.7521 1.04819
793 1 -1.1104 6.7515 30.0177 0.883741
749 2 2.2208 11.0184 28.4274 5.22181
759 2 2.2208 8.31355 28.4415 2.24833
797 1 -1.1104 12.468 30.0601 1.0436
799 1 -1.1104 12.6071 30.0083 3.67606
801 1 -1.1104 12.6009 32.9198 0.841157
802 2 2.2208 11.0479 31.4193 2.42521
804 1 -1.1104 12.3333 32.8446 3.64047
805 1 -1.1104 9.64244 30.0343 0.909607
808 1 -1.1104 9.75992 29.7793 3.74131
810 2 2.2208 8.33222 31.2191 5.04305
812 1 -1.1104 9.54263 32.6938 0.784194
813 1 -1.1104 9.67175 32.68 3.76911
956 1 -1.1104 9.7304 29.7204 6.51956
1058 2 2.2208 2.64043 39.7109 13.6113
1176 3 0 13.1137 29.2819 13.4949
1005 2 2.2208 -0.205854 33.9803 -0.295205
769 2 2.2208 5.367 34.1193 5.21712
771 1 -1.1104 1.11015 35.485 1.08699
774 1 -1.1104 1.12323 35.3566 3.72485
778 2 2.2208 5.44308 36.8552 2.1823
782 1 -1.1104 4.04907 35.526 0.848688
783 2 2.2208 2.64837 34.1121 2.41933
785 1 -1.1104 4.07512 35.3154 3.65756
787 2 2.2208 2.55947 36.8877 5.08484
821 1 -1.1104 0.943487 38.0345 0.787027
826 1 -1.1104 1.32785 38.2353 3.7287
835 1 -1.1104 3.96694 38.2697 0.932139