LAMMPS (29 Oct 2020)
OMP_NUM_THREADS environment is not set. Defaulting to 1 thread. (../comm.cpp:94)
  using 1 OpenMP thread(s) per MPI task
OMP_NUM_THREADS environment is not set. Defaulting to 1 thread. (../comm.cpp:94)
  using 1 OpenMP thread(s) per MPI task
Reading data file ...
  orthogonal box = (-0.433708 -5.3695608 -0.44304619) to (27.773708 333.44956 27.783046)
  2 by 13 by 2 MPI processor grid
  reading atoms ...
  17700 atoms
  reading velocities ...
  17700 velocities
Finding 1-2 1-3 1-4 neighbors ...
  special bond factors lj:    0.0      0.0      0.0     
  special bond factors coul:  0.0      0.0      0.0     
     0 = max # of 1-2 neighbors
     0 = max # of 1-3 neighbors
     0 = max # of 1-4 neighbors
     1 = max # of special neighbors
  special bonds CPU = 0.003 seconds
  read_data CPU = 0.057 seconds
WARNING: 10 of 1000 force values in table Kr-Kr are inconsistent with -dE/dr.
  Should only be flagged at inflection points (../pair_table.cpp:461)
WARNING: 1 of 1000 force values in table Kr-O are inconsistent with -dE/dr.
  Should only be flagged at inflection points (../pair_table.cpp:461)
WARNING: 1 of 1000 force values in table Kr-Th are inconsistent with -dE/dr.
  Should only be flagged at inflection points (../pair_table.cpp:461)
Setting atom values ...
  11760 settings made for charge
Setting atom values ...
  5880 settings made for charge
Setting atom values ...
  60 settings made for charge
PPPM initialization ...
  using 12-bit tables for long-range coulomb (../kspace.cpp:328)
  G vector (1/distance) = 0.29848303
  grid = 40 240 40
  stencil order = 5
  estimated absolute RMS force accuracy = 0.00015863242
  estimated relative force accuracy = 1.1016412e-05
  using single precision MKL FFT
  3d grid and FFT values/proc = 18225 7600
Neighbor list info ...
  update every 1 steps, delay 0 steps, check yes
  max neighbors/atom: 2000, page size: 100000
  master list distance cutoff = 13
  ghost atom cutoff = 13
  binsize = 6.5, bins = 5 53 5
  3 neighbor lists, perpetual/occasional/extra = 3 0 0
  (1) pair coul/long, perpetual
      attributes: half, newton on
      pair build: half/bin/newton
      stencil: half/bin/3d/newton
      bin: standard
  (2) pair eam/alloy, perpetual, skip from (1)
      attributes: half, newton on
      pair build: skip
      stencil: none
      bin: none
  (3) pair table, perpetual, skip from (1)
      attributes: half, newton on
      pair build: skip
      stencil: none
      bin: none
Setting up Verlet run ...
  Unit style    : metal
  Current step  : 0
  Time step     : 0.001
Per MPI rank memory allocation (min/avg/max) = 9.250 | 9.906 | 10.04 Mbytes
Step Temp E_pair E_mol TotEng Press 
       0         1200   -228970.39            0   -226225.06    485.06914 
   50000    1208.0842   -228980.42            0   -226216.59    210.81028 
Loop time of 351.506 on 52 procs for 50000 steps with 17700 atoms

Performance: 12.290 ns/day, 1.953 hours/ns, 142.245 timesteps/s
99.8% CPU use with 52 MPI tasks x 1 OpenMP threads

MPI task timing breakdown:
Section |  min time  |  avg time  |  max time  |%varavg| %total
---------------------------------------------------------------
Pair    | 252.73     | 261.39     | 271.33     |  24.5 | 74.36
Bond    | 0.004255   | 0.0067541  | 0.0090283  |   1.5 |  0.00
Kspace  | 66.756     | 76.353     | 84.537     |  42.8 | 21.72
Neigh   | 3.2933     | 3.5754     | 3.8212     |   6.1 |  1.02
Comm    | 7.1777     | 7.6521     | 8.5974     |  13.7 |  2.18
Output  | 5.4491e-05 | 5.9437e-05 | 0.00026238 |   0.0 |  0.00
Modify  | 0.97923    | 1.8381     | 2.7455     |  45.7 |  0.52
Other   |            | 0.6875     |            |       |  0.20

Nlocal:        340.385 ave         368 max         322 min
Histogram: 3 6 4 16 9 8 2 2 0 2
Nghost:        5483.08 ave        5659 max        5332 min
Histogram: 10 9 4 1 1 8 7 0 1 11
Neighs:       104807.0 ave      115701 max       92505 min
Histogram: 3 2 2 2 11 14 10 4 2 2

Total # of neighbors = 5449969
Ave neighs/atom = 307.90785
Ave special neighs/atom = 0.0000000
Neighbor list builds = 1202
Dangerous builds = 0
11760 atoms in group oxygen
PPPM initialization ...
  using 12-bit tables for long-range coulomb (../kspace.cpp:328)
  G vector (1/distance) = 0.29848303
  grid = 40 240 40
  stencil order = 5
  estimated absolute RMS force accuracy = 0.00015863242
  estimated relative force accuracy = 1.1016412e-05
  using single precision MKL FFT
  3d grid and FFT values/proc = 18225 7600
Neighbor list info ...
  update every 1 steps, delay 0 steps, check yes
  max neighbors/atom: 2000, page size: 100000
  master list distance cutoff = 13
  ghost atom cutoff = 13
  binsize = 6.5, bins = 5 53 5
  3 neighbor lists, perpetual/occasional/extra = 3 0 0
  (1) pair coul/long, perpetual
      attributes: half, newton on
      pair build: half/bin/newton
      stencil: half/bin/3d/newton
      bin: standard
  (2) pair eam/alloy, perpetual, skip from (1)
      attributes: half, newton on
      pair build: skip
      stencil: none
      bin: none
  (3) pair table, perpetual, skip from (1)
      attributes: half, newton on
      pair build: skip
      stencil: none
      bin: none
Setting up Verlet run ...
  Unit style    : metal
  Current step  : 0
  Time step     : 0.001
Per MPI rank memory allocation (min/avg/max) = 9.502 | 10.16 | 10.29 Mbytes
Step f_2 Temp v_Tdiff v_deltaT 
       0            0    1208.0842            0            0 
  100000    1292.9777    1206.7583  0.049273069    572.05575 
  200000    2530.9903    1200.4624  0.059706091    693.18217 
  300000    3753.7172     1199.534  0.060578317    703.30863 
  400000     4976.187    1190.8378  0.060033956    696.98865 
  500000     6208.638    1205.1208  0.058510167    679.29761 
  600000    7450.2105    1206.2867  0.057862064    671.77319 
  700000    8674.3232    1196.6907  0.058100108    674.53685 
  800000    9904.7597    1203.0104  0.059583445    691.75826 
  900000    11140.441     1192.672  0.057956614     672.8709 
 1000000    12368.185    1205.1149  0.059151143    686.73928 
Loop time of 7008.91 on 52 procs for 1000000 steps with 17700 atoms

Performance: 12.327 ns/day, 1.947 hours/ns, 142.675 timesteps/s
99.9% CPU use with 52 MPI tasks x 1 OpenMP threads

MPI task timing breakdown:
Section |  min time  |  avg time  |  max time  |%varavg| %total
---------------------------------------------------------------
Pair    | 5031.7     | 5217.5     | 5375.2     | 113.4 | 74.44
Bond    | 0.080249   | 0.1325     | 0.20419    |   6.9 |  0.00
Kspace  | 1366.1     | 1514.8     | 1691.3     | 193.5 | 21.61
Neigh   | 74.113     | 82.196     | 87.853     |  42.0 |  1.17
Comm    | 141.94     | 154.36     | 184.89     |  80.2 |  2.20
Output  | 0.0010496  | 0.0011166  | 0.0023415  |   0.5 |  0.00
Modify  | 5.5134     | 6.1172     | 6.8191     |  11.8 |  0.09
Other   |            | 33.83      |            |       |  0.48

Nlocal:        340.385 ave         366 max         314 min
Histogram: 2 4 7 4 6 10 5 9 2 3
Nghost:        5477.75 ave        5688 max        5293 min
Histogram: 4 11 8 2 2 9 4 0 4 8
Neighs:       104781.0 ave      113843 max       89868 min
Histogram: 3 2 2 1 6 4 9 12 8 5

Total # of neighbors = 5448618
Ave neighs/atom = 307.83153
Ave special neighs/atom = 0.0000000
Neighbor list builds = 27536
Dangerous builds = 0
Total wall time: 2:02:40
