ITEM: TIMESTEP
60000
ITEM: NUMBER OF ATOMS
17760
ITEM: BOX BOUNDS pp pp pp
-4.1166230170769508e-01 2.7751662301707846e+01
-5.0593187211672710e+00 3.3313931872116541e+02
-4.1265881969539775e-01 2.7752658819695554e+01
ITEM: ATOMS id type q x y z
1 2 2.2208 5.11651 0.702766 5.19278
2 1 -1.1104 1.07415 -3.42793 1.18446
6 1 -1.1104 1.13785 -3.71773 3.92634
10 1 -1.1104 0.955514 -0.682976 1.14372
12 2 2.2208 5.24064 -2.11096 2.36435
14 1 -1.1104 0.965485 -0.950963 3.97597
16 1 -1.1104 3.82015 -3.70298 0.859515
18 2 2.2208 2.32132 0.65869 2.45834
19 1 -1.1104 3.93515 -3.62789 3.79747
21 2 2.2208 2.34627 -2.29886 5.22731
23 1 -1.1104 3.83521 -0.671651 1.0525
24 1 -1.1104 3.87583 -0.889173 3.67138
344 2 2.2208 -0.361371 6.35758 10.8306
204 2 2.2208 -0.38857 -4.96158 10.7979
357 2 2.2208 10.8363 3.54578 13.6026
170 1 -1.1104 0.983076 -0.761388 6.66018
166 1 -1.1104 0.999259 -3.58747 6.5204
51 2 2.2208 8.15458 -5.03017 2.34196
8 1 -1.1104 6.77341 -3.61512 3.94863
11 1 -1.1104 6.64484 -0.754255 1.03856
4 1 -1.1104 6.53988 -3.4826 1.06115
15 1 -1.1104 6.69889 -0.734785 3.82434
31 2 2.2208 11.0822 0.653696 5.07551
32 1 -1.1104 12.1441 -3.55022 1.08222
34 1 -1.1104 12.3506 -3.52718 3.8476
36 1 -1.1104 12.1415 -0.895579 0.983766
37 2 2.2208 10.8033 -2.27482 2.44255
39 1 -1.1104 12.2522 -0.824816 3.76884
40 1 -1.1104 9.4398 -3.60774 0.862061
42 2 2.2208 8.05195 0.61116 2.38259
43 1 -1.1104 9.5515 -3.61667 3.82938
45 2 2.2208 8.11482 -2.10038 5.34334
47 1 -1.1104 9.35291 -0.727178 0.856071
48 1 -1.1104 9.54111 -0.673539 3.81742
171 1 -1.1104 6.65243 -0.741732 6.74294
29 2 2.2208 5.1897 -5.03531 5.25843
3 1 -1.1104 1.02618 2.00607 1.01374
7 1 -1.1104 0.998819 1.9941 3.92786
13 2 2.2208 5.08854 3.41364 2.33379
17 1 -1.1104 3.79007 1.91321 0.902176
20 1 -1.1104 3.65903 1.94652 3.75844
22 2 2.2208 2.42295 3.47337 5.16875
54 2 2.2208 5.19085 6.26027 5.20343
56 1 -1.1104 1.01214 7.68214 0.846139
60 1 -1.1104 0.949527 4.80075 0.87346
67 1 -1.1104 0.98507 4.86971 3.78006
71 1 -1.1104 3.82496 7.61531 0.861838
72 2 2.2208 2.40393 6.12528 2.21224
76 1 -1.1104 3.86658 4.6833 0.979733
79 1 -1.1104 3.78293 4.71636 3.86101
74 1 -1.1104 3.74543 7.60028 3.62882
58 1 -1.1104 0.752606 7.64076 3.78567
28 2 2.2208 2.39523 -4.97033 2.44012
390 2 2.2208 10.8783 -4.97157 -0.409801
236 1 -1.1104 0.944708 4.70679 6.50069
238 1 -1.1104 3.73435 7.59548 6.50186
239 1 -1.1104 3.70086 4.76454 6.52957
231 2 2.2208 8.06958 -4.93079 8.0523
316 2 2.2208 8.02775 20.3571 10.9416
59 1 -1.1104 6.48742 7.47665 3.76205
9 1 -1.1104 6.59578 1.99422 3.81007
69 1 -1.1104 6.66737 4.76997 3.94865
57 1 -1.1104 6.66728 7.55085 1.05688
63 1 -1.1104 6.59578 4.63328 0.968952
5 1 -1.1104 6.8623 2.0111 0.925917
33 1 -1.1104 12.1391 1.79943 0.95149
35 1 -1.1104 12.4036 2.04456 3.76015
38 2 2.2208 10.6899 3.39306 2.46207
41 1 -1.1104 9.53948 2.07407 0.971247
44 1 -1.1104 9.47499 2.08681 3.80463
46 2 2.2208 7.96528 3.46066 5.09264
84 2 2.2208 10.9154 6.21783 5.04602
86 1 -1.1104 12.3153 7.61361 0.963349
87 1 -1.1104 12.3911 7.74764 3.60361
88 1 -1.1104 12.2697 4.8122 0.90777
92 1 -1.1104 12.1945 4.8564 3.59414
94 1 -1.1104 9.54923 7.66836 0.890627
95 2 2.2208 8.10854 6.22552 2.37203
97 1 -1.1104 9.43836 7.61232 3.65483
99 1 -1.1104 9.52033 4.73155 1.05657
102 1 -1.1104 9.53258 4.85962 3.68337
385 2 2.2208 5.20446 -4.98111 -0.418085
269 1 -1.1104 9.34382 4.84315 6.51216
340 2 2.2208 13.6544 11.9219 8.065
49 2 2.2208 13.6224 0.635815 2.31965
55 2 2.2208 5.09297 11.9185 5.19088
61 1 -1.1104 1.09535 10.703 0.731771
66 2 2.2208 5.238 9.13061 2.25767
68 1 -1.1104 1.10844 10.579 3.58569
73 2 2.2208 2.46754 11.9284 2.38932
75 2 2.2208 2.44759 8.90845 5.10827
77 1 -1.1104 3.87161 10.4373 0.898902
80 1 -1.1104 3.90713 10.4785 3.82033
107 1 -1.1104 0.957015 13.5247 0.902969
113 1 -1.1104 0.852554 13.5407 3.75423
123 1 -1.1104 3.82685 13.3656 1.12222
128 1 -1.1104 3.70286 13.3297 3.94615
64 1 -1.1104 6.67907 10.4323 0.763728
338 2 2.2208 13.5901 3.50491 10.828
82 2 2.2208 -0.381445 8.98712 2.32085
115 1 -1.1104 6.4534 13.23 3.70364
70 1 -1.1104 6.56941 10.5097 3.72918
110 1 -1.1104 6.75315 13.1885 1.08854
85 2 2.2208 10.7993 12.0281 5.18328
89 1 -1.1104 12.2658 10.3721 0.995005
91 2 2.2208 10.7407 9.03895 2.3512
93 1 -1.1104 12.183 10.7747 3.79304
96 2 2.2208 7.9886 11.8207 2.44894
98 2 2.2208 7.85846 9.07756 5.26444
100 1 -1.1104 9.52768 10.4578 1.02157
103 1 -1.1104 9.29016 10.2993 3.88596
142 1 -1.1104 12.381 13.2998 0.877157
146 1 -1.1104 12.2508 13.2545 3.53609
153 1 -1.1104 9.58218 13.3092 1.03029
158 1 -1.1104 9.42067 13.2933 3.7898
101 1 -1.1104 9.08144 10.5339 6.70444
232 2 2.2208 11.0226 -5.04183 10.9609
355 2 2.2208 7.96048 0.709064 13.5324
130 2 2.2208 2.22732 14.6937 5.15556
119 2 2.2208 5.15663 14.8472 2.50712
373 2 2.2208 10.8419 14.6675 13.4445
106 2 2.2208 5.47563 17.6776 5.22386
109 1 -1.1104 1.07229 19.1091 0.842082
114 1 -1.1104 1.03718 18.984 3.69659
116 1 -1.1104 1.055 16.2524 0.803906
120 2 2.2208 5.24386 20.4766 2.37273
121 1 -1.1104 1.07196 16.2901 3.9456
125 1 -1.1104 3.74734 18.9333 0.799732
127 2 2.2208 2.42396 17.6462 2.28493
129 1 -1.1104 3.81218 18.877 3.65616
131 2 2.2208 2.26062 20.3669 5.08231
132 1 -1.1104 3.77646 16.2484 0.860363
134 1 -1.1104 3.87809 16.1873 3.70887
388 2 2.2208 7.98898 -2.25336 -0.405708
139 1 -1.1104 6.55377 19.2333 3.86825
311 2 2.2208 -0.38585 20.468 8.07785
343 2 2.2208 -0.350352 9.08084 8.07209
126 1 -1.1104 3.8263 19.2007 6.44161
133 1 -1.1104 4.00459 16.2521 6.4131
112 1 -1.1104 6.77757 18.8951 6.64862
150 2 2.2208 10.9232 14.659 2.23553
140 1 -1.1104 6.57792 16.049 1.03546
371 2 2.2208 5.15227 14.7976 13.6075
122 1 -1.1104 6.48259 16.1551 3.81927
81 2 2.2208 -0.401627 6.29894 5.31102
138 1 -1.1104 6.66868 18.8259 1.04313
160 2 2.2208 7.89631 14.7547 5.34787
141 2 2.2208 10.9389 17.4246 5.26295
144 1 -1.1104 12.4422 18.8968 0.917121
147 1 -1.1104 12.399 19.0352 3.81142
148 1 -1.1104 12.2318 16.0089 0.958873
151 2 2.2208 10.9204 20.3719 2.48087
152 1 -1.1104 12.2299 16.0872 3.82694
155 1 -1.1104 9.37833 18.9734 1.08694
157 2 2.2208 8.11183 17.4755 2.43366
159 1 -1.1104 9.42127 18.8172 3.88886
161 2 2.2208 8.03725 20.3984 5.09718
162 1 -1.1104 9.47399 15.9373 1.18491
164 1 -1.1104 9.33243 16.2028 3.77907
105 2 2.2208 13.6417 6.26396 2.26916
363 2 2.2208 8.02421 6.13119 13.457
367 2 2.2208 -0.339238 3.49913 13.624
174 1 -1.1104 3.83699 -0.763973 6.68313
26 2 2.2208 -0.366825 0.533572 5.15282
172 1 -1.1104 3.69278 -3.64568 6.56022
175 2 2.2208 5.16416 0.832514 10.8041
176 1 -1.1104 1.03442 -3.59258 12.22
180 1 -1.1104 0.852987 -3.4214 9.38264
184 1 -1.1104 0.913772 -0.90079 12.2633
186 2 2.2208 5.18903 -2.19772 8.10816
188 1 -1.1104 0.930803 -0.621124 9.51473
190 1 -1.1104 4.00386 -3.82136 12.3697
192 2 2.2208 2.38951 0.584652 8.0022
193 1 -1.1104 3.80662 -3.66994 9.52678
195 2 2.2208 2.35627 -2.29575 10.8473
197 1 -1.1104 3.83637 -0.663356 12.3041
198 1 -1.1104 3.83543 -0.698395 9.4657
178 1 -1.1104 6.76935 -3.46058 12.4802
381 2 2.2208 5.21432 0.662946 -0.364306
306 1 -1.1104 6.62536 16.0537 12.2865
318 1 -1.1104 9.57911 19.0077 9.37766
168 1 -1.1104 6.57967 -3.74325 6.76545
185 1 -1.1104 6.52858 -0.848688 12.3852
189 1 -1.1104 6.5609 -0.525184 9.56927
207 1 -1.1104 12.3728 -0.666287 6.4981
205 1 -1.1104 12.1283 -3.46398 6.68038
208 1 -1.1104 9.32949 -3.54155 6.6376
210 1 -1.1104 9.53549 -0.741943 6.70045
182 1 -1.1104 6.57238 -3.61354 9.46308
211 2 2.2208 11.0077 0.693233 10.8753
212 1 -1.1104 12.2652 -3.52194 12.3123
214 1 -1.1104 12.3894 -3.5498 9.40525
216 1 -1.1104 12.3363 -0.843083 12.404
217 2 2.2208 10.8 -2.18639 8.08986
219 1 -1.1104 12.197 -0.623482 9.58425
220 1 -1.1104 9.59145 -3.62984 12.4529
222 2 2.2208 8.06443 0.693149 7.92219
223 1 -1.1104 9.36822 -3.56968 9.54599
225 2 2.2208 8.16835 -2.09816 10.9163
227 1 -1.1104 9.56209 -0.647902 12.3622
228 1 -1.1104 9.39133 -0.731212 9.40921
203 2 2.2208 5.21872 -4.98977 10.7775
145 1 -1.1104 12.2688 19.1944 6.52763
52 2 2.2208 10.8292 -4.99082 5.26639
167 1 -1.1104 1.11507 1.91618 6.6838
173 1 -1.1104 3.70415 2.05447 6.43989
234 1 -1.1104 1.06294 7.56473 6.57018
177 1 -1.1104 1.10759 1.99878 12.0871
181 1 -1.1104 1.02629 2.23593 9.34178
187 2 2.2208 5.12321 3.46298 8.01207
191 1 -1.1104 3.85993 2.2796 12.1845
194 1 -1.1104 3.7188 2.07465 9.35571
196 2 2.2208 2.43193 3.39058 10.7748
240 2 2.2208 5.21546 6.18101 10.819
242 1 -1.1104 0.98262 7.66993 12.1328
244 1 -1.1104 0.997697 7.57985 9.34965
246 1 -1.1104 0.882621 4.86915 12.2281
251 1 -1.1104 1.05258 4.90186 9.47691
256 2 2.2208 2.4972 6.12881 7.90629
258 1 -1.1104 3.81093 7.89747 9.34312
260 1 -1.1104 3.68111 5.05316 12.173
262 1 -1.1104 3.80104 4.88515 9.41784
255 1 -1.1104 3.97486 7.77734 12.1339
325 2 2.2208 10.8582 14.8476 8.08987
237 1 -1.1104 6.34619 4.6288 6.56405
118 1 -1.1104 6.72532 16.1534 6.75314
324 2 2.2208 10.9436 20.529 8.05282
253 1 -1.1104 6.51318 4.93734 9.33927
183 1 -1.1104 6.51721 2.09614 9.36015
179 1 -1.1104 6.73359 2.02745 12.2027
243 1 -1.1104 6.85813 7.63723 12.2073
235 1 -1.1104 6.52579 7.69526 6.67965
248 1 -1.1104 6.49007 4.6954 12.1937
169 1 -1.1104 6.44819 1.95099 6.55182
209 1 -1.1104 9.3806 2.05131 6.48767
206 1 -1.1104 12.3848 2.33458 6.66723
266 1 -1.1104 12.2217 5.0113 6.36793
245 1 -1.1104 6.65617 7.54817 9.33137
265 1 -1.1104 12.148 7.75991 6.62854
267 1 -1.1104 9.3908 7.69582 6.48771
213 1 -1.1104 12.2564 2.00235 12.2734
215 1 -1.1104 12.3604 2.15241 9.54146
218 2 2.2208 10.7609 3.59664 7.84248
221 1 -1.1104 9.48791 2.1093 12.1082
224 1 -1.1104 9.33689 2.09498 9.3485
226 2 2.2208 7.96698 3.3517 10.6876
268 1 -1.1104 9.48658 4.80056 9.2934
271 1 -1.1104 9.5423 4.79945 12.1258
273 1 -1.1104 9.4918 7.51599 9.34038
275 2 2.2208 8.0627 6.20095 7.94596
276 2 2.2208 10.9526 6.27001 10.6435
278 1 -1.1104 12.0607 7.82523 12.1529
279 1 -1.1104 12.1151 7.84764 9.42764
280 1 -1.1104 12.4377 4.93524 12.1632
283 1 -1.1104 12.2264 5.03911 9.22109
285 1 -1.1104 9.64416 7.71099 12.1266
323 1 -1.1104 12.3165 16.3242 9.2822
391 2 2.2208 13.6206 -2.27725 -0.25463
135 2 2.2208 -0.332637 14.7374 2.23282
108 1 -1.1104 0.981282 13.2554 6.54622
124 1 -1.1104 3.79873 13.5873 6.68615
78 1 -1.1104 3.58051 10.504 6.5241
62 1 -1.1104 0.7716 10.4712 6.50464
241 2 2.2208 5.15456 11.9221 10.8121
247 1 -1.1104 0.794857 10.4147 12.3274
250 2 2.2208 5.20845 9.17275 7.99569
252 1 -1.1104 1.12838 10.5639 9.56472
257 2 2.2208 2.36299 11.9715 7.89187
259 2 2.2208 2.35711 9.14525 10.6584
261 1 -1.1104 3.75372 10.4481 12.0437
263 1 -1.1104 3.70893 10.6589 9.21024
305 1 -1.1104 3.70979 13.3005 9.42481
299 1 -1.1104 1.08312 13.3598 12.3095
294 1 -1.1104 0.660339 13.2908 9.34521
287 1 -1.1104 3.87657 13.2744 12.242
65 1 -1.1104 6.24064 10.6516 6.59021
154 1 -1.1104 9.35548 13.3296 6.62293
111 1 -1.1104 6.53332 13.2913 6.4818
249 1 -1.1104 6.75967 10.5442 11.8962
254 1 -1.1104 6.66739 10.4742 9.37254
297 1 -1.1104 6.65852 13.3014 12.3402
143 1 -1.1104 12.161 13.3284 6.60531
90 1 -1.1104 12.0083 10.5152 6.62578
290 1 -1.1104 6.41457 13.3933 9.41216
264 1 -1.1104 9.57169 10.6313 9.70954
270 1 -1.1104 9.47395 10.5669 12.3297
272 2 2.2208 8.15133 9.12229 10.8943
274 2 2.2208 8.01273 12.1034 8.03248
277 2 2.2208 10.9042 11.9925 10.8706
281 1 -1.1104 12.3161 10.5435 12.3512
282 2 2.2208 10.8429 9.13868 7.99869
284 1 -1.1104 12.3559 10.5108 9.52228
319 1 -1.1104 9.45187 13.451 9.38754
322 1 -1.1104 9.44181 13.3157 12.1896
328 1 -1.1104 12.2977 13.3464 9.52411
330 1 -1.1104 12.33 13.3854 12.2339
369 2 2.2208 5.11958 20.365 13.6621
295 2 2.2208 5.05024 14.8959 7.8474
310 2 2.2208 2.43621 14.6394 10.6578
117 1 -1.1104 0.93347 16.3172 6.73234
286 1 -1.1104 3.79466 18.8946 11.922
292 1 -1.1104 0.968805 16.1538 9.50264
293 2 2.2208 5.36847 20.3342 8.0199
298 1 -1.1104 1.06402 18.9708 12.1554
300 2 2.2208 5.21915 17.539 10.7516
308 1 -1.1104 3.79326 16.0637 11.857
309 2 2.2208 2.35843 20.3856 10.7481
291 1 -1.1104 0.970274 19.0046 9.38358
307 1 -1.1104 1.03069 16.0363 12.3135
302 1 -1.1104 1.04512 19.0506 6.63616
301 1 -1.1104 4.01672 18.9545 9.26653
303 2 2.2208 2.28158 17.701 7.94986
304 1 -1.1104 3.8061 16.1626 9.15682
289 1 -1.1104 6.56683 15.8948 9.60483
288 1 -1.1104 6.8607 18.9595 9.50698
326 1 -1.1104 12.258 16.1347 12.2798
296 1 -1.1104 6.61822 18.773 12.2706
327 1 -1.1104 12.3955 19.1098 9.4596
320 2 2.2208 8.18213 17.7286 8.05634
321 1 -1.1104 9.46017 19.0796 12.3434
315 1 -1.1104 9.41225 16.0787 12.2042
156 1 -1.1104 9.45461 19.1152 6.61849
331 2 2.2208 10.9021 17.5541 10.7347
149 1 -1.1104 12.2246 16.1443 6.63044
163 1 -1.1104 9.48475 16.1525 6.58729
314 1 -1.1104 9.37118 16.3126 9.43363
329 1 -1.1104 12.126 18.8724 12.2938
317 2 2.2208 8.04182 14.624 10.8077
377 2 2.2208 7.99235 14.5926 -0.267876
337 2 2.2208 13.577 14.6986 5.00556
335 2 2.2208 13.6637 9.21688 5.22753
342 2 2.2208 -0.318599 11.9208 10.8923
360 2 2.2208 5.28066 9.16963 13.5434
393 2 2.2208 5.19342 6.1931 -0.402647
359 2 2.2208 2.26831 6.28607 13.5688
368 2 2.2208 2.61847 17.475 13.4128
349 2 2.2208 2.23855 0.620782 13.5516
398 2 2.2208 10.8326 6.23002 -0.298704
350 2 2.2208 -0.220053 20.3494 13.5419
104 2 2.2208 13.6083 11.981 2.21266
339 2 2.2208 13.6126 6.24702 7.83415
379 2 2.2208 8.11634 20.2028 -0.305889
347 2 2.2208 2.48321 -5.03273 13.5428
361 2 2.2208 2.28554 11.8978 13.6639
395 2 2.2208 5.16129 11.9168 -0.360918
366 2 2.2208 13.639 6.41907 13.6233
406 2 2.2208 5.16875 0.69212 16.5387
407 1 -1.1104 0.703785 -3.30242 17.7581
411 1 -1.1104 0.68557 -3.58503 14.9531
419 1 -1.1104 1.04806 -0.389506 17.991
421 2 2.2208 5.10559 -2.19869 19.3911
423 1 -1.1104 0.792188 -0.67552 15.1193
427 1 -1.1104 3.6835 -3.63738 18.0968
429 2 2.2208 2.41337 0.838764 19.3068
430 1 -1.1104 3.69847 -3.59559 15.1609
434 2 2.2208 2.32306 -2.07598 16.4918
436 1 -1.1104 3.85792 -0.900378 17.8844
437 1 -1.1104 3.77678 -0.7331 15.1394
439 2 2.2208 -0.34042 -4.93655 16.5931
420 1 -1.1104 6.6918 -0.647289 17.7478
638 2 2.2208 11.0143 14.6253 24.7837
447 2 2.2208 -0.334229 17.4895 16.3174
412 1 -1.1104 0.843585 -3.40147 20.6522
438 1 -1.1104 3.73585 -0.947152 20.6966
672 2 2.2208 13.5684 0.64888 24.8935
425 1 -1.1104 6.76261 -0.546323 15.0435
415 1 -1.1104 6.34824 -3.40399 15.267
409 1 -1.1104 6.54147 -3.56377 18.1614
449 2 2.2208 10.7692 0.785888 16.4378
450 1 -1.1104 12.2057 -3.43024 18.2268
452 1 -1.1104 12.2492 -3.52669 15.3384
456 1 -1.1104 12.2267 -0.631257 17.901
457 2 2.2208 10.7294 -2.12249 19.3317
459 1 -1.1104 12.2586 -0.71922 15.029
461 1 -1.1104 9.42822 -3.47393 18.0412
463 2 2.2208 8.03219 0.732421 19.149
464 1 -1.1104 9.44532 -3.37396 15.1842
468 2 2.2208 7.95401 -1.96193 16.4867
470 1 -1.1104 9.39797 -0.6386 17.896
471 1 -1.1104 9.47904 -0.672375 15.0089
465 1 -1.1104 9.41546 -3.68743 20.7139
408 1 -1.1104 0.859756 2.30821 17.6356
413 1 -1.1104 1.08324 2.22139 15.0022
422 2 2.2208 5.18219 3.56848 19.1375
428 1 -1.1104 3.85721 2.08252 17.7476
432 1 -1.1104 3.87603 1.90613 14.9294
435 2 2.2208 2.37948 3.50189 16.3261
482 2 2.2208 5.28802 6.28756 16.224
484 1 -1.1104 1.0482 7.68371 17.6274
486 1 -1.1104 0.914775 7.70936 14.8768
490 1 -1.1104 0.83829 5.05704 17.8805
495 1 -1.1104 0.967502 4.9667 15.1174
503 1 -1.1104 3.82306 7.78187 17.7789
504 2 2.2208 2.43165 6.36469 19.2855
506 1 -1.1104 3.85711 7.64501 14.935
509 1 -1.1104 3.96801 5.0161 17.7938
511 1 -1.1104 3.83679 4.81244 15.102
378 2 2.2208 10.9861 17.3703 27.6919
384 2 2.2208 -0.323712 -5.02322 27.5997
442 2 2.2208 -0.391267 0.965356 16.3603
414 1 -1.1104 0.861467 2.03774 20.4397
487 1 -1.1104 0.911346 7.64898 20.6002
496 1 -1.1104 0.965179 4.9143 20.5816
410 1 -1.1104 6.63831 2.21291 17.9559
488 1 -1.1104 6.65337 7.61014 15.0825
417 1 -1.1104 6.63662 1.9586 15.1596
499 1 -1.1104 6.60637 4.73624 14.9388
485 1 -1.1104 6.53542 7.76477 17.9276
492 1 -1.1104 6.66616 5.00651 17.7051
451 1 -1.1104 12.1504 2.14299 17.8491
454 1 -1.1104 12.1367 2.14514 15.0582
458 2 2.2208 10.7524 3.42971 19.2621
462 1 -1.1104 9.37088 2.03177 17.8267
466 1 -1.1104 9.47186 2.10197 14.8561
469 2 2.2208 8.04936 3.38963 16.4228
518 2 2.2208 10.8588 6.31956 16.3735
520 1 -1.1104 12.1761 7.68254 17.749
521 1 -1.1104 12.1837 7.65465 15.0282
523 1 -1.1104 12.2325 4.95002 17.8066
526 1 -1.1104 12.2421 4.91166 14.8596
530 1 -1.1104 9.33595 7.59616 17.875
531 2 2.2208 7.94586 6.2849 19.29
533 1 -1.1104 9.53154 7.80083 15.0245
536 1 -1.1104 9.39038 4.79117 17.6503
538 1 -1.1104 9.39667 4.75995 14.8724
475 2 2.2208 7.99277 -5.00921 19.4094
489 1 -1.1104 6.64254 7.58565 20.7032
522 1 -1.1104 12.1968 7.58558 20.5813
348 2 2.2208 5.17712 -2.07111 13.6633
640 2 2.2208 2.28764 -4.97687 24.8693
440 2 2.2208 5.14513 -4.84119 16.6637
483 2 2.2208 5.16909 12.0369 16.4792
491 1 -1.1104 0.909231 10.5356 17.9211
494 2 2.2208 5.18578 9.14598 19.117
497 1 -1.1104 0.957777 10.4884 15.2708
505 2 2.2208 2.40351 11.8454 19.2936
508 2 2.2208 2.41544 9.15931 16.4089
510 1 -1.1104 3.7734 10.4671 17.5506
513 1 -1.1104 3.85925 10.4035 14.9081
546 1 -1.1104 0.987315 13.1969 17.8338
550 1 -1.1104 0.847122 13.2418 14.9025
566 1 -1.1104 3.88388 13.2266 17.9963
569 1 -1.1104 3.82721 13.4637 15.1524
517 2 2.2208 13.6433 11.9378 19.2514
514 1 -1.1104 3.90466 10.6663 20.4903
548 1 -1.1104 6.65315 13.5731 17.8986
501 1 -1.1104 6.92239 10.2964 14.948
554 1 -1.1104 6.59506 13.4492 15.0235
474 2 2.2208 10.7307 -4.94021 16.5972
493 1 -1.1104 6.61556 10.7349 17.7726
519 2 2.2208 10.9433 11.833 16.5523
524 1 -1.1104 12.2615 10.5013 18.0382
525 2 2.2208 10.7408 8.93821 19.3492
528 1 -1.1104 12.3817 10.5579 15.1089
532 2 2.2208 7.93795 12.0342 19.4284
535 2 2.2208 7.99288 9.0249 16.5532
537 1 -1.1104 9.46283 10.5427 17.8356
540 1 -1.1104 9.63328 10.408 15.196
582 1 -1.1104 12.1944 13.2666 17.7257
584 1 -1.1104 12.306 13.5821 14.8794
593 1 -1.1104 9.33642 13.2999 17.7781
596 1 -1.1104 9.47635 13.2053 14.9808
370 2 2.2208 13.5573 0.673035 13.7063
502 1 -1.1104 6.63046 10.4686 20.5316
529 1 -1.1104 12.2748 10.3928 20.7683
565 1 -1.1104 6.51165 16.2858 20.6078
728 2 2.2208 13.6316 6.31258 24.8205
700 2 2.2208 7.95447 20.2316 22.1073
747 1 -1.1104 6.67378 16.0056 23.4262
607 2 2.2208 10.7651 17.5685 21.8993
573 2 2.2208 2.321 14.7254 16.4391
560 2 2.2208 5.14192 14.8456 19.333
545 2 2.2208 5.3474 17.7364 16.4893
547 1 -1.1104 1.16246 18.8328 17.7084
552 1 -1.1104 1.26206 18.929 14.917
558 1 -1.1104 0.939618 16.1314 17.8835
561 2 2.2208 5.33254 20.3386 19.3401
562 1 -1.1104 1.06005 15.9864 15.0408
567 1 -1.1104 4.08227 18.9883 17.8614
568 2 2.2208 2.50935 17.5587 19.1751
571 1 -1.1104 3.87849 18.8268 14.8409
574 2 2.2208 2.41554 20.1855 16.4646
575 1 -1.1104 3.77361 16.1778 17.7728
576 1 -1.1104 3.64754 16.2003 15.0016
556 1 -1.1104 6.6308 18.971 15.084
732 1 -1.1104 6.59112 15.8954 26.2994
445 2 2.2208 13.6128 9.00246 22.1072
579 2 2.2208 13.6002 3.50309 16.4739
592 1 -1.1104 12.0634 16.0929 20.5096
564 1 -1.1104 6.6102 16.0945 15.0499
549 1 -1.1104 6.95206 19.0777 17.8317
559 1 -1.1104 6.68567 16.2896 17.7244
476 2 2.2208 -0.372354 20.3 19.338
589 2 2.2208 10.735 14.5958 19.3132
600 2 2.2208 8.04384 14.5687 16.3828
581 2 2.2208 10.8287 17.3278 16.4647
583 1 -1.1104 12.4671 18.8398 17.9593
586 1 -1.1104 12.4202 18.9231 15.1947
588 1 -1.1104 12.2656 16.0366 17.8018
590 2 2.2208 10.9438 20.2825 19.2562
591 1 -1.1104 12.1658 16.1275 15.0932
594 1 -1.1104 9.75734 18.8218 17.9479
595 2 2.2208 8.08053 17.5891 19.2291
598 1 -1.1104 9.68802 18.9294 15.177
601 2 2.2208 8.13504 20.2905 16.3636
602 1 -1.1104 9.53737 16.0601 17.6642
603 1 -1.1104 9.4197 16.0829 15.0163
399 2 2.2208 8.16619 9.03508 27.648
557 1 -1.1104 6.52246 18.8975 20.7441
736 1 -1.1104 6.60394 18.8941 23.5169
671 2 2.2208 13.5622 -2.17575 22.2313
424 1 -1.1104 1.01572 -0.567568 20.5879
431 1 -1.1104 3.70961 -3.71274 20.8643
609 2 2.2208 5.39711 0.63335 22.0832
610 1 -1.1104 0.906086 -3.74559 23.4744
614 1 -1.1104 0.851651 -3.61631 26.2893
618 1 -1.1104 0.987067 -0.91122 23.5557
620 2 2.2208 5.29526 -2.2015 24.7377
622 1 -1.1104 0.801906 -0.80701 26.4503
624 1 -1.1104 3.66033 -3.55898 23.5491
626 2 2.2208 2.38707 0.496621 24.9729
627 1 -1.1104 3.92545 -3.43413 26.3864
629 2 2.2208 2.38163 -2.23844 22.0137
631 1 -1.1104 3.8434 -0.731906 23.4783
632 1 -1.1104 3.69651 -0.665449 26.179
578 2 2.2208 13.4723 0.76504 19.4362
616 1 -1.1104 6.6002 -3.59813 26.2319
724 2 2.2208 -0.230897 20.2265 24.935
670 1 -1.1104 6.7122 18.8192 26.3608
372 2 2.2208 10.9369 20.274 13.6823
612 1 -1.1104 6.83797 -3.63446 23.5499
472 1 -1.1104 9.34526 -0.710641 20.6614
426 1 -1.1104 6.7568 -0.806277 20.5813
416 1 -1.1104 6.60781 -3.64844 20.8795
619 1 -1.1104 6.59454 -0.642763 23.4735
623 1 -1.1104 6.67447 -0.657279 26.4253
460 1 -1.1104 12.2276 -0.711354 20.8984
453 1 -1.1104 12.177 -3.56716 20.8396
645 2 2.2208 10.7765 0.742594 22.1238
646 1 -1.1104 12.3477 -3.63049 23.6398
648 1 -1.1104 12.063 -3.60938 26.3041
650 1 -1.1104 12.1441 -0.906566 23.5742
651 2 2.2208 10.8732 -2.22158 24.8665
653 1 -1.1104 12.1778 -0.641514 26.2328
654 1 -1.1104 9.56024 -3.50433 23.5567
656 2 2.2208 8.00097 0.633458 24.989
657 1 -1.1104 9.36195 -3.84021 26.2012
659 2 2.2208 7.99934 -2.1935 22.0788
661 1 -1.1104 9.35441 -0.576065 23.3346
662 1 -1.1104 9.416 -0.869227 26.1837
389 2 2.2208 8.03864 3.40807 27.7006
392 2 2.2208 13.557 3.47808 27.6613
604 1 -1.1104 9.25621 16.1947 20.6992
433 1 -1.1104 3.82333 2.13935 20.5308
507 1 -1.1104 3.70512 7.87535 20.6655
512 1 -1.1104 3.73563 4.98425 20.6241
611 1 -1.1104 0.847744 2.15288 23.3381
615 1 -1.1104 0.919898 1.98602 26.3906
621 2 2.2208 5.21675 3.4724 24.9433
625 1 -1.1104 3.61314 2.08846 23.46
628 1 -1.1104 3.72828 2.0885 26.227
630 2 2.2208 2.36472 3.44532 22.0177
674 2 2.2208 5.08498 6.41201 22.1757
676 1 -1.1104 0.773035 7.7457 23.3731
678 1 -1.1104 1.00938 7.6805 26.2357
680 1 -1.1104 1.0202 4.92883 23.3367
685 1 -1.1104 1.04552 4.80403 26.163
689 1 -1.1104 3.62805 7.65281 23.4831
690 2 2.2208 2.44598 6.26901 24.8847
694 1 -1.1104 3.90883 4.95407 23.4442
696 1 -1.1104 3.66002 4.88163 26.3051
692 1 -1.1104 3.86069 7.50669 26.2612
441 2 2.2208 2.2932 -4.98964 19.3938
687 1 -1.1104 6.48163 4.79009 26.3222
679 1 -1.1104 6.59769 7.76218 26.4969
418 1 -1.1104 6.61074 2.11271 20.7498
500 1 -1.1104 6.5561 4.81661 20.7291
617 1 -1.1104 6.66506 2.10713 26.2396
682 1 -1.1104 6.53203 4.98301 23.5265
467 1 -1.1104 9.38185 2.20443 20.714
455 1 -1.1104 12.1363 2.03052 20.7481
534 1 -1.1104 9.44875 7.77985 20.7351
527 1 -1.1104 12.1597 4.8102 20.6524
539 1 -1.1104 9.32009 4.8956 20.56
613 1 -1.1104 6.58315 2.06834 23.6834
677 1 -1.1104 6.54638 7.64564 23.6838
647 1 -1.1104 12.1996 2.0795 23.5594
649 1 -1.1104 12.4669 2.12328 26.2467
652 2 2.2208 10.72 3.50705 24.9006
655 1 -1.1104 9.36532 2.18418 23.3709
658 1 -1.1104 9.33684 2.10883 26.2747
660 2 2.2208 7.8851 3.38996 22.0833
706 1 -1.1104 9.42871 4.97295 26.3692
708 1 -1.1104 9.30652 4.74805 23.2601
710 1 -1.1104 9.32397 7.66188 26.3299
712 2 2.2208 7.94903 6.22154 24.9355
713 2 2.2208 10.6625 6.14467 22.0642
715 1 -1.1104 12.1558 7.54729 23.2789
716 1 -1.1104 12.1635 7.67293 26.2424
717 1 -1.1104 12.0221 4.95976 23.4653
720 1 -1.1104 12.2531 4.77145 26.3344
722 1 -1.1104 9.2737 7.51091 23.6413
543 2 2.2208 13.5746 9.20906 16.3752
551 1 -1.1104 0.834281 13.2083 20.744
570 1 -1.1104 3.72188 13.3029 20.7891
498 1 -1.1104 0.981846 10.4415 20.6437
675 2 2.2208 5.18146 11.869 22.0787
681 1 -1.1104 1.02495 10.5097 23.6421
684 2 2.2208 5.22932 9.17324 24.915
686 1 -1.1104 0.849801 10.5324 26.209
691 2 2.2208 2.31855 11.9537 24.8519
693 2 2.2208 2.23614 9.09173 22.0841
695 1 -1.1104 3.93055 10.3843 23.4168
697 1 -1.1104 3.57439 10.4141 26.1239
741 1 -1.1104 1.02498 13.4398 23.5539
746 1 -1.1104 3.91492 13.2671 26.4293
731 1 -1.1104 3.67818 13.3007 23.4522
735 1 -1.1104 1.02246 13.2387 26.3924
667 2 2.2208 8.0273 17.4792 24.9084
704 1 -1.1104 9.36896 16.0786 26.4819
739 1 -1.1104 6.6259 13.1006 23.5969
730 1 -1.1104 6.68558 13.0795 26.4807
597 1 -1.1104 9.3171 13.375 20.701
555 1 -1.1104 6.46172 13.6313 20.9292
585 1 -1.1104 12.387 13.3008 20.4524
688 1 -1.1104 6.64587 10.4238 26.2739
683 1 -1.1104 6.55986 10.3885 23.4479
541 1 -1.1104 9.34629 10.4872 20.7018
673 1 -1.1104 9.44105 13.3927 26.4767
634 1 -1.1104 12.2147 13.2275 26.2177
664 1 -1.1104 9.59059 13.0194 23.6452
608 1 -1.1104 12.1888 13.4009 23.3446
705 1 -1.1104 9.417 10.416 26.3302
707 1 -1.1104 9.35447 10.3937 23.6553
709 2 2.2208 7.9873 9.13029 22.2163
711 2 2.2208 8.0977 11.9405 24.9707
714 2 2.2208 10.8498 11.7124 22.2394
718 1 -1.1104 12.0633 10.4411 23.7006
719 2 2.2208 10.6905 8.88529 24.9297
721 1 -1.1104 12.2546 10.4177 26.3874
636 1 -1.1104 12.2329 16.2794 23.4966
663 1 -1.1104 12.1954 16.1086 26.1348
641 2 2.2208 10.8311 20.2673 24.851
480 2 2.2208 13.5911 14.7998 16.3173
383 2 2.2208 2.44307 3.4637 27.5189
577 1 -1.1104 3.74751 16.1072 20.6708
572 1 -1.1104 3.75739 18.9142 20.6131
553 1 -1.1104 0.96575 18.9043 20.4205
563 1 -1.1104 1.18439 16.0877 20.5748
738 2 2.2208 5.19428 14.7039 24.8327
727 2 2.2208 2.36671 14.6202 22.1473
744 2 2.2208 2.31226 17.5283 24.7664
743 1 -1.1104 3.69564 18.7931 26.1627
742 2 2.2208 5.1902 17.4784 22.0885
740 1 -1.1104 0.829783 18.8844 23.3982
750 2 2.2208 2.20418 20.2784 22.1201
749 1 -1.1104 3.81384 16.1553 23.5261
748 1 -1.1104 0.931371 16.2141 23.3606
745 1 -1.1104 3.78706 15.9441 26.2765
729 1 -1.1104 3.82911 18.9159 23.472
733 1 -1.1104 0.987795 18.7836 26.2957
734 1 -1.1104 1.02781 16.0647 26.1025
737 2 2.2208 5.22584 20.2193 24.991
599 1 -1.1104 9.35613 19.0273 20.5825
701 1 -1.1104 9.30069 15.8872 23.5025
635 1 -1.1104 12.24 18.9705 26.3997
665 1 -1.1104 9.43773 18.8496 23.4645
587 1 -1.1104 12.2696 19.0363 20.7944
698 1 -1.1104 9.54982 18.9767 26.377
633 1 -1.1104 12.2606 18.8001 23.475
699 2 2.2208 7.9713 14.66 22.2073
405 2 2.2208 2.41174 20.3265 27.5706
403 2 2.2208 2.36224 14.7189 27.7269
404 2 2.2208 5.07757 17.4706 27.7127
401 2 2.2208 -0.383661 17.3272 27.5775
352 2 2.2208 5.38381 3.2781 13.7225
400 2 2.2208 10.9049 11.9157 27.6607
353 2 2.2208 7.94715 -4.88683 13.7696
356 2 2.2208 10.9515 -2.12405 13.7504
542 2 2.2208 13.6176 6.4255 19.1882
477 2 2.2208 13.6459 -2.21799 16.5344
644 2 2.2208 -0.361179 3.42985 24.7404
358 2 2.2208 -0.387685 9.1349 13.7043
375 2 2.2208 13.6385 20.412 27.6902
362 2 2.2208 13.651 11.989 13.7041
394 2 2.2208 2.36698 9.00928 27.6835
364 2 2.2208 10.8797 9.09878 13.7193
380 2 2.2208 13.6275 17.5535 13.7742
382 2 2.2208 2.41864 -2.2435 27.7207
387 2 2.2208 10.7889 0.474864 27.7085
365 2 2.2208 7.95476 11.9439 13.6862
354 2 2.2208 13.6639 -5.01811 13.7076
376 2 2.2208 8.09035 17.5245 13.7549
751 2 2.2208 5.25043 23.2983 5.312
753 1 -1.1104 0.98589 24.6656 0.921194
754 1 -1.1104 1.03321 24.5898 3.47521
755 1 -1.1104 1.00315 21.9079 0.688228
757 2 2.2208 5.33927 25.8815 2.44112
758 1 -1.1104 0.653782 21.6155 3.69707
760 1 -1.1104 3.57768 24.5074 0.715719
761 2 2.2208 2.33898 23.2283 2.23719
763 1 -1.1104 3.96623 24.5733 3.68523
764 2 2.2208 2.50346 26.0551 5.08109
765 1 -1.1104 3.72834 21.6141 1.02164
767 1 -1.1104 3.5723 21.838 3.84409
766 1 -1.1104 3.83233 27.3608 0.91891
759 1 -1.1104 0.965062 27.319 3.7266
768 1 -1.1104 3.90003 27.3204 3.89422
756 1 -1.1104 0.983755 27.3525 0.912864
771 2 2.2208 -0.412827 25.8894 2.28563
773 1 -1.1104 6.67733 24.5874 3.70563
777 1 -1.1104 6.59933 27.2503 3.84926
890 2 2.2208 13.6121 45.6466 2.58815
775 1 -1.1104 6.63305 27.508 0.900818
774 1 -1.1104 6.41783 21.8778 1.00365
1070 2 2.2208 13.602 42.8957 5.38302
772 1 -1.1104 6.64289 24.6369 0.898791
776 1 -1.1104 6.57106 21.8902 3.65585
778 2 2.2208 10.8116 23.2445 5.15414
780 1 -1.1104 12.4981 24.697 0.94215
781 1 -1.1104 12.3601 24.5365 3.77789
782 1 -1.1104 12.3214 21.8751 1.08684
784 2 2.2208 10.8601 25.9933 2.33476
785 1 -1.1104 12.2693 21.7217 3.97791
787 1 -1.1104 9.45309 24.65 0.880846
788 2 2.2208 8.15353 23.1313 2.32223
790 1 -1.1104 9.55416 24.5896 3.78336
791 2 2.2208 8.12149 26.0573 5.07608
792 1 -1.1104 9.5214 21.6342 0.832747
794 1 -1.1104 9.35269 21.6913 3.68105
783 1 -1.1104 12.1911 27.3517 1.19048
891 2 2.2208 13.5918 40.1286 2.57374
786 1 -1.1104 12.1962 27.4731 3.84481
1048 1 -1.1104 9.36636 41.3162 9.42807
925 1 -1.1104 12.2176 24.5336 6.67596
1042 2 2.2208 -0.229433 40.0552 11.0186
752 2 2.2208 5.28891 28.7854 5.26459
762 2 2.2208 2.33355 28.7112 2.45103
800 1 -1.1104 1.07396 30.0007 1.15797
803 1 -1.1104 1.03429 30.3591 3.95908
806 1 -1.1104 0.866584 32.7918 1.01866
807 2 2.2208 5.15247 31.6916 2.52556
809 1 -1.1104 0.950187 33.0878 3.80595
811 1 -1.1104 3.88381 30.1981 1.00839
814 1 -1.1104 3.81185 30.1645 3.9875
816 2 2.2208 2.48879 31.5854 5.38445
818 1 -1.1104 3.62931 33.0951 0.939736
819 1 -1.1104 3.83823 32.9812 3.85252
824 1 -1.1104 6.62549 30.2111 3.76822
823 1 -1.1104 6.46332 30.3106 0.955788
825 1 -1.1104 6.43033 33.0497 1.13489
1088 1 -1.1104 6.17567 46.518 12.6065
1122 2 2.2208 10.8818 40.0375 -0.32079
900 1 -1.1104 3.7321 27.2487 6.66066
798 2 2.2208 13.5735 26.0528 5.2682
795 1 -1.1104 9.47564 27.4098 3.77176
793 1 -1.1104 9.37959 27.3354 0.976752
810 1 -1.1104 6.57811 33.0497 3.72198
779 2 2.2208 10.6083 28.976 5.2554
789 2 2.2208 8.01908 28.7431 2.42348
827 1 -1.1104 12.0669 30.1513 1.06552
829 1 -1.1104 12.2501 30.3596 3.91743
831 1 -1.1104 12.0606 33.0396 1.10202
832 2 2.2208 10.7767 31.7368 2.44491
834 1 -1.1104 12.2027 33.197 3.90874
835 1 -1.1104 9.28246 30.0383 1.1409
838 1 -1.1104 9.43181 30.1746 3.93389
840 2 2.2208 7.83498 31.6568 5.21713
842 1 -1.1104 9.29919 32.8259 0.925138
843 1 -1.1104 9.53447 32.8464 3.97552
988 1 -1.1104 9.48232 33.1492 6.76236
1128 2 2.2208 10.8451 28.6968 -0.263648
1137 2 2.2208 13.5986 31.6614 -0.291057
10393 3 0 11.4369 45.7205 9.97195
813 2 2.2208 2.36093 34.4067 2.51718
799 2 2.2208 5.21342 34.4801 5.214
801 1 -1.1104 1.02865 35.7379 1.06054
804 1 -1.1104 0.976627 35.9038 3.73695
808 2 2.2208 5.03197 37.2929 2.37081
812 1 -1.1104 3.78834 36.0265 1.12916
815 1 -1.1104 3.67075 35.7512 3.80833
817 2 2.2208 2.41248 37.2291 5.35283
856 1 -1.1104 1.02784 38.6261 3.93237
845 2 2.2208 5.29895 40.0604 5.43524
851 1 -1.1104 0.907367 38.5085 1.04285
861 2 2.2208 2.40183 39.9709 2.71022
865 1 -1.1104 3.62599 38.8095 1.06886
867 1 -1.1104 3.7971 38.5011 3.94838
802 1 -1.1104 6.44581 35.9032 0.893714