LAMMPS (29 Oct 2020)
OMP_NUM_THREADS environment is not set. Defaulting to 1 thread. (../comm.cpp:94)
  using 1 OpenMP thread(s) per MPI task
#-------------------------
#
#This script is used to create different concentrations of vacancies in thorium dioxide
#By Ziqiang Wang on 07/03/2023
#
#-------------------------

clear
OMP_NUM_THREADS environment is not set. Defaulting to 1 thread. (../comm.cpp:94)
  using 1 OpenMP thread(s) per MPI task
units                        metal
dimension                        3
boundary                     p p p
atom_style                   full
atom_modify                  map array

read_data                   perfect_relaxed.dat
Reading data file ...
  orthogonal box = (-0.27717828 -3.4472206 -0.27717828) to (27.617178 331.52722 27.617178)
  2 by 13 by 2 MPI processor grid
  reading atoms ...
  18000 atoms
  reading velocities ...
  18000 velocities
Finding 1-2 1-3 1-4 neighbors ...
  special bond factors lj:    0.0      0.0      0.0     
  special bond factors coul:  0.0      0.0      0.0     
     0 = max # of 1-2 neighbors
     0 = max # of 1-3 neighbors
     0 = max # of 1-4 neighbors
     1 = max # of special neighbors
  special bonds CPU = 0.006 seconds
  read_data CPU = 0.069 seconds

# randomly create vacancies in the relaxed perfect crystal
variable                   vac_ratio    equal  0.02

group                       O_delete    id  6906  6908 10507 10508  6966 10565  6912  6920  6909  6910  2167  2168                                             2165  2166  2226  5767  2170  2172  5765  5766 13368 13376 17025 17026                                            13422 13424 17023 17024 13416 13474 15084 15092 15079 15080 15081 15082                                            11484 11492 15141 15142 15414 15416 15348 15356 15405 15406 15355 15359                                            11748 11756 11790 11792 11724 11732 15331 15332 11781 11782 11731 11735                                            8925  8926  8928  8936  8935  8939  5334  5336  5328  5386  1941  1942                                             1950  1952  1951  1955  1953  1954  1896  1904 13485 13486 13494 13496                                             13428 13436 13435 13439 13425 13426  2467  2468  2525  2526  2528  2530                                            6067  6125  2465  2466  8454  8456 12057 12058  8460  8518 12055 12056                                             8448  8506  1932  1940  5539  5540  1938  1944  1929  1930  1926  1928                                             15648 15656 15702 15704 15643 15644 15642 15646 15645 15647  1509  1510                                            1518  1520  1452  1460  1512  1570  1506  1508  6545  6546  6548  6550                                             6488 10087  6487  6491  6485  6486  7627  7628  7629  7630  4032  4040                                             7639  7640  7638  7642  2376  2384  2383  2387  2373  2374  2442  2444                                             2433  2434   633   634   643   644   636   694   702   704   693   695                                             10902 10904 10908 10916 14505 14506 14443 14444 14502 14504 12438 12440                                            12372 12380 12429 12430 12426 12428 12432 12490 10928 10986 14585 14586                                            10988 10990 14587 14588 11046 14645 14718 14720 14724 14732 14719 14723                                            14709 14710 14659 14660  4797  4798  4735  4736  1194  1196  4785  4786                                            4795  4796  5731  5732  2190  2192  5793  5794  2124  2132  5721  5722
240 atoms in group O_delete

group                      Th_del   id  10504 10563 10561 10573  6914  2223  2162  5821  5764  5762 17029 17030                                            17020 17079 17077   745 15135 15086 15145 15146  1012  1009 15410 15411                                            15409 15388 15385 15387 11786 11787  8930 12589  8991  8932  8989  1946                                            5548  2007  1958  5557 13490 17092 17089 13491 13430  2523  2522  6124                                             6121  2462 12052 12002 12061 12111 12109  5593  5595  5536  1934  5524                                             1309  1300 15699  1240 15650  1514  5116  5113  5173  5104  6542 10144                                             10141  6543  6482  7683  7634  7693  7695 11236  6037  2439  2378  6040                                            2438   638   699  4297  4300   698 14500 14569 14510 14499   100 16036                                             16033 12434 16024 16093 14581 14582 14584 14643 14641   316   385 14775                                            14714 14715  4742  4791  4792  4790  4851  5787  5788  5798  5785  5726
120 atoms in group Th_del
set                         group       Th_del    type   3
Setting atom values ...
  120 settings made for type
#group                       delete      union   Th_delete  O_delete
delete_atoms                group       O_delete
WARNING: Ignoring 'compress yes' for molecular system (../delete_atoms.cpp:125)
Deleted 240 atoms, new total = 17760
#set                         group       Xe         type    3
set                         type    1      charge   -1.1104
Setting atom values ...
  11760 settings made for charge
set                         type    2      charge    2.2208
Setting atom values ...
  5880 settings made for charge
set                         type    3      charge    0.0
Setting atom values ...
  120 settings made for charge
kspace_style                pppm     1.0e-05
pair_style                  hybrid/overlay  coul/long   11.0  eam/alloy  table  linear  1000  pppm
pair_coeff                  * * coul/long
pair_coeff                  * * eam/alloy CeThUNpPuAmCmO.eam.alloy O Th NULL
pair_coeff                  3 3 table CRG_gas_potentials.lmptab Xe-Xe 11
WARNING: 13 of 1000 force values in table Xe-Xe are inconsistent with -dE/dr.
  Should only be flagged at inflection points (../pair_table.cpp:461)
pair_coeff                  1 3 table CRG_gas_potentials.lmptab Xe-O 11
WARNING: 2 of 1000 force values in table Xe-O are inconsistent with -dE/dr.
  Should only be flagged at inflection points (../pair_table.cpp:461)
pair_coeff                  2 3 table CRG_gas_potentials.lmptab Xe-Th 11
WARNING: 2 of 1000 force values in table Xe-Th are inconsistent with -dE/dr.
  Should only be flagged at inflection points (../pair_table.cpp:461)
neighbor                    2.0  bin
neigh_modify                every  1  delay  0  check  yes

# fully relaxing the defect configuration at 0K
fix                box_relax  all  box/relax aniso 0.0 vmax 0.001
min_style          cg
minimize           1.0e-30 1.0e-30 10000 10000
PPPM initialization ...
  using 12-bit tables for long-range coulomb (../kspace.cpp:328)
  G vector (1/distance) = 0.29911239
  grid = 40 240 40
  stencil order = 5
  estimated absolute RMS force accuracy = 0.00015328544
  estimated relative force accuracy = 1.0645085e-05
  using single precision MKL FFT
  3d grid and FFT values/proc = 18225 7600
Neighbor list info ...
  update every 1 steps, delay 0 steps, check yes
  max neighbors/atom: 2000, page size: 100000
  master list distance cutoff = 13
  ghost atom cutoff = 13
  binsize = 6.5, bins = 5 52 5
  3 neighbor lists, perpetual/occasional/extra = 3 0 0
  (1) pair coul/long, perpetual
      attributes: half, newton on
      pair build: half/bin/newton
      stencil: half/bin/3d/newton
      bin: standard
  (2) pair eam/alloy, perpetual, skip from (1)
      attributes: half, newton on
      pair build: skip
      stencil: none
      bin: none
  (3) pair table, perpetual, skip from (1)
      attributes: half, newton on
      pair build: skip
      stencil: none
      bin: none
Per MPI rank memory allocation (min/avg/max) = 10.36 | 10.98 | 11.16 Mbytes
Step Temp E_pair E_mol TotEng Press Volume 
       0            0   -230050.89            0   -230050.89    7597.1083    260641.98 
     158            0   -231146.06            0   -231146.06    192.34417    262395.13 
Loop time of 3.04452 on 52 procs for 158 steps with 17760 atoms

99.4% CPU use with 52 MPI tasks x 1 OpenMP threads

Minimization stats:
  Stopping criterion = linesearch alpha is zero
  Energy initial, next-to-last, final = 
     -230050.888955737  -231146.059664094  -231146.059664094
  Force two-norm initial, final = 2158.0599 76.921352
  Force max component initial, final = 1309.6935 71.785593
  Final line search alpha, max atom move = 1.8910961e-12 1.3575346e-10
  Iterations, force evaluations = 158 269

MPI task timing breakdown:
Section |  min time  |  avg time  |  max time  |%varavg| %total
---------------------------------------------------------------
Pair    | 1.7454     | 1.8136     | 1.8828     |   2.4 | 59.57
Bond    | 2.4478e-05 | 3.7481e-05 | 6.2694e-05 |   0.0 |  0.00
Kspace  | 0.5262     | 0.5974     | 0.66567    |   4.3 | 19.62
Neigh   | 0.0082406  | 0.0095139  | 0.01089    |   0.6 |  0.31
Comm    | 0.058375   | 0.060241   | 0.061734   |   0.4 |  1.98
Output  | 0          | 0          | 0          |   0.0 |  0.00
Modify  | 0          | 0          | 0          |   0.0 |  0.00
Other   |            | 0.5638     |            |       | 18.52

Nlocal:        341.538 ave         387 max         300 min
Histogram: 3 2 7 10 8 7 4 6 1 4
Nghost:        5548.37 ave        5698 max        5409 min
Histogram: 2 5 5 8 9 6 5 7 4 1
Neighs:       108671.0 ave      122868 max       94538 min
Histogram: 2 3 6 8 10 7 5 3 4 4

Total # of neighbors = 5650878
Ave neighs/atom = 318.18007
Ave special neighs/atom = 0.0000000
Neighbor list builds = 3
Dangerous builds = 0
unfix              box_relax

# apply the temperature into the system and relaxing at the temperature of interest
reset_atom_ids
Resetting atom IDs ...
PPPM initialization ...
  using 12-bit tables for long-range coulomb (../kspace.cpp:328)
  G vector (1/distance) = 0.29899762
  grid = 40 240 40
  stencil order = 5
  estimated absolute RMS force accuracy = 0.00015416261
  estimated relative force accuracy = 1.0706001e-05
  using single precision MKL FFT
  3d grid and FFT values/proc = 18225 7600
Neighbor list info ...
  update every 1 steps, delay 0 steps, check yes
  max neighbors/atom: 2000, page size: 100000
  master list distance cutoff = 13
  ghost atom cutoff = 13
  binsize = 6.5, bins = 5 52 5
  3 neighbor lists, perpetual/occasional/extra = 3 0 0
  (1) pair coul/long, perpetual
      attributes: half, newton on
      pair build: half/bin/newton
      stencil: half/bin/3d/newton
      bin: standard
  (2) pair eam/alloy, perpetual, skip from (1)
      attributes: half, newton on
      pair build: skip
      stencil: none
      bin: none
  (3) pair table, perpetual, skip from (1)
      attributes: half, newton on
      pair build: skip
      stencil: none
      bin: none
Finding 1-2 1-3 1-4 neighbors ...
  special bond factors lj:    0.0      0.0      0.0     
  special bond factors coul:  0.0      0.0      0.0     
     0 = max # of 1-2 neighbors
     0 = max # of 1-3 neighbors
     0 = max # of 1-4 neighbors
     1 = max # of special neighbors
  special bonds CPU = 0.001 seconds
variable                    temp      equal    600
velocity                    all  create   ${temp}  4542  dist  gaussian  rot  yes  mom  yes
velocity                    all  create   600  4542  dist  gaussian  rot  yes  mom  yes
fix                         npt  all  npt  temp  ${temp}  ${temp}  $(100*dt) aniso  0.0  0.0  $(1000*dt)
fix                         npt  all  npt  temp  600  ${temp}  $(100*dt) aniso  0.0  0.0  $(1000*dt)
fix                         npt  all  npt  temp  600  600  $(100*dt) aniso  0.0  0.0  $(1000*dt)
fix                         npt  all  npt  temp  600  600  0.10000000000000000555 aniso  0.0  0.0  $(1000*dt)
fix                         npt  all  npt  temp  600  600  0.10000000000000000555 aniso  0.0  0.0  1

thermo                      20000
thermo_style                custom   step dt time atoms temp pe ke press vol

shell                       mkdir vac_${vac_ratio}_${temp}K
shell                       mkdir vac_0.02_${temp}K
shell                       mkdir vac_0.02_600K
dump                        1  all  custom  20000  ./vac_${vac_ratio}_${temp}K/dump_relax.atom.* id type q x y z
dump                        1  all  custom  20000  ./vac_0.02_${temp}K/dump_relax.atom.* id type q x y z
dump                        1  all  custom  20000  ./vac_0.02_600K/dump_relax.atom.* id type q x y z
dump_modify                 1  element  O  Th  Xe

run                         100000
PPPM initialization ...
  using 12-bit tables for long-range coulomb (../kspace.cpp:328)
  G vector (1/distance) = 0.29899762
  grid = 40 240 40
  stencil order = 5
  estimated absolute RMS force accuracy = 0.00015416261
  estimated relative force accuracy = 1.0706001e-05
  using single precision MKL FFT
  3d grid and FFT values/proc = 18225 7600
Neighbor list info ...
  update every 1 steps, delay 0 steps, check yes
  max neighbors/atom: 2000, page size: 100000
  master list distance cutoff = 13
  ghost atom cutoff = 13
  binsize = 6.5, bins = 5 52 5
  3 neighbor lists, perpetual/occasional/extra = 3 0 0
  (1) pair coul/long, perpetual
      attributes: half, newton on
      pair build: half/bin/newton
      stencil: half/bin/3d/newton
      bin: standard
  (2) pair eam/alloy, perpetual, skip from (1)
      attributes: half, newton on
      pair build: skip
      stencil: none
      bin: none
  (3) pair table, perpetual, skip from (1)
      attributes: half, newton on
      pair build: skip
      stencil: none
      bin: none
Per MPI rank memory allocation (min/avg/max) = 9.233 | 9.960 | 10.04 Mbytes
Step Dt Time Atoms Temp PotEng KinEng Press Volume 
     158        0.001            0    17760          600   -231146.06    1377.3185    5798.6792    262395.13 
   20000        0.001       19.842    17760    596.25954    -230064.8    1368.7322    511.35423     266562.6 
   40000        0.001       39.842    17760    599.88421   -230082.84    1377.0527   -68.919025    266636.66 
   60000        0.001       59.842    17760    593.54962   -230085.38    1362.5115    7.7004977    266630.44 
   80000        0.001       79.842    17760    599.14675   -230082.86    1375.3599    561.66304    266531.07 
  100000        0.001       99.842    17760    595.67574   -230087.82    1367.3921   -1431.4867    266806.39 
  100158        0.001          100    17760    601.18288   -230093.61    1380.0339   -462.95325    266655.06 
Loop time of 879.884 on 52 procs for 100000 steps with 17760 atoms

Performance: 9.819 ns/day, 2.444 hours/ns, 113.651 timesteps/s
99.8% CPU use with 52 MPI tasks x 1 OpenMP threads

MPI task timing breakdown:
Section |  min time  |  avg time  |  max time  |%varavg| %total
---------------------------------------------------------------
Pair    | 528.01     | 548.41     | 563.9      |  35.3 | 62.33
Bond    | 0.010245   | 0.016133   | 0.023791   |   2.2 |  0.00
Kspace  | 181.92     | 197.86     | 218.81     |  60.3 | 22.49
Neigh   | 2.636      | 2.9534     | 3.1389     |   7.0 |  0.34
Comm    | 22.629     | 23.64      | 24.504     |  10.0 |  2.69
Output  | 0.027061   | 0.027085   | 0.02813    |   0.1 |  0.00
Modify  | 93.487     | 97.26      | 103.04     |  24.5 | 11.05
Other   |            | 9.72       |            |       |  1.10

Nlocal:        341.538 ave         372 max         305 min
Histogram: 2 1 5 2 7 15 9 7 3 1
Nghost:        5528.62 ave        5658 max        5399 min
Histogram: 2 4 9 6 8 5 3 5 5 5
Neighs:       107220.0 ave      117845 max       94099 min
Histogram: 2 3 4 1 6 10 12 9 3 2

Total # of neighbors = 5575416
Ave neighs/atom = 313.93108
Ave special neighs/atom = 0.0000000
Neighbor list builds = 917
Dangerous builds = 0
shell                       mkdir thermal_condu
write_data                  thermal_condu/vac_${vac_ratio}_relaxed.dat
write_data                  thermal_condu/vac_0.02_relaxed.dat
System init for write_data ...
PPPM initialization ...
  using 12-bit tables for long-range coulomb (../kspace.cpp:328)
  G vector (1/distance) = 0.2986937
  grid = 40 240 40
  stencil order = 5
  estimated absolute RMS force accuracy = 0.00015664089
  estimated relative force accuracy = 1.0878108e-05
  using single precision MKL FFT
  3d grid and FFT values/proc = 18225 7600
Neighbor list info ...
  update every 1 steps, delay 0 steps, check yes
  max neighbors/atom: 2000, page size: 100000
  master list distance cutoff = 13
  ghost atom cutoff = 13
  binsize = 6.5, bins = 5 52 5
  3 neighbor lists, perpetual/occasional/extra = 3 0 0
  (1) pair coul/long, perpetual
      attributes: half, newton on
      pair build: half/bin/newton
      stencil: half/bin/3d/newton
      bin: standard
  (2) pair eam/alloy, perpetual, skip from (1)
      attributes: half, newton on
      pair build: skip
      stencil: none
      bin: none
  (3) pair table, perpetual, skip from (1)
      attributes: half, newton on
      pair build: skip
      stencil: none
      bin: none
Total wall time: 0:14:43
