ITEM: TIMESTEP
100000
ITEM: NUMBER OF ATOMS
17760
ITEM: BOX BOUNDS pp pp pp
-4.5241810537582017e-01 2.7792418105375322e+01
-5.5206948050229210e+00 3.3360069480501892e+02
-4.5434972482214647e-01 2.7794349724822133e+01
ITEM: ATOMS id type q x y z
1 2 2.2208 5.14791 -0.0463637 5.10041
2 1 -1.1104 1.28788 -4.0178 0.805866
6 1 -1.1104 0.949022 -4.20387 3.75113
10 1 -1.1104 1.25633 -1.09493 0.719719
12 2 2.2208 5.4223 -2.68799 2.44774
14 1 -1.1104 1.07348 -1.47266 3.71983
16 1 -1.1104 3.83051 -4.03304 1.00367
18 2 2.2208 2.44165 0.0445335 2.27736
19 1 -1.1104 3.92739 -4.28526 3.83114
21 2 2.2208 2.29233 -2.82636 5.11226
23 1 -1.1104 4.11372 -1.17544 0.720972
24 1 -1.1104 3.74764 -1.37968 3.60097
174 1 -1.1104 3.9836 -1.59417 6.49381
170 1 -1.1104 1.16824 -1.33688 6.4697
315 2 2.2208 5.38202 2.91364 13.6314
8092 2 2.2208 8.3384 -5.37788 13.4975
319 2 2.2208 2.72509 5.87198 13.624
8084 2 2.2208 10.963 -5.32095 10.6161
555 2 2.2208 5.18647 16.9601 -0.46582
322 2 2.2208 11.0339 8.58654 13.4842
8 1 -1.1104 6.61191 -4.11083 3.74699
15 1 -1.1104 6.8382 -1.31664 3.94351
29 2 2.2208 -0.271088 8.53197 7.94072
4 1 -1.1104 6.94541 -3.80989 1.16726
11 1 -1.1104 6.70359 -1.19186 0.877983
31 2 2.2208 10.9293 0.174875 5.06975
32 1 -1.1104 12.3122 -3.98045 0.859453
34 1 -1.1104 12.6757 -3.98528 3.61163
36 1 -1.1104 12.3706 -1.16684 0.79279
37 2 2.2208 11.0833 -2.57753 2.27354
39 1 -1.1104 12.3509 -1.09292 3.75893
40 1 -1.1104 9.74402 -4.04134 0.839333
42 2 2.2208 8.15379 0.0984369 2.23158
43 1 -1.1104 9.60865 -4.09414 3.49566
45 2 2.2208 8.15157 -2.67928 5.17039
47 1 -1.1104 9.707 -1.23412 0.835155
48 1 -1.1104 9.60273 -1.34464 3.69398
434 2 2.2208 2.66528 11.4193 13.6024
171 1 -1.1104 6.78671 -1.22645 6.44371
168 1 -1.1104 6.95548 -4.19294 6.72145
8078 2 2.2208 8.33466 -5.43081 2.3108
3 1 -1.1104 0.973004 1.4615 0.949301
7 1 -1.1104 1.16525 1.39839 3.79376
13 2 2.2208 5.32039 2.81301 2.25754
17 1 -1.1104 3.75321 1.51151 0.884992
20 1 -1.1104 3.90641 1.48247 3.79129
22 2 2.2208 2.58462 2.87574 5.18783
54 2 2.2208 5.38611 5.6432 5.18978
60 1 -1.1104 0.940951 4.34245 0.886779
67 1 -1.1104 1.20783 4.39145 3.6523
72 2 2.2208 2.49849 5.63757 2.23498
76 1 -1.1104 3.89237 4.2094 0.881507
79 1 -1.1104 4.16366 4.26648 3.96998
58 1 -1.1104 1.17756 7.01803 3.66527
71 1 -1.1104 3.84092 6.92759 0.834489
74 1 -1.1104 3.80701 7.22768 3.59195
167 1 -1.1104 1.2926 1.46652 6.5696
173 1 -1.1104 4.07063 1.3821 6.42772
8707 2 2.2208 -0.178515 11.3424 10.6889
59 1 -1.1104 6.56163 7.0903 3.694
8782 2 2.2208 -0.176238 -2.79882 2.10737
238 1 -1.1104 4.24333 7.1098 6.42997
8830 2 2.2208 13.568 17.1872 13.5836
8562 2 2.2208 13.656 19.6853 5.16995
5 1 -1.1104 6.63237 1.58656 0.846684
9 1 -1.1104 6.66297 1.28669 3.80222
63 1 -1.1104 6.6296 4.21296 0.834114
69 1 -1.1104 6.74049 4.0546 3.65112
57 1 -1.1104 6.74251 7.07029 0.710654
33 1 -1.1104 12.2464 1.90753 0.878032
35 1 -1.1104 12.2044 1.65394 3.70078
38 2 2.2208 10.8216 3.10672 2.13175
41 1 -1.1104 9.3455 1.53634 0.852504
44 1 -1.1104 9.51922 1.51901 3.51318
46 2 2.2208 8.20846 2.80812 5.02065
84 2 2.2208 11.3104 5.86144 5.03816
87 1 -1.1104 12.4089 7.23885 4.00124
88 1 -1.1104 12.5619 4.65426 0.60236
92 1 -1.1104 12.2578 4.60106 3.64783
95 2 2.2208 8.24247 5.79278 2.2824
99 1 -1.1104 9.46097 4.52821 0.82586
102 1 -1.1104 9.70902 4.25945 3.4619
86 1 -1.1104 12.4062 7.35076 1.04604
97 1 -1.1104 9.32827 7.20185 3.47904
94 1 -1.1104 9.61675 7.14826 0.597885
265 1 -1.1104 12.3892 7.27585 6.70263
266 1 -1.1104 12.6628 4.30769 6.59754
209 1 -1.1104 9.73409 1.42531 6.57679
523 2 2.2208 11.1699 13.9707 13.5549
235 1 -1.1104 6.96628 7.18886 6.48533
267 1 -1.1104 9.71471 7.25976 6.30776
104 1 -1.1104 12.552 15.5244 12.3656
204 1 -1.1104 9.48409 18.5376 9.26051
56 1 -1.1104 1.1555 6.96191 0.845752
8512 2 2.2208 -0.222586 19.9974 7.93254
55 2 2.2208 5.34972 11.4196 5.03659
61 1 -1.1104 1.05014 9.87873 0.73607
66 2 2.2208 5.38365 8.47616 2.26286
68 1 -1.1104 1.01929 9.92982 3.54853
73 2 2.2208 2.35473 11.211 2.17655
75 2 2.2208 2.43617 8.63108 5.00276
77 1 -1.1104 3.95748 9.71024 0.65747
80 1 -1.1104 3.80717 9.96715 3.45674
107 1 -1.1104 0.946666 12.8589 0.838034
113 1 -1.1104 1.12587 12.8249 3.58977
123 1 -1.1104 3.73298 12.4474 0.789379
128 1 -1.1104 3.97186 12.7135 3.51543
64 1 -1.1104 6.52222 9.86351 0.666647
317 2 2.2208 11.0373 -2.59865 13.6489
108 1 -1.1104 1.27265 12.8819 6.31352
124 1 -1.1104 4.06941 12.809 6.31613
65 1 -1.1104 6.75431 10.0539 6.24089
78 1 -1.1104 4.05664 9.9174 6.37368
115 1 -1.1104 6.67353 12.8394 3.77056
110 1 -1.1104 6.75861 12.5938 0.693326
70 1 -1.1104 6.63901 9.93691 3.58542
85 2 2.2208 10.9673 11.4597 5.09946
89 1 -1.1104 12.4541 10.2259 0.833371
91 2 2.2208 10.8178 8.54508 2.09209
93 1 -1.1104 12.3105 9.79332 3.65371
96 2 2.2208 8.08527 11.3374 2.15972
98 2 2.2208 8.10254 8.52455 4.95202
100 1 -1.1104 9.49529 9.86434 0.887694
103 1 -1.1104 9.47792 9.9322 3.54896
142 1 -1.1104 12.0316 12.9416 0.711323
146 1 -1.1104 12.4058 12.5487 3.64606
153 1 -1.1104 9.39172 12.6341 1.00959
158 1 -1.1104 9.45522 12.7928 3.5889
154 1 -1.1104 9.65208 12.9142 6.58639
101 1 -1.1104 9.52413 10.1205 6.44294
119 2 2.2208 5.40027 14.1305 2.19387
130 2 2.2208 2.62426 14.0965 5.05221
106 2 2.2208 5.38431 16.99 5.01896
109 1 -1.1104 0.905185 18.4525 1.14364
114 1 -1.1104 1.115 18.5766 3.79725
116 1 -1.1104 1.03545 15.7585 0.946053
120 2 2.2208 5.34372 19.6534 2.22009
121 1 -1.1104 1.0591 15.7248 3.88593
125 1 -1.1104 3.69647 18.3407 0.778798
127 2 2.2208 2.48379 16.8413 2.32542
129 1 -1.1104 4.00855 18.4798 3.50297
131 2 2.2208 2.59141 19.8075 5.05071
132 1 -1.1104 3.85798 15.475 0.861301
134 1 -1.1104 4.09394 15.6038 3.51286
122 1 -1.1104 6.78927 15.62 3.7094
81 2 2.2208 -0.248834 5.74377 5.06599
126 1 -1.1104 3.94057 18.4282 6.36543
321 2 2.2208 8.12348 5.7891 13.4982
140 1 -1.1104 6.73188 15.3656 0.774152
163 1 -1.1104 9.27311 15.4587 6.71678
138 1 -1.1104 6.75999 18.2287 0.880574
139 1 -1.1104 6.64806 18.3383 3.64747
160 2 2.2208 8.06998 14.1277 5.22868
150 2 2.2208 10.9118 14.0751 2.28578
141 2 2.2208 10.6912 16.9466 5.1907
144 1 -1.1104 12.2268 18.3893 1.03199
147 1 -1.1104 12.2072 18.3607 3.73732
148 1 -1.1104 12.2137 15.5121 0.961291
151 2 2.2208 10.8154 19.9633 2.35831
152 1 -1.1104 12.2557 15.5761 3.8631
155 1 -1.1104 9.36349 18.3288 1.01286
157 2 2.2208 8.16173 16.8725 2.22277
159 1 -1.1104 9.38192 18.3908 3.62413
161 2 2.2208 7.9593 19.7912 5.18324
162 1 -1.1104 9.37388 15.4632 0.803065
164 1 -1.1104 9.65979 15.3631 3.90727
149 1 -1.1104 12.1694 15.4766 6.63636
8083 2 2.2208 8.34119 -5.5121 7.90632
112 1 -1.1104 6.58179 18.5516 6.57168
118 1 -1.1104 6.64248 15.747 6.51165
318 2 2.2208 10.9507 2.83937 13.4294
229 1 -1.1104 12.4122 15.7228 9.71873
166 1 -1.1104 1.0177 -4.23866 6.47005
203 1 -1.1104 9.68585 15.7244 9.45201
136 2 2.2208 -0.439111 19.9191 2.48273
82 2 2.2208 -0.233443 8.40457 2.27838
172 1 -1.1104 3.92527 -4.17335 6.57936
175 2 2.2208 5.11042 0.1897 10.6478
176 1 -1.1104 1.04884 -4.1388 12.1806
180 1 -1.1104 0.946181 -4.14761 9.37681
184 1 -1.1104 0.984561 -1.49268 12.1858
186 2 2.2208 5.34463 -2.69055 8.07675
188 1 -1.1104 1.18578 -1.15795 9.18745
190 1 -1.1104 3.78672 -4.11111 12.039
192 2 2.2208 2.53674 0.108743 7.95278
193 1 -1.1104 3.8017 -4.058 9.21773
195 2 2.2208 2.43565 -2.72606 10.6555
197 1 -1.1104 3.86945 -1.46204 11.9463
198 1 -1.1104 3.98847 -1.39666 9.31455
202 1 -1.1104 9.70829 15.787 12.3709
201 2 2.2208 -0.328833 -0.0948701 10.6275
8082 2 2.2208 -0.453958 -5.46168 10.8047
8077 2 2.2208 5.50283 -5.49576 5.14984
199 2 2.2208 -0.218441 2.99744 7.98208
208 1 -1.1104 9.50154 -3.9641 6.43825
210 1 -1.1104 9.57711 -1.30039 6.398
207 1 -1.1104 12.2777 -1.14805 6.5147
182 1 -1.1104 6.63748 -4.01019 9.33522
205 1 -1.1104 12.3458 -4.11337 6.6528
178 1 -1.1104 6.7366 -4.07108 12.2053
185 1 -1.1104 6.71217 -1.07384 12.0736
189 1 -1.1104 6.77555 -1.37944 9.17739
211 2 2.2208 10.8864 -0.057639 10.7354
212 1 -1.1104 12.4168 -3.97054 12.0207
214 1 -1.1104 12.3961 -4.05399 9.24962
216 1 -1.1104 12.8046 -1.15048 12.1113
217 2 2.2208 11.0074 -2.63129 7.85437
219 1 -1.1104 12.3618 -1.46736 9.42776
220 1 -1.1104 9.54049 -3.94753 12.2002
222 2 2.2208 8.15697 0.108696 7.89263
223 1 -1.1104 9.45507 -4.03671 9.40552
225 2 2.2208 8.04752 -2.52287 10.8408
227 1 -1.1104 9.65416 -1.18759 12.3864
228 1 -1.1104 9.41042 -1.23283 9.35752
8093 2 2.2208 2.52319 -5.48364 13.5968
28 2 2.2208 -0.136875 5.8657 10.8965
105 2 2.2208 10.9476 14.2878 8.07295
8786 2 2.2208 13.6146 0.314749 2.24952
320 2 2.2208 5.58342 8.60387 13.4753
234 1 -1.1104 1.28412 7.26948 6.60738
239 1 -1.1104 4.0831 4.14727 6.58405
236 1 -1.1104 1.19398 4.36012 6.47153
8486 2 2.2208 -0.132896 14.2975 7.8076
177 1 -1.1104 1.0262 1.54037 12.2425
181 1 -1.1104 1.10267 1.55286 9.30383
187 2 2.2208 5.49514 2.87995 7.81428
191 1 -1.1104 3.84091 1.36117 12.2162
194 1 -1.1104 3.77136 1.49357 9.33717
196 2 2.2208 2.52614 2.99147 10.7754
240 2 2.2208 5.34651 5.82608 10.6963
246 1 -1.1104 1.31423 4.42155 12.1152
251 1 -1.1104 0.973384 4.28752 9.4054
255 1 -1.1104 4.21773 7.26778 12.235
256 2 2.2208 2.47678 5.8654 7.91617
260 1 -1.1104 4.09947 4.29295 11.9744
262 1 -1.1104 3.66878 4.26609 9.28071
258 1 -1.1104 3.83152 7.07522 9.33383
242 1 -1.1104 1.38812 7.27802 12.2514
183 1 -1.1104 6.6513 1.46147 9.32745
244 1 -1.1104 1.05221 7.16309 9.37186
253 1 -1.1104 6.63265 4.43865 9.22667
237 1 -1.1104 7.12513 4.23487 6.59842
269 1 -1.1104 9.84875 4.12888 6.45781
206 1 -1.1104 12.37 1.51804 6.55011
145 1 -1.1104 12.191 18.4608 6.65874
245 1 -1.1104 6.74339 7.14843 9.1933
243 1 -1.1104 7.07001 7.01305 11.9964
169 1 -1.1104 6.86376 1.68114 6.67335
179 1 -1.1104 6.4971 1.44757 12.0412
248 1 -1.1104 6.8475 4.08051 12.298
213 1 -1.1104 12.3921 1.55023 11.9525
215 1 -1.1104 12.4895 1.12615 9.41297
218 2 2.2208 11.0469 2.84437 8.00471
221 1 -1.1104 9.39715 1.51051 12.2473
224 1 -1.1104 9.59926 1.47613 9.52133
226 2 2.2208 8.03089 2.95063 10.6271
268 1 -1.1104 9.51495 4.28352 9.44603
271 1 -1.1104 9.49195 4.5021 12.298
275 2 2.2208 8.33754 5.68018 7.80469
276 2 2.2208 11.0573 5.7402 10.7325
280 1 -1.1104 12.4124 4.40158 12.3998
283 1 -1.1104 12.2759 4.15792 9.48334
273 1 -1.1104 9.55198 7.23833 9.0084
285 1 -1.1104 9.68547 7.36414 11.7523
278 1 -1.1104 12.4461 7.34489 12.0109
27 2 2.2208 -0.218409 3.06723 2.29169
316 2 2.2208 8.05951 0.222331 13.3923
233 1 -1.1104 9.49933 18.5916 11.9813
137 2 2.2208 -0.289984 17.1554 5.01653
111 1 -1.1104 6.78523 12.7581 6.6298
62 1 -1.1104 1.11984 9.94688 6.44082
241 2 2.2208 5.38186 11.3765 10.7447
247 1 -1.1104 1.23641 9.89098 12.3283
250 2 2.2208 5.47388 8.54928 7.84385
252 1 -1.1104 1.36802 9.96138 9.24184
257 2 2.2208 2.70152 11.4344 7.84607
259 2 2.2208 2.6957 8.51005 10.674
261 1 -1.1104 4.01258 10.0178 12.1722
263 1 -1.1104 4.03203 9.81257 9.52376
287 1 -1.1104 4.05911 12.8068 12.1135
294 1 -1.1104 1.43357 12.8219 9.26113
299 1 -1.1104 1.19087 12.7692 11.9856
305 1 -1.1104 4.14483 12.8875 9.12095
53 1 -1.1104 12.4422 18.6213 9.22513
90 1 -1.1104 12.3645 10.0694 6.54574
279 1 -1.1104 12.5756 6.96772 9.25506
297 1 -1.1104 6.74688 12.5994 12.1439
290 1 -1.1104 6.78651 12.6585 9.46393
249 1 -1.1104 6.87289 9.80065 12.0658
254 1 -1.1104 6.8045 10.0354 9.06193
143 1 -1.1104 12.4449 12.7179 6.62503
231 1 -1.1104 9.56848 12.8185 9.45572
230 1 -1.1104 9.63614 12.8697 12.0526
264 1 -1.1104 9.72543 10.0634 9.28452
270 1 -1.1104 9.69447 9.96487 12.2077
272 2 2.2208 8.24175 8.57356 10.5088
274 2 2.2208 8.17084 11.4701 8.02278
277 2 2.2208 11.0503 11.4899 10.5377
281 1 -1.1104 12.488 9.96604 12.0388
282 2 2.2208 10.9573 8.70536 7.78348
284 1 -1.1104 12.5192 9.96294 9.10822
30 1 -1.1104 12.2358 12.9246 11.8306
50 1 -1.1104 12.6009 12.992 9.2112
26 2 2.2208 -0.297289 0.137509 5.20355
51 2 2.2208 8.22748 14.0978 10.7935
306 1 -1.1104 7.11623 15.5182 12.2542
289 1 -1.1104 6.80702 15.6448 9.49142
135 2 2.2208 -0.354314 14.2685 2.38164
156 1 -1.1104 9.43635 18.2948 6.46887
302 1 -1.1104 1.12051 18.5339 6.54754
117 1 -1.1104 1.25823 15.7497 6.38608
295 2 2.2208 5.47319 14.3956 7.95505
310 2 2.2208 2.54569 14.2142 10.7645
133 1 -1.1104 3.81076 15.5269 6.5155
308 1 -1.1104 4.22347 15.5959 11.9513
307 1 -1.1104 1.12853 15.4287 12.0691
309 2 2.2208 2.67316 19.9341 10.9736
286 1 -1.1104 4.29939 18.3494 12.2324
291 1 -1.1104 1.14343 18.4139 9.49827
292 1 -1.1104 1.15656 15.7342 9.25593
293 2 2.2208 5.46872 19.9156 7.88005
298 1 -1.1104 1.23592 18.2653 12.43
300 2 2.2208 5.26074 17.0022 10.7774
301 1 -1.1104 3.87941 18.6295 9.40152
303 2 2.2208 2.51623 17.0722 7.93161
304 1 -1.1104 4.02684 15.7664 9.31401
296 1 -1.1104 6.93699 18.4365 12.3149
288 1 -1.1104 6.58614 18.2592 9.39569
165 2 2.2208 10.9128 20.0015 8.08139
395 2 2.2208 8.20085 19.7849 -0.440892
232 2 2.2208 8.21115 17.1556 8.03629
49 1 -1.1104 12.3192 18.6513 12.1625
52 2 2.2208 8.10018 19.68 10.7216
25 2 2.2208 11.1117 17.199 10.8392
200 2 2.2208 -0.353357 -2.85661 8.13104
8646 2 2.2208 13.6123 16.9707 2.35323
8487 2 2.2208 -0.26956 16.9498 10.7879
83 2 2.2208 -0.264147 11.2483 5.0174
313 2 2.2208 5.17831 -2.57625 13.4492
394 2 2.2208 10.8619 17.04 -0.441251
461 2 2.2208 8.13022 11.3672 13.5284
8080 2 2.2208 2.55845 -5.40432 7.75959
9014 2 2.2208 -0.333818 13.955 13.545
524 2 2.2208 8.23031 17.0678 13.6046
618 2 2.2208 -0.414143 11.4017 -0.428106
314 2 2.2208 2.32397 0.0420979 13.4655
8831 2 2.2208 -0.263269 17.1696 -0.327698
556 2 2.2208 2.40873 19.8405 -0.34161
323 2 2.2208 5.465 -0.00576944 16.5505
324 1 -1.1104 0.952389 -4.04492 17.7715
328 1 -1.1104 0.796125 -3.9298 15.1214
336 1 -1.1104 1.33523 -1.18738 18.0229
338 2 2.2208 5.10019 -2.64427 19.1901
340 1 -1.1104 1.08903 -1.38375 14.909
344 1 -1.1104 3.58888 -3.93456 17.6227
346 2 2.2208 2.5632 0.207114 19.3907
347 1 -1.1104 4.07528 -3.88366 15.0091
351 2 2.2208 2.41124 -2.55375 16.2857
353 1 -1.1104 3.95002 -1.1983 17.8698
354 1 -1.1104 3.99896 -1.25079 14.9361
348 1 -1.1104 3.93033 -4.01793 20.788
341 1 -1.1104 0.901758 -1.23819 20.8104
355 1 -1.1104 3.87046 -1.10636 20.6587
615 2 2.2208 5.20455 5.84654 27.5762
8230 2 2.2208 5.1649 -5.4109 22.1104
9011 2 2.2208 -0.303431 19.9125 19.0826
8466 2 2.2208 10.9287 -5.2998 16.4991
17448 2 2.2208 -0.446329 -5.31935 27.6037
326 1 -1.1104 6.57519 -3.91387 17.7363
8829 2 2.2208 -0.326994 2.94527 24.7496
342 1 -1.1104 6.66807 -1.30975 14.9012
332 1 -1.1104 7.11317 -4.15045 14.9954
337 1 -1.1104 6.65683 -1.35797 17.8791
366 2 2.2208 10.9458 -0.0390252 16.5065
367 1 -1.1104 12.3541 -4.13079 17.904
369 1 -1.1104 12.3673 -4.13332 15.0285
373 1 -1.1104 12.5547 -1.54218 17.8663
374 2 2.2208 10.9802 -2.81855 19.367
376 1 -1.1104 12.2459 -1.20146 14.9629
378 1 -1.1104 9.42005 -3.94912 17.8591
380 2 2.2208 8.23087 0.197124 19.1683
381 1 -1.1104 9.86282 -4.0853 14.7973
385 2 2.2208 7.98363 -2.62686 16.5058
387 1 -1.1104 9.51156 -1.2136 17.9501
388 1 -1.1104 9.49284 -1.08307 15.0749
582 2 2.2208 8.17453 3.02012 27.7519
620 1 -1.1104 6.83384 18.3385 26.5948
9013 2 2.2208 -0.266983 17.2046 16.3156
8465 2 2.2208 2.68325 -5.39278 19.2234
325 1 -1.1104 1.24034 1.63661 17.9002
330 1 -1.1104 1.25869 1.33953 14.9753
339 2 2.2208 5.4954 2.95193 19.1531
345 1 -1.1104 4.23551 1.56565 17.7302
349 1 -1.1104 4.11458 1.54023 15.0302
352 2 2.2208 2.6152 2.82536 16.3535
399 2 2.2208 5.33475 5.67791 16.4653
401 1 -1.1104 1.01475 7.48441 17.8968
407 1 -1.1104 1.0758 4.56557 17.8848
412 1 -1.1104 1.19914 4.29887 15.1823
421 2 2.2208 2.37195 5.93863 19.192
426 1 -1.1104 4.17632 4.1895 17.7383
428 1 -1.1104 3.76692 4.41565 15.112
403 1 -1.1104 1.30299 7.10983 15.1811
420 1 -1.1104 3.91149 6.98236 17.6679
423 1 -1.1104 4.20941 7.2212 14.8731
402 1 -1.1104 6.88771 7.25148 17.6345
413 1 -1.1104 1.01798 4.4355 20.7116
350 1 -1.1104 3.80598 1.64262 20.7372
8907 2 2.2208 -0.25536 11.6413 16.3903
404 1 -1.1104 0.863874 7.11131 20.7143
357 2 2.2208 -0.317402 5.85035 16.3667
409 1 -1.1104 6.95723 4.41559 17.7003
405 1 -1.1104 6.88211 7.203 14.751
334 1 -1.1104 6.89313 1.62565 14.8568
416 1 -1.1104 6.58027 4.32816 14.8998
327 1 -1.1104 7.09656 1.48519 17.6353
368 1 -1.1104 12.3808 1.45381 17.5456
371 1 -1.1104 12.3077 1.45032 14.7661
375 2 2.2208 11.0233 3.00366 19.0113
379 1 -1.1104 9.8015 1.40346 17.9239
383 1 -1.1104 9.50628 1.7088 14.8692
386 2 2.2208 8.18453 2.90738 16.1631
435 2 2.2208 11.242 5.80216 16.1878
438 1 -1.1104 12.5371 7.31923 14.7696
440 1 -1.1104 12.5231 4.38556 17.6572
443 1 -1.1104 12.6125 4.31734 14.9222
448 2 2.2208 8.16462 5.76645 19.0054
453 1 -1.1104 9.69943 4.38283 17.6918
455 1 -1.1104 9.39895 4.39752 15.0126
450 1 -1.1104 9.56031 7.14766 14.8346
447 1 -1.1104 9.71669 7.18374 17.6453
437 1 -1.1104 12.6032 7.31487 17.7327
384 1 -1.1104 9.38137 1.56822 20.7012
444 1 -1.1104 12.4638 4.1707 20.4457
372 1 -1.1104 12.4337 1.39318 20.4435
8118 2 2.2208 8.11346 -5.42927 24.8556
400 2 2.2208 5.47887 11.4099 16.3931
408 1 -1.1104 1.12399 10.1154 17.4976
411 2 2.2208 5.33966 8.51677 19.158
414 1 -1.1104 0.998 10.378 14.9487
422 2 2.2208 2.44757 11.3896 19.2404
425 2 2.2208 2.64418 8.70101 16.3121
427 1 -1.1104 4.15046 9.86188 18.0298
430 1 -1.1104 3.9305 10.0108 15.0614
463 1 -1.1104 1.10735 12.9144 17.9899
467 1 -1.1104 1.25182 12.9783 14.9813
483 1 -1.1104 3.68765 12.5734 17.7932
486 1 -1.1104 3.99194 12.732 14.8725
9048 2 2.2208 13.6558 0.111059 24.8332
415 1 -1.1104 1.02795 9.93541 20.4034
419 1 -1.1104 6.72065 9.99034 20.5785
468 1 -1.1104 1.1892 12.6337 20.7266
9018 2 2.2208 -0.170551 11.5672 22.1431
8227 2 2.2208 2.36696 -5.41551 24.9437
410 1 -1.1104 7.10762 10.1139 17.7803
418 1 -1.1104 6.87525 9.96758 14.9498
471 1 -1.1104 6.57699 12.9264 15.0289
465 1 -1.1104 6.58955 12.8641 17.6198
436 2 2.2208 11.1178 11.4005 16.3137
441 1 -1.1104 12.3762 9.97693 17.8391
442 2 2.2208 11.0197 8.62192 19.126
445 1 -1.1104 12.3841 10.0103 14.7501
449 2 2.2208 8.2454 11.3608 19.2189
452 2 2.2208 8.30372 8.6543 16.1753
454 1 -1.1104 9.7342 9.85243 17.7084
457 1 -1.1104 9.67354 10.0101 14.993
499 1 -1.1104 12.4913 12.8084 18.018
501 1 -1.1104 12.5105 12.5744 15.0107
510 1 -1.1104 9.80624 12.9832 17.6207
513 1 -1.1104 9.62698 12.7101 14.8579
472 1 -1.1104 7.0344 12.818 20.4292
458 1 -1.1104 9.53482 10.1358 20.5391
560 2 2.2208 -0.482674 0.0305699 22.0683
446 1 -1.1104 12.3652 9.84074 20.6419
514 1 -1.1104 9.68494 12.7085 20.401
502 1 -1.1104 12.4758 12.6292 20.9034
619 2 2.2208 8.27378 17.0664 24.8486
550 2 2.2208 5.44535 0.226251 27.6065
477 2 2.2208 5.32383 14.1445 19.242
490 2 2.2208 2.57998 14.3871 16.4734
462 2 2.2208 5.24218 17.0875 16.5679
464 1 -1.1104 1.07764 18.4816 17.6943
469 1 -1.1104 1.17586 18.389 14.9026
475 1 -1.1104 1.22527 15.8415 17.7415
478 2 2.2208 5.62424 19.9287 19.3311
479 1 -1.1104 0.947773 15.6488 14.9774
484 1 -1.1104 3.80922 18.4728 17.7623
485 2 2.2208 2.44976 17.0331 19.4104
488 1 -1.1104 3.93512 18.4947 14.949
491 2 2.2208 2.50652 19.843 16.4057
492 1 -1.1104 4.01891 15.5412 17.803
493 1 -1.1104 3.91476 15.6377 14.9554
494 1 -1.1104 3.90817 15.6054 20.7866
480 1 -1.1104 1.13484 15.4714 20.6841
470 1 -1.1104 1.40289 18.4096 20.5648
489 1 -1.1104 4.09921 18.2879 20.9272
8941 2 2.2208 -0.34391 8.66828 19.108
481 1 -1.1104 6.84109 15.7411 15.0863
473 1 -1.1104 6.69139 18.5679 15.3231
466 1 -1.1104 6.56623 18.3477 18.0581
517 2 2.2208 8.19588 14.3428 16.4669
476 1 -1.1104 6.85499 15.4749 17.9231
506 2 2.2208 11.0116 14.1745 19.2213
498 2 2.2208 11.0149 16.9662 16.4808
500 1 -1.1104 12.3919 18.213 17.9783
503 1 -1.1104 12.1643 18.5228 15.2516
505 1 -1.1104 12.7005 15.4535 17.9499
507 2 2.2208 11.1041 19.6292 19.3856
508 1 -1.1104 12.2802 15.7066 15.1769
511 1 -1.1104 9.62401 18.7109 17.8141
512 2 2.2208 8.12228 16.9431 19.439
515 1 -1.1104 9.62626 18.3546 14.8286
518 2 2.2208 8.25985 19.9151 16.4877
519 1 -1.1104 9.58456 15.8602 17.9004
520 1 -1.1104 9.58868 15.5235 15.1757
516 1 -1.1104 9.68837 18.49 20.6484
521 1 -1.1104 9.70231 15.3077 20.7044
509 1 -1.1104 12.4607 15.6126 20.4908
474 1 -1.1104 6.87422 18.3119 20.9486
9012 2 2.2208 -0.150377 14.242 19.289
333 1 -1.1104 6.68404 -4.14281 20.5649
329 1 -1.1104 1.32533 -4.0425 20.5834
551 2 2.2208 2.32411 -2.61481 27.5648
526 2 2.2208 5.2792 0.0520343 22.028
527 1 -1.1104 0.842695 -3.83257 23.2666
531 1 -1.1104 1.23987 -4.02979 26.1931
535 1 -1.1104 0.993475 -1.11642 23.4892
537 2 2.2208 5.25257 -2.79708 25.0306
539 1 -1.1104 0.890856 -1.25751 26.3313
541 1 -1.1104 3.82316 -4.10114 23.564
543 2 2.2208 2.39059 0.174679 25.0254
544 1 -1.1104 3.91855 -4.14072 26.4184
546 2 2.2208 2.45145 -2.65837 22.1042
548 1 -1.1104 3.91519 -1.31401 23.4147
549 1 -1.1104 3.86767 -1.25401 26.0695
536 1 -1.1104 6.75087 -1.19429 23.5824
8298 2 2.2208 7.91409 -5.47011 19.271
580 2 2.2208 10.9547 0.229747 27.6531
8463 2 2.2208 -0.242879 -5.46469 16.3771
343 1 -1.1104 6.69792 -1.49412 20.7217
496 2 2.2208 5.41873 19.7575 13.7666
382 1 -1.1104 9.51615 -4.48766 20.6073
8824 2 2.2208 -0.322411 17.1863 22.2195
460 1 -1.1104 6.84697 18.308 23.6707
540 1 -1.1104 6.76544 -1.17629 26.3983
529 1 -1.1104 6.45042 -4.10167 23.4234
533 1 -1.1104 6.86334 -3.98398 26.3035
377 1 -1.1104 12.2256 -1.26381 20.5914
389 1 -1.1104 9.66053 -1.35334 20.7389
370 1 -1.1104 12.4692 -4.1223 20.6847
562 2 2.2208 10.7685 0.068344 21.9309
563 1 -1.1104 12.2123 -4.04174 23.4258
565 1 -1.1104 12.3021 -4.0724 26.3761
567 1 -1.1104 12.2498 -1.30189 23.5508
568 2 2.2208 10.8675 -2.73106 24.9481
570 1 -1.1104 12.4052 -1.13216 26.2995
571 1 -1.1104 9.33205 -3.99491 23.5085
573 2 2.2208 8.13383 0.170121 25.0495
574 1 -1.1104 9.58537 -4.20309 26.4735
576 2 2.2208 7.90972 -2.66938 22.1754
578 1 -1.1104 9.41193 -1.17046 23.6235
579 1 -1.1104 9.56058 -1.35992 26.3577
644 2 2.2208 8.30266 14.0802 22.0063
331 1 -1.1104 1.11021 1.39442 20.7153
429 1 -1.1104 3.78414 4.32528 20.599
335 1 -1.1104 6.57638 1.53155 20.6364
406 1 -1.1104 6.52958 6.89903 20.3894
417 1 -1.1104 6.68989 4.27789 20.5922
588 1 -1.1104 12.3052 15.6276 26.1671
424 1 -1.1104 3.83749 7.20712 20.4677
528 1 -1.1104 0.958859 1.37708 23.3842
532 1 -1.1104 0.910633 1.63594 26.1996
538 2 2.2208 5.32767 2.86579 24.8811
542 1 -1.1104 3.97561 1.43427 23.5104
545 1 -1.1104 3.87526 1.36722 26.3266
547 2 2.2208 2.26685 2.88419 22.03
591 2 2.2208 5.14878 5.57909 21.9419
595 1 -1.1104 1.02698 7.16414 26.4834
597 1 -1.1104 1.16804 4.26315 23.2797
602 1 -1.1104 0.993827 4.2202 26.2712
607 2 2.2208 2.56187 5.7738 24.6685
609 1 -1.1104 3.9499 7.25151 26.1828
611 1 -1.1104 3.69758 4.2651 23.2036
613 1 -1.1104 3.92787 4.13352 26.2566
593 1 -1.1104 1.09297 7.28699 23.5201
594 1 -1.1104 6.49605 7.22074 23.2808
606 1 -1.1104 3.66562 7.19535 23.2865
534 1 -1.1104 6.81441 1.63675 26.1196
530 1 -1.1104 6.60166 1.55992 23.4298
599 1 -1.1104 6.54999 4.30463 23.3621
581 2 2.2208 8.21759 -2.71022 27.789
456 1 -1.1104 9.51119 4.32172 20.257
439 1 -1.1104 12.2218 6.92295 20.7788
596 1 -1.1104 6.90157 7.41086 25.8702
604 1 -1.1104 6.63841 4.56201 26.0781
451 1 -1.1104 9.54121 7.1763 20.396
564 1 -1.1104 12.2865 1.39474 23.2364
566 1 -1.1104 12.3154 1.538 26.3035
569 2 2.2208 10.9723 3.01751 24.6888
572 1 -1.1104 9.59058 1.64482 23.3532
575 1 -1.1104 9.45753 1.64995 26.2785
577 2 2.2208 8.03054 2.95677 21.9763
623 1 -1.1104 9.51968 4.38863 26.3232
625 1 -1.1104 9.43185 4.38544 23.4841
629 2 2.2208 8.11395 5.80151 24.7298
630 2 2.2208 10.8897 5.58214 21.8447
634 1 -1.1104 12.2233 4.39605 23.2251
637 1 -1.1104 12.4538 4.22285 26.025
639 1 -1.1104 9.5685 6.94822 23.221
633 1 -1.1104 12.5426 7.07887 26.6558
632 1 -1.1104 12.3987 6.99528 23.6518
627 1 -1.1104 9.60454 7.19066 26.1003
554 1 -1.1104 12.3886 18.4369 23.6674
617 2 2.2208 5.24756 11.2817 27.4911
487 1 -1.1104 3.91478 12.7261 20.648
431 1 -1.1104 4.04278 10.065 20.6032
592 2 2.2208 5.39075 11.2458 22.0513
598 1 -1.1104 1.12241 10.0209 23.439
601 2 2.2208 5.33417 8.62016 24.5578
603 1 -1.1104 1.18116 9.92093 26.295
608 2 2.2208 2.44152 11.3459 24.8231
610 2 2.2208 2.48811 8.48962 21.7984
612 1 -1.1104 4.09307 9.9005 23.2054
614 1 -1.1104 3.81922 9.81897 25.9197
361 1 -1.1104 3.97871 12.7945 26.0359
397 1 -1.1104 1.0728 12.8709 23.6446
648 1 -1.1104 3.8353 12.8921 23.3376
652 1 -1.1104 1.20603 12.5846 26.3817
605 1 -1.1104 6.68545 9.96038 26.1415
647 1 -1.1104 6.83811 12.8289 26.2452
356 2 2.2208 -0.424844 5.91964 22.1154
649 1 -1.1104 6.94173 15.444 26.0056
392 1 -1.1104 9.62644 15.5584 23.5053
432 1 -1.1104 6.83247 12.8146 23.3004
600 1 -1.1104 7.02561 9.86289 23.0691
622 1 -1.1104 9.59414 9.80034 26.2984
624 1 -1.1104 9.62639 9.90375 23.5671
626 2 2.2208 8.29266 8.6734 21.7382
628 2 2.2208 8.17912 11.3768 24.86
631 2 2.2208 10.9886 11.3765 22.0854
635 1 -1.1104 12.2739 9.92895 23.4308
636 2 2.2208 11.0017 8.56856 24.7196
638 1 -1.1104 12.364 10.0824 26.0979
553 1 -1.1104 12.2758 13.0314 23.53
558 1 -1.1104 12.511 12.7876 26.3459
589 1 -1.1104 9.5239 12.7279 23.5423
621 1 -1.1104 9.71407 12.7182 26.4131
362 2 2.2208 -0.300295 3.06252 19.1635
583 2 2.2208 10.9017 14.3744 24.9495
482 1 -1.1104 6.77214 15.5801 20.6068
525 2 2.2208 11.0478 16.8737 21.9942
557 2 2.2208 2.48846 14.3344 22.1482
433 2 2.2208 5.45215 14.3035 24.8159
364 2 2.2208 2.36076 17.0329 24.8688
459 2 2.2208 5.43282 19.6262 24.9428
398 1 -1.1104 1.13712 18.3225 23.5113
396 2 2.2208 5.41124 16.912 22.0714
365 1 -1.1104 3.92958 18.4086 26.3344
650 1 -1.1104 1.04464 18.4553 26.4085
646 1 -1.1104 4.06572 18.6399 23.5266
586 1 -1.1104 1.01252 15.5499 23.518
585 1 -1.1104 3.91946 15.7371 23.5602
651 1 -1.1104 1.1946 15.478 26.5477
584 2 2.2208 2.69253 19.8646 22.2245
363 1 -1.1104 4.20477 15.505 26.5155
358 1 -1.1104 6.92243 15.4832 23.26
8825 2 2.2208 -0.254325 20.0472 25.0408
559 1 -1.1104 12.2913 18.3591 26.4935
504 1 -1.1104 12.6721 18.2863 20.6905
590 1 -1.1104 9.61965 18.3739 23.5094
561 1 -1.1104 12.5752 15.6803 23.3146
645 2 2.2208 8.27577 19.8814 22.0872
643 1 -1.1104 9.50028 18.2906 26.4589
391 1 -1.1104 9.65703 15.6123 26.2625
587 2 2.2208 11.0832 19.7335 25.1363
640 2 2.2208 11.0525 5.7124 27.7062
9043 2 2.2208 -0.175597 8.69003 24.9322
642 2 2.2208 10.9932 11.3412 27.7237
8464 2 2.2208 5.35821 -5.17302 16.2832
641 2 2.2208 8.07158 8.5664 27.6578
9045 2 2.2208 13.7022 2.93656 27.3958
8866 2 2.2208 -0.32912 14.2192 25.1002
360 2 2.2208 -0.223376 -2.81839 19.1233
359 2 2.2208 -0.194252 0.203038 16.446
616 2 2.2208 2.42417 8.47109 27.675
393 2 2.2208 2.69561 14.0392 27.7397
390 2 2.2208 8.2994 14.1206 27.6432
522 2 2.2208 10.8006 19.972 13.7726
8827 2 2.2208 -0.36881 0.188586 27.7032
8232 2 2.2208 5.41047 -5.27142 27.6604
8799 2 2.2208 -0.194943 8.52975 13.7093
495 2 2.2208 2.56562 16.9762 13.7241
9015 2 2.2208 -0.334806 19.5047 13.7305
497 2 2.2208 5.42868 14.2466 13.7374
552 2 2.2208 2.43909 3.03009 27.7366
653 2 2.2208 5.28555 22.5791 5.19466
655 1 -1.1104 1.20114 24.0094 0.910095
656 1 -1.1104 1.08397 23.9479 3.68032
659 2 2.2208 5.27076 25.4227 2.27763
662 1 -1.1104 3.97616 23.8158 1.10269
663 2 2.2208 2.48488 22.4827 2.23523
665 1 -1.1104 3.82529 24.0784 3.96788
666 2 2.2208 2.43271 25.5305 4.92308
657 1 -1.1104 1.07444 21.2533 0.978533
660 1 -1.1104 1.19261 21.2308 3.85469
669 1 -1.1104 3.89157 21.2577 3.79557
667 1 -1.1104 3.98298 21.2783 0.704646
679 1 -1.1104 6.51901 26.7635 3.74637
661 1 -1.1104 0.810298 26.7644 3.75933
675 1 -1.1104 6.7268 23.71 3.56797
678 1 -1.1104 6.66368 21.1744 3.68813
676 1 -1.1104 6.79193 21.0991 0.853257
801 1 -1.1104 4.06665 21.1395 6.48904
668 1 -1.1104 3.86673 26.7587 0.99823
670 1 -1.1104 3.78941 26.8639 3.66168
799 1 -1.1104 6.61759 26.7967 6.48115
671 2 2.2208 -0.449871 28.0813 5.18962
800 1 -1.1104 3.98766 24.0246 6.52224
674 1 -1.1104 6.69523 24.2056 0.824105
795 1 -1.1104 6.96719 23.9981 6.30269
694 1 -1.1104 9.46236 21.1999 0.899114
680 2 2.2208 10.7669 22.6147 5.06636
682 1 -1.1104 12.7021 24.2704 0.859973
683 1 -1.1104 12.3967 24.113 3.59535
686 2 2.2208 10.9689 25.345 2.45811
687 1 -1.1104 12.2789 21.2064 3.64542
689 1 -1.1104 9.5374 23.8989 1.02095
690 2 2.2208 7.99731 22.5112 2.24847
692 1 -1.1104 9.56388 24.0148 3.76433
693 2 2.2208 8.09423 25.2815 4.95329
696 1 -1.1104 9.48568 21.07 3.75525
684 1 -1.1104 12.4176 21.3933 0.801434
827 1 -1.1104 12.4099 24.067 6.4943
9318 2 2.2208 13.6478 25.4681 10.701
828 1 -1.1104 12.2415 21.3659 6.48845
829 1 -1.1104 12.1245 26.9116 6.58039
832 1 -1.1104 9.21925 26.6156 6.58336
723 2 2.2208 -0.411602 31.026 2.37962
1529 1 -1.1104 0.721119 46.3529 6.51108
980 2 2.2208 -0.324112 30.9234 13.6755
658 1 -1.1104 1.06486 26.9347 1.18949
654 2 2.2208 5.25135 28.1725 5.26125
664 2 2.2208 2.43291 28.3191 2.28087
702 1 -1.1104 0.888123 29.5627 0.74529
705 1 -1.1104 1.04148 29.4554 3.77044
708 1 -1.1104 0.995204 32.6027 0.858337
709 2 2.2208 5.17415 30.9522 2.34335
711 1 -1.1104 0.916194 32.2975 3.92976
713 1 -1.1104 3.75279 29.4498 0.981875
716 1 -1.1104 3.81373 29.5681 3.64882
718 2 2.2208 2.39226 31.0797 5.46545
720 1 -1.1104 3.57944 32.2639 1.25555
721 1 -1.1104 3.88468 32.5323 3.92899
855 1 -1.1104 1.10621 32.3982 6.73335
851 1 -1.1104 1.10306 29.5354 6.59687
726 1 -1.1104 6.61309 29.6042 4.02067
797 1 -1.1104 0.887783 26.7106 6.61296
1254 2 2.2208 5.04 33.7772 -0.320224
9472 2 2.2208 13.6566 33.8282 2.4081
859 1 -1.1104 3.68842 32.6484 6.64616
853 1 -1.1104 6.65871 29.5444 6.63903
1570 1 -1.1104 12.1938 46.5581 9.41157
973 2 2.2208 2.28393 28.137 13.7014
1578 1 -1.1104 9.1891 46.559 11.9318
685 1 -1.1104 12.0002 26.7768 1.01979
1252 2 2.2208 2.34628 36.7069 -0.331698
677 1 -1.1104 6.54082 27.0495 0.866504
712 1 -1.1104 6.76611 32.2736 3.53971
725 1 -1.1104 6.70063 29.8263 0.791125
727 1 -1.1104 6.55153 32.4397 0.848437
688 1 -1.1104 12.5462 26.7415 3.89444
695 1 -1.1104 9.19779 26.5267 1.00394
697 1 -1.1104 9.65223 26.7053 3.82159
681 2 2.2208 10.89 28.2318 5.23113
691 2 2.2208 8.14141 28.1685 2.45141
729 1 -1.1104 12.2238 29.5169 0.813992
731 1 -1.1104 12.4492 29.5916 3.75479
733 1 -1.1104 12.5212 32.2996 0.975938
734 2 2.2208 10.9035 30.9437 2.38938
736 1 -1.1104 12.1628 32.4011 3.66795
737 1 -1.1104 9.46039 29.449 1.00607
740 1 -1.1104 9.63514 29.6099 3.72792
742 2 2.2208 7.95709 31.1237 5.21685
744 1 -1.1104 9.45105 32.2734 0.917647
745 1 -1.1104 9.46215 32.3026 3.69886
890 1 -1.1104 9.40928 32.4032 6.6218
887 1 -1.1104 12.2507 32.5513 6.43639
856 1 -1.1104 6.7063 32.4722 6.62422