ITEM: TIMESTEP
50000
ITEM: NUMBER OF ATOMS
17760
ITEM: BOX BOUNDS pp pp pp
-4.4477685043833398e-01 2.7784776850437886e+01
-5.5600792912341674e+00 3.3364007929123710e+02
-4.5035874659360070e-01 2.7790358746593391e+01
ITEM: ATOMS id type q x y z
1 2 2.2208 5.15588 0.0891676 5.22866
2 1 -1.1104 1.14885 -4.01645 0.940257
6 1 -1.1104 0.764015 -4.16137 3.67474
10 1 -1.1104 0.835393 -1.37819 0.902156
12 2 2.2208 5.11426 -2.7124 2.42749
14 1 -1.1104 1.10879 -1.42797 3.69031
16 1 -1.1104 3.7337 -4.31741 0.811191
18 2 2.2208 2.42765 -0.0237513 2.51846
19 1 -1.1104 3.72153 -4.06069 3.87077
21 2 2.2208 2.20707 -2.75126 5.34496
23 1 -1.1104 3.78279 -1.37556 0.970137
24 1 -1.1104 3.97618 -1.18038 3.98287
8707 2 2.2208 -0.407722 11.5612 11.0473
11 1 -1.1104 6.46887 -1.46654 1.23137
171 1 -1.1104 6.71949 -1.21726 6.67917
8083 2 2.2208 8.10398 -5.56863 7.87731
8487 2 2.2208 -0.346697 17.3409 11.0104
312 2 2.2208 -0.499808 -2.77207 13.6369
135 2 2.2208 -0.230851 14.2863 2.50783
8081 2 2.2208 5.28231 -5.40772 10.6789
8078 2 2.2208 8.00774 -5.55625 2.26574
4 1 -1.1104 6.41337 -4.23951 1.00253
8 1 -1.1104 6.8236 -4.01146 3.71413
15 1 -1.1104 6.65284 -1.32259 3.94227
31 2 2.2208 10.9562 -0.0275789 5.09832
32 1 -1.1104 12.2728 -4.10072 0.791115
34 1 -1.1104 12.4934 -4.3457 3.80706
36 1 -1.1104 12.1571 -1.18723 0.878341
37 2 2.2208 10.9569 -2.86405 2.20352
39 1 -1.1104 12.1925 -1.38225 3.68927
40 1 -1.1104 9.36285 -4.19002 0.740473
42 2 2.2208 7.88394 0.0729472 2.50422
43 1 -1.1104 9.58878 -4.23216 3.52329
45 2 2.2208 8.11205 -2.74692 5.15318
47 1 -1.1104 9.20437 -1.45746 0.949333
48 1 -1.1104 9.36568 -1.30142 3.58378
210 1 -1.1104 9.4953 -1.37127 6.4223
207 1 -1.1104 12.3165 -1.15696 6.56627
9015 2 2.2208 -0.294866 20.1714 13.681
580 2 2.2208 10.7611 0.0575832 -0.4235
8077 2 2.2208 5.23212 -5.44542 5.11558
395 2 2.2208 8.00761 20.0222 -0.483221
83 2 2.2208 -0.449106 11.4775 5.25896
3 1 -1.1104 1.19284 1.47341 1.05321
7 1 -1.1104 0.908394 1.4859 3.81301
13 2 2.2208 5.11509 2.96566 2.49819
17 1 -1.1104 3.87131 1.66459 0.663998
20 1 -1.1104 3.81675 1.57772 3.7759
22 2 2.2208 2.4284 3.02307 5.27446
54 2 2.2208 5.07627 5.86421 5.27697
60 1 -1.1104 0.940746 4.2347 0.919623
67 1 -1.1104 0.960749 4.37674 3.68323
71 1 -1.1104 3.75525 7.31521 0.813267
72 2 2.2208 2.19761 5.8647 2.32709
76 1 -1.1104 3.66043 4.4944 1.25355
79 1 -1.1104 3.65853 4.4361 4.06908
58 1 -1.1104 0.752875 7.10759 3.85875
56 1 -1.1104 0.957542 7.2562 1.08388
74 1 -1.1104 3.69288 6.99351 3.78489
238 1 -1.1104 3.72482 7.20895 6.78533
69 1 -1.1104 6.56829 4.45999 3.86463
59 1 -1.1104 6.70812 7.29422 3.92887
202 1 -1.1104 9.48305 15.7821 12.465
616 2 2.2208 2.34163 8.67389 -0.360738
8512 2 2.2208 -0.545862 19.8735 8.07014
104 1 -1.1104 12.3039 15.6618 12.271
288 1 -1.1104 6.54918 18.5222 9.42811
63 1 -1.1104 6.5332 4.13209 0.948462
5 1 -1.1104 6.69496 1.40676 1.09684
9 1 -1.1104 6.57081 1.56862 4.01816
57 1 -1.1104 6.70565 7.14954 0.925365
33 1 -1.1104 12.2538 1.69908 0.731569
35 1 -1.1104 12.2564 1.37952 3.62823
38 2 2.2208 10.7299 2.88436 2.4356
41 1 -1.1104 9.59804 1.37811 0.932748
44 1 -1.1104 9.21867 1.53645 3.76094
46 2 2.2208 7.89651 2.86843 5.37851
84 2 2.2208 10.977 5.78096 5.33496
87 1 -1.1104 12.2011 7.03925 3.63807
88 1 -1.1104 12.3026 4.20952 1.09089
92 1 -1.1104 12.0637 4.20927 3.98277
95 2 2.2208 8.11905 5.81256 2.35061
97 1 -1.1104 9.59243 7.35031 3.87415
99 1 -1.1104 9.41173 4.30911 0.945651
102 1 -1.1104 9.26756 4.4171 3.81572
86 1 -1.1104 12.2291 7.25704 0.989838
94 1 -1.1104 9.4326 7.11932 0.792691
206 1 -1.1104 12.2917 1.344 6.57086
265 1 -1.1104 12.4636 7.30601 6.6642
235 1 -1.1104 6.61856 7.21546 6.62576
266 1 -1.1104 12.285 4.45863 6.71074
8680 2 2.2208 13.6527 5.81261 2.22544
55 2 2.2208 5.29154 11.3403 5.18495
61 1 -1.1104 1.13375 9.90404 1.02884
66 2 2.2208 5.3531 8.54023 2.39181
68 1 -1.1104 1.24788 10.0495 3.79345
73 2 2.2208 2.42659 11.4915 2.36638
75 2 2.2208 2.51431 8.63064 5.19665
77 1 -1.1104 3.98196 10.0624 0.958027
80 1 -1.1104 3.78832 9.77426 3.53164
107 1 -1.1104 0.888355 12.7578 1.27252
113 1 -1.1104 1.14111 12.7652 3.77223
123 1 -1.1104 3.91299 12.8079 0.950413
128 1 -1.1104 4.12804 12.6491 3.73254
62 1 -1.1104 0.890734 9.94368 6.86443
78 1 -1.1104 3.69827 10.1065 6.68161
64 1 -1.1104 6.97925 9.86407 0.911552
316 2 2.2208 8.19302 0.0940491 13.5858
108 1 -1.1104 0.985332 12.7837 6.77047
124 1 -1.1104 4.06438 12.83 6.68503
8782 2 2.2208 -0.395979 -2.69569 2.31676
65 1 -1.1104 6.60528 9.9875 6.68575
115 1 -1.1104 6.83606 12.8628 3.85534
70 1 -1.1104 6.56338 9.84411 3.8653
110 1 -1.1104 6.77383 12.9879 1.01697
85 2 2.2208 11.0017 11.5522 5.26354
89 1 -1.1104 12.336 10.1694 0.805474
91 2 2.2208 10.755 8.65392 2.4355
93 1 -1.1104 12.2906 9.92837 3.73662
96 2 2.2208 8.07303 11.4586 2.48879
98 2 2.2208 8.05684 8.55443 5.32231
100 1 -1.1104 9.74589 10.1262 0.829325
103 1 -1.1104 9.4211 10.1089 3.91072
142 1 -1.1104 12.1607 13.2247 0.719886
146 1 -1.1104 12.1517 12.9637 3.72054
153 1 -1.1104 9.49618 12.8558 0.941914
158 1 -1.1104 9.31301 12.9859 3.77613
143 1 -1.1104 12.2886 12.8471 6.47272
101 1 -1.1104 9.49143 10.0615 6.82203
90 1 -1.1104 12.1571 9.95096 6.34875
8786 2 2.2208 13.6841 0.166595 2.30296
394 2 2.2208 10.9133 17.1311 -0.392567
130 2 2.2208 2.38879 14.2306 5.21132
119 2 2.2208 5.09083 14.3026 2.37666
106 2 2.2208 4.96854 17.078 5.24734
109 1 -1.1104 0.954154 18.4714 0.817659
114 1 -1.1104 1.21736 18.4693 3.79584
116 1 -1.1104 1.02031 15.6992 1.05476
120 2 2.2208 5.11961 19.8513 2.30355
121 1 -1.1104 1.17548 15.6524 3.87606
125 1 -1.1104 3.80987 18.5706 1.00813
127 2 2.2208 2.44448 17.1169 2.35379
129 1 -1.1104 3.88658 18.6029 3.6836
131 2 2.2208 2.36012 19.8797 5.16499
132 1 -1.1104 3.69548 15.5126 0.973176
134 1 -1.1104 3.87348 15.5432 3.81154
133 1 -1.1104 3.6073 15.5667 6.59812
126 1 -1.1104 3.57153 18.2895 6.59577
122 1 -1.1104 6.63293 15.772 3.75613
8084 2 2.2208 10.9117 -5.55359 10.7907
302 1 -1.1104 0.75609 18.6483 6.52339
8790 2 2.2208 13.6372 0.25805 13.677
8620 2 2.2208 13.6182 3.01036 11.0295
27 2 2.2208 -0.432122 2.89493 2.33938
138 1 -1.1104 6.7261 18.474 0.906184
149 1 -1.1104 12.3794 15.6561 6.56513
160 2 2.2208 8.02181 14.3121 5.10888
150 2 2.2208 10.8528 14.3358 2.22268
139 1 -1.1104 6.66228 18.7066 3.71949
140 1 -1.1104 6.4711 15.7955 0.93407
141 2 2.2208 10.9347 17.2413 5.19303
144 1 -1.1104 12.3155 18.7689 1.08612
147 1 -1.1104 12.3821 18.4339 3.83798
148 1 -1.1104 12.5389 15.8791 0.850771
151 2 2.2208 10.8809 20.0498 2.45873
152 1 -1.1104 12.2388 15.6661 3.83376
155 1 -1.1104 9.40903 18.2406 0.970405
157 2 2.2208 8.05326 17.0693 2.56045
159 1 -1.1104 9.6072 18.7257 3.76593
161 2 2.2208 8.02371 20.0925 5.34032
162 1 -1.1104 9.44887 15.6022 1.26187
164 1 -1.1104 9.46913 16.0654 4.06835
163 1 -1.1104 9.59391 15.8948 6.87929
118 1 -1.1104 6.69295 15.7918 6.73164
145 1 -1.1104 12.1553 18.525 6.85122
156 1 -1.1104 9.31346 18.4898 6.58157
112 1 -1.1104 6.56223 18.7281 6.68644
174 1 -1.1104 3.70408 -1.478 6.83481
172 1 -1.1104 3.61212 -4.24575 6.3909
8783 2 2.2208 13.6275 14.1875 10.8955
166 1 -1.1104 1.00058 -4.23017 6.66299
8681 2 2.2208 13.6601 11.3483 2.41144
170 1 -1.1104 0.809359 -1.43064 6.49834
105 2 2.2208 10.9869 14.3366 7.94301
175 2 2.2208 5.0779 -0.0449365 10.9211
176 1 -1.1104 1.06759 -4.1114 12.4613
180 1 -1.1104 1.10808 -4.24607 9.49568
184 1 -1.1104 0.8022 -1.32262 11.9559
186 2 2.2208 5.15046 -2.86389 7.81953
188 1 -1.1104 0.846933 -1.51214 9.24183
190 1 -1.1104 3.93908 -4.10779 12.0113
192 2 2.2208 2.19229 0.01523 8.12019
193 1 -1.1104 3.81963 -4.19395 9.35576
195 2 2.2208 2.32452 -2.69677 10.913
197 1 -1.1104 3.76816 -1.34482 12.4188
198 1 -1.1104 3.63963 -1.36795 9.62375
178 1 -1.1104 6.61489 -4.36726 12.1997
185 1 -1.1104 6.54802 -1.30919 12.36
8701 2 2.2208 13.6314 8.76494 10.739
182 1 -1.1104 6.67216 -4.18916 9.32401
189 1 -1.1104 6.3599 -1.31178 9.58268
8831 2 2.2208 -0.319388 17.1394 -0.330275
203 1 -1.1104 9.52176 15.8427 9.52896
208 1 -1.1104 9.6168 -4.2415 6.57033
205 1 -1.1104 12.4203 -3.98186 6.63679
168 1 -1.1104 6.47677 -4.28171 6.50128
523 2 2.2208 11.0454 14.3149 13.7323
53 1 -1.1104 12.1048 18.4525 9.73529
211 2 2.2208 10.8285 0.206352 10.7551
212 1 -1.1104 12.3418 -4.00011 12.2429
214 1 -1.1104 12.4302 -4.00845 9.35996
216 1 -1.1104 12.3249 -1.31037 12.3268
217 2 2.2208 10.8694 -2.68211 7.97247
219 1 -1.1104 12.1057 -1.21471 9.51846
220 1 -1.1104 9.5169 -4.03363 12.2189
222 2 2.2208 7.99963 0.166606 8.13561
223 1 -1.1104 9.73058 -4.17214 9.2049
225 2 2.2208 7.98446 -2.6045 10.9441
227 1 -1.1104 9.47761 -1.05203 12.119
228 1 -1.1104 9.18402 -1.55122 9.46304
296 1 -1.1104 6.9948 18.8515 12.3927
239 1 -1.1104 3.50888 4.36307 6.81262
167 1 -1.1104 1.03737 1.64895 6.50659
236 1 -1.1104 0.880144 4.47015 6.75026
169 1 -1.1104 6.4917 1.56611 6.73804
229 1 -1.1104 12.3075 15.6382 9.45544
173 1 -1.1104 3.76242 1.46039 6.56937
234 1 -1.1104 1.00556 7.27794 6.71185
177 1 -1.1104 1.01643 1.46093 12.1582
181 1 -1.1104 0.963572 1.60815 9.3502
187 2 2.2208 5.03851 3.0386 8.03022
191 1 -1.1104 3.74895 1.52567 11.926
194 1 -1.1104 3.85971 1.46052 9.3082
196 2 2.2208 2.31192 2.85284 10.9846
240 2 2.2208 5.00664 5.88212 10.9685
242 1 -1.1104 1.22199 7.21177 12.2635
244 1 -1.1104 0.865574 7.44917 9.44785
246 1 -1.1104 0.995439 4.48422 12.3941
251 1 -1.1104 0.730784 4.34896 9.38885
255 1 -1.1104 3.75635 7.35939 12.3683
256 2 2.2208 2.1941 5.9411 8.18704
260 1 -1.1104 3.75813 4.35061 12.5594
262 1 -1.1104 3.46073 4.54284 9.8195
183 1 -1.1104 6.67433 1.49552 9.57972
245 1 -1.1104 6.69441 7.57859 9.47305
253 1 -1.1104 6.60043 4.45361 9.47268
258 1 -1.1104 3.78925 7.3121 9.61383
582 2 2.2208 8.04657 2.91501 -0.462229
390 2 2.2208 7.94149 14.4395 -0.32731
232 2 2.2208 8.06349 17.2165 7.9813
267 1 -1.1104 9.5137 7.38155 6.73476
209 1 -1.1104 9.47997 1.52865 6.82042
289 1 -1.1104 6.81598 15.7651 9.5811
269 1 -1.1104 9.54172 4.48468 6.62561
237 1 -1.1104 6.41512 4.45418 6.67549
243 1 -1.1104 6.3992 7.18803 12.2693
179 1 -1.1104 6.72133 1.6232 12.3176
248 1 -1.1104 6.42007 4.56712 12.4225
213 1 -1.1104 12.175 1.57117 12.4754
215 1 -1.1104 12.2419 1.36277 9.38525
218 2 2.2208 10.8895 2.90685 8.1077
221 1 -1.1104 9.4923 1.73385 12.3214
224 1 -1.1104 9.48376 1.49403 9.41909
226 2 2.2208 7.94868 2.92391 10.9577
268 1 -1.1104 9.3819 4.22577 9.44834
271 1 -1.1104 9.38182 4.19802 12.4873
275 2 2.2208 8.04632 5.80905 8.0025
276 2 2.2208 10.7726 5.65342 10.9563
279 1 -1.1104 12.3999 6.84372 9.47941
280 1 -1.1104 12.0575 4.34155 12.5785
283 1 -1.1104 12.0636 4.08267 9.73068
273 1 -1.1104 9.48325 7.05705 9.5215
285 1 -1.1104 9.30515 7.10024 12.1726
278 1 -1.1104 12.0372 7.2879 12.53
8513 2 2.2208 13.6408 -2.69041 10.8165
52 2 2.2208 8.14317 20.0169 10.8276
241 2 2.2208 5.34242 11.4593 10.9253
247 1 -1.1104 0.996889 10.153 12.4175
250 2 2.2208 5.16841 8.68784 8.15629
252 1 -1.1104 1.20808 10.3444 9.75615
257 2 2.2208 2.6311 11.7099 8.25828
259 2 2.2208 2.55528 8.72391 10.9226
261 1 -1.1104 3.84467 10.1118 12.2172
263 1 -1.1104 3.91961 10.1006 9.5411
287 1 -1.1104 3.74936 12.9572 12.2482
294 1 -1.1104 1.03134 13.0948 9.39001
299 1 -1.1104 1.14547 12.9286 12.1512
305 1 -1.1104 3.82371 13.0498 9.58077
290 1 -1.1104 6.75547 13.1126 9.40201
17397 2 2.2208 13.7306 -5.4742 13.3169
49 1 -1.1104 12.584 18.6063 12.3696
111 1 -1.1104 6.64129 12.9006 6.62126
233 1 -1.1104 9.81891 18.9294 12.2884
297 1 -1.1104 6.67134 13.0047 12.384
249 1 -1.1104 6.72149 9.9917 12.1444
154 1 -1.1104 9.52724 13.0099 6.67976
254 1 -1.1104 6.63371 10.2267 9.27466
231 1 -1.1104 9.63324 13.0528 9.44829
230 1 -1.1104 9.57446 13.0482 12.2458
264 1 -1.1104 9.40169 10.069 9.7219
270 1 -1.1104 9.32435 10.1597 12.4604
272 2 2.2208 8.0099 8.67524 10.8759
274 2 2.2208 8.19233 11.5067 8.095
277 2 2.2208 10.7216 11.5585 10.8809
281 1 -1.1104 12.3224 10.0328 12.172
282 2 2.2208 10.994 8.43892 7.95491
284 1 -1.1104 12.0295 9.98236 9.22167
30 1 -1.1104 12.2886 12.7226 12.2217
50 1 -1.1104 12.2324 12.9626 9.32087
165 2 2.2208 10.7663 19.8611 8.18996
28 2 2.2208 -0.523503 5.83658 10.9431
117 1 -1.1104 0.872496 15.6857 6.70775
51 2 2.2208 8.07445 14.3032 10.8994
306 1 -1.1104 6.67766 15.7291 12.1987
295 2 2.2208 5.28711 14.4119 7.99902
81 2 2.2208 -0.463359 5.93613 5.36249
310 2 2.2208 2.37486 14.3945 10.9859
286 1 -1.1104 4.01004 18.928 12.2977
291 1 -1.1104 1.19646 18.752 9.49876
292 1 -1.1104 0.76825 15.9107 9.60843
293 2 2.2208 5.0922 20.2051 7.94962
298 1 -1.1104 1.2574 18.6567 12.3543
300 2 2.2208 5.18836 17.3508 10.7781
301 1 -1.1104 3.92109 18.8413 9.35149
303 2 2.2208 2.34826 17.0954 8.01282
304 1 -1.1104 3.75864 15.5916 9.3724
307 1 -1.1104 1.01303 16.02 12.4421
308 1 -1.1104 3.97036 15.9811 12.1662
309 2 2.2208 2.56259 20.1514 10.9165
25 2 2.2208 10.8508 16.9629 10.9348
204 1 -1.1104 9.37647 18.3309 9.41417
8646 2 2.2208 13.6386 17.1535 2.41357
9017 2 2.2208 -0.439575 5.81927 -0.343534
617 2 2.2208 5.37692 11.4216 -0.329138
136 2 2.2208 -0.380426 20.0179 2.42578
82 2 2.2208 -0.366162 8.56948 2.55556
317 2 2.2208 10.8852 -2.70666 13.5301
497 2 2.2208 5.25021 14.4226 13.4274
311 2 2.2208 -0.0668729 3.02339 13.6467
313 2 2.2208 5.2195 -2.8823 13.5838
551 2 2.2208 2.41819 -2.71996 -0.38086
315 2 2.2208 5.27417 2.75604 13.691
550 2 2.2208 5.42265 0.0331582 -0.355153
323 2 2.2208 5.34573 0.0596669 16.2695
324 1 -1.1104 0.984617 -4.24894 17.8722
328 1 -1.1104 1.00446 -4.30621 15.0207
336 1 -1.1104 1.09309 -1.45554 17.7432
338 2 2.2208 5.11934 -2.60414 19.236
340 1 -1.1104 0.986244 -1.31502 14.8462
344 1 -1.1104 3.82684 -4.18786 17.5803
346 2 2.2208 2.54874 0.041374 19.1824
347 1 -1.1104 3.96118 -4.34966 14.7079
351 2 2.2208 2.4366 -2.96295 16.4119
353 1 -1.1104 3.79394 -1.23908 17.7847
354 1 -1.1104 3.83256 -1.60996 15.0803
355 1 -1.1104 4.02848 -1.22667 20.5333
348 1 -1.1104 3.66986 -3.86006 20.8124
8118 2 2.2208 8.05004 -5.49084 24.9226
337 1 -1.1104 6.6864 -1.40217 17.7663
343 1 -1.1104 6.85311 -1.25518 20.6711
8465 2 2.2208 2.35588 -5.49835 19.5544
329 1 -1.1104 0.90873 -4.15512 20.8303
560 2 2.2208 -0.362038 0.157639 22.1432
318 2 2.2208 10.848 2.99865 13.8475
326 1 -1.1104 6.78633 -4.06042 17.8664
332 1 -1.1104 6.54033 -4.23681 15.1358
342 1 -1.1104 6.65638 -1.37256 15.0102
366 2 2.2208 11.0479 0.0428119 16.5156
367 1 -1.1104 12.252 -4.24474 17.8516
369 1 -1.1104 12.1523 -4.05757 14.8892
373 1 -1.1104 12.3557 -1.41698 17.8606
374 2 2.2208 10.8303 -2.8264 19.2504
376 1 -1.1104 12.2867 -1.44857 15.116
378 1 -1.1104 9.58255 -4.29496 17.8206
380 2 2.2208 8.13489 -0.00212742 19.1926
381 1 -1.1104 9.179 -3.89776 14.8067
385 2 2.2208 8.04256 -2.8621 16.4936
387 1 -1.1104 9.35779 -1.5527 17.8495
388 1 -1.1104 9.6577 -1.11195 15.022
370 1 -1.1104 12.218 -3.95657 20.5201
389 1 -1.1104 9.47964 -1.38453 20.8536
377 1 -1.1104 12.2325 -1.2119 20.6876
382 1 -1.1104 9.3214 -3.93164 20.575
8799 2 2.2208 -0.380122 8.55732 13.6842
8868 2 2.2208 13.6208 8.73137 27.7631
325 1 -1.1104 1.42379 1.47951 17.9479
330 1 -1.1104 1.2661 1.51562 14.9578
339 2 2.2208 5.25292 2.93217 19.3986
345 1 -1.1104 3.83221 1.71573 17.6825
349 1 -1.1104 3.79394 1.37576 14.9094
352 2 2.2208 2.56876 2.85539 16.4179
399 2 2.2208 5.2339 5.64184 16.4732
401 1 -1.1104 1.06586 7.01581 18.1507
407 1 -1.1104 1.41626 4.38003 17.6742
412 1 -1.1104 1.13379 4.25702 15.0598
421 2 2.2208 2.5121 5.87595 19.5183
426 1 -1.1104 4.137 4.52674 18.2844
428 1 -1.1104 3.72628 4.38332 15.2591
403 1 -1.1104 0.876032 7.00337 15.0962
420 1 -1.1104 3.89284 7.32681 18.0591
423 1 -1.1104 3.70536 7.23924 15.2384
429 1 -1.1104 3.71476 4.38508 20.9884
350 1 -1.1104 3.53456 1.68933 20.5936
335 1 -1.1104 6.52102 1.34865 20.6628
9014 2 2.2208 -0.350502 14.1799 13.818
640 2 2.2208 10.7813 5.86787 27.6919
409 1 -1.1104 6.99659 4.25145 17.961
327 1 -1.1104 6.77269 1.68567 17.8262
334 1 -1.1104 6.6068 1.49315 15.0764
402 1 -1.1104 6.64183 6.98101 17.7806
416 1 -1.1104 6.51945 4.24332 15.0304
405 1 -1.1104 6.79445 7.15231 15.0904
368 1 -1.1104 12.3698 1.39337 18.2334
371 1 -1.1104 12.4279 1.54654 15.3245
375 2 2.2208 10.8908 3.02168 19.4492
379 1 -1.1104 9.52572 1.29733 17.7212
383 1 -1.1104 9.48737 1.51778 14.9149
386 2 2.2208 8.27605 2.87096 16.605
435 2 2.2208 10.9022 5.83702 16.5427
437 1 -1.1104 12.348 6.99179 18.1763
438 1 -1.1104 12.5568 7.33757 15.4422
440 1 -1.1104 12.1287 4.32948 18.0325
443 1 -1.1104 12.3247 4.34626 15.2556
448 2 2.2208 8.0266 5.81722 19.2119
453 1 -1.1104 9.58229 4.37852 17.8363
455 1 -1.1104 9.46131 4.42944 15.0888
447 1 -1.1104 9.46361 7.47644 17.7097
444 1 -1.1104 12.3443 4.30781 21.007
450 1 -1.1104 9.65602 7.18948 15.1232
384 1 -1.1104 9.29064 1.6954 20.6656
451 1 -1.1104 9.44161 7.3134 20.4971
372 1 -1.1104 12.1016 1.73204 20.7615
417 1 -1.1104 6.56894 4.39329 20.6284
406 1 -1.1104 6.70588 7.12279 20.6526
8828 2 2.2208 -0.428028 -2.46621 24.9815
400 2 2.2208 5.05759 11.7547 16.4054
408 1 -1.1104 0.932342 10.1351 17.8274
411 2 2.2208 5.25279 8.66203 19.3474
414 1 -1.1104 1.11186 9.76186 15.1102
422 2 2.2208 2.43732 11.7015 19.1652
425 2 2.2208 2.41415 8.62728 16.462
427 1 -1.1104 3.63016 10.2291 17.8654
430 1 -1.1104 3.75742 9.98902 15.1513
463 1 -1.1104 0.990237 12.8957 17.8617
467 1 -1.1104 1.02807 12.9622 15.1282
483 1 -1.1104 3.63045 13.1772 17.9145
486 1 -1.1104 3.82372 12.9145 15.012
468 1 -1.1104 1.16173 12.5883 20.7277
465 1 -1.1104 6.42799 12.984 18.1171
9012 2 2.2208 -0.463874 14.1574 19.3431
487 1 -1.1104 3.81106 13.0594 20.5597
431 1 -1.1104 4.0494 10.0637 20.6833
496 2 2.2208 5.42585 20.1468 13.8088
356 2 2.2208 -0.331665 5.90862 22.0334
8826 2 2.2208 13.461 3.01607 16.7744
418 1 -1.1104 6.44884 10.1494 15.0842
471 1 -1.1104 6.64196 12.883 15.1994
472 1 -1.1104 6.52537 12.9752 20.8741
410 1 -1.1104 6.68916 10.1447 17.7715
436 2 2.2208 10.8971 11.6495 16.3729
441 1 -1.1104 12.3744 10.0628 18.03
442 2 2.2208 10.9248 8.64269 19.2591
445 1 -1.1104 12.412 10.2856 15.2107
449 2 2.2208 8.09797 11.4289 19.25
452 2 2.2208 7.99614 8.57171 16.5221
454 1 -1.1104 9.65166 10.3561 17.7951
457 1 -1.1104 9.43464 10.0921 15.1173
499 1 -1.1104 12.0946 12.828 17.8201
501 1 -1.1104 12.2002 13.0584 14.9889
510 1 -1.1104 9.39365 13.1841 18.1798
513 1 -1.1104 9.36893 13.0363 15.2322
458 1 -1.1104 9.49648 10.1482 20.7563
502 1 -1.1104 12.1498 12.9868 20.7987
446 1 -1.1104 12.3661 10.066 20.6316
490 2 2.2208 2.36426 14.424 16.5397
8232 2 2.2208 5.20958 -5.51038 27.7273
477 2 2.2208 5.10248 14.3178 19.1981
462 2 2.2208 5.28254 17.3051 16.433
464 1 -1.1104 0.859818 18.5895 17.9621
469 1 -1.1104 1.03052 18.5841 15.2583
475 1 -1.1104 1.08308 15.5946 18.1333
478 2 2.2208 5.15449 19.7878 19.3951
479 1 -1.1104 1.171 15.7443 15.2226
484 1 -1.1104 3.50103 18.7812 18.1516
485 2 2.2208 2.31266 17.1201 19.4221
488 1 -1.1104 3.9742 18.6157 15.2936
491 2 2.2208 2.50781 20.2186 16.458
492 1 -1.1104 3.93633 16.0097 17.8411
493 1 -1.1104 3.81164 15.722 14.9912
480 1 -1.1104 0.850839 15.6702 20.8565
470 1 -1.1104 0.6875 18.6417 20.8247
494 1 -1.1104 3.71491 15.6746 20.6773
8466 2 2.2208 11.0084 -5.64459 16.56
9016 2 2.2208 13.6626 11.4988 24.8458
482 1 -1.1104 6.46945 15.8724 20.4384
322 2 2.2208 10.7137 8.72392 13.6685
517 2 2.2208 8.0861 14.5243 16.4211
506 2 2.2208 10.8638 14.4213 19.3917
476 1 -1.1104 6.74614 15.8114 17.7215
466 1 -1.1104 6.5763 18.6047 17.8965
481 1 -1.1104 6.67514 15.818 14.7978
473 1 -1.1104 6.83943 18.584 15.0841
498 2 2.2208 10.9203 17.1629 16.6624
500 1 -1.1104 12.2039 18.6588 18.0551
503 1 -1.1104 12.5211 18.5356 15.2208
505 1 -1.1104 12.3568 15.8393 18.1212
507 2 2.2208 10.7285 19.9923 19.3671
508 1 -1.1104 12.3418 15.8495 15.0818
511 1 -1.1104 9.41104 18.5545 18.0584
512 2 2.2208 8.14753 17.225 19.3078
515 1 -1.1104 9.7012 18.7288 15.2894
518 2 2.2208 8.09166 20.1807 16.5988
519 1 -1.1104 9.43526 16.0055 17.9068
520 1 -1.1104 9.72257 15.8321 15.1724
509 1 -1.1104 12.3905 15.8177 20.8924
516 1 -1.1104 9.70341 18.4323 20.7984
521 1 -1.1104 9.41555 15.7762 20.6467
341 1 -1.1104 1.08084 -1.40109 20.6499
495 2 2.2208 2.4167 17.1402 13.767
319 2 2.2208 2.3605 5.79565 13.8416
8902 2 2.2208 13.7334 11.6306 19.4745
526 2 2.2208 5.25398 0.0726567 22.2361
527 1 -1.1104 0.740051 -4.00044 23.7344
531 1 -1.1104 1.10793 -4.00898 26.4893
535 1 -1.1104 0.987766 -1.21617 23.4562
537 2 2.2208 5.21371 -2.6021 25.0944
539 1 -1.1104 0.990639 -1.1516 26.4765
541 1 -1.1104 3.48302 -4.12689 23.5792
543 2 2.2208 2.48995 0.106444 24.9842
544 1 -1.1104 3.83733 -4.16607 26.377
546 2 2.2208 2.40007 -2.72933 22.2257
548 1 -1.1104 3.98759 -1.36581 23.5063
549 1 -1.1104 3.9196 -1.31095 26.4497
522 2 2.2208 11.1137 20.001 13.7336
533 1 -1.1104 6.71229 -4.01039 26.393
529 1 -1.1104 6.48743 -4.14479 23.715
555 2 2.2208 5.22602 17.2849 27.7684
642 2 2.2208 10.9017 11.4791 27.8038
333 1 -1.1104 6.36906 -4.11543 20.7228
461 2 2.2208 7.99957 11.4849 13.8614
392 1 -1.1104 9.40284 15.539 23.4794
536 1 -1.1104 6.66424 -1.17762 23.682
8795 2 2.2208 13.5005 5.87517 13.8991
540 1 -1.1104 6.80138 -1.36058 26.4066
562 2 2.2208 10.7459 0.208337 22.3354
563 1 -1.1104 12.3046 -4.21594 23.2761
565 1 -1.1104 12.4235 -3.99712 26.1879
567 1 -1.1104 12.3012 -1.08074 23.5898
568 2 2.2208 10.9297 -2.70092 24.9245
570 1 -1.1104 12.4355 -1.1539 26.2532
571 1 -1.1104 9.29344 -4.31871 23.3843
573 2 2.2208 8.09614 0.253648 24.9642
574 1 -1.1104 9.43267 -4.21447 26.2371
576 2 2.2208 7.88386 -2.64164 22.1973
578 1 -1.1104 9.43186 -1.22889 23.673
579 1 -1.1104 9.54611 -1.30876 26.5004
393 2 2.2208 2.41518 14.2494 27.7191
424 1 -1.1104 3.82908 7.27248 20.9049
331 1 -1.1104 0.867492 1.45182 20.7542
413 1 -1.1104 1.08508 4.43294 20.7055
404 1 -1.1104 0.908587 7.39796 20.8261
528 1 -1.1104 1.00651 1.73203 23.564
532 1 -1.1104 1.17974 1.66745 26.4427
538 2 2.2208 5.20532 3.20076 24.9224
542 1 -1.1104 3.81675 1.44715 23.3512
545 1 -1.1104 3.76697 1.65781 26.1726
547 2 2.2208 2.25385 3.05356 22.1875
591 2 2.2208 5.26719 5.96566 22.0146
595 1 -1.1104 1.10829 7.08544 26.4865
597 1 -1.1104 1.00367 4.64636 23.3667
602 1 -1.1104 0.945134 4.45149 26.3582
607 2 2.2208 2.3911 5.87226 24.9874
609 1 -1.1104 4.02308 7.36699 26.3935
611 1 -1.1104 3.87988 4.52154 23.5386
613 1 -1.1104 3.80072 4.51716 26.4659
593 1 -1.1104 1.19491 7.43382 23.8162
606 1 -1.1104 3.97373 7.27082 23.694
9011 2 2.2208 -0.392652 19.9917 19.3215
320 2 2.2208 5.29178 8.53914 13.6997
439 1 -1.1104 12.3699 7.32922 20.6734
456 1 -1.1104 9.57968 4.59176 20.8531
9013 2 2.2208 -0.413824 17.272 16.5268
530 1 -1.1104 6.6201 1.78618 23.5065
596 1 -1.1104 6.77728 7.331 26.2857
604 1 -1.1104 6.64404 4.67665 26.3665
599 1 -1.1104 6.77893 4.7245 23.4762
534 1 -1.1104 6.61589 1.57023 26.3213
564 1 -1.1104 12.228 1.55692 23.5302
566 1 -1.1104 12.2798 1.72741 26.3008
569 2 2.2208 10.9754 3.12078 25.0953
572 1 -1.1104 9.4348 1.65491 23.5252
575 1 -1.1104 9.35867 1.69176 26.4268
577 2 2.2208 7.92053 3.13103 22.2325
623 1 -1.1104 9.58642 4.39984 26.5356
625 1 -1.1104 9.46053 4.37181 23.7339
627 1 -1.1104 9.60807 7.20745 26.2605
629 2 2.2208 8.18968 5.92949 24.7968
630 2 2.2208 10.9883 5.79945 22.1616
634 1 -1.1104 12.5125 4.43487 23.6878
637 1 -1.1104 12.2339 4.6616 26.3198
632 1 -1.1104 12.2986 7.31714 23.5364
639 1 -1.1104 9.51898 7.03398 23.3697
633 1 -1.1104 12.1503 7.37232 26.4798
525 2 2.2208 10.8165 17.0892 22.2749
362 2 2.2208 -0.367965 2.89856 19.3669
415 1 -1.1104 1.10969 10.1033 20.7605
391 1 -1.1104 9.57122 15.8065 26.3594
587 2 2.2208 10.8898 19.9456 25.0107
419 1 -1.1104 6.67392 10.1708 20.5211
592 2 2.2208 5.26098 11.5829 22.0174
598 1 -1.1104 1.09906 9.90166 23.7605
601 2 2.2208 5.35959 8.80348 24.9344
603 1 -1.1104 0.890788 9.95233 26.5382
608 2 2.2208 2.30769 11.3952 25.0064
610 2 2.2208 2.44296 8.88781 22.1457
612 1 -1.1104 3.90492 10.0994 23.4249
614 1 -1.1104 3.85726 10.0744 26.5494
361 1 -1.1104 3.68377 12.8294 26.3139
397 1 -1.1104 0.830783 12.8248 23.6045
648 1 -1.1104 3.88791 12.6879 23.5041
652 1 -1.1104 1.07393 12.6663 26.4849
600 1 -1.1104 6.7212 10.2759 23.4323
554 1 -1.1104 12.3076 18.439 23.6254
514 1 -1.1104 9.39238 12.9489 20.9319
594 1 -1.1104 6.71881 7.35891 23.5707
647 1 -1.1104 6.60575 12.7803 26.5729
605 1 -1.1104 6.66299 10.0087 26.152
432 1 -1.1104 6.68776 13.0823 23.6107
622 1 -1.1104 9.4449 10.0259 26.2702
624 1 -1.1104 9.44029 9.90969 23.4388
626 2 2.2208 8.00103 8.79111 22.0384
628 2 2.2208 8.01607 11.5716 24.8439
631 2 2.2208 10.9076 11.5973 22.1864
635 1 -1.1104 12.3752 10.048 23.4131
636 2 2.2208 10.8442 8.77437 24.7712
638 1 -1.1104 12.1891 10.1234 26.1277
553 1 -1.1104 12.3297 12.9791 23.7676
558 1 -1.1104 12.3321 12.841 26.4858
589 1 -1.1104 9.66206 12.7367 23.6048
621 1 -1.1104 9.50033 12.9893 26.5645
434 2 2.2208 2.6117 11.4293 13.6966
645 2 2.2208 8.27765 20.0247 22.1935
619 2 2.2208 8.18282 17.1674 24.9723
489 1 -1.1104 3.67984 18.4761 20.9017
460 1 -1.1104 6.92684 18.5784 23.5176
474 1 -1.1104 6.77172 18.5662 20.6706
9018 2 2.2208 -0.410548 11.3372 22.1686
433 2 2.2208 5.11062 14.195 25.0533
8827 2 2.2208 -0.315465 0.180107 27.8345
557 2 2.2208 2.38003 14.2564 22.256
650 1 -1.1104 0.887117 18.6442 26.2218
646 1 -1.1104 3.83298 18.63 23.5021
586 1 -1.1104 0.963992 15.5448 23.6848
585 1 -1.1104 3.72064 15.8337 23.7671
651 1 -1.1104 0.957226 15.6949 26.4809
584 2 2.2208 2.38566 19.7849 22.2487
363 1 -1.1104 3.87295 15.682 26.479
364 2 2.2208 2.23734 17.1487 25.0336
365 1 -1.1104 3.67408 18.4774 26.4383
396 2 2.2208 5.26884 17.2826 22.2248
398 1 -1.1104 0.948895 18.2882 23.3843
459 2 2.2208 5.31294 20.1034 25.0238
620 1 -1.1104 6.6082 18.5449 26.2063
561 1 -1.1104 12.3153 15.7084 23.7079
649 1 -1.1104 6.70519 15.7183 26.2211
581 2 2.2208 8.07485 -2.75079 27.82
590 1 -1.1104 9.64259 18.7627 23.603
588 1 -1.1104 12.5389 15.5439 26.3573
358 1 -1.1104 6.53578 15.8312 23.5707
644 2 2.2208 8.02422 14.4849 22.0327
559 1 -1.1104 12.3612 18.4726 26.4733
583 2 2.2208 10.9088 14.2585 25.0065
504 1 -1.1104 12.2894 18.5002 20.8837
643 1 -1.1104 9.65034 18.6222 26.2852
524 2 2.2208 8.26866 17.3714 13.6903
8866 2 2.2208 -0.37148 14.3466 25.067
357 2 2.2208 -0.371992 5.72827 16.5749
321 2 2.2208 8.01148 5.74912 13.6945
17448 2 2.2208 -0.31503 -5.50733 27.7568
552 2 2.2208 2.52768 2.99346 27.7564
615 2 2.2208 5.31215 5.82069 27.7691
8832 2 2.2208 13.7638 0.00546631 19.4026
8872 2 2.2208 13.6765 19.8692 22.1576
8871 2 2.2208 13.6388 -2.68377 16.5887
359 2 2.2208 -0.30685 0.239919 16.4066
314 2 2.2208 2.43028 -0.0400439 13.7551
641 2 2.2208 7.97883 8.7074 27.543
556 2 2.2208 2.5167 19.9832 27.6912
9045 2 2.2208 13.6826 3.12657 27.713
653 2 2.2208 5.30109 22.9011 5.09455
655 1 -1.1104 1.1444 24.1925 1.00302
656 1 -1.1104 1.1087 24.1699 3.76377
659 2 2.2208 5.26138 25.6457 2.4937
662 1 -1.1104 3.87571 24.2416 0.981937
663 2 2.2208 2.62959 22.8489 2.43725
665 1 -1.1104 4.02527 24.2256 3.89811
666 2 2.2208 2.38375 25.6704 5.20266
657 1 -1.1104 1.08422 21.4374 1.12804
660 1 -1.1104 0.964976 21.3826 3.84806
669 1 -1.1104 3.8855 21.2936 3.66505
667 1 -1.1104 3.92802 21.2864 0.867859
668 1 -1.1104 3.87301 26.9812 1.05536
794 1 -1.1104 0.925477 24.2849 6.59563
1224 2 2.2208 8.03396 25.5407 -0.275833
675 1 -1.1104 6.78072 24.1753 3.86362
658 1 -1.1104 0.95031 27.0885 1.01289
972 2 2.2208 -0.43664 34.1262 10.8536
801 1 -1.1104 3.55578 21.3512 6.61194
796 1 -1.1104 0.712605 21.3322 6.56563
947 1 -1.1104 9.49632 44.1461 12.1089
1229 2 2.2208 10.8315 28.4652 -0.283243
678 1 -1.1104 6.57402 21.3806 4.01737
677 1 -1.1104 6.44332 26.8138 0.832654
674 1 -1.1104 6.63072 24.03 1.16626
676 1 -1.1104 6.69162 21.3217 1.0444
694 1 -1.1104 9.37077 21.2156 1.07666
680 2 2.2208 10.8041 22.7715 5.21161
682 1 -1.1104 12.3424 24.2344 0.945786
683 1 -1.1104 12.4717 24.307 3.68736
686 2 2.2208 11.0836 25.7618 2.30575
687 1 -1.1104 12.2206 21.3971 4.01713
689 1 -1.1104 9.47256 24.2001 1.18062
690 2 2.2208 7.96936 22.6585 2.52462
692 1 -1.1104 9.48967 24.2634 3.66357
693 2 2.2208 8.09797 25.6136 5.13594
696 1 -1.1104 9.46973 21.4378 3.85277
684 1 -1.1104 12.25 21.4953 1.14255
831 1 -1.1104 9.53328 21.407 6.62065
685 1 -1.1104 12.3397 27.1421 0.990831
695 1 -1.1104 9.47651 26.9662 0.95455
697 1 -1.1104 9.76762 27.0524 3.98073
828 1 -1.1104 12.2334 21.0955 6.81063
829 1 -1.1104 12.2546 27.2421 6.83219
830 1 -1.1104 9.70079 24.0314 6.63965
722 2 2.2208 -0.53751 36.9135 2.2242
661 1 -1.1104 0.995359 26.9616 3.79622
802 1 -1.1104 3.7307 26.9475 6.50771
943 2 2.2208 -0.331879 45.3928 10.6402
670 1 -1.1104 3.71772 27.2579 3.95736
654 2 2.2208 5.5051 28.4234 5.2367
664 2 2.2208 2.49567 28.4223 2.50095
702 1 -1.1104 1.00633 29.8255 1.0885
705 1 -1.1104 1.05498 29.7491 3.8409
708 1 -1.1104 0.955501 32.6907 1.00653
709 2 2.2208 5.09775 31.2808 2.26713
711 1 -1.1104 0.850377 32.4818 3.72284
713 1 -1.1104 3.67842 29.908 1.01315
716 1 -1.1104 3.80992 29.9287 3.83944
718 2 2.2208 2.39116 31.2026 5.15955
720 1 -1.1104 3.76319 32.8333 1.18857
721 1 -1.1104 3.86947 32.7955 3.89765
857 1 -1.1104 3.86516 29.7434 6.48066
797 1 -1.1104 0.907342 27.1654 6.4822
976 2 2.2208 2.46772 34.0895 13.6407
1254 2 2.2208 5.05952 34.1073 -0.509742
746 1 -1.1104 12.1268 41.4003 12.2821
954 1 -1.1104 12.6514 43.9951 9.30498
688 1 -1.1104 12.4916 27.1403 3.9524
679 1 -1.1104 6.73312 27.0708 3.66603
727 1 -1.1104 6.75143 32.7048 1.04747
726 1 -1.1104 6.66586 29.6626 3.6826
712 1 -1.1104 6.68092 32.4496 3.7239
725 1 -1.1104 6.72397 29.8188 0.882051
681 2 2.2208 10.979 28.5082 5.2627
691 2 2.2208 8.12594 28.5036 2.37895
729 1 -1.1104 12.3197 29.9015 1.14281
731 1 -1.1104 12.1682 29.8732 3.85159
733 1 -1.1104 12.265 32.6679 1.13829
734 2 2.2208 10.9047 31.2093 2.41417
736 1 -1.1104 12.2533 32.7632 3.92355
737 1 -1.1104 9.60449 29.8828 1.11141
740 1 -1.1104 9.54587 29.8369 3.80796
742 2 2.2208 8.04907 31.2858 5.09302
744 1 -1.1104 9.57994 32.6443 0.947398
745 1 -1.1104 9.56674 32.5367 3.76415
890 1 -1.1104 9.64055 32.697 6.59548
853 1 -1.1104 6.66114 29.9911 6.52824
799 1 -1.1104 6.70487 27.0128 6.52238
856 1 -1.1104 6.76085 32.7669 6.5884
1173 2 2.2208 10.8887 42.6368 13.6209
913 1 -1.1104 6.67374 43.9205 9.48105
1353 1 -1.1104 3.84759 46.5575 1.01547
701 2 2.2208 5.28302 34.2574 5.08872
715 2 2.2208 2.30469 34.1794 2.33709
703 1 -1.1104 0.991218 35.5976 0.777515
706 1 -1.1104 0.663551 35.3872 3.64399
710 2 2.2208 5.12357 36.8968 2.09031
714 1 -1.1104 3.82989 35.5157 0.796614