ITEM: TIMESTEP
30000
ITEM: NUMBER OF ATOMS
17760
ITEM: BOX BOUNDS pp pp pp
-4.5454697255895038e-01 2.7794546972558969e+01
-5.5072531210152045e+00 3.3358725312101654e+02
-4.4289676198429956e-01 2.7782896761984052e+01
ITEM: ATOMS id type q x y z
1 2 2.2208 5.35155 0.225915 5.26476
2 1 -1.1104 1.37399 -4.10888 1.20902
6 1 -1.1104 1.14236 -4.0075 3.76656
10 1 -1.1104 1.06553 -1.13411 0.913455
12 2 2.2208 5.38437 -2.71524 2.22849
14 1 -1.1104 1.24023 -1.00857 3.93219
16 1 -1.1104 4.22091 -4.14874 0.856804
18 2 2.2208 2.42833 0.352523 2.41417
19 1 -1.1104 4.10425 -4.28907 3.38075
21 2 2.2208 2.5271 -2.61495 5.26392
23 1 -1.1104 3.88431 -1.32729 0.890281
24 1 -1.1104 4.05341 -1.07826 3.64563
11 1 -1.1104 6.69075 -1.2186 1.02579
4 1 -1.1104 6.76025 -4.17981 0.870339
172 1 -1.1104 4.0354 -4.02876 6.41332
174 1 -1.1104 3.95016 -1.08396 6.72644
233 1 -1.1104 9.52811 18.7197 12.0937
156 1 -1.1104 9.55873 18.7169 6.41833
8486 2 2.2208 -0.307444 14.5014 8.03729
166 1 -1.1104 1.09998 -4.18041 6.53852
170 1 -1.1104 1.13298 -1.21462 6.6282
8084 2 2.2208 11.1244 -5.39879 11.1069
8080 2 2.2208 2.49419 -5.50558 8.07986
15 1 -1.1104 6.84068 -0.987105 3.89646
8 1 -1.1104 6.84045 -3.89321 3.84986
171 1 -1.1104 6.77728 -1.18215 6.71036
232 2 2.2208 8.19005 17.1931 7.84958
31 2 2.2208 11.1566 0.279275 5.18023
32 1 -1.1104 12.527 -4.0105 1.12211
34 1 -1.1104 12.6389 -3.91947 3.91907
36 1 -1.1104 12.4307 -1.21875 1.01915
37 2 2.2208 10.9666 -2.53453 2.44308
39 1 -1.1104 12.5941 -1.06614 3.8011
40 1 -1.1104 9.60363 -4.0436 1.21769
42 2 2.2208 8.38944 0.328503 2.25869
43 1 -1.1104 9.79589 -3.90745 3.92822
45 2 2.2208 8.23916 -2.53434 5.13502
47 1 -1.1104 9.62352 -1.17574 0.898085
48 1 -1.1104 9.5285 -1.2742 3.82157
312 2 2.2208 -0.0983747 -2.66596 13.5823
205 1 -1.1104 12.4735 -4.09778 6.89838
104 1 -1.1104 12.3459 15.8405 12.3098
321 2 2.2208 8.35711 6.15605 13.5011
168 1 -1.1104 6.93434 -4.01025 6.67364
210 1 -1.1104 9.62652 -1.19525 6.45247
207 1 -1.1104 12.483 -1.20294 6.59679
208 1 -1.1104 9.76042 -4.08827 6.62185
3 1 -1.1104 0.972665 1.74426 0.73422
7 1 -1.1104 1.05147 1.60478 3.62062
13 2 2.2208 5.3123 3.08756 2.23197
17 1 -1.1104 3.95669 1.60922 0.816188
20 1 -1.1104 3.79354 1.79001 3.61019
22 2 2.2208 2.60857 3.37139 5.18384
54 2 2.2208 5.32805 6.05846 5.26346
60 1 -1.1104 1.07156 4.51702 0.694517
67 1 -1.1104 1.27067 4.40953 3.56146
71 1 -1.1104 4.00352 7.25997 0.973333
72 2 2.2208 2.53788 5.88185 2.32329
76 1 -1.1104 3.96145 4.32948 0.957032
79 1 -1.1104 3.80382 4.71805 3.91726
58 1 -1.1104 1.18134 7.32384 3.95023
56 1 -1.1104 1.04587 7.45838 1.02525
74 1 -1.1104 3.79483 7.52321 3.5763
236 1 -1.1104 1.08329 4.5398 6.4904
234 1 -1.1104 1.07973 7.40175 6.59392
59 1 -1.1104 6.60409 7.44106 3.84413
53 1 -1.1104 12.4358 18.8187 9.51219
81 2 2.2208 -0.439875 6.04404 5.14641
173 1 -1.1104 3.82707 1.77895 6.56861
239 1 -1.1104 4.03804 4.60653 6.64626
167 1 -1.1104 1.00836 1.89557 6.47174
8782 2 2.2208 -0.378216 -2.45662 2.36989
57 1 -1.1104 6.65179 7.42019 1.04902
5 1 -1.1104 6.90105 1.5382 0.67146
63 1 -1.1104 6.71762 4.35084 0.798345
9 1 -1.1104 6.68435 1.6922 3.55537
69 1 -1.1104 6.60299 4.58541 3.72256
33 1 -1.1104 12.4321 1.81755 0.811275
35 1 -1.1104 12.599 1.48398 3.54883
38 2 2.2208 11.0965 3.13006 2.20234
41 1 -1.1104 9.65965 1.69451 0.85973
44 1 -1.1104 9.60654 1.52193 3.78995
46 2 2.2208 7.99325 2.98289 5.0307
84 2 2.2208 10.8408 5.865 5.03906
87 1 -1.1104 12.3488 7.35316 3.64302
88 1 -1.1104 12.3759 4.84655 0.708762
92 1 -1.1104 12.1082 4.53908 3.60838
95 2 2.2208 8.07698 6.11078 2.22584
97 1 -1.1104 9.55754 7.53295 3.67821
99 1 -1.1104 9.36267 4.74572 0.721096
102 1 -1.1104 9.44379 4.41031 3.41697
86 1 -1.1104 12.1612 7.61046 0.741351
94 1 -1.1104 9.4184 7.49921 0.642166
235 1 -1.1104 6.71828 7.53691 6.80056
266 1 -1.1104 12.0703 4.57881 6.31567
265 1 -1.1104 12.6896 7.38498 6.61908
267 1 -1.1104 9.63212 7.21649 6.32963
169 1 -1.1104 6.81244 1.743 6.39855
206 1 -1.1104 12.5861 1.78553 6.5467
269 1 -1.1104 9.26434 4.36475 6.53923
209 1 -1.1104 9.73947 1.53861 6.41975
55 2 2.2208 5.28517 11.8207 5.12959
61 1 -1.1104 0.959489 10.1846 0.821944
66 2 2.2208 5.37956 8.86846 2.46277
68 1 -1.1104 1.11805 10.1919 3.54175
73 2 2.2208 2.46068 11.5799 2.39862
75 2 2.2208 2.49322 8.85727 5.02384
77 1 -1.1104 3.88018 10.1887 1.11745
80 1 -1.1104 4.0028 10.3992 3.876
107 1 -1.1104 1.10144 13.1702 1.00024
113 1 -1.1104 1.14695 12.9632 3.68573
123 1 -1.1104 3.70959 12.8919 1.0676
128 1 -1.1104 3.82833 13.0949 3.76981
108 1 -1.1104 1.0009 13.0668 6.64974
27 2 2.2208 -0.239698 3.11143 2.2601
78 1 -1.1104 4.07081 10.3896 6.70982
124 1 -1.1104 3.70178 13.1731 6.52796
62 1 -1.1104 1.17594 10.0946 6.49497
82 2 2.2208 -0.442858 8.77238 2.41529
522 2 2.2208 10.9308 20.1174 13.405
64 1 -1.1104 6.80603 10.2297 0.786385
110 1 -1.1104 6.67542 13.3413 0.91514
115 1 -1.1104 6.52551 13.2595 3.45327
70 1 -1.1104 6.70273 10.464 3.66062
85 2 2.2208 10.974 11.6326 5.24418
89 1 -1.1104 12.4229 10.2652 0.977857
91 2 2.2208 10.9824 9.06068 2.46966
93 1 -1.1104 12.5583 10.3097 3.96628
96 2 2.2208 8.11431 11.6537 2.33008
98 2 2.2208 8.09901 8.7883 5.15678
100 1 -1.1104 9.49184 10.491 0.91185
103 1 -1.1104 9.5395 10.3187 3.71077
142 1 -1.1104 12.2691 13.0494 0.979929
146 1 -1.1104 12.402 13.0551 3.64821
153 1 -1.1104 9.50647 13.0118 1.06475
158 1 -1.1104 9.48483 12.9727 3.83532
154 1 -1.1104 9.47032 13.0373 6.39954
90 1 -1.1104 12.4164 10.2365 6.57282
150 2 2.2208 10.8815 14.4716 2.42365
143 1 -1.1104 12.2754 13.1629 6.37892
65 1 -1.1104 6.61122 10.0204 6.63046
111 1 -1.1104 6.80924 13 6.41657
101 1 -1.1104 9.50462 10.2896 6.52208
119 2 2.2208 5.17576 14.6184 2.31372
130 2 2.2208 2.35097 14.4486 5.13747
106 2 2.2208 5.20192 17.4534 5.01169
109 1 -1.1104 0.765893 18.8986 0.714542
114 1 -1.1104 1.01854 18.6167 3.57061
116 1 -1.1104 1.04916 16.0517 0.765451
120 2 2.2208 5.27881 20.1394 2.36581
121 1 -1.1104 0.821028 15.6689 3.66765
125 1 -1.1104 3.79749 18.7424 0.841102
127 2 2.2208 2.32405 17.3745 2.21539
129 1 -1.1104 3.75736 18.9285 3.55323
131 2 2.2208 2.36501 20.2125 4.8678
132 1 -1.1104 3.67986 15.8837 0.795382
134 1 -1.1104 3.81634 15.9587 3.71439
126 1 -1.1104 3.86934 18.6474 6.47842
302 1 -1.1104 1.13374 18.6638 6.32532
316 2 2.2208 8.25166 0.181284 13.6403
140 1 -1.1104 6.80839 16.1293 0.806121
29 2 2.2208 -0.189023 8.74329 7.96098
496 2 2.2208 5.23492 20.1639 13.6513
135 2 2.2208 -0.326882 14.3285 2.13794
112 1 -1.1104 6.85126 18.5463 6.46769
314 2 2.2208 2.57804 0.317001 13.5339
160 2 2.2208 7.95978 14.6105 5.17824
138 1 -1.1104 6.65628 18.8632 0.896849
139 1 -1.1104 6.60281 18.5829 3.52585
122 1 -1.1104 6.66115 15.9345 3.752
141 2 2.2208 10.9445 17.2619 5.07754
144 1 -1.1104 12.2902 18.6478 0.791744
147 1 -1.1104 12.4162 18.5702 3.69576
148 1 -1.1104 12.3146 15.9396 0.965672
151 2 2.2208 10.8686 19.9791 2.20895
152 1 -1.1104 12.2701 15.9371 3.71348
155 1 -1.1104 9.63723 18.493 0.970792
157 2 2.2208 8.24087 17.1599 2.25869
159 1 -1.1104 9.46452 18.7477 3.64041
161 2 2.2208 8.05498 20.1557 5.03261
162 1 -1.1104 9.6463 15.782 0.890117
164 1 -1.1104 9.4987 15.902 3.74878
118 1 -1.1104 6.69235 15.9705 6.61398
145 1 -1.1104 12.3284 18.6533 6.78752
149 1 -1.1104 12.476 15.7775 6.51931
318 2 2.2208 11.075 3.00287 13.4878
175 2 2.2208 5.28735 0.323169 10.6957
176 1 -1.1104 1.20971 -3.93343 12.3578
180 1 -1.1104 1.23461 -3.86529 9.36415
184 1 -1.1104 1.21609 -1.14823 11.9891
186 2 2.2208 5.35904 -2.66439 7.91309
188 1 -1.1104 1.18399 -1.19233 9.25034
190 1 -1.1104 3.95095 -4.02336 12.0193
192 2 2.2208 2.53193 0.251845 7.93446
193 1 -1.1104 3.96266 -4.07773 9.18839
195 2 2.2208 2.55957 -2.51022 10.6968
197 1 -1.1104 3.95077 -1.0713 12.2292
198 1 -1.1104 3.86045 -1.1503 9.5191
8079 2 2.2208 11.1795 -5.266 5.07492
8082 2 2.2208 -0.264708 -5.46745 10.9471
185 1 -1.1104 6.65873 -0.869872 12.1805
17391 2 2.2208 -0.387853 -5.43934 5.07803
52 2 2.2208 8.21128 20.0438 10.7076
8093 2 2.2208 2.57654 -5.4967 13.5727
178 1 -1.1104 6.51993 -3.89135 11.9611
83 2 2.2208 -0.222965 11.5309 5.15225
182 1 -1.1104 6.68129 -3.92534 9.37102
189 1 -1.1104 6.62545 -1.17667 9.46467
211 2 2.2208 10.9383 0.080913 10.7924
212 1 -1.1104 12.1096 -3.95031 12.3731
214 1 -1.1104 12.645 -4.01616 9.5618
216 1 -1.1104 12.3725 -1.16329 12.2795
217 2 2.2208 11.1191 -2.62968 7.91245
219 1 -1.1104 12.6078 -1.01252 9.58638
220 1 -1.1104 9.50928 -4.00745 12.3486
222 2 2.2208 8.12189 0.326355 7.97252
223 1 -1.1104 9.78909 -3.96578 9.50791
225 2 2.2208 8.02528 -2.59539 10.8273
227 1 -1.1104 9.42891 -1.13195 12.0913
228 1 -1.1104 9.45561 -1.2465 9.1671
296 1 -1.1104 6.74482 18.7669 12.1863
8707 2 2.2208 -0.275984 11.4901 10.8317
9015 2 2.2208 -0.395691 20.1257 13.3686
25 2 2.2208 11.0584 17.1486 10.6491
237 1 -1.1104 6.59095 4.72369 6.39032
28 2 2.2208 -0.269396 5.87667 10.7329
105 2 2.2208 10.9362 14.3434 7.83046
202 1 -1.1104 9.55507 15.9286 12.1229
238 1 -1.1104 3.85098 7.51281 6.48644
177 1 -1.1104 1.25958 1.82478 12.1461
181 1 -1.1104 1.02459 1.54531 9.22028
187 2 2.2208 5.51725 3.23272 7.94405
191 1 -1.1104 4.08542 1.76454 12.0325
194 1 -1.1104 3.67455 1.64822 9.32094
196 2 2.2208 2.66207 3.18618 10.7378
240 2 2.2208 5.37532 6.07379 10.8167
242 1 -1.1104 1.25533 7.40518 12.1776
244 1 -1.1104 1.28712 7.29616 9.31337
246 1 -1.1104 1.26161 4.51441 12.0526
251 1 -1.1104 1.23248 4.36815 9.40749
255 1 -1.1104 4.08127 7.47529 12.3193
256 2 2.2208 2.67482 5.83407 7.88248
258 1 -1.1104 3.93155 7.29618 9.51893
260 1 -1.1104 4.0858 4.62328 12.176
262 1 -1.1104 4.11487 4.44548 9.26361
8078 2 2.2208 8.25168 -5.46733 2.28905
179 1 -1.1104 6.80472 1.64045 12.091
253 1 -1.1104 6.9633 4.48096 9.14699
248 1 -1.1104 6.81308 4.584 12.2663
183 1 -1.1104 6.60492 1.71398 9.13661
245 1 -1.1104 6.74342 7.45621 9.46374
243 1 -1.1104 6.94085 7.39334 12.0362
213 1 -1.1104 12.5672 1.47373 12.0347
215 1 -1.1104 12.4357 1.86656 9.14331
218 2 2.2208 10.9259 3.10583 7.84166
221 1 -1.1104 9.70127 1.6621 12.0688
224 1 -1.1104 9.43001 1.6292 9.24617
226 2 2.2208 8.21146 3.22874 10.6842
268 1 -1.1104 9.70085 4.53971 9.22946
271 1 -1.1104 9.5262 4.69465 11.9259
275 2 2.2208 8.22381 6.15378 7.96153
276 2 2.2208 10.8508 6.07392 10.6867
278 1 -1.1104 12.5175 7.28992 12.0075
279 1 -1.1104 12.331 7.42507 9.51606
280 1 -1.1104 12.2246 4.31637 12.013
283 1 -1.1104 12.5793 4.77791 9.32802
285 1 -1.1104 9.90214 7.66214 12.067
273 1 -1.1104 9.64355 7.46517 9.11781
523 2 2.2208 11.0831 14.5057 13.6414
51 2 2.2208 8.23645 14.6669 10.7396
199 2 2.2208 -0.309246 3.07865 8.04487
241 2 2.2208 5.31707 11.8124 10.8155
247 1 -1.1104 1.07619 10.0711 12.0938
250 2 2.2208 5.37407 8.73342 8.13752
252 1 -1.1104 1.15662 10.2346 9.12412
257 2 2.2208 2.42809 11.6006 8.02078
259 2 2.2208 2.50867 8.73803 10.7315
261 1 -1.1104 3.78353 10.3699 12.2091
263 1 -1.1104 4.14928 10.3027 9.46927
287 1 -1.1104 3.97231 13.1772 12.0653
294 1 -1.1104 1.28784 12.9844 9.50878
299 1 -1.1104 1.06869 12.8771 12.2764
305 1 -1.1104 3.81957 13.1638 9.32022
319 2 2.2208 2.58835 5.92813 13.563
311 2 2.2208 -0.302022 3.16847 13.6647
288 1 -1.1104 6.70474 18.7448 9.39196
8799 2 2.2208 -0.323803 8.59508 13.6524
136 2 2.2208 -0.327072 20.0968 2.03753
290 1 -1.1104 6.6656 13.1288 9.29173
249 1 -1.1104 6.7285 10.4845 12.0861
254 1 -1.1104 6.94731 10.3343 9.30463
297 1 -1.1104 6.67163 13.1823 12.0743
231 1 -1.1104 9.55623 12.8099 9.26725
230 1 -1.1104 9.56493 13.1664 12.0136
264 1 -1.1104 9.82744 10.1718 9.53318
270 1 -1.1104 9.56165 10.3401 12.3065
272 2 2.2208 8.16224 9.00807 10.7013
274 2 2.2208 8.07542 11.7229 7.72412
277 2 2.2208 11.1866 11.657 10.7992
281 1 -1.1104 12.4799 10.358 11.9976
282 2 2.2208 11.1673 8.84884 7.95954
284 1 -1.1104 12.5292 10.3819 9.34078
30 1 -1.1104 12.5274 13.0182 12.2018
50 1 -1.1104 12.3742 13.1422 9.45982
306 1 -1.1104 6.86827 15.8027 12.2045
8077 2 2.2208 5.57164 -5.48991 5.17877
524 2 2.2208 8.05108 17.397 13.5966
313 2 2.2208 5.38706 -2.50886 13.4778
8083 2 2.2208 8.39768 -5.4032 8.09265
117 1 -1.1104 0.859819 15.8854 6.61932
310 2 2.2208 2.52256 14.4974 10.747
133 1 -1.1104 3.92046 16.0417 6.56245
295 2 2.2208 5.23629 14.527 7.87136
286 1 -1.1104 3.60205 18.7435 12.3484
291 1 -1.1104 1.10555 18.6113 9.11973
292 1 -1.1104 0.895976 15.6856 9.42619
293 2 2.2208 5.40211 19.9141 7.92753
298 1 -1.1104 0.996861 18.7971 12.0072
300 2 2.2208 5.39426 17.3031 10.6701
301 1 -1.1104 3.97847 18.5377 9.30356
303 2 2.2208 2.36569 17.1558 7.92011
304 1 -1.1104 3.94858 15.8551 9.14896
307 1 -1.1104 0.957214 15.8954 12.2425
308 1 -1.1104 3.89682 15.981 11.9996
309 2 2.2208 2.39421 20.2001 10.7582
165 2 2.2208 11.0903 20.2145 8.06119
497 2 2.2208 5.42213 14.5152 13.5685
315 2 2.2208 5.49597 3.1242 13.4378
204 1 -1.1104 9.59109 18.7383 9.16017
229 1 -1.1104 12.4679 16.0436 9.27083
289 1 -1.1104 6.8643 15.8975 9.44677
163 1 -1.1104 9.62089 15.9051 6.45776
203 1 -1.1104 9.65948 16.0415 9.36961
49 1 -1.1104 12.4492 18.6454 12.1198
200 2 2.2208 -0.118529 -2.71354 7.95319
8795 2 2.2208 13.6185 5.74321 13.5414
26 2 2.2208 -0.283218 0.457456 5.05449
201 2 2.2208 -0.256001 0.214919 10.6691
8081 2 2.2208 5.36268 -5.44742 10.574
434 2 2.2208 2.44461 11.6138 13.4556
8827 2 2.2208 -0.401161 0.385331 -0.316839
8512 2 2.2208 -0.244664 20.1107 7.70625
551 2 2.2208 2.56582 -2.89945 -0.306618
461 2 2.2208 8.21899 11.7706 13.3707
8646 2 2.2208 13.6299 17.3203 2.27962
495 2 2.2208 2.43278 17.1989 13.6545
8226 2 2.2208 11.039 -5.41747 -0.402208
323 2 2.2208 5.39271 0.148351 16.2424
324 1 -1.1104 1.11291 -3.66295 17.8236
328 1 -1.1104 1.23511 -4.3524 15.1403
336 1 -1.1104 1.34784 -0.915036 18.1666
338 2 2.2208 5.34086 -2.58503 19.3286
340 1 -1.1104 1.44705 -1.48805 15.2157
344 1 -1.1104 3.99263 -4.10129 17.6108
346 2 2.2208 2.68939 0.404025 19.2973
347 1 -1.1104 4.26528 -3.97467 14.9479
351 2 2.2208 2.92688 -2.54282 16.5521
353 1 -1.1104 4.07468 -1.0621 18.1938
354 1 -1.1104 4.07148 -1.29841 15.0328
341 1 -1.1104 1.19657 -1.19123 20.8976
362 2 2.2208 -0.295237 3.07604 19.1232
355 1 -1.1104 4.19614 -0.928449 20.7318
329 1 -1.1104 1.24311 -4.0043 20.6751
333 1 -1.1104 6.79525 -3.93796 20.8011
8118 2 2.2208 8.17319 -5.41235 24.8585
337 1 -1.1104 6.64199 -1.16991 17.6268
332 1 -1.1104 6.85354 -4.13085 14.8975
342 1 -1.1104 7.03776 -1.52116 14.998
326 1 -1.1104 6.78261 -4.0871 17.9982
366 2 2.2208 11.1925 0.264998 16.5097
367 1 -1.1104 12.4649 -4.02669 18.0203
369 1 -1.1104 12.7522 -4.04294 15.1281
373 1 -1.1104 12.5745 -1.26457 17.9563
374 2 2.2208 11.1043 -2.54508 19.3965
376 1 -1.1104 12.5665 -1.29259 15.0243
378 1 -1.1104 9.64896 -4.02674 18.0501
380 2 2.2208 8.26639 0.307302 19.1234
381 1 -1.1104 9.83394 -3.9855 15.2229
385 2 2.2208 8.29445 -2.62974 16.3597
387 1 -1.1104 9.90403 -1.15544 17.8248
388 1 -1.1104 9.55352 -1.26966 14.9895
377 1 -1.1104 12.5651 -0.845827 20.8407
343 1 -1.1104 6.84694 -0.907969 20.5758
382 1 -1.1104 9.71805 -3.74096 20.8973
555 2 2.2208 5.23953 17.2503 27.6046
325 1 -1.1104 1.17881 1.78988 17.8043
330 1 -1.1104 1.42459 1.55139 14.9334
339 2 2.2208 5.45768 3.12288 19.1435
345 1 -1.1104 4.05105 1.76386 17.6007
349 1 -1.1104 4.07069 1.61918 14.9804
352 2 2.2208 2.52491 3.11539 16.3208
399 2 2.2208 5.51633 5.85565 16.3977
401 1 -1.1104 1.1993 7.58297 17.8724
407 1 -1.1104 1.0827 4.77358 17.7087
412 1 -1.1104 1.15072 4.41619 14.9579
420 1 -1.1104 4.10043 7.15167 17.7844
421 2 2.2208 2.50869 5.91895 19.3972
426 1 -1.1104 3.97536 4.45796 17.6457
428 1 -1.1104 4.05129 4.47469 14.994
403 1 -1.1104 1.00171 7.36902 14.9429
423 1 -1.1104 4.0007 7.30319 14.9862
429 1 -1.1104 3.97096 4.59937 20.6621
331 1 -1.1104 1.18983 1.53732 20.663
424 1 -1.1104 3.83013 7.51578 20.4534
356 2 2.2208 -0.307965 6.01017 22.1319
556 2 2.2208 2.39217 20.1867 27.404
413 1 -1.1104 1.0965 4.49279 20.3265
404 1 -1.1104 1.02272 7.33292 20.7268
350 1 -1.1104 4.11301 1.83725 20.4813
334 1 -1.1104 6.78178 1.64981 14.716
402 1 -1.1104 6.88289 7.51398 17.6497
409 1 -1.1104 7.07793 4.40227 17.7794
405 1 -1.1104 6.83359 7.31042 14.7958
327 1 -1.1104 6.99976 1.44156 17.5717
416 1 -1.1104 6.86523 4.40752 14.95
368 1 -1.1104 12.7398 1.62647 17.6277
371 1 -1.1104 12.5073 1.6427 14.9002
375 2 2.2208 11.1405 3.16918 19.0588
379 1 -1.1104 9.80003 1.72078 17.5681
383 1 -1.1104 9.72464 1.58358 14.752
386 2 2.2208 8.42338 3.07759 16.1759
435 2 2.2208 10.986 6.01632 16.3709
437 1 -1.1104 12.4953 7.32084 17.8096
438 1 -1.1104 12.2094 7.33718 14.9406
440 1 -1.1104 12.5806 4.41897 17.6581
443 1 -1.1104 12.2277 4.35052 14.9415
448 2 2.2208 8.31922 5.90587 19.3187
453 1 -1.1104 9.7132 4.60367 17.8883
455 1 -1.1104 9.69043 4.64753 14.7038
447 1 -1.1104 9.56455 7.45813 17.7401
450 1 -1.1104 9.54115 7.34342 15.0868
406 1 -1.1104 6.63412 7.44439 20.6087
439 1 -1.1104 12.4812 7.43278 20.6078
335 1 -1.1104 6.87921 1.78558 20.4904
417 1 -1.1104 6.66894 4.61694 20.6365
456 1 -1.1104 9.62806 4.57846 20.6662
384 1 -1.1104 9.78626 1.81186 20.365
444 1 -1.1104 12.2756 4.68532 20.4844
451 1 -1.1104 9.52987 7.39331 20.694
8907 2 2.2208 -0.310373 11.4905 16.3516
400 2 2.2208 5.34895 11.7426 16.4882
408 1 -1.1104 0.960823 10.2381 17.8799
411 2 2.2208 5.30522 8.82086 19.1479
414 1 -1.1104 1.05178 10.0093 15.0163
422 2 2.2208 2.46351 11.8857 19.1838
425 2 2.2208 2.57152 8.70916 16.3813
427 1 -1.1104 4.01133 10.2771 17.6375
430 1 -1.1104 3.80463 10.293 14.8955
463 1 -1.1104 1.28757 13.0844 17.8035
467 1 -1.1104 1.08536 13.2793 14.9653
483 1 -1.1104 3.98288 13.146 17.6805
486 1 -1.1104 3.86564 13.0864 14.8366
468 1 -1.1104 0.724735 13.051 20.549
415 1 -1.1104 0.85577 10.2544 20.584
322 2 2.2208 11.0158 8.80252 13.7821
465 1 -1.1104 6.59144 13.1423 17.8155
418 1 -1.1104 6.75119 10.2328 14.8041
471 1 -1.1104 6.76154 13.2202 14.8354
410 1 -1.1104 6.78552 10.3903 17.8263
436 2 2.2208 10.8329 11.6824 16.5007
441 1 -1.1104 12.317 10.1783 17.5125
442 2 2.2208 11.0323 8.86446 19.1564
445 1 -1.1104 12.5254 10.1608 14.6511
449 2 2.2208 8.00733 11.6362 19.2917
452 2 2.2208 8.27345 8.81571 16.3414
454 1 -1.1104 9.54382 10.2911 17.8028
457 1 -1.1104 9.59961 10.1582 14.9517
499 1 -1.1104 12.2759 12.796 17.8189
501 1 -1.1104 12.2791 12.8576 14.9352
510 1 -1.1104 9.47972 13.181 17.7297
513 1 -1.1104 9.5831 13.3618 14.8992
446 1 -1.1104 12.3325 10.2348 20.4386
419 1 -1.1104 6.75305 10.177 20.7286
502 1 -1.1104 12.3138 13.0637 20.8254
514 1 -1.1104 9.4007 12.8327 20.6224
8465 2 2.2208 2.56395 -5.27657 19.1337
477 2 2.2208 5.3739 14.4714 19.1793
360 2 2.2208 -0.24817 -2.56149 19.3588
490 2 2.2208 2.40168 14.4871 16.3886
462 2 2.2208 5.35856 17.3708 16.2898
464 1 -1.1104 0.778593 18.6309 17.8386
469 1 -1.1104 0.996881 18.7293 14.9484
475 1 -1.1104 0.89895 15.8904 17.6204
478 2 2.2208 5.23998 19.9416 19.1433
479 1 -1.1104 1.13145 16.021 15.0392
484 1 -1.1104 3.97692 18.6559 17.8856
485 2 2.2208 2.57769 17.2762 19.1684
488 1 -1.1104 3.88249 18.6437 15.1456
491 2 2.2208 2.3153 19.9924 16.3166
492 1 -1.1104 3.89014 15.885 17.8384
493 1 -1.1104 4.0126 15.8509 15.0149
395 2 2.2208 8.02584 19.9934 27.6333
473 1 -1.1104 6.52328 18.9102 15.0495
8905 2 2.2208 13.6131 17.2561 24.7755
470 1 -1.1104 1.01773 18.8907 20.5224
489 1 -1.1104 3.97262 18.5816 20.6907
480 1 -1.1104 0.969994 15.8001 20.5652
516 1 -1.1104 9.50659 18.438 20.5559
506 2 2.2208 11.0282 14.447 19.0063
476 1 -1.1104 6.73859 15.9839 17.6804
509 1 -1.1104 12.2825 15.7586 20.3606
466 1 -1.1104 6.79356 18.7394 18.0392
481 1 -1.1104 6.74215 16.1164 14.9334
517 2 2.2208 8.16114 14.6254 16.3059
498 2 2.2208 10.9891 17.4108 16.4865
500 1 -1.1104 12.2921 18.6996 17.7169
503 1 -1.1104 12.4014 18.6514 14.9285
505 1 -1.1104 12.3716 15.7325 17.7457
507 2 2.2208 10.9354 20.2446 18.9871
508 1 -1.1104 12.2756 15.6504 15.1263
511 1 -1.1104 9.60495 18.7878 17.5839
512 2 2.2208 8.02311 17.2653 19.273
515 1 -1.1104 9.37981 18.9496 14.9502
518 2 2.2208 8.12809 20.2246 16.4368
519 1 -1.1104 9.49575 15.9829 17.9945
520 1 -1.1104 9.56056 16.2438 15.2611
504 1 -1.1104 12.1835 19.1061 20.4937
474 1 -1.1104 6.65442 18.5805 20.8032
482 1 -1.1104 6.71247 15.8052 20.6309
521 1 -1.1104 9.77332 15.6086 20.7003
641 2 2.2208 8.1819 8.72376 27.7233
317 2 2.2208 11.0395 -2.59134 13.7622
17446 2 2.2208 -0.419927 -5.34639 22.1944
582 2 2.2208 8.4091 3.10237 27.6631
615 2 2.2208 5.39274 5.87085 27.6859
560 2 2.2208 -0.390752 0.266317 22.0551
8824 2 2.2208 -0.331585 17.2976 21.8757
8463 2 2.2208 -0.129356 -5.40168 16.4421
348 1 -1.1104 3.87179 -3.63308 20.4041
526 2 2.2208 5.40138 0.363363 22.0167
527 1 -1.1104 1.08243 -4.14712 23.528
531 1 -1.1104 1.10254 -4.04196 26.5058
535 1 -1.1104 1.28134 -1.20978 23.5044
537 2 2.2208 5.41196 -2.43404 24.9908
539 1 -1.1104 1.05453 -1.05701 26.2256
541 1 -1.1104 3.90652 -3.76656 23.4519
543 2 2.2208 2.54784 0.273935 25.0862
544 1 -1.1104 3.84717 -4.12616 26.1738
546 2 2.2208 2.58977 -2.4071 22.0833
548 1 -1.1104 4.14001 -0.955711 23.6105
549 1 -1.1104 4.00943 -1.24405 26.4904
359 2 2.2208 0.00172574 0.189591 16.5394
533 1 -1.1104 6.82122 -3.88549 26.4349
394 2 2.2208 10.8824 17.3463 27.6946
389 1 -1.1104 9.7467 -1.00805 20.6653
581 2 2.2208 8.17299 -2.58197 27.7827
393 2 2.2208 2.53859 14.4109 27.6628
357 2 2.2208 -0.319349 6.04562 16.471
536 1 -1.1104 6.83667 -0.943798 23.3266
540 1 -1.1104 6.86117 -0.90336 26.4224
370 1 -1.1104 12.4938 -3.91005 20.7397
529 1 -1.1104 6.64404 -3.9849 23.652
562 2 2.2208 11.0592 0.453496 22.016
563 1 -1.1104 12.3112 -4.01526 23.7782
565 1 -1.1104 12.5668 -3.90175 26.7065
567 1 -1.1104 12.302 -1.03587 23.4061
568 2 2.2208 11.0418 -2.65858 25.0843
570 1 -1.1104 12.3469 -1.17218 26.2531
571 1 -1.1104 9.48821 -4.19158 23.3933
573 2 2.2208 8.3546 0.272856 24.9337
574 1 -1.1104 9.58856 -4.01971 26.5457
576 2 2.2208 8.12436 -2.48797 22.0676
578 1 -1.1104 9.54578 -1.15995 23.5777
579 1 -1.1104 9.5007 -1.20272 26.4558
8828 2 2.2208 -0.314009 -2.52259 25.0955
618 2 2.2208 -0.258716 11.608 27.6583
8829 2 2.2208 -0.243599 2.96699 24.8526
8831 2 2.2208 -0.352081 17.2707 27.4633
390 2 2.2208 8.15174 14.3792 27.7295
528 1 -1.1104 1.3747 1.55843 23.5077
532 1 -1.1104 0.831077 1.6188 26.1544
538 2 2.2208 5.33966 3.2833 24.8871
542 1 -1.1104 3.97026 1.90322 23.5739
545 1 -1.1104 3.96888 1.91288 26.3049
547 2 2.2208 2.53062 3.02398 22.0364
591 2 2.2208 5.33397 6.04616 22.0716
593 1 -1.1104 1.04935 7.38769 23.3725
595 1 -1.1104 1.15093 7.41788 26.3742
597 1 -1.1104 0.911522 4.20606 23.2839
602 1 -1.1104 1.11792 4.57806 26.2957
606 1 -1.1104 4.03491 7.45098 23.2982
607 2 2.2208 2.44937 6.05572 24.8117
609 1 -1.1104 3.95771 7.20421 26.3272
611 1 -1.1104 3.7289 4.67142 23.3671
613 1 -1.1104 4.12203 4.67851 26.1669
534 1 -1.1104 6.80756 1.82697 26.3019
594 1 -1.1104 6.6818 7.50085 23.4222
561 1 -1.1104 12.3184 15.7808 23.5107
372 1 -1.1104 12.6148 1.96748 20.512
596 1 -1.1104 6.72634 7.38113 26.2976
604 1 -1.1104 6.9772 4.70929 26.3055
599 1 -1.1104 6.65863 4.6394 23.4344
530 1 -1.1104 6.70646 1.70554 23.4507
564 1 -1.1104 12.3905 1.80285 23.3742
566 1 -1.1104 12.2502 1.69182 26.2201
569 2 2.2208 11.2124 3.16367 24.8503
572 1 -1.1104 9.68337 1.72406 23.5001
575 1 -1.1104 9.70366 1.67272 26.2213
577 2 2.2208 8.03241 3.15661 22.0529
623 1 -1.1104 9.81242 4.56908 26.2799
625 1 -1.1104 9.61804 4.37824 23.4504
627 1 -1.1104 9.61537 7.54235 26.1536
629 2 2.2208 8.30014 6.07915 24.7919
630 2 2.2208 10.9792 6.05625 21.9508
634 1 -1.1104 12.3432 4.53915 23.3154
637 1 -1.1104 12.4375 4.49278 26.1665
633 1 -1.1104 12.291 7.64331 26.1674
632 1 -1.1104 12.3173 7.32552 23.423
639 1 -1.1104 9.60978 7.32405 23.3991
640 2 2.2208 10.95 5.98415 27.6111
9013 2 2.2208 -0.389655 17.3263 16.2624
9018 2 2.2208 -0.431608 11.6031 22.0642
9043 2 2.2208 -0.332803 8.71909 24.9298
431 1 -1.1104 3.85297 10.3198 20.503
487 1 -1.1104 3.69258 12.8136 20.8436
592 2 2.2208 5.12948 11.6537 22.3702
598 1 -1.1104 0.955844 10.3696 23.3942
601 2 2.2208 5.24867 8.64838 24.897
603 1 -1.1104 1.16443 10.0688 26.1368
608 2 2.2208 2.43409 11.5816 24.8131
610 2 2.2208 2.48029 8.67132 21.8445
612 1 -1.1104 3.74624 10.199 23.5462
614 1 -1.1104 4.09161 10.086 26.4806
361 1 -1.1104 3.88585 12.9633 26.2837
397 1 -1.1104 1.23399 13.1338 23.5324
648 1 -1.1104 4.0217 13.1031 23.5509
652 1 -1.1104 0.97142 12.9247 26.2399
472 1 -1.1104 6.66228 13.0318 20.5713
8230 2 2.2208 5.31377 -5.26793 22.2037
458 1 -1.1104 9.46934 10.2036 20.7323
643 1 -1.1104 9.39716 18.7445 26.1037
645 2 2.2208 8.08606 20.1382 22.001
647 1 -1.1104 6.67377 12.872 26.5626
600 1 -1.1104 6.78614 10.2567 23.4227
605 1 -1.1104 6.79792 9.96943 26.3225
432 1 -1.1104 6.77985 13.023 23.503
622 1 -1.1104 9.69272 10.3136 26.3481
624 1 -1.1104 9.61166 9.91645 23.3726
626 2 2.2208 8.08612 8.80936 21.9888
628 2 2.2208 8.14364 11.489 24.6797
631 2 2.2208 11.0262 11.5804 22.1551
635 1 -1.1104 12.5657 10.3106 23.2904
636 2 2.2208 11.1528 8.93862 24.8538
638 1 -1.1104 12.4759 10.5322 26.2917
553 1 -1.1104 12.2964 13.0429 23.6307
558 1 -1.1104 12.4057 13.0651 26.4322
589 1 -1.1104 9.39217 12.8869 23.3913
621 1 -1.1104 9.57488 13.1834 26.2192
644 2 2.2208 8.08928 14.3893 21.8901
580 2 2.2208 10.9753 0.203846 27.6877
552 2 2.2208 2.67674 3.28597 27.5899
617 2 2.2208 5.3182 11.4258 27.7799
8898 2 2.2208 13.674 20.0265 27.5902
588 1 -1.1104 12.2766 15.8311 26.3455
433 2 2.2208 5.27288 14.4066 24.9329
557 2 2.2208 2.42692 14.5432 22.078
494 1 -1.1104 3.9352 15.7909 20.5389
650 1 -1.1104 0.907025 18.6635 26.0785
646 1 -1.1104 3.93521 18.8136 23.5488
586 1 -1.1104 0.955008 15.9097 23.3757
585 1 -1.1104 3.74848 16.0043 23.4824
651 1 -1.1104 1.04991 15.8586 26.1158
584 2 2.2208 2.36868 20.1796 22.0051
363 1 -1.1104 3.84055 15.6756 26.246
364 2 2.2208 2.43937 17.1974 24.7873
365 1 -1.1104 3.64912 18.4394 26.2923
396 2 2.2208 5.27652 17.1418 22.0577
398 1 -1.1104 1.17962 18.5518 23.2311
459 2 2.2208 5.32431 20.1053 24.8558
583 2 2.2208 10.8779 14.4597 24.9539
554 1 -1.1104 12.358 18.5314 23.2823
392 1 -1.1104 9.30988 15.6711 23.5238
525 2 2.2208 10.8892 17.2368 21.9771
590 1 -1.1104 9.6415 18.5715 23.2251
559 1 -1.1104 12.165 18.6195 26.161
391 1 -1.1104 9.45958 15.8876 26.4753
619 2 2.2208 7.97047 17.0459 24.7017
460 1 -1.1104 6.6164 18.5126 23.3332
649 1 -1.1104 6.3739 15.9382 26.0638
620 1 -1.1104 6.74056 18.5839 26.209
358 1 -1.1104 6.55619 15.7556 23.5608
587 2 2.2208 10.8106 20.1117 24.8832
616 2 2.2208 2.46607 8.80468 27.677
320 2 2.2208 5.41687 8.79097 13.6882
550 2 2.2208 5.37996 0.218479 27.721
642 2 2.2208 10.9329 11.7336 27.7583
653 2 2.2208 5.19889 22.9001 5.10898
655 1 -1.1104 0.954414 24.595 0.843243
656 1 -1.1104 1.01474 24.0773 3.50414
659 2 2.2208 5.38614 25.9061 2.29347
662 1 -1.1104 3.82714 24.456 0.869249
663 2 2.2208 2.38037 22.9909 2.28494
665 1 -1.1104 3.90746 24.4879 3.7771
666 2 2.2208 2.16416 25.7131 4.88701
657 1 -1.1104 1.02313 21.5918 0.715829
660 1 -1.1104 1.01175 21.5872 3.55915
669 1 -1.1104 4.00018 21.6721 3.53522
667 1 -1.1104 3.7849 21.5981 0.640179
670 1 -1.1104 3.72957 27.4189 3.88768
661 1 -1.1104 1.08786 26.9572 3.30332
658 1 -1.1104 1.12881 27.3274 0.560754
797 1 -1.1104 0.775479 27.029 6.13929
802 1 -1.1104 3.64778 27.1291 6.70293
1106 2 2.2208 10.9109 37.1578 13.4108
1174 2 2.2208 8.35721 42.5454 -0.275501
801 1 -1.1104 3.62065 21.6498 6.27852
796 1 -1.1104 0.916196 21.7391 6.382
773 2 2.2208 -0.411963 40.0656 5.1494
676 1 -1.1104 6.51946 21.6044 1.05121
678 1 -1.1104 6.73119 21.4819 3.59979
675 1 -1.1104 6.75499 24.4635 3.58496
679 1 -1.1104 6.74083 27.4038 3.70017
674 1 -1.1104 6.52876 24.5389 0.754878
684 1 -1.1104 12.2732 21.2844 0.972107
694 1 -1.1104 9.27518 21.2474 0.90928
680 2 2.2208 11.0008 22.9366 4.99617
682 1 -1.1104 12.1912 24.3096 0.939079
683 1 -1.1104 12.372 24.2468 3.62279
686 2 2.2208 10.8963 25.6741 2.30745
687 1 -1.1104 12.3804 21.3157 3.86716
689 1 -1.1104 9.43409 24.2127 0.74594
690 2 2.2208 8.12371 22.8601 2.29176
692 1 -1.1104 9.44368 24.3132 3.56733
693 2 2.2208 7.95489 25.7941 5.1438
696 1 -1.1104 9.55111 21.4778 3.66343
685 1 -1.1104 12.3831 27.0556 1.05535
697 1 -1.1104 9.48682 27.1353 3.75886
688 1 -1.1104 12.1192 26.9506 3.97237
695 1 -1.1104 9.43613 27.2712 0.998433
827 1 -1.1104 12.3607 24.3848 6.53875
831 1 -1.1104 9.32616 21.5855 6.46643
795 1 -1.1104 6.44539 24.466 6.49909
799 1 -1.1104 6.37782 27.1023 6.67642
830 1 -1.1104 9.36867 24.4852 6.41939
828 1 -1.1104 12.0552 21.6624 6.48639
832 1 -1.1104 9.33785 27.1752 6.56308
829 1 -1.1104 12.2578 27.0845 6.5641
668 1 -1.1104 3.96013 27.0722 0.911604
654 2 2.2208 5.284 28.567 5.28059
664 2 2.2208 2.51275 28.5888 2.16489
702 1 -1.1104 1.14197 30.0687 0.745773
705 1 -1.1104 1.08254 29.8692 3.78714
708 1 -1.1104 1.303 32.8418 0.918713
709 2 2.2208 5.23792 31.4577 2.49594
711 1 -1.1104 0.968512 33.0859 3.52533
713 1 -1.1104 3.7719 29.8325 1.02899
716 1 -1.1104 3.87544 30.2319 3.77979
718 2 2.2208 2.54001 31.4522 5.09267
720 1 -1.1104 4.10587 32.6274 1.02974
721 1 -1.1104 4.13487 32.8698 3.84699
851 1 -1.1104 0.917216 30.0666 6.51452
9515 2 2.2208 13.6251 23.1432 13.4851
943 2 2.2208 -0.387796 45.7994 10.8478
857 1 -1.1104 3.90117 30.0321 6.55322
677 1 -1.1104 6.6699 27.212 0.877747
727 1 -1.1104 6.92316 32.8847 0.787638
725 1 -1.1104 6.61803 30.1076 0.911407
726 1 -1.1104 6.82092 29.9482 3.79402
712 1 -1.1104 7.00649 32.7485 3.70854
681 2 2.2208 10.7421 28.366 5.06862
691 2 2.2208 8.05348 28.6907 2.24747
729 1 -1.1104 12.4079 30.1824 0.876079
731 1 -1.1104 12.3682 29.9022 3.58648
733 1 -1.1104 12.3121 32.8212 0.678843
734 2 2.2208 11.0263 31.4658 2.25478
736 1 -1.1104 12.422 32.7573 3.60289
737 1 -1.1104 9.47868 30.1856 0.821709
740 1 -1.1104 9.53172 29.9631 3.64094
742 2 2.2208 8.27831 31.2695 5.25577
744 1 -1.1104 9.66761 32.8525 0.736007
745 1 -1.1104 9.72503 32.8483 3.60328
853 1 -1.1104 6.72629 29.807 6.49452
888 1 -1.1104 9.51618 29.9764 6.59943
885 1 -1.1104 12.4032 29.8119 6.48183
1173 2 2.2208 10.9352 42.679 13.6135
715 2 2.2208 2.75595 34.2363 2.4126
701 2 2.2208 5.491 34.327 5.14941
703 1 -1.1104 1.32957 35.7813 0.862568
706 1 -1.1104 1.19037 35.8857 3.95854
710 2 2.2208 5.45681 36.907 2.27469
714 1 -1.1104 4.00146 35.3879 0.94365
717 1 -1.1104 3.90885 35.6023 3.81535
719 2 2.2208 2.70027 37.104 5.16778
753 1 -1.1104 0.874362 38.6885 0.895108
758 1 -1.1104 1.11823 38.5524 3.63765
767 1 -1.1104 3.85398 38.3743 1.13088
769 1 -1.1104 3.99379 38.5426 3.92335
763 2 2.2208 2.54365 40.0167 2.41169