LAMMPS data file via write_data, version 29 Oct 2020, timestep = 101251

17704 atoms
3 atom types

-0.44294681783306233 27.782946817832695 xlo xhi
-5.516282293385987 333.5962822933979 ylo yhi
-0.4277918643665178 27.767791864366533 zlo zhi

Masses

1 15.9994
2 232.0381
3 131.293

Atoms # full

1 0 2 2.2208 5.639264451073777 0.014336897188192884 5.27407743038906 0 0 0
2 0 1 -1.1104 1.1708981402241292 -4.044605236665425 1.063398382270996 0 0 0
4 0 1 -1.1104 1.3711258129630033 -3.9764496450424747 3.9699592598684474 0 0 0
6 0 1 -1.1104 1.2439735145290096 -1.294673890663816 1.1140349648478014 0 0 0
7 0 2 2.2208 5.508955716939086 -2.6862760796012823 2.5282157271606818 0 0 0
9 0 1 -1.1104 1.4323491899152747 -1.1841970443526195 3.99796464119845 0 0 0
10 0 1 -1.1104 4.090554497172966 -4.037703182617799 1.2162666912982527 0 0 0
12 0 2 2.2208 2.660849802073457 0.09825484142735691 2.5580185134453197 0 0 0
13 0 1 -1.1104 4.215330557822756 -4.241580582788613 4.308732792831363 0 0 0
15 0 2 2.2208 2.839437966805005 -2.7335885285687347 5.405683379584476 0 0 0
17 0 1 -1.1104 4.001891385338877 -1.2112284654251062 0.9315901999128603 0 0 0
18 0 1 -1.1104 4.152317319865758 -1.5397533427773287 3.6093761278656573 0 0 0
8932 0 2 2.2208 -0.13471910054540362 -2.6795527275555235 2.5530810575404588 0 0 0
8933 0 2 2.2208 -0.08992961755279795 0.16181335049969048 5.477730985440794 0 0 0
24 0 1 -1.1104 4.025753660102306 -1.0858370567805233 6.5740939155018285 0 0 0
21 0 1 -1.1104 1.2907439613775746 -1.1972649121498424 7.057566738748554 0 0 0
19 0 1 -1.1104 1.5961969018870799 -3.9720664150392144 6.771439530636256 0 0 0
22 0 1 -1.1104 4.2381008326565315 -3.919214363179576 6.903115959234435 0 0 0
8936 0 2 2.2208 -0.0986875459603055 0.19132391938886578 -0.23011584847649644 0 0 0
328 0 2 2.2208 2.66935068159322 -2.6023973360453367 -0.3599678851753613 0 0 0
17185 0 2 2.2208 0.03753636945632094 -5.422158314191155 5.462427465194053 0 0 0
29 0 1 -1.1104 7.0720354792858675 -4.0509311516991025 3.6462212709195345 0 0 0
9069 0 2 2.2208 -0.23116813568035943 14.210262838429824 2.540161332015711 0 0 0
31 0 1 -1.1104 6.575873051625868 -1.2690079626839308 1.1052318837825028 0 0 0
27 0 1 -1.1104 6.902329123054336 -4.287834935333043 1.0494259479658885 0 0 0
32 0 1 -1.1104 7.064088108383017 -1.414656012151715 3.8107879317895854 0 0 0
33 0 2 2.2208 11.168796495881097 0.1808578357036666 5.266190084741768 0 0 0
34 0 1 -1.1104 12.650774617950013 -4.151025864929053 0.9189173761220014 0 0 0
36 0 1 -1.1104 12.69284492385789 -4.083942182673678 3.6071200877390464 0 0 0
38 0 1 -1.1104 12.47650574602311 -1.3535198196169838 1.0142137319351432 0 0 0
39 0 2 2.2208 11.123503653522077 -2.623216269215709 2.3259700029539863 0 0 0
41 0 1 -1.1104 12.597610208979608 -1.3430410949230702 3.801571355633771 0 0 0
42 0 1 -1.1104 9.699291561869279 -4.185843165714597 1.1224979664535448 0 0 0
44 0 2 2.2208 8.255111472531233 0.10847623473739157 2.342233117774876 0 0 0
45 0 1 -1.1104 9.957843614153994 -4.1993339822228455 3.920107426131356 0 0 0
47 0 2 2.2208 8.473735174873264 -2.682129998465427 5.073220240737579 0 0 0
49 0 1 -1.1104 9.577566777002598 -1.4729391078051128 1.0179760385284817 0 0 0
50 0 1 -1.1104 9.829702129445753 -1.0315520140711312 3.7827403380878204 0 0 0
51 0 1 -1.1104 7.160918563140139 -4.155392424740809 6.705088445633995 0 0 0
191 0 1 -1.1104 6.993000396140922 -1.4130623103890214 6.642516845659862 0 0 0
8496 0 2 2.2208 8.475559177403273 -5.390926865308856 8.190577802932062 0 0 0
3 0 1 -1.1104 1.4339285043000196 1.5135299596641538 1.0574631417253084 0 0 0
5 0 1 -1.1104 1.3039526779366954 1.641922792144969 3.808060444640647 0 0 0
8 0 2 2.2208 5.493775655771017 2.9557330873186016 2.469859078427435 0 0 0
11 0 1 -1.1104 3.9926170392720723 1.7421971232415303 1.0544424841960813 0 0 0
14 0 1 -1.1104 4.291634137947128 1.24077179767462 3.919831579988626 0 0 0
16 0 2 2.2208 2.7508676903497986 2.7591162486598773 5.286436989024237 0 0 0
57 0 2 2.2208 5.591473624063503 5.708706694062816 5.205329188964702 0 0 0
61 0 1 -1.1104 1.2799551746089564 4.5347060294226305 1.1824081902609163 0 0 0
66 0 1 -1.1104 1.2393471666092994 4.266720122573696 3.934004976739402 0 0 0
69 0 2 2.2208 2.59047605232088 5.802127248863232 2.6967079292962546 0 0 0
73 0 1 -1.1104 4.129300480777846 4.393300760482633 1.2775446121937155 0 0 0
76 0 1 -1.1104 4.079129148319549 4.177862740107171 3.7986984197971343 0 0 0
71 0 1 -1.1104 4.2002579591729265 7.252359526828761 3.8174902603518497 0 0 0
68 0 1 -1.1104 4.189093700714473 7.191620370150632 1.15337344514276 0 0 0
60 0 1 -1.1104 1.556947502805492 7.2570399453468974 4.13481448659019 0 0 0
59 0 1 -1.1104 1.3630521285145785 7.189710694335072 1.1546933344864545 0 0 0
8934 0 2 2.2208 -0.11805295080590372 3.007777369045861 2.6212560074072884 0 0 0
8351 0 2 2.2208 11.100496903484041 -5.467715293327712 5.185135591673667 0 0 0
8997 0 2 2.2208 0.12893184854298503 5.849420056435123 5.359297913370993 0 0 0
306 0 2 2.2208 8.229914906604094 16.957340276029473 8.201809623962703 0 0 0
322 0 1 -1.1104 6.810232800161683 15.77821040326395 12.437101063856252 0 0 0
20 0 1 -1.1104 1.385610547201991 1.6408219027533455 6.664270990817934 0 0 0
329 0 2 2.2208 8.192841906952264 -2.8900796005324008 -0.2564737690755178 0 0 0
88 0 1 -1.1104 6.999962608307844 4.330233217651538 0.8353482619242757 0 0 0
86 0 1 -1.1104 7.20909162204803 7.144532877252037 1.2610085557993786 0 0 0
30 0 1 -1.1104 6.83230873448966 1.4054269942635773 3.7929557260099505 0 0 0
90 0 1 -1.1104 6.951401504484512 4.4566701064328385 3.853507037806305 0 0 0
87 0 1 -1.1104 7.056665748216089 7.0438165185974 4.174326038531594 0 0 0
28 0 1 -1.1104 6.8176973522088495 1.5929650716029808 1.0235016038035416 0 0 0
35 0 1 -1.1104 12.43589851060596 1.3877064025780896 1.1681925873571777 0 0 0
37 0 1 -1.1104 12.522754488101874 1.6654095800116513 3.9541179436564584 0 0 0
40 0 2 2.2208 11.15602453131609 2.8388017865560853 2.559742929232862 0 0 0
43 0 1 -1.1104 9.523172179746785 1.3767059604472884 0.8039830508349481 0 0 0
46 0 1 -1.1104 9.477895119117015 1.8240921085302375 3.8332904526504574 0 0 0
48 0 2 2.2208 8.224294414043657 3.0287726945627265 5.273470410788258 0 0 0
92 0 2 2.2208 11.058707786082364 5.8091233993451095 5.153420686694983 0 0 0
96 0 1 -1.1104 12.447502958235102 4.2525767174516504 1.0546658407273806 0 0 0
99 0 1 -1.1104 12.563661232610768 4.378296838766324 3.9145400955959433 0 0 0
102 0 2 2.2208 8.458081090557737 5.686425121351781 2.409890359968907 0 0 0
104 0 1 -1.1104 9.697983299476032 7.343095312070914 4.001919315526601 0 0 0
106 0 1 -1.1104 9.57864846106431 4.121560513493209 0.9733730545949627 0 0 0
108 0 1 -1.1104 9.815795669279588 4.471849189791859 3.8524624202202586 0 0 0
101 0 1 -1.1104 9.933884440319632 7.185179364584926 1.086586021831083 0 0 0
95 0 1 -1.1104 12.477791390127905 7.314465765027796 3.5892900717940166 0 0 0
258 0 1 -1.1104 9.493867302726464 7.182813163150195 6.767582592258516 0 0 0
9251 0 2 2.2208 -0.1644107669659093 14.221807027999265 13.661981108971155 0 0 0
257 0 1 -1.1104 12.723462564389187 4.365903335904403 6.853081057222295 0 0 0
110 0 1 -1.1104 7.009450331080013 7.283646712042566 6.796110771438661 0 0 0
260 0 1 -1.1104 9.726628092011307 4.48843570528811 6.6630743854203915 0 0 0
199 0 1 -1.1104 12.466556383421368 1.5104953716651819 6.645561667320514 0 0 0
202 0 1 -1.1104 9.687350247854445 1.8058307637423465 6.522913508816243 0 0 0
8996 0 2 2.2208 -0.22231740320931104 11.407047926625093 -0.2288722527761362 0 0 0
8998 0 2 2.2208 -0.28905512976998904 8.65390533265149 2.509509799126675 0 0 0
58 0 2 2.2208 5.594387977646023 11.509016823514225 5.313878457235417 0 0 0
62 0 1 -1.1104 0.983609818164073 10.117782308309668 1.1679777460040435 0 0 0
65 0 2 2.2208 5.554824945743496 8.577017037440037 2.4794032637573924 0 0 0
67 0 1 -1.1104 1.3291781499665942 9.844981523659095 3.904956180273537 0 0 0
70 0 2 2.2208 2.70247115895115 11.41256903968649 2.5046209705904765 0 0 0
72 0 2 2.2208 2.888724373670422 8.551382372748217 5.325164626711232 0 0 0
74 0 1 -1.1104 3.9553598661115217 10.190120069551265 1.2201367963962442 0 0 0
77 0 1 -1.1104 4.225433354193935 10.065389209101115 3.9157278986574466 0 0 0
115 0 1 -1.1104 1.152656461818944 12.861355114409504 1.375956637521533 0 0 0
119 0 1 -1.1104 1.2960079423246489 12.900500943190927 3.9386432734478425 0 0 0
129 0 1 -1.1104 4.199293547944376 12.786621908373192 1.1598557017262934 0 0 0
134 0 1 -1.1104 4.122674409847035 12.906941119618336 3.875972316945575 0 0 0
8999 0 2 2.2208 -0.10468908869110045 11.510796006258335 5.302908184941029 0 0 0
94 0 1 -1.1104 12.43434819415209 7.19044282854894 0.7664732944717021 0 0 0
8484 0 2 2.2208 5.674975053168954 -5.333393044320869 10.929231570308248 0 0 0
121 0 1 -1.1104 6.99043429584388 12.816591346506998 4.004400003446035 0 0 0
91 0 1 -1.1104 6.997735577624516 9.9601048375372 3.7775484117993945 0 0 0
117 0 1 -1.1104 6.937116956655098 12.827057000270567 1.258429474578852 0 0 0
64 0 1 -1.1104 6.87643637800064 9.828412437008238 0.9764025347656771 0 0 0
93 0 2 2.2208 11.278522379876613 11.414958133124602 5.257572376829078 0 0 0
97 0 1 -1.1104 12.572107569300362 9.90745167353799 1.2347066235526516 0 0 0
98 0 2 2.2208 11.083524853530527 8.619091602275423 2.363048247245065 0 0 0
100 0 1 -1.1104 12.726691049927894 10.177804193397082 3.879094626509451 0 0 0
103 0 2 2.2208 8.295586355458324 11.309045915065582 2.469643248337094 0 0 0
105 0 2 2.2208 8.298155280325544 8.498406640339114 5.394546287389859 0 0 0
107 0 1 -1.1104 9.561536906167513 9.879392441993161 0.7842697998477915 0 0 0
109 0 1 -1.1104 9.897480760410037 10.2326615228905 3.6123790848464954 0 0 0
149 0 1 -1.1104 12.604277665375271 12.71498448584144 1.161465406761053 0 0 0
152 0 1 -1.1104 12.706612672367406 13.002358732303998 4.14807552770431 0 0 0
158 0 1 -1.1104 9.639901626644054 12.834294500584626 1.0574904792284239 0 0 0
162 0 1 -1.1104 9.77776523077331 12.88494778926349 3.900222304973535 0 0 0
8515 0 2 2.2208 8.492238150266207 -5.513378111657817 13.604109346007775 0 0 0
145 0 1 -1.1104 6.981383083130676 12.798769847077901 6.712069436966088 0 0 0
309 0 1 -1.1104 9.876270573686334 12.801008823156756 6.4581269144347155 0 0 0
9066 0 2 2.2208 -0.26736476419405797 17.04979167147425 -0.2903689907970714 0 0 0
9064 0 2 2.2208 -0.3302672449818186 17.160675409106624 5.322842317289254 0 0 0
125 0 2 2.2208 5.567603858517454 14.26721401902496 2.5430246382611643 0 0 0
136 0 2 2.2208 2.697621395696937 14.385140066304462 5.446021618849636 0 0 0
114 0 2 2.2208 5.463349976309807 17.086214352031273 5.293070116011197 0 0 0
116 0 1 -1.1104 1.3407786276372087 18.360112801252075 1.1860111474792556 0 0 0
120 0 1 -1.1104 1.3454740692349372 18.428289626338717 3.852061155359129 0 0 0
122 0 1 -1.1104 1.0644179626999817 15.56482015902264 1.068665899060195 0 0 0
126 0 2 2.2208 5.348946482194777 19.91966733739772 2.3210448654875524 0 0 0
127 0 1 -1.1104 0.9930766420544962 15.685195140567245 4.061280119237555 0 0 0
131 0 1 -1.1104 3.981239932173198 18.46496371646731 0.9196657326949187 0 0 0
133 0 2 2.2208 2.5043232894635454 16.897683347114604 2.588935403544624 0 0 0
135 0 1 -1.1104 4.265440991199022 18.327028836539895 3.711027904793502 0 0 0
137 0 2 2.2208 2.7717660391497736 19.897419417523423 5.220710425706441 0 0 0
138 0 1 -1.1104 3.9008625607818903 15.502460625943547 1.3068644024973932 0 0 0
140 0 1 -1.1104 4.039147394815319 15.55938463484831 4.191569170390983 0 0 0
9063 0 2 2.2208 -0.12827387780118546 19.87636588003741 2.518578238682327 0 0 0
9000 0 2 2.2208 -0.15008054950938926 5.849287335932499 -0.2906887108712508 0 0 0
113 0 2 2.2208 2.6675276719210013 19.774396292239018 -0.28292033444035203 0 0 0
111 0 2 2.2208 2.4931005006943154 14.13072130232918 -0.18844648470752173 0 0 0
147 0 2 2.2208 8.347436275247725 14.220108569007683 -0.2570338906322431 0 0 0
164 0 2 2.2208 8.275870048169997 14.216525081960114 5.352092329356685 0 0 0
124 0 1 -1.1104 6.736815492807529 15.68338725547058 6.689497035826334 0 0 0
141 0 1 -1.1104 6.917962680361385 18.3564401889864 1.1077365402756287 0 0 0
128 0 1 -1.1104 6.81125649889745 15.710049886079378 3.9775688453237725 0 0 0
142 0 1 -1.1104 6.707536852793562 18.3104949172853 4.059982615827553 0 0 0
143 0 1 -1.1104 6.786528911039994 15.673289520987506 1.1263263332265618 0 0 0
155 0 2 2.2208 11.183637357260707 14.198265380113485 2.5318170912617823 0 0 0
148 0 2 2.2208 11.115575677185848 17.02811269967822 5.210687278587758 0 0 0
150 0 1 -1.1104 12.457300906785363 18.406146775900822 1.1285753040154407 0 0 0
153 0 1 -1.1104 12.415163988828663 18.487217419019444 3.9379069329664422 0 0 0
154 0 1 -1.1104 12.416131665175905 15.656726066490588 1.3533249465705717 0 0 0
156 0 2 2.2208 11.069676752428938 19.892283964750295 2.4912831449561406 0 0 0
157 0 1 -1.1104 12.424944375298187 15.652408543008473 3.8769992034753296 0 0 0
159 0 1 -1.1104 9.601369566733304 18.32689548840466 0.995432090051058 0 0 0
161 0 2 2.2208 8.37799402779816 16.850862602092572 2.752282906523542 0 0 0
163 0 1 -1.1104 9.525592144890247 18.462671286209538 3.6874133555829465 0 0 0
165 0 2 2.2208 8.29512361838886 19.729173054131223 5.303722908948967 0 0 0
166 0 1 -1.1104 9.737514537777413 15.377119955491724 1.4107144431559497 0 0 0
168 0 1 -1.1104 9.826081450426885 15.58233951645065 4.091308991190432 0 0 0
167 0 1 -1.1104 9.638148539951914 15.456273399495771 6.8943080639226695 0 0 0
146 0 2 2.2208 11.119883847593192 17.062198171941102 -0.2837322684807519 0 0 0
82 0 2 2.2208 5.638893735375926 5.778511225319691 -0.36883330818980065 0 0 0
8495 0 2 2.2208 11.397757919091282 -5.441963590845246 10.74974238527637 0 0 0
9128 0 2 2.2208 0.13588631041603985 0.25481542548969405 10.894140099720882 0 0 0
9127 0 2 2.2208 -0.04341123419337325 -2.5966717658952354 8.128126328753655 0 0 0
169 0 2 2.2208 5.5774170427585865 0.13407656537081894 11.081664221743184 0 0 0
170 0 1 -1.1104 1.302592678590556 -4.087095713469443 12.196225763695953 0 0 0
172 0 1 -1.1104 1.3879680197069324 -4.130177350258966 9.478149526729565 0 0 0
174 0 1 -1.1104 1.3239330528495645 -1.3663831073659607 12.425750556106825 0 0 0
175 0 2 2.2208 5.530482168448319 -2.637763854718576 8.23033882284754 0 0 0
177 0 1 -1.1104 1.3347933464172066 -1.233408815682986 9.651355932048169 0 0 0
178 0 1 -1.1104 4.263355147456333 -4.101354567520964 12.527472784834307 0 0 0
180 0 2 2.2208 2.7553955671604156 0.14471073353766511 8.303647469695822 0 0 0
181 0 1 -1.1104 4.05505510686492 -4.213670792950529 9.636958538629312 0 0 0
183 0 2 2.2208 2.6999330410059876 -2.7419428463857334 11.047033505571754 0 0 0
185 0 1 -1.1104 4.119466344399134 -1.2955710447716817 12.240023660982592 0 0 0
186 0 1 -1.1104 4.221884388013172 -1.3049750802998783 9.626599324150883 0 0 0
8316 0 2 2.2208 5.609454555066783 -5.486159193884652 5.426996161581872 0 0 0
112 0 2 2.2208 5.485149406445226 16.837097568723134 -0.027408683920611954 0 0 0
203 0 1 -1.1104 9.907287018531557 -1.1141849749301753 6.749044331079995 0 0 0
201 0 1 -1.1104 9.794976688268136 -4.0591729674441765 6.509070310503469 0 0 0
198 0 1 -1.1104 12.547777885951986 -4.087576757918471 6.445990452434848 0 0 0
200 0 1 -1.1104 12.62550464347407 -1.0867700006455514 6.552833707795801 0 0 0
192 0 1 -1.1104 6.8113287680282255 -3.939433197484088 12.256178808364703 0 0 0
197 0 1 -1.1104 6.992830788141428 -1.2877325995887237 9.372640756570812 0 0 0
194 0 1 -1.1104 6.917157664401873 -4.143407641769727 9.40617529288158 0 0 0
196 0 1 -1.1104 7.024045368098166 -1.171921711451203 12.36321590581436 0 0 0
204 0 2 2.2208 11.297153671790115 0.1835815791391495 10.918118593971403 0 0 0
205 0 1 -1.1104 12.822651731649925 -3.8809015336720787 12.283815648338852 0 0 0
207 0 1 -1.1104 12.526585520663163 -4.063675660129184 9.349684884918352 0 0 0
209 0 1 -1.1104 12.715524924187193 -1.2059288476242085 12.324879576331947 0 0 0
210 0 2 2.2208 11.263686241088589 -2.5987361665279405 7.844014125944249 0 0 0
212 0 1 -1.1104 12.814282339731541 -1.4337639052053863 9.236947195634924 0 0 0
213 0 1 -1.1104 9.609063886934441 -4.071280242634892 12.233543662448417 0 0 0
215 0 2 2.2208 8.388311852485966 0.1253875397603199 8.080163850468068 0 0 0
216 0 1 -1.1104 9.690952870944791 -3.905406980180292 9.477285123911589 0 0 0
218 0 2 2.2208 8.257773348464573 -2.5870612807570357 10.909210539966953 0 0 0
220 0 1 -1.1104 9.92639599919752 -1.4294260338104698 12.203475878171496 0 0 0
221 0 1 -1.1104 9.76476637098074 -1.0184654746457562 9.48572210002173 0 0 0
80 0 1 -1.1104 4.385072711172454 7.1598341118156545 6.625414671956825 0 0 0
78 0 1 -1.1104 1.3974924620410245 7.449101674276831 6.729095536562674 0 0 0
9126 0 2 2.2208 0.10430607057138838 3.0323415189404357 8.05291658591936 0 0 0
23 0 1 -1.1104 4.225645158942364 1.480851008093923 6.791028144348769 0 0 0
9196 0 2 2.2208 -0.010851362333157012 5.829111834912443 10.814624523372089 0 0 0
81 0 1 -1.1104 4.291503329249622 4.318568897006449 6.861400376950275 0 0 0
79 0 1 -1.1104 1.347162725847977 4.389501819534622 6.753852838626598 0 0 0
171 0 1 -1.1104 1.5590730043000411 1.3862519219815097 12.428802126415768 0 0 0
173 0 1 -1.1104 1.654774695020703 1.6975373111032608 9.478265384278549 0 0 0
176 0 2 2.2208 5.6028478077601935 2.7444407892912457 8.257746615940645 0 0 0
179 0 1 -1.1104 4.34318000386758 1.5798478043522053 12.472114378036109 0 0 0
182 0 1 -1.1104 4.230906162334693 1.5191326611793803 9.636683989731269 0 0 0
184 0 2 2.2208 2.958159357315402 3.196975004416604 11.05215927615481 0 0 0
227 0 2 2.2208 5.739918979439897 5.856566474186987 11.006113475133196 0 0 0
229 0 1 -1.1104 1.4781862869516726 6.998096985105871 12.345955644761222 0 0 0
231 0 1 -1.1104 1.1819879957917374 4.366917401234817 12.699640166951426 0 0 0
234 0 1 -1.1104 1.2954188277429992 4.401923389907565 9.759452521312813 0 0 0
236 0 1 -1.1104 4.222614779598686 7.254891331245317 12.235595911656144 0 0 0
237 0 2 2.2208 2.914343371598619 5.895054971311681 8.030143666140539 0 0 0
241 0 1 -1.1104 4.33763530598718 4.528107572836913 12.289601804410152 0 0 0
243 0 1 -1.1104 4.125465441320364 4.36130511466514 9.625214123775658 0 0 0
239 0 1 -1.1104 4.148088779444089 7.37482601509858 9.487712689295632 0 0 0
230 0 1 -1.1104 1.3926426946107653 7.3176813844613156 9.430175092189288 0 0 0
55 0 2 2.2208 5.533292276335043 11.399824084822715 -0.25933138848621007 0 0 0
144 0 2 2.2208 8.441035291707122 19.8615600969098 -0.2967222825067013 0 0 0
248 0 1 -1.1104 6.919699791523867 4.189702475228716 6.860583579856328 0 0 0
256 0 1 -1.1104 12.519868983994751 7.236675549537663 6.567477801446393 0 0 0
52 0 1 -1.1104 6.9131552493015604 1.5633222546324352 6.805972381760315 0 0 0
251 0 1 -1.1104 6.982565886355251 4.54986635364518 12.325348030525387 0 0 0
253 0 1 -1.1104 7.008844098166977 4.103550620708407 9.805586393355892 0 0 0
193 0 1 -1.1104 6.89668407013432 1.6874776421051825 12.175360300765758 0 0 0
195 0 1 -1.1104 6.935645253118317 1.457085048452858 9.704827838853518 0 0 0
250 0 1 -1.1104 6.955450753015618 6.981563330646382 9.536541124773297 0 0 0
249 0 1 -1.1104 7.250013455417481 7.391180353407767 12.420316852310219 0 0 0
206 0 1 -1.1104 12.637508106249111 1.716741223191925 12.29153584675112 0 0 0
208 0 1 -1.1104 12.55585845818344 1.4923441563255226 9.476327091007928 0 0 0
211 0 2 2.2208 10.955167308077195 3.002604895885782 8.00273899060553 0 0 0
214 0 1 -1.1104 9.869472866643706 1.2172048173703374 12.313812552645363 0 0 0
217 0 1 -1.1104 9.761142730808029 1.5363400021484526 9.334063071640538 0 0 0
219 0 2 2.2208 8.409539778716335 2.899995242689645 11.087383936183855 0 0 0
259 0 1 -1.1104 9.75119623389739 4.2661565561602215 9.902946555156223 0 0 0
262 0 1 -1.1104 9.73698812402054 4.118866029740675 12.649926816217132 0 0 0
264 0 1 -1.1104 9.799403544668284 6.9359341201127185 9.746404152738178 0 0 0
266 0 2 2.2208 8.368902759118264 5.689061910882169 8.221979730250943 0 0 0
267 0 2 2.2208 11.433684094366017 5.755536865798218 11.000568819254179 0 0 0
271 0 1 -1.1104 12.571174432997136 4.428766876701042 12.402337100318197 0 0 0
274 0 1 -1.1104 12.630328126007248 4.506706601395368 9.464529215124418 0 0 0
276 0 1 -1.1104 9.968179255452933 7.069637799679177 12.309280747308046 0 0 0
269 0 1 -1.1104 12.757573113409393 7.209721410968058 12.223339004746023 0 0 0
270 0 1 -1.1104 12.746117300423322 7.269794812793941 9.61164869062533 0 0 0
318 0 2 2.2208 11.0729707455206 19.868639696335954 8.108148664278426 0 0 0
130 0 1 -1.1104 4.118276776073557 12.823177462727378 6.780020428967788 0 0 0
75 0 1 -1.1104 4.118038173054347 9.843226718466214 6.730932484921819 0 0 0
279 0 1 -1.1104 1.288525394956282 12.850328135182913 6.8070794765707525 0 0 0
9192 0 2 2.2208 -0.27907502625315916 11.431558743845343 10.955472458907698 0 0 0
63 0 1 -1.1104 1.3327589893488527 10.140400890071072 7.016915234708506 0 0 0
228 0 2 2.2208 5.529245069243528 11.351039290538457 10.79289274036386 0 0 0
232 0 1 -1.1104 1.313977228885839 10.06063824327175 12.50496663381284 0 0 0
233 0 2 2.2208 5.648361195648829 8.557726732405738 8.18765401901492 0 0 0
235 0 1 -1.1104 1.1026889883812476 10.223255616813944 9.781555365542722 0 0 0
238 0 2 2.2208 2.6754453831569056 11.405938755545963 8.222978257360769 0 0 0
240 0 2 2.2208 2.7688597400270485 8.71826723004398 11.013334762716763 0 0 0
242 0 1 -1.1104 3.8846765300630297 9.919608701853035 12.800550132473344 0 0 0
244 0 1 -1.1104 3.9792733295397036 10.066435842243319 9.754236071552006 0 0 0
283 0 1 -1.1104 4.04452369314822 12.754279084468717 12.347279767360833 0 0 0
289 0 1 -1.1104 1.2664255587767483 12.92235944933369 9.383544758518509 0 0 0
293 0 1 -1.1104 1.2266270485219821 13.013754578770337 12.303431027308788 0 0 0
299 0 1 -1.1104 4.055131292405197 12.769029046157128 9.499834108453845 0 0 0
9197 0 2 2.2208 0.01635653825222219 8.714590645174082 8.035565280202308 0 0 0
247 0 1 -1.1104 10.000624907099208 9.885778052939225 6.465523013947841 0 0 0
246 0 1 -1.1104 12.963178138635588 9.730231524993004 6.753964597500612 0 0 0
307 0 1 -1.1104 12.466989104984322 12.57280388687879 6.869958966986146 0 0 0
89 0 1 -1.1104 7.112219832193103 9.87700940653797 6.813574213085175 0 0 0
252 0 1 -1.1104 6.6728267321293195 9.959149057637632 12.208851745177402 0 0 0
321 0 1 -1.1104 6.881899702427878 13.037442575748265 12.57207652869229 0 0 0
254 0 1 -1.1104 6.895855142070231 10.109554650015207 9.543628259128276 0 0 0
320 0 1 -1.1104 6.840778884894396 12.893897992425957 9.361783492960294 0 0 0
255 0 1 -1.1104 9.585638859808467 9.734221686444924 9.33012298747175 0 0 0
261 0 1 -1.1104 9.863421892770695 10.041188550262607 12.293221247647686 0 0 0
263 0 2 2.2208 8.300170427566558 8.473530054328407 10.78192090893921 0 0 0
265 0 2 2.2208 8.44897055012775 11.52697298780361 8.089889410043767 0 0 0
268 0 2 2.2208 11.051692530795139 11.614346397778371 11.046530987294014 0 0 0
272 0 1 -1.1104 12.592282681780837 10.1465520002388 12.386327696528516 0 0 0
273 0 2 2.2208 11.16947792676836 8.635343042266333 8.183553126100726 0 0 0
275 0 1 -1.1104 12.616719448221094 10.147689644665984 9.541260283008754 0 0 0
281 0 1 -1.1104 9.79612425247859 12.660002154842347 9.465772490717319 0 0 0
312 0 1 -1.1104 12.45046242297035 12.687772992428794 12.767389355315519 0 0 0
314 0 1 -1.1104 12.692004559859152 12.876027378544844 9.626381895324803 0 0 0
323 0 1 -1.1104 9.483889842142224 12.831399885745476 12.205264761839176 0 0 0
296 0 1 -1.1104 1.4329600982821438 18.485656473333744 6.6120241319706 0 0 0
123 0 1 -1.1104 1.2553672186447515 15.682604282918668 6.751506757340961 0 0 0
132 0 1 -1.1104 4.029027929930644 18.49357299869768 6.658662322911512 0 0 0
139 0 1 -1.1104 4.074623137127878 15.785239281446179 6.912333723657664 0 0 0
303 0 2 2.2208 2.726703752415476 14.167920279786568 11.06749496043141 0 0 0
288 0 2 2.2208 5.533947594427034 19.91031977790146 8.139193246854669 0 0 0
287 0 1 -1.1104 1.131407741118728 15.859905523583743 9.550921933434552 0 0 0
286 0 1 -1.1104 1.3291656517762058 18.776624423481223 9.36347082590779 0 0 0
294 0 2 2.2208 5.443879175223487 17.257497433410744 11.028820131863947 0 0 0
292 0 1 -1.1104 1.066143416866459 18.493593704058767 12.532010465633277 0 0 0
282 0 1 -1.1104 4.0701034783724666 18.18109822396279 12.744810648968834 0 0 0
290 0 2 2.2208 5.476955664926097 14.312430725624633 8.224472916096952 0 0 0
297 0 2 2.2208 2.5814299606152336 17.117356126456766 8.070327561904795 0 0 0
295 0 1 -1.1104 3.904830008328497 18.29058327619688 9.66368936892261 0 0 0
298 0 1 -1.1104 4.043013832630826 15.580469347024772 9.62888541653375 0 0 0
300 0 1 -1.1104 1.245182777657252 15.82597225110406 12.76771600619916 0 0 0
301 0 1 -1.1104 4.029388012697526 15.563904609350407 12.531340591868215 0 0 0
302 0 2 2.2208 2.4015388091510634 19.937453613183305 10.956515772661492 0 0 0
9249 0 2 2.2208 -0.29140889226251865 20.075550604344482 8.202988052145308 0 0 0
9250 0 2 2.2208 -0.1327143421285607 17.18319325292661 10.945472058724556 0 0 0
9247 0 2 2.2208 -0.20557591674841919 14.333677122526137 7.985999840069237 0 0 0
285 0 1 -1.1104 6.842650437598721 15.607714993354461 9.690983842680028 0 0 0
310 0 1 -1.1104 9.574641189447611 18.39811887158107 9.462127835756004 0 0 0
308 0 1 -1.1104 12.511964016584935 15.686970438519065 6.769147453758163 0 0 0
118 0 1 -1.1104 6.821056018660083 18.628129415216808 6.8247408431883185 0 0 0
325 0 1 -1.1104 9.720420524299445 15.63700027407421 12.575537436636377 0 0 0
316 0 1 -1.1104 12.450367753983292 15.628657279516611 12.43432888463496 0 0 0
327 0 2 2.2208 8.159053075579665 14.260958524851828 11.017990527422366 0 0 0
151 0 1 -1.1104 12.580820285372704 18.590408632791615 6.934480029060235 0 0 0
313 0 1 -1.1104 12.76919461586862 18.421739366827307 12.557876483079632 0 0 0
311 0 2 2.2208 11.036741183676067 17.029895987377927 10.88984058340018 0 0 0
305 0 1 -1.1104 9.936644337524472 18.45095486010605 12.223321060336385 0 0 0
291 0 1 -1.1104 6.868361328277974 18.56502797518847 12.397838656938491 0 0 0
319 0 1 -1.1104 12.487649562189901 15.631567149849564 9.814744237134933 0 0 0
160 0 1 -1.1104 9.750857819512733 18.145271990193393 6.52134496882688 0 0 0
326 0 2 2.2208 8.298871206166396 19.847190923995925 11.078933137336206 0 0 0
315 0 1 -1.1104 12.504382730855664 18.59037803512561 9.509750030912672 0 0 0
317 0 2 2.2208 11.21114339998915 14.324554675439414 8.190704179634674 0 0 0
324 0 1 -1.1104 9.55795526197306 15.522255503774854 9.691833381204052 0 0 0
284 0 1 -1.1104 6.865373004063663 18.5787130037327 9.666385808306917 0 0 0
26 0 2 2.2208 2.6747452492059662 3.0171781676249614 -0.31483395737409975 0 0 0
278 0 2 2.2208 11.295475497192117 8.609531890707009 13.526139911725258 0 0 0
56 0 2 2.2208 2.7152476441963556 8.625383929155337 -0.15871578983918613 0 0 0
189 0 2 2.2208 5.700187525624524 3.0737142011821703 13.531649015872587 0 0 0
223 0 2 2.2208 11.23483632921208 -2.7257151031308364 13.533946383167505 0 0 0
8523 0 2 2.2208 11.176347137546415 -5.451285759396944 -0.3720830335826857 0 0 0
452 0 2 2.2208 11.193151372375324 19.808926104497388 13.666489381495357 0 0 0
330 0 2 2.2208 5.590107910180599 -0.0799358174218614 16.596936179323567 0 0 0
331 0 1 -1.1104 1.3778785290532363 -4.1891716635784055 17.81494328636644 0 0 0
333 0 1 -1.1104 1.2688559572543896 -4.172704066253461 15.151284498136542 0 0 0
335 0 1 -1.1104 1.566538653226046 -1.3069199147748214 18.28062072447765 0 0 0
336 0 2 2.2208 5.450933904100452 -2.5941279701047932 19.517782094855473 0 0 0
338 0 1 -1.1104 1.4906654916308983 -1.4014869741600369 15.46315357936756 0 0 0
339 0 1 -1.1104 4.12288100482784 -4.088324270289034 18.21872012284988 0 0 0
341 0 2 2.2208 2.6057036727032177 0.22856204939976033 19.474601698456652 0 0 0
342 0 1 -1.1104 4.221142130792957 -4.103362933130353 15.232753127345035 0 0 0
344 0 2 2.2208 2.86421631569086 -2.746397401516125 16.707972222852554 0 0 0
346 0 1 -1.1104 4.199255383350264 -1.077439777388852 17.917166227111558 0 0 0
347 0 1 -1.1104 4.255253703256128 -1.3679633166181875 15.046909230108144 0 0 0
9308 0 2 2.2208 -0.07199715006756476 -0.09168049446042838 16.64303592855783 0 0 0
54 0 2 2.2208 8.324396387168346 2.957235612263948 27.673693878016497 0 0 -1
9252 0 2 2.2208 -0.1490797179775852 -2.859535622846243 13.685620132135464 0 0 0
587 0 1 -1.1104 6.98029646292966 18.81742391095756 23.45713431449675 0 0 0
245 0 2 2.2208 8.520051706211078 5.771417165013456 13.837845170376156 0 0 0
9309 0 2 2.2208 -0.006510342351585996 -2.684913845237629 19.491519322491406 0 0 0
483 0 1 -1.1104 1.2599843040428769 -1.1456814501413888 20.912842028267484 0 0 0
635 0 2 2.2208 2.619533721742499 17.05118753942499 14.020345213013393 0 0 0
600 0 1 -1.1104 7.039246611837766 15.67008859526872 26.554619519283822 0 0 0
350 0 1 -1.1104 6.924894416316844 -4.399738341921948 15.22221110745826 0 0 0
353 0 1 -1.1104 7.025169838705806 -1.4716226760141418 15.177362273498696 0 0 0
348 0 1 -1.1104 6.782313924220093 -4.250352024004217 18.203068905536743 0 0 0
352 0 1 -1.1104 7.2609619161078545 -1.5084681539866418 18.259251944743834 0 0 0
355 0 2 2.2208 11.245211963551029 -0.060409410576407654 16.6505371746137 0 0 0
356 0 1 -1.1104 12.474255252973482 -4.031052740810363 17.944470608129965 0 0 0
358 0 1 -1.1104 12.363925663609772 -4.272128108090357 14.743322379518863 0 0 0
362 0 1 -1.1104 12.511941683932351 -1.1038097194500274 18.01477044253694 0 0 0
363 0 2 2.2208 11.114893949989145 -2.8431415558248525 19.50028872995099 0 0 0
365 0 1 -1.1104 12.631784414135577 -1.5740289409772112 15.336839348563196 0 0 0
367 0 1 -1.1104 9.72869196187501 -4.104111781450173 18.077794011976057 0 0 0
369 0 2 2.2208 8.682280744160941 0.15677740100988813 19.353112465877164 0 0 0
370 0 1 -1.1104 9.738244062212344 -4.114628661717643 15.062532829625662 0 0 0
374 0 2 2.2208 8.485775068171048 -2.913570621267033 16.58453232985823 0 0 0
376 0 1 -1.1104 9.776460645426383 -1.4558298379972332 17.926072996197238 0 0 0
377 0 1 -1.1104 9.920440425852233 -1.3905699895467152 15.24404300319107 0 0 0
366 0 1 -1.1104 12.757962014208168 -1.280310563672944 20.635460190171095 0 0 0
378 0 1 -1.1104 9.999118959068973 -1.0070475068687006 20.720758651880985 0 0 0
8642 0 2 2.2208 2.705879272098791 -5.516180874720456 13.756917070619435 0 0 0