LAMMPS (29 Oct 2020)
OMP_NUM_THREADS environment is not set. Defaulting to 1 thread. (../comm.cpp:94)
  using 1 OpenMP thread(s) per MPI task
OMP_NUM_THREADS environment is not set. Defaulting to 1 thread. (../comm.cpp:94)
  using 1 OpenMP thread(s) per MPI task
Reading data file ...
  orthogonal box = (-0.45111472 -5.2236996 -0.45220184) to (27.791115 333.30370 27.792202)
  2 by 13 by 2 MPI processor grid
  reading atoms ...
  17700 atoms
  reading velocities ...
  17700 velocities
Finding 1-2 1-3 1-4 neighbors ...
  special bond factors lj:    0.0      0.0      0.0     
  special bond factors coul:  0.0      0.0      0.0     
     0 = max # of 1-2 neighbors
     0 = max # of 1-3 neighbors
     0 = max # of 1-4 neighbors
     1 = max # of special neighbors
  special bonds CPU = 0.003 seconds
  read_data CPU = 0.080 seconds
WARNING: 10 of 1000 force values in table Kr-Kr are inconsistent with -dE/dr.
  Should only be flagged at inflection points (../pair_table.cpp:461)
WARNING: 1 of 1000 force values in table Kr-O are inconsistent with -dE/dr.
  Should only be flagged at inflection points (../pair_table.cpp:461)
WARNING: 1 of 1000 force values in table Kr-Th are inconsistent with -dE/dr.
  Should only be flagged at inflection points (../pair_table.cpp:461)
Setting atom values ...
  11760 settings made for charge
Setting atom values ...
  5880 settings made for charge
Setting atom values ...
  60 settings made for charge
PPPM initialization ...
  using 12-bit tables for long-range coulomb (../kspace.cpp:328)
  G vector (1/distance) = 0.2984794
  grid = 40 240 40
  stencil order = 5
  estimated absolute RMS force accuracy = 0.00015858754
  estimated relative force accuracy = 1.1013295e-05
  using single precision MKL FFT
  3d grid and FFT values/proc = 18225 7600
Neighbor list info ...
  update every 1 steps, delay 0 steps, check yes
  max neighbors/atom: 2000, page size: 100000
  master list distance cutoff = 13
  ghost atom cutoff = 13
  binsize = 6.5, bins = 5 53 5
  3 neighbor lists, perpetual/occasional/extra = 3 0 0
  (1) pair coul/long, perpetual
      attributes: half, newton on
      pair build: half/bin/newton
      stencil: half/bin/3d/newton
      bin: standard
  (2) pair eam/alloy, perpetual, skip from (1)
      attributes: half, newton on
      pair build: skip
      stencil: none
      bin: none
  (3) pair table, perpetual, skip from (1)
      attributes: half, newton on
      pair build: skip
      stencil: none
      bin: none
Setting up Verlet run ...
  Unit style    : metal
  Current step  : 0
  Time step     : 0.001
Per MPI rank memory allocation (min/avg/max) = 9.237 | 9.954 | 10.03 Mbytes
Step Temp E_pair E_mol TotEng Press 
       0         1200   -228858.74            0   -226113.41   -285.02843 
   50000    1196.4301   -228859.99            0   -226122.83   -106.24195 
Loop time of 365.815 on 52 procs for 50000 steps with 17700 atoms

Performance: 11.809 ns/day, 2.032 hours/ns, 136.681 timesteps/s
99.8% CPU use with 52 MPI tasks x 1 OpenMP threads

MPI task timing breakdown:
Section |  min time  |  avg time  |  max time  |%varavg| %total
---------------------------------------------------------------
Pair    | 252.48     | 261.98     | 271.95     |  25.5 | 71.62
Bond    | 0.004848   | 0.0067803  | 0.010933   |   1.4 |  0.00
Kspace  | 76.929     | 86.271     | 94.894     |  41.1 | 23.58
Neigh   | 3.4571     | 3.6477     | 3.9032     |   5.9 |  1.00
Comm    | 10.126     | 11.304     | 13.06      |  20.2 |  3.09
Output  | 5.4754e-05 | 6.0135e-05 | 0.00027666 |   0.0 |  0.00
Modify  | 1.1578     | 1.675      | 2.9705     |  51.2 |  0.46
Other   |            | 0.9295     |            |       |  0.25

Nlocal:        340.385 ave         363 max         325 min
Histogram: 3 14 4 6 7 8 2 4 1 3
Nghost:        5428.04 ave        5581 max        5269 min
Histogram: 6 2 2 5 6 18 1 3 5 4
Neighs:       104510.0 ave      113449 max       98183 min
Histogram: 7 4 8 7 7 8 2 5 1 3

Total # of neighbors = 5434515
Ave neighs/atom = 307.03475
Ave special neighs/atom = 0.0000000
Neighbor list builds = 1210
Dangerous builds = 0
11760 atoms in group oxygen
PPPM initialization ...
  using 12-bit tables for long-range coulomb (../kspace.cpp:328)
  G vector (1/distance) = 0.2984794
  grid = 40 240 40
  stencil order = 5
  estimated absolute RMS force accuracy = 0.00015858754
  estimated relative force accuracy = 1.1013295e-05
  using single precision MKL FFT
  3d grid and FFT values/proc = 18225 7600
Neighbor list info ...
  update every 1 steps, delay 0 steps, check yes
  max neighbors/atom: 2000, page size: 100000
  master list distance cutoff = 13
  ghost atom cutoff = 13
  binsize = 6.5, bins = 5 53 5
  3 neighbor lists, perpetual/occasional/extra = 3 0 0
  (1) pair coul/long, perpetual
      attributes: half, newton on
      pair build: half/bin/newton
      stencil: half/bin/3d/newton
      bin: standard
  (2) pair eam/alloy, perpetual, skip from (1)
      attributes: half, newton on
      pair build: skip
      stencil: none
      bin: none
  (3) pair table, perpetual, skip from (1)
      attributes: half, newton on
      pair build: skip
      stencil: none
      bin: none
Setting up Verlet run ...
  Unit style    : metal
  Current step  : 0
  Time step     : 0.001
Per MPI rank memory allocation (min/avg/max) = 9.513 | 10.20 | 10.27 Mbytes
Step f_2 Temp v_Tdiff v_deltaT 
       0            0    1196.4301            0            0 
  100000    1289.4725    1190.3719  0.050142561    582.15048 
  200000    2506.5093    1202.5406  0.058345411     677.3848 
  300000      3729.18    1200.3476  0.058504172    679.22801 
  400000    4964.8071    1199.0356  0.058670024    681.15353 
  500000    6202.5826    1198.2984  0.059343209    688.96915 
  600000    7418.3819    1193.0406  0.058953992    684.45038 
  700000    8646.6364    1199.8484  0.059399764    689.62575 
  800000    9865.8701    1198.5868  0.059897885    695.40889 
  900000    11088.661    1193.8753  0.057765789    670.65544 
 1000000    12310.596    1209.4648  0.059496547    690.74939 
Loop time of 7255.6 on 52 procs for 1000000 steps with 17700 atoms

Performance: 11.908 ns/day, 2.015 hours/ns, 137.824 timesteps/s
99.8% CPU use with 52 MPI tasks x 1 OpenMP threads

MPI task timing breakdown:
Section |  min time  |  avg time  |  max time  |%varavg| %total
---------------------------------------------------------------
Pair    | 5080.9     | 5221       | 5407.4     |  89.9 | 71.96
Bond    | 0.10326    | 0.1383     | 0.1835     |   5.4 |  0.00
Kspace  | 1524.9     | 1693.1     | 1840       | 147.8 | 23.34
Neigh   | 77.843     | 82.303     | 87.808     |  26.5 |  1.13
Comm    | 198.62     | 218.63     | 247.23     |  81.3 |  3.01
Output  | 0.0011592  | 0.0012257  | 0.0024589  |   0.5 |  0.00
Modify  | 6.8653     | 7.6254     | 9.2503     |  17.1 |  0.11
Other   |            | 32.77      |            |       |  0.45

Nlocal:        340.385 ave         360 max         322 min
Histogram: 3 3 4 11 7 9 6 2 3 4
Nghost:        5483.60 ave        5617 max        5370 min
Histogram: 3 12 10 3 0 5 3 5 3 8
Neighs:       104533.0 ave      112338 max       95964 min
Histogram: 2 4 6 5 3 13 7 2 6 4

Total # of neighbors = 5435701
Ave neighs/atom = 307.10175
Ave special neighs/atom = 0.0000000
Neighbor list builds = 27564
Dangerous builds = 0
Total wall time: 2:07:02
