LAMMPS data file via write_data, version 29 Oct 2020, timestep = 100111

17760 atoms
3 atom types

-0.45747551799849745 27.797475517998805 xlo xhi
-5.5864270668259035 333.66642706682825 ylo yhi
-0.44012078022654133 27.780120780226234 zlo zhi

Masses

1 15.9994
2 232.0381
3 83.798

Atoms # full

1 0 2 2.2208 5.0551896054362215 0.03107185751877759 4.987135137398955 0 0 0
2 0 1 -1.1104 0.8741321394642958 -4.0721357678080805 0.8743869749974682 0 0 0
6 0 1 -1.1104 0.5339609129989864 -4.187350589317089 3.784029769931953 0 0 0
10 0 1 -1.1104 0.7199099390410659 -1.3784119536103245 0.7567383432267473 0 0 0
12 0 2 2.2208 5.092598673165097 -2.6475259597705634 2.2381999844405094 0 0 0
14 0 1 -1.1104 0.9394291812518346 -1.303373998020448 3.6649949254297867 0 0 0
16 0 1 -1.1104 3.7136442016715043 -4.039217881340836 1.1041890487743506 0 0 0
18 0 2 2.2208 2.448031032814449 -0.11146705525334356 2.385896198753423 0 0 0
19 0 1 -1.1104 3.6544126238308325 -4.35624558367317 3.984825000587401 0 0 0
21 0 2 2.2208 2.1271814745455457 -2.8665653623151957 5.112681452530192 0 0 0
23 0 1 -1.1104 3.7366251927944076 -1.3111529726569042 0.7779150611403327 0 0 0
24 0 1 -1.1104 3.674323365894142 -1.772177325272412 3.658852091607378 0 0 0
170 0 1 -1.1104 0.7868157890619645 -1.4133072512003706 6.4313901758632905 0 0 0
174 0 1 -1.1104 3.4977940050642164 -1.4101713922727632 6.400442995783058 0 0 0
4 0 1 -1.1104 6.519826796989785 -4.039395451207118 0.8335214243134181 0 0 0
11 0 1 -1.1104 6.479719057704348 -1.2220189122096234 0.8351219094940376 0 0 0
15 0 1 -1.1104 6.362042172435692 -1.2713508939817264 3.485654851625965 0 0 0
8 0 1 -1.1104 6.643255816912967 -4.185761566898052 3.962933335888577 0 0 0
8104 0 2 2.2208 5.146743462279854 -5.41842857620623 5.0980216832309635 0 0 0
172 0 1 -1.1104 3.5315784078873604 -3.9667219454634286 6.660855749001044 0 0 0
168 0 1 -1.1104 6.502791438044516 -4.19256176134425 6.715040726454859 0 0 0
8677 0 2 2.2208 13.667862244167331 -2.640623219062689 4.984175161368371 0 0 0
31 0 2 2.2208 10.720914986388465 0.2821890248073423 5.00558542498255 0 0 0
32 0 1 -1.1104 12.159169905186298 -4.172371014140184 0.8292680185132953 0 0 0
34 0 1 -1.1104 12.254923102336452 -4.118747151256904 3.6775532657984535 0 0 0
36 0 1 -1.1104 12.366205336024024 -1.3170502581827366 0.6756081827217745 0 0 0
37 0 2 2.2208 10.771585553132272 -2.7748301710157617 2.339331800368061 0 0 0
39 0 1 -1.1104 12.166620383301623 -1.2613235015538922 3.5864482831935582 0 0 0
40 0 1 -1.1104 9.371915662547567 -4.374489976920429 0.9668744959672192 0 0 0
42 0 2 2.2208 8.002512903656141 0.06709817272393229 2.1848558812715315 0 0 0
43 0 1 -1.1104 9.477135964442082 -4.0446047075461795 3.647718800031726 0 0 0
45 0 2 2.2208 7.903400363032411 -2.8393557227103123 5.198335368511766 0 0 0
47 0 1 -1.1104 9.573641837444667 -1.3584269561169418 0.9708825182938882 0 0 0
48 0 1 -1.1104 9.325792519421341 -1.3712344358400976 3.6895839627011484 0 0 0
208 0 1 -1.1104 9.192296157678676 -4.1085594864498125 6.595826309244483 0 0 0
210 0 1 -1.1104 9.314958789549461 -1.2436644725452235 6.436848918348356 0 0 0
205 0 1 -1.1104 12.130274536301398 -3.864327172894435 6.4572285371185005 0 0 0
29 0 2 2.2208 -0.4494841189681898 5.76007068856297 10.825958219581489 0 0 0
8651 0 2 2.2208 13.438241916010606 2.8759783795051974 10.805124105510687 0 0 0
8711 0 2 2.2208 13.558625707329853 -0.04153116167147387 2.141914174951476 0 0 0
207 0 1 -1.1104 12.439267123203624 -0.9131180783910692 6.436853422456735 0 0 0
8103 0 2 2.2208 2.219689990330608 -5.414632634032299 2.5179739370059373 0 0 0
8110 0 2 2.2208 10.636265429184547 -5.479443507505674 10.654571594197225 0 0 0
7 0 1 -1.1104 0.9541067972319073 1.4174477788366109 3.6592017787354325 0 0 0
3 0 1 -1.1104 1.0036434590243168 1.358563782680271 0.9003853249930885 0 0 0
13 0 2 2.2208 5.23381814449114 2.939878023210386 2.2412903510917426 0 0 0
17 0 1 -1.1104 3.8645769255706184 1.4993118767997204 0.9193264012606894 0 0 0
20 0 1 -1.1104 3.90296160158265 1.3959564757751952 3.5920999534661697 0 0 0
22 0 2 2.2208 2.169616768308143 2.8637414246287007 5.0675974136289765 0 0 0
54 0 2 2.2208 5.1100243761315065 5.73840936475859 5.0164823462520625 0 0 0
56 0 1 -1.1104 0.8713473552241071 7.2160275548529516 0.9145038646936188 0 0 0
60 0 1 -1.1104 0.9243414380381372 4.320366777421787 0.9444535499246476 0 0 0
67 0 1 -1.1104 0.9587889325707253 4.371145567775487 3.74562415440694 0 0 0
71 0 1 -1.1104 3.5871921984579807 7.097635463778917 0.9798826707040448 0 0 0
72 0 2 2.2208 2.2408268971828296 5.696552389185454 2.3686025220939824 0 0 0
76 0 1 -1.1104 3.890067231186609 4.199278950525681 0.9665565479105167 0 0 0
79 0 1 -1.1104 3.684773325675346 4.359456939861315 3.4944804863640244 0 0 0
58 0 1 -1.1104 0.8953510551840868 7.0514228871687 3.6930840837247043 0 0 0
74 0 1 -1.1104 3.7056346581923476 7.198840628059585 3.5610192683358237 0 0 0
239 0 1 -1.1104 3.8073447292410076 4.16246395954588 6.29216499788683 0 0 0
57 0 1 -1.1104 6.360208323701581 7.128936265046879 0.869651417733446 0 0 0
59 0 1 -1.1104 6.435611721953389 6.992255387363374 3.743729456711639 0 0 0
63 0 1 -1.1104 6.6393820339304925 4.298123788210626 0.7179021596735361 0 0 0
5 0 1 -1.1104 6.715683112345227 1.456745780648474 0.8075626038954128 0 0 0
9 0 1 -1.1104 6.488140902363096 1.4818017205630536 3.540027896676809 0 0 0
69 0 1 -1.1104 6.66342120568743 4.307653374048865 3.571066141631266 0 0 0
173 0 1 -1.1104 3.6641355998434446 1.4041561456653966 6.445257564209548 0 0 0
169 0 1 -1.1104 6.559109821307848 1.4915144178401514 6.470047345876029 0 0 0
167 0 1 -1.1104 0.9832112796424364 1.5695328876798378 6.533464380146339 0 0 0
236 0 1 -1.1104 0.9136098352744663 4.41539251858184 6.518956052006767 0 0 0
237 0 1 -1.1104 6.35289077311683 4.522618137408549 6.28974747737889 0 0 0
238 0 1 -1.1104 3.7458786800978316 7.30698125024875 6.520182534991563 0 0 0
235 0 1 -1.1104 6.737045620327806 7.324034520465112 6.745354377100067 0 0 0
8107 0 2 2.2208 2.1949972191876332 -5.410620408233391 7.82811014896544 0 0 0
33 0 1 -1.1104 12.231269603263438 1.4805230264611131 0.7317555538766058 0 0 0
35 0 1 -1.1104 12.207293243261995 1.3714404449170956 3.759654069021351 0 0 0
38 0 2 2.2208 10.60561763147035 2.858078124655728 2.0409243977585154 0 0 0
41 0 1 -1.1104 9.619362776214757 1.5368277433748985 0.7910544349730445 0 0 0
44 0 1 -1.1104 9.421852523714737 1.4805449504725128 3.5414133123658105 0 0 0
46 0 2 2.2208 8.083242607679084 2.8859916111067885 4.911196095448623 0 0 0
84 0 2 2.2208 10.71955106757799 5.76885476160978 4.973269182830394 0 0 0
88 0 1 -1.1104 12.19559377901722 4.253815365230497 0.8435716976801853 0 0 0
92 0 1 -1.1104 12.222069981953517 4.403344365393883 3.809930203423908 0 0 0
94 0 1 -1.1104 9.343126315781848 7.122879403966853 0.7435145278276469 0 0 0
95 0 2 2.2208 7.886054588337695 5.70429192054124 2.150331280669239 0 0 0
99 0 1 -1.1104 9.409357008881873 4.339507622832477 0.7164816773389748 0 0 0
102 0 1 -1.1104 9.46392706234189 4.193276356702585 3.5664934962929853 0 0 0
97 0 1 -1.1104 9.141175714244511 6.992127474228048 3.691150904641138 0 0 0
87 0 1 -1.1104 12.2008877415526 7.098638410134297 3.6340764043978893 0 0 0
86 0 1 -1.1104 12.168758149735696 6.9714897908950295 0.9948615890614364 0 0 0
265 0 1 -1.1104 12.277508261735555 7.198167645116587 6.4558720234920965 0 0 0
269 0 1 -1.1104 9.119733042796723 4.389027906995231 6.2732017419709445 0 0 0
266 0 1 -1.1104 12.12752483488303 4.437624213974286 6.56812100315882 0 0 0
209 0 1 -1.1104 9.360962452693713 1.602129868548727 6.358484762694913 0 0 0
8516 0 2 2.2208 13.534007129001079 2.9573025628213445 5.287199793535008 0 0 0
267 0 1 -1.1104 9.62308784796311 7.057721420497211 6.674150375180733 0 0 0
206 0 1 -1.1104 12.187842984385735 1.726729506534887 6.551408967844996 0 0 0
8543 0 2 2.2208 13.597795212393804 5.577847470425359 2.345209657304257 0 0 0
8825 0 2 2.2208 13.612753653610218 2.76792293489283 -0.3488537725605808 0 0 0
55 0 2 2.2208 5.487754236585602 11.461943662049825 5.065405593665702 0 0 0
61 0 1 -1.1104 0.6789383522207507 9.874189243729187 0.8818034631458675 0 0 0
66 0 2 2.2208 4.952091237244223 8.496849288667216 2.444483600993056 0 0 0
68 0 1 -1.1104 0.907049582865959 10.08038910515741 3.6351514931496434 0 0 0
73 0 2 2.2208 2.364124031003217 11.543987990576007 2.2791526874103147 0 0 0
75 0 2 2.2208 2.2766409619374404 8.637996280907807 5.172637314994511 0 0 0
77 0 1 -1.1104 3.5633480976924297 9.945045895815607 1.0021787883911453 0 0 0
80 0 1 -1.1104 3.6962807321269957 9.993161238205044 3.7987317744584224 0 0 0
107 0 1 -1.1104 0.9851933844030917 12.817915303000994 0.9189160351081445 0 0 0
113 0 1 -1.1104 1.0505943600622574 13.062820881555194 3.7695690698770514 0 0 0
123 0 1 -1.1104 3.7370665118655944 12.799290612035708 0.9327629079699697 0 0 0
128 0 1 -1.1104 3.9141583150683683 12.923527939780806 3.6133922991001826 0 0 0
64 0 1 -1.1104 6.4817845538330525 10.150627343735136 1.0064649686442213 0 0 0
110 0 1 -1.1104 6.79537899884208 12.709449891272243 0.8749790818068397 0 0 0
115 0 1 -1.1104 6.650158203120664 12.756648150164178 3.6431681189490877 0 0 0
108 0 1 -1.1104 1.1231670960528102 12.903979202335217 6.554514562585101 0 0 0
65 0 1 -1.1104 6.56700251949089 10.003625849892224 6.618224199938632 0 0 0
313 0 2 2.2208 8.040240688571144 16.922351389281094 7.896057185610641 0 0 0
78 0 1 -1.1104 3.701349315956255 10.043654712210705 6.577227034129858 0 0 0
8122 0 2 2.2208 2.2982339394817544 -5.527573672960264 13.646630727891006 0 0 0
70 0 1 -1.1104 6.704197227523257 9.855411987852419 3.7552277711103956 0 0 0
85 0 2 2.2208 10.727852879099293 11.386409189066281 5.110030231968539 0 0 0
89 0 1 -1.1104 12.06674531812693 9.994861312270734 0.6734249166925775 0 0 0
91 0 2 2.2208 10.732123728694662 8.529780492771254 2.131194819754591 0 0 0
93 0 1 -1.1104 12.105166134549217 9.818480918041983 3.577500650156268 0 0 0
96 0 2 2.2208 8.06491459524136 11.368620932090767 2.374577644392317 0 0 0
98 0 2 2.2208 8.132043252539022 8.471343174124215 5.003378705577736 0 0 0
100 0 1 -1.1104 9.233518810434528 9.697763077783513 0.660745837654156 0 0 0
103 0 1 -1.1104 9.562151763224039 9.949408119022378 3.6174451415316367 0 0 0
142 0 1 -1.1104 12.309917622514073 12.793172145833983 0.982307645224413 0 0 0
146 0 1 -1.1104 12.316848992843113 12.709964490097446 3.7924481482632553 0 0 0
153 0 1 -1.1104 9.615974670591369 12.668492125019243 0.8706508560641679 0 0 0
158 0 1 -1.1104 9.428972442726707 12.77770204360777 3.596464933199766 0 0 0
101 0 1 -1.1104 9.475602251155184 10.01331382891571 6.465541534349066 0 0 0
8544 0 2 2.2208 13.463680088777528 11.322635166315928 2.273397576210989 0 0 0
8545 0 2 2.2208 13.590714979536598 8.656219263129758 5.185131153134279 0 0 0
143 0 1 -1.1104 12.251004888986422 12.89877608598396 6.738733367082026 0 0 0
90 0 1 -1.1104 12.031825988150372 10.136776675328381 6.585641003851016 0 0 0
154 0 1 -1.1104 9.554569032825071 12.879796880743973 6.753278720614094 0 0 0
8866 0 2 2.2208 13.557350466226042 8.447679852562274 -0.382028945107135 0 0 0
130 0 2 2.2208 2.42387014468973 14.302605305319767 5.199531296054808 0 0 0
119 0 2 2.2208 5.259522623623255 14.248916134666674 2.4377017132657666 0 0 0
106 0 2 2.2208 5.049508593100962 16.996155513920367 5.248840537144558 0 0 0
109 0 1 -1.1104 0.8796521920867514 18.49166043870801 0.9406820865648089 0 0 0
114 0 1 -1.1104 0.795651326960795 18.77072438619037 3.6651031468044115 0 0 0
116 0 1 -1.1104 0.7484399911506768 15.715266541961544 1.0888470175514162 0 0 0
120 0 2 2.2208 5.137006942316666 19.792525129246282 2.2459231753102835 0 0 0
121 0 1 -1.1104 1.0179190402193317 15.846360126582937 4.085689726816216 0 0 0
125 0 1 -1.1104 3.5929736396321403 18.406327984821978 1.1068442702621826 0 0 0
127 0 2 2.2208 2.1353597003311355 17.295001355160476 2.37938127117679 0 0 0
129 0 1 -1.1104 3.6319674691185635 18.16904205370552 3.7665305312453765 0 0 0
131 0 2 2.2208 2.3124419243412118 19.86971597299965 5.120444416718933 0 0 0
132 0 1 -1.1104 3.814324663137023 15.504211110978321 1.1526440545524763 0 0 0
134 0 1 -1.1104 3.8620466806844007 15.437702998571071 3.956847638028125 0 0 0
139 0 1 -1.1104 6.453432906575472 18.681084016417504 3.8173519175778186 0 0 0
122 0 1 -1.1104 6.691154886053372 15.401927891391882 3.740436089541116 0 0 0
140 0 1 -1.1104 6.611922108334798 15.597068442440301 0.8438595000436822 0 0 0
112 0 1 -1.1104 6.529312120932769 18.314562073388164 6.599503861621174 0 0 0
126 0 1 -1.1104 3.5433656312311537 18.357068689405622 6.560941454817403 0 0 0
117 0 1 -1.1104 0.9682583547993042 15.585537561718134 6.691469534708019 0 0 0
133 0 1 -1.1104 3.6710636775079597 15.577610704365057 6.870677283566329 0 0 0
402 0 2 2.2208 5.161809668983879 16.920788549143612 -0.3871049155674075 0 0 0
373 0 2 2.2208 2.3916814223736416 14.266579210897893 -0.3243921579171472 0 0 0
165 0 2 2.2208 13.531760799295482 17.056196318161028 2.4917592215053608 0 0 0
138 0 1 -1.1104 6.46104083199108 18.368119744672246 0.9063049039736971 0 0 0
531 0 2 2.2208 10.75194560444965 14.036371553422242 13.406444309346242 0 0 0
150 0 2 2.2208 10.899233052144044 14.314938946369477 2.2413983175287577 0 0 0
160 0 2 2.2208 8.026777679804823 14.1582755273024 5.2922575387035895 0 0 0
141 0 2 2.2208 10.666840917099865 16.92367598182698 5.217829334838736 0 0 0
144 0 1 -1.1104 12.306465713696873 18.467496310944693 0.9074107755621147 0 0 0
147 0 1 -1.1104 12.415872912462241 18.502545310258594 3.7368048574465176 0 0 0
148 0 1 -1.1104 12.221790992824847 15.659574637907006 0.8902008416020424 0 0 0
151 0 2 2.2208 10.920038199306905 19.870183568259442 2.4555529979312594 0 0 0
152 0 1 -1.1104 12.264121527099373 15.63915742305565 3.690719753736588 0 0 0
155 0 1 -1.1104 9.468658435337973 18.369392407601882 1.0064004639000999 0 0 0
157 0 2 2.2208 8.067278996291778 17.068846969664463 2.3932085722236356 0 0 0
159 0 1 -1.1104 9.232173541012852 18.507468513424264 3.720771935455683 0 0 0
161 0 2 2.2208 7.850883405649011 19.976065525395278 5.136290998681639 0 0 0
162 0 1 -1.1104 9.451652677379931 15.60306622973782 0.941488701506789 0 0 0
164 0 1 -1.1104 9.534347852666595 15.556921115175376 3.5112993123684104 0 0 0
145 0 1 -1.1104 12.072945201340392 18.30936295545839 6.559554811103301 0 0 0
8614 0 2 2.2208 13.497892291498829 14.141570676200987 5.248566007552301 0 0 0
532 0 2 2.2208 8.067728111401346 16.866243260296535 13.508064443763624 0 0 0
320 0 2 2.2208 2.176466502349584 19.735913209787967 -0.42109984981556553 0 0 0
398 0 2 2.2208 10.992859002488231 17.076428581381403 -0.41279552231410005 0 0 0
231 0 1 -1.1104 9.437728787276619 15.35872683769806 11.670102311906769 0 0 0
288 0 1 -1.1104 6.581884029479716 18.08888714430679 9.343519357022737 0 0 0
315 0 2 2.2208 5.133535382540559 -2.637754858814217 13.498748818831759 0 0 0
171 0 1 -1.1104 6.324157080385528 -1.3498821781212436 6.367170072950801 0 0 0
166 0 1 -1.1104 0.8371543402872287 -4.189426528933059 6.5495015044806735 0 0 0
175 0 2 2.2208 4.866756963587985 0.17502791108108998 10.683252932719467 0 0 0
176 0 1 -1.1104 0.9794830509477024 -4.011582927366402 12.159525319417478 0 0 0
180 0 1 -1.1104 0.9432351009094379 -3.9885174538880634 9.355054244831825 0 0 0
184 0 1 -1.1104 1.019264298573842 -1.2789118870581857 12.266469543957447 0 0 0
186 0 2 2.2208 5.060298109901997 -2.7182917751371156 8.174278965500775 0 0 0
188 0 1 -1.1104 0.7575915344638567 -1.2622029183494956 9.4867527968953 0 0 0
190 0 1 -1.1104 3.583810462725027 -4.368950151957625 12.259792486431916 0 0 0
192 0 2 2.2208 2.2040222575240644 0.09365119818035511 7.815726317443395 0 0 0
193 0 1 -1.1104 3.857830540152651 -4.041867911196318 9.642864389664773 0 0 0
195 0 2 2.2208 2.2070094810820975 -2.743015019090269 10.781755944271849 0 0 0
197 0 1 -1.1104 3.720784953677737 -1.5200367265073398 11.94383288389582 0 0 0
198 0 1 -1.1104 3.551947969195241 -1.12535524362019 9.216802728567117 0 0 0
178 0 1 -1.1104 6.507809148904058 -4.319200182363733 12.365024457309842 0 0 0
185 0 1 -1.1104 6.505215003074573 -1.5262053558519415 11.973439264981264 0 0 0
182 0 1 -1.1104 6.2582744960220165 -4.051276691526342 9.610594652835383 0 0 0
316 0 2 2.2208 2.3412231615241352 0.039952556858213986 13.608867981300234 0 0 0
8119 0 2 2.2208 8.173729716343312 -5.475248686438152 13.444919917617911 0 0 0
17388 0 2 2.2208 13.50939096160362 -5.440937815227807 7.789421728039568 0 0 0
321 0 2 2.2208 10.825489310225683 -2.7404313882861824 13.503102006781633 0 0 0
189 0 1 -1.1104 6.288694287365314 -1.164923109535606 9.252622875525727 0 0 0
211 0 2 2.2208 10.738809726106838 0.00044515901862130744 10.73441598591899 0 0 0
212 0 1 -1.1104 12.077722359551627 -4.169560702404094 12.211019550877493 0 0 0
214 0 1 -1.1104 12.053661248790373 -3.990629045310194 9.264986886064797 0 0 0
216 0 1 -1.1104 12.16649851845876 -1.4848174055364762 11.929140368741955 0 0 0
217 0 2 2.2208 10.758612340498507 -2.545612426622347 7.881162145092595 0 0 0
219 0 1 -1.1104 12.144264399452346 -1.451091012945217 9.21894257512527 0 0 0
220 0 1 -1.1104 9.29437803722679 -4.178364837396231 12.165783801989269 0 0 0
222 0 2 2.2208 7.850751374806464 -0.005149725239151409 7.860127898453699 0 0 0
223 0 1 -1.1104 9.037613256888994 -4.258285484747741 9.410760829552041 0 0 0
225 0 2 2.2208 7.915762167809728 -2.8266117137720705 10.743389873691362 0 0 0
227 0 1 -1.1104 9.253541666642006 -1.3661693403622177 12.266110366630281 0 0 0
228 0 1 -1.1104 9.171174267162876 -1.3409183508557339 9.389067910356369 0 0 0
319 0 2 2.2208 7.9223500018873585 0.03328158123035063 13.605814946537285 0 0 0
469 0 2 2.2208 8.106399129882767 11.227975148848884 13.52827341462606 0 0 0
8819 0 2 2.2208 13.618987618975366 0.13997817534224186 13.38712978668384 0 0 0
8517 0 2 2.2208 -0.4166831365775205 14.08901078587231 8.117351324933058 0 0 0
8676 0 2 2.2208 -0.3592725751425434 11.597799076298385 5.036465567292813 0 0 0
8518 0 2 2.2208 13.48940764485867 0.25608430460388654 7.898611944309779 0 0 0
199 0 2 2.2208 -0.45534404710451637 3.0803205335471673 7.945371021749705 0 0 0
53 0 1 -1.1104 12.209784968989128 18.306385369563834 9.305232318441726 0 0 0
317 0 2 2.2208 5.002306387030894 2.904113592905351 13.60483551346987 0 0 0
234 0 1 -1.1104 0.9984425784366727 7.190479540619917 6.349208936502652 0 0 0
177 0 1 -1.1104 1.0425552676364636 1.4866860568708489 12.121732774143343 0 0 0
181 0 1 -1.1104 0.848725203565015 1.495719931426164 9.338676941356674 0 0 0
187 0 2 2.2208 5.2594864968166695 3.0180611586296875 7.745565555923669 0 0 0
191 0 1 -1.1104 3.6150367879913583 1.28425026555275 12.146086936437552 0 0 0
194 0 1 -1.1104 3.7208240383104183 1.5632439503664997 9.266190325356497 0 0 0
196 0 2 2.2208 2.2244849511966773 2.9420172207053463 10.71071267691222 0 0 0
240 0 2 2.2208 5.170640975679639 5.658451348491697 10.713573868731942 0 0 0
246 0 1 -1.1104 0.8674434562981803 4.355584848052899 12.150315375884915 0 0 0
251 0 1 -1.1104 0.8698691382751108 4.24831624429691 9.357780892809844 0 0 0
256 0 2 2.2208 2.3260416063362617 5.710127441571918 7.860919926155706 0 0 0
260 0 1 -1.1104 3.706117850144678 4.280181142209198 12.134509799474225 0 0 0
262 0 1 -1.1104 3.956899363378853 4.351836065274803 9.102208909750068 0 0 0
244 0 1 -1.1104 0.7313770679478779 7.158052626561155 9.327922173068616 0 0 0
258 0 1 -1.1104 3.659052592346676 6.919415137077715 9.346258429022052 0 0 0
242 0 1 -1.1104 1.0074069761711764 7.0771243646001 12.171410107794552 0 0 0
183 0 1 -1.1104 6.661480567583523 1.3987749680815946 9.448379132891237 0 0 0
255 0 1 -1.1104 3.788402405412383 7.288074952823489 12.06317582680792 0 0 0
253 0 1 -1.1104 6.764588688308479 4.264083772009947 9.516466208828861 0 0 0
245 0 1 -1.1104 6.561414872733706 6.886100649589525 9.503548999508165 0 0 0
248 0 1 -1.1104 6.3358040787167615 4.088338465658899 12.282836632993483 0 0 0
179 0 1 -1.1104 6.410247938104111 1.2469702595727292 12.333313349190453 0 0 0
243 0 1 -1.1104 6.569855190000495 7.16529032993405 12.301275815659945 0 0 0
213 0 1 -1.1104 12.142533728359066 1.4315290287688065 12.185762142249192 0 0 0
215 0 1 -1.1104 12.318197984569215 1.2512129909903313 9.466452296191218 0 0 0
218 0 2 2.2208 10.827347412784832 2.9820365078328894 7.9395411305026276 0 0 0
221 0 1 -1.1104 9.345797870626246 1.2955516006432832 11.99962749635189 0 0 0
224 0 1 -1.1104 9.451438949436113 1.5545619286462733 9.227400279318339 0 0 0
226 0 2 2.2208 7.985457767687107 2.6772697770741347 10.74273644565 0 0 0
268 0 1 -1.1104 9.392369676385874 4.41657155488713 9.149829774136593 0 0 0
271 0 1 -1.1104 9.176885211810053 4.198492809627254 12.075381448190726 0 0 0
275 0 2 2.2208 7.9469816642362305 5.7419108593822346 7.903382576820893 0 0 0
276 0 2 2.2208 10.66614055817474 5.812332682735155 10.664470839483402 0 0 0
278 0 1 -1.1104 12.142290412310194 7.2326765105418165 12.03305868478532 0 0 0
280 0 1 -1.1104 12.02855110704256 4.105914322308757 12.119824940556892 0 0 0
283 0 1 -1.1104 11.95676251819711 4.368047137333318 9.420428404612942 0 0 0
273 0 1 -1.1104 9.382829365578402 7.1983393388753205 9.258830209060404 0 0 0
279 0 1 -1.1104 12.254041599692714 7.240196746071492 9.259242219636562 0 0 0
285 0 1 -1.1104 9.364830114883599 7.270941133806288 12.171774468998576 0 0 0
233 0 1 -1.1104 9.479627425909353 18.242960653586557 12.133920716151122 0 0 0
322 0 2 2.2208 10.478589723214018 2.9179229656829593 13.464383737470337 0 0 0
8934 0 2 2.2208 13.492849236371669 5.791301425180571 13.656458089817052 0 0 0
8727 0 2 2.2208 13.64747692723292 5.773142178520779 7.873953614041839 0 0 0
442 0 2 2.2208 2.3256558289464335 11.290656574366356 13.591348506600989 0 0 0
124 0 1 -1.1104 3.9970199022306283 12.728419040865887 6.521195601421836 0 0 0
441 0 2 2.2208 5.090684337042116 8.531547034612903 13.572401273921663 0 0 0
62 0 1 -1.1104 0.7849496292320319 10.109034034254641 6.375739335369331 0 0 0
241 0 2 2.2208 5.032217991798858 11.199826533114763 10.760492493526774 0 0 0
247 0 1 -1.1104 0.7792714976471238 9.940919463988982 12.371857322322192 0 0 0
250 0 2 2.2208 5.186658616252826 8.476683350851859 7.995465511658011 0 0 0
252 0 1 -1.1104 0.7143713664670657 9.990431065048083 9.46218663899354 0 0 0
257 0 2 2.2208 2.3873361667390607 11.379778222674721 7.852401881520655 0 0 0
259 0 2 2.2208 2.175885844175497 8.592307061441433 10.675277125235816 0 0 0
261 0 1 -1.1104 3.5324483763545618 9.943733070685088 12.161934971350265 0 0 0
263 0 1 -1.1104 3.664213085639585 9.890262704801177 9.246042822582783 0 0 0
287 0 1 -1.1104 3.63959978182301 12.503118239419615 12.193596856005573 0 0 0
294 0 1 -1.1104 0.9097748906685289 12.850298674522824 9.366851692040756 0 0 0
299 0 1 -1.1104 0.9199615095403635 12.884246654721276 12.287364683467924 0 0 0
305 0 1 -1.1104 3.7065768728668966 12.703283902051194 9.413893684708473 0 0 0
111 0 1 -1.1104 6.647247429584905 12.981133497263325 6.6065897228886055 0 0 0
290 0 1 -1.1104 6.35515175202457 12.41912998520295 9.202607833349234 0 0 0
249 0 1 -1.1104 6.3683871329562285 9.90428490549584 12.297333773419158 0 0 0
8728 0 2 2.2208 13.58040242225258 11.405519757313106 8.118249493307715 0 0 0
83 0 1 -1.1104 12.135040132539913 15.495859978079016 12.188900236646706 0 0 0
468 0 2 2.2208 10.832432794721155 8.531000057947296 13.520157224090934 0 0 0
297 0 1 -1.1104 6.448171939704494 12.549645977632235 12.198218800828618 0 0 0
254 0 1 -1.1104 6.655138962501464 9.717385895742366 9.502866556417821 0 0 0
229 0 1 -1.1104 9.310459546652448 12.497717613182788 12.174468455743435 0 0 0
264 0 1 -1.1104 9.439336804015953 10.057703534179922 9.317766917880139 0 0 0
270 0 1 -1.1104 9.547127760556528 9.85357231854164 12.219097808216048 0 0 0
272 0 2 2.2208 7.933823065602382 8.44373294907234 10.916508586526398 0 0 0
274 0 2 2.2208 7.83818258989004 11.30023586705815 8.027698614319112 0 0 0
277 0 2 2.2208 10.834442029847366 11.39611468382967 10.754848170660708 0 0 0
281 0 1 -1.1104 12.241056736932311 10.08588582921677 12.411510952580414 0 0 0
282 0 2 2.2208 10.807521361090535 8.581516535612378 8.136414353260973 0 0 0
284 0 1 -1.1104 12.129958472757005 9.958378954292519 9.378784074976974 0 0 0
30 0 1 -1.1104 12.314598668437457 12.682764516799953 12.298415765473749 0 0 0
50 0 1 -1.1104 12.126613167895318 12.633564650971772 9.655696006163607 0 0 0
51 0 1 -1.1104 9.247488736859115 12.71602642231173 9.366513246494756 0 0 0
8732 0 2 2.2208 13.56077218917174 8.556072716715732 10.689735093048595 0 0 0
302 0 1 -1.1104 0.9307423634158661 18.45408708664169 6.751624195970041 0 0 0
296 0 1 -1.1104 6.531309410550548 18.09475700975918 12.1624336853983 0 0 0
118 0 1 -1.1104 6.388338915662364 15.70308003991829 6.56357379865657 0 0 0
295 0 2 2.2208 5.1226570949557 14.208449294297651 7.942095723832305 0 0 0
300 0 2 2.2208 5.128824076816277 16.943877571933594 10.717445632123825 0 0 0
298 0 1 -1.1104 1.0616301022943557 18.27407166239532 12.229857459769052 0 0 0
293 0 2 2.2208 5.025791431798446 19.901207430832326 7.8917499880938475 0 0 0
308 0 1 -1.1104 3.5959296535875493 15.628193112391317 12.368890391155483 0 0 0
307 0 1 -1.1104 0.8144692585701933 15.481146024333725 12.310765641684526 0 0 0
304 0 1 -1.1104 3.904156831493582 15.450255462803334 9.563902859776658 0 0 0
303 0 2 2.2208 2.2987132907827115 16.939884791384085 8.00287285241959 0 0 0
301 0 1 -1.1104 3.5590845305636374 18.246607110597548 9.410720342850627 0 0 0
292 0 1 -1.1104 0.93062004585097 15.452372184105332 9.500551252082909 0 0 0
310 0 2 2.2208 2.3775619783351756 14.18967462539281 10.809340728580274 0 0 0
309 0 2 2.2208 2.379340949283468 19.673902132395853 10.825646124771609 0 0 0
286 0 1 -1.1104 3.7890876856636613 18.29766483444152 12.517331074894823 0 0 0
291 0 1 -1.1104 0.8672481469266183 18.514730461325755 9.454020092523692 0 0 0
289 0 1 -1.1104 6.574390122581906 15.47583332797454 9.252550984411222 0 0 0
232 0 1 -1.1104 9.438435563764626 15.592151607219456 9.04925592158107 0 0 0
505 0 2 2.2208 5.028103628160889 14.085589459611736 13.561989089599967 0 0 0
8814 0 2 2.2208 13.669879083247835 14.27337512879605 10.741281082675025 0 0 0
27 0 2 2.2208 10.791608367172051 16.93179173457193 10.639222619836136 0 0 0
49 0 1 -1.1104 12.217612632495056 18.273681936052693 12.055887121388537 0 0 0
25 0 2 2.2208 13.572479787317633 17.072108699587176 8.179224708201192 0 0 0
306 0 1 -1.1104 6.2470677445406215 15.441843529701227 11.93174609449358 0 0 0
149 0 1 -1.1104 12.011050819371276 15.580618708817566 6.716271459507419 0 0 0
163 0 1 -1.1104 9.158078801935991 15.73502502150403 6.269805315837717 0 0 0
52 0 1 -1.1104 9.266638296122915 18.33607013283026 9.338033482973398 0 0 0
104 0 2 2.2208 10.845857815333922 14.03037170932665 8.188964903042878 0 0 0
105 0 2 2.2208 10.663151071011965 19.68959577784164 7.879125837425601 0 0 0
202 0 2 2.2208 7.778477953150572 13.841163282862407 10.822058651810549 0 0 0
156 0 1 -1.1104 9.393803100779602 18.468702016679195 6.441806222597504 0 0 0
203 0 2 2.2208 7.905786389407125 19.679902201109506 10.792876562086954 0 0 0
204 0 1 -1.1104 12.317021089884356 15.500325263379205 9.46607279986778 0 0 0
28 0 2 2.2208 13.397192614291397 19.720305607760448 10.855173350107687 0 0 0
331 0 2 2.2208 5.111910625848693 -0.16975200872429363 16.27160405060171 0 0 0
332 0 1 -1.1104 1.0313585489948442 -4.104892440941741 17.79010549188512 0 0 0
336 0 1 -1.1104 0.8866694787086962 -4.245833955651496 14.95266826718179 0 0 0
344 0 1 -1.1104 0.8178829204399402 -1.341020891808839 18.004099491933562 0 0 0
346 0 2 2.2208 5.081077828145242 -2.8699653390132496 19.39575835008177 0 0 0
348 0 1 -1.1104 0.7751814127838533 -1.153551395490726 15.010367745373623 0 0 0
352 0 1 -1.1104 3.8737028297467937 -4.221500648753674 18.04357688068724 0 0 0
354 0 2 2.2208 2.202672277325484 0.04445803493014608 19.357761333867895 0 0 0
355 0 1 -1.1104 3.6765531969913736 -3.980988680082932 15.163373454615353 0 0 0
359 0 2 2.2208 2.1795794632912977 -2.7708080421809513 16.268963580075784 0 0 0
361 0 1 -1.1104 3.4883591568851497 -1.3135405640600137 17.811488246788176 0 0 0
362 0 1 -1.1104 3.564784549750254 -1.4571411033438457 14.991868497204477 0 0 0
345 0 1 -1.1104 6.416752308015599 -1.4126449046878555 17.89179078307924 0 0 0
340 0 1 -1.1104 6.525136424519922 -4.288268179514285 15.159491113323483 0 0 0
341 0 1 -1.1104 6.586883799323618 -4.319497317918292 20.690655277220344 0 0 0
334 0 1 -1.1104 6.573294784686389 -4.170428595495773 17.685943253747762 0 0 0
356 0 1 -1.1104 3.823995457238756 -4.204803932528278 20.71560367228157 0 0 0
350 0 1 -1.1104 6.526075730132946 -1.5562533097573665 14.86073985321271 0 0 0
8369 0 2 2.2208 2.220981234062523 -5.509946126739661 19.21502540529203 0 0 0
351 0 1 -1.1104 6.48733467626873 -1.2495528639959994 20.584435227371767 0 0 0
369 0 2 2.2208 -0.42963303752768184 19.864981373184126 25.02119071829758 0 0 0
349 0 1 -1.1104 0.8097557141474395 -1.4549498085042887 20.79818400467693 0 0 0
374 0 2 2.2208 10.865791562074056 0.08239846249518723 16.460483567005756 0 0 0
375 0 1 -1.1104 12.355543677815154 -4.240337220269549 17.779421835638672 0 0 0
377 0 1 -1.1104 12.20821082617176 -4.254129811807472 14.993583364650021 0 0 0
381 0 1 -1.1104 12.417374569076753 -1.4362118288263 17.877794527455187 0 0 0
382 0 2 2.2208 10.902258721825888 -2.7584279348893435 19.087461894315766 0 0 0
384 0 1 -1.1104 12.376940694926379 -1.5787773364849829 14.863866127808148 0 0 0
386 0 1 -1.1104 9.46552663864694 -4.306471043463852 17.764178166109907 0 0 0
388 0 2 2.2208 8.102568312983083 0.08900511122782 19.25292952770446 0 0 0
389 0 1 -1.1104 9.310109475750004 -3.860755245507055 14.861566356488904 0 0 0
393 0 2 2.2208 8.089922474961362 -2.7395452364989734 16.43842815763743 0 0 0
395 0 1 -1.1104 9.42276835487961 -1.4768047704800298 17.989439234496196 0 0 0
396 0 1 -1.1104 9.32564486461046 -1.073090730083041 15.203707173832482 0 0 0
400 0 2 2.2208 13.612492038160157 14.210830316623664 16.756013211696587 0 0 0
385 0 1 -1.1104 12.110588449167697 -1.2862144706354524 20.592802585356452 0 0 0
512 0 1 -1.1104 12.228642864831412 18.720219620921466 20.535040931184046 0 0 0
397 0 1 -1.1104 9.358612065347092 -1.369406408244416 20.496412753273447 0 0 0
595 0 2 2.2208 11.000792605501015 19.783051963074037 24.98896652832855 0 0 0