LAMMPS data file via write_data, version 29 Oct 2020, timestep = 100119

17700 atoms
3 atom types

-0.4048719931489068 27.74487199314914 xlo xhi
-4.74425872036126 332.8242587203508 ylo yhi
-0.40237520129967796 27.742375201298913 zlo zhi

Masses

1 15.9994
2 232.0381
3 131.293

Atoms # full

1 0 2 2.2208 5.698612626998606 1.0671129532608772 5.335961756669241 0 0 0
2 0 1 -1.1104 1.4919245416325417 -3.334364848756222 1.168510124896764 0 0 0
6 0 1 -1.1104 1.676835081883739 -2.9635434631741804 3.927199935757124 0 0 0
10 0 1 -1.1104 1.2428906426452055 -0.4169634806492903 1.207315701072512 0 0 0
12 0 2 2.2208 5.532367081107252 -1.8111126998479319 2.5601587241588706 0 0 0
14 0 1 -1.1104 1.4105731846631717 -0.5129986213578286 4.096043628979005 0 0 0
16 0 1 -1.1104 4.382600551375108 -3.237051345347183 1.0016453575855193 0 0 0
18 0 2 2.2208 2.6395525652913068 0.9783389145343597 2.635115360788465 0 0 0
19 0 1 -1.1104 4.287611982180906 -3.2689929864717704 3.742518994714131 0 0 0
21 0 2 2.2208 2.9917439720780905 -1.7839263405445929 5.34665696469008 0 0 0
23 0 1 -1.1104 3.9624153285184365 -0.3499069718731518 1.2172228612866 0 0 0
24 0 1 -1.1104 4.211210628041474 -0.30382596688518226 4.087661998557401 0 0 0
3 0 1 -1.1104 1.277222355182032 2.417102044159452 1.2398523073152403 0 0 0
7 0 1 -1.1104 1.3524787388597352 2.3442571709582376 4.0142178153026755 0 0 0
13 0 2 2.2208 5.639634174690101 3.8169866419399834 2.683345756944739 0 0 0
17 0 1 -1.1104 4.2398020944108 2.3238208010186074 1.2349057773830394 0 0 0
20 0 1 -1.1104 4.308495331092405 2.4689433123494147 4.007033259283782 0 0 0
386 0 2 2.2208 -0.03895867524003534 0.8444598929565424 -0.214786969023425 0 0 0
382 0 2 2.2208 2.7920441604491906 -1.9212787981711585 -0.22367987729198574 0 0 0
27 0 2 2.2208 -0.09164429056152192 3.674912683433967 2.6814988573896708 0 0 0
26 0 2 2.2208 -0.05283809915644521 0.9763111045653189 5.449108857559736 0 0 0
25 0 2 2.2208 -0.06333235840674706 -1.9290771380260912 2.6030068517849387 0 0 0
22 0 2 2.2208 2.714414828400449 3.8301285986265765 5.452946056447242 0 0 0
381 0 2 2.2208 5.482546485699057 0.9798476853555511 -0.21006342115919774 0 0 0
383 0 2 2.2208 2.784925673244995 3.860108990874437 -0.09541025219094099 0 0 0
385 0 2 2.2208 5.69678395979518 -4.718618907265937 -0.276290391257892 0 0 0
29 0 2 2.2208 5.6428032942709585 -4.50296000252079 5.314165341042134 0 0 0
8 0 1 -1.1104 7.025408265838281 -3.091840538336536 4.086412636286872 0 0 0
203 0 2 2.2208 5.6643569374914255 -4.678194511248668 11.064049668719875 0 0 0
11 0 1 -1.1104 7.015191611280145 -0.41481885813340985 1.2641564044881097 0 0 0
4 0 1 -1.1104 7.167059716915556 -3.0524107526675013 1.028358841530444 0 0 0
5 0 1 -1.1104 7.004734466639688 2.3182981903470403 0.9667803904602973 0 0 0
9 0 1 -1.1104 7.142060226588723 2.5126777819332573 3.901874199420073 0 0 0
15 0 1 -1.1104 6.949989549025243 -0.2507556130603147 3.846519938155501 0 0 0
31 0 2 2.2208 11.218112790725568 0.9611180493327337 5.2896259240007355 0 0 0
32 0 1 -1.1104 12.724874165703259 -3.305789767734967 1.028770460408605 0 0 0
34 0 1 -1.1104 12.676752595479236 -3.139248665610916 3.890822132805732 0 0 0
36 0 1 -1.1104 12.742490235438874 -0.4703906085853865 1.1862477306736208 0 0 0
37 0 2 2.2208 11.249350120315276 -1.752402944188648 2.5741906900551332 0 0 0
39 0 1 -1.1104 12.657238562858979 -0.3602095022703037 4.079125514684748 0 0 0
40 0 1 -1.1104 9.906310180111257 -3.4514058861050088 0.9331655920604143 0 0 0
42 0 2 2.2208 8.432754272821322 1.0080321012203137 2.343841873704738 0 0 0
43 0 1 -1.1104 9.86824358984471 -3.2454132170378545 3.9506704327727684 0 0 0
45 0 2 2.2208 8.42663014767148 -1.7542822330633199 5.206495447392029 0 0 0
47 0 1 -1.1104 9.915366403567502 -0.5020862653874791 1.1356676508953976 0 0 0
48 0 1 -1.1104 9.906462847044784 -0.4350031409516904 3.9478040244981902 0 0 0
33 0 1 -1.1104 12.392170525467545 2.330666626917138 1.2015503507667407 0 0 0
35 0 1 -1.1104 12.810951573349106 2.427515177364948 3.8910034585117006 0 0 0
41 0 1 -1.1104 9.760250412397696 2.353621348086393 0.8732301999379913 0 0 0
44 0 1 -1.1104 9.912004132902377 2.370508707548707 3.8571044948505775 0 0 0
46 0 2 2.2208 8.510277279529054 3.896555476587947 5.474901349341304 0 0 0
38 0 2 2.2208 11.251905489065525 3.7319611802141917 2.517791130980595 0 0 0
30 0 2 2.2208 0.07505052088708605 -4.674289793612509 5.5659442143517435 0 0 0
390 0 2 2.2208 11.227235603369152 -4.622880381480251 -0.3920383359929191 0 0 0
52 0 2 2.2208 11.117942178153438 -4.597685407776121 5.493095513174817 0 0 0
51 0 2 2.2208 8.487488653607338 -4.687171590672036 2.461347681059013 0 0 0
82 0 2 2.2208 0.12924573891558475 9.44104859994032 2.4967122716889167 0 0 0
395 0 2 2.2208 5.526887858969443 12.216259673121675 -0.2950233159779833 0 0 0
54 0 2 2.2208 5.5892324090494965 6.617981264618278 5.421410887723964 0 0 0
56 0 1 -1.1104 1.419415366297885 7.981421097281627 1.1950119169112814 0 0 0
58 0 1 -1.1104 1.4893953579646442 7.939317427459567 4.023136960096736 0 0 0
60 0 1 -1.1104 1.368634648732315 5.183528083480596 1.2415924070318471 0 0 0
67 0 1 -1.1104 1.3968107802019707 5.1494714464014795 3.8827099528222684 0 0 0
71 0 1 -1.1104 4.181149511497771 7.8563871067637905 1.0160342805333402 0 0 0
72 0 2 2.2208 2.930429692388202 6.5917694191005936 2.665214064339479 0 0 0
74 0 1 -1.1104 4.195334609886504 8.082453132707561 4.064830081803341 0 0 0
76 0 1 -1.1104 4.153492870423936 5.044727383177413 1.3678518961034103 0 0 0
79 0 1 -1.1104 4.098984964140902 5.408791403102767 4.099104957874442 0 0 0
55 0 2 2.2208 5.554894753716863 12.01411189924722 5.358480336041905 0 0 0
61 0 1 -1.1104 1.5114815666486563 10.783710879433787 1.1247419283250857 0 0 0
66 0 2 2.2208 5.523696356625633 9.294552329372033 2.516118590419199 0 0 0
68 0 1 -1.1104 1.210294256208398 10.780474168318484 4.052834765513122 0 0 0
73 0 2 2.2208 2.8148317744168008 12.052459075731731 2.4132840410442884 0 0 0
75 0 2 2.2208 2.7543109330608178 9.447822156438338 5.433166550789885 0 0 0
77 0 1 -1.1104 4.302396952681231 10.647572570452061 1.0775649285855193 0 0 0
80 0 1 -1.1104 3.946132913246344 10.84002511623986 3.9819614078064482 0 0 0
393 0 2 2.2208 5.69911792346799 6.624500069701818 -0.394130929570253 0 0 0
83 0 2 2.2208 -0.09696348241918247 12.1154264659965 5.466250966481947 0 0 0
81 0 2 2.2208 -0.03159346711191808 6.5676843729033845 5.163537045460021 0 0 0
394 0 2 2.2208 2.9394929195796182 9.409820422009183 -0.2969992025487477 0 0 0
397 0 2 2.2208 0.08350630850176016 6.544889782054509 -0.2657026234459683 0 0 0
232 0 2 2.2208 11.503736187670969 -4.6578058137052025 11.11175864590595 0 0 0
69 0 1 -1.1104 6.9156508002716555 5.214777905457067 4.096719186259501 0 0 0
59 0 1 -1.1104 7.005935727074914 7.953333272443037 4.016287234860268 0 0 0
63 0 1 -1.1104 6.942193132144153 5.227366614527849 0.9911076282902269 0 0 0
57 0 1 -1.1104 7.16050386635342 8.03479707107585 1.0136903255574539 0 0 0
70 0 1 -1.1104 6.8189169844247814 10.619500031230729 3.985991642590413 0 0 0
64 0 1 -1.1104 6.944965956991021 10.847116873121946 1.0452134246505522 0 0 0
84 0 2 2.2208 11.339082609746029 6.63486244562063 5.403480984994675 0 0 0
86 0 1 -1.1104 12.590676519198276 7.893078904060249 1.1080895536035906 0 0 0
87 0 1 -1.1104 12.63879143015775 7.945908124505051 4.054603928670037 0 0 0
88 0 1 -1.1104 12.721216959920548 5.081518556138082 1.0357256513182165 0 0 0
92 0 1 -1.1104 12.704837658351863 5.008721144363121 3.9177978721506226 0 0 0
94 0 1 -1.1104 9.949931399962445 7.700345313152664 0.973704076703128 0 0 0
95 0 2 2.2208 8.463251820081007 6.577040542362531 2.4787434133359887 0 0 0
97 0 1 -1.1104 9.805056727315199 8.105330990331183 3.8011889082514685 0 0 0
99 0 1 -1.1104 9.877772652198743 4.999625401851455 0.9878250036358304 0 0 0
102 0 1 -1.1104 9.788353412432322 5.202021973463449 3.780804326551577 0 0 0
85 0 2 2.2208 11.28662798934922 12.155575015879908 5.425251248023796 0 0 0
89 0 1 -1.1104 12.65972591027181 10.72973275555531 1.459511129750574 0 0 0
91 0 2 2.2208 11.256136115057698 9.391557509634353 2.6670102268591647 0 0 0
93 0 1 -1.1104 12.55817037726788 10.589195833339387 4.294797737162313 0 0 0
96 0 2 2.2208 8.257435433452134 12.063874123757884 2.5492276894584776 0 0 0
98 0 2 2.2208 8.28243661814164 9.22622651272808 5.365494058233009 0 0 0
100 0 1 -1.1104 9.717729534792786 10.719133215233906 1.1731325285936576 0 0 0
103 0 1 -1.1104 9.835191837547187 10.88398219015367 3.8603506164670476 0 0 0
400 0 2 2.2208 11.131442495357518 12.216527179225888 -0.2734860301209692 0 0 0
384 0 2 2.2208 0.10061401424063136 -4.612183794823249 -0.21340755511109752 0 0 0
403 0 2 2.2208 2.9309248049585572 15.151148654214744 -0.048743839485999155 0 0 0
401 0 2 2.2208 -0.105619456397491 17.66680553555778 -0.14276403844300564 0 0 0
405 0 2 2.2208 2.9032070511787804 20.695304914538745 -0.3409265089517639 0 0 0
136 0 2 2.2208 0.11608452679254953 20.68560324138569 2.630390868830058 0 0 0
404 0 2 2.2208 5.69693725000418 17.886028258991796 -0.22996301964836688 0 0 0
107 0 1 -1.1104 1.3253140152709204 13.565489823734348 1.107691386407286 0 0 0
113 0 1 -1.1104 1.2875992210582177 13.60699950668638 3.973008416034059 0 0 0
123 0 1 -1.1104 4.115176745773958 13.533198090570144 1.234382629402838 0 0 0
128 0 1 -1.1104 4.082319852468703 13.698112329013167 3.9816965589547175 0 0 0
119 0 2 2.2208 5.537463281477539 15.03842344682466 2.672450770922922 0 0 0
130 0 2 2.2208 2.6583453719923598 14.931636637628538 5.46566347311593 0 0 0
106 0 2 2.2208 5.400910287964753 17.84276716865197 5.559298239994454 0 0 0
109 0 1 -1.1104 1.2595583316974697 19.25909584885273 1.258827852349752 0 0 0
114 0 1 -1.1104 1.2380354728949483 19.19737758283553 4.110581449701776 0 0 0
116 0 1 -1.1104 1.2365713230344495 16.45404310959899 1.1435546025774728 0 0 0
120 0 2 2.2208 5.7281231130002075 20.696052892200445 2.6246289273223544 0 0 0
121 0 1 -1.1104 1.4911962354030697 16.477216123211896 4.083408366241402 0 0 0
125 0 1 -1.1104 4.2869526552084105 19.266445220590438 1.0398016582753775 0 0 0
127 0 2 2.2208 2.698814406394533 17.883491006479275 2.551498080071196 0 0 0
129 0 1 -1.1104 4.004164809245692 19.37270226418825 3.8168421582260645 0 0 0
131 0 2 2.2208 2.8943978115989797 20.66147297146602 5.555475089239461 0 0 0
132 0 1 -1.1104 4.061744615881013 16.423038985172596 1.4483845642503657 0 0 0
134 0 1 -1.1104 3.988032760496209 16.683215089045643 4.267554452669088 0 0 0
135 0 2 2.2208 0.0999215396033543 14.994152745464188 2.6096708002937685 0 0 0
137 0 2 2.2208 -0.0401878122792734 17.75928191310444 5.434956895346545 0 0 0
378 0 2 2.2208 11.222881333793305 17.64841043360366 -0.2427963212854927 0 0 0
110 0 1 -1.1104 6.737444579963608 13.633579637422123 1.0067263752926332 0 0 0
138 0 1 -1.1104 7.0028140069362115 19.2103927956092 1.181622680016904 0 0 0
115 0 1 -1.1104 6.957529594008645 13.61023090041763 3.760509814928996 0 0 0
122 0 1 -1.1104 6.916710388807739 16.349176551334015 3.9990843462607955 0 0 0
140 0 1 -1.1104 6.810729848952207 16.430596358051424 1.336293025095102 0 0 0
139 0 1 -1.1104 6.854225382549705 19.217168284161733 4.21891828315829 0 0 0
142 0 1 -1.1104 12.49838275850708 13.609629957759337 1.1510027105993978 0 0 0
146 0 1 -1.1104 12.656558849450173 13.580386969830949 3.8892327359634318 0 0 0
153 0 1 -1.1104 9.609114315812478 13.482354994345622 1.2787264245966046 0 0 0
158 0 1 -1.1104 9.654301667582583 13.599128154497265 3.9887569834147603 0 0 0
150 0 2 2.2208 11.225838098139208 14.917187888421877 2.542652523400635 0 0 0
160 0 2 2.2208 8.425970643253901 14.888780084631122 5.284263122950389 0 0 0
141 0 2 2.2208 11.313565844200792 17.771642105217897 5.431465147071101 0 0 0
144 0 1 -1.1104 12.583068097431367 19.23990272835153 1.2166731078368913 0 0 0
147 0 1 -1.1104 12.44184446976564 19.099785841555327 4.006883086499344 0 0 0
148 0 1 -1.1104 12.666861064398677 16.450285537642284 1.1268333696626123 0 0 0
151 0 2 2.2208 11.025753344929585 20.666066505461583 2.7223742962284883 0 0 0
152 0 1 -1.1104 12.835996382552151 16.337796802372495 3.859172324617413 0 0 0
155 0 1 -1.1104 9.65380717646134 19.312825387409863 1.400361602075988 0 0 0
157 0 2 2.2208 8.269072018553034 17.684053613867903 2.7427139880533598 0 0 0
159 0 1 -1.1104 9.712835229439493 19.268558697174786 4.042182317788454 0 0 0
161 0 2 2.2208 8.374265571363868 20.436520925910767 5.508437765906432 0 0 0
162 0 1 -1.1104 9.66960762515037 16.29695044410202 1.2073650493013037 0 0 0
164 0 1 -1.1104 9.822441933141835 16.27173125927793 3.8252556563698903 0 0 0
377 0 2 2.2208 8.30238028554222 14.995177599415525 -0.21522824837278917 0 0 0
379 0 2 2.2208 8.349782712876102 20.541052631562412 -0.11482289646309428 0 0 0
172 0 1 -1.1104 4.053097567651127 -3.3261844955699646 6.7680531437400315 0 0 0
388 0 2 2.2208 8.330032900153642 -1.750144026609597 -0.17344347490630943 0 0 0
396 0 2 2.2208 0.022540178299416718 12.11557083395095 -0.19527183706004533 0 0 0
167 0 1 -1.1104 1.413821107138307 2.440960386203981 6.593085632684496 0 0 0
199 0 2 2.2208 0.02156877368286653 3.8798273568915 8.216530894621721 0 0 0
200 0 2 2.2208 0.035552837214660876 -1.8350996140128073 8.337649984247694 0 0 0
174 0 1 -1.1104 4.204886894158522 -0.4670181512592242 6.8660005532803465 0 0 0
170 0 1 -1.1104 1.4310763946077092 -0.5639715879968448 7.02744804501422 0 0 0
173 0 1 -1.1104 4.169004917698736 2.2540936996409124 6.809574438328788 0 0 0
166 0 1 -1.1104 1.3276505118198267 -3.4563101352745567 6.94150099778431 0 0 0
175 0 2 2.2208 5.643181885787672 0.8580451353096471 11.072782693898692 0 0 0
176 0 1 -1.1104 1.2808473197597117 -3.570670302606986 12.6509458085475 0 0 0
180 0 1 -1.1104 1.4481459781045356 -3.3441809974234307 9.791577809140241 0 0 0
184 0 1 -1.1104 1.2946429179082901 -0.6247276297095175 12.444839999959534 0 0 0
186 0 2 2.2208 5.635099608264069 -1.8217915395845283 8.278243782047443 0 0 0
188 0 1 -1.1104 1.4633444783962113 -0.3912196952781269 9.837454184336387 0 0 0
190 0 1 -1.1104 4.217240029077178 -3.327596919325717 12.528879006365305 0 0 0
192 0 2 2.2208 2.810716666746409 0.9812309210915302 8.142822606993974 0 0 0
193 0 1 -1.1104 4.22234880716685 -3.2161661023163943 9.764321851947765 0 0 0
195 0 2 2.2208 2.738111242467246 -1.8485384431008491 11.108134700628327 0 0 0
197 0 1 -1.1104 4.116016132925018 -0.4710531779611995 12.475033781184104 0 0 0
198 0 1 -1.1104 4.463983801172138 -0.43040960586481747 9.735693268367937 0 0 0
177 0 1 -1.1104 1.5630807737186847 2.3291727987334436 12.364161794773684 0 0 0
181 0 1 -1.1104 1.4098573853256118 2.425924239891973 9.403979498729143 0 0 0
191 0 1 -1.1104 4.135824670025279 2.3615261719738707 12.35827012147809 0 0 0
194 0 1 -1.1104 4.2799293919584125 2.509464759585759 9.586337427711252 0 0 0
187 0 2 2.2208 5.602083346241175 3.697613659687536 8.323215486668792 0 0 0
201 0 2 2.2208 -0.003746005870880121 0.875831770496811 11.317793546122116 0 0 0
196 0 2 2.2208 2.7954098375331053 3.760664860291859 10.91234418041187 0 0 0
169 0 1 -1.1104 7.093545994781735 2.329159689650384 6.646852686434892 0 0 0
210 0 1 -1.1104 9.724438601861339 -0.4314211272102281 6.720705332748195 0 0 0
205 0 1 -1.1104 12.537724681209317 -3.26241187703316 6.858067005906521 0 0 0
231 0 2 2.2208 8.483212142182097 -4.710180075749852 8.183676675532737 0 0 0
182 0 1 -1.1104 7.021902774831474 -3.1245261717746313 9.747729084960826 0 0 0
171 0 1 -1.1104 7.0448620854352155 -0.5038123668995457 6.485852121762904 0 0 0
206 0 1 -1.1104 12.658723521649433 2.3326968672398203 6.699732431681682 0 0 0
168 0 1 -1.1104 6.864864985417281 -3.1452025101190872 6.858466091844644 0 0 0
189 0 1 -1.1104 7.091777345757383 -0.18933930199876237 9.591519347988507 0 0 0
183 0 1 -1.1104 6.96333683552603 2.3559622974849015 9.482434248890138 0 0 0
178 0 1 -1.1104 7.105591113346768 -3.3706366524054614 12.32876398574506 0 0 0
179 0 1 -1.1104 7.073988683777478 2.156627739093151 12.53405684983424 0 0 0
185 0 1 -1.1104 7.139889734380995 -0.6208014394470157 12.323519675303693 0 0 0
208 0 1 -1.1104 9.589139425983763 -3.351980159504804 6.759605744022704 0 0 0
209 0 1 -1.1104 9.801927071877495 2.476434586195343 6.8146590714841055 0 0 0
207 0 1 -1.1104 12.600395078519242 -0.4492554736831057 6.858267692719958 0 0 0
211 0 2 2.2208 11.28600334180976 0.8185352694733421 11.080935083987029 0 0 0
212 0 1 -1.1104 12.804998647771207 -3.3263454782258046 12.523016905617215 0 0 0
214 0 1 -1.1104 12.620245203014754 -3.2231514254793203 9.756132322332109 0 0 0
216 0 1 -1.1104 12.728655515419524 -0.537220144607979 12.523424256045583 0 0 0
217 0 2 2.2208 11.28880327311345 -1.653291683456904 8.234765983034148 0 0 0
219 0 1 -1.1104 12.708027236466036 -0.444998536013757 9.608613923531284 0 0 0
220 0 1 -1.1104 9.98941811574859 -3.386437388774763 12.412270501177685 0 0 0
222 0 2 2.2208 8.51048235511169 1.0256286208789123 8.126606366950341 0 0 0
223 0 1 -1.1104 9.821483747912525 -3.1564688787961224 9.46598760139063 0 0 0
225 0 2 2.2208 8.360962111481387 -1.8787627183470341 10.991846649448696 0 0 0
227 0 1 -1.1104 9.762272579276805 -0.5485172065890691 12.437096984042565 0 0 0
228 0 1 -1.1104 9.810020160906838 -0.4288261858615487 9.753793197816139 0 0 0
213 0 1 -1.1104 12.861101516349903 2.1885032131297137 12.441445160860543 0 0 0
215 0 1 -1.1104 12.744823044685997 2.075320453532726 9.597860041866188 0 0 0
221 0 1 -1.1104 9.894774661452004 2.265387976341474 12.383659245558823 0 0 0
224 0 1 -1.1104 9.956238105782353 2.2974946150622007 9.65135575480219 0 0 0
226 0 2 2.2208 8.326800584871053 3.5484376688672175 11.029543476157809 0 0 0
218 0 2 2.2208 11.311163985147797 3.734025688271254 8.153575945159712 0 0 0
62 0 1 -1.1104 1.5536589865818073 10.872322849495095 6.7087120282402735 0 0 0
343 0 2 2.2208 -0.05144836934480884 9.384078199856903 8.265869462010546 0 0 0
78 0 1 -1.1104 4.208030494073823 10.594594763376344 6.9217217525259676 0 0 0
236 0 1 -1.1104 1.2342921865974614 5.150153763977018 6.829122297570766 0 0 0
344 0 2 2.2208 -0.11914456760816636 6.482237297877526 11.089126211605155 0 0 0
342 0 2 2.2208 0.017806009203723213 12.297477948408691 11.09200053149716 0 0 0
234 0 1 -1.1104 1.3935872500665334 7.94304763183499 6.737379317027365 0 0 0
238 0 1 -1.1104 4.404323404877081 7.877611786513925 6.899917136877006 0 0 0
239 0 1 -1.1104 4.150668432953657 5.190074842997681 6.74096084345263 0 0 0
240 0 2 2.2208 5.469982127605067 6.568761494728802 10.943701009415197 0 0 0
242 0 1 -1.1104 1.398386015583476 7.90450880422407 12.279199303505004 0 0 0
244 0 1 -1.1104 1.314526129909844 8.134547335915244 9.384048928792055 0 0 0
246 0 1 -1.1104 1.2952810897969682 5.215332646992773 12.410316845166786 0 0 0
251 0 1 -1.1104 1.3799377975088365 5.285830955777899 9.558282954672693 0 0 0
255 0 1 -1.1104 4.086043256005521 8.384466793161698 12.421493656681305 0 0 0
256 0 2 2.2208 2.6884867839695605 6.571102395227557 8.072273388446954 0 0 0
258 0 1 -1.1104 4.133370432075332 8.15869344131909 9.77569079255174 0 0 0
260 0 1 -1.1104 4.1186792262777585 5.444398208929146 12.490106802277358 0 0 0
262 0 1 -1.1104 4.192879402406986 5.120519450648235 9.55755254535243 0 0 0
241 0 2 2.2208 5.629898227591097 12.13117830740675 11.154657344798954 0 0 0
247 0 1 -1.1104 1.2782766141050734 10.776150461086376 12.59701423082561 0 0 0
250 0 2 2.2208 5.531640699363115 9.279641873618248 8.208297589170183 0 0 0
252 0 1 -1.1104 1.323043194141835 10.778760459484504 9.72337916398748 0 0 0
257 0 2 2.2208 2.706408522299301 12.197166221659645 8.346145755944216 0 0 0
259 0 2 2.2208 2.6592250494101557 9.430430194116408 11.106171163516048 0 0 0
261 0 1 -1.1104 4.10530865687948 10.86012257438816 12.381502634797853 0 0 0
263 0 1 -1.1104 3.9884956931906563 10.971401881696526 9.802949830322502 0 0 0
101 0 1 -1.1104 9.838982065587002 10.611317179493563 6.864872097242753 0 0 0
237 0 1 -1.1104 7.045399076024121 5.035786911244901 6.8992006977838845 0 0 0
235 0 1 -1.1104 6.935843410967663 7.829962301170825 6.823353555441218 0 0 0
267 0 1 -1.1104 9.711888489979142 7.678202583304146 6.845777296927318 0 0 0
269 0 1 -1.1104 10.069219528339714 5.024907525999868 6.7790112876269495 0 0 0
253 0 1 -1.1104 6.989871701353149 5.140195274741879 9.535601668009607 0 0 0
248 0 1 -1.1104 6.892894138430956 4.80024040975837 12.182879501596402 0 0 0
245 0 1 -1.1104 7.128013306322261 7.873359978573478 9.548529861598636 0 0 0
65 0 1 -1.1104 7.0684902082823 10.745085037433814 6.746889936534208 0 0 0
90 0 1 -1.1104 12.648309333559304 10.79309377104806 6.958712827566678 0 0 0
265 0 1 -1.1104 12.84212637733078 8.033391916639758 6.9215201784704785 0 0 0
266 0 1 -1.1104 12.744860142608504 5.24375037270773 6.724366262475594 0 0 0
254 0 1 -1.1104 6.9539998849267946 10.628768844690518 9.674273803924748 0 0 0
243 0 1 -1.1104 6.9871390453960105 7.816439586171166 12.36162361264227 0 0 0
249 0 1 -1.1104 6.940886983821552 10.711780047654345 12.573195530749462 0 0 0
268 0 1 -1.1104 9.766446557870026 5.008200729696711 9.644416915331286 0 0 0
271 0 1 -1.1104 9.813976139235498 4.96615906210608 12.405891354341716 0 0 0
273 0 1 -1.1104 9.914375437636354 7.887118843099622 9.666529837378627 0 0 0
275 0 2 2.2208 8.451171981684526 6.4448262040992415 8.104895086058487 0 0 0
276 0 2 2.2208 11.220643227096302 6.425518135079803 10.895749959966048 0 0 0
278 0 1 -1.1104 12.695105916460916 7.857786980924737 12.419898051448255 0 0 0
279 0 1 -1.1104 12.642706714342948 7.652048748718643 9.54468634429521 0 0 0
280 0 1 -1.1104 12.783715155938685 4.8120373286677625 12.42864238128631 0 0 0
283 0 1 -1.1104 12.625689884812 4.9377104428459 9.483738834811431 0 0 0
285 0 1 -1.1104 9.850560662004057 7.783265089984713 12.44190748479394 0 0 0
264 0 1 -1.1104 9.535213078862597 10.490698544266301 9.494159580009143 0 0 0
270 0 1 -1.1104 9.760830504337047 10.646154625500813 12.343553159355682 0 0 0
272 0 2 2.2208 8.359612591977696 9.209225572922099 11.160541507193575 0 0 0
274 0 2 2.2208 8.530955019294941 12.04086332750522 8.183804789985338 0 0 0
277 0 2 2.2208 11.239196471507176 12.060780238694104 10.9899683128753 0 0 0
281 0 1 -1.1104 12.791610958768802 10.576145953765499 12.422852571063737 0 0 0
282 0 2 2.2208 11.237655178125635 9.252937102918468 8.246821920948822 0 0 0
284 0 1 -1.1104 12.477303908749917 10.711626621401972 9.618335926187356 0 0 0
312 0 2 2.2208 0.034240987116631136 17.82638135969807 11.136356060177802 0 0 0
313 0 2 2.2208 0.045046137708628226 14.902187193694173 8.333586825968558 0 0 0
311 0 2 2.2208 0.019419321878039093 20.486412620330736 8.124687079150629 0 0 0
302 0 1 -1.1104 1.504803901647649 19.132139957136303 6.835160258711563 0 0 0
126 0 1 -1.1104 4.238601309926012 19.21656385386458 6.852659554353228 0 0 0
133 0 1 -1.1104 4.154580223906128 16.179270590421652 6.7462159733856195 0 0 0
108 0 1 -1.1104 1.299196366051605 13.70981253936023 6.967975784610617 0 0 0
117 0 1 -1.1104 1.2891231182979404 16.59314599493717 6.999725648998353 0 0 0
124 0 1 -1.1104 4.051076284521748 13.36058079605975 6.8096290686968635 0 0 0
305 0 1 -1.1104 4.28263551629608 13.606681629337695 9.75007466178865 0 0 0
299 0 1 -1.1104 1.3255933887971536 13.683489059965508 12.479759076561795 0 0 0
294 0 1 -1.1104 1.5246380986716408 13.757684084083385 9.690929341884214 0 0 0
287 0 1 -1.1104 4.382613524202023 13.595063875572642 12.417854958931247 0 0 0
310 0 2 2.2208 2.8428160635098916 14.952332876887757 11.04594138126603 0 0 0
295 0 2 2.2208 5.611462668790136 14.777366339819482 8.1376232999422 0 0 0
309 0 2 2.2208 2.803163776370735 20.589685998943352 10.929477942116826 0 0 0
308 0 1 -1.1104 4.233511009761368 16.429672729136147 12.481344426611827 0 0 0
307 0 1 -1.1104 1.4049044316620596 16.42282462028325 12.352103334335562 0 0 0
286 0 1 -1.1104 4.166728909562366 19.2211099635011 12.447028174864387 0 0 0
304 0 1 -1.1104 4.26127415224274 16.354529988442977 9.61555141444714 0 0 0
303 0 2 2.2208 2.8567585899798527 17.644108319668444 8.27736152716254 0 0 0
301 0 1 -1.1104 4.1893144965090405 19.156928744686567 9.759933821305774 0 0 0
300 0 2 2.2208 5.698660281203435 17.683480039576676 11.191810230361513 0 0 0
298 0 1 -1.1104 1.5109087949870625 19.33177223207253 12.449881818428203 0 0 0
293 0 2 2.2208 5.719722341066269 20.534039646238522 8.314298246545325 0 0 0
292 0 1 -1.1104 1.4163856360730445 16.32826808173154 9.740030002221433 0 0 0
291 0 1 -1.1104 1.4272631688658615 19.051889205406198 9.59339253087245 0 0 0
324 0 2 2.2208 11.31652488471547 20.595952435097615 8.3401286041655 0 0 0
329 0 1 -1.1104 12.537719567752543 19.261314131420242 12.4224697896913 0 0 0
320 0 2 2.2208 8.440195820154878 17.756571058490042 8.190961690259519 0 0 0
319 0 1 -1.1104 9.948432060054762 13.448081105965128 9.556494732929954 0 0 0
327 0 1 -1.1104 12.706916286448546 19.038218550359446 9.686495869990889 0 0 0
331 0 2 2.2208 11.322937480015206 17.81738456779996 11.106019431920348 0 0 0
111 0 1 -1.1104 6.978215364086493 13.632617830654082 6.711376268308108 0 0 0
318 0 1 -1.1104 9.78525041408552 19.180272424082453 9.742518830108192 0 0 0
149 0 1 -1.1104 12.524166349983904 16.434789435565108 6.958623256987991 0 0 0
322 0 1 -1.1104 10.063860029745076 13.41907277731282 12.352868540736683 0 0 0
314 0 1 -1.1104 9.98118187371979 16.502763191214683 9.551979120435236 0 0 0
317 0 2 2.2208 8.518372282834358 14.877442146483492 10.901392785759374 0 0 0
315 0 1 -1.1104 10.12127130543823 16.353821684152773 12.484639234719923 0 0 0
325 0 2 2.2208 11.333003941092489 14.944528750717746 8.154331029558424 0 0 0
323 0 1 -1.1104 12.892003954548573 16.1621255433755 9.542646404091577 0 0 0
321 0 1 -1.1104 9.951907086302844 19.277549720707558 12.360752322671457 0 0 0
112 0 1 -1.1104 7.013066779554372 19.07298155112486 6.91796425581753 0 0 0
118 0 1 -1.1104 7.171468551066481 16.285932536338013 6.83848893144928 0 0 0
145 0 1 -1.1104 12.685183910091217 19.29399715437537 6.8905468434396395 0 0 0
330 0 1 -1.1104 12.7241654473342 13.498649613269592 12.467538790467083 0 0 0
306 0 1 -1.1104 7.229824546102132 16.219999043248134 12.224785930335015 0 0 0
326 0 1 -1.1104 12.923358386229946 16.453542765435767 12.202559051796232 0 0 0
328 0 1 -1.1104 12.731850195690681 13.39774075030026 9.689369106608993 0 0 0
289 0 1 -1.1104 7.074162314645675 16.215182344489083 9.519164211726029 0 0 0
154 0 1 -1.1104 9.729900906007122 13.422280183817898 6.661978794739173 0 0 0
296 0 1 -1.1104 7.112176100283893 18.94596173467681 12.475155656753428 0 0 0
297 0 1 -1.1104 7.369623970587154 13.588094269137144 12.39654006969348 0 0 0
288 0 1 -1.1104 7.092542270330519 19.219572846344143 9.630199292371707 0 0 0
290 0 1 -1.1104 7.130600827745205 13.488178054992664 9.500117783997643 0 0 0
143 0 1 -1.1104 12.858881095984 13.634443796122365 6.919377924898491 0 0 0
316 0 2 2.2208 8.342509286004969 20.63508575186205 11.006136072848879 0 0 0
163 0 1 -1.1104 9.796330871364702 16.29875760791199 6.56952773350812 0 0 0
156 0 1 -1.1104 9.898472982973928 18.896504715060562 6.899635721747939 0 0 0
28 0 2 2.2208 2.9748167916348094 -4.736090337256769 2.481586534790657 0 0 0
399 0 2 2.2208 8.48159454382004 9.561053711077188 -0.34838928745363945 0 0 0
398 0 2 2.2208 11.336537861257057 6.562795391231417 -0.37407021214077807 0 0 0
406 0 2 2.2208 5.584977782645015 0.7850161275207622 16.50598756414598 0 0 0
407 0 1 -1.1104 1.5940492291578992 -3.3280302374380755 18.168801918089137 0 0 0
411 0 1 -1.1104 1.3678834791349952 -3.3970604849864663 15.463627551229187 0 0 0
419 0 1 -1.1104 1.5499534765978733 -0.47303910526361526 17.992570314213793 0 0 0
421 0 2 2.2208 5.4461363879317615 -1.8828976322808535 19.415444009090265 0 0 0
423 0 1 -1.1104 1.4703149111521194 -0.38172638285451455 15.24573944673794 0 0 0
427 0 1 -1.1104 4.2315922350294635 -3.371563007316138 18.259691314788608 0 0 0
429 0 2 2.2208 2.955524441632268 0.9053254167793603 19.345011387596923 0 0 0
430 0 1 -1.1104 4.238840191395754 -3.5621472455189704 15.324230713742258 0 0 0
434 0 2 2.2208 2.943750102043164 -1.976929682326373 16.712544278040507 0 0 0
436 0 1 -1.1104 4.249536518196117 -0.4494745898176634 18.02967346310098 0 0 0
437 0 1 -1.1104 4.269295772524225 -0.6611539544912902 15.165446757590889 0 0 0
408 0 1 -1.1104 1.4724165474971396 2.330701358795676 18.05504867498058 0 0 0
413 0 1 -1.1104 1.399760567154316 2.402793221503616 15.262243750016973 0 0 0
428 0 1 -1.1104 4.151669169121933 2.5297611681217353 17.973434649900092 0 0 0
432 0 1 -1.1104 4.262856354981181 2.2879057188697147 15.202941052585752 0 0 0
422 0 2 2.2208 5.688691838272395 3.7701228117476786 19.43577304683269 0 0 0
435 0 2 2.2208 2.7855122323207775 3.683077339375933 16.69608195271818 0 0 0
352 0 2 2.2208 5.5561333307024965 3.668579344234196 13.779367282575441 0 0 0
367 0 2 2.2208 0.1281009137163134 3.796574926871608 13.859424265829945 0 0 0
443 0 2 2.2208 -0.005171226645697376 -1.9375603910877168 19.555579568139535 0 0 0
349 0 2 2.2208 2.8205861265770813 0.7776177258467405 13.822377886686239 0 0 0
442 0 2 2.2208 0.032099901435089576 0.925198892971909 16.67228722686376 0 0 0
544 0 2 2.2208 0.02583764257652145 3.7223019190473354 19.370753207782982 0 0 0
348 0 2 2.2208 5.5421773935300775 -1.9982683179661942 13.764637123664388 0 0 0
346 0 2 2.2208 0.0023187264558867135 -2.0867857906058584 14.029485083872274 0 0 0
669 0 2 2.2208 8.460331714870867 -4.725132261545222 25.118751693395932 0 0 0
410 0 1 -1.1104 6.831281200619794 2.2974749383502813 18.1369043259749 0 0 0
420 0 1 -1.1104 6.859305399443737 -0.505466096282545 17.87329542966941 0 0 0
415 0 1 -1.1104 6.927642493752236 -3.5324285670810207 15.127651090555355 0 0 0
409 0 1 -1.1104 6.9682259729088605 -3.350748165461581 18.030046570830468 0 0 0
417 0 1 -1.1104 7.041911813764046 2.260631411732471 15.29418194889086 0 0 0
425 0 1 -1.1104 6.987820247658225 -0.5655828679434947 15.178861426092316 0 0 0
449 0 2 2.2208 11.22936400346841 0.8935132955504772 16.517317976051164 0 0 0
450 0 1 -1.1104 12.543619472258847 -3.382048952684854 18.08179911561021 0 0 0
452 0 1 -1.1104 12.67304164078626 -3.4506523386589167 15.240419524077177 0 0 0
456 0 1 -1.1104 12.61375833348825 -0.5290999700408707 17.99134384449241 0 0 0
457 0 2 2.2208 11.232496443739054 -1.8375286835904892 19.43409172148885 0 0 0
459 0 1 -1.1104 12.502187475153924 -0.6770914012567665 15.262728608299254 0 0 0