LAMMPS (29 Oct 2020)
OMP_NUM_THREADS environment is not set. Defaulting to 1 thread. (../comm.cpp:94)
  using 1 OpenMP thread(s) per MPI task
OMP_NUM_THREADS environment is not set. Defaulting to 1 thread. (../comm.cpp:94)
  using 1 OpenMP thread(s) per MPI task
Reading data file ...
  orthogonal box = (-0.36199259 -4.4445234 -0.35063724) to (27.701993 332.52452 27.690637)
  2 by 13 by 2 MPI processor grid
  reading atoms ...
  17704 atoms
  reading velocities ...
  17704 velocities
Finding 1-2 1-3 1-4 neighbors ...
  special bond factors lj:    0.0      0.0      0.0     
  special bond factors coul:  0.0      0.0      0.0     
     0 = max # of 1-2 neighbors
     0 = max # of 1-3 neighbors
     0 = max # of 1-4 neighbors
     1 = max # of special neighbors
  special bonds CPU = 0.006 seconds
  read_data CPU = 0.075 seconds
WARNING: 13 of 1000 force values in table Xe-Xe are inconsistent with -dE/dr.
  Should only be flagged at inflection points (../pair_table.cpp:461)
WARNING: 2 of 1000 force values in table Xe-O are inconsistent with -dE/dr.
  Should only be flagged at inflection points (../pair_table.cpp:461)
WARNING: 2 of 1000 force values in table Xe-Th are inconsistent with -dE/dr.
  Should only be flagged at inflection points (../pair_table.cpp:461)
Setting atom values ...
  11760 settings made for charge
Setting atom values ...
  5880 settings made for charge
Setting atom values ...
  64 settings made for charge
PPPM initialization ...
  using 12-bit tables for long-range coulomb (../kspace.cpp:328)
  G vector (1/distance) = 0.29879775
  grid = 40 240 40
  stencil order = 5
  estimated absolute RMS force accuracy = 0.00015607635
  estimated relative force accuracy = 1.0838903e-05
  using single precision MKL FFT
  3d grid and FFT values/proc = 18225 7600
Neighbor list info ...
  update every 1 steps, delay 0 steps, check yes
  max neighbors/atom: 2000, page size: 100000
  master list distance cutoff = 13
  ghost atom cutoff = 13
  binsize = 6.5, bins = 5 52 5
  3 neighbor lists, perpetual/occasional/extra = 3 0 0
  (1) pair coul/long, perpetual
      attributes: half, newton on
      pair build: half/bin/newton
      stencil: half/bin/3d/newton
      bin: standard
  (2) pair eam/alloy, perpetual, skip from (1)
      attributes: half, newton on
      pair build: skip
      stencil: none
      bin: none
  (3) pair table, perpetual, skip from (1)
      attributes: half, newton on
      pair build: skip
      stencil: none
      bin: none
Setting up Verlet run ...
  Unit style    : metal
  Current step  : 0
  Time step     : 0.001
Per MPI rank memory allocation (min/avg/max) = 9.612 | 10.01 | 10.03 Mbytes
Step Temp E_pair E_mol TotEng Press 
       0          600   -230409.72            0   -229036.74   -86.832088 
  100000    599.34632    -230433.4            0   -229061.92   -332.76662 
Loop time of 741.409 on 52 procs for 100000 steps with 17704 atoms

Performance: 11.653 ns/day, 2.059 hours/ns, 134.878 timesteps/s
99.8% CPU use with 52 MPI tasks x 1 OpenMP threads

MPI task timing breakdown:
Section |  min time  |  avg time  |  max time  |%varavg| %total
---------------------------------------------------------------
Pair    | 525.04     | 537.9      | 560.06     |  35.5 | 72.55
Bond    | 0.0077169  | 0.013619   | 0.019131   |   2.4 |  0.00
Kspace  | 153.54     | 173.98     | 187.12     |  58.7 | 23.47
Neigh   | 1.9139     | 2.064      | 2.2167     |   4.5 |  0.28
Comm    | 19.561     | 22.333     | 26.044     |  32.8 |  3.01
Output  | 6.0727e-05 | 6.6083e-05 | 0.00028237 |   0.0 |  0.00
Modify  | 2.3099     | 3.2761     | 5.8304     |  70.3 |  0.44
Other   |            | 1.844      |            |       |  0.25

Nlocal:        340.462 ave         367 max         319 min
Histogram: 1 5 6 12 8 10 3 2 2 3
Nghost:        5538.54 ave        5626 max        5453 min
Histogram: 5 4 11 6 2 5 2 4 1 12
Neighs:       107353.0 ave      116171 max       99379 min
Histogram: 3 2 9 8 8 8 5 2 3 4

Total # of neighbors = 5582378
Ave neighs/atom = 315.31733
Ave special neighs/atom = 0.0000000
Neighbor list builds = 654
Dangerous builds = 0
11760 atoms in group oxygen
PPPM initialization ...
  using 12-bit tables for long-range coulomb (../kspace.cpp:328)
  G vector (1/distance) = 0.29879775
  grid = 40 240 40
  stencil order = 5
  estimated absolute RMS force accuracy = 0.00015607635
  estimated relative force accuracy = 1.0838903e-05
  using single precision MKL FFT
  3d grid and FFT values/proc = 18225 7600
Neighbor list info ...
  update every 1 steps, delay 0 steps, check yes
  max neighbors/atom: 2000, page size: 100000
  master list distance cutoff = 13
  ghost atom cutoff = 13
  binsize = 6.5, bins = 5 52 5
  3 neighbor lists, perpetual/occasional/extra = 3 0 0
  (1) pair coul/long, perpetual
      attributes: half, newton on
      pair build: half/bin/newton
      stencil: half/bin/3d/newton
      bin: standard
  (2) pair eam/alloy, perpetual, skip from (1)
      attributes: half, newton on
      pair build: skip
      stencil: none
      bin: none
  (3) pair table, perpetual, skip from (1)
      attributes: half, newton on
      pair build: skip
      stencil: none
      bin: none
Setting up Verlet run ...
  Unit style    : metal
  Current step  : 0
  Time step     : 0.001
Per MPI rank memory allocation (min/avg/max) = 9.860 | 10.25 | 10.28 Mbytes
Step f_2 Temp v_Tdiff v_deltaT 
       0            0    599.34632            0            0 
  100000    686.95187    597.90767  0.018384462    213.44189 
  200000     1362.529    595.55651    0.0196555    228.19853 
  300000    2028.7015    600.16778  0.021325794    247.59049 
  400000    2701.7337    600.70745   0.02046764     237.6274 
  500000    3374.4189    598.00718  0.020846581    242.02687 
  600000    4045.6723    600.49582  0.020543782    238.51141 
  700000    4721.5684    596.30777  0.020755319    240.96733 
  800000    5396.7423    597.27613  0.020346398    236.21979 
  900000    6061.8285    597.00315   0.02095475     243.2827 
 1000000    6734.1203    602.53682  0.021030429    244.16133 
Loop time of 7325.87 on 52 procs for 1000000 steps with 17704 atoms

Performance: 11.794 ns/day, 2.035 hours/ns, 136.503 timesteps/s
99.8% CPU use with 52 MPI tasks x 1 OpenMP threads

MPI task timing breakdown:
Section |  min time  |  avg time  |  max time  |%varavg| %total
---------------------------------------------------------------
Pair    | 5196       | 5331.9     | 5532       | 104.0 | 72.78
Bond    | 0.083854   | 0.1431     | 0.222      |   7.4 |  0.00
Kspace  | 1540.9     | 1711.9     | 1830.5     | 167.3 | 23.37
Neigh   | 20.061     | 21.633     | 23.059     |  13.6 |  0.30
Comm    | 195.32     | 220.71     | 257.54     |  93.7 |  3.01
Output  | 0.0010802  | 0.0011517  | 0.0024423  |   0.5 |  0.00
Modify  | 7.0383     | 7.7769     | 9.4568     |  14.8 |  0.11
Other   |            | 31.85      |            |       |  0.43

Nlocal:        340.462 ave         368 max         325 min
Histogram: 8 4 5 16 10 2 2 3 1 1
Nghost:        5534.75 ave        5627 max        5453 min
Histogram: 4 6 10 4 8 5 3 0 2 10
Neighs:       107349.0 ave      115836 max       98943 min
Histogram: 1 4 7 5 8 11 9 1 2 4

Total # of neighbors = 5582151
Ave neighs/atom = 315.30451
Ave special neighs/atom = 0.0000000
Neighbor list builds = 6908
Dangerous builds = 0
Total wall time: 2:14:27
