LAMMPS (29 Oct 2020)
OMP_NUM_THREADS environment is not set. Defaulting to 1 thread. (../comm.cpp:94)
  using 1 OpenMP thread(s) per MPI task
OMP_NUM_THREADS environment is not set. Defaulting to 1 thread. (../comm.cpp:94)
  using 1 OpenMP thread(s) per MPI task
Reading data file ...
  orthogonal box = (-0.27717828 -3.4472206 -0.27717828) to (27.617178 331.52722 27.617178)
  2 by 13 by 2 MPI processor grid
  reading atoms ...
  18000 atoms
  reading velocities ...
  18000 velocities
Finding 1-2 1-3 1-4 neighbors ...
  special bond factors lj:    0.0      0.0      0.0     
  special bond factors coul:  0.0      0.0      0.0     
     0 = max # of 1-2 neighbors
     0 = max # of 1-3 neighbors
     0 = max # of 1-4 neighbors
     1 = max # of special neighbors
  special bonds CPU = 0.004 seconds
  read_data CPU = 0.087 seconds
75 atoms in group sphere
16 atoms in group oxygen
1 atoms in group thorium
59 atoms in group 1
60 atoms in group cluster
6000 atoms in group Th
12000 atoms in group O
20 atoms in group Th_group
40 atoms in group O_group
Setting atom values ...
  5 settings made for type/subset
5 atoms in group Xe
55 atoms in group delete
WARNING: Ignoring 'compress yes' for molecular system (../delete_atoms.cpp:125)
Deleted 55 atoms, new total = 17945
75 atoms in group sphere
1 atoms in group oxygen
16 atoms in group thorium
59 atoms in group 1
60 atoms in group cluster
5980 atoms in group Th
11960 atoms in group O
20 atoms in group Th_group
40 atoms in group O_group
Setting atom values ...
  5 settings made for type/subset
10 atoms in group Xe
55 atoms in group delete
WARNING: Ignoring 'compress yes' for molecular system (../delete_atoms.cpp:125)
Deleted 55 atoms, new total = 17890
75 atoms in group sphere
1 atoms in group oxygen
16 atoms in group thorium
59 atoms in group 1
60 atoms in group cluster
5960 atoms in group Th
11920 atoms in group O
20 atoms in group Th_group
40 atoms in group O_group
Setting atom values ...
  5 settings made for type/subset
15 atoms in group Xe
55 atoms in group delete
WARNING: Ignoring 'compress yes' for molecular system (../delete_atoms.cpp:125)
Deleted 55 atoms, new total = 17835
75 atoms in group sphere
1 atoms in group oxygen
16 atoms in group thorium
59 atoms in group 1
60 atoms in group cluster
5940 atoms in group Th
11880 atoms in group O
20 atoms in group Th_group
40 atoms in group O_group
Setting atom values ...
  5 settings made for type/subset
20 atoms in group Xe
55 atoms in group delete
WARNING: Ignoring 'compress yes' for molecular system (../delete_atoms.cpp:125)
Deleted 55 atoms, new total = 17780
75 atoms in group sphere
1 atoms in group oxygen
16 atoms in group thorium
59 atoms in group 1
60 atoms in group cluster
5920 atoms in group Th
11840 atoms in group O
20 atoms in group Th_group
40 atoms in group O_group
Setting atom values ...
  5 settings made for type/subset
25 atoms in group Xe
55 atoms in group delete
WARNING: Ignoring 'compress yes' for molecular system (../delete_atoms.cpp:125)
Deleted 55 atoms, new total = 17725
75 atoms in group sphere
1 atoms in group oxygen
16 atoms in group thorium
59 atoms in group 1
60 atoms in group cluster
5900 atoms in group Th
11800 atoms in group O
20 atoms in group Th_group
40 atoms in group O_group
Setting atom values ...
  5 settings made for type/subset
30 atoms in group Xe
55 atoms in group delete
WARNING: Ignoring 'compress yes' for molecular system (../delete_atoms.cpp:125)
Deleted 55 atoms, new total = 17670
Setting atom values ...
  11760 settings made for charge
Setting atom values ...
  5880 settings made for charge
Setting atom values ...
  30 settings made for charge
WARNING: 13 of 1000 force values in table Xe-Xe are inconsistent with -dE/dr.
  Should only be flagged at inflection points (../pair_table.cpp:461)
WARNING: 2 of 1000 force values in table Xe-O are inconsistent with -dE/dr.
  Should only be flagged at inflection points (../pair_table.cpp:461)
WARNING: 2 of 1000 force values in table Xe-Th are inconsistent with -dE/dr.
  Should only be flagged at inflection points (../pair_table.cpp:461)
PPPM initialization ...
  using 12-bit tables for long-range coulomb (../kspace.cpp:328)
  G vector (1/distance) = 0.29911933
  grid = 40 240 40
  stencil order = 5
  estimated absolute RMS force accuracy = 0.0001536463
  estimated relative force accuracy = 1.0670145e-05
  using single precision MKL FFT
  3d grid and FFT values/proc = 18225 7600
Neighbor list info ...
  update every 1 steps, delay 0 steps, check yes
  max neighbors/atom: 2000, page size: 100000
  master list distance cutoff = 13
  ghost atom cutoff = 13
  binsize = 6.5, bins = 5 52 5
  3 neighbor lists, perpetual/occasional/extra = 3 0 0
  (1) pair coul/long, perpetual
      attributes: half, newton on
      pair build: half/bin/newton
      stencil: half/bin/3d/newton
      bin: standard
  (2) pair eam/alloy, perpetual, skip from (1)
      attributes: half, newton on
      pair build: skip
      stencil: none
      bin: none
  (3) pair table, perpetual, skip from (1)
      attributes: half, newton on
      pair build: skip
      stencil: none
      bin: none
Setting up cg style minimization ...
  Unit style    : metal
  Current step  : 0
WARNING: Energy due to 3 extra global DOFs will be included in minimizer energies
Per MPI rank memory allocation (min/avg/max) = 10.35 | 10.95 | 11.16 Mbytes
Step Temp E_pair E_mol TotEng Press Volume 
       0            0   -230646.64            0   -230646.64     1195.165    260641.98 
     336            0    -231448.3            0    -231448.3    113.87849    261515.94 
Loop time of 6.91266 on 52 procs for 336 steps with 17670 atoms

99.6% CPU use with 52 MPI tasks x 1 OpenMP threads

Minimization stats:
  Stopping criterion = linesearch alpha is zero
  Energy initial, next-to-last, final = 
     -230646.643007392  -231448.295977294  -231448.295977294
  Force two-norm initial, final = 765.60068 42.252524
  Force max component initial, final = 569.02319 29.527132
  Final line search alpha, max atom move = 5.1210250e-12 1.5120918e-10
  Iterations, force evaluations = 336 593

MPI task timing breakdown:
Section |  min time  |  avg time  |  max time  |%varavg| %total
---------------------------------------------------------------
Pair    | 3.8669     | 4.0367     | 4.2364     |   4.9 | 58.40
Bond    | 4.8317e-05 | 7.9509e-05 | 0.00012122 |   0.0 |  0.00
Kspace  | 1.2013     | 1.4022     | 1.5731     |   8.4 | 20.28
Neigh   | 0.0026191  | 0.0033433  | 0.0042055  |   0.8 |  0.05
Comm    | 0.12608    | 0.12885    | 0.13205    |   0.4 |  1.86
Output  | 0          | 0          | 0          |   0.0 |  0.00
Modify  | 0          | 0          | 0          |   0.0 |  0.00
Other   |            | 1.342      |            |       | 19.41

Nlocal:        339.808 ave         412 max         282 min
Histogram: 6 4 6 11 6 6 6 0 1 6
Nghost:        5525.73 ave        5698 max        5374 min
Histogram: 2 6 7 8 8 3 8 5 4 1
Neighs:       107811.0 ave      132587 max       90990 min
Histogram: 6 7 9 4 7 12 0 1 1 5

Total # of neighbors = 5606165
Ave neighs/atom = 317.27023
Ave special neighs/atom = 0.0000000
Neighbor list builds = 1
Dangerous builds = 0
Resetting atom IDs ...
PPPM initialization ...
  using 12-bit tables for long-range coulomb (../kspace.cpp:328)
  G vector (1/distance) = 0.29905896
  grid = 40 240 40
  stencil order = 5
  estimated absolute RMS force accuracy = 0.0001541239
  estimated relative force accuracy = 1.0703313e-05
  using single precision MKL FFT
  3d grid and FFT values/proc = 18225 7600
Neighbor list info ...
  update every 1 steps, delay 0 steps, check yes
  max neighbors/atom: 2000, page size: 100000
  master list distance cutoff = 13
  ghost atom cutoff = 13
  binsize = 6.5, bins = 5 52 5
  3 neighbor lists, perpetual/occasional/extra = 3 0 0
  (1) pair coul/long, perpetual
      attributes: half, newton on
      pair build: half/bin/newton
      stencil: half/bin/3d/newton
      bin: standard
  (2) pair eam/alloy, perpetual, skip from (1)
      attributes: half, newton on
      pair build: skip
      stencil: none
      bin: none
  (3) pair table, perpetual, skip from (1)
      attributes: half, newton on
      pair build: skip
      stencil: none
      bin: none
Finding 1-2 1-3 1-4 neighbors ...
  special bond factors lj:    0.0      0.0      0.0     
  special bond factors coul:  0.0      0.0      0.0     
     0 = max # of 1-2 neighbors
     0 = max # of 1-3 neighbors
     0 = max # of 1-4 neighbors
     1 = max # of special neighbors
  special bonds CPU = 0.001 seconds
PPPM initialization ...
  using 12-bit tables for long-range coulomb (../kspace.cpp:328)
  G vector (1/distance) = 0.29905896
  grid = 40 240 40
  stencil order = 5
  estimated absolute RMS force accuracy = 0.0001541239
  estimated relative force accuracy = 1.0703313e-05
  using single precision MKL FFT
  3d grid and FFT values/proc = 18225 7600
Neighbor list info ...
  update every 1 steps, delay 0 steps, check yes
  max neighbors/atom: 2000, page size: 100000
  master list distance cutoff = 13
  ghost atom cutoff = 13
  binsize = 6.5, bins = 5 52 5
  3 neighbor lists, perpetual/occasional/extra = 3 0 0
  (1) pair coul/long, perpetual
      attributes: half, newton on
      pair build: half/bin/newton
      stencil: half/bin/3d/newton
      bin: standard
  (2) pair eam/alloy, perpetual, skip from (1)
      attributes: half, newton on
      pair build: skip
      stencil: none
      bin: none
  (3) pair table, perpetual, skip from (1)
      attributes: half, newton on
      pair build: skip
      stencil: none
      bin: none
Setting up Verlet run ...
  Unit style    : metal
  Current step  : 336
  Time step     : 0.001
Per MPI rank memory allocation (min/avg/max) = 9.229 | 9.863 | 10.03 Mbytes
Step Dt Time Atoms Temp PotEng KinEng Press Volume 
     336        0.001            0    17670          300    -231448.3    685.16925    2912.2035    261515.94 
   10000        0.001        9.664    17670    298.36148   -231186.42    681.42703    281.47022    262789.84 
   20000        0.001       19.664    17670    298.55324    -231190.5      681.865    -42.85146    262827.45 
   30000        0.001       29.664    17670    301.12431   -231203.88    687.73706   -881.21831    262921.99 
   40000        0.001       39.664    17670    298.82782   -231198.84    682.49212   -852.60135     262911.4 
   50000        0.001       49.664    17670    297.80991   -231201.94    680.16731    196.13083    262708.33 
   60000        0.001       59.664    17670    299.37376   -231209.49    683.73898    62.090967    262753.58 
   70000        0.001       69.664    17670    300.39666   -231204.88    686.07517   -61.874455    262759.61 
   80000        0.001       79.664    17670    300.43475   -231197.43    686.16218    95.776482    262768.31 
   90000        0.001       89.664    17670    300.48886   -231202.43    686.28576    588.91765    262672.29 
  100000        0.001       99.664    17670    296.83901   -231208.41    677.94988    1284.1119    262553.93 
  100336        0.001          100    17670    301.61486   -231206.51    688.85742   -434.04882     262813.8 
Loop time of 880.606 on 52 procs for 100000 steps with 17670 atoms

Performance: 9.811 ns/day, 2.446 hours/ns, 113.558 timesteps/s
99.8% CPU use with 52 MPI tasks x 1 OpenMP threads

MPI task timing breakdown:
Section |  min time  |  avg time  |  max time  |%varavg| %total
---------------------------------------------------------------
Pair    | 536.55     | 550.03     | 568.98     |  43.5 | 62.46
Bond    | 0.0088688  | 0.015193   | 0.022611   |   2.3 |  0.00
Kspace  | 179.46     | 198.52     | 212.26     |  73.1 | 22.54
Neigh   | 1.8284     | 1.9787     | 2.138      |   7.8 |  0.22
Comm    | 23.133     | 23.765     | 24.586     |   7.6 |  2.70
Output  | 0.053605   | 0.053652   | 0.055635   |   0.1 |  0.01
Modify  | 92.436     | 97.065     | 101.78     |  24.6 | 11.02
Other   |            | 9.181      |            |       |  1.04

Nlocal:        339.808 ave         370 max         311 min
Histogram: 5 4 7 7 4 3 8 7 4 3
Nghost:        5532.10 ave        5656 max        5423 min
Histogram: 6 6 8 5 1 3 12 5 2 4
Neighs:       107928.0 ave      119583 max       95404 min
Histogram: 1 5 13 5 0 4 5 9 6 4

Total # of neighbors = 5612255
Ave neighs/atom = 317.61488
Ave special neighs/atom = 0.0000000
Neighbor list builds = 626
Dangerous builds = 0
System init for write_data ...
PPPM initialization ...
  using 12-bit tables for long-range coulomb (../kspace.cpp:328)
  G vector (1/distance) = 0.29897274
  grid = 40 240 40
  stencil order = 5
  estimated absolute RMS force accuracy = 0.00015479178
  estimated relative force accuracy = 1.0749694e-05
  using single precision MKL FFT
  3d grid and FFT values/proc = 18225 7600
Neighbor list info ...
  update every 1 steps, delay 0 steps, check yes
  max neighbors/atom: 2000, page size: 100000
  master list distance cutoff = 13
  ghost atom cutoff = 13
  binsize = 6.5, bins = 5 52 5
  3 neighbor lists, perpetual/occasional/extra = 3 0 0
  (1) pair coul/long, perpetual
      attributes: half, newton on
      pair build: half/bin/newton
      stencil: half/bin/3d/newton
      bin: standard
  (2) pair eam/alloy, perpetual, skip from (1)
      attributes: half, newton on
      pair build: skip
      stencil: none
      bin: none
  (3) pair table, perpetual, skip from (1)
      attributes: half, newton on
      pair build: skip
      stencil: none
      bin: none
Total wall time: 0:14:48
