LAMMPS data file via write_data, version 29 Oct 2020, timestep = 100010

17760 atoms
3 atom types

-0.3734117636842306 27.713411763683116 xlo xhi
-4.5387100099261914 332.6187100099154 ylo yhi
-0.3664685814506463 27.706468581451002 zlo zhi

Masses

1 15.9994
2 232.0381
3 131.293

Atoms # full

1 0 2 2.2208 5.191726228091354 1.088390253259965 5.2468325161054 0 0 0
2 0 1 -1.1104 0.9872660498829621 -3.1283839077646194 0.9057748419718664 0 0 0
3 0 1 -1.1104 0.8815565688267497 2.4491782451422064 1.001026903077328 0 0 0
6 0 1 -1.1104 0.9227989301646778 -3.2019326174571594 3.7042123330340195 0 0 0
7 0 1 -1.1104 1.0458234131119155 2.4950568710135967 3.8193785199775023 0 0 0
10 0 1 -1.1104 0.8612594687452019 -0.3411266260942505 1.1101976639390456 0 0 0
12 0 2 2.2208 5.193296905368242 -1.7384950505871881 2.3967865685073027 0 0 0
13 0 2 2.2208 5.0996107837543985 3.7259968942857618 2.400853802710414 0 0 0
14 0 1 -1.1104 0.9171584648595166 -0.37545770341482987 3.8413214516087613 0 0 0
16 0 1 -1.1104 3.84842827420329 -3.304723332105779 1.1292239468868415 0 0 0
17 0 1 -1.1104 3.5226448430323414 2.3798300745720935 1.0490370712467056 0 0 0
18 0 2 2.2208 2.3814551215382607 1.0058551729839642 2.3824718755935677 0 0 0
19 0 1 -1.1104 3.8335251253561187 -3.1578205742200463 3.7898287154217325 0 0 0
20 0 1 -1.1104 3.7448411459877353 2.4471871277153463 3.913037926199553 0 0 0
21 0 2 2.2208 2.43896124489047 -1.7618385559386671 5.175761855740899 0 0 0
22 0 2 2.2208 2.278265220190995 3.9499413110663055 5.186286025918114 0 0 0
23 0 1 -1.1104 3.6731487351147787 -0.41915455238802984 1.0472996706338678 0 0 0
24 0 1 -1.1104 3.8806509432533605 -0.4549455264713996 3.7135731189395007 0 0 0
167 0 1 -1.1104 0.8962438695947669 2.538231218480419 6.565513396622983 0 0 0
172 0 1 -1.1104 3.8859504739342277 -3.199267018024265 6.671932631249516 0 0 0
11 0 1 -1.1104 6.603235923312227 -0.22284235243589234 0.9867497591288852 0 0 0
311 0 2 2.2208 -0.31914333367166847 3.881768734598224 13.64923551052115 0 0 0
15 0 1 -1.1104 6.7051396667688685 -0.26064843564182627 3.8866323291971763 0 0 0
8078 0 2 2.2208 8.108649539326915 -4.379116177380432 2.4966103963155164 0 0 0
8698 0 2 2.2208 13.600602163463039 12.366516029142524 8.135166669131003 0 0 0
174 0 1 -1.1104 3.83043314360465 -0.30777754863880036 6.574011168670335 0 0 0
8646 0 2 2.2208 13.625433846309836 1.1655094133126185 8.054195931111776 0 0 0
4 0 1 -1.1104 6.604349185131632 -3.113575627892372 1.0457965182327917 0 0 0
5 0 1 -1.1104 6.3126632146011605 2.3990757186055998 1.072412879540357 0 0 0
169 0 1 -1.1104 6.611651277878592 2.6308367579867533 6.71319523900963 0 0 0
9 0 1 -1.1104 6.522099755486662 2.4620705248707044 3.9110500374915604 0 0 0
8 0 1 -1.1104 6.795491859782936 -2.9473133027963336 3.91266369171689 0 0 0
31 0 2 2.2208 10.709422207682385 1.131912306302585 5.2132151314384 0 0 0
32 0 1 -1.1104 12.14009281238835 -3.1861415056152804 1.1101041012296518 0 0 0
33 0 1 -1.1104 12.123003099263455 2.4467354283601908 0.9522283662649683 0 0 0
34 0 1 -1.1104 12.240812067287832 -3.1009271096903417 3.83893761636979 0 0 0
35 0 1 -1.1104 12.157128861033717 2.3802198193904194 3.81814912158845 0 0 0
36 0 1 -1.1104 12.201345398907039 -0.2977182495401034 1.0706406247028668 0 0 0
37 0 2 2.2208 10.79589261442849 -1.6942138484136582 2.531340042935 0 0 0
39 0 1 -1.1104 12.252020257807391 -0.38248654682025623 3.8849030853295994 0 0 0
40 0 1 -1.1104 9.407413089286349 -3.0809346196253102 1.1700606611208055 0 0 0
41 0 1 -1.1104 9.257034360300882 2.4539877768279115 1.1738587359800718 0 0 0
42 0 2 2.2208 7.899561528587209 1.055179253728195 2.5031582977217415 0 0 0
43 0 1 -1.1104 9.463032871266458 -3.06371486450561 4.042248293675038 0 0 0
44 0 1 -1.1104 9.349189697354966 2.477853967512032 3.8589426633468182 0 0 0
45 0 2 2.2208 8.009820056132902 -1.6594455673220838 5.336693853120434 0 0 0
47 0 1 -1.1104 9.343354057402864 -0.343772826183745 1.011947814358839 0 0 0
48 0 1 -1.1104 9.487432143427641 -0.29446927996526123 3.8213867572434155 0 0 0
46 0 2 2.2208 7.927830144343283 3.8207247353793687 5.181595094137785 0 0 0
38 0 2 2.2208 10.660712752387562 3.8598995999254107 2.31914001909792 0 0 0
168 0 1 -1.1104 6.646422129108189 -3.1055752168250157 6.707046580128242 0 0 0
209 0 1 -1.1104 9.373011288088794 2.6064868187649046 6.544342218118387 0 0 0
208 0 1 -1.1104 9.503210642815029 -3.1526409092928125 6.760184716872552 0 0 0
207 0 1 -1.1104 12.067642427042571 -0.14404212117427712 6.7172084836488395 0 0 0
205 0 1 -1.1104 12.298337664369996 -3.0245851853608015 6.616157349294977 0 0 0
210 0 1 -1.1104 9.379984821164644 -0.29953774131496347 6.613444765539601 0 0 0
8869 0 2 2.2208 13.590130668500896 9.50268075735685 -0.354183547783572 0 0 0
232 0 2 2.2208 7.961975039318158 18.032441100309452 8.160816219368764 0 0 0
8083 0 2 2.2208 8.171341240042235 -4.423104083784892 8.113754579371303 0 0 0
54 0 2 2.2208 5.1089695920789575 6.545823764284274 5.171986761428334 0 0 0
55 0 2 2.2208 5.146770743958488 12.15678856796561 5.221408453497422 0 0 0
56 0 1 -1.1104 1.080045256071409 8.012863464501569 0.9918446548894881 0 0 0
58 0 1 -1.1104 1.0340026301024103 8.095109790468154 3.793399277556688 0 0 0
60 0 1 -1.1104 0.9916595991408079 5.264217661272772 0.9655681407558645 0 0 0
61 0 1 -1.1104 0.983488704445093 10.870607748517832 0.8741325448768699 0 0 0
66 0 2 2.2208 5.084719294577961 9.56777854932547 2.4876634712497916 0 0 0
67 0 1 -1.1104 0.8154003646246234 5.259891800294172 3.8450080294191458 0 0 0
68 0 1 -1.1104 0.8428716244865336 10.826858841576346 3.7319026038999277 0 0 0
71 0 1 -1.1104 3.6582806863569814 8.278071578804267 1.0666478926562852 0 0 0
72 0 2 2.2208 2.4191955811382275 6.61853540917518 2.408319681698001 0 0 0
73 0 2 2.2208 2.321564094464361 12.152204250264088 2.465466194685946 0 0 0
74 0 1 -1.1104 3.854499329681481 8.00616358701133 3.751651783339802 0 0 0
75 0 2 2.2208 2.307501041615678 9.40837326794354 5.245052296601045 0 0 0
76 0 1 -1.1104 3.9183621616829463 5.302168567271961 0.8186309100794406 0 0 0
77 0 1 -1.1104 3.701814018588671 11.076388088155426 1.0883396861859806 0 0 0
79 0 1 -1.1104 3.5796616691640954 5.290545341315182 3.7346406739196785 0 0 0
80 0 1 -1.1104 3.6965578321407504 10.835068323139797 3.968702731777024 0 0 0
236 0 1 -1.1104 0.8847366864942869 5.383753836133734 6.7259207024967544 0 0 0
238 0 1 -1.1104 3.626134074706712 7.856857958477387 6.65220620112065 0 0 0
57 0 1 -1.1104 6.509036997206885 8.060548491173863 0.9045012167409022 0 0 0
64 0 1 -1.1104 6.620814487824642 10.846372485401965 1.0506461646479757 0 0 0
59 0 1 -1.1104 6.506797124931767 8.08594446258403 3.8214075301784445 0 0 0
69 0 1 -1.1104 6.312795323557021 5.253011761139056 3.638254872015662 0 0 0
237 0 1 -1.1104 6.414178180058593 5.258176207785063 6.546362000900037 0 0 0
9046 0 2 2.2208 13.520027526701202 3.7841347093403805 -0.31311328211755757 0 0 0
8079 0 2 2.2208 10.892687187661828 -4.478421105043321 5.313612596630239 0 0 0
8681 0 2 2.2208 13.512571634694623 6.649865772392279 2.5176254975863612 0 0 0
63 0 1 -1.1104 6.525230582733612 5.268490948648527 0.9185696432568791 0 0 0
70 0 1 -1.1104 6.6205334285753565 10.854492039683587 3.754247441463982 0 0 0
84 0 2 2.2208 10.585765304355682 6.628740525031988 5.211400283346757 0 0 0
85 0 2 2.2208 10.657573882357438 12.295670067036218 5.234788380308238 0 0 0
86 0 1 -1.1104 12.212718127389035 8.222455693174517 1.0606724213344265 0 0 0
87 0 1 -1.1104 12.069808591039196 8.06499392560063 3.895348331013319 0 0 0
88 0 1 -1.1104 12.075063857304036 5.416804667954421 1.0530549089633994 0 0 0
89 0 1 -1.1104 12.096251011088524 10.936588781948734 1.0078014236894075 0 0 0
91 0 2 2.2208 10.755794129796922 9.473394318060684 2.468919380058785 0 0 0
92 0 1 -1.1104 12.044051718229566 5.162458077558324 3.8286828502447765 0 0 0
93 0 1 -1.1104 12.237489093012819 10.82888604640895 3.7918972823266697 0 0 0
94 0 1 -1.1104 9.274228639601676 8.135746863674454 1.0829779939710178 0 0 0
95 0 2 2.2208 7.84745566108909 6.681162061019236 2.3681036038761922 0 0 0
96 0 2 2.2208 7.934075249148616 12.271479306530225 2.341173866493819 0 0 0
97 0 1 -1.1104 9.2373297112068 8.027934761300292 3.817172103687817 0 0 0
98 0 2 2.2208 7.981236771338329 9.412209190636085 5.1813761485694 0 0 0
99 0 1 -1.1104 9.304681992140715 5.28874022530929 1.1644001225800418 0 0 0
100 0 1 -1.1104 9.374010948568008 10.87726379634855 1.1714999891509337 0 0 0
102 0 1 -1.1104 9.085386079724064 5.153071100959155 3.662178325316752 0 0 0
103 0 1 -1.1104 9.422147750140898 10.946539803416139 3.7446854512904286 0 0 0
8080 0 2 2.2208 2.433022144698957 -4.469400411317395 8.020634112817637 0 0 0
9016 0 2 2.2208 -0.23831543943073155 20.714557494423346 13.547375140734854 0 0 0
25 0 2 2.2208 10.922855929808058 17.899577641860006 10.877671789050165 0 0 0
204 0 1 -1.1104 9.391645895987736 19.365936032951033 9.383113892122784 0 0 0
53 0 1 -1.1104 12.382238540212086 19.213866871300617 9.444648185139416 0 0 0
317 0 2 2.2208 10.821315022993591 -1.6439764377946033 13.62637153943297 0 0 0
17393 0 2 2.2208 13.60802290312981 -4.507291645498356 2.4499441805690965 0 0 0
106 0 2 2.2208 5.301326825617879 17.8951468504236 5.261830573809761 0 0 0
107 0 1 -1.1104 0.9996132096598184 13.617864150872016 0.96162151911739 0 0 0
109 0 1 -1.1104 0.7765018777616396 19.18184191196112 0.824609099864561 0 0 0
113 0 1 -1.1104 1.0327985224138314 13.657054032413326 3.811907385657711 0 0 0
114 0 1 -1.1104 0.9600016490092618 19.12305439323224 3.8202396516735613 0 0 0
116 0 1 -1.1104 0.9310402087261495 16.444414913868947 0.9718742751181502 0 0 0
119 0 2 2.2208 5.160249735192853 14.975303518160356 2.3337669096657216 0 0 0
120 0 2 2.2208 5.1627892033209575 20.712353934873768 2.454158954016364 0 0 0
121 0 1 -1.1104 0.9093588258867537 16.364044589892703 3.8436098390945626 0 0 0
123 0 1 -1.1104 3.6691817699196108 13.701286621425904 1.1014154008200692 0 0 0
125 0 1 -1.1104 3.6839287373131504 19.337762665280255 1.0408958682119842 0 0 0
127 0 2 2.2208 2.378004619718634 17.80898679567418 2.374174620757653 0 0 0
128 0 1 -1.1104 3.854423157547135 13.69974463054507 3.8436111968348246 0 0 0
129 0 1 -1.1104 3.570906560408635 19.258309425151207 3.8318747745492288 0 0 0
130 0 2 2.2208 2.410320740731807 15.074238762246434 5.159445863395743 0 0 0
131 0 2 2.2208 2.3100744359269907 20.741921056271064 5.133394395062515 0 0 0
132 0 1 -1.1104 3.720063715945103 16.485042737269406 1.036057507434143 0 0 0
134 0 1 -1.1104 3.8490383646613675 16.571529408503803 3.9230333526778103 0 0 0
139 0 1 -1.1104 6.417790110003333 19.341832891991 3.8438977734718347 0 0 0
138 0 1 -1.1104 6.441969235954267 19.421370310553357 0.9524405407342404 0 0 0
140 0 1 -1.1104 6.514932607259517 16.554907840569754 1.152780009238394 0 0 0
302 0 1 -1.1104 1.0064457332952488 19.24726089102111 6.5651544201350305 0 0 0
122 0 1 -1.1104 6.666625070605844 16.602320941603665 3.883905029250173 0 0 0
110 0 1 -1.1104 6.545936850397892 13.795185924050443 1.0513330894036137 0 0 0
8077 0 2 2.2208 5.288201358652178 -4.523383239740345 5.371064968658865 0 0 0
497 0 2 2.2208 5.219267941525362 15.234741226364417 13.615962590338011 0 0 0
8900 0 2 2.2208 13.566496185148763 15.164974490405847 -0.3591081613442426 0 0 0
115 0 1 -1.1104 6.510451078889152 13.645887754382558 3.9524611733462107 0 0 0
141 0 2 2.2208 10.86439980988762 17.93778412961902 5.2380478482933235 0 0 0
142 0 1 -1.1104 12.189003660960907 13.795116344605617 1.0330461275199956 0 0 0
144 0 1 -1.1104 12.178395678432489 19.375827589965557 1.2522839175145322 0 0 0
146 0 1 -1.1104 12.165756320475946 13.692743075770641 3.8121410606500494 0 0 0
147 0 1 -1.1104 12.396825636625064 19.341180521205427 3.9402038597806435 0 0 0
148 0 1 -1.1104 12.21397979237906 16.576733731633393 1.0408348454003602 0 0 0
150 0 2 2.2208 10.81440000398117 15.115652337361448 2.512162433439256 0 0 0
151 0 2 2.2208 10.778001827200624 20.730645312993307 2.4359772710659966 0 0 0
152 0 1 -1.1104 12.237641268686039 16.490796780650594 3.94155424144961 0 0 0
153 0 1 -1.1104 9.20383580296579 13.717142813204756 1.0543645726484827 0 0 0
155 0 1 -1.1104 9.187979701675287 19.320998219244487 0.9194673297540809 0 0 0
157 0 2 2.2208 8.075389079158313 17.88390312469197 2.396566886689097 0 0 0
158 0 1 -1.1104 9.39410307701556 13.796338914155463 3.7581144063785206 0 0 0
159 0 1 -1.1104 9.418418088128522 19.354642431160684 3.7121939826244286 0 0 0
160 0 2 2.2208 8.038464656444877 15.183809251072953 5.383483859281144 0 0 0
161 0 2 2.2208 7.9523138187779185 20.763860942838665 5.261857930076822 0 0 0
162 0 1 -1.1104 9.48359726002927 16.565780862918313 0.9336323829876457 0 0 0
164 0 1 -1.1104 9.475588822355036 16.608379246704256 3.9263013957127995 0 0 0
143 0 1 -1.1104 12.155781213187895 13.664184556520366 6.83565141350409 0 0 0
163 0 1 -1.1104 9.358630888642736 16.505718376089074 6.769761814242329 0 0 0
154 0 1 -1.1104 9.343777535704389 13.762656279487594 6.743331239363095 0 0 0
8488 0 2 2.2208 -0.32035065792025785 17.833419053135962 10.799099967714604 0 0 0
8697 0 2 2.2208 13.533582407584252 6.757717027393335 8.075519427358422 0 0 0
8899 0 2 2.2208 13.580137007783927 20.813362030177867 -0.27084807165495206 0 0 0
104 0 1 -1.1104 12.194202173973586 16.51133299625298 12.358964738851693 0 0 0
166 0 1 -1.1104 1.1802340070656896 -3.166834112899836 6.574180818315843 0 0 0
170 0 1 -1.1104 1.048424097925325 -0.42648146911064566 6.622940850509305 0 0 0
173 0 1 -1.1104 3.6817197142850184 2.486773958127985 6.545839316905063 0 0 0
175 0 2 2.2208 5.231919352131616 1.020400372225105 10.840319693595546 0 0 0
176 0 1 -1.1104 0.9690144496242532 -3.1553004277016328 12.228114480726346 0 0 0
177 0 1 -1.1104 0.9092500696439214 2.5116119977306486 12.17932679255639 0 0 0
180 0 1 -1.1104 0.8878506779167121 -3.0441971271581196 9.416355162486395 0 0 0
181 0 1 -1.1104 1.0565809720717318 2.5254863307869906 9.455047918318767 0 0 0
184 0 1 -1.1104 1.0797238331183052 -0.32272196455152724 12.164393495244134 0 0 0
186 0 2 2.2208 5.196818305778574 -1.6355644796369861 8.031185172987472 0 0 0
188 0 1 -1.1104 0.8646980133577311 -0.1592250602168917 9.459074965324263 0 0 0
190 0 1 -1.1104 3.6750190125046722 -3.2310183676064477 12.296420858829848 0 0 0
191 0 1 -1.1104 3.8376037209468534 2.369096016630378 12.152897658639045 0 0 0
192 0 2 2.2208 2.3471435600939183 1.063212007608494 7.950632897735592 0 0 0
193 0 1 -1.1104 3.7994981259621596 -3.0976858046003053 9.403039674304884 0 0 0
194 0 1 -1.1104 3.8062276451204977 2.49553751437522 9.348111407390855 0 0 0
195 0 2 2.2208 2.3600910265650055 -1.7362549392718474 10.849148723812288 0 0 0
197 0 1 -1.1104 3.800578767371367 -0.42800643547194106 12.12174537974105 0 0 0
198 0 1 -1.1104 3.7754987382337046 -0.23559688716666777 9.312757523725251 0 0 0
187 0 2 2.2208 5.130733941198387 3.7930029613623817 8.043421368067161 0 0 0
196 0 2 2.2208 2.5383547464241563 3.9488093648568783 10.823083119683767 0 0 0
580 0 2 2.2208 10.76977909709773 1.0583830378231633 -0.28024307868567844 0 0 0
179 0 1 -1.1104 6.504549706034513 2.397658615175485 12.31745777961447 0 0 0
189 0 1 -1.1104 6.602913526938524 -0.17808054776660104 9.444846394749508 0 0 0
178 0 1 -1.1104 6.536958218872885 -3.1903426832229727 12.105281070018302 0 0 0
185 0 1 -1.1104 6.741478094997804 -0.34171652518664614 12.203628903581633 0 0 0
182 0 1 -1.1104 6.678101611607514 -3.044599662990684 9.399806158005001 0 0 0
288 0 1 -1.1104 6.519596070885913 19.40986003557771 9.492701740376994 0 0 0
313 0 2 2.2208 5.146839085399062 -1.7682068700353353 13.593406949516528 0 0 0
171 0 1 -1.1104 6.619410804945345 -0.2527004840682414 6.618327607471377 0 0 0
206 0 1 -1.1104 12.16735324307262 2.603638320977822 6.643095284103366 0 0 0
8515 0 2 2.2208 13.518688861007806 9.59397155354919 5.387629141171684 0 0 0
8647 0 2 2.2208 13.587375428930294 17.922843034506567 2.487433261831693 0 0 0
165 0 2 2.2208 10.809698683181244 20.658624873984422 8.042198639043828 0 0 0
231 0 1 -1.1104 9.36962089014047 13.648367140148254 9.48675615185394 0 0 0
183 0 1 -1.1104 6.492938375093642 2.596567047954299 9.59127048714208 0 0 0
211 0 2 2.2208 10.816466836356826 1.0778873185054723 10.871793309425694 0 0 0
212 0 1 -1.1104 12.296353232713702 -3.213500105588467 12.289698406428913 0 0 0
213 0 1 -1.1104 12.131421426635447 2.301963307276282 12.30084272325785 0 0 0
214 0 1 -1.1104 12.238222346469184 -3.3138572888800306 9.47584796663411 0 0 0
215 0 1 -1.1104 12.080084836041971 2.5125200853518574 9.494799066426607 0 0 0
216 0 1 -1.1104 12.270181463908246 -0.35358222795176797 12.250228339784234 0 0 0
217 0 2 2.2208 10.8918471068686 -1.6908175229406788 7.992541112800188 0 0 0
218 0 2 2.2208 10.689257485740605 3.8754272283144378 7.985783313178988 0 0 0
219 0 1 -1.1104 12.320941244550927 -0.37489117428813135 9.493301648944616 0 0 0
220 0 1 -1.1104 9.35194702246839 -3.031090476234013 12.201330173765042 0 0 0
221 0 1 -1.1104 9.38418862522405 2.5165814186860667 12.203994751749887 0 0 0
222 0 2 2.2208 8.107580640797629 1.1504023947343496 8.069340657863137 0 0 0
223 0 1 -1.1104 9.522827914465278 -2.9330284394400024 9.547053891448053 0 0 0
224 0 1 -1.1104 9.39454573291737 2.4968360342932248 9.373989556474122 0 0 0
225 0 2 2.2208 8.056136790273156 -1.7055239643011146 10.904022707626629 0 0 0
226 0 2 2.2208 8.0383327187085 4.018788473956998 10.762671069716887 0 0 0
227 0 1 -1.1104 9.466601283642268 -0.2092214781467574 12.287128257603186 0 0 0
228 0 1 -1.1104 9.385835326489836 -0.3104572208988135 9.352758611888815 0 0 0
203 0 1 -1.1104 9.563889102823476 16.558463564849845 9.573027838661861 0 0 0
296 0 1 -1.1104 6.6437930988833465 19.301558764472084 12.276620756077428 0 0 0
8708 0 2 2.2208 -0.3471699991373747 12.348722948462111 10.7458661695451 0 0 0
230 0 1 -1.1104 9.510549627610379 13.70112776736914 12.249896226605227 0 0 0
78 0 1 -1.1104 3.745526251837504 10.967308678572081 6.706742542058153 0 0 0
62 0 1 -1.1104 0.9876517922799108 10.910803871795403 6.576321960060332 0 0 0
239 0 1 -1.1104 3.6795241967566565 5.2374933131899795 6.4909542339456685 0 0 0
234 0 1 -1.1104 0.9002875225322174 8.097635516274414 6.590364813384464 0 0 0
235 0 1 -1.1104 6.3741658495659745 8.083807520784925 6.597356312162826 0 0 0
65 0 1 -1.1104 6.556695154678472 10.908853191183432 6.697201984808757 0 0 0
51 0 2 2.2208 8.072221692754212 14.978805901694537 10.84133054240331 0 0 0
240 0 2 2.2208 5.3219153266528725 6.599157955887356 10.825012505378071 0 0 0
241 0 2 2.2208 5.084355217472283 12.240989088770645 10.830086833651766 0 0 0
242 0 1 -1.1104 1.0686003356123395 8.086586744477648 12.183343712734906 0 0 0
244 0 1 -1.1104 0.8729237030704678 8.08945177393638 9.274335629762762 0 0 0
246 0 1 -1.1104 0.8956948907696031 5.315161894792885 12.25311779179063 0 0 0
247 0 1 -1.1104 0.9680561173855567 10.906192522025574 12.135146701545132 0 0 0
250 0 2 2.2208 5.190997659163453 9.456741050855552 8.047773092860075 0 0 0
251 0 1 -1.1104 1.0613223636522442 5.343965427110025 9.40249926359768 0 0 0
252 0 1 -1.1104 0.9623651272034033 10.877642978844014 9.339722894848299 0 0 0
255 0 1 -1.1104 3.9922168377116214 8.080484780782506 12.179129177067717 0 0 0
256 0 2 2.2208 2.467139593123156 6.670321880146445 8.084219173775125 0 0 0
257 0 2 2.2208 2.428994101030507 12.376404700671618 7.956280831599404 0 0 0
258 0 1 -1.1104 3.767021758477688 8.089840751362292 9.460371076411958 0 0 0
259 0 2 2.2208 2.288964052076596 9.423808170288693 10.766405757251217 0 0 0
260 0 1 -1.1104 3.973642376647001 5.188306814336217 12.313904631012148 0 0 0
261 0 1 -1.1104 3.8444432786500755 11.018631669563627 12.362568486791497 0 0 0
262 0 1 -1.1104 3.8678971049941233 5.3228924384327225 9.496016479515887 0 0 0
263 0 1 -1.1104 3.6468561587917514 10.96472541598256 9.498090798379973 0 0 0
269 0 1 -1.1104 9.13589358618767 5.332723670545165 6.607468637160229 0 0 0
90 0 1 -1.1104 12.063262689226743 10.957935497444021 6.660076998035682 0 0 0
267 0 1 -1.1104 9.190061261219393 8.048900132583565 6.622935546254561 0 0 0
101 0 1 -1.1104 9.319991467742751 10.89632326824885 6.511265315193382 0 0 0
266 0 1 -1.1104 11.948598123604107 5.4192126787767485 6.663679005373593 0 0 0
8486 0 2 2.2208 13.51476074404936 3.93515507844194 5.179035915605721 0 0 0
265 0 1 -1.1104 12.077711135351628 8.181373831251557 6.664932144842806 0 0 0
249 0 1 -1.1104 6.628676450640997 10.771578319465357 12.116893653601073 0 0 0
254 0 1 -1.1104 6.530229252850095 10.818466630945391 9.399410992511562 0 0 0
253 0 1 -1.1104 6.6626018673223655 5.234778275404702 9.28995629458669 0 0 0
248 0 1 -1.1104 6.616571973398591 5.1772098825517485 12.217096407063815 0 0 0
243 0 1 -1.1104 6.660647256509404 8.037672948676278 12.30630346030498 0 0 0
245 0 1 -1.1104 6.599545467085644 7.988743403515491 9.31391716175586 0 0 0
264 0 1 -1.1104 9.365476496218754 10.835600988611613 9.490579333427121 0 0 0
268 0 1 -1.1104 9.437165583060485 5.282175550484503 9.424469064221988 0 0 0
270 0 1 -1.1104 9.432052598586186 10.854374554464632 12.15768281586878 0 0 0
271 0 1 -1.1104 9.456811102971159 5.267811382992432 12.336921021503903 0 0 0
272 0 2 2.2208 7.992262766816699 9.518351670072992 10.895479989066361 0 0 0
273 0 1 -1.1104 9.427353894111368 8.017235252737473 9.592987977980078 0 0 0
274 0 2 2.2208 7.938987959328504 12.397637070940654 8.119112958428605 0 0 0
275 0 2 2.2208 7.9014682070153395 6.620924319160846 7.978323126379027 0 0 0
276 0 2 2.2208 10.878048855532054 6.654962102935476 10.879303872206386 0 0 0
277 0 2 2.2208 10.879436802581676 12.297412022581604 11.056571532354065 0 0 0
278 0 1 -1.1104 12.316785591581613 8.03939638033796 12.2566125125843 0 0 0
279 0 1 -1.1104 12.348547732786162 8.102270506348829 9.356937800061456 0 0 0
280 0 1 -1.1104 12.196368540875975 5.182005752202908 12.233810706751644 0 0 0
281 0 1 -1.1104 12.315707777007963 10.80041682205975 12.25799838634814 0 0 0
282 0 2 2.2208 10.735397853005605 9.523497411018333 8.015250460797773 0 0 0
283 0 1 -1.1104 12.262120582348516 5.320569151352972 9.464670935668776 0 0 0
284 0 1 -1.1104 12.235740290754341 10.91877920256732 9.421782564802259 0 0 0
285 0 1 -1.1104 9.533519195857526 8.087646049302819 12.454277804286075 0 0 0
124 0 1 -1.1104 3.8041189964521176 13.717027861814332 6.521976411514877 0 0 0
117 0 1 -1.1104 0.988318650274941 16.42878421685771 6.59650775349503 0 0 0
133 0 1 -1.1104 3.8369131384782427 16.55620896853046 6.755425928104137 0 0 0
306 0 1 -1.1104 6.508137660394641 16.435951598165953 12.207372197962469 0 0 0
229 0 1 -1.1104 12.305165342157055 16.488764090871932 9.560190576746342 0 0 0
297 0 1 -1.1104 6.5788641672124575 13.590587463077496 12.245493990791392 0 0 0
126 0 1 -1.1104 3.6675498015329104 19.46856359842676 6.541635079104798 0 0 0
289 0 1 -1.1104 6.768784479949192 16.548974490454125 9.591728248621463 0 0 0
108 0 1 -1.1104 1.0400134254470192 13.724318888162836 6.596704781735718 0 0 0
310 0 2 2.2208 2.3321930844242122 15.22855596151901 10.82031610794919 0 0 0
309 0 2 2.2208 2.489649439111571 20.645991882093764 10.760280008460942 0 0 0
308 0 1 -1.1104 3.6740418059234634 16.57578044385522 12.220008119897814 0 0 0
286 0 1 -1.1104 3.8630803934773263 19.248167902274698 12.191438835422344 0 0 0
287 0 1 -1.1104 3.7358190084763345 13.769743034527025 12.15549681542527 0 0 0
291 0 1 -1.1104 1.2346264564665805 19.19187642802172 9.4508833918938 0 0 0
292 0 1 -1.1104 1.0259768805431384 16.404416774391837 9.370427155664636 0 0 0
293 0 2 2.2208 5.255097135181526 20.814616057075987 7.921887615894964 0 0 0
294 0 1 -1.1104 1.0442059228949778 13.705272387077162 9.209814443947065 0 0 0
295 0 2 2.2208 5.213686586717367 15.097423048928746 8.036391996842944 0 0 0
298 0 1 -1.1104 0.9911380436765636 19.413992997720914 12.154425336559735 0 0 0
299 0 1 -1.1104 1.0530736170193271 13.657969707309249 12.080187035042368 0 0 0
300 0 2 2.2208 5.2513378486204685 17.97522341073374 10.899324371674032 0 0 0
301 0 1 -1.1104 3.824022043207752 19.320712091048797 9.438297313205862 0 0 0
303 0 2 2.2208 2.4741437659029026 17.83239608319513 7.9608364543455306 0 0 0
304 0 1 -1.1104 3.8687011765341035 16.63753673631353 9.50113158426823 0 0 0
305 0 1 -1.1104 3.905202068956662 13.740314983096441 9.41653687968393 0 0 0
307 0 1 -1.1104 1.0760024570522233 16.637917494768548 12.23685654921581 0 0 0
290 0 1 -1.1104 6.669159226580556 13.743621467891654 9.382010871869646 0 0 0
105 0 2 2.2208 10.756875134837973 15.078769897832622 8.110079798372846 0 0 0
111 0 1 -1.1104 6.590312295571318 13.700735129163988 6.689105633009066 0 0 0
112 0 1 -1.1104 6.726129847737704 19.31010826326753 6.606523069147878 0 0 0
52 0 2 2.2208 8.063274008410815 20.77328058973087 10.916903839406828 0 0 0
118 0 1 -1.1104 6.61027179388461 16.62869695070144 6.7685453793277395 0 0 0
149 0 1 -1.1104 12.131443610408345 16.357271351140458 6.519596468152956 0 0 0
156 0 1 -1.1104 9.5298679392063 19.262968094056227 6.562187123813232 0 0 0
145 0 1 -1.1104 12.273478225823721 19.276974571499345 6.644280621187579 0 0 0
50 0 1 -1.1104 12.359547807414017 13.678670514906255 9.640670351198462 0 0 0
49 0 1 -1.1104 12.229074317330781 19.34582351196116 12.326210414296195 0 0 0
233 0 1 -1.1104 9.45615966534461 19.29457968157666 12.117540811667407 0 0 0
202 0 1 -1.1104 9.31486703201404 16.483242879103653 12.189154108165233 0 0 0
30 0 1 -1.1104 12.248686964963886 13.634532641138605 12.247876930376513 0 0 0
314 0 2 2.2208 2.3307855942443925 1.0777036091117138 13.573202047391426 0 0 0
524 0 2 2.2208 7.9955186843121355 17.779393779031924 13.51127602103287 0 0 0
322 0 2 2.2208 11.018593164203406 9.526157139327704 13.666795036867601 0 0 0
642 0 2 2.2208 10.751684627127135 12.35495107795145 -0.3393285286701739 0 0 0
434 0 2 2.2208 2.3700845555482473 12.337628948924262 13.51814338012663 0 0 0
319 0 2 2.2208 2.525125127630646 6.6180852243674195 13.538477073174395 0 0 0
320 0 2 2.2208 5.161449546151336 9.460588418025752 13.524399355622755 0 0 0
8584 0 2 2.2208 13.589413471553693 14.997524018669674 5.21275521986094 0 0 0
461 0 2 2.2208 8.010218381120055 12.307371567058937 13.613335979968214 0 0 0
522 0 2 2.2208 10.842952273552312 20.641938670538728 13.661633435047644 0 0 0
495 0 2 2.2208 2.469935393286767 17.922495216837035 13.642250124897124 0 0 0
8513 0 2 2.2208 -0.3073061977834186 20.533683877048325 7.99945521252283 0 0 0
496 0 2 2.2208 5.243553179540884 20.77350477749688 13.535452036759242 0 0 0
8621 0 2 2.2208 13.448369924863453 3.8432158728862795 10.728885383619076 0 0 0
8487 0 2 2.2208 -0.3694724337011337 14.976553101294387 7.990361760893188 0 0 0
8092 0 2 2.2208 7.939356746912515 -4.5244456763896705 13.668787341961128 0 0 0
8784 0 2 2.2208 13.635974397277119 15.122037360616966 11.024328691936889 0 0 0
9015 0 2 2.2208 -0.2993379637931106 15.104481827220074 13.65401154226327 0 0 0
8785 0 2 2.2208 13.592796118766833 17.898457315654177 8.089106708133638 0 0 0
82 0 2 2.2208 -0.3218008887758259 9.378476118461716 2.3571424852465896 0 0 0
17392 0 2 2.2208 -0.32276181262994896 -4.521990425086773 5.155513284082533 0 0 0
640 0 2 2.2208 10.754238546553482 6.6667212906086135 -0.34411015818154667 0 0 0
8226 0 2 2.2208 10.711043901387658 -4.409005382603027 -0.3639965287039679 0 0 0
316 0 2 2.2208 8.023280486874702 1.1070803849139215 13.619134221942597 0 0 0
581 0 2 2.2208 7.96593580034414 -1.6902965091692872 -0.360805608671825 0 0 0
321 0 2 2.2208 8.122979451437205 6.650841261309618 13.665308255530277 0 0 0
523 0 2 2.2208 10.836071368538564 15.074501741473775 13.65606332442006 0 0 0
318 0 2 2.2208 10.825931849213692 3.8971826122939097 13.66078371540447 0 0 0
551 0 2 2.2208 2.343413984272959 -1.8202386266919048 -0.3287943835310543 0 0 0
550 0 2 2.2208 5.025451898070026 1.011783672806622 -0.3545489543147404 0 0 0
555 0 2 2.2208 5.084656189391105 17.83672983936519 -0.28460726290926885 0 0 0
8871 0 2 2.2208 13.555659147433769 -1.787270867436492 -0.322447585844273 0 0 0
323 0 2 2.2208 5.146747951190626 1.0799306697475028 16.30894377112047 0 0 0
324 0 1 -1.1104 0.933056238239375 -3.22119062300954 17.949171004461473 0 0 0
325 0 1 -1.1104 0.8813737868630672 2.5157508582535524 17.895846312863952 0 0 0
328 0 1 -1.1104 0.9907662323260523 -3.1045499422649065 15.067838037463266 0 0 0
330 0 1 -1.1104 0.9706405873859587 2.4681236721173234 15.014201180933291 0 0 0
336 0 1 -1.1104 1.0333842319321973 -0.43127188357330215 17.79977507383126 0 0 0
338 0 2 2.2208 5.148739378018668 -1.7903257555233902 19.132648708258575 0 0 0
339 0 2 2.2208 5.25213995099254 3.8896290078349343 19.229297216690224 0 0 0
340 0 1 -1.1104 0.9819716903876403 -0.23526082995920153 14.932255527070112 0 0 0
344 0 1 -1.1104 3.684060886058588 -2.983513801732209 17.943689952071132 0 0 0
345 0 1 -1.1104 3.8381213973192962 2.335860399359222 17.83391281242906 0 0 0
346 0 2 2.2208 2.3886052586567748 0.9637297241331555 19.196434438577814 0 0 0
347 0 1 -1.1104 3.7027599915921887 -3.2548555576722706 15.167975290647039 0 0 0
349 0 1 -1.1104 3.7745715782229885 2.5063401385603274 15.033352778997076 0 0 0
351 0 2 2.2208 2.403028147438485 -1.8815708233542008 16.44657189127086 0 0 0
353 0 1 -1.1104 3.7991942981439566 -0.3064225464943623 17.904435421997473 0 0 0
354 0 1 -1.1104 3.687909616457656 -0.47939603326307406 15.060481902686462 0 0 0
352 0 2 2.2208 2.317356993919376 3.8940906885688253 16.44618348237062 0 0 0
341 0 1 -1.1104 1.0157308819971334 -0.5435497005411756 20.523467881165224 0 0 0
337 0 1 -1.1104 6.5172883348580575 -0.3050353853041576 17.610998491880643 0 0 0
343 0 1 -1.1104 6.49465724924239 -0.37886385057729294 20.507286573344327 0 0 0
350 0 1 -1.1104 3.845413685173589 2.3024765556611104 20.653245628281052 0 0 0
342 0 1 -1.1104 6.577583072891997 -0.3087991471444244 14.805507313516214 0 0 0
332 0 1 -1.1104 6.5087255909564306 -2.9904937097265476 14.91450269716498 0 0 0
327 0 1 -1.1104 6.7128789609398964 2.4470236621889216 17.79949498175748 0 0 0
326 0 1 -1.1104 6.602269714908577 -3.1204310312621013 17.694286077078374 0 0 0
334 0 1 -1.1104 6.736171017990494 2.465407129736807 15.157001921285682 0 0 0
8945 0 2 2.2208 13.505975608275826 -1.7471160600483286 22.125980795249813 0 0 0
9017 0 2 2.2208 13.489021349921641 12.220721465693297 24.892856420661023 0 0 0
8467 0 2 2.2208 10.711044065203389 -4.362288520609622 16.434367124652997 0 0 0