ITEM: TIMESTEP
70000
ITEM: NUMBER OF ATOMS
17704
ITEM: BOX BOUNDS pp pp pp
-3.5287712087421452e-01 2.7692877120874375e+01
-4.3131192719863556e+00 3.3239311927198258e+02
-3.6100284529439530e-01 2.7701002845294035e+01
ITEM: ATOMS id type q x y z
1 2 2.2208 5.48573 1.36639 5.2831
2 1 -1.1104 1.17974 -3.0022 1.02472
3 1 -1.1104 1.16557 2.73401 1.00958
4 1 -1.1104 1.27048 -2.77997 3.77075
5 1 -1.1104 1.11297 2.65041 3.88335
6 1 -1.1104 1.27651 -0.104567 1.05461
7 2 2.2208 5.47129 -1.51509 2.45229
8 2 2.2208 5.48044 4.16658 2.49389
9 1 -1.1104 1.19147 0.0679987 3.75462
10 1 -1.1104 4.17687 -2.76083 1.05701
11 1 -1.1104 4.05703 2.90024 0.980414
12 2 2.2208 2.65006 1.44622 2.38191
13 1 -1.1104 4.01816 -2.98975 3.90108
14 1 -1.1104 3.91226 2.80422 3.77221
15 2 2.2208 2.54169 -1.49157 5.11407
16 2 2.2208 2.67219 4.067 5.22006
17 1 -1.1104 4.06101 0.00178754 1.07107
18 1 -1.1104 4.01864 0.0701423 3.91908
22 1 -1.1104 3.97687 -2.82752 6.52998
24 1 -1.1104 4.05358 -0.0729554 6.65929
19 1 -1.1104 1.12989 -2.74871 6.55199
8933 2 2.2208 -0.213566 1.3715 5.30737
8495 2 2.2208 10.8482 -4.24931 10.7939
21 1 -1.1104 1.25886 -0.0655657 6.64317
23 1 -1.1104 4.01341 2.75992 6.70452
17343 2 2.2208 -0.181415 -4.38798 10.8677
8316 2 2.2208 5.43255 -4.20646 5.19269
8315 2 2.2208 2.70889 -4.33117 2.43861
30 1 -1.1104 6.71403 2.8806 3.88918
315 1 -1.1104 12.4093 19.6667 9.40945
32 1 -1.1104 6.71189 -0.0277379 3.8319
29 1 -1.1104 6.86957 -2.84002 3.88158
31 1 -1.1104 6.81793 -0.182906 1.04175
27 1 -1.1104 6.89315 -2.93814 0.988211
28 1 -1.1104 6.77259 2.52279 0.935492
33 2 2.2208 11.0716 1.31391 5.30549
34 1 -1.1104 12.5568 -2.90469 0.957248
35 1 -1.1104 12.3911 2.6227 1.04549
36 1 -1.1104 12.4559 -2.95268 3.79231
37 1 -1.1104 12.3954 2.73896 3.89125
38 1 -1.1104 12.4295 -0.0848993 1.04047
39 2 2.2208 11.1088 -1.57326 2.39897
40 2 2.2208 11.0758 4.14064 2.44114
41 1 -1.1104 12.4231 -0.043781 3.82556
42 1 -1.1104 9.65059 -2.9221 1.10172
43 1 -1.1104 9.59203 2.70822 0.975141
44 2 2.2208 8.11739 1.26258 2.45743
45 1 -1.1104 9.6944 -2.85289 3.89206
46 1 -1.1104 9.49725 2.64345 3.82202
47 2 2.2208 8.16851 -1.45068 5.2785
48 2 2.2208 8.16499 4.04839 5.28415
49 1 -1.1104 9.58085 -0.146634 0.963195
50 1 -1.1104 9.54435 -0.201874 3.80948
201 1 -1.1104 9.68706 -2.94861 6.71197
51 1 -1.1104 6.87783 -2.95014 6.6174
9126 2 2.2208 -0.172232 4.17972 8.01193
191 1 -1.1104 6.86062 -0.00418967 6.56666
202 1 -1.1104 9.65636 2.69681 6.69149
17185 2 2.2208 -0.1232 -4.27141 5.23973
304 2 2.2208 13.8736 21.0107 10.6484
57 2 2.2208 5.30011 6.9341 5.18525
58 2 2.2208 5.36287 12.4559 5.24647
59 1 -1.1104 1.15895 8.24847 0.991087
60 1 -1.1104 1.14844 8.26664 3.83034
61 1 -1.1104 1.11181 5.59287 0.947616
62 1 -1.1104 1.17916 11.098 0.955144
65 2 2.2208 5.5087 9.68459 2.38037
66 1 -1.1104 1.36311 5.53633 3.80378
67 1 -1.1104 1.23982 11.0639 3.93972
68 1 -1.1104 4.03591 8.16584 0.982979
69 2 2.2208 2.64256 7.00341 2.46862
70 2 2.2208 2.4526 12.4184 2.50601
71 1 -1.1104 3.9289 8.39354 3.72507
72 2 2.2208 2.61187 9.79673 5.31162
73 1 -1.1104 4.09155 5.53024 1.10624
74 1 -1.1104 4.08431 10.9503 0.976788
76 1 -1.1104 3.99521 5.51648 3.88422
77 1 -1.1104 4.02293 11.1086 3.90423
8998 2 2.2208 -0.311265 9.59656 2.47009
79 1 -1.1104 1.25577 5.56971 6.71165
8997 2 2.2208 -0.205204 6.87308 5.28714
8484 2 2.2208 5.35182 -4.33656 10.8225
8999 2 2.2208 -0.271495 12.4083 5.19145
75 1 -1.1104 4.00049 11.1238 6.55932
80 1 -1.1104 3.99866 8.30423 6.48017
9250 2 2.2208 -0.196158 18.1147 10.8668
26 2 2.2208 2.58404 4.23532 -0.424138
88 1 -1.1104 6.89473 5.43599 0.983004
87 1 -1.1104 6.73959 8.47061 3.82922
91 1 -1.1104 6.93607 10.9988 3.82393
90 1 -1.1104 6.77487 5.63846 3.70376
86 1 -1.1104 6.83125 8.28413 1.20693
64 1 -1.1104 6.74986 11.1839 0.865797
92 2 2.2208 10.9381 6.94611 5.14226
93 2 2.2208 10.9684 12.6071 5.18628
94 1 -1.1104 12.3596 8.1997 1.02737
95 1 -1.1104 12.5436 8.26003 3.76775
96 1 -1.1104 12.502 5.4279 0.940779
97 1 -1.1104 12.4288 11.1852 0.918184
98 2 2.2208 10.984 9.67631 2.46067
99 1 -1.1104 12.2744 5.43889 3.77632
100 1 -1.1104 12.5491 11.052 3.69601
101 1 -1.1104 9.59288 8.39221 0.918296
102 2 2.2208 8.30637 6.96138 2.29288
103 2 2.2208 8.24457 12.5421 2.40287
104 1 -1.1104 9.67502 8.25012 3.69247
105 2 2.2208 8.18158 9.60702 5.12697
106 1 -1.1104 9.67035 5.56859 0.970471
107 1 -1.1104 9.61743 11.1418 0.971631
108 1 -1.1104 9.61443 5.36587 3.84164
109 1 -1.1104 9.72865 11.1801 3.61921
247 1 -1.1104 9.56253 11.1386 6.5171
110 1 -1.1104 6.9092 8.28648 6.72414
246 1 -1.1104 12.476 11.2027 6.64104
89 1 -1.1104 6.58957 11.1436 6.70113
258 1 -1.1104 9.60351 8.40094 6.4464
8932 2 2.2208 -0.0769952 -1.50151 2.36325
9064 2 2.2208 -0.141073 18.1866 5.35179
8967 2 2.2208 13.8927 12.5128 2.38243
8496 2 2.2208 8.16479 -4.35704 8.02143
114 2 2.2208 5.25092 18.1202 5.17189
115 1 -1.1104 1.16242 13.8432 1.1485
116 1 -1.1104 0.991225 19.4775 1.09205
119 1 -1.1104 1.0743 13.9267 3.95312
120 1 -1.1104 1.16193 19.6578 3.82979
122 1 -1.1104 1.2055 16.6741 1.04539
125 2 2.2208 5.37153 15.3013 2.47565
126 2 2.2208 5.39544 21.0709 2.39192
127 1 -1.1104 1.20584 16.7679 4.04324
129 1 -1.1104 3.96832 13.9347 0.995299
131 1 -1.1104 3.89443 19.5008 1.02246
133 2 2.2208 2.64233 18.139 2.38009
134 1 -1.1104 3.82201 13.8856 3.77794
135 1 -1.1104 3.82736 19.4234 3.90634
136 2 2.2208 2.59452 15.2279 5.32794
137 2 2.2208 2.60149 20.9095 5.34882
138 1 -1.1104 3.91898 16.695 0.985816
140 1 -1.1104 3.96228 16.6561 3.89141
123 1 -1.1104 1.23934 16.5904 6.73639
132 1 -1.1104 3.97231 19.421 6.58827
296 1 -1.1104 1.17438 19.4331 6.69099
452 2 2.2208 10.928 21.006 13.6392
117 1 -1.1104 6.75386 13.8899 1.10904
479 2 2.2208 8.22985 18.0205 13.6788
143 1 -1.1104 6.66088 16.7037 1.01717
128 1 -1.1104 6.77271 16.6489 3.79876
141 1 -1.1104 6.97113 19.6549 1.13509
121 1 -1.1104 6.72468 13.9008 3.81571
142 1 -1.1104 6.67557 19.6663 3.84158
148 2 2.2208 10.921 18.0999 5.15492
149 1 -1.1104 12.6112 13.9255 0.896707
150 1 -1.1104 12.4156 19.5641 1.07482
152 1 -1.1104 12.3011 13.8054 3.69542
153 1 -1.1104 12.4531 19.3727 3.89576
154 1 -1.1104 12.4104 16.7797 0.931705
155 2 2.2208 11.0215 15.3735 2.34389
156 2 2.2208 10.9158 20.9391 2.39799
157 1 -1.1104 12.6154 16.6107 3.63958
158 1 -1.1104 9.58556 13.9978 0.893832
159 1 -1.1104 9.70639 19.5816 1.19203
161 2 2.2208 8.13584 18.0138 2.35465
162 1 -1.1104 9.4759 13.9871 3.69556
163 1 -1.1104 9.49477 19.4571 3.87894
164 2 2.2208 8.08519 15.2583 5.23419
165 2 2.2208 8.06257 20.9731 5.21061
166 1 -1.1104 9.56013 16.7065 1.05537
168 1 -1.1104 9.64393 16.6843 3.72826
309 1 -1.1104 9.52817 13.8813 6.44501
118 1 -1.1104 6.73267 19.4028 6.69086
145 1 -1.1104 6.70129 13.8421 6.64807
124 1 -1.1104 6.81756 16.6726 6.65447
9249 2 2.2208 -0.245092 20.945 8.05937
317 2 2.2208 10.8567 15.2905 7.9422
20 1 -1.1104 1.1817 2.74029 6.58306
9192 2 2.2208 -0.367771 12.5081 10.7941
9127 2 2.2208 -0.199742 -1.5823 8.08286
9063 2 2.2208 -0.269854 20.9291 2.49895
9193 2 2.2208 -0.280383 9.64525 13.7533
169 2 2.2208 5.29651 1.28733 10.8342
170 1 -1.1104 1.11379 -3.01437 12.218
171 1 -1.1104 1.23537 2.7253 12.2449
172 1 -1.1104 1.1927 -3.02422 9.44714
173 1 -1.1104 1.29979 2.72982 9.59044
174 1 -1.1104 1.18695 -0.0856465 12.3803
175 2 2.2208 5.33673 -1.42767 8.01667
176 2 2.2208 5.32843 4.13989 7.9889
177 1 -1.1104 1.05249 0.0277096 9.3305
178 1 -1.1104 3.98242 -2.69922 12.2673
179 1 -1.1104 3.97047 2.72217 12.332
180 2 2.2208 2.54833 1.40009 8.04772
181 1 -1.1104 3.86141 -2.70809 9.41109
182 1 -1.1104 4.05484 2.73539 9.46436
183 2 2.2208 2.631 -1.39178 10.9324
185 1 -1.1104 3.96169 -0.134608 12.2843
186 1 -1.1104 4.03955 -0.130084 9.41176
184 2 2.2208 2.6214 4.15686 10.8931
167 1 -1.1104 9.63757 16.6797 6.53848
52 1 -1.1104 6.81663 2.75655 6.6968
194 1 -1.1104 6.60233 -2.81466 9.46996
281 1 -1.1104 9.55512 13.9207 9.31361
311 2 2.2208 11.0097 18.1949 10.6677
323 1 -1.1104 9.71728 13.9836 12.1631
198 1 -1.1104 12.5153 -2.83339 6.59426
9128 2 2.2208 -0.189914 1.36523 10.837
192 1 -1.1104 6.83207 -2.81566 12.212
313 1 -1.1104 12.6248 19.8784 12.3415
199 1 -1.1104 12.2826 2.82733 6.75652
197 1 -1.1104 6.80712 -0.166391 9.46126
193 1 -1.1104 6.78402 2.6578 12.2635
195 1 -1.1104 6.74219 2.79769 9.54259
200 1 -1.1104 12.5765 0.0142524 6.60844
203 1 -1.1104 9.72305 -0.114671 6.6572
196 1 -1.1104 6.89002 -0.0883069 12.3231
204 2 2.2208 10.9878 1.37408 10.8634
205 1 -1.1104 12.2402 -2.86543 12.2467
206 1 -1.1104 12.515 2.75335 12.2509
207 1 -1.1104 12.453 -2.88332 9.37177
208 1 -1.1104 12.3118 2.80263 9.54254
209 1 -1.1104 12.4183 -0.0658936 12.1533
210 2 2.2208 11.1175 -1.48949 8.02521
211 2 2.2208 11.0785 4.16501 8.05652
212 1 -1.1104 12.3956 0.027697 9.48384
213 1 -1.1104 9.47959 -2.93485 12.1505
214 1 -1.1104 9.64879 2.82589 12.1369
215 2 2.2208 8.30861 1.27376 8.16331
216 1 -1.1104 9.5104 -2.86407 9.32875
217 1 -1.1104 9.64454 2.7926 9.47712
218 2 2.2208 8.21491 -1.40413 10.9079
219 2 2.2208 8.12827 4.12109 10.8384
220 1 -1.1104 9.70189 -0.0187545 12.4029
221 1 -1.1104 9.60954 -0.087016 9.41618
280 2 2.2208 5.30183 15.208 13.699
9197 2 2.2208 -0.234329 9.68506 8.03922
81 1 -1.1104 3.99108 5.50014 6.67353
78 1 -1.1104 1.20645 8.42603 6.67854
63 1 -1.1104 1.14893 11.1146 6.7477
227 2 2.2208 5.36458 6.97327 10.768
228 2 2.2208 5.33975 12.4486 10.8245
229 1 -1.1104 1.10016 8.13554 12.2802
230 1 -1.1104 1.25678 8.29288 9.49066
231 1 -1.1104 1.09175 5.51647 12.5043
232 1 -1.1104 1.18081 11.0761 12.3256
233 2 2.2208 5.41725 9.71909 7.97703
234 1 -1.1104 1.15584 5.5244 9.55516
235 1 -1.1104 1.09862 11.0165 9.53607
236 1 -1.1104 3.81483 8.22561 12.3191
237 2 2.2208 2.60456 6.98911 8.07505
238 2 2.2208 2.57718 12.3962 8.12013
239 1 -1.1104 4.07033 8.26038 9.30628
240 2 2.2208 2.47842 9.6745 10.9269
241 1 -1.1104 3.9538 5.50566 12.1635
242 1 -1.1104 4.03884 11.0237 12.1908
243 1 -1.1104 3.85273 5.64338 9.46239
244 1 -1.1104 3.93234 10.9784 9.42828
9196 2 2.2208 -0.274516 6.83399 11.008
249 1 -1.1104 6.68522 8.17469 12.2317
312 1 -1.1104 12.5361 14.0874 12.4147
253 1 -1.1104 6.65178 5.6072 9.34425
254 1 -1.1104 6.7513 11.0811 9.41001
248 1 -1.1104 6.73391 5.46893 6.61268
251 1 -1.1104 6.73609 5.43258 12.1437
250 1 -1.1104 6.90285 8.34996 9.35056
252 1 -1.1104 6.81652 10.9263 12.122
256 1 -1.1104 12.3789 8.36994 6.68403
260 1 -1.1104 9.53911 5.5071 6.72077
257 1 -1.1104 12.4082 5.49832 6.50895
255 1 -1.1104 9.5304 11.1295 9.42535
259 1 -1.1104 9.62113 5.54572 9.37841
261 1 -1.1104 9.66799 11.2054 12.2424
262 1 -1.1104 9.52409 5.62888 12.0996
263 2 2.2208 8.16965 9.63697 10.8244
264 1 -1.1104 9.52799 8.41129 9.45376
265 2 2.2208 8.16383 12.3778 8.07801
266 2 2.2208 8.13828 6.78786 8.04734
267 2 2.2208 10.9166 7.00653 10.7533
268 2 2.2208 10.999 12.5138 10.7784
269 1 -1.1104 12.3157 8.41239 12.1691
270 1 -1.1104 12.4506 8.52455 9.42873
271 1 -1.1104 12.3628 5.62146 12.2881
272 1 -1.1104 12.4171 11.2442 12.1765
273 2 2.2208 11.0573 9.80388 7.99831
274 1 -1.1104 12.3441 5.62065 9.31161
275 1 -1.1104 12.3851 11.1727 9.4438
276 1 -1.1104 9.51839 8.40766 12.1546
8936 2 2.2208 -0.263263 1.24261 -0.441055
291 1 -1.1104 6.94774 19.3937 12.3459
9247 2 2.2208 -0.169669 15.2969 8.12967
279 1 -1.1104 1.05692 13.7798 6.76296
321 1 -1.1104 6.82346 13.9382 12.2195
130 1 -1.1104 4.03858 13.6626 6.81957
139 1 -1.1104 4.01128 16.509 6.64808
282 1 -1.1104 4.21051 19.3457 12.268
283 1 -1.1104 3.96376 13.8955 12.2411
286 1 -1.1104 1.26534 19.4112 9.3828
287 1 -1.1104 1.21612 16.5909 9.58829
288 2 2.2208 5.29553 20.8169 8.13446
289 1 -1.1104 1.23295 13.9478 9.37718
290 2 2.2208 5.43672 15.2803 8.04396
292 1 -1.1104 1.22557 19.3864 12.2333
293 1 -1.1104 1.03395 13.8668 12.3185
294 2 2.2208 5.40352 18.0688 10.8902
295 1 -1.1104 4.026 19.415 9.44515
297 2 2.2208 2.63231 17.905 8.00314
298 1 -1.1104 3.95441 16.5618 9.35637
299 1 -1.1104 3.9851 13.7859 9.58694
300 1 -1.1104 1.27928 16.6191 12.2934
301 1 -1.1104 4.02263 16.629 12.2808
302 2 2.2208 2.6136 20.8009 10.8266
303 2 2.2208 2.5743 15.276 10.9352
285 1 -1.1104 6.87597 16.7866 9.4235
8934 2 2.2208 -0.132235 4.10782 2.35935
324 1 -1.1104 9.56935 16.7112 9.34665
306 2 2.2208 8.13958 18.1649 8.05901
307 1 -1.1104 12.3566 14.0283 6.62848
325 1 -1.1104 9.59765 16.7548 12.0984
160 1 -1.1104 9.52055 19.5564 6.67606
322 1 -1.1104 6.7717 16.6833 12.3229
327 2 2.2208 8.19146 15.357 10.799
308 1 -1.1104 12.4102 16.6774 6.5546
151 1 -1.1104 12.4234 19.592 6.64557
326 2 2.2208 8.13574 20.8434 10.8224
310 1 -1.1104 9.69311 19.5614 9.48822
314 1 -1.1104 12.444 14.0188 9.56363
319 1 -1.1104 12.3261 16.8817 9.29757
318 2 2.2208 11.0163 20.9514 8.00867
284 1 -1.1104 6.78997 19.5332 9.45977
305 1 -1.1104 9.73378 19.5345 12.235
316 1 -1.1104 12.337 16.9756 12.1786
320 1 -1.1104 6.81267 13.906 9.64409
8904 2 2.2208 13.8744 3.9627 -0.332126
9066 2 2.2208 -0.319224 18.1889 -0.304771
187 2 2.2208 5.41465 -1.59128 13.5722
54 2 2.2208 8.13186 4.08104 -0.384251
223 2 2.2208 11.1142 -1.39242 13.6727
636 2 2.2208 10.9956 15.3316 13.6609
635 2 2.2208 2.42297 18.1358 13.723
329 2 2.2208 8.15662 -1.5421 -0.424192
188 2 2.2208 2.61933 1.32897 13.743
330 2 2.2208 5.42511 1.38839 16.4695
331 1 -1.1104 1.23199 -2.85595 17.7435
332 1 -1.1104 0.962055 2.56618 17.9873
333 1 -1.1104 1.06885 -2.88526 15.047
334 1 -1.1104 1.13191 2.65135 15.1352
335 1 -1.1104 1.17258 -0.196579 17.7431
336 2 2.2208 5.51428 -1.51419 19.218
337 2 2.2208 5.46078 4.17774 19.3318
338 1 -1.1104 1.1211 -0.0908729 15.007
339 1 -1.1104 4.17279 -2.84067 17.8468
340 1 -1.1104 3.95658 2.83541 17.8021
341 2 2.2208 2.58453 1.39024 19.2037
342 1 -1.1104 3.82225 -2.98274 15.0391
343 1 -1.1104 3.99544 2.59924 15.1541
344 2 2.2208 2.61849 -1.47991 16.3634
345 2 2.2208 2.53869 3.99317 16.4141
346 1 -1.1104 3.94664 -0.042393 17.6997
347 1 -1.1104 4.09261 -0.110375 15.0959
353 1 -1.1104 6.76336 -0.153443 15.1366
481 1 -1.1104 1.16934 -2.71463 20.5922
8667 2 2.2208 8.15812 -4.34363 19.1369
354 1 -1.1104 6.93094 -0.0895869 20.6836
9418 2 2.2208 -0.301427 20.9565 13.6071
8818 2 2.2208 2.56602 -4.27033 24.7929
9308 2 2.2208 -0.334971 1.17064 16.3713
485 1 -1.1104 3.96157 2.8546 20.5884
9307 2 2.2208 -0.267922 4.01824 19.3784
486 1 -1.1104 3.99563 0.00591693 20.4763
9309 2 2.2208 -0.295347 -1.43842 19.1333
455 2 2.2208 13.8299 18.0125 19.2507
350 1 -1.1104 6.75628 -2.8887 14.9457
348 1 -1.1104 6.91095 -2.84713 17.8061
351 1 -1.1104 6.71467 2.72657 14.9707
9363 2 2.2208 -0.251676 6.83258 16.5064
349 1 -1.1104 6.75355 2.80297 17.7878
352 1 -1.1104 6.86154 0.0117409 17.9243
355 2 2.2208 11.1224 1.18951 16.47
356 1 -1.1104 12.5372 -2.97541 17.8773
357 1 -1.1104 12.2959 2.56094 17.8958
358 1 -1.1104 12.2503 -2.95951 15.0109
360 1 -1.1104 12.4652 2.73168 15.0908
362 1 -1.1104 12.3645 -0.0981398 17.7288
363 2 2.2208 11.0712 -1.49315 19.2473
364 2 2.2208 11.0273 4.08131 19.2113
365 1 -1.1104 12.5726 0.0586094 15.0763
367 1 -1.1104 9.75666 -2.86398 17.696
368 1 -1.1104 9.60074 2.74418 17.9569
369 2 2.2208 8.25741 1.30864 19.2825
370 1 -1.1104 9.50714 -2.70183 14.8863
372 1 -1.1104 9.57613 2.69313 15.1789
374 2 2.2208 8.22235 -1.38103 16.5177
375 2 2.2208 8.17001 4.10256 16.4983
376 1 -1.1104 9.62269 -0.149647 18.0343
377 1 -1.1104 9.74264 0.0817807 15.087
373 1 -1.1104 9.63293 2.78406 20.6115
359 1 -1.1104 12.4733 -2.96032 20.5467
378 1 -1.1104 9.7535 -0.0741622 20.751
366 1 -1.1104 12.5435 -0.25796 20.6212
8668 2 2.2208 10.8807 -4.27942 16.3019
379 2 2.2208 5.29376 6.77065 16.4357
380 2 2.2208 5.38287 12.4079 16.3437
381 1 -1.1104 1.05875 8.24153 17.9988
382 1 -1.1104 1.18059 8.40961 15.1935
383 1 -1.1104 1.07907 5.3559 17.8701
384 1 -1.1104 0.995603 11.0858 17.8896
385 2 2.2208 5.29109 9.58282 19.2856
386 1 -1.1104 1.18499 5.59685 15.1676
387 1 -1.1104 1.20923 11.0558 15.1196
388 1 -1.1104 3.87932 8.31726 17.937
389 2 2.2208 2.59519 6.78451 19.3268
390 2 2.2208 2.54262 12.6002 19.1584
391 1 -1.1104 3.95524 8.18003 15.1198
392 2 2.2208 2.64245 9.61437 16.4618
393 1 -1.1104 3.76785 5.44334 17.8189
394 1 -1.1104 3.90871 11.1044 17.7979
395 1 -1.1104 4.01976 5.35729 14.9847
396 1 -1.1104 3.97171 11.1082 14.9057
400 1 -1.1104 6.64649 11.0246 17.7598
533 1 -1.1104 1.15361 8.36521 20.8273
535 1 -1.1104 1.10898 11.1172 20.6126
536 1 -1.1104 3.8786 8.39157 20.8539
9504 2 2.2208 -0.289293 9.79477 24.8735
617 1 -1.1104 12.3139 13.9714 23.3066
398 1 -1.1104 6.64126 8.24273 15.0576
278 2 2.2208 10.9613 9.76269 13.55
8819 2 2.2208 5.41996 -4.26064 22.0669
537 1 -1.1104 4.19611 5.551 20.5758
538 1 -1.1104 3.96493 11.1929 20.7017
17615 2 2.2208 -0.200397 -4.25442 22.1569
9251 2 2.2208 -0.265297 15.2351 13.7008
606 1 -1.1104 6.76196 19.3914 26.2998
403 1 -1.1104 6.67642 11.0864 15.0653
401 1 -1.1104 6.81949 5.51553 15.0167
397 1 -1.1104 6.67255 8.24338 17.7491
399 1 -1.1104 6.69834 5.54133 17.8251
404 2 2.2208 10.9748 6.91044 16.3064
405 2 2.2208 10.9798 12.5386 16.305
406 1 -1.1104 12.2539 8.37514 17.7553
407 1 -1.1104 12.3913 8.39812 14.8936
409 1 -1.1104 12.4191 5.68222 17.8261
410 1 -1.1104 12.3288 11.1967 17.7111
411 2 2.2208 10.9382 9.6146 19.1965
412 1 -1.1104 12.3588 5.4577 15.0916
414 1 -1.1104 12.3394 11.1636 14.9165
416 1 -1.1104 9.39719 8.34806 17.6997
417 2 2.2208 8.17784 6.89432 19.1633
418 2 2.2208 8.15423 12.4557 19.2483
419 1 -1.1104 9.51228 8.09478 14.8884
421 2 2.2208 8.07844 9.64468 16.2385
422 1 -1.1104 9.6256 5.4395 17.7142
423 1 -1.1104 9.52954 11.1276 17.8626
424 1 -1.1104 9.5658 5.39368 14.9357
426 1 -1.1104 9.49499 11.0704 14.9525
631 1 -1.1104 9.51266 13.8486 23.4681
615 2 2.2208 8.1205 15.2421 21.9702
628 2 2.2208 10.9052 15.3544 24.8184
420 1 -1.1104 9.54974 8.21541 20.5273
564 1 -1.1104 6.76852 11.1211 20.5476
402 1 -1.1104 6.82937 5.57356 20.6805
427 1 -1.1104 9.54447 11.032 20.6078
415 1 -1.1104 12.2682 11.0213 20.5218
614 2 2.2208 10.9304 18.0979 21.962
112 2 2.2208 5.2316 18.1013 27.6656
620 1 -1.1104 12.3077 19.51 26.3896
429 2 2.2208 5.41396 17.9729 16.5544
430 1 -1.1104 1.10626 13.8131 17.7584
431 1 -1.1104 1.17559 19.3842 17.9669
433 1 -1.1104 1.10616 13.9675 15.0092
435 1 -1.1104 0.940412 19.5023 15.0401
438 1 -1.1104 0.890201 16.7384 17.8378
440 2 2.2208 5.32102 15.2762 19.296
441 2 2.2208 5.32854 20.7338 19.4378
442 1 -1.1104 1.17783 16.7785 15.1048
443 1 -1.1104 3.90225 13.883 17.8204
444 1 -1.1104 3.87567 19.3328 17.9189
445 2 2.2208 2.47181 18.1044 19.1788
446 1 -1.1104 4.02988 13.7806 15.0371
447 1 -1.1104 3.73531 19.3373 15.1042
448 2 2.2208 2.45588 15.3352 16.5003
449 2 2.2208 2.55931 20.8524 16.5044
450 1 -1.1104 3.80706 16.5811 17.9765
451 1 -1.1104 4.06716 16.708 15.0679
596 1 -1.1104 3.99765 13.907 20.645
436 1 -1.1104 0.990749 19.5132 20.881
505 2 2.2208 8.09956 18.1296 24.8482
9415 2 2.2208 -0.292796 15.3754 19.3565
9416 2 2.2208 -0.286328 18.0433 16.5043
9391 2 2.2208 -0.341073 20.8648 19.2566
592 1 -1.1104 6.77875 13.759 20.5377
594 1 -1.1104 1.01726 16.6705 20.6461
622 1 -1.1104 12.2538 16.647 23.3405
432 1 -1.1104 6.599 19.4716 17.7032
458 1 -1.1104 6.8633 16.6443 15.1107
456 1 -1.1104 6.82317 13.9349 17.8319
439 1 -1.1104 6.82842 16.7367 17.93
437 1 -1.1104 6.86554 19.4723 15.0926
457 1 -1.1104 6.92599 13.899 15.007
459 2 2.2208 10.9776 18.1858 16.4545
460 1 -1.1104 12.402 13.9353 17.7654
461 1 -1.1104 12.4252 19.6019 17.8485
462 1 -1.1104 12.4961 13.9645 14.9543
464 1 -1.1104 12.4032 19.7069 15.0793
465 1 -1.1104 12.454 16.7889 17.8024
466 2 2.2208 11.0286 15.3604 19.1685
467 2 2.2208 11.1177 20.9404 19.3341
468 1 -1.1104 12.5236 16.7687 14.939
469 1 -1.1104 9.57251 13.9193 17.7663
470 1 -1.1104 9.58045 19.4473 17.9409
471 2 2.2208 8.23458 18.1451 19.3156
472 1 -1.1104 9.64586 13.872 15.0007
474 1 -1.1104 9.62173 19.4792 14.9679
475 2 2.2208 8.19138 15.1375 16.3811
476 2 2.2208 8.15357 20.8289 16.5532
477 1 -1.1104 9.64562 16.6347 17.8216
478 1 -1.1104 9.62793 16.7531 15.0224
532 1 -1.1104 9.42405 13.8448 26.3259
473 1 -1.1104 9.68967 13.8861 20.5597
626 1 -1.1104 9.4961 16.65 20.6887
146 2 2.2208 10.89 18.106 27.7532
484 1 -1.1104 4.04246 -2.92142 20.7211
9456 2 2.2208 -0.167874 1.32647 22.1452
9455 2 2.2208 -0.197311 4.24785 24.9043
17522 2 2.2208 -0.168113 -4.43306 16.4597
482 1 -1.1104 1.14017 2.72269 20.7603
483 1 -1.1104 1.25499 0.109875 20.5344
487 2 2.2208 5.46675 1.35077 22.0034
488 1 -1.1104 1.21119 -2.86307 23.4799
489 1 -1.1104 1.35262 2.72168 23.5507
490 1 -1.1104 1.13587 -2.77937 26.204
491 1 -1.1104 1.09485 2.84587 26.2133
492 1 -1.1104 1.1867 0.0725238 23.4496
493 2 2.2208 5.28757 -1.39044 24.6598
494 2 2.2208 5.42885 4.08344 24.8224
495 1 -1.1104 0.935807 -0.140173 26.282
496 1 -1.1104 3.8976 -2.78164 23.438
497 1 -1.1104 4.17313 2.7597 23.3922
498 2 2.2208 2.57889 1.3073 24.9113
499 1 -1.1104 3.94618 -2.87281 26.1919
500 1 -1.1104 3.91472 2.69831 26.1348
501 2 2.2208 2.50861 -1.42403 22.0017
502 2 2.2208 2.62091 4.12955 22.0249
503 1 -1.1104 3.97072 -0.0565536 23.4409
504 1 -1.1104 3.77033 -0.085404 26.3694
508 1 -1.1104 6.85059 -2.7887 23.5114
629 2 2.2208 10.9447 20.862 24.9663
8853 2 2.2208 10.8877 -4.30508 22.0706
9457 2 2.2208 -0.2424 -1.48791 24.8981
371 1 -1.1104 9.6809 -2.98002 20.6896
587 1 -1.1104 6.58493 19.7176 23.4508
506 1 -1.1104 6.88508 -2.74088 20.6651
510 1 -1.1104 6.75333 -2.74859 26.2801
507 1 -1.1104 6.76277 2.65693 20.7252
509 1 -1.1104 6.81698 2.82542 23.4346
511 1 -1.1104 6.86731 2.83256 26.1658
513 1 -1.1104 6.59422 -0.00427571 26.0942
361 1 -1.1104 12.4792 2.7445 20.7033
512 1 -1.1104 6.8865 -0.0071241 23.2973
514 2 2.2208 11.0949 1.28727 22.0752
515 1 -1.1104 12.3545 -2.77048 23.4036
516 1 -1.1104 12.6198 2.72364 23.4621
517 1 -1.1104 12.2692 -3.0149 26.1973
518 1 -1.1104 12.4853 2.58867 26.2673
519 1 -1.1104 12.342 -0.0245495 23.601
520 2 2.2208 10.9756 -1.53726 24.976
522 1 -1.1104 12.3954 -0.240827 26.3339
523 1 -1.1104 9.69317 -2.97674 23.5786
524 1 -1.1104 9.76233 2.73236 23.323
525 2 2.2208 8.2309 1.29821 24.8584
526 1 -1.1104 9.59093 -2.89766 26.3819
527 1 -1.1104 9.66995 2.68667 26.1435
528 2 2.2208 8.39178 -1.38277 22.1409
529 2 2.2208 8.31042 4.17142 22.0289
530 1 -1.1104 9.70882 -0.130663 23.4683
531 1 -1.1104 9.56855 -0.203592 26.2389
521 2 2.2208 11.1662 4.101 24.8583
463 1 -1.1104 12.3968 13.9744 20.5747
630 1 -1.1104 12.2079 16.7783 26.1891
619 1 -1.1104 12.3436 14.1231 26.2097
9505 2 2.2208 -0.439278 12.5502 22.0417
634 1 -1.1104 9.58454 19.4662 23.5263
534 1 -1.1104 1.11314 5.58647 20.6567
539 2 2.2208 5.4372 7.02982 22.1954
540 2 2.2208 5.27034 12.468 22.0613
541 1 -1.1104 1.12592 8.34245 23.5381
543 1 -1.1104 1.2945 8.30849 26.2991
544 1 -1.1104 1.25613 5.5794 23.4353
545 1 -1.1104 1.13161 11.0626 23.5631
546 2 2.2208 5.31453 9.72939 24.8358
547 1 -1.1104 1.16615 5.58094 26.0564
548 1 -1.1104 1.02305 11.2196 26.3381
550 1 -1.1104 3.97005 8.37673 23.5473
551 2 2.2208 2.56218 6.94464 24.8728
552 2 2.2208 2.45287 12.5347 24.8721
553 1 -1.1104 3.9897 8.24509 26.3257
554 2 2.2208 2.61841 9.72578 22.0953
555 1 -1.1104 3.93172 5.62776 23.3268
556 1 -1.1104 3.94513 11.2036 23.4047
557 1 -1.1104 4.02921 5.4816 26.3028
558 1 -1.1104 3.75513 11.0105 26.0434
549 1 -1.1104 6.65938 11.2383 26.235
572 1 -1.1104 6.60907 11.1044 23.4851
9532 2 2.2208 -0.312105 6.99979 22.107
627 1 -1.1104 9.50256 16.5976 23.5579
563 1 -1.1104 6.8161 8.37008 20.6132
425 1 -1.1104 9.63991 5.69503 20.6791
413 1 -1.1104 12.453 5.49077 20.6807
573 1 -1.1104 6.87814 5.63803 26.3444
542 1 -1.1104 6.90124 8.39986 23.6041
571 1 -1.1104 6.81344 5.58529 23.5246
570 1 -1.1104 6.71742 8.49925 26.6183
408 1 -1.1104 12.3111 8.3681 20.6693
559 2 2.2208 10.9079 9.76667 24.7323
560 1 -1.1104 12.2793 11.0772 23.3775
561 1 -1.1104 12.4327 5.51839 23.4091
562 1 -1.1104 12.3616 8.24452 26.1921
565 1 -1.1104 12.4709 8.36725 23.3088
566 2 2.2208 10.9478 12.4872 21.9877
567 2 2.2208 11.0953 6.90546 22.0778
568 2 2.2208 8.27025 6.94772 24.8965
569 1 -1.1104 9.76412 8.28203 23.3305
574 2 2.2208 8.08936 12.5339 24.8118
575 1 -1.1104 12.3833 11.1245 26.2656
576 1 -1.1104 12.3944 5.41968 26.3088
577 1 -1.1104 9.59334 11.1115 26.1179
578 1 -1.1104 9.62286 5.52097 26.2319
579 1 -1.1104 9.59264 11.1322 23.3078
580 1 -1.1104 9.6731 5.62694 23.5015
581 2 2.2208 8.36195 9.58431 22.0033
582 1 -1.1104 9.4894 8.44995 26.2014
605 1 -1.1104 6.64521 16.7827 23.4796
600 1 -1.1104 6.72747 16.5874 26.2934
9571 2 2.2208 -0.356248 15.2916 24.9649
633 1 -1.1104 6.58919 13.8589 26.1692
434 1 -1.1104 1.00184 13.8923 20.6913
9577 2 2.2208 -0.332792 18.1441 22.1183
598 1 -1.1104 3.89683 16.6653 20.7798
597 1 -1.1104 3.78311 19.4277 20.727
612 2 2.2208 2.54023 15.1982 22.0927
583 1 -1.1104 1.13484 19.6368 23.6161
585 2 2.2208 5.33464 15.272 24.8881
586 2 2.2208 5.32028 20.99 24.8974
588 1 -1.1104 1.07593 13.9044 26.34
589 1 -1.1104 1.00339 16.7117 26.3467
590 1 -1.1104 3.81227 16.5476 23.5191
591 1 -1.1104 1.07552 16.7976 23.4546
599 1 -1.1104 0.949529 19.5347 26.2969
601 1 -1.1104 3.79183 13.8266 23.518
602 1 -1.1104 3.95779 19.3248 23.5195
603 1 -1.1104 0.954136 14.033 23.5246
604 2 2.2208 2.38082 20.8798 22.0848
607 2 2.2208 5.29053 18.1278 22.0928
608 1 -1.1104 3.97889 19.5657 26.2845
609 1 -1.1104 3.93383 13.849 26.3187
610 1 -1.1104 3.7951 16.7409 26.2592
611 2 2.2208 2.53987 18.0439 24.8312
584 1 -1.1104 6.5529 14.0176 23.4146
9576 2 2.2208 -0.270301 21.0381 24.8353
621 2 2.2208 8.12913 21.0524 22.2109
632 1 -1.1104 9.46687 16.6381 26.3852
618 1 -1.1104 12.3451 19.5032 23.4104
613 1 -1.1104 9.42875 19.5254 26.4896
624 1 -1.1104 12.3747 16.8094 20.5364
623 1 -1.1104 12.4267 19.5049 20.5285
595 1 -1.1104 6.6995 16.5869 20.7027
593 1 -1.1104 6.77323 19.64 20.7263
625 1 -1.1104 9.54179 19.518 20.7278
9252 2 2.2208 -0.293071 -1.54574 13.5287
56 2 2.2208 2.55069 9.57014 27.7001
453 2 2.2208 13.8337 15.2734 16.3455
111 2 2.2208 2.46314 15.2177 27.7079
144 2 2.2208 8.1817 20.9642 27.7141
224 2 2.2208 5.25589 9.54696 13.5516
9132 2 2.2208 -0.300175 4.09029 13.7285
226 2 2.2208 2.51254 12.4314 13.6904
113 2 2.2208 2.49672 20.9611 27.7919
189 2 2.2208 5.36435 4.09799 13.5913
277 2 2.2208 8.1985 12.4782 13.5445
85 2 2.2208 11.0215 12.6028 27.6668
9000 2 2.2208 -0.188042 6.92604 27.7092
147 2 2.2208 8.10034 15.3527 27.6879
53 2 2.2208 10.947 1.25286 27.7083
225 2 2.2208 2.58765 6.80185 13.6959
428 2 2.2208 5.45952 20.7866 13.7402
17596 2 2.2208 -0.216054 -4.39687 27.7269
8515 2 2.2208 8.0732 -4.36789 13.6486
25 2 2.2208 5.35185 1.33665 27.6091
82 2 2.2208 5.40389 6.91564 27.7784
222 2 2.2208 8.24132 1.34019 13.6353
328 2 2.2208 2.62062 -1.57874 27.6408
8996 2 2.2208 -0.305354 12.4935 27.7274
84 2 2.2208 11.0963 6.82825 27.587
190 2 2.2208 11.1119 4.14536 13.7322
55 2 2.2208 5.26751 12.465 27.7339
245 2 2.2208 8.18951 6.89825 13.6037
83 2 2.2208 8.28021 9.80723 27.6232
637 2 2.2208 5.26394 23.8804 5.27797
638 2 2.2208 5.44047 29.4615 5.26279
639 1 -1.1104 1.1196 25.0939 0.965896
640 1 -1.1104 1.07029 25.08 3.71959
641 1 -1.1104 1.14475 22.1856 1.12027
642 1 -1.1104 1.18671 27.7569 1.08754
643 2 2.2208 5.23169 26.5514 2.40871
644 1 -1.1104 1.09625 22.2754 3.8905
645 1 -1.1104 1.10453 27.9995 3.96095
646 1 -1.1104 4.07281 25.1703 1.0629
647 2 2.2208 2.51786 23.7606 2.44781
648 2 2.2208 2.55848 29.3278 2.50839
649 1 -1.1104 3.89112 25.1382 3.84707
650 2 2.2208 2.47667 26.5403 5.22301
651 1 -1.1104 3.82229 22.3238 0.942762
652 1 -1.1104 3.83696 28.0503 0.953071
653 1 -1.1104 3.87526 22.2277 3.80464
654 1 -1.1104 4.00371 27.986 3.85536
660 1 -1.1104 6.6871 22.4294 3.85314
661 1 -1.1104 6.59902 27.9189 3.74988
932 1 -1.1104 6.75401 42.2385 12.2796
659 1 -1.1104 6.68938 28.0602 1.01345
656 1 -1.1104 6.85019 25.2789 1.13327
9852 2 2.2208 -0.158271 32.2212 8.08895
1536 1 -1.1104 12.278 47.6489 6.67713
759 2 2.2208 8.22509 32.2032 -0.34248
9853 2 2.2208 -0.194457 35.0081 10.9771
796 2 2.2208 2.55652 43.3287 -0.389173
658 1 -1.1104 6.71083 22.481 1.08246
657 1 -1.1104 6.74143 25.1748 3.90999
671 2 2.2208 10.9033 23.6832 5.1913
672 2 2.2208 10.6544 29.5047 5.05152
673 1 -1.1104 12.3579 25.2334 1.07433
674 1 -1.1104 12.3789 25.2255 3.81648
675 1 -1.1104 12.2761 22.4115 1.14574
676 1 -1.1104 12.572 27.9091 1.27556
677 2 2.2208 10.9581 26.5177 2.52095
678 1 -1.1104 12.4492 22.4142 3.99035
679 1 -1.1104 12.3189 28.0371 4.18945
680 1 -1.1104 9.64746 25.1391 1.14693
681 2 2.2208 8.11483 23.7272 2.56568
682 2 2.2208 8.12317 29.4385 2.36071
683 1 -1.1104 9.56765 25.1275 3.86516
684 2 2.2208 8.0591 26.5392 5.28877
685 1 -1.1104 9.50873 22.3586 0.974076
686 1 -1.1104 9.69441 28.0098 1.11577
687 1 -1.1104 9.53755 22.255 3.86853
688 1 -1.1104 9.4345 27.9627 3.82663
692 1 -1.1104 9.42822 24.9895 6.56114
797 2 2.2208 5.36068 46.0875 -0.350378
868 2 2.2208 13.7518 23.8767 8.16672
1312 1 -1.1104 1.23806 47.5533 1.10385
691 1 -1.1104 6.69215 28.0412 6.43762
665 1 -1.1104 6.53194 22.248 6.75126
823 2 2.2208 8.1513 43.3629 -0.256221
720 2 2.2208 -0.272627 35.1037 5.20558
795 2 2.2208 5.46419 40.5907 -0.270745
699 2 2.2208 5.38985 35.1406 5.27142
700 1 -1.1104 1.16944 30.6287 1.0103
701 1 -1.1104 1.16974 36.314 0.981495
703 1 -1.1104 1.16154 30.7434 3.91622
704 1 -1.1104 1.20326 36.4452 3.7123
706 1 -1.1104 1.05974 33.429 1.08952
707 2 2.2208 5.32855 32.2728 2.38097
708 2 2.2208 5.40363 37.7851 2.53383
709 1 -1.1104 1.26383 33.6537 3.95533
711 1 -1.1104 4.07369 30.695 1.08151
712 1 -1.1104 3.95538 36.4382 1.03108
713 2 2.2208 2.49598 34.9776 2.50105
714 1 -1.1104 3.99325 30.7516 3.83452
715 1 -1.1104 3.90089 36.4743 4.00948
716 2 2.2208 2.5387 32.1849 5.22858
717 2 2.2208 2.50255 37.7721 5.37672
718 1 -1.1104 3.93314 33.5522 1.09079
719 1 -1.1104 3.88631 33.5496 3.8042
9645 2 2.2208 -0.191726 29.3791 5.34981
729 1 -1.1104 3.88633 36.4342 6.83868
872 1 -1.1104 1.13675 30.6872 6.74433
9705 2 2.2208 -0.301144 32.1211 2.40185
721 2 2.2208 -0.333619 37.8629 2.46347
723 1 -1.1104 6.77587 30.8606 3.83961
710 1 -1.1104 6.66679 33.6395 3.7875
722 1 -1.1104 6.75121 30.763 1.06151
9706 2 2.2208 -0.167049 46.3424 10.8043
702 1 -1.1104 6.70981 36.3897 1.08722
724 1 -1.1104 6.87982 33.6166 1.15034
705 1 -1.1104 6.73394 36.4457 3.82977
733 2 2.2208 11.1262 34.9772 5.316
734 1 -1.1104 12.4319 30.8295 1.22512
735 1 -1.1104 12.3823 36.5759 1.08639
736 1 -1.1104 12.2657 30.7831 4.00944
737 1 -1.1104 12.4561 36.3904 3.90907
738 1 -1.1104 12.4677 33.7739 0.84826
739 2 2.2208 10.9517 32.2706 2.49571