ITEM: TIMESTEP
100000
ITEM: NUMBER OF ATOMS
17704
ITEM: BOX BOUNDS pp pp pp
-3.6206205126685520e-01 2.7702062051266999e+01
-4.4231738732113985e+00 3.3250317387321354e+02
-3.5421358137190806e-01 2.7694213581371187e+01
ITEM: ATOMS id type q x y z
1 2 2.2208 5.44545 1.10605 5.20807
2 1 -1.1104 1.07257 -3.00909 1.12195
3 1 -1.1104 1.05686 2.6095 0.796517
4 1 -1.1104 0.932857 -3.14102 3.87269
5 1 -1.1104 1.0461 2.64952 3.69786
6 1 -1.1104 1.15982 -0.167953 0.888367
7 2 2.2208 5.26512 -1.61292 2.39852
8 2 2.2208 5.21121 4.01476 2.30549
9 1 -1.1104 1.02196 -0.292376 3.68245
10 1 -1.1104 3.80851 -3.09072 0.854166
11 1 -1.1104 3.79043 2.59988 1.07902
12 2 2.2208 2.48697 1.19919 2.30698
13 1 -1.1104 3.86308 -3.13447 3.7418
14 1 -1.1104 3.88093 2.53248 3.85474
15 2 2.2208 2.39118 -1.58688 5.11348
16 2 2.2208 2.43854 3.94021 5.23298
17 1 -1.1104 3.90254 -0.188901 1.03592
18 1 -1.1104 4.01397 -0.275882 3.90286
245 2 2.2208 8.21373 6.77989 13.5471
8642 2 2.2208 2.52772 -4.34415 13.6784
23 1 -1.1104 3.9576 2.57376 6.64696
22 1 -1.1104 3.93439 -3.14231 6.53457
226 2 2.2208 2.30165 12.3306 13.5685
8351 2 2.2208 10.7877 -4.3937 5.2213
32 1 -1.1104 6.76679 -0.160595 3.86267
31 1 -1.1104 6.775 -0.0866152 0.975207
9103 2 2.2208 13.5935 1.08123 8.15347
19 1 -1.1104 1.10502 -2.91117 6.6696
24 1 -1.1104 3.793 -0.312451 6.7269
20 1 -1.1104 1.06278 2.52184 6.4734
190 2 2.2208 10.8679 3.97882 13.5309
8315 2 2.2208 2.35196 -4.42345 2.47241
8484 2 2.2208 5.32975 -4.39359 10.8271
9104 2 2.2208 13.6916 -1.66222 10.8335
8901 2 2.2208 13.5707 3.87139 5.08031
28 1 -1.1104 6.58762 2.69701 1.02549
30 1 -1.1104 6.7424 2.60045 3.7202
29 1 -1.1104 6.73835 -3.11723 3.9766
27 1 -1.1104 6.71432 -2.89803 1.12856
33 2 2.2208 10.8454 1.2221 5.20168
34 1 -1.1104 12.2769 -3.0452 1.06837
35 1 -1.1104 12.1222 2.50027 0.935638
36 1 -1.1104 12.2465 -3.00302 3.84172
37 1 -1.1104 12.2327 2.53666 3.61721
38 1 -1.1104 12.2331 -0.144682 0.977515
39 2 2.2208 10.9129 -1.65775 2.51415
40 2 2.2208 10.8863 3.96376 2.21864
41 1 -1.1104 12.3119 -0.258784 3.77636
42 1 -1.1104 9.4481 -3.09961 0.861357
43 1 -1.1104 9.33945 2.73218 1.01625
44 2 2.2208 8.11053 1.19622 2.39572
45 1 -1.1104 9.49381 -3.0367 3.82411
46 1 -1.1104 9.55621 2.56407 3.8522
47 2 2.2208 7.99174 -1.71538 5.23702
48 2 2.2208 8.18552 4.03267 5.05131
49 1 -1.1104 9.42471 -0.176253 1.0247
50 1 -1.1104 9.65249 -0.201041 3.71186
51 1 -1.1104 6.63106 -3.05294 6.81464
191 1 -1.1104 6.6301 -0.273447 6.60099
200 1 -1.1104 12.111 -0.198948 6.64989
202 1 -1.1104 9.44719 2.65751 6.60002
201 1 -1.1104 9.43508 -2.94218 6.55769
8998 2 2.2208 -0.367919 9.63875 2.43477
8997 2 2.2208 -0.287652 6.69027 5.34485
280 2 2.2208 5.1571 15.2684 13.625
9172 2 2.2208 13.6823 6.87417 7.83889
224 2 2.2208 5.27563 9.67821 13.554
57 2 2.2208 5.35065 6.8244 5.21817
58 2 2.2208 5.16394 12.5095 5.23393
59 1 -1.1104 0.989218 8.22273 1.12174
60 1 -1.1104 1.01517 8.17836 4.05378
61 1 -1.1104 0.824155 5.43074 1.18882
62 1 -1.1104 1.08664 11.1416 1.10145
65 2 2.2208 5.2352 9.60952 2.27377
66 1 -1.1104 1.16361 5.33441 4.01401
67 1 -1.1104 0.932659 11.0853 3.88025
68 1 -1.1104 3.88809 8.21198 0.982726
69 2 2.2208 2.42582 6.85764 2.47584
70 2 2.2208 2.47442 12.4586 2.52383
71 1 -1.1104 3.71163 8.27134 3.71395
72 2 2.2208 2.45506 9.57202 5.24019
73 1 -1.1104 3.78685 5.34131 0.91846
74 1 -1.1104 4.01216 11.0175 0.802889
76 1 -1.1104 3.87544 5.42616 3.85201
77 1 -1.1104 3.71061 10.9545 3.66194
480 2 2.2208 13.6353 18.1049 13.6167
79 1 -1.1104 1.0135 5.28495 6.6792
87 1 -1.1104 6.62844 8.2454 3.75747
8316 2 2.2208 5.26462 -4.40586 5.28013
91 1 -1.1104 6.4855 11.0929 3.72249
80 1 -1.1104 3.90664 8.28732 6.50418
75 1 -1.1104 3.98133 11.035 6.54462
78 1 -1.1104 1.01595 8.21502 6.77983
8495 2 2.2208 10.9801 -4.41583 10.795
225 2 2.2208 2.45302 6.76389 13.6482
9224 2 2.2208 13.6428 18.1512 7.86538
86 1 -1.1104 6.68446 8.17763 0.944788
90 1 -1.1104 6.68222 5.30998 3.64004
88 1 -1.1104 6.77285 5.35961 0.860758
64 1 -1.1104 6.73068 10.9146 0.721363
92 2 2.2208 10.6431 6.84239 5.07639
93 2 2.2208 10.8436 12.5764 5.07601
94 1 -1.1104 12.2938 8.34605 0.894831
95 1 -1.1104 12.1096 8.40417 3.64101
96 1 -1.1104 12.2298 5.38102 0.966667
97 1 -1.1104 12.3567 11.126 0.792188
98 2 2.2208 10.8741 9.68667 2.20383
99 1 -1.1104 12.1606 5.43103 3.76281
100 1 -1.1104 12.2992 11.2345 3.5354
101 1 -1.1104 9.55191 8.22581 0.919109
102 2 2.2208 8.07775 6.8647 2.25658
103 2 2.2208 8.01351 12.3915 2.23269
104 1 -1.1104 9.32632 8.3469 3.61937
105 2 2.2208 7.99451 9.77232 5.05899
106 1 -1.1104 9.50073 5.53693 0.82437
107 1 -1.1104 9.41606 10.9571 0.831059
108 1 -1.1104 9.41275 5.43509 3.58676
109 1 -1.1104 9.31936 11.0279 3.68255
89 1 -1.1104 6.56503 11.0936 6.51798
256 1 -1.1104 12.1023 8.28354 6.51244
9196 2 2.2208 -0.302161 6.72624 10.6821
326 2 2.2208 8.1179 20.9446 10.8254
316 1 -1.1104 12.2759 16.7224 12.2384
114 2 2.2208 5.33195 18.05 5.20358
115 1 -1.1104 1.05686 13.7189 0.997838
116 1 -1.1104 1.06627 19.3928 0.967365
119 1 -1.1104 1.18687 14.0029 3.79834
120 1 -1.1104 1.27253 19.3754 3.68837
122 1 -1.1104 0.987402 16.5024 0.836758
125 2 2.2208 5.29548 15.1922 2.48155
126 2 2.2208 5.43559 20.7725 2.30859
127 1 -1.1104 1.14299 16.6118 3.8543
129 1 -1.1104 3.76155 13.8292 0.957831
131 1 -1.1104 3.97682 19.4567 1.0049
133 2 2.2208 2.50062 17.973 2.51885
134 1 -1.1104 3.82229 13.7891 3.90291
135 1 -1.1104 3.99574 19.5298 3.89858
136 2 2.2208 2.49822 15.2508 5.24948
137 2 2.2208 2.53303 20.7545 5.21378
138 1 -1.1104 4.02411 16.5097 1.13536
140 1 -1.1104 3.94722 16.5988 3.90638
296 1 -1.1104 1.0272 19.3911 6.40941
130 1 -1.1104 3.89151 13.7703 6.78557
124 1 -1.1104 6.63791 16.5188 6.56482
141 1 -1.1104 6.68122 19.2769 0.939117
145 1 -1.1104 6.62358 13.8048 6.61392
636 2 2.2208 10.7765 15.2645 13.5852
279 1 -1.1104 1.01258 13.8788 6.41772
139 1 -1.1104 4.02317 16.622 6.66712
123 1 -1.1104 1.24886 16.5215 6.67855
132 1 -1.1104 3.7317 19.3924 6.59806
9167 2 2.2208 13.6508 12.4981 7.89683
327 2 2.2208 8.06472 15.1664 10.7683
321 1 -1.1104 6.44707 13.878 12.223
160 1 -1.1104 9.40564 19.3718 6.62254
143 1 -1.1104 6.71713 16.6275 0.963711
121 1 -1.1104 6.69958 13.8186 3.81603
128 1 -1.1104 6.6464 16.6747 3.7699
117 1 -1.1104 6.62471 13.8811 1.07174
142 1 -1.1104 6.78813 19.4234 3.79333
148 2 2.2208 10.7767 18.0533 5.07341
149 1 -1.1104 12.3002 13.9458 0.890276
150 1 -1.1104 12.2971 19.3923 0.826618
152 1 -1.1104 12.0765 14.0432 3.75104
153 1 -1.1104 12.2286 19.5107 3.74432
154 1 -1.1104 12.258 16.6891 0.836661
155 2 2.2208 10.8214 15.3708 2.23155
156 2 2.2208 10.9402 20.7821 2.35274
157 1 -1.1104 12.2335 16.7006 3.66921
158 1 -1.1104 9.5046 13.7305 0.968465
159 1 -1.1104 9.53198 19.272 0.910861
161 2 2.2208 8.01766 17.8309 2.23929
162 1 -1.1104 9.49348 13.9609 3.67854
163 1 -1.1104 9.50827 19.4927 3.81513
164 2 2.2208 8.05545 15.2629 5.11922
165 2 2.2208 8.02579 20.7597 5.23227
166 1 -1.1104 9.27754 16.5021 0.886097
168 1 -1.1104 9.45756 16.7322 3.56786
308 1 -1.1104 12.4662 16.7046 6.51888
167 1 -1.1104 9.50251 16.6752 6.46605
151 1 -1.1104 12.2239 19.6985 6.61558
309 1 -1.1104 9.49613 14.0091 6.52515
312 1 -1.1104 12.2816 13.8373 11.9984
8496 2 2.2208 8.08857 -4.43191 8.10369
306 2 2.2208 7.92984 18.0228 8.09885
635 2 2.2208 2.49444 18.0285 13.6551
21 1 -1.1104 0.979748 -0.266241 6.36388
169 2 2.2208 5.26248 1.19098 10.8944
170 1 -1.1104 1.11805 -2.90609 12.1431
171 1 -1.1104 0.943227 2.6163 12.2149
172 1 -1.1104 1.08921 -2.93471 9.39076
173 1 -1.1104 1.03143 2.48388 9.2789
174 1 -1.1104 1.0568 -0.140988 12.2823
175 2 2.2208 5.29632 -1.66294 8.16095
176 2 2.2208 5.38452 3.76787 7.95341
177 1 -1.1104 1.11577 -0.250857 9.38884
178 1 -1.1104 4.0596 -3.121 12.322
179 1 -1.1104 3.826 2.62535 12.2748
180 2 2.2208 2.45875 1.10093 7.98094
181 1 -1.1104 3.85841 -2.97082 9.36688
182 1 -1.1104 3.89204 2.55125 9.34623
183 2 2.2208 2.50957 -1.53523 10.8863
185 1 -1.1104 3.92992 -0.156913 12.388
186 1 -1.1104 3.89883 -0.218638 9.61708
184 2 2.2208 2.56317 3.87947 10.7642
188 2 2.2208 2.47476 1.19604 13.6734
277 2 2.2208 7.89779 12.5274 13.5345
192 1 -1.1104 6.7939 -2.91041 12.1486
307 1 -1.1104 12.2967 13.8729 6.50514
319 1 -1.1104 12.2627 16.7788 9.34632
281 1 -1.1104 9.53798 13.8887 9.26425
314 1 -1.1104 12.3424 13.8927 9.2299
193 1 -1.1104 6.64339 2.61979 12.0604
52 1 -1.1104 6.82983 2.46906 6.44077
199 1 -1.1104 12.385 2.48989 6.56706
197 1 -1.1104 6.64182 -0.265852 9.36891
203 1 -1.1104 9.43036 -0.179455 6.6404
198 1 -1.1104 12.1309 -3.03539 6.67537
195 1 -1.1104 6.66211 2.51392 9.43221
194 1 -1.1104 6.86739 -3.22033 9.46018
196 1 -1.1104 6.65432 -0.188203 12.2054
204 2 2.2208 10.8195 1.22609 10.8163
205 1 -1.1104 12.3146 -3.00222 12.2655
206 1 -1.1104 12.2595 2.82939 12.284
207 1 -1.1104 12.2843 -3.10584 9.40576
208 1 -1.1104 12.2611 2.59748 9.47253
209 1 -1.1104 12.3005 -0.187443 12.2878
210 2 2.2208 10.837 -1.5798 8.07499
212 1 -1.1104 12.1952 -0.19331 9.47721
213 1 -1.1104 9.59832 -2.9879 12.1078
214 1 -1.1104 9.45645 2.66284 12.2936
215 2 2.2208 8.10857 1.14919 7.99554
216 1 -1.1104 9.5414 -3.04441 9.44964
217 1 -1.1104 9.54122 2.66907 9.39295
218 2 2.2208 8.17984 -1.61812 10.7801
219 2 2.2208 8.00741 4.04514 10.8683
220 1 -1.1104 9.44765 -0.157368 12.2121
221 1 -1.1104 9.41256 -0.2145 9.42332
211 2 2.2208 10.8833 4.04739 7.99702
313 1 -1.1104 12.336 19.5471 12.1386
317 2 2.2208 10.9416 15.3149 7.88897
284 1 -1.1104 6.58476 19.3866 9.4383
81 1 -1.1104 3.89484 5.38958 6.55095
311 2 2.2208 10.82 18.0735 10.8333
452 2 2.2208 10.8476 20.8765 13.5407
63 1 -1.1104 0.929776 11.0878 6.52297
428 2 2.2208 5.31724 20.7765 13.6228
227 2 2.2208 5.32459 6.81961 10.7072
228 2 2.2208 5.15397 12.3517 10.7311
229 1 -1.1104 1.17402 8.19246 12.3232
230 1 -1.1104 1.13305 8.03309 9.39843
231 1 -1.1104 1.09631 5.29329 12.1932
232 1 -1.1104 1.02465 11.0601 12.1705
233 2 2.2208 5.29563 9.51599 8.01554
234 1 -1.1104 1.10955 5.32193 9.2865
235 1 -1.1104 0.966111 11.0085 9.37611
236 1 -1.1104 4.01294 8.29919 12.1373
237 2 2.2208 2.51111 6.77704 7.90205
238 2 2.2208 2.44944 12.3568 7.98125
239 1 -1.1104 3.86181 8.11925 9.33637
240 2 2.2208 2.51004 9.5307 10.8623
241 1 -1.1104 3.87541 5.52202 12.2697
242 1 -1.1104 3.79831 11.1205 12.0234
243 1 -1.1104 3.8844 5.22569 9.4665
244 1 -1.1104 3.74435 10.9765 9.28075
8903 2 2.2208 13.6172 -1.60482 5.17664
324 1 -1.1104 9.38121 16.6731 9.39603
246 1 -1.1104 12.2298 11.1188 6.4103
258 1 -1.1104 9.286 8.27165 6.38575
323 1 -1.1104 9.4586 13.8568 12.1885
260 1 -1.1104 9.49666 5.33935 6.56064
248 1 -1.1104 6.71443 5.28641 6.59092
247 1 -1.1104 9.48904 11.11 6.49432
110 1 -1.1104 6.60184 8.13584 6.57156
257 1 -1.1104 12.1873 5.43769 6.53753
253 1 -1.1104 6.72891 5.30873 9.42132
252 1 -1.1104 6.61627 11.0979 12.148
249 1 -1.1104 6.81634 8.19752 12.0352
254 1 -1.1104 6.49983 10.9577 9.42356
251 1 -1.1104 6.72448 5.51932 12.2976
250 1 -1.1104 6.72777 8.21381 9.29583
255 1 -1.1104 9.32528 11.1899 9.38892
259 1 -1.1104 9.51884 5.58887 9.31821
261 1 -1.1104 9.30524 11.0737 12.2166
262 1 -1.1104 9.52616 5.39608 12.2069
263 2 2.2208 8.09082 9.60062 10.7199
264 1 -1.1104 9.49139 8.31294 9.27892
265 2 2.2208 8.04523 12.4195 7.92086
266 2 2.2208 8.10396 6.65666 7.8872
267 2 2.2208 10.9407 6.89369 10.6861
268 2 2.2208 10.8271 12.5332 10.7846
269 1 -1.1104 12.3259 8.26504 12.3039
270 1 -1.1104 12.3349 8.32715 9.46743
271 1 -1.1104 12.3622 5.47372 12.1215
272 1 -1.1104 12.2134 11.0933 12.0607
273 2 2.2208 10.8253 9.80693 8.05773
274 1 -1.1104 12.3243 5.43032 9.26395
275 1 -1.1104 12.1634 11.1522 9.38711
276 1 -1.1104 9.55149 8.19232 11.976
318 2 2.2208 10.8613 20.8946 7.95829
310 1 -1.1104 9.42492 19.5238 9.44284
305 1 -1.1104 9.55331 19.5895 12.2275
325 1 -1.1104 9.3723 16.7224 12.3261
291 1 -1.1104 6.86936 19.3435 12.2592
285 1 -1.1104 6.66745 16.4915 9.3767
118 1 -1.1104 6.53225 19.3718 6.66229
322 1 -1.1104 6.64529 16.5714 12.1348
282 1 -1.1104 3.82371 19.3576 12.3359
283 1 -1.1104 3.64543 13.7767 12.1141
286 1 -1.1104 1.0194 19.5141 9.33658
287 1 -1.1104 1.08391 16.5873 9.33604
288 2 2.2208 5.17577 20.834 8.02802
289 1 -1.1104 1.01926 13.791 9.13557
290 2 2.2208 5.24582 15.1971 8.03202
292 1 -1.1104 0.932801 19.5185 12.1055
293 1 -1.1104 0.835055 13.9531 12.0038
294 2 2.2208 5.32445 17.9807 10.8027
295 1 -1.1104 3.80076 19.2612 9.50319
297 2 2.2208 2.41706 18.0171 7.97318
298 1 -1.1104 3.9322 16.7047 9.43352
299 1 -1.1104 3.93487 13.7096 9.34055
300 1 -1.1104 1.15583 16.7627 12.1696
301 1 -1.1104 3.87866 16.6302 12.1924
302 2 2.2208 2.41066 20.8206 10.844
303 2 2.2208 2.40189 15.1944 10.7498
315 1 -1.1104 12.1379 19.4994 9.42295
320 1 -1.1104 6.79831 13.6751 9.52642
278 2 2.2208 10.8869 9.64316 13.4801
8968 2 2.2208 13.6359 6.79793 2.37212
9069 2 2.2208 -0.260343 15.1791 2.34194
304 2 2.2208 13.6496 20.8525 10.8062
8963 2 2.2208 13.6288 9.7133 5.09394
8932 2 2.2208 -0.317581 -1.5701 2.27712
9249 2 2.2208 -0.285686 20.8597 8.02903
9168 2 2.2208 13.5095 12.559 13.618
9029 2 2.2208 13.577 15.1598 5.00146
9250 2 2.2208 -0.306941 17.9725 10.6988
9126 2 2.2208 -0.348626 3.90235 7.99606
8933 2 2.2208 -0.338365 1.15583 5.06097
9127 2 2.2208 -0.281764 -1.59186 7.98018
9028 2 2.2208 13.6115 18.034 2.19511
9064 2 2.2208 -0.300501 18.0409 5.10324
8967 2 2.2208 13.6 12.3855 2.203
223 2 2.2208 10.8882 -1.60969 13.5712
111 2 2.2208 2.47709 15.1903 -0.330693
9066 2 2.2208 -0.208326 17.9974 -0.323749
222 2 2.2208 8.10827 1.3601 13.6287
330 2 2.2208 5.19669 1.23733 16.4062
331 1 -1.1104 0.909066 -3.01297 17.8174
332 1 -1.1104 1.16109 2.55233 17.9733
333 1 -1.1104 1.09138 -3.12307 14.9486
334 1 -1.1104 1.01391 2.55202 15.0592
335 1 -1.1104 0.949027 -0.236861 17.7939
336 2 2.2208 5.16203 -1.5798 19.1791
337 2 2.2208 5.3749 3.97938 19.1998
338 1 -1.1104 1.12652 -0.24466 15.0797
339 1 -1.1104 3.75994 -2.87866 17.7882
340 1 -1.1104 3.90451 2.71677 17.7189
341 2 2.2208 2.44135 1.1577 19.1965
342 1 -1.1104 4.03208 -3.06083 15.046
343 1 -1.1104 3.87894 2.51753 15.0108
344 2 2.2208 2.37278 -1.6993 16.353
345 2 2.2208 2.55529 4.01559 16.4621
346 1 -1.1104 3.75774 -0.0904403 17.7027
347 1 -1.1104 4.01478 -0.293329 15.0468
8668 2 2.2208 10.8813 -4.37118 16.4189
147 2 2.2208 8.00059 15.2359 27.4562
83 2 2.2208 8.07455 9.58507 27.4132
85 2 2.2208 10.9083 12.4722 27.5454
350 1 -1.1104 6.74123 -2.99428 14.9689
349 1 -1.1104 6.62181 2.37255 17.8716
353 1 -1.1104 6.81766 -0.0772057 14.8909
352 1 -1.1104 6.56911 -0.392564 17.8132
17674 2 2.2208 13.5751 -4.30651 24.9033
481 1 -1.1104 1.1115 -2.95048 20.583
484 1 -1.1104 3.77764 -2.93854 20.5679
482 1 -1.1104 0.948582 2.66706 20.6127
25 2 2.2208 5.30726 1.20117 27.557
329 2 2.2208 8.13663 -1.62931 27.6619
9505 2 2.2208 -0.359883 12.3832 22.0854
26 2 2.2208 2.55636 3.93256 27.6091
348 1 -1.1104 6.56937 -3.01678 17.9362
351 1 -1.1104 6.73629 2.67997 14.9928
355 2 2.2208 10.9394 1.09286 16.4853
356 1 -1.1104 12.267 -3.02422 17.8949
357 1 -1.1104 12.3787 2.51126 17.7336
358 1 -1.1104 12.2473 -2.9878 15.0282
360 1 -1.1104 12.2943 2.68897 15.0135
362 1 -1.1104 12.3373 -0.283085 17.8005
363 2 2.2208 11.0326 -1.64812 19.2425
364 2 2.2208 10.8853 4.02844 19.252
365 1 -1.1104 12.3514 -0.187969 15.0749
367 1 -1.1104 9.31877 -2.92508 17.8426
368 1 -1.1104 9.53827 2.59021 17.9884
369 2 2.2208 7.96878 1.10587 19.3605
370 1 -1.1104 9.4945 -2.85377 14.9568
372 1 -1.1104 9.43916 2.54435 15.078
374 2 2.2208 8.05966 -1.51239 16.483
375 2 2.2208 8.03484 3.98509 16.563
376 1 -1.1104 9.54551 -0.134311 17.9344
377 1 -1.1104 9.63032 -0.184347 15.1348
8853 2 2.2208 10.7952 -4.33842 22.0872
53 2 2.2208 10.8842 1.13806 27.6171
507 1 -1.1104 6.54643 2.57579 20.5766
371 1 -1.1104 9.46495 -3.01767 20.8727
361 1 -1.1104 12.3139 2.70116 20.4715
146 2 2.2208 10.7879 17.9898 27.5685
379 2 2.2208 5.29662 6.84349 16.473
380 2 2.2208 5.02932 12.3848 16.4217
381 1 -1.1104 1.06783 8.17124 17.8526
382 1 -1.1104 1.08553 8.10053 15.0537
383 1 -1.1104 0.998021 5.2586 17.7865
384 1 -1.1104 0.940721 10.9319 17.8498
385 2 2.2208 5.4577 9.62456 19.1628
386 1 -1.1104 1.0084 5.4007 15.1702
387 1 -1.1104 1.0135 11.029 14.9463
388 1 -1.1104 3.74716 8.07617 17.6402
389 2 2.2208 2.49564 6.71741 19.1682
390 2 2.2208 2.50454 12.5061 19.1892
391 1 -1.1104 3.91659 8.28324 14.9651
392 2 2.2208 2.46101 9.55452 16.3307
393 1 -1.1104 3.98505 5.45409 17.7465
394 1 -1.1104 3.79954 10.9353 17.6923
395 1 -1.1104 3.911 5.3816 14.9468
396 1 -1.1104 3.61265 11.0589 14.7958
535 1 -1.1104 1.14036 11.0051 20.5849
399 1 -1.1104 6.67358 5.35046 17.8414
533 1 -1.1104 0.977029 8.17931 20.5666
538 1 -1.1104 4.00834 11.1598 20.456
534 1 -1.1104 1.11914 5.33385 20.5195
536 1 -1.1104 4.02366 8.33976 20.5615
8818 2 2.2208 2.32844 -4.40174 24.7872
84 2 2.2208 10.95 6.69821 27.5655
54 2 2.2208 8.10477 3.96927 27.6005
8667 2 2.2208 7.94643 -4.34939 19.3447
56 2 2.2208 2.45604 9.60051 27.6537
401 1 -1.1104 6.67858 5.46922 14.9549
403 1 -1.1104 6.56625 11.103 15.0897
398 1 -1.1104 6.68731 8.27318 14.946
400 1 -1.1104 6.57529 11.0917 17.9812
397 1 -1.1104 6.72394 8.18662 17.879
404 2 2.2208 10.8872 6.70541 16.4278
405 2 2.2208 10.9821 12.428 16.4023
406 1 -1.1104 12.3707 8.2158 17.8462
407 1 -1.1104 12.2384 8.2313 15.0485
409 1 -1.1104 12.1715 5.36851 17.8084
410 1 -1.1104 12.2417 11.1111 17.8322
411 2 2.2208 10.8625 9.49507 19.0091
412 1 -1.1104 12.3911 5.49182 14.9872
414 1 -1.1104 12.3189 11.0987 14.9795
416 1 -1.1104 9.66948 8.23494 17.6145
417 2 2.2208 8.1667 6.8219 19.1798
418 2 2.2208 8.0498 12.4087 19.1874
419 1 -1.1104 9.50644 8.08915 14.9026
421 2 2.2208 8.11094 9.721 16.2301
422 1 -1.1104 9.45232 5.52785 17.8814
423 1 -1.1104 9.24225 10.9536 17.7582
424 1 -1.1104 9.54829 5.34539 15.1219
426 1 -1.1104 9.49627 11.0315 14.9226
408 1 -1.1104 12.3262 8.1644 20.5904
415 1 -1.1104 12.3923 10.9329 20.4157
420 1 -1.1104 9.71604 8.0595 20.5828
55 2 2.2208 5.29728 12.3671 27.5229
587 1 -1.1104 6.72745 19.4547 23.2009
623 1 -1.1104 12.3733 19.5042 20.5372
429 2 2.2208 5.20425 17.9878 16.305
430 1 -1.1104 0.881512 13.766 17.6952
431 1 -1.1104 0.902501 19.3654 17.7623
433 1 -1.1104 0.996671 13.9154 14.9681
435 1 -1.1104 0.999962 19.628 15.0016
438 1 -1.1104 1.12391 16.6451 17.761
440 2 2.2208 5.28758 15.1864 19.1222
441 2 2.2208 5.0763 20.7298 19.2151
442 1 -1.1104 1.01761 16.665 15.0384
443 1 -1.1104 3.77713 13.7089 17.8632
444 1 -1.1104 3.75327 19.2002 17.8036
445 2 2.2208 2.35954 18.0106 19.0961
446 1 -1.1104 3.75538 13.7349 14.9877
447 1 -1.1104 3.693 19.4147 15.0354
448 2 2.2208 2.37471 15.197 16.419
449 2 2.2208 2.35584 20.8085 16.446
450 1 -1.1104 3.87745 16.512 17.8558
451 1 -1.1104 3.86037 16.5578 15.1101
594 1 -1.1104 1.01521 16.5803 20.6662
596 1 -1.1104 3.93021 13.7633 20.514
436 1 -1.1104 1.22339 19.4482 20.4741
434 1 -1.1104 1.01682 13.6603 20.5803
437 1 -1.1104 6.5951 19.3433 15.0587
598 1 -1.1104 3.76539 16.5626 20.7163
432 1 -1.1104 6.52925 19.4316 17.9154
439 1 -1.1104 6.60111 16.5867 17.593
456 1 -1.1104 6.65243 13.8214 17.8333
457 1 -1.1104 6.58535 13.8467 14.9696
458 1 -1.1104 6.54736 16.7242 14.9107
459 2 2.2208 10.8431 18.1389 16.4894
460 1 -1.1104 12.4127 13.8654 17.6712
461 1 -1.1104 12.1916 19.5676 17.7961
462 1 -1.1104 12.3271 13.9885 14.9372
464 1 -1.1104 12.3154 19.72 15.0051
465 1 -1.1104 12.4118 16.6815 17.8354
466 2 2.2208 11.0028 15.1964 19.0889
467 2 2.2208 10.8938 20.8819 19.3768
468 1 -1.1104 12.1117 16.8209 14.9565
469 1 -1.1104 9.47708 13.7625 17.754
470 1 -1.1104 9.3171 19.4358 17.7759
471 2 2.2208 8.07003 17.988 19.1206
472 1 -1.1104 9.56823 13.8515 14.9964
474 1 -1.1104 9.41873 19.4755 15.1668
475 2 2.2208 7.98416 15.1849 16.4048
476 2 2.2208 8.0227 20.8698 16.5373
477 1 -1.1104 9.39681 16.5782 17.7849
478 1 -1.1104 9.30231 16.6825 15.108
595 1 -1.1104 6.61523 16.6613 20.5062
624 1 -1.1104 12.2783 16.5379 20.5427
473 1 -1.1104 9.42123 13.8136 20.6875
625 1 -1.1104 9.56469 19.4687 20.52
633 1 -1.1104 6.647 13.676 26.1529
8643 2 2.2208 2.36145 -4.33459 19.0852
485 1 -1.1104 3.76613 2.64788 20.6279
483 1 -1.1104 1.06399 -0.215763 20.6228
486 1 -1.1104 3.89766 -0.21155 20.7499
628 2 2.2208 10.8968 15.129 24.683
487 2 2.2208 5.20371 1.13359 22.0554
488 1 -1.1104 0.987386 -3.10673 23.4455
489 1 -1.1104 1.01932 2.62832 23.4158
490 1 -1.1104 0.83638 -2.94058 26.1419
491 1 -1.1104 1.0575 2.61185 26.2922
492 1 -1.1104 1.21878 -0.293412 23.4309
493 2 2.2208 5.25514 -1.8598 24.9834
494 2 2.2208 5.29788 4.09955 24.7001
495 1 -1.1104 1.13918 -0.0310079 26.1973
496 1 -1.1104 3.8058 -3.11744 23.4738
497 1 -1.1104 3.9004 2.6214 23.4437
498 2 2.2208 2.49961 1.23325 24.7732
499 1 -1.1104 3.6837 -3.07008 26.2313
500 1 -1.1104 3.8706 2.73087 26.1643
501 2 2.2208 2.40506 -1.74361 22.0937
502 2 2.2208 2.36623 4.05479 21.9742
503 1 -1.1104 3.91954 -0.312029 23.5222
504 1 -1.1104 3.86365 -0.2093 26.3477
584 1 -1.1104 6.55868 13.8193 23.3337
354 1 -1.1104 6.64331 -0.160921 20.7023
506 1 -1.1104 6.542 -2.93568 20.6107
512 1 -1.1104 6.61306 -0.238362 23.4292
613 1 -1.1104 9.55393 19.4685 26.0807
622 1 -1.1104 12.3533 16.4846 23.362
82 2 2.2208 5.29202 6.87373 27.6474
621 2 2.2208 7.95574 20.926 22.01
605 1 -1.1104 6.59225 16.5004 23.3268
359 1 -1.1104 12.318 -2.96441 20.6501
373 1 -1.1104 9.29565 2.53684 20.6619
509 1 -1.1104 6.65551 2.5293 23.4053
366 1 -1.1104 12.4069 -0.120273 20.5851
513 1 -1.1104 6.65138 -0.399014 26.2733
378 1 -1.1104 9.57422 -0.358802 20.6647
510 1 -1.1104 6.56581 -3.13572 26.3044
508 1 -1.1104 6.64832 -3.09129 23.3937
511 1 -1.1104 6.64265 2.4507 26.2695
514 2 2.2208 10.7475 1.17218 22.0193
515 1 -1.1104 12.1556 -3.00009 23.4875
516 1 -1.1104 12.0751 2.64137 23.3133
517 1 -1.1104 12.1093 -3.00411 26.3589
518 1 -1.1104 12.2352 2.50397 26.2319
519 1 -1.1104 12.1621 -0.161482 23.4656
520 2 2.2208 10.7941 -1.65252 24.7811
522 1 -1.1104 12.2983 -0.383499 26.1948
523 1 -1.1104 9.2596 -2.95843 23.4584
524 1 -1.1104 9.33721 2.51011 23.4829
525 2 2.2208 8.048 1.06952 24.7929
526 1 -1.1104 9.355 -3.064 26.2211
527 1 -1.1104 9.48723 2.56306 26.1773
528 2 2.2208 7.89698 -1.58013 22.104
529 2 2.2208 7.85258 3.97917 21.9661
530 1 -1.1104 9.45563 -0.220925 23.3513
531 1 -1.1104 9.48242 -0.199418 26.2431
521 2 2.2208 10.8515 3.92565 24.714
620 1 -1.1104 12.3807 19.2804 26.1777
532 1 -1.1104 9.40676 13.8754 26.1296
505 2 2.2208 8.05271 18.0106 24.6798
9422 2 2.2208 13.6708 -1.61502 22.0737
537 1 -1.1104 3.92274 5.44648 20.5426
539 2 2.2208 5.34606 6.75352 22.0435
540 2 2.2208 5.364 12.3717 21.9447
541 1 -1.1104 1.01009 8.21925 23.4646
543 1 -1.1104 1.13537 8.18431 26.3444
544 1 -1.1104 0.940997 5.47577 23.4952
545 1 -1.1104 0.981749 10.9951 23.388
546 2 2.2208 5.20273 9.67426 24.6359
547 1 -1.1104 1.18556 5.26492 26.2521
548 1 -1.1104 1.11196 10.9928 26.1694
550 1 -1.1104 3.71809 8.17998 23.2576
551 2 2.2208 2.49937 6.79796 24.8312
552 2 2.2208 2.42221 12.4731 24.7765
553 1 -1.1104 3.89914 8.29684 26.1664
554 2 2.2208 2.35066 9.46194 21.8294
555 1 -1.1104 3.73679 5.40912 23.1584
556 1 -1.1104 3.91437 11.2466 23.4142
557 1 -1.1104 3.96959 5.53148 26.0263
558 1 -1.1104 3.83679 11.0914 26.1081
570 1 -1.1104 6.76058 8.15276 26.0806
632 1 -1.1104 9.43651 16.6381 26.1972
402 1 -1.1104 6.72293 5.37568 20.6073
563 1 -1.1104 6.83855 8.07521 20.6839
427 1 -1.1104 9.6063 10.9756 20.4375
564 1 -1.1104 7.03848 10.9208 20.7741
542 1 -1.1104 6.68803 8.12978 23.3564
572 1 -1.1104 6.87445 10.8658 23.332
549 1 -1.1104 6.67218 10.9533 25.9206
571 1 -1.1104 6.5964 5.43538 23.4517
573 1 -1.1104 6.75286 5.29475 26.1289
413 1 -1.1104 12.3341 5.37372 20.5635
425 1 -1.1104 9.57326 5.22622 20.6409
559 2 2.2208 11.0216 9.61956 24.6985
560 1 -1.1104 12.3776 11.0988 23.3948
561 1 -1.1104 12.3329 5.53666 23.3196
562 1 -1.1104 12.3989 8.16567 26.1143
565 1 -1.1104 12.4066 8.31247 23.4217
566 2 2.2208 10.9771 12.4008 21.8903
567 2 2.2208 10.9793 6.74312 22.0234
568 2 2.2208 8.14284 6.71871 24.831
569 1 -1.1104 9.62601 8.08802 23.4707
574 2 2.2208 8.16669 12.321 24.7471
575 1 -1.1104 12.2346 11.055 26.1154
576 1 -1.1104 12.3334 5.38843 26.1127
577 1 -1.1104 9.54187 10.9403 26.0453
578 1 -1.1104 9.48826 5.28772 26.0983
579 1 -1.1104 9.59239 10.9949 23.2997
580 1 -1.1104 9.46281 5.45141 23.3591
581 2 2.2208 8.23684 9.46359 22.0481
582 1 -1.1104 9.62139 8.12173 26.3234
631 1 -1.1104 9.60353 13.6719 23.4677
593 1 -1.1104 6.61265 19.5278 20.6669
112 2 2.2208 5.35804 17.9388 27.5853
614 2 2.2208 10.8894 17.9438 22.0015
113 2 2.2208 2.5814 20.8748 27.6453
597 1 -1.1104 3.86747 19.26 20.5771
611 2 2.2208 2.44033 17.9952 24.909
612 2 2.2208 2.44995 15.2044 21.9511
583 1 -1.1104 1.08019 19.4568 23.335
585 2 2.2208 5.16091 15.163 24.7986
586 2 2.2208 5.1121 20.92 24.7528
588 1 -1.1104 1.25854 13.9599 26.2447
589 1 -1.1104 1.0442 16.6949 26.067
590 1 -1.1104 3.75375 16.6573 23.5719
591 1 -1.1104 1.10725 16.6376 23.3242
599 1 -1.1104 1.08611 19.4964 26.2532
601 1 -1.1104 3.70828 13.9256 23.4106
602 1 -1.1104 3.93649 19.5172 23.3258
603 1 -1.1104 1.02259 13.8027 23.4088
604 2 2.2208 2.41228 20.7949 22.0573
607 2 2.2208 5.1255 18.0519 22.0146
608 1 -1.1104 3.83825 19.3917 26.2758
609 1 -1.1104 3.95335 13.8072 26.1733
610 1 -1.1104 3.85513 16.6699 26.328
9025 2 2.2208 13.6617 20.8797 27.4998
606 1 -1.1104 6.59607 19.469 26.2467
618 1 -1.1104 12.3711 19.523 23.2394
144 2 2.2208 7.99338 20.8481 27.6621
615 2 2.2208 8.11406 15.2831 22.1513
592 1 -1.1104 6.67674 13.7342 20.5092
626 1 -1.1104 9.55578 16.4535 20.5334
627 1 -1.1104 9.59058 16.5513 23.4108
634 1 -1.1104 9.4971 19.3043 23.2647
463 1 -1.1104 12.3256 13.8087 20.5477
600 1 -1.1104 6.59037 16.6107 26.1041
630 1 -1.1104 12.1601 16.6064 26.0985
619 1 -1.1104 12.125 13.7453 26.0873
617 1 -1.1104 12.4514 13.7882 23.2871
629 2 2.2208 10.8874 20.7879 24.8583
9000 2 2.2208 -0.344825 6.75633 27.6834
9576 2 2.2208 -0.339423 20.9164 24.899
9571 2 2.2208 -0.287411 15.2816 24.7433
9363 2 2.2208 -0.377076 6.71529 16.4331
9552 2 2.2208 13.6161 18.0291 24.701
9309 2 2.2208 -0.36877 -1.60379 19.3198
455 2 2.2208 13.616 18.1598 19.1388
9391 2 2.2208 -0.357499 20.8218 19.1118
9455 2 2.2208 -0.286558 3.92445 24.855
9416 2 2.2208 -0.335978 18.0074 16.4039
9448 2 2.2208 13.5855 3.91855 22.038
9504 2 2.2208 -0.282174 9.60862 24.8046
9577 2 2.2208 -0.191587 18.09 21.9226
8996 2 2.2208 -0.260708 12.4005 27.6336
9419 2 2.2208 13.5664 1.16594 24.8197
454 2 2.2208 13.6638 20.8304 16.4604
9308 2 2.2208 -0.329542 1.19301 16.4012
8523 2 2.2208 10.8609 -4.37869 27.7206
8644 2 2.2208 5.32133 -4.39778 16.4963
9107 2 2.2208 13.6117 1.22117 13.678
328 2 2.2208 2.33967 -1.76073 27.559
187 2 2.2208 5.46661 -1.4605 13.7147
479 2 2.2208 8.07828 18.067 13.7355
189 2 2.2208 5.28412 4.11107 13.6717
8936 2 2.2208 -0.320111 1.29448 27.5986
9132 2 2.2208 -0.300567 3.99084 13.6671
9252 2 2.2208 -0.342881 -1.51727 13.6845
637 2 2.2208 5.29267 23.6031 5.22568
638 2 2.2208 5.27991 29.1615 5.16244
639 1 -1.1104 1.1656 24.7289 0.994022
640 1 -1.1104 1.0975 24.8589 3.77668
641 1 -1.1104 1.17653 22.0419 1.10051
642 1 -1.1104 1.09795 27.7464 1.25315
643 2 2.2208 5.39737 26.4071 2.44617
644 1 -1.1104 1.03349 22.2518 3.83948
645 1 -1.1104 0.998428 27.8236 3.83753
646 1 -1.1104 3.94744 24.8768 1.08499
647 2 2.2208 2.49874 23.5872 2.49443
648 2 2.2208 2.48872 29.192 2.3125
649 1 -1.1104 3.94379 24.9191 3.90426
650 2 2.2208 2.55802 26.3508 5.23632
651 1 -1.1104 4.04174 22.1513 0.9181
652 1 -1.1104 3.93227 27.7426 0.8874
653 1 -1.1104 3.9343 22.2116 3.74004
654 1 -1.1104 3.82608 27.6467 3.76764
9645 2 2.2208 -0.32275 29.2396 5.19268
9644 2 2.2208 -0.184053 26.2282 2.40999
664 1 -1.1104 0.980446 22.2748 6.57955
668 1 -1.1104 3.9193 27.7685 6.55167
666 1 -1.1104 3.81683 24.9185 6.61434
658 1 -1.1104 6.79288 22.3303 1.03141
660 1 -1.1104 6.67216 22.2095 3.91645
663 1 -1.1104 6.62636 24.876 6.66088
689 2 2.2208 13.493 26.4104 5.30399
826 1 -1.1104 1.07964 27.8532 6.59348
667 1 -1.1104 3.86718 22.0916 6.68558
9646 2 2.2208 -0.350734 23.6084 5.14519
659 1 -1.1104 6.69185 27.8649 0.981887
657 1 -1.1104 6.59247 25.0107 3.81473
661 1 -1.1104 6.73636 27.8036 3.81835
656 1 -1.1104 6.74134 25.0801 1.00835
671 2 2.2208 10.9102 23.6281 5.03982
672 2 2.2208 10.8422 29.2811 5.16411
673 1 -1.1104 12.3192 24.9817 0.906286
674 1 -1.1104 12.2807 25.0776 3.68666
675 1 -1.1104 12.1659 22.2661 0.969391
676 1 -1.1104 12.4915 27.6963 1.24941
677 2 2.2208 10.8613 26.3033 2.37502
678 1 -1.1104 12.3361 22.3033 3.63304
679 1 -1.1104 12.2605 27.9376 3.91982
680 1 -1.1104 9.49954 25.1151 1.06921
681 2 2.2208 8.05255 23.6154 2.44119
682 2 2.2208 8.07326 29.1864 2.39539
683 1 -1.1104 9.42484 24.8112 3.86956
684 2 2.2208 8.11092 26.4003 5.24023
685 1 -1.1104 9.50971 22.2081 0.968708
686 1 -1.1104 9.58654 27.9172 1.05288
687 1 -1.1104 9.38682 22.1099 3.72726
688 1 -1.1104 9.56565 27.6393 3.90566
694 1 -1.1104 9.41744 27.8988 6.51686
691 1 -1.1104 6.54132 27.6828 6.52874
692 1 -1.1104 9.47878 24.9558 6.56762
852 1 -1.1104 12.2405 22.3448 6.7496
10007 2 2.2208 -0.328371 32.1506 13.6746
665 1 -1.1104 6.68604 22.0485 6.76195
851 1 -1.1104 12.0908 24.9607 6.48382
1502 1 -1.1104 1.04341 47.3937 12.2577
9705 2 2.2208 -0.303277 32.0456 2.32013
699 2 2.2208 5.40549 34.8361 5.16506
700 1 -1.1104 1.03115 30.506 0.929614
701 1 -1.1104 1.17003 36.0659 1.07251
703 1 -1.1104 1.0671 30.5887 3.73088
704 1 -1.1104 1.24892 36.264 3.8271
706 1 -1.1104 1.04313 33.3151 0.968278
707 2 2.2208 5.23808 31.9676 2.33529
708 2 2.2208 5.32883 37.5964 2.42311
709 1 -1.1104 1.00375 33.4778 3.73445
711 1 -1.1104 3.82966 30.7047 1.08409
712 1 -1.1104 4.03372 36.1536 0.923967
713 2 2.2208 2.60814 34.7873 2.37213
714 1 -1.1104 3.94514 30.6045 3.87042
715 1 -1.1104 4.03188 36.0556 3.67716
716 2 2.2208 2.44843 31.9692 5.11176
717 2 2.2208 2.52688 37.5199 5.33748
718 1 -1.1104 3.99519 33.354 1.03542
719 1 -1.1104 3.89365 33.2753 3.79482
763 2 2.2208 -0.244407 40.3561 -0.290133
872 1 -1.1104 1.05155 30.7403 6.45061
730 1 -1.1104 3.92787 33.4083 6.47944
874 1 -1.1104 1.1738 33.4898 6.57827
705 1 -1.1104 6.76359 36.3276 3.71256
729 1 -1.1104 3.94228 36.2009 6.70422
728 1 -1.1104 3.84122 30.5825 6.5864
873 1 -1.1104 0.950738 36.3231 6.57778
1054 2 2.2208 5.4742 31.8289 13.6799
722 1 -1.1104 6.49212 30.5795 0.946091
723 1 -1.1104 6.78047 30.5484 3.798
724 1 -1.1104 6.96889 33.2586 0.998624
710 1 -1.1104 6.6344 33.3815 3.74172
702 1 -1.1104 6.82793 36.0923 0.986463