LAMMPS data file via write_data, version 29 Oct 2020, timestep = 100112

17700 atoms
3 atom types

-0.44150644427831104 27.78150644427893 xlo xhi
-5.28573014673327 333.3657301467454 ylo yhi
-0.4459912071237198 27.7859912071229 zlo zhi

Masses

1 15.9994
2 232.0381
3 131.293

Atoms # full

1 0 2 2.2208 5.351025147609697 0.23487815670167525 5.337385622639354 0 0 0
2 0 1 -1.1104 1.0118232596257808 -3.9431705146499003 1.1528640816626161 0 0 0
6 0 1 -1.1104 1.2156899635672243 -3.8340345195440224 3.9988661645093946 0 0 0
10 0 1 -1.1104 1.304148360010266 -1.0264778361450584 0.9667749515187116 0 0 0
12 0 2 2.2208 5.474972854900158 -2.684294088182484 2.5386481635131894 0 0 0
14 0 1 -1.1104 1.1628894432409742 -1.2575628665449676 3.9062297577987897 0 0 0
16 0 1 -1.1104 4.0650923927212474 -4.141735038759843 1.1733070432444976 0 0 0
18 0 2 2.2208 2.6874594027050938 0.28806859936765866 2.487639477531702 0 0 0
19 0 1 -1.1104 4.091094636586804 -4.024916748011372 3.720082632917613 0 0 0
21 0 2 2.2208 2.647492252138606 -2.533371188761149 5.386004527708498 0 0 0
23 0 1 -1.1104 4.159983561273086 -1.2217805205060788 1.3349236228868977 0 0 0
24 0 1 -1.1104 3.907819730232201 -1.0229663520027197 4.194112920777807 0 0 0
174 0 1 -1.1104 4.125188203652713 -1.1049010741147185 6.839444084635285 0 0 0
351 0 2 2.2208 5.3599290035923 0.21132133033416572 -0.2308885066800687 0 0 0
17328 0 2 2.2208 -0.23563932562072432 -5.050825524721886 -0.3916435937827145 0 0 0
25 0 2 2.2208 -0.2893229219173949 -2.5516566832404037 2.603798662868347 0 0 0
172 0 1 -1.1104 4.1597072969917 -3.8735937126422275 6.719001269618539 0 0 0
26 0 2 2.2208 -0.25883234802335675 0.1156336011282919 5.339729121503629 0 0 0
8740 0 2 2.2208 -0.17286006527268344 0.4146778594371246 -0.34013303792898464 0 0 0
352 0 2 2.2208 2.4629863623112502 -2.6774840776871836 -0.2525871398496183 0 0 0
8 0 1 -1.1104 6.855287013772574 -4.115431452082171 4.013578265818421 0 0 0
11 0 1 -1.1104 6.847904595689123 -1.2177140828986075 1.1644191848648358 0 0 0
4 0 1 -1.1104 6.9734969282316115 -4.066282076073679 1.182597898872641 0 0 0
15 0 1 -1.1104 6.878970072695846 -1.0812839621840011 3.8718097439233663 0 0 0
31 0 2 2.2208 11.138306462202932 0.4508755632357218 5.255191438680596 0 0 0
32 0 1 -1.1104 12.55107918157608 -3.9375926865340705 0.93782577116404 0 0 0
34 0 1 -1.1104 12.475611372410407 -4.040971259314227 3.7849376909978925 0 0 0
36 0 1 -1.1104 12.473926378236525 -1.2565795752742273 1.0680627655453085 0 0 0
37 0 2 2.2208 10.92651991376271 -2.4911655356738964 2.389707237143861 0 0 0
39 0 1 -1.1104 12.59911925100743 -1.113953387566099 3.9242403738835128 0 0 0
40 0 1 -1.1104 9.695998106710215 -3.975158091887908 0.9131944278993661 0 0 0
42 0 2 2.2208 8.044097510023445 0.280266426076924 2.5297441611964966 0 0 0
43 0 1 -1.1104 9.611894808466165 -3.893787365256591 3.8181636769608045 0 0 0
45 0 2 2.2208 8.335300875336378 -2.5536957753224563 5.220564945775738 0 0 0
47 0 1 -1.1104 9.523656411035862 -1.1592399715045356 1.2142262532390553 0 0 0
48 0 1 -1.1104 9.95372338618379 -1.2185450989898394 3.9680895543789605 0 0 0
8051 0 2 2.2208 10.942624648235608 -5.28309237540997 5.328502970298289 0 0 0
171 0 1 -1.1104 6.943736504948562 -1.0718147038150625 6.671294003833688 0 0 0
353 0 2 2.2208 2.44617181375284 3.2082762685568618 -0.4029462815384825 0 0 0
3 0 1 -1.1104 1.1874070376445869 1.776735223341858 1.2099321952879105 0 0 0
7 0 1 -1.1104 1.213135149203264 1.793850296653958 3.7690318521831037 0 0 0
13 0 2 2.2208 5.267306822368128 3.1004063580821035 2.5445896830705204 0 0 0
17 0 1 -1.1104 3.862537274949157 1.7122562314357674 1.0856569356889143 0 0 0
20 0 1 -1.1104 4.1110919495728035 1.7110337989313051 3.913342594922797 0 0 0
22 0 2 2.2208 2.4214823832497254 2.9686160131923005 5.380304973233721 0 0 0
54 0 2 2.2208 5.338567248086281 5.922963966142567 5.221917951801648 0 0 0
60 0 1 -1.1104 0.9515406585250794 4.613177056958763 0.8097827425519294 0 0 0
67 0 1 -1.1104 0.916431644897517 4.563643590073393 3.867507108621872 0 0 0
72 0 2 2.2208 2.3371468410788823 6.072354078392064 2.4617255074651054 0 0 0
76 0 1 -1.1104 3.9096815297808125 4.65904227150172 1.0898712603649123 0 0 0
79 0 1 -1.1104 4.197268156854009 4.443751048352953 4.187816042993507 0 0 0
71 0 1 -1.1104 3.6573848407458973 7.511135454576663 1.065551593549422 0 0 0
56 0 1 -1.1104 0.9355970949939947 7.7650836583951275 0.9280221144781164 0 0 0
74 0 1 -1.1104 3.8937812187578005 7.392303973011249 3.7099932989291404 0 0 0
58 0 1 -1.1104 0.9783223941328534 7.456819150329406 4.122597869841977 0 0 0
59 0 1 -1.1104 6.549896084051767 7.449710424064094 4.020125879782025 0 0 0
167 0 1 -1.1104 1.101714511909847 1.5703205047929223 6.768721498222049 0 0 0
366 0 2 2.2208 -0.25386406353092456 6.1745566949921065 -0.3755223654123267 0 0 0
27 0 2 2.2208 -0.2774364890736935 3.1320533924042206 2.6122129708778767 0 0 0
325 0 2 2.2208 8.286291605763273 14.429842498009114 -0.2926471076439202 0 0 0
235 0 1 -1.1104 6.791491701880811 7.214298869883916 6.820797769374931 0 0 0
362 0 2 2.2208 5.21263070596009 5.810027269802097 -0.23980363133078883 0 0 0
69 0 1 -1.1104 6.81407924864429 4.684779486370079 3.889019357956574 0 0 0
9 0 1 -1.1104 6.961628310404509 1.975278533790769 3.6733489286000878 0 0 0
57 0 1 -1.1104 6.635147901788762 7.435334443002047 1.0641124846219074 0 0 0
5 0 1 -1.1104 6.5663612343087765 1.7650201978467417 0.9920291594861979 0 0 0
63 0 1 -1.1104 6.691032389570905 4.450448142400116 1.0978582433633994 0 0 0
33 0 1 -1.1104 12.329895604323115 1.6829552705847284 1.0520066096747018 0 0 0
35 0 1 -1.1104 12.643852028604096 1.8126913206141648 3.9961203213383207 0 0 0
38 0 2 2.2208 10.886884786856186 3.198426123439932 2.488054555028585 0 0 0
41 0 1 -1.1104 9.431816677003136 1.6158441939489734 1.0227352999364632 0 0 0
44 0 1 -1.1104 9.68934623679373 1.5168803522991168 3.8079092975597124 0 0 0
46 0 2 2.2208 8.108893215917849 3.06581272192406 5.308710260429739 0 0 0
84 0 2 2.2208 11.036589391568494 5.901248144814036 5.244063702714112 0 0 0
86 0 1 -1.1104 12.318113356249254 7.114398847754769 1.0696121038075193 0 0 0
88 0 1 -1.1104 12.394968532539096 4.355916343351557 0.9050652019821019 0 0 0
92 0 1 -1.1104 12.614401864799579 4.618153104573946 3.7267165584508244 0 0 0
95 0 2 2.2208 8.201598385960967 5.935912478169236 2.565534278421725 0 0 0
99 0 1 -1.1104 9.41733511809085 4.267515524828697 1.1340815739440322 0 0 0
102 0 1 -1.1104 9.77346569991586 4.429292841365798 3.976615853525582 0 0 0
97 0 1 -1.1104 9.680930734697275 7.320360471194141 4.098878879413077 0 0 0
94 0 1 -1.1104 9.437422627987335 7.233299084995931 1.2583678195625179 0 0 0
87 0 1 -1.1104 12.336792395011457 7.342977728681891 3.898752157531 0 0 0
206 0 1 -1.1104 12.466495426270782 1.6369613610102067 6.680335171866746 0 0 0
267 0 1 -1.1104 9.669387375979781 7.11467068865567 7.024667587434745 0 0 0
209 0 1 -1.1104 9.628734774491797 1.478211418881324 6.54459965266274 0 0 0
357 0 2 2.2208 8.062683599815664 3.0637852291932783 -0.29717758673617806 0 0 0
55 0 2 2.2208 5.423922982471041 11.388938944698808 5.188385979644976 0 0 0
61 0 1 -1.1104 1.029297636988346 10.36561329523653 1.208211933466777 0 0 0
66 0 2 2.2208 5.3420013378655185 8.824134965904703 2.437232133642673 0 0 0
68 0 1 -1.1104 1.0281922124847054 10.276420402994713 3.81234370391962 0 0 0
73 0 2 2.2208 2.4081931663954332 11.61395614293521 2.474031310908134 0 0 0
75 0 2 2.2208 2.4780635180828248 8.725580761472449 5.293325281710245 0 0 0
77 0 1 -1.1104 3.888532336877098 10.260662683775719 1.2300048488741993 0 0 0
80 0 1 -1.1104 4.011590014964244 10.29093061819125 3.819039220672154 0 0 0
107 0 1 -1.1104 1.0524165837233066 12.932406418099124 0.7885421169469224 0 0 0
113 0 1 -1.1104 1.1512125580640726 12.951488206133336 3.7717802701344088 0 0 0
123 0 1 -1.1104 4.041565971281722 12.985557216946654 0.853311631245856 0 0 0
128 0 1 -1.1104 4.025950536944908 13.122838497139242 3.8051621657919497 0 0 0
64 0 1 -1.1104 6.784554108898091 10.09075460354354 0.9226768371686201 0 0 0
110 0 1 -1.1104 6.679641034716253 12.962061810242728 0.9558556450854706 0 0 0
363 0 2 2.2208 2.571692262115733 8.93356309680585 -0.41496566109322386 0 0 0
115 0 1 -1.1104 6.661410188239433 12.725151296931921 3.7974548885968744 0 0 0
70 0 1 -1.1104 6.767136037632165 10.124445521387926 3.600901549517333 0 0 0
85 0 2 2.2208 10.924690570221836 11.471881444046767 5.2723113138082365 0 0 0
89 0 1 -1.1104 12.576475545191029 10.040538894067742 1.1179559873624185 0 0 0
91 0 2 2.2208 11.007796320249517 8.705643095612455 2.3497603481665736 0 0 0
93 0 1 -1.1104 12.349765223998155 10.073292466532845 3.991197150116135 0 0 0
96 0 2 2.2208 8.14763374673862 11.47039607649866 2.316738290740663 0 0 0
98 0 2 2.2208 8.233056397484175 8.43077541709639 5.206465779095585 0 0 0
100 0 1 -1.1104 9.7476957087605 9.929769055270857 0.9623957158520003 0 0 0
103 0 1 -1.1104 9.470321539700395 10.148292088507285 3.936628642096927 0 0 0
142 0 1 -1.1104 12.310277502998904 13.109985067768047 0.9340710209846096 0 0 0
146 0 1 -1.1104 12.28634409377218 13.036972279826207 3.6477533502560777 0 0 0
153 0 1 -1.1104 9.583852444649605 12.957551882830368 0.9883855945627172 0 0 0
158 0 1 -1.1104 9.602423713837824 12.848809153734264 3.77026395428476 0 0 0
367 0 2 2.2208 10.910341497331233 11.542674894362385 -0.32741970133961756 0 0 0
365 0 2 2.2208 -0.4064525570940845 11.549696445992616 -0.28961625207117564 0 0 0
137 0 2 2.2208 -0.12811243910785255 16.929595670325135 5.262109045413569 0 0 0
119 0 2 2.2208 5.292609876903946 14.548588306029421 2.262541292074761 0 0 0
130 0 2 2.2208 2.5598828040091752 14.299963036534166 5.136464662373746 0 0 0
106 0 2 2.2208 5.293379966983072 17.07179605651956 5.4039998619653575 0 0 0
109 0 1 -1.1104 1.1789320078215415 18.483521618484236 1.0767689410358734 0 0 0
114 0 1 -1.1104 1.0908771261553745 18.39101350085626 3.80921642068322 0 0 0
116 0 1 -1.1104 1.1746950047992966 15.675875344205094 0.7575669356004572 0 0 0
120 0 2 2.2208 5.1677367614783645 20.025697248332868 2.524820495057035 0 0 0
121 0 1 -1.1104 0.9654692588943979 15.641395106688655 3.84135359900453 0 0 0
125 0 1 -1.1104 4.154773603763967 18.7180129469574 0.882429715172522 0 0 0
127 0 2 2.2208 2.58571391261652 17.12560756940118 2.576530735269381 0 0 0
129 0 1 -1.1104 3.9940898890194148 18.520923659138848 3.9494600392168695 0 0 0
131 0 2 2.2208 2.383275740128682 19.816061551507204 5.465075855734533 0 0 0
132 0 1 -1.1104 3.918047241776625 15.92325268603419 0.7597674637087528 0 0 0
134 0 1 -1.1104 3.9906504655701407 15.752553370000783 3.8227090707063356 0 0 0
136 0 2 2.2208 -0.2920549739868514 20.00734439591539 2.444321274540235 0 0 0
139 0 1 -1.1104 6.710863177892244 18.55728349654379 3.6964051795983353 0 0 0
340 0 2 2.2208 2.404083958525108 19.90249875693084 -0.2963222317281757 0 0 0
311 0 2 2.2208 -0.43723359997050104 19.876464221080482 8.037367284900153 0 0 0
336 0 2 2.2208 -0.23585681167961553 17.163757207452335 -0.44056814824675433 0 0 0
133 0 1 -1.1104 3.983166320100686 15.567522619086287 6.5316177041029535 0 0 0
302 0 1 -1.1104 1.0888729710452978 18.457419998135048 6.880489773555122 0 0 0
126 0 1 -1.1104 3.7866902455393503 18.312250609358973 6.681646779783735 0 0 0
117 0 1 -1.1104 1.262359945139263 15.770670711340902 6.687904430804418 0 0 0
203 0 2 2.2208 13.541572556324251 19.902406878859747 5.1066753799465845 0 0 0
140 0 1 -1.1104 6.8903619247885075 15.69984083385527 1.0744835165747961 0 0 0
122 0 1 -1.1104 6.8602033160864995 15.695786513101092 4.004968584020671 0 0 0
138 0 1 -1.1104 6.785999104836996 18.39684485953214 0.9195138809280337 0 0 0
160 0 2 2.2208 8.183818291405773 14.185739814614548 5.335533497971694 0 0 0
150 0 2 2.2208 10.91551694708405 14.360201198196052 2.4662679551159723 0 0 0
141 0 2 2.2208 10.896358156524036 17.239461671253668 5.220715812159533 0 0 0
144 0 1 -1.1104 12.135358491458769 18.63397809012403 0.9663082384880859 0 0 0
147 0 1 -1.1104 12.162485387048818 18.857353336877328 3.8438744830752434 0 0 0
148 0 1 -1.1104 12.411309418939641 15.860973186370206 0.9577556312886758 0 0 0
151 0 2 2.2208 10.807178340472031 20.095374161413485 2.504933475448819 0 0 0
152 0 1 -1.1104 12.425326182235795 16.032960012829555 3.8741337889397025 0 0 0
155 0 1 -1.1104 9.454871178800728 18.337503484404653 1.024333187798179 0 0 0
157 0 2 2.2208 8.102857505222765 17.125135959308054 2.5376121070992324 0 0 0
159 0 1 -1.1104 9.486260991574683 18.607307440340847 3.781077416435025 0 0 0
161 0 2 2.2208 7.990380431648079 19.96123191540385 5.170819079715824 0 0 0
162 0 1 -1.1104 9.643941105747597 15.670015745985108 1.1895155400804416 0 0 0
164 0 1 -1.1104 9.673694838388862 15.638230062068356 3.9662445258457573 0 0 0
329 0 2 2.2208 10.809124351169562 17.104033855774656 -0.2762068717925886 0 0 0
201 0 2 2.2208 -0.004227735640528177 0.41090387415608165 10.898291075438742 0 0 0
170 0 1 -1.1104 1.0908142098825744 -1.4413891255182818 6.75235640915607 0 0 0
166 0 1 -1.1104 1.2420303730657856 -4.07051454406422 6.814817603391497 0 0 0
175 0 2 2.2208 5.5896984768023765 0.3806146149372934 10.90830358622567 0 0 0
176 0 1 -1.1104 1.3608855704541727 -4.201554538358781 12.143803489069064 0 0 0
180 0 1 -1.1104 1.2769856411964786 -4.062039797999462 9.472772279064287 0 0 0
184 0 1 -1.1104 1.1827875585978127 -1.2676042042032505 12.360604633950052 0 0 0
186 0 2 2.2208 5.553540977664137 -2.501237731026912 8.036424099492478 0 0 0
188 0 1 -1.1104 1.300279413745792 -1.1443593366735374 9.596419306096445 0 0 0
190 0 1 -1.1104 4.078219198042889 -4.076231675773776 12.152965443019204 0 0 0
192 0 2 2.2208 2.7218774408889397 0.18044856647951124 8.092552253499369 0 0 0
193 0 1 -1.1104 4.277519900914672 -4.006978357331077 9.45055970307689 0 0 0
195 0 2 2.2208 2.7587314862957903 -2.6619538452330067 10.83383660716347 0 0 0
197 0 1 -1.1104 4.012220202486235 -1.0417648327569629 12.330533933131441 0 0 0
198 0 1 -1.1104 4.198467837547655 -1.2112234462937435 9.588614287086418 0 0 0
200 0 2 2.2208 -0.2837222615681902 -2.778896551232537 8.203897198735874 0 0 0
168 0 1 -1.1104 6.776499657037499 -4.058595068717544 6.769820819302608 0 0 0
205 0 1 -1.1104 12.281550965348654 -4.031509118897802 6.638444072628971 0 0 0
208 0 1 -1.1104 9.55529826332471 -3.7960339467695796 6.579627625098008 0 0 0
210 0 1 -1.1104 9.803603592895671 -0.9996839654770895 6.6996350211850295 0 0 0
8057 0 2 2.2208 11.03379407728239 -5.25696795029445 10.978627069261204 0 0 0
185 0 1 -1.1104 7.067935632136199 -1.0879295855945885 12.4207713959342 0 0 0
178 0 1 -1.1104 7.044561029278943 -3.88434761934968 12.389739598045303 0 0 0
189 0 1 -1.1104 7.121618096166376 -0.8997644878153729 9.57444864723783 0 0 0
182 0 1 -1.1104 6.991237584529942 -3.9471399340003974 9.583441407525955 0 0 0
207 0 1 -1.1104 12.7261208470749 -1.2356966566400984 6.796259797251358 0 0 0
211 0 2 2.2208 11.158218488068387 0.2742392457231673 10.96741997600006 0 0 0
212 0 1 -1.1104 12.584626661320641 -3.6706537993194757 12.339179772952692 0 0 0
214 0 1 -1.1104 12.356073062155705 -4.011674489102393 9.38710406276525 0 0 0
216 0 1 -1.1104 12.611195965278686 -1.0313212848759485 12.312373466029124 0 0 0
217 0 2 2.2208 11.107173703814519 -2.5333840836888974 8.0939762154592 0 0 0
219 0 1 -1.1104 12.585730586837666 -1.1623549286910153 9.623583373990167 0 0 0
220 0 1 -1.1104 9.812109532499758 -3.8837017139684034 12.509887034514634 0 0 0
222 0 2 2.2208 8.585026275188179 0.24433940006437066 8.21134819231643 0 0 0
223 0 1 -1.1104 9.76465810480522 -3.7914927233520364 9.486058763438917 0 0 0
225 0 2 2.2208 8.334620785386155 -2.492528618633113 10.956158063434888 0 0 0
227 0 1 -1.1104 9.93206368816039 -1.1394348333432638 12.394251605531151 0 0 0
228 0 1 -1.1104 9.840536966911467 -1.006990035802548 9.578678242420857 0 0 0
82 0 2 2.2208 -0.39056703929982967 8.91903790282001 2.6790886225069666 0 0 0
8472 0 2 2.2208 -0.2151231945029038 3.182991832150522 8.108546823209473 0 0 0
236 0 1 -1.1104 1.2782497048388113 4.50838467041245 6.6763678265747055 0 0 0
173 0 1 -1.1104 3.9035501032766518 1.686918316517642 6.835636206947431 0 0 0
234 0 1 -1.1104 1.1401578046192549 7.267535211474206 6.944904685923558 0 0 0
238 0 1 -1.1104 3.9968076863424735 7.262140974671792 6.514107646160418 0 0 0
239 0 1 -1.1104 4.004947525486358 4.321281691633428 6.736858986928612 0 0 0
177 0 1 -1.1104 1.2551874845796531 1.7105457511064073 12.360897403296931 0 0 0
181 0 1 -1.1104 1.3367742789265693 1.890797522278849 9.561361495707938 0 0 0
187 0 2 2.2208 5.306846954583894 3.1101072095317472 8.100849726082217 0 0 0
191 0 1 -1.1104 4.351414581926545 1.5623900032795037 12.47194023469628 0 0 0
194 0 1 -1.1104 3.998282857043996 1.5809928805131264 9.709255241875836 0 0 0
196 0 2 2.2208 2.6052120067027076 3.105157823614404 10.852665142545206 0 0 0
240 0 2 2.2208 5.495491722638435 5.761857839367155 11.006542887004828 0 0 0
246 0 1 -1.1104 1.2625516693335324 4.336663457879356 12.355910055411751 0 0 0
251 0 1 -1.1104 1.1420805453633471 4.574704858952454 9.516811288003959 0 0 0
256 0 2 2.2208 2.5310446594662244 5.910320938644578 8.134010600425203 0 0 0
260 0 1 -1.1104 3.966895368828999 4.441883855174236 12.515026117754205 0 0 0
262 0 1 -1.1104 3.978373489080645 4.496830104496577 9.57972414896173 0 0 0
242 0 1 -1.1104 1.1692778930343537 7.389693186823085 12.489790175732006 0 0 0
255 0 1 -1.1104 4.030344028184903 7.334390480227872 12.48228013603924 0 0 0
258 0 1 -1.1104 3.872530913203226 7.2496905413958 9.72051400808036 0 0 0
244 0 1 -1.1104 1.2443019397071533 7.3248600055712565 9.711513874062137 0 0 0
28 0 2 2.2208 -0.04553069275061758 5.98583069980754 11.026380004268507 0 0 0
237 0 1 -1.1104 6.8654278239123965 4.474071282160918 6.7370994298774 0 0 0
179 0 1 -1.1104 6.95561028172669 1.5772944755345646 12.327842966240238 0 0 0
265 0 1 -1.1104 12.459238560069863 7.298320027802134 6.582837399307704 0 0 0
169 0 1 -1.1104 6.747759057158313 1.5914195449794202 6.506752264408589 0 0 0
243 0 1 -1.1104 6.845515977381376 7.359769480858269 12.337624062027277 0 0 0
245 0 1 -1.1104 6.725588580075348 7.275891765017225 9.68874078481569 0 0 0
248 0 1 -1.1104 7.049814287746896 4.328476745203265 12.302134494544136 0 0 0
183 0 1 -1.1104 6.625490251213161 1.7340569381651525 9.422042091264286 0 0 0
266 0 1 -1.1104 12.227123161021387 4.528367772739595 6.53200414562821 0 0 0
269 0 1 -1.1104 9.584743947445087 4.55457046214956 6.669900180239603 0 0 0
253 0 1 -1.1104 7.000853988338471 4.449820096850484 9.587545700123032 0 0 0
213 0 1 -1.1104 12.648896799237834 1.737823164003354 12.254207325648803 0 0 0
215 0 1 -1.1104 12.61572200250818 1.7585235949419111 9.398239662364924 0 0 0
218 0 2 2.2208 11.137359075575656 3.0988076411960574 8.168220048400782 0 0 0
221 0 1 -1.1104 9.565632075097206 1.706750982438768 12.468481189432495 0 0 0
224 0 1 -1.1104 9.84015844420076 1.7027410278249653 9.580137946889094 0 0 0
226 0 2 2.2208 8.395049342109095 3.1099645532582496 10.950600793994514 0 0 0
268 0 1 -1.1104 9.67397707675412 4.407602691406913 9.487493450186012 0 0 0
271 0 1 -1.1104 9.795134740553166 4.4453140453645785 12.324719106693406 0 0 0
275 0 2 2.2208 8.164236467950214 5.83591828894597 8.131212813299562 0 0 0
276 0 2 2.2208 11.17419170601421 5.817377762514118 10.964505987876787 0 0 0
280 0 1 -1.1104 12.490754995701332 4.460635639778632 12.32472941019288 0 0 0
283 0 1 -1.1104 12.3659955261991 4.665407840029881 9.395580381527125 0 0 0
278 0 1 -1.1104 12.663682208250746 7.251256774055423 12.312547576194786 0 0 0
279 0 1 -1.1104 12.595334813781632 7.191822712679877 9.379216579145822 0 0 0
273 0 1 -1.1104 9.4336249233056 7.191266813084048 9.699338416989805 0 0 0
285 0 1 -1.1104 9.910646446909235 7.234886021398298 12.410626967844772 0 0 0
30 0 2 2.2208 -0.35561882435944553 11.45540602040207 11.034489358307285 0 0 0
8446 0 2 2.2208 -0.30086072918343854 14.255278538299391 8.156733080873883 0 0 0
29 0 2 2.2208 -0.36714781807815605 8.7756081635626 8.229253585714885 0 0 0
78 0 1 -1.1104 3.9169774626680898 10.010895439592453 6.45173049256955 0 0 0
108 0 1 -1.1104 1.2924836936162185 12.997566205420162 6.674541525110834 0 0 0
62 0 1 -1.1104 0.8822468886102559 10.051581790679252 6.617520223925301 0 0 0
124 0 1 -1.1104 4.1974867811846694 12.721195819464176 6.7512036593105735 0 0 0
241 0 2 2.2208 5.305776738150369 11.398325435988967 11.016772275611459 0 0 0
247 0 1 -1.1104 1.039421687621512 10.118948049816344 12.270989910525424 0 0 0
250 0 2 2.2208 5.432741159135419 8.65777812679666 8.102546534660581 0 0 0
252 0 1 -1.1104 1.121799956738915 10.134683797734558 9.46765187676603 0 0 0
257 0 2 2.2208 2.5055942535245226 11.53116962306946 8.243712609708046 0 0 0
259 0 2 2.2208 2.5173120500996653 8.658336730775503 11.071584285194572 0 0 0
261 0 1 -1.1104 3.892846319609763 10.028168134270532 12.240377986773519 0 0 0
263 0 1 -1.1104 4.114945152920063 10.147314509738104 9.579640924077225 0 0 0
287 0 1 -1.1104 3.7237937978743085 12.867644545950183 12.249960556187467 0 0 0
294 0 1 -1.1104 1.05982289351527 12.97364582880217 9.52910409927686 0 0 0
299 0 1 -1.1104 0.8930136835384026 13.007211066431237 12.11942319834718 0 0 0
305 0 1 -1.1104 3.9143386987308726 13.056063842925695 9.468207647120067 0 0 0
254 0 1 -1.1104 6.806451466934586 9.96787979445849 9.38154027600291 0 0 0
295 0 2 2.2208 5.344649037449895 14.214975045369265 8.223258493096415 0 0 0
337 0 2 2.2208 2.4595570411104193 11.434998600322803 13.653470723950933 0 0 0
65 0 1 -1.1104 6.781080909702861 9.98678957237518 6.538959896975466 0 0 0
90 0 1 -1.1104 12.334652289781477 10.096970535854547 6.761511558883671 0 0 0
101 0 1 -1.1104 9.506662307359544 10.130837986388459 6.5936343779548965 0 0 0
231 0 2 2.2208 10.97449172962542 14.10169633412161 8.051666251263786 0 0 0
111 0 1 -1.1104 6.829175753808546 12.82137145403782 6.726276109891102 0 0 0
249 0 1 -1.1104 6.681784019267987 10.04719822148715 12.316789116925055 0 0 0
290 0 1 -1.1104 6.582220614006811 12.736856855175523 9.63914450823046 0 0 0
297 0 1 -1.1104 6.773629083834333 12.644415186214683 12.342021007092063 0 0 0
154 0 1 -1.1104 9.452268435740441 12.76508579807126 6.86699707559727 0 0 0
143 0 1 -1.1104 12.159316812236398 12.921240887252592 6.531188378402394 0 0 0
322 0 1 -1.1104 9.40667875655833 12.854546447613126 12.618098349598998 0 0 0
319 0 1 -1.1104 9.628140782314526 12.838064516144374 9.70990465166487 0 0 0
199 0 1 -1.1104 12.551765432439323 13.084429756313273 9.461621594384408 0 0 0
264 0 1 -1.1104 9.482416040911087 9.921334816720165 9.435526026205832 0 0 0
270 0 1 -1.1104 9.376760102969447 10.0825947430136 12.421728532833871 0 0 0
272 0 2 2.2208 8.15660242263211 8.591602383312763 10.876827655292479 0 0 0
274 0 2 2.2208 8.187602978004477 11.305697777539223 7.991701135987472 0 0 0
277 0 2 2.2208 10.735516273859755 11.45617987780261 10.95086995128123 0 0 0
281 0 1 -1.1104 12.282828415613578 10.173746275354091 12.202490484398833 0 0 0
282 0 2 2.2208 10.966214580170243 8.537910830502039 8.172678761474433 0 0 0
284 0 1 -1.1104 12.53123191574604 9.906173674665611 9.42339202388235 0 0 0
105 0 1 -1.1104 12.39355092299486 12.745860614412173 12.332374050208216 0 0 0
83 0 2 2.2208 -0.14850029157343275 11.645910285600284 5.3712457151339015 0 0 0
317 0 2 2.2208 8.086831422318774 14.159087269335236 11.142381679540144 0 0 0
8447 0 2 2.2208 -0.3175196990170976 17.164647377136802 10.897208450080482 0 0 0
288 0 1 -1.1104 6.48485020353711 18.368206823899616 9.420422224282637 0 0 0
304 0 1 -1.1104 3.68493433558988 15.760030191489609 9.652131700948825 0 0 0
310 0 2 2.2208 2.463142108981467 14.466914483713076 10.998719305284844 0 0 0
307 0 1 -1.1104 0.9504460196111695 15.823659254648557 12.335075587899631 0 0 0
308 0 1 -1.1104 4.030145991656426 15.686052731301677 12.499337402798309 0 0 0
309 0 2 2.2208 2.2867795807470537 19.8451252340225 10.812815030580133 0 0 0
286 0 1 -1.1104 3.5589390889489163 18.62283031211119 12.407964440469161 0 0 0
291 0 1 -1.1104 1.0013328124031229 18.425286362475983 9.515420759987368 0 0 0
292 0 1 -1.1104 1.0964469893624427 15.81949951235926 9.456664377405408 0 0 0
293 0 2 2.2208 5.23208776060496 19.78366868418416 8.132011126979636 0 0 0
298 0 1 -1.1104 0.9226641600841728 18.45145242427823 12.260398715095555 0 0 0
300 0 2 2.2208 5.333395386836257 16.90492388915608 10.976751685710225 0 0 0
301 0 1 -1.1104 3.835082726959423 18.505472279420164 9.332426305594655 0 0 0
303 0 2 2.2208 2.393690105125874 17.05544821732915 8.111989173414338 0 0 0
369 0 2 2.2208 10.98022600357816 5.852177862347123 -0.28355971220485693 0 0 0
233 0 1 -1.1104 12.374937240854583 16.007117100284397 9.729223318045122 0 0 0
314 0 1 -1.1104 9.563854141284834 15.562930412183514 9.701142559503896 0 0 0
156 0 1 -1.1104 9.56986555379284 18.421173949881883 6.654183081389977 0 0 0
149 0 1 -1.1104 12.44341707571727 15.599751191117335 6.978008034021431 0 0 0
313 0 1 -1.1104 12.333253018175796 15.75593878928522 12.493240149536375 0 0 0
145 0 1 -1.1104 12.307536492076311 18.53923164352475 6.518452132751539 0 0 0
312 0 1 -1.1104 12.223400231605371 18.676674465915017 9.629034797235237 0 0 0
318 0 1 -1.1104 9.382339744093509 18.54454565019719 9.544277256782514 0 0 0
49 0 2 2.2208 10.82335618265464 17.0908843461562 10.969522284119078 0 0 0
316 0 2 2.2208 8.006258306636962 19.864645264320963 10.869942318301552 0 0 0
135 0 1 -1.1104 12.21260470071982 18.376584834373553 12.288923373058095 0 0 0
118 0 1 -1.1104 6.825170992147971 15.635474982269402 6.906020702489894 0 0 0
289 0 1 -1.1104 6.7266993593826765 15.48742957232354 9.596386190499022 0 0 0
112 0 1 -1.1104 6.770337940189126 18.546596598475645 6.598653823227553 0 0 0
296 0 1 -1.1104 6.6435316821923 18.377773384096315 12.319544933345627 0 0 0
306 0 1 -1.1104 6.67372130271861 15.519819441888624 12.400995322295989 0 0 0
315 0 1 -1.1104 9.593624201799567 15.685120398976917 12.381955363301579 0 0 0
320 0 2 2.2208 8.162987256903325 16.827881176843068 8.223621406221394 0 0 0
232 0 2 2.2208 10.838297948324767 19.838357295961764 8.083691489861204 0 0 0
321 0 1 -1.1104 9.303798680361094 18.480985703359067 12.316888918981288 0 0 0
163 0 1 -1.1104 9.627902605366165 15.307511199041336 6.565277808391694 0 0 0
356 0 2 2.2208 8.197910167877527 -2.6008993418087094 -0.24376824716440393 0 0 0
326 0 2 2.2208 5.547747585984996 -2.3856272657112862 13.587048081435686 0 0 0
333 0 2 2.2208 11.013523631561227 3.0921779602720285 13.626994491238824 0 0 0
347 0 2 2.2208 10.745915244347167 19.884905323217293 13.642359782796284 0 0 0
368 0 2 2.2208 8.141185950687133 8.745378304764262 -0.43475609035889873 0 0 0
327 0 2 2.2208 2.5777253679016963 0.30532535429383273 13.66801588131732 0 0 0
370 0 2 2.2208 5.459811397282044 0.3370385611131335 16.529407405610026 0 0 0
371 0 1 -1.1104 1.1537166687750913 -3.7658086750829276 18.063401759365295 0 0 0
375 0 1 -1.1104 1.4227431749859951 -3.7887660443134283 15.143761141594357 0 0 0
383 0 1 -1.1104 1.0992234038477384 -1.0243759239460772 18.081999731585764 0 0 0
385 0 2 2.2208 5.26593097593318 -2.4621270619916817 19.40464353492048 0 0 0
387 0 1 -1.1104 1.3917474749771173 -0.9744753235501981 15.175103473673216 0 0 0
391 0 1 -1.1104 4.124446242953334 -3.9270011060507013 17.90507019065769 0 0 0
393 0 2 2.2208 2.4759846894152684 0.4050940728464925 19.690637231086058 0 0 0
394 0 1 -1.1104 4.227182161561046 -3.8901408523449628 14.881991637346031 0 0 0
398 0 2 2.2208 2.7345468792758654 -2.3831799311141078 16.57078757488831 0 0 0
400 0 1 -1.1104 3.8641004879411316 -1.0378246982049921 18.121928320960155 0 0 0
401 0 1 -1.1104 4.232863344084158 -1.2484848928902998 15.197728068539181 0 0 0
9070 0 2 2.2208 13.639979049821836 8.691673690871662 22.253284834787486 0 0 0
404 0 2 2.2208 -0.29100474777395535 5.929607535022007 22.08553173366585 0 0 0
406 0 2 2.2208 -0.1449455320038136 0.3526407786488563 16.72578731740879 0 0 0
331 0 2 2.2208 8.467466571957946 0.2833154956701787 13.782889255851634 0 0 0
8062 0 2 2.2208 11.007507642604988 -5.252307456752431 27.72989030912436 0 0 -1
376 0 1 -1.1104 1.1689082840364031 -3.929063917500434 20.74818488747828 0 0 0
8763 0 2 2.2208 -0.08039641286488863 -2.4818710688955368 13.907777930861016 0 0 0
9021 0 2 2.2208 -0.14038408142481065 -2.4642338579217875 19.351121150748803 0 0 0
379 0 1 -1.1104 7.006399365501638 -4.053790092657254 15.291438033118428 0 0 0
389 0 1 -1.1104 7.0347500496941215 -1.1396825342280237 15.10307480815176 0 0 0
373 0 1 -1.1104 6.9089317883004675 -3.7964842273256254 18.271429390383553 0 0 0
384 0 1 -1.1104 6.675613733750984 -0.8647899145426085 17.967339251141343 0 0 0
413 0 2 2.2208 11.183806206645817 0.48598040597408504 16.357555292764108 0 0 0
414 0 1 -1.1104 12.136121987911213 -3.6972191409113826 18.063943495990742 0 0 0
416 0 1 -1.1104 12.665454773575501 -3.887785299048416 15.226311120295904 0 0 0
420 0 1 -1.1104 12.627885784659526 -0.9502116042815756 18.090322258820777 0 0 0
421 0 2 2.2208 11.06147492717615 -2.397261986346321 19.48078886905238 0 0 0
423 0 1 -1.1104 12.7860335902738 -0.8743288387872267 15.179168409869531 0 0 0
425 0 1 -1.1104 9.503244634114234 -3.795417267754422 18.021730236888313 0 0 0
427 0 2 2.2208 8.266512720321538 0.22244620486844474 19.34889396105147 0 0 0
428 0 1 -1.1104 9.807472381942516 -3.9186597116197923 15.301037042230655 0 0 0
432 0 2 2.2208 8.149604349087326 -2.5331467113984063 16.714453080435096 0 0 0
434 0 1 -1.1104 9.72414810812528 -0.9948384120535221 18.059266647818518 0 0 0
435 0 1 -1.1104 9.66888052469364 -1.0318561581658812 15.178509710922803 0 0 0
8989 0 2 2.2208 -0.4037080964259865 19.930826327530994 19.47021914373862 0 0 0
8170 0 2 2.2208 10.893113907810612 -5.192296472895498 16.62457529030403 0 0 0
332 0 2 2.2208 11.240975657978419 -2.3782958554899456 13.820453952585334 0 0 0
8066 0 2 2.2208 8.361653824315528 -5.273045124841909 13.829129945601146 0 0 0
328 0 2 2.2208 5.317579008501637 3.1496834586685134 13.789381942056089 0 0 0
372 0 1 -1.1104 1.2763868786722092 1.811367122345804 18.186638766934752 0 0 0
377 0 1 -1.1104 1.0069984769750582 1.666309672267231 15.451488269498945 0 0 0
386 0 2 2.2208 5.445900825442987 3.122633299921183 19.420818435158814 0 0 0
392 0 1 -1.1104 4.005656737462018 1.7222706162803334 18.059476947791424 0 0 0
396 0 1 -1.1104 4.014482687468154 1.6697449404670954 15.317819947796986 0 0 0