LAMMPS (29 Oct 2020)
OMP_NUM_THREADS environment is not set. Defaulting to 1 thread. (../comm.cpp:94)
  using 1 OpenMP thread(s) per MPI task
OMP_NUM_THREADS environment is not set. Defaulting to 1 thread. (../comm.cpp:94)
  using 1 OpenMP thread(s) per MPI task
Reading data file ...
  orthogonal box = (-0.27717828 -3.4472206 -0.27717828) to (27.617178 331.52722 27.617178)
  2 by 13 by 2 MPI processor grid
  reading atoms ...
  18000 atoms
  reading velocities ...
  18000 velocities
Finding 1-2 1-3 1-4 neighbors ...
  special bond factors lj:    0.0      0.0      0.0     
  special bond factors coul:  0.0      0.0      0.0     
     0 = max # of 1-2 neighbors
     0 = max # of 1-3 neighbors
     0 = max # of 1-4 neighbors
     1 = max # of special neighbors
  special bonds CPU = 0.004 seconds
  read_data CPU = 0.072 seconds
120 atoms in group Th_del
240 atoms in group O_delete
WARNING: Ignoring 'compress yes' for molecular system (../delete_atoms.cpp:125)
Deleted 240 atoms, new total = 17760
Setting atom values ...
  120 settings made for type
Setting atom values ...
  11760 settings made for charge
Setting atom values ...
  5880 settings made for charge
Setting atom values ...
  120 settings made for charge
WARNING: 13 of 1000 force values in table Xe-Xe are inconsistent with -dE/dr.
  Should only be flagged at inflection points (../pair_table.cpp:461)
WARNING: 2 of 1000 force values in table Xe-O are inconsistent with -dE/dr.
  Should only be flagged at inflection points (../pair_table.cpp:461)
WARNING: 2 of 1000 force values in table Xe-Th are inconsistent with -dE/dr.
  Should only be flagged at inflection points (../pair_table.cpp:461)
PPPM initialization ...
  using 12-bit tables for long-range coulomb (../kspace.cpp:328)
  G vector (1/distance) = 0.29911239
  grid = 40 240 40
  stencil order = 5
  estimated absolute RMS force accuracy = 0.00015328544
  estimated relative force accuracy = 1.0645085e-05
  using single precision MKL FFT
  3d grid and FFT values/proc = 18225 7600
Neighbor list info ...
  update every 1 steps, delay 0 steps, check yes
  max neighbors/atom: 2000, page size: 100000
  master list distance cutoff = 13
  ghost atom cutoff = 13
  binsize = 6.5, bins = 5 52 5
  3 neighbor lists, perpetual/occasional/extra = 3 0 0
  (1) pair coul/long, perpetual
      attributes: half, newton on
      pair build: half/bin/newton
      stencil: half/bin/3d/newton
      bin: standard
  (2) pair eam/alloy, perpetual, skip from (1)
      attributes: half, newton on
      pair build: skip
      stencil: none
      bin: none
  (3) pair table, perpetual, skip from (1)
      attributes: half, newton on
      pair build: skip
      stencil: none
      bin: none
Setting up cg style minimization ...
  Unit style    : metal
  Current step  : 0
WARNING: Energy due to 3 extra global DOFs will be included in minimizer energies
Per MPI rank memory allocation (min/avg/max) = 10.36 | 11.00 | 11.16 Mbytes
Step Temp E_pair E_mol TotEng Press Volume 
       0            0   -229632.63            0   -229632.63    9140.4523    260641.98 
     100            0   -230941.74            0   -230941.74    336.88463    262697.78 
Loop time of 1.99299 on 52 procs for 100 steps with 17760 atoms

99.1% CPU use with 52 MPI tasks x 1 OpenMP threads

Minimization stats:
  Stopping criterion = linesearch alpha is zero
  Energy initial, next-to-last, final = 
     -229632.634921285  -230941.737745532  -230941.737745879
  Force two-norm initial, final = 2606.0862 106.05424
  Force max component initial, final = 1672.1886 72.647109
  Final line search alpha, max atom move = 6.9586315e-13 5.0552446e-11
  Iterations, force evaluations = 100 179

MPI task timing breakdown:
Section |  min time  |  avg time  |  max time  |%varavg| %total
---------------------------------------------------------------
Pair    | 1.1579     | 1.2092     | 1.2515     |   1.9 | 60.67
Bond    | 1.8625e-05 | 2.5659e-05 | 4.0204e-05 |   0.0 |  0.00
Kspace  | 0.3198     | 0.36228    | 0.41707    |   3.6 | 18.18
Neigh   | 0.013825   | 0.016557   | 0.019011   |   0.8 |  0.83
Comm    | 0.030732   | 0.032472   | 0.034863   |   0.5 |  1.63
Output  | 0          | 0          | 0          |   0.0 |  0.00
Modify  | 0          | 0          | 0          |   0.0 |  0.00
Other   |            | 0.3725     |            |       | 18.69

Nlocal:        341.538 ave         389 max         297 min
Histogram: 1 4 3 7 13 10 8 2 2 2
Nghost:        5546.12 ave        5664 max        5433 min
Histogram: 5 9 5 4 3 3 4 5 11 3
Neighs:       108620.0 ave      123516 max       94138 min
Histogram: 1 3 4 7 15 9 6 4 0 3

Total # of neighbors = 5648223
Ave neighs/atom = 318.03057
Ave special neighs/atom = 0.0000000
Neighbor list builds = 5
Dangerous builds = 0
Resetting atom IDs ...
PPPM initialization ...
  using 12-bit tables for long-range coulomb (../kspace.cpp:328)
  G vector (1/distance) = 0.29897673
  grid = 40 240 40
  stencil order = 5
  estimated absolute RMS force accuracy = 0.00015432844
  estimated relative force accuracy = 1.0717517e-05
  using single precision MKL FFT
  3d grid and FFT values/proc = 18225 7600
Neighbor list info ...
  update every 1 steps, delay 0 steps, check yes
  max neighbors/atom: 2000, page size: 100000
  master list distance cutoff = 13
  ghost atom cutoff = 13
  binsize = 6.5, bins = 5 52 5
  3 neighbor lists, perpetual/occasional/extra = 3 0 0
  (1) pair coul/long, perpetual
      attributes: half, newton on
      pair build: half/bin/newton
      stencil: half/bin/3d/newton
      bin: standard
  (2) pair eam/alloy, perpetual, skip from (1)
      attributes: half, newton on
      pair build: skip
      stencil: none
      bin: none
  (3) pair table, perpetual, skip from (1)
      attributes: half, newton on
      pair build: skip
      stencil: none
      bin: none
Finding 1-2 1-3 1-4 neighbors ...
  special bond factors lj:    0.0      0.0      0.0     
  special bond factors coul:  0.0      0.0      0.0     
     0 = max # of 1-2 neighbors
     0 = max # of 1-3 neighbors
     0 = max # of 1-4 neighbors
     1 = max # of special neighbors
  special bonds CPU = 0.001 seconds
PPPM initialization ...
  using 12-bit tables for long-range coulomb (../kspace.cpp:328)
  G vector (1/distance) = 0.29897673
  grid = 40 240 40
  stencil order = 5
  estimated absolute RMS force accuracy = 0.00015432844
  estimated relative force accuracy = 1.0717517e-05
  using single precision MKL FFT
  3d grid and FFT values/proc = 18225 7600
Neighbor list info ...
  update every 1 steps, delay 0 steps, check yes
  max neighbors/atom: 2000, page size: 100000
  master list distance cutoff = 13
  ghost atom cutoff = 13
  binsize = 6.5, bins = 5 52 5
  3 neighbor lists, perpetual/occasional/extra = 3 0 0
  (1) pair coul/long, perpetual
      attributes: half, newton on
      pair build: half/bin/newton
      stencil: half/bin/3d/newton
      bin: standard
  (2) pair eam/alloy, perpetual, skip from (1)
      attributes: half, newton on
      pair build: skip
      stencil: none
      bin: none
  (3) pair table, perpetual, skip from (1)
      attributes: half, newton on
      pair build: skip
      stencil: none
      bin: none
Setting up Verlet run ...
  Unit style    : metal
  Current step  : 100
  Time step     : 0.001
Per MPI rank memory allocation (min/avg/max) = 9.234 | 9.989 | 10.03 Mbytes
Step Dt Time Atoms Temp PotEng KinEng Press Volume 
     100        0.001            0    17760          600   -230941.74    1377.3185      5936.72    262697.78 
   20000        0.001         19.9    17760     594.2285   -229814.59    1364.0699    279.59256     267192.5 
   40000        0.001         39.9    17760    599.29319   -229867.22     1375.696    362.03791    267077.27 
   60000        0.001         59.9    17760    595.25696   -229856.64    1366.4307   -1725.7022    267421.86 
   80000        0.001         79.9    17760    596.21052   -229866.63    1368.6197      64.0411    267116.08 
  100000        0.001         99.9    17760    604.06391   -229866.77    1386.6474   -830.94321    267250.37 
  100100        0.001          100    17760    603.55915   -229857.44    1385.4887    624.35035    267003.93 
Loop time of 826.86 on 52 procs for 100000 steps with 17760 atoms

Performance: 10.449 ns/day, 2.297 hours/ns, 120.940 timesteps/s
99.8% CPU use with 52 MPI tasks x 1 OpenMP threads

MPI task timing breakdown:
Section |  min time  |  avg time  |  max time  |%varavg| %total
---------------------------------------------------------------
Pair    | 521.71     | 536.3      | 549.75     |  26.4 | 64.86
Bond    | 0.010684   | 0.016571   | 0.025077   |   2.5 |  0.00
Kspace  | 153.37     | 167.09     | 181.83     |  48.1 | 20.21
Neigh   | 2.9919     | 3.1653     | 3.367      |   5.0 |  0.38
Comm    | 16.115     | 16.497     | 16.943     |   5.5 |  2.00
Output  | 0.025515   | 0.025539   | 0.026541   |   0.1 |  0.00
Modify  | 92.707     | 96.061     | 100.08     |  21.5 | 11.62
Other   |            | 7.705      |            |       |  0.93

Nlocal:        341.538 ave         363 max         320 min
Histogram: 1 3 6 11 11 5 3 3 3 6
Nghost:        5525.69 ave        5656 max        5379 min
Histogram: 4 2 7 10 3 3 4 8 6 5
Neighs:       106828.0 ave      114660 max       98587 min
Histogram: 1 5 6 11 3 8 4 6 2 6

Total # of neighbors = 5555081
Ave neighs/atom = 312.78609
Ave special neighs/atom = 0.0000000
Neighbor list builds = 1002
Dangerous builds = 0
System init for write_data ...
PPPM initialization ...
  using 12-bit tables for long-range coulomb (../kspace.cpp:328)
  G vector (1/distance) = 0.29867874
  grid = 40 240 40
  stencil order = 5
  estimated absolute RMS force accuracy = 0.00015671702
  estimated relative force accuracy = 1.0883395e-05
  using single precision MKL FFT
  3d grid and FFT values/proc = 18225 7600
Neighbor list info ...
  update every 1 steps, delay 0 steps, check yes
  max neighbors/atom: 2000, page size: 100000
  master list distance cutoff = 13
  ghost atom cutoff = 13
  binsize = 6.5, bins = 5 52 5
  3 neighbor lists, perpetual/occasional/extra = 3 0 0
  (1) pair coul/long, perpetual
      attributes: half, newton on
      pair build: half/bin/newton
      stencil: half/bin/3d/newton
      bin: standard
  (2) pair eam/alloy, perpetual, skip from (1)
      attributes: half, newton on
      pair build: skip
      stencil: none
      bin: none
  (3) pair table, perpetual, skip from (1)
      attributes: half, newton on
      pair build: skip
      stencil: none
      bin: none
Total wall time: 0:13:49
