LAMMPS (29 Oct 2020)
OMP_NUM_THREADS environment is not set. Defaulting to 1 thread. (../comm.cpp:94)
  using 1 OpenMP thread(s) per MPI task
OMP_NUM_THREADS environment is not set. Defaulting to 1 thread. (../comm.cpp:94)
  using 1 OpenMP thread(s) per MPI task
Reading data file ...
  orthogonal box = (-0.46915514 -5.6066616 -0.46302828) to (27.809155 333.68666 27.803028)
  2 by 13 by 2 MPI processor grid
  reading atoms ...
  17760 atoms
  reading velocities ...
  17760 velocities
Finding 1-2 1-3 1-4 neighbors ...
  special bond factors lj:    0.0      0.0      0.0     
  special bond factors coul:  0.0      0.0      0.0     
     0 = max # of 1-2 neighbors
     0 = max # of 1-3 neighbors
     0 = max # of 1-4 neighbors
     1 = max # of special neighbors
  special bonds CPU = 0.004 seconds
  read_data CPU = 0.081 seconds
WARNING: 13 of 1000 force values in table Xe-Xe are inconsistent with -dE/dr.
  Should only be flagged at inflection points (../pair_table.cpp:461)
WARNING: 2 of 1000 force values in table Xe-O are inconsistent with -dE/dr.
  Should only be flagged at inflection points (../pair_table.cpp:461)
WARNING: 2 of 1000 force values in table Xe-Th are inconsistent with -dE/dr.
  Should only be flagged at inflection points (../pair_table.cpp:461)
Setting atom values ...
  11760 settings made for charge
Setting atom values ...
  5880 settings made for charge
Setting atom values ...
  120 settings made for charge
PPPM initialization ...
  using 12-bit tables for long-range coulomb (../kspace.cpp:328)
  G vector (1/distance) = 0.29838445
  grid = 40 240 40
  stencil order = 5
  estimated absolute RMS force accuracy = 0.00015912907
  estimated relative force accuracy = 1.1050902e-05
  using single precision MKL FFT
  3d grid and FFT values/proc = 18225 7600
Neighbor list info ...
  update every 1 steps, delay 0 steps, check yes
  max neighbors/atom: 2000, page size: 100000
  master list distance cutoff = 13
  ghost atom cutoff = 13
  binsize = 6.5, bins = 5 53 5
  3 neighbor lists, perpetual/occasional/extra = 3 0 0
  (1) pair coul/long, perpetual
      attributes: half, newton on
      pair build: half/bin/newton
      stencil: half/bin/3d/newton
      bin: standard
  (2) pair eam/alloy, perpetual, skip from (1)
      attributes: half, newton on
      pair build: skip
      stencil: none
      bin: none
  (3) pair table, perpetual, skip from (1)
      attributes: half, newton on
      pair build: skip
      stencil: none
      bin: none
Setting up Verlet run ...
  Unit style    : metal
  Current step  : 0
  Time step     : 0.001
Per MPI rank memory allocation (min/avg/max) = 9.239 | 9.949 | 10.03 Mbytes
Step Temp E_pair E_mol TotEng Press 
       0         1200    -228711.4            0   -225956.76    -27.60788 
   50000    1200.8645    -228737.5            0   -225980.88   -800.93154 
Loop time of 366.165 on 52 procs for 50000 steps with 17760 atoms

Performance: 11.798 ns/day, 2.034 hours/ns, 136.551 timesteps/s
99.8% CPU use with 52 MPI tasks x 1 OpenMP threads

MPI task timing breakdown:
Section |  min time  |  avg time  |  max time  |%varavg| %total
---------------------------------------------------------------
Pair    | 255.32     | 262.96     | 272.29     |  24.4 | 71.81
Bond    | 0.0049601  | 0.0070323  | 0.010199   |   1.5 |  0.00
Kspace  | 76.541     | 85.425     | 91.874     |  40.6 | 23.33
Neigh   | 3.5186     | 3.7197     | 3.9435     |   5.2 |  1.02
Comm    | 10.043     | 11.445     | 13.174     |  20.7 |  3.13
Output  | 5.842e-05  | 6.4233e-05 | 0.00029961 |   0.0 |  0.00
Modify  | 1.253      | 1.682      | 2.8856     |  47.0 |  0.46
Other   |            | 0.9311     |            |       |  0.25

Nlocal:        341.538 ave         366 max         325 min
Histogram: 4 6 6 15 9 5 2 0 2 3
Nghost:        5450.56 ave        5566 max        5365 min
Histogram: 6 9 14 3 0 0 5 2 10 3
Neighs:       104613.0 ave      114562 max       98102 min
Histogram: 5 6 9 6 12 7 1 1 1 4

Total # of neighbors = 5439899
Ave neighs/atom = 306.30062
Ave special neighs/atom = 0.0000000
Neighbor list builds = 1219
Dangerous builds = 0
11760 atoms in group oxygen
PPPM initialization ...
  using 12-bit tables for long-range coulomb (../kspace.cpp:328)
  G vector (1/distance) = 0.29838445
  grid = 40 240 40
  stencil order = 5
  estimated absolute RMS force accuracy = 0.00015912907
  estimated relative force accuracy = 1.1050902e-05
  using single precision MKL FFT
  3d grid and FFT values/proc = 18225 7600
Neighbor list info ...
  update every 1 steps, delay 0 steps, check yes
  max neighbors/atom: 2000, page size: 100000
  master list distance cutoff = 13
  ghost atom cutoff = 13
  binsize = 6.5, bins = 5 53 5
  3 neighbor lists, perpetual/occasional/extra = 3 0 0
  (1) pair coul/long, perpetual
      attributes: half, newton on
      pair build: half/bin/newton
      stencil: half/bin/3d/newton
      bin: standard
  (2) pair eam/alloy, perpetual, skip from (1)
      attributes: half, newton on
      pair build: skip
      stencil: none
      bin: none
  (3) pair table, perpetual, skip from (1)
      attributes: half, newton on
      pair build: skip
      stencil: none
      bin: none
Setting up Verlet run ...
  Unit style    : metal
  Current step  : 0
  Time step     : 0.001
Per MPI rank memory allocation (min/avg/max) = 9.464 | 10.18 | 10.28 Mbytes
Step f_2 Temp v_Tdiff v_deltaT 
       0            0    1200.8645            0            0 
  100000    1277.0042    1194.8389  0.049991268    580.39398 
  200000    2490.5197    1201.2786  0.059798205    694.25161 
  300000    3696.2797    1201.1401  0.062123951     721.2533 
  400000    4899.8386    1198.8513  0.063094738    732.52405 
  500000    6114.0769    1206.1611  0.060973019    707.89109 
  600000    7327.8772    1195.7825  0.061429548    713.19135 
  700000    8535.4124    1203.3631  0.059692911    693.02915 
  800000    9749.0878    1211.8923  0.060663134    704.29335 
  900000    10971.259    1206.8043   0.05985583    694.92063 
 1000000    12178.773    1205.7442  0.062718375    728.15451 
Loop time of 7259.18 on 52 procs for 1000000 steps with 17760 atoms

Performance: 11.902 ns/day, 2.016 hours/ns, 137.757 timesteps/s
99.8% CPU use with 52 MPI tasks x 1 OpenMP threads

MPI task timing breakdown:
Section |  min time  |  avg time  |  max time  |%varavg| %total
---------------------------------------------------------------
Pair    | 5108.4     | 5221.5     | 5390.2     |  83.4 | 71.93
Bond    | 0.084782   | 0.1458     | 0.21279    |   7.8 |  0.00
Kspace  | 1540.7     | 1683.8     | 1779.9     | 131.0 | 23.20
Neigh   | 79.22      | 84.742     | 89.457     |  26.2 |  1.17
Comm    | 199.86     | 226.96     | 259.54     |  86.7 |  3.13
Output  | 0.0011952  | 0.0012655  | 0.0024982  |   0.5 |  0.00
Modify  | 7.2375     | 8.4686     | 10.526     |  35.5 |  0.12
Other   |            | 33.5       |            |       |  0.46

Nlocal:        341.538 ave         365 max         329 min
Histogram: 8 8 6 10 7 5 5 1 0 2
Nghost:        5490.62 ave        5629 max        5364 min
Histogram: 5 4 8 11 0 3 7 6 4 4
Neighs:       104643.0 ave      112981 max       98092 min
Histogram: 7 2 6 10 6 5 7 6 1 2

Total # of neighbors = 5441418
Ave neighs/atom = 306.38615
Ave special neighs/atom = 0.0000000
Neighbor list builds = 27910
Dangerous builds = 0
Total wall time: 2:07:05
