LAMMPS (29 Oct 2020)
OMP_NUM_THREADS environment is not set. Defaulting to 1 thread. (../comm.cpp:94)
  using 1 OpenMP thread(s) per MPI task
OMP_NUM_THREADS environment is not set. Defaulting to 1 thread. (../comm.cpp:94)
  using 1 OpenMP thread(s) per MPI task
Reading data file ...
  orthogonal box = (-0.39514327 -4.6719114 -0.39493619) to (27.735143 332.75191 27.734936)
  2 by 13 by 2 MPI processor grid
  reading atoms ...
  17760 atoms
  reading velocities ...
  17760 velocities
Finding 1-2 1-3 1-4 neighbors ...
  special bond factors lj:    0.0      0.0      0.0     
  special bond factors coul:  0.0      0.0      0.0     
     0 = max # of 1-2 neighbors
     0 = max # of 1-3 neighbors
     0 = max # of 1-4 neighbors
     1 = max # of special neighbors
  special bonds CPU = 0.004 seconds
  read_data CPU = 0.060 seconds
Setting atom values ...
  11760 settings made for charge
Setting atom values ...
  5880 settings made for charge
Setting atom values ...
  120 settings made for charge
WARNING: 13 of 1000 force values in table Xe-Xe are inconsistent with -dE/dr.
  Should only be flagged at inflection points (../pair_table.cpp:461)
WARNING: 2 of 1000 force values in table Xe-O are inconsistent with -dE/dr.
  Should only be flagged at inflection points (../pair_table.cpp:461)
WARNING: 2 of 1000 force values in table Xe-Th are inconsistent with -dE/dr.
  Should only be flagged at inflection points (../pair_table.cpp:461)
PPPM initialization ...
  using 12-bit tables for long-range coulomb (../kspace.cpp:328)
  G vector (1/distance) = 0.29867874
  grid = 40 240 40
  stencil order = 5
  estimated absolute RMS force accuracy = 0.00015671702
  estimated relative force accuracy = 1.0883395e-05
  using single precision MKL FFT
  3d grid and FFT values/proc = 18225 7600
Neighbor list info ...
  update every 1 steps, delay 0 steps, check yes
  max neighbors/atom: 2000, page size: 100000
  master list distance cutoff = 13
  ghost atom cutoff = 13
  binsize = 6.5, bins = 5 52 5
  3 neighbor lists, perpetual/occasional/extra = 3 0 0
  (1) pair coul/long, perpetual
      attributes: half, newton on
      pair build: half/bin/newton
      stencil: half/bin/3d/newton
      bin: standard
  (2) pair eam/alloy, perpetual, skip from (1)
      attributes: half, newton on
      pair build: skip
      stencil: none
      bin: none
  (3) pair table, perpetual, skip from (1)
      attributes: half, newton on
      pair build: skip
      stencil: none
      bin: none
Setting up Verlet run ...
  Unit style    : metal
  Current step  : 0
  Time step     : 0.001
Per MPI rank memory allocation (min/avg/max) = 9.235 | 9.993 | 10.04 Mbytes
Step Temp E_pair E_mol TotEng Press 
       0          600   -229857.44            0   -228480.12    591.39688 
  100000    606.35464   -229897.24            0   -228505.33    392.70867 
Loop time of 736.022 on 52 procs for 100000 steps with 17760 atoms

Performance: 11.739 ns/day, 2.045 hours/ns, 135.866 timesteps/s
99.8% CPU use with 52 MPI tasks x 1 OpenMP threads

MPI task timing breakdown:
Section |  min time  |  avg time  |  max time  |%varavg| %total
---------------------------------------------------------------
Pair    | 516.44     | 536.81     | 552.51     |  32.5 | 72.93
Bond    | 0.0094378  | 0.01374    | 0.01807    |   1.7 |  0.00
Kspace  | 155.14     | 169.73     | 188.07     |  52.2 | 23.06
Neigh   | 1.9391     | 2.0426     | 2.1744     |   4.2 |  0.28
Comm    | 20.446     | 22.366     | 26.003     |  25.4 |  3.04
Output  | 5.873e-05  | 6.4751e-05 | 0.0003069  |   0.0 |  0.00
Modify  | 2.2462     | 3.2104     | 5.4917     |  63.3 |  0.44
Other   |            | 1.85       |            |       |  0.25

Nlocal:        341.538 ave         365 max         318 min
Histogram: 1 5 5 9 5 10 6 4 3 4
Nghost:        5530.48 ave        5653 max        5420 min
Histogram: 8 6 5 2 4 6 4 11 2 4
Neighs:       106951.0 ave      115076 max       99008 min
Histogram: 4 2 6 8 7 4 10 5 3 3

Total # of neighbors = 5561469
Ave neighs/atom = 313.14578
Ave special neighs/atom = 0.0000000
Neighbor list builds = 648
Dangerous builds = 0
11760 atoms in group oxygen
PPPM initialization ...
  using 12-bit tables for long-range coulomb (../kspace.cpp:328)
  G vector (1/distance) = 0.29867874
  grid = 40 240 40
  stencil order = 5
  estimated absolute RMS force accuracy = 0.00015671702
  estimated relative force accuracy = 1.0883395e-05
  using single precision MKL FFT
  3d grid and FFT values/proc = 18225 7600
Neighbor list info ...
  update every 1 steps, delay 0 steps, check yes
  max neighbors/atom: 2000, page size: 100000
  master list distance cutoff = 13
  ghost atom cutoff = 13
  binsize = 6.5, bins = 5 52 5
  3 neighbor lists, perpetual/occasional/extra = 3 0 0
  (1) pair coul/long, perpetual
      attributes: half, newton on
      pair build: half/bin/newton
      stencil: half/bin/3d/newton
      bin: standard
  (2) pair eam/alloy, perpetual, skip from (1)
      attributes: half, newton on
      pair build: skip
      stencil: none
      bin: none
  (3) pair table, perpetual, skip from (1)
      attributes: half, newton on
      pair build: skip
      stencil: none
      bin: none
Setting up Verlet run ...
  Unit style    : metal
  Current step  : 0
  Time step     : 0.001
Per MPI rank memory allocation (min/avg/max) = 9.523 | 10.23 | 10.29 Mbytes
Step f_2 Temp v_Tdiff v_deltaT 
       0            0    606.35464            0            0 
  100000    663.99774    602.92066  0.023068584    267.82412 
  200000    1301.9361    606.28644  0.026573808    308.51945 
  300000    1940.2767    605.19711  0.026856182    311.79778 
  400000    2577.3918     604.1181  0.027350994     317.5425 
  500000    3212.7246    610.99265  0.026610931    308.95044 
  600000    3849.1579     606.1697  0.026112321    303.16162 
  700000     4484.623    608.34149  0.027428292    318.43992 
  800000    5122.3672    605.75273  0.026885279    312.13559 
  900000    5762.9196     607.6958  0.027122894    314.89428 
 1000000    6399.1608    605.53573  0.026337883    305.78038 
Loop time of 7289.66 on 52 procs for 1000000 steps with 17760 atoms

Performance: 11.852 ns/day, 2.025 hours/ns, 137.181 timesteps/s
99.8% CPU use with 52 MPI tasks x 1 OpenMP threads

MPI task timing breakdown:
Section |  min time  |  avg time  |  max time  |%varavg| %total
---------------------------------------------------------------
Pair    | 5155.5     | 5328.6     | 5500.7     |  88.6 | 73.10
Bond    | 0.08473    | 0.14013    | 0.21333    |   6.3 |  0.00
Kspace  | 1518.8     | 1680.6     | 1829.3     | 141.1 | 23.05
Neigh   | 20.913     | 21.933     | 23.335     |  13.6 |  0.30
Comm    | 196.47     | 218.89     | 256.06     |  85.0 |  3.00
Output  | 0.0010849  | 0.0011526  | 0.0023852  |   0.5 |  0.00
Modify  | 6.9995     | 7.5297     | 8.285      |  11.3 |  0.10
Other   |            | 31.91      |            |       |  0.44

Nlocal:        341.538 ave         367 max         326 min
Histogram: 7 11 6 5 6 8 1 3 3 2
Nghost:        5529.42 ave        5657 max        5367 min
Histogram: 4 0 4 12 4 4 2 7 9 6
Neighs:       106966.0 ave      115612 max      100643 min
Histogram: 4 11 5 9 1 9 4 2 4 3

Total # of neighbors = 5562249
Ave neighs/atom = 313.18970
Ave special neighs/atom = 0.0000000
Neighbor list builds = 7016
Dangerous builds = 0
Total wall time: 2:13:46
