ITEM: TIMESTEP
60000
ITEM: NUMBER OF ATOMS
17760
ITEM: BOX BOUNDS pp pp pp
-3.3009019512192939e-01 2.7670090195122075e+01
-4.1343496628335892e+00 3.3221434966282970e+02
-3.3849883625693294e-01 2.7678498836256921e+01
ITEM: ATOMS id type q x y z
1 2 2.2208 5.25246 1.50979 5.29909
2 1 -1.1104 1.00412 -2.75906 1.07299
3 1 -1.1104 1.02119 2.84854 1.03439
6 1 -1.1104 0.998092 -2.80098 3.9249
7 1 -1.1104 0.918545 2.77991 3.76139
10 1 -1.1104 0.947252 -0.0454294 0.973789
12 2 2.2208 5.14797 -1.3388 2.47993
13 2 2.2208 5.25389 4.27153 2.42619
14 1 -1.1104 0.901774 0.0679809 3.74674
16 1 -1.1104 3.77815 -2.77816 1.02788
17 1 -1.1104 3.83578 2.78935 1.04716
18 2 2.2208 2.43923 1.43004 2.40744
19 1 -1.1104 3.81528 -2.74885 3.83627
20 1 -1.1104 3.89175 2.77567 3.84157
21 2 2.2208 2.35691 -1.28507 5.29858
22 2 2.2208 2.42614 4.26481 5.19921
23 1 -1.1104 3.79007 0.0574885 1.02905
24 1 -1.1104 3.71406 0.0187445 3.89871
15 1 -1.1104 6.51041 0.107156 3.94369
8 1 -1.1104 6.63775 -2.72114 3.84601
5 1 -1.1104 6.64359 2.8768 0.989478
166 1 -1.1104 0.831039 -2.71043 6.69556
11 1 -1.1104 6.67389 -0.0373016 1.12272
171 1 -1.1104 6.52502 0.0936424 6.80482
167 1 -1.1104 1.06667 2.85478 6.4726
174 1 -1.1104 3.79376 0.13152 6.65253
172 1 -1.1104 3.67978 -2.65665 6.71011
382 2 2.2208 2.34727 -1.44147 -0.330895
9 1 -1.1104 6.58488 2.8782 3.80363
4 1 -1.1104 6.58718 -2.74223 1.12189
336 2 2.2208 13.6526 21.0253 5.24174
173 1 -1.1104 3.74762 2.94604 6.59931
169 1 -1.1104 6.5289 2.86271 6.7117
52 2 2.2208 10.721 -4.06986 5.25985
31 2 2.2208 10.7707 1.54156 5.23525
32 1 -1.1104 12.1133 -2.72825 1.20333
33 1 -1.1104 12.0934 2.80903 1.07731
34 1 -1.1104 12.2111 -2.70602 3.86234
35 1 -1.1104 12.2248 2.8784 3.81228
36 1 -1.1104 12.1765 0.0803333 0.982898
37 2 2.2208 10.8451 -1.31326 2.4436
38 2 2.2208 10.7685 4.30279 2.35005
39 1 -1.1104 12.0689 -0.0187487 3.7417
40 1 -1.1104 9.35526 -2.68707 1.13554
41 1 -1.1104 9.37819 2.9917 1.10647
42 2 2.2208 7.94841 1.42565 2.50396
43 1 -1.1104 9.34051 -2.67183 3.93011
44 1 -1.1104 9.39891 2.8142 3.85485
45 2 2.2208 8.01185 -1.25559 5.30333
46 2 2.2208 8.08306 4.2786 5.25159
47 1 -1.1104 9.48397 0.0842529 0.995771
48 1 -1.1104 9.28593 0.150994 3.95788
208 1 -1.1104 9.34258 -2.7263 6.73042
51 2 2.2208 7.91347 -4.15421 2.54532
334 2 2.2208 13.5197 4.25292 5.27395
49 2 2.2208 13.4993 1.4761 2.4635
210 1 -1.1104 9.31817 0.12726 6.68664
50 2 2.2208 13.4678 -1.38092 5.26032
53 2 2.2208 13.5475 -4.16002 2.4616
209 1 -1.1104 9.33775 2.87669 6.57284
206 1 -1.1104 12.1757 2.77441 6.64741
205 1 -1.1104 12.0743 -2.74894 6.77951
319 1 -1.1104 9.39401 14.0906 9.3398
322 1 -1.1104 9.42978 14.0699 12.2747
391 2 2.2208 13.6072 -1.32795 -0.343812
318 1 -1.1104 9.2844 19.7156 9.47421
54 2 2.2208 5.17236 7.02624 5.24254
55 2 2.2208 5.18061 12.6143 5.21269
56 1 -1.1104 0.964868 8.48324 1.00666
58 1 -1.1104 0.906597 8.31198 3.73544
60 1 -1.1104 1.06255 5.68663 1.04523
61 1 -1.1104 0.877807 11.3281 0.926054
66 2 2.2208 5.18359 9.89238 2.4405
67 1 -1.1104 1.0242 5.5679 3.834
68 1 -1.1104 1.03849 11.0747 3.68922
71 1 -1.1104 3.83278 8.51749 0.934273
72 2 2.2208 2.38992 7.09635 2.40241
73 2 2.2208 2.39153 12.5608 2.44019
74 1 -1.1104 3.77927 8.46034 3.7649
75 2 2.2208 2.34692 9.85829 5.18516
76 1 -1.1104 3.80866 5.71874 0.959735
77 1 -1.1104 3.70348 11.2157 1.0604
79 1 -1.1104 3.74342 5.68384 3.69268
80 1 -1.1104 3.77876 11.2097 3.8524
239 1 -1.1104 3.75746 5.61624 6.56354
63 1 -1.1104 6.63214 5.67664 0.972933
59 1 -1.1104 6.66493 8.37397 3.87216
64 1 -1.1104 6.57323 11.2095 1.00385
70 1 -1.1104 6.60331 11.1717 3.80674
235 1 -1.1104 6.64665 8.3806 6.56327
69 1 -1.1104 6.5821 5.63932 3.84543
57 1 -1.1104 6.5639 8.44845 1.03108
236 1 -1.1104 0.993433 5.66807 6.61948
65 1 -1.1104 6.62288 11.1574 6.66811
237 1 -1.1104 6.64455 5.62366 6.5749
327 1 -1.1104 12.0829 19.6453 9.49987
105 2 2.2208 13.6372 7.03165 2.44316
328 1 -1.1104 12.0999 14.2206 9.36316
84 2 2.2208 10.7324 7.09789 5.177
85 2 2.2208 10.8853 12.6345 5.21925
86 1 -1.1104 12.201 8.49058 1.03839
87 1 -1.1104 12.1733 8.45748 3.72044
88 1 -1.1104 12.1075 5.66854 1.01283
89 1 -1.1104 12.1037 11.3303 0.978655
91 2 2.2208 10.8303 9.88393 2.48642
92 1 -1.1104 12.1624 5.65203 3.81274
93 1 -1.1104 12.305 11.1629 3.8288
94 1 -1.1104 9.47692 8.54123 1.05594
95 2 2.2208 7.99628 7.08731 2.40572
96 2 2.2208 8.08805 12.6854 2.42761
97 1 -1.1104 9.43535 8.53712 3.83006
98 2 2.2208 7.99156 9.8688 5.27053
99 1 -1.1104 9.41176 5.79309 1.09247
100 1 -1.1104 9.3537 11.2894 1.05616
102 1 -1.1104 9.43431 5.74582 3.83697
103 1 -1.1104 9.42453 11.3272 3.87568
266 1 -1.1104 12.056 5.59291 6.65489
104 2 2.2208 13.6272 12.6726 2.36818
90 1 -1.1104 12.1587 11.1467 6.61019
101 1 -1.1104 9.42503 11.224 6.66064
265 1 -1.1104 12.2809 8.38383 6.56365
267 1 -1.1104 9.4544 8.43049 6.66413
269 1 -1.1104 9.4307 5.71888 6.63853
376 2 2.2208 7.94441 18.2476 13.5557
329 1 -1.1104 12.1212 19.6744 12.2623
106 2 2.2208 5.18695 18.2588 5.28966
107 1 -1.1104 0.954382 14.0253 1.04795
109 1 -1.1104 0.867974 19.7412 0.937707
113 1 -1.1104 0.913865 13.9422 3.84089
114 1 -1.1104 1.0192 19.6371 3.77304
116 1 -1.1104 0.907217 16.8135 0.954361
119 2 2.2208 5.2104 15.4355 2.35804
120 2 2.2208 5.1689 21.0273 2.34603
121 1 -1.1104 0.839613 16.7609 3.78402
123 1 -1.1104 3.72178 14.1669 0.990418
125 1 -1.1104 3.71376 19.5712 1.04926
127 2 2.2208 2.38056 18.1977 2.44082
128 1 -1.1104 3.79566 13.9186 3.85796
129 1 -1.1104 3.79345 19.6058 3.85799
130 2 2.2208 2.39217 15.2433 5.25239
131 2 2.2208 2.37355 21.022 5.17042
132 1 -1.1104 3.79573 16.892 1.08435
134 1 -1.1104 3.67196 16.7417 3.9295
139 1 -1.1104 6.56444 19.6824 3.87719
302 1 -1.1104 1.07054 19.6163 6.59832
140 1 -1.1104 6.52747 16.8735 1.01201
138 1 -1.1104 6.61564 19.7011 0.959044
112 1 -1.1104 6.58184 19.6282 6.5935
126 1 -1.1104 3.80015 19.6087 6.67085
118 1 -1.1104 6.55275 16.8707 6.48393
115 1 -1.1104 6.58148 13.9636 3.79508
124 1 -1.1104 3.83106 14.0461 6.67098
108 1 -1.1104 0.903788 14.0119 6.70511
111 1 -1.1104 6.63356 14.0791 6.53001
110 1 -1.1104 6.59356 14.0387 1.00121
122 1 -1.1104 6.50345 16.8978 3.67581
141 2 2.2208 10.8324 18.2916 5.22641
142 1 -1.1104 12.3207 14.0335 1.00099
144 1 -1.1104 12.1858 19.6813 0.879877
146 1 -1.1104 12.3502 14.0768 3.82623
147 1 -1.1104 12.1458 19.6925 3.87472
148 1 -1.1104 12.209 16.9121 0.953448
150 2 2.2208 10.9347 15.4634 2.28282
151 2 2.2208 10.8072 21.0994 2.38761
152 1 -1.1104 12.2194 16.8591 3.71947
153 1 -1.1104 9.47345 14.1255 1.08439
155 1 -1.1104 9.38705 19.6032 1.01083
157 2 2.2208 7.9311 18.3062 2.38991
158 1 -1.1104 9.4502 14.1145 3.70253
159 1 -1.1104 9.32237 19.6791 3.86544
160 2 2.2208 8.01971 15.5042 5.1269
161 2 2.2208 8.0372 21.1178 5.08851
162 1 -1.1104 9.2886 16.8541 1.12218
164 1 -1.1104 9.41926 16.8601 3.77994
156 1 -1.1104 9.36281 19.7179 6.70687
337 2 2.2208 13.6821 15.3945 5.1591
165 2 2.2208 13.5959 18.3701 2.35057
154 1 -1.1104 9.50732 14.0935 6.64046
149 1 -1.1104 12.1871 16.8918 6.52144
145 1 -1.1104 12.215 19.6054 6.63417
163 1 -1.1104 9.32562 16.9992 6.56697
170 1 -1.1104 0.915088 0.0673416 6.63714
316 2 2.2208 8.02814 21.1382 10.7418
168 1 -1.1104 6.56868 -2.71886 6.62992
315 1 -1.1104 9.38502 16.8595 12.0832
175 2 2.2208 5.18082 1.41599 10.8205
176 1 -1.1104 0.964752 -2.7656 12.2191
177 1 -1.1104 1.06565 2.79035 12.2491
180 1 -1.1104 1.05292 -2.71055 9.51775
181 1 -1.1104 1.00019 2.90823 9.38589
184 1 -1.1104 0.948155 0.0297002 12.3465
186 2 2.2208 5.23792 -1.31658 8.07736
187 2 2.2208 5.20197 4.27503 7.99715
188 1 -1.1104 0.874008 0.1427 9.39466
190 1 -1.1104 3.64804 -2.62975 12.419
191 1 -1.1104 3.78509 2.89535 12.2488
192 2 2.2208 2.35809 1.51573 7.98653
193 1 -1.1104 3.81696 -2.71678 9.56306
194 1 -1.1104 3.81864 2.79614 9.48075
195 2 2.2208 2.30071 -1.30754 10.8346
196 2 2.2208 2.34836 4.23775 10.8505
197 1 -1.1104 3.78284 0.069629 12.174
198 1 -1.1104 3.74411 0.0349699 9.42507
325 2 2.2208 10.8877 15.5411 7.9189
185 1 -1.1104 6.53829 -0.0915058 12.3177
179 1 -1.1104 6.5302 2.75596 12.3448
189 1 -1.1104 6.58817 -0.0235639 9.53091
352 2 2.2208 5.12144 4.13321 13.7422
183 1 -1.1104 6.65045 2.81889 9.57225
182 1 -1.1104 6.62191 -2.75304 9.46162
331 2 2.2208 10.7636 18.2025 10.7546
232 2 2.2208 10.6514 -4.12557 10.8352
207 1 -1.1104 12.1987 0.117931 6.55434
320 2 2.2208 7.97651 18.2733 7.96017
178 1 -1.1104 6.55044 -2.78607 12.3875
233 2 2.2208 13.5202 -4.10992 8.06163
229 2 2.2208 13.6262 1.39149 8.09771
230 2 2.2208 13.4768 -1.4024 10.8566
211 2 2.2208 10.7426 1.4712 10.9008
212 1 -1.1104 12.1852 -2.80712 12.2599
213 1 -1.1104 12.0687 2.85766 12.2084
214 1 -1.1104 12.1265 -2.75738 9.51652
215 1 -1.1104 12.108 2.8267 9.42916
216 1 -1.1104 12.1865 0.0397526 12.2594
217 2 2.2208 10.7141 -1.34999 8.07651
218 2 2.2208 10.7641 4.33916 7.99042
219 1 -1.1104 12.1182 0.0107874 9.44572
220 1 -1.1104 9.28604 -2.65863 12.3212
221 1 -1.1104 9.21311 2.92892 12.2461
222 2 2.2208 8.00719 1.45058 8.11669
223 1 -1.1104 9.3726 -2.77765 9.39023
224 1 -1.1104 9.45271 2.88847 9.43606
225 2 2.2208 7.97849 -1.3577 10.9288
226 2 2.2208 7.94937 4.26161 10.8163
227 1 -1.1104 9.28768 0.140653 12.3153
228 1 -1.1104 9.43894 -0.014575 9.49473
321 1 -1.1104 9.32194 19.6816 12.2193
231 2 2.2208 8.01975 -4.18688 8.01032
338 2 2.2208 13.5139 4.3138 10.8908
332 2 2.2208 13.7122 18.273 7.98551
78 1 -1.1104 3.7857 11.1546 6.63444
238 1 -1.1104 3.80909 8.394 6.66953
359 2 2.2208 2.37685 6.91405 13.6312
62 1 -1.1104 0.976199 11.2746 6.54396
234 1 -1.1104 1.01331 8.56737 6.56443
240 2 2.2208 5.16088 7.03491 10.8324
241 2 2.2208 5.16182 12.6702 10.8194
242 1 -1.1104 1.00262 8.33582 12.2466
244 1 -1.1104 1.01668 8.39396 9.40667
246 1 -1.1104 0.942022 5.518 12.235
247 1 -1.1104 1.06365 11.1178 12.0724
250 2 2.2208 5.22721 9.69726 7.97916
251 1 -1.1104 0.852482 5.58849 9.4668
252 1 -1.1104 0.938837 11.178 9.32434
255 1 -1.1104 3.78203 8.35112 12.2136
256 2 2.2208 2.44029 7.02649 8.01764
257 2 2.2208 2.35339 12.6068 8.0374
258 1 -1.1104 3.70721 8.39469 9.49516
259 2 2.2208 2.44732 9.77865 10.8655
260 1 -1.1104 3.78327 5.51513 12.2708
261 1 -1.1104 3.90031 11.1648 12.2044
262 1 -1.1104 3.68911 5.53775 9.41786
263 1 -1.1104 3.71656 11.27 9.38334
253 1 -1.1104 6.54086 5.61154 9.42805
243 1 -1.1104 6.57171 8.41157 12.1074
249 1 -1.1104 6.4692 11.1626 12.2282
254 1 -1.1104 6.37857 11.2188 9.39192
245 1 -1.1104 6.63336 8.2738 9.39107
248 1 -1.1104 6.55016 5.70193 12.1443
345 2 2.2208 13.5405 21.0071 10.8202
339 2 2.2208 13.581 7.01167 8.03062
363 2 2.2208 7.99423 7.15124 13.6331
341 2 2.2208 13.6558 9.8878 10.7804
340 2 2.2208 13.6035 12.6841 8.01518
264 1 -1.1104 9.23716 11.2996 9.47178
268 1 -1.1104 9.43299 5.60849 9.43192
270 1 -1.1104 9.44205 11.1742 12.2182
271 1 -1.1104 9.27417 5.62997 12.3416
272 2 2.2208 7.91342 9.90904 10.7817
273 1 -1.1104 9.40258 8.49769 9.37267
274 2 2.2208 8.01508 12.6509 7.96945
275 2 2.2208 8.02757 7.13747 7.96796
276 2 2.2208 10.7761 7.03627 10.8404
277 2 2.2208 10.7518 12.6874 10.8264
278 1 -1.1104 12.2664 8.43435 12.1598
279 1 -1.1104 12.1717 8.60117 9.45505
280 1 -1.1104 12.0846 5.70251 12.2326
281 1 -1.1104 12.1845 11.2642 12.1829
282 2 2.2208 10.812 9.77749 8.07099
283 1 -1.1104 12.1738 5.68348 9.35751
284 1 -1.1104 12.1363 11.344 9.42275
285 1 -1.1104 9.41716 8.40959 12.1967
365 2 2.2208 7.95425 12.5994 13.5956
317 2 2.2208 8.06763 15.3591 10.759
306 1 -1.1104 6.66176 16.7276 12.0376
117 1 -1.1104 1.07375 16.7213 6.66662
133 1 -1.1104 3.76002 16.7651 6.68114
288 1 -1.1104 6.47248 19.665 9.475
293 2 2.2208 5.26096 21.0698 7.97403
294 1 -1.1104 1.00253 13.9981 9.43319
295 2 2.2208 5.22098 15.5089 7.92329
298 1 -1.1104 0.988714 19.5648 12.1604
286 1 -1.1104 3.8706 19.5897 12.2282
299 1 -1.1104 1.03737 14.0585 12.3007
291 1 -1.1104 1.00988 19.4863 9.37231
287 1 -1.1104 3.76574 14.0295 12.1744
292 1 -1.1104 0.937046 16.78 9.50429
310 2 2.2208 2.3515 15.4939 10.8235
309 2 2.2208 2.43467 21.0297 10.8176
308 1 -1.1104 3.79635 16.8556 12.1514
307 1 -1.1104 1.06561 16.8227 12.2818
305 1 -1.1104 3.80826 13.9551 9.49696
304 1 -1.1104 3.80273 16.7345 9.36621
303 2 2.2208 2.45226 18.148 7.97125
301 1 -1.1104 3.76474 19.4721 9.40389
300 2 2.2208 5.16756 18.1787 10.8062
296 1 -1.1104 6.55047 19.6974 12.2036
290 1 -1.1104 6.6143 14.079 9.42777
297 1 -1.1104 6.67334 13.9812 12.2201
368 2 2.2208 2.37922 18.2564 13.6493
369 2 2.2208 5.22996 21.0167 13.6065
289 1 -1.1104 6.60691 16.9028 9.31255
371 2 2.2208 5.21232 15.4653 13.567
373 2 2.2208 10.856 15.4271 13.6362
380 2 2.2208 13.5728 18.2345 13.7285
333 2 2.2208 13.4757 15.4507 10.7216
330 1 -1.1104 12.171 14.0112 12.218
326 1 -1.1104 12.1936 16.8042 12.1586
323 1 -1.1104 12.2953 16.8773 9.39407
143 1 -1.1104 12.289 14.1137 6.58319
324 2 2.2208 10.8472 21.0225 8.01617
314 1 -1.1104 9.4253 16.8724 9.32241
366 2 2.2208 13.6036 7.02817 13.6645
362 2 2.2208 13.5816 12.6466 13.5825
372 2 2.2208 10.7388 21.0283 13.5983
381 2 2.2208 5.13376 1.32341 -0.373061
406 2 2.2208 5.2191 1.33843 16.5252
407 1 -1.1104 0.983081 -2.75358 17.9661
408 1 -1.1104 0.994815 2.7152 17.951
411 1 -1.1104 0.959718 -2.83042 15.1104
413 1 -1.1104 0.949825 2.72613 15.0752
419 1 -1.1104 0.942449 0.0294186 17.8042
421 2 2.2208 5.1363 -1.43569 19.3261
422 2 2.2208 5.2847 4.25926 19.204
423 1 -1.1104 0.851749 -0.0155779 15.0661
427 1 -1.1104 3.79016 -2.91165 17.8234
428 1 -1.1104 3.86032 2.65662 17.8904
429 2 2.2208 2.35871 1.38334 19.2909
430 1 -1.1104 3.77205 -2.80448 15.0972
432 1 -1.1104 3.78914 2.74296 15.1472
434 2 2.2208 2.35578 -1.41423 16.5117
435 2 2.2208 2.35898 4.09253 16.457
436 1 -1.1104 3.7683 -0.0908199 17.9213
437 1 -1.1104 3.76184 0.0292231 15.0557
431 1 -1.1104 3.80109 -2.78338 20.6708
425 1 -1.1104 6.56956 -0.0469823 15.1595
416 1 -1.1104 6.57716 -2.84797 20.7394
409 1 -1.1104 6.52655 -2.8057 17.9009
410 1 -1.1104 6.60467 2.78793 17.8037
415 1 -1.1104 6.66904 -2.76419 15.1767
417 1 -1.1104 6.50224 2.76619 15.1531
420 1 -1.1104 6.57793 -0.00234428 17.9699
441 2 2.2208 2.29193 -4.17522 19.2719
433 1 -1.1104 3.80927 2.80445 20.6638
412 1 -1.1104 0.974891 -2.79377 20.6877
414 1 -1.1104 1.03099 2.83931 20.6485
424 1 -1.1104 0.811306 0.000879621 20.5167
426 1 -1.1104 6.54149 0.0580262 20.7622
449 2 2.2208 10.7395 1.41486 16.4184
450 1 -1.1104 12.1637 -2.7637 17.9026
451 1 -1.1104 12.1318 2.8201 17.8316
452 1 -1.1104 12.0507 -2.71527 15.1381
454 1 -1.1104 12.1727 2.76092 15.0204
456 1 -1.1104 12.1808 0.0308777 17.8981
457 2 2.2208 10.7584 -1.40642 19.3106
458 2 2.2208 10.7282 4.21412 19.2199
459 1 -1.1104 12.1225 0.0978668 15.0259
461 1 -1.1104 9.38261 -2.7252 18.0453
462 1 -1.1104 9.32585 2.8142 17.8571
463 2 2.2208 8.04093 1.47828 19.2528
464 1 -1.1104 9.37516 -2.84639 15.1804
466 1 -1.1104 9.30516 2.85725 15.0746
468 2 2.2208 7.9033 -1.39278 16.5369
469 2 2.2208 8.03532 4.23439 16.394
470 1 -1.1104 9.36672 0.0295555 17.8551
471 1 -1.1104 9.37408 0.0527013 15.1023
579 2 2.2208 13.5608 4.21518 16.4028
460 1 -1.1104 12.1997 0.139224 20.6911
357 2 2.2208 10.7441 4.26362 13.5478
370 2 2.2208 13.5919 1.44808 13.6662
474 2 2.2208 10.8119 -4.07156 16.545
473 2 2.2208 13.5495 -4.11022 19.216
465 1 -1.1104 9.283 -2.78065 20.841
455 1 -1.1104 12.1376 2.91616 20.6025
453 1 -1.1104 12.0905 -2.69094 20.6893
475 2 2.2208 7.959 -4.17574 19.3224
477 2 2.2208 13.5862 -1.2915 16.4513
578 2 2.2208 13.5565 1.51742 19.2486
356 2 2.2208 10.7099 -1.37644 13.6761
482 2 2.2208 5.16696 6.96443 16.4329
483 2 2.2208 5.17083 12.5504 16.4191
484 1 -1.1104 0.945038 8.41897 17.7758
486 1 -1.1104 0.957022 8.35862 15.0941
490 1 -1.1104 1.02576 5.62696 17.7922
491 1 -1.1104 0.955238 11.1754 17.8306
494 2 2.2208 5.12872 9.83463 19.2442
495 1 -1.1104 0.941286 5.53927 14.9862
497 1 -1.1104 1.06652 11.2196 14.9379
503 1 -1.1104 3.80022 8.33451 17.8687
504 2 2.2208 2.3192 7.00735 19.2638
505 2 2.2208 2.35919 12.6825 19.2303
506 1 -1.1104 3.78259 8.34948 15.1228
508 2 2.2208 2.40111 9.75113 16.4731
509 1 -1.1104 3.74699 5.40262 17.897
510 1 -1.1104 3.75567 11.1473 17.7965
511 1 -1.1104 3.68045 5.47015 15.0138
513 1 -1.1104 3.8078 11.1561 15.0154
499 1 -1.1104 6.5704 5.53478 15.0051
485 1 -1.1104 6.62425 8.45672 17.8237
501 1 -1.1104 6.59853 11.1747 15.0055
493 1 -1.1104 6.49459 11.2033 17.7765
489 1 -1.1104 6.50293 8.43371 20.6597
498 1 -1.1104 0.949953 11.2257 20.6628
488 1 -1.1104 6.53256 8.37875 15.1017
492 1 -1.1104 6.54102 5.66005 17.838
512 1 -1.1104 3.76508 5.57532 20.5989
507 1 -1.1104 3.77123 8.47378 20.625
496 1 -1.1104 0.971529 5.58164 20.6859
502 1 -1.1104 6.60433 11.201 20.5215
360 2 2.2208 5.14719 9.68977 13.6274
517 2 2.2208 13.4819 12.6266 19.2969
543 2 2.2208 13.5106 9.87554 16.3767
518 2 2.2208 10.8215 7.05651 16.3425
519 2 2.2208 10.8028 12.5545 16.4922
520 1 -1.1104 12.1652 8.39204 17.896
521 1 -1.1104 12.2191 8.44142 15.0132
523 1 -1.1104 12.1011 5.54217 17.7138
524 1 -1.1104 12.2158 11.2027 17.8501
525 2 2.2208 10.753 9.84924 19.1729
526 1 -1.1104 12.145 5.61064 15.059
528 1 -1.1104 12.1183 11.2631 15.0129
530 1 -1.1104 9.41717 8.42295 17.8169
531 2 2.2208 7.95189 7.11843 19.186
532 2 2.2208 7.99882 12.5957 19.2962
533 1 -1.1104 9.36652 8.46328 14.9857
535 2 2.2208 7.98771 9.79969 16.4271
536 1 -1.1104 9.40352 5.60323 17.7444
537 1 -1.1104 9.35439 11.2275 17.8644
538 1 -1.1104 9.33424 5.67593 15.0065
540 1 -1.1104 9.40934 11.282 14.996
522 1 -1.1104 12.1157 8.52315 20.6021
669 2 2.2208 7.97057 -4.15701 24.8757
542 2 2.2208 13.5665 7.08568 19.1808
440 2 2.2208 5.25216 -4.24664 16.5051
539 1 -1.1104 9.38069 5.60128 20.6726
534 1 -1.1104 9.30925 8.46102 20.5477
545 2 2.2208 5.21361 18.2004 16.3555
546 1 -1.1104 1.06637 14.032 17.8969
547 1 -1.1104 0.969385 19.5328 17.8511
550 1 -1.1104 1.016 13.9516 15.0829
552 1 -1.1104 1.02589 19.5638 15.0518
558 1 -1.1104 1.01241 16.7592 17.7772
560 2 2.2208 5.27398 15.4679 19.1735
561 2 2.2208 5.18767 20.997 19.1014
562 1 -1.1104 1.02174 16.8241 15.0342
566 1 -1.1104 3.83927 13.9649 17.7587
567 1 -1.1104 3.77262 19.6083 17.7772
568 2 2.2208 2.42839 18.2317 19.1899
569 1 -1.1104 3.84767 13.9749 14.9053
571 1 -1.1104 3.79769 19.6768 14.9273
573 2 2.2208 2.40225 15.3972 16.3762
574 2 2.2208 2.35377 21.0509 16.3386
575 1 -1.1104 3.84845 16.7473 17.7555
576 1 -1.1104 3.83504 16.8782 14.8737
572 1 -1.1104 3.71769 19.7032 20.5066
563 1 -1.1104 1.06918 16.7786 20.5883
551 1 -1.1104 0.974887 14.0397 20.6108
549 1 -1.1104 6.5532 19.6844 17.7586
559 1 -1.1104 6.58694 16.8424 17.7533
556 1 -1.1104 6.58814 19.6089 15.1058
554 1 -1.1104 6.61527 14.0216 15.0191
548 1 -1.1104 6.66459 14.0615 17.8278
553 1 -1.1104 0.889749 19.4726 20.6071
577 1 -1.1104 3.91595 16.8375 20.6286
564 1 -1.1104 6.69263 16.8006 15.0172
570 1 -1.1104 3.81443 14.0343 20.5457
479 2 2.2208 13.5341 18.2307 19.2352
478 2 2.2208 13.6166 21.0492 16.4641
480 2 2.2208 13.6002 15.3827 16.4235
581 2 2.2208 10.7654 18.172 16.4321
582 1 -1.1104 12.1336 14.0347 17.8997
583 1 -1.1104 12.1921 19.6365 17.8121
584 1 -1.1104 12.2441 14.0683 15.0198
586 1 -1.1104 12.2233 19.5968 15.0975
588 1 -1.1104 12.2537 16.7647 17.8162
589 2 2.2208 10.7887 15.4659 19.2331
590 2 2.2208 10.7851 21.0184 19.1474
591 1 -1.1104 12.189 16.8688 15.0312
593 1 -1.1104 9.38418 13.9769 17.9539
594 1 -1.1104 9.372 19.5957 17.6887
595 2 2.2208 7.97756 18.2016 19.2573
596 1 -1.1104 9.47003 14.0184 15.1068
598 1 -1.1104 9.42412 19.6104 14.9412
600 2 2.2208 8.04695 15.3693 16.3943
601 2 2.2208 8.00048 21.0296 16.3491
602 1 -1.1104 9.31314 16.75 17.891
603 1 -1.1104 9.4071 16.7649 15.0029
597 1 -1.1104 9.46803 14.1881 20.6934
587 1 -1.1104 12.1687 19.6945 20.5237
592 1 -1.1104 12.1443 16.8965 20.6241
557 1 -1.1104 6.53033 19.5546 20.6294
604 1 -1.1104 9.30696 16.9693 20.6952
555 1 -1.1104 6.7351 13.9678 20.7292
599 1 -1.1104 9.37978 19.6472 20.5683
374 2 2.2208 13.606 15.5069 27.5717
639 2 2.2208 5.14522 -4.17362 22.0913
438 1 -1.1104 3.65627 0.0652057 20.7563
609 2 2.2208 5.10419 1.43797 22.1417
610 1 -1.1104 0.850071 -2.78171 23.5506
611 1 -1.1104 0.937042 2.85438 23.4005
614 1 -1.1104 1.02479 -2.69615 26.3235
615 1 -1.1104 0.982306 2.88911 26.326
618 1 -1.1104 1.00615 0.0258017 23.4253
620 2 2.2208 5.18444 -1.38539 24.8756
621 2 2.2208 5.14535 4.2189 24.8563
622 1 -1.1104 0.888487 0.152568 26.1928
624 1 -1.1104 3.63829 -2.88004 23.4195
625 1 -1.1104 3.70324 2.86854 23.5163
626 2 2.2208 2.31111 1.48229 24.8695
627 1 -1.1104 3.77209 -2.81331 26.2483
628 1 -1.1104 3.75732 2.82139 26.3235
629 2 2.2208 2.24731 -1.44028 22.0791
630 2 2.2208 2.30869 4.18746 21.994
631 1 -1.1104 3.86297 -0.00154915 23.4253
632 1 -1.1104 3.6848 0.0556516 26.2283
623 1 -1.1104 6.48838 0.0162831 26.2876
619 1 -1.1104 6.57304 0.0564135 23.471
612 1 -1.1104 6.6231 -2.74663 23.5255
617 1 -1.1104 6.60367 2.77013 26.2308
616 1 -1.1104 6.59274 -2.8016 26.3309
418 1 -1.1104 6.57128 2.84894 20.6151
613 1 -1.1104 6.54332 2.78919 23.3567
375 2 2.2208 13.5664 21.008 27.5601
379 2 2.2208 7.96842 21.0494 27.5775
640 2 2.2208 2.36077 -4.22821 24.8919
383 2 2.2208 2.35641 4.29667 27.6655
668 2 2.2208 10.7462 -4.12378 22.0682
472 1 -1.1104 9.40972 0.0445631 20.6674
666 2 2.2208 13.5667 -4.14842 24.9485
671 2 2.2208 13.5491 -1.30525 22.0931
672 2 2.2208 13.495 1.53423 24.8214
446 2 2.2208 13.5456 4.25306 21.9397
467 1 -1.1104 9.3569 2.85267 20.7435
645 2 2.2208 10.7538 1.52252 22.0817
646 1 -1.1104 12.1347 -2.75458 23.4587
647 1 -1.1104 12.1738 2.89948 23.3239
648 1 -1.1104 12.1828 -2.73216 26.2887
649 1 -1.1104 12.1505 2.89798 26.1971
650 1 -1.1104 12.109 0.000521373 23.4575
651 2 2.2208 10.7456 -1.35954 24.8803
652 2 2.2208 10.7352 4.29763 24.8153
653 1 -1.1104 12.11 0.0701766 26.2668
654 1 -1.1104 9.37709 -2.70214 23.5185
655 1 -1.1104 9.37416 2.98038 23.6135
656 2 2.2208 7.87404 1.42742 24.8092
657 1 -1.1104 9.36146 -2.79601 26.2721
658 1 -1.1104 9.38752 2.91497 26.2994
659 2 2.2208 7.99248 -1.37397 22.1485
660 2 2.2208 7.9215 4.23086 22.0325
661 1 -1.1104 9.35513 0.0455348 23.5027
662 1 -1.1104 9.15162 -0.0493205 26.2011
389 2 2.2208 7.95983 4.26959 27.6949
388 2 2.2208 7.97209 -1.45121 27.6315
514 1 -1.1104 3.87494 11.2778 20.6442
487 1 -1.1104 0.96821 8.40249 20.5926
500 1 -1.1104 6.63169 5.72023 20.589
674 2 2.2208 5.08603 6.96931 22.0164
675 2 2.2208 5.10809 12.6202 21.9535
676 1 -1.1104 0.953832 8.47188 23.364
678 1 -1.1104 1.07963 8.44368 26.2408
680 1 -1.1104 0.904485 5.57189 23.4453
681 1 -1.1104 0.973085 11.2617 23.3354
684 2 2.2208 5.19966 9.81716 24.7467
685 1 -1.1104 0.874528 5.64212 26.2591
686 1 -1.1104 1.01176 11.2555 26.1959
689 1 -1.1104 3.73744 8.51272 23.4338
690 2 2.2208 2.28783 7.01275 24.8499
691 2 2.2208 2.35009 12.5867 24.8435
692 1 -1.1104 3.75097 8.41598 26.2528
693 2 2.2208 2.37652 9.81718 21.9789
694 1 -1.1104 3.63861 5.54698 23.4423
695 1 -1.1104 3.74952 11.2746 23.3915
696 1 -1.1104 3.77495 5.55605 26.1663
697 1 -1.1104 3.84519 11.2473 26.256
679 1 -1.1104 6.56468 8.51012 26.2327
687 1 -1.1104 6.67123 5.66106 26.2302
688 1 -1.1104 6.52115 11.2461 26.2926
682 1 -1.1104 6.45701 5.55507 23.486
683 1 -1.1104 6.55252 11.2096 23.3918
677 1 -1.1104 6.53394 8.34078 23.4995
393 2 2.2208 5.14742 7.07251 27.5249
395 2 2.2208 5.16755 12.6502 27.6438
541 1 -1.1104 9.31018 11.2878 20.6697
726 2 2.2208 13.4296 12.6065 24.7959
445 2 2.2208 13.4946 9.79231 22.0415
527 1 -1.1104 12.2597 5.79776 20.684
529 1 -1.1104 12.1294 11.2595 20.6126
728 2 2.2208 13.5402 7.05304 24.8597
705 1 -1.1104 9.29484 11.2941 26.2299
706 1 -1.1104 9.3983 5.78041 26.3079
707 1 -1.1104 9.32226 11.2649 23.4095
708 1 -1.1104 9.33916 5.85574 23.4638
709 2 2.2208 7.9425 9.83808 22.072
710 1 -1.1104 9.34841 8.58933 26.1871
711 2 2.2208 7.91841 12.6496 24.8598
712 2 2.2208 7.94649 7.06473 24.8587
713 2 2.2208 10.7949 7.16961 22.1552
714 2 2.2208 10.7108 12.6953 21.9379
715 1 -1.1104 12.1362 8.48917 23.4808
716 1 -1.1104 12.1992 8.43694 26.1852
717 1 -1.1104 12.0557 5.6366 23.4665
718 1 -1.1104 12.0714 11.2869 23.316
719 2 2.2208 10.7266 9.94237 24.7943
720 1 -1.1104 12.2454 5.65218 26.3067
721 1 -1.1104 12.1193 11.1956 26.1114
722 1 -1.1104 9.30114 8.571 23.5014
400 2 2.2208 10.7429 12.63 27.6875
399 2 2.2208 8.02732 9.82391 27.6738
565 1 -1.1104 6.52733 16.8542 20.6473
670 1 -1.1104 6.51728 19.7218 26.1191
739 1 -1.1104 6.51685 14.0925 23.4144
736 1 -1.1104 6.58881 19.7234 23.2864
750 2 2.2208 2.43943 21.0247 22.0053
749 1 -1.1104 3.81195 16.8165 23.3781
727 2 2.2208 2.39046 15.3999 22.0535
729 1 -1.1104 3.81844 19.7254 23.354
731 1 -1.1104 3.65791 14.0489 23.4339
733 1 -1.1104 0.995355 19.5958 26.1311
734 1 -1.1104 0.985835 16.8817 26.2692
735 1 -1.1104 1.02524 14.0804 26.2732
737 2 2.2208 5.21331 21.0574 24.7612
738 2 2.2208 5.11743 15.4416 24.8283
740 1 -1.1104 1.08013 19.6478 23.3669
741 1 -1.1104 0.948467 13.9658 23.4248
742 2 2.2208 5.25026 18.1792 21.993
743 1 -1.1104 3.79527 19.6353 26.2613
744 2 2.2208 2.47367 18.2528 24.8291
745 1 -1.1104 3.72858 16.8663 26.303
746 1 -1.1104 3.87575 14.014 26.2722
748 1 -1.1104 0.97921 16.7497 23.5
732 1 -1.1104 6.56623 16.9421 26.2019
730 1 -1.1104 6.59982 14.0437 26.2676
747 1 -1.1104 6.4992 16.8354 23.444
405 2 2.2208 2.28128 21.0719 27.4869
403 2 2.2208 2.33145 15.4366 27.6978
404 2 2.2208 5.2247 18.2259 27.6347
378 2 2.2208 10.7786 18.2393 27.5449
634 1 -1.1104 12.1392 14.0335 26.376
580 2 2.2208 13.5213 15.4432 22.0724
673 1 -1.1104 9.33027 14.0745 26.2145
638 2 2.2208 10.6965 15.4478 24.8934
700 2 2.2208 7.99289 21.014 21.9989
633 1 -1.1104 12.2066 19.63 23.4807
665 1 -1.1104 9.35593 19.6099 23.3983
641 2 2.2208 10.7105 21.0388 24.7854
704 1 -1.1104 9.30962 16.8603 26.296
608 1 -1.1104 12.0615 14.0246 23.5654
699 2 2.2208 7.97663 15.4882 22.0983
698 1 -1.1104 9.32414 19.6531 26.1885
377 2 2.2208 7.92568 15.4248 27.6785
664 1 -1.1104 9.34236 14.0902 23.4426
605 2 2.2208 13.6077 18.252 24.7661
635 1 -1.1104 12.1005 19.6412 26.2111
663 1 -1.1104 12.0792 16.7742 26.2141
606 2 2.2208 13.6166 21.1152 22.0905
701 1 -1.1104 9.38526 16.8216 23.5125
585 1 -1.1104 12.1196 14.1152 20.7426
636 1 -1.1104 12.1959 16.7591 23.4626
667 2 2.2208 7.94791 18.2527 24.7964
607 2 2.2208 10.6948 18.2321 22.0629
392 2 2.2208 13.5646 4.29021 27.6411
387 2 2.2208 10.7393 1.4569 27.6828
394 2 2.2208 2.33889 9.90906 27.6278
402 2 2.2208 13.4952 9.87161 27.598
398 2 2.2208 10.8254 7.10027 27.678
348 2 2.2208 5.15887 -1.38683 13.7611
349 2 2.2208 2.40152 1.36862 13.6582
355 2 2.2208 7.88219 1.46381 13.6911
354 2 2.2208 13.603 -4.22599 13.5771
361 2 2.2208 2.47676 12.6066 13.6092
364 2 2.2208 10.8192 9.85615 13.5466
751 2 2.2208 5.1839 23.8121 5.17667
752 2 2.2208 5.24186 29.411 5.12764
753 1 -1.1104 0.972181 25.3098 1.02893
754 1 -1.1104 0.89814 25.2515 3.8588
755 1 -1.1104 0.977985 22.5806 0.962848
756 1 -1.1104 0.926884 28.1636 0.982687
757 2 2.2208 5.23792 26.6154 2.35008
758 1 -1.1104 1.03542 22.5513 3.77298
759 1 -1.1104 1.10329 27.9964 3.83183
760 1 -1.1104 3.70094 25.111 1.04982
761 2 2.2208 2.40108 23.8498 2.4662
762 2 2.2208 2.41367 29.3656 2.31542
763 1 -1.1104 3.72346 25.1646 3.83321
764 2 2.2208 2.39186 26.5247 5.17783
765 1 -1.1104 3.75923 22.4555 0.965414
766 1 -1.1104 3.8356 28.0487 0.941811
767 1 -1.1104 3.8917 22.3055 3.87784
768 1 -1.1104 3.77702 27.9706 3.75866
773 1 -1.1104 6.51429 25.2202 3.74943
777 1 -1.1104 6.66352 28.0121 3.73089
774 1 -1.1104 6.55052 22.3625 0.967601
900 1 -1.1104 3.83423 27.9826 6.52838
899 1 -1.1104 3.8928 22.5105 6.62497
892 1 -1.1104 0.959545 25.1039 6.62474
895 1 -1.1104 1.04447 27.9842 6.58809
898 1 -1.1104 3.74073 25.2392 6.62607
897 1 -1.1104 6.6859 27.9883 6.57626
896 1 -1.1104 6.6908 22.3983 6.52403
775 1 -1.1104 6.66137 28.035 0.963289
772 1 -1.1104 6.54442 25.1932 0.908136
776 1 -1.1104 6.65112 22.5461 3.71992
778 2 2.2208 10.82 23.8414 5.14098
779 2 2.2208 10.8294 29.3467 5.1238
780 1 -1.1104 12.1558 25.2757 0.999531
781 1 -1.1104 12.1259 25.2314 3.79454
782 1 -1.1104 12.2106 22.5303 0.944276
783 1 -1.1104 12.2096 27.9021 0.975069
784 2 2.2208 10.7438 26.6015 2.36153
785 1 -1.1104 12.2162 22.4101 3.74772
786 1 -1.1104 12.2322 27.9661 3.74796
787 1 -1.1104 9.33439 25.1989 0.954074
788 2 2.2208 7.93516 23.8167 2.30825
789 2 2.2208 8.01017 29.401 2.32291
790 1 -1.1104 9.27417 25.24 3.69662
791 2 2.2208 7.98029 26.5353 5.11384
792 1 -1.1104 9.4099 22.3922 0.914582
793 1 -1.1104 9.42239 28.0821 0.907253
794 1 -1.1104 9.37411 22.4608 3.7058
795 1 -1.1104 9.44227 28.0049 3.62919
797 2 2.2208 13.6098 29.4266 2.33293
798 2 2.2208 13.6648 26.6381 5.16161
926 1 -1.1104 12.2259 22.4613 6.51407
796 2 2.2208 13.6678 23.8238 2.33839
893 1 -1.1104 6.64521 25.0758 6.5063
930 1 -1.1104 9.44721 27.942 6.39384
927 1 -1.1104 12.2313 28.0436 6.60332
929 1 -1.1104 9.49668 22.4947 6.52308
928 1 -1.1104 9.4951 25.2163 6.55855
925 1 -1.1104 12.2201 25.2079 6.56387
799 2 2.2208 5.33037 35.017 5.18615
800 1 -1.1104 1.03791 30.8776 0.934046
801 1 -1.1104 1.05881 36.3819 0.976316
803 1 -1.1104 0.960139 30.8644 3.69379
804 1 -1.1104 1.08628 36.3863 3.81869
806 1 -1.1104 0.984864 33.6792 0.971806
807 2 2.2208 5.26238 32.2157 2.36624
808 2 2.2208 5.17711 37.8552 2.39972
809 1 -1.1104 1.16627 33.5559 3.75758
811 1 -1.1104 3.87745 30.7884 1.09156
812 1 -1.1104 3.84548 36.449 0.994216
813 2 2.2208 2.47483 34.9894 2.36471
814 1 -1.1104 3.81479 30.715 3.85755
815 1 -1.1104 3.85356 36.3987 3.77125
816 2 2.2208 2.43447 32.2595 5.12375
817 2 2.2208 2.50753 37.8175 5.24085
818 1 -1.1104 3.79808 33.6706 0.993466
819 1 -1.1104 3.87728 33.5297 3.8116
824 1 -1.1104 6.60981 30.8169 3.77286
823 1 -1.1104 6.62914 30.8653 1.01457
825 1 -1.1104 6.63268 33.6287 0.936934
957 1 -1.1104 3.86502 33.6818 6.59351
953 1 -1.1104 1.03582 33.6158 6.52973
867 1 -1.1104 3.82237 39.1977 3.91053
1677 1 -1.1104 3.90052 47.5727 6.53767
950 1 -1.1104 1.13531 36.4455 6.60168
949 1 -1.1104 0.98064 30.7096 6.59122
955 1 -1.1104 3.83762 30.7969 6.50504
956 1 -1.1104 3.88538 36.3544 6.57167
952 1 -1.1104 6.63958 36.3925 6.64981
1066 2 2.2208 10.8506 40.5693 10.795
821 2 2.2208 -0.422257 32.2749 2.38634
810 1 -1.1104 6.74646 33.6458 3.83426
802 1 -1.1104 6.64254 36.4923 1.08818
954 1 -1.1104 6.77185 33.5842 6.49496
805 1 -1.1104 6.64534 36.4006 3.8591
826 2 2.2208 10.8718 34.9445 5.20834
827 1 -1.1104 12.2121 30.7763 0.963881
828 1 -1.1104 12.2206 36.3847 0.803212
829 1 -1.1104 12.2445 30.8026 3.83246