ITEM: TIMESTEP
20000
ITEM: NUMBER OF ATOMS
17760
ITEM: BOX BOUNDS pp pp pp
-3.3642134761357179e-01 2.7676421347613445e+01
-4.1027718841043193e+00 3.3218277188410366e+02
-3.3501211439007650e-01 2.7675012114390199e+01
ITEM: ATOMS id type q x y z
1 2 2.2208 5.10118 1.46815 5.18708
2 1 -1.1104 1.00508 -2.69751 1.05367
3 1 -1.1104 0.95381 2.92949 1.05398
6 1 -1.1104 0.945643 -2.76097 3.73444
7 1 -1.1104 0.901913 2.8533 3.86892
10 1 -1.1104 0.923908 0.108153 1.02535
12 2 2.2208 5.05251 -1.3318 2.39924
13 2 2.2208 5.10798 4.21194 2.4275
14 1 -1.1104 0.89513 0.0302683 3.85293
16 1 -1.1104 3.85115 -2.73333 0.971993
17 1 -1.1104 3.86004 2.77496 1.0933
18 2 2.2208 2.35415 1.45555 2.47672
19 1 -1.1104 3.73447 -2.82943 3.76508
20 1 -1.1104 3.76208 2.93103 3.88878
21 2 2.2208 2.23606 -1.40684 5.15002
22 2 2.2208 2.33346 4.19519 5.27557
23 1 -1.1104 3.7009 0.0254856 1.08869
24 1 -1.1104 3.72654 -0.00331472 3.81815
172 1 -1.1104 3.60417 -2.79176 6.56011
5 1 -1.1104 6.65635 2.84504 1.07481
170 1 -1.1104 0.851186 0.0245697 6.56425
167 1 -1.1104 0.907383 2.8588 6.61449
15 1 -1.1104 6.61286 0.00270885 3.86664
4 1 -1.1104 6.67117 -2.70338 1.01749
8 1 -1.1104 6.52023 -2.73601 3.85942
339 2 2.2208 13.6116 7.06836 8.10012
166 1 -1.1104 0.874197 -2.84886 6.60593
174 1 -1.1104 3.74996 0.0193257 6.55246
168 1 -1.1104 6.61105 -2.7763 6.69229
50 2 2.2208 13.4954 -1.26849 5.39143
374 2 2.2208 13.5623 15.5515 -0.404922
28 2 2.2208 2.40847 -4.22729 2.50121
361 2 2.2208 2.32152 12.6519 13.7202
9 1 -1.1104 6.54925 2.87619 3.825
11 1 -1.1104 6.45019 -0.0560039 1.05905
341 2 2.2208 13.5573 9.88381 10.8907
31 2 2.2208 10.7193 1.47839 5.25933
32 1 -1.1104 12.2208 -2.7545 1.19316
33 1 -1.1104 12.1467 2.93541 1.16909
34 1 -1.1104 12.1474 -2.72721 3.93083
35 1 -1.1104 12.2098 2.8816 4.01929
36 1 -1.1104 12.1305 0.133857 1.0272
37 2 2.2208 10.7458 -1.33629 2.48896
38 2 2.2208 10.7015 4.29817 2.56424
39 1 -1.1104 12.1276 0.140678 3.87958
40 1 -1.1104 9.44116 -2.77971 1.12734
41 1 -1.1104 9.36132 2.87458 1.17858
42 2 2.2208 7.96576 1.46986 2.4536
43 1 -1.1104 9.34666 -2.70765 3.87249
44 1 -1.1104 9.35115 2.90134 3.89444
45 2 2.2208 7.95151 -1.31018 5.31578
46 2 2.2208 7.93412 4.27901 5.33294
47 1 -1.1104 9.31528 0.138429 1.0098
48 1 -1.1104 9.33554 0.0262836 3.83093
209 1 -1.1104 9.37172 2.86737 6.65883
171 1 -1.1104 6.54999 0.0654589 6.52983
207 1 -1.1104 12.129 0.0885796 6.68302
208 1 -1.1104 9.32828 -2.67079 6.63838
210 1 -1.1104 9.35289 0.0702204 6.74731
313 2 2.2208 -0.606216 15.5945 8.00658
169 1 -1.1104 6.51303 2.83346 6.71773
54 2 2.2208 5.05366 7.02106 5.23534
55 2 2.2208 5.05887 12.7071 5.27401
56 1 -1.1104 0.958677 8.50382 1.07722
58 1 -1.1104 1.00721 8.52467 3.89071
60 1 -1.1104 0.898891 5.73012 1.21772
61 1 -1.1104 0.8928 11.3033 1.03742
66 2 2.2208 5.11854 9.9167 2.54248
67 1 -1.1104 0.944962 5.72418 3.94862
68 1 -1.1104 0.868288 11.3398 3.84801
71 1 -1.1104 3.78032 8.5141 1.04021
72 2 2.2208 2.33796 6.98633 2.49477
73 2 2.2208 2.29078 12.7556 2.4459
74 1 -1.1104 3.70826 8.44952 3.87005
75 2 2.2208 2.33695 9.87545 5.32339
76 1 -1.1104 3.70852 5.56455 1.08094
77 1 -1.1104 3.73125 11.3316 1.13863
79 1 -1.1104 3.80301 5.61123 3.78148
80 1 -1.1104 3.65126 11.2862 3.84542
78 1 -1.1104 3.76774 11.3335 6.63307
236 1 -1.1104 0.915857 5.72435 6.7054
234 1 -1.1104 0.981789 8.59163 6.67477
65 1 -1.1104 6.53724 11.3007 6.77072
69 1 -1.1104 6.4496 5.6036 3.88816
70 1 -1.1104 6.48016 11.2886 3.98856
64 1 -1.1104 6.491 11.2299 1.11945
376 2 2.2208 7.94511 18.313 13.6523
62 1 -1.1104 1.01628 11.3527 6.74098
239 1 -1.1104 3.76855 5.52436 6.56432
356 2 2.2208 10.8099 -1.40044 13.7203
59 1 -1.1104 6.50922 8.44118 3.86461
57 1 -1.1104 6.49736 8.49041 1.1092
63 1 -1.1104 6.51623 5.64301 1.15716
84 2 2.2208 10.7341 7.14076 5.2587
85 2 2.2208 10.7832 12.7163 5.22258
86 1 -1.1104 12.2195 8.48268 1.03051
87 1 -1.1104 12.1848 8.55417 3.78143
88 1 -1.1104 12.0262 5.65602 1.14524
89 1 -1.1104 12.1995 11.3122 0.8876
91 2 2.2208 10.7961 9.90079 2.42152
92 1 -1.1104 12.0399 5.79547 3.85151
93 1 -1.1104 12.1982 11.3937 3.61878
94 1 -1.1104 9.29721 8.48297 1.11767
95 2 2.2208 7.90092 7.13004 2.49462
96 2 2.2208 7.88382 12.6421 2.50984
97 1 -1.1104 9.40597 8.65366 3.84935
98 2 2.2208 7.97594 9.91152 5.22653
99 1 -1.1104 9.27462 5.71402 1.0718
100 1 -1.1104 9.28337 11.3325 0.997885
102 1 -1.1104 9.22554 5.73488 3.83225
103 1 -1.1104 9.29558 11.2012 3.79553
101 1 -1.1104 9.45076 11.2568 6.6051
266 1 -1.1104 12.1399 5.6442 6.66771
235 1 -1.1104 6.5256 8.51435 6.57565
269 1 -1.1104 9.35104 5.72808 6.60039
90 1 -1.1104 12.2963 11.2954 6.58695
105 2 2.2208 13.5223 7.10738 2.47369
104 2 2.2208 13.5727 12.714 2.33095
106 2 2.2208 5.0784 18.3198 5.18218
107 1 -1.1104 1.00951 14.1119 0.968087
109 1 -1.1104 1.00308 19.7449 0.980988
113 1 -1.1104 0.774125 14.1964 3.92352
114 1 -1.1104 0.847417 19.7112 3.84212
116 1 -1.1104 0.907675 16.906 1.05645
119 2 2.2208 5.15106 15.5337 2.50629
120 2 2.2208 5.11316 21.0739 2.37118
121 1 -1.1104 0.942452 16.9459 3.77821
123 1 -1.1104 3.73665 14.1286 1.14756
125 1 -1.1104 3.73456 19.6763 1.06507
127 2 2.2208 2.34798 18.3063 2.45665
128 1 -1.1104 3.71588 14.1792 3.93454
129 1 -1.1104 3.60755 19.8404 3.76166
130 2 2.2208 2.30577 15.5653 5.24737
131 2 2.2208 2.28854 21.1462 5.2089
132 1 -1.1104 3.70562 16.9014 1.04787
134 1 -1.1104 3.67372 16.9858 3.83524
124 1 -1.1104 3.65287 14.1256 6.61561
138 1 -1.1104 6.56403 19.7012 0.942894
117 1 -1.1104 0.874689 16.9439 6.58193
126 1 -1.1104 3.81798 19.7018 6.67597
108 1 -1.1104 0.851225 14.1409 6.76524
133 1 -1.1104 3.69621 16.9125 6.57087
139 1 -1.1104 6.50497 19.6714 3.74592
115 1 -1.1104 6.52159 14.0489 3.93891
140 1 -1.1104 6.47502 16.9402 1.03272
122 1 -1.1104 6.50606 16.9548 3.84389
110 1 -1.1104 6.664 14.0408 1.08585
112 1 -1.1104 6.51974 19.6617 6.51613
118 1 -1.1104 6.50348 16.9287 6.57578
156 1 -1.1104 9.38844 19.7131 6.58867
319 1 -1.1104 9.38637 14.061 9.31492
336 2 2.2208 13.5842 21.1823 5.24074
318 1 -1.1104 9.36201 19.5624 9.42405
145 1 -1.1104 12.1288 19.6126 6.49375
141 2 2.2208 10.7204 18.2955 5.13991
142 1 -1.1104 12.1624 14.0997 1.09523
144 1 -1.1104 12.0936 19.5998 1.05444
146 1 -1.1104 12.0556 14.162 3.84876
147 1 -1.1104 12.0747 19.6984 3.76973
148 1 -1.1104 12.1182 16.8475 1.10533
150 2 2.2208 10.7333 15.436 2.43283
151 2 2.2208 10.7169 21.0757 2.44286
152 1 -1.1104 12.1765 17.016 3.8949
153 1 -1.1104 9.37886 14.1347 1.14928
155 1 -1.1104 9.37194 19.7206 0.903316
157 2 2.2208 7.89268 18.2974 2.34556
158 1 -1.1104 9.28602 14.0117 3.83802
159 1 -1.1104 9.2881 19.6726 3.70459
160 2 2.2208 7.85188 15.504 5.25316
161 2 2.2208 7.94791 21.0647 5.21339
162 1 -1.1104 9.28615 16.838 0.96277
164 1 -1.1104 9.30592 16.7135 3.87035
149 1 -1.1104 12.2074 16.8165 6.57614
154 1 -1.1104 9.37412 14.0721 6.59404
334 2 2.2208 13.536 4.31004 5.31859
389 2 2.2208 7.97377 4.32383 -0.309902
163 1 -1.1104 9.26807 16.8155 6.64311
173 1 -1.1104 3.66541 2.81747 6.61135
321 1 -1.1104 9.38425 19.6201 12.1319
230 2 2.2208 13.5108 -1.30305 10.9989
165 2 2.2208 13.4571 18.3326 2.45704
229 2 2.2208 13.501 1.58138 8.12144
175 2 2.2208 5.16146 1.3842 10.7944
176 1 -1.1104 0.949963 -2.76902 12.2261
177 1 -1.1104 0.974275 2.95699 12.3612
180 1 -1.1104 0.969534 -2.76475 9.41068
181 1 -1.1104 0.961635 2.87934 9.44934
184 1 -1.1104 0.936173 0.041924 12.0814
186 2 2.2208 5.15391 -1.39177 8.03831
187 2 2.2208 5.06803 4.21775 7.9717
188 1 -1.1104 0.987459 0.0350057 9.34209
190 1 -1.1104 3.76985 -2.71335 12.2826
191 1 -1.1104 3.73819 2.77228 12.2957
192 2 2.2208 2.29928 1.35908 7.95202
193 1 -1.1104 3.77217 -2.8913 9.46959
194 1 -1.1104 3.70578 2.77852 9.48609
195 2 2.2208 2.37014 -1.41206 10.8741
196 2 2.2208 2.35348 4.22024 10.817
197 1 -1.1104 3.72177 0.0151769 12.2642
198 1 -1.1104 3.68232 -0.0283254 9.35702
179 1 -1.1104 6.55402 2.82165 12.2449
189 1 -1.1104 6.54507 -0.0173938 9.457
185 1 -1.1104 6.48874 0.0688729 12.2882
183 1 -1.1104 6.52696 2.84052 9.44932
182 1 -1.1104 6.52684 -2.77588 9.5026
320 2 2.2208 7.93003 18.2693 7.98939
329 1 -1.1104 12.2197 19.6743 12.2384
332 2 2.2208 13.5903 18.3349 7.9603
382 2 2.2208 2.33659 -1.42772 -0.356783
327 1 -1.1104 12.0853 19.7362 9.37077
335 2 2.2208 13.5946 9.87824 5.20756
205 1 -1.1104 12.0805 -2.76809 6.7724
206 1 -1.1104 12.1639 2.98666 6.8319
338 2 2.2208 13.5336 4.32285 10.8793
337 2 2.2208 13.5662 15.4719 5.23111
178 1 -1.1104 6.60227 -2.76532 12.3651
211 2 2.2208 10.7231 1.49375 10.9005
212 1 -1.1104 12.1192 -2.80213 12.3539
213 1 -1.1104 12.1643 2.91588 12.2637
214 1 -1.1104 12.185 -2.78761 9.6385
215 1 -1.1104 12.1161 3.00807 9.50275
216 1 -1.1104 12.1426 0.0476747 12.3192
217 2 2.2208 10.7666 -1.30723 8.12464
218 2 2.2208 10.7292 4.36408 8.08825
219 1 -1.1104 12.1227 0.0917133 9.494
220 1 -1.1104 9.32021 -2.82729 12.1474
221 1 -1.1104 9.30124 2.9006 12.3139
222 2 2.2208 7.92105 1.47569 8.10038
223 1 -1.1104 9.46338 -2.70463 9.42045
224 1 -1.1104 9.33735 2.8434 9.42536
225 2 2.2208 7.98453 -1.29079 10.9452
226 2 2.2208 7.95246 4.24516 10.8479
227 1 -1.1104 9.32814 -0.00916978 12.3917
228 1 -1.1104 9.30774 0.126236 9.50738
355 2 2.2208 7.96258 1.436 13.7942
49 2 2.2208 13.496 1.61228 2.49592
380 2 2.2208 13.6185 18.2845 13.5954
368 2 2.2208 2.37364 18.3222 13.6523
322 1 -1.1104 9.30644 14.0755 12.1953
237 1 -1.1104 6.50545 5.67229 6.70417
238 1 -1.1104 3.85315 8.33199 6.81761
240 2 2.2208 5.12725 6.9732 10.7722
241 2 2.2208 5.05758 12.6796 10.9187
242 1 -1.1104 0.968968 8.50567 12.1861
244 1 -1.1104 1.03901 8.53226 9.51531
246 1 -1.1104 0.937316 5.69268 12.3322
247 1 -1.1104 0.969717 11.3648 12.2463
250 2 2.2208 5.21279 9.80869 8.09127
251 1 -1.1104 0.958691 5.63488 9.53134
252 1 -1.1104 0.95296 11.4254 9.55463
255 1 -1.1104 3.74372 8.44702 12.3048
256 2 2.2208 2.34525 7.01557 8.03659
257 2 2.2208 2.31885 12.7321 8.11575
258 1 -1.1104 3.78273 8.49254 9.5058
259 2 2.2208 2.34447 9.92685 10.9103
260 1 -1.1104 3.6617 5.62183 12.1818
261 1 -1.1104 3.69508 11.2445 12.3454
262 1 -1.1104 3.67779 5.58412 9.36498
263 1 -1.1104 3.75403 11.3452 9.45933
248 1 -1.1104 6.55468 5.59181 12.2794
254 1 -1.1104 6.44128 11.194 9.63905
245 1 -1.1104 6.52176 8.28346 9.42841
243 1 -1.1104 6.51934 8.43085 12.2552
249 1 -1.1104 6.50598 11.3351 12.3853
325 2 2.2208 10.7657 15.5145 8.01013
366 2 2.2208 13.5612 7.03884 13.7343
363 2 2.2208 7.94292 7.02477 13.7654
265 1 -1.1104 12.1527 8.50666 6.5159
340 2 2.2208 13.5811 12.6955 8.02998
316 2 2.2208 7.95729 21.0649 10.8232
253 1 -1.1104 6.49988 5.53779 9.44952
267 1 -1.1104 9.24463 8.41382 6.72672
264 1 -1.1104 9.30623 11.3579 9.42077
268 1 -1.1104 9.3815 5.69434 9.50944
270 1 -1.1104 9.31921 11.3004 12.1763
271 1 -1.1104 9.39822 5.66337 12.3209
272 2 2.2208 7.89089 9.76731 10.8631
273 1 -1.1104 9.39767 8.46036 9.50905
274 2 2.2208 7.89776 12.7088 8.00651
275 2 2.2208 7.95039 6.99864 8.042
276 2 2.2208 10.7582 7.14843 10.851
277 2 2.2208 10.7481 12.6226 10.7332
278 1 -1.1104 12.1156 8.42614 12.2864
279 1 -1.1104 12.222 8.50471 9.47463
280 1 -1.1104 12.113 5.62434 12.3309
281 1 -1.1104 12.0226 11.1949 12.1464
282 2 2.2208 10.7429 9.94167 8.00619
283 1 -1.1104 12.2016 5.73785 9.53208
284 1 -1.1104 12.123 11.2909 9.37521
285 1 -1.1104 9.36031 8.4563 12.214
331 2 2.2208 10.7406 18.221 10.8398
362 2 2.2208 13.5269 12.6787 13.6531
317 2 2.2208 7.90567 15.4794 10.8525
306 1 -1.1104 6.56929 16.9883 12.2369
297 1 -1.1104 6.43343 14.1534 12.198
302 1 -1.1104 0.881456 19.7209 6.55142
111 1 -1.1104 6.46955 14.1013 6.67162
290 1 -1.1104 6.58994 13.9933 9.42895
296 1 -1.1104 6.46385 19.6781 12.1683
326 1 -1.1104 12.0527 16.8443 12.1447
289 1 -1.1104 6.53901 16.9109 9.39074
293 2 2.2208 5.14163 21.1352 8.06053
294 1 -1.1104 0.875314 14.1907 9.4213
295 2 2.2208 5.12367 15.6072 7.96932
298 1 -1.1104 1.0114 19.7047 12.2234
286 1 -1.1104 3.71784 19.745 12.1879
299 1 -1.1104 0.925897 14.1416 12.2467
291 1 -1.1104 0.858659 19.8476 9.37231
287 1 -1.1104 3.60071 13.9529 12.1967
292 1 -1.1104 0.875347 16.9629 9.40323
310 2 2.2208 2.34631 15.5526 10.8145
309 2 2.2208 2.27156 21.094 10.7455
308 1 -1.1104 3.82501 16.7976 12.1763
307 1 -1.1104 1.03516 16.9762 12.168
305 1 -1.1104 3.67494 14.1618 9.49599
304 1 -1.1104 3.75074 16.9519 9.4167
303 2 2.2208 2.20381 18.3127 8.0238
301 1 -1.1104 3.74122 19.6789 9.42304
300 2 2.2208 5.16345 18.3451 10.7597
288 1 -1.1104 6.60059 19.7016 9.38151
345 2 2.2208 13.623 21.0108 10.8174
333 2 2.2208 13.5508 15.476 10.8293
330 1 -1.1104 12.1508 14.036 12.3039
328 1 -1.1104 12.15 14.1324 9.47735
315 1 -1.1104 9.31649 16.8407 12.249
324 2 2.2208 10.8193 21.1167 7.96223
143 1 -1.1104 12.1648 14.0433 6.61405
323 1 -1.1104 12.1866 16.96 9.41563
314 1 -1.1104 9.40266 16.8217 9.49854
371 2 2.2208 5.12472 15.4653 13.6395
348 2 2.2208 5.20805 -1.47033 13.7329
372 2 2.2208 10.7775 21.0835 13.731
360 2 2.2208 5.11338 9.76152 13.6744
383 2 2.2208 2.32228 4.3048 -0.358811
388 2 2.2208 7.91876 -1.36572 -0.272513
381 2 2.2208 5.16248 1.471 -0.322766
406 2 2.2208 5.15516 1.3252 16.5408
407 1 -1.1104 1.03813 -2.83327 18.0264
408 1 -1.1104 0.965559 2.84388 17.856
411 1 -1.1104 1.03252 -2.90146 15.164
413 1 -1.1104 0.918794 2.73515 15.0654
419 1 -1.1104 1.03649 0.0252191 17.875
421 2 2.2208 5.19688 -1.43122 19.3504
422 2 2.2208 5.10877 4.21624 19.2697
423 1 -1.1104 1.01108 -0.0355662 15.0221
427 1 -1.1104 3.80644 -2.86854 17.9576
428 1 -1.1104 3.84899 2.81151 17.8762
429 2 2.2208 2.36279 1.34215 19.2503
430 1 -1.1104 3.78723 -2.76067 15.1668
432 1 -1.1104 3.69967 2.75902 15.0661
434 2 2.2208 2.42768 -1.37497 16.5602
435 2 2.2208 2.27689 4.15888 16.4059
436 1 -1.1104 3.75861 -0.0639663 17.8994
437 1 -1.1104 3.78568 0.0106313 15.1304
412 1 -1.1104 0.977503 -2.74245 20.7149
424 1 -1.1104 0.977539 0.0148799 20.6919
431 1 -1.1104 3.78285 -2.76607 20.6837
433 1 -1.1104 3.82868 2.80648 20.6785
414 1 -1.1104 0.977297 2.83406 20.7186
420 1 -1.1104 6.60329 0.0484722 18.0026
728 2 2.2208 13.5365 7.08375 24.9036
416 1 -1.1104 6.62213 -2.79751 20.7775
398 2 2.2208 10.7152 7.08853 27.7162
402 2 2.2208 13.525 9.90721 27.6366
409 1 -1.1104 6.57588 -2.71834 17.9675
410 1 -1.1104 6.5429 2.70639 17.9292
415 1 -1.1104 6.53033 -2.83756 15.0904
425 1 -1.1104 6.60105 -0.00302222 15.1666
417 1 -1.1104 6.61384 2.76712 15.1261
449 2 2.2208 10.8429 1.50135 16.5176
450 1 -1.1104 12.1165 -2.79901 17.9284
451 1 -1.1104 12.2124 2.75133 17.8819
452 1 -1.1104 12.1879 -2.82551 15.1364
454 1 -1.1104 12.2679 2.81692 15.0746
456 1 -1.1104 12.3089 0.0413618 17.9722
457 2 2.2208 10.8088 -1.26682 19.3383
458 2 2.2208 10.7647 4.11127 19.3328
459 1 -1.1104 12.1342 0.0224079 15.1568
461 1 -1.1104 9.40593 -2.79542 17.9168
462 1 -1.1104 9.33768 2.8132 17.9417
463 2 2.2208 7.96608 1.42061 19.3052
464 1 -1.1104 9.34498 -2.78501 15.0034
466 1 -1.1104 9.432 2.85763 15.0046
468 2 2.2208 8.02383 -1.30661 16.5698
469 2 2.2208 7.92794 4.14805 16.5893
470 1 -1.1104 9.51409 0.0484016 17.9765
471 1 -1.1104 9.43678 0.0576534 15.2386
418 1 -1.1104 6.5485 2.77378 20.6657
453 1 -1.1104 12.1462 -2.67344 20.7103
455 1 -1.1104 12.2161 2.78098 20.7045
467 1 -1.1104 9.36284 2.8228 20.7722
579 2 2.2208 13.6271 4.23063 16.4843
472 1 -1.1104 9.28297 -0.0208267 20.7271
445 2 2.2208 13.5993 9.852 21.9896
672 2 2.2208 13.477 1.49146 24.8761
482 2 2.2208 5.09937 6.96659 16.434
483 2 2.2208 5.19571 12.6273 16.4076
484 1 -1.1104 0.895791 8.55173 17.8439
486 1 -1.1104 0.966321 8.4622 15.0231
490 1 -1.1104 0.877617 5.68635 17.7306
491 1 -1.1104 0.95341 11.3385 17.7994
494 2 2.2208 5.25134 9.84853 19.2493
495 1 -1.1104 0.976609 5.55102 14.9846
497 1 -1.1104 0.945425 11.2939 15.018
503 1 -1.1104 3.795 8.3422 17.8357
504 2 2.2208 2.3793 7.10611 19.2248
505 2 2.2208 2.38173 12.6499 19.1866
506 1 -1.1104 3.67409 8.33931 15.0042
508 2 2.2208 2.35665 9.87511 16.4628
509 1 -1.1104 3.64354 5.54116 17.7808
510 1 -1.1104 3.80968 11.2636 17.9228
511 1 -1.1104 3.86938 5.52299 15.0026
513 1 -1.1104 3.69742 11.3113 15.1238
485 1 -1.1104 6.51521 8.50443 17.9109
493 1 -1.1104 6.66262 11.3083 17.693
512 1 -1.1104 3.719 5.59719 20.5876
496 1 -1.1104 0.907173 5.78751 20.6024
507 1 -1.1104 3.75474 8.42673 20.6793
501 1 -1.1104 6.57082 11.2482 14.9444
492 1 -1.1104 6.43382 5.62932 17.9705
502 1 -1.1104 6.54559 11.1957 20.6647
514 1 -1.1104 3.85973 11.252 20.6299
699 2 2.2208 7.96492 15.4665 22.0599
499 1 -1.1104 6.56472 5.51143 15.1454
489 1 -1.1104 6.63131 8.4227 20.7478
390 2 2.2208 10.7463 -4.24006 27.8111
488 1 -1.1104 6.4953 8.42238 15.1361
518 2 2.2208 10.7511 6.99778 16.4466
519 2 2.2208 10.7341 12.6488 16.4192
520 1 -1.1104 12.112 8.40382 17.9102
521 1 -1.1104 12.2151 8.43589 15.1364
523 1 -1.1104 12.1728 5.54368 17.8596
524 1 -1.1104 12.0669 11.3768 17.904
525 2 2.2208 10.7632 9.77356 19.304
526 1 -1.1104 12.1546 5.61487 15.0832
528 1 -1.1104 12.1839 11.2457 15.045
530 1 -1.1104 9.32414 8.24778 17.7628
531 2 2.2208 7.94373 6.9908 19.2714
532 2 2.2208 7.9308 12.7055 19.2444
533 1 -1.1104 9.43362 8.46195 15.0367
535 2 2.2208 7.97931 9.83682 16.4461
536 1 -1.1104 9.33711 5.50844 17.9053
537 1 -1.1104 9.29556 11.1189 17.7666
538 1 -1.1104 9.21326 5.6964 15.0924
540 1 -1.1104 9.28594 11.1966 14.9593
529 1 -1.1104 12.1231 11.2302 20.6649
527 1 -1.1104 12.0928 5.60546 20.6321
534 1 -1.1104 9.33071 8.41262 20.6014
522 1 -1.1104 12.1599 8.42462 20.6623
541 1 -1.1104 9.3583 11.2339 20.6629
539 1 -1.1104 9.37241 5.55966 20.6831
517 2 2.2208 13.5653 12.7277 19.297
394 2 2.2208 2.38724 9.86274 27.6445
545 2 2.2208 5.23043 18.1537 16.4849
546 1 -1.1104 0.905717 14.1187 17.8385
547 1 -1.1104 1.11909 19.7934 17.9066
550 1 -1.1104 0.964868 14.1718 15.1086
552 1 -1.1104 1.04017 19.7058 15.0838
558 1 -1.1104 0.87215 16.8521 17.8163
560 2 2.2208 5.1392 15.5298 19.226
561 2 2.2208 5.23398 21.0379 19.2265
562 1 -1.1104 1.06243 16.9686 15.0097
566 1 -1.1104 3.71889 14.0557 17.8482
567 1 -1.1104 3.86808 19.6081 17.8351
568 2 2.2208 2.39966 18.2583 19.2896
569 1 -1.1104 3.66383 14.0463 14.9981
571 1 -1.1104 3.89775 19.6383 14.9293
573 2 2.2208 2.33248 15.4646 16.4739
574 2 2.2208 2.40061 21.1726 16.352
575 1 -1.1104 3.64105 16.8167 17.8634
576 1 -1.1104 3.83122 16.8128 15.0639
554 1 -1.1104 6.56065 14.052 14.9548
559 1 -1.1104 6.6275 16.7724 17.7944
563 1 -1.1104 1.00617 16.905 20.603
570 1 -1.1104 3.75261 14.0706 20.6569
564 1 -1.1104 6.60025 16.8529 15.0178
548 1 -1.1104 6.53093 14.1285 17.7816
549 1 -1.1104 6.58183 19.654 17.9098
556 1 -1.1104 6.67686 19.6922 15.0933
577 1 -1.1104 3.83732 16.8722 20.6768
572 1 -1.1104 3.77627 19.6394 20.5982
551 1 -1.1104 0.973242 13.9967 20.6626
391 2 2.2208 13.5564 -1.25605 27.7374
480 2 2.2208 13.4931 15.5281 16.4221
478 2 2.2208 13.5032 21.1221 16.5317
581 2 2.2208 10.6959 18.3105 16.4757
582 1 -1.1104 12.1171 14.099 17.8293
583 1 -1.1104 12.1627 19.6303 17.9333
584 1 -1.1104 12.1887 14.0689 15.0919
586 1 -1.1104 12.1505 19.6515 15.1201
588 1 -1.1104 12.0707 16.8819 17.7258
589 2 2.2208 10.7547 15.5181 19.2027
590 2 2.2208 10.7786 20.9691 19.3289
591 1 -1.1104 12.0544 16.8566 14.9535
593 1 -1.1104 9.42181 14.0735 17.914
594 1 -1.1104 9.36906 19.6467 17.862
595 2 2.2208 7.9455 18.2088 19.3278
596 1 -1.1104 9.32414 13.9846 14.9999
598 1 -1.1104 9.39248 19.6827 15.0063
600 2 2.2208 7.91591 15.4661 16.3484
601 2 2.2208 7.96071 21.1272 16.4155
602 1 -1.1104 9.35687 16.9111 17.9165
603 1 -1.1104 9.33312 16.8912 15.1181
604 1 -1.1104 9.41293 16.8979 20.7214
599 1 -1.1104 9.29341 19.6918 20.7204
597 1 -1.1104 9.30138 14.0922 20.6584
587 1 -1.1104 12.1617 19.6198 20.7216
479 2 2.2208 13.6151 18.3024 19.2425
638 2 2.2208 10.8289 15.423 24.9119
701 1 -1.1104 9.28418 16.9506 23.5022
726 2 2.2208 13.5974 12.6062 24.8003
580 2 2.2208 13.5882 15.5336 22.0447
578 2 2.2208 13.6746 1.45136 19.2996
438 1 -1.1104 3.74582 -0.027844 20.7243
609 2 2.2208 5.04921 1.47831 22.0304
610 1 -1.1104 0.993471 -2.79055 23.4976
611 1 -1.1104 1.01713 2.85428 23.4138
614 1 -1.1104 0.868528 -2.78779 26.2375
615 1 -1.1104 0.948191 2.92217 26.2368
618 1 -1.1104 0.959609 0.0264074 23.4573
620 2 2.2208 5.15204 -1.37329 24.8547
621 2 2.2208 5.20124 4.26127 24.8612
622 1 -1.1104 1.01127 0.0727072 26.3225
624 1 -1.1104 3.83364 -2.73682 23.462
625 1 -1.1104 3.80726 2.86296 23.4561
626 2 2.2208 2.34783 1.46259 24.9238
627 1 -1.1104 3.6944 -2.87007 26.2376
628 1 -1.1104 3.68866 2.89178 26.3334
629 2 2.2208 2.36096 -1.41232 22.1107
630 2 2.2208 2.37617 4.27079 22.0486
631 1 -1.1104 3.61572 0.0804726 23.5199
632 1 -1.1104 3.82534 0.0376041 26.3775
665 1 -1.1104 9.37535 19.6564 23.4764
378 2 2.2208 10.6812 18.2979 27.6826
616 1 -1.1104 6.45196 -2.86574 26.3155
636 1 -1.1104 12.1762 16.9141 23.4376
352 2 2.2208 5.13056 4.14284 13.6273
460 1 -1.1104 12.1835 0.0208476 20.7537
379 2 2.2208 7.91668 21.0792 27.6374
623 1 -1.1104 6.63171 0.00409688 26.1748
613 1 -1.1104 6.58518 3.04136 23.4324
619 1 -1.1104 6.4624 0.000824808 23.3978
617 1 -1.1104 6.51927 2.83923 26.265
605 2 2.2208 13.6534 18.347 24.8022
426 1 -1.1104 6.52995 -0.0166229 20.724
465 1 -1.1104 9.37406 -2.8286 20.7121
612 1 -1.1104 6.56701 -2.87398 23.5035
645 2 2.2208 10.7258 1.38286 22.1228
646 1 -1.1104 12.2179 -2.66138 23.5855
647 1 -1.1104 12.1325 2.86351 23.4953
648 1 -1.1104 12.0553 -2.76384 26.3756
649 1 -1.1104 12.1465 2.80832 26.3703
650 1 -1.1104 12.1656 0.119185 23.539
651 2 2.2208 10.7586 -1.34342 24.9921
652 2 2.2208 10.7817 4.27412 24.9096
653 1 -1.1104 12.1581 0.0335564 26.3424
654 1 -1.1104 9.47174 -2.83905 23.469
655 1 -1.1104 9.44124 2.80795 23.5137
656 2 2.2208 7.94888 1.45666 24.8721
657 1 -1.1104 9.2461 -2.79777 26.3125
658 1 -1.1104 9.37684 2.88751 26.34
659 2 2.2208 7.98785 -1.4572 22.1379
660 2 2.2208 7.91953 4.21668 22.0451
661 1 -1.1104 9.15201 0.0539133 23.5031
662 1 -1.1104 9.3829 0.0196032 26.2882
349 2 2.2208 2.40965 1.40963 13.6011
671 2 2.2208 13.6726 -1.35833 22.1234
387 2 2.2208 10.6574 1.42929 27.7214
487 1 -1.1104 0.938167 8.39339 20.6992
498 1 -1.1104 1.07383 11.2424 20.5617
633 1 -1.1104 12.2023 19.7675 23.5289
500 1 -1.1104 6.53907 5.63469 20.6576
674 2 2.2208 5.18785 7.04743 22.1261
675 2 2.2208 5.14901 12.6844 22.0269
676 1 -1.1104 1.08635 8.54534 23.4955
678 1 -1.1104 0.921734 8.46513 26.2291
680 1 -1.1104 0.912092 5.73478 23.591
681 1 -1.1104 0.996419 11.2827 23.3649
684 2 2.2208 5.16045 9.83132 24.8878
685 1 -1.1104 0.997394 5.68503 26.3539
686 1 -1.1104 0.919753 11.2296 26.242
689 1 -1.1104 3.79689 8.36988 23.5303
690 2 2.2208 2.36491 7.1337 24.8199
691 2 2.2208 2.33084 12.5842 24.8249
692 1 -1.1104 3.80335 8.4247 26.2674
693 2 2.2208 2.40038 9.84638 22.0464
694 1 -1.1104 3.79371 5.61456 23.4071
695 1 -1.1104 3.74011 11.2626 23.4809
696 1 -1.1104 3.80588 5.69165 26.3298
697 1 -1.1104 3.7565 11.1779 26.291
677 1 -1.1104 6.56074 8.46399 23.4849
688 1 -1.1104 6.60899 11.3277 26.3501
683 1 -1.1104 6.54233 11.2679 23.4576
592 1 -1.1104 12.1995 16.9341 20.6115
698 1 -1.1104 9.30678 19.7304 26.2211
400 2 2.2208 10.8113 12.6724 27.6882
641 2 2.2208 10.8296 21.1223 24.9268
682 1 -1.1104 6.55313 5.70315 23.451
679 1 -1.1104 6.60191 8.48201 26.2949
687 1 -1.1104 6.54093 5.5928 26.2561
705 1 -1.1104 9.33872 11.2759 26.2408
706 1 -1.1104 9.45005 5.70228 26.2922
707 1 -1.1104 9.30054 11.2718 23.5043
708 1 -1.1104 9.30167 5.72149 23.4085
709 2 2.2208 7.91551 9.86236 22.0869
710 1 -1.1104 9.35558 8.46313 26.2658
711 2 2.2208 7.90435 12.7116 24.9112
712 2 2.2208 7.99239 7.05956 24.7901
713 2 2.2208 10.7369 6.94934 22.0544
714 2 2.2208 10.7285 12.628 22.0719
715 1 -1.1104 12.1444 8.55112 23.3918
716 1 -1.1104 12.1165 8.44089 26.2769
717 1 -1.1104 12.138 5.65274 23.5407
718 1 -1.1104 12.2116 11.2676 23.4336
719 2 2.2208 10.7926 9.86503 24.9134
720 1 -1.1104 12.1574 5.58758 26.2409
721 1 -1.1104 12.2138 11.2144 26.2098
722 1 -1.1104 9.37371 8.52339 23.5246
634 1 -1.1104 12.2353 14.1071 26.2562
608 1 -1.1104 12.2224 14.0662 23.5838
673 1 -1.1104 9.28854 14.0406 26.2697
670 1 -1.1104 6.5238 19.6791 26.2438
403 2 2.2208 2.35956 15.5426 27.5885
565 1 -1.1104 6.61539 16.7451 20.6239
555 1 -1.1104 6.51087 14.045 20.5474
553 1 -1.1104 0.957477 19.7497 20.5536
557 1 -1.1104 6.54007 19.4482 20.6373
739 1 -1.1104 6.57896 14.1032 23.4909
750 2 2.2208 2.29308 21.1342 21.9536
749 1 -1.1104 3.84571 16.8938 23.512
727 2 2.2208 2.33965 15.4518 22.0821
729 1 -1.1104 3.67514 19.6571 23.3409
731 1 -1.1104 3.7811 14.0367 23.435
733 1 -1.1104 0.887276 19.6779 26.2592
734 1 -1.1104 0.990434 16.9119 26.3683
735 1 -1.1104 1.04375 14.1139 26.1466
737 2 2.2208 5.14607 21.1124 24.8001
738 2 2.2208 5.15852 15.5102 24.8544
740 1 -1.1104 0.902236 19.6224 23.4191
741 1 -1.1104 0.958636 14.0246 23.4531
742 2 2.2208 5.14817 18.305 22.1717
743 1 -1.1104 3.72229 19.7522 26.1692
744 2 2.2208 2.36131 18.3874 24.771
745 1 -1.1104 3.79011 16.9368 26.2443
746 1 -1.1104 3.72997 14.1029 26.3393
748 1 -1.1104 1.04968 16.8646 23.4368
747 1 -1.1104 6.55271 16.8728 23.4496
732 1 -1.1104 6.57681 16.8701 26.263
736 1 -1.1104 6.52375 19.6862 23.5303
704 1 -1.1104 9.38089 16.8933 26.1903
730 1 -1.1104 6.55321 14.1609 26.3375
663 1 -1.1104 12.0878 16.9076 26.2591
607 2 2.2208 10.7955 18.364 22.1201
664 1 -1.1104 9.34309 14.0933 23.4822
606 2 2.2208 13.6087 21.1047 22.1668
667 2 2.2208 7.99139 18.2903 24.8653
700 2 2.2208 8.02125 21.0659 22.1207
635 1 -1.1104 12.1148 19.642 26.2959
585 1 -1.1104 12.1703 14.1979 20.6778
375 2 2.2208 13.5908 21.0629 27.7532
377 2 2.2208 7.98252 15.4223 27.6989
354 2 2.2208 13.6426 -4.17413 13.7028
353 2 2.2208 7.97367 -4.17022 13.6251
370 2 2.2208 13.618 1.37621 13.7253
393 2 2.2208 5.16692 7.06205 27.7192
395 2 2.2208 5.11321 12.7494 27.76
405 2 2.2208 2.32612 21.0478 27.647
404 2 2.2208 5.22253 18.3103 27.5078
399 2 2.2208 7.95216 9.97003 27.7044
357 2 2.2208 10.777 4.23325 13.6548
365 2 2.2208 7.93444 12.7003 13.5789
364 2 2.2208 10.658 9.88924 13.6227
373 2 2.2208 10.7141 15.4852 13.6039
359 2 2.2208 2.31625 6.98977 13.6753
369 2 2.2208 5.14989 21.0649 13.5484
751 2 2.2208 5.18528 23.9209 5.23258
752 2 2.2208 5.21517 29.5955 5.25907
753 1 -1.1104 0.965295 25.3151 1.05338
754 1 -1.1104 1.05022 25.3548 3.80194
755 1 -1.1104 0.864695 22.465 0.889501
756 1 -1.1104 1.00931 28.1166 1.13507
757 2 2.2208 5.18841 26.7545 2.46301
758 1 -1.1104 1.00468 22.4961 3.76357
759 1 -1.1104 0.942857 28.1058 3.87622
760 1 -1.1104 3.84377 25.4171 1.02313
761 2 2.2208 2.43745 23.978 2.42561
762 2 2.2208 2.35622 29.4972 2.51703
763 1 -1.1104 3.83212 25.422 3.8642
764 2 2.2208 2.40963 26.775 5.26998
765 1 -1.1104 3.7238 22.449 1.11028
766 1 -1.1104 3.81953 28.2075 1.07703
767 1 -1.1104 3.77762 22.705 3.89163
768 1 -1.1104 3.7911 28.1675 3.84587
772 1 -1.1104 6.56699 25.2326 0.982705
775 1 -1.1104 6.65992 28.0718 1.16041
773 1 -1.1104 6.53812 25.3543 3.86431
895 1 -1.1104 0.965726 28.0953 6.72845
900 1 -1.1104 3.75903 28.1858 6.72263
774 1 -1.1104 6.4772 22.4694 1.05624
777 1 -1.1104 6.53872 28.1769 3.89774
776 1 -1.1104 6.46411 22.4675 3.92827
897 1 -1.1104 6.58597 28.1161 6.70333
1675 1 -1.1104 0.902764 47.8224 6.61438
896 1 -1.1104 6.61436 22.5346 6.6603
891 2 2.2208 13.5254 40.7101 2.32234
1083 2 2.2208 13.6672 46.1714 7.71688
798 2 2.2208 13.5586 26.6736 5.2197
778 2 2.2208 10.7381 23.9507 5.19065
779 2 2.2208 10.8016 29.558 5.22643
780 1 -1.1104 12.0774 25.2413 1.02987
781 1 -1.1104 12.0898 25.2573 3.78711
782 1 -1.1104 12.2057 22.4518 1.08496
783 1 -1.1104 12.2478 28.094 1.12721
784 2 2.2208 10.6427 26.7492 2.40637
785 1 -1.1104 12.1819 22.5433 3.93446
786 1 -1.1104 12.192 28.1777 3.87514
787 1 -1.1104 9.26111 25.3713 0.956906
788 2 2.2208 7.92664 23.8925 2.43326
789 2 2.2208 7.97551 29.5676 2.4369
790 1 -1.1104 9.30369 25.201 3.82083
791 2 2.2208 7.988 26.7288 5.31787
792 1 -1.1104 9.3599 22.512 1.00586
793 1 -1.1104 9.45227 28.2402 1.06335
794 1 -1.1104 9.3343 22.4099 3.78846
795 1 -1.1104 9.31809 28.0362 3.9265
797 2 2.2208 13.6235 29.5711 2.43256
929 1 -1.1104 9.34318 22.5779 6.61521
925 1 -1.1104 12.2 25.3534 6.68145
796 2 2.2208 13.6292 23.9429 2.42075
1107 2 2.2208 7.61088 46.1686 13.4399
1127 2 2.2208 2.41161 32.331 -0.378386
799 2 2.2208 5.21296 35.1963 5.25584
800 1 -1.1104 0.803178 30.9502 0.96378
801 1 -1.1104 0.891947 36.4367 0.967609
803 1 -1.1104 0.959517 30.8772 3.78335
804 1 -1.1104 0.950184 36.4738 3.7977
806 1 -1.1104 0.977845 33.7151 1.11
807 2 2.2208 5.15741 32.3853 2.38985
808 2 2.2208 5.09137 37.8747 2.37558
809 1 -1.1104 1.04863 33.6398 3.83827
811 1 -1.1104 3.60159 30.9404 1.15213
812 1 -1.1104 3.85553 36.3526 1.07159
813 2 2.2208 2.31596 35.0655 2.42533
814 1 -1.1104 3.81593 31.0021 3.80733
815 1 -1.1104 3.73519 36.502 3.81535
816 2 2.2208 2.48216 32.3401 5.23591
817 2 2.2208 2.40082 37.9452 5.19386
818 1 -1.1104 3.79382 33.6464 0.998515
819 1 -1.1104 3.75031 33.7288 3.83709
802 1 -1.1104 6.68388 36.542 0.965327
823 1 -1.1104 6.52953 30.9178 1.07547
951 1 -1.1104 6.63324 30.9791 6.68374
825 1 -1.1104 6.52294 33.7408 0.996264
810 1 -1.1104 6.64065 33.7802 3.84554
824 1 -1.1104 6.5243 30.9517 3.84022
805 1 -1.1104 6.56004 36.5338 3.75136
856 1 -1.1104 0.900141 39.224 3.77176
1025 1 -1.1104 6.49159 39.2921 6.6059
950 1 -1.1104 1.04361 36.5687 6.52197
957 1 -1.1104 3.82545 33.8141 6.62174
1095 2 2.2208 2.36761 35.1161 13.5503
1682 1 -1.1104 0.813359 47.7895 9.42286
1069 2 2.2208 13.5959 32.2509 5.21641
826 2 2.2208 10.8302 35.1679 5.20712
827 1 -1.1104 12.211 30.9472 0.990853
828 1 -1.1104 12.1839 36.5685 1.01821
829 1 -1.1104 12.1681 30.9231 3.82595
830 1 -1.1104 12.1428 36.4738 3.82916
831 1 -1.1104 12.2527 33.7053 1.00323
832 2 2.2208 10.7646 32.2897 2.44443
833 2 2.2208 10.8046 37.9413 2.34728
834 1 -1.1104 12.2298 33.7004 3.80633
835 1 -1.1104 9.39974 31.0137 1.00513
836 1 -1.1104 9.43872 36.5544 0.944554
837 2 2.2208 7.98843 35.1188 2.44186
838 1 -1.1104 9.35693 30.9028 3.77474
839 1 -1.1104 9.34048 36.5124 3.85188
840 2 2.2208 7.91172 32.3815 5.20327
841 2 2.2208 7.99269 37.9268 5.09531
842 1 -1.1104 9.31677 33.722 1.07586
843 1 -1.1104 9.4126 33.6905 3.88945
983 1 -1.1104 12.1026 30.9689 6.64243
1068 2 2.2208 13.6211 37.994 5.13575
1090 2 2.2208 8.06447 29.4578 13.6414
985 1 -1.1104 12.253 33.6545 6.61867
844 2 2.2208 13.6535 35.0218 2.42399
1131 2 2.2208 8.05028 37.9568 -0.477665
1696 1 -1.1104 3.66637 47.7559 9.31251
1677 1 -1.1104 3.74129 47.6784 6.4227
1063 1 -1.1104 12.1866 42.1074 9.35862