ITEM: TIMESTEP
20000
ITEM: NUMBER OF ATOMS
17760
ITEM: BOX BOUNDS pp pp pp
-4.1771353185781357e-01 2.7757713531857803e+01
-5.0375863099826210e+00 3.3311758630998526e+02
-4.2228950271377091e-01 2.7762289502713323e+01
ITEM: ATOMS id type q x y z
1 2 2.2208 5.37895 0.435535 5.25122
2 1 -1.1104 1.137 -3.40716 1.06119
6 1 -1.1104 0.97599 -3.65716 3.96313
10 1 -1.1104 1.10656 -0.558696 1.16272
12 2 2.2208 5.24033 -2.30995 2.34568
14 1 -1.1104 1.0366 -1.01881 4.04463
16 1 -1.1104 3.88345 -3.51261 0.846386
18 2 2.2208 2.57373 0.685604 2.56658
19 1 -1.1104 3.75307 -3.60451 3.75911
21 2 2.2208 2.56836 -2.17257 5.21829
23 1 -1.1104 4.01635 -0.922833 1.01142
24 1 -1.1104 3.96888 -0.803244 3.79475
9225 2 2.2208 -0.331566 3.60981 2.25897
347 2 2.2208 5.16544 12.0545 -0.456307
204 2 2.2208 -0.335789 -4.99464 10.9606
174 1 -1.1104 3.92975 -0.87847 6.6727
170 1 -1.1104 1.03068 -0.836188 6.7839
172 1 -1.1104 3.92416 -3.54504 6.53606
9230 2 2.2208 -0.382268 6.16808 5.2542
335 2 2.2208 8.10389 17.5024 13.6136
136 2 2.2208 -0.334652 20.1644 2.24554
418 2 2.2208 8.11699 -4.90865 13.587
11 1 -1.1104 6.7423 -0.952315 1.04928
8 1 -1.1104 6.44796 -3.70959 3.86951
15 1 -1.1104 7.07244 -0.694681 3.84569
4 1 -1.1104 6.65281 -3.93495 0.966154
31 2 2.2208 10.8839 0.728884 5.1523
32 1 -1.1104 12.4723 -3.62545 0.849061
34 1 -1.1104 12.3018 -3.46154 3.74908
36 1 -1.1104 12.5297 -0.857858 0.94373
37 2 2.2208 10.9568 -2.32388 2.35476
39 1 -1.1104 12.4521 -0.802825 3.79876
40 1 -1.1104 9.59574 -3.54457 0.890703
42 2 2.2208 8.2133 0.633154 2.3819
43 1 -1.1104 9.26973 -3.44178 3.78517
45 2 2.2208 8.14951 -2.2431 5.34468
47 1 -1.1104 9.64764 -0.794107 0.819136
48 1 -1.1104 9.76334 -0.581524 3.82076
171 1 -1.1104 6.70415 -0.941047 6.81009
205 1 -1.1104 12.3667 -3.4987 6.61039
208 1 -1.1104 9.54677 -3.6467 6.72866
210 1 -1.1104 9.53753 -0.736526 6.55206
3 1 -1.1104 1.11015 2.23583 1.18897
7 1 -1.1104 1.29512 2.10037 3.99839
13 2 2.2208 5.36325 3.45773 2.38984
17 1 -1.1104 4.09785 2.08242 1.03812
20 1 -1.1104 4.00905 2.03061 3.76524
22 2 2.2208 2.58399 3.41449 5.24801
343 2 2.2208 8.10229 9.16216 -0.425603
54 2 2.2208 5.28461 6.33668 5.13745
56 1 -1.1104 0.942614 7.71492 1.09033
58 1 -1.1104 1.07628 7.65456 4.05507
60 1 -1.1104 1.10656 4.88103 0.906911
67 1 -1.1104 0.963951 4.89089 3.56131
71 1 -1.1104 3.85143 7.65583 0.905331
72 2 2.2208 2.36826 6.35166 2.37005
74 1 -1.1104 3.6655 7.69306 3.8384
76 1 -1.1104 3.93543 4.74914 0.845927
79 1 -1.1104 4.05389 4.92677 3.80507
51 2 2.2208 8.04859 -4.9959 2.45329
167 1 -1.1104 1.28883 1.90553 6.7496
239 1 -1.1104 3.9271 4.95988 6.6545
232 2 2.2208 10.9733 -4.9712 10.9508
9 1 -1.1104 6.55149 2.16008 4.01931
5 1 -1.1104 6.85679 1.8941 0.879975
33 1 -1.1104 12.2947 2.09556 1.24547
35 1 -1.1104 12.4827 2.09757 4.06728
41 1 -1.1104 9.49344 1.93041 0.944797
44 1 -1.1104 9.49722 2.09224 3.85571
46 2 2.2208 8.112 3.38664 5.20037
38 2 2.2208 10.9353 3.45049 2.3565
57 1 -1.1104 6.68684 7.94227 0.988673
69 1 -1.1104 6.90764 4.90358 3.88588
59 1 -1.1104 6.66433 7.58334 3.86097
63 1 -1.1104 6.74646 4.96904 1.11302
84 2 2.2208 11.0168 6.27361 5.28137
86 1 -1.1104 12.3678 7.70749 0.888935
87 1 -1.1104 12.3608 7.8014 3.82763
88 1 -1.1104 12.3953 5.00287 0.987795
92 1 -1.1104 12.3309 5.00413 3.66647
94 1 -1.1104 9.40584 7.76285 1.17161
95 2 2.2208 8.09572 6.34865 2.5084
97 1 -1.1104 9.58639 7.49417 3.98116
99 1 -1.1104 9.59243 4.79934 0.834134
102 1 -1.1104 9.43581 4.71859 3.59442
231 2 2.2208 7.95874 -4.99809 8.19752
269 1 -1.1104 9.64627 4.78614 6.64532
235 1 -1.1104 6.71426 7.52951 6.7255
237 1 -1.1104 6.66423 4.68827 6.63106
266 1 -1.1104 12.5553 4.84552 6.62638
265 1 -1.1104 12.3085 7.62092 6.66488
203 2 2.2208 5.22584 -5.00396 10.891
9243 2 2.2208 -0.447334 17.6343 10.7844
336 2 2.2208 5.44867 0.471906 -0.396455
55 2 2.2208 5.36884 11.6924 5.2251
61 1 -1.1104 1.07656 10.5784 0.978418
66 2 2.2208 5.1948 9.1153 2.23772
68 1 -1.1104 0.967907 10.4949 3.86762
73 2 2.2208 2.40803 11.9467 2.49561
75 2 2.2208 2.41856 9.10963 5.25976
77 1 -1.1104 3.70097 10.6068 0.93092
80 1 -1.1104 3.82607 10.4608 3.93718
107 1 -1.1104 1.19098 13.279 1.17483
113 1 -1.1104 1.00225 13.2824 3.74544
123 1 -1.1104 3.80816 13.3639 1.07277
128 1 -1.1104 3.75895 13.3852 3.86375
119 2 2.2208 5.13286 14.6893 2.45912
130 2 2.2208 2.36704 14.7815 5.35506
62 1 -1.1104 1.08747 10.6626 6.65087
108 1 -1.1104 1.04567 13.5743 6.72818
111 1 -1.1104 6.83597 13.217 6.52272
70 1 -1.1104 6.52992 10.4751 3.82606
64 1 -1.1104 6.60613 10.4908 0.961025
85 2 2.2208 11.0274 11.8387 5.1514
89 1 -1.1104 12.0156 10.2163 0.811725
91 2 2.2208 10.8198 9.00355 2.32096
93 1 -1.1104 12.123 10.5821 3.60238
96 2 2.2208 8.07383 11.9768 2.43181
98 2 2.2208 8.1533 8.90642 5.35354
100 1 -1.1104 9.50861 10.5232 0.931203
103 1 -1.1104 9.37288 10.331 3.99178
110 1 -1.1104 6.42805 13.3483 0.944536
115 1 -1.1104 6.60601 13.2659 3.64538
142 1 -1.1104 12.082 13.0665 1.04637
146 1 -1.1104 12.4455 13.2462 3.95816
153 1 -1.1104 9.36097 13.3971 1.0326
158 1 -1.1104 9.64881 13.1458 3.76483
101 1 -1.1104 9.64887 10.4267 6.61707
160 2 2.2208 8.13547 14.71 5.06534
65 1 -1.1104 6.65232 10.4055 6.63796
154 1 -1.1104 9.45681 13.4036 6.47259
53 2 2.2208 10.8459 14.7693 7.97693
329 2 2.2208 8.18391 11.8222 13.633
29 2 2.2208 5.26586 -4.9511 5.21821
106 2 2.2208 5.25575 17.4821 5.26116
109 1 -1.1104 0.886716 18.8466 0.779271
114 1 -1.1104 1.07873 18.8087 3.60017
116 1 -1.1104 0.978447 16.1075 1.06339
120 2 2.2208 5.1335 20.2588 2.29328
121 1 -1.1104 0.966281 16.0434 3.95569
125 1 -1.1104 3.70684 19.0169 0.903559
127 2 2.2208 2.53577 17.4323 2.19814
129 1 -1.1104 4.01102 18.8765 3.78744
131 2 2.2208 2.38233 20.3441 5.20648
132 1 -1.1104 3.76891 16.1436 1.0031
134 1 -1.1104 3.74641 16.0098 3.9361
117 1 -1.1104 1.13073 16.3065 6.67609
126 1 -1.1104 3.65272 19.0713 6.77074
133 1 -1.1104 3.85148 16.1303 6.73969
302 1 -1.1104 0.63165 19.1106 6.24124
9222 2 2.2208 13.6093 14.7159 10.7804
138 1 -1.1104 6.49833 18.7666 0.998898
150 2 2.2208 10.8284 14.7393 2.37821
139 1 -1.1104 6.782 18.8605 3.89552
122 1 -1.1104 6.61486 16.1522 3.57002
140 1 -1.1104 6.70372 16.0114 0.938096
141 2 2.2208 10.9978 17.5806 4.93822
144 1 -1.1104 12.1628 18.8299 0.978279
147 1 -1.1104 12.2426 18.9679 3.66341
148 1 -1.1104 12.4441 16.019 0.77153
151 2 2.2208 10.8821 20.4518 2.3939
152 1 -1.1104 12.262 16.252 3.55131
155 1 -1.1104 9.50069 18.9132 0.871693
157 2 2.2208 8.03113 17.5006 2.24095
159 1 -1.1104 9.5749 19.0693 3.34608
161 2 2.2208 8.01329 20.2362 5.18873
162 1 -1.1104 9.35985 16.1228 0.838568
164 1 -1.1104 9.52067 16.1604 3.72789
118 1 -1.1104 6.90445 16.026 6.62206
156 1 -1.1104 9.52257 19.085 6.27472
9238 2 2.2208 13.6108 0.828255 8.2646
112 1 -1.1104 6.50127 18.8827 6.5765
149 1 -1.1104 12.2945 16.1123 6.20256
324 2 2.2208 2.39104 6.16005 13.5837
52 2 2.2208 10.7722 -5.06118 5.21487
337 2 2.2208 2.52906 -2.06699 -0.350838
166 1 -1.1104 0.952703 -3.47273 6.71225
50 1 -1.1104 12.3002 16.0151 12.0187
9241 2 2.2208 -0.186618 20.3461 7.94106
175 2 2.2208 5.24231 0.632076 10.9314
176 1 -1.1104 1.03475 -3.51996 12.4974
180 1 -1.1104 1.14351 -3.6885 9.55304
184 1 -1.1104 1.06038 -0.725132 12.5492
186 2 2.2208 5.30718 -2.10388 8.06126
188 1 -1.1104 0.933619 -0.782284 9.58478
190 1 -1.1104 3.82075 -3.71775 12.4265
192 2 2.2208 2.49416 0.600732 8.08732
193 1 -1.1104 3.85574 -3.51367 9.44235
195 2 2.2208 2.53207 -2.2553 10.9171
197 1 -1.1104 3.75475 -0.778203 12.2245
198 1 -1.1104 3.90218 -0.806043 9.41116
9224 2 2.2208 -0.332145 0.465105 5.24238
207 1 -1.1104 12.1496 -0.78973 6.54191
168 1 -1.1104 6.76676 -3.65816 6.72283
189 1 -1.1104 6.65765 -0.804044 9.42884
182 1 -1.1104 6.66354 -3.45272 9.39529
185 1 -1.1104 6.49736 -0.837639 12.2412
178 1 -1.1104 6.6689 -3.64755 12.0788
211 2 2.2208 10.7496 0.602375 10.8672
212 1 -1.1104 12.4182 -3.4723 12.3059
214 1 -1.1104 12.2785 -3.45828 9.59861
216 1 -1.1104 12.4283 -0.677954 12.2165
217 2 2.2208 11.0297 -2.11866 8.05403
219 1 -1.1104 12.2877 -0.69041 9.4559
220 1 -1.1104 9.37498 -3.44184 12.0394
222 2 2.2208 8.15598 0.580912 7.94745
223 1 -1.1104 9.49487 -3.49509 9.44924
225 2 2.2208 8.04637 -2.11852 10.8705
227 1 -1.1104 9.6149 -0.772333 12.166
228 1 -1.1104 9.42668 -0.640315 9.39112
25 2 2.2208 10.8607 17.3991 10.7812
173 1 -1.1104 4.10108 2.01311 6.60191
177 1 -1.1104 0.982238 1.89354 12.1809
181 1 -1.1104 1.00811 1.84962 9.40587
187 2 2.2208 5.26241 3.34251 8.07428
191 1 -1.1104 3.72654 2.08189 12.5022
194 1 -1.1104 3.8168 1.98461 9.50621
196 2 2.2208 2.51701 3.41939 10.8279
199 2 2.2208 -0.371142 3.23389 8.07343
236 1 -1.1104 1.29165 4.67352 6.79156
238 1 -1.1104 3.8027 7.72107 6.6523
234 1 -1.1104 0.972886 7.62788 6.81541
240 2 2.2208 5.11402 6.20079 10.806
242 1 -1.1104 1.03108 7.76307 12.26
244 1 -1.1104 1.04673 7.57975 9.70401
246 1 -1.1104 1.04367 4.66808 12.306
251 1 -1.1104 1.13628 4.75385 9.37143
255 1 -1.1104 3.80843 7.64458 12.197
256 2 2.2208 2.33634 6.21127 8.08876
258 1 -1.1104 3.81629 7.54255 9.46435
260 1 -1.1104 3.91926 4.89983 12.1339
262 1 -1.1104 3.83181 4.7472 9.51634
183 1 -1.1104 6.62796 1.9068 9.52279
245 1 -1.1104 6.80562 7.32551 9.61032
206 1 -1.1104 12.4891 2.18885 6.74398
267 1 -1.1104 9.33184 7.5107 6.84283
165 2 2.2208 8.00795 14.5936 10.6909
104 1 -1.1104 9.37244 18.8161 12.1779
169 1 -1.1104 6.83717 1.8482 6.71866
179 1 -1.1104 6.55079 1.93646 12.2663
209 1 -1.1104 9.68489 2.0697 6.66525
213 1 -1.1104 11.9559 2.20925 12.2392
215 1 -1.1104 12.2513 2.24884 9.69781
218 2 2.2208 10.9822 3.61767 7.96903
221 1 -1.1104 9.10211 2.05421 12.3442
224 1 -1.1104 9.53258 2.0399 9.49895
226 2 2.2208 8.06406 3.48327 10.7943
253 1 -1.1104 6.59784 4.75056 9.40985
248 1 -1.1104 6.59686 4.89415 12.2049
243 1 -1.1104 6.70355 7.48779 12.4653
268 1 -1.1104 9.57211 4.82834 9.41494
271 1 -1.1104 9.28363 4.78846 12.328
273 1 -1.1104 9.49815 7.7473 9.48412
275 2 2.2208 7.9811 6.18226 8.11589
276 2 2.2208 10.7524 6.23173 10.8069
278 1 -1.1104 12.2965 7.69347 12.4011
280 1 -1.1104 12.2426 4.87971 12.3637
283 1 -1.1104 12.3982 5.07882 9.51244
285 1 -1.1104 9.48254 7.62806 12.217
279 1 -1.1104 12.2559 7.90245 9.60793
124 1 -1.1104 3.89373 13.415 6.95011
78 1 -1.1104 3.93318 10.4494 6.71699
341 2 2.2208 8.14292 3.36462 -0.423847
241 2 2.2208 5.22463 11.7118 10.8797
247 1 -1.1104 0.979788 10.4398 12.0032
250 2 2.2208 5.26344 8.924 8.03829
252 1 -1.1104 0.907491 10.6802 9.20271
257 2 2.2208 2.39462 12.0256 8.00816
259 2 2.2208 2.43606 9.10592 10.8679
261 1 -1.1104 3.80641 10.4543 12.4537
263 1 -1.1104 3.74931 10.4519 9.49504
287 1 -1.1104 3.93989 13.2804 12.2909
294 1 -1.1104 0.88783 13.4938 9.43772
299 1 -1.1104 1.06909 13.3431 12.2306
305 1 -1.1104 3.78972 13.083 9.64029
295 2 2.2208 5.39949 14.685 7.96223
9231 2 2.2208 -0.413559 8.99626 2.56476
254 1 -1.1104 6.44205 10.1958 9.36841
90 1 -1.1104 12.4144 10.5386 6.53485
249 1 -1.1104 6.71328 10.2858 12.1822
264 1 -1.1104 9.2778 10.5792 9.31163
270 1 -1.1104 9.41021 10.6036 12.1818
272 2 2.2208 7.99422 9.05851 10.8553
274 2 2.2208 8.18543 11.969 7.82837
277 2 2.2208 10.8151 12.0152 10.8213
281 1 -1.1104 12.2526 10.3415 12.1803
282 2 2.2208 10.7692 9.15664 8.19751
284 1 -1.1104 11.9642 10.7188 9.31004
297 1 -1.1104 6.55547 13.1486 12.168
143 1 -1.1104 12.3254 13.2507 6.69674
290 1 -1.1104 6.8265 13.0086 9.32877
30 1 -1.1104 12.1954 13.4696 9.43239
26 1 -1.1104 12.3367 13.1622 12.2885
83 1 -1.1104 9.48739 13.3938 12.1098
135 1 -1.1104 9.4785 13.3109 9.44231
332 2 2.2208 5.3378 14.6019 13.5993
306 1 -1.1104 6.70325 16.1287 12.2093
8951 2 2.2208 13.6116 9.00829 5.30366
289 1 -1.1104 6.78274 15.8807 9.39216
49 1 -1.1104 12.4886 19.1157 9.33841
310 2 2.2208 2.53777 14.7326 10.8193
286 1 -1.1104 3.98336 19.0778 12.4062
291 1 -1.1104 1.36769 19.013 9.42545
292 1 -1.1104 1.06681 16.1539 9.55561
293 2 2.2208 5.34357 20.2493 8.01486
298 1 -1.1104 1.21963 18.8903 12.3164
300 2 2.2208 5.46663 17.4534 10.8444
301 1 -1.1104 4.06136 18.9003 9.4904
303 2 2.2208 2.43179 17.443 8.11795
304 1 -1.1104 3.89619 16.0111 9.40681
307 1 -1.1104 1.07601 16.0804 12.2874
308 1 -1.1104 3.96878 16.2542 12.0299
309 2 2.2208 2.53956 20.2464 10.8876
81 2 2.2208 10.8823 20.3265 8
296 1 -1.1104 6.77445 19.0991 12.2427
28 2 2.2208 2.40278 -4.92158 2.3712
230 1 -1.1104 9.50247 16.0382 12.2196
27 1 -1.1104 12.2683 18.7172 12.3291
9151 2 2.2208 -0.314707 9.20278 7.94489
325 2 2.2208 5.30259 9.13533 13.7105
82 1 -1.1104 12.4016 16.242 9.23307
163 1 -1.1104 9.67762 16.1748 6.58826
233 1 -1.1104 9.65357 16.0738 9.36616
326 2 2.2208 2.53208 11.9834 13.5552
137 1 -1.1104 9.66675 18.8916 9.36675
288 1 -1.1104 6.82337 18.6443 9.43452
145 1 -1.1104 12.3448 19.0513 6.45788
105 2 2.2208 8.2009 17.4508 7.99046
229 2 2.2208 8.05058 20.3856 10.8755
200 2 2.2208 -0.275794 -2.20828 8.12847
201 2 2.2208 -0.350065 0.727373 10.9327
344 2 2.2208 10.892 6.31958 -0.325233
9232 2 2.2208 -0.378142 11.929 5.14337
313 2 2.2208 2.36049 14.6063 -0.468247
9239 2 2.2208 13.6073 -1.93435 10.9811
9278 2 2.2208 -0.40746 14.7429 13.6046
328 2 2.2208 10.7772 9.07544 13.5752
317 2 2.2208 5.1631 3.35329 13.6214
9403 2 2.2208 -0.306472 -4.93793 -0.436295
9268 2 2.2208 -0.283279 9.09983 13.4928
333 2 2.2208 10.9567 20.2713 13.5941
9226 2 2.2208 -0.328086 -5.05298 5.55198
9152 2 2.2208 -0.270631 6.20179 10.8201
9235 2 2.2208 -0.358673 14.7086 2.44618
9254 2 2.2208 -0.420711 11.8547 -0.392432
322 2 2.2208 11.0473 -2.20096 13.5357
334 2 2.2208 10.843 14.4874 13.6206
330 2 2.2208 2.59957 17.5205 13.5594
345 2 2.2208 5.35703 6.436 -0.393166
323 2 2.2208 10.7987 3.48269 13.5753
338 2 2.2208 2.60104 3.39181 -0.38481
320 2 2.2208 7.98733 20.2419 -0.307193
9266 2 2.2208 13.6727 17.4077 13.5677
321 2 2.2208 8.03772 0.647477 13.6723
348 2 2.2208 5.25152 0.542217 16.5317
349 1 -1.1104 0.84737 -3.61812 18.0148
353 1 -1.1104 1.10942 -3.60272 15.2476
361 1 -1.1104 0.926072 -0.966263 18.2529
363 2 2.2208 5.32891 -2.1751 19.4264
365 1 -1.1104 0.945532 -0.865792 15.4761
369 1 -1.1104 3.77028 -3.71233 17.8318
371 2 2.2208 2.23245 0.608963 19.4079
372 1 -1.1104 3.86868 -3.7666 15.1459
376 2 2.2208 2.42088 -2.26837 16.7781
378 1 -1.1104 4.0425 -1.02179 17.9101
379 1 -1.1104 3.59864 -0.975455 15.1145
314 2 2.2208 5.14942 17.4261 27.7252
611 2 2.2208 8.20677 -4.9931 24.7944
354 1 -1.1104 0.776099 -3.66019 20.8141
357 1 -1.1104 6.71656 -3.7123 15.1119
351 1 -1.1104 6.78972 -3.64703 17.7802
9245 2 2.2208 -0.364409 17.4915 27.7443
339 2 2.2208 11.0643 0.495384 27.7537
9508 2 2.2208 -0.373199 20.3297 19.2593
367 1 -1.1104 6.62046 -0.867299 15.0603
362 1 -1.1104 6.63832 -0.790684 17.8536
391 2 2.2208 10.7725 0.514438 16.4741
392 1 -1.1104 12.3379 -3.37421 18.1408
394 1 -1.1104 12.3391 -3.53877 15.1317
398 1 -1.1104 12.1106 -0.715883 17.8735
399 2 2.2208 10.7759 -2.07334 19.3674
401 1 -1.1104 12.2455 -0.779413 15.1287
403 1 -1.1104 9.61493 -3.5534 17.8378
405 2 2.2208 7.83008 0.643333 19.3971
406 1 -1.1104 9.53914 -3.64376 15.0557
410 2 2.2208 8.13272 -2.19858 16.3184
412 1 -1.1104 9.18776 -0.924504 17.7864
413 1 -1.1104 9.48071 -0.967794 14.887
395 1 -1.1104 12.3868 -3.73407 20.5928
350 1 -1.1104 0.992733 1.96802 17.9745
355 1 -1.1104 0.882259 2.03658 15.2743
364 2 2.2208 5.20855 3.3814 19.2331
370 1 -1.1104 3.88539 1.85481 17.9645
374 1 -1.1104 3.77538 1.81839 15.2273
377 2 2.2208 2.37632 3.27434 16.4991
424 2 2.2208 5.27542 6.18459 16.4478
426 1 -1.1104 1.00628 7.52409 17.8239
428 1 -1.1104 0.935583 7.96027 15.1676
432 1 -1.1104 0.919031 4.67635 17.8769
437 1 -1.1104 1.1519 4.84611 15.0441
445 1 -1.1104 3.62376 7.57159 17.8619
446 2 2.2208 2.40524 6.1935 19.4038
448 1 -1.1104 4.00762 7.82726 14.9681
451 1 -1.1104 3.75375 4.77741 17.8286
453 1 -1.1104 3.78861 4.93936 15.1342
434 1 -1.1104 6.68093 4.56342 17.8434
417 2 2.2208 8.10593 -4.98706 19.2787
9510 2 2.2208 -0.260357 17.4595 16.4627
438 1 -1.1104 1.18177 4.84577 20.6388
9248 2 2.2208 13.6629 0.703204 13.7073
582 2 2.2208 2.46936 -4.99203 24.9667
9439 2 2.2208 -0.26117 6.31832 16.435
352 1 -1.1104 6.64799 1.95374 17.9003
359 1 -1.1104 6.50114 2.02015 15.1441
393 1 -1.1104 12.1452 2.03181 17.8436
396 1 -1.1104 12.1823 2.09824 14.9682
400 2 2.2208 10.8642 3.41019 19.2549
404 1 -1.1104 9.35605 1.98768 17.9704
408 1 -1.1104 9.43131 1.88891 15.2322
411 2 2.2208 8.02168 3.34807 16.4396
441 1 -1.1104 6.63477 4.81911 15.09
427 1 -1.1104 6.60761 7.37211 18.1761
430 1 -1.1104 6.67579 7.60077 15.2557
460 2 2.2208 10.8109 6.16043 16.508
462 1 -1.1104 12.2627 7.61205 17.9501
463 1 -1.1104 12.3335 7.62423 15.1668
465 1 -1.1104 12.4552 5.06975 17.8116
468 1 -1.1104 12.5426 4.7574 15.0665
472 1 -1.1104 9.38804 7.53853 17.9153
473 2 2.2208 7.97718 6.09196 19.3221
475 1 -1.1104 9.47002 7.68294 15.1845
478 1 -1.1104 9.44212 4.84972 17.8152
480 1 -1.1104 9.609 4.86701 15.0201
469 1 -1.1104 12.3073 4.87969 20.6464
476 1 -1.1104 9.41841 7.66945 20.614
397 1 -1.1104 12.4166 2.0342 20.6093
464 1 -1.1104 12.3307 7.69065 20.9527
431 1 -1.1104 6.723 7.43033 21.0014
481 1 -1.1104 9.59996 4.67142 20.657
9442 2 2.2208 13.5797 20.2278 22.1986
9470 2 2.2208 13.6219 20.2695 16.4726
425 2 2.2208 5.36938 11.6587 16.578
433 1 -1.1104 1.24792 10.422 18.1417
436 2 2.2208 5.34557 9.01126 19.3137
439 1 -1.1104 1.18728 10.6392 14.8683
447 2 2.2208 2.44088 11.8572 19.3722
450 2 2.2208 2.47457 9.13234 16.4628
452 1 -1.1104 3.91864 10.4582 17.9424
455 1 -1.1104 3.94552 10.6554 15.1017
435 1 -1.1104 6.7237 10.4394 17.9442
488 1 -1.1104 1.1507 13.1321 17.8972
492 1 -1.1104 1.18881 13.2789 15.2664
508 1 -1.1104 4.10322 13.1332 18.0179
511 1 -1.1104 4.00965 13.3037 15.1721
440 1 -1.1104 1.29651 10.5055 20.9157
444 1 -1.1104 6.64973 10.3787 20.643
9395 2 2.2208 13.5621 -5.03221 24.9274
502 2 2.2208 5.15936 14.6382 19.372
315 2 2.2208 2.41315 20.3415 27.6934
456 1 -1.1104 3.92849 10.3759 20.6981
512 1 -1.1104 3.73455 13.1427 20.7643
493 1 -1.1104 0.949202 13.2039 20.5714
9530 2 2.2208 13.6628 3.5115 22.1387
9468 2 2.2208 13.5774 14.8026 22.0579
9509 2 2.2208 -0.355216 14.6303 19.1828
443 1 -1.1104 6.69824 10.4284 15.1061
461 2 2.2208 10.9331 11.7006 16.4597
466 1 -1.1104 12.1769 10.257 17.9639
467 2 2.2208 10.9277 9.00707 19.4574
470 1 -1.1104 12.4892 10.3806 15.0615
474 2 2.2208 8.03684 11.7848 19.2523
477 2 2.2208 8.06221 8.9396 16.5687
479 1 -1.1104 9.40025 10.439 17.7731
482 1 -1.1104 9.6606 10.3799 15.0694
490 1 -1.1104 6.88495 13.2404 17.8518
496 1 -1.1104 6.72368 13.2128 15.023
524 1 -1.1104 12.4036 13.1131 17.9079
526 1 -1.1104 12.3026 13.2008 14.9642
535 1 -1.1104 9.62999 13.156 17.8403
538 1 -1.1104 9.47903 13.1663 14.9017
471 1 -1.1104 12.4706 10.2561 20.7856
527 1 -1.1104 12.3853 13.2667 20.721
497 1 -1.1104 6.60413 13.2119 20.6807
539 1 -1.1104 9.53954 13.3728 20.6419
584 1 -1.1104 12.2879 18.9985 26.4525
9325 2 2.2208 -0.18455 14.7275 24.7628
9404 2 2.2208 -0.225703 11.9136 16.5655
507 1 -1.1104 6.59198 16.065 20.8913
515 2 2.2208 2.57685 14.5819 16.3731
487 2 2.2208 5.24127 17.4482 16.4405
489 1 -1.1104 0.989623 18.952 17.8021
494 1 -1.1104 0.720449 18.8735 15.0086
500 1 -1.1104 1.034 16.0561 17.9101
503 2 2.2208 5.1191 20.1525 19.2754
504 1 -1.1104 1.168 16.0045 15.0335
509 1 -1.1104 3.78867 18.633 17.7782
510 2 2.2208 2.5225 17.5377 19.2779
513 1 -1.1104 3.91469 18.8587 14.9694
516 2 2.2208 2.36668 20.1251 16.4267
517 1 -1.1104 3.61083 15.9105 17.7714
518 1 -1.1104 4.01911 16.1631 14.8484
505 1 -1.1104 0.990947 16.0663 20.6848
501 1 -1.1104 6.55983 16.1456 18.064
506 1 -1.1104 6.71691 16.1381 15.171
495 1 -1.1104 0.759024 18.9401 20.6258
514 1 -1.1104 3.5747 18.9197 20.7399
546 1 -1.1104 9.60193 16.0987 20.48
577 1 -1.1104 9.44212 15.8842 26.3264
606 2 2.2208 7.94185 20.1417 22.0554
579 1 -1.1104 12.4308 18.8825 23.4516
529 1 -1.1104 12.1817 18.832 20.5104
542 2 2.2208 8.06772 14.3899 16.4114
498 1 -1.1104 6.55396 18.8018 15.1983
491 1 -1.1104 6.72564 18.862 17.882
531 2 2.2208 10.925 14.6846 19.2312
523 2 2.2208 10.8967 17.331 16.6188
525 1 -1.1104 12.4947 18.7851 17.9108
528 1 -1.1104 12.071 18.7815 15.2409
530 1 -1.1104 12.3021 15.9227 17.9746
532 2 2.2208 10.8268 20.1639 19.1305
533 1 -1.1104 12.3632 16.0927 15.0131
536 1 -1.1104 9.55128 18.7375 17.765
537 2 2.2208 8.04374 17.5867 19.1616
540 1 -1.1104 9.47181 18.6229 15.1618
543 2 2.2208 7.93599 20.2105 16.3724
544 1 -1.1104 9.44053 15.9809 17.7723
545 1 -1.1104 9.3984 15.775 15.0168
534 1 -1.1104 12.3039 16.0983 20.6625
608 2 2.2208 10.7763 20.2944 24.9635
580 2 2.2208 5.20525 -4.97081 27.7437
373 1 -1.1104 3.94864 -3.79154 20.5053
380 1 -1.1104 3.75727 -0.906168 20.6563
366 1 -1.1104 1.00109 -0.730654 21.0173
9398 2 2.2208 13.6382 6.27205 19.2916
551 2 2.2208 5.16817 0.607025 22.0838
552 1 -1.1104 0.999822 -3.67829 23.635
556 1 -1.1104 1.04726 -3.71707 26.4518
560 1 -1.1104 0.841773 -0.892927 23.8286
562 2 2.2208 5.47454 -2.25802 24.9361
564 1 -1.1104 1.12764 -0.920005 26.5029
566 1 -1.1104 3.88307 -3.6302 23.354
568 2 2.2208 2.6599 0.631329 24.8908
569 1 -1.1104 3.88023 -3.51191 26.2392
571 2 2.2208 2.48231 -2.11037 22.2074
573 1 -1.1104 3.83668 -0.663341 23.4549
574 1 -1.1104 3.87044 -0.799194 26.1186
561 1 -1.1104 6.59233 -0.798955 23.7161
342 2 2.2208 10.76 11.8429 27.6293
402 1 -1.1104 12.1954 -0.940418 20.9549
407 1 -1.1104 9.61092 -3.63575 20.6039
414 1 -1.1104 9.14978 -0.744449 20.596
614 1 -1.1104 9.62102 18.8029 23.3162
558 1 -1.1104 6.97356 -3.71764 26.261
368 1 -1.1104 6.54322 -0.935194 20.9463
358 1 -1.1104 6.62076 -3.74568 20.6919
554 1 -1.1104 6.71877 -3.66127 23.4745
565 1 -1.1104 6.76156 -1.028 26.5307
587 2 2.2208 10.9857 0.926171 22.1242
588 1 -1.1104 12.4097 -3.5027 23.564
590 1 -1.1104 12.4431 -3.69576 26.3858
592 1 -1.1104 12.3923 -0.542874 23.5574
593 2 2.2208 11.1189 -2.08188 24.8163
595 1 -1.1104 12.5101 -0.960607 26.2539
596 1 -1.1104 9.64856 -3.54645 23.5761
598 2 2.2208 8.17568 0.541801 25.0038
599 1 -1.1104 9.80842 -3.71548 26.3201
601 2 2.2208 8.03058 -2.24656 22.066
603 1 -1.1104 9.54265 -0.722508 23.5255
604 1 -1.1104 9.69134 -0.95243 26.3613
550 2 2.2208 10.7828 17.4434 22.0904
586 2 2.2208 10.9719 14.681 24.9754
419 1 -1.1104 6.60535 15.9076 23.4617
375 1 -1.1104 3.94167 2.05316 20.7256
454 1 -1.1104 3.81609 4.78362 20.5949
9396 2 2.2208 -0.328715 3.45126 24.9679
356 1 -1.1104 0.956962 2.06942 20.8441
553 1 -1.1104 1.07762 1.98509 23.6522
557 1 -1.1104 1.14477 1.8449 26.4338
563 2 2.2208 5.51038 3.35028 24.9217
567 1 -1.1104 3.88362 2.03591 23.6953
570 1 -1.1104 4.1745 1.99308 26.6251
572 2 2.2208 2.4821 3.41564 22.1583
449 1 -1.1104 3.87206 7.53676 20.7781
429 1 -1.1104 0.979291 7.62179 20.5838
616 2 2.2208 5.22197 6.07437 22.0562
618 1 -1.1104 1.1263 7.5975 23.4356
620 1 -1.1104 1.11425 7.7354 26.2063
622 1 -1.1104 1.06256 4.75827 23.5713
627 1 -1.1104 1.1457 4.79907 26.3769
631 1 -1.1104 3.97625 7.56483 23.4628
632 2 2.2208 2.55644 6.147 24.8632
634 1 -1.1104 3.84361 7.79398 26.3113
636 1 -1.1104 3.86348 4.79815 23.317
638 1 -1.1104 4.11617 4.84034 26.2703
319 2 2.2208 10.9024 17.4645 27.7052
555 1 -1.1104 6.74119 2.16893 23.3043
624 1 -1.1104 6.61232 4.7928 23.53
645 1 -1.1104 9.34834 18.795 26.1761
541 1 -1.1104 9.37319 18.8805 20.5044
409 1 -1.1104 9.50318 2.12892 20.6471
360 1 -1.1104 6.72223 2.05029 20.6854
559 1 -1.1104 6.81612 1.95619 26.1256
589 1 -1.1104 12.4521 2.15239 23.6598
591 1 -1.1104 12.6497 1.79779 26.6813
594 2 2.2208 11.132 3.45285 25.0068
597 1 -1.1104 9.6874 2.02504 23.5549
600 1 -1.1104 9.63607 1.79676 26.3267
602 2 2.2208 8.1071 3.52703 22.1348
442 1 -1.1104 6.65169 4.67012 20.7172
619 1 -1.1104 6.81067 7.85114 23.8312
629 1 -1.1104 6.80484 4.86452 26.5079
621 1 -1.1104 6.8727 7.68254 26.5932
607 1 -1.1104 9.59586 7.7524 23.3927
641 1 -1.1104 12.4279 4.74389 26.3405
648 1 -1.1104 9.55824 4.78403 26.267
650 1 -1.1104 9.56823 4.84313 23.4924
652 1 -1.1104 9.65944 7.46295 26.4122
654 2 2.2208 8.13605 6.28956 24.9941
655 2 2.2208 10.9514 6.26389 22.2405
657 1 -1.1104 12.3586 7.67764 23.6683
658 1 -1.1104 12.48 7.65236 26.4095
659 1 -1.1104 12.4182 4.72391 23.6168
548 1 -1.1104 6.55485 16.2801 26.2639
9366 2 2.2208 -0.45447 3.45761 19.2537
9367 2 2.2208 -0.31381 11.6582 21.9515
520 1 -1.1104 6.65304 18.8271 23.2855
9368 2 2.2208 -0.241303 9.0065 24.8608
617 2 2.2208 5.08171 11.942 22.1223
623 1 -1.1104 1.23215 10.3619 23.4658
626 2 2.2208 5.39657 9.03645 24.9571
628 1 -1.1104 1.01692 10.5745 26.2856
633 2 2.2208 2.45062 11.6591 24.9139
635 2 2.2208 2.63395 8.96495 22.165
637 1 -1.1104 3.96274 10.4454 23.4945
639 1 -1.1104 3.95162 10.4482 26.1749
420 1 -1.1104 3.73764 13.3423 26.2836
458 1 -1.1104 1.00888 13.2088 23.2973
521 1 -1.1104 1.11193 13.2861 26.4514
549 1 -1.1104 3.98595 13.4502 23.4332
575 1 -1.1104 6.55488 13.3461 26.2384
485 2 2.2208 5.15881 14.7926 24.8823
605 1 -1.1104 9.29164 16.1066 23.2773
318 2 2.2208 8.08296 14.692 27.6233
483 1 -1.1104 9.54314 10.4806 20.7879
630 1 -1.1104 6.55651 10.5403 26.2875
625 1 -1.1104 6.75222 10.5857 23.341
640 1 -1.1104 12.2685 10.5561 26.2572
642 2 2.2208 10.9252 9.18209 24.8835
647 1 -1.1104 9.38019 10.4258 26.2974
649 1 -1.1104 9.41143 10.4052 23.4342
651 2 2.2208 7.94915 9.11039 22.166
653 2 2.2208 8.01273 11.872 24.9603
656 2 2.2208 10.8856 11.8534 22.026
660 1 -1.1104 12.3354 10.3881 23.5194
583 1 -1.1104 12.2421 13.2994 26.3818
578 1 -1.1104 12.2758 13.1013 23.5475
484 1 -1.1104 6.66017 13.2502 23.7259
613 1 -1.1104 9.42894 13.0556 23.6382
644 1 -1.1104 9.46094 13.3281 26.4857
646 2 2.2208 7.99221 14.5324 22.0932
615 2 2.2208 7.89178 17.4963 24.7395
486 2 2.2208 5.10875 20.238 24.709
522 1 -1.1104 1.25044 16.0551 26.312
499 1 -1.1104 6.60766 18.7736 20.4948
612 1 -1.1104 12.4222 16.1677 26.1187
585 1 -1.1104 12.2331 16.0572 23.4227
643 1 -1.1104 6.71864 18.9721 26.2452
388 2 2.2208 2.31656 14.6337 22.1143
576 1 -1.1104 3.7429 18.7852 23.5133
519 1 -1.1104 3.98132 16.1011 20.6528
547 1 -1.1104 1.05595 18.8393 26.4676
389 2 2.2208 2.19679 20.3457 22.0576
390 1 -1.1104 3.92195 16.1261 23.5818
415 1 -1.1104 1.0629 16.0196 23.4679
421 1 -1.1104 3.86735 16.0651 26.3753
422 2 2.2208 2.46902 17.5759 25.0018
423 1 -1.1104 3.84928 18.8742 26.2126
457 2 2.2208 5.23067 17.4284 22.2529
459 1 -1.1104 1.09219 18.9696 23.7055
327 2 2.2208 8.09943 6.2168 13.7638
609 2 2.2208 10.965 -5.05539 27.6761
316 2 2.2208 2.39395 0.545675 13.8081
9263 2 2.2208 -0.354125 0.508614 27.7421
340 2 2.2208 8.2555 -2.30595 27.6064
346 2 2.2208 2.47522 9.2024 27.6967
9251 2 2.2208 -0.20147 6.14614 27.658
312 2 2.2208 5.04836 -2.38045 13.8506
331 2 2.2208 5.38519 20.3936 13.7315
311 2 2.2208 -0.314535 -2.28519 13.8845
661 2 2.2208 5.23519 23.0209 5.13729
663 1 -1.1104 1.08501 24.4358 0.952215
664 1 -1.1104 0.969145 24.5298 3.8837
665 1 -1.1104 1.11913 21.7154 1.01858
667 2 2.2208 5.3023 25.8515 2.50262
668 1 -1.1104 1.01908 21.7378 3.88878
670 1 -1.1104 3.73741 24.6523 1.17109
671 2 2.2208 2.52087 23.0082 2.42806
673 1 -1.1104 3.85016 24.37 3.83229
674 2 2.2208 2.41324 25.889 5.18116
675 1 -1.1104 3.8603 21.6715 1.05243
677 1 -1.1104 3.81826 21.4922 3.78539
666 1 -1.1104 0.960152 27.3057 0.937817
669 1 -1.1104 1.20735 27.2363 3.69108
678 1 -1.1104 3.96049 27.0609 3.90264
676 1 -1.1104 3.68489 27.2593 0.865674
805 1 -1.1104 0.873946 27.2597 6.22266
681 2 2.2208 -0.363122 25.8193 2.36003
975 2 2.2208 5.102 37.1817 13.5076
809 1 -1.1104 3.87765 21.7815 6.50086
802 1 -1.1104 1.18571 24.4632 6.64099
804 1 -1.1104 1.13172 21.6184 6.73106
810 1 -1.1104 3.78355 27.1909 6.74291
1308 1 -1.1104 0.930103 46.9018 0.771239
803 1 -1.1104 6.85989 24.4024 6.69208
683 1 -1.1104 6.73773 24.6594 3.75945
682 1 -1.1104 6.58357 24.5182 1.01251
686 1 -1.1104 6.71505 21.8668 3.90261
687 1 -1.1104 6.70709 27.4625 3.80903
684 1 -1.1104 6.52042 21.6851 0.972621
688 2 2.2208 10.832 23.2574 5.10786
690 1 -1.1104 12.1615 24.4507 0.960673
691 1 -1.1104 12.2364 24.7557 3.77956
692 1 -1.1104 12.283 21.7638 0.864565
693 1 -1.1104 12.5481 27.4918 0.868186
694 2 2.2208 11.013 26.0176 2.32475
695 1 -1.1104 12.4041 21.8304 3.76062
697 1 -1.1104 9.50054 24.5702 0.906402
698 2 2.2208 8.02124 23.166 2.39678
700 1 -1.1104 9.42798 24.3133 3.63149
701 2 2.2208 8.14835 25.9058 5.06513
702 1 -1.1104 9.24577 21.683 1.05956
704 1 -1.1104 9.63687 21.7175 3.74068
705 1 -1.1104 9.50733 27.1489 3.85415
703 1 -1.1104 9.59032 27.4197 1.25431
685 1 -1.1104 6.49838 27.2253 0.893338
696 1 -1.1104 12.3023 27.3255 3.77171
836 1 -1.1104 12.2892 21.7439 6.5189
840 1 -1.1104 9.49875 27.2591 6.71458
807 1 -1.1104 6.68196 27.1695 6.64991
837 1 -1.1104 12.358 27.2054 6.56561
1543 3 0 10.8371 46.757 8.67628
958 1 -1.1104 9.50229 41.3036 9.33404
963 2 2.2208 -0.331289 25.9501 7.99817
662 2 2.2208 5.39019 28.6604 5.35108
672 2 2.2208 2.56499 28.5276 2.43344
710 1 -1.1104 1.08167 30.104 0.873973
713 1 -1.1104 1.09468 29.9831 3.69064
716 1 -1.1104 1.05414 32.7242 0.804336
717 2 2.2208 5.39648 31.4248 2.38189
719 1 -1.1104 1.0634 32.7793 3.59624
721 1 -1.1104 4.09391 29.9721 1.10602
724 1 -1.1104 3.92929 29.7824 3.8832
726 2 2.2208 2.66243 31.3612 5.09427
728 1 -1.1104 3.82424 32.7851 0.735742
729 1 -1.1104 3.88009 32.7532 3.73806
733 1 -1.1104 6.92021 29.9598 1.01051
865 1 -1.1104 3.99738 29.9814 6.73483
735 1 -1.1104 6.6078 32.7358 0.979634
867 1 -1.1104 4.035 32.6978 6.56734
859 1 -1.1104 1.04409 29.9701 6.51718
1332 1 -1.1104 3.92101 47.0023 3.89883
689 2 2.2208 11.0087 28.5899 5.24774
699 2 2.2208 8.00313 28.6687 2.48892
720 1 -1.1104 6.68623 32.854 3.74833
734 1 -1.1104 6.8677 30.1951 4.04502
737 1 -1.1104 12.2877 30.0552 1.08486
739 1 -1.1104 12.423 30.0845 3.86074
741 1 -1.1104 12.3227 32.8545 1.0125
742 2 2.2208 11.0294 31.4801 2.30623
744 1 -1.1104 12.2081 32.7826 3.93368
745 1 -1.1104 9.59117 30.2797 0.699725
748 1 -1.1104 9.57595 29.8597 3.67092
750 2 2.2208 8.25402 31.5231 5.17942
752 1 -1.1104 9.48985 33.0304 0.972449
753 1 -1.1104 9.4582 32.9201 3.74203
898 1 -1.1104 9.72771 32.7363 6.61918
895 1 -1.1104 12.5109 32.9542 6.70851
864 1 -1.1104 6.89604 32.9702 6.54656
861 1 -1.1104 6.71965 29.9475 6.83864
1504 1 -1.1104 3.71266 46.8397 6.55482
1361 1 -1.1104 9.51311 46.9024 0.782875
709 2 2.2208 5.3316 34.3233 5.04982
711 1 -1.1104 1.10683 35.5308 0.874418
714 1 -1.1104 0.990174 35.6398 3.60741
718 2 2.2208 5.17876 37.1015 2.20343
722 1 -1.1104 3.77096 35.6058 1.02141
723 2 2.2208 2.4364 34.1689 2.21065
725 1 -1.1104 3.89046 35.5871 3.62568