ITEM: TIMESTEP
20000
ITEM: NUMBER OF ATOMS
17730
ITEM: BOX BOUNDS pp pp pp
-3.6637491256036614e-01 2.7706374912560467e+01
-4.3714207898765558e+00 3.3245142078987470e+02
-3.5795427096194804e-01 2.7697954270962200e+01
ITEM: ATOMS id type q x y z
1 2 2.2208 5.30763 1.11165 5.22267
2 1 -1.1104 0.99546 -3.01915 1.0637
3 1 -1.1104 1.04185 2.46516 0.936637
6 1 -1.1104 1.10929 -3.05132 3.83964
7 1 -1.1104 1.05252 2.65008 3.7308
10 1 -1.1104 0.739955 -0.193269 1.19594
12 2 2.2208 5.12358 -1.6751 2.30245
13 2 2.2208 5.09507 3.95058 2.45904
14 1 -1.1104 0.938084 -0.283913 3.95853
16 1 -1.1104 3.78551 -3.00181 1.02263
17 1 -1.1104 3.74897 2.42473 1.08867
18 2 2.2208 2.44605 1.15023 2.51143
19 1 -1.1104 3.97444 -3.08227 3.87157
20 1 -1.1104 3.70408 2.64311 3.88041
21 2 2.2208 2.55745 -1.73076 5.12012
22 2 2.2208 2.32423 4.01222 5.20795
23 1 -1.1104 3.54284 -0.213345 1.06817
24 1 -1.1104 3.75988 -0.22683 3.72572
165 2 2.2208 13.7157 18.0536 2.55226
174 1 -1.1104 3.85285 -0.213561 6.69245
167 1 -1.1104 1.01322 2.6936 6.62449
27 2 2.2208 -0.341702 3.91398 2.40544
166 1 -1.1104 1.09632 -2.95706 6.57843
9 1 -1.1104 6.45601 2.56002 3.72192
371 2 2.2208 8.04949 18.0202 13.568
339 2 2.2208 13.6009 6.70186 8.09929
26 2 2.2208 -0.486454 1.13568 5.19524
365 2 2.2208 5.17629 15.1435 13.6494
345 2 2.2208 13.7186 20.7471 11.0404
11 1 -1.1104 6.55583 -0.368082 1.13676
15 1 -1.1104 6.51419 -0.212153 3.98857
8 1 -1.1104 6.78149 -2.97305 3.65986
4 1 -1.1104 6.61935 -3.10421 1.0719
5 1 -1.1104 6.40348 2.5279 0.923398
31 2 2.2208 10.73 1.23845 5.27058
32 1 -1.1104 12.1584 -3.12161 1.19678
33 1 -1.1104 12.1349 2.66625 1.03957
34 1 -1.1104 12.3028 -3.10477 3.83421
35 1 -1.1104 12.2375 2.67278 3.82724
36 1 -1.1104 12.2785 -0.163024 1.14585
37 2 2.2208 10.7871 -1.54924 2.45219
39 1 -1.1104 12.0584 -0.0387477 3.76546
40 1 -1.1104 9.41198 -3.05378 0.951565
41 1 -1.1104 9.23299 2.5887 1.03767
42 2 2.2208 7.84811 1.16051 2.53766
43 1 -1.1104 9.48749 -3.11809 3.85848
44 1 -1.1104 9.36629 2.53788 3.92911
45 2 2.2208 8.01649 -1.83762 5.23616
46 2 2.2208 8.04031 3.9734 5.23952
47 1 -1.1104 9.45545 -0.116699 0.974562
48 1 -1.1104 9.24668 -0.354673 3.78023
38 2 2.2208 10.6623 3.95387 2.43688
168 1 -1.1104 6.58823 -3.03239 6.55011
208 1 -1.1104 9.43062 -3.14604 6.64711
210 1 -1.1104 9.51485 -0.421546 6.62147
209 1 -1.1104 9.39865 2.48919 6.74578
28 2 2.2208 2.38275 -4.59142 2.53346
230 2 2.2208 13.6785 -1.70279 10.7666
82 2 2.2208 -0.527065 9.63777 2.51077
332 2 2.2208 13.6892 18.0295 8.02776
54 2 2.2208 5.21746 6.79624 5.20514
55 2 2.2208 5.24348 12.4135 5.07269
56 1 -1.1104 0.976377 8.21048 1.0307
58 1 -1.1104 1.06902 8.18466 3.89275
60 1 -1.1104 1.03896 5.39563 1.1941
61 1 -1.1104 0.997324 10.9853 1.11905
66 2 2.2208 5.26368 9.58564 2.43738
67 1 -1.1104 0.944779 5.47515 3.90732
68 1 -1.1104 0.942546 10.9697 3.93801
71 1 -1.1104 3.86044 8.07479 1.1094
72 2 2.2208 2.44642 6.8544 2.50117
73 2 2.2208 2.47654 12.333 2.38519
74 1 -1.1104 3.86665 8.26374 3.82434
75 2 2.2208 2.44629 9.62087 5.2707
76 1 -1.1104 3.77476 5.25907 1.09202
77 1 -1.1104 3.91395 10.962 1.16566
79 1 -1.1104 3.83631 5.44126 3.84439
80 1 -1.1104 3.78784 11.0294 3.93758
62 1 -1.1104 0.959985 10.9777 6.73487
313 2 2.2208 -0.370617 15.3336 7.91966
78 1 -1.1104 3.88946 10.9898 6.72637
239 1 -1.1104 3.84286 5.42502 6.58382
236 1 -1.1104 0.996546 5.48806 6.6509
234 1 -1.1104 1.03162 8.22193 6.67857
63 1 -1.1104 6.68294 5.40894 1.0363
238 1 -1.1104 3.77858 8.21778 6.57198
64 1 -1.1104 6.85889 10.8573 1.02977
57 1 -1.1104 6.69551 8.29606 1.08763
59 1 -1.1104 6.7383 8.17491 3.88273
69 1 -1.1104 6.48913 5.41034 3.77204
70 1 -1.1104 6.60508 10.8646 3.84844
84 2 2.2208 10.8927 6.82022 5.2076
85 2 2.2208 10.9799 12.4628 5.21392
86 1 -1.1104 12.3928 8.26941 1.08369
87 1 -1.1104 12.3749 8.18625 3.98025
88 1 -1.1104 12.2962 5.50612 0.917132
89 1 -1.1104 12.3024 11.0707 1.2004
91 2 2.2208 10.9723 9.66316 2.4417
92 1 -1.1104 12.1792 5.51303 3.78101
93 1 -1.1104 12.1324 11.1078 3.84359
94 1 -1.1104 9.44091 8.10098 1.06746
95 2 2.2208 8.07194 6.86873 2.42469
96 2 2.2208 8.2367 12.313 2.35489
97 1 -1.1104 9.60767 8.08244 3.93129
98 2 2.2208 8.02125 9.61933 5.21331
99 1 -1.1104 9.34617 5.31605 0.92275
100 1 -1.1104 9.55341 10.9172 1.00818
102 1 -1.1104 9.32342 5.40047 3.80674
103 1 -1.1104 9.50552 10.9064 3.8856
266 1 -1.1104 12.2067 5.35274 6.58926
265 1 -1.1104 12.2756 8.2054 6.71783
90 1 -1.1104 12.1819 11.0236 6.54831
101 1 -1.1104 9.33032 10.8737 6.71218
269 1 -1.1104 9.37414 5.24427 6.92933
235 1 -1.1104 6.53582 8.15167 6.66682
65 1 -1.1104 6.56483 11.1572 6.57504
267 1 -1.1104 9.3514 8.08759 6.74356
237 1 -1.1104 6.62565 5.4214 6.53591
49 2 2.2208 13.5491 1.31236 2.458
288 1 -1.1104 6.69968 19.4442 9.39591
106 2 2.2208 5.19206 18.0786 5.17549
107 1 -1.1104 1.07688 13.7645 1.12648
109 1 -1.1104 1.09727 19.3653 1.06234
113 1 -1.1104 1.16611 13.7487 3.82393
114 1 -1.1104 1.19211 19.582 3.68585
116 1 -1.1104 1.06283 16.5083 1.09566
119 2 2.2208 5.28391 15.1534 2.40178
120 2 2.2208 5.13188 20.917 2.4815
121 1 -1.1104 0.979624 16.6485 3.82552
123 1 -1.1104 3.92917 13.7418 0.805336
125 1 -1.1104 3.92029 19.2651 1.04769
127 2 2.2208 2.45419 18.0633 2.40169
128 1 -1.1104 3.92361 13.8771 3.64012
129 1 -1.1104 3.90373 19.4327 3.66045
130 2 2.2208 2.54339 15.2173 5.11203
131 2 2.2208 2.45716 20.8338 5.12601
132 1 -1.1104 3.95038 16.4827 0.96208
134 1 -1.1104 3.8707 16.7153 3.85824
124 1 -1.1104 3.86639 13.8802 6.45152
133 1 -1.1104 3.8952 16.7051 6.52565
117 1 -1.1104 1.12836 16.6169 6.69251
110 1 -1.1104 6.79718 13.6939 0.927375
126 1 -1.1104 3.89545 19.3474 6.54709
108 1 -1.1104 1.01356 13.8794 6.54857
358 2 2.2208 -0.371279 9.59715 13.6701
115 1 -1.1104 6.73647 13.9087 3.79407
138 1 -1.1104 6.6355 19.3772 1.03102
140 1 -1.1104 6.67261 16.4907 1.02736
139 1 -1.1104 6.53477 19.4959 3.83633
122 1 -1.1104 6.59554 16.7025 3.67812
141 2 2.2208 10.8171 18.0303 5.30656
142 1 -1.1104 12.2988 13.7973 0.977089
144 1 -1.1104 12.2388 19.48 1.06099
146 1 -1.1104 12.428 13.816 3.79773
147 1 -1.1104 12.3892 19.5593 3.97865
148 1 -1.1104 12.4671 16.7269 1.02405
150 2 2.2208 10.8382 15.2656 2.52884
151 2 2.2208 10.8544 20.9292 2.54962
152 1 -1.1104 12.2835 16.6894 3.99032
153 1 -1.1104 9.51693 13.8426 1.01013
155 1 -1.1104 9.45544 19.3945 1.20799
157 2 2.2208 8.06375 18.0061 2.47629
158 1 -1.1104 9.58394 13.7464 3.75315
159 1 -1.1104 9.4544 19.3816 3.839
160 2 2.2208 8.06402 15.2979 5.16999
161 2 2.2208 8.13012 20.9349 5.24674
162 1 -1.1104 9.50288 16.6742 0.925262
164 1 -1.1104 9.54045 16.5049 3.80062
143 1 -1.1104 12.3942 13.8623 6.67763
149 1 -1.1104 12.3093 16.5382 6.63807
111 1 -1.1104 6.75449 13.9345 6.63856
156 1 -1.1104 9.45902 19.3646 6.5753
154 1 -1.1104 9.58053 13.7371 6.61289
163 1 -1.1104 9.45121 16.4987 6.69413
170 1 -1.1104 1.1461 -0.227633 6.68973
173 1 -1.1104 3.82043 2.663 6.58877
172 1 -1.1104 3.84033 -3.17141 6.66742
348 2 2.2208 2.42251 1.23482 13.7095
319 1 -1.1104 9.51533 13.8059 9.43496
323 1 -1.1104 12.1667 16.5453 9.44931
326 1 -1.1104 12.2564 16.6353 12.2461
175 2 2.2208 5.39802 1.23301 10.9126
176 1 -1.1104 1.13267 -2.89117 12.3072
177 1 -1.1104 1.10099 2.61051 12.3307
180 1 -1.1104 1.03851 -3.00973 9.39729
181 1 -1.1104 1.06309 2.55042 9.47852
184 1 -1.1104 1.06663 -0.114023 12.33
186 2 2.2208 5.19554 -1.62905 8.11325
187 2 2.2208 5.24102 4.00219 8.05894
188 1 -1.1104 1.12587 -0.223255 9.4275
190 1 -1.1104 3.81731 -2.93351 12.2534
191 1 -1.1104 3.93577 2.57522 12.172
192 2 2.2208 2.47132 1.21655 7.98047
193 1 -1.1104 3.74606 -3.15102 9.44955
194 1 -1.1104 3.89442 2.55743 9.46104
195 2 2.2208 2.57256 -1.63817 10.8383
196 2 2.2208 2.46038 3.92302 10.7473
197 1 -1.1104 3.8913 -0.229981 12.2346
198 1 -1.1104 3.97039 -0.176767 9.49324
330 1 -1.1104 12.2651 13.766 12.1022
178 1 -1.1104 6.49124 -3.03123 12.2128
200 2 2.2208 -0.266391 -1.60331 8.13006
201 2 2.2208 -0.294497 1.19383 10.8816
25 2 2.2208 -0.467434 -1.66074 2.43705
344 2 2.2208 -0.231887 6.88351 10.9242
206 1 -1.1104 12.3133 2.65506 6.47712
207 1 -1.1104 12.1632 -0.179636 6.57595
169 1 -1.1104 6.70907 2.58459 6.52913
135 2 2.2208 -0.351249 15.2077 2.50356
229 2 2.2208 13.5898 1.22657 8.06606
312 2 2.2208 -0.248394 18.0775 10.7493
183 1 -1.1104 6.61915 2.61812 9.38898
205 1 -1.1104 12.1106 -3.03035 6.64058
179 1 -1.1104 6.78362 2.5558 12.2422
171 1 -1.1104 6.7002 -0.342644 6.62947
185 1 -1.1104 6.77562 -0.180633 12.2131
182 1 -1.1104 6.57054 -3.07877 9.39608
189 1 -1.1104 6.61072 -0.422433 9.47146
211 2 2.2208 10.8467 1.15335 10.8771
212 1 -1.1104 12.1268 -3.03314 12.34
213 1 -1.1104 12.2788 2.65949 12.2445
214 1 -1.1104 12.1373 -3.06115 9.59945
215 1 -1.1104 12.2215 2.64542 9.39704
216 1 -1.1104 12.3452 -0.182494 12.2779
217 2 2.2208 10.7102 -1.63801 8.07432
218 2 2.2208 10.8217 3.92431 8.06816
219 1 -1.1104 12.0746 -0.348617 9.43353
220 1 -1.1104 9.35698 -3.09741 12.2203
221 1 -1.1104 9.57294 2.48535 12.2957
222 2 2.2208 8.03933 1.09568 8.0621
223 1 -1.1104 9.36619 -2.98319 9.40967
224 1 -1.1104 9.26829 2.4127 9.4926
225 2 2.2208 8.04529 -1.6329 10.9069
226 2 2.2208 8.05829 3.91477 10.8329
227 1 -1.1104 9.55648 -0.275259 12.3004
228 1 -1.1104 9.3257 -0.213178 9.41768
347 2 2.2208 5.23672 -1.71129 13.5269
322 1 -1.1104 9.6724 13.6712 12.4214
334 2 2.2208 13.7056 4.06563 5.3308
240 2 2.2208 5.34572 6.7847 10.8731
241 2 2.2208 5.30664 12.3825 10.8572
242 1 -1.1104 1.08666 8.00567 12.2822
244 1 -1.1104 1.05725 8.30652 9.42254
246 1 -1.1104 1.182 5.35385 12.4005
247 1 -1.1104 1.10076 10.9725 12.326
250 2 2.2208 5.21158 9.50936 8.03252
251 1 -1.1104 0.95654 5.44558 9.50861
252 1 -1.1104 1.0935 11.0337 9.57017
255 1 -1.1104 3.86523 8.23569 12.3341
256 2 2.2208 2.37319 6.91384 8.01705
257 2 2.2208 2.41339 12.5477 7.95499
258 1 -1.1104 3.88158 8.05011 9.56718
259 2 2.2208 2.52731 9.57662 10.8536
260 1 -1.1104 4.09228 5.34617 12.2003
261 1 -1.1104 3.99914 11.1662 12.2342
262 1 -1.1104 3.86246 5.32521 9.35854
263 1 -1.1104 3.83342 10.915 9.39056
342 2 2.2208 -0.3939 12.4456 10.7927
253 1 -1.1104 6.72645 5.30252 9.42023
296 1 -1.1104 6.50029 19.3913 12.2558
359 2 2.2208 8.32221 6.67893 13.7438
311 2 2.2208 -0.359494 20.8427 7.93287
245 1 -1.1104 6.81296 8.22398 9.33485
248 1 -1.1104 6.86989 5.26614 12.3181
249 1 -1.1104 6.5274 10.762 12.2542
243 1 -1.1104 6.73711 8.03342 12.1607
254 1 -1.1104 6.68034 10.9523 9.44111
280 1 -1.1104 12.3855 5.33256 12.4021
279 1 -1.1104 12.3681 8.15366 9.39898
278 1 -1.1104 12.3536 8.05122 12.3386
277 2 2.2208 10.8834 12.3031 10.7911
276 2 2.2208 10.9175 6.6977 11.0357
284 1 -1.1104 12.2492 11.0684 9.4515
275 2 2.2208 8.11196 6.65064 8.00373
283 1 -1.1104 12.2243 5.39812 9.41649
281 1 -1.1104 12.1365 10.9497 12.1549
285 1 -1.1104 9.71462 8.07862 12.2498
282 2 2.2208 11.0019 9.55074 8.0366
264 1 -1.1104 9.53855 10.8608 9.45795
268 1 -1.1104 9.50269 5.2632 9.61687
270 1 -1.1104 9.37768 10.8181 12.2739
271 1 -1.1104 9.47467 5.3678 12.3368
272 2 2.2208 8.092 9.51208 10.801
273 1 -1.1104 9.65156 8.03081 9.46627
274 2 2.2208 8.01048 12.3837 7.89632
367 2 2.2208 -0.259546 4.12188 13.7467
289 1 -1.1104 6.67685 16.5705 9.40701
302 1 -1.1104 1.14127 19.2676 6.48556
297 1 -1.1104 6.74598 13.7587 12.2076
118 1 -1.1104 6.77045 16.7784 6.52491
325 2 2.2208 10.8475 15.2631 8.05246
50 2 2.2208 13.5049 -1.63982 5.18241
310 2 2.2208 2.47841 15.2328 10.7116
309 2 2.2208 2.4979 20.8273 10.7253
308 1 -1.1104 3.91026 16.7539 12.2873
307 1 -1.1104 1.04262 16.6565 12.1161
291 1 -1.1104 1.13196 19.4479 9.39092
286 1 -1.1104 3.90408 19.5537 12.1799
305 1 -1.1104 3.86982 13.8687 9.26981
304 1 -1.1104 3.92944 16.5761 9.42481
292 1 -1.1104 1.0189 16.614 9.39355
303 2 2.2208 2.5429 18.014 8.03387
301 1 -1.1104 3.88763 19.4706 9.43655
300 2 2.2208 5.23531 17.9716 10.7694
293 2 2.2208 5.31626 20.8626 8.12954
299 1 -1.1104 1.02609 13.7579 12.1869
298 1 -1.1104 1.14808 19.4941 12.2695
287 1 -1.1104 3.72537 13.8784 12.2388
295 2 2.2208 5.23653 15.208 8.0227
294 1 -1.1104 1.01796 13.8497 9.49716
290 1 -1.1104 6.58798 13.8171 9.55908
318 1 -1.1104 9.53767 19.4036 9.45049
328 1 -1.1104 12.1982 13.7697 9.42375
321 1 -1.1104 9.33603 19.4841 12.3117
331 2 2.2208 10.8971 18.0255 10.9663
317 2 2.2208 8.19821 15.2112 10.9121
314 1 -1.1104 9.47165 16.702 9.49737
320 2 2.2208 8.09481 18.1406 8.13222
316 2 2.2208 8.04346 20.8764 10.9149
145 1 -1.1104 12.2223 19.5297 6.69264
112 1 -1.1104 6.55365 19.5448 6.57851
324 2 2.2208 10.9633 20.8756 8.10874
306 1 -1.1104 6.64497 16.622 12.1939
327 1 -1.1104 12.3794 19.2128 9.6526
315 1 -1.1104 9.48627 16.6178 12.4053
329 1 -1.1104 12.1522 19.4221 12.3153
355 2 2.2208 2.59739 6.77504 13.7248
381 2 2.2208 -0.460402 1.20205 -0.283571
384 2 2.2208 8.05319 4.05141 -0.350835
385 2 2.2208 13.6895 -1.56792 -0.313224
351 2 2.2208 -0.273447 15.3367 13.5479
383 2 2.2208 8.02486 -1.52513 -0.352069
364 2 2.2208 5.1652 20.9568 13.564
391 2 2.2208 -0.394182 6.78564 -0.284739
374 2 2.2208 13.8224 15.3082 -0.320543
397 2 2.2208 5.28255 17.9684 -0.365632
363 2 2.2208 2.57235 18.1318 13.605
400 2 2.2208 5.2494 1.04127 16.342
401 1 -1.1104 1.06152 -3.11554 17.9432
402 1 -1.1104 0.966561 2.50229 17.8871
405 1 -1.1104 0.900168 -2.96423 15.1568
407 1 -1.1104 1.03671 2.57663 15.1673
413 1 -1.1104 0.961122 -0.372788 17.7907
415 2 2.2208 5.21021 -1.59124 19.185
416 2 2.2208 5.05353 4.03421 19.2448
417 1 -1.1104 1.1132 -0.125557 15.0561
421 1 -1.1104 3.79723 -3.0083 17.9151
422 1 -1.1104 3.88405 2.59663 17.8188
423 2 2.2208 2.4024 1.20077 19.1858
424 1 -1.1104 3.80474 -3.08308 15.1147
426 1 -1.1104 3.90001 2.40853 15.1096
428 2 2.2208 2.38091 -1.67861 16.4328
429 2 2.2208 2.52074 3.94666 16.4802
430 1 -1.1104 3.67071 -0.169312 17.7878
431 1 -1.1104 3.87157 -0.399586 15.1492
632 2 2.2208 5.1407 -4.45717 27.5247
437 2 2.2208 -0.321196 -1.64674 19.2879
425 1 -1.1104 3.95224 -2.94717 20.7838
427 1 -1.1104 3.59359 2.558 20.7004
378 2 2.2208 10.9506 18.0945 27.657
633 2 2.2208 5.25164 -4.42551 22.1346
406 1 -1.1104 0.954464 -3.07751 20.6378
627 2 2.2208 13.7302 20.8371 22.0937
636 2 2.2208 -0.385281 -1.59367 24.9561
630 2 2.2208 -0.469195 -4.44484 27.6423
411 1 -1.1104 6.55192 2.45509 14.9845
403 1 -1.1104 6.44918 -2.95004 17.8337
409 1 -1.1104 6.73122 -3.14136 15.1057
419 1 -1.1104 6.75435 -0.31944 14.9796
414 1 -1.1104 6.79781 -0.1894 17.8843
404 1 -1.1104 6.63539 2.6031 17.7493
443 2 2.2208 10.9007 1.14384 16.5673
444 1 -1.1104 12.3903 -2.99622 17.9078
445 1 -1.1104 12.1358 2.57441 17.7884
446 1 -1.1104 12.3954 -2.96667 15.1389
448 1 -1.1104 12.2061 2.57028 15.0935
450 1 -1.1104 12.1892 -0.171797 18.0773
451 2 2.2208 10.8508 -1.56596 19.3943
452 2 2.2208 10.8375 3.9846 19.1521
453 1 -1.1104 12.4246 -0.205036 15.058
455 1 -1.1104 9.50043 -2.93677 17.879
456 1 -1.1104 9.44629 2.71824 17.7774
457 2 2.2208 7.96883 1.28612 19.4248
458 1 -1.1104 9.4819 -2.88288 14.8915
460 1 -1.1104 9.37812 2.6601 14.9755
462 2 2.2208 8.14926 -1.64131 16.5034
464 1 -1.1104 9.47209 -0.14602 18.0332
465 1 -1.1104 9.63179 -0.181259 15.1524
459 1 -1.1104 9.39435 -2.93439 20.6017
463 2 2.2208 8.01068 3.97523 16.4629
454 1 -1.1104 12.2987 -0.203533 20.9311
447 1 -1.1104 12.2375 -2.92797 20.5911
461 1 -1.1104 9.43475 2.74384 20.7734
442 2 2.2208 -0.285147 17.9437 16.4395
395 2 2.2208 13.6348 9.65131 27.529
476 2 2.2208 5.3874 6.78896 16.5177
477 2 2.2208 5.26284 12.4162 16.5791
478 1 -1.1104 1.07123 8.1769 17.8718
480 1 -1.1104 1.16785 8.23262 15.0638
484 1 -1.1104 1.10571 5.32292 17.9262
485 1 -1.1104 0.800444 10.9617 17.778
488 2 2.2208 5.16213 9.52283 19.1646
489 1 -1.1104 1.03035 5.42174 15.2108
491 1 -1.1104 1.07946 11.0242 15.004
497 1 -1.1104 3.90719 8.19023 17.7426
498 2 2.2208 2.4614 6.90202 19.2995
499 2 2.2208 2.40117 12.4311 19.2949
500 1 -1.1104 4.01003 8.10752 15.0068
502 2 2.2208 2.48213 9.66762 16.4041
503 1 -1.1104 3.91756 5.42282 17.902
504 1 -1.1104 3.63494 10.9697 17.8946
505 1 -1.1104 3.93653 5.3649 15.0094
507 1 -1.1104 3.82625 10.8785 14.9945
696 2 2.2208 -0.32107 9.7094 24.8225
536 2 2.2208 -0.332886 9.56472 19.1975
501 1 -1.1104 3.82408 8.30119 20.6916
490 1 -1.1104 1.08912 5.45205 20.4525
492 1 -1.1104 0.967462 11.1165 20.7189
481 1 -1.1104 1.04871 8.24902 20.7074
487 1 -1.1104 6.42898 10.8293 17.8657
486 1 -1.1104 6.57426 5.38744 17.9319
479 1 -1.1104 6.65807 8.11613 17.9512
482 1 -1.1104 6.85309 8.14908 14.9463
493 1 -1.1104 6.75987 5.29478 15.0333
495 1 -1.1104 6.66627 11.1774 15.1153
512 2 2.2208 10.8421 6.86777 16.5859
513 2 2.2208 10.8665 12.4066 16.5249
514 1 -1.1104 12.3622 8.20993 17.8035
515 1 -1.1104 12.3121 8.34496 15.131
517 1 -1.1104 12.2051 5.47499 17.8471
518 1 -1.1104 12.3053 11.0674 17.9063
519 2 2.2208 10.8381 9.59062 19.335
520 1 -1.1104 12.2833 5.38775 15.0744
522 1 -1.1104 12.3973 11.0053 15.0438
524 1 -1.1104 9.43425 8.24536 17.8966
525 2 2.2208 8.05433 6.69877 19.3378
526 2 2.2208 8.02929 12.3618 19.1879
527 1 -1.1104 9.5257 8.28087 15.2211
529 2 2.2208 8.0214 9.59137 16.5208
530 1 -1.1104 9.32011 5.50239 17.8379
531 1 -1.1104 9.53603 10.9934 17.7942
532 1 -1.1104 9.4732 5.46752 15.2212
534 1 -1.1104 9.69087 10.9439 15.0981
528 1 -1.1104 9.45583 8.31788 20.6839
535 1 -1.1104 9.41363 11.0426 20.6057
523 1 -1.1104 12.2561 11.1019 20.6517
496 1 -1.1104 6.6635 11.0422 20.505
494 1 -1.1104 6.63116 5.36827 20.716
516 1 -1.1104 12.1792 8.23435 20.6439
521 1 -1.1104 12.2427 5.3619 20.5692
533 1 -1.1104 9.44459 5.49153 20.5715
662 2 2.2208 10.7981 -4.48783 22.1995
387 2 2.2208 5.5126 6.84982 27.7208
539 2 2.2208 5.27519 18.1253 16.3337
540 1 -1.1104 1.08597 13.8541 17.8924
541 1 -1.1104 1.10192 19.4141 17.9526
544 1 -1.1104 0.882009 13.9275 15.0293
546 1 -1.1104 1.11827 19.3999 15.1455
552 1 -1.1104 0.898882 16.4998 17.8598
554 2 2.2208 5.21989 15.2565 19.2751
555 2 2.2208 5.15391 20.8074 19.212
556 1 -1.1104 1.02837 16.7345 14.936
560 1 -1.1104 3.89619 13.7536 17.8554
561 1 -1.1104 3.86102 19.4915 17.8427
562 2 2.2208 2.47907 18.1181 19.2186
563 1 -1.1104 3.70473 13.841 15.1173
565 1 -1.1104 3.95787 19.4827 15.0112
567 2 2.2208 2.49454 15.3695 16.4858
568 2 2.2208 2.41631 20.915 16.4628
569 1 -1.1104 3.85694 16.7004 17.8575
570 1 -1.1104 3.91447 16.6902 14.9886
558 1 -1.1104 6.81349 16.5646 15.0663
571 1 -1.1104 3.89946 16.8 20.6313
564 1 -1.1104 3.61568 13.9313 20.6977
545 1 -1.1104 0.925891 13.968 20.7328
566 1 -1.1104 3.72155 19.4385 20.7012
559 1 -1.1104 6.56758 16.7992 20.6473
548 1 -1.1104 6.60288 13.7336 14.8619
598 1 -1.1104 9.48008 16.706 20.7991
553 1 -1.1104 6.72469 16.5833 17.9373
542 1 -1.1104 6.74475 13.6292 17.7576
550 1 -1.1104 6.69488 19.5615 15.0879
543 1 -1.1104 6.43127 19.3996 17.9464
575 2 2.2208 10.7828 18.1072 16.5424
576 1 -1.1104 12.3923 13.8534 17.9304
577 1 -1.1104 12.3047 19.4002 17.7905
578 1 -1.1104 12.3378 13.8273 15.1343
580 1 -1.1104 11.9984 19.447 15.0316
582 1 -1.1104 12.3644 16.6315 17.7847
583 2 2.2208 10.9059 15.3227 19.3028
584 2 2.2208 10.8637 20.9141 19.2707
585 1 -1.1104 12.426 16.6599 15.0143
587 1 -1.1104 9.5415 13.8855 17.8886
588 1 -1.1104 9.41404 19.4838 17.9004
589 2 2.2208 8.0358 18.0828 19.212
590 1 -1.1104 9.35945 13.9403 15.1439
592 1 -1.1104 9.37097 19.4137 15.083
594 2 2.2208 8.1207 15.2561 16.6534
595 2 2.2208 8.08157 20.9701 16.4495
596 1 -1.1104 9.46564 16.6257 17.9945
597 1 -1.1104 9.43347 16.7345 15.3354
581 1 -1.1104 12.287 19.5226 20.6038
586 1 -1.1104 12.4141 16.6459 20.5147
579 1 -1.1104 12.1948 13.8131 20.7448
591 1 -1.1104 9.47617 13.8145 20.5726
551 1 -1.1104 6.80756 19.4698 20.6392
432 1 -1.1104 3.77246 -0.300991 20.6614
418 1 -1.1104 0.966475 -0.236652 20.8247
408 1 -1.1104 0.952582 2.58367 20.6938
420 1 -1.1104 6.60602 -0.139364 20.6251
380 2 2.2208 2.45393 3.99892 27.7584
469 2 2.2208 8.08247 -4.32135 19.3551
603 2 2.2208 5.09156 1.10414 22.1122
604 1 -1.1104 1.04854 -3.04553 23.4533
605 1 -1.1104 1.01857 2.58502 23.5208
608 1 -1.1104 1.0609 -3.20436 26.3296
609 1 -1.1104 1.01288 2.60766 26.3231
612 1 -1.1104 1.07718 -0.234228 23.4793
614 2 2.2208 5.24281 -1.54352 24.8434
615 2 2.2208 5.33584 4.07764 24.8368
616 1 -1.1104 0.983746 -0.39701 26.3312
618 1 -1.1104 3.9206 -3.04099 23.5692
619 1 -1.1104 3.92649 2.66661 23.446
620 2 2.2208 2.33658 1.32312 24.9499
621 1 -1.1104 3.80184 -2.96069 26.3988
622 1 -1.1104 3.82714 2.73871 26.3254
623 2 2.2208 2.30341 -1.73334 22.05
625 1 -1.1104 3.77031 -0.156114 23.5691
626 1 -1.1104 3.70608 -0.253964 26.3211
624 2 2.2208 2.38064 4.05293 22.0837
376 2 2.2208 2.35932 -1.6729 27.7699
438 2 2.2208 -0.35618 6.86727 22.0256
392 2 2.2208 10.9167 6.80517 27.6861
602 2 2.2208 13.6282 17.9835 24.6752
510 2 2.2208 13.7924 15.1973 16.3666
388 2 2.2208 2.43507 9.5738 27.7913
398 2 2.2208 2.45555 15.188 27.7209
410 1 -1.1104 6.73902 -2.86112 20.5758
466 1 -1.1104 9.52844 -0.0676531 20.8193
412 1 -1.1104 6.45677 2.64959 20.663
449 1 -1.1104 12.2237 2.57621 20.4949
629 1 -1.1104 12.3062 13.7923 23.4721
611 1 -1.1104 6.6488 2.56802 26.1164
607 1 -1.1104 6.78324 2.71272 23.5039
610 1 -1.1104 6.55407 -3.12829 26.4033
613 1 -1.1104 6.70086 -0.123714 23.4783
606 1 -1.1104 6.64237 -2.87559 23.5256
617 1 -1.1104 6.56244 -0.149173 26.3944
639 2 2.2208 10.9977 1.29302 22.0248
640 1 -1.1104 12.2758 -3.00204 23.6124
641 1 -1.1104 12.387 2.55584 23.3827
642 1 -1.1104 12.2433 -2.85872 26.4523
643 1 -1.1104 12.1872 2.6738 26.2914
644 1 -1.1104 12.4149 -0.331123 23.674
645 2 2.2208 10.8637 -1.67519 24.8599
646 2 2.2208 10.9882 4.12733 24.9066
647 1 -1.1104 12.3483 -0.196214 26.5009
648 1 -1.1104 9.38964 -3.00203 23.4479
649 1 -1.1104 9.62093 2.73762 23.4263
650 2 2.2208 8.1037 1.2479 24.8156
651 1 -1.1104 9.50369 -2.95723 26.1849
652 1 -1.1104 9.52439 2.71306 26.145
653 2 2.2208 8.01392 -1.45031 22.0177
655 1 -1.1104 9.5969 -0.191855 23.4193
656 1 -1.1104 9.51605 -0.169869 26.222
654 2 2.2208 8.11515 4.07098 22.0756
379 2 2.2208 8.11132 20.8862 27.8433
717 1 -1.1104 9.27192 13.7803 26.2673
572 2 2.2208 13.6977 6.80374 19.2642
508 1 -1.1104 3.90503 11.0522 20.6511
483 1 -1.1104 6.69146 8.19512 20.8971
600 2 2.2208 13.7075 3.97245 16.4738
718 1 -1.1104 9.4756 19.558 26.3861
659 1 -1.1104 12.3147 16.5108 23.377
506 1 -1.1104 3.86778 5.53401 20.6731
668 2 2.2208 5.28684 6.9791 22.1316
669 2 2.2208 5.19309 12.4779 21.941
670 1 -1.1104 1.12163 8.31999 23.3898
672 1 -1.1104 1.02489 8.20366 26.2684
674 1 -1.1104 1.05266 5.45767 23.5001
675 1 -1.1104 1.08132 11.1676 23.3963
678 2 2.2208 5.19382 9.70294 24.9536
679 1 -1.1104 1.00738 5.39748 26.3747
680 1 -1.1104 1.23804 11.1079 26.1777
683 1 -1.1104 3.84416 8.23894 23.5709
684 2 2.2208 2.45803 6.86741 24.9747
685 2 2.2208 2.53015 12.5815 24.8134
686 1 -1.1104 3.84282 8.21879 26.3098
687 2 2.2208 2.53279 9.65452 22.1336
688 1 -1.1104 3.91055 5.47204 23.5209
689 1 -1.1104 3.78912 11.0633 23.4148
690 1 -1.1104 3.79214 5.46823 26.2739
691 1 -1.1104 3.90028 11.0274 26.4585
389 2 2.2208 5.28554 12.4699 27.6468
377 2 2.2208 8.05163 15.1515 27.6547
749 2 2.2208 -0.455209 15.2752 24.8767
676 1 -1.1104 6.81577 5.4464 23.4009
726 1 -1.1104 6.71201 16.5535 26.1404
695 2 2.2208 8.07679 18.0666 24.9493
664 2 2.2208 11.0136 15.2434 24.969
730 1 -1.1104 6.70141 19.5001 23.4323
682 1 -1.1104 6.65287 11.0371 26.2412
677 1 -1.1104 6.61031 11.1061 23.3614
681 1 -1.1104 6.75808 5.43293 26.2155
671 1 -1.1104 6.5052 8.40225 23.5647
673 1 -1.1104 6.64578 8.10249 26.3173
699 1 -1.1104 9.4262 10.9224 26.2384
700 1 -1.1104 9.54751 5.41945 26.3259
701 1 -1.1104 9.60554 11.1129 23.3339
702 1 -1.1104 9.46156 5.64026 23.4654
703 2 2.2208 7.95886 9.80442 22.0143
704 1 -1.1104 9.5335 8.25536 26.3462
705 2 2.2208 8.00974 12.4945 24.7867
706 2 2.2208 8.02449 6.95434 24.8346
707 2 2.2208 10.816 6.89559 22.0577
708 2 2.2208 10.8747 12.5194 22.0601
709 1 -1.1104 12.183 8.19039 23.4879
710 1 -1.1104 12.3237 8.26795 26.1438
711 1 -1.1104 12.2561 5.4176 23.3274
712 1 -1.1104 12.2337 10.9931 23.4487
713 2 2.2208 10.7761 9.67583 24.7606
714 1 -1.1104 12.327 5.44004 26.2628
715 1 -1.1104 12.2482 11.1237 26.2492
716 1 -1.1104 9.30237 8.34262 23.4711
394 2 2.2208 10.8467 12.4158 27.7122
557 1 -1.1104 1.13088 16.7935 20.6333
724 1 -1.1104 6.69648 13.8688 26.158
635 1 -1.1104 12.3226 19.3461 23.26
547 1 -1.1104 0.918631 19.6129 20.8626
723 1 -1.1104 3.89325 19.5489 23.4851
725 1 -1.1104 3.81417 13.7874 23.3934
727 1 -1.1104 1.14087 19.4384 26.5023
728 1 -1.1104 0.995604 16.6542 26.0986
729 1 -1.1104 1.1244 13.9351 26.2107
731 2 2.2208 5.27016 20.8423 24.8371
732 2 2.2208 5.3215 15.2154 24.7355
734 1 -1.1104 1.00552 19.4516 23.5539
735 1 -1.1104 1.04474 13.8618 23.5419
736 2 2.2208 5.16187 18.1745 21.9928
737 1 -1.1104 3.79731 19.49 26.1549
738 2 2.2208 2.32817 18.0697 24.8933
739 1 -1.1104 3.9251 16.6417 26.3145
740 1 -1.1104 3.91964 13.8914 26.1798
742 1 -1.1104 1.01469 16.6351 23.4468
743 1 -1.1104 3.693 16.6013 23.429
744 2 2.2208 2.46649 20.9268 22.1178
745 2 2.2208 2.30958 15.2787 22.0182
721 2 2.2208 8.14589 20.8959 22.0816
658 1 -1.1104 12.2755 19.511 26.1273
593 1 -1.1104 9.55393 19.5177 20.6978
746 1 -1.1104 9.50351 16.7111 23.4601
741 1 -1.1104 6.57871 16.6746 23.4777
698 1 -1.1104 6.69848 19.3189 26.3699
693 1 -1.1104 9.53477 13.9174 23.4654
549 1 -1.1104 6.6012 13.8855 20.5041
692 1 -1.1104 12.4438 16.7157 26.2403
719 2 2.2208 8.11416 15.3059 22.1256
747 1 -1.1104 9.72492 16.6769 26.2615
628 2 2.2208 10.8961 18.0115 21.9843
694 1 -1.1104 9.44057 19.4627 23.4986
657 1 -1.1104 12.2712 13.9193 26.2347
396 2 2.2208 2.68068 20.9082 27.6417
733 1 -1.1104 6.67957 13.8429 23.2323
667 2 2.2208 10.8474 20.9146 24.8081
352 2 2.2208 8.21148 1.03925 13.6729
361 2 2.2208 8.14453 12.3428 13.5738
393 2 2.2208 8.18868 9.59359 27.6947
382 2 2.2208 10.9144 1.27207 27.6695
373 2 2.2208 5.18195 1.18867 27.6427
357 2 2.2208 2.38518 12.5124 13.7085
353 2 2.2208 10.9356 -1.60549 13.7242
360 2 2.2208 10.9457 9.60853 13.6773
354 2 2.2208 10.8866 3.97491 13.7793
369 2 2.2208 10.8385 15.1842 13.793
356 2 2.2208 5.30077 9.51656 13.6557
346 2 2.2208 -0.341635 -1.57883 13.6699
368 2 2.2208 10.7478 20.7757 13.6866
349 2 2.2208 5.33704 3.95488 13.72
751 2 2.2208 5.37308 23.6821 5.13829
752 2 2.2208 5.28215 29.2938 5.31026
753 1 -1.1104 1.22059 25.0604 1.00009
754 1 -1.1104 1.06376 25.11 3.82745
755 1 -1.1104 1.12122 22.1021 1.04672
756 1 -1.1104 1.11978 27.8289 0.933414
757 2 2.2208 5.40248 26.4716 2.41419
758 1 -1.1104 0.95026 22.4306 3.71942
759 1 -1.1104 1.11491 27.8471 3.8075
760 1 -1.1104 4.05678 25.0111 0.941377
761 2 2.2208 2.43911 23.642 2.43576
762 2 2.2208 2.57796 29.1896 2.3887
763 1 -1.1104 3.91418 25.0754 3.83875
764 2 2.2208 2.51481 26.4523 5.16638
765 1 -1.1104 4.02525 22.198 1.09085
766 1 -1.1104 4.10902 27.9332 1.01536
767 1 -1.1104 3.80964 22.2034 3.84631
768 1 -1.1104 3.87108 27.8077 3.91182
894 1 -1.1104 0.936217 22.1882 6.56403
773 1 -1.1104 6.60684 24.9878 3.80913
871 2 2.2208 -0.375215 40.2666 5.23224
895 1 -1.1104 1.18413 27.8142 6.45104
898 1 -1.1104 3.96901 25.084 6.5068
1662 1 -1.1104 1.07846 47.608 9.47266
775 1 -1.1104 6.84077 27.8709 0.97078
772 1 -1.1104 6.80964 25.0935 0.999498
774 1 -1.1104 6.7828 22.3717 1.00807
777 1 -1.1104 6.74843 27.847 3.67996
776 1 -1.1104 6.78099 22.3678 3.79974
778 2 2.2208 10.8263 23.6379 5.30601
779 2 2.2208 11.0489 29.3372 5.11071
780 1 -1.1104 12.3709 25.1636 1.07088
781 1 -1.1104 12.3137 24.9462 3.9333
782 1 -1.1104 12.3321 22.3043 1.15957
783 1 -1.1104 12.3923 27.859 0.967424
784 2 2.2208 11.0212 26.4267 2.43659
785 1 -1.1104 12.2502 22.3059 3.84052
786 1 -1.1104 12.2725 27.8731 3.9369
787 1 -1.1104 9.62071 25.03 1.089
788 2 2.2208 8.2181 23.7914 2.39387
789 2 2.2208 8.11291 29.1891 2.23837
790 1 -1.1104 9.46778 25.0115 3.82139
791 2 2.2208 8.20148 26.5752 5.16812
792 1 -1.1104 9.64716 22.1479 1.12805
793 1 -1.1104 9.69213 27.817 0.966968
794 1 -1.1104 9.48827 22.2382 3.94268
795 1 -1.1104 9.55182 27.7998 3.59816
926 1 -1.1104 12.2307 22.3332 6.76542
927 1 -1.1104 12.3851 27.8626 6.72778
930 1 -1.1104 9.64904 27.9315 6.54604
928 1 -1.1104 9.62209 25.1448 6.51485
929 1 -1.1104 9.55308 22.2217 6.69212
893 1 -1.1104 6.83768 25.0995 6.60939
925 1 -1.1104 12.4214 25.1006 6.69238
1687 1 -1.1104 12.2049 47.3352 6.62984
869 2 2.2208 -0.312518 43.2466 2.47093
799 2 2.2208 5.30917 34.8533 5.24802
800 1 -1.1104 1.15525 30.5823 1.01645
801 1 -1.1104 1.21879 36.1122 1.21139
803 1 -1.1104 1.16853 30.567 3.86145
804 1 -1.1104 1.09055 36.0717 3.90112
806 1 -1.1104 1.14084 33.316 1.04929
807 2 2.2208 5.33207 32.1174 2.3713
808 2 2.2208 5.16246 37.68 2.37698
809 1 -1.1104 1.24391 33.3059 3.7775
811 1 -1.1104 3.88865 30.6839 0.952744
812 1 -1.1104 3.96803 36.2803 0.84915
813 2 2.2208 2.59851 34.8287 2.55584
814 1 -1.1104 3.8793 30.6408 3.82879
815 1 -1.1104 3.80472 36.1961 3.87662
816 2 2.2208 2.58815 31.9461 5.26546
817 2 2.2208 2.52065 37.6028 5.27797
818 1 -1.1104 4.05885 33.4567 0.959039
819 1 -1.1104 3.91726 33.4466 3.86178
950 1 -1.1104 1.20789 36.3049 6.59019
957 1 -1.1104 4.01778 33.2677 6.61676
953 1 -1.1104 1.12328 33.4662 6.62242
1052 1 -1.1104 12.3896 44.6269 9.32867
802 1 -1.1104 6.7499 36.2048 1.01807
954 1 -1.1104 6.81937 33.3341 6.69164
824 1 -1.1104 6.81652 30.5566 3.93673
810 1 -1.1104 6.69164 33.3507 3.70824
825 1 -1.1104 6.7988 33.5005 0.943474
949 1 -1.1104 1.21915 30.6478 6.64779
771 2 2.2208 -0.324712 26.493 2.4504
1468 1 -1.1104 6.77223 47.2584 3.70372
823 1 -1.1104 6.65973 30.7571 1.06481
805 1 -1.1104 6.7859 36.2085 3.82787
826 2 2.2208 10.9418 34.9305 5.2244
827 1 -1.1104 12.4105 30.6679 0.845564
828 1 -1.1104 12.2543 36.3434 0.806152
829 1 -1.1104 12.4872 30.7311 3.67799
830 1 -1.1104 12.3714 36.111 3.71454
831 1 -1.1104 12.3652 33.4885 0.968119
832 2 2.2208 10.9271 32.0859 2.22438
833 2 2.2208 11.0419 37.6374 2.40873
834 1 -1.1104 12.3417 33.4603 3.78964
835 1 -1.1104 9.41877 30.7208 1.05514
836 1 -1.1104 9.61788 36.2011 1.00337
837 2 2.2208 8.15164 34.8787 2.30263
838 1 -1.1104 9.60427 30.6846 3.68316
839 1 -1.1104 9.48155 36.39 3.6781
840 2 2.2208 8.19262 32.1072 5.07076
841 2 2.2208 8.04616 37.5735 5.21325
842 1 -1.1104 9.5793 33.427 0.910879
843 1 -1.1104 9.43409 33.5752 3.74242
984 1 -1.1104 12.5028 36.2354 6.66275
1664 1 -1.1104 6.57222 47.3022 9.20021
951 1 -1.1104 6.68517 30.7368 6.75268
986 1 -1.1104 9.60964 30.7928 6.51839
985 1 -1.1104 12.3651 33.3767 6.65734
987 1 -1.1104 9.74565 36.4325 6.44806