ITEM: TIMESTEP
60000
ITEM: NUMBER OF ATOMS
17730
ITEM: BOX BOUNDS pp pp pp
-3.6466977711363469e-01 2.7704669777113647e+01
-4.4081906429420288e+00 3.3248819064293798e+02
-3.6806566340585911e-01 2.7708065663406444e+01
ITEM: ATOMS id type q x y z
1 2 2.2208 5.1624 1.23609 5.20262
2 1 -1.1104 0.95979 -2.95543 0.915691
3 1 -1.1104 1.05429 2.54558 1.00468
6 1 -1.1104 0.991526 -3.00304 3.80389
7 1 -1.1104 0.98278 2.65099 3.75334
10 1 -1.1104 0.910546 -0.256582 0.917123
12 2 2.2208 5.30043 -1.56098 2.37213
13 2 2.2208 5.24235 3.96626 2.3892
14 1 -1.1104 1.04587 -0.0303679 3.65969
16 1 -1.1104 3.77863 -2.84955 1.07896
17 1 -1.1104 3.89661 2.58519 0.9275
18 2 2.2208 2.43904 1.2326 2.41041
19 1 -1.1104 3.80767 -2.93149 3.83284
20 1 -1.1104 3.91574 2.61442 3.80184
21 2 2.2208 2.39399 -1.5599 5.11337
23 1 -1.1104 3.83926 -0.145987 0.986683
24 1 -1.1104 3.97971 -0.1595 3.78006
22 2 2.2208 2.47034 4.08546 5.12072
136 2 2.2208 -0.230505 20.8943 2.33855
233 2 2.2208 13.8163 -4.34669 8.11661
172 1 -1.1104 3.74351 -2.86901 6.65891
170 1 -1.1104 1.22933 -0.230149 6.56911
174 1 -1.1104 3.8893 -0.0988484 6.57772
173 1 -1.1104 3.81783 2.63762 6.52342
167 1 -1.1104 1.06594 2.79756 6.73017
50 2 2.2208 13.6661 -1.44322 5.16041
166 1 -1.1104 1.00598 -2.93177 6.56754
363 2 2.2208 2.57978 18.0302 13.5611
28 2 2.2208 2.40627 -4.27468 2.53775
29 2 2.2208 5.27209 -4.15459 5.36982
351 2 2.2208 -0.319787 15.3612 13.651
232 2 2.2208 10.8582 -4.19949 10.697
15 1 -1.1104 6.66666 -0.123815 3.75407
5 1 -1.1104 6.7015 2.66754 0.989686
4 1 -1.1104 6.57901 -3.00307 0.998519
8 1 -1.1104 6.57705 -2.82552 3.81711
11 1 -1.1104 6.63004 -0.186041 0.899085
9 1 -1.1104 6.7044 2.68687 3.83304
31 2 2.2208 10.8427 1.37493 5.40548
32 1 -1.1104 11.9911 -2.86345 0.998727
33 1 -1.1104 12.1719 2.66407 0.990064
34 1 -1.1104 12.1359 -2.78765 3.76094
35 1 -1.1104 12.3406 2.77743 3.81324
36 1 -1.1104 12.1416 0.0715965 1.1658
37 2 2.2208 10.7475 -1.33888 2.40266
39 1 -1.1104 12.2117 -0.00871242 3.99814
40 1 -1.1104 9.27857 -2.76404 0.943991
41 1 -1.1104 9.42703 2.68613 1.11687
42 2 2.2208 8.09803 1.37876 2.432
43 1 -1.1104 9.22904 -2.72433 3.8395
44 1 -1.1104 9.4565 2.79837 3.97766
45 2 2.2208 7.99603 -1.35576 5.22787
47 1 -1.1104 9.46263 -0.0201896 0.897032
48 1 -1.1104 9.55184 0.0137531 3.91226
46 2 2.2208 8.03805 4.20067 5.21517
38 2 2.2208 10.9398 4.17591 2.46985
209 1 -1.1104 9.32916 2.62614 6.70841
169 1 -1.1104 6.56487 2.77395 6.53804
205 1 -1.1104 12.2528 -2.79405 6.52472
207 1 -1.1104 12.3086 -9.55412e-06 6.84826
206 1 -1.1104 12.2579 2.7928 6.52364
208 1 -1.1104 9.58411 -2.79213 6.5172
210 1 -1.1104 9.41137 -0.0796724 6.66677
202 2 2.2208 2.34203 -4.31609 8.14611
52 2 2.2208 10.8493 -4.21189 5.21533
200 2 2.2208 -0.346235 -1.62972 8.01597
135 2 2.2208 -0.29372 15.291 2.53031
54 2 2.2208 5.26547 6.85113 5.30136
55 2 2.2208 5.31209 12.5562 5.33751
56 1 -1.1104 0.960624 8.35891 1.11122
58 1 -1.1104 1.06651 8.15719 3.75992
60 1 -1.1104 0.971279 5.52502 1.00822
61 1 -1.1104 0.896251 11.0467 1.05007
66 2 2.2208 5.33564 9.62901 2.45803
67 1 -1.1104 1.12541 5.43832 3.71615
68 1 -1.1104 0.976722 11.1029 3.73437
71 1 -1.1104 3.77192 8.18326 0.880971
72 2 2.2208 2.54906 6.79949 2.37887
73 2 2.2208 2.50857 12.4517 2.36788
74 1 -1.1104 3.78658 8.11203 3.83524
75 2 2.2208 2.40805 9.76852 5.1484
76 1 -1.1104 3.84865 5.2921 1.09917
77 1 -1.1104 3.95475 11.1232 0.982236
79 1 -1.1104 3.9808 5.30851 3.6755
80 1 -1.1104 3.96013 11.0514 3.78711
53 2 2.2208 13.5422 -4.26534 2.49084
239 1 -1.1104 3.76827 5.35373 6.48175
62 1 -1.1104 1.10125 11.0231 6.53558
236 1 -1.1104 1.10408 5.6277 6.606
234 1 -1.1104 0.985802 8.42099 6.49913
238 1 -1.1104 3.89139 8.32916 6.61657
78 1 -1.1104 3.77819 11.3054 6.62752
69 1 -1.1104 6.61529 5.53425 3.83559
64 1 -1.1104 6.59807 11.0413 0.972898
63 1 -1.1104 6.71851 5.41405 1.14757
70 1 -1.1104 6.74459 11.0712 4.00514
57 1 -1.1104 6.61667 8.24399 1.07258
59 1 -1.1104 6.63202 8.32613 3.97193
84 2 2.2208 10.9345 6.86715 5.24078
85 2 2.2208 10.916 12.4952 5.24546
86 1 -1.1104 12.1889 8.47172 1.12624
87 1 -1.1104 12.3048 8.27895 3.90848
88 1 -1.1104 12.1446 5.70466 1.02645
89 1 -1.1104 12.274 11.2114 0.975363
91 2 2.2208 10.7261 9.79644 2.4129
92 1 -1.1104 12.1347 5.4487 3.92059
93 1 -1.1104 12.1479 11.1355 3.7696
94 1 -1.1104 9.28193 8.36142 0.94469
95 2 2.2208 8.09974 6.95593 2.41639
96 2 2.2208 7.98421 12.4134 2.39809
97 1 -1.1104 9.49858 8.33892 3.80897
98 2 2.2208 8.1465 9.67645 5.43938
99 1 -1.1104 9.38385 5.51953 1.04719
100 1 -1.1104 9.41259 11.0645 0.893745
102 1 -1.1104 9.40313 5.63931 3.79158
103 1 -1.1104 9.39271 11.0386 4.01841
266 1 -1.1104 12.1455 5.42694 6.5642
235 1 -1.1104 6.6679 8.39797 6.68162
267 1 -1.1104 9.53906 8.39285 6.54435
269 1 -1.1104 9.36572 5.43976 6.64993
237 1 -1.1104 6.62127 5.6215 6.74313
265 1 -1.1104 12.2924 8.28709 6.73978
101 1 -1.1104 9.53633 11.039 6.68811
65 1 -1.1104 6.66842 11.0122 6.91977
324 2 2.2208 11.071 20.9649 8.10377
106 2 2.2208 5.28268 18.0935 5.11423
107 1 -1.1104 1.16459 13.7754 1.04901
109 1 -1.1104 1.00804 19.4996 0.915511
113 1 -1.1104 1.13082 13.8311 3.69517
114 1 -1.1104 1.15407 19.4684 3.81978
116 1 -1.1104 1.18295 16.6075 1.22191
119 2 2.2208 5.37323 15.3805 2.32862
120 2 2.2208 5.34877 20.9122 2.38784
121 1 -1.1104 1.02979 16.7042 3.92332
123 1 -1.1104 3.87311 13.8957 0.867755
125 1 -1.1104 3.99741 19.5891 0.8488
127 2 2.2208 2.52655 18.1204 2.33483
128 1 -1.1104 3.91341 13.9252 3.88789
129 1 -1.1104 4.01083 19.4469 3.70687
130 2 2.2208 2.57025 15.3135 5.24779
131 2 2.2208 2.50803 20.8288 5.18957
132 1 -1.1104 3.93763 16.7771 0.799653
134 1 -1.1104 3.86105 16.6672 3.73717
117 1 -1.1104 1.21553 16.6894 6.72472
51 2 2.2208 8.05723 -4.2464 2.45232
318 1 -1.1104 9.58566 19.6469 9.42497
126 1 -1.1104 3.8261 19.5572 6.58672
302 1 -1.1104 0.939343 19.474 6.47568
108 1 -1.1104 0.895243 13.8974 6.47124
124 1 -1.1104 3.87629 13.9865 6.70695
133 1 -1.1104 4.02723 16.8669 6.61283
111 1 -1.1104 6.66258 13.9891 6.63272
348 2 2.2208 2.39837 1.33228 13.6967
327 1 -1.1104 12.4376 19.5216 9.47113
140 1 -1.1104 6.69361 16.8478 0.928269
138 1 -1.1104 6.84109 19.6323 1.12738
122 1 -1.1104 6.8342 16.7543 3.7431
139 1 -1.1104 6.75335 19.6475 3.81667
110 1 -1.1104 6.64367 13.8007 1.01529
115 1 -1.1104 6.75446 13.7543 3.80425
141 2 2.2208 11.0065 18.1402 5.33844
142 1 -1.1104 12.3377 13.94 0.94145
144 1 -1.1104 12.3433 19.6327 1.21148
146 1 -1.1104 12.3232 13.7663 3.78505
147 1 -1.1104 12.4511 19.4703 3.93244
148 1 -1.1104 12.4618 16.6021 1.18534
150 2 2.2208 11.0086 15.3085 2.52068
151 2 2.2208 10.8984 21.0468 2.5061
152 1 -1.1104 12.3001 16.6958 3.84887
153 1 -1.1104 9.46102 13.8186 0.956966
155 1 -1.1104 9.69552 19.3954 1.09744
157 2 2.2208 8.23361 18.1976 2.41346
158 1 -1.1104 9.56112 13.8021 3.86252
159 1 -1.1104 9.57932 19.4854 3.83537
160 2 2.2208 8.25105 15.1596 5.12087
161 2 2.2208 8.20077 20.9737 5.20949
162 1 -1.1104 9.49615 16.6611 1.00322
164 1 -1.1104 9.59324 16.8084 3.86078
118 1 -1.1104 6.80184 16.726 6.68124
156 1 -1.1104 9.59786 19.6649 6.6509
154 1 -1.1104 9.57324 13.8115 6.6168
143 1 -1.1104 12.4208 13.9471 6.62427
112 1 -1.1104 6.71205 19.703 6.65332
163 1 -1.1104 9.53661 16.8381 6.66144
333 2 2.2208 13.8121 15.2803 10.9388
320 2 2.2208 8.13936 18.151 8.03661
203 2 2.2208 5.20596 -4.1298 10.8505
352 2 2.2208 7.99653 1.31206 13.6316
343 2 2.2208 -0.452953 9.702 8.06027
175 2 2.2208 5.25592 1.35456 10.6516
176 1 -1.1104 0.926109 -2.75914 12.4404
177 1 -1.1104 1.01831 2.59662 12.394
180 1 -1.1104 0.948968 -2.88743 9.57595
181 1 -1.1104 1.0536 2.63153 9.55865
184 1 -1.1104 0.966348 0.0052345 12.3656
186 2 2.2208 5.17401 -1.4589 8.04372
187 2 2.2208 5.3068 4.10852 7.9002
188 1 -1.1104 0.927552 -0.0829462 9.34117
190 1 -1.1104 3.72172 -2.87883 12.1428
191 1 -1.1104 3.80644 2.62278 12.2256
192 2 2.2208 2.48733 1.31352 7.95843
193 1 -1.1104 3.68395 -2.82673 9.50032
194 1 -1.1104 3.87879 2.74039 9.28554
195 2 2.2208 2.34535 -1.37018 11.0014
196 2 2.2208 2.4562 4.02856 10.8624
197 1 -1.1104 3.85132 -0.0474222 12.336
198 1 -1.1104 3.67716 -0.0191898 9.56118
342 2 2.2208 -0.243444 12.4651 10.917
137 2 2.2208 -0.303409 18.1371 5.19083
321 1 -1.1104 9.66011 19.393 12.2536
325 2 2.2208 10.9602 15.3647 8.06582
171 1 -1.1104 6.63344 -0.040836 6.71814
354 2 2.2208 10.8935 4.10012 13.6976
183 1 -1.1104 6.72654 2.83184 9.32654
189 1 -1.1104 6.62134 0.00196133 9.43688
179 1 -1.1104 6.6325 2.68448 12.1256
178 1 -1.1104 6.59841 -2.81342 12.3674
168 1 -1.1104 6.67204 -2.8032 6.65283
185 1 -1.1104 6.71763 -0.1449 12.1861
182 1 -1.1104 6.67943 -2.74608 9.42617
211 2 2.2208 10.9687 1.31941 10.8358
212 1 -1.1104 12.2768 -2.8502 12.2056
213 1 -1.1104 12.2801 2.53116 12.0647
214 1 -1.1104 12.4142 -2.77794 9.31546
215 1 -1.1104 12.2482 2.73362 9.29364
216 1 -1.1104 12.3618 -0.0468438 12.2292
217 2 2.2208 10.8874 -1.44691 7.94854
218 2 2.2208 10.8055 4.04099 7.94602
219 1 -1.1104 12.4843 -0.048745 9.59449
220 1 -1.1104 9.50862 -2.82543 12.1669
221 1 -1.1104 9.62656 2.56381 12.1912
222 2 2.2208 8.04117 1.31686 8.0763
223 1 -1.1104 9.47601 -2.87612 9.34196
224 1 -1.1104 9.48749 2.59788 9.40662
225 2 2.2208 8.10051 -1.43317 10.7472
226 2 2.2208 8.07309 4.17664 10.8177
227 1 -1.1104 9.34095 -0.06834 12.1737
228 1 -1.1104 9.49993 -0.068315 9.38974
361 2 2.2208 8.05274 12.4374 13.6612
288 1 -1.1104 6.69193 19.4755 9.52606
337 2 2.2208 13.7804 15.3672 5.17796
104 2 2.2208 13.6557 12.5673 2.40356
335 2 2.2208 13.6661 9.83012 5.21732
397 2 2.2208 5.37628 18.1522 -0.479272
355 2 2.2208 2.42534 6.97347 13.7262
365 2 2.2208 5.33987 15.2281 13.631
240 2 2.2208 5.32578 6.90012 10.7936
241 2 2.2208 5.20552 12.459 10.8429
242 1 -1.1104 0.960183 8.14165 12.2055
244 1 -1.1104 1.03885 8.24666 9.41833
246 1 -1.1104 1.10041 5.5402 12.2726
247 1 -1.1104 1.13282 11.0115 12.3263
250 2 2.2208 5.1471 9.68399 8.05326
251 1 -1.1104 0.919798 5.48588 9.45755
252 1 -1.1104 1.03686 11.0902 9.41763
255 1 -1.1104 3.82316 8.38028 12.2523
256 2 2.2208 2.46734 6.97048 7.91952
257 2 2.2208 2.33085 12.579 7.85357
258 1 -1.1104 3.76544 8.24131 9.45286
259 2 2.2208 2.42231 9.68535 10.7966
260 1 -1.1104 3.91736 5.38483 12.1704
261 1 -1.1104 3.86928 11.1512 12.1673
262 1 -1.1104 3.80775 5.52057 9.33006
263 1 -1.1104 3.80961 11.1418 9.27909
245 1 -1.1104 6.68006 8.36483 9.47037
231 2 2.2208 8.07651 -4.19791 7.95159
316 2 2.2208 8.13586 20.9564 10.8262
254 1 -1.1104 6.78811 11.1056 9.59443
90 1 -1.1104 12.257 11.1153 6.67778
253 1 -1.1104 6.59825 5.57736 9.37941
249 1 -1.1104 6.66948 11.0617 12.2354
248 1 -1.1104 6.68059 5.51594 12.181
243 1 -1.1104 6.56839 8.34516 12.2934
280 1 -1.1104 12.2882 5.28027 12.2119
279 1 -1.1104 12.4352 8.44129 9.44893
278 1 -1.1104 12.3134 8.38611 12.3726
277 2 2.2208 10.8211 12.5624 10.8339
276 2 2.2208 10.9718 6.83393 10.8129
284 1 -1.1104 12.1772 11.2394 9.46775
275 2 2.2208 8.12742 6.95049 8.04184
283 1 -1.1104 12.3532 5.54416 9.35357
281 1 -1.1104 12.5242 11.1084 12.2446
285 1 -1.1104 9.55961 8.1898 12.0934
282 2 2.2208 10.9031 9.76799 8.03051
264 1 -1.1104 9.44278 11.0132 9.43329
268 1 -1.1104 9.53105 5.53451 9.51311
270 1 -1.1104 9.5252 11.0162 12.2711
271 1 -1.1104 9.50734 5.46664 12.3053
272 2 2.2208 8.0925 9.67358 10.8422
273 1 -1.1104 9.51554 8.14036 9.35585
274 2 2.2208 8.16666 12.6901 8.20182
105 2 2.2208 13.5939 7.01169 2.40722
326 1 -1.1104 12.5443 16.6363 12.3571
661 2 2.2208 10.7206 -4.33056 -0.433366
311 2 2.2208 -0.401331 20.9335 8.11448
297 1 -1.1104 6.78849 13.9905 12.2977
289 1 -1.1104 6.73345 16.7465 9.39137
312 2 2.2208 -0.172617 18.1315 10.803
294 1 -1.1104 1.05498 13.9423 9.44149
295 2 2.2208 5.36231 15.3998 8.11035
310 2 2.2208 2.35483 15.2776 10.6626
309 2 2.2208 2.6369 20.9465 10.8418
308 1 -1.1104 3.85505 16.6705 12.2295
307 1 -1.1104 1.16033 16.5992 12.1291
291 1 -1.1104 1.11072 19.542 9.40509
286 1 -1.1104 3.9601 19.4678 12.0853
305 1 -1.1104 3.88529 13.9807 9.37298
304 1 -1.1104 3.81439 16.6128 9.39413
292 1 -1.1104 1.06148 16.6994 9.35675
303 2 2.2208 2.504 18.2213 7.98625
301 1 -1.1104 3.90876 19.5084 9.3883
300 2 2.2208 5.26418 18.0252 10.7511
293 2 2.2208 5.34627 21.0507 7.98463
299 1 -1.1104 1.22911 13.9386 12.1597
298 1 -1.1104 1.16642 19.595 12.2268
287 1 -1.1104 3.94178 13.8769 12.1901
306 1 -1.1104 6.68856 16.7176 12.1874
322 1 -1.1104 9.45524 13.9073 12.3022
315 1 -1.1104 9.61937 16.6886 12.4375
317 2 2.2208 8.1256 15.4324 10.9039
290 1 -1.1104 6.69354 13.966 9.62747
329 1 -1.1104 12.3233 19.3393 12.2613
49 2 2.2208 13.6771 1.33958 2.3626
328 1 -1.1104 12.3443 14.041 9.3802
296 1 -1.1104 6.69678 19.5248 12.0855
330 1 -1.1104 12.2753 13.785 12.2727
319 1 -1.1104 9.4449 14.1591 9.48473
145 1 -1.1104 12.4822 19.4811 6.75369
149 1 -1.1104 12.4217 16.6106 6.66
323 1 -1.1104 12.2394 16.7624 9.63895
314 1 -1.1104 9.57273 16.7841 9.5229
331 2 2.2208 10.9417 18.2122 10.8149
390 2 2.2208 -0.375121 12.5538 -0.265538
472 2 2.2208 13.5756 -4.34581 13.5941
470 2 2.2208 8.00207 -4.23323 13.6667
371 2 2.2208 8.14458 18.1108 13.5919
364 2 2.2208 5.40734 20.8708 13.7074
347 2 2.2208 5.28999 -1.3972 13.6916
379 2 2.2208 8.235 20.926 -0.289184
391 2 2.2208 -0.382827 6.98635 -0.38075
394 2 2.2208 10.8871 12.5648 -0.442089
376 2 2.2208 2.43383 -1.5108 -0.467011
349 2 2.2208 5.14137 4.03909 13.5469
392 2 2.2208 10.7702 6.93937 -0.391811
393 2 2.2208 7.84952 9.71453 -0.449993
398 2 2.2208 2.40302 15.328 -0.469264
400 2 2.2208 5.16178 1.24478 16.486
401 1 -1.1104 1.09899 -2.94897 17.9274
402 1 -1.1104 0.982101 2.60124 17.8232
405 1 -1.1104 0.977343 -2.72368 15.1947
407 1 -1.1104 1.10108 2.71179 15.0236
413 1 -1.1104 1.10682 -0.14763 17.9557
415 2 2.2208 5.32024 -1.55243 19.3253
416 2 2.2208 5.25028 4.11463 19.3824
417 1 -1.1104 0.981587 -0.104228 15.1572
421 1 -1.1104 4.07857 -2.90257 17.8714
422 1 -1.1104 3.91349 2.71588 17.828
423 2 2.2208 2.47018 1.21176 19.2814
424 1 -1.1104 3.79321 -2.84474 15.0506
426 1 -1.1104 3.73927 2.81605 15.0791
428 2 2.2208 2.45498 -1.44571 16.4882
429 2 2.2208 2.48691 4.03138 16.4643
430 1 -1.1104 3.74579 -0.147667 17.8504
431 1 -1.1104 3.95118 -0.0248949 14.9833
435 2 2.2208 2.50059 -4.38398 19.1793
418 1 -1.1104 0.920221 -0.176497 20.8085
425 1 -1.1104 3.91881 -2.93393 20.654
419 1 -1.1104 6.71456 -0.0342786 15.3034
387 2 2.2208 5.21415 6.862 27.6559
633 2 2.2208 5.22137 -4.3926 22.0702
663 2 2.2208 7.99013 -4.33452 24.9243
408 1 -1.1104 1.01172 2.60201 20.5488
427 1 -1.1104 3.93032 2.64054 20.6962
662 2 2.2208 10.8091 -4.18849 22.17
632 2 2.2208 5.11743 -4.27746 27.7622
404 1 -1.1104 6.65394 2.6336 17.9116
403 1 -1.1104 6.66582 -3.15405 17.6987
414 1 -1.1104 6.66041 -0.1107 17.957
411 1 -1.1104 6.51479 2.61233 14.9594
409 1 -1.1104 6.58911 -2.78879 15.0097
443 2 2.2208 10.9469 1.35824 16.4727
444 1 -1.1104 12.2564 -2.89467 17.9273
445 1 -1.1104 12.2327 2.79609 17.9726
446 1 -1.1104 12.2163 -2.81638 15.0302
448 1 -1.1104 12.3094 2.74401 14.9646
450 1 -1.1104 12.2319 -0.0756768 18.0624
451 2 2.2208 10.9047 -1.44469 19.3745
452 2 2.2208 10.735 4.11265 19.3117
453 1 -1.1104 12.3935 -0.0440814 15.1617
455 1 -1.1104 9.50959 -2.85659 17.8666
456 1 -1.1104 9.48292 2.74896 17.741
457 2 2.2208 8.0168 1.3044 19.2757
458 1 -1.1104 9.40882 -2.85821 14.9838
460 1 -1.1104 9.29892 2.84976 14.9676
462 2 2.2208 8.10073 -1.56183 16.3966
464 1 -1.1104 9.4729 -0.0451569 17.7099
465 1 -1.1104 9.5081 0.0606423 14.9277
463 2 2.2208 7.83463 4.00425 16.5453
461 1 -1.1104 9.48433 2.49829 20.7027
449 1 -1.1104 12.1864 2.70497 20.7182
454 1 -1.1104 12.1639 -0.170093 20.9431
466 1 -1.1104 9.51679 -0.155607 20.5787
468 2 2.2208 10.8555 -4.28095 16.498
360 2 2.2208 10.9832 9.79922 13.7184
476 2 2.2208 5.21326 6.89511 16.493
477 2 2.2208 5.24624 12.4828 16.4606
478 1 -1.1104 1.05621 8.11878 17.8108
480 1 -1.1104 1.09933 8.42127 15.0968
484 1 -1.1104 0.973831 5.38017 18.0475
485 1 -1.1104 1.01134 11.0714 17.8547
488 2 2.2208 5.32922 9.62778 19.2951
489 1 -1.1104 0.993962 5.54251 15.0358
491 1 -1.1104 1.19782 11.2716 15.0296
497 1 -1.1104 3.84446 8.40299 17.9837
498 2 2.2208 2.51728 6.91847 19.4308
499 2 2.2208 2.39846 12.4622 19.187
500 1 -1.1104 3.83677 8.24838 15.0967
502 2 2.2208 2.45594 9.81031 16.5225
503 1 -1.1104 3.77047 5.47156 17.969
504 1 -1.1104 3.7525 11.0437 17.8546
505 1 -1.1104 3.83456 5.5623 14.9609
507 1 -1.1104 3.84852 11.1803 15.0415
511 2 2.2208 -0.314612 6.80378 16.5567
508 1 -1.1104 3.83192 11.1765 20.6247
481 1 -1.1104 0.968787 8.22297 20.748
482 1 -1.1104 6.51512 8.31325 14.9844
492 1 -1.1104 1.00964 10.9879 20.6549
506 1 -1.1104 3.80831 5.45996 20.8006
501 1 -1.1104 3.93785 8.22593 20.6612
469 2 2.2208 8.04168 -4.32294 19.3424
493 1 -1.1104 6.49003 5.44294 15.0566
487 1 -1.1104 6.55097 11.0061 17.8365
486 1 -1.1104 6.61692 5.48092 17.8939
495 1 -1.1104 6.54844 11.0836 15.0621
479 1 -1.1104 6.73002 8.1323 17.8647
512 2 2.2208 10.7802 6.88521 16.3907
513 2 2.2208 10.9134 12.445 16.5226
514 1 -1.1104 12.4025 8.17758 17.9664
515 1 -1.1104 12.1685 8.44031 15.2129
517 1 -1.1104 12.132 5.51372 17.9134
518 1 -1.1104 12.3404 11.1238 17.8824
519 2 2.2208 10.974 9.59843 19.311
520 1 -1.1104 12.0845 5.66398 15.1041
522 1 -1.1104 12.4078 11.0255 15.1393
524 1 -1.1104 9.55043 8.26319 17.9148
525 2 2.2208 8.09622 6.80566 19.2241
526 2 2.2208 8.04602 12.4938 19.2505
527 1 -1.1104 9.47146 8.34067 14.9454
529 2 2.2208 8.11962 9.6831 16.4673
530 1 -1.1104 9.36493 5.4583 17.782
531 1 -1.1104 9.5172 11.0726 17.8156
532 1 -1.1104 9.29876 5.55639 15.0203
534 1 -1.1104 9.44551 11.1698 15.0412
494 1 -1.1104 6.70228 5.35251 20.7695
528 1 -1.1104 9.72106 8.15736 20.6993
535 1 -1.1104 9.3534 10.8984 20.5112
521 1 -1.1104 12.2648 5.44721 20.5943
523 1 -1.1104 12.4033 11.1176 20.6959
496 1 -1.1104 6.65328 11.0081 20.7337
574 2 2.2208 -0.396818 4.13879 19.239
384 2 2.2208 8.02691 4.05372 27.7831
600 2 2.2208 13.5762 4.15827 16.5496
539 2 2.2208 5.2943 18.0515 16.2967
540 1 -1.1104 0.907502 13.8493 17.7587
541 1 -1.1104 1.05079 19.451 17.7695
544 1 -1.1104 1.02947 13.9529 14.9216
546 1 -1.1104 1.08892 19.4775 14.9104
552 1 -1.1104 1.01455 16.6696 17.9467
554 2 2.2208 5.24338 15.2355 19.18
555 2 2.2208 5.1833 20.8377 19.3186
556 1 -1.1104 1.11178 16.7548 15.0317
560 1 -1.1104 3.84851 13.9834 17.7747
561 1 -1.1104 3.81195 19.5108 17.7858
562 2 2.2208 2.38897 18.1274 19.1717
563 1 -1.1104 3.99049 13.9787 15.0517
565 1 -1.1104 4.01518 19.3147 14.9106
567 2 2.2208 2.40847 15.3394 16.4311
568 2 2.2208 2.50902 20.8586 16.3129
569 1 -1.1104 3.79493 16.6599 17.6279
570 1 -1.1104 3.8351 16.7758 14.9697
473 2 2.2208 -0.394837 15.1833 19.2501
557 1 -1.1104 0.980168 16.5717 20.6654
564 1 -1.1104 3.86736 13.8643 20.592
558 1 -1.1104 6.66935 16.603 14.962
547 1 -1.1104 1.08279 19.4348 20.5117
571 1 -1.1104 3.71408 16.6956 20.4746
545 1 -1.1104 1.11453 13.7713 20.6121
553 1 -1.1104 6.61578 16.6523 17.6962
543 1 -1.1104 6.65568 19.4168 17.7754
550 1 -1.1104 6.75013 19.4132 14.9027
559 1 -1.1104 6.61979 16.7489 20.6197
542 1 -1.1104 6.67005 13.8249 17.9216
548 1 -1.1104 6.67459 13.8559 15.0721
575 2 2.2208 11.0509 18.0777 16.5478
576 1 -1.1104 12.3753 13.9169 17.8983
577 1 -1.1104 12.4453 19.3453 17.9763
578 1 -1.1104 12.2896 13.7953 14.9885
580 1 -1.1104 12.3215 19.5196 15.0705
582 1 -1.1104 12.1838 16.7453 17.938
583 2 2.2208 10.8657 15.2591 19.2372
584 2 2.2208 10.8441 20.8775 19.3203
585 1 -1.1104 12.4709 16.7114 15.1318
587 1 -1.1104 9.46198 13.8463 17.8836
588 1 -1.1104 9.67908 19.3841 17.9194
589 2 2.2208 8.19081 18.04 19.1871
590 1 -1.1104 9.51782 13.7847 15.1578
592 1 -1.1104 9.52587 19.3455 14.9613
594 2 2.2208 7.99071 15.2739 16.3913
595 2 2.2208 8.09721 20.8142 16.5167
596 1 -1.1104 9.44642 16.5948 17.8634
597 1 -1.1104 9.5747 16.5696 15.121
579 1 -1.1104 12.2769 13.8347 20.739
593 1 -1.1104 9.47617 19.6429 20.6743
598 1 -1.1104 9.39144 16.6977 20.6866
591 1 -1.1104 9.43342 13.8301 20.6797
551 1 -1.1104 6.61246 19.5568 20.6186
581 1 -1.1104 12.1127 19.5608 20.6879
549 1 -1.1104 6.57166 13.8715 20.5957
586 1 -1.1104 12.1161 16.7073 20.7702
433 2 2.2208 -0.374651 -4.2873 16.5356
438 2 2.2208 -0.440764 7.01238 22.1837
432 1 -1.1104 3.71938 -0.120915 20.7488
437 2 2.2208 -0.336748 -1.46351 19.2765
406 1 -1.1104 1.02887 -2.95866 20.6198
442 2 2.2208 -0.399378 17.9662 16.4278
724 1 -1.1104 6.59572 13.898 26.2873
603 2 2.2208 5.16907 1.36783 22.1418
604 1 -1.1104 1.00343 -2.96372 23.4683
605 1 -1.1104 0.982638 2.75576 23.4969
608 1 -1.1104 1.09197 -2.86128 26.1202
609 1 -1.1104 0.962878 2.80185 26.326
612 1 -1.1104 1.04705 0.060246 23.4835
614 2 2.2208 5.31047 -1.57971 24.8714
616 1 -1.1104 1.05879 -0.0157639 26.276
618 1 -1.1104 3.87735 -2.96342 23.5512
619 1 -1.1104 3.71491 2.68676 23.3914
620 2 2.2208 2.33195 1.34585 24.8234
621 1 -1.1104 3.74865 -2.9774 26.3722
622 1 -1.1104 3.78166 2.6748 26.3147
623 2 2.2208 2.39763 -1.57413 22.0225
625 1 -1.1104 3.97021 -0.0966511 23.4402
626 1 -1.1104 3.87916 -0.223715 26.2335
624 2 2.2208 2.37462 4.018 22.107
615 2 2.2208 5.24633 3.96226 24.8902
696 2 2.2208 -0.441769 9.69365 24.9924
611 1 -1.1104 6.61337 2.65464 26.3407
373 2 2.2208 5.18986 1.24101 27.6165
382 2 2.2208 10.8288 1.36006 27.777
665 2 2.2208 13.7379 -1.53389 22.2231
412 1 -1.1104 6.65248 2.58576 20.8206
459 1 -1.1104 9.52908 -3.03617 20.8256
410 1 -1.1104 6.71236 -2.9451 20.5618
420 1 -1.1104 6.70032 -0.196312 20.6548
447 1 -1.1104 12.3888 -2.9212 20.7319
440 2 2.2208 13.7027 9.59829 22.003
617 1 -1.1104 6.73151 -0.169509 26.2007
607 1 -1.1104 6.60404 2.85317 23.4026
606 1 -1.1104 6.69721 -3.0643 23.3544
610 1 -1.1104 6.57124 -2.9357 26.3248
613 1 -1.1104 6.46503 -0.0506602 23.5215
639 2 2.2208 10.7913 1.1997 22.1502
640 1 -1.1104 12.2007 -2.89674 23.4976
641 1 -1.1104 12.0912 2.77942 23.5316
642 1 -1.1104 12.2223 -2.97666 26.2195
643 1 -1.1104 12.2966 2.72676 26.3438
644 1 -1.1104 12.1536 0.00456078 23.5091
645 2 2.2208 10.8444 -1.43877 24.8238
647 1 -1.1104 12.1689 0.000997712 26.393
648 1 -1.1104 9.39284 -2.82009 23.5613
649 1 -1.1104 9.33121 2.58986 23.6171
650 2 2.2208 7.94153 1.2253 24.8486
651 1 -1.1104 9.39556 -2.89757 26.2377
652 1 -1.1104 9.44587 2.55462 26.4652
653 2 2.2208 8.01568 -1.59967 22.1288
655 1 -1.1104 9.32119 -0.131499 23.4349
656 1 -1.1104 9.43633 -0.186446 26.1053
654 2 2.2208 8.15892 4.09495 22.0859
646 2 2.2208 10.8609 4.0364 25.1284
434 2 2.2208 5.24661 -4.32042 16.2798
378 2 2.2208 10.9756 18.0199 27.7003
380 2 2.2208 2.36965 4.13952 27.7676
750 2 2.2208 -0.330647 20.798 24.8112
490 1 -1.1104 1.08655 5.41711 20.691
375 2 2.2208 13.8147 20.906 27.755
749 2 2.2208 -0.364194 15.2862 24.9045
746 1 -1.1104 9.39219 16.6785 23.6032
668 2 2.2208 5.2835 6.82337 22.0819
669 2 2.2208 5.2333 12.3853 22.0412
670 1 -1.1104 0.984609 8.39635 23.4952
672 1 -1.1104 0.867964 8.33772 26.3948
674 1 -1.1104 0.993654 5.56165 23.4553
675 1 -1.1104 1.04267 11.0945 23.4451
678 2 2.2208 5.23187 9.71296 24.9057
679 1 -1.1104 1.17358 5.58858 26.2063
680 1 -1.1104 0.990855 10.9912 26.3468
683 1 -1.1104 3.8497 8.30745 23.3416
684 2 2.2208 2.45722 6.96047 24.6833
685 2 2.2208 2.41217 12.4666 24.9456
686 1 -1.1104 3.74778 8.35163 26.1681
687 2 2.2208 2.45864 9.63119 22.0122
688 1 -1.1104 3.75681 5.40914 23.4623
689 1 -1.1104 3.91705 11.053 23.4624
690 1 -1.1104 3.81836 5.421 26.2938
691 1 -1.1104 3.80151 11.1107 26.2862
682 1 -1.1104 6.58022 11.2276 26.0428
673 1 -1.1104 6.38851 8.31686 26.3165
671 1 -1.1104 6.71799 8.33097 23.5468
677 1 -1.1104 6.65307 11.0423 23.4452
721 2 2.2208 7.9706 20.8404 22.025
657 1 -1.1104 12.0961 14.0047 26.147
516 1 -1.1104 12.41 8.19637 20.6992
483 1 -1.1104 6.737 8.13237 20.7024
474 2 2.2208 -0.255088 20.911 19.1502
676 1 -1.1104 6.61455 5.52552 23.4945
533 1 -1.1104 9.42324 5.41155 20.6991
681 1 -1.1104 6.48219 5.38828 26.3873
699 1 -1.1104 9.45454 11.2255 26.3053
700 1 -1.1104 9.31823 5.4095 26.4153
701 1 -1.1104 9.50093 11.0085 23.4155
702 1 -1.1104 9.52309 5.40681 23.6096
703 2 2.2208 8.1172 9.64569 22.0925
704 1 -1.1104 9.27108 8.31114 26.2554
705 2 2.2208 8.00675 12.5255 24.695
706 2 2.2208 7.97994 6.86448 24.797
707 2 2.2208 10.9592 6.88085 22.2109
708 2 2.2208 10.8853 12.5377 22.0757
709 1 -1.1104 12.3961 8.19063 23.5672
710 1 -1.1104 12.2804 8.39108 26.3737
711 1 -1.1104 12.3635 5.55236 23.4561
712 1 -1.1104 12.1163 11.0681 23.5596
713 2 2.2208 10.8862 9.68147 25.1096
714 1 -1.1104 12.2619 5.46009 26.3289
715 1 -1.1104 12.2138 11.1212 26.2907
716 1 -1.1104 9.51322 8.2583 23.4494
693 1 -1.1104 9.52498 13.9283 23.2832
634 2 2.2208 2.5243 -4.23195 24.9375
566 1 -1.1104 3.77675 19.4084 20.6593
718 1 -1.1104 9.47323 19.4412 26.2608
664 2 2.2208 10.811 15.3122 24.8633
748 2 2.2208 -0.321581 18.1025 21.9152
745 2 2.2208 2.38632 15.1871 21.9346
744 2 2.2208 2.45017 20.8368 22.0459
743 1 -1.1104 3.72448 16.6952 23.2414
742 1 -1.1104 1.03119 16.6313 23.5171
723 1 -1.1104 3.80594 19.4902 23.4386
725 1 -1.1104 3.83665 13.8284 23.3869
727 1 -1.1104 1.18455 19.4214 26.3125
728 1 -1.1104 1.04607 16.7536 26.3569
729 1 -1.1104 0.974866 13.8237 26.2593
731 2 2.2208 5.23292 21.0378 24.8515
732 2 2.2208 5.16938 15.2531 24.7016
734 1 -1.1104 1.01039 19.4293 23.2355
735 1 -1.1104 1.00277 13.816 23.5033
736 2 2.2208 5.16887 18.0872 22.0682
737 1 -1.1104 3.99372 19.5307 26.1412
738 2 2.2208 2.42305 18.0747 24.7684
739 1 -1.1104 3.84526 16.7548 25.971
740 1 -1.1104 3.83525 13.87 26.1988
730 1 -1.1104 6.70283 19.5962 23.4661
698 1 -1.1104 6.791 19.56 26.3525
720 2 2.2208 13.4554 12.3933 24.892
658 1 -1.1104 12.3679 19.4987 26.3824
436 2 2.2208 -0.371299 1.2523 16.4727
628 2 2.2208 10.8967 18.2505 22.1168
692 1 -1.1104 12.2551 16.8752 26.2971
667 2 2.2208 10.8915 20.8093 24.9052
733 1 -1.1104 6.59704 13.7938 23.3613
717 1 -1.1104 9.33379 13.8525 26.0757
635 1 -1.1104 12.3823 19.536 23.4471
726 1 -1.1104 6.78098 16.5683 26.18
741 1 -1.1104 6.70338 16.7153 23.4484
629 1 -1.1104 12.1676 13.836 23.5472
747 1 -1.1104 9.56951 16.677 26.4257
719 2 2.2208 8.0761 15.3307 22.095
694 1 -1.1104 9.43467 19.4592 23.3772
695 2 2.2208 8.06415 18.0683 24.9009
659 1 -1.1104 12.2868 16.6316 23.5404
350 2 2.2208 -0.361417 20.988 13.6571
439 2 2.2208 2.46445 -4.30061 13.5857
396 2 2.2208 2.5019 20.9335 27.6494
377 2 2.2208 8.09136 15.1695 27.7144
369 2 2.2208 10.882 15.2344 13.6907
399 2 2.2208 -0.34082 18.1049 27.6585
357 2 2.2208 2.52252 12.5947 13.57
383 2 2.2208 8.03097 -1.46845 27.5459
389 2 2.2208 5.23839 12.4669 27.6059
388 2 2.2208 2.41059 9.71501 27.7158
353 2 2.2208 10.8667 -1.28551 13.5359
356 2 2.2208 5.1597 9.74994 13.6275
368 2 2.2208 10.8939 20.8176 13.6397
359 2 2.2208 8.00594 6.89611 13.6335
751 2 2.2208 5.28728 23.7093 5.26316
752 2 2.2208 5.32823 29.3312 5.18731
753 1 -1.1104 1.11867 25.1538 0.931418
754 1 -1.1104 1.1039 25.1333 3.68906
755 1 -1.1104 1.07577 22.272 0.946977
756 1 -1.1104 1.17095 27.9674 1.09016
757 2 2.2208 5.37311 26.4824 2.38419
758 1 -1.1104 1.17782 22.3086 3.74906
759 1 -1.1104 1.21531 27.9013 3.9847
760 1 -1.1104 3.84512 25.089 1.07544
761 2 2.2208 2.54382 23.6914 2.2972
762 2 2.2208 2.61171 29.2356 2.45168
763 1 -1.1104 3.93068 25.1503 3.8386
764 2 2.2208 2.56327 26.4634 5.29935
765 1 -1.1104 3.98808 22.3621 1.10113
766 1 -1.1104 3.97356 27.8835 1.03233
767 1 -1.1104 3.86867 22.3273 3.84502
768 1 -1.1104 3.8845 27.9919 3.85386
898 1 -1.1104 3.94688 25.1535 6.67479
1466 1 -1.1104 1.03265 47.5267 3.88763
900 1 -1.1104 4.21784 27.7744 6.62254
894 1 -1.1104 1.17604 22.2015 6.56221
769 2 2.2208 -0.12767 29.2133 5.19317
899 1 -1.1104 3.88617 22.3964 6.65698
895 1 -1.1104 1.3734 27.9465 6.5858
892 1 -1.1104 1.20424 25.0862 6.60314
893 1 -1.1104 6.79776 25.1784 6.70798
870 2 2.2208 13.6956 43.2505 10.7628
777 1 -1.1104 6.66057 27.7513 3.65397
774 1 -1.1104 6.71761 22.4289 1.00524
775 1 -1.1104 6.81246 27.8763 1.10031
773 1 -1.1104 6.8268 24.956 3.93205
772 1 -1.1104 6.75102 25.1518 1.01113
776 1 -1.1104 6.66111 22.3893 3.75432
778 2 2.2208 11.0172 23.7578 5.35519
779 2 2.2208 10.8662 29.2532 5.21235
780 1 -1.1104 12.346 25.0963 1.10987
781 1 -1.1104 12.3372 25.0637 4.00616
782 1 -1.1104 12.2592 22.4707 1.12576
783 1 -1.1104 12.3356 27.8375 1.00519
784 2 2.2208 10.9656 26.4167 2.43741
785 1 -1.1104 12.3031 22.3152 3.94933
786 1 -1.1104 12.4485 27.8823 3.82842
787 1 -1.1104 9.56357 25.0543 1.06148
788 2 2.2208 8.13274 23.774 2.44936
789 2 2.2208 8.14444 29.2491 2.41322
790 1 -1.1104 9.57434 25.1181 3.77488
791 2 2.2208 8.22094 26.4356 5.30298
792 1 -1.1104 9.44836 22.2707 1.19416
793 1 -1.1104 9.64746 27.832 0.969152
794 1 -1.1104 9.53467 22.4422 3.88168
795 1 -1.1104 9.60419 27.7297 3.98382
896 1 -1.1104 6.91612 22.3828 6.61909
925 1 -1.1104 12.4637 24.988 6.76965
926 1 -1.1104 12.6491 22.1479 6.71634
927 1 -1.1104 12.4391 27.7878 6.65636
928 1 -1.1104 9.63919 25.2391 6.68342
897 1 -1.1104 6.95897 27.8414 6.62406
929 1 -1.1104 9.63372 22.341 6.71488
930 1 -1.1104 9.63969 27.9895 6.74239
822 2 2.2208 -0.12764 35.0302 5.33744
799 2 2.2208 5.38642 34.8829 5.20241
800 1 -1.1104 1.30468 30.6206 0.912971
801 1 -1.1104 1.31364 36.3303 1.08412
803 1 -1.1104 1.20583 30.7095 3.83653
804 1 -1.1104 1.18935 36.5112 3.73343
806 1 -1.1104 1.23712 33.4131 1.13621
807 2 2.2208 5.37434 32.0846 2.39732
808 2 2.2208 5.46042 37.6177 2.44938
809 1 -1.1104 1.17867 33.6273 3.93219
811 1 -1.1104 4.06728 30.6869 1.03789
812 1 -1.1104 3.92691 36.2658 0.952343
813 2 2.2208 2.58166 34.8554 2.39469
814 1 -1.1104 3.95235 30.734 3.80962
815 1 -1.1104 3.94701 36.2798 3.8113
816 2 2.2208 2.55051 32.1273 5.40126
817 2 2.2208 2.64981 37.6508 5.17357
818 1 -1.1104 3.96476 33.4896 1.09257
819 1 -1.1104 3.98137 33.4259 3.85525
955 1 -1.1104 3.92161 30.7276 6.66548
956 1 -1.1104 4.11076 36.2123 6.57127
9975 2 2.2208 -0.155103 46.09 10.871
949 1 -1.1104 1.2155 30.6124 6.54652
802 1 -1.1104 6.7536 36.2289 1.12803
824 1 -1.1104 6.5989 30.5283 3.76165
950 1 -1.1104 1.34023 36.3696 6.75985
953 1 -1.1104 1.13443 33.5017 6.62985
1081 2 2.2208 5.36486 26.4479 13.713
820 2 2.2208 -0.164857 37.7605 2.41831
825 1 -1.1104 6.72487 33.4656 1.22554
823 1 -1.1104 6.65485 30.6765 0.940842
810 1 -1.1104 6.85657 33.4424 3.88104
805 1 -1.1104 6.71265 36.1828 3.83514
826 2 2.2208 11.0451 34.7028 5.00508
827 1 -1.1104 12.3049 30.4951 0.967453
828 1 -1.1104 12.4213 36.3004 0.973837
829 1 -1.1104 12.2624 30.7427 3.73782
830 1 -1.1104 12.2792 36.1399 3.71812