LAMMPS (29 Oct 2020)
OMP_NUM_THREADS environment is not set. Defaulting to 1 thread. (../comm.cpp:94)
  using 1 OpenMP thread(s) per MPI task
OMP_NUM_THREADS environment is not set. Defaulting to 1 thread. (../comm.cpp:94)
  using 1 OpenMP thread(s) per MPI task
Reading data file ...
  orthogonal box = (-0.31574006 -3.8899405 -0.31683518) to (27.655740 331.96994 27.656835)
  2 by 13 by 2 MPI processor grid
  reading atoms ...
  17672 atoms
  reading velocities ...
  17672 velocities
Finding 1-2 1-3 1-4 neighbors ...
  special bond factors lj:    0.0      0.0      0.0     
  special bond factors coul:  0.0      0.0      0.0     
     0 = max # of 1-2 neighbors
     0 = max # of 1-3 neighbors
     0 = max # of 1-4 neighbors
     1 = max # of special neighbors
  special bonds CPU = 0.003 seconds
  read_data CPU = 0.071 seconds
WARNING: 13 of 1000 force values in table Xe-Xe are inconsistent with -dE/dr.
  Should only be flagged at inflection points (../pair_table.cpp:461)
WARNING: 2 of 1000 force values in table Xe-O are inconsistent with -dE/dr.
  Should only be flagged at inflection points (../pair_table.cpp:461)
WARNING: 2 of 1000 force values in table Xe-Th are inconsistent with -dE/dr.
  Should only be flagged at inflection points (../pair_table.cpp:461)
Setting atom values ...
  11760 settings made for charge
Setting atom values ...
  5880 settings made for charge
Setting atom values ...
  32 settings made for charge
PPPM initialization ...
  using 12-bit tables for long-range coulomb (../kspace.cpp:328)
  G vector (1/distance) = 0.29896965
  grid = 40 240 40
  stencil order = 5
  estimated absolute RMS force accuracy = 0.00015482663
  estimated relative force accuracy = 1.0752114e-05
  using single precision MKL FFT
  3d grid and FFT values/proc = 18225 7600
Neighbor list info ...
  update every 1 steps, delay 0 steps, check yes
  max neighbors/atom: 2000, page size: 100000
  master list distance cutoff = 13
  ghost atom cutoff = 13
  binsize = 6.5, bins = 5 52 5
  3 neighbor lists, perpetual/occasional/extra = 3 0 0
  (1) pair coul/long, perpetual
      attributes: half, newton on
      pair build: half/bin/newton
      stencil: half/bin/3d/newton
      bin: standard
  (2) pair eam/alloy, perpetual, skip from (1)
      attributes: half, newton on
      pair build: skip
      stencil: none
      bin: none
  (3) pair table, perpetual, skip from (1)
      attributes: half, newton on
      pair build: skip
      stencil: none
      bin: none
Setting up Verlet run ...
  Unit style    : metal
  Current step  : 0
  Time step     : 0.001
Per MPI rank memory allocation (min/avg/max) = 9.267 | 9.970 | 10.04 Mbytes
Step Temp E_pair E_mol TotEng Press 
       0          300   -231161.36            0   -230476.12   -514.32707 
  100000    299.75683   -231164.85            0   -230480.16   -308.87137 
Loop time of 695.105 on 52 procs for 100000 steps with 17672 atoms

Performance: 12.430 ns/day, 1.931 hours/ns, 143.863 timesteps/s
99.8% CPU use with 52 MPI tasks x 1 OpenMP threads

MPI task timing breakdown:
Section |  min time  |  avg time  |  max time  |%varavg| %total
---------------------------------------------------------------
Pair    | 481.61     | 497.61     | 520.45     |  41.3 | 71.59
Bond    | 0.0084466  | 0.014781   | 0.025529   |   2.9 |  0.00
Kspace  | 152.67     | 174.24     | 188.83     |  66.6 | 25.07
Neigh   | 1.1816     | 1.2824     | 1.4009     |   4.2 |  0.18
Comm    | 14.814     | 15.642     | 16.767     |  13.2 |  2.25
Output  | 5.6505e-05 | 6.2178e-05 | 0.00030764 |   0.0 |  0.00
Modify  | 3.3919     | 4.7703     | 6.4258     |  47.8 |  0.69
Other   |            | 1.543      |            |       |  0.22

Nlocal:        339.846 ave         373 max         324 min
Histogram: 5 8 12 15 5 3 1 2 0 1
Nghost:        5526.02 ave        5712 max        5365 min
Histogram: 10 6 2 3 11 4 2 2 0 12
Neighs:       107969.0 ave      120946 max       95689 min
Histogram: 3 3 3 4 12 15 6 3 2 1

Total # of neighbors = 5614394
Ave neighs/atom = 317.69998
Ave special neighs/atom = 0.0000000
Neighbor list builds = 419
Dangerous builds = 0
11760 atoms in group oxygen
PPPM initialization ...
  using 12-bit tables for long-range coulomb (../kspace.cpp:328)
  G vector (1/distance) = 0.29896965
  grid = 40 240 40
  stencil order = 5
  estimated absolute RMS force accuracy = 0.00015482663
  estimated relative force accuracy = 1.0752114e-05
  using single precision MKL FFT
  3d grid and FFT values/proc = 18225 7600
Neighbor list info ...
  update every 1 steps, delay 0 steps, check yes
  max neighbors/atom: 2000, page size: 100000
  master list distance cutoff = 13
  ghost atom cutoff = 13
  binsize = 6.5, bins = 5 52 5
  3 neighbor lists, perpetual/occasional/extra = 3 0 0
  (1) pair coul/long, perpetual
      attributes: half, newton on
      pair build: half/bin/newton
      stencil: half/bin/3d/newton
      bin: standard
  (2) pair eam/alloy, perpetual, skip from (1)
      attributes: half, newton on
      pair build: skip
      stencil: none
      bin: none
  (3) pair table, perpetual, skip from (1)
      attributes: half, newton on
      pair build: skip
      stencil: none
      bin: none
Setting up Verlet run ...
  Unit style    : metal
  Current step  : 0
  Time step     : 0.001
Per MPI rank memory allocation (min/avg/max) = 9.517 | 10.23 | 10.29 Mbytes
Step f_2 Temp v_Tdiff v_deltaT 
       0            0    299.75683            0            0 
  100000    355.73363      298.793 0.0077326371    89.775199 
  200000    706.34851    299.49105 0.0080818195    93.829174 
  300000    1060.4173    298.55529 0.0083409063    96.837147 
  400000    1410.5066    301.49924  0.008212001    95.340569 
  500000    1762.8145    301.42765 0.0080484484    93.441738 
  600000    2113.3097    298.14384 0.0086881323    100.86841 
  700000    2464.2062    298.88502  0.008074159    93.740236 
  800000    2812.6557    298.79135 0.0081873182    95.054004 
  900000    3162.5648    298.25584 0.0082856852    96.196036 
 1000000    3515.4754    298.32934 0.0082761687     96.08555 
Loop time of 6960.67 on 52 procs for 1000000 steps with 17672 atoms

Performance: 12.413 ns/day, 1.934 hours/ns, 143.664 timesteps/s
99.8% CPU use with 52 MPI tasks x 1 OpenMP threads

MPI task timing breakdown:
Section |  min time  |  avg time  |  max time  |%varavg| %total
---------------------------------------------------------------
Pair    | 4831.1     | 4979.6     | 5208.9     | 129.2 | 71.54
Bond    | 0.0825     | 0.14759    | 0.25203    |   9.0 |  0.00
Kspace  | 1543.7     | 1761.4     | 1900.7     | 209.9 | 25.30
Neigh   | 12.086     | 13.081     | 14.197     |  13.1 |  0.19
Comm    | 146        | 155.39     | 166.24     |  44.3 |  2.23
Output  | 0.0011564  | 0.001235   | 0.0022981  |   0.4 |  0.00
Modify  | 6.2652     | 6.694      | 7.2014     |  10.0 |  0.10
Other   |            | 44.36      |            |       |  0.64

Nlocal:        339.846 ave         368 max         325 min
Histogram: 3 12 8 12 11 1 1 1 1 2
Nghost:        5528.33 ave        5698 max        5362 min
Histogram: 8 8 0 3 9 8 0 4 0 12
Neighs:       107966.0 ave      118914 max       96958 min
Histogram: 3 4 3 2 12 7 17 0 1 3

Total # of neighbors = 5614256
Ave neighs/atom = 317.69217
Ave special neighs/atom = 0.0000000
Neighbor list builds = 4282
Dangerous builds = 0
Total wall time: 2:07:36
