LAMMPS (29 Oct 2020)
OMP_NUM_THREADS environment is not set. Defaulting to 1 thread. (../comm.cpp:94)
  using 1 OpenMP thread(s) per MPI task
OMP_NUM_THREADS environment is not set. Defaulting to 1 thread. (../comm.cpp:94)
  using 1 OpenMP thread(s) per MPI task
Reading data file ...
  orthogonal box = (-0.3226491 -3.8343594 -0.31687721) to (27.662649 331.91436 27.656877)
  2 by 13 by 2 MPI processor grid
  reading atoms ...
  17700 atoms
  reading velocities ...
  17700 velocities
Finding 1-2 1-3 1-4 neighbors ...
  special bond factors lj:    0.0      0.0      0.0     
  special bond factors coul:  0.0      0.0      0.0     
     0 = max # of 1-2 neighbors
     0 = max # of 1-3 neighbors
     0 = max # of 1-4 neighbors
     1 = max # of special neighbors
  special bonds CPU = 0.004 seconds
  read_data CPU = 0.074 seconds
WARNING: 13 of 1000 force values in table Xe-Xe are inconsistent with -dE/dr.
  Should only be flagged at inflection points (../pair_table.cpp:461)
WARNING: 2 of 1000 force values in table Xe-O are inconsistent with -dE/dr.
  Should only be flagged at inflection points (../pair_table.cpp:461)
WARNING: 2 of 1000 force values in table Xe-Th are inconsistent with -dE/dr.
  Should only be flagged at inflection points (../pair_table.cpp:461)
Setting atom values ...
  11760 settings made for charge
Setting atom values ...
  5880 settings made for charge
Setting atom values ...
  60 settings made for charge
PPPM initialization ...
  using 12-bit tables for long-range coulomb (../kspace.cpp:328)
  G vector (1/distance) = 0.29896928
  grid = 40 240 40
  stencil order = 5
  estimated absolute RMS force accuracy = 0.00015467593
  estimated relative force accuracy = 1.0741649e-05
  using single precision MKL FFT
  3d grid and FFT values/proc = 18225 7600
Neighbor list info ...
  update every 1 steps, delay 0 steps, check yes
  max neighbors/atom: 2000, page size: 100000
  master list distance cutoff = 13
  ghost atom cutoff = 13
  binsize = 6.5, bins = 5 52 5
  3 neighbor lists, perpetual/occasional/extra = 3 0 0
  (1) pair coul/long, perpetual
      attributes: half, newton on
      pair build: half/bin/newton
      stencil: half/bin/3d/newton
      bin: standard
  (2) pair eam/alloy, perpetual, skip from (1)
      attributes: half, newton on
      pair build: skip
      stencil: none
      bin: none
  (3) pair table, perpetual, skip from (1)
      attributes: half, newton on
      pair build: skip
      stencil: none
      bin: none
Setting up Verlet run ...
  Unit style    : metal
  Current step  : 0
  Time step     : 0.001
Per MPI rank memory allocation (min/avg/max) = 9.264 | 9.970 | 10.05 Mbytes
Step Temp E_pair E_mol TotEng Press 
       0          300   -231213.83            0    -230527.5    383.66379 
  100000    300.44307   -231221.48            0   -230534.13    37.843439 
Loop time of 701.755 on 52 procs for 100000 steps with 17700 atoms

Performance: 12.312 ns/day, 1.949 hours/ns, 142.500 timesteps/s
99.8% CPU use with 52 MPI tasks x 1 OpenMP threads

MPI task timing breakdown:
Section |  min time  |  avg time  |  max time  |%varavg| %total
---------------------------------------------------------------
Pair    | 484.2      | 499.68     | 520.58     |  42.3 | 71.20
Bond    | 0.010259   | 0.014772   | 0.024028   |   1.8 |  0.00
Kspace  | 153.68     | 172.35     | 186.28     |  65.6 | 24.56
Neigh   | 1.0402     | 1.1465     | 1.2396     |   4.0 |  0.16
Comm    | 21.313     | 22.958     | 26.515     |  24.4 |  3.27
Output  | 7.75e-05   | 8.4919e-05 | 0.00027466 |   0.0 |  0.00
Modify  | 2.4387     | 3.6575     | 6.1642     |  69.1 |  0.52
Other   |            | 1.948      |            |       |  0.28

Nlocal:        340.385 ave         366 max         323 min
Histogram: 3 4 4 20 8 6 1 2 1 3
Nghost:        5546.85 ave        5710 max        5336 min
Histogram: 16 0 0 4 4 4 0 0 0 24
Neighs:       108345.0 ave      118197 max       94229 min
Histogram: 1 3 2 3 4 11 14 8 2 4

Total # of neighbors = 5633953
Ave neighs/atom = 318.30243
Ave special neighs/atom = 0.0000000
Neighbor list builds = 373
Dangerous builds = 0
11760 atoms in group oxygen
PPPM initialization ...
  using 12-bit tables for long-range coulomb (../kspace.cpp:328)
  G vector (1/distance) = 0.29896928
  grid = 40 240 40
  stencil order = 5
  estimated absolute RMS force accuracy = 0.00015467593
  estimated relative force accuracy = 1.0741649e-05
  using single precision MKL FFT
  3d grid and FFT values/proc = 18225 7600
Neighbor list info ...
  update every 1 steps, delay 0 steps, check yes
  max neighbors/atom: 2000, page size: 100000
  master list distance cutoff = 13
  ghost atom cutoff = 13
  binsize = 6.5, bins = 5 52 5
  3 neighbor lists, perpetual/occasional/extra = 3 0 0
  (1) pair coul/long, perpetual
      attributes: half, newton on
      pair build: half/bin/newton
      stencil: half/bin/3d/newton
      bin: standard
  (2) pair eam/alloy, perpetual, skip from (1)
      attributes: half, newton on
      pair build: skip
      stencil: none
      bin: none
  (3) pair table, perpetual, skip from (1)
      attributes: half, newton on
      pair build: skip
      stencil: none
      bin: none
Setting up Verlet run ...
  Unit style    : metal
  Current step  : 0
  Time step     : 0.001
Per MPI rank memory allocation (min/avg/max) = 9.514 | 10.20 | 10.30 Mbytes
Step f_2 Temp v_Tdiff v_deltaT 
       0            0    300.44307            0            0 
  100000    358.22879    298.26628 0.0070692074    82.072841 
  200000    710.37789    298.31117 0.0078217804    90.810144 
  300000    1060.0035    299.75385 0.0077133642    89.551442 
  400000    1414.1541    297.54765 0.0075508374    87.664521 
  500000    1763.5771    299.63475 0.0078694703    91.363819 
  600000    2115.9196    298.32839 0.0077481318     89.95509 
  700000    2465.5868    299.87019 0.0077035079    89.437011 
  800000    2816.7395    299.39475 0.0081978233    95.175967 
  900000    3168.8894    298.46862 0.0078587531    91.239393 
 1000000     3522.509    300.33245  0.007867059    91.335824 
Loop time of 6966.98 on 52 procs for 1000000 steps with 17700 atoms

Performance: 12.401 ns/day, 1.935 hours/ns, 143.534 timesteps/s
99.8% CPU use with 52 MPI tasks x 1 OpenMP threads

MPI task timing breakdown:
Section |  min time  |  avg time  |  max time  |%varavg| %total
---------------------------------------------------------------
Pair    | 4785.4     | 4954.2     | 5181.7     | 137.5 | 71.11
Bond    | 0.10591    | 0.15361    | 0.23229    |   7.4 |  0.00
Kspace  | 1527.9     | 1728.5     | 1876.7     | 207.3 | 24.81
Neigh   | 10.774     | 11.917     | 12.862     |  13.3 |  0.17
Comm    | 207.58     | 226.92     | 260.66     |  80.7 |  3.26
Output  | 0.0009879  | 0.0010663  | 0.0022755  |   0.5 |  0.00
Modify  | 7.3042     | 9.1682     | 11.653     |  51.6 |  0.13
Other   |            | 36.08      |            |       |  0.52

Nlocal:        340.385 ave         364 max         323 min
Histogram: 5 0 11 13 7 6 4 1 1 4
Nghost:        5538.40 ave        5707 max        5343 min
Histogram: 16 3 1 2 2 4 0 0 3 21
Neighs:       108340.0 ave      117736 max       94661 min
Histogram: 2 1 2 3 5 12 12 7 4 4

Total # of neighbors = 5633701
Ave neighs/atom = 318.28819
Ave special neighs/atom = 0.0000000
Neighbor list builds = 3880
Dangerous builds = 0
Total wall time: 2:07:49
