ITEM: TIMESTEP
60000
ITEM: NUMBER OF ATOMS
17704
ITEM: BOX BOUNDS pp pp pp
-3.5852045945868455e-01 2.7698520459458763e+01
-4.3025891738473252e+00 3.3238258917384280e+02
-3.6282423938457109e-01 2.7702824239384444e+01
ITEM: ATOMS id type q x y z
1 2 2.2208 5.27065 1.28236 5.17714
2 1 -1.1104 1.18885 -2.85157 0.898765
3 1 -1.1104 1.09065 2.72176 1.01524
4 1 -1.1104 1.07476 -3.04344 3.78097
5 1 -1.1104 1.07344 2.8411 3.90133
6 1 -1.1104 1.02729 -0.0217393 0.855473
7 2 2.2208 5.20875 -1.44846 2.4531
8 2 2.2208 5.34023 4.14112 2.39394
9 1 -1.1104 1.09901 -0.233251 3.75581
10 1 -1.1104 3.95564 -2.69094 1.07997
11 1 -1.1104 3.953 2.68868 1.00665
12 2 2.2208 2.28435 1.30683 2.47376
13 1 -1.1104 3.93327 -3.10811 3.79486
14 1 -1.1104 3.71622 2.61157 3.76373
15 2 2.2208 2.5377 -1.62176 5.24077
16 2 2.2208 2.58447 4.07587 5.27704
17 1 -1.1104 3.85636 -0.0503117 1.02046
18 1 -1.1104 3.90441 -0.0945152 3.85921
9247 2 2.2208 -0.255461 15.4354 7.97548
9127 2 2.2208 -0.2669 -1.40578 8.11081
8496 2 2.2208 8.16 -4.22526 8.15912
22 1 -1.1104 3.83763 -2.89504 6.65235
32 1 -1.1104 6.59206 -0.216539 3.84498
8998 2 2.2208 -0.287639 9.75323 2.35849
480 2 2.2208 13.6472 18.4278 13.5065
20 1 -1.1104 1.14173 2.66962 6.69752
21 1 -1.1104 0.987276 -0.0839718 6.56376
51 1 -1.1104 6.63693 -2.93024 6.71896
8351 2 2.2208 10.9303 -4.29837 5.27834
9167 2 2.2208 13.7116 12.5218 7.99257
9069 2 2.2208 -0.233889 15.3164 2.41381
29 1 -1.1104 6.76233 -2.93475 3.80802
28 1 -1.1104 6.71084 2.72411 1.1116
30 1 -1.1104 6.49398 2.66697 3.7783
27 1 -1.1104 6.58208 -2.88683 0.944102
31 1 -1.1104 6.65611 -0.225118 1.06161
33 2 2.2208 10.9207 1.2623 5.36188
34 1 -1.1104 12.4571 -2.95137 1.11598
35 1 -1.1104 12.2661 2.69753 0.988872
36 1 -1.1104 12.4549 -2.85803 3.81678
37 1 -1.1104 12.2785 2.58034 3.86852
38 1 -1.1104 12.2835 -0.148983 1.02201
39 2 2.2208 10.9226 -1.52805 2.49865
40 2 2.2208 10.7749 4.02923 2.50605
41 1 -1.1104 12.1892 -0.169388 3.85618
42 1 -1.1104 9.44253 -2.7529 1.05008
43 1 -1.1104 9.45568 2.68354 1.02072
44 2 2.2208 7.97419 1.22526 2.36006
45 1 -1.1104 9.7307 -3.00882 3.84933
46 1 -1.1104 9.24754 2.47418 4.11235
47 2 2.2208 8.02664 -1.5375 5.17822
48 2 2.2208 7.91983 4.08312 5.20963
49 1 -1.1104 9.55452 -0.0498337 1.02043
50 1 -1.1104 9.41738 -0.238248 3.79696
202 1 -1.1104 9.44737 2.68851 6.79749
199 1 -1.1104 12.2763 2.63198 6.73324
304 2 2.2208 13.7274 21.058 10.5304
452 2 2.2208 10.7883 21.1877 13.4962
222 2 2.2208 8.14324 1.35669 13.5975
189 2 2.2208 5.36782 4.13976 13.5285
8997 2 2.2208 -0.305528 6.93871 5.23539
8999 2 2.2208 -0.35289 12.4564 5.18501
57 2 2.2208 5.22668 6.93157 5.25514
58 2 2.2208 5.36588 12.454 5.19137
59 1 -1.1104 1.09574 8.27311 1.01144
60 1 -1.1104 1.04951 8.39742 3.69334
61 1 -1.1104 1.15941 5.53699 1.12476
62 1 -1.1104 1.18361 11.3461 1.00072
65 2 2.2208 5.22992 9.72848 2.36058
66 1 -1.1104 1.1522 5.55217 3.95724
67 1 -1.1104 1.10287 11.1814 3.74145
68 1 -1.1104 3.9294 8.27343 0.823637
69 2 2.2208 2.40729 6.82547 2.45682
70 2 2.2208 2.53459 12.652 2.37719
71 1 -1.1104 3.83014 8.20217 3.60056
72 2 2.2208 2.39078 9.62469 5.20464
73 1 -1.1104 3.83659 5.43015 1.03452
74 1 -1.1104 3.87615 11.0705 0.855245
76 1 -1.1104 3.87821 5.47707 3.90645
77 1 -1.1104 3.87305 11.1556 3.70184
226 2 2.2208 2.37028 12.5673 13.6959
90 1 -1.1104 6.74386 5.44078 3.76768
248 1 -1.1104 6.59215 5.51964 6.61874
63 1 -1.1104 1.09405 11.0933 6.43211
78 1 -1.1104 1.03214 8.29239 6.54033
79 1 -1.1104 1.05026 5.539 6.66236
75 1 -1.1104 3.88046 11.1663 6.38941
9126 2 2.2208 -0.19131 4.15182 8.05779
8315 2 2.2208 2.5007 -4.22404 2.44991
91 1 -1.1104 6.62914 11.0683 3.83245
87 1 -1.1104 6.71276 8.3063 3.78155
88 1 -1.1104 6.80216 5.53546 0.89152
64 1 -1.1104 6.60082 11.1334 0.875769
86 1 -1.1104 6.75767 8.35657 1.04841
92 2 2.2208 10.8953 6.79429 5.21653
93 2 2.2208 10.9516 12.4836 5.28495
94 1 -1.1104 12.3256 8.32004 0.946193
95 1 -1.1104 12.4998 8.3254 3.80641
96 1 -1.1104 12.3086 5.61527 1.0458
97 1 -1.1104 12.3297 11.1941 1.15714
98 2 2.2208 10.9374 9.69691 2.51109
99 1 -1.1104 12.215 5.41698 3.90789
100 1 -1.1104 12.3053 11.2081 3.81
101 1 -1.1104 9.56524 8.36736 1.03152
102 2 2.2208 8.08053 6.93206 2.4149
103 2 2.2208 8.01731 12.5244 2.39877
104 1 -1.1104 9.57742 8.17164 3.97344
105 2 2.2208 8.03681 9.71969 5.1233
106 1 -1.1104 9.41145 5.52571 1.0874
107 1 -1.1104 9.53587 11.2178 1.07489
108 1 -1.1104 9.41825 5.5025 3.70469
109 1 -1.1104 9.37787 11.1049 3.84467
89 1 -1.1104 6.79026 11.2443 6.50668
110 1 -1.1104 6.50745 8.34932 6.63864
247 1 -1.1104 9.59542 11.1966 6.69036
258 1 -1.1104 9.40727 8.36317 6.55856
256 1 -1.1104 12.2806 8.22357 6.51034
8933 2 2.2208 -0.248638 1.24907 5.21274
314 1 -1.1104 12.1884 13.8895 9.43398
311 2 2.2208 10.8598 18.2229 10.623
124 1 -1.1104 6.73582 16.6483 6.4565
9064 2 2.2208 -0.201526 18.1119 5.11888
312 1 -1.1104 12.2583 13.723 12.103
9063 2 2.2208 -0.315056 20.9851 2.25865
114 2 2.2208 5.34538 18.1796 4.99234
115 1 -1.1104 1.11115 14.1023 0.950182
116 1 -1.1104 1.09636 19.7144 0.802741
119 1 -1.1104 1.02069 13.885 3.80611
120 1 -1.1104 1.18121 19.4294 3.52462
122 1 -1.1104 1.15613 16.8179 0.958702
125 2 2.2208 5.40545 15.3532 2.3631
126 2 2.2208 5.32422 20.905 2.17288
127 1 -1.1104 1.17647 16.6957 3.74071
129 1 -1.1104 3.87087 14.0772 0.986874
131 1 -1.1104 3.96583 19.5616 0.735081
133 2 2.2208 2.50051 18.0798 2.22937
134 1 -1.1104 3.98714 13.9794 3.75834
135 1 -1.1104 3.88199 19.4971 3.38138
136 2 2.2208 2.50082 15.4103 5.24851
137 2 2.2208 2.50082 20.9739 4.89257
138 1 -1.1104 3.93274 16.8334 0.948547
140 1 -1.1104 3.93117 16.5983 3.96597
279 1 -1.1104 1.15677 14.0409 6.61597
117 1 -1.1104 6.73296 14.0186 1.09221
139 1 -1.1104 4.04403 16.8649 6.53073
132 1 -1.1104 3.98835 19.6744 6.45913
123 1 -1.1104 1.22584 16.7915 6.56165
130 1 -1.1104 3.8296 13.9931 6.59814
319 1 -1.1104 12.3682 16.7237 9.28577
281 1 -1.1104 9.49257 13.9256 9.2993
307 1 -1.1104 12.3845 14.0639 6.73331
141 1 -1.1104 6.84044 19.687 0.740116
121 1 -1.1104 6.69976 13.8895 3.86592
143 1 -1.1104 6.70729 16.8316 0.920744
142 1 -1.1104 6.74801 19.4935 3.62286
128 1 -1.1104 6.85403 16.8313 3.66161
148 2 2.2208 10.9609 18.2394 5.13867
149 1 -1.1104 12.2711 13.8873 1.00396
150 1 -1.1104 12.2341 19.4448 0.889733
152 1 -1.1104 12.5097 14.0497 3.89419
153 1 -1.1104 12.3008 19.6934 3.7418
154 1 -1.1104 12.3084 16.8599 0.977267
155 2 2.2208 11 15.4094 2.42831
156 2 2.2208 10.9656 20.9235 2.2429
157 1 -1.1104 12.2929 16.8519 3.77023
158 1 -1.1104 9.49451 14.1256 1.14099
159 1 -1.1104 9.53497 19.6217 0.831584
161 2 2.2208 8.16782 18.1309 2.23116
162 1 -1.1104 9.73716 13.8838 3.83477
163 1 -1.1104 9.59648 19.4918 3.60777
164 2 2.2208 8.208 15.336 5.08901
165 2 2.2208 8.06018 20.9153 4.98311
166 1 -1.1104 9.51046 16.7493 0.855729
168 1 -1.1104 9.71188 16.846 3.683
308 1 -1.1104 12.4141 16.6695 6.55895
151 1 -1.1104 12.4699 19.4842 6.5465
167 1 -1.1104 9.54772 16.8785 6.46119
636 2 2.2208 10.9563 15.3586 13.5175
479 2 2.2208 8.14968 18.1266 13.5748
9249 2 2.2208 -0.222655 20.9596 7.86958
24 1 -1.1104 3.69055 -0.119832 6.58958
23 1 -1.1104 4.01941 2.71543 6.67917
321 1 -1.1104 6.70441 14.1138 12.2138
19 1 -1.1104 1.19739 -2.79497 6.71849
9251 2 2.2208 -0.33987 15.4028 13.4621
169 2 2.2208 5.35278 1.39981 10.7819
170 1 -1.1104 1.22437 -2.80314 12.3702
171 1 -1.1104 1.27307 2.68576 12.2377
172 1 -1.1104 1.15247 -3.08181 9.62276
173 1 -1.1104 1.10538 2.68031 9.42624
174 1 -1.1104 1.07644 -0.0717975 12.1849
175 2 2.2208 5.15859 -1.4714 8.06883
176 2 2.2208 5.3173 4.09504 7.92929
177 1 -1.1104 1.24385 -0.238652 9.41075
178 1 -1.1104 4.11378 -3.07421 12.3757
179 1 -1.1104 4.01392 2.73972 12.0016
180 2 2.2208 2.45829 1.36637 8.12666
181 1 -1.1104 4.09473 -2.84636 9.41166
182 1 -1.1104 3.83568 2.71543 9.35545
183 2 2.2208 2.54854 -1.5925 10.8764
185 1 -1.1104 3.92913 -0.307783 12.2015
186 1 -1.1104 3.97874 -0.0163496 9.52299
184 2 2.2208 2.62723 4.1683 10.807
52 1 -1.1104 6.6207 2.71289 6.47492
196 1 -1.1104 6.66145 -0.0244128 12.1682
310 1 -1.1104 9.55906 19.6372 9.33292
309 1 -1.1104 9.39835 13.9772 6.50925
8932 2 2.2208 -0.243976 -1.56736 2.36604
323 1 -1.1104 9.42727 13.9856 12.0792
195 1 -1.1104 6.66037 2.80339 9.33777
197 1 -1.1104 6.74541 -0.0535965 9.46995
203 1 -1.1104 9.42303 -0.292293 6.62828
198 1 -1.1104 12.3513 -2.90936 6.73119
200 1 -1.1104 12.2443 0.0059977 6.7102
191 1 -1.1104 6.6837 -0.182518 6.62111
201 1 -1.1104 9.5686 -2.91177 6.68633
194 1 -1.1104 6.78027 -2.87246 9.46629
193 1 -1.1104 6.85556 2.7803 12.2111
192 1 -1.1104 6.83403 -3.0296 12.2805
204 2 2.2208 10.9618 1.39195 10.8091
205 1 -1.1104 12.2483 -3.04499 12.5
206 1 -1.1104 12.4115 2.59871 12.2656
207 1 -1.1104 12.3267 -2.91501 9.58136
208 1 -1.1104 12.3682 2.6493 9.46961
209 1 -1.1104 12.355 -0.00749296 12.2928
210 2 2.2208 10.8302 -1.46064 8.20757
211 2 2.2208 10.9072 4.06593 8.10988
212 1 -1.1104 12.2807 -0.167746 9.51046
213 1 -1.1104 9.59075 -2.96044 12.2447
214 1 -1.1104 9.62795 2.85921 12.2092
215 2 2.2208 8.03572 1.27567 8.0346
216 1 -1.1104 9.56523 -2.90441 9.50229
217 1 -1.1104 9.43012 2.71056 9.56794
218 2 2.2208 8.14711 -1.47385 10.8575
219 2 2.2208 8.08362 4.08286 10.6921
220 1 -1.1104 9.50434 -0.0472086 12.1978
221 1 -1.1104 9.4295 -0.034101 9.44661
118 1 -1.1104 6.65564 19.58 6.41895
9196 2 2.2208 -0.247608 6.96173 10.8382
278 2 2.2208 10.949 9.80365 13.5604
80 1 -1.1104 3.85047 8.26691 6.6033
81 1 -1.1104 3.76542 5.46753 6.61811
227 2 2.2208 5.4005 6.86999 10.838
228 2 2.2208 5.28928 12.4854 10.8318
229 1 -1.1104 1.06645 8.33988 12.2274
230 1 -1.1104 1.12204 8.63928 9.39875
231 1 -1.1104 0.982602 5.51577 12.2935
232 1 -1.1104 1.07922 11.1139 12.289
233 2 2.2208 5.37063 9.77454 7.98273
234 1 -1.1104 1.12154 5.58792 9.42194
235 1 -1.1104 0.995481 11.4386 9.33637
236 1 -1.1104 4.03379 8.28282 12.1879
237 2 2.2208 2.47106 6.93298 7.94346
238 2 2.2208 2.44691 12.6095 8.00122
239 1 -1.1104 3.88947 8.25413 9.39195
240 2 2.2208 2.54329 9.7414 10.9116
241 1 -1.1104 3.92889 5.45556 12.1875
242 1 -1.1104 3.87633 11.2183 12.1344
243 1 -1.1104 3.97894 5.57526 9.48295
244 1 -1.1104 3.93212 10.9766 9.37696
280 2 2.2208 5.22161 15.2536 13.5029
253 1 -1.1104 6.84467 5.49703 9.35508
251 1 -1.1104 6.80619 5.47382 12.1344
324 1 -1.1104 9.49735 16.7854 9.28443
635 2 2.2208 2.41498 18.1361 13.6509
145 1 -1.1104 6.608 13.8894 6.61195
250 1 -1.1104 6.58367 8.50519 9.49865
252 1 -1.1104 6.81613 11.1709 12.2163
260 1 -1.1104 9.56221 5.44159 6.5415
257 1 -1.1104 12.368 5.45226 6.59964
254 1 -1.1104 6.8008 11.2675 9.37978
249 1 -1.1104 6.9214 8.26535 12.1924
246 1 -1.1104 12.4446 11.1302 6.62425
255 1 -1.1104 9.62551 11.0603 9.31658
259 1 -1.1104 9.55085 5.40627 9.34073
261 1 -1.1104 9.59887 11.1766 12.3985
262 1 -1.1104 9.56526 5.61167 12.1264
263 2 2.2208 8.19025 9.84068 10.8068
264 1 -1.1104 9.44666 8.30534 9.31944
265 2 2.2208 8.08201 12.6414 7.96538
266 2 2.2208 8.21233 6.92102 7.95657
267 2 2.2208 10.9321 6.85342 10.8031
268 2 2.2208 10.9272 12.3702 10.7897
269 1 -1.1104 12.414 8.25075 12.0288
270 1 -1.1104 12.2289 8.25024 9.27556
271 1 -1.1104 12.5036 5.41981 12.2761
272 1 -1.1104 12.3903 11.0821 12.0711
273 2 2.2208 10.9378 9.62572 7.97376
274 1 -1.1104 12.2492 5.49 9.47749
275 1 -1.1104 12.3283 11.1198 9.371
276 1 -1.1104 9.61195 8.38419 11.991
317 2 2.2208 10.7818 15.3396 7.96907
315 1 -1.1104 12.3685 19.6273 9.31179
9192 2 2.2208 -0.27457 12.5546 10.7642
291 1 -1.1104 6.70374 19.669 12.1734
322 1 -1.1104 6.78523 16.851 12.0712
277 2 2.2208 8.15232 12.6036 13.6278
9250 2 2.2208 -0.275859 18.3176 10.6665
296 1 -1.1104 1.13445 19.5486 6.27763
282 1 -1.1104 3.82298 19.5467 12.2315
283 1 -1.1104 3.86343 13.9666 12.1466
286 1 -1.1104 1.1367 19.6329 9.20485
287 1 -1.1104 1.15464 16.8682 9.20729
288 2 2.2208 5.2947 21.043 7.90968
289 1 -1.1104 1.07726 14.1101 9.42141
290 2 2.2208 5.33187 15.4195 7.83984
292 1 -1.1104 0.983753 19.7103 12.1765
293 1 -1.1104 0.985183 14.0529 12.185
294 2 2.2208 5.26239 18.095 10.6265
295 1 -1.1104 4.01794 19.6249 9.44641
297 2 2.2208 2.70434 18.2467 7.78399
298 1 -1.1104 3.9083 16.7937 9.20711
299 1 -1.1104 3.93945 13.9221 9.29984
300 1 -1.1104 1.16789 16.9895 11.9386
301 1 -1.1104 3.86038 16.7913 12.0267
302 2 2.2208 2.52106 20.9972 10.8886
303 2 2.2208 2.46007 15.485 10.7072
313 1 -1.1104 12.4025 19.8394 12.0834
316 1 -1.1104 12.2946 16.7537 12.2648
325 1 -1.1104 9.50206 16.8065 12.1707
306 2 2.2208 8.00036 18.2606 7.70728
320 1 -1.1104 6.58876 14.0892 9.41648
305 1 -1.1104 9.67122 19.5581 12.0752
284 1 -1.1104 6.73623 19.6274 9.20877
160 1 -1.1104 9.59786 19.4454 6.38432
326 2 2.2208 7.95847 20.9435 10.8011
318 2 2.2208 11.0227 20.8455 7.78861
285 1 -1.1104 6.56772 16.8288 9.17075
327 2 2.2208 8.09773 15.3551 10.8088
9197 2 2.2208 -0.364876 9.80388 7.97885
9418 2 2.2208 -0.298726 20.9765 13.5769
9128 2 2.2208 -0.307424 1.31855 10.7046
9168 2 2.2208 13.6474 12.5535 13.6211
9225 2 2.2208 13.699 15.3181 10.6783
187 2 2.2208 5.34587 -1.45569 13.6159
225 2 2.2208 2.43164 6.82451 13.6419
245 2 2.2208 8.17188 6.86005 13.4828
8901 2 2.2208 13.6684 4.07871 5.30082
8903 2 2.2208 13.6143 -1.46179 5.19083
56 2 2.2208 2.51295 9.78832 -0.343427
25 2 2.2208 5.18259 1.35563 -0.35092
188 2 2.2208 2.59356 1.15608 13.5392
224 2 2.2208 5.40521 9.68512 13.4282
9132 2 2.2208 -0.190464 3.97651 13.5897
85 2 2.2208 10.8327 12.5799 -0.264497
84 2 2.2208 10.9485 6.88382 -0.292846
330 2 2.2208 5.40937 1.4262 16.365
331 1 -1.1104 1.14671 -2.9701 17.7406
332 1 -1.1104 1.19622 2.66959 17.9339
333 1 -1.1104 0.989823 -2.91726 15.1191
334 1 -1.1104 1.16478 2.47217 15.0037
335 1 -1.1104 1.05593 -0.100673 17.8838
336 2 2.2208 5.3005 -1.34703 19.1454
337 2 2.2208 5.20885 4.18015 19.2466
338 1 -1.1104 1.05537 -0.215245 14.912
339 1 -1.1104 4.00554 -2.69549 17.8362
340 1 -1.1104 3.87798 2.77278 17.7951
341 2 2.2208 2.43045 1.36646 19.3374
342 1 -1.1104 3.96362 -2.78807 15.081
343 1 -1.1104 4.02707 2.86639 14.7867
344 2 2.2208 2.60703 -1.48322 16.5112
345 2 2.2208 2.4718 4.02646 16.2988
346 1 -1.1104 3.97912 0.0847507 17.9086
347 1 -1.1104 3.90633 0.119467 15.0287
147 2 2.2208 8.10283 15.3333 27.6454
8667 2 2.2208 8.13889 -4.23479 19.2614
9308 2 2.2208 -0.158282 1.29083 16.443
486 1 -1.1104 3.77139 0.0211272 20.7451
349 1 -1.1104 6.6446 2.77461 17.9398
9309 2 2.2208 -0.351542 -1.49271 19.1988
9307 2 2.2208 -0.375507 4.20838 19.2688
8853 2 2.2208 11.0096 -4.26415 22.0067
17674 2 2.2208 13.7135 -4.28401 24.7894
483 1 -1.1104 1.09859 -0.146302 20.6047
484 1 -1.1104 4.02205 -2.66124 20.7131
8819 2 2.2208 5.46794 -4.30171 21.9993
82 2 2.2208 5.33022 6.86136 27.6291
350 1 -1.1104 6.80027 -2.73305 14.9959
353 1 -1.1104 6.76701 -0.00405819 14.9392
348 1 -1.1104 6.83616 -2.80411 17.7234
351 1 -1.1104 6.71836 2.74451 15.0112
352 1 -1.1104 6.82341 0.0384437 17.8141
355 2 2.2208 10.8943 1.4192 16.3952
356 1 -1.1104 12.4369 -2.95042 17.9022
357 1 -1.1104 12.3467 2.7334 17.7772
358 1 -1.1104 12.3277 -2.63109 15.153
360 1 -1.1104 12.3559 2.8442 15.1209
362 1 -1.1104 12.3674 -0.00875257 17.8868
363 2 2.2208 10.9832 -1.47327 19.2183
364 2 2.2208 10.8836 4.09015 19.2107
365 1 -1.1104 12.1924 0.00128014 15.0579
367 1 -1.1104 9.50197 -2.84954 17.9207
368 1 -1.1104 9.51636 2.63041 17.914
369 2 2.2208 8.1776 1.31294 19.2853
370 1 -1.1104 9.50315 -2.92525 15.1295
372 1 -1.1104 9.49054 2.85691 14.9681
374 2 2.2208 8.26862 -1.3332 16.414
375 2 2.2208 8.12278 4.12918 16.3345
376 1 -1.1104 9.67511 -0.0549757 17.735
377 1 -1.1104 9.55573 0.0116343 14.8811
613 1 -1.1104 9.4675 19.7884 26.0544
8820 2 2.2208 5.1894 -4.26207 27.6495
506 1 -1.1104 7.03903 -2.82826 20.5613
373 1 -1.1104 9.57497 2.77472 20.6819
366 1 -1.1104 12.2713 -0.0212204 20.6477
361 1 -1.1104 12.3082 2.82966 20.5398
359 1 -1.1104 12.343 -2.87217 20.6033
83 2 2.2208 8.07702 9.68971 27.6499
8668 2 2.2208 10.8843 -4.31679 16.5508
379 2 2.2208 5.28368 6.79755 16.3262
380 2 2.2208 5.31264 12.4572 16.2728
381 1 -1.1104 1.06672 8.32569 17.7336
382 1 -1.1104 1.09163 8.24346 14.8959
383 1 -1.1104 0.884228 5.3565 17.6818
384 1 -1.1104 0.938466 11.1219 17.9148
385 2 2.2208 5.19109 9.67626 19.1352
386 1 -1.1104 1.19654 5.35955 14.9314
387 1 -1.1104 1.12842 11.0549 15.0929
388 1 -1.1104 3.90523 8.2029 17.6389
389 2 2.2208 2.45544 6.86312 19.1606
390 2 2.2208 2.51507 12.4391 19.306
391 1 -1.1104 3.93605 8.3396 14.8792
392 2 2.2208 2.44271 9.65193 16.3215
393 1 -1.1104 3.84426 5.46607 17.8267
394 1 -1.1104 3.72008 11.0107 17.9461
395 1 -1.1104 3.84151 5.53614 14.9097
396 1 -1.1104 3.86203 11.2093 15.0074
9478 2 2.2208 13.6828 6.96463 24.8033
538 1 -1.1104 3.84572 11.1764 20.7604
403 1 -1.1104 6.65276 11.1544 14.8055
9363 2 2.2208 -0.33552 6.76897 16.4291
534 1 -1.1104 1.11263 5.39469 20.5987
533 1 -1.1104 1.04635 8.25248 20.4591
536 1 -1.1104 3.78936 8.39279 20.5548
623 1 -1.1104 12.4671 19.5541 20.552
593 1 -1.1104 6.81927 19.6642 20.6465
463 1 -1.1104 12.0931 13.8515 20.6251
397 1 -1.1104 6.73224 8.26418 17.8361
398 1 -1.1104 6.79648 8.21625 14.8994
400 1 -1.1104 6.65091 11.0239 17.6053
399 1 -1.1104 6.73047 5.60123 17.6364
401 1 -1.1104 6.92684 5.44779 14.8342
404 2 2.2208 11.0646 6.92723 16.3322
405 2 2.2208 10.8731 12.6213 16.4817
406 1 -1.1104 12.2369 8.38935 17.8196
407 1 -1.1104 12.3476 8.43126 14.9894
409 1 -1.1104 12.2143 5.52983 17.7284
410 1 -1.1104 12.2626 11.1133 17.7023
411 2 2.2208 10.9643 9.67829 19.2223
412 1 -1.1104 12.4627 5.54541 14.9211
414 1 -1.1104 12.3244 11.2747 14.9786
416 1 -1.1104 9.60578 8.26336 17.8007
417 2 2.2208 8.16489 6.86406 19.1
418 2 2.2208 8.1132 12.4458 19.1864
419 1 -1.1104 9.63806 8.36011 14.9798
421 2 2.2208 8.14764 9.62326 16.3956
422 1 -1.1104 9.53347 5.44503 17.7296
423 1 -1.1104 9.4585 11.0191 17.8822
424 1 -1.1104 9.66234 5.49641 14.921
426 1 -1.1104 9.41867 11.3102 15.2083
413 1 -1.1104 12.3461 5.67491 20.6436
564 1 -1.1104 6.73797 11.1428 20.5234
408 1 -1.1104 12.1834 8.40667 20.6689
9000 2 2.2208 -0.32915 6.90442 27.6057
473 1 -1.1104 9.30322 13.9543 20.6027
190 2 2.2208 10.9626 4.16113 13.6577
587 1 -1.1104 6.71247 19.6077 23.4237
113 2 2.2208 2.53872 20.9671 27.506
429 2 2.2208 5.25096 18.0587 16.2939
430 1 -1.1104 0.920504 13.9494 17.7993
431 1 -1.1104 1.10475 19.6278 17.8019
433 1 -1.1104 0.953218 13.8165 14.9218
435 1 -1.1104 0.922646 19.4835 15.0791
438 1 -1.1104 0.981122 16.7826 17.7772
440 2 2.2208 5.32764 15.32 19.0914
441 2 2.2208 5.26864 20.954 19.2027
442 1 -1.1104 1.07601 16.6206 14.9262
443 1 -1.1104 3.87029 13.7722 17.7146
444 1 -1.1104 3.95022 19.453 17.8455
445 2 2.2208 2.47121 18.1875 19.2052
446 1 -1.1104 3.85942 13.984 15.0315
447 1 -1.1104 3.72896 19.5804 15.0552
448 2 2.2208 2.36463 15.3761 16.3402
449 2 2.2208 2.37086 20.956 16.476
450 1 -1.1104 3.80581 16.7085 17.7048
451 1 -1.1104 3.89988 16.76 14.8426
597 1 -1.1104 3.83382 19.4167 20.5501
458 1 -1.1104 6.77535 16.8726 14.7949
456 1 -1.1104 6.75913 13.8699 17.6847
596 1 -1.1104 3.87197 14.0501 20.5372
595 1 -1.1104 6.78487 16.9411 20.519
634 1 -1.1104 9.53806 19.6683 23.2083
439 1 -1.1104 6.50425 16.6642 17.4462
457 1 -1.1104 6.7521 13.9686 14.9818
432 1 -1.1104 6.70812 19.5077 17.8185
437 1 -1.1104 6.6277 19.5957 15.0326
459 2 2.2208 10.7668 18.1572 16.3594
460 1 -1.1104 12.2744 14.052 17.8761
461 1 -1.1104 12.3642 19.4844 17.6927
462 1 -1.1104 12.2084 14.1152 14.9612
464 1 -1.1104 12.2221 19.9875 14.9129
465 1 -1.1104 12.2854 16.6996 17.8076
466 2 2.2208 10.8836 15.3017 19.2295
467 2 2.2208 10.9265 20.9318 19.2013
468 1 -1.1104 12.2071 16.9975 14.9426
469 1 -1.1104 9.50848 14.0819 17.7978
470 1 -1.1104 9.51787 19.5931 17.7142
471 2 2.2208 8.14941 18.2977 19.1407
472 1 -1.1104 9.56826 14.1118 14.9291
474 1 -1.1104 9.40576 19.5526 14.9622
475 2 2.2208 8.149 15.3481 16.2792
476 2 2.2208 8.00295 20.8949 16.4148
477 1 -1.1104 9.42267 16.7681 17.8098
478 1 -1.1104 9.56154 16.734 14.9288
626 1 -1.1104 9.48431 16.6656 20.5905
592 1 -1.1104 6.58109 13.8887 20.4259
624 1 -1.1104 12.3603 16.6874 20.5755
112 2 2.2208 5.34586 18.0997 27.5402
9455 2 2.2208 -0.251051 4.14645 24.8566
9571 2 2.2208 -0.227375 15.3793 24.7939
485 1 -1.1104 3.95191 2.71732 20.6158
481 1 -1.1104 1.07497 -2.95461 20.6872
482 1 -1.1104 1.17348 2.58668 20.8133
487 2 2.2208 5.29811 1.19454 22.0905
488 1 -1.1104 0.906677 -2.93637 23.4114
489 1 -1.1104 0.983366 2.61334 23.5216
490 1 -1.1104 0.993456 -2.83588 26.2108
491 1 -1.1104 1.16959 2.66584 26.3431
492 1 -1.1104 1.07347 -0.0775666 23.4305
493 2 2.2208 5.22099 -1.51226 24.8144
494 2 2.2208 5.19164 4.11693 24.8234
495 1 -1.1104 0.947103 0.0527395 26.0865
496 1 -1.1104 3.86828 -2.84338 23.5009
497 1 -1.1104 3.9207 2.67137 23.3974
498 2 2.2208 2.45003 1.35125 24.8975
499 1 -1.1104 3.94657 -2.9876 26.1381
500 1 -1.1104 3.89713 2.75691 26.2987
501 2 2.2208 2.40997 -1.56563 22.0895
502 2 2.2208 2.53564 3.96464 22.0269
503 1 -1.1104 3.87937 -0.155497 23.521
504 1 -1.1104 3.8215 -0.0876096 26.2343
513 1 -1.1104 6.57971 0.137876 26.3075
9457 2 2.2208 -0.294834 -1.49865 24.833
9391 2 2.2208 -0.321925 21.1072 19.1491
606 1 -1.1104 6.79584 19.5293 26.1781
26 2 2.2208 2.48496 4.18777 27.675
146 2 2.2208 10.8963 18.2086 27.5233
605 1 -1.1104 6.66476 16.7875 23.2479
510 1 -1.1104 6.77769 -2.54169 26.1772
507 1 -1.1104 6.70998 2.76601 20.6729
354 1 -1.1104 6.57791 -0.046016 20.639
378 1 -1.1104 9.55506 -0.0240098 20.6729
508 1 -1.1104 6.73727 -2.89392 23.4688
509 1 -1.1104 6.62837 2.76335 23.3766
512 1 -1.1104 6.70986 -0.0509519 23.3391
511 1 -1.1104 6.56446 2.8228 26.3409
371 1 -1.1104 9.71174 -2.88405 20.7474
514 2 2.2208 10.974 1.34389 22.0562
515 1 -1.1104 12.295 -2.89169 23.3979
516 1 -1.1104 12.1922 2.72891 23.4297
517 1 -1.1104 12.4239 -2.95074 26.2875
518 1 -1.1104 12.3601 2.61987 26.1851
519 1 -1.1104 12.3127 0.0343312 23.4806
520 2 2.2208 10.9419 -1.43169 24.836
521 2 2.2208 10.9202 4.13614 24.8411
522 1 -1.1104 12.362 -0.209251 26.2364
523 1 -1.1104 9.41293 -3.00784 23.4039
524 1 -1.1104 9.49458 2.62862 23.4694
525 2 2.2208 8.02005 1.43525 24.7998
526 1 -1.1104 9.56595 -2.83897 26.214
527 1 -1.1104 9.48172 2.82667 26.2334
528 2 2.2208 8.20036 -1.49778 22.0527
529 2 2.2208 8.04291 4.14203 21.9868
530 1 -1.1104 9.45299 -0.0287276 23.5005
531 1 -1.1104 9.56957 0.0782862 26.1487
17596 2 2.2208 -0.289074 -4.27977 27.6894
535 1 -1.1104 1.02891 11.098 20.7384
9532 2 2.2208 -0.273387 6.91312 21.9247
537 1 -1.1104 3.91118 5.50302 20.5596
539 2 2.2208 5.35179 7.0355 21.8963
540 2 2.2208 5.2946 12.5819 22.0099
541 1 -1.1104 0.954971 8.35253 23.3338
543 1 -1.1104 0.941236 8.23376 26.1472
544 1 -1.1104 1.06571 5.46807 23.4869
545 1 -1.1104 1.19068 11.169 23.5652
546 2 2.2208 5.26089 9.77569 24.8491
547 1 -1.1104 1.03071 5.44794 26.2366
548 1 -1.1104 1.02033 11.0471 26.3789
550 1 -1.1104 3.76589 8.19038 23.3801
551 2 2.2208 2.467 6.87007 24.8987
552 2 2.2208 2.43901 12.5456 24.8546
553 1 -1.1104 3.80875 8.4742 26.183
554 2 2.2208 2.44182 9.59562 21.9851
555 1 -1.1104 3.82285 5.52817 23.4704
556 1 -1.1104 3.96697 10.992 23.499
557 1 -1.1104 3.84583 5.56303 26.2003
558 1 -1.1104 3.77597 11.2678 26.1658
549 1 -1.1104 6.56415 11.2486 26.1063
573 1 -1.1104 6.75275 5.46962 26.2657
8996 2 2.2208 -0.324274 12.5426 27.6603
532 1 -1.1104 9.51513 14.0407 26.2936
8644 2 2.2208 5.43785 -4.31347 16.4932
427 1 -1.1104 9.42033 11.1084 20.6629
425 1 -1.1104 9.4463 5.52927 20.4848
402 1 -1.1104 6.65543 5.54917 20.4409
420 1 -1.1104 9.4161 8.35733 20.6884
415 1 -1.1104 12.2973 11.2282 20.5243
563 1 -1.1104 6.58231 8.38125 20.479
572 1 -1.1104 6.76013 11.1162 23.3898
570 1 -1.1104 6.61644 8.33517 26.2811
542 1 -1.1104 6.61257 8.33972 23.3413
571 1 -1.1104 6.62154 5.60783 23.4326
559 2 2.2208 10.9144 9.69841 24.7689
560 1 -1.1104 12.2811 11.1101 23.4587
561 1 -1.1104 12.2442 5.44349 23.4473
562 1 -1.1104 12.2904 8.34157 26.1193
565 1 -1.1104 12.2464 8.34403 23.3589
566 2 2.2208 10.7872 12.5406 22.0434
567 2 2.2208 10.7011 6.86757 22.0127
568 2 2.2208 7.97681 6.82898 24.8549
569 1 -1.1104 9.41189 8.21613 23.4219
574 2 2.2208 8.07651 12.5353 24.8221
575 1 -1.1104 12.2454 11.1671 26.2664
576 1 -1.1104 12.4068 5.42771 26.2763
577 1 -1.1104 9.39806 11.1335 26.2554
578 1 -1.1104 9.49254 5.46235 26.279
579 1 -1.1104 9.542 11.1044 23.4534
580 1 -1.1104 9.38667 5.38091 23.3042
581 2 2.2208 8.01269 9.72438 21.9734
582 1 -1.1104 9.42225 8.26426 26.2384
584 1 -1.1104 6.78277 14.003 23.2888
594 1 -1.1104 1.07401 16.7862 20.6502
598 1 -1.1104 3.97243 16.7567 20.3782
436 1 -1.1104 1.05535 19.4747 20.5049
434 1 -1.1104 1.1233 14.0038 20.5608
612 2 2.2208 2.56887 15.347 21.931
583 1 -1.1104 1.1802 19.4853 23.3954
585 2 2.2208 5.34113 15.2857 24.7714
586 2 2.2208 5.21379 20.9178 24.7775
588 1 -1.1104 1.12379 13.9479 26.2724
589 1 -1.1104 0.940242 16.9472 26.2895
590 1 -1.1104 3.96952 16.7264 23.4462
591 1 -1.1104 1.15606 16.8142 23.4791
599 1 -1.1104 1.14749 19.6494 26.1435
601 1 -1.1104 3.92978 13.9851 23.3393
602 1 -1.1104 3.91977 19.7111 23.3019
603 1 -1.1104 1.23591 13.9864 23.3713
604 2 2.2208 2.44846 20.9001 21.892
607 2 2.2208 5.29827 18.2558 21.9341
608 1 -1.1104 3.97971 19.4255 26.152
609 1 -1.1104 3.93377 13.9335 26.1321
610 1 -1.1104 3.8211 16.6837 26.2515
611 2 2.2208 2.45636 18.1339 24.8232
9576 2 2.2208 -0.316521 20.9551 24.7726
629 2 2.2208 10.7452 21.1423 24.627
8852 2 2.2208 8.06157 -4.21045 24.8894
628 2 2.2208 10.8178 15.4067 24.8756
625 1 -1.1104 9.64948 19.4873 20.5591
622 1 -1.1104 12.3336 16.8074 23.3311
630 1 -1.1104 12.2737 16.8056 26.2469
617 1 -1.1104 12.195 13.8704 23.4166
614 2 2.2208 10.9657 18.1918 21.942
505 2 2.2208 8.16691 18.3003 24.6775
618 1 -1.1104 12.2244 19.5952 23.3528
600 1 -1.1104 6.67932 16.7246 26.1152
627 1 -1.1104 9.50875 16.7393 23.2427
631 1 -1.1104 9.52999 13.9898 23.387
621 2 2.2208 8.06886 21.0311 21.9912
615 2 2.2208 8.05311 15.37 21.8781
620 1 -1.1104 12.4189 19.4819 26.2952
619 1 -1.1104 12.2866 13.9875 26.203
632 1 -1.1104 9.46616 16.8159 26.1521
633 1 -1.1104 6.7883 13.9926 26.326
53 2 2.2208 10.8762 1.23167 27.6332
8643 2 2.2208 2.58284 -4.21975 19.2681
55 2 2.2208 5.25174 12.5668 27.5619
9456 2 2.2208 -0.289073 1.20841 22.027
9477 2 2.2208 13.6931 12.5723 24.8749
9504 2 2.2208 -0.341257 9.79108 24.8155
9066 2 2.2208 -0.36 18.2404 27.639
111 2 2.2208 2.51088 15.4511 27.6609
329 2 2.2208 8.12483 -1.50627 27.7039
144 2 2.2208 8.14012 21.0136 27.5665
9577 2 2.2208 -0.245377 18.1627 22.0514
9365 2 2.2208 -0.314282 9.70607 19.1267
54 2 2.2208 8.02622 4.01481 27.5943
9505 2 2.2208 -0.27004 12.4772 21.9886
328 2 2.2208 2.54979 -1.45336 27.7056
453 2 2.2208 13.5515 15.3966 16.4102
9448 2 2.2208 13.6396 4.15356 22.0966
9025 2 2.2208 13.5924 20.934 27.5167
454 2 2.2208 13.6382 21.0045 16.4694
8936 2 2.2208 -0.3919 1.22359 27.624
8523 2 2.2208 11.011 -4.16491 27.6752
223 2 2.2208 10.8822 -1.47183 13.7179
9252 2 2.2208 -0.282959 -1.6192 13.807
428 2 2.2208 5.20676 20.8782 13.6246
9193 2 2.2208 -0.325791 9.74413 13.7556
637 2 2.2208 5.28655 23.738 5.00185
638 2 2.2208 5.33959 29.2941 5.00609
639 1 -1.1104 1.25271 25.2455 0.972581
640 1 -1.1104 1.16926 25.0757 3.80248
641 1 -1.1104 1.1358 22.394 0.940393
642 1 -1.1104 1.05784 28.0653 0.778086
643 2 2.2208 5.20656 26.5987 2.29775
644 1 -1.1104 1.00161 22.2699 3.58548
645 1 -1.1104 1.14431 27.9688 3.73785
646 1 -1.1104 3.98171 25.2369 0.971105
647 2 2.2208 2.56433 23.7328 2.30581
648 2 2.2208 2.38979 29.4453 2.38798
649 1 -1.1104 3.91107 25.1682 3.87298
650 2 2.2208 2.48923 26.5294 5.27918
651 1 -1.1104 3.92045 22.4477 0.912163
652 1 -1.1104 3.74575 28.1073 0.908444
653 1 -1.1104 3.93695 22.1688 3.66414
654 1 -1.1104 3.83836 27.8187 3.65413
667 1 -1.1104 3.80747 22.4017 6.54527
9644 2 2.2208 -0.346949 26.6388 2.38084
668 1 -1.1104 3.95921 27.9334 6.59097
662 1 -1.1104 1.07766 25.1423 6.6792
657 1 -1.1104 6.82923 25.1857 3.5938
664 1 -1.1104 1.13806 22.3068 6.48978
666 1 -1.1104 3.80899 25.1101 6.61223
9853 2 2.2208 -0.296068 34.9326 10.9015
1006 2 2.2208 5.40929 26.6596 13.5783
788 2 2.2208 -0.263803 46.2738 5.29915
9646 2 2.2208 -0.294785 23.8283 5.23974
660 1 -1.1104 6.8155 22.2799 3.70053
658 1 -1.1104 6.6739 22.4564 0.866868
661 1 -1.1104 6.72709 28.0326 3.62044
656 1 -1.1104 6.74064 25.1894 0.834478
659 1 -1.1104 6.63155 28.0491 0.98765
671 2 2.2208 10.9571 23.7585 5.12302
672 2 2.2208 10.8403 29.4726 5.12237
673 1 -1.1104 12.3561 25.1607 0.811275
674 1 -1.1104 12.3144 25.2386 3.70449
675 1 -1.1104 12.4709 22.3681 0.85351
676 1 -1.1104 12.2281 28.0522 0.88856
677 2 2.2208 10.9285 26.5129 2.20314
678 1 -1.1104 12.3257 22.5092 3.64722
679 1 -1.1104 12.4594 28.0071 4.02682
680 1 -1.1104 9.50049 25.1826 0.825556
681 2 2.2208 8.17411 23.819 2.25587
682 2 2.2208 8.12842 29.3093 2.29
683 1 -1.1104 9.4599 25.215 3.64079
684 2 2.2208 8.00081 26.7006 5.0638
685 1 -1.1104 9.59747 22.3309 0.946299
686 1 -1.1104 9.43547 28.0469 0.898943
687 1 -1.1104 9.61796 22.3288 3.62597
688 1 -1.1104 9.65649 27.9339 3.7118
692 1 -1.1104 9.5018 25.077 6.40386
691 1 -1.1104 6.60101 27.9373 6.49941
663 1 -1.1104 6.67439 25.1164 6.40484
694 1 -1.1104 9.41894 27.9663 6.41927
932 1 -1.1104 6.64429 42.0837 12.3717
699 2 2.2208 5.33455 35.0278 5.28358
700 1 -1.1104 1.03313 30.8304 1.0229
701 1 -1.1104 0.994525 36.5891 1.00252
703 1 -1.1104 1.10406 30.9297 3.8186
704 1 -1.1104 1.15662 36.499 3.93113
706 1 -1.1104 1.10815 33.7316 1.1519
707 2 2.2208 5.30495 32.2461 2.2666
708 2 2.2208 5.30849 37.8173 2.36101
709 1 -1.1104 0.964562 33.5902 3.97336
711 1 -1.1104 3.96302 30.7695 0.905762
712 1 -1.1104 3.8571 36.6118 0.842543
713 2 2.2208 2.47495 35.1861 2.3915
714 1 -1.1104 3.83434 30.6223 3.83301
715 1 -1.1104 3.96473 36.4154 3.85855
716 2 2.2208 2.53278 32.2685 5.23297
717 2 2.2208 2.48427 37.851 5.34776
718 1 -1.1104 4.00183 33.7295 0.954105
719 1 -1.1104 3.8921 33.715 3.75502
1372 1 -1.1104 9.49279 47.745 4.09951
9705 2 2.2208 -0.393624 32.2403 2.40624
730 1 -1.1104 3.90787 33.6029 6.6117
872 1 -1.1104 1.11658 30.9098 6.58645
729 1 -1.1104 3.92479 36.5236 6.77347
873 1 -1.1104 1.03423 36.5488 6.62203
722 1 -1.1104 6.79543 30.8357 0.795496
874 1 -1.1104 1.13608 33.7958 6.74242
725 1 -1.1104 6.60459 30.7222 6.50588
789 2 2.2208 -0.287952 43.5242 2.47092
702 1 -1.1104 6.69031 36.3193 1.0979
705 1 -1.1104 6.78957 36.4165 3.87416
724 1 -1.1104 6.75938 33.5861 0.798168
710 1 -1.1104 6.69728 33.5939 3.68725
723 1 -1.1104 6.69813 30.8993 3.53943