ITEM: TIMESTEP
80000
ITEM: NUMBER OF ATOMS
17704
ITEM: BOX BOUNDS pp pp pp
-3.5501621508707865e-01 2.7695016215087279e+01
-4.3502606289873755e+00 3.3243026062898264e+02
-3.6764730823591379e-01 2.7707647308235313e+01
ITEM: ATOMS id type q x y z
1 2 2.2208 5.19153 1.20466 5.32789
2 1 -1.1104 0.83971 -2.85866 1.07428
3 1 -1.1104 0.822576 2.63154 0.884802
4 1 -1.1104 0.968561 -2.91429 3.80086
5 1 -1.1104 1.00697 2.45623 3.8692
6 1 -1.1104 0.819251 -0.0415854 1.07785
7 2 2.2208 5.01702 -1.58521 2.48149
8 2 2.2208 5.02009 4.07382 2.4904
9 1 -1.1104 0.884366 -0.187189 3.71107
10 1 -1.1104 3.7372 -3.05605 1.09274
11 1 -1.1104 3.59654 2.64712 0.988755
12 2 2.2208 2.34632 1.24918 2.48006
13 1 -1.1104 3.81763 -2.80594 3.91187
14 1 -1.1104 3.6491 2.65913 3.86943
15 2 2.2208 2.26802 -1.54602 5.26909
16 2 2.2208 2.34729 3.89174 5.33421
17 1 -1.1104 3.71183 -0.168159 1.08956
18 1 -1.1104 3.63714 -0.0601345 3.96062
30 1 -1.1104 6.48719 2.717 3.83813
32 1 -1.1104 6.60126 -0.00293365 3.95982
28 1 -1.1104 6.49262 2.68386 0.966365
29 1 -1.1104 6.56112 -2.76088 3.83153
31 1 -1.1104 6.39463 -0.0665018 1.1474
27 1 -1.1104 6.54742 -2.92114 0.989719
21 1 -1.1104 0.720601 -0.140934 6.58913
20 1 -1.1104 0.964527 2.69158 6.73745
191 1 -1.1104 6.60468 -0.247818 6.64038
51 1 -1.1104 6.50428 -2.91837 6.70133
22 1 -1.1104 3.66548 -2.92102 6.63134
17322 2 2.2208 13.5053 -4.29905 13.7354
52 1 -1.1104 6.58449 2.65948 6.50635
24 1 -1.1104 3.76045 -0.112672 6.72512
23 1 -1.1104 3.74237 2.65991 6.58887
479 2 2.2208 7.94931 18.1334 13.5738
8903 2 2.2208 13.5397 -1.68238 5.23537
33 2 2.2208 10.7536 1.12383 5.21796
34 1 -1.1104 12.1376 -2.79755 1.189
35 1 -1.1104 12.0758 2.64959 1.10141
36 1 -1.1104 12.1216 -2.9691 3.83049
37 1 -1.1104 12.1892 2.60809 3.82987
38 1 -1.1104 12.0395 -0.0623939 1.02537
39 2 2.2208 10.764 -1.46548 2.47373
40 2 2.2208 10.7299 4.03238 2.31625
41 1 -1.1104 12.2361 -0.168794 3.79797
42 1 -1.1104 9.32039 -2.94216 1.09619
43 1 -1.1104 9.38026 2.4924 0.990179
44 2 2.2208 7.80781 1.30531 2.40434
45 1 -1.1104 9.26629 -3.0965 4.00552
46 1 -1.1104 9.27982 2.47628 3.82143
47 2 2.2208 8.02321 -1.54466 5.26025
48 2 2.2208 8.05694 4.0246 5.16165
49 1 -1.1104 9.21961 -0.132606 1.08498
50 1 -1.1104 9.42903 -0.202214 3.80819
8902 2 2.2208 13.5283 1.26868 2.46562
203 1 -1.1104 9.31999 -0.27695 6.70469
199 1 -1.1104 12.2566 2.71891 6.60674
201 1 -1.1104 9.23276 -2.97569 6.63282
8901 2 2.2208 13.5131 3.99673 5.25822
200 1 -1.1104 12.1017 -0.254766 6.63141
202 1 -1.1104 9.39772 2.41944 6.59942
189 2 2.2208 5.17512 3.90711 13.7158
57 2 2.2208 5.05771 6.73724 5.1848
58 2 2.2208 5.15945 12.3929 5.16296
59 1 -1.1104 0.967761 8.30278 0.93132
60 1 -1.1104 0.934701 8.31251 3.62092
61 1 -1.1104 0.980465 5.44769 0.944491
62 1 -1.1104 0.964994 11.1161 0.87577
65 2 2.2208 5.19219 9.67798 2.30164
66 1 -1.1104 0.870344 5.33481 3.70633
67 1 -1.1104 0.855884 11.0138 3.6729
68 1 -1.1104 3.67149 8.30387 0.893907
69 2 2.2208 2.31386 6.88969 2.40174
70 2 2.2208 2.38465 12.4515 2.34131
71 1 -1.1104 3.69054 8.28893 3.71245
72 2 2.2208 2.20664 9.62759 5.05986
73 1 -1.1104 3.86641 5.39903 1.04035
74 1 -1.1104 3.82735 11.1818 0.853155
76 1 -1.1104 3.55817 5.32246 3.96281
77 1 -1.1104 3.75348 11.0891 3.56104
86 1 -1.1104 6.43601 8.27517 1.09289
87 1 -1.1104 6.67547 8.35689 3.86394
91 1 -1.1104 6.53633 11.0638 3.68098
89 1 -1.1104 6.51087 10.9578 6.58387
81 1 -1.1104 3.8391 5.5472 6.65267
248 1 -1.1104 6.68891 5.35366 6.56745
88 1 -1.1104 6.60716 5.33294 1.00589
90 1 -1.1104 6.44599 5.56144 3.67675
64 1 -1.1104 6.50549 11.0528 0.886082
79 1 -1.1104 0.79748 5.57212 6.69185
110 1 -1.1104 6.4974 8.0458 6.69753
63 1 -1.1104 0.996187 11.0491 6.43581
78 1 -1.1104 0.89852 8.31315 6.56668
80 1 -1.1104 3.75325 8.24669 6.53373
75 1 -1.1104 3.65053 11.036 6.40587
8967 2 2.2208 13.4765 12.3573 2.26317
8963 2 2.2208 13.6053 9.59012 5.20233
8968 2 2.2208 13.4487 6.84618 2.36199
92 2 2.2208 10.7289 6.8175 5.13899
93 2 2.2208 10.7189 12.4894 5.12109
94 1 -1.1104 11.902 8.15261 1.08843
95 1 -1.1104 12.1912 8.24608 3.8261
96 1 -1.1104 12.118 5.39721 0.879551
97 1 -1.1104 11.9795 10.9567 0.982375
98 2 2.2208 10.4914 9.65243 2.47269
99 1 -1.1104 12.0534 5.41221 3.70345
100 1 -1.1104 11.9396 11.0546 3.81373
101 1 -1.1104 9.19609 8.31435 1.15948
102 2 2.2208 8.024 6.80381 2.36552
103 2 2.2208 7.96314 12.4856 2.25593
104 1 -1.1104 9.33488 8.25593 3.90695
105 2 2.2208 7.90876 9.6332 5.32204
106 1 -1.1104 9.37181 5.27554 0.874209
107 1 -1.1104 9.14865 11.0021 0.85765
108 1 -1.1104 9.42048 5.42742 3.6373
109 1 -1.1104 9.22082 11.0337 3.77418
260 1 -1.1104 9.47398 5.38334 6.43765
246 1 -1.1104 12.1778 10.9225 6.60497
256 1 -1.1104 12.1959 8.22228 6.66966
258 1 -1.1104 9.34415 8.06268 6.56875
257 1 -1.1104 12.1126 5.49461 6.59788
247 1 -1.1104 9.41756 10.9121 6.59038
114 2 2.2208 5.15019 17.9587 5.31265
115 1 -1.1104 0.881397 13.8985 0.831713
116 1 -1.1104 0.891427 19.3292 1.00654
119 1 -1.1104 0.994462 13.835 3.7745
120 1 -1.1104 1.03262 19.4238 3.91944
122 1 -1.1104 0.840234 16.6078 1.06445
125 2 2.2208 5.10956 15.3317 2.42441
126 2 2.2208 5.16663 20.8657 2.41587
127 1 -1.1104 0.984851 16.6543 3.68055
129 1 -1.1104 3.796 13.9226 0.979549
131 1 -1.1104 3.78312 19.5101 0.942982
133 2 2.2208 2.37561 18.0943 2.38339
134 1 -1.1104 3.66124 13.8713 3.7676
135 1 -1.1104 3.82537 19.5466 3.71098
136 2 2.2208 2.25499 15.2731 5.19177
137 2 2.2208 2.34702 21.0042 5.28923
138 1 -1.1104 3.68924 16.7479 1.00254
140 1 -1.1104 3.76967 16.7401 3.81954
142 1 -1.1104 6.61119 19.532 3.71998
117 1 -1.1104 6.53591 14.0494 0.928184
141 1 -1.1104 6.49045 19.4843 1.01307
121 1 -1.1104 6.46765 13.8059 3.69971
128 1 -1.1104 6.50153 16.7596 3.83722
143 1 -1.1104 6.49386 16.7516 0.944389
132 1 -1.1104 3.71672 19.516 6.57586
279 1 -1.1104 0.8672 13.9012 6.58366
124 1 -1.1104 6.57521 16.6915 6.71696
139 1 -1.1104 3.69085 16.7703 6.55908
130 1 -1.1104 3.78101 13.965 6.60665
296 1 -1.1104 0.972428 19.584 6.67842
118 1 -1.1104 6.57058 19.3768 6.51883
145 1 -1.1104 6.49538 13.9039 6.63266
9028 2 2.2208 13.5326 17.9282 2.46315
148 2 2.2208 10.7192 17.8755 5.1573
149 1 -1.1104 12.1944 13.7666 0.956519
150 1 -1.1104 12.1195 19.2832 1.02392
152 1 -1.1104 12.1197 13.858 3.77542
153 1 -1.1104 12.1562 19.3755 3.85973
154 1 -1.1104 12.088 16.52 0.93841
155 2 2.2208 10.7071 15.1483 2.28475
156 2 2.2208 10.7151 20.6929 2.36317
157 1 -1.1104 12.0423 16.5587 3.80947
158 1 -1.1104 9.39034 13.7244 0.91646
159 1 -1.1104 9.23426 19.3676 0.877656
161 2 2.2208 7.82781 18.0552 2.37696
162 1 -1.1104 9.31159 13.9918 3.76235
163 1 -1.1104 9.35663 19.3499 3.72328
164 2 2.2208 7.83164 15.317 5.06947
165 2 2.2208 7.97147 20.9026 5.04283
166 1 -1.1104 9.30887 16.6204 0.861842
168 1 -1.1104 9.1817 16.6574 3.76938
9030 2 2.2208 13.469 20.7321 5.15589
307 1 -1.1104 12.0972 13.7381 6.5717
160 1 -1.1104 9.41332 19.5553 6.57766
9029 2 2.2208 13.5911 15.1487 5.10704
308 1 -1.1104 12.2463 16.4169 6.64553
167 1 -1.1104 9.39692 16.5816 6.6031
151 1 -1.1104 12.2525 19.1214 6.65661
309 1 -1.1104 9.24771 13.7309 6.59061
19 1 -1.1104 0.766564 -2.91625 6.53956
8350 2 2.2208 7.96464 -4.2723 2.41474
8351 2 2.2208 10.5946 -4.4799 5.28957
169 2 2.2208 5.06983 1.2521 10.7532
170 1 -1.1104 0.928649 -2.87604 12.234
171 1 -1.1104 1.0156 2.72441 12.3417
172 1 -1.1104 0.853456 -2.99967 9.48026
173 1 -1.1104 0.922389 2.59845 9.39284
174 1 -1.1104 1.00956 0.00106807 12.2762
175 2 2.2208 5.18206 -1.61274 8.11841
176 2 2.2208 5.22373 4.05582 8.00929
177 1 -1.1104 0.89897 -0.157288 9.58556
178 1 -1.1104 3.7105 -3.01686 12.2762
179 1 -1.1104 3.74337 2.56209 12.2668
180 2 2.2208 2.39194 1.225 8.01634
181 1 -1.1104 3.71305 -2.93989 9.44247
182 1 -1.1104 3.83672 2.66907 9.25837
183 2 2.2208 2.33469 -1.6222 10.89
185 1 -1.1104 3.76339 -0.197548 12.3112
186 1 -1.1104 3.80828 -0.157771 9.36134
184 2 2.2208 2.4283 4.04014 10.8273
195 1 -1.1104 6.57913 2.62844 9.40869
193 1 -1.1104 6.47116 2.63108 12.2458
197 1 -1.1104 6.5248 -0.100276 9.35707
192 1 -1.1104 6.60699 -2.98246 12.3476
194 1 -1.1104 6.56019 -2.78673 9.61859
196 1 -1.1104 6.51507 -0.133992 12.1369
9107 2 2.2208 13.5066 1.29212 13.6491
198 1 -1.1104 12.047 -2.94269 6.71389
9102 2 2.2208 13.4703 3.93641 10.7605
17155 2 2.2208 13.5484 -4.31124 2.45913
480 2 2.2208 13.4974 18.0598 13.7033
225 2 2.2208 2.27288 6.78824 13.587
9104 2 2.2208 13.4939 -1.55371 10.9296
9103 2 2.2208 13.4295 1.16737 8.02393
204 2 2.2208 10.7334 1.23886 10.8941
205 1 -1.1104 12.3191 -2.86537 12.2735
206 1 -1.1104 12.2011 2.65593 12.0899
207 1 -1.1104 12.213 -2.89483 9.49871
208 1 -1.1104 12.0205 2.63059 9.40519
209 1 -1.1104 12.1258 -0.13058 12.2495
210 2 2.2208 10.6461 -1.55807 8.05768
212 1 -1.1104 11.9731 -0.0795862 9.42509
213 1 -1.1104 9.49669 -3.05182 12.3234
214 1 -1.1104 9.27995 2.52577 12.2388
215 2 2.2208 7.95122 1.13224 8.09408
216 1 -1.1104 9.28482 -2.90883 9.37108
217 1 -1.1104 9.18824 2.68845 9.37827
218 2 2.2208 7.97192 -1.58874 10.9636
219 2 2.2208 7.98124 4.00575 10.8338
220 1 -1.1104 9.32926 -0.183241 12.2767
221 1 -1.1104 9.29068 -0.258404 9.67392
211 2 2.2208 10.7267 4.07495 7.83654
325 1 -1.1104 9.34265 16.6571 12.1722
306 2 2.2208 8.01981 18.2096 7.89857
227 2 2.2208 5.02102 6.78682 10.7907
228 2 2.2208 5.12565 12.492 10.7113
229 1 -1.1104 0.889533 8.27504 12.1066
230 1 -1.1104 0.823546 8.299 9.2272
231 1 -1.1104 0.835612 5.41104 12.3635
232 1 -1.1104 0.948128 10.9877 12.2444
233 2 2.2208 4.96475 9.66111 7.88721
234 1 -1.1104 1.08615 5.41859 9.49444
235 1 -1.1104 0.84013 11.0918 9.41931
236 1 -1.1104 3.64798 8.28903 12.2096
237 2 2.2208 2.32051 6.82592 8.04301
238 2 2.2208 2.33542 12.4525 8.0053
239 1 -1.1104 3.63732 8.14179 9.33977
240 2 2.2208 2.24415 9.68625 10.7411
241 1 -1.1104 3.76202 5.36501 12.2027
242 1 -1.1104 3.78317 11.062 12.075
243 1 -1.1104 3.69636 5.43331 9.36286
244 1 -1.1104 3.6702 10.9734 9.21921
254 1 -1.1104 6.44103 11.2324 9.38805
249 1 -1.1104 6.50101 8.28674 12.2189
252 1 -1.1104 6.49051 11.0789 12.2234
253 1 -1.1104 6.38301 5.38093 9.42883
250 1 -1.1104 6.51196 8.31803 9.48727
251 1 -1.1104 6.59632 5.46764 12.1999
83 2 2.2208 7.83416 9.73077 -0.617798
224 2 2.2208 5.15111 9.73335 13.5748
226 2 2.2208 2.2747 12.3786 13.6381
428 2 2.2208 5.18068 20.8473 13.4453
312 1 -1.1104 12.2381 13.8967 12.2277
9167 2 2.2208 13.5338 12.5305 7.98688
9166 2 2.2208 13.4824 9.70563 10.8207
255 1 -1.1104 9.3221 10.9764 9.4056
259 1 -1.1104 9.16098 5.3251 9.3443
261 1 -1.1104 9.21414 11.0736 12.2082
262 1 -1.1104 9.35399 5.38869 12.1776
263 2 2.2208 7.9605 9.69389 10.8359
264 1 -1.1104 9.27124 8.18222 9.45824
265 2 2.2208 7.83494 12.4733 7.94709
266 2 2.2208 7.86215 6.80021 8.04507
267 2 2.2208 10.5532 6.88795 10.735
268 2 2.2208 10.7122 12.3706 10.8171
269 1 -1.1104 12.0884 8.30616 12.1727
270 1 -1.1104 11.9753 8.20647 9.45875
271 1 -1.1104 12.2301 5.38912 12.1203
272 1 -1.1104 12.0961 10.951 12.2784
273 2 2.2208 10.7849 9.61961 7.95111
274 1 -1.1104 12.0284 5.39116 9.34233
275 1 -1.1104 12.1593 11.1409 9.52121
276 1 -1.1104 9.37102 8.37184 12.2241
9172 2 2.2208 13.5216 6.81686 8.03656
245 2 2.2208 7.8704 6.88263 13.702
277 2 2.2208 7.92426 12.4611 13.6311
317 2 2.2208 10.7306 15.1865 7.9947
635 2 2.2208 2.29773 18.0551 13.6457
188 2 2.2208 2.3487 1.28031 13.6353
284 1 -1.1104 6.62528 19.5506 9.24358
320 1 -1.1104 6.36016 13.975 9.50564
291 1 -1.1104 6.40468 19.4578 12.0732
123 1 -1.1104 0.860811 16.7345 6.51187
322 1 -1.1104 6.63789 16.6755 12.2218
282 1 -1.1104 3.71138 19.3836 12.1693
283 1 -1.1104 3.82008 13.8194 12.1099
286 1 -1.1104 0.824164 19.2841 9.33232
287 1 -1.1104 0.991972 16.7158 9.31703
288 2 2.2208 4.99946 20.8587 7.95842
289 1 -1.1104 0.943196 13.9642 9.3175
290 2 2.2208 5.1034 15.2768 8.00702
292 1 -1.1104 0.873803 19.5635 12.2116
293 1 -1.1104 0.967735 13.8493 12.0428
294 2 2.2208 5.22711 18.0125 10.8204
295 1 -1.1104 3.71449 19.446 9.33587
297 2 2.2208 2.37039 18.1334 8.00251
298 1 -1.1104 3.70017 16.6833 9.37536
299 1 -1.1104 3.607 13.6881 9.37386
300 1 -1.1104 0.931382 16.6684 12.2015
301 1 -1.1104 3.7899 16.6791 12.1846
302 2 2.2208 2.24394 20.8995 10.7192
303 2 2.2208 2.32726 15.1921 10.7679
321 1 -1.1104 6.55175 13.842 12.1081
285 1 -1.1104 6.51052 16.7328 9.48725
9168 2 2.2208 13.4226 12.4092 13.6681
190 2 2.2208 10.7246 3.99932 13.6561
305 1 -1.1104 9.12293 19.4266 12.0729
326 2 2.2208 7.97419 20.9104 10.6916
311 2 2.2208 10.688 18.0581 10.6209
9224 2 2.2208 13.6292 17.798 7.88798
304 2 2.2208 13.5339 20.7965 10.7923
310 1 -1.1104 9.39781 19.5492 9.38819
314 1 -1.1104 11.9349 13.8061 9.4598
281 1 -1.1104 9.2588 14.0325 9.27879
318 2 2.2208 10.6795 20.8821 7.88244
313 1 -1.1104 12.0104 19.6982 12.1322
316 1 -1.1104 12.0274 16.9362 12.4149
315 1 -1.1104 12.1542 19.4095 9.5272
327 2 2.2208 7.93119 15.2074 10.7044
9225 2 2.2208 13.5458 15.3184 10.8512
323 1 -1.1104 9.33319 13.801 12.2168
324 1 -1.1104 9.44021 16.7397 9.23009
319 1 -1.1104 12.2249 16.5894 9.46182
144 2 2.2208 8.02231 20.9448 -0.505263
8820 2 2.2208 5.11017 -4.32399 -0.359944
9171 2 2.2208 13.543 6.80135 13.5293
26 2 2.2208 2.21673 4.07149 -0.410653
330 2 2.2208 5.2544 1.14003 16.5489
331 1 -1.1104 0.92535 -2.92996 17.8802
332 1 -1.1104 0.92988 2.72083 17.9321
333 1 -1.1104 0.775508 -3.23593 15.1541
334 1 -1.1104 0.941734 2.63261 15.0113
335 1 -1.1104 0.949423 -0.296683 17.9117
336 2 2.2208 5.09478 -1.5824 19.2485
337 2 2.2208 5.26383 4.06835 19.2146
338 1 -1.1104 0.851278 -0.143342 15.198
339 1 -1.1104 3.74369 -3.07201 17.9904
340 1 -1.1104 3.61859 2.62058 17.7822
341 2 2.2208 2.3395 1.22953 19.2866
342 1 -1.1104 3.56685 -3.08999 15.1844
343 1 -1.1104 3.6971 2.56008 14.9894
344 2 2.2208 2.33958 -1.65485 16.5523
345 2 2.2208 2.17273 4.01088 16.413
346 1 -1.1104 3.85214 -0.152176 17.9408
347 1 -1.1104 3.74188 -0.312921 15.1206
482 1 -1.1104 1.01376 2.63886 20.7466
349 1 -1.1104 6.60235 2.60542 17.9028
353 1 -1.1104 6.50842 -0.336195 15.0469
348 1 -1.1104 6.48965 -3.14808 17.7867
351 1 -1.1104 6.55868 2.72839 15.0837
483 1 -1.1104 0.869373 0.0203225 20.6435
486 1 -1.1104 3.57361 -0.0834687 20.7506
352 1 -1.1104 6.5278 -0.337417 17.9372
481 1 -1.1104 0.749803 -2.93601 20.7039
485 1 -1.1104 3.87762 2.65153 20.5582
350 1 -1.1104 6.49119 -3.14088 14.9571
506 1 -1.1104 6.59129 -3.05382 20.7751
9025 2 2.2208 13.52 20.8696 27.6298
355 2 2.2208 10.6938 1.34346 16.4394
356 1 -1.1104 12.1114 -2.97664 17.9443
357 1 -1.1104 11.955 2.65481 17.8012
358 1 -1.1104 12.0274 -3.00591 15.0423
360 1 -1.1104 12.1095 2.7147 14.8762
362 1 -1.1104 12.1999 -0.227218 17.9772
363 2 2.2208 10.6798 -1.53615 19.3957
364 2 2.2208 10.5856 4.0165 19.2998
365 1 -1.1104 12.0286 -0.11989 15.1891
367 1 -1.1104 9.23952 -2.98191 17.9976
368 1 -1.1104 9.22198 2.52771 17.9559
369 2 2.2208 7.90167 1.15473 19.3637
370 1 -1.1104 9.2112 -3.01698 15.0293
372 1 -1.1104 9.31619 2.54379 14.9862
374 2 2.2208 7.89973 -1.62358 16.4347
375 2 2.2208 7.87797 3.90569 16.501
376 1 -1.1104 9.40421 -0.111858 17.8815
377 1 -1.1104 9.2825 -0.191267 15.0886
359 1 -1.1104 11.952 -3.16482 20.7547
9288 2 2.2208 13.5302 1.30587 19.2497
9287 2 2.2208 13.4368 4.09065 16.4241
373 1 -1.1104 9.2664 2.50518 20.7169
53 2 2.2208 10.7729 1.26853 27.7869
361 1 -1.1104 11.9572 2.57797 20.6251
371 1 -1.1104 9.28906 -3.14086 20.7506
378 1 -1.1104 9.31341 -0.212912 20.7748
366 1 -1.1104 12.1181 -0.116656 20.6833
8818 2 2.2208 2.32462 -4.38072 25.0301
8853 2 2.2208 10.7095 -4.43468 22.0727
17674 2 2.2208 13.356 -4.35855 24.8985
622 1 -1.1104 12.097 16.5969 23.5283
379 2 2.2208 5.06237 6.78758 16.4492
380 2 2.2208 5.12471 12.3337 16.4935
381 1 -1.1104 0.764551 8.18181 17.7351
382 1 -1.1104 0.844347 8.30079 14.941
383 1 -1.1104 0.800435 5.42922 17.8361
384 1 -1.1104 0.882667 10.8981 17.7879
385 2 2.2208 5.17522 9.63073 19.2767
386 1 -1.1104 0.968877 5.44887 15.1133
387 1 -1.1104 0.966257 11.0908 15.0683
388 1 -1.1104 3.71909 8.24346 17.7147
389 2 2.2208 2.33527 6.77549 19.07
390 2 2.2208 2.22557 12.3499 19.259
391 1 -1.1104 3.47191 8.25558 14.9536
392 2 2.2208 2.28841 9.62082 16.3313
393 1 -1.1104 3.7418 5.41337 17.8732
394 1 -1.1104 3.60701 10.8771 17.7984
395 1 -1.1104 3.76879 5.36171 15.1697
396 1 -1.1104 3.7851 11.1891 15.0484
397 1 -1.1104 6.57428 8.28258 17.9433
398 1 -1.1104 6.41656 8.22346 15.0102
403 1 -1.1104 6.66542 11.105 15.0594
401 1 -1.1104 6.39862 5.29255 15.0103
400 1 -1.1104 6.57963 10.8946 17.8845
564 1 -1.1104 6.49898 11.0402 20.628
402 1 -1.1104 6.50489 5.40525 20.5373
399 1 -1.1104 6.567 5.48171 17.7233
533 1 -1.1104 0.998838 8.28966 20.61
536 1 -1.1104 3.78008 8.25926 20.5465
563 1 -1.1104 6.525 8.29245 20.5722
538 1 -1.1104 3.81309 11.1134 20.5787
535 1 -1.1104 0.95962 11.0302 20.7893
9335 2 2.2208 13.4697 6.85302 19.1878
9344 2 2.2208 13.5179 9.50814 16.3822
404 2 2.2208 10.6979 6.7537 16.3739
405 2 2.2208 10.6331 12.5402 16.4901
406 1 -1.1104 12.0424 8.31944 17.657
407 1 -1.1104 12.056 8.23505 14.8822
409 1 -1.1104 12.0655 5.42294 17.8004
410 1 -1.1104 12.1542 11.1276 17.7924
411 2 2.2208 10.8239 9.71162 19.195
412 1 -1.1104 12.1001 5.41907 14.9987
414 1 -1.1104 11.9983 10.9082 15.1917
416 1 -1.1104 9.32116 8.09445 17.7075
417 2 2.2208 7.90468 6.82142 19.1342
418 2 2.2208 7.86679 12.3397 19.2155
419 1 -1.1104 9.19258 8.30765 15.0127
421 2 2.2208 7.89949 9.47669 16.5548
422 1 -1.1104 9.36904 5.40247 17.9375
423 1 -1.1104 9.22087 11.0273 17.852
424 1 -1.1104 9.20862 5.54981 15.1579
426 1 -1.1104 9.41537 11.0964 14.9842
9336 2 2.2208 13.4814 12.4839 19.2048
413 1 -1.1104 12.1349 5.3432 20.7032
420 1 -1.1104 9.33336 8.26726 20.44
425 1 -1.1104 9.19199 5.35359 20.6748
415 1 -1.1104 12.2335 10.9856 20.7406
429 2 2.2208 5.16265 17.9587 16.3447
430 1 -1.1104 0.883905 13.713 17.9818
431 1 -1.1104 0.843518 19.4522 17.7306
433 1 -1.1104 0.9105 13.9241 15.0325
435 1 -1.1104 0.935784 19.4535 14.8879
438 1 -1.1104 0.915675 16.5503 17.9337
440 2 2.2208 5.05173 15.12 19.2825
441 2 2.2208 5.01162 20.7273 19.2653
442 1 -1.1104 0.878519 16.6167 15.0438
443 1 -1.1104 3.67759 13.6836 17.9561
444 1 -1.1104 3.58353 19.3721 17.8986
445 2 2.2208 2.16715 18.084 19.2
446 1 -1.1104 3.69193 13.7754 15.0487
447 1 -1.1104 3.72352 19.3675 15.1722
448 2 2.2208 2.2965 15.1179 16.551
449 2 2.2208 2.37165 20.901 16.2589
450 1 -1.1104 3.66067 16.469 17.9712
451 1 -1.1104 3.74881 16.5373 14.9775
458 1 -1.1104 6.62008 16.6022 15.0761
437 1 -1.1104 6.6293 19.4056 14.9298
457 1 -1.1104 6.50252 13.8468 14.9717
456 1 -1.1104 6.39654 13.8491 17.7957
432 1 -1.1104 6.46953 19.3798 17.6355
592 1 -1.1104 6.5212 13.8198 20.5771
594 1 -1.1104 0.904451 16.6946 20.6426
439 1 -1.1104 6.3956 16.6571 17.9764
434 1 -1.1104 0.93244 13.7558 20.6633
436 1 -1.1104 1.00377 19.5316 20.6825
598 1 -1.1104 3.69842 16.6207 20.7566
596 1 -1.1104 3.61019 13.7217 20.8536
597 1 -1.1104 3.854 19.3559 20.6337
593 1 -1.1104 6.64889 19.3489 20.6273
595 1 -1.1104 6.51058 16.5774 20.7245
453 2 2.2208 13.4724 15.2742 16.445
459 2 2.2208 10.6118 18.0813 16.5351
460 1 -1.1104 12.1351 13.8543 17.8575
461 1 -1.1104 12.2374 19.4334 17.8923
462 1 -1.1104 12.0533 13.9565 14.9359
464 1 -1.1104 12.1103 19.669 14.9251
465 1 -1.1104 12.1147 16.7078 17.9649
466 2 2.2208 10.6406 15.178 19.2648
467 2 2.2208 10.5724 20.7989 19.2315
468 1 -1.1104 12.2919 16.8131 15.2676
469 1 -1.1104 9.3465 13.793 17.8705
470 1 -1.1104 9.24661 19.5608 17.7908
471 2 2.2208 7.81487 17.9526 19.2282
472 1 -1.1104 9.2466 13.9207 15.0347
474 1 -1.1104 9.40123 19.5118 14.982
475 2 2.2208 7.86482 15.2309 16.5275
476 2 2.2208 7.90548 20.8226 16.3166
477 1 -1.1104 9.26548 16.6738 17.8102
478 1 -1.1104 9.34792 16.8123 15.1322
454 2 2.2208 13.4214 20.8975 16.5979
455 2 2.2208 13.6136 18.1021 19.1402
624 1 -1.1104 11.9819 16.4133 20.8008
463 1 -1.1104 12.1191 13.8368 20.5923
473 1 -1.1104 9.3506 13.7019 20.6697
626 1 -1.1104 9.29722 16.5988 20.5605
354 1 -1.1104 6.36978 -0.282506 20.625
507 1 -1.1104 6.50883 2.47629 20.6142
484 1 -1.1104 3.57547 -2.94825 20.7051
487 2 2.2208 4.99831 1.18706 22.062
488 1 -1.1104 0.928168 -2.85045 23.511
489 1 -1.1104 0.89383 2.56375 23.4129
490 1 -1.1104 0.970394 -2.92056 26.3227
491 1 -1.1104 0.875718 2.64912 26.1596
492 1 -1.1104 0.723245 -0.101837 23.4161
493 2 2.2208 5.10646 -1.44906 24.9161
494 2 2.2208 5.18986 4.07459 24.9426
495 1 -1.1104 0.890272 -0.212986 26.343
496 1 -1.1104 3.66745 -2.77325 23.6295
497 1 -1.1104 3.68466 2.54052 23.3404
498 2 2.2208 2.28256 1.29862 24.8377
499 1 -1.1104 3.81333 -2.80976 26.384
500 1 -1.1104 3.6806 2.64507 26.2172
501 2 2.2208 2.27404 -1.50408 22.0634
502 2 2.2208 2.35916 4.10126 22.0426
503 1 -1.1104 3.44655 -0.205641 23.5104
504 1 -1.1104 3.67416 -0.104694 26.3023
512 1 -1.1104 6.39006 -0.229282 23.5365
510 1 -1.1104 6.56477 -2.84604 26.3314
508 1 -1.1104 6.5408 -2.97425 23.553
513 1 -1.1104 6.54226 -0.145908 26.4053
509 1 -1.1104 6.44223 2.61539 23.3477
511 1 -1.1104 6.54998 2.82545 26.1532
82 2 2.2208 5.02556 6.70177 27.7071
25 2 2.2208 5.11365 1.2725 27.6983
628 2 2.2208 10.6716 15.2165 24.7303
9286 2 2.2208 13.5525 -1.4345 16.6236
9448 2 2.2208 13.4897 4.10413 22.0891
9419 2 2.2208 13.5297 1.33845 24.9345
8643 2 2.2208 2.26601 -4.39163 19.3134
9422 2 2.2208 13.3884 -1.58093 22.2133
514 2 2.2208 10.6299 1.31447 22.1616
515 1 -1.1104 12.0425 -2.84542 23.459
516 1 -1.1104 12.083 2.72159 23.4907
517 1 -1.1104 12.2352 -2.8992 26.3204
518 1 -1.1104 12.0335 2.73748 26.397
519 1 -1.1104 11.9874 0.0377827 23.6756
520 2 2.2208 10.7508 -1.38498 24.9796
522 1 -1.1104 12.1293 -0.0282395 26.4329
523 1 -1.1104 9.43951 -2.86731 23.4767
524 1 -1.1104 9.1807 2.67021 23.5545
525 2 2.2208 7.85635 1.30621 24.8749
526 1 -1.1104 9.31449 -2.94948 26.3002
527 1 -1.1104 9.19886 2.74618 26.3198
528 2 2.2208 7.9455 -1.61368 22.0914
529 2 2.2208 7.80692 3.8529 22.0744
530 1 -1.1104 9.28982 -0.102927 23.4261
531 1 -1.1104 9.34692 -0.141468 26.3536
521 2 2.2208 10.5917 4.102 24.9413
54 2 2.2208 7.89947 4.06252 27.7324
618 1 -1.1104 12.0165 19.4963 23.4403
9552 2 2.2208 13.4966 17.9138 24.8169
630 1 -1.1104 12.0778 16.6052 26.2492
623 1 -1.1104 11.9071 19.3786 20.5838
55 2 2.2208 5.19797 12.5461 27.582
534 1 -1.1104 0.867471 5.47811 20.7246
537 1 -1.1104 3.60931 5.4159 20.6339
631 1 -1.1104 9.26052 13.8813 23.3763
539 2 2.2208 5.15049 6.81545 21.9628
540 2 2.2208 5.13206 12.4629 22.0383
541 1 -1.1104 0.93161 8.38373 23.4259
543 1 -1.1104 0.964841 8.33325 26.2834
544 1 -1.1104 0.88606 5.40864 23.4887
545 1 -1.1104 1.06877 11.0067 23.6094
546 2 2.2208 5.25525 9.56611 24.8197
547 1 -1.1104 0.830098 5.49566 26.2689
548 1 -1.1104 0.955643 11.187 26.1898
550 1 -1.1104 3.6819 8.17773 23.4195
551 2 2.2208 2.2711 6.87155 24.8834
552 2 2.2208 2.50838 12.4301 24.7966
553 1 -1.1104 3.63728 8.32645 26.2837
554 2 2.2208 2.29192 9.59572 22.0604
555 1 -1.1104 3.84997 5.34732 23.2694
556 1 -1.1104 3.78815 10.9726 23.3033
557 1 -1.1104 3.64526 5.40697 26.1692
558 1 -1.1104 3.75234 11.0186 26.1794
571 1 -1.1104 6.59384 5.25805 23.4957
542 1 -1.1104 6.40059 7.99569 23.4534
549 1 -1.1104 6.50507 11.0376 26.1437
573 1 -1.1104 6.53508 5.38102 26.3084
572 1 -1.1104 6.53858 10.8924 23.3827
570 1 -1.1104 6.50027 8.18369 26.3109
17496 2 2.2208 13.6421 -4.33546 19.2967
408 1 -1.1104 12.0138 8.05698 20.6237
427 1 -1.1104 9.37324 10.9911 20.5147
9499 2 2.2208 13.4846 9.63103 22.1694
9478 2 2.2208 13.5163 6.83373 24.9391
559 2 2.2208 10.7316 9.63721 24.8449
560 1 -1.1104 12.0573 11.0849 23.4864
561 1 -1.1104 12.1604 5.59239 23.4274
562 1 -1.1104 12.1708 8.21228 26.3019
565 1 -1.1104 12.0793 8.28668 23.4135
566 2 2.2208 10.7465 12.4694 21.9234
567 2 2.2208 10.6598 6.77531 22.0239
568 2 2.2208 7.89572 6.65164 24.8294
569 1 -1.1104 9.30693 8.21583 23.3434
574 2 2.2208 7.98936 12.3887 24.669
575 1 -1.1104 12.1583 10.9187 26.2877
576 1 -1.1104 12.1047 5.43963 26.222
577 1 -1.1104 9.27744 10.9849 26.1149
578 1 -1.1104 9.32653 5.5369 26.2822
579 1 -1.1104 9.44965 11.068 23.3541
580 1 -1.1104 9.18512 5.42519 23.4293
581 2 2.2208 8.13088 9.59188 21.9347
582 1 -1.1104 9.30807 8.17555 26.2627
9477 2 2.2208 13.5573 12.4441 24.725
84 2 2.2208 10.631 6.90123 27.6721
8966 2 2.2208 13.4366 9.59678 27.6777
56 2 2.2208 2.29469 9.72261 27.5958
9031 2 2.2208 13.5911 15.1724 27.6277
8905 2 2.2208 13.5798 -1.4416 27.7769
111 2 2.2208 2.35623 15.1559 27.7531
606 1 -1.1104 6.61445 19.5681 26.3432
584 1 -1.1104 6.55313 13.7263 23.3941
612 2 2.2208 2.29097 15.285 22.0533
583 1 -1.1104 0.807828 19.4238 23.5055
585 2 2.2208 5.1284 15.2726 24.8336
586 2 2.2208 5.19521 20.9151 24.8429
588 1 -1.1104 0.90864 13.911 26.0819
589 1 -1.1104 0.987776 16.7352 26.4058
590 1 -1.1104 3.74013 16.755 23.5689
591 1 -1.1104 0.990853 16.6801 23.4729
599 1 -1.1104 0.976894 19.5732 26.3909
601 1 -1.1104 3.79688 13.8818 23.389
602 1 -1.1104 3.61604 19.4469 23.4813
603 1 -1.1104 0.948722 13.7598 23.4737
604 2 2.2208 2.28543 20.9427 22.0324
607 2 2.2208 5.0422 18.0663 22.179
608 1 -1.1104 3.70429 19.5307 26.2787
609 1 -1.1104 3.83481 13.6993 26.192
610 1 -1.1104 3.83549 16.6013 26.2428
611 2 2.2208 2.27618 18.1133 24.9007
605 1 -1.1104 6.63708 16.6653 23.5446
633 1 -1.1104 6.64863 13.9631 26.1893
600 1 -1.1104 6.52328 16.6864 26.4111
587 1 -1.1104 6.47429 19.5274 23.42
113 2 2.2208 2.31835 20.9823 27.6464
629 2 2.2208 10.7118 20.9019 24.8035
620 1 -1.1104 12.2723 19.4566 26.2639
616 2 2.2208 13.4725 20.9491 22.043
505 2 2.2208 7.9631 18.1108 24.9044
613 1 -1.1104 9.48532 19.4319 26.3189
617 1 -1.1104 12.0881 13.7143 23.4275
614 2 2.2208 10.5516 17.9889 22.0262
621 2 2.2208 7.80501 20.8515 21.9485
632 1 -1.1104 9.32262 16.5334 26.1023
532 1 -1.1104 9.51387 13.7976 26.2109
634 1 -1.1104 9.1906 19.5723 23.5993
615 2 2.2208 7.89647 15.2237 22.1625
328 2 2.2208 2.27954 -1.4045 27.6945
627 1 -1.1104 9.43807 16.622 23.4034
625 1 -1.1104 9.18871 19.2789 20.7418
619 1 -1.1104 12.3399 13.6705 26.4035
146 2 2.2208 10.6809 17.9168 27.6565
8668 2 2.2208 10.6926 -4.32939 16.577
636 2 2.2208 10.6345 15.2562 13.6027
8515 2 2.2208 7.87431 -4.44136 13.6574
187 2 2.2208 5.1469 -1.66938 13.5444
278 2 2.2208 10.6519 9.6563 13.5438
147 2 2.2208 7.96867 15.1997 27.6787
329 2 2.2208 7.94144 -1.43939 27.7774
112 2 2.2208 5.12776 18.0449 27.6577
223 2 2.2208 10.7753 -1.52587 13.6738
85 2 2.2208 10.7416 12.4573 27.6172
280 2 2.2208 5.21343 15.2363 13.5146
222 2 2.2208 7.89413 1.19135 13.5536
452 2 2.2208 10.6323 20.9484 13.4899
8904 2 2.2208 13.4422 4.04028 27.7183
637 2 2.2208 5.16145 23.7703 5.0171
638 2 2.2208 5.17053 29.3027 5.15479
639 1 -1.1104 1.08186 25.0431 1.14052
640 1 -1.1104 0.821209 25.1327 3.73918
641 1 -1.1104 1.07114 22.1271 1.01284
642 1 -1.1104 0.999735 28.0457 0.729971
643 2 2.2208 5.19962 26.5617 2.34932
644 1 -1.1104 0.941767 22.2786 3.72198
645 1 -1.1104 0.915156 27.8076 3.70666
646 1 -1.1104 3.89315 24.9935 0.823136
647 2 2.2208 2.53083 23.7387 2.35192
648 2 2.2208 2.37099 29.426 2.42205
649 1 -1.1104 3.86869 25.1962 3.61476
650 2 2.2208 2.21193 26.4999 5.14931
651 1 -1.1104 3.85931 22.2176 1.07502
652 1 -1.1104 3.76383 27.9969 0.831789
653 1 -1.1104 3.75488 22.4307 3.828
654 1 -1.1104 3.89337 27.9736 3.66446
659 1 -1.1104 6.5065 27.8296 0.900213
691 1 -1.1104 6.64248 27.9986 6.51082
658 1 -1.1104 6.7266 22.2445 0.834302
656 1 -1.1104 6.68443 25.1268 1.0354
657 1 -1.1104 6.54688 25.0656 3.50796
661 1 -1.1104 6.55895 27.9496 3.67916
660 1 -1.1104 6.75439 22.217 3.56917
665 1 -1.1104 6.51943 22.3177 6.3743
663 1 -1.1104 6.56495 25.1539 6.36177
826 1 -1.1104 0.991779 27.8601 6.49659
662 1 -1.1104 0.756233 24.961 6.5906
671 2 2.2208 10.8329 23.6018 5.05649
672 2 2.2208 10.6627 29.272 4.97533
673 1 -1.1104 12.358 25.0468 0.994162
674 1 -1.1104 12.2251 24.973 3.74443
675 1 -1.1104 12.2265 22.3574 0.847823
676 1 -1.1104 12.2437 27.8747 0.930531
677 2 2.2208 10.9382 26.4022 2.38428
678 1 -1.1104 12.2172 22.2752 3.83595
679 1 -1.1104 12.2195 27.8155 3.9005
680 1 -1.1104 9.47474 25.0206 0.79333
681 2 2.2208 8.07545 23.746 2.29618
682 2 2.2208 7.98469 29.27 2.37873
683 1 -1.1104 9.50415 25.0325 3.71566
684 2 2.2208 7.94421 26.5288 5.21635
685 1 -1.1104 9.56875 22.2464 0.991155
686 1 -1.1104 9.51728 27.8314 1.00656
687 1 -1.1104 9.57755 22.2927 3.58949
688 1 -1.1104 9.26512 27.7654 3.63705
694 1 -1.1104 9.44213 27.8307 6.28277
692 1 -1.1104 9.51816 25.0418 6.39975
978 2 2.2208 13.5596 23.5879 2.31074
689 2 2.2208 13.5007 26.3381 5.20545
690 2 2.2208 13.5685 29.3136 2.43757
852 1 -1.1104 12.1335 22.0895 6.48895
851 1 -1.1104 12.2805 25.1088 6.54238
699 2 2.2208 5.27099 34.7896 5.19259
700 1 -1.1104 1.02947 30.8153 1.24767
701 1 -1.1104 1.07977 36.3014 0.946308
703 1 -1.1104 0.839927 30.6358 3.95277
704 1 -1.1104 1.01046 36.3646 3.72828
706 1 -1.1104 1.01073 33.6098 1.06844
707 2 2.2208 5.11268 32.1085 2.42325
708 2 2.2208 5.19104 37.6846 2.40254
709 1 -1.1104 0.937548 33.5211 3.84309
711 1 -1.1104 3.92709 30.7422 1.02292
712 1 -1.1104 3.71163 36.3687 1.04099
713 2 2.2208 2.46611 34.9394 2.42487
714 1 -1.1104 3.80024 30.7287 3.84239
715 1 -1.1104 3.77212 36.2874 3.73316
716 2 2.2208 2.38807 32.1105 5.36091
717 2 2.2208 2.36242 37.6574 5.18938
718 1 -1.1104 3.87355 33.4468 0.928184
719 1 -1.1104 3.75846 33.5465 3.73809
710 1 -1.1104 6.65488 33.6063 3.67483
702 1 -1.1104 6.51861 36.3781 0.90364
723 1 -1.1104 6.55511 30.7034 3.79866
724 1 -1.1104 6.58322 33.5228 0.987524
722 1 -1.1104 6.78956 30.7063 1.20408
705 1 -1.1104 6.68153 36.2736 3.70441
725 1 -1.1104 6.69878 30.6072 6.59654
730 1 -1.1104 3.88801 33.3544 6.58187
728 1 -1.1104 3.85781 30.6208 6.53876
873 1 -1.1104 0.90276 36.3091 6.61222
823 2 2.2208 8.09824 43.3176 -0.402966
1554 1 -1.1104 9.52263 47.4423 9.49141
1055 2 2.2208 5.29316 37.6827 13.4614
733 2 2.2208 10.8993 34.8193 5.17134
734 1 -1.1104 12.2121 30.5988 1.00482
735 1 -1.1104 12.182 36.3232 1.00496
736 1 -1.1104 12.2007 30.7563 3.58643
737 1 -1.1104 12.1148 36.3121 3.73487
738 1 -1.1104 12.4468 33.4561 0.948519
739 2 2.2208 10.6274 31.9828 2.21073
740 2 2.2208 10.8654 37.6797 2.41749
741 1 -1.1104 12.259 33.5662 3.80598
742 1 -1.1104 9.38935 30.4805 0.775778
743 1 -1.1104 9.44572 36.3654 1.0135
744 2 2.2208 8.09696 35.0038 2.32989
745 1 -1.1104 9.48898 30.6559 3.6802
746 1 -1.1104 9.43305 36.4254 3.75883
747 2 2.2208 8.091 32.0796 5.19488
748 2 2.2208 8.01079 37.6733 5.10676
749 1 -1.1104 9.56949 33.4636 0.818136
750 1 -1.1104 9.48655 33.433 3.58488