ITEM: TIMESTEP
10000
ITEM: NUMBER OF ATOMS
17704
ITEM: BOX BOUNDS pp pp pp
-3.5972667657119722e-01 2.7699726676571206e+01
-4.3733790948516811e+00 3.3245337909485346e+02
-3.5610035662528894e-01 2.7696100356624918e+01
ITEM: ATOMS id type q x y z
1 2 2.2208 5.19478 1.19035 5.25265
2 1 -1.1104 0.77688 -3.00786 1.11041
3 1 -1.1104 0.905642 2.66578 1.12579
4 1 -1.1104 0.96984 -2.98118 3.90579
5 1 -1.1104 0.891931 2.52849 3.93268
6 1 -1.1104 1.00279 -0.122193 1.11732
7 2 2.2208 5.09864 -1.70542 2.41467
8 2 2.2208 5.09256 4.05948 2.51535
9 1 -1.1104 0.877499 -0.301246 4.05465
10 1 -1.1104 3.51867 -3.03445 1.02338
11 1 -1.1104 3.75242 2.57788 1.22461
12 2 2.2208 2.35941 1.16974 2.53349
13 1 -1.1104 3.61251 -2.88574 4.01876
14 1 -1.1104 3.84664 2.64924 4.00641
15 2 2.2208 2.32007 -1.56294 5.3978
16 2 2.2208 2.36211 4.09255 5.25924
17 1 -1.1104 3.79557 -0.137292 0.99013
18 1 -1.1104 3.77195 -0.0807605 3.70419
29 1 -1.1104 6.50303 -3.00415 3.74781
30 1 -1.1104 6.47417 2.51141 3.86709
27 1 -1.1104 6.48398 -3.084 1.08921
31 1 -1.1104 6.66494 -0.292085 0.954498
17322 2 2.2208 13.525 -4.31755 13.5384
8316 2 2.2208 5.12921 -4.36638 5.13998
28 1 -1.1104 6.54054 2.47639 1.07886
32 1 -1.1104 6.58788 -0.165722 3.75337
9224 2 2.2208 13.5537 18.0211 8.05496
84 2 2.2208 10.6516 6.73997 -0.298806
33 2 2.2208 10.7726 1.18195 5.27785
34 1 -1.1104 12.252 -2.90293 1.15031
35 1 -1.1104 12.3171 2.68918 1.00844
36 1 -1.1104 12.3097 -3.1621 3.92102
37 1 -1.1104 12.1736 2.41286 3.71422
38 1 -1.1104 12.2315 -0.0748795 1.13233
39 2 2.2208 10.9058 -1.71889 2.56115
40 2 2.2208 10.8405 3.89768 2.42883
41 1 -1.1104 12.2359 -0.331011 3.98649
42 1 -1.1104 9.41557 -2.9713 0.960823
43 1 -1.1104 9.38113 2.62629 1.00657
44 2 2.2208 8.00311 1.2082 2.53698
45 1 -1.1104 9.42036 -2.99737 3.84467
46 1 -1.1104 9.34537 2.54566 3.87337
47 2 2.2208 7.91729 -1.55401 5.29569
48 2 2.2208 8.03605 3.95188 5.36783
49 1 -1.1104 9.35 -0.114543 0.994986
50 1 -1.1104 9.46766 -0.249745 3.81832
200 1 -1.1104 12.1744 -0.0792233 6.665
9104 2 2.2208 13.6528 -1.60661 10.7677
8903 2 2.2208 13.6069 -1.48392 5.38594
147 2 2.2208 7.94474 15.2519 -0.131747
8904 2 2.2208 13.6214 3.92876 -0.317334
202 1 -1.1104 9.3879 2.7 6.93025
8351 2 2.2208 10.697 -4.29596 5.32105
8901 2 2.2208 13.6633 4.00733 5.21124
9029 2 2.2208 13.5132 15.151 5.2123
54 2 2.2208 7.88441 3.85711 -0.232259
8966 2 2.2208 13.6222 9.56048 -0.215704
57 2 2.2208 5.10605 6.84237 5.36018
58 2 2.2208 5.2794 12.3164 5.39877
59 1 -1.1104 0.910003 8.20401 1.13657
60 1 -1.1104 0.853334 8.33539 3.9598
61 1 -1.1104 1.04415 5.44526 1.12089
62 1 -1.1104 1.01232 11.045 1.09085
65 2 2.2208 5.08382 9.63476 2.68285
66 1 -1.1104 0.949786 5.37381 3.97892
67 1 -1.1104 0.92406 11.1157 3.89886
68 1 -1.1104 3.79466 8.31635 1.31867
69 2 2.2208 2.36864 6.90374 2.57861
70 2 2.2208 2.34741 12.4381 2.49552
71 1 -1.1104 3.71924 8.33953 4.0848
72 2 2.2208 2.27631 9.64488 5.42458
73 1 -1.1104 3.78492 5.43998 1.20172
74 1 -1.1104 3.80505 11.1201 1.1579
76 1 -1.1104 3.64509 5.54247 3.83643
77 1 -1.1104 3.87789 11.1926 3.90585
80 1 -1.1104 3.79531 8.31718 6.76604
64 1 -1.1104 6.49344 10.9658 1.09609
63 1 -1.1104 0.887365 10.9371 6.7844
91 1 -1.1104 6.61918 10.9442 4.04076
86 1 -1.1104 6.41463 8.11257 1.26823
88 1 -1.1104 6.39792 5.25736 1.09777
90 1 -1.1104 6.56182 5.2279 4.04587
78 1 -1.1104 1.02414 8.10194 6.74964
312 1 -1.1104 12.1566 13.7795 12.2346
56 2 2.2208 2.34482 9.63465 -0.328428
85 2 2.2208 10.8095 12.3191 -0.192204
87 1 -1.1104 6.44214 8.19607 4.05204
92 2 2.2208 10.8547 6.75443 5.20301
93 2 2.2208 10.7878 12.3965 5.28456
94 1 -1.1104 12.2164 8.32614 1.22441
95 1 -1.1104 12.1475 8.2582 4.04142
96 1 -1.1104 12.2237 5.44697 1.08663
97 1 -1.1104 12.1442 11.1542 1.20193
98 2 2.2208 10.6366 9.65122 2.53759
99 1 -1.1104 12.2279 5.24504 3.92298
100 1 -1.1104 12.3303 11.0386 3.91408
101 1 -1.1104 9.28983 8.15685 1.16428
102 2 2.2208 7.91652 6.75021 2.63655
103 2 2.2208 7.93182 12.3357 2.58594
104 1 -1.1104 9.18145 8.19438 3.84927
105 2 2.2208 7.98597 9.62512 5.36509
106 1 -1.1104 9.23599 5.43989 1.0899
107 1 -1.1104 9.22965 10.9798 1.29906
108 1 -1.1104 9.43506 5.45815 3.9012
109 1 -1.1104 9.50021 10.941 4.04903
256 1 -1.1104 12.2393 8.35613 6.77475
8963 2 2.2208 13.5852 9.6315 5.19613
26 2 2.2208 2.42552 3.87119 -0.293662
9028 2 2.2208 13.5591 17.935 2.39545
257 1 -1.1104 12.2146 5.51447 6.68217
305 1 -1.1104 9.36942 19.5532 12.138
112 2 2.2208 5.09666 18.0411 -0.252825
151 1 -1.1104 12.1617 19.4409 6.62124
114 2 2.2208 5.17524 18.1377 5.36757
115 1 -1.1104 1.07068 13.8634 1.05372
116 1 -1.1104 0.926821 19.4094 0.983789
119 1 -1.1104 0.920986 14.0092 3.95629
120 1 -1.1104 0.942775 19.5696 3.89507
122 1 -1.1104 0.961362 16.6547 0.968895
125 2 2.2208 5.20403 15.2838 2.39214
126 2 2.2208 5.22844 20.8651 2.36337
127 1 -1.1104 1.01432 16.8286 3.88533
129 1 -1.1104 3.81332 13.9547 1.0714
131 1 -1.1104 3.77869 19.4676 0.962604
133 2 2.2208 2.41093 18.1784 2.50685
134 1 -1.1104 3.71451 13.8985 3.72086
135 1 -1.1104 3.83701 19.4873 3.83788
136 2 2.2208 2.43907 15.3218 5.18375
137 2 2.2208 2.47538 20.921 5.34465
138 1 -1.1104 3.71279 16.5622 1.046
140 1 -1.1104 3.77017 16.7248 3.93687
117 1 -1.1104 6.56414 13.8445 1.04057
130 1 -1.1104 3.79082 13.817 6.55907
143 1 -1.1104 6.69134 16.7152 1.22959
8967 2 2.2208 13.5944 12.3963 2.51944
123 1 -1.1104 0.988668 16.5831 6.60058
132 1 -1.1104 3.75064 19.4525 6.70826
304 2 2.2208 13.4963 20.9248 10.8731
121 1 -1.1104 6.48252 13.8146 3.89172
128 1 -1.1104 6.52483 16.6804 3.97149
141 1 -1.1104 6.69275 19.4604 1.34278
142 1 -1.1104 6.54346 19.4482 4.00496
148 2 2.2208 10.7891 18.0415 5.1429
149 1 -1.1104 12.223 13.9649 1.07089
150 1 -1.1104 12.1929 19.4529 0.947533
152 1 -1.1104 12.116 13.7274 3.82497
153 1 -1.1104 12.1213 19.3673 3.64335
154 1 -1.1104 12.1406 16.5993 0.99183
155 2 2.2208 10.6966 15.2074 2.57365
156 2 2.2208 10.799 20.8568 2.33323
157 1 -1.1104 12.2374 16.4875 3.86494
158 1 -1.1104 9.29587 13.7218 1.1615
159 1 -1.1104 9.46758 19.3975 0.889202
161 2 2.2208 7.95481 18.1137 2.70873
162 1 -1.1104 9.22972 13.7692 4.00278
163 1 -1.1104 9.27982 19.6153 3.76687
164 2 2.2208 7.99984 15.1631 5.41106
165 2 2.2208 7.98618 20.9208 5.24235
166 1 -1.1104 9.34362 16.6662 1.16565
168 1 -1.1104 9.44905 16.8533 3.79359
285 1 -1.1104 6.50533 16.7389 9.42668
9030 2 2.2208 13.609 20.8765 5.16213
146 2 2.2208 10.7276 18.0636 -0.309359
9166 2 2.2208 13.5224 9.49163 10.9467
20 1 -1.1104 0.989031 2.62975 6.66141
23 1 -1.1104 3.69542 2.7517 6.70886
52 1 -1.1104 6.57757 2.64821 6.6139
51 1 -1.1104 6.48368 -2.98128 6.72268
223 2 2.2208 10.6498 -1.66314 13.6638
19 1 -1.1104 0.936919 -2.99511 6.50677
22 1 -1.1104 3.71173 -3.00059 6.76409
21 1 -1.1104 1.13674 -0.0995115 6.84805
24 1 -1.1104 3.76512 0.0312505 6.69722
169 2 2.2208 5.20496 1.27785 10.866
170 1 -1.1104 0.913624 -2.97071 12.3624
171 1 -1.1104 0.980679 2.4986 12.1403
172 1 -1.1104 0.901674 -2.96531 9.46038
173 1 -1.1104 0.874966 2.61641 9.36544
174 1 -1.1104 0.94626 -0.23219 12.4189
175 2 2.2208 5.13271 -1.59087 7.941
176 2 2.2208 5.15444 4.10729 8.15725
177 1 -1.1104 0.902252 -0.317858 9.50415
178 1 -1.1104 3.79367 -3.08338 12.3718
179 1 -1.1104 3.70462 2.59697 12.437
180 2 2.2208 2.33847 1.26812 8.08449
181 1 -1.1104 3.80371 -3.12022 9.55639
182 1 -1.1104 3.80882 2.57282 9.5489
183 2 2.2208 2.36245 -1.66692 10.8987
184 2 2.2208 2.38388 4.02297 11.0122
185 1 -1.1104 3.70495 -0.307619 12.2365
186 1 -1.1104 3.81729 -0.295902 9.52347
193 1 -1.1104 6.69104 2.6073 12.3012
196 1 -1.1104 6.43644 -0.0680033 12.1109
197 1 -1.1104 6.37739 -0.0685365 9.27136
194 1 -1.1104 6.65422 -2.99387 9.45821
195 1 -1.1104 6.5246 2.68314 9.38117
191 1 -1.1104 6.60578 -0.144168 6.55588
192 1 -1.1104 6.54032 -3.05814 12.2978
9172 2 2.2208 13.5743 6.78033 8.11527
9167 2 2.2208 13.628 12.4007 8.17174
8495 2 2.2208 10.698 -4.35924 10.6596
201 1 -1.1104 9.1695 -3.04588 6.61466
199 1 -1.1104 12.1169 2.67107 6.64526
203 1 -1.1104 9.3608 -0.179349 6.6116
9103 2 2.2208 13.4944 1.36909 8.0603
317 2 2.2208 10.7213 15.2474 8.06962
328 2 2.2208 2.30425 -1.62157 -0.346218
9102 2 2.2208 13.5627 3.97544 10.9325
82 2 2.2208 5.1277 6.82063 -0.128848
198 1 -1.1104 11.8746 -2.78548 6.66669
204 2 2.2208 10.7191 1.25891 10.9205
205 1 -1.1104 12.0461 -2.98668 12.077
206 1 -1.1104 12.0918 2.58042 12.2179
207 1 -1.1104 12.1538 -3.07515 9.38803
208 1 -1.1104 12.0252 2.58292 9.58117
209 1 -1.1104 12.2006 -0.207634 12.3959
210 2 2.2208 10.6746 -1.45956 8.12236
211 2 2.2208 10.8233 4.07156 8.13858
212 1 -1.1104 12.1446 -0.164246 9.55978
213 1 -1.1104 9.25688 -3.00888 12.1672
214 1 -1.1104 9.34794 2.52898 12.4613
215 2 2.2208 7.84555 1.20915 8.10229
216 1 -1.1104 9.36021 -2.98457 9.40978
217 1 -1.1104 9.2557 2.63508 9.63552
218 2 2.2208 7.80057 -1.52961 10.8344
219 2 2.2208 7.99648 4.04609 10.8679
220 1 -1.1104 9.08747 -0.110571 12.2967
221 1 -1.1104 9.16535 -0.0801589 9.4569
9025 2 2.2208 13.6639 20.8653 -0.318437
75 1 -1.1104 3.71216 11.0933 6.79783
81 1 -1.1104 3.74266 5.57728 6.70048
79 1 -1.1104 0.9187 5.42117 6.706
110 1 -1.1104 6.57468 8.27002 6.72268
248 1 -1.1104 6.66242 5.43155 6.76722
227 2 2.2208 5.13843 6.74622 10.8837
228 2 2.2208 5.05162 12.5594 10.8803
229 1 -1.1104 0.873236 8.21721 12.4354
230 1 -1.1104 0.795968 8.27342 9.62207
231 1 -1.1104 0.882887 5.42603 12.3384
232 1 -1.1104 0.909398 11.092 12.2263
233 2 2.2208 5.15704 9.61662 8.07173
234 1 -1.1104 0.819619 5.38089 9.50267
235 1 -1.1104 1.04228 11.4014 9.56062
236 1 -1.1104 3.67249 8.34303 12.1277
237 2 2.2208 2.31954 6.75956 8.15665
238 2 2.2208 2.33372 12.6219 7.98384
239 1 -1.1104 3.65085 8.13594 9.40071
240 2 2.2208 2.35911 9.77806 10.7968
241 1 -1.1104 3.74499 5.31223 12.4059
242 1 -1.1104 3.71409 11.2931 12.3415
243 1 -1.1104 3.67748 5.31172 9.49781
244 1 -1.1104 3.79941 10.9628 9.52715
250 1 -1.1104 6.5182 8.15254 9.55112
252 1 -1.1104 6.42794 11.1289 12.317
254 1 -1.1104 6.73137 11.1423 9.5995
253 1 -1.1104 6.49924 5.38442 9.45525
251 1 -1.1104 6.55304 5.48794 12.2589
8968 2 2.2208 13.609 6.83917 2.49032
306 2 2.2208 7.95909 18.3679 8.01004
89 1 -1.1104 6.54164 10.9252 6.75152
258 1 -1.1104 9.43843 8.31575 6.70247
260 1 -1.1104 9.45443 5.37827 6.6108
83 2 2.2208 7.86375 9.71003 -0.207136
247 1 -1.1104 9.31346 11.1459 6.76738
246 1 -1.1104 11.9808 11.1465 6.75824
249 1 -1.1104 6.60138 8.23827 12.2522
255 1 -1.1104 9.56427 10.8811 9.66635
259 1 -1.1104 9.30882 5.47636 9.50365
261 1 -1.1104 9.46069 11.1829 12.535
262 1 -1.1104 9.31294 5.42717 12.3729
263 2 2.2208 7.95637 9.6295 10.8891
264 1 -1.1104 9.40334 8.0972 9.64288
265 2 2.2208 7.9616 12.4901 8.19201
266 2 2.2208 8.046 6.85699 8.06426
267 2 2.2208 10.6906 6.71732 11.0344
268 2 2.2208 10.72 12.443 11.0082
269 1 -1.1104 12.0501 8.00991 12.3919
270 1 -1.1104 12.1502 8.06866 9.62918
271 1 -1.1104 12.1185 5.25742 12.4842
272 1 -1.1104 12.248 10.9097 12.4646
273 2 2.2208 10.822 9.62562 8.15943
274 1 -1.1104 12.1348 5.424 9.5386
275 1 -1.1104 12.2436 10.913 9.57364
276 1 -1.1104 9.19406 8.35349 12.4604
8905 2 2.2208 13.5862 -1.64559 -0.323277
139 1 -1.1104 3.72927 16.6253 6.727
279 1 -1.1104 1.0102 13.7752 6.74106
327 2 2.2208 7.94728 15.3996 10.7351
296 1 -1.1104 0.936519 19.4734 6.64187
321 1 -1.1104 6.57349 13.9329 12.4638
282 1 -1.1104 3.60672 19.4277 12.3392
283 1 -1.1104 3.78182 13.972 12.2879
286 1 -1.1104 1.08194 19.7008 9.4013
287 1 -1.1104 0.949199 16.8841 9.47056
288 2 2.2208 5.0239 20.9154 8.2038
289 1 -1.1104 1.08692 13.9777 9.40908
290 2 2.2208 5.04249 15.2439 8.00004
292 1 -1.1104 0.807058 19.5888 12.3687
293 1 -1.1104 0.833175 13.8551 12.2418
294 2 2.2208 5.12315 17.9137 11.0071
295 1 -1.1104 3.82927 19.4354 9.60337
297 2 2.2208 2.3542 18.0887 8.04005
298 1 -1.1104 3.66242 16.6932 9.53642
299 1 -1.1104 3.72601 13.9823 9.43858
300 1 -1.1104 0.820969 16.888 12.2895
301 1 -1.1104 3.75086 16.7549 12.3422
302 2 2.2208 2.3041 20.9075 10.9674
303 2 2.2208 2.28452 15.3485 10.8754
291 1 -1.1104 6.37723 19.5216 12.3261
322 1 -1.1104 6.58172 16.7429 12.1971
145 1 -1.1104 6.56573 13.6621 6.88031
320 1 -1.1104 6.47935 14.0102 9.61155
318 2 2.2208 10.6697 20.8885 7.94094
313 1 -1.1104 12.1374 19.5933 12.3246
9225 2 2.2208 13.4207 15.2857 10.9543
319 1 -1.1104 12.1289 16.714 9.47011
311 2 2.2208 10.6857 18.1242 10.8387
307 1 -1.1104 12.1338 13.7898 6.58647
167 1 -1.1104 9.40848 16.6594 6.66412
160 1 -1.1104 9.36104 19.5351 6.49156
309 1 -1.1104 9.34571 13.9382 6.58874
118 1 -1.1104 6.43853 19.5079 6.81057
124 1 -1.1104 6.58738 16.6447 6.76543
308 1 -1.1104 12.1783 16.584 6.61235
326 2 2.2208 7.89022 20.9351 10.8317
323 1 -1.1104 9.32099 13.8716 12.3497
325 1 -1.1104 9.41042 16.8116 12.243
281 1 -1.1104 9.42155 13.8384 9.55288
314 1 -1.1104 12.2191 13.879 9.5398
315 1 -1.1104 12.2194 19.3628 9.61709
284 1 -1.1104 6.63311 19.4713 9.46557
324 1 -1.1104 9.28684 16.7855 9.37401
316 1 -1.1104 12.1595 16.6691 12.1761
310 1 -1.1104 9.48008 19.6346 9.32652
428 2 2.2208 5.02766 20.8152 13.6672
187 2 2.2208 5.19159 -1.67153 13.6138
480 2 2.2208 13.5721 18.0839 13.6484
479 2 2.2208 7.78799 18.0615 13.6554
330 2 2.2208 5.17647 1.19987 16.5987
331 1 -1.1104 0.888551 -3.08072 18.0635
332 1 -1.1104 1.01529 2.49062 17.9458
333 1 -1.1104 0.901298 -3.03113 15.1733
334 1 -1.1104 1.02069 2.67066 14.9186
335 1 -1.1104 0.820455 -0.328063 17.9727
336 2 2.2208 5.29494 -1.61391 19.1992
337 2 2.2208 5.19408 4.15597 19.4186
338 1 -1.1104 0.972927 -0.160346 15.1278
339 1 -1.1104 3.78068 -2.8854 17.8595
340 1 -1.1104 3.73471 2.52539 18.0564
341 2 2.2208 2.35745 1.23076 19.5136
342 1 -1.1104 3.76142 -2.97066 15.0761
343 1 -1.1104 3.88593 2.59536 15.1091
344 2 2.2208 2.28709 -1.61367 16.5585
345 2 2.2208 2.23651 4.11706 16.5262
346 1 -1.1104 3.67985 -0.160094 17.9564
347 1 -1.1104 3.72453 -0.228195 15.0473
351 1 -1.1104 6.63186 2.65137 15.3144
350 1 -1.1104 6.5343 -3.11363 15.1021
353 1 -1.1104 6.54435 -0.222188 15.1423
484 1 -1.1104 3.90278 -3.01041 20.6223
483 1 -1.1104 0.90817 -0.151 20.7845
481 1 -1.1104 1.11205 -2.94228 20.7143
9288 2 2.2208 13.6375 1.26761 19.2839
349 1 -1.1104 6.60989 2.78798 18.0907
348 1 -1.1104 6.76938 -2.98131 17.8635
352 1 -1.1104 6.5232 -0.227523 17.8975
485 1 -1.1104 3.84651 2.75707 20.8101
354 1 -1.1104 6.54817 -0.182535 20.6265
506 1 -1.1104 6.64919 -3.00592 20.7446
9168 2 2.2208 13.5962 12.3347 13.7332
222 2 2.2208 7.95936 1.23778 13.7117
189 2 2.2208 5.23888 3.94198 13.8006
17674 2 2.2208 13.6675 -4.32992 24.7711
355 2 2.2208 10.8661 1.39453 16.4757
356 1 -1.1104 12.1022 -2.85365 17.7317
357 1 -1.1104 12.1542 2.76888 17.9176
358 1 -1.1104 12.2314 -2.88571 14.8745
360 1 -1.1104 12.2712 2.608 15.1143
362 1 -1.1104 12.2563 0.0646033 17.8727
363 2 2.2208 10.7686 -1.52763 19.1711
364 2 2.2208 10.8065 4.16543 19.3617
365 1 -1.1104 12.0514 -0.0530921 15.2128
367 1 -1.1104 9.41371 -3.00053 17.765
368 1 -1.1104 9.39408 2.78951 17.8306
369 2 2.2208 7.95581 1.3019 19.3414
370 1 -1.1104 9.27852 -3.09546 15.0031
372 1 -1.1104 9.47312 2.60278 15.2492
374 2 2.2208 8.00722 -1.62379 16.4797
375 2 2.2208 7.99812 4.07517 16.6551
376 1 -1.1104 9.31521 -0.122656 17.8137
377 1 -1.1104 9.43845 -0.229206 15.068
361 1 -1.1104 12.1724 2.66174 20.8241
366 1 -1.1104 12.1195 -0.226755 20.5717
378 1 -1.1104 9.3581 -0.148241 20.7335
245 2 2.2208 7.81093 6.88877 13.7594
9171 2 2.2208 13.5259 6.77691 13.8004
9307 2 2.2208 -0.355868 4.11858 19.3007
329 2 2.2208 8.08666 -1.56219 27.6887
190 2 2.2208 10.7211 3.94316 13.8473
8668 2 2.2208 10.7405 -4.34325 16.3406
9555 2 2.2208 13.4629 15.2527 22.1759
280 2 2.2208 5.16482 15.2796 13.7282
379 2 2.2208 5.21608 6.87645 16.5288
380 2 2.2208 5.09172 12.4494 16.4901
381 1 -1.1104 1.20059 8.16858 17.8772
382 1 -1.1104 0.999501 8.43358 15.2787
383 1 -1.1104 0.854824 5.40887 17.9943
384 1 -1.1104 1.07805 11.129 17.9289
385 2 2.2208 5.15595 9.67707 19.2628
386 1 -1.1104 0.881418 5.53329 15.1906
387 1 -1.1104 0.846307 11.2347 15.03
388 1 -1.1104 3.853 8.30953 17.796
389 2 2.2208 2.28064 6.80489 19.4216
390 2 2.2208 2.46749 12.4039 19.3804
391 1 -1.1104 3.83345 8.20411 14.9619
392 2 2.2208 2.41263 9.69041 16.5758
393 1 -1.1104 3.60916 5.53146 18.1299
394 1 -1.1104 3.89674 11.0719 18.0168
395 1 -1.1104 3.70258 5.40599 15.3379
396 1 -1.1104 3.60557 11.1503 15.293
400 1 -1.1104 6.54505 11.0105 17.9379
401 1 -1.1104 6.55003 5.37009 15.0278
403 1 -1.1104 6.44133 11.1758 15.0765
399 1 -1.1104 6.67975 5.51321 17.9894
397 1 -1.1104 6.44784 8.18876 18.0446
398 1 -1.1104 6.53065 8.38711 15.1917
564 1 -1.1104 6.66339 10.9482 20.7265
9286 2 2.2208 13.4615 -1.43437 16.4633
9336 2 2.2208 13.3922 12.5094 19.3196
226 2 2.2208 2.24452 12.5965 13.7233
455 2 2.2208 13.5762 18.1187 19.3926
277 2 2.2208 7.97129 12.45 13.7432
628 2 2.2208 10.7604 15.1821 25.0308
404 2 2.2208 10.701 6.88651 16.5383
405 2 2.2208 10.7668 12.4115 16.5838
406 1 -1.1104 12.1712 8.20409 18.0347
407 1 -1.1104 12.1038 8.25569 15.2375
409 1 -1.1104 12.3513 5.48341 17.8286
410 1 -1.1104 12.0799 11.0008 17.9862
411 2 2.2208 10.8095 9.58335 19.3743
412 1 -1.1104 12.2055 5.33768 15.1714
414 1 -1.1104 12.1632 11.0452 15.2018
416 1 -1.1104 9.35762 8.29498 17.8853
417 2 2.2208 7.9689 6.855 19.3969
418 2 2.2208 8.08474 12.4258 19.311
419 1 -1.1104 9.20706 8.31544 15.2145
421 2 2.2208 7.92203 9.65829 16.6834
422 1 -1.1104 9.47114 5.54338 18.0695
423 1 -1.1104 9.42623 10.9503 18.112
424 1 -1.1104 9.24325 5.46169 15.1634
426 1 -1.1104 9.25968 11.0347 15.3431
413 1 -1.1104 12.2003 5.56796 20.774
278 2 2.2208 10.7352 9.61259 13.8976
111 2 2.2208 2.25488 15.2833 27.6774
9478 2 2.2208 13.5251 6.6839 24.9997
613 1 -1.1104 9.30773 19.5097 26.1695
9448 2 2.2208 13.5477 4.02747 22.1035
429 2 2.2208 5.10527 17.9643 16.655
430 1 -1.1104 0.889436 13.7083 17.9051
431 1 -1.1104 0.917635 19.5546 18.0256
433 1 -1.1104 0.905913 14.1136 15.0429
435 1 -1.1104 0.784624 19.5547 15.2889
438 1 -1.1104 0.953796 16.6551 17.8269
440 2 2.2208 5.29845 15.1999 19.4026
441 2 2.2208 4.95063 20.8943 19.4228
442 1 -1.1104 0.717145 16.7964 15.1113
443 1 -1.1104 3.68852 13.8896 17.9532
444 1 -1.1104 3.82123 19.397 17.9621
445 2 2.2208 2.35414 18.0362 19.2457
446 1 -1.1104 3.71661 13.8454 15.1506
447 1 -1.1104 3.65726 19.4169 15.0703
448 2 2.2208 2.22378 15.2327 16.5748
449 2 2.2208 2.22306 20.9728 16.564
450 1 -1.1104 3.71495 16.666 18.1011
451 1 -1.1104 3.66735 16.7075 15.1374
432 1 -1.1104 6.43112 19.5118 17.9059
437 1 -1.1104 6.50103 19.2777 15.0267
456 1 -1.1104 6.54923 13.7827 17.9316
457 1 -1.1104 6.70115 13.81 15.168
458 1 -1.1104 6.5028 16.6303 15.1421
505 2 2.2208 7.89393 18.0516 25.1009
224 2 2.2208 5.06982 9.70933 13.68
9552 2 2.2208 13.5575 18.1862 24.8836
188 2 2.2208 2.32762 1.18083 13.6901
439 1 -1.1104 6.65201 16.5647 17.8761
459 2 2.2208 10.6806 18.2332 16.6357
460 1 -1.1104 12.1681 13.856 17.8518
461 1 -1.1104 12.099 19.4241 17.9656
462 1 -1.1104 12.2612 14.0845 15.0053
464 1 -1.1104 12.039 19.7214 15.2315
465 1 -1.1104 12.0676 16.6953 17.9741
466 2 2.2208 10.8404 15.2499 19.4262
467 2 2.2208 10.7248 20.9037 19.3429
468 1 -1.1104 12.2713 16.9511 15.0764
469 1 -1.1104 9.40139 13.8429 18.0664
470 1 -1.1104 9.33596 19.4862 18.1229
471 2 2.2208 7.95896 18.1189 19.428
472 1 -1.1104 9.45559 13.9131 15.2897
474 1 -1.1104 9.26592 19.428 15.1037
475 2 2.2208 8.02051 15.1852 16.6181
476 2 2.2208 7.77754 20.8855 16.399
477 1 -1.1104 9.32003 16.6038 18.1773
478 1 -1.1104 9.46673 16.6108 15.1798
630 1 -1.1104 12.0699 16.6136 26.337
618 1 -1.1104 12.1653 19.6256 23.4965
622 1 -1.1104 12.2629 16.7923 23.4192
9422 2 2.2208 13.6698 -1.61279 21.7907
636 2 2.2208 10.7694 15.3867 13.8282
486 1 -1.1104 3.86804 -0.19777 20.776
482 1 -1.1104 1.12714 2.7611 20.7067
487 2 2.2208 5.20712 1.16484 22.051
488 1 -1.1104 1.09723 -3.08937 23.5066
489 1 -1.1104 0.87464 2.65407 23.4857
490 1 -1.1104 1.05143 -3.12307 26.3086
491 1 -1.1104 1.03429 2.59815 26.3551
492 1 -1.1104 0.866036 -0.193158 23.6044
493 2 2.2208 5.16065 -1.48473 24.8347
494 2 2.2208 5.23603 3.8845 24.8982
495 1 -1.1104 0.895067 -0.336118 26.4436
496 1 -1.1104 3.71572 -3.00421 23.4322
497 1 -1.1104 3.80665 2.59922 23.5364
498 2 2.2208 2.23295 1.23792 24.9472
499 1 -1.1104 3.75234 -2.98297 26.2233
500 1 -1.1104 3.75793 2.53709 26.2799
501 2 2.2208 2.30046 -1.67985 22.1872
502 2 2.2208 2.45773 3.97369 22.2523
503 1 -1.1104 3.50073 -0.152443 23.5567
504 1 -1.1104 3.8062 -0.326234 26.4023
511 1 -1.1104 6.73714 2.44429 26.3287
509 1 -1.1104 6.67605 2.60287 23.5825
508 1 -1.1104 6.66123 -2.93438 23.5394
507 1 -1.1104 6.62381 2.75854 20.8495
510 1 -1.1104 6.82042 -3.22394 26.4526
512 1 -1.1104 6.48079 -0.134404 23.3523
513 1 -1.1104 6.64032 -0.292842 26.2431
616 2 2.2208 13.6106 21.039 22.1842
614 2 2.2208 10.7611 18.1044 22.1554
600 1 -1.1104 6.60194 16.5547 26.4332
615 2 2.2208 8.04338 15.3174 22.2044
454 2 2.2208 13.4856 20.9042 16.6731
634 1 -1.1104 9.27309 19.4563 23.4924
371 1 -1.1104 9.54192 -3.01901 20.6125
373 1 -1.1104 9.39428 2.70874 20.6659
359 1 -1.1104 12.2598 -2.99099 20.5168
514 2 2.2208 10.782 1.24901 22.0336
515 1 -1.1104 12.3405 -2.96689 23.361
516 1 -1.1104 12.1793 2.59774 23.527
517 1 -1.1104 12.3154 -2.99669 26.2794
518 1 -1.1104 12.3438 2.44559 26.3598
519 1 -1.1104 12.3461 -0.129866 23.2611
520 2 2.2208 10.7901 -1.65796 24.7568
521 2 2.2208 10.7548 3.91307 24.9902
522 1 -1.1104 12.1062 -0.357876 26.4065
523 1 -1.1104 9.39574 -3.02467 23.3416
524 1 -1.1104 9.51826 2.52139 23.393
525 2 2.2208 8.08644 1.13795 24.8187
526 1 -1.1104 9.55726 -2.92171 26.2273
527 1 -1.1104 9.46758 2.51333 26.3518
528 2 2.2208 8.11601 -1.58509 22.053
529 2 2.2208 8.12618 4.03707 22.198
530 1 -1.1104 9.32492 -0.107184 23.401
531 1 -1.1104 9.30731 -0.205261 26.1227
9419 2 2.2208 13.6574 1.16654 24.9304
9335 2 2.2208 13.6215 6.87246 19.3917
538 1 -1.1104 3.79447 10.974 20.7481
533 1 -1.1104 0.992208 8.26325 20.7726
535 1 -1.1104 1.04444 10.9287 20.7523
534 1 -1.1104 0.931937 5.42881 21.0195
536 1 -1.1104 3.6699 8.18582 20.7019
537 1 -1.1104 3.85541 5.40233 20.9078
539 2 2.2208 5.15355 6.76773 22.2467
540 2 2.2208 5.36275 12.4056 22.1431
541 1 -1.1104 1.02543 8.25589 23.6053
543 1 -1.1104 0.875331 8.35627 26.4277
544 1 -1.1104 1.01117 5.64128 23.7795
545 1 -1.1104 0.937743 11.0835 23.5011
546 2 2.2208 5.06392 9.55403 24.9854
547 1 -1.1104 1.0168 5.52334 26.372
548 1 -1.1104 0.905255 10.9827 26.266
550 1 -1.1104 3.91148 8.15452 23.5629
551 2 2.2208 2.40377 6.84278 25.0419
552 2 2.2208 2.37742 12.4144 24.8299
553 1 -1.1104 3.71973 8.15709 26.4458
554 2 2.2208 2.45814 9.66156 22.2402
555 1 -1.1104 4.01725 5.44484 23.7191
556 1 -1.1104 3.80909 11.0636 23.5431
557 1 -1.1104 3.76424 5.32412 26.5095
558 1 -1.1104 3.63849 11.0349 26.4177
563 1 -1.1104 6.50664 8.14886 20.8549
402 1 -1.1104 6.74514 5.39007 20.7653
572 1 -1.1104 6.60174 10.9197 23.4704
549 1 -1.1104 6.44064 10.9301 26.2621
542 1 -1.1104 6.47493 8.17301 23.6331
570 1 -1.1104 6.55109 8.12407 26.5009
573 1 -1.1104 6.54145 5.16064 26.3277
571 1 -1.1104 6.65253 5.4334 23.7065
9477 2 2.2208 13.4989 12.3835 24.8355
427 1 -1.1104 9.30916 10.989 20.9375
9499 2 2.2208 13.5246 9.57083 22.2442
453 2 2.2208 13.6267 15.2459 16.4794
415 1 -1.1104 12.0681 11.0486 20.6778
420 1 -1.1104 9.5089 8.20032 20.6817
425 1 -1.1104 9.47229 5.5044 20.8597
408 1 -1.1104 12.235 8.26763 20.7934
559 2 2.2208 10.7493 9.57 25.0025
560 1 -1.1104 12.1284 11.1174 23.6195
561 1 -1.1104 12.2384 5.49101 23.5136
562 1 -1.1104 12.1109 8.22423 26.3708
565 1 -1.1104 11.9084 8.41858 23.428
566 2 2.2208 10.7328 12.4219 22.3075
567 2 2.2208 10.7796 6.88015 22.1721
568 2 2.2208 7.9364 6.75092 25.1521
569 1 -1.1104 9.23652 8.18319 23.5211
574 2 2.2208 7.99697 12.382 24.8674
575 1 -1.1104 12.091 10.9573 26.2979
576 1 -1.1104 12.1288 5.23702 26.3502
577 1 -1.1104 9.32099 10.9255 26.4337
578 1 -1.1104 9.43411 5.27102 26.3573
579 1 -1.1104 9.40457 10.856 23.6472
580 1 -1.1104 9.57391 5.33765 23.626
581 2 2.2208 7.90518 9.5261 22.3134
582 1 -1.1104 9.40454 8.21049 26.5684
619 1 -1.1104 12.1601 13.7781 26.4502
436 1 -1.1104 0.980873 19.3468 20.6551
595 1 -1.1104 6.61188 16.788 20.7136
593 1 -1.1104 6.50281 19.4582 20.7148
594 1 -1.1104 0.960522 16.4613 20.733
598 1 -1.1104 3.75738 16.6352 20.9017
587 1 -1.1104 6.59613 19.4868 23.6343
596 1 -1.1104 4.06078 13.7379 20.7188
434 1 -1.1104 1.03596 13.6583 20.8048
592 1 -1.1104 6.6902 13.8065 20.7593
597 1 -1.1104 3.65528 19.5076 20.7407
583 1 -1.1104 0.950257 19.4613 23.4849
585 2 2.2208 5.22574 15.3399 24.8592
586 2 2.2208 5.20394 20.8594 24.9201
588 1 -1.1104 1.01883 13.7545 26.3692
589 1 -1.1104 0.900764 16.66 26.3109
590 1 -1.1104 3.6832 16.7548 23.5982
591 1 -1.1104 0.836373 16.713 23.537
599 1 -1.1104 1.00266 19.5158 26.2981
601 1 -1.1104 3.88153 13.938 23.5468
602 1 -1.1104 3.8209 19.5747 23.4826
603 1 -1.1104 1.03597 13.9357 23.6098
604 2 2.2208 2.34195 20.951 22.0383
607 2 2.2208 5.13528 18.1744 22.213
608 1 -1.1104 3.75317 19.3957 26.1634
609 1 -1.1104 3.6201 13.8631 26.3441
610 1 -1.1104 3.76662 16.8072 26.3595
611 2 2.2208 2.3836 18.1703 24.8681
612 2 2.2208 2.42964 15.2433 22.1556
605 1 -1.1104 6.67859 16.7303 23.5645
584 1 -1.1104 6.66992 13.9028 23.5463
633 1 -1.1104 6.61456 13.7132 26.2138
606 1 -1.1104 6.37582 19.4973 26.5427
621 2 2.2208 7.98747 20.909 22.1811
629 2 2.2208 10.7159 20.9664 24.9599
627 1 -1.1104 9.56717 16.6572 23.6698
632 1 -1.1104 9.38919 16.7572 26.4487
620 1 -1.1104 12.2278 19.5563 26.3848
463 1 -1.1104 12.1056 13.7225 20.8678
626 1 -1.1104 9.46208 16.7391 20.926
625 1 -1.1104 9.30929 19.4833 20.7395
624 1 -1.1104 12.1527 16.578 20.7501
623 1 -1.1104 12.1187 19.5273 20.7865
473 1 -1.1104 9.32427 13.8428 20.7532
631 1 -1.1104 9.29081 13.8559 23.5535
532 1 -1.1104 9.46978 13.746 26.3341
617 1 -1.1104 12.0754 13.9219 23.6729
53 2 2.2208 10.7935 1.12596 27.6661
55 2 2.2208 5.0968 12.5535 27.6601
113 2 2.2208 2.32171 20.8001 27.5813
9031 2 2.2208 13.5424 15.3131 27.6349
8996 2 2.2208 -0.332646 12.4662 27.6511
25 2 2.2208 5.18806 1.09238 27.6671
144 2 2.2208 7.84708 20.8471 27.5991
9107 2 2.2208 13.6469 1.23699 13.6704
452 2 2.2208 10.4496 20.8959 13.7432
635 2 2.2208 2.35857 18.0648 13.7405
225 2 2.2208 2.28371 6.77669 13.825
637 2 2.2208 5.20484 23.71 5.14853
638 2 2.2208 5.23618 29.3277 5.27018
639 1 -1.1104 1.06961 25.2592 0.78526
640 1 -1.1104 0.961153 25.0844 3.64016
641 1 -1.1104 1.03584 22.3384 0.874161
642 1 -1.1104 1.04737 27.9098 1.02266
643 2 2.2208 5.25691 26.5283 2.41567
644 1 -1.1104 1.00372 22.4425 3.84396
645 1 -1.1104 0.951667 27.7571 3.77856
646 1 -1.1104 3.83437 25.1195 0.987901
647 2 2.2208 2.357 23.7615 2.38853
648 2 2.2208 2.47791 29.3756 2.43169
649 1 -1.1104 3.79989 25.233 3.81661
650 2 2.2208 2.43993 26.5649 5.30665
651 1 -1.1104 3.82677 22.3229 1.08962
652 1 -1.1104 3.82198 27.9181 1.05191
653 1 -1.1104 3.73573 22.3621 3.79468
654 1 -1.1104 3.85289 28.0285 3.88383
659 1 -1.1104 6.57853 27.7709 1.05188
1512 1 -1.1104 3.8798 47.299 12.3119
818 2 2.2208 13.6474 46.105 2.62615
695 2 2.2208 7.98811 26.5112 -0.33925
979 2 2.2208 13.6074 32.0402 -0.287415
1372 1 -1.1104 9.45729 47.4436 3.77288
978 2 2.2208 13.6078 23.679 2.43854
974 2 2.2208 10.875 46.3157 10.9136
823 2 2.2208 8.10438 43.3213 -0.279713
658 1 -1.1104 6.70136 22.2783 1.00797
657 1 -1.1104 6.62099 25.1411 3.6249
656 1 -1.1104 6.60476 25.0468 0.902772
660 1 -1.1104 6.61547 22.3556 3.89742
1007 2 2.2208 2.42684 29.2716 13.5113
661 1 -1.1104 6.54957 27.9096 3.97511
671 2 2.2208 10.7884 23.663 5.24831
672 2 2.2208 10.7947 29.2908 5.34166
673 1 -1.1104 12.3619 25.2213 1.08786
674 1 -1.1104 11.9671 25.2081 3.75737
675 1 -1.1104 12.2174 22.3246 0.995853
676 1 -1.1104 12.2092 27.8792 1.08566
677 2 2.2208 10.7955 26.4963 2.4804
678 1 -1.1104 12.2305 22.2338 3.71134
679 1 -1.1104 12.357 27.9245 4.04527
680 1 -1.1104 9.47317 25.1059 0.955232
681 2 2.2208 8.12969 23.695 2.35067
682 2 2.2208 7.9454 29.4118 2.50237
683 1 -1.1104 9.38888 25.2159 3.79966
684 2 2.2208 8.00382 26.5356 5.28416
685 1 -1.1104 9.43727 22.3025 0.973149
686 1 -1.1104 9.30363 27.9654 0.985894
687 1 -1.1104 9.4449 22.3017 3.82297
688 1 -1.1104 9.46587 27.9166 3.90933
9853 2 2.2208 -0.343727 34.9949 10.8412
946 2 2.2208 10.8267 43.3677 13.6721
962 1 -1.1104 9.3374 41.9641 12.1615
958 2 2.2208 8.02125 43.3923 10.7284
699 2 2.2208 5.23207 34.8603 5.39976
700 1 -1.1104 1.01688 30.6763 1.09135
701 1 -1.1104 0.946585 36.3956 0.940537
703 1 -1.1104 1.11455 30.6314 3.86445
704 1 -1.1104 1.08519 36.3932 3.71306
706 1 -1.1104 1.05267 33.5306 1.06686
707 2 2.2208 5.17802 32.2978 2.48861
708 2 2.2208 5.1662 37.6313 2.44237
709 1 -1.1104 1.04415 33.5656 3.93577
711 1 -1.1104 3.836 30.7078 1.10537
712 1 -1.1104 3.72113 36.4486 1.17839
713 2 2.2208 2.35706 34.9351 2.45457
714 1 -1.1104 3.99184 30.7732 3.83418
715 1 -1.1104 3.88329 36.2757 3.9548
716 2 2.2208 2.48801 32.0861 5.28736
717 2 2.2208 2.66719 37.7577 5.35412
718 1 -1.1104 3.76689 33.5637 1.02829
719 1 -1.1104 3.80234 33.5099 3.89577
730 1 -1.1104 3.98509 33.5115 6.77249
722 1 -1.1104 6.4741 30.6754 1.13564
710 1 -1.1104 6.614 33.5761 3.88128
729 1 -1.1104 3.76713 36.2773 6.76902
728 1 -1.1104 3.77252 30.65 6.51137
702 1 -1.1104 6.53824 36.4308 1.008
724 1 -1.1104 6.67512 33.5026 1.0818
873 1 -1.1104 1.1767 36.295 6.58301
967 1 -1.1104 11.9667 39.3134 12.2743
976 2 2.2208 13.5638 40.4846 8.14545
757 2 2.2208 13.6144 32.2341 5.16359
705 1 -1.1104 6.58541 36.24 4.01454
723 1 -1.1104 6.6402 30.7492 3.84538
733 2 2.2208 10.8051 34.9186 5.24029
734 1 -1.1104 12.2777 30.6972 1.14823
735 1 -1.1104 12.2245 36.2042 1.14007
736 1 -1.1104 12.1393 30.7044 4.11956
737 1 -1.1104 12.201 36.2746 3.92468
738 1 -1.1104 12.3214 33.4188 1.05045
739 2 2.2208 10.7824 32.0354 2.37354
740 2 2.2208 10.9392 37.652 2.43195
741 1 -1.1104 12.2665 33.4254 3.84876
742 1 -1.1104 9.29992 30.6614 0.98937
743 1 -1.1104 9.34795 36.3809 0.960066
744 2 2.2208 8.07226 34.8811 2.34398
745 1 -1.1104 9.39598 30.726 3.70996
746 1 -1.1104 9.43258 36.3364 3.83536
747 2 2.2208 7.97975 32.2096 5.23097
748 2 2.2208 7.9976 37.737 5.19855
749 1 -1.1104 9.33179 33.5612 0.991242
750 1 -1.1104 9.3572 33.619 3.77959
752 1 -1.1104 12.2476 33.6189 6.57316
755 1 -1.1104 9.46743 33.6363 6.6066
754 1 -1.1104 9.5136 36.3085 6.75744
948 1 -1.1104 6.6767 44.7879 9.38156
925 1 -1.1104 6.67968 39.1327 12.0915
9705 2 2.2208 -0.228441 32.1705 2.53758