LAMMPS data file via write_data, version 29 Oct 2020, timestep = 100270

17760 atoms
3 atom types

-0.45331725211869756 27.79331725211904 xlo xhi
-5.380221107516311 333.46022110750243 ylo yhi
-0.4535991496721983 27.793599149672044 zlo zhi

Masses

1 15.9994
2 232.0381
3 83.798

Atoms # full

1 0 2 2.2208 5.435153760046598 0.1994810646361392 5.464064886224871 0 0 0
2 0 1 -1.1104 1.073387157123135 -4.03120914096632 0.9764683627502095 0 0 0
6 0 1 -1.1104 1.0655927697725707 -4.155913081392497 3.8436208675972012 0 0 0
10 0 1 -1.1104 1.1858579021392714 -1.1508848880223075 0.8788294574119477 0 0 0
12 0 2 2.2208 5.361837355113456 -2.698046796934031 2.485999541752334 0 0 0
14 0 1 -1.1104 1.1967865586068323 -1.2516262445010957 3.707849155120333 0 0 0
16 0 1 -1.1104 3.9121225340685015 -4.086999137909828 1.0284718477862873 0 0 0
18 0 2 2.2208 2.6089458427800736 0.21061186746837227 2.6180224399542906 0 0 0
19 0 1 -1.1104 3.821868896438214 -4.012937007214546 3.8079340543817737 0 0 0
21 0 2 2.2208 2.4704708949444325 -2.677630194815994 5.362585737707429 0 0 0
23 0 1 -1.1104 4.093923086959876 -1.2310192738204815 1.1264789840307947 0 0 0
24 0 1 -1.1104 3.937704710728498 -1.1177584854727898 4.0320787474302 0 0 0
26 0 2 2.2208 -0.2822792572328872 0.1953610795484339 5.41082608594271 0 0 0
25 0 2 2.2208 -0.4050397459880141 -2.5133271081356097 2.590418470671713 0 0 0
364 0 2 2.2208 5.440108300421445 0.10726841127355204 -0.2813238590369465 0 0 0
368 0 2 2.2208 -0.22350256023874124 0.20221398197993642 -0.22591864791326072 0 0 0
365 0 2 2.2208 2.587556766462771 -2.687831015511178 -0.21675958255441222 0 0 0
374 0 2 2.2208 5.48912836465239 17.078865115886213 -0.32124362243747107 0 0 0
166 0 1 -1.1104 0.9174452040478195 -4.027287485191342 6.77184203708377 0 0 0
15 0 1 -1.1104 6.723093121374128 -1.3682102432958785 3.9280316320700996 0 0 0
11 0 1 -1.1104 6.85414403003964 -1.201387477123661 1.0365454675959023 0 0 0
4 0 1 -1.1104 6.871504743415443 -4.0382417847801495 1.248331799823861 0 0 0
8 0 1 -1.1104 6.9174389691732046 -4.069833042454862 4.097248592487937 0 0 0
31 0 2 2.2208 11.19942580610659 0.26075573929812934 5.460646004260662 0 0 0
32 0 1 -1.1104 12.41146792361847 -3.850035928781302 1.0357289798995384 0 0 0
34 0 1 -1.1104 12.451465006279493 -4.0700166759673095 3.886053472195238 0 0 0
36 0 1 -1.1104 12.3836734970173 -1.1583240875204877 1.1080098278339106 0 0 0
37 0 2 2.2208 11.097761029639283 -2.6085876552984506 2.7548207770309783 0 0 0
39 0 1 -1.1104 12.680791377101635 -1.1594847051364772 3.9902727358431562 0 0 0
40 0 1 -1.1104 9.61484969010832 -4.022473180427912 1.230964326673022 0 0 0
42 0 2 2.2208 8.254164910099542 0.14110864966783573 2.655191034261521 0 0 0
43 0 1 -1.1104 9.776081037570727 -4.081611718933332 4.29021457332481 0 0 0
45 0 2 2.2208 8.161070466789361 -2.5239242978015164 5.511077964662534 0 0 0
47 0 1 -1.1104 9.61989744802048 -1.1959695193447737 1.6270993367285764 0 0 0
48 0 1 -1.1104 9.44438519794517 -0.9597412955163168 4.441936145298384 0 0 0
370 0 2 2.2208 8.264876168950522 -2.705476125149187 -0.14493603351331572 0 0 0
369 0 2 2.2208 10.932842973692686 0.3404314646326193 -0.16411332140535073 0 0 0
27 0 2 2.2208 -0.09713169843447686 2.9631306201050505 2.4266097424360176 0 0 0
81 0 2 2.2208 -0.07006900500810818 5.769796205840372 5.376176856970752 0 0 0
3 0 1 -1.1104 1.0785602679498112 1.5130957614880693 1.0300657359387753 0 0 0
7 0 1 -1.1104 1.398269627349026 1.5896399976411966 3.937200917355217 0 0 0
13 0 2 2.2208 5.676873370138746 3.0567176049626497 2.6388321937006585 0 0 0
17 0 1 -1.1104 4.054918221691598 1.7069073486250672 1.1762410278310869 0 0 0
20 0 1 -1.1104 4.244171172139995 1.9371553175983258 4.225491133721011 0 0 0
22 0 2 2.2208 2.7033635146397015 3.02541794671641 5.5327813716541305 0 0 0
54 0 2 2.2208 5.543909898303126 5.907086938534218 5.30482241735691 0 0 0
56 0 1 -1.1104 1.375711670371831 6.908528409824064 1.263618641920036 0 0 0
60 0 1 -1.1104 1.4252824685443133 4.309357350908273 1.0448068003806534 0 0 0
67 0 1 -1.1104 1.2563155911298332 4.445721976112205 3.9350295249435905 0 0 0
72 0 2 2.2208 2.7425164591642606 5.730829335540454 2.5372999467245805 0 0 0
76 0 1 -1.1104 4.270002622443504 4.549888737230097 1.0252159441562427 0 0 0
79 0 1 -1.1104 4.100625288835293 4.460577905495558 4.151637916903498 0 0 0
58 0 1 -1.1104 1.336649396101324 7.165821814136941 4.17303262614101 0 0 0
74 0 1 -1.1104 4.084657106933429 7.300592712610327 4.057776248008664 0 0 0
71 0 1 -1.1104 4.133183387123714 7.330799645070629 0.9978596468759748 0 0 0
366 0 2 2.2208 2.512829093452013 2.9551958630738024 -0.4367395025083536 0 0 0
379 0 2 2.2208 5.465514753655332 5.85133858123288 -0.38406681753074834 0 0 0
237 0 1 -1.1104 6.936348950804639 4.407179587450746 6.922759862379228 0 0 0
383 0 2 2.2208 -0.08533365051181453 5.739568382609536 -0.20732666754125317 0 0 0
63 0 1 -1.1104 6.9229754212233185 4.449902249775557 1.141023272724609 0 0 0
69 0 1 -1.1104 7.234094090365974 4.523135215229397 3.928698445956076 0 0 0
9 0 1 -1.1104 7.004172627086761 1.5122394374134775 4.075670954244773 0 0 0
59 0 1 -1.1104 7.080396555871136 7.3989591102936245 3.8907341808423923 0 0 0
57 0 1 -1.1104 6.899377821064451 7.279117086257716 0.9731315266579283 0 0 0
5 0 1 -1.1104 6.885246705685262 1.5184185906343706 1.3978473447711002 0 0 0
33 0 1 -1.1104 12.477079040129235 1.5492279673054943 1.3607773268061438 0 0 0
35 0 1 -1.1104 12.571605765583122 1.5760878700724126 4.090931884385436 0 0 0
38 0 2 2.2208 11.059132335567105 3.080476831144801 2.7093499216081964 0 0 0
41 0 1 -1.1104 9.644284567300884 1.5302909643287337 1.2348454528755168 0 0 0
44 0 1 -1.1104 9.86647566973088 1.6163528071998732 3.991165013632312 0 0 0
46 0 2 2.2208 8.293428505452122 2.9083843556822884 5.4193718484983835 0 0 0
84 0 2 2.2208 11.164075559341438 5.851924042074766 5.512706905534919 0 0 0
88 0 1 -1.1104 12.52300190654525 4.4955190750320755 0.9026676577757036 0 0 0
92 0 1 -1.1104 12.66018383779042 4.7314239162977465 3.8294366198012204 0 0 0
95 0 2 2.2208 8.37856570040502 5.826515315771556 2.533700012058235 0 0 0
99 0 1 -1.1104 9.66699166493224 4.346552904364192 1.4058442515147154 0 0 0
102 0 1 -1.1104 9.848017365617526 4.425366063609952 4.126937782515189 0 0 0
97 0 1 -1.1104 9.69596615839624 7.262524058104008 4.075740923354808 0 0 0
94 0 1 -1.1104 9.51278913656329 7.195054015781538 1.2925136034053273 0 0 0
87 0 1 -1.1104 12.693298470079393 7.4035096615917615 4.073962379026513 0 0 0
86 0 1 -1.1104 12.377612312220931 7.400308172915149 1.116831061722086 0 0 0
384 0 2 2.2208 11.153390196987147 5.943929771568448 -0.3892839126805609 0 0 0
372 0 2 2.2208 8.155740808216715 2.9723564175153343 -0.11705516290505903 0 0 0
381 0 2 2.2208 5.42680803355651 11.445215271469113 -0.10043639240493865 0 0 0
382 0 2 2.2208 -0.2009459534125631 11.481004047885882 -0.17628436300015254 0 0 0
380 0 2 2.2208 2.747721434781965 8.60320254131732 -0.22340967335806 0 0 0
55 0 2 2.2208 5.513976043695347 11.529685575396137 5.544127948181789 0 0 0
61 0 1 -1.1104 1.097419443431327 9.656470247023261 1.1663528798406564 0 0 0
66 0 2 2.2208 5.518240294365732 8.85573880011888 2.599268474438714 0 0 0
68 0 1 -1.1104 1.278585943933778 10.047814012464292 3.8950262747434574 0 0 0
73 0 2 2.2208 2.590830561998837 11.429633701419823 2.6640036338281305 0 0 0
75 0 2 2.2208 2.7686768213191044 8.651051533721937 5.470199046219945 0 0 0
77 0 1 -1.1104 3.8703450425914756 10.032171104344517 1.3247266408589429 0 0 0
80 0 1 -1.1104 4.036984866081037 10.248197705902117 4.0569568383798895 0 0 0
107 0 1 -1.1104 1.1409324172050346 12.655873999627499 1.163242102835649 0 0 0
113 0 1 -1.1104 1.2152793708301524 12.87740274397999 3.9652146555897363 0 0 0
123 0 1 -1.1104 3.921499006870715 12.766478142440242 1.0829065904793602 0 0 0
128 0 1 -1.1104 3.9412542912858672 12.83099371688928 4.125828667193114 0 0 0
82 0 2 2.2208 -0.05737629095338685 8.469153034150086 2.743089704838537 0 0 0
83 0 2 2.2208 -0.15441364748078307 11.608907559392458 5.350106404715532 0 0 0
135 0 2 2.2208 -0.10778001024052278 14.320811740773593 2.6198274262622046 0 0 0
115 0 1 -1.1104 6.542137353096505 12.966538458272467 4.26320387108963 0 0 0
70 0 1 -1.1104 7.060283146295881 10.143099976784377 4.01574545587153 0 0 0
110 0 1 -1.1104 6.83677801976887 12.864707813611856 1.3385665828251798 0 0 0
64 0 1 -1.1104 6.843035350886236 9.990625449132041 1.0399253795358097 0 0 0
85 0 2 2.2208 11.13159280545252 11.522847101437712 5.385766616472298 0 0 0
89 0 1 -1.1104 12.472589909103352 9.842879733100947 1.1403580176558934 0 0 0
91 0 2 2.2208 10.911138906636156 8.629711485482021 2.589456529664029 0 0 0
93 0 1 -1.1104 12.604231800081415 9.991749185088118 4.1214426696924145 0 0 0
96 0 2 2.2208 8.214702524628263 11.487169087620925 2.4177662201305856 0 0 0
98 0 2 2.2208 8.410772283035726 8.56294195562334 5.465745700460643 0 0 0
100 0 1 -1.1104 9.502118810526486 10.255996201232707 1.083336295994618 0 0 0
103 0 1 -1.1104 9.897393820216825 10.032344982188896 3.8882193149905167 0 0 0
142 0 1 -1.1104 12.547102249961656 12.898248551674056 0.9627491951408254 0 0 0
146 0 1 -1.1104 12.23543315330107 13.043657927942348 3.7677822857087606 0 0 0
153 0 1 -1.1104 9.60390081056959 12.815358289559448 1.1089205274151803 0 0 0
158 0 1 -1.1104 9.47838881424525 13.114692575707107 3.8401979107324404 0 0 0
143 0 1 -1.1104 12.483822600240384 12.848559401657512 6.648409031159911 0 0 0
160 0 2 2.2208 8.25368938999432 14.540831199371384 5.4221893027162595 0 0 0
325 0 2 2.2208 11.194484264595246 14.181678715483233 8.201358127746362 0 0 0
386 0 2 2.2208 11.141231717078027 11.653158284885226 -0.3226956194379487 0 0 0
119 0 2 2.2208 5.380915294605934 14.290165017650594 2.6579575947075553 0 0 0
130 0 2 2.2208 2.5932908849102474 14.30134281477396 5.563552166553185 0 0 0
106 0 2 2.2208 5.493704728710912 17.1182416064236 5.263074724730234 0 0 0
109 0 1 -1.1104 1.2140906555842175 18.451246733854525 1.1586312225293076 0 0 0
114 0 1 -1.1104 1.1410171286327622 18.42937568580995 3.985176245645865 0 0 0
116 0 1 -1.1104 1.364633337173778 15.675243258705443 1.3122610272216244 0 0 0
120 0 2 2.2208 5.364985151763382 19.980771331819955 2.6470535479753248 0 0 0
121 0 1 -1.1104 1.0367027233305914 15.780810289389349 3.965903363168782 0 0 0
125 0 1 -1.1104 4.063143078654701 18.459327421126478 1.1809235674802285 0 0 0
127 0 2 2.2208 2.614015089851469 17.108482025952544 2.578831608012537 0 0 0
129 0 1 -1.1104 3.771959203589157 18.45732110249769 4.107178151703468 0 0 0
131 0 2 2.2208 2.472311889818386 19.816379577860378 5.371564838194519 0 0 0
132 0 1 -1.1104 4.03809991570027 15.585954048543297 1.2712820050571179 0 0 0
134 0 1 -1.1104 3.839412085882262 15.522114507917832 4.1641879039283785 0 0 0
136 0 2 2.2208 -0.14556084290245103 19.79969135842913 2.564551705157464 0 0 0
137 0 2 2.2208 -0.265169404374367 17.107184122479925 5.4513501878170265 0 0 0
375 0 2 2.2208 2.638117973607011 19.775039948570573 -0.1039162931034174 0 0 0
371 0 2 2.2208 -0.17770791484090673 17.159282610947493 -0.1475479952563424 0 0 0
373 0 2 2.2208 2.6683557512591785 14.23909691284282 -0.23736303590264374 0 0 0
9031 0 2 2.2208 -0.31192318191686985 -5.269658551832995 11.099546652275393 0 0 0
347 0 2 2.2208 8.146655133731883 14.331346211448892 -0.295320661959629 0 0 0
138 0 1 -1.1104 6.710609989235562 18.616107627622736 1.1329808209338506 0 0 0
140 0 1 -1.1104 6.858585348407963 15.625398017418814 1.1269467376722004 0 0 0
139 0 1 -1.1104 6.7910843903410045 18.56329628249673 3.9397784804302987 0 0 0
122 0 1 -1.1104 6.685619062252059 15.649756479085687 3.7967269666297208 0 0 0
150 0 2 2.2208 10.881062600884968 14.44149008057125 2.4116426688668757 0 0 0
141 0 2 2.2208 11.033621153594552 16.971940145300017 5.415314000130063 0 0 0
144 0 1 -1.1104 12.470176566590467 18.363952872249428 1.055870428789891 0 0 0
147 0 1 -1.1104 12.577096144591144 18.6484838398725 4.026304209470295 0 0 0
148 0 1 -1.1104 12.435190674254152 15.68308274851453 1.1368047572071167 0 0 0
151 0 2 2.2208 11.06771226302711 19.922716168039933 2.407850013491639 0 0 0
152 0 1 -1.1104 12.369315703708688 15.961995476693227 3.7509360710506687 0 0 0
155 0 1 -1.1104 9.540562573086662 18.702245641164787 1.0282378407674928 0 0 0
157 0 2 2.2208 8.254527260619035 17.168104626276065 2.4859755325673216 0 0 0
159 0 1 -1.1104 9.740131251246156 18.53895058211306 4.045004732465646 0 0 0
161 0 2 2.2208 8.354652509670334 19.85618883064698 5.343451780539943 0 0 0
162 0 1 -1.1104 9.488833064845164 15.68071813898627 1.0783587545363507 0 0 0
164 0 1 -1.1104 9.573386408760157 15.944502066712449 4.039205289387983 0 0 0
349 0 2 2.2208 8.210762902978095 19.85493225474536 -0.23581936364467268 0 0 0
172 0 1 -1.1104 4.140047064413517 -4.058095989848098 6.613626316224089 0 0 0
170 0 1 -1.1104 1.478843920009885 -0.9687969117277357 6.7164673329690086 0 0 0
201 0 2 2.2208 -0.29511222819891747 0.4712414003436616 11.000720834215352 0 0 0
327 0 1 -1.1104 12.381601641913822 18.221270929686604 9.534867391158993 0 0 0
174 0 1 -1.1104 4.08614035456499 -1.2940026576593107 6.839000314659633 0 0 0
175 0 2 2.2208 5.375853048134831 0.2592684167685323 11.068543286534752 0 0 0
176 0 1 -1.1104 1.2649816762355395 -3.845466002664817 12.302770699632958 0 0 0
180 0 1 -1.1104 1.2107923073231495 -3.888001510544856 9.589075076969785 0 0 0
184 0 1 -1.1104 1.0771659860631864 -1.1430591724135717 12.308833534385897 0 0 0
186 0 2 2.2208 5.467377756842996 -2.5893027593899047 8.206250360132021 0 0 0
188 0 1 -1.1104 1.10835211602566 -1.3436590895100937 9.61452929588651 0 0 0
190 0 1 -1.1104 4.1577193235489895 -4.096562986561154 12.517980367704647 0 0 0
192 0 2 2.2208 2.695400053527513 0.08241386334325772 8.17587099130282 0 0 0
193 0 1 -1.1104 3.8531414498137675 -4.066364327976407 9.88608671739266 0 0 0
195 0 2 2.2208 2.5589036132090475 -2.476590011553166 11.07710461265393 0 0 0
197 0 1 -1.1104 4.134020220427498 -1.1064891783085813 12.390659981474158 0 0 0
198 0 1 -1.1104 4.063143477997228 -1.357869235689502 9.491222161317161 0 0 0
168 0 1 -1.1104 7.040572375671982 -4.0006530986193365 6.761655341039068 0 0 0
171 0 1 -1.1104 6.900683694675801 -1.272354860095314 6.906176350630094 0 0 0
210 0 1 -1.1104 9.758476428657751 -1.402537486712097 6.8601845450103935 0 0 0
329 0 1 -1.1104 12.484810290552167 18.47050120047999 12.234607861137516 0 0 0
205 0 1 -1.1104 12.47913524607036 -3.9329638874387283 6.891814834740478 0 0 0
182 0 1 -1.1104 6.8181962610359275 -4.119339412948693 9.576664937877972 0 0 0
189 0 1 -1.1104 6.803130457583575 -1.2861343366149487 9.664148271133667 0 0 0
178 0 1 -1.1104 7.184453862906273 -4.142166979051817 12.486664440392984 0 0 0
185 0 1 -1.1104 6.735632083049559 -1.2066365773034187 12.43172706729369 0 0 0
208 0 1 -1.1104 9.746061021240378 -4.154995109503622 6.927446844525317 0 0 0
207 0 1 -1.1104 12.57190854404361 -1.1826999655447976 6.748285514496659 0 0 0
211 0 2 2.2208 11.123550907453163 0.19484560460073141 11.114614657965259 0 0 0
212 0 1 -1.1104 12.644785443544675 -4.248336203427461 12.255154615319883 0 0 0
214 0 1 -1.1104 12.292129634915748 -4.026521579382799 9.52420050742193 0 0 0
216 0 1 -1.1104 12.488067057848964 -1.5243947031527458 12.370388826017983 0 0 0
217 0 2 2.2208 11.105015852023444 -2.601175666301232 8.320999187370806 0 0 0
219 0 1 -1.1104 12.437165038726038 -0.9961346439696251 9.602101857416388 0 0 0
220 0 1 -1.1104 9.814925802342163 -4.119792677213642 12.637853134232744 0 0 0
222 0 2 2.2208 8.514989164780056 0.16354657186822164 8.324997335026051 0 0 0
223 0 1 -1.1104 9.429629321150141 -4.144363499937863 9.931698903360317 0 0 0
225 0 2 2.2208 8.194678761743859 -2.6606543749536584 11.103554523784178 0 0 0
227 0 1 -1.1104 9.635767513415349 -1.2293738287913802 12.312372269677565 0 0 0
228 0 1 -1.1104 9.732843785292774 -1.240340501668708 9.59051182709604 0 0 0
200 0 2 2.2208 -0.25167676746956363 -2.712241182141812 8.134099336690678 0 0 0
167 0 1 -1.1104 1.0637966238741705 1.7642936700863012 6.613752436903111 0 0 0
238 0 1 -1.1104 4.096819712052152 7.196030121124774 6.874738177107702 0 0 0
234 0 1 -1.1104 1.2766684370219343 7.35157805664694 6.854152096646851 0 0 0
173 0 1 -1.1104 4.089400870680017 1.5497530605323868 7.132878674010438 0 0 0
29 0 2 2.2208 -0.20564094713746175 5.849907532509904 11.082893107657982 0 0 0
236 0 1 -1.1104 1.3620025649002114 4.609352225170945 6.81639765624049 0 0 0
239 0 1 -1.1104 4.089280335864198 4.4746261010906 6.850748716521757 0 0 0
194 0 1 -1.1104 4.016891301906429 1.6780666259923371 9.713013593105241 0 0 0
177 0 1 -1.1104 1.287186382260391 1.6637736529465614 12.449164456374396 0 0 0
181 0 1 -1.1104 1.2174955533433622 1.3892697554002198 9.489203717158526 0 0 0
187 0 2 2.2208 5.5557560119011455 2.9837556147147395 8.398115014611143 0 0 0
191 0 1 -1.1104 4.028856180296111 1.6226069288477492 12.49646120325477 0 0 0
196 0 2 2.2208 2.6757390060647848 2.9129644258124596 11.066245084265901 0 0 0
240 0 2 2.2208 5.5138358182669736 5.966489994966937 11.2520691697064 0 0 0
246 0 1 -1.1104 1.17207826443182 4.571737003822847 12.442598652718567 0 0 0
251 0 1 -1.1104 1.0598836555835638 4.468814479493057 9.800114959038588 0 0 0
256 0 2 2.2208 2.602171970153707 5.813123522612734 8.08073341838657 0 0 0
260 0 1 -1.1104 4.17657030909283 4.350290380464051 12.54660934448338 0 0 0
262 0 1 -1.1104 3.8533784923093415 4.34697075634611 9.633736408461987 0 0 0
255 0 1 -1.1104 3.9120966804967012 7.209009305061607 12.398989361271948 0 0 0
242 0 1 -1.1104 1.0345706429485355 7.303784693724691 12.483570560507655 0 0 0
258 0 1 -1.1104 4.107965955338853 7.390013589005531 9.632540319116544 0 0 0
244 0 1 -1.1104 1.171633204306599 7.228168310188603 9.774071750235137 0 0 0
199 0 2 2.2208 -0.1285057284803812 3.0898617832782813 8.36688448285029 0 0 0
266 0 1 -1.1104 12.43087194476584 4.284817440455465 6.680610628527246 0 0 0
209 0 1 -1.1104 9.771720497819059 1.5798772891394461 6.92617751650673 0 0 0
265 0 1 -1.1104 12.463985031723073 7.052927697374463 6.977389136454179 0 0 0
206 0 1 -1.1104 12.652694594286253 1.6242166222533736 6.982586526557585 0 0 0
269 0 1 -1.1104 9.867362330552462 4.469941244303271 7.226525898574148 0 0 0
169 0 1 -1.1104 6.924821814892831 1.5400133780456913 6.909765886443758 0 0 0
235 0 1 -1.1104 6.770856105905877 7.299511785759513 6.786501857136619 0 0 0
267 0 1 -1.1104 9.643775229949416 7.1933164175224515 6.906154228406648 0 0 0
183 0 1 -1.1104 7.020011562493029 1.4804662496715435 9.583933990250202 0 0 0
243 0 1 -1.1104 6.94523922158488 7.4618286337670225 12.41922389384145 0 0 0
245 0 1 -1.1104 6.858732230204317 7.10624252429731 9.498202671649139 0 0 0
253 0 1 -1.1104 6.655610222864113 4.084997743133155 10.013570373608372 0 0 0
179 0 1 -1.1104 6.663955795623782 1.6989856912587924 12.499498885997966 0 0 0
248 0 1 -1.1104 6.959693077898937 4.632554164854935 12.574390813110764 0 0 0
213 0 1 -1.1104 12.25068979173145 1.277377729211378 12.769532522294144 0 0 0
215 0 1 -1.1104 12.732050717824432 1.8677515125616921 9.763551119822951 0 0 0
218 0 2 2.2208 11.341228829198597 3.0508546047316036 8.245973832475611 0 0 0
221 0 1 -1.1104 9.653912550585423 1.583744192196138 12.508999315998505 0 0 0
224 0 1 -1.1104 9.769712709337316 1.741134768656491 9.662823590239114 0 0 0
226 0 2 2.2208 8.363955841295457 2.9330766659150598 11.100903558807387 0 0 0
268 0 1 -1.1104 9.688621119054062 4.505960957264066 10.111356762515829 0 0 0
271 0 1 -1.1104 9.790301564592768 4.4372854412852965 12.619091126673375 0 0 0
275 0 2 2.2208 8.432758687139184 5.846332562261541 8.372515424929244 0 0 0
276 0 2 2.2208 11.173539134301574 5.698550950442768 11.214708282589658 0 0 0
280 0 1 -1.1104 12.544387591941142 4.329444114703414 12.370344512490547 0 0 0
283 0 1 -1.1104 12.281711350048218 4.529097565136956 9.678950788320746 0 0 0
279 0 1 -1.1104 12.624714517176944 7.186268226482198 9.758650756213562 0 0 0
273 0 1 -1.1104 9.613197888807084 7.317630681243527 9.73758361099562 0 0 0
278 0 1 -1.1104 12.651860512671394 6.9882458700139125 12.493694954241167 0 0 0
285 0 1 -1.1104 9.765612666738555 7.280747464508102 12.6003112439294 0 0 0
62 0 1 -1.1104 1.24998716733796 10.127993776961235 6.73833117118328 0 0 0
124 0 1 -1.1104 3.9483082247188275 12.738922326491288 7.085190513274019 0 0 0
30 0 2 2.2208 -0.189278400442363 8.7809666422457 8.257824749718878 0 0 0
108 0 1 -1.1104 1.177776528202876 12.951060811685124 6.745511606638946 0 0 0
78 0 1 -1.1104 4.23171273736854 9.98065327046461 6.655884165385084 0 0 0
299 0 1 -1.1104 1.0648267650018957 12.922386001627471 12.596977811254396 0 0 0
294 0 1 -1.1104 1.188065373029104 12.783231976466213 9.769799010256385 0 0 0
241 0 2 2.2208 5.504766582376295 11.482491918898777 11.0580422800256 0 0 0
247 0 1 -1.1104 1.076023295711412 10.009572277556035 12.505300631136203 0 0 0
250 0 2 2.2208 5.5825786334808685 8.527223838667473 8.234826518099277 0 0 0
252 0 1 -1.1104 1.1632552008047663 10.118637945090374 9.69114581355789 0 0 0
257 0 2 2.2208 2.562058685856871 11.27747987749765 8.271840656631882 0 0 0
259 0 2 2.2208 2.5635051226690284 8.600616723483569 11.113429861782247 0 0 0
261 0 1 -1.1104 4.051300262393516 10.021918826873016 12.655479219232005 0 0 0
263 0 1 -1.1104 4.0875855871154805 10.167430823750678 9.614765101558483 0 0 0
305 0 1 -1.1104 4.0468247487273645 12.961178945785962 9.875241325442525 0 0 0
287 0 1 -1.1104 3.8632953850704426 12.87051459753837 12.592960228214837 0 0 0
51 0 2 2.2208 -0.3723189733914935 11.512502721335796 11.13583722955988 0 0 0
313 0 2 2.2208 -0.02040497510149861 14.430620622065188 8.380724386278489 0 0 0
295 0 2 2.2208 5.372790085442544 14.10477198830949 8.211288623058763 0 0 0
65 0 1 -1.1104 6.908380363616057 10.241625028827125 6.782909651826906 0 0 0
154 0 1 -1.1104 9.77401340458413 12.831360394955526 6.748114191565271 0 0 0
90 0 1 -1.1104 12.527703305434146 10.115517967981884 6.851424980156081 0 0 0
101 0 1 -1.1104 9.668962492609616 9.915263964792043 6.850941957975101 0 0 0
111 0 1 -1.1104 7.078230877539928 13.136659478767129 7.005204879326947 0 0 0
249 0 1 -1.1104 6.86834575567772 10.123541345172669 12.389706383762784 0 0 0
254 0 1 -1.1104 7.034704798342822 9.86235560701858 9.61957597253883 0 0 0
297 0 1 -1.1104 6.881505921351334 12.97603462139235 12.45200835518337 0 0 0
290 0 1 -1.1104 6.625401472093238 12.75650562112666 9.549777672213377 0 0 0
330 0 1 -1.1104 12.313033846045135 12.725337397358096 12.360571615628476 0 0 0
328 0 1 -1.1104 12.566259213726415 12.792857190058543 9.57149051352463 0 0 0
322 0 1 -1.1104 9.65418962802742 13.019214259071543 12.489294840388023 0 0 0
319 0 1 -1.1104 9.623454034731441 12.85928105820114 9.572442685107061 0 0 0
264 0 1 -1.1104 9.923505092263579 10.143323745216584 9.503766272638243 0 0 0
270 0 1 -1.1104 9.772841167294459 10.175980445939508 12.227745942961091 0 0 0
272 0 2 2.2208 8.457126018383683 8.732822275968998 11.053966452962342 0 0 0
274 0 2 2.2208 8.232296965243641 11.491567888351593 8.062411864334734 0 0 0
277 0 2 2.2208 11.052371841442634 11.538892166895973 11.041207345155234 0 0 0
281 0 1 -1.1104 12.568301471749155 9.961798033697617 12.512523394509367 0 0 0
282 0 2 2.2208 11.113521597164452 8.646163673587528 8.328863396688858 0 0 0
284 0 1 -1.1104 12.576231193195586 10.053471633573858 9.692484874195078 0 0 0
314 0 1 -1.1104 9.854132362585744 15.598901478125953 9.729023606665464 0 0 0
302 0 1 -1.1104 1.0998985003078292 18.601309304946152 6.780518796574173 0 0 0
126 0 1 -1.1104 4.0010808399748745 18.393816842690907 6.787304946635695 0 0 0
133 0 1 -1.1104 3.966887684164501 15.608515134472523 6.8379731345306585 0 0 0
117 0 1 -1.1104 1.144545668248796 15.749609587861658 6.6157730823705645 0 0 0
311 0 2 2.2208 -0.261147851812674 19.928988256637528 8.19142727411193 0 0 0
310 0 2 2.2208 2.596579739611817 14.207521629082503 11.128223600042103 0 0 0
286 0 1 -1.1104 4.142157902778797 18.761623741778582 12.346075344230938 0 0 0
303 0 2 2.2208 2.495954790993204 17.18533619852147 8.064192871249508 0 0 0
291 0 1 -1.1104 1.163383813195606 18.431359180905485 9.375485129550372 0 0 0
301 0 1 -1.1104 4.04502359833303 18.583302219061064 9.423203472411616 0 0 0
293 0 2 2.2208 5.5369645270486405 19.67544099066719 8.154980051073302 0 0 0
300 0 2 2.2208 5.334751568529226 17.12308810936174 11.057810968633408 0 0 0
309 0 2 2.2208 2.519607752641406 19.91047006920159 10.932149229460224 0 0 0
308 0 1 -1.1104 4.265989448621717 15.675022311717743 12.604685048810644 0 0 0
307 0 1 -1.1104 1.4665063011038586 15.651415605709657 12.740526976852367 0 0 0
298 0 1 -1.1104 1.1976488033543538 18.27877439826729 12.33024082032893 0 0 0
292 0 1 -1.1104 1.2738369857860463 15.886367757666864 9.625215655685885 0 0 0
304 0 1 -1.1104 4.062957800425321 15.766967172019196 9.697683075711002 0 0 0
312 0 2 2.2208 -0.2586969666953699 17.15640003040314 10.98352816456252 0 0 0
315 0 1 -1.1104 9.70309882182903 15.943439187585755 12.400973864270567 0 0 0
296 0 1 -1.1104 6.758024893540565 18.422359533320567 12.369861555838497 0 0 0
118 0 1 -1.1104 6.778926395176383 15.637213912996037 6.840655944460341 0 0 0
156 0 1 -1.1104 9.668865643240808 18.3639485767669 6.663945112418175 0 0 0
149 0 1 -1.1104 12.557427326724522 15.623863844972643 6.877472474465754 0 0 0
326 0 1 -1.1104 12.580242772112207 15.626395689784893 12.401246846147737 0 0 0
321 0 1 -1.1104 9.58834167900505 18.6080642356225 12.393448913893373 0 0 0
331 0 2 2.2208 11.008278277863235 17.120710749621374 10.939566207731687 0 0 0
318 0 1 -1.1104 9.65019281206808 18.324036756736888 9.525439198866533 0 0 0
324 0 2 2.2208 11.153858208792922 19.857892381057333 8.06659218888732 0 0 0
306 0 1 -1.1104 6.966084521478677 15.581173995918643 12.347146387940217 0 0 0
288 0 1 -1.1104 6.820179734104876 18.609930130195472 9.609351101606032 0 0 0
316 0 2 2.2208 8.241101436719939 19.939515820039986 10.939562459728084 0 0 0
317 0 2 2.2208 8.405366471432332 14.318076872647989 10.986599665097684 0 0 0
320 0 2 2.2208 8.299582831995227 17.134841150147967 8.245083414175781 0 0 0
289 0 1 -1.1104 6.827092264748025 15.656723599249277 9.876414996447435 0 0 0
323 0 1 -1.1104 12.729411786556035 15.415038642392888 9.46349579883886 0 0 0
112 0 1 -1.1104 7.049812711893882 18.520650545573595 6.61206945202916 0 0 0
163 0 1 -1.1104 9.645845717245757 15.748221530934803 6.806484028390335 0 0 0
145 0 1 -1.1104 12.577780342136245 18.394165433925895 6.663722328688869 0 0 0
9029 0 2 2.2208 2.4783350749547113 -5.372045636637941 8.319496487365123 0 0 0
348 0 2 2.2208 11.225387923455326 16.96328748938859 -0.41280660460303115 0 0 0
385 0 2 2.2208 8.290813263491508 8.57503136105524 -0.4421170760794845 0 0 0
388 0 2 2.2208 5.721060952174815 0.3251096415474502 16.73282043334177 0 0 0
389 0 1 -1.1104 1.3542733470148756 -4.32135717126466 18.220899663619694 0 0 0
393 0 1 -1.1104 1.34529046610946 -3.993374811332514 15.118830456923673 0 0 0
401 0 1 -1.1104 1.3061539402712579 -1.5378541114056927 18.10209639137106 0 0 0
403 0 2 2.2208 5.4245360959188 -2.7579122641987386 19.418080390492737 0 0 0
405 0 1 -1.1104 1.490199247293153 -1.3149786635138572 15.353301862269069 0 0 0
409 0 1 -1.1104 4.236596989161123 -4.162347360480555 18.009532509820943 0 0 0
411 0 2 2.2208 2.8260018750665896 0.028657844047856852 19.4982981276399 0 0 0
412 0 1 -1.1104 4.111372011091155 -4.05356363860165 15.230820463401963 0 0 0
416 0 2 2.2208 2.808386063547208 -2.7557364438821446 16.733156967401573 0 0 0
418 0 1 -1.1104 4.113532336968334 -1.4419710000847723 18.12473062124716 0 0 0
419 0 1 -1.1104 4.168460487505246 -1.0497577536205227 15.386546916855366 0 0 0
343 0 2 2.2208 8.241104080948174 0.2306579243701689 13.692015220969916 0 0 0
338 0 2 2.2208 5.518852273414099 -2.6856453489035887 13.842034183761035 0 0 0
424 0 2 2.2208 0.04163615031026092 0.21844425373473483 16.69253667890426 0 0 0
425 0 2 2.2208 -0.1797735907001435 -2.6240837734821993 19.641699175542232 0 0 0
714 0 1 -1.1104 6.681390953710287 15.726828421981493 26.445546068436524 0 0 0
339 0 2 2.2208 2.8666878879107887 0.2962487381216112 14.162171121783693 0 0 0
587 0 2 2.2208 8.263823453228536 17.161456498215507 25.09163948886329 0 0 0
334 0 2 2.2208 -0.026074165410249137 -2.5157567727991004 13.804984065996702 0 0 0
407 0 1 -1.1104 6.872780266278835 -1.1888416227039287 15.153429206948108 0 0 0
397 0 1 -1.1104 6.9813937206266585 -4.052318608215887 15.13254613877227 0 0 0
391 0 1 -1.1104 6.994699284588282 -3.8417214943629845 17.918272134713426 0 0 0
402 0 1 -1.1104 7.180584890384742 -1.1629214798143346 18.053358384251425 0 0 0
431 0 2 2.2208 11.038789581670056 0.13231786374372517 16.740921209827214 0 0 0
432 0 1 -1.1104 12.468410007367519 -3.8973083729257145 18.04328582840934 0 0 0
434 0 1 -1.1104 12.308995827962596 -3.99346651624214 15.17289512323686 0 0 0
438 0 1 -1.1104 12.67862378437795 -1.0567067691877206 17.907255290137307 0 0 0
439 0 2 2.2208 11.212064101751961 -2.462058068228206 19.463542350495462 0 0 0
441 0 1 -1.1104 12.358779140583923 -1.2589359326071152 15.25069285307867 0 0 0
443 0 1 -1.1104 9.725436752317046 -3.9594930046271792 18.116246138011523 0 0 0
445 0 2 2.2208 8.37808865034719 0.15095447150045357 19.528001134312664 0 0 0
446 0 1 -1.1104 9.838224154753206 -4.231630199071654 15.490404917507819 0 0 0
450 0 2 2.2208 8.338696881826541 -2.5680956170795155 16.51901067830167 0 0 0
452 0 1 -1.1104 10.003232080625232 -1.4044697982645578 18.001446206777995 0 0 0
453 0 1 -1.1104 9.586176863715789 -1.2126171063758553 15.115413634010638 0 0 0
9158 0 2 2.2208 11.138297519768363 -5.371072530570623 16.809282019581723 0 0 0
346 0 2 2.2208 10.966893818721015 -2.5591965399489207 13.864084091225369 0 0 0
395 0 1 -1.1104 1.3976319747114532 1.6842467554634957 15.220165546092549 0 0 0
390 0 1 -1.1104 1.2603124501861478 1.4656592920272071 18.07038322045716 0 0 0
404 0 2 2.2208 5.579618183865163 2.9724123219707086 19.794841958627405 0 0 0
410 0 1 -1.1104 4.145187985439875 1.4076677560443331 18.294540213835024 0 0 0
414 0 1 -1.1104 4.284113070797996 1.6934273159316655 15.522880873460647 0 0 0
417 0 2 2.2208 2.736564618137217 3.0818377735153986 16.661364809665454 0 0 0
464 0 2 2.2208 5.449878411115967 5.734321810019826 16.632919712378715 0 0 0
472 0 1 -1.1104 1.0235360244240388 4.156679444501818 18.04301665103154 0 0 0