LAMMPS (29 Oct 2020)
OMP_NUM_THREADS environment is not set. Defaulting to 1 thread. (../comm.cpp:94)
  using 1 OpenMP thread(s) per MPI task
OMP_NUM_THREADS environment is not set. Defaulting to 1 thread. (../comm.cpp:94)
  using 1 OpenMP thread(s) per MPI task
Reading data file ...
  orthogonal box = (-0.39815685 -4.7956951 -0.39118289) to (27.738157 332.87570 27.731183)
  2 by 13 by 2 MPI processor grid
  reading atoms ...
  17700 atoms
  reading velocities ...
  17700 velocities
Finding 1-2 1-3 1-4 neighbors ...
  special bond factors lj:    0.0      0.0      0.0     
  special bond factors coul:  0.0      0.0      0.0     
     0 = max # of 1-2 neighbors
     0 = max # of 1-3 neighbors
     0 = max # of 1-4 neighbors
     1 = max # of special neighbors
  special bonds CPU = 0.005 seconds
  read_data CPU = 0.067 seconds
WARNING: 13 of 1000 force values in table Xe-Xe are inconsistent with -dE/dr.
  Should only be flagged at inflection points (../pair_table.cpp:461)
WARNING: 2 of 1000 force values in table Xe-O are inconsistent with -dE/dr.
  Should only be flagged at inflection points (../pair_table.cpp:461)
WARNING: 2 of 1000 force values in table Xe-Th are inconsistent with -dE/dr.
  Should only be flagged at inflection points (../pair_table.cpp:461)
Setting atom values ...
  11760 settings made for charge
Setting atom values ...
  5880 settings made for charge
Setting atom values ...
  60 settings made for charge
PPPM initialization ...
  using 12-bit tables for long-range coulomb (../kspace.cpp:328)
  G vector (1/distance) = 0.29866399
  grid = 40 240 40
  stencil order = 5
  estimated absolute RMS force accuracy = 0.00015714941
  estimated relative force accuracy = 1.0913423e-05
  using single precision MKL FFT
  3d grid and FFT values/proc = 18225 7600
Neighbor list info ...
  update every 1 steps, delay 0 steps, check yes
  max neighbors/atom: 2000, page size: 100000
  master list distance cutoff = 13
  ghost atom cutoff = 13
  binsize = 6.5, bins = 5 52 5
  3 neighbor lists, perpetual/occasional/extra = 3 0 0
  (1) pair coul/long, perpetual
      attributes: half, newton on
      pair build: half/bin/newton
      stencil: half/bin/3d/newton
      bin: standard
  (2) pair eam/alloy, perpetual, skip from (1)
      attributes: half, newton on
      pair build: skip
      stencil: none
      bin: none
  (3) pair table, perpetual, skip from (1)
      attributes: half, newton on
      pair build: skip
      stencil: none
      bin: none
Setting up Verlet run ...
  Unit style    : metal
  Current step  : 0
  Time step     : 0.001
Per MPI rank memory allocation (min/avg/max) = 9.247 | 9.945 | 10.04 Mbytes
Step Temp E_pair E_mol TotEng Press 
       0          900   -229754.73            0   -227695.73    1244.6066 
  100000     903.9381   -229779.71            0   -227711.71    780.35412 
Loop time of 736.486 on 52 procs for 100000 steps with 17700 atoms

Performance: 11.731 ns/day, 2.046 hours/ns, 135.780 timesteps/s
99.8% CPU use with 52 MPI tasks x 1 OpenMP threads

MPI task timing breakdown:
Section |  min time  |  avg time  |  max time  |%varavg| %total
---------------------------------------------------------------
Pair    | 514.06     | 532.34     | 554.6      |  43.0 | 72.28
Bond    | 0.0094578  | 0.013951   | 0.023157   |   2.2 |  0.00
Kspace  | 151.6      | 172.63     | 188.74     |  69.3 | 23.44
Neigh   | 3.6118     | 3.9301     | 4.2252     |   7.0 |  0.53
Comm    | 20.582     | 22.27      | 24.891     |  23.8 |  3.02
Output  | 5.3509e-05 | 5.866e-05  | 0.00026319 |   0.0 |  0.00
Modify  | 2.3701     | 3.4609     | 6.5143     |  82.5 |  0.47
Other   |            | 1.841      |            |       |  0.25

Nlocal:        340.385 ave         366 max         318 min
Histogram: 1 3 6 10 13 10 2 2 3 2
Nghost:        5516.71 ave        5696 max        5333 min
Histogram: 16 4 0 1 3 4 0 6 6 12
Neighs:       106350.0 ave      116329 max       93322 min
Histogram: 3 0 5 2 7 8 18 2 3 4

Total # of neighbors = 5530177
Ave neighs/atom = 312.43938
Ave special neighs/atom = 0.0000000
Neighbor list builds = 1264
Dangerous builds = 0
11760 atoms in group oxygen
PPPM initialization ...
  using 12-bit tables for long-range coulomb (../kspace.cpp:328)
  G vector (1/distance) = 0.29866399
  grid = 40 240 40
  stencil order = 5
  estimated absolute RMS force accuracy = 0.00015714941
  estimated relative force accuracy = 1.0913423e-05
  using single precision MKL FFT
  3d grid and FFT values/proc = 18225 7600
Neighbor list info ...
  update every 1 steps, delay 0 steps, check yes
  max neighbors/atom: 2000, page size: 100000
  master list distance cutoff = 13
  ghost atom cutoff = 13
  binsize = 6.5, bins = 5 52 5
  3 neighbor lists, perpetual/occasional/extra = 3 0 0
  (1) pair coul/long, perpetual
      attributes: half, newton on
      pair build: half/bin/newton
      stencil: half/bin/3d/newton
      bin: standard
  (2) pair eam/alloy, perpetual, skip from (1)
      attributes: half, newton on
      pair build: skip
      stencil: none
      bin: none
  (3) pair table, perpetual, skip from (1)
      attributes: half, newton on
      pair build: skip
      stencil: none
      bin: none
Setting up Verlet run ...
  Unit style    : metal
  Current step  : 0
  Time step     : 0.001
Per MPI rank memory allocation (min/avg/max) = 9.498 | 10.19 | 10.29 Mbytes
Step f_2 Temp v_Tdiff v_deltaT 
       0            0     903.9381            0            0 
  100000    1006.5905    892.13804   0.03180298    369.22965 
  200000    1969.5126    902.65655  0.037877849     439.7583 
  300000    2935.2266    910.81049  0.037002492     429.5955 
  400000    3898.6763    901.11193  0.037553793    435.99605 
  500000    4861.5657    898.13028  0.037212765    432.03675 
  600000    5833.0191    904.89784  0.036835413    427.65573 
  700000    6797.2349    907.46499  0.036830171    427.59487 
  800000    7752.8776    903.86087  0.036565381    424.52068 
  900000    8712.9332    904.76388  0.037562803    436.10065 
 1000000    9678.9321    906.16706   0.03773938    438.15069 
Loop time of 7351.16 on 52 procs for 1000000 steps with 17700 atoms

Performance: 11.753 ns/day, 2.042 hours/ns, 136.033 timesteps/s
99.8% CPU use with 52 MPI tasks x 1 OpenMP threads

MPI task timing breakdown:
Section |  min time  |  avg time  |  max time  |%varavg| %total
---------------------------------------------------------------
Pair    | 5109.9     | 5321.7     | 5546.3     | 141.0 | 72.39
Bond    | 0.09465    | 0.14089    | 0.21107    |   6.7 |  0.00
Kspace  | 1514.1     | 1725.6     | 1935.7     | 223.7 | 23.47
Neigh   | 37.285     | 41.359     | 44.456     |  26.9 |  0.56
Comm    | 201.69     | 221.89     | 251.48     |  80.5 |  3.02
Output  | 0.0012503  | 0.0013021  | 0.0023612  |   0.4 |  0.00
Modify  | 7.1892     | 7.7585     | 8.4682     |  11.6 |  0.11
Other   |            | 32.67      |            |       |  0.44

Nlocal:        340.385 ave         369 max         314 min
Histogram: 2 3 5 7 9 11 7 3 4 1
Nghost:        5512.62 ave        5701 max        5314 min
Histogram: 15 5 0 0 5 7 0 0 0 20
Neighs:       106333.0 ave      117076 max       89176 min
Histogram: 1 1 4 2 4 6 13 15 3 3

Total # of neighbors = 5529309
Ave neighs/atom = 312.39034
Ave special neighs/atom = 0.0000000
Neighbor list builds = 13373
Dangerous builds = 0
Total wall time: 2:14:48
