LAMMPS (29 Oct 2020)
OMP_NUM_THREADS environment is not set. Defaulting to 1 thread. (../comm.cpp:94)
  using 1 OpenMP thread(s) per MPI task
OMP_NUM_THREADS environment is not set. Defaulting to 1 thread. (../comm.cpp:94)
  using 1 OpenMP thread(s) per MPI task
Reading data file ...
  orthogonal box = (-0.45168928 -5.4139268 -0.4513487) to (27.791689 333.49393 27.791349)
  2 by 13 by 2 MPI processor grid
  reading atoms ...
  17760 atoms
  reading velocities ...
  17760 velocities
Finding 1-2 1-3 1-4 neighbors ...
  special bond factors lj:    0.0      0.0      0.0     
  special bond factors coul:  0.0      0.0      0.0     
     0 = max # of 1-2 neighbors
     0 = max # of 1-3 neighbors
     0 = max # of 1-4 neighbors
     1 = max # of special neighbors
  special bonds CPU = 0.004 seconds
  read_data CPU = 0.075 seconds
WARNING: 13 of 1000 force values in table Xe-Xe are inconsistent with -dE/dr.
  Should only be flagged at inflection points (../pair_table.cpp:461)
WARNING: 2 of 1000 force values in table Xe-O are inconsistent with -dE/dr.
  Should only be flagged at inflection points (../pair_table.cpp:461)
WARNING: 2 of 1000 force values in table Xe-Th are inconsistent with -dE/dr.
  Should only be flagged at inflection points (../pair_table.cpp:461)
Setting atom values ...
  11760 settings made for charge
Setting atom values ...
  5880 settings made for charge
Setting atom values ...
  120 settings made for charge
PPPM initialization ...
  using 12-bit tables for long-range coulomb (../kspace.cpp:328)
  G vector (1/distance) = 0.2984451
  grid = 40 240 40
  stencil order = 5
  estimated absolute RMS force accuracy = 0.0001586295
  estimated relative force accuracy = 1.1016209e-05
  using single precision MKL FFT
  3d grid and FFT values/proc = 18225 7600
Neighbor list info ...
  update every 1 steps, delay 0 steps, check yes
  max neighbors/atom: 2000, page size: 100000
  master list distance cutoff = 13
  ghost atom cutoff = 13
  binsize = 6.5, bins = 5 53 5
  3 neighbor lists, perpetual/occasional/extra = 3 0 0
  (1) pair coul/long, perpetual
      attributes: half, newton on
      pair build: half/bin/newton
      stencil: half/bin/3d/newton
      bin: standard
  (2) pair eam/alloy, perpetual, skip from (1)
      attributes: half, newton on
      pair build: skip
      stencil: none
      bin: none
  (3) pair table, perpetual, skip from (1)
      attributes: half, newton on
      pair build: skip
      stencil: none
      bin: none
Setting up Verlet run ...
  Unit style    : metal
  Current step  : 0
  Time step     : 0.001
Per MPI rank memory allocation (min/avg/max) = 9.247 | 9.907 | 10.04 Mbytes
Step Temp E_pair E_mol TotEng Press 
       0         1200   -228936.34            0    -226181.7    1357.3739 
   50000    1219.2749   -228921.94            0   -226123.06    2059.5034 
Loop time of 352.802 on 52 procs for 50000 steps with 17760 atoms

Performance: 12.245 ns/day, 1.960 hours/ns, 141.723 timesteps/s
99.8% CPU use with 52 MPI tasks x 1 OpenMP threads

MPI task timing breakdown:
Section |  min time  |  avg time  |  max time  |%varavg| %total
---------------------------------------------------------------
Pair    | 254.68     | 262.68     | 273.43     |  27.6 | 74.46
Bond    | 0.0042626  | 0.0069083  | 0.010159   |   1.5 |  0.00
Kspace  | 65.945     | 76.433     | 83.916     |  50.3 | 21.66
Neigh   | 3.277      | 3.556      | 3.8365     |   6.5 |  1.01
Comm    | 7.112      | 7.6355     | 8.7829     |  14.3 |  2.16
Output  | 5.5565e-05 | 6.0075e-05 | 0.00025791 |   0.0 |  0.00
Modify  | 0.98228    | 1.798      | 2.6347     |  44.0 |  0.51
Other   |            | 0.6874     |            |       |  0.19

Nlocal:        341.538 ave         366 max         322 min
Histogram: 4 2 7 7 12 9 7 1 1 2
Nghost:        5494.92 ave        5675 max        5292 min
Histogram: 9 10 1 0 0 7 1 7 5 12
Neighs:       105275.0 ave      114740 max       91243 min
Histogram: 2 1 1 5 3 9 14 12 2 3

Total # of neighbors = 5474322
Ave neighs/atom = 308.23885
Ave special neighs/atom = 0.0000000
Neighbor list builds = 1186
Dangerous builds = 0
11760 atoms in group oxygen
PPPM initialization ...
  using 12-bit tables for long-range coulomb (../kspace.cpp:328)
  G vector (1/distance) = 0.2984451
  grid = 40 240 40
  stencil order = 5
  estimated absolute RMS force accuracy = 0.0001586295
  estimated relative force accuracy = 1.1016209e-05
  using single precision MKL FFT
  3d grid and FFT values/proc = 18225 7600
Neighbor list info ...
  update every 1 steps, delay 0 steps, check yes
  max neighbors/atom: 2000, page size: 100000
  master list distance cutoff = 13
  ghost atom cutoff = 13
  binsize = 6.5, bins = 5 53 5
  3 neighbor lists, perpetual/occasional/extra = 3 0 0
  (1) pair coul/long, perpetual
      attributes: half, newton on
      pair build: half/bin/newton
      stencil: half/bin/3d/newton
      bin: standard
  (2) pair eam/alloy, perpetual, skip from (1)
      attributes: half, newton on
      pair build: skip
      stencil: none
      bin: none
  (3) pair table, perpetual, skip from (1)
      attributes: half, newton on
      pair build: skip
      stencil: none
      bin: none
Setting up Verlet run ...
  Unit style    : metal
  Current step  : 0
  Time step     : 0.001
Per MPI rank memory allocation (min/avg/max) = 9.497 | 10.16 | 10.29 Mbytes
Step f_2 Temp v_Tdiff v_deltaT 
       0            0    1219.2749            0            0 
  100000    1300.4612    1206.2734  0.048924182    568.00521 
  200000    2533.3068     1214.673  0.057120588    663.16472 
  300000    3762.8729    1214.1633  0.060324931    700.36685 
  400000    4995.1727    1211.3367  0.058247578    676.24898 
  500000    6238.3147    1216.4577  0.058634875    680.74545 
  600000    7468.8216    1204.6757  0.058765071    682.25702 
  700000    8703.7545    1222.9609  0.059527519    691.10897 
  800000    9932.5568    1213.6025  0.059079568     685.9083 
  900000    11167.138    1212.1589  0.058602517    680.36978 
 1000000    12404.829    1214.8414  0.059006792    685.06338 
Loop time of 6996.56 on 52 procs for 1000000 steps with 17760 atoms

Performance: 12.349 ns/day, 1.943 hours/ns, 142.927 timesteps/s
99.9% CPU use with 52 MPI tasks x 1 OpenMP threads

MPI task timing breakdown:
Section |  min time  |  avg time  |  max time  |%varavg| %total
---------------------------------------------------------------
Pair    | 5021       | 5205.9     | 5396.4     | 116.2 | 74.41
Bond    | 0.087866   | 0.13151    | 0.18402    |   5.9 |  0.00
Kspace  | 1332.2     | 1516.3     | 1693.6     | 208.1 | 21.67
Neigh   | 74.487     | 82.087     | 87.34      |  39.3 |  1.17
Comm    | 140.67     | 152.77     | 179.7      |  76.1 |  2.18
Output  | 0.001051   | 0.0010971  | 0.0021723  |   0.5 |  0.00
Modify  | 5.5711     | 6.0829     | 6.6593     |  12.4 |  0.09
Other   |            | 33.21      |            |       |  0.47

Nlocal:        341.538 ave         362 max         316 min
Histogram: 4 2 6 3 2 10 11 2 6 6
Nghost:        5487.69 ave        5697 max        5207 min
Histogram: 4 0 10 6 1 10 1 0 6 14
Neighs:       105233.0 ave      112947 max       90580 min
Histogram: 2 3 3 0 3 4 5 19 6 7

Total # of neighbors = 5472118
Ave neighs/atom = 308.11475
Ave special neighs/atom = 0.0000000
Neighbor list builds = 27461
Dangerous builds = 0
Total wall time: 2:02:29
