ITEM: TIMESTEP
40000
ITEM: NUMBER OF ATOMS
17760
ITEM: BOX BOUNDS pp pp pp
-3.6994644939916949e-01 2.7709946449399052e+01
-4.5874443437991754e+00 3.3266744434380769e+02
-3.6907392463191174e-01 2.7709073924631987e+01
ITEM: ATOMS id type q x y z
1 2 2.2208 5.24224 0.947184 5.23498
2 1 -1.1104 1.17421 -3.21374 1.06643
3 1 -1.1104 1.2054 2.27288 0.905278
6 1 -1.1104 0.98564 -3.13411 3.76082
7 1 -1.1104 1.15222 2.424 3.75054
10 1 -1.1104 1.03966 -0.435755 0.969307
12 2 2.2208 5.34365 -1.78099 2.48049
13 2 2.2208 5.35703 3.66282 2.35087
14 1 -1.1104 1.02835 -0.33376 3.84391
16 1 -1.1104 3.98377 -3.21934 1.19265
17 1 -1.1104 3.90008 2.37978 0.848496
18 2 2.2208 2.45965 0.874835 2.37509
19 1 -1.1104 3.8958 -3.04572 3.9551
20 1 -1.1104 3.95005 2.40262 3.72284
21 2 2.2208 2.48969 -1.72141 5.1645
22 2 2.2208 2.45649 3.78972 5.16246
23 1 -1.1104 4.02154 -0.453408 0.895004
24 1 -1.1104 3.92656 -0.386131 3.89954
167 1 -1.1104 1.08036 2.51225 6.69762
4 1 -1.1104 6.69461 -3.26083 1.07272
15 1 -1.1104 6.59673 -0.374034 3.86822
172 1 -1.1104 3.75008 -3.35884 6.60668
171 1 -1.1104 6.47931 -0.502203 6.59878
174 1 -1.1104 3.64523 -0.233668 6.5576
170 1 -1.1104 0.960272 -0.376686 6.67261
8492 2 2.2208 5.19924 -4.57831 5.27191
9 1 -1.1104 6.69594 2.23617 3.83695
11 1 -1.1104 6.74339 -0.362927 1.17826
5 1 -1.1104 6.79725 2.52807 0.958369
8 1 -1.1104 6.74037 -3.22989 3.98131
168 1 -1.1104 6.56939 -3.25174 6.69673
31 2 2.2208 10.8577 0.978309 5.28253
32 1 -1.1104 12.5093 -3.34522 0.984263
33 1 -1.1104 12.3269 2.33884 1.1743
34 1 -1.1104 12.342 -3.26868 3.79406
35 1 -1.1104 12.2654 2.32565 4.02051
36 1 -1.1104 12.3782 -0.437021 1.10513
37 2 2.2208 10.9792 -1.89139 2.35867
38 2 2.2208 10.8231 3.87899 2.39894
39 1 -1.1104 12.4456 -0.489002 3.8163
40 1 -1.1104 9.755 -3.12988 1.0039
41 1 -1.1104 9.67951 2.38213 0.840638
42 2 2.2208 8.11214 0.939276 2.47018
43 1 -1.1104 9.60907 -3.10796 3.87125
44 1 -1.1104 9.34902 2.36721 3.64284
45 2 2.2208 8.21239 -1.67717 5.25374
46 2 2.2208 8.12544 3.7848 5.35122
47 1 -1.1104 9.47862 -0.407648 0.963522
48 1 -1.1104 9.54104 -0.32355 3.77797
206 1 -1.1104 12.2503 2.28372 6.83342
208 1 -1.1104 9.39643 -3.11093 6.67761
209 1 -1.1104 9.53013 2.30836 6.51031
9174 2 2.2208 -0.360939 20.6508 8.16805
8909 2 2.2208 -0.256251 15.0027 8.10563
205 1 -1.1104 12.3287 -3.39292 6.67054
9096 2 2.2208 -0.304737 17.8565 10.946
54 2 2.2208 5.19577 6.58933 5.07553
55 2 2.2208 5.34702 12.2714 5.17544
56 1 -1.1104 0.969058 7.92923 0.986234
58 1 -1.1104 0.99571 8.1179 3.76728
60 1 -1.1104 1.00054 5.03868 0.865475
61 1 -1.1104 1.07247 10.9594 0.851523
66 2 2.2208 5.30284 9.55596 2.35824
67 1 -1.1104 1.00318 5.18651 3.65064
68 1 -1.1104 1.13827 10.8776 3.71429
71 1 -1.1104 3.78864 8.02117 1.03464
72 2 2.2208 2.46211 6.69129 2.37092
73 2 2.2208 2.41194 12.4097 2.29702
74 1 -1.1104 4.07634 7.9617 3.66108
75 2 2.2208 2.52243 9.50194 5.2143
76 1 -1.1104 4.00347 5.18469 0.984181
77 1 -1.1104 3.80661 10.8736 0.90707
79 1 -1.1104 3.82763 5.03628 3.79393
80 1 -1.1104 3.85023 10.8443 3.73862
70 1 -1.1104 6.78483 10.9608 3.61005
59 1 -1.1104 6.70263 8.09638 3.80367
63 1 -1.1104 6.87167 5.22361 1.03833
78 1 -1.1104 3.99737 10.8647 6.58579
57 1 -1.1104 6.68961 8.18384 1.07641
64 1 -1.1104 6.68635 10.8598 0.843145
235 1 -1.1104 6.70621 7.95454 6.6196
29 2 2.2208 13.5496 20.5661 -0.364809
9190 2 2.2208 -0.320345 9.46198 7.97607
69 1 -1.1104 6.71241 5.13423 3.93598
65 1 -1.1104 6.66661 10.7527 6.45934
84 2 2.2208 10.9459 6.53142 5.25357
85 2 2.2208 10.9606 12.2249 5.25898
86 1 -1.1104 12.2717 8.13762 1.1826
87 1 -1.1104 12.2677 7.81456 3.84391
88 1 -1.1104 12.3504 5.20528 0.949824
89 1 -1.1104 12.2212 10.9129 0.926802
91 2 2.2208 10.8648 9.35666 2.46061
92 1 -1.1104 12.2826 5.1167 3.65534
93 1 -1.1104 12.3915 10.8655 3.83762
94 1 -1.1104 9.51932 8.01562 1.12616
95 2 2.2208 8.15191 6.55705 2.42453
96 2 2.2208 8.12529 12.3104 2.31758
97 1 -1.1104 9.52992 8.12753 3.89811
98 2 2.2208 8.07552 9.47086 5.21456
99 1 -1.1104 9.59377 5.27071 0.924032
100 1 -1.1104 9.3706 10.7939 0.976131
102 1 -1.1104 9.51656 5.33968 3.87381
103 1 -1.1104 9.66901 10.7992 3.80205
265 1 -1.1104 12.4139 8.04575 6.69323
8490 2 2.2208 10.9444 -4.5643 5.21503
90 1 -1.1104 12.3597 10.8014 6.6501
8491 2 2.2208 8.07413 -4.52484 2.33935
266 1 -1.1104 12.2528 5.16415 6.55651
9176 2 2.2208 -0.28697 3.76785 8.02616
269 1 -1.1104 9.63113 5.20372 6.75893
17375 2 2.2208 -0.377204 -4.56643 10.7551
9224 2 2.2208 -0.155286 15.0722 13.6395
312 1 -1.1104 9.5039 16.3071 9.46462
106 2 2.2208 5.14227 17.904 5.21411
107 1 -1.1104 0.971648 13.686 0.931313
109 1 -1.1104 1.022 19.3447 1.13563
113 1 -1.1104 1.17099 13.6812 3.70872
114 1 -1.1104 0.921133 19.3282 3.89662
116 1 -1.1104 1.21039 16.4309 0.937905
119 2 2.2208 5.36561 15.0622 2.38375
120 2 2.2208 5.16959 20.6141 2.42578
121 1 -1.1104 1.15103 16.4021 3.91007
123 1 -1.1104 3.90079 13.7317 1.0343
125 1 -1.1104 3.805 19.4161 1.0602
127 2 2.2208 2.495 17.9331 2.39715
128 1 -1.1104 3.97471 13.5831 3.76462
129 1 -1.1104 3.74678 19.296 4.04628
130 2 2.2208 2.53123 15.0196 5.16117
131 2 2.2208 2.28034 20.718 5.26007
132 1 -1.1104 3.9227 16.6557 1.07254
134 1 -1.1104 3.86033 16.4333 3.69589
122 1 -1.1104 6.69895 16.528 3.87358
115 1 -1.1104 6.74826 13.7154 3.931
118 1 -1.1104 6.63696 16.4517 6.54741
108 1 -1.1104 1.25703 13.65 6.60448
138 1 -1.1104 6.65677 19.0339 0.894441
139 1 -1.1104 6.60984 19.1724 3.75122
140 1 -1.1104 6.79335 16.3056 0.929344
302 1 -1.1104 1.06845 19.2795 6.83689
112 1 -1.1104 6.54363 19.2513 6.63983
133 1 -1.1104 3.91157 16.3605 6.40743
83 2 2.2208 10.8742 15.0548 8.1809
126 1 -1.1104 3.833 19.2377 6.71135
124 1 -1.1104 3.87895 13.6934 6.43251
110 1 -1.1104 6.737 13.4751 0.930568
135 2 2.2208 13.6394 6.72693 8.0188
149 1 -1.1104 12.3155 16.4336 6.53691
30 1 -1.1104 12.1401 13.7679 12.377
154 1 -1.1104 9.46125 13.6605 6.85656
141 2 2.2208 10.9107 17.8344 5.16274
142 1 -1.1104 12.3305 13.6501 0.906994
144 1 -1.1104 12.1331 19.2129 0.977621
146 1 -1.1104 12.2755 13.5198 3.87006
147 1 -1.1104 12.2565 19.2204 3.73936
148 1 -1.1104 12.3609 16.5315 0.8135
150 2 2.2208 11.0143 14.9747 2.45919
151 2 2.2208 10.7356 20.6876 2.43223
152 1 -1.1104 12.2734 16.5036 3.80193
153 1 -1.1104 9.62255 13.6495 1.06148
155 1 -1.1104 9.33794 19.3245 1.06153
157 2 2.2208 8.04399 17.7804 2.30369
158 1 -1.1104 9.50189 13.5683 3.86797
159 1 -1.1104 9.46584 19.282 3.83633
160 2 2.2208 7.99994 15.0943 5.19188
161 2 2.2208 7.91649 20.461 5.26639
162 1 -1.1104 9.46239 16.4156 1.14006
164 1 -1.1104 9.47503 16.3526 3.929
163 1 -1.1104 9.49686 16.5135 6.67873
143 1 -1.1104 12.4091 13.7223 6.67797
156 1 -1.1104 9.36509 19.2243 6.62745
9075 2 2.2208 -0.262647 6.59558 10.8207
145 1 -1.1104 12.2867 19.1669 6.47013
49 1 -1.1104 12.394 19.275 12.1147
169 1 -1.1104 6.61272 2.38912 6.60371
166 1 -1.1104 0.943526 -3.20608 6.63527
173 1 -1.1104 3.73278 2.36505 6.51341
642 2 2.2208 2.50536 6.52133 13.5915
175 2 2.2208 5.21572 1.0265 10.8919
176 1 -1.1104 1.02891 -3.19845 12.2566
177 1 -1.1104 1.11716 2.45152 12.1605
180 1 -1.1104 1.07253 -3.22871 9.40506
181 1 -1.1104 1.02962 2.28588 9.55453
184 1 -1.1104 0.923583 -0.378124 12.3205
186 2 2.2208 5.25454 -1.72612 8.15681
187 2 2.2208 5.3012 3.78328 7.9409
188 1 -1.1104 1.19883 -0.497939 9.33989
190 1 -1.1104 3.86027 -3.43017 12.3503
191 1 -1.1104 4.00085 2.41556 12.323
192 2 2.2208 2.41966 0.963205 8.00451
193 1 -1.1104 3.78498 -3.36091 9.4387
194 1 -1.1104 3.98283 2.2637 9.39992
195 2 2.2208 2.37288 -1.88634 10.857
196 2 2.2208 2.48775 3.88043 10.7199
197 1 -1.1104 3.81903 -0.579647 12.1998
198 1 -1.1104 3.83815 -0.506664 9.45575
178 1 -1.1104 6.61259 -3.09693 12.1987
185 1 -1.1104 6.59854 -0.283339 12.2384
182 1 -1.1104 6.69335 -3.20125 9.4974
189 1 -1.1104 6.6101 -0.268558 9.46066
204 1 -1.1104 9.41579 19.1255 9.25629
207 1 -1.1104 12.2527 -0.557881 6.67357
210 1 -1.1104 9.33026 -0.204064 6.7271
321 2 2.2208 13.6376 17.9211 2.34395
8880 2 2.2208 -0.365662 -1.78918 8.06972
137 1 -1.1104 9.41315 13.7523 12.245
179 1 -1.1104 6.63822 2.5067 12.3529
183 1 -1.1104 6.69626 2.40789 9.47276
9369 2 2.2208 -0.236043 20.7533 13.6347
326 2 2.2208 13.6186 6.5301 2.35698
211 2 2.2208 10.8958 0.967598 10.8044
212 1 -1.1104 12.3198 -3.29736 12.126
213 1 -1.1104 12.1789 2.40316 12.2618
214 1 -1.1104 12.3745 -3.25698 9.39603
215 1 -1.1104 12.3762 2.39366 9.50924
216 1 -1.1104 12.4621 -0.530075 12.2262
217 2 2.2208 10.815 -1.77949 8.11546
218 2 2.2208 10.891 3.81898 8.11939
219 1 -1.1104 12.2031 -0.476749 9.54448
220 1 -1.1104 9.57683 -3.21769 12.3232
221 1 -1.1104 9.5077 2.36935 12.1879
222 2 2.2208 7.93038 1.04853 8.14592
223 1 -1.1104 9.38355 -3.2288 9.55803
224 1 -1.1104 9.46674 2.38438 9.4136
225 2 2.2208 8.03483 -1.80912 10.8782
226 2 2.2208 8.12679 3.77282 10.9125
227 1 -1.1104 9.45574 -0.390229 12.4617
228 1 -1.1104 9.42961 -0.381796 9.5143
165 1 -1.1104 9.67271 19.5196 12.1967
9177 2 2.2208 -0.370221 3.77049 2.36158
9181 2 2.2208 -0.315436 6.52111 5.15272
230 2 2.2208 8.04823 20.7008 10.9019
238 1 -1.1104 3.8306 7.93575 6.51219
236 1 -1.1104 1.17568 5.19247 6.47884
239 1 -1.1104 3.86816 5.15556 6.54043
234 1 -1.1104 1.02419 7.92012 6.56721
62 1 -1.1104 1.12584 10.7988 6.65131
313 2 2.2208 13.6411 0.830198 7.9734
240 2 2.2208 5.28992 6.63404 10.8847
241 2 2.2208 5.29274 12.2446 10.7949
242 1 -1.1104 1.15045 7.89856 12.2424
244 1 -1.1104 1.03767 7.96385 9.33618
246 1 -1.1104 1.07003 5.19327 12.1352
247 1 -1.1104 1.03377 10.7013 12.278
250 2 2.2208 5.27401 9.41321 7.99133
251 1 -1.1104 1.19121 5.09937 9.3014
252 1 -1.1104 0.938343 10.7084 9.52268
255 1 -1.1104 3.87995 8.10355 12.1402
256 2 2.2208 2.43646 6.59748 8.06758
257 2 2.2208 2.55193 12.1116 7.90148
258 1 -1.1104 3.84213 8.00194 9.33912
259 2 2.2208 2.49264 9.38784 10.84
260 1 -1.1104 3.88901 5.26479 12.2197
261 1 -1.1104 3.76283 10.8749 12.2269
262 1 -1.1104 3.99005 5.19914 9.44835
263 1 -1.1104 3.85929 10.8603 9.44681
248 1 -1.1104 6.52026 5.22275 12.2002
245 1 -1.1104 6.6553 8.02293 9.57878
249 1 -1.1104 6.69989 10.7361 12.2149
254 1 -1.1104 6.75158 10.7389 9.39015
330 2 2.2208 13.5391 20.6088 5.23374
9175 2 2.2208 -0.333681 1.08634 5.35494
237 1 -1.1104 6.83835 5.15957 6.74159
101 1 -1.1104 9.44822 11.0448 6.55401
9076 2 2.2208 -0.291089 9.393 2.35891
253 1 -1.1104 6.83228 5.17424 9.50693
243 1 -1.1104 6.81079 8.0725 12.4426
82 1 -1.1104 12.2406 16.5769 12.339
26 2 2.2208 13.6233 9.45124 10.7676
267 1 -1.1104 9.6668 7.98617 6.83142
264 1 -1.1104 9.47556 10.8919 9.56974
268 1 -1.1104 9.58301 5.15893 9.57624
270 1 -1.1104 9.71769 10.8991 12.2666
271 1 -1.1104 9.47732 5.25592 12.4062
272 2 2.2208 8.13839 9.37196 10.9573
273 1 -1.1104 9.60234 8.09119 9.5934
274 2 2.2208 8.0879 12.2632 8.06422
275 2 2.2208 8.06694 6.78632 8.01367
276 2 2.2208 10.8913 6.56844 10.937
277 2 2.2208 10.9443 12.2714 10.902
278 1 -1.1104 12.2927 8.02134 12.1497
279 1 -1.1104 12.424 7.96726 9.48272
280 1 -1.1104 12.2633 5.16347 12.215
281 1 -1.1104 12.3264 10.848 12.2347
282 2 2.2208 10.9287 9.54821 8.02075
283 1 -1.1104 12.3145 5.13045 9.33576
284 1 -1.1104 12.2585 10.9181 9.54768
285 1 -1.1104 9.62904 8.06488 12.3921
9173 2 2.2208 -0.340131 17.8175 5.27746
296 1 -1.1104 6.78544 19.309 12.2801
53 1 -1.1104 12.2759 19.2088 9.45108
9015 2 2.2208 -0.311923 15.1405 2.40114
117 1 -1.1104 1.12374 16.4284 6.63406
111 1 -1.1104 6.61803 13.5348 6.73395
27 2 2.2208 10.9409 17.8893 10.7999
200 2 2.2208 8.12151 17.8425 7.93323
306 1 -1.1104 6.58408 16.4139 12.2345
290 1 -1.1104 6.58686 13.6136 9.49188
288 1 -1.1104 6.65938 19.0587 9.55653
286 1 -1.1104 4.01542 19.3634 12.3321
287 1 -1.1104 3.79136 13.7551 12.1201
291 1 -1.1104 1.085 19.3541 9.58665
292 1 -1.1104 1.2332 16.4454 9.49519
293 2 2.2208 5.147 20.5253 8.19161
294 1 -1.1104 0.944331 13.6184 9.45218
295 2 2.2208 5.26911 14.9415 7.89935
298 1 -1.1104 1.09998 19.1967 12.3102
299 1 -1.1104 1.04678 13.4281 12.2009
300 2 2.2208 5.25566 17.7717 10.8353
301 1 -1.1104 3.87935 19.1154 9.48232
303 2 2.2208 2.48434 17.803 8.01287
304 1 -1.1104 3.928 16.3229 9.25108
305 1 -1.1104 3.80939 13.6165 9.33294
307 1 -1.1104 1.12399 16.3572 12.229
308 1 -1.1104 3.79566 16.3838 12.1913
309 2 2.2208 2.50684 20.5899 11.0152
310 2 2.2208 2.46597 14.9717 10.7172
297 1 -1.1104 6.57845 13.5125 12.4525
289 1 -1.1104 6.692 16.2509 9.24918
201 1 -1.1104 9.45253 13.5748 9.55007
233 1 -1.1104 9.2997 16.4946 12.3348
655 2 2.2208 10.9994 9.54382 13.6411
229 2 2.2208 7.9516 15.1212 10.8556
105 1 -1.1104 12.4371 16.6124 9.44443
104 2 2.2208 10.8356 20.537 7.86315
50 1 -1.1104 12.2322 13.8268 9.52587
646 2 2.2208 5.21801 15.0086 13.6486
9172 2 2.2208 -0.300526 12.1934 5.16507
649 2 2.2208 2.4671 12.1328 13.5135
654 2 2.2208 2.59179 17.8701 13.611
332 2 2.2208 13.6367 0.943835 13.636
9530 2 2.2208 -0.305187 1.05028 -0.384071
9416 2 2.2208 -0.32262 9.3621 13.6068
319 2 2.2208 13.6491 9.41791 -0.262742
318 2 2.2208 2.31922 20.6671 -0.252517
331 2 2.2208 10.9831 -1.89637 13.5883
644 2 2.2208 10.8453 3.72471 13.6005
327 2 2.2208 5.3477 6.59929 -0.391534
9193 2 2.2208 -0.314338 3.7787 13.6857
322 2 2.2208 7.9073 20.5174 -0.312312
337 2 2.2208 5.15937 0.935991 16.5669
338 1 -1.1104 1.10638 -3.14126 17.9125
339 1 -1.1104 1.00687 2.47444 17.8553
342 1 -1.1104 0.934171 -3.13314 15.0562
344 1 -1.1104 1.12429 2.46038 14.9295
350 1 -1.1104 1.03936 -0.342453 17.8064
352 2 2.2208 5.36312 -1.94875 19.1991
353 2 2.2208 5.25895 3.82451 19.1997
354 1 -1.1104 0.972168 -0.266379 15.134
358 1 -1.1104 3.8321 -3.26857 18.0163
359 1 -1.1104 3.79064 2.46397 17.8757
360 2 2.2208 2.41726 0.912974 19.2553
361 1 -1.1104 3.7759 -3.38696 15.1924
363 1 -1.1104 3.88688 2.37089 15.0909
365 2 2.2208 2.423 -1.80308 16.5144
366 2 2.2208 2.3784 3.72083 16.5049
367 1 -1.1104 3.79324 -0.457605 17.9068
368 1 -1.1104 3.81288 -0.57681 15.0024
341 1 -1.1104 6.64754 2.40653 17.887
356 1 -1.1104 6.70708 -0.504647 15.0994
346 1 -1.1104 6.52884 -3.31152 15.0585
351 1 -1.1104 6.64164 -0.494655 17.918
340 1 -1.1104 6.70131 -3.37589 17.8105
355 1 -1.1104 0.988129 -0.434093 20.617
369 1 -1.1104 3.83506 -0.565497 20.5612
345 1 -1.1104 1.14234 2.33292 20.553
357 1 -1.1104 6.7834 -0.664198 20.6018
362 1 -1.1104 3.65541 -3.41936 20.7983
349 1 -1.1104 6.62838 2.21029 20.762
9371 2 2.2208 -0.295448 17.8653 22.1075
660 2 2.2208 13.633 6.49677 19.1507
9227 2 2.2208 -0.390482 -1.85835 19.1759
348 1 -1.1104 6.55876 2.17277 15.0453
9305 2 2.2208 -0.305235 15.1007 24.8239
380 2 2.2208 10.8673 0.902459 16.4493
381 1 -1.1104 12.1766 -3.25444 17.7746
382 1 -1.1104 12.2504 2.27823 17.8031
383 1 -1.1104 12.37 -3.24305 14.9167
385 1 -1.1104 12.2881 2.20563 14.9138
387 1 -1.1104 12.2498 -0.527217 17.8063
388 2 2.2208 10.9581 -1.88889 19.2335
389 2 2.2208 10.965 3.74053 19.2449
390 1 -1.1104 12.4144 -0.466385 14.8807
392 1 -1.1104 9.37658 -3.34994 17.8671
393 1 -1.1104 9.44275 2.39336 17.832
394 2 2.2208 8.08069 0.913907 19.148
395 1 -1.1104 9.46633 -3.52369 15.1453
397 1 -1.1104 9.38689 2.14045 15.1344
399 2 2.2208 8.07775 -1.91773 16.4103
400 2 2.2208 8.13448 3.78994 16.4786
401 1 -1.1104 9.37786 -0.465248 17.9309
402 1 -1.1104 9.47177 -0.652149 15.0427
396 1 -1.1104 9.55108 -3.46114 20.606
391 1 -1.1104 12.4833 -0.423154 20.7722
386 1 -1.1104 12.3228 2.38429 20.5463
398 1 -1.1104 9.44536 2.09912 20.5121
403 1 -1.1104 9.61521 -0.590682 20.7336
9343 2 2.2208 -0.286522 6.64858 22.1286
632 2 2.2208 7.94276 17.7813 24.9221
413 2 2.2208 5.35928 6.52495 16.4841
414 2 2.2208 5.18845 12.2136 16.4427
415 1 -1.1104 1.13126 7.98463 17.815
417 1 -1.1104 1.04041 7.96591 14.9056
421 1 -1.1104 0.922334 5.12472 17.7411
422 1 -1.1104 0.844316 10.8029 17.9023
425 2 2.2208 5.32151 9.3915 19.2572
426 1 -1.1104 0.950177 5.21 14.8791
428 1 -1.1104 1.00733 10.812 15.0076
434 1 -1.1104 3.94365 8.06311 17.7157
435 2 2.2208 2.38753 6.64486 19.1238
436 2 2.2208 2.27656 12.203 19.2419
437 1 -1.1104 4.01986 7.88976 14.8745
439 2 2.2208 2.4019 9.46098 16.4152
440 1 -1.1104 3.68477 5.1948 17.878
441 1 -1.1104 3.83551 10.902 17.9073
442 1 -1.1104 3.93704 5.08345 15.1971
444 1 -1.1104 3.8519 10.7348 14.9239
430 1 -1.1104 6.61614 5.23768 15.038
443 1 -1.1104 4.02463 5.33659 20.7158
418 1 -1.1104 0.944833 7.9956 20.7902
424 1 -1.1104 6.69096 10.8421 17.7146
419 1 -1.1104 6.74147 7.99559 15.141
427 1 -1.1104 1.05319 5.39033 20.5624
431 1 -1.1104 6.73114 5.15135 20.6069
416 1 -1.1104 6.6895 8.08552 17.9328
600 2 2.2208 13.6084 15.0706 16.3815
423 1 -1.1104 6.72251 5.19988 17.8422
432 1 -1.1104 6.64107 10.9598 14.8805
433 1 -1.1104 6.81529 10.7594 20.5923
667 2 2.2208 13.6352 12.2495 24.8581
449 2 2.2208 10.9832 6.56801 16.3711
450 2 2.2208 11.0136 12.1798 16.5472
451 1 -1.1104 12.4356 7.9598 17.7568
452 1 -1.1104 12.2669 7.94786 14.9867
454 1 -1.1104 12.341 5.04193 17.7742
455 1 -1.1104 12.1685 10.7799 17.8791
456 2 2.2208 11.0228 9.3007 19.2057
457 1 -1.1104 12.4251 5.16784 15.1036
459 1 -1.1104 12.2031 10.7962 15.1457
461 1 -1.1104 9.54012 7.93053 17.8247
462 2 2.2208 8.06939 6.66464 19.2712
463 2 2.2208 8.05868 12.1672 19.2727
464 1 -1.1104 9.61305 7.89876 15.0576
466 2 2.2208 8.14358 9.46802 16.5344
467 1 -1.1104 9.53388 5.30558 17.8364
468 1 -1.1104 9.48857 10.6697 17.8923
469 1 -1.1104 9.59995 5 15.0655
471 1 -1.1104 9.4905 10.5939 15.1366
317 2 2.2208 8.16421 14.9139 27.5755
465 1 -1.1104 9.54267 7.81759 20.6217
453 1 -1.1104 12.3968 8.0088 20.6446
470 1 -1.1104 9.62389 4.99636 20.6313
472 1 -1.1104 9.52196 10.6559 20.5767
458 1 -1.1104 12.3511 5.10433 20.5465
573 1 -1.1104 12.3026 16.4644 23.4431
476 2 2.2208 5.23593 17.873 16.4739
477 1 -1.1104 1.06209 13.6431 17.8321
478 1 -1.1104 0.956426 19.2278 17.9012
481 1 -1.1104 1.16226 13.7286 14.9905
483 1 -1.1104 1.09772 19.309 15.0312
489 1 -1.1104 1.04614 16.4651 17.8519
491 2 2.2208 5.10974 14.972 19.2068
492 2 2.2208 5.26663 20.6945 19.3046
493 1 -1.1104 1.15864 16.4719 15.0765
497 1 -1.1104 3.79096 13.6847 17.794
498 1 -1.1104 3.89872 19.1279 18.0062
499 2 2.2208 2.32141 17.8585 19.2106
500 1 -1.1104 3.92974 13.5297 14.881
502 1 -1.1104 3.87541 19.1952 15.0606
504 2 2.2208 2.41599 14.9496 16.3786
505 2 2.2208 2.47586 20.6279 16.4547
506 1 -1.1104 3.83886 16.5223 17.9253
507 1 -1.1104 3.88098 16.3836 14.9925
480 1 -1.1104 6.72953 19.1323 17.8538
495 1 -1.1104 6.60401 16.3936 15.1255
508 1 -1.1104 3.91402 16.3156 20.7585
488 1 -1.1104 6.54899 19.2345 20.6519
503 1 -1.1104 3.69274 19.0773 20.667
501 1 -1.1104 3.83351 13.5106 20.6158
494 1 -1.1104 1.2062 16.3873 20.5777
496 1 -1.1104 6.73608 16.4274 20.8653
479 1 -1.1104 6.5874 13.6461 17.8919
379 1 -1.1104 9.33284 16.5104 26.1879
484 1 -1.1104 0.978578 19.3707 20.7454
376 2 2.2208 13.5973 17.832 19.267
487 1 -1.1104 6.66655 19.2266 15.0282
490 1 -1.1104 6.67313 16.4314 17.983
485 1 -1.1104 6.64893 13.6751 15.085
528 1 -1.1104 9.28824 13.55 20.693
335 2 2.2208 2.37645 1.01072 13.6769
406 2 2.2208 13.6103 20.7072 22.1312
512 2 2.2208 10.7897 17.8303 16.4624
513 1 -1.1104 12.4226 13.6909 17.9261
514 1 -1.1104 12.248 19.3051 17.947
515 1 -1.1104 12.3214 13.6538 15.0826
517 1 -1.1104 12.4353 19.2469 15.0891
519 1 -1.1104 12.2465 16.4365 17.8093
520 2 2.2208 11.0486 15.0367 19.3144
521 2 2.2208 10.8959 20.6642 19.3408
522 1 -1.1104 12.1935 16.5125 14.9718
524 1 -1.1104 9.5718 13.6068 17.9227
525 1 -1.1104 9.59178 19.2793 17.8905
526 2 2.2208 8.07698 17.8663 19.2459
527 1 -1.1104 9.60737 13.5425 15.0557
529 1 -1.1104 9.50254 19.2381 15.0692
531 2 2.2208 7.98059 15.0349 16.6819
532 2 2.2208 7.97582 20.7476 16.4626
533 1 -1.1104 9.3802 16.3352 18.0179
534 1 -1.1104 9.42158 16.4184 15.1139
535 1 -1.1104 9.58047 16.4099 20.6029
516 1 -1.1104 12.1824 13.7011 20.6026
530 1 -1.1104 9.45097 19.2856 20.9319
523 1 -1.1104 12.2543 16.398 20.6957
9529 2 2.2208 -0.361708 12.2661 16.4176
343 1 -1.1104 0.975356 -3.33133 20.6836
364 1 -1.1104 3.83989 2.45298 20.437
666 2 2.2208 13.6333 6.60783 24.9261
540 2 2.2208 5.144 0.93794 21.9144
541 1 -1.1104 0.917662 -3.18172 23.4895
542 1 -1.1104 0.771457 2.46168 23.2695
545 1 -1.1104 1.02292 -3.25845 26.2154
546 1 -1.1104 0.981918 2.35632 25.9705
549 1 -1.1104 1.16589 -0.382215 23.5525
551 2 2.2208 5.21466 -1.86482 24.8676
552 2 2.2208 5.36842 3.73022 24.7356
553 1 -1.1104 1.064 -0.526544 26.328
555 1 -1.1104 3.78029 -3.4153 23.5042
556 1 -1.1104 3.76192 2.28797 23.2871
557 2 2.2208 2.49264 1.01095 24.7463
558 1 -1.1104 3.75567 -3.22473 26.2684
559 1 -1.1104 3.88214 2.49271 26.1742
560 2 2.2208 2.43649 -1.94907 22.1186
561 2 2.2208 2.47188 3.91635 21.9966
562 1 -1.1104 3.94686 -0.605248 23.2901
563 1 -1.1104 3.89103 -0.310194 26.2187
550 1 -1.1104 6.65573 -0.679182 23.5501
554 1 -1.1104 6.74535 -0.470368 26.4542
544 1 -1.1104 6.59889 2.14959 23.6039
547 1 -1.1104 6.62713 -3.22346 26.3641
668 2 2.2208 8.12457 -1.85333 27.6879
409 1 -1.1104 12.109 19.3347 23.4696
9444 2 2.2208 -0.349105 17.8432 16.4591
347 1 -1.1104 6.55667 -3.52936 20.7165
9412 2 2.2208 -0.370203 20.6602 19.2906
384 1 -1.1104 12.3117 -3.27436 20.524
548 1 -1.1104 6.59397 2.33041 26.2371
604 1 -1.1104 9.57361 19.167 23.6308
634 1 -1.1104 9.44484 13.6361 26.1758
9226 2 2.2208 -0.287926 6.61859 16.4143
543 1 -1.1104 6.67878 -3.3824 23.4073
576 2 2.2208 10.9798 0.935347 21.9991
577 1 -1.1104 12.452 -3.15874 23.379
578 1 -1.1104 12.2953 2.37864 23.4351
579 1 -1.1104 12.2904 -3.25005 26.2815
580 1 -1.1104 12.296 2.39305 26.2996
581 1 -1.1104 12.1569 -0.377578 23.5209
582 2 2.2208 10.8255 -1.81514 24.8837
583 2 2.2208 10.8689 3.59735 24.7217
584 1 -1.1104 12.398 -0.535315 26.3639
585 1 -1.1104 9.53551 -3.29275 23.2998
586 1 -1.1104 9.36758 2.25464 23.3916
587 2 2.2208 8.02976 0.844093 24.8385
588 1 -1.1104 9.35602 -3.24431 26.1821
589 1 -1.1104 9.4958 2.27206 26.2613
590 2 2.2208 8.1101 -1.94526 22.125
591 2 2.2208 8.13793 3.56383 22.0291
592 1 -1.1104 9.43946 -0.50852 23.5483
593 1 -1.1104 9.46425 -0.44277 26.287
404 2 2.2208 10.7984 17.9248 22.1683
673 2 2.2208 2.2929 -1.81405 27.6202
603 1 -1.1104 9.62611 13.671 23.2552
9373 2 2.2208 -0.324323 9.3039 19.3174
429 1 -1.1104 0.971837 10.7597 20.6152
438 1 -1.1104 3.85846 7.96415 20.6303
445 1 -1.1104 3.92816 10.7988 20.6868
657 2 2.2208 13.674 1.01735 24.9066
605 2 2.2208 5.42003 6.66361 22.1171
606 2 2.2208 5.24322 12.2753 22.1505
607 1 -1.1104 1.10608 8.07923 23.5966
609 1 -1.1104 1.04178 7.93119 26.3894
611 1 -1.1104 1.1723 5.3175 23.5582
612 1 -1.1104 0.995266 10.6212 23.3471
615 2 2.2208 5.31591 9.34336 24.9184
616 1 -1.1104 1.0208 5.19046 26.3236
617 1 -1.1104 1.13106 10.7336 26.1814
620 1 -1.1104 4.03226 8.05416 23.4726
621 2 2.2208 2.45937 6.61156 25.0593
622 2 2.2208 2.48138 12.2551 24.8266
623 1 -1.1104 3.91131 7.98948 26.3154
624 2 2.2208 2.48631 9.21558 22.2252
625 1 -1.1104 3.86405 5.2525 23.573
626 1 -1.1104 3.93405 10.8649 23.5886
627 1 -1.1104 3.88495 5.24861 26.3102
628 1 -1.1104 3.97704 10.8131 26.2355
608 1 -1.1104 6.75666 7.81945 23.5983
613 1 -1.1104 6.78741 4.99156 23.278
618 1 -1.1104 6.71314 5.19296 26.2531
610 1 -1.1104 6.80427 8.04845 26.4358
619 1 -1.1104 6.82821 10.7766 26.0716
614 1 -1.1104 6.68888 10.8629 23.3856
629 2 2.2208 8.03936 20.6347 22.1759
420 1 -1.1104 6.74224 8.07603 20.7652
460 1 -1.1104 12.3288 10.747 20.6227
572 1 -1.1104 12.0544 19.3567 26.2831
575 2 2.2208 10.8239 20.6467 24.8715
574 2 2.2208 10.8589 15.1402 24.8706
408 1 -1.1104 12.4262 13.5205 23.365
373 1 -1.1104 12.2554 10.9585 26.2773
374 1 -1.1104 12.3106 5.06589 26.263
375 2 2.2208 11.0303 9.39777 24.8493
377 1 -1.1104 12.2441 10.6281 23.3657
378 1 -1.1104 12.3102 5.33354 23.3992
567 1 -1.1104 12.3349 8.09311 26.2551
569 2 2.2208 10.9347 12.2094 22.0144
570 2 2.2208 10.8853 6.47816 22.1027
571 2 2.2208 8.19227 6.55106 24.8918
597 1 -1.1104 12.2522 7.98898 23.3586
599 2 2.2208 8.11437 12.2107 24.7664
631 1 -1.1104 9.4382 7.93805 23.4396
636 1 -1.1104 9.60385 10.9385 26.0699
637 1 -1.1104 9.61731 5.00681 26.325
638 1 -1.1104 9.4402 10.7523 23.4145
639 1 -1.1104 9.62142 5.15171 23.4883
640 2 2.2208 8.25275 9.39125 22.0659
641 1 -1.1104 9.56623 7.99739 26.3196
486 1 -1.1104 6.5909 13.4649 20.682
482 1 -1.1104 1.08459 13.5591 20.5582
9304 2 2.2208 -0.289458 20.6079 24.7862
594 1 -1.1104 6.55437 16.3383 26.3512
633 1 -1.1104 6.59596 19.2691 26.332
539 1 -1.1104 6.7086 19.2751 23.4769
447 1 -1.1104 6.54821 16.5096 23.5781
410 2 2.2208 2.42089 15.0232 22.0408
411 2 2.2208 2.50452 20.5548 22.115
412 1 -1.1104 3.75906 16.5077 23.6848
446 1 -1.1104 1.06623 16.5271 23.3826
448 1 -1.1104 4.06871 13.7613 26.3333
473 1 -1.1104 3.75907 16.4781 26.3319
474 2 2.2208 2.56126 17.9661 24.9876
475 1 -1.1104 3.89515 19.3445 26.4793
509 2 2.2208 5.23508 17.8069 22.0587
510 1 -1.1104 0.930962 13.6136 23.467
511 1 -1.1104 1.0759 19.1957 23.604
537 2 2.2208 5.23323 15.0005 24.9208
538 2 2.2208 5.23368 20.681 25.0983
564 1 -1.1104 0.972233 13.553 26.2733
565 1 -1.1104 1.17491 16.349 26.2475
566 1 -1.1104 1.05084 19.2183 26.4044
595 1 -1.1104 3.74122 13.5783 23.3951
598 1 -1.1104 3.96939 19.2647 23.508
536 1 -1.1104 6.6368 13.6605 23.6019
596 1 -1.1104 6.82337 13.5224 26.1737
630 2 2.2208 8.09551 15.0731 22.0387
602 1 -1.1104 12.157 16.4864 26.2488
9375 2 2.2208 -0.343698 3.92221 24.833
518 1 -1.1104 12.2485 19.3192 20.7387
601 1 -1.1104 9.37616 16.4257 23.4118
371 2 2.2208 13.642 15.0663 22.0941
568 1 -1.1104 12.2073 13.8057 26.1935
635 1 -1.1104 9.32682 19.1462 26.4193
9267 2 2.2208 -0.276198 3.83078 19.2791
311 2 2.2208 5.35214 12.1735 27.5091
662 2 2.2208 13.6505 17.8777 24.9603
323 2 2.2208 5.18401 17.8052 27.7054
315 2 2.2208 2.41758 9.53568 27.6487
203 2 2.2208 10.9146 12.252 27.6039
324 2 2.2208 2.47934 15.0404 27.5668
370 2 2.2208 8.09827 17.795 13.7408
325 2 2.2208 10.8172 17.8551 27.7194
9184 2 2.2208 -0.389457 17.8134 27.6266
670 2 2.2208 10.9024 0.956485 27.6958
661 2 2.2208 13.597 3.73223 16.3574
372 2 2.2208 11.0313 20.7907 13.7125
199 2 2.2208 8.08829 9.46393 27.6098
648 2 2.2208 5.25014 9.42062 13.6933
645 2 2.2208 10.8724 15.1525 13.6902
336 2 2.2208 5.33391 -1.86159 13.7084
8854 2 2.2208 10.881 -4.49084 27.6309
671 2 2.2208 8.2421 3.78807 27.6628
675 2 2.2208 2.46425 3.74379 27.5379
81 2 2.2208 10.9008 6.66104 27.6592
334 2 2.2208 5.28226 3.7846 13.7346
333 2 2.2208 8.02062 0.813872 13.7373
674 2 2.2208 5.20538 0.950288 27.6679
658 2 2.2208 8.23534 6.67216 13.7251
647 2 2.2208 5.29806 20.6639 13.8008
656 2 2.2208 8.17058 12.1598 13.6951
676 2 2.2208 5.22528 23.3464 5.21501
677 2 2.2208 5.31238 29.0766 5.37774
678 1 -1.1104 0.973928 25.043 1.03349
679 1 -1.1104 1.0137 24.9108 3.94611
680 1 -1.1104 0.998889 22.0952 0.992516
681 1 -1.1104 1.02116 27.6747 1.17649
682 2 2.2208 5.23123 26.3594 2.56729
683 1 -1.1104 0.929411 22.2734 3.69001
684 1 -1.1104 0.990853 27.6551 3.8798
685 1 -1.1104 3.48975 24.8326 0.987605
686 2 2.2208 2.25238 23.6109 2.3269
687 2 2.2208 2.40877 29.1689 2.46036
688 1 -1.1104 3.78878 24.9354 3.83831
689 2 2.2208 2.42674 26.2456 5.22049
690 1 -1.1104 3.83206 22.1568 1.04007
691 1 -1.1104 3.78852 27.6608 0.940942
692 1 -1.1104 3.68292 22.0308 3.79946
693 1 -1.1104 3.82129 27.7855 3.87338
699 1 -1.1104 6.53447 21.9757 1.03722
698 1 -1.1104 6.67825 24.7822 3.76542
819 1 -1.1104 0.857774 21.9848 6.60319
701 1 -1.1104 6.45365 21.9508 3.8492
702 1 -1.1104 6.6214 27.6218 3.88674
822 1 -1.1104 6.52558 27.549 6.73377
823 1 -1.1104 3.72762 24.9668 6.59633
825 1 -1.1104 3.84496 27.7809 6.57818
818 1 -1.1104 6.73718 24.642 6.50231
700 1 -1.1104 6.51349 27.6163 1.09708
697 1 -1.1104 6.40468 24.8697 1.04737
821 1 -1.1104 6.63762 21.9624 6.55927
817 1 -1.1104 0.94231 24.8121 6.68984
824 1 -1.1104 3.64084 21.9841 6.78578
703 2 2.2208 10.8071 23.4909 5.17378
704 2 2.2208 10.9514 29.0961 5.37933
705 1 -1.1104 12.1462 24.6984 1.03405
706 1 -1.1104 12.3726 25.0021 3.88546
707 1 -1.1104 12.2837 22.0458 1.03724
708 1 -1.1104 12.146 27.5162 1.13529
709 2 2.2208 10.8016 26.3384 2.59977
710 1 -1.1104 12.1892 22.0692 3.81444
711 1 -1.1104 12.2117 27.6936 4.01216
712 1 -1.1104 9.37745 24.9329 1.00858
713 2 2.2208 7.77884 23.3624 2.44909
714 2 2.2208 8.02746 29.1096 2.5495
715 1 -1.1104 9.41878 24.841 3.84211
716 2 2.2208 8.00883 26.2587 5.34476
717 1 -1.1104 9.40705 22.0798 1.08306
718 1 -1.1104 9.44831 27.6362 1.20579
719 1 -1.1104 9.3006 22.0205 3.96933
720 1 -1.1104 9.442 27.593 4.03697
980 1 -1.1104 12.1381 44.2001 12.2835
971 1 -1.1104 9.48729 38.7978 12.1058
1574 1 -1.1104 3.76637 47.2578 12.2391
853 1 -1.1104 9.43372 24.8375 6.67452
850 1 -1.1104 12.2023 24.8806 6.6775
852 1 -1.1104 12.408 27.7269 6.77846
851 1 -1.1104 12.1396 22.1882 6.55706
854 1 -1.1104 9.38936 22.07 6.48568
855 1 -1.1104 9.48877 27.7079 6.75969
724 2 2.2208 5.1835 34.7396 5.24359
725 1 -1.1104 1.19692 30.4416 0.878468
726 1 -1.1104 0.922229 36.1068 0.942425
728 1 -1.1104 0.969491 30.4791 3.85734
729 1 -1.1104 1.06549 36.142 3.74653
731 1 -1.1104 0.970208 33.207 0.957223
732 2 2.2208 5.25364 31.8538 2.55227
733 2 2.2208 5.17995 37.475 2.35321
734 1 -1.1104 1.0175 33.3713 3.72235
736 1 -1.1104 3.90501 30.4376 1.0563
737 1 -1.1104 3.86519 36.1765 1.1069
738 2 2.2208 2.38068 34.6721 2.41456
739 1 -1.1104 3.86221 30.4103 3.76363
740 1 -1.1104 3.81248 36.0641 3.81417
741 2 2.2208 2.39797 31.7772 5.30639
742 2 2.2208 2.44918 37.5702 5.29203
743 1 -1.1104 3.87368 33.3472 1.13698
744 1 -1.1104 3.79112 33.3295 3.78878
749 1 -1.1104 6.61835 30.4341 3.93663
880 1 -1.1104 3.8518 30.499 6.57048
735 1 -1.1104 6.50632 33.2707 3.97972
730 1 -1.1104 6.76177 36.0353 3.80904
879 1 -1.1104 6.46632 33.2994 6.60929
750 1 -1.1104 6.62401 33.2619 1.14845
748 1 -1.1104 6.72544 30.4872 1.14712
878 1 -1.1104 0.919697 33.233 6.57136
876 1 -1.1104 6.75699 30.5969 6.72764
882 1 -1.1104 3.72124 33.2947 6.72732
881 1 -1.1104 3.79347 36.0817 6.714
993 2 2.2208 13.5928 40.2362 7.94694
727 1 -1.1104 6.65545 36.1207 0.987471
751 2 2.2208 10.834 34.6444 5.28527
752 1 -1.1104 12.253 30.391 1.23455
753 1 -1.1104 12.3393 35.963 1.15068
754 1 -1.1104 12.3829 30.5731 3.99304
755 1 -1.1104 12.4531 36.2187 3.73747
756 1 -1.1104 12.2237 33.1402 1.02017
757 2 2.2208 10.7811 31.9327 2.36526
758 2 2.2208 10.8339 37.518 2.36194
759 1 -1.1104 12.3627 33.3917 3.67821
760 1 -1.1104 9.43318 30.4788 1.14481
761 1 -1.1104 9.49567 36.0404 1.28461
762 2 2.2208 8.07653 34.5999 2.54052
763 1 -1.1104 9.52061 30.623 3.91023
764 1 -1.1104 9.56155 36.2528 4.10189