ITEM: TIMESTEP
20000
ITEM: NUMBER OF ATOMS
17760
ITEM: BOX BOUNDS pp pp pp
-3.8357628467606625e-01 2.7723576284676280e+01
-4.4191943807100822e+00 3.3249919438071703e+02
-3.6725213908718218e-01 2.7707252139087291e+01
ITEM: ATOMS id type q x y z
1 2 2.2208 5.38809 1.20775 5.40722
2 1 -1.1104 1.19248 -3.0992 1.2027
3 1 -1.1104 1.22056 2.60387 1.04954
6 1 -1.1104 1.07493 -3.03479 3.97271
7 1 -1.1104 1.15056 2.60654 3.81126
10 1 -1.1104 1.12586 -0.243741 1.05194
12 2 2.2208 5.3598 -1.56884 2.50369
13 2 2.2208 5.34359 3.89569 2.42633
14 1 -1.1104 1.05901 -0.14967 3.84528
16 1 -1.1104 4.03907 -2.92451 1.13645
17 1 -1.1104 3.92407 2.59297 1.16766
18 2 2.2208 2.46143 1.23259 2.61177
19 1 -1.1104 3.96076 -2.94778 3.82343
20 1 -1.1104 3.90147 2.54406 3.946
21 2 2.2208 2.5977 -1.55089 5.29482
22 2 2.2208 2.53077 3.93636 5.34478
23 1 -1.1104 3.88664 -0.277328 1.06067
24 1 -1.1104 3.90371 -0.117411 3.94493
9177 2 2.2208 -0.216146 3.83351 2.38942
675 2 2.2208 2.66728 3.86838 -0.359304
8881 2 2.2208 -0.310033 -1.66176 2.44965
674 2 2.2208 5.29013 1.14558 -0.332419
8495 2 2.2208 2.47182 -4.46082 2.52827
9015 2 2.2208 -0.480616 15.1444 2.39324
317 2 2.2208 8.03487 15.1918 -0.351894
173 1 -1.1104 3.94688 2.51146 6.64797
8513 2 2.2208 5.19657 -4.44632 10.8645
668 2 2.2208 8.08102 -1.72253 -0.321914
671 2 2.2208 7.98423 3.95819 -0.374328
11 1 -1.1104 6.74096 -0.258587 0.979992
15 1 -1.1104 6.63467 -0.240132 3.93559
9075 2 2.2208 -0.367505 6.75522 10.897
4 1 -1.1104 6.86317 -3.01749 1.07713
8 1 -1.1104 6.77387 -3.00456 3.84669
5 1 -1.1104 6.64873 2.44617 1.20473
9 1 -1.1104 6.71341 2.49646 4.00709
31 2 2.2208 10.9339 1.08334 5.21474
32 1 -1.1104 12.4173 -3.09861 0.95366
33 1 -1.1104 12.4496 2.5742 1.00818
34 1 -1.1104 12.4249 -2.91318 3.90987
35 1 -1.1104 12.3955 2.48281 3.85422
36 1 -1.1104 12.3732 -0.376276 0.998937
37 2 2.2208 10.9346 -1.60787 2.41436
38 2 2.2208 10.882 4.00738 2.52564
39 1 -1.1104 12.3496 -0.278222 3.9005
40 1 -1.1104 9.5884 -3.01473 1.01498
41 1 -1.1104 9.59224 2.63077 0.822934
42 2 2.2208 8.08025 1.15021 2.50635
43 1 -1.1104 9.59485 -2.94686 3.92784
44 1 -1.1104 9.53624 2.45548 3.70089
45 2 2.2208 8.16931 -1.6534 5.28842
46 2 2.2208 8.03074 3.98024 5.37825
47 1 -1.1104 9.57862 -0.115314 1.12598
48 1 -1.1104 9.47205 -0.261026 3.94928
206 1 -1.1104 12.4111 2.62733 6.66297
208 1 -1.1104 9.43812 -3.01091 6.73417
168 1 -1.1104 6.78802 -2.99684 6.68582
9174 2 2.2208 -0.462188 20.8519 8.06836
330 2 2.2208 13.6269 20.8208 5.27897
229 2 2.2208 8.14895 15.0417 10.8303
670 2 2.2208 10.9977 1.1836 -0.367861
9181 2 2.2208 -0.363204 6.8495 5.3412
54 2 2.2208 5.2201 6.70305 5.27116
55 2 2.2208 5.20459 12.3214 5.29947
56 1 -1.1104 1.12862 8.29183 1.25665
58 1 -1.1104 0.972309 8.08949 4.07343
60 1 -1.1104 1.04722 5.39265 0.980402
61 1 -1.1104 1.02557 10.9827 1.16616
66 2 2.2208 5.27448 9.59125 2.47995
67 1 -1.1104 1.15191 5.32959 3.86931
68 1 -1.1104 0.979609 10.9444 3.93081
71 1 -1.1104 4.03663 8.17671 1.02812
72 2 2.2208 2.48985 6.7769 2.50515
73 2 2.2208 2.37701 12.398 2.45857
74 1 -1.1104 3.89348 8.06924 3.87513
75 2 2.2208 2.41975 9.53593 5.44844
76 1 -1.1104 3.96974 5.41655 1.03032
77 1 -1.1104 3.76821 10.9338 1.16641
79 1 -1.1104 3.85526 5.27007 3.88957
80 1 -1.1104 3.79436 10.9785 4.14054
327 2 2.2208 5.31535 6.71116 -0.347928
118 1 -1.1104 6.60042 16.5393 6.7563
326 2 2.2208 13.6764 6.70872 2.53458
238 1 -1.1104 3.79004 8.04516 6.70506
234 1 -1.1104 0.989195 8.28463 6.85747
78 1 -1.1104 3.82272 10.8775 6.94159
30 1 -1.1104 12.1112 13.8326 12.2801
318 2 2.2208 2.31785 20.823 -0.391252
8909 2 2.2208 -0.439939 15.0588 8.05323
320 2 2.2208 13.6162 12.3627 2.53741
64 1 -1.1104 6.56416 11.0224 1.09975
59 1 -1.1104 6.69471 8.09298 3.75237
70 1 -1.1104 6.69551 10.7638 3.81855
63 1 -1.1104 6.68673 5.38614 1.055
69 1 -1.1104 6.76096 5.32608 3.95338
57 1 -1.1104 6.68433 8.0106 0.877243
84 2 2.2208 10.8308 6.74262 5.29828
85 2 2.2208 10.9465 12.3541 5.25645
86 1 -1.1104 12.16 8.34864 1.07985
87 1 -1.1104 12.3146 8.03836 3.94375
88 1 -1.1104 12.2203 5.3827 1.25941
89 1 -1.1104 12.2994 11.0817 0.998428
91 2 2.2208 10.7309 9.69463 2.48148
92 1 -1.1104 12.2777 5.28307 3.9763
93 1 -1.1104 12.2299 10.9356 3.85617
94 1 -1.1104 9.46003 8.14836 1.18046
95 2 2.2208 8.07508 6.72392 2.57481
96 2 2.2208 7.97663 12.3074 2.44851
97 1 -1.1104 9.44092 8.13445 3.99797
98 2 2.2208 8.03753 9.56832 5.33427
99 1 -1.1104 9.46585 5.35089 1.15196
100 1 -1.1104 9.32414 11.0011 0.966995
102 1 -1.1104 9.50118 5.30073 3.90084
103 1 -1.1104 9.41195 10.8803 3.87251
203 2 2.2208 10.8458 12.369 -0.412528
101 1 -1.1104 9.41059 10.8983 6.72767
90 1 -1.1104 12.2396 10.9692 6.69242
112 1 -1.1104 6.76258 19.4373 6.6897
200 2 2.2208 8.12315 17.9361 8.17213
106 2 2.2208 5.2626 17.984 5.33327
107 1 -1.1104 1.05934 13.9151 0.963734
109 1 -1.1104 0.925606 19.3938 0.747821
113 1 -1.1104 1.06933 13.6588 3.73091
114 1 -1.1104 0.956035 19.4334 3.65091
116 1 -1.1104 0.893101 16.6822 1.16592
119 2 2.2208 5.17831 15.1416 2.51414
120 2 2.2208 5.22677 20.7909 2.39918
121 1 -1.1104 0.802683 16.5365 3.91263
123 1 -1.1104 3.66785 13.6691 1.02814
125 1 -1.1104 3.72721 19.4069 1.12388
127 2 2.2208 2.30666 18.002 2.46489
128 1 -1.1104 3.85409 13.7994 3.80366
129 1 -1.1104 3.80427 19.3404 3.89637
130 2 2.2208 2.4269 15.1762 5.26929
131 2 2.2208 2.43031 20.7433 5.11285
132 1 -1.1104 3.77651 16.4326 1.14953
134 1 -1.1104 3.81847 16.7105 3.83626
329 2 2.2208 13.638 15.1695 5.33727
51 2 2.2208 13.6575 20.7221 10.9785
50 1 -1.1104 12.1422 13.6678 9.55556
140 1 -1.1104 6.53397 16.5439 1.07107
122 1 -1.1104 6.6698 16.6684 3.92516
124 1 -1.1104 3.72756 13.8635 6.59005
117 1 -1.1104 0.968955 16.4857 6.7106
133 1 -1.1104 3.86133 16.7035 6.68847
108 1 -1.1104 0.988721 13.8813 6.72023
104 2 2.2208 10.9069 20.8238 8.12489
165 1 -1.1104 9.39395 19.3895 12.1367
296 1 -1.1104 6.60886 19.2401 12.3079
138 1 -1.1104 6.6873 19.2174 1.03526
115 1 -1.1104 6.65658 13.7381 3.88848
311 2 2.2208 5.19099 12.3925 -0.356555
139 1 -1.1104 6.56235 19.4185 3.86131
110 1 -1.1104 6.55504 13.8407 1.18754
141 2 2.2208 10.84 17.8787 5.35297
142 1 -1.1104 12.4198 13.9804 1.25623
144 1 -1.1104 12.0704 19.504 1.00802
146 1 -1.1104 12.233 13.6968 3.90771
147 1 -1.1104 12.1394 19.3012 3.77739
148 1 -1.1104 12.0291 16.7635 1.01937
150 2 2.2208 10.8796 15.1949 2.51193
151 2 2.2208 10.8199 20.6921 2.42561
152 1 -1.1104 12.3075 16.5305 3.9916
153 1 -1.1104 9.33942 13.7647 0.890061
155 1 -1.1104 9.23073 19.3682 1.12464
157 2 2.2208 8.0817 17.8921 2.6079
158 1 -1.1104 9.44377 13.6631 3.64364
159 1 -1.1104 9.39022 19.2704 3.8369
160 2 2.2208 8.03256 15.1463 5.39784
161 2 2.2208 8.07522 20.8225 5.30584
162 1 -1.1104 9.39313 16.4907 1.10375
164 1 -1.1104 9.40394 16.423 3.94482
163 1 -1.1104 9.33841 16.5447 6.81961
149 1 -1.1104 12.282 16.4783 6.86459
297 1 -1.1104 6.54025 13.645 12.3302
322 2 2.2208 7.94896 20.8416 -0.352912
170 1 -1.1104 1.09335 -0.272765 6.7205
9175 2 2.2208 -0.308714 1.09972 5.36967
9178 2 2.2208 -0.483137 1.13766 10.921
328 2 2.2208 13.686 17.9689 8.14563
166 1 -1.1104 1.23674 -2.98323 6.67764
174 1 -1.1104 3.98663 -0.195261 6.62677
172 1 -1.1104 4.01916 -2.9303 6.60909
8880 2 2.2208 -0.282119 -1.57412 8.1099
167 1 -1.1104 1.09734 2.65947 6.83195
175 2 2.2208 5.45655 1.26672 10.9223
176 1 -1.1104 0.912039 -3.07886 12.3315
177 1 -1.1104 0.964319 2.52618 12.1879
180 1 -1.1104 1.20376 -2.95467 9.50321
181 1 -1.1104 0.927521 2.6278 9.53383
184 1 -1.1104 1.08259 -0.38256 12.3157
186 2 2.2208 5.30443 -1.52003 7.89403
187 2 2.2208 5.30159 4.04299 8.14814
188 1 -1.1104 1.18385 -0.152966 9.57865
190 1 -1.1104 3.74198 -3.00224 12.3308
191 1 -1.1104 3.66235 2.43376 12.3241
192 2 2.2208 2.46426 1.23574 8.19432
193 1 -1.1104 3.94152 -2.90736 9.49313
194 1 -1.1104 3.90367 2.62588 9.57633
195 2 2.2208 2.47713 -1.68594 10.924
196 2 2.2208 2.42084 3.87114 10.9806
197 1 -1.1104 3.96262 -0.204101 12.3182
198 1 -1.1104 4.06363 -0.153155 9.32761
182 1 -1.1104 6.63545 -2.9058 9.27954
9096 2 2.2208 -0.459192 17.9173 10.8144
9176 2 2.2208 -0.374775 3.96995 8.16976
645 2 2.2208 10.8141 15.1655 13.779
189 1 -1.1104 6.76918 -0.21029 9.43473
169 1 -1.1104 6.79894 2.65439 6.7564
185 1 -1.1104 6.70521 -0.198743 12.3284
178 1 -1.1104 6.57612 -3.06462 12.0827
183 1 -1.1104 6.79224 2.57871 9.5234
171 1 -1.1104 6.77692 -0.178898 6.71319
179 1 -1.1104 6.64483 2.59763 12.3557
205 1 -1.1104 12.2675 -2.88974 6.64964
207 1 -1.1104 12.4168 -0.182006 6.6417
209 1 -1.1104 9.52606 2.48646 6.63887
210 1 -1.1104 9.66006 -0.22121 6.62472
211 2 2.2208 10.9124 1.18756 10.8236
212 1 -1.1104 12.1545 -2.99297 12.4275
213 1 -1.1104 12.361 2.62197 12.2956
214 1 -1.1104 12.2655 -3.00599 9.58656
215 1 -1.1104 12.2144 2.71788 9.38824
216 1 -1.1104 12.2845 -0.19968 12.3412
217 2 2.2208 10.8347 -1.52848 8.07575
218 2 2.2208 10.9327 4.00607 8.02545
219 1 -1.1104 12.3207 -0.140233 9.44142
220 1 -1.1104 9.35188 -3.06799 12.3091
221 1 -1.1104 9.44378 2.54647 12.3473
222 2 2.2208 8.18514 1.17356 8.0906
223 1 -1.1104 9.54781 -2.9622 9.4921
224 1 -1.1104 9.50945 2.54144 9.53617
225 2 2.2208 7.97509 -1.66086 10.7446
226 2 2.2208 8.07937 3.95724 10.9186
227 1 -1.1104 9.4526 -0.227649 12.3389
228 1 -1.1104 9.42862 -0.101123 9.39354
9530 2 2.2208 -0.401139 1.14747 -0.262062
204 1 -1.1104 9.50889 19.4143 9.36932
83 2 2.2208 10.8415 15.1093 8.10036
233 1 -1.1104 9.51223 16.5187 12.2397
237 1 -1.1104 6.56628 5.39694 6.7065
49 1 -1.1104 12.2635 19.3995 12.4249
239 1 -1.1104 3.76287 5.36392 6.79895
62 1 -1.1104 1.12845 11.1083 6.79871
236 1 -1.1104 0.970546 5.51412 6.6116
240 2 2.2208 5.2171 6.73585 11.0668
241 2 2.2208 5.19237 12.3871 10.9093
242 1 -1.1104 1.04616 8.39281 12.3688
244 1 -1.1104 0.916428 8.25472 9.65517
246 1 -1.1104 0.96336 5.33068 12.2905
247 1 -1.1104 0.996015 11.1662 12.252
250 2 2.2208 5.21755 9.38925 8.13184
251 1 -1.1104 1.00075 5.24135 9.50198
252 1 -1.1104 1.04954 11.0918 9.53908
255 1 -1.1104 3.90371 8.12149 12.4886
256 2 2.2208 2.41123 6.87678 8.18164
257 2 2.2208 2.40694 12.5649 8.1208
258 1 -1.1104 3.74701 8.12042 9.48185
259 2 2.2208 2.35494 9.70928 10.8348
260 1 -1.1104 3.84426 5.07171 12.245
261 1 -1.1104 3.86922 10.9462 12.2335
262 1 -1.1104 3.80786 5.3896 9.63116
263 1 -1.1104 3.86183 10.9978 9.49111
111 1 -1.1104 6.79114 13.6985 6.57513
53 1 -1.1104 12.3889 19.3396 9.56146
269 1 -1.1104 9.3868 5.27445 6.69401
249 1 -1.1104 6.69882 10.9282 12.0861
65 1 -1.1104 6.58306 10.8974 6.70735
266 1 -1.1104 12.3911 5.43361 6.65319
248 1 -1.1104 6.58532 5.30172 12.3975
253 1 -1.1104 6.45222 5.3993 9.56945
243 1 -1.1104 6.73723 8.15074 12.4391
245 1 -1.1104 6.52634 8.02534 9.36928
235 1 -1.1104 6.63207 8.24978 6.61405
265 1 -1.1104 12.2211 8.2514 6.69518
267 1 -1.1104 9.37642 8.06127 6.77022
254 1 -1.1104 6.62969 10.7379 9.53946
264 1 -1.1104 9.41594 10.9306 9.61688
268 1 -1.1104 9.41303 5.20055 9.40239
270 1 -1.1104 9.60361 10.9554 12.4823
271 1 -1.1104 9.5551 5.38067 12.1811
272 2 2.2208 8.12495 9.40289 11.0151
273 1 -1.1104 9.32639 8.00441 9.60933
274 2 2.2208 7.92031 12.2704 8.1951
275 2 2.2208 8.06227 6.76111 8.09186
276 2 2.2208 10.9448 6.63532 10.8724
277 2 2.2208 10.8386 12.3309 10.9997
278 1 -1.1104 12.3394 7.99744 12.3935
279 1 -1.1104 12.3035 8.14826 9.52596
280 1 -1.1104 12.3305 5.45233 12.304
281 1 -1.1104 12.2018 10.8836 12.4206
282 2 2.2208 10.6686 9.61507 8.13803
283 1 -1.1104 12.2389 5.38131 9.52631
284 1 -1.1104 12.2771 10.9802 9.54763
285 1 -1.1104 9.48526 8.08804 12.4079
145 1 -1.1104 12.1984 19.2521 6.66552
201 1 -1.1104 9.57178 13.7622 9.56742
288 1 -1.1104 6.74344 19.3247 9.6775
230 2 2.2208 8.06335 20.7843 10.9502
289 1 -1.1104 6.7868 16.5854 9.58865
126 1 -1.1104 3.96976 19.4312 6.60486
302 1 -1.1104 1.03039 19.4198 6.54717
286 1 -1.1104 3.81921 19.3393 12.1305
287 1 -1.1104 3.91143 13.6825 12.3234
291 1 -1.1104 1.06168 19.3177 9.33663
292 1 -1.1104 1.26949 16.796 9.71346
293 2 2.2208 5.34174 20.6798 8.0661
294 1 -1.1104 1.00286 13.8222 9.55373
295 2 2.2208 5.21529 15.2507 8.0417
298 1 -1.1104 0.9639 19.3887 12.1894
299 1 -1.1104 1.04157 13.9 12.25
300 2 2.2208 5.22775 17.9173 10.9661
301 1 -1.1104 3.97772 19.3011 9.54386
303 2 2.2208 2.43189 18.1205 8.02382
304 1 -1.1104 4.01285 16.622 9.41546
305 1 -1.1104 3.76705 13.8586 9.60625
307 1 -1.1104 0.916439 16.6804 12.4044
308 1 -1.1104 3.76623 16.6169 12.3765
309 2 2.2208 2.39771 20.7363 10.8578
310 2 2.2208 2.49959 15.213 10.903
27 2 2.2208 10.9108 17.9162 10.9752
312 1 -1.1104 9.48462 16.5049 9.59623
105 1 -1.1104 12.232 16.3744 9.49763
154 1 -1.1104 9.42839 13.6489 6.69025
137 1 -1.1104 9.29766 13.6173 12.2764
290 1 -1.1104 6.44778 13.6743 9.35002
143 1 -1.1104 12.2204 13.7087 6.65837
306 1 -1.1104 6.75985 16.4311 12.2994
82 1 -1.1104 12.1959 16.5071 12.3351
156 1 -1.1104 9.45769 19.4355 6.7074
52 2 2.2208 13.6521 15.1167 -0.336924
232 2 2.2208 13.7762 3.98519 5.28137
8882 2 2.2208 -0.306966 12.4042 -0.266048
325 2 2.2208 10.7009 18.09 -0.322269
333 2 2.2208 8.10438 1.23198 13.7694
324 2 2.2208 2.39084 15.2194 -0.312595
8506 2 2.2208 2.28682 -4.54543 13.7136
335 2 2.2208 2.46601 1.08223 13.715
673 2 2.2208 2.55813 -1.69285 -0.306968
9224 2 2.2208 -0.383455 15.2289 13.671
315 2 2.2208 2.50189 9.47224 -0.37088
655 2 2.2208 10.9522 9.50138 13.8433
337 2 2.2208 5.20577 1.1891 16.5491
338 1 -1.1104 0.958137 -3.05697 17.8638
339 1 -1.1104 0.893704 2.66455 17.8357
342 1 -1.1104 1.04175 -3.00717 15.0933
344 1 -1.1104 1.13125 2.55554 15.0441
350 1 -1.1104 1.00923 -0.214845 17.9282
352 2 2.2208 5.16606 -1.69051 19.2952
353 2 2.2208 5.25751 3.93539 19.2942
354 1 -1.1104 0.838661 -0.229222 15.1836
358 1 -1.1104 3.75832 -3.11813 17.8219
359 1 -1.1104 3.87545 2.49662 18.0096
360 2 2.2208 2.47239 1.12148 19.3431
361 1 -1.1104 3.94026 -2.93164 15.0113
363 1 -1.1104 3.79738 2.66957 15.1465
365 2 2.2208 2.4685 -1.66874 16.4358
366 2 2.2208 2.41711 4.05437 16.4642
367 1 -1.1104 3.90478 -0.261375 17.8089
368 1 -1.1104 3.82071 -0.133466 15.0375
376 2 2.2208 13.7139 18.0527 19.3262
9227 2 2.2208 -0.449305 -1.63107 19.3097
601 1 -1.1104 9.30801 16.6415 23.5424
17746 2 2.2208 -0.350795 -4.51277 22.1348
356 1 -1.1104 6.72275 -0.2423 15.1229
340 1 -1.1104 6.5927 -3.09531 18.0003
9417 2 2.2208 -0.333148 15.2048 19.2536
8835 2 2.2208 7.90931 -4.50217 19.249
657 2 2.2208 13.772 1.22689 24.9211
8837 2 2.2208 10.7724 -4.43065 16.5329
9529 2 2.2208 -0.415193 12.4588 16.3946
644 2 2.2208 10.9378 3.89568 13.6544
351 1 -1.1104 6.43362 -0.395961 17.9068
331 2 2.2208 10.7442 -1.61487 13.6232
8841 2 2.2208 2.33538 -4.47608 19.2627
341 1 -1.1104 6.55151 2.54346 17.9327
348 1 -1.1104 6.46601 2.53755 15.1893
346 1 -1.1104 6.76202 -2.95781 15.0037
380 2 2.2208 10.7878 1.2865 16.5789
381 1 -1.1104 12.0168 -2.98853 18.0288
382 1 -1.1104 12.1788 2.46647 17.9681
383 1 -1.1104 12.1658 -2.98997 15.2328
385 1 -1.1104 12.2505 2.63032 15.1929
387 1 -1.1104 12.2909 -0.223238 17.7601
388 2 2.2208 10.8122 -1.66601 19.2907
389 2 2.2208 10.8325 3.88184 19.3742
390 1 -1.1104 12.1614 -0.187377 15.085
392 1 -1.1104 9.27775 -3.16093 17.917
393 1 -1.1104 9.28915 2.53409 17.8451
394 2 2.2208 7.93961 1.23265 19.2431
395 1 -1.1104 9.52911 -3.10435 14.9915
397 1 -1.1104 9.42491 2.64722 15.127
399 2 2.2208 7.96463 -1.701 16.5591
400 2 2.2208 7.95477 4.00568 16.4612
401 1 -1.1104 9.41437 -0.224438 18.0485
402 1 -1.1104 9.42742 -0.207708 15.0897
667 2 2.2208 13.7373 12.3844 24.9981
398 1 -1.1104 9.3879 2.55335 20.6216
530 1 -1.1104 9.45747 19.4665 20.7294
9223 2 2.2208 -0.420263 9.53112 24.9124
9226 2 2.2208 -0.504813 6.8376 16.4287
413 2 2.2208 5.22551 6.81835 16.6419
414 2 2.2208 5.38692 12.3401 16.5318
415 1 -1.1104 1.15112 8.24884 18.1457
417 1 -1.1104 1.1949 8.10362 15.1584
421 1 -1.1104 1.05163 5.36617 17.9481
422 1 -1.1104 1.07632 11.1067 17.7908
425 2 2.2208 5.17152 9.52963 19.2503
426 1 -1.1104 0.873337 5.38772 14.9984
428 1 -1.1104 0.968045 10.9445 15.032
434 1 -1.1104 3.75267 8.11683 17.9822
435 2 2.2208 2.36732 6.69752 19.3605
436 2 2.2208 2.48824 12.305 19.1964
437 1 -1.1104 3.99886 8.20457 15.2589
439 2 2.2208 2.37599 9.64551 16.5315
440 1 -1.1104 3.77371 5.34377 17.8701
441 1 -1.1104 3.84848 10.9931 17.811
442 1 -1.1104 3.7072 5.33525 15.0132
444 1 -1.1104 3.87866 11.0729 15.191
652 2 2.2208 13.8189 9.5549 16.4908
658 2 2.2208 8.17319 6.77095 13.7696
9416 2 2.2208 -0.429192 9.64153 13.636
323 2 2.2208 5.00273 18.0251 27.812
427 1 -1.1104 1.07784 5.26515 20.7753
429 1 -1.1104 1.08393 10.8869 20.6262
438 1 -1.1104 3.8572 8.20379 20.6589
642 2 2.2208 2.39429 6.81977 13.6697
419 1 -1.1104 6.78998 8.10937 15.1853
432 1 -1.1104 6.75438 10.8275 14.9062
430 1 -1.1104 6.58654 5.38198 15.1174
416 1 -1.1104 6.57088 8.2714 17.9196
424 1 -1.1104 6.63994 10.9017 17.7684
423 1 -1.1104 6.59702 5.39686 17.925
449 2 2.2208 10.8365 6.7228 16.5354
450 2 2.2208 10.7854 12.3629 16.5322
451 1 -1.1104 12.2451 8.28219 18.0849
452 1 -1.1104 12.3792 7.97666 15.3151
454 1 -1.1104 12.2228 5.47379 17.7969
455 1 -1.1104 12.3275 10.941 17.943
456 2 2.2208 10.8631 9.64434 19.3362
457 1 -1.1104 12.2104 5.25436 15.1975
459 1 -1.1104 12.3887 10.9106 15.2449
461 1 -1.1104 9.53915 8.135 17.9964
462 2 2.2208 8.15021 6.58331 19.4002
463 2 2.2208 8.13207 12.4356 19.3913
464 1 -1.1104 9.53477 8.19125 15.2277
466 2 2.2208 8.07841 9.62183 16.56
467 1 -1.1104 9.52812 5.27904 17.9363
468 1 -1.1104 9.56574 11.0243 17.9155
469 1 -1.1104 9.4014 5.32892 15.0244
471 1 -1.1104 9.61932 11.1144 15.1948
431 1 -1.1104 6.74189 5.34588 20.8845
458 1 -1.1104 12.263 5.40094 20.7858
465 1 -1.1104 9.46877 8.07403 20.8276
600 2 2.2208 13.7155 15.1431 16.4417
476 2 2.2208 5.26865 18.0247 16.4748
477 1 -1.1104 0.935129 13.6865 17.8253
478 1 -1.1104 1.15307 19.4771 17.9291
481 1 -1.1104 0.869901 13.9433 15.1007
483 1 -1.1104 1.06973 19.288 14.9104
489 1 -1.1104 1.18054 16.6745 17.8958
491 2 2.2208 5.25144 15.2591 19.3096
492 2 2.2208 5.2053 20.7502 19.3319
493 1 -1.1104 1.03993 16.6589 15.1667
497 1 -1.1104 3.95392 13.8035 17.8822
498 1 -1.1104 3.94244 19.4293 17.8151
499 2 2.2208 2.53311 18.1391 19.2645
500 1 -1.1104 3.79674 13.7883 15.1724
502 1 -1.1104 3.69372 19.4161 15.0721
504 2 2.2208 2.47714 15.2425 16.619
505 2 2.2208 2.37581 20.783 16.4455
506 1 -1.1104 3.83852 16.5816 17.851
507 1 -1.1104 3.77451 16.6645 15.2192
649 2 2.2208 2.52857 12.374 13.6167
594 1 -1.1104 6.60073 16.6486 26.4491
487 1 -1.1104 6.5531 19.4119 15.1781
485 1 -1.1104 6.76412 13.7956 15.2183
480 1 -1.1104 6.71982 19.4279 17.9457
490 1 -1.1104 6.68302 16.6226 17.8839
482 1 -1.1104 1.16116 13.6913 20.6083
494 1 -1.1104 0.970124 16.5018 20.7499
9305 2 2.2208 -0.342484 15.0996 24.9877
650 2 2.2208 13.6634 9.66937 22.1282
572 1 -1.1104 12.1244 19.3246 26.3075
536 1 -1.1104 6.66192 13.7482 23.5387
8853 2 2.2208 8.08071 -4.64548 24.9388
495 1 -1.1104 6.69151 16.5579 15.0792
479 1 -1.1104 6.62938 13.7524 17.9083
512 2 2.2208 10.9086 17.9738 16.5858
513 1 -1.1104 12.3228 13.9164 18.0941
514 1 -1.1104 12.1699 19.4879 17.9377
515 1 -1.1104 12.2381 13.6705 15.2334
517 1 -1.1104 12.1886 19.4304 15.1867
519 1 -1.1104 12.3006 16.5669 18.0062
520 2 2.2208 10.8811 15.1561 19.3618
521 2 2.2208 10.8869 20.8208 19.326
522 1 -1.1104 12.2675 16.6544 15.0655
524 1 -1.1104 9.44128 13.7404 18.1167
525 1 -1.1104 9.44753 19.3153 17.8599
526 2 2.2208 8.10075 17.9736 19.3598
527 1 -1.1104 9.51241 13.7845 15.1408
529 1 -1.1104 9.36111 19.3572 15.0049
531 2 2.2208 8.01098 15.1903 16.6231
532 2 2.2208 8.00868 20.7075 16.5689
533 1 -1.1104 9.5498 16.5334 17.9651
534 1 -1.1104 9.58671 16.6599 15.1502
573 1 -1.1104 12.216 16.5609 23.5119
516 1 -1.1104 12.2637 13.7424 20.9237
528 1 -1.1104 9.35378 13.8223 20.7679
404 2 2.2208 10.764 18.0218 22.1985
364 1 -1.1104 3.81048 2.33337 20.866
568 1 -1.1104 12.4536 13.7277 26.257
345 1 -1.1104 1.02549 2.46503 20.6361
349 1 -1.1104 6.66865 2.50624 20.738
408 1 -1.1104 12.3303 13.8365 23.5735
9373 2 2.2208 -0.394854 9.53311 19.3933
9375 2 2.2208 -0.279469 3.95077 24.9509
319 2 2.2208 13.8751 9.62967 27.8166
355 1 -1.1104 0.90363 -0.318025 20.7756
369 1 -1.1104 3.83049 -0.368594 20.7753
362 1 -1.1104 3.7586 -3.19845 20.7177
343 1 -1.1104 1.01214 -3.2361 20.7489
540 2 2.2208 5.28999 1.06849 22.2725
541 1 -1.1104 1.0219 -3.11287 23.6676
542 1 -1.1104 0.913298 2.41009 23.5258
545 1 -1.1104 1.08984 -2.89618 26.3359
546 1 -1.1104 1.23525 2.56812 26.2248
549 1 -1.1104 1.06719 -0.264466 23.5363
551 2 2.2208 5.15799 -1.68987 25.0023
552 2 2.2208 5.20489 3.9673 24.9112
553 1 -1.1104 1.0629 -0.146489 26.4465
555 1 -1.1104 3.72795 -3.04967 23.5144
556 1 -1.1104 3.79046 2.39218 23.6099
557 2 2.2208 2.39726 1.07349 24.9437
558 1 -1.1104 3.77715 -3.15468 26.3134
559 1 -1.1104 3.86428 2.54182 26.4242
560 2 2.2208 2.38511 -1.63907 22.1078
561 2 2.2208 2.44991 3.9201 22.2506
562 1 -1.1104 3.91404 -0.436257 23.5281
563 1 -1.1104 3.86453 -0.142115 26.3056
635 1 -1.1104 9.39045 19.3726 26.4337
550 1 -1.1104 6.8036 -0.309054 23.5674
548 1 -1.1104 6.61273 2.52645 26.3805
336 2 2.2208 5.30841 -1.63017 13.6853
347 1 -1.1104 6.62112 -3.12283 20.7233
357 1 -1.1104 6.61312 -0.283956 20.7477
391 1 -1.1104 12.286 -0.294311 20.4984
386 1 -1.1104 12.4 2.61059 20.6254
629 2 2.2208 8.08506 20.7631 22.1856
9230 2 2.2208 -0.375382 1.10284 22.0554
554 1 -1.1104 6.62969 -0.437286 26.2394
543 1 -1.1104 6.64275 -3.07237 23.5104
403 1 -1.1104 9.28234 -0.24174 20.738
396 1 -1.1104 9.36359 -3.03698 20.7776
384 1 -1.1104 12.1195 -3.16277 20.8067
544 1 -1.1104 6.66437 2.65101 23.5649
547 1 -1.1104 6.50622 -3.18873 26.4256
576 2 2.2208 10.8739 1.17324 22.1196
577 1 -1.1104 12.119 -2.92334 23.5522
578 1 -1.1104 12.1337 2.64935 23.4083
579 1 -1.1104 12.1705 -3.15566 26.4429
580 1 -1.1104 12.4024 2.46249 26.3226
581 1 -1.1104 12.2228 -0.194243 23.4639
582 2 2.2208 10.7391 -1.67792 25.0989
583 2 2.2208 10.8562 4.03559 24.8772
584 1 -1.1104 12.2856 -0.265065 26.32
585 1 -1.1104 9.32307 -3.11732 23.7039
586 1 -1.1104 9.4663 2.56106 23.311
587 2 2.2208 8.08003 1.14572 24.8236
588 1 -1.1104 9.44529 -3.15732 26.428
589 1 -1.1104 9.38134 2.58958 26.0448
590 2 2.2208 7.94812 -1.70776 22.0505
591 2 2.2208 8.14358 3.98014 22.2343
592 1 -1.1104 9.56607 -0.274123 23.6281
593 1 -1.1104 9.4001 -0.343423 26.5098
523 1 -1.1104 12.3754 16.5816 20.8249
9343 2 2.2208 -0.407318 6.75164 22.1944
418 1 -1.1104 0.933857 8.1314 21.0071
632 2 2.2208 7.96041 18.042 25.0376
443 1 -1.1104 3.87412 5.24767 20.5902
445 1 -1.1104 3.90552 10.8555 20.6853
605 2 2.2208 5.25121 6.86884 22.1284
606 2 2.2208 5.21656 12.3513 22.0782
607 1 -1.1104 1.04052 8.12334 23.6228
609 1 -1.1104 0.988482 8.30316 26.4957
611 1 -1.1104 1.00465 5.23335 23.5307
612 1 -1.1104 1.08215 11.0625 23.3804
615 2 2.2208 5.29932 9.62907 24.845
616 1 -1.1104 1.12523 5.37359 26.2106
617 1 -1.1104 1.06373 10.9563 26.3332
620 1 -1.1104 3.82515 8.19447 23.6039
621 2 2.2208 2.4971 6.78105 24.9245
622 2 2.2208 2.36271 12.3512 24.9302
623 1 -1.1104 3.78579 8.02166 26.3422
624 2 2.2208 2.424 9.62599 22.1821
625 1 -1.1104 3.79821 5.28778 23.4879
626 1 -1.1104 3.7739 10.9473 23.5429
627 1 -1.1104 3.9054 5.19477 26.2084
628 1 -1.1104 3.93389 11.0398 26.3194
613 1 -1.1104 6.54516 5.34701 23.6739
433 1 -1.1104 6.72177 11.0362 20.6357
420 1 -1.1104 6.64378 8.23967 20.6406
470 1 -1.1104 9.49952 5.2625 20.8923
460 1 -1.1104 12.2924 11.0752 20.8023
619 1 -1.1104 6.76609 10.9841 26.3994
610 1 -1.1104 6.66381 8.24672 26.1881
614 1 -1.1104 6.57267 11.0073 23.5251
453 1 -1.1104 12.3277 8.3019 20.6982
608 1 -1.1104 6.71233 8.15744 23.3863
618 1 -1.1104 6.72047 5.42061 26.2959
472 1 -1.1104 9.52567 11.1237 20.7858
373 1 -1.1104 12.4179 10.8083 26.4505
374 1 -1.1104 12.2479 5.19992 26.3218
375 2 2.2208 11.0077 9.45418 25.0418
377 1 -1.1104 12.2211 11.0237 23.6907
378 1 -1.1104 12.2085 5.44253 23.6024
567 1 -1.1104 12.137 7.98617 26.3537
569 2 2.2208 10.9143 12.4974 22.2419
570 2 2.2208 10.9905 6.79308 22.1869
571 2 2.2208 8.09649 6.9039 24.8987
597 1 -1.1104 12.4558 8.17985 23.4657
599 2 2.2208 8.08271 12.2692 24.8466
631 1 -1.1104 9.55847 8.1554 23.5232
636 1 -1.1104 9.51583 10.8917 26.2641
637 1 -1.1104 9.52699 5.31994 26.4104
638 1 -1.1104 9.38163 10.8184 23.5938
639 1 -1.1104 9.41502 5.39135 23.6262
640 2 2.2208 8.10827 9.60634 21.9973
641 1 -1.1104 9.4699 8.04668 26.4195
488 1 -1.1104 6.63486 19.3958 20.7282
484 1 -1.1104 0.976473 19.3797 20.7649
409 1 -1.1104 12.2457 19.3714 23.5171
508 1 -1.1104 3.90794 16.6326 20.6408
503 1 -1.1104 3.84987 19.4411 20.6368
633 1 -1.1104 6.58061 19.5686 26.1498
447 1 -1.1104 6.4207 16.4934 23.4522
501 1 -1.1104 3.74364 13.7669 20.6196
410 2 2.2208 2.4066 15.181 22.1381
411 2 2.2208 2.34052 20.8183 22.2756
412 1 -1.1104 3.73331 16.8096 23.5373
446 1 -1.1104 0.9421 16.5177 23.5722
448 1 -1.1104 3.74814 13.865 26.3223
473 1 -1.1104 3.70344 16.5291 26.335
474 2 2.2208 2.33361 18.0428 24.9549
475 1 -1.1104 3.679 19.368 26.3994
509 2 2.2208 5.09141 18.0862 22.0383
510 1 -1.1104 1.19481 13.6968 23.5182
511 1 -1.1104 0.834218 19.2018 23.4035
537 2 2.2208 5.16678 15.1161 24.8995
538 2 2.2208 5.12654 20.8516 24.8828
564 1 -1.1104 0.955132 13.6433 26.2278
565 1 -1.1104 0.880577 16.4264 26.3886
566 1 -1.1104 0.994661 19.4502 26.2711
595 1 -1.1104 3.90421 13.7081 23.506
598 1 -1.1104 3.7721 19.4907 23.5565
574 2 2.2208 10.7991 15.2169 24.9764
518 1 -1.1104 12.166 19.2959 20.6612
379 1 -1.1104 9.4254 16.6802 26.4895
535 1 -1.1104 9.52088 16.6162 20.8467
634 1 -1.1104 9.58866 13.777 26.2639
575 2 2.2208 10.7899 20.7977 24.9011
602 1 -1.1104 12.2415 16.3877 26.3422
596 1 -1.1104 6.71639 13.8161 26.3066
630 2 2.2208 7.96241 15.2837 22.0574
603 1 -1.1104 9.43473 13.6793 23.507
496 1 -1.1104 6.71135 16.5066 20.5824
486 1 -1.1104 6.61889 13.6522 20.7549
539 1 -1.1104 6.62418 19.2589 23.3581
604 1 -1.1104 9.41542 19.3573 23.6124
9369 2 2.2208 -0.469363 20.7341 13.6658
656 2 2.2208 8.10043 12.3123 13.6838
665 2 2.2208 13.7473 1.04039 19.3214
647 2 2.2208 5.28613 20.7856 13.6873
648 2 2.2208 5.28377 9.57324 13.7827
370 2 2.2208 8.02493 17.8627 13.6507
654 2 2.2208 2.44103 18.0679 13.652
199 2 2.2208 8.13185 9.55514 27.7249
372 2 2.2208 10.6684 20.7947 13.65
9185 2 2.2208 -0.28395 6.78412 27.7875
81 2 2.2208 10.8573 6.7516 27.7752
334 2 2.2208 5.20379 3.88589 13.7878
646 2 2.2208 5.28104 15.0563 13.8254
676 2 2.2208 5.07619 23.443 5.28822
677 2 2.2208 5.27003 29.2004 5.22402
678 1 -1.1104 0.951394 24.9558 1.04107
679 1 -1.1104 1.01685 25.0237 3.8241
680 1 -1.1104 1.00685 22.1883 1.1097
681 1 -1.1104 1.02658 27.7668 0.849952
682 2 2.2208 5.07591 26.3291 2.5964
683 1 -1.1104 0.953145 22.2238 3.78769
684 1 -1.1104 1.08819 27.7027 3.86511
685 1 -1.1104 3.76138 24.937 1.06549
686 2 2.2208 2.37014 23.5737 2.42017
687 2 2.2208 2.35533 29.2096 2.55025
688 1 -1.1104 3.63039 24.8828 3.77845
689 2 2.2208 2.37926 26.382 5.23303
690 1 -1.1104 3.8676 22.2598 0.962483
691 1 -1.1104 3.60657 27.7266 1.13876
692 1 -1.1104 3.73467 22.1652 3.81755
693 1 -1.1104 3.84613 27.8017 3.96022
700 1 -1.1104 6.4967 27.7356 1.09599
9844 2 2.2208 -0.415026 43.1265 8.10969
699 1 -1.1104 6.64589 21.9813 1.14764
701 1 -1.1104 6.67526 22.1583 3.94212
697 1 -1.1104 6.58784 25.0153 1.18116
9856 2 2.2208 -0.342362 40.3026 5.32264
1004 2 2.2208 7.97151 31.9074 -0.41792
967 1 -1.1104 12.2706 38.9839 6.811
698 1 -1.1104 6.49872 24.9329 3.95369
702 1 -1.1104 6.54056 27.7579 3.89072
703 2 2.2208 10.8021 23.6277 5.26032
704 2 2.2208 10.8782 29.197 5.19615
705 1 -1.1104 12.3745 25.0712 1.01879
706 1 -1.1104 12.1609 24.872 3.93445
707 1 -1.1104 12.1734 22.2201 0.968873
708 1 -1.1104 12.1563 27.8462 1.08322
709 2 2.2208 10.8622 26.3526 2.462
710 1 -1.1104 12.3122 22.0783 3.82992
711 1 -1.1104 12.1544 27.8119 3.79345
712 1 -1.1104 9.49097 24.9506 1.0781
713 2 2.2208 7.99083 23.5108 2.49355
714 2 2.2208 7.97009 29.1783 2.39835
715 1 -1.1104 9.41858 24.88 3.88199
716 2 2.2208 8.11417 26.4564 5.36078
717 1 -1.1104 9.46754 22.2726 0.991619
718 1 -1.1104 9.41518 27.607 1.13886
719 1 -1.1104 9.60324 22.0725 3.89292
720 1 -1.1104 9.32047 27.8289 3.87962
822 1 -1.1104 6.72885 27.835 6.6998
855 1 -1.1104 9.47288 27.8889 6.69991
850 1 -1.1104 12.3567 24.967 6.6836
1577 1 -1.1104 3.71933 47.5285 9.50362
966 1 -1.1104 12.3111 44.5529 6.51153
1000 2 2.2208 13.6734 37.5465 5.28899
979 2 2.2208 10.7255 43.1219 8.04616
724 2 2.2208 5.19729 34.8722 5.17305
725 1 -1.1104 0.946268 30.5282 1.16185
726 1 -1.1104 1.05168 36.0256 1.09864
728 1 -1.1104 0.953881 30.4809 4.06033
729 1 -1.1104 0.955057 36.1366 3.97526
731 1 -1.1104 0.866729 33.215 0.900632
732 2 2.2208 5.20507 31.963 2.49417
733 2 2.2208 5.3461 37.6174 2.45777
734 1 -1.1104 0.99613 33.192 3.80106
736 1 -1.1104 3.74651 30.6392 1.09558
737 1 -1.1104 3.86894 36.2088 1.10043
738 2 2.2208 2.38741 34.7219 2.62416
739 1 -1.1104 3.77867 30.5019 3.80772
740 1 -1.1104 3.69828 36.1154 3.85946
741 2 2.2208 2.3347 31.9739 5.37291
742 2 2.2208 2.4195 37.5232 5.27933
743 1 -1.1104 3.58227 33.458 1.12083
744 1 -1.1104 3.64069 33.3362 4.06364
750 1 -1.1104 6.44698 33.2127 1.03181
735 1 -1.1104 6.5391 33.2774 3.80669
748 1 -1.1104 6.55004 30.4035 1.0231
997 1 -1.1104 12.2632 47.3045 6.63052
730 1 -1.1104 6.64327 36.1204 3.87521
727 1 -1.1104 6.59538 36.0998 0.998618
749 1 -1.1104 6.56905 30.5806 3.7797
877 1 -1.1104 6.62377 36.1357 6.57863
769 3 0 10.6838 46.8248 11.5636
876 1 -1.1104 6.6285 30.6124 6.61806
874 1 -1.1104 0.980916 30.4029 6.74856
977 1 -1.1104 12.1493 44.6201 9.17154
975 2 2.2208 8.08399 40.3359 8.11644
973 1 -1.1104 9.45678 41.6054 9.56335
751 2 2.2208 10.922 34.6417 5.31052
752 1 -1.1104 12.2896 30.618 0.893556
753 1 -1.1104 12.4169 36.3233 1.10173
754 1 -1.1104 12.267 30.6186 3.79774
755 1 -1.1104 12.1315 36.0931 3.86298
756 1 -1.1104 12.1476 33.4154 0.984018
757 2 2.2208 10.8498 31.9421 2.42478
758 2 2.2208 10.8276 37.6688 2.55024
759 1 -1.1104 12.2536 33.4039 3.81334
760 1 -1.1104 9.38972 30.4338 0.943707
761 1 -1.1104 9.4628 36.3292 1.0939
762 2 2.2208 8.03315 34.7965 2.44223
763 1 -1.1104 9.36741 30.641 3.88559
764 1 -1.1104 9.41026 36.2355 3.75472
765 2 2.2208 8.0136 31.9021 5.25413
766 2 2.2208 8.1044 37.5234 5.34678
767 1 -1.1104 9.30341 33.2532 1.1002
768 1 -1.1104 9.5107 33.3333 3.83788
909 1 -1.1104 12.2896 36.0408 6.61649
804 1 -1.1104 12.3492 38.9939 3.97613
907 1 -1.1104 9.51758 38.8176 6.73909
722 2 2.2208 13.8672 31.8933 5.23687