ITEM: TIMESTEP
0
ITEM: NUMBER OF ATOMS
17760
ITEM: BOX BOUNDS pp pp pp
-2.7717828229332220e-01 2.7617178282293317e+01
-3.4472205766305355e+00 3.3152722057663055e+02
-2.7717827830221448e-01 2.7617178278302212e+01
ITEM: ATOMS id type q x y z
1 2 2.2208 5.30175 2.10071 5.30099
2 1 -1.1104 1.11748 -2.08652 1.11613
3 1 -1.1104 1.1175 3.48619 1.11715
5 1 -1.1104 6.69637 3.48604 1.11711
6 1 -1.1104 1.11759 -2.08648 3.90557
7 1 -1.1104 1.11761 3.48619 3.90653
10 1 -1.1104 1.11762 0.699817 1.11661
12 2 2.2208 5.30173 -0.685612 2.51113
13 2 2.2208 5.30172 4.88715 2.51216
14 1 -1.1104 1.1175 0.69984 3.90601
15 1 -1.1104 6.6964 0.699598 3.90604
16 1 -1.1104 3.90706 -2.08663 1.11614
17 1 -1.1104 3.90709 3.48612 1.11712
18 2 2.2208 2.51228 2.10089 2.51157
19 1 -1.1104 3.90694 -2.08661 3.9056
20 1 -1.1104 3.90698 3.48608 3.90657
21 2 2.2208 2.51224 -0.685571 5.30049
22 2 2.2208 2.51225 4.88712 5.30157
23 1 -1.1104 3.90696 0.699722 1.11663
24 1 -1.1104 3.90704 0.699738 3.906
166 1 -1.1104 1.11751 -2.08683 6.69503
167 1 -1.1104 1.11752 3.48589 6.69592
168 1 -1.1104 6.69633 -2.08687 6.69506
170 1 -1.1104 1.11753 0.699523 6.69543
172 1 -1.1104 3.90695 -2.0868 6.69504
173 1 -1.1104 3.90703 3.48591 6.69595
174 1 -1.1104 3.90691 0.699571 6.69543
4 1 -1.1104 6.69642 -2.08674 1.11624
8 1 -1.1104 6.69646 -2.08677 3.90562
9 1 -1.1104 6.69653 3.48595 3.90654
11 1 -1.1104 6.69649 0.699618 1.11661
31 2 2.2208 10.8806 2.10045 5.30094
32 1 -1.1104 12.2752 -2.08684 1.11622
33 1 -1.1104 12.2752 3.48588 1.11706
34 1 -1.1104 12.2753 -2.08697 3.90563
35 1 -1.1104 12.2753 3.48576 3.90652
36 1 -1.1104 12.2753 0.699515 1.11659
37 2 2.2208 10.8806 -0.685785 2.51112
38 2 2.2208 10.8805 4.88698 2.51219
39 1 -1.1104 12.2753 0.699393 3.90598
40 1 -1.1104 9.48591 -2.08682 1.11621
41 1 -1.1104 9.48591 3.48598 1.11708
42 2 2.2208 8.09118 2.10069 2.51155
43 1 -1.1104 9.48583 -2.08688 3.90566
44 1 -1.1104 9.48581 3.4859 3.90655
45 2 2.2208 8.09113 -0.685814 5.30051
46 2 2.2208 8.09115 4.88691 5.30165
47 1 -1.1104 9.48582 0.699563 1.11661
48 1 -1.1104 9.4859 0.69949 3.90599
136 2 2.2208 13.67 -0.685987 5.30049
169 1 -1.1104 6.69642 3.48574 6.69602
171 1 -1.1104 6.69643 0.699442 6.69543
202 2 2.2208 13.67 2.10059 2.51152
205 1 -1.1104 12.2752 -2.08718 6.69505
206 1 -1.1104 12.2752 3.4855 6.69602
207 1 -1.1104 12.2753 0.699173 6.69536
208 1 -1.1104 9.48584 -2.08708 6.69506
209 1 -1.1104 9.48591 3.48559 6.69599
210 1 -1.1104 9.48582 0.699281 6.69542
232 2 2.2208 13.67 4.8867 5.30165
54 2 2.2208 5.3016 7.67334 5.30226
55 2 2.2208 5.30158 13.2461 5.30366
56 1 -1.1104 1.11743 9.05913 1.1185
57 1 -1.1104 6.69624 9.05888 1.11851
58 1 -1.1104 1.11757 9.05899 3.90786
59 1 -1.1104 6.69633 9.0587 3.90785
60 1 -1.1104 1.11761 6.27263 1.11775
61 1 -1.1104 1.11756 11.8458 1.11925
64 1 -1.1104 6.69636 11.8454 1.1192
66 2 2.2208 5.3016 10.46 2.51354
67 1 -1.1104 1.11749 6.2726 3.9072
68 1 -1.1104 1.11742 11.8455 3.90862
69 1 -1.1104 6.69634 6.27233 3.90724
70 1 -1.1104 6.69622 11.8451 3.90854
71 1 -1.1104 3.90697 9.05902 1.11847
72 2 2.2208 2.51224 7.67365 2.51285
73 2 2.2208 2.51214 13.2467 2.51431
74 1 -1.1104 3.90685 9.05888 3.90786
75 2 2.2208 2.51214 10.4599 5.30294
76 1 -1.1104 3.90688 6.27256 1.11778
77 1 -1.1104 3.90677 11.8456 1.11926
79 1 -1.1104 3.90704 6.27243 3.90718
80 1 -1.1104 3.90687 11.8453 3.90853
311 2 2.2208 5.30156 13.2467 -0.27496
315 2 2.2208 2.51218 10.4602 -0.27578
327 2 2.2208 5.30163 7.6736 -0.276556
28 2 2.2208 13.67 10.4593 5.30296
63 1 -1.1104 6.69646 6.27246 1.11775
81 2 2.2208 10.8805 7.67329 -0.276502
84 2 2.2208 10.8805 7.67311 5.30234
85 2 2.2208 10.8805 13.2457 5.30365
86 1 -1.1104 12.2752 9.05854 1.1186
87 1 -1.1104 12.2753 9.0584 3.90795
88 1 -1.1104 12.2753 6.27219 1.11784
89 1 -1.1104 12.2753 11.845 1.11924
91 2 2.2208 10.8805 10.4597 2.51361
92 1 -1.1104 12.2752 6.27207 3.9073
93 1 -1.1104 12.2752 11.8447 3.90853
94 1 -1.1104 9.48584 9.05876 1.11852
95 2 2.2208 8.09105 7.67345 2.51289
96 2 2.2208 8.091 13.2463 2.51431
97 1 -1.1104 9.48572 9.05855 3.90795
98 2 2.2208 8.091 10.4595 5.30292
99 1 -1.1104 9.48571 6.27235 1.11782
100 1 -1.1104 9.48566 11.8453 1.11926
102 1 -1.1104 9.48587 6.27225 3.90725
103 1 -1.1104 9.48576 11.8449 3.90849
199 2 2.2208 8.09105 10.4599 -0.275769
203 2 2.2208 10.8805 13.2463 -0.274931
319 2 2.2208 13.67 10.4596 -0.275712
320 2 2.2208 13.67 13.246 2.51434
326 2 2.2208 13.67 7.67321 2.51295
106 2 2.2208 5.30163 18.819 5.30547
107 1 -1.1104 1.11739 14.6325 1.12003
109 1 -1.1104 1.11738 20.2064 1.12215
110 1 -1.1104 6.69618 14.6321 1.12009
113 1 -1.1104 1.11752 14.6321 3.90931
114 1 -1.1104 1.11752 20.2057 3.91121
115 1 -1.1104 6.6963 14.6316 3.90932
116 1 -1.1104 1.11758 17.4193 1.12094
119 2 2.2208 5.30158 16.0331 2.51522
120 2 2.2208 5.3017 21.6066 2.51734
121 1 -1.1104 1.11746 17.4189 3.91018
122 1 -1.1104 6.69626 17.4182 3.91029
123 1 -1.1104 3.90692 14.6323 1.12004
125 1 -1.1104 3.90698 20.2061 1.12204
127 2 2.2208 2.51223 18.8201 2.5162
128 1 -1.1104 3.90681 14.6318 3.90936
129 1 -1.1104 3.90682 20.2054 3.91123
130 2 2.2208 2.51218 16.0328 5.30449
131 2 2.2208 2.51224 21.6061 5.30659
132 1 -1.1104 3.90676 17.4191 1.12102
134 1 -1.1104 3.9069 17.4185 3.91019
138 1 -1.1104 6.6962 20.2056 1.12207
139 1 -1.1104 6.6963 20.2048 3.9111
140 1 -1.1104 6.69636 17.4187 1.12102
318 2 2.2208 2.51222 21.6073 -0.27175
323 2 2.2208 5.30162 18.82 -0.273018
324 2 2.2208 2.51218 16.0335 -0.274082
29 2 2.2208 13.67 21.6063 -0.271814
52 2 2.2208 13.67 16.0328 -0.274055
141 2 2.2208 10.8806 18.8184 5.30557
142 1 -1.1104 12.2752 14.6316 1.12006
144 1 -1.1104 12.2752 20.205 1.12207
146 1 -1.1104 12.2753 14.6312 3.90935
147 1 -1.1104 12.2753 20.2041 3.91126
148 1 -1.1104 12.2754 17.4183 1.12105
150 2 2.2208 10.8805 16.0326 2.51524
151 2 2.2208 10.8806 21.6059 2.51738
152 1 -1.1104 12.2752 17.4176 3.91031
153 1 -1.1104 9.48582 14.6318 1.12005
155 1 -1.1104 9.48589 20.2052 1.122
157 2 2.2208 8.0911 18.8195 2.51621
158 1 -1.1104 9.48568 14.6314 3.90935
159 1 -1.1104 9.48576 20.2043 3.91123
160 2 2.2208 8.09104 16.0322 5.30458
161 2 2.2208 8.09115 21.605 5.30655
162 1 -1.1104 9.48569 17.4185 1.12105
164 1 -1.1104 9.4858 17.4178 3.91029
317 2 2.2208 8.09107 16.0331 -0.274053
321 2 2.2208 13.67 18.8191 2.51627
322 2 2.2208 8.09111 21.6066 -0.271827
325 2 2.2208 10.8806 18.8195 -0.273002
329 2 2.2208 13.67 16.032 5.30461
330 2 2.2208 13.67 21.6047 5.30672
175 2 2.2208 5.3017 2.10017 10.8799
176 1 -1.1104 1.11749 -2.08723 12.274
177 1 -1.1104 1.1175 3.48533 12.2747
178 1 -1.1104 6.6964 -2.08728 12.2739
180 1 -1.1104 1.11756 -2.08711 9.48447
181 1 -1.1104 1.11758 3.48557 9.48528
182 1 -1.1104 6.69639 -2.08717 9.48445
184 1 -1.1104 1.11755 0.699049 12.2743
186 2 2.2208 5.30164 -0.685885 8.08995
187 2 2.2208 5.30171 4.88672 8.09103
188 1 -1.1104 1.11749 0.699232 9.48488
189 1 -1.1104 6.69635 0.699177 9.48489
190 1 -1.1104 3.90702 -2.08722 12.274
191 1 -1.1104 3.90705 3.48534 12.2748
192 2 2.2208 2.51224 2.10045 8.09039
193 1 -1.1104 3.90688 -2.08709 9.48449
194 1 -1.1104 3.90696 3.48551 9.48536
195 2 2.2208 2.5122 -0.686096 10.8795
196 2 2.2208 2.51225 4.88654 10.8804
197 1 -1.1104 3.90693 0.69905 12.2744
198 1 -1.1104 3.90694 0.699224 9.48493
334 2 2.2208 5.30172 4.88631 13.6699
335 2 2.2208 2.51227 2.10009 13.6693
336 2 2.2208 5.30174 -0.68623 13.6689
179 1 -1.1104 6.69642 3.48521 12.2749
183 1 -1.1104 6.69649 3.48548 9.48542
185 1 -1.1104 6.69648 0.698973 12.2743
211 2 2.2208 10.8806 2.10008 10.8799
212 1 -1.1104 12.2752 -2.08735 12.2739
213 1 -1.1104 12.2752 3.48525 12.2749
214 1 -1.1104 12.2753 -2.08728 9.48444
215 1 -1.1104 12.2754 3.48529 9.48544
216 1 -1.1104 12.2754 0.699006 12.2743
217 2 2.2208 10.8806 -0.686083 8.08989
218 2 2.2208 10.8806 4.88656 8.09112
219 1 -1.1104 12.2753 0.699021 9.4848
220 1 -1.1104 9.48591 -2.0874 12.2739
221 1 -1.1104 9.48597 3.48519 12.2749
222 2 2.2208 8.09116 2.10032 8.09046
223 1 -1.1104 9.48579 -2.08723 9.48447
224 1 -1.1104 9.48585 3.48537 9.48545
225 2 2.2208 8.09114 -0.686196 10.8794
226 2 2.2208 8.09118 4.88639 10.8806
227 1 -1.1104 9.48584 0.698914 12.2743
228 1 -1.1104 9.48591 0.699048 9.48486
231 2 2.2208 13.67 4.88634 10.8806
313 2 2.2208 13.67 2.10018 8.0904
314 2 2.2208 13.67 -0.686203 10.8794
331 2 2.2208 10.8806 -0.686276 13.6688
332 2 2.2208 13.67 2.10008 13.6694
333 2 2.2208 8.09122 2.09998 13.6694
62 1 -1.1104 1.11753 11.8451 6.69801
65 1 -1.1104 6.69629 11.8446 6.69791
78 1 -1.1104 3.90681 11.8449 6.69798
234 1 -1.1104 1.11745 9.05871 6.69732
235 1 -1.1104 6.69625 9.0583 6.69731
236 1 -1.1104 1.11758 6.27231 6.69657
238 1 -1.1104 3.90692 9.05854 6.69725
239 1 -1.1104 3.90693 6.27221 6.69664
240 2 2.2208 5.30159 7.67272 10.8811
241 2 2.2208 5.3016 13.2453 10.8826
242 1 -1.1104 1.11743 9.05791 12.2762
243 1 -1.1104 6.69618 9.05778 12.2762
244 1 -1.1104 1.11754 9.05829 9.48673
245 1 -1.1104 6.69631 9.05791 9.4867
246 1 -1.1104 1.1176 6.27165 12.2754
247 1 -1.1104 1.11755 11.8441 12.2769
249 1 -1.1104 6.69631 11.8439 12.2769
250 2 2.2208 5.30156 10.4593 8.09238
251 1 -1.1104 1.11749 6.27196 9.48596
252 1 -1.1104 1.11747 11.8447 9.48745
253 1 -1.1104 6.69633 6.27167 9.48614
254 1 -1.1104 6.69621 11.8442 9.48741
255 1 -1.1104 3.90693 9.05788 12.2762
256 2 2.2208 2.51224 7.67317 8.09167
257 2 2.2208 2.51219 13.2459 8.09311
258 1 -1.1104 3.90682 9.05814 9.48676
259 2 2.2208 2.51217 10.4591 10.8818
260 1 -1.1104 3.90691 6.27159 12.2755
261 1 -1.1104 3.9068 11.8441 12.2769
262 1 -1.1104 3.907 6.27182 9.486
263 1 -1.1104 3.90691 11.8445 9.4874
26 2 2.2208 13.67 10.4587 10.8819
90 1 -1.1104 12.2753 11.8443 6.6979
101 1 -1.1104 9.4857 11.8444 6.69792
135 2 2.2208 13.67 7.67281 8.09182
237 1 -1.1104 6.69641 6.27203 6.69665
248 1 -1.1104 6.69645 6.27153 12.2755
264 1 -1.1104 9.48575 11.844 9.48738
265 1 -1.1104 12.2752 9.0581 6.69735
266 1 -1.1104 12.2753 6.27184 6.69673
267 1 -1.1104 9.48578 9.05816 6.69733
268 1 -1.1104 9.48588 6.27164 9.48619
269 1 -1.1104 9.4858 6.27189 6.69675
270 1 -1.1104 9.48561 11.8438 12.2769
271 1 -1.1104 9.48576 6.27148 12.2757
272 2 2.2208 8.09095 10.4588 10.8819
273 1 -1.1104 9.48566 9.05785 9.48679
274 2 2.2208 8.09103 13.2454 8.0931
275 2 2.2208 8.09108 7.67285 8.09176
276 2 2.2208 10.8805 7.6726 10.8812
277 2 2.2208 10.8805 13.2448 10.8825
278 1 -1.1104 12.2751 9.05756 12.2763
279 1 -1.1104 12.2753 9.05777 9.48679
280 1 -1.1104 12.2754 6.27146 12.2757
281 1 -1.1104 12.2753 11.8436 12.2768
282 2 2.2208 10.8805 10.459 8.09237
283 1 -1.1104 12.2752 6.2716 9.48624
284 1 -1.1104 12.2752 11.8438 9.48736
285 1 -1.1104 9.48573 9.05764 12.2762
316 2 2.2208 13.67 13.2451 8.09308
108 1 -1.1104 1.11748 14.6315 6.69873
111 1 -1.1104 6.69627 14.6309 6.69874
112 1 -1.1104 6.69625 20.2035 6.70049
117 1 -1.1104 1.11752 17.418 6.69947
118 1 -1.1104 6.69632 17.4172 6.69954
124 1 -1.1104 3.90692 14.6313 6.6987
126 1 -1.1104 3.90683 20.2041 6.7004
133 1 -1.1104 3.90687 17.4177 6.69956
286 1 -1.1104 3.90683 20.2021 12.2796
287 1 -1.1104 3.90697 14.6302 12.2777
288 1 -1.1104 6.69623 20.2022 9.48992
289 1 -1.1104 6.69628 17.4163 9.48915
290 1 -1.1104 6.69639 14.6304 9.48819
291 1 -1.1104 1.11746 20.2034 9.48993
292 1 -1.1104 1.11747 17.4172 9.48897
293 2 2.2208 5.30161 21.6043 8.09586
294 1 -1.1104 1.11754 14.631 9.48816
295 2 2.2208 5.30167 16.0319 8.09392
296 1 -1.1104 6.69619 20.2015 12.2797
297 1 -1.1104 6.69624 14.6299 12.2778
298 1 -1.1104 1.11738 20.2026 12.2796
299 1 -1.1104 1.11747 14.6304 12.2777
300 2 2.2208 5.30163 18.8173 10.8844
301 1 -1.1104 3.90679 20.203 9.48999
302 1 -1.1104 1.11749 20.2047 6.7005
303 2 2.2208 2.51224 18.8185 8.09482
304 1 -1.1104 3.9069 17.4169 9.48899
305 1 -1.1104 3.90686 14.6307 9.48821
306 1 -1.1104 6.6964 17.4159 12.2787
307 1 -1.1104 1.11755 17.4165 12.2785
308 1 -1.1104 3.90683 17.4162 12.2787
309 2 2.2208 2.51216 21.6038 10.8854
310 2 2.2208 2.51224 16.0317 10.8834
25 2 2.2208 13.67 16.0307 10.8836
27 2 2.2208 10.8806 18.8168 10.8846
30 1 -1.1104 12.2752 14.6295 12.2778
49 1 -1.1104 12.2752 20.2011 12.28
50 1 -1.1104 12.2753 14.6299 9.48818
51 2 2.2208 13.67 21.6025 10.8857
53 1 -1.1104 12.2753 20.2017 9.49025
82 1 -1.1104 12.2754 17.4154 12.2789
83 2 2.2208 10.8805 16.0314 8.094
104 2 2.2208 10.8806 21.6035 8.09605
105 1 -1.1104 12.2752 17.4158 9.48929
137 1 -1.1104 9.48588 14.6298 12.2778
143 1 -1.1104 12.2752 14.6305 6.69872
145 1 -1.1104 12.2753 20.2028 6.70067
149 1 -1.1104 12.2753 17.4167 6.6997
154 1 -1.1104 9.48577 14.6306 6.69872
156 1 -1.1104 9.48574 20.203 6.70051
163 1 -1.1104 9.48574 17.4168 6.69968
165 1 -1.1104 9.48585 20.2012 12.2798
200 2 2.2208 8.09112 18.8177 8.09493
201 1 -1.1104 9.48571 14.6301 9.48823
204 1 -1.1104 9.48573 20.2017 9.49014
229 2 2.2208 8.09108 16.0311 10.8835
230 2 2.2208 8.0911 21.6027 10.8854
233 1 -1.1104 9.48574 17.4156 12.2789
312 1 -1.1104 9.48585 17.416 9.48918
328 2 2.2208 13.67 18.8173 8.09513
337 2 2.2208 5.30176 2.10008 16.4588
338 1 -1.1104 1.11753 -2.08716 17.8529
339 1 -1.1104 1.11745 3.48543 17.8537
341 1 -1.1104 6.69637 3.4854 17.8538
342 1 -1.1104 1.11762 -2.08724 15.0635
343 1 -1.1104 1.11766 -2.08692 20.6422
344 1 -1.1104 1.1176 3.48525 15.0642
345 1 -1.1104 1.11761 3.4857 20.6432
350 1 -1.1104 1.11763 0.699148 17.8533
352 2 2.2208 5.30181 -0.68603 19.2477
353 2 2.2208 5.30169 4.88666 19.2488
354 1 -1.1104 1.1175 0.699055 15.0638
355 1 -1.1104 1.11748 0.699401 20.6427
358 1 -1.1104 3.90714 -2.08719 17.8528
359 1 -1.1104 3.90708 3.48541 17.8537
360 2 2.2208 2.51227 2.10033 19.2482
361 1 -1.1104 3.90699 -2.08722 15.0634
362 1 -1.1104 3.907 -2.0869 20.6422
363 1 -1.1104 3.90694 3.48528 15.0643
364 1 -1.1104 3.90688 3.48571 20.6432
365 2 2.2208 2.5123 -0.686112 16.4583
366 2 2.2208 2.51226 4.88641 16.4593
367 1 -1.1104 3.90699 0.699101 17.8533
368 1 -1.1104 3.90707 0.699081 15.0638
369 1 -1.1104 3.90712 0.699381 20.6427
340 1 -1.1104 6.69644 -2.08727 17.8528
346 1 -1.1104 6.69655 -2.08737 15.0634
347 1 -1.1104 6.6966 -2.08701 20.6422
348 1 -1.1104 6.69654 3.48522 15.0643
349 1 -1.1104 6.69651 3.48566 20.6431
351 1 -1.1104 6.69659 0.699043 17.8532
356 1 -1.1104 6.69643 0.698905 15.0638
357 1 -1.1104 6.69642 0.699339 20.6427
380 2 2.2208 10.8806 2.10005 16.4589
381 1 -1.1104 12.2753 -2.08747 17.8528
382 1 -1.1104 12.2752 3.48531 17.8539
383 1 -1.1104 12.2753 -2.08745 15.0633
384 1 -1.1104 12.2754 -2.0873 20.6422
385 1 -1.1104 12.2754 3.48522 15.0644
386 1 -1.1104 12.2754 3.4855 20.6433
387 1 -1.1104 12.2754 0.698936 17.8533
388 2 2.2208 10.8806 -0.686181 19.2477
389 2 2.2208 10.8806 4.88657 19.2489
390 1 -1.1104 12.2752 0.698928 15.0638
391 1 -1.1104 12.2752 0.69912 20.6427
392 1 -1.1104 9.48602 -2.08736 17.8528
393 1 -1.1104 9.48599 3.48536 17.8538
394 2 2.2208 8.09121 2.10026 19.2482
395 1 -1.1104 9.48588 -2.08744 15.0633
396 1 -1.1104 9.48586 -2.0871 20.6423
397 1 -1.1104 9.48581 3.48517 15.0644
398 1 -1.1104 9.48577 3.48561 20.6432
399 2 2.2208 8.09125 -0.686273 16.4583
400 2 2.2208 8.09119 4.8864 16.4594
401 1 -1.1104 9.48587 0.699 17.8533
402 1 -1.1104 9.48599 0.698926 15.0638
403 1 -1.1104 9.48598 0.699295 20.6427
644 2 2.2208 10.8806 4.88628 13.6701
661 2 2.2208 13.67 4.88637 16.4596
664 2 2.2208 13.67 -0.686327 16.4583
665 2 2.2208 13.67 2.10015 19.2483
413 2 2.2208 5.30165 7.67269 16.46
414 2 2.2208 5.30165 13.2451 16.4617
415 1 -1.1104 1.11741 9.058 17.8552
416 1 -1.1104 6.69626 9.05793 17.8552
417 1 -1.1104 1.11759 9.0578 15.0657
419 1 -1.1104 6.69638 9.05777 15.0657
421 1 -1.1104 1.11766 6.27172 17.8544
422 1 -1.1104 1.11763 11.8443 17.856
425 2 2.2208 5.30166 10.4592 19.2504
426 1 -1.1104 1.11746 6.27152 15.0649
428 1 -1.1104 1.11741 11.844 15.0665
430 1 -1.1104 6.69631 6.2715 15.065
432 1 -1.1104 6.69616 11.8439 15.0665
434 1 -1.1104 3.90706 9.05795 17.8552
435 2 2.2208 2.51226 7.67295 19.2495
436 2 2.2208 2.51225 13.2455 19.2512
437 1 -1.1104 3.90678 9.05777 15.0657
439 2 2.2208 2.51222 10.4589 16.4608
440 1 -1.1104 3.90688 6.2717 17.8544
441 1 -1.1104 3.9068 11.8441 17.856
442 1 -1.1104 3.90707 6.27154 15.0649
444 1 -1.1104 3.90695 11.844 15.0665
642 2 2.2208 2.51222 7.67266 13.6705
648 2 2.2208 5.30156 10.4589 13.6713
649 2 2.2208 2.51221 13.2451 13.6721
405 2 2.2208 13.67 7.67252 13.6708
423 1 -1.1104 6.69652 6.27171 17.8544
424 1 -1.1104 6.69648 11.8441 17.856
449 2 2.2208 10.8805 7.67265 16.4602
450 2 2.2208 10.8805 13.2449 16.4617
451 1 -1.1104 12.2752 9.05792 17.8552
452 1 -1.1104 12.2753 9.05762 15.0658
454 1 -1.1104 12.2754 6.27167 17.8546
455 1 -1.1104 12.2754 11.844 17.856
456 2 2.2208 10.8806 10.4591 19.2503
457 1 -1.1104 12.2752 6.27146 15.0652
459 1 -1.1104 12.2751 11.8437 15.0664
461 1 -1.1104 9.48593 9.05795 17.8552
462 2 2.2208 8.09113 7.67291 19.2495
463 2 2.2208 8.09109 13.2453 19.2513
464 1 -1.1104 9.48565 9.05766 15.0657
466 2 2.2208 8.09104 10.4589 16.4608
467 1 -1.1104 9.48575 6.27165 17.8545
468 1 -1.1104 9.48566 11.8441 17.856
469 1 -1.1104 9.4859 6.27146 15.0651
471 1 -1.1104 9.48583 11.8438 15.0664
651 2 2.2208 13.67 13.2446 13.6721
652 2 2.2208 13.67 10.4588 16.4608
655 2 2.2208 10.8804 10.4587 13.6713
656 2 2.2208 8.09102 13.2449 13.6721
658 2 2.2208 8.09103 7.67257 13.6707
659 2 2.2208 13.67 13.2453 19.2512
660 2 2.2208 13.67 7.6729 19.2496
476 2 2.2208 5.30164 18.8171 16.4637
477 1 -1.1104 1.11738 14.6304 17.8568
478 1 -1.1104 1.11724 20.2027 17.8591
479 1 -1.1104 6.69623 14.6302 17.857
480 1 -1.1104 6.69605 20.202 17.8592
481 1 -1.1104 1.11761 14.6301 15.0672
483 1 -1.1104 1.11757 20.2022 15.0694
487 1 -1.1104 6.6964 20.2014 15.0694
489 1 -1.1104 1.11767 17.4166 17.8578
491 2 2.2208 5.30164 16.0315 19.2522
492 2 2.2208 5.3016 21.6037 19.2544
493 1 -1.1104 1.11737 17.4162 15.0682
495 1 -1.1104 6.69622 17.4157 15.0685
497 1 -1.1104 3.90706 14.6303 17.8569
498 1 -1.1104 3.90698 20.2024 17.8591
499 2 2.2208 2.5122 18.8179 19.2532
500 1 -1.1104 3.90682 14.63 15.0673
502 1 -1.1104 3.90666 20.2019 15.0694
504 2 2.2208 2.51222 16.0313 16.4625
505 2 2.2208 2.51216 21.6032 16.4647
506 1 -1.1104 3.9067 17.4164 17.858
507 1 -1.1104 3.907 17.4161 15.0683
646 2 2.2208 5.30167 16.0311 13.6731
647 2 2.2208 5.30159 21.6027 13.675
654 2 2.2208 2.51221 18.8172 13.674
370 2 2.2208 8.09112 18.8167 13.6741
372 2 2.2208 10.8806 21.6024 13.6752
376 2 2.2208 13.67 18.8176 19.2533
407 2 2.2208 13.67 21.6029 16.4649
485 1 -1.1104 6.69646 14.6299 15.0674
490 1 -1.1104 6.6965 17.4162 17.8581
512 2 2.2208 10.8806 18.8169 16.4638
513 1 -1.1104 12.2751 14.6301 17.8569
514 1 -1.1104 12.2751 20.2021 17.8592
515 1 -1.1104 12.2754 14.6296 15.0674
517 1 -1.1104 12.2754 20.2016 15.0697
519 1 -1.1104 12.2755 17.4161 17.8581
520 2 2.2208 10.8806 16.0314 19.2523
521 2 2.2208 10.8806 21.6036 19.2544
522 1 -1.1104 12.2751 17.4156 15.0685
524 1 -1.1104 9.48598 14.6301 17.857
525 1 -1.1104 9.48596 20.2019 17.8592
526 2 2.2208 8.09106 18.8175 19.2533
527 1 -1.1104 9.48568 14.6297 15.0674
529 1 -1.1104 9.48567 20.2012 15.0696
531 2 2.2208 8.09113 16.031 16.4627
532 2 2.2208 8.09113 21.6026 16.4648
533 1 -1.1104 9.48565 17.4161 17.8582
534 1 -1.1104 9.48597 17.4156 15.0685
600 2 2.2208 13.67 16.0309 16.4627
643 2 2.2208 13.67 18.8166 13.6742
645 2 2.2208 10.8806 16.0307 13.6731
540 2 2.2208 5.30172 2.10057 22.0376
541 1 -1.1104 1.11751 -2.08672 23.4316
542 1 -1.1104 1.11744 3.48591 23.4327
544 1 -1.1104 6.69627 3.48593 23.4326
545 1 -1.1104 1.11763 -2.0867 26.221
546 1 -1.1104 1.11761 3.48606 26.2221
549 1 -1.1104 1.11761 0.699591 23.4321
551 2 2.2208 5.30173 -0.68566 24.8266
552 2 2.2208 5.30162 4.88707 24.8277
553 1 -1.1104 1.11748 0.699636 26.2216
554 1 -1.1104 6.69638 0.699586 26.2215
555 1 -1.1104 3.90712 -2.08678 23.4317
556 1 -1.1104 3.907 3.48593 23.4326
557 2 2.2208 2.51224 2.1007 24.8271
558 1 -1.1104 3.90698 -2.08668 26.2211
559 1 -1.1104 3.90689 3.48604 26.2221
560 2 2.2208 2.51231 -0.685764 22.0372
561 2 2.2208 2.51222 4.88689 22.0382
562 1 -1.1104 3.90693 0.699586 23.4321
563 1 -1.1104 3.90706 0.699681 26.2215
673 2 2.2208 2.51229 -0.685548 27.616
674 2 2.2208 5.30172 2.10073 27.6165
675 2 2.2208 2.51226 4.88719 27.6172
543 1 -1.1104 6.69643 -2.08675 23.4317
547 1 -1.1104 6.69652 -2.08672 26.2211
548 1 -1.1104 6.69643 3.486 26.222
550 1 -1.1104 6.6965 0.699582 23.4321
576 2 2.2208 10.8806 2.10037 22.0377
577 1 -1.1104 12.2752 -2.08697 23.4317
578 1 -1.1104 12.2752 3.48563 23.4327
579 1 -1.1104 12.2753 -2.08682 26.2212
580 1 -1.1104 12.2754 3.4858 26.222
581 1 -1.1104 12.2754 0.699348 23.4322
582 2 2.2208 10.8806 -0.685808 24.8267
583 2 2.2208 10.8805 4.88684 24.8277
584 1 -1.1104 12.2752 0.699477 26.2216
585 1 -1.1104 9.48596 -2.0869 23.4317
586 1 -1.1104 9.48588 3.48575 23.4326
587 2 2.2208 8.09111 2.10063 24.8271
588 1 -1.1104 9.48582 -2.08682 26.2212
589 1 -1.1104 9.48574 3.48586 26.222
590 2 2.2208 8.09121 -0.685829 22.0372
591 2 2.2208 8.09112 4.88682 22.0382
592 1 -1.1104 9.4858 0.699412 23.4321
593 1 -1.1104 9.48589 0.699516 26.2215
653 2 2.2208 13.67 -0.685997 22.0372
657 2 2.2208 13.67 2.10051 24.8271
663 2 2.2208 13.67 4.88665 22.0383
668 2 2.2208 8.09117 -0.685707 27.6161
669 2 2.2208 13.67 4.88693 27.6171
670 2 2.2208 10.8806 2.10061 27.6165
671 2 2.2208 8.09109 4.88708 27.6171
672 2 2.2208 13.67 -0.685781 27.6161
418 1 -1.1104 1.11765 9.05836 20.6447
427 1 -1.1104 1.11742 6.27199 20.6439
429 1 -1.1104 1.11739 11.8447 20.6455
431 1 -1.1104 6.6963 6.27193 20.6438
433 1 -1.1104 6.69626 11.8445 20.6456
438 1 -1.1104 3.90683 9.05836 20.6447
443 1 -1.1104 3.90708 6.27203 20.6438
445 1 -1.1104 3.90711 11.8446 20.6455
605 2 2.2208 5.30168 7.67321 22.039
606 2 2.2208 5.30167 13.2459 22.0407
607 1 -1.1104 1.11741 9.05872 23.4341
608 1 -1.1104 6.69627 9.05858 23.4341
609 1 -1.1104 1.11764 9.05897 26.2235
611 1 -1.1104 1.11762 6.27229 23.4333
612 1 -1.1104 1.11766 11.8452 23.4349
615 2 2.2208 5.30166 10.4599 24.8292
616 1 -1.1104 1.11742 6.27248 26.2227
617 1 -1.1104 1.11739 11.8456 26.2243
618 1 -1.1104 6.69625 6.27245 26.2227
619 1 -1.1104 6.69623 11.8454 26.2243
620 1 -1.1104 3.90707 9.05868 23.4341
621 2 2.2208 2.51222 7.67349 24.8284
622 2 2.2208 2.51221 13.2465 24.8301
623 1 -1.1104 3.90682 9.05895 26.2235
624 2 2.2208 2.51225 10.4596 22.0398
625 1 -1.1104 3.90682 6.27231 23.4333
626 1 -1.1104 3.90682 11.8451 23.435
627 1 -1.1104 3.907 6.27247 26.2227
628 1 -1.1104 3.90704 11.8455 26.2243
373 1 -1.1104 12.2752 11.845 26.2243
374 1 -1.1104 12.2752 6.2721 26.2228
375 2 2.2208 10.8805 10.4596 24.8293
377 1 -1.1104 12.2754 11.8447 23.435
378 1 -1.1104 12.2754 6.27194 23.4334
420 1 -1.1104 6.69655 9.05824 20.6447
453 1 -1.1104 12.2754 9.0582 20.6447
458 1 -1.1104 12.2752 6.27187 20.644
460 1 -1.1104 12.2752 11.8444 20.6455
465 1 -1.1104 9.48576 9.05822 20.6447
470 1 -1.1104 9.48594 6.27193 20.6439
472 1 -1.1104 9.48599 11.8445 20.6455
567 1 -1.1104 12.2753 9.0585 26.2236
569 2 2.2208 10.8806 13.2457 22.0407
570 2 2.2208 10.8806 7.67307 22.039
571 2 2.2208 8.09107 7.67335 24.8284
597 1 -1.1104 12.2752 9.05835 23.4341
599 2 2.2208 8.09108 13.2462 24.8301
610 1 -1.1104 6.69645 9.05891 26.2235
613 1 -1.1104 6.69645 6.27224 23.4333
614 1 -1.1104 6.69655 11.845 23.435
631 1 -1.1104 9.48595 9.05843 23.4341
636 1 -1.1104 9.48591 11.8452 26.2243
637 1 -1.1104 9.48588 6.27224 26.2227
638 1 -1.1104 9.48572 11.8448 23.435
639 1 -1.1104 9.48569 6.2721 23.4333
640 2 2.2208 8.09116 10.4595 22.0398
641 1 -1.1104 9.48568 9.05864 26.2235
650 2 2.2208 13.67 10.4594 22.0398
666 2 2.2208 13.67 7.67311 24.8285
667 2 2.2208 13.67 13.246 24.8301
410 2 2.2208 2.5122 16.0324 22.0416
411 2 2.2208 2.51219 21.6053 22.0439
412 1 -1.1104 3.90664 17.4182 23.4369
446 1 -1.1104 1.11769 17.4184 23.4368
448 1 -1.1104 3.90673 14.6322 26.2252
473 1 -1.1104 3.90702 17.4189 26.2261
474 2 2.2208 2.51219 18.8198 24.8321
475 1 -1.1104 3.90666 20.2059 26.2273
482 1 -1.1104 1.11768 14.631 20.6463
484 1 -1.1104 1.11773 20.2038 20.6487
494 1 -1.1104 1.11728 17.4174 20.6474
496 1 -1.1104 6.69609 17.4169 20.6476
501 1 -1.1104 3.90675 14.6309 20.6465
503 1 -1.1104 3.90654 20.2034 20.6487
508 1 -1.1104 3.90706 17.4172 20.6475
509 2 2.2208 5.30162 18.8186 22.0427
510 1 -1.1104 1.11733 14.6318 23.4358
511 1 -1.1104 1.1172 20.2052 23.4381
536 1 -1.1104 6.69618 14.6314 23.436
537 2 2.2208 5.30161 16.0329 24.831
538 2 2.2208 5.30167 21.6062 24.8333
539 1 -1.1104 6.69603 20.2044 23.4381
564 1 -1.1104 1.11762 14.6323 26.2251
565 1 -1.1104 1.11731 17.4192 26.2261
566 1 -1.1104 1.1177 20.2062 26.2274
594 1 -1.1104 6.69614 17.4187 26.2262
595 1 -1.1104 3.90706 14.6316 23.4359
598 1 -1.1104 3.90708 20.2048 23.4381
371 2 2.2208 13.67 16.032 22.0417
379 1 -1.1104 9.48593 17.4184 26.2262
404 2 2.2208 10.8806 18.8184 22.0428
406 2 2.2208 13.67 21.6047 22.0439
408 1 -1.1104 12.2751 14.6311 23.4359
409 1 -1.1104 12.275 20.2042 23.4381
447 1 -1.1104 6.6965 17.4179 23.4369
486 1 -1.1104 6.69654 14.6307 20.6465
488 1 -1.1104 6.69647 20.2031 20.6487
516 1 -1.1104 12.2754 14.6306 20.6465
518 1 -1.1104 12.2755 20.2031 20.6488
523 1 -1.1104 12.2751 17.4169 20.6476
528 1 -1.1104 9.48565 14.6306 20.6465
530 1 -1.1104 9.48551 20.203 20.6488
535 1 -1.1104 9.48598 17.4168 20.6476
568 1 -1.1104 12.2754 14.6316 26.2252
572 1 -1.1104 12.2754 20.205 26.2273
573 1 -1.1104 12.2754 17.4176 23.4369
574 2 2.2208 10.8806 16.0326 24.8311
575 2 2.2208 10.8806 21.6058 24.8333
596 1 -1.1104 6.69644 14.632 26.2252
601 1 -1.1104 9.4856 17.4178 23.437
602 1 -1.1104 12.2751 17.4183 26.2262
603 1 -1.1104 9.48599 14.6313 23.436
604 1 -1.1104 9.486 20.2043 23.4381
629 2 2.2208 8.09109 21.6047 22.0439
630 2 2.2208 8.09111 16.0321 22.0417
632 2 2.2208 8.0911 18.8193 24.8321
633 1 -1.1104 6.69648 20.2055 26.2273
634 1 -1.1104 9.48566 14.6317 26.2253
635 1 -1.1104 9.48562 20.2052 26.2273
662 2 2.2208 13.67 18.8192 24.832
676 2 2.2208 5.30164 24.3923 5.30776
677 2 2.2208 5.30177 29.9659 5.31065
678 1 -1.1104 1.11725 25.7815 1.12474
679 1 -1.1104 1.11739 25.7806 3.91356
680 1 -1.1104 1.1176 22.9938 1.12338
681 1 -1.1104 1.11752 28.5699 1.12598
682 2 2.2208 5.30169 27.1807 2.52013
683 1 -1.1104 1.11742 22.993 3.91246
684 1 -1.1104 1.11726 28.5688 3.91479
685 1 -1.1104 3.90682 25.7808 1.12452
686 2 2.2208 2.5122 24.3942 2.51876
687 2 2.2208 2.51221 29.9693 2.5218
688 1 -1.1104 3.90661 25.7797 3.91354
689 2 2.2208 2.51216 27.1802 5.30924
690 1 -1.1104 3.90668 22.9933 1.12333
691 1 -1.1104 3.90636 28.5688 1.126
692 1 -1.1104 3.90678 22.9924 3.91222
693 1 -1.1104 3.9064 28.5674 3.91442
697 1 -1.1104 6.69603 25.7799 1.12458
698 1 -1.1104 6.69608 25.7785 3.91325
699 1 -1.1104 6.69636 22.9926 1.12314
700 1 -1.1104 6.69615 28.5674 1.12568
701 1 -1.1104 6.69622 22.9916 3.91224
702 1 -1.1104 6.69595 28.5656 3.91444
1011 2 2.2208 5.30174 29.968 -0.26745
1012 2 2.2208 2.5122 27.1817 -0.268899
1014 2 2.2208 5.3017 24.3938 -0.270433
694 2 2.2208 13.67 24.3927 2.51873
695 2 2.2208 13.67 27.1779 5.30945
703 2 2.2208 10.8806 24.3913 5.30789
704 2 2.2208 10.8809 29.9645 5.31108
705 1 -1.1104 12.2751 25.7792 1.12447
706 1 -1.1104 12.2752 25.7776 3.91337
707 1 -1.1104 12.2753 22.992 1.12326
708 1 -1.1104 12.2754 28.5669 1.12565
709 2 2.2208 10.8807 27.1798 2.52017
710 1 -1.1104 12.2752 22.9908 3.91233
711 1 -1.1104 12.2753 28.5647 3.91441
712 1 -1.1104 9.4858 25.7793 1.12448
713 2 2.2208 8.09117 24.393 2.51866
714 2 2.2208 8.09144 29.967 2.52174
715 1 -1.1104 9.48571 25.7777 3.91333
716 2 2.2208 8.09126 27.1781 5.30915
717 1 -1.1104 9.48565 22.9922 1.12322
718 1 -1.1104 9.48555 28.5668 1.12565
719 1 -1.1104 9.48574 22.991 3.91218
720 1 -1.1104 9.48555 28.5646 3.9143
988 2 2.2208 13.67 27.1803 -0.2691
1007 2 2.2208 13.67 29.9672 2.5222
1009 2 2.2208 10.8806 24.3932 -0.270462
1013 2 2.2208 8.09125 27.1803 -0.268996
1015 2 2.2208 10.8808 29.9673 -0.267491
724 2 2.2208 5.30156 35.5396 5.31421
725 1 -1.1104 1.11698 31.3589 1.12747
726 1 -1.1104 1.11624 36.9406 1.13045
727 1 -1.1104 6.69408 36.9331 1.12861
728 1 -1.1104 1.11717 31.3576 3.91577
729 1 -1.1104 1.11614 36.9391 3.91754
730 1 -1.1104 6.69287 36.9281 3.91418
731 1 -1.1104 1.11734 34.1489 1.12867
732 2 2.2208 5.30181 32.7552 2.52346
733 2 2.2208 5.29966 38.3293 2.52674
734 1 -1.1104 1.11683 34.1476 3.91712
735 1 -1.1104 6.69511 34.1403 3.91571
736 1 -1.1104 3.90653 31.3574 1.127
737 1 -1.1104 3.90512 36.9372 1.12889
738 2 2.2208 2.51179 35.5455 2.52568
739 1 -1.1104 3.90613 31.3556 3.91573
740 1 -1.1104 3.90382 36.9347 3.9173
741 2 2.2208 2.51219 32.7554 5.31249
742 2 2.2208 2.5096 38.3323 5.31663
743 1 -1.1104 3.9056 34.1467 1.12869
744 1 -1.1104 3.9054 34.1445 3.91599
748 1 -1.1104 6.69568 31.3554 1.12694
749 1 -1.1104 6.69557 31.3529 3.915
750 1 -1.1104 6.69562 34.1439 1.12759
815 2 2.2208 2.51094 38.3328 -0.261739
986 2 2.2208 2.51213 32.7567 -0.265675
987 2 2.2208 5.30135 35.5419 -0.264154
722 2 2.2208 13.67 32.7525 5.31433
745 2 2.2208 13.67 32.7546 -0.264811
751 2 2.2208 10.8823 35.5393 5.31693
752 1 -1.1104 12.275 31.3549 1.12699
753 1 -1.1104 12.2746 36.9331 1.12973
754 1 -1.1104 12.2753 31.3523 3.91566
755 1 -1.1104 12.2754 36.9308 3.91856
756 1 -1.1104 12.2756 34.144 1.12875
757 2 2.2208 10.8812 32.7544 2.52431
758 2 2.2208 10.8804 38.3289 2.53161
759 1 -1.1104 12.2751 34.1403 3.91665
760 1 -1.1104 9.4858 31.3548 1.12678
761 1 -1.1104 9.48493 36.9327 1.12825
762 2 2.2208 8.0916 35.5405 2.52568
763 1 -1.1104 9.48563 31.3516 3.91503
764 1 -1.1104 9.48419 36.926 3.91421
765 2 2.2208 8.09193 32.7511 5.31257
766 2 2.2208 8.09083 38.3214 5.31613
767 1 -1.1104 9.48511 34.1429 1.1276
768 1 -1.1104 9.48523 34.1392 3.91561
992 2 2.2208 8.08993 38.3256 -0.262571
999 2 2.2208 13.67 35.544 2.5299
1000 2 2.2208 13.67 38.3361 5.33076
1004 2 2.2208 8.09146 32.7541 -0.265923
1005 2 2.2208 13.67 38.3245 -0.262216
1006 2 2.2208 10.8807 35.541 -0.263097
723 2 2.2208 5.28046 46.7053 -0.26157
770 2 2.2208 5.28938 41.1102 5.31366
771 2 2.2208 5.24446 46.7007 5.29413
772 1 -1.1104 1.11355 42.5328 1.13319
773 1 -1.1104 6.68701 42.5202 1.12502
774 1 -1.1104 1.1116 42.5321 3.91579
775 1 -1.1104 6.67587 42.5044 3.8947
776 1 -1.1104 1.11623 39.7345 1.13115
777 1 -1.1104 1.11225 45.3354 1.13274
778 1 -1.1104 6.69183 39.7237 1.12608
779 1 -1.1104 6.67619 45.3193 1.11221
780 2 2.2208 5.28506 43.9081 2.52322
781 1 -1.1104 1.11479 39.7338 3.91854
782 1 -1.1104 1.10644 45.339 3.9168
783 1 -1.1104 6.68959 39.7167 3.91169
784 1 -1.1104 6.66253 45.3159 3.88122