ITEM: TIMESTEP
80000
ITEM: NUMBER OF ATOMS
17760
ITEM: BOX BOUNDS pp pp pp
-3.6256515257123600e-01 2.7702565152571218e+01
-4.6570488794482676e+00 3.3273704887946127e+02
-3.6842266493492326e-01 2.7708422664934520e+01
ITEM: ATOMS id type q x y z
1 2 2.2208 5.27014 0.805089 5.20503
2 1 -1.1104 1.09909 -3.24441 0.858431
3 1 -1.1104 1.19347 2.32212 1.01344
6 1 -1.1104 1.04897 -3.42979 3.86414
7 1 -1.1104 1.08426 2.23256 3.8451
10 1 -1.1104 0.977868 -0.474921 1.0804
12 2 2.2208 5.04908 -2.09073 2.45049
13 2 2.2208 5.2923 3.72341 2.38628
14 1 -1.1104 1.06231 -0.611183 3.68928
16 1 -1.1104 3.75848 -3.34249 1.01074
17 1 -1.1104 3.97321 2.15429 1.10916
18 2 2.2208 2.52611 0.909238 2.44461
19 1 -1.1104 3.91267 -3.5507 3.78427
20 1 -1.1104 3.89897 2.29781 3.8279
21 2 2.2208 2.40526 -2.02843 5.29217
22 2 2.2208 2.50471 3.59572 5.15823
23 1 -1.1104 3.85155 -0.677292 0.815739
24 1 -1.1104 3.72746 -0.732507 4.02277
8 1 -1.1104 6.64819 -3.44414 3.56737
167 1 -1.1104 0.912987 2.23439 6.67247
15 1 -1.1104 6.55616 -0.59313 3.70826
4 1 -1.1104 6.62316 -3.40991 0.852411
174 1 -1.1104 3.77717 -0.677805 6.74918
173 1 -1.1104 3.73619 2.34192 6.4791
172 1 -1.1104 3.68949 -3.47921 6.7035
8488 2 2.2208 13.6025 -4.6413 13.6839
170 1 -1.1104 1.05101 -0.601041 6.43485
9177 2 2.2208 -0.276437 3.6957 2.47184
11 1 -1.1104 6.7642 -0.469744 1.03074
9 1 -1.1104 6.56881 2.27434 3.87161
5 1 -1.1104 6.67573 2.29349 0.980472
169 1 -1.1104 6.60568 2.22284 6.70484
168 1 -1.1104 6.46727 -3.27806 6.47136
31 2 2.2208 10.8838 0.85 5.1523
32 1 -1.1104 12.3122 -3.36599 1.01892
33 1 -1.1104 12.2379 2.2951 1.15472
34 1 -1.1104 12.2158 -3.38367 3.74294
35 1 -1.1104 12.2375 2.28194 3.90006
36 1 -1.1104 12.3158 -0.418698 1.01601
37 2 2.2208 10.8283 -2.01014 2.21536
38 2 2.2208 10.9481 3.61328 2.38737
39 1 -1.1104 12.1711 -0.606226 3.76238
40 1 -1.1104 9.45017 -3.41744 1.04295
41 1 -1.1104 9.45456 2.2755 1.03832
42 2 2.2208 8.13725 0.884784 2.41613
43 1 -1.1104 9.42418 -3.28677 3.69939
44 1 -1.1104 9.47928 2.31475 3.78991
45 2 2.2208 8.0409 -1.98397 5.0554
46 2 2.2208 8.08599 3.74942 5.21692
47 1 -1.1104 9.60797 -0.495383 0.944716
48 1 -1.1104 9.39886 -0.600624 3.771
210 1 -1.1104 9.50664 -0.550741 6.42616
206 1 -1.1104 12.1931 2.28339 6.63532
9193 2 2.2208 -0.410807 3.62875 13.5701
8909 2 2.2208 -0.369199 14.9775 7.93414
54 2 2.2208 5.25134 6.51191 5.21361
55 2 2.2208 5.38692 12.0134 5.08584
56 1 -1.1104 1.10427 7.84221 0.926017
58 1 -1.1104 0.947761 7.62009 3.64281
60 1 -1.1104 1.10688 5.08554 0.980905
61 1 -1.1104 1.09249 10.7745 1.088
66 2 2.2208 5.29249 9.20173 2.34601
67 1 -1.1104 1.04038 4.97708 3.88334
68 1 -1.1104 1.14968 10.5578 3.82397
71 1 -1.1104 3.94953 7.83305 0.756394
72 2 2.2208 2.46827 6.62596 2.34239
73 2 2.2208 2.49272 12.0443 2.35167
74 1 -1.1104 3.67305 7.94744 3.82784
75 2 2.2208 2.43925 9.28218 5.20324
76 1 -1.1104 3.86447 5.06579 0.845016
77 1 -1.1104 3.78163 10.6052 1.00463
79 1 -1.1104 3.87577 5.12845 3.69395
80 1 -1.1104 3.98999 10.6179 3.71037
69 1 -1.1104 6.72829 5.02557 3.80182
63 1 -1.1104 6.54052 4.97647 0.965687
236 1 -1.1104 1.06458 5.19902 6.62275
62 1 -1.1104 0.985767 10.7203 6.51413
65 1 -1.1104 6.76703 10.6055 6.51512
235 1 -1.1104 6.74694 7.84196 6.65438
230 2 2.2208 8.02888 20.5149 10.815
644 2 2.2208 10.8089 3.79408 13.6095
64 1 -1.1104 6.72371 10.6156 1.05143
59 1 -1.1104 6.52827 7.8128 3.85103
237 1 -1.1104 6.58298 5.09551 6.63387
135 2 2.2208 13.6542 6.57404 8.09339
57 1 -1.1104 6.66235 7.78055 1.03616
70 1 -1.1104 6.89638 10.6185 3.83426
84 2 2.2208 10.8407 6.4783 5.15611
85 2 2.2208 10.9357 12.1638 5.14714
86 1 -1.1104 12.3691 7.87647 0.944318
87 1 -1.1104 12.2142 7.93832 3.8163
88 1 -1.1104 12.2783 5.16546 1.03433
89 1 -1.1104 12.3414 10.7537 0.993152
91 2 2.2208 10.9094 9.26827 2.35521
92 1 -1.1104 12.2387 5.07155 3.78637
93 1 -1.1104 12.4516 10.8191 3.73749
94 1 -1.1104 9.48836 7.90814 0.95627
95 2 2.2208 8.01065 6.40449 2.36528
96 2 2.2208 8.1717 12.2409 2.39925
97 1 -1.1104 9.37551 7.97718 3.63597
98 2 2.2208 8.11345 9.2362 5.07866
99 1 -1.1104 9.42304 5.13666 0.900204
100 1 -1.1104 9.5249 10.7865 0.867467
102 1 -1.1104 9.60026 5.10053 3.7856
103 1 -1.1104 9.60875 10.8246 3.79905
90 1 -1.1104 12.4346 10.7209 6.63179
269 1 -1.1104 9.45109 5.02238 6.57232
265 1 -1.1104 12.2387 7.95294 6.55065
201 1 -1.1104 9.61295 13.4213 9.43572
9224 2 2.2208 -0.19013 14.9595 13.5433
137 1 -1.1104 9.56206 13.6997 12.1337
106 2 2.2208 5.30412 17.5069 5.18832
107 1 -1.1104 1.14788 13.5363 0.999496
109 1 -1.1104 1.09268 19.1773 0.745007
113 1 -1.1104 1.10885 13.4233 3.79956
114 1 -1.1104 1.05496 18.9887 3.60616
116 1 -1.1104 1.06891 16.3757 0.926857
119 2 2.2208 5.32119 14.8387 2.33859
120 2 2.2208 5.27829 20.473 2.42398
121 1 -1.1104 1.17446 16.3483 3.6805
123 1 -1.1104 3.78394 13.4054 0.92194
125 1 -1.1104 3.97414 18.979 0.789161
127 2 2.2208 2.58919 17.7107 2.2347
128 1 -1.1104 4.09591 13.4917 3.79118
129 1 -1.1104 3.80147 19.1042 3.70666
130 2 2.2208 2.52164 14.7835 5.08734
131 2 2.2208 2.35186 20.4409 5.04984
132 1 -1.1104 3.84671 16.257 0.847542
134 1 -1.1104 3.95857 16.2659 3.632
122 1 -1.1104 6.78832 16.2427 3.76689
140 1 -1.1104 6.54475 16.1223 0.938794
302 1 -1.1104 1.00501 19.06 6.40395
115 1 -1.1104 6.81051 13.494 3.59051
138 1 -1.1104 6.6775 18.983 0.891901
126 1 -1.1104 3.92107 18.9812 6.63135
108 1 -1.1104 1.20046 13.372 6.32209
117 1 -1.1104 1.16931 16.276 6.47261
82 1 -1.1104 12.2447 16.3204 12.1427
111 1 -1.1104 6.7812 13.4612 6.61789
124 1 -1.1104 4.08115 13.3719 6.62589
133 1 -1.1104 3.82437 16.1883 6.59998
329 2 2.2208 13.6494 14.9554 5.2187
312 1 -1.1104 9.58619 16.1777 9.3932
9076 2 2.2208 -0.301351 9.35006 2.41024
139 1 -1.1104 6.56936 19.1642 3.63935
110 1 -1.1104 6.76755 13.4243 0.877642
321 2 2.2208 13.672 17.6636 2.37667
141 2 2.2208 10.9992 17.7938 5.28772
142 1 -1.1104 12.235 13.6136 0.90369
144 1 -1.1104 12.1633 19.076 1.11233
146 1 -1.1104 12.3462 13.5617 3.7788
147 1 -1.1104 12.1428 19.0937 3.78357
148 1 -1.1104 12.1963 16.2653 0.985261
150 2 2.2208 10.8862 14.9032 2.46754
151 2 2.2208 10.702 20.6054 2.30501
152 1 -1.1104 12.3325 16.273 3.68721
153 1 -1.1104 9.4588 13.4809 1.05468
155 1 -1.1104 9.38553 19.1444 0.891373
157 2 2.2208 8.0794 17.7897 2.40359
158 1 -1.1104 9.53942 13.4886 3.71585
159 1 -1.1104 9.37812 19.0133 3.94338
160 2 2.2208 8.15061 14.7551 5.19226
161 2 2.2208 8.07841 20.5284 5.22948
162 1 -1.1104 9.44639 16.2797 0.862188
164 1 -1.1104 9.49636 16.249 3.688
143 1 -1.1104 12.2811 13.6262 6.60084
154 1 -1.1104 9.55853 13.4168 6.51157
163 1 -1.1104 9.54292 16.3639 6.57539
156 1 -1.1104 9.58793 19.2237 6.71662
145 1 -1.1104 12.285 19.089 6.62568
149 1 -1.1104 12.3116 16.4013 6.62175
118 1 -1.1104 6.75107 16.2429 6.61069
112 1 -1.1104 6.6894 19.1321 6.55744
204 1 -1.1104 9.55411 19.0592 9.52345
9369 2 2.2208 -0.37653 20.6165 13.6404
166 1 -1.1104 0.906086 -3.40508 6.79873
171 1 -1.1104 6.66246 -0.463152 6.40879
175 2 2.2208 5.14156 0.790474 10.7995
176 1 -1.1104 0.969755 -3.3265 12.2623
177 1 -1.1104 0.97772 2.30622 12.1708
180 1 -1.1104 1.10606 -3.42275 9.55462
181 1 -1.1104 1.06996 2.18907 9.53595
184 1 -1.1104 0.974494 -0.685842 12.1529
186 2 2.2208 5.11399 -2.03297 7.99039
187 2 2.2208 5.21565 3.58155 8.07108
188 1 -1.1104 0.971012 -0.64461 9.40016
190 1 -1.1104 3.77372 -3.32082 12.2614
191 1 -1.1104 3.8403 2.23576 12.3043
192 2 2.2208 2.35146 0.783991 8.05578
193 1 -1.1104 3.83015 -3.5396 9.47757
194 1 -1.1104 3.79481 2.19527 9.40612
195 2 2.2208 2.3993 -1.99459 10.8631
196 2 2.2208 2.39014 3.61487 10.7968
197 1 -1.1104 3.88265 -0.569137 12.1973
198 1 -1.1104 3.80913 -0.611937 9.54516
178 1 -1.1104 6.63556 -3.31987 12.1702
185 1 -1.1104 6.68101 -0.562146 12.3209
182 1 -1.1104 6.62498 -3.28713 9.19746
189 1 -1.1104 6.55566 -0.501558 9.35269
179 1 -1.1104 6.67688 2.26143 12.3576
9091 2 2.2208 -0.277634 20.4049 2.2898
288 1 -1.1104 6.78263 19.1313 9.46734
207 1 -1.1104 12.1761 -0.509156 6.67645
205 1 -1.1104 12.1858 -3.28987 6.619
208 1 -1.1104 9.26227 -3.31318 6.53288
209 1 -1.1104 9.48488 2.22986 6.61229
9176 2 2.2208 -0.363055 3.76219 8.14312
183 1 -1.1104 6.62948 2.2394 9.49392
9190 2 2.2208 -0.327249 9.29212 8.01018
647 2 2.2208 5.25729 20.5721 13.4747
211 2 2.2208 10.8149 0.844771 10.9073
212 1 -1.1104 12.2531 -3.27769 12.2003
213 1 -1.1104 12.1353 2.2506 12.2664
214 1 -1.1104 12.2087 -3.32184 9.44276
215 1 -1.1104 12.4268 2.35669 9.50359
216 1 -1.1104 12.2269 -0.641955 12.2134
217 2 2.2208 10.8138 -1.86058 8.00314
218 2 2.2208 10.8015 3.6166 7.94659
219 1 -1.1104 12.1685 -0.495023 9.48947
220 1 -1.1104 9.38882 -3.45937 12.2844
221 1 -1.1104 9.41651 2.19723 12.291
222 2 2.2208 8.06505 0.872743 7.91395
223 1 -1.1104 9.45407 -3.30849 9.43885
224 1 -1.1104 9.31564 2.19371 9.46884
225 2 2.2208 8.06294 -1.87833 10.9106
226 2 2.2208 8.02028 3.58953 10.9449
227 1 -1.1104 9.47188 -0.496059 12.1967
228 1 -1.1104 9.33677 -0.439882 9.49139
49 1 -1.1104 12.1222 19.1192 12.1608
649 2 2.2208 2.65251 12.1409 13.5812
239 1 -1.1104 3.72753 5.08548 6.71806
78 1 -1.1104 4.01483 10.5537 6.56052
238 1 -1.1104 3.93217 7.85323 6.59581
234 1 -1.1104 1.11994 7.97321 6.55293
136 2 2.2208 13.551 -1.94354 5.28689
240 2 2.2208 5.20476 6.43622 10.8879
241 2 2.2208 5.27415 12.0015 10.7368
242 1 -1.1104 0.996928 7.92153 12.3143
244 1 -1.1104 0.993521 7.82067 9.49547
246 1 -1.1104 0.982331 5.05591 12.3187
247 1 -1.1104 1.18658 10.5568 12.1864
250 2 2.2208 5.33992 9.19739 7.92634
251 1 -1.1104 0.989982 4.97426 9.55411
252 1 -1.1104 1.1126 10.8036 9.51773
255 1 -1.1104 3.89095 7.81403 12.3166
256 2 2.2208 2.48283 6.51358 8.03135
257 2 2.2208 2.48028 11.9886 7.93378
258 1 -1.1104 3.72756 7.89138 9.53252
259 2 2.2208 2.46847 9.341 10.9028
260 1 -1.1104 3.82364 4.93599 12.2377
261 1 -1.1104 4.02313 10.6573 12.0846
262 1 -1.1104 3.72295 5.03112 9.44184
263 1 -1.1104 4.03729 10.6753 9.27108
243 1 -1.1104 6.57559 8.07563 12.1684
248 1 -1.1104 6.68569 5.33276 12.2115
654 2 2.2208 2.44485 17.7817 13.6017
229 2 2.2208 8.04327 14.9661 10.8028
656 2 2.2208 8.10011 12.1663 13.5755
9173 2 2.2208 -0.16898 17.6231 5.0704
233 1 -1.1104 9.32659 16.5062 12.0554
232 2 2.2208 13.6039 3.69211 5.31888
101 1 -1.1104 9.66344 10.7627 6.48915
267 1 -1.1104 9.46036 7.83421 6.48585
266 1 -1.1104 12.3284 5.09557 6.61586
655 2 2.2208 10.9031 9.37398 13.5998
245 1 -1.1104 6.47104 7.81803 9.40364
254 1 -1.1104 6.75816 10.7098 9.30109
249 1 -1.1104 6.80547 10.7892 12.154
253 1 -1.1104 6.6623 5.08028 9.48224
27 2 2.2208 10.8761 17.7866 10.9214
330 2 2.2208 13.6208 20.4354 5.18749
264 1 -1.1104 9.67311 10.6611 9.32368
268 1 -1.1104 9.44864 4.96398 9.4661
270 1 -1.1104 9.52581 10.8251 12.2038
271 1 -1.1104 9.49668 5.11192 12.1773
272 2 2.2208 8.14805 9.38074 10.665
273 1 -1.1104 9.41597 7.83578 9.30786
274 2 2.2208 8.21679 12.1233 7.95916
275 2 2.2208 8.12714 6.32448 8.05349
276 2 2.2208 10.7868 6.48807 10.8097
277 2 2.2208 10.988 12.0988 10.9303
278 1 -1.1104 12.1863 7.86577 12.2017
279 1 -1.1104 12.1877 7.93087 9.44363
280 1 -1.1104 12.2796 5.16809 12.2853
281 1 -1.1104 12.3065 10.7456 12.3089
282 2 2.2208 10.8976 9.224 7.99203
283 1 -1.1104 12.1494 5.29711 9.28102
284 1 -1.1104 12.4041 10.5905 9.43372
285 1 -1.1104 9.41898 7.94476 12.1204
83 2 2.2208 10.9221 14.9336 8.04347
9182 2 2.2208 -0.296863 11.9759 10.7485
200 2 2.2208 8.07941 17.7247 8.04295
8880 2 2.2208 -0.324967 -1.97844 7.96922
296 1 -1.1104 6.58324 19.0975 12.2432
290 1 -1.1104 6.72619 13.5849 9.37897
286 1 -1.1104 3.77854 19.0728 12.0363
287 1 -1.1104 3.73607 13.4832 12.2286
291 1 -1.1104 1.16311 19.1143 9.22316
292 1 -1.1104 1.02296 16.2334 9.26095
293 2 2.2208 5.36627 20.4196 8.04228
294 1 -1.1104 1.01262 13.3851 9.17778
295 2 2.2208 5.28643 14.7907 8.08878
298 1 -1.1104 1.00327 19.0767 12.0687
299 1 -1.1104 0.958652 13.4398 12.0549
300 2 2.2208 5.21588 17.7163 10.88
301 1 -1.1104 3.95616 19.0799 9.4387
303 2 2.2208 2.51159 17.5574 7.86029
304 1 -1.1104 3.79543 16.2527 9.29728
305 1 -1.1104 3.81602 13.3904 9.40746
307 1 -1.1104 1.00751 16.2392 12.0146
308 1 -1.1104 3.73863 16.2459 12.1713
309 2 2.2208 2.36003 20.4628 10.7022
310 2 2.2208 2.30945 14.8763 10.6395
289 1 -1.1104 6.62071 16.2572 9.36864
306 1 -1.1104 6.59445 16.3442 12.1912
297 1 -1.1104 6.61257 13.5962 12.295
9015 2 2.2208 -0.211849 14.9687 2.38989
105 1 -1.1104 12.4301 16.261 9.44952
30 1 -1.1104 12.3589 13.4545 12.3013
165 1 -1.1104 9.38119 19.2915 12.1321
53 1 -1.1104 12.4237 19.1185 9.48199
104 2 2.2208 10.9598 20.4779 7.9945
50 1 -1.1104 12.355 13.3589 9.50808
648 2 2.2208 5.27474 9.33757 13.5968
316 2 2.2208 13.6857 12.0527 7.95032
332 2 2.2208 13.5516 0.95882 13.5646
9416 2 2.2208 -0.253369 9.25836 13.6221
646 2 2.2208 5.35225 14.9298 13.5745
326 2 2.2208 13.6171 6.59582 2.3713
643 2 2.2208 13.5956 17.678 13.4582
9178 2 2.2208 -0.344152 0.801205 10.7733
325 2 2.2208 10.8153 17.7134 -0.37885
9530 2 2.2208 -0.312861 0.905903 -0.221464
370 2 2.2208 7.96241 17.8341 13.4548
311 2 2.2208 5.28318 11.9004 -0.278056
675 2 2.2208 2.43961 3.72246 -0.370067
658 2 2.2208 8.10346 6.66134 13.5628
372 2 2.2208 10.9282 20.6537 13.5451
337 2 2.2208 5.38184 1.02204 16.377
338 1 -1.1104 1.21293 -3.58549 17.8474
339 1 -1.1104 1.23174 2.25099 17.7018
342 1 -1.1104 1.05246 -3.18051 15.1553
344 1 -1.1104 0.956866 2.36707 14.8566
350 1 -1.1104 1.13015 -0.680946 17.8224
352 2 2.2208 5.44692 -1.9477 19.2613
353 2 2.2208 5.31246 3.72069 19.247
354 1 -1.1104 1.10194 -0.391551 14.9593
358 1 -1.1104 3.91908 -3.16826 17.9672
359 1 -1.1104 4.00043 2.3856 17.7618
360 2 2.2208 2.62734 0.769745 19.19
361 1 -1.1104 3.92131 -3.4902 14.9002
363 1 -1.1104 3.9397 2.26277 15.0226
365 2 2.2208 2.52471 -1.92509 16.4251
366 2 2.2208 2.52553 3.69811 16.2928
367 1 -1.1104 3.92664 -0.490857 17.7204
368 1 -1.1104 3.83431 -0.559525 15.0089
346 1 -1.1104 6.67799 -3.46439 15.0538
348 1 -1.1104 6.68303 2.39469 15.0227
343 1 -1.1104 1.10434 -3.41566 20.4945
356 1 -1.1104 6.79627 -0.553576 14.9222
369 1 -1.1104 4.03873 -0.500066 20.6167
345 1 -1.1104 1.17869 1.98221 20.6654
355 1 -1.1104 1.34491 -0.586925 20.7057
364 1 -1.1104 3.92529 2.33797 20.6187
362 1 -1.1104 3.92153 -3.34645 20.638
319 2 2.2208 13.6051 9.35145 27.7109
336 2 2.2208 5.36563 -1.9691 13.6693
673 2 2.2208 2.44139 -1.96344 27.6209
8851 2 2.2208 2.41957 -4.58564 24.7303
340 1 -1.1104 6.79589 -3.40587 17.7297
351 1 -1.1104 6.74966 -0.45743 17.7375
341 1 -1.1104 6.89208 2.39173 17.8233
357 1 -1.1104 6.8803 -0.530264 20.5735
380 2 2.2208 10.9329 0.964713 16.3523
381 1 -1.1104 12.2924 -3.43364 17.8549
382 1 -1.1104 12.3693 2.39869 17.7959
383 1 -1.1104 12.2715 -3.12752 15.0806
385 1 -1.1104 12.3321 2.21223 15.0247
387 1 -1.1104 12.2716 -0.580297 17.7404
388 2 2.2208 10.8976 -1.81634 19.2835
389 2 2.2208 10.8788 3.81676 19.2347
390 1 -1.1104 12.2201 -0.465728 15.0851
392 1 -1.1104 9.59273 -3.21078 17.7354
393 1 -1.1104 9.61723 2.43758 17.8378
394 2 2.2208 8.14017 0.972049 19.1887
395 1 -1.1104 9.48779 -3.42542 14.9412
397 1 -1.1104 9.43237 2.47687 14.9756
399 2 2.2208 8.17834 -1.9069 16.3726
400 2 2.2208 8.14682 3.82269 16.4832
401 1 -1.1104 9.5611 -0.521148 17.8525
402 1 -1.1104 9.6289 -0.529192 15.0552
386 1 -1.1104 12.2937 2.19135 20.5459
391 1 -1.1104 12.3271 -0.519034 20.5563
403 1 -1.1104 9.6637 -0.328773 20.6015
600 2 2.2208 13.5864 15.0485 16.4769
668 2 2.2208 8.16122 -2.03318 27.6346
384 1 -1.1104 12.3281 -3.28563 20.6717
398 1 -1.1104 9.46529 2.37852 20.752
347 1 -1.1104 6.77812 -3.4485 20.6615
396 1 -1.1104 9.51829 -3.25511 20.612
322 2 2.2208 7.91431 20.4391 27.5909
635 1 -1.1104 9.36734 19.2179 26.241
594 1 -1.1104 6.73939 16.2372 26.07
9267 2 2.2208 -0.224292 3.54456 19.1606
413 2 2.2208 5.28526 6.64362 16.383
414 2 2.2208 5.42701 12.1674 16.4689
415 1 -1.1104 1.17148 8.01683 17.9611
417 1 -1.1104 1.08289 8.00836 15.183
421 1 -1.1104 0.981313 5.1839 17.7942
422 1 -1.1104 1.03279 10.8057 17.762
425 2 2.2208 5.21982 9.32999 19.155
426 1 -1.1104 1.12314 5.21964 15.0477
428 1 -1.1104 1.12514 10.7366 14.9495
434 1 -1.1104 3.96275 8.00703 17.7231
435 2 2.2208 2.43164 6.52006 19.1323
436 2 2.2208 2.5557 12.1726 19.2575
437 1 -1.1104 3.83967 7.86852 14.9001
439 2 2.2208 2.48664 9.38397 16.5407
440 1 -1.1104 3.85882 5.14511 17.6601
441 1 -1.1104 3.89646 10.8418 18.0049
442 1 -1.1104 3.96507 5.14434 14.9013
444 1 -1.1104 4.02094 10.715 14.981
429 1 -1.1104 1.14353 10.8042 20.7309
419 1 -1.1104 6.78399 8.0694 15.0473
432 1 -1.1104 6.8151 10.8801 15.1059
443 1 -1.1104 3.77923 5.10366 20.4509
445 1 -1.1104 3.96294 10.7491 20.7537
418 1 -1.1104 1.09139 7.90919 20.7282
427 1 -1.1104 1.12793 4.82298 20.6781
9343 2 2.2208 -0.310965 6.46473 22.0249
663 2 2.2208 13.5822 3.65895 22.1371
430 1 -1.1104 6.70085 5.25381 15.1126
424 1 -1.1104 6.6451 10.8684 17.8116
416 1 -1.1104 6.61557 7.97513 17.6962
423 1 -1.1104 6.57786 5.16715 18.0054
420 1 -1.1104 6.60501 8.15113 20.5156
603 1 -1.1104 9.62798 13.5268 23.5
449 2 2.2208 10.9621 6.53253 16.4571
450 2 2.2208 10.9219 12.1061 16.3942
451 1 -1.1104 12.3483 7.99125 17.8628
452 1 -1.1104 12.2927 7.84034 15.1218
454 1 -1.1104 12.2605 5.2943 17.7858
455 1 -1.1104 12.2472 10.7436 17.7255
456 2 2.2208 10.8438 9.26514 19.1881
457 1 -1.1104 12.2843 5.06575 15.0871
459 1 -1.1104 12.412 10.5976 14.8943
461 1 -1.1104 9.5261 7.80877 17.8935
462 2 2.2208 8.0768 6.52716 19.1736
463 2 2.2208 7.99705 12.1285 19.3353
464 1 -1.1104 9.51531 8.01895 15.0122
466 2 2.2208 8.09041 9.3223 16.3526
467 1 -1.1104 9.40604 5.12547 17.7379
468 1 -1.1104 9.47939 10.6834 17.7596
469 1 -1.1104 9.53175 5.25012 14.885
471 1 -1.1104 9.6665 10.8218 14.9053
470 1 -1.1104 9.41788 5.1928 20.602
433 1 -1.1104 6.66152 10.7673 20.6562
460 1 -1.1104 12.4109 10.7783 20.6845
465 1 -1.1104 9.33015 7.9686 20.6885
453 1 -1.1104 12.1772 8.068 20.5364
472 1 -1.1104 9.5131 10.7103 20.5813
660 2 2.2208 13.6579 6.5501 19.1117
476 2 2.2208 5.16808 17.7425 16.3933
477 1 -1.1104 1.08998 13.4779 17.7853
478 1 -1.1104 1.03227 19.0557 17.8131
481 1 -1.1104 1.04838 13.4408 14.9356
483 1 -1.1104 1.11595 19.2959 14.8304
489 1 -1.1104 1.14772 16.3648 17.8811
491 2 2.2208 5.30627 14.9872 19.1927
492 2 2.2208 5.30374 20.6173 19.2371
493 1 -1.1104 1.18702 16.4178 14.973
497 1 -1.1104 3.89057 13.4999 17.7728
498 1 -1.1104 3.72856 19.1929 17.8231
499 2 2.2208 2.40622 17.7918 19.1915
500 1 -1.1104 3.96467 13.5993 15.1164
502 1 -1.1104 3.88443 19.1801 14.989
504 2 2.2208 2.45264 14.9212 16.5024
505 2 2.2208 2.46628 20.6046 16.5
506 1 -1.1104 3.89901 16.2965 17.7388
507 1 -1.1104 3.8667 16.3271 15.0837
490 1 -1.1104 6.76159 16.393 17.8206
495 1 -1.1104 6.57126 16.2426 14.9047
480 1 -1.1104 6.62951 19.1152 17.7023
485 1 -1.1104 6.70507 13.5757 15.061
482 1 -1.1104 1.1062 13.5295 20.6846
501 1 -1.1104 3.97531 13.5393 20.6161
496 1 -1.1104 6.74213 16.1916 20.5042
503 1 -1.1104 3.7438 19.0713 20.6737
508 1 -1.1104 3.8889 16.3613 20.6784
494 1 -1.1104 1.15982 16.4267 20.6672
484 1 -1.1104 0.969112 19.2716 20.5557
630 2 2.2208 8.19436 14.9949 21.9874
315 2 2.2208 2.42773 9.32725 27.5302
479 1 -1.1104 6.65862 13.5564 17.8317
487 1 -1.1104 6.63155 19.3306 14.8646
486 1 -1.1104 6.62799 13.5421 20.6152
327 2 2.2208 5.22234 6.46494 27.5633
512 2 2.2208 10.8401 17.8256 16.4517
513 1 -1.1104 12.2555 13.6241 17.82
514 1 -1.1104 12.3367 19.1943 17.7432
515 1 -1.1104 12.2844 13.5394 15.0902
517 1 -1.1104 12.2211 18.9806 15.0186
519 1 -1.1104 12.2699 16.4744 17.7626
520 2 2.2208 10.8389 14.9362 19.3023
521 2 2.2208 10.8897 20.5887 19.2718
522 1 -1.1104 12.1706 16.1845 15.0081
524 1 -1.1104 9.40157 13.4655 17.9301
525 1 -1.1104 9.42841 19.1648 17.7309
526 2 2.2208 7.9762 17.6981 19.1462
527 1 -1.1104 9.473 13.5322 15.0661
529 1 -1.1104 9.45361 19.3142 14.8973
531 2 2.2208 8.08353 15.0182 16.3387
532 2 2.2208 8.01955 20.7047 16.4313
533 1 -1.1104 9.46804 16.3255 17.9069
534 1 -1.1104 9.30602 16.5018 14.9157
528 1 -1.1104 9.42565 13.6536 20.6415
404 2 2.2208 10.8238 17.7854 21.9503
518 1 -1.1104 12.2897 19.1127 20.6771
523 1 -1.1104 12.3417 16.1932 20.5159
601 1 -1.1104 9.44868 16.2102 23.4217
530 1 -1.1104 9.29539 19.1943 20.482
535 1 -1.1104 9.48074 16.5415 20.6253
671 2 2.2208 8.11012 3.69518 27.6947
9305 2 2.2208 -0.319287 14.9587 24.76
674 2 2.2208 5.35499 0.777706 27.7132
9230 2 2.2208 -0.360419 0.898472 22.1475
540 2 2.2208 5.33255 0.901834 22.0225
541 1 -1.1104 1.1065 -3.19238 23.3429
542 1 -1.1104 1.04979 2.35072 23.494
545 1 -1.1104 1.07381 -3.27636 26.1143
546 1 -1.1104 1.10094 2.25198 26.3309
549 1 -1.1104 1.13718 -0.390412 23.5601
551 2 2.2208 5.2761 -1.98768 24.7979
552 2 2.2208 5.26215 3.64892 24.9135
553 1 -1.1104 1.07987 -0.476734 26.3345
555 1 -1.1104 4.01452 -3.23985 23.2791
556 1 -1.1104 3.87858 2.13827 23.4753
557 2 2.2208 2.55841 0.861603 24.9559
558 1 -1.1104 3.91509 -3.34554 26.257
559 1 -1.1104 3.92475 2.08053 26.4024
560 2 2.2208 2.63001 -1.93656 22.0101
561 2 2.2208 2.48249 3.57953 22.0558
562 1 -1.1104 3.9464 -0.498475 23.4442
563 1 -1.1104 4.05464 -0.622835 26.1352
547 1 -1.1104 6.86796 -3.28495 26.1656
544 1 -1.1104 6.61368 2.33362 23.3176
568 1 -1.1104 12.3226 13.5099 26.3095
349 1 -1.1104 6.79405 2.31696 20.5698
323 2 2.2208 5.24452 17.5971 27.5706
317 2 2.2208 8.00331 14.7971 27.6306
199 2 2.2208 8.08331 9.33789 27.6963
634 1 -1.1104 9.36111 13.5889 26.2808
543 1 -1.1104 6.88913 -3.31012 23.4744
548 1 -1.1104 6.7054 2.21941 26.1735
550 1 -1.1104 6.73331 -0.551848 23.4041
409 1 -1.1104 12.3788 19.0565 23.4408
554 1 -1.1104 6.85821 -0.467654 26.3395
576 2 2.2208 10.9531 0.890836 22.0561
577 1 -1.1104 12.4993 -3.33726 23.4401
578 1 -1.1104 12.2336 2.26303 23.558
579 1 -1.1104 12.2787 -3.41191 26.2431
580 1 -1.1104 12.2741 2.31004 26.3955
581 1 -1.1104 12.5443 -0.597916 23.5278
582 2 2.2208 11.0142 -1.91323 24.897
583 2 2.2208 10.8351 3.74409 24.8967
584 1 -1.1104 12.233 -0.568929 26.3654
585 1 -1.1104 9.78766 -3.37113 23.5532
586 1 -1.1104 9.41188 2.28149 23.5061
587 2 2.2208 8.10619 0.856333 24.8261
588 1 -1.1104 9.5731 -3.41594 26.3765
589 1 -1.1104 9.46592 2.28694 26.31
590 2 2.2208 8.22366 -1.93744 22.0356
591 2 2.2208 7.9958 3.71769 22.0491
592 1 -1.1104 9.61567 -0.560101 23.3974
593 1 -1.1104 9.56166 -0.558469 26.2244
670 2 2.2208 10.8517 0.952256 27.7085
604 1 -1.1104 9.61377 19.1674 23.3206
573 1 -1.1104 12.3337 16.4702 23.3982
632 2 2.2208 8.04197 17.7604 24.7081
438 1 -1.1104 3.83119 7.98681 20.5298
408 1 -1.1104 12.4541 13.4832 23.5732
605 2 2.2208 5.23025 6.46863 21.9369
606 2 2.2208 5.30267 12.1615 22.0243
607 1 -1.1104 1.19675 7.85378 23.4213
609 1 -1.1104 1.04088 7.87314 26.1831
611 1 -1.1104 1.16605 5.09574 23.4315
612 1 -1.1104 1.17188 10.6969 23.5481
615 2 2.2208 5.421 9.22883 24.9083
616 1 -1.1104 1.02711 5.09003 26.2459
617 1 -1.1104 1.02177 10.7718 26.225
620 1 -1.1104 3.85335 7.76059 23.3638
621 2 2.2208 2.50142 6.49462 24.8655
622 2 2.2208 2.44089 12.0423 24.9091
623 1 -1.1104 3.83989 7.85365 26.1267
624 2 2.2208 2.5981 9.36621 22.0909
625 1 -1.1104 3.98459 5.03158 23.283
626 1 -1.1104 3.94977 10.7198 23.4947
627 1 -1.1104 3.76689 5.00504 26.1554
628 1 -1.1104 3.78623 10.6308 26.3245
614 1 -1.1104 6.70917 10.78 23.5332
610 1 -1.1104 6.6141 7.93437 26.3312
9444 2 2.2208 -0.235973 17.7329 16.2615
629 2 2.2208 8.16459 20.4953 22.0137
379 1 -1.1104 9.57919 16.4993 26.0914
9227 2 2.2208 -0.128044 -2.04663 19.0617
574 2 2.2208 10.9966 15.0722 24.8741
431 1 -1.1104 6.69061 5.25254 20.7545
458 1 -1.1104 12.1577 5.16302 20.8136
536 1 -1.1104 6.72461 13.611 23.1777
516 1 -1.1104 12.253 13.5005 20.7809
602 1 -1.1104 12.333 16.4165 26.3411
619 1 -1.1104 6.5849 10.5929 26.3216
613 1 -1.1104 6.56758 5.14517 23.6623
618 1 -1.1104 6.65442 5.04634 26.3942
608 1 -1.1104 6.73873 7.81984 23.4022
575 2 2.2208 10.8258 20.5271 24.7908
373 1 -1.1104 12.4073 10.7553 26.2375
374 1 -1.1104 12.3234 5.06233 26.3038
375 2 2.2208 10.989 9.52181 24.8223
377 1 -1.1104 12.3908 10.8829 23.4551
378 1 -1.1104 12.1442 5.25392 23.5486
567 1 -1.1104 12.147 7.96627 26.1937
569 2 2.2208 10.9206 12.1313 22.0185
570 2 2.2208 10.8384 6.6284 22.0715
571 2 2.2208 8.08085 6.5108 24.8384
597 1 -1.1104 12.3478 8.03724 23.2726
599 2 2.2208 8.05813 12.1662 24.8759
631 1 -1.1104 9.63978 7.92805 23.4983
636 1 -1.1104 9.48975 10.8386 26.1845
637 1 -1.1104 9.43377 5.09931 26.3149
638 1 -1.1104 9.49823 10.9118 23.3888
639 1 -1.1104 9.35983 5.20008 23.4517
640 2 2.2208 8.00763 9.28548 22.0048
641 1 -1.1104 9.44904 8.13393 26.1756
203 2 2.2208 10.9223 12.1698 27.6537
488 1 -1.1104 6.48063 19.2008 20.699
407 2 2.2208 13.6203 20.4452 16.3375
572 1 -1.1104 12.1221 19.1848 26.3193
539 1 -1.1104 6.65288 19.1433 23.3599
410 2 2.2208 2.47206 15.0091 22.0225
411 2 2.2208 2.35708 20.6017 21.9563
412 1 -1.1104 3.9164 16.1502 23.6046
446 1 -1.1104 1.05263 16.5495 23.4025
448 1 -1.1104 3.8797 13.351 26.2125
473 1 -1.1104 3.82252 16.3793 26.2491
474 2 2.2208 2.41241 17.7102 24.7848
475 1 -1.1104 3.93367 19.166 26.1396
509 2 2.2208 5.25048 17.6343 21.9902
510 1 -1.1104 1.06046 13.5089 23.5177
511 1 -1.1104 0.895695 19.1698 23.3506
537 2 2.2208 5.3686 14.8331 24.7833
538 2 2.2208 5.25731 20.547 24.7499
564 1 -1.1104 1.10059 13.5685 26.2671
565 1 -1.1104 1.16112 16.3362 26.2064
566 1 -1.1104 1.04112 19.0402 26.1541
595 1 -1.1104 3.74509 13.486 23.3043
598 1 -1.1104 3.79657 19.0323 23.2554
447 1 -1.1104 6.70933 16.329 23.3343
596 1 -1.1104 6.61157 13.4621 26.2745
633 1 -1.1104 6.65109 19.0675 26.1216
9265 2 2.2208 -0.279737 -1.78238 24.8542
335 2 2.2208 2.42858 0.914217 13.6294
9223 2 2.2208 -0.206408 9.23966 24.8553
9375 2 2.2208 -0.328718 3.67571 24.9029
9417 2 2.2208 -0.300781 15.048 19.1534
9373 2 2.2208 -0.364609 9.33683 19.3209
650 2 2.2208 13.7168 9.44577 21.9499
9529 2 2.2208 -0.347328 12.2283 16.3988
29 2 2.2208 13.5662 20.5447 27.732
652 2 2.2208 13.7251 9.39284 16.428
9411 2 2.2208 -0.124673 12.1913 22.1296
9301 2 2.2208 -0.298768 0.921571 16.392
81 2 2.2208 10.8865 6.55247 27.5323
9185 2 2.2208 -0.370674 6.48003 27.6083
657 2 2.2208 13.6439 0.886043 24.9333
318 2 2.2208 2.43794 20.4418 27.494
9184 2 2.2208 -0.333944 17.7316 27.5978
324 2 2.2208 2.6372 14.8684 27.519
334 2 2.2208 5.2779 3.74435 13.7254
642 2 2.2208 2.2917 6.52141 13.6643
331 2 2.2208 10.9359 -1.85706 13.7005
333 2 2.2208 8.06612 0.893262 13.6249
645 2 2.2208 10.9096 14.9572 13.6698
676 2 2.2208 5.18939 23.2883 5.14371
677 2 2.2208 5.12817 29.0012 5.04335
678 1 -1.1104 0.884754 24.795 1.02295
679 1 -1.1104 0.991668 24.7032 3.8275
680 1 -1.1104 1.00101 21.9117 0.968415
681 1 -1.1104 0.933043 27.667 1.12044
682 2 2.2208 5.15109 26.1725 2.41719
683 1 -1.1104 1.00651 21.9196 3.80651
684 1 -1.1104 1.1771 27.6762 4.0444
685 1 -1.1104 3.7227 24.6722 1.01581
686 2 2.2208 2.23227 23.2808 2.31126
687 2 2.2208 2.36331 29.0751 2.31559
688 1 -1.1104 3.91171 24.7114 3.76766
689 2 2.2208 2.36745 26.1888 5.23883
690 1 -1.1104 3.88315 21.6617 0.896384
691 1 -1.1104 3.63402 27.5415 1.03839
692 1 -1.1104 3.65687 21.8444 3.58903
693 1 -1.1104 3.8115 27.578 3.8144
698 1 -1.1104 6.60954 24.7671 3.67811
822 1 -1.1104 6.5923 27.5832 6.42449
701 1 -1.1104 6.61159 21.9548 3.87604
702 1 -1.1104 6.5365 27.4898 3.60868
700 1 -1.1104 6.69035 27.5458 0.893881
699 1 -1.1104 6.64258 21.8837 1.08546
697 1 -1.1104 6.66619 24.7379 0.932349
819 1 -1.1104 1.05385 21.7343 6.58013
825 1 -1.1104 3.88132 27.6269 6.64866
820 1 -1.1104 0.953174 27.6358 6.54722
824 1 -1.1104 3.8252 21.8229 6.31054
817 1 -1.1104 1.17796 24.7112 6.66335
823 1 -1.1104 3.87403 24.6388 6.65005
1574 1 -1.1104 3.63601 47.3911 12.4925
1348 2 2.2208 8.06011 28.8837 13.6656
703 2 2.2208 10.8282 23.1862 5.07726
704 2 2.2208 10.7891 29.0798 5.19232
705 1 -1.1104 12.1917 24.7747 0.989379
706 1 -1.1104 12.226 24.6342 3.78736
707 1 -1.1104 12.1252 22.0206 0.807297
708 1 -1.1104 12.1054 27.5251 1.06345
709 2 2.2208 10.7372 26.0902 2.45831
710 1 -1.1104 12.2022 21.9111 3.74839
711 1 -1.1104 12.2463 27.3897 3.8122
712 1 -1.1104 9.43746 24.8073 0.969708
713 2 2.2208 7.89821 23.3771 2.33894
714 2 2.2208 7.99986 28.9157 2.31251
715 1 -1.1104 9.32705 24.4329 3.94838
716 2 2.2208 7.9895 26.1218 5.33751
717 1 -1.1104 9.23795 22.0737 0.826549
718 1 -1.1104 9.29205 27.4005 0.979037
719 1 -1.1104 9.44911 21.9064 3.7656
720 1 -1.1104 9.47526 27.4555 3.88376
854 1 -1.1104 9.41283 21.9223 6.50222
853 1 -1.1104 9.5401 24.7015 6.66764
852 1 -1.1104 12.2613 27.5843 6.61754
1205 2 2.2208 5.29135 26.0395 13.5564
694 2 2.2208 13.6105 23.5029 2.32596
851 1 -1.1104 12.3205 21.8359 6.49067
855 1 -1.1104 9.33488 27.7297 6.58526
850 1 -1.1104 12.2584 24.7544 6.62837
1001 2 2.2208 13.5866 34.5699 7.95903
724 2 2.2208 5.19016 34.6442 5.20571
725 1 -1.1104 1.0159 30.464 0.964784
726 1 -1.1104 0.880112 36.1534 0.941036
728 1 -1.1104 0.975828 30.4805 3.65071
729 1 -1.1104 1.12056 36.0955 3.68871
731 1 -1.1104 0.905771 33.3561 1.05243
732 2 2.2208 5.18024 31.8258 2.40926
733 2 2.2208 5.2515 37.3526 2.31045
734 1 -1.1104 1.02411 33.2613 3.86145
736 1 -1.1104 3.8978 30.3045 0.928785
737 1 -1.1104 3.70807 35.9683 0.929735
738 2 2.2208 2.3631 34.7124 2.2374
739 1 -1.1104 3.76632 30.2717 3.72512
740 1 -1.1104 3.81806 36.0125 3.72094
741 2 2.2208 2.38638 31.8182 5.09469
742 2 2.2208 2.40323 37.4844 5.11276
743 1 -1.1104 3.7491 33.0652 0.926317
744 1 -1.1104 3.88136 33.2216 3.77894
727 1 -1.1104 6.45273 35.8433 0.877032
735 1 -1.1104 6.60217 33.0931 3.88147
749 1 -1.1104 6.60769 30.3092 3.81216
730 1 -1.1104 6.57033 36.0652 3.67925
748 1 -1.1104 6.59913 30.2116 0.72596
879 1 -1.1104 6.75242 33.2923 6.59521
750 1 -1.1104 6.50365 33.0898 1.1054
875 1 -1.1104 0.951665 36.0203 6.64457
880 1 -1.1104 3.81711 30.4094 6.40632
881 1 -1.1104 3.80352 36.0374 6.47291
882 1 -1.1104 3.95745 33.2833 6.50526
877 1 -1.1104 6.471 36.09 6.43563
722 2 2.2208 13.5805 31.6834 5.19093
1000 2 2.2208 13.45 37.3144 5.06953
1355 2 2.2208 5.13058 37.4302 13.4859
751 2 2.2208 10.7759 34.4516 5.20928
752 1 -1.1104 12.1566 30.3394 0.947836
753 1 -1.1104 12.1839 35.9909 0.880893
754 1 -1.1104 12.1593 30.1617 3.83811
755 1 -1.1104 12.1864 35.856 3.62839
756 1 -1.1104 12.2221 33.2918 0.82601
757 2 2.2208 10.9176 31.7862 2.31716
758 2 2.2208 10.7472 37.3924 2.31448
759 1 -1.1104 12.1429 33.0363 3.71812
760 1 -1.1104 9.46436 30.3578 1.02545
761 1 -1.1104 9.39456 35.9437 0.914565
762 2 2.2208 7.938 34.568 2.45245
763 1 -1.1104 9.44028 30.3315 3.78007