ITEM: TIMESTEP
100000
ITEM: NUMBER OF ATOMS
17760
ITEM: BOX BOUNDS pp pp pp
-3.7450078206425347e-01 2.7714500782063979e+01
-4.5289563666149517e+00 3.3260895636662906e+02
-3.7463006189238174e-01 2.7714630061892027e+01
ITEM: ATOMS id type q x y z
1 2 2.2208 5.32449 1.06267 5.17036
2 1 -1.1104 1.14914 -3.23412 1.14733
3 1 -1.1104 1.1676 2.48639 1.23498
6 1 -1.1104 0.991897 -3.12857 3.76298
7 1 -1.1104 1.03663 2.37086 3.77703
10 1 -1.1104 1.13502 -0.374213 0.926314
12 2 2.2208 5.34921 -1.75313 2.30357
13 2 2.2208 5.24527 3.86116 2.45144
14 1 -1.1104 1.08393 -0.384703 3.79893
16 1 -1.1104 3.97034 -3.15857 0.965537
17 1 -1.1104 3.86378 2.31111 0.832178
18 2 2.2208 2.51683 1.04532 2.3219
19 1 -1.1104 3.77684 -3.26076 3.73662
20 1 -1.1104 3.92043 2.56822 3.76591
21 2 2.2208 2.41587 -1.83932 5.2129
22 2 2.2208 2.45841 3.77451 5.27665
23 1 -1.1104 3.88671 -0.311504 0.99254
24 1 -1.1104 3.84553 -0.363351 3.78105
8880 2 2.2208 -0.325404 -1.92628 7.99647
167 1 -1.1104 1.11978 2.50535 6.68345
170 1 -1.1104 1.0999 -0.389788 6.5003
11 1 -1.1104 6.71332 -0.263045 1.08722
9174 2 2.2208 -0.228133 20.7606 8.08727
173 1 -1.1104 3.7909 2.40183 6.61958
172 1 -1.1104 3.7495 -3.03332 6.79363
166 1 -1.1104 0.898482 -3.37724 6.60319
8513 2 2.2208 5.28303 -4.49003 10.8055
289 1 -1.1104 6.84008 16.4922 9.4749
9173 2 2.2208 -0.241869 17.9161 5.37692
8492 2 2.2208 5.1726 -4.50144 5.22316
4 1 -1.1104 6.73974 -3.08526 0.908032
9182 2 2.2208 -0.224933 12.1945 10.866
8 1 -1.1104 6.52757 -2.959 3.82266
5 1 -1.1104 6.71247 2.54711 0.985045
9 1 -1.1104 6.67912 2.45346 3.92138
15 1 -1.1104 6.70859 -0.132582 3.72624
31 2 2.2208 10.9292 1.01173 5.19657
32 1 -1.1104 12.3876 -3.07305 0.986969
33 1 -1.1104 12.2537 2.55581 1.0213
34 1 -1.1104 12.2623 -3.1224 3.87301
35 1 -1.1104 12.1517 2.439 3.79797
36 1 -1.1104 12.1544 -0.265776 0.984142
37 2 2.2208 10.9349 -1.69524 2.32985
38 2 2.2208 10.9274 3.99559 2.3134
39 1 -1.1104 12.2956 -0.411099 3.75895
40 1 -1.1104 9.57114 -3.20352 1.00525
41 1 -1.1104 9.57562 2.60868 0.939799
42 2 2.2208 8.09698 1.17492 2.40081
43 1 -1.1104 9.48381 -3.10157 3.7845
44 1 -1.1104 9.47491 2.59146 3.74116
45 2 2.2208 8.03604 -1.70935 5.20763
46 2 2.2208 8.09909 3.80842 5.22416
47 1 -1.1104 9.53734 -0.22973 0.94433
48 1 -1.1104 9.42597 -0.238509 3.74047
297 1 -1.1104 6.71388 13.6565 12.3091
288 1 -1.1104 6.68653 19.1251 9.49475
208 1 -1.1104 9.52448 -3.11376 6.66753
205 1 -1.1104 12.2765 -3.23315 6.54493
171 1 -1.1104 6.6274 -0.320625 6.61866
210 1 -1.1104 9.52074 -0.317146 6.55648
169 1 -1.1104 6.65673 2.47356 6.65618
311 2 2.2208 5.26915 12.3773 -0.379491
8490 2 2.2208 10.8939 -4.42909 5.12027
54 2 2.2208 5.25025 6.73433 5.24238
55 2 2.2208 5.39493 12.2848 5.19122
56 1 -1.1104 1.17938 8.18497 1.20656
58 1 -1.1104 1.08308 8.02463 3.86883
60 1 -1.1104 1.13228 5.30587 1.17802
61 1 -1.1104 1.04172 10.8647 1.06758
66 2 2.2208 5.36898 9.58724 2.40898
67 1 -1.1104 0.990095 5.08297 3.86195
68 1 -1.1104 1.06156 10.8351 3.93016
71 1 -1.1104 3.91278 8.16298 0.920594
72 2 2.2208 2.49191 6.62182 2.5804
73 2 2.2208 2.46559 12.1252 2.3947
74 1 -1.1104 3.90358 7.96463 3.88119
75 2 2.2208 2.42854 9.5553 5.31053
76 1 -1.1104 3.81583 5.28764 1.05097
77 1 -1.1104 3.95555 10.823 0.988597
79 1 -1.1104 3.80595 5.22124 3.81235
80 1 -1.1104 3.94183 10.7502 3.88472
8491 2 2.2208 7.9844 -4.48154 2.37258
65 1 -1.1104 6.77002 10.8019 6.727
69 1 -1.1104 6.59825 5.27555 3.78763
57 1 -1.1104 6.82218 8.28646 1.03462
230 2 2.2208 8.17821 20.659 10.8867
238 1 -1.1104 3.87108 8.06344 6.63208
236 1 -1.1104 0.950414 5.25735 6.65722
234 1 -1.1104 1.08445 8.08429 6.68183
239 1 -1.1104 3.87584 5.25385 6.61347
78 1 -1.1104 3.85987 10.9943 6.65471
237 1 -1.1104 6.53331 5.11657 6.60412
9175 2 2.2208 -0.293767 0.989022 5.05723
59 1 -1.1104 6.74491 8.08752 3.78923
64 1 -1.1104 6.67189 10.9994 0.869484
70 1 -1.1104 6.65089 10.9924 3.75345
63 1 -1.1104 6.58822 5.41041 1.05284
84 2 2.2208 10.7606 6.62169 5.17713
85 2 2.2208 10.8694 12.3556 5.31153
86 1 -1.1104 12.3746 8.03319 1.12439
87 1 -1.1104 12.4447 8.07675 3.87351
88 1 -1.1104 12.3718 5.30237 0.989997
89 1 -1.1104 12.4205 10.8144 1.15162
91 2 2.2208 10.8632 9.46006 2.54161
92 1 -1.1104 12.256 5.29459 3.73391
93 1 -1.1104 12.1522 10.6718 4.08082
94 1 -1.1104 9.49497 8.11133 1.1522
95 2 2.2208 8.00148 6.74581 2.3905
96 2 2.2208 8.22322 12.2948 2.40399
97 1 -1.1104 9.53179 8.19227 3.88814
98 2 2.2208 8.11778 9.57524 5.24513
99 1 -1.1104 9.51935 5.29505 0.951048
100 1 -1.1104 9.45048 10.821 1.06662
102 1 -1.1104 9.42939 5.40462 3.71717
103 1 -1.1104 9.51724 11.0462 3.85071
266 1 -1.1104 12.1667 4.99694 6.61338
229 2 2.2208 8.19134 15.0691 10.9605
269 1 -1.1104 9.51025 5.1282 6.58467
267 1 -1.1104 9.39042 8.1128 6.61773
235 1 -1.1104 6.64623 8.06811 6.71099
27 2 2.2208 10.9137 18.0162 10.8728
312 1 -1.1104 9.65815 16.4698 9.53659
106 2 2.2208 5.30325 17.8614 5.1902
107 1 -1.1104 1.0574 13.608 1.07317
109 1 -1.1104 0.995861 19.25 1.16448
113 1 -1.1104 1.11278 13.5904 3.88431
114 1 -1.1104 1.15306 19.5173 3.87762
116 1 -1.1104 1.05274 16.4899 1.00886
119 2 2.2208 5.32838 15.1631 2.39
120 2 2.2208 5.35696 20.6863 2.37127
121 1 -1.1104 1.12644 16.3797 3.83043
123 1 -1.1104 3.83248 13.747 1.00733
125 1 -1.1104 3.82901 19.2734 1.01661
127 2 2.2208 2.54424 17.8585 2.39405
128 1 -1.1104 4.06389 13.5805 3.78412
129 1 -1.1104 4.02124 19.3166 3.82215
130 2 2.2208 2.51389 15.045 5.21191
131 2 2.2208 2.59663 20.7625 5.16596
132 1 -1.1104 4.06396 16.5306 1.00826
134 1 -1.1104 3.89719 16.402 3.70138
108 1 -1.1104 1.03647 13.8434 6.67784
110 1 -1.1104 6.77076 13.685 0.864859
324 2 2.2208 2.56284 15.0647 -0.378862
117 1 -1.1104 1.05851 16.3325 6.60301
124 1 -1.1104 4.02885 13.8422 6.74536
122 1 -1.1104 6.72111 16.3985 3.7681
115 1 -1.1104 6.73199 13.7432 3.81706
52 2 2.2208 13.5863 14.9996 -0.35457
139 1 -1.1104 6.84181 19.2291 3.92547
140 1 -1.1104 6.66109 16.5959 0.848902
138 1 -1.1104 6.71625 19.3213 1.06372
141 2 2.2208 10.9541 17.7672 5.27154
142 1 -1.1104 12.192 13.4587 1.10289
144 1 -1.1104 12.382 19.2021 1.14193
146 1 -1.1104 12.2881 13.638 3.83859
147 1 -1.1104 12.3596 19.2594 3.96662
148 1 -1.1104 12.4042 16.4365 1.01235
150 2 2.2208 11.0245 15.1161 2.33876
151 2 2.2208 10.9594 20.6181 2.38903
152 1 -1.1104 12.311 16.5095 3.80559
153 1 -1.1104 9.50014 13.6855 1.02976
155 1 -1.1104 9.53588 19.3704 0.940292
157 2 2.2208 8.13519 17.9608 2.46404
158 1 -1.1104 9.52881 13.8334 3.87584
159 1 -1.1104 9.53273 19.3102 3.85787
160 2 2.2208 7.96996 15.0991 5.23924
161 2 2.2208 8.27734 20.714 5.28067
162 1 -1.1104 9.70775 16.4477 0.918206
164 1 -1.1104 9.46941 16.5877 3.84528
163 1 -1.1104 9.44829 16.4286 6.60201
49 1 -1.1104 12.2328 19.2979 12.1957
156 1 -1.1104 9.50208 19.2616 6.61752
9015 2 2.2208 -0.323343 15.0328 2.53471
104 2 2.2208 11.0576 20.596 8.14801
8881 2 2.2208 -0.259493 -1.69773 2.44138
9177 2 2.2208 -0.234905 3.90576 2.42718
306 1 -1.1104 6.74412 16.4279 12.3393
174 1 -1.1104 3.79045 -0.361958 6.63346
175 2 2.2208 5.21312 1.00951 10.8512
176 1 -1.1104 1.08874 -3.2234 12.061
177 1 -1.1104 1.1568 2.27252 12.2397
180 1 -1.1104 0.968289 -3.2564 9.27512
181 1 -1.1104 0.915085 2.37527 9.4168
184 1 -1.1104 1.11447 -0.476567 12.2719
186 2 2.2208 5.25629 -1.76583 8.13181
187 2 2.2208 5.21213 3.79277 8.07701
188 1 -1.1104 1.14341 -0.315107 9.45758
190 1 -1.1104 3.8731 -3.14564 12.1175
191 1 -1.1104 3.84351 2.36364 12.235
192 2 2.2208 2.38083 0.932397 8.02456
193 1 -1.1104 3.86348 -3.25886 9.40018
194 1 -1.1104 3.66474 2.3383 9.434
195 2 2.2208 2.46738 -1.83766 10.7873
196 2 2.2208 2.59281 3.78423 10.8968
197 1 -1.1104 3.81137 -0.413615 12.133
198 1 -1.1104 3.86764 -0.496313 9.49514
168 1 -1.1104 6.66864 -3.06397 6.621
183 1 -1.1104 6.69743 2.44985 9.38508
200 2 2.2208 8.24039 17.9543 7.98998
9181 2 2.2208 -0.384321 6.67266 5.22204
53 1 -1.1104 12.3883 19.2554 9.61243
9091 2 2.2208 -0.190053 20.6788 2.51089
405 2 2.2208 13.6689 6.61176 13.5927
209 1 -1.1104 9.42546 2.27115 6.56859
50 1 -1.1104 12.2963 13.619 9.3751
9178 2 2.2208 -0.24264 0.980676 10.7818
207 1 -1.1104 12.4065 -0.4482 6.66435
206 1 -1.1104 12.3312 2.30334 6.54218
189 1 -1.1104 6.72564 -0.42525 9.48012
179 1 -1.1104 6.68778 2.37538 12.2464
178 1 -1.1104 6.86485 -3.21226 12.2373
182 1 -1.1104 6.69452 -3.14935 9.50636
185 1 -1.1104 6.71886 -0.395878 12.2874
211 2 2.2208 10.909 1.00232 10.9281
212 1 -1.1104 12.4053 -3.28444 12.2517
213 1 -1.1104 12.3606 2.44008 12.1649
214 1 -1.1104 12.2854 -3.20622 9.39988
215 1 -1.1104 12.3562 2.36483 9.24851
216 1 -1.1104 12.2593 -0.462041 12.2882
217 2 2.2208 10.8428 -1.784 8.11346
218 2 2.2208 10.8645 3.70812 7.91718
219 1 -1.1104 12.4313 -0.371413 9.46937
220 1 -1.1104 9.60358 -3.19092 12.396
221 1 -1.1104 9.47517 2.39477 12.1431
222 2 2.2208 8.0442 1.04662 8.01802
223 1 -1.1104 9.30617 -3.03554 9.51329
224 1 -1.1104 9.62354 2.44694 9.35829
225 2 2.2208 8.03864 -1.73 10.7928
226 2 2.2208 8.10124 3.87056 10.7589
227 1 -1.1104 9.50063 -0.29772 12.1591
228 1 -1.1104 9.46621 -0.273676 9.37565
296 1 -1.1104 6.75687 19.2685 12.229
25 2 2.2208 13.6482 14.9644 10.8205
62 1 -1.1104 1.03397 11.0861 6.61945
9172 2 2.2208 -0.368485 12.3319 5.34733
240 2 2.2208 5.30272 6.69659 10.9396
241 2 2.2208 5.15652 12.4137 10.9318
242 1 -1.1104 1.0458 7.94436 12.2729
244 1 -1.1104 1.25089 7.95181 9.37848
246 1 -1.1104 1.1945 5.32803 12.3192
247 1 -1.1104 1.17213 10.8374 12.4994
250 2 2.2208 5.27763 9.48767 8.09968
251 1 -1.1104 1.12342 5.18412 9.45993
252 1 -1.1104 1.03961 10.7384 9.52699
255 1 -1.1104 4.13422 8.17956 12.3559
256 2 2.2208 2.48735 6.6419 8.0305
257 2 2.2208 2.55809 12.4189 8.10734
258 1 -1.1104 3.96656 7.9572 9.50379
259 2 2.2208 2.41074 9.51793 10.926
260 1 -1.1104 3.93917 5.12481 12.3947
261 1 -1.1104 3.70309 11.0708 12.2816
262 1 -1.1104 3.83568 5.20551 9.47362
263 1 -1.1104 3.7696 10.832 9.44603
243 1 -1.1104 6.85028 8.17788 12.2433
249 1 -1.1104 6.7049 10.9202 12.3677
245 1 -1.1104 6.77998 7.99197 9.54301
83 2 2.2208 10.9587 15.1389 8.14542
165 1 -1.1104 9.59041 19.4499 12.1764
101 1 -1.1104 9.52504 10.9513 6.57019
105 1 -1.1104 12.5077 16.4234 9.40355
90 1 -1.1104 12.2406 10.8759 6.80734
248 1 -1.1104 6.74012 5.0483 12.2992
265 1 -1.1104 12.306 7.93924 6.64644
254 1 -1.1104 6.64169 10.9896 9.53408
253 1 -1.1104 6.58422 5.2045 9.40363
264 1 -1.1104 9.40079 10.8478 9.46585
268 1 -1.1104 9.44716 5.17355 9.25443
270 1 -1.1104 9.555 10.8303 12.2847
271 1 -1.1104 9.59243 5.28037 12.1665
272 2 2.2208 8.12066 9.57597 10.9061
273 1 -1.1104 9.42611 8.04196 9.44387
274 2 2.2208 7.99962 12.4114 8.06981
275 2 2.2208 7.99907 6.67467 8.03574
276 2 2.2208 10.8359 6.63043 10.7261
277 2 2.2208 10.9383 12.1812 10.8945
278 1 -1.1104 12.3789 7.94124 12.1623
279 1 -1.1104 12.2551 8.05465 9.4785
280 1 -1.1104 12.3155 5.16027 12.3306
281 1 -1.1104 12.3086 10.9392 12.1333
282 2 2.2208 10.8657 9.42001 8.01489
283 1 -1.1104 12.4165 5.28168 9.51478
284 1 -1.1104 12.2735 10.7419 9.46925
285 1 -1.1104 9.61618 8.02909 12.2617
118 1 -1.1104 6.74213 16.535 6.66163
302 1 -1.1104 1.23611 19.2938 6.67231
126 1 -1.1104 3.9691 19.3194 6.50684
111 1 -1.1104 6.59052 13.5703 6.77648
204 1 -1.1104 9.53797 19.2175 9.39466
9176 2 2.2208 -0.37866 3.82024 7.90189
232 2 2.2208 13.611 3.97105 5.14077
133 1 -1.1104 3.93246 16.6774 6.51232
310 2 2.2208 2.40384 15.0694 10.8356
286 1 -1.1104 4.10238 19.382 12.3496
287 1 -1.1104 3.90867 13.8507 12.3077
291 1 -1.1104 1.07532 19.2396 9.53669
292 1 -1.1104 1.00245 16.451 9.22689
293 2 2.2208 5.31377 20.6527 8.02388
294 1 -1.1104 1.22532 13.6184 9.5098
295 2 2.2208 5.36694 15.2419 8.15015
298 1 -1.1104 1.29755 19.0104 12.2173
299 1 -1.1104 1.14264 13.6152 12.2708
300 2 2.2208 5.31643 17.912 10.9367
301 1 -1.1104 3.839 19.271 9.42842
303 2 2.2208 2.56203 17.9047 7.91933
304 1 -1.1104 3.83704 16.4042 9.40488
305 1 -1.1104 3.82345 13.736 9.52544
307 1 -1.1104 1.06997 16.4269 12.2988
308 1 -1.1104 3.93606 16.5112 12.3469
309 2 2.2208 2.63618 20.7327 10.8374
290 1 -1.1104 6.57157 13.6812 9.55093
233 1 -1.1104 9.57871 16.4063 12.3307
137 1 -1.1104 9.54953 13.5831 12.3327
201 1 -1.1104 9.52265 13.6449 9.50976
30 1 -1.1104 12.3473 13.6957 12.3657
145 1 -1.1104 12.2861 19.1511 6.71791
149 1 -1.1104 12.3734 16.4053 6.63278
154 1 -1.1104 9.43411 13.7642 6.83476
112 1 -1.1104 6.66294 19.2566 6.75155
82 1 -1.1104 12.2976 16.5931 12.1842
143 1 -1.1104 12.3696 13.5851 6.67056
202 2 2.2208 13.6316 1.0624 2.30348
9096 2 2.2208 -0.257196 17.8592 10.8251
26 2 2.2208 13.6564 9.3681 10.7976
9190 2 2.2208 -0.348096 9.42951 8.20774
9075 2 2.2208 -0.232166 6.56463 10.9044
335 2 2.2208 2.51505 1.05079 13.6121
331 2 2.2208 10.9924 -1.84551 13.6468
8882 2 2.2208 -0.286719 12.3467 -0.305345
642 2 2.2208 2.55066 6.63884 13.6403
655 2 2.2208 10.8553 9.38215 13.6275
658 2 2.2208 8.09504 6.489 13.6122
333 2 2.2208 8.16471 0.907494 13.6505
671 2 2.2208 8.03402 3.98059 -0.332985
644 2 2.2208 10.8891 3.71901 13.6483
336 2 2.2208 5.28696 -1.7634 13.6095
9193 2 2.2208 -0.310837 3.8473 13.6183
322 2 2.2208 8.00882 20.7483 -0.220916
315 2 2.2208 2.48935 9.53771 -0.387287
675 2 2.2208 2.54667 3.89883 -0.331566
81 2 2.2208 10.9156 6.65254 -0.28814
337 2 2.2208 5.46564 0.932175 16.4282
338 1 -1.1104 1.00368 -3.25769 17.5856
339 1 -1.1104 1.22415 2.38462 17.9308
342 1 -1.1104 1.1609 -3.22624 14.8251
344 1 -1.1104 1.11592 2.49968 15.0463
350 1 -1.1104 1.08869 -0.355683 17.9951
352 2 2.2208 5.23409 -1.88317 19.1878
353 2 2.2208 5.46856 3.80645 19.2972
354 1 -1.1104 1.26948 -0.330811 15.1229
358 1 -1.1104 3.86993 -3.2106 17.8871
359 1 -1.1104 3.98413 2.20272 17.6085
360 2 2.2208 2.58055 0.976642 19.2083
361 1 -1.1104 3.96272 -3.20645 15.1457
363 1 -1.1104 3.90269 2.33324 14.7782
365 2 2.2208 2.45102 -1.8043 16.2837
366 2 2.2208 2.60838 3.7672 16.5775
367 1 -1.1104 3.81283 -0.451634 17.9547
368 1 -1.1104 4.05207 -0.442828 14.9829
362 1 -1.1104 3.82467 -3.16461 20.5799
343 1 -1.1104 0.961022 -3.26428 20.596
9369 2 2.2208 -0.279312 20.6819 13.7528
356 1 -1.1104 6.78182 -0.379672 15.1024
9301 2 2.2208 -0.157602 1.01568 16.5181
348 1 -1.1104 6.7844 2.2716 14.9758
9529 2 2.2208 -0.338621 12.1515 16.6166
654 2 2.2208 2.52674 17.8366 13.7573
369 1 -1.1104 3.95588 -0.293835 20.6174
345 1 -1.1104 1.14942 2.40714 20.7859
364 1 -1.1104 3.96298 2.59382 20.6456
9444 2 2.2208 -0.308261 17.882 16.5109
334 2 2.2208 5.44112 3.83962 13.761
351 1 -1.1104 6.75105 -0.424218 18.0259
340 1 -1.1104 6.72492 -3.12466 17.7969
346 1 -1.1104 6.70494 -3.04567 14.9608
341 1 -1.1104 6.83756 2.33548 17.8157
380 2 2.2208 10.9722 0.941475 16.4254
381 1 -1.1104 12.4177 -3.30414 17.8661
382 1 -1.1104 12.394 2.39313 17.9018
383 1 -1.1104 12.2852 -3.28771 14.9914
385 1 -1.1104 12.2166 2.49328 15.0755
387 1 -1.1104 12.3408 -0.618186 18.0083
388 2 2.2208 11.0086 -1.85754 19.296
389 2 2.2208 10.8386 3.7658 19.1798
390 1 -1.1104 12.3672 -0.489207 15.075
392 1 -1.1104 9.61503 -3.11539 17.907
393 1 -1.1104 9.58629 2.29008 17.7012
394 2 2.2208 8.12863 0.979401 19.2794
395 1 -1.1104 9.56272 -3.26585 15.1413
397 1 -1.1104 9.63469 2.23906 14.9276
399 2 2.2208 8.16622 -1.79965 16.5242
400 2 2.2208 8.21655 3.84128 16.3632
401 1 -1.1104 9.57038 -0.439214 17.9179
402 1 -1.1104 9.51744 -0.418011 15.0997
396 1 -1.1104 9.52396 -3.39704 20.6535
347 1 -1.1104 6.71405 -3.19685 20.5992
384 1 -1.1104 12.3224 -3.17177 20.6606
398 1 -1.1104 9.31682 2.40157 20.5854
413 2 2.2208 5.26694 6.5731 16.5406
414 2 2.2208 5.33132 12.1948 16.6537
415 1 -1.1104 0.881904 8.01667 17.9155
417 1 -1.1104 1.15895 8.06613 15.0218
421 1 -1.1104 1.07624 5.1931 17.8758
422 1 -1.1104 1.08629 10.8504 17.8785
425 2 2.2208 5.25841 9.41011 19.4123
426 1 -1.1104 1.16107 5.27507 15.098
428 1 -1.1104 1.22776 10.7364 15.2528
434 1 -1.1104 3.76455 7.97067 18.0207
435 2 2.2208 2.38043 6.63366 19.2958
436 2 2.2208 2.34199 12.2087 19.4098
437 1 -1.1104 3.88819 7.94254 15.1336
439 2 2.2208 2.48822 9.38407 16.5971
440 1 -1.1104 3.85874 5.09829 17.9944
441 1 -1.1104 3.84826 10.6791 17.949
442 1 -1.1104 3.96016 5.11835 15.1719
444 1 -1.1104 3.95405 10.6472 15.1394
419 1 -1.1104 6.74998 8.1364 15.0894
9371 2 2.2208 -0.330307 17.9576 22.0545
432 1 -1.1104 6.74008 10.8834 15.2069
433 1 -1.1104 6.6326 10.899 20.6926
443 1 -1.1104 4.05914 5.36574 20.674
429 1 -1.1104 0.938417 10.7589 20.644
528 1 -1.1104 9.48306 13.5744 20.6213
8841 2 2.2208 2.41552 -4.51547 19.1149
596 1 -1.1104 6.68951 13.6474 26.3598
8851 2 2.2208 2.39271 -4.50333 24.8246
423 1 -1.1104 6.76401 5.10158 17.8636
416 1 -1.1104 6.65619 7.87544 17.9194
430 1 -1.1104 6.7059 5.16241 15.1317
424 1 -1.1104 6.61794 10.9093 18.0147
449 2 2.2208 11.0088 6.56867 16.388
450 2 2.2208 10.951 12.2261 16.4172
451 1 -1.1104 12.3674 7.992 17.8176
452 1 -1.1104 12.2229 8.03329 15.1441
454 1 -1.1104 12.4748 5.32505 17.7835
455 1 -1.1104 12.2467 10.8747 18.0018
456 2 2.2208 10.8345 9.30617 19.1522
457 1 -1.1104 12.4008 5.24311 15.086
459 1 -1.1104 12.3071 10.8759 15.0353
461 1 -1.1104 9.57988 7.96072 17.8186
462 2 2.2208 8.12324 6.68513 19.3047
463 2 2.2208 8.10814 12.26 19.1888
464 1 -1.1104 9.42931 7.96774 15.0304
466 2 2.2208 8.09354 9.40089 16.4364
467 1 -1.1104 9.59482 5.25133 17.6935
468 1 -1.1104 9.37678 10.7311 17.879
469 1 -1.1104 9.55873 5.03592 14.9808
471 1 -1.1104 9.58101 10.7222 15.1865
420 1 -1.1104 6.70537 8.282 20.6487
431 1 -1.1104 6.76147 5.50874 20.6646
453 1 -1.1104 12.2422 8.06556 20.6058
458 1 -1.1104 12.22 5.1693 20.4641
8848 2 2.2208 5.35493 -4.54072 16.3983
17541 2 2.2208 -0.289551 -4.54595 27.6018
476 2 2.2208 5.31564 17.9437 16.4745
477 1 -1.1104 1.06756 13.6007 17.8928
478 1 -1.1104 1.14213 19.2486 17.8816
481 1 -1.1104 1.06728 13.5404 15.16
483 1 -1.1104 1.21422 19.1701 15.0263
489 1 -1.1104 0.936558 16.3262 17.7816
491 2 2.2208 5.26251 14.9838 19.3345
492 2 2.2208 5.30734 20.5547 19.3302
493 1 -1.1104 1.10415 16.4145 15.1771
497 1 -1.1104 3.88386 13.5147 18.0062
498 1 -1.1104 3.81544 19.2062 17.8327
499 2 2.2208 2.43266 17.7255 19.236
500 1 -1.1104 3.90977 13.4996 15.1913
502 1 -1.1104 3.87907 19.2225 15.2259
504 2 2.2208 2.54961 14.898 16.6164
505 2 2.2208 2.5642 20.6593 16.3509
506 1 -1.1104 3.87701 16.3712 17.9736
507 1 -1.1104 3.8571 16.3043 15.2697
9267 2 2.2208 -0.224343 3.68422 19.2357
9412 2 2.2208 -0.362394 20.6651 19.2739
485 1 -1.1104 6.72756 13.6044 15.0934
495 1 -1.1104 6.59049 16.5064 15.102
508 1 -1.1104 3.86312 16.3392 20.6882
484 1 -1.1104 1.15669 19.1654 20.6144
501 1 -1.1104 3.76475 13.5743 20.6532
9227 2 2.2208 -0.289908 -1.78774 19.1437
670 2 2.2208 10.9909 1.10971 27.5983
645 2 2.2208 10.9338 15.1564 13.7243
604 1 -1.1104 9.73791 19.1207 23.4886
530 1 -1.1104 9.74203 19.1292 20.7023
479 1 -1.1104 6.67678 13.6804 17.965
490 1 -1.1104 6.80132 16.5528 17.9208
480 1 -1.1104 6.77678 19.2873 18.1312
487 1 -1.1104 6.66562 19.2682 14.9994
512 2 2.2208 10.9987 17.8476 16.3588
513 1 -1.1104 12.46 13.6196 17.7868
514 1 -1.1104 12.2268 19.3901 17.8378
515 1 -1.1104 12.4925 13.7439 15.1743
517 1 -1.1104 12.5455 19.4564 15.0302
519 1 -1.1104 12.4656 16.5345 17.8288
520 2 2.2208 10.9702 14.9938 19.2236
521 2 2.2208 10.9561 20.6028 19.3172
522 1 -1.1104 12.3191 16.51 15.029
524 1 -1.1104 9.53587 13.4894 17.7804
525 1 -1.1104 9.61489 19.1935 17.8519
526 2 2.2208 8.24947 17.9078 19.3206
527 1 -1.1104 9.59032 13.661 15.0454
529 1 -1.1104 9.55945 19.387 15.0145
531 2 2.2208 8.14143 15.0309 16.458
532 2 2.2208 8.16849 20.6504 16.5668
533 1 -1.1104 9.57132 16.3169 18.055
534 1 -1.1104 9.54752 16.5288 15.1685
486 1 -1.1104 6.61395 13.7415 20.7056
409 1 -1.1104 12.426 19.0041 23.428
325 2 2.2208 10.9775 17.9384 27.6934
523 1 -1.1104 12.3765 16.3373 20.5624
488 1 -1.1104 6.82568 19.2789 20.8254
594 1 -1.1104 6.85123 16.3837 26.2303
673 2 2.2208 2.50921 -1.81371 27.578
447 1 -1.1104 6.60629 16.4976 23.6082
649 2 2.2208 2.56976 12.2822 13.8078
539 1 -1.1104 6.85714 19.3502 23.6591
355 1 -1.1104 1.08667 -0.375547 20.7765
540 2 2.2208 5.266 1.06514 22.0926
541 1 -1.1104 1.02048 -3.20791 23.4447
542 1 -1.1104 0.963695 2.53574 23.555
545 1 -1.1104 1.13074 -3.23644 26.2149
546 1 -1.1104 1.06245 2.35035 26.3878
549 1 -1.1104 1.13008 -0.288409 23.4091
551 2 2.2208 5.29143 -1.62721 24.8795
552 2 2.2208 5.25948 3.92777 24.873
553 1 -1.1104 1.10225 -0.46954 26.1203
555 1 -1.1104 3.75731 -2.98419 23.4805
556 1 -1.1104 3.76222 2.52499 23.4351
557 2 2.2208 2.45742 1.1306 24.9014
558 1 -1.1104 3.93425 -3.09073 26.1628
559 1 -1.1104 3.94598 2.49967 26.1411
560 2 2.2208 2.39071 -1.681 22.1492
561 2 2.2208 2.52233 3.90175 22.1313
562 1 -1.1104 3.79761 -0.203502 23.5234
563 1 -1.1104 3.96196 -0.323051 26.3387
357 1 -1.1104 6.68874 -0.266829 20.7065
9304 2 2.2208 -0.306291 20.7769 24.8882
516 1 -1.1104 12.3196 13.7037 20.6601
391 1 -1.1104 12.401 -0.317263 20.7228
349 1 -1.1104 6.70483 2.54491 20.616
543 1 -1.1104 6.50617 -3.08802 23.4406
548 1 -1.1104 6.76291 2.75423 26.2802
403 1 -1.1104 9.54784 -0.429948 20.6717
386 1 -1.1104 12.1681 2.38086 20.6913
550 1 -1.1104 6.78874 -0.371637 23.6013
554 1 -1.1104 6.82049 -0.0679662 26.4239
547 1 -1.1104 6.76313 -3.10957 26.308
544 1 -1.1104 6.59225 2.42341 23.4183
576 2 2.2208 10.9225 1.09863 22.1757
577 1 -1.1104 12.1875 -3.24178 23.515
578 1 -1.1104 12.4064 2.40168 23.5782
579 1 -1.1104 12.3852 -3.02432 26.4307
580 1 -1.1104 12.3571 2.55925 26.2875
581 1 -1.1104 12.2115 -0.394851 23.5183
582 2 2.2208 10.9531 -1.70984 24.8237
583 2 2.2208 10.982 3.89484 24.9192
584 1 -1.1104 12.3597 -0.225348 26.2448
585 1 -1.1104 9.27413 -3.08031 23.5059
586 1 -1.1104 9.47289 2.59203 23.4766
587 2 2.2208 8.18165 1.17188 24.8489
588 1 -1.1104 9.62239 -3.14181 26.2689
589 1 -1.1104 9.61434 2.50755 26.3093
590 2 2.2208 8.04119 -1.69514 22.0402
591 2 2.2208 8.12881 3.90603 22.1335
592 1 -1.1104 9.47311 -0.287698 23.4364
593 1 -1.1104 9.52406 -0.310047 26.2249
438 1 -1.1104 3.90751 7.98785 20.9023
427 1 -1.1104 1.11255 5.1437 20.7378
445 1 -1.1104 3.82925 10.713 20.779
602 1 -1.1104 12.2263 16.4864 26.1816
573 1 -1.1104 12.1872 16.1323 23.3004
418 1 -1.1104 1.04022 7.99084 20.9059
605 2 2.2208 5.30465 6.61747 22.1224
606 2 2.2208 5.25901 12.2345 22.0449
607 1 -1.1104 0.987894 7.98172 23.5654
609 1 -1.1104 1.22438 8.0828 26.3564
611 1 -1.1104 1.16708 5.33199 23.5264
612 1 -1.1104 1.1542 10.7748 23.5316
615 2 2.2208 5.29648 9.4829 24.8852
616 1 -1.1104 1.02385 5.1805 26.4656
617 1 -1.1104 1.07686 10.9538 26.1469
620 1 -1.1104 4.02604 7.93697 23.6208
621 2 2.2208 2.51836 6.71442 24.8442
622 2 2.2208 2.47329 12.1188 24.874
623 1 -1.1104 3.84646 8.1974 26.2595
624 2 2.2208 2.43785 9.28334 22.1449
625 1 -1.1104 3.90474 5.32876 23.506
626 1 -1.1104 3.87328 10.8922 23.4433
627 1 -1.1104 3.81686 5.33098 26.3047
628 1 -1.1104 3.80813 10.9782 26.2372
618 1 -1.1104 6.53861 5.55249 26.1607
610 1 -1.1104 6.68687 8.18799 26.1422
608 1 -1.1104 6.74104 8.03487 23.3874
619 1 -1.1104 6.78291 10.7764 26.257
646 2 2.2208 5.27102 15.1004 13.8081
634 1 -1.1104 9.46012 13.7165 26.3189
470 1 -1.1104 9.49839 5.19184 20.7234
465 1 -1.1104 9.51218 8.00376 20.5957
404 2 2.2208 11.0632 17.7555 22.0278
613 1 -1.1104 6.6935 5.19831 23.3427
460 1 -1.1104 12.5234 10.7799 20.7725
472 1 -1.1104 9.58792 10.7759 20.48
614 1 -1.1104 6.62304 10.9038 23.4875
373 1 -1.1104 12.4521 11.1133 26.325
374 1 -1.1104 12.1198 5.41059 26.3556
375 2 2.2208 10.8548 9.41525 24.8345
377 1 -1.1104 12.2787 10.6906 23.5196
378 1 -1.1104 12.4033 5.18418 23.4017
567 1 -1.1104 12.24 8.27126 26.3123
569 2 2.2208 10.9341 12.1907 22.1605
570 2 2.2208 10.9197 6.5643 22.0424
571 2 2.2208 8.12028 6.6646 24.85
597 1 -1.1104 12.2279 7.89831 23.4239
599 2 2.2208 7.9725 12.2729 24.8988
631 1 -1.1104 9.52997 7.91899 23.6067
636 1 -1.1104 9.61427 10.8618 26.275
637 1 -1.1104 9.46668 5.25384 26.1852
638 1 -1.1104 9.41953 10.8652 23.5363
639 1 -1.1104 9.68325 5.22531 23.4198
640 2 2.2208 8.1452 9.49194 22.107
641 1 -1.1104 9.38164 7.95509 26.5226
408 1 -1.1104 12.3383 13.4125 23.4514
633 1 -1.1104 6.75765 19.1581 26.3955
632 2 2.2208 8.17182 17.785 24.9132
482 1 -1.1104 0.907915 13.4813 20.8451
503 1 -1.1104 4.08354 19.0806 20.7587
494 1 -1.1104 1.16721 16.3097 20.5625
536 1 -1.1104 6.68694 13.652 23.4739
635 1 -1.1104 9.55186 19.2695 26.3149
595 1 -1.1104 3.99291 13.6219 23.546
566 1 -1.1104 0.987421 19.2172 26.2016
565 1 -1.1104 0.983818 16.6629 26.2041
564 1 -1.1104 1.03632 13.678 26.3477
538 2 2.2208 5.40547 20.7378 24.9835
510 1 -1.1104 1.06315 13.5524 23.5402
537 2 2.2208 5.3499 15.1483 24.7549
511 1 -1.1104 1.04686 19.3948 23.3176
509 2 2.2208 5.41403 17.8956 22.1082
598 1 -1.1104 3.96822 19.1579 23.5455
410 2 2.2208 2.50928 15.0374 22.07
411 2 2.2208 2.6036 20.6582 22.1116
412 1 -1.1104 3.80337 16.5299 23.3546
446 1 -1.1104 1.02525 16.3987 23.389
448 1 -1.1104 3.76957 13.7172 26.2747
473 1 -1.1104 3.82192 16.6168 26.2446
474 2 2.2208 2.29823 17.9775 24.76
475 1 -1.1104 3.89816 19.3237 26.2111
574 2 2.2208 10.9509 15.0464 24.9724
648 2 2.2208 5.42225 9.54122 13.6958
603 1 -1.1104 9.60872 13.5864 23.4908
379 1 -1.1104 9.62202 16.5055 26.3286
572 1 -1.1104 12.3886 19.2817 26.3369
518 1 -1.1104 12.5963 19.2824 20.6597
630 2 2.2208 8.19698 14.9167 22.2161
629 2 2.2208 8.20974 20.7521 22.2579
601 1 -1.1104 9.3828 16.3798 23.5554
496 1 -1.1104 6.80336 16.409 20.9089
535 1 -1.1104 9.64106 16.3963 20.7599
575 2 2.2208 10.9985 20.64 25.0624
568 1 -1.1104 12.2299 13.7609 26.4473
9375 2 2.2208 -0.238956 3.94694 24.9468
9343 2 2.2208 -0.334266 6.67144 22.161
9265 2 2.2208 -0.279376 -1.81584 24.8411
647 2 2.2208 5.32685 20.7686 13.6931
9226 2 2.2208 -0.297797 6.58564 16.4389
370 2 2.2208 8.06848 17.9188 13.7024
9305 2 2.2208 -0.214278 15.0134 24.9377
9223 2 2.2208 -0.303002 9.45637 24.928
667 2 2.2208 13.6533 12.1808 24.757
9530 2 2.2208 -0.286325 0.900923 27.5775
9417 2 2.2208 -0.361919 15.0107 19.2437
9373 2 2.2208 -0.314733 9.37583 19.2466
9230 2 2.2208 -0.323335 1.02749 22.0847
9224 2 2.2208 -0.259627 15.0538 13.6967
665 2 2.2208 13.6415 1.01986 19.2241
9416 2 2.2208 -0.298047 9.43629 13.7795
203 2 2.2208 10.8891 12.1111 27.6779
317 2 2.2208 8.22406 15.049 27.6816
199 2 2.2208 8.12331 9.51376 27.6164
668 2 2.2208 8.03069 -1.6572 27.6186
323 2 2.2208 5.37919 17.8118 27.5672
674 2 2.2208 5.36771 1.13543 27.706
372 2 2.2208 11.0066 20.7815 13.7729
318 2 2.2208 2.51067 20.5913 27.727
327 2 2.2208 5.32569 6.75518 27.7011
656 2 2.2208 8.19758 12.2607 13.7
676 2 2.2208 5.36765 23.4619 5.27919
677 2 2.2208 5.49622 29.0672 5.3575
678 1 -1.1104 1.15732 24.8645 1.01037
679 1 -1.1104 1.08007 24.8766 3.81413
680 1 -1.1104 1.16951 21.9722 1.03984
681 1 -1.1104 1.17426 27.6628 0.997444
682 2 2.2208 5.38273 26.3561 2.56368
683 1 -1.1104 1.12621 22.2365 3.77488
684 1 -1.1104 1.13486 27.6918 3.88038
685 1 -1.1104 3.93618 24.9792 1.09898
686 2 2.2208 2.60812 23.5575 2.38106
687 2 2.2208 2.53835 29.0355 2.52321
688 1 -1.1104 3.9029 24.8506 3.9367
689 2 2.2208 2.55868 26.2293 5.24476
690 1 -1.1104 4.0043 22.0444 1.03625
691 1 -1.1104 3.84449 27.5781 1.14962
692 1 -1.1104 3.99335 22.1134 3.72533
693 1 -1.1104 4.09476 27.7996 3.81447
820 1 -1.1104 1.05515 27.6706 6.59592
9852 2 2.2208 -0.240904 23.5137 5.19565
819 1 -1.1104 1.12262 22.1414 6.56172
825 1 -1.1104 4.00882 27.7652 6.71107
824 1 -1.1104 3.85747 22.0348 6.7044
1013 2 2.2208 8.11604 26.356 -0.217879
9755 2 2.2208 -0.256887 26.3406 2.44135
9875 2 2.2208 -0.232624 29.0969 5.4258
953 1 -1.1104 6.78021 41.6797 9.51582
702 1 -1.1104 6.84967 27.5183 3.84906
701 1 -1.1104 6.79561 22.1674 3.85897
699 1 -1.1104 6.70394 22.1177 1.12452
698 1 -1.1104 6.81108 24.9185 3.93201
697 1 -1.1104 6.67932 25.0434 1.07221
700 1 -1.1104 6.71163 27.8389 1.2881
703 2 2.2208 10.9513 23.4717 5.27071
704 2 2.2208 11.1597 29.0239 5.31654
705 1 -1.1104 12.5033 24.9201 1.18667
706 1 -1.1104 12.3319 24.8541 4.0044
707 1 -1.1104 12.3814 22.1382 1.15463
708 1 -1.1104 12.5364 27.5819 1.26806
709 2 2.2208 11.0242 26.2504 2.51584
710 1 -1.1104 12.2746 22.0063 3.96361
711 1 -1.1104 12.4584 27.5774 3.88563
712 1 -1.1104 9.57207 24.8627 1.06593
713 2 2.2208 8.17008 23.6182 2.39417
714 2 2.2208 8.22711 29.0408 2.60368
715 1 -1.1104 9.70261 24.9142 3.77931
716 2 2.2208 8.2107 26.1767 5.28972
717 1 -1.1104 9.58565 22.0859 0.942789
718 1 -1.1104 9.62782 27.612 1.17471
719 1 -1.1104 9.3807 22.0364 3.77694
720 1 -1.1104 9.49714 27.7462 4.00242
852 1 -1.1104 12.3144 27.6632 6.80356
855 1 -1.1104 9.63326 27.5345 6.78752
853 1 -1.1104 9.5021 24.8144 6.68128
970 1 -1.1104 9.21424 44.2076 12.366
971 1 -1.1104 9.54439 38.8436 12.336
724 2 2.2208 5.40784 34.6964 5.42087
725 1 -1.1104 1.09746 30.3816 1.02942
726 1 -1.1104 1.1281 36.1136 1.17328
728 1 -1.1104 1.17564 30.4997 3.90795
729 1 -1.1104 1.24519 36.0545 4.00056
731 1 -1.1104 1.07315 33.2883 1.11214
732 2 2.2208 5.35261 31.8519 2.70958
733 2 2.2208 5.275 37.5297 2.62672
734 1 -1.1104 1.00864 33.2685 3.82272
736 1 -1.1104 3.87626 30.5885 1.33464
737 1 -1.1104 3.78523 35.9903 1.0849
738 2 2.2208 2.48521 34.6591 2.5849
739 1 -1.1104 3.97993 30.512 4.01905
740 1 -1.1104 3.91007 36.0827 4.02158
741 2 2.2208 2.55829 31.8549 5.31116
742 2 2.2208 2.56501 37.4671 5.53629
743 1 -1.1104 3.85363 33.2728 1.18173
744 1 -1.1104 3.92488 33.2249 3.97243
735 1 -1.1104 6.80097 33.3435 3.94931
878 1 -1.1104 1.15782 33.2961 6.72219
975 2 2.2208 8.12405 40.2096 8.24996
9868 2 2.2208 -0.234354 37.3945 2.67267
9853 2 2.2208 -0.25042 34.6915 5.39045
727 1 -1.1104 6.74872 36.1118 1.20259
750 1 -1.1104 6.67893 33.2532 1.23124
749 1 -1.1104 6.70145 30.5107 4.03241
748 1 -1.1104 6.7542 30.5297 1.24098
730 1 -1.1104 6.67118 35.9876 4.06173
879 1 -1.1104 6.64854 33.373 6.83846
751 2 2.2208 11.0086 34.726 5.4164
752 1 -1.1104 12.4944 30.3783 1.07607
753 1 -1.1104 12.386 36.0081 1.18931
754 1 -1.1104 12.5679 30.3583 3.92334
755 1 -1.1104 12.2842 36.1408 3.99358
756 1 -1.1104 12.4152 33.1031 1.25637
757 2 2.2208 11.1874 31.7459 2.69517
758 2 2.2208 11.0012 37.4454 2.47099
759 1 -1.1104 12.3534 33.2059 4.05833
760 1 -1.1104 9.68328 30.4322 1.16385
761 1 -1.1104 9.5819 35.9664 1.04015
762 2 2.2208 8.19222 34.5723 2.49896
763 1 -1.1104 9.58311 30.4923 4.02164
764 1 -1.1104 9.51824 36.1012 3.78479
765 2 2.2208 8.17409 31.9516 5.45201
766 2 2.2208 8.00428 37.4742 5.27286
767 1 -1.1104 9.65387 33.2424 1.19212
768 1 -1.1104 9.59304 33.3363 3.93504
911 1 -1.1104 9.64688 30.5551 6.69338