ITEM: TIMESTEP
60000
ITEM: NUMBER OF ATOMS
17760
ITEM: BOX BOUNDS pp pp pp
-3.7383697702840768e-01 2.7713836977028389e+01
-4.5861427848629024e+00 3.3266614278487037e+02
-3.7082250515091914e-01 2.7710822505150823e+01
ITEM: ATOMS id type q x y z
1 2 2.2208 5.25907 0.886379 5.35986
2 1 -1.1104 1.05002 -3.17942 0.994988
3 1 -1.1104 0.996058 2.30968 1.09189
6 1 -1.1104 0.887892 -3.32477 3.80603
7 1 -1.1104 0.90156 2.25819 3.911
10 1 -1.1104 1.03842 -0.452973 1.03925
12 2 2.2208 5.29905 -1.80521 2.42249
13 2 2.2208 5.1714 3.81886 2.57799
14 1 -1.1104 1.106 -0.510975 3.91126
16 1 -1.1104 3.84342 -3.19413 0.906984
17 1 -1.1104 3.74449 2.31081 1.22483
18 2 2.2208 2.40935 0.981983 2.53518
19 1 -1.1104 3.81375 -3.35885 3.66591
20 1 -1.1104 3.7583 2.29027 4.0029
21 2 2.2208 2.35093 -1.9262 5.38006
22 2 2.2208 2.44846 3.78884 5.30244
23 1 -1.1104 3.81604 -0.485157 1.06268
24 1 -1.1104 3.83263 -0.459602 3.97219
17375 2 2.2208 -0.478152 -4.63392 11.0034
145 1 -1.1104 12.331 19.1805 6.83227
8491 2 2.2208 8.02282 -4.69391 2.50503
15 1 -1.1104 6.57531 -0.459552 3.88333
8487 2 2.2208 2.44911 -4.58246 8.13072
8510 2 2.2208 10.8041 -4.64638 10.8239
173 1 -1.1104 3.79014 2.52363 6.71693
172 1 -1.1104 3.82548 -3.29738 6.67013
171 1 -1.1104 6.66411 -0.471356 6.61525
326 2 2.2208 13.7224 6.63467 2.49648
154 1 -1.1104 9.50457 13.5674 6.70712
52 2 2.2208 13.7729 14.9969 -0.389911
11 1 -1.1104 6.68954 -0.354556 1.1197
5 1 -1.1104 6.43389 2.34548 1.1131
8 1 -1.1104 6.52222 -3.26869 3.87858
4 1 -1.1104 6.64535 -3.1938 1.14711
9 1 -1.1104 6.55531 2.38228 3.85034
31 2 2.2208 10.8298 0.91403 5.24496
32 1 -1.1104 12.1552 -3.05097 1.05654
33 1 -1.1104 12.1312 2.49549 1.09422
34 1 -1.1104 12.0708 -3.06583 3.90874
35 1 -1.1104 12.289 2.53183 3.96368
36 1 -1.1104 12.1658 -0.460408 1.00254
37 2 2.2208 10.7075 -1.73228 2.51918
38 2 2.2208 10.8902 3.92543 2.57917
39 1 -1.1104 12.2298 -0.405626 3.93939
40 1 -1.1104 9.44158 -3.16666 1.14902
41 1 -1.1104 9.36417 2.49184 1.0629
42 2 2.2208 7.95196 1.04102 2.57404
43 1 -1.1104 9.37727 -3.30205 3.81346
44 1 -1.1104 9.3335 2.44283 3.89658
45 2 2.2208 7.98493 -1.86156 5.21727
46 2 2.2208 7.9716 3.72663 5.45267
47 1 -1.1104 9.35341 -0.444129 1.15915
48 1 -1.1104 9.45396 -0.354376 3.96524
208 1 -1.1104 9.17771 -3.25365 6.62089
206 1 -1.1104 12.1983 2.41623 6.79974
169 1 -1.1104 6.66906 2.34199 6.69332
671 2 2.2208 8.12295 3.841 -0.359799
54 2 2.2208 5.11991 6.62109 5.4403
55 2 2.2208 5.29661 12.1168 5.27386
56 1 -1.1104 1.0379 7.82828 1.17417
58 1 -1.1104 1.03552 7.94518 4.02386
60 1 -1.1104 1.02896 5.0857 1.22092
61 1 -1.1104 0.853807 10.6935 1.02607
66 2 2.2208 5.2576 9.43483 2.44757
67 1 -1.1104 1.13083 5.05855 3.92358
68 1 -1.1104 0.957671 10.7842 3.99633
71 1 -1.1104 3.81662 8.1042 1.14787
72 2 2.2208 2.38629 6.54108 2.56538
73 2 2.2208 2.56096 12.2513 2.44532
74 1 -1.1104 3.75304 8.00786 3.7325
75 2 2.2208 2.33326 9.46414 5.20295
76 1 -1.1104 3.75147 5.26687 1.15727
77 1 -1.1104 3.83194 10.9265 1.01077
79 1 -1.1104 3.83061 5.22425 4.00124
80 1 -1.1104 3.77636 10.7571 3.79896
9175 2 2.2208 -0.514978 1.041 5.32386
9172 2 2.2208 -0.324094 12.2941 5.3176
28 2 2.2208 13.7384 9.41356 5.27627
57 1 -1.1104 6.74734 7.89972 1.12823
59 1 -1.1104 6.53147 7.89819 3.80472
9176 2 2.2208 -0.454432 3.82133 8.08223
234 1 -1.1104 1.02253 8.04962 6.74415
135 2 2.2208 13.6821 6.54117 8.01412
321 2 2.2208 13.6665 17.767 2.3714
156 1 -1.1104 9.51579 19.2231 6.75709
104 2 2.2208 10.8251 20.6393 8.28067
69 1 -1.1104 6.65051 5.17218 3.97874
63 1 -1.1104 6.53417 5.04612 1.19383
70 1 -1.1104 6.77779 10.7433 3.85277
64 1 -1.1104 6.74378 10.6958 1.14798
84 2 2.2208 10.8637 6.67091 5.27536
85 2 2.2208 10.8936 12.2933 5.24868
86 1 -1.1104 12.222 8.00414 1.10235
87 1 -1.1104 12.3791 8.13827 3.74557
88 1 -1.1104 12.4299 5.20941 1.08413
89 1 -1.1104 12.2893 10.8689 0.960809
91 2 2.2208 10.9441 9.46181 2.53309
92 1 -1.1104 12.3311 5.2272 3.81907
93 1 -1.1104 12.3092 10.9398 3.81323
94 1 -1.1104 9.40094 7.96838 1.05561
95 2 2.2208 8.00593 6.51091 2.57407
96 2 2.2208 8.06976 12.138 2.42051
97 1 -1.1104 9.41583 8.11269 3.87146
98 2 2.2208 8.05601 9.36526 5.28124
99 1 -1.1104 9.47025 5.19308 1.20533
100 1 -1.1104 9.44394 10.7655 1.0884
102 1 -1.1104 9.52201 5.17902 3.90363
103 1 -1.1104 9.64154 10.9496 3.87248
90 1 -1.1104 12.3012 10.7201 6.62456
9015 2 2.2208 -0.31113 15.0156 2.56861
105 1 -1.1104 12.3852 16.4576 9.45761
9173 2 2.2208 -0.379359 17.792 5.36124
319 2 2.2208 13.6431 9.41432 -0.37333
106 2 2.2208 5.34164 17.7878 5.4415
107 1 -1.1104 0.926285 13.4829 1.14389
109 1 -1.1104 0.965998 19.0733 1.2113
113 1 -1.1104 1.02684 13.7098 3.88599
114 1 -1.1104 1.18343 19.2349 3.96914
116 1 -1.1104 1.04109 16.4378 1.10393
119 2 2.2208 5.31278 14.9472 2.56292
120 2 2.2208 5.466 20.6854 2.70644
121 1 -1.1104 0.987023 16.4216 4.0608
123 1 -1.1104 3.68018 13.6022 1.11269
125 1 -1.1104 3.81933 19.2762 1.26107
127 2 2.2208 2.53548 17.9023 2.64511
128 1 -1.1104 3.87348 13.5362 3.92485
129 1 -1.1104 3.93778 19.1314 4.0106
130 2 2.2208 2.50918 14.8588 5.29649
131 2 2.2208 2.4672 20.5699 5.44073
132 1 -1.1104 3.77978 16.5663 1.17246
134 1 -1.1104 3.79392 16.2962 3.99766
9075 2 2.2208 -0.444332 6.67141 10.9429
115 1 -1.1104 6.71709 13.5042 3.98357
329 2 2.2208 13.5799 15.029 5.28554
8909 2 2.2208 -0.48376 15.0325 8.12898
9185 2 2.2208 -0.444357 6.5655 -0.258879
51 2 2.2208 13.7196 20.7229 10.9516
165 1 -1.1104 9.54484 19.1773 12.3011
322 2 2.2208 8.12334 20.6135 -0.425314
110 1 -1.1104 6.52837 13.5779 1.20565
122 1 -1.1104 6.9469 16.3335 3.93234
138 1 -1.1104 6.59699 19.2216 1.29143
139 1 -1.1104 6.72946 19.2645 4.04556
140 1 -1.1104 6.51088 16.3885 1.09045
141 2 2.2208 10.9407 17.816 5.3395
142 1 -1.1104 12.2814 13.5469 1.02687
144 1 -1.1104 12.1334 19.1397 1.03998
146 1 -1.1104 12.3244 13.7421 3.84189
147 1 -1.1104 12.4159 19.1256 3.84984
148 1 -1.1104 12.3871 16.344 1.08393
150 2 2.2208 10.8212 15.0215 2.5227
151 2 2.2208 10.8397 20.5847 2.42635
152 1 -1.1104 12.2048 16.5246 3.90563
153 1 -1.1104 9.36866 13.5812 1.0167
155 1 -1.1104 9.41919 19.2477 1.04227
157 2 2.2208 8.06776 17.876 2.4895
158 1 -1.1104 9.55397 13.7333 3.96296
159 1 -1.1104 9.60331 19.3151 3.91494
160 2 2.2208 8.06906 14.9675 5.40066
161 2 2.2208 8.17502 20.5609 5.36274
162 1 -1.1104 9.43531 16.4844 0.97234
164 1 -1.1104 9.4889 16.5639 3.92754
112 1 -1.1104 6.82333 19.1999 6.87968
149 1 -1.1104 12.1228 16.5038 6.66424
136 2 2.2208 13.6328 -1.72107 5.32587
316 2 2.2208 13.6973 12.2204 7.99989
30 1 -1.1104 12.2918 13.5383 12.2308
674 2 2.2208 5.21499 1.01103 -0.288795
170 1 -1.1104 1.02894 -0.489484 6.77657
8880 2 2.2208 -0.521544 -1.897 8.19028
9530 2 2.2208 -0.285257 0.995363 -0.378428
166 1 -1.1104 0.929033 -3.19134 6.5931
167 1 -1.1104 1.00738 2.40203 6.70529
174 1 -1.1104 3.87547 -0.477971 6.7096
175 2 2.2208 5.23062 1.03055 11.0136
176 1 -1.1104 0.923442 -3.23962 12.3961
177 1 -1.1104 1.05355 2.45762 12.4507
180 1 -1.1104 1.09341 -3.15279 9.4004
181 1 -1.1104 1.09365 2.49558 9.53107
184 1 -1.1104 0.94822 -0.468747 12.3518
186 2 2.2208 5.08654 -1.82817 8.17182
187 2 2.2208 5.19888 3.78052 8.10606
188 1 -1.1104 1.00975 -0.306541 9.57243
190 1 -1.1104 3.85371 -3.2974 12.3848
191 1 -1.1104 3.95852 2.53149 12.3867
192 2 2.2208 2.39727 1.00794 8.02992
193 1 -1.1104 3.73602 -3.26385 9.60474
194 1 -1.1104 3.7408 2.27872 9.51466
195 2 2.2208 2.27653 -1.76806 10.9571
196 2 2.2208 2.38419 3.90655 10.8539
197 1 -1.1104 3.97524 -0.283261 12.4424
198 1 -1.1104 3.92025 -0.435775 9.69668
27 2 2.2208 10.9624 17.8725 10.905
178 1 -1.1104 6.59506 -2.9401 12.3021
179 1 -1.1104 6.79055 2.53347 12.2879
168 1 -1.1104 6.55032 -3.25226 6.59261
29 2 2.2208 13.8053 20.6579 -0.336661
328 2 2.2208 13.7263 17.8353 8.15529
232 2 2.2208 13.7275 3.87149 5.24311
296 1 -1.1104 6.7369 19.2493 12.562
205 1 -1.1104 12.2147 -3.13024 6.66152
210 1 -1.1104 9.40748 -0.454806 6.65448
183 1 -1.1104 6.52973 2.36292 9.48151
207 1 -1.1104 12.3095 -0.410541 6.75287
185 1 -1.1104 6.72904 -0.393789 12.3511
189 1 -1.1104 6.61515 -0.378471 9.62619
209 1 -1.1104 9.5045 2.29175 6.72388
182 1 -1.1104 6.64922 -3.11994 9.53139
211 2 2.2208 10.8207 0.89693 10.8706
212 1 -1.1104 12.2826 -3.25285 12.1849
213 1 -1.1104 12.3316 2.17812 12.2338
214 1 -1.1104 12.1921 -3.31112 9.46652
215 1 -1.1104 12.1656 2.3954 9.53952
216 1 -1.1104 12.2999 -0.523522 12.3757
217 2 2.2208 10.8074 -1.9248 8.12173
218 2 2.2208 10.856 3.85904 8.06486
219 1 -1.1104 12.3268 -0.314573 9.50136
220 1 -1.1104 9.47038 -3.25799 12.1349
221 1 -1.1104 9.48747 2.48175 12.1561
222 2 2.2208 7.9981 0.842378 8.11072
223 1 -1.1104 9.41033 -3.28572 9.43844
224 1 -1.1104 9.38273 2.41361 9.52674
225 2 2.2208 8.05863 -1.73223 10.8736
226 2 2.2208 7.94359 3.83344 10.6736
227 1 -1.1104 9.43914 -0.439162 12.3557
228 1 -1.1104 9.59456 -0.567184 9.56889
9182 2 2.2208 -0.508603 12.1989 10.9555
25 2 2.2208 13.8642 15.0142 10.8925
238 1 -1.1104 3.75423 8.08496 6.49602
78 1 -1.1104 3.85031 10.7155 6.60165
236 1 -1.1104 0.972652 5.23516 6.68175
239 1 -1.1104 3.78488 5.28284 6.84688
62 1 -1.1104 1.08086 10.9995 6.67554
240 2 2.2208 5.21131 6.60117 10.8639
241 2 2.2208 5.18206 12.2362 10.9436
242 1 -1.1104 1.04377 8.05014 12.4376
244 1 -1.1104 0.926474 8.0674 9.67054
246 1 -1.1104 1.03518 5.25336 12.3384
247 1 -1.1104 0.92187 10.7216 12.2603
250 2 2.2208 5.25517 9.33851 8.01494
251 1 -1.1104 0.971569 5.2021 9.53504
252 1 -1.1104 0.900618 10.9654 9.5718
255 1 -1.1104 3.93465 7.97706 12.2313
256 2 2.2208 2.3712 6.69209 8.12479
257 2 2.2208 2.4329 12.3197 8.16391
258 1 -1.1104 3.82148 8.05251 9.4293
259 2 2.2208 2.43948 9.47244 10.9752
260 1 -1.1104 3.67578 5.30272 12.2553
261 1 -1.1104 3.83875 10.818 12.3755
262 1 -1.1104 3.84936 5.24875 9.50118
263 1 -1.1104 3.74291 10.9042 9.54659
254 1 -1.1104 6.47825 10.7046 9.46093
243 1 -1.1104 6.74081 8.02977 12.2511
253 1 -1.1104 6.6035 5.22455 9.43901
143 1 -1.1104 12.2078 13.5762 6.70943
163 1 -1.1104 9.47152 16.2452 6.80249
266 1 -1.1104 12.3707 5.31852 6.56966
265 1 -1.1104 12.3467 7.99665 6.49256
65 1 -1.1104 6.621 10.8199 6.71905
235 1 -1.1104 6.62924 8.08481 6.60047
237 1 -1.1104 6.64048 5.17337 6.79291
248 1 -1.1104 6.50793 5.20892 12.2643
245 1 -1.1104 6.57 7.97722 9.55986
249 1 -1.1104 6.5373 10.7745 12.3218
269 1 -1.1104 9.55575 5.14348 6.5638
267 1 -1.1104 9.5089 7.92341 6.72912
101 1 -1.1104 9.41567 10.7251 6.7213
264 1 -1.1104 9.22569 10.804 9.5964
268 1 -1.1104 9.3691 5.18202 9.43578
270 1 -1.1104 9.50647 10.8716 12.3676
271 1 -1.1104 9.43498 5.24659 12.1744
272 2 2.2208 8.073 9.43561 10.9345
273 1 -1.1104 9.34172 7.99404 9.51687
274 2 2.2208 8.05081 12.1882 8.14436
275 2 2.2208 8.07621 6.6783 8.18175
276 2 2.2208 10.8005 6.53237 10.8737
277 2 2.2208 10.9358 12.312 10.966
278 1 -1.1104 12.2179 7.9425 12.2199
279 1 -1.1104 12.2548 8.07726 9.35201
280 1 -1.1104 12.2328 5.21175 12.2984
281 1 -1.1104 12.1459 10.7861 12.2609
282 2 2.2208 10.8988 9.31096 7.95028
283 1 -1.1104 12.2781 5.36911 9.35632
284 1 -1.1104 12.071 10.7751 9.51457
285 1 -1.1104 9.50856 8.03625 12.1864
314 2 2.2208 13.692 -1.7874 10.9279
312 1 -1.1104 9.49833 16.4854 9.5328
289 1 -1.1104 6.80422 16.4782 9.46712
117 1 -1.1104 0.956608 16.3582 6.88842
9076 2 2.2208 -0.373057 9.4105 2.4814
302 1 -1.1104 1.14437 19.12 6.81456
124 1 -1.1104 3.91359 13.6042 6.75383
126 1 -1.1104 3.86679 19.0661 6.76935
108 1 -1.1104 1.01677 13.7467 6.61369
133 1 -1.1104 3.83233 16.2875 6.71993
286 1 -1.1104 4.00096 19.3036 12.2513
287 1 -1.1104 3.78317 13.625 12.1781
291 1 -1.1104 1.13292 19.2954 9.56995
292 1 -1.1104 1.22538 16.5163 9.57694
293 2 2.2208 5.39159 20.5283 8.15303
294 1 -1.1104 0.896859 13.6307 9.65475
295 2 2.2208 5.33328 15.0946 8.05226
298 1 -1.1104 1.09487 19.205 12.333
299 1 -1.1104 1.0712 13.6348 12.248
300 2 2.2208 5.28251 17.7986 10.9186
301 1 -1.1104 3.83676 19.1342 9.33553
303 2 2.2208 2.4002 17.7486 8.06254
304 1 -1.1104 4.00669 16.4344 9.55356
305 1 -1.1104 3.70979 13.6363 9.51519
307 1 -1.1104 0.980397 16.3616 12.4437
308 1 -1.1104 3.65123 16.4525 12.3657
309 2 2.2208 2.54928 20.5592 10.9639
310 2 2.2208 2.28031 15.1145 10.9202
118 1 -1.1104 6.68755 16.4042 6.7908
288 1 -1.1104 6.64401 19.2392 9.54301
306 1 -1.1104 6.5493 16.3089 12.2359
297 1 -1.1104 6.62611 13.5381 12.2544
50 1 -1.1104 12.4812 13.6346 9.5194
82 1 -1.1104 12.2316 16.2962 12.1397
53 1 -1.1104 12.2574 19.3273 9.63941
201 1 -1.1104 9.63879 13.7514 9.56795
83 2 2.2208 10.9471 15.0137 8.08087
290 1 -1.1104 6.88026 13.5765 9.5659
49 1 -1.1104 12.3628 19.0272 12.5046
230 2 2.2208 8.14199 20.5297 10.9667
200 2 2.2208 8.11428 17.7727 8.15096
229 2 2.2208 8.13833 14.98 10.9214
137 1 -1.1104 9.45574 13.6945 12.2924
233 1 -1.1104 9.4794 16.4466 12.2929
111 1 -1.1104 6.67247 13.5955 6.79152
204 1 -1.1104 9.46924 19.2015 9.4938
26 2 2.2208 13.618 9.49966 10.767
318 2 2.2208 2.4334 20.5297 -0.326998
9224 2 2.2208 -0.347534 15.1028 13.6992
8740 2 2.2208 5.22107 -4.68769 -0.33989
8506 2 2.2208 2.39845 -4.53401 13.7083
675 2 2.2208 2.41193 3.69606 -0.252408
199 2 2.2208 8.05849 9.36293 -0.393097
315 2 2.2208 2.3756 9.35294 -0.294821
9184 2 2.2208 -0.476962 17.8274 -0.274346
654 2 2.2208 2.45077 17.8057 13.7438
372 2 2.2208 10.9796 20.6081 13.7401
336 2 2.2208 5.22643 -1.7148 13.6929
311 2 2.2208 5.21017 12.2956 -0.312431
337 2 2.2208 5.22197 1.05576 16.4862
338 1 -1.1104 1.12154 -2.94657 17.9615
339 1 -1.1104 0.954628 2.55556 18.0103
342 1 -1.1104 1.04228 -3.17219 15.0457
344 1 -1.1104 1.05176 2.43067 15.1856
350 1 -1.1104 0.81858 -0.193881 17.867
352 2 2.2208 5.2223 -1.74168 19.2696
353 2 2.2208 5.23953 3.86069 19.3275
354 1 -1.1104 0.897448 -0.336671 14.9236
358 1 -1.1104 3.83202 -3.06777 17.7865
359 1 -1.1104 3.85617 2.29834 18.0806
360 2 2.2208 2.21051 1.18531 19.4324
361 1 -1.1104 3.83794 -3.00905 15.1539
363 1 -1.1104 3.89795 2.55031 15.0597
365 2 2.2208 2.37243 -1.60417 16.4475
366 2 2.2208 2.36071 3.86434 16.5628
367 1 -1.1104 3.63263 -0.288597 17.8615
368 1 -1.1104 3.69027 -0.166319 15.1534
334 2 2.2208 5.25457 3.86673 13.6244
371 2 2.2208 13.6529 14.9919 22.2444
356 1 -1.1104 6.61062 -0.351241 15.1274
8853 2 2.2208 7.95697 -4.52152 24.9562
405 2 2.2208 13.6704 6.53668 13.6462
655 2 2.2208 10.9357 9.32159 13.6415
369 1 -1.1104 3.72164 -0.222799 20.6538
355 1 -1.1104 0.980981 -0.36703 20.5975
8851 2 2.2208 2.37245 -4.51773 24.8908
518 1 -1.1104 12.257 19.2912 20.8089
653 2 2.2208 13.7186 -1.84101 22.0749
341 1 -1.1104 6.57883 2.50345 17.9168
351 1 -1.1104 6.57775 -0.374622 17.8429
348 1 -1.1104 6.6161 2.52194 15.0693
346 1 -1.1104 6.62872 -3.19017 15.1497
340 1 -1.1104 6.60338 -3.26649 17.8532
380 2 2.2208 10.884 1.08076 16.4987
381 1 -1.1104 12.1703 -3.10819 17.895
382 1 -1.1104 12.3378 2.51393 17.9906
383 1 -1.1104 12.2871 -3.14849 15.1155
385 1 -1.1104 12.2943 2.52494 15.1429
387 1 -1.1104 12.2542 -0.331213 17.8086
388 2 2.2208 10.7654 -1.65702 19.3129
389 2 2.2208 10.7238 3.76238 19.3983
390 1 -1.1104 12.2262 -0.387891 15.0049
392 1 -1.1104 9.41224 -3.05155 17.8877
393 1 -1.1104 9.29586 2.52743 17.8897
394 2 2.2208 7.92903 1.06272 19.3254
395 1 -1.1104 9.3774 -3.18839 15.0632
397 1 -1.1104 9.46857 2.43093 15.0579
399 2 2.2208 7.99755 -1.78566 16.4326
400 2 2.2208 8.01276 3.91809 16.4888
401 1 -1.1104 9.31251 -0.351774 17.9757
402 1 -1.1104 9.57115 -0.226308 15.0792
396 1 -1.1104 9.33639 -3.14132 20.6239
8836 2 2.2208 13.618 -4.55496 24.9495
8861 2 2.2208 10.7519 -4.60817 22.0773
349 1 -1.1104 6.76155 2.52643 20.7416
347 1 -1.1104 6.52793 -3.15971 20.7499
386 1 -1.1104 12.1012 2.45643 20.7252
630 2 2.2208 8.09349 14.9667 21.9599
664 2 2.2208 13.6531 -1.706 16.4542
535 1 -1.1104 9.42423 16.3021 20.7639
8837 2 2.2208 10.7616 -4.51385 16.5329
9226 2 2.2208 -0.5049 6.75171 16.5687
332 2 2.2208 13.6158 0.935294 13.6074
413 2 2.2208 5.32226 6.58526 16.5675
414 2 2.2208 5.21599 12.1212 16.4367
415 1 -1.1104 0.985156 8.16804 17.8498
417 1 -1.1104 1.14154 8.00819 15.1684
421 1 -1.1104 1.09301 5.37601 17.8383
422 1 -1.1104 1.14921 10.8535 17.9567
425 2 2.2208 5.23541 9.4177 19.2477
426 1 -1.1104 1.02617 5.2301 15.1642
428 1 -1.1104 1.13514 10.773 14.9841
434 1 -1.1104 3.82016 8.16373 17.9627
435 2 2.2208 2.43791 6.73662 19.2498
436 2 2.2208 2.51351 12.111 19.3265
437 1 -1.1104 3.97039 8.00604 15.2852
439 2 2.2208 2.4252 9.44566 16.4871
440 1 -1.1104 3.84229 5.32865 18.0962
441 1 -1.1104 3.84669 10.8945 17.8663
442 1 -1.1104 3.86159 5.26202 15.2058
444 1 -1.1104 3.93558 10.8801 15.0641
424 1 -1.1104 6.67548 10.7495 17.8019
430 1 -1.1104 6.63699 5.32382 15.1193
419 1 -1.1104 6.69896 8.10037 15.2478
429 1 -1.1104 1.10572 10.8629 20.747
427 1 -1.1104 0.998752 5.33315 20.8434
406 2 2.2208 13.7235 20.7717 22.0673
649 2 2.2208 2.39159 12.1797 13.676
8848 2 2.2208 5.13989 -4.53331 16.5038
432 1 -1.1104 6.67964 10.8257 14.9643
423 1 -1.1104 6.62811 5.22212 17.8984
416 1 -1.1104 6.72443 8.03783 17.9265
449 2 2.2208 10.8573 6.7284 16.4786
450 2 2.2208 10.8668 12.1958 16.4739
451 1 -1.1104 12.3332 7.96073 17.8745
452 1 -1.1104 12.1857 8.1354 15.1432
454 1 -1.1104 12.3127 5.23509 17.8994
455 1 -1.1104 12.199 10.8013 17.8434
456 2 2.2208 10.8236 9.25411 19.2747
457 1 -1.1104 12.1974 5.25689 15.028
459 1 -1.1104 12.2694 10.7621 15.128
461 1 -1.1104 9.54402 7.94654 17.9515
462 2 2.2208 8.08015 6.62062 19.3901
463 2 2.2208 8.02034 12.0602 19.2594
464 1 -1.1104 9.32132 8.06602 14.967
466 2 2.2208 8.03338 9.42529 16.5145
467 1 -1.1104 9.44274 5.17489 17.9358
468 1 -1.1104 9.43869 10.7218 18.0108
469 1 -1.1104 9.47993 5.19696 15.0665
471 1 -1.1104 9.47224 10.8241 15.2526
453 1 -1.1104 12.2599 7.8892 20.7347
472 1 -1.1104 9.4124 10.8199 20.8278
670 2 2.2208 10.7464 1.08964 27.8539
9412 2 2.2208 -0.360433 20.5489 19.3894
476 2 2.2208 5.27163 17.7997 16.4884
477 1 -1.1104 0.937863 13.6277 17.9007
478 1 -1.1104 1.09944 19.1882 18.0206
481 1 -1.1104 1.04811 13.6768 15.0819
483 1 -1.1104 0.967793 19.2914 15.2565
489 1 -1.1104 1.00379 16.4889 17.8888
491 2 2.2208 5.2892 15.0253 19.2548
492 2 2.2208 5.33203 20.5569 19.3727
493 1 -1.1104 0.92352 16.5273 15.0885
497 1 -1.1104 3.82269 13.6203 17.9135
498 1 -1.1104 3.93597 19.2853 17.8704
499 2 2.2208 2.62565 17.8342 19.2636
500 1 -1.1104 3.8554 13.5477 15.0813
502 1 -1.1104 3.72502 19.3096 15.0485
504 2 2.2208 2.43173 15.0048 16.482
505 2 2.2208 2.30678 20.6594 16.5792
506 1 -1.1104 3.85083 16.4538 17.9311
507 1 -1.1104 3.76577 16.3692 15.1273
488 1 -1.1104 6.66611 18.9396 20.8266
8835 2 2.2208 7.86418 -4.59454 19.228
484 1 -1.1104 1.17334 19.1751 20.7723
508 1 -1.1104 3.81351 16.3646 20.7033
501 1 -1.1104 3.8527 13.449 20.8228
660 2 2.2208 13.6544 6.54729 19.4228
642 2 2.2208 2.4081 6.56983 13.8043
17445 2 2.2208 -0.39751 -4.50404 16.4304
643 2 2.2208 13.639 17.6489 13.7691
376 2 2.2208 13.6224 17.7544 19.4008
480 1 -1.1104 6.76679 19.2616 18.0827
487 1 -1.1104 6.59387 19.2086 15.2126
479 1 -1.1104 6.65476 13.4659 18.0118
485 1 -1.1104 6.81947 13.6113 15.0841
490 1 -1.1104 6.75265 16.3494 17.8265
495 1 -1.1104 6.63055 16.417 15.1448
512 2 2.2208 10.7643 17.7805 16.4069
513 1 -1.1104 12.0989 13.6371 18.0672
514 1 -1.1104 12.2817 19.1629 17.9551
515 1 -1.1104 12.2968 13.6094 15.2728
517 1 -1.1104 12.2151 19.2562 15.1171
519 1 -1.1104 12.227 16.4695 17.8075
520 2 2.2208 10.8817 15.1182 19.3068
521 2 2.2208 10.8751 20.6776 19.374
522 1 -1.1104 12.2381 16.2609 14.9669
524 1 -1.1104 9.36526 13.4208 17.8374
525 1 -1.1104 9.41888 19.182 17.9899
526 2 2.2208 8.05231 17.6882 19.2801
527 1 -1.1104 9.5662 13.5928 15.0907
529 1 -1.1104 9.50684 19.1941 15.106
531 2 2.2208 8.05608 14.8723 16.4653
532 2 2.2208 8.09327 20.721 16.6435
533 1 -1.1104 9.53426 16.2848 17.9346
534 1 -1.1104 9.4358 16.5187 15.0179
635 1 -1.1104 9.59892 19.3328 26.3286
523 1 -1.1104 12.2787 16.341 20.7183
528 1 -1.1104 9.437 13.5795 20.6435
370 2 2.2208 7.99482 17.8096 13.6887
8832 2 2.2208 5.23217 -4.45703 22.056
648 2 2.2208 5.26722 9.38301 13.7406
603 1 -1.1104 9.51428 13.6615 23.5075
345 1 -1.1104 0.824009 2.61915 20.9071
656 2 2.2208 8.02115 12.2088 13.6036
364 1 -1.1104 3.93673 2.42976 20.7804
343 1 -1.1104 0.842093 -3.20454 20.7739
362 1 -1.1104 3.72871 -3.1072 20.5382
540 2 2.2208 5.22434 0.98611 22.0711
541 1 -1.1104 1.04734 -3.07052 23.5622
542 1 -1.1104 1.02662 2.48677 23.5605
545 1 -1.1104 1.00908 -3.01357 26.3125
546 1 -1.1104 1.02043 2.43971 26.3294
549 1 -1.1104 1.06716 -0.264774 23.4586
551 2 2.2208 5.22172 -1.77002 24.9278
552 2 2.2208 5.23816 3.69534 25.0139
553 1 -1.1104 1.15763 -0.248455 26.3796
555 1 -1.1104 3.94171 -2.9827 23.3904
556 1 -1.1104 3.7933 2.46535 23.539
557 2 2.2208 2.41956 0.9748 24.8837
558 1 -1.1104 3.82425 -3.17612 26.2126
559 1 -1.1104 3.82042 2.32437 26.4659
560 2 2.2208 2.41299 -1.70473 21.9247
561 2 2.2208 2.44566 3.94524 22.1815
562 1 -1.1104 3.8693 -0.360118 23.4517
563 1 -1.1104 3.91743 -0.408807 26.2277
600 2 2.2208 13.6326 15.0967 16.5636
554 1 -1.1104 6.70946 -0.368689 26.3573
543 1 -1.1104 6.65137 -3.23566 23.4787
544 1 -1.1104 6.62582 2.39923 23.5115
568 1 -1.1104 12.23 13.6701 26.2879
398 1 -1.1104 9.30989 2.38794 20.6634
384 1 -1.1104 12.1313 -3.0233 20.729
391 1 -1.1104 12.2971 -0.324756 20.6916
550 1 -1.1104 6.70663 -0.352483 23.4559
547 1 -1.1104 6.52524 -3.13073 26.2882
357 1 -1.1104 6.47172 -0.371363 20.5747
548 1 -1.1104 6.60265 2.46937 26.2802
403 1 -1.1104 9.31819 -0.235317 20.8807
576 2 2.2208 10.7994 1.11866 22.1269
577 1 -1.1104 12.2149 -3.2956 23.4648
578 1 -1.1104 12.3396 2.47684 23.6333
579 1 -1.1104 12.193 -3.23284 26.4072
580 1 -1.1104 12.1705 2.42882 26.1955
581 1 -1.1104 12.3004 -0.445124 23.5235
582 2 2.2208 10.8581 -1.82901 24.9157
583 2 2.2208 10.7834 3.86494 24.9657
584 1 -1.1104 12.3196 -0.340698 26.3765
585 1 -1.1104 9.43284 -3.20736 23.5097
586 1 -1.1104 9.48487 2.46053 23.5638
587 2 2.2208 8.13001 0.996221 25.0463
588 1 -1.1104 9.38912 -3.16462 26.3276
589 1 -1.1104 9.46831 2.47422 26.3698
590 2 2.2208 8.02092 -1.78922 22.1627
591 2 2.2208 8.04517 3.78659 22.2528
592 1 -1.1104 9.45822 -0.402482 23.5902
593 1 -1.1104 9.41018 -0.403333 26.4658
9444 2 2.2208 -0.296832 17.9284 16.4959
9417 2 2.2208 -0.276995 15.1089 19.251
596 1 -1.1104 6.66283 13.6353 26.3808
443 1 -1.1104 3.83986 5.16414 20.722
418 1 -1.1104 1.09748 8.09588 20.4874
438 1 -1.1104 3.79271 8.03473 20.7998
445 1 -1.1104 3.79009 10.588 20.6478
605 2 2.2208 5.17701 6.62421 22.2156
606 2 2.2208 5.2732 12.2709 22.2652
607 1 -1.1104 1.11822 8.1257 23.4189
609 1 -1.1104 0.879065 7.97425 26.3622
611 1 -1.1104 0.987121 5.31926 23.7139
612 1 -1.1104 1.09283 10.9513 23.5327
615 2 2.2208 5.21536 9.3828 25.0219
616 1 -1.1104 1.00257 5.28645 26.3483
617 1 -1.1104 1.02386 10.8706 26.4559
620 1 -1.1104 3.68214 8.05084 23.4728
621 2 2.2208 2.4831 6.73137 25.0664
622 2 2.2208 2.43705 12.3929 25.0377
623 1 -1.1104 3.83891 7.99521 26.5023
624 2 2.2208 2.47011 9.41388 22.1496
625 1 -1.1104 3.85567 5.18174 23.5358
626 1 -1.1104 3.86182 10.892 23.4776
627 1 -1.1104 3.92238 5.08565 26.387
628 1 -1.1104 3.84663 10.9273 26.3443
433 1 -1.1104 6.5825 10.8274 20.7476
530 1 -1.1104 9.38839 19.1891 20.8411
610 1 -1.1104 6.55576 8.06001 26.4057
618 1 -1.1104 6.71615 5.22712 26.4209
614 1 -1.1104 6.57834 10.7524 23.5847
608 1 -1.1104 6.61645 8.13848 23.6071
465 1 -1.1104 9.51254 7.97668 20.8047
470 1 -1.1104 9.41063 5.12006 20.9006
458 1 -1.1104 12.1764 5.23269 20.8737
460 1 -1.1104 12.207 10.8054 20.73
420 1 -1.1104 6.56986 7.91856 20.8181
619 1 -1.1104 6.53356 10.8032 26.4636
431 1 -1.1104 6.58596 5.3191 20.69
613 1 -1.1104 6.59932 5.33289 23.7354
373 1 -1.1104 12.3266 10.8254 26.3019
374 1 -1.1104 12.1896 5.1413 26.3367
375 2 2.2208 10.8661 9.53864 24.9795
377 1 -1.1104 12.2323 10.8554 23.4574
378 1 -1.1104 12.19 5.3317 23.6321
567 1 -1.1104 12.2314 7.94859 26.377
569 2 2.2208 10.8169 12.3699 21.9823
570 2 2.2208 10.8679 6.69937 22.1883
571 2 2.2208 8.00207 6.70362 25.0675
597 1 -1.1104 12.3852 8.19746 23.5735
599 2 2.2208 7.99756 12.3038 25.0478
631 1 -1.1104 9.34812 8.20939 23.6374
636 1 -1.1104 9.39391 10.8112 26.3064
637 1 -1.1104 9.42633 5.22857 26.3313
638 1 -1.1104 9.50077 10.8893 23.6081
639 1 -1.1104 9.30473 5.31208 23.6381
640 2 2.2208 7.97446 9.36959 22.13
641 1 -1.1104 9.43375 7.89406 26.3877
632 2 2.2208 8.11373 17.8381 24.8606
486 1 -1.1104 6.6581 13.6052 20.584
327 2 2.2208 5.15791 6.56952 27.8322
409 1 -1.1104 12.2591 19.2269 23.5363
594 1 -1.1104 6.72098 16.2926 26.2847
494 1 -1.1104 1.18257 16.5088 20.7991
503 1 -1.1104 3.82076 19.1671 20.7677
574 2 2.2208 10.8443 14.9958 24.9067
482 1 -1.1104 0.98024 13.6754 20.7095
410 2 2.2208 2.38584 14.9631 22.0439
411 2 2.2208 2.52303 20.6022 22.2224
412 1 -1.1104 3.80725 16.4036 23.511
446 1 -1.1104 1.0256 16.4322 23.6782
448 1 -1.1104 3.79466 13.7703 26.372
473 1 -1.1104 3.87063 16.4587 26.4391
474 2 2.2208 2.47621 17.9011 24.9673
475 1 -1.1104 3.88891 18.9857 26.4512
509 2 2.2208 5.2401 17.844 22.1041
510 1 -1.1104 1.16315 13.5743 23.5184
511 1 -1.1104 1.03464 19.2333 23.5794
537 2 2.2208 5.24204 15.197 24.9558
538 2 2.2208 5.35788 20.5238 24.9431
564 1 -1.1104 1.1354 13.6989 26.4463
565 1 -1.1104 0.890228 16.4986 26.455
566 1 -1.1104 0.96509 19.3277 26.4526
595 1 -1.1104 3.78219 13.7572 23.5898
598 1 -1.1104 4.03889 19.2836 23.4898
496 1 -1.1104 6.68696 16.3226 20.522
536 1 -1.1104 6.81614 13.6049 23.512
447 1 -1.1104 6.53572 16.561 23.6257
629 2 2.2208 8.08534 20.6573 22.2041
404 2 2.2208 10.8632 17.8932 22.0921
602 1 -1.1104 12.3818 16.4468 26.4837
634 1 -1.1104 9.49736 13.6286 26.3493
633 1 -1.1104 6.69429 19.1156 26.4956
573 1 -1.1104 12.1901 16.4628 23.5012
408 1 -1.1104 12.1918 13.6795 23.4492
575 2 2.2208 11.0091 20.7546 24.9136
601 1 -1.1104 9.45254 16.3593 23.5598
516 1 -1.1104 12.3116 13.7135 20.7295
572 1 -1.1104 12.4254 19.2781 26.3554
539 1 -1.1104 6.79299 19.1841 23.5482
379 1 -1.1104 9.49427 16.4193 26.4771
604 1 -1.1104 9.52261 19.3405 23.5159
9304 2 2.2208 -0.3961 20.5221 24.8877
665 2 2.2208 13.7036 1.08429 19.306
9305 2 2.2208 -0.364757 15.1285 24.9791
9369 2 2.2208 -0.395102 20.629 13.7042
9371 2 2.2208 -0.278357 17.9166 22.0444
652 2 2.2208 13.5766 9.42086 16.5729
659 2 2.2208 13.5335 12.2121 19.4175
9230 2 2.2208 -0.408698 1.05404 22.1268
9375 2 2.2208 -0.470942 3.81829 24.7778
650 2 2.2208 13.6394 9.48659 22.1404
668 2 2.2208 7.98755 -1.8542 27.8134
9416 2 2.2208 -0.394632 9.44946 13.7692
8854 2 2.2208 10.7982 -4.55077 27.8379
645 2 2.2208 10.7337 15.0362 13.651
673 2 2.2208 2.46939 -1.72992 27.719
647 2 2.2208 5.30542 20.6707 13.7503
335 2 2.2208 2.40938 1.08793 13.7023
203 2 2.2208 10.8814 12.2281 27.7181
81 2 2.2208 10.822 6.61464 27.8025
646 2 2.2208 5.23508 14.9362 13.7191
323 2 2.2208 5.25446 17.9436 27.8684
324 2 2.2208 2.3833 15.1645 27.8145
658 2 2.2208 8.10915 6.61906 13.6169
317 2 2.2208 8.03244 15.0368 27.7388
651 2 2.2208 13.5542 12.2902 13.7425
325 2 2.2208 10.838 17.7737 27.8846
331 2 2.2208 10.851 -1.84489 13.7623
644 2 2.2208 10.8238 3.74157 13.5719
333 2 2.2208 7.99312 1.0708 13.702
676 2 2.2208 5.27432 23.259 5.2529
677 2 2.2208 5.38116 28.924 5.35276
678 1 -1.1104 1.37952 24.8124 1.14487
679 1 -1.1104 1.10063 24.7639 3.96272
680 1 -1.1104 0.92724 21.9264 1.09022
681 1 -1.1104 1.02819 27.6529 1.13524
682 2 2.2208 5.30396 26.2113 2.64177
683 1 -1.1104 1.13514 21.9106 3.85505
684 1 -1.1104 1.08974 27.6101 3.95314
685 1 -1.1104 3.95292 24.7088 1.12804
686 2 2.2208 2.54528 23.4046 2.58365
687 2 2.2208 2.41897 28.9879 2.56597
688 1 -1.1104 3.87386 24.8865 4.03856
689 2 2.2208 2.33446 26.118 5.35025
690 1 -1.1104 3.95629 21.9307 1.27384
691 1 -1.1104 3.90362 27.5343 1.22375
692 1 -1.1104 4.00346 21.9802 3.87219
693 1 -1.1104 3.9903 27.6503 4.01696
1014 2 2.2208 5.38487 23.4524 -0.286398
702 1 -1.1104 6.86501 27.5692 4.08783
1016 2 2.2208 11.0493 40.2472 -0.234932
700 1 -1.1104 6.69107 27.7239 1.15889
1563 1 -1.1104 1.18349 47.2989 9.55312
723 2 2.2208 5.3352 45.6798 -0.234723
820 1 -1.1104 1.04283 27.7799 6.73302
823 1 -1.1104 3.81393 24.7028 6.68652
1577 1 -1.1104 3.97395 47.2481 9.53128
9726 2 2.2208 -0.319433 23.2298 -0.316264
747 2 2.2208 10.8841 40.1467 10.9508
701 1 -1.1104 6.91407 22.0576 3.88851
698 1 -1.1104 6.64859 24.8193 3.98478
697 1 -1.1104 6.70778 24.9533 1.07536
699 1 -1.1104 6.73279 22.073 0.988289
703 2 2.2208 10.9917 23.3609 5.35634
704 2 2.2208 10.8695 29.0176 5.33428
705 1 -1.1104 12.4668 24.7793 1.09928
706 1 -1.1104 12.3414 24.7728 4.11316
707 1 -1.1104 12.3031 22.0181 1.0465
708 1 -1.1104 12.2435 27.4377 1.18181
709 2 2.2208 10.9779 26.2383 2.49021
710 1 -1.1104 12.3498 22.0485 3.8047
711 1 -1.1104 12.2778 27.6976 3.95694
712 1 -1.1104 9.60042 24.883 1.02711
713 2 2.2208 8.1763 23.4076 2.46524
714 2 2.2208 8.18579 29.0132 2.58392
715 1 -1.1104 9.60136 24.7647 3.78594
716 2 2.2208 8.12292 26.1897 5.50633
717 1 -1.1104 9.46276 22.0351 0.868101
718 1 -1.1104 9.50432 27.6743 1.09136
719 1 -1.1104 9.59664 22.0571 3.98452
720 1 -1.1104 9.61406 27.405 3.96587
1013 2 2.2208 8.16788 26.2861 -0.244059
854 1 -1.1104 9.56516 21.9754 6.64532
1386 1 -1.1104 3.86429 47.4094 3.90738
1015 2 2.2208 10.9602 29.1346 -0.18648
724 2 2.2208 5.23461 34.5369 5.28371
725 1 -1.1104 1.08831 30.3294 1.16053
726 1 -1.1104 1.06863 35.9691 1.01172
728 1 -1.1104 1.02908 30.3767 3.87225
729 1 -1.1104 1.21466 35.9244 3.87798
731 1 -1.1104 1.08086 33.2307 0.980747
732 2 2.2208 5.09443 31.8373 2.53122
733 2 2.2208 5.35533 37.3168 2.63492
734 1 -1.1104 1.07484 33.1452 3.9805
736 1 -1.1104 3.9004 30.2914 1.10308
737 1 -1.1104 3.94579 35.9795 1.09022
738 2 2.2208 2.54851 34.627 2.46741
739 1 -1.1104 3.77764 30.4473 3.89087
740 1 -1.1104 3.93291 35.9211 3.89054
741 2 2.2208 2.46518 31.8333 5.27381
742 2 2.2208 2.46274 37.4343 5.23819
743 1 -1.1104 3.79417 33.206 1.08249
744 1 -1.1104 3.81154 33.2779 3.90583
735 1 -1.1104 6.57678 33.1313 3.88051
749 1 -1.1104 6.7981 30.3875 3.87874
1557 1 -1.1104 6.71493 47.4175 6.59723
9869 2 2.2208 -0.354299 34.718 10.8817
750 1 -1.1104 6.66768 33.2026 1.09264
748 1 -1.1104 6.67704 30.5574 1.07737
983 2 2.2208 13.5462 43.0498 10.9102
9875 2 2.2208 -0.499302 29.0649 5.39832
727 1 -1.1104 6.77598 35.8841 1.05584
730 1 -1.1104 6.7373 35.9675 3.91442
751 2 2.2208 10.9239 34.6537 5.3118
752 1 -1.1104 12.2699 30.5316 1.0559
753 1 -1.1104 12.345 36.1356 1.13909
754 1 -1.1104 12.3611 30.4956 3.94968