LAMMPS (29 Oct 2020)
OMP_NUM_THREADS environment is not set. Defaulting to 1 thread. (../comm.cpp:94)
  using 1 OpenMP thread(s) per MPI task
OMP_NUM_THREADS environment is not set. Defaulting to 1 thread. (../comm.cpp:94)
  using 1 OpenMP thread(s) per MPI task
Reading data file ...
  orthogonal box = (-0.35847327 -4.3251604 -0.36675602) to (27.698473 332.40516 27.706756)
  2 by 13 by 2 MPI processor grid
  reading atoms ...
  17640 atoms
  reading velocities ...
  17640 velocities
Finding 1-2 1-3 1-4 neighbors ...
  special bond factors lj:    0.0      0.0      0.0     
  special bond factors coul:  0.0      0.0      0.0     
     0 = max # of 1-2 neighbors
     0 = max # of 1-3 neighbors
     0 = max # of 1-4 neighbors
     1 = max # of special neighbors
  special bonds CPU = 0.007 seconds
  read_data CPU = 0.075 seconds
Setting atom values ...
  11760 settings made for charge
Setting atom values ...
  5880 settings made for charge
PPPM initialization ...
  using 12-bit tables for long-range coulomb (../kspace.cpp:328)
  G vector (1/distance) = 0.29880859
  grid = 40 240 40
  stencil order = 5
  estimated absolute RMS force accuracy = 0.00015624255
  estimated relative force accuracy = 1.0850445e-05
  using single precision MKL FFT
  3d grid and FFT values/proc = 15000 7600
Neighbor list info ...
  update every 1 steps, delay 0 steps, check yes
  max neighbors/atom: 2000, page size: 100000
  master list distance cutoff = 11.3
  ghost atom cutoff = 11.3
  binsize = 5.65, bins = 5 60 5
  2 neighbor lists, perpetual/occasional/extra = 2 0 0
  (1) pair coul/long, perpetual
      attributes: half, newton on
      pair build: half/bin/newton
      stencil: half/bin/3d/newton
      bin: standard
  (2) pair eam/alloy, perpetual, copy from (1)
      attributes: half, newton on
      pair build: copy
      stencil: none
      bin: none
Setting up Verlet run ...
  Unit style    : metal
  Current step  : 0
  Time step     : 0.001
Per MPI rank memory allocation (min/avg/max) = 8.158 | 8.181 | 8.197 Mbytes
Step Temp E_pair E_mol TotEng Press 
       0          600   -230357.17            0   -228989.16   -1265.2219 
  100000    600.67311   -230373.29            0   -229003.75   -1499.3089 
Loop time of 654.299 on 52 procs for 100000 steps with 17640 atoms

Performance: 13.205 ns/day, 1.817 hours/ns, 152.835 timesteps/s
99.8% CPU use with 52 MPI tasks x 1 OpenMP threads

MPI task timing breakdown:
Section |  min time  |  avg time  |  max time  |%varavg| %total
---------------------------------------------------------------
Pair    | 430.03     | 443.7      | 461.88     |  34.5 | 67.81
Bond    | 0.0063699  | 0.010201   | 0.016983   |   1.9 |  0.00
Kspace  | 135.29     | 154.21     | 170.67     |  63.9 | 23.57
Neigh   | 30.986     | 33.599     | 36.775     |  25.5 |  5.14
Comm    | 16.575     | 18.237     | 20.567     |  19.0 |  2.79
Output  | 5.8427e-05 | 6.4101e-05 | 0.00026681 |   0.0 |  0.00
Modify  | 2.0758     | 3.1391     | 5.019      |  52.4 |  0.48
Other   |            | 1.403      |            |       |  0.21

Nlocal:        339.231 ave         365 max         320 min
Histogram: 4 7 9 7 4 8 3 5 2 3
Nghost:        4112.04 ave        4229 max        4023 min
Histogram: 3 10 11 2 3 5 8 5 1 4
Neighs:        67292.6 ave       73865 max       60570 min
Histogram: 4 1 4 10 6 10 5 5 3 4

Total # of neighbors = 3499217
Ave neighs/atom = 198.36831
Ave special neighs/atom = 0.0000000
Neighbor list builds = 16213
Dangerous builds = 0
11760 atoms in group oxygen
PPPM initialization ...
  using 12-bit tables for long-range coulomb (../kspace.cpp:328)
  G vector (1/distance) = 0.29880859
  grid = 40 240 40
  stencil order = 5
  estimated absolute RMS force accuracy = 0.00015624255
  estimated relative force accuracy = 1.0850445e-05
  using single precision MKL FFT
  3d grid and FFT values/proc = 15000 7600
Setting up Verlet run ...
  Unit style    : metal
  Current step  : 0
  Time step     : 0.001
Per MPI rank memory allocation (min/avg/max) = 8.409 | 8.431 | 8.448 Mbytes
Step f_2 Temp v_Tdiff v_deltaT 
       0            0    600.67311            0            0 
  100000    689.26456    596.29571  0.018621395    216.19267 
  200000     1355.198    597.45418  0.020680336    240.09678 
  300000    2025.8184    597.95031  0.020726482    240.63254 
  400000     2694.157     603.2684  0.020799176     241.4765 
  500000    3366.2902    603.65894  0.021498137    249.59138 
  600000    4033.3172    599.39129  0.021013643    243.96644 
  700000    4695.2138    600.53136  0.021126465     245.2763 
  800000     5367.166    601.61276  0.020768597    241.12148 
  900000     6040.971    597.01604    0.0206503    239.74807 
 1000000    6711.5589    602.88342   0.02144633    248.98989 
Loop time of 6553.59 on 52 procs for 1000000 steps with 17640 atoms

Performance: 13.184 ns/day, 1.820 hours/ns, 152.588 timesteps/s
99.9% CPU use with 52 MPI tasks x 1 OpenMP threads

MPI task timing breakdown:
Section |  min time  |  avg time  |  max time  |%varavg| %total
---------------------------------------------------------------
Pair    | 4264.9     | 4416.2     | 4633.3     | 127.4 | 67.39
Bond    | 0.064447   | 0.099939   | 0.14558    |   5.2 |  0.00
Kspace  | 1344.9     | 1573.2     | 1725.2     | 225.0 | 24.00
Neigh   | 321.52     | 344.82     | 379.49     |  79.1 |  5.26
Comm    | 164.46     | 184.02     | 208.14     |  65.2 |  2.81
Output  | 0.0011068  | 0.0011707  | 0.0022714  |   0.5 |  0.00
Modify  | 5.6037     | 6.0583     | 6.6095     |  10.3 |  0.09
Other   |            | 29.22      |            |       |  0.45

Nlocal:        339.231 ave         368 max         322 min
Histogram: 4 11 8 7 8 4 5 1 3 1
Nghost:        4099.02 ave        4213 max        3989 min
Histogram: 2 4 5 5 12 10 5 2 4 3
Neighs:        67297.4 ave       74382 max       61071 min
Histogram: 1 6 8 6 11 5 7 4 3 1

Total # of neighbors = 3499466
Ave neighs/atom = 198.38243
Ave special neighs/atom = 0.0000000
Neighbor list builds = 166217
Dangerous builds = 0
Total wall time: 2:00:08
