LAMMPS (29 Oct 2020)
OMP_NUM_THREADS environment is not set. Defaulting to 1 thread. (../comm.cpp:94)
  using 1 OpenMP thread(s) per MPI task
OMP_NUM_THREADS environment is not set. Defaulting to 1 thread. (../comm.cpp:94)
  using 1 OpenMP thread(s) per MPI task
Reading data file ...
  orthogonal box = (-0.27717828 -3.4472206 -0.27717828) to (27.617178 331.52722 27.617178)
  2 by 13 by 2 MPI processor grid
  reading atoms ...
  18000 atoms
  reading velocities ...
  18000 velocities
Finding 1-2 1-3 1-4 neighbors ...
  special bond factors lj:    0.0      0.0      0.0     
  special bond factors coul:  0.0      0.0      0.0     
     0 = max # of 1-2 neighbors
     0 = max # of 1-3 neighbors
     0 = max # of 1-4 neighbors
     1 = max # of special neighbors
  special bonds CPU = 0.005 seconds
  read_data CPU = 0.071 seconds
99 atoms in group sphere
4 atoms in group oxygen
13 atoms in group thorium
86 atoms in group 1
90 atoms in group cluster
6000 atoms in group Th
12000 atoms in group O
30 atoms in group Th_group
60 atoms in group O_group
Setting atom values ...
  30 settings made for type/subset
30 atoms in group Xe
60 atoms in group delete
WARNING: Ignoring 'compress yes' for molecular system (../delete_atoms.cpp:125)
Deleted 60 atoms, new total = 17940
99 atoms in group sphere
4 atoms in group oxygen
13 atoms in group thorium
86 atoms in group 1
90 atoms in group cluster
5970 atoms in group Th
11940 atoms in group O
30 atoms in group Th_group
60 atoms in group O_group
Setting atom values ...
  30 settings made for type/subset
60 atoms in group Xe
60 atoms in group delete
WARNING: Ignoring 'compress yes' for molecular system (../delete_atoms.cpp:125)
Deleted 60 atoms, new total = 17880
99 atoms in group sphere
4 atoms in group oxygen
13 atoms in group thorium
86 atoms in group 1
90 atoms in group cluster
5940 atoms in group Th
11880 atoms in group O
30 atoms in group Th_group
60 atoms in group O_group
Setting atom values ...
  30 settings made for type/subset
90 atoms in group Xe
60 atoms in group delete
WARNING: Ignoring 'compress yes' for molecular system (../delete_atoms.cpp:125)
Deleted 60 atoms, new total = 17820
99 atoms in group sphere
4 atoms in group oxygen
13 atoms in group thorium
86 atoms in group 1
90 atoms in group cluster
5910 atoms in group Th
11820 atoms in group O
30 atoms in group Th_group
60 atoms in group O_group
Setting atom values ...
  30 settings made for type/subset
120 atoms in group Xe
60 atoms in group delete
WARNING: Ignoring 'compress yes' for molecular system (../delete_atoms.cpp:125)
Deleted 60 atoms, new total = 17760
Setting atom values ...
  11760 settings made for charge
Setting atom values ...
  5880 settings made for charge
Setting atom values ...
  120 settings made for charge
WARNING: 13 of 1000 force values in table Xe-Xe are inconsistent with -dE/dr.
  Should only be flagged at inflection points (../pair_table.cpp:461)
WARNING: 2 of 1000 force values in table Xe-O are inconsistent with -dE/dr.
  Should only be flagged at inflection points (../pair_table.cpp:461)
WARNING: 2 of 1000 force values in table Xe-Th are inconsistent with -dE/dr.
  Should only be flagged at inflection points (../pair_table.cpp:461)
PPPM initialization ...
  using 12-bit tables for long-range coulomb (../kspace.cpp:328)
  G vector (1/distance) = 0.29911239
  grid = 40 240 40
  stencil order = 5
  estimated absolute RMS force accuracy = 0.00015328544
  estimated relative force accuracy = 1.0645085e-05
  using single precision MKL FFT
  3d grid and FFT values/proc = 18225 7600
Neighbor list info ...
  update every 1 steps, delay 0 steps, check yes
  max neighbors/atom: 2000, page size: 100000
  master list distance cutoff = 13
  ghost atom cutoff = 13
  binsize = 6.5, bins = 5 52 5
  3 neighbor lists, perpetual/occasional/extra = 3 0 0
  (1) pair coul/long, perpetual
      attributes: half, newton on
      pair build: half/bin/newton
      stencil: half/bin/3d/newton
      bin: standard
  (2) pair eam/alloy, perpetual, skip from (1)
      attributes: half, newton on
      pair build: skip
      stencil: none
      bin: none
  (3) pair table, perpetual, skip from (1)
      attributes: half, newton on
      pair build: skip
      stencil: none
      bin: none
Setting up cg style minimization ...
  Unit style    : metal
  Current step  : 0
WARNING: Energy due to 3 extra global DOFs will be included in minimizer energies
Per MPI rank memory allocation (min/avg/max) = 10.35 | 10.96 | 11.16 Mbytes
Step Temp E_pair E_mol TotEng Press Volume 
       0            0   -230428.55            0   -230428.55    6222.2047    260641.98 
     225            0   -231390.95            0   -231390.95    199.16092     262175.2 
Loop time of 4.66727 on 52 procs for 225 steps with 17760 atoms

99.4% CPU use with 52 MPI tasks x 1 OpenMP threads

Minimization stats:
  Stopping criterion = linesearch alpha is zero
  Energy initial, next-to-last, final = 
     -230428.546196674  -231390.946394326  -231390.946394326
  Force two-norm initial, final = 1880.1708 81.850355
  Force max component initial, final = 1397.3346 77.694507
  Final line search alpha, max atom move = 1.3724610e-12 1.0663268e-10
  Iterations, force evaluations = 225 422

MPI task timing breakdown:
Section |  min time  |  avg time  |  max time  |%varavg| %total
---------------------------------------------------------------
Pair    | 2.5776     | 2.7584     | 3.0087     |   5.4 | 59.10
Bond    | 3.3483e-05 | 5.5013e-05 | 9.8001e-05 |   0.0 |  0.00
Kspace  | 0.7646     | 1.0175     | 1.1995     |   9.0 | 21.80
Neigh   | 0.0077531  | 0.0093104  | 0.01173    |   1.1 |  0.20
Comm    | 0.06661    | 0.069115   | 0.071474   |   0.4 |  1.48
Output  | 0          | 0          | 0          |   0.0 |  0.00
Modify  | 0          | 0          | 0          |   0.0 |  0.00
Other   |            | 0.8129     |            |       | 17.42

Nlocal:        341.538 ave         412 max         293 min
Histogram: 9 3 1 19 5 2 0 7 4 2
Nghost:        5547.21 ave        5742 max        5380 min
Histogram: 5 8 7 4 4 7 2 5 5 5
Neighs:       108790.0 ave      132875 max       93623 min
Histogram: 8 6 6 15 2 2 4 5 2 2

Total # of neighbors = 5657089
Ave neighs/atom = 318.52979
Ave special neighs/atom = 0.0000000
Neighbor list builds = 3
Dangerous builds = 0
Resetting atom IDs ...
PPPM initialization ...
  using 12-bit tables for long-range coulomb (../kspace.cpp:328)
  G vector (1/distance) = 0.29900868
  grid = 40 240 40
  stencil order = 5
  estimated absolute RMS force accuracy = 0.00015409507
  estimated relative force accuracy = 1.070131e-05
  using single precision MKL FFT
  3d grid and FFT values/proc = 18225 7600
Neighbor list info ...
  update every 1 steps, delay 0 steps, check yes
  max neighbors/atom: 2000, page size: 100000
  master list distance cutoff = 13
  ghost atom cutoff = 13
  binsize = 6.5, bins = 5 52 5
  3 neighbor lists, perpetual/occasional/extra = 3 0 0
  (1) pair coul/long, perpetual
      attributes: half, newton on
      pair build: half/bin/newton
      stencil: half/bin/3d/newton
      bin: standard
  (2) pair eam/alloy, perpetual, skip from (1)
      attributes: half, newton on
      pair build: skip
      stencil: none
      bin: none
  (3) pair table, perpetual, skip from (1)
      attributes: half, newton on
      pair build: skip
      stencil: none
      bin: none
Finding 1-2 1-3 1-4 neighbors ...
  special bond factors lj:    0.0      0.0      0.0     
  special bond factors coul:  0.0      0.0      0.0     
     0 = max # of 1-2 neighbors
     0 = max # of 1-3 neighbors
     0 = max # of 1-4 neighbors
     1 = max # of special neighbors
  special bonds CPU = 0.001 seconds
PPPM initialization ...
  using 12-bit tables for long-range coulomb (../kspace.cpp:328)
  G vector (1/distance) = 0.29900868
  grid = 40 240 40
  stencil order = 5
  estimated absolute RMS force accuracy = 0.00015409507
  estimated relative force accuracy = 1.070131e-05
  using single precision MKL FFT
  3d grid and FFT values/proc = 18225 7600
Neighbor list info ...
  update every 1 steps, delay 0 steps, check yes
  max neighbors/atom: 2000, page size: 100000
  master list distance cutoff = 13
  ghost atom cutoff = 13
  binsize = 6.5, bins = 5 52 5
  3 neighbor lists, perpetual/occasional/extra = 3 0 0
  (1) pair coul/long, perpetual
      attributes: half, newton on
      pair build: half/bin/newton
      stencil: half/bin/3d/newton
      bin: standard
  (2) pair eam/alloy, perpetual, skip from (1)
      attributes: half, newton on
      pair build: skip
      stencil: none
      bin: none
  (3) pair table, perpetual, skip from (1)
      attributes: half, newton on
      pair build: skip
      stencil: none
      bin: none
Setting up Verlet run ...
  Unit style    : metal
  Current step  : 225
  Time step     : 0.001
Per MPI rank memory allocation (min/avg/max) = 9.228 | 9.857 | 10.04 Mbytes
Step Dt Time Atoms Temp PotEng KinEng Press Volume 
     225        0.001            0    17760          300   -231390.95    688.65927    3004.5778     262175.2 
   20000        0.001       19.775    17760    300.72294   -231035.93    690.31881    215.52114    263863.22 
   40000        0.001       39.775    17760    299.54742   -231038.24    687.62037    497.08726    263857.97 
   60000        0.001       59.775    17760    299.09655   -231039.47    686.58537    318.28607    263859.16 
   80000        0.001       79.775    17760    298.97929   -231033.58    686.31621    1952.8186    263638.12 
  100000        0.001       99.775    17760    300.69849   -231034.06    690.26267    430.83504    263893.86 
  100225        0.001          100    17760    299.71169   -231042.99    687.99744   -134.96506    263951.99 
Loop time of 801.499 on 52 procs for 100000 steps with 17760 atoms

Performance: 10.780 ns/day, 2.226 hours/ns, 124.766 timesteps/s
99.8% CPU use with 52 MPI tasks x 1 OpenMP threads

MPI task timing breakdown:
Section |  min time  |  avg time  |  max time  |%varavg| %total
---------------------------------------------------------------
Pair    | 485.76     | 498.66     | 519.09     |  36.5 | 62.22
Bond    | 0.0096642  | 0.015508   | 0.024773   |   2.5 |  0.00
Kspace  | 171.06     | 191.73     | 204.57     |  59.1 | 23.92
Neigh   | 1.035      | 1.1163     | 1.2026     |   3.3 |  0.14
Comm    | 15.262     | 15.88      | 16.553     |   7.1 |  1.98
Output  | 0.031249   | 0.031274   | 0.032368   |   0.1 |  0.00
Modify  | 79.763     | 83.982     | 88.232     |  25.4 | 10.48
Other   |            | 10.08      |            |       |  1.26

Nlocal:        341.538 ave         365 max         322 min
Histogram: 3 3 6 14 9 4 5 3 2 3
Nghost:        5553.00 ave        5707 max        5408 min
Histogram: 11 5 3 1 7 5 7 1 0 12
Neighs:       108575.0 ave      119032 max       96648 min
Histogram: 2 3 4 3 5 15 10 6 2 2

Total # of neighbors = 5645893
Ave neighs/atom = 317.89938
Ave special neighs/atom = 0.0000000
Neighbor list builds = 364
Dangerous builds = 0
System init for write_data ...
PPPM initialization ...
  using 12-bit tables for long-range coulomb (../kspace.cpp:328)
  G vector (1/distance) = 0.29888187
  grid = 40 240 40
  stencil order = 5
  estimated absolute RMS force accuracy = 0.00015512437
  estimated relative force accuracy = 1.0772791e-05
  using single precision MKL FFT
  3d grid and FFT values/proc = 18225 7600
Neighbor list info ...
  update every 1 steps, delay 0 steps, check yes
  max neighbors/atom: 2000, page size: 100000
  master list distance cutoff = 13
  ghost atom cutoff = 13
  binsize = 6.5, bins = 5 52 5
  3 neighbor lists, perpetual/occasional/extra = 3 0 0
  (1) pair coul/long, perpetual
      attributes: half, newton on
      pair build: half/bin/newton
      stencil: half/bin/3d/newton
      bin: standard
  (2) pair eam/alloy, perpetual, skip from (1)
      attributes: half, newton on
      pair build: skip
      stencil: none
      bin: none
  (3) pair table, perpetual, skip from (1)
      attributes: half, newton on
      pair build: skip
      stencil: none
      bin: none
Total wall time: 0:13:26
