LAMMPS (29 Oct 2020)
OMP_NUM_THREADS environment is not set. Defaulting to 1 thread. (../comm.cpp:94)
  using 1 OpenMP thread(s) per MPI task
OMP_NUM_THREADS environment is not set. Defaulting to 1 thread. (../comm.cpp:94)
  using 1 OpenMP thread(s) per MPI task
Reading data file ...
  orthogonal box = (-0.41544196 -5.0656234 -0.40609968) to (27.755442 333.14562 27.746100)
  2 by 13 by 2 MPI processor grid
  reading atoms ...
  17760 atoms
  reading velocities ...
  17760 velocities
Finding 1-2 1-3 1-4 neighbors ...
  special bond factors lj:    0.0      0.0      0.0     
  special bond factors coul:  0.0      0.0      0.0     
     0 = max # of 1-2 neighbors
     0 = max # of 1-3 neighbors
     0 = max # of 1-4 neighbors
     1 = max # of special neighbors
  special bonds CPU = 0.004 seconds
  read_data CPU = 0.079 seconds
WARNING: 13 of 1000 force values in table Xe-Xe are inconsistent with -dE/dr.
  Should only be flagged at inflection points (../pair_table.cpp:461)
WARNING: 2 of 1000 force values in table Xe-O are inconsistent with -dE/dr.
  Should only be flagged at inflection points (../pair_table.cpp:461)
WARNING: 2 of 1000 force values in table Xe-Th are inconsistent with -dE/dr.
  Should only be flagged at inflection points (../pair_table.cpp:461)
Setting atom values ...
  11760 settings made for charge
Setting atom values ...
  5880 settings made for charge
Setting atom values ...
  120 settings made for charge
PPPM initialization ...
  using 12-bit tables for long-range coulomb (../kspace.cpp:328)
  G vector (1/distance) = 0.29858383
  grid = 40 240 40
  stencil order = 5
  estimated absolute RMS force accuracy = 0.00015753544
  estimated relative force accuracy = 1.0940231e-05
  using single precision MKL FFT
  3d grid and FFT values/proc = 18225 7600
Neighbor list info ...
  update every 1 steps, delay 0 steps, check yes
  max neighbors/atom: 2000, page size: 100000
  master list distance cutoff = 13
  ghost atom cutoff = 13
  binsize = 6.5, bins = 5 53 5
  3 neighbor lists, perpetual/occasional/extra = 3 0 0
  (1) pair coul/long, perpetual
      attributes: half, newton on
      pair build: half/bin/newton
      stencil: half/bin/3d/newton
      bin: standard
  (2) pair eam/alloy, perpetual, skip from (1)
      attributes: half, newton on
      pair build: skip
      stencil: none
      bin: none
  (3) pair table, perpetual, skip from (1)
      attributes: half, newton on
      pair build: skip
      stencil: none
      bin: none
Setting up Verlet run ...
  Unit style    : metal
  Current step  : 0
  Time step     : 0.001
Per MPI rank memory allocation (min/avg/max) = 9.254 | 9.940 | 10.04 Mbytes
Step Temp E_pair E_mol TotEng Press 
       0          900    -229629.7            0   -227563.72    677.94937 
  100000    896.69277   -229615.08            0    -227556.7    825.16038 
Loop time of 697.313 on 52 procs for 100000 steps with 17760 atoms

Performance: 12.390 ns/day, 1.937 hours/ns, 143.408 timesteps/s
99.8% CPU use with 52 MPI tasks x 1 OpenMP threads

MPI task timing breakdown:
Section |  min time  |  avg time  |  max time  |%varavg| %total
---------------------------------------------------------------
Pair    | 509.82     | 524.56     | 542.74     |  29.9 | 75.23
Bond    | 0.0082439  | 0.014102   | 0.021134   |   2.1 |  0.00
Kspace  | 131.62     | 149.17     | 162.98     |  52.6 | 21.39
Neigh   | 3.3767     | 3.6084     | 3.855      |   5.4 |  0.52
Comm    | 14.075     | 15.077     | 17.15      |  20.2 |  2.16
Output  | 5.3636e-05 | 5.8837e-05 | 0.00029259 |   0.0 |  0.00
Modify  | 1.9254     | 3.5093     | 5.0556     |  60.7 |  0.50
Other   |            | 1.376      |            |       |  0.20

Nlocal:        341.538 ave         366 max         326 min
Histogram: 4 5 8 11 7 10 3 0 2 2
Nghost:        5518.50 ave        5692 max        5356 min
Histogram: 6 10 4 3 4 7 3 3 2 10
Neighs:       106447.0 ave      116059 max       94687 min
Histogram: 2 3 2 2 8 11 15 5 0 4

Total # of neighbors = 5535240
Ave neighs/atom = 311.66892
Ave special neighs/atom = 0.0000000
Neighbor list builds = 1208
Dangerous builds = 0
11760 atoms in group oxygen
PPPM initialization ...
  using 12-bit tables for long-range coulomb (../kspace.cpp:328)
  G vector (1/distance) = 0.29858383
  grid = 40 240 40
  stencil order = 5
  estimated absolute RMS force accuracy = 0.00015753544
  estimated relative force accuracy = 1.0940231e-05
  using single precision MKL FFT
  3d grid and FFT values/proc = 18225 7600
Neighbor list info ...
  update every 1 steps, delay 0 steps, check yes
  max neighbors/atom: 2000, page size: 100000
  master list distance cutoff = 13
  ghost atom cutoff = 13
  binsize = 6.5, bins = 5 53 5
  3 neighbor lists, perpetual/occasional/extra = 3 0 0
  (1) pair coul/long, perpetual
      attributes: half, newton on
      pair build: half/bin/newton
      stencil: half/bin/3d/newton
      bin: standard
  (2) pair eam/alloy, perpetual, skip from (1)
      attributes: half, newton on
      pair build: skip
      stencil: none
      bin: none
  (3) pair table, perpetual, skip from (1)
      attributes: half, newton on
      pair build: skip
      stencil: none
      bin: none
Setting up Verlet run ...
  Unit style    : metal
  Current step  : 0
  Time step     : 0.001
Per MPI rank memory allocation (min/avg/max) = 9.504 | 10.18 | 10.29 Mbytes
Step f_2 Temp v_Tdiff v_deltaT 
       0            0    896.69277            0            0 
  100000    993.34281    897.28102  0.033831848    392.78461 
  200000    1951.1813    901.07638  0.039040152    453.25254 
  300000     2901.046    898.39983  0.039176209    454.83215 
  400000    3863.8578    895.01438  0.037578362     436.2813 
  500000    4821.1681    895.78999  0.039608311    459.84882 
  600000      5780.67     901.8169  0.039376065    457.15246 
  700000    6745.7133    897.86267   0.03933075    456.62635 
  800000    7708.0566     893.2555  0.038090385    442.22583 
  900000    8664.5369    903.06263  0.038815017    450.63874 
 1000000    9617.8717     902.3004  0.039449542    458.00552 
Loop time of 6982.36 on 52 procs for 1000000 steps with 17760 atoms

Performance: 12.374 ns/day, 1.940 hours/ns, 143.218 timesteps/s
99.9% CPU use with 52 MPI tasks x 1 OpenMP threads

MPI task timing breakdown:
Section |  min time  |  avg time  |  max time  |%varavg| %total
---------------------------------------------------------------
Pair    | 5065.3     | 5242.7     | 5418.3     | 109.3 | 75.08
Bond    | 0.084453   | 0.13751    | 0.19659    |   5.8 |  0.00
Kspace  | 1341.1     | 1508.6     | 1672.5     | 189.0 | 21.61
Neigh   | 37.596     | 40.884     | 43.799     |  25.3 |  0.59
Comm    | 139.79     | 150.65     | 178.83     |  77.6 |  2.16
Output  | 0.0010492  | 0.0011052  | 0.0022608  |   0.5 |  0.00
Modify  | 5.5356     | 6.0887     | 6.6902     |  12.6 |  0.09
Other   |            | 33.35      |            |       |  0.48

Nlocal:        341.538 ave         365 max         314 min
Histogram: 2 4 1 9 8 8 7 3 5 5
Nghost:        5526.69 ave        5700 max        5371 min
Histogram: 7 9 8 0 1 8 6 1 0 12
Neighs:       106448.0 ave      115436 max       92846 min
Histogram: 2 4 3 0 7 5 10 8 7 6

Total # of neighbors = 5535318
Ave neighs/atom = 311.67331
Ave special neighs/atom = 0.0000000
Neighbor list builds = 13635
Dangerous builds = 0
Total wall time: 2:08:00
