LAMMPS data file via write_data, version 29 Oct 2020, timestep = 100194

17700 atoms
3 atom types

-0.3736109969342232 27.71361099693469 xlo xhi
-4.417155339830831 332.49715533983556 ylo yhi
-0.3745642889747451 27.714564288973992 zlo zhi

Masses

1 15.9994
2 232.0381
3 131.293

Atoms # full

1 0 2 2.2208 5.294790923375321 1.2348664996256724 5.084876974979789 0 0 0
2 0 1 -1.1104 0.9965316887570026 -2.9593652224245157 1.0819091725438537 0 0 0
3 0 1 -1.1104 1.0466048699142982 2.556034900805715 1.1670180781426596 0 0 0
6 0 1 -1.1104 1.096965185120154 -3.0491045528666136 3.8048676392945993 0 0 0
7 0 1 -1.1104 1.1670990658089853 2.3671916121444903 3.746345366208187 0 0 0
10 0 1 -1.1104 0.9033107117065441 -0.19442451271200706 0.7414576033734698 0 0 0
12 0 2 2.2208 5.146434770583966 -1.791125754876454 2.441255248207203 0 0 0
13 0 2 2.2208 5.239305510443533 3.92707885700012 2.4642569718578 0 0 0
14 0 1 -1.1104 1.022429685019463 -0.3745667255407122 3.742380522097782 0 0 0
16 0 1 -1.1104 3.7859971070494165 -3.0547226624637576 0.9623466028739409 0 0 0
17 0 1 -1.1104 3.9395525221678667 2.579209346398115 1.0403098495717988 0 0 0
18 0 2 2.2208 2.3404339104119822 0.9934741348322477 2.3202532872186095 0 0 0
19 0 1 -1.1104 3.827998915955088 -3.1626635800945495 3.8289973865016265 0 0 0
20 0 1 -1.1104 3.8685189749064417 2.4806106647824184 3.6812474315013772 0 0 0
21 0 2 2.2208 2.444435665827626 -1.7279075838677458 5.351884130710431 0 0 0
22 0 2 2.2208 2.472110425039379 3.8518053341036014 4.977193541896207 0 0 0
23 0 1 -1.1104 3.8796059167397576 -0.22787586439912538 1.0569196746778842 0 0 0
24 0 1 -1.1104 3.8617585819111784 -0.3339089589183644 3.8660368767370934 0 0 0
168 0 1 -1.1104 1.0080783839775154 -0.2868102656808185 6.734756325462292 0 0 0
9 0 1 -1.1104 6.739894490424829 2.6247954679626773 3.963521023254408 0 0 0
164 0 1 -1.1104 0.9364972693830481 -3.0204925637969438 6.603212029058371 0 0 0
8350 0 2 2.2208 13.603354584553053 -4.406295071435492 7.908159571872766 0 0 0
11 0 1 -1.1104 6.658980656388899 -0.2651017435587463 1.0898523240152707 0 0 0
4 0 1 -1.1104 6.59939844245966 -3.057148126045353 1.0501155020826742 0 0 0
5 0 1 -1.1104 6.6229260714974005 2.5493332360265297 1.213184909707864 0 0 0
8 0 1 -1.1104 6.630925955913091 -3.090937391969137 3.898426049743845 0 0 0
312 0 2 2.2208 10.986618588066088 20.545268200048074 13.645544628996287 0 0 0
199 0 1 -1.1104 9.371459571771176 13.750346383969152 9.621167626996023 0 0 0
172 0 1 -1.1104 3.7262308649635845 -0.2502681863222756 6.686455693068964 0 0 0
170 0 1 -1.1104 3.7507097619035084 -3.215639740440171 6.77754502040967 0 0 0
165 0 1 -1.1104 1.0158108338067877 2.4503001258897936 6.720340040472347 0 0 0
169 0 1 -1.1104 6.516569193538719 -0.27004492637948846 6.522790686434102 0 0 0
167 0 1 -1.1104 6.625137698509176 2.4307753898215 6.696669711010581 0 0 0
8346 0 2 2.2208 7.968841712755388 -4.3487799045051885 2.4157566672003385 0 0 0
53 0 2 2.2208 7.956263137691721 15.086454946451706 10.941882634614467 0 0 0
15 0 1 -1.1104 6.636838784173071 -0.2907438295689728 3.8905801945984297 0 0 0
31 0 2 2.2208 10.912652490846952 1.082066435013376 5.309592443116668 0 0 0
32 0 1 -1.1104 12.266071557273289 -2.872552176245029 1.1257050005022156 0 0 0
33 0 1 -1.1104 12.302079184958448 2.5450939121261693 1.070910504375985 0 0 0
34 0 1 -1.1104 12.344320959445767 -2.9910887472815393 3.8856867044358268 0 0 0
35 0 1 -1.1104 12.307272698246766 2.5119308045543165 3.86521865293309 0 0 0
36 0 1 -1.1104 12.219408669767313 -0.234406337776377 0.9885037242547599 0 0 0
37 0 2 2.2208 10.870264159207538 -1.5582270166001937 2.4259723320227713 0 0 0
38 0 2 2.2208 10.86863255831884 3.935897722575265 2.4571115417994522 0 0 0
39 0 1 -1.1104 12.340161240146584 -0.16842845752089838 3.9205682614456894 0 0 0
40 0 1 -1.1104 9.389362971814927 -3.0011773109019977 1.1577322259946263 0 0 0
41 0 1 -1.1104 9.39721072222562 2.6864540068021947 1.1109771386887328 0 0 0
42 0 2 2.2208 7.92437883080147 1.1174271822427118 2.5625384121009884 0 0 0
43 0 1 -1.1104 9.462379226792887 -2.838458179868446 3.7713829071307874 0 0 0
44 0 1 -1.1104 9.467414117150287 2.547856845060559 3.9243176110487403 0 0 0
45 0 2 2.2208 8.00484841093202 -1.6727793146017191 5.256407082080619 0 0 0
46 0 2 2.2208 8.13508218596834 3.9301646113209587 5.35676253429795 0 0 0
47 0 1 -1.1104 9.505975329078616 -0.2714482108424989 0.9655917709691599 0 0 0
48 0 1 -1.1104 9.555168558361936 -0.0624734259076504 3.7945660582883436 0 0 0
207 0 1 -1.1104 9.684254216553697 2.5709099012469867 6.732532285598883 0 0 0
8724 0 2 2.2208 13.626712023648663 3.982172057365664 5.123458288297936 0 0 0
149 0 1 -1.1104 12.189945358057455 16.832968396703784 6.732547841866142 0 0 0
166 0 1 -1.1104 6.564005018389626 -2.929347192220236 6.672621430492051 0 0 0
203 0 1 -1.1104 12.24967228555432 -2.9508487041082723 6.591880071683533 0 0 0
205 0 1 -1.1104 12.15525956308903 -0.3006043391432114 6.702948445809017 0 0 0
154 0 1 -1.1104 9.39667648891776 13.5274012860215 6.783709533091566 0 0 0
8347 0 2 2.2208 10.844201891417464 -4.336075096294748 5.240622369661547 0 0 0
52 0 2 2.2208 8.104555695728804 20.672355326948953 10.853429071281923 0 0 0
54 0 2 2.2208 5.160450430560412 6.831601107754236 5.230586305599326 0 0 0
55 0 2 2.2208 5.051658791718339 12.392335813294698 5.251845892111998 0 0 0
56 0 1 -1.1104 0.930652158943081 8.294467709270329 1.0442281828704034 0 0 0
58 0 1 -1.1104 1.192771484021808 8.172685277250771 3.8377665931766303 0 0 0
60 0 1 -1.1104 0.9669732246471309 5.389380650598317 0.9853034397620822 0 0 0
61 0 1 -1.1104 0.9366469051234488 11.159408147522793 1.0282139920230338 0 0 0
66 0 2 2.2208 5.210641534135541 9.503013777312166 2.4447322922280135 0 0 0
67 0 1 -1.1104 0.9970602516807588 5.283569826172693 3.804087144504919 0 0 0
68 0 1 -1.1104 1.0041706495674823 10.989527967440365 3.7957862068491868 0 0 0
71 0 1 -1.1104 3.7698493052372757 8.247772200803912 1.1284035453907586 0 0 0
72 0 2 2.2208 2.3481572248347806 6.761846012264226 2.410414536790832 0 0 0
73 0 2 2.2208 2.351566743116108 12.407299829420792 2.462931895018945 0 0 0
74 0 1 -1.1104 3.938098812671874 8.1566783452038 3.8093175043247496 0 0 0
75 0 2 2.2208 2.3861075828458715 9.727424628144806 5.1882024795924755 0 0 0
76 0 1 -1.1104 3.8452228509622706 5.354667142917082 0.8554526235742296 0 0 0
77 0 1 -1.1104 3.6979685800476947 11.040621781125939 1.0144329293621206 0 0 0
79 0 1 -1.1104 3.871121681371701 5.341348961952723 3.7247825645623918 0 0 0
80 0 1 -1.1104 3.778581943891698 11.062510737059236 3.8826875289329768 0 0 0
78 0 1 -1.1104 3.7370857313313994 10.872441416532673 6.743507337032219 0 0 0
235 0 1 -1.1104 6.540330191919267 5.482438781787429 6.751936052484196 0 0 0
69 0 1 -1.1104 6.5184496959158205 5.40573177845195 3.886524822880935 0 0 0
57 0 1 -1.1104 6.654190357750381 8.184670766687434 0.8965843051257905 0 0 0
63 0 1 -1.1104 6.707218553912227 5.324732073782589 0.969718664070646 0 0 0
233 0 1 -1.1104 6.589208057769678 8.214651895329675 6.582577401488462 0 0 0
50 0 1 -1.1104 12.316963648171733 19.15643358371844 12.13092341257511 0 0 0
9031 0 2 2.2208 13.628102743597058 12.333368937652882 2.518164123558275 0 0 0
632 0 2 2.2208 10.765011589083352 12.457157193146676 -0.3715453632275854 0 0 0
59 0 1 -1.1104 6.711641565402276 8.116936468940196 3.7663447662501657 0 0 0
64 0 1 -1.1104 6.657180728069628 10.935570508127993 1.0676237079488484 0 0 0
630 0 2 2.2208 10.83853882411081 6.803184949842126 -0.3431069364305448 0 0 0
70 0 1 -1.1104 6.504773790335898 10.953695044523238 3.7972337603102004 0 0 0
84 0 2 2.2208 10.806117454847785 6.71735417799138 5.31407544648409 0 0 0
85 0 2 2.2208 10.74452141139769 12.324814560873465 5.249768778780987 0 0 0
86 0 1 -1.1104 12.287890540538868 8.120427539089539 0.9262357536402928 0 0 0
87 0 1 -1.1104 12.152860618917884 8.312736485087187 3.84719898648495 0 0 0
88 0 1 -1.1104 12.270735585140299 5.266484560021603 1.0727064629502707 0 0 0
89 0 1 -1.1104 12.409027937250118 11.110849432966415 1.1394368463339521 0 0 0
91 0 2 2.2208 10.90551841088289 9.58914544204765 2.5331092838401106 0 0 0
92 0 1 -1.1104 12.22427286076336 5.375716796419062 3.9224771801425304 0 0 0
93 0 1 -1.1104 12.28446336322499 10.970835631076017 3.8831919584318064 0 0 0
94 0 1 -1.1104 9.353765516922032 8.363600398610787 1.0933111490524792 0 0 0
95 0 2 2.2208 8.007891455569956 6.7006107270636335 2.3787666576656945 0 0 0
96 0 2 2.2208 7.921287293089697 12.263940203522292 2.479555061851623 0 0 0
97 0 1 -1.1104 9.375133009570172 8.081460000993399 3.974269465923952 0 0 0
98 0 2 2.2208 8.086499888738715 9.425782530127458 5.2609077243944204 0 0 0
99 0 1 -1.1104 9.569476236913548 5.511884509833266 1.2284738668901685 0 0 0
100 0 1 -1.1104 9.433928640408496 11.161096723074689 0.9886006605318288 0 0 0
102 0 1 -1.1104 9.371286050106283 5.251579738537562 3.922137075874586 0 0 0
103 0 1 -1.1104 9.487146773431887 10.90570982819544 3.709379173496339 0 0 0
267 0 1 -1.1104 9.357682753389659 5.27028132782299 6.773228311345409 0 0 0
9024 0 2 2.2208 13.666036906961555 14.947003002161424 10.968915722240464 0 0 0
8753 0 2 2.2208 13.586575327484352 9.579437099241549 5.311021890384717 0 0 0
8936 0 2 2.2208 13.514732943234343 12.345116524959568 8.153936431749088 0 0 0
8935 0 2 2.2208 13.53029572323965 6.668972977876402 8.012804142088365 0 0 0
106 0 2 2.2208 5.088153235932599 17.772717263178606 5.381238300685772 0 0 0
107 0 1 -1.1104 1.0176511919174542 13.701290006842145 1.0936107701688198 0 0 0
109 0 1 -1.1104 1.114424321909569 19.42093480548236 1.1535043929494377 0 0 0
113 0 1 -1.1104 0.9991515028990811 13.846404697531026 3.9817040479897874 0 0 0
114 0 1 -1.1104 0.9207125772774768 19.391246187749612 3.904207754376224 0 0 0
116 0 1 -1.1104 1.0681908470982941 16.64482617124379 1.022018149551072 0 0 0
119 0 2 2.2208 5.275354152728401 15.159208310388756 2.3395424232608306 0 0 0
120 0 2 2.2208 5.220799162058086 20.72687082220977 2.425134551967116 0 0 0
121 0 1 -1.1104 0.9783354002588976 16.5848020122926 3.9813498011575996 0 0 0
123 0 1 -1.1104 3.8105074777342764 13.758214853514334 1.055108185050775 0 0 0
125 0 1 -1.1104 3.936583974186574 19.368801561049434 0.8609735073913363 0 0 0
127 0 2 2.2208 2.50925672328828 18.033928032683843 2.4247533720385706 0 0 0
128 0 1 -1.1104 3.773133752586096 13.780213786762166 3.9247050015942695 0 0 0
129 0 1 -1.1104 3.7457154704489097 19.449656969180676 3.845676522332736 0 0 0
130 0 2 2.2208 2.337864682171229 15.139340249638606 5.386444316987323 0 0 0
131 0 2 2.2208 2.454383826550202 20.785135620741514 5.35105973781792 0 0 0
132 0 1 -1.1104 3.8473410582067196 16.479897390121224 1.117438345171977 0 0 0
134 0 1 -1.1104 3.6486713097815966 16.663309448758646 3.878301360570958 0 0 0
108 0 1 -1.1104 0.8562082672209849 13.893091003684907 6.827127539142222 0 0 0
122 0 1 -1.1104 6.445521504694144 16.38711081716324 4.072207766138445 0 0 0
140 0 1 -1.1104 6.556462688797143 16.708207972507324 1.202470877662904 0 0 0
110 0 1 -1.1104 6.644008315412023 13.775829458036734 0.9200328155679559 0 0 0
115 0 1 -1.1104 6.622680152275007 13.642251643638328 3.786051370185253 0 0 0
300 0 1 -1.1104 1.0642243218405545 19.370261519005815 6.685394315213279 0 0 0
229 0 2 2.2208 13.60508049402522 -1.6949749953163413 10.915616802297427 0 0 0
352 0 2 2.2208 8.089914538088218 15.147859813167505 -0.3669001941494414 0 0 0
139 0 1 -1.1104 6.452112271540663 19.1252796182134 3.7420047429520062 0 0 0
138 0 1 -1.1104 7.06528069170016 19.407906349073865 1.0201444274438924 0 0 0
141 0 2 2.2208 10.844558981395165 18.033053504976174 5.302809238011804 0 0 0
142 0 1 -1.1104 12.162148391586664 13.720430930788133 0.9486417733034952 0 0 0
144 0 1 -1.1104 12.227328811835195 19.275987263406893 0.87802738085194 0 0 0
146 0 1 -1.1104 12.12681513539532 13.62918584163106 3.9947785449250186 0 0 0
147 0 1 -1.1104 12.402065680546267 19.292041065372153 4.007076240784377 0 0 0
148 0 1 -1.1104 12.321679057236956 16.601800362507056 1.0951870242972994 0 0 0
150 0 2 2.2208 10.829354015137682 15.109464537522845 2.4592008919055757 0 0 0
152 0 1 -1.1104 12.249981689725184 16.477918317499135 3.913160995591453 0 0 0
153 0 1 -1.1104 9.445027906368747 13.996925589298472 1.0188352311227569 0 0 0
155 0 1 -1.1104 9.253294020817163 19.258625892832224 3.96182195235136 0 0 0
156 0 2 2.2208 7.996461979267938 17.83172966293778 2.637303920961705 0 0 0
157 0 1 -1.1104 9.318016543859464 13.633094714473566 3.8499745339660616 0 0 0
158 0 2 2.2208 8.066368770678322 14.942341393664027 5.328033169002871 0 0 0
159 0 2 2.2208 7.898107056481113 20.578179717617875 5.406443812182152 0 0 0
160 0 1 -1.1104 9.574634456736131 16.802678762480383 1.1395712011671326 0 0 0
162 0 1 -1.1104 9.423971828329332 16.51648604321038 3.8395642010312256 0 0 0
161 0 1 -1.1104 9.422885404072698 16.400715915518497 6.849770065913051 0 0 0
143 0 1 -1.1104 12.266676033386432 13.95864290758586 6.807095961216437 0 0 0
306 0 2 2.2208 13.643876360683988 20.708946219946416 -0.3032401611554214 0 0 0
171 0 1 -1.1104 3.817162697881888 2.5800167159797422 6.389765883390773 0 0 0
173 0 2 2.2208 5.037858854443626 1.205217029082272 10.78034912292954 0 0 0
174 0 1 -1.1104 0.900402049349523 -2.806594002023219 12.241227176130606 0 0 0
175 0 1 -1.1104 0.7692953625222896 2.614477158946096 12.364396513534816 0 0 0
178 0 1 -1.1104 1.070056919442515 -3.13574342345329 9.454380518093693 0 0 0
179 0 1 -1.1104 1.0485135408621602 2.6414380412287697 9.515478977286266 0 0 0
182 0 1 -1.1104 0.8496794953929091 -0.01207195388025861 12.398924003463007 0 0 0
184 0 2 2.2208 5.16193084008615 -1.6578534898425465 8.074099895688486 0 0 0
186 0 1 -1.1104 1.0999671370183068 -0.32915459015434534 9.493622540545024 0 0 0
188 0 1 -1.1104 3.851233530686654 -3.154283344164045 12.283590457907577 0 0 0
189 0 1 -1.1104 3.73614590967047 2.5730071151846947 12.258755460759547 0 0 0
190 0 2 2.2208 2.4936828446329193 1.1956952371999146 8.001610935350495 0 0 0
191 0 1 -1.1104 3.7808944868856167 -3.1427890938124134 9.60653639381275 0 0 0
192 0 1 -1.1104 3.942493503043597 2.5884883284234803 9.29294534874522 0 0 0
193 0 2 2.2208 2.4029726471462958 -1.6339394241264027 10.902388304826216 0 0 0
194 0 2 2.2208 2.4152821790134658 4.035748594157076 10.927049536380576 0 0 0
195 0 1 -1.1104 3.7089541606174894 -0.23250009689822984 12.318579104827254 0 0 0
196 0 1 -1.1104 3.7650801270605583 -0.25574685469451935 9.440257887921886 0 0 0
185 0 2 2.2208 5.17705407519315 3.9795242797463937 7.819029620862572 0 0 0
181 0 1 -1.1104 6.590283653777128 2.4297244041077293 9.460526524184946 0 0 0
180 0 1 -1.1104 6.688866645680029 -3.1497582636559343 9.419837353925333 0 0 0
176 0 1 -1.1104 6.602406384014618 -3.154144449949974 12.144884244356966 0 0 0
183 0 1 -1.1104 6.596505963774781 -0.4355798025107068 12.136317495786836 0 0 0
8859 0 2 2.2208 13.531586521162001 3.9234781645251906 10.9869161139878 0 0 0
308 0 2 2.2208 5.22867854996865 -1.7047852053544126 13.537211120437684 0 0 0
81 0 1 -1.1104 12.13697110888554 13.73972103088063 9.576401183967626 0 0 0
8920 0 2 2.2208 -0.2618702038832582 15.27398421138983 2.3845445600165673 0 0 0
8751 0 2 2.2208 -0.35716666109147804 20.869121693783857 8.215454378919812 0 0 0
208 0 1 -1.1104 9.421658464455655 -0.19488901357870944 6.6157962354155 0 0 0
8822 0 2 2.2208 13.51269732180836 15.281231279616131 5.293374604917856 0 0 0
200 0 1 -1.1104 9.449600144834694 19.33282836564565 9.587888291591504 0 0 0
177 0 1 -1.1104 6.485588809245273 2.4600728557848472 12.380670966497336 0 0 0
206 0 1 -1.1104 9.325517674522636 -3.0321735039977327 6.585034303915074 0 0 0
204 0 1 -1.1104 12.272934598605504 2.516300668665559 6.775013576172465 0 0 0
187 0 1 -1.1104 6.512059140592358 -0.36382772874161945 9.37058425879133 0 0 0
210 0 2 2.2208 10.74660507134625 1.1001271046597463 10.81205712576358 0 0 0
211 0 1 -1.1104 12.002420127408394 -3.089061071309728 12.16889403899458 0 0 0
212 0 1 -1.1104 12.167681969072792 2.5868732210614485 12.25594772313764 0 0 0
213 0 1 -1.1104 12.2487635809051 -3.027741309548073 9.444433825252187 0 0 0
214 0 1 -1.1104 12.232334754663729 2.454835132517418 9.583535059598615 0 0 0
215 0 1 -1.1104 12.129044158963413 -0.24782402968097067 12.377330686596736 0 0 0
216 0 2 2.2208 10.70799931051501 -1.6893200824469776 7.982312764950539 0 0 0
218 0 1 -1.1104 12.07309351072063 -0.27308423528531767 9.523089688593412 0 0 0
219 0 1 -1.1104 9.379218319690244 -3.1256050198248135 12.18738737267258 0 0 0
220 0 1 -1.1104 9.371031391843747 2.363832033154016 12.225229871156586 0 0 0
221 0 2 2.2208 7.957383543024782 1.072227064474885 8.03434654735497 0 0 0
222 0 1 -1.1104 9.53806804230957 -2.986166441044121 9.411078935843468 0 0 0
223 0 1 -1.1104 9.281800770155058 2.520246548575064 9.443814822578508 0 0 0
224 0 2 2.2208 8.073614021566444 -1.6516311200268396 10.814764936415939 0 0 0
225 0 2 2.2208 7.969298346031123 3.7970114195807563 10.717501851600518 0 0 0
226 0 1 -1.1104 9.377762351513537 -0.30241548898166565 12.260845180279718 0 0 0
227 0 1 -1.1104 9.300166168501347 -0.29241336355446657 9.371000845069117 0 0 0
217 0 2 2.2208 10.849566662859223 3.862756810082294 8.1528643371676 0 0 0
163 0 2 2.2208 13.515640513343213 17.951529058113945 2.582962913181865 0 0 0
314 0 2 2.2208 7.928985086627017 1.0672858313739861 13.650888605424958 0 0 0
232 0 1 -1.1104 0.8770241439406606 8.095811756256722 6.601894188287405 0 0 0
234 0 1 -1.1104 1.0163389106416414 5.177013970397061 6.54689678607971 0 0 0
236 0 1 -1.1104 3.7008451584968856 8.00710137671172 6.600492550071008 0 0 0
65 0 1 -1.1104 6.449673306827535 10.966961752003773 6.765029466690844 0 0 0
82 0 1 -1.1104 12.251016959976095 19.4692346128313 9.265791525134928 0 0 0
237 0 1 -1.1104 3.7960671718259347 5.39287800910144 6.558384611405909 0 0 0
62 0 1 -1.1104 1.04016151335813 11.224466694175883 6.489450031008043 0 0 0
238 0 2 2.2208 5.30435255688904 6.594625238090968 10.808197098559855 0 0 0
239 0 2 2.2208 5.150071077311895 12.313699509009574 10.813685109394987 0 0 0
240 0 1 -1.1104 0.9893478045845054 8.160780652709278 12.094942020602156 0 0 0
242 0 1 -1.1104 0.966199719042994 8.249285034930873 9.293207031060218 0 0 0
244 0 1 -1.1104 1.0140071628843814 5.425360541805204 12.413114116844776 0 0 0
245 0 1 -1.1104 1.0587180058286627 10.767199776268331 12.255152900742175 0 0 0
248 0 2 2.2208 5.241021325653715 9.451177673773461 8.058814486258791 0 0 0
249 0 1 -1.1104 1.0559628135973067 5.420873496717722 9.465238633067267 0 0 0
250 0 1 -1.1104 0.9161159221119759 10.998281796954618 9.487342179447673 0 0 0
253 0 1 -1.1104 3.7681335146219044 8.065706770463633 12.229040373603453 0 0 0
254 0 2 2.2208 2.4581856633853065 6.693969690644219 7.916036040768989 0 0 0
255 0 2 2.2208 2.2918642285523365 12.4660453965908 8.073873385289037 0 0 0
256 0 1 -1.1104 3.9001872557579715 8.027396701143928 9.345044830772173 0 0 0
257 0 2 2.2208 2.4859862779586397 9.437256004064748 10.85672283981904 0 0 0
258 0 1 -1.1104 3.842846407191289 5.33477768321975 12.165140267262066 0 0 0
259 0 1 -1.1104 3.7945152125014827 10.841865160001992 12.164322488487825 0 0 0
260 0 1 -1.1104 3.814575051356762 5.471874432279826 9.491229206795486 0 0 0
261 0 1 -1.1104 3.673966099721634 11.057226487981321 9.503063093260655 0 0 0
246 0 1 -1.1104 6.698419579140624 5.283071817294283 12.338291723260134 0 0 0
243 0 1 -1.1104 6.5581662481920775 8.096196160064736 9.527588116338288 0 0 0
251 0 1 -1.1104 6.621240255726215 5.21402014898695 9.46760451902808 0 0 0
241 0 1 -1.1104 6.562222197415403 8.18197255148093 12.260642342817365 0 0 0
311 0 2 2.2208 2.4556042096016477 6.75797993358268 13.660012163401271 0 0 0
101 0 1 -1.1104 9.381603578851333 10.86337648724425 6.600985154734924 0 0 0
90 0 1 -1.1104 12.122398605917164 10.981756090555907 6.647220431935654 0 0 0
8940 0 2 2.2208 13.569548434714957 9.505764581437049 10.921399089824808 0 0 0
265 0 1 -1.1104 9.40143124086338 8.25404754473203 6.788646416953216 0 0 0
264 0 1 -1.1104 12.150242763583536 5.325850158219789 6.753544020790124 0 0 0
263 0 1 -1.1104 12.206840565178208 8.18863427913342 6.644429076603306 0 0 0
252 0 1 -1.1104 6.678684811143771 10.909612201068175 9.562384558620867 0 0 0
247 0 1 -1.1104 6.612634098455091 11.042873842235501 12.333192727966528 0 0 0
262 0 1 -1.1104 9.669802754540896 10.854072046633057 9.584846252363281 0 0 0
266 0 1 -1.1104 9.463829641478304 5.322509049336982 9.593720051842634 0 0 0
268 0 1 -1.1104 9.300433285728502 10.852648546723467 12.242817568002472 0 0 0
269 0 1 -1.1104 9.350250271858387 5.3144554477490145 12.301493832574087 0 0 0
270 0 2 2.2208 7.91511256119504 9.50232611698134 10.953709546502699 0 0 0
271 0 1 -1.1104 9.201689218582628 8.070932550570276 9.702592756602817 0 0 0
272 0 2 2.2208 7.995648087953557 12.265471988668164 7.9959578968666065 0 0 0
273 0 2 2.2208 8.080304240791351 6.695132376766253 8.22238401996693 0 0 0
274 0 2 2.2208 10.801407436322515 6.794416185596499 11.035950004594847 0 0 0
275 0 2 2.2208 10.790654795281872 12.276925139463973 10.973791867751416 0 0 0
276 0 1 -1.1104 12.082271504940817 8.103794935693779 12.332261573900873 0 0 0
277 0 1 -1.1104 12.076008091731918 8.053665779879038 9.509278078448533 0 0 0
278 0 1 -1.1104 12.248681580628707 5.354475004069558 12.41747464851578 0 0 0
279 0 1 -1.1104 12.144400704711973 10.852483816800323 12.249524138684961 0 0 0
280 0 2 2.2208 10.854669935840638 9.585986041632706 8.126861408139952 0 0 0
281 0 1 -1.1104 12.167623322622237 5.281886504043276 9.436520954626419 0 0 0
282 0 1 -1.1104 12.359742646734121 10.954901363625307 9.613982661642872 0 0 0
283 0 1 -1.1104 9.299621989740325 8.12063444381718 12.311590740919147 0 0 0
9032 0 2 2.2208 13.609322287182307 6.730278693761874 2.6288838520742983 0 0 0
9026 0 2 2.2208 -0.3234879633995064 3.90620233996515 2.3458081597335627 0 0 0
83 0 1 -1.1104 12.233864725710637 16.43473668994925 12.23302508324938 0 0 0
124 0 1 -1.1104 3.685274449511832 13.73673425908547 6.748880707322745 0 0 0
111 0 1 -1.1104 6.5487989429733995 13.76897776747622 6.731410056362917 0 0 0
288 0 1 -1.1104 6.39538975674688 13.655347412841484 9.483109129186989 0 0 0
133 0 1 -1.1104 3.8429731874881763 16.348899379067028 6.734411536031347 0 0 0
117 0 1 -1.1104 0.9436022220023905 16.650191148563554 6.660942661020202 0 0 0
112 0 1 -1.1104 6.584573692524498 19.32710334245625 6.738254430771174 0 0 0
126 0 1 -1.1104 3.7388435646097147 19.202500380633772 6.702768417269138 0 0 0
302 0 1 -1.1104 3.7472063928729553 16.51583919333684 9.496229328635659 0 0 0
301 0 2 2.2208 2.3129568929572732 17.854212005209565 8.140492749778902 0 0 0
299 0 1 -1.1104 3.726632728732673 19.252597946547933 9.494755742880663 0 0 0
305 0 1 -1.1104 0.9821011302088271 16.41033194146919 12.335950438642891 0 0 0
303 0 1 -1.1104 3.6564725909875873 13.721326797617703 9.47074059164747 0 0 0
202 0 2 2.2208 2.253638658465631 15.167972242984595 10.840005768648412 0 0 0
209 0 2 2.2208 2.364384447408501 20.775651038823298 10.836312621805297 0 0 0
231 0 1 -1.1104 3.8373882064143574 16.431710318168452 12.344707150589231 0 0 0
284 0 1 -1.1104 3.7612555183634737 19.100792158727195 12.237382797848953 0 0 0
285 0 1 -1.1104 3.7317552609892157 13.587522363044899 12.28194282433081 0 0 0
289 0 1 -1.1104 0.8787969927998612 19.40931054872759 9.43326255736628 0 0 0
290 0 1 -1.1104 0.8938864284102543 16.63488997624921 9.39404633977973 0 0 0
291 0 2 2.2208 5.1605122352715656 20.704471477732092 8.124800009500424 0 0 0
292 0 1 -1.1104 0.9334587357886684 13.934937729113267 9.512366454491325 0 0 0
293 0 2 2.2208 5.134283257496717 15.06168269431481 8.180440726762155 0 0 0
296 0 1 -1.1104 0.9660668587817371 19.343434395522998 12.121479415023288 0 0 0
297 0 1 -1.1104 0.8598686706381332 13.539766477106088 12.184165726914836 0 0 0
298 0 2 2.2208 5.2588566272516415 17.840856356536154 10.96629578928225 0 0 0
286 0 1 -1.1104 6.7074987772239005 19.28158084701048 9.526253159753676 0 0 0
304 0 1 -1.1104 6.570768006520597 16.449576193921107 12.374646928392398 0 0 0
30 0 1 -1.1104 9.459748096736783 16.38176347736943 12.339602081058583 0 0 0
118 0 1 -1.1104 6.636696760767956 16.506949892798552 6.775012180325134 0 0 0
135 0 1 -1.1104 12.248876796950729 16.586534708452568 9.365888349194714 0 0 0
49 0 1 -1.1104 9.306623563561107 16.443270911871753 9.557615709039133 0 0 0
822 0 1 -1.1104 12.233488678061962 19.70435795591931 6.56675626863648 0 0 0
105 0 2 2.2208 10.745665822601527 20.680166361052365 8.108590705359376 0 0 0
26 0 2 2.2208 10.856815386269682 17.854345563931137 10.801028383428427 0 0 0
197 0 2 2.2208 8.047096905248951 17.885595414590473 8.14483866792557 0 0 0
295 0 1 -1.1104 6.644310895807191 13.696399410557717 12.310464364507965 0 0 0
27 0 1 -1.1104 12.214590902437383 13.583533488801521 12.343030311667833 0 0 0
137 0 1 -1.1104 9.430101624153497 19.15599356678627 12.188542856249404 0 0 0
145 0 1 -1.1104 9.351021251918622 19.18278367742267 6.771158409508673 0 0 0
136 0 1 -1.1104 9.402412630069724 13.646590279245835 12.351689141324393 0 0 0
104 0 2 2.2208 10.786297395985216 15.113977210287691 8.145213033571965 0 0 0
294 0 1 -1.1104 6.764637307122642 19.262995696579917 12.281905892468778 0 0 0
287 0 1 -1.1104 6.502331564148306 16.4642587072523 9.491269489962699 0 0 0
544 0 2 2.2208 8.044030924363916 20.93766729694606 -0.3332337622725788 0 0 0
514 0 2 2.2208 11.046933575784173 17.850273442840226 -0.3602194668673988 0 0 0
8468 0 2 2.2208 10.84717141846323 -4.275917187856063 -0.29346043059665017 0 0 0
389 0 2 2.2208 10.65685218413175 -1.6935839974609141 13.616708669564924 0 0 0
426 0 2 2.2208 2.447470506417727 12.183528276595624 13.610895203538105 0 0 0
425 0 2 2.2208 5.067291579030557 9.549814254847165 13.576825979368293 0 0 0
488 0 2 2.2208 2.351576038200001 17.845090713505524 13.657952307533993 0 0 0
315 0 2 2.2208 5.150422374668022 20.63927973363329 13.625873693578187 0 0 0
9042 0 2 2.2208 13.616797894134013 17.774137855311558 13.618224939797802 0 0 0
517 0 2 2.2208 10.910933934041275 14.993342197172977 13.659157208262743 0 0 0
9044 0 2 2.2208 -0.34398133600871905 9.467106129164966 13.662649834490573 0 0 0
541 0 2 2.2208 2.4056901409419766 -1.7133775382756107 -0.34993736804191933 0 0 0
9118 0 2 2.2208 13.603606918504722 12.198204858521093 13.64892970884459 0 0 0
570 0 2 2.2208 10.794471483179658 1.1472997506324702 -0.27495182402949137 0 0 0
572 0 2 2.2208 8.026410667314478 3.992757085483112 -0.3195535372508 0 0 0
605 0 2 2.2208 5.254379844625633 6.822968597398346 -0.27858671530757984 0 0 0
607 0 2 2.2208 5.237613858455256 12.328300944804662 -0.23545013673324364 0 0 0
606 0 2 2.2208 2.349211489067179 9.665044139827993 -0.35556446703792255 0 0 0
318 0 2 2.2208 5.099015149899944 1.1641568514911431 16.297497017448347 0 0 0
319 0 1 -1.1104 1.0704284867423375 -2.855255169148494 17.74041166380181 0 0 0
320 0 1 -1.1104 1.052256761497805 2.558438593281368 18.198543510876156 0 0 0
323 0 1 -1.1104 1.0135171795856914 -2.9326881769269866 15.075050366808565 0 0 0
324 0 1 -1.1104 0.8489281449075522 2.5429957444545623 15.392031272936975 0 0 0
329 0 1 -1.1104 1.0158343559835468 -0.09357172413284455 17.992788814840733 0 0 0
331 0 2 2.2208 5.138656903355733 -1.6651820332848328 19.371810447449974 0 0 0
333 0 1 -1.1104 0.9018342699769739 -0.19785612793548987 15.271274343822236 0 0 0
336 0 1 -1.1104 3.7258558662426227 -2.895078720513125 17.675271220105053 0 0 0
337 0 1 -1.1104 3.913227518024303 2.6450549824721614 17.68982080031241 0 0 0
338 0 2 2.2208 2.6772036530292573 1.1609721628499547 19.04643125530274 0 0 0
339 0 1 -1.1104 3.81554282147292 -3.185539906072451 15.028672712752394 0 0 0
341 0 1 -1.1104 3.649470315347565 2.502014842035232 14.920517793398021 0 0 0
343 0 2 2.2208 2.456340463608053 -1.5527184341296323 16.338753102879423 0 0 0
344 0 2 2.2208 2.292605035877753 3.9999967221505828 16.629043523661522 0 0 0
345 0 1 -1.1104 3.8784351813721725 -0.1283158870199306 17.679797680833822 0 0 0
346 0 1 -1.1104 3.747312675904726 -0.2876660164943276 14.94394503056546 0 0 0
332 0 2 2.2208 5.190738545082477 4.028867625463414 19.20607563035074 0 0 0
340 0 1 -1.1104 3.920309515332012 -3.259001867538685 20.515747850310312 0 0 0
9101 0 1 -1.1104 0.8000760180151367 -3.252596979772664 20.318882816571662 1 0 0
342 0 1 -1.1104 3.460707536586164 2.6899705377107757 20.6878016528882 0 0 0
347 0 1 -1.1104 4.067560194820023 0.08603977912985607 20.39711327190437 0 0 0
8618 0 2 2.2208 -0.3433264007883855 -4.37629892494191 16.41321631574862 0 0 0
9360 0 2 2.2208 -0.27381226023709826 6.755558239481068 22.13025538851793 0 0 0
334 0 1 -1.1104 6.447972772908577 -0.2734666250890871 14.886163191581348 0 0 0
322 0 1 -1.1104 6.656696348631297 2.6261173767211035 18.015378498311097 0 0 0
8469 0 2 2.2208 13.526982549046817 -4.343526049384466 24.752168416147658 0 0 0
335 0 1 -1.1104 6.696901133400113 -0.2924420367887513 20.587195526896448 0 0 0
330 0 1 -1.1104 6.607483768995374 -0.11307946077552891 17.688093360843446 0 0 0
327 0 1 -1.1104 6.5017827282590295 2.4886097182831683 15.123099540698034 0 0 0
321 0 1 -1.1104 6.490037135492836 -2.9471979880903363 17.92012791126256 0 0 0
325 0 1 -1.1104 6.60858200184441 -3.052354727446214 15.097649145110653 0 0 0
358 0 2 2.2208 10.76657594277947 1.0265172078122073 16.46126994145762 0 0 0
359 0 1 -1.1104 12.15996653165535 -3.0323367698964705 17.758824020626715 0 0 0
360 0 1 -1.1104 12.27612963052821 2.4660144345508215 18.011980814885078 0 0 0
361 0 1 -1.1104 12.220606272583447 -3.1769658805181304 14.851340166982855 0 0 0
363 0 1 -1.1104 12.185486540404161 2.3664305086687913 15.116217460069663 0 0 0
365 0 1 -1.1104 12.324507824687098 -0.2843380733008186 17.81927526954243 0 0 0
366 0 2 2.2208 10.89558924075952 -1.684587533033095 19.299367779468998 0 0 0
367 0 2 2.2208 10.8291689197368 3.9789263127068377 19.387907682244553 0 0 0
368 0 1 -1.1104 12.113895920187213 -0.40906853688190936 15.158854383883984 0 0 0
370 0 1 -1.1104 9.247612712906328 -3.1262982438587934 17.742414519281102 0 0 0
371 0 1 -1.1104 9.550324092099503 2.442459782819613 17.827906226698595 0 0 0
372 0 2 2.2208 8.059035989154001 1.093698000413322 19.30477107389526 0 0 0
373 0 1 -1.1104 9.3872470065245 -3.127444942353494 14.989363444894877 0 0 0
375 0 1 -1.1104 9.42089349314566 2.3477637647184975 15.110205868969539 0 0 0