LAMMPS (29 Oct 2020)
OMP_NUM_THREADS environment is not set. Defaulting to 1 thread. (../comm.cpp:94)
  using 1 OpenMP thread(s) per MPI task
OMP_NUM_THREADS environment is not set. Defaulting to 1 thread. (../comm.cpp:94)
  using 1 OpenMP thread(s) per MPI task
Reading data file ...
  orthogonal box = (-0.37341176 -4.5387100 -0.36646858) to (27.713412 332.61871 27.706469)
  2 by 13 by 2 MPI processor grid
  reading atoms ...
  17760 atoms
  reading velocities ...
  17760 velocities
Finding 1-2 1-3 1-4 neighbors ...
  special bond factors lj:    0.0      0.0      0.0     
  special bond factors coul:  0.0      0.0      0.0     
     0 = max # of 1-2 neighbors
     0 = max # of 1-3 neighbors
     0 = max # of 1-4 neighbors
     1 = max # of special neighbors
  special bonds CPU = 0.004 seconds
  read_data CPU = 0.077 seconds
WARNING: 13 of 1000 force values in table Xe-Xe are inconsistent with -dE/dr.
  Should only be flagged at inflection points (../pair_table.cpp:461)
WARNING: 2 of 1000 force values in table Xe-O are inconsistent with -dE/dr.
  Should only be flagged at inflection points (../pair_table.cpp:461)
WARNING: 2 of 1000 force values in table Xe-Th are inconsistent with -dE/dr.
  Should only be flagged at inflection points (../pair_table.cpp:461)
Setting atom values ...
  11760 settings made for charge
Setting atom values ...
  5880 settings made for charge
Setting atom values ...
  120 settings made for charge
PPPM initialization ...
  using 12-bit tables for long-range coulomb (../kspace.cpp:328)
  G vector (1/distance) = 0.29875101
  grid = 40 240 40
  stencil order = 5
  estimated absolute RMS force accuracy = 0.00015617415
  estimated relative force accuracy = 1.0845695e-05
  using single precision MKL FFT
  3d grid and FFT values/proc = 18225 7600
Neighbor list info ...
  update every 1 steps, delay 0 steps, check yes
  max neighbors/atom: 2000, page size: 100000
  master list distance cutoff = 13
  ghost atom cutoff = 13
  binsize = 6.5, bins = 5 52 5
  3 neighbor lists, perpetual/occasional/extra = 3 0 0
  (1) pair coul/long, perpetual
      attributes: half, newton on
      pair build: half/bin/newton
      stencil: half/bin/3d/newton
      bin: standard
  (2) pair eam/alloy, perpetual, skip from (1)
      attributes: half, newton on
      pair build: skip
      stencil: none
      bin: none
  (3) pair table, perpetual, skip from (1)
      attributes: half, newton on
      pair build: skip
      stencil: none
      bin: none
Setting up Verlet run ...
  Unit style    : metal
  Current step  : 0
  Time step     : 0.001
Per MPI rank memory allocation (min/avg/max) = 9.257 | 9.905 | 10.04 Mbytes
Step Temp E_pair E_mol TotEng Press 
       0          600   -230508.11            0   -229130.79   -800.00922 
  100000    596.46304   -230508.52            0   -229139.32   -979.58246 
Loop time of 704.393 on 52 procs for 100000 steps with 17760 atoms

Performance: 12.266 ns/day, 1.957 hours/ns, 141.966 timesteps/s
99.8% CPU use with 52 MPI tasks x 1 OpenMP threads

MPI task timing breakdown:
Section |  min time  |  avg time  |  max time  |%varavg| %total
---------------------------------------------------------------
Pair    | 478.84     | 508.76     | 528.12     |  43.0 | 72.23
Bond    | 0.0077816  | 0.015089   | 0.021226   |   2.3 |  0.00
Kspace  | 152.69     | 171.03     | 199.8      |  70.6 | 24.28
Neigh   | 1.5711     | 1.8642     | 2.0133     |   8.1 |  0.26
Comm    | 15.209     | 16.43      | 18.75      |  22.6 |  2.33
Output  | 6.8739e-05 | 7.4863e-05 | 0.00033816 |   0.0 |  0.00
Modify  | 2.8653     | 4.676      | 6.426      |  61.0 |  0.66
Other   |            | 1.614      |            |       |  0.23

Nlocal:        341.538 ave         364 max         307 min
Histogram: 4 2 1 1 3 10 9 12 6 4
Nghost:        5535.98 ave        5698 max        5256 min
Histogram: 4 0 0 6 6 0 22 2 0 12
Neighs:       107962.0 ave      116889 max       83943 min
Histogram: 2 2 0 1 3 0 4 16 14 10

Total # of neighbors = 5614023
Ave neighs/atom = 316.10490
Ave special neighs/atom = 0.0000000
Neighbor list builds = 603
Dangerous builds = 0
11760 atoms in group oxygen
PPPM initialization ...
  using 12-bit tables for long-range coulomb (../kspace.cpp:328)
  G vector (1/distance) = 0.29875101
  grid = 40 240 40
  stencil order = 5
  estimated absolute RMS force accuracy = 0.00015617415
  estimated relative force accuracy = 1.0845695e-05
  using single precision MKL FFT
  3d grid and FFT values/proc = 18225 7600
Neighbor list info ...
  update every 1 steps, delay 0 steps, check yes
  max neighbors/atom: 2000, page size: 100000
  master list distance cutoff = 13
  ghost atom cutoff = 13
  binsize = 6.5, bins = 5 52 5
  3 neighbor lists, perpetual/occasional/extra = 3 0 0
  (1) pair coul/long, perpetual
      attributes: half, newton on
      pair build: half/bin/newton
      stencil: half/bin/3d/newton
      bin: standard
  (2) pair eam/alloy, perpetual, skip from (1)
      attributes: half, newton on
      pair build: skip
      stencil: none
      bin: none
  (3) pair table, perpetual, skip from (1)
      attributes: half, newton on
      pair build: skip
      stencil: none
      bin: none
Setting up Verlet run ...
  Unit style    : metal
  Current step  : 0
  Time step     : 0.001
Per MPI rank memory allocation (min/avg/max) = 9.507 | 10.16 | 10.29 Mbytes
Step f_2 Temp v_Tdiff v_deltaT 
       0            0    596.46304            0            0 
  100000    695.76308    598.91128  0.019279174    223.82942 
  200000    1377.2516    603.00907  0.021178349    245.87867 
  300000    2053.4142    597.42272  0.021529756    249.95846 
  400000    2737.6463     593.1311  0.021570612     250.4328 
  500000    3420.2312    595.66282   0.02153542    250.02422 
  600000    4098.2178    599.31667  0.021705411     251.9978 
  700000    4777.0801    597.27941  0.020703165    240.36183 
  800000    5459.5544    603.64532  0.021768158     252.7263 
  900000    6142.6168     601.0546   0.02150294    249.64714 
 1000000    6827.9292    600.38586  0.021442021    248.93987 
Loop time of 7059.57 on 52 procs for 1000000 steps with 17760 atoms

Performance: 12.239 ns/day, 1.961 hours/ns, 141.652 timesteps/s
99.8% CPU use with 52 MPI tasks x 1 OpenMP threads

MPI task timing breakdown:
Section |  min time  |  avg time  |  max time  |%varavg| %total
---------------------------------------------------------------
Pair    | 4775.8     | 5094.6     | 5295.4     | 154.2 | 72.17
Bond    | 0.10703    | 0.15539    | 0.21999    |   6.9 |  0.00
Kspace  | 1539.3     | 1729.1     | 2034.7     | 249.7 | 24.49
Neigh   | 16.316     | 19.72      | 21.271     |  28.2 |  0.28
Comm    | 153.48     | 165.25     | 190.02     |  70.7 |  2.34
Output  | 0.0012296  | 0.0012983  | 0.0023937  |   0.4 |  0.00
Modify  | 6.3167     | 6.9122     | 7.7223     |  12.7 |  0.10
Other   |            | 43.89      |            |       |  0.62

Nlocal:        341.538 ave         370 max         301 min
Histogram: 1 5 2 0 3 9 18 10 2 2
Nghost:        5538.52 ave        5699 max        5275 min
Histogram: 4 0 0 8 4 0 24 0 0 12
Neighs:       107947.0 ave      117993 max       83642 min
Histogram: 4 0 0 4 0 1 5 17 16 5

Total # of neighbors = 5613242
Ave neighs/atom = 316.06092
Ave special neighs/atom = 0.0000000
Neighbor list builds = 6389
Dangerous builds = 0
Total wall time: 2:09:24
