LAMMPS (29 Oct 2020)
OMP_NUM_THREADS environment is not set. Defaulting to 1 thread. (../comm.cpp:94)
  using 1 OpenMP thread(s) per MPI task
OMP_NUM_THREADS environment is not set. Defaulting to 1 thread. (../comm.cpp:94)
  using 1 OpenMP thread(s) per MPI task
Reading data file ...
  orthogonal box = (-0.27717828 -3.4472206 -0.27717828) to (27.617178 331.52722 27.617178)
  2 by 13 by 2 MPI processor grid
  reading atoms ...
  18000 atoms
  reading velocities ...
  18000 velocities
Finding 1-2 1-3 1-4 neighbors ...
  special bond factors lj:    0.0      0.0      0.0     
  special bond factors coul:  0.0      0.0      0.0     
     0 = max # of 1-2 neighbors
     0 = max # of 1-3 neighbors
     0 = max # of 1-4 neighbors
     1 = max # of special neighbors
  special bonds CPU = 0.004 seconds
  read_data CPU = 0.069 seconds
75 atoms in group sphere
16 atoms in group oxygen
1 atoms in group thorium
59 atoms in group 1
60 atoms in group cluster
6000 atoms in group Th
12000 atoms in group O
20 atoms in group Th_group
40 atoms in group O_group
Setting atom values ...
  10 settings made for type/subset
10 atoms in group Xe
50 atoms in group delete
WARNING: Ignoring 'compress yes' for molecular system (../delete_atoms.cpp:125)
Deleted 50 atoms, new total = 17950
75 atoms in group sphere
1 atoms in group oxygen
16 atoms in group thorium
59 atoms in group 1
60 atoms in group cluster
5980 atoms in group Th
11960 atoms in group O
20 atoms in group Th_group
40 atoms in group O_group
Setting atom values ...
  10 settings made for type/subset
20 atoms in group Xe
50 atoms in group delete
WARNING: Ignoring 'compress yes' for molecular system (../delete_atoms.cpp:125)
Deleted 50 atoms, new total = 17900
75 atoms in group sphere
1 atoms in group oxygen
16 atoms in group thorium
59 atoms in group 1
60 atoms in group cluster
5960 atoms in group Th
11920 atoms in group O
20 atoms in group Th_group
40 atoms in group O_group
Setting atom values ...
  10 settings made for type/subset
30 atoms in group Xe
50 atoms in group delete
WARNING: Ignoring 'compress yes' for molecular system (../delete_atoms.cpp:125)
Deleted 50 atoms, new total = 17850
75 atoms in group sphere
1 atoms in group oxygen
16 atoms in group thorium
59 atoms in group 1
60 atoms in group cluster
5940 atoms in group Th
11880 atoms in group O
20 atoms in group Th_group
40 atoms in group O_group
Setting atom values ...
  10 settings made for type/subset
40 atoms in group Xe
50 atoms in group delete
WARNING: Ignoring 'compress yes' for molecular system (../delete_atoms.cpp:125)
Deleted 50 atoms, new total = 17800
75 atoms in group sphere
1 atoms in group oxygen
16 atoms in group thorium
59 atoms in group 1
60 atoms in group cluster
5920 atoms in group Th
11840 atoms in group O
20 atoms in group Th_group
40 atoms in group O_group
Setting atom values ...
  10 settings made for type/subset
50 atoms in group Xe
50 atoms in group delete
WARNING: Ignoring 'compress yes' for molecular system (../delete_atoms.cpp:125)
Deleted 50 atoms, new total = 17750
75 atoms in group sphere
1 atoms in group oxygen
16 atoms in group thorium
59 atoms in group 1
60 atoms in group cluster
5900 atoms in group Th
11800 atoms in group O
20 atoms in group Th_group
40 atoms in group O_group
Setting atom values ...
  10 settings made for type/subset
60 atoms in group Xe
50 atoms in group delete
WARNING: Ignoring 'compress yes' for molecular system (../delete_atoms.cpp:125)
Deleted 50 atoms, new total = 17700
Setting atom values ...
  11760 settings made for charge
Setting atom values ...
  5880 settings made for charge
Setting atom values ...
  60 settings made for charge
WARNING: 10 of 1000 force values in table Kr-Kr are inconsistent with -dE/dr.
  Should only be flagged at inflection points (../pair_table.cpp:461)
WARNING: 1 of 1000 force values in table Kr-O are inconsistent with -dE/dr.
  Should only be flagged at inflection points (../pair_table.cpp:461)
WARNING: 1 of 1000 force values in table Kr-Th are inconsistent with -dE/dr.
  Should only be flagged at inflection points (../pair_table.cpp:461)
PPPM initialization ...
  using 12-bit tables for long-range coulomb (../kspace.cpp:328)
  G vector (1/distance) = 0.29911702
  grid = 40 240 40
  stencil order = 5
  estimated absolute RMS force accuracy = 0.00015352568
  estimated relative force accuracy = 1.0661769e-05
  using single precision MKL FFT
  3d grid and FFT values/proc = 18225 7600
Neighbor list info ...
  update every 1 steps, delay 0 steps, check yes
  max neighbors/atom: 2000, page size: 100000
  master list distance cutoff = 13
  ghost atom cutoff = 13
  binsize = 6.5, bins = 5 52 5
  3 neighbor lists, perpetual/occasional/extra = 3 0 0
  (1) pair coul/long, perpetual
      attributes: half, newton on
      pair build: half/bin/newton
      stencil: half/bin/3d/newton
      bin: standard
  (2) pair eam/alloy, perpetual, skip from (1)
      attributes: half, newton on
      pair build: skip
      stencil: none
      bin: none
  (3) pair table, perpetual, skip from (1)
      attributes: half, newton on
      pair build: skip
      stencil: none
      bin: none
Setting up cg style minimization ...
  Unit style    : metal
  Current step  : 0
WARNING: Energy due to 3 extra global DOFs will be included in minimizer energies
Per MPI rank memory allocation (min/avg/max) = 10.35 | 10.96 | 11.16 Mbytes
Step Temp E_pair E_mol TotEng Press Volume 
       0            0   -230650.96            0   -230650.96    1294.4451    260641.98 
     575            0   -231588.11            0   -231588.11    104.41609    261452.57 
Loop time of 11.4855 on 52 procs for 575 steps with 17700 atoms

99.7% CPU use with 52 MPI tasks x 1 OpenMP threads

Minimization stats:
  Stopping criterion = linesearch alpha is zero
  Energy initial, next-to-last, final = 
     -230650.958304689  -231588.110458749  -231588.110458749
  Force two-norm initial, final = 777.57000 44.209582
  Force max component initial, final = 585.45121 39.616905
  Final line search alpha, max atom move = 4.0065654e-12 1.5872772e-10
  Iterations, force evaluations = 575 1045

MPI task timing breakdown:
Section |  min time  |  avg time  |  max time  |%varavg| %total
---------------------------------------------------------------
Pair    | 6.7955     | 7.0858     | 7.4664     |   6.6 | 61.69
Bond    | 9.6796e-05 | 0.00014368 | 0.00021485 |   0.0 |  0.00
Kspace  | 1.6698     | 2.0555     | 2.3466     |  12.3 | 17.90
Neigh   | 0.021434   | 0.025155   | 0.029904   |   1.4 |  0.22
Comm    | 0.16734    | 0.1718     | 0.17714    |   0.5 |  1.50
Output  | 0          | 0          | 0          |   0.0 |  0.00
Modify  | 0          | 0          | 0          |   0.0 |  0.00
Other   |            | 2.147      |            |       | 18.69

Nlocal:        340.385 ave         401 max         288 min
Histogram: 7 2 6 10 5 3 7 6 1 5
Nghost:        5559.92 ave        5748 max        5410 min
Histogram: 5 6 7 5 5 7 7 6 2 2
Neighs:       108089.0 ave      129073 max       91567 min
Histogram: 6 2 11 6 10 2 4 5 4 2

Total # of neighbors = 5620639
Ave neighs/atom = 317.55023
Ave special neighs/atom = 0.0000000
Neighbor list builds = 8
Dangerous builds = 0
Resetting atom IDs ...
PPPM initialization ...
  using 12-bit tables for long-range coulomb (../kspace.cpp:328)
  G vector (1/distance) = 0.29906154
  grid = 40 240 40
  stencil order = 5
  estimated absolute RMS force accuracy = 0.00015396191
  estimated relative force accuracy = 1.0692063e-05
  using single precision MKL FFT
  3d grid and FFT values/proc = 18225 7600
Neighbor list info ...
  update every 1 steps, delay 0 steps, check yes
  max neighbors/atom: 2000, page size: 100000
  master list distance cutoff = 13
  ghost atom cutoff = 13
  binsize = 6.5, bins = 5 52 5
  3 neighbor lists, perpetual/occasional/extra = 3 0 0
  (1) pair coul/long, perpetual
      attributes: half, newton on
      pair build: half/bin/newton
      stencil: half/bin/3d/newton
      bin: standard
  (2) pair eam/alloy, perpetual, skip from (1)
      attributes: half, newton on
      pair build: skip
      stencil: none
      bin: none
  (3) pair table, perpetual, skip from (1)
      attributes: half, newton on
      pair build: skip
      stencil: none
      bin: none
Finding 1-2 1-3 1-4 neighbors ...
  special bond factors lj:    0.0      0.0      0.0     
  special bond factors coul:  0.0      0.0      0.0     
     0 = max # of 1-2 neighbors
     0 = max # of 1-3 neighbors
     0 = max # of 1-4 neighbors
     1 = max # of special neighbors
  special bonds CPU = 0.001 seconds
PPPM initialization ...
  using 12-bit tables for long-range coulomb (../kspace.cpp:328)
  G vector (1/distance) = 0.29906154
  grid = 40 240 40
  stencil order = 5
  estimated absolute RMS force accuracy = 0.00015396191
  estimated relative force accuracy = 1.0692063e-05
  using single precision MKL FFT
  3d grid and FFT values/proc = 18225 7600
Neighbor list info ...
  update every 1 steps, delay 0 steps, check yes
  max neighbors/atom: 2000, page size: 100000
  master list distance cutoff = 13
  ghost atom cutoff = 13
  binsize = 6.5, bins = 5 52 5
  3 neighbor lists, perpetual/occasional/extra = 3 0 0
  (1) pair coul/long, perpetual
      attributes: half, newton on
      pair build: half/bin/newton
      stencil: half/bin/3d/newton
      bin: standard
  (2) pair eam/alloy, perpetual, skip from (1)
      attributes: half, newton on
      pair build: skip
      stencil: none
      bin: none
  (3) pair table, perpetual, skip from (1)
      attributes: half, newton on
      pair build: skip
      stencil: none
      bin: none
Setting up Verlet run ...
  Unit style    : metal
  Current step  : 575
  Time step     : 0.001
Per MPI rank memory allocation (min/avg/max) = 9.230 | 9.915 | 10.03 Mbytes
Step Dt Time Atoms Temp PotEng KinEng Press Volume 
     575        0.001            0    17700         1200   -231588.11    2745.3304    11319.852    261452.57 
   10000        0.001        9.425    17700     1187.762   -228971.54    2717.3326   -794.62282     269929.1 
   20000        0.001       19.425    17700    1210.0696   -228982.11    2768.3673    -381.6295    269891.71 
   30000        0.001       29.425    17700    1213.2653   -229010.64    2775.6784    1752.2933    269497.12 
   40000        0.001       39.425    17700     1207.434    -228988.3    2762.3377    525.19826    269732.85 
   50000        0.001       49.425    17700    1201.1913   -228992.23    2748.0559    2726.3399    269368.81 
   60000        0.001       59.425    17700    1201.0328   -228995.31    2747.6932    85.464306    269799.13 
   70000        0.001       69.425    17700    1198.4094   -228959.57    2741.6913   -599.11847    269947.93 
   80000        0.001       79.425    17700    1192.1799    -228981.2    2727.4397    1262.5158    269557.85 
   90000        0.001       89.425    17700    1201.1096    -229011.2    2747.8689    383.69623    269646.95 
  100000        0.001       99.425    17700    1193.1884   -229046.54    2729.7469   -210.31315    269672.46 
  100575        0.001          100    17700    1194.9298   -228987.81     2733.731   -517.62664     269815.4 
Loop time of 823.463 on 52 procs for 100000 steps with 17700 atoms

Performance: 10.492 ns/day, 2.287 hours/ns, 121.438 timesteps/s
99.8% CPU use with 52 MPI tasks x 1 OpenMP threads

MPI task timing breakdown:
Section |  min time  |  avg time  |  max time  |%varavg| %total
---------------------------------------------------------------
Pair    | 511.32     | 528.52     | 543.01     |  38.0 | 64.18
Bond    | 0.0096779  | 0.014892   | 0.023911   |   2.1 |  0.00
Kspace  | 151.01     | 166.02     | 184.04     |  70.7 | 20.16
Neigh   | 7.5101     | 8.1476     | 8.7197     |  13.1 |  0.99
Comm    | 16.183     | 16.658     | 17.062     |   5.6 |  2.02
Output  | 0.046943   | 0.046988   | 0.048886   |   0.1 |  0.01
Modify  | 91.672     | 96.458     | 100.34     |  23.5 | 11.71
Other   |            | 7.59       |            |       |  0.92

Nlocal:        340.385 ave         362 max         316 min
Histogram: 3 2 10 7 2 5 4 8 5 6
Nghost:        5426.71 ave        5534 max        5317 min
Histogram: 6 6 8 4 0 4 5 6 7 6
Neighs:       104688.0 ave      112905 max       92145 min
Histogram: 2 2 4 5 11 0 2 10 8 8

Total # of neighbors = 5443788
Ave neighs/atom = 307.55864
Ave special neighs/atom = 0.0000000
Neighbor list builds = 2682
Dangerous builds = 0
WARNING: Shell command 'mkdir' failed with error 'File exists' (../input.cpp:1197)
System init for write_data ...
PPPM initialization ...
  using 12-bit tables for long-range coulomb (../kspace.cpp:328)
  G vector (1/distance) = 0.29848412
  grid = 40 240 40
  stencil order = 5
  estimated absolute RMS force accuracy = 0.00015860063
  estimated relative force accuracy = 1.1014204e-05
  using single precision MKL FFT
  3d grid and FFT values/proc = 18225 7600
Neighbor list info ...
  update every 1 steps, delay 0 steps, check yes
  max neighbors/atom: 2000, page size: 100000
  master list distance cutoff = 13
  ghost atom cutoff = 13
  binsize = 6.5, bins = 5 53 5
  3 neighbor lists, perpetual/occasional/extra = 3 0 0
  (1) pair coul/long, perpetual
      attributes: half, newton on
      pair build: half/bin/newton
      stencil: half/bin/3d/newton
      bin: standard
  (2) pair eam/alloy, perpetual, skip from (1)
      attributes: half, newton on
      pair build: skip
      stencil: none
      bin: none
  (3) pair table, perpetual, skip from (1)
      attributes: half, newton on
      pair build: skip
      stencil: none
      bin: none
Total wall time: 0:13:55
