LAMMPS data file via write_data, version 29 Oct 2020, timestep = 101458

17760 atoms
3 atom types

-0.37226431752493916 27.71226431752447 xlo xhi
-4.432940413290502 332.51294041329305 ylo yhi
-0.37126444183102725 27.71126444183058 zlo zhi

Masses

1 15.9994
2 232.0381
3 83.798

Atoms # full

1 0 2 2.2208 5.502001919548172 1.1527179965064867 5.219939806471708 0 0 0
2 0 1 -1.1104 1.2504061939697848 -3.000822471117878 0.912025458409423 0 0 0
3 0 1 -1.1104 1.2361774918156296 2.6550886123155566 0.937531673527498 0 0 0
6 0 1 -1.1104 1.1861547093337876 -3.02746045712201 3.6268991945957176 0 0 0
7 0 1 -1.1104 1.0558966275640793 2.640338294476711 3.7487457957834924 0 0 0
10 0 1 -1.1104 1.1584883770949685 -0.17554943536769116 0.8670750373712236 0 0 0
12 0 2 2.2208 5.403808360474246 -1.6711267111807995 2.4465140761242345 0 0 0
14 0 1 -1.1104 1.11502607600051 -0.14565666183512563 3.6286196199516803 0 0 0
16 0 1 -1.1104 3.9533299712794534 -3.184413272931708 0.9228617999862823 0 0 0
17 0 1 -1.1104 3.886482278806305 2.5645143375970556 0.9849319832144743 0 0 0
18 0 2 2.2208 2.5925153239421186 1.221970553730643 2.317762949502144 0 0 0
19 0 1 -1.1104 3.937165798951792 -2.9799710131346275 3.7928345429079524 0 0 0
20 0 1 -1.1104 3.9332380632322024 2.60907279209886 3.738943281289789 0 0 0
21 0 2 2.2208 2.6149462583390095 -1.5963939570443213 5.095297528563908 0 0 0
22 0 2 2.2208 2.4819508183589765 4.025265376155869 5.197110785408904 0 0 0
23 0 1 -1.1104 4.007924017769721 -0.18945429822570373 0.9026622620508914 0 0 0
24 0 1 -1.1104 3.9889061300522406 -0.1544264469354733 3.8074247171232156 0 0 0
13 0 2 2.2208 5.420773107918467 3.949854145730307 2.371731288256698 0 0 0
174 0 1 -1.1104 3.9931541222837517 -0.27824393005162423 6.576192064462317 0 0 0
9040 0 2 2.2208 -0.2515479942591017 1.2716229956972418 5.14748138669112 0 0 0
9037 0 2 2.2208 -0.2641867451373629 -1.5738465100341594 2.2867544651268044 0 0 0
166 0 1 -1.1104 1.1946371924659336 -3.2273937353855633 6.660555607866421 0 0 0
167 0 1 -1.1104 1.2363350726511437 2.6237435477058457 6.679187452041686 0 0 0
173 0 1 -1.1104 4.046355461232099 2.50349162350882 6.473430181128802 0 0 0
170 0 1 -1.1104 1.2683195681347599 -0.3229662630175359 6.646001582314552 0 0 0
172 0 1 -1.1104 3.937551434054685 -3.096448167936195 6.720793363207712 0 0 0
9041 0 2 2.2208 -0.24597746112852822 3.9801428290111724 2.3042846083113733 0 0 0
9 0 1 -1.1104 6.798638497598702 2.5016611198681393 4.028090574217602 0 0 0
9424 0 2 2.2208 -0.27573071650631714 18.029693737619642 -0.3399449872132467 0 0 0
366 0 2 2.2208 2.5225450058107732 20.797884173605812 -0.3382575798827301 0 0 0
11 0 1 -1.1104 6.7009295930488975 -0.15404113322490073 0.9754309481666141 0 0 0
15 0 1 -1.1104 6.803994825663422 -0.41117389006378674 3.6661264295665172 0 0 0
5 0 1 -1.1104 6.82191492914148 2.727682957290827 1.0924527905170256 0 0 0
4 0 1 -1.1104 6.767726659029449 -3.0499237446194085 1.109907416338748 0 0 0
8 0 1 -1.1104 6.862260351891738 -3.1193091052172717 3.9296483040730408 0 0 0
31 0 2 2.2208 10.829798201328177 1.230534377533564 4.990965002185534 0 0 0
32 0 1 -1.1104 12.38805508412637 -3.010011247398958 0.9495287154621993 0 0 0
33 0 1 -1.1104 12.211535976212387 2.7056724808641115 0.9224222526095704 0 0 0
34 0 1 -1.1104 12.430091238417363 -2.973773003140523 3.7748308559342787 0 0 0
35 0 1 -1.1104 12.273253786561138 2.6501750378932325 3.6512223506536934 0 0 0
36 0 1 -1.1104 12.380179815600584 -0.33238763238075897 0.8780901051658278 0 0 0
37 0 2 2.2208 10.964752301426568 -1.579746095288392 2.3907112514086553 0 0 0
39 0 1 -1.1104 12.342000038776286 -0.10770787141894123 3.8199646733200345 0 0 0
40 0 1 -1.1104 9.557007136653509 -2.909247196765585 1.0256989326823651 0 0 0
41 0 1 -1.1104 9.52510277619786 2.6099221572995397 1.082896884139148 0 0 0
42 0 2 2.2208 8.168828965876306 1.2087495259305419 2.3863381100435546 0 0 0
43 0 1 -1.1104 9.617058666632657 -3.076348820170356 3.8079431057296165 0 0 0
44 0 1 -1.1104 9.471601346182414 2.610799411863885 3.691080844181478 0 0 0
45 0 2 2.2208 8.234090391082127 -1.643125440912137 5.2054685680500175 0 0 0
46 0 2 2.2208 8.227839182237583 4.0684521420502335 5.334200913725204 0 0 0
47 0 1 -1.1104 9.537300714791984 -0.08311750164659332 0.9220646518564327 0 0 0
48 0 1 -1.1104 9.569717075740037 -0.19212649170077029 3.707262943133512 0 0 0
38 0 2 2.2208 11.020906565893126 4.148096291456175 2.420833275963275 0 0 0
206 0 1 -1.1104 12.411341957308704 2.6701549440864842 6.530988362477454 0 0 0
205 0 1 -1.1104 12.398226469402179 -3.128845460459187 6.382604913002032 0 0 0
209 0 1 -1.1104 9.67827362747789 2.674370837828228 6.5462343854590825 0 0 0
171 0 1 -1.1104 6.890876346722019 -0.19161598405646005 6.48538172415677 0 0 0
169 0 1 -1.1104 6.921240142079104 2.5345931380881903 6.780568827939649 0 0 0
210 0 1 -1.1104 9.532052098015559 -0.23118611628762334 6.5730390419630975 0 0 0
208 0 1 -1.1104 9.70252386267275 -2.9493843044678316 6.48369585649935 0 0 0
168 0 1 -1.1104 6.753881121097736 -3.0286745129106865 6.75230612424137 0 0 0
207 0 1 -1.1104 12.399519994907038 -0.19646653211449824 6.485159630344035 0 0 0
409 0 2 2.2208 2.551237024581038 12.371440960723229 13.48248215698188 0 0 0
54 0 2 2.2208 5.398257705829949 6.756476067336508 5.39721564043916 0 0 0
55 0 2 2.2208 5.398765815510177 12.261408723387985 5.248958007940988 0 0 0
56 0 1 -1.1104 1.0391196367290707 8.14235343074205 1.0250725931242128 0 0 0
58 0 1 -1.1104 0.9761517611657808 8.224447999484532 3.7846417482775934 0 0 0
60 0 1 -1.1104 1.0505770481158403 5.340348799435285 0.8324676262639232 0 0 0
61 0 1 -1.1104 1.1744336241680582 10.932020111818122 0.9882655994421492 0 0 0
66 0 2 2.2208 5.426311846376024 9.493244617902759 2.465614557523449 0 0 0
67 0 1 -1.1104 1.0565537262108924 5.391953900640292 3.7608138708498715 0 0 0
68 0 1 -1.1104 1.1936531883012735 10.916952515014785 3.791729033584689 0 0 0
71 0 1 -1.1104 3.9041163239184904 8.093661350965498 1.0577994062999572 0 0 0
72 0 2 2.2208 2.555903810909357 6.804303208984598 2.568647617364728 0 0 0
73 0 2 2.2208 2.494774746748912 12.360124846922382 2.334847548919836 0 0 0
74 0 1 -1.1104 3.9217540640230024 8.187019019431766 4.007158640298933 0 0 0
75 0 2 2.2208 2.5912564919108787 9.699186424815759 5.258629573301145 0 0 0
76 0 1 -1.1104 4.074752876715984 5.264161635725017 1.095367604443649 0 0 0
77 0 1 -1.1104 3.9517904403803183 10.805563767761388 1.095048970289291 0 0 0
79 0 1 -1.1104 3.947747219676905 5.431732743253398 3.800384394199702 0 0 0
80 0 1 -1.1104 4.023700019210507 11.059108266877699 3.8009825219218785 0 0 0
9046 0 2 2.2208 -0.26588854935975587 6.7830137505817625 5.248504649688767 0 0 0
9047 0 2 2.2208 -0.3308257787963179 9.536848205929621 2.3793543389187386 0 0 0
9048 0 2 2.2208 -0.17505838669504703 12.34815428247753 5.269243912186979 0 0 0
238 0 1 -1.1104 4.197473987582142 8.164240207246124 6.777628822004129 0 0 0
239 0 1 -1.1104 3.902246001852054 5.324940729626004 6.708170412567917 0 0 0
62 0 1 -1.1104 1.2562407189678857 11.007696784684013 6.649091889912802 0 0 0
236 0 1 -1.1104 1.199270275293971 5.470396136370048 6.67198242422973 0 0 0
78 0 1 -1.1104 4.112982601858503 10.848418427534442 6.535424378323883 0 0 0
337 0 2 2.2208 2.5146445321876287 15.061294132160633 -0.3639787738366865 0 0 0
59 0 1 -1.1104 6.671079866688903 7.9572079189318785 3.9061811735516776 0 0 0
57 0 1 -1.1104 6.770969095737333 8.146142112245437 1.2043596953503841 0 0 0
70 0 1 -1.1104 6.83908278574419 10.912792595552009 3.8005175279966297 0 0 0
69 0 1 -1.1104 6.878854106478645 5.3649657495881895 3.828448027949454 0 0 0
64 0 1 -1.1104 6.6795986182969935 10.915118120990932 0.8388557566519712 0 0 0
63 0 1 -1.1104 6.783409288522391 5.4056983997157895 0.8721033957703688 0 0 0
84 0 2 2.2208 11.056054520842153 6.924849239582724 5.328141450398212 0 0 0
85 0 2 2.2208 10.94060891988157 12.430406948985718 5.24347285669756 0 0 0
86 0 1 -1.1104 12.312836078706486 8.248240511500974 1.04116672725985 0 0 0
87 0 1 -1.1104 12.440880671633717 8.287975330797314 3.8927196688876533 0 0 0
88 0 1 -1.1104 12.414210452479951 5.536562835687976 1.078198368503363 0 0 0
89 0 1 -1.1104 12.40224413979708 11.076889987909272 1.1752921205428268 0 0 0
91 0 2 2.2208 11.083343430755523 9.621523116605225 2.3677066084091427 0 0 0
92 0 1 -1.1104 12.33289060795627 5.4833872175261344 3.9466066617491777 0 0 0
93 0 1 -1.1104 12.404655855367558 11.150473235422018 3.7896547171215413 0 0 0
94 0 1 -1.1104 9.632773503534358 8.295321432436928 0.8816146794022383 0 0 0
95 0 2 2.2208 8.264677052226936 6.760476493897015 2.385162062258445 0 0 0
96 0 2 2.2208 8.06600769828518 12.399515493120965 2.3759737032717485 0 0 0
97 0 1 -1.1104 9.604725789436529 8.304381261562698 3.988437398747517 0 0 0
98 0 2 2.2208 8.287054593018249 9.666586594438469 5.366931706276137 0 0 0
99 0 1 -1.1104 9.589451166887995 5.51495203271506 0.9395892798534423 0 0 0
100 0 1 -1.1104 9.44263162873867 11.075439234719662 1.126652754604895 0 0 0
102 0 1 -1.1104 9.610670684476576 5.49441845099563 3.943597996688581 0 0 0
103 0 1 -1.1104 9.605521268697062 11.144381649787212 3.9213821877563655 0 0 0
101 0 1 -1.1104 9.58438826352877 11.075095732499673 6.829156263046963 0 0 0
265 0 1 -1.1104 12.539359882060573 8.160304079601325 6.6140593866879955 0 0 0
90 0 1 -1.1104 12.413961901560159 11.10684929856239 6.6902623177629055 0 0 0
65 0 1 -1.1104 6.851776226557988 10.941835894472542 6.640251937741559 0 0 0
266 0 1 -1.1104 12.388255210103639 5.394802897989556 6.775384623751284 0 0 0
269 0 1 -1.1104 9.556270810914977 5.585369763603108 6.724817922371735 0 0 0
237 0 1 -1.1104 6.76080846863966 5.4681049235728825 6.6826922456019116 0 0 0
235 0 1 -1.1104 6.922012271607366 8.20954784790587 6.626568162223506 0 0 0
9051 0 2 2.2208 -0.2504172851744823 20.88449694116324 2.4652147998098384 0 0 0
9045 0 2 2.2208 -0.33343252149547276 15.166171067509895 2.575351352181465 0 0 0
106 0 2 2.2208 5.343166501496683 17.919607996435655 5.25518379691002 0 0 0
107 0 1 -1.1104 1.0605318610562329 13.691961924142896 1.0061342293811542 0 0 0
109 0 1 -1.1104 1.1388697645403214 19.274300385834334 0.9606897177174324 0 0 0
113 0 1 -1.1104 1.2577422283121915 13.728920480753931 3.8557272818189627 0 0 0
114 0 1 -1.1104 1.2260485018789133 19.43833963262203 3.66767476345743 0 0 0
116 0 1 -1.1104 1.1033497111048693 16.49215104656741 1.141403484137284 0 0 0
119 0 2 2.2208 5.411846481451551 15.174947328679593 2.440748850362077 0 0 0
120 0 2 2.2208 5.275506215395182 20.798132405266692 2.450041871978495 0 0 0
121 0 1 -1.1104 1.0688471861071671 16.5544624715993 3.9176379423078527 0 0 0
123 0 1 -1.1104 3.8974450030148082 13.69020121932266 1.0455291004831047 0 0 0
125 0 1 -1.1104 4.053904140957799 19.172296413695047 1.1866219854973432 0 0 0
127 0 2 2.2208 2.5167521065479908 17.878368010919917 2.4012191665407654 0 0 0
128 0 1 -1.1104 4.122673918714724 13.936974622636713 3.9896879442725486 0 0 0
129 0 1 -1.1104 3.958331093424827 19.445423159589048 3.8897080055515594 0 0 0
130 0 2 2.2208 2.522267101843726 15.130780702099376 5.179762024780748 0 0 0
131 0 2 2.2208 2.526989767256569 20.90971161859539 5.151214025338914 0 0 0
132 0 1 -1.1104 4.031333181849238 16.521266174238406 0.8889052470799438 0 0 0
134 0 1 -1.1104 4.105851310245743 16.673086219751788 3.601195305947936 0 0 0
9042 0 2 2.2208 -0.23327464043762253 17.914897073966905 5.247135159998615 0 0 0
126 0 1 -1.1104 3.9741969313469667 19.39747436098875 6.822875969232349 0 0 0
117 0 1 -1.1104 1.2727986596317846 16.503791151327643 6.670121835039409 0 0 0
108 0 1 -1.1104 1.0490808347229743 13.727676406163043 6.624821513802429 0 0 0
133 0 1 -1.1104 4.036574488191455 16.545686766978108 6.523343722397834 0 0 0
124 0 1 -1.1104 3.8889128400876456 13.6105556869201 6.620844417120147 0 0 0
365 0 2 2.2208 5.434948097059941 17.928601487788505 -0.24931579246727004 0 0 0
500 0 2 2.2208 10.953242968377866 18.069626775032365 -0.3217863952339792 0 0 0
154 0 1 -1.1104 9.59572530643259 13.759355280262554 6.687552892481675 0 0 0
140 0 1 -1.1104 6.770942334729634 16.613741899464824 1.1276427227576384 0 0 0
122 0 1 -1.1104 6.846729336203373 16.448713340049384 3.8516749742338767 0 0 0
138 0 1 -1.1104 6.931624672150257 19.466790607939433 0.8294716414320342 0 0 0
115 0 1 -1.1104 6.830061125465599 13.582765375821023 3.9787125024774013 0 0 0
110 0 1 -1.1104 6.654383822534601 13.81308207891721 0.8863381025020209 0 0 0
139 0 1 -1.1104 6.675148092015929 19.342595892659197 3.6886726663168257 0 0 0
141 0 2 2.2208 10.994434947430664 18.075258097932156 5.215353289485103 0 0 0
142 0 1 -1.1104 12.279611336959611 13.834459659390735 1.1092696473661026 0 0 0
144 0 1 -1.1104 12.421104810343685 19.47274015927368 1.2046212159091247 0 0 0
146 0 1 -1.1104 12.553138652476903 13.775795772487797 4.024651512826142 0 0 0
147 0 1 -1.1104 12.239993256853612 19.62463564627759 3.9386642766193147 0 0 0
148 0 1 -1.1104 12.389554310440584 16.607282783027912 1.1970837982801306 0 0 0
150 0 2 2.2208 11.011897209025827 15.326559501604166 2.433202745264613 0 0 0
151 0 2 2.2208 10.950541559956244 20.910675243229807 2.5293651592694815 0 0 0
152 0 1 -1.1104 12.450685703342574 16.712317124795636 3.94934399095023 0 0 0
153 0 1 -1.1104 9.514201487750297 13.900180443611884 1.0038342583277204 0 0 0
155 0 1 -1.1104 9.765277247500364 19.53142291087626 0.9633586317501348 0 0 0
157 0 2 2.2208 8.186911411221784 17.973385766927795 2.519460494567282 0 0 0
158 0 1 -1.1104 9.719282277531132 14.014060169584194 3.911370517929559 0 0 0
159 0 1 -1.1104 9.505488313851606 19.370726759076845 3.8678504773923064 0 0 0
160 0 2 2.2208 8.178331998608753 15.211071252201236 5.305607759463087 0 0 0
161 0 2 2.2208 8.150177080116878 20.816814762372424 5.259184053870857 0 0 0
162 0 1 -1.1104 9.572486464662454 16.7562875279499 0.9937969217189611 0 0 0
164 0 1 -1.1104 9.69977533385907 16.62117844278354 3.908160026167416 0 0 0
149 0 1 -1.1104 12.462556381415224 16.637916834454128 6.621840037671552 0 0 0
163 0 1 -1.1104 9.555749847479898 16.651722166632627 6.721209325587997 0 0 0
118 0 1 -1.1104 6.794627178999323 16.60922067294805 6.765642240589186 0 0 0
143 0 1 -1.1104 12.389654264528733 13.690262748074172 6.779174912374954 0 0 0
111 0 1 -1.1104 6.735441782459811 13.811295255900967 6.767019219484392 0 0 0
112 0 1 -1.1104 6.787139176652114 19.390268265118923 6.621915444314054 0 0 0
25 0 2 2.2208 11.030504298834988 18.06690365414047 10.938820051631913 0 0 0
83 0 1 -1.1104 9.607666904623105 13.98905676010921 12.466014884090171 0 0 0
17536 0 2 2.2208 -0.2450503821419171 -4.398046522609889 -0.35739489900109694 0 0 0
336 0 2 2.2208 -0.2885202473365741 -1.716304182978628 13.54331386596422 0 0 0
9052 0 2 2.2208 -0.2287237328497464 -1.741751742604396 7.92338462217213 0 0 0
175 0 2 2.2208 5.420155268872014 1.0503301320754184 10.871926332054029 0 0 0
176 0 1 -1.1104 1.2205584541073284 -2.9927824733232122 12.215202190656294 0 0 0
177 0 1 -1.1104 1.2445098597801099 2.620468911867024 12.30403088881333 0 0 0
180 0 1 -1.1104 1.2223173177931974 -3.1026604520402943 9.508939515798625 0 0 0
181 0 1 -1.1104 1.0746561635478715 2.6827816557567687 9.608926848792462 0 0 0
184 0 1 -1.1104 1.0809020546754897 -0.2160766643668991 12.086220588044341 0 0 0
186 0 2 2.2208 5.273060984633804 -1.6487460772943852 8.001082457157459 0 0 0
187 0 2 2.2208 5.404343003853686 3.847346814413272 8.041516241147857 0 0 0
188 0 1 -1.1104 0.9887848103297595 -0.24718587431572986 9.287268201989685 0 0 0
190 0 1 -1.1104 3.9636127313292335 -3.034497995858146 12.141988052636762 0 0 0
191 0 1 -1.1104 4.030373953046487 2.569088063879409 12.172385639741968 0 0 0
192 0 2 2.2208 2.560832501701642 1.1803841143629785 7.9656523171347065 0 0 0
193 0 1 -1.1104 3.8931851606499714 -3.154875110029685 9.453115046191321 0 0 0
194 0 1 -1.1104 4.020883203172351 2.486108458929353 9.40093772524483 0 0 0
195 0 2 2.2208 2.51484905626788 -1.500265442038445 10.868586937956335 0 0 0
197 0 1 -1.1104 3.966611111006384 -0.23926465389157528 12.272406697936367 0 0 0
198 0 1 -1.1104 3.7990378489711385 -0.20566918789877747 9.534921817983648 0 0 0
196 0 2 2.2208 2.5627766404042895 3.9894546405760853 10.848804273069605 0 0 0
8899 0 2 2.2208 -0.2457140520184986 1.198163128205642 10.800827835667866 0 0 0
8933 0 2 2.2208 -0.1461270016411115 4.071346153467868 8.131223859637307 0 0 0
50 0 1 -1.1104 12.43929361395755 16.636807161917513 12.350615484414389 0 0 0
49 0 1 -1.1104 12.42379186153446 19.432664021699292 9.538443118804356 0 0 0
201 0 1 -1.1104 9.555252851903779 16.647286494342815 12.351001943414685 0 0 0
199 0 2 2.2208 8.086500752107241 20.921089278942382 10.777614397213028 0 0 0
372 0 2 2.2208 10.88524375318073 -1.7174919129419757 13.586178370418429 0 0 0
189 0 1 -1.1104 6.70337746938782 -0.2654342179351665 9.269457895280077 0 0 0
183 0 1 -1.1104 6.971175685327732 2.6479804417082184 9.459481236990348 0 0 0
178 0 1 -1.1104 6.663129939944778 -3.085432536805796 12.214213265160963 0 0 0
185 0 1 -1.1104 6.784292366182289 -0.31404213527412433 12.120318394640659 0 0 0
182 0 1 -1.1104 6.897023274097868 -3.0177015074548432 9.465658035326928 0 0 0
179 0 1 -1.1104 6.819989429660841 2.5819484799936485 12.271987870946704 0 0 0
211 0 2 2.2208 10.970185534785099 1.1093292253119686 10.805632012205088 0 0 0
212 0 1 -1.1104 12.329652134254149 -2.899753950103662 12.159486025980623 0 0 0
213 0 1 -1.1104 12.373373416351043 2.6635362885233946 12.332606955885712 0 0 0
214 0 1 -1.1104 12.492130960584864 -3.108965744593872 9.338193438065973 0 0 0
215 0 1 -1.1104 12.408291570186716 2.7481653331848843 9.404149071738289 0 0 0
216 0 1 -1.1104 12.459062591790698 -0.23032125226533837 12.352418422087792 0 0 0
217 0 2 2.2208 11.018080539300323 -1.7197393634365055 7.891114791278243 0 0 0
218 0 2 2.2208 10.94774532557587 4.10609664231926 8.02473811616604 0 0 0
219 0 1 -1.1104 12.399878924668373 -0.06527913497711542 9.40408612463147 0 0 0
220 0 1 -1.1104 9.39965467801091 -3.015374650108276 12.325071204987252 0 0 0
221 0 1 -1.1104 9.682879240760766 2.5119674983455287 12.180566514891947 0 0 0
222 0 2 2.2208 8.210243806814752 1.075937889721296 7.991836627163075 0 0 0
223 0 1 -1.1104 9.697762672737191 -2.921235500780672 9.367305936652992 0 0 0
224 0 1 -1.1104 9.577247459750508 2.3909029830312987 9.461114003138103 0 0 0
225 0 2 2.2208 8.178945923947865 -1.5756873803093654 10.871167563768237 0 0 0
226 0 2 2.2208 8.190407859308758 3.9274151296617994 10.940386997791686 0 0 0
227 0 1 -1.1104 9.520238365354139 -0.17754251956849781 12.271624692834356 0 0 0
228 0 1 -1.1104 9.679733905208742 -0.255352027649174 9.38179119646947 0 0 0
297 0 1 -1.1104 6.756444057763201 13.781629454482928 12.451781151510898 0 0 0
8343 0 2 2.2208 -0.2783362031950749 -4.425951581923793 10.806581701913306 0 0 0
8344 0 2 2.2208 8.101237512629677 -4.408628550385181 8.109837021804223 0 0 0
371 0 2 2.2208 8.103760530891282 1.2418240988950973 13.666936578275036 0 0 0
105 0 2 2.2208 8.183326253580042 18.035546438544074 8.067669648517459 0 0 0
234 0 1 -1.1104 1.3568855304156906 8.200096393892672 6.679645907733344 0 0 0
8960 0 2 2.2208 -0.2892941512866805 12.401994527047485 10.848263580785977 0 0 0
52 0 1 -1.1104 6.584326262000549 16.614267666488004 12.342451828902592 0 0 0
240 0 2 2.2208 5.38767373972207 6.747951372353602 10.837298026545056 0 0 0
241 0 2 2.2208 5.352060700741607 12.438642178089525 10.928725173357707 0 0 0
242 0 1 -1.1104 1.0943436996491411 8.374081665389555 12.21134773720869 0 0 0
244 0 1 -1.1104 1.1774501317331447 8.323816737437376 9.343944408689742 0 0 0
246 0 1 -1.1104 1.131005913998244 5.350118370912931 12.298306195019732 0 0 0
247 0 1 -1.1104 1.0853623532205972 11.032303671436374 12.185233458567458 0 0 0
250 0 2 2.2208 5.57699831882241 9.580308546517125 8.095721212608055 0 0 0
251 0 1 -1.1104 1.3191958340448153 5.513066141608929 9.436577248915908 0 0 0
252 0 1 -1.1104 1.1870414240231553 11.117822115819198 9.337881592183326 0 0 0
255 0 1 -1.1104 4.065832111328939 8.36258644493308 12.449983136787557 0 0 0
256 0 2 2.2208 2.7333244733504842 6.935955258373663 8.17725172663268 0 0 0
257 0 2 2.2208 2.6647321554456798 12.51237637457527 8.168628993400777 0 0 0
258 0 1 -1.1104 3.9770381274221998 8.08601785652872 9.616294937915335 0 0 0
259 0 2 2.2208 2.512587696915686 9.713105056481774 10.743776786628544 0 0 0
260 0 1 -1.1104 3.849415823535482 5.389239856797371 12.294042979899176 0 0 0
261 0 1 -1.1104 3.856623277872486 11.042721774775819 12.248072559454377 0 0 0
262 0 1 -1.1104 4.108114188822645 5.223277328037246 9.357383333212503 0 0 0
263 0 1 -1.1104 3.9490824719941253 11.003244369564218 9.480486128501758 0 0 0
8968 0 2 2.2208 -0.2812866104144062 6.84475003440596 10.8906711347343 0 0 0
8967 0 2 2.2208 -0.25217517216835256 9.5975583603488 7.9750558019275815 0 0 0
288 0 1 -1.1104 6.649084902327723 19.447878958217554 9.413050338031136 0 0 0
9199 0 2 2.2208 -0.2579919316146366 9.667037319686779 13.621517512726726 0 0 0
229 0 1 -1.1104 9.652173772668114 16.73985011610938 9.503636910103133 0 0 0
27 0 1 -1.1104 12.590696879625177 19.74611966267062 12.437547368866422 0 0 0
267 0 1 -1.1104 9.62436477186918 8.33596777840404 6.815785542589737 0 0 0
254 0 1 -1.1104 6.724669162423702 11.139887789041534 9.568945359656896 0 0 0
245 0 1 -1.1104 6.87068099228847 8.190922882172877 9.428926143197454 0 0 0
249 0 1 -1.1104 6.655065071994714 11.146143215152254 12.291387793602357 0 0 0
248 0 1 -1.1104 6.7932423631850645 5.530780379246688 12.340070307368059 0 0 0
253 0 1 -1.1104 6.750884736325806 5.372066182622181 9.581613517397425 0 0 0
243 0 1 -1.1104 6.830063647032808 8.204236006827598 12.17295707887644 0 0 0
264 0 1 -1.1104 9.675584332030098 11.157328224056641 9.588862798384904 0 0 0
268 0 1 -1.1104 9.55413836346888 5.364163682652454 9.457604528460982 0 0 0
270 0 1 -1.1104 9.50907574442893 11.217233292699984 12.285014623930914 0 0 0
271 0 1 -1.1104 9.596486136009982 5.405888838082692 12.202987552361005 0 0 0
272 0 2 2.2208 8.224672024109237 9.620131058626688 10.988277295751468 0 0 0
273 0 1 -1.1104 9.651734410142433 8.263463840269045 9.523904285023047 0 0 0
274 0 2 2.2208 8.200678700873258 12.499876903336498 8.242365894122937 0 0 0
275 0 2 2.2208 8.197769104552533 6.886604058806843 8.15335156613207 0 0 0
276 0 2 2.2208 10.945139673240341 6.787154910213247 10.836894012925603 0 0 0
277 0 2 2.2208 11.028274201430001 12.582237654183071 10.9485410148567 0 0 0
278 0 1 -1.1104 12.428166911818852 8.20315578233963 12.145339558512783 0 0 0
279 0 1 -1.1104 12.516573731470334 8.186869055209344 9.345271699363229 0 0 0
280 0 1 -1.1104 12.279868434836693 5.423622241748846 12.180581253202776 0 0 0
281 0 1 -1.1104 12.449312073215633 11.085032816457533 12.165383966910873 0 0 0
282 0 2 2.2208 11.034906745975762 9.653930872366033 8.148613307762306 0 0 0
283 0 1 -1.1104 12.375568435134678 5.474404657023765 9.514842561099634 0 0 0
284 0 1 -1.1104 12.492166927351395 11.048160783551475 9.379924045587684 0 0 0
285 0 1 -1.1104 9.615380509255255 8.389561337262505 12.257749991013421 0 0 0
434 0 2 2.2208 8.262582404764819 6.909616863809863 13.651311511015551 0 0 0
289 0 1 -1.1104 6.878813101364286 16.846262192018248 9.454957529143218 0 0 0
81 0 2 2.2208 11.015699736629758 20.88702020047152 8.173731847237912 0 0 0
8739 0 2 2.2208 -0.2845370021915725 20.821193793482106 7.962694596809818 0 0 0
8740 0 2 2.2208 -0.2899317971109577 18.060399445352157 10.761642094176228 0 0 0
231 0 1 -1.1104 1.106101246387377 19.28610862316463 6.458377895474863 0 0 0
28 0 2 2.2208 2.501397098676029 20.80598708992867 10.946593701112814 0 0 0
29 0 1 -1.1104 3.92141736566136 16.686477899688395 12.148910747198025 0 0 0
51 0 1 -1.1104 1.1003636052896406 16.52760470036284 12.3509869491182 0 0 0
136 0 1 -1.1104 1.1260278309055325 13.825486257705276 12.222568125322725 0 0 0
200 0 1 -1.1104 1.1769803607815787 19.314035987138336 12.312034468122595 0 0 0
202 0 1 -1.1104 3.92408932505795 13.85062119343779 9.6350914221603 0 0 0
203 0 1 -1.1104 3.8868885132115194 16.709341887849867 9.376157425975068 0 0 0
204 0 2 2.2208 2.416862563808925 17.95077783934408 8.038005365648852 0 0 0
230 0 2 2.2208 2.5561628435467147 15.262480717816752 10.903260234989942 0 0 0
232 0 1 -1.1104 3.7930769189627296 19.30767556096455 9.662961385313666 0 0 0
233 0 2 2.2208 5.425253786685847 18.071549280433075 10.88461719114687 0 0 0
286 0 1 -1.1104 4.017191820064341 19.45717710670233 12.331096068183673 0 0 0
287 0 1 -1.1104 3.9457367812685833 13.917234833537083 12.266245322742412 0 0 0
291 0 1 -1.1104 1.0649491026802265 19.599616129659342 9.488549286676454 0 0 0
292 0 1 -1.1104 1.0106658132177564 16.65363413129991 9.42313704059454 0 0 0
293 0 2 2.2208 5.29865953221261 20.747728650112883 8.200563108925012 0 0 0
294 0 1 -1.1104 1.187619547669556 13.887957211989635 9.463599103544382 0 0 0
295 0 2 2.2208 5.326236756598734 15.19433854207853 8.1170128647448 0 0 0
53 0 2 2.2208 10.956934007759912 15.211657704451682 8.110539917432686 0 0 0
290 0 1 -1.1104 6.619398897979715 13.99287959739767 9.576789277012963 0 0 0
8765 0 2 2.2208 -0.1991669012770204 15.115271766631578 8.08279635100808 0 0 0
137 0 1 -1.1104 9.47786677791043 19.424677216255418 9.666880770479905 0 0 0
26 0 1 -1.1104 12.444198132629746 13.934372914283719 12.301028828961414 0 0 0
156 0 1 -1.1104 9.520416292982485 19.56148220820333 6.756561243968049 0 0 0
145 0 1 -1.1104 12.354685417979672 19.598345322868692 6.6663010924521355 0 0 0
165 0 2 2.2208 8.221065287626809 15.346146097919382 10.921789752529524 0 0 0
30 0 1 -1.1104 12.424939689982734 13.93762901876957 9.52658744829859 0 0 0
82 0 1 -1.1104 12.51065178855568 16.706112560685987 9.448442235762633 0 0 0
104 0 1 -1.1104 9.789921235076038 19.476664856060474 12.582240022711975 0 0 0
296 0 1 -1.1104 6.868471985654146 19.46104680734376 12.293642112342468 0 0 0
135 0 1 -1.1104 9.501978130874225 14.021971290782494 9.566943938496394 0 0 0
8345 0 2 2.2208 11.045302329233957 -4.429555250157364 10.745181185460584 0 0 0
556 0 2 2.2208 8.268386001922714 -1.5508937495768294 -0.3173618008642225 0 0 0
435 0 2 2.2208 11.06696714094179 9.606857887122255 13.567813188629488 0 0 0
407 0 2 2.2208 2.645233710324285 6.831171594136415 13.639969351814612 0 0 0
590 0 2 2.2208 5.276532578367834 6.756664232348799 -0.25526581375075813 0 0 0
591 0 2 2.2208 2.5275407220322843 9.485230387342217 -0.3355120927599444 0 0 0
408 0 2 2.2208 5.345057425581824 9.758497319439337 13.64553949878291 0 0 0
615 0 2 2.2208 11.042046943632545 6.78623592936881 -0.31074723660685005 0 0 0
617 0 2 2.2208 10.989250852509398 12.493286270281041 -0.31138770634888946 0 0 0
339 0 2 2.2208 2.5437900456637252 1.3001015233301456 13.602817787414697 0 0 0
338 0 2 2.2208 5.345496530057853 -1.6283380230797284 13.529665438973291 0 0 0
370 0 2 2.2208 8.058646326702357 15.331213333637699 -0.3543157310341627 0 0 0
298 0 2 2.2208 5.301357693829993 1.2592878417349067 16.456915692016782 0 0 0
299 0 1 -1.1104 1.043991247395703 -3.023596646954817 17.795992697971865 0 0 0
300 0 1 -1.1104 1.1856178263095254 2.5710684991854853 17.977191268363367 0 0 0
303 0 1 -1.1104 1.221999983286132 -2.9203059190986034 14.88934179615802 0 0 0
305 0 1 -1.1104 0.9975259258500239 2.5271474895264587 15.093061335472248 0 0 0
311 0 1 -1.1104 1.2277024771803111 -0.1954390463926289 17.77700489310005 0 0 0
313 0 2 2.2208 5.363821582450084 -1.4530041869462589 19.2838759778096 0 0 0
314 0 2 2.2208 5.36666669882909 4.030030133449186 19.235734479074488 0 0 0
315 0 1 -1.1104 0.8945848239506944 -0.20643112671395858 14.994735697124016 0 0 0
319 0 1 -1.1104 3.8507438962288028 -2.926879158671563 17.830505618930548 0 0 0
320 0 1 -1.1104 3.940414164710261 2.6753832642095605 17.786973848531296 0 0 0
321 0 2 2.2208 2.541512905147794 1.2661091918729555 19.212164464917812 0 0 0
322 0 1 -1.1104 3.916562067984754 -2.9557721297929205 14.865775875688392 0 0 0
324 0 1 -1.1104 3.9602075781469828 2.6007139585448873 14.975008328166473 0 0 0
326 0 2 2.2208 2.526269705148029 -1.5150142515945992 16.477593070167377 0 0 0
327 0 2 2.2208 2.4695677382069583 3.8604019641820297 16.376247247586733 0 0 0
328 0 1 -1.1104 4.0675939178644684 -0.164059351392709 18.029606250643273 0 0 0
329 0 1 -1.1104 3.8397096235104327 -0.2122256980846079 15.15593009854801 0 0 0
9415 0 2 2.2208 -0.3529705051377749 1.2376120004795688 16.54563284018156 0 0 0
9416 0 2 2.2208 -0.34178020223677524 -1.5604109701630322 19.367377221107386 0 0 0
330 0 1 -1.1104 3.906842603808181 -0.14812509920206646 20.74744232216357 0 0 0
304 0 1 -1.1104 1.155027580846435 -3.113452360794666 20.719039449834728 0 0 0
306 0 1 -1.1104 1.212769053699861 2.5399373855391656 20.69028462801023 0 0 0
316 0 1 -1.1104 1.1389058646742107 -0.3735231371120918 20.701144837755177 0 0 0
325 0 1 -1.1104 4.092152120369768 2.555964814936057 20.591491560632253 0 0 0
323 0 1 -1.1104 3.930458493403379 -2.805824905808474 20.58547293482154 0 0 0
318 0 1 -1.1104 6.734328940900694 -0.20293164559786878 20.707451815159605 0 0 0
8713 0 2 2.2208 5.274954019867214 -4.313724723031084 16.257594538327474 0 0 0
499 0 2 2.2208 8.186263696029686 18.098906937673537 13.742283528799941 0 0 0
309 0 1 -1.1104 6.739006898120978 2.77120647451165 15.143450223723757 0 0 0
301 0 1 -1.1104 6.763744801644855 -2.7736779087295105 17.78302574652226 0 0 0
307 0 1 -1.1104 6.698684634494036 -3.003293944254205 14.895584985340424 0 0 0
317 0 1 -1.1104 6.571496662050816 -0.1321657832328774 14.873002348537698 0 0 0
312 0 1 -1.1104 6.860462832824573 0.02723184976605323 17.841383470774307 0 0 0
302 0 1 -1.1104 6.792261356103691 2.6804976599244803 17.856204483020562 0 0 0
341 0 2 2.2208 10.957181830461737 1.1404538899676584 16.463631952353996 0 0 0
342 0 1 -1.1104 12.4105310109805 -2.9755611200518985 17.922838944227532 0 0 0
343 0 1 -1.1104 12.349703950195208 2.6207799408042685 17.862216944198074 0 0 0
344 0 1 -1.1104 12.377263239512246 -3.0442970660542894 15.002770178070154 0 0 0
346 0 1 -1.1104 12.342117826850458 2.5113544126955945 15.15082009983998 0 0 0
348 0 1 -1.1104 12.33345281958288 -0.21745617065202003 17.975742221353073 0 0 0
349 0 2 2.2208 10.843825262850174 -1.5485167175240375 19.257421125699487 0 0 0
351 0 1 -1.1104 12.3550946639043 -0.25341674785581925 15.080246538313375 0 0 0