ITEM: TIMESTEP
80000
ITEM: NUMBER OF ATOMS
17730
ITEM: BOX BOUNDS pp pp pp
-3.6323061345404184e-01 2.7703230613453936e+01
-4.4043193333061277e+00 3.3248431933330335e+02
-3.6797457640288622e-01 2.7707974576403345e+01
ITEM: ATOMS id type q x y z
1 2 2.2208 5.15338 0.985539 5.33112
2 1 -1.1104 0.845736 -2.965 1.17244
3 1 -1.1104 0.84804 2.48388 1.14
6 1 -1.1104 0.950982 -3.07574 3.85163
7 1 -1.1104 0.94725 2.41284 3.99675
10 1 -1.1104 0.741263 -0.281989 0.999342
12 2 2.2208 5.14035 -1.70818 2.34717
13 2 2.2208 5.08672 3.9869 2.42642
14 1 -1.1104 0.814954 -0.283006 3.7369
16 1 -1.1104 3.73485 -3.04073 0.990438
17 1 -1.1104 3.71261 2.64038 1.0234
18 2 2.2208 2.28812 1.20983 2.42966
19 1 -1.1104 3.78699 -3.21594 3.80005
20 1 -1.1104 3.91698 2.5159 3.86548
21 2 2.2208 2.32386 -1.71369 5.25145
23 1 -1.1104 3.59715 -0.290558 1.08442
24 1 -1.1104 3.77299 -0.38085 3.78893
22 2 2.2208 2.42576 3.83975 5.23776
9 1 -1.1104 6.58299 2.60977 3.64421
170 1 -1.1104 0.869601 -0.442082 6.59671
11 1 -1.1104 6.52614 -0.250362 0.897272
8 1 -1.1104 6.4531 -3.03037 3.91104
15 1 -1.1104 6.60448 -0.274634 3.71799
4 1 -1.1104 6.62408 -3.06603 1.05408
171 1 -1.1104 6.47199 -0.301977 6.70775
341 2 2.2208 13.5122 9.57433 10.9013
330 1 -1.1104 12.136 13.7875 12.1962
167 1 -1.1104 1.0953 2.3209 6.79748
166 1 -1.1104 0.948245 -3.10072 6.7609
169 1 -1.1104 6.63438 2.37807 6.51862
332 2 2.2208 13.4754 17.9883 7.86211
229 2 2.2208 13.4649 1.19793 8.02721
5 1 -1.1104 6.60974 2.58471 0.932163
231 2 2.2208 7.92662 -4.39838 8.1072
357 2 2.2208 2.3082 12.374 13.5969
334 2 2.2208 13.6014 3.90114 5.15455
31 2 2.2208 10.7635 1.04123 5.21839
32 1 -1.1104 12.1938 -3.12662 0.967774
33 1 -1.1104 12.2592 2.45282 0.958829
34 1 -1.1104 12.2116 -3.06544 3.79349
35 1 -1.1104 12.0139 2.50453 3.78434
36 1 -1.1104 12.1438 -0.267375 0.989811
37 2 2.2208 10.9119 -1.69307 2.43573
39 1 -1.1104 12.2263 -0.349369 3.85942
40 1 -1.1104 9.45943 -2.95052 1.00863
41 1 -1.1104 9.34415 2.58326 0.969224
42 2 2.2208 7.93221 1.19293 2.36891
43 1 -1.1104 9.39817 -3.09335 3.84868
44 1 -1.1104 9.2308 2.29925 3.87408
45 2 2.2208 8.0242 -1.64168 5.21123
47 1 -1.1104 9.35156 -0.219768 0.960156
48 1 -1.1104 9.42516 -0.38939 3.79797
46 2 2.2208 7.9328 3.77209 5.23335
38 2 2.2208 10.7599 3.82285 2.40952
331 2 2.2208 10.8809 18.0498 10.8009
335 2 2.2208 13.5866 9.5655 5.19578
372 2 2.2208 13.5644 17.9054 13.7268
208 1 -1.1104 9.36998 -2.97312 6.625
207 1 -1.1104 12.258 -0.295052 6.72379
206 1 -1.1104 12.1292 2.47006 6.63204
337 2 2.2208 13.5913 15.1156 5.16973
339 2 2.2208 13.5295 6.73233 8.00456
356 2 2.2208 5.17782 9.64495 13.6522
54 2 2.2208 5.14284 6.7369 5.17712
55 2 2.2208 5.1795 12.329 5.27141
56 1 -1.1104 0.857199 8.19485 1.08425
58 1 -1.1104 0.994242 8.14113 3.92082
60 1 -1.1104 0.908581 5.39215 1.03831
61 1 -1.1104 1.00363 11.1112 0.935999
66 2 2.2208 5.14613 9.49261 2.39727
67 1 -1.1104 1.07152 5.11577 3.86937
68 1 -1.1104 1.12324 10.9672 3.68178
71 1 -1.1104 3.72092 8.07798 1.02237
72 2 2.2208 2.27075 6.80051 2.31284
73 2 2.2208 2.37473 12.476 2.46637
74 1 -1.1104 3.75577 8.20681 3.78853
75 2 2.2208 2.40897 9.63152 5.15879
76 1 -1.1104 3.66236 5.28107 0.951887
77 1 -1.1104 3.66546 10.9638 0.962665
79 1 -1.1104 3.69656 5.40096 3.64662
80 1 -1.1104 3.85092 11.1591 3.81194
64 1 -1.1104 6.53338 10.8946 0.917111
59 1 -1.1104 6.57464 8.12721 3.66505
70 1 -1.1104 6.56969 10.85 3.91731
57 1 -1.1104 6.4701 8.1962 0.871866
63 1 -1.1104 6.37464 5.2579 0.931293
62 1 -1.1104 0.977443 11.0623 6.62757
236 1 -1.1104 1.04479 5.15162 6.63936
234 1 -1.1104 1.03098 7.98229 6.64053
239 1 -1.1104 3.83504 5.2007 6.61091
338 2 2.2208 13.5374 3.95994 10.8897
232 2 2.2208 10.6776 -4.43382 10.9053
69 1 -1.1104 6.53864 5.41495 3.91453
104 2 2.2208 13.6248 12.2873 2.40349
328 1 -1.1104 12.0509 13.6708 9.47641
81 2 2.2208 -0.393069 6.67349 5.27965
84 2 2.2208 10.6787 6.74034 5.17426
85 2 2.2208 10.8071 12.3019 5.2828
86 1 -1.1104 12.1668 8.1777 1.14481
87 1 -1.1104 12.2166 8.08298 3.86585
88 1 -1.1104 12.0873 5.25795 1.02342
89 1 -1.1104 12.1016 10.9443 1.19842
91 2 2.2208 10.6052 9.47186 2.4319
92 1 -1.1104 12.2051 5.2794 3.80983
93 1 -1.1104 12.2833 10.9208 3.82276
94 1 -1.1104 9.22266 8.03276 1.02483
95 2 2.2208 7.87766 6.62583 2.38546
96 2 2.2208 7.92959 12.197 2.41895
97 1 -1.1104 9.2672 8.10467 3.79124
98 2 2.2208 7.9068 9.46271 5.19552
99 1 -1.1104 9.33626 5.32838 1.04542
100 1 -1.1104 9.31705 10.7099 0.974865
102 1 -1.1104 9.53315 5.24199 3.85512
103 1 -1.1104 9.47439 11.0228 3.83552
319 1 -1.1104 9.40592 13.6829 9.28292
101 1 -1.1104 9.32643 10.7891 6.65016
90 1 -1.1104 12.0825 10.9793 6.72908
352 2 2.2208 7.99169 1.14487 13.6441
106 2 2.2208 5.17839 17.9584 5.27682
107 1 -1.1104 0.982865 13.7835 0.995714
109 1 -1.1104 1.01783 19.4304 0.863656
113 1 -1.1104 0.991501 13.8385 3.94313
114 1 -1.1104 0.80376 19.2665 3.96179
116 1 -1.1104 0.975021 16.5324 1.01842
119 2 2.2208 5.16555 15.114 2.41973
120 2 2.2208 5.12361 20.8168 2.50247
121 1 -1.1104 0.857244 16.5301 3.84394
123 1 -1.1104 3.71136 13.6349 0.939635
125 1 -1.1104 3.60256 19.4106 1.04465
127 2 2.2208 2.25409 18.0201 2.32955
128 1 -1.1104 3.87303 13.7986 3.86139
129 1 -1.1104 3.67191 19.3729 3.80016
130 2 2.2208 2.34377 15.1779 5.20313
131 2 2.2208 2.27325 20.7133 5.20019
132 1 -1.1104 3.68946 16.318 1.04939
134 1 -1.1104 3.68397 16.5904 3.8606
140 1 -1.1104 6.43336 16.5753 0.972925
122 1 -1.1104 6.57758 16.5149 3.87389
115 1 -1.1104 6.56101 13.5913 3.94839
139 1 -1.1104 6.53082 19.4039 3.77985
110 1 -1.1104 6.58724 13.7391 1.1309
138 1 -1.1104 6.55994 19.3325 0.838582
306 1 -1.1104 6.52999 16.6671 12.144
126 1 -1.1104 3.82597 19.4024 6.4442
124 1 -1.1104 3.82514 13.7608 6.76349
108 1 -1.1104 1.06124 13.899 6.65836
117 1 -1.1104 1.08659 16.6632 6.62925
302 1 -1.1104 0.933593 19.3552 6.70164
118 1 -1.1104 6.72113 16.5811 6.67951
133 1 -1.1104 3.78263 16.5491 6.6585
314 1 -1.1104 9.40416 16.5724 9.49049
315 1 -1.1104 9.4899 16.8015 12.238
336 2 2.2208 13.4839 20.7756 5.26822
368 2 2.2208 10.7442 20.7404 13.5377
141 2 2.2208 10.7513 17.9036 5.055
142 1 -1.1104 12.1603 13.8995 1.10773
144 1 -1.1104 12.1797 19.2085 0.860348
146 1 -1.1104 12.2086 13.7097 3.82322
147 1 -1.1104 12.0662 19.4249 3.77319
148 1 -1.1104 12.2009 16.4448 1.06799
150 2 2.2208 10.752 15.1043 2.48801
151 2 2.2208 10.667 20.8416 2.45317
152 1 -1.1104 12.0807 16.5498 3.81635
153 1 -1.1104 9.42093 13.5919 1.04651
155 1 -1.1104 9.33046 19.4727 0.928762
157 2 2.2208 7.87516 17.8953 2.31069
158 1 -1.1104 9.34161 13.8319 3.98038
159 1 -1.1104 9.36219 19.349 3.74363
160 2 2.2208 7.91395 15.017 5.28104
161 2 2.2208 7.96882 20.7065 5.20459
162 1 -1.1104 9.25415 16.6716 0.879876
164 1 -1.1104 9.28219 16.4268 3.7426
324 2 2.2208 10.789 20.7502 7.99891
163 1 -1.1104 9.53719 16.5409 6.52262
149 1 -1.1104 12.2684 16.611 6.60042
145 1 -1.1104 12.1371 19.363 6.4763
329 1 -1.1104 12.2847 19.279 12.178
156 1 -1.1104 9.23671 19.2314 6.45123
172 1 -1.1104 3.69161 -3.09738 6.6895
173 1 -1.1104 3.79361 2.38567 6.7236
168 1 -1.1104 6.48856 -2.99647 6.59433
49 2 2.2208 13.5303 1.13949 2.37588
174 1 -1.1104 3.56852 -0.32745 6.66965
175 2 2.2208 5.02814 1.14538 10.878
176 1 -1.1104 0.917205 -3.10079 12.3138
177 1 -1.1104 1.02306 2.4313 12.2386
180 1 -1.1104 0.982127 -3.03104 9.48938
181 1 -1.1104 1.132 2.41487 9.54962
184 1 -1.1104 0.815085 -0.370401 12.3932
186 2 2.2208 5.09381 -1.73158 8.06895
187 2 2.2208 5.10675 3.92905 8.07442
188 1 -1.1104 0.90407 -0.293258 9.599
190 1 -1.1104 3.82871 -3.10818 12.3037
191 1 -1.1104 3.75161 2.678 12.2937
192 2 2.2208 2.35068 1.02854 8.10229
193 1 -1.1104 3.66759 -3.13312 9.58141
194 1 -1.1104 3.79362 2.46262 9.54105
195 2 2.2208 2.26751 -1.72143 10.8908
196 2 2.2208 2.38087 4.04315 10.8351
197 1 -1.1104 3.74845 -0.168955 12.3676
198 1 -1.1104 3.72581 -0.272643 9.62326
178 1 -1.1104 6.60694 -3.10006 12.2148
182 1 -1.1104 6.48115 -3.23218 9.47632
179 1 -1.1104 6.46182 2.52718 12.1282
185 1 -1.1104 6.45651 -0.239302 12.2414
189 1 -1.1104 6.47092 -0.368327 9.35645
183 1 -1.1104 6.40998 2.60319 9.31136
327 1 -1.1104 12.1376 19.2605 9.30133
143 1 -1.1104 12.1237 13.799 6.6162
340 2 2.2208 13.514 12.3988 8.1103
165 2 2.2208 13.5553 18.0093 2.3016
105 2 2.2208 13.6882 6.66998 2.41523
345 2 2.2208 13.6512 20.8344 10.8945
209 1 -1.1104 9.37513 2.50986 6.71595
210 1 -1.1104 9.41876 -0.235526 6.54849
230 2 2.2208 13.5971 -1.7581 10.7727
205 1 -1.1104 12.1486 -3.02877 6.57687
211 2 2.2208 10.8487 1.15428 10.9031
212 1 -1.1104 12.1164 -2.98283 12.2139
213 1 -1.1104 12.169 2.71126 12.2345
214 1 -1.1104 12.1947 -3.12255 9.36816
215 1 -1.1104 12.0192 2.56261 9.49736
216 1 -1.1104 12.1739 -0.154657 12.2293
217 2 2.2208 10.6772 -1.57296 8.05814
218 2 2.2208 10.704 3.83748 7.96814
219 1 -1.1104 12.2301 -0.287852 9.49331
220 1 -1.1104 9.29673 -3.04774 12.3222
221 1 -1.1104 9.31283 2.5082 12.4347
222 2 2.2208 7.93459 1.0862 8.07334
223 1 -1.1104 9.3309 -3.07722 9.45698
224 1 -1.1104 9.20517 2.34884 9.49616
225 2 2.2208 7.79306 -1.69053 10.8962
226 2 2.2208 7.95151 3.82795 10.6877
227 1 -1.1104 9.39894 -0.28147 12.2352
228 1 -1.1104 9.28158 -0.315861 9.43034
322 1 -1.1104 9.32056 13.8693 12.2096
316 2 2.2208 7.95868 20.8763 10.7755
321 1 -1.1104 9.31779 19.4642 12.2923
325 2 2.2208 10.7318 15.3113 8.02719
78 1 -1.1104 3.74547 10.914 6.60259
238 1 -1.1104 3.76061 8.17797 6.61229
65 1 -1.1104 6.65708 10.7567 6.69769
235 1 -1.1104 6.44255 8.02841 6.59602
240 2 2.2208 5.22489 6.66624 10.791
241 2 2.2208 5.12095 12.183 10.7476
242 1 -1.1104 0.994666 8.27189 12.307
244 1 -1.1104 0.777156 8.21054 9.56905
246 1 -1.1104 1.0204 5.29462 12.3286
247 1 -1.1104 0.942716 11.0793 12.2622
250 2 2.2208 5.18844 9.36864 8.02162
251 1 -1.1104 1.02277 5.33166 9.48999
252 1 -1.1104 1.11004 11.0156 9.45873
255 1 -1.1104 3.77388 8.13513 12.1754
256 2 2.2208 2.35915 6.73214 8.0374
257 2 2.2208 2.23492 12.4483 8.01165
258 1 -1.1104 3.71877 8.05229 9.42249
259 2 2.2208 2.32382 9.51712 10.857
260 1 -1.1104 3.81824 5.35077 12.2093
261 1 -1.1104 3.67273 10.9033 12.151
262 1 -1.1104 3.71766 5.3534 9.43698
263 1 -1.1104 3.75049 10.9051 9.34688
254 1 -1.1104 6.597 10.9244 9.53634
253 1 -1.1104 6.48815 5.38084 9.42473
249 1 -1.1104 6.56216 11.0287 12.2644
248 1 -1.1104 6.60662 5.23972 12.2444
326 1 -1.1104 12.0884 16.6011 12.3121
318 1 -1.1104 9.44286 19.3923 9.33133
265 1 -1.1104 12.1594 8.1144 6.57536
269 1 -1.1104 9.28993 5.22234 6.55402
237 1 -1.1104 6.61407 5.14742 6.67424
243 1 -1.1104 6.60886 8.24908 12.2664
245 1 -1.1104 6.44151 8.21783 9.50887
266 1 -1.1104 12.1124 5.13513 6.57959
267 1 -1.1104 9.17726 8.08362 6.5769
323 1 -1.1104 12.2036 16.5493 9.43592
280 1 -1.1104 12.3014 5.53692 12.1827
279 1 -1.1104 12.0455 8.09647 9.47028
278 1 -1.1104 12.0054 8.33966 12.25
277 2 2.2208 10.7316 12.3227 10.7942
276 2 2.2208 10.762 6.73677 10.85
284 1 -1.1104 12.1085 11.0352 9.45955
275 2 2.2208 7.92922 6.6674 8.05745
283 1 -1.1104 12.3355 5.31932 9.32731
281 1 -1.1104 11.9989 11.0801 12.2748
285 1 -1.1104 9.27172 8.21885 12.1405
282 2 2.2208 10.8355 9.45099 7.99467
264 1 -1.1104 9.33341 10.8103 9.48041
268 1 -1.1104 9.24391 5.19706 9.38777
270 1 -1.1104 9.31741 11.0063 12.2425
271 1 -1.1104 9.46199 5.28187 12.1469
272 2 2.2208 7.93443 9.64152 10.7895
273 1 -1.1104 9.24613 8.04568 9.33757
274 2 2.2208 8.00684 12.1931 7.97085
320 2 2.2208 7.90636 17.9946 8.06754
154 1 -1.1104 9.30342 13.702 6.67247
111 1 -1.1104 6.61439 13.7101 6.6688
317 2 2.2208 7.93276 15.1693 10.7595
112 1 -1.1104 6.52676 19.398 6.59237
297 1 -1.1104 6.44137 13.6753 12.2467
290 1 -1.1104 6.5367 13.7277 9.4058
296 1 -1.1104 6.48066 19.2992 12.2367
294 1 -1.1104 0.963492 13.8478 9.43114
295 2 2.2208 5.19274 15.0217 8.0663
310 2 2.2208 2.43342 15.2856 10.8131
309 2 2.2208 2.46256 20.794 10.6665
308 1 -1.1104 3.7533 16.713 12.117
307 1 -1.1104 0.925438 16.7025 12.3042
291 1 -1.1104 0.967091 19.2888 9.40641
286 1 -1.1104 3.90937 19.3909 12.2089
305 1 -1.1104 3.73064 13.6217 9.5928
304 1 -1.1104 3.84757 16.4762 9.33247
292 1 -1.1104 0.964002 16.6325 9.34235
303 2 2.2208 2.28118 17.9617 7.98618
301 1 -1.1104 3.77012 19.3714 9.30593
300 2 2.2208 5.26574 17.9877 10.7363
293 2 2.2208 5.24503 20.8014 7.96646
299 1 -1.1104 0.79987 14.0509 12.0947
298 1 -1.1104 1.07819 19.5065 12.2582
287 1 -1.1104 3.58467 13.8714 12.1859
289 1 -1.1104 6.56524 16.5678 9.34882
288 1 -1.1104 6.57382 19.3737 9.4238
50 2 2.2208 13.6551 -1.67225 5.23637
333 2 2.2208 13.5206 15.2158 10.8245
370 2 2.2208 13.5215 1.22076 13.636
361 2 2.2208 7.90502 12.4079 13.6115
371 2 2.2208 8.00544 17.9983 13.57
382 2 2.2208 10.7705 1.13377 -0.415936
359 2 2.2208 8.0455 6.70173 13.4549
365 2 2.2208 5.07435 15.1741 13.568
379 2 2.2208 8.00285 20.8908 -0.388863
395 2 2.2208 13.7265 9.52342 -0.36284
398 2 2.2208 2.33514 15.206 -0.441431
364 2 2.2208 5.15383 20.7714 13.5898
388 2 2.2208 2.35111 9.57463 -0.378597
375 2 2.2208 13.6569 20.8248 -0.386867
400 2 2.2208 5.16128 1.27238 16.4753
401 1 -1.1104 1.00575 -3.073 17.7963
402 1 -1.1104 1.11417 2.6911 17.9225
405 1 -1.1104 0.911576 -3.08553 14.9883
407 1 -1.1104 0.999625 2.58962 15.1376
413 1 -1.1104 0.999166 -0.220342 17.906
415 2 2.2208 5.24809 -1.712 19.2532
416 2 2.2208 5.05763 4.12472 19.3658
417 1 -1.1104 1.0108 -0.33538 15.1081
421 1 -1.1104 3.83335 -2.92883 17.9314
422 1 -1.1104 3.85549 2.72581 17.8591
423 2 2.2208 2.35204 1.24584 19.3313
424 1 -1.1104 3.74181 -2.98227 15.0114
426 1 -1.1104 3.79098 2.69991 15.0052
428 2 2.2208 2.33693 -1.56058 16.5593
429 2 2.2208 2.3674 4.03167 16.4764
430 1 -1.1104 3.81174 -0.226623 17.8568
431 1 -1.1104 3.87215 -0.173364 14.9618
414 1 -1.1104 6.66049 -0.420541 17.8261
419 1 -1.1104 6.64292 -0.259768 15.0417
403 1 -1.1104 6.55912 -3.18137 17.7813
409 1 -1.1104 6.52292 -3.13054 15.0199
404 1 -1.1104 6.60895 2.60978 17.9689
362 2 2.2208 13.5448 12.4549 13.623
538 2 2.2208 13.5705 12.4478 19.2538
427 1 -1.1104 3.66163 2.66877 20.7188
432 1 -1.1104 3.77396 -0.216158 20.5845
418 1 -1.1104 0.9729 -0.261764 20.6799
425 1 -1.1104 3.72824 -3.14101 20.6379
410 1 -1.1104 6.65664 -3.14216 20.7609
369 2 2.2208 10.7463 15.1777 13.6829
373 2 2.2208 5.14353 1.19496 27.689
376 2 2.2208 2.25977 -1.63774 27.7796
411 1 -1.1104 6.51358 2.53731 15.0413
377 2 2.2208 7.90934 15.1901 27.7212
443 2 2.2208 10.7683 1.26253 16.4415
444 1 -1.1104 12.2297 -3.05729 17.969
445 1 -1.1104 12.2814 2.62245 17.7434
446 1 -1.1104 12.1135 -3.0535 15.0495
448 1 -1.1104 12.2814 2.61179 15.0275
450 1 -1.1104 12.1079 -0.239726 17.8664
451 2 2.2208 10.8181 -1.57663 19.2822
452 2 2.2208 10.8479 4.02532 19.3323
453 1 -1.1104 12.086 -0.269241 15.0347
455 1 -1.1104 9.32228 -3.07647 17.926
456 1 -1.1104 9.48852 2.55522 17.9067
457 2 2.2208 7.95043 1.0962 19.1918
458 1 -1.1104 9.32629 -3.16275 14.9902
460 1 -1.1104 9.42236 2.57434 15.0771
462 2 2.2208 7.95978 -1.66691 16.424
464 1 -1.1104 9.4395 -0.302511 17.8956
465 1 -1.1104 9.36222 -0.310924 15.0105
463 2 2.2208 8.03872 3.98112 16.4738
471 2 2.2208 13.413 -1.6952 16.3583
466 1 -1.1104 9.42096 -0.310848 20.6976
454 1 -1.1104 12.3133 -0.0293614 20.6064
435 2 2.2208 2.34299 -4.50739 19.2087
509 2 2.2208 13.5769 18.0985 19.1791
510 2 2.2208 13.6734 15.2346 16.4516
665 2 2.2208 13.5524 -1.57619 22.0272
476 2 2.2208 5.1857 6.84296 16.4873
477 2 2.2208 5.02375 12.3959 16.4564
478 1 -1.1104 0.971344 8.24013 17.9967
480 1 -1.1104 0.917754 8.06049 15.1352
484 1 -1.1104 1.01043 5.51402 18.0278
485 1 -1.1104 0.926485 11.0144 17.8449
488 2 2.2208 5.10741 9.6299 19.2714
489 1 -1.1104 0.942366 5.31438 15.0646
491 1 -1.1104 0.86533 11.0788 15.0945
497 1 -1.1104 3.69428 8.25165 17.8672
498 2 2.2208 2.26948 6.90333 19.3052
499 2 2.2208 2.37407 12.327 19.328
500 1 -1.1104 3.69156 8.33759 14.9401
502 2 2.2208 2.43023 9.67108 16.4129
503 1 -1.1104 3.75888 5.48392 17.8938
504 1 -1.1104 3.7661 11.0478 17.8778
505 1 -1.1104 3.88765 5.54472 15.0281
507 1 -1.1104 3.63501 11.1874 15.1625
495 1 -1.1104 6.55314 10.9452 14.8934
479 1 -1.1104 6.59248 8.14727 17.9892
482 1 -1.1104 6.52041 8.21849 15.2028
490 1 -1.1104 0.948006 5.34782 20.7973
493 1 -1.1104 6.73144 5.46887 15.0114
692 1 -1.1104 12.1462 16.7322 26.3801
492 1 -1.1104 1.03763 11.0581 20.6382
481 1 -1.1104 0.973816 8.23058 20.8318
720 2 2.2208 13.6013 12.4509 24.8214
440 2 2.2208 13.5333 9.62578 21.9122
657 1 -1.1104 12.2906 13.7571 26.3377
487 1 -1.1104 6.47133 11.0408 17.7546
486 1 -1.1104 6.51106 5.48305 17.8705
512 2 2.2208 10.8405 6.81258 16.4804
513 2 2.2208 10.6955 12.44 16.4963
514 1 -1.1104 12.1102 8.14891 17.9689
515 1 -1.1104 12.1012 8.28384 15.1344
517 1 -1.1104 12.215 5.41578 17.8549
518 1 -1.1104 12.1385 11.0146 17.9964
519 2 2.2208 10.6266 9.77491 19.2382
520 1 -1.1104 12.2101 5.41107 15.0166
522 1 -1.1104 12.1113 10.9759 15.127
524 1 -1.1104 9.37168 8.27315 17.7786
525 2 2.2208 7.96177 6.8224 19.3241
526 2 2.2208 7.8804 12.3399 19.2859
527 1 -1.1104 9.27674 8.17609 14.9185
529 2 2.2208 7.95667 9.52593 16.4565
530 1 -1.1104 9.39508 5.40876 17.8086
531 1 -1.1104 9.23528 11.0447 17.9002
532 1 -1.1104 9.41978 5.33628 15.0744
534 1 -1.1104 9.39727 11.0035 14.979
573 2 2.2208 13.5924 9.61166 16.3969
392 2 2.2208 10.815 6.83499 27.7657
572 2 2.2208 13.5864 6.88213 19.3461
523 1 -1.1104 12.1689 11.0111 20.6718
664 2 2.2208 10.7674 15.0733 24.8671
380 2 2.2208 2.25843 3.97989 27.6251
539 2 2.2208 5.18182 17.8649 16.3343
540 1 -1.1104 0.887097 13.731 17.7768
541 1 -1.1104 0.803378 19.3536 17.8889
544 1 -1.1104 0.937299 13.7117 14.9665
546 1 -1.1104 1.00121 19.294 15.1562
552 1 -1.1104 1.03081 16.4608 17.944
554 2 2.2208 5.07448 15.1293 19.31
555 2 2.2208 5.24702 20.7579 19.2574
556 1 -1.1104 0.983031 16.5782 15.0234
560 1 -1.1104 3.70927 13.8415 17.9552
561 1 -1.1104 3.79496 19.2715 17.8354
562 2 2.2208 2.24253 18.0303 19.262
563 1 -1.1104 3.67642 13.8094 15.0796
565 1 -1.1104 3.96048 19.4129 15.057
567 2 2.2208 2.3061 15.1413 16.4453
568 2 2.2208 2.38427 20.7782 16.5686
569 1 -1.1104 3.73725 16.601 17.8514
570 1 -1.1104 3.63392 16.5856 15.0453
550 1 -1.1104 6.64463 19.3172 14.9885
542 1 -1.1104 6.37961 13.6637 17.941
553 1 -1.1104 6.59492 16.3069 17.8374
558 1 -1.1104 6.55988 16.4873 14.9677
543 1 -1.1104 6.52983 19.2223 17.7497
571 1 -1.1104 3.72836 16.6844 20.6402
549 1 -1.1104 6.61109 13.642 20.6715
559 1 -1.1104 6.51753 16.5172 20.6449
557 1 -1.1104 0.952544 16.6446 20.6248
566 1 -1.1104 3.6544 19.2425 20.6962
393 2 2.2208 7.91307 9.4804 27.5721
548 1 -1.1104 6.44815 13.74 15.0001
746 1 -1.1104 9.44218 16.5012 23.3531
386 2 2.2208 13.6596 3.91889 27.5884
575 2 2.2208 10.886 17.9844 16.5591
576 1 -1.1104 12.1095 13.8958 17.7393
577 1 -1.1104 12.2331 19.3133 17.7718
578 1 -1.1104 12.1115 13.8435 15.0604
580 1 -1.1104 12.1936 19.3796 15.1152
582 1 -1.1104 12.2337 16.746 17.9599
583 2 2.2208 10.7268 15.1344 19.2537
584 2 2.2208 10.7551 20.8414 19.2931
585 1 -1.1104 12.0965 16.6259 15.0478
587 1 -1.1104 9.19758 13.8721 17.8199
588 1 -1.1104 9.48453 19.2547 17.9673
589 2 2.2208 8.02005 17.9208 19.1619
590 1 -1.1104 9.41741 13.7142 15.0388
592 1 -1.1104 9.47469 19.2801 15.1625
594 2 2.2208 7.91406 15.0703 16.4592
595 2 2.2208 8.03466 20.7276 16.4203
596 1 -1.1104 9.50466 16.5639 17.8038
597 1 -1.1104 9.22747 16.3744 14.9802
475 2 2.2208 13.6636 20.8295 16.4677
598 1 -1.1104 9.46674 16.4955 20.6779
586 1 -1.1104 12.1289 16.6392 20.4711
579 1 -1.1104 12.2532 13.7035 20.5241
593 1 -1.1104 9.36795 19.3851 20.6138
733 1 -1.1104 6.59384 13.7264 23.4742
551 1 -1.1104 6.67392 19.39 20.6402
412 1 -1.1104 6.50108 2.44565 20.6654
721 2 2.2208 8.11596 20.6941 22.0667
658 1 -1.1104 12.2247 19.4207 26.2857
718 1 -1.1104 9.3821 19.4607 26.1905
406 1 -1.1104 0.922119 -3.08713 20.7911
408 1 -1.1104 0.911393 2.64076 20.6658
603 2 2.2208 5.10141 1.21188 22.0248
604 1 -1.1104 0.778526 -3.08248 23.5047
605 1 -1.1104 0.892727 2.63548 23.4227
608 1 -1.1104 0.906364 -3.04121 26.1736
609 1 -1.1104 0.954214 2.60409 26.2534
612 1 -1.1104 1.06248 -0.171978 23.5098
614 2 2.2208 5.05571 -1.72032 24.8073
616 1 -1.1104 0.915754 -0.314001 26.4073
618 1 -1.1104 3.63682 -3.16568 23.4388
619 1 -1.1104 3.74308 2.49872 23.5035
620 2 2.2208 2.29038 1.06134 24.9392
621 1 -1.1104 3.72591 -3.07915 26.3035
622 1 -1.1104 3.76782 2.60492 26.2682
623 2 2.2208 2.3829 -1.71855 22.0528
625 1 -1.1104 3.70103 -0.301713 23.4044
626 1 -1.1104 3.73548 -0.313275 26.3075
624 2 2.2208 2.27218 3.9893 22.1266
615 2 2.2208 5.11457 3.89257 24.8187
606 1 -1.1104 6.64989 -3.11736 23.5793
617 1 -1.1104 6.54347 -0.258938 26.2629
611 1 -1.1104 6.52991 2.62303 26.2644
610 1 -1.1104 6.56098 -3.02787 26.3131
601 2 2.2208 13.5478 15.1707 22.0509
659 1 -1.1104 12.2041 16.5309 23.3566
420 1 -1.1104 6.63071 -0.278848 20.6566
374 2 2.2208 13.556 15.2194 27.6592
747 1 -1.1104 9.38844 16.4008 26.04
581 1 -1.1104 12.0452 19.3596 20.5664
459 1 -1.1104 9.49114 -3.03495 20.5264
461 1 -1.1104 9.60898 2.50121 20.6742
441 2 2.2208 13.622 4.03028 22.0383
607 1 -1.1104 6.65458 2.46823 23.4525
613 1 -1.1104 6.58606 -0.206722 23.472
447 1 -1.1104 12.2096 -2.95301 20.7542
384 2 2.2208 8.02345 4.04287 27.628
449 1 -1.1104 12.4173 2.71044 20.5039
639 2 2.2208 10.8047 1.12241 22.1011
640 1 -1.1104 12.2382 -2.883 23.5316
641 1 -1.1104 12.2887 2.60676 23.4527
642 1 -1.1104 12.1411 -2.99055 26.1709
643 1 -1.1104 12.2361 2.55984 26.1731
644 1 -1.1104 12.1922 -0.19509 23.4749
645 2 2.2208 10.7247 -1.62244 24.9631
647 1 -1.1104 12.1793 -0.286249 26.2594
648 1 -1.1104 9.34692 -2.9511 23.4956
649 1 -1.1104 9.47802 2.47827 23.4457
650 2 2.2208 8.01232 1.11319 25.0013
651 1 -1.1104 9.35732 -3.15312 26.305
652 1 -1.1104 9.39324 2.7958 26.2683
653 2 2.2208 7.96475 -1.74625 22.0001
655 1 -1.1104 9.32321 -0.244052 23.6094
656 1 -1.1104 9.42232 -0.220142 26.2916
654 2 2.2208 7.92571 3.89102 22.1265
646 2 2.2208 10.7733 4.05537 24.8804
629 1 -1.1104 12.3266 13.7412 23.4511
667 2 2.2208 10.88 20.8715 24.8915
508 1 -1.1104 3.81453 11.0396 20.7347
506 1 -1.1104 3.74605 5.39294 20.7632
494 1 -1.1104 6.57083 5.47389 20.7032
501 1 -1.1104 3.79296 8.22354 20.768
496 1 -1.1104 6.55884 10.9281 20.7033
668 2 2.2208 5.21805 6.85223 22.0986
669 2 2.2208 5.22079 12.3637 22.1698
670 1 -1.1104 0.939497 8.29941 23.5126
672 1 -1.1104 0.882571 8.4552 26.3479
674 1 -1.1104 0.847324 5.36115 23.4759
675 1 -1.1104 1.07601 11.1024 23.366
678 2 2.2208 5.04969 9.5085 24.792
679 1 -1.1104 0.925285 5.53363 26.2895
680 1 -1.1104 1.03958 11.1159 26.1359
683 1 -1.1104 3.8285 8.06544 23.4463
684 2 2.2208 2.38967 6.708 24.7872
685 2 2.2208 2.36266 12.5155 24.8524
686 1 -1.1104 3.63839 8.05376 26.2656
687 2 2.2208 2.36202 9.63469 22.1584
688 1 -1.1104 3.74304 5.31532 23.5252
689 1 -1.1104 3.79999 10.8946 23.5285
690 1 -1.1104 3.69092 5.30584 26.2208
691 1 -1.1104 3.8214 10.9907 26.2748
673 1 -1.1104 6.54539 8.20453 26.1415
671 1 -1.1104 6.53422 8.1624 23.4584
676 1 -1.1104 6.47071 5.29981 23.4516
682 1 -1.1104 6.58555 10.8431 26.1769
677 1 -1.1104 6.57177 10.9275 23.4805
628 2 2.2208 10.8397 17.9665 21.958
719 2 2.2208 7.93572 15.1186 22.0577
483 1 -1.1104 6.55281 8.21913 20.7392
528 1 -1.1104 9.37164 8.2093 20.6341
535 1 -1.1104 9.26448 10.8834 20.6674
681 1 -1.1104 6.51277 5.41745 26.1022
521 1 -1.1104 12.0779 5.51647 20.6243
516 1 -1.1104 12.2195 8.15122 20.6552
533 1 -1.1104 9.27693 5.25312 20.609
722 2 2.2208 13.536 6.71109 24.8539
699 1 -1.1104 9.3841 10.9994 26.284
700 1 -1.1104 9.35852 5.51354 26.2649
701 1 -1.1104 9.26288 10.953 23.5646
702 1 -1.1104 9.2555 5.46709 23.4382
703 2 2.2208 7.8593 9.56283 22.068
704 1 -1.1104 9.46603 8.12436 26.3703
705 2 2.2208 7.92833 12.3165 24.9937
706 2 2.2208 7.9382 6.8197 24.7973
707 2 2.2208 10.6111 6.81968 22.0799
708 2 2.2208 10.691 12.3129 22.1027
709 1 -1.1104 12.2042 8.21074 23.3354
710 1 -1.1104 12.1706 8.13611 26.2464
711 1 -1.1104 12.1035 5.42434 23.5339
712 1 -1.1104 12.1256 11.0074 23.436
713 2 2.2208 10.7728 9.69488 24.7962
714 1 -1.1104 12.2906 5.25863 26.2479
715 1 -1.1104 12.3057 10.9639 26.3423
716 1 -1.1104 9.36881 8.13964 23.5628
717 1 -1.1104 9.4253 13.6489 26.3378
635 1 -1.1104 12.3279 19.3873 23.4255
545 1 -1.1104 0.916538 13.793 20.6999
547 1 -1.1104 0.830749 19.3854 20.7275
730 1 -1.1104 6.55063 19.3354 23.5088
564 1 -1.1104 3.71234 13.6122 20.7282
726 1 -1.1104 6.71836 16.6124 26.391
741 1 -1.1104 6.66614 16.4057 23.4221
745 2 2.2208 2.41965 15.145 21.9484
744 2 2.2208 2.44865 20.8193 22.0642
743 1 -1.1104 3.92986 16.5601 23.3793
742 1 -1.1104 1.17007 16.5485 23.5179
723 1 -1.1104 3.77614 19.3156 23.4617
725 1 -1.1104 3.82815 13.7211 23.4282
727 1 -1.1104 0.943683 19.3207 26.2829
728 1 -1.1104 0.905904 16.712 26.1866
729 1 -1.1104 0.878474 13.8911 26.4014
731 2 2.2208 5.25879 20.7049 24.8767
732 2 2.2208 5.23413 15.2924 24.9309
734 1 -1.1104 0.92968 19.4192 23.4504
735 1 -1.1104 0.999476 13.8456 23.5339
736 2 2.2208 5.25123 17.9264 22.0209
737 1 -1.1104 3.68881 19.4715 26.3107
738 2 2.2208 2.43292 18.0398 24.8278
739 1 -1.1104 3.8849 16.6693 26.2363
740 1 -1.1104 3.80754 13.9821 26.2382
698 1 -1.1104 6.49904 19.3459 26.2763
694 1 -1.1104 9.41515 19.357 23.4834
693 1 -1.1104 9.46194 13.6194 23.5182
591 1 -1.1104 9.31284 13.6958 20.6046
724 1 -1.1104 6.67142 13.9117 26.2328
695 2 2.2208 8.04559 17.9918 24.8663
602 2 2.2208 13.5581 18.0421 24.8233
389 2 2.2208 5.08166 12.3057 27.6872
349 2 2.2208 5.15567 3.99502 13.5992
355 2 2.2208 2.35178 6.86797 13.6564
661 2 2.2208 10.691 -4.47125 27.7108
348 2 2.2208 2.32926 1.16743 13.6354
347 2 2.2208 5.13829 -1.64825 13.6368
363 2 2.2208 2.38057 18.0422 13.461
394 2 2.2208 10.8587 12.3702 27.8195
397 2 2.2208 5.07101 18.066 27.6475
360 2 2.2208 10.7368 9.68329 13.6729
353 2 2.2208 10.6431 -1.66433 13.5993
385 2 2.2208 13.6165 -1.60505 27.6896
354 2 2.2208 10.8653 3.99643 13.7133
396 2 2.2208 2.43629 20.8223 27.6676
383 2 2.2208 7.95476 -1.62788 27.6391
387 2 2.2208 5.05718 6.57689 27.6474
378 2 2.2208 10.745 18.0541 27.6393
751 2 2.2208 5.07922 23.6063 5.28639
752 2 2.2208 5.1108 29.3697 5.13887
753 1 -1.1104 1.14399 24.9814 0.864222
754 1 -1.1104 0.85415 24.8902 3.83947
755 1 -1.1104 1.06612 22.2027 1.08319
756 1 -1.1104 1.08673 27.8753 1.15624
757 2 2.2208 5.12346 26.3545 2.58865
758 1 -1.1104 1.01338 22.0588 3.8863
759 1 -1.1104 0.869591 27.6226 3.76217
760 1 -1.1104 3.876 25.0157 1.1251
761 2 2.2208 2.39008 23.6086 2.43372
762 2 2.2208 2.46382 29.0478 2.47695
763 1 -1.1104 3.5985 24.9527 3.87095
764 2 2.2208 2.28119 26.3986 5.23988
765 1 -1.1104 3.8231 22.1858 1.01321
766 1 -1.1104 3.96194 27.6756 1.05509
767 1 -1.1104 3.73211 22.2663 3.93933
768 1 -1.1104 3.82364 27.7219 3.85504
773 1 -1.1104 6.43544 24.9679 3.96757
775 1 -1.1104 6.65264 27.7909 0.985375
776 1 -1.1104 6.55492 22.294 3.70572
777 1 -1.1104 6.53347 27.923 3.76753
896 1 -1.1104 6.59768 22.2164 6.59598
1129 2 2.2208 -0.377315 40.3503 -0.409108
894 1 -1.1104 0.863025 22.1439 6.71572
772 1 -1.1104 6.64452 24.9899 1.1277
897 1 -1.1104 6.43212 27.7163 6.62991
900 1 -1.1104 3.6751 27.7859 6.54651
898 1 -1.1104 3.66885 25.0284 6.66093
892 1 -1.1104 0.799787 25.0455 6.70143
893 1 -1.1104 6.53704 24.9768 6.71591
1661 1 -1.1104 6.56775 47.4148 12.1569
774 1 -1.1104 6.57931 22.1708 1.12216
1117 2 2.2208 2.42705 37.5939 -0.393049
778 2 2.2208 10.6669 23.6183 5.19398
779 2 2.2208 10.8199 29.1757 5.17874
780 1 -1.1104 12.3147 25.0508 0.875906
781 1 -1.1104 12.1697 24.9575 3.73527
782 1 -1.1104 12.1756 22.2421 1.12854
783 1 -1.1104 12.2448 27.8535 1.08231
784 2 2.2208 10.8303 26.4282 2.46657
785 1 -1.1104 12.1711 22.1724 3.7386
786 1 -1.1104 12.2787 27.786 3.77524
787 1 -1.1104 9.40815 25.087 1.03565
788 2 2.2208 7.99061 23.7687 2.46405
789 2 2.2208 8.0621 29.1404 2.32973
790 1 -1.1104 9.32762 24.9777 3.84825
791 2 2.2208 7.83855 26.4688 5.26585
792 1 -1.1104 9.31949 22.3037 0.964573
793 1 -1.1104 9.49743 27.777 1.00188
794 1 -1.1104 9.29114 22.1712 3.66859
795 1 -1.1104 9.3918 27.7869 3.70755
798 2 2.2208 13.5564 26.452 5.27845
797 2 2.2208 13.7418 29.3712 2.38557
796 2 2.2208 13.6871 23.6462 2.40131
1673 1 -1.1104 3.58256 47.4305 12.2336
927 1 -1.1104 12.0787 27.7536 6.70503
930 1 -1.1104 9.2919 27.7829 6.58943
926 1 -1.1104 12.172 22.0182 6.70837
929 1 -1.1104 9.57349 22.2106 6.50606
925 1 -1.1104 12.1629 24.9472 6.54525
1078 2 2.2208 13.6183 40.5981 8.06399
1051 1 -1.1104 9.38968 41.7466 12.1069
799 2 2.2208 5.13 34.9156 5.34551
800 1 -1.1104 1.02016 30.5841 1.20491
801 1 -1.1104 1.05218 36.1579 1.15304
803 1 -1.1104 1.09397 30.4968 4.01138
804 1 -1.1104 1.08257 36.4703 3.80806
806 1 -1.1104 1.1039 33.4517 1.04102
807 2 2.2208 5.29704 32.0063 2.55869
808 2 2.2208 5.21724 37.6075 2.46441
809 1 -1.1104 1.01297 33.3569 3.9001
811 1 -1.1104 3.82509 30.6052 1.01194
812 1 -1.1104 3.91606 36.21 1.11824
813 2 2.2208 2.42038 34.8811 2.5033
814 1 -1.1104 3.78111 30.7199 3.77873
815 1 -1.1104 3.73136 36.2777 3.98526
816 2 2.2208 2.45147 31.9825 5.30077
817 2 2.2208 2.39858 37.7237 5.32488
818 1 -1.1104 3.85149 33.4157 1.17332
819 1 -1.1104 3.91293 33.4704 3.96104
802 1 -1.1104 6.71538 36.1815 1.10649
823 1 -1.1104 6.72179 30.6673 1.20527
825 1 -1.1104 6.62425 33.3855 1.1104
810 1 -1.1104 6.66402 33.4937 3.99953
805 1 -1.1104 6.6349 36.3397 3.92283
824 1 -1.1104 6.79889 30.7 3.75428
956 1 -1.1104 3.7153 36.2309 6.82009
951 1 -1.1104 6.49391 30.5388 6.56367
950 1 -1.1104 1.01166 36.2201 6.5674
954 1 -1.1104 6.5201 33.3716 6.71859
949 1 -1.1104 0.969264 30.5118 6.66624
1054 2 2.2208 10.7975 43.3142 8.01719
1103 2 2.2208 10.8652 43.2266 13.567
1049 2 2.2208 7.85358 45.9637 7.99838
1664 1 -1.1104 6.37622 47.337 9.24502
826 2 2.2208 10.8369 34.6808 5.27454
827 1 -1.1104 12.2172 30.6429 1.12381
828 1 -1.1104 12.3836 36.289 1.01842
829 1 -1.1104 12.3068 30.7048 3.81958
830 1 -1.1104 12.2397 36.2937 3.83204
831 1 -1.1104 12.3147 33.437 1.10613
832 2 2.2208 10.7974 32.0567 2.51469
833 2 2.2208 10.9112 37.613 2.40288
834 1 -1.1104 12.2726 33.5095 3.91524
835 1 -1.1104 9.46424 30.7016 0.936431
836 1 -1.1104 9.56323 36.3277 0.909074
837 2 2.2208 8.03135 34.8299 2.5147
838 1 -1.1104 9.58583 30.6617 3.89807
839 1 -1.1104 9.59729 36.0548 3.79215
840 2 2.2208 8.04113 32.0656 5.26306
841 2 2.2208 8.05549 37.6366 5.29349
842 1 -1.1104 9.36035 33.5886 1.0747
843 1 -1.1104 9.48449 33.3412 3.85205
1116 2 2.2208 10.8207 29.1832 -0.400721
1065 2 2.2208 13.5321 32.047 5.33211