ITEM: TIMESTEP
40000
ITEM: NUMBER OF ATOMS
17730
ITEM: BOX BOUNDS pp pp pp
-3.6271569847013951e-01 2.7702715698469977e+01
-4.4193530153967799e+00 3.3249935301539227e+02
-3.7055841282460472e-01 2.7710558412824827e+01
ITEM: ATOMS id type q x y z
1 2 2.2208 5.19641 1.10834 5.04984
2 1 -1.1104 1.07331 -3.14193 0.856878
3 1 -1.1104 1.00048 2.36699 1.17471
6 1 -1.1104 0.92115 -3.24727 3.79009
7 1 -1.1104 1.02938 2.51703 3.84102
10 1 -1.1104 0.976921 -0.27194 0.916353
12 2 2.2208 5.25714 -1.76526 2.34786
13 2 2.2208 5.21634 3.87567 2.39803
14 1 -1.1104 0.83677 -0.340316 3.65391
16 1 -1.1104 3.87985 -3.13795 0.954305
17 1 -1.1104 3.80962 2.40768 0.955496
18 2 2.2208 2.42337 1.09812 2.4015
19 1 -1.1104 3.88097 -3.26257 3.67405
20 1 -1.1104 3.81673 2.46402 3.67812
21 2 2.2208 2.30223 -1.79349 5.09425
23 1 -1.1104 3.96454 -0.594761 0.886805
24 1 -1.1104 3.70936 -0.349296 3.66151
22 2 2.2208 2.37027 3.89483 5.21217
9 1 -1.1104 6.62961 2.49886 3.72476
5 1 -1.1104 6.64212 2.4287 0.978876
4 1 -1.1104 6.71442 -3.06245 0.96577
8 1 -1.1104 6.49526 -3.00882 3.81433
11 1 -1.1104 6.76055 -0.437243 1.04425
15 1 -1.1104 6.48164 -0.166918 3.88324
166 1 -1.1104 0.991538 -3.29398 6.51112
170 1 -1.1104 0.900818 -0.453324 6.63742
172 1 -1.1104 3.7559 -3.20583 6.49386
173 1 -1.1104 3.70885 2.4618 6.46798
230 2 2.2208 13.62 -1.75098 10.7995
31 2 2.2208 10.8704 1.05631 5.2549
32 1 -1.1104 12.2304 -3.25905 0.902721
33 1 -1.1104 12.1865 2.35537 0.915694
34 1 -1.1104 12.2784 -3.09919 3.59778
35 1 -1.1104 12.2553 2.35067 3.74452
36 1 -1.1104 12.3916 -0.45372 0.962248
37 2 2.2208 10.8217 -1.74943 2.35293
39 1 -1.1104 12.2614 -0.351979 3.78133
40 1 -1.1104 9.43964 -3.10808 0.949707
41 1 -1.1104 9.35258 2.48885 0.910148
42 2 2.2208 8.01988 1.05001 2.3629
43 1 -1.1104 9.51869 -3.1683 3.83944
44 1 -1.1104 9.36724 2.51438 3.6187
45 2 2.2208 7.93859 -1.70842 5.17058
47 1 -1.1104 9.55509 -0.293845 0.902076
48 1 -1.1104 9.44726 -0.390064 3.85251
46 2 2.2208 7.9285 3.85358 5.11866
38 2 2.2208 10.7812 3.7932 2.45692
337 2 2.2208 13.5304 15.0351 5.09566
334 2 2.2208 13.5749 3.76519 5.21266
210 1 -1.1104 9.3589 -0.413471 6.70434
206 1 -1.1104 12.1454 2.34541 6.63006
319 1 -1.1104 9.4123 13.533 9.35814
208 1 -1.1104 9.38942 -3.17942 6.46259
205 1 -1.1104 12.0889 -3.10836 6.54734
165 2 2.2208 13.6384 17.8036 2.36374
54 2 2.2208 5.10414 6.71161 5.20206
55 2 2.2208 5.09441 12.3552 5.15364
56 1 -1.1104 1.05437 8.05299 0.880424
58 1 -1.1104 0.993235 7.9659 3.97965
60 1 -1.1104 0.937261 5.1956 1.0066
61 1 -1.1104 1.11638 10.9138 0.928348
66 2 2.2208 5.22023 9.38257 2.32804
67 1 -1.1104 0.900781 5.29814 3.75038
68 1 -1.1104 0.881782 10.6752 3.77235
71 1 -1.1104 3.8261 7.93947 1.00384
72 2 2.2208 2.39866 6.63479 2.35043
73 2 2.2208 2.42435 12.253 2.43308
74 1 -1.1104 3.79285 8.10317 3.70615
75 2 2.2208 2.39246 9.44596 5.17777
76 1 -1.1104 3.77888 5.25687 0.886092
77 1 -1.1104 3.82358 10.8263 1.09619
79 1 -1.1104 3.695 5.27746 3.83489
80 1 -1.1104 3.67305 10.9472 3.90738
69 1 -1.1104 6.44261 5.29104 3.78945
63 1 -1.1104 6.56218 5.23668 1.0182
59 1 -1.1104 6.71244 8.03531 3.73498
64 1 -1.1104 6.52133 10.9483 0.886751
70 1 -1.1104 6.66769 10.8107 3.66431
57 1 -1.1104 6.5443 8.14336 0.858014
234 1 -1.1104 0.933965 8.08571 6.67795
78 1 -1.1104 3.5819 10.7401 6.71712
327 1 -1.1104 12.2213 19.3796 9.30499
236 1 -1.1104 0.920441 5.12683 6.6115
65 1 -1.1104 6.4467 10.8206 6.6042
238 1 -1.1104 3.75308 8.05556 6.56014
235 1 -1.1104 6.66499 8.09708 6.54695
335 2 2.2208 13.6317 9.43804 5.10917
84 2 2.2208 10.7395 6.77594 5.29381
85 2 2.2208 10.7668 12.2315 5.16369
86 1 -1.1104 12.1537 7.97331 0.778364
87 1 -1.1104 12.2158 8.02893 3.70627
88 1 -1.1104 12.2107 5.19741 0.968489
89 1 -1.1104 12.1746 10.799 0.978794
91 2 2.2208 10.6869 9.54467 2.27321
92 1 -1.1104 12.3066 5.20336 3.7661
93 1 -1.1104 12.1215 10.6948 3.84227
94 1 -1.1104 9.26208 8.05854 0.884654
95 2 2.2208 8.01148 6.62393 2.3484
96 2 2.2208 7.90462 12.2817 2.25697
97 1 -1.1104 9.44449 8.03718 3.7575
98 2 2.2208 8.07313 9.53087 5.13533
99 1 -1.1104 9.43888 5.26803 1.19909
100 1 -1.1104 9.39887 10.8793 0.918566
102 1 -1.1104 9.33886 5.11589 3.86478
103 1 -1.1104 9.35295 10.8528 3.58522
105 2 2.2208 13.5885 6.71389 2.35554
365 2 2.2208 5.09966 15.15 13.5424
266 1 -1.1104 12.0749 5.1586 6.40834
90 1 -1.1104 12.1909 10.8528 6.6016
267 1 -1.1104 9.44578 8.02542 6.73155
265 1 -1.1104 12.3156 8.14953 6.79965
331 2 2.2208 10.8615 17.8525 10.7155
106 2 2.2208 5.1627 17.8025 5.27289
107 1 -1.1104 1.0793 13.644 1.0747
109 1 -1.1104 1.10838 19.3482 0.88959
113 1 -1.1104 0.989405 13.4286 3.82739
114 1 -1.1104 1.01926 19.1136 3.69365
116 1 -1.1104 0.962698 16.4441 1.09396
119 2 2.2208 5.20422 15.0097 2.32038
120 2 2.2208 5.15875 20.6627 2.38455
121 1 -1.1104 0.99074 16.3041 3.81539
123 1 -1.1104 3.74503 13.5887 0.887467
125 1 -1.1104 3.79427 19.1899 0.879298
127 2 2.2208 2.52671 17.748 2.36272
128 1 -1.1104 3.88116 13.7576 3.85251
129 1 -1.1104 3.7424 19.1997 3.75317
130 2 2.2208 2.32219 14.9814 5.25507
131 2 2.2208 2.41199 20.5337 5.18568
132 1 -1.1104 3.85481 16.4065 1.09603
134 1 -1.1104 3.7485 16.3834 3.84416
139 1 -1.1104 6.54416 19.1541 3.78853
140 1 -1.1104 6.57643 16.3351 1.02135
110 1 -1.1104 6.54734 13.5553 1.08095
122 1 -1.1104 6.58422 16.3524 3.85203
111 1 -1.1104 6.70353 13.6019 6.62448
138 1 -1.1104 6.64706 19.0929 1.05493
115 1 -1.1104 6.63759 13.5748 3.74983
126 1 -1.1104 3.86826 19.2319 6.56801
124 1 -1.1104 3.88666 13.6535 6.53354
118 1 -1.1104 6.36271 16.3041 6.58462
112 1 -1.1104 6.49779 19.2765 6.62042
154 1 -1.1104 9.51581 13.6023 6.68555
336 2 2.2208 13.6039 20.7042 5.12917
50 2 2.2208 13.5979 -1.75787 5.15536
141 2 2.2208 10.8087 17.7949 5.07956
142 1 -1.1104 12.2017 13.6558 0.976865
144 1 -1.1104 12.2279 19.1475 0.899716
146 1 -1.1104 12.2704 13.5394 3.71284
147 1 -1.1104 12.1573 19.1844 3.92354
148 1 -1.1104 12.2098 16.2935 0.90593
150 2 2.2208 10.9274 15.0022 2.29768
151 2 2.2208 10.8981 20.6144 2.30895
152 1 -1.1104 12.2503 16.3444 3.77948
153 1 -1.1104 9.42439 13.6793 0.920803
155 1 -1.1104 9.53961 19.4509 0.824248
157 2 2.2208 7.96289 17.6321 2.50962
158 1 -1.1104 9.35701 13.7534 3.74473
159 1 -1.1104 9.25028 19.1861 3.70511
160 2 2.2208 8.02129 14.998 5.25845
161 2 2.2208 7.99225 20.6328 5.13236
162 1 -1.1104 9.48825 16.4495 0.893466
164 1 -1.1104 9.48703 16.4196 3.83082
356 2 2.2208 5.25375 9.3114 13.6439
143 1 -1.1104 12.0613 13.5546 6.62253
163 1 -1.1104 9.46918 16.39 6.3703
145 1 -1.1104 12.1776 19.2964 6.64846
174 1 -1.1104 3.87369 -0.294389 6.40857
171 1 -1.1104 6.4949 -0.365478 6.61557
169 1 -1.1104 6.45846 2.39261 6.57328
167 1 -1.1104 0.890156 2.30173 6.74042
175 2 2.2208 5.14097 0.990883 10.7107
176 1 -1.1104 1.04638 -3.27627 12.122
177 1 -1.1104 1.16356 2.32805 12.1963
180 1 -1.1104 1.05594 -3.20925 9.34707
181 1 -1.1104 0.944493 2.46873 9.34607
184 1 -1.1104 1.08525 -0.48589 12.1442
186 2 2.2208 5.18385 -1.77631 8.02736
187 2 2.2208 5.15119 3.84195 7.98121
188 1 -1.1104 1.03408 -0.450739 9.38585
190 1 -1.1104 3.76097 -3.11378 12.0262
191 1 -1.1104 3.89144 2.42329 12.1501
192 2 2.2208 2.44202 1.01602 7.94711
193 1 -1.1104 3.77146 -3.21402 9.30336
194 1 -1.1104 3.87034 2.43855 9.29625
195 2 2.2208 2.47626 -1.7381 10.7431
196 2 2.2208 2.39462 3.67834 10.7707
197 1 -1.1104 3.78165 -0.265803 12.1718
198 1 -1.1104 3.81586 -0.294391 9.36389
183 1 -1.1104 6.60257 2.43984 9.41383
185 1 -1.1104 6.65848 -0.380283 12.1735
182 1 -1.1104 6.56001 -3.16262 9.53748
189 1 -1.1104 6.53582 -0.378232 9.37839
179 1 -1.1104 6.68365 2.55416 12.189
168 1 -1.1104 6.58489 -3.31077 6.74864
178 1 -1.1104 6.43864 -3.22304 12.2086
332 2 2.2208 13.5648 17.8221 7.98817
338 2 2.2208 13.5786 3.76332 10.9201
229 2 2.2208 13.5516 1.06688 8.046
345 2 2.2208 13.5289 20.725 10.7769
209 1 -1.1104 9.2627 2.46121 6.66929
207 1 -1.1104 12.2119 -0.339312 6.48746
211 2 2.2208 10.82 0.943193 10.8001
212 1 -1.1104 12.0596 -3.22835 12.176
213 1 -1.1104 12.2418 2.40469 12.262
214 1 -1.1104 12.2399 -3.24949 9.30128
215 1 -1.1104 12.1828 2.47052 9.44977
216 1 -1.1104 12.2054 -0.384351 12.1434
217 2 2.2208 10.6991 -1.80886 7.95758
218 2 2.2208 10.8188 3.87926 7.98741
219 1 -1.1104 12.2202 -0.411135 9.332
220 1 -1.1104 9.31891 -3.31168 12.254
221 1 -1.1104 9.50629 2.33595 12.2308
222 2 2.2208 7.93224 1.04347 8.00033
223 1 -1.1104 9.3781 -3.12266 9.32334
224 1 -1.1104 9.2334 2.43114 9.4804
225 2 2.2208 8.0332 -1.89105 10.8829
226 2 2.2208 8.03255 3.91901 10.7554
227 1 -1.1104 9.49051 -0.37043 12.2495
228 1 -1.1104 9.4043 -0.419259 9.54811
347 2 2.2208 5.23359 -1.7501 13.5283
62 1 -1.1104 0.807561 10.8979 6.61657
330 1 -1.1104 12.2224 13.6255 12.1344
237 1 -1.1104 6.35571 5.21834 6.47938
239 1 -1.1104 3.60963 5.24022 6.66686
240 2 2.2208 5.21905 6.71319 10.7775
241 2 2.2208 5.11362 12.3493 10.7797
242 1 -1.1104 0.878538 8.01733 12.3381
244 1 -1.1104 0.832729 7.94619 9.60356
246 1 -1.1104 0.903163 5.14425 12.2224
247 1 -1.1104 0.80923 10.8672 12.2188
250 2 2.2208 5.10955 9.4995 8.0767
251 1 -1.1104 0.906743 5.16375 9.44004
252 1 -1.1104 0.833403 10.7256 9.42687
255 1 -1.1104 3.78002 8.08311 12.0643
256 2 2.2208 2.23227 6.6907 8.12592
257 2 2.2208 2.36558 12.243 7.99209
258 1 -1.1104 3.68649 7.96921 9.32219
259 2 2.2208 2.23616 9.42521 10.9251
260 1 -1.1104 3.70277 5.13522 12.3614
261 1 -1.1104 3.6449 10.9476 12.2259
262 1 -1.1104 3.80475 5.15323 9.43534
263 1 -1.1104 3.60491 10.8712 9.45785
254 1 -1.1104 6.54841 10.8977 9.57881
248 1 -1.1104 6.62465 5.27608 12.1052
249 1 -1.1104 6.34158 10.9898 12.3358
253 1 -1.1104 6.58317 5.30781 9.39932
245 1 -1.1104 6.61762 8.25033 9.39178
243 1 -1.1104 6.61809 8.089 12.1861
136 2 2.2208 -0.325803 20.5595 2.42266
269 1 -1.1104 9.18603 5.29005 6.73551
101 1 -1.1104 9.38073 10.7683 6.45658
314 1 -1.1104 9.42928 16.4223 9.27219
353 2 2.2208 10.7914 -1.78799 13.5947
339 2 2.2208 13.6527 6.70937 8.0071
364 2 2.2208 5.20077 20.7631 13.576
280 1 -1.1104 12.1986 5.11147 12.2875
279 1 -1.1104 12.3253 8.0297 9.5513
278 1 -1.1104 12.2534 7.96041 12.2451
277 2 2.2208 10.8119 12.2346 10.8512
276 2 2.2208 10.8266 6.66328 10.7643
284 1 -1.1104 12.1481 10.8884 9.44945
275 2 2.2208 7.91014 6.66528 7.993
283 1 -1.1104 12.2137 5.29437 9.30314
281 1 -1.1104 12.1948 10.8206 12.0465
285 1 -1.1104 9.43717 8.06127 12.1884
282 2 2.2208 10.7985 9.51513 8.0914
264 1 -1.1104 9.37923 10.7626 9.3245
268 1 -1.1104 9.3209 5.32764 9.38902
270 1 -1.1104 9.23379 10.9139 12.1418
271 1 -1.1104 9.42312 5.10751 12.1893
272 2 2.2208 7.96468 9.40187 10.8726
273 1 -1.1104 9.39206 7.98815 9.54239
274 2 2.2208 7.95803 12.19 8.10278
323 1 -1.1104 12.2103 16.4117 9.36779
324 2 2.2208 10.7659 20.7349 7.9591
325 2 2.2208 10.8411 15.1382 7.99517
317 2 2.2208 8.06129 15.0278 10.7243
108 1 -1.1104 0.895245 13.6197 6.50486
302 1 -1.1104 1.01388 19.2007 6.50017
133 1 -1.1104 3.60058 16.3878 6.7515
117 1 -1.1104 0.934568 16.3006 6.63912
297 1 -1.1104 6.5758 13.7312 12.2604
310 2 2.2208 2.27694 15.0638 10.8612
309 2 2.2208 2.30599 20.7985 10.7432
308 1 -1.1104 3.73902 16.4451 12.1526
307 1 -1.1104 1.01903 16.5203 12.352
291 1 -1.1104 1.03544 19.3473 9.28963
286 1 -1.1104 3.77971 19.4284 12.0707
305 1 -1.1104 3.59326 13.5979 9.46967
304 1 -1.1104 3.91908 16.5585 9.44495
292 1 -1.1104 0.965021 16.5362 9.55669
303 2 2.2208 2.28556 17.8661 8.07742
301 1 -1.1104 3.70018 19.3758 9.33966
300 2 2.2208 5.18161 18.0125 10.7227
293 2 2.2208 5.20987 20.6633 8.08829
299 1 -1.1104 0.867177 13.6209 12.1674
298 1 -1.1104 0.978544 19.2419 12.1522
287 1 -1.1104 3.71098 13.6839 12.2436
295 2 2.2208 5.10963 14.9818 8.08914
294 1 -1.1104 0.84497 13.5847 9.21185
290 1 -1.1104 6.59299 13.5733 9.45426
288 1 -1.1104 6.62225 19.326 9.21135
296 1 -1.1104 6.61013 19.3228 12.1526
289 1 -1.1104 6.685 16.4758 9.39263
306 1 -1.1104 6.64532 16.5721 12.1432
357 2 2.2208 2.44117 12.3081 13.5954
321 1 -1.1104 9.4979 19.133 12.2946
329 1 -1.1104 12.2557 19.2415 12.0346
328 1 -1.1104 12.1693 13.6029 9.39604
322 1 -1.1104 9.3581 13.559 12.1719
149 1 -1.1104 12.1533 16.553 6.43926
156 1 -1.1104 9.2045 19.1518 6.61878
318 1 -1.1104 9.34856 19.1101 9.55534
315 1 -1.1104 9.47879 16.2664 12.1115
320 2 2.2208 7.99726 17.8028 7.98076
333 2 2.2208 13.6438 15.0525 10.7978
354 2 2.2208 10.7989 3.67091 13.4625
340 2 2.2208 13.5696 12.2749 7.93943
326 1 -1.1104 12.2938 16.5126 12.1967
316 2 2.2208 8.081 20.6977 10.8918
104 2 2.2208 13.5815 12.2196 2.32994
137 2 2.2208 -0.275801 17.8777 5.16362
346 2 2.2208 -0.330904 -1.80568 13.5636
135 2 2.2208 -0.341608 15.0234 2.31954
370 2 2.2208 13.5616 0.979778 13.5937
369 2 2.2208 10.945 15.149 13.5848
352 2 2.2208 7.95084 1.00814 13.6245
371 2 2.2208 8.01432 17.8001 13.562
368 2 2.2208 10.8307 20.6662 13.5959
377 2 2.2208 8.03946 15.0775 -0.307819
363 2 2.2208 2.4651 17.9774 13.463
349 2 2.2208 5.26287 3.84447 13.5071
361 2 2.2208 7.88277 12.2128 13.5649
366 2 2.2208 13.6196 6.66634 13.684
359 2 2.2208 8.11385 6.62895 13.6541
372 2 2.2208 13.5802 17.9724 13.5215
400 2 2.2208 5.12582 0.980876 16.3764
401 1 -1.1104 1.08874 -3.07683 17.9011
402 1 -1.1104 1.10658 2.45628 17.883
405 1 -1.1104 1.02844 -3.22895 15.0045
407 1 -1.1104 0.867029 2.53069 15.0712
413 1 -1.1104 0.974671 -0.30797 17.6362
415 2 2.2208 5.18496 -1.71461 19.2431
416 2 2.2208 5.21302 3.88888 19.212
417 1 -1.1104 0.960437 -0.347379 14.875
421 1 -1.1104 3.82474 -3.08405 17.7368
422 1 -1.1104 3.85627 2.47268 17.7515
423 2 2.2208 2.32972 0.94764 19.1917
424 1 -1.1104 3.8169 -3.24122 14.8482
426 1 -1.1104 3.624 2.40366 14.9713
428 2 2.2208 2.36237 -1.71329 16.3552
429 2 2.2208 2.3303 3.92987 16.4339
430 1 -1.1104 3.73708 -0.306919 17.9067
431 1 -1.1104 3.65793 -0.370049 15.0765
411 1 -1.1104 6.42727 2.48475 15.0108
403 1 -1.1104 6.59606 -3.1328 17.7837
409 1 -1.1104 6.59809 -3.14419 14.8985
404 1 -1.1104 6.67539 2.36574 17.8164
412 1 -1.1104 6.65947 2.58127 20.6797
419 1 -1.1104 6.47543 -0.396333 15.0321
406 1 -1.1104 1.05136 -3.19938 20.7499
425 1 -1.1104 3.77793 -3.17271 20.6259
420 1 -1.1104 6.56866 -0.252759 20.6667
750 2 2.2208 -0.36234 20.6106 24.9068
471 2 2.2208 13.5679 -1.71164 16.3969
414 1 -1.1104 6.54774 -0.329981 17.7412
443 2 2.2208 10.8288 1.03911 16.4573
444 1 -1.1104 12.2178 -3.14294 17.8116
445 1 -1.1104 12.314 2.518 17.7119
446 1 -1.1104 12.0451 -3.1299 14.9433
448 1 -1.1104 12.3164 2.31141 15.0121
450 1 -1.1104 12.2647 -0.286985 17.8055
451 2 2.2208 10.9396 -1.71471 19.2469
452 2 2.2208 10.8095 3.95911 19.2296
453 1 -1.1104 12.1508 -0.380575 14.9345
455 1 -1.1104 9.41386 -3.1482 17.6178
456 1 -1.1104 9.47718 2.38022 17.7785
457 2 2.2208 8.13927 1.1347 19.228
458 1 -1.1104 9.221 -3.06821 14.8237
460 1 -1.1104 9.40945 2.45186 15.1183
462 2 2.2208 7.93093 -1.66921 16.5478
464 1 -1.1104 9.30939 -0.427755 17.8903
465 1 -1.1104 9.39316 -0.186001 15.008
463 2 2.2208 7.88262 3.79054 16.3854
388 2 2.2208 2.36352 9.42073 27.7084
385 2 2.2208 13.6228 -1.74189 27.5877
599 2 2.2208 13.6499 1.10344 19.1792
466 1 -1.1104 9.40187 -0.319078 20.6791
459 1 -1.1104 9.4106 -3.21892 20.434
695 2 2.2208 8.00076 17.8967 24.7921
658 1 -1.1104 12.2761 19.2496 26.1073
657 1 -1.1104 12.1778 13.7498 26.3881
476 2 2.2208 5.29811 6.68065 16.4155
477 2 2.2208 5.25206 12.2419 16.344
478 1 -1.1104 1.05651 8.19932 17.8238
480 1 -1.1104 0.996836 8.08208 15.0763
484 1 -1.1104 0.968604 5.30367 17.7291
485 1 -1.1104 1.02895 10.9738 17.8339
488 2 2.2208 5.21551 9.44491 19.1268
489 1 -1.1104 1.07213 5.34694 15.1274
491 1 -1.1104 1.04839 10.8815 14.896
497 1 -1.1104 3.90583 8.18365 17.7181
498 2 2.2208 2.47301 6.69918 19.0772
499 2 2.2208 2.52981 12.406 19.2427
500 1 -1.1104 3.88782 7.87301 14.8371
502 2 2.2208 2.42515 9.56073 16.3665
503 1 -1.1104 3.79499 5.31042 17.81
504 1 -1.1104 3.77452 10.823 17.7589
505 1 -1.1104 3.82351 5.21798 15.284
507 1 -1.1104 3.86722 10.8591 15.0588
487 1 -1.1104 6.57004 10.9064 17.865
495 1 -1.1104 6.71629 10.7537 15.0684
479 1 -1.1104 6.78615 8.03097 17.8485
482 1 -1.1104 6.64614 8.0255 15.0522
493 1 -1.1104 6.65824 5.24252 14.829
486 1 -1.1104 6.66844 5.20081 17.7891
496 1 -1.1104 6.59929 10.776 20.5614
492 1 -1.1104 0.928986 10.9303 20.8171
481 1 -1.1104 1.1521 8.21696 20.6512
494 1 -1.1104 6.72861 5.47242 20.6836
508 1 -1.1104 3.7026 11.0432 20.6348
506 1 -1.1104 3.86001 5.20892 20.619
501 1 -1.1104 3.85768 8.08624 20.6112
664 2 2.2208 10.8518 15.1202 24.8792
379 2 2.2208 8.04981 20.6495 27.6535
538 2 2.2208 13.7147 12.2256 19.1549
437 2 2.2208 -0.393854 -1.84063 19.2045
512 2 2.2208 10.8933 6.61419 16.411
513 2 2.2208 10.7914 12.2798 16.4783
514 1 -1.1104 12.2157 7.95544 17.8654
515 1 -1.1104 12.2984 8.13147 15.0647
517 1 -1.1104 12.1979 5.18195 17.7845
518 1 -1.1104 12.2367 10.7212 17.9641
519 2 2.2208 10.8062 9.60369 19.261
520 1 -1.1104 12.3707 5.20015 14.9394
522 1 -1.1104 12.3629 10.9551 15.0057
524 1 -1.1104 9.36843 8.01586 17.707
525 2 2.2208 8.0178 6.6847 19.3211
526 2 2.2208 7.9746 12.3982 19.2363
527 1 -1.1104 9.49731 7.97137 14.9984
529 2 2.2208 8.11227 9.4875 16.4955
530 1 -1.1104 9.33508 5.15061 17.7965
531 1 -1.1104 9.36984 10.8044 17.8583
532 1 -1.1104 9.46112 5.0678 14.9998
534 1 -1.1104 9.38049 10.9474 15.1504
521 1 -1.1104 12.1922 5.21972 20.4631
523 1 -1.1104 12.1603 10.9075 20.7119
693 1 -1.1104 9.38702 13.5688 23.3751
720 2 2.2208 13.607 12.3157 24.926
539 2 2.2208 5.21004 17.8273 16.3666
540 1 -1.1104 1.0481 13.6879 17.7595
541 1 -1.1104 1.1767 19.341 17.8377
544 1 -1.1104 0.883769 13.6223 14.7964
546 1 -1.1104 1.10277 19.2941 14.9799
552 1 -1.1104 1.0443 16.4847 17.8459
554 2 2.2208 5.2308 15.0385 19.3471
555 2 2.2208 5.20803 20.5543 19.2256
556 1 -1.1104 0.949349 16.5123 15.0845
560 1 -1.1104 3.93548 13.5885 17.8613
561 1 -1.1104 3.83456 19.2636 17.8507
562 2 2.2208 2.42123 17.8563 19.2056
563 1 -1.1104 3.75409 13.7335 15.0675
565 1 -1.1104 3.97364 19.3922 14.899
567 2 2.2208 2.34944 15.1133 16.4447
568 2 2.2208 2.51552 20.654 16.4752
569 1 -1.1104 3.69904 16.4652 17.7973
570 1 -1.1104 3.68692 16.5877 14.9562
542 1 -1.1104 6.67623 13.76 17.7503
558 1 -1.1104 6.56785 16.4727 14.9832
548 1 -1.1104 6.5371 13.6721 14.9703
543 1 -1.1104 6.58538 19.2837 17.8277
553 1 -1.1104 6.44534 16.4207 17.7729
550 1 -1.1104 6.61528 19.4101 14.905
547 1 -1.1104 0.86096 19.248 20.6028
549 1 -1.1104 6.55625 13.6085 20.6105
557 1 -1.1104 0.982544 16.5892 20.5671
566 1 -1.1104 3.78341 19.142 20.5884
719 2 2.2208 8.06202 15.1303 22.0167
601 2 2.2208 13.6038 15.0589 22.0376
581 1 -1.1104 12.1844 19.2708 20.5689
510 2 2.2208 13.7002 14.9766 16.4671
475 2 2.2208 13.5653 20.732 16.4975
575 2 2.2208 10.8299 17.9618 16.3575
576 1 -1.1104 12.1639 13.6248 17.7393
577 1 -1.1104 12.0894 19.2971 17.6655
578 1 -1.1104 12.3512 13.6727 15.0357
580 1 -1.1104 12.136 19.2552 14.9413
582 1 -1.1104 12.0183 16.4624 17.7534
583 2 2.2208 10.7933 15.0587 19.2949
584 2 2.2208 10.7738 20.7094 19.1389
585 1 -1.1104 12.2258 16.5162 14.9234
587 1 -1.1104 9.44696 13.712 17.7915
588 1 -1.1104 9.39985 19.3385 17.8149
589 2 2.2208 8.0094 17.8551 19.2455
590 1 -1.1104 9.38736 13.7701 14.9758
592 1 -1.1104 9.40358 19.2763 15.064
594 2 2.2208 7.92563 15.0894 16.2988
595 2 2.2208 8.04372 20.5923 16.3664
596 1 -1.1104 9.22584 16.5444 17.7737
597 1 -1.1104 9.3961 16.5585 15.0858
573 2 2.2208 13.6785 9.39435 16.635
579 1 -1.1104 12.1842 13.7502 20.704
598 1 -1.1104 9.53527 16.4463 20.7577
593 1 -1.1104 9.36645 19.2594 20.5741
747 1 -1.1104 9.34572 16.5151 26.2545
410 1 -1.1104 6.58872 -3.05798 20.6426
408 1 -1.1104 0.906513 2.56914 20.6684
394 2 2.2208 10.8851 12.191 27.5978
418 1 -1.1104 1.04814 -0.2579 20.5913
432 1 -1.1104 3.84365 -0.433813 20.6415
427 1 -1.1104 3.80754 2.36534 20.6458
603 2 2.2208 5.14758 1.21192 22.0528
604 1 -1.1104 0.913777 -3.07849 23.5472
605 1 -1.1104 1.01568 2.41488 23.4209
608 1 -1.1104 0.981137 -3.03229 26.1774
609 1 -1.1104 1.10675 2.6632 26.247
612 1 -1.1104 1.12036 -0.372336 23.5559
614 2 2.2208 5.24402 -1.75924 24.9238
616 1 -1.1104 0.864195 -0.17392 26.3492
618 1 -1.1104 3.75612 -3.17124 23.4408
619 1 -1.1104 3.80367 2.65444 23.4596
620 2 2.2208 2.44401 1.09547 24.848
621 1 -1.1104 3.89889 -3.2048 26.2157
622 1 -1.1104 3.93396 2.61264 26.3023
623 2 2.2208 2.5014 -1.81998 22.03
625 1 -1.1104 4.01648 -0.189079 23.5661
626 1 -1.1104 3.65261 -0.137204 26.3376
624 2 2.2208 2.37058 3.92834 21.9731
613 1 -1.1104 6.74111 -0.2574 23.5339
607 1 -1.1104 6.65079 2.40455 23.4846
611 1 -1.1104 6.7449 2.33645 26.2699
615 2 2.2208 5.29647 3.87552 24.9189
606 1 -1.1104 6.53164 -2.98481 23.505
610 1 -1.1104 6.82746 -3.15253 26.2109
722 2 2.2208 13.5882 6.64971 24.7009
392 2 2.2208 10.8386 6.54926 27.5613
449 1 -1.1104 12.3126 2.47315 20.6672
447 1 -1.1104 12.0993 -3.10015 20.5667
617 1 -1.1104 6.5238 -0.423584 26.2725
717 1 -1.1104 9.40609 13.6578 26.1961
382 2 2.2208 10.8265 0.966737 27.6374
454 1 -1.1104 12.1025 -0.249733 20.62
461 1 -1.1104 9.36771 2.3902 20.7336
639 2 2.2208 10.8739 1.09719 22.0445
640 1 -1.1104 12.2106 -3.05665 23.3698
641 1 -1.1104 12.3443 2.54327 23.4634
642 1 -1.1104 12.2624 -3.16337 26.1304
643 1 -1.1104 12.2212 2.40583 26.1448
644 1 -1.1104 12.4163 -0.219735 23.492
645 2 2.2208 10.8569 -1.79459 24.8246
647 1 -1.1104 12.2965 -0.342002 26.304
648 1 -1.1104 9.30687 -3.0157 23.2906
649 1 -1.1104 9.5244 2.47027 23.3934
650 2 2.2208 8.11514 1.04218 24.8059
651 1 -1.1104 9.57958 -3.20222 26.0647
652 1 -1.1104 9.52437 2.31934 26.2291
653 2 2.2208 7.96231 -1.5758 21.968
655 1 -1.1104 9.69806 -0.311737 23.415
656 1 -1.1104 9.47971 -0.396009 26.2148
654 2 2.2208 7.96388 3.89815 22.0638
646 2 2.2208 10.9045 3.82339 24.7209
374 2 2.2208 13.6331 15.0588 27.5948
441 2 2.2208 13.6001 3.89184 21.9644
393 2 2.2208 7.94109 9.51893 27.683
375 2 2.2208 13.6082 20.5766 27.5192
659 1 -1.1104 12.2295 16.4668 23.3085
483 1 -1.1104 6.6379 8.22269 20.5825
490 1 -1.1104 1.11039 5.37766 20.4517
668 2 2.2208 5.13652 6.65259 21.9744
669 2 2.2208 5.27471 12.2281 22.0127
670 1 -1.1104 0.951992 8.26731 23.5309
672 1 -1.1104 1.00735 8.03783 26.21
674 1 -1.1104 1.04516 5.33479 23.3137
675 1 -1.1104 0.998235 11.1448 23.4231
678 2 2.2208 5.15834 9.41236 24.828
679 1 -1.1104 1.01475 5.5231 26.265
680 1 -1.1104 1.08959 10.6884 26.2942
683 1 -1.1104 3.7355 8.22056 23.3962
684 2 2.2208 2.34914 6.79786 24.8087
685 2 2.2208 2.47896 12.4043 24.8779
686 1 -1.1104 3.77673 8.08907 26.2403
687 2 2.2208 2.37593 9.7095 22.0917
688 1 -1.1104 3.75025 5.26259 23.2463
689 1 -1.1104 3.71911 11.037 23.3831
690 1 -1.1104 3.85091 5.25672 26.0407
691 1 -1.1104 3.89178 10.8825 26.2151
677 1 -1.1104 6.55563 10.9854 23.4146
676 1 -1.1104 6.62144 5.24446 23.4062
681 1 -1.1104 6.65482 5.14594 26.1188
682 1 -1.1104 6.57781 10.7478 26.1344
673 1 -1.1104 6.54737 8.02446 26.2015
671 1 -1.1104 6.5959 8.14191 23.3769
629 1 -1.1104 12.1779 13.7221 23.5394
528 1 -1.1104 9.39526 8.20436 20.5558
533 1 -1.1104 9.45834 5.15022 20.7336
718 1 -1.1104 9.60682 19.4285 26.195
627 2 2.2208 13.6257 20.6868 21.992
516 1 -1.1104 12.151 8.06066 20.5531
384 2 2.2208 8.0976 3.80914 27.598
397 2 2.2208 5.24583 17.9149 27.6907
535 1 -1.1104 9.53475 11.0802 20.5526
591 1 -1.1104 9.30131 13.7067 20.6966
699 1 -1.1104 9.39462 10.7764 26.3289
700 1 -1.1104 9.52845 5.11916 26.4189
701 1 -1.1104 9.29284 10.7304 23.4941
702 1 -1.1104 9.3791 5.27475 23.4639
703 2 2.2208 7.91441 9.51307 22.0047
704 1 -1.1104 9.281 8.12645 26.1124
705 2 2.2208 8.1059 12.3124 24.8534
706 2 2.2208 7.92875 6.67116 24.7722
707 2 2.2208 10.773 6.51666 22.0011
708 2 2.2208 10.8345 12.2325 22.1794
709 1 -1.1104 12.3337 8.02009 23.2983
710 1 -1.1104 12.2312 7.98941 26.1105
711 1 -1.1104 12.1297 5.32616 23.2666
712 1 -1.1104 12.1117 10.8488 23.474
713 2 2.2208 10.7821 9.38018 24.7873
714 1 -1.1104 12.1395 5.18436 26.158
715 1 -1.1104 12.2017 10.8909 26.2965
716 1 -1.1104 9.46586 7.98962 23.3078
746 1 -1.1104 9.42677 16.4713 23.5605
586 1 -1.1104 12.256 16.4633 20.6592
564 1 -1.1104 3.83108 13.7343 20.6107
545 1 -1.1104 1.04265 13.7647 20.6243
551 1 -1.1104 6.65631 19.2022 20.736
571 1 -1.1104 3.74354 16.4238 20.6739
698 1 -1.1104 6.74351 19.2868 26.2587
559 1 -1.1104 6.69074 16.425 20.4871
723 1 -1.1104 3.61725 19.2242 23.4009
725 1 -1.1104 3.92745 13.8783 23.4761
727 1 -1.1104 1.03652 19.2899 26.166
728 1 -1.1104 1.09255 16.4075 26.3378
729 1 -1.1104 0.989628 13.5269 26.2985
731 2 2.2208 5.26257 20.6647 24.9153
732 2 2.2208 5.40704 14.9781 25.0158
734 1 -1.1104 1.05329 19.3583 23.4955
735 1 -1.1104 1.11299 13.7977 23.5504
736 2 2.2208 5.16344 17.8674 22.1037
737 1 -1.1104 3.88186 19.1377 26.2664
738 2 2.2208 2.51171 17.8623 24.843
739 1 -1.1104 4.00272 16.4432 26.4094
740 1 -1.1104 3.84483 13.728 26.1399
742 1 -1.1104 1.09916 16.5039 23.5092
743 1 -1.1104 3.97163 16.4422 23.5771
744 2 2.2208 2.39319 20.6097 21.9474
745 2 2.2208 2.50674 15.1676 22.1258
730 1 -1.1104 6.51858 19.3321 23.4719
726 1 -1.1104 6.61348 16.4079 26.424
733 1 -1.1104 6.64938 13.7569 23.5092
724 1 -1.1104 6.68893 13.6709 26.2735
741 1 -1.1104 6.63372 16.5288 23.5015
395 2 2.2208 13.5675 9.41806 27.5598
440 2 2.2208 13.6213 9.41758 21.9413
692 1 -1.1104 12.2311 16.5111 26.0797
694 1 -1.1104 9.46751 19.3134 23.4647
635 1 -1.1104 12.2692 19.1893 23.3478
721 2 2.2208 7.91286 20.7968 22.0346
628 2 2.2208 10.8265 17.9626 22.0156
667 2 2.2208 10.8757 20.7388 24.7971
373 2 2.2208 5.27435 0.99371 27.6681
378 2 2.2208 10.895 17.8565 27.6067
572 2 2.2208 13.5642 6.5715 19.2251
380 2 2.2208 2.42466 3.81804 27.6647
509 2 2.2208 13.5062 17.9273 19.1784
386 2 2.2208 13.56 3.75532 27.6053
442 2 2.2208 -0.371113 17.8888 16.4284
536 2 2.2208 -0.259318 9.61604 19.317
636 2 2.2208 -0.320041 -1.76443 24.8708
574 2 2.2208 -0.296795 3.97411 19.2553
389 2 2.2208 5.18172 12.2128 27.5396
399 2 2.2208 -0.331897 17.8635 27.6744
396 2 2.2208 2.47605 20.6652 27.5106
355 2 2.2208 2.28146 6.55765 13.6971
360 2 2.2208 10.9017 9.5172 13.6615
348 2 2.2208 2.34771 1.01036 13.6985
376 2 2.2208 2.44205 -1.69708 27.5224
383 2 2.2208 8.07909 -1.80819 27.5374
398 2 2.2208 2.46889 15.1358 27.6143
387 2 2.2208 5.24373 6.67208 27.5568
751 2 2.2208 5.22773 23.4031 5.20261
752 2 2.2208 5.20669 29.0521 5.28234
753 1 -1.1104 1.03315 25.0416 1.13492
754 1 -1.1104 1.01009 24.6046 3.86648
755 1 -1.1104 1.0257 22.0923 0.949653
756 1 -1.1104 0.812927 27.7694 1.18927
757 2 2.2208 5.20436 26.3524 2.38295
758 1 -1.1104 1.07475 21.8517 3.80324
759 1 -1.1104 0.921679 27.7702 3.97367
760 1 -1.1104 3.84679 24.8495 0.905884
761 2 2.2208 2.41814 23.4843 2.35317
762 2 2.2208 2.38333 29.0211 2.48033
763 1 -1.1104 3.87304 24.9333 3.71578
764 2 2.2208 2.46084 26.2095 5.24268
765 1 -1.1104 3.84136 22.0163 0.850375
766 1 -1.1104 3.75442 27.7133 1.13462
767 1 -1.1104 3.80541 22.0706 3.76122
768 1 -1.1104 3.82022 27.6681 3.79802
773 1 -1.1104 6.5752 24.9993 3.75893
776 1 -1.1104 6.59905 22.0257 3.8552
772 1 -1.1104 6.58448 24.8896 0.924156
774 1 -1.1104 6.55755 22.0087 0.885045
775 1 -1.1104 6.49996 27.7767 1.10402
777 1 -1.1104 6.56561 27.7476 3.90945
900 1 -1.1104 3.73146 27.5778 6.69989
896 1 -1.1104 6.53015 22.0567 6.62122
898 1 -1.1104 3.87361 24.7552 6.5569
893 1 -1.1104 6.61739 24.858 6.6944
1100 2 2.2208 13.5026 29.1404 13.6268
778 2 2.2208 10.7677 23.4013 5.16735
779 2 2.2208 10.7078 29.0592 5.32925
780 1 -1.1104 12.2844 24.6975 0.871331
781 1 -1.1104 12.1051 24.8484 3.73814
782 1 -1.1104 12.3132 22.0005 0.740883
783 1 -1.1104 12.216 27.6837 1.03455
784 2 2.2208 10.8615 26.33 2.33321
785 1 -1.1104 12.2189 21.9635 3.62378
786 1 -1.1104 12.1372 27.7649 3.80375
787 1 -1.1104 9.3697 25.116 0.852823
788 2 2.2208 7.97669 23.6171 2.42248
789 2 2.2208 8.0032 29.047 2.43601
790 1 -1.1104 9.38826 24.9016 3.8151
791 2 2.2208 7.98321 26.1711 5.3552
792 1 -1.1104 9.44813 22.3057 1.08761
793 1 -1.1104 9.30389 27.7324 1.06922
794 1 -1.1104 9.46553 21.9408 3.7988
795 1 -1.1104 9.43154 27.7134 3.78182
797 2 2.2208 13.4765 29.1869 2.33001
796 2 2.2208 13.6464 23.4694 2.2398
798 2 2.2208 13.4818 26.3551 5.28277
925 1 -1.1104 12.1352 24.9294 6.5035
928 1 -1.1104 9.51468 24.7363 6.70063
930 1 -1.1104 9.17202 27.6289 6.57879
929 1 -1.1104 9.35483 21.8184 6.51798
799 2 2.2208 5.05342 34.7105 5.22072
800 1 -1.1104 1.10407 30.5481 1.16268
801 1 -1.1104 0.959178 36.3658 1.17121
803 1 -1.1104 1.06621 30.6385 3.94098
804 1 -1.1104 0.838165 36.178 3.89902
806 1 -1.1104 0.958525 33.4294 0.97009
807 2 2.2208 5.11526 31.953 2.36949
808 2 2.2208 5.14857 37.5493 2.3192
809 1 -1.1104 0.931162 33.3673 3.91802
811 1 -1.1104 3.7995 30.4249 1.03821
812 1 -1.1104 3.70544 36.1361 1.02454
813 2 2.2208 2.34918 34.7317 2.38241
814 1 -1.1104 3.77676 30.4719 3.84193
815 1 -1.1104 3.68758 36.0868 3.82093
816 2 2.2208 2.43206 31.9931 5.17346
817 2 2.2208 2.25972 37.6315 5.1746
818 1 -1.1104 3.86294 33.3232 0.905517
819 1 -1.1104 3.84423 33.3369 3.83212
802 1 -1.1104 6.53749 36.1348 0.912002
825 1 -1.1104 6.63797 33.3464 1.07157
823 1 -1.1104 6.64735 30.4058 0.914018
810 1 -1.1104 6.58131 33.2789 3.77123
824 1 -1.1104 6.70898 30.5242 3.78742
805 1 -1.1104 6.58946 36.093 3.75563
951 1 -1.1104 6.56834 30.4263 6.69144
952 1 -1.1104 6.52661 36.1339 6.64844
957 1 -1.1104 3.78258 33.472 6.67066
954 1 -1.1104 6.54288 33.2886 6.5002
1102 2 2.2208 7.98781 40.5122 13.619
826 2 2.2208 10.8319 34.8107 5.17316
827 1 -1.1104 12.2759 30.5611 1.00348
828 1 -1.1104 12.214 36.1427 1.0003
829 1 -1.1104 12.1666 30.6396 3.95181
830 1 -1.1104 12.1258 36.2049 3.70818
831 1 -1.1104 12.2529 33.3491 1.07145
832 2 2.2208 10.6801 31.9961 2.47255
833 2 2.2208 10.7515 37.5417 2.45098
834 1 -1.1104 12.2023 33.4664 3.91233
835 1 -1.1104 9.4011 30.5522 1.01253
836 1 -1.1104 9.29549 36.0944 1.07633
837 2 2.2208 7.93948 34.7732 2.33729
838 1 -1.1104 9.4576 30.5756 3.68358
839 1 -1.1104 9.26687 36.0895 3.78675
840 2 2.2208 8.08882 32.0426 5.06449
841 2 2.2208 7.99257 37.386 5.26369
842 1 -1.1104 9.38878 33.3503 1.04215
843 1 -1.1104 9.57362 33.3852 3.88168
1656 1 -1.1104 6.40058 47.544 6.5877
844 2 2.2208 13.5766 34.7563 2.34956
984 1 -1.1104 12.2113 36.0798 6.4937
983 1 -1.1104 12.2406 30.4588 6.86199
985 1 -1.1104 12.1855 33.3063 6.6937
1065 2 2.2208 13.507 31.8809 5.27749
988 1 -1.1104 9.37138 33.4357 6.4962
986 1 -1.1104 9.437 30.5001 6.5299
1687 1 -1.1104 12.2547 47.3323 6.48462
1121 2 2.2208 13.6382 37.6229 -0.343522
851 1 -1.1104 0.852094 39.0618 0.786168