ITEM: TIMESTEP
100000
ITEM: NUMBER OF ATOMS
17730
ITEM: BOX BOUNDS pp pp pp
-3.7039712197683539e-01 2.7710397121976538e+01
-4.4195895973925232e+00 3.3249958959739536e+02
-3.5894200627223150e-01 2.7698942006272848e+01
ITEM: ATOMS id type q x y z
1 2 2.2208 5.46542 1.17822 5.03099
2 1 -1.1104 1.0216 -2.98478 0.913193
3 1 -1.1104 1.15431 2.47387 0.998962
6 1 -1.1104 1.1389 -3.09418 3.61613
7 1 -1.1104 1.29734 2.56591 3.76794
10 1 -1.1104 1.0191 -0.232204 1.03288
12 2 2.2208 5.36594 -1.60202 2.41032
13 2 2.2208 5.29361 4.02157 2.3753
14 1 -1.1104 0.974924 -0.280429 3.70998
16 1 -1.1104 3.87534 -2.97519 0.912083
17 1 -1.1104 3.96791 2.43203 0.941949
18 2 2.2208 2.50979 1.12553 2.309
19 1 -1.1104 4.05875 -3.07522 3.86031
20 1 -1.1104 4.03422 2.5477 3.70647
21 2 2.2208 2.43769 -1.62415 5.20448
23 1 -1.1104 3.99006 -0.25067 0.96435
24 1 -1.1104 3.85773 -0.311097 3.81133
22 2 2.2208 2.69989 3.92576 5.14199
26 2 2.2208 -0.279612 1.1821 5.03287
336 2 2.2208 13.6917 20.7214 5.33008
25 2 2.2208 -0.400059 -1.65086 2.34633
170 1 -1.1104 1.11846 -0.304352 6.47804
360 2 2.2208 11.0715 9.66029 13.6817
174 1 -1.1104 3.97907 -0.22519 6.57043
167 1 -1.1104 1.19448 2.48904 6.53042
166 1 -1.1104 1.05777 -3.12883 6.3677
173 1 -1.1104 4.14924 2.51166 6.46987
367 2 2.2208 -0.230103 3.90414 13.6075
9 1 -1.1104 6.86072 2.71641 3.76383
5 1 -1.1104 6.80025 2.6054 1.18998
8 1 -1.1104 6.76816 -2.98674 3.81081
11 1 -1.1104 6.74128 -0.186541 1.03471
15 1 -1.1104 6.87073 -0.171958 3.80378
4 1 -1.1104 6.68483 -2.82396 0.852453
31 2 2.2208 11.0979 1.14154 5.16305
32 1 -1.1104 12.2557 -2.99363 1.01031
33 1 -1.1104 12.3637 2.49315 0.973664
34 1 -1.1104 12.2636 -3.03902 3.72092
35 1 -1.1104 12.5574 2.5027 3.8658
36 1 -1.1104 12.2873 -0.246912 1.04719
37 2 2.2208 10.8466 -1.61879 2.33626
39 1 -1.1104 12.3257 -0.184135 3.78233
40 1 -1.1104 9.56298 -3.04977 0.872129
41 1 -1.1104 9.6107 2.52854 0.959005
42 2 2.2208 8.24407 1.30016 2.40914
43 1 -1.1104 9.50232 -3.07204 3.75335
44 1 -1.1104 9.67585 2.46411 3.76666
45 2 2.2208 8.19514 -1.57178 5.1613
47 1 -1.1104 9.53752 -0.243054 0.830368
48 1 -1.1104 9.61989 -0.222398 3.78123
46 2 2.2208 8.31812 3.94615 5.09129
38 2 2.2208 10.953 4.04821 2.42205
355 2 2.2208 2.56184 6.587 13.4558
171 1 -1.1104 6.88608 -0.183823 6.54535
208 1 -1.1104 9.39477 -3.08733 6.47711
209 1 -1.1104 9.75577 2.4928 6.59005
168 1 -1.1104 6.7414 -3.04817 6.56155
210 1 -1.1104 9.58945 -0.301447 6.64004
311 2 2.2208 -0.223513 20.7907 7.9892
81 2 2.2208 -0.0833479 6.77756 5.2442
54 2 2.2208 5.39244 6.79104 5.25568
55 2 2.2208 5.42328 12.3495 5.35666
56 1 -1.1104 1.13005 8.07189 1.02885
58 1 -1.1104 1.11787 8.21459 3.80649
60 1 -1.1104 1.17973 5.34086 1.03479
61 1 -1.1104 1.15301 10.8692 0.946764
66 2 2.2208 5.52569 9.571 2.48746
67 1 -1.1104 1.16107 5.4066 3.74025
68 1 -1.1104 1.35594 10.9004 3.85944
71 1 -1.1104 3.95687 8.14265 1.10788
72 2 2.2208 2.53476 6.81779 2.49928
73 2 2.2208 2.64585 12.3694 2.5393
74 1 -1.1104 3.99144 8.23303 3.83359
75 2 2.2208 2.63731 9.56984 5.06994
76 1 -1.1104 3.93621 5.47396 1.00215
77 1 -1.1104 3.9739 10.9777 1.23967
79 1 -1.1104 3.91705 5.26154 3.83055
80 1 -1.1104 4.08754 11.0198 3.97542
70 1 -1.1104 6.82166 10.9497 3.88014
59 1 -1.1104 6.87407 8.06479 3.8575
83 2 2.2208 -0.222074 12.4083 5.23199
234 1 -1.1104 1.20516 8.10957 6.6151
236 1 -1.1104 1.43129 5.34389 6.43978
78 1 -1.1104 4.08193 10.946 6.65355
62 1 -1.1104 1.31088 10.8847 6.54827
82 2 2.2208 -0.234015 9.56353 2.3964
348 2 2.2208 2.58353 1.09878 13.5974
320 2 2.2208 8.30455 17.925 8.13737
306 1 -1.1104 6.88798 16.7274 12.1943
329 1 -1.1104 12.4792 19.4048 12.3665
237 1 -1.1104 6.82534 5.31744 6.61298
63 1 -1.1104 6.68425 5.49332 0.946143
69 1 -1.1104 6.72066 5.4309 3.74918
235 1 -1.1104 6.76936 8.09402 6.62635
64 1 -1.1104 6.88355 11.0814 1.08576
57 1 -1.1104 6.85668 8.26371 1.14858
84 2 2.2208 11.0861 6.75312 5.41443
85 2 2.2208 11.0507 12.358 5.32131
86 1 -1.1104 12.3092 8.1117 1.08479
87 1 -1.1104 12.3333 8.09293 3.86397
88 1 -1.1104 12.4189 5.34224 0.878713
89 1 -1.1104 12.401 10.872 1.17169
91 2 2.2208 10.9818 9.5407 2.54324
92 1 -1.1104 12.3862 5.27598 3.7531
93 1 -1.1104 12.4681 10.8717 3.986
94 1 -1.1104 9.60474 8.14077 1.02054
95 2 2.2208 8.2596 6.80553 2.45968
96 2 2.2208 8.34269 12.2988 2.45806
97 1 -1.1104 9.67724 8.17866 3.83285
98 2 2.2208 8.20522 9.49538 5.26539
99 1 -1.1104 9.6004 5.39766 1.0421
100 1 -1.1104 9.61199 10.9235 1.00757
102 1 -1.1104 9.56073 5.34311 3.86455
103 1 -1.1104 9.47543 10.8834 3.88326
266 1 -1.1104 12.6129 5.34567 6.54974
90 1 -1.1104 12.6891 10.8518 6.69825
265 1 -1.1104 12.5135 8.10907 6.65827
321 1 -1.1104 9.61559 19.4728 12.284
315 1 -1.1104 9.71818 16.598 12.2516
137 2 2.2208 -0.258692 18.0328 5.26738
136 2 2.2208 -0.265375 20.6802 2.36276
106 2 2.2208 5.45718 17.9398 5.2083
107 1 -1.1104 1.42011 13.8453 1.07738
109 1 -1.1104 1.14919 19.1555 1.03158
113 1 -1.1104 1.07556 13.6399 3.81782
114 1 -1.1104 1.19223 19.2994 3.89367
116 1 -1.1104 1.13454 16.4811 0.974059
119 2 2.2208 5.43215 15.2158 2.45247
120 2 2.2208 5.38525 20.8744 2.44744
121 1 -1.1104 1.29272 16.5311 3.77193
123 1 -1.1104 4.19573 13.7836 1.02986
125 1 -1.1104 3.9175 19.4997 0.93285
127 2 2.2208 2.57155 17.9624 2.41975
128 1 -1.1104 4.02696 13.7684 3.93828
129 1 -1.1104 4.08634 19.226 3.682
130 2 2.2208 2.63764 15.1985 5.34808
131 2 2.2208 2.56676 20.6531 5.21446
132 1 -1.1104 3.92754 16.6553 1.07037
134 1 -1.1104 4.01694 16.5563 3.92229
117 1 -1.1104 1.01332 16.4597 6.4204
108 1 -1.1104 1.18519 13.7951 6.58093
302 1 -1.1104 1.29014 19.2795 6.78114
133 1 -1.1104 3.96748 16.382 6.74501
297 1 -1.1104 6.80055 13.8065 12.2906
143 1 -1.1104 12.5456 13.6913 6.65178
112 1 -1.1104 6.69345 19.4306 6.5534
110 1 -1.1104 6.97181 13.978 1.19041
140 1 -1.1104 6.77719 16.6637 1.11681
115 1 -1.1104 6.87263 13.7912 3.91334
122 1 -1.1104 7.01436 16.4629 4.01573
139 1 -1.1104 6.94315 19.2913 3.89577
138 1 -1.1104 6.66511 19.4059 1.12768
141 2 2.2208 10.8916 17.9234 5.23272
142 1 -1.1104 12.4981 13.5343 1.02759
144 1 -1.1104 12.2926 19.3179 1.26611
146 1 -1.1104 12.3934 13.6891 3.7733
147 1 -1.1104 12.441 19.4249 3.96968
148 1 -1.1104 12.443 16.444 1.06094
150 2 2.2208 10.9025 15.1456 2.38651
151 2 2.2208 10.9016 20.7123 2.44125
152 1 -1.1104 12.461 16.4405 4.05989
153 1 -1.1104 9.71286 13.7854 1.02385
155 1 -1.1104 9.42395 19.3569 0.945708
157 2 2.2208 8.20233 17.8452 2.46863
158 1 -1.1104 9.60099 13.6357 3.8869
159 1 -1.1104 9.72585 19.3779 3.77516
160 2 2.2208 8.28833 15.1573 5.29428
161 2 2.2208 8.12508 20.64 5.20584
162 1 -1.1104 9.57169 16.3843 1.0413
164 1 -1.1104 9.66704 16.6296 3.79494
145 1 -1.1104 12.3214 19.1961 6.64669
154 1 -1.1104 9.55828 13.6834 6.80801
156 1 -1.1104 9.47557 19.1868 6.60426
118 1 -1.1104 6.93939 16.6286 6.74817
200 2 2.2208 -0.32806 -1.72313 7.97515
324 2 2.2208 10.9462 20.6906 8.21485
172 1 -1.1104 3.76063 -3.02852 6.55676
135 2 2.2208 -0.123495 15.2027 2.42278
199 2 2.2208 -0.338035 3.85913 7.85941
201 2 2.2208 -0.344055 1.08657 10.8214
53 2 2.2208 13.6729 -4.29629 2.26442
175 2 2.2208 5.35966 1.12391 10.7416
176 1 -1.1104 1.06609 -3.13871 12.1329
177 1 -1.1104 1.18115 2.51003 12.1317
180 1 -1.1104 1.06104 -3.0102 9.19638
181 1 -1.1104 1.20891 2.78727 9.26658
184 1 -1.1104 0.996923 -0.259589 12.2952
186 2 2.2208 5.41836 -1.71047 7.82637
187 2 2.2208 5.42031 3.94723 7.98467
188 1 -1.1104 1.12939 -0.157805 9.38464
190 1 -1.1104 3.76198 -3.1225 12.1417
191 1 -1.1104 3.95564 2.37453 12.1807
192 2 2.2208 2.43388 1.16424 7.91673
193 1 -1.1104 3.9335 -2.87182 9.40531
194 1 -1.1104 3.97707 2.54868 9.40183
195 2 2.2208 2.38688 -1.6792 10.6239
196 2 2.2208 2.50598 3.91161 10.7581
197 1 -1.1104 3.81705 -0.279014 12.1118
198 1 -1.1104 3.88074 -0.125018 9.40152
27 2 2.2208 -0.246691 3.89512 2.40741
470 2 2.2208 8.05541 -4.35079 13.44
343 2 2.2208 -0.145761 9.55702 8.02182
288 1 -1.1104 6.75059 19.2941 9.39997
312 2 2.2208 -0.255297 17.9788 10.8369
169 1 -1.1104 6.83429 2.57804 6.43288
290 1 -1.1104 6.62376 13.5252 9.49673
344 2 2.2208 -0.192126 6.65822 10.8088
178 1 -1.1104 6.65121 -3.01383 11.9364
182 1 -1.1104 6.68707 -3.24377 9.43689
205 1 -1.1104 12.3648 -3.02835 6.57793
207 1 -1.1104 12.4044 -0.395461 6.44323
206 1 -1.1104 12.4956 2.55215 6.49114
185 1 -1.1104 6.64954 -0.253481 12.27
179 1 -1.1104 6.77768 2.5052 12.1807
189 1 -1.1104 6.8223 -0.329044 9.25333
183 1 -1.1104 6.90047 2.53403 9.40639
211 2 2.2208 11.0286 1.20858 10.7801
212 1 -1.1104 12.5208 -3.06574 12.1445
213 1 -1.1104 12.3018 2.63316 12.1457
214 1 -1.1104 12.3101 -3.11066 9.35501
215 1 -1.1104 12.3855 2.58982 9.24647
216 1 -1.1104 12.4217 -0.238165 12.1406
217 2 2.2208 10.9884 -1.64707 7.93626
218 2 2.2208 11.1261 3.93035 8.02628
219 1 -1.1104 12.3802 -0.118759 9.37688
220 1 -1.1104 9.71126 -3.1203 12.1127
221 1 -1.1104 9.57128 2.55321 12.2222
222 2 2.2208 8.34479 1.14825 8.03447
223 1 -1.1104 9.71525 -3.08149 9.36837
224 1 -1.1104 9.64522 2.43376 9.37527
225 2 2.2208 8.16548 -1.65903 10.7002
226 2 2.2208 8.16951 3.90681 10.7826
227 1 -1.1104 9.44409 -0.286474 12.1456
228 1 -1.1104 9.66643 -0.315682 9.36907
327 1 -1.1104 12.4604 19.3901 9.44932
342 2 2.2208 -0.142651 12.2813 10.8032
238 1 -1.1104 4.02058 8.08846 6.57124
330 1 -1.1104 12.4398 13.8415 12.1852
239 1 -1.1104 4.02017 5.33724 6.75468
296 1 -1.1104 6.8142 19.4151 12.147
240 2 2.2208 5.37648 6.60515 10.8313
241 2 2.2208 5.37511 12.1896 10.9373
242 1 -1.1104 1.28727 7.95231 12.1072
244 1 -1.1104 1.20877 8.16517 9.49604
246 1 -1.1104 1.20361 5.18856 12.2973
247 1 -1.1104 1.10569 10.7467 12.215
250 2 2.2208 5.50343 9.44182 8.00525
251 1 -1.1104 1.16155 5.35602 9.30777
252 1 -1.1104 1.42632 10.9235 9.47774
255 1 -1.1104 3.96326 8.06568 12.0395
256 2 2.2208 2.64402 6.68275 8.00986
257 2 2.2208 2.69119 12.3058 8.00054
258 1 -1.1104 4.0455 7.99819 9.36294
259 2 2.2208 2.69965 9.45516 10.8218
260 1 -1.1104 3.93288 5.16584 12.2264
261 1 -1.1104 3.98887 10.9316 12.3141
262 1 -1.1104 3.99686 5.24176 9.50663
263 1 -1.1104 4.19869 10.8338 9.48899
317 2 2.2208 8.24094 15.3403 10.8584
316 2 2.2208 8.12067 20.833 10.9367
358 2 2.2208 -0.139491 9.45396 13.6268
65 1 -1.1104 6.81515 10.812 6.66196
101 1 -1.1104 9.72979 10.9011 6.58676
267 1 -1.1104 9.66112 8.06503 6.59571
243 1 -1.1104 6.85655 8.159 12.1822
254 1 -1.1104 6.80924 10.7729 9.56426
269 1 -1.1104 9.67472 5.31299 6.592
249 1 -1.1104 6.87052 10.8268 12.232
248 1 -1.1104 6.79502 5.24594 12.2766
253 1 -1.1104 6.81746 5.19044 9.51609
245 1 -1.1104 6.99849 7.9827 9.38322
280 1 -1.1104 12.4221 5.30496 12.3066
279 1 -1.1104 12.402 8.2189 9.3867
278 1 -1.1104 12.5122 8.12206 12.1169
277 2 2.2208 11.0106 12.3366 10.829
276 2 2.2208 11.1884 6.70363 10.7637
284 1 -1.1104 12.3705 11.05 9.48348
275 2 2.2208 8.24288 6.51701 8.05644
283 1 -1.1104 12.6027 5.40665 9.37211
281 1 -1.1104 12.4974 11.1502 12.2362
285 1 -1.1104 9.63367 8.23016 12.3585
282 2 2.2208 11.1432 9.59164 8.05128
264 1 -1.1104 9.66065 10.9136 9.30109
268 1 -1.1104 9.61838 5.33162 9.39681
270 1 -1.1104 9.75753 10.9286 12.1847
271 1 -1.1104 9.68101 5.359 12.0477
272 2 2.2208 8.31373 9.57383 10.8768
273 1 -1.1104 9.72278 8.14985 9.4745
274 2 2.2208 8.07875 12.2526 8.08351
353 2 2.2208 10.8823 -1.66549 13.5043
323 1 -1.1104 12.407 16.6791 9.42837
328 1 -1.1104 12.4751 13.8034 9.37799
318 1 -1.1104 9.5722 19.3275 9.48274
126 1 -1.1104 3.98976 19.4208 6.45362
313 2 2.2208 -0.28826 15.1385 7.94791
124 1 -1.1104 4.12399 13.7107 6.63617
294 1 -1.1104 1.15779 13.5578 9.24257
295 2 2.2208 5.49848 15.0119 8.13582
310 2 2.2208 2.75335 15.1966 10.8526
309 2 2.2208 2.53849 20.7559 10.8035
308 1 -1.1104 4.14068 16.6831 12.3153
307 1 -1.1104 1.29961 16.6869 12.063
291 1 -1.1104 1.12669 19.2812 9.40914
286 1 -1.1104 3.80853 19.3779 12.1404
305 1 -1.1104 3.93107 13.8211 9.46344
304 1 -1.1104 4.12106 16.6208 9.48989
292 1 -1.1104 1.33704 16.4846 9.29093
303 2 2.2208 2.57382 17.9221 8.08267
301 1 -1.1104 4.00114 19.3827 9.42173
300 2 2.2208 5.32762 18.0103 10.8855
293 2 2.2208 5.36688 20.6651 8.03755
299 1 -1.1104 1.25564 13.7072 12.2396
298 1 -1.1104 1.135 19.4412 12.3232
287 1 -1.1104 4.06521 13.8169 12.2201
359 2 2.2208 8.24244 6.90705 13.607
289 1 -1.1104 6.80327 16.4629 9.44482
202 2 2.2208 2.41241 -4.4391 7.9758
331 2 2.2208 11.0585 18.0731 10.8752
322 1 -1.1104 9.45279 13.7416 12.1909
319 1 -1.1104 9.51544 13.734 9.38889
314 1 -1.1104 9.59315 16.5862 9.44383
149 1 -1.1104 12.5775 16.4184 6.72024
163 1 -1.1104 9.68753 16.4878 6.642
111 1 -1.1104 6.79298 13.6664 6.67032
325 2 2.2208 11.0476 15.1548 8.06311
326 1 -1.1104 12.4962 16.7295 12.3819
350 2 2.2208 -0.392345 20.7867 13.7038
394 2 2.2208 11.0366 12.3234 -0.366281
354 2 2.2208 10.9602 3.93715 13.5405
364 2 2.2208 5.38269 20.8855 13.6023
392 2 2.2208 11.0414 6.67171 -0.326761
632 2 2.2208 5.29901 -4.43385 -0.373639
371 2 2.2208 8.25504 18.0982 13.6926
356 2 2.2208 5.35471 9.4738 13.6182
347 2 2.2208 5.33128 -1.6217 13.5731
390 2 2.2208 -0.131526 12.3037 -0.313662
398 2 2.2208 2.56298 15.1182 -0.286354
389 2 2.2208 5.36176 12.2829 -0.229265
388 2 2.2208 2.5756 9.50917 -0.323432
393 2 2.2208 8.29436 9.44444 -0.323751
361 2 2.2208 8.09325 12.2138 13.5319
363 2 2.2208 2.55811 18.0021 13.6176
397 2 2.2208 5.39272 18.0094 -0.404926
400 2 2.2208 5.36651 1.27361 16.4921
401 1 -1.1104 1.05292 -3.15255 17.8679
402 1 -1.1104 1.08906 2.56756 17.8025
405 1 -1.1104 1.2784 -2.97628 15.0018
407 1 -1.1104 1.18877 2.58579 15.0702
413 1 -1.1104 1.22335 -0.160924 17.8857
415 2 2.2208 5.32169 -1.55766 19.3659
416 2 2.2208 5.33224 4.00792 19.2462
417 1 -1.1104 0.980985 -0.241589 15.0854
421 1 -1.1104 3.86979 -3.01787 17.8553
422 1 -1.1104 4.09687 2.54007 18.0164
423 2 2.2208 2.64771 1.21838 19.2956
424 1 -1.1104 3.9998 -3.18907 14.8762
426 1 -1.1104 4.02343 2.44535 15.127
428 2 2.2208 2.49462 -1.64535 16.4656
429 2 2.2208 2.53089 4.03024 16.5289
430 1 -1.1104 3.96063 -0.282393 17.8717
431 1 -1.1104 3.81835 -0.285309 14.9691
406 1 -1.1104 1.07528 -2.83622 20.7524
631 2 2.2208 -0.326008 -4.50165 21.9286
425 1 -1.1104 3.83434 -2.93809 20.5653
427 1 -1.1104 4.09475 2.58489 20.7065
574 2 2.2208 -0.222648 4.00171 19.2922
435 2 2.2208 2.49519 -4.31909 19.2881
697 2 2.2208 -0.317233 12.4309 21.9938
418 1 -1.1104 1.04525 0.0112477 20.5626
411 1 -1.1104 6.75807 2.5651 14.9497
412 1 -1.1104 6.78389 2.55624 20.5709
404 1 -1.1104 6.91895 2.6098 17.789
410 1 -1.1104 6.55532 -3.10016 20.5298
419 1 -1.1104 6.48787 -0.321613 15.1621
409 1 -1.1104 6.66199 -3.12754 14.8483
414 1 -1.1104 6.78551 -0.237735 17.8538
403 1 -1.1104 6.76465 -3.13567 17.7493
443 2 2.2208 10.8026 1.15817 16.5036
444 1 -1.1104 12.365 -3.13357 17.8657
445 1 -1.1104 12.5032 2.597 17.6798
446 1 -1.1104 12.1772 -3.05882 14.8864
448 1 -1.1104 12.4054 2.51786 14.7501
450 1 -1.1104 12.5285 -0.35707 17.7822
451 2 2.2208 11.0275 -1.69565 19.1947
452 2 2.2208 10.9465 3.96771 19.1686
453 1 -1.1104 12.2258 -0.298114 15.0048
455 1 -1.1104 9.59212 -3.16974 17.8525
456 1 -1.1104 9.58215 2.40765 18.0185
457 2 2.2208 8.15125 1.18789 19.2307
458 1 -1.1104 9.38493 -2.82686 14.8623
460 1 -1.1104 9.66007 2.48686 15.1332
462 2 2.2208 7.98978 -1.62659 16.4786
464 1 -1.1104 9.62109 -0.330349 17.8814
465 1 -1.1104 9.3713 -0.253197 14.9242
463 2 2.2208 8.17261 3.88481 16.3919
437 2 2.2208 -0.278259 -1.60909 19.2865
351 2 2.2208 -0.168539 15.0798 13.6922
511 2 2.2208 -0.280846 6.71462 16.3043
476 2 2.2208 5.4307 6.80055 16.3705
477 2 2.2208 5.32839 12.3051 16.4757
478 1 -1.1104 1.0314 8.12451 17.9051
480 1 -1.1104 1.14066 8.08964 15.1542
484 1 -1.1104 1.1864 5.26607 17.7986
485 1 -1.1104 1.20049 11.0255 17.7675
488 2 2.2208 5.36978 9.48307 19.2781
489 1 -1.1104 1.10943 5.38612 15.002
491 1 -1.1104 1.18629 10.9094 15.0281
497 1 -1.1104 4.02535 8.10735 17.7973
498 2 2.2208 2.44791 6.76463 19.2297
499 2 2.2208 2.57548 12.4195 19.2649
500 1 -1.1104 3.93987 8.17353 14.8979
502 2 2.2208 2.62804 9.51876 16.5035
503 1 -1.1104 4.059 5.45825 17.9066
504 1 -1.1104 4.00493 10.8337 17.9391
505 1 -1.1104 3.83027 5.323 15.0079
507 1 -1.1104 3.93671 10.8866 15.0851
537 2 2.2208 -0.22381 12.3369 16.4808
501 1 -1.1104 3.88667 8.14968 20.615
481 1 -1.1104 1.08717 8.30955 20.6492
492 1 -1.1104 1.23768 11.0265 20.6924
381 2 2.2208 -0.261094 1.14987 27.6714
487 1 -1.1104 6.67328 10.8786 17.8567
493 1 -1.1104 6.90452 5.51419 15.0203
479 1 -1.1104 6.77754 8.14996 17.7913
486 1 -1.1104 6.85701 5.29712 17.8394
482 1 -1.1104 6.61021 8.19785 15.0422
495 1 -1.1104 6.66736 11.1005 14.9106
512 2 2.2208 10.9748 6.77004 16.2969
513 2 2.2208 11.028 12.3976 16.4855
514 1 -1.1104 12.4278 8.13912 17.8231
515 1 -1.1104 12.4873 8.21186 14.9388
517 1 -1.1104 12.2979 5.37415 17.7858
518 1 -1.1104 12.2815 10.9139 17.7452
519 2 2.2208 11 9.46193 19.2615
520 1 -1.1104 12.4869 5.39881 14.9837
522 1 -1.1104 12.5477 11.0554 15.0514
524 1 -1.1104 9.58005 8.10126 17.7289
525 2 2.2208 8.13729 6.67515 19.198
526 2 2.2208 8.15107 12.2967 19.3754
527 1 -1.1104 9.67053 8.16418 14.9731
529 2 2.2208 8.06099 9.52371 16.4354
530 1 -1.1104 9.53361 5.25885 17.7457
531 1 -1.1104 9.44308 10.8143 17.9453
532 1 -1.1104 9.6472 5.39215 15.0221
534 1 -1.1104 9.64597 10.9482 15.2015
523 1 -1.1104 12.4034 10.9768 20.5559
516 1 -1.1104 12.3556 8.06046 20.6912
496 1 -1.1104 6.82799 10.8353 20.6985
528 1 -1.1104 9.63564 8.11338 20.5256
494 1 -1.1104 6.60637 5.33987 20.6885
483 1 -1.1104 6.72884 7.99655 20.6928
473 2 2.2208 -0.234477 15.2268 19.1945
474 2 2.2208 -0.232822 20.7087 19.2123
657 1 -1.1104 12.5086 13.7403 26.146
539 2 2.2208 5.34306 17.9605 16.4921
540 1 -1.1104 1.16629 13.8397 17.7035
541 1 -1.1104 1.26521 19.3549 17.7104
544 1 -1.1104 1.18867 13.8161 14.9361
546 1 -1.1104 1.22513 19.3256 14.9481
552 1 -1.1104 1.09039 16.5598 17.7434
554 2 2.2208 5.37316 15.0982 19.3329
555 2 2.2208 5.31574 20.7513 19.2095
556 1 -1.1104 1.04158 16.635 15.0896
560 1 -1.1104 3.93503 13.7449 17.907
561 1 -1.1104 3.94714 19.4206 17.9094
562 2 2.2208 2.46477 17.9087 19.2269
563 1 -1.1104 3.98782 13.7802 15.148
565 1 -1.1104 4.12227 19.3372 15.0085
567 2 2.2208 2.57564 15.2237 16.4727
568 2 2.2208 2.54159 20.7302 16.3855
569 1 -1.1104 3.96535 16.598 17.7563
570 1 -1.1104 3.91132 16.4969 14.9955
566 1 -1.1104 3.91911 19.2227 20.6495
557 1 -1.1104 1.07772 16.4864 20.5618
571 1 -1.1104 3.82553 16.4382 20.6927
383 2 2.2208 8.17868 -1.64676 27.5956
469 2 2.2208 8.14243 -4.40699 19.2591
551 1 -1.1104 6.67839 19.3806 20.645
553 1 -1.1104 6.70809 16.5382 17.8436
542 1 -1.1104 6.82512 13.5841 17.8718
581 1 -1.1104 12.3775 19.3365 20.6181
548 1 -1.1104 6.84751 13.8253 15.0848
550 1 -1.1104 6.88631 19.447 14.9713
586 1 -1.1104 12.3427 16.6138 20.5966
543 1 -1.1104 6.58823 19.3569 17.801
558 1 -1.1104 6.90839 16.6337 15.0338
575 2 2.2208 11.0371 18.015 16.5812
576 1 -1.1104 12.3416 13.7428 17.9056
577 1 -1.1104 12.3686 19.3867 17.878
578 1 -1.1104 12.4419 13.6991 15.1245
580 1 -1.1104 12.4503 19.4822 15.2217
582 1 -1.1104 12.4163 16.497 17.8678
583 2 2.2208 10.8345 15.1634 19.3117
584 2 2.2208 11.0541 20.8742 19.2832
585 1 -1.1104 12.422 16.4835 15.0181
587 1 -1.1104 9.64877 13.8252 17.8516
588 1 -1.1104 9.52121 19.3747 17.9563
589 2 2.2208 8.12266 18.0241 19.1931
590 1 -1.1104 9.63391 13.7832 15.1425
592 1 -1.1104 9.63533 19.3646 15.0336
594 2 2.2208 8.13095 15.1557 16.4334
595 2 2.2208 8.21216 20.7613 16.476
596 1 -1.1104 9.56347 16.5279 17.9644
597 1 -1.1104 9.63042 16.6659 15.1821
598 1 -1.1104 9.54533 16.6426 20.7563
591 1 -1.1104 9.41963 13.7282 20.6543
538 2 2.2208 13.6258 12.5293 19.329
436 2 2.2208 -0.177362 1.10371 16.4765
432 1 -1.1104 3.93951 -0.0575769 20.6664
637 2 2.2208 -0.28344 1.15119 22.0194
408 1 -1.1104 1.18385 2.68924 20.5953
396 2 2.2208 2.5618 20.7321 27.6621
378 2 2.2208 10.9774 17.8667 27.7527
603 2 2.2208 5.49675 1.22082 22.0331
604 1 -1.1104 1.06835 -2.99269 23.4501
605 1 -1.1104 1.05836 2.5562 23.5339
608 1 -1.1104 0.922612 -3.26735 26.0777
609 1 -1.1104 1.05997 2.46072 26.3979
612 1 -1.1104 0.932844 -0.199876 23.4598
614 2 2.2208 5.37202 -1.58652 24.8464
616 1 -1.1104 1.14871 -0.274539 26.2226
618 1 -1.1104 3.78697 -3.00419 23.4931
619 1 -1.1104 3.91931 2.54327 23.4905
620 2 2.2208 2.40822 1.21429 24.9409
621 1 -1.1104 3.92252 -3.03461 26.3272
622 1 -1.1104 4.01132 2.50258 26.1927
623 2 2.2208 2.46402 -1.45617 22.1551
625 1 -1.1104 3.90268 -0.177554 23.4602
626 1 -1.1104 3.90699 -0.313034 26.2578
624 2 2.2208 2.60315 4.06231 22.1247
615 2 2.2208 5.46425 3.7755 24.9206
611 1 -1.1104 6.71594 2.45853 26.3938
373 2 2.2208 5.32677 1.09784 27.6673
380 2 2.2208 2.68283 3.89645 27.6687
384 2 2.2208 8.04872 4.00268 27.7535
663 2 2.2208 8.06898 -4.45224 24.8115
459 1 -1.1104 9.52563 -3.14534 20.6135
369 2 2.2208 10.9214 15.2839 13.6153
466 1 -1.1104 9.4781 -0.455372 20.5859
461 1 -1.1104 9.55391 2.37876 20.6536
447 1 -1.1104 12.3856 -3.28989 20.6508
454 1 -1.1104 12.4197 -0.402276 20.6735
420 1 -1.1104 6.81093 -0.242555 20.6612
449 1 -1.1104 12.366 2.51134 20.5335
610 1 -1.1104 6.63864 -3.06869 26.1118
613 1 -1.1104 6.84532 -0.384367 23.4527
606 1 -1.1104 6.78708 -3.04003 23.2225
607 1 -1.1104 6.72584 2.45936 23.5242
617 1 -1.1104 6.79837 -0.208117 26.2701
639 2 2.2208 10.9143 1.08467 22.0606
640 1 -1.1104 12.4282 -3.11849 23.4183
641 1 -1.1104 12.4181 2.52683 23.3838
642 1 -1.1104 12.1944 -3.01766 26.262
643 1 -1.1104 12.2624 2.61028 26.1177
644 1 -1.1104 12.3826 -0.145756 23.4888
645 2 2.2208 10.9432 -1.66298 24.7725
647 1 -1.1104 12.3308 -0.131069 26.3992
648 1 -1.1104 9.67487 -3.09742 23.3557
649 1 -1.1104 9.58377 2.38049 23.5268
650 2 2.2208 8.19403 1.11338 24.8546
651 1 -1.1104 9.39352 -3.10014 26.4062
652 1 -1.1104 9.39101 2.55945 26.2287
653 2 2.2208 8.16991 -1.75951 21.9601
655 1 -1.1104 9.52161 -0.444318 23.3868
656 1 -1.1104 9.5829 -0.212611 26.0733
654 2 2.2208 8.1783 3.81172 22.0566
646 2 2.2208 10.9129 3.99642 25.002
733 1 -1.1104 6.87212 13.6242 23.5427
382 2 2.2208 10.8911 1.11819 27.6049
506 1 -1.1104 3.92959 5.34829 20.6066
376 2 2.2208 2.47072 -1.7008 27.6084
696 2 2.2208 -0.392747 9.60093 24.8449
508 1 -1.1104 4.15798 10.8059 20.8058
490 1 -1.1104 1.17874 5.56466 20.779
668 2 2.2208 5.33806 6.83011 22.1708
669 2 2.2208 5.34113 12.2821 22.1507
670 1 -1.1104 1.12685 8.20906 23.596
672 1 -1.1104 1.03664 8.10744 26.2485
674 1 -1.1104 0.929152 5.28857 23.3816
675 1 -1.1104 1.07877 11.0546 23.4242
678 2 2.2208 5.33534 9.65959 25.077
679 1 -1.1104 1.18144 5.18796 26.2909
680 1 -1.1104 1.09585 10.8265 26.2814
683 1 -1.1104 3.88977 8.11284 23.569
684 2 2.2208 2.39457 6.72677 24.9103
685 2 2.2208 2.51441 12.3695 24.9074
686 1 -1.1104 3.96545 8.17978 26.3073
687 2 2.2208 2.56202 9.5153 22.1009
688 1 -1.1104 3.86212 5.32366 23.572
689 1 -1.1104 3.89983 10.9539 23.5919
690 1 -1.1104 3.96003 5.29673 26.2392
691 1 -1.1104 3.9589 10.9465 26.4311
681 1 -1.1104 6.65774 5.19753 26.2782
533 1 -1.1104 9.45243 5.21281 20.4231
535 1 -1.1104 9.56528 10.7874 20.8397
521 1 -1.1104 12.368 5.25499 20.7358
671 1 -1.1104 6.77624 8.1262 23.4692
677 1 -1.1104 6.67611 10.9221 23.5835
676 1 -1.1104 6.92276 5.13794 23.4663
673 1 -1.1104 6.8542 7.93619 26.3025
682 1 -1.1104 6.92564 10.8342 26.3507
699 1 -1.1104 9.61232 10.9098 26.2677
700 1 -1.1104 9.3772 5.23727 26.4292
701 1 -1.1104 9.62231 10.9171 23.5975
702 1 -1.1104 9.62945 5.38706 23.4624
703 2 2.2208 8.16128 9.6008 22.2081
704 1 -1.1104 9.77207 8.02625 26.2579
705 2 2.2208 8.29562 12.332 24.9916
706 2 2.2208 8.24901 6.69548 24.9026
707 2 2.2208 10.9408 6.77369 21.9771
708 2 2.2208 11.0184 12.3512 22.0539
709 1 -1.1104 12.2178 8.06486 23.4241
710 1 -1.1104 12.4989 8.16857 26.2806
711 1 -1.1104 12.4268 5.37738 23.4398
712 1 -1.1104 12.3644 10.999 23.4472
713 2 2.2208 10.9302 9.45398 24.8965
714 1 -1.1104 12.3353 5.3647 26.2949
715 1 -1.1104 12.4492 11.1012 26.355
716 1 -1.1104 9.47456 8.16826 23.4012
664 2 2.2208 10.9356 15.2437 24.8353
695 2 2.2208 8.17231 17.8733 24.8656
442 2 2.2208 -0.230647 18.0003 16.439
545 1 -1.1104 1.15998 13.8348 20.5122
564 1 -1.1104 4.01269 13.7213 20.7294
547 1 -1.1104 1.15295 19.3429 20.6394
746 1 -1.1104 9.46527 16.5671 23.4504
750 2 2.2208 -0.347272 20.74 24.9269
749 2 2.2208 -0.237649 15.1889 24.8859
745 2 2.2208 2.51596 15.1243 22.1598
744 2 2.2208 2.57168 20.6515 22.0893
743 1 -1.1104 3.92284 16.565 23.4348
742 1 -1.1104 1.18083 16.4331 23.4734
723 1 -1.1104 4.01743 19.2424 23.4459
725 1 -1.1104 4.1085 13.819 23.5235
727 1 -1.1104 1.07559 19.3433 26.225
728 1 -1.1104 1.30639 16.4793 26.2225
729 1 -1.1104 1.12714 13.6292 26.2474
731 2 2.2208 5.23389 20.7494 24.8501
732 2 2.2208 5.28647 15.0779 24.993
734 1 -1.1104 1.23648 19.2124 23.3947
735 1 -1.1104 1.07852 13.6948 23.4685
736 2 2.2208 5.3753 17.9066 22.0461
737 1 -1.1104 3.9502 19.2324 26.1975
738 2 2.2208 2.58322 17.8841 24.7847
739 1 -1.1104 4.00867 16.6002 26.3458
740 1 -1.1104 4.03154 13.7873 26.4033
387 2 2.2208 5.31195 6.78059 27.6858
726 1 -1.1104 6.81532 16.439 26.2863
741 1 -1.1104 6.61824 16.3821 23.538
667 2 2.2208 10.9726 20.7304 25.0348
579 1 -1.1104 12.3834 13.8183 20.7704
559 1 -1.1104 6.68024 16.6601 20.6839
747 1 -1.1104 9.57927 16.5727 26.3126
719 2 2.2208 8.09142 15.0813 22.261
549 1 -1.1104 6.74667 13.7081 20.6808
593 1 -1.1104 9.51516 19.3723 20.6247
635 1 -1.1104 12.4544 19.4771 23.5119
721 2 2.2208 8.10861 20.7635 22.2054
693 1 -1.1104 9.55294 13.8479 23.5539
629 1 -1.1104 12.573 13.8431 23.4093
730 1 -1.1104 6.76995 19.2678 23.5031
698 1 -1.1104 6.84318 19.4528 26.2085
692 1 -1.1104 12.1799 16.6201 26.1757
724 1 -1.1104 6.72062 13.7516 26.4287
659 1 -1.1104 12.3164 16.6606 23.5651
658 1 -1.1104 12.5191 19.5382 26.4529
717 1 -1.1104 9.6185 13.7729 26.2719
694 1 -1.1104 9.66293 19.3341 23.5268
718 1 -1.1104 9.62207 19.2923 26.3486
628 2 2.2208 11.0368 17.9626 22.0007
748 2 2.2208 -0.163532 17.933 22.05
391 2 2.2208 -0.291604 6.66057 27.6857
349 2 2.2208 5.27739 3.87303 13.6455
352 2 2.2208 8.13494 1.09587 13.6247
365 2 2.2208 5.49603 15.2209 13.7151
379 2 2.2208 8.02558 20.7533 27.6207
357 2 2.2208 2.57845 12.3771 13.7033
368 2 2.2208 10.9269 20.8285 13.7679
377 2 2.2208 8.19858 15.1387 27.5981
399 2 2.2208 -0.159367 17.8799 27.5478
751 2 2.2208 5.39413 23.5742 5.30541
752 2 2.2208 5.41439 29.0379 5.30399
753 1 -1.1104 1.27398 24.9394 1.03368
754 1 -1.1104 1.20363 24.9764 3.84185
755 1 -1.1104 1.0821 21.9767 0.903211
756 1 -1.1104 1.01715 27.6038 1.04217
757 2 2.2208 5.45237 26.3642 2.50655
758 1 -1.1104 1.19047 22.0288 3.84278
759 1 -1.1104 1.15305 27.9135 3.79106
760 1 -1.1104 4.10923 24.8567 1.03471
761 2 2.2208 2.57123 23.5249 2.52161
762 2 2.2208 2.54923 29.1247 2.34009
763 1 -1.1104 3.82333 24.9517 3.883
764 2 2.2208 2.61578 26.3606 5.26309
765 1 -1.1104 3.8786 22.274 1.10264
766 1 -1.1104 3.90721 27.6863 1.00084
767 1 -1.1104 3.99915 22.1247 3.92378
768 1 -1.1104 4.13026 27.8634 3.82212
769 2 2.2208 -0.0878132 29.1779 5.24143
892 1 -1.1104 1.19896 24.8403 6.56942
771 2 2.2208 -0.322931 26.2944 2.43483
770 2 2.2208 -0.217873 23.477 5.14701
899 1 -1.1104 3.88548 22.2715 6.6729
898 1 -1.1104 4.03733 24.9892 6.70288
900 1 -1.1104 4.00517 27.674 6.74293
1673 1 -1.1104 4.02478 47.355 12.1965
1069 2 2.2208 13.7922 23.4228 8.11304
1466 1 -1.1104 1.14298 47.1997 3.923
1656 1 -1.1104 6.6993 47.2849 6.52071
774 1 -1.1104 6.86176 22.395 0.97041
772 1 -1.1104 6.81879 25.1584 1.12498
773 1 -1.1104 6.77514 24.8788 3.77046
777 1 -1.1104 6.79301 27.632 3.91785
775 1 -1.1104 6.65146 27.8307 1.10946
776 1 -1.1104 6.74833 22.1872 3.87615
778 2 2.2208 11.0454 23.4996 5.36551
779 2 2.2208 10.8958 29.0176 5.22726
780 1 -1.1104 12.5633 24.8811 1.05982
781 1 -1.1104 12.4781 24.9398 3.8724
782 1 -1.1104 12.3428 22.1183 1.03326
783 1 -1.1104 12.3457 27.5241 1.04586
784 2 2.2208 11.0114 26.2387 2.36819
785 1 -1.1104 12.377 22.074 4.01835
786 1 -1.1104 12.3801 27.7686 3.8694
787 1 -1.1104 9.70934 24.9654 0.952749
788 2 2.2208 8.264 23.5894 2.46217
789 2 2.2208 8.15993 29.0977 2.3834
790 1 -1.1104 9.68051 24.8697 3.86983
791 2 2.2208 8.30311 26.2487 5.24021
792 1 -1.1104 9.708 22.2074 1.15039
793 1 -1.1104 9.5313 27.8215 1.02783
794 1 -1.1104 9.48273 22.1624 3.86772
795 1 -1.1104 9.52944 27.5012 3.81246
896 1 -1.1104 6.70242 22.0668 6.79685
930 1 -1.1104 9.62058 27.7117 6.616
927 1 -1.1104 12.5518 27.7369 6.70662
897 1 -1.1104 6.79286 27.5566 6.70578
822 2 2.2208 -0.20883 34.7122 5.31722
799 2 2.2208 5.46676 34.6054 5.25868
800 1 -1.1104 1.13038 30.5076 1.10471
801 1 -1.1104 1.27378 36.1572 1.02319
803 1 -1.1104 1.23078 30.599 3.88647
804 1 -1.1104 1.20842 36.0033 3.85034
806 1 -1.1104 1.16757 33.2872 1.06787
807 2 2.2208 5.38174 31.7453 2.41339
808 2 2.2208 5.35006 37.582 2.37318
809 1 -1.1104 1.13863 33.2626 3.88833
811 1 -1.1104 4.00662 30.4781 1.01657
812 1 -1.1104 4.13726 36.1624 1.0105
813 2 2.2208 2.68355 34.6373 2.3274
814 1 -1.1104 3.84835 30.6442 3.65902
815 1 -1.1104 3.87392 36.0531 3.78726
816 2 2.2208 2.62534 32.0062 5.28049
817 2 2.2208 2.67373 37.4832 5.25517
818 1 -1.1104 4.12464 33.2351 0.998185
819 1 -1.1104 4.05398 33.3528 3.92889
821 2 2.2208 -0.140028 31.9467 2.50182
820 2 2.2208 -0.118411 37.4732 2.37877
955 1 -1.1104 3.9707 30.6131 6.68914
953 1 -1.1104 1.22082 33.4375 6.76888
957 1 -1.1104 3.93742 33.3765 6.68408
1481 1 -1.1104 3.97666 47.3204 0.920134
805 1 -1.1104 6.76652 36.2499 3.90885
810 1 -1.1104 6.80844 33.3834 3.80384
824 1 -1.1104 6.77738 30.5521 3.85118
825 1 -1.1104 6.83093 33.3197 1.18203
823 1 -1.1104 6.77363 30.4578 1.088
802 1 -1.1104 6.90009 36.2227 1.00833
826 2 2.2208 11.1569 34.6808 5.2305
827 1 -1.1104 12.4173 30.5493 1.07916
828 1 -1.1104 12.4345 36.1381 1.19505
829 1 -1.1104 12.4714 30.5587 3.91477
830 1 -1.1104 12.4395 36.2579 3.95761
831 1 -1.1104 12.52 33.2992 1.08619
832 2 2.2208 11.0191 32.022 2.5323
833 2 2.2208 10.9636 37.5995 2.48293
834 1 -1.1104 12.4277 33.4325 3.7912
835 1 -1.1104 9.59085 30.6867 1.00441
836 1 -1.1104 9.62875 36.1586 1.18054
837 2 2.2208 8.26883 34.7451 2.41658
838 1 -1.1104 9.77796 30.3635 3.76633
839 1 -1.1104 9.60835 35.9868 3.91035
840 2 2.2208 8.20345 32.0177 5.21295
841 2 2.2208 8.14426 37.4472 5.13563
842 1 -1.1104 9.6472 33.5119 0.960861
843 1 -1.1104 9.64551 33.3264 3.90345
985 1 -1.1104 12.3345 33.176 6.56308
986 1 -1.1104 9.45874 30.5764 6.45806
951 1 -1.1104 6.64002 30.4409 6.81585
987 1 -1.1104 9.63883 36.0277 6.60225