ITEM: TIMESTEP
20000
ITEM: NUMBER OF ATOMS
17700
ITEM: BOX BOUNDS pp pp pp
-3.1966467991264874e-01 2.7659664679911959e+01
-3.8758360125074991e+00 3.3195583601251207e+02
-3.1899713042747885e-01 2.7658997130427455e+01
ITEM: ATOMS id type q x y z
1 2 2.2208 5.27066 1.66942 5.37736
2 1 -1.1104 1.03552 -2.41167 1.0732
3 1 -1.1104 1.03071 3.088 1.04802
6 1 -1.1104 1.15738 -2.32614 3.91449
7 1 -1.1104 1.00828 3.04329 3.85434
10 1 -1.1104 1.03893 0.309449 1.04303
12 2 2.2208 5.23258 -1.09102 2.60296
13 2 2.2208 5.27987 4.38503 2.61331
14 1 -1.1104 1.05453 0.341073 3.9016
16 1 -1.1104 3.84757 -2.50194 1.17575
17 1 -1.1104 3.84658 2.92691 1.23272
18 2 2.2208 2.43057 1.65308 2.53638
19 1 -1.1104 3.84494 -2.42404 3.97718
20 1 -1.1104 3.81766 3.09648 3.99534
21 2 2.2208 2.44297 -1.0985 5.41143
22 2 2.2208 2.38898 4.48168 5.23538
23 1 -1.1104 3.85034 0.213136 1.12345
24 1 -1.1104 3.81256 0.354802 3.97424
9169 2 2.2208 13.6232 18.4489 7.99891
200 2 2.2208 -0.327406 -1.09743 8.1503
173 1 -1.1104 3.74969 3.08918 6.81366
172 1 -1.1104 3.84854 -2.49232 6.71314
170 1 -1.1104 1.04518 0.230305 6.75796
9 1 -1.1104 6.69161 3.11199 3.99763
15 1 -1.1104 6.69938 0.352521 3.997
167 1 -1.1104 1.06625 3.05451 6.73975
320 2 2.2208 8.0188 18.5068 8.02504
174 1 -1.1104 3.75825 0.260156 6.8474
9103 2 2.2208 -0.278272 9.97055 8.11945
375 2 2.2208 -0.261809 18.4072 -0.346161
612 2 2.2208 5.24817 -3.88316 -0.254737
359 2 2.2208 2.42351 -1.04652 -0.247282
5 1 -1.1104 6.70099 3.16805 1.16351
4 1 -1.1104 6.71443 -2.42636 1.20377
11 1 -1.1104 6.58613 0.363022 1.19103
8 1 -1.1104 6.62878 -2.56199 3.93403
31 2 2.2208 10.7848 1.71764 5.37119
32 1 -1.1104 12.2311 -2.57405 1.01553
33 1 -1.1104 12.3004 3.21639 1.22963
34 1 -1.1104 12.1766 -2.52637 3.84462
35 1 -1.1104 12.1045 3.08748 3.96991
36 1 -1.1104 12.2682 0.344982 1.07695
37 2 2.2208 10.8459 -1.03622 2.52116
38 2 2.2208 10.8214 4.53078 2.55562
39 1 -1.1104 12.2747 0.251195 3.84204
40 1 -1.1104 9.38983 -2.49584 1.07294
41 1 -1.1104 9.60165 3.0534 1.29294
42 2 2.2208 8.07941 1.69501 2.54747
43 1 -1.1104 9.48837 -2.57533 3.8257
44 1 -1.1104 9.47432 3.15018 4.08077
45 2 2.2208 8.10804 -1.15754 5.36278
46 2 2.2208 8.03693 4.46122 5.31961
47 1 -1.1104 9.41797 0.339606 1.18204
48 1 -1.1104 9.44458 0.302637 3.96007
208 1 -1.1104 9.49421 -2.47653 6.628
207 1 -1.1104 12.2412 0.412976 6.67133
168 1 -1.1104 6.70838 -2.66892 6.71957
171 1 -1.1104 6.5757 0.214273 6.70664
206 1 -1.1104 12.2673 3.16095 6.78022
169 1 -1.1104 6.56054 3.02542 6.75326
209 1 -1.1104 9.44137 3.06297 6.75726
9096 2 2.2208 -0.279786 12.9214 10.8269
83 1 -1.1104 12.3593 14.3517 12.2565
289 1 -1.1104 6.72009 17.065 9.40344
54 2 2.2208 5.19932 7.26809 5.31895
55 2 2.2208 5.30037 12.8448 5.20227
56 1 -1.1104 1.11466 8.50436 1.18229
58 1 -1.1104 1.1049 8.68026 3.97075
60 1 -1.1104 0.981475 5.82568 1.10847
61 1 -1.1104 0.98129 11.4651 1.17019
66 2 2.2208 5.23533 9.99952 2.47996
67 1 -1.1104 1.14451 5.92058 3.94238
68 1 -1.1104 1.0453 11.3789 3.96375
71 1 -1.1104 3.85237 8.52468 1.09647
72 2 2.2208 2.46461 7.21516 2.55125
73 2 2.2208 2.47398 12.864 2.53267
74 1 -1.1104 3.80131 8.65298 3.91323
75 2 2.2208 2.54371 10.0666 5.38711
76 1 -1.1104 3.80247 5.80641 1.11469
77 1 -1.1104 3.83481 11.3643 1.11903
79 1 -1.1104 3.84266 5.83064 3.89305
80 1 -1.1104 3.79216 11.4755 3.95499
82 2 2.2208 -0.305231 10.0025 2.50597
62 1 -1.1104 1.08933 11.3514 6.74356
239 1 -1.1104 3.79786 5.84352 6.61814
234 1 -1.1104 1.10512 8.64562 6.64908
59 1 -1.1104 6.62105 8.62615 3.81248
69 1 -1.1104 6.60986 5.79876 3.85749
57 1 -1.1104 6.64616 8.628 1.07453
65 1 -1.1104 6.7014 11.5059 6.64403
238 1 -1.1104 3.92352 8.64163 6.82287
78 1 -1.1104 3.94648 11.5165 6.77853
236 1 -1.1104 0.991471 5.80752 6.79504
313 2 2.2208 10.8529 15.8165 7.99904
317 2 2.2208 8.11972 15.7696 10.798
70 1 -1.1104 6.57333 11.4131 3.80264
64 1 -1.1104 6.57061 11.3347 1.10132
63 1 -1.1104 6.57432 5.87898 1.01999
84 2 2.2208 10.8383 7.27407 5.38495
85 2 2.2208 10.8156 12.8638 5.27575
86 1 -1.1104 12.3605 8.79969 1.11767
87 1 -1.1104 12.2396 8.62776 3.98793
88 1 -1.1104 12.2555 5.97098 1.11722
89 1 -1.1104 12.1849 11.4664 1.16618
91 2 2.2208 10.7929 10.0343 2.48903
92 1 -1.1104 12.2117 5.84016 4.002
93 1 -1.1104 12.2226 11.5181 3.91308
94 1 -1.1104 9.53993 8.589 1.0235
95 2 2.2208 8.09679 7.2473 2.43792
96 2 2.2208 8.06698 12.8642 2.45336
97 1 -1.1104 9.34434 8.70342 3.81128
98 2 2.2208 7.87765 10.0246 5.2799
99 1 -1.1104 9.49245 5.80918 1.02321
100 1 -1.1104 9.40531 11.4234 0.970797
102 1 -1.1104 9.33456 5.90578 3.85253
103 1 -1.1104 9.45006 11.4738 3.77653
265 1 -1.1104 12.3071 8.64549 6.66569
267 1 -1.1104 9.46797 8.56805 6.67619
266 1 -1.1104 12.2452 5.86755 6.85169
90 1 -1.1104 12.2158 11.5105 6.76037
101 1 -1.1104 9.42409 11.3524 6.66364
111 1 -1.1104 6.71515 14.2885 6.60879
50 2 2.2208 10.8275 18.6329 10.8239
137 2 2.2208 -0.237761 18.4508 5.32692
135 2 2.2208 -0.319343 15.6571 2.4898
106 2 2.2208 5.23192 18.4874 5.34142
107 1 -1.1104 1.13881 14.1712 1.17336
109 1 -1.1104 1.09053 19.8426 1.04032
113 1 -1.1104 1.17779 14.2532 3.95
114 1 -1.1104 1.19101 19.9234 3.89964
116 1 -1.1104 1.11481 16.9889 1.18095
119 2 2.2208 5.21981 15.6838 2.38697
120 2 2.2208 5.22922 21.3466 2.52076
121 1 -1.1104 1.0852 17.0187 4.00897
123 1 -1.1104 3.7925 14.2822 0.987693
125 1 -1.1104 3.88876 19.9254 1.08673
127 2 2.2208 2.49543 18.4971 2.4626
128 1 -1.1104 3.90574 14.1491 3.73875
129 1 -1.1104 3.91327 19.9329 3.99402
130 2 2.2208 2.52235 15.6954 5.24807
131 2 2.2208 2.48352 21.3762 5.30225
132 1 -1.1104 3.78638 17.0695 1.07581
134 1 -1.1104 3.79269 17.0998 3.88483
302 1 -1.1104 1.1062 19.8622 6.65852
138 1 -1.1104 6.63631 19.8473 1.02844
122 1 -1.1104 6.54104 17.077 3.88762
124 1 -1.1104 3.81163 14.2571 6.54808
117 1 -1.1104 1.05654 17.0277 6.80736
133 1 -1.1104 3.79916 17.0391 6.64674
136 2 2.2208 -0.300258 21.3548 2.47278
311 1 -1.1104 12.3424 19.9117 9.33169
110 1 -1.1104 6.63781 14.1961 1.10726
139 1 -1.1104 6.698 19.8795 3.89207
140 1 -1.1104 6.62126 16.9859 0.972822
115 1 -1.1104 6.71097 14.3845 3.85243
141 2 2.2208 10.9185 18.5412 5.16798
142 1 -1.1104 12.2024 14.158 1.06163
144 1 -1.1104 12.1585 19.8396 1.06263
146 1 -1.1104 12.3397 14.2853 3.85699
147 1 -1.1104 12.2777 19.9117 3.80895
148 1 -1.1104 12.256 17.0285 1.06072
150 2 2.2208 10.8446 15.5831 2.45582
151 2 2.2208 10.8198 21.3356 2.48087
152 1 -1.1104 12.2464 17.0509 3.83336
153 1 -1.1104 9.43931 14.2344 1.08757
155 1 -1.1104 9.34196 19.9244 1.18404
157 2 2.2208 8.03631 18.5095 2.48844
158 1 -1.1104 9.46492 14.2565 3.93748
159 1 -1.1104 9.39493 19.8647 3.96055
160 2 2.2208 8.14232 15.6915 5.26176
161 2 2.2208 8.14549 21.2997 5.30356
162 1 -1.1104 9.48442 17.1433 1.18878
164 1 -1.1104 9.46813 17.0403 3.85487
149 1 -1.1104 12.2373 16.9674 6.57063
143 1 -1.1104 12.1956 14.31 6.62228
156 1 -1.1104 9.4252 19.9542 6.70513
319 1 -1.1104 9.48172 14.3589 9.40208
145 1 -1.1104 12.2165 19.8896 6.57229
154 1 -1.1104 9.52121 14.3737 6.67884
163 1 -1.1104 9.45544 17.1574 6.57826
118 1 -1.1104 6.6492 17.1691 6.68401
28 2 2.2208 2.46924 -3.7393 2.50358
321 1 -1.1104 9.50501 19.9159 12.2925
166 1 -1.1104 1.07356 -2.4017 6.78246
358 2 2.2208 5.18241 1.68039 -0.270128
175 2 2.2208 5.25532 1.67889 10.898
176 1 -1.1104 1.10014 -2.58006 12.3024
177 1 -1.1104 1.12407 3.05018 12.4235
180 1 -1.1104 1.06212 -2.48939 9.6191
181 1 -1.1104 1.03254 3.01923 9.51235
184 1 -1.1104 1.04737 0.30977 12.3659
186 2 2.2208 5.24592 -1.12758 8.14972
187 2 2.2208 5.21488 4.44488 8.15193
188 1 -1.1104 1.10859 0.291613 9.55005
190 1 -1.1104 3.92987 -2.6097 12.3244
191 1 -1.1104 3.89799 3.00283 12.3777
192 2 2.2208 2.37023 1.71613 8.11638
193 1 -1.1104 3.84449 -2.48371 9.44446
194 1 -1.1104 3.83661 3.05096 9.57016
195 2 2.2208 2.49214 -1.08481 10.8995
196 2 2.2208 2.40276 4.47238 11.0191
197 1 -1.1104 3.77603 0.258173 12.2872
198 1 -1.1104 3.97571 0.155621 9.56799
51 2 2.2208 8.02921 -3.84775 2.51073
9172 2 2.2208 13.6297 1.70122 8.09717
9173 2 2.2208 -0.292071 21.3342 8.078
189 1 -1.1104 6.69559 0.300013 9.45085
230 2 2.2208 13.6503 -0.977017 10.8912
297 1 -1.1104 6.87881 14.2273 12.059
210 1 -1.1104 9.45109 0.279796 6.81924
202 2 2.2208 2.45114 -3.82749 8.09485
183 1 -1.1104 6.511 3.04951 9.5892
306 1 -1.1104 6.61948 17.0656 12.2432
205 1 -1.1104 12.228 -2.4909 6.70481
179 1 -1.1104 6.5668 3.08879 12.4111
185 1 -1.1104 6.6064 0.335726 12.325
182 1 -1.1104 6.63598 -2.50728 9.53493
178 1 -1.1104 6.75879 -2.59698 12.2406
211 2 2.2208 10.7759 1.73767 10.977
212 1 -1.1104 12.2784 -2.44784 12.305
213 1 -1.1104 12.2856 3.16544 12.3072
214 1 -1.1104 12.3132 -2.48769 9.5038
215 1 -1.1104 12.2561 2.98174 9.54862
216 1 -1.1104 12.1235 0.339545 12.3515
217 2 2.2208 10.9054 -1.14586 8.11727
218 2 2.2208 10.8819 4.4425 8.16543
219 1 -1.1104 12.2967 0.276976 9.48873
220 1 -1.1104 9.43876 -2.30642 12.3327
221 1 -1.1104 9.42842 3.1109 12.2553
222 2 2.2208 8.05687 1.69318 8.18925
223 1 -1.1104 9.47929 -2.47877 9.46109
224 1 -1.1104 9.35739 3.09087 9.55816
225 2 2.2208 7.9843 -1.12604 10.9154
226 2 2.2208 8.00712 4.45486 10.9412
227 1 -1.1104 9.33283 0.321082 12.3885
228 1 -1.1104 9.46127 0.370514 9.53347
232 2 2.2208 10.8384 -3.79918 10.9173
343 2 2.2208 8.14865 7.34452 13.6166
316 2 2.2208 7.95158 21.2935 10.9741
354 2 2.2208 5.30762 15.711 13.6579
235 1 -1.1104 6.71013 8.68515 6.60309
237 1 -1.1104 6.59509 5.87223 6.80015
315 1 -1.1104 9.41972 17.1485 12.2141
199 1 -1.1104 12.3584 19.9155 12.1047
240 2 2.2208 5.27023 7.30978 10.868
241 2 2.2208 5.40055 12.9106 10.945
242 1 -1.1104 1.01478 8.64256 12.2298
244 1 -1.1104 1.06281 8.59533 9.51859
246 1 -1.1104 1.1107 5.86381 12.3096
247 1 -1.1104 1.15655 11.4157 12.225
250 2 2.2208 5.25484 10.1264 8.09409
251 1 -1.1104 1.00279 5.69108 9.5752
252 1 -1.1104 1.0746 11.4024 9.48936
255 1 -1.1104 3.82407 8.8075 12.3623
256 2 2.2208 2.45967 7.20648 8.15523
257 2 2.2208 2.47031 12.8684 8.11926
258 1 -1.1104 3.8384 8.77319 9.51583
259 2 2.2208 2.48618 10.1031 10.9172
260 1 -1.1104 3.8436 5.99061 12.2225
261 1 -1.1104 3.94884 11.4179 12.4375
262 1 -1.1104 3.88307 5.88121 9.56477
263 1 -1.1104 3.87559 11.6418 9.55649
245 1 -1.1104 6.67357 8.66003 9.41932
323 1 -1.1104 12.3312 17.1649 9.40211
288 1 -1.1104 6.64391 19.8636 9.52872
324 2 2.2208 10.8711 21.2558 8.14753
9090 2 2.2208 13.6383 10.1402 10.8472
269 1 -1.1104 9.47253 5.88876 6.71136
243 1 -1.1104 6.68817 8.71195 12.2114
248 1 -1.1104 6.67892 5.88329 12.289
253 1 -1.1104 6.68154 5.82329 9.53477
249 1 -1.1104 6.69872 11.4573 12.182
254 1 -1.1104 6.78315 11.4582 9.34853
264 1 -1.1104 9.45212 11.4527 9.50179
268 1 -1.1104 9.49322 5.86368 9.57482
270 1 -1.1104 9.45008 11.5546 12.2836
271 1 -1.1104 9.47944 5.86233 12.3193
272 2 2.2208 8.05542 10.1364 10.9492
273 1 -1.1104 9.40679 8.62336 9.50093
274 2 2.2208 8.11239 12.8758 8.0508
275 2 2.2208 8.0771 7.20713 8.08012
276 2 2.2208 10.8176 7.30975 10.9212
277 2 2.2208 10.8811 12.9421 10.8527
278 1 -1.1104 12.3274 8.68833 12.1996
279 1 -1.1104 12.1902 8.69861 9.4722
280 1 -1.1104 12.247 5.81226 12.336
281 1 -1.1104 12.2159 11.5473 12.188
282 2 2.2208 10.8226 10.0235 8.04155
283 1 -1.1104 12.2114 5.83383 9.64285
284 1 -1.1104 12.2 11.5259 9.45543
285 1 -1.1104 9.52855 8.74971 12.2066
229 1 -1.1104 12.2145 14.4184 9.47072
322 1 -1.1104 9.6161 14.3525 12.2501
353 2 2.2208 8.07924 21.2662 -0.271814
312 1 -1.1104 12.1718 17.2399 12.2089
318 1 -1.1104 9.44018 19.9398 9.49017
290 1 -1.1104 6.66053 14.3294 9.33172
314 1 -1.1104 9.4826 17.1883 9.43067
108 1 -1.1104 1.05012 14.2687 6.73249
112 1 -1.1104 6.69399 19.9304 6.68484
364 2 2.2208 8.08843 4.45966 -0.288856
126 1 -1.1104 3.87795 19.8917 6.72971
298 1 -1.1104 1.06579 19.8217 12.3092
295 2 2.2208 5.35117 15.6437 8.04779
294 1 -1.1104 1.04112 14.233 9.46129
293 2 2.2208 5.30865 21.2913 8.0508
292 1 -1.1104 1.03368 16.9757 9.55828
301 1 -1.1104 3.90215 19.7531 9.50595
300 2 2.2208 5.28767 18.4388 10.8802
310 2 2.2208 2.49403 15.5854 10.9159
309 2 2.2208 2.46103 21.3134 10.8118
308 1 -1.1104 3.89514 17.0623 12.2857
307 1 -1.1104 1.22162 17.001 12.3588
291 1 -1.1104 1.16703 19.8918 9.52546
299 1 -1.1104 1.22358 14.2143 12.2886
305 1 -1.1104 3.89483 14.362 9.37222
304 1 -1.1104 3.92551 16.9991 9.49645
303 2 2.2208 2.51633 18.4544 8.1244
286 1 -1.1104 3.86672 19.9048 12.3899
287 1 -1.1104 3.99233 14.2243 12.2439
370 2 2.2208 -0.310249 12.9026 -0.281794
296 1 -1.1104 6.59202 19.8651 12.3376
346 2 2.2208 8.17571 12.92 13.6405
356 2 2.2208 10.908 15.8381 13.683
378 2 2.2208 5.28575 18.4472 -0.328151
329 2 2.2208 13.5802 7.28101 8.12664
9170 2 2.2208 -0.266772 12.8614 5.31381
9104 2 2.2208 -0.295132 7.26048 10.9789
104 2 2.2208 13.6119 12.8262 2.50139
30 2 2.2208 -0.310042 -3.83118 5.30402
53 2 2.2208 13.5792 -3.89813 2.47483
105 2 2.2208 13.6742 7.32824 2.52136
165 2 2.2208 13.5441 18.506 2.35932
330 2 2.2208 13.6368 13.0103 8.08695
9174 2 2.2208 -0.261469 18.4807 10.8742
49 2 2.2208 13.656 1.7616 2.56986
327 2 2.2208 13.587 21.2896 5.25415
9168 2 2.2208 13.6061 15.8327 10.9031
325 2 2.2208 13.5688 4.59407 5.4119
9171 2 2.2208 -0.321961 4.39576 8.20189
352 2 2.2208 10.8599 18.4369 -0.243025
363 2 2.2208 8.08455 -1.03766 -0.233163
450 2 2.2208 8.114 -3.87793 13.6512
452 2 2.2208 13.6337 -3.85782 13.6101
362 2 2.2208 10.883 1.8011 -0.25709
360 2 2.2208 2.3871 4.48232 -0.258637
344 2 2.2208 10.8576 10.1684 13.6121
357 2 2.2208 8.08853 18.516 13.5687
340 2 2.2208 2.48047 12.8676 13.6296
348 2 2.2208 13.6764 15.583 -0.29267
334 2 2.2208 5.23154 4.52308 13.6469
368 2 2.2208 2.48432 10.0136 -0.262364
369 2 2.2208 5.32055 12.8692 -0.291956
377 2 2.2208 2.48565 15.6386 -0.265545
355 2 2.2208 10.8719 21.349 13.6678
380 2 2.2208 5.2018 1.78365 16.5869
381 1 -1.1104 1.13601 -2.52461 17.9448
382 1 -1.1104 1.05744 3.14467 17.9818
385 1 -1.1104 1.03924 -2.55991 15.1573
387 1 -1.1104 1.09591 3.01788 15.1878
393 1 -1.1104 0.998893 0.271481 17.9463
395 2 2.2208 5.22396 -1.09407 19.2918
396 2 2.2208 5.22667 4.53041 19.2535
397 1 -1.1104 1.05614 0.270763 15.1577
401 1 -1.1104 3.83415 -2.56247 17.9682
402 1 -1.1104 3.81853 3.18956 18.0322
403 2 2.2208 2.40785 1.7499 19.4843
404 1 -1.1104 3.83294 -2.4993 15.1594
406 1 -1.1104 3.86417 3.14323 15.1328
408 2 2.2208 2.41415 -1.0943 16.5777
409 2 2.2208 2.46764 4.47821 16.4502
410 1 -1.1104 3.80104 0.367591 17.8999
411 1 -1.1104 3.87199 0.288034 15.1168
337 2 2.2208 10.8567 4.50259 13.6816
609 2 2.2208 10.8994 21.2801 24.9071
639 2 2.2208 8.09568 18.4058 24.9006
405 1 -1.1104 3.79819 -2.55425 20.7613
412 1 -1.1104 3.78631 0.317085 20.7654
394 1 -1.1104 6.62797 0.318128 17.8811
389 1 -1.1104 6.6381 -2.59869 15.0983
383 1 -1.1104 6.60378 -2.47076 17.9053
392 1 -1.1104 6.63255 3.14397 20.6771
390 1 -1.1104 6.5305 -2.58455 20.6354
388 1 -1.1104 0.924721 3.06521 20.7628
407 1 -1.1104 3.79297 3.16262 20.739
398 1 -1.1104 1.17158 0.291769 20.7186
646 2 2.2208 13.6259 1.75077 24.899
336 2 2.2208 10.8879 -1.07396 13.7636
333 2 2.2208 2.46161 1.64324 13.7237
399 1 -1.1104 6.7196 0.208803 15.0753
384 1 -1.1104 6.70223 3.12154 17.9436
391 1 -1.1104 6.67375 3.00675 15.1893
423 2 2.2208 10.835 1.72506 16.5049
424 1 -1.1104 12.2442 -2.49976 17.9098
425 1 -1.1104 12.3107 3.11024 17.9061
426 1 -1.1104 12.2628 -2.46388 15.1288
428 1 -1.1104 12.2392 3.18039 15.1918
430 1 -1.1104 12.2723 0.323483 17.8214
431 2 2.2208 10.8067 -1.13866 19.2364
432 2 2.2208 10.8731 4.55345 19.3134
433 1 -1.1104 12.354 0.367634 15.1281
435 1 -1.1104 9.45505 -2.47065 17.8142
436 1 -1.1104 9.46373 3.16343 17.9025
437 2 2.2208 8.06475 1.73746 19.2238
438 1 -1.1104 9.46151 -2.54515 15.0526
440 1 -1.1104 9.45177 3.10887 15.034
442 2 2.2208 8.02544 -1.08656 16.4982
443 2 2.2208 8.0982 4.51858 16.5073
444 1 -1.1104 9.4472 0.25961 17.9313
445 1 -1.1104 9.57827 0.289944 15.1615
427 1 -1.1104 12.0349 -2.52593 20.6379
441 1 -1.1104 9.3916 3.12935 20.6422
434 1 -1.1104 12.2837 0.322593 20.615
446 1 -1.1104 9.55459 0.278279 20.6501
429 1 -1.1104 12.1593 3.17103 20.7716
400 1 -1.1104 6.62022 0.288538 20.6291
640 2 2.2208 13.6699 -3.84901 24.8764
439 1 -1.1104 9.36378 -2.5467 20.676
614 2 2.2208 2.43133 -3.85313 24.9016
341 2 2.2208 13.5989 7.31978 13.7142
456 2 2.2208 5.31212 7.33366 16.3332
457 2 2.2208 5.35346 12.9227 16.3825
458 1 -1.1104 1.16797 8.64487 17.7892
460 1 -1.1104 1.20156 8.69924 15.0506
464 1 -1.1104 1.13847 5.81918 17.773
465 1 -1.1104 1.11707 11.464 17.8257
468 2 2.2208 5.28308 10.1677 19.2189
469 1 -1.1104 1.01115 5.8971 14.9683
471 1 -1.1104 1.10082 11.608 14.9945
477 1 -1.1104 3.91799 8.80679 17.7728
478 2 2.2208 2.51424 7.28343 19.2006
479 2 2.2208 2.49362 12.8936 19.2378
480 1 -1.1104 3.90183 8.66189 15.0333
482 2 2.2208 2.49136 10.1768 16.4729
483 1 -1.1104 3.9349 5.96988 17.7521
484 1 -1.1104 3.92733 11.6091 17.911
485 1 -1.1104 3.85475 5.84148 15.0497
487 1 -1.1104 4.01013 11.4585 15.1253
488 1 -1.1104 3.82327 11.5513 20.6275
580 1 -1.1104 12.2849 14.2698 26.259
481 1 -1.1104 3.91993 8.72432 20.4897
459 1 -1.1104 6.73272 8.86339 17.9045
476 1 -1.1104 6.49289 11.5223 20.5966
332 2 2.2208 5.27424 -1.07671 13.7178
472 1 -1.1104 1.10786 11.4889 20.6554
461 1 -1.1104 0.994007 8.67276 20.6965
470 1 -1.1104 1.10476 5.86701 20.6776
486 1 -1.1104 3.84398 5.9536 20.5791
462 1 -1.1104 6.72973 8.71736 15.0831
473 1 -1.1104 6.69745 5.89213 14.9966
475 1 -1.1104 6.79993 11.54 15.0341
467 1 -1.1104 6.76677 11.5807 17.7181
466 1 -1.1104 6.7122 5.90589 17.8026
492 2 2.2208 10.9071 7.36123 16.4692
493 2 2.2208 10.9108 12.9642 16.4123
494 1 -1.1104 12.2996 8.82203 17.8069
495 1 -1.1104 12.2686 8.75592 14.9672
497 1 -1.1104 12.1878 5.90759 17.9835
498 1 -1.1104 12.28 11.5445 17.9646
499 2 2.2208 10.8704 10.2226 19.2921
500 1 -1.1104 12.3827 5.95834 15.1835
502 1 -1.1104 12.3553 11.6652 15.0876
504 1 -1.1104 9.47206 8.83821 17.8769
505 2 2.2208 8.04323 7.39041 19.2083
506 2 2.2208 8.09971 12.9147 19.2669
507 1 -1.1104 9.45675 8.76884 14.9428
509 2 2.2208 8.11886 10.1561 16.5052
510 1 -1.1104 9.4888 6.00293 17.8967
511 1 -1.1104 9.48682 11.5964 17.8914
512 1 -1.1104 9.50742 5.96559 15.1205
514 1 -1.1104 9.59462 11.5654 14.9803
515 1 -1.1104 9.40743 11.4859 20.7009
501 1 -1.1104 12.3462 6.08585 20.7302
513 1 -1.1104 9.38578 5.90416 20.6427
463 1 -1.1104 6.66036 8.81506 20.6172
554 1 -1.1104 12.3783 14.2529 23.4654
496 1 -1.1104 12.2209 8.72204 20.6311
508 1 -1.1104 9.3485 8.71817 20.6845
503 1 -1.1104 12.317 11.5291 20.6189
678 1 -1.1104 9.61744 16.9975 26.3061
676 2 2.2208 -0.273374 10.0442 24.9324
677 2 2.2208 -0.256121 12.8567 22.067
518 2 2.2208 13.6322 18.4541 24.9521
418 2 2.2208 -0.338046 7.334 22.0652
519 2 2.2208 5.32918 18.6107 16.4762
520 1 -1.1104 1.11298 14.2399 17.827
521 1 -1.1104 1.01613 19.8698 17.9802
524 1 -1.1104 1.10196 14.3474 15.1138
526 1 -1.1104 1.02502 19.8675 15.1511
532 1 -1.1104 1.03923 17.0898 17.8633
534 2 2.2208 5.38558 15.6493 19.2869
535 2 2.2208 5.2982 21.271 19.3737
536 1 -1.1104 1.0818 17.0924 15.1822
540 1 -1.1104 3.90602 14.3331 17.7735
541 1 -1.1104 3.92931 19.8925 17.9692
542 2 2.2208 2.48468 18.4286 19.274
543 1 -1.1104 3.90307 14.2767 14.9912
545 1 -1.1104 3.92046 19.8921 15.045
547 2 2.2208 2.50092 15.7453 16.5428
548 2 2.2208 2.441 21.3117 16.6186
549 1 -1.1104 3.94282 17.0948 17.9004
550 1 -1.1104 3.93003 17.105 15.207
490 2 2.2208 13.6636 7.35829 19.2391
551 1 -1.1104 3.93622 17.0833 20.5937
527 1 -1.1104 1.11522 19.8554 20.6449
546 1 -1.1104 3.81888 19.8452 20.7218
544 1 -1.1104 3.88605 14.302 20.6927
522 1 -1.1104 6.80974 14.3191 17.853
537 1 -1.1104 1.07044 17.0371 20.6036
350 2 2.2208 5.19012 21.3589 13.7206
573 1 -1.1104 9.55188 19.7134 20.638
523 1 -1.1104 6.76548 19.8842 17.9255
528 1 -1.1104 6.71557 14.3326 14.8088
533 1 -1.1104 6.83616 17.0452 18.0007
530 1 -1.1104 6.70978 20.0769 15.1575
538 1 -1.1104 6.6709 17.225 14.995
555 2 2.2208 10.9038 18.6238 16.3913
556 1 -1.1104 12.4158 14.2945 17.7633
557 1 -1.1104 12.3183 19.8355 17.8994
558 1 -1.1104 12.2195 14.417 15.0603
560 1 -1.1104 12.2841 19.9607 15.0243
562 1 -1.1104 12.3535 17.0784 17.7614
563 2 2.2208 10.9317 15.6369 19.179
564 2 2.2208 10.9093 21.2829 19.3156
565 1 -1.1104 12.2691 17.2616 15.0792
567 1 -1.1104 9.49964 14.3746 17.829
568 1 -1.1104 9.53352 20.0388 17.767
569 2 2.2208 8.09304 18.493 19.2527
570 1 -1.1104 9.46376 14.3725 15.0704
572 1 -1.1104 9.52833 20.038 15.1347
574 2 2.2208 8.09358 15.8174 16.4089
575 2 2.2208 8.06636 21.364 16.5382
576 1 -1.1104 9.4861 17.2398 17.7847
577 1 -1.1104 9.47476 17.2153 15.0088
561 1 -1.1104 12.321 19.8678 20.6837
578 1 -1.1104 9.58086 17.0856 20.5544
531 1 -1.1104 6.61688 19.97 20.8453
571 1 -1.1104 9.53704 14.1953 20.6195
559 1 -1.1104 12.3204 14.2926 20.6701
539 1 -1.1104 6.7457 17.1169 20.6858
566 1 -1.1104 12.3273 17.0399 20.6182
386 1 -1.1104 1.10527 -2.47885 20.7687
491 2 2.2208 -0.366296 4.49205 19.3248
615 1 -1.1104 12.2657 17.0141 26.2119
702 2 2.2208 13.6055 7.40612 24.7569
583 2 2.2208 5.25278 1.74444 22.065
584 1 -1.1104 0.924792 -2.44399 23.4309
585 1 -1.1104 1.01901 3.10739 23.4516
588 1 -1.1104 1.11301 -2.4353 26.2647
589 1 -1.1104 1.03336 3.12078 26.1936
592 1 -1.1104 1.05026 0.25019 23.5432
594 2 2.2208 5.29521 -1.09873 24.9268
595 2 2.2208 5.29633 4.49919 24.8702
596 1 -1.1104 1.07252 0.433279 26.2456
598 1 -1.1104 3.85324 -2.50201 23.4907
599 1 -1.1104 3.90395 3.03087 23.4901
600 2 2.2208 2.46013 1.72956 24.8588
601 1 -1.1104 3.83115 -2.56687 26.3123
602 1 -1.1104 3.87466 3.13929 26.3822
603 2 2.2208 2.44979 -1.06997 22.1144
604 2 2.2208 2.42556 4.54415 22.0393
605 1 -1.1104 3.88657 0.315722 23.4984
606 1 -1.1104 3.78243 0.294372 26.282
590 1 -1.1104 6.6713 -2.48272 26.3575
591 1 -1.1104 6.69068 2.9831 26.3395
373 2 2.2208 8.07538 10.0043 27.6237
637 1 -1.1104 9.61666 14.2378 23.4507
453 2 2.2208 -0.304118 7.33553 16.434
673 2 2.2208 8.13885 15.6758 22.0162
579 1 -1.1104 12.264 19.8465 23.5082
674 2 2.2208 8.10387 21.3738 22.1492
638 1 -1.1104 9.39481 19.7961 23.3857
587 1 -1.1104 6.74744 3.0309 23.4935
593 1 -1.1104 6.68594 0.223468 23.5034
586 1 -1.1104 6.70668 -2.53286 23.4805
597 1 -1.1104 6.63073 0.237656 26.3382
619 2 2.2208 10.7927 1.72735 22.0943
620 1 -1.1104 12.306 -2.51246 23.3576
621 1 -1.1104 12.3653 3.12284 23.5326
622 1 -1.1104 12.1941 -2.48101 26.2735
623 1 -1.1104 12.2994 3.26574 26.3612
624 1 -1.1104 12.2733 0.275844 23.468
625 2 2.2208 10.8095 -0.969213 24.8561
626 2 2.2208 10.8331 4.5827 24.8702
627 1 -1.1104 12.1557 0.39385 26.291
628 1 -1.1104 9.54725 -2.54846 23.4721
629 1 -1.1104 9.41367 3.22531 23.4922
630 2 2.2208 8.11394 1.6894 24.8788
631 1 -1.1104 9.32031 -2.41678 26.2568
632 1 -1.1104 9.51061 3.11947 26.2908
633 2 2.2208 8.00969 -1.09299 22.0835
634 2 2.2208 8.04059 4.49513 22.0291
635 1 -1.1104 9.43984 0.300282 23.4181
636 1 -1.1104 9.45557 0.366735 26.2792
581 1 -1.1104 12.3467 19.8316 26.287
607 1 -1.1104 12.3319 17.0517 23.4403
516 2 2.2208 13.614 1.64888 19.278
529 1 -1.1104 6.79318 14.3386 20.5952
422 2 2.2208 13.6448 18.5183 19.2722
648 2 2.2208 5.31095 7.35411 21.9721
649 2 2.2208 5.24141 12.9652 22.1437
650 1 -1.1104 0.974661 8.73865 23.5288
652 1 -1.1104 1.1167 8.7235 26.3455
654 1 -1.1104 1.09173 5.9037 23.4973
655 1 -1.1104 1.19684 11.5073 23.4988
658 2 2.2208 5.25878 10.0343 24.8803
659 1 -1.1104 1.08056 5.93645 26.2876
660 1 -1.1104 1.13426 11.548 26.3447
663 1 -1.1104 3.81048 8.66609 23.4504
664 2 2.2208 2.4779 7.24566 24.7748
665 2 2.2208 2.52052 12.8706 24.8238
666 1 -1.1104 3.75254 8.6555 26.1862
667 2 2.2208 2.56845 10.1526 22.0272
668 1 -1.1104 3.88263 5.90615 23.3606
669 1 -1.1104 3.89551 11.4607 23.4404
670 1 -1.1104 3.84849 5.83665 26.1984
671 1 -1.1104 3.79752 11.537 26.2779
656 1 -1.1104 6.62877 5.92424 23.4773
661 1 -1.1104 6.65901 5.86726 26.2177
675 1 -1.1104 9.5073 16.9983 23.5249
553 2 2.2208 10.93 18.4429 22.0597
721 1 -1.1104 6.60124 17.0214 23.4597
474 1 -1.1104 6.66012 5.95025 20.6764
651 1 -1.1104 6.66453 8.65892 23.4211
657 1 -1.1104 6.66868 11.4832 23.4106
662 1 -1.1104 6.73808 11.5385 26.3356
653 1 -1.1104 6.59689 8.63746 26.2983
679 1 -1.1104 9.55626 11.4489 26.2505
680 1 -1.1104 9.45629 5.92893 26.2807
681 1 -1.1104 9.36949 11.4272 23.42
682 1 -1.1104 9.31705 5.95404 23.4598
683 2 2.2208 8.02165 10.0838 22.0474
684 1 -1.1104 9.51341 8.71647 26.1941
685 2 2.2208 8.08202 12.8488 24.8641
686 2 2.2208 7.97525 7.30957 24.866
687 2 2.2208 10.757 7.35204 22.0531
688 2 2.2208 10.9446 12.8607 22.0253
689 1 -1.1104 12.2911 8.72017 23.4251
690 1 -1.1104 12.2485 8.76643 26.3075
691 1 -1.1104 12.1437 5.94007 23.4035
692 1 -1.1104 12.2909 11.4848 23.4061
693 2 2.2208 10.8565 10.0922 24.8358
694 1 -1.1104 12.3263 5.93604 26.1207
695 1 -1.1104 12.2875 11.5403 26.2211
696 1 -1.1104 9.43987 8.68478 23.5141
451 2 2.2208 13.6182 -1.12789 16.4976
710 1 -1.1104 6.65592 19.8385 23.5782
9201 2 2.2208 -0.256778 15.642 13.6859
706 1 -1.1104 6.7347 17.0485 26.2944
525 1 -1.1104 1.09623 14.2808 20.7082
421 2 2.2208 -0.298913 21.2626 19.3702
9202 2 2.2208 -0.279992 21.3656 13.6782
701 2 2.2208 2.47003 15.734 21.9939
703 1 -1.1104 3.88199 19.8289 23.4174
705 1 -1.1104 3.94993 14.3405 23.4946
707 1 -1.1104 1.14468 19.7962 26.3113
708 1 -1.1104 1.08648 16.9672 26.3264
709 1 -1.1104 1.11644 14.2217 26.2664
711 2 2.2208 5.32937 21.2985 24.9219
712 2 2.2208 5.30159 15.6792 24.8777
714 1 -1.1104 1.10462 19.8674 23.4251
715 1 -1.1104 1.136 14.3724 23.3994
716 2 2.2208 5.33849 18.4441 22.0579
717 1 -1.1104 3.94957 19.8533 26.2922
718 2 2.2208 2.51188 18.4193 24.8301
719 1 -1.1104 3.94292 17.0222 26.3203
720 1 -1.1104 4.0089 14.2183 26.1795
722 1 -1.1104 1.13648 17.141 23.4874
723 1 -1.1104 3.90263 17.0716 23.4747
724 2 2.2208 2.49884 21.3036 22.1664
713 1 -1.1104 6.74611 14.2747 23.4015
704 1 -1.1104 6.72221 14.2109 26.231
644 1 -1.1104 6.77637 19.9047 26.2871
698 2 2.2208 -0.287353 21.1888 24.9748
672 1 -1.1104 9.45138 19.8198 26.2879
608 2 2.2208 10.9077 15.6154 24.8657
647 1 -1.1104 9.46527 14.2163 26.274
376 2 2.2208 13.6377 10.1802 27.5854
374 2 2.2208 10.8471 12.7261 27.658
699 2 2.2208 -0.246297 15.6598 24.8947
454 2 2.2208 -0.255823 10.1266 19.302
351 2 2.2208 8.0707 15.6305 27.6705
618 2 2.2208 -0.294776 4.51372 24.8095
9450 2 2.2208 13.6446 4.63138 22.0922
645 2 2.2208 13.5816 -1.0547 22.029
379 2 2.2208 2.57981 21.2489 27.6513
9193 2 2.2208 -0.231901 10.1406 13.677
367 2 2.2208 5.17821 7.16234 27.6243
372 2 2.2208 10.9389 7.29317 27.5991
347 2 2.2208 2.50327 18.446 13.7448
338 2 2.2208 2.46026 7.2582 13.7363
335 2 2.2208 8.04091 1.6891 13.7045
339 2 2.2208 5.32626 10.0998 13.6582
725 2 2.2208 5.33994 24.1141 5.28745
726 2 2.2208 5.31752 29.7572 5.32261
727 1 -1.1104 1.14965 25.4934 1.19575
728 1 -1.1104 1.173 25.5344 3.91443
729 1 -1.1104 1.03714 22.6442 1.05419
730 1 -1.1104 1.11388 28.2831 1.18074
731 2 2.2208 5.33194 26.9555 2.44438
732 1 -1.1104 1.22623 22.7846 3.8605
733 1 -1.1104 1.03559 28.3849 3.99045
734 1 -1.1104 3.93285 25.5816 1.20909
735 2 2.2208 2.56436 24.1608 2.49297
736 2 2.2208 2.53383 29.7733 2.55217
737 1 -1.1104 3.91356 25.5751 4.00385
738 2 2.2208 2.53729 26.9819 5.33969
739 1 -1.1104 3.95038 22.7167 1.07659
740 1 -1.1104 3.96865 28.3534 1.08561
741 1 -1.1104 3.99136 22.7942 3.8443
742 1 -1.1104 3.86846 28.3509 3.89832
872 1 -1.1104 3.92808 25.5583 6.71239
868 1 -1.1104 1.15727 22.7672 6.65072
874 1 -1.1104 3.86912 28.3266 6.73628
867 1 -1.1104 6.63183 25.4813 6.68337
873 1 -1.1104 3.98607 22.6813 6.62203
9838 2 2.2208 -0.148681 46.5258 10.8278
1095 2 2.2208 5.36901 46.5078 -0.303659
744 2 2.2208 -0.212706 24.17 5.27026
1649 1 -1.1104 12.3766 47.7767 6.67191
746 1 -1.1104 6.63484 25.4921 1.18103
749 1 -1.1104 6.72036 28.2434 1.01899
750 1 -1.1104 6.72571 22.7193 3.92408
747 1 -1.1104 6.76037 25.4837 3.95401
751 1 -1.1104 6.66925 28.3921 3.88748
748 1 -1.1104 6.6683 22.6729 1.19961
752 2 2.2208 10.9124 24.113 5.33021
753 2 2.2208 10.9312 29.6504 5.45355
754 1 -1.1104 12.3382 25.43 1.03843
755 1 -1.1104 12.2814 25.5198 3.89094
756 1 -1.1104 12.2807 22.5927 1.13965
757 1 -1.1104 12.3345 28.3221 1.10657
758 2 2.2208 10.8161 26.8403 2.51054
759 1 -1.1104 12.2538 22.6952 3.92902
760 1 -1.1104 12.323 28.2906 3.90849
761 1 -1.1104 9.44815 25.4647 1.08043
762 2 2.2208 8.08355 24.0752 2.42367
763 2 2.2208 8.16349 29.7759 2.53571
764 1 -1.1104 9.5296 25.418 3.87239
765 2 2.2208 8.00512 26.8618 5.31592
766 1 -1.1104 9.42797 22.6906 1.00718
767 1 -1.1104 9.52242 28.3589 1.08775
768 1 -1.1104 9.47229 22.6193 3.78692
769 1 -1.1104 9.4884 28.171 3.98234
870 1 -1.1104 6.71149 22.7384 6.72405
871 1 -1.1104 6.71473 28.32 6.71915
902 1 -1.1104 9.4416 25.5569 6.7352
904 1 -1.1104 9.551 28.3131 6.80255
899 1 -1.1104 12.2396 25.6445 6.74154
900 1 -1.1104 12.2478 22.7027 6.67129
9721 2 2.2208 -0.266661 29.5577 10.8937
843 2 2.2208 -0.256777 43.7559 2.3983
9723 2 2.2208 -0.214336 24.0876 10.8711
9845 2 2.2208 13.6672 24.1222 13.6808
773 2 2.2208 5.30221 35.3358 5.39297
774 1 -1.1104 1.13014 31.0466 1.05482
775 1 -1.1104 1.10355 36.6039 1.23448
777 1 -1.1104 0.987088 31.1132 3.8927
778 1 -1.1104 1.19995 36.668 3.90997
780 1 -1.1104 1.10081 33.8054 1.09262
781 2 2.2208 5.23306 32.643 2.5504
782 2 2.2208 5.39143 37.9822 2.50709
783 1 -1.1104 1.15608 33.9149 3.94538
785 1 -1.1104 4.05078 31.1721 1.1794
786 1 -1.1104 3.96964 36.7981 1.03362
787 2 2.2208 2.45893 35.2848 2.56292
788 1 -1.1104 3.80266 31.1838 3.89876
789 1 -1.1104 4.00793 36.6815 3.9275
790 2 2.2208 2.46137 32.4885 5.31188
791 2 2.2208 2.55589 38.1626 5.2693
792 1 -1.1104 3.86889 33.9447 1.05335
793 1 -1.1104 3.93953 33.9963 3.89157
929 1 -1.1104 3.90633 31.1511 6.74014
795 2 2.2208 -0.250678 38.0669 2.44894
930 1 -1.1104 3.93707 36.6508 6.67395
796 2 2.2208 -0.314946 32.4202 2.46397
1024 2 2.2208 8.15954 40.8642 8.12145
1038 1 -1.1104 12.4202 42.1814 12.1963
784 1 -1.1104 6.71048 33.9856 3.9472
797 1 -1.1104 6.81743 31.0591 1.03303
925 1 -1.1104 6.78794 31.0003 6.65531
799 1 -1.1104 6.69123 33.9183 1.25983
776 1 -1.1104 6.7944 36.6775 1.04729
779 1 -1.1104 6.77023 36.7471 3.96219
798 1 -1.1104 6.657 31.192 3.90332
928 1 -1.1104 6.70836 33.873 6.72473
800 2 2.2208 10.946 35.2984 5.36252
801 1 -1.1104 12.3198 31.0836 1.18292
802 1 -1.1104 12.363 36.6023 1.03855
803 1 -1.1104 12.2934 31.0543 3.98471
804 1 -1.1104 12.3986 36.5937 3.89421
805 1 -1.1104 12.3128 33.7903 1.20087