ITEM: TIMESTEP
80000
ITEM: NUMBER OF ATOMS
17700
ITEM: BOX BOUNDS pp pp pp
-3.1467099678034272e-01 2.7654670996780226e+01
-3.8692230090045556e+00 3.3194922300900055e+02
-3.1474936130240710e-01 2.7654749361302351e+01
ITEM: ATOMS id type q x y z
1 2 2.2208 5.21033 1.69832 5.30927
2 1 -1.1104 0.967426 -2.42796 0.906795
3 1 -1.1104 1.05156 3.04067 1.05298
6 1 -1.1104 1.05208 -2.41424 3.75423
7 1 -1.1104 1.08088 3.0764 3.95314
10 1 -1.1104 1.09669 0.253309 1.00035
12 2 2.2208 5.26138 -1.07504 2.40056
13 2 2.2208 5.29141 4.49602 2.44238
14 1 -1.1104 1.01848 0.29911 3.85097
16 1 -1.1104 3.81955 -2.49375 0.993382
17 1 -1.1104 3.91311 3.2118 1.01264
18 2 2.2208 2.39995 1.66186 2.51527
19 1 -1.1104 3.78783 -2.46918 3.83396
20 1 -1.1104 3.88639 3.13149 3.84057
21 2 2.2208 2.41325 -1.06535 5.20212
22 2 2.2208 2.4922 4.4975 5.13248
23 1 -1.1104 3.90544 0.283848 1.04853
24 1 -1.1104 3.81921 0.351333 3.84124
9 1 -1.1104 6.61818 3.02643 3.86845
5 1 -1.1104 6.76703 3.10274 1.10789
15 1 -1.1104 6.55083 0.245099 3.74059
8 1 -1.1104 6.57274 -2.58527 3.66607
11 1 -1.1104 6.67475 0.394234 1.03846
4 1 -1.1104 6.62578 -2.43115 1.01109
167 1 -1.1104 1.0253 3.15747 6.64401
169 1 -1.1104 6.61774 3.08286 6.58723
172 1 -1.1104 3.79018 -2.39739 6.6876
166 1 -1.1104 1.02695 -2.52232 6.59144
168 1 -1.1104 6.64638 -2.39559 6.563
203 2 2.2208 5.34836 -3.88202 10.8253
174 1 -1.1104 3.76009 0.341262 6.62076
173 1 -1.1104 3.80257 3.12981 6.62312
9177 2 2.2208 13.6366 18.3994 13.5605
202 2 2.2208 2.48419 -3.9141 7.98466
49 2 2.2208 13.6161 1.79425 2.35775
31 2 2.2208 10.811 1.71926 5.14951
32 1 -1.1104 12.246 -2.49659 1.00431
33 1 -1.1104 12.2215 3.16598 0.919274
34 1 -1.1104 12.3481 -2.40408 3.77999
35 1 -1.1104 12.196 3.12653 3.74084
36 1 -1.1104 12.2167 0.36889 1.11687
37 2 2.2208 10.8447 -1.04178 2.33368
38 2 2.2208 10.801 4.53499 2.48459
39 1 -1.1104 12.21 0.326164 3.89951
40 1 -1.1104 9.48246 -2.59872 1.02021
41 1 -1.1104 9.45698 2.9461 1.04827
42 2 2.2208 8.07426 1.72621 2.55529
43 1 -1.1104 9.38369 -2.51169 3.72136
44 1 -1.1104 9.41572 3.13116 3.8323
45 2 2.2208 7.95132 -1.05932 5.13512
46 2 2.2208 8.07537 4.50165 5.25909
47 1 -1.1104 9.47974 0.223784 1.03402
48 1 -1.1104 9.34782 0.242104 3.83212
344 2 2.2208 10.819 10.1319 13.5868
325 2 2.2208 13.5935 4.47106 5.20454
9167 2 2.2208 13.6087 -1.10328 5.14097
209 1 -1.1104 9.40788 3.10717 6.57324
208 1 -1.1104 9.37759 -2.42914 6.51432
207 1 -1.1104 12.1772 0.249297 6.5633
206 1 -1.1104 12.1619 3.05254 6.52547
54 2 2.2208 5.32714 7.22392 5.17274
55 2 2.2208 5.29227 12.9461 5.17024
56 1 -1.1104 1.10394 8.62862 0.995831
58 1 -1.1104 0.948683 8.58912 3.7534
60 1 -1.1104 1.02423 5.75133 1.01744
61 1 -1.1104 1.00546 11.4095 1.10473
66 2 2.2208 5.2667 10.0602 2.37393
67 1 -1.1104 1.08254 5.8481 3.76422
68 1 -1.1104 0.994156 11.4483 3.88535
71 1 -1.1104 3.86116 8.80795 0.919561
72 2 2.2208 2.48564 7.28733 2.38355
73 2 2.2208 2.48757 12.8927 2.45887
74 1 -1.1104 3.72181 8.69587 3.77377
75 2 2.2208 2.50074 10.0737 5.24383
76 1 -1.1104 3.90648 5.93056 1.04129
77 1 -1.1104 3.84263 11.5211 1.01413
79 1 -1.1104 3.8604 5.87464 3.64813
80 1 -1.1104 3.83294 11.5626 3.78771
57 1 -1.1104 6.62911 8.70582 0.969501
59 1 -1.1104 6.55762 8.61085 3.87949
63 1 -1.1104 6.62683 5.88946 0.932297
69 1 -1.1104 6.65586 5.88796 3.75325
64 1 -1.1104 6.57114 11.5568 0.940094
70 1 -1.1104 6.59888 11.4349 3.81984
234 1 -1.1104 1.15226 8.60994 6.51351
235 1 -1.1104 6.68326 8.68256 6.65405
237 1 -1.1104 6.59114 5.78766 6.6151
236 1 -1.1104 1.00247 5.83932 6.62183
239 1 -1.1104 3.81684 5.8959 6.57778
313 2 2.2208 10.8332 15.5105 8.07519
65 1 -1.1104 6.6793 11.4854 6.56307
238 1 -1.1104 3.95173 8.74339 6.58559
62 1 -1.1104 1.01267 11.5104 6.70062
84 2 2.2208 10.8378 7.35333 5.27381
85 2 2.2208 10.7812 12.8097 5.09241
86 1 -1.1104 12.2828 8.80897 1.00671
87 1 -1.1104 12.2513 8.67074 3.92269
88 1 -1.1104 12.2119 5.96213 1.03279
89 1 -1.1104 12.159 11.5092 0.956914
91 2 2.2208 10.8247 10.0588 2.394
92 1 -1.1104 12.269 5.96904 3.89077
93 1 -1.1104 12.2858 11.4562 3.75843
94 1 -1.1104 9.47499 8.63802 1.11921
95 2 2.2208 8.01316 7.31945 2.409
96 2 2.2208 8.05878 12.918 2.29372
97 1 -1.1104 9.41753 8.7232 3.91431
98 2 2.2208 8.02542 10.1469 5.23496
99 1 -1.1104 9.49677 5.82868 1.03843
100 1 -1.1104 9.33591 11.461 1.00529
102 1 -1.1104 9.39278 5.92873 3.8642
103 1 -1.1104 9.43018 11.4481 3.72925
326 2 2.2208 13.6926 10.0916 5.1832
340 2 2.2208 2.45822 12.9226 13.5321
101 1 -1.1104 9.43555 11.4998 6.55371
266 1 -1.1104 12.2369 5.89274 6.60394
90 1 -1.1104 12.182 11.4692 6.5264
267 1 -1.1104 9.39909 8.68095 6.67242
265 1 -1.1104 12.1957 8.64387 6.61356
319 1 -1.1104 9.38503 14.227 9.35689
106 2 2.2208 5.32593 18.4669 5.22954
107 1 -1.1104 0.983316 14.1248 0.989784
109 1 -1.1104 1.08689 19.9399 1.03276
113 1 -1.1104 1.01548 14.2643 3.94101
114 1 -1.1104 1.12028 19.8948 3.78778
116 1 -1.1104 1.01165 16.9773 0.973043
119 2 2.2208 5.25623 15.7604 2.39131
120 2 2.2208 5.36885 21.2582 2.43289
121 1 -1.1104 1.12708 17.1415 3.70308
123 1 -1.1104 3.72481 14.3019 1.02555
125 1 -1.1104 3.89168 19.7452 0.965111
127 2 2.2208 2.52228 18.538 2.38092
128 1 -1.1104 3.80027 14.2899 3.82456
129 1 -1.1104 3.9773 19.8857 3.77867
130 2 2.2208 2.50608 15.8118 5.23127
131 2 2.2208 2.54858 21.3033 5.31209
132 1 -1.1104 3.81941 17.0289 0.998291
134 1 -1.1104 3.89893 17.154 3.86445
139 1 -1.1104 6.74495 19.8864 3.77786
122 1 -1.1104 6.65819 17.0959 3.83653
110 1 -1.1104 6.42536 14.2894 0.970021
115 1 -1.1104 6.68354 14.2699 3.65431
140 1 -1.1104 6.75244 17.0837 1.02971
133 1 -1.1104 3.90138 17.0943 6.59218
302 1 -1.1104 1.02841 19.8043 6.57359
124 1 -1.1104 3.84426 14.3307 6.64214
126 1 -1.1104 3.94302 19.8915 6.67939
117 1 -1.1104 1.00179 17.1113 6.54028
118 1 -1.1104 6.69985 17.059 6.56335
112 1 -1.1104 6.74199 19.9469 6.6239
108 1 -1.1104 1.00697 14.2667 6.60514
138 1 -1.1104 6.62691 19.797 1.0227
111 1 -1.1104 6.7225 14.2989 6.45784
141 2 2.2208 10.9171 18.3791 5.17842
142 1 -1.1104 12.2333 14.2638 0.875719
144 1 -1.1104 12.2937 19.9368 0.990752
146 1 -1.1104 12.0812 14.2798 3.75184
147 1 -1.1104 12.3743 19.8616 3.76533
148 1 -1.1104 12.1993 17.1013 0.87571
150 2 2.2208 10.8912 15.7329 2.28584
151 2 2.2208 10.8887 21.3325 2.35038
152 1 -1.1104 12.2233 17.0945 3.76894
153 1 -1.1104 9.43124 14.2725 0.942972
155 1 -1.1104 9.55228 19.963 1.03334
157 2 2.2208 8.03827 18.5364 2.37091
158 1 -1.1104 9.37628 14.2109 3.7437
159 1 -1.1104 9.62891 19.8736 3.75962
160 2 2.2208 8.09125 15.679 5.11664
161 2 2.2208 8.19616 21.2587 5.19846
162 1 -1.1104 9.46917 17.0376 0.92597
164 1 -1.1104 9.44036 16.9854 3.72082
165 2 2.2208 13.6339 18.4654 2.36268
200 2 2.2208 -0.371812 -1.12218 7.98203
163 1 -1.1104 9.57637 17.0098 6.55716
143 1 -1.1104 12.259 14.2969 6.61159
154 1 -1.1104 9.47582 14.3058 6.55581
149 1 -1.1104 12.2697 17.0269 6.62829
327 2 2.2208 13.7146 21.2449 5.1633
145 1 -1.1104 12.184 19.7993 6.58684
156 1 -1.1104 9.50311 19.8202 6.61894
9090 2 2.2208 13.6798 10.1676 10.7675
171 1 -1.1104 6.6445 0.293468 6.47949
105 2 2.2208 13.6487 7.37677 2.41375
170 1 -1.1104 0.962526 0.280444 6.5964
332 2 2.2208 5.30314 -1.08791 13.5144
175 2 2.2208 5.22112 1.70574 10.75
176 1 -1.1104 1.0572 -2.48404 12.2297
177 1 -1.1104 1.04653 3.08717 12.1531
180 1 -1.1104 1.13463 -2.59129 9.4298
181 1 -1.1104 0.95924 2.96916 9.41873
184 1 -1.1104 1.11432 0.333765 12.1718
186 2 2.2208 5.22674 -1.04852 7.94309
187 2 2.2208 5.21414 4.44787 8.05107
188 1 -1.1104 1.02389 0.188337 9.35668
190 1 -1.1104 3.86232 -2.5348 12.2171
191 1 -1.1104 3.92111 3.07561 12.1603
192 2 2.2208 2.39524 1.62994 8.07613
193 1 -1.1104 3.83684 -2.54214 9.50467
194 1 -1.1104 3.81988 2.96195 9.43042
195 2 2.2208 2.48076 -1.11291 10.7672
196 2 2.2208 2.42575 4.43542 10.725
197 1 -1.1104 3.90507 0.308 12.1573
198 1 -1.1104 3.92006 0.284194 9.4053
179 1 -1.1104 6.7982 3.24853 12.248
178 1 -1.1104 6.69674 -2.47021 12.1164
183 1 -1.1104 6.547 3.21482 9.41706
182 1 -1.1104 6.67333 -2.38211 9.32644
333 2 2.2208 2.50061 1.75317 13.5571
104 2 2.2208 13.5432 12.9021 2.37972
205 1 -1.1104 12.1582 -2.49978 6.50917
189 1 -1.1104 6.67153 0.381334 9.33649
185 1 -1.1104 6.58434 0.29535 12.1322
328 2 2.2208 13.6774 4.56968 10.8179
9172 2 2.2208 13.6403 1.78794 7.87945
230 2 2.2208 13.7663 -1.05046 10.7828
210 1 -1.1104 9.37313 0.408212 6.59607
211 2 2.2208 10.888 1.71531 10.7258
212 1 -1.1104 12.4628 -2.50913 12.1156
213 1 -1.1104 12.3063 3.11595 12.1904
214 1 -1.1104 12.2785 -2.49562 9.35002
215 1 -1.1104 12.3329 3.20885 9.34559
216 1 -1.1104 12.3154 0.371249 12.194
217 2 2.2208 10.7936 -1.07847 7.91401
218 2 2.2208 10.8532 4.56845 7.92055
219 1 -1.1104 12.3406 0.308223 9.39667
220 1 -1.1104 9.54737 -2.41758 12.1595
221 1 -1.1104 9.48005 3.11853 12.149
222 2 2.2208 7.97033 1.77561 7.99776
223 1 -1.1104 9.50031 -2.41517 9.33957
224 1 -1.1104 9.45159 3.16819 9.36909
225 2 2.2208 8.0428 -1.06778 10.757
226 2 2.2208 8.02875 4.61657 10.7115
227 1 -1.1104 9.38864 0.336947 12.1176
228 1 -1.1104 9.44424 0.335155 9.41098
9136 2 2.2208 13.6342 21.2262 10.8555
26 2 2.2208 -0.37991 1.81271 5.30291
335 2 2.2208 8.03593 1.75973 13.5351
337 2 2.2208 10.9249 4.52006 13.576
345 2 2.2208 13.7075 1.73539 13.4761
78 1 -1.1104 3.82652 11.5947 6.63195
339 2 2.2208 5.26632 10.0313 13.6752
240 2 2.2208 5.27192 7.35291 10.8283
241 2 2.2208 5.25338 12.8573 10.8454
242 1 -1.1104 1.0627 8.64051 12.1895
244 1 -1.1104 0.961095 8.63035 9.31436
246 1 -1.1104 1.04012 5.8871 12.2155
247 1 -1.1104 1.10457 11.4123 12.2163
250 2 2.2208 5.25404 10.1224 8.02596
251 1 -1.1104 1.12834 5.97345 9.47557
252 1 -1.1104 1.00062 11.4926 9.45001
255 1 -1.1104 3.89579 8.54249 12.2433
256 2 2.2208 2.51323 7.3225 7.99272
257 2 2.2208 2.4133 12.904 7.97686
258 1 -1.1104 3.81355 8.65281 9.38524
259 2 2.2208 2.45508 10.1068 10.863
260 1 -1.1104 3.81092 5.80259 12.1993
261 1 -1.1104 3.87935 11.4237 12.2587
262 1 -1.1104 3.86491 5.83126 9.36959
263 1 -1.1104 3.849 11.4998 9.38154
243 1 -1.1104 6.63534 8.60076 12.258
248 1 -1.1104 6.5844 5.89854 12.127
249 1 -1.1104 6.64017 11.4986 12.2183
253 1 -1.1104 6.7 5.94933 9.40204
254 1 -1.1104 6.65803 11.4531 9.4101
269 1 -1.1104 9.43014 5.93518 6.5489
341 2 2.2208 13.7037 7.30453 13.6615
347 2 2.2208 2.46674 18.5199 13.53
245 1 -1.1104 6.66832 8.70217 9.32822
330 2 2.2208 13.5319 12.8465 7.94466
338 2 2.2208 2.45918 7.26714 13.5787
329 2 2.2208 13.589 7.33372 7.97518
264 1 -1.1104 9.48789 11.5387 9.35939
268 1 -1.1104 9.54216 5.9095 9.39695
270 1 -1.1104 9.49613 11.6202 12.2353
271 1 -1.1104 9.46068 5.92278 12.1418
272 2 2.2208 8.05094 10.1116 10.8797
273 1 -1.1104 9.39271 8.71668 9.4336
274 2 2.2208 8.0276 12.9166 7.98006
275 2 2.2208 8.09782 7.2801 8.04868
276 2 2.2208 10.8704 7.37213 10.8723
277 2 2.2208 10.926 12.9143 10.8117
278 1 -1.1104 12.3654 8.6859 12.1506
279 1 -1.1104 12.2292 8.67422 9.45236
280 1 -1.1104 12.4092 5.83727 12.3116
281 1 -1.1104 12.2646 11.538 12.1526
282 2 2.2208 10.832 10.1262 8.06939
283 1 -1.1104 12.1861 5.97696 9.46615
284 1 -1.1104 12.3082 11.52 9.33025
285 1 -1.1104 9.49736 8.74978 12.1468
343 2 2.2208 8.10559 7.22585 13.5693
350 2 2.2208 5.36468 21.3282 13.6188
50 2 2.2208 10.8674 18.4241 10.64
290 1 -1.1104 6.67036 14.17 9.29789
306 1 -1.1104 6.66506 17.1194 12.1829
297 1 -1.1104 6.62726 14.2996 12.2523
298 1 -1.1104 1.15684 19.9909 12.1204
295 2 2.2208 5.29167 15.6121 7.94219
294 1 -1.1104 0.8971 14.2691 9.33008
293 2 2.2208 5.32662 21.2382 8.02542
292 1 -1.1104 0.990833 17.0925 9.35226
301 1 -1.1104 3.88575 20.0021 9.4868
300 2 2.2208 5.24391 18.4775 10.8322
310 2 2.2208 2.4538 15.7048 10.6332
309 2 2.2208 2.51236 21.3974 10.866
308 1 -1.1104 3.92891 17.0272 12.087
307 1 -1.1104 0.988886 17.1168 12.212
291 1 -1.1104 1.09447 19.8948 9.41217
299 1 -1.1104 1.10291 14.2902 12.136
305 1 -1.1104 3.83074 14.3112 9.33484
304 1 -1.1104 3.88826 17.1276 9.3167
303 2 2.2208 2.39341 18.4674 7.95538
286 1 -1.1104 3.94334 19.8238 12.3489
287 1 -1.1104 3.94062 14.1986 12.1944
289 1 -1.1104 6.65088 16.9366 9.37855
288 1 -1.1104 6.66093 19.803 9.40774
296 1 -1.1104 6.60789 19.8134 12.1253
322 1 -1.1104 9.46309 14.288 12.1474
336 2 2.2208 10.8727 -1.00614 13.5089
229 1 -1.1104 12.263 14.2867 9.42896
321 1 -1.1104 9.46898 19.7018 12.1112
312 1 -1.1104 12.1275 17.0995 12.18
318 1 -1.1104 9.36813 19.9852 9.40546
320 2 2.2208 8.06575 18.4291 8.0165
311 1 -1.1104 12.1646 19.8292 9.32504
314 1 -1.1104 9.44485 17.0223 9.3485
334 2 2.2208 5.21865 4.51428 13.5922
324 2 2.2208 10.8181 21.2787 8.01884
323 1 -1.1104 12.3488 17.0219 9.39616
83 1 -1.1104 12.4015 14.2998 12.0799
317 2 2.2208 8.08395 15.6186 10.727
199 1 -1.1104 12.2368 19.8898 12.2149
315 1 -1.1104 9.41577 16.9423 12.0746
316 2 2.2208 8.05081 21.2259 10.796
352 2 2.2208 10.8388 18.5047 -0.452017
346 2 2.2208 8.03862 12.9462 13.6197
349 2 2.2208 13.6943 21.3069 -0.454108
351 2 2.2208 7.99822 15.6618 -0.453108
356 2 2.2208 10.8694 15.6818 13.5683
374 2 2.2208 10.8113 12.9433 -0.500647
380 2 2.2208 5.20251 1.68621 16.3256
381 1 -1.1104 1.07952 -2.50057 17.8483
382 1 -1.1104 1.11312 2.9779 17.7835
385 1 -1.1104 1.04155 -2.51173 15.0485
387 1 -1.1104 1.03199 3.08806 14.9815
393 1 -1.1104 0.928857 0.309842 17.8136
395 2 2.2208 5.27343 -1.05462 19.161
396 2 2.2208 5.27815 4.48751 19.153
397 1 -1.1104 1.01463 0.317379 14.9746
401 1 -1.1104 3.90082 -2.41174 17.7931
402 1 -1.1104 3.9171 3.16792 17.7524
403 2 2.2208 2.38938 1.71871 19.1653
404 1 -1.1104 3.9247 -2.46127 14.9189
406 1 -1.1104 3.87325 3.10104 14.9273
408 2 2.2208 2.43933 -1.1249 16.4317
409 2 2.2208 2.5534 4.56928 16.3491
410 1 -1.1104 3.7952 0.278749 17.6885
411 1 -1.1104 3.8226 0.320815 14.9664
386 1 -1.1104 1.05793 -2.45156 20.6669
394 1 -1.1104 6.68788 0.44385 17.6618
391 1 -1.1104 6.67401 3.10476 14.9746
389 1 -1.1104 6.71395 -2.43205 14.9666
383 1 -1.1104 6.70251 -2.46759 17.7357
384 1 -1.1104 6.62212 3.19351 17.726
399 1 -1.1104 6.65606 0.270872 14.8496
400 1 -1.1104 6.59941 0.358755 20.5518
407 1 -1.1104 3.82493 3.16465 20.5635
405 1 -1.1104 3.90825 -2.37672 20.5334
388 1 -1.1104 1.0963 3.16575 20.5514
412 1 -1.1104 3.83424 0.434283 20.4826
392 1 -1.1104 6.6486 3.14142 20.5249
697 2 2.2208 -0.375679 18.4445 21.965
490 2 2.2208 13.6806 7.38989 19.1739
448 2 2.2208 10.8556 -3.85834 16.3408
423 2 2.2208 10.8659 1.74253 16.3282
424 1 -1.1104 12.239 -2.37907 17.7527
425 1 -1.1104 12.3023 3.20829 17.7683
426 1 -1.1104 12.2589 -2.49829 14.9389
428 1 -1.1104 12.351 3.24459 14.9679
430 1 -1.1104 12.2403 0.359298 17.7739
431 2 2.2208 10.8029 -1.14019 19.2394
432 2 2.2208 10.8252 4.55184 19.1144
433 1 -1.1104 12.241 0.438903 14.9677
435 1 -1.1104 9.41919 -2.53556 17.7912
436 1 -1.1104 9.50594 3.10932 17.783
437 2 2.2208 8.07731 1.74518 19.1093
438 1 -1.1104 9.48619 -2.4777 14.9302
440 1 -1.1104 9.52232 3.11215 15.0319
442 2 2.2208 8.10196 -1.0687 16.3453
443 2 2.2208 8.0774 4.51342 16.3467
444 1 -1.1104 9.49981 0.29705 17.6668
445 1 -1.1104 9.41339 0.363938 14.9168
517 2 2.2208 13.734 4.55967 16.3955
451 2 2.2208 13.6225 -1.06001 16.4036
434 1 -1.1104 12.3243 0.376614 20.5788
441 1 -1.1104 9.46301 3.09415 20.5085
702 2 2.2208 13.6611 7.22779 24.7695
456 2 2.2208 5.27001 7.35001 16.4666
457 2 2.2208 5.23248 12.9049 16.3616
458 1 -1.1104 1.14057 8.68243 17.7927
460 1 -1.1104 1.19223 8.79594 14.9329
464 1 -1.1104 1.08418 5.88271 17.6803
465 1 -1.1104 1.03054 11.4061 17.6884
468 2 2.2208 5.22349 10.1155 19.1435
469 1 -1.1104 1.15076 5.93868 14.9409
471 1 -1.1104 1.06175 11.5746 15.061
477 1 -1.1104 3.8383 8.71412 17.8186
478 2 2.2208 2.41817 7.23376 19.148
479 2 2.2208 2.46758 12.936 19.1608
480 1 -1.1104 3.90587 8.73193 15.1011
482 2 2.2208 2.44626 10.1686 16.3119
483 1 -1.1104 3.85304 5.85882 17.8631
484 1 -1.1104 3.78502 11.5719 17.7267
485 1 -1.1104 4.01183 5.93127 15.0243
487 1 -1.1104 3.88563 11.5131 14.9998
473 1 -1.1104 6.71827 5.94464 14.9954
462 1 -1.1104 6.6748 8.71265 15.122
475 1 -1.1104 6.67477 11.4252 14.9552
466 1 -1.1104 6.60608 5.96704 17.7335
467 1 -1.1104 6.59889 11.5171 17.7188
463 1 -1.1104 6.53294 8.69581 20.6481
470 1 -1.1104 1.05256 5.91298 20.6192
488 1 -1.1104 3.88075 11.488 20.5609
474 1 -1.1104 6.70408 5.94834 20.4468
472 1 -1.1104 1.09619 11.5066 20.5309
476 1 -1.1104 6.65083 11.4661 20.5493
554 1 -1.1104 12.2434 14.2919 23.3435
674 2 2.2208 7.99272 21.1762 21.9817
459 1 -1.1104 6.65216 8.69386 17.8362
447 2 2.2208 13.5767 -3.75117 19.2438
492 2 2.2208 10.8633 7.39074 16.3527
493 2 2.2208 10.9267 12.9248 16.338
494 1 -1.1104 12.3378 8.73328 17.7398
495 1 -1.1104 12.1513 8.84263 14.9707
497 1 -1.1104 12.3468 5.9668 17.7594
498 1 -1.1104 12.3168 11.479 17.8004
499 2 2.2208 10.9199 10.1191 19.1723
500 1 -1.1104 12.2715 5.96802 14.9935
502 1 -1.1104 12.2658 11.6359 14.9744
504 1 -1.1104 9.527 8.66413 17.7479
505 2 2.2208 8.0998 7.30168 19.1225
506 2 2.2208 8.05031 12.8715 19.1808
507 1 -1.1104 9.50709 8.72259 14.862
509 2 2.2208 8.10322 10.1 16.3757
510 1 -1.1104 9.45306 5.95221 17.6815
511 1 -1.1104 9.46062 11.4973 17.803
512 1 -1.1104 9.45656 5.89088 14.9339
514 1 -1.1104 9.51461 11.5167 15.0171
9317 2 2.2208 13.6935 10.134 16.3922
489 2 2.2208 13.6458 12.9025 19.2413
513 1 -1.1104 9.48746 5.92085 20.5125
501 1 -1.1104 12.2312 5.90671 20.6021
503 1 -1.1104 12.2271 11.5855 20.5681
518 2 2.2208 13.6768 18.5267 24.7308
9450 2 2.2208 13.5889 4.50883 21.8968
612 2 2.2208 5.23814 -3.84448 27.6314
519 2 2.2208 5.32819 18.4907 16.4074
520 1 -1.1104 0.980532 14.2056 17.7977
521 1 -1.1104 0.9968 19.8691 17.8631
524 1 -1.1104 0.99623 14.2742 15.0498
526 1 -1.1104 1.2114 19.9755 15.0868
532 1 -1.1104 1.12195 17.0081 17.7617
534 2 2.2208 5.16197 15.7757 19.1561
535 2 2.2208 5.30793 21.3597 19.2116
536 1 -1.1104 1.02591 17.1127 14.9834
540 1 -1.1104 3.77514 14.3127 17.792
541 1 -1.1104 3.80552 19.8196 17.7827
542 2 2.2208 2.43296 18.465 19.1621
543 1 -1.1104 3.77606 14.3871 14.946
545 1 -1.1104 3.96956 19.9036 15.0082
547 2 2.2208 2.49533 15.6903 16.3993
548 2 2.2208 2.59032 21.2699 16.4985
549 1 -1.1104 3.87416 17.1399 17.6613
550 1 -1.1104 3.87521 17.0968 14.8881
538 1 -1.1104 6.59957 17.0161 14.9361
523 1 -1.1104 6.5673 19.8036 17.7984
530 1 -1.1104 6.78081 19.8569 15.0137
522 1 -1.1104 6.58612 14.3252 17.6828
528 1 -1.1104 6.5875 14.2313 15.0158
527 1 -1.1104 1.00769 19.8983 20.6967
551 1 -1.1104 3.84758 17.1575 20.5635
533 1 -1.1104 6.66551 16.9997 17.8735
531 1 -1.1104 6.66134 19.7885 20.5417
546 1 -1.1104 3.84332 19.8458 20.6208
539 1 -1.1104 6.70365 17.0421 20.662
544 1 -1.1104 3.88966 14.3393 20.5919
525 1 -1.1104 1.10108 14.2621 20.4975
559 1 -1.1104 12.212 14.3026 20.6186
573 1 -1.1104 9.42478 19.9007 20.6362
672 1 -1.1104 9.34446 19.9126 26.0958
555 2 2.2208 10.841 18.4262 16.3879
556 1 -1.1104 12.2609 14.3171 17.717
557 1 -1.1104 12.3019 19.8205 17.8758
558 1 -1.1104 12.3111 14.2507 14.8152
560 1 -1.1104 12.259 19.6685 15.0539
562 1 -1.1104 12.1895 17.0634 17.8204
563 2 2.2208 10.901 15.6712 19.2053
564 2 2.2208 10.9507 21.2196 19.2871
565 1 -1.1104 12.162 16.9619 14.9479
567 1 -1.1104 9.37057 14.2879 17.8078
568 1 -1.1104 9.48175 19.837 17.8544
569 2 2.2208 8.05132 18.4859 19.182
570 1 -1.1104 9.47089 14.2474 15.0687
572 1 -1.1104 9.49285 19.8557 14.9353
574 2 2.2208 8.00154 15.7162 16.4463
575 2 2.2208 8.13625 21.2815 16.3724
576 1 -1.1104 9.40277 17.0234 17.8186
577 1 -1.1104 9.4456 17.1284 14.9472
355 2 2.2208 10.8437 21.2263 13.6
9387 2 2.2208 13.6206 15.6319 16.3875
571 1 -1.1104 9.35106 14.3325 20.687
561 1 -1.1104 12.2543 19.8454 20.6629
566 1 -1.1104 12.2848 17.1134 20.6174
398 1 -1.1104 1.04811 0.332974 20.6287
360 2 2.2208 2.55285 4.4868 27.5871
638 1 -1.1104 9.45063 19.7892 23.364
390 1 -1.1104 6.5492 -2.49898 20.5141
583 2 2.2208 5.20849 1.7275 21.9758
584 1 -1.1104 0.919424 -2.47142 23.386
585 1 -1.1104 1.05073 3.15828 23.3906
588 1 -1.1104 1.05308 -2.5264 26.2141
589 1 -1.1104 1.18884 3.10146 26.2485
592 1 -1.1104 1.0663 0.319038 23.4749
594 2 2.2208 5.28975 -0.96453 24.8791
595 2 2.2208 5.30938 4.47599 24.7903
596 1 -1.1104 1.08563 0.308202 26.2189
598 1 -1.1104 3.79126 -2.50671 23.4764
599 1 -1.1104 3.77846 3.10313 23.5614
600 2 2.2208 2.49322 1.6567 24.8279
601 1 -1.1104 3.77492 -2.48802 26.2108
602 1 -1.1104 3.96911 3.05255 26.2649
603 2 2.2208 2.4573 -1.12035 21.9895
604 2 2.2208 2.44372 4.47065 22.0367
605 1 -1.1104 3.88287 0.291216 23.2858
606 1 -1.1104 3.89713 0.242022 26.186
597 1 -1.1104 6.59695 0.360968 26.2539
590 1 -1.1104 6.58867 -2.44095 26.2355
591 1 -1.1104 6.70101 3.09476 26.1178
593 1 -1.1104 6.62204 0.366613 23.4084
586 1 -1.1104 6.65043 -2.38474 23.3467
587 1 -1.1104 6.62112 3.09943 23.3459
358 2 2.2208 5.21673 1.74949 27.6729
516 2 2.2208 13.6344 1.7268 19.1174
427 1 -1.1104 12.2434 -2.34777 20.6198
429 1 -1.1104 12.2638 3.12151 20.6357
439 1 -1.1104 9.39796 -2.50707 20.5032
699 2 2.2208 -0.326104 15.6583 24.7273
446 1 -1.1104 9.46011 0.277586 20.5248
615 1 -1.1104 12.1951 17.1556 26.1216
640 2 2.2208 13.5721 -3.8886 24.758
619 2 2.2208 10.8418 1.70287 21.9252
620 1 -1.1104 12.2506 -2.5076 23.34
621 1 -1.1104 12.1716 3.06364 23.3492
622 1 -1.1104 12.2051 -2.58434 26.0983
623 1 -1.1104 12.175 3.02228 26.0725
624 1 -1.1104 12.2286 0.243255 23.3349
625 2 2.2208 10.8601 -1.03669 24.7924
626 2 2.2208 10.7682 4.53692 24.6232
627 1 -1.1104 12.2185 0.31188 26.1483
628 1 -1.1104 9.44107 -2.43128 23.3155
629 1 -1.1104 9.40959 3.18589 23.1912
630 2 2.2208 8.02319 1.70801 24.7207
631 1 -1.1104 9.32672 -2.47834 26.1905
632 1 -1.1104 9.42018 3.14799 26.1458
633 2 2.2208 8.07479 -1.07561 21.9031
634 2 2.2208 7.99202 4.56787 21.8904
635 1 -1.1104 9.36207 0.331541 23.3493
636 1 -1.1104 9.46103 0.350886 26.1238
367 2 2.2208 5.23679 7.29013 27.5758
363 2 2.2208 8.03118 -1.05845 27.5967
579 1 -1.1104 12.2569 19.8725 23.4498
359 2 2.2208 2.51121 -1.14367 27.5869
366 2 2.2208 13.6677 4.52993 27.5998
364 2 2.2208 8.12961 4.53545 27.5903
481 1 -1.1104 3.83621 8.65207 20.5063
368 2 2.2208 2.38727 10.1988 27.6501
486 1 -1.1104 3.85721 5.83637 20.5895
461 1 -1.1104 0.964771 8.68373 20.5283
648 2 2.2208 5.21585 7.29471 21.9819
649 2 2.2208 5.25901 12.8697 21.9304
650 1 -1.1104 1.01706 8.70539 23.332
652 1 -1.1104 1.0308 8.76176 26.1697
654 1 -1.1104 1.04132 5.93282 23.3447
655 1 -1.1104 0.933574 11.4343 23.3537
658 2 2.2208 5.30426 10.0441 24.7924
659 1 -1.1104 1.05352 5.86826 26.2009
660 1 -1.1104 0.921717 11.5244 26.2072
663 1 -1.1104 3.83156 8.7312 23.3298
664 2 2.2208 2.49358 7.27004 24.7585
665 2 2.2208 2.50465 12.8879 24.7909
666 1 -1.1104 3.88944 8.73471 26.1223
667 2 2.2208 2.48452 10.0858 21.9328
668 1 -1.1104 3.82617 5.85639 23.411
669 1 -1.1104 3.90443 11.4128 23.3985
670 1 -1.1104 3.99912 5.9101 26.1266
671 1 -1.1104 3.76807 11.487 26.1656
656 1 -1.1104 6.70804 5.96664 23.373
662 1 -1.1104 6.64755 11.5302 26.0915
657 1 -1.1104 6.6244 11.4504 23.3396
651 1 -1.1104 6.7205 8.67435 23.3603
661 1 -1.1104 6.78071 5.86273 26.119
653 1 -1.1104 6.68027 8.66259 26.2481
369 2 2.2208 5.18054 12.8991 27.5623
496 1 -1.1104 12.2565 8.70224 20.7095
515 1 -1.1104 9.54941 11.5685 20.5473
508 1 -1.1104 9.38274 8.72 20.7046
9509 2 2.2208 13.7422 10.0499 21.9815
362 2 2.2208 10.8167 1.69691 27.6135
679 1 -1.1104 9.38927 11.5432 26.1478
680 1 -1.1104 9.38693 5.96154 26.1609
681 1 -1.1104 9.42621 11.5426 23.3562
682 1 -1.1104 9.44623 5.91345 23.354
683 2 2.2208 8.07061 10.1067 21.9823
684 1 -1.1104 9.42079 8.67745 26.2142
685 2 2.2208 8.06865 12.8441 24.7262
686 2 2.2208 8.07104 7.34319 24.8266
687 2 2.2208 10.7946 7.32403 22.0943
688 2 2.2208 10.8642 12.8538 22.0297
689 1 -1.1104 12.2886 8.68496 23.438
690 1 -1.1104 12.2503 8.63225 26.2498
691 1 -1.1104 12.2454 5.88788 23.3231
692 1 -1.1104 12.3374 11.439 23.3343
693 2 2.2208 10.8364 10.1489 24.7007
694 1 -1.1104 12.1553 5.87394 26.1734
695 1 -1.1104 12.1441 11.5404 26.035
696 1 -1.1104 9.54079 8.74301 23.4136
372 2 2.2208 10.8266 7.21627 27.5755
698 2 2.2208 -0.382377 21.2248 24.6767
673 2 2.2208 8.03588 15.621 22.0777
379 2 2.2208 2.50084 21.2444 27.5607
644 1 -1.1104 6.67033 19.829 26.2005
537 1 -1.1104 1.05886 17.0191 20.5559
713 1 -1.1104 6.61352 14.2612 23.4172
710 1 -1.1104 6.61984 19.9323 23.4513
704 1 -1.1104 6.57472 14.2745 26.2043
701 2 2.2208 2.45421 15.5738 21.9417
703 1 -1.1104 3.83614 19.8737 23.4124
705 1 -1.1104 3.81729 14.2554 23.3495
707 1 -1.1104 1.06599 19.8862 26.195
708 1 -1.1104 1.11347 17.0748 26.1142
709 1 -1.1104 1.20081 14.3288 26.187
711 2 2.2208 5.31784 21.274 24.8682
712 2 2.2208 5.15568 15.6206 24.7332
714 1 -1.1104 1.04857 19.9086 23.4569
715 1 -1.1104 1.03304 14.2563 23.343
716 2 2.2208 5.29028 18.4823 21.942
717 1 -1.1104 3.81544 19.8174 26.1565
718 2 2.2208 2.39052 18.526 24.7414
719 1 -1.1104 3.87983 16.9883 26.0869
720 1 -1.1104 3.88698 14.2362 26.2083
722 1 -1.1104 0.998237 17.042 23.3192
723 1 -1.1104 3.80113 17.1509 23.2984
724 2 2.2208 2.44215 21.2634 22.1367
721 1 -1.1104 6.64518 17.0938 23.4614
706 1 -1.1104 6.70622 17.0762 26.229
647 1 -1.1104 9.37399 14.2893 26.0828
553 2 2.2208 10.8069 18.408 22.0268
608 2 2.2208 10.8253 15.6956 24.7063
637 1 -1.1104 9.36824 14.2205 23.3112
607 1 -1.1104 12.3148 17.0397 23.4172
529 1 -1.1104 6.61712 14.2694 20.5232
578 1 -1.1104 9.46048 17.0938 20.5884
639 2 2.2208 7.99158 18.5059 24.7704
552 2 2.2208 13.7246 21.3069 22.02
580 1 -1.1104 12.2188 14.3028 26.1315
581 1 -1.1104 12.1433 19.8778 26.1729
678 1 -1.1104 9.43293 17.0487 26.0648
675 1 -1.1104 9.4539 17.0172 23.4083
609 2 2.2208 10.8378 21.2544 24.7935
700 2 2.2208 13.6185 12.8736 24.7411
421 2 2.2208 -0.289726 21.294 19.1549
646 2 2.2208 13.5336 1.68053 24.7404
491 2 2.2208 -0.329448 4.45087 19.1875
377 2 2.2208 2.43335 15.6282 27.6084
9201 2 2.2208 -0.354299 15.7057 13.5559
353 2 2.2208 8.07529 21.349 27.5281
378 2 2.2208 5.24347 18.4996 27.5642
357 2 2.2208 8.10651 18.4433 13.5641
376 2 2.2208 13.5922 10.0954 27.5302
9188 2 2.2208 13.7699 12.9432 13.5841
373 2 2.2208 8.01017 10.0666 27.5987
354 2 2.2208 5.27274 15.6791 13.5557
725 2 2.2208 5.29601 23.9665 5.24196
726 2 2.2208 5.26782 29.5823 5.29904
727 1 -1.1104 1.11726 25.4027 1.07724
728 1 -1.1104 1.12435 25.5385 3.89735
729 1 -1.1104 1.05349 22.6763 1.13402
730 1 -1.1104 1.06086 28.1416 1.05943
731 2 2.2208 5.22411 26.7726 2.46966
732 1 -1.1104 1.12161 22.7187 3.90459
733 1 -1.1104 1.02144 28.2058 3.92715
734 1 -1.1104 3.89135 25.2464 1.11579
735 2 2.2208 2.42518 23.9787 2.47433
736 2 2.2208 2.42171 29.5867 2.45268
737 1 -1.1104 3.78439 25.434 3.88199
738 2 2.2208 2.47145 26.7746 5.31868
739 1 -1.1104 3.85265 22.4831 1.0036
740 1 -1.1104 3.82429 28.2303 1.08353
741 1 -1.1104 3.95803 22.615 3.82543
742 1 -1.1104 3.92435 28.2057 3.8425
750 1 -1.1104 6.71014 22.6621 3.78551
746 1 -1.1104 6.62863 25.5052 1.07684
747 1 -1.1104 6.61986 25.3859 3.87387
751 1 -1.1104 6.71577 28.1432 3.8855
748 1 -1.1104 6.68614 22.6316 1.06936
870 1 -1.1104 6.7474 22.6524 6.62311
867 1 -1.1104 6.65643 25.4346 6.61287
873 1 -1.1104 3.86026 22.6118 6.62348
874 1 -1.1104 3.8807 28.1787 6.65816
868 1 -1.1104 1.06999 22.657 6.73087
1037 1 -1.1104 12.1529 42.1899 9.30636
749 1 -1.1104 6.52384 28.2819 1.06819
752 2 2.2208 10.9439 24.1169 5.29525
753 2 2.2208 10.7937 29.6228 5.20868
754 1 -1.1104 12.3287 25.5591 0.98725
755 1 -1.1104 12.2799 25.4524 3.75587
756 1 -1.1104 12.2832 22.7258 1.10752
757 1 -1.1104 12.1901 28.3632 1.0012
758 2 2.2208 10.9011 26.8517 2.41255
759 1 -1.1104 12.2164 22.6646 3.94146
760 1 -1.1104 12.2094 28.1966 3.89578
761 1 -1.1104 9.46772 25.466 1.03192
762 2 2.2208 8.10493 24.0592 2.48338
763 2 2.2208 8.01384 29.5932 2.41591
764 1 -1.1104 9.51402 25.4392 3.80119
765 2 2.2208 8.07931 26.875 5.27193
766 1 -1.1104 9.64077 22.6962 0.95228
767 1 -1.1104 9.41233 28.1224 1.0084
768 1 -1.1104 9.48643 22.6419 3.80183
769 1 -1.1104 9.39777 28.271 3.83443
1047 1 -1.1104 6.64581 47.8688 12.3404
770 2 2.2208 13.6523 24.0042 2.51467
772 2 2.2208 13.6026 26.8965 5.20984
902 1 -1.1104 9.59337 25.4139 6.66466
900 1 -1.1104 12.3036 22.652 6.62624
899 1 -1.1104 12.282 25.4858 6.60219
904 1 -1.1104 9.49188 28.2717 6.64231
1024 2 2.2208 8.12743 40.8183 8.10572
773 2 2.2208 5.26385 35.2323 5.25502
774 1 -1.1104 1.045 30.9521 1.01792
775 1 -1.1104 1.05724 36.6459 1.08122
777 1 -1.1104 1.09394 31.0277 3.75549
778 1 -1.1104 1.03154 36.5962 3.94308
780 1 -1.1104 1.11871 33.8725 1.03919
781 2 2.2208 5.20919 32.4364 2.46087
782 2 2.2208 5.26324 38.1283 2.52454
783 1 -1.1104 1.11034 33.8511 3.93294
785 1 -1.1104 3.8651 31.0581 1.04523
786 1 -1.1104 3.89002 36.5642 1.03966
787 2 2.2208 2.42406 35.1855 2.50271
788 1 -1.1104 3.817 30.9758 3.81598
789 1 -1.1104 3.82013 36.7201 3.84531
790 2 2.2208 2.47136 32.4037 5.22918
791 2 2.2208 2.46511 38.0547 5.23878
792 1 -1.1104 3.70998 33.8446 1.24211
793 1 -1.1104 3.88004 33.845 3.94062
798 1 -1.1104 6.60648 31.091 3.89436
776 1 -1.1104 6.63708 36.7265 1.11904
784 1 -1.1104 6.58257 33.8739 3.94888
797 1 -1.1104 6.64566 31.042 1.01614
799 1 -1.1104 6.59043 33.8992 1.11182
1021 2 2.2208 8.05065 43.6973 10.802
1048 1 -1.1104 6.6044 47.7876 9.25358
923 1 -1.1104 1.10931 31.0386 6.62642
924 1 -1.1104 1.1162 36.5727 6.72574
931 1 -1.1104 3.84325 33.8129 6.6151
930 1 -1.1104 3.89337 36.5716 6.61862
928 1 -1.1104 6.59712 33.7994 6.68072
925 1 -1.1104 6.63573 31.0132 6.5541
1019 1 -1.1104 9.20667 45.0591 12.2442
1028 2 2.2208 10.796 43.6025 8.01551
1624 1 -1.1104 1.12057 47.9274 9.47023
779 1 -1.1104 6.5809 36.6482 3.89641
800 2 2.2208 10.7939 35.2621 5.12493
801 1 -1.1104 12.2156 31.1037 1.06563
802 1 -1.1104 12.3061 36.5561 1.0444
803 1 -1.1104 12.2109 30.9712 3.71672
804 1 -1.1104 12.2207 36.5814 3.815
805 1 -1.1104 12.3003 33.7676 1.04792
806 2 2.2208 10.823 32.5011 2.48285
807 2 2.2208 10.8923 38.0201 2.40024
808 1 -1.1104 12.2744 33.7929 3.87402
809 1 -1.1104 9.3949 30.9407 0.976889
810 1 -1.1104 9.49126 36.5136 1.10568
811 2 2.2208 8.09182 35.2882 2.57457
812 1 -1.1104 9.34411 31.0724 3.84468
813 1 -1.1104 9.40709 36.7123 3.82551
814 2 2.2208 7.99804 32.4939 5.25842
815 2 2.2208 8.08037 38.0522 5.27404
816 1 -1.1104 9.44913 33.7432 0.986658
817 1 -1.1104 9.47615 33.8392 3.89044
1480 1 -1.1104 9.40413 47.8624 3.8194
961 1 -1.1104 9.53935 36.5805 6.60947
962 1 -1.1104 9.41972 33.8465 6.61735
958 1 -1.1104 12.3685 36.6738 6.58876
957 1 -1.1104 12.1275 31.0896 6.551