ITEM: TIMESTEP
100000
ITEM: NUMBER OF ATOMS
17700
ITEM: BOX BOUNDS pp pp pp
-3.1687447923405043e-01 2.7656874479234393e+01
-3.8567070778046157e+00 3.3193670707780439e+02
-3.2367578967188609e-01 2.7663675789671938e+01
ITEM: ATOMS id type q x y z
1 2 2.2208 5.21061 1.62794 5.24405
2 1 -1.1104 0.947082 -2.47999 1.01949
3 1 -1.1104 0.946108 3.1131 1.04674
6 1 -1.1104 0.973586 -2.49321 3.86649
7 1 -1.1104 0.955641 3.0866 3.83846
10 1 -1.1104 1.02249 0.323613 1.06258
12 2 2.2208 5.20751 -1.21963 2.44262
13 2 2.2208 5.19283 4.48067 2.42754
14 1 -1.1104 1.01029 0.270272 3.78919
16 1 -1.1104 3.77217 -2.55573 1.06036
17 1 -1.1104 3.73235 3.09938 1.0765
18 2 2.2208 2.36856 1.73229 2.45981
19 1 -1.1104 3.89118 -2.45434 3.9119
20 1 -1.1104 3.75517 2.89658 3.77346
21 2 2.2208 2.41149 -1.08671 5.30595
22 2 2.2208 2.35265 4.46124 5.25777
23 1 -1.1104 3.83477 0.350991 1.11329
24 1 -1.1104 3.76369 0.240699 3.87265
27 2 2.2208 -0.365154 4.3974 2.45113
11 1 -1.1104 6.65532 0.308324 1.07561
8 1 -1.1104 6.59077 -2.59604 3.93512
4 1 -1.1104 6.62894 -2.53894 1.09034
15 1 -1.1104 6.54272 0.274585 3.86141
173 1 -1.1104 3.84058 2.99756 6.67101
172 1 -1.1104 3.7126 -2.56039 6.6977
170 1 -1.1104 1.09027 0.288536 6.71886
166 1 -1.1104 1.02003 -2.49163 6.74024
167 1 -1.1104 1.10776 3.03953 6.57973
169 1 -1.1104 6.6508 3.06064 6.69685
52 2 2.2208 10.8442 -3.85301 5.2719
9096 2 2.2208 -0.347246 12.9664 10.8607
5 1 -1.1104 6.55055 3.13315 1.07959
9 1 -1.1104 6.70747 3.0478 3.88808
31 2 2.2208 10.8445 1.74626 5.35418
32 1 -1.1104 12.1757 -2.54015 1.00228
33 1 -1.1104 12.2641 3.17125 1.29557
34 1 -1.1104 12.2605 -2.40325 3.70437
35 1 -1.1104 12.1679 3.16945 3.97545
36 1 -1.1104 12.0952 0.22877 1.05126
37 2 2.2208 10.7864 -1.05531 2.46023
38 2 2.2208 10.7133 4.45321 2.46193
39 1 -1.1104 12.2198 0.344438 3.86812
40 1 -1.1104 9.43953 -2.47725 1.08157
41 1 -1.1104 9.36094 3.09139 1.04993
42 2 2.2208 7.99937 1.66517 2.46082
43 1 -1.1104 9.40593 -2.48575 3.8021
44 1 -1.1104 9.4252 3.07554 3.90999
45 2 2.2208 8.0477 -1.1614 5.28979
46 2 2.2208 8.01738 4.51455 5.30009
47 1 -1.1104 9.38645 0.357742 0.998802
48 1 -1.1104 9.42023 0.329051 3.89231
206 1 -1.1104 12.2778 3.10326 6.67366
210 1 -1.1104 9.30754 0.240955 6.76422
204 2 2.2208 -0.379283 -3.87471 10.9038
9104 2 2.2208 -0.380476 7.21582 10.8511
9167 2 2.2208 13.7145 -1.03868 5.28999
207 1 -1.1104 12.2763 0.327483 6.5912
330 2 2.2208 13.6142 12.8831 8.1193
329 2 2.2208 13.6044 7.33519 8.00697
9090 2 2.2208 13.6337 10.1178 10.8287
9171 2 2.2208 -0.417754 4.51699 8.11005
54 2 2.2208 5.20806 7.22323 5.30152
55 2 2.2208 5.35027 12.8369 5.16679
56 1 -1.1104 1.00152 8.70111 0.994357
58 1 -1.1104 1.00875 8.81002 3.81017
60 1 -1.1104 1.05845 5.86192 1.01557
61 1 -1.1104 0.964823 11.494 1.19728
66 2 2.2208 5.23566 10.0116 2.47003
67 1 -1.1104 1.10025 5.95318 3.85417
68 1 -1.1104 1.07985 11.6079 3.99891
71 1 -1.1104 3.80137 8.69668 1.0976
72 2 2.2208 2.40962 7.25543 2.43806
73 2 2.2208 2.42446 12.8801 2.55827
74 1 -1.1104 3.87288 8.53255 3.95012
75 2 2.2208 2.46512 10.1375 5.32427
76 1 -1.1104 3.85898 5.87632 1.08652
77 1 -1.1104 3.74643 11.5361 1.08723
79 1 -1.1104 3.76371 5.69821 3.88361
80 1 -1.1104 3.92374 11.3734 3.88924
355 2 2.2208 10.815 21.3255 13.6183
239 1 -1.1104 3.73681 5.80119 6.68255
237 1 -1.1104 6.70129 5.94686 6.62029
373 2 2.2208 8.04728 10.0652 -0.320958
50 2 2.2208 10.8264 18.5081 10.7989
306 1 -1.1104 6.70475 17.1312 12.264
328 2 2.2208 13.5599 4.48579 10.7968
57 1 -1.1104 6.62032 8.70522 0.994167
63 1 -1.1104 6.69137 5.94374 1.07218
70 1 -1.1104 6.69922 11.4423 3.86002
59 1 -1.1104 6.65403 8.6644 3.90112
64 1 -1.1104 6.68333 11.4521 1.07257
69 1 -1.1104 6.49674 5.96251 3.86433
84 2 2.2208 10.7683 7.29581 5.24335
85 2 2.2208 10.829 12.8536 5.21746
86 1 -1.1104 12.1988 8.7292 1.01989
87 1 -1.1104 12.1416 8.77274 3.82683
88 1 -1.1104 12.2306 5.97556 1.03169
89 1 -1.1104 12.2114 11.5773 0.959658
91 2 2.2208 10.8511 10.1831 2.40722
92 1 -1.1104 12.2258 5.924 3.82657
93 1 -1.1104 12.3151 11.5085 3.84301
94 1 -1.1104 9.39866 8.6628 1.10295
95 2 2.2208 8.07864 7.30724 2.46575
96 2 2.2208 8.04547 12.8244 2.46306
97 1 -1.1104 9.39086 8.66604 3.92347
98 2 2.2208 8.04952 10.0852 5.32923
99 1 -1.1104 9.48698 5.77039 0.936926
100 1 -1.1104 9.51049 11.4554 1.06257
102 1 -1.1104 9.31855 5.86867 3.86708
103 1 -1.1104 9.51201 11.5439 3.90842
90 1 -1.1104 12.1805 11.4811 6.63785
266 1 -1.1104 12.3226 5.91903 6.61228
374 2 2.2208 10.8781 12.9797 -0.319448
156 1 -1.1104 9.42376 19.883 6.66611
235 1 -1.1104 6.63059 8.70593 6.65089
65 1 -1.1104 6.63647 11.5213 6.65119
265 1 -1.1104 12.2584 8.69419 6.55253
105 2 2.2208 13.5933 7.38466 2.36989
106 2 2.2208 5.25456 18.4519 5.25493
107 1 -1.1104 1.01184 14.3375 1.09717
109 1 -1.1104 1.03184 19.8446 1.10962
113 1 -1.1104 1.07813 14.3213 3.94234
114 1 -1.1104 1.08679 19.8799 3.94411
116 1 -1.1104 1.13704 17.0792 1.07513
119 2 2.2208 5.25521 15.7271 2.44329
120 2 2.2208 5.2538 21.3089 2.50143
121 1 -1.1104 1.01059 17.072 3.83976
123 1 -1.1104 3.75399 14.2986 1.01404
125 1 -1.1104 3.898 19.8096 1.10899
127 2 2.2208 2.5018 18.4259 2.53134
128 1 -1.1104 3.91466 14.3333 3.78267
129 1 -1.1104 3.88782 19.9452 3.79915
130 2 2.2208 2.45718 15.6766 5.24086
131 2 2.2208 2.4801 21.3534 5.20167
132 1 -1.1104 3.87281 17.0477 1.09857
134 1 -1.1104 3.92087 17.0446 3.9134
118 1 -1.1104 6.66384 17.1407 6.64171
358 2 2.2208 5.17071 1.79324 -0.254997
302 1 -1.1104 0.937851 19.8962 6.64151
143 1 -1.1104 12.178 14.2149 6.68172
139 1 -1.1104 6.71369 19.9274 3.83504
110 1 -1.1104 6.60428 14.2905 0.960358
149 1 -1.1104 12.1934 16.9599 6.6142
124 1 -1.1104 3.9179 14.2051 6.61572
377 2 2.2208 2.4886 15.6438 -0.316205
9173 2 2.2208 -0.352373 21.4426 8.06278
140 1 -1.1104 6.6499 17.0119 1.04563
122 1 -1.1104 6.65578 17.1024 3.88649
115 1 -1.1104 6.64178 14.2759 3.80001
138 1 -1.1104 6.67553 19.8808 1.01223
141 2 2.2208 10.8554 18.3974 5.21397
142 1 -1.1104 12.3772 14.306 1.01868
144 1 -1.1104 12.3574 19.9141 1.08364
146 1 -1.1104 12.2827 14.2341 3.87739
147 1 -1.1104 12.234 19.8463 3.88031
148 1 -1.1104 12.2614 17.0663 1.03952
150 2 2.2208 10.8635 15.6036 2.45265
151 2 2.2208 10.8344 21.3682 2.45376
152 1 -1.1104 12.2352 16.9889 3.81318
153 1 -1.1104 9.37172 14.3078 1.0798
155 1 -1.1104 9.52758 19.8242 1.15083
157 2 2.2208 8.00296 18.4402 2.46401
158 1 -1.1104 9.47848 14.1869 3.76816
159 1 -1.1104 9.45219 19.9042 3.81549
160 2 2.2208 8.07391 15.6467 5.28623
161 2 2.2208 8.02905 21.3125 5.16235
162 1 -1.1104 9.35483 17.0095 1.20903
164 1 -1.1104 9.38847 16.9965 3.94762
145 1 -1.1104 12.2676 19.862 6.56665
154 1 -1.1104 9.28094 14.1625 6.64217
202 2 2.2208 2.4133 -3.89602 8.09842
230 2 2.2208 13.6422 -1.05256 10.8446
174 1 -1.1104 3.89754 0.181553 6.68282
165 2 2.2208 13.6087 18.4433 2.44998
317 2 2.2208 8.06527 15.7601 10.814
345 2 2.2208 13.5921 1.71997 13.6338
175 2 2.2208 5.30655 1.68836 10.9341
176 1 -1.1104 0.988952 -2.48638 12.3786
177 1 -1.1104 1.07497 3.13959 12.1854
180 1 -1.1104 1.03851 -2.4441 9.60058
181 1 -1.1104 1.05001 3.04508 9.43952
184 1 -1.1104 1.04823 0.284512 12.3189
186 2 2.2208 5.30733 -1.08362 8.10303
187 2 2.2208 5.25946 4.4798 8.03267
188 1 -1.1104 1.08664 0.309449 9.51861
190 1 -1.1104 3.84781 -2.43031 12.3076
191 1 -1.1104 3.89568 3.14508 12.3768
192 2 2.2208 2.524 1.6707 8.14614
193 1 -1.1104 3.89518 -2.33275 9.45711
194 1 -1.1104 3.93385 3.12124 9.46448
195 2 2.2208 2.44351 -1.08181 10.8699
196 2 2.2208 2.50667 4.48136 10.8002
197 1 -1.1104 3.81902 0.344491 12.2939
198 1 -1.1104 4.00452 0.370068 9.44246
171 1 -1.1104 6.59782 0.313054 6.65751
182 1 -1.1104 6.63511 -2.55444 9.43185
333 2 2.2208 2.44223 1.73547 13.6025
342 2 2.2208 -0.316681 4.5369 13.6235
209 1 -1.1104 9.44792 3.07749 6.74216
205 1 -1.1104 12.1063 -2.49702 6.59184
450 2 2.2208 8.07087 -3.91967 13.7144
336 2 2.2208 10.7976 -1.11268 13.5222
208 1 -1.1104 9.28854 -2.5722 6.67029
168 1 -1.1104 6.61898 -2.58123 6.69634
183 1 -1.1104 6.60078 3.07736 9.47021
189 1 -1.1104 6.68689 0.230442 9.54257
185 1 -1.1104 6.71514 0.349132 12.3644
179 1 -1.1104 6.61304 3.11244 12.336
178 1 -1.1104 6.66682 -2.42107 12.1937
211 2 2.2208 10.875 1.72521 10.8379
212 1 -1.1104 12.2152 -2.48634 12.0901
213 1 -1.1104 12.2345 3.16039 12.2036
214 1 -1.1104 12.2052 -2.4669 9.33701
215 1 -1.1104 12.119 3.077 9.42411
216 1 -1.1104 12.2762 0.331363 12.3049
217 2 2.2208 10.7054 -1.06906 8.0664
218 2 2.2208 10.8144 4.56518 8.05452
219 1 -1.1104 12.27 0.357194 9.38903
220 1 -1.1104 9.46062 -2.5848 12.3906
221 1 -1.1104 9.4064 3.10058 12.2226
222 2 2.2208 7.98097 1.68502 8.08987
223 1 -1.1104 9.4483 -2.51004 9.46369
224 1 -1.1104 9.39006 3.08752 9.48507
225 2 2.2208 8.03063 -1.12088 10.9632
226 2 2.2208 7.96494 4.46112 10.8645
227 1 -1.1104 9.50406 0.284346 12.2496
228 1 -1.1104 9.4474 0.313515 9.51342
9202 2 2.2208 -0.328949 21.4858 13.5815
327 2 2.2208 13.691 21.1799 5.20581
337 2 2.2208 10.7831 4.59941 13.589
236 1 -1.1104 0.909013 5.90487 6.5953
78 1 -1.1104 3.81212 11.4556 6.66585
234 1 -1.1104 0.997853 8.76025 6.60359
62 1 -1.1104 1.1294 11.6062 6.76575
238 1 -1.1104 3.81631 8.56003 6.62669
240 2 2.2208 5.27055 7.24275 10.8692
241 2 2.2208 5.25082 12.9036 10.7822
242 1 -1.1104 0.989496 8.68342 12.185
244 1 -1.1104 1.07658 8.59319 9.43918
246 1 -1.1104 1.2132 5.89811 12.2148
247 1 -1.1104 1.19249 11.4516 12.3116
250 2 2.2208 5.24206 10.0642 8.13208
251 1 -1.1104 1.07976 5.88183 9.45294
252 1 -1.1104 1.10202 11.5034 9.53902
255 1 -1.1104 3.83839 8.65378 12.2594
256 2 2.2208 2.42568 7.28098 8.07804
257 2 2.2208 2.54543 12.9267 8.01101
258 1 -1.1104 3.97707 8.71648 9.4468
259 2 2.2208 2.47162 10.0268 10.8578
260 1 -1.1104 3.916 5.87968 12.2713
261 1 -1.1104 3.9265 11.5 12.2246
262 1 -1.1104 3.86886 5.8785 9.45341
263 1 -1.1104 3.9281 11.4921 9.42905
9103 2 2.2208 -0.241103 10.1316 8.09492
243 1 -1.1104 6.60586 8.72342 12.4377
253 1 -1.1104 6.60475 5.81471 9.44811
245 1 -1.1104 6.62691 8.58911 9.61756
340 2 2.2208 2.46836 12.9968 13.5862
269 1 -1.1104 9.47416 5.9376 6.66114
267 1 -1.1104 9.4744 8.67494 6.70669
101 1 -1.1104 9.37288 11.421 6.80226
249 1 -1.1104 6.66956 11.5306 12.1637
254 1 -1.1104 6.74236 11.3907 9.4346
248 1 -1.1104 6.67014 5.85006 12.3124
264 1 -1.1104 9.41069 11.4832 9.49534
268 1 -1.1104 9.41593 5.80714 9.47159
270 1 -1.1104 9.42532 11.5208 12.3402
271 1 -1.1104 9.34892 5.89738 12.2893
272 2 2.2208 8.05282 10.1065 10.8312
273 1 -1.1104 9.47126 8.67477 9.45587
274 2 2.2208 8.00656 12.9009 8.16773
275 2 2.2208 8.02519 7.27845 8.08283
276 2 2.2208 10.8227 7.27727 10.7605
277 2 2.2208 10.8151 12.8466 10.7942
278 1 -1.1104 12.1777 8.71107 12.3024
279 1 -1.1104 12.2981 8.69505 9.43435
280 1 -1.1104 12.147 5.91921 12.1592
281 1 -1.1104 12.2042 11.4231 12.1321
282 2 2.2208 10.8102 10.0498 8.08309
283 1 -1.1104 12.2395 5.95986 9.37348
284 1 -1.1104 12.1806 11.4126 9.42788
285 1 -1.1104 9.449 8.62038 12.152
346 2 2.2208 7.91382 12.9387 13.6727
343 2 2.2208 8.02444 7.24071 13.6667
133 1 -1.1104 3.87316 17.1257 6.62219
108 1 -1.1104 1.1164 14.3913 6.67066
126 1 -1.1104 3.85049 19.9382 6.64238
319 1 -1.1104 9.41492 14.291 9.34581
296 1 -1.1104 6.68902 19.8687 12.1662
117 1 -1.1104 1.17164 17.177 6.5992
315 1 -1.1104 9.35059 17.178 12.1575
298 1 -1.1104 1.1037 20.0284 12.144
295 2 2.2208 5.29195 15.6743 7.91643
294 1 -1.1104 1.05216 14.3177 9.53571
293 2 2.2208 5.24177 21.3654 7.98022
292 1 -1.1104 1.05056 17.1078 9.54148
301 1 -1.1104 3.97169 19.9877 9.5053
300 2 2.2208 5.32747 18.4497 10.8204
310 2 2.2208 2.4074 15.7705 10.8121
309 2 2.2208 2.49188 21.343 10.8651
308 1 -1.1104 3.89048 17.1879 12.2148
307 1 -1.1104 0.989826 17.1458 12.2806
291 1 -1.1104 1.02097 19.8852 9.36466
299 1 -1.1104 1.01419 14.4094 12.2019
305 1 -1.1104 3.95092 14.3078 9.37234
304 1 -1.1104 3.95033 17.1812 9.45309
303 2 2.2208 2.53222 18.5781 8.00289
286 1 -1.1104 3.99597 19.9225 12.1922
287 1 -1.1104 3.87489 14.379 12.0968
83 1 -1.1104 12.3385 14.2551 12.2853
323 1 -1.1104 12.1991 17.02 9.42613
322 1 -1.1104 9.53746 14.2993 12.1518
320 2 2.2208 8.02805 18.4421 8.02997
9136 2 2.2208 13.6889 21.2287 10.8416
112 1 -1.1104 6.59918 19.8861 6.5501
111 1 -1.1104 6.59634 14.2508 6.57501
163 1 -1.1104 9.44552 17.0644 6.69153
313 2 2.2208 10.7535 15.5815 7.9527
312 1 -1.1104 12.1985 17.0734 12.1083
321 1 -1.1104 9.41881 19.8579 12.2946
289 1 -1.1104 6.66751 17.0907 9.41778
199 1 -1.1104 12.1735 19.8928 12.2737
311 1 -1.1104 12.2486 19.7974 9.48176
316 2 2.2208 8.05185 21.2701 10.8417
288 1 -1.1104 6.69532 19.8654 9.45858
290 1 -1.1104 6.67243 14.2326 9.46136
324 2 2.2208 10.8447 21.3027 8.06156
297 1 -1.1104 6.7148 14.3996 12.2736
318 1 -1.1104 9.46802 20.0449 9.50885
229 1 -1.1104 12.1948 14.2469 9.44694
314 1 -1.1104 9.43788 17.1282 9.32623
325 2 2.2208 13.6079 4.59726 5.16671
353 2 2.2208 8.08882 21.3014 -0.391015
326 2 2.2208 13.6235 10.1635 5.32155
334 2 2.2208 5.2195 4.51988 13.6483
9175 2 2.2208 -0.334888 15.7745 8.11023
341 2 2.2208 13.4841 7.25832 13.6062
452 2 2.2208 13.5951 -3.89076 13.6024
612 2 2.2208 5.1624 -3.88909 -0.397938
344 2 2.2208 10.8375 10.164 13.6161
347 2 2.2208 2.41561 18.5306 13.5513
332 2 2.2208 5.2627 -1.12623 13.7521
331 2 2.2208 -0.413702 -1.12677 13.7083
359 2 2.2208 2.35449 -1.07512 -0.27495
362 2 2.2208 10.7694 1.691 -0.39685
369 2 2.2208 5.22606 12.811 -0.354283
360 2 2.2208 2.34263 4.45008 -0.361372
376 2 2.2208 13.5659 10.1197 -0.440541
372 2 2.2208 10.8244 7.34974 -0.404127
380 2 2.2208 5.2718 1.70449 16.4122
381 1 -1.1104 1.03984 -2.50711 17.7065
382 1 -1.1104 0.987183 3.09687 17.8827
385 1 -1.1104 1.08349 -2.52005 15.1139
387 1 -1.1104 1.14804 3.11654 15.0884
393 1 -1.1104 0.898789 0.377462 17.86
395 2 2.2208 5.11995 -1.19503 19.2924
396 2 2.2208 5.26089 4.46486 19.2706
397 1 -1.1104 1.02477 0.220685 14.971
401 1 -1.1104 3.77292 -2.57121 17.8435
402 1 -1.1104 3.74901 3.06414 17.8546
403 2 2.2208 2.47903 1.66791 19.2567
404 1 -1.1104 3.99445 -2.48959 15.1498
406 1 -1.1104 3.82343 3.11529 15.2013
408 2 2.2208 2.42891 -1.07114 16.4952
409 2 2.2208 2.41859 4.47565 16.5526
410 1 -1.1104 3.75643 0.206602 17.9531
411 1 -1.1104 3.89803 0.358245 15.1208
386 1 -1.1104 1.00602 -2.61988 20.5202
610 2 2.2208 -0.478184 -3.99729 27.6455
552 2 2.2208 13.6478 21.3258 22.0533
407 1 -1.1104 3.90119 3.02803 20.6767
412 1 -1.1104 3.81992 0.272242 20.7048
415 2 2.2208 2.37391 -3.99404 19.2373
383 1 -1.1104 6.63375 -2.51059 17.8681
399 1 -1.1104 6.65769 0.280205 15.0955
394 1 -1.1104 6.67436 0.284801 17.8863
384 1 -1.1104 6.5269 3.14709 17.8882
391 1 -1.1104 6.63016 3.08413 15.0659
405 1 -1.1104 3.90393 -2.62658 20.6734
398 1 -1.1104 1.04858 0.230193 20.6516
638 1 -1.1104 9.4978 19.8854 23.534
9450 2 2.2208 13.6008 4.47042 22.068
389 1 -1.1104 6.68991 -2.57861 15.0351
423 2 2.2208 10.8634 1.67428 16.5526
424 1 -1.1104 12.2405 -2.50187 17.7991
425 1 -1.1104 12.1662 3.05644 17.9039
426 1 -1.1104 12.2661 -2.3729 14.9927
428 1 -1.1104 12.2074 3.20301 15.0306
430 1 -1.1104 12.2663 0.262116 17.903
431 2 2.2208 10.83 -1.13711 19.2456
432 2 2.2208 10.7865 4.50669 19.2753
433 1 -1.1104 12.1399 0.422762 15.1243
435 1 -1.1104 9.4031 -2.53119 17.7586
436 1 -1.1104 9.26219 3.16627 17.93
437 2 2.2208 7.96276 1.71598 19.2823
438 1 -1.1104 9.62588 -2.50526 15.1301
440 1 -1.1104 9.4619 3.05603 15.0908
442 2 2.2208 8.10122 -1.17124 16.4756
443 2 2.2208 7.95223 4.38935 16.5407
444 1 -1.1104 9.40279 0.226662 17.8418
445 1 -1.1104 9.41685 0.23885 15.0319
427 1 -1.1104 12.2014 -2.48406 20.6058
390 1 -1.1104 6.68699 -2.49774 20.5654
439 1 -1.1104 9.41781 -2.49324 20.6088
429 1 -1.1104 12.2567 3.14018 20.6173
434 1 -1.1104 12.1962 0.38654 20.6475
392 1 -1.1104 6.61047 3.04506 20.5959
339 2 2.2208 5.2408 10.1434 13.7546
400 1 -1.1104 6.6268 0.221646 20.6538
451 2 2.2208 13.6367 -0.998005 16.3691
9317 2 2.2208 13.6389 10.0262 16.3748
335 2 2.2208 8.07805 1.65384 13.6825
456 2 2.2208 5.17568 7.33971 16.4098
457 2 2.2208 5.16088 12.9755 16.3808
458 1 -1.1104 1.005 8.75282 17.8266
460 1 -1.1104 0.936298 8.71813 15.0158
464 1 -1.1104 1.10473 5.87391 17.7724
465 1 -1.1104 1.15846 11.637 17.8496
468 2 2.2208 5.14256 10.1059 19.2694
469 1 -1.1104 1.04178 5.88942 15.0503
471 1 -1.1104 0.973665 11.5109 15.0669
477 1 -1.1104 3.82179 8.74002 17.7959
478 2 2.2208 2.41107 7.39987 19.2664
479 2 2.2208 2.46541 12.9492 19.2333
480 1 -1.1104 3.80621 8.78462 15.0169
482 2 2.2208 2.36062 10.1705 16.3559
483 1 -1.1104 3.81669 5.91365 17.8411
484 1 -1.1104 3.77791 11.5484 17.8595
485 1 -1.1104 3.82174 5.96144 15.0073
487 1 -1.1104 3.84136 11.5801 14.9936
470 1 -1.1104 1.08138 5.92199 20.629
481 1 -1.1104 3.74575 8.65359 20.6652
459 1 -1.1104 6.72576 8.69714 17.8654
448 2 2.2208 10.8397 -3.86524 16.3842
453 2 2.2208 -0.395998 7.34717 16.4513
476 1 -1.1104 6.58835 11.5282 20.5826
474 1 -1.1104 6.62081 5.86782 20.6625
462 1 -1.1104 6.60283 8.73701 15.103
466 1 -1.1104 6.59197 5.90731 17.8913
475 1 -1.1104 6.72779 11.5481 15.1108
467 1 -1.1104 6.59955 11.3889 17.823
473 1 -1.1104 6.58815 5.91335 15.0942
492 2 2.2208 10.7923 7.2485 16.4581
493 2 2.2208 10.7988 12.8389 16.4569
494 1 -1.1104 12.1847 8.62737 17.8101
495 1 -1.1104 12.1921 8.75204 15.1106
497 1 -1.1104 12.2141 5.86016 17.7964
498 1 -1.1104 12.1498 11.4009 17.8159
499 2 2.2208 10.8817 10.0128 19.2132
500 1 -1.1104 12.171 5.91079 15.0233
502 1 -1.1104 12.252 11.4792 14.9703
504 1 -1.1104 9.49488 8.63478 17.7579
505 2 2.2208 7.97738 7.33124 19.2589
506 2 2.2208 8.00797 12.8282 19.1741
507 1 -1.1104 9.39424 8.65854 14.9596
509 2 2.2208 8.1032 10.0893 16.4244
510 1 -1.1104 9.41432 5.91108 17.9254
511 1 -1.1104 9.35909 11.4706 17.808
512 1 -1.1104 9.33723 5.83135 15.1152
514 1 -1.1104 9.40853 11.4871 15.0237
501 1 -1.1104 12.1471 5.84045 20.7341
513 1 -1.1104 9.40573 5.8831 20.6143
463 1 -1.1104 6.5748 8.69472 20.6625
447 2 2.2208 13.5642 -3.831 19.1169
503 1 -1.1104 12.2551 11.4673 20.5364
642 2 2.2208 10.8786 -3.83188 22.0658
519 2 2.2208 5.23498 18.6012 16.4551
520 1 -1.1104 0.948267 14.3513 17.8414
521 1 -1.1104 0.999966 19.9718 17.8738
524 1 -1.1104 1.09667 14.4053 14.972
526 1 -1.1104 1.01942 19.9563 14.9862
532 1 -1.1104 1.13389 17.22 17.7968
534 2 2.2208 5.30099 15.7003 19.2134
535 2 2.2208 5.19743 21.3208 19.3146
536 1 -1.1104 1.00113 17.2423 15.0298
540 1 -1.1104 3.78972 14.3791 17.8022
541 1 -1.1104 3.80916 19.9255 17.8434
542 2 2.2208 2.42786 18.5591 19.2703
543 1 -1.1104 3.80339 14.4025 14.987
545 1 -1.1104 3.68731 19.9321 14.9641
547 2 2.2208 2.49082 15.8208 16.4017
548 2 2.2208 2.42024 21.3661 16.4824
549 1 -1.1104 3.91475 17.0703 17.8385
550 1 -1.1104 3.84844 17.1809 14.9817
546 1 -1.1104 3.81149 19.8731 20.6102
643 2 2.2208 7.97509 -3.8929 24.8473
530 1 -1.1104 6.59556 19.9401 15.0627
522 1 -1.1104 6.54739 14.2339 17.8179
533 1 -1.1104 6.6605 17.1106 17.861
354 2 2.2208 5.20453 15.7373 13.5655
449 2 2.2208 8.0506 -3.95674 19.2759
580 1 -1.1104 12.2319 14.3551 26.133
350 2 2.2208 5.22637 21.2501 13.6137
538 1 -1.1104 6.59883 17.1328 15.094
528 1 -1.1104 6.49084 14.3124 14.9763
523 1 -1.1104 6.63706 19.8966 17.8656
555 2 2.2208 10.8048 18.5145 16.523
556 1 -1.1104 12.1447 14.2671 17.8714
557 1 -1.1104 12.1623 19.8884 17.9071
558 1 -1.1104 12.1378 14.22 15.1244
560 1 -1.1104 12.1907 19.8821 15.1279
562 1 -1.1104 12.1583 17.0712 17.8145
563 2 2.2208 10.8459 15.695 19.3014
564 2 2.2208 10.7999 21.3119 19.2198
565 1 -1.1104 12.1993 17.1811 14.9969
567 1 -1.1104 9.3797 14.2172 17.7755
568 1 -1.1104 9.43587 19.9739 17.8805
569 2 2.2208 8.02836 18.481 19.3314
570 1 -1.1104 9.38456 14.2916 15.0803
572 1 -1.1104 9.50569 19.8256 15.0819
574 2 2.2208 8.07416 15.7263 16.47
575 2 2.2208 8.0372 21.3172 16.4493
576 1 -1.1104 9.42572 17.1926 17.9681
577 1 -1.1104 9.43699 17.0111 15.0357
571 1 -1.1104 9.50266 14.2407 20.6233
573 1 -1.1104 9.46574 20.0135 20.6815
539 1 -1.1104 6.68292 17.1766 20.6473
578 1 -1.1104 9.51831 17.0042 20.7751
9177 2 2.2208 13.5523 18.5397 13.6368
607 1 -1.1104 12.1259 17.0781 23.4564
559 1 -1.1104 12.2049 14.2467 20.5596
367 2 2.2208 5.28944 7.3039 27.636
356 2 2.2208 10.8248 15.6597 13.6601
518 2 2.2208 13.6781 18.4993 24.9228
702 2 2.2208 13.6823 7.37695 24.74
721 1 -1.1104 6.55356 17.1567 23.4331
388 1 -1.1104 1.0053 3.04949 20.7566
583 2 2.2208 5.21179 1.60215 22.0261
584 1 -1.1104 1.05971 -2.53438 23.4545
585 1 -1.1104 1.00536 3.0389 23.4625
588 1 -1.1104 0.897182 -2.60572 26.2907
589 1 -1.1104 0.981743 2.99725 26.2539
592 1 -1.1104 0.985344 0.280613 23.5119
594 2 2.2208 5.27442 -1.01091 24.8936
595 2 2.2208 5.15722 4.54906 24.8935
596 1 -1.1104 0.970108 0.245916 26.3546
598 1 -1.1104 3.79522 -2.45327 23.4912
599 1 -1.1104 3.71337 3.11929 23.4372
600 2 2.2208 2.44786 1.71009 24.9117
601 1 -1.1104 3.7713 -2.47902 26.2901
602 1 -1.1104 3.7969 3.16533 26.3872
603 2 2.2208 2.43902 -1.12256 22.0619
604 2 2.2208 2.42847 4.49228 22.0812
605 1 -1.1104 3.85691 0.25805 23.4077
606 1 -1.1104 3.81179 0.366442 26.317
710 1 -1.1104 6.70571 19.9534 23.3884
590 1 -1.1104 6.56117 -2.461 26.2844
586 1 -1.1104 6.71017 -2.55469 23.5055
593 1 -1.1104 6.63373 0.307912 23.5231
675 1 -1.1104 9.36013 17.166 23.474
446 1 -1.1104 9.47835 0.270454 20.7089
646 2 2.2208 13.6696 1.71126 24.8651
363 2 2.2208 8.07244 -1.12749 27.6179
637 1 -1.1104 9.44207 14.2913 23.4365
441 1 -1.1104 9.44299 3.0126 20.7082
591 1 -1.1104 6.58651 3.07186 26.2447
587 1 -1.1104 6.59153 3.04958 23.4321
597 1 -1.1104 6.61365 0.297543 26.3016
619 2 2.2208 10.7789 1.72004 22.0669
620 1 -1.1104 12.3228 -2.51659 23.4788
621 1 -1.1104 12.2411 3.08324 23.3868
622 1 -1.1104 12.1884 -2.45184 26.2508
623 1 -1.1104 12.2226 3.19519 26.309
624 1 -1.1104 12.2182 0.303312 23.4085
625 2 2.2208 10.817 -1.14098 24.8305
626 2 2.2208 10.923 4.61979 24.8348
627 1 -1.1104 12.2364 0.326709 26.1765
628 1 -1.1104 9.49636 -2.40543 23.4006
629 1 -1.1104 9.40657 3.1293 23.5347
630 2 2.2208 7.97122 1.74141 24.9313
631 1 -1.1104 9.36696 -2.57211 26.2156
632 1 -1.1104 9.44021 3.07739 26.2098
633 2 2.2208 7.96732 -1.06074 22.0762
634 2 2.2208 7.99344 4.44505 22.0556
635 1 -1.1104 9.39814 0.355721 23.5448
636 1 -1.1104 9.39855 0.224402 26.2767
581 1 -1.1104 12.2205 19.9725 26.3072
364 2 2.2208 8.03717 4.45468 27.6473
486 1 -1.1104 3.84861 5.94955 20.6704
645 2 2.2208 13.6618 -0.998642 21.9793
472 1 -1.1104 1.10005 11.5853 20.6394
461 1 -1.1104 1.07329 8.76959 20.6505
488 1 -1.1104 3.84919 11.5325 20.6588
700 2 2.2208 13.6934 12.9896 24.7723
648 2 2.2208 5.25474 7.28339 22.0433
649 2 2.2208 5.23617 12.9851 22.0006
650 1 -1.1104 0.919515 8.70528 23.4623
652 1 -1.1104 0.953278 8.71229 26.1809
654 1 -1.1104 1.02807 5.89045 23.4762
655 1 -1.1104 0.953954 11.4079 23.4876
658 2 2.2208 5.21867 10.1483 24.7986
659 1 -1.1104 0.953218 5.83671 26.2096
660 1 -1.1104 0.902721 11.4794 26.3276
663 1 -1.1104 3.76154 8.7434 23.392
664 2 2.2208 2.40098 7.3127 24.8382
665 2 2.2208 2.31756 12.8727 24.8758
666 1 -1.1104 3.76512 8.79711 26.2197
667 2 2.2208 2.39496 10.1427 22.102
668 1 -1.1104 3.7572 5.9089 23.4247
669 1 -1.1104 3.72061 11.517 23.4414
670 1 -1.1104 3.75322 5.94698 26.2658
671 1 -1.1104 3.83705 11.5717 26.1731
418 2 2.2208 -0.364495 7.30426 22.0521
653 1 -1.1104 6.6379 8.6416 26.1539
662 1 -1.1104 6.58542 11.461 26.211
676 2 2.2208 -0.430503 10.1266 24.8934
491 2 2.2208 -0.321305 4.58626 19.2907
515 1 -1.1104 9.40004 11.5141 20.5808
704 1 -1.1104 6.62263 14.1772 26.1779
496 1 -1.1104 12.2843 8.64028 20.6494
508 1 -1.1104 9.43776 8.67503 20.6458
656 1 -1.1104 6.57829 5.85211 23.5151
661 1 -1.1104 6.60829 5.8546 26.2414
657 1 -1.1104 6.54432 11.475 23.3501
651 1 -1.1104 6.77157 8.63874 23.4431
679 1 -1.1104 9.38188 11.4793 26.2531
680 1 -1.1104 9.49476 5.99362 26.1862
681 1 -1.1104 9.34538 11.4706 23.2951
682 1 -1.1104 9.48108 5.93408 23.3134
683 2 2.2208 8.0609 10.0915 21.9356
684 1 -1.1104 9.45672 8.82951 26.3466
685 2 2.2208 8.0186 12.8576 24.7441
686 2 2.2208 8.02539 7.29025 24.7531
687 2 2.2208 10.8338 7.37984 21.9814
688 2 2.2208 10.8501 12.8495 21.9882
689 1 -1.1104 12.3057 8.77194 23.3259
690 1 -1.1104 12.2021 8.73536 26.2378
691 1 -1.1104 12.2461 5.96704 23.4256
692 1 -1.1104 12.1269 11.5419 23.4101
693 2 2.2208 10.7679 10.1816 24.8454
694 1 -1.1104 12.3555 5.97879 26.1665
695 1 -1.1104 12.2205 11.5157 26.1645
696 1 -1.1104 9.43927 8.66515 23.3589
579 1 -1.1104 12.2524 19.9727 23.5093
527 1 -1.1104 1.03813 19.9153 20.6598
544 1 -1.1104 3.87361 14.3818 20.6426
551 1 -1.1104 3.80056 17.1271 20.6328
525 1 -1.1104 1.15144 14.3627 20.6172
537 1 -1.1104 1.05904 17.1776 20.659
608 2 2.2208 10.703 15.7211 24.8582
701 2 2.2208 2.39731 15.7016 22.0512
703 1 -1.1104 3.86574 19.8562 23.419
705 1 -1.1104 3.88458 14.2508 23.4619
707 1 -1.1104 1.05777 19.8296 26.2859
708 1 -1.1104 1.08422 17.1222 26.2575
709 1 -1.1104 0.948921 14.2229 26.2594
711 2 2.2208 5.32321 21.2507 24.8422
712 2 2.2208 5.15938 15.6528 24.7855
714 1 -1.1104 1.01521 19.823 23.6009
715 1 -1.1104 1.00081 14.2565 23.3965
716 2 2.2208 5.20852 18.5272 21.991
717 1 -1.1104 3.85692 19.8664 26.1944
718 2 2.2208 2.44945 18.4304 24.8637
719 1 -1.1104 3.86165 16.9466 26.2533
720 1 -1.1104 3.74934 14.2044 26.2562
722 1 -1.1104 0.946893 17.097 23.4893
723 1 -1.1104 3.7796 17.0338 23.4505
724 2 2.2208 2.47671 21.346 22.0959
647 1 -1.1104 9.40778 14.2544 26.2659
553 2 2.2208 10.8919 18.54 22.0857
531 1 -1.1104 6.52956 19.8905 20.5602
644 1 -1.1104 6.61787 19.7897 26.1996
609 2 2.2208 10.7862 21.3031 24.8916
673 2 2.2208 7.99924 15.6552 22.0441
561 1 -1.1104 12.3361 19.8116 20.6396
566 1 -1.1104 12.2405 17.1192 20.6865
672 1 -1.1104 9.36676 19.871 26.2697
639 2 2.2208 8.07347 18.5398 24.8322
615 1 -1.1104 12.168 17.1136 26.3003
713 1 -1.1104 6.67104 14.2107 23.4635
674 2 2.2208 8.10446 21.3576 22.0531
554 1 -1.1104 12.2612 14.3367 23.3304
706 1 -1.1104 6.53328 16.9871 26.2466
678 1 -1.1104 9.36853 17.1492 26.2838
529 1 -1.1104 6.63275 14.3669 20.6436
698 2 2.2208 -0.276582 21.2153 24.9674
517 2 2.2208 13.5591 4.53431 16.5161
516 2 2.2208 13.6541 1.73359 19.2654
617 2 2.2208 -0.369762 1.65348 22.0439
489 2 2.2208 13.6191 12.9087 19.1284
349 2 2.2208 13.6611 21.4135 27.6195
416 2 2.2208 -0.391379 1.77118 16.5319
9387 2 2.2208 13.554 15.6746 16.4913
379 2 2.2208 2.46296 21.2462 27.6289
365 2 2.2208 13.6251 -1.05658 27.6615
378 2 2.2208 5.24347 18.5395 27.6503
368 2 2.2208 2.37236 10.141 27.6705
351 2 2.2208 8.02554 15.6403 27.631
357 2 2.2208 8.02128 18.5155 13.6012
338 2 2.2208 2.39015 7.31646 13.6533
352 2 2.2208 10.8291 18.4588 27.6513
375 2 2.2208 -0.304706 18.5469 27.6499
725 2 2.2208 5.3303 24.1178 5.214
726 2 2.2208 5.25753 29.6773 5.2772
727 1 -1.1104 1.13426 25.4663 1.08159
728 1 -1.1104 1.16268 25.52 4.00105
729 1 -1.1104 1.03439 22.6196 1.11045
730 1 -1.1104 1.12791 28.2659 1.17173
731 2 2.2208 5.35038 26.9238 2.45217
732 1 -1.1104 1.07706 22.7448 3.84832
733 1 -1.1104 1.09953 28.2549 3.95323
734 1 -1.1104 3.89723 25.4688 1.03303
735 2 2.2208 2.50922 24.143 2.48851
736 2 2.2208 2.5534 29.6976 2.53777
737 1 -1.1104 3.85845 25.4741 3.89966
738 2 2.2208 2.4886 26.9019 5.32994
739 1 -1.1104 3.88067 22.5613 1.03829
740 1 -1.1104 3.98702 28.2062 1.07595
741 1 -1.1104 3.86645 22.6945 3.81841
742 1 -1.1104 3.85111 28.2203 3.88157
1030 1 -1.1104 12.2184 39.506 12.2563
1038 1 -1.1104 12.2735 42.228 12.1589
743 2 2.2208 -0.260861 29.7034 5.37365
868 1 -1.1104 1.0921 22.6282 6.75228
770 2 2.2208 13.6884 24.101 2.51054
869 1 -1.1104 1.12483 28.3592 6.68629
872 1 -1.1104 3.82007 25.466 6.68979
1037 1 -1.1104 12.277 42.2546 9.43586
1075 2 2.2208 5.29624 29.6782 -0.356896
845 2 2.2208 -0.372954 40.8852 5.30116
748 1 -1.1104 6.64549 22.7273 1.05612
751 1 -1.1104 6.73134 28.3756 3.8756
750 1 -1.1104 6.57363 22.7608 3.83715
746 1 -1.1104 6.75631 25.5012 1.12404
747 1 -1.1104 6.7299 25.589 3.90548
749 1 -1.1104 6.83635 28.1823 1.0398
752 2 2.2208 10.8438 24.0707 5.31199
753 2 2.2208 10.9482 29.6413 5.26325
754 1 -1.1104 12.3661 25.5523 1.02668
755 1 -1.1104 12.355 25.4255 3.8982
756 1 -1.1104 12.2718 22.6941 1.02119
757 1 -1.1104 12.2049 28.2564 1.11721
758 2 2.2208 10.9546 26.8288 2.47432
759 1 -1.1104 12.2652 22.6784 3.8335
760 1 -1.1104 12.2806 28.2006 3.97043
761 1 -1.1104 9.59729 25.5783 1.00241
762 2 2.2208 8.10821 24.1771 2.4425
763 2 2.2208 8.17382 29.6329 2.46401
764 1 -1.1104 9.58194 25.5516 3.83895
765 2 2.2208 8.13829 26.954 5.24752
766 1 -1.1104 9.52312 22.7492 1.01292
767 1 -1.1104 9.50793 28.2318 1.11176
768 1 -1.1104 9.45179 22.6865 3.85675
769 1 -1.1104 9.49475 28.2576 3.91295
902 1 -1.1104 9.44797 25.4568 6.7166
903 1 -1.1104 9.46356 22.7197 6.593
867 1 -1.1104 6.72537 25.517 6.75717
904 1 -1.1104 9.55191 28.2238 6.68061
1019 1 -1.1104 9.27386 45.1386 12.3936
1027 1 -1.1104 12.2411 39.4569 9.35831
870 1 -1.1104 6.67874 22.7503 6.57767
745 2 2.2208 -0.312451 26.9542 2.56495
1081 2 2.2208 10.9433 29.7036 -0.352121
1067 2 2.2208 10.8264 40.8728 -0.282642
773 2 2.2208 5.23256 35.2761 5.35262
774 1 -1.1104 1.27857 31.1181 1.1424
775 1 -1.1104 1.03082 36.6199 1.13263
777 1 -1.1104 1.0528 31.006 3.91174
778 1 -1.1104 1.1512 36.6837 3.90353
780 1 -1.1104 1.04252 33.8364 1.21656
781 2 2.2208 5.33513 32.4118 2.52222
782 2 2.2208 5.3078 38.0096 2.52057
783 1 -1.1104 1.0356 33.8426 3.97499
785 1 -1.1104 3.93985 31.0303 1.09312
786 1 -1.1104 3.9274 36.6204 1.08835
787 2 2.2208 2.49183 35.1842 2.50502
788 1 -1.1104 3.95397 31.1211 3.96276
789 1 -1.1104 3.88059 36.6404 3.91279
790 2 2.2208 2.45596 32.3988 5.23566
791 2 2.2208 2.53948 38.0726 5.32328
792 1 -1.1104 3.95257 33.8495 1.03828
793 1 -1.1104 3.82284 33.8059 3.85464
1091 2 2.2208 -0.381901 40.8831 -0.31601
796 2 2.2208 -0.337674 32.5326 2.47416
1084 2 2.2208 5.31706 35.2775 -0.234869
798 1 -1.1104 6.65772 31.0496 3.97492
776 1 -1.1104 6.62007 36.5639 1.11163
797 1 -1.1104 6.67274 31.0385 1.09671
1082 2 2.2208 2.42852 38.0117 -0.270611
1476 1 -1.1104 9.44657 47.9141 1.20992
784 1 -1.1104 6.56236 33.9028 4.01523
779 1 -1.1104 6.69497 36.6285 3.83386
799 1 -1.1104 6.65297 33.8411 1.25264
800 2 2.2208 10.879 35.2131 5.3582
801 1 -1.1104 12.2583 31.0826 1.06745
802 1 -1.1104 12.1861 36.8181 1.16633
803 1 -1.1104 12.3311 30.9533 3.83616
804 1 -1.1104 12.2167 36.6544 4.01632
805 1 -1.1104 12.2734 33.8626 1.06176
806 2 2.2208 10.8917 32.4679 2.52339
807 2 2.2208 10.8943 38.062 2.48904
808 1 -1.1104 12.2855 33.8132 3.98378