LAMMPS (29 Oct 2020)
OMP_NUM_THREADS environment is not set. Defaulting to 1 thread. (../comm.cpp:94)
  using 1 OpenMP thread(s) per MPI task
OMP_NUM_THREADS environment is not set. Defaulting to 1 thread. (../comm.cpp:94)
  using 1 OpenMP thread(s) per MPI task
Reading data file ...
  orthogonal box = (-0.3735137 -4.6247756 -0.36999021) to (27.713514 332.70478 27.709990)
  2 by 13 by 2 MPI processor grid
  reading atoms ...
  17760 atoms
  reading velocities ...
  17760 velocities
Finding 1-2 1-3 1-4 neighbors ...
  special bond factors lj:    0.0      0.0      0.0     
  special bond factors coul:  0.0      0.0      0.0     
     0 = max # of 1-2 neighbors
     0 = max # of 1-3 neighbors
     0 = max # of 1-4 neighbors
     1 = max # of special neighbors
  special bonds CPU = 0.003 seconds
  read_data CPU = 0.059 seconds
WARNING: 13 of 1000 force values in table Xe-Xe are inconsistent with -dE/dr.
  Should only be flagged at inflection points (../pair_table.cpp:461)
WARNING: 2 of 1000 force values in table Xe-O are inconsistent with -dE/dr.
  Should only be flagged at inflection points (../pair_table.cpp:461)
WARNING: 2 of 1000 force values in table Xe-Th are inconsistent with -dE/dr.
  Should only be flagged at inflection points (../pair_table.cpp:461)
Setting atom values ...
  11760 settings made for charge
Setting atom values ...
  5880 settings made for charge
Setting atom values ...
  120 settings made for charge
PPPM initialization ...
  using 12-bit tables for long-range coulomb (../kspace.cpp:328)
  G vector (1/distance) = 0.2987336
  grid = 40 240 40
  stencil order = 5
  estimated absolute RMS force accuracy = 0.00015633014
  estimated relative force accuracy = 1.0856527e-05
  using single precision MKL FFT
  3d grid and FFT values/proc = 18225 7600
Neighbor list info ...
  update every 1 steps, delay 0 steps, check yes
  max neighbors/atom: 2000, page size: 100000
  master list distance cutoff = 13
  ghost atom cutoff = 13
  binsize = 6.5, bins = 5 52 5
  3 neighbor lists, perpetual/occasional/extra = 3 0 0
  (1) pair coul/long, perpetual
      attributes: half, newton on
      pair build: half/bin/newton
      stencil: half/bin/3d/newton
      bin: standard
  (2) pair eam/alloy, perpetual, skip from (1)
      attributes: half, newton on
      pair build: skip
      stencil: none
      bin: none
  (3) pair table, perpetual, skip from (1)
      attributes: half, newton on
      pair build: skip
      stencil: none
      bin: none
Setting up Verlet run ...
  Unit style    : metal
  Current step  : 0
  Time step     : 0.001
Per MPI rank memory allocation (min/avg/max) = 9.257 | 9.949 | 10.04 Mbytes
Step Temp E_pair E_mol TotEng Press 
       0          600   -230339.36            0   -228962.04     -293.168 
  100000    592.14938    -230342.1            0    -228982.8   -318.14389 
Loop time of 741.356 on 52 procs for 100000 steps with 17760 atoms

Performance: 11.654 ns/day, 2.059 hours/ns, 134.888 timesteps/s
99.8% CPU use with 52 MPI tasks x 1 OpenMP threads

MPI task timing breakdown:
Section |  min time  |  avg time  |  max time  |%varavg| %total
---------------------------------------------------------------
Pair    | 520.95     | 537.8      | 562.73     |  39.9 | 72.54
Bond    | 0.0090825  | 0.013348   | 0.017947   |   1.9 |  0.00
Kspace  | 151.37     | 174.39     | 191.1      |  66.0 | 23.52
Neigh   | 1.7869     | 1.9172     | 2.0539     |   4.3 |  0.26
Comm    | 20.398     | 22.233     | 24.952     |  23.5 |  3.00
Output  | 5.7348e-05 | 6.3602e-05 | 0.00031091 |   0.0 |  0.00
Modify  | 2.1357     | 3.1329     | 5.3252     |  62.2 |  0.42
Other   |            | 1.863      |            |       |  0.25

Nlocal:        341.538 ave         368 max         327 min
Histogram: 3 7 14 11 9 3 1 1 2 1
Nghost:        5541.12 ave        5717 max        5403 min
Histogram: 14 6 0 4 7 5 3 1 0 12
Neighs:       107706.0 ave      117472 max       98443 min
Histogram: 3 4 2 2 15 14 7 1 1 3

Total # of neighbors = 5600713
Ave neighs/atom = 315.35546
Ave special neighs/atom = 0.0000000
Neighbor list builds = 606
Dangerous builds = 0
11760 atoms in group oxygen
PPPM initialization ...
  using 12-bit tables for long-range coulomb (../kspace.cpp:328)
  G vector (1/distance) = 0.2987336
  grid = 40 240 40
  stencil order = 5
  estimated absolute RMS force accuracy = 0.00015633014
  estimated relative force accuracy = 1.0856527e-05
  using single precision MKL FFT
  3d grid and FFT values/proc = 18225 7600
Neighbor list info ...
  update every 1 steps, delay 0 steps, check yes
  max neighbors/atom: 2000, page size: 100000
  master list distance cutoff = 13
  ghost atom cutoff = 13
  binsize = 6.5, bins = 5 52 5
  3 neighbor lists, perpetual/occasional/extra = 3 0 0
  (1) pair coul/long, perpetual
      attributes: half, newton on
      pair build: half/bin/newton
      stencil: half/bin/3d/newton
      bin: standard
  (2) pair eam/alloy, perpetual, skip from (1)
      attributes: half, newton on
      pair build: skip
      stencil: none
      bin: none
  (3) pair table, perpetual, skip from (1)
      attributes: half, newton on
      pair build: skip
      stencil: none
      bin: none
Setting up Verlet run ...
  Unit style    : metal
  Current step  : 0
  Time step     : 0.001
Per MPI rank memory allocation (min/avg/max) = 9.507 | 10.21 | 10.30 Mbytes
Step f_2 Temp v_Tdiff v_deltaT 
       0            0    592.14938            0            0 
  100000    682.10032    592.52268  0.019330459    224.42484 
  200000    1343.8537    596.12263  0.021745169    252.45939 
  300000    2002.3016    595.53803  0.021925155    254.54902 
  400000    2668.1654    597.94065  0.021483635    249.42301 
  500000    3324.1708     599.3659  0.022147411    257.12939 
  600000     3988.478    595.62527  0.021452977    249.06707 
  700000    4653.1895    600.88876  0.021146798    245.51236 
  800000     5316.115    598.25502  0.021904321    254.30714 
  900000    5982.3995    600.83655  0.021032698    244.18767 
 1000000    6644.6793    596.34759   0.02149577     249.5639 
Loop time of 7381.43 on 52 procs for 1000000 steps with 17760 atoms

Performance: 11.705 ns/day, 2.050 hours/ns, 135.475 timesteps/s
99.8% CPU use with 52 MPI tasks x 1 OpenMP threads

MPI task timing breakdown:
Section |  min time  |  avg time  |  max time  |%varavg| %total
---------------------------------------------------------------
Pair    | 5196.2     | 5348.8     | 5616.1     | 133.8 | 72.46
Bond    | 0.092438   | 0.14035    | 0.26881    |   7.3 |  0.00
Kspace  | 1507.2     | 1754.1     | 1901.9     | 213.5 | 23.76
Neigh   | 17.367     | 18.922     | 20.345     |  15.1 |  0.26
Comm    | 198.38     | 221.18     | 253.27     |  80.6 |  3.00
Output  | 0.0011117  | 0.0011679  | 0.0023221  |   0.5 |  0.00
Modify  | 6.9995     | 7.5588     | 8.426      |  12.9 |  0.10
Other   |            | 30.75      |            |       |  0.42

Nlocal:        341.538 ave         367 max         323 min
Histogram: 3 6 6 12 9 5 4 4 1 2
Nghost:        5539.29 ave        5700 max        5397 min
Histogram: 11 9 2 2 5 5 2 4 0 12
Neighs:       107714.0 ave      118078 max       96788 min
Histogram: 6 1 2 2 13 10 6 7 3 2

Total # of neighbors = 5601129
Ave neighs/atom = 315.37889
Ave special neighs/atom = 0.0000000
Neighbor list builds = 6056
Dangerous builds = 0
Total wall time: 2:15:23
