ITEM: TIMESTEP
80000
ITEM: NUMBER OF ATOMS
17672
ITEM: BOX BOUNDS pp pp pp
-3.5567612953529237e-01 2.7695676129534942e+01
-4.3195443336646226e+00 3.3239954433368274e+02
-3.5576414876069457e-01 2.7695764148760432e+01
ITEM: ATOMS id type q x y z
1 2 2.2208 5.21796 1.44997 5.27479
2 1 -1.1104 1.09401 -2.97148 1.18862
3 1 -1.1104 0.867058 2.79389 1.11809
6 1 -1.1104 1.07103 -2.99418 4.08446
7 1 -1.1104 1.10835 2.83325 3.78789
10 1 -1.1104 1.1428 -0.166221 1.03846
12 2 2.2208 5.0723 -1.44862 2.44966
13 2 2.2208 5.194 4.21937 2.46346
14 1 -1.1104 1.04903 -0.257731 3.93823
16 1 -1.1104 3.87155 -2.86645 1.15005
17 1 -1.1104 3.87609 2.96508 1.26862
18 2 2.2208 2.43854 1.34043 2.55189
19 1 -1.1104 3.77972 -2.82359 4.05497
20 1 -1.1104 3.74991 2.80849 3.95003
21 2 2.2208 2.56245 -1.38268 5.43664
22 2 2.2208 2.45606 4.17235 5.3928
23 1 -1.1104 3.86168 0.0465943 1.11887
24 1 -1.1104 3.88736 0.0546041 3.84331
11 1 -1.1104 6.52991 -0.0751618 1.09751
4 1 -1.1104 6.50496 -2.8161 1.14835
8 1 -1.1104 6.6656 -2.82915 3.99131
9 1 -1.1104 6.62444 2.73511 3.77752
29 2 2.2208 5.19699 -4.29206 5.31579
166 1 -1.1104 0.884007 -2.7109 6.85212
5 1 -1.1104 6.60648 2.86501 1.07714
330 1 -1.1104 12.1893 14.0165 12.2664
202 2 2.2208 2.31777 -4.28266 8.07153
174 1 -1.1104 3.86817 -0.0804157 6.81792
168 1 -1.1104 6.57001 -2.94875 6.75073
171 1 -1.1104 6.5287 -0.0858508 6.75346
341 2 2.2208 13.5898 9.76308 10.9522
15 1 -1.1104 6.52568 0.0363215 4.01789
332 2 2.2208 13.4678 18.242 8.10729
50 2 2.2208 13.6302 -1.61883 5.32056
49 2 2.2208 13.6021 1.39983 2.52719
31 2 2.2208 10.7648 1.34899 5.29909
32 1 -1.1104 12.369 -2.79249 1.16706
33 1 -1.1104 12.284 2.81737 1.09052
34 1 -1.1104 12.1678 -2.95509 3.99724
35 1 -1.1104 11.9787 2.79835 3.90558
36 1 -1.1104 12.1842 0.0500889 1.11303
37 2 2.2208 10.8577 -1.39882 2.595
38 2 2.2208 10.8415 4.24994 2.49964
39 1 -1.1104 12.2908 -0.0104245 3.96182
40 1 -1.1104 9.48739 -2.84421 0.985735
41 1 -1.1104 9.56386 2.78074 1.08265
42 2 2.2208 8.07817 1.34552 2.4513
43 1 -1.1104 9.36052 -2.8969 3.86265
44 1 -1.1104 9.26711 2.76467 4.02904
45 2 2.2208 7.95703 -1.63066 5.40655
46 2 2.2208 8.01728 4.13607 5.43939
47 1 -1.1104 9.24226 0.0339968 1.00829
48 1 -1.1104 9.56774 -0.124447 3.93335
334 2 2.2208 13.5514 4.1123 5.24301
206 1 -1.1104 12.2136 2.56679 6.72413
208 1 -1.1104 9.41183 -2.81501 6.69314
324 2 2.2208 10.7638 21.0549 7.99504
325 2 2.2208 10.7719 15.3264 8.14148
207 1 -1.1104 12.2497 -0.379162 6.66758
210 1 -1.1104 9.37647 -0.166056 6.76384
205 1 -1.1104 12.0774 -2.95533 6.7931
209 1 -1.1104 9.47549 2.61773 6.66783
54 2 2.2208 5.27152 6.92912 5.41953
55 2 2.2208 5.18112 12.4234 5.30211
56 1 -1.1104 1.13862 8.28049 1.14136
58 1 -1.1104 0.951419 8.39012 3.7731
60 1 -1.1104 0.949266 5.5163 1.05281
61 1 -1.1104 1.00212 11.2107 1.07885
66 2 2.2208 5.16921 9.70771 2.47658
67 1 -1.1104 1.0365 5.59537 3.97771
68 1 -1.1104 1.08658 11.1705 3.94934
71 1 -1.1104 3.88302 8.4222 1.00094
72 2 2.2208 2.47336 7.00144 2.52033
73 2 2.2208 2.38179 12.5479 2.35715
74 1 -1.1104 3.89328 8.17387 3.93567
75 2 2.2208 2.46996 9.74514 5.25576
76 1 -1.1104 3.76114 5.73331 1.08212
77 1 -1.1104 3.76355 10.9162 1.1987
79 1 -1.1104 3.89701 5.57676 4.00542
80 1 -1.1104 3.80393 11.1218 4.02535
70 1 -1.1104 6.6346 10.9818 3.84185
57 1 -1.1104 6.66087 8.19308 1.30277
69 1 -1.1104 6.68532 5.43634 3.95921
63 1 -1.1104 6.50608 5.49367 1.02973
59 1 -1.1104 6.64626 8.22653 4.0448
64 1 -1.1104 6.46848 10.9932 0.837883
233 2 2.2208 13.5326 -4.26345 8.17309
234 1 -1.1104 1.03071 8.27765 6.67552
237 1 -1.1104 6.73411 5.5854 6.63782
239 1 -1.1104 3.93095 5.55436 6.7917
236 1 -1.1104 0.86272 5.54802 6.70463
65 1 -1.1104 6.755 11.2726 6.62543
363 2 2.2208 7.95061 6.79407 13.6967
375 2 2.2208 13.4758 20.8757 -0.323181
53 2 2.2208 13.6127 -4.26716 2.60668
84 2 2.2208 10.9186 6.92216 5.34859
85 2 2.2208 10.9782 12.5503 5.32407
86 1 -1.1104 12.1327 8.38942 0.956095
87 1 -1.1104 12.2197 8.28186 3.85148
88 1 -1.1104 12.4069 5.67076 1.13238
89 1 -1.1104 12.2453 11.332 1.15341
91 2 2.2208 10.8264 9.76403 2.59497
92 1 -1.1104 12.2117 5.59254 3.80179
93 1 -1.1104 12.2364 11.1014 3.94077
94 1 -1.1104 9.33525 8.43569 1.31976
95 2 2.2208 8.03768 6.87376 2.6184
96 2 2.2208 7.9748 12.5179 2.64932
97 1 -1.1104 9.52701 8.35417 3.89929
98 2 2.2208 8.05132 9.79761 5.22741
99 1 -1.1104 9.31914 5.50116 1.00113
100 1 -1.1104 9.33365 11.1928 1.17617
102 1 -1.1104 9.44264 5.51711 3.90494
103 1 -1.1104 9.46453 11.2652 4.0537
265 1 -1.1104 12.1692 8.29843 6.68213
145 1 -1.1104 12.2589 19.5749 6.6531
106 2 2.2208 5.16897 18.1199 5.21258
107 1 -1.1104 0.975924 13.9606 0.953968
109 1 -1.1104 1.07671 19.5247 1.02785
113 1 -1.1104 0.920524 13.9781 3.86605
114 1 -1.1104 1.0519 19.4869 3.70114
116 1 -1.1104 1.14946 16.7245 1.11219
119 2 2.2208 5.17198 15.2762 2.46681
120 2 2.2208 5.09868 20.954 2.53748
121 1 -1.1104 0.962823 16.6473 3.94638
123 1 -1.1104 3.76939 13.9263 1.01762
125 1 -1.1104 3.86071 19.4968 0.961932
127 2 2.2208 2.53125 18.1292 2.52205
128 1 -1.1104 3.69877 13.729 3.92785
129 1 -1.1104 3.72419 19.5769 3.92212
130 2 2.2208 2.3534 15.2391 5.27313
131 2 2.2208 2.26267 20.8876 5.3254
132 1 -1.1104 3.81988 16.6783 1.13112
134 1 -1.1104 3.83011 16.6751 3.87733
140 1 -1.1104 6.5575 16.6304 1.0438
115 1 -1.1104 6.55145 13.934 3.92121
122 1 -1.1104 6.62695 16.6611 3.77225
139 1 -1.1104 6.46225 19.4844 3.83953
117 1 -1.1104 1.04856 16.5755 6.70531
138 1 -1.1104 6.61553 19.4559 1.11333
110 1 -1.1104 6.63126 13.8414 1.08836
302 1 -1.1104 0.965218 19.594 6.61399
374 2 2.2208 13.6128 15.4457 -0.286754
319 1 -1.1104 9.27874 13.8473 9.62949
149 1 -1.1104 12.1912 16.7107 6.7374
389 2 2.2208 7.96941 4.15763 -0.28473
141 2 2.2208 10.8045 18.1098 5.24648
142 1 -1.1104 12.1877 14.0808 1.07699
144 1 -1.1104 12.1879 19.472 1.08887
146 1 -1.1104 12.359 14.0143 3.97549
147 1 -1.1104 12.1196 19.5014 3.85186
148 1 -1.1104 12.0744 16.7239 1.10421
150 2 2.2208 10.8128 15.3252 2.54327
151 2 2.2208 10.7362 20.8787 2.43059
152 1 -1.1104 12.146 16.6964 3.933
153 1 -1.1104 9.36056 13.8826 1.18911
155 1 -1.1104 9.47746 19.4862 0.893213
157 2 2.2208 8.01256 18.1334 2.54686
158 1 -1.1104 9.49249 13.8969 4.01539
159 1 -1.1104 9.23146 19.5237 3.75575
160 2 2.2208 8.08586 15.3767 5.33128
161 2 2.2208 7.9066 20.9775 5.33501
162 1 -1.1104 9.31544 16.7243 1.13352
164 1 -1.1104 9.4198 16.7929 3.96525
388 2 2.2208 8.05059 -1.39507 -0.367303
167 1 -1.1104 1.09077 2.91067 6.52746
173 1 -1.1104 3.83186 2.73938 6.95222
316 2 2.2208 7.85459 20.9403 10.8014
170 1 -1.1104 1.13403 0.11253 6.66653
169 1 -1.1104 6.50759 2.78835 6.73074
172 1 -1.1104 3.70245 -3.08614 6.67293
175 2 2.2208 5.08874 1.17667 10.8974
176 1 -1.1104 0.890669 -2.98245 12.395
177 1 -1.1104 0.826335 2.72107 12.3108
180 1 -1.1104 1.07271 -2.95989 9.59204
181 1 -1.1104 0.817774 2.70708 9.45353
184 1 -1.1104 0.832241 -0.0212407 12.2764
186 2 2.2208 5.21753 -1.54292 8.17882
188 1 -1.1104 0.825081 -0.183287 9.45832
190 1 -1.1104 3.65411 -2.97444 12.2227
191 1 -1.1104 3.67397 2.61847 12.3983
192 2 2.2208 2.32807 1.34105 8.14102
193 1 -1.1104 3.8597 -2.93659 9.42906
194 1 -1.1104 3.72104 2.69875 9.63083
195 2 2.2208 2.26872 -1.52652 10.9269
196 2 2.2208 2.23569 4.00771 10.8567
197 1 -1.1104 3.69946 -0.182255 12.2222
198 1 -1.1104 3.62306 -0.129392 9.49052
187 2 2.2208 5.21183 4.16027 8.16112
182 1 -1.1104 6.61739 -2.85941 9.58606
189 1 -1.1104 6.53255 -0.201338 9.52476
183 1 -1.1104 6.56268 2.60769 9.48589
178 1 -1.1104 6.51906 -2.8038 12.3698
185 1 -1.1104 6.50438 -0.102645 12.2332
179 1 -1.1104 6.46166 2.66187 12.2112
338 2 2.2208 13.5296 4.14932 10.8539
360 2 2.2208 5.34775 9.79158 13.7013
336 2 2.2208 13.5667 20.9857 5.23518
211 2 2.2208 10.8268 1.19745 10.8126
212 1 -1.1104 12.0319 -2.85774 12.397
213 1 -1.1104 12.3743 2.51182 12.3062
214 1 -1.1104 12.2531 -2.87705 9.5973
215 1 -1.1104 12.3112 2.71603 9.4657
216 1 -1.1104 12.2207 -0.224076 12.2294
217 2 2.2208 10.6965 -1.47524 8.14486
218 2 2.2208 10.7664 4.05673 8.07354
219 1 -1.1104 12.1255 -0.137689 9.4397
220 1 -1.1104 9.30061 -2.97316 12.2399
221 1 -1.1104 9.406 2.60099 12.1621
222 2 2.2208 7.9839 1.2605 8.07122
223 1 -1.1104 9.37766 -2.92001 9.43587
224 1 -1.1104 9.31255 2.69202 9.49951
225 2 2.2208 7.96204 -1.51376 10.9047
226 2 2.2208 8.01939 4.10241 10.8235
227 1 -1.1104 9.56813 -0.135968 12.4115
228 1 -1.1104 9.38244 -0.100077 9.66857
317 2 2.2208 8.04074 15.2926 10.9024
314 1 -1.1104 9.38956 16.6415 9.44416
235 1 -1.1104 6.57338 8.31958 6.74956
78 1 -1.1104 3.82842 11.0995 6.88558
238 1 -1.1104 3.64882 8.40628 6.64616
62 1 -1.1104 1.13641 11.17 6.69386
240 2 2.2208 5.32772 6.86857 10.8726
241 2 2.2208 5.269 12.51 10.8772
242 1 -1.1104 1.0197 8.30654 12.0982
244 1 -1.1104 0.979264 8.27783 9.49925
246 1 -1.1104 1.1066 5.45635 12.2812
247 1 -1.1104 1.18089 10.9028 12.3969
250 2 2.2208 5.25608 9.77245 8.09215
251 1 -1.1104 1.05967 5.39248 9.40701
252 1 -1.1104 0.902998 11.1854 9.517
255 1 -1.1104 3.9879 8.31983 12.2358
256 2 2.2208 2.20564 6.8301 8.10095
257 2 2.2208 2.40071 12.5274 8.10515
258 1 -1.1104 3.74186 8.10584 9.42906
259 2 2.2208 2.49592 9.58859 10.8595
260 1 -1.1104 3.95531 5.42623 12.2643
261 1 -1.1104 3.86367 11.1029 12.3772
262 1 -1.1104 3.98268 5.56774 9.62559
263 1 -1.1104 3.91339 10.9595 9.56184
254 1 -1.1104 6.68567 11.1185 9.41488
245 1 -1.1104 6.68641 8.43085 9.47242
243 1 -1.1104 6.76934 8.31137 12.3151
253 1 -1.1104 6.70898 5.56656 9.43271
248 1 -1.1104 6.6857 5.43112 12.3001
249 1 -1.1104 6.67206 11.1995 12.2964
90 1 -1.1104 12.1644 11.1432 6.5926
266 1 -1.1104 12.1938 5.44903 6.69273
269 1 -1.1104 9.44276 5.57177 6.65865
329 1 -1.1104 12.24 19.4811 12.2123
28 2 2.2208 2.37033 -4.30651 2.58794
25 2 2.2208 -0.326572 -1.49784 2.46523
267 1 -1.1104 9.46325 8.28151 6.71642
101 1 -1.1104 9.48103 11.0757 6.78253
264 1 -1.1104 9.34286 11.0947 9.56495
268 1 -1.1104 9.42429 5.32754 9.49493
270 1 -1.1104 9.4024 11.0997 12.2854
271 1 -1.1104 9.46707 5.41249 12.2212
272 2 2.2208 8.04354 9.76654 10.953
273 1 -1.1104 9.32186 8.34747 9.48565
274 2 2.2208 8.05788 12.5275 8.0797
275 2 2.2208 8.09005 6.90119 7.99486
276 2 2.2208 10.734 6.93881 10.746
277 2 2.2208 10.8119 12.5012 10.9531
278 1 -1.1104 12.2411 8.31804 12.301
279 1 -1.1104 12.1511 8.21063 9.51792
280 1 -1.1104 12.1069 5.60151 12.2213
281 1 -1.1104 12.1678 11.1986 12.4487
282 2 2.2208 10.8741 9.67159 8.05083
283 1 -1.1104 12.0916 5.48697 9.36946
284 1 -1.1104 12.1338 11.0247 9.50739
285 1 -1.1104 9.49217 8.25098 12.3541
340 2 2.2208 13.5642 12.4326 8.02591
156 1 -1.1104 9.4349 19.6231 6.51257
321 1 -1.1104 9.34696 19.4402 12.261
320 2 2.2208 7.89437 18.1863 8.09963
126 1 -1.1104 3.68491 19.4793 6.68077
327 1 -1.1104 11.9744 19.6221 9.49023
111 1 -1.1104 6.5517 13.9866 6.68029
108 1 -1.1104 0.997008 14.0783 6.81051
112 1 -1.1104 6.6301 19.7064 6.73608
133 1 -1.1104 3.84956 16.7261 6.7249
118 1 -1.1104 6.48671 16.7514 6.63716
124 1 -1.1104 3.86192 14.0425 6.66878
290 1 -1.1104 6.56698 13.7232 9.5432
306 1 -1.1104 6.70505 16.7169 12.4514
288 1 -1.1104 6.45433 19.5553 9.56809
286 1 -1.1104 3.79542 19.3882 12.3935
293 2 2.2208 5.05125 21.1016 8.10654
289 1 -1.1104 6.49196 16.6893 9.34558
292 1 -1.1104 0.938906 16.668 9.52446
291 1 -1.1104 0.791024 19.3689 9.31809
310 2 2.2208 2.37562 15.2501 10.842
309 2 2.2208 2.22703 20.8166 10.8661
308 1 -1.1104 3.8129 16.6075 12.2632
307 1 -1.1104 0.923871 16.6953 12.3078
305 1 -1.1104 3.76838 13.8295 9.42845
304 1 -1.1104 3.77089 16.5844 9.579
303 2 2.2208 2.38128 18.0042 8.1625
301 1 -1.1104 3.78308 19.6018 9.49403
300 2 2.2208 5.22885 17.9495 10.9009
299 1 -1.1104 1.08252 13.8707 12.2867
298 1 -1.1104 0.930974 19.5329 12.1797
295 2 2.2208 5.11603 15.3129 8.00372
294 1 -1.1104 1.02661 13.8477 9.59819
287 1 -1.1104 3.72513 13.8624 12.2818
297 1 -1.1104 6.63937 13.9401 12.3327
296 1 -1.1104 6.67164 19.3868 12.2012
165 2 2.2208 13.5385 18.1402 2.51628
345 2 2.2208 13.5736 20.9733 10.8678
229 2 2.2208 13.6522 1.24996 8.05812
143 1 -1.1104 12.1084 13.955 6.64914
163 1 -1.1104 9.46527 16.9374 6.64592
323 1 -1.1104 12.1167 16.7933 9.58918
331 2 2.2208 10.6931 18.0953 10.8725
154 1 -1.1104 9.29284 14.0218 6.7806
315 1 -1.1104 9.39722 16.7256 12.2614
328 1 -1.1104 12.1585 13.7671 9.42554
322 1 -1.1104 9.46158 13.9581 12.2476
318 1 -1.1104 9.18665 19.5286 9.37535
326 1 -1.1104 12.2188 16.6997 12.325
26 2 2.2208 -0.349166 1.31362 5.22359
391 2 2.2208 13.7038 -1.49266 -0.284741
339 2 2.2208 13.5796 6.88379 8.12028
333 2 2.2208 13.6133 15.3356 10.9292
393 2 2.2208 5.12599 6.84266 -0.374314
82 2 2.2208 -0.277919 9.6958 2.4623
368 2 2.2208 2.5017 18.0379 13.7495
378 2 2.2208 10.7678 18.0019 -0.347317
394 2 2.2208 2.41283 9.64611 -0.346062
395 2 2.2208 5.12887 12.548 -0.325172
383 2 2.2208 2.29423 4.11761 -0.43216
382 2 2.2208 2.48282 -1.49137 -0.258234
390 2 2.2208 10.8338 -4.31217 -0.311444
385 2 2.2208 5.19125 -4.32846 -0.300846
377 2 2.2208 7.94572 15.3615 -0.24746
349 2 2.2208 2.2393 1.31294 13.7588
361 2 2.2208 2.44322 12.3466 13.7621
402 2 2.2208 13.4847 9.72045 -0.292003
404 2 2.2208 5.2324 18.1302 -0.340753
381 2 2.2208 5.24653 1.4469 -0.196769
356 2 2.2208 10.7609 -1.57744 13.7556
359 2 2.2208 2.38294 6.89958 13.674
355 2 2.2208 7.80995 1.26075 13.639
372 2 2.2208 10.7397 20.9624 13.6579
369 2 2.2208 5.19705 20.8702 13.612
357 2 2.2208 10.7635 4.00527 13.6255
379 2 2.2208 7.78425 20.7795 -0.293556
400 2 2.2208 10.7024 12.6054 -0.191857
405 2 2.2208 2.38465 20.9231 -0.411659
348 2 2.2208 5.01552 -1.56423 13.6665
387 2 2.2208 10.9052 1.44174 -0.303018
399 2 2.2208 7.9413 9.65254 -0.245853
406 2 2.2208 5.00584 1.27247 16.3185
407 1 -1.1104 0.852922 -2.98193 17.7957
408 1 -1.1104 0.887536 2.62821 17.896
411 1 -1.1104 0.889761 -2.89292 15.0201
413 1 -1.1104 0.826373 2.62455 15.0173
419 1 -1.1104 0.846656 -0.227888 17.9738
421 2 2.2208 5.14351 -1.39174 19.2519
423 1 -1.1104 0.904603 -0.114369 15.0805
427 1 -1.1104 3.65049 -3.07313 17.9571
428 1 -1.1104 3.63759 2.66371 17.746
429 2 2.2208 2.37749 1.21404 19.2517
430 1 -1.1104 3.64762 -3.00663 15.0996
432 1 -1.1104 3.67371 2.6464 15.123
434 2 2.2208 2.3233 -1.60566 16.5155
435 2 2.2208 2.24057 4.06462 16.4111
436 1 -1.1104 3.71057 -0.185251 17.7226
437 1 -1.1104 3.61057 -0.221228 15.0045
422 2 2.2208 5.07504 4.13237 19.1806
415 1 -1.1104 6.53386 -2.9413 15.2581
425 1 -1.1104 6.40389 -0.186487 15.0854
417 1 -1.1104 6.52026 2.60905 15.0643
409 1 -1.1104 6.58159 -2.99761 17.9892
410 1 -1.1104 6.32879 2.63672 17.8626
412 1 -1.1104 0.851936 -3.16634 20.6524
635 1 -1.1104 12.2735 19.6064 26.2559
473 2 2.2208 13.4977 -4.41795 19.3701
580 2 2.2208 13.4851 15.2518 22.1852
579 2 2.2208 13.5068 4.08804 16.4818
380 2 2.2208 13.5601 18.1169 13.6201
420 1 -1.1104 6.55636 -0.247843 17.853
418 1 -1.1104 6.48884 2.83324 20.5638
578 2 2.2208 13.5012 1.2248 19.4482
449 2 2.2208 10.7893 1.30099 16.4969
450 1 -1.1104 12.1939 -2.94359 17.8565
451 1 -1.1104 12.0072 2.74348 17.8636
452 1 -1.1104 12.1379 -2.93773 15.152
454 1 -1.1104 12.163 2.60343 15.0564
456 1 -1.1104 12.1365 -0.0874264 17.9088
457 2 2.2208 10.7011 -1.48743 19.2429
458 2 2.2208 10.6367 4.13085 19.3667
459 1 -1.1104 12.1618 -0.159497 15.1028
461 1 -1.1104 9.33851 -3.00357 17.7734
462 1 -1.1104 9.21323 2.69638 17.7636
463 2 2.2208 7.91832 1.24278 19.192
464 1 -1.1104 9.35033 -3.00918 15.0616
466 1 -1.1104 9.30558 2.67195 14.9866
468 2 2.2208 7.96001 -1.63378 16.419
469 2 2.2208 7.88751 4.02531 16.4459
470 1 -1.1104 9.30723 -0.0898503 17.8567
471 1 -1.1104 9.30597 -0.21341 15.1242
440 2 2.2208 5.09567 -4.47869 16.5243
477 2 2.2208 13.5139 -1.51744 16.4844
455 1 -1.1104 12.1247 2.70351 20.7636
465 1 -1.1104 9.35559 -2.97808 20.5405
472 1 -1.1104 9.29831 -0.122327 20.7626
641 2 2.2208 10.7907 20.8516 24.9989
480 2 2.2208 13.4019 15.4344 16.5107
667 2 2.2208 8.01494 18.1687 25.049
460 1 -1.1104 11.9513 -0.0398347 20.7608
638 2 2.2208 10.8324 15.1819 25.0286
704 1 -1.1104 9.2581 16.5511 26.3295
725 2 2.2208 -0.336107 15.3214 24.9107
699 2 2.2208 7.9625 15.3585 22.1979
482 2 2.2208 5.13041 6.95194 16.4804
483 2 2.2208 5.09571 12.5444 16.6088
484 1 -1.1104 1.03999 8.2973 17.9047
486 1 -1.1104 0.913524 8.12643 15.064
490 1 -1.1104 0.884871 5.47129 18.059
491 1 -1.1104 0.963781 11.1886 18.0319
494 2 2.2208 5.19198 9.61724 19.3574
495 1 -1.1104 1.00651 5.50769 15.1725
497 1 -1.1104 1.02139 10.9296 15.3182
503 1 -1.1104 3.88643 8.1834 17.9487
504 2 2.2208 2.3992 6.86556 19.331
505 2 2.2208 2.29885 12.5576 19.3454
506 1 -1.1104 3.67271 8.33985 15.14
508 2 2.2208 2.40873 9.72864 16.6313
509 1 -1.1104 3.68938 5.44116 17.9036
510 1 -1.1104 3.69137 10.9636 18.2496
511 1 -1.1104 3.74616 5.68884 15.0112
513 1 -1.1104 3.84969 11.1156 15.2169
501 1 -1.1104 6.51517 11.282 15.2732
488 1 -1.1104 6.45917 8.29885 15.0114
493 1 -1.1104 6.49439 11.1067 18.0791
492 1 -1.1104 6.33751 5.46516 17.8812
485 1 -1.1104 6.49958 8.22858 17.8171
499 1 -1.1104 6.59696 5.45856 15.1107
487 1 -1.1104 0.969781 8.26334 20.7347
498 1 -1.1104 1.17243 11.1138 20.7578
500 1 -1.1104 6.46472 5.60094 20.6229
489 1 -1.1104 6.57502 8.37802 20.7009
514 1 -1.1104 4.00256 11.054 20.9026
606 2 2.2208 13.5097 20.7847 22.1931
592 1 -1.1104 12.1805 16.5551 20.6522
726 2 2.2208 13.5773 12.4764 24.8781
542 2 2.2208 13.445 6.74199 19.3227
518 2 2.2208 10.6824 6.8777 16.483
519 2 2.2208 10.8147 12.462 16.5946
520 1 -1.1104 12.0362 8.317 18.0026
521 1 -1.1104 11.9734 8.25661 15.1297
523 1 -1.1104 12.0742 5.55821 17.8956
524 1 -1.1104 12.2419 11.1371 18.0095
525 2 2.2208 10.8523 9.74796 19.3756
526 1 -1.1104 11.998 5.46893 15.0294
528 1 -1.1104 12.2022 11.1396 15.1201
530 1 -1.1104 9.27132 8.43195 17.9701
531 2 2.2208 7.83907 6.97249 19.3639
532 2 2.2208 7.81278 12.4422 19.4809
533 1 -1.1104 9.17848 8.30709 15.0615
535 2 2.2208 7.85892 9.67911 16.5136
536 1 -1.1104 9.25956 5.48106 17.8739
537 1 -1.1104 9.30354 11.0925 17.9019
538 1 -1.1104 9.40506 5.36835 15.0521
540 1 -1.1104 9.30444 10.9981 15.0266
543 2 2.2208 13.5129 9.83912 16.503
541 1 -1.1104 9.38576 10.9622 20.7042
527 1 -1.1104 12.1276 5.40627 20.8053
522 1 -1.1104 12.1734 8.18426 20.7999
663 1 -1.1104 12.2756 16.6863 26.401
545 2 2.2208 5.17461 18.1049 16.6108
546 1 -1.1104 0.920256 13.8837 18.0265
547 1 -1.1104 1.05053 19.4559 17.7388
550 1 -1.1104 1.0238 13.6748 15.139
552 1 -1.1104 1.102 19.3393 15.0029
558 1 -1.1104 1.03096 16.7064 17.6666
560 2 2.2208 5.27648 15.2728 19.3704
561 2 2.2208 5.29972 20.9957 19.3662
562 1 -1.1104 0.98742 16.4873 15.0454
566 1 -1.1104 3.62037 13.8307 17.9584
567 1 -1.1104 3.72386 19.5521 18.0247
568 2 2.2208 2.286 18.2211 19.2061
569 1 -1.1104 3.8284 13.8222 15.1599
571 1 -1.1104 3.87059 19.4911 15.1735
573 2 2.2208 2.45136 15.2805 16.4789
574 2 2.2208 2.41801 20.972 16.5079
575 1 -1.1104 3.81119 16.6218 17.8927
576 1 -1.1104 3.78521 16.6543 15.1183
549 1 -1.1104 6.6858 19.5238 18.0559
556 1 -1.1104 6.67411 19.676 15.0305
554 1 -1.1104 6.53384 13.8572 15.2157
563 1 -1.1104 1.01843 16.9172 20.4136
559 1 -1.1104 6.56567 16.619 18.0756
564 1 -1.1104 6.70898 16.72 15.4633
557 1 -1.1104 6.47515 19.468 20.9956
551 1 -1.1104 0.956473 13.9068 20.8354
370 2 2.2208 13.5992 1.1777 13.7147
701 1 -1.1104 9.43047 16.6655 23.6405
366 2 2.2208 13.4488 6.90667 13.6935
447 2 2.2208 -0.448872 18.1315 16.4528
548 1 -1.1104 6.64152 13.8567 17.9531
373 2 2.2208 10.7239 15.3925 13.6735
581 2 2.2208 10.6265 18.18 16.5866
582 1 -1.1104 12.1404 13.7962 18.02
583 1 -1.1104 12.0973 19.5656 18.0195
584 1 -1.1104 12.0316 14.0132 15.166
586 1 -1.1104 11.9691 19.5275 15.1819
588 1 -1.1104 12.0418 16.7429 17.9783
589 2 2.2208 10.6832 15.2535 19.418
590 2 2.2208 10.777 20.9638 19.3545
591 1 -1.1104 12.0293 16.755 15.0793
593 1 -1.1104 9.45839 13.937 17.9772
594 1 -1.1104 9.28545 19.4642 17.959
595 2 2.2208 7.89824 18.0714 19.4987
596 1 -1.1104 9.22163 13.819 15.0287
598 1 -1.1104 9.34093 19.5821 15.2519
600 2 2.2208 7.97432 15.2706 16.6581
601 2 2.2208 7.94126 21.0409 16.6054
602 1 -1.1104 9.26831 16.7121 17.9798
603 1 -1.1104 9.29244 16.8252 15.0933
585 1 -1.1104 12.1112 13.8308 20.8027
599 1 -1.1104 9.37431 19.3787 20.6922
698 1 -1.1104 9.34541 19.4032 26.3698
640 2 2.2208 2.36499 -4.38887 24.9528
608 1 -1.1104 12.0633 13.7944 23.4999
431 1 -1.1104 3.5881 -2.73234 20.5491
414 1 -1.1104 0.773967 2.69898 20.6369
416 1 -1.1104 6.55945 -3.00183 20.7885
634 1 -1.1104 12.2658 13.952 26.3064
664 1 -1.1104 9.2567 13.8543 23.5014
426 1 -1.1104 6.59488 0.010812 20.6113
438 1 -1.1104 3.79256 0.000489443 20.7055
433 1 -1.1104 3.6334 2.63562 20.6358
424 1 -1.1104 0.891576 -0.156081 20.7398
609 2 2.2208 5.13222 1.20597 22.1308
610 1 -1.1104 0.969948 -3.00729 23.4967
611 1 -1.1104 0.85989 2.74138 23.3041
614 1 -1.1104 0.955939 -2.75274 26.34
615 1 -1.1104 1.01532 2.67699 26.2856
618 1 -1.1104 0.96962 -0.297571 23.5419
620 2 2.2208 5.17047 -1.5328 24.9382
621 2 2.2208 5.23467 4.03519 24.8478
622 1 -1.1104 1.06647 -0.0480011 26.4159
624 1 -1.1104 3.67313 -3.00575 23.3512
625 1 -1.1104 3.82588 2.57387 23.541
626 2 2.2208 2.39141 1.27598 24.9261
627 1 -1.1104 3.81704 -3.0738 26.2933
628 1 -1.1104 3.68161 2.65196 26.368
629 2 2.2208 2.29883 -1.62749 22.0824
631 1 -1.1104 3.67543 -0.151707 23.5191
632 1 -1.1104 3.90407 -0.201036 26.4439
630 2 2.2208 2.35806 4.13878 22.2391
616 1 -1.1104 6.6558 -2.94794 26.2929
623 1 -1.1104 6.67326 -0.0945112 26.2472
619 1 -1.1104 6.64143 -0.159247 23.4264
612 1 -1.1104 6.53179 -2.82486 23.4992
617 1 -1.1104 6.52706 2.69463 26.2018
613 1 -1.1104 6.5107 2.65119 23.4589
352 2 2.2208 5.1429 4.0078 13.6328
467 1 -1.1104 9.31833 2.68772 20.7089
672 2 2.2208 13.5905 1.27908 25.0947
446 2 2.2208 13.6289 4.03009 22.2181
671 2 2.2208 13.457 -1.49939 22.1491
453 1 -1.1104 12.1345 -2.92364 20.703
645 2 2.2208 10.7651 1.31712 22.1253
646 1 -1.1104 12.2007 -3.02553 23.4193
647 1 -1.1104 12.273 2.6525 23.6703
648 1 -1.1104 12.2219 -2.95819 26.4048
649 1 -1.1104 12.1336 2.75032 26.3621
650 1 -1.1104 12.281 -0.143276 23.4928
651 2 2.2208 10.6386 -1.53509 25.0008
652 2 2.2208 10.8174 4.11268 24.967
653 1 -1.1104 12.2389 -0.113154 26.4271
654 1 -1.1104 9.46689 -2.80995 23.4321
655 1 -1.1104 9.46876 2.71151 23.5093
656 2 2.2208 8.05204 1.39859 24.8251
657 1 -1.1104 9.34685 -2.97058 26.2617
658 1 -1.1104 9.43001 2.72593 26.3141
659 2 2.2208 8.03254 -1.49305 22.1306
660 2 2.2208 7.9498 4.03428 22.0836
661 1 -1.1104 9.44157 0.0794865 23.6076
662 1 -1.1104 9.41575 -0.056821 26.258
700 2 2.2208 7.96108 20.7416 22.2037
673 1 -1.1104 9.43932 13.846 26.3368
371 2 2.2208 5.21458 15.1899 13.7385
636 1 -1.1104 12.1235 16.7528 23.5834
604 1 -1.1104 9.28234 16.7503 20.8753
743 1 -1.1104 3.78851 19.4576 26.2573
633 1 -1.1104 12.1984 19.4139 23.5019
512 1 -1.1104 3.78231 5.52463 20.7413
496 1 -1.1104 1.10022 5.48737 20.7092
502 1 -1.1104 6.57513 11.0117 20.8262
507 1 -1.1104 3.72627 8.25761 20.6959
674 2 2.2208 5.17254 6.78833 22.115
675 2 2.2208 5.28249 12.5072 22.2288
676 1 -1.1104 0.856058 8.495 23.4356
678 1 -1.1104 0.98127 8.26582 26.308
680 1 -1.1104 1.06539 5.66284 23.5782
681 1 -1.1104 0.855364 11.3217 23.622
684 2 2.2208 5.27124 9.68145 24.8653
685 1 -1.1104 1.04424 5.49235 26.2139
686 1 -1.1104 0.911856 10.9398 26.3106
689 1 -1.1104 3.75189 8.07825 23.4692
690 2 2.2208 2.43834 6.93023 24.8663
691 2 2.2208 2.41399 12.3791 25.0402
692 1 -1.1104 3.87299 8.3229 26.2047
693 2 2.2208 2.3515 9.73365 22.1676
694 1 -1.1104 3.80061 5.37708 23.4086
695 1 -1.1104 3.57562 10.8927 23.6956
696 1 -1.1104 3.77263 5.54386 26.1793
697 1 -1.1104 3.65249 11.0679 26.5139
683 1 -1.1104 6.56205 10.996 23.478
687 1 -1.1104 6.61826 5.37974 26.3568
677 1 -1.1104 6.49644 8.08264 23.4631
682 1 -1.1104 6.69861 5.43229 23.5897
688 1 -1.1104 6.53763 11.1612 26.2336
679 1 -1.1104 6.64203 8.30137 26.3712
478 2 2.2208 13.3773 20.8703 16.4842
728 2 2.2208 13.5484 6.98443 24.8246
539 1 -1.1104 9.21139 5.513 20.6835
517 2 2.2208 13.5422 12.5133 19.3693
445 2 2.2208 13.6296 9.62082 22.0735
534 1 -1.1104 9.40853 8.31063 20.7473
529 1 -1.1104 12.2729 11.0701 20.8278
705 1 -1.1104 9.32728 10.9019 26.4669
706 1 -1.1104 9.44676 5.46923 26.3988
707 1 -1.1104 9.32264 11.1203 23.4788
708 1 -1.1104 9.37782 5.48878 23.5158
709 2 2.2208 7.93248 9.71205 22.1085
710 1 -1.1104 9.30144 8.23928 26.5174
711 2 2.2208 8.06278 12.5019 25.0635
712 2 2.2208 7.94319 6.89635 24.9321
713 2 2.2208 10.697 6.86703 22.0773
714 2 2.2208 10.7585 12.3842 22.0991
715 1 -1.1104 12.1856 8.45759 23.5695
716 1 -1.1104 12.2003 8.40023 26.3214
717 1 -1.1104 12.1745 5.58816 23.3903
718 1 -1.1104 12.0024 10.9983 23.5972
719 2 2.2208 10.7389 9.76932 25.0294
720 1 -1.1104 12.2585 5.48957 26.1851
721 1 -1.1104 12.0605 11.254 26.5136
722 1 -1.1104 9.18582 8.3487 23.6048
597 1 -1.1104 9.18167 13.9553 20.852
587 1 -1.1104 12.2565 19.3749 20.7171
730 1 -1.1104 6.47174 14.0175 26.4491
665 1 -1.1104 9.37853 19.3266 23.404
607 2 2.2208 10.7954 18.1299 22.106
577 1 -1.1104 3.86149 16.5744 20.8215
565 1 -1.1104 6.55576 16.5559 20.763
572 1 -1.1104 3.69567 19.5155 20.6762
739 1 -1.1104 6.66758 13.8575 23.7262
555 1 -1.1104 6.61494 13.8832 20.7983
553 1 -1.1104 0.87922 19.5764 20.627
570 1 -1.1104 3.86855 13.9442 20.759
670 1 -1.1104 6.50493 19.3762 26.3352
747 1 -1.1104 6.51767 16.7122 23.5911
732 1 -1.1104 6.69348 16.6521 26.4464
736 1 -1.1104 6.61582 19.5697 23.7464
748 1 -1.1104 0.93091 16.8019 23.358
746 1 -1.1104 3.8172 14.0107 26.3435
745 1 -1.1104 3.82546 16.8054 26.3623
744 2 2.2208 2.3755 18.1862 24.9048
750 2 2.2208 2.37599 20.9255 22.0345
749 1 -1.1104 3.82155 16.6642 23.64
727 2 2.2208 2.49976 15.3199 22.0718
729 1 -1.1104 3.6907 19.5125 23.4944
731 1 -1.1104 3.74196 13.7628 23.5764
733 1 -1.1104 0.851083 19.4901 26.3377
734 1 -1.1104 1.08075 16.6692 26.3088
735 1 -1.1104 1.03648 13.8002 26.2183
737 2 2.2208 5.12219 20.7804 24.8344
738 2 2.2208 5.21766 15.3734 25.0456
740 1 -1.1104 0.95888 19.5829 23.4941
741 1 -1.1104 0.911639 14.0785 23.5551
742 2 2.2208 5.10056 18.0865 22.3193
479 2 2.2208 13.5815 18.1869 19.3981
397 2 2.2208 -0.463411 6.88816 27.7663
403 2 2.2208 2.44036 15.3135 27.6191
365 2 2.2208 8.01017 12.6238 13.7822
351 2 2.2208 -0.432094 15.2143 13.6467
362 2 2.2208 13.5831 12.5309 13.7495
376 2 2.2208 7.937 18.214 13.8225
398 2 2.2208 10.796 6.94987 27.7072
392 2 2.2208 13.6644 4.18581 27.5829
364 2 2.2208 10.5989 9.65547 13.7655
751 2 2.2208 5.11801 23.6433 5.32674
752 2 2.2208 5.04542 29.3223 5.31128
753 1 -1.1104 0.879908 25.2548 0.990265
754 1 -1.1104 0.96283 25.2089 3.854
755 1 -1.1104 1.00643 22.4275 0.856411
756 1 -1.1104 0.919261 27.9617 0.949995
757 2 2.2208 5.19339 26.547 2.56196
758 1 -1.1104 0.867725 22.1988 3.91004
759 1 -1.1104 1.07478 27.8723 3.85084
760 1 -1.1104 3.81553 25.159 1.05942
761 2 2.2208 2.33032 23.7737 2.48851
762 2 2.2208 2.31611 29.2889 2.56108
763 1 -1.1104 3.69526 25.0539 3.89639
764 2 2.2208 2.36848 26.4048 5.33134
765 1 -1.1104 3.78094 22.2385 1.21588
766 1 -1.1104 3.86236 27.8873 1.1174
767 1 -1.1104 3.64211 22.3311 4.01976
768 1 -1.1104 3.82255 27.7752 4.04032
777 1 -1.1104 6.5138 27.9237 3.89005
774 1 -1.1104 6.43065 22.4698 1.18551
776 1 -1.1104 6.51742 22.3174 3.90046
772 1 -1.1104 6.68183 25.1083 1.07399
775 1 -1.1104 6.70949 27.761 1.23131
892 1 -1.1104 1.01432 25.0528 6.68301
773 1 -1.1104 6.51953 24.9648 3.9021
1671 1 -1.1104 1.00903 47.4449 6.61153
895 1 -1.1104 0.865854 27.8238 6.55112
894 1 -1.1104 0.828643 22.3462 6.61589
896 1 -1.1104 6.4945 22.4975 6.72322
897 1 -1.1104 6.40763 28.1169 6.69483
1678 1 -1.1104 0.942228 47.2872 9.44538
778 2 2.2208 10.7421 23.7892 5.16516
779 2 2.2208 10.7479 29.1257 5.33864
780 1 -1.1104 12.0656 25.1209 0.994443
781 1 -1.1104 12.1342 25.3258 3.81518
782 1 -1.1104 12.0105 22.3505 1.08023
783 1 -1.1104 12.2947 27.9535 1.04826
784 2 2.2208 10.706 26.5757 2.4184
785 1 -1.1104 12.2408 22.3181 3.82159
786 1 -1.1104 12.1656 27.9052 3.78226
787 1 -1.1104 9.48129 24.8826 1.09609
788 2 2.2208 7.9684 23.6266 2.52835
789 2 2.2208 8.03962 29.3543 2.60945
790 1 -1.1104 9.30321 25.1293 3.66954
791 2 2.2208 7.83376 26.523 5.30282
792 1 -1.1104 9.2004 22.039 1.0608
793 1 -1.1104 9.35942 27.9153 1.07025
794 1 -1.1104 9.3844 22.2675 4.06716
795 1 -1.1104 9.32935 27.9519 3.85484
10392 2 2.2208 13.5934 43.5224 10.7171
1097 2 2.2208 10.7804 37.7806 13.8046
798 2 2.2208 13.5921 26.5342 5.28847
925 1 -1.1104 12.1091 25.0307 6.77584
930 1 -1.1104 9.33161 27.9066 6.72742
926 1 -1.1104 12.1277 22.299 6.58844
1520 1 -1.1104 12.2822 47.4877 3.74074
799 2 2.2208 5.19507 34.8777 5.27255
800 1 -1.1104 0.879941 30.7152 1.1589
801 1 -1.1104 1.01343 36.3158 0.942383
803 1 -1.1104 0.803926 30.6296 3.93024
804 1 -1.1104 0.934748 36.379 3.78909
806 1 -1.1104 1.01051 33.4123 1.03493
807 2 2.2208 5.09184 32.04 2.4486
808 2 2.2208 5.18201 37.7484 2.56012
809 1 -1.1104 0.988734 33.3307 3.82074
811 1 -1.1104 3.65603 30.7619 1.02364
812 1 -1.1104 3.80095 36.3933 1.19697
813 2 2.2208 2.42852 34.9033 2.53543
814 1 -1.1104 3.72901 30.6074 3.96409
815 1 -1.1104 3.77284 36.2105 3.92222
816 2 2.2208 2.27069 31.9767 5.32966
817 2 2.2208 2.36007 37.6507 5.23122
818 1 -1.1104 3.91067 33.5881 1.09478
819 1 -1.1104 3.78289 33.5568 3.95354
802 1 -1.1104 6.67279 36.4095 1.08156
810 1 -1.1104 6.64502 33.5819 3.98255
825 1 -1.1104 6.72048 33.5547 1.06383
805 1 -1.1104 6.55922 36.2382 4.0593
823 1 -1.1104 6.58143 30.5981 0.997482
796 2 2.2208 13.5576 23.7623 2.42024
951 1 -1.1104 6.51946 30.9061 6.52771
1495 1 -1.1104 3.80413 47.5692 0.976915
1081 2 2.2208 -0.363129 34.8284 10.827
824 1 -1.1104 6.65357 30.8407 3.76021
844 2 2.2208 13.538 34.8877 2.49613
826 2 2.2208 10.7945 34.8959 5.33878
827 1 -1.1104 12.2762 30.8366 1.18609
828 1 -1.1104 12.3353 36.2072 0.86207
829 1 -1.1104 12.2004 30.6535 3.83339
830 1 -1.1104 12.0742 36.2826 3.83305
831 1 -1.1104 12.093 33.4906 0.986774
832 2 2.2208 10.7995 32.0824 2.62057
833 2 2.2208 10.7579 37.7461 2.40748
834 1 -1.1104 12.2738 33.5149 3.93893
835 1 -1.1104 9.45337 30.7102 1.18497
836 1 -1.1104 9.48455 36.2363 1.01742
837 2 2.2208 8.16022 34.7985 2.49708
838 1 -1.1104 9.43166 30.7127 3.94425
839 1 -1.1104 9.27534 36.284 3.80962
840 2 2.2208 8.03325 32.1312 5.27328
841 2 2.2208 7.9625 37.6302 5.26187
842 1 -1.1104 9.36762 33.5333 1.14743
843 1 -1.1104 9.52601 33.5697 3.82666
1069 2 2.2208 13.5188 32.074 5.24494