ITEM: TIMESTEP
10000
ITEM: NUMBER OF ATOMS
17672
ITEM: BOX BOUNDS pp pp pp
-3.5438313425636175e-01 2.7694383134256221e+01
-4.3676476589426061e+00 3.3244764765894655e+02
-3.5191988385660411e-01 2.7691919883856581e+01
ITEM: ATOMS id type q x y z
1 2 2.2208 5.3037 1.24613 5.38456
2 1 -1.1104 0.883061 -3.00672 1.17701
3 1 -1.1104 0.813747 2.74376 0.932906
6 1 -1.1104 0.875659 -2.92099 4.04901
7 1 -1.1104 1.00109 2.79958 3.79274
10 1 -1.1104 1.01244 -0.121001 0.829832
12 2 2.2208 5.2042 -1.48682 2.56314
13 2 2.2208 5.09126 4.0742 2.60155
14 1 -1.1104 0.851238 0.0438336 3.7496
16 1 -1.1104 3.68245 -3.05403 1.05601
17 1 -1.1104 3.72857 2.47287 1.0641
18 2 2.2208 2.39799 1.28575 2.4697
19 1 -1.1104 3.76879 -2.87213 3.99423
20 1 -1.1104 3.67304 2.72074 3.78283
21 2 2.2208 2.45471 -1.42698 5.27071
22 2 2.2208 2.29 4.1846 5.30136
23 1 -1.1104 3.83885 -0.307138 1.1448
24 1 -1.1104 3.78306 -0.0044909 3.93476
174 1 -1.1104 3.86634 -0.0648111 6.70202
5 1 -1.1104 6.51555 2.61387 1.21147
8 1 -1.1104 6.47737 -2.97849 3.89573
9 1 -1.1104 6.65646 2.70384 3.95297
4 1 -1.1104 6.58542 -2.93691 1.03174
15 1 -1.1104 6.55753 -0.101589 3.86837
167 1 -1.1104 0.909941 2.66619 6.65779
356 2 2.2208 10.8537 -1.61453 13.6176
231 2 2.2208 8.00052 -4.40521 7.90744
172 1 -1.1104 3.83649 -2.92548 6.78794
166 1 -1.1104 1.09717 -2.96362 6.71787
168 1 -1.1104 6.66602 -2.87595 6.53175
230 2 2.2208 13.6836 -1.54413 10.8573
313 2 2.2208 -0.38737 15.3355 8.08093
367 2 2.2208 -0.426452 4.03043 13.6195
11 1 -1.1104 6.73681 -0.182333 1.12334
31 2 2.2208 10.8843 1.30567 5.18251
32 1 -1.1104 12.169 -2.9324 1.07837
33 1 -1.1104 12.169 2.74775 0.950828
34 1 -1.1104 12.2333 -2.9321 3.83931
35 1 -1.1104 12.3888 2.55123 3.87838
36 1 -1.1104 12.2658 -0.0420911 0.850617
37 2 2.2208 10.8023 -1.56754 2.38504
38 2 2.2208 10.8452 4.04745 2.45585
39 1 -1.1104 12.3016 -0.0867132 3.76224
40 1 -1.1104 9.45271 -2.98613 1.08686
41 1 -1.1104 9.30608 2.51847 1.01153
42 2 2.2208 7.99717 1.21409 2.50507
43 1 -1.1104 9.3173 -3.00193 3.76888
44 1 -1.1104 9.4319 2.73273 3.86012
45 2 2.2208 7.97914 -1.57772 5.19052
46 2 2.2208 8.10693 4.07229 5.25146
47 1 -1.1104 9.35956 -0.216088 1.01711
48 1 -1.1104 9.49396 -0.126301 3.85776
206 1 -1.1104 12.2723 2.6742 6.79832
338 2 2.2208 13.4713 3.98338 10.7332
209 1 -1.1104 9.46649 2.73151 6.73028
380 2 2.2208 13.4762 18.0317 13.7036
402 2 2.2208 13.6405 9.6126 -0.447463
169 1 -1.1104 6.63359 2.67655 6.65372
210 1 -1.1104 9.34419 -0.0989757 6.71799
334 2 2.2208 13.6894 3.99767 5.29662
288 1 -1.1104 6.63151 19.4101 9.30026
315 1 -1.1104 9.35793 16.6877 12.2929
54 2 2.2208 5.08224 6.9546 5.27059
55 2 2.2208 5.28617 12.5295 5.19606
56 1 -1.1104 0.912373 8.30323 0.849592
58 1 -1.1104 1.00888 8.3413 3.85098
60 1 -1.1104 0.948812 5.54125 0.904399
61 1 -1.1104 0.984176 11.2788 0.844334
66 2 2.2208 5.17442 9.71623 2.37209
67 1 -1.1104 0.947827 5.61451 3.78381
68 1 -1.1104 1.09346 11.0631 3.63529
71 1 -1.1104 3.6583 8.29028 1.06934
72 2 2.2208 2.29545 6.93071 2.43498
73 2 2.2208 2.45739 12.5214 2.45061
74 1 -1.1104 3.64423 8.3953 3.82908
75 2 2.2208 2.34329 9.80241 5.28038
76 1 -1.1104 3.77517 5.43026 1.05638
77 1 -1.1104 3.86024 11.1571 1.20726
79 1 -1.1104 3.66498 5.60521 3.82843
80 1 -1.1104 3.88142 11.1209 4.06096
63 1 -1.1104 6.55274 5.43285 1.17263
64 1 -1.1104 6.54623 10.9885 0.919106
69 1 -1.1104 6.49254 5.44424 3.83378
70 1 -1.1104 6.63621 11.0752 3.82701
57 1 -1.1104 6.4947 8.25928 0.936355
329 1 -1.1104 12.1657 19.4189 12.3491
78 1 -1.1104 3.76072 11.0691 6.74711
238 1 -1.1104 3.77727 8.39987 6.63597
237 1 -1.1104 6.66649 5.44695 6.52659
235 1 -1.1104 6.54907 8.30929 6.77513
62 1 -1.1104 0.974767 11.191 6.57577
165 2 2.2208 13.6938 17.888 2.42876
325 2 2.2208 10.7999 15.2896 8.01123
59 1 -1.1104 6.53409 8.24873 3.88245
84 2 2.2208 10.8157 6.77891 5.19532
85 2 2.2208 10.8128 12.4861 5.1971
86 1 -1.1104 12.3055 8.23046 1.05435
87 1 -1.1104 12.157 8.17215 3.78955
88 1 -1.1104 12.207 5.51662 0.963146
89 1 -1.1104 12.1442 10.8486 0.956988
91 2 2.2208 10.9388 9.74553 2.39304
92 1 -1.1104 12.2006 5.31936 3.918
93 1 -1.1104 12.1791 11.089 3.81285
94 1 -1.1104 9.357 8.20158 1.11
95 2 2.2208 7.95305 6.82748 2.61629
96 2 2.2208 7.97913 12.4592 2.34437
97 1 -1.1104 9.37189 8.29535 3.93069
98 2 2.2208 7.91648 9.62552 5.20697
99 1 -1.1104 9.39812 5.36157 1.13396
100 1 -1.1104 9.29748 11.1548 1.09553
102 1 -1.1104 9.39141 5.51019 3.9657
103 1 -1.1104 9.44424 10.9896 3.89404
101 1 -1.1104 9.36676 11.0246 6.69552
265 1 -1.1104 12.3221 8.28432 6.64998
267 1 -1.1104 9.57157 8.2244 6.81046
335 2 2.2208 13.5351 9.6072 5.31475
269 1 -1.1104 9.4708 5.61456 6.71105
331 2 2.2208 10.8309 17.9718 10.9487
319 1 -1.1104 9.31257 13.8079 9.45008
106 2 2.2208 5.20236 18.1086 5.20384
107 1 -1.1104 0.968143 13.9428 1.01083
109 1 -1.1104 0.939128 19.579 1.02897
113 1 -1.1104 0.9 13.8564 3.92139
114 1 -1.1104 0.92603 19.4472 3.81337
116 1 -1.1104 0.902559 16.6596 0.876473
119 2 2.2208 5.02508 15.3773 2.36157
120 2 2.2208 5.08891 20.924 2.57318
121 1 -1.1104 0.858289 16.6333 3.82951
123 1 -1.1104 3.64916 13.7471 0.908348
125 1 -1.1104 3.72781 19.6325 1.03272
127 2 2.2208 2.28101 18.1119 2.40818
128 1 -1.1104 3.73725 13.9952 3.6063
129 1 -1.1104 3.75812 19.4558 3.84392
130 2 2.2208 2.37907 15.2533 5.08547
131 2 2.2208 2.40684 20.8396 5.20891
132 1 -1.1104 3.62818 16.686 1.05154
134 1 -1.1104 3.90004 16.5812 3.92247
115 1 -1.1104 6.56056 13.8106 3.90139
139 1 -1.1104 6.47169 19.4409 3.77277
140 1 -1.1104 6.42837 16.6031 1.02698
110 1 -1.1104 6.51228 13.9388 1.01646
122 1 -1.1104 6.6262 16.5548 3.81948
108 1 -1.1104 1.08229 13.8985 6.65254
302 1 -1.1104 0.990488 19.5272 6.67519
117 1 -1.1104 0.987163 16.4981 6.61294
323 1 -1.1104 12.1327 16.6918 9.38715
387 2 2.2208 10.8189 1.20233 -0.436469
326 1 -1.1104 12.2004 16.5895 12.3862
336 2 2.2208 13.5643 20.8309 5.07142
332 2 2.2208 13.6072 18.1767 8.0842
138 1 -1.1104 6.44545 19.3457 1.03563
118 1 -1.1104 6.67088 16.7266 6.51805
141 2 2.2208 10.8815 18.1441 5.15127
142 1 -1.1104 12.105 13.718 1.11501
144 1 -1.1104 12.0848 19.3475 1.01222
146 1 -1.1104 12.2191 13.8209 4.00225
147 1 -1.1104 12.1354 19.4333 3.88006
148 1 -1.1104 12.1349 16.6832 1.04965
150 2 2.2208 10.8042 15.3163 2.54377
151 2 2.2208 10.7289 20.8208 2.43248
152 1 -1.1104 12.3639 16.4711 3.86752
153 1 -1.1104 9.38996 13.8422 1.10027
155 1 -1.1104 9.18145 19.4226 1.07362
157 2 2.2208 7.84045 17.9675 2.48766
158 1 -1.1104 9.34915 13.7902 3.83631
159 1 -1.1104 9.37669 19.4126 3.73007
160 2 2.2208 8.03468 15.226 5.21759
161 2 2.2208 7.96381 20.7608 5.09345
162 1 -1.1104 9.19998 16.5581 1.10293
164 1 -1.1104 9.41869 16.6404 3.80995
154 1 -1.1104 9.47479 13.7495 6.46691
145 1 -1.1104 12.2655 19.5651 6.65692
149 1 -1.1104 12.1761 16.9442 6.74038
163 1 -1.1104 9.47135 16.5966 6.52178
143 1 -1.1104 12.2928 13.9111 6.72735
171 1 -1.1104 6.6323 -0.136413 6.68651
104 2 2.2208 13.6293 12.5357 2.56014
317 2 2.2208 8.00945 15.2526 10.8757
314 1 -1.1104 9.44001 16.553 9.47406
324 2 2.2208 10.744 20.8428 8.0573
170 1 -1.1104 1.06305 -0.0253484 6.59077
173 1 -1.1104 3.78812 2.6835 6.74796
175 2 2.2208 5.14435 1.24896 10.8348
176 1 -1.1104 0.963127 -2.86632 12.2998
177 1 -1.1104 1.06986 2.73976 12.3282
180 1 -1.1104 1.07056 -3.07063 9.51022
181 1 -1.1104 0.970902 2.66546 9.50335
184 1 -1.1104 0.979372 -0.115185 12.1078
186 2 2.2208 5.2507 -1.58301 8.18112
188 1 -1.1104 0.907292 -0.175991 9.42875
190 1 -1.1104 3.85915 -3.02259 12.2419
191 1 -1.1104 3.63793 2.50125 12.3508
192 2 2.2208 2.39794 1.30372 8.06724
193 1 -1.1104 3.9259 -2.92095 9.51234
194 1 -1.1104 3.70744 2.64751 9.45265
195 2 2.2208 2.57334 -1.58932 10.8506
196 2 2.2208 2.39952 4.16289 10.8099
197 1 -1.1104 3.75673 -0.225444 12.2896
198 1 -1.1104 3.85184 -0.149648 9.49401
183 1 -1.1104 6.54027 2.61388 9.43228
185 1 -1.1104 6.70643 -0.106263 12.228
178 1 -1.1104 6.56506 -3.04116 12.179
187 2 2.2208 5.26142 3.99633 8.00406
316 2 2.2208 7.97587 20.7982 10.6706
52 2 2.2208 10.8096 -4.24197 5.1628
233 2 2.2208 13.6437 -4.32354 8.04645
182 1 -1.1104 6.65694 -2.84008 9.4323
229 2 2.2208 13.6633 1.25694 8.13221
208 1 -1.1104 9.49635 -2.82468 6.65856
207 1 -1.1104 12.1035 -0.127468 6.62451
203 2 2.2208 5.21192 -4.38671 10.8328
179 1 -1.1104 6.63215 2.73718 12.2395
205 1 -1.1104 12.2816 -2.98861 6.64838
189 1 -1.1104 6.65452 -0.0715652 9.44712
211 2 2.2208 10.7362 1.20064 10.9242
212 1 -1.1104 12.2303 -3.05286 12.287
213 1 -1.1104 12.0996 2.83001 12.1567
214 1 -1.1104 12.2186 -3.01436 9.36652
215 1 -1.1104 12.0892 2.69633 9.49706
216 1 -1.1104 12.3612 -0.101118 12.2254
217 2 2.2208 10.9263 -1.5284 8.03289
218 2 2.2208 10.727 4.14948 8.07712
219 1 -1.1104 12.138 -0.18129 9.36402
220 1 -1.1104 9.33826 -2.97702 12.3561
221 1 -1.1104 9.23024 2.64038 12.3912
222 2 2.2208 8.12923 1.24703 8.15904
223 1 -1.1104 9.54041 -3.0076 9.3764
224 1 -1.1104 9.4049 2.63159 9.63625
225 2 2.2208 8.02712 -1.62184 10.8633
226 2 2.2208 7.98119 4.03948 10.9343
227 1 -1.1104 9.52604 -0.10199 12.2893
228 1 -1.1104 9.40586 -0.250885 9.42837
322 1 -1.1104 9.30031 13.9264 12.4098
236 1 -1.1104 0.971564 5.50325 6.65013
239 1 -1.1104 3.80899 5.44683 6.59919
156 1 -1.1104 9.3738 19.4355 6.60028
234 1 -1.1104 0.79166 8.32736 6.65112
240 2 2.2208 5.22665 6.8113 10.816
241 2 2.2208 5.22608 12.383 11.0288
242 1 -1.1104 0.920107 8.25195 12.1464
244 1 -1.1104 1.07096 8.20764 9.39482
246 1 -1.1104 0.904019 5.4882 12.2178
247 1 -1.1104 0.7957 11.0095 12.3614
250 2 2.2208 5.18256 9.70692 8.1223
251 1 -1.1104 0.904323 5.49057 9.5225
252 1 -1.1104 1.05238 11.0609 9.47023
255 1 -1.1104 3.75545 8.17831 12.3006
256 2 2.2208 2.39683 6.94224 8.02238
257 2 2.2208 2.43867 12.4513 7.99505
258 1 -1.1104 3.83568 8.31166 9.44387
259 2 2.2208 2.37125 9.51775 10.8645
260 1 -1.1104 3.78819 5.41251 12.3202
261 1 -1.1104 3.65768 10.9378 12.2695
262 1 -1.1104 3.61455 5.67007 9.49292
263 1 -1.1104 3.87983 11.0745 9.59079
253 1 -1.1104 6.58227 5.36866 9.33961
245 1 -1.1104 6.60715 8.3182 9.52413
248 1 -1.1104 6.67442 5.34909 12.2326
249 1 -1.1104 6.59656 10.956 12.338
254 1 -1.1104 6.64898 11.1997 9.59589
243 1 -1.1104 6.56555 8.00965 12.4778
202 2 2.2208 2.40742 -4.41013 8.01161
328 1 -1.1104 12.1029 13.8917 9.45824
30 2 2.2208 -0.416863 -4.3415 5.24254
327 1 -1.1104 12.2106 19.5486 9.56431
90 1 -1.1104 12.1815 11.0659 6.56413
65 1 -1.1104 6.55369 11.1692 6.75214
266 1 -1.1104 12.2356 5.51575 6.69603
264 1 -1.1104 9.45447 11.1103 9.32936
268 1 -1.1104 9.22389 5.4482 9.54265
270 1 -1.1104 9.29987 11.0833 12.0858
271 1 -1.1104 9.48958 5.51463 12.3053
272 2 2.2208 8.012 9.76857 10.8831
273 1 -1.1104 9.43434 8.33288 9.4579
274 2 2.2208 7.99451 12.4541 7.97932
275 2 2.2208 7.90661 6.99336 8.08469
276 2 2.2208 10.7325 6.81641 10.871
277 2 2.2208 10.8584 12.5563 10.8956
278 1 -1.1104 12.1398 8.32496 12.3038
279 1 -1.1104 12.204 8.13727 9.52596
280 1 -1.1104 12.1837 5.50428 12.2958
281 1 -1.1104 12.2757 11.0414 12.1766
282 2 2.2208 10.8611 9.70204 8.07312
283 1 -1.1104 12.1082 5.41936 9.38247
284 1 -1.1104 12.2499 10.9909 9.48978
285 1 -1.1104 9.47762 8.24077 12.2747
112 1 -1.1104 6.64396 19.4131 6.47392
330 1 -1.1104 12.1528 13.9519 12.2224
318 1 -1.1104 9.45606 19.3978 9.39428
297 1 -1.1104 6.52821 13.8066 12.3334
321 1 -1.1104 9.28674 19.6008 12.1339
290 1 -1.1104 6.50804 13.7049 9.48272
289 1 -1.1104 6.73002 16.6513 9.42195
126 1 -1.1104 3.72072 19.4257 6.6755
133 1 -1.1104 3.85265 16.6397 6.67936
111 1 -1.1104 6.74773 13.8911 6.66847
124 1 -1.1104 3.96184 13.9356 6.44322
310 2 2.2208 2.38367 15.2142 10.9269
309 2 2.2208 2.44453 20.8349 10.7821
308 1 -1.1104 3.96846 16.6655 12.2255
307 1 -1.1104 0.923797 16.745 12.4423
305 1 -1.1104 3.62601 13.8495 9.45277
304 1 -1.1104 3.87356 16.5289 9.43758
303 2 2.2208 2.41908 17.9121 8.06898
301 1 -1.1104 3.74405 19.4413 9.2854
300 2 2.2208 5.26104 18.0609 10.6286
299 1 -1.1104 0.99987 13.8592 12.3299
298 1 -1.1104 0.893762 19.4505 12.2677
295 2 2.2208 5.27269 15.2304 8.025
294 1 -1.1104 0.949533 13.8044 9.47598
287 1 -1.1104 3.73299 13.9207 12.2525
293 2 2.2208 5.15256 20.8515 7.96685
286 1 -1.1104 3.8278 19.4103 12.0665
291 1 -1.1104 1.10012 19.4087 9.38912
292 1 -1.1104 1.00103 16.6932 9.51676
306 1 -1.1104 6.62666 16.7369 12.1211
296 1 -1.1104 6.5728 19.4825 11.9352
320 2 2.2208 8.16992 18.0547 7.96036
340 2 2.2208 13.7001 12.3924 8.15311
333 2 2.2208 13.6209 15.2303 10.8042
375 2 2.2208 13.6436 20.8237 -0.326151
360 2 2.2208 5.13519 9.56088 13.6396
347 2 2.2208 2.48615 -4.36224 13.6272
371 2 2.2208 5.2591 15.315 13.6023
376 2 2.2208 7.91261 18.2338 13.5766
372 2 2.2208 10.8104 20.8688 13.57
341 2 2.2208 13.5558 9.59049 10.928
359 2 2.2208 2.37053 6.8509 13.6602
339 2 2.2208 13.4872 6.90078 8.07636
105 2 2.2208 13.6105 6.88974 2.39524
345 2 2.2208 13.6544 20.8465 10.9575
349 2 2.2208 2.29526 1.22205 13.6073
389 2 2.2208 7.90794 3.99036 -0.263741
370 2 2.2208 13.6429 1.28418 13.6029
378 2 2.2208 10.6536 18.0928 -0.295501
381 2 2.2208 5.18776 1.15297 -0.258166
393 2 2.2208 5.11984 6.86037 -0.263599
362 2 2.2208 13.5836 12.5501 13.66
369 2 2.2208 5.27668 20.7837 13.4552
398 2 2.2208 10.6864 6.94403 -0.197895
365 2 2.2208 7.94059 12.4849 13.5438
406 2 2.2208 5.12963 1.16166 16.5055
407 1 -1.1104 1.0272 -3.07302 17.805
408 1 -1.1104 0.979052 2.62421 17.82
411 1 -1.1104 0.908934 -2.98685 15.1117
413 1 -1.1104 1.02088 2.63177 15.0911
419 1 -1.1104 0.961587 -0.156851 17.7901
421 2 2.2208 5.19571 -1.4088 19.2112
422 2 2.2208 5.1855 3.98229 19.3859
423 1 -1.1104 0.96398 -0.139488 14.8584
427 1 -1.1104 3.8662 -2.88139 17.9186
428 1 -1.1104 3.99664 2.58177 17.8996
429 2 2.2208 2.32377 1.21987 19.208
430 1 -1.1104 3.86997 -3.08652 15.0644
432 1 -1.1104 3.81491 2.61482 15.0719
434 2 2.2208 2.41603 -1.67157 16.4702
435 2 2.2208 2.44726 4.06593 16.5609
436 1 -1.1104 3.66684 -0.0788235 17.8886
437 1 -1.1104 3.78193 -0.227369 15.0131
409 1 -1.1104 6.66403 -2.82508 17.8942
415 1 -1.1104 6.53686 -3.07427 14.9567
420 1 -1.1104 6.59214 -0.0534838 17.7205
425 1 -1.1104 6.50053 -0.370747 15.0219
671 2 2.2208 13.5175 -1.59584 22.0349
438 1 -1.1104 3.76533 -0.0953274 20.6304
433 1 -1.1104 3.71854 2.80595 20.7613
606 2 2.2208 13.5418 20.8085 22.1129
445 2 2.2208 13.4838 9.59901 22.1246
585 1 -1.1104 12.2971 13.9484 20.7893
424 1 -1.1104 1.02801 -0.0910513 20.6975
416 1 -1.1104 6.40489 -3.00974 20.5147
414 1 -1.1104 0.964496 2.71695 20.5591
698 1 -1.1104 9.3438 19.4683 26.2447
417 1 -1.1104 6.59017 2.5024 15.0206
410 1 -1.1104 6.7296 2.49335 17.9305
517 2 2.2208 13.5654 12.3899 19.3111
641 2 2.2208 10.6609 20.8142 24.8255
449 2 2.2208 10.8254 1.22229 16.4759
450 1 -1.1104 12.1003 -3.13912 17.9121
451 1 -1.1104 12.1758 2.68035 17.86
452 1 -1.1104 12.1509 -3.03671 15.0689
454 1 -1.1104 12.2555 2.67825 14.9885
456 1 -1.1104 12.0776 -0.21077 17.8261
457 2 2.2208 10.7282 -1.62515 19.1555
458 2 2.2208 10.7851 3.8332 19.3051
459 1 -1.1104 12.3116 -0.309629 14.925
461 1 -1.1104 9.29255 -3.11358 17.7168
462 1 -1.1104 9.42236 2.59876 18.0308
463 2 2.2208 8.04772 1.20218 19.3095
464 1 -1.1104 9.47084 -3.01031 15.0539
466 1 -1.1104 9.45677 2.57623 15.239
468 2 2.2208 8.03123 -1.58875 16.3837
469 2 2.2208 7.93512 3.91511 16.5099
470 1 -1.1104 9.37132 -0.121025 17.7532
471 1 -1.1104 9.40884 -0.127197 15.094
640 2 2.2208 2.28784 -4.32728 24.8061
580 2 2.2208 13.5739 15.3138 22.039
455 1 -1.1104 12.1824 2.46273 20.6778
467 1 -1.1104 9.3602 2.43215 20.7799
460 1 -1.1104 12.233 -0.172526 20.731
465 1 -1.1104 9.28843 -2.92712 20.6683
636 1 -1.1104 12.0871 16.5344 23.3251
634 1 -1.1104 12.2195 13.9984 26.3927
482 2 2.2208 5.16211 6.79739 16.4397
483 2 2.2208 5.0444 12.4794 16.4708
484 1 -1.1104 0.81807 8.33875 17.8625
486 1 -1.1104 0.897415 8.24008 14.9894
490 1 -1.1104 1.04532 5.52303 17.6523
491 1 -1.1104 1.0283 11.0067 17.7631
494 2 2.2208 5.16655 9.53737 19.3142
495 1 -1.1104 1.04748 5.45612 14.9659
497 1 -1.1104 0.879202 11.0491 15.0507
503 1 -1.1104 3.54517 8.37024 17.9557
504 2 2.2208 2.23519 6.83626 19.1948
505 2 2.2208 2.45201 12.3866 19.2531
506 1 -1.1104 3.60348 8.26455 15.0987
508 2 2.2208 2.30589 9.62649 16.4078
509 1 -1.1104 3.78441 5.46051 17.9016
510 1 -1.1104 3.71397 11.0288 17.7668
511 1 -1.1104 3.90692 5.28146 15.1533
513 1 -1.1104 3.55619 11.0899 15.1097
492 1 -1.1104 6.51207 5.41138 17.9116
501 1 -1.1104 6.48364 11.068 15.0233
498 1 -1.1104 0.911542 11.071 20.7625
499 1 -1.1104 6.72808 5.35539 15.0111
514 1 -1.1104 3.66687 10.9947 20.6748
487 1 -1.1104 0.941073 8.23077 20.5052
496 1 -1.1104 0.873538 5.47441 20.4621
512 1 -1.1104 3.5743 5.51551 20.6789
663 1 -1.1104 12.1066 16.712 26.1728
502 1 -1.1104 6.52853 10.8405 20.7106
441 2 2.2208 2.25519 -4.35729 19.2601
485 1 -1.1104 6.40327 8.11675 18.0176
488 1 -1.1104 6.57237 8.06525 15.1102
493 1 -1.1104 6.45223 10.8218 17.9227
518 2 2.2208 10.8238 6.80024 16.5745
519 2 2.2208 10.7687 12.4509 16.4768
520 1 -1.1104 12.1564 8.25137 17.8308
521 1 -1.1104 12.0874 8.2704 15.0656
523 1 -1.1104 12.1284 5.35203 17.9188
524 1 -1.1104 12.1569 11.0883 17.7936
525 2 2.2208 10.7061 9.61345 19.2636
526 1 -1.1104 12.241 5.46149 15.103
528 1 -1.1104 12.2029 11.0954 15.0591
530 1 -1.1104 9.31528 8.21535 17.9152
531 2 2.2208 7.88129 6.77487 19.2438
532 2 2.2208 7.85487 12.348 19.1923
533 1 -1.1104 9.19367 8.17927 15.0562
535 2 2.2208 7.93995 9.59337 16.5595
536 1 -1.1104 9.29123 5.29037 17.9401
537 1 -1.1104 9.257 10.9078 17.8903
538 1 -1.1104 9.45148 5.2986 15.1339
540 1 -1.1104 9.28933 11.078 14.8629
541 1 -1.1104 9.32416 11.0978 20.6366
529 1 -1.1104 12.1672 10.9281 20.5232
543 2 2.2208 13.5355 9.65533 16.4535
500 1 -1.1104 6.49017 5.30963 20.7545
527 1 -1.1104 12.2249 5.34803 20.6513
534 1 -1.1104 9.40226 8.09361 20.5978
597 1 -1.1104 9.36445 13.7504 20.7719
480 2 2.2208 13.4983 15.3044 16.4581
394 2 2.2208 2.44043 9.81807 27.6209
400 2 2.2208 10.825 12.4133 27.6859
545 2 2.2208 5.26244 18.0065 16.3739
546 1 -1.1104 1.07456 13.7037 17.7932
547 1 -1.1104 0.998986 19.4526 18.0777
550 1 -1.1104 0.866256 13.9529 15.1403
552 1 -1.1104 0.915347 19.4767 15.1212
558 1 -1.1104 1.00239 16.5812 17.832
560 2 2.2208 5.22112 15.1992 19.2074
561 2 2.2208 5.03883 20.8929 19.0023
562 1 -1.1104 0.879763 16.6269 15.0253
566 1 -1.1104 3.76227 13.804 17.8322
567 1 -1.1104 3.70982 19.4713 17.6563
568 2 2.2208 2.33299 17.9373 19.2656
569 1 -1.1104 3.73222 13.9301 14.9991
571 1 -1.1104 3.73409 19.3512 14.8883
573 2 2.2208 2.28485 15.2442 16.3707
574 2 2.2208 2.27271 20.8892 16.4071
575 1 -1.1104 3.92761 16.5689 17.8675
576 1 -1.1104 3.78355 16.6415 15.0473
559 1 -1.1104 6.61794 16.4616 17.9227
564 1 -1.1104 6.67104 16.7109 15.0233
572 1 -1.1104 3.8791 19.366 20.3441
556 1 -1.1104 6.44423 19.473 14.8929
549 1 -1.1104 6.62177 19.5036 17.7806
570 1 -1.1104 3.85762 13.6714 20.5753
565 1 -1.1104 6.59552 16.5189 20.7006
638 2 2.2208 10.6954 15.3376 24.8426
604 1 -1.1104 9.39049 16.4404 20.648
599 1 -1.1104 9.35097 19.3944 20.6094
726 2 2.2208 13.5358 12.4137 24.8689
554 1 -1.1104 6.50969 13.9542 15.0602
548 1 -1.1104 6.75364 13.7053 17.7877
581 2 2.2208 10.7151 18.1791 16.5432
582 1 -1.1104 11.9869 13.8479 17.7809
583 1 -1.1104 12.0991 19.4666 17.8515
584 1 -1.1104 12.1321 13.8309 15.0037
586 1 -1.1104 12.2865 19.5116 15.1011
588 1 -1.1104 12.1096 16.7174 17.7882
589 2 2.2208 10.8261 15.2142 19.2834
590 2 2.2208 10.6164 20.9104 19.3991
591 1 -1.1104 12.1985 16.6333 15.0807
593 1 -1.1104 9.39777 13.787 17.9895
594 1 -1.1104 9.26865 19.4554 17.8295
595 2 2.2208 8.01874 17.9625 19.2863
596 1 -1.1104 9.41735 13.9521 15.1293
598 1 -1.1104 9.50676 19.4885 14.9764
600 2 2.2208 8.04563 15.2782 16.3539
601 2 2.2208 7.98112 20.9656 16.3896
602 1 -1.1104 9.36604 16.5759 17.891
603 1 -1.1104 9.42421 16.7982 15.0034
699 2 2.2208 7.96584 15.0631 21.9703
579 2 2.2208 13.5727 4.07419 16.4521
403 2 2.2208 2.41145 15.2666 27.5238
431 1 -1.1104 3.72538 -2.9504 20.7662
418 1 -1.1104 6.51543 2.70398 20.8032
446 2 2.2208 13.535 4.06986 22.1984
412 1 -1.1104 0.829921 -2.92802 20.5107
609 2 2.2208 5.02328 1.2614 22.1064
610 1 -1.1104 1.10675 -3.00087 23.3068
611 1 -1.1104 0.907226 2.54936 23.4071
614 1 -1.1104 0.964559 -2.81193 26.1786
615 1 -1.1104 1.01105 2.72749 26.1817
618 1 -1.1104 1.05703 -0.111285 23.4852
620 2 2.2208 5.10229 -1.52907 24.8926
621 2 2.2208 5.12962 4.11574 24.9054
622 1 -1.1104 0.934448 -0.192567 26.2221
624 1 -1.1104 3.79286 -2.97775 23.4303
625 1 -1.1104 3.68497 2.57578 23.6165
626 2 2.2208 2.36025 1.2308 25.0845
627 1 -1.1104 3.79849 -2.89294 26.1991
628 1 -1.1104 3.87428 2.59118 26.4815
629 2 2.2208 2.30303 -1.54117 22.1377
630 2 2.2208 2.25161 4.01589 21.994
631 1 -1.1104 3.7202 -0.110839 23.5809
632 1 -1.1104 3.7412 -0.315051 26.458
613 1 -1.1104 6.45515 2.63835 23.5649
612 1 -1.1104 6.68878 -3.01657 23.356
619 1 -1.1104 6.53908 -0.0373958 23.4333
623 1 -1.1104 6.60155 -0.398601 26.2727
616 1 -1.1104 6.51343 -3.07589 26.1604
617 1 -1.1104 6.55107 2.41226 26.4229
426 1 -1.1104 6.6374 -0.125087 20.5607
542 2 2.2208 13.4898 6.6981 19.3137
475 2 2.2208 7.93759 -4.34908 19.1666
704 1 -1.1104 9.31487 16.7411 26.2812
605 2 2.2208 13.4232 18.1374 24.8686
578 2 2.2208 13.5472 1.16033 19.3406
440 2 2.2208 5.18314 -4.28923 16.4688
479 2 2.2208 13.591 18.0658 19.3023
453 1 -1.1104 12.1163 -3.13893 20.7147
472 1 -1.1104 9.52464 -0.200724 20.7099
645 2 2.2208 10.8486 1.28077 22.1778
646 1 -1.1104 12.2839 -3.02086 23.429
647 1 -1.1104 12.1551 2.69474 23.5963
648 1 -1.1104 12.2007 -3.00385 26.1882
649 1 -1.1104 12.1526 2.63323 26.1423
650 1 -1.1104 12.1365 -0.164045 23.4825
651 2 2.2208 10.717 -1.78252 24.7788
652 2 2.2208 10.6407 4.10129 24.9982
653 1 -1.1104 12.0391 -0.318498 26.0731
654 1 -1.1104 9.2324 -3.19225 23.4186
655 1 -1.1104 9.34851 2.69139 23.4645
656 2 2.2208 7.93888 1.16566 24.9446
657 1 -1.1104 9.28391 -3.07377 26.2017
658 1 -1.1104 9.45068 2.62611 26.2172
659 2 2.2208 7.92909 -1.58403 22.0613
660 2 2.2208 7.87854 3.98608 22.1432
661 1 -1.1104 9.43806 -0.327285 23.3896
662 1 -1.1104 9.28848 -0.188785 26.1729
515 2 2.2208 -0.397649 9.6758 19.3185
489 1 -1.1104 6.71146 8.22932 20.7051
507 1 -1.1104 3.781 8.30991 20.7319
674 2 2.2208 5.08772 6.75352 22.1273
675 2 2.2208 5.15543 12.3255 22.0589
676 1 -1.1104 0.929238 8.04871 23.2833
678 1 -1.1104 1.08401 8.29525 26.0219
680 1 -1.1104 0.963306 5.34296 23.3391
681 1 -1.1104 0.88856 10.7998 23.4857
684 2 2.2208 5.27965 9.67271 24.9213
685 1 -1.1104 0.91298 5.46755 26.1849
686 1 -1.1104 1.00257 10.9381 26.2593
689 1 -1.1104 3.76644 8.21011 23.6533
690 2 2.2208 2.21728 6.70933 24.8091
691 2 2.2208 2.38547 12.3542 24.7241
692 1 -1.1104 3.80094 8.33082 26.3975
693 2 2.2208 2.32538 9.59823 22.1244
694 1 -1.1104 3.75058 5.44913 23.539
695 1 -1.1104 3.8266 10.9911 23.4178
696 1 -1.1104 3.85623 5.43705 26.2269
697 1 -1.1104 3.80996 11.1911 26.2381
687 1 -1.1104 6.46493 5.46348 26.4705
679 1 -1.1104 6.55507 8.18268 26.3839
683 1 -1.1104 6.61632 11.0543 23.5127
688 1 -1.1104 6.61503 11.016 26.2565
587 1 -1.1104 12.0627 19.4924 20.5496
665 1 -1.1104 9.28277 19.5386 23.4823
442 2 2.2208 -0.462916 1.22388 16.2964
592 1 -1.1104 12.2222 16.7599 20.6563
701 1 -1.1104 9.279 16.7032 23.356
728 2 2.2208 13.5582 6.74116 24.9326
539 1 -1.1104 9.33363 5.21059 20.7277
522 1 -1.1104 12.0475 8.22848 20.6514
399 2 2.2208 8.10606 9.62883 27.6929
477 2 2.2208 13.5107 -1.6178 16.4395
682 1 -1.1104 6.52737 5.40573 23.5911
677 1 -1.1104 6.54507 8.11057 23.5832
705 1 -1.1104 9.37297 11.0441 26.2899
706 1 -1.1104 9.12092 5.42334 26.4635
707 1 -1.1104 9.39656 10.9492 23.5014
708 1 -1.1104 9.24333 5.38627 23.6164
709 2 2.2208 7.99837 9.51725 22.079
710 1 -1.1104 9.57758 8.21863 26.2784
711 2 2.2208 8.1094 12.446 24.8216
712 2 2.2208 7.90468 6.82731 24.9559
713 2 2.2208 10.6828 6.72231 22.0354
714 2 2.2208 10.7636 12.4367 22.1118
715 1 -1.1104 12.1621 8.21531 23.4083
716 1 -1.1104 12.189 8.1407 26.3543
717 1 -1.1104 12.17 5.44027 23.5167
718 1 -1.1104 12.1622 11.18 23.4808
719 2 2.2208 10.8215 9.52804 24.8705
720 1 -1.1104 12.1524 5.38049 26.2842
721 1 -1.1104 12.1772 11.0634 26.2386
722 1 -1.1104 9.29663 8.07467 23.4311
478 2 2.2208 13.5249 20.8168 16.5226
672 2 2.2208 13.5332 1.1551 24.8462
395 2 2.2208 5.20308 12.4863 27.6556
377 2 2.2208 7.92016 15.2368 27.7574
555 1 -1.1104 6.48146 13.7771 20.6684
551 1 -1.1104 1.00524 13.748 20.688
730 1 -1.1104 6.67454 13.9377 26.3048
557 1 -1.1104 6.55253 19.3815 20.6492
700 2 2.2208 7.94702 20.8596 22.0575
553 1 -1.1104 0.935829 19.4332 20.8188
563 1 -1.1104 0.974191 16.5105 20.7716
670 1 -1.1104 6.62682 19.467 26.1927
577 1 -1.1104 3.69942 16.5774 20.7591
732 1 -1.1104 6.55629 16.6841 26.2686
748 1 -1.1104 1.07282 16.5673 23.3821
746 1 -1.1104 3.79927 13.8747 26.1219
745 1 -1.1104 3.90515 16.5727 26.2175
744 2 2.2208 2.52616 17.9322 24.7377
750 2 2.2208 2.42062 20.8512 22.0242
749 1 -1.1104 3.80088 16.5508 23.5576
727 2 2.2208 2.36341 15.1489 22.0229
729 1 -1.1104 3.83692 19.3801 23.3221
731 1 -1.1104 3.77377 13.8172 23.2653
733 1 -1.1104 0.96711 19.294 26.1815
734 1 -1.1104 0.892418 16.6982 26.212
735 1 -1.1104 1.0645 13.7366 26.3207
737 2 2.2208 5.21979 20.6864 24.7635
738 2 2.2208 5.20667 15.2073 24.7706
740 1 -1.1104 0.932077 19.2741 23.6452
741 1 -1.1104 0.956929 13.7664 23.4748
742 2 2.2208 5.28272 18.0205 21.8233
743 1 -1.1104 3.82806 19.4566 26.2207
736 1 -1.1104 6.56055 19.3472 23.3127
739 1 -1.1104 6.42664 13.5765 23.4477
747 1 -1.1104 6.52742 16.4078 23.2616
664 1 -1.1104 9.28942 13.7425 23.4561
633 1 -1.1104 12.0529 19.5012 23.3372
673 1 -1.1104 9.33386 13.9428 26.1744
667 2 2.2208 7.87979 18.0246 24.7419
635 1 -1.1104 12.0026 19.4566 26.1741
608 1 -1.1104 11.9953 13.8138 23.6319
607 2 2.2208 10.7893 18.0042 21.9727
643 2 2.2208 -0.387205 1.27267 22.0605
516 2 2.2208 -0.417952 12.3703 16.4087
352 2 2.2208 5.20257 3.96582 13.6537
382 2 2.2208 2.46137 -1.69991 27.7926
363 2 2.2208 8.00132 6.70525 13.7007
355 2 2.2208 7.97109 1.17575 13.7103
404 2 2.2208 5.20917 18.1491 27.5413
364 2 2.2208 10.7767 9.64461 13.6657
405 2 2.2208 2.46925 20.9015 27.6085
373 2 2.2208 10.7881 15.3153 13.7458
357 2 2.2208 10.6814 4.02256 13.8157
383 2 2.2208 2.36594 3.99156 27.7039
361 2 2.2208 2.36437 12.4878 13.6722
391 2 2.2208 13.6552 -1.65549 27.5365
388 2 2.2208 7.94434 -1.66378 27.5728
348 2 2.2208 5.21229 -1.63654 13.6966
379 2 2.2208 7.97569 20.7803 27.5972
392 2 2.2208 13.5235 3.90982 27.5174
368 2 2.2208 2.4095 18.0691 13.6222
366 2 2.2208 13.5667 6.86454 13.7536
374 2 2.2208 13.6627 15.3679 27.6088
751 2 2.2208 5.32885 23.5838 5.21772
752 2 2.2208 5.22654 29.0979 5.26169
753 1 -1.1104 0.966118 25.1884 0.959289
754 1 -1.1104 1.13946 25.0349 3.83055
755 1 -1.1104 1.11836 22.2509 0.83546
756 1 -1.1104 1.15241 27.8896 1.11459
757 2 2.2208 5.18855 26.4076 2.32418
758 1 -1.1104 0.939418 22.2393 3.72715
759 1 -1.1104 1.05527 27.8255 3.93937
760 1 -1.1104 3.73223 25.0136 0.905543
761 2 2.2208 2.33242 23.5704 2.40076
762 2 2.2208 2.44767 29.1255 2.60132
763 1 -1.1104 3.81752 24.9386 3.85105
764 2 2.2208 2.40321 26.2523 5.33847
765 1 -1.1104 3.88952 22.2539 1.0566
766 1 -1.1104 3.91693 27.884 1.09682
767 1 -1.1104 3.76991 22.1314 4.00274
768 1 -1.1104 3.92574 27.5885 3.959
895 1 -1.1104 0.98579 27.7815 6.61852
772 1 -1.1104 6.6113 25.0397 1.04403
777 1 -1.1104 6.70531 27.6341 3.77208
774 1 -1.1104 6.68675 22.2858 0.984628
896 1 -1.1104 6.59059 22.138 6.51893
773 1 -1.1104 6.47696 25.0057 3.75013
775 1 -1.1104 6.63728 27.8664 1.04665
1711 1 -1.1104 9.19003 47.5538 7.02851
898 1 -1.1104 3.72515 24.9084 6.74303
892 1 -1.1104 0.921697 24.9734 6.54186
899 1 -1.1104 3.81565 22.1949 6.75353
893 1 -1.1104 6.68162 24.9848 6.66945
1137 1 -1.1104 6.54422 47.4316 9.46715
776 1 -1.1104 6.59855 22.2627 3.77426
778 2 2.2208 10.7737 23.6302 5.21626
779 2 2.2208 10.7569 29.2349 5.20745
780 1 -1.1104 12.2301 25.0903 1.02219
781 1 -1.1104 12.149 24.9872 3.70767
782 1 -1.1104 12.1916 22.1615 1.19496
783 1 -1.1104 12.119 27.8848 1.08015
784 2 2.2208 10.7496 26.4307 2.45
785 1 -1.1104 12.1619 22.2684 3.97895
786 1 -1.1104 12.1524 27.7467 3.8884
787 1 -1.1104 9.55489 25.0811 0.866477
788 2 2.2208 8.09755 23.7148 2.33287
789 2 2.2208 8.01165 29.2146 2.41179
790 1 -1.1104 9.31189 25.1087 3.77087
791 2 2.2208 8.05979 26.4445 5.19396
792 1 -1.1104 9.50282 22.265 1.00999
793 1 -1.1104 9.2995 27.8799 1.0977
794 1 -1.1104 9.32773 22.2352 3.83916
795 1 -1.1104 9.4826 27.9666 3.79073
928 1 -1.1104 9.39143 25.0061 6.50257
1671 1 -1.1104 0.876312 47.5919 6.58248
925 1 -1.1104 12.3239 24.9475 6.50605
1530 1 -1.1104 9.27678 47.4558 1.21242
926 1 -1.1104 11.954 22.2338 6.87995
930 1 -1.1104 9.20877 27.8739 6.59256
927 1 -1.1104 11.9513 27.7494 6.69434
1089 2 2.2208 7.90342 23.5861 13.58
799 2 2.2208 5.11713 34.8323 5.24759
800 1 -1.1104 0.833042 30.5357 1.30281
801 1 -1.1104 0.833814 36.3052 1.11129
803 1 -1.1104 0.931778 30.5858 3.94808
804 1 -1.1104 0.990036 36.2729 3.92464
806 1 -1.1104 0.952414 33.3915 1.37625
807 2 2.2208 5.08631 32.0316 2.54359
808 2 2.2208 5.2086 37.7214 2.434
809 1 -1.1104 1.00772 33.3726 4.06999
811 1 -1.1104 3.87287 30.7077 1.17952
812 1 -1.1104 3.66133 36.2566 1.13519
813 2 2.2208 2.30847 34.8995 2.49475
814 1 -1.1104 3.79214 30.5187 4.03007
815 1 -1.1104 3.93474 36.2597 3.84956
816 2 2.2208 2.42212 31.8281 5.35243
817 2 2.2208 2.42484 37.6646 5.19848
818 1 -1.1104 3.65578 33.3701 1.17854
819 1 -1.1104 3.71307 33.4546 4.07738
825 1 -1.1104 6.49752 33.548 1.16264
810 1 -1.1104 6.46055 33.3842 3.84156
802 1 -1.1104 6.53148 36.3502 0.960768
1082 2 2.2208 13.3191 40.4884 8.07838
1517 1 -1.1104 12.0146 47.4027 0.983685
953 1 -1.1104 0.999178 33.2432 6.80951
1138 1 -1.1104 12.1272 47.4271 6.7048
955 1 -1.1104 3.71137 30.5581 6.71998
891 2 2.2208 13.5715 40.4162 2.41059
824 1 -1.1104 6.6309 30.4871 3.94855
805 1 -1.1104 6.64334 36.2468 3.70403
823 1 -1.1104 6.7191 30.7135 1.17086
826 2 2.2208 10.8547 34.8334 5.20087
827 1 -1.1104 12.2454 30.6047 1.11737
828 1 -1.1104 12.1788 36.1506 1.12935
829 1 -1.1104 12.2566 30.4333 3.85647
830 1 -1.1104 12.2927 36.2497 3.83502
831 1 -1.1104 12.2164 33.3561 1.08339
832 2 2.2208 10.8312 31.9599 2.43104
833 2 2.2208 10.8307 37.5367 2.45107
834 1 -1.1104 12.1988 33.3022 3.92318
835 1 -1.1104 9.50804 30.703 0.784831
836 1 -1.1104 9.47092 36.1919 1.02063
837 2 2.2208 8.1072 34.9255 2.46572
838 1 -1.1104 9.50267 30.7959 3.81269