ITEM: TIMESTEP
20000
ITEM: NUMBER OF ATOMS
17672
ITEM: BOX BOUNDS pp pp pp
-3.5618893448099093e-01 2.7696188934481047e+01
-4.2406432833300203e+00 3.3232064328333678e+02
-3.5855018729488874e-01 2.7698550187294693e+01
ITEM: ATOMS id type q x y z
1 2 2.2208 5.28905 1.38361 5.41043
2 1 -1.1104 1.20173 -2.79265 0.961156
3 1 -1.1104 1.02667 2.75286 1.06409
6 1 -1.1104 1.07194 -2.73477 3.81911
7 1 -1.1104 1.03865 2.88838 3.87075
10 1 -1.1104 1.08654 -0.0398424 1.05372
12 2 2.2208 5.50931 -1.4846 2.57247
13 2 2.2208 5.36523 4.10076 2.60229
14 1 -1.1104 1.07073 0.0246769 3.99783
16 1 -1.1104 4.02941 -2.93979 1.07862
17 1 -1.1104 3.86796 2.78685 1.03458
18 2 2.2208 2.4589 1.26665 2.55749
19 1 -1.1104 3.93134 -2.78685 3.80826
20 1 -1.1104 3.75588 2.7422 3.94347
21 2 2.2208 2.44146 -1.47473 5.35255
22 2 2.2208 2.41023 4.14108 5.27624
23 1 -1.1104 4.08161 -0.120228 1.14991
24 1 -1.1104 3.91065 -0.0648558 3.87576
398 2 2.2208 10.8789 7.0075 -0.362163
382 2 2.2208 2.56839 -1.35741 -0.384644
26 2 2.2208 -0.358053 1.25003 5.19305
174 1 -1.1104 3.87466 -0.0840117 6.62163
9 1 -1.1104 6.70286 2.89212 4.02105
52 2 2.2208 10.9634 -4.2763 5.30574
167 1 -1.1104 1.0672 2.85131 6.68954
172 1 -1.1104 3.96212 -2.89004 6.74388
173 1 -1.1104 3.83874 2.79262 6.73839
170 1 -1.1104 1.00766 -0.10443 6.70134
11 1 -1.1104 6.95731 -0.0932758 1.39675
8 1 -1.1104 6.69924 -2.82429 4.01377
4 1 -1.1104 6.65335 -2.96894 1.16267
5 1 -1.1104 6.67242 2.71259 1.379
15 1 -1.1104 6.90095 0.0062776 4.06239
31 2 2.2208 10.9334 1.43033 5.43981
32 1 -1.1104 12.4797 -2.79065 1.16503
33 1 -1.1104 12.3059 2.86255 1.12153
34 1 -1.1104 12.3182 -2.84528 3.979
35 1 -1.1104 12.397 2.77752 3.88427
36 1 -1.1104 12.3954 0.0820943 1.15395
37 2 2.2208 11.0237 -1.41959 2.59106
38 2 2.2208 10.8479 4.16177 2.51622
39 1 -1.1104 12.3651 -0.0607129 4.06439
40 1 -1.1104 9.36468 -2.93431 1.24696
41 1 -1.1104 9.59204 2.81313 1.18639
42 2 2.2208 8.16297 1.37347 2.67498
43 1 -1.1104 9.62788 -3.01733 3.91763
44 1 -1.1104 9.61115 2.77405 3.98184
45 2 2.2208 8.234 -1.54853 5.37596
46 2 2.2208 8.12251 4.30083 5.3021
47 1 -1.1104 9.7061 -0.0346844 1.13068
48 1 -1.1104 9.48888 -0.130378 3.90293
171 1 -1.1104 6.87592 -0.0381181 6.84904
169 1 -1.1104 6.73294 2.71762 6.82118
209 1 -1.1104 9.43782 3.00422 6.7728
205 1 -1.1104 12.4 -2.86899 6.91672
210 1 -1.1104 9.65476 -0.114378 6.79618
231 2 2.2208 8.02911 -4.26061 8.18847
203 2 2.2208 5.31793 -4.3366 10.9032
344 2 2.2208 -0.350619 6.92094 10.9112
345 2 2.2208 13.6924 21.1248 10.8919
54 2 2.2208 5.20929 6.98794 5.27089
55 2 2.2208 5.23803 12.624 5.25704
56 1 -1.1104 1.0085 8.46079 0.986301
58 1 -1.1104 1.10523 8.55343 3.69371
60 1 -1.1104 1.08965 5.73899 1.07591
61 1 -1.1104 1.2087 11.2391 1.13205
66 2 2.2208 5.49524 9.82527 2.49364
67 1 -1.1104 1.07691 5.61537 3.92763
68 1 -1.1104 1.09293 11.2581 3.97135
71 1 -1.1104 3.98115 8.40605 1.03067
72 2 2.2208 2.48354 6.99656 2.42365
73 2 2.2208 2.48301 12.6515 2.39403
74 1 -1.1104 3.98295 8.3196 3.83584
75 2 2.2208 2.56248 9.81401 5.11204
76 1 -1.1104 3.8276 5.62036 1.06273
77 1 -1.1104 3.86951 11.105 1.00427
79 1 -1.1104 3.85119 5.5267 3.96877
80 1 -1.1104 3.89102 11.2909 3.86068
400 2 2.2208 10.8955 12.6197 -0.340877
70 1 -1.1104 6.56624 11.1378 3.92655
57 1 -1.1104 6.81625 8.44044 1.06244
59 1 -1.1104 6.74604 8.34428 3.86357
78 1 -1.1104 3.93259 11.0898 6.72834
62 1 -1.1104 0.925617 11.2279 6.78335
239 1 -1.1104 3.86445 5.53649 6.68307
236 1 -1.1104 1.05434 5.62923 6.72368
342 2 2.2208 -0.238042 12.524 10.9173
69 1 -1.1104 6.71328 5.57226 3.74849
63 1 -1.1104 6.62873 5.4166 1.08993
64 1 -1.1104 6.52095 11.2434 1.00175
84 2 2.2208 10.8221 6.99877 5.41445
85 2 2.2208 10.7818 12.6099 5.26874
86 1 -1.1104 12.2201 8.38606 1.06139
87 1 -1.1104 12.3941 8.37717 3.97131
88 1 -1.1104 12.3361 5.6233 1.17769
89 1 -1.1104 12.2441 11.2626 1.02398
91 2 2.2208 10.9522 9.73936 2.56385
92 1 -1.1104 12.294 5.55436 3.92651
93 1 -1.1104 12.3087 11.1948 3.78045
94 1 -1.1104 9.57179 8.40785 1.19295
95 2 2.2208 8.0613 6.96456 2.53374
96 2 2.2208 8.0597 12.6555 2.34262
97 1 -1.1104 9.47301 8.50055 4.04191
98 2 2.2208 8.03089 9.91167 5.35947
99 1 -1.1104 9.4248 5.59297 1.03515
100 1 -1.1104 9.38521 11.2999 0.912114
102 1 -1.1104 9.44454 5.62865 3.89027
103 1 -1.1104 9.42711 11.2991 3.74085
265 1 -1.1104 12.244 8.37505 6.62141
266 1 -1.1104 12.261 5.50942 6.75876
237 1 -1.1104 6.8544 5.49158 6.68762
235 1 -1.1104 6.64019 8.35269 6.61239
395 2 2.2208 5.29534 12.7403 -0.40993
232 2 2.2208 10.9634 -4.29352 10.974
381 2 2.2208 5.25592 1.37189 -0.142935
106 2 2.2208 5.18752 18.2565 5.17977
107 1 -1.1104 1.17846 14.0324 0.843395
109 1 -1.1104 1.0411 19.5033 1.12885
113 1 -1.1104 1.02468 14.0436 3.69978
114 1 -1.1104 0.982694 19.6982 3.85291
116 1 -1.1104 0.932035 16.7856 1.08879
119 2 2.2208 5.23835 15.5036 2.40044
120 2 2.2208 5.29359 21.1473 2.53936
121 1 -1.1104 0.981025 16.8506 3.89959
123 1 -1.1104 3.98501 14.0824 1.10678
125 1 -1.1104 3.90309 19.6558 1.08619
127 2 2.2208 2.34604 18.1581 2.48911
128 1 -1.1104 3.76409 14.1188 3.82017
129 1 -1.1104 3.81459 19.7421 3.86629
130 2 2.2208 2.40796 15.4868 5.29659
131 2 2.2208 2.40344 21.0199 5.33538
132 1 -1.1104 3.84115 16.9088 0.950968
134 1 -1.1104 3.81123 16.8609 3.84429
388 2 2.2208 8.15018 -1.48286 -0.219957
312 2 2.2208 -0.331602 18.1531 10.6982
108 1 -1.1104 0.96513 13.983 6.50686
117 1 -1.1104 0.998017 16.8436 6.6722
333 2 2.2208 13.6256 15.5409 10.8144
139 1 -1.1104 6.71428 19.721 3.76879
133 1 -1.1104 3.81533 16.8621 6.61213
369 2 2.2208 5.54538 21.0093 13.7089
324 2 2.2208 10.8833 20.9712 8.23266
143 1 -1.1104 12.2331 14.1518 6.85757
138 1 -1.1104 6.79779 19.8506 1.0562
115 1 -1.1104 6.48187 14.1162 3.90323
140 1 -1.1104 6.74603 16.9586 1.10759
110 1 -1.1104 6.66587 14.1304 1.04093
122 1 -1.1104 6.74015 16.9228 3.89208
141 2 2.2208 10.8069 18.1943 5.27138
142 1 -1.1104 12.3374 13.9413 1.0454
144 1 -1.1104 12.3998 19.4149 1.12191
146 1 -1.1104 12.1714 13.9476 3.8432
147 1 -1.1104 12.1407 19.6494 3.86921
148 1 -1.1104 12.338 16.6425 1.05017
150 2 2.2208 10.8316 15.3103 2.50645
151 2 2.2208 10.9741 20.9612 2.46803
152 1 -1.1104 12.2916 16.7886 3.92573
153 1 -1.1104 9.43075 14.187 1.06103
155 1 -1.1104 9.57265 19.6308 1.10429
157 2 2.2208 8.2289 18.3086 2.50785
158 1 -1.1104 9.32567 13.8892 3.82169
159 1 -1.1104 9.5159 19.6649 3.89386
160 2 2.2208 7.95856 15.5492 5.34289
161 2 2.2208 8.13063 21.2447 5.22338
162 1 -1.1104 9.41295 16.8578 1.09097
164 1 -1.1104 9.48481 16.7769 3.78663
156 1 -1.1104 9.54541 19.6479 6.80622
112 1 -1.1104 6.48713 19.6071 6.51263
154 1 -1.1104 9.54415 14.01 6.62418
149 1 -1.1104 12.1862 16.937 6.6521
329 1 -1.1104 12.2075 19.6485 12.2696
404 2 2.2208 5.34848 18.279 -0.187288
166 1 -1.1104 1.05878 -2.86901 6.65608
319 1 -1.1104 9.38311 13.7376 9.37266
201 2 2.2208 -0.224518 1.35956 10.9088
289 1 -1.1104 6.61455 16.6531 9.25219
175 2 2.2208 5.44797 1.30071 10.8608
176 1 -1.1104 1.28882 -2.99076 12.2685
177 1 -1.1104 1.31033 2.60975 12.3118
180 1 -1.1104 1.00359 -2.88322 9.64434
181 1 -1.1104 1.14614 2.75386 9.59202
184 1 -1.1104 1.12322 -0.0302734 12.1622
186 2 2.2208 5.22074 -1.49738 8.02044
188 1 -1.1104 1.00991 -0.0993063 9.43685
190 1 -1.1104 4.08268 -2.931 12.3482
191 1 -1.1104 3.99049 2.74384 12.226
192 2 2.2208 2.43795 1.33229 8.12203
193 1 -1.1104 3.84285 -2.98959 9.42769
194 1 -1.1104 3.97153 2.64102 9.48902
195 2 2.2208 2.61071 -1.45221 10.8715
196 2 2.2208 2.54505 4.14421 10.8764
197 1 -1.1104 4.15034 -0.148223 12.2318
198 1 -1.1104 3.798 -0.0487654 9.45251
187 2 2.2208 5.37312 4.08565 8.01445
199 2 2.2208 -0.284779 4.10263 8.07927
200 2 2.2208 -0.401284 -1.43116 8.17986
323 1 -1.1104 12.2396 16.8427 9.42806
314 1 -1.1104 9.53116 16.7218 9.50325
207 1 -1.1104 12.4634 -0.0103321 6.69221
208 1 -1.1104 9.65976 -2.86463 6.60522
321 1 -1.1104 9.55754 19.7073 12.2775
185 1 -1.1104 6.87609 0.123296 12.3653
182 1 -1.1104 6.57827 -2.8164 9.58656
179 1 -1.1104 6.76975 2.84538 12.172
189 1 -1.1104 6.72985 -0.0538184 9.5425
206 1 -1.1104 12.2773 2.80414 6.71206
168 1 -1.1104 6.70912 -2.87901 6.80304
183 1 -1.1104 6.72833 2.74669 9.3643
178 1 -1.1104 6.93486 -2.64554 12.3609
211 2 2.2208 11.0183 1.44464 10.9789
212 1 -1.1104 12.3157 -2.94375 12.4851
213 1 -1.1104 12.422 2.91502 12.2905
214 1 -1.1104 12.3203 -2.7668 9.7148
215 1 -1.1104 12.2195 2.80182 9.58484
216 1 -1.1104 12.3158 -0.156073 12.3254
217 2 2.2208 10.997 -1.50293 8.27628
218 2 2.2208 10.8373 4.21972 8.08534
219 1 -1.1104 12.3588 -0.0515135 9.60102
220 1 -1.1104 9.51799 -2.88638 12.3807
221 1 -1.1104 9.61202 2.59217 12.2337
222 2 2.2208 8.10794 1.35353 8.20763
223 1 -1.1104 9.55624 -2.93188 9.41479
224 1 -1.1104 9.54279 2.73035 9.52193
225 2 2.2208 8.2847 -1.40581 10.943
226 2 2.2208 8.22837 4.19747 10.9353
227 1 -1.1104 9.63794 -0.0653239 12.4153
228 1 -1.1104 9.51187 -0.0881207 9.60586
238 1 -1.1104 3.76794 8.32467 6.77476
311 2 2.2208 -0.33739 21.0001 8.06053
306 1 -1.1104 6.68268 16.7544 12.0321
118 1 -1.1104 6.49263 16.7629 6.6219
399 2 2.2208 8.13965 9.83792 -0.48643
234 1 -1.1104 1.01145 8.43731 6.59647
240 2 2.2208 5.32977 6.94589 10.949
241 2 2.2208 5.30177 12.5043 10.9205
242 1 -1.1104 1.07699 8.34879 12.2353
244 1 -1.1104 1.08176 8.432 9.52757
246 1 -1.1104 1.01505 5.37591 12.2746
247 1 -1.1104 1.17367 11.2848 12.248
250 2 2.2208 5.15162 9.75946 8.05264
251 1 -1.1104 0.997949 5.50316 9.48834
252 1 -1.1104 1.20936 11.1935 9.4975
255 1 -1.1104 3.89939 8.36026 12.3069
256 2 2.2208 2.51886 6.8817 8.19402
257 2 2.2208 2.41299 12.5373 8.05852
258 1 -1.1104 3.93766 8.24107 9.35871
259 2 2.2208 2.36998 9.8342 10.9228
260 1 -1.1104 3.9173 5.49122 12.1587
261 1 -1.1104 3.89365 11.268 12.4088
262 1 -1.1104 3.91234 5.33929 9.34761
263 1 -1.1104 3.86798 11.1147 9.51768
30 2 2.2208 -0.274011 -4.21333 5.27788
332 2 2.2208 13.5771 18.32 7.99234
296 1 -1.1104 6.74561 19.4478 12.4431
267 1 -1.1104 9.50417 8.37997 6.78274
90 1 -1.1104 12.1993 11.2528 6.63793
269 1 -1.1104 9.49144 5.75369 6.74143
65 1 -1.1104 6.68994 11.257 6.65586
245 1 -1.1104 6.60338 8.42336 9.46937
248 1 -1.1104 6.66675 5.55678 12.2761
253 1 -1.1104 6.76908 5.64287 9.48944
249 1 -1.1104 6.69437 11.1874 12.3673
243 1 -1.1104 6.79543 8.40532 12.2773
101 1 -1.1104 9.57768 11.1788 6.54906
254 1 -1.1104 6.63659 11.1722 9.43205
264 1 -1.1104 9.45578 11.1924 9.42262
268 1 -1.1104 9.49076 5.57289 9.49141
270 1 -1.1104 9.5092 11.3613 12.2923
271 1 -1.1104 9.58068 5.64479 12.2049
272 2 2.2208 8.09269 9.90417 10.8323
273 1 -1.1104 9.55687 8.5016 9.55091
274 2 2.2208 8.08356 12.5376 8.00598
275 2 2.2208 8.09977 7.02812 8.04098
276 2 2.2208 10.9348 7.19867 10.9156
277 2 2.2208 10.8889 12.6765 10.8864
278 1 -1.1104 12.3746 8.48597 12.2503
279 1 -1.1104 12.2647 8.59549 9.51234
280 1 -1.1104 12.2216 5.68587 12.382
281 1 -1.1104 12.3405 11.3475 12.2819
282 2 2.2208 10.9516 9.95511 8.04122
283 1 -1.1104 12.3574 5.61909 9.50047
284 1 -1.1104 12.1781 11.3682 9.50113
285 1 -1.1104 9.54525 8.50031 12.3519
288 1 -1.1104 6.60571 19.532 9.50451
322 1 -1.1104 9.56854 13.9375 12.2499
126 1 -1.1104 3.7796 19.6174 6.63031
377 2 2.2208 8.24501 15.6583 -0.34304
124 1 -1.1104 3.86542 13.9245 6.63184
318 1 -1.1104 9.43358 19.4545 9.50937
302 1 -1.1104 0.990111 19.5428 6.63928
320 2 2.2208 7.93434 18.1594 7.99793
310 2 2.2208 2.45708 15.3996 10.8766
309 2 2.2208 2.42484 21.1027 10.8361
308 1 -1.1104 3.85917 16.6062 12.2479
307 1 -1.1104 0.987783 16.68 12.1648
305 1 -1.1104 3.62233 13.9819 9.1707
304 1 -1.1104 3.77823 16.7887 9.4537
303 2 2.2208 2.38324 18.1084 7.99729
301 1 -1.1104 3.90745 19.6355 9.52346
300 2 2.2208 5.26453 18.1694 10.861
299 1 -1.1104 1.22664 14.1022 12.5171
298 1 -1.1104 1.09799 19.5507 12.2198
295 2 2.2208 5.12355 15.3255 8.02852
294 1 -1.1104 0.94995 13.9467 9.47127
287 1 -1.1104 3.9873 14.0291 12.2829
293 2 2.2208 5.21855 20.9432 8.12324
286 1 -1.1104 3.94615 19.5548 12.217
291 1 -1.1104 1.13171 19.4621 9.33869
292 1 -1.1104 1.05971 16.7747 9.38382
393 2 2.2208 5.34335 7.03408 -0.31819
111 1 -1.1104 6.79786 13.9933 6.72242
330 1 -1.1104 12.3814 13.9958 12.2357
297 1 -1.1104 6.67455 14.0841 12.2576
316 2 2.2208 8.1285 20.9186 11.0219
331 2 2.2208 10.8281 18.1209 10.8641
163 1 -1.1104 9.38041 16.7744 6.66699
145 1 -1.1104 12.3813 19.6223 6.61153
315 1 -1.1104 9.45273 16.6479 12.1585
290 1 -1.1104 6.59362 13.9308 9.41828
325 2 2.2208 10.8376 15.3855 8.10096
327 1 -1.1104 12.4129 19.6763 9.49647
328 1 -1.1104 12.2364 14.2309 9.64193
326 1 -1.1104 12.2201 16.7374 12.2661
317 2 2.2208 8.07143 15.1974 10.7032
341 2 2.2208 13.717 9.87839 10.9627
367 2 2.2208 -0.247776 4.05989 13.6948
336 2 2.2208 13.6419 21.076 5.30688
340 2 2.2208 13.5796 12.6902 8.08191
387 2 2.2208 11.0062 1.43519 -0.251583
233 2 2.2208 13.7314 -4.27169 8.11866
105 2 2.2208 13.686 7.00852 2.56302
383 2 2.2208 2.48982 4.21835 -0.385958
405 2 2.2208 2.59135 21.0662 -0.329461
378 2 2.2208 11.0052 18.2564 -0.239537
364 2 2.2208 10.8152 10.0091 13.6826
350 2 2.2208 -0.177948 21.0813 13.5791
363 2 2.2208 8.14637 6.92032 13.6507
357 2 2.2208 10.9205 4.20775 13.7238
371 2 2.2208 5.35159 15.4449 13.5123
368 2 2.2208 2.45702 18.1702 13.5577
390 2 2.2208 10.9545 -4.26892 -0.199619
348 2 2.2208 5.44344 -1.46831 13.7088
380 2 2.2208 13.6767 18.0827 13.5968
401 2 2.2208 -0.391192 18.3386 -0.197165
346 2 2.2208 -0.278418 -1.41521 13.6657
392 2 2.2208 13.7267 4.25866 -0.256505
349 2 2.2208 2.64717 1.3943 13.508
355 2 2.2208 8.23743 1.38277 13.669
406 2 2.2208 5.27834 1.39595 16.4726
407 1 -1.1104 1.23312 -2.73397 17.8283
408 1 -1.1104 1.32552 2.73137 17.9029
411 1 -1.1104 1.16983 -2.80321 15.1226
413 1 -1.1104 1.36664 2.62376 15.1042
419 1 -1.1104 1.24223 -0.0831671 17.7478
421 2 2.2208 5.30468 -1.38679 19.3968
422 2 2.2208 5.40389 4.27819 19.3688
423 1 -1.1104 1.15758 0.0160889 15.0071
427 1 -1.1104 4.03184 -2.89003 18.0207
428 1 -1.1104 4.03852 2.66016 18.0138
429 2 2.2208 2.635 1.43938 19.3893
430 1 -1.1104 3.95085 -2.83754 15.0815
432 1 -1.1104 3.9483 2.82049 15.0069
434 2 2.2208 2.70114 -1.47199 16.4621
435 2 2.2208 2.60624 4.15882 16.4757
436 1 -1.1104 3.93285 -0.0164669 17.9278
437 1 -1.1104 4.06283 0.0139122 15.0618
442 2 2.2208 -0.0688566 1.38836 16.3952
397 2 2.2208 -0.25633 7.07153 27.7335
544 2 2.2208 -0.160658 4.1251 19.2419
414 1 -1.1104 1.12551 2.82493 20.7157
433 1 -1.1104 3.96636 2.93897 20.8696
431 1 -1.1104 3.88384 -2.85994 20.8784
443 2 2.2208 -0.261801 -1.4927 19.2364
438 1 -1.1104 3.95603 0.132379 20.7914
515 2 2.2208 -0.250343 9.8653 19.2635
448 2 2.2208 -0.304475 15.4835 19.3371
415 1 -1.1104 6.63534 -2.83899 15.1686
425 1 -1.1104 6.82043 -0.0927485 15.0837
417 1 -1.1104 6.81054 2.78235 15.1032
420 1 -1.1104 6.83219 0.0300704 17.9474
409 1 -1.1104 6.80864 -2.86379 18.0747
410 1 -1.1104 6.6602 2.78495 17.8848
449 2 2.2208 10.915 1.45491 16.6006
450 1 -1.1104 12.2291 -2.81463 18.0714
451 1 -1.1104 12.4192 2.74633 18.0953
452 1 -1.1104 12.4029 -2.9532 15.2881
454 1 -1.1104 12.4099 2.71611 15.1906
456 1 -1.1104 12.2858 -0.15406 17.9755
457 2 2.2208 10.8797 -1.4041 19.4494
458 2 2.2208 10.9205 4.20833 19.4304
459 1 -1.1104 12.4478 0.0292755 15.0019
461 1 -1.1104 9.53204 -2.8358 17.8703
462 1 -1.1104 9.57427 2.86296 17.9976
463 2 2.2208 8.10519 1.28802 19.4493
464 1 -1.1104 9.56539 -2.74986 15.001
466 1 -1.1104 9.68161 2.81817 15.0371
468 2 2.2208 8.26121 -1.35283 16.4233
469 2 2.2208 8.18847 4.09867 16.533
470 1 -1.1104 9.67484 0.190034 18.0033
471 1 -1.1104 9.69176 0.024389 15.1717
418 1 -1.1104 6.74934 2.62572 20.7326
739 1 -1.1104 6.66211 14.0588 23.5197
669 2 2.2208 8.08151 -4.2427 25.0181
467 1 -1.1104 9.60481 2.71952 20.8734
416 1 -1.1104 6.68354 -2.9672 20.8151
472 1 -1.1104 9.46216 -0.112716 20.9342
426 1 -1.1104 6.73251 -0.234745 20.7992
702 2 2.2208 -0.249641 9.85205 24.9086
637 2 2.2208 -0.298131 -4.19802 22.0706
482 2 2.2208 5.2636 6.91783 16.5873
483 2 2.2208 5.17488 12.7756 16.5953
484 1 -1.1104 1.09418 8.40248 17.8764
486 1 -1.1104 1.08162 8.34917 14.9986
490 1 -1.1104 1.18366 5.61479 17.8938
491 1 -1.1104 1.21059 11.2691 17.9126
494 2 2.2208 5.28602 9.89136 19.3405
495 1 -1.1104 1.10361 5.5686 15.1089
497 1 -1.1104 1.18771 11.2122 15.053
503 1 -1.1104 3.8324 8.45776 17.9331
504 2 2.2208 2.41273 6.97697 19.3966
505 2 2.2208 2.45828 12.7167 19.3819
506 1 -1.1104 3.88861 8.37786 15.1828
508 2 2.2208 2.40221 9.84058 16.5548
509 1 -1.1104 3.908 5.54016 17.9776
510 1 -1.1104 3.89508 11.2373 18.0389
511 1 -1.1104 3.87137 5.5253 15.1565
513 1 -1.1104 3.95802 11.3004 15.1319
475 2 2.2208 8.00346 -4.26945 19.3763
481 2 2.2208 -0.30667 6.83993 16.4225
514 1 -1.1104 3.91209 11.2644 20.8994
498 1 -1.1104 1.14254 11.1892 20.8319
512 1 -1.1104 3.83294 5.6105 20.7539
507 1 -1.1104 4.03479 8.44588 20.7459
487 1 -1.1104 1.07351 8.33382 20.6705
516 2 2.2208 -0.22981 12.6275 16.5691
496 1 -1.1104 1.17274 5.58596 20.7643
351 2 2.2208 -0.242998 15.4058 13.6987
488 1 -1.1104 6.66874 8.18189 14.9191
492 1 -1.1104 6.66557 5.52532 17.9271
499 1 -1.1104 6.69662 5.42186 15.226
493 1 -1.1104 6.78245 11.1244 17.8253
501 1 -1.1104 6.84852 11.096 15.0672
485 1 -1.1104 6.68309 8.25512 17.8673
518 2 2.2208 10.8321 6.90559 16.4999
519 2 2.2208 10.7942 12.66 16.489
520 1 -1.1104 12.3996 8.33584 17.8348
521 1 -1.1104 12.0969 8.24964 15.1352
523 1 -1.1104 12.2067 5.57549 17.8974
524 1 -1.1104 12.2822 11.242 17.8654
525 2 2.2208 10.7927 9.89841 19.3123
526 1 -1.1104 12.3806 5.48345 15.1331
528 1 -1.1104 12.3343 11.1765 15.0755
530 1 -1.1104 9.44528 8.43172 17.9411
531 2 2.2208 8.06389 6.99117 19.3815
532 2 2.2208 7.9837 12.6511 19.3056
533 1 -1.1104 9.51544 8.31264 15.1044
535 2 2.2208 8.03756 9.68065 16.5565
536 1 -1.1104 9.36655 5.6037 17.8659
537 1 -1.1104 9.59273 11.3022 17.8405
538 1 -1.1104 9.47681 5.35494 14.9894
540 1 -1.1104 9.48541 11.1137 15.0824
502 1 -1.1104 6.72986 11.2506 20.6217
500 1 -1.1104 6.7785 5.59816 20.898
522 1 -1.1104 12.3369 8.43335 20.7486
529 1 -1.1104 12.3074 11.2214 20.7938
639 2 2.2208 5.25644 -4.22572 22.0886
489 1 -1.1104 6.73505 8.53446 20.727
541 1 -1.1104 9.58412 11.344 20.6381
365 2 2.2208 8.08359 12.6513 13.7047
723 2 2.2208 -0.349229 18.2225 22.0783
447 2 2.2208 -0.197779 18.2213 16.4767
545 2 2.2208 5.27248 18.1702 16.4767
546 1 -1.1104 1.20212 13.9931 17.8156
547 1 -1.1104 1.24077 19.6745 17.9192
550 1 -1.1104 1.12741 13.8163 15.1242
552 1 -1.1104 1.21106 19.674 15.0268
558 1 -1.1104 1.10232 16.8514 17.9176
560 2 2.2208 5.24663 15.4918 19.2831
561 2 2.2208 5.36468 21.1383 19.2543
562 1 -1.1104 1.06267 16.7506 15.0259
566 1 -1.1104 3.90368 14.1968 17.9332
567 1 -1.1104 3.99263 19.622 17.9225
568 2 2.2208 2.53044 18.1447 19.3024
569 1 -1.1104 3.95347 13.9775 15.1735
571 1 -1.1104 3.93446 19.6776 15.0184
573 2 2.2208 2.5125 15.4463 16.3629
574 2 2.2208 2.71123 20.9269 16.4903
575 1 -1.1104 3.8186 16.8323 17.7963
576 1 -1.1104 3.79894 16.8246 14.9792
476 2 2.2208 -0.188927 21.1203 19.3672
570 1 -1.1104 3.83634 14.0009 20.6338
551 1 -1.1104 1.0931 13.9595 20.7077
577 1 -1.1104 3.8428 16.7602 20.7183
563 1 -1.1104 1.01958 16.8761 20.7186
572 1 -1.1104 3.96237 19.6771 20.7924
446 2 2.2208 13.6999 4.25951 22.0874
554 1 -1.1104 6.73129 14.0889 15.0776
556 1 -1.1104 6.62824 19.5979 15.144
549 1 -1.1104 6.80218 19.5641 17.9715
548 1 -1.1104 6.70268 14.0573 17.8667
559 1 -1.1104 6.48039 16.8379 17.9045
564 1 -1.1104 6.65367 16.8931 15.0181
581 2 2.2208 11.0229 18.2348 16.6094
582 1 -1.1104 12.351 14.0728 17.9496
583 1 -1.1104 12.242 19.6295 17.9806
584 1 -1.1104 12.2732 13.9601 15.1838
586 1 -1.1104 12.3482 19.5211 15.0892
588 1 -1.1104 12.373 16.8672 17.9219
589 2 2.2208 11.013 15.387 19.3038
590 2 2.2208 10.9479 20.9816 19.4048
591 1 -1.1104 12.2412 16.6228 15.2265
593 1 -1.1104 9.53279 14.0112 17.9439
594 1 -1.1104 9.46054 19.6036 17.7722
595 2 2.2208 8.0099 18.2744 19.3473
596 1 -1.1104 9.49726 14.0428 15.1403
598 1 -1.1104 9.40802 19.5927 15.0882
600 2 2.2208 8.12776 15.4822 16.5483
601 2 2.2208 8.16237 20.9542 16.5242
602 1 -1.1104 9.53009 16.7925 17.9795
603 1 -1.1104 9.43803 16.85 15.1436
592 1 -1.1104 12.1727 16.7172 20.7869
604 1 -1.1104 9.32738 16.6981 20.7256
555 1 -1.1104 6.70791 14.0082 20.6516
557 1 -1.1104 6.79516 19.613 20.7859
565 1 -1.1104 6.55313 16.8169 20.7703
599 1 -1.1104 9.46036 19.6249 20.7338
587 1 -1.1104 12.2504 19.4664 20.762
352 2 2.2208 5.27602 4.14749 13.7639
412 1 -1.1104 1.05107 -2.77645 20.6214
366 2 2.2208 13.6957 6.95847 13.7268
424 1 -1.1104 1.08921 0.0303808 20.5707
444 2 2.2208 -0.128635 7.07157 22.135
644 2 2.2208 -0.297841 4.19337 24.7848
609 2 2.2208 5.34652 1.24453 22.1617
610 1 -1.1104 1.17045 -2.91854 23.428
611 1 -1.1104 1.17501 2.63331 23.6225
614 1 -1.1104 1.07126 -2.7091 26.1702
615 1 -1.1104 1.04795 2.88677 26.2805
618 1 -1.1104 1.06257 -0.106697 23.4995
620 2 2.2208 5.24489 -1.50925 24.997
621 2 2.2208 5.33857 4.15822 24.9536
622 1 -1.1104 1.15197 0.0411947 26.3533
624 1 -1.1104 4.04644 -2.74362 23.6299
625 1 -1.1104 3.98093 2.63406 23.3841
626 2 2.2208 2.5276 1.3842 24.9654
627 1 -1.1104 3.9616 -2.86522 26.4432
628 1 -1.1104 3.72531 2.83315 26.2184
629 2 2.2208 2.43649 -1.42218 22.2008
630 2 2.2208 2.60165 4.19472 22.0643
631 1 -1.1104 3.87038 -0.178822 23.6035
632 1 -1.1104 4.00367 -0.0571998 26.3829
643 2 2.2208 -0.251336 1.31921 22.0563
736 1 -1.1104 6.89468 19.8251 23.6889
638 2 2.2208 10.9284 15.6424 24.8773
673 1 -1.1104 9.38163 14.1832 26.3222
701 1 -1.1104 9.39814 16.8285 23.5403
453 1 -1.1104 12.2758 -2.79493 20.8724
460 1 -1.1104 12.4349 -0.118333 20.8521
465 1 -1.1104 9.50287 -2.91811 20.7297
670 1 -1.1104 6.57361 19.7194 26.4345
455 1 -1.1104 12.277 2.74474 20.8259
613 1 -1.1104 6.75191 2.66178 23.6585
612 1 -1.1104 6.93871 -2.85789 23.6543
619 1 -1.1104 6.57755 -0.0570629 23.776
617 1 -1.1104 6.62732 2.69493 26.5798
623 1 -1.1104 6.75271 -0.0335879 26.5569
616 1 -1.1104 6.90271 -3.00974 26.4488
645 2 2.2208 10.9077 1.20046 22.3314
646 1 -1.1104 12.3147 -2.69309 23.6086
647 1 -1.1104 12.3584 2.76484 23.5211
648 1 -1.1104 12.515 -2.92773 26.4638
649 1 -1.1104 12.2254 2.80063 26.4024
650 1 -1.1104 12.3769 0.0940091 23.6713
651 2 2.2208 10.9521 -1.32425 25.0111
652 2 2.2208 10.8752 4.17691 24.9389
653 1 -1.1104 12.3275 -0.088787 26.4883
654 1 -1.1104 9.60231 -2.81118 23.582
655 1 -1.1104 9.42389 2.70077 23.6373
656 2 2.2208 8.13095 1.38955 25.1585
657 1 -1.1104 9.59217 -2.74026 26.4688
658 1 -1.1104 9.49776 2.84513 26.4028
659 2 2.2208 8.09239 -1.50065 22.3024
660 2 2.2208 8.0357 4.08169 22.2166
661 1 -1.1104 9.39704 -0.121889 23.6657
662 1 -1.1104 9.58401 0.186734 26.391
635 1 -1.1104 12.4825 19.5681 26.5034
585 1 -1.1104 12.544 14.0278 20.6882
597 1 -1.1104 9.53781 14.0312 20.8546
703 2 2.2208 -0.421159 12.6216 22.1796
730 1 -1.1104 6.61474 13.9813 26.2793
543 2 2.2208 13.7176 9.81425 16.4798
674 2 2.2208 5.33836 7.02952 22.1713
675 2 2.2208 5.50778 12.5645 22.0918
676 1 -1.1104 1.19154 8.43124 23.5861
678 1 -1.1104 1.22428 8.3436 26.1665
680 1 -1.1104 1.20367 5.62091 23.4684
681 1 -1.1104 0.963269 11.2754 23.5969
684 2 2.2208 5.28331 9.66234 25.0559
685 1 -1.1104 1.05601 5.5067 26.259
686 1 -1.1104 1.22388 11.1902 26.3317
689 1 -1.1104 3.92867 8.29945 23.5824
690 2 2.2208 2.51113 6.99591 24.8294
691 2 2.2208 2.52998 12.6537 24.8888
692 1 -1.1104 4.01643 8.24163 26.3238
693 2 2.2208 2.5498 9.87851 22.135
694 1 -1.1104 3.96125 5.47287 23.5471
695 1 -1.1104 3.92373 10.9741 23.6205
696 1 -1.1104 3.88404 5.70595 26.4442
697 1 -1.1104 3.95039 11.0663 26.2939
608 1 -1.1104 12.4227 14.1223 23.505
667 2 2.2208 8.0949 18.2571 24.9338
664 1 -1.1104 9.54921 14.1579 23.5764
607 2 2.2208 10.8487 18.1709 22.1412
539 1 -1.1104 9.58523 5.56195 20.7039
527 1 -1.1104 12.3862 5.70882 20.7919
534 1 -1.1104 9.52684 8.39985 20.8225
687 1 -1.1104 6.69457 5.53365 26.3072
679 1 -1.1104 6.75843 8.2935 26.455
683 1 -1.1104 6.70907 11.2342 23.4583
688 1 -1.1104 6.80241 11.2376 26.321
682 1 -1.1104 6.63377 5.60003 23.587
677 1 -1.1104 6.70525 8.41934 23.7088
705 1 -1.1104 9.53688 11.1477 26.3062
706 1 -1.1104 9.41793 5.53598 26.2869
707 1 -1.1104 9.56262 11.2971 23.5289
708 1 -1.1104 9.56066 5.45962 23.5759
709 2 2.2208 8.23651 9.70918 22.2513
710 1 -1.1104 9.56747 8.46024 26.3216
711 2 2.2208 8.13565 12.7485 24.9156
712 2 2.2208 8.05252 6.95502 25.0604
713 2 2.2208 10.9523 7.07491 22.1548
714 2 2.2208 10.9622 12.6878 22.1811
715 1 -1.1104 12.2384 8.3976 23.5773
716 1 -1.1104 12.3701 8.38774 26.3027
717 1 -1.1104 12.2786 5.54279 23.5488
718 1 -1.1104 12.3986 11.1413 23.4517
719 2 2.2208 10.834 9.78408 24.8307
720 1 -1.1104 12.3066 5.63159 26.3901
721 1 -1.1104 12.2871 11.3678 26.3344
722 1 -1.1104 9.40637 8.27818 23.6515
700 2 2.2208 8.08586 21.0302 22.216
725 2 2.2208 -0.23367 15.4907 24.8688
553 1 -1.1104 1.19973 19.6738 20.7784
726 2 2.2208 13.6711 12.5704 24.9242
747 1 -1.1104 6.74598 16.9399 23.6174
748 1 -1.1104 1.03819 16.8573 23.564
746 1 -1.1104 3.82423 14.0374 26.4116
745 1 -1.1104 3.94986 16.8481 26.3133
744 2 2.2208 2.49014 18.2996 24.9234
750 2 2.2208 2.60099 21.0631 22.1843
749 1 -1.1104 4.03237 16.8896 23.5977
727 2 2.2208 2.45885 15.4463 22.1278
729 1 -1.1104 4.02171 19.6718 23.5042
731 1 -1.1104 3.86356 14.1342 23.6367
733 1 -1.1104 0.887907 19.7751 26.4456
734 1 -1.1104 1.10634 16.8351 26.2411
735 1 -1.1104 1.06461 14.046 26.2069
737 2 2.2208 5.35007 21.0482 25.0013
738 2 2.2208 5.3206 15.4806 24.9519
740 1 -1.1104 1.14993 19.628 23.5669
741 1 -1.1104 1.12046 14.0725 23.4179
742 2 2.2208 5.3556 18.3159 22.1842
743 1 -1.1104 3.84055 19.6532 26.3219
641 2 2.2208 10.9587 20.9694 25.031
704 1 -1.1104 9.67927 17.051 26.3684
633 1 -1.1104 12.3323 19.7538 23.6625
636 1 -1.1104 12.2892 16.8859 23.456
634 1 -1.1104 12.223 14.2197 26.3437
665 1 -1.1104 9.66292 19.6213 23.5364
732 1 -1.1104 6.89533 16.8829 26.3436
698 1 -1.1104 9.46931 19.7642 26.3694
699 2 2.2208 7.92775 15.4101 22.0512
663 1 -1.1104 12.261 16.9022 26.3052
359 2 2.2208 2.46558 7.02762 13.7124
372 2 2.2208 10.8404 21.0239 13.7434
373 2 2.2208 10.9443 15.3607 13.6404
356 2 2.2208 11.0658 -1.46945 13.6962
396 2 2.2208 -0.193232 12.6561 27.7302
389 2 2.2208 8.0833 4.12116 27.8073
384 2 2.2208 -0.366944 -4.17761 27.6535
394 2 2.2208 2.56431 9.7194 27.6773
379 2 2.2208 8.0383 21.0823 27.7084
386 2 2.2208 -0.330563 1.39913 27.7327
361 2 2.2208 2.57039 12.6954 13.7515
403 2 2.2208 2.42948 15.4655 27.7093
360 2 2.2208 5.40386 9.71543 13.7131
376 2 2.2208 8.15008 18.2198 13.7415
751 2 2.2208 5.21141 23.8503 5.34669
752 2 2.2208 5.29972 29.5048 5.3281
753 1 -1.1104 1.19903 25.2692 0.931485
754 1 -1.1104 1.16073 25.1974 3.82232
755 1 -1.1104 1.20609 22.5068 1.08753
756 1 -1.1104 1.18292 28.0744 1.16232
757 2 2.2208 5.34654 26.7443 2.39356
758 1 -1.1104 1.07916 22.3483 3.77281
759 1 -1.1104 1.05426 27.9318 3.94374
760 1 -1.1104 4.05249 25.3194 1.05604
761 2 2.2208 2.63675 23.8399 2.37931
762 2 2.2208 2.49783 29.5176 2.5188
763 1 -1.1104 3.90664 25.2458 3.98364
764 2 2.2208 2.52346 26.6283 5.27606
765 1 -1.1104 3.96458 22.4181 0.995904
766 1 -1.1104 3.85473 28.1023 1.01445
767 1 -1.1104 3.91389 22.5075 3.79816
768 1 -1.1104 3.92882 28.1345 3.80919
1113 2 2.2208 5.42754 23.9152 -0.314189
871 2 2.2208 -0.263674 40.8213 5.25595
1499 1 -1.1104 3.89642 47.6899 3.85847
900 1 -1.1104 3.90485 28.0473 6.70023
769 2 2.2208 -0.394664 29.4413 5.3358
774 1 -1.1104 6.80193 22.5579 1.20344
1137 1 -1.1104 6.90629 47.4449 9.42374
898 1 -1.1104 3.85877 25.255 6.74248
821 2 2.2208 -0.288527 32.2933 2.46788
1119 2 2.2208 -0.210007 23.7477 -0.282962
773 1 -1.1104 6.59445 25.3662 3.9073
777 1 -1.1104 6.68386 28.0972 3.8313
772 1 -1.1104 6.79589 25.231 1.10109
776 1 -1.1104 6.63594 22.6459 3.93585
775 1 -1.1104 6.77312 28.0684 1.03397
778 2 2.2208 10.8512 23.9446 5.37091
779 2 2.2208 10.9689 29.5945 5.30492
780 1 -1.1104 12.2826 25.2958 1.06295
781 1 -1.1104 12.2888 25.3348 3.98236
782 1 -1.1104 12.4806 22.4789 1.20444
783 1 -1.1104 12.2007 28.0835 1.1987
784 2 2.2208 10.9102 26.5808 2.48907
785 1 -1.1104 12.1521 22.4539 3.85496
786 1 -1.1104 12.202 28.0758 3.94616
787 1 -1.1104 9.56408 25.2191 0.992963
788 2 2.2208 8.17312 23.8966 2.51656
789 2 2.2208 8.18416 29.5181 2.44156
790 1 -1.1104 9.46152 25.3179 3.94971
791 2 2.2208 8.05695 26.7832 5.24648
792 1 -1.1104 9.58952 22.443 0.994623
793 1 -1.1104 9.57016 28.1419 0.962303
794 1 -1.1104 9.47364 22.4035 3.84983
795 1 -1.1104 9.49745 27.9625 3.75848
896 1 -1.1104 6.76636 22.492 6.76761
893 1 -1.1104 6.6715 25.164 6.69001
1120 2 2.2208 10.9324 23.7863 -0.422843
799 2 2.2208 5.3894 35.0315 5.29596
800 1 -1.1104 1.05863 30.8455 1.06441
801 1 -1.1104 1.03151 36.5224 1.12479
803 1 -1.1104 1.21161 30.9 3.97283
804 1 -1.1104 1.14957 36.6402 3.90381
806 1 -1.1104 1.02512 33.6715 1.03983
807 2 2.2208 5.27194 32.2522 2.38378
808 2 2.2208 5.43541 37.8999 2.37618
809 1 -1.1104 1.1534 33.6128 3.99406
811 1 -1.1104 3.77252 30.9524 1.01982
812 1 -1.1104 3.77799 36.4488 1.02522
813 2 2.2208 2.48652 35.0362 2.47629
814 1 -1.1104 3.88925 30.8616 3.90714
815 1 -1.1104 4.05123 36.5115 3.90041
816 2 2.2208 2.65427 32.2906 5.36134
817 2 2.2208 2.62288 37.8845 5.13207
818 1 -1.1104 3.77474 33.6881 1.10991
819 1 -1.1104 3.83664 33.732 3.97153
1018 1 -1.1104 6.67797 39.2819 12.2418
1117 2 2.2208 8.2074 43.5298 -0.403336
825 1 -1.1104 6.67128 33.6617 1.05547
955 1 -1.1104 3.91676 30.8391 6.81504
1041 2 2.2208 -0.206974 46.2912 10.9596
1053 1 -1.1104 12.3204 39.2772 9.41747
982 2 2.2208 -0.106162 37.8953 7.99332
770 2 2.2208 -0.239589 23.7817 5.23536
1075 2 2.2208 -0.333984 29.3468 10.9907
823 1 -1.1104 6.67592 30.919 1.06861
810 1 -1.1104 6.55789 33.6357 3.78933
824 1 -1.1104 6.61962 30.89 3.75927
805 1 -1.1104 6.70172 36.5031 3.89019
802 1 -1.1104 6.69811 36.4685 1.00814
826 2 2.2208 10.9425 35.096 5.1083
827 1 -1.1104 12.4245 30.9578 0.977678
828 1 -1.1104 12.3029 36.3706 0.956509
829 1 -1.1104 12.2474 30.8728 3.76453
830 1 -1.1104 12.3097 36.5256 3.80134
831 1 -1.1104 12.4249 33.6517 1.08311
832 2 2.2208 10.8435 32.3023 2.5871
833 2 2.2208 10.7945 37.9564 2.30563
834 1 -1.1104 12.2886 33.6448 3.79343
835 1 -1.1104 9.5731 30.8306 0.97015
836 1 -1.1104 9.36473 36.4978 0.935753
837 2 2.2208 8.03556 35.055 2.29374
838 1 -1.1104 9.4278 30.8335 3.97932
839 1 -1.1104 9.45094 36.4007 3.71234
840 2 2.2208 8.08531 32.3906 5.2426
841 2 2.2208 8.10114 37.8261 5.21112