ITEM: TIMESTEP
50000
ITEM: NUMBER OF ATOMS
17672
ITEM: BOX BOUNDS pp pp pp
-3.5778573563338079e-01 2.7697785735632721e+01
-4.2386357141856310e+00 3.3231863571419620e+02
-3.5794882878624146e-01 2.7697948828786192e+01
ITEM: ATOMS id type q x y z
1 2 2.2208 5.15662 1.23461 5.34101
2 1 -1.1104 0.842499 -2.84211 1.23131
3 1 -1.1104 0.83102 2.8162 1.21427
6 1 -1.1104 0.792814 -2.8894 3.96246
7 1 -1.1104 0.864173 2.73321 3.83013
10 1 -1.1104 0.753474 -0.0955137 1.29939
12 2 2.2208 5.0595 -1.4914 2.60887
13 2 2.2208 5.0271 4.27179 2.53723
14 1 -1.1104 0.796795 -0.0874016 4.09617
16 1 -1.1104 3.55744 -2.67205 1.27447
17 1 -1.1104 3.70579 2.87915 1.01317
18 2 2.2208 2.27692 1.31318 2.63546
19 1 -1.1104 3.54866 -2.84435 3.98733
20 1 -1.1104 3.89218 2.6953 3.86708
21 2 2.2208 2.28338 -1.44961 5.40296
22 2 2.2208 2.28221 4.13987 5.24754
23 1 -1.1104 3.60779 0.155698 1.10704
24 1 -1.1104 3.63297 -0.0542166 4.05268
5 1 -1.1104 6.47502 2.85081 1.14604
8 1 -1.1104 6.5312 -2.72553 3.92015
9 1 -1.1104 6.59776 2.85047 3.79827
170 1 -1.1104 0.652935 0.00263324 6.76341
15 1 -1.1104 6.47396 -0.100076 4.01898
11 1 -1.1104 6.4668 -0.0720228 1.10758
340 2 2.2208 13.5537 12.6809 8.10049
337 2 2.2208 13.6147 15.4176 5.45573
174 1 -1.1104 3.7413 -0.139771 6.74637
167 1 -1.1104 0.837769 2.77099 6.6279
172 1 -1.1104 3.75669 -2.81403 6.8214
169 1 -1.1104 6.69949 2.62381 6.64753
171 1 -1.1104 6.59275 -0.278771 6.74685
288 1 -1.1104 6.51648 19.638 9.43082
4 1 -1.1104 6.3182 -2.85627 1.30414
390 2 2.2208 10.6487 -4.14608 -0.39277
31 2 2.2208 10.6852 1.32962 5.35274
32 1 -1.1104 11.9946 -2.91034 1.03152
33 1 -1.1104 12.0675 2.75357 1.28853
34 1 -1.1104 12.0148 -2.95322 3.90851
35 1 -1.1104 11.9682 2.77456 4.13115
36 1 -1.1104 12.1261 -0.144574 1.08201
37 2 2.2208 10.6192 -1.50752 2.49912
38 2 2.2208 10.6248 4.14057 2.55384
39 1 -1.1104 12.1705 -0.207442 3.87797
40 1 -1.1104 9.12768 -3.02114 0.924227
41 1 -1.1104 9.20044 2.72934 1.01172
42 2 2.2208 7.80064 1.40878 2.57271
43 1 -1.1104 9.26931 -2.86641 3.73166
44 1 -1.1104 9.25467 2.81379 3.83559
45 2 2.2208 7.94499 -1.59968 5.32319
46 2 2.2208 7.88732 4.18593 5.28669
47 1 -1.1104 9.41831 -0.241293 1.11251
48 1 -1.1104 9.23502 0.0061603 3.82768
205 1 -1.1104 12.1454 -3.00743 6.76627
229 2 2.2208 13.5564 1.28821 8.06376
206 1 -1.1104 12.1979 2.85343 6.8791
210 1 -1.1104 9.37363 -0.0882972 6.67948
334 2 2.2208 13.3674 4.17833 5.32588
379 2 2.2208 7.77261 21.1877 -0.446941
339 2 2.2208 13.5434 6.86617 8.00209
382 2 2.2208 2.27928 -1.34172 -0.246276
54 2 2.2208 5.07565 6.93158 5.40811
55 2 2.2208 5.00589 12.6361 5.24784
56 1 -1.1104 0.933346 8.40991 0.937092
58 1 -1.1104 0.896944 8.38267 3.92994
60 1 -1.1104 0.816904 5.73313 1.29424
61 1 -1.1104 0.932339 11.2272 0.98332
66 2 2.2208 5.22116 9.88724 2.49472
67 1 -1.1104 0.823018 5.64441 4.01113
68 1 -1.1104 0.839462 11.2081 3.79239
71 1 -1.1104 3.84393 8.45113 0.97069
72 2 2.2208 2.21469 7.00803 2.56618
73 2 2.2208 2.26023 12.5754 2.43586
74 1 -1.1104 3.87176 8.32452 3.88229
75 2 2.2208 2.21847 9.74045 5.35221
76 1 -1.1104 3.68033 5.68628 1.23375
77 1 -1.1104 3.69789 11.2711 1.03636
79 1 -1.1104 3.5944 5.54514 4.09337
80 1 -1.1104 3.59913 11.0085 3.93227
59 1 -1.1104 6.65342 8.47961 3.91412
63 1 -1.1104 6.52305 5.73332 1.02207
57 1 -1.1104 6.43548 8.44218 1.09485
62 1 -1.1104 0.881968 11.1343 6.70016
236 1 -1.1104 0.847313 5.59805 6.77914
64 1 -1.1104 6.53241 11.1584 0.911475
238 1 -1.1104 3.62738 8.26333 6.82362
237 1 -1.1104 6.45709 5.43711 6.67401
377 2 2.2208 7.88444 15.4296 -0.373451
389 2 2.2208 7.97987 4.23421 -0.223961
69 1 -1.1104 6.41488 5.48069 3.8543
70 1 -1.1104 6.5008 11.3942 3.93999
84 2 2.2208 10.6925 7.06179 5.38026
85 2 2.2208 10.6664 12.6123 5.30426
86 1 -1.1104 12.2752 8.44981 1.07399
87 1 -1.1104 11.8962 8.39205 3.96583
88 1 -1.1104 11.9799 5.61933 1.17257
89 1 -1.1104 12.0937 11.1794 1.19629
91 2 2.2208 10.7326 9.81561 2.48699
92 1 -1.1104 12.0061 5.5782 4.06852
93 1 -1.1104 12.0378 11.3415 3.95125
94 1 -1.1104 9.27085 8.33159 1.22363
95 2 2.2208 7.81844 6.97668 2.63947
96 2 2.2208 7.88828 12.7359 2.51226
97 1 -1.1104 9.15647 8.47584 3.97347
98 2 2.2208 7.84055 9.93664 5.31392
99 1 -1.1104 9.14293 5.57243 1.27055
100 1 -1.1104 9.33878 11.3811 1.18297
102 1 -1.1104 9.40453 5.6689 3.93935
103 1 -1.1104 9.19268 11.1382 3.85735
391 2 2.2208 13.5116 -1.46622 -0.264689
290 1 -1.1104 6.52483 14.0691 9.52008
104 2 2.2208 13.4864 12.5895 2.45177
269 1 -1.1104 9.3295 5.6721 6.81795
265 1 -1.1104 12.1594 8.4397 6.75724
324 2 2.2208 10.7118 20.8461 8.18231
374 2 2.2208 13.4989 15.3866 -0.326027
106 2 2.2208 5.06407 18.2672 5.3247
107 1 -1.1104 0.80584 13.9724 1.12395
109 1 -1.1104 0.824114 19.5665 1.02579
113 1 -1.1104 0.819732 13.9825 3.95471
114 1 -1.1104 0.663755 19.5295 3.80258
116 1 -1.1104 0.837818 16.7034 0.890186
119 2 2.2208 5.06131 15.4197 2.33402
120 2 2.2208 5.09381 20.9977 2.44836
121 1 -1.1104 1.07808 16.7022 3.84761
123 1 -1.1104 3.68816 14.0449 1.13968
125 1 -1.1104 3.60656 19.4362 0.931513
127 2 2.2208 2.35273 18.1253 2.46521
128 1 -1.1104 3.59848 13.9829 3.89638
129 1 -1.1104 3.62071 19.5235 3.88203
130 2 2.2208 2.32736 15.3394 5.3304
131 2 2.2208 2.22423 20.9828 5.27747
132 1 -1.1104 3.71621 16.7109 0.905787
134 1 -1.1104 3.78859 16.7916 3.89818
140 1 -1.1104 6.28974 16.7489 1.00644
110 1 -1.1104 6.52213 13.9628 0.932338
302 1 -1.1104 0.857834 19.5379 6.59913
117 1 -1.1104 0.928211 16.6955 6.62689
319 1 -1.1104 9.34072 14.1927 9.47524
133 1 -1.1104 3.65867 16.7787 6.74878
124 1 -1.1104 3.64269 13.8845 6.72215
317 2 2.2208 7.87002 15.4564 10.9066
378 2 2.2208 10.5309 18.2169 -0.203818
345 2 2.2208 13.5818 20.9816 10.9662
316 2 2.2208 7.87973 21.044 10.8391
122 1 -1.1104 6.545 16.7115 3.84274
138 1 -1.1104 6.45377 19.5443 1.02487
139 1 -1.1104 6.60979 19.6736 4.00098
115 1 -1.1104 6.43052 14.0618 3.85471
141 2 2.2208 10.7719 18.2299 5.38943
142 1 -1.1104 12.13 14.0462 1.04018
144 1 -1.1104 12.0242 19.5806 1.27064
146 1 -1.1104 12.092 14.1127 3.86965
147 1 -1.1104 12.1414 19.6114 4.04587
148 1 -1.1104 11.902 16.8357 1.15298
150 2 2.2208 10.7101 15.4423 2.58238
151 2 2.2208 10.5615 20.9369 2.41127
152 1 -1.1104 12.1834 16.7421 4.03686
153 1 -1.1104 9.48801 14.1746 1.18813
155 1 -1.1104 9.11683 19.6385 1.1614
157 2 2.2208 7.75389 18.2511 2.51418
158 1 -1.1104 9.2186 13.9472 3.94399
159 1 -1.1104 9.42547 19.6901 4.02991
160 2 2.2208 7.90196 15.4664 5.21308
161 2 2.2208 8.09641 21.0771 5.28363
162 1 -1.1104 9.04365 16.8753 1.13047
164 1 -1.1104 9.33891 16.7803 3.94223
163 1 -1.1104 9.13103 16.7215 6.78665
112 1 -1.1104 6.45987 19.5912 6.64957
156 1 -1.1104 9.47275 19.4945 6.75263
118 1 -1.1104 6.39183 16.7974 6.70994
375 2 2.2208 13.3868 20.9492 -0.249791
405 2 2.2208 2.20721 21.0102 -0.382099
361 2 2.2208 2.08627 12.5763 13.7384
332 2 2.2208 13.6339 18.1059 8.07987
315 1 -1.1104 9.25795 16.7751 12.2448
166 1 -1.1104 0.77344 -2.72587 6.82313
173 1 -1.1104 3.82402 2.73232 6.7705
175 2 2.2208 5.1011 1.21843 11.0234
176 1 -1.1104 0.799103 -2.91361 12.3935
177 1 -1.1104 0.965343 2.83917 12.4344
180 1 -1.1104 0.845583 -2.85763 9.60223
181 1 -1.1104 0.693758 2.60961 9.5117
184 1 -1.1104 0.862316 -0.0212477 12.3434
186 2 2.2208 5.22768 -1.53781 8.14784
188 1 -1.1104 0.870256 -0.100264 9.64505
190 1 -1.1104 3.6707 -2.94109 12.236
191 1 -1.1104 3.65381 2.81997 12.1621
192 2 2.2208 2.27595 1.26837 8.16665
193 1 -1.1104 3.67206 -2.87411 9.57712
194 1 -1.1104 3.50057 2.67428 9.51949
195 2 2.2208 2.32103 -1.50838 11.009
196 2 2.2208 2.21255 4.12729 10.8791
197 1 -1.1104 3.71408 -0.0245654 12.4095
198 1 -1.1104 3.75139 -0.119077 9.57002
187 2 2.2208 5.1657 4.09464 8.17734
189 1 -1.1104 6.4354 -0.0153629 9.59557
179 1 -1.1104 6.53715 2.80828 12.3662
182 1 -1.1104 6.64633 -2.78112 9.53635
185 1 -1.1104 6.39795 -0.0870303 12.417
168 1 -1.1104 6.53742 -3.04297 6.73514
111 1 -1.1104 6.5561 14.0493 6.64782
369 2 2.2208 5.12831 21.0821 13.5204
335 2 2.2208 13.4256 9.81185 5.23447
336 2 2.2208 13.479 21.1107 5.34768
338 2 2.2208 13.26 4.24191 10.9909
341 2 2.2208 13.4555 9.93086 10.8443
183 1 -1.1104 6.4797 2.76701 9.52717
208 1 -1.1104 9.35687 -2.92443 6.60763
178 1 -1.1104 6.40726 -2.9764 12.4446
207 1 -1.1104 12.1545 -0.156048 6.79129
209 1 -1.1104 9.37388 2.77937 6.69039
211 2 2.2208 10.7456 1.27261 10.8985
212 1 -1.1104 12.0851 -2.88909 12.3913
213 1 -1.1104 12.0188 2.83244 12.3521
214 1 -1.1104 12.204 -2.78313 9.71565
215 1 -1.1104 11.9835 2.62001 9.44054
216 1 -1.1104 12.0205 -0.0488181 12.3865
217 2 2.2208 10.7873 -1.47106 8.23308
218 2 2.2208 10.7706 4.12962 8.10558
219 1 -1.1104 12.1164 -0.121741 9.685
220 1 -1.1104 9.11822 -2.92275 12.3464
221 1 -1.1104 9.27519 2.82898 12.4548
222 2 2.2208 7.98796 1.28218 8.12003
223 1 -1.1104 9.37288 -2.98298 9.42445
224 1 -1.1104 9.284 2.69117 9.43806
225 2 2.2208 7.80705 -1.57507 11.0142
226 2 2.2208 7.9095 4.16051 10.9515
227 1 -1.1104 9.22115 -0.0714263 12.2245
228 1 -1.1104 9.29751 -0.136777 9.51433
65 1 -1.1104 6.3618 11.1918 6.75512
235 1 -1.1104 6.30726 8.37072 6.68096
239 1 -1.1104 3.58992 5.48234 6.64285
78 1 -1.1104 3.75259 11.0548 6.6596
234 1 -1.1104 0.800307 8.25051 6.80209
240 2 2.2208 5.06407 6.87684 10.9151
241 2 2.2208 5.03814 12.5408 10.8805
242 1 -1.1104 0.77021 8.36893 12.1903
244 1 -1.1104 0.87924 8.32848 9.50655
246 1 -1.1104 0.864195 5.5268 12.4056
247 1 -1.1104 0.917601 11.159 12.2408
250 2 2.2208 5.14963 9.72866 8.13245
251 1 -1.1104 0.958366 5.46883 9.69093
252 1 -1.1104 1.01084 11.1481 9.51313
255 1 -1.1104 3.45376 8.49158 12.4045
256 2 2.2208 2.32361 6.95717 8.16869
257 2 2.2208 2.35563 12.5857 8.07627
258 1 -1.1104 3.79338 8.23517 9.64776
259 2 2.2208 2.35937 9.71553 10.8886
260 1 -1.1104 3.67447 5.58623 12.3999
261 1 -1.1104 3.63172 11.1536 12.422
262 1 -1.1104 3.8114 5.44741 9.53136
263 1 -1.1104 3.86927 11.0961 9.41771
253 1 -1.1104 6.48497 5.52828 9.47789
249 1 -1.1104 6.42227 11.0945 12.4247
243 1 -1.1104 6.321 8.29197 12.3654
245 1 -1.1104 6.57953 8.38088 9.45897
254 1 -1.1104 6.52923 11.353 9.49091
105 2 2.2208 13.477 7.00072 2.61096
314 1 -1.1104 9.22176 16.9543 9.46487
101 1 -1.1104 9.41859 11.3522 6.68965
266 1 -1.1104 11.9753 5.49732 6.76908
49 2 2.2208 13.5458 1.29025 2.57369
230 2 2.2208 13.603 -1.39995 11.0117
90 1 -1.1104 12.0323 11.2935 6.82353
248 1 -1.1104 6.46938 5.56921 12.3002
267 1 -1.1104 9.30132 8.54414 6.67925
264 1 -1.1104 9.21036 11.1125 9.57422
268 1 -1.1104 9.42697 5.57659 9.62808
270 1 -1.1104 9.38289 11.2046 12.4353
271 1 -1.1104 9.15196 5.60425 12.2502
272 2 2.2208 7.85902 9.8133 10.9772
273 1 -1.1104 9.35315 8.4651 9.53191
274 2 2.2208 7.87461 12.7244 8.10797
275 2 2.2208 7.92733 6.99024 8.18557
276 2 2.2208 10.7637 7.03842 10.8972
277 2 2.2208 10.7185 12.5036 10.9357
278 1 -1.1104 12.2099 8.59254 12.2452
279 1 -1.1104 12.1499 8.2975 9.48828
280 1 -1.1104 12.0035 5.75918 12.4393
281 1 -1.1104 12.0465 11.3589 12.382
282 2 2.2208 10.6735 9.76889 8.13188
283 1 -1.1104 12.0291 5.56528 9.57661
284 1 -1.1104 11.9591 11.0152 9.59191
285 1 -1.1104 9.32477 8.37291 12.3265
329 1 -1.1104 12.2043 19.6365 12.3834
327 1 -1.1104 12.081 19.4432 9.60178
322 1 -1.1104 9.20012 14.1144 12.4896
331 2 2.2208 10.5902 18.1667 10.9019
108 1 -1.1104 0.940925 13.8148 6.77646
126 1 -1.1104 3.63321 19.5636 6.65076
289 1 -1.1104 6.45489 16.8515 9.60298
292 1 -1.1104 0.896075 16.6742 9.534
291 1 -1.1104 0.852631 19.5699 9.36491
310 2 2.2208 2.26927 15.2923 10.9316
309 2 2.2208 2.19408 20.9549 10.8744
308 1 -1.1104 3.70335 16.7243 12.2939
307 1 -1.1104 0.806492 16.6687 12.2925
305 1 -1.1104 3.71274 13.9314 9.38107
304 1 -1.1104 3.68378 16.8265 9.63544
303 2 2.2208 2.18035 18.1061 8.04766
301 1 -1.1104 3.63902 19.6105 9.48373
300 2 2.2208 5.1107 18.0533 11.0867
299 1 -1.1104 0.808708 13.9259 12.3548
298 1 -1.1104 0.724976 19.6249 12.2113
295 2 2.2208 4.99898 15.3799 8.15323
294 1 -1.1104 0.880663 13.8634 9.47935
287 1 -1.1104 3.77697 14.0774 12.2739
293 2 2.2208 5.15787 20.8814 8.02956
286 1 -1.1104 3.73825 19.5633 12.3553
297 1 -1.1104 6.50969 13.8931 12.3413
296 1 -1.1104 6.46694 19.5502 12.2558
154 1 -1.1104 9.32665 14.0472 6.68842
325 2 2.2208 10.7031 15.3959 8.07535
326 1 -1.1104 12.0684 16.8215 12.1875
320 2 2.2208 7.85065 18.0971 8.04647
306 1 -1.1104 6.47094 16.6033 12.3672
321 1 -1.1104 9.22171 19.5774 12.3088
328 1 -1.1104 12.0947 13.8528 9.54398
318 1 -1.1104 9.23241 19.6484 9.5251
323 1 -1.1104 12.1729 16.643 9.45528
333 2 2.2208 13.4557 15.3501 10.9154
145 1 -1.1104 12.363 19.4604 6.81084
149 1 -1.1104 12.0641 16.6658 6.76247
143 1 -1.1104 12.321 13.9996 6.74094
330 1 -1.1104 12.1249 14.1084 12.3144
50 2 2.2208 13.5462 -1.60012 5.29806
383 2 2.2208 2.2438 4.23843 -0.140086
393 2 2.2208 4.99955 6.93268 -0.300861
392 2 2.2208 13.5756 4.14413 -0.316351
381 2 2.2208 5.07521 1.50708 -0.178663
395 2 2.2208 5.14837 12.471 -0.405784
398 2 2.2208 10.7343 6.98447 -0.303909
387 2 2.2208 10.7596 1.40162 -0.282548
368 2 2.2208 2.21136 18.2302 13.7536
406 2 2.2208 5.0894 1.33751 16.5207
407 1 -1.1104 0.901538 -2.86907 18.0326
408 1 -1.1104 0.987203 2.6687 17.875
411 1 -1.1104 0.861897 -2.81151 15.3661
413 1 -1.1104 0.853907 2.71786 15.1373
419 1 -1.1104 0.924798 -0.0209386 17.9269
421 2 2.2208 5.04616 -1.19876 19.3647
422 2 2.2208 5.06246 4.1476 19.4408
423 1 -1.1104 0.953574 -0.11659 15.0399
427 1 -1.1104 3.72541 -2.7358 17.9658
428 1 -1.1104 3.7412 2.86295 18.0872
429 2 2.2208 2.24956 1.40394 19.3661
430 1 -1.1104 3.58755 -2.82041 15.0067
432 1 -1.1104 3.64864 2.65906 15.2101
434 2 2.2208 2.34445 -1.36939 16.5049
435 2 2.2208 2.30806 4.06669 16.5996
436 1 -1.1104 3.56447 0.00665636 17.9745
437 1 -1.1104 3.72986 -0.0952218 15.1172
409 1 -1.1104 6.46949 -2.79524 18.0027
425 1 -1.1104 6.45911 -0.182444 15.0879
640 2 2.2208 2.24678 -4.24137 24.9982
415 1 -1.1104 6.53212 -2.82278 15.1223
417 1 -1.1104 6.53932 2.69253 15.253
414 1 -1.1104 0.60634 2.81933 20.6669
431 1 -1.1104 3.56499 -2.73378 20.8609
420 1 -1.1104 6.40683 0.0173099 17.9533
410 1 -1.1104 6.45407 2.71353 18.0196
438 1 -1.1104 3.60547 0.119275 20.7764
424 1 -1.1104 0.71459 0.02511 20.7271
412 1 -1.1104 0.815248 -2.77852 20.7307
440 2 2.2208 5.0593 -4.26101 16.5398
449 2 2.2208 10.6394 1.34207 16.5045
450 1 -1.1104 12.047 -2.76966 17.772
451 1 -1.1104 12.0885 2.76233 17.8557
452 1 -1.1104 12.1588 -2.83008 15.055
454 1 -1.1104 12.0417 2.70516 15.1641
456 1 -1.1104 12.0251 -0.123357 17.9435
457 2 2.2208 10.6191 -1.47082 19.4387
458 2 2.2208 10.6379 4.16964 19.3619
459 1 -1.1104 12.1917 -0.0596222 15.1214
461 1 -1.1104 9.10569 -2.82812 17.9937
462 1 -1.1104 9.34205 2.67884 17.9937
463 2 2.2208 7.85642 1.26956 19.2983
464 1 -1.1104 9.31358 -2.82911 15.0756
466 1 -1.1104 9.24516 2.86051 15.2017
468 2 2.2208 7.88657 -1.38506 16.5468
469 2 2.2208 7.85565 4.19248 16.6314
470 1 -1.1104 9.21913 -0.0999307 17.9071
471 1 -1.1104 9.37261 -0.0342817 15.1158
669 2 2.2208 7.94036 -4.18501 24.8768
472 1 -1.1104 9.24981 -0.0744504 20.7194
446 2 2.2208 13.4402 4.08865 22.2723
605 2 2.2208 13.4551 18.171 24.8274
578 2 2.2208 13.4765 1.32201 19.365
352 2 2.2208 5.06774 4.14848 13.716
354 2 2.2208 13.4902 -4.24966 13.7232
355 2 2.2208 7.86473 1.36187 13.7566
479 2 2.2208 13.5551 18.2206 19.2995
579 2 2.2208 13.5054 4.05543 16.4238
482 2 2.2208 4.99776 6.99546 16.4236
483 2 2.2208 5.03012 12.6451 16.3897
484 1 -1.1104 0.838763 8.10454 17.8045
486 1 -1.1104 0.774719 8.27256 15.0076
490 1 -1.1104 0.980206 5.41397 17.9584
491 1 -1.1104 0.821604 11.0633 17.9116
494 2 2.2208 5.04949 9.69912 19.3878
495 1 -1.1104 0.897533 5.48396 15.1673
497 1 -1.1104 0.682131 11.2176 15.1349
503 1 -1.1104 3.80028 8.30859 17.8076
504 2 2.2208 2.27767 6.84509 19.2511
505 2 2.2208 2.29363 12.4492 19.2831
506 1 -1.1104 3.52869 8.33702 15.0879
508 2 2.2208 2.18119 9.66566 16.5728
509 1 -1.1104 3.72565 5.57169 17.8384
510 1 -1.1104 3.5643 11.0754 18.0428
511 1 -1.1104 3.71227 5.43353 15.0232
513 1 -1.1104 3.56974 11.3288 15.2276
485 1 -1.1104 6.54729 8.33124 17.91
493 1 -1.1104 6.59787 10.9952 17.899
492 1 -1.1104 6.60363 5.50207 18.0181
496 1 -1.1104 0.891807 5.54271 20.6255
502 1 -1.1104 6.53466 11.2164 20.6893
488 1 -1.1104 6.4529 8.44049 15.1191
501 1 -1.1104 6.32463 11.1585 15.101
477 2 2.2208 13.5024 -1.45331 16.5778
364 2 2.2208 10.6858 9.83433 13.7524
517 2 2.2208 13.4706 12.5592 19.4664
499 1 -1.1104 6.3132 5.51076 15.076
518 2 2.2208 10.6892 6.87007 16.6121
519 2 2.2208 10.6884 12.6085 16.6235
520 1 -1.1104 12.1715 8.30514 17.8905
521 1 -1.1104 12.059 8.5101 15.0358
523 1 -1.1104 12.1048 5.49414 18.0149
524 1 -1.1104 12.1691 11.1401 17.9205
525 2 2.2208 10.6833 9.62676 19.2808
526 1 -1.1104 12.0624 5.56525 15.1806
528 1 -1.1104 12.066 11.1543 15.1957
530 1 -1.1104 9.42497 8.35507 17.8675
531 2 2.2208 8.00672 6.93607 19.3041
532 2 2.2208 7.88783 12.4941 19.2341
533 1 -1.1104 9.27698 8.28599 15.2358
535 2 2.2208 7.92597 9.6961 16.5409
536 1 -1.1104 9.32355 5.53168 17.8612
537 1 -1.1104 9.38749 11.0263 17.8904
538 1 -1.1104 9.28773 5.44975 15.0567
540 1 -1.1104 9.19766 11.1375 15.0776
376 2 2.2208 7.80644 18.1613 13.7247
635 1 -1.1104 12.1447 19.5963 26.4469
534 1 -1.1104 9.39875 8.21954 20.7213
529 1 -1.1104 12.0788 11.1032 20.7738
539 1 -1.1104 9.20281 5.42053 20.7401
542 2 2.2208 13.51 6.86917 19.3449
732 1 -1.1104 6.49091 16.8212 26.129
441 2 2.2208 2.32949 -4.1073 19.4683
700 2 2.2208 7.85007 20.9182 22.0728
545 2 2.2208 4.9652 18.2648 16.4554
546 1 -1.1104 0.888218 13.8988 18.0384
547 1 -1.1104 0.78957 19.5948 17.8167
550 1 -1.1104 0.733282 13.9747 15.2247
552 1 -1.1104 0.820282 19.6279 15.1129
558 1 -1.1104 0.860877 16.7353 17.8089
560 2 2.2208 5.04505 15.3671 19.4215
561 2 2.2208 5.02779 21.0933 19.2483
562 1 -1.1104 0.901381 16.7772 15.1883
566 1 -1.1104 3.59692 13.9811 17.9097
567 1 -1.1104 3.63259 19.6885 17.9455
568 2 2.2208 2.22821 18.2675 19.2868
569 1 -1.1104 3.59818 14.1175 15.0764
571 1 -1.1104 3.74948 19.7138 14.9463
573 2 2.2208 2.08764 15.3651 16.6046
574 2 2.2208 2.38995 21.0517 16.3846
575 1 -1.1104 3.50215 16.7162 17.8618
576 1 -1.1104 3.62397 17.0029 15.0506
554 1 -1.1104 6.47461 14.1097 15.0465
577 1 -1.1104 3.73331 16.7768 20.74
572 1 -1.1104 3.75113 19.7271 20.6722
555 1 -1.1104 6.48612 14.0226 20.6767
548 1 -1.1104 6.38737 13.8831 17.7516
564 1 -1.1104 6.31382 16.695 15.2664
556 1 -1.1104 6.40229 19.5367 14.9869
559 1 -1.1104 6.3598 16.7502 18.013
549 1 -1.1104 6.43996 19.5248 17.9
747 1 -1.1104 6.37601 16.7173 23.4136
551 1 -1.1104 0.991358 14.117 20.6027
570 1 -1.1104 3.7773 13.8157 20.6062
670 1 -1.1104 6.46943 19.6317 26.3254
349 2 2.2208 2.27038 1.36032 13.6973
672 2 2.2208 13.5088 1.38926 25.0033
599 1 -1.1104 9.27321 19.5525 20.8001
581 2 2.2208 10.7135 18.2902 16.4694
582 1 -1.1104 12.0784 14.0597 17.8426
583 1 -1.1104 12.2133 19.536 17.8366
584 1 -1.1104 12.1607 13.8817 15.1819
586 1 -1.1104 11.9718 19.7379 15.1357
588 1 -1.1104 12.1764 16.8852 17.8078
589 2 2.2208 10.7294 15.4385 19.3588
590 2 2.2208 10.6937 20.9308 19.3635
591 1 -1.1104 12.1599 16.8977 15.046
593 1 -1.1104 9.23549 14.004 17.9288
594 1 -1.1104 9.43303 19.476 17.9358
595 2 2.2208 7.84467 18.1064 19.3383
596 1 -1.1104 9.3732 14.0891 15.2234
598 1 -1.1104 9.28501 19.3882 15.1597
600 2 2.2208 7.75814 15.4619 16.5988
601 2 2.2208 7.89646 20.892 16.5831
602 1 -1.1104 9.28319 16.8475 18.0418
603 1 -1.1104 9.13191 16.7268 15.1829
587 1 -1.1104 12.0756 19.5038 20.5864
480 2 2.2208 13.4829 15.4015 16.5696
543 2 2.2208 13.5086 9.83399 16.6184
372 2 2.2208 10.6834 21.0952 13.6295
433 1 -1.1104 3.49452 2.77925 20.8444
607 2 2.2208 10.5506 18.1393 22.1561
609 2 2.2208 5.10171 1.40366 22.1142
610 1 -1.1104 0.826527 -2.89425 23.4836
611 1 -1.1104 0.862024 2.78125 23.4776
614 1 -1.1104 0.978254 -2.81747 26.4122
615 1 -1.1104 0.941134 2.7358 26.4564
618 1 -1.1104 0.719546 -0.0484658 23.5961
620 2 2.2208 5.08956 -1.53774 24.9853
621 2 2.2208 5.03813 4.14572 24.962
622 1 -1.1104 0.942666 -0.0192396 26.349
624 1 -1.1104 3.67039 -2.94256 23.6428
625 1 -1.1104 3.66594 2.71638 23.5334
626 2 2.2208 2.25731 1.36916 24.9683
627 1 -1.1104 3.58452 -2.88205 26.4639
628 1 -1.1104 3.59374 2.81354 26.4504
629 2 2.2208 2.19627 -1.48348 22.1963
630 2 2.2208 2.27317 4.21267 22.0953
631 1 -1.1104 3.64875 -0.150942 23.5405
632 1 -1.1104 3.59714 -0.134965 26.2658
418 1 -1.1104 6.40286 2.73006 20.6662
617 1 -1.1104 6.51703 2.79281 26.3499
426 1 -1.1104 6.47555 0.101811 20.7132
613 1 -1.1104 6.54878 2.78125 23.5751
585 1 -1.1104 12.0589 13.9911 20.6521
416 1 -1.1104 6.39695 -2.86175 20.9253
699 2 2.2208 7.74172 15.3067 22.084
612 1 -1.1104 6.55795 -2.77655 23.6112
623 1 -1.1104 6.3957 -0.133599 26.264
619 1 -1.1104 6.43074 -0.0998325 23.4484
701 1 -1.1104 9.17845 16.787 23.5427
453 1 -1.1104 12.1588 -2.79019 20.7345
467 1 -1.1104 9.26768 2.67884 20.8018
465 1 -1.1104 9.39395 -2.95913 20.7414
455 1 -1.1104 12.1548 2.88281 20.6945
460 1 -1.1104 12.0905 0.0256662 20.5804
616 1 -1.1104 6.51967 -2.88994 26.4427
645 2 2.2208 10.703 1.37141 22.2171
646 1 -1.1104 12.1493 -2.98498 23.6384
647 1 -1.1104 11.9816 2.85462 23.7163
648 1 -1.1104 12.1432 -2.76349 26.3108
649 1 -1.1104 12.2244 2.79015 26.3796
650 1 -1.1104 12.2043 0.040797 23.4357
651 2 2.2208 10.735 -1.42104 24.9818
652 2 2.2208 10.6183 4.05382 25.1767
653 1 -1.1104 11.926 0.0171231 26.3482
654 1 -1.1104 9.42482 -2.65877 23.5223
655 1 -1.1104 9.39327 2.73264 23.5021
656 2 2.2208 7.84624 1.34607 25.0999
657 1 -1.1104 9.16307 -2.79915 26.3812
658 1 -1.1104 9.31433 2.6901 26.4924
659 2 2.2208 7.82213 -1.43218 22.124
660 2 2.2208 7.86221 4.00754 22.1277
661 1 -1.1104 9.26107 0.0253817 23.7032
662 1 -1.1104 9.22003 -0.124621 26.4134
671 2 2.2208 13.5325 -1.43695 22.0277
580 2 2.2208 13.3831 15.339 22.1199
673 1 -1.1104 9.19193 13.9983 26.301
487 1 -1.1104 0.964902 8.40922 20.5939
512 1 -1.1104 3.68 5.64582 20.8194
489 1 -1.1104 6.61167 8.3737 20.6689
514 1 -1.1104 3.67121 11.0406 20.7238
498 1 -1.1104 0.86308 11.1411 20.6454
507 1 -1.1104 3.70355 8.32205 20.7309
674 2 2.2208 5.05893 6.92514 22.0705
675 2 2.2208 5.05881 12.4551 22.057
676 1 -1.1104 0.835002 8.35217 23.328
678 1 -1.1104 0.815771 8.27066 26.3006
680 1 -1.1104 0.846416 5.51578 23.4512
681 1 -1.1104 0.975872 11.0342 23.5544
684 2 2.2208 5.09307 9.62947 24.8245
685 1 -1.1104 0.890925 5.46919 26.4489
686 1 -1.1104 0.809426 11.1418 26.237
689 1 -1.1104 3.72467 8.25041 23.4982
690 2 2.2208 2.22569 6.80275 24.9271
691 2 2.2208 2.35173 12.439 24.8708
692 1 -1.1104 3.56731 8.37414 26.1456
693 2 2.2208 2.25209 9.71428 22.0478
694 1 -1.1104 3.59127 5.45781 23.633
695 1 -1.1104 3.70259 11.1414 23.4685
696 1 -1.1104 3.63351 5.58152 26.4044
697 1 -1.1104 3.61393 11.0052 26.3355
683 1 -1.1104 6.45072 11.0406 23.5027
679 1 -1.1104 6.50334 8.29153 26.4308
687 1 -1.1104 6.40824 5.52189 26.2618
688 1 -1.1104 6.30622 11.1312 26.2097
682 1 -1.1104 6.42131 5.55596 23.3902
500 1 -1.1104 6.49345 5.56015 20.6125
728 2 2.2208 13.415 6.95338 24.9716
541 1 -1.1104 9.2142 11.0664 20.5796
527 1 -1.1104 12.0796 5.69359 20.758
704 1 -1.1104 9.27536 16.7166 26.4047
478 2 2.2208 13.537 21.0791 16.3483
677 1 -1.1104 6.52614 8.31716 23.4618
522 1 -1.1104 12.0925 8.37056 20.734
705 1 -1.1104 9.22976 11.257 26.4227
706 1 -1.1104 9.20547 5.61195 26.3062
707 1 -1.1104 9.12412 11.2615 23.5756
708 1 -1.1104 9.19197 5.6113 23.5919
709 2 2.2208 7.90939 9.79589 22.1315
710 1 -1.1104 9.3769 8.45462 26.4124
711 2 2.2208 7.8058 12.5626 25.0539
712 2 2.2208 7.78997 6.95357 24.9677
713 2 2.2208 10.6461 6.96931 22.2434
714 2 2.2208 10.5927 12.5198 22.1666
715 1 -1.1104 12.184 8.4177 23.5625
716 1 -1.1104 12.1309 8.40995 26.3316
717 1 -1.1104 12.0857 5.50257 23.5987
718 1 -1.1104 11.9179 11.1773 23.543
719 2 2.2208 10.6178 9.80142 24.983
720 1 -1.1104 12.1243 5.56196 26.4862
721 1 -1.1104 12.0503 11.2375 26.403
722 1 -1.1104 9.3701 8.44801 23.4754
663 1 -1.1104 11.9874 16.7866 26.3541
634 1 -1.1104 12.1162 13.9313 26.3678
565 1 -1.1104 6.51895 16.8089 20.7902
563 1 -1.1104 0.792454 16.9446 20.685
553 1 -1.1104 0.879759 19.6877 20.6792
557 1 -1.1104 6.38564 19.579 20.5224
730 1 -1.1104 6.3232 13.9748 26.4245
739 1 -1.1104 6.36793 13.7512 23.5785
748 1 -1.1104 0.832586 16.7919 23.2108
746 1 -1.1104 3.58796 13.9212 26.3037
745 1 -1.1104 3.74071 16.7335 26.188
744 2 2.2208 2.28364 18.1989 24.8867
750 2 2.2208 2.20227 21.0436 22.1489
749 1 -1.1104 3.55362 16.6983 23.4586
727 2 2.2208 2.1883 15.3828 22.0897
729 1 -1.1104 3.54189 19.5703 23.3987
731 1 -1.1104 3.63252 13.8842 23.5001
733 1 -1.1104 0.831117 19.548 26.4372
734 1 -1.1104 0.974821 16.841 26.1208
735 1 -1.1104 0.935895 14.0436 26.3805
737 2 2.2208 5.00616 20.9651 24.9243
738 2 2.2208 5.05467 15.3354 24.8781
740 1 -1.1104 0.839297 19.6293 23.6378
741 1 -1.1104 0.852488 14.0174 23.4414
742 2 2.2208 5.07354 18.2306 22.0518
743 1 -1.1104 3.59891 19.6608 26.2728
736 1 -1.1104 6.42705 19.5805 23.4623
608 1 -1.1104 11.9768 13.8987 23.5724
638 2 2.2208 10.639 15.3884 24.8687
606 2 2.2208 13.4274 20.9575 22.114
633 1 -1.1104 12.0356 19.6346 23.5776
664 1 -1.1104 9.20513 14.0775 23.4593
597 1 -1.1104 9.26315 13.9034 20.7063
698 1 -1.1104 9.35636 19.6245 26.2426
665 1 -1.1104 9.39352 19.5494 23.6205
636 1 -1.1104 11.9509 16.7391 23.4944
667 2 2.2208 7.90163 18.3067 24.8719
641 2 2.2208 10.7376 21.0581 24.9925
604 1 -1.1104 9.18928 16.7714 20.8172
592 1 -1.1104 11.9164 16.8435 20.6595
726 2 2.2208 13.4429 12.4473 24.9512
445 2 2.2208 13.4296 9.75251 22.0582
348 2 2.2208 4.99344 -1.57113 13.6966
475 2 2.2208 7.85058 -4.29729 19.3316
399 2 2.2208 7.88022 9.66971 27.859
639 2 2.2208 4.98802 -4.19194 22.1521
668 2 2.2208 10.8123 -4.20066 22.1453
474 2 2.2208 10.7163 -4.09476 16.5258
380 2 2.2208 13.5219 18.2351 13.7945
370 2 2.2208 13.4477 1.40247 13.7326
359 2 2.2208 2.21102 6.92615 13.6971
356 2 2.2208 10.6744 -1.45835 13.6881
373 2 2.2208 10.6885 15.3795 13.7996
402 2 2.2208 13.5247 9.84127 27.8207
362 2 2.2208 13.4812 12.5989 13.759
357 2 2.2208 10.6887 4.1945 13.7141
404 2 2.2208 4.99382 18.0379 27.5901
360 2 2.2208 5.01784 9.73351 13.792
366 2 2.2208 13.5736 7.1009 13.693
365 2 2.2208 7.83034 12.6496 13.7722
371 2 2.2208 4.98706 15.4431 13.6387
394 2 2.2208 2.32189 9.66155 27.6427
403 2 2.2208 2.27272 15.3773 27.6772
363 2 2.2208 7.92982 6.99792 13.7125
400 2 2.2208 10.6793 12.713 27.8263
388 2 2.2208 7.86052 -1.46299 27.8602
751 2 2.2208 5.02236 23.7357 5.25687
752 2 2.2208 5.00958 29.3435 5.297
753 1 -1.1104 1.00595 25.291 1.02389
754 1 -1.1104 0.815396 25.2669 3.90776
755 1 -1.1104 0.683981 22.3218 1.20438
756 1 -1.1104 0.918618 27.9311 1.17293
757 2 2.2208 5.01316 26.5939 2.46825
758 1 -1.1104 0.885496 22.4057 3.88334
759 1 -1.1104 0.965456 28.06 3.97032
760 1 -1.1104 3.68736 25.205 1.1482
761 2 2.2208 2.233 23.8628 2.47165
762 2 2.2208 2.19846 29.4778 2.33669
763 1 -1.1104 3.62758 25.073 3.90678
764 2 2.2208 2.26901 26.5995 5.28408
765 1 -1.1104 3.47119 22.3455 1.03852
766 1 -1.1104 3.67351 27.9677 0.874445
767 1 -1.1104 3.7645 22.3058 3.88671
768 1 -1.1104 3.69203 27.9696 3.81653
898 1 -1.1104 3.61103 25.1427 6.5477
777 1 -1.1104 6.48564 27.9847 4.08262
892 1 -1.1104 0.834576 25.3021 6.75445
773 1 -1.1104 6.50772 25.1404 3.82943
775 1 -1.1104 6.40759 27.9808 1.14379
776 1 -1.1104 6.46552 22.4482 3.78399
897 1 -1.1104 6.4982 27.9546 6.84652
894 1 -1.1104 0.810838 22.3313 6.72172
900 1 -1.1104 3.56308 27.887 6.6365
1675 1 -1.1104 0.665642 47.6262 12.164
1672 1 -1.1104 6.34017 47.7199 6.74962
772 1 -1.1104 6.56865 25.0616 0.977001
774 1 -1.1104 6.35216 22.3186 0.99711
778 2 2.2208 10.8076 23.9288 5.25044
779 2 2.2208 10.5429 29.4969 5.22962
780 1 -1.1104 12.2397 25.1855 0.808288
781 1 -1.1104 12.0227 25.2749 3.83543
782 1 -1.1104 11.9685 22.4403 1.17216
783 1 -1.1104 12.0354 27.9745 1.08651
784 2 2.2208 10.6213 26.6598 2.5192
785 1 -1.1104 12.0825 22.5255 3.88242
786 1 -1.1104 12.056 28.0982 3.89774
787 1 -1.1104 9.4495 25.2777 1.10707
788 2 2.2208 7.85474 23.7688 2.40883
789 2 2.2208 7.82857 29.5016 2.39795
790 1 -1.1104 9.14266 25.2649 3.86624
791 2 2.2208 7.89135 26.6326 5.25896
792 1 -1.1104 9.08824 22.4095 0.89099
793 1 -1.1104 9.1891 28.0693 1.02054
794 1 -1.1104 9.33303 22.4581 3.69672
795 1 -1.1104 9.2315 28.0611 3.8097
927 1 -1.1104 12.0157 28.0199 6.60982
798 2 2.2208 13.5018 26.8065 5.26862
925 1 -1.1104 12.1916 25.144 6.74613
926 1 -1.1104 12.0947 22.416 6.72603
1050 2 2.2208 7.78219 40.6787 8.00636
797 2 2.2208 13.3019 29.4358 2.46621
799 2 2.2208 5.11198 34.9711 5.24434
800 1 -1.1104 0.828955 30.8612 0.905278
801 1 -1.1104 0.896621 36.3158 1.1095
803 1 -1.1104 0.911553 30.7823 3.68806
804 1 -1.1104 0.929036 36.2332 3.83569
806 1 -1.1104 0.894471 33.6149 0.950497
807 2 2.2208 5.14339 32.0962 2.47208
808 2 2.2208 5.06606 37.7924 2.62912
809 1 -1.1104 0.920486 33.429 3.92654
811 1 -1.1104 3.6152 30.7864 0.945725
812 1 -1.1104 3.60719 36.4434 1.1936
813 2 2.2208 2.28058 34.8547 2.48632
814 1 -1.1104 3.64908 30.7697 3.81596
815 1 -1.1104 3.5912 36.2648 3.97036
816 2 2.2208 2.32717 32.0581 5.23955
817 2 2.2208 2.19117 37.6478 5.33118
818 1 -1.1104 3.72452 33.6842 1.00536
819 1 -1.1104 3.75248 33.5592 3.8039
810 1 -1.1104 6.59771 33.6498 4.00416
825 1 -1.1104 6.42914 33.6933 1.11752
802 1 -1.1104 6.51508 36.5014 1.0652
823 1 -1.1104 6.45697 30.9931 1.08545
824 1 -1.1104 6.46752 30.871 3.90795
805 1 -1.1104 6.55096 36.4211 3.82634
957 1 -1.1104 3.66018 33.4142 6.59963
952 1 -1.1104 6.45723 36.3732 6.62425
953 1 -1.1104 0.922076 33.4405 6.65562
954 1 -1.1104 6.62228 33.4619 6.71164
1046 1 -1.1104 9.34433 39.3972 12.391
826 2 2.2208 10.7416 35.0834 5.28891
827 1 -1.1104 11.8413 30.8658 1.18441
828 1 -1.1104 12.1057 36.3895 1.10118
829 1 -1.1104 11.901 30.9783 3.90896
830 1 -1.1104 12.1223 36.5539 3.85491
831 1 -1.1104 11.8973 33.5547 1.04876
832 2 2.2208 10.5784 32.2783 2.57774
833 2 2.2208 10.5541 37.8773 2.47943
834 1 -1.1104 11.9845 33.6607 3.82048
835 1 -1.1104 9.1616 30.8255 1.03712
836 1 -1.1104 9.1573 36.5286 1.18961
837 2 2.2208 7.92424 35.0606 2.46874
838 1 -1.1104 9.19037 30.9561 3.7854
839 1 -1.1104 9.35853 36.5291 4.02362
840 2 2.2208 7.90449 32.2111 5.29024
841 2 2.2208 7.84952 37.7886 5.24917
842 1 -1.1104 9.17077 33.6368 1.07204
843 1 -1.1104 9.32098 33.8431 3.70099
984 1 -1.1104 12.0407 36.5638 6.63506
986 1 -1.1104 9.31989 30.7769 6.58452
983 1 -1.1104 12.044 30.9157 6.67242