ITEM: TIMESTEP
90000
ITEM: NUMBER OF ATOMS
17700
ITEM: BOX BOUNDS pp pp pp
-3.5538355817053402e-01 2.7695383558170263e+01
-4.3126132113483369e+00 3.3239261321135376e+02
-3.5614377877536846e-01 2.7696143778774555e+01
ITEM: ATOMS id type q x y z
1 2 2.2208 5.00958 1.35579 5.18018
2 1 -1.1104 0.853676 -2.90895 0.96948
3 1 -1.1104 0.780039 2.73442 0.983712
6 1 -1.1104 0.631401 -2.93311 3.67303
7 1 -1.1104 0.726649 2.62396 3.68434
10 1 -1.1104 0.743696 -0.198461 0.999329
12 2 2.2208 5.00899 -1.41142 2.42316
13 2 2.2208 5.00902 4.20812 2.417
14 1 -1.1104 1.00812 -0.126039 3.78667
16 1 -1.1104 3.57304 -2.78003 0.972031
17 1 -1.1104 3.71366 2.87338 1.00851
18 2 2.2208 2.19133 1.26288 2.43728
19 1 -1.1104 3.60509 -2.73183 3.82572
20 1 -1.1104 3.51247 2.89279 3.90311
21 2 2.2208 2.26945 -1.44669 5.25951
23 1 -1.1104 3.76337 0.000558566 1.17866
24 1 -1.1104 3.70346 0.0402203 3.96883
22 2 2.2208 2.1396 4.03363 5.29131
11 1 -1.1104 6.45892 -0.10382 1.04836
172 1 -1.1104 3.57477 -2.77683 6.61862
4 1 -1.1104 6.46399 -2.91223 1.08985
5 1 -1.1104 6.53576 2.75877 1.09628
171 1 -1.1104 6.35105 -0.199418 6.58207
174 1 -1.1104 3.48412 0.0843498 6.70652
173 1 -1.1104 3.39306 2.81546 6.75688
15 1 -1.1104 6.50244 -0.0309866 3.91839
8 1 -1.1104 6.51135 -2.88015 3.81832
232 2 2.2208 13.3117 9.7295 5.36894
168 1 -1.1104 6.45567 -2.93942 6.67887
170 1 -1.1104 0.724116 -0.121624 6.47885
166 1 -1.1104 0.779841 -2.71158 6.48818
345 2 2.2208 13.4264 20.8955 -0.313
9 1 -1.1104 6.35517 2.74695 3.74723
31 2 2.2208 10.575 1.3773 5.33199
32 1 -1.1104 11.926 -2.81655 1.12217
33 1 -1.1104 11.9565 2.98141 0.953461
34 1 -1.1104 11.9675 -2.69902 3.95693
35 1 -1.1104 12.0549 2.71992 3.92386
36 1 -1.1104 12.0791 0.107122 1.07904
37 2 2.2208 10.6672 -1.30496 2.50054
39 1 -1.1104 12.2601 0.00232174 3.77998
40 1 -1.1104 9.21355 -2.85729 1.06857
41 1 -1.1104 9.32629 2.8078 1.0857
42 2 2.2208 7.87058 1.29963 2.53396
43 1 -1.1104 9.10057 -2.98221 3.9638
44 1 -1.1104 9.15446 2.67634 3.9807
45 2 2.2208 7.77082 -1.52548 5.32723
46 2 2.2208 7.76762 4.08349 5.33233
47 1 -1.1104 9.28167 0.00784455 1.14892
48 1 -1.1104 9.42907 -0.0173922 4.04164
38 2 2.2208 10.5913 4.20631 2.60465
207 1 -1.1104 11.9626 -0.0290029 6.6172
8848 2 2.2208 7.91073 -4.31591 8.08319
233 2 2.2208 13.4169 4.20707 5.16648
8840 2 2.2208 5.01979 -4.18628 5.19613
50 2 2.2208 13.4595 -1.40488 5.25487
208 1 -1.1104 9.18451 -2.7738 6.7651
49 2 2.2208 13.4977 1.45127 2.56557
8842 2 2.2208 7.82186 -4.27805 2.44558
165 2 2.2208 13.4819 18.1454 2.43311
54 2 2.2208 5.02508 7.00855 5.30961
55 2 2.2208 5.13952 12.6207 5.36033
56 1 -1.1104 0.879345 8.45014 1.09224
58 1 -1.1104 0.829967 8.2722 3.83564
60 1 -1.1104 0.783074 5.64898 1.0526
61 1 -1.1104 0.808417 11.1511 1.11768
66 2 2.2208 5.14746 9.67996 2.45852
67 1 -1.1104 0.891348 5.45607 3.8742
68 1 -1.1104 0.943095 11.083 3.85927
71 1 -1.1104 3.66318 8.33833 1.0961
72 2 2.2208 2.26837 6.92095 2.46369
73 2 2.2208 2.26388 12.4892 2.41107
74 1 -1.1104 3.68607 8.25997 3.98562
75 2 2.2208 2.31204 9.76174 5.15589
76 1 -1.1104 3.52226 5.5422 1.02759
77 1 -1.1104 3.73849 10.9152 0.965135
79 1 -1.1104 3.66084 5.54736 3.74734
80 1 -1.1104 3.60542 11.0919 3.54305
69 1 -1.1104 6.35509 5.55968 3.88524
64 1 -1.1104 6.49966 11.0339 1.15423
59 1 -1.1104 6.50248 8.30346 3.81318
63 1 -1.1104 6.55018 5.53393 1.09202
238 1 -1.1104 3.68278 8.47794 6.62168
62 1 -1.1104 0.840004 11.0971 6.60681
234 1 -1.1104 0.934587 8.46048 6.49021
57 1 -1.1104 6.53497 8.22665 1.02658
70 1 -1.1104 6.45098 11.1963 3.87467
372 2 2.2208 7.78715 4.19818 -0.250928
236 1 -1.1104 0.713243 5.56167 6.58104
237 1 -1.1104 6.22757 5.46027 6.61851
239 1 -1.1104 3.55178 5.57935 6.61604
8839 2 2.2208 2.20886 -4.20306 2.28291
8850 2 2.2208 13.3759 -4.12103 8.13744
364 2 2.2208 5.18997 1.39884 -0.221575
84 2 2.2208 10.5451 6.94229 5.29469
85 2 2.2208 10.6611 12.5351 5.28803
86 1 -1.1104 12.1216 8.45479 1.05748
87 1 -1.1104 12.0714 8.45224 3.8898
88 1 -1.1104 11.9872 5.60645 1.08978
89 1 -1.1104 12.1878 11.1953 0.96411
91 2 2.2208 10.8041 9.74579 2.53622
92 1 -1.1104 11.9118 5.52948 3.87292
93 1 -1.1104 12.051 11.111 3.82493
94 1 -1.1104 9.33672 8.24346 1.17245
95 2 2.2208 7.85475 6.91933 2.46745
96 2 2.2208 7.91579 12.4527 2.51483
97 1 -1.1104 9.32647 8.32493 3.84197
98 2 2.2208 7.85643 9.76651 5.26168
99 1 -1.1104 9.20361 5.59164 1.02571
100 1 -1.1104 9.38036 11.1473 1.15811
102 1 -1.1104 9.11746 5.54448 3.99445
103 1 -1.1104 9.27164 11.0507 3.93116
266 1 -1.1104 12.0745 5.60341 6.62259
105 2 2.2208 13.5245 6.99578 2.48823
269 1 -1.1104 9.28239 5.53407 6.73499
333 2 2.2208 13.4361 15.3866 10.8774
104 2 2.2208 13.5443 12.441 2.45399
322 1 -1.1104 9.2889 14.0267 12.2655
321 1 -1.1104 9.33036 19.5126 12.3513
329 1 -1.1104 12.0933 19.5856 12.2938
330 1 -1.1104 11.9875 13.9125 12.3329
106 2 2.2208 5.04453 18.0609 5.26836
107 1 -1.1104 0.712929 13.8698 0.973365
109 1 -1.1104 0.981493 19.5261 1.01266
113 1 -1.1104 0.843736 14.0802 3.75555
114 1 -1.1104 0.790677 19.5897 3.8788
116 1 -1.1104 0.9584 16.5767 1.15477
119 2 2.2208 5.10222 15.2088 2.45512
120 2 2.2208 5.08584 21.0597 2.45447
121 1 -1.1104 1.09012 16.92 3.92796
123 1 -1.1104 3.56458 13.8009 0.953156
125 1 -1.1104 3.69608 19.5285 1.08107
127 2 2.2208 2.33487 18.1341 2.54829
128 1 -1.1104 3.71961 13.8177 3.89805
129 1 -1.1104 3.69959 19.5643 4.0297
130 2 2.2208 2.33782 15.3201 5.24361
131 2 2.2208 2.32073 20.9252 5.22197
132 1 -1.1104 3.82949 16.4449 0.986639
134 1 -1.1104 3.79047 16.6923 3.76717
122 1 -1.1104 6.48877 16.6723 3.84637
138 1 -1.1104 6.45919 19.6217 0.930198
140 1 -1.1104 6.57665 16.7108 1.14728
115 1 -1.1104 6.4966 13.8294 3.8797
110 1 -1.1104 6.51387 13.8923 1.14291
139 1 -1.1104 6.40159 19.471 3.91508
124 1 -1.1104 3.7225 13.9091 6.75263
8858 2 2.2208 5.02531 -4.18179 -0.400233
375 2 2.2208 2.33564 21.0039 -0.390818
149 1 -1.1104 12.0786 16.6648 6.55841
141 2 2.2208 10.7046 18.1708 5.35362
142 1 -1.1104 12.1674 14.0543 1.22679
144 1 -1.1104 12.0456 19.5132 1.07269
146 1 -1.1104 12.1951 13.7923 3.97916
147 1 -1.1104 12.0879 19.5078 3.80003
148 1 -1.1104 12.0571 16.8168 1.05709
150 2 2.2208 10.6409 15.4995 2.52914
151 2 2.2208 10.7432 20.8121 2.50447
152 1 -1.1104 12.0255 16.6178 3.78867
153 1 -1.1104 9.29744 14.0979 1.22146
155 1 -1.1104 9.2064 19.4614 1.03141
157 2 2.2208 7.73262 18.1725 2.52902
158 1 -1.1104 9.3441 14.017 3.95445
159 1 -1.1104 9.21642 19.4992 3.84375
160 2 2.2208 7.91455 15.3738 5.24291
161 2 2.2208 8.03477 20.9593 5.24094
162 1 -1.1104 9.38235 16.8184 1.09553
164 1 -1.1104 9.12235 16.734 3.84608
163 1 -1.1104 9.33051 16.8045 6.63497
143 1 -1.1104 12.0775 13.7637 6.72263
156 1 -1.1104 9.46652 19.5914 6.70102
204 2 2.2208 13.514 15.2928 5.18729
231 2 2.2208 13.5633 20.8844 5.17539
326 1 -1.1104 11.9211 16.7028 12.1579
167 1 -1.1104 0.6816 2.67784 6.62009
332 2 2.2208 13.4662 18.1572 8.13204
331 2 2.2208 10.6337 18.1638 10.8575
316 2 2.2208 7.94481 20.8356 10.9706
169 1 -1.1104 6.3586 2.65997 6.609
175 2 2.2208 4.95 1.26915 10.8365
176 1 -1.1104 0.789121 -2.83022 12.3026
177 1 -1.1104 0.724924 2.5481 12.282
180 1 -1.1104 0.778422 -2.98989 9.29705
181 1 -1.1104 0.71201 2.87173 9.43113
184 1 -1.1104 0.808432 -0.124389 12.1608
186 2 2.2208 5.00616 -1.55229 7.99754
187 2 2.2208 4.87505 4.12134 8.06799
188 1 -1.1104 0.795587 -0.0830035 9.40519
190 1 -1.1104 3.68157 -2.92979 12.1701
191 1 -1.1104 3.64298 2.69457 12.4078
192 2 2.2208 2.08883 1.38125 8.02792
193 1 -1.1104 3.57342 -2.93809 9.34025
194 1 -1.1104 3.41696 2.62798 9.66398
195 2 2.2208 2.27546 -1.56955 10.7783
196 2 2.2208 2.2258 4.19747 10.988
197 1 -1.1104 3.56095 -0.186787 12.1765
198 1 -1.1104 3.49576 -0.156611 9.29822
185 1 -1.1104 6.39718 0.00662399 12.1727
183 1 -1.1104 6.34321 2.85422 9.36936
189 1 -1.1104 6.50429 -0.144762 9.26017
178 1 -1.1104 6.61152 -2.92563 12.2972
182 1 -1.1104 6.53573 -2.86905 9.52229
324 2 2.2208 10.7325 20.9824 8.09192
206 1 -1.1104 12.057 2.77593 6.69341
205 1 -1.1104 12.014 -2.78844 6.72702
210 1 -1.1104 9.16154 -0.00504776 6.76861
209 1 -1.1104 9.21862 2.87255 6.67456
179 1 -1.1104 6.31576 2.73675 12.0811
211 2 2.2208 10.5754 1.31759 10.9664
212 1 -1.1104 12.161 -2.78081 12.4186
213 1 -1.1104 11.856 2.64495 12.4406
214 1 -1.1104 12.1354 -2.84612 9.57762
215 1 -1.1104 11.9617 2.48975 9.50082
216 1 -1.1104 11.984 -0.0723811 12.5062
217 2 2.2208 10.5872 -1.28805 7.95969
219 1 -1.1104 12.0679 -0.127124 9.5561
220 1 -1.1104 9.35313 -3.04732 12.2841
221 1 -1.1104 8.99142 2.84008 12.2959
222 2 2.2208 7.74583 1.39879 8.00799
223 1 -1.1104 9.37924 -2.98295 9.45905
224 1 -1.1104 9.14765 2.71642 9.49066
225 2 2.2208 7.91266 -1.5207 10.8309
227 1 -1.1104 9.15393 -0.101669 12.2865
228 1 -1.1104 9.39034 -0.0634127 9.49518
226 2 2.2208 7.78249 4.18845 10.7915
218 2 2.2208 10.6132 4.03836 8.03741
230 2 2.2208 13.4136 -1.54406 10.993
229 2 2.2208 13.3796 1.34223 8.04048
203 2 2.2208 13.315 4.03 10.9203
315 1 -1.1104 9.30694 16.7722 12.2221
328 1 -1.1104 12.1424 13.8963 9.62356
78 1 -1.1104 3.71158 11.1393 6.42879
235 1 -1.1104 6.53848 8.28695 6.72226
240 2 2.2208 5.10595 6.94545 10.9062
241 2 2.2208 4.98406 12.6365 10.8708
242 1 -1.1104 0.809658 8.23154 12.4313
244 1 -1.1104 0.796559 8.16232 9.43042
246 1 -1.1104 0.825385 5.42921 12.5647
247 1 -1.1104 0.921976 11.1907 12.335
250 2 2.2208 5.0701 9.69175 8.06374
251 1 -1.1104 0.85682 5.4985 9.61884
252 1 -1.1104 0.955277 10.9666 9.42758
255 1 -1.1104 3.63991 8.36379 12.2327
256 2 2.2208 2.22358 6.97599 8.02266
257 2 2.2208 2.32719 12.4646 8.11405
258 1 -1.1104 3.72055 8.20476 9.44645
259 2 2.2208 2.21421 9.72431 10.9427
260 1 -1.1104 3.62524 5.50863 12.3128
261 1 -1.1104 3.65367 11.1796 12.2464
262 1 -1.1104 3.60721 5.52066 9.47804
263 1 -1.1104 3.69918 11.2245 9.54076
248 1 -1.1104 6.41925 5.51061 12.2267
243 1 -1.1104 6.4553 8.31747 12.3051
249 1 -1.1104 6.4654 11.2624 12.3227
245 1 -1.1104 6.51499 8.3542 9.51954
320 2 2.2208 7.97409 18.0413 8.13351
267 1 -1.1104 9.13937 8.34704 6.60072
65 1 -1.1104 6.5477 11.2121 6.62298
254 1 -1.1104 6.5528 11.1001 9.54216
202 2 2.2208 13.4014 6.89214 8.07817
101 1 -1.1104 9.26278 11.2514 6.73711
90 1 -1.1104 11.8805 10.9835 6.52652
265 1 -1.1104 12.1322 8.23791 6.70554
253 1 -1.1104 6.40756 5.56115 9.50885
264 1 -1.1104 9.27497 11.0931 9.49964
268 1 -1.1104 9.23929 5.42865 9.4852
270 1 -1.1104 9.29956 11.1669 12.2928
271 1 -1.1104 9.19557 5.54997 12.3169
272 2 2.2208 7.91147 9.77775 10.9692
273 1 -1.1104 9.21212 8.24625 9.61356
274 2 2.2208 7.93515 12.5726 8.14026
275 2 2.2208 7.82259 6.89699 8.15372
276 2 2.2208 10.5715 6.87044 10.9525
277 2 2.2208 10.7101 12.5097 10.8237
278 1 -1.1104 11.9641 8.28527 12.6161
279 1 -1.1104 11.9486 8.22979 9.58337
280 1 -1.1104 11.9779 5.54779 12.3217
281 1 -1.1104 12.1194 11 12.3096
282 2 2.2208 10.6328 9.57999 7.99907
283 1 -1.1104 11.9104 5.18189 9.50402
284 1 -1.1104 12.0189 10.9345 9.39392
285 1 -1.1104 9.29413 8.38603 12.3351
52 2 2.2208 13.4168 9.60176 10.9288
53 2 2.2208 13.324 12.4905 8.11602
154 1 -1.1104 9.26551 14.1212 6.70494
302 1 -1.1104 0.944058 19.5362 6.59746
126 1 -1.1104 3.79745 19.5184 6.7413
117 1 -1.1104 1.09171 16.698 6.67379
108 1 -1.1104 0.788797 13.8378 6.67251
111 1 -1.1104 6.56708 13.9552 6.65791
290 1 -1.1104 6.4259 13.9466 9.47962
118 1 -1.1104 6.52707 16.6215 6.73724
133 1 -1.1104 3.75622 16.7094 6.70097
296 1 -1.1104 6.65935 19.5135 12.3564
289 1 -1.1104 6.55984 16.6258 9.59744
297 1 -1.1104 6.50462 14.0355 12.2832
288 1 -1.1104 6.56305 19.3785 9.70545
305 1 -1.1104 3.78589 14.1167 9.45747
300 2 2.2208 5.10137 18.0308 11.0046
299 1 -1.1104 0.775326 14.066 12.2217
298 1 -1.1104 1.10252 19.5749 12.2868
292 1 -1.1104 0.848474 16.5188 9.70556
294 1 -1.1104 0.984055 13.8579 9.49256
287 1 -1.1104 3.60076 14.0242 12.3096
291 1 -1.1104 0.868629 19.3875 9.39618
303 2 2.2208 2.31393 18.1696 8.16777
304 1 -1.1104 3.74579 16.7944 9.41745
286 1 -1.1104 3.87015 19.625 12.3875
301 1 -1.1104 3.73393 19.4267 9.58578
310 2 2.2208 2.31177 15.2376 10.8122
293 2 2.2208 5.17721 20.8908 8.13596
309 2 2.2208 2.47498 20.8905 11.0412
308 1 -1.1104 3.66597 16.6723 12.4351
307 1 -1.1104 0.861646 16.8122 12.2629
295 2 2.2208 5.10258 15.4045 8.01249
306 1 -1.1104 6.51831 16.8731 12.3937
8844 2 2.2208 13.3853 -4.26304 2.60243
318 1 -1.1104 9.26516 19.5322 9.47377
317 2 2.2208 7.82017 15.4024 10.9533
112 1 -1.1104 6.51869 19.4356 6.78593
314 1 -1.1104 9.43107 16.6916 9.45478
319 1 -1.1104 9.40771 13.8448 9.33442
323 1 -1.1104 12.2214 16.7227 9.38229
145 1 -1.1104 12.2661 19.5353 6.60576
327 1 -1.1104 12.0148 19.4971 9.49468
325 2 2.2208 10.7382 15.3758 8.00302
349 2 2.2208 7.84053 20.9955 -0.333292
386 2 2.2208 10.7157 12.5523 -0.185418
370 2 2.2208 7.91819 -1.4969 -0.414839
378 2 2.2208 13.3599 4.16229 -0.416676
377 2 2.2208 13.4841 -1.51992 -0.14705
387 2 2.2208 13.5425 9.63096 -0.330526
347 2 2.2208 7.8897 15.3797 -0.284001
344 2 2.2208 13.5263 15.3417 -0.273317
369 2 2.2208 10.6735 1.39713 -0.363543
358 2 2.2208 5.30914 20.9492 13.6898
351 2 2.2208 2.24151 6.85932 13.8201
355 2 2.2208 10.5528 9.63795 13.8244
353 2 2.2208 2.22122 12.596 13.836
343 2 2.2208 7.7991 1.33726 13.6638
381 2 2.2208 4.92488 12.4714 -0.497478
384 2 2.2208 10.6137 6.84238 -0.310638
359 2 2.2208 5.05597 15.4736 13.765
361 2 2.2208 10.6667 15.3325 13.7274
338 2 2.2208 4.93385 -1.48294 13.6422
340 2 2.2208 13.422 1.2867 13.9281
363 2 2.2208 13.3308 18.1334 13.7589
350 2 2.2208 10.5513 4.14213 13.763
346 2 2.2208 10.5972 -1.55052 13.7658
356 2 2.2208 7.81473 12.4793 13.6827
373 2 2.2208 2.15588 15.296 -0.318783
366 2 2.2208 2.16223 4.14562 -0.317779
357 2 2.2208 2.20146 18.159 13.7831
348 2 2.2208 10.6489 18.1163 -0.308754
388 2 2.2208 4.89944 1.3411 16.4833
389 1 -1.1104 0.917626 -2.80224 17.9254
390 1 -1.1104 0.711077 2.69058 17.889
393 1 -1.1104 0.742544 -3.05091 15.1405
395 1 -1.1104 0.677242 2.67668 15.1316
401 1 -1.1104 0.858249 -0.0461269 17.8935
403 2 2.2208 4.94297 -1.49351 19.3529
404 2 2.2208 4.99161 4.01917 19.3021
405 1 -1.1104 0.919753 -0.135846 15.1455
409 1 -1.1104 3.6415 -2.88937 18.0163
410 1 -1.1104 3.57098 2.63057 18.0352
411 2 2.2208 2.21633 1.32635 19.3192
412 1 -1.1104 3.48787 -2.87355 14.9251
414 1 -1.1104 3.50045 2.72819 15.1932
416 2 2.2208 2.22283 -1.5638 16.5399
417 2 2.2208 2.03098 4.05484 16.6499
418 1 -1.1104 3.5692 -0.18626 18.0228
419 1 -1.1104 3.64908 -0.216343 15.1309
391 1 -1.1104 6.53529 -2.96769 17.8746
407 1 -1.1104 6.30433 -0.0323963 14.9462
397 1 -1.1104 6.2791 -2.92931 14.9213
402 1 -1.1104 6.31901 -0.187982 17.7839
420 1 -1.1104 3.55001 -0.0848132 20.668
413 1 -1.1104 3.57435 -2.83808 20.7973
394 1 -1.1104 0.824029 -3.05476 20.6458
392 1 -1.1104 6.36807 2.74725 17.8795
399 1 -1.1104 6.31507 2.59997 15.0252
408 1 -1.1104 6.33655 -0.178771 20.7827
396 1 -1.1104 0.870896 2.70636 20.7848
8944 2 2.2208 10.7355 -4.30232 16.5725
431 2 2.2208 10.6369 1.26352 16.3988
432 1 -1.1104 12.127 -2.92772 18.1738
433 1 -1.1104 11.8931 2.79537 17.9958
434 1 -1.1104 11.9228 -2.91985 15.2651
436 1 -1.1104 11.9711 2.73693 15.2176
438 1 -1.1104 11.8512 -0.0371611 17.9546
439 2 2.2208 10.5636 -1.59928 19.459
440 2 2.2208 10.5527 3.98785 19.3064
441 1 -1.1104 11.9667 -0.0772492 15.173
443 1 -1.1104 9.4794 -2.96396 17.9942
444 1 -1.1104 9.22051 2.59898 17.9088
445 2 2.2208 7.75314 1.27774 19.2945
446 1 -1.1104 9.14069 -2.81291 15.0587
448 1 -1.1104 9.06326 2.64641 15.1202
450 2 2.2208 7.71908 -1.48373 16.4793
452 1 -1.1104 9.068 -0.120142 18.0162
453 1 -1.1104 9.15002 -0.145002 15.1014
451 2 2.2208 7.78865 4.08192 16.4418
459 2 2.2208 13.3957 -1.54969 16.5324
422 2 2.2208 13.5914 9.8248 22.1151
428 2 2.2208 13.2156 1.2809 19.3451
429 2 2.2208 13.3667 4.19827 16.553
430 2 2.2208 13.5503 15.4498 22.1707
398 1 -1.1104 6.47603 -3.09591 20.6761
447 1 -1.1104 9.2022 -2.99994 20.6466
435 1 -1.1104 12.0417 -3.05199 20.842
442 1 -1.1104 11.9447 -0.210173 20.7813
454 1 -1.1104 9.18198 -0.108848 20.7837
460 2 2.2208 13.4769 21.0054 16.4816
464 2 2.2208 4.90093 6.89958 16.6052
465 2 2.2208 5.0523 12.6646 16.3792
466 1 -1.1104 0.708744 8.41487 17.7215
468 1 -1.1104 0.78666 8.20446 15.1331
472 1 -1.1104 0.619906 5.59262 18.2376
473 1 -1.1104 0.800605 11.1393 17.8204
476 2 2.2208 4.91732 9.8295 19.3527
477 1 -1.1104 0.780683 5.44616 15.273
479 1 -1.1104 1.01308 11.0343 15.0536
485 1 -1.1104 3.5355 8.39445 18.045
486 2 2.2208 2.1452 6.8436 19.3306
487 2 2.2208 2.28661 12.559 19.2543
488 1 -1.1104 3.67182 8.27461 15.1342
490 2 2.2208 2.18391 9.6119 16.4759
491 1 -1.1104 3.49186 5.43554 17.8616
492 1 -1.1104 3.67094 11.2557 17.9025
493 1 -1.1104 3.58684 5.41565 15.2276
495 1 -1.1104 3.77741 11.1544 15.0435
470 1 -1.1104 6.50584 8.40221 14.9603
469 1 -1.1104 0.838074 8.48149 20.6304
474 1 -1.1104 6.28658 5.53635 17.8725
483 1 -1.1104 6.55753 11.1621 15.1552
481 1 -1.1104 6.43655 5.48255 14.9825
467 1 -1.1104 6.32625 8.35393 17.8727
475 1 -1.1104 6.46497 11.2507 17.9891
489 1 -1.1104 3.77428 8.25733 20.7575
484 1 -1.1104 6.46541 11.2848 20.6331
471 1 -1.1104 6.52449 8.29851 20.7086
8904 2 2.2208 7.69163 -4.31191 24.9707
560 1 -1.1104 11.9871 16.7138 26.2597
651 2 2.2208 13.4696 6.88274 19.2535
461 2 2.2208 13.4729 20.8756 22.0257
500 2 2.2208 10.6447 6.97968 16.5755
501 2 2.2208 10.6333 12.6142 16.4147
502 1 -1.1104 11.9916 8.56781 17.8185
503 1 -1.1104 12.1652 8.49372 15.2499
505 1 -1.1104 11.9612 5.65302 17.8963
506 1 -1.1104 12.0049 11.186 17.9703
507 2 2.2208 10.6991 9.82143 19.4272
508 1 -1.1104 12.1157 5.70314 15.1979
510 1 -1.1104 12.0218 11.253 15.0839
512 1 -1.1104 9.23139 8.4019 17.8489
513 2 2.2208 7.81876 6.95811 19.1764
514 2 2.2208 7.74115 12.5948 19.2192
515 1 -1.1104 9.26864 8.20071 15.1113
517 2 2.2208 7.82783 9.7849 16.6273
518 1 -1.1104 9.13807 5.4657 17.8961
519 1 -1.1104 9.30616 11.2835 17.9128
520 1 -1.1104 9.19347 5.44779 15.0889
522 1 -1.1104 9.25931 11.0886 15.1095
504 1 -1.1104 11.9176 8.34101 20.7003
426 2 2.2208 13.4618 9.93179 16.6202
539 1 -1.1104 6.53399 19.5357 20.708
521 1 -1.1104 9.23603 5.33345 20.6679
509 1 -1.1104 12.0618 5.26744 20.7099
650 2 2.2208 13.3846 12.6673 19.3312
618 2 2.2208 13.4813 18.2245 19.179
714 1 -1.1104 6.51855 16.6356 26.484
581 1 -1.1104 9.19241 19.4749 20.8888
561 1 -1.1104 9.27344 13.8594 23.6366
527 2 2.2208 5.07861 18.2041 16.3014
528 1 -1.1104 0.854364 13.9352 18.0479
529 1 -1.1104 0.736945 19.5977 17.7508
532 1 -1.1104 0.763282 13.9165 15.1057
534 1 -1.1104 0.90333 19.4939 15.1614
540 1 -1.1104 0.627403 16.6993 17.7961
542 2 2.2208 5.00146 15.36 19.3179
543 2 2.2208 5.04215 20.8613 19.3173
544 1 -1.1104 0.748987 16.8068 15.0294
548 1 -1.1104 3.65859 13.9945 17.9282
549 1 -1.1104 3.64779 19.5844 17.8105
550 2 2.2208 2.16187 18.1935 19.151
551 1 -1.1104 3.57333 14.125 15.069
553 1 -1.1104 3.71929 19.5885 15.0319
555 2 2.2208 2.08023 15.3358 16.4951
556 2 2.2208 2.26598 21.0831 16.3409
557 1 -1.1104 3.53533 16.818 17.8308
558 1 -1.1104 3.55645 16.8845 15.1149
545 1 -1.1104 0.894275 16.773 20.697
531 1 -1.1104 6.38597 19.6486 17.816
541 1 -1.1104 6.38234 16.8294 17.9059
546 1 -1.1104 6.47601 16.7194 15.1098
552 1 -1.1104 3.62285 13.9514 20.5738
536 1 -1.1104 6.45853 14.0409 14.9253
587 2 2.2208 7.79415 18.0704 24.891
463 1 -1.1104 12.0389 14.0513 23.4879
619 2 2.2208 13.5658 15.2538 16.4904
574 1 -1.1104 12.1258 16.6703 20.7314
538 1 -1.1104 6.60512 19.4329 15.0218
530 1 -1.1104 6.4562 14.0907 17.8017
616 2 2.2208 7.80298 20.9035 22.0934
563 2 2.2208 10.6706 18.1511 16.432
564 1 -1.1104 12.1594 13.9779 17.9657
565 1 -1.1104 12.0558 19.56 17.7056
566 1 -1.1104 12.0536 14.0453 15.1471
568 1 -1.1104 12.09 19.614 15.0254
570 1 -1.1104 12.1868 16.8012 17.8661
571 2 2.2208 10.8158 15.3898 19.3665
572 2 2.2208 10.5693 20.9539 19.306
573 1 -1.1104 11.9458 16.7844 15.0211
575 1 -1.1104 9.27214 13.9816 17.8704
576 1 -1.1104 9.14488 19.5897 17.8881
577 2 2.2208 7.80582 18.1052 19.2944
578 1 -1.1104 9.17601 13.9909 15.0698
580 1 -1.1104 9.26964 19.4672 15.0842
582 2 2.2208 7.91705 15.3314 16.4328
583 2 2.2208 7.79424 20.9516 16.4638
584 1 -1.1104 9.43597 16.7216 17.9189
585 1 -1.1104 9.37389 16.6754 15.1086
586 1 -1.1104 9.41109 16.7645 20.582
497 1 -1.1104 12.2074 19.4595 23.368
415 1 -1.1104 3.65697 2.82984 20.8253
406 1 -1.1104 0.854306 -0.20437 20.6434
8905 2 2.2208 10.5708 -4.41266 22.1347
615 2 2.2208 7.89299 15.3366 22.2386
354 2 2.2208 7.87484 6.98999 13.7403
400 1 -1.1104 6.32873 2.66076 20.7477
591 2 2.2208 5.02717 1.30622 22.1433
592 1 -1.1104 0.730384 -2.97956 23.4067
593 1 -1.1104 0.53638 2.51164 23.4663
596 1 -1.1104 0.844494 -2.92697 26.3135
597 1 -1.1104 0.909738 2.75955 26.2545
600 1 -1.1104 0.839289 -0.169968 23.5032
602 2 2.2208 4.96531 -1.44949 24.9692
603 2 2.2208 5.05132 4.15335 24.9052
604 1 -1.1104 0.686588 -0.123191 26.3145
606 1 -1.1104 3.49455 -2.96368 23.5893
607 1 -1.1104 3.47608 2.66734 23.5346
608 2 2.2208 2.22823 1.27488 24.8516
609 1 -1.1104 3.71457 -2.75747 26.2904
610 1 -1.1104 3.59223 2.61779 26.3755
611 2 2.2208 2.15845 -1.58475 22.1974
613 1 -1.1104 3.64482 -0.0977758 23.5077
614 1 -1.1104 3.66078 -0.14621 26.3918
612 2 2.2208 2.15112 4.13996 22.1789
595 1 -1.1104 6.23551 2.66002 23.6403
599 1 -1.1104 6.36574 2.75266 26.353
594 1 -1.1104 6.40903 -2.99412 23.5097
598 1 -1.1104 6.42763 -2.73247 26.3477
605 1 -1.1104 6.42847 -0.0876027 26.277
601 1 -1.1104 6.57356 -0.0574072 23.4711
499 1 -1.1104 12.1655 19.4436 26.2715
709 1 -1.1104 6.36439 13.9722 23.6109
8906 2 2.2208 13.3391 -4.38781 24.9139
620 1 -1.1104 9.24646 16.5916 26.3136
423 2 2.2208 13.3328 4.05458 22.1142
654 2 2.2208 13.3329 1.23533 25.0251
437 1 -1.1104 11.8064 2.54395 20.7861
449 1 -1.1104 9.03443 2.6367 20.6031
653 2 2.2208 13.4002 -1.44697 22.2
627 2 2.2208 10.5105 1.1938 22.2288
628 1 -1.1104 12.1005 -2.94147 23.6036
629 1 -1.1104 11.6939 2.72241 23.4968
630 1 -1.1104 12.012 -2.85553 26.5014
631 1 -1.1104 12.0156 2.69497 26.2673
632 1 -1.1104 12.0779 -0.166365 23.5019
633 2 2.2208 10.7021 -1.65113 25.0416
634 2 2.2208 10.6228 4.20939 24.924
635 1 -1.1104 11.9918 -0.0920863 26.3348
636 1 -1.1104 9.2226 -2.94294 23.5257
637 1 -1.1104 9.02464 2.54239 23.4675
638 2 2.2208 7.76023 1.18321 24.9191
639 1 -1.1104 9.36875 -2.95724 26.3116
640 1 -1.1104 9.2328 2.76549 26.3587
641 2 2.2208 7.78923 -1.61265 22.1532
643 1 -1.1104 9.24361 -0.178523 23.6241
644 1 -1.1104 9.21516 -0.00629882 26.3571
642 2 2.2208 7.81922 4.03071 22.0704
589 1 -1.1104 9.32041 13.8401 26.495
617 1 -1.1104 9.34935 16.6749 23.5173
525 2 2.2208 10.7195 15.1669 24.9812
579 1 -1.1104 9.25564 13.8976 20.7646
496 1 -1.1104 3.71348 11.265 20.7492
526 2 2.2208 10.5944 20.8576 24.8825
562 1 -1.1104 9.26235 19.4775 23.6044
478 1 -1.1104 0.663868 5.46858 20.8895
482 1 -1.1104 6.41086 5.45945 20.5904
480 1 -1.1104 0.895266 11.2483 20.565
494 1 -1.1104 3.4972 5.57138 20.6631
656 2 2.2208 5.09503 6.83184 22.058
657 2 2.2208 5.18247 12.4832 22.1528
658 1 -1.1104 0.835195 8.15955 23.4783
660 1 -1.1104 0.828562 8.29658 26.2623
662 1 -1.1104 0.885835 5.43685 23.5275
663 1 -1.1104 0.821264 10.8634 23.3954
666 2 2.2208 5.07975 9.71928 24.8874
667 1 -1.1104 0.712715 5.43048 26.2958
668 1 -1.1104 0.676025 11.1148 26.2538
671 1 -1.1104 3.67749 8.30098 23.6333
672 2 2.2208 2.21796 6.84386 24.987
673 2 2.2208 2.28927 12.5025 24.9604
674 1 -1.1104 3.6839 8.29386 26.2254
675 2 2.2208 2.45695 9.72926 22.1035
676 1 -1.1104 3.62804 5.47642 23.5258
677 1 -1.1104 3.6811 11.1222 23.4683
678 1 -1.1104 3.65349 5.51255 26.386
679 1 -1.1104 3.56987 11.0779 26.2705
665 1 -1.1104 6.59014 11.0889 23.5557
669 1 -1.1104 6.52415 5.53683 26.2757
664 1 -1.1104 6.40321 5.44517 23.453
569 1 -1.1104 11.9419 19.4437 20.5162
516 1 -1.1104 9.26617 8.14082 20.772
710 2 2.2208 13.5848 6.91797 24.9059
659 1 -1.1104 6.41193 8.28464 23.4586
661 1 -1.1104 6.44078 8.28351 26.4838
511 1 -1.1104 12.0996 11.2495 20.82
523 1 -1.1104 9.15404 11.0676 20.702
670 1 -1.1104 6.48874 11.1051 26.2751
687 1 -1.1104 9.21152 11.111 26.3427
688 1 -1.1104 9.25746 5.55016 26.2662
689 1 -1.1104 9.3073 11.0302 23.612
690 1 -1.1104 9.28832 5.47795 23.5262
691 2 2.2208 7.94571 9.66499 22.1064
692 1 -1.1104 9.37447 8.41833 26.4798
693 2 2.2208 7.79403 12.5469 25.0242
694 2 2.2208 7.83781 6.94623 24.9153
695 2 2.2208 10.6739 6.89055 22.0685
696 2 2.2208 10.6221 12.6294 22.229
697 1 -1.1104 12.0587 8.28041 23.4818
698 1 -1.1104 12.2122 8.20293 26.2003
699 1 -1.1104 12.1249 5.4513 23.5358
700 1 -1.1104 12.129 11.1524 23.5097
701 2 2.2208 10.7026 9.71274 24.9449
702 1 -1.1104 12.1343 5.48492 26.2654
703 1 -1.1104 12.1257 10.9714 26.3175
704 1 -1.1104 9.20775 8.17843 23.6727
708 2 2.2208 13.5486 12.4404 24.9314
554 1 -1.1104 3.5873 19.5503 20.5398
680 1 -1.1104 6.49306 16.7438 23.6079
718 1 -1.1104 6.44625 19.5753 23.4316
588 1 -1.1104 6.39254 19.3488 26.2489
533 1 -1.1104 0.898605 13.9377 20.7653
535 1 -1.1104 0.797324 19.6437 20.5753
559 1 -1.1104 3.56603 16.841 20.6758
547 1 -1.1104 6.5286 16.7401 20.8212
712 1 -1.1104 6.38606 13.8412 26.2962
537 1 -1.1104 6.41254 14.1278 20.8584
720 2 2.2208 5.02169 15.2901 24.948
719 2 2.2208 5.09987 21.0391 24.8926
647 2 2.2208 2.25083 15.2521 22.088
649 2 2.2208 2.3891 20.8475 22.1727
652 1 -1.1104 3.71637 16.6619 23.5101
655 1 -1.1104 0.948598 16.6009 23.3664
681 1 -1.1104 3.70176 13.8998 26.2436
682 1 -1.1104 3.64621 16.6083 26.2857
683 2 2.2208 2.26199 18.0916 24.9474
686 1 -1.1104 3.55565 19.457 26.2565
705 2 2.2208 5.04885 18.1634 22.1424
706 1 -1.1104 0.881836 13.859 23.5312
707 1 -1.1104 0.837142 19.287 23.4358
711 1 -1.1104 3.60089 19.4681 23.4703
713 1 -1.1104 3.70743 13.8539 23.4944
715 1 -1.1104 0.927265 19.46 26.3131
716 1 -1.1104 0.910818 16.6631 26.2939
717 1 -1.1104 0.900633 13.8347 26.4627
567 1 -1.1104 12.1427 14.0083 20.6239
455 2 2.2208 13.529 18.113 24.969
524 1 -1.1104 12.1301 16.7506 23.5093
498 1 -1.1104 12.1002 13.838 26.428
590 1 -1.1104 9.24871 19.6989 26.361
462 2 2.2208 10.7841 18.1878 22.141
379 2 2.2208 5.04091 6.91706 27.7165
352 2 2.2208 5.1126 9.72735 13.6243
365 2 2.2208 2.27823 -1.50105 27.73
374 2 2.2208 5.03127 18.1308 27.7051
362 2 2.2208 7.973 18.0263 13.6661
376 2 2.2208 13.391 12.4498 13.6538
339 2 2.2208 2.14522 1.21525 13.7129
385 2 2.2208 7.88595 9.68771 27.7673
380 2 2.2208 2.23882 9.62854 27.5673
360 2 2.2208 10.7639 20.9435 13.6437
336 2 2.2208 13.4959 7.04204 13.8173
341 2 2.2208 4.94988 4.17139 13.7165
721 2 2.2208 5.1341 23.6625 5.33241
722 2 2.2208 5.27111 29.4465 5.3196
723 1 -1.1104 1.13255 25.1387 1.06336
724 1 -1.1104 0.887254 25.1233 3.86226
725 1 -1.1104 0.892284 22.4025 1.1023
726 1 -1.1104 1.01719 27.975 1.11803
727 2 2.2208 5.15271 26.5085 2.51142
728 1 -1.1104 0.968302 22.5115 3.88668
729 1 -1.1104 0.877357 27.9177 3.8768
730 1 -1.1104 3.774 25.0512 1.0945
731 2 2.2208 2.37182 23.809 2.49239
732 2 2.2208 2.43921 29.3887 2.40717
733 1 -1.1104 3.74934 25.1883 3.8987
734 2 2.2208 2.22891 26.6331 5.28693
735 1 -1.1104 3.76765 22.3413 0.859835
736 1 -1.1104 3.74092 27.8823 1.06375
737 1 -1.1104 3.67997 22.4562 3.76168
738 1 -1.1104 3.84698 27.9852 3.83281
745 1 -1.1104 6.60247 28.0168 0.802617
863 1 -1.1104 6.44835 25.0536 6.77885
742 1 -1.1104 6.42914 25.1748 0.836727
744 1 -1.1104 6.49965 22.379 1.03017
743 1 -1.1104 6.51473 25.0484 3.82153
869 1 -1.1104 3.90069 22.2432 6.78347
867 1 -1.1104 6.53644 27.8985 6.58322
747 1 -1.1104 6.70043 27.8604 3.72198
1453 1 -1.1104 9.42874 47.6042 1.09711
1030 2 2.2208 13.5022 37.7323 5.3379
746 1 -1.1104 6.59091 22.1724 3.83047
748 2 2.2208 10.7672 23.7624 5.19166
749 2 2.2208 10.9048 29.3725 5.16966
750 1 -1.1104 12.1092 25.2857 0.924105
751 1 -1.1104 12.244 25.2098 3.78641
752 1 -1.1104 12.1174 22.403 0.996338
753 1 -1.1104 12.1485 28.0177 0.954272
754 2 2.2208 10.79 26.5486 2.3155
755 1 -1.1104 12.0914 22.3029 3.7821
756 1 -1.1104 12.234 27.9499 3.98454
757 1 -1.1104 9.32935 25.2099 0.937226
758 2 2.2208 7.94279 23.6101 2.41641
759 2 2.2208 8.09527 29.4204 2.30101
760 1 -1.1104 9.41615 25.1293 3.84971
761 2 2.2208 7.9537 26.5131 5.19038
762 1 -1.1104 9.37636 22.2626 1.09035
763 1 -1.1104 9.28442 28.0506 0.921489
764 1 -1.1104 9.33177 22.2724 3.75216
765 1 -1.1104 9.45512 27.8767 3.59927
896 1 -1.1104 12.1412 22.4701 6.69452
952 2 2.2208 7.80994 32.1236 -0.448142
766 2 2.2208 13.5237 23.8034 2.29348
900 1 -1.1104 9.44534 27.755 6.58924
767 2 2.2208 13.5392 29.4258 2.5556
1633 1 -1.1104 12.2451 47.4645 12.3069
899 1 -1.1104 9.30937 22.2534 6.61864
895 1 -1.1104 12.1925 25.1597 6.55557
898 1 -1.1104 9.28386 24.9446 6.5573
1394 2 2.2208 13.6233 37.8662 -0.33627
768 2 2.2208 13.5712 26.5193 5.15429
792 2 2.2208 -0.425887 37.8066 2.28964
769 2 2.2208 5.19546 34.9093 5.1531
770 1 -1.1104 0.860618 30.7383 1.07028
771 1 -1.1104 0.964013 36.4009 1.04864
773 1 -1.1104 0.992205 30.7051 3.88241
774 1 -1.1104 1.02496 36.2731 3.84282
776 1 -1.1104 1.00007 33.3947 1.12507
777 2 2.2208 5.1158 32.1273 2.42922
778 2 2.2208 5.23235 37.7616 2.37667
779 1 -1.1104 0.992632 33.5709 3.77817
781 1 -1.1104 3.85917 30.6339 0.938895
782 1 -1.1104 3.73235 36.4383 0.913074
783 2 2.2208 2.34773 34.9337 2.32083
784 1 -1.1104 3.75348 30.7875 3.79192
785 1 -1.1104 3.88208 36.4304 3.68832
786 2 2.2208 2.35165 32.1088 5.14766
787 2 2.2208 2.42085 37.7269 5.20279
788 1 -1.1104 3.82398 33.5306 0.944143
789 1 -1.1104 3.81014 33.5731 3.7662
775 1 -1.1104 6.60471 36.3364 3.74113
794 1 -1.1104 6.61802 30.5896 3.81259
780 1 -1.1104 6.60453 33.5141 3.69627
793 1 -1.1104 6.50954 30.8329 1.09036
795 1 -1.1104 6.51976 33.5979 1.04334
926 1 -1.1104 3.78228 36.4008 6.62604
10180 2 2.2208 -0.337364 37.7376 7.98179
1007 1 -1.1104 9.50988 44.7849 9.42033
922 1 -1.1104 6.50395 36.3241 6.45874
923 1 -1.1104 1.06405 33.5007 6.59401
1025 1 -1.1104 9.21413 44.7648 6.62863
1008 1 -1.1104 9.16937 39.1098 9.31511
1031 2 2.2208 13.6447 32.2159 5.48195
772 1 -1.1104 6.66064 36.5477 0.973735
740 2 2.2208 -0.59502 29.3455 5.16498
10179 2 2.2208 -0.416394 40.5449 5.19291
796 2 2.2208 10.6696 34.8615 5.17412
797 1 -1.1104 12.2062 30.9188 1.01943
798 1 -1.1104 12.086 36.305 0.989241
799 1 -1.1104 12.3701 30.8024 3.82542
800 1 -1.1104 12.1148 36.295 3.7623
801 1 -1.1104 12.239 33.7005 0.939913
802 2 2.2208 10.9134 32.252 2.49018
803 2 2.2208 10.744 37.6561 2.53773
804 1 -1.1104 12.1972 33.5243 3.87949
805 1 -1.1104 9.4419 30.7443 1.0423