ITEM: TIMESTEP
100000
ITEM: NUMBER OF ATOMS
17732
ITEM: BOX BOUNDS pp pp pp
-3.6455222485078859e-01 2.7704552224851465e+01
-4.3458404577522129e+00 3.3242584045775340e+02
-3.6889708361635237e-01 2.7708897083616598e+01
ITEM: ATOMS id type q x y z
1 2 2.2208 5.34577 1.20665 5.43717
2 1 -1.1104 1.18594 -2.8529 1.04213
3 1 -1.1104 1.20336 2.72455 1.08892
6 1 -1.1104 1.1361 -2.84143 3.9377
7 1 -1.1104 1.24736 2.63726 3.93723
10 1 -1.1104 1.14514 0.0890662 1.11571
12 2 2.2208 5.40029 -1.60749 2.56796
13 2 2.2208 5.3896 4.14599 2.58511
14 1 -1.1104 1.1117 -0.176271 3.86302
16 1 -1.1104 3.95712 -2.90333 1.22959
17 1 -1.1104 3.98246 2.74986 1.16485
18 2 2.2208 2.65998 1.36863 2.53809
19 1 -1.1104 3.99624 -3.16952 3.93916
20 1 -1.1104 3.95656 2.59508 3.9922
21 2 2.2208 2.47731 -1.54191 5.34926
22 2 2.2208 2.49797 4.00705 5.38479
23 1 -1.1104 3.8874 -0.11584 1.22141
24 1 -1.1104 3.90671 -0.19388 4.04195
27 2 2.2208 -0.175191 4.06883 2.52782
232 2 2.2208 11.0495 -4.40412 10.83
26 2 2.2208 -0.230794 1.29514 5.28873
331 2 2.2208 11.0372 18.2535 10.9765
231 2 2.2208 8.21089 -4.42668 7.99485
326 1 -1.1104 12.303 16.846 12.4405
25 2 2.2208 -0.128433 -1.48203 2.37496
393 2 2.2208 5.33244 6.80373 -0.346412
8 1 -1.1104 6.76861 -2.96455 4.04247
11 1 -1.1104 6.68766 -0.373853 1.24074
15 1 -1.1104 6.69619 -0.0921656 3.96257
4 1 -1.1104 6.62973 -3.13079 1.17982
9 1 -1.1104 6.75702 2.76967 3.9602
5 1 -1.1104 6.75292 2.6948 1.22692
31 2 2.2208 10.9661 1.25999 5.23423
32 1 -1.1104 12.4567 -2.87604 1.09358
33 1 -1.1104 12.4054 2.6479 1.07625
34 1 -1.1104 12.4909 -2.95275 4.0242
35 1 -1.1104 12.4379 2.65174 3.75125
36 1 -1.1104 12.3193 -0.134896 1.14572
37 2 2.2208 11.0484 -1.6532 2.5446
39 1 -1.1104 12.3405 -0.0457072 4.04737
40 1 -1.1104 9.62431 -2.79469 1.08162
41 1 -1.1104 9.57107 2.50324 1.31632
42 2 2.2208 8.12329 1.19124 2.60228
43 1 -1.1104 9.59572 -2.97431 3.75919
44 1 -1.1104 9.57001 2.73864 3.89702
45 2 2.2208 8.17617 -1.53755 5.29361
46 2 2.2208 8.20663 4.11093 5.21347
47 1 -1.1104 9.42048 -0.059903 1.09646
48 1 -1.1104 9.65073 -0.291957 3.97573
38 2 2.2208 11.0158 3.99313 2.48256
169 1 -1.1104 6.96199 2.75078 6.86619
399 2 2.2208 8.22864 9.49909 -0.308211
104 2 2.2208 13.8921 12.5954 2.48407
52 2 2.2208 10.8788 -4.38609 5.27787
111 1 -1.1104 6.92662 13.9027 6.59978
54 2 2.2208 5.39342 7.05537 5.33607
55 2 2.2208 5.49198 12.5538 5.28315
56 1 -1.1104 1.35886 8.18309 1.09252
58 1 -1.1104 1.17288 8.31124 3.90515
60 1 -1.1104 1.15079 5.51673 1.17978
61 1 -1.1104 1.35307 10.9961 1.31082
66 2 2.2208 5.47838 9.70724 2.54791
67 1 -1.1104 1.08453 5.36848 3.91102
68 1 -1.1104 1.34238 11.2984 4.09781
71 1 -1.1104 4.1993 8.1919 1.10489
72 2 2.2208 2.53885 6.83043 2.60131
73 2 2.2208 2.77148 12.483 2.6615
74 1 -1.1104 3.95145 8.33698 4.16683
75 2 2.2208 2.66404 9.75178 5.36606
76 1 -1.1104 3.89456 5.50148 1.14482
77 1 -1.1104 4.15367 11.1343 1.03574
79 1 -1.1104 3.90519 5.53371 3.98102
80 1 -1.1104 4.21497 11.1927 3.99679
81 2 2.2208 -0.260667 6.85573 5.33181
83 2 2.2208 -0.139643 12.5628 5.35429
234 1 -1.1104 1.16757 8.16886 6.89095
386 2 2.2208 -0.276828 1.34752 -0.279225
82 2 2.2208 -0.129151 9.75038 2.6553
400 2 2.2208 10.9645 12.4524 -0.311382
78 1 -1.1104 3.95614 11.1239 6.81493
330 1 -1.1104 12.4268 14.0025 12.3839
394 2 2.2208 2.61642 9.74209 -0.227043
57 1 -1.1104 6.84753 8.13057 1.13006
59 1 -1.1104 6.76531 8.41906 3.8791
64 1 -1.1104 6.96369 11.0393 1.06553
63 1 -1.1104 6.66954 5.56094 1.18433
69 1 -1.1104 6.81683 5.45439 3.94367
70 1 -1.1104 6.79371 11.1809 3.83911
84 2 2.2208 11.0138 6.89219 5.33101
85 2 2.2208 11.0943 12.5496 5.3463
86 1 -1.1104 12.2348 8.3022 1.04292
87 1 -1.1104 12.2501 8.36061 3.95098
88 1 -1.1104 12.2428 5.38963 1.14414
89 1 -1.1104 12.3534 11.114 1.08155
91 2 2.2208 10.9506 9.71394 2.48998
92 1 -1.1104 12.3225 5.3711 3.86186
93 1 -1.1104 12.41 11.0183 3.89809
94 1 -1.1104 9.52536 8.15403 1.30971
95 2 2.2208 8.09747 6.73035 2.54838
96 2 2.2208 8.17783 12.5179 2.44169
97 1 -1.1104 9.42587 8.24513 3.97666
98 2 2.2208 8.15996 9.8167 5.26894
99 1 -1.1104 9.46079 5.31363 1.08801
100 1 -1.1104 9.66472 11.1135 1.12984
102 1 -1.1104 9.66306 5.44415 3.96222
103 1 -1.1104 9.60529 11.3111 3.89315
390 2 2.2208 11.0477 -4.31244 -0.264196
90 1 -1.1104 12.3217 11.2436 6.7865
266 1 -1.1104 12.4783 5.47675 6.65694
389 2 2.2208 8.16886 4.20426 -0.263015
404 2 2.2208 5.4141 18.1001 -0.390565
379 2 2.2208 8.13336 20.8378 -0.316803
135 2 2.2208 -0.120768 15.279 2.4795
136 2 2.2208 -0.206369 20.8737 2.4316
106 2 2.2208 5.47812 18.0902 5.28543
107 1 -1.1104 1.3322 13.9086 1.16763
109 1 -1.1104 1.21865 19.3946 1.09744
113 1 -1.1104 1.0748 13.8191 3.90038
114 1 -1.1104 1.16093 19.3575 3.82266
116 1 -1.1104 1.23582 16.5069 1.00412
119 2 2.2208 5.40195 15.3714 2.49516
120 2 2.2208 5.43796 20.887 2.53358
121 1 -1.1104 1.2942 16.5093 3.83196
123 1 -1.1104 4.11718 13.9001 1.11736
125 1 -1.1104 4.02013 19.3402 1.07032
127 2 2.2208 2.61391 18.0085 2.44292
128 1 -1.1104 3.90074 14.0032 3.94115
129 1 -1.1104 4.01858 19.5579 3.95283
130 2 2.2208 2.60846 15.2699 5.44204
131 2 2.2208 2.60687 20.8357 5.26575
132 1 -1.1104 4.11311 16.8121 1.01612
134 1 -1.1104 4.09228 16.7213 3.87364
137 2 2.2208 -0.249978 18.1753 5.38479
395 2 2.2208 5.43018 12.5077 -0.399535
126 1 -1.1104 4.16703 19.4788 6.84452
405 2 2.2208 2.64704 20.9343 -0.424966
381 2 2.2208 5.27739 1.23117 -0.181164
383 2 2.2208 2.61389 4.03075 -0.268007
163 1 -1.1104 9.69734 16.6093 6.73169
139 1 -1.1104 6.90265 19.6738 3.99489
140 1 -1.1104 6.7693 16.6351 0.993659
122 1 -1.1104 6.85647 16.8476 3.74875
115 1 -1.1104 6.79009 14.1136 3.94013
138 1 -1.1104 6.85012 19.2908 1.04217
110 1 -1.1104 6.81901 13.8386 1.18884
141 2 2.2208 11.0457 18.1194 5.28583
142 1 -1.1104 12.5174 13.9954 1.00207
144 1 -1.1104 12.531 19.4902 0.965086
146 1 -1.1104 12.4662 13.8673 3.90609
147 1 -1.1104 12.3008 19.3134 3.84764
148 1 -1.1104 12.4684 16.7934 1.03788
150 2 2.2208 11.048 15.2741 2.40773
151 2 2.2208 11.134 20.9533 2.46275
152 1 -1.1104 12.527 16.5606 3.85752
153 1 -1.1104 9.6391 13.9035 1.02852
155 1 -1.1104 9.74565 19.5979 1.14271
157 2 2.2208 8.21345 18.1158 2.46043
158 1 -1.1104 9.61472 13.9148 3.94882
159 1 -1.1104 9.60932 19.4557 3.89055
160 2 2.2208 8.29559 15.3652 5.31115
161 2 2.2208 8.29377 20.8646 5.29685
162 1 -1.1104 9.56444 16.7428 1.13679
164 1 -1.1104 9.73011 16.7181 3.84741
327 1 -1.1104 12.204 19.5137 9.53274
173 1 -1.1104 4.15074 2.70682 6.77116
167 1 -1.1104 1.25428 2.62696 6.69203
200 2 2.2208 -0.296361 -1.57927 8.14191
199 2 2.2208 -0.33189 4.04397 8.10823
166 1 -1.1104 1.12257 -3.0258 6.76086
170 1 -1.1104 1.19482 -0.249495 6.63965
201 2 2.2208 -0.212678 1.1193 10.9408
174 1 -1.1104 3.85861 -0.152229 6.87536
172 1 -1.1104 3.98579 -3.01981 6.84339
175 2 2.2208 5.48655 1.32052 10.8679
176 1 -1.1104 1.28789 -2.91859 12.2346
177 1 -1.1104 1.11327 2.64813 12.349
180 1 -1.1104 1.01906 -3.02939 9.55791
181 1 -1.1104 1.05694 2.59241 9.41671
184 1 -1.1104 1.35715 -0.0961051 12.3095
186 2 2.2208 5.40014 -1.54801 8.12503
187 2 2.2208 5.4879 4.15334 8.07636
188 1 -1.1104 1.01752 -0.187802 9.61248
190 1 -1.1104 3.95288 -2.99016 12.476
191 1 -1.1104 4.01826 2.59832 12.2366
192 2 2.2208 2.45803 1.15341 8.14186
193 1 -1.1104 3.95466 -3.09492 9.57608
194 1 -1.1104 3.90923 2.58302 9.48779
195 2 2.2208 2.66546 -1.61388 10.9023
196 2 2.2208 2.5265 4.03608 10.9938
197 1 -1.1104 4.16729 -0.28553 12.2854
198 1 -1.1104 4.02895 -0.286805 9.53755
315 1 -1.1104 9.65628 16.8398 12.2095
206 1 -1.1104 12.4048 2.73556 6.50124
207 1 -1.1104 12.3382 -0.17892 6.70071
210 1 -1.1104 9.5902 -0.117901 6.66818
171 1 -1.1104 6.78291 -0.178117 6.76773
183 1 -1.1104 6.87722 2.7405 9.69055
168 1 -1.1104 6.97326 -2.982 6.5833
205 1 -1.1104 12.4467 -2.96801 6.72659
208 1 -1.1104 9.62535 -2.99378 6.6
209 1 -1.1104 9.59381 2.71318 6.6664
189 1 -1.1104 6.87101 0.0029119 9.5015
182 1 -1.1104 6.68754 -3.04793 9.40898
185 1 -1.1104 6.84149 -0.268815 12.3258
179 1 -1.1104 6.75968 2.61122 12.5708
178 1 -1.1104 6.80824 -3.03433 12.1587
211 2 2.2208 11.0307 1.12482 10.9612
212 1 -1.1104 12.4439 -3.0449 12.2594
213 1 -1.1104 12.4147 2.69189 12.3539
214 1 -1.1104 12.3439 -2.86228 9.54743
215 1 -1.1104 12.484 2.59658 9.38706
216 1 -1.1104 12.4557 -0.266354 12.3537
217 2 2.2208 10.9143 -1.50689 8.05977
218 2 2.2208 11.0175 4.00957 7.98333
219 1 -1.1104 12.4236 -0.192974 9.50211
220 1 -1.1104 9.60428 -3.09966 12.1505
221 1 -1.1104 9.6475 2.70441 12.3871
222 2 2.2208 8.18405 1.2594 8.08852
223 1 -1.1104 9.64951 -2.99263 9.41234
224 1 -1.1104 9.55102 2.54444 9.48378
225 2 2.2208 8.18682 -1.58304 10.8638
226 2 2.2208 8.21877 4.02775 10.9614
227 1 -1.1104 9.65928 -0.211297 12.3231
228 1 -1.1104 9.69141 -0.138672 9.48493
238 1 -1.1104 4.10542 8.35426 6.77729
239 1 -1.1104 4.1266 5.56011 6.88995
62 1 -1.1104 1.36581 11.0394 6.63197
236 1 -1.1104 1.02798 5.25633 6.66695
240 2 2.2208 5.26133 6.84695 10.9404
241 2 2.2208 5.3532 12.5162 10.9624
242 1 -1.1104 1.1208 8.30109 12.4122
244 1 -1.1104 1.1505 8.33216 9.58332
246 1 -1.1104 1.1985 5.36372 12.3859
247 1 -1.1104 1.13891 11.1577 12.3326
250 2 2.2208 5.32774 9.59159 8.19851
251 1 -1.1104 1.15032 5.48082 9.44344
252 1 -1.1104 1.08436 11.1755 9.63334
255 1 -1.1104 3.85478 8.22044 12.3092
256 2 2.2208 2.52767 6.87978 8.15224
257 2 2.2208 2.57979 12.5214 8.1582
258 1 -1.1104 3.9124 8.28726 9.46156
259 2 2.2208 2.48366 9.69774 11.0734
260 1 -1.1104 3.94537 5.49694 12.4196
261 1 -1.1104 3.95993 11.0757 12.4371
262 1 -1.1104 4.01283 5.46712 9.66085
263 1 -1.1104 3.93059 11.2055 9.68298
342 2 2.2208 -0.265172 12.6074 10.9123
343 2 2.2208 -0.281103 9.73757 8.2177
344 2 2.2208 -0.284129 6.81107 11.0568
403 2 2.2208 2.61239 15.2531 -0.31888
101 1 -1.1104 9.53238 11.1262 6.69883
65 1 -1.1104 6.64144 11.0876 6.72382
245 1 -1.1104 6.74195 8.03736 9.58366
249 1 -1.1104 6.59656 11.1747 12.3038
243 1 -1.1104 6.62486 8.31612 12.3456
237 1 -1.1104 6.85691 5.50248 6.65635
267 1 -1.1104 9.58294 8.28024 6.70181
269 1 -1.1104 9.63321 5.56946 6.76348
235 1 -1.1104 6.87818 8.29567 6.62893
248 1 -1.1104 6.74199 5.49314 12.3442
253 1 -1.1104 6.82937 5.43177 9.55685
254 1 -1.1104 6.77048 11.0668 9.65248
265 1 -1.1104 12.503 8.40833 6.75726
264 1 -1.1104 9.65997 11.0074 9.47669
268 1 -1.1104 9.59276 5.39802 9.55043
270 1 -1.1104 9.47362 11.0572 12.4555
271 1 -1.1104 9.58295 5.60654 12.4329
272 2 2.2208 8.14173 9.74515 10.9335
273 1 -1.1104 9.62539 8.2818 9.56172
274 2 2.2208 8.15045 12.5478 8.11723
275 2 2.2208 8.20036 6.74699 8.14756
276 2 2.2208 10.8941 6.88612 10.9158
277 2 2.2208 11.1127 12.5145 10.8311
278 1 -1.1104 12.2532 8.27927 12.3792
279 1 -1.1104 12.3954 8.16938 9.62518
280 1 -1.1104 12.5136 5.46354 12.3146
281 1 -1.1104 12.2395 11.1133 12.3938
282 2 2.2208 10.9798 9.77153 8.03112
283 1 -1.1104 12.3232 5.47365 9.50683
284 1 -1.1104 12.4686 11.0592 9.49025
285 1 -1.1104 9.48287 8.39938 12.2606
143 1 -1.1104 12.5511 13.9835 6.66051
324 2 2.2208 10.9467 21.019 8.17069
124 1 -1.1104 4.0179 13.9769 6.75974
108 1 -1.1104 1.19435 13.797 6.78125
302 1 -1.1104 1.2112 19.4815 6.77471
117 1 -1.1104 1.22185 16.7453 6.67817
311 2 2.2208 -0.102442 20.925 8.11643
133 1 -1.1104 4.09361 16.7738 6.8456
309 2 2.2208 2.58903 20.8548 10.8765
308 1 -1.1104 4.03528 16.7066 12.3933
307 1 -1.1104 1.15027 16.6501 12.2515
305 1 -1.1104 4.07318 13.8759 9.75485
304 1 -1.1104 4.06674 16.665 9.56447
303 2 2.2208 2.77209 18.1747 8.21492
301 1 -1.1104 4.11256 19.5327 9.62314
300 2 2.2208 5.50071 18.1673 10.9062
299 1 -1.1104 1.19927 13.8508 12.3283
298 1 -1.1104 1.26845 19.4384 12.186
295 2 2.2208 5.27405 15.3397 8.10448
294 1 -1.1104 1.09365 14.0162 9.52145
310 2 2.2208 2.59473 15.3003 11.0245
293 2 2.2208 5.47022 20.935 8.08056
292 1 -1.1104 1.18542 16.8254 9.49442
291 1 -1.1104 1.20527 19.5936 9.42813
287 1 -1.1104 4.01365 13.9953 12.4905
286 1 -1.1104 4.07519 19.4954 12.3129
312 2 2.2208 -0.119711 18.1858 10.9009
313 2 2.2208 -0.262429 15.3247 8.18847
321 1 -1.1104 9.63175 19.5961 12.5459
289 1 -1.1104 6.76558 16.7354 9.33865
288 1 -1.1104 6.94798 19.5438 9.56355
317 2 2.2208 8.22942 15.2678 10.9371
322 1 -1.1104 9.54265 13.9402 12.2695
314 1 -1.1104 9.46334 16.7053 9.52908
329 1 -1.1104 12.3003 19.7444 12.46
112 1 -1.1104 6.89563 19.5076 6.73799
149 1 -1.1104 12.2841 16.689 6.68885
154 1 -1.1104 9.75272 13.8848 6.76676
118 1 -1.1104 6.85466 16.7017 6.70466
320 2 2.2208 8.15126 18.0548 8.10134
296 1 -1.1104 6.80162 19.4186 12.3877
325 2 2.2208 11.0098 15.3276 8.18019
319 1 -1.1104 9.75408 13.8384 9.4823
297 1 -1.1104 6.72011 13.838 12.2813
328 1 -1.1104 12.4013 14.026 9.59069
156 1 -1.1104 9.69779 19.3849 6.78345
306 1 -1.1104 6.89672 16.6257 12.2271
290 1 -1.1104 6.88362 13.9563 9.54425
318 1 -1.1104 9.64544 19.6616 9.61886
323 1 -1.1104 12.4615 16.7169 9.46391
316 2 2.2208 8.23494 21.0058 11.0006
145 1 -1.1104 12.4502 19.5738 6.60908
377 2 2.2208 8.03932 15.3392 -0.57341
378 2 2.2208 11.0911 18.1001 -0.360874
349 2 2.2208 2.66054 1.17452 13.8084
376 2 2.2208 8.05323 18.0802 13.7794
368 2 2.2208 2.58359 18.0119 13.9209
388 2 2.2208 8.22504 -1.56891 -0.126923
397 2 2.2208 -0.252867 6.92276 -0.330694
398 2 2.2208 10.8928 6.77205 -0.304453
396 2 2.2208 -0.192543 12.6033 -0.239072
406 2 2.2208 5.38732 1.31274 16.5946
407 1 -1.1104 1.19425 -2.91505 17.906
408 1 -1.1104 1.21417 2.57645 17.9322
411 1 -1.1104 1.0495 -3.05039 15.1508
413 1 -1.1104 1.20452 2.58185 15.1159
419 1 -1.1104 1.13285 -0.189882 17.9975
421 2 2.2208 5.32485 -1.61733 19.38
422 2 2.2208 5.39699 4.1447 19.3621
423 1 -1.1104 0.888192 -0.0449764 15.2151
427 1 -1.1104 3.96872 -3.10264 18.0459
428 1 -1.1104 4.02126 2.75745 18.0694
429 2 2.2208 2.53049 1.25878 19.3217
430 1 -1.1104 3.98724 -2.97818 15.1184
432 1 -1.1104 3.87703 2.52279 15.3016
434 2 2.2208 2.67644 -1.50037 16.6606
435 2 2.2208 2.63199 4.12349 16.627
436 1 -1.1104 3.9081 -0.114282 17.9452
437 1 -1.1104 3.91789 -0.287881 15.0888
724 2 2.2208 -0.15743 20.8807 24.9272
442 2 2.2208 -0.241392 1.28091 16.4681
443 2 2.2208 -0.14669 -1.57804 19.3189
544 2 2.2208 -0.37491 4.14181 19.3718
433 1 -1.1104 4.00313 2.75528 20.6156
346 2 2.2208 -0.228434 -1.59786 13.6958
356 2 2.2208 11.0396 -1.54998 13.6316
348 2 2.2208 5.44185 -1.74916 13.6768
357 2 2.2208 11.09 4.02901 13.7764
352 2 2.2208 5.38133 4.00686 13.6752
358 2 2.2208 -0.290686 9.77499 13.6373
410 1 -1.1104 6.77252 2.67903 18.1202
409 1 -1.1104 6.76707 -2.88483 17.8771
417 1 -1.1104 6.73884 2.62283 15.2605
420 1 -1.1104 6.6539 -0.113797 18.0443
415 1 -1.1104 6.77644 -2.88276 15.18
425 1 -1.1104 6.75969 -0.116517 15.0942
449 2 2.2208 10.8913 1.34272 16.6227
450 1 -1.1104 12.3803 -2.95402 17.9165
451 1 -1.1104 12.4262 2.75359 17.8973
452 1 -1.1104 12.2971 -3.04259 14.8988
454 1 -1.1104 12.3976 2.62241 15.2048
456 1 -1.1104 12.3221 -0.111906 17.8877
457 2 2.2208 10.9784 -1.50277 19.2081
459 1 -1.1104 12.4819 -0.152035 15.0809
461 1 -1.1104 9.6144 -2.80313 17.953
462 1 -1.1104 9.45938 2.61368 17.8081
463 2 2.2208 8.13851 1.18367 19.3178
464 1 -1.1104 9.53445 -2.96577 15.0684
466 1 -1.1104 9.53311 2.66822 15.0493
468 2 2.2208 8.1822 -1.63109 16.4669
469 2 2.2208 8.31204 4.07986 16.4915
470 1 -1.1104 9.58742 -0.142962 17.8065
471 1 -1.1104 9.60122 -0.153834 15.0677
458 2 2.2208 11.1792 4.06479 19.3042
445 2 2.2208 13.8657 9.69775 22.2007
668 2 2.2208 10.9822 -4.27359 22.2364
455 1 -1.1104 12.324 2.69894 20.8389
515 2 2.2208 -0.282578 9.79383 19.3226
516 2 2.2208 -0.189078 12.5546 16.5056
482 2 2.2208 5.41101 6.87814 16.5092
483 2 2.2208 5.31028 12.4847 16.4542
484 1 -1.1104 1.18433 8.30731 18.0068
486 1 -1.1104 1.24864 8.19554 15.2914
490 1 -1.1104 1.16005 5.54307 17.94
491 1 -1.1104 1.11572 11.0738 17.9158
494 2 2.2208 5.26312 9.64632 19.2857
495 1 -1.1104 1.17425 5.323 15.1869
497 1 -1.1104 1.14643 11.0766 15.2967
503 1 -1.1104 4.04094 8.13164 17.8748
504 2 2.2208 2.51508 6.76833 19.4166
505 2 2.2208 2.46765 12.3445 19.2687
506 1 -1.1104 4.0051 8.10979 15.1333
508 2 2.2208 2.63697 9.63231 16.5368
509 1 -1.1104 3.99802 5.47653 17.9805
510 1 -1.1104 3.88404 10.9687 18.0643
511 1 -1.1104 3.9808 5.47429 15.0133
513 1 -1.1104 3.92085 10.9989 15.1538
481 2 2.2208 -0.169925 6.82484 16.4636
359 2 2.2208 2.565 6.87078 13.7566
512 1 -1.1104 3.96482 5.46692 20.8159
638 2 2.2208 10.9397 15.2442 24.9125
360 2 2.2208 5.25953 9.73045 13.7853
493 1 -1.1104 6.76494 11.2305 18.0122
492 1 -1.1104 6.786 5.47653 17.8555
488 1 -1.1104 6.72929 8.24899 15.1763
485 1 -1.1104 6.82404 8.30256 17.8882
499 1 -1.1104 6.89135 5.49457 15.1537
501 1 -1.1104 6.7172 11.0861 15.153
518 2 2.2208 11.0465 6.85755 16.6472
519 2 2.2208 10.9444 12.4161 16.578
520 1 -1.1104 12.5898 8.22232 17.9959
521 1 -1.1104 12.365 8.2204 15.1819
523 1 -1.1104 12.543 5.53626 18.0539
524 1 -1.1104 12.3086 10.9764 17.8705
525 2 2.2208 11.0027 9.72709 19.4121
526 1 -1.1104 12.4153 5.42734 15.2059
528 1 -1.1104 12.3003 10.9948 15.24
530 1 -1.1104 9.58374 8.14951 18.0543
531 2 2.2208 8.27221 6.72668 19.1844
532 2 2.2208 8.08704 12.5277 19.3482
533 1 -1.1104 9.5922 8.20867 15.186
535 2 2.2208 8.20215 9.56077 16.4755
536 1 -1.1104 9.74604 5.41574 17.8706
537 1 -1.1104 9.58255 11.0598 18.0782
538 1 -1.1104 9.76388 5.43229 15.14
540 1 -1.1104 9.59491 10.901 15.2667
363 2 2.2208 8.15435 6.91257 13.6979
371 2 2.2208 5.46412 15.3548 13.685
671 2 2.2208 13.7686 -1.44183 22.1353
545 2 2.2208 5.40502 17.9615 16.517
546 1 -1.1104 1.05461 13.804 18.0433
547 1 -1.1104 1.09159 19.3675 18.0469
550 1 -1.1104 1.06149 13.9491 15.0452
552 1 -1.1104 1.27417 19.5487 15.2915
558 1 -1.1104 1.23855 16.6526 17.9052
560 2 2.2208 5.27375 15.2651 19.3742
561 2 2.2208 5.27821 20.9926 19.2151
562 1 -1.1104 1.19464 16.6847 15.0812
566 1 -1.1104 3.77018 13.8582 17.9282
567 1 -1.1104 3.81617 19.4947 18.0624
568 2 2.2208 2.64398 17.9565 19.3457
569 1 -1.1104 3.85767 13.8097 15.2325
571 1 -1.1104 4.04668 19.4668 15.2693
573 2 2.2208 2.50587 15.2352 16.4956
574 2 2.2208 2.6174 20.882 16.692
575 1 -1.1104 3.91617 16.5128 17.9245
576 1 -1.1104 3.97522 16.4519 15.1387
369 2 2.2208 5.37483 20.8978 13.8181
476 2 2.2208 -0.336936 20.8213 19.3649
448 2 2.2208 -0.191844 15.2242 19.4428
447 2 2.2208 -0.321471 18.0125 16.6997
551 1 -1.1104 1.08481 13.8098 20.8593
559 1 -1.1104 6.73024 16.7563 17.9623
351 2 2.2208 -0.313934 15.4596 13.722
669 2 2.2208 7.99275 -4.33291 24.9602
597 1 -1.1104 9.49618 13.8875 20.7207
556 1 -1.1104 6.78942 19.5108 15.1612
548 1 -1.1104 6.6775 14.0553 17.9112
549 1 -1.1104 6.70705 19.4471 17.8916
564 1 -1.1104 6.74636 16.6597 15.1532
554 1 -1.1104 6.85174 13.9292 15.1657
581 2 2.2208 10.8654 18.139 16.5945
582 1 -1.1104 12.3059 13.8985 18.0269
583 1 -1.1104 12.2964 19.561 17.9532
584 1 -1.1104 12.2904 13.8956 15.1453
586 1 -1.1104 12.3001 19.5242 15.1491
588 1 -1.1104 12.2176 16.6867 17.8836
589 2 2.2208 10.956 15.3376 19.4266
590 2 2.2208 10.9657 20.9802 19.4139
591 1 -1.1104 12.2867 16.7412 15.1237
593 1 -1.1104 9.52212 13.798 17.9731
594 1 -1.1104 9.58124 19.4329 18.0432
595 2 2.2208 8.19456 18.072 19.4071
596 1 -1.1104 9.56181 13.7393 15.0733
598 1 -1.1104 9.481 19.5835 15.2345
600 2 2.2208 8.13387 15.2646 16.587
601 2 2.2208 8.18413 20.9047 16.6754
602 1 -1.1104 9.53357 16.6024 18.0593
603 1 -1.1104 9.3651 16.6694 15.1513
439 2 2.2208 -0.342001 -4.40214 16.4883
725 2 2.2208 -0.290643 15.3278 24.9693
585 1 -1.1104 12.2842 13.8193 20.8317
644 2 2.2208 -0.233769 4.07166 25.0203
642 2 2.2208 -0.357374 -1.50864 24.9125
431 1 -1.1104 3.96373 -2.93619 20.6909
424 1 -1.1104 1.24586 -0.0672217 20.7085
438 1 -1.1104 3.98966 -0.0645113 20.7824
643 2 2.2208 -0.230874 1.36133 22.0113
414 1 -1.1104 1.25611 2.76526 20.7839
412 1 -1.1104 1.14072 -2.97296 20.8203
609 2 2.2208 5.36253 1.27256 22.1509
610 1 -1.1104 1.17087 -2.98648 23.5952
611 1 -1.1104 1.22498 2.57621 23.4962
614 1 -1.1104 1.10432 -3.06812 26.4083
615 1 -1.1104 1.20128 2.66799 26.3941
618 1 -1.1104 1.03611 -0.155709 23.454
620 2 2.2208 5.28054 -1.50283 25.0546
621 2 2.2208 5.3411 4.07327 24.8686
622 1 -1.1104 1.10049 -0.185195 26.2008
624 1 -1.1104 3.97109 -2.9587 23.5985
625 1 -1.1104 4.03358 2.51803 23.4412
626 2 2.2208 2.44987 1.2227 24.8892
627 1 -1.1104 3.93468 -2.78592 26.3546
628 1 -1.1104 4.0091 2.55668 26.297
629 2 2.2208 2.55898 -1.47359 22.1802
630 2 2.2208 2.68058 4.05577 22.1424
631 1 -1.1104 3.95028 -0.194615 23.511
632 1 -1.1104 3.80074 -0.0926544 26.4059
364 2 2.2208 11.0012 9.4999 13.7035
635 1 -1.1104 12.4951 19.6312 26.3339
663 1 -1.1104 12.4083 16.6669 26.2823
418 1 -1.1104 6.85117 2.55947 20.9375
460 1 -1.1104 12.3768 -0.0797663 20.6599
416 1 -1.1104 6.75123 -2.92826 20.8317
472 1 -1.1104 9.59189 -0.134737 20.6225
426 1 -1.1104 6.81405 -0.172364 20.8175
612 1 -1.1104 6.63044 -2.87358 23.492
465 1 -1.1104 9.56021 -2.8484 20.8016
467 1 -1.1104 9.68097 2.70512 20.627
613 1 -1.1104 6.84198 2.7633 23.7902
617 1 -1.1104 6.75835 2.81465 26.5361
623 1 -1.1104 6.67231 -0.0806005 26.5035
616 1 -1.1104 6.75107 -2.87804 26.3349
453 1 -1.1104 12.356 -2.82777 20.7177
619 1 -1.1104 6.82812 -0.0686769 23.6171
645 2 2.2208 10.9305 1.22686 22.1768
646 1 -1.1104 12.2782 -2.89042 23.7815
647 1 -1.1104 12.2957 2.65889 23.6295
648 1 -1.1104 12.3382 -2.9153 26.4668
649 1 -1.1104 12.3569 2.68516 26.3272
650 1 -1.1104 12.4063 -0.0127159 23.5893
651 2 2.2208 10.8418 -1.54215 25.1126
652 2 2.2208 10.8931 4.05396 24.9285
653 1 -1.1104 12.2906 -0.183467 26.5514
654 1 -1.1104 9.50555 -3.03017 23.7351
655 1 -1.1104 9.64403 2.56606 23.6357
656 2 2.2208 8.08221 1.39535 25.0503
657 1 -1.1104 9.4762 -2.92842 26.4778
658 1 -1.1104 9.66882 2.6905 26.6197
659 2 2.2208 8.15036 -1.55313 22.2135
661 1 -1.1104 9.57342 -0.312962 23.559
662 1 -1.1104 9.45825 -0.163577 26.4318
660 2 2.2208 8.21266 4.05535 22.1001
703 2 2.2208 -0.387136 12.4158 22.034
507 1 -1.1104 3.81903 8.27611 20.6676
498 1 -1.1104 0.934338 11.1267 20.8051
496 1 -1.1104 1.06066 5.44095 20.8006
514 1 -1.1104 3.73173 11.0873 20.7038
487 1 -1.1104 1.08886 8.24916 20.8896
674 2 2.2208 5.37619 6.86876 22.2534
675 2 2.2208 5.29057 12.3762 22.0519
676 1 -1.1104 1.01511 8.26146 23.6936
678 1 -1.1104 1.05099 8.25517 26.4717
680 1 -1.1104 1.24654 5.39615 23.5311
681 1 -1.1104 1.01686 11.0167 23.5904
684 2 2.2208 5.45883 9.64226 24.8446
685 1 -1.1104 1.1916 5.45665 26.3342
686 1 -1.1104 1.01616 11.0719 26.7126
689 1 -1.1104 3.85845 8.47833 23.4119
690 2 2.2208 2.51232 6.94466 25.0226
691 2 2.2208 2.52176 12.4266 24.9188
692 1 -1.1104 4.0617 8.16923 26.2103
693 2 2.2208 2.4883 9.72362 22.2053
694 1 -1.1104 4.05998 5.5749 23.6118
695 1 -1.1104 4.00666 11.1192 23.4947
696 1 -1.1104 3.98476 5.49832 26.327
697 1 -1.1104 3.89737 11.0566 26.2937
444 2 2.2208 -0.267511 6.8754 22.1746
702 2 2.2208 -0.250038 9.67755 25.025
529 1 -1.1104 12.567 11.0725 20.7801
527 1 -1.1104 12.5724 5.48176 20.7307
500 1 -1.1104 6.84746 5.39051 20.7899
502 1 -1.1104 6.54562 10.8986 20.7021
522 1 -1.1104 12.46 8.25654 20.7503
541 1 -1.1104 9.50157 11.0526 20.7563
539 1 -1.1104 9.64087 5.50505 20.6319
489 1 -1.1104 6.63313 8.25594 20.6159
688 1 -1.1104 6.72017 10.9973 26.2416
534 1 -1.1104 9.54273 8.22102 20.8254
682 1 -1.1104 6.87263 5.49154 23.5952
687 1 -1.1104 6.77802 5.51807 26.3722
683 1 -1.1104 6.82631 11.0339 23.3056
677 1 -1.1104 6.71347 8.27553 23.481
679 1 -1.1104 6.74182 8.31372 26.4843
705 1 -1.1104 9.43287 10.9782 26.3197
706 1 -1.1104 9.48808 5.45593 26.354
707 1 -1.1104 9.58323 10.9681 23.462
708 1 -1.1104 9.57134 5.28183 23.5557
709 2 2.2208 8.13578 9.68659 21.9773
710 1 -1.1104 9.4714 8.23017 26.4676
711 2 2.2208 8.18621 12.4233 24.9092
712 2 2.2208 8.11104 6.95579 25.0062
713 2 2.2208 11.0319 6.79648 22.0949
714 2 2.2208 10.7817 12.3078 22.188
715 1 -1.1104 12.412 8.20899 23.5118
716 1 -1.1104 12.2703 8.13951 26.3756
717 1 -1.1104 12.3025 5.49604 23.5304
718 1 -1.1104 12.3222 11.0788 23.5352
719 2 2.2208 10.9418 9.55881 24.97
720 1 -1.1104 12.3803 5.39518 26.4629
721 1 -1.1104 12.2384 10.9003 26.3033
722 1 -1.1104 9.6105 8.31216 23.6555
563 1 -1.1104 1.30988 16.5113 20.7707
577 1 -1.1104 3.96237 16.5752 20.7332
572 1 -1.1104 3.98026 19.5105 20.7472
723 2 2.2208 -0.207878 17.9996 22.163
373 2 2.2208 11.009 15.2888 13.7434
355 2 2.2208 8.19926 1.24641 13.746
553 1 -1.1104 1.20766 19.3472 20.8475
570 1 -1.1104 3.75799 13.7218 20.7132
746 1 -1.1104 3.97237 13.8807 26.2956
745 1 -1.1104 4.02986 16.758 26.2958
744 2 2.2208 2.54917 18.1247 24.911
743 1 -1.1104 3.94979 19.5053 26.3226
750 2 2.2208 2.62721 20.8025 22.1892
749 1 -1.1104 4.05421 16.708 23.4842
748 1 -1.1104 1.20983 16.7213 23.5184
727 2 2.2208 2.53624 15.2168 22.1495
729 1 -1.1104 3.95114 19.4226 23.5125
731 1 -1.1104 3.9191 14.0071 23.5246
733 1 -1.1104 1.1313 19.4579 26.335
734 1 -1.1104 1.21634 16.7398 26.3607
735 1 -1.1104 1.23717 13.815 26.4417
737 2 2.2208 5.30745 20.9159 24.9104
738 2 2.2208 5.30806 15.2415 24.7787
740 1 -1.1104 1.06173 19.4045 23.5382
741 1 -1.1104 1.10939 13.9352 23.5903
742 2 2.2208 5.40786 18.123 22.0352
670 1 -1.1104 6.85926 19.4872 26.2322
730 1 -1.1104 6.76406 13.8406 26.2958
699 2 2.2208 8.24928 15.2776 22.0889
636 1 -1.1104 12.237 16.7057 23.5957
633 1 -1.1104 12.5776 19.5149 23.5975
557 1 -1.1104 6.68719 19.5506 20.5619
599 1 -1.1104 9.67295 19.7686 20.7185
604 1 -1.1104 9.59677 16.8612 20.9602
747 1 -1.1104 6.81055 16.7587 23.3277
700 2 2.2208 8.15396 20.9083 22.1171
565 1 -1.1104 6.83022 16.5602 20.7376
607 2 2.2208 10.9902 18.163 22.3277
732 1 -1.1104 6.72686 16.7239 26.1199
641 2 2.2208 11.0905 21.0403 25.0013
665 1 -1.1104 9.5926 19.545 23.5228
739 1 -1.1104 6.71951 13.7889 23.4709
667 2 2.2208 8.16736 18.1369 24.9733
664 1 -1.1104 9.52582 13.7566 23.5676
736 1 -1.1104 6.73052 19.5028 23.4424
673 1 -1.1104 9.63397 13.8815 26.206
608 1 -1.1104 12.3096 13.8095 23.4338
698 1 -1.1104 9.74679 19.4972 26.3969
592 1 -1.1104 12.3683 16.7876 20.8018
701 1 -1.1104 9.4795 16.5966 23.666
555 1 -1.1104 6.72158 13.75 20.8469
587 1 -1.1104 12.4472 19.6388 20.8073
634 1 -1.1104 12.5284 13.8544 26.4147
704 1 -1.1104 9.46565 16.7943 26.3903
640 2 2.2208 2.66538 -4.26314 24.9977
637 2 2.2208 -0.175164 -4.40277 22.1403
361 2 2.2208 2.60996 12.4729 13.7004
382 2 2.2208 2.46364 -1.4845 27.8083
387 2 2.2208 10.8772 1.27145 27.9067
401 2 2.2208 -0.24073 18.0817 27.7589
350 2 2.2208 -0.146007 20.9634 13.8066
372 2 2.2208 10.8982 21.0212 13.7783
367 2 2.2208 -0.249621 4.05536 13.6946
365 2 2.2208 8.18276 12.4008 13.8228
751 2 2.2208 5.46318 23.702 5.27277
752 2 2.2208 5.49334 29.3509 5.20506
753 1 -1.1104 1.2345 25.0945 1.11717
754 1 -1.1104 1.19823 25.1248 4.07212
755 1 -1.1104 1.40072 22.2364 1.16208
756 1 -1.1104 1.28628 27.8624 0.989123
757 2 2.2208 5.43885 26.4556 2.54124
758 1 -1.1104 1.2491 22.2531 3.77399
759 1 -1.1104 1.27737 27.8454 3.92154
760 1 -1.1104 3.93254 24.9486 1.07137
761 2 2.2208 2.79894 23.599 2.53807
762 2 2.2208 2.63154 29.3052 2.38627
763 1 -1.1104 4.03395 25.0617 3.90178
764 2 2.2208 2.65957 26.6246 5.34598
765 1 -1.1104 4.14015 22.2359 1.10746
766 1 -1.1104 4.0822 27.8485 1.17586
767 1 -1.1104 3.9515 22.1802 4.07304
768 1 -1.1104 4.09773 27.9004 3.92839
770 2 2.2208 -0.180498 23.6706 5.27739
769 2 2.2208 -0.24666 29.3601 5.33169
1674 1 -1.1104 6.70347 47.5447 6.54482
1087 1 -1.1104 6.55134 47.2358 12.3421
900 1 -1.1104 4.1342 27.8619 6.60667
895 1 -1.1104 1.2867 27.9697 6.55712
894 1 -1.1104 1.2507 22.3938 6.76177
771 2 2.2208 -0.147218 26.5033 2.52507
1121 2 2.2208 11.0078 40.669 -0.357246
772 1 -1.1104 6.72858 25.1466 1.06053
774 1 -1.1104 6.76738 22.2027 1.03979
775 1 -1.1104 6.94051 27.8269 1.21132
773 1 -1.1104 6.86056 24.948 3.74631
776 1 -1.1104 6.86048 22.2804 3.74985
777 1 -1.1104 6.88109 27.9948 3.88805
778 2 2.2208 11.0317 23.7442 5.24299
779 2 2.2208 11.0575 29.3673 5.23139
780 1 -1.1104 12.4604 25.148 1.15603
781 1 -1.1104 12.5248 24.9639 3.94233
782 1 -1.1104 12.4241 22.2604 1.09213
783 1 -1.1104 12.3103 27.9737 1.15555
784 2 2.2208 11.0419 26.5448 2.51322
785 1 -1.1104 12.5649 22.2164 3.96156
786 1 -1.1104 12.4556 28.0082 4.01772
787 1 -1.1104 9.68731 25.2587 1.09099
788 2 2.2208 8.2254 23.743 2.34356
789 2 2.2208 8.29328 29.4031 2.50325
790 1 -1.1104 9.69615 25.1264 3.99638
791 2 2.2208 8.37925 26.5143 5.27842
792 1 -1.1104 9.5234 22.3965 1.00794
793 1 -1.1104 9.61742 28.0557 1.00236
794 1 -1.1104 9.72601 22.2503 3.86735
795 1 -1.1104 9.69311 27.9232 3.80759
930 1 -1.1104 9.79537 27.8476 6.54703
926 1 -1.1104 12.4628 22.4717 6.66576
897 1 -1.1104 6.8724 28.0451 6.70241
1116 2 2.2208 10.9836 46.3282 -0.569235
1040 2 2.2208 -0.189767 43.3364 7.99868
1086 1 -1.1104 9.45927 47.4773 6.66762
799 2 2.2208 5.44352 34.9825 5.26814
800 1 -1.1104 1.42664 30.5824 0.945773
801 1 -1.1104 1.32994 36.172 1.08651
803 1 -1.1104 1.1836 30.5971 3.9514
804 1 -1.1104 1.27431 36.2598 3.90682
806 1 -1.1104 1.38179 33.3842 0.96776
807 2 2.2208 5.56239 32.1135 2.52457
808 2 2.2208 5.40559 37.6738 2.38175
809 1 -1.1104 1.27571 33.5135 3.73603
811 1 -1.1104 4.20934 30.6379 1.07882
812 1 -1.1104 4.12441 36.0953 1.06755
813 2 2.2208 2.88092 34.8305 2.43491
814 1 -1.1104 4.06891 30.8421 3.94352
815 1 -1.1104 3.97519 36.3293 3.7179
816 2 2.2208 2.58547 32.0193 5.27015
817 2 2.2208 2.61408 37.5608 5.16343
818 1 -1.1104 4.21762 33.2591 1.05155
819 1 -1.1104 4.14955 33.5863 3.91772
822 2 2.2208 -0.133191 32.201 2.56377
820 2 2.2208 -0.150599 34.8701 5.39675
953 1 -1.1104 1.26464 33.449 6.67783
821 2 2.2208 -0.212134 37.5898 2.51307
950 1 -1.1104 1.16361 36.2959 6.74117
957 1 -1.1104 4.00024 33.4257 6.69595
955 1 -1.1104 3.98824 30.7435 6.64292
805 1 -1.1104 6.83288 36.3666 3.98617
824 1 -1.1104 6.84404 30.7862 3.91246
825 1 -1.1104 6.92858 33.6189 1.01596
810 1 -1.1104 6.89387 33.5936 3.95431
823 1 -1.1104 6.88935 30.7805 1.10108
802 1 -1.1104 6.82172 36.2272 1.11481
826 2 2.2208 11.0825 34.9543 5.35486
827 1 -1.1104 12.3726 30.7104 1.17191
828 1 -1.1104 12.4885 36.451 1.04857
829 1 -1.1104 12.4051 30.9379 3.94001
830 1 -1.1104 12.4587 36.4031 3.89646
831 1 -1.1104 12.2724 33.7078 1.08904
832 2 2.2208 10.8741 32.21 2.38003
833 2 2.2208 10.9707 37.7758 2.31868
834 1 -1.1104 12.508 33.745 3.89489
835 1 -1.1104 9.55958 30.7683 1.11806
836 1 -1.1104 9.64326 36.4377 1.11398
837 2 2.2208 8.24593 34.9322 2.4617
838 1 -1.1104 9.64818 30.7343 3.90043
839 1 -1.1104 9.72401 36.3506 3.86199