ITEM: TIMESTEP
50000
ITEM: NUMBER OF ATOMS
17732
ITEM: BOX BOUNDS pp pp pp
-3.6409961435852156e-01 2.7704099614358746e+01
-4.4583068520862108e+00 3.3253830685209027e+02
-3.6797120354647039e-01 2.7707971203546304e+01
ITEM: ATOMS id type q x y z
1 2 2.2208 5.18953 1.16469 5.17501
2 1 -1.1104 0.965057 -3.20082 1.01152
3 1 -1.1104 1.1644 2.42886 0.858354
6 1 -1.1104 1.07947 -2.99312 3.81068
7 1 -1.1104 1.07053 2.60566 3.73631
10 1 -1.1104 1.02507 -0.301593 0.99474
12 2 2.2208 5.30227 -1.74326 2.44136
13 2 2.2208 5.20945 3.93901 2.48404
14 1 -1.1104 1.04585 -0.122219 3.74902
16 1 -1.1104 3.82144 -3.06559 0.842077
17 1 -1.1104 3.81588 2.56251 1.03973
18 2 2.2208 2.55369 1.05101 2.3266
19 1 -1.1104 3.82437 -3.20517 3.78331
20 1 -1.1104 3.8384 2.53091 3.87465
21 2 2.2208 2.48694 -1.59768 5.16439
22 2 2.2208 2.35358 3.92603 5.17715
23 1 -1.1104 3.89389 -0.218608 1.06299
24 1 -1.1104 4.02145 -0.359867 3.80945
174 1 -1.1104 3.70309 -0.225762 6.62199
167 1 -1.1104 0.924908 2.44742 6.66431
173 1 -1.1104 3.79478 2.53365 6.58069
4 1 -1.1104 6.67339 -2.98473 0.945644
5 1 -1.1104 6.6367 2.49377 1.07041
172 1 -1.1104 3.87442 -2.89989 6.65321
8 1 -1.1104 6.63677 -3.07556 3.75611
15 1 -1.1104 6.57482 -0.148844 3.88212
9 1 -1.1104 6.64788 2.6218 3.808
169 1 -1.1104 6.68448 2.42161 6.56224
170 1 -1.1104 0.927069 -0.337422 6.3787
165 2 2.2208 13.769 17.9148 2.3933
168 1 -1.1104 6.70506 -3.0283 6.55225
11 1 -1.1104 6.56308 -0.232219 1.11449
171 1 -1.1104 6.53662 -0.274092 6.6499
31 2 2.2208 10.8447 1.25702 5.16457
32 1 -1.1104 12.2564 -3.00803 1.07265
33 1 -1.1104 12.3094 2.4915 1.01295
34 1 -1.1104 12.1915 -2.93978 3.76436
35 1 -1.1104 12.2145 2.67245 3.82253
36 1 -1.1104 12.3101 -0.153163 1.11289
37 2 2.2208 10.778 -1.56624 2.36594
38 2 2.2208 10.7101 3.98971 2.33143
39 1 -1.1104 12.1409 -0.245254 3.84147
40 1 -1.1104 9.44441 -3.09656 1.08166
41 1 -1.1104 9.4183 2.48501 0.979194
42 2 2.2208 7.91106 1.2375 2.3917
43 1 -1.1104 9.29867 -3.07428 3.88371
44 1 -1.1104 9.39079 2.61138 3.76642
45 2 2.2208 8.09828 -1.55367 5.20369
46 2 2.2208 8.07287 4.00664 5.20515
47 1 -1.1104 9.48773 -0.326072 0.800028
48 1 -1.1104 9.39975 -0.13209 3.75758
210 1 -1.1104 9.43851 -0.169825 6.66875
207 1 -1.1104 12.215 -0.205615 6.58547
205 1 -1.1104 12.1011 -3.06526 6.59054
209 1 -1.1104 9.62739 2.71011 6.4508
208 1 -1.1104 9.41276 -3.00542 6.66895
206 1 -1.1104 12.3723 2.45572 6.54391
332 2 2.2208 13.4917 18.0624 8.01937
336 2 2.2208 13.5226 20.7825 5.17576
306 1 -1.1104 6.36334 16.6785 12.2235
50 2 2.2208 13.5387 -1.63484 5.20153
315 1 -1.1104 9.21127 16.5205 12.2334
54 2 2.2208 5.18989 6.81377 5.21331
55 2 2.2208 5.27016 12.3394 5.19325
56 1 -1.1104 0.903523 8.21829 1.03156
58 1 -1.1104 1.09037 8.21943 3.9093
60 1 -1.1104 0.943766 5.25717 0.969825
61 1 -1.1104 0.812456 11.0285 0.948857
66 2 2.2208 5.22085 9.51192 2.41492
67 1 -1.1104 1.18333 5.27142 3.72281
68 1 -1.1104 0.937891 10.9693 3.91974
71 1 -1.1104 3.73595 7.99384 1.02581
72 2 2.2208 2.43403 6.78546 2.47116
73 2 2.2208 2.33273 12.3365 2.4552
74 1 -1.1104 3.75659 8.08425 3.92123
75 2 2.2208 2.58765 9.60175 5.3213
76 1 -1.1104 3.91577 5.22647 1.03856
77 1 -1.1104 3.70377 10.8132 1.2044
79 1 -1.1104 3.93725 5.43945 3.84509
80 1 -1.1104 3.91515 10.862 3.80436
57 1 -1.1104 6.46217 8.1746 1.08579
69 1 -1.1104 6.67204 5.33137 3.89221
234 1 -1.1104 1.01042 8.03796 6.67856
62 1 -1.1104 1.21213 11.0189 6.67259
70 1 -1.1104 6.71559 10.9696 3.69915
65 1 -1.1104 6.55125 10.9492 6.58381
239 1 -1.1104 3.85345 5.35509 6.5779
78 1 -1.1104 3.86325 10.8285 6.70555
238 1 -1.1104 3.893 8.09528 6.74329
59 1 -1.1104 6.54612 8.12225 3.77019
237 1 -1.1104 6.64166 5.34097 6.81362
203 2 2.2208 5.14145 -4.48864 10.8343
64 1 -1.1104 6.71193 10.8872 0.895949
63 1 -1.1104 6.61576 5.29016 1.09397
84 2 2.2208 10.8039 6.63957 5.18542
85 2 2.2208 10.8094 12.3854 5.22528
86 1 -1.1104 12.3091 8.1866 1.01924
87 1 -1.1104 12.1281 8.00255 3.70489
88 1 -1.1104 12.168 5.50248 1.01171
89 1 -1.1104 12.2761 10.9777 0.935381
91 2 2.2208 10.7627 9.54733 2.50004
92 1 -1.1104 12.1702 5.36465 3.77417
93 1 -1.1104 12.1488 10.9514 3.74135
94 1 -1.1104 9.41281 8.14063 1.03955
95 2 2.2208 7.96599 6.83457 2.4204
96 2 2.2208 8.04858 12.4363 2.3671
97 1 -1.1104 9.26209 8.17449 3.80624
98 2 2.2208 7.99669 9.61922 5.21344
99 1 -1.1104 9.42785 5.42003 0.981624
100 1 -1.1104 9.36836 10.8975 0.966698
102 1 -1.1104 9.44432 5.2517 3.6808
103 1 -1.1104 9.43916 10.9525 3.78271
265 1 -1.1104 12.1059 8.06652 6.48405
90 1 -1.1104 12.2343 10.9333 6.60631
267 1 -1.1104 9.48956 8.31105 6.61073
269 1 -1.1104 9.43159 5.38473 6.59531
349 2 2.2208 2.51883 1.0952 13.6189
28 2 2.2208 2.43225 -4.47298 2.37154
266 1 -1.1104 12.2735 5.34107 6.5728
104 2 2.2208 13.6255 12.3527 2.40735
334 2 2.2208 13.6441 3.94169 5.25736
345 2 2.2208 13.5313 20.8598 10.8931
106 2 2.2208 5.16868 18.1348 5.13482
107 1 -1.1104 0.727055 13.7944 1.0634
109 1 -1.1104 0.906576 19.4171 1.06991
113 1 -1.1104 0.989463 13.7911 3.85903
114 1 -1.1104 0.969258 19.3574 3.95227
116 1 -1.1104 0.947739 16.5235 1.03271
119 2 2.2208 5.21386 15.1649 2.3159
120 2 2.2208 5.19377 20.8199 2.39016
121 1 -1.1104 0.95659 16.5059 3.81359
123 1 -1.1104 3.71835 13.6697 1.03107
125 1 -1.1104 3.71804 19.4104 0.982257
127 2 2.2208 2.43032 17.8955 2.37834
128 1 -1.1104 3.81238 13.72 3.69559
129 1 -1.1104 3.75603 19.5129 3.64202
130 2 2.2208 2.39989 15.064 5.14943
131 2 2.2208 2.27314 20.8638 5.18058
132 1 -1.1104 3.66061 16.5564 0.818613
134 1 -1.1104 3.71644 16.5564 3.66157
124 1 -1.1104 3.79056 13.6676 6.51901
126 1 -1.1104 3.69219 19.3949 6.50636
108 1 -1.1104 0.793293 13.6013 6.62415
122 1 -1.1104 6.55501 16.4355 3.88583
140 1 -1.1104 6.49699 16.6558 0.936019
118 1 -1.1104 6.69074 16.7023 6.59711
115 1 -1.1104 6.55439 13.6597 3.65555
138 1 -1.1104 6.63144 19.3819 0.937458
29 2 2.2208 5.24811 -4.5097 5.30354
302 1 -1.1104 0.768719 19.2667 6.67055
133 1 -1.1104 3.80432 16.4819 6.37763
111 1 -1.1104 6.53347 13.8465 6.38234
139 1 -1.1104 6.65505 19.2205 3.75916
110 1 -1.1104 6.49503 13.8265 0.994038
141 2 2.2208 10.6662 18.0866 5.25737
142 1 -1.1104 12.211 13.6648 0.909022
144 1 -1.1104 12.3775 19.4435 1.16165
146 1 -1.1104 12.194 13.6764 3.84125
147 1 -1.1104 12.2049 19.2267 3.88041
148 1 -1.1104 12.2289 16.4966 0.923274
150 2 2.2208 10.8542 15.2199 2.53908
151 2 2.2208 10.7642 20.743 2.31212
152 1 -1.1104 12.1787 16.4643 3.93088
153 1 -1.1104 9.35392 13.8487 0.988649
155 1 -1.1104 9.52178 19.489 0.973879
157 2 2.2208 7.95397 17.8908 2.29171
158 1 -1.1104 9.4339 13.9065 3.83897
159 1 -1.1104 9.42721 19.4437 3.799
160 2 2.2208 8.02776 15.3163 5.16688
161 2 2.2208 8.00361 20.8585 5.35613
162 1 -1.1104 9.35658 16.687 0.91513
164 1 -1.1104 9.35931 16.7284 3.76112
145 1 -1.1104 12.0065 19.5256 6.62091
149 1 -1.1104 12.0868 16.5999 6.5795
143 1 -1.1104 12.3044 13.8527 6.63924
156 1 -1.1104 9.19231 19.3317 6.71925
154 1 -1.1104 9.39929 13.7502 6.57533
346 2 2.2208 -0.443942 -1.66875 13.6918
163 1 -1.1104 9.30826 16.5924 6.72092
380 2 2.2208 13.4873 17.9757 13.6414
166 1 -1.1104 1.08424 -3.04011 6.60603
51 2 2.2208 7.98189 -4.39969 2.31465
175 2 2.2208 5.18784 1.21737 10.7128
176 1 -1.1104 1.12378 -3.05293 12.1492
177 1 -1.1104 1.19829 2.50954 12.0904
180 1 -1.1104 0.861613 -2.86536 9.49196
181 1 -1.1104 1.09577 2.58863 9.4358
184 1 -1.1104 0.872396 -0.247322 12.1669
186 2 2.2208 5.11532 -1.65001 8.10801
187 2 2.2208 5.24219 3.89538 7.92602
188 1 -1.1104 1.0316 -0.242913 9.34455
190 1 -1.1104 3.89341 -3.03459 12.247
191 1 -1.1104 3.94133 2.56049 12.2542
192 2 2.2208 2.38577 1.14262 7.92856
193 1 -1.1104 3.5349 -3.09417 9.4111
194 1 -1.1104 3.94761 2.48109 9.35264
195 2 2.2208 2.38378 -1.60022 10.8621
196 2 2.2208 2.50188 4.01229 10.7988
197 1 -1.1104 3.82053 -0.256841 12.3135
198 1 -1.1104 3.71859 -0.22675 9.3886
178 1 -1.1104 6.66375 -3.20183 12.1304
182 1 -1.1104 6.40857 -3.10291 9.41588
183 1 -1.1104 6.81129 2.63457 9.40801
189 1 -1.1104 6.58158 -0.370749 9.33845
318 1 -1.1104 9.37367 19.5515 9.41059
312 2 2.2208 -0.570655 18.104 10.7881
185 1 -1.1104 6.46697 -0.214983 12.0737
314 1 -1.1104 9.40275 16.6551 9.63032
327 1 -1.1104 12.0691 19.3106 9.49538
338 2 2.2208 13.6664 3.97865 10.823
337 2 2.2208 13.6385 15.2342 5.33908
323 1 -1.1104 12.0865 16.5673 9.2897
317 2 2.2208 7.97056 15.2673 10.8556
330 1 -1.1104 11.944 13.6383 12.3707
179 1 -1.1104 6.80455 2.61275 12.3105
319 1 -1.1104 9.30382 13.9083 9.35127
230 2 2.2208 13.5838 -1.77414 10.8575
211 2 2.2208 10.8598 1.08555 10.7409
212 1 -1.1104 12.0853 -3.11313 12.2658
213 1 -1.1104 12.1707 2.49666 12.1905
214 1 -1.1104 12.2071 -3.11589 9.45542
215 1 -1.1104 12.2041 2.61807 9.37016
216 1 -1.1104 12.1835 -0.217055 12.114
217 2 2.2208 10.823 -1.63867 7.93771
218 2 2.2208 10.8144 4.00842 7.89615
219 1 -1.1104 12.2336 -0.209555 9.38572
220 1 -1.1104 9.35774 -3.18952 12.1096
221 1 -1.1104 9.42234 2.46048 12.1149
222 2 2.2208 8.08736 1.11712 7.99728
223 1 -1.1104 9.34513 -2.99481 9.32582
224 1 -1.1104 9.49357 2.54303 9.08885
225 2 2.2208 8.00521 -1.71417 10.8451
226 2 2.2208 8.0793 3.98819 10.7972
227 1 -1.1104 9.29772 -0.406406 12.1661
228 1 -1.1104 9.5066 -0.28775 9.45295
26 2 2.2208 -0.343087 1.24824 5.08286
229 2 2.2208 13.6531 1.07907 8.07625
372 2 2.2208 10.8539 20.8081 13.5565
236 1 -1.1104 1.04572 5.43885 6.45049
329 1 -1.1104 12.2431 19.5462 12.2515
360 2 2.2208 5.3271 9.5958 13.5774
240 2 2.2208 5.35556 6.77057 10.8019
241 2 2.2208 5.22999 12.3521 10.7795
242 1 -1.1104 1.06221 8.12723 12.1436
244 1 -1.1104 1.07003 8.1475 9.32125
246 1 -1.1104 1.10164 5.40476 12.2754
247 1 -1.1104 1.04335 10.9931 12.1657
250 2 2.2208 5.17431 9.51889 8.09856
251 1 -1.1104 1.13501 5.41527 9.51513
252 1 -1.1104 0.857709 10.9827 9.39734
255 1 -1.1104 3.92463 8.20465 12.1194
256 2 2.2208 2.50787 6.61923 7.94469
257 2 2.2208 2.36188 12.3206 8.1333
258 1 -1.1104 3.94795 8.13522 9.39595
259 2 2.2208 2.40413 9.47673 10.8444
260 1 -1.1104 3.82536 5.42817 12.2235
261 1 -1.1104 3.8013 10.9243 12.1726
262 1 -1.1104 3.91351 5.34861 9.40517
263 1 -1.1104 3.68022 10.923 9.40245
243 1 -1.1104 6.68778 8.19647 12.1013
248 1 -1.1104 6.52822 5.44837 12.4265
249 1 -1.1104 6.54791 11.0579 12.2497
245 1 -1.1104 6.82071 8.10576 9.38802
235 1 -1.1104 6.68472 8.1687 6.61993
254 1 -1.1104 6.56929 10.9287 9.50581
331 2 2.2208 10.7333 17.9963 10.8128
316 2 2.2208 8.01929 20.8858 10.8852
101 1 -1.1104 9.29645 11.1735 6.65238
27 2 2.2208 -0.271235 3.89697 2.39471
253 1 -1.1104 6.70405 5.33555 9.51875
264 1 -1.1104 9.45841 10.9166 9.40145
268 1 -1.1104 9.45088 5.42043 9.33448
270 1 -1.1104 9.41494 10.9888 12.2516
271 1 -1.1104 9.41347 5.35785 12.0718
272 2 2.2208 8.11007 9.56863 10.7401
273 1 -1.1104 9.47075 8.14274 9.33757
274 2 2.2208 7.97688 12.3942 8.07252
275 2 2.2208 8.14577 6.7911 7.95751
276 2 2.2208 10.933 6.78377 10.8915
277 2 2.2208 10.8224 12.3976 10.8646
278 1 -1.1104 12.3646 8.25002 12.3115
279 1 -1.1104 12.3152 8.21307 9.39401
280 1 -1.1104 12.2127 5.41326 12.2119
281 1 -1.1104 12.3429 10.9474 12.2529
282 2 2.2208 10.7605 9.6341 7.98914
283 1 -1.1104 12.378 5.41212 9.55403
284 1 -1.1104 12.121 11.0568 9.27154
285 1 -1.1104 9.48577 8.23187 12.2062
324 2 2.2208 10.6477 20.9079 8.06735
321 1 -1.1104 9.37294 19.4886 12.2789
325 2 2.2208 10.7186 15.2061 8.04718
326 1 -1.1104 12.1815 16.693 12.0851
320 2 2.2208 7.96881 17.9814 8.05365
328 1 -1.1104 12.1472 13.9153 9.62381
288 1 -1.1104 6.43235 19.3966 9.50495
117 1 -1.1104 0.971686 16.5124 6.70291
309 2 2.2208 2.25053 20.8452 10.8008
308 1 -1.1104 3.72409 16.625 12.1146
307 1 -1.1104 0.991703 16.5269 12.145
305 1 -1.1104 3.77406 13.7757 9.2789
304 1 -1.1104 3.72987 16.4844 9.24688
303 2 2.2208 2.29839 17.944 8.02523
301 1 -1.1104 3.7271 19.475 9.47292
300 2 2.2208 5.08096 18.1312 10.7569
299 1 -1.1104 0.807968 13.8417 12.1685
298 1 -1.1104 0.963301 19.303 12.163
295 2 2.2208 5.1123 15.0327 7.90038
294 1 -1.1104 1.06009 13.7818 9.3566
310 2 2.2208 2.35583 15.2362 10.7451
293 2 2.2208 5.13206 20.939 8.00659
292 1 -1.1104 0.973871 16.7259 9.58377
291 1 -1.1104 0.920595 19.4731 9.39202
287 1 -1.1104 3.86063 13.7947 12.1711
286 1 -1.1104 3.72938 19.3978 12.2427
297 1 -1.1104 6.55392 13.8271 12.1628
296 1 -1.1104 6.64351 19.4206 12.2758
290 1 -1.1104 6.47718 13.7553 9.22182
368 2 2.2208 2.28077 17.9666 13.7171
289 1 -1.1104 6.54326 16.6215 9.469
112 1 -1.1104 6.38266 19.5394 6.53031
136 2 2.2208 -0.515405 20.7822 2.39307
322 1 -1.1104 9.33797 13.8174 12.2361
333 2 2.2208 13.5626 15.297 10.8484
341 2 2.2208 13.6908 9.66683 10.7643
364 2 2.2208 10.9462 9.69574 13.6051
339 2 2.2208 13.7055 6.79077 8.07387
369 2 2.2208 5.13457 20.758 13.6881
25 2 2.2208 -0.418582 -1.71916 2.42936
340 2 2.2208 13.5826 12.5203 8.07195
49 2 2.2208 13.7169 1.09119 2.43949
361 2 2.2208 2.40997 12.3112 13.6651
357 2 2.2208 10.8728 4.08965 13.6271
356 2 2.2208 10.8989 -1.68674 13.7193
352 2 2.2208 5.26821 4.01014 13.66
376 2 2.2208 7.96484 17.9856 13.7404
404 2 2.2208 5.14067 18.0364 -0.479506
363 2 2.2208 7.99727 6.82922 13.6642
348 2 2.2208 5.34753 -1.77078 13.5486
406 2 2.2208 5.3283 1.03712 16.3103
407 1 -1.1104 0.951344 -2.93229 17.6855
408 1 -1.1104 0.984399 2.53232 17.7582
411 1 -1.1104 1.00741 -3.06646 14.8842
413 1 -1.1104 1.13353 2.52939 15.0046
419 1 -1.1104 1.12971 -0.296382 17.8879
421 2 2.2208 5.34544 -1.66716 19.1137
422 2 2.2208 5.41795 3.80005 19.1293
423 1 -1.1104 1.11031 -0.27547 15.0133
427 1 -1.1104 3.74995 -3.1683 17.8429
428 1 -1.1104 3.97261 2.49382 17.895
429 2 2.2208 2.49534 1.16041 19.3062
430 1 -1.1104 3.83282 -3.06547 15.0247
432 1 -1.1104 3.88382 2.50163 15.0816
434 2 2.2208 2.47386 -1.69528 16.4765
435 2 2.2208 2.47125 3.9049 16.4677
436 1 -1.1104 3.92275 -0.339451 17.8097
437 1 -1.1104 3.9044 -0.213731 14.996
438 1 -1.1104 3.9384 -0.221283 20.7106
409 1 -1.1104 6.61937 -3.14453 17.7661
425 1 -1.1104 6.79532 -0.309249 14.8333
417 1 -1.1104 6.67573 2.41322 15.0485
412 1 -1.1104 1.16066 -3.08709 20.4688
420 1 -1.1104 6.6745 -0.484952 17.7118
418 1 -1.1104 6.71209 2.48199 20.5243
431 1 -1.1104 3.9473 -3.23643 20.5599
426 1 -1.1104 6.65226 -0.326577 20.5602
414 1 -1.1104 1.01998 2.4759 20.4587
410 1 -1.1104 6.89243 2.41077 17.656
415 1 -1.1104 6.76489 -3.13404 14.9598
640 2 2.2208 2.39853 -4.42378 24.9087
449 2 2.2208 10.8934 1.16717 16.3977
450 1 -1.1104 12.4919 -3.26208 17.759
451 1 -1.1104 12.3612 2.65753 17.96
452 1 -1.1104 12.2202 -3.09534 15.1254
454 1 -1.1104 12.1767 2.48686 15.0462
456 1 -1.1104 12.3635 -0.256871 17.8406
457 2 2.2208 11.0659 -1.76404 19.1433
459 1 -1.1104 12.3267 -0.251685 15.0017
461 1 -1.1104 9.49199 -3.21946 17.8301
462 1 -1.1104 9.55596 2.39776 17.8256
463 2 2.2208 8.19054 1.02026 19.1452
464 1 -1.1104 9.58828 -3.12581 15.112
466 1 -1.1104 9.54855 2.72106 14.8618
468 2 2.2208 8.20024 -1.63757 16.431
469 2 2.2208 8.11406 3.88653 16.3183
470 1 -1.1104 9.60908 -0.433853 17.7355
471 1 -1.1104 9.5515 -0.110912 15.0507
465 1 -1.1104 9.53414 -3.15023 20.6234
460 1 -1.1104 12.3923 -0.314966 20.6668
385 2 2.2208 5.25893 -4.53222 27.733
458 2 2.2208 10.9823 3.9538 19.3037
467 1 -1.1104 9.58906 2.45262 20.7473
453 1 -1.1104 12.3787 -3.05882 20.6465
455 1 -1.1104 12.307 2.63221 20.7577
606 2 2.2208 13.601 20.7674 22.0897
381 2 2.2208 5.25603 1.20824 27.6948
472 1 -1.1104 9.50687 -0.406828 20.4275
578 2 2.2208 13.8005 1.1174 19.3151
482 2 2.2208 5.20544 6.7136 16.3455
483 2 2.2208 5.28215 12.3051 16.4698
484 1 -1.1104 1.10812 8.03548 17.901
486 1 -1.1104 1.029 8.15486 15.026
490 1 -1.1104 1.19735 5.29184 17.6953
491 1 -1.1104 0.955499 10.8905 17.8191
494 2 2.2208 5.30494 9.5225 19.2484
495 1 -1.1104 1.14403 5.24509 14.9463
497 1 -1.1104 1.04013 10.8577 14.9442
503 1 -1.1104 3.76532 8.28843 17.9062
504 2 2.2208 2.57244 6.72209 19.2115
505 2 2.2208 2.4156 12.2456 19.2726
506 1 -1.1104 3.82288 8.1237 14.8447
508 2 2.2208 2.43504 9.49424 16.4737
509 1 -1.1104 3.86824 5.4317 17.7792
510 1 -1.1104 3.77724 10.9693 17.8875
511 1 -1.1104 3.93584 5.35793 15.0655
513 1 -1.1104 3.91893 10.8587 15.0438
499 1 -1.1104 6.77074 5.2283 15.0878
487 1 -1.1104 1.11599 8.05495 20.7401
488 1 -1.1104 6.60333 8.26676 14.8655
501 1 -1.1104 6.66993 10.9355 15.0854
485 1 -1.1104 6.62183 7.99357 17.64
500 1 -1.1104 6.60694 5.40246 20.6309
493 1 -1.1104 6.69981 10.9217 17.8994
514 1 -1.1104 4.06249 10.8255 20.7939
507 1 -1.1104 3.88077 8.1157 20.7262
496 1 -1.1104 1.06183 5.21784 20.5669
512 1 -1.1104 3.8421 5.24184 20.5791
489 1 -1.1104 6.63048 8.1797 20.5896
502 1 -1.1104 6.70221 10.8619 20.8566
498 1 -1.1104 1.13065 10.7634 20.4784
403 2 2.2208 2.33934 15.0877 27.6763
492 1 -1.1104 6.71165 5.15336 17.8175
518 2 2.2208 11.0042 6.79132 16.4064
519 2 2.2208 10.8723 12.3451 16.4839
520 1 -1.1104 12.4491 8.26859 17.8391
521 1 -1.1104 12.3808 8.27436 15.1014
523 1 -1.1104 12.4315 5.44482 17.7628
524 1 -1.1104 12.2164 10.9831 17.9296
525 2 2.2208 10.8423 9.5529 19.1975
526 1 -1.1104 12.1455 5.42541 15.0386
528 1 -1.1104 12.4145 11.0475 15.1276
530 1 -1.1104 9.52176 7.93282 17.8038
531 2 2.2208 8.02316 6.71882 19.1864
532 2 2.2208 7.99842 12.2883 19.245
533 1 -1.1104 9.57969 8.22781 15.058
535 2 2.2208 7.90603 9.59574 16.46
536 1 -1.1104 9.61427 5.0067 17.774
537 1 -1.1104 9.34626 10.8057 17.7693
538 1 -1.1104 9.37998 5.548 15.0498
540 1 -1.1104 9.4937 10.9407 15.0517
522 1 -1.1104 12.1714 8.14025 20.6001
539 1 -1.1104 9.5466 5.30822 20.6722
529 1 -1.1104 12.216 10.8566 20.6381
534 1 -1.1104 9.42119 8.17112 20.5319
379 2 2.2208 8.03541 20.8881 27.5277
517 2 2.2208 13.6399 12.4505 19.1944
541 1 -1.1104 9.41742 10.9119 20.6841
527 1 -1.1104 12.3216 5.54494 20.5861
389 2 2.2208 8.1123 3.88714 27.6926
545 2 2.2208 5.20459 17.909 16.4633
546 1 -1.1104 1.18838 13.5793 17.9534
547 1 -1.1104 1.15309 19.352 17.7965
550 1 -1.1104 1.03012 13.8552 15.1239
552 1 -1.1104 1.02381 19.4011 14.7862
558 1 -1.1104 1.15612 16.4708 17.8649
560 2 2.2208 5.33496 15.1178 19.337
561 2 2.2208 5.10793 20.695 19.2066
562 1 -1.1104 0.908239 16.6095 15.0357
566 1 -1.1104 3.96638 13.7772 17.8021
567 1 -1.1104 3.74772 19.4745 17.9352
568 2 2.2208 2.5044 17.9035 19.1727
569 1 -1.1104 3.71393 13.7574 14.9993
571 1 -1.1104 3.73008 19.339 14.9967
573 2 2.2208 2.35242 15.0832 16.4534
574 2 2.2208 2.37935 20.7608 16.3207
575 1 -1.1104 3.88963 16.6651 17.8686
576 1 -1.1104 3.71288 16.5818 15.0483
549 1 -1.1104 6.48748 19.2996 17.7978
555 1 -1.1104 6.5805 13.7735 20.6422
572 1 -1.1104 3.75857 19.3862 20.5596
554 1 -1.1104 6.4699 13.7626 14.9346
556 1 -1.1104 6.63533 19.3698 15.0225
563 1 -1.1104 0.958593 16.418 20.5842
551 1 -1.1104 1.02458 13.7323 20.6932
359 2 2.2208 2.43542 6.76306 13.5433
577 1 -1.1104 3.84337 16.4058 20.6806
553 1 -1.1104 0.959237 19.0997 20.687
479 2 2.2208 13.6019 17.8447 19.2887
559 1 -1.1104 6.55261 16.3774 17.92
548 1 -1.1104 6.73241 13.696 17.7954
565 1 -1.1104 6.60065 16.6359 20.7112
564 1 -1.1104 6.6945 16.6389 15.131
581 2 2.2208 10.8019 17.9539 16.3984
582 1 -1.1104 12.133 13.7952 17.7321
583 1 -1.1104 12.1588 19.3755 17.8674
584 1 -1.1104 12.2131 13.81 15.0669
586 1 -1.1104 12.2513 19.3466 14.9284
588 1 -1.1104 12.3039 16.5704 17.7021
589 2 2.2208 10.8495 15.1141 19.1889
590 2 2.2208 10.7569 20.6972 19.3449
591 1 -1.1104 12.2295 16.5739 14.9014
593 1 -1.1104 9.42644 13.5599 17.8457
594 1 -1.1104 9.33019 19.3752 17.9247
595 2 2.2208 7.92401 17.9974 19.3272
596 1 -1.1104 9.32135 13.6418 15.0333
598 1 -1.1104 9.37306 19.3725 15.0348
600 2 2.2208 8.01264 14.995 16.4595
601 2 2.2208 7.8738 20.7472 16.3815
602 1 -1.1104 9.41415 16.4782 17.7681
603 1 -1.1104 9.35553 16.5134 14.9641
587 1 -1.1104 11.979 19.202 20.6688
599 1 -1.1104 9.37863 19.4081 20.6936
597 1 -1.1104 9.32253 13.7064 20.5242
392 2 2.2208 13.7859 4.03405 27.7311
557 1 -1.1104 6.60108 19.4011 20.6619
388 2 2.2208 8.06843 -1.62853 27.5681
433 1 -1.1104 3.95509 2.50613 20.7775
416 1 -1.1104 6.81804 -3.07585 20.5715
424 1 -1.1104 1.04656 -0.272919 20.6976
609 2 2.2208 5.32843 1.10203 22.0197
610 1 -1.1104 0.968631 -2.94863 23.4447
611 1 -1.1104 1.11986 2.26273 23.3878
614 1 -1.1104 1.01554 -3.16272 26.3052
615 1 -1.1104 1.10439 2.39644 26.2051
618 1 -1.1104 1.09664 -0.389926 23.5109
620 2 2.2208 5.3404 -1.73358 24.9335
621 2 2.2208 5.15758 3.96583 24.8346
622 1 -1.1104 0.968845 -0.32811 26.3159
624 1 -1.1104 3.72434 -3.13147 23.4313
625 1 -1.1104 3.93896 2.48475 23.5998
626 2 2.2208 2.4598 0.923821 24.7857
627 1 -1.1104 3.84742 -3.21729 26.2402
628 1 -1.1104 3.90716 2.51357 26.3206
629 2 2.2208 2.55651 -1.74909 21.9759
630 2 2.2208 2.45334 3.83594 22.0551
631 1 -1.1104 3.9016 -0.389569 23.3831
632 1 -1.1104 3.83297 -0.252787 26.2467
613 1 -1.1104 6.70361 2.7888 23.3053
617 1 -1.1104 6.77702 2.56753 26.2235
612 1 -1.1104 6.56112 -2.99809 23.3336
619 1 -1.1104 6.58294 -0.167269 23.5576
616 1 -1.1104 6.80462 -3.07498 26.1422
377 2 2.2208 7.91277 15.1491 27.6967
723 2 2.2208 -0.558827 17.952 21.9808
480 2 2.2208 13.5642 15.1245 16.4419
399 2 2.2208 7.99332 9.52506 27.6399
443 2 2.2208 -0.465795 -1.6254 19.1851
623 1 -1.1104 6.67682 -0.218386 26.2769
700 2 2.2208 7.89387 20.7949 22.0405
665 1 -1.1104 9.39714 19.3475 23.373
395 2 2.2208 5.23872 12.2224 27.6605
645 2 2.2208 10.8372 1.02198 21.969
646 1 -1.1104 12.2145 -3.04441 23.6302
647 1 -1.1104 12.1494 2.51972 23.4032
648 1 -1.1104 12.1779 -2.99905 26.3161
649 1 -1.1104 12.2454 2.64019 26.3801
650 1 -1.1104 12.0866 -0.25901 23.5297
651 2 2.2208 10.8219 -1.5586 24.9219
652 2 2.2208 10.8275 3.92537 24.8412
653 1 -1.1104 12.3163 -0.0840627 26.2533
654 1 -1.1104 9.26993 -2.94164 23.4139
655 1 -1.1104 9.46558 2.50673 23.416
656 2 2.2208 8.018 1.08662 24.8202
657 1 -1.1104 9.46882 -3.13539 26.1885
658 1 -1.1104 9.53947 2.38664 26.1772
659 2 2.2208 7.97711 -1.66666 22.0059
661 1 -1.1104 9.38987 -0.223995 23.1912
662 1 -1.1104 9.4048 -0.358312 26.1505
660 2 2.2208 8.06761 3.99564 21.9634
585 1 -1.1104 12.1897 13.6117 20.6699
394 2 2.2208 2.33373 9.55731 27.6491
444 2 2.2208 -0.30228 6.64699 22.04
699 2 2.2208 7.85674 15.0402 22.0353
663 1 -1.1104 12.3479 16.5245 26.2587
543 2 2.2208 13.7027 9.54973 16.3936
674 2 2.2208 5.26046 6.74421 22.0416
675 2 2.2208 5.27955 12.2635 22.18
676 1 -1.1104 1.07543 8.03727 23.5406
678 1 -1.1104 1.01523 8.17866 26.3323
680 1 -1.1104 1.07635 5.1841 23.4094
681 1 -1.1104 1.07355 10.8995 23.4802
684 2 2.2208 5.35261 9.32915 24.9794
685 1 -1.1104 1.06107 5.28698 26.3486
686 1 -1.1104 1.0224 10.943 26.292
689 1 -1.1104 3.82188 8.11243 23.5935
690 2 2.2208 2.46348 6.70355 24.817
691 2 2.2208 2.46348 12.2983 24.9782
692 1 -1.1104 3.95227 7.96851 26.3242
693 2 2.2208 2.53837 9.39549 22.0855
694 1 -1.1104 3.82882 5.37302 23.3552
695 1 -1.1104 3.77948 10.8372 23.6007
696 1 -1.1104 3.845 5.32617 26.204
697 1 -1.1104 3.88679 10.8158 26.4038
683 1 -1.1104 6.61336 10.9619 23.5285
682 1 -1.1104 6.68821 5.55256 23.587
687 1 -1.1104 6.66991 5.25101 26.2404
641 2 2.2208 10.6997 20.7183 24.7948
393 2 2.2208 5.21411 6.69021 27.691
400 2 2.2208 10.8401 12.2863 27.6009
667 2 2.2208 7.89283 18.0007 24.7726
698 1 -1.1104 9.36432 19.3075 26.1399
636 1 -1.1104 12.1215 16.5918 23.5323
688 1 -1.1104 6.61925 10.9014 26.1329
679 1 -1.1104 6.64817 8.05094 26.3864
677 1 -1.1104 6.62741 8.15893 23.4071
705 1 -1.1104 9.34971 10.835 26.1039
706 1 -1.1104 9.53095 5.22751 26.3955
707 1 -1.1104 9.35661 11.0496 23.5329
708 1 -1.1104 9.487 5.35009 23.5649
709 2 2.2208 8.0189 9.43148 22.0951
710 1 -1.1104 9.47667 8.13392 26.3283
711 2 2.2208 8.03858 12.3259 24.9142
712 2 2.2208 8.17355 6.74825 24.9153
713 2 2.2208 10.8434 6.71548 22.1153
714 2 2.2208 10.7045 12.259 22.0937
715 1 -1.1104 12.156 8.0166 23.4808
716 1 -1.1104 12.2796 8.06883 26.3265
717 1 -1.1104 12.2923 5.19795 23.4104
718 1 -1.1104 12.0118 10.823 23.2638
719 2 2.2208 10.8311 9.51496 24.8412
720 1 -1.1104 12.2897 5.25336 26.2777
721 1 -1.1104 12.1678 10.8893 26.0407
722 1 -1.1104 9.45816 8.09686 23.4981
701 1 -1.1104 9.24246 16.6934 23.458
704 1 -1.1104 9.54497 16.4981 26.3325
383 2 2.2208 2.45228 3.82333 27.6788
570 1 -1.1104 3.81357 13.485 20.637
730 1 -1.1104 6.49539 13.7448 26.3321
746 1 -1.1104 3.77538 13.7014 26.2921
745 1 -1.1104 3.89782 16.4914 26.1134
744 2 2.2208 2.33155 17.8372 24.8025
743 1 -1.1104 3.58416 19.3758 26.2935
750 2 2.2208 2.42298 20.6933 22.0307
749 1 -1.1104 3.82184 16.4882 23.4286
748 1 -1.1104 0.985381 16.35 23.3884
727 2 2.2208 2.29174 15.0376 21.9477
729 1 -1.1104 3.80028 19.2635 23.2449
731 1 -1.1104 3.83788 13.5921 23.4447
733 1 -1.1104 0.907894 19.2589 26.3009
734 1 -1.1104 1.08113 16.4981 26.3301
735 1 -1.1104 0.938063 13.6041 26.2241
737 2 2.2208 5.10103 20.671 24.7122
738 2 2.2208 5.14559 15.0992 24.8955
740 1 -1.1104 0.95501 19.4498 23.6441
741 1 -1.1104 1.1972 13.6455 23.4843
742 2 2.2208 5.20782 17.8933 22.0386
747 1 -1.1104 6.59697 16.4903 23.4277
739 1 -1.1104 6.65681 13.7044 23.5528
736 1 -1.1104 6.54957 19.3263 23.4267
382 2 2.2208 2.43311 -1.67287 27.7217
366 2 2.2208 13.6594 6.78018 13.716
673 1 -1.1104 9.35456 13.6454 26.3837
378 2 2.2208 10.841 17.9721 27.7589
664 1 -1.1104 9.46116 13.9934 23.3748
604 1 -1.1104 9.38917 16.6326 20.6444
592 1 -1.1104 12.223 16.4245 20.5476
607 2 2.2208 10.6783 17.9406 22.0335
633 1 -1.1104 12.0644 19.3968 23.582
638 2 2.2208 10.7806 15.142 25.0061
635 1 -1.1104 12.2125 19.3231 26.2544
634 1 -1.1104 12.1345 13.675 26.1928
732 1 -1.1104 6.60146 16.6582 26.2577
670 1 -1.1104 6.55297 19.4239 26.1796
608 1 -1.1104 12.1686 13.7751 23.4722
477 2 2.2208 13.7332 -1.66549 16.4142
728 2 2.2208 13.615 6.691 24.8654
374 2 2.2208 13.739 15.2154 27.5317
362 2 2.2208 13.5274 12.3604 13.7382
375 2 2.2208 13.6337 20.8746 27.6472
405 2 2.2208 2.29376 20.729 27.6345
398 2 2.2208 10.9827 6.72852 27.7185
386 2 2.2208 -0.377706 1.13755 27.6817
387 2 2.2208 10.9321 1.19414 27.6494
373 2 2.2208 10.6653 15.1396 13.6823
355 2 2.2208 8.053 1.06222 13.511
396 2 2.2208 -0.583149 12.3245 27.7513
365 2 2.2208 7.94193 12.3197 13.6991
371 2 2.2208 5.05088 15.1597 13.5101
751 2 2.2208 5.19508 23.6069 5.22104
752 2 2.2208 5.0867 29.2494 5.30633
753 1 -1.1104 0.967386 24.9624 0.938134
754 1 -1.1104 0.950749 25.0242 3.73963
755 1 -1.1104 0.987073 22.1218 1.00283
756 1 -1.1104 0.79198 27.7018 0.923183
757 2 2.2208 5.10112 26.3115 2.39725
758 1 -1.1104 0.825178 22.2291 3.65504
759 1 -1.1104 0.826551 27.8999 3.87271
760 1 -1.1104 3.82908 24.8149 0.835722
761 2 2.2208 2.35718 23.465 2.364
762 2 2.2208 2.27523 29.1829 2.41704
763 1 -1.1104 3.82847 24.9307 3.74018
764 2 2.2208 2.38911 26.4214 5.10908
765 1 -1.1104 3.80512 22.0372 0.985731
766 1 -1.1104 3.74656 27.7004 0.941608
767 1 -1.1104 3.84339 22.1552 3.84752
768 1 -1.1104 3.66917 27.8177 3.73038
896 1 -1.1104 6.58293 22.2503 6.63921
776 1 -1.1104 6.50772 22.2057 3.90011
773 1 -1.1104 6.62696 24.9356 3.86389
772 1 -1.1104 6.57397 24.8769 0.919196
894 1 -1.1104 0.887933 22.2602 6.55987
895 1 -1.1104 0.839248 27.7749 6.70614
900 1 -1.1104 3.62138 27.9099 6.52592
897 1 -1.1104 6.46154 27.7619 6.65429
1112 2 2.2208 13.584 23.6359 13.7196
1113 2 2.2208 13.6016 40.417 13.5231
1102 2 2.2208 7.93413 34.9991 13.5054
774 1 -1.1104 6.48462 22.1672 0.955868
777 1 -1.1104 6.52794 27.7177 3.76263
775 1 -1.1104 6.48795 27.7549 0.923364
778 2 2.2208 10.7339 23.5502 5.18025
779 2 2.2208 10.7177 29.1412 5.09013
780 1 -1.1104 12.2272 24.8514 0.9987
781 1 -1.1104 12.1073 24.9085 3.83546
782 1 -1.1104 12.1471 22.0371 1.02541
783 1 -1.1104 12.1501 27.596 1.07647
784 2 2.2208 10.8167 26.3077 2.46222
785 1 -1.1104 12.0219 22.127 3.81092
786 1 -1.1104 12.1123 27.8823 3.89791
787 1 -1.1104 9.2688 24.9878 1.04033
788 2 2.2208 7.93695 23.6027 2.47567
789 2 2.2208 7.86793 29.2297 2.38244
790 1 -1.1104 9.40772 25.1146 3.78513
791 2 2.2208 7.93064 26.4729 5.1934
792 1 -1.1104 9.48328 22.1765 0.935689
793 1 -1.1104 9.32167 27.8427 1.04863
794 1 -1.1104 9.19731 22.2596 3.8508
795 1 -1.1104 9.40736 27.7723 3.81269
926 1 -1.1104 12.0465 22.1444 6.74082
930 1 -1.1104 9.10567 27.8201 6.45422
929 1 -1.1104 9.30438 22.1847 6.70477
925 1 -1.1104 12.2073 25.1202 6.69159
927 1 -1.1104 11.9347 27.8261 6.62799
796 2 2.2208 13.5611 23.5073 2.44136
1109 2 2.2208 7.80716 45.7494 13.5948
1075 2 2.2208 -0.614996 23.5321 10.7586
799 2 2.2208 4.994 34.7758 5.08113
800 1 -1.1104 0.867451 30.4392 1.0865
801 1 -1.1104 0.857718 36.2089 1.04809
803 1 -1.1104 0.960315 30.7731 3.7001
804 1 -1.1104 0.86877 36.351 3.8231
806 1 -1.1104 0.964298 33.3195 0.971256
807 2 2.2208 5.10751 31.9169 2.33793
808 2 2.2208 5.10179 37.6557 2.35891
809 1 -1.1104 0.634186 33.523 3.74274
811 1 -1.1104 3.63795 30.5595 0.963539
812 1 -1.1104 3.66279 36.2225 0.98978
813 2 2.2208 2.26678 34.7656 2.29674
814 1 -1.1104 3.83337 30.498 3.81753
815 1 -1.1104 3.62089 36.2507 3.7382
816 2 2.2208 2.35985 31.9885 5.22729
817 2 2.2208 2.19899 37.6665 5.08196
818 1 -1.1104 3.66177 33.4481 0.823939
819 1 -1.1104 3.69058 33.4094 3.68548
805 1 -1.1104 6.49076 36.1876 3.60914
823 1 -1.1104 6.34387 30.538 1.05561
810 1 -1.1104 6.49854 33.506 3.66462
824 1 -1.1104 6.47796 30.5967 3.90671
802 1 -1.1104 6.43642 36.3026 0.919786
949 1 -1.1104 0.89529 30.5486 6.69286
950 1 -1.1104 0.773443 36.1792 6.55977
956 1 -1.1104 3.72682 36.2849 6.56782
955 1 -1.1104 3.76592 30.6178 6.54643
1066 2 2.2208 13.4243 43.3348 10.7909
844 2 2.2208 13.453 34.791 2.45578
825 1 -1.1104 6.34265 33.4701 0.954014
826 2 2.2208 10.6012 34.7425 5.23777
827 1 -1.1104 12.0808 30.562 0.93667
828 1 -1.1104 11.9877 36.1616 0.996777
829 1 -1.1104 12.1699 30.4706 3.64542
830 1 -1.1104 12.046 36.0298 3.81713
831 1 -1.1104 11.9517 33.4234 1.00692
832 2 2.2208 10.7891 31.9773 2.3174
833 2 2.2208 10.5963 37.6781 2.42171
834 1 -1.1104 12.105 33.2294 3.78068
835 1 -1.1104 9.13519 30.4384 0.95055
836 1 -1.1104 9.19675 36.2798 0.892858
837 2 2.2208 7.80333 34.8198 2.25054
838 1 -1.1104 9.4161 30.5565 3.67591
839 1 -1.1104 9.2142 36.418 3.74548
840 2 2.2208 7.9274 32.0598 5.09006
841 2 2.2208 7.73424 37.5137 5.16513
842 1 -1.1104 9.12848 33.283 1.01906
843 1 -1.1104 9.29831 33.3662 3.76822
983 1 -1.1104 12.1061 30.5453 6.51466
1077 2 2.2208 13.6034 37.5688 10.7429
1065 2 2.2208 10.6882 40.3059 10.789
952 1 -1.1104 6.49577 36.0686 6.52828
951 1 -1.1104 6.67849 30.5755 6.77858
987 1 -1.1104 9.28985 36.2701 6.49735
988 1 -1.1104 9.31221 33.2558 6.53709
985 1 -1.1104 12.084 33.4448 6.59227