ITEM: TIMESTEP
80000
ITEM: NUMBER OF ATOMS
17732
ITEM: BOX BOUNDS pp pp pp
-3.6411295401480109e-01 2.7704112954015756e+01
-4.4119728894081440e+00 3.3249197288941679e+02
-3.6551652111993532e-01 2.7705516521120508e+01
ITEM: ATOMS id type q x y z
1 2 2.2208 5.04576 1.22972 5.21572
2 1 -1.1104 0.879794 -2.94764 1.0072
3 1 -1.1104 0.931953 2.62437 0.866175
6 1 -1.1104 0.994933 -2.99416 3.82187
7 1 -1.1104 0.788943 2.73114 3.70254
10 1 -1.1104 0.973785 -0.168642 0.990512
12 2 2.2208 5.07924 -1.57394 2.49107
13 2 2.2208 5.18114 4.09505 2.36194
14 1 -1.1104 1.00423 -0.12596 3.62954
16 1 -1.1104 3.7348 -3.04419 1.0554
17 1 -1.1104 3.81972 2.60005 1.05281
18 2 2.2208 2.32021 1.2932 2.37231
19 1 -1.1104 3.91215 -3.01226 3.90298
20 1 -1.1104 3.61704 2.5843 3.92668
21 2 2.2208 2.37175 -1.50873 5.1655
22 2 2.2208 2.3644 4.04966 5.08818
23 1 -1.1104 3.67639 -0.220401 1.02096
24 1 -1.1104 3.68114 -0.175993 3.83893
11 1 -1.1104 6.43101 -0.182905 1.17471
5 1 -1.1104 6.5137 2.53806 1.00865
15 1 -1.1104 6.48452 -0.0730898 3.95574
172 1 -1.1104 3.6638 -2.88421 6.75027
4 1 -1.1104 6.6258 -3.08758 1.03319
166 1 -1.1104 0.833781 -3.08433 6.38578
9 1 -1.1104 6.45077 2.76234 3.7933
168 1 -1.1104 6.50857 -3.09223 6.64303
167 1 -1.1104 0.973316 2.48203 6.52982
8 1 -1.1104 6.50526 -2.92967 3.68984
169 1 -1.1104 6.50571 2.47678 6.61756
104 2 2.2208 13.6415 12.4205 2.43638
173 1 -1.1104 3.72774 2.569 6.72165
170 1 -1.1104 0.934339 -0.103237 6.47271
391 2 2.2208 13.382 -1.58383 -0.329182
355 2 2.2208 7.96725 1.10886 13.6439
340 2 2.2208 13.5336 12.3957 7.97314
314 1 -1.1104 9.49313 16.567 9.47603
49 2 2.2208 13.5174 1.11781 2.46745
31 2 2.2208 10.6809 1.10633 5.25841
32 1 -1.1104 12.0324 -3.03429 1.15108
33 1 -1.1104 11.9529 2.71809 1.05988
34 1 -1.1104 12.1756 -3.04062 3.96271
35 1 -1.1104 12.1174 2.47116 3.8343
36 1 -1.1104 12.1243 -0.112932 0.938104
37 2 2.2208 10.7273 -1.60697 2.50939
39 1 -1.1104 12.1828 -0.32239 3.78086
40 1 -1.1104 9.21254 -3.01506 1.25474
41 1 -1.1104 9.25307 2.76532 0.935478
42 2 2.2208 7.90928 1.26778 2.52265
43 1 -1.1104 9.29637 -2.95118 3.94906
44 1 -1.1104 9.19701 2.60236 3.82356
45 2 2.2208 7.77524 -1.59923 5.1685
46 2 2.2208 7.8332 4.13041 5.28441
47 1 -1.1104 9.3192 -0.0412471 1.10688
48 1 -1.1104 9.38092 -0.247385 3.71474
38 2 2.2208 10.5215 4.03903 2.48017
207 1 -1.1104 12.1073 -0.369044 6.57197
208 1 -1.1104 9.27147 -2.8242 6.75145
50 2 2.2208 13.4496 -1.66842 5.35621
334 2 2.2208 13.4112 3.92375 5.24806
209 1 -1.1104 9.3041 2.66511 6.64669
351 2 2.2208 -0.435266 15.2157 13.6984
325 2 2.2208 10.8633 15.16 7.97797
336 2 2.2208 13.6043 20.8041 5.21065
326 1 -1.1104 12.3214 16.4815 12.0885
54 2 2.2208 5.13464 6.90196 5.17306
55 2 2.2208 5.21832 12.3663 5.12168
56 1 -1.1104 0.928945 8.24761 1.11976
58 1 -1.1104 0.989249 8.25298 3.77094
60 1 -1.1104 0.92419 5.37128 0.966266
61 1 -1.1104 0.901874 10.9858 0.98804
66 2 2.2208 5.20954 9.51417 2.38423
67 1 -1.1104 0.957735 5.52412 3.7554
68 1 -1.1104 0.814684 10.9371 3.61128
71 1 -1.1104 3.7191 8.14973 1.08397
72 2 2.2208 2.28579 6.77615 2.36899
73 2 2.2208 2.28002 12.3615 2.4205
74 1 -1.1104 3.88784 7.99893 3.70122
75 2 2.2208 2.25574 9.69826 5.07491
76 1 -1.1104 3.85582 5.36266 1.12901
77 1 -1.1104 3.82209 10.8398 1.08556
79 1 -1.1104 3.8614 5.33805 3.97479
80 1 -1.1104 3.7496 10.9072 3.87764
70 1 -1.1104 6.48875 10.8898 3.74416
62 1 -1.1104 1.03995 11.0563 6.60745
59 1 -1.1104 6.59441 8.17133 3.77244
57 1 -1.1104 6.65135 8.27985 0.938182
69 1 -1.1104 6.61811 5.50433 3.74447
64 1 -1.1104 6.60074 11.0188 0.764509
238 1 -1.1104 3.67351 8.44915 6.33867
235 1 -1.1104 6.65704 8.41707 6.70612
65 1 -1.1104 6.63346 11.0054 6.61629
234 1 -1.1104 0.811271 8.20563 6.60566
239 1 -1.1104 3.70885 5.51684 6.68075
78 1 -1.1104 3.71517 11.1333 6.50975
316 2 2.2208 7.89042 20.812 10.8387
332 2 2.2208 13.546 18.0663 8.00826
63 1 -1.1104 6.43884 5.49364 1.02455
105 2 2.2208 13.5247 6.69514 2.48843
363 2 2.2208 8.03488 6.84175 13.5961
84 2 2.2208 10.6818 6.67065 5.23621
85 2 2.2208 10.7113 12.5008 5.21033
86 1 -1.1104 12.2632 8.35603 1.16426
87 1 -1.1104 12.174 8.13685 3.87638
88 1 -1.1104 12.0678 5.57579 1.06527
89 1 -1.1104 12.2475 11.0692 0.877707
91 2 2.2208 10.8377 9.65634 2.35962
92 1 -1.1104 12.028 5.34569 3.79845
93 1 -1.1104 12.1313 11.0103 3.8663
94 1 -1.1104 9.47841 8.31294 1.04451
95 2 2.2208 7.9954 6.82938 2.30705
96 2 2.2208 7.92398 12.3646 2.25347
97 1 -1.1104 9.39122 8.33719 3.8533
98 2 2.2208 7.95791 9.66368 5.22554
99 1 -1.1104 9.46239 5.44997 1.03994
100 1 -1.1104 9.48891 11.0145 0.976248
102 1 -1.1104 9.33797 5.43938 3.88316
103 1 -1.1104 9.38809 11.0192 3.81499
335 2 2.2208 13.4665 9.59979 5.32252
266 1 -1.1104 12.1029 5.28614 6.61472
101 1 -1.1104 9.44381 11.0271 6.53216
269 1 -1.1104 9.29027 5.32064 6.59586
267 1 -1.1104 9.40081 8.08994 6.69466
90 1 -1.1104 12.1691 10.9426 6.58081
265 1 -1.1104 12.1099 8.12381 6.6286
315 1 -1.1104 9.54625 16.5738 12.264
376 2 2.2208 7.86943 18.0746 13.5299
372 2 2.2208 10.8522 20.8422 13.6623
106 2 2.2208 5.27984 18.0036 5.29645
107 1 -1.1104 0.957452 13.7579 1.00278
109 1 -1.1104 0.947368 19.5481 1.04137
113 1 -1.1104 0.986332 13.7235 3.96231
114 1 -1.1104 0.862967 19.3287 3.76733
116 1 -1.1104 0.93127 16.6897 0.906557
119 2 2.2208 5.0045 15.2678 2.31266
120 2 2.2208 5.25226 20.8095 2.43223
121 1 -1.1104 0.896913 16.5299 3.75366
123 1 -1.1104 3.5836 13.7958 0.960016
125 1 -1.1104 3.79791 19.3651 0.954296
127 2 2.2208 2.25467 18.0309 2.40583
128 1 -1.1104 3.80416 13.7029 3.64255
129 1 -1.1104 3.77154 19.5093 3.61564
130 2 2.2208 2.38347 15.2256 5.19401
131 2 2.2208 2.34598 20.7614 5.18855
132 1 -1.1104 3.64218 16.6133 0.960411
134 1 -1.1104 3.81355 16.5811 3.69942
139 1 -1.1104 6.57191 19.3797 3.80599
115 1 -1.1104 6.53086 13.7012 3.57632
110 1 -1.1104 6.43893 13.8092 0.78523
117 1 -1.1104 1.02582 16.7409 6.59458
122 1 -1.1104 6.56962 16.5249 3.78249
140 1 -1.1104 6.56979 16.5847 0.935149
118 1 -1.1104 6.53469 16.5929 6.5229
111 1 -1.1104 6.45946 13.756 6.5412
138 1 -1.1104 6.5179 19.352 1.01134
124 1 -1.1104 3.76015 13.9249 6.42539
133 1 -1.1104 3.8031 16.7426 6.4818
112 1 -1.1104 6.70152 19.4792 6.59198
361 2 2.2208 2.29108 12.4539 13.4849
328 1 -1.1104 11.9781 13.8267 9.32642
330 1 -1.1104 12.2262 13.8221 12.1334
165 2 2.2208 13.6197 18.0277 2.37625
365 2 2.2208 7.82816 12.2943 13.5841
141 2 2.2208 10.7305 18.0365 5.05693
142 1 -1.1104 12.1425 13.7646 0.957097
144 1 -1.1104 12.2 19.2801 0.877769
146 1 -1.1104 12.1065 13.7826 3.69604
147 1 -1.1104 12.273 19.3292 3.60785
148 1 -1.1104 12.2981 16.5807 0.802075
150 2 2.2208 10.8209 15.1713 2.23089
151 2 2.2208 10.8359 20.8035 2.28852
152 1 -1.1104 12.0958 16.5456 3.67123
153 1 -1.1104 9.3398 13.8233 0.972511
155 1 -1.1104 9.41733 19.4077 0.813818
157 2 2.2208 7.93463 18.0003 2.3456
158 1 -1.1104 9.32369 13.8885 3.64109
159 1 -1.1104 9.49703 19.4455 3.65677
160 2 2.2208 7.9598 15.1083 5.10081
161 2 2.2208 8.0876 20.8373 5.19865
162 1 -1.1104 9.24005 16.6248 0.924878
164 1 -1.1104 9.38871 16.7055 3.69469
154 1 -1.1104 9.28413 13.8806 6.65278
321 1 -1.1104 9.33626 19.4828 12.2274
149 1 -1.1104 12.173 16.5449 6.70938
143 1 -1.1104 12.1968 13.7942 6.45361
366 2 2.2208 13.5574 6.83008 13.6784
320 2 2.2208 8.01539 17.9937 7.94807
369 2 2.2208 5.04524 20.7759 13.5511
174 1 -1.1104 3.79787 -0.20387 6.58056
171 1 -1.1104 6.5802 -0.341529 6.60658
364 2 2.2208 10.8235 9.64667 13.5508
175 2 2.2208 5.07186 1.1821 10.775
176 1 -1.1104 0.848824 -3.0388 12.2258
177 1 -1.1104 0.831373 2.40714 12.2388
180 1 -1.1104 0.814991 -3.02514 9.22854
181 1 -1.1104 0.742573 2.54843 9.3702
184 1 -1.1104 0.731105 -0.233858 12.1762
186 2 2.2208 5.1732 -1.52922 8.05715
187 2 2.2208 5.08779 4.1634 8.05325
188 1 -1.1104 0.964459 -0.330579 9.29384
190 1 -1.1104 3.58484 -3.04241 12.3519
191 1 -1.1104 3.54536 2.5666 12.0846
192 2 2.2208 2.16745 1.32309 8.1247
193 1 -1.1104 3.60983 -2.91 9.51206
194 1 -1.1104 3.50859 2.80352 9.34917
195 2 2.2208 2.224 -1.68185 10.8056
196 2 2.2208 2.25214 3.96525 10.7082
197 1 -1.1104 3.63028 -0.182691 12.2217
198 1 -1.1104 3.84237 -0.0925473 9.43661
189 1 -1.1104 6.64044 -0.1554 9.50897
183 1 -1.1104 6.45164 2.72888 9.27068
179 1 -1.1104 6.45203 2.6508 12.1849
182 1 -1.1104 6.40896 -3.02601 9.45522
178 1 -1.1104 6.46294 -3.04395 12.2799
185 1 -1.1104 6.30012 -0.231679 12.2532
373 2 2.2208 10.7425 15.341 13.7021
331 2 2.2208 10.7916 18.0844 10.809
51 2 2.2208 7.89006 -4.47231 2.55304
317 2 2.2208 8.06275 15.1167 10.7578
205 1 -1.1104 12.1722 -3.18348 6.7204
323 1 -1.1104 12.1992 16.6549 9.37623
206 1 -1.1104 11.9993 2.47745 6.78201
322 1 -1.1104 9.36652 13.7426 12.3393
145 1 -1.1104 12.2166 19.3019 6.45347
333 2 2.2208 13.5227 15.1259 10.8944
210 1 -1.1104 9.26785 -0.231216 6.63805
229 2 2.2208 13.3999 1.2224 8.08921
338 2 2.2208 13.3883 3.85586 10.8932
211 2 2.2208 10.5646 1.14475 10.9233
212 1 -1.1104 12.3007 -2.95182 12.3792
213 1 -1.1104 11.966 2.69118 12.3817
214 1 -1.1104 11.9949 -2.95772 9.54485
215 1 -1.1104 11.9802 2.50539 9.63778
216 1 -1.1104 12.1593 -0.189896 12.1486
217 2 2.2208 10.6738 -1.54596 8.16921
218 2 2.2208 10.6455 4.01618 8.05284
219 1 -1.1104 12.0835 -0.301202 9.38254
220 1 -1.1104 9.33175 -3.11652 12.2815
221 1 -1.1104 9.17119 2.67658 12.3147
222 2 2.2208 7.90208 1.1976 8.02995
223 1 -1.1104 9.18837 -3.07585 9.38183
224 1 -1.1104 9.23636 2.53885 9.49697
225 2 2.2208 7.96383 -1.7463 10.894
226 2 2.2208 7.86358 4.06611 10.7662
227 1 -1.1104 9.14083 -0.377155 12.3935
228 1 -1.1104 9.34759 -0.323338 9.4936
230 2 2.2208 13.5621 -1.67769 10.9088
163 1 -1.1104 9.27586 16.4933 6.44349
327 1 -1.1104 12.1562 19.5547 9.34266
236 1 -1.1104 0.83683 5.32581 6.6441
237 1 -1.1104 6.51037 5.53076 6.56142
240 2 2.2208 5.1366 6.88332 10.7733
241 2 2.2208 5.14146 12.4448 10.6469
242 1 -1.1104 0.91058 8.0522 12.1657
244 1 -1.1104 0.946168 8.24976 9.44278
246 1 -1.1104 0.853673 5.28763 12.12
247 1 -1.1104 0.960423 10.9682 12.1009
250 2 2.2208 5.0761 9.80052 7.89919
251 1 -1.1104 0.95668 5.40694 9.25451
252 1 -1.1104 0.813302 11.0466 9.36076
255 1 -1.1104 3.67437 8.20703 12.2326
256 2 2.2208 2.24398 6.86643 8.00593
257 2 2.2208 2.27043 12.5682 7.98987
258 1 -1.1104 3.87802 8.43058 9.26424
259 2 2.2208 2.2966 9.53227 10.792
260 1 -1.1104 3.71216 5.35728 12.1512
261 1 -1.1104 3.74854 11 12.2595
262 1 -1.1104 3.7153 5.64762 9.38484
263 1 -1.1104 3.61295 11.3323 9.27734
254 1 -1.1104 6.50297 11.0409 9.29514
249 1 -1.1104 6.49269 11.1256 12.0768
245 1 -1.1104 6.64361 8.3248 9.46885
243 1 -1.1104 6.45522 8.35264 12.0875
248 1 -1.1104 6.46371 5.40286 12.2674
329 1 -1.1104 12.1673 19.2177 12.1809
324 2 2.2208 10.6094 20.8309 7.98037
341 2 2.2208 13.5762 9.5712 10.837
253 1 -1.1104 6.44465 5.44519 9.39012
156 1 -1.1104 9.44611 19.3059 6.57181
339 2 2.2208 13.4699 6.74949 8.01974
264 1 -1.1104 9.29248 11.0994 9.36058
268 1 -1.1104 9.2226 5.46316 9.31559
270 1 -1.1104 9.35293 11.0181 12.2056
271 1 -1.1104 9.16957 5.34998 12.2528
272 2 2.2208 7.92253 9.68472 10.8555
273 1 -1.1104 9.44964 8.2161 9.56094
274 2 2.2208 7.97861 12.4529 7.93674
275 2 2.2208 7.93367 6.83412 8.02349
276 2 2.2208 10.7807 6.92639 10.8335
277 2 2.2208 10.7212 12.4491 10.8733
278 1 -1.1104 12.2967 8.24493 12.2545
279 1 -1.1104 12.1022 8.18531 9.44585
280 1 -1.1104 12.0123 5.47966 12.3264
281 1 -1.1104 12.3124 11.0592 12.1101
282 2 2.2208 10.7688 9.50689 8.01207
283 1 -1.1104 12.018 5.35724 9.4658
284 1 -1.1104 12.069 10.9153 9.3537
285 1 -1.1104 9.33786 8.22964 12.2585
318 1 -1.1104 9.24344 19.336 9.42974
319 1 -1.1104 9.42729 13.8945 9.36838
302 1 -1.1104 1.05732 19.4546 6.59268
126 1 -1.1104 3.89639 19.4256 6.7138
296 1 -1.1104 6.4371 19.3256 12.3307
297 1 -1.1104 6.583 13.7675 12.1195
108 1 -1.1104 0.934154 13.9597 6.81339
288 1 -1.1104 6.55865 19.4783 9.50181
290 1 -1.1104 6.60329 13.9236 9.1457
306 1 -1.1104 6.65533 16.7394 12.0018
309 2 2.2208 2.2099 20.74 10.7959
308 1 -1.1104 3.75225 16.6138 12.0453
307 1 -1.1104 1.0094 16.5731 12.226
305 1 -1.1104 3.84753 14.0453 9.32917
304 1 -1.1104 3.77866 16.6972 9.28282
303 2 2.2208 2.38415 18.1322 8.00323
301 1 -1.1104 3.72799 19.473 9.28453
300 2 2.2208 5.25545 18.024 10.7531
299 1 -1.1104 1.01466 13.8293 12.1773
298 1 -1.1104 0.882463 19.4526 12.3111
295 2 2.2208 5.20773 15.2679 7.90311
294 1 -1.1104 1.12299 13.7759 9.44075
310 2 2.2208 2.51148 15.2634 10.6965
293 2 2.2208 5.17119 20.8174 7.98253
292 1 -1.1104 0.967779 16.6994 9.38953
291 1 -1.1104 0.88995 19.4774 9.40025
287 1 -1.1104 3.69724 13.7753 12.1063
286 1 -1.1104 3.54165 19.4028 12.2123
289 1 -1.1104 6.5565 16.6894 9.2882
380 2 2.2208 13.659 17.9797 13.553
231 2 2.2208 7.79707 -4.38055 8.1345
357 2 2.2208 10.637 4.06327 13.7094
362 2 2.2208 13.5222 12.3919 13.6615
345 2 2.2208 13.5489 20.8042 10.9088
53 2 2.2208 13.4527 -4.51347 2.39362
25 2 2.2208 -0.531626 -1.51235 2.39174
392 2 2.2208 13.512 3.91319 -0.175335
348 2 2.2208 5.16422 -1.60045 13.7299
371 2 2.2208 5.20781 15.2948 13.4283
381 2 2.2208 5.11291 1.18583 -0.466016
387 2 2.2208 10.677 1.30156 -0.381259
370 2 2.2208 13.3927 1.22816 13.7326
352 2 2.2208 5.23491 3.98586 13.6283
349 2 2.2208 2.30848 1.10887 13.5511
360 2 2.2208 5.06676 9.57112 13.6238
406 2 2.2208 5.15801 1.16727 16.5019
407 1 -1.1104 0.961166 -3.0929 17.7308
408 1 -1.1104 0.95875 2.54633 17.9302
411 1 -1.1104 0.831005 -2.94982 15.0948
413 1 -1.1104 0.950064 2.49977 14.9178
419 1 -1.1104 0.795596 -0.146476 17.8445
421 2 2.2208 5.03438 -1.54091 19.3137
422 2 2.2208 5.02128 4.00411 19.2962
423 1 -1.1104 0.969653 -0.263989 15.0719
427 1 -1.1104 3.77881 -3.11978 17.9964
428 1 -1.1104 3.78557 2.46171 17.7184
429 2 2.2208 2.25621 1.13984 19.1741
430 1 -1.1104 3.609 -2.78748 15.1807
432 1 -1.1104 3.78566 2.59868 14.9791
434 2 2.2208 2.12738 -1.65965 16.5168
435 2 2.2208 2.35782 3.86734 16.431
436 1 -1.1104 3.66436 -0.294978 17.7842
437 1 -1.1104 3.71953 -0.172978 14.957
414 1 -1.1104 0.955748 2.66605 20.7432
425 1 -1.1104 6.62526 -0.245822 15.1429
420 1 -1.1104 6.54911 -0.294817 18.0668
412 1 -1.1104 0.71869 -2.70621 20.651
409 1 -1.1104 6.54723 -3.0418 17.9221
410 1 -1.1104 6.52573 2.58933 17.9572
418 1 -1.1104 6.44396 2.67792 20.7605
415 1 -1.1104 6.45422 -2.88516 15.1745
438 1 -1.1104 3.78655 -0.262015 20.7423
605 2 2.2208 13.6822 17.9128 24.7
417 1 -1.1104 6.49821 2.41068 15.0544
578 2 2.2208 13.5709 1.31372 19.2135
433 1 -1.1104 3.61823 2.42021 20.6457
426 1 -1.1104 6.71424 -0.282809 20.8192
431 1 -1.1104 3.59331 -2.99269 20.7817
543 2 2.2208 13.6152 9.49444 16.4135
592 1 -1.1104 11.9616 16.5007 20.5687
449 2 2.2208 10.7609 1.27408 16.5469
450 1 -1.1104 12.1709 -3.13357 18.0059
451 1 -1.1104 12.0815 2.59279 17.9586
452 1 -1.1104 12.0767 -2.99504 15.1083
454 1 -1.1104 12.0853 2.59692 15.1057
456 1 -1.1104 12.1954 -0.300855 17.8498
457 2 2.2208 10.8216 -1.55684 19.2251
459 1 -1.1104 12.1883 -0.307942 15.167
461 1 -1.1104 9.22522 -3.04199 17.9386
462 1 -1.1104 9.38148 2.52039 17.8515
463 2 2.2208 7.92302 1.14955 19.3966
464 1 -1.1104 9.18353 -2.97888 14.983
466 1 -1.1104 9.40072 2.56731 15.0928
468 2 2.2208 7.96361 -1.57479 16.4706
469 2 2.2208 7.83266 3.90419 16.5408
470 1 -1.1104 9.29858 -0.232296 17.8609
471 1 -1.1104 9.45404 -0.234807 15.0495
458 2 2.2208 10.6943 3.96009 19.3857
453 1 -1.1104 12.1764 -2.94868 20.7338
460 1 -1.1104 12.13 -0.0884877 20.6294
579 2 2.2208 13.6568 3.98422 16.4165
477 2 2.2208 13.6235 -1.60037 16.4662
467 1 -1.1104 9.29512 2.6272 20.7476
702 2 2.2208 -0.431755 9.75157 24.6537
465 1 -1.1104 9.29618 -2.95169 20.7492
354 2 2.2208 13.574 -4.49323 13.7914
398 2 2.2208 10.8111 6.90411 27.6802
383 2 2.2208 2.41125 3.92381 27.7431
482 2 2.2208 5.1181 6.69343 16.4113
483 2 2.2208 5.0981 12.4369 16.362
484 1 -1.1104 0.984951 8.03606 17.9089
486 1 -1.1104 0.886321 8.14183 15.063
490 1 -1.1104 0.885415 5.13069 18.0244
491 1 -1.1104 0.998492 10.9777 17.9314
494 2 2.2208 5.2529 9.48907 19.1885
495 1 -1.1104 0.961766 5.33167 15.0205
497 1 -1.1104 0.894177 11.0644 15.0167
503 1 -1.1104 3.99292 8.21409 17.9229
504 2 2.2208 2.28695 6.80608 19.3762
505 2 2.2208 2.37505 12.3696 19.2596
506 1 -1.1104 3.7689 8.15415 15.0506
508 2 2.2208 2.38582 9.68308 16.4309
509 1 -1.1104 3.63667 5.4252 17.7288
510 1 -1.1104 3.79702 10.922 17.8694
511 1 -1.1104 3.83999 5.30514 15.1216
513 1 -1.1104 3.62809 11.0061 15.089
496 1 -1.1104 0.89153 5.45861 20.7621
485 1 -1.1104 6.64534 7.96411 17.7987
499 1 -1.1104 6.55677 5.2926 15.0728
501 1 -1.1104 6.40173 11.0149 14.9231
498 1 -1.1104 0.94844 10.9481 20.5362
493 1 -1.1104 6.58157 10.8825 17.7211
492 1 -1.1104 6.45154 5.31257 18.0389
487 1 -1.1104 0.833465 8.20735 20.7496
489 1 -1.1104 6.49077 8.19037 20.7484
502 1 -1.1104 6.6518 11.1315 20.5293
512 1 -1.1104 3.68407 5.47956 20.7966
514 1 -1.1104 3.84405 10.9484 20.6306
507 1 -1.1104 3.73126 8.14099 20.7437
500 1 -1.1104 6.38335 5.35381 20.7235
475 2 2.2208 7.81901 -4.39027 19.3876
704 1 -1.1104 9.39824 16.5898 26.2422
488 1 -1.1104 6.48916 8.2848 14.8123
518 2 2.2208 10.7562 6.76118 16.4695
519 2 2.2208 10.7641 12.4132 16.3233
520 1 -1.1104 12.2231 8.03509 17.7324
521 1 -1.1104 12.159 8.31432 14.9766
523 1 -1.1104 12.2537 5.45232 17.9188
524 1 -1.1104 12.2163 10.9786 17.7434
525 2 2.2208 10.6803 9.46251 19.1448
526 1 -1.1104 12.0929 5.33852 15.1213
528 1 -1.1104 12.138 11.0179 14.9183
530 1 -1.1104 9.27545 8.16384 17.8102
531 2 2.2208 7.87754 6.66534 19.315
532 2 2.2208 8.05295 12.2804 19.1132
533 1 -1.1104 9.25073 8.16272 15.081
535 2 2.2208 7.74911 9.5353 16.3885
536 1 -1.1104 9.35966 5.44121 17.7853
537 1 -1.1104 9.40214 10.8483 17.8175
538 1 -1.1104 9.25743 5.42235 15.1246
540 1 -1.1104 9.26277 10.9757 14.8788
527 1 -1.1104 12.0248 5.41966 20.763
529 1 -1.1104 12.237 10.9208 20.6142
403 2 2.2208 2.32031 15.3332 27.6885
542 2 2.2208 13.6497 6.82566 19.252
634 1 -1.1104 12.2312 13.8167 26.3171
539 1 -1.1104 9.17125 5.32054 20.671
534 1 -1.1104 9.29807 8.01625 20.723
635 1 -1.1104 12.2767 19.2898 26.0794
636 1 -1.1104 12.2402 16.485 23.3703
607 2 2.2208 10.6834 17.9104 21.9264
545 2 2.2208 5.19852 17.9847 16.3927
546 1 -1.1104 1.01077 13.7025 17.8976
547 1 -1.1104 0.961764 19.3127 17.7545
550 1 -1.1104 1.00788 13.9179 15.1105
552 1 -1.1104 0.964084 19.3638 14.9097
558 1 -1.1104 0.964634 16.5685 17.9234
560 2 2.2208 5.21356 15.2017 19.1033
561 2 2.2208 5.21418 20.823 19.1251
562 1 -1.1104 1.00349 16.6604 15.0803
566 1 -1.1104 3.68809 13.9057 17.8581
567 1 -1.1104 3.76125 19.3318 17.9181
568 2 2.2208 2.40163 18.0105 19.0973
569 1 -1.1104 3.79258 13.64 14.9573
571 1 -1.1104 3.80247 19.2688 15.011
573 2 2.2208 2.40038 15.1459 16.4658
574 2 2.2208 2.41634 20.8107 16.432
575 1 -1.1104 3.87272 16.6588 17.7491
576 1 -1.1104 3.69706 16.2977 14.8132
548 1 -1.1104 6.54118 13.5592 17.7248
564 1 -1.1104 6.54082 16.5578 14.8727
559 1 -1.1104 6.63749 16.4489 17.7071
556 1 -1.1104 6.54111 19.4126 14.9466
554 1 -1.1104 6.50304 13.8181 14.8531
549 1 -1.1104 6.48832 19.4103 17.6542
572 1 -1.1104 3.83095 19.5405 20.6636
551 1 -1.1104 0.865962 13.7247 20.6668
565 1 -1.1104 6.34286 16.5786 20.5226
577 1 -1.1104 3.6941 16.4847 20.5469
570 1 -1.1104 3.80916 13.6747 20.6025
553 1 -1.1104 1.12148 19.4561 20.6101
563 1 -1.1104 0.879313 16.4701 20.5676
378 2 2.2208 10.8357 17.9584 27.5365
726 2 2.2208 13.6032 12.3841 24.8544
474 2 2.2208 10.743 -4.4087 16.5952
379 2 2.2208 7.93754 20.8718 27.5851
585 1 -1.1104 12.2787 13.8247 20.4611
581 2 2.2208 10.75 18.0378 16.3169
582 1 -1.1104 12.1476 13.7926 17.6905
583 1 -1.1104 11.9785 19.4379 17.8232
584 1 -1.1104 12.2009 13.7815 14.9959
586 1 -1.1104 12.1411 19.543 15.0017
588 1 -1.1104 12.2935 16.5488 17.7429
589 2 2.2208 10.759 15.2077 19.1688
590 2 2.2208 10.7081 20.8102 19.2089
591 1 -1.1104 12.227 16.5864 14.8267
593 1 -1.1104 9.41096 13.6772 17.7016
594 1 -1.1104 9.0767 19.3007 17.6718
595 2 2.2208 7.97845 17.932 19.1226
596 1 -1.1104 9.40859 13.7327 14.9902
598 1 -1.1104 9.43694 19.4034 15.0339
600 2 2.2208 7.99112 15.157 16.3885
601 2 2.2208 7.89453 20.7664 16.3167
602 1 -1.1104 9.46778 16.6007 17.7586
603 1 -1.1104 9.28503 16.6092 15.0089
479 2 2.2208 13.5448 17.9636 19.1366
604 1 -1.1104 9.16562 16.6607 20.4695
599 1 -1.1104 9.28201 19.4226 20.448
587 1 -1.1104 12.1342 19.2238 20.5732
633 1 -1.1104 12.358 19.4356 23.3835
700 2 2.2208 8.00338 20.7478 21.9562
416 1 -1.1104 6.34306 -2.95176 20.6919
638 2 2.2208 10.7826 15.125 24.9329
606 2 2.2208 13.6079 20.7459 21.9708
424 1 -1.1104 0.839287 -0.147762 20.575
609 2 2.2208 5.08264 1.17523 22.13
610 1 -1.1104 0.892427 -2.9726 23.4562
611 1 -1.1104 0.872145 2.54432 23.5063
614 1 -1.1104 0.978612 -3.18637 26.3563
615 1 -1.1104 0.963755 2.57622 26.2308
618 1 -1.1104 0.796285 -0.290959 23.4336
620 2 2.2208 5.09454 -1.8475 24.9012
621 2 2.2208 5.08692 4.09988 24.9034
622 1 -1.1104 1.08581 -0.216231 26.2258
624 1 -1.1104 3.54769 -3.09274 23.5747
625 1 -1.1104 3.68965 2.67483 23.4373
626 2 2.2208 2.3986 1.20696 24.8734
627 1 -1.1104 3.64358 -3.15955 26.3298
628 1 -1.1104 3.72156 2.63082 26.1418
629 2 2.2208 2.29302 -1.6433 22.1722
630 2 2.2208 2.21741 4.02915 22.0747
631 1 -1.1104 3.66264 -0.265872 23.5023
632 1 -1.1104 3.81557 -0.318665 26.2455
623 1 -1.1104 6.3944 -0.407635 26.3676
612 1 -1.1104 6.49829 -3.00825 23.4988
619 1 -1.1104 6.50202 -0.31155 23.5019
616 1 -1.1104 6.37752 -3.08093 26.2937
613 1 -1.1104 6.41222 2.46554 23.6587
617 1 -1.1104 6.54519 2.6468 26.2741
399 2 2.2208 8.08386 9.70952 27.497
608 1 -1.1104 12.2635 13.7692 23.4503
517 2 2.2208 13.6602 12.3466 19.1709
374 2 2.2208 13.6568 15.1739 27.5894
673 1 -1.1104 9.24733 13.8604 26.2533
455 1 -1.1104 12.0421 2.80735 20.8882
472 1 -1.1104 9.43291 -0.195668 20.5779
701 1 -1.1104 9.36652 16.464 23.4479
739 1 -1.1104 6.52772 13.5623 23.2702
672 2 2.2208 13.6122 1.14032 24.8829
671 2 2.2208 13.5111 -1.58545 22.1169
645 2 2.2208 10.7394 1.117 22.1839
646 1 -1.1104 12.2684 -3.14711 23.3761
647 1 -1.1104 12.1416 2.70221 23.6125
648 1 -1.1104 12.0916 -3.06895 26.24
649 1 -1.1104 12.0519 2.59386 26.3467
650 1 -1.1104 12.004 -0.320045 23.5645
651 2 2.2208 10.6574 -1.40457 24.9611
652 2 2.2208 10.7789 4.02029 24.9723
653 1 -1.1104 11.9795 -0.0725884 26.324
654 1 -1.1104 9.37104 -2.92463 23.5321
655 1 -1.1104 9.33551 2.66056 23.6493
656 2 2.2208 7.76336 1.09921 25.0194
657 1 -1.1104 9.18747 -2.89683 26.3562
658 1 -1.1104 9.29036 2.70678 26.2755
659 2 2.2208 7.9232 -1.59939 22.1123
661 1 -1.1104 9.17373 -0.210685 23.5758
662 1 -1.1104 9.25142 -0.209331 26.4617
660 2 2.2208 7.86113 3.95854 22.1819
446 2 2.2208 13.5692 4.00768 22.1968
698 1 -1.1104 9.31116 19.253 26.0172
663 1 -1.1104 12.2425 16.5529 26.1783
665 1 -1.1104 9.45758 19.3534 23.1782
674 2 2.2208 5.15096 6.7957 22.1752
675 2 2.2208 5.0986 12.3472 21.834
676 1 -1.1104 1.04539 8.18349 23.4725
678 1 -1.1104 1.06975 8.22144 26.2934
680 1 -1.1104 0.932665 5.35417 23.5374
681 1 -1.1104 1.04601 10.9607 23.518
684 2 2.2208 5.25539 9.62261 24.7899
685 1 -1.1104 1.04539 5.41407 26.2652
686 1 -1.1104 0.814057 10.9889 26.3681
689 1 -1.1104 3.85298 8.19645 23.508
690 2 2.2208 2.34773 6.8241 24.8529
691 2 2.2208 2.41861 12.3613 24.8615
692 1 -1.1104 3.8406 8.38134 26.3054
693 2 2.2208 2.31762 9.54394 21.9532
694 1 -1.1104 3.67095 5.2665 23.4881
695 1 -1.1104 3.86069 11.0934 23.4759
696 1 -1.1104 3.82942 5.50594 26.3659
697 1 -1.1104 3.57351 11.1478 26.4195
682 1 -1.1104 6.62878 5.37477 23.4347
679 1 -1.1104 6.74996 8.21945 26.2413
677 1 -1.1104 6.58516 8.17818 23.5213
687 1 -1.1104 6.65326 5.47807 26.2326
683 1 -1.1104 6.63632 10.7551 23.3537
641 2 2.2208 10.776 20.8734 24.7092
445 2 2.2208 13.6345 9.63887 22.0022
541 1 -1.1104 9.3482 10.8271 20.6164
688 1 -1.1104 6.57339 11.0845 26.0782
522 1 -1.1104 12.2965 8.30377 20.5458
664 1 -1.1104 9.26394 13.8437 23.3805
705 1 -1.1104 9.38501 11.1172 26.1657
706 1 -1.1104 9.41126 5.5259 26.2964
707 1 -1.1104 9.43207 11.2568 23.3713
708 1 -1.1104 9.38157 5.54315 23.3771
709 2 2.2208 7.97665 9.50493 22.0927
710 1 -1.1104 9.46325 8.25863 26.1627
711 2 2.2208 7.92592 12.5121 24.8032
712 2 2.2208 8.05602 6.86678 24.7131
713 2 2.2208 10.8201 6.77966 22.16
714 2 2.2208 10.7692 12.4291 22.0191
715 1 -1.1104 12.1817 8.20597 23.5223
716 1 -1.1104 12.2202 8.2509 26.4241
717 1 -1.1104 12.2548 5.49957 23.5749
718 1 -1.1104 12.2771 11.0883 23.4534
719 2 2.2208 10.8613 9.73834 24.7972
720 1 -1.1104 12.2126 5.46672 26.4055
721 1 -1.1104 12.2249 11.0702 26.1808
722 1 -1.1104 9.46355 8.25483 23.4655
728 2 2.2208 13.5709 6.87139 24.903
402 2 2.2208 13.5898 9.49866 27.702
555 1 -1.1104 6.72665 13.9269 20.462
557 1 -1.1104 6.54139 19.3255 20.5049
732 1 -1.1104 6.44599 16.6432 26.1881
747 1 -1.1104 6.4786 16.5532 23.4794
730 1 -1.1104 6.52252 13.8806 26.2436
746 1 -1.1104 3.70014 13.8705 26.0735
745 1 -1.1104 3.7009 16.7325 26.1505
744 2 2.2208 2.36093 18.0191 24.7884
743 1 -1.1104 3.71809 19.5659 26.1687
750 2 2.2208 2.29508 20.8371 22.0024
749 1 -1.1104 3.61436 16.7818 23.2841
748 1 -1.1104 0.844911 16.563 23.4302
727 2 2.2208 2.4072 15.1289 22.0304
729 1 -1.1104 3.69147 19.4314 23.3889
731 1 -1.1104 3.73609 13.8746 23.2849
733 1 -1.1104 1.00688 19.2853 26.3061
734 1 -1.1104 0.938596 16.5909 26.3379
735 1 -1.1104 0.895273 13.871 26.2056
737 2 2.2208 5.17086 20.8419 24.7318
738 2 2.2208 5.14716 15.1892 24.655
740 1 -1.1104 1.07252 19.4592 23.4287
741 1 -1.1104 0.921369 13.8846 23.3858
742 2 2.2208 5.14081 18.0281 21.9271
736 1 -1.1104 6.64654 19.4491 23.4495
670 1 -1.1104 6.48259 19.4355 26.2515
405 2 2.2208 2.47093 20.8526 27.6406
699 2 2.2208 7.93636 15.1524 21.9715
667 2 2.2208 8.00791 17.9782 24.7694
580 2 2.2208 13.6257 15.1264 21.8751
597 1 -1.1104 9.51182 13.8537 20.5864
473 2 2.2208 13.5964 -4.3623 19.426
404 2 2.2208 5.08075 18.0088 27.6756
400 2 2.2208 10.7627 12.3973 27.6915
388 2 2.2208 7.82992 -1.63764 27.8432
394 2 2.2208 2.39661 9.61507 27.6911
395 2 2.2208 5.10553 12.4729 27.5856
375 2 2.2208 13.6823 20.7072 27.6429
480 2 2.2208 13.5521 15.1883 16.3884
377 2 2.2208 7.86098 15.2291 27.6057
356 2 2.2208 10.7836 -1.64108 13.6771
393 2 2.2208 5.26796 7.08005 27.6954
359 2 2.2208 2.37192 6.63722 13.5563
382 2 2.2208 2.34913 -1.6439 27.6917
389 2 2.2208 7.93862 4.12052 27.7039
368 2 2.2208 2.4003 17.9593 13.6706
751 2 2.2208 5.30433 23.6402 5.18541
752 2 2.2208 5.18737 29.2827 5.21382
753 1 -1.1104 1.04993 25.0803 1.10859
754 1 -1.1104 0.904432 24.9837 3.7304
755 1 -1.1104 0.969317 22.3228 1.02646
756 1 -1.1104 1.03317 28.0226 0.914137
757 2 2.2208 5.24141 26.5268 2.33273
758 1 -1.1104 1.13817 22.1654 3.65935
759 1 -1.1104 1.08337 27.7979 3.70871
760 1 -1.1104 3.68217 25.0734 1.02592
761 2 2.2208 2.35263 23.6409 2.39103
762 2 2.2208 2.40715 29.2744 2.44852
763 1 -1.1104 3.84404 24.993 3.7967
764 2 2.2208 2.36173 26.4556 5.16048
765 1 -1.1104 3.81935 22.2754 0.911592
766 1 -1.1104 3.79203 27.8732 0.946278
767 1 -1.1104 3.83159 22.2113 3.84544
768 1 -1.1104 3.82336 27.8107 3.71097
895 1 -1.1104 0.95061 27.8911 6.60723
773 1 -1.1104 6.54098 24.9879 3.78634
772 1 -1.1104 6.56829 24.976 1.04911
892 1 -1.1104 0.94993 25.1314 6.54339
774 1 -1.1104 6.53819 22.0534 0.987823
775 1 -1.1104 6.59136 27.7045 0.941082
777 1 -1.1104 6.71303 27.7822 3.56763
776 1 -1.1104 6.81954 22.218 3.8801
898 1 -1.1104 3.92688 24.9382 6.7334
899 1 -1.1104 3.7158 22.1527 6.64827
896 1 -1.1104 6.516 22.2622 6.63855
1117 2 2.2208 13.6278 43.1939 -0.109132
1112 2 2.2208 13.6862 23.6398 13.586
778 2 2.2208 10.7562 23.644 5.24865
779 2 2.2208 10.7855 29.1833 5.10737
780 1 -1.1104 12.173 25.0073 0.940425
781 1 -1.1104 12.3086 24.9993 3.87715
782 1 -1.1104 12.2739 22.0832 0.888897
783 1 -1.1104 12.2155 27.8338 1.10955
784 2 2.2208 10.8252 26.3959 2.37789
785 1 -1.1104 12.0965 22.2422 3.74186
786 1 -1.1104 12.1962 27.9121 3.63968
787 1 -1.1104 9.35835 24.9626 0.986234
788 2 2.2208 8.09139 23.5323 2.41324
789 2 2.2208 8.01649 29.2151 2.43324
790 1 -1.1104 9.43591 25.0407 3.81779
791 2 2.2208 8.01269 26.3511 5.01399
792 1 -1.1104 9.40779 22.2454 0.969871
793 1 -1.1104 9.44012 27.6894 1.03158
794 1 -1.1104 9.48715 22.1172 3.73556
795 1 -1.1104 9.49393 27.8175 3.87468
1085 1 -1.1104 12.3264 47.0835 6.61817
1897 3 0 9.81975 47.1652 11.1645
1084 1 -1.1104 6.93553 47.25 9.4036
925 1 -1.1104 12.1004 25.0981 6.48557
1070 2 2.2208 13.5466 26.5128 10.7501
799 2 2.2208 5.19833 34.8317 5.12396
800 1 -1.1104 0.852102 30.731 0.949678
801 1 -1.1104 1.04305 36.3153 0.924862
803 1 -1.1104 1.04616 30.7643 3.59413
804 1 -1.1104 0.875161 36.1918 3.78485
806 1 -1.1104 0.903086 33.498 0.971691
807 2 2.2208 5.08531 31.9611 2.30157
808 2 2.2208 5.15008 37.5193 2.3073
809 1 -1.1104 1.01219 33.3356 3.75218
811 1 -1.1104 3.77165 30.7207 0.796865
812 1 -1.1104 3.67703 36.1157 0.915477
813 2 2.2208 2.391 34.7525 2.39106
814 1 -1.1104 3.66583 30.6531 3.78879
815 1 -1.1104 3.75757 36.1474 3.93667
816 2 2.2208 2.35698 32.0774 5.1525
817 2 2.2208 2.40441 37.6303 5.20472
818 1 -1.1104 3.74342 33.2852 0.944326
819 1 -1.1104 3.75121 33.3493 3.69855
949 1 -1.1104 0.993282 30.5947 6.58514
956 1 -1.1104 3.82754 36.0887 6.65695
824 1 -1.1104 6.54133 30.6199 3.7913
802 1 -1.1104 6.51529 36.144 0.832316
957 1 -1.1104 3.74898 33.4554 6.45528
805 1 -1.1104 6.74857 36.1907 3.61597
810 1 -1.1104 6.66901 33.3818 3.74371
953 1 -1.1104 0.938171 33.5147 6.56378
825 1 -1.1104 6.53596 33.1517 0.843155
950 1 -1.1104 0.895561 36.2603 6.46656
955 1 -1.1104 3.82435 30.631 6.54073
1480 1 -1.1104 6.6203 47.4575 1.24941
823 1 -1.1104 6.58338 30.3279 1.0044
826 2 2.2208 10.8984 34.8187 5.21055
827 1 -1.1104 12.2992 30.5754 0.979875
828 1 -1.1104 12.1453 36.2424 0.939238
829 1 -1.1104 12.2043 30.6583 3.77682
830 1 -1.1104 12.2786 36.2991 3.82488
831 1 -1.1104 12.1143 33.4942 0.971498
832 2 2.2208 10.8572 32.004 2.339
833 2 2.2208 10.704 37.5822 2.41906
834 1 -1.1104 12.1962 33.3876 3.88546
835 1 -1.1104 9.50531 30.5025 1.18478
836 1 -1.1104 9.34888 36.136 1.05222
837 2 2.2208 8.03626 34.6565 2.19952
838 1 -1.1104 9.34377 30.5329 3.91275
839 1 -1.1104 9.46381 36.1575 3.83387
840 2 2.2208 8.02795 31.9402 5.16257
841 2 2.2208 7.97299 37.5619 5.23417
842 1 -1.1104 9.42265 33.3843 1.06249
843 1 -1.1104 9.45515 33.2777 3.71739
1067 2 2.2208 13.6865 37.707 5.35539
1477 1 -1.1104 0.947127 47.6096 0.958802
1081 2 2.2208 13.7342 40.4043 8.05102
952 1 -1.1104 6.6102 36.2348 6.51159
983 1 -1.1104 12.2761 30.653 6.51359