LAMMPS (29 Oct 2020)
OMP_NUM_THREADS environment is not set. Defaulting to 1 thread. (../comm.cpp:94)
  using 1 OpenMP thread(s) per MPI task
OMP_NUM_THREADS environment is not set. Defaulting to 1 thread. (../comm.cpp:94)
  using 1 OpenMP thread(s) per MPI task
Reading data file ...
  orthogonal box = (-0.40173553 -4.9729997 -0.41830695) to (27.741736 333.05300 27.758307)
  2 by 13 by 2 MPI processor grid
  reading atoms ...
  17760 atoms
  reading velocities ...
  17760 velocities
Finding 1-2 1-3 1-4 neighbors ...
  special bond factors lj:    0.0      0.0      0.0     
  special bond factors coul:  0.0      0.0      0.0     
     0 = max # of 1-2 neighbors
     0 = max # of 1-3 neighbors
     0 = max # of 1-4 neighbors
     1 = max # of special neighbors
  special bonds CPU = 0.004 seconds
  read_data CPU = 0.068 seconds
WARNING: 13 of 1000 force values in table Xe-Xe are inconsistent with -dE/dr.
  Should only be flagged at inflection points (../pair_table.cpp:461)
WARNING: 2 of 1000 force values in table Xe-O are inconsistent with -dE/dr.
  Should only be flagged at inflection points (../pair_table.cpp:461)
WARNING: 2 of 1000 force values in table Xe-Th are inconsistent with -dE/dr.
  Should only be flagged at inflection points (../pair_table.cpp:461)
Setting atom values ...
  11760 settings made for charge
Setting atom values ...
  5880 settings made for charge
Setting atom values ...
  120 settings made for charge
PPPM initialization ...
  using 12-bit tables for long-range coulomb (../kspace.cpp:328)
  G vector (1/distance) = 0.29860018
  grid = 40 240 40
  stencil order = 5
  estimated absolute RMS force accuracy = 0.0001573825
  estimated relative force accuracy = 1.092961e-05
  using single precision MKL FFT
  3d grid and FFT values/proc = 18225 7600
Neighbor list info ...
  update every 1 steps, delay 0 steps, check yes
  max neighbors/atom: 2000, page size: 100000
  master list distance cutoff = 13
  ghost atom cutoff = 13
  binsize = 6.5, bins = 5 53 5
  3 neighbor lists, perpetual/occasional/extra = 3 0 0
  (1) pair coul/long, perpetual
      attributes: half, newton on
      pair build: half/bin/newton
      stencil: half/bin/3d/newton
      bin: standard
  (2) pair eam/alloy, perpetual, skip from (1)
      attributes: half, newton on
      pair build: skip
      stencil: none
      bin: none
  (3) pair table, perpetual, skip from (1)
      attributes: half, newton on
      pair build: skip
      stencil: none
      bin: none
Setting up Verlet run ...
  Unit style    : metal
  Current step  : 0
  Time step     : 0.001
Per MPI rank memory allocation (min/avg/max) = 9.252 | 9.932 | 10.04 Mbytes
Step Temp E_pair E_mol TotEng Press 
       0          900   -229689.08            0    -227623.1    339.09794 
  100000    886.00773   -229655.08            0   -227621.22    1144.7739 
Loop time of 725.385 on 52 procs for 100000 steps with 17760 atoms

Performance: 11.911 ns/day, 2.015 hours/ns, 137.858 timesteps/s
99.8% CPU use with 52 MPI tasks x 1 OpenMP threads

MPI task timing breakdown:
Section |  min time  |  avg time  |  max time  |%varavg| %total
---------------------------------------------------------------
Pair    | 509.02     | 524.55     | 543.9      |  36.7 | 72.31
Bond    | 0.0088986  | 0.013387   | 0.019135   |   1.7 |  0.00
Kspace  | 153.48     | 170.07     | 185.13     |  59.8 | 23.44
Neigh   | 3.0756     | 3.334      | 3.5549     |   5.7 |  0.46
Comm    | 20.371     | 22.501     | 25.217     |  23.0 |  3.10
Output  | 5.7314e-05 | 6.2598e-05 | 0.00026547 |   0.0 |  0.00
Modify  | 2.225      | 3.0126     | 5.1123     |  62.1 |  0.42
Other   |            | 1.902      |            |       |  0.26

Nlocal:        341.538 ave         367 max         325 min
Histogram: 3 3 17 7 5 11 2 0 3 1
Nghost:        5524.50 ave        5698 max        5314 min
Histogram: 6 13 1 0 1 7 0 4 4 16
Neighs:       106572.0 ave      115715 max       93294 min
Histogram: 1 3 1 2 6 14 11 8 2 4

Total # of neighbors = 5541742
Ave neighs/atom = 312.03502
Ave special neighs/atom = 0.0000000
Neighbor list builds = 1095
Dangerous builds = 0
11760 atoms in group oxygen
PPPM initialization ...
  using 12-bit tables for long-range coulomb (../kspace.cpp:328)
  G vector (1/distance) = 0.29860018
  grid = 40 240 40
  stencil order = 5
  estimated absolute RMS force accuracy = 0.0001573825
  estimated relative force accuracy = 1.092961e-05
  using single precision MKL FFT
  3d grid and FFT values/proc = 18225 7600
Neighbor list info ...
  update every 1 steps, delay 0 steps, check yes
  max neighbors/atom: 2000, page size: 100000
  master list distance cutoff = 13
  ghost atom cutoff = 13
  binsize = 6.5, bins = 5 53 5
  3 neighbor lists, perpetual/occasional/extra = 3 0 0
  (1) pair coul/long, perpetual
      attributes: half, newton on
      pair build: half/bin/newton
      stencil: half/bin/3d/newton
      bin: standard
  (2) pair eam/alloy, perpetual, skip from (1)
      attributes: half, newton on
      pair build: skip
      stencil: none
      bin: none
  (3) pair table, perpetual, skip from (1)
      attributes: half, newton on
      pair build: skip
      stencil: none
      bin: none
Setting up Verlet run ...
  Unit style    : metal
  Current step  : 0
  Time step     : 0.001
Per MPI rank memory allocation (min/avg/max) = 9.504 | 10.18 | 10.29 Mbytes
Step f_2 Temp v_Tdiff v_deltaT 
       0            0    886.00773            0            0 
  100000    1009.7177    894.22376  0.032059466    372.20743 
  200000    1962.9248    896.08543  0.037543805    435.88009 
  300000    2926.1776    899.24692  0.037437935    434.65095 
  400000    3884.1203    903.42351  0.037021759    429.81918 
  500000    4843.1532    896.68368  0.037189789       431.77 
  600000    5802.3829    900.51797  0.036850341    427.82904 
  700000    6763.6598    903.84889  0.035823582    415.90846 
  800000    7717.5946    906.94718  0.037239484    432.34696 
  900000    8678.9684    900.48334  0.037523926     435.6493 
 1000000    9632.0238     898.5405  0.038005626    441.24179 
Loop time of 7282.66 on 52 procs for 1000000 steps with 17760 atoms

Performance: 11.864 ns/day, 2.023 hours/ns, 137.312 timesteps/s
99.9% CPU use with 52 MPI tasks x 1 OpenMP threads

MPI task timing breakdown:
Section |  min time  |  avg time  |  max time  |%varavg| %total
---------------------------------------------------------------
Pair    | 5080.2     | 5270       | 5497.9     | 133.8 | 72.36
Bond    | 0.085512   | 0.13648    | 0.18419    |   5.5 |  0.00
Kspace  | 1525.1     | 1721.1     | 1899.5     | 211.7 | 23.63
Neigh   | 32.473     | 35.656     | 38.017     |  23.2 |  0.49
Comm    | 192.6      | 218.5      | 243.41     |  73.1 |  3.00
Output  | 0.0011381  | 0.0012015  | 0.0023733  |   0.5 |  0.00
Modify  | 6.2737     | 6.8859     | 7.6166     |  10.5 |  0.09
Other   |            | 30.32      |            |       |  0.42

Nlocal:        341.538 ave         363 max         321 min
Histogram: 6 3 6 5 5 10 4 5 4 4
Nghost:        5521.85 ave        5686 max        5307 min
Histogram: 4 9 7 0 0 9 3 0 0 20
Neighs:       106607.0 ave      114873 max       92622 min
Histogram: 1 4 2 3 2 4 11 13 8 4

Total # of neighbors = 5543577
Ave neighs/atom = 312.13834
Ave special neighs/atom = 0.0000000
Neighbor list builds = 11752
Dangerous builds = 0
Total wall time: 2:13:28
