ITEM: TIMESTEP
50000
ITEM: NUMBER OF ATOMS
17670
ITEM: BOX BOUNDS pp pp pp
-3.2463096380248102e-01 2.7664630963802114e+01
-3.7589763892571999e+00 3.3183897638927340e+02
-3.1405421007122475e-01 2.7654054210070761e+01
ITEM: ATOMS id type q x y z
1 2 2.2208 5.19621 1.76016 5.12965
2 1 -1.1104 1.04142 -2.4625 0.96073
3 1 -1.1104 1.01951 3.23726 1.01788
6 1 -1.1104 0.972764 -2.18173 3.87023
7 1 -1.1104 1.01705 3.20443 3.83467
10 1 -1.1104 1.01455 0.43015 1.01754
12 2 2.2208 5.19784 -0.993985 2.2914
13 2 2.2208 5.13671 4.63545 2.36862
14 1 -1.1104 1.06678 0.502096 3.85172
16 1 -1.1104 3.85534 -2.4337 0.901776
17 1 -1.1104 3.83797 3.29716 0.970071
18 2 2.2208 2.38574 1.83921 2.3826
19 1 -1.1104 3.81196 -2.39131 3.61644
20 1 -1.1104 3.79466 3.22308 3.84759
21 2 2.2208 2.36542 -0.869784 5.21782
22 2 2.2208 2.37307 4.66447 5.20791
23 1 -1.1104 3.83893 0.421496 1.01185
24 1 -1.1104 3.77814 0.36664 3.75304
15 1 -1.1104 6.55137 0.464507 3.64994
5 1 -1.1104 6.72609 3.20186 0.985424
11 1 -1.1104 6.63272 0.443205 0.909285
167 1 -1.1104 0.984061 3.27812 6.58383
169 1 -1.1104 6.48978 3.16142 6.58343
9 1 -1.1104 6.59393 3.14134 3.71651
172 1 -1.1104 3.75212 -2.30409 6.54648
166 1 -1.1104 1.06858 -2.39388 6.73771
174 1 -1.1104 3.75743 0.477653 6.59469
170 1 -1.1104 0.956839 0.433264 6.60173
173 1 -1.1104 3.73365 3.16316 6.63187
171 1 -1.1104 6.56627 0.448173 6.57823
8 1 -1.1104 6.54078 -2.3644 3.73227
168 1 -1.1104 6.49728 -2.37311 6.47751
9020 2 2.2208 2.38029 -3.72825 13.5748
4 1 -1.1104 6.55522 -2.46128 1.01617
31 2 2.2208 10.6692 1.79638 5.25286
32 1 -1.1104 12.1464 -2.40098 0.94312
33 1 -1.1104 12.1763 3.22601 0.965304
34 1 -1.1104 12.1337 -2.37194 3.71744
35 1 -1.1104 12.1436 3.10658 3.76678
36 1 -1.1104 12.1045 0.357157 0.996212
37 2 2.2208 10.7253 -0.912078 2.40296
38 2 2.2208 10.759 4.59809 2.44527
39 1 -1.1104 12.1209 0.353196 3.79728
40 1 -1.1104 9.34514 -2.27129 0.908494
41 1 -1.1104 9.42735 3.16073 1.1652
42 2 2.2208 7.98145 1.8083 2.30822
43 1 -1.1104 9.33858 -2.33872 3.69531
44 1 -1.1104 9.41791 3.29114 3.92026
45 2 2.2208 7.87571 -0.947085 5.13851
46 2 2.2208 7.98208 4.60217 5.27054
47 1 -1.1104 9.29855 0.444796 1.06031
48 1 -1.1104 9.28169 0.401002 3.77233
209 1 -1.1104 9.29199 3.16995 6.70205
208 1 -1.1104 9.38751 -2.33457 6.54541
210 1 -1.1104 9.36219 0.323215 6.66128
206 1 -1.1104 11.9915 3.21128 6.59627
205 1 -1.1104 12.1781 -2.32382 6.48993
207 1 -1.1104 12.0908 0.550504 6.68957
8997 2 2.2208 10.8137 -3.66495 5.13895
49 2 2.2208 13.4442 1.74848 2.41073
354 2 2.2208 8.04427 7.40591 13.5719
204 2 2.2208 13.5856 15.7387 5.24273
105 2 2.2208 13.6586 7.47435 2.39728
8999 2 2.2208 2.37201 -3.75377 7.91712
54 2 2.2208 5.20533 7.38243 5.20161
55 2 2.2208 5.23426 13.014 5.17304
56 1 -1.1104 0.918082 8.84132 0.938323
58 1 -1.1104 1.02356 8.78202 3.73353
60 1 -1.1104 0.890856 6.08089 0.98865
61 1 -1.1104 1.04288 11.6152 1.09956
66 2 2.2208 5.2212 10.2529 2.43537
67 1 -1.1104 0.989786 6.01062 3.7939
68 1 -1.1104 1.06426 11.5811 3.83457
71 1 -1.1104 3.74866 8.80769 1.08786
72 2 2.2208 2.32641 7.46498 2.32916
73 2 2.2208 2.48624 13.0139 2.35415
74 1 -1.1104 3.82672 8.87114 3.80871
75 2 2.2208 2.38623 10.2435 5.28016
76 1 -1.1104 3.81083 5.98919 0.913956
77 1 -1.1104 3.8702 11.5847 0.97922
79 1 -1.1104 3.8569 6.16063 3.76051
80 1 -1.1104 3.81544 11.7051 3.81089
69 1 -1.1104 6.5956 5.98785 3.80354
59 1 -1.1104 6.53032 8.81496 3.88604
236 1 -1.1104 0.952941 6.02141 6.52845
238 1 -1.1104 3.79174 8.73873 6.62228
239 1 -1.1104 3.76634 6.05169 6.61333
234 1 -1.1104 1.00409 8.78755 6.58229
78 1 -1.1104 3.83256 11.5758 6.57374
62 1 -1.1104 1.14558 11.5699 6.54415
64 1 -1.1104 6.65152 11.6804 0.949439
65 1 -1.1104 6.5454 11.5817 6.54101
57 1 -1.1104 6.60213 8.76435 1.04743
235 1 -1.1104 6.59531 8.81243 6.62156
237 1 -1.1104 6.57937 6.0017 6.56248
28 2 2.2208 13.6417 21.468 10.7929
202 2 2.2208 13.6034 7.51166 7.99002
63 1 -1.1104 6.59157 6.05037 1.09472
70 1 -1.1104 6.67127 11.5479 3.78417
84 2 2.2208 10.7658 7.36847 5.19622
85 2 2.2208 10.8364 12.9884 5.20423
86 1 -1.1104 12.1499 8.77568 0.987852
87 1 -1.1104 12.1113 8.70754 3.78798
88 1 -1.1104 12.1307 5.98443 0.98629
89 1 -1.1104 12.1835 11.5904 0.929106
91 2 2.2208 10.6951 10.0448 2.45629
92 1 -1.1104 12.2736 5.8912 3.70765
93 1 -1.1104 12.2322 11.4702 3.82906
94 1 -1.1104 9.27847 8.74991 1.00479
95 2 2.2208 7.9425 7.40889 2.45788
96 2 2.2208 8.03654 12.9709 2.40149
97 1 -1.1104 9.34006 8.78058 3.87175
98 2 2.2208 7.97485 10.1384 5.31721
99 1 -1.1104 9.44442 5.9798 1.00829
100 1 -1.1104 9.38103 11.4932 0.959099
102 1 -1.1104 9.43299 6.05555 3.82053
103 1 -1.1104 9.39224 11.512 3.71032
266 1 -1.1104 12.1323 6.0841 6.57424
265 1 -1.1104 12.1689 8.82368 6.54475
267 1 -1.1104 9.42087 8.86794 6.6403
232 2 2.2208 13.57 10.2505 5.23221
269 1 -1.1104 9.33557 6.01626 6.61988
101 1 -1.1104 9.3565 11.6674 6.49028
90 1 -1.1104 12.2249 11.6536 6.61293
325 2 2.2208 10.7678 15.8239 7.97418
106 2 2.2208 5.18979 18.5693 5.19015
107 1 -1.1104 1.01416 14.4474 0.981841
109 1 -1.1104 0.950131 19.913 1.00866
113 1 -1.1104 1.01253 14.3686 3.88334
114 1 -1.1104 0.983071 20.0324 3.84451
116 1 -1.1104 0.917749 17.0881 1.0436
119 2 2.2208 5.19396 15.8248 2.35949
120 2 2.2208 5.1932 21.3546 2.4366
121 1 -1.1104 1.01395 17.0928 3.80086
123 1 -1.1104 3.8174 14.405 0.975317
125 1 -1.1104 3.75766 19.9122 0.966698
127 2 2.2208 2.38689 18.4613 2.41992
128 1 -1.1104 3.89977 14.4036 3.75327
129 1 -1.1104 3.84335 19.8863 3.72303
130 2 2.2208 2.50583 15.7226 5.28204
131 2 2.2208 2.44205 21.4172 5.22654
132 1 -1.1104 3.72183 17.1898 0.934817
134 1 -1.1104 3.82869 17.1207 3.80555
117 1 -1.1104 0.975913 17.1011 6.65675
124 1 -1.1104 3.82318 14.3714 6.72966
138 1 -1.1104 6.62367 20.0348 0.982748
115 1 -1.1104 6.74289 14.4021 3.75667
302 1 -1.1104 1.07453 19.8664 6.66737
108 1 -1.1104 1.04476 14.3618 6.67304
133 1 -1.1104 3.86144 17.1978 6.61614
126 1 -1.1104 3.89887 20.0681 6.58677
139 1 -1.1104 6.74213 19.9433 3.82824
110 1 -1.1104 6.58521 14.3816 0.923532
111 1 -1.1104 6.61566 14.4781 6.5699
140 1 -1.1104 6.55517 17.1831 0.987899
122 1 -1.1104 6.59661 17.2004 3.74791
118 1 -1.1104 6.58058 17.2453 6.59864
112 1 -1.1104 6.78039 20.0241 6.69311
141 2 2.2208 10.8681 18.5718 5.23699
142 1 -1.1104 12.258 14.4388 0.924053
144 1 -1.1104 12.214 20.0473 1.12793
146 1 -1.1104 12.1381 14.3213 3.80941
147 1 -1.1104 12.2737 20.0241 3.92211
148 1 -1.1104 12.134 17.2276 0.965747
150 2 2.2208 10.7611 15.8786 2.33809
151 2 2.2208 10.9034 21.3196 2.44516
152 1 -1.1104 12.1553 17.1717 3.81137
153 1 -1.1104 9.42669 14.3971 0.87681
155 1 -1.1104 9.41842 20.1047 1.08875
157 2 2.2208 7.93953 18.5948 2.31196
158 1 -1.1104 9.4258 14.3596 3.73993
159 1 -1.1104 9.57914 19.9448 3.8767
160 2 2.2208 8.03744 15.8028 5.13498
161 2 2.2208 8.11637 21.3247 5.25941
162 1 -1.1104 9.25053 17.2153 0.958773
164 1 -1.1104 9.42174 17.1802 3.83199
143 1 -1.1104 12.2148 14.4234 6.74229
145 1 -1.1104 12.2537 19.9796 6.64611
149 1 -1.1104 12.1644 17.1362 6.65753
156 1 -1.1104 9.47519 19.966 6.66592
163 1 -1.1104 9.43457 17.1616 6.65053
154 1 -1.1104 9.40705 14.4098 6.496
165 2 2.2208 13.5759 18.5917 2.3664
231 2 2.2208 13.6655 21.4099 5.22128
8998 2 2.2208 13.5533 -3.73698 2.39139
341 2 2.2208 5.25917 4.6914 13.6531
333 2 2.2208 13.6385 15.8286 10.7566
175 2 2.2208 5.14791 1.8465 10.7715
176 1 -1.1104 0.960606 -2.26693 12.3113
177 1 -1.1104 1.06469 3.30711 12.2806
180 1 -1.1104 0.979294 -2.36916 9.57038
181 1 -1.1104 0.979734 3.28138 9.4889
184 1 -1.1104 0.997972 0.582862 12.1719
186 2 2.2208 5.15542 -0.967388 8.04498
187 2 2.2208 5.09347 4.59039 7.92757
188 1 -1.1104 1.0549 0.467839 9.45445
190 1 -1.1104 3.73787 -2.38747 12.1395
191 1 -1.1104 3.82287 3.34689 12.2284
192 2 2.2208 2.40372 1.89555 7.94552
193 1 -1.1104 3.86883 -2.24647 9.44963
194 1 -1.1104 3.75376 3.30415 9.45272
195 2 2.2208 2.36097 -0.966184 10.8814
196 2 2.2208 2.3521 4.69362 10.824
197 1 -1.1104 3.69155 0.406541 12.2438
198 1 -1.1104 3.76378 0.588594 9.37163
178 1 -1.1104 6.6002 -2.47893 12.2527
189 1 -1.1104 6.61854 0.423959 9.48479
185 1 -1.1104 6.62087 0.315134 12.2327
339 2 2.2208 2.43809 1.87654 13.5937
182 1 -1.1104 6.60469 -2.47273 9.44125
179 1 -1.1104 6.66682 3.2417 12.1583
363 2 2.2208 13.614 18.646 13.5486
338 2 2.2208 5.17445 -0.967078 13.5722
314 1 -1.1104 9.47278 17.2002 9.47255
330 1 -1.1104 12.2415 14.3403 12.2017
9004 2 2.2208 13.5214 -3.64456 7.96781
183 1 -1.1104 6.6072 3.16585 9.50542
200 2 2.2208 -0.320615 -1.00517 8.01494
211 2 2.2208 10.8168 1.81196 10.7792
212 1 -1.1104 12.187 -2.38239 12.2239
213 1 -1.1104 12.2729 3.22839 12.2183
214 1 -1.1104 12.1664 -2.37384 9.37482
215 1 -1.1104 12.2377 3.23222 9.3964
216 1 -1.1104 12.2417 0.345808 12.2042
217 2 2.2208 10.778 -0.944725 7.9598
218 2 2.2208 10.7493 4.63135 8.00237
219 1 -1.1104 12.1721 0.452918 9.44287
220 1 -1.1104 9.32496 -2.41687 12.2515
221 1 -1.1104 9.49483 3.28581 12.0739
222 2 2.2208 7.95029 1.80973 8.10036
223 1 -1.1104 9.39532 -2.21781 9.43586
224 1 -1.1104 9.43981 3.23529 9.36643
225 2 2.2208 7.92996 -1.03691 10.8212
226 2 2.2208 7.9399 4.69517 10.7316
227 1 -1.1104 9.42309 0.361161 12.2154
228 1 -1.1104 9.32968 0.509486 9.39857
343 2 2.2208 8.02996 1.77771 13.5033
340 2 2.2208 13.5647 1.7977 13.6259
360 2 2.2208 10.8661 21.4589 13.5727
350 2 2.2208 10.8269 4.59637 13.5288
317 2 2.2208 8.03474 15.7247 10.8679
336 2 2.2208 13.5404 7.36298 13.5369
351 2 2.2208 2.43459 7.39771 13.5784
353 2 2.2208 2.47324 12.9728 13.6185
240 2 2.2208 5.21385 7.40208 10.8337
241 2 2.2208 5.31911 13.0311 10.8016
242 1 -1.1104 1.01233 8.79879 12.1559
244 1 -1.1104 0.997865 8.81917 9.3282
246 1 -1.1104 0.955712 6.14764 12.2421
247 1 -1.1104 1.0777 11.6902 12.1962
250 2 2.2208 5.23564 10.1829 7.97863
251 1 -1.1104 0.939086 5.98028 9.28386
252 1 -1.1104 1.06387 11.6691 9.485
255 1 -1.1104 3.8201 8.84024 12.2403
256 2 2.2208 2.45152 7.37113 7.97576
257 2 2.2208 2.46746 12.9328 8.06922
258 1 -1.1104 3.7867 8.80925 9.38836
259 2 2.2208 2.40117 10.1734 10.7981
260 1 -1.1104 3.85959 6.10183 12.187
261 1 -1.1104 3.93349 11.572 12.1855
262 1 -1.1104 3.75578 6.0434 9.4018
263 1 -1.1104 3.82385 11.5578 9.36552
245 1 -1.1104 6.60465 8.81189 9.33984
253 1 -1.1104 6.59368 5.97061 9.28455
243 1 -1.1104 6.70233 8.85829 12.0973
352 2 2.2208 5.26575 10.176 13.5891
356 2 2.2208 8.04983 12.9108 13.5654
248 1 -1.1104 6.52829 6.05916 12.2182
254 1 -1.1104 6.58321 11.6979 9.37604
249 1 -1.1104 6.58942 11.7047 12.2397
264 1 -1.1104 9.42322 11.6178 9.26587
268 1 -1.1104 9.38142 6.16441 9.36713
270 1 -1.1104 9.3547 11.6343 12.0792
271 1 -1.1104 9.42319 5.98747 12.1636
272 2 2.2208 7.98612 10.2598 10.8177
273 1 -1.1104 9.45938 8.93505 9.49915
274 2 2.2208 7.98242 13.0266 7.90003
275 2 2.2208 8.00058 7.47046 8.02178
276 2 2.2208 10.7666 7.49107 10.7847
277 2 2.2208 10.8378 12.9751 10.9152
278 1 -1.1104 12.2215 8.85165 12.1503
279 1 -1.1104 12.2613 8.76867 9.36515
280 1 -1.1104 12.2829 6.00775 12.1465
281 1 -1.1104 12.1858 11.5726 12.2528
282 2 2.2208 10.8687 10.2329 8.03248
283 1 -1.1104 12.1727 6.09868 9.39774
284 1 -1.1104 12.2027 11.6421 9.50821
285 1 -1.1104 9.39167 8.88422 12.2915
52 2 2.2208 13.5564 10.1851 10.8122
355 2 2.2208 10.8843 10.1844 13.6867
320 2 2.2208 8.02735 18.582 7.98555
296 1 -1.1104 6.73674 20.0514 12.2647
295 2 2.2208 5.16219 15.7545 8.05752
294 1 -1.1104 1.10263 14.4525 9.39503
298 1 -1.1104 1.00434 20.0559 12.2222
308 1 -1.1104 3.79306 17.2276 12.2557
303 2 2.2208 2.46886 18.5665 8.0579
307 1 -1.1104 0.992646 17.2427 12.2955
309 2 2.2208 2.44173 21.4024 10.7554
301 1 -1.1104 3.83627 20.0402 9.3552
300 2 2.2208 5.23194 18.5739 10.8191
310 2 2.2208 2.43638 15.8248 10.8528
299 1 -1.1104 1.14554 14.3726 12.1653
305 1 -1.1104 3.84013 14.4043 9.4347
304 1 -1.1104 3.83886 17.1257 9.41285
286 1 -1.1104 3.82766 19.939 12.198
287 1 -1.1104 3.91931 14.4089 12.2654
291 1 -1.1104 1.03246 19.9582 9.48979
292 1 -1.1104 1.07309 17.2311 9.47825
293 2 2.2208 5.25309 21.3843 8.08789
290 1 -1.1104 6.64117 14.4119 9.41635
358 2 2.2208 5.26735 21.4506 13.6402
289 1 -1.1104 6.65952 17.1895 9.37358
359 2 2.2208 5.29232 15.7591 13.6925
9003 2 2.2208 10.7696 -3.65731 10.8203
306 1 -1.1104 6.6529 17.1445 12.1759
288 1 -1.1104 6.59302 19.9563 9.45574
53 2 2.2208 13.6805 13.0289 8.02993
319 1 -1.1104 9.39948 14.3345 9.33453
328 1 -1.1104 12.2284 14.415 9.55481
327 1 -1.1104 12.2723 20.0715 9.38145
331 2 2.2208 10.906 18.6117 10.7628
329 1 -1.1104 12.265 20.0125 12.224
316 2 2.2208 8.0258 21.3653 10.8022
318 1 -1.1104 9.45354 19.9331 9.41072
315 1 -1.1104 9.39869 17.1873 12.219
322 1 -1.1104 9.43547 14.345 12.1271
324 2 2.2208 10.8799 21.4286 8.04982
297 1 -1.1104 6.69394 14.4144 12.3299
361 2 2.2208 10.9503 15.7627 13.5488
326 1 -1.1104 12.261 17.2625 12.1768
362 2 2.2208 8.02972 18.6606 13.593
321 1 -1.1104 9.47358 20.0104 12.1872
323 1 -1.1104 12.2178 17.3086 9.42216
104 2 2.2208 13.5808 12.9319 2.42772
50 2 2.2208 13.5823 -0.943156 5.24067
229 2 2.2208 13.5351 1.9302 8.06124
203 2 2.2208 13.6665 4.62193 10.7802
83 2 2.2208 -0.329478 13.0095 5.17083
51 2 2.2208 -0.271497 13.0881 10.9008
233 2 2.2208 13.5003 4.63487 5.1589
349 2 2.2208 8.01591 21.3742 -0.331711
388 2 2.2208 5.25274 1.81912 16.3503
389 1 -1.1104 1.06745 -2.33641 17.8109
390 1 -1.1104 1.08978 3.35413 17.9089
393 1 -1.1104 1.0331 -2.35998 15.0074
395 1 -1.1104 0.993759 3.19298 15.0535
401 1 -1.1104 1.04009 0.434327 17.7771
403 2 2.2208 5.32774 -1.00291 19.1296
404 2 2.2208 5.27362 4.5713 19.2205
405 1 -1.1104 0.907723 0.477615 15.0545
409 1 -1.1104 3.97081 -2.35976 17.6882
410 1 -1.1104 3.83307 3.18063 17.6752
411 2 2.2208 2.44247 1.79076 19.1515
412 1 -1.1104 3.7723 -2.34275 14.9172
414 1 -1.1104 3.81831 3.24978 14.9262
416 2 2.2208 2.43207 -1.00802 16.4052
417 2 2.2208 2.43648 4.56686 16.3336
418 1 -1.1104 3.78075 0.386571 17.86
419 1 -1.1104 3.87698 0.42144 15.1056
399 1 -1.1104 6.4804 3.12728 14.9552
392 1 -1.1104 6.75353 3.21078 17.6881
406 1 -1.1104 1.04577 0.445195 20.5416
397 1 -1.1104 6.55297 -2.31556 15.0363
415 1 -1.1104 3.89844 3.20054 20.5556
396 1 -1.1104 1.20229 3.19906 20.6785
420 1 -1.1104 3.91603 0.461412 20.6176
413 1 -1.1104 3.86971 -2.3818 20.4353
391 1 -1.1104 6.72603 -2.46849 17.7805
408 1 -1.1104 6.70583 0.365652 20.5136
400 1 -1.1104 6.66386 3.21031 20.5485
348 2 2.2208 10.8096 18.6181 27.5563
345 2 2.2208 13.6403 21.4195 27.6033
430 2 2.2208 13.5997 15.7294 22.0345
651 2 2.2208 13.6812 7.44837 19.1522
407 1 -1.1104 6.66898 0.393976 14.8945
402 1 -1.1104 6.62186 0.440048 17.7725
431 2 2.2208 10.7501 1.77806 16.3903
432 1 -1.1104 12.2228 -2.26921 17.7983
433 1 -1.1104 12.2338 3.10036 17.7334
434 1 -1.1104 12.2348 -2.47156 15.003
436 1 -1.1104 12.2167 3.13664 14.9916
438 1 -1.1104 12.2353 0.427219 17.82
439 2 2.2208 10.9059 -1.02413 19.2805
440 2 2.2208 10.7944 4.58328 19.1192
441 1 -1.1104 12.197 0.343135 15.0002
443 1 -1.1104 9.41827 -2.43723 17.8547
444 1 -1.1104 9.4101 3.32373 17.8118
445 2 2.2208 8.06741 1.84376 19.0946
446 1 -1.1104 9.37893 -2.43571 14.9916
448 1 -1.1104 9.34687 3.24454 14.9158
450 2 2.2208 8.04696 -1.13889 16.3154
451 2 2.2208 8.04039 4.61923 16.3404
452 1 -1.1104 9.3161 0.310142 17.8733
453 1 -1.1104 9.46247 0.310053 15.0241
447 1 -1.1104 9.51331 -2.44554 20.5744
454 1 -1.1104 9.49386 0.411205 20.5317
442 1 -1.1104 12.338 0.430557 20.4962
435 1 -1.1104 12.2852 -2.41561 20.6386
437 1 -1.1104 12.205 3.18128 20.5195
459 2 2.2208 13.5502 -0.96498 16.4652
449 1 -1.1104 9.53522 3.19926 20.5658
455 2 2.2208 13.6877 18.5112 24.7405
429 2 2.2208 13.6681 4.57558 16.4041
462 2 2.2208 10.8428 18.5526 21.8903
464 2 2.2208 5.28833 7.4608 16.3769
465 2 2.2208 5.21221 12.9687 16.4921
466 1 -1.1104 1.05253 8.807 17.776
468 1 -1.1104 1.11313 8.85544 15.0118
472 1 -1.1104 1.01182 6.05186 17.8551
473 1 -1.1104 0.984349 11.5972 17.8129
476 2 2.2208 5.16447 10.2404 19.2104
477 1 -1.1104 1.02045 5.95123 15.0063
479 1 -1.1104 1.09687 11.657 15.0439
485 1 -1.1104 3.75501 8.77059 17.8334
486 2 2.2208 2.51563 7.38132 19.1887
487 2 2.2208 2.46429 12.9637 19.2341
488 1 -1.1104 3.8858 8.72327 15.0569
490 2 2.2208 2.51433 10.193 16.3726
491 1 -1.1104 3.89753 6.0703 17.7076
492 1 -1.1104 3.792 11.5792 17.7857
493 1 -1.1104 3.80414 6.03274 14.9555
495 1 -1.1104 3.89271 11.5565 14.9978
475 1 -1.1104 6.57413 11.5244 17.8393
482 1 -1.1104 6.66581 5.9233 20.6933
469 1 -1.1104 1.00995 8.75857 20.5312
494 1 -1.1104 3.89578 6.03759 20.54
470 1 -1.1104 6.60226 8.8185 14.8885
478 1 -1.1104 0.968367 5.99354 20.6319
471 1 -1.1104 6.70665 8.74076 20.4863
481 1 -1.1104 6.64615 6.02552 15.0776
483 1 -1.1104 6.68459 11.5518 15.0585
480 1 -1.1104 1.09901 11.5905 20.6216
525 2 2.2208 10.8059 15.7892 24.7528
489 1 -1.1104 3.8258 8.78549 20.5696
496 1 -1.1104 3.7962 11.4879 20.5784
526 2 2.2208 10.7937 21.3153 24.8331
498 1 -1.1104 12.1013 14.2693 26.0606
650 2 2.2208 13.5812 13.0181 19.1329
484 1 -1.1104 6.68915 11.5352 20.6477
474 1 -1.1104 6.73786 5.87022 17.9437
467 1 -1.1104 6.68133 8.71074 17.6901
500 2 2.2208 10.9162 7.37187 16.3258
501 2 2.2208 10.7957 12.9823 16.3692
502 1 -1.1104 12.3861 8.8341 17.6691
503 1 -1.1104 12.3073 8.74404 14.9133
505 1 -1.1104 12.2159 6.04543 17.7514
506 1 -1.1104 12.1737 11.5126 17.7435
507 2 2.2208 10.8237 10.1459 19.1693
508 1 -1.1104 12.1421 6.05228 14.9814
510 1 -1.1104 12.2288 11.6399 14.847
512 1 -1.1104 9.41464 8.71467 17.735
513 2 2.2208 8.07395 7.38795 19.1215
514 2 2.2208 8.07461 12.8975 19.1849
515 1 -1.1104 9.40376 8.76249 15.0315
517 2 2.2208 8.00277 10.1275 16.3975
518 1 -1.1104 9.51432 6.05912 17.6057
519 1 -1.1104 9.38749 11.5612 17.7942
520 1 -1.1104 9.27033 5.92032 14.8791
522 1 -1.1104 9.42232 11.5623 14.9731
523 1 -1.1104 9.40765 11.4231 20.5824
511 1 -1.1104 12.2014 11.6012 20.5073
516 1 -1.1104 9.49791 8.74796 20.5811
509 1 -1.1104 12.2647 6.06149 20.4605
521 1 -1.1104 9.46672 6.0321 20.5333
504 1 -1.1104 12.269 8.78876 20.4914
590 1 -1.1104 9.40871 19.9568 26.1744
621 2 2.2208 -0.3262 7.368 16.4504
527 2 2.2208 5.22248 18.6861 16.4712
528 1 -1.1104 1.08137 14.3972 17.8875
529 1 -1.1104 1.01986 20.0576 17.9206
532 1 -1.1104 1.06098 14.4672 14.9592
534 1 -1.1104 0.998558 19.946 15.0399
540 1 -1.1104 0.992943 17.2222 17.7949
542 2 2.2208 5.22227 15.8103 19.2378
543 2 2.2208 5.25583 21.3419 19.1667
544 1 -1.1104 1.04374 17.2397 15.0829
548 1 -1.1104 3.81691 14.3939 17.8049
549 1 -1.1104 3.72175 20.046 17.7793
550 2 2.2208 2.38831 18.6375 19.2246
551 1 -1.1104 3.85477 14.378 15.016
553 1 -1.1104 3.78487 19.9562 15.0605
555 2 2.2208 2.3419 15.7945 16.4946
556 2 2.2208 2.51292 21.4182 16.4242
557 1 -1.1104 3.78887 17.2892 17.9217
558 1 -1.1104 3.98896 17.1772 15.1839
554 1 -1.1104 3.71204 19.954 20.64
535 1 -1.1104 0.872348 20.0079 20.5968
533 1 -1.1104 1.132 14.3925 20.6769
531 1 -1.1104 6.63595 19.9581 17.8504
530 1 -1.1104 6.59793 14.4479 17.7784
536 1 -1.1104 6.61523 14.3242 15.0458
541 1 -1.1104 6.67207 17.2153 17.8377
538 1 -1.1104 6.63297 20.1088 15
552 1 -1.1104 3.96881 14.3109 20.5506
546 1 -1.1104 6.68384 17.2159 15.1048
547 1 -1.1104 6.62191 17.167 20.5602
537 1 -1.1104 6.62969 14.3686 20.6329
545 1 -1.1104 0.970206 17.193 20.6333
539 1 -1.1104 6.60737 20.0033 20.6127
569 1 -1.1104 12.2777 19.9552 20.5749
563 2 2.2208 10.7989 18.6018 16.2989
564 1 -1.1104 12.1829 14.3162 17.8429
565 1 -1.1104 12.1465 19.9625 17.8666
566 1 -1.1104 12.3254 14.3137 15.0497
568 1 -1.1104 12.2074 20.008 15.0776
570 1 -1.1104 12.2358 17.1126 17.6906
571 2 2.2208 10.8513 15.7404 19.1152
572 2 2.2208 10.7864 21.3874 19.1942
573 1 -1.1104 12.2106 17.1368 14.9454
575 1 -1.1104 9.39152 14.3624 17.6344
576 1 -1.1104 9.43806 20.2477 17.8079
577 2 2.2208 8.04359 18.5989 19.19
578 1 -1.1104 9.48947 14.4166 14.9001
580 1 -1.1104 9.4334 20.1288 14.9558
582 2 2.2208 8.08472 15.7782 16.3593
583 2 2.2208 8.08159 21.4913 16.394
584 1 -1.1104 9.45375 17.2934 17.7495
585 1 -1.1104 9.4761 17.1211 14.9634
567 1 -1.1104 12.142 14.3184 20.6263
586 1 -1.1104 9.45552 17.1841 20.523
579 1 -1.1104 9.36436 14.3439 20.504
574 1 -1.1104 12.2877 17.0338 20.5708
9091 2 2.2208 13.6132 -3.71229 24.7775
378 2 2.2208 13.5516 4.60276 27.6393
394 1 -1.1104 1.15076 -2.3275 20.5742
366 2 2.2208 2.41925 4.63692 27.5392
398 1 -1.1104 6.59655 -2.32384 20.6281
428 2 2.2208 13.6707 1.87421 19.1657
364 2 2.2208 5.2233 1.85905 27.5394
591 2 2.2208 5.32751 1.82139 21.9679
592 1 -1.1104 1.00171 -2.30319 23.2801
593 1 -1.1104 0.983382 3.13191 23.3617
596 1 -1.1104 1.08371 -2.35746 26.2372
597 1 -1.1104 0.990776 3.18707 26.2727
600 1 -1.1104 1.09543 0.420167 23.3899
602 2 2.2208 5.21883 -0.974098 24.7306
603 2 2.2208 5.2558 4.59355 24.7937
604 1 -1.1104 0.942338 0.40907 26.1536
606 1 -1.1104 3.76078 -2.31145 23.2305
607 1 -1.1104 3.86224 3.15103 23.4416
608 2 2.2208 2.39538 1.7943 24.7982
609 1 -1.1104 3.8629 -2.3626 26.1263
610 1 -1.1104 3.79647 3.19096 26.2111
611 2 2.2208 2.43018 -0.953114 21.9151
612 2 2.2208 2.56065 4.52073 21.9932
613 1 -1.1104 3.88881 0.420977 23.3638
614 1 -1.1104 3.81743 0.466158 26.182
599 1 -1.1104 6.67581 3.20772 26.1851
654 2 2.2208 13.5823 1.84403 24.7198
605 1 -1.1104 6.69562 0.342389 26.1117
594 1 -1.1104 6.67628 -2.39195 23.3779
598 1 -1.1104 6.65811 -2.4598 26.1722
601 1 -1.1104 6.57404 0.431534 23.3344
460 2 2.2208 13.6432 21.4207 16.4721
560 1 -1.1104 12.1785 17.0679 26.1772
463 1 -1.1104 12.1224 14.3075 23.3699
422 2 2.2208 13.5834 10.2941 21.9339
587 2 2.2208 8.01279 18.5009 24.7748
562 1 -1.1104 9.4492 19.8591 23.3747
369 2 2.2208 10.8074 1.77129 27.5644
595 1 -1.1104 6.61063 3.29137 23.3227
365 2 2.2208 2.41924 -0.9938 27.5512
627 2 2.2208 10.8548 1.78519 21.944
628 1 -1.1104 12.2642 -2.38367 23.3272
629 1 -1.1104 12.1675 3.2525 23.3811
630 1 -1.1104 12.2384 -2.27852 26.1203
631 1 -1.1104 12.1511 3.19648 26.0819
632 1 -1.1104 12.199 0.48224 23.3386
633 2 2.2208 10.8073 -0.888533 24.7526
634 2 2.2208 10.8535 4.54152 24.8774
635 1 -1.1104 12.2593 0.527968 26.1555
636 1 -1.1104 9.40155 -2.33359 23.4545
637 1 -1.1104 9.37244 3.20911 23.3108
638 2 2.2208 8.04136 1.84653 24.7801
639 1 -1.1104 9.48781 -2.42062 26.1598
640 1 -1.1104 9.4195 3.22255 26.2645
641 2 2.2208 8.01758 -0.99921 21.9444
642 2 2.2208 8.0737 4.52259 21.9178
643 1 -1.1104 9.4013 0.382565 23.33
644 1 -1.1104 9.50318 0.448113 26.1369
372 2 2.2208 8.06741 4.66336 27.5924
385 2 2.2208 7.96964 10.2523 27.5818
524 1 -1.1104 12.2266 17.143 23.3447
423 2 2.2208 13.5965 4.65458 21.8746
344 2 2.2208 13.5924 15.8035 27.5889
380 2 2.2208 2.33581 10.2121 27.5581
656 2 2.2208 5.30741 7.33688 21.9175
657 2 2.2208 5.21606 12.8928 21.9537
658 1 -1.1104 0.956939 8.73146 23.352
660 1 -1.1104 0.978827 8.70276 26.1571
662 1 -1.1104 0.995884 5.82045 23.3839
663 1 -1.1104 1.0415 11.591 23.3973
666 2 2.2208 5.25785 10.1315 24.834
667 1 -1.1104 0.968272 6.0183 26.2272
668 1 -1.1104 0.928724 11.6127 26.2136
671 1 -1.1104 3.91765 8.69202 23.3217
672 2 2.2208 2.39851 7.32333 24.7569
673 2 2.2208 2.33938 12.9761 24.771
674 1 -1.1104 3.79084 8.76059 26.2109
675 2 2.2208 2.43421 10.0443 21.9786
676 1 -1.1104 3.86078 5.95521 23.336
677 1 -1.1104 3.70772 11.4295 23.4449
678 1 -1.1104 3.82179 5.94122 26.1318
679 1 -1.1104 3.76701 11.5249 26.1504
381 2 2.2208 5.15808 12.9728 27.5457
665 1 -1.1104 6.53061 11.5468 23.3401
661 1 -1.1104 6.59577 8.81509 26.2045
664 1 -1.1104 6.71852 6.00685 23.4207
670 1 -1.1104 6.61026 11.6063 26.1409
9127 2 2.2208 -0.331604 -3.73787 21.969
561 1 -1.1104 9.36678 14.414 23.3494
387 2 2.2208 13.6325 10.1638 27.5308
710 2 2.2208 13.6267 7.42354 24.7934
386 2 2.2208 10.896 12.9882 27.5394
669 1 -1.1104 6.64816 6.01257 26.1477
659 1 -1.1104 6.61256 8.76133 23.3507
384 2 2.2208 10.7812 7.39284 27.5739
687 1 -1.1104 9.34812 11.5622 26.1386
688 1 -1.1104 9.39377 5.96291 26.2311
689 1 -1.1104 9.33334 11.6101 23.3831
690 1 -1.1104 9.4339 5.95195 23.2549
691 2 2.2208 8.02695 10.0709 21.9597
692 1 -1.1104 9.41508 8.71168 26.1742
693 2 2.2208 7.97738 13.0068 24.7285
694 2 2.2208 7.95578 7.37662 24.7792
695 2 2.2208 10.8276 7.42636 21.9575
696 2 2.2208 10.6771 12.9696 21.9309
697 1 -1.1104 12.1731 8.89216 23.2953
698 1 -1.1104 12.154 8.72918 26.1393
699 1 -1.1104 12.1795 6.01289 23.4427
700 1 -1.1104 12.1575 11.6088 23.335
701 2 2.2208 10.8135 10.131 24.7616
702 1 -1.1104 12.2009 5.97607 26.2464
703 1 -1.1104 12.193 11.5919 26.1565
704 1 -1.1104 9.42198 8.75337 23.3835
371 2 2.2208 -0.339104 18.5833 27.6054
708 2 2.2208 13.5533 13.0247 24.7048
588 1 -1.1104 6.60498 19.9867 26.2114
374 2 2.2208 5.1885 18.5606 27.5701
559 1 -1.1104 3.67614 17.1533 20.6351
714 1 -1.1104 6.52981 17.1757 26.1259
680 1 -1.1104 6.64679 17.1456 23.2762
720 2 2.2208 5.19323 15.8107 24.675
647 2 2.2208 2.43146 15.7357 22.0029
649 2 2.2208 2.39547 21.4028 21.9199
652 1 -1.1104 3.94827 17.2668 23.4886
655 1 -1.1104 1.05465 17.159 23.4415
681 1 -1.1104 3.81417 14.4756 26.1561
682 1 -1.1104 3.79379 17.2781 26.1452
683 2 2.2208 2.5233 18.6054 24.7985
686 1 -1.1104 3.75608 20.0902 26.0271
705 2 2.2208 5.22484 18.5999 21.9351
706 1 -1.1104 0.988807 14.3369 23.4497
707 1 -1.1104 1.01861 19.9129 23.4269
711 1 -1.1104 3.87676 20.1056 23.3398
713 1 -1.1104 3.72184 14.3396 23.3713
715 1 -1.1104 1.01607 20.0496 26.2668
716 1 -1.1104 0.901319 17.17 26.165
717 1 -1.1104 0.947885 14.3554 26.148
719 2 2.2208 5.19396 21.4252 24.8421
373 2 2.2208 2.34067 15.8555 27.4602
375 2 2.2208 2.5051 21.4128 27.4765
712 1 -1.1104 6.48243 14.3873 26.1112
709 1 -1.1104 6.53564 14.3662 23.3237
347 2 2.2208 7.9306 15.6959 27.5245
589 1 -1.1104 9.34844 14.3886 26.0373
426 2 2.2208 13.6623 10.1585 16.2785
581 1 -1.1104 9.41356 19.9391 20.5989
616 2 2.2208 8.01072 21.3359 22.0464
620 1 -1.1104 9.35765 17.1808 26.1492
499 1 -1.1104 12.2359 19.9535 26.2163
718 1 -1.1104 6.56125 19.9845 23.4015
497 1 -1.1104 12.2295 19.9882 23.4827
615 2 2.2208 8.03593 15.7524 22.0544
617 1 -1.1104 9.49434 17.153 23.3227
377 2 2.2208 13.6261 -0.97791 27.5724
457 2 2.2208 -0.354777 15.7781 19.2634
625 2 2.2208 -0.30369 1.77267 22.0274
9089 2 2.2208 8.01155 -3.75361 24.7384
9092 2 2.2208 2.37487 -3.71202 24.7823
357 2 2.2208 2.36947 18.6474 13.6825
346 2 2.2208 10.8907 -1.03449 13.6327
379 2 2.2208 5.23203 7.40941 27.6431
9008 2 2.2208 10.8284 -3.73202 27.4924
370 2 2.2208 7.96441 -0.97925 27.6117
721 2 2.2208 5.30908 24.199 5.20798
722 2 2.2208 5.28238 29.8782 5.21747
723 1 -1.1104 1.16321 25.5954 0.980616
724 1 -1.1104 1.03811 25.4666 3.86865
725 1 -1.1104 1.05248 22.8276 0.826214
726 1 -1.1104 0.995878 28.4725 1.01926
727 2 2.2208 5.24964 27.0273 2.43245
728 1 -1.1104 1.03005 22.7306 3.7696
729 1 -1.1104 1.16216 28.3256 3.72538
730 1 -1.1104 3.91847 25.5876 0.924156
731 2 2.2208 2.44566 24.095 2.32801
732 2 2.2208 2.52487 29.7855 2.45099
733 1 -1.1104 3.86272 25.5397 3.78417
734 2 2.2208 2.58034 26.9591 5.18378
735 1 -1.1104 3.78644 22.7317 0.918259
736 1 -1.1104 3.80216 28.4246 0.962204
737 1 -1.1104 3.83244 22.7398 3.77066
738 1 -1.1104 3.98559 28.4538 3.9027
862 1 -1.1104 1.13726 25.467 6.5808
870 1 -1.1104 3.89581 28.4208 6.66124
864 1 -1.1104 1.04094 22.6341 6.64768
744 1 -1.1104 6.62436 22.7688 1.03116
747 1 -1.1104 6.56566 28.3921 3.72171
745 1 -1.1104 6.56036 28.3577 0.955467
868 1 -1.1104 3.95499 25.6378 6.60484
863 1 -1.1104 6.77075 25.6113 6.48483
742 1 -1.1104 6.73055 25.6255 0.936099
767 2 2.2208 13.5501 29.7431 2.46738
865 1 -1.1104 1.01805 28.2853 6.57511
869 1 -1.1104 3.80057 22.8471 6.59092
739 2 2.2208 -0.280206 26.9613 2.38897
866 1 -1.1104 6.64465 22.8056 6.72244
746 1 -1.1104 6.71435 22.7198 3.87495
743 1 -1.1104 6.60025 25.5205 3.72048
748 2 2.2208 10.9501 24.1405 5.1753
749 2 2.2208 10.8249 29.7783 5.31362
750 1 -1.1104 12.3023 25.5391 1.00917
751 1 -1.1104 12.2053 25.5939 3.87036
752 1 -1.1104 12.2401 22.8109 0.94518
753 1 -1.1104 12.3031 28.3801 1.00692
754 2 2.2208 10.8918 26.9421 2.27828
755 1 -1.1104 12.2226 22.7635 3.80156
756 1 -1.1104 12.1691 28.3857 3.84089
757 1 -1.1104 9.49451 25.5345 0.940781
758 2 2.2208 8.11796 24.1488 2.37093
759 2 2.2208 8.0173 29.8206 2.43495
760 1 -1.1104 9.46917 25.5962 3.74244
761 2 2.2208 8.12249 26.9491 5.16884
762 1 -1.1104 9.58208 22.7829 1.03436
763 1 -1.1104 9.39178 28.3532 0.945336
764 1 -1.1104 9.46058 22.7759 3.77543
765 1 -1.1104 9.37187 28.4082 3.8131
897 1 -1.1104 12.1962 28.3357 6.6455
898 1 -1.1104 9.60979 25.4749 6.6576
896 1 -1.1104 12.3584 22.8099 6.55884
867 1 -1.1104 6.71009 28.4277 6.51951
895 1 -1.1104 12.2862 25.5252 6.64758
766 2 2.2208 13.6549 24.1157 2.36367
860 2 2.2208 13.5725 46.6016 2.41258
899 1 -1.1104 9.51504 22.7083 6.548
900 1 -1.1104 9.44196 28.3549 6.61831
1036 2 2.2208 13.6199 27.2059 10.9265
769 2 2.2208 5.23982 35.475 5.13723
770 1 -1.1104 1.17009 31.2893 1.05191
771 1 -1.1104 1.04412 36.7721 1.04321
773 1 -1.1104 0.98516 31.1771 3.84649
774 1 -1.1104 0.97366 36.7759 3.84641
776 1 -1.1104 1.04468 34.0272 1.0035
777 2 2.2208 5.27775 32.6354 2.3964
778 2 2.2208 5.17258 38.3255 2.4733
779 1 -1.1104 0.979952 33.8947 3.77237
781 1 -1.1104 3.86825 31.3054 0.963978
782 1 -1.1104 3.80041 37.0204 1.04148
783 2 2.2208 2.38573 35.4115 2.43309
784 1 -1.1104 3.86684 31.2239 3.78417
785 1 -1.1104 3.72312 36.8576 3.75892
786 2 2.2208 2.40509 32.6697 5.20099
787 2 2.2208 2.32287 38.1939 5.27368
788 1 -1.1104 3.82927 34.1924 1.06458
789 1 -1.1104 3.76711 33.9606 3.73001
919 1 -1.1104 0.922591 31.2125 6.59042
927 1 -1.1104 3.80368 33.9654 6.6303
921 1 -1.1104 6.64462 31.1227 6.73396
772 1 -1.1104 6.58305 36.9139 1.09143
925 1 -1.1104 3.78665 31.2139 6.54024
923 1 -1.1104 1.03637 34.0609 6.53235
795 1 -1.1104 6.61378 34.0936 1.01403
922 1 -1.1104 6.64188 36.7199 6.54176
775 1 -1.1104 6.54278 36.8866 3.79134
794 1 -1.1104 6.68265 31.2621 3.8509
780 1 -1.1104 6.76749 34.0346 3.79638
924 1 -1.1104 6.61039 33.972 6.51839
1052 2 2.2208 13.6068 46.4869 13.6122
920 1 -1.1104 1.00732 36.7735 6.6624
1060 2 2.2208 5.23755 43.8161 13.5798
1064 2 2.2208 13.6829 24.2215 13.6465
793 1 -1.1104 6.6486 31.2142 1.03647
796 2 2.2208 10.8458 35.3883 5.359
797 1 -1.1104 12.0946 31.1475 1.03906
798 1 -1.1104 12.1619 36.8772 1.04901
799 1 -1.1104 12.1553 31.1222 3.86876
800 1 -1.1104 12.1774 36.7398 3.81693
801 1 -1.1104 12.2804 34.0554 1.02531
802 2 2.2208 10.7567 32.5376 2.53779
803 2 2.2208 10.7942 38.2045 2.51692
804 1 -1.1104 12.3107 33.9866 3.73706