ITEM: TIMESTEP
80000
ITEM: NUMBER OF ATOMS
17670
ITEM: BOX BOUNDS pp pp pp
-3.2094892030350752e-01 2.7660948920303120e+01
-3.8307390230903859e+00 3.3191073902311427e+02
-3.1494708136224964e-01 2.7654947081361804e+01
ITEM: ATOMS id type q x y z
1 2 2.2208 5.46503 1.64697 5.37458
2 1 -1.1104 1.24363 -2.33672 1.17344
3 1 -1.1104 1.18106 3.23304 1.17883
6 1 -1.1104 1.18527 -2.54603 4.05442
7 1 -1.1104 1.13191 3.08306 3.9515
10 1 -1.1104 1.13398 0.367642 1.13195
12 2 2.2208 5.33882 -1.10691 2.57697
13 2 2.2208 5.3646 4.53722 2.51342
14 1 -1.1104 1.10989 0.252831 4.01468
16 1 -1.1104 3.95324 -2.49792 1.20457
17 1 -1.1104 3.97839 3.1651 1.15444
18 2 2.2208 2.56432 1.6987 2.51043
19 1 -1.1104 3.96948 -2.49458 3.99042
20 1 -1.1104 3.96295 3.19237 3.9064
21 2 2.2208 2.56537 -1.00136 5.3231
22 2 2.2208 2.53185 4.49038 5.35464
23 1 -1.1104 3.90577 0.33528 1.12576
24 1 -1.1104 3.96514 0.406849 3.94676
4 1 -1.1104 6.82685 -2.43486 1.12631
9 1 -1.1104 6.77914 3.17623 3.86682
8 1 -1.1104 6.72706 -2.46806 3.95403
15 1 -1.1104 6.70959 0.301845 3.85708
368 2 2.2208 -0.253713 1.83914 -0.20717
373 2 2.2208 2.42224 15.7668 -0.302159
381 2 2.2208 5.27156 12.9838 -0.38825
8995 2 2.2208 -0.206041 -3.89232 5.37475
29 2 2.2208 -0.238296 7.33301 10.9389
364 2 2.2208 5.42168 1.72122 -0.226391
366 2 2.2208 2.62489 4.5789 -0.26625
9000 2 2.2208 5.32363 -3.82374 10.9769
26 2 2.2208 -0.252896 1.64152 5.35672
5 1 -1.1104 6.75459 3.19931 1.15664
169 1 -1.1104 6.74537 3.15074 6.85247
11 1 -1.1104 6.81802 0.329413 1.1652
31 2 2.2208 10.949 1.79754 5.34225
32 1 -1.1104 12.3993 -2.49769 1.18155
33 1 -1.1104 12.3432 3.10188 1.1754
34 1 -1.1104 12.4046 -2.4611 3.94241
35 1 -1.1104 12.391 3.17291 4.05909
36 1 -1.1104 12.3797 0.347248 1.2236
37 2 2.2208 10.916 -1.07714 2.50932
38 2 2.2208 11.0645 4.55605 2.55066
39 1 -1.1104 12.24 0.305905 3.98798
40 1 -1.1104 9.54857 -2.37397 1.19042
41 1 -1.1104 9.59575 3.14541 1.14138
42 2 2.2208 8.18837 1.75025 2.60546
43 1 -1.1104 9.57056 -2.40981 3.97878
44 1 -1.1104 9.63995 3.07242 3.91294
45 2 2.2208 8.17772 -0.962407 5.3119
46 2 2.2208 8.12809 4.5317 5.33286
47 1 -1.1104 9.59594 0.339568 1.11107
48 1 -1.1104 9.49474 0.389146 3.9325
380 2 2.2208 2.44645 10.1572 -0.282951
25 2 2.2208 -0.225708 -1.08207 2.55048
372 2 2.2208 8.17897 4.55235 -0.219766
319 1 -1.1104 9.51966 14.3597 9.53097
154 1 -1.1104 9.45805 14.2724 6.66861
369 2 2.2208 10.8643 1.86129 -0.259751
370 2 2.2208 8.1237 -1.11069 -0.333544
371 2 2.2208 -0.317003 18.5476 -0.290229
54 2 2.2208 5.38959 7.31207 5.28857
55 2 2.2208 5.29832 12.9701 5.38291
56 1 -1.1104 1.23296 8.80679 1.23222
58 1 -1.1104 1.12954 8.7436 3.95548
60 1 -1.1104 1.09531 6.00817 1.067
61 1 -1.1104 1.21198 11.6109 1.25934
66 2 2.2208 5.33371 10.2228 2.39137
67 1 -1.1104 1.18637 5.90312 3.83521
68 1 -1.1104 1.13737 11.5179 4.0141
71 1 -1.1104 3.95184 8.66991 1.10161
72 2 2.2208 2.50933 7.34327 2.50401
73 2 2.2208 2.60534 12.9251 2.60029
74 1 -1.1104 3.9582 8.73945 3.92544
75 2 2.2208 2.5626 10.0855 5.40357
76 1 -1.1104 3.99436 5.9038 1.13487
77 1 -1.1104 3.90385 11.5723 1.0799
79 1 -1.1104 3.88568 5.8861 4.0128
80 1 -1.1104 3.9368 11.5508 3.99777
57 1 -1.1104 6.76877 8.70584 1.12413
238 1 -1.1104 3.97625 8.78551 6.69587
64 1 -1.1104 6.71949 11.5875 0.888655
62 1 -1.1104 1.19404 11.4954 6.6989
63 1 -1.1104 6.76189 5.94251 1.12914
70 1 -1.1104 6.7227 11.5519 3.79694
59 1 -1.1104 6.72418 8.67329 4.01063
53 2 2.2208 13.7795 12.893 8.10011
199 2 2.2208 -0.245141 4.5265 8.17925
325 2 2.2208 10.8862 15.6835 8.09828
69 1 -1.1104 6.7636 5.87987 3.93873
9012 2 2.2208 5.35264 -3.92187 -0.236702
84 2 2.2208 10.9565 7.31601 5.32813
85 2 2.2208 10.8487 12.8817 5.29614
86 1 -1.1104 12.3702 8.76523 1.15433
87 1 -1.1104 12.3598 8.72281 3.93258
88 1 -1.1104 12.3865 5.84271 1.10423
89 1 -1.1104 12.2675 11.5033 1.1669
91 2 2.2208 10.916 10.0768 2.51204
92 1 -1.1104 12.2678 5.97153 3.95773
93 1 -1.1104 12.3197 11.5588 3.88383
94 1 -1.1104 9.4963 8.61361 1.01875
95 2 2.2208 8.09983 7.36011 2.54278
96 2 2.2208 8.15028 12.943 2.47348
97 1 -1.1104 9.5902 8.70624 3.90962
98 2 2.2208 8.11687 10.0908 5.43168
99 1 -1.1104 9.55658 5.9275 1.27233
100 1 -1.1104 9.54413 11.4969 1.08036
102 1 -1.1104 9.44611 5.91248 3.96193
103 1 -1.1104 9.55603 11.4328 3.98638
386 2 2.2208 10.8706 12.8486 -0.278783
384 2 2.2208 10.9684 7.32571 -0.267265
344 2 2.2208 13.7876 15.7531 -0.21198
104 2 2.2208 13.7146 12.8523 2.48976
385 2 2.2208 8.08688 10.14 -0.385487
82 2 2.2208 -0.261367 10.1348 2.53392
106 2 2.2208 5.30006 18.5855 5.35943
107 1 -1.1104 1.0217 14.2761 1.12675
109 1 -1.1104 1.10467 19.9147 1.05852
113 1 -1.1104 1.16261 14.3563 3.93293
114 1 -1.1104 1.08836 19.9371 4.00555
116 1 -1.1104 1.03988 17.1464 1.066
119 2 2.2208 5.34758 15.7568 2.44621
120 2 2.2208 5.20933 21.2328 2.53254
121 1 -1.1104 1.06319 17.1105 3.85263
123 1 -1.1104 3.85248 14.3462 1.08699
125 1 -1.1104 3.79971 19.8335 1.13365
127 2 2.2208 2.54447 18.4188 2.54743
128 1 -1.1104 4.01061 14.349 3.87178
129 1 -1.1104 3.93771 19.941 4.01273
130 2 2.2208 2.5978 15.6911 5.39747
131 2 2.2208 2.44666 21.3387 5.43522
132 1 -1.1104 3.92664 17.0814 1.11714
134 1 -1.1104 3.98505 17.1175 3.93223
302 1 -1.1104 1.10303 19.8341 6.84402
110 1 -1.1104 6.70696 14.3163 1.06936
138 1 -1.1104 6.61589 19.9185 1.04815
139 1 -1.1104 6.66021 19.9119 3.86114
122 1 -1.1104 6.73438 17.1089 3.97807
115 1 -1.1104 6.69322 14.2836 3.80106
156 1 -1.1104 9.51418 19.8889 6.75191
9014 2 2.2208 -0.200655 -3.84954 -0.249858
140 1 -1.1104 6.71022 17.2099 1.08852
141 2 2.2208 10.9291 18.4834 5.30807
142 1 -1.1104 12.2885 14.3154 1.16129
144 1 -1.1104 12.2286 19.9617 1.04649
146 1 -1.1104 12.3795 14.2996 4.00967
147 1 -1.1104 12.3409 19.9768 3.95311
148 1 -1.1104 12.2647 17.1245 1.14075
150 2 2.2208 10.9032 15.7044 2.57773
151 2 2.2208 10.8664 21.3136 2.5973
152 1 -1.1104 12.2829 17.1458 4.04753
153 1 -1.1104 9.50857 14.3482 1.11047
155 1 -1.1104 9.40552 19.9928 1.10744
157 2 2.2208 8.04604 18.5925 2.48322
158 1 -1.1104 9.53908 14.2725 3.90897
159 1 -1.1104 9.5193 19.8288 3.84233
160 2 2.2208 8.079 15.7695 5.35574
161 2 2.2208 8.10287 21.3891 5.40753
162 1 -1.1104 9.50122 17.1195 1.09003
164 1 -1.1104 9.52861 17.1149 3.91699
145 1 -1.1104 12.2777 19.9347 6.72297
348 2 2.2208 10.9105 18.5161 -0.242938
149 1 -1.1104 12.3443 17.0978 6.68615
200 2 2.2208 -0.267922 -1.02487 8.16265
112 1 -1.1104 6.74484 20.0153 6.71134
118 1 -1.1104 6.72188 17.1869 6.77523
349 2 2.2208 8.07934 21.4021 -0.326308
174 1 -1.1104 4.09013 0.187554 6.65971
167 1 -1.1104 1.09604 3.02579 6.79271
316 2 2.2208 8.13783 21.2662 10.9973
173 1 -1.1104 3.96184 3.06597 6.76964
166 1 -1.1104 1.15276 -2.48556 6.74908
172 1 -1.1104 3.93816 -2.44707 6.79475
170 1 -1.1104 1.28626 0.350099 6.85118
168 1 -1.1104 6.69503 -2.31772 6.74055
175 2 2.2208 5.41741 1.78147 11.0146
176 1 -1.1104 1.22429 -2.36525 12.3059
177 1 -1.1104 1.16499 3.18461 12.2903
180 1 -1.1104 1.09172 -2.42529 9.5374
181 1 -1.1104 1.19215 3.12167 9.47926
184 1 -1.1104 1.11124 0.413639 12.343
186 2 2.2208 5.35998 -1.04596 8.19737
187 2 2.2208 5.31327 4.57981 8.13987
188 1 -1.1104 1.18293 0.276789 9.52297
190 1 -1.1104 3.97328 -2.44888 12.4177
191 1 -1.1104 4.03474 3.17477 12.3081
192 2 2.2208 2.63579 1.76635 8.14769
193 1 -1.1104 3.84596 -2.36742 9.58616
194 1 -1.1104 4.10422 3.15558 9.53998
195 2 2.2208 2.62149 -0.966724 10.9571
196 2 2.2208 2.59862 4.59896 10.9416
197 1 -1.1104 3.91403 0.330946 12.4631
198 1 -1.1104 3.99765 0.373479 9.6331
185 1 -1.1104 6.72478 0.361618 12.3528
189 1 -1.1104 6.83246 0.341433 9.49733
330 1 -1.1104 12.2798 14.4181 12.4992
201 2 2.2208 -0.169327 1.77556 10.9984
171 1 -1.1104 6.87109 0.562611 6.65481
210 1 -1.1104 9.62696 0.426557 6.80967
209 1 -1.1104 9.64295 3.18329 6.77607
205 1 -1.1104 12.3409 -2.54537 6.75768
207 1 -1.1104 12.3231 0.312259 6.71019
315 1 -1.1104 9.54399 17.1023 12.2713
365 2 2.2208 2.52965 -1.06376 -0.251621
182 1 -1.1104 6.80026 -2.39766 9.55694
178 1 -1.1104 6.74081 -2.43061 12.3058
183 1 -1.1104 6.85363 3.16351 9.67675
206 1 -1.1104 12.4545 3.21715 6.79855
208 1 -1.1104 9.55587 -2.35889 6.73367
179 1 -1.1104 6.8898 3.18928 12.289
379 2 2.2208 5.42394 7.40202 -0.212101
211 2 2.2208 10.9498 1.80712 10.9216
212 1 -1.1104 12.2872 -2.4984 12.2824
213 1 -1.1104 12.3763 3.24498 12.3238
214 1 -1.1104 12.4296 -2.35978 9.51301
215 1 -1.1104 12.3539 3.26202 9.6221
216 1 -1.1104 12.3544 0.327288 12.2946
217 2 2.2208 10.9921 -1.05193 8.14897
218 2 2.2208 10.9912 4.55052 8.15173
219 1 -1.1104 12.3887 0.403102 9.45812
220 1 -1.1104 9.53957 -2.5077 12.4686
221 1 -1.1104 9.7021 3.23665 12.3044
222 2 2.2208 8.23715 1.81298 8.16411
223 1 -1.1104 9.5825 -2.42939 9.63966
224 1 -1.1104 9.62972 3.18246 9.5727
225 2 2.2208 8.1652 -1.0608 11.007
226 2 2.2208 8.20003 4.68157 10.9273
227 1 -1.1104 9.48135 0.415493 12.3205
228 1 -1.1104 9.53814 0.437607 9.70779
27 2 2.2208 -0.170618 4.56109 2.62379
234 1 -1.1104 1.16153 8.7559 6.73982
78 1 -1.1104 3.96528 11.4864 6.81087
239 1 -1.1104 3.87608 5.96354 6.67051
331 2 2.2208 10.9649 18.4797 10.9077
236 1 -1.1104 1.06658 5.90643 6.72448
240 2 2.2208 5.32454 7.47875 10.9942
241 2 2.2208 5.32775 12.9277 10.9551
242 1 -1.1104 1.16939 8.69629 12.2184
244 1 -1.1104 1.23698 8.7417 9.50216
246 1 -1.1104 1.14109 5.8906 12.3732
247 1 -1.1104 1.11165 11.522 12.2947
250 2 2.2208 5.35639 10.1542 8.17029
251 1 -1.1104 1.2253 5.95059 9.60407
252 1 -1.1104 1.24095 11.4695 9.54315
255 1 -1.1104 3.85835 8.87087 12.4096
256 2 2.2208 2.57358 7.32773 8.18431
257 2 2.2208 2.5778 12.9341 8.12092
258 1 -1.1104 3.93299 8.71409 9.50493
259 2 2.2208 2.64349 10.1579 10.9705
260 1 -1.1104 3.92199 6.05241 12.2901
261 1 -1.1104 4.02852 11.5353 12.4096
262 1 -1.1104 3.96525 5.92346 9.48937
263 1 -1.1104 3.95689 11.5242 9.61884
249 1 -1.1104 6.69953 11.5781 12.3697
253 1 -1.1104 6.76792 5.95885 9.58322
254 1 -1.1104 6.76053 11.5433 9.48138
243 1 -1.1104 6.64314 8.79448 12.3933
30 2 2.2208 -0.18369 10.0976 8.14144
65 1 -1.1104 6.73479 11.5323 6.70106
235 1 -1.1104 6.71759 8.69871 6.84834
237 1 -1.1104 6.64718 5.95361 6.81395
269 1 -1.1104 9.6354 5.92113 6.83905
101 1 -1.1104 9.60344 11.4073 6.74777
267 1 -1.1104 9.45173 8.66938 6.70409
90 1 -1.1104 12.4087 11.5036 6.70146
81 2 2.2208 -0.2534 7.43205 5.4097
326 1 -1.1104 12.3596 17.2024 12.3971
245 1 -1.1104 6.62484 8.77626 9.66661
265 1 -1.1104 12.3575 8.68756 6.76846
266 1 -1.1104 12.3879 5.88613 6.56407
248 1 -1.1104 6.70279 5.9936 12.4502
264 1 -1.1104 9.58163 11.4663 9.37308
268 1 -1.1104 9.45174 6.06586 9.5641
270 1 -1.1104 9.49247 11.6064 12.2582
271 1 -1.1104 9.54209 6.06382 12.4009
272 2 2.2208 8.09189 10.2538 10.942
273 1 -1.1104 9.47504 8.73554 9.53211
274 2 2.2208 8.2259 12.8915 8.13583
275 2 2.2208 8.0286 7.33598 8.20778
276 2 2.2208 10.9459 7.35993 10.9061
277 2 2.2208 10.9812 13.0159 10.8347
278 1 -1.1104 12.2903 8.76663 12.2837
279 1 -1.1104 12.3288 8.70673 9.56375
280 1 -1.1104 12.2969 5.93192 12.2708
281 1 -1.1104 12.3336 11.6483 12.2008
282 2 2.2208 10.9938 9.98597 8.07091
283 1 -1.1104 12.4828 5.94984 9.43008
284 1 -1.1104 12.358 11.5019 9.46458
285 1 -1.1104 9.51852 8.79568 12.2099
133 1 -1.1104 3.93766 17.0838 6.68978
124 1 -1.1104 3.86898 14.3895 6.80717
296 1 -1.1104 6.75751 19.9137 12.3154
117 1 -1.1104 1.13582 17.0999 6.72309
126 1 -1.1104 3.87285 19.938 6.86789
108 1 -1.1104 1.19767 14.3051 6.65406
297 1 -1.1104 6.6757 14.2978 12.3645
289 1 -1.1104 6.68654 17.0834 9.55645
295 2 2.2208 5.33228 15.7721 8.1758
294 1 -1.1104 1.11421 14.3591 9.48605
298 1 -1.1104 1.07462 19.8732 12.2976
308 1 -1.1104 3.89618 17.1499 12.2877
303 2 2.2208 2.47581 18.5503 8.22211
307 1 -1.1104 1.1297 17.0642 12.2899
309 2 2.2208 2.42152 21.3239 10.9889
301 1 -1.1104 3.93087 20.0029 9.61683
300 2 2.2208 5.29892 18.4437 10.9152
310 2 2.2208 2.49581 15.6839 10.9848
299 1 -1.1104 1.10293 14.2375 12.3559
305 1 -1.1104 3.99658 14.2909 9.61492
304 1 -1.1104 3.91547 17.1173 9.5376
286 1 -1.1104 3.9366 19.9358 12.392
287 1 -1.1104 3.85686 14.3578 12.3731
291 1 -1.1104 1.02121 19.8909 9.5425
292 1 -1.1104 1.09359 17.1349 9.48809
293 2 2.2208 5.27559 21.4131 8.10412
288 1 -1.1104 6.71036 19.846 9.43386
290 1 -1.1104 6.79867 14.1959 9.44928
306 1 -1.1104 6.8052 17.1596 12.3944
323 1 -1.1104 12.2302 17.0605 9.55686
318 1 -1.1104 9.57973 20.0123 9.59164
322 1 -1.1104 9.61336 14.4153 12.3014
143 1 -1.1104 12.298 14.2828 6.81068
163 1 -1.1104 9.52223 17.1114 6.74366
324 2 2.2208 10.9874 21.3195 8.1027
327 1 -1.1104 12.3635 19.8177 9.55132
329 1 -1.1104 12.3433 19.9632 12.3723
314 1 -1.1104 9.48603 17.1521 9.45798
320 2 2.2208 8.09963 18.5662 8.13554
328 1 -1.1104 12.3375 14.2676 9.57997
321 1 -1.1104 9.54631 19.8339 12.3941
111 1 -1.1104 6.67704 14.425 6.69026
317 2 2.2208 8.17098 15.7103 10.9999
347 2 2.2208 8.10588 15.752 -0.24188
383 2 2.2208 -0.293886 7.34038 -0.242617
382 2 2.2208 -0.273786 12.8802 -0.244901
83 2 2.2208 -0.309027 12.9336 5.29949
8994 2 2.2208 5.29997 -3.86233 5.51166
51 2 2.2208 -0.257024 12.9522 10.8788
313 2 2.2208 -0.241964 15.7405 8.05096
232 2 2.2208 13.7776 10.1549 5.33515
333 2 2.2208 13.7002 15.7544 10.966
311 2 2.2208 -0.356455 21.3871 8.11919
374 2 2.2208 5.37441 18.5401 -0.378015
352 2 2.2208 5.29845 10.2047 13.89
361 2 2.2208 10.9451 15.7542 13.8451
388 2 2.2208 5.39291 1.81654 16.5093
389 1 -1.1104 1.13477 -2.48747 17.9435
390 1 -1.1104 1.08059 3.22152 17.9835
393 1 -1.1104 1.11997 -2.38419 15.104
395 1 -1.1104 1.26795 3.14437 15.2286
401 1 -1.1104 1.24321 0.3929 18.0337
403 2 2.2208 5.30092 -1.02468 19.2548
404 2 2.2208 5.3626 4.56577 19.3577
405 1 -1.1104 1.23875 0.455973 15.1891
409 1 -1.1104 3.92436 -2.42881 17.9983
410 1 -1.1104 3.93424 3.13566 17.8201
411 2 2.2208 2.52734 1.86976 19.3717
412 1 -1.1104 3.95996 -2.42913 15.2898
414 1 -1.1104 3.9885 3.26437 15.0293
416 2 2.2208 2.53665 -1.00712 16.6237
417 2 2.2208 2.58247 4.59546 16.5287
418 1 -1.1104 3.92904 0.452484 17.833
419 1 -1.1104 4.03621 0.427039 15.1727
407 1 -1.1104 6.83396 0.429449 15.2274
402 1 -1.1104 6.678 0.331872 17.9381
397 1 -1.1104 6.71557 -2.48483 15.2842
9092 2 2.2208 2.60563 -3.81396 25.006
9158 2 2.2208 2.52723 -3.81136 19.4033
337 2 2.2208 -0.281 4.50902 13.722
684 2 2.2208 -0.236698 10.1153 24.8862
341 2 2.2208 5.33737 4.59515 13.6911
346 2 2.2208 11.0259 -0.988509 13.6572
424 2 2.2208 -0.171072 1.80184 16.503
338 2 2.2208 5.37644 -1.03851 13.7646
619 2 2.2208 13.7736 15.7292 16.5351
399 1 -1.1104 6.65817 3.20923 15.0451
391 1 -1.1104 6.79881 -2.42234 17.969
392 1 -1.1104 6.73476 3.17115 17.8863
362 2 2.2208 8.14084 18.5219 13.8051
357 2 2.2208 2.43186 18.5589 13.7028
431 2 2.2208 11.0834 1.75286 16.4951
432 1 -1.1104 12.3306 -2.40328 17.8726
433 1 -1.1104 12.392 3.18855 17.851
434 1 -1.1104 12.3591 -2.35486 15.0265
436 1 -1.1104 12.4823 3.09661 15.1373
438 1 -1.1104 12.3139 0.386739 17.8866
439 2 2.2208 10.9057 -1.00802 19.2366
440 2 2.2208 10.9936 4.50039 19.2925
441 1 -1.1104 12.4033 0.398174 15.0761
443 1 -1.1104 9.54515 -2.47919 17.891
444 1 -1.1104 9.58259 3.20251 17.9475
445 2 2.2208 8.13201 1.81487 19.2847
446 1 -1.1104 9.51588 -2.38514 15.1529
448 1 -1.1104 9.54767 3.13477 15.059
450 2 2.2208 8.19095 -0.96144 16.5299
451 2 2.2208 8.17022 4.5963 16.4779
452 1 -1.1104 9.5212 0.454424 17.9429
453 1 -1.1104 9.65396 0.352035 15.1192
437 1 -1.1104 12.3785 3.11759 20.6424
617 1 -1.1104 9.62052 17.0964 23.48
350 2 2.2208 10.947 4.59081 13.6944
425 2 2.2208 -0.218502 -1.04738 19.3982
343 2 2.2208 8.15619 1.7151 13.8184
621 2 2.2208 -0.263138 7.39245 16.5335
615 2 2.2208 8.17858 15.7909 22.1491
646 2 2.2208 -0.315884 15.7443 24.9174
464 2 2.2208 5.36069 7.34382 16.5087
465 2 2.2208 5.3086 12.9581 16.6537
466 1 -1.1104 1.16878 8.7397 17.9507
468 1 -1.1104 1.00536 8.72944 15.1547
472 1 -1.1104 1.22989 6.01229 17.9023
473 1 -1.1104 1.11596 11.478 17.8847
476 2 2.2208 5.44937 9.97488 19.2712
477 1 -1.1104 1.07231 5.92074 15.1167
479 1 -1.1104 1.19963 11.5823 15.1247
485 1 -1.1104 3.94939 8.77001 17.9576
486 2 2.2208 2.62749 7.34972 19.3028
487 2 2.2208 2.5506 12.8821 19.3412
488 1 -1.1104 3.89383 8.82009 15.171
490 2 2.2208 2.56542 10.1774 16.5643
491 1 -1.1104 3.90752 5.96817 18.0146
492 1 -1.1104 3.97425 11.5195 17.9792
493 1 -1.1104 3.91286 5.96759 15.1369
495 1 -1.1104 3.82617 11.6923 15.2518
471 1 -1.1104 6.80967 8.64309 20.5582
467 1 -1.1104 6.85849 8.7329 17.8508
474 1 -1.1104 6.69553 5.97811 17.9035
484 1 -1.1104 6.69651 11.5103 20.5504
481 1 -1.1104 6.75706 6.03946 15.1621
483 1 -1.1104 6.76065 11.5927 15.2374
470 1 -1.1104 6.73628 8.75085 15.1336
475 1 -1.1104 6.76607 11.5419 18.0036
351 2 2.2208 2.47358 7.3018 13.7254
353 2 2.2208 2.52138 12.911 13.7797
9160 2 2.2208 -0.283835 -3.79923 16.559
587 2 2.2208 8.11041 18.507 24.881
9127 2 2.2208 -0.194123 -3.76487 22.163
500 2 2.2208 10.9212 7.36472 16.409
501 2 2.2208 10.928 12.9267 16.5903
502 1 -1.1104 12.3666 8.77145 17.8576
503 1 -1.1104 12.2317 8.79747 15.0907
505 1 -1.1104 12.3374 5.92901 17.9105
506 1 -1.1104 12.2702 11.5857 17.7637
507 2 2.2208 10.9794 10.056 19.3351
508 1 -1.1104 12.2933 5.94146 15.0254
510 1 -1.1104 12.2083 11.5846 14.9738
512 1 -1.1104 9.56454 8.79708 17.9165
513 2 2.2208 8.21581 7.27942 19.2586
514 2 2.2208 8.15079 12.9699 19.3791
515 1 -1.1104 9.46679 8.82871 14.9831
517 2 2.2208 8.18689 10.1909 16.5749
518 1 -1.1104 9.55006 5.9723 17.9063
519 1 -1.1104 9.51801 11.618 17.9076
520 1 -1.1104 9.4481 6.02923 15.1789
522 1 -1.1104 9.47579 11.6547 15.0708
463 1 -1.1104 12.4036 14.4644 23.5405
526 2 2.2208 10.9388 21.2468 24.8913
458 2 2.2208 -0.332317 21.3915 19.3535
354 2 2.2208 8.10816 7.50915 13.7432
355 2 2.2208 10.8522 10.1894 13.5307
497 1 -1.1104 12.2417 19.9746 23.4936
527 2 2.2208 5.25718 18.5303 16.4532
528 1 -1.1104 1.07477 14.3207 18.0255
529 1 -1.1104 1.07711 19.9658 17.9535
532 1 -1.1104 1.03391 14.5012 15.126
534 1 -1.1104 1.01099 20.0555 15.1156
540 1 -1.1104 1.08798 17.1776 18.0161
542 2 2.2208 5.24296 15.7635 19.2793
543 2 2.2208 5.22552 21.3201 19.3219
544 1 -1.1104 1.08929 17.2501 15.0474
548 1 -1.1104 3.91726 14.2681 17.9192
549 1 -1.1104 3.83556 19.9275 17.9462
550 2 2.2208 2.4843 18.5657 19.3558
551 1 -1.1104 3.79267 14.3831 15.2135
553 1 -1.1104 3.82875 19.983 15.1436
555 2 2.2208 2.50144 15.8218 16.522
556 2 2.2208 2.45416 21.3057 16.5163
557 1 -1.1104 3.82205 17.1335 17.92
558 1 -1.1104 3.92409 17.2547 15.138
545 1 -1.1104 1.1032 17.2877 20.8459
538 1 -1.1104 6.7214 19.9525 15.1194
541 1 -1.1104 6.55782 17.24 17.8777
531 1 -1.1104 6.68195 19.9283 17.9636
547 1 -1.1104 6.78811 17.1446 20.6671
335 2 2.2208 -0.409547 21.3518 13.7011
533 1 -1.1104 1.095 14.358 20.7864
623 2 2.2208 -0.35559 18.5938 22.078
359 2 2.2208 5.3033 15.7722 13.7866
9089 2 2.2208 8.13406 -3.86618 24.9731
546 1 -1.1104 6.69879 17.2284 15.1482
530 1 -1.1104 6.71906 14.4204 17.9514
536 1 -1.1104 6.54562 14.3482 15.1131
563 2 2.2208 10.9371 18.5071 16.5573
564 1 -1.1104 12.3133 14.2917 17.9701
565 1 -1.1104 12.3424 19.8566 17.922
566 1 -1.1104 12.1941 14.3409 15.257
568 1 -1.1104 12.2902 19.9485 15.1674
570 1 -1.1104 12.3946 17.0849 17.9522
571 2 2.2208 10.9281 15.6204 19.325
572 2 2.2208 10.9004 21.3684 19.3765
573 1 -1.1104 12.3201 17.1397 15.244
575 1 -1.1104 9.47943 14.3892 17.9848
576 1 -1.1104 9.52684 19.8847 17.918
577 2 2.2208 8.19124 18.5064 19.3069
578 1 -1.1104 9.42327 14.3618 15.2041
580 1 -1.1104 9.52207 19.9373 15.1645
582 2 2.2208 8.08821 15.7439 16.5743
583 2 2.2208 8.09376 21.3346 16.5531
584 1 -1.1104 9.45345 17.0911 17.946
585 1 -1.1104 9.53009 17.1424 15.1467
499 1 -1.1104 12.3253 19.8226 26.2945
413 1 -1.1104 3.89464 -2.28087 20.826
394 1 -1.1104 1.112 -2.43795 20.7389
406 1 -1.1104 1.05633 0.41429 20.8488
415 1 -1.1104 4.00251 3.15436 20.6788
396 1 -1.1104 1.21289 3.1959 20.7457
408 1 -1.1104 6.82915 0.352711 20.6686
420 1 -1.1104 3.94236 0.42645 20.6065
398 1 -1.1104 6.68871 -2.46203 20.7269
400 1 -1.1104 6.72393 3.11859 20.7045
591 2 2.2208 5.40093 1.72387 22.0846
592 1 -1.1104 1.21616 -2.30849 23.5222
593 1 -1.1104 1.20332 3.09769 23.562
596 1 -1.1104 1.1616 -2.46501 26.3243
597 1 -1.1104 1.26202 3.24178 26.41
600 1 -1.1104 1.0296 0.382697 23.58
602 2 2.2208 5.30041 -1.03629 24.8847
603 2 2.2208 5.34387 4.45181 24.9525
604 1 -1.1104 1.20709 0.37125 26.2997
606 1 -1.1104 4.03724 -2.4498 23.652
607 1 -1.1104 3.90863 3.0891 23.6267
608 2 2.2208 2.64133 1.7484 24.9637
609 1 -1.1104 3.88262 -2.4378 26.4217
610 1 -1.1104 4.08821 3.13047 26.3646
611 2 2.2208 2.52954 -0.986937 22.1784
612 2 2.2208 2.5202 4.49784 22.2298
613 1 -1.1104 3.90575 0.317985 23.4919
614 1 -1.1104 3.99588 0.404871 26.2794
598 1 -1.1104 6.63709 -2.56391 26.2691
594 1 -1.1104 6.9323 -2.48085 23.5262
601 1 -1.1104 6.65565 0.280734 23.4483
605 1 -1.1104 6.75736 0.343153 26.3003
524 1 -1.1104 12.3881 17.2943 23.5082
599 1 -1.1104 6.83987 3.20404 26.2562
626 2 2.2208 -0.176425 4.51022 24.9275
421 2 2.2208 -0.319504 7.3216 22.1921
447 1 -1.1104 9.51321 -2.36859 20.7056
442 1 -1.1104 12.4411 0.297404 20.7139
454 1 -1.1104 9.60454 0.447023 20.6703
435 1 -1.1104 12.2934 -2.48762 20.7548
620 1 -1.1104 9.45189 17.081 26.355
595 1 -1.1104 6.73584 3.01185 23.407
590 1 -1.1104 9.53327 19.817 26.1572
449 1 -1.1104 9.6247 3.28152 20.7031
562 1 -1.1104 9.46486 19.8882 23.3429
616 2 2.2208 8.10207 21.3908 22.0427
627 2 2.2208 10.9985 1.76821 22.0787
628 1 -1.1104 12.3692 -2.44151 23.4633
629 1 -1.1104 12.3179 3.19705 23.4195
630 1 -1.1104 12.262 -2.38489 26.3389
631 1 -1.1104 12.4093 3.13656 26.3213
632 1 -1.1104 12.2884 0.431256 23.4798
633 2 2.2208 10.9001 -1.05274 24.8996
634 2 2.2208 10.9649 4.49633 24.8543
635 1 -1.1104 12.2641 0.434017 26.3595
636 1 -1.1104 9.68788 -2.44686 23.4954
637 1 -1.1104 9.51298 3.04852 23.5464
638 2 2.2208 8.13896 1.67849 24.8818
639 1 -1.1104 9.51897 -2.49336 26.2558
640 1 -1.1104 9.56956 3.15628 26.3283
641 2 2.2208 8.27085 -1.075 22.1754
642 2 2.2208 8.15003 4.47824 22.1597
643 1 -1.1104 9.55175 0.325182 23.5192
644 1 -1.1104 9.52534 0.287571 26.309
560 1 -1.1104 12.3691 17.0575 26.3231
427 2 2.2208 -0.169631 4.64551 19.3662
685 2 2.2208 -0.307227 13.0016 22.1221
478 1 -1.1104 1.2422 5.98762 20.7669
489 1 -1.1104 3.99109 8.62309 20.7113
469 1 -1.1104 1.28799 8.71297 20.7662
494 1 -1.1104 3.90824 5.92939 20.8609
480 1 -1.1104 1.21615 11.4804 20.6652
496 1 -1.1104 4.0724 11.541 20.7913
482 1 -1.1104 6.84171 5.94412 20.6608
656 2 2.2208 5.39081 7.28269 22.13
657 2 2.2208 5.33293 12.9595 22.0591
658 1 -1.1104 1.17798 8.75733 23.5622
660 1 -1.1104 1.15745 8.67664 26.3616
662 1 -1.1104 1.16733 5.93454 23.5025
663 1 -1.1104 1.23599 11.5271 23.5146
666 2 2.2208 5.37832 10.1158 24.8873
667 1 -1.1104 1.09327 5.92648 26.2426
668 1 -1.1104 1.03564 11.4096 26.3304
671 1 -1.1104 3.99802 8.78751 23.5807
672 2 2.2208 2.60318 7.37553 24.9274
673 2 2.2208 2.51888 12.9332 24.8826
674 1 -1.1104 3.9561 8.75412 26.3818
675 2 2.2208 2.61665 10.123 22.0671
676 1 -1.1104 4.00403 6.01567 23.6045
677 1 -1.1104 4.03873 11.5558 23.6426
678 1 -1.1104 3.86234 5.90388 26.3394
679 1 -1.1104 3.84711 11.6147 26.3163
661 1 -1.1104 6.69579 8.69883 26.1992
665 1 -1.1104 6.76714 11.4992 23.4617
659 1 -1.1104 6.8083 8.70032 23.3754
670 1 -1.1104 6.68761 11.5503 26.2001
664 1 -1.1104 6.68543 5.85676 23.4822
669 1 -1.1104 6.72379 5.97576 26.3353
462 2 2.2208 10.907 18.5017 22.1142
624 2 2.2208 -0.207684 -1.03216 24.9032
511 1 -1.1104 12.4779 11.3922 20.7033
521 1 -1.1104 9.63237 5.99019 20.8089
504 1 -1.1104 12.4713 8.67677 20.7037
509 1 -1.1104 12.3341 5.9093 20.6049
516 1 -1.1104 9.58909 8.78322 20.6708
523 1 -1.1104 9.56374 11.5617 20.6103
687 1 -1.1104 9.45973 11.522 26.2201
688 1 -1.1104 9.52249 5.92709 26.4196
689 1 -1.1104 9.55497 11.585 23.4939
690 1 -1.1104 9.55876 5.81966 23.5769
691 2 2.2208 8.22755 10.1607 22.0735
692 1 -1.1104 9.55712 8.72455 26.2492
693 2 2.2208 8.04807 12.9103 24.8235
694 2 2.2208 8.11609 7.28486 24.8474
695 2 2.2208 10.9404 7.33915 22.081
696 2 2.2208 10.927 12.9474 22.1462
697 1 -1.1104 12.2239 8.59267 23.4346
698 1 -1.1104 12.338 8.58404 26.1877
699 1 -1.1104 12.3813 5.88012 23.4117
700 1 -1.1104 12.2402 11.4832 23.4687
701 2 2.2208 10.9141 10.0921 24.8784
702 1 -1.1104 12.3689 5.79248 26.3092
703 1 -1.1104 12.292 11.4005 26.2549
704 1 -1.1104 9.55659 8.77079 23.4113
561 1 -1.1104 9.57828 14.3162 23.54
525 2 2.2208 10.9128 15.6755 24.9616
554 1 -1.1104 3.83324 19.9578 20.731
552 1 -1.1104 3.85972 14.4404 20.6289
535 1 -1.1104 0.984295 19.9554 20.6881
559 1 -1.1104 3.90685 17.201 20.6244
680 1 -1.1104 6.73429 17.1492 23.4798
719 2 2.2208 5.29211 21.3653 24.9303
717 1 -1.1104 1.14643 14.3274 26.3164
720 2 2.2208 5.31293 15.6888 24.8346
647 2 2.2208 2.53958 15.7764 22.0751
649 2 2.2208 2.42209 21.3302 22.1391
652 1 -1.1104 3.93062 17.1517 23.3858
655 1 -1.1104 1.13365 17.1728 23.535
681 1 -1.1104 3.94245 14.4115 26.261
682 1 -1.1104 4.00822 17.0914 26.2155
683 2 2.2208 2.51423 18.5557 24.8174
686 1 -1.1104 3.87359 19.8808 26.1816
705 2 2.2208 5.28126 18.6314 22.0516
706 1 -1.1104 1.10827 14.4079 23.5389
707 1 -1.1104 1.13944 19.9683 23.4422
711 1 -1.1104 3.95765 19.9752 23.4926
713 1 -1.1104 3.91179 14.3729 23.4084
715 1 -1.1104 1.02189 20.0269 26.2853
716 1 -1.1104 1.02242 17.1649 26.2714
714 1 -1.1104 6.73848 17.0529 26.2776
718 1 -1.1104 6.69272 19.9527 23.5094
588 1 -1.1104 6.7175 20.0236 26.2703
712 1 -1.1104 6.63127 14.2924 26.1367
625 2 2.2208 -0.257445 1.7796 22.1563
537 1 -1.1104 6.64864 14.4074 20.678
569 1 -1.1104 12.2838 19.9527 20.7914
581 1 -1.1104 9.48308 19.9919 20.6647
579 1 -1.1104 9.54836 14.3466 20.8317
567 1 -1.1104 12.358 14.1723 20.7813
574 1 -1.1104 12.3476 17.0214 20.651
586 1 -1.1104 9.53146 17.177 20.7075
589 1 -1.1104 9.50078 14.2305 26.34
498 1 -1.1104 12.1869 14.2414 26.2478
539 1 -1.1104 6.7563 19.9541 20.6857
709 1 -1.1104 6.75847 14.3641 23.4599
459 2 2.2208 13.7909 -1.11221 16.4854
334 2 2.2208 -0.204873 -1.02522 13.77
429 2 2.2208 13.7587 4.56577 16.4687
342 2 2.2208 -0.30621 15.6693 13.7562
9016 2 2.2208 8.1916 -3.89429 13.708
9090 2 2.2208 10.9263 -3.87738 22.0877
360 2 2.2208 11.0067 21.3438 13.8067
356 2 2.2208 8.13073 12.9367 13.7583
375 2 2.2208 2.44789 21.2557 27.7733
358 2 2.2208 5.28374 21.2506 13.7183
339 2 2.2208 2.59381 1.81117 13.7441
721 2 2.2208 5.22831 24.0763 5.33176
722 2 2.2208 5.30593 29.7517 5.29875
723 1 -1.1104 1.07195 25.4942 1.12835
724 1 -1.1104 1.14222 25.3998 3.93443
725 1 -1.1104 1.18188 22.6276 1.18083
726 1 -1.1104 1.02063 28.3482 1.07408
727 2 2.2208 5.30322 26.8506 2.46644
728 1 -1.1104 1.11003 22.6622 3.8899
729 1 -1.1104 1.07514 28.2512 3.87406
730 1 -1.1104 3.81734 25.4475 1.12531
731 2 2.2208 2.50079 24.1268 2.58355
732 2 2.2208 2.4412 29.6075 2.5578
733 1 -1.1104 3.9098 25.5354 3.86517
734 2 2.2208 2.5041 26.8773 5.33827
735 1 -1.1104 3.82542 22.596 1.152
736 1 -1.1104 3.715 28.1855 1.23123
737 1 -1.1104 3.91867 22.6665 3.91075
738 1 -1.1104 3.87513 28.337 3.859
870 1 -1.1104 3.80901 28.3409 6.7134
865 1 -1.1104 1.01047 28.2185 6.68355
746 1 -1.1104 6.65653 22.6495 3.98165
745 1 -1.1104 6.61973 28.2691 1.10797
864 1 -1.1104 1.04569 22.6041 6.65614
743 1 -1.1104 6.7138 25.5065 3.93868
1046 2 2.2208 5.34239 26.9684 13.7319
868 1 -1.1104 3.83696 25.5323 6.83629
862 1 -1.1104 1.19558 25.3898 6.66186
1068 2 2.2208 5.20293 24.0844 -0.27911
1086 2 2.2208 10.9402 35.3325 -0.163947
1646 1 -1.1104 12.2443 47.87 12.3198
744 1 -1.1104 6.60024 22.6637 1.12165
747 1 -1.1104 6.67603 28.2898 3.90244
742 1 -1.1104 6.73029 25.5171 1.11197
748 2 2.2208 10.8777 24.0482 5.30462
749 2 2.2208 10.7367 29.6422 5.35164
750 1 -1.1104 12.3005 25.4932 1.12067
751 1 -1.1104 12.2274 25.452 3.87974
752 1 -1.1104 12.2694 22.7571 1.20601
753 1 -1.1104 12.2663 28.2703 1.03381
754 2 2.2208 10.8192 26.887 2.3997
755 1 -1.1104 12.3275 22.6902 3.98902
756 1 -1.1104 12.1912 28.1997 3.79305
757 1 -1.1104 9.41109 25.6384 1.07502
758 2 2.2208 8.01701 24.0432 2.52166
759 2 2.2208 7.99801 29.6177 2.5097
760 1 -1.1104 9.36284 25.3283 3.94556
761 2 2.2208 8.0604 26.9211 5.28881
762 1 -1.1104 9.42885 22.7627 1.06054
763 1 -1.1104 9.48216 28.4245 1.12403
764 1 -1.1104 9.52459 22.5591 3.90822
765 1 -1.1104 9.40532 28.3209 3.86992
899 1 -1.1104 9.51532 22.7038 6.70925
897 1 -1.1104 12.178 28.2379 6.66186
1033 2 2.2208 13.61 43.6674 5.32487
1037 2 2.2208 -0.401133 24.1812 10.9128
769 2 2.2208 5.30305 35.3951 5.30236
770 1 -1.1104 1.09024 31.1096 1.23031
771 1 -1.1104 1.12422 36.6661 1.08693
773 1 -1.1104 1.03919 31.0368 4.00176
774 1 -1.1104 1.04172 36.6696 3.82008
776 1 -1.1104 1.02444 33.9517 1.06037
777 2 2.2208 5.21904 32.561 2.43422
778 2 2.2208 5.22816 38.1881 2.47165
779 1 -1.1104 1.08556 33.8316 3.87934
781 1 -1.1104 3.8217 31.0414 1.16994
782 1 -1.1104 3.93199 36.8112 1.06273
783 2 2.2208 2.42993 35.3634 2.51097
784 1 -1.1104 3.81975 31.134 3.95238
785 1 -1.1104 3.78792 36.7332 3.79371
786 2 2.2208 2.50435 32.5072 5.3394
787 2 2.2208 2.32365 38.1199 5.22444
788 1 -1.1104 3.82674 33.9816 1.11111
789 1 -1.1104 3.92378 33.9319 4.00389
923 1 -1.1104 1.02149 33.7753 6.74016
740 2 2.2208 -0.3553 29.7677 5.39332
920 1 -1.1104 0.993816 36.7423 6.65368
780 1 -1.1104 6.65843 33.9643 3.95819
927 1 -1.1104 3.79591 33.9561 6.74339
921 1 -1.1104 6.57647 31.0535 6.78042
1042 2 2.2208 13.5256 40.75 8.21817
1083 2 2.2208 13.6014 38.1627 -0.276009
1004 2 2.2208 -0.332486 43.852 8.07574
775 1 -1.1104 6.6554 36.7842 3.90809
794 1 -1.1104 6.69678 31.0427 3.84013
793 1 -1.1104 6.71695 31.1121 1.05016
795 1 -1.1104 6.74191 33.9546 1.12478
772 1 -1.1104 6.69975 36.7205 1.13185
796 2 2.2208 10.918 35.39 5.43171
797 1 -1.1104 12.3112 31.1955 1.21913
798 1 -1.1104 12.3423 36.8076 1.20836
799 1 -1.1104 12.1141 31.0825 3.91025
800 1 -1.1104 12.3037 36.7602 3.93237
801 1 -1.1104 12.3112 33.953 1.37912
802 2 2.2208 10.795 32.5303 2.58877
803 2 2.2208 10.8922 38.1818 2.56999
804 1 -1.1104 12.128 33.956 4.01349
805 1 -1.1104 9.46417 31.1523 1.1256
806 1 -1.1104 9.5245 36.7456 1.1462
807 2 2.2208 8.07981 35.3475 2.5738
808 1 -1.1104 9.35035 31.1563 3.99512
809 1 -1.1104 9.50836 36.6737 3.97034
810 2 2.2208 8.00261 32.5468 5.29172
811 2 2.2208 8.1476 38.0714 5.32118
812 1 -1.1104 9.52212 33.9061 1.10764
813 1 -1.1104 9.35004 33.9065 3.88625
956 1 -1.1104 9.39982 31.0685 6.70572
955 1 -1.1104 12.0234 33.7571 6.7079