ITEM: TIMESTEP
30000
ITEM: NUMBER OF ATOMS
17670
ITEM: BOX BOUNDS pp pp pp
-3.1714126335704002e-01 2.7657141263356962e+01
-3.9055289850327610e+00 3.3198552898503783e+02
-3.2070256990135759e-01 2.7660702569901446e+01
ITEM: ATOMS id type q x y z
1 2 2.2208 5.1622 1.64144 5.42255
2 1 -1.1104 1.00996 -2.38358 1.16525
3 1 -1.1104 1.01651 3.08134 1.17494
6 1 -1.1104 1.00917 -2.51915 4.06133
7 1 -1.1104 1.123 3.09271 3.90552
10 1 -1.1104 1.08069 0.282593 1.2085
12 2 2.2208 5.27758 -1.03402 2.61258
13 2 2.2208 5.23212 4.47334 2.60171
14 1 -1.1104 0.991093 0.273661 3.95573
16 1 -1.1104 3.79741 -2.4762 1.29863
17 1 -1.1104 3.85854 3.04366 1.1079
18 2 2.2208 2.4318 1.66639 2.47166
19 1 -1.1104 3.8289 -2.39687 3.97653
20 1 -1.1104 3.86846 3.09812 3.92863
21 2 2.2208 2.35009 -1.04917 5.27323
22 2 2.2208 2.47078 4.47516 5.3705
23 1 -1.1104 3.92608 0.224675 1.18273
24 1 -1.1104 3.7364 0.333591 3.91587
170 1 -1.1104 0.894006 0.281951 6.69721
380 2 2.2208 2.43627 9.98335 -0.309916
173 1 -1.1104 3.83105 3.0504 6.79449
372 2 2.2208 7.99045 4.49841 -0.0744275
374 2 2.2208 5.2644 18.4677 -0.253558
11 1 -1.1104 6.61735 0.301803 1.17413
5 1 -1.1104 6.6457 3.04685 1.28817
169 1 -1.1104 6.57514 3.02321 6.8245
172 1 -1.1104 3.90983 -2.51302 6.80371
365 2 2.2208 2.5284 -1.13444 -0.158725
4 1 -1.1104 6.56005 -2.46196 1.20962
15 1 -1.1104 6.62786 0.269434 4.01112
9 1 -1.1104 6.69979 3.06097 3.98584
8 1 -1.1104 6.64411 -2.43699 3.99298
31 2 2.2208 10.8051 1.65041 5.38139
32 1 -1.1104 12.2664 -2.50141 1.26865
33 1 -1.1104 12.1902 3.08391 1.2231
34 1 -1.1104 12.3757 -2.44273 4.02856
35 1 -1.1104 12.2523 3.15277 4.08265
36 1 -1.1104 12.2932 0.23078 1.25206
37 2 2.2208 10.8413 -1.10596 2.64491
38 2 2.2208 10.7477 4.50839 2.63077
39 1 -1.1104 12.2908 0.405585 3.99268
40 1 -1.1104 9.45896 -2.41016 1.21115
41 1 -1.1104 9.41298 3.05816 1.30192
42 2 2.2208 8.0946 1.71736 2.63081
43 1 -1.1104 9.48062 -2.4528 4.0437
44 1 -1.1104 9.4221 3.06633 4.0519
45 2 2.2208 8.10596 -1.14559 5.42248
46 2 2.2208 8.05397 4.47012 5.38686
47 1 -1.1104 9.39467 0.226032 1.19795
48 1 -1.1104 9.51927 0.255904 3.98217
171 1 -1.1104 6.53462 0.301152 6.80316
375 2 2.2208 2.50247 21.3098 -0.1837
165 2 2.2208 13.6763 18.5 2.63223
208 1 -1.1104 9.48945 -2.49898 6.83084
137 2 2.2208 -0.289286 18.4761 5.39526
370 2 2.2208 8.03228 -1.09138 -0.246864
331 2 2.2208 10.9265 18.5262 11.0435
199 2 2.2208 -0.259919 4.42609 8.09912
54 2 2.2208 5.23974 7.33789 5.36428
55 2 2.2208 5.27725 12.7999 5.27258
56 1 -1.1104 1.04817 8.57704 1.0487
58 1 -1.1104 1.03139 8.69009 3.94834
60 1 -1.1104 1.08363 5.79017 1.18004
61 1 -1.1104 0.965346 11.4219 1.08922
66 2 2.2208 5.24988 10.0477 2.53389
67 1 -1.1104 1.07974 5.92224 4.07516
68 1 -1.1104 0.898817 11.5358 3.84261
71 1 -1.1104 3.81459 8.63829 1.1078
72 2 2.2208 2.45679 7.27245 2.56127
73 2 2.2208 2.32043 12.8173 2.54153
74 1 -1.1104 3.73952 8.66468 4.01879
75 2 2.2208 2.46419 10.1648 5.3817
76 1 -1.1104 3.89474 5.81578 1.23006
77 1 -1.1104 3.87733 11.3702 1.14196
79 1 -1.1104 3.85181 5.89003 3.92635
80 1 -1.1104 3.78641 11.4446 3.85768
315 1 -1.1104 9.49342 17.1903 12.4901
373 2 2.2208 2.41626 15.7443 -0.145734
364 2 2.2208 5.25354 1.68511 -0.208089
238 1 -1.1104 3.85273 8.62429 6.82424
59 1 -1.1104 6.65776 8.6501 3.97509
64 1 -1.1104 6.60123 11.4272 1.23224
379 2 2.2208 5.18054 7.2014 -0.24189
349 2 2.2208 8.14569 21.2542 -0.212569
344 2 2.2208 13.7611 15.6267 -0.190235
381 2 2.2208 5.22356 12.8977 -0.238296
333 2 2.2208 13.688 15.6318 10.9465
385 2 2.2208 7.97027 10.1246 -0.278857
70 1 -1.1104 6.55421 11.4433 3.95184
63 1 -1.1104 6.65138 5.86179 1.205
57 1 -1.1104 6.52433 8.63319 1.1103
69 1 -1.1104 6.73866 5.87821 4.02708
84 2 2.2208 10.7979 7.32054 5.42893
85 2 2.2208 10.9529 12.7937 5.39187
86 1 -1.1104 12.1639 8.63365 1.24844
87 1 -1.1104 12.1876 8.63601 4.03829
88 1 -1.1104 12.163 5.89068 1.18517
89 1 -1.1104 12.2275 11.4156 1.3398
91 2 2.2208 10.8483 10.0462 2.56683
92 1 -1.1104 12.3021 5.91533 3.97351
93 1 -1.1104 12.2713 11.3915 4.05358
94 1 -1.1104 9.40311 8.66094 1.27762
95 2 2.2208 8.06064 7.23978 2.54629
96 2 2.2208 8.04671 12.8297 2.63103
97 1 -1.1104 9.39408 8.52145 3.96346
98 2 2.2208 8.13138 10.0443 5.43677
99 1 -1.1104 9.41558 5.86151 1.13542
100 1 -1.1104 9.41625 11.429 1.19674
102 1 -1.1104 9.51948 5.90502 3.97801
103 1 -1.1104 9.37843 11.4201 4.09881
314 1 -1.1104 9.55337 17.1112 9.70561
265 1 -1.1104 12.2146 8.6698 6.8128
384 2 2.2208 10.8019 7.24314 -0.193258
386 2 2.2208 10.7702 12.8678 -0.241634
53 2 2.2208 13.638 12.8338 8.19583
366 2 2.2208 2.43266 4.42698 -0.211689
202 2 2.2208 13.6008 7.28357 8.14409
106 2 2.2208 5.27608 18.4249 5.34394
107 1 -1.1104 1.06828 14.1908 1.18444
109 1 -1.1104 1.07976 19.9092 1.09931
113 1 -1.1104 0.97463 14.2965 4.0343
114 1 -1.1104 1.11838 19.7081 3.9779
116 1 -1.1104 0.96841 17.0853 1.22665
119 2 2.2208 5.24058 15.6468 2.49817
120 2 2.2208 5.21057 21.2483 2.61633
121 1 -1.1104 0.946448 16.9584 3.93153
123 1 -1.1104 3.81986 14.2983 1.12867
125 1 -1.1104 3.83684 19.7257 1.19769
127 2 2.2208 2.40275 18.3669 2.54409
128 1 -1.1104 3.76497 14.1544 3.93189
129 1 -1.1104 3.81389 19.716 3.9854
130 2 2.2208 2.50033 15.6275 5.35606
131 2 2.2208 2.44728 21.1541 5.38436
132 1 -1.1104 3.7928 17.039 1.24408
134 1 -1.1104 3.83458 17.009 3.89331
52 2 2.2208 13.5959 10.0726 10.921
124 1 -1.1104 3.95793 14.1539 6.75191
115 1 -1.1104 6.65184 14.2262 3.9909
104 2 2.2208 13.5938 12.8119 2.60207
229 2 2.2208 13.6262 1.68757 8.21832
149 1 -1.1104 12.2845 17.0974 6.85924
118 1 -1.1104 6.69674 17.0022 6.70479
112 1 -1.1104 6.65331 19.8735 6.72448
122 1 -1.1104 6.56813 17.0588 3.9847
138 1 -1.1104 6.62819 19.9241 1.15524
139 1 -1.1104 6.78562 19.8989 3.89965
110 1 -1.1104 6.68969 14.2654 1.27323
140 1 -1.1104 6.72014 17.1259 1.11519
141 2 2.2208 10.9484 18.4411 5.40758
142 1 -1.1104 12.259 14.2203 1.22702
144 1 -1.1104 12.2866 19.8658 1.22838
146 1 -1.1104 12.2603 14.1763 4.01384
147 1 -1.1104 12.4439 19.8537 4.03864
148 1 -1.1104 12.3696 17.0063 1.28246
150 2 2.2208 10.8815 15.6209 2.59272
151 2 2.2208 10.8944 21.1705 2.61741
152 1 -1.1104 12.277 17.0601 3.9968
153 1 -1.1104 9.40137 14.2894 1.19199
155 1 -1.1104 9.57879 19.8806 1.22779
157 2 2.2208 8.04519 18.4236 2.55227
158 1 -1.1104 9.44434 14.2126 3.99997
159 1 -1.1104 9.52597 19.7094 4.04987
160 2 2.2208 8.07247 15.5832 5.33978
161 2 2.2208 8.10709 21.2578 5.40732
162 1 -1.1104 9.44952 17.0494 1.20735
164 1 -1.1104 9.49056 16.9195 3.97023
204 2 2.2208 13.6705 15.6441 5.33517
156 1 -1.1104 9.51465 19.9568 6.76492
347 2 2.2208 7.97111 15.564 -0.182599
348 2 2.2208 10.9343 18.436 -0.137333
174 1 -1.1104 3.69147 0.293979 6.77461
230 2 2.2208 13.5774 -1.12406 10.943
166 1 -1.1104 1.14185 -2.47092 6.84075
167 1 -1.1104 1.09492 3.11879 6.74471
203 2 2.2208 13.6578 4.55252 10.9807
175 2 2.2208 5.29801 1.6514 11.0066
176 1 -1.1104 1.15179 -2.47574 12.3428
177 1 -1.1104 1.05672 3.1532 12.4067
180 1 -1.1104 1.13614 -2.48569 9.68903
181 1 -1.1104 1.13706 3.02497 9.51131
184 1 -1.1104 1.08949 0.292862 12.3585
186 2 2.2208 5.23903 -1.09024 8.15412
187 2 2.2208 5.20977 4.47184 8.295
188 1 -1.1104 1.20587 0.241714 9.56391
190 1 -1.1104 3.89808 -2.48508 12.3756
191 1 -1.1104 3.96563 3.13866 12.4606
192 2 2.2208 2.40094 1.66576 8.19239
193 1 -1.1104 3.94709 -2.47854 9.53248
194 1 -1.1104 3.79096 3.06084 9.64901
195 2 2.2208 2.54145 -1.08667 10.9948
196 2 2.2208 2.50701 4.48922 11.0655
197 1 -1.1104 3.83084 0.327785 12.431
198 1 -1.1104 3.90119 0.293259 9.55554
200 2 2.2208 -0.244322 -1.20574 8.17574
328 1 -1.1104 12.3116 14.2565 9.52167
206 1 -1.1104 12.2395 3.03005 6.87375
205 1 -1.1104 12.2764 -2.47954 6.85478
209 1 -1.1104 9.49325 3.12673 6.85418
185 1 -1.1104 6.61152 0.25552 12.29
189 1 -1.1104 6.74224 0.265046 9.60593
179 1 -1.1104 6.72105 2.95764 12.3518
168 1 -1.1104 6.68012 -2.5162 6.78788
183 1 -1.1104 6.58462 3.10319 9.5814
210 1 -1.1104 9.33537 0.280202 6.77816
178 1 -1.1104 6.69842 -2.51 12.5096
182 1 -1.1104 6.68362 -2.50472 9.6924
207 1 -1.1104 12.1928 0.261521 6.72443
211 2 2.2208 10.8302 1.66849 10.9521
212 1 -1.1104 12.1992 -2.49225 12.3667
213 1 -1.1104 12.3725 3.02835 12.317
214 1 -1.1104 12.2977 -2.50124 9.61401
215 1 -1.1104 12.2853 3.12772 9.64584
216 1 -1.1104 12.2419 0.241752 12.353
217 2 2.2208 10.8535 -1.0786 8.18769
218 2 2.2208 10.9209 4.48823 8.10889
219 1 -1.1104 12.2124 0.283543 9.56458
220 1 -1.1104 9.4277 -2.53421 12.3121
221 1 -1.1104 9.49396 3.08464 12.3056
222 2 2.2208 7.95728 1.68972 8.19989
223 1 -1.1104 9.50654 -2.50977 9.57175
224 1 -1.1104 9.47301 3.10874 9.51438
225 2 2.2208 8.11175 -1.17293 10.905
226 2 2.2208 8.08255 4.41437 11.0421
227 1 -1.1104 9.47084 0.230852 12.4606
228 1 -1.1104 9.44238 0.368249 9.58467
319 1 -1.1104 9.4442 14.3107 9.51024
78 1 -1.1104 3.90971 11.4616 6.76782
236 1 -1.1104 1.01016 5.88172 6.808
62 1 -1.1104 1.02412 11.4675 6.80159
316 2 2.2208 8.08454 21.2562 10.903
234 1 -1.1104 1.09358 8.66534 6.76691
297 1 -1.1104 6.67568 14.2162 12.4295
239 1 -1.1104 3.78587 5.76946 6.81495
240 2 2.2208 5.17444 7.25188 11.0518
241 2 2.2208 5.30958 12.8529 11.0297
242 1 -1.1104 1.07821 8.63795 12.3451
244 1 -1.1104 1.09367 8.70725 9.5604
246 1 -1.1104 1.09503 5.85209 12.332
247 1 -1.1104 1.09201 11.469 12.3633
250 2 2.2208 5.29528 10.0707 8.15294
251 1 -1.1104 1.08813 5.81625 9.55357
252 1 -1.1104 1.07844 11.5166 9.57643
255 1 -1.1104 3.9024 8.6096 12.4699
256 2 2.2208 2.40433 7.36126 8.20328
257 2 2.2208 2.41277 12.8642 8.20221
258 1 -1.1104 3.89571 8.65962 9.57203
259 2 2.2208 2.45566 10.0382 10.9217
260 1 -1.1104 3.87475 5.888 12.5017
261 1 -1.1104 3.91531 11.3432 12.3881
262 1 -1.1104 3.81701 5.89056 9.5767
263 1 -1.1104 3.83125 11.5073 9.57282
245 1 -1.1104 6.60265 8.59962 9.60898
249 1 -1.1104 6.60579 11.5378 12.4183
296 1 -1.1104 6.70125 19.8547 12.4543
306 1 -1.1104 6.56722 17.1169 12.4947
288 1 -1.1104 6.67223 19.8048 9.6096
324 2 2.2208 10.9113 21.3009 8.18053
237 1 -1.1104 6.62714 5.79714 6.77821
267 1 -1.1104 9.48153 8.76257 6.79922
266 1 -1.1104 12.2194 5.90898 6.79008
235 1 -1.1104 6.6826 8.57588 6.84523
254 1 -1.1104 6.59035 11.4711 9.64268
243 1 -1.1104 6.69718 8.73968 12.4391
65 1 -1.1104 6.76037 11.3304 6.81484
90 1 -1.1104 12.2859 11.4745 6.82195
101 1 -1.1104 9.52575 11.5703 6.80512
253 1 -1.1104 6.6712 5.84991 9.72836
248 1 -1.1104 6.71674 5.86869 12.4611
269 1 -1.1104 9.50531 5.81267 6.85403
264 1 -1.1104 9.36903 11.5121 9.59825
268 1 -1.1104 9.35335 5.96427 9.52812
270 1 -1.1104 9.49264 11.58 12.3644
271 1 -1.1104 9.56025 5.86473 12.4204
272 2 2.2208 8.02505 10.093 11.0165
273 1 -1.1104 9.42015 8.74043 9.48954
274 2 2.2208 8.1434 12.9003 8.13165
275 2 2.2208 8.03665 7.20711 8.15457
276 2 2.2208 10.8112 7.26823 10.9771
277 2 2.2208 10.7878 12.9617 10.9592
278 1 -1.1104 12.1768 8.72623 12.3628
279 1 -1.1104 12.1181 8.69367 9.54708
280 1 -1.1104 12.2714 5.99225 12.4005
281 1 -1.1104 12.1832 11.5378 12.3437
282 2 2.2208 10.821 10.1373 8.26376
283 1 -1.1104 12.2345 5.84519 9.53073
284 1 -1.1104 12.2437 11.5025 9.59537
285 1 -1.1104 9.47546 8.72119 12.3939
133 1 -1.1104 3.87551 16.985 6.83445
117 1 -1.1104 1.06518 17.0445 6.73389
145 1 -1.1104 12.2278 19.9147 6.86898
289 1 -1.1104 6.80156 17.107 9.53397
126 1 -1.1104 3.83015 19.7476 6.80787
302 1 -1.1104 1.0308 19.8353 6.77521
108 1 -1.1104 1.13826 14.2667 6.76351
295 2 2.2208 5.24992 15.5827 8.14791
294 1 -1.1104 0.976697 14.2797 9.58801
298 1 -1.1104 1.0837 19.8384 12.2969
308 1 -1.1104 3.86402 16.8836 12.4403
303 2 2.2208 2.51158 18.4392 8.19669
307 1 -1.1104 1.18131 17.0981 12.4267
309 2 2.2208 2.53002 21.201 11.0143
301 1 -1.1104 3.85238 19.8858 9.49896
300 2 2.2208 5.2726 18.4746 11.0168
310 2 2.2208 2.49972 15.6176 10.999
299 1 -1.1104 1.06983 14.2217 12.4675
305 1 -1.1104 3.80032 14.2046 9.62549
304 1 -1.1104 3.94557 17.0386 9.56798
286 1 -1.1104 3.9102 19.7172 12.4026
287 1 -1.1104 3.85319 14.0785 12.4195
291 1 -1.1104 1.06364 19.783 9.58121
292 1 -1.1104 1.17316 16.9962 9.61396
293 2 2.2208 5.30616 21.1444 8.1206
317 2 2.2208 8.04955 15.809 10.9408
326 1 -1.1104 12.3244 17.101 12.3528
318 1 -1.1104 9.4046 19.91 9.47196
321 1 -1.1104 9.40515 19.893 12.3783
330 1 -1.1104 12.2407 14.3062 12.3475
143 1 -1.1104 12.3192 14.2877 6.74261
329 1 -1.1104 12.2164 20.0257 12.4271
111 1 -1.1104 6.68357 14.1201 6.74822
154 1 -1.1104 9.49056 14.4014 6.80443
327 1 -1.1104 12.2769 19.952 9.64545
322 1 -1.1104 9.48902 14.4093 12.3716
163 1 -1.1104 9.52533 17.1339 6.81274
290 1 -1.1104 6.62344 14.2952 9.57786
323 1 -1.1104 12.2797 17.0726 9.65307
325 2 2.2208 10.9037 15.7148 8.15227
320 2 2.2208 8.09052 18.4815 8.14624
378 2 2.2208 13.5271 4.50379 -0.171567
313 2 2.2208 -0.293397 15.7088 8.12112
105 2 2.2208 13.6266 7.23806 2.6828
50 2 2.2208 13.6227 -1.11912 5.44319
201 2 2.2208 -0.286714 1.69582 10.952
49 2 2.2208 13.6669 1.65744 2.64957
387 2 2.2208 13.6782 10.1079 -0.151512
311 2 2.2208 -0.32844 21.1851 8.23641
9008 2 2.2208 10.8714 -3.87558 -0.252832
9004 2 2.2208 13.6906 -3.94219 8.22344
8998 2 2.2208 13.6524 -3.88997 2.6672
9012 2 2.2208 5.36561 -3.91073 -0.233497
9014 2 2.2208 -0.391102 -3.96872 -0.150397
8993 2 2.2208 2.55179 -3.82753 2.69759
8999 2 2.2208 2.55783 -3.84985 8.23666
8996 2 2.2208 8.1171 -3.83942 2.60072
369 2 2.2208 10.8278 1.63957 -0.199777
388 2 2.2208 5.29484 1.62986 16.5985
389 1 -1.1104 1.14439 -2.55618 17.989
390 1 -1.1104 1.02031 2.96578 17.8889
393 1 -1.1104 1.06702 -2.50413 15.1847
395 1 -1.1104 1.09905 3.06146 15.1486
401 1 -1.1104 1.14246 0.250336 17.9355
403 2 2.2208 5.33491 -1.18127 19.3223
404 2 2.2208 5.28876 4.49049 19.4107
405 1 -1.1104 1.05502 0.30541 15.1437
409 1 -1.1104 3.95985 -2.57927 17.918
410 1 -1.1104 3.93354 3.03706 17.9472
411 2 2.2208 2.58908 1.66517 19.3507
412 1 -1.1104 4.02882 -2.50436 15.1597
414 1 -1.1104 3.90704 3.09423 15.2189
416 2 2.2208 2.57655 -1.12212 16.535
417 2 2.2208 2.40455 4.4371 16.5362
418 1 -1.1104 3.90224 0.177644 17.9634
419 1 -1.1104 3.97004 0.341307 15.1308
338 2 2.2208 5.35382 -1.08161 13.7831
430 2 2.2208 13.6187 15.7096 22.2146
351 2 2.2208 2.42002 7.32053 13.8197
624 2 2.2208 -0.321153 -1.09908 25.0303
339 2 2.2208 2.46103 1.7589 13.8086
352 2 2.2208 5.2653 10.083 13.8438
400 1 -1.1104 6.76237 3.13178 20.7072
341 2 2.2208 5.31669 4.43872 13.8797
358 2 2.2208 5.37167 21.2436 13.771
9129 2 2.2208 10.8446 -3.87386 16.555
346 2 2.2208 10.7952 -1.15645 13.7707
399 1 -1.1104 6.73345 2.99013 15.1353
392 1 -1.1104 6.75475 3.0109 17.9523
397 1 -1.1104 6.8006 -2.44052 15.2835
407 1 -1.1104 6.68035 0.342348 15.1859
402 1 -1.1104 6.67855 0.180044 18.0079
391 1 -1.1104 6.75643 -2.49457 18.055
431 2 2.2208 10.8601 1.75579 16.559
432 1 -1.1104 12.4208 -2.438 18.0274
433 1 -1.1104 12.2488 3.04593 17.9159
434 1 -1.1104 12.3715 -2.4681 15.1415
436 1 -1.1104 12.2896 3.07018 15.188
438 1 -1.1104 12.385 0.418231 17.9923
439 2 2.2208 10.9442 -1.08083 19.3936
440 2 2.2208 10.9107 4.55295 19.3887
441 1 -1.1104 12.204 0.358955 15.2289
443 1 -1.1104 9.60173 -2.50249 17.9556
444 1 -1.1104 9.544 3.15199 17.9895
445 2 2.2208 8.13165 1.72522 19.4584
446 1 -1.1104 9.47124 -2.51165 15.0888
448 1 -1.1104 9.49468 3.10052 15.1446
450 2 2.2208 8.11207 -1.09417 16.5692
451 2 2.2208 8.06412 4.45365 16.5745
452 1 -1.1104 9.56073 0.282197 18.0934
453 1 -1.1104 9.49873 0.325546 15.2213
408 1 -1.1104 6.80131 0.320082 20.8418
359 2 2.2208 5.26963 15.6465 13.7894
587 2 2.2208 8.03664 18.5952 25.0358
447 1 -1.1104 9.55221 -2.52371 20.7642
350 2 2.2208 10.8865 4.47162 13.7872
357 2 2.2208 2.47795 18.4153 13.7992
353 2 2.2208 2.478 12.8329 13.8028
464 2 2.2208 5.19787 7.24294 16.6564
465 2 2.2208 5.24935 12.8318 16.6068
466 1 -1.1104 1.05686 8.64635 17.8917
468 1 -1.1104 0.997847 8.66667 15.173
472 1 -1.1104 1.05972 5.88915 18.0114
473 1 -1.1104 0.972634 11.4362 17.969
476 2 2.2208 5.25033 10.0616 19.3582
477 1 -1.1104 0.978292 5.88837 15.1767
479 1 -1.1104 1.05022 11.4737 15.1482
485 1 -1.1104 3.88961 8.6757 18.0008
486 2 2.2208 2.46486 7.26688 19.3991
487 2 2.2208 2.4105 12.9018 19.3928
488 1 -1.1104 3.78971 8.75551 15.2365
490 2 2.2208 2.43067 10.067 16.6597
491 1 -1.1104 3.74131 5.91188 18.0773
492 1 -1.1104 3.79775 11.379 18.1046
493 1 -1.1104 3.77116 5.88926 15.2895
495 1 -1.1104 3.83606 11.4876 15.2166
362 2 2.2208 8.10056 18.4624 13.8486
489 1 -1.1104 3.90418 8.6454 20.7567
478 1 -1.1104 1.0443 5.8373 20.9179
481 1 -1.1104 6.57321 5.99133 15.2806
360 2 2.2208 10.8406 21.3531 13.7258
470 1 -1.1104 6.75612 8.65998 15.1719
467 1 -1.1104 6.6763 8.73414 17.9912
474 1 -1.1104 6.60607 5.77303 17.9883
483 1 -1.1104 6.64342 11.4658 15.1608
475 1 -1.1104 6.63896 11.4272 17.9581
500 2 2.2208 10.8492 7.29146 16.4809
501 2 2.2208 10.8343 12.9021 16.589
502 1 -1.1104 12.2101 8.73455 17.9728
503 1 -1.1104 12.3071 8.71525 15.1378
505 1 -1.1104 12.2643 5.92845 17.8958
506 1 -1.1104 12.2355 11.4597 17.9896
507 2 2.2208 10.8837 10.0749 19.3784
508 1 -1.1104 12.177 5.80295 15.0617
510 1 -1.1104 12.3174 11.4936 15.16
512 1 -1.1104 9.41395 8.76181 17.9465
513 2 2.2208 8.15085 7.33647 19.4281
514 2 2.2208 8.01037 12.8516 19.4646
515 1 -1.1104 9.6002 8.691 15.1742
517 2 2.2208 8.00092 10.0871 16.6329
518 1 -1.1104 9.43169 5.9948 17.9743
519 1 -1.1104 9.44507 11.4725 18.0477
520 1 -1.1104 9.38636 5.87457 15.1609
522 1 -1.1104 9.36806 11.5323 15.2817
482 1 -1.1104 6.75279 5.95236 20.8417
523 1 -1.1104 9.41019 11.4786 20.8212
355 2 2.2208 10.8396 10.1096 13.7716
356 2 2.2208 8.00512 12.9074 13.8396
354 2 2.2208 8.03838 7.27132 13.7524
527 2 2.2208 5.26253 18.3785 16.6247
528 1 -1.1104 1.07979 14.1887 18.0386
529 1 -1.1104 1.01629 19.9334 17.999
532 1 -1.1104 1.12232 14.2425 15.2525
534 1 -1.1104 1.1889 19.8046 15.2021
540 1 -1.1104 1.0779 16.9907 18.0114
542 2 2.2208 5.31148 15.7252 19.5341
543 2 2.2208 5.24407 21.3597 19.3209
544 1 -1.1104 1.07542 17.1185 15.2509
548 1 -1.1104 3.86439 14.2068 18.0273
549 1 -1.1104 3.84517 19.8755 18.0545
550 2 2.2208 2.4302 18.5021 19.4197
551 1 -1.1104 3.84369 14.2842 15.2427
553 1 -1.1104 3.91264 19.7247 15.2531
555 2 2.2208 2.50021 15.6723 16.6381
556 2 2.2208 2.47953 21.2502 16.5991
557 1 -1.1104 3.84165 17.015 18.0583
558 1 -1.1104 3.88816 17.0061 15.191
545 1 -1.1104 1.04094 17.213 20.7653
541 1 -1.1104 6.72252 17.1124 18.0127
530 1 -1.1104 6.57617 14.2723 18.0762
554 1 -1.1104 3.86557 19.8875 20.8194
559 1 -1.1104 3.90128 17.0671 20.8139
533 1 -1.1104 1.08393 14.3223 20.856
588 1 -1.1104 6.65704 20.0134 26.3431
456 2 2.2208 -0.300145 18.4927 16.6444
525 2 2.2208 10.7879 15.6918 25.0249
709 1 -1.1104 6.68263 14.4041 23.7185
569 1 -1.1104 12.2288 19.7538 20.7255
539 1 -1.1104 6.65766 19.97 20.7999
536 1 -1.1104 6.59975 14.252 15.248
538 1 -1.1104 6.57806 19.9379 15.2433
531 1 -1.1104 6.66101 19.9657 17.9541
546 1 -1.1104 6.7233 17.0723 15.2611
563 2 2.2208 10.7983 18.4693 16.5978
564 1 -1.1104 12.2522 14.3289 17.9936
565 1 -1.1104 12.14 19.855 17.9793
566 1 -1.1104 12.2283 14.3945 15.1804
568 1 -1.1104 12.2682 19.8538 15.1722
570 1 -1.1104 12.3021 17.0385 18.0567
571 2 2.2208 10.8341 15.6938 19.3808
572 2 2.2208 10.7952 21.2508 19.3897
573 1 -1.1104 12.2254 17.127 15.1959
575 1 -1.1104 9.43838 14.3515 17.9781
576 1 -1.1104 9.32403 19.9383 17.9817
577 2 2.2208 8.07866 18.5452 19.3799
578 1 -1.1104 9.42596 14.2587 15.1758
580 1 -1.1104 9.45385 19.9316 15.2582
582 2 2.2208 8.02251 15.6483 16.6228
583 2 2.2208 8.01169 21.3324 16.5949
584 1 -1.1104 9.49384 17.1624 17.9883
585 1 -1.1104 9.45893 17.063 15.312
567 1 -1.1104 12.2115 14.3065 20.8456
581 1 -1.1104 9.46498 19.873 20.8913
499 1 -1.1104 12.307 19.9298 26.4031
361 2 2.2208 10.9008 15.6949 13.8125
415 1 -1.1104 4.03932 3.02505 20.7368
406 1 -1.1104 1.15574 0.324986 20.7695
394 1 -1.1104 1.08758 -2.54271 20.702
615 2 2.2208 8.09703 15.7508 22.132
423 2 2.2208 13.5942 4.54038 22.1402
537 1 -1.1104 6.71475 14.3081 20.8052
413 1 -1.1104 3.91477 -2.53849 20.7917
420 1 -1.1104 4.00295 0.296024 20.7898
396 1 -1.1104 1.19361 3.02363 20.724
591 2 2.2208 5.33535 1.69105 22.11
592 1 -1.1104 1.12884 -2.53037 23.4938
593 1 -1.1104 1.009 3.02913 23.5932
596 1 -1.1104 1.08679 -2.551 26.32
597 1 -1.1104 1.02709 3.09189 26.3443
600 1 -1.1104 1.02581 0.18762 23.5548
602 2 2.2208 5.37987 -1.10248 24.9422
603 2 2.2208 5.28861 4.45701 25.0385
604 1 -1.1104 1.09153 0.265118 26.4739
606 1 -1.1104 3.93009 -2.57221 23.5173
607 1 -1.1104 3.84533 3.02548 23.4944
608 2 2.2208 2.50249 1.5791 24.9456
609 1 -1.1104 3.85982 -2.52129 26.3352
610 1 -1.1104 3.90817 2.98876 26.2626
611 2 2.2208 2.5223 -1.18294 22.1211
612 2 2.2208 2.42094 4.38205 22.2086
613 1 -1.1104 4.0147 0.264699 23.5075
614 1 -1.1104 3.95087 0.219606 26.3527
343 2 2.2208 8.03333 1.59562 13.7647
598 1 -1.1104 6.72958 -2.48179 26.3559
605 1 -1.1104 6.7234 0.27209 26.371
718 1 -1.1104 6.65807 20.041 23.6799
712 1 -1.1104 6.59573 14.2861 26.4551
562 1 -1.1104 9.48784 20.0243 23.6517
574 1 -1.1104 12.1655 17.0891 20.9483
449 1 -1.1104 9.53061 3.19192 20.7934
442 1 -1.1104 12.4212 0.328255 20.7863
454 1 -1.1104 9.51925 0.324415 20.8181
398 1 -1.1104 6.77579 -2.54524 20.782
437 1 -1.1104 12.2209 3.21027 20.7469
601 1 -1.1104 6.81688 0.308835 23.5495
594 1 -1.1104 6.77679 -2.53971 23.5983
595 1 -1.1104 6.69413 3.02236 23.4989
599 1 -1.1104 6.66857 3.11998 26.3682
435 1 -1.1104 12.3706 -2.48502 20.7409
627 2 2.2208 11.0149 1.7479 22.1948
628 1 -1.1104 12.3095 -2.4658 23.5462
629 1 -1.1104 12.2905 3.14733 23.5433
630 1 -1.1104 12.2877 -2.46283 26.4188
631 1 -1.1104 12.1505 3.14269 26.3994
632 1 -1.1104 12.3218 0.380196 23.5986
633 2 2.2208 10.8908 -1.07919 25.0344
634 2 2.2208 10.8176 4.54265 24.9501
635 1 -1.1104 12.3269 0.272961 26.329
636 1 -1.1104 9.5697 -2.46354 23.5574
637 1 -1.1104 9.48312 3.01922 23.6692
638 2 2.2208 8.06066 1.71395 24.9963
639 1 -1.1104 9.4341 -2.48228 26.3827
640 1 -1.1104 9.37307 3.10434 26.5357
641 2 2.2208 8.23872 -1.04829 22.2164
642 2 2.2208 8.05731 4.49188 22.1922
643 1 -1.1104 9.51198 0.400957 23.6041
644 1 -1.1104 9.49882 0.244307 26.387
620 1 -1.1104 9.42412 17.0826 26.3222
469 1 -1.1104 1.05548 8.66089 20.6513
496 1 -1.1104 3.81642 11.4923 20.9112
494 1 -1.1104 3.87888 5.85107 20.839
461 2 2.2208 13.6627 21.2548 22.1866
463 1 -1.1104 12.3392 14.267 23.5588
619 2 2.2208 13.6463 15.7043 16.4991
480 1 -1.1104 0.9158 11.3942 20.7648
656 2 2.2208 5.26641 7.26906 22.186
657 2 2.2208 5.24665 12.8505 22.2351
658 1 -1.1104 1.0212 8.661 23.5745
660 1 -1.1104 1.03058 8.65101 26.3643
662 1 -1.1104 1.10304 5.85325 23.5749
663 1 -1.1104 0.998115 11.4297 23.6259
666 2 2.2208 5.25963 10.0302 24.9829
667 1 -1.1104 1.01833 5.76469 26.3411
668 1 -1.1104 1.1493 11.5115 26.317
671 1 -1.1104 3.87483 8.6953 23.5358
672 2 2.2208 2.38525 7.2035 24.9108
673 2 2.2208 2.47099 12.9705 24.9309
674 1 -1.1104 3.84571 8.55687 26.2794
675 2 2.2208 2.48113 10.0471 22.2089
676 1 -1.1104 3.89026 5.87466 23.727
677 1 -1.1104 3.88913 11.5401 23.6438
678 1 -1.1104 3.80819 5.77957 26.4812
679 1 -1.1104 3.91086 11.3852 26.3492
665 1 -1.1104 6.66374 11.4612 23.5018
659 1 -1.1104 6.67892 8.58497 23.5152
669 1 -1.1104 6.71682 5.88184 26.3865
484 1 -1.1104 6.52668 11.5465 20.7301
511 1 -1.1104 12.3184 11.5959 20.7656
516 1 -1.1104 9.50743 8.67919 20.7773
504 1 -1.1104 12.2122 8.74626 20.7891
471 1 -1.1104 6.70162 8.74938 20.7913
661 1 -1.1104 6.55933 8.64995 26.3221
664 1 -1.1104 6.68436 5.82446 23.5876
509 1 -1.1104 12.27 5.96897 20.7313
521 1 -1.1104 9.47166 5.92678 20.7968
670 1 -1.1104 6.70236 11.5331 26.3488
687 1 -1.1104 9.48758 11.4512 26.3385
688 1 -1.1104 9.41214 5.85771 26.2514
689 1 -1.1104 9.42662 11.561 23.588
690 1 -1.1104 9.47952 5.84327 23.4898
691 2 2.2208 8.07578 10.0351 22.2408
692 1 -1.1104 9.40713 8.68161 26.4782
693 2 2.2208 8.08225 12.9478 24.883
694 2 2.2208 8.11132 7.20462 24.9831
695 2 2.2208 10.9444 7.26941 22.1361
696 2 2.2208 10.869 12.9184 22.1114
697 1 -1.1104 12.2298 8.84123 23.5878
698 1 -1.1104 12.3402 8.68954 26.4501
699 1 -1.1104 12.2717 5.97967 23.5491
700 1 -1.1104 12.2835 11.5939 23.6786
701 2 2.2208 10.8929 10.1047 24.9155
702 1 -1.1104 12.1623 5.93903 26.3417
703 1 -1.1104 12.3184 11.498 26.4326
704 1 -1.1104 9.48767 8.71975 23.6356
590 1 -1.1104 9.48861 19.8576 26.4391
547 1 -1.1104 6.78731 17.2118 20.801
714 1 -1.1104 6.61542 17.1161 26.3488
535 1 -1.1104 1.03505 19.9929 20.8355
552 1 -1.1104 3.87719 14.2797 20.8089
647 2 2.2208 2.38234 15.7186 22.1643
649 2 2.2208 2.48684 21.3059 22.1954
652 1 -1.1104 3.87123 17.1654 23.5798
655 1 -1.1104 0.926094 17.118 23.5645
681 1 -1.1104 3.78193 14.3909 26.333
682 1 -1.1104 3.79952 17.0741 26.3849
683 2 2.2208 2.37443 18.5438 24.9918
686 1 -1.1104 3.95145 19.8614 26.3224
705 2 2.2208 5.31895 18.5352 22.216
706 1 -1.1104 1.03487 14.2096 23.6237
707 1 -1.1104 1.11457 19.8991 23.556
711 1 -1.1104 3.94051 20.0014 23.6299
713 1 -1.1104 3.90623 14.3381 23.5351
715 1 -1.1104 1.11436 20.0328 26.3555
716 1 -1.1104 1.00893 17.1191 26.308
717 1 -1.1104 1.13011 14.4326 26.3878
719 2 2.2208 5.21742 21.3978 25.0647
720 2 2.2208 5.20815 15.7726 25.0382
680 1 -1.1104 6.65952 17.2029 23.6652
589 1 -1.1104 9.36328 14.2489 26.4345
579 1 -1.1104 9.42924 14.2592 20.7831
526 2 2.2208 10.8729 21.2818 25.0112
617 1 -1.1104 9.38748 17.0957 23.4883
497 1 -1.1104 12.1969 19.9764 23.6113
462 2 2.2208 10.8693 18.5515 22.2372
561 1 -1.1104 9.49011 14.3038 23.6094
616 2 2.2208 8.03053 21.3571 22.2706
560 1 -1.1104 12.2871 17.1337 26.4283
498 1 -1.1104 12.1983 14.3444 26.3779
524 1 -1.1104 12.2923 17.0516 23.6969
586 1 -1.1104 9.37852 17.1424 20.6974
618 2 2.2208 13.6354 18.4661 19.4812
376 2 2.2208 13.6233 12.8783 13.7914
651 2 2.2208 13.6438 7.3958 19.3392
336 2 2.2208 13.6526 7.29 13.7345
708 2 2.2208 13.7142 12.9363 24.9757
335 2 2.2208 -0.223157 21.2648 13.8124
650 2 2.2208 13.6044 12.9101 19.3343
340 2 2.2208 13.5757 1.66998 13.8195
684 2 2.2208 -0.385388 10.0725 24.9896
429 2 2.2208 13.7001 4.45018 16.6122
342 2 2.2208 -0.283288 15.6574 13.8915
460 2 2.2208 13.6673 21.3773 16.5573
425 2 2.2208 -0.281768 -1.18265 19.4077
427 2 2.2208 -0.211939 4.5055 19.3422
710 2 2.2208 13.631 7.34294 24.9551
9020 2 2.2208 2.4773 -3.86532 13.8088
9092 2 2.2208 2.47725 -3.9157 24.8761
721 2 2.2208 5.2436 24.0066 5.41477
722 2 2.2208 5.35316 29.6546 5.40178
723 1 -1.1104 1.11548 25.4836 1.19488
724 1 -1.1104 1.1125 25.421 3.97411
725 1 -1.1104 1.03567 22.6823 1.3404
726 1 -1.1104 1.10637 28.2428 1.27904
727 2 2.2208 5.32044 26.8388 2.64735
728 1 -1.1104 1.01097 22.4733 4.00377
729 1 -1.1104 1.05703 28.2194 4.0922
730 1 -1.1104 3.82814 25.3968 1.28515
731 2 2.2208 2.39695 24.007 2.62334
732 2 2.2208 2.52127 29.7285 2.60388
733 1 -1.1104 3.87283 25.4944 4.05481
734 2 2.2208 2.44568 26.8749 5.45131
735 1 -1.1104 3.89845 22.6118 1.28915
736 1 -1.1104 3.93685 28.2695 1.30447
737 1 -1.1104 3.74151 22.5814 4.02163
738 1 -1.1104 3.85572 28.2447 4.00732
862 1 -1.1104 1.15203 25.2483 6.76366
869 1 -1.1104 3.98407 22.6128 6.83102
1022 1 -1.1104 12.3924 45.0137 6.74152
747 1 -1.1104 6.64618 28.2605 4.00588
746 1 -1.1104 6.42112 22.6347 4.0335
742 1 -1.1104 6.66826 25.428 1.19347
744 1 -1.1104 6.74035 22.7154 1.22799
863 1 -1.1104 6.69264 25.4546 6.83876
867 1 -1.1104 6.76612 28.2206 6.94391
1075 2 2.2208 8.09525 26.8387 -0.239293
1077 2 2.2208 10.8489 29.6949 -0.21395
1071 2 2.2208 2.48188 26.9339 -0.0688517
745 1 -1.1104 6.70715 28.2059 1.15758
743 1 -1.1104 6.71434 25.3754 4.08882
748 2 2.2208 10.8743 24.0548 5.39379
749 2 2.2208 10.9592 29.6867 5.2806
750 1 -1.1104 12.4202 25.4427 1.23629
751 1 -1.1104 12.3208 25.3992 4.05262
752 1 -1.1104 12.3073 22.7131 1.13599
753 1 -1.1104 12.2647 28.1888 1.10407
754 2 2.2208 10.9041 26.8149 2.65511
755 1 -1.1104 12.1751 22.5888 3.94965
756 1 -1.1104 12.2713 28.1053 3.87465
757 1 -1.1104 9.58789 25.4409 1.13745
758 2 2.2208 8.08381 24.0245 2.63036
759 2 2.2208 8.06262 29.6795 2.49097
760 1 -1.1104 9.44179 25.3622 3.99525
761 2 2.2208 8.06121 26.9032 5.39661
762 1 -1.1104 9.60038 22.6025 1.14688
763 1 -1.1104 9.52564 28.3168 1.24619
764 1 -1.1104 9.39838 22.5697 3.9225
765 1 -1.1104 9.41415 28.2808 3.99493
900 1 -1.1104 9.54065 28.2618 6.73633
897 1 -1.1104 12.3311 28.2565 6.6046
1609 1 -1.1104 3.91322 47.8622 6.78899
1015 1 -1.1104 9.49093 42.201 12.531
866 1 -1.1104 6.75785 22.5881 6.75546
896 1 -1.1104 12.314 22.5977 6.77967
1018 2 2.2208 10.9741 43.5585 8.23037
1016 1 -1.1104 12.4027 45.0457 9.56156
1079 2 2.2208 2.56068 32.5707 -0.20622
1081 2 2.2208 5.37033 35.2817 -0.315177
769 2 2.2208 5.32355 35.2259 5.42337
770 1 -1.1104 1.02058 31.1392 1.1448
771 1 -1.1104 1.28524 36.601 1.16208
773 1 -1.1104 1.09847 31.0223 4.0135
774 1 -1.1104 1.09673 36.7266 3.9444
776 1 -1.1104 1.06501 33.892 1.18974
777 2 2.2208 5.43889 32.5281 2.54614
778 2 2.2208 5.29135 38.0482 2.63588
779 1 -1.1104 1.21669 33.8663 3.98803
781 1 -1.1104 3.90346 31.1605 1.24809
782 1 -1.1104 4.00497 36.5682 1.12561
783 2 2.2208 2.64227 35.2952 2.56229
784 1 -1.1104 3.9841 31.075 3.98293
785 1 -1.1104 3.91013 36.7827 3.89142
786 2 2.2208 2.51181 32.4671 5.36826
787 2 2.2208 2.4947 38.1262 5.32398
788 1 -1.1104 3.93323 33.8908 1.06671
789 1 -1.1104 4.04728 33.9465 3.88482
780 1 -1.1104 6.81768 33.8242 3.8017
794 1 -1.1104 6.7369 31.0245 4.02304
772 1 -1.1104 6.73265 36.6464 1.06492
793 1 -1.1104 6.63235 30.9302 1.05966
925 1 -1.1104 3.87724 30.9539 6.74222
922 1 -1.1104 6.61008 36.6604 6.86506
1074 2 2.2208 10.9328 24.0694 -0.172497
775 1 -1.1104 6.65782 36.6571 3.99212
919 1 -1.1104 1.10206 31.0534 6.65166
795 1 -1.1104 6.67732 33.8674 1.10435
796 2 2.2208 10.9012 35.2351 5.36599
797 1 -1.1104 12.2017 30.9955 1.09169
798 1 -1.1104 12.3591 36.6557 1.14201
799 1 -1.1104 12.2607 31.0692 3.90838
800 1 -1.1104 12.1992 36.5545 3.90385
801 1 -1.1104 12.2578 33.7611 1.00433
802 2 2.2208 10.8349 32.4715 2.46549
803 2 2.2208 10.9368 38.0094 2.55751
804 1 -1.1104 12.3458 33.8995 3.88181
805 1 -1.1104 9.45228 31.0755 1.10668
806 1 -1.1104 9.6622 36.7387 1.07061
807 2 2.2208 8.08641 35.2858 2.55564
808 1 -1.1104 9.47688 31.1338 3.88668
809 1 -1.1104 9.35225 36.6172 3.8729
810 2 2.2208 8.09859 32.4544 5.35439
811 2 2.2208 8.07944 37.9939 5.33349
812 1 -1.1104 9.3965 33.9231 1.21225
813 1 -1.1104 9.56769 33.9351 3.94525
954 1 -1.1104 12.0666 36.8498 6.63816
956 1 -1.1104 9.48303 30.9745 6.75592