ITEM: TIMESTEP
100000
ITEM: NUMBER OF ATOMS
17670
ITEM: BOX BOUNDS pp pp pp
-3.1699778077646906e-01 2.7656997780776251e+01
-3.7964723241067100e+00 3.3187647232412365e+02
-3.1033863921370963e-01 2.7650338639213448e+01
ITEM: ATOMS id type q x y z
1 2 2.2208 5.27131 1.8838 5.10813
2 1 -1.1104 1.15171 -2.4634 0.941184
3 1 -1.1104 1.12819 3.16917 1.00571
6 1 -1.1104 1.11836 -2.34306 3.82762
7 1 -1.1104 1.14984 3.15645 3.83739
10 1 -1.1104 1.14309 0.353075 0.913188
12 2 2.2208 5.32343 -1.02809 2.35693
13 2 2.2208 5.33403 4.58291 2.35103
14 1 -1.1104 1.09094 0.380577 3.63043
16 1 -1.1104 3.88061 -2.43798 0.958719
17 1 -1.1104 3.93099 3.12615 0.897887
18 2 2.2208 2.51881 1.7434 2.26744
19 1 -1.1104 3.94677 -2.38682 3.80699
20 1 -1.1104 3.84198 3.30228 3.63498
21 2 2.2208 2.40863 -0.972866 5.13573
22 2 2.2208 2.53388 4.58664 5.19659
23 1 -1.1104 3.82048 0.280745 0.916827
24 1 -1.1104 3.92815 0.43489 3.7688
4 1 -1.1104 6.65701 -2.37943 1.01118
167 1 -1.1104 1.08195 3.25078 6.62055
9003 2 2.2208 10.8735 -3.78001 10.7446
8999 2 2.2208 2.4752 -3.84206 8.04517
173 1 -1.1104 3.93368 3.23326 6.54591
174 1 -1.1104 3.84757 0.548578 6.44297
169 1 -1.1104 6.7522 3.20446 6.58085
168 1 -1.1104 6.60557 -2.41054 6.56455
362 2 2.2208 8.04575 18.6076 13.6702
27 2 2.2208 -0.322245 4.51868 2.39939
352 2 2.2208 5.33852 10.1699 13.5368
334 2 2.2208 -0.245916 -1.00938 13.6491
306 1 -1.1104 6.74837 17.2034 12.162
15 1 -1.1104 6.72953 0.394712 3.7533
325 2 2.2208 10.9419 15.7916 7.93336
8 1 -1.1104 6.62149 -2.36948 3.67345
11 1 -1.1104 6.61022 0.449043 0.959622
9 1 -1.1104 6.69783 3.23554 3.8276
5 1 -1.1104 6.70877 3.19889 1.04174
31 2 2.2208 10.9049 1.79029 5.17713
32 1 -1.1104 12.2933 -2.41454 1.00251
33 1 -1.1104 12.3162 3.20903 1.01188
34 1 -1.1104 12.212 -2.36061 3.75575
35 1 -1.1104 12.1605 3.22014 3.82051
36 1 -1.1104 12.2619 0.352212 0.942968
37 2 2.2208 10.8969 -1.05704 2.38494
38 2 2.2208 10.8876 4.64194 2.4311
39 1 -1.1104 12.3864 0.404008 3.63625
40 1 -1.1104 9.41378 -2.48443 0.95206
41 1 -1.1104 9.56585 3.20848 1.02194
42 2 2.2208 8.08493 1.88721 2.3216
43 1 -1.1104 9.3566 -2.44309 3.65042
44 1 -1.1104 9.458 3.31024 3.75754
45 2 2.2208 8.02877 -0.932134 5.15694
46 2 2.2208 8.09173 4.65668 5.19465
47 1 -1.1104 9.42662 0.357773 0.951445
48 1 -1.1104 9.56571 0.399424 3.80563
9002 2 2.2208 8.06419 -3.83411 7.92428
171 1 -1.1104 6.64314 0.399584 6.62274
207 1 -1.1104 12.2141 0.381696 6.39936
208 1 -1.1104 9.46773 -2.3759 6.48428
206 1 -1.1104 12.3215 3.20265 6.45518
205 1 -1.1104 12.2146 -2.38476 6.58677
210 1 -1.1104 9.42617 0.415612 6.51009
209 1 -1.1104 9.51437 3.20362 6.5792
361 2 2.2208 10.8879 15.7357 13.4801
360 2 2.2208 10.7848 21.3292 13.5585
54 2 2.2208 5.24503 7.36155 5.20725
55 2 2.2208 5.25305 12.952 5.04221
56 1 -1.1104 1.11263 8.81824 0.969766
58 1 -1.1104 1.22118 8.74232 3.7462
60 1 -1.1104 1.14813 6.11469 0.958269
61 1 -1.1104 1.11431 11.5335 1.05006
66 2 2.2208 5.37808 10.1211 2.39069
67 1 -1.1104 1.14009 5.97928 3.88944
68 1 -1.1104 1.08702 11.5835 3.74623
71 1 -1.1104 3.83501 8.73591 0.987416
72 2 2.2208 2.56053 7.33986 2.4678
73 2 2.2208 2.45189 12.9474 2.41088
74 1 -1.1104 3.91183 8.76453 3.84005
75 2 2.2208 2.5379 10.1825 5.17195
76 1 -1.1104 3.86097 5.9326 0.985119
77 1 -1.1104 3.86879 11.5294 0.986862
79 1 -1.1104 4.02011 6.01718 3.92562
80 1 -1.1104 3.84726 11.5113 3.74252
59 1 -1.1104 6.65803 8.72208 3.6879
82 2 2.2208 -0.274723 10.1171 2.39871
78 1 -1.1104 3.92483 11.6536 6.45348
234 1 -1.1104 1.09585 8.85033 6.47928
238 1 -1.1104 3.98172 8.74339 6.70203
239 1 -1.1104 3.90444 5.98393 6.69274
62 1 -1.1104 1.16052 11.6039 6.54056
81 2 2.2208 -0.260701 7.40376 5.18255
8993 2 2.2208 2.48499 -3.89666 2.35662
63 1 -1.1104 6.736 5.93441 0.96703
57 1 -1.1104 6.74793 8.77319 0.920996
64 1 -1.1104 6.7714 11.6104 1.04829
65 1 -1.1104 6.74356 11.6606 6.50226
70 1 -1.1104 6.67295 11.6077 3.68064
69 1 -1.1104 6.67549 5.94163 3.75385
237 1 -1.1104 6.67426 6.04589 6.4655
84 2 2.2208 10.9359 7.43815 5.16669
85 2 2.2208 10.8838 13.0308 5.15549
86 1 -1.1104 12.2964 8.89159 1.00019
87 1 -1.1104 12.3627 8.83982 3.73386
88 1 -1.1104 12.3324 6.04402 0.890916
89 1 -1.1104 12.2994 11.6806 0.986408
91 2 2.2208 10.8197 10.2649 2.3081
92 1 -1.1104 12.247 6.09355 3.62879
93 1 -1.1104 12.2917 11.5836 3.72999
94 1 -1.1104 9.47681 8.80918 0.989033
95 2 2.2208 8.12865 7.36896 2.36624
96 2 2.2208 8.13271 13.049 2.38056
97 1 -1.1104 9.43513 8.86292 3.72914
98 2 2.2208 8.07164 10.2602 5.15771
99 1 -1.1104 9.48303 5.99487 0.920077
100 1 -1.1104 9.5484 11.6496 0.848853
102 1 -1.1104 9.54353 6.06003 3.8101
103 1 -1.1104 9.47664 11.7214 3.71818
101 1 -1.1104 9.512 11.6363 6.57763
265 1 -1.1104 12.3786 8.7525 6.54516
269 1 -1.1104 9.46742 6.05946 6.5488
266 1 -1.1104 12.3053 5.97365 6.47858
267 1 -1.1104 9.44996 8.88045 6.50187
90 1 -1.1104 12.1935 11.6154 6.54015
288 1 -1.1104 6.66023 19.9509 9.40772
28 2 2.2208 13.6086 21.422 10.7454
297 1 -1.1104 6.73575 14.4005 12.0981
346 2 2.2208 10.8973 -1.11336 13.4636
106 2 2.2208 5.33643 18.5418 5.24009
107 1 -1.1104 1.02146 14.2732 1.0314
109 1 -1.1104 1.06049 19.952 0.972591
113 1 -1.1104 0.965552 14.3753 3.80714
114 1 -1.1104 1.09835 20.0071 3.75355
116 1 -1.1104 0.952002 17.1466 0.929173
119 2 2.2208 5.23899 15.8449 2.38788
120 2 2.2208 5.36608 21.2825 2.46207
121 1 -1.1104 1.12496 17.1305 3.75834
123 1 -1.1104 3.75999 14.3734 1.04242
125 1 -1.1104 3.87197 19.9927 1.09911
127 2 2.2208 2.5153 18.5806 2.46965
128 1 -1.1104 3.82258 14.3812 3.82606
129 1 -1.1104 3.98828 19.9125 3.8004
130 2 2.2208 2.47909 15.7603 5.27601
131 2 2.2208 2.57184 21.3183 5.20447
132 1 -1.1104 3.73777 17.1733 1.05099
134 1 -1.1104 3.8765 17.0991 3.90217
138 1 -1.1104 6.74923 19.9878 1.05426
133 1 -1.1104 3.90803 17.2359 6.73339
296 1 -1.1104 6.59471 20.0561 12.2069
122 1 -1.1104 6.66417 17.175 3.76676
137 2 2.2208 -0.224128 18.6566 5.23473
108 1 -1.1104 1.14362 14.3149 6.5035
124 1 -1.1104 3.87371 14.406 6.66943
302 1 -1.1104 1.11237 19.9164 6.56398
126 1 -1.1104 3.91468 20.001 6.56589
290 1 -1.1104 6.66163 14.374 9.38112
139 1 -1.1104 6.65103 19.9447 3.80753
115 1 -1.1104 6.62276 14.4136 3.61265
143 1 -1.1104 12.3292 14.4197 6.61787
163 1 -1.1104 9.52273 17.1558 6.49206
140 1 -1.1104 6.5623 17.155 0.93701
149 1 -1.1104 12.2641 17.1694 6.56512
110 1 -1.1104 6.64311 14.3213 0.990742
141 2 2.2208 10.9455 18.6465 5.1242
142 1 -1.1104 12.3374 14.4878 0.864108
144 1 -1.1104 12.2271 19.9815 0.941557
146 1 -1.1104 12.2013 14.4063 3.7293
147 1 -1.1104 12.2279 20.092 3.71927
148 1 -1.1104 12.2318 17.2651 0.898989
150 2 2.2208 10.923 15.8798 2.23576
151 2 2.2208 10.8941 21.4415 2.43278
152 1 -1.1104 12.2617 17.1726 3.77798
153 1 -1.1104 9.49781 14.4623 1.09563
155 1 -1.1104 9.53829 19.8807 0.968898
157 2 2.2208 8.05357 18.5687 2.36238
158 1 -1.1104 9.5604 14.5981 3.76152
159 1 -1.1104 9.44775 20.0762 3.71998
160 2 2.2208 8.14004 15.8126 5.15466
161 2 2.2208 8.10237 21.3856 5.19321
162 1 -1.1104 9.33693 17.155 0.974922
164 1 -1.1104 9.42162 17.3604 3.73867
111 1 -1.1104 6.68967 14.4174 6.58172
154 1 -1.1104 9.52019 14.38 6.62952
112 1 -1.1104 6.68976 19.9563 6.61498
156 1 -1.1104 9.44593 19.965 6.505
145 1 -1.1104 12.3751 19.9681 6.54656
328 1 -1.1104 12.3519 14.4492 9.36939
356 2 2.2208 8.14631 12.9344 13.5223
317 2 2.2208 8.09561 15.849 10.753
201 2 2.2208 -0.182519 1.80389 10.8189
172 1 -1.1104 3.87128 -2.38322 6.51855
170 1 -1.1104 1.02971 0.421619 6.55847
166 1 -1.1104 1.02695 -2.4026 6.53882
175 2 2.2208 5.23466 1.73961 10.7375
176 1 -1.1104 1.08614 -2.36984 12.0898
177 1 -1.1104 1.2964 3.16539 12.1984
180 1 -1.1104 1.04876 -2.39627 9.30135
181 1 -1.1104 1.13193 3.20723 9.41163
184 1 -1.1104 1.24505 0.372037 12.2075
186 2 2.2208 5.16594 -0.974849 7.86548
187 2 2.2208 5.34735 4.5295 7.95726
188 1 -1.1104 1.09011 0.34543 9.39585
190 1 -1.1104 3.86125 -2.32905 12.1589
191 1 -1.1104 3.95467 3.21543 12.272
192 2 2.2208 2.45598 1.87696 7.90778
193 1 -1.1104 3.87067 -2.34788 9.27294
194 1 -1.1104 3.92269 3.24154 9.39777
195 2 2.2208 2.55332 -0.942393 10.7973
196 2 2.2208 2.54443 4.58299 10.7807
197 1 -1.1104 3.9403 0.418376 12.1758
198 1 -1.1104 3.79714 0.484219 9.25543
339 2 2.2208 2.5484 1.80142 13.6566
324 2 2.2208 10.8858 21.3895 8.00199
358 2 2.2208 5.20917 21.5123 13.5377
341 2 2.2208 5.3452 4.57278 13.5265
338 2 2.2208 5.31895 -1.05829 13.5812
118 1 -1.1104 6.74176 17.1609 6.59811
318 1 -1.1104 9.465 19.9379 9.31835
320 2 2.2208 8.12884 18.5313 8.01354
321 1 -1.1104 9.33248 20.0392 12.1662
230 2 2.2208 13.7427 -1.03907 10.7547
179 1 -1.1104 6.65651 3.10765 12.1007
182 1 -1.1104 6.61132 -2.32419 9.36278
189 1 -1.1104 6.5733 0.334777 9.35813
185 1 -1.1104 6.69337 0.326778 12.1464
178 1 -1.1104 6.71178 -2.39905 12.1794
183 1 -1.1104 6.67913 3.1153 9.29974
211 2 2.2208 10.9368 1.80292 10.7816
212 1 -1.1104 12.3243 -2.40063 12.1181
213 1 -1.1104 12.2893 3.28256 12.1388
214 1 -1.1104 12.2256 -2.38192 9.31124
215 1 -1.1104 12.358 3.2543 9.34218
216 1 -1.1104 12.3407 0.351716 12.0367
217 2 2.2208 10.8377 -0.97677 7.9423
218 2 2.2208 10.9302 4.64175 7.89399
219 1 -1.1104 12.273 0.428873 9.28108
220 1 -1.1104 9.42631 -2.39047 12.0985
221 1 -1.1104 9.46274 3.22241 12.0741
222 2 2.2208 8.12743 1.79763 7.98523
223 1 -1.1104 9.45645 -2.35663 9.28733
224 1 -1.1104 9.60619 3.20797 9.32726
225 2 2.2208 8.08191 -0.988221 10.7794
226 2 2.2208 8.018 4.58431 10.7099
227 1 -1.1104 9.4974 0.381424 12.1175
228 1 -1.1104 9.54259 0.422219 9.29918
203 2 2.2208 13.695 4.55276 10.6921
351 2 2.2208 2.55831 7.29369 13.5703
350 2 2.2208 10.8341 4.66206 13.4331
343 2 2.2208 8.09703 1.74287 13.5015
29 2 2.2208 -0.190283 7.42108 10.7913
30 2 2.2208 -0.310618 10.1339 7.95053
236 1 -1.1104 0.973546 6.04787 6.60697
240 2 2.2208 5.38813 7.46739 10.7497
241 2 2.2208 5.28858 12.9944 10.7718
242 1 -1.1104 1.19541 8.85049 12.1524
244 1 -1.1104 1.16738 8.69823 9.33932
246 1 -1.1104 1.1038 5.92898 12.2149
247 1 -1.1104 1.15046 11.6786 12.2036
250 2 2.2208 5.31872 10.1889 8.00467
251 1 -1.1104 1.19044 5.89263 9.42003
252 1 -1.1104 1.05342 11.493 9.4478
255 1 -1.1104 4.03457 8.85927 12.1721
256 2 2.2208 2.52193 7.31658 7.96165
257 2 2.2208 2.54822 13.0013 8.03536
258 1 -1.1104 4.0354 8.81011 9.46815
259 2 2.2208 2.55864 10.25 10.8148
260 1 -1.1104 4.007 6.07374 12.2315
261 1 -1.1104 3.89085 11.6556 12.1539
262 1 -1.1104 3.92743 5.95028 9.43159
263 1 -1.1104 3.88742 11.536 9.3728
243 1 -1.1104 6.86013 8.83275 12.2235
367 2 2.2208 -0.207719 10.177 13.5571
9000 2 2.2208 5.32305 -3.7517 10.7318
319 1 -1.1104 9.50566 14.4289 9.4881
245 1 -1.1104 6.79018 8.80988 9.36058
249 1 -1.1104 6.68316 11.5725 12.0851
253 1 -1.1104 6.69158 6.026 9.26843
254 1 -1.1104 6.717 11.5941 9.35278
248 1 -1.1104 6.74622 5.97927 12.1261
235 1 -1.1104 6.67271 8.85411 6.52144
264 1 -1.1104 9.5319 11.6478 9.3849
268 1 -1.1104 9.45534 6.00745 9.37043
270 1 -1.1104 9.515 11.5745 12.1131
271 1 -1.1104 9.46885 6.0816 12.2155
272 2 2.2208 8.07434 10.22 10.7745
273 1 -1.1104 9.58005 8.79001 9.30911
274 2 2.2208 8.10564 13.0514 8.08029
275 2 2.2208 8.12173 7.42073 7.94882
276 2 2.2208 10.897 7.42168 10.662
277 2 2.2208 10.9944 13.0462 10.7263
278 1 -1.1104 12.3496 8.7302 12.0288
279 1 -1.1104 12.3143 8.8411 9.26094
280 1 -1.1104 12.2353 5.99592 12.0716
281 1 -1.1104 12.3077 11.5731 12.0875
282 2 2.2208 10.8846 10.1968 7.91375
283 1 -1.1104 12.3635 6.04713 9.17491
284 1 -1.1104 12.3495 11.5503 9.27827
285 1 -1.1104 9.56101 8.78845 12.1036
9020 2 2.2208 2.46531 -3.80166 13.5574
355 2 2.2208 10.9411 10.1411 13.4942
354 2 2.2208 8.11447 7.41073 13.5843
331 2 2.2208 10.8339 18.6701 10.8076
8996 2 2.2208 8.02125 -3.8241 2.33498
311 2 2.2208 -0.305146 21.3261 7.97689
117 1 -1.1104 1.09896 17.1598 6.67711
295 2 2.2208 5.28525 15.8483 8.03567
294 1 -1.1104 1.16573 14.375 9.41731
298 1 -1.1104 1.02806 20.0137 12.1265
308 1 -1.1104 3.96056 17.2149 12.0097
303 2 2.2208 2.45411 18.6331 7.94304
307 1 -1.1104 1.18732 17.2178 12.2797
309 2 2.2208 2.43608 21.4378 10.7317
301 1 -1.1104 3.79393 19.985 9.34496
300 2 2.2208 5.28265 18.5767 10.7978
310 2 2.2208 2.45288 15.8269 10.7313
299 1 -1.1104 1.10436 14.4545 12.1667
305 1 -1.1104 3.87222 14.3596 9.37494
304 1 -1.1104 3.82672 17.2451 9.38665
286 1 -1.1104 3.90649 19.9941 12.1541
287 1 -1.1104 3.89633 14.4219 12.1658
291 1 -1.1104 1.00275 20.0216 9.3831
292 1 -1.1104 1.03541 17.3177 9.41301
293 2 2.2208 5.28277 21.3417 7.985
8994 2 2.2208 5.25837 -3.80877 5.0874
335 2 2.2208 -0.255472 21.4929 13.5526
342 2 2.2208 -0.274599 15.8223 13.5768
357 2 2.2208 2.52404 18.5894 13.548
359 2 2.2208 5.34991 15.8469 13.4834
322 1 -1.1104 9.57427 14.3851 12.1769
289 1 -1.1104 6.7169 17.1938 9.46634
316 2 2.2208 8.01673 21.3402 10.7635
315 1 -1.1104 9.4152 17.1952 12.1732
323 1 -1.1104 12.2031 17.3408 9.30114
330 1 -1.1104 12.3777 14.331 12.082
314 1 -1.1104 9.57993 17.1681 9.37159
326 1 -1.1104 12.3005 17.2012 12.1717
329 1 -1.1104 12.2189 19.9567 12.2201
327 1 -1.1104 12.2231 20.0116 9.33175
8997 2 2.2208 10.8447 -3.83993 5.17144
199 2 2.2208 -0.313384 4.54167 8.00894
363 2 2.2208 13.6387 18.5537 13.5404
337 2 2.2208 -0.209959 4.49129 13.5241
353 2 2.2208 2.53629 12.9562 13.6085
375 2 2.2208 2.49151 21.3505 -0.362996
373 2 2.2208 2.34501 15.7493 -0.418026
388 2 2.2208 5.29038 1.65718 16.4061
389 1 -1.1104 0.924674 -2.45267 17.8295
390 1 -1.1104 1.16038 3.14012 17.8541
393 1 -1.1104 1.18124 -2.49831 15.0084
395 1 -1.1104 1.12145 3.14357 14.9658
401 1 -1.1104 1.18413 0.436798 17.7762
403 2 2.2208 5.27768 -1.01886 19.2193
404 2 2.2208 5.31001 4.65736 19.1798
405 1 -1.1104 1.10716 0.326407 15.0243
409 1 -1.1104 3.78766 -2.47898 17.8015
410 1 -1.1104 3.85474 3.19668 17.7039
411 2 2.2208 2.61051 1.75319 19.1578
412 1 -1.1104 3.94715 -2.52066 15.0442
414 1 -1.1104 3.94553 3.04481 15.0535
416 2 2.2208 2.46361 -1.11806 16.3747
417 2 2.2208 2.57061 4.58071 16.4329
418 1 -1.1104 3.90228 0.320158 17.7819
419 1 -1.1104 3.97615 0.320902 15.0124
399 1 -1.1104 6.73355 3.19242 14.9125
685 2 2.2208 -0.254385 13.0056 21.9404
413 1 -1.1104 3.8071 -2.48428 20.6457
394 1 -1.1104 0.975225 -2.48149 20.5486
406 1 -1.1104 1.14365 0.28425 20.5062
420 1 -1.1104 3.98989 0.239975 20.5704
415 1 -1.1104 4.05723 3.15354 20.4654
396 1 -1.1104 1.26999 3.10378 20.6047
427 2 2.2208 -0.19987 4.59678 19.2942
9089 2 2.2208 8.10906 -3.735 24.7804
392 1 -1.1104 6.69032 3.10596 17.746
407 1 -1.1104 6.74712 0.419197 14.8904
344 2 2.2208 13.7663 15.7847 27.4163
397 1 -1.1104 6.70197 -2.45164 15.0462
347 2 2.2208 7.98589 15.7493 27.4925
402 1 -1.1104 6.74099 0.433343 17.8075
391 1 -1.1104 6.62584 -2.39429 17.7263
431 2 2.2208 10.8604 1.83826 16.2795
432 1 -1.1104 12.3519 -2.46665 17.6426
433 1 -1.1104 12.3658 3.18111 17.8042
434 1 -1.1104 12.2724 -2.38096 14.8252
436 1 -1.1104 12.2579 3.14269 14.9083
438 1 -1.1104 12.3107 0.411979 17.6913
439 2 2.2208 11.0301 -0.950974 19.107
440 2 2.2208 10.9261 4.58113 19.156
441 1 -1.1104 12.2855 0.283722 14.905
443 1 -1.1104 9.44656 -2.43989 17.79
444 1 -1.1104 9.53401 3.09781 17.6054
445 2 2.2208 8.12621 1.77795 19.0716
446 1 -1.1104 9.48536 -2.44629 14.9373
448 1 -1.1104 9.54909 3.20907 14.9293
450 2 2.2208 8.1299 -1.09278 16.3034
451 2 2.2208 8.05067 4.55149 16.3313
452 1 -1.1104 9.44979 0.239224 17.6741
453 1 -1.1104 9.50826 0.359925 14.9058
449 1 -1.1104 9.58152 3.04517 20.4915
398 1 -1.1104 6.69538 -2.37998 20.4975
447 1 -1.1104 9.52225 -2.40433 20.5512
400 1 -1.1104 6.74778 3.20626 20.5719
408 1 -1.1104 6.77257 0.441575 20.5245
442 1 -1.1104 12.4083 0.447607 20.422
435 1 -1.1104 12.427 -2.44082 20.5291
562 1 -1.1104 9.52558 19.9834 23.3114
625 2 2.2208 -0.381705 1.70169 22.0066
464 2 2.2208 5.34935 7.35594 16.3523
465 2 2.2208 5.27974 12.9766 16.368
466 1 -1.1104 1.24246 8.82607 17.7212
468 1 -1.1104 1.19042 8.7781 14.9909
472 1 -1.1104 1.17862 5.95347 17.9168
473 1 -1.1104 1.23624 11.6767 17.7545
476 2 2.2208 5.30905 10.2997 19.1153
477 1 -1.1104 1.16708 5.99894 15.1055
479 1 -1.1104 1.12052 11.611 14.9142
485 1 -1.1104 3.97339 8.79874 17.7068
486 2 2.2208 2.55864 7.40729 19.2043
487 2 2.2208 2.50987 13.0305 19.1804
488 1 -1.1104 3.96622 8.69895 14.9111
490 2 2.2208 2.54945 10.205 16.3799
491 1 -1.1104 3.95421 5.99012 17.8955
492 1 -1.1104 3.89341 11.6458 17.7535
493 1 -1.1104 3.95173 5.82211 14.9516
495 1 -1.1104 3.93344 11.563 14.9223
481 1 -1.1104 6.7046 6.04574 14.9616
480 1 -1.1104 1.20758 11.6748 20.6267
622 2 2.2208 -0.261979 10.2043 19.2202
469 1 -1.1104 1.25847 8.82139 20.5486
494 1 -1.1104 3.96692 5.98473 20.6109
496 1 -1.1104 4.00128 11.7323 20.5482
9092 2 2.2208 2.46802 -3.79588 24.7708
648 2 2.2208 -0.325586 12.972 16.4189
430 2 2.2208 13.5987 15.7012 21.8853
467 1 -1.1104 6.69844 8.84304 17.6401
474 1 -1.1104 6.65881 6.004 17.8127
470 1 -1.1104 6.83856 8.86879 14.9686
475 1 -1.1104 6.83286 11.5875 17.7188
483 1 -1.1104 6.82411 11.6308 14.97
500 2 2.2208 10.9113 7.27835 16.295
501 2 2.2208 10.9048 12.9189 16.3136
502 1 -1.1104 12.4297 8.78612 17.6657
503 1 -1.1104 12.3419 8.74889 14.9241
505 1 -1.1104 12.3851 5.97496 17.7783
506 1 -1.1104 12.3687 11.6629 17.7221
507 2 2.2208 10.9501 10.2389 19.0897
508 1 -1.1104 12.2281 5.94476 14.9341
510 1 -1.1104 12.285 11.5373 14.9162
512 1 -1.1104 9.60368 8.71783 17.7038
513 2 2.2208 8.1663 7.44975 19.114
514 2 2.2208 8.14872 12.9493 19.0923
515 1 -1.1104 9.61449 8.77289 14.8937
517 2 2.2208 8.20461 10.1355 16.298
518 1 -1.1104 9.49573 5.87511 17.713
519 1 -1.1104 9.62643 11.62 17.7773
520 1 -1.1104 9.49555 6.04472 14.8694
522 1 -1.1104 9.51596 11.5264 14.9371
523 1 -1.1104 9.48431 11.4583 20.4794
516 1 -1.1104 9.53256 8.66597 20.5483
521 1 -1.1104 9.52183 5.90051 20.5129
482 1 -1.1104 6.76411 5.97377 20.5683
527 2 2.2208 5.22464 18.6278 16.3422
528 1 -1.1104 1.17098 14.5422 17.7777
529 1 -1.1104 1.05783 19.9786 17.8121
532 1 -1.1104 1.12513 14.3503 14.9444
534 1 -1.1104 1.01465 20.1034 15.0111
540 1 -1.1104 0.977415 17.1818 17.8197
542 2 2.2208 5.2959 15.7834 19.0343
543 2 2.2208 5.2924 21.4499 19.1448
544 1 -1.1104 1.10636 17.2227 14.98
548 1 -1.1104 4.00181 14.3982 17.7745
549 1 -1.1104 3.86592 20.0412 17.8032
550 2 2.2208 2.44063 18.6134 19.2223
551 1 -1.1104 3.93056 14.4142 14.9654
553 1 -1.1104 3.92131 20.1178 14.9364
555 2 2.2208 2.56103 15.829 16.3869
556 2 2.2208 2.40899 21.3719 16.3855
557 1 -1.1104 3.96765 17.2693 17.7053
558 1 -1.1104 3.89842 17.2598 14.8366
535 1 -1.1104 1.05156 20.0996 20.5869
456 2 2.2208 -0.38823 18.6046 16.353
552 1 -1.1104 3.79559 14.4666 20.5694
458 2 2.2208 -0.356504 21.4122 19.13
533 1 -1.1104 1.02692 14.4468 20.5848
530 1 -1.1104 6.73548 14.4194 17.6678
536 1 -1.1104 6.63911 14.4058 14.8688
541 1 -1.1104 6.76693 17.2293 17.725
546 1 -1.1104 6.64112 17.1708 15.0087
531 1 -1.1104 6.75558 20.1305 17.8448
537 1 -1.1104 6.57051 14.3036 20.4907
538 1 -1.1104 6.72253 19.995 15.0263
563 2 2.2208 10.8698 18.6328 16.3547
564 1 -1.1104 12.3247 14.3632 17.7154
565 1 -1.1104 12.3475 20.1075 17.6883
566 1 -1.1104 12.2514 14.3953 14.92
568 1 -1.1104 12.2624 20.0272 14.9361
570 1 -1.1104 12.3427 17.2845 17.774
571 2 2.2208 10.9029 15.79 19.1135
572 2 2.2208 10.8644 21.4098 19.1732
573 1 -1.1104 12.268 17.2267 14.9622
575 1 -1.1104 9.52652 14.395 17.6689
576 1 -1.1104 9.46452 20.0103 17.7018
577 2 2.2208 8.12962 18.6087 19.1333
578 1 -1.1104 9.45861 14.4339 14.9255
580 1 -1.1104 9.46276 19.9243 14.8921
582 2 2.2208 8.12544 15.7698 16.3545
583 2 2.2208 8.10897 21.4316 16.3627
584 1 -1.1104 9.56388 17.127 17.7308
585 1 -1.1104 9.45132 17.2618 15.0069
567 1 -1.1104 12.1957 14.4044 20.5348
586 1 -1.1104 9.47786 17.1186 20.4199
579 1 -1.1104 9.36139 14.4323 20.5492
574 1 -1.1104 12.2845 17.3026 20.5358
539 1 -1.1104 6.64196 19.9312 20.6092
547 1 -1.1104 6.6052 17.1021 20.5152
461 2 2.2208 13.7473 21.3221 21.9455
384 2 2.2208 10.9371 7.44403 27.5337
383 2 2.2208 -0.280164 7.40053 27.495
591 2 2.2208 5.34931 1.74576 21.9184
592 1 -1.1104 1.02669 -2.48362 23.2774
593 1 -1.1104 1.05456 3.20251 23.3886
596 1 -1.1104 1.16687 -2.4074 26.089
597 1 -1.1104 1.2 3.17981 26.2053
600 1 -1.1104 1.08488 0.358695 23.3839
602 2 2.2208 5.37036 -0.948835 24.722
603 2 2.2208 5.31344 4.62715 24.6847
604 1 -1.1104 1.03784 0.36253 26.1041
606 1 -1.1104 3.90787 -2.41757 23.4313
607 1 -1.1104 3.90838 3.16982 23.3055
608 2 2.2208 2.49297 1.81686 24.7725
609 1 -1.1104 3.96839 -2.3899 26.0944
610 1 -1.1104 3.94747 3.27552 26.1014
611 2 2.2208 2.5196 -1.02727 21.9655
612 2 2.2208 2.57862 4.5114 21.9436
613 1 -1.1104 3.86508 0.376158 23.2957
614 1 -1.1104 3.86646 0.496522 26.1591
605 1 -1.1104 6.67291 0.491153 26.161
626 2 2.2208 -0.296198 4.58178 24.7342
374 2 2.2208 5.26108 18.5483 27.5035
368 2 2.2208 -0.322219 1.73074 27.6022
365 2 2.2208 2.56049 -1.00656 27.4806
364 2 2.2208 5.27529 1.83313 27.4783
651 2 2.2208 13.7763 7.39457 19.0838
497 1 -1.1104 12.249 19.9341 23.2805
650 2 2.2208 13.7337 12.9686 19.108
599 1 -1.1104 6.71068 3.2257 26.0708
601 1 -1.1104 6.66042 0.368542 23.3723
594 1 -1.1104 6.6504 -2.30366 23.3446
595 1 -1.1104 6.68175 3.21439 23.2995
598 1 -1.1104 6.68133 -2.30813 26.1657
454 1 -1.1104 9.5977 0.352633 20.4829
437 1 -1.1104 12.3893 3.19891 20.5219
627 2 2.2208 10.9452 1.68815 21.8408
628 1 -1.1104 12.2425 -2.38247 23.3201
629 1 -1.1104 12.4405 3.19287 23.2941
630 1 -1.1104 12.3143 -2.40611 26.1755
631 1 -1.1104 12.282 3.14636 26.1542
632 1 -1.1104 12.2693 0.328215 23.2693
633 2 2.2208 10.809 -0.987687 24.8314
634 2 2.2208 10.9049 4.51083 24.7415
635 1 -1.1104 12.3612 0.324602 26.0564
636 1 -1.1104 9.52554 -2.39225 23.3984
637 1 -1.1104 9.58465 3.13174 23.3371
638 2 2.2208 8.03724 1.73445 24.6803
639 1 -1.1104 9.46551 -2.30253 26.1852
640 1 -1.1104 9.39396 3.16351 26.102
641 2 2.2208 8.06959 -1.02432 21.8887
642 2 2.2208 8.13746 4.5389 21.9277
643 1 -1.1104 9.33091 0.3761 23.2954
644 1 -1.1104 9.57108 0.447689 26.1513
369 2 2.2208 10.9691 1.82646 27.4592
9012 2 2.2208 5.19896 -3.80914 27.4893
9008 2 2.2208 10.9245 -3.73387 27.6332
372 2 2.2208 8.14999 4.58768 27.5458
569 1 -1.1104 12.2723 19.9851 20.5669
421 2 2.2208 -0.285508 7.33242 22.0544
478 1 -1.1104 1.11073 6.02289 20.563
489 1 -1.1104 3.88076 8.87264 20.4547
656 2 2.2208 5.36247 7.45883 21.926
657 2 2.2208 5.29519 12.9922 22.0151
658 1 -1.1104 1.1745 8.82593 23.4285
660 1 -1.1104 1.19361 8.76072 26.1486
662 1 -1.1104 1.04654 6.01865 23.4032
663 1 -1.1104 1.13206 11.6181 23.2992
666 2 2.2208 5.28361 10.1716 24.7486
667 1 -1.1104 1.19474 5.95408 26.1135
668 1 -1.1104 1.11173 11.515 26.1043
671 1 -1.1104 3.92147 8.77149 23.3471
672 2 2.2208 2.52812 7.39588 24.7209
673 2 2.2208 2.52001 12.9791 24.7543
674 1 -1.1104 3.97621 8.80278 26.1689
675 2 2.2208 2.5282 10.2544 21.9297
676 1 -1.1104 3.81498 6.0428 23.2319
677 1 -1.1104 3.89423 11.5608 23.4782
678 1 -1.1104 3.9434 6.03768 26.0759
679 1 -1.1104 3.84614 11.5666 26.1679
670 1 -1.1104 6.63455 11.6205 26.212
665 1 -1.1104 6.59486 11.6032 23.2946
669 1 -1.1104 6.75974 6.01586 26.2411
659 1 -1.1104 6.67194 8.78678 23.1612
684 2 2.2208 -0.276576 10.2532 24.7638
379 2 2.2208 5.28017 7.38529 27.5484
366 2 2.2208 2.5115 4.63192 27.6084
381 2 2.2208 5.22055 12.9596 27.618
484 1 -1.1104 6.77049 11.5207 20.4547
504 1 -1.1104 12.4251 8.86455 20.4341
511 1 -1.1104 12.238 11.6371 20.5578
509 1 -1.1104 12.3693 6.04208 20.5422
9158 2 2.2208 2.4083 -3.93426 19.2517
664 1 -1.1104 6.62993 6.06118 23.3915
471 1 -1.1104 6.70534 8.74907 20.4173
661 1 -1.1104 6.71761 8.85588 26.0701
687 1 -1.1104 9.53502 11.6116 26.0872
688 1 -1.1104 9.56854 5.98148 26.1718
689 1 -1.1104 9.38238 11.5226 23.2808
690 1 -1.1104 9.40468 5.88327 23.3124
691 2 2.2208 8.09857 10.111 21.8434
692 1 -1.1104 9.62774 8.78906 26.1706
693 2 2.2208 8.00301 12.9292 24.789
694 2 2.2208 8.15107 7.39077 24.7454
695 2 2.2208 10.9522 7.40767 21.9262
696 2 2.2208 10.7759 12.892 21.9494
697 1 -1.1104 12.3549 8.83452 23.2642
698 1 -1.1104 12.3723 8.80041 25.9946
699 1 -1.1104 12.2947 5.99755 23.3424
700 1 -1.1104 12.3202 11.5476 23.2991
701 2 2.2208 10.9046 10.2076 24.7464
702 1 -1.1104 12.3684 5.98158 26.0775
703 1 -1.1104 12.2822 11.5397 26.1273
704 1 -1.1104 9.49347 8.76839 23.2999
386 2 2.2208 10.9103 13.0038 27.5999
425 2 2.2208 -0.383814 -1.06508 19.1006
559 1 -1.1104 3.85456 17.18 20.4736
646 2 2.2208 -0.290248 15.8127 24.7877
545 1 -1.1104 1.16583 17.2792 20.6362
712 1 -1.1104 6.5586 14.377 26.1148
554 1 -1.1104 3.89465 19.9944 20.5675
719 2 2.2208 5.38443 21.3202 24.7751
717 1 -1.1104 1.15298 14.3483 26.2052
720 2 2.2208 5.28095 15.7716 24.679
647 2 2.2208 2.48314 15.8322 21.9811
649 2 2.2208 2.48911 21.2805 22.0182
652 1 -1.1104 3.89312 17.2784 23.3957
655 1 -1.1104 1.05912 17.0782 23.3976
681 1 -1.1104 3.85603 14.4482 26.1897
682 1 -1.1104 3.9957 17.1192 26.2545
683 2 2.2208 2.49037 18.543 24.8351
686 1 -1.1104 3.99289 19.935 26.2108
705 2 2.2208 5.22542 18.5989 21.9091
706 1 -1.1104 1.07618 14.4176 23.4095
707 1 -1.1104 1.01069 19.9614 23.3648
711 1 -1.1104 3.76567 19.9245 23.4371
713 1 -1.1104 3.87024 14.3861 23.3745
715 1 -1.1104 1.1307 20.0648 26.0955
716 1 -1.1104 1.08188 17.2646 26.1963
618 2 2.2208 13.6815 18.7051 19.1439
457 2 2.2208 -0.369548 15.8109 19.0977
718 1 -1.1104 6.60054 19.9665 23.2968
498 1 -1.1104 12.3178 14.2905 26.1152
615 2 2.2208 7.97243 15.8344 21.9062
560 1 -1.1104 12.4141 17.0887 26.063
348 2 2.2208 10.9154 18.6055 27.4412
616 2 2.2208 8.0733 21.3509 22.0308
499 1 -1.1104 12.2007 19.9195 26.0371
526 2 2.2208 10.7705 21.381 24.6337
620 1 -1.1104 9.55123 17.2223 26.0563
581 1 -1.1104 9.51047 19.9966 20.6061
617 1 -1.1104 9.40226 17.1255 23.2941
589 1 -1.1104 9.45037 14.385 26.2904
587 2 2.2208 8.059 18.5405 24.7397
525 2 2.2208 10.8143 15.6434 24.7638
524 1 -1.1104 12.2026 17.0971 23.3027
463 1 -1.1104 12.1292 14.3007 23.3716
714 1 -1.1104 6.74793 17.123 26.1101
588 1 -1.1104 6.77361 19.9187 26.2229
680 1 -1.1104 6.63544 17.2342 23.4085
709 1 -1.1104 6.61568 14.4403 23.2472
462 2 2.2208 10.8366 18.5277 21.9623
561 1 -1.1104 9.36051 14.2888 23.4063
590 1 -1.1104 9.47794 19.9949 26.0734
385 2 2.2208 8.06217 10.1378 27.5127
621 2 2.2208 -0.28296 7.45097 16.4339
382 2 2.2208 -0.361329 12.9522 27.5703
380 2 2.2208 2.50024 10.1809 27.4617
370 2 2.2208 8.13687 -0.966721 27.548
349 2 2.2208 8.11508 21.396 27.5963
721 2 2.2208 5.36739 24.0926 5.14861
722 2 2.2208 5.28344 29.7798 5.09615
723 1 -1.1104 1.14571 25.5564 0.964667
724 1 -1.1104 1.0949 25.4957 3.70953
725 1 -1.1104 1.1026 22.7148 1.08172
726 1 -1.1104 1.0876 28.4164 1.09093
727 2 2.2208 5.30147 26.9204 2.34209
728 1 -1.1104 1.20145 22.6867 3.84842
729 1 -1.1104 1.08293 28.3696 3.80841
730 1 -1.1104 3.8796 25.4709 1.04992
731 2 2.2208 2.48967 24.1335 2.44323
732 2 2.2208 2.57103 29.6916 2.43621
733 1 -1.1104 3.93897 25.5524 3.82865
734 2 2.2208 2.46254 26.8916 5.11419
735 1 -1.1104 3.90945 22.7167 0.955999
736 1 -1.1104 3.93682 28.3339 1.00223
737 1 -1.1104 3.93716 22.7255 3.7504
738 1 -1.1104 3.847 28.2533 3.73678
864 1 -1.1104 1.07561 22.7392 6.586
862 1 -1.1104 1.08069 25.6066 6.59728
869 1 -1.1104 3.90413 22.7586 6.5527
1032 2 2.2208 13.7146 32.6652 5.34605
792 2 2.2208 -0.394456 38.1808 2.48314
868 1 -1.1104 3.92974 25.5252 6.51129
739 2 2.2208 -0.381575 26.9614 2.41461
1646 1 -1.1104 12.2197 47.7549 12.3001
1091 2 2.2208 5.22476 40.9515 -0.314402
791 2 2.2208 -0.293131 32.5137 2.38369
790 2 2.2208 -0.325375 35.3566 5.29787
1060 2 2.2208 5.27799 43.8188 13.6468
745 1 -1.1104 6.76404 28.4447 1.06366
747 1 -1.1104 6.66324 28.3798 3.79426
742 1 -1.1104 6.67326 25.5669 1.03918
743 1 -1.1104 6.73336 25.4989 3.83047
744 1 -1.1104 6.66089 22.7936 1.02779
867 1 -1.1104 6.66372 28.3853 6.59631
746 1 -1.1104 6.6583 22.6644 3.80027
748 2 2.2208 10.9118 24.1618 5.24621
749 2 2.2208 10.8583 29.912 5.21962
750 1 -1.1104 12.3684 25.6834 1.04681
751 1 -1.1104 12.3103 25.6553 3.79709
752 1 -1.1104 12.2974 22.8002 0.962132
753 1 -1.1104 12.3193 28.4585 0.989357
754 2 2.2208 10.9346 27.1046 2.43867
755 1 -1.1104 12.2408 22.8171 3.83057
756 1 -1.1104 12.3199 28.517 3.72215
757 1 -1.1104 9.49193 25.5495 0.976376
758 2 2.2208 8.15309 24.2153 2.41352
759 2 2.2208 8.08542 29.8531 2.41481
760 1 -1.1104 9.49871 25.6414 3.7517
761 2 2.2208 8.06351 26.9587 5.18221
762 1 -1.1104 9.48274 22.7406 0.957196
763 1 -1.1104 9.51498 28.2563 0.973652
764 1 -1.1104 9.48972 22.9254 3.87939
765 1 -1.1104 9.45224 28.3845 3.76282
896 1 -1.1104 12.2651 22.7625 6.62285
898 1 -1.1104 9.46988 25.6103 6.51335
840 2 2.2208 -0.30802 46.5253 5.27226
863 1 -1.1104 6.63344 25.5514 6.6411
897 1 -1.1104 12.233 28.3862 6.64666
1038 2 2.2208 -0.296922 27.0082 7.94958
1035 2 2.2208 13.6508 29.8745 8.05581
769 2 2.2208 5.30363 35.3412 5.2918
770 1 -1.1104 1.09249 31.0973 0.999975
771 1 -1.1104 1.03516 36.8614 1.04492
773 1 -1.1104 1.13597 31.2636 3.79736
774 1 -1.1104 0.953434 36.7646 3.82833
776 1 -1.1104 1.22984 33.9168 1.01073
777 2 2.2208 5.36682 32.651 2.49345
778 2 2.2208 5.3279 38.198 2.61281
779 1 -1.1104 1.11879 33.9981 3.86286
781 1 -1.1104 3.95187 31.1522 0.968631
782 1 -1.1104 3.89431 36.8098 1.19715
783 2 2.2208 2.49652 35.3857 2.61192
784 1 -1.1104 3.90408 31.1877 3.8506
785 1 -1.1104 3.80128 36.7907 3.90375
786 2 2.2208 2.39727 32.6024 5.17419
787 2 2.2208 2.46393 38.266 5.21452
788 1 -1.1104 3.87241 33.8969 1.13162
789 1 -1.1104 3.91883 33.8827 3.86745
775 1 -1.1104 6.66053 36.7517 3.87996
927 1 -1.1104 3.89967 33.9832 6.63992
1048 2 2.2208 8.08854 29.8508 13.5496
922 1 -1.1104 6.63228 36.6415 6.63402
919 1 -1.1104 1.05654 31.1914 6.57018
1069 2 2.2208 10.8802 40.9815 -0.269435
861 2 2.2208 13.6822 40.9945 2.49828
780 1 -1.1104 6.68576 34.0193 3.89405
793 1 -1.1104 6.68749 31.2361 1.00317
794 1 -1.1104 6.71409 31.2119 3.78969
795 1 -1.1104 6.67045 34.189 1.09952
921 1 -1.1104 6.58477 31.2249 6.56491
772 1 -1.1104 6.67097 36.8705 1.15018
796 2 2.2208 10.9684 35.4937 5.38537
797 1 -1.1104 12.2635 31.1939 1.05633
798 1 -1.1104 12.2433 36.8254 1.01501
799 1 -1.1104 12.1906 31.3375 3.89634
800 1 -1.1104 12.2471 36.9388 3.8829
801 1 -1.1104 12.2768 34.0356 1.08882
802 2 2.2208 10.9256 32.724 2.49292
803 2 2.2208 10.8285 38.2029 2.47319
804 1 -1.1104 12.4185 34.1157 3.8901
805 1 -1.1104 9.47603 31.1483 0.907727
806 1 -1.1104 9.4566 36.8235 1.06314
807 2 2.2208 8.07012 35.4757 2.50671
808 1 -1.1104 9.44576 31.1658 3.72761