ITEM: TIMESTEP
60000
ITEM: NUMBER OF ATOMS
17670
ITEM: BOX BOUNDS pp pp pp
-3.1442829789558718e-01 2.7654428297895006e+01
-3.8705829170047190e+00 3.3195058291702406e+02
-3.1736373466875845e-01 2.7657363734668092e+01
ITEM: ATOMS id type q x y z
1 2 2.2208 5.2471 1.78392 5.29821
2 1 -1.1104 1.15664 -2.50043 1.00379
3 1 -1.1104 1.10084 3.11126 1.05508
6 1 -1.1104 1.17594 -2.52179 3.76771
7 1 -1.1104 1.14966 3.21041 3.821
10 1 -1.1104 1.13051 0.302212 1.06163
12 2 2.2208 5.2666 -1.0965 2.47886
13 2 2.2208 5.34242 4.51228 2.49727
14 1 -1.1104 1.1368 0.344016 3.86967
16 1 -1.1104 3.93874 -2.49157 1.13505
17 1 -1.1104 3.90993 3.08066 1.08499
18 2 2.2208 2.53182 1.74182 2.40999
19 1 -1.1104 3.97371 -2.45908 3.8438
20 1 -1.1104 3.975 3.20557 3.94401
21 2 2.2208 2.49686 -1.11239 5.27751
22 2 2.2208 2.46643 4.51885 5.3118
23 1 -1.1104 3.76481 0.298269 1.04756
24 1 -1.1104 3.85178 0.401503 3.82655
348 2 2.2208 10.9334 18.4999 -0.308179
5 1 -1.1104 6.62318 3.02432 1.12513
9 1 -1.1104 6.62824 3.17447 3.89897
11 1 -1.1104 6.59091 0.210584 1.07063
319 1 -1.1104 9.47264 14.3399 9.43343
9008 2 2.2208 10.9295 -3.93581 -0.385154
313 2 2.2208 -0.26001 15.6465 8.1411
323 1 -1.1104 12.3886 16.9816 9.43485
167 1 -1.1104 1.11484 2.97267 6.68665
290 1 -1.1104 6.67326 14.3023 9.53446
15 1 -1.1104 6.6277 0.3781 3.98719
4 1 -1.1104 6.76015 -2.60389 1.10524
8 1 -1.1104 6.72603 -2.51585 3.94428
31 2 2.2208 10.8859 1.70815 5.29554
32 1 -1.1104 12.2138 -2.51515 1.12387
33 1 -1.1104 12.2123 3.14793 1.00526
34 1 -1.1104 12.3463 -2.49768 3.83196
35 1 -1.1104 12.2855 3.10994 3.82494
36 1 -1.1104 12.2689 0.35602 1.05196
37 2 2.2208 10.8658 -1.1703 2.51394
38 2 2.2208 10.8716 4.48543 2.47079
39 1 -1.1104 12.3108 0.24518 3.96437
40 1 -1.1104 9.56526 -2.57862 1.02246
41 1 -1.1104 9.37897 3.09957 1.05527
42 2 2.2208 8.00816 1.58292 2.45788
43 1 -1.1104 9.46849 -2.40352 3.82925
44 1 -1.1104 9.54763 3.13151 3.94045
45 2 2.2208 7.98584 -1.07682 5.31092
46 2 2.2208 8.0533 4.5393 5.26336
47 1 -1.1104 9.39733 0.231996 1.13345
48 1 -1.1104 9.39138 0.32616 3.93194
9002 2 2.2208 8.01215 -3.93601 8.05135
8999 2 2.2208 2.38673 -3.9759 8.05289
51 2 2.2208 -0.250268 12.8805 10.8875
171 1 -1.1104 6.72142 0.26545 6.7442
205 1 -1.1104 12.2115 -2.50829 6.64527
209 1 -1.1104 9.48966 3.12045 6.68319
206 1 -1.1104 12.3489 3.11516 6.59435
105 2 2.2208 13.8138 7.30171 2.46278
324 2 2.2208 10.9754 21.2906 8.07612
371 2 2.2208 -0.25842 18.4565 -0.367574
342 2 2.2208 -0.285924 15.576 13.6827
54 2 2.2208 5.42381 7.34191 5.24309
55 2 2.2208 5.36081 12.9487 5.24694
56 1 -1.1104 1.19126 8.70911 0.986332
58 1 -1.1104 1.13711 8.63976 3.81305
60 1 -1.1104 1.09202 5.9276 1.08741
61 1 -1.1104 1.18381 11.5589 1.06341
66 2 2.2208 5.32325 10.053 2.52014
67 1 -1.1104 1.12833 5.94189 3.99453
68 1 -1.1104 1.27373 11.5774 3.80522
71 1 -1.1104 3.96603 8.71732 1.07502
72 2 2.2208 2.51934 7.31244 2.49464
73 2 2.2208 2.70275 12.9309 2.37602
74 1 -1.1104 3.93843 8.7648 3.92807
75 2 2.2208 2.58761 10.0384 5.27574
76 1 -1.1104 3.85397 5.98161 1.11742
77 1 -1.1104 4.02242 11.4834 1.01806
79 1 -1.1104 3.91344 5.99258 3.84092
80 1 -1.1104 4.02118 11.5061 3.79039
70 1 -1.1104 6.82408 11.4743 3.93525
63 1 -1.1104 6.64291 5.84726 1.06635
62 1 -1.1104 1.26548 11.3862 6.60215
236 1 -1.1104 1.10936 5.80165 6.7145
238 1 -1.1104 3.84356 8.7235 6.72511
69 1 -1.1104 6.79542 5.93388 3.78966
59 1 -1.1104 6.73714 8.6978 3.96011
239 1 -1.1104 3.91605 5.87424 6.71366
235 1 -1.1104 6.72528 8.86052 6.60662
321 1 -1.1104 9.53431 19.8801 12.2151
57 1 -1.1104 6.75205 8.77223 1.12246
64 1 -1.1104 6.83054 11.5024 1.09242
84 2 2.2208 10.902 7.21089 5.23945
85 2 2.2208 10.8905 12.869 5.25961
86 1 -1.1104 12.4614 8.77055 0.939202
87 1 -1.1104 12.3793 8.61847 3.81013
88 1 -1.1104 12.2063 5.90455 1.03817
89 1 -1.1104 12.3514 11.5409 1.09435
91 2 2.2208 11.0016 10.0462 2.46043
92 1 -1.1104 12.3388 5.89539 3.91981
93 1 -1.1104 12.3448 11.4825 3.84704
94 1 -1.1104 9.61512 8.54828 1.04539
95 2 2.2208 8.14139 7.25854 2.45679
96 2 2.2208 8.14179 12.8923 2.43478
97 1 -1.1104 9.6169 8.67114 3.87332
98 2 2.2208 8.17668 10.0732 5.25117
99 1 -1.1104 9.47138 5.80202 1.06407
100 1 -1.1104 9.57681 11.3551 1.11275
102 1 -1.1104 9.5168 5.86403 3.8885
103 1 -1.1104 9.56656 11.4893 3.81296
90 1 -1.1104 12.228 11.4479 6.71125
8994 2 2.2208 5.27229 -3.99352 5.27764
50 2 2.2208 13.7351 -1.06376 5.30634
269 1 -1.1104 9.50068 5.83567 6.63355
101 1 -1.1104 9.47775 11.4852 6.61272
386 2 2.2208 10.9784 13.006 -0.403526
332 2 2.2208 13.8718 18.3973 8.08627
384 2 2.2208 10.8892 7.26303 -0.375226
106 2 2.2208 5.34312 18.6311 5.31792
107 1 -1.1104 1.23342 14.3521 1.03157
109 1 -1.1104 1.20559 19.8688 1.06859
113 1 -1.1104 1.21728 14.3098 3.84532
114 1 -1.1104 1.24522 20.0004 3.88859
116 1 -1.1104 1.21559 17.1438 1.04363
119 2 2.2208 5.41267 15.6974 2.43196
120 2 2.2208 5.34961 21.2475 2.44195
121 1 -1.1104 1.12477 17.1666 3.83687
123 1 -1.1104 4.00427 14.2459 0.881448
125 1 -1.1104 3.91619 19.8004 1.09054
127 2 2.2208 2.57123 18.4671 2.47812
128 1 -1.1104 4.00579 14.3163 3.82136
129 1 -1.1104 4.00582 19.9776 3.85384
130 2 2.2208 2.6005 15.7981 5.21116
131 2 2.2208 2.56493 21.4003 5.32865
132 1 -1.1104 4.00834 16.971 0.968985
134 1 -1.1104 4.01404 17.1518 3.81776
140 1 -1.1104 6.81007 17.0989 1.10696
138 1 -1.1104 6.73017 19.9305 1.11211
139 1 -1.1104 6.75172 20.01 3.9426
302 1 -1.1104 1.16118 19.8846 6.64479
124 1 -1.1104 4.03991 14.2373 6.58219
133 1 -1.1104 3.99692 17.1096 6.69279
110 1 -1.1104 6.84054 14.2894 0.978779
122 1 -1.1104 6.79621 17.0914 3.87112
117 1 -1.1104 1.18399 17.0719 6.70412
126 1 -1.1104 3.88503 19.9823 6.72391
30 2 2.2208 -0.235637 10.0498 8.05467
320 2 2.2208 8.16427 18.552 8.1116
156 1 -1.1104 9.59921 19.9177 6.72697
154 1 -1.1104 9.54805 14.2711 6.55282
311 2 2.2208 -0.272837 21.2904 8.0693
115 1 -1.1104 6.79714 14.3218 3.76672
141 2 2.2208 10.971 18.5341 5.3714
142 1 -1.1104 12.4231 14.3716 0.984476
144 1 -1.1104 12.3953 19.9098 1.16188
146 1 -1.1104 12.2956 14.2555 3.71454
147 1 -1.1104 12.3423 19.7503 3.96688
148 1 -1.1104 12.3016 17.16 1.0266
150 2 2.2208 10.8987 15.7107 2.42245
151 2 2.2208 10.9369 21.2812 2.51108
152 1 -1.1104 12.2751 17.0073 3.78368
153 1 -1.1104 9.63731 14.2831 0.995359
155 1 -1.1104 9.5142 19.9785 0.91959
157 2 2.2208 8.1801 18.5182 2.52488
158 1 -1.1104 9.51307 14.3124 3.76495
159 1 -1.1104 9.63605 19.8374 3.87986
160 2 2.2208 8.1745 15.6901 5.27711
161 2 2.2208 8.16236 21.3325 5.29607
162 1 -1.1104 9.5409 17.1677 1.15513
164 1 -1.1104 9.58396 17.1267 3.91182
199 2 2.2208 -0.28172 4.42282 8.17556
112 1 -1.1104 6.76634 19.9281 6.72062
163 1 -1.1104 9.56752 17.2069 6.7387
145 1 -1.1104 12.4213 19.9346 6.68702
289 1 -1.1104 6.77288 17.1391 9.48586
8998 2 2.2208 13.6864 -3.89137 2.42175
381 2 2.2208 5.32811 12.8973 -0.372774
49 2 2.2208 13.7478 1.83682 2.47622
169 1 -1.1104 6.689 3.24043 6.73372
172 1 -1.1104 3.8685 -2.55755 6.64246
174 1 -1.1104 3.95641 0.236251 6.61435
173 1 -1.1104 3.93252 3.09687 6.79086
166 1 -1.1104 1.13662 -2.51828 6.56506
170 1 -1.1104 1.11277 0.219732 6.63006
175 2 2.2208 5.17019 1.75879 10.9193
176 1 -1.1104 1.04925 -2.53349 12.1902
177 1 -1.1104 1.11859 2.99649 12.2979
180 1 -1.1104 1.09941 -2.59017 9.37929
181 1 -1.1104 1.18572 3.00825 9.46747
184 1 -1.1104 1.0284 0.287063 12.2168
186 2 2.2208 5.28349 -1.05598 8.12119
187 2 2.2208 5.25713 4.53007 8.15493
188 1 -1.1104 1.10973 0.268906 9.382
190 1 -1.1104 3.81797 -2.47395 12.345
191 1 -1.1104 3.7842 3.1758 12.2782
192 2 2.2208 2.46788 1.69866 8.05145
193 1 -1.1104 3.84311 -2.47785 9.44613
194 1 -1.1104 3.84873 3.15129 9.52092
195 2 2.2208 2.48774 -1.13659 10.8474
196 2 2.2208 2.52021 4.51235 10.8661
197 1 -1.1104 3.88901 0.303854 12.2806
198 1 -1.1104 3.76964 0.298108 9.42302
189 1 -1.1104 6.59302 0.438319 9.46422
179 1 -1.1104 6.59256 3.15112 12.2366
168 1 -1.1104 6.61866 -2.5806 6.77286
178 1 -1.1104 6.61297 -2.48638 12.3244
81 2 2.2208 -0.380251 7.31587 5.18763
111 1 -1.1104 6.77469 14.2956 6.688
331 2 2.2208 11.0514 18.4082 10.7851
183 1 -1.1104 6.69618 3.06082 9.42198
182 1 -1.1104 6.60504 -2.44855 9.51856
210 1 -1.1104 9.52047 0.255095 6.67899
208 1 -1.1104 9.43188 -2.47721 6.6041
185 1 -1.1104 6.62396 0.268602 12.2256
207 1 -1.1104 12.2993 0.251209 6.67074
211 2 2.2208 10.7873 1.69653 10.8533
212 1 -1.1104 12.1949 -2.44223 12.2391
213 1 -1.1104 12.2188 3.04203 12.2096
214 1 -1.1104 12.2889 -2.47466 9.4117
215 1 -1.1104 12.2311 3.0203 9.45024
216 1 -1.1104 12.2881 0.286182 12.2434
217 2 2.2208 10.8244 -1.15547 8.07836
218 2 2.2208 10.8912 4.50914 8.04549
219 1 -1.1104 12.2433 0.30297 9.45446
220 1 -1.1104 9.33942 -2.39821 12.2379
221 1 -1.1104 9.41917 3.14093 12.2287
222 2 2.2208 8.07758 1.66205 8.01142
223 1 -1.1104 9.53205 -2.62304 9.39407
224 1 -1.1104 9.46916 3.07999 9.46737
225 2 2.2208 7.91968 -1.11481 10.8922
226 2 2.2208 8.05337 4.46441 10.7868
227 1 -1.1104 9.40585 0.415165 12.2742
228 1 -1.1104 9.38373 0.127955 9.39806
312 2 2.2208 -0.214491 18.4779 10.9266
380 2 2.2208 2.68218 10.0618 -0.352238
135 2 2.2208 -0.204628 15.7369 2.4446
234 1 -1.1104 1.06776 8.68202 6.64311
237 1 -1.1104 6.7323 6.03647 6.62536
78 1 -1.1104 3.95409 11.5184 6.63619
240 2 2.2208 5.32227 7.29837 10.9068
241 2 2.2208 5.40308 12.9212 10.8443
242 1 -1.1104 1.18002 8.58713 12.2723
244 1 -1.1104 1.15151 8.70047 9.50452
246 1 -1.1104 1.19401 5.81559 12.3493
247 1 -1.1104 1.0596 11.4057 12.2545
250 2 2.2208 5.39053 10.1465 8.08126
251 1 -1.1104 1.09947 5.85444 9.54436
252 1 -1.1104 1.2127 11.4974 9.4343
255 1 -1.1104 3.98616 8.53612 12.3827
256 2 2.2208 2.47557 7.31176 8.06275
257 2 2.2208 2.58115 12.8409 8.06594
258 1 -1.1104 4.02431 8.74681 9.49333
259 2 2.2208 2.54784 10.0446 10.9553
260 1 -1.1104 3.98292 5.85514 12.3122
261 1 -1.1104 3.95753 11.3652 12.2601
262 1 -1.1104 3.83962 5.94608 9.45868
263 1 -1.1104 4.02126 11.5156 9.48808
254 1 -1.1104 6.85692 11.4542 9.40379
243 1 -1.1104 6.71046 8.73192 12.3042
248 1 -1.1104 6.79829 5.96835 12.1809
65 1 -1.1104 6.67722 11.5921 6.7329
245 1 -1.1104 6.74728 8.61031 9.45267
249 1 -1.1104 6.75722 11.5467 12.2143
266 1 -1.1104 12.1984 5.93256 6.68023
265 1 -1.1104 12.3475 8.63001 6.59342
267 1 -1.1104 9.56489 8.69199 6.59661
137 2 2.2208 -0.204494 18.5264 5.23376
253 1 -1.1104 6.76099 5.85842 9.39426
264 1 -1.1104 9.60119 11.4993 9.33554
268 1 -1.1104 9.51545 5.95272 9.41581
270 1 -1.1104 9.60107 11.5588 12.2069
271 1 -1.1104 9.56626 5.90389 12.4104
272 2 2.2208 8.23994 10.127 10.771
273 1 -1.1104 9.57605 8.76218 9.38712
274 2 2.2208 8.16433 12.9268 8.04438
275 2 2.2208 8.13263 7.26701 8.05258
276 2 2.2208 10.9117 7.28087 10.859
277 2 2.2208 10.955 12.8543 10.8078
278 1 -1.1104 12.1981 8.62121 12.1834
279 1 -1.1104 12.3573 8.60085 9.41203
280 1 -1.1104 12.262 5.84221 12.3547
281 1 -1.1104 12.3934 11.4373 12.188
282 2 2.2208 10.9127 10.0487 7.98528
283 1 -1.1104 12.2347 5.81398 9.51249
284 1 -1.1104 12.332 11.3794 9.40355
285 1 -1.1104 9.44784 8.73095 12.2397
318 1 -1.1104 9.58212 19.9481 9.55844
108 1 -1.1104 1.29159 14.3084 6.66431
143 1 -1.1104 12.3881 14.2544 6.54443
322 1 -1.1104 9.51302 14.2208 12.2305
118 1 -1.1104 6.84291 17.1173 6.59738
297 1 -1.1104 6.74941 14.3635 12.3124
295 2 2.2208 5.37444 15.6682 8.03873
294 1 -1.1104 1.14317 14.272 9.41079
298 1 -1.1104 1.06282 19.7553 12.326
308 1 -1.1104 3.93177 17.2039 12.1697
303 2 2.2208 2.49886 18.4771 8.107
307 1 -1.1104 1.09447 16.9204 12.1404
309 2 2.2208 2.58163 21.1855 10.9158
301 1 -1.1104 3.91383 19.8077 9.54305
300 2 2.2208 5.33136 18.4847 10.8546
310 2 2.2208 2.56274 15.6131 10.8908
299 1 -1.1104 1.15025 14.1302 12.2683
305 1 -1.1104 3.81538 14.3075 9.39939
304 1 -1.1104 3.92925 17.0198 9.39291
286 1 -1.1104 3.93645 19.8521 12.2943
287 1 -1.1104 3.94504 14.1914 12.1983
291 1 -1.1104 1.19415 19.8457 9.57099
292 1 -1.1104 1.09235 17.0801 9.52698
293 2 2.2208 5.3562 21.3449 8.13348
288 1 -1.1104 6.67781 19.9411 9.49223
296 1 -1.1104 6.72704 19.9137 12.2362
306 1 -1.1104 6.75406 17.1403 12.2706
315 1 -1.1104 9.6302 17.1003 12.2579
317 2 2.2208 8.12057 15.7624 10.7985
149 1 -1.1104 12.4782 17.1574 6.56396
325 2 2.2208 10.9487 15.6837 8.04385
316 2 2.2208 8.16402 21.2837 10.8233
330 1 -1.1104 12.3302 14.2628 12.2
328 1 -1.1104 12.2535 14.2088 9.37536
329 1 -1.1104 12.362 19.8076 12.1777
314 1 -1.1104 9.63063 17.2061 9.43308
326 1 -1.1104 12.4348 16.9886 12.2091
327 1 -1.1104 12.3608 19.7927 9.40296
350 2 2.2208 10.8083 4.4203 13.7265
368 2 2.2208 -0.274998 1.70778 -0.311401
82 2 2.2208 -0.149185 10.18 2.45683
375 2 2.2208 2.46437 21.2891 -0.394799
200 2 2.2208 -0.359735 -1.1406 8.06707
362 2 2.2208 8.17729 18.5239 13.6597
382 2 2.2208 -0.148923 12.8688 -0.356173
230 2 2.2208 13.6813 -1.09804 10.8635
349 2 2.2208 8.10067 21.345 -0.37872
346 2 2.2208 10.8646 -1.09296 13.657
358 2 2.2208 5.4866 21.323 13.6164
359 2 2.2208 5.31851 15.6818 13.6439
338 2 2.2208 5.22664 -1.06828 13.7277
356 2 2.2208 8.10648 12.916 13.6748
337 2 2.2208 -0.292762 4.43623 13.6358
373 2 2.2208 2.59561 15.7542 -0.395037
370 2 2.2208 7.97968 -1.18676 -0.366082
355 2 2.2208 10.8773 10.1212 13.61
365 2 2.2208 2.48909 -1.06603 -0.26689
361 2 2.2208 10.9449 15.6361 13.6244
366 2 2.2208 2.56377 4.57858 -0.316715
364 2 2.2208 5.24742 1.67577 -0.355854
335 2 2.2208 -0.300981 21.2509 13.7025
388 2 2.2208 5.21797 1.73897 16.4774
389 1 -1.1104 1.13812 -2.44909 17.759
390 1 -1.1104 1.12837 3.15193 17.8808
393 1 -1.1104 1.12855 -2.53185 14.9652
395 1 -1.1104 1.06818 2.98136 15.0345
401 1 -1.1104 1.13171 0.372266 17.8636
403 2 2.2208 5.31231 -1.10705 19.1966
404 2 2.2208 5.26366 4.46597 19.3274
405 1 -1.1104 1.06421 0.231275 15.0272
409 1 -1.1104 3.94325 -2.52756 17.9639
410 1 -1.1104 3.85897 3.20571 17.8399
411 2 2.2208 2.52016 1.66002 19.3014
412 1 -1.1104 3.85647 -2.58922 15.1239
414 1 -1.1104 3.9627 3.04813 15.0477
416 2 2.2208 2.50517 -1.09622 16.4869
417 2 2.2208 2.49332 4.60029 16.4638
418 1 -1.1104 3.94585 0.298555 17.918
419 1 -1.1104 3.86398 0.256302 15.0612
9089 2 2.2208 8.03043 -3.95439 24.7777
392 1 -1.1104 6.60358 3.08234 17.7361
391 1 -1.1104 6.63081 -2.47599 17.788
397 1 -1.1104 6.57298 -2.41694 15.082
341 2 2.2208 5.35173 4.50797 13.645
9090 2 2.2208 10.8129 -3.88664 21.9995
586 1 -1.1104 9.49647 17.1186 20.6369
9159 2 2.2208 5.25715 -3.94456 16.5552
399 1 -1.1104 6.69497 3.13162 15.0083
402 1 -1.1104 6.7412 0.21177 17.8219
407 1 -1.1104 6.58974 0.366083 15.0364
431 2 2.2208 10.824 1.72895 16.4016
432 1 -1.1104 12.1925 -2.42625 17.7618
433 1 -1.1104 12.2539 3.05141 17.9195
434 1 -1.1104 12.1563 -2.5418 14.9612
436 1 -1.1104 12.3135 3.07175 15.0474
438 1 -1.1104 12.2061 0.276097 17.8541
439 2 2.2208 10.9028 -1.03869 19.1729
440 2 2.2208 10.9169 4.50863 19.2277
441 1 -1.1104 12.3043 0.331966 15.0788
443 1 -1.1104 9.53339 -2.47512 17.8111
444 1 -1.1104 9.51408 3.18254 17.874
445 2 2.2208 8.11305 1.60228 19.1833
446 1 -1.1104 9.41033 -2.46882 15.0045
448 1 -1.1104 9.51338 3.09753 15.0902
450 2 2.2208 8.03573 -1.12504 16.3727
451 2 2.2208 8.03156 4.51822 16.4796
452 1 -1.1104 9.40855 0.315638 17.7872
453 1 -1.1104 9.42778 0.311009 15.0089
561 1 -1.1104 9.49078 14.2461 23.3985
708 2 2.2208 13.7376 12.8998 24.8412
398 1 -1.1104 6.657 -2.49245 20.6914
437 1 -1.1104 12.2173 3.10552 20.697
454 1 -1.1104 9.50874 0.273819 20.5871
449 1 -1.1104 9.49238 3.14692 20.6347
352 2 2.2208 5.36931 10.0808 13.6391
464 2 2.2208 5.36531 7.24948 16.513
465 2 2.2208 5.30434 12.8148 16.4348
466 1 -1.1104 1.01323 8.59805 17.8463
468 1 -1.1104 1.18453 8.60423 14.9369
472 1 -1.1104 1.15332 5.87567 17.9296
473 1 -1.1104 1.16897 11.3661 17.7466
476 2 2.2208 5.41651 10.0997 19.2474
477 1 -1.1104 1.08521 5.83123 15.1571
479 1 -1.1104 1.14578 11.4151 15.0298
485 1 -1.1104 3.88322 8.74308 17.8654
486 2 2.2208 2.5463 7.2976 19.3031
487 2 2.2208 2.59338 12.8403 19.3444
488 1 -1.1104 3.96461 8.64196 15.0714
490 2 2.2208 2.43825 10.0586 16.4638
491 1 -1.1104 3.91159 5.91789 17.9086
492 1 -1.1104 3.9311 11.486 17.8305
493 1 -1.1104 3.90684 5.86271 15.1159
495 1 -1.1104 3.94656 11.3509 15.0838
474 1 -1.1104 6.66866 5.90472 17.9034
475 1 -1.1104 6.7857 11.5691 17.8463
483 1 -1.1104 6.70215 11.4008 15.0736
467 1 -1.1104 6.76639 8.75919 17.9147
470 1 -1.1104 6.80122 8.60375 15.1868
481 1 -1.1104 6.70903 5.9256 14.9696
353 2 2.2208 2.57244 12.7773 13.7194
494 1 -1.1104 3.96458 5.92911 20.7246
480 1 -1.1104 1.15612 11.4668 20.6246
478 1 -1.1104 1.10207 5.89251 20.6892
351 2 2.2208 2.57756 7.25802 13.65
343 2 2.2208 7.96848 1.71434 13.6326
500 2 2.2208 10.869 7.28369 16.4576
501 2 2.2208 10.9984 12.9043 16.3988
502 1 -1.1104 12.3417 8.70671 17.8291
503 1 -1.1104 12.2085 8.61786 14.9994
505 1 -1.1104 12.2878 5.90616 17.8522
506 1 -1.1104 12.2891 11.5744 17.7882
507 2 2.2208 10.9244 10.0868 19.2839
508 1 -1.1104 12.3135 5.81653 15.1371
510 1 -1.1104 12.3735 11.3839 15.0217
512 1 -1.1104 9.52236 8.69136 17.7981
513 2 2.2208 8.17974 7.30222 19.3145
514 2 2.2208 8.17507 12.9808 19.2594
515 1 -1.1104 9.56106 8.71735 15.0745
517 2 2.2208 8.10028 10.082 16.4772
518 1 -1.1104 9.43569 5.91647 17.902
519 1 -1.1104 9.51859 11.4926 17.9705
520 1 -1.1104 9.42871 5.96334 15.1334
522 1 -1.1104 9.4543 11.5354 14.9683
626 2 2.2208 -0.250872 4.56673 24.9117
625 2 2.2208 -0.341255 1.75997 22.0494
645 2 2.2208 -0.290111 21.3394 24.8011
653 2 2.2208 13.6632 -1.15547 22.0462
684 2 2.2208 -0.243338 10.0758 24.9003
587 2 2.2208 8.10408 18.5371 24.8889
527 2 2.2208 5.30324 18.5343 16.3868
528 1 -1.1104 1.09816 14.2111 17.8053
529 1 -1.1104 1.10174 19.908 17.7852
532 1 -1.1104 1.17274 14.2158 15.0196
534 1 -1.1104 1.1772 19.8474 15.0727
540 1 -1.1104 1.22791 17.0801 17.8762
542 2 2.2208 5.38556 15.7346 19.165
543 2 2.2208 5.3758 21.2606 19.2494
544 1 -1.1104 1.22022 17.0866 15.0497
548 1 -1.1104 3.90086 14.2635 17.8866
549 1 -1.1104 3.82625 19.9592 17.8551
550 2 2.2208 2.51797 18.5894 19.1953
551 1 -1.1104 3.8916 14.2477 15.0599
553 1 -1.1104 3.98698 19.8509 15.0262
555 2 2.2208 2.45573 15.5801 16.4377
556 2 2.2208 2.59211 21.3345 16.3346
557 1 -1.1104 4.00634 17.1852 17.7459
558 1 -1.1104 3.92216 16.9225 14.9941
546 1 -1.1104 6.7782 17.1185 14.9943
541 1 -1.1104 6.744 17.169 17.8086
531 1 -1.1104 6.68413 19.8668 17.9017
347 2 2.2208 8.17736 15.7427 27.7255
530 1 -1.1104 6.81845 14.4319 17.9424
538 1 -1.1104 6.81545 19.9747 15.0608
537 1 -1.1104 6.81018 14.3156 20.6511
559 1 -1.1104 3.87826 17.087 20.5491
552 1 -1.1104 3.96019 14.2832 20.6848
533 1 -1.1104 1.19165 14.2724 20.5517
539 1 -1.1104 6.82556 19.8927 20.6638
9158 2 2.2208 2.3646 -4.00392 19.2396
536 1 -1.1104 6.67241 14.2605 15.0736
563 2 2.2208 10.9145 18.4519 16.4243
564 1 -1.1104 12.3413 14.3344 17.7685
565 1 -1.1104 12.2655 19.9041 17.8891
566 1 -1.1104 12.3005 14.2379 14.9391
568 1 -1.1104 12.2754 19.7724 14.9547
570 1 -1.1104 12.349 17.1505 17.9071
571 2 2.2208 10.9589 15.6697 19.2214
572 2 2.2208 10.8822 21.2414 19.2816
573 1 -1.1104 12.3127 16.9961 15.0924
575 1 -1.1104 9.64734 14.2593 17.9024
576 1 -1.1104 9.56325 19.902 17.8609
577 2 2.2208 8.08094 18.406 19.3214
578 1 -1.1104 9.53721 14.2016 15.0227
580 1 -1.1104 9.5452 19.8723 15.0487
582 2 2.2208 8.19431 15.7026 16.4638
583 2 2.2208 8.12547 21.2492 16.5239
584 1 -1.1104 9.55117 17.1176 17.8145
585 1 -1.1104 9.56493 17.0495 15.0351
574 1 -1.1104 12.2853 17.1413 20.7198
9093 2 2.2208 5.2385 -3.96833 22.0587
463 1 -1.1104 12.2843 14.3343 23.4449
581 1 -1.1104 9.60485 19.8341 20.6398
457 2 2.2208 -0.241144 15.7489 19.3178
710 2 2.2208 13.7868 7.32512 24.7817
413 1 -1.1104 3.79436 -2.51296 20.8079
648 2 2.2208 -0.306932 12.8644 16.5074
646 2 2.2208 -0.271086 15.648 24.8123
394 1 -1.1104 1.1228 -2.40908 20.6306
406 1 -1.1104 0.998741 0.386983 20.5832
420 1 -1.1104 3.84654 0.318823 20.643
415 1 -1.1104 3.9323 3.08218 20.7043
396 1 -1.1104 1.10445 3.06698 20.6337
591 2 2.2208 5.34725 1.70129 22.0714
592 1 -1.1104 1.02753 -2.47209 23.4954
593 1 -1.1104 1.11477 3.19014 23.4647
596 1 -1.1104 1.15731 -2.52273 26.2697
597 1 -1.1104 1.11594 3.13115 26.249
600 1 -1.1104 1.07204 0.32699 23.3635
602 2 2.2208 5.28496 -1.10879 24.81
603 2 2.2208 5.32983 4.50148 24.8414
604 1 -1.1104 1.06384 0.375379 26.2141
606 1 -1.1104 3.90564 -2.5758 23.5745
607 1 -1.1104 3.84323 3.15053 23.5043
608 2 2.2208 2.44637 1.69884 24.8324
609 1 -1.1104 3.94688 -2.47885 26.285
610 1 -1.1104 3.89509 3.1465 26.1802
611 2 2.2208 2.45387 -1.06472 22.0637
612 2 2.2208 2.4947 4.45656 22.0526
613 1 -1.1104 3.83601 0.282264 23.4842
614 1 -1.1104 3.7953 0.288429 26.2383
599 1 -1.1104 6.75452 3.10157 26.2642
408 1 -1.1104 6.6522 0.323647 20.6189
601 1 -1.1104 6.67748 0.281573 23.4112
458 2 2.2208 -0.305177 21.3325 19.1668
598 1 -1.1104 6.72673 -2.56214 26.3724
595 1 -1.1104 6.62182 3.06039 23.3875
400 1 -1.1104 6.56995 3.03908 20.6263
367 2 2.2208 -0.227878 10.0734 13.6668
579 1 -1.1104 9.56558 14.3979 20.58
620 1 -1.1104 9.5161 17.1159 26.3731
462 2 2.2208 10.9668 18.5144 22.0814
562 1 -1.1104 9.55811 19.8569 23.4049
594 1 -1.1104 6.75116 -2.47715 23.5858
435 1 -1.1104 12.2324 -2.43306 20.6464
605 1 -1.1104 6.58493 0.326245 26.2896
442 1 -1.1104 12.305 0.360733 20.6228
447 1 -1.1104 9.53195 -2.44328 20.6516
627 2 2.2208 10.8968 1.75728 22.0439
628 1 -1.1104 12.2842 -2.4704 23.41
629 1 -1.1104 12.2717 3.16748 23.4738
630 1 -1.1104 12.2174 -2.42832 26.3044
631 1 -1.1104 12.3685 2.97669 26.2771
632 1 -1.1104 12.2982 0.250452 23.3949
633 2 2.2208 10.8409 -1.12706 24.8161
634 2 2.2208 11.0189 4.49735 24.8848
635 1 -1.1104 12.3649 0.217414 26.1825
636 1 -1.1104 9.45243 -2.53113 23.2945
637 1 -1.1104 9.44538 3.08454 23.4738
638 2 2.2208 8.10367 1.65999 24.8523
639 1 -1.1104 9.43044 -2.50065 26.0922
640 1 -1.1104 9.5854 3.02179 26.2648
641 2 2.2208 8.06295 -1.11964 22.037
642 2 2.2208 8.10261 4.57696 22.0884
643 1 -1.1104 9.48008 0.290884 23.4473
644 1 -1.1104 9.45558 0.312184 26.3004
497 1 -1.1104 12.3012 19.8312 23.4789
567 1 -1.1104 12.3854 14.2394 20.5803
489 1 -1.1104 3.94654 8.69647 20.6173
484 1 -1.1104 6.74124 11.5874 20.5937
623 2 2.2208 -0.342155 18.5839 21.9835
469 1 -1.1104 1.26964 8.73164 20.7059
496 1 -1.1104 3.93819 11.5097 20.637
656 2 2.2208 5.35718 7.31718 22.127
657 2 2.2208 5.40968 12.8784 22.0216
658 1 -1.1104 1.11348 8.74575 23.3778
660 1 -1.1104 1.30037 8.64483 26.2252
662 1 -1.1104 1.16616 6.00778 23.4037
663 1 -1.1104 1.20882 11.5498 23.4685
666 2 2.2208 5.37919 10.0969 24.8311
667 1 -1.1104 1.1661 5.88495 26.2505
668 1 -1.1104 1.24373 11.4849 26.2341
671 1 -1.1104 3.94183 8.73586 23.5313
672 2 2.2208 2.54449 7.35931 24.7518
673 2 2.2208 2.58441 12.9399 24.8113
674 1 -1.1104 4.06867 8.72673 26.1646
675 2 2.2208 2.55558 10.1561 22.0264
676 1 -1.1104 4.00612 5.89848 23.4541
677 1 -1.1104 3.9788 11.5053 23.4274
678 1 -1.1104 3.91647 5.91764 26.3073
679 1 -1.1104 4.09942 11.537 26.186
659 1 -1.1104 6.7777 8.6524 23.5245
482 1 -1.1104 6.66645 5.99497 20.7125
670 1 -1.1104 6.86587 11.5626 26.2247
665 1 -1.1104 6.79102 11.5279 23.4042
589 1 -1.1104 9.5269 14.3174 26.2642
590 1 -1.1104 9.58143 19.9778 26.2128
521 1 -1.1104 9.47553 5.93322 20.7611
504 1 -1.1104 12.1846 8.61623 20.5719
509 1 -1.1104 12.3866 5.93848 20.7115
524 1 -1.1104 12.3867 17.0625 23.4261
664 1 -1.1104 6.74896 5.93316 23.5504
471 1 -1.1104 6.72971 8.72059 20.789
661 1 -1.1104 6.90147 8.59642 26.3185
669 1 -1.1104 6.72511 5.9007 26.3636
523 1 -1.1104 9.48446 11.5896 20.719
511 1 -1.1104 12.2692 11.4825 20.5976
516 1 -1.1104 9.52942 8.71977 20.612
687 1 -1.1104 9.66337 11.5175 26.1988
688 1 -1.1104 9.54934 5.83175 26.1457
689 1 -1.1104 9.53282 11.5037 23.4242
690 1 -1.1104 9.68046 5.75467 23.433
691 2 2.2208 8.21093 10.1656 22.0162
692 1 -1.1104 9.58352 8.69946 26.2289
693 2 2.2208 8.17476 12.9592 24.8556
694 2 2.2208 8.18218 7.30905 24.8074
695 2 2.2208 10.9983 7.27823 21.9891
696 2 2.2208 10.9046 12.9904 22.0384
697 1 -1.1104 12.2446 8.75667 23.3246
698 1 -1.1104 12.3844 8.74613 26.0963
699 1 -1.1104 12.4126 5.9478 23.4063
700 1 -1.1104 12.3032 11.5346 23.4245
701 2 2.2208 10.9507 10.1438 24.8422
702 1 -1.1104 12.3486 5.94083 26.2909
703 1 -1.1104 12.394 11.5683 26.2478
704 1 -1.1104 9.56197 8.58691 23.437
525 2 2.2208 10.9051 15.7276 24.8967
498 1 -1.1104 12.401 14.379 26.2203
714 1 -1.1104 6.71056 17.196 26.3173
680 1 -1.1104 6.73724 17.0975 23.4258
545 1 -1.1104 1.04349 17.1185 20.6372
709 1 -1.1104 6.71774 14.3533 23.427
712 1 -1.1104 6.75589 14.3853 26.153
588 1 -1.1104 6.67677 19.9587 26.2404
547 1 -1.1104 6.62327 17.1218 20.689
719 2 2.2208 5.22913 21.3683 24.8394
717 1 -1.1104 1.10138 14.2127 26.1472
535 1 -1.1104 1.16511 19.8825 20.5384
554 1 -1.1104 4.01225 20.0209 20.6472
720 2 2.2208 5.41633 15.7315 24.8522
647 2 2.2208 2.60287 15.7533 22.0407
649 2 2.2208 2.50892 21.3244 22.0061
652 1 -1.1104 3.89542 17.0176 23.3856
655 1 -1.1104 1.14084 17.1226 23.4439
681 1 -1.1104 3.96271 14.2332 26.2323
682 1 -1.1104 3.92484 17.0567 26.1256
683 2 2.2208 2.51039 18.4724 24.8374
686 1 -1.1104 3.96014 19.978 26.2149
705 2 2.2208 5.35688 18.4873 22.1231
706 1 -1.1104 1.1689 14.3376 23.3247
707 1 -1.1104 1.11296 19.9763 23.3781
711 1 -1.1104 3.85706 19.8502 23.4317
713 1 -1.1104 3.97967 14.3625 23.4162
715 1 -1.1104 1.16945 19.8936 26.1745
716 1 -1.1104 0.997817 17.007 26.2893
617 1 -1.1104 9.53439 17.0495 23.4753
379 2 2.2208 5.29888 7.33339 27.6657
616 2 2.2208 8.12095 21.3265 22.049
615 2 2.2208 8.15362 15.6844 22.0109
499 1 -1.1104 12.3899 19.8399 26.2395
526 2 2.2208 10.9249 21.318 24.8548
560 1 -1.1104 12.1896 16.971 26.2998
718 1 -1.1104 6.71165 19.9277 23.4553
569 1 -1.1104 12.3437 19.8791 20.7535
685 2 2.2208 -0.214388 12.8744 22.0479
622 2 2.2208 -0.215555 10.0947 19.2305
624 2 2.2208 -0.322709 -1.04325 24.8226
621 2 2.2208 -0.229515 7.24634 16.3494
374 2 2.2208 5.35623 18.5074 27.6499
424 2 2.2208 -0.310555 1.69136 16.4825
425 2 2.2208 -0.361409 -1.06427 19.2487
427 2 2.2208 -0.200838 4.54084 19.3159
421 2 2.2208 -0.232073 7.3967 21.9838
340 2 2.2208 13.7251 1.72581 13.6716
383 2 2.2208 -0.233313 7.33183 27.653
369 2 2.2208 10.8761 1.66819 27.6428
372 2 2.2208 8.01759 4.42385 27.7186
385 2 2.2208 8.12879 10.0585 27.6626
339 2 2.2208 2.47374 1.65392 13.6665
360 2 2.2208 10.9661 21.219 13.5851
357 2 2.2208 2.55697 18.4131 13.609
354 2 2.2208 8.10216 7.34095 13.6243
721 2 2.2208 5.34275 24.0662 5.25103
722 2 2.2208 5.21568 29.6488 5.31786
723 1 -1.1104 1.13619 25.5476 1.01577
724 1 -1.1104 1.24683 25.4973 3.9407
725 1 -1.1104 1.11023 22.6843 1.02005
726 1 -1.1104 1.09445 28.3627 1.03056
727 2 2.2208 5.32065 26.8971 2.51504
728 1 -1.1104 1.12518 22.7869 3.78146
729 1 -1.1104 1.11083 28.2811 3.82645
730 1 -1.1104 3.92165 25.4944 1.0337
731 2 2.2208 2.53021 24.1505 2.46921
732 2 2.2208 2.44077 29.6785 2.56753
733 1 -1.1104 3.90012 25.4715 3.84174
734 2 2.2208 2.51407 26.956 5.29016
735 1 -1.1104 3.83293 22.6877 1.07726
736 1 -1.1104 3.84814 28.2756 1.03821
737 1 -1.1104 4.02372 22.7371 3.88494
738 1 -1.1104 3.80905 28.1855 3.76994
745 1 -1.1104 6.62836 28.2236 1.06538
868 1 -1.1104 4.06898 25.3935 6.59835
870 1 -1.1104 3.92329 28.1618 6.68858
869 1 -1.1104 4.02153 22.6441 6.74147
744 1 -1.1104 6.71009 22.7097 1.04762
747 1 -1.1104 6.66665 28.3293 3.94662
741 2 2.2208 -0.227317 24.0361 5.2355
1656 1 -1.1104 9.56331 47.8317 12.2761
866 1 -1.1104 6.76099 22.6729 6.69244
1008 1 -1.1104 9.18923 39.3616 9.5519
746 1 -1.1104 6.79635 22.6863 3.76779
742 1 -1.1104 6.69793 25.5226 1.08886
1025 1 -1.1104 9.44888 45.1237 6.68499
743 1 -1.1104 6.69855 25.4181 3.83571
748 2 2.2208 10.938 24.0646 5.20934
749 2 2.2208 10.9156 29.678 5.23233
750 1 -1.1104 12.2092 25.4624 1.06737
751 1 -1.1104 12.3933 25.4349 3.90358
752 1 -1.1104 12.4529 22.6534 1.12364
753 1 -1.1104 12.3785 28.2922 1.02852
754 2 2.2208 10.8863 26.889 2.48979
755 1 -1.1104 12.2855 22.5901 3.9315
756 1 -1.1104 12.184 28.2633 3.94441
757 1 -1.1104 9.46682 25.5087 1.01207
758 2 2.2208 8.08811 24.0843 2.4892
759 2 2.2208 8.09181 29.6652 2.37205
760 1 -1.1104 9.51941 25.5057 3.82005
761 2 2.2208 8.10343 26.9497 5.27262
762 1 -1.1104 9.53401 22.7216 1.07009
763 1 -1.1104 9.48184 28.2307 0.972164
764 1 -1.1104 9.45137 22.6516 3.89575
765 1 -1.1104 9.4313 28.277 3.6757
1012 1 -1.1104 9.26159 42.4386 9.31402
900 1 -1.1104 9.47213 28.2846 6.68125
897 1 -1.1104 12.3029 28.3133 6.62021
896 1 -1.1104 12.472 22.7502 6.67104
1628 1 -1.1104 3.80141 47.8311 9.33652
867 1 -1.1104 6.56931 28.1651 6.69573
899 1 -1.1104 9.61882 22.6603 6.70709
1038 2 2.2208 -0.278501 26.8674 8.09526
769 2 2.2208 5.25556 35.2496 5.23274
770 1 -1.1104 1.07437 31.0256 1.17332
771 1 -1.1104 1.09605 36.6096 1.06108
773 1 -1.1104 1.11709 31.028 3.92821
774 1 -1.1104 1.10944 36.6782 3.90817
776 1 -1.1104 1.04684 33.7556 1.04182
777 2 2.2208 5.32839 32.426 2.41432
778 2 2.2208 5.32782 38.0334 2.50983
779 1 -1.1104 1.12127 33.8403 3.86339
781 1 -1.1104 3.98271 31.0143 1.08693
782 1 -1.1104 3.87053 36.6084 1.09563
783 2 2.2208 2.48474 35.1878 2.45201
784 1 -1.1104 3.79566 30.9954 3.86363
785 1 -1.1104 3.86507 36.627 3.8251
786 2 2.2208 2.46045 32.4174 5.1995
787 2 2.2208 2.39633 38.0301 5.30576
788 1 -1.1104 3.85788 33.7554 1.14817
789 1 -1.1104 3.89078 33.8353 3.85638
780 1 -1.1104 6.6201 33.8243 3.79461
795 1 -1.1104 6.65618 33.8336 1.03
775 1 -1.1104 6.62664 36.5806 3.78585
793 1 -1.1104 6.78151 31.0801 0.96636
919 1 -1.1104 1.05437 31.1123 6.69346
794 1 -1.1104 6.74242 31.0787 3.85667
922 1 -1.1104 6.55192 36.7495 6.62599
925 1 -1.1104 3.81796 31.0444 6.71527
923 1 -1.1104 1.03965 33.9054 6.63435
1016 1 -1.1104 12.3493 45.1865 9.58489
772 1 -1.1104 6.71118 36.5734 1.03884
796 2 2.2208 10.7969 35.3283 5.42851
797 1 -1.1104 12.2911 31.073 1.11742
798 1 -1.1104 12.3136 36.7054 1.21649
799 1 -1.1104 12.2634 31.0729 3.84379
800 1 -1.1104 12.2368 36.5214 3.84552
801 1 -1.1104 12.2128 33.7908 1.03945
802 2 2.2208 10.8484 32.4502 2.5025
803 2 2.2208 10.9106 38.0805 2.50654
804 1 -1.1104 12.2669 33.8334 3.90748
805 1 -1.1104 9.51837 31.0888 1.02063
806 1 -1.1104 9.49385 36.7327 1.04142
807 2 2.2208 8.11373 35.2771 2.45563
808 1 -1.1104 9.52154 31.1107 3.87548
809 1 -1.1104 9.44618 36.7748 3.74873
810 2 2.2208 8.08835 32.4638 5.25365
811 2 2.2208 8.04036 38.0647 5.23139
812 1 -1.1104 9.41555 33.8686 1.03167
813 1 -1.1104 9.57259 33.8865 3.81128
1052 2 2.2208 13.6125 46.299 13.6075