ITEM: TIMESTEP
20000
ITEM: NUMBER OF ATOMS
17670
ITEM: BOX BOUNDS pp pp pp
-3.2165489051421275e-01 2.7661654890514132e+01
-3.8504225670171297e+00 3.3193042256702068e+02
-3.1574886148566500e-01 2.7655748861485947e+01
ITEM: ATOMS id type q x y z
1 2 2.2208 5.29705 1.72468 5.16913
2 1 -1.1104 1.06179 -2.45705 0.974641
3 1 -1.1104 1.0457 3.19307 0.931539
6 1 -1.1104 1.1511 -2.39809 3.79437
7 1 -1.1104 0.973135 3.14822 3.83629
10 1 -1.1104 1.03344 0.32384 1.05883
12 2 2.2208 5.3673 -1.0764 2.39565
13 2 2.2208 5.18699 4.60225 2.47446
14 1 -1.1104 1.00915 0.347115 3.86764
16 1 -1.1104 3.97795 -2.41497 1.00096
17 1 -1.1104 3.86424 3.04705 0.995961
18 2 2.2208 2.49154 1.68717 2.43499
19 1 -1.1104 3.99023 -2.41395 3.84747
20 1 -1.1104 3.87064 3.20763 3.77524
21 2 2.2208 2.50382 -0.989828 5.20217
22 2 2.2208 2.43001 4.56917 5.30894
23 1 -1.1104 3.92443 0.46719 0.972387
24 1 -1.1104 3.81774 0.398256 3.73728
83 2 2.2208 -0.360619 13.0346 5.176
11 1 -1.1104 6.77755 0.350478 0.991105
172 1 -1.1104 3.93793 -2.38016 6.63045
171 1 -1.1104 6.67118 0.407613 6.55943
8 1 -1.1104 6.71579 -2.39653 3.92342
26 2 2.2208 -0.424375 1.76159 5.19897
361 2 2.2208 10.9254 15.7572 13.6289
173 1 -1.1104 3.90923 3.1529 6.61411
174 1 -1.1104 3.88691 0.442998 6.53029
9020 2 2.2208 2.51041 -3.8551 13.6499
8996 2 2.2208 8.08197 -3.85503 2.48858
8999 2 2.2208 2.50916 -3.81664 8.04397
5 1 -1.1104 6.68032 3.19556 1.02769
15 1 -1.1104 6.72456 0.324391 3.77353
4 1 -1.1104 6.73151 -2.43625 1.05524
9 1 -1.1104 6.60164 3.14148 3.84217
31 2 2.2208 10.8624 1.81303 5.21389
32 1 -1.1104 12.3493 -2.43075 0.971333
33 1 -1.1104 12.2478 3.20265 1.06926
34 1 -1.1104 12.3612 -2.35664 3.88141
35 1 -1.1104 12.3473 3.23808 3.89611
36 1 -1.1104 12.3051 0.498984 1.06999
37 2 2.2208 10.9728 -0.951433 2.42335
38 2 2.2208 10.9154 4.6296 2.50207
39 1 -1.1104 12.2961 0.445986 3.76987
40 1 -1.1104 9.4996 -2.41726 1.07319
41 1 -1.1104 9.41379 3.18726 0.972698
42 2 2.2208 8.12973 1.8406 2.33243
43 1 -1.1104 9.56368 -2.3492 3.8297
44 1 -1.1104 9.5169 3.23897 3.77161
45 2 2.2208 8.14653 -0.98735 5.20591
46 2 2.2208 8.03063 4.62438 5.2496
47 1 -1.1104 9.64259 0.380373 0.995759
48 1 -1.1104 9.51345 0.464723 3.83291
313 2 2.2208 -0.316755 15.7359 7.91556
8997 2 2.2208 10.9093 -3.8072 5.23876
9000 2 2.2208 5.32655 -3.81106 10.8343
356 2 2.2208 8.05809 12.9778 13.6359
209 1 -1.1104 9.48149 3.20804 6.67698
205 1 -1.1104 12.3017 -2.33136 6.63976
9016 2 2.2208 8.03568 -3.79871 13.6153
351 2 2.2208 2.55295 7.3678 13.5995
360 2 2.2208 11.0522 21.335 13.6594
9002 2 2.2208 8.13578 -3.82738 8.09223
54 2 2.2208 5.26598 7.39981 5.27677
55 2 2.2208 5.25523 12.9264 5.28702
56 1 -1.1104 1.07943 8.58908 1.08962
58 1 -1.1104 1.15448 8.71141 3.89416
60 1 -1.1104 1.16932 5.9595 1.00404
61 1 -1.1104 1.07871 11.4918 0.981679
66 2 2.2208 5.27103 10.0699 2.36116
67 1 -1.1104 1.03544 5.92385 3.76451
68 1 -1.1104 1.06213 11.4974 3.77082
71 1 -1.1104 3.83721 8.64036 1.05536
72 2 2.2208 2.45018 7.29804 2.40707
73 2 2.2208 2.49262 12.8586 2.44812
74 1 -1.1104 3.8673 8.77115 3.7946
75 2 2.2208 2.48385 10.1578 5.31206
76 1 -1.1104 3.78916 5.81444 1.04432
77 1 -1.1104 3.95714 11.4386 1.06392
79 1 -1.1104 3.96568 6.04142 3.87147
80 1 -1.1104 3.9031 11.408 3.71129
64 1 -1.1104 6.86825 11.4765 1.02192
59 1 -1.1104 6.69217 8.75616 3.82975
354 2 2.2208 8.0745 7.37779 13.5541
62 1 -1.1104 1.036 11.5794 6.56333
238 1 -1.1104 3.89602 8.81768 6.67363
237 1 -1.1104 6.67294 5.94278 6.62968
52 2 2.2208 13.6956 10.1704 10.7882
9003 2 2.2208 10.8903 -3.76838 10.8232
69 1 -1.1104 6.76632 5.94964 3.83888
63 1 -1.1104 6.64773 6.0007 1.08432
57 1 -1.1104 6.66208 8.75083 1.06134
70 1 -1.1104 6.68788 11.5353 3.91364
84 2 2.2208 10.9819 7.4642 5.16766
85 2 2.2208 10.8637 12.9175 5.14145
86 1 -1.1104 12.2272 8.90716 0.932693
87 1 -1.1104 12.3242 8.76327 3.72145
88 1 -1.1104 12.3183 6.03947 1.01166
89 1 -1.1104 12.2941 11.6012 0.956094
91 2 2.2208 10.8989 10.2178 2.34953
92 1 -1.1104 12.2945 6.00724 3.77748
93 1 -1.1104 12.2576 11.5297 3.88419
94 1 -1.1104 9.41167 8.73592 1.09924
95 2 2.2208 8.09138 7.3114 2.40413
96 2 2.2208 8.12976 12.9628 2.51483
97 1 -1.1104 9.56122 8.82109 3.81486
98 2 2.2208 8.09102 10.1264 5.18688
99 1 -1.1104 9.52496 5.99695 1.03392
100 1 -1.1104 9.53348 11.5147 1.10136
102 1 -1.1104 9.56958 5.97606 3.89293
103 1 -1.1104 9.47405 11.5785 3.86767
267 1 -1.1104 9.53775 8.79467 6.58659
65 1 -1.1104 6.59253 11.5503 6.64436
101 1 -1.1104 9.39293 11.5906 6.61039
265 1 -1.1104 12.4271 8.82578 6.62482
199 2 2.2208 -0.295983 4.55843 8.05728
314 1 -1.1104 9.43272 17.2753 9.55746
111 1 -1.1104 6.64007 14.4089 6.65952
106 2 2.2208 5.21077 18.5133 5.26334
107 1 -1.1104 1.1395 14.2509 1.02729
109 1 -1.1104 1.18219 19.9655 1.08284
113 1 -1.1104 1.19651 14.3455 3.87902
114 1 -1.1104 1.07269 19.9243 3.81896
116 1 -1.1104 0.946581 17.1759 0.992623
119 2 2.2208 5.25191 15.725 2.41992
120 2 2.2208 5.25999 21.2774 2.51097
121 1 -1.1104 1.09546 17.0703 3.92276
123 1 -1.1104 3.91798 14.2904 1.07147
125 1 -1.1104 3.96064 19.9768 0.986597
127 2 2.2208 2.49516 18.5031 2.36781
128 1 -1.1104 3.98003 14.1769 3.88843
129 1 -1.1104 3.81989 19.9185 3.7699
130 2 2.2208 2.43886 15.7959 5.31273
131 2 2.2208 2.56121 21.2775 5.19036
132 1 -1.1104 3.76242 17.1041 1.03846
134 1 -1.1104 3.76666 17.0279 3.83801
124 1 -1.1104 3.78603 14.4279 6.64336
115 1 -1.1104 6.79092 14.3382 3.93735
139 1 -1.1104 6.63234 19.9345 3.85578
133 1 -1.1104 3.92159 17.1984 6.67803
329 1 -1.1104 12.3234 19.9626 12.2573
156 1 -1.1104 9.48569 19.89 6.71457
321 1 -1.1104 9.60573 19.8815 12.2695
339 2 2.2208 2.48918 1.73614 13.5588
154 1 -1.1104 9.53927 14.3664 6.6637
325 2 2.2208 10.8864 15.7658 8.00272
138 1 -1.1104 6.70864 19.873 1.08139
140 1 -1.1104 6.53424 17.0754 1.00301
110 1 -1.1104 6.72758 14.2856 1.12828
122 1 -1.1104 6.73185 17.0263 3.8832
141 2 2.2208 10.8019 18.5897 5.26143
142 1 -1.1104 12.3597 14.4174 0.986913
144 1 -1.1104 12.2125 19.9363 1.07762
146 1 -1.1104 12.345 14.2733 3.77774
147 1 -1.1104 12.2109 19.9461 3.86948
148 1 -1.1104 12.3539 17.1619 1.03163
150 2 2.2208 10.9463 15.6872 2.37603
151 2 2.2208 10.8591 21.3497 2.40934
152 1 -1.1104 12.2144 17.0711 3.84163
153 1 -1.1104 9.51616 14.3497 0.968644
155 1 -1.1104 9.47515 19.9766 1.02969
157 2 2.2208 8.01064 18.506 2.38116
158 1 -1.1104 9.56623 14.4272 3.76199
159 1 -1.1104 9.41841 19.8917 3.80921
160 2 2.2208 8.10822 15.7523 5.22315
161 2 2.2208 8.09687 21.2171 5.30311
162 1 -1.1104 9.49702 17.0997 1.0598
164 1 -1.1104 9.43967 17.1158 3.82946
149 1 -1.1104 12.2927 17.1905 6.61786
163 1 -1.1104 9.54498 17.2047 6.65585
118 1 -1.1104 6.61059 17.1382 6.70056
202 2 2.2208 13.7046 7.39822 8.01984
296 1 -1.1104 6.73633 19.9288 12.3018
362 2 2.2208 8.09987 18.6069 13.6675
167 1 -1.1104 1.02665 3.19736 6.69636
170 1 -1.1104 1.05747 0.378936 6.6021
166 1 -1.1104 1.09511 -2.40127 6.67105
175 2 2.2208 5.29138 1.72851 10.8945
176 1 -1.1104 1.21516 -2.41593 12.179
177 1 -1.1104 1.10645 3.09796 12.1881
180 1 -1.1104 1.08243 -2.48428 9.41568
181 1 -1.1104 1.05693 3.23472 9.36911
184 1 -1.1104 1.10677 0.366263 12.1898
186 2 2.2208 5.29707 -0.982159 7.94459
187 2 2.2208 5.36186 4.52197 7.98781
188 1 -1.1104 1.1638 0.264495 9.41246
190 1 -1.1104 3.9113 -2.48756 12.1547
191 1 -1.1104 3.8792 3.1924 12.1597
192 2 2.2208 2.5485 1.80325 8.00565
193 1 -1.1104 3.8618 -2.48706 9.38928
194 1 -1.1104 3.77713 3.1299 9.35499
195 2 2.2208 2.54022 -1.05205 10.7656
196 2 2.2208 2.45402 4.54476 10.8192
197 1 -1.1104 3.87956 0.336936 12.1708
198 1 -1.1104 3.93514 0.344862 9.3676
178 1 -1.1104 6.6864 -2.38617 12.227
169 1 -1.1104 6.72361 3.14436 6.60211
182 1 -1.1104 6.5946 -2.41736 9.43494
363 2 2.2208 13.7047 18.5231 13.6093
359 2 2.2208 5.2199 15.8239 13.651
290 1 -1.1104 6.5789 14.3813 9.43943
145 1 -1.1104 12.3342 19.9269 6.6492
320 2 2.2208 8.11429 18.5401 8.14298
208 1 -1.1104 9.49638 -2.4108 6.66466
318 1 -1.1104 9.553 19.9204 9.421
183 1 -1.1104 6.59798 3.22005 9.45345
168 1 -1.1104 6.7107 -2.38419 6.57832
179 1 -1.1104 6.64378 3.24871 12.2669
206 1 -1.1104 12.2107 3.17729 6.66968
207 1 -1.1104 12.2659 0.394057 6.50659
189 1 -1.1104 6.70212 0.386474 9.39015
210 1 -1.1104 9.48182 0.382159 6.54637
185 1 -1.1104 6.76422 0.400158 12.1625
211 2 2.2208 10.8337 1.84568 10.739
212 1 -1.1104 12.324 -2.37218 12.2241
213 1 -1.1104 12.2472 3.278 12.187
214 1 -1.1104 12.2952 -2.45409 9.44542
215 1 -1.1104 12.1877 3.14665 9.35737
216 1 -1.1104 12.2125 0.434578 12.2032
217 2 2.2208 10.9413 -1.01995 7.88464
218 2 2.2208 10.8559 4.56788 7.9737
219 1 -1.1104 12.2473 0.312697 9.31933
220 1 -1.1104 9.4715 -2.35913 12.2182
221 1 -1.1104 9.42313 3.19914 12.1644
222 2 2.2208 8.1109 1.81927 7.98328
223 1 -1.1104 9.47223 -2.41049 9.38708
224 1 -1.1104 9.42632 3.23011 9.36806
225 2 2.2208 8.06139 -1.01864 10.7306
226 2 2.2208 8.06897 4.60173 10.8112
227 1 -1.1104 9.48489 0.436614 12.1453
228 1 -1.1104 9.51908 0.428314 9.36729
29 2 2.2208 -0.320744 7.45022 10.9154
317 2 2.2208 8.06261 15.8882 10.8879
315 1 -1.1104 9.50396 17.1434 12.2416
236 1 -1.1104 1.03455 6.00576 6.58818
234 1 -1.1104 1.07203 8.77268 6.54845
239 1 -1.1104 3.85047 6.00803 6.61383
78 1 -1.1104 3.84044 11.5571 6.68105
240 2 2.2208 5.26941 7.38768 10.6902
241 2 2.2208 5.15782 12.9593 10.8611
242 1 -1.1104 1.04242 8.74827 12.2735
244 1 -1.1104 0.98848 8.79261 9.31509
246 1 -1.1104 1.20056 6.03415 12.2613
247 1 -1.1104 1.05189 11.5766 12.2562
250 2 2.2208 5.34225 10.1923 8.03069
251 1 -1.1104 1.01211 5.93751 9.4188
252 1 -1.1104 1.04472 11.5367 9.35007
255 1 -1.1104 3.84966 8.73249 12.1345
256 2 2.2208 2.44408 7.35988 8.05552
257 2 2.2208 2.46994 12.9962 8.07659
258 1 -1.1104 3.83408 8.77799 9.32661
259 2 2.2208 2.45855 10.1118 10.8287
260 1 -1.1104 3.93009 5.94655 12.1451
261 1 -1.1104 3.83506 11.4468 12.1857
262 1 -1.1104 3.88155 5.88156 9.36867
263 1 -1.1104 3.82814 11.5971 9.47565
253 1 -1.1104 6.77756 6.0002 9.32197
327 1 -1.1104 12.4616 19.8395 9.53411
328 1 -1.1104 12.2476 14.3052 9.51555
316 2 2.2208 8.11598 21.2903 10.8346
30 2 2.2208 -0.360456 10.19 8.04183
324 2 2.2208 10.9706 21.3102 8.0813
266 1 -1.1104 12.2212 6.03341 6.61559
248 1 -1.1104 6.72353 6.14476 11.9891
245 1 -1.1104 6.73389 8.7485 9.29812
243 1 -1.1104 6.76933 8.8121 12.0794
254 1 -1.1104 6.62422 11.577 9.39368
90 1 -1.1104 12.26 11.6047 6.68049
269 1 -1.1104 9.44358 5.95058 6.62433
235 1 -1.1104 6.74411 8.80161 6.62488
249 1 -1.1104 6.52561 11.6386 12.2342
264 1 -1.1104 9.51005 11.6249 9.48044
268 1 -1.1104 9.54651 5.99729 9.43112
270 1 -1.1104 9.46778 11.6335 12.29
271 1 -1.1104 9.51235 6.04339 12.2448
272 2 2.2208 8.09554 10.1832 10.7734
273 1 -1.1104 9.45518 8.80464 9.48236
274 2 2.2208 8.07443 13.0226 8.01563
275 2 2.2208 8.14278 7.35614 8.03911
276 2 2.2208 10.7979 7.45566 10.8184
277 2 2.2208 10.8364 12.9882 10.8699
278 1 -1.1104 12.302 8.82798 12.234
279 1 -1.1104 12.1884 8.64347 9.39737
280 1 -1.1104 12.177 6.09793 12.2345
281 1 -1.1104 12.2319 11.602 12.2552
282 2 2.2208 10.8957 10.1927 7.98114
283 1 -1.1104 12.3542 5.91033 9.4016
284 1 -1.1104 12.3032 11.5119 9.46129
285 1 -1.1104 9.55735 8.78094 12.228
350 2 2.2208 10.8153 4.66479 13.6108
289 1 -1.1104 6.69848 17.1567 9.47786
135 2 2.2208 -0.246082 15.8224 2.45148
326 1 -1.1104 12.2568 17.1872 12.2248
330 1 -1.1104 12.2954 14.3987 12.3434
108 1 -1.1104 0.998344 14.3464 6.5738
302 1 -1.1104 1.2748 19.8567 6.5841
112 1 -1.1104 6.63255 19.9423 6.62424
288 1 -1.1104 6.76275 19.876 9.57419
117 1 -1.1104 1.07569 17.1956 6.70049
126 1 -1.1104 3.89275 19.968 6.61603
298 1 -1.1104 1.03725 19.9795 12.2082
308 1 -1.1104 3.74993 17.1802 12.1766
303 2 2.2208 2.61368 18.4833 8.071
307 1 -1.1104 1.04356 17.253 12.276
309 2 2.2208 2.52591 21.3595 10.878
301 1 -1.1104 3.94708 19.7826 9.47216
300 2 2.2208 5.30442 18.4851 10.98
310 2 2.2208 2.48253 15.7775 10.8468
299 1 -1.1104 1.08231 14.3544 12.2372
305 1 -1.1104 3.80376 14.371 9.43081
304 1 -1.1104 3.95135 17.1397 9.4998
286 1 -1.1104 3.91871 19.9732 12.1926
287 1 -1.1104 3.80597 14.3447 12.2471
291 1 -1.1104 1.1844 19.9266 9.45689
292 1 -1.1104 1.08437 17.1036 9.38641
293 2 2.2208 5.32756 21.2872 8.08993
294 1 -1.1104 1.0586 14.3983 9.31491
295 2 2.2208 5.22766 15.7531 8.01555
306 1 -1.1104 6.59548 17.2105 12.3514
353 2 2.2208 2.49277 12.9624 13.6524
143 1 -1.1104 12.252 14.4238 6.65826
323 1 -1.1104 12.1596 17.0483 9.49376
331 2 2.2208 10.9826 18.5719 10.9196
319 1 -1.1104 9.40599 14.4208 9.45846
322 1 -1.1104 9.42097 14.3727 12.2585
297 1 -1.1104 6.60047 14.4017 12.2249
137 2 2.2208 -0.283261 18.5999 5.2623
232 2 2.2208 13.6972 10.1762 5.20995
50 2 2.2208 13.7215 -0.891237 5.20684
82 2 2.2208 -0.342606 10.0719 2.45734
233 2 2.2208 13.6916 4.63504 5.30496
376 2 2.2208 13.6446 12.9779 13.6563
230 2 2.2208 13.6751 -0.963699 10.7926
28 2 2.2208 13.73 21.3029 10.9297
338 2 2.2208 5.21945 -1.08598 13.6183
355 2 2.2208 10.918 10.2032 13.6129
9012 2 2.2208 5.30637 -3.87722 -0.354829
343 2 2.2208 8.09655 1.76511 13.6029
358 2 2.2208 5.41211 21.3819 13.72
341 2 2.2208 5.25475 4.51244 13.6269
385 2 2.2208 8.03764 10.0561 -0.402812
336 2 2.2208 13.6758 7.4005 13.6204
349 2 2.2208 8.05331 21.3144 -0.32178
366 2 2.2208 2.44282 4.5006 -0.475929
374 2 2.2208 5.26294 18.6018 -0.357954
379 2 2.2208 5.25625 7.30779 -0.35917
386 2 2.2208 10.8858 12.8705 -0.4187
388 2 2.2208 5.33798 1.73524 16.4259
389 1 -1.1104 1.06468 -2.36205 17.9105
390 1 -1.1104 1.13657 3.09406 17.7965
393 1 -1.1104 1.09555 -2.42571 15.0484
395 1 -1.1104 1.21632 3.0202 14.9831
401 1 -1.1104 1.1896 0.382452 17.7309
403 2 2.2208 5.24718 -0.921954 19.286
404 2 2.2208 5.39443 4.47536 19.1851
405 1 -1.1104 1.13163 0.338043 14.9674
409 1 -1.1104 3.83636 -2.42284 17.794
410 1 -1.1104 3.97372 3.10451 17.7585
411 2 2.2208 2.46909 1.6605 19.1878
412 1 -1.1104 3.83351 -2.36631 14.9786
414 1 -1.1104 3.93469 3.12816 14.9621
416 2 2.2208 2.51376 -1.06567 16.3999
417 2 2.2208 2.54297 4.51984 16.4592
418 1 -1.1104 3.97471 0.377985 17.742
419 1 -1.1104 3.86662 0.334535 14.9925
425 2 2.2208 -0.360135 -1.02654 19.2028
9129 2 2.2208 10.9081 -3.76181 16.3933
427 2 2.2208 -0.322454 4.49998 19.2867
392 1 -1.1104 6.82058 3.0371 17.731
397 1 -1.1104 6.56295 -2.49548 14.9244
624 2 2.2208 -0.327866 -1.04979 24.86
524 1 -1.1104 12.3396 17.1045 23.4122
712 1 -1.1104 6.75277 14.3917 26.2451
420 1 -1.1104 3.8765 0.353011 20.6105
406 1 -1.1104 1.04304 0.35472 20.5733
415 1 -1.1104 3.83273 3.17582 20.5501
396 1 -1.1104 0.999958 3.10902 20.5983
456 2 2.2208 -0.329688 18.5321 16.3529
622 2 2.2208 -0.308165 10.0821 19.1855
461 2 2.2208 13.638 21.351 22.1152
399 1 -1.1104 6.61234 3.17554 14.9681
402 1 -1.1104 6.85278 0.314213 17.9203
391 1 -1.1104 6.6943 -2.42266 17.6967
407 1 -1.1104 6.70426 0.383755 15.0564
431 2 2.2208 11.0152 1.80163 16.5204
432 1 -1.1104 12.3028 -2.42135 17.7356
433 1 -1.1104 12.3709 3.18773 17.9581
434 1 -1.1104 12.2809 -2.41946 14.9774
436 1 -1.1104 12.2638 3.28555 15.0285
438 1 -1.1104 12.254 0.392084 17.8786
439 2 2.2208 10.8654 -1.07544 19.1486
440 2 2.2208 10.8663 4.5993 19.2381
441 1 -1.1104 12.2164 0.401224 15.0395
443 1 -1.1104 9.47082 -2.43061 17.861
444 1 -1.1104 9.57786 3.20129 17.796
445 2 2.2208 8.08634 1.76137 19.1994
446 1 -1.1104 9.36059 -2.38418 14.9303
448 1 -1.1104 9.42932 3.21682 15.011
450 2 2.2208 8.12603 -0.976914 16.3525
451 2 2.2208 8.02572 4.54552 16.3386
452 1 -1.1104 9.46926 0.352222 17.8253
453 1 -1.1104 9.51877 0.354742 14.9531
463 1 -1.1104 12.4059 14.3173 23.3631
447 1 -1.1104 9.51101 -2.42449 20.6377
398 1 -1.1104 6.71163 -2.36301 20.6775
684 2 2.2208 -0.261405 10.1204 24.8093
464 2 2.2208 5.29735 7.26719 16.3366
465 2 2.2208 5.29028 12.9443 16.4255
466 1 -1.1104 1.13162 8.6747 17.845
468 1 -1.1104 1.10839 8.72444 15.1145
472 1 -1.1104 1.08521 5.90857 17.8939
473 1 -1.1104 1.08125 11.4695 17.7303
476 2 2.2208 5.29347 10.1536 19.283
477 1 -1.1104 1.14372 5.97186 15.0569
479 1 -1.1104 1.14462 11.4978 14.9839
485 1 -1.1104 3.97127 8.76687 17.8272
486 2 2.2208 2.55838 7.23379 19.2344
487 2 2.2208 2.45306 12.9285 19.2043
488 1 -1.1104 4.00129 8.71949 14.8674
490 2 2.2208 2.54743 10.1805 16.4265
491 1 -1.1104 3.93208 6.01473 17.7553
492 1 -1.1104 3.81896 11.5853 17.8335
493 1 -1.1104 3.87896 5.98438 15.0253
495 1 -1.1104 3.89753 11.6016 14.9861
481 1 -1.1104 6.71141 5.92532 14.8758
478 1 -1.1104 1.15929 5.88592 20.6265
467 1 -1.1104 6.72157 8.66248 17.6749
483 1 -1.1104 6.6858 11.5431 15.0166
470 1 -1.1104 6.64011 8.7248 14.8823
474 1 -1.1104 6.68565 5.82 17.773
496 1 -1.1104 3.96083 11.5648 20.6365
489 1 -1.1104 4.01774 8.71499 20.6183
471 1 -1.1104 6.73614 8.7213 20.5571
623 2 2.2208 -0.400422 18.5122 21.9955
455 2 2.2208 13.7398 18.5894 24.7955
475 1 -1.1104 6.7079 11.551 17.8941
525 2 2.2208 10.9469 15.6798 24.7342
500 2 2.2208 10.8405 7.3622 16.3605
501 2 2.2208 10.8937 12.8949 16.4054
502 1 -1.1104 12.2484 8.74853 17.7358
503 1 -1.1104 12.3557 8.75225 15.0734
505 1 -1.1104 12.2462 5.92222 17.7052
506 1 -1.1104 12.3985 11.4606 17.8917
507 2 2.2208 10.9139 10.0894 19.1996
508 1 -1.1104 12.271 6.01568 14.8931
510 1 -1.1104 12.3049 11.5125 15.0103
512 1 -1.1104 9.54551 8.77825 17.7769
513 2 2.2208 8.20187 7.36841 19.1798
514 2 2.2208 8.17731 12.9485 19.2108
515 1 -1.1104 9.59815 8.81377 14.9666
517 2 2.2208 8.07018 10.0946 16.3797
518 1 -1.1104 9.3522 5.9105 17.7795
519 1 -1.1104 9.56496 11.4939 17.8041
520 1 -1.1104 9.39089 6.04174 15.0268
522 1 -1.1104 9.4184 11.5146 15.0181
9090 2 2.2208 10.9639 -3.83266 22.0283
484 1 -1.1104 6.73323 11.5959 20.683
521 1 -1.1104 9.55315 5.86749 20.6305
516 1 -1.1104 9.47038 8.79936 20.5714
523 1 -1.1104 9.49581 11.5021 20.6428
511 1 -1.1104 12.3592 11.5964 20.6795
504 1 -1.1104 12.2851 8.78352 20.6329
561 1 -1.1104 9.51472 14.3326 23.4055
560 1 -1.1104 12.2996 17.1469 26.3031
527 2 2.2208 5.23835 18.6182 16.4377
528 1 -1.1104 1.09753 14.3907 17.8574
529 1 -1.1104 1.00334 20.0495 17.7169
532 1 -1.1104 1.12244 14.2968 15.0178
534 1 -1.1104 1.13533 19.954 15.0799
540 1 -1.1104 1.03884 17.2334 17.8161
542 2 2.2208 5.29876 15.8303 19.3147
543 2 2.2208 5.2266 21.346 19.174
544 1 -1.1104 1.02515 17.1199 15.0086
548 1 -1.1104 3.93829 14.3302 17.8679
549 1 -1.1104 3.73508 19.9655 17.808
550 2 2.2208 2.37568 18.5666 19.1353
551 1 -1.1104 3.7973 14.3887 15.0591
553 1 -1.1104 3.97761 19.9811 15.1181
555 2 2.2208 2.48301 15.764 16.445
556 2 2.2208 2.39694 21.3987 16.4086
557 1 -1.1104 3.84487 17.1615 17.8628
558 1 -1.1104 3.88901 17.2195 15.0563
546 1 -1.1104 6.63174 17.1714 15.0945
538 1 -1.1104 6.78578 19.9828 15.0174
530 1 -1.1104 6.63258 14.3199 17.7091
531 1 -1.1104 6.62483 19.9558 17.8414
535 1 -1.1104 1.02828 20.0181 20.5528
559 1 -1.1104 3.81406 17.2117 20.6794
552 1 -1.1104 3.92432 14.349 20.6869
498 1 -1.1104 12.3311 14.287 26.2016
625 2 2.2208 -0.311094 1.69988 21.9728
569 1 -1.1104 12.3236 19.9393 20.6994
581 1 -1.1104 9.53673 19.8821 20.6038
645 2 2.2208 -0.384551 21.4275 24.8162
574 1 -1.1104 12.196 17.116 20.6468
541 1 -1.1104 6.67917 17.2421 17.9036
536 1 -1.1104 6.60704 14.4411 15.0126
563 2 2.2208 10.9051 18.5064 16.4122
564 1 -1.1104 12.2777 14.3449 17.9095
565 1 -1.1104 12.2295 19.8542 17.8629
566 1 -1.1104 12.3033 14.4259 15.079
568 1 -1.1104 12.3392 19.9413 15.0232
570 1 -1.1104 12.2527 17.0767 17.9085
571 2 2.2208 10.8801 15.7046 19.2889
572 2 2.2208 10.8474 21.2693 19.2335
573 1 -1.1104 12.3494 17.1517 15.0162
575 1 -1.1104 9.45158 14.308 17.6607
576 1 -1.1104 9.4422 19.9314 17.8199
577 2 2.2208 8.07418 18.4935 19.2771
578 1 -1.1104 9.48952 14.3157 14.9466
580 1 -1.1104 9.51826 19.897 15.0937
582 2 2.2208 8.13352 15.7544 16.3593
583 2 2.2208 8.11872 21.3517 16.5263
584 1 -1.1104 9.43113 17.1461 17.7929
585 1 -1.1104 9.5469 17.1484 15.0048
579 1 -1.1104 9.56429 14.3813 20.6751
620 1 -1.1104 9.45725 17.0566 26.1639
537 1 -1.1104 6.71565 14.4013 20.5443
9089 2 2.2208 8.22861 -3.88928 24.8509
400 1 -1.1104 6.68396 3.10468 20.5688
459 2 2.2208 13.7115 -1.08113 16.393
590 1 -1.1104 9.41086 19.8558 26.2984
457 2 2.2208 -0.374817 15.7454 19.2396
394 1 -1.1104 1.10683 -2.54408 20.5309
413 1 -1.1104 4.01713 -2.36774 20.6248
591 2 2.2208 5.33079 1.72161 22.0209
592 1 -1.1104 1.11583 -2.48207 23.2972
593 1 -1.1104 1.07027 3.06011 23.3501
596 1 -1.1104 1.13144 -2.38662 26.1141
597 1 -1.1104 1.07039 3.08634 26.076
600 1 -1.1104 1.05507 0.329642 23.3892
602 2 2.2208 5.36122 -1.05846 24.8099
603 2 2.2208 5.28794 4.50328 24.8229
604 1 -1.1104 1.16232 0.379962 26.2242
606 1 -1.1104 3.87766 -2.34581 23.4771
607 1 -1.1104 3.85733 3.11452 23.3783
608 2 2.2208 2.4739 1.73213 24.6969
609 1 -1.1104 3.89671 -2.478 26.2319
610 1 -1.1104 3.92106 3.08892 26.1734
611 2 2.2208 2.4892 -1.09333 22.0125
612 2 2.2208 2.50341 4.53265 21.9563
613 1 -1.1104 3.81557 0.3665 23.2363
614 1 -1.1104 3.95646 0.302188 26.0898
348 2 2.2208 10.9254 18.4838 27.5783
619 2 2.2208 13.7031 15.7633 16.3718
364 2 2.2208 5.27871 1.68665 27.6288
380 2 2.2208 2.46874 10.145 27.696
384 2 2.2208 10.8707 7.33479 27.6209
598 1 -1.1104 6.737 -2.48507 26.3617
442 1 -1.1104 12.4405 0.263426 20.5403
437 1 -1.1104 12.3144 3.18101 20.672
605 1 -1.1104 6.67813 0.32086 26.2524
595 1 -1.1104 6.7228 3.05371 23.4363
435 1 -1.1104 12.2346 -2.49286 20.5225
408 1 -1.1104 6.60906 0.42377 20.6805
449 1 -1.1104 9.41557 3.0921 20.5707
601 1 -1.1104 6.68352 0.326301 23.459
594 1 -1.1104 6.75259 -2.50487 23.4665
454 1 -1.1104 9.49613 0.329602 20.6124
599 1 -1.1104 6.70652 3.09065 26.274
627 2 2.2208 10.9614 1.67978 21.9624
628 1 -1.1104 12.3897 -2.49897 23.3899
629 1 -1.1104 12.2724 3.04361 23.3893
630 1 -1.1104 12.3752 -2.43279 26.2258
631 1 -1.1104 12.3082 3.14039 26.2017
632 1 -1.1104 12.3663 0.292816 23.4424
633 2 2.2208 11.0033 -1.06935 24.8428
634 2 2.2208 10.9236 4.58148 24.8146
635 1 -1.1104 12.2483 0.403777 26.2387
636 1 -1.1104 9.56952 -2.3719 23.3936
637 1 -1.1104 9.44497 3.17295 23.3915
638 2 2.2208 8.1279 1.73112 24.9004
639 1 -1.1104 9.54278 -2.41373 26.1435
640 1 -1.1104 9.60911 3.1992 26.2158
641 2 2.2208 8.17109 -0.941227 22.0801
642 2 2.2208 8.0781 4.4226 22.0131
643 1 -1.1104 9.59126 0.440745 23.4079
644 1 -1.1104 9.4622 0.353083 26.2516
372 2 2.2208 8.11815 4.6557 27.6009
708 2 2.2208 13.7902 12.9192 24.803
469 1 -1.1104 1.07592 8.69458 20.6504
616 2 2.2208 7.97936 21.2833 22.065
494 1 -1.1104 3.96869 5.94369 20.5954
480 1 -1.1104 1.11555 11.4903 20.555
656 2 2.2208 5.40143 7.34019 21.987
657 2 2.2208 5.2514 12.921 22.0812
658 1 -1.1104 1.20819 8.61381 23.4393
660 1 -1.1104 1.23663 8.72003 26.252
662 1 -1.1104 1.00552 5.84594 23.3783
663 1 -1.1104 1.21525 11.5523 23.3843
666 2 2.2208 5.23651 10.0917 24.7752
667 1 -1.1104 1.09052 5.93967 26.15
668 1 -1.1104 1.11579 11.553 26.1632
671 1 -1.1104 4.03532 8.6409 23.3782
672 2 2.2208 2.48409 7.26491 24.7672
673 2 2.2208 2.52266 12.8283 24.8637
674 1 -1.1104 3.93247 8.68536 26.169
675 2 2.2208 2.59711 10.0498 22.051
676 1 -1.1104 3.95786 5.94529 23.3871
677 1 -1.1104 3.91146 11.4769 23.4653
678 1 -1.1104 3.83262 5.89588 26.1637
679 1 -1.1104 3.90816 11.4282 26.2715
664 1 -1.1104 6.76567 5.83913 23.4057
482 1 -1.1104 6.75438 5.9955 20.5063
661 1 -1.1104 6.72409 8.62404 26.1826
659 1 -1.1104 6.78761 8.71648 23.2838
369 2 2.2208 10.9963 1.76151 27.661
383 2 2.2208 -0.283462 7.29357 27.599
615 2 2.2208 8.02404 15.7729 22.0652
669 1 -1.1104 6.58901 5.93157 26.182
670 1 -1.1104 6.69543 11.4953 26.167
665 1 -1.1104 6.73911 11.5633 23.4045
509 1 -1.1104 12.2818 5.95069 20.6403
687 1 -1.1104 9.42713 11.4116 26.2197
688 1 -1.1104 9.43688 5.99909 26.1359
689 1 -1.1104 9.49287 11.5582 23.449
690 1 -1.1104 9.65561 5.95254 23.4066
691 2 2.2208 8.12927 10.1627 22.0451
692 1 -1.1104 9.53202 8.69737 26.2276
693 2 2.2208 8.12525 12.8954 24.843
694 2 2.2208 8.18249 7.27532 24.7268
695 2 2.2208 10.9638 7.39699 22.0832
696 2 2.2208 10.8504 12.9234 21.9766
697 1 -1.1104 12.3116 8.68792 23.4443
698 1 -1.1104 12.4106 8.67263 26.2562
699 1 -1.1104 12.3172 5.80988 23.5494
700 1 -1.1104 12.2594 11.5155 23.431
701 2 2.2208 10.964 10.0651 24.8038
702 1 -1.1104 12.2862 6.0226 26.2001
703 1 -1.1104 12.3182 11.4843 26.1971
704 1 -1.1104 9.58578 8.71936 23.3234
618 2 2.2208 13.626 18.449 19.2836
365 2 2.2208 2.54869 -0.97797 27.5807
430 2 2.2208 13.7064 15.7446 22.0037
562 1 -1.1104 9.54565 19.9247 23.5226
718 1 -1.1104 6.72754 19.9555 23.3861
545 1 -1.1104 1.03574 17.1112 20.5785
533 1 -1.1104 1.17194 14.3776 20.6077
554 1 -1.1104 3.92391 19.9961 20.6164
647 2 2.2208 2.45919 15.7662 22.0175
649 2 2.2208 2.38591 21.3342 21.998
652 1 -1.1104 3.86048 17.1192 23.378
655 1 -1.1104 1.09038 17.1614 23.4328
681 1 -1.1104 3.96022 14.2145 26.2651
682 1 -1.1104 3.88811 17.1355 26.2379
683 2 2.2208 2.51942 18.5741 24.8221
686 1 -1.1104 3.96998 20.0003 26.2426
705 2 2.2208 5.2332 18.5493 22.0038
706 1 -1.1104 1.13253 14.3299 23.4771
707 1 -1.1104 1.07088 19.9358 23.4214
711 1 -1.1104 3.78182 19.9766 23.4529
713 1 -1.1104 3.95129 14.3014 23.4033
715 1 -1.1104 1.11811 20.0562 26.1966
716 1 -1.1104 1.09106 17.1037 26.2286
717 1 -1.1104 1.2135 14.2809 26.166
719 2 2.2208 5.19261 21.4098 24.8288
720 2 2.2208 5.28671 15.6926 24.7843
680 1 -1.1104 6.72469 17.1344 23.3582
714 1 -1.1104 6.55717 17.1356 26.1637
547 1 -1.1104 6.6652 17.2323 20.6744
539 1 -1.1104 6.71783 19.9771 20.5901
621 2 2.2208 -0.336229 7.34826 16.4888
421 2 2.2208 -0.350417 7.37442 22.0055
587 2 2.2208 8.10751 18.5265 24.7427
526 2 2.2208 10.8639 21.3276 24.8305
567 1 -1.1104 12.3472 14.2991 20.6057
588 1 -1.1104 6.72938 19.9724 26.1242
499 1 -1.1104 12.2767 19.9294 26.1943
586 1 -1.1104 9.41934 17.1086 20.5817
617 1 -1.1104 9.55222 17.1606 23.3696
497 1 -1.1104 12.2611 19.9454 23.527
462 2 2.2208 10.885 18.6028 21.9928
589 1 -1.1104 9.50878 14.4003 26.093
709 1 -1.1104 6.72299 14.4146 23.3624
626 2 2.2208 -0.33163 4.55933 24.8321
373 2 2.2208 2.5515 15.637 27.5552
370 2 2.2208 8.15231 -1.01917 27.6654
375 2 2.2208 2.51425 21.4534 27.5962
381 2 2.2208 5.33571 12.8572 27.5878
347 2 2.2208 8.11626 15.7247 27.5221
352 2 2.2208 5.26138 10.1206 13.5363
9008 2 2.2208 10.9359 -3.78619 27.6904
346 2 2.2208 10.9441 -0.940432 13.5859
357 2 2.2208 2.47891 18.5894 13.7012
382 2 2.2208 -0.215033 12.9537 27.5785
335 2 2.2208 -0.380477 21.3286 13.5819
377 2 2.2208 13.7866 -1.04686 27.6664
721 2 2.2208 5.34853 24.0171 5.41415
722 2 2.2208 5.28512 29.7263 5.29292
723 1 -1.1104 1.19195 25.5199 1.13083
724 1 -1.1104 1.14332 25.4977 3.88669
725 1 -1.1104 1.08728 22.8041 0.997594
726 1 -1.1104 1.09572 28.3262 0.993058
727 2 2.2208 5.30536 26.8936 2.4592
728 1 -1.1104 1.2186 22.6483 3.81747
729 1 -1.1104 1.16841 28.2447 3.75171
730 1 -1.1104 4.03032 25.5514 1.0654
731 2 2.2208 2.60001 24.1653 2.54261
732 2 2.2208 2.48967 29.7371 2.37814
733 1 -1.1104 3.99715 25.533 3.86743
734 2 2.2208 2.53666 26.8373 5.24711
735 1 -1.1104 3.83219 22.8039 1.10004
736 1 -1.1104 3.89435 28.3004 1.07053
737 1 -1.1104 3.93959 22.7009 3.96504
738 1 -1.1104 3.86048 28.2786 3.79547
744 1 -1.1104 6.63468 22.6654 1.12168
742 1 -1.1104 6.70125 25.4757 1.11239
747 1 -1.1104 6.72821 28.299 3.84161
867 1 -1.1104 6.63977 28.2711 6.71413
865 1 -1.1104 1.2002 28.3124 6.55236
862 1 -1.1104 1.22457 25.4206 6.72757
868 1 -1.1104 3.9164 25.4617 6.63397
864 1 -1.1104 1.11115 22.6813 6.65509
1006 2 2.2208 -0.318429 40.8838 10.8109
745 1 -1.1104 6.61306 28.3176 1.02295
746 1 -1.1104 6.68763 22.6678 3.93207
743 1 -1.1104 6.66499 25.4844 3.95402
748 2 2.2208 10.7705 24.1029 5.35762
749 2 2.2208 10.9057 29.7697 5.23934
750 1 -1.1104 12.2492 25.445 1.13935
751 1 -1.1104 12.2699 25.5487 3.93364
752 1 -1.1104 12.197 22.7343 1.12378
753 1 -1.1104 12.2377 28.3286 1.08703
754 2 2.2208 10.9259 26.9984 2.45485
755 1 -1.1104 12.2342 22.6981 3.91922
756 1 -1.1104 12.2467 28.4144 3.91883
757 1 -1.1104 9.46727 25.6469 1.06472
758 2 2.2208 8.13945 24.0545 2.58156
759 2 2.2208 8.05798 29.7886 2.48769
760 1 -1.1104 9.50104 25.4628 3.94818
761 2 2.2208 8.05162 26.9169 5.37791
762 1 -1.1104 9.4152 22.6913 1.10878
763 1 -1.1104 9.53291 28.4369 1.01298
764 1 -1.1104 9.35135 22.6852 3.97163
765 1 -1.1104 9.43078 28.2782 3.87506
900 1 -1.1104 9.4544 28.3502 6.70777
1039 2 2.2208 -0.368693 29.7025 10.8719
1021 1 -1.1104 12.3099 39.5676 6.69299
866 1 -1.1104 6.69079 22.7295 6.79191
769 2 2.2208 5.25839 35.2867 5.27828
770 1 -1.1104 1.11667 31.1433 1.05906
771 1 -1.1104 1.11467 36.6687 1.02687
773 1 -1.1104 1.05978 31.1424 3.76096
774 1 -1.1104 1.0975 36.6696 3.80766
776 1 -1.1104 1.04973 34.0029 1.17731
777 2 2.2208 5.18172 32.567 2.51787
778 2 2.2208 5.24757 38.1215 2.48625
779 1 -1.1104 0.957721 33.8751 3.89503
781 1 -1.1104 3.93196 31.1539 1.05143
782 1 -1.1104 3.94941 36.6734 1.08615
783 2 2.2208 2.4777 35.3452 2.54761
784 1 -1.1104 3.78088 31.0416 3.80643
785 1 -1.1104 3.85778 36.7353 3.89965
786 2 2.2208 2.43608 32.456 5.24329
787 2 2.2208 2.45639 38.2045 5.27211
788 1 -1.1104 3.83476 33.9396 1.1483
789 1 -1.1104 3.79127 33.8126 3.98435
780 1 -1.1104 6.60348 33.8525 3.88937
775 1 -1.1104 6.60933 36.6668 3.88023
921 1 -1.1104 6.67739 31.0779 6.61536
772 1 -1.1104 6.73117 36.6729 1.12478
1016 1 -1.1104 12.4654 45.0728 9.60087
919 1 -1.1104 1.05282 31.0202 6.62636
922 1 -1.1104 6.69672 36.6796 6.67291
1092 2 2.2208 -0.341718 40.8518 -0.304205
1078 2 2.2208 2.39792 38.0793 -0.268251
1045 2 2.2208 2.48226 24.1359 13.6848
1031 2 2.2208 13.6875 38.0994 5.41211
793 1 -1.1104 6.66141 31.1484 1.10692
794 1 -1.1104 6.65033 31.1687 3.78587
795 1 -1.1104 6.73258 33.8992 1.08494
796 2 2.2208 10.8632 35.256 5.41838
797 1 -1.1104 12.3976 31.1567 1.11834
798 1 -1.1104 12.3649 36.8085 1.08381
799 1 -1.1104 12.351 31.1333 3.97733
800 1 -1.1104 12.259 36.6215 3.86077
801 1 -1.1104 12.3303 33.8952 1.09944
802 2 2.2208 10.928 32.5121 2.44026
803 2 2.2208 10.8858 38.0799 2.55349
804 1 -1.1104 12.3249 33.9111 3.91868
805 1 -1.1104 9.4894 31.0972 1.03406
806 1 -1.1104 9.52465 36.689 1.2426
807 2 2.2208 8.07538 35.2895 2.53604
808 1 -1.1104 9.50011 31.0799 3.90962
809 1 -1.1104 9.38578 36.5935 3.99536
810 2 2.2208 8.05084 32.5728 5.31373
811 2 2.2208 8.13616 38.0779 5.40153
812 1 -1.1104 9.58832 33.8674 1.05785
813 1 -1.1104 9.47495 33.8636 3.84423
1084 2 2.2208 8.03174 38.1232 -0.226095
1613 1 -1.1104 6.74729 47.8598 12.4167
956 1 -1.1104 9.38359 31.1442 6.74147
767 2 2.2208 13.6588 29.7464 2.55902