LAMMPS data file via write_data, version 29 Oct 2020, timestep = 100105

17700 atoms
3 atom types

-0.3981568489597512 27.738156848960248 xlo xhi
-4.795695119593741 332.87569511959396 ylo yhi
-0.39118289018495744 27.731182890184474 zlo zhi

Masses

1 15.9994
2 232.0381
3 131.293

Atoms # full

1 0 2 2.2208 5.389346556452436 0.5962611871006018 5.305050903726861 0 0 0
2 0 1 -1.1104 1.210814518827692 -3.2191915940336653 0.9951631296565578 0 0 0
6 0 1 -1.1104 1.2425553886434515 -3.375739933571383 3.685675217014535 0 0 0
10 0 1 -1.1104 1.1449199364719826 -0.372493222984012 1.0615146551433448 0 0 0
12 0 2 2.2208 5.471383620865902 -2.2102213607784353 2.5243937695161223 0 0 0
14 0 1 -1.1104 1.3180717754447515 -0.6844127672576938 4.021623541845289 0 0 0
16 0 1 -1.1104 4.0592754401021995 -3.4798900878939967 1.1259220152538747 0 0 0
18 0 2 2.2208 2.6059521570539514 0.630965260481209 2.5381922288151695 0 0 0
19 0 1 -1.1104 4.017117125218256 -3.50881425687153 4.032408252885649 0 0 0
21 0 2 2.2208 2.5945030758413745 -2.055039336985189 5.350528265537267 0 0 0
23 0 1 -1.1104 3.923448787914885 -0.7179120929135465 1.2976645197479255 0 0 0
24 0 1 -1.1104 4.041223914772258 -0.664015528059153 4.020617763901243 0 0 0
3 0 1 -1.1104 1.1140737441487305 2.3406782333274503 1.1921309346297515 0 0 0
7 0 1 -1.1104 1.019119705701011 2.204871403633827 4.065156969786285 0 0 0
17 0 1 -1.1104 4.064228721963144 2.0786982788018045 1.294750992572245 0 0 0
20 0 1 -1.1104 3.809772404538846 2.0976094931907507 3.9607939351578727 0 0 0
13 0 2 2.2208 5.348462364895591 3.58394608445267 2.6609600595328633 0 0 0
22 0 2 2.2208 2.4247327684362228 3.3981107928671586 5.327132394273069 0 0 0
9149 0 2 2.2208 -0.38360519686939865 3.588458321985358 2.6405392640602385 0 0 0
25 0 2 2.2208 -0.11987819920994333 -1.8973154695845307 2.4340231659712894 0 0 0
30 0 2 2.2208 -0.2680969804686102 -4.774855846368408 5.398470708460863 0 0 0
26 0 2 2.2208 -0.24150695765581398 0.7165893370002616 5.400984756964448 0 0 0
231 0 2 2.2208 8.160171787252239 -4.7448989604625025 8.085822524782342 0 0 0
342 0 2 2.2208 2.5530498519470046 -1.9809249150589923 -0.12306920774195344 0 0 0
169 0 1 -1.1104 6.84577237222884 2.1503780750380495 6.685717220085678 0 0 0
343 0 2 2.2208 2.6032444024180457 3.571377981370003 -0.2358125069453496 0 0 0
8 0 1 -1.1104 6.811608052202683 -3.542837753051637 3.848943098050699 0 0 0
15 0 1 -1.1104 6.723383963463961 -0.7294881413007832 3.941540503177796 0 0 0
11 0 1 -1.1104 6.8212783984941705 -0.7931627868915538 1.018230679920514 0 0 0
5 0 1 -1.1104 6.979945191584714 2.0715384426604357 1.0321679318257044 0 0 0
4 0 1 -1.1104 6.791872678500833 -3.5234495682352 1.0376525198945632 0 0 0
9 0 1 -1.1104 6.59937724277674 1.984724490919445 3.9692871497780335 0 0 0
31 0 2 2.2208 10.87717209437823 0.6703220680409008 5.2495208099006 0 0 0
32 0 1 -1.1104 12.34876034546889 -3.23971271106834 1.0615720811268572 0 0 0
34 0 1 -1.1104 12.372816621822745 -3.408047299028311 3.9744674658925074 0 0 0
36 0 1 -1.1104 12.32996778163574 -0.6127884123011264 1.127383922510911 0 0 0
37 0 2 2.2208 10.885845683218317 -2.065279327811389 2.3686930909152544 0 0 0
39 0 1 -1.1104 12.197047608730783 -0.7507031939077512 3.9265738611957968 0 0 0
40 0 1 -1.1104 9.583096864071305 -3.491138674456569 0.9374677261415989 0 0 0
42 0 2 2.2208 8.195651390029692 0.8232101603152462 2.443370544213022 0 0 0
43 0 1 -1.1104 9.64454271686786 -3.4331357567044694 3.693354512999101 0 0 0
45 0 2 2.2208 8.022547539441954 -2.079793258803091 5.287460891262801 0 0 0
47 0 1 -1.1104 9.459878790132391 -0.7489857675798137 0.9881878648202596 0 0 0
48 0 1 -1.1104 9.38667956175008 -0.6958652916180252 3.816416656007806 0 0 0
33 0 1 -1.1104 12.494461492056532 2.0793671492256824 1.1327450862553725 0 0 0
35 0 1 -1.1104 12.51328078498304 1.9818612820969812 3.825369547354953 0 0 0
41 0 1 -1.1104 9.669299148387363 1.981843700885 1.2264437780667994 0 0 0
44 0 1 -1.1104 9.505338785442937 2.255517774139603 4.017938773556681 0 0 0
38 0 2 2.2208 11.03888713532257 3.504024387735391 2.6437385863784844 0 0 0
46 0 2 2.2208 8.059751292344075 3.4869479932403555 5.313411408043148 0 0 0
338 0 2 2.2208 10.986149999941217 14.688762746455428 13.616117563108748 0 0 0
8850 0 2 2.2208 13.653187382683972 3.510461068191588 5.326696359878807 0 0 0
348 0 2 2.2208 8.247159779779977 3.542713214148904 -0.24323193203934929 0 0 0
208 0 1 -1.1104 9.442637669980096 -3.4147871204967872 6.635494518615435 0 0 0
210 0 1 -1.1104 9.307165082967401 -0.5977912592025042 6.4883839716963205 0 0 0
205 0 1 -1.1104 12.386287587309269 -3.4081033283246045 6.784561159043981 0 0 0
346 0 2 2.2208 10.983302160435928 0.6541537804412695 -0.22001219171592434 0 0 0
352 0 2 2.2208 5.383436432919309 6.213043692539767 -0.3880163669042549 0 0 0
354 0 2 2.2208 5.445502321687728 12.002473694791508 -0.19454339980656826 0 0 0
54 0 2 2.2208 5.319915133085058 6.301560437061385 5.467887325092649 0 0 0
56 0 1 -1.1104 1.26619747560643 7.874920182681859 1.1944657376597125 0 0 0
58 0 1 -1.1104 1.121068749650595 7.938530069965721 4.089269304313889 0 0 0
60 0 1 -1.1104 1.1597757771757082 5.147001116582071 1.0988626430046444 0 0 0
67 0 1 -1.1104 1.2666667736018622 5.055387192305753 4.0811033182664875 0 0 0
71 0 1 -1.1104 4.046467177805526 7.780463131658924 1.1538231914090427 0 0 0
72 0 2 2.2208 2.59391398470548 6.286687456649426 2.6413812380285466 0 0 0
74 0 1 -1.1104 4.125005972006797 7.76146841789319 4.055332969431729 0 0 0
76 0 1 -1.1104 3.978664929024876 4.977185417628861 1.130532211464579 0 0 0
79 0 1 -1.1104 3.9767241986707287 4.895339558390439 3.8834274796066226 0 0 0
55 0 2 2.2208 5.411752962549678 11.940614577329734 5.436110374660666 0 0 0
61 0 1 -1.1104 1.138715327749077 10.658300015656687 1.2887214113038863 0 0 0
66 0 2 2.2208 5.4252564595170165 9.159860311947858 2.4213419547913864 0 0 0
68 0 1 -1.1104 1.4440414972445081 10.841422148354516 4.199038113931694 0 0 0
73 0 2 2.2208 2.7523433035564318 12.090316641544689 2.7231637841482375 0 0 0
75 0 2 2.2208 2.7108650820533744 9.115755977529345 5.466753140722204 0 0 0
77 0 1 -1.1104 3.9567878316917175 10.593010329371454 1.239424059292209 0 0 0
80 0 1 -1.1104 4.087323321294726 10.687162995288894 3.990001186974092 0 0 0
353 0 2 2.2208 2.569605495838372 9.240302376994565 -0.23350128553835964 0 0 0
9152 0 2 2.2208 -0.1357316770878709 6.504417481424237 5.372695440066291 0 0 0
9153 0 2 2.2208 -0.16958404374869468 9.34146087856609 2.639613933069117 0 0 0
9154 0 2 2.2208 -0.02746775290534782 12.04095676700945 5.3983450371820565 0 0 0
9176 0 2 2.2208 -0.28392860103396494 12.144117795258728 -0.17557476621189283 0 0 0
9173 0 2 2.2208 -0.20192950623466752 6.54241909872885 -0.18459763649282018 0 0 0
64 0 1 -1.1104 6.717715908697602 10.577428275862754 0.9997729091615829 0 0 0
63 0 1 -1.1104 6.82498240945583 4.876481811328941 1.063118249634685 0 0 0
69 0 1 -1.1104 6.667858186634643 5.040301619603788 3.7511332345150175 0 0 0
70 0 1 -1.1104 6.784704577871114 10.49902802934313 3.7286908917984056 0 0 0
59 0 1 -1.1104 6.916621043570089 7.789104841324897 3.8435817881902183 0 0 0
57 0 1 -1.1104 6.775043820904492 7.836726039028138 0.994813535602429 0 0 0
84 0 2 2.2208 10.968506804825266 6.304141273161161 5.3462079126688105 0 0 0
86 0 1 -1.1104 12.465132275793422 7.931524355556257 0.9068630433336611 0 0 0
87 0 1 -1.1104 12.606850808057215 7.798256313687769 3.9452874476379804 0 0 0
88 0 1 -1.1104 12.325882866410103 5.044536868537364 1.0445100214798466 0 0 0
92 0 1 -1.1104 12.284383168508755 5.109580706741398 3.871557077105036 0 0 0
94 0 1 -1.1104 9.63175120699692 7.793602412806445 1.1244717874672445 0 0 0
95 0 2 2.2208 8.214410164655114 6.349108648255164 2.529666321982437 0 0 0
97 0 1 -1.1104 9.804307924797575 7.889641823905017 3.9959036854482815 0 0 0
99 0 1 -1.1104 9.77236453213979 4.966458876182515 1.2926097876908191 0 0 0
102 0 1 -1.1104 9.505087301116651 4.977503924463925 3.921449807512517 0 0 0
85 0 2 2.2208 10.95545225291322 11.989432014732989 5.4288641838462475 0 0 0
89 0 1 -1.1104 12.425710213088527 10.668306350261483 1.2110280859598745 0 0 0
91 0 2 2.2208 10.934168164037281 9.339643750112918 2.5644847076698003 0 0 0
93 0 1 -1.1104 12.380360331133136 10.481045201500965 3.9738016329911923 0 0 0
96 0 2 2.2208 8.155845179642741 11.95117026386741 2.4599997778753173 0 0 0
98 0 2 2.2208 8.300488876048838 9.161467783060928 5.2472959885193475 0 0 0
100 0 1 -1.1104 9.483138345366056 10.521466986551996 1.1597725470506546 0 0 0
103 0 1 -1.1104 9.524323246211756 10.735718977975216 3.9236932590300775 0 0 0
355 0 2 2.2208 11.041831346603113 6.30415711879936 -0.3254376259509038 0 0 0
65 0 1 -1.1104 6.845587401400379 10.511601836120503 6.644165706980206 0 0 0
101 0 1 -1.1104 9.719571192366823 10.653726929158816 6.800465408144353 0 0 0
105 0 1 -1.1104 12.115987692079559 16.29226698966989 12.38591608993013 0 0 0
335 0 2 2.2208 2.4330380849267343 20.6024618204731 -0.327616696100019 0 0 0
333 0 2 2.2208 2.730909563726648 14.696384898673509 -0.31864926073195876 0 0 0
9159 0 2 2.2208 -0.19968127808664865 17.534627372077583 5.397157556410495 0 0 0
9158 0 2 2.2208 -0.1026947178507695 20.423791822591582 2.678366233255572 0 0 0
334 0 2 2.2208 5.435648216470291 17.885523951905906 -0.12291598314287518 0 0 0
107 0 1 -1.1104 1.2530458280497263 13.452742811630648 1.106176035783032 0 0 0
113 0 1 -1.1104 1.4281352060074208 13.534838323497402 3.7921064155845063 0 0 0
123 0 1 -1.1104 3.906845677795574 13.455418714026155 1.1609041829879339 0 0 0
128 0 1 -1.1104 4.271579082443451 13.433831928624947 3.9493804113655435 0 0 0
106 0 2 2.2208 5.495375620378289 17.567344838836128 5.431317504979931 0 0 0
109 0 1 -1.1104 1.1310101883843995 18.93294510030537 1.3246316657395096 0 0 0
114 0 1 -1.1104 1.2679907447783052 19.05352883157621 3.8220069101231613 0 0 0
116 0 1 -1.1104 1.347636821365984 16.159915864671042 1.1185793144785328 0 0 0
119 0 2 2.2208 5.441945069964621 14.854775609053716 2.4872576573415794 0 0 0
120 0 2 2.2208 5.312427561776878 20.3604447561423 2.5319025802128095 0 0 0
121 0 1 -1.1104 1.212517049276026 16.306484114571475 4.037823931081749 0 0 0
125 0 1 -1.1104 3.9538354620240637 19.092542883141363 1.088141542370361 0 0 0
127 0 2 2.2208 2.6841926028153305 17.760592974079124 2.5445389312055604 0 0 0
129 0 1 -1.1104 4.016288965761758 19.092296558455114 3.8744483455471235 0 0 0
130 0 2 2.2208 2.6682471010602953 14.91743271452059 5.3938344312588065 0 0 0
131 0 2 2.2208 2.67820610071313 20.505465257808403 5.421113568256017 0 0 0
132 0 1 -1.1104 4.295846061291327 16.3604964816377 1.161028382147699 0 0 0
134 0 1 -1.1104 4.021260478324947 16.28202968905442 3.9704540872414924 0 0 0
9157 0 2 2.2208 -0.02365049574954494 14.84224306579238 2.613218927637679 0 0 0
9168 0 2 2.2208 -0.24402542577875838 17.548675737417998 -0.12665228910971058 0 0 0
351 0 2 2.2208 8.268879230855683 20.53680611559457 -0.22890837035264494 0 0 0
140 0 1 -1.1104 7.000782375080088 16.220398673548413 1.0073489991482683 0 0 0
138 0 1 -1.1104 6.907499136545542 19.040251565217666 1.333932424981997 0 0 0
110 0 1 -1.1104 6.735542005020319 13.570669476335297 1.031012132231787 0 0 0
313 0 2 2.2208 8.135196537218503 14.648130387579673 10.918290067895741 0 0 0
115 0 1 -1.1104 6.842385352352814 13.47982470992681 4.07710243185604 0 0 0
139 0 1 -1.1104 6.817296079769876 19.040555282233193 3.9482836183382197 0 0 0
122 0 1 -1.1104 7.027996270152173 16.200864085476496 3.8158138164745146 0 0 0
142 0 1 -1.1104 12.433521341745182 13.542505187678405 1.1909825039325355 0 0 0
146 0 1 -1.1104 12.523759347233744 13.44190980273275 4.1106542420822025 0 0 0
153 0 1 -1.1104 9.472199927305127 13.375937828174226 1.0606216984236507 0 0 0
158 0 1 -1.1104 9.745904156425473 13.464647432214868 4.057761235995261 0 0 0
141 0 2 2.2208 11.209304073295456 17.563049236451896 5.358313329739201 0 0 0
144 0 1 -1.1104 12.32711316243091 19.125876160790728 1.0048482888783494 0 0 0
147 0 1 -1.1104 12.514878069191614 19.086040736805217 3.9170324564733936 0 0 0
148 0 1 -1.1104 12.549834002277235 16.310509539231184 1.2103717131268936 0 0 0
150 0 2 2.2208 10.967647597634935 14.864438507317308 2.427127607278185 0 0 0
151 0 2 2.2208 10.818206856957179 20.515074068788543 2.5578136864154084 0 0 0
152 0 1 -1.1104 12.58864399325651 16.223441140263734 3.9880504712693705 0 0 0
155 0 1 -1.1104 9.518241551803897 19.096080715384485 1.2871612024327306 0 0 0
157 0 2 2.2208 8.237301642328063 17.567072701259633 2.5662509557972113 0 0 0
159 0 1 -1.1104 9.634379625071976 19.059934961885183 4.011804673827869 0 0 0
160 0 2 2.2208 8.293937982178464 14.71007656464031 5.367933886658365 0 0 0
161 0 2 2.2208 8.354950313950052 20.203035643828393 5.300086994280551 0 0 0
162 0 1 -1.1104 9.695105001843991 16.2610492332484 1.1428328886632795 0 0 0
164 0 1 -1.1104 9.746481957376187 16.226204968632153 3.890013840365363 0 0 0
156 0 1 -1.1104 9.650300586878771 19.02104976283292 6.7153237707331686 0 0 0
111 0 1 -1.1104 6.724761832927787 13.4340128034934 6.780190073327242 0 0 0
163 0 1 -1.1104 9.560708935342062 16.247027701163535 6.773392331378831 0 0 0
149 0 1 -1.1104 12.359864757673359 15.948375269794209 6.789432702692211 0 0 0
9161 0 2 2.2208 -0.3625498302966202 3.5824213807213465 8.263790577117623 0 0 0
316 0 2 2.2208 8.198358566713182 20.43185130639069 10.89104752862427 0 0 0
172 0 1 -1.1104 3.994131107120125 -3.6424944676532673 6.825390384272953 0 0 0
167 0 1 -1.1104 0.9756632858689338 1.8767036610009662 6.865949978080833 0 0 0
170 0 1 -1.1104 1.0831299498300155 -0.684815165122766 6.962650321569593 0 0 0
173 0 1 -1.1104 3.921301466343525 1.9308699740791364 6.684377930126201 0 0 0
174 0 1 -1.1104 4.013848088071271 -0.7319117902958551 6.834842400639633 0 0 0
166 0 1 -1.1104 1.1849329400341435 -3.364161886207922 6.578845188338504 0 0 0
175 0 2 2.2208 5.189557839655921 0.8174363717567887 11.032591807358793 0 0 0
176 0 1 -1.1104 1.05709361409856 -3.4667775950593764 12.12640400962573 0 0 0
180 0 1 -1.1104 1.1449434227127357 -3.5989746869203225 9.440984298757167 0 0 0
184 0 1 -1.1104 1.2338394378784223 -0.6396363201085115 12.435487800414244 0 0 0
186 0 2 2.2208 5.353579165562516 -2.148293117847529 8.100524666092054 0 0 0
188 0 1 -1.1104 1.2618946642235278 -0.8014651716109931 9.745353795434982 0 0 0
190 0 1 -1.1104 4.075749912334603 -3.4555819980880207 12.594920830101934 0 0 0
192 0 2 2.2208 2.548954632095264 0.55393461386292 8.253226192029388 0 0 0
193 0 1 -1.1104 3.9798204366890735 -3.400140687194881 9.800752745628886 0 0 0
195 0 2 2.2208 2.7915855842056296 -2.047970991261314 11.048216096609092 0 0 0
197 0 1 -1.1104 3.9652313837660693 -0.556453339704449 12.446448618547809 0 0 0
198 0 1 -1.1104 3.8789616667523332 -0.6115280386486347 9.638751110185511 0 0 0
177 0 1 -1.1104 1.342956237450693 1.9938125930655208 12.375016600492433 0 0 0
181 0 1 -1.1104 1.058551698853896 2.0383422754695646 9.508298854995493 0 0 0
191 0 1 -1.1104 4.014827943488086 2.3636899452940456 12.331159885201926 0 0 0
194 0 1 -1.1104 3.879390384120171 2.1015792820724926 9.437545151605875 0 0 0
196 0 2 2.2208 2.6139252467762133 3.3850732507164687 10.914930783180928 0 0 0
187 0 2 2.2208 5.282630321961585 3.433822353927515 8.223388431657005 0 0 0
201 0 2 2.2208 -0.3383210012196927 0.7753895278252334 10.999737130870013 0 0 0
200 0 2 2.2208 -0.14489448088139878 -2.0630107528033936 8.29790982073323 0 0 0
171 0 1 -1.1104 6.661248937976169 -0.6512027719742915 6.7144825089580555 0 0 0
168 0 1 -1.1104 6.6749833155127085 -3.4181349273302826 6.729449890048626 0 0 0
337 0 2 2.2208 10.967706527055032 20.64836602448025 13.664834482057698 0 0 0
189 0 1 -1.1104 6.777454712061452 -0.7627016265012563 9.618293537295251 0 0 0
206 0 1 -1.1104 12.655250923281917 1.9329343469083413 6.604004431926501 0 0 0
209 0 1 -1.1104 9.698411904105443 2.013359408579105 6.743706705920801 0 0 0
182 0 1 -1.1104 6.731000843426352 -3.3579327034702713 9.547317245912868 0 0 0
183 0 1 -1.1104 6.541329373520152 2.1671403590187177 9.62591556859258 0 0 0
185 0 1 -1.1104 6.753554982211811 -0.6363868276797449 12.437322450657984 0 0 0
207 0 1 -1.1104 12.110657365499867 -0.7862270650474263 6.676928125885013 0 0 0
179 0 1 -1.1104 6.8143266570699526 2.088820595824103 12.339372204109903 0 0 0
178 0 1 -1.1104 7.000133182821444 -3.6540159791546403 12.378388806042636 0 0 0
211 0 2 2.2208 11.092596221403314 0.7528192164314178 10.932673564951196 0 0 0
212 0 1 -1.1104 12.516297500192998 -3.471963892639442 12.581796707134385 0 0 0
214 0 1 -1.1104 12.201642253943383 -3.246432400671957 9.652227908685076 0 0 0
216 0 1 -1.1104 12.595902924914785 -0.563584658596462 12.305301061830859 0 0 0
217 0 2 2.2208 10.911816978252757 -2.0689330240928077 8.095974775345438 0 0 0
219 0 1 -1.1104 12.343337817162045 -0.5527221741179196 9.457877230590574 0 0 0
220 0 1 -1.1104 9.677533513439329 -3.652964114927453 12.289913058988821 0 0 0
222 0 2 2.2208 8.119665908892637 0.6496438818033763 8.047734041680082 0 0 0
223 0 1 -1.1104 9.435443556787396 -3.5406611021881407 9.471115486001661 0 0 0
225 0 2 2.2208 8.190355973522793 -2.0931222738864927 10.871347222520589 0 0 0
227 0 1 -1.1104 9.74241744167345 -0.7531151317047421 12.079235690184307 0 0 0
228 0 1 -1.1104 9.47002045073297 -0.5978173209050439 9.356792586154441 0 0 0
213 0 1 -1.1104 12.437996595545865 2.0927074465184754 12.321701641378755 0 0 0
215 0 1 -1.1104 12.405353901147373 2.1371638526840577 9.57787751013967 0 0 0
221 0 1 -1.1104 9.687868374678828 2.284181771991966 12.257503035045865 0 0 0
224 0 1 -1.1104 9.355838955467016 2.118333352804517 9.411881809248827 0 0 0
218 0 2 2.2208 11.011957674771871 3.3909444245998954 8.155483095617656 0 0 0
226 0 2 2.2208 8.002982967944854 3.619020263320337 10.917570730871914 0 0 0
9079 0 2 2.2208 -0.18518276954974366 9.182272169192153 8.18994951648076 0 0 0
238 0 1 -1.1104 4.093790238817637 7.707898792702759 6.8582482431277665 0 0 0
9072 0 2 2.2208 -0.18140515781886885 12.066631771715661 10.961305570153694 0 0 0
9080 0 2 2.2208 -0.20452968854859668 6.320578154201523 11.12197192117248 0 0 0
78 0 1 -1.1104 3.8503307370846587 10.601973436467496 6.874030103831216 0 0 0
62 0 1 -1.1104 1.1287395168180687 10.49600848941999 6.822592439030893 0 0 0
239 0 1 -1.1104 3.9574632441726494 4.951664495179615 7.001056836851618 0 0 0
234 0 1 -1.1104 1.2052299865169271 7.676738095407853 6.942375951625236 0 0 0
236 0 1 -1.1104 1.2098401445396234 4.65087333413445 6.585977040690476 0 0 0
240 0 2 2.2208 5.511195960958683 6.394879976263693 10.938413720162394 0 0 0
242 0 1 -1.1104 1.203699995483505 7.829248282552412 12.421290623183074 0 0 0
244 0 1 -1.1104 1.3313911620007706 7.6942918132593245 9.634467901905357 0 0 0
246 0 1 -1.1104 1.335436005874965 4.944390422130557 12.2215579270438 0 0 0
251 0 1 -1.1104 1.214506982978291 4.949113692210539 9.429033592606048 0 0 0
255 0 1 -1.1104 4.168058461433006 7.928760980641944 12.319427915387486 0 0 0
256 0 2 2.2208 2.662704108589911 6.336747955527143 8.25361875941944 0 0 0
258 0 1 -1.1104 3.9050012507416727 7.67611047656455 9.691145799989936 0 0 0
260 0 1 -1.1104 4.195373209884895 5.053022644679969 12.496265245154982 0 0 0
262 0 1 -1.1104 4.018984836529146 4.999249789947729 9.752523435327024 0 0 0
241 0 2 2.2208 5.3546255701614385 11.877645225267496 10.976168736950816 0 0 0
247 0 1 -1.1104 1.1290634626978036 10.733764599399755 12.41466703559419 0 0 0
250 0 2 2.2208 5.458627706404567 9.211870674355088 8.203269504616975 0 0 0
252 0 1 -1.1104 1.1817317526080946 10.543658435215463 9.669344818977892 0 0 0
257 0 2 2.2208 2.6408400585373437 12.066860692290321 7.970426161472141 0 0 0
259 0 2 2.2208 2.6511955043603446 9.197009093970262 11.015884302830212 0 0 0
261 0 1 -1.1104 3.9104480480144175 10.724093344082362 12.260391553956374 0 0 0
263 0 1 -1.1104 4.2090038655961015 10.546701363527916 9.545857512159161 0 0 0
237 0 1 -1.1104 6.808583785185738 5.007448674458894 6.6258320036251055 0 0 0
235 0 1 -1.1104 6.900980994731233 7.818898777046373 6.82730632732024 0 0 0
266 0 1 -1.1104 12.411294336907973 4.7711487977794205 6.851070847117564 0 0 0
269 0 1 -1.1104 9.690324222161545 4.951109617276374 6.878079718458959 0 0 0
267 0 1 -1.1104 9.699339778590675 7.782080654389034 6.737842820031999 0 0 0
265 0 1 -1.1104 12.377787717261127 7.530200522575226 6.782077851333322 0 0 0
90 0 1 -1.1104 12.410510805396633 10.478546618201817 6.798089745849049 0 0 0
248 0 1 -1.1104 6.838467702986893 4.991607654896064 12.423128557164372 0 0 0
249 0 1 -1.1104 6.846734381832468 10.387741937927863 12.244224524125963 0 0 0
253 0 1 -1.1104 6.676878690444235 5.020885332075219 9.406453921603788 0 0 0
245 0 1 -1.1104 6.8030715937852175 7.846211975793413 9.387488919892455 0 0 0
254 0 1 -1.1104 6.883275252002256 10.725494493246341 9.603243660929673 0 0 0
243 0 1 -1.1104 6.996586278537651 7.6632965050808615 12.216907214131508 0 0 0
268 0 1 -1.1104 9.623203859941377 4.920944147646227 9.634176111192769 0 0 0
271 0 1 -1.1104 9.48124610486165 4.869172841011937 12.487515570685032 0 0 0
273 0 1 -1.1104 9.53674221054564 7.776066275838825 9.542028110248097 0 0 0
275 0 2 2.2208 8.260664930800848 6.4004287214009965 8.154591677252762 0 0 0
276 0 2 2.2208 10.910264320035939 6.321598015259979 10.961432839651346 0 0 0
278 0 1 -1.1104 12.459249244999928 7.797526341445962 12.346831653819931 0 0 0
279 0 1 -1.1104 12.520020241796237 7.924518445973347 9.553380396451264 0 0 0
280 0 1 -1.1104 12.363282891422287 4.905927403285791 12.390978154683063 0 0 0
283 0 1 -1.1104 12.39320770253897 4.994926484761916 9.757410156447325 0 0 0
285 0 1 -1.1104 9.829033476110856 7.7171642252900705 12.398898338259709 0 0 0
264 0 1 -1.1104 9.778527229034744 10.53816521491571 9.559062739984729 0 0 0
270 0 1 -1.1104 9.466766581654657 10.51109355754276 12.28938575623509 0 0 0
272 0 2 2.2208 8.218071473031243 9.063222253473196 11.01153990505439 0 0 0
274 0 2 2.2208 8.244100017283573 11.95242718541493 8.01226104824131 0 0 0
277 0 2 2.2208 11.09589349605045 12.072279293983073 10.915247734451222 0 0 0
281 0 1 -1.1104 12.397726450975386 10.664578842825033 12.500548887921532 0 0 0
282 0 2 2.2208 11.102967766228685 9.145997487329007 8.084444416797009 0 0 0
284 0 1 -1.1104 12.623669485681575 10.768385326168792 9.711605499821951 0 0 0
330 0 2 2.2208 8.174938728724358 11.915890837405673 13.574762368104418 0 0 0
9165 0 2 2.2208 -0.1540480487246979 14.996423208950198 8.181760590097243 0 0 0
9164 0 2 2.2208 -0.10485096507723066 17.725404362051524 11.125239147356538 0 0 0
9163 0 2 2.2208 -0.2309038031112206 20.555533913933193 8.13842572089128 0 0 0
133 0 1 -1.1104 3.997436743052568 16.272759867066597 6.888093768871831 0 0 0
117 0 1 -1.1104 1.2239733998145483 16.04637359963781 6.808843667296592 0 0 0
124 0 1 -1.1104 3.83288156562302 13.504432114579139 6.639899924307963 0 0 0
126 0 1 -1.1104 4.030844266303041 18.972938349284053 6.682071491062803 0 0 0
302 0 1 -1.1104 1.1042723876418272 18.933238045208835 6.823420455157392 0 0 0
108 0 1 -1.1104 1.2463797027279053 13.46702417851401 6.768975821796236 0 0 0
287 0 1 -1.1104 3.9669543805447387 13.65736083707621 12.345906599852038 0 0 0
294 0 1 -1.1104 1.1506899275284723 13.227420243634757 9.523535515789076 0 0 0
299 0 1 -1.1104 1.1970910239725179 13.505654695013497 12.515380054233258 0 0 0
305 0 1 -1.1104 3.902547549630292 13.342118566825185 9.340402018271972 0 0 0
310 0 2 2.2208 2.6028404396526095 14.862633032337794 10.807472065523665 0 0 0
286 0 1 -1.1104 4.019973166702647 19.20159097475083 12.285929985681358 0 0 0
291 0 1 -1.1104 1.2054887260373202 19.22747846027776 9.804954731820827 0 0 0
292 0 1 -1.1104 1.341271268763621 16.167823173539677 9.499211721800005 0 0 0
293 0 2 2.2208 5.484379206927309 20.411930866626793 8.183274101540741 0 0 0
295 0 2 2.2208 5.3641450581611085 14.863980809414414 8.175553466808141 0 0 0
298 0 1 -1.1104 1.3093234728832839 19.141057828144536 12.551843286139256 0 0 0
300 0 2 2.2208 5.4058780050196145 17.73876163035908 10.936071517317686 0 0 0
301 0 1 -1.1104 4.013127959297109 19.091893917598853 9.45374630122438 0 0 0
303 0 2 2.2208 2.5890938635865397 17.73157000618438 8.154714583500716 0 0 0
304 0 1 -1.1104 4.024058514479032 16.208401569737763 9.520327407187542 0 0 0
307 0 1 -1.1104 1.2872292857104455 16.348225779593932 12.499330722413957 0 0 0
308 0 1 -1.1104 3.908974551647215 16.346087729773725 12.293017036103919 0 0 0
309 0 2 2.2208 2.6220842565147677 20.56369434277853 10.894453929639699 0 0 0
297 0 1 -1.1104 6.715143732255479 13.401390592312916 12.234995455749566 0 0 0
311 0 1 -1.1104 9.621275758932976 13.271681700956112 9.267975562927152 0 0 0
81 0 1 -1.1104 12.488065533919285 13.517758054588732 12.390474444781226 0 0 0
145 0 1 -1.1104 12.473567736633857 18.890691430767106 6.889018210962491 0 0 0
83 0 1 -1.1104 12.305079652054676 13.515146540411921 9.619521457756333 0 0 0
82 0 1 -1.1104 12.482755233699619 19.178824800941445 12.399483676548986 0 0 0
315 0 1 -1.1104 9.404077992562222 16.160916573923938 12.437167225857532 0 0 0
229 0 2 2.2208 8.205526872523157 17.606874177878357 8.11762596985314 0 0 0
199 0 1 -1.1104 9.681816468781728 19.152504366812543 12.267595977830293 0 0 0
112 0 1 -1.1104 6.826616077822004 18.831061134240986 6.726069719368367 0 0 0
118 0 1 -1.1104 6.804283356101375 16.091817183123773 6.7592367949974905 0 0 0
154 0 1 -1.1104 9.555635535580992 13.421865687305848 6.775994139657672 0 0 0
143 0 1 -1.1104 12.611573673737738 13.2962657496594 6.8443679088360065 0 0 0
165 0 1 -1.1104 9.749565298205335 13.37304678810174 12.20604093406703 0 0 0
104 0 1 -1.1104 12.684178679826342 18.999903305766882 9.543327980116793 0 0 0
296 0 1 -1.1104 6.892198012463504 19.023385938243496 12.427235320085575 0 0 0
306 0 1 -1.1104 6.653789809959357 16.47268631762421 12.488087810535967 0 0 0
289 0 1 -1.1104 7.027748931070303 16.259352752315827 9.631161278569593 0 0 0
135 0 2 2.2208 10.902950826929835 14.722070463544988 8.1139634807409 0 0 0
27 0 2 2.2208 10.985110656366293 17.62931961112696 10.981201864895466 0 0 0
312 0 1 -1.1104 9.706911551360852 19.03844794343022 9.689147536356485 0 0 0
290 0 1 -1.1104 6.587677308880507 13.376038883332505 9.587341948868348 0 0 0
288 0 1 -1.1104 6.7421229476916285 19.004059081337523 9.497747742256928 0 0 0
136 0 2 2.2208 11.141721903804132 20.403975392636493 8.252932889516064 0 0 0
314 0 1 -1.1104 9.702342562137993 16.099711625185236 9.647390615390357 0 0 0
137 0 1 -1.1104 12.47939706474494 16.14757784227712 9.571292519981043 0 0 0
350 0 2 2.2208 11.163405531571376 17.79208355319179 -0.3324929848944868 0 0 0
323 0 2 2.2208 11.25383562565892 -2.063905778511818 13.596946373051964 0 0 0
322 0 2 2.2208 8.26719645566697 0.8796100274270242 13.630101115223622 0 0 0
9196 0 2 2.2208 -0.13237828417829395 14.942106731942447 13.626597221945541 0 0 0
341 0 2 2.2208 5.469318837931503 0.668563120935211 -0.30050338883785216 0 0 0
357 0 2 2.2208 11.05919241801037 12.021002602626174 -0.12147501114338553 0 0 0
358 0 2 2.2208 5.528999434995668 0.8705726458511791 16.524263689451782 0 0 0
359 0 1 -1.1104 1.2511990989297601 -3.517181568105126 18.006739330998847 0 0 0
363 0 1 -1.1104 1.249298252140823 -3.528421796649867 15.148026834434274 0 0 0
371 0 1 -1.1104 1.2747088252132368 -0.6768680122715425 18.08482078648833 0 0 0
373 0 2 2.2208 5.575028805494252 -2.0495917760961935 19.14808975184224 0 0 0
375 0 1 -1.1104 1.2064585884590922 -0.7739869900743163 15.33609068352963 0 0 0
379 0 1 -1.1104 4.1028651082718195 -3.537656428582891 17.97928069732559 0 0 0
381 0 2 2.2208 2.6596403791286964 0.7991791516392875 19.371898926144674 0 0 0
382 0 1 -1.1104 4.070844967398536 -3.284706327249835 15.27714674040614 0 0 0
386 0 2 2.2208 2.583847503514039 -1.9239339211150392 16.62176988938311 0 0 0
388 0 1 -1.1104 4.122196815641765 -0.6685513142219669 17.855842453346487 0 0 0
389 0 1 -1.1104 3.9383884455286506 -0.5377970816250484 15.24682411275694 0 0 0
360 0 1 -1.1104 1.2616512612237505 2.252961157721939 17.98585124264901 0 0 0
365 0 1 -1.1104 1.054704623704367 2.2088724882942072 15.245747324664512 0 0 0
380 0 1 -1.1104 3.923615426827243 2.2052294014884914 17.975594610140412 0 0 0
384 0 1 -1.1104 4.010323592191599 2.203630268438452 15.197132533668874 0 0 0
374 0 2 2.2208 5.426755587450141 3.558083502453053 19.275925136251242 0 0 0
387 0 2 2.2208 2.490541163570101 3.6857528512676785 16.485914168079653 0 0 0
395 0 2 2.2208 -0.21590225993229564 -2.070595663560681 19.387744922016932 0 0 0
9387 0 2 2.2208 13.658398602987866 17.758679726593574 19.21220438841839 0 0 0
9284 0 2 2.2208 -0.16671446569162546 3.5400757630155946 19.513738224338717 0 0 0
321 0 2 2.2208 5.31419859587601 3.737831271341926 13.86120763127326 0 0 0
320 0 2 2.2208 2.684535117669992 0.7224938328167848 13.778408388715404 0 0 0
317 0 2 2.2208 -0.195858906628375 -1.886323370920133 13.699224763356938 0 0 0
394 0 2 2.2208 -0.13443143413986589 0.6732508899276259 16.686530622997093 0 0 0
319 0 2 2.2208 5.49840641398678 -1.93396255717521 13.838932994631854 0 0 0
621 0 2 2.2208 8.20868709495569 -4.765754911069512 25.092109821795656 0 0 0
9178 0 2 2.2208 -0.21953223420234363 3.493637158751433 13.793004864282587 0 0 0
362 0 1 -1.1104 6.731847133223253 2.2338859512641127 17.957484004361405 0 0 0
469 0 1 -1.1104 9.750679738175286 16.354828368534996 26.445473384908116 0 0 0
427 0 2 2.2208 8.281708915759431 -4.792709065754427 19.328972831652894 0 0 0
367 0 1 -1.1104 7.033217689140996 -3.399951611729376 15.24555011786824 0 0 0
369 0 1 -1.1104 6.78001707903688 2.2517423309511067 15.126148647507277 0 0 0
377 0 1 -1.1104 6.745017330552296 -0.689391569112772 15.336205886966983 0 0 0
372 0 1 -1.1104 6.976120144170125 -0.6642038795896473 17.986450055184534 0 0 0
361 0 1 -1.1104 6.875766897125439 -3.4613933105604953 17.90019783110169 0 0 0
401 0 2 2.2208 10.787797041197948 0.8479844470619777 16.422947542986506 0 0 0
402 0 1 -1.1104 12.421941872774953 -3.3888727258962486 17.99544883223282 0 0 0
404 0 1 -1.1104 12.657713431780198 -3.5312849022370787 15.388136443167369 0 0 0
408 0 1 -1.1104 12.387621045901646 -0.5266883544098395 17.87582095179927 0 0 0
409 0 2 2.2208 11.06794959472523 -1.8459602793623957 19.310760706796717 0 0 0
411 0 1 -1.1104 12.393742765008907 -0.7125495150937198 15.07180248034818 0 0 0