ITEM: TIMESTEP
60000
ITEM: NUMBER OF ATOMS
17700
ITEM: BOX BOUNDS pp pp pp
-3.5944973629477450e-01 2.7699449736295062e+01
-4.2980690709731171e+00 3.3237806907097735e+02
-3.5735732117156016e-01 2.7697357321170998e+01
ITEM: ATOMS id type q x y z
1 2 2.2208 5.28306 1.35373 5.33547
2 1 -1.1104 1.03279 -2.80072 0.938606
3 1 -1.1104 1.02797 2.7352 1.01027
6 1 -1.1104 1.16739 -2.72436 3.62762
7 1 -1.1104 1.19904 2.75772 3.7945
10 1 -1.1104 1.18857 -0.0439915 1.09433
12 2 2.2208 5.26505 -1.33028 2.50423
13 2 2.2208 5.33844 4.1822 2.34835
14 1 -1.1104 1.09293 -0.195569 3.82639
16 1 -1.1104 3.83357 -2.83473 0.89094
17 1 -1.1104 3.90935 2.66736 1.00743
18 2 2.2208 2.52903 1.35562 2.3935
19 1 -1.1104 3.977 -2.73834 3.79095
20 1 -1.1104 3.89856 2.84113 3.95619
21 2 2.2208 2.56883 -1.56336 5.15817
23 1 -1.1104 3.95977 -0.0638164 0.996196
24 1 -1.1104 3.87891 0.0869813 3.70923
22 2 2.2208 2.52488 4.24369 5.13075
340 2 2.2208 13.7138 1.32763 13.6436
170 1 -1.1104 1.1678 -0.160342 6.75035
172 1 -1.1104 3.94845 -2.86986 6.62924
11 1 -1.1104 6.8729 -0.0470007 0.991903
230 2 2.2208 13.5608 -1.6798 10.9262
199 2 2.2208 -0.362754 4.24529 8.00682
8839 2 2.2208 2.45279 -4.21591 2.34599
201 2 2.2208 -0.250074 1.27676 10.8109
49 2 2.2208 13.6813 1.21937 2.31358
8 1 -1.1104 6.63148 -2.77373 3.89168
15 1 -1.1104 6.65736 -0.0173477 3.81328
4 1 -1.1104 6.643 -2.82878 1.11333
321 1 -1.1104 9.67152 19.6161 12.2557
5 1 -1.1104 6.69141 2.80606 1.07161
9 1 -1.1104 6.72577 2.77445 3.88716
31 2 2.2208 11.0085 1.06442 5.12619
32 1 -1.1104 12.245 -3.00099 0.946572
33 1 -1.1104 12.201 2.75223 0.951841
34 1 -1.1104 12.428 -2.97115 3.81598
35 1 -1.1104 12.2819 2.71779 3.75856
36 1 -1.1104 12.1953 0.0384176 1.04537
37 2 2.2208 10.8398 -1.62436 2.36517
39 1 -1.1104 12.431 -0.0496485 3.81249
40 1 -1.1104 9.31654 -3.02964 1.15158
41 1 -1.1104 9.43746 2.84723 1.00373
42 2 2.2208 8.05891 1.35098 2.48397
43 1 -1.1104 9.66413 -3.03453 3.84138
44 1 -1.1104 9.55226 2.67916 3.85124
45 2 2.2208 8.10614 -1.5584 5.2682
46 2 2.2208 8.233 4.023 5.18509
47 1 -1.1104 9.56187 -0.0175676 1.09177
48 1 -1.1104 9.53995 -0.226114 3.80013
38 2 2.2208 10.9579 4.16606 2.50483
8840 2 2.2208 5.25618 -4.24796 5.19045
165 2 2.2208 13.6477 18.0475 2.37526
326 1 -1.1104 12.1859 16.6819 12.1913
206 1 -1.1104 12.3855 2.53014 6.6182
207 1 -1.1104 12.3398 -0.309962 6.55727
28 2 2.2208 13.5323 20.9656 10.9343
54 2 2.2208 5.34088 6.9336 5.25848
55 2 2.2208 5.39458 12.4559 5.2708
56 1 -1.1104 1.15051 8.35699 0.965609
58 1 -1.1104 1.15201 8.2963 3.8
60 1 -1.1104 1.14322 5.51635 0.951391
61 1 -1.1104 1.20631 11.0301 1.06791
66 2 2.2208 5.31361 9.74066 2.40509
67 1 -1.1104 1.15611 5.6107 3.75055
68 1 -1.1104 1.02237 11.0979 3.7467
71 1 -1.1104 3.93735 8.30701 0.943176
72 2 2.2208 2.51317 7.04926 2.34134
73 2 2.2208 2.56963 12.5006 2.36151
74 1 -1.1104 4.00651 8.51677 3.87614
75 2 2.2208 2.54501 9.6907 5.26263
76 1 -1.1104 4.00581 5.52857 1.03211
77 1 -1.1104 3.94889 11.1318 1.05438
79 1 -1.1104 3.9388 5.71142 3.89082
80 1 -1.1104 3.92939 11.2218 3.71694
57 1 -1.1104 6.87162 8.3281 1.04147
64 1 -1.1104 6.64865 11.1301 1.00828
325 2 2.2208 10.9316 15.4036 8.07237
236 1 -1.1104 1.14345 5.61585 6.37125
83 2 2.2208 -0.308167 12.5405 5.16897
234 1 -1.1104 1.13078 8.34835 6.64691
311 2 2.2208 -0.312097 20.9378 8.15654
25 2 2.2208 -0.339101 -1.40877 2.37848
135 2 2.2208 -0.368155 15.2905 2.37741
334 2 2.2208 -0.273582 -1.51848 13.6466
59 1 -1.1104 6.7397 8.3586 3.72085
70 1 -1.1104 6.77459 11.0006 3.84662
69 1 -1.1104 6.88043 5.54063 3.83871
63 1 -1.1104 6.75475 5.62255 0.859478
84 2 2.2208 10.9776 6.8181 5.15375
85 2 2.2208 10.8861 12.4953 5.25402
86 1 -1.1104 12.5305 8.32195 1.09577
87 1 -1.1104 12.4486 8.36175 3.86406
88 1 -1.1104 12.4049 5.54281 1.02381
89 1 -1.1104 12.3797 11.1488 0.889152
91 2 2.2208 10.9555 9.71804 2.43453
92 1 -1.1104 12.4417 5.49175 3.85728
93 1 -1.1104 12.3626 11.3029 3.89346
94 1 -1.1104 9.64363 8.42616 1.14363
95 2 2.2208 8.27727 6.95599 2.41975
96 2 2.2208 7.99603 12.5038 2.63927
97 1 -1.1104 9.61994 8.21268 3.88948
98 2 2.2208 8.20006 9.57069 5.28458
99 1 -1.1104 9.71991 5.75936 1.01151
100 1 -1.1104 9.55296 10.978 0.927271
102 1 -1.1104 9.66203 5.42851 3.82973
103 1 -1.1104 9.48751 10.98 3.92508
269 1 -1.1104 9.52782 5.46106 6.6325
267 1 -1.1104 9.54307 8.21391 6.68183
90 1 -1.1104 12.2615 10.9611 6.59566
266 1 -1.1104 12.3692 5.45784 6.61686
101 1 -1.1104 9.52116 10.9893 6.6877
324 2 2.2208 10.7738 20.7656 8.10703
8841 2 2.2208 -0.362102 -4.28743 5.27129
355 2 2.2208 10.9913 9.78378 13.6539
323 1 -1.1104 12.2205 16.6655 9.40649
106 2 2.2208 5.22 18.1614 5.34603
107 1 -1.1104 1.03124 13.9179 1.05469
109 1 -1.1104 1.02756 19.4142 1.02146
113 1 -1.1104 1.15672 13.9237 3.87827
114 1 -1.1104 1.015 19.574 3.75017
116 1 -1.1104 1.03075 16.6844 1.23091
119 2 2.2208 5.36716 15.3231 2.59285
120 2 2.2208 5.19475 20.9564 2.52745
121 1 -1.1104 1.13464 16.7442 4.07238
123 1 -1.1104 3.88581 13.9124 0.996527
125 1 -1.1104 3.82337 19.6455 1.12382
127 2 2.2208 2.55445 18.1677 2.54445
128 1 -1.1104 3.951 13.9343 3.8432
129 1 -1.1104 3.75053 19.5611 4.01081
130 2 2.2208 2.62738 15.2714 5.32165
131 2 2.2208 2.39087 20.9825 5.33646
132 1 -1.1104 3.90507 16.6529 1.1648
134 1 -1.1104 3.99611 16.7329 3.92853
81 2 2.2208 -0.234058 6.94146 5.14
138 1 -1.1104 6.60351 19.5375 1.0913
110 1 -1.1104 6.62924 13.9909 1.0567
133 1 -1.1104 3.91816 16.6733 6.88497
373 2 2.2208 2.51873 15.393 -0.344016
231 2 2.2208 13.6359 20.9195 5.32104
154 1 -1.1104 9.50608 13.909 6.64995
115 1 -1.1104 6.73474 13.957 3.95082
139 1 -1.1104 6.68868 19.5977 3.87951
122 1 -1.1104 6.66568 16.7739 3.94657
140 1 -1.1104 6.68808 16.748 1.04012
141 2 2.2208 10.7507 18.1287 5.27043
142 1 -1.1104 12.1668 13.9311 0.987199
144 1 -1.1104 12.1783 19.4936 1.12924
146 1 -1.1104 12.3924 13.9341 3.97697
147 1 -1.1104 12.256 19.4588 4.10733
148 1 -1.1104 12.3447 16.7054 1.13382
150 2 2.2208 10.8697 15.2278 2.56535
151 2 2.2208 10.8931 21.0167 2.5049
152 1 -1.1104 12.1915 16.6489 3.79265
153 1 -1.1104 9.32039 13.9037 1.08121
155 1 -1.1104 9.41226 19.5677 1.16294
157 2 2.2208 8.06121 18.1443 2.47254
158 1 -1.1104 9.53072 13.7579 3.85426
159 1 -1.1104 9.48426 19.5607 3.81135
160 2 2.2208 8.08174 15.3448 5.36994
161 2 2.2208 8.08749 21.0091 5.17764
162 1 -1.1104 9.59663 16.621 1.22164
164 1 -1.1104 9.35393 16.5993 3.91749
143 1 -1.1104 12.281 13.9572 6.73374
145 1 -1.1104 12.098 19.3619 6.69717
118 1 -1.1104 6.62955 16.6989 6.75073
112 1 -1.1104 6.76866 19.4947 6.65124
149 1 -1.1104 12.2357 16.7522 6.65215
156 1 -1.1104 9.35859 19.4503 6.69003
111 1 -1.1104 6.76048 13.7885 6.65575
350 2 2.2208 10.8493 4.26264 13.668
167 1 -1.1104 1.01112 2.80101 6.56049
166 1 -1.1104 1.17236 -2.98505 6.5728
200 2 2.2208 -0.245062 -1.54327 7.87664
168 1 -1.1104 6.69118 -2.94495 6.65536
315 1 -1.1104 9.55126 16.7694 12.5128
27 2 2.2208 -0.248737 4.12289 2.38882
173 1 -1.1104 3.81696 2.85343 6.75028
174 1 -1.1104 3.96893 -0.0134831 6.48058
175 2 2.2208 5.34091 1.23459 10.9194
176 1 -1.1104 1.08636 -3.02413 12.3981
177 1 -1.1104 1.1537 2.60351 12.2833
180 1 -1.1104 1.07549 -2.88123 9.43161
181 1 -1.1104 1.01715 2.83434 9.39535
184 1 -1.1104 1.13334 -0.128376 12.2461
186 2 2.2208 5.33722 -1.55405 8.01863
187 2 2.2208 5.34552 4.06343 8.00096
188 1 -1.1104 1.21353 -0.0513873 9.4639
190 1 -1.1104 3.96373 -2.81872 12.1357
191 1 -1.1104 3.86394 2.71481 12.3195
192 2 2.2208 2.43981 1.33479 8.07924
193 1 -1.1104 3.89928 -3.0643 9.57213
194 1 -1.1104 3.81673 2.63906 9.56439
195 2 2.2208 2.44598 -1.54706 10.857
196 2 2.2208 2.49769 4.11653 10.7961
197 1 -1.1104 3.90864 -0.0360562 12.2708
198 1 -1.1104 3.99464 -0.133152 9.31022
178 1 -1.1104 6.79738 -3.08804 12.1
189 1 -1.1104 6.74841 -0.143348 9.54151
185 1 -1.1104 6.73283 -0.205734 12.2475
169 1 -1.1104 6.81214 2.63696 6.78426
210 1 -1.1104 9.48095 -0.125201 6.57964
205 1 -1.1104 12.2827 -3.10823 6.50977
374 2 2.2208 5.2274 18.0904 -0.299963
312 2 2.2208 -0.3207 18.1105 10.8521
171 1 -1.1104 6.68746 -0.181004 6.56527
182 1 -1.1104 6.834 -2.96429 9.43465
322 1 -1.1104 9.58911 13.7997 12.2571
136 2 2.2208 -0.287694 20.9164 2.45785
209 1 -1.1104 9.63376 2.51901 6.62627
208 1 -1.1104 9.64075 -2.91599 6.62335
179 1 -1.1104 6.60134 2.73325 12.4297
183 1 -1.1104 6.69864 2.6091 9.62358
211 2 2.2208 10.7387 1.20564 10.8782
212 1 -1.1104 12.1346 -2.98169 12.1989
213 1 -1.1104 12.2954 2.78361 12.2975
214 1 -1.1104 12.1815 -3.14086 9.47698
215 1 -1.1104 12.2255 2.5489 9.55192
216 1 -1.1104 12.2852 0.0210745 12.4702
217 2 2.2208 10.8631 -1.51999 7.97551
219 1 -1.1104 12.2226 -0.468226 9.50448
220 1 -1.1104 9.47819 -3.07532 12.2867
221 1 -1.1104 9.5432 2.77889 12.2817
222 2 2.2208 8.08085 1.2212 8.02629
223 1 -1.1104 9.42224 -2.88094 9.31007
224 1 -1.1104 9.43321 2.72388 9.35553
225 2 2.2208 8.17739 -1.50225 10.8578
227 1 -1.1104 9.41772 -0.174419 12.2501
228 1 -1.1104 9.52205 -0.105397 9.41105
226 2 2.2208 8.1186 4.12365 10.9738
218 2 2.2208 10.907 4.08627 7.96292
317 2 2.2208 8.15538 15.234 10.9097
239 1 -1.1104 3.89512 5.59754 6.63203
238 1 -1.1104 3.91199 8.40608 6.47664
62 1 -1.1104 0.917718 11.1716 6.48824
78 1 -1.1104 3.95322 11.1229 6.62869
240 2 2.2208 5.32161 6.88429 10.8554
241 2 2.2208 5.21549 12.4426 10.9594
242 1 -1.1104 0.9539 8.38665 12.3664
244 1 -1.1104 1.1882 8.41074 9.34427
246 1 -1.1104 1.00534 5.56049 12.1186
247 1 -1.1104 0.938338 11.1507 12.3512
250 2 2.2208 5.36043 9.72027 7.92996
251 1 -1.1104 1.13708 5.57538 9.21179
252 1 -1.1104 1.0552 11.0817 9.34898
255 1 -1.1104 3.75383 8.42648 12.1433
256 2 2.2208 2.45224 7.00243 7.94385
257 2 2.2208 2.58786 12.5109 8.0176
258 1 -1.1104 4.12696 8.23221 9.29063
259 2 2.2208 2.41378 9.8241 10.956
260 1 -1.1104 3.91905 5.63099 12.0943
261 1 -1.1104 3.86656 11.1389 12.2896
262 1 -1.1104 3.97974 5.37553 9.37012
263 1 -1.1104 3.96686 10.957 9.47699
245 1 -1.1104 6.86662 8.14774 9.44271
248 1 -1.1104 6.77436 5.57816 12.4362
29 2 2.2208 -0.285203 6.98757 10.8837
163 1 -1.1104 9.50215 16.725 6.71891
26 2 2.2208 -0.229991 1.3065 5.34893
65 1 -1.1104 6.78665 10.9973 6.53325
265 1 -1.1104 12.3327 8.29561 6.61427
235 1 -1.1104 6.82499 8.19943 6.76943
319 1 -1.1104 9.47852 14.0375 9.31665
306 1 -1.1104 6.85881 16.6767 12.4046
243 1 -1.1104 6.59412 8.33948 12.281
254 1 -1.1104 6.6324 11.0219 9.57536
253 1 -1.1104 6.83418 5.32083 9.60993
237 1 -1.1104 6.77047 5.42321 6.62404
249 1 -1.1104 6.68032 11.203 12.3403
264 1 -1.1104 9.57634 11.1488 9.35872
268 1 -1.1104 9.63743 5.44208 9.47652
270 1 -1.1104 9.48441 11.1589 12.1827
271 1 -1.1104 9.51136 5.66617 12.2171
272 2 2.2208 8.06119 9.6019 10.8568
273 1 -1.1104 9.56376 8.34056 9.48517
274 2 2.2208 8.13587 12.4817 8.24425
275 2 2.2208 8.20973 6.82835 8.07411
276 2 2.2208 10.9428 6.85722 10.8782
277 2 2.2208 10.9075 12.5013 10.7506
278 1 -1.1104 12.2688 8.28022 12.1227
279 1 -1.1104 12.2995 8.17681 9.49362
280 1 -1.1104 12.3676 5.51654 12.3258
281 1 -1.1104 12.2373 11.0472 12.2323
282 2 2.2208 10.8924 9.63308 8.02607
283 1 -1.1104 12.2435 5.35899 9.42295
284 1 -1.1104 12.324 10.9808 9.40525
285 1 -1.1104 9.43119 8.36168 12.3648
82 2 2.2208 -0.368564 9.77466 2.43814
290 1 -1.1104 6.60639 13.709 9.45173
320 2 2.2208 8.09729 18.0968 8.09791
296 1 -1.1104 6.81901 19.5544 12.2377
117 1 -1.1104 1.21771 16.7336 6.87428
126 1 -1.1104 3.8002 19.4903 6.7711
108 1 -1.1104 1.25459 13.9146 6.67427
124 1 -1.1104 3.95204 13.9286 6.74917
302 1 -1.1104 0.942517 19.5781 6.58257
305 1 -1.1104 3.9221 13.816 9.4764
300 2 2.2208 5.36582 17.9992 11.011
299 1 -1.1104 0.890382 13.8678 12.4612
298 1 -1.1104 1.3408 19.4749 12.2029
292 1 -1.1104 1.02215 16.6523 9.60794
294 1 -1.1104 1.17361 13.7613 9.57437
287 1 -1.1104 3.98586 13.8627 12.3761
291 1 -1.1104 1.05501 19.4481 9.55614
303 2 2.2208 2.43601 18.0085 8.14379
304 1 -1.1104 3.77896 16.6627 9.60224
286 1 -1.1104 4.20702 19.4593 12.3669
301 1 -1.1104 3.84519 19.3903 9.51996
310 2 2.2208 2.4995 15.2696 10.9034
293 2 2.2208 5.28358 20.7566 8.05665
309 2 2.2208 2.71001 20.8796 10.9212
308 1 -1.1104 4.05574 16.719 12.4285
307 1 -1.1104 1.20715 16.6384 12.4589
295 2 2.2208 5.27538 15.2155 8.08011
313 2 2.2208 -0.223168 15.1906 8.12353
318 1 -1.1104 9.53498 19.4642 9.53532
330 1 -1.1104 12.318 13.8841 12.3901
30 2 2.2208 -0.399513 9.73929 8.01557
289 1 -1.1104 6.68904 16.4839 9.47124
297 1 -1.1104 6.78875 14.1205 12.3641
288 1 -1.1104 6.7008 19.414 9.4331
329 1 -1.1104 12.486 19.5764 12.3006
328 1 -1.1104 12.2602 13.845 9.41773
327 1 -1.1104 12.3541 19.4125 9.5795
316 2 2.2208 8.08702 20.9819 10.8671
331 2 2.2208 10.8878 18.1882 10.9333
314 1 -1.1104 9.46906 16.7867 9.75433
338 2 2.2208 5.25544 -1.59481 13.6462
344 2 2.2208 13.6623 15.3976 -0.34851
8860 2 2.2208 -0.293159 -4.15275 -0.446261
356 2 2.2208 8.13859 12.522 13.7152
347 2 2.2208 8.01277 15.2359 -0.200613
339 2 2.2208 2.48306 1.46781 13.5787
349 2 2.2208 8.02904 20.9539 -0.314566
369 2 2.2208 10.821 1.37533 -0.25151
348 2 2.2208 10.7592 18.1661 -0.347657
370 2 2.2208 8.12475 -1.51889 -0.311762
388 2 2.2208 5.23697 1.32346 16.5046
389 1 -1.1104 1.07644 -2.85384 17.9612
390 1 -1.1104 1.22764 2.68025 17.8948
393 1 -1.1104 1.23368 -2.84557 15.1473
395 1 -1.1104 1.00753 2.75423 15.0347
401 1 -1.1104 0.983276 -0.269789 17.8242
403 2 2.2208 5.23952 -1.54215 19.2029
404 2 2.2208 5.2801 4.18008 19.3312
405 1 -1.1104 1.06251 -0.08073 15.0109
409 1 -1.1104 4.00065 -2.85027 17.8038
410 1 -1.1104 3.96366 2.7081 17.8708
411 2 2.2208 2.49998 1.32536 19.2396
412 1 -1.1104 3.91044 -3.06734 14.9301
414 1 -1.1104 3.86818 2.701 15.0391
416 2 2.2208 2.41078 -1.4735 16.4896
417 2 2.2208 2.50868 4.14421 16.5554
418 1 -1.1104 3.77349 -0.116893 17.9281
419 1 -1.1104 3.88035 -0.18861 15.0645
361 2 2.2208 10.9779 15.2888 13.7169
8904 2 2.2208 8.14758 -4.35482 24.8468
394 1 -1.1104 1.08182 -3.06125 20.6259
625 2 2.2208 -0.23111 1.29341 22.0579
425 2 2.2208 -0.259305 -1.56567 19.4052
399 1 -1.1104 6.64512 2.742 15.0834
392 1 -1.1104 6.75339 2.59225 17.6892
391 1 -1.1104 6.78667 -2.90294 17.8575
407 1 -1.1104 6.57355 -0.103513 15.0253
684 2 2.2208 -0.249103 9.64057 24.9628
430 2 2.2208 13.6226 15.3803 22.1143
8974 2 2.2208 5.27346 -4.25134 16.4274
8906 2 2.2208 13.6177 -4.16692 24.8657
562 1 -1.1104 9.27528 19.7364 23.6077
460 2 2.2208 13.6234 21.1101 16.4476
624 2 2.2208 -0.233667 -1.53387 24.777
429 2 2.2208 13.6328 4.12695 16.3051
402 1 -1.1104 6.52909 -0.18511 17.8103
397 1 -1.1104 6.77593 -2.91914 15.0076
431 2 2.2208 10.933 1.23211 16.4612
432 1 -1.1104 12.5128 -2.81199 17.7518
433 1 -1.1104 12.4211 3.00249 17.8304
434 1 -1.1104 12.2316 -2.99229 14.9844
436 1 -1.1104 12.3192 2.75308 15.1016
438 1 -1.1104 12.2699 0.109065 17.9008
439 2 2.2208 10.976 -1.56487 19.1772
440 2 2.2208 10.9892 4.15833 19.2412
441 1 -1.1104 12.3419 -0.175316 15.0863
443 1 -1.1104 9.5427 -2.95603 17.8809
444 1 -1.1104 9.48558 2.81254 17.9284
445 2 2.2208 8.07524 1.3062 19.1279
446 1 -1.1104 9.66154 -2.82348 15.1668
448 1 -1.1104 9.5618 2.73483 15.1359
450 2 2.2208 7.98371 -1.44167 16.4127
452 1 -1.1104 9.52375 -0.222511 17.6807
453 1 -1.1104 9.50086 -0.0522082 14.9136
654 2 2.2208 13.6166 1.34004 24.8748
398 1 -1.1104 6.60883 -2.9257 20.6825
423 2 2.2208 13.6572 4.05589 22.0261
463 1 -1.1104 12.3395 13.97 23.4372
620 1 -1.1104 9.57989 16.7048 26.2739
560 1 -1.1104 12.2168 16.6538 26.3366
615 2 2.2208 8.14013 15.3741 22.0092
648 2 2.2208 -0.377987 12.4855 16.511
653 2 2.2208 13.6544 -1.54299 22.0286
464 2 2.2208 5.33027 7.00209 16.5632
465 2 2.2208 5.31136 12.5838 16.5187
466 1 -1.1104 1.16261 8.31927 17.8468
468 1 -1.1104 0.992905 8.28591 15.1994
472 1 -1.1104 1.14519 5.46826 17.9103
473 1 -1.1104 1.02584 11.1314 18.0609
476 2 2.2208 5.31999 9.72902 19.3861
477 1 -1.1104 1.02393 5.59706 15.0352
479 1 -1.1104 1.08131 11.1441 15.2325
485 1 -1.1104 3.96448 8.56021 17.8549
486 2 2.2208 2.44212 6.91647 19.327
487 2 2.2208 2.53644 12.5315 19.322
488 1 -1.1104 3.84603 8.35489 15.0109
490 2 2.2208 2.37484 9.83123 16.6466
491 1 -1.1104 3.92257 5.46638 17.8996
492 1 -1.1104 3.75368 11.182 17.9239
493 1 -1.1104 3.81065 5.61681 15.1937
495 1 -1.1104 3.87344 11.2471 15.2297
480 1 -1.1104 1.09523 11.1532 20.6809
470 1 -1.1104 6.74494 8.58486 15.1351
353 2 2.2208 2.50943 12.5627 13.7972
645 2 2.2208 -0.180885 21.0743 24.9701
384 2 2.2208 10.9713 7.00585 27.7588
451 2 2.2208 8.12263 4.15479 16.5381
358 2 2.2208 5.32225 20.889 13.7721
483 1 -1.1104 6.75453 11.1353 15.1602
475 1 -1.1104 6.75285 11.1864 17.9027
481 1 -1.1104 6.71943 5.71083 15.1945
474 1 -1.1104 6.6527 5.49818 17.8148
467 1 -1.1104 6.65347 8.39296 17.8532
500 2 2.2208 10.9794 6.90283 16.4025
501 2 2.2208 10.9636 12.4583 16.4607
502 1 -1.1104 12.3298 8.43641 17.7347
503 1 -1.1104 12.3492 8.28857 14.9394
505 1 -1.1104 12.4274 5.66289 17.6707
506 1 -1.1104 12.3813 11.0982 17.8546
507 2 2.2208 11.0831 9.83554 19.2983
508 1 -1.1104 12.2453 5.6138 15.0209
510 1 -1.1104 12.4582 11.1234 14.9091
512 1 -1.1104 9.56241 8.28976 17.8952
513 2 2.2208 8.15383 6.92779 19.3291
514 2 2.2208 8.12155 12.5379 19.2897
515 1 -1.1104 9.57591 8.30769 15.0759
517 2 2.2208 8.13249 9.84695 16.4639
518 1 -1.1104 9.52476 5.50575 17.9527
519 1 -1.1104 9.53564 11.1562 17.8051
520 1 -1.1104 9.39998 5.61103 15.051
522 1 -1.1104 9.59408 11.0367 15.0093
685 2 2.2208 -0.207316 12.5022 22.1252
509 1 -1.1104 12.4356 5.48531 20.6233
589 1 -1.1104 9.38864 13.9489 26.2432
539 1 -1.1104 6.83137 19.6226 20.6046
351 2 2.2208 2.48428 7.02953 13.711
527 2 2.2208 5.46244 18.2344 16.4747
528 1 -1.1104 1.18733 13.8626 17.8832
529 1 -1.1104 1.15329 19.5341 18.0107
532 1 -1.1104 1.19618 13.9388 15.273
534 1 -1.1104 1.16383 19.5074 15.1139
540 1 -1.1104 1.29336 16.8437 17.8965
542 2 2.2208 5.38305 15.3885 19.1808
543 2 2.2208 5.33574 20.979 19.2933
544 1 -1.1104 1.11637 16.5886 15.2154
548 1 -1.1104 3.97758 13.8949 17.9937
549 1 -1.1104 3.97751 19.598 17.9767
550 2 2.2208 2.53297 18.1973 19.3685
551 1 -1.1104 3.943 13.943 15.1801
553 1 -1.1104 3.99174 19.5536 15.1739
555 2 2.2208 2.53972 15.344 16.6745
556 2 2.2208 2.50385 20.9553 16.4583
557 1 -1.1104 4.00887 16.8237 18.0391
558 1 -1.1104 3.95206 16.8492 15.2639
530 1 -1.1104 6.7735 13.9876 17.9018
552 1 -1.1104 4.0464 13.9649 20.5633
535 1 -1.1104 1.09786 19.5676 20.733
385 2 2.2208 8.14829 9.74118 27.7055
456 2 2.2208 -0.237883 18.0684 16.5952
708 2 2.2208 13.5768 12.5941 24.9473
579 1 -1.1104 9.56599 13.959 20.5733
546 1 -1.1104 6.76954 16.7486 15.1662
531 1 -1.1104 6.65842 19.5611 17.8159
541 1 -1.1104 6.86103 16.7414 18.1283
536 1 -1.1104 6.78482 13.7468 15.1524
538 1 -1.1104 6.89772 19.5409 15.0606
563 2 2.2208 11.134 18.0334 16.5824
564 1 -1.1104 12.3126 13.9919 17.7788
565 1 -1.1104 12.3739 19.6201 17.937
566 1 -1.1104 12.3886 14.0554 15.2007
568 1 -1.1104 12.3436 19.5525 15.1453
570 1 -1.1104 12.5127 16.8334 18.007
571 2 2.2208 10.9843 15.3616 19.321
572 2 2.2208 10.9445 21.0274 19.3824
573 1 -1.1104 12.2954 16.765 15.0174
575 1 -1.1104 9.64458 13.96 17.8231
576 1 -1.1104 9.52426 19.6014 18.0043
577 2 2.2208 8.0649 18.1891 19.3461
578 1 -1.1104 9.6411 13.901 15.088
580 1 -1.1104 9.68225 19.4936 15.2116
582 2 2.2208 8.26171 15.3108 16.5268
583 2 2.2208 8.26638 20.9417 16.5235
584 1 -1.1104 9.66787 16.8688 17.9548
585 1 -1.1104 9.63217 16.7015 15.2738
586 1 -1.1104 9.47252 16.8281 20.6355
547 1 -1.1104 6.49487 16.5926 20.7736
574 1 -1.1104 12.2107 16.9161 20.7119
569 1 -1.1104 12.3801 19.7193 20.6847
581 1 -1.1104 9.62197 19.6564 20.7078
379 2 2.2208 5.40444 6.85107 27.6452
712 1 -1.1104 6.63374 13.9633 26.253
420 1 -1.1104 3.79441 -0.0364252 20.539
406 1 -1.1104 1.15856 -0.118495 20.6926
362 2 2.2208 8.20774 18.176 13.7617
458 2 2.2208 -0.299389 20.979 19.3722
415 1 -1.1104 3.84797 2.84402 20.7434
396 1 -1.1104 1.18855 2.65108 20.747
413 1 -1.1104 3.93181 -2.95559 20.4626
591 2 2.2208 5.26562 1.41463 22.0177
592 1 -1.1104 1.04802 -2.94764 23.3871
593 1 -1.1104 1.00682 2.74632 23.5691
596 1 -1.1104 1.1452 -2.91285 26.2476
597 1 -1.1104 1.04232 2.70075 26.2606
600 1 -1.1104 1.02181 -0.0443147 23.4441
602 2 2.2208 5.20887 -1.51903 24.8897
603 2 2.2208 5.28321 4.12608 24.8415
604 1 -1.1104 0.994226 -0.0218993 26.1888
606 1 -1.1104 3.89129 -2.85894 23.2863
607 1 -1.1104 3.86183 2.653 23.5091
608 2 2.2208 2.40242 1.40694 24.869
609 1 -1.1104 3.88528 -2.97713 26.0383
610 1 -1.1104 3.81749 2.79793 26.2947
611 2 2.2208 2.55996 -1.45219 21.9992
612 2 2.2208 2.44784 4.03934 22.0438
613 1 -1.1104 3.96175 -0.0404379 23.4847
614 1 -1.1104 3.79381 0.0382894 26.2468
400 1 -1.1104 6.52521 2.80414 20.5887
595 1 -1.1104 6.56994 2.76908 23.4981
561 1 -1.1104 9.48333 14.1559 23.416
594 1 -1.1104 6.69916 -3.0372 23.5481
601 1 -1.1104 6.7851 -0.1858 23.3988
605 1 -1.1104 6.506 0.0236667 26.1907
617 1 -1.1104 9.53929 16.9996 23.5038
437 1 -1.1104 12.3148 2.76407 20.8207
454 1 -1.1104 9.48532 -0.0982864 20.4967
435 1 -1.1104 12.3193 -2.97253 20.6732
449 1 -1.1104 9.41249 2.62132 20.5683
442 1 -1.1104 12.3464 -0.154953 20.6504
457 2 2.2208 -0.237483 15.4003 19.463
680 1 -1.1104 6.78967 16.8419 23.5308
598 1 -1.1104 6.60492 -2.83552 26.3349
447 1 -1.1104 9.52338 -2.87571 20.7474
408 1 -1.1104 6.66059 0.245306 20.5885
599 1 -1.1104 6.77326 2.69924 26.2689
627 2 2.2208 10.9423 1.23535 21.9892
628 1 -1.1104 12.3662 -2.91154 23.376
629 1 -1.1104 12.1309 2.71866 23.6537
630 1 -1.1104 12.2331 -2.85861 26.282
631 1 -1.1104 12.2359 2.8278 26.2484
632 1 -1.1104 12.1273 -0.126245 23.574
633 2 2.2208 10.8541 -1.47274 24.9133
634 2 2.2208 10.6748 4.27576 25.0449
635 1 -1.1104 12.1236 -0.122671 26.3377
636 1 -1.1104 9.60074 -2.88725 23.4172
637 1 -1.1104 9.27787 2.68212 23.4128
638 2 2.2208 8.01863 1.29465 24.8545
639 1 -1.1104 9.4803 -2.9022 26.3226
640 1 -1.1104 9.52671 2.67788 26.4006
641 2 2.2208 8.21714 -1.48057 22.1059
643 1 -1.1104 9.43593 -0.0490447 23.4012
644 1 -1.1104 9.25625 -0.179789 26.2663
642 2 2.2208 7.9733 4.08205 22.0294
524 1 -1.1104 12.2659 16.6852 23.5073
646 2 2.2208 -0.344621 15.3339 24.9133
372 2 2.2208 8.14055 4.19466 27.6077
489 1 -1.1104 3.75252 8.34956 20.6921
496 1 -1.1104 3.93317 11.1577 20.6889
494 1 -1.1104 3.85557 5.47763 20.6704
469 1 -1.1104 1.00073 8.27471 20.7653
478 1 -1.1104 1.10259 5.39756 20.7333
656 2 2.2208 5.33931 6.9506 22.0455
657 2 2.2208 5.3229 12.5511 22.0048
658 1 -1.1104 1.2095 8.24617 23.4909
660 1 -1.1104 1.20732 8.32237 26.2741
662 1 -1.1104 1.22287 5.63536 23.4244
663 1 -1.1104 1.147 11.0533 23.4897
666 2 2.2208 5.28918 9.65282 24.8958
667 1 -1.1104 0.94228 5.58499 26.2768
668 1 -1.1104 1.08309 11.0998 26.2032
671 1 -1.1104 4.0767 8.44317 23.4543
672 2 2.2208 2.53568 6.93634 24.9201
673 2 2.2208 2.46481 12.6235 24.9336
674 1 -1.1104 3.93904 8.41671 26.1703
675 2 2.2208 2.61024 9.73588 22.1759
676 1 -1.1104 4.01564 5.49341 23.4971
677 1 -1.1104 4.12719 11.1507 23.4527
678 1 -1.1104 3.77622 5.48236 26.3912
679 1 -1.1104 3.98819 11.2082 26.2429
661 1 -1.1104 6.84323 8.27812 26.4261
471 1 -1.1104 6.77111 8.31704 20.6848
670 1 -1.1104 6.63446 11.0616 26.2374
669 1 -1.1104 6.68226 5.49491 26.2014
664 1 -1.1104 6.67287 5.47993 23.4284
366 2 2.2208 2.46311 4.08121 27.6675
499 1 -1.1104 12.1873 19.6368 26.3042
357 2 2.2208 2.49069 18.0282 13.8061
504 1 -1.1104 12.4389 8.25708 20.7942
523 1 -1.1104 9.72409 11.2801 20.6109
526 2 2.2208 10.9073 21.1667 24.885
482 1 -1.1104 6.74977 5.59478 20.6876
665 1 -1.1104 6.78174 11.1483 23.4228
521 1 -1.1104 9.49479 5.53416 20.7624
516 1 -1.1104 9.5212 8.3246 20.7977
484 1 -1.1104 6.81138 11.0372 20.6535
511 1 -1.1104 12.4389 11.0367 20.7098
659 1 -1.1104 6.89096 8.40493 23.4957
687 1 -1.1104 9.41443 11.2494 26.3426
688 1 -1.1104 9.47663 5.63965 26.2601
689 1 -1.1104 9.65367 11.1689 23.4112
690 1 -1.1104 9.49419 5.58886 23.4811
691 2 2.2208 8.24261 9.78819 22.1276
692 1 -1.1104 9.59215 8.40125 26.2915
693 2 2.2208 8.11675 12.5981 24.7981
694 2 2.2208 8.1522 6.92947 24.8109
695 2 2.2208 11.0165 6.95172 22.0733
696 2 2.2208 11.0302 12.5114 22.0848
697 1 -1.1104 12.4863 8.43361 23.4474
698 1 -1.1104 12.4851 8.22081 26.1656
699 1 -1.1104 12.1833 5.50488 23.5857
700 1 -1.1104 12.2675 11.2072 23.5897
701 2 2.2208 10.9725 9.7192 24.9334
702 1 -1.1104 12.2514 5.53682 26.3875
703 1 -1.1104 12.2754 11.1215 26.3883
704 1 -1.1104 9.605 8.2559 23.4631
709 1 -1.1104 6.64036 14.0706 23.2664
588 1 -1.1104 6.59644 19.5202 26.2251
590 1 -1.1104 9.54661 19.6083 26.4994
533 1 -1.1104 1.22054 13.8147 20.8474
545 1 -1.1104 1.09898 16.7706 20.7705
559 1 -1.1104 3.81385 16.8207 20.8043
554 1 -1.1104 4.07218 19.5071 20.6636
647 2 2.2208 2.64329 15.2945 22.1217
649 2 2.2208 2.49348 20.9059 22.0822
652 1 -1.1104 3.91592 16.6768 23.5957
655 1 -1.1104 0.979331 16.7089 23.5565
681 1 -1.1104 4.01045 14.0432 26.1273
682 1 -1.1104 3.71513 16.7601 26.3396
683 2 2.2208 2.40697 18.0852 24.8201
686 1 -1.1104 3.83995 19.4514 26.2151
705 2 2.2208 5.24527 18.1268 22.1122
706 1 -1.1104 1.03954 13.8911 23.567
707 1 -1.1104 1.01741 19.4816 23.408
711 1 -1.1104 3.78969 19.4528 23.463
713 1 -1.1104 3.96969 13.8326 23.3928
715 1 -1.1104 1.09483 19.6053 26.1762
716 1 -1.1104 0.975419 16.798 26.3293
717 1 -1.1104 1.11648 13.9337 26.3348
719 2 2.2208 5.28499 20.9823 24.971
720 2 2.2208 5.31199 15.3417 24.791
718 1 -1.1104 6.70816 19.5831 23.505
498 1 -1.1104 12.2481 13.9734 26.3224
587 2 2.2208 8.15438 18.1876 24.9883
616 2 2.2208 8.05177 21.0077 22.1324
525 2 2.2208 10.9005 15.4053 24.9535
714 1 -1.1104 6.74288 16.7089 26.443
462 2 2.2208 10.8324 18.211 22.1115
497 1 -1.1104 12.2468 19.7473 23.6413
537 1 -1.1104 6.82168 13.837 20.6045
567 1 -1.1104 12.2957 13.9523 20.7435
621 2 2.2208 -0.326391 6.84862 16.6603
386 2 2.2208 10.8433 12.4774 27.6278
375 2 2.2208 2.53859 20.9655 27.709
335 2 2.2208 -0.204021 20.8684 13.7218
8858 2 2.2208 5.31624 -4.20169 27.5814
380 2 2.2208 2.65981 9.826 27.649
382 2 2.2208 -0.232655 12.5979 27.6909
364 2 2.2208 5.25314 1.34581 27.5772
342 2 2.2208 -0.204268 15.2741 13.8047
365 2 2.2208 2.41076 -1.44121 27.5777
381 2 2.2208 5.37787 12.4968 27.5606
383 2 2.2208 -0.329888 6.96438 27.6449
354 2 2.2208 8.05443 7.082 13.7073
341 2 2.2208 5.25553 4.19545 13.7564
352 2 2.2208 5.26002 9.7659 13.6781
346 2 2.2208 10.9113 -1.5705 13.7568
359 2 2.2208 5.32996 15.2654 13.8186
343 2 2.2208 7.95761 1.23072 13.7706
360 2 2.2208 10.9342 21.0161 13.7877
721 2 2.2208 5.2359 23.6027 5.26316
722 2 2.2208 5.19576 29.3901 5.20979
723 1 -1.1104 1.07274 25.1008 1.00204
724 1 -1.1104 1.14325 25.2258 3.81128
725 1 -1.1104 1.17495 22.2963 1.067
726 1 -1.1104 0.956161 28.059 1.16308
727 2 2.2208 5.33251 26.5366 2.42035
728 1 -1.1104 0.993282 22.4852 3.80533
729 1 -1.1104 1.00443 28.0002 3.7802
730 1 -1.1104 3.94045 25.1882 1.08842
731 2 2.2208 2.44546 23.8044 2.4522
732 2 2.2208 2.34568 29.444 2.44423
733 1 -1.1104 3.85127 25.0683 4.01816
734 2 2.2208 2.33572 26.5777 5.2147
735 1 -1.1104 3.87922 22.3584 1.09443
736 1 -1.1104 3.85823 27.8737 0.934335
737 1 -1.1104 3.78751 22.3099 3.9327
738 1 -1.1104 3.85558 28.018 3.76993
865 1 -1.1104 0.979154 28.0072 6.70663
743 1 -1.1104 6.84787 25.2588 3.76679
746 1 -1.1104 6.6865 22.3496 3.82233
863 1 -1.1104 6.58787 25.0596 6.62065
1633 1 -1.1104 12.309 47.6326 12.3126
1253 2 2.2208 10.7592 34.9692 -0.379873
745 1 -1.1104 6.61863 28.023 1.04638
862 1 -1.1104 0.977669 25.1434 6.68341
864 1 -1.1104 1.10107 22.3158 6.6262
868 1 -1.1104 3.74587 25.1606 6.65361
867 1 -1.1104 6.64619 27.8933 6.68476
1601 1 -1.1104 0.854163 47.4972 9.58541
747 1 -1.1104 6.63623 27.9512 3.911
744 1 -1.1104 6.60378 22.3997 0.870566
742 1 -1.1104 6.58112 25.1977 0.984027
748 2 2.2208 10.8813 23.7077 5.23458
749 2 2.2208 10.895 29.5212 5.26813
750 1 -1.1104 12.1738 25.1333 1.05949
751 1 -1.1104 12.2566 25.1162 3.97794
752 1 -1.1104 12.2368 22.301 0.984729
753 1 -1.1104 12.2887 27.9158 1.18671
754 2 2.2208 10.8455 26.5895 2.52428
755 1 -1.1104 12.2656 22.2547 3.73351
756 1 -1.1104 12.2561 28.0874 3.9262
757 1 -1.1104 9.29351 24.9202 0.937418
758 2 2.2208 8.07592 23.8428 2.44967
759 2 2.2208 7.96559 29.3712 2.52956
760 1 -1.1104 9.61092 25.2287 3.79511
761 2 2.2208 8.24035 26.575 5.26562
762 1 -1.1104 9.45994 22.3353 1.09999
763 1 -1.1104 9.44281 27.8311 1.09949
764 1 -1.1104 9.47366 22.3205 3.86764
765 1 -1.1104 9.41782 28.1718 3.98172
899 1 -1.1104 9.43841 22.2306 6.71863
900 1 -1.1104 9.26411 27.9092 6.74557
975 1 -1.1104 6.55289 44.9508 9.511
866 1 -1.1104 6.62354 22.3914 6.71897
896 1 -1.1104 12.3595 22.258 6.59748
898 1 -1.1104 9.60082 25.0467 6.64913
895 1 -1.1104 12.3223 25.1733 6.80927
1594 1 -1.1104 1.10871 47.7835 6.70435
841 2 2.2208 -0.317003 43.3594 2.36223
1026 1 -1.1104 12.2642 42.1445 9.58437
769 2 2.2208 5.31834 34.9699 5.28722
770 1 -1.1104 1.13548 30.931 1.08101
771 1 -1.1104 0.889998 36.4215 1.05271
773 1 -1.1104 1.02781 30.8774 3.76216
774 1 -1.1104 0.996866 36.2123 3.84489
776 1 -1.1104 1.08757 33.6498 0.984033
777 2 2.2208 5.23172 32.1182 2.58173
778 2 2.2208 5.2423 37.8225 2.31522
779 1 -1.1104 1.07458 33.5756 3.80772
781 1 -1.1104 3.86703 30.8604 1.09594
782 1 -1.1104 3.80278 36.3946 1.04022
783 2 2.2208 2.43693 34.8787 2.44791
784 1 -1.1104 3.78653 30.5993 3.91027
785 1 -1.1104 3.74164 36.3862 3.6712
786 2 2.2208 2.43945 32.1511 5.22319
787 2 2.2208 2.46526 37.6637 5.15757
788 1 -1.1104 3.75512 33.6551 0.930028
789 1 -1.1104 3.91408 33.6483 3.75143
793 1 -1.1104 6.53017 30.6863 1.0795
795 1 -1.1104 6.55763 33.633 1.2002
794 1 -1.1104 6.52074 30.7164 3.86348
919 1 -1.1104 0.994699 30.811 6.633
1061 2 2.2208 2.48844 37.7103 -0.321167
920 1 -1.1104 1.06224 36.2349 6.64203
925 1 -1.1104 3.69237 30.7362 6.77235
927 1 -1.1104 3.83124 33.601 6.63806
921 1 -1.1104 6.54694 30.6884 6.65976
924 1 -1.1104 6.82167 33.4951 6.7018
772 1 -1.1104 6.7157 36.3637 0.962323
922 1 -1.1104 6.68735 36.4733 6.50165
775 1 -1.1104 6.51191 36.3594 3.80956
780 1 -1.1104 6.60596 33.5208 3.95744
796 2 2.2208 10.9911 35.0642 5.36176
797 1 -1.1104 12.1876 30.8989 0.927998
798 1 -1.1104 12.2371 36.3784 0.825844
799 1 -1.1104 12.2936 30.7649 3.87504
800 1 -1.1104 12.2998 36.3197 3.69984
801 1 -1.1104 12.2682 33.5775 0.924684
802 2 2.2208 10.8863 32.1887 2.47025
803 2 2.2208 10.9065 37.8446 2.518
804 1 -1.1104 12.159 33.5891 3.96836
805 1 -1.1104 9.37066 30.6547 1.18971
806 1 -1.1104 9.56072 36.3627 1.03956
807 2 2.2208 7.95339 34.9996 2.56669