ITEM: TIMESTEP
50000
ITEM: NUMBER OF ATOMS
17700
ITEM: BOX BOUNDS pp pp pp
-3.5978469201337693e-01 2.7699784692013740e+01
-4.3623157106211359e+00 3.3244231571062340e+02
-3.6202064042264970e-01 2.7702020640422255e+01
ITEM: ATOMS id type q x y z
1 2 2.2208 5.1095 1.01081 5.13832
2 1 -1.1104 0.94305 -3.10929 1.13695
3 1 -1.1104 1.06037 2.40734 1.00755
6 1 -1.1104 0.936042 -3.2225 3.97059
7 1 -1.1104 0.765671 2.58585 3.75857
10 1 -1.1104 1.06298 -0.417699 1.19278
12 2 2.2208 5.11413 -1.58409 2.35505
13 2 2.2208 5.11795 3.972 2.49983
14 1 -1.1104 0.85965 -0.280182 3.91846
16 1 -1.1104 3.80614 -3.06498 1.01988
17 1 -1.1104 3.78793 2.57164 0.937576
18 2 2.2208 2.33241 1.10368 2.38045
19 1 -1.1104 3.58362 -3.1442 3.85461
20 1 -1.1104 3.67559 2.60788 3.60659
21 2 2.2208 2.12539 -1.73309 5.30298
23 1 -1.1104 3.82831 -0.266657 0.89487
24 1 -1.1104 3.68462 -0.335953 3.69038
22 2 2.2208 2.3086 3.97024 5.14338
15 1 -1.1104 6.52234 -0.130318 3.78531
5 1 -1.1104 6.54376 2.45826 1.1042
9 1 -1.1104 6.59411 2.67233 3.79106
168 1 -1.1104 6.64772 -2.99308 6.68018
11 1 -1.1104 6.59818 -0.320227 0.820865
174 1 -1.1104 3.61483 -0.269647 6.57202
172 1 -1.1104 3.73535 -3.04011 6.70319
170 1 -1.1104 0.785723 -0.260877 6.7582
169 1 -1.1104 6.36296 2.58643 6.41743
233 2 2.2208 13.5342 4.04848 5.2062
8 1 -1.1104 6.46805 -3.02198 3.89319
4 1 -1.1104 6.46196 -3.11447 1.13942
50 2 2.2208 13.5651 -1.4515 5.20401
31 2 2.2208 10.8137 1.25922 5.25491
32 1 -1.1104 12.0247 -2.76405 0.950504
33 1 -1.1104 12.0603 2.65177 0.951481
34 1 -1.1104 12.1562 -3.01171 3.74602
35 1 -1.1104 12.0249 2.64201 3.76353
36 1 -1.1104 11.9911 -0.137887 1.11901
37 2 2.2208 10.643 -1.68803 2.40404
39 1 -1.1104 12.1914 -0.0868821 3.89931
40 1 -1.1104 9.31183 -3.1002 1.02306
41 1 -1.1104 9.28037 2.64966 0.856331
42 2 2.2208 7.9367 1.18904 2.40731
43 1 -1.1104 9.3643 -3.12865 3.91608
44 1 -1.1104 9.29861 2.62358 3.78444
45 2 2.2208 7.93412 -1.73803 5.1425
46 2 2.2208 7.92763 4.08827 5.12682
47 1 -1.1104 9.26909 -0.31378 0.952436
48 1 -1.1104 9.40956 -0.302582 3.67093
38 2 2.2208 10.6718 3.97904 2.31289
207 1 -1.1104 12.0053 -0.161813 6.72809
311 2 2.2208 -0.586959 20.8496 8.05994
330 1 -1.1104 11.9732 13.7964 12.3306
206 1 -1.1104 12.1663 2.61882 6.64423
209 1 -1.1104 9.26818 2.67871 6.6347
205 1 -1.1104 12.1661 -3.02148 6.60433
49 2 2.2208 13.4628 1.19728 2.35467
54 2 2.2208 5.12857 6.83185 5.17503
55 2 2.2208 5.12442 12.4136 5.2376
56 1 -1.1104 0.971315 8.20705 1.00503
58 1 -1.1104 0.908734 8.13243 3.86269
60 1 -1.1104 0.940479 5.33909 1.01398
61 1 -1.1104 1.09284 11.0837 0.956782
66 2 2.2208 5.17225 9.58359 2.46793
67 1 -1.1104 0.860118 5.35968 3.80619
68 1 -1.1104 0.899326 10.927 3.71196
71 1 -1.1104 3.85625 8.11442 0.942564
72 2 2.2208 2.4467 6.79417 2.28519
73 2 2.2208 2.29386 12.4152 2.4728
74 1 -1.1104 3.64709 8.20038 3.64566
75 2 2.2208 2.31304 9.57501 5.18756
76 1 -1.1104 3.8707 5.23346 1.03521
77 1 -1.1104 3.71125 10.9264 1.10545
79 1 -1.1104 3.6291 5.39809 3.95278
80 1 -1.1104 3.68906 10.9894 3.8083
63 1 -1.1104 6.67559 5.49496 1.0082
62 1 -1.1104 0.85914 11.0028 6.50866
69 1 -1.1104 6.44921 5.47424 3.81509
64 1 -1.1104 6.4979 11.0394 1.00517
70 1 -1.1104 6.58276 10.9815 3.87435
59 1 -1.1104 6.57034 8.12047 3.93259
57 1 -1.1104 6.57419 8.27962 1.13247
234 1 -1.1104 0.928181 8.28966 6.55807
238 1 -1.1104 3.60847 8.154 6.53911
317 2 2.2208 7.84392 15.2484 10.892
165 2 2.2208 13.5589 17.9534 2.33165
332 2 2.2208 13.6523 18.0437 8.16665
104 2 2.2208 13.5191 12.487 2.4491
232 2 2.2208 13.548 9.69666 5.24325
84 2 2.2208 10.7643 6.87285 5.24799
85 2 2.2208 10.6763 12.3562 5.23113
86 1 -1.1104 12.0888 8.21084 0.906817
87 1 -1.1104 12.097 8.22701 3.79597
88 1 -1.1104 12.1302 5.49755 0.909784
89 1 -1.1104 12.1814 11.0017 0.992942
91 2 2.2208 10.72 9.62365 2.30332
92 1 -1.1104 12.1135 5.32325 3.69767
93 1 -1.1104 11.9463 10.8766 3.78304
94 1 -1.1104 9.2909 8.13103 0.9229
95 2 2.2208 8.03268 6.78628 2.38092
96 2 2.2208 7.86303 12.3803 2.47751
97 1 -1.1104 9.26269 8.25836 3.72113
98 2 2.2208 7.91868 9.55403 5.22032
99 1 -1.1104 9.33472 5.37398 1.00118
100 1 -1.1104 9.41355 11.0805 0.994811
102 1 -1.1104 9.36312 5.3913 3.75746
103 1 -1.1104 9.23536 10.9555 3.76252
266 1 -1.1104 12.1108 5.35472 6.71817
204 2 2.2208 13.4805 15.2716 5.19291
269 1 -1.1104 9.33941 5.58151 6.71085
90 1 -1.1104 12.0302 10.9731 6.6467
267 1 -1.1104 9.3429 8.11576 6.66587
315 1 -1.1104 9.32448 16.5216 12.4005
231 2 2.2208 13.6584 20.8825 5.27594
203 2 2.2208 13.5003 4.0957 10.8165
17388 2 2.2208 13.3951 -4.41539 13.8194
8844 2 2.2208 13.448 -4.48294 2.42534
106 2 2.2208 5.2043 17.968 5.32747
107 1 -1.1104 0.995448 13.8513 1.06186
109 1 -1.1104 0.830003 19.4717 1.1136
113 1 -1.1104 0.788914 13.8148 3.80012
114 1 -1.1104 0.993395 19.3853 3.92191
116 1 -1.1104 0.914327 16.7093 1.10286
119 2 2.2208 5.00814 15.1136 2.46427
120 2 2.2208 5.07541 20.8587 2.487
121 1 -1.1104 0.831876 16.5929 3.86076
123 1 -1.1104 3.65954 13.77 1.11383
125 1 -1.1104 3.80275 19.2864 1.15517
127 2 2.2208 2.26246 18.0196 2.4471
128 1 -1.1104 3.59715 13.7807 3.94242
129 1 -1.1104 3.6841 19.4137 3.75907
130 2 2.2208 2.30361 15.2145 5.25576
131 2 2.2208 2.24417 20.7281 5.28793
132 1 -1.1104 3.77106 16.5028 1.01549
134 1 -1.1104 3.6492 16.6403 3.82605
115 1 -1.1104 6.36445 13.834 3.85759
139 1 -1.1104 6.54072 19.2624 3.86506
138 1 -1.1104 6.54043 19.347 1.0758
122 1 -1.1104 6.46705 16.4596 4.02608
140 1 -1.1104 6.45961 16.5838 1.13975
118 1 -1.1104 6.47657 16.5361 6.82171
333 2 2.2208 13.5368 15.268 10.7545
110 1 -1.1104 6.56318 13.7504 1.07841
141 2 2.2208 10.6917 18.1026 5.18726
142 1 -1.1104 12.1796 13.8429 1.05518
144 1 -1.1104 12.1945 19.4737 0.988149
146 1 -1.1104 12.0653 13.6916 3.82408
147 1 -1.1104 12.0481 19.4168 3.81369
148 1 -1.1104 12.1965 16.6234 1.01663
150 2 2.2208 10.6787 15.1931 2.41024
151 2 2.2208 10.816 20.8191 2.43582
152 1 -1.1104 12.0945 16.616 3.87354
153 1 -1.1104 9.24215 13.7973 1.08316
155 1 -1.1104 9.2993 19.4079 1.19124
157 2 2.2208 7.86577 17.9628 2.50899
158 1 -1.1104 9.22877 13.8303 4.02586
159 1 -1.1104 9.41016 19.523 3.74683
160 2 2.2208 7.86005 15.1823 5.30223
161 2 2.2208 7.92442 20.7476 5.14721
162 1 -1.1104 9.35403 16.6994 0.993952
164 1 -1.1104 9.31569 16.5035 3.86747
8848 2 2.2208 7.83396 -4.52912 8.03406
163 1 -1.1104 9.16898 16.6518 6.68908
8839 2 2.2208 2.41024 -4.46243 2.47895
156 1 -1.1104 9.38574 19.3951 6.48824
373 2 2.2208 2.19608 15.1432 -0.384536
319 1 -1.1104 9.32436 13.8785 9.41815
105 2 2.2208 13.5236 6.80848 2.44246
229 2 2.2208 13.5853 1.16469 8.08054
324 2 2.2208 10.7572 20.8459 8.0233
8850 2 2.2208 13.3775 -4.41905 8.14523
171 1 -1.1104 6.50137 -0.299619 6.52717
166 1 -1.1104 0.891256 -2.99867 6.70621
173 1 -1.1104 3.55042 2.53091 6.59751
167 1 -1.1104 0.862939 2.64226 6.57747
175 2 2.2208 5.0338 1.18749 10.8634
176 1 -1.1104 0.823537 -3.05654 12.2709
177 1 -1.1104 0.852399 2.52844 12.0894
180 1 -1.1104 0.796422 -3.06104 9.60177
181 1 -1.1104 0.808259 2.47498 9.4082
184 1 -1.1104 0.917698 -0.168082 12.3981
186 2 2.2208 5.03901 -1.64705 8.0673
187 2 2.2208 5.08479 3.87399 7.92717
188 1 -1.1104 0.857385 -0.263172 9.37497
190 1 -1.1104 3.70442 -3.19882 12.1946
191 1 -1.1104 3.68914 2.54316 12.1937
192 2 2.2208 2.25504 1.13825 8.10307
193 1 -1.1104 3.66978 -2.90831 9.35981
194 1 -1.1104 3.63874 2.56022 9.31377
195 2 2.2208 2.29937 -1.56625 10.9463
196 2 2.2208 2.32691 3.94475 10.7912
197 1 -1.1104 3.65656 -0.141846 12.3032
198 1 -1.1104 3.54339 -0.214144 9.46037
182 1 -1.1104 6.40303 -3.06212 9.39592
179 1 -1.1104 6.51209 2.47088 12.3304
189 1 -1.1104 6.37939 -0.233549 9.44663
185 1 -1.1104 6.4688 -0.194072 12.1732
326 1 -1.1104 12.1802 16.4983 12.3154
328 1 -1.1104 12.0533 13.9933 9.54652
154 1 -1.1104 9.34895 13.8267 6.71905
149 1 -1.1104 12.1113 16.6672 6.55827
183 1 -1.1104 6.48941 2.56689 9.39545
178 1 -1.1104 6.47705 -3.14861 12.3076
230 2 2.2208 13.4468 -1.60048 10.8129
210 1 -1.1104 9.24366 -0.173195 6.5318
208 1 -1.1104 9.39012 -3.03995 6.6269
211 2 2.2208 10.6246 1.35294 10.8027
212 1 -1.1104 12.1464 -3.04256 12.3604
213 1 -1.1104 11.9947 2.67464 12.332
214 1 -1.1104 11.8892 -3.07849 9.58
215 1 -1.1104 12.0008 2.62683 9.54977
216 1 -1.1104 12.0789 -0.256717 12.2262
217 2 2.2208 10.6641 -1.63492 7.85988
219 1 -1.1104 12.0823 -0.201084 9.45747
220 1 -1.1104 9.24349 -2.88382 12.2204
221 1 -1.1104 9.32764 2.77306 12.289
222 2 2.2208 7.76631 1.189 7.97126
223 1 -1.1104 9.24383 -2.68124 9.20184
224 1 -1.1104 9.25744 2.79195 9.4543
225 2 2.2208 7.93269 -1.57849 10.711
227 1 -1.1104 9.36109 -0.162983 12.2168
228 1 -1.1104 9.09171 -0.0153822 9.42956
226 2 2.2208 7.96322 4.03106 10.7768
218 2 2.2208 10.7003 4.01614 8.06984
8849 2 2.2208 10.5578 -4.30807 10.8427
145 1 -1.1104 12.3932 19.4591 6.62688
321 1 -1.1104 9.36354 19.3402 12.1292
236 1 -1.1104 0.960805 5.40231 6.60491
239 1 -1.1104 3.79305 5.36562 6.44138
78 1 -1.1104 3.63001 11.0246 6.38668
240 2 2.2208 5.06653 6.73073 10.668
241 2 2.2208 4.98509 12.2687 10.8474
242 1 -1.1104 0.772945 8.10277 12.2079
244 1 -1.1104 0.88968 8.09164 9.4425
246 1 -1.1104 0.945597 5.21828 12.3282
247 1 -1.1104 0.77195 10.9438 12.345
250 2 2.2208 5.05679 9.62337 7.94301
251 1 -1.1104 0.960098 5.33812 9.36494
252 1 -1.1104 0.83714 10.9577 9.55998
255 1 -1.1104 3.75492 8.14425 12.2029
256 2 2.2208 2.28749 6.67134 8.10511
257 2 2.2208 2.2138 12.4117 8.00809
258 1 -1.1104 3.64032 8.12908 9.4334
259 2 2.2208 2.30081 9.48831 10.8227
260 1 -1.1104 3.58737 5.37506 12.3629
261 1 -1.1104 3.707 10.9147 12.2603
262 1 -1.1104 3.76337 5.31835 9.44902
263 1 -1.1104 3.68177 10.8462 9.23952
248 1 -1.1104 6.38367 5.15735 12.1993
254 1 -1.1104 6.45009 10.8404 9.39739
249 1 -1.1104 6.35235 10.9435 12.2854
65 1 -1.1104 6.42243 11.1298 6.61885
245 1 -1.1104 6.4224 8.06026 9.33935
243 1 -1.1104 6.45719 8.01972 12.12
253 1 -1.1104 6.40297 5.26939 9.39208
237 1 -1.1104 6.61595 5.46196 6.55979
323 1 -1.1104 12.1793 16.6844 9.40196
53 2 2.2208 13.3867 12.4545 7.93488
235 1 -1.1104 6.42385 8.21116 6.53658
202 2 2.2208 13.4653 6.8113 8.06559
265 1 -1.1104 12.0758 8.15112 6.60338
101 1 -1.1104 9.18513 10.9703 6.5489
264 1 -1.1104 9.16835 11.1174 9.38638
268 1 -1.1104 9.34449 5.47858 9.33236
270 1 -1.1104 9.2128 10.9618 12.2336
271 1 -1.1104 9.17938 5.51619 12.2837
272 2 2.2208 7.87578 9.62474 10.7468
273 1 -1.1104 9.23978 8.25485 9.38793
274 2 2.2208 7.78702 12.4778 7.98641
275 2 2.2208 7.81499 6.76838 8.03965
276 2 2.2208 10.7361 6.83484 10.7861
277 2 2.2208 10.6667 12.4453 10.8687
278 1 -1.1104 12.0503 8.27483 12.1337
279 1 -1.1104 12.0565 8.24484 9.42468
280 1 -1.1104 11.9951 5.55788 12.2981
281 1 -1.1104 12.0742 11.0643 12.2071
282 2 2.2208 10.527 9.6671 8.03422
283 1 -1.1104 12.0828 5.54301 9.44966
284 1 -1.1104 11.9726 11.1928 9.48322
285 1 -1.1104 9.19968 8.28183 12.0614
52 2 2.2208 13.4809 9.80048 10.8344
348 2 2.2208 10.6675 18.1004 -0.335331
340 2 2.2208 13.4593 1.34302 13.5734
387 2 2.2208 13.469 9.62328 -0.357068
126 1 -1.1104 3.87115 19.3568 6.57643
306 1 -1.1104 6.44571 16.6098 12.3541
296 1 -1.1104 6.69101 19.2599 12.3888
108 1 -1.1104 0.849771 13.7591 6.70968
111 1 -1.1104 6.47038 13.8752 6.50598
133 1 -1.1104 3.75748 16.6349 6.61841
290 1 -1.1104 6.50693 13.8075 9.34493
302 1 -1.1104 0.903072 19.2949 6.61335
117 1 -1.1104 0.86847 16.555 6.77825
124 1 -1.1104 3.65365 13.8402 6.64039
305 1 -1.1104 3.7338 13.7555 9.39648
300 2 2.2208 5.05701 18.0172 10.9412
299 1 -1.1104 0.823299 13.6794 12.43
298 1 -1.1104 0.979324 19.2513 12.2101
292 1 -1.1104 0.838857 16.5881 9.56614
294 1 -1.1104 0.739974 13.8523 9.40808
287 1 -1.1104 3.66437 13.7849 12.3198
291 1 -1.1104 0.834199 19.4536 9.34789
303 2 2.2208 2.29707 17.9899 8.03179
304 1 -1.1104 3.6054 16.6516 9.39684
286 1 -1.1104 3.75417 19.4819 12.1066
301 1 -1.1104 3.70079 19.3093 9.4262
310 2 2.2208 2.28472 15.2078 10.8585
293 2 2.2208 4.97382 20.8503 8.12303
309 2 2.2208 2.24411 20.7741 10.7864
308 1 -1.1104 3.61302 16.6751 12.1378
307 1 -1.1104 0.828075 16.4707 12.202
295 2 2.2208 5.03082 15.21 8.02468
289 1 -1.1104 6.41423 16.7081 9.45729
297 1 -1.1104 6.43231 13.7464 12.2444
112 1 -1.1104 6.46666 19.4711 6.60275
325 2 2.2208 10.6695 15.2875 8.00244
327 1 -1.1104 12.1786 19.4731 9.45575
318 1 -1.1104 9.414 19.2986 9.22756
329 1 -1.1104 12.2213 19.1394 12.149
331 2 2.2208 10.7234 17.8873 10.745
314 1 -1.1104 9.25895 16.5873 9.43319
316 2 2.2208 7.93618 20.8026 10.7866
322 1 -1.1104 9.29082 13.8142 12.2018
288 1 -1.1104 6.49854 19.4126 9.56301
320 2 2.2208 7.78737 17.9487 8.16082
143 1 -1.1104 12.1898 13.8913 6.77281
361 2 2.2208 10.7797 15.3081 13.6623
363 2 2.2208 13.7094 17.876 13.7608
338 2 2.2208 5.00711 -1.64198 13.6879
28 2 2.2208 13.6 20.784 10.9398
362 2 2.2208 8.02689 18.028 13.819
354 2 2.2208 7.84539 6.84901 13.5411
355 2 2.2208 10.6366 9.59928 13.6108
364 2 2.2208 5.18657 1.21053 -0.490667
346 2 2.2208 10.6958 -1.46929 13.6054
352 2 2.2208 5.0437 9.5442 13.7504
357 2 2.2208 2.41939 18.0242 13.6752
345 2 2.2208 13.53 20.8397 -0.419051
350 2 2.2208 10.6253 4.13737 13.6664
375 2 2.2208 2.3832 20.7233 -0.294088
378 2 2.2208 13.4469 4.06663 -0.3881
374 2 2.2208 5.21517 17.9783 -0.339269
369 2 2.2208 10.6519 1.10753 -0.459429
349 2 2.2208 7.87096 20.896 -0.415785
343 2 2.2208 7.94394 1.16088 13.6371
377 2 2.2208 13.5552 -1.51083 -0.340493
388 2 2.2208 5.04886 1.17395 16.4724
389 1 -1.1104 0.926848 -2.96477 17.8958
390 1 -1.1104 1.11083 2.44033 17.9502
393 1 -1.1104 0.725345 -3.12974 15.1055
395 1 -1.1104 0.882511 2.5561 15.0614
401 1 -1.1104 0.771101 -0.241569 17.8987
403 2 2.2208 5.01074 -1.66806 19.3179
404 2 2.2208 5.10314 4.06528 19.2821
405 1 -1.1104 0.941024 -0.139958 15.0746
409 1 -1.1104 3.71125 -3.12416 17.9209
410 1 -1.1104 3.76996 2.46505 17.8023
411 2 2.2208 2.39271 1.19099 19.275
412 1 -1.1104 3.48869 -2.75236 15.0694
414 1 -1.1104 3.59186 2.58269 14.9838
416 2 2.2208 2.24668 -1.51951 16.4479
417 2 2.2208 2.16552 3.988 16.4598
418 1 -1.1104 3.72557 -0.259621 17.8648
419 1 -1.1104 3.6031 -0.222282 15.0399
391 1 -1.1104 6.37471 -3.08575 17.838
399 1 -1.1104 6.47475 2.60641 15.0778
392 1 -1.1104 6.45757 2.5738 17.877
415 1 -1.1104 3.76725 2.71314 20.691
397 1 -1.1104 6.38394 -2.99995 15.1098
402 1 -1.1104 6.48926 -0.214604 17.8039
407 1 -1.1104 6.44007 -0.23606 14.8663
398 1 -1.1104 6.52031 -2.99412 20.7363
408 1 -1.1104 6.49328 -0.0963558 20.5206
8906 2 2.2208 13.5709 -4.45221 24.8922
376 2 2.2208 13.4517 12.5968 13.6279
429 2 2.2208 13.4872 4.03446 16.4518
431 2 2.2208 10.7409 1.26149 16.3861
432 1 -1.1104 12.1925 -2.88058 17.8584
433 1 -1.1104 12.16 2.52023 17.8093
434 1 -1.1104 12.0718 -3.0897 15.1187
436 1 -1.1104 12.0511 2.66387 15.0527
438 1 -1.1104 11.9619 -0.0590448 17.7553
439 2 2.2208 10.6359 -1.56212 19.2492
440 2 2.2208 10.6563 3.95947 19.2149
441 1 -1.1104 12.1965 -0.176052 14.9455
443 1 -1.1104 9.30562 -3.0838 17.8972
444 1 -1.1104 9.29889 2.59325 17.8871
445 2 2.2208 7.93353 1.10404 19.2435
446 1 -1.1104 9.27522 -2.95784 15.1608
448 1 -1.1104 9.26757 2.57686 15.0353
450 2 2.2208 7.77001 -1.59498 16.4588
452 1 -1.1104 9.23535 -0.369277 17.7595
453 1 -1.1104 9.39422 -0.253025 15.0585
451 2 2.2208 7.8618 3.86883 16.5454
366 2 2.2208 2.29621 3.95261 27.713
428 2 2.2208 13.4306 1.2451 19.2525
437 1 -1.1104 12.0685 2.63207 20.6696
435 1 -1.1104 12.1121 -2.99802 20.6156
459 2 2.2208 13.5194 -1.59439 16.3726
455 2 2.2208 13.5361 18.0267 25.029
356 2 2.2208 7.79086 12.3498 13.5205
653 2 2.2208 13.617 -1.62548 22.1303
422 2 2.2208 13.4215 9.51323 22.0617
464 2 2.2208 5.06274 6.8623 16.4307
465 2 2.2208 4.99111 12.5714 16.5135
466 1 -1.1104 0.832933 8.21771 17.9629
468 1 -1.1104 0.910407 8.09602 15.0759
472 1 -1.1104 1.02051 5.39281 17.8242
473 1 -1.1104 0.979427 10.9735 17.7156
476 2 2.2208 5.23641 9.63593 19.1974
477 1 -1.1104 0.784647 5.23967 15.1936
479 1 -1.1104 0.828247 10.9096 15.0135
485 1 -1.1104 3.69434 8.14603 17.8989
486 2 2.2208 2.354 6.77908 19.2375
487 2 2.2208 2.39151 12.3501 19.3086
488 1 -1.1104 3.79603 8.26156 15.0813
490 2 2.2208 2.34223 9.55393 16.5663
491 1 -1.1104 3.70283 5.47147 17.8804
492 1 -1.1104 3.74294 11.0649 17.9668
493 1 -1.1104 3.57512 5.54766 15.1454
495 1 -1.1104 3.6792 11.0036 15.1238
483 1 -1.1104 6.57948 10.9993 15.0937
481 1 -1.1104 6.46221 5.4017 15.069
474 1 -1.1104 6.41865 5.32295 17.8717
475 1 -1.1104 6.47911 11.099 17.7628
381 2 2.2208 5.09693 12.4112 27.8127
489 1 -1.1104 3.93696 8.34663 20.6498
469 1 -1.1104 0.87937 8.03245 20.6379
482 1 -1.1104 6.54973 5.4455 20.6205
484 1 -1.1104 6.47261 10.923 20.6263
654 2 2.2208 13.4439 1.21537 24.88
365 2 2.2208 2.40516 -1.6902 27.7232
351 2 2.2208 2.28067 6.7009 13.7056
470 1 -1.1104 6.52228 8.24372 15.0646
467 1 -1.1104 6.62279 8.29698 17.8995
651 2 2.2208 13.5669 6.87317 19.3146
500 2 2.2208 10.6123 6.68062 16.4102
501 2 2.2208 10.6994 12.367 16.423
502 1 -1.1104 12.2484 8.16307 17.9902
503 1 -1.1104 12.0081 8.28112 15.0774
505 1 -1.1104 12.0156 5.27464 17.7317
506 1 -1.1104 12.007 11.0965 17.8917
507 2 2.2208 10.749 9.67038 19.3282
508 1 -1.1104 12.1374 5.49295 15.0066
510 1 -1.1104 12.1332 10.9719 14.867
512 1 -1.1104 9.32274 8.12573 17.72
513 2 2.2208 7.98374 6.89475 19.1532
514 2 2.2208 7.89492 12.4602 19.2707
515 1 -1.1104 9.25448 8.11435 14.8911
517 2 2.2208 7.87286 9.66262 16.4257
518 1 -1.1104 9.30418 5.38168 17.8268
519 1 -1.1104 9.26442 10.938 17.9032
520 1 -1.1104 9.29588 5.30629 15.0519
522 1 -1.1104 9.33031 10.8647 14.9746
650 2 2.2208 13.5517 12.5248 19.2293
423 2 2.2208 13.4836 3.98791 22.1715
509 1 -1.1104 12.229 5.45131 20.5787
511 1 -1.1104 12.0672 11.1262 20.7111
521 1 -1.1104 9.27541 5.34585 20.5901
426 2 2.2208 13.4777 9.6702 16.4633
526 2 2.2208 10.6839 20.9041 24.8611
527 2 2.2208 5.12654 17.9562 16.4554
528 1 -1.1104 0.904448 13.7837 17.968
529 1 -1.1104 0.860991 19.3275 17.7683
532 1 -1.1104 0.927035 13.8592 15.059
534 1 -1.1104 0.921518 19.4601 15.0885
540 1 -1.1104 0.968859 16.6155 17.9717
542 2 2.2208 5.04776 15.3159 19.1975
543 2 2.2208 5.0484 20.8969 19.3124
544 1 -1.1104 0.854865 16.5855 15.1357
548 1 -1.1104 3.73201 13.8537 17.7553
549 1 -1.1104 3.76797 19.4877 18.0346
550 2 2.2208 2.29971 18.0635 19.3679
551 1 -1.1104 3.68073 14.0372 15.0001
553 1 -1.1104 3.75469 19.5735 15.0244
555 2 2.2208 2.17953 15.2653 16.456
556 2 2.2208 2.35426 20.8452 16.4784
557 1 -1.1104 3.65266 16.7089 17.7606
558 1 -1.1104 3.71443 16.7879 15.0988
538 1 -1.1104 6.53907 19.3797 15.107
531 1 -1.1104 6.50487 19.3734 17.7961
541 1 -1.1104 6.51717 16.6057 17.8142
536 1 -1.1104 6.50428 13.9279 15.0256
545 1 -1.1104 0.938437 16.6294 20.7116
537 1 -1.1104 6.48663 13.8005 20.6144
559 1 -1.1104 3.5875 16.5932 20.5912
533 1 -1.1104 0.878141 13.6417 20.7832
569 1 -1.1104 12.1026 19.4357 20.7318
530 1 -1.1104 6.47625 13.8435 17.8467
546 1 -1.1104 6.64046 16.5955 15.0124
618 2 2.2208 13.6389 18.0758 19.3468
563 2 2.2208 10.8907 17.9886 16.454
564 1 -1.1104 12.225 13.871 17.7694
565 1 -1.1104 12.2048 19.5761 17.9782
566 1 -1.1104 12.0287 13.8429 15.0452
568 1 -1.1104 12.2464 19.4269 14.996
570 1 -1.1104 12.1721 16.7306 17.9386
571 2 2.2208 10.7588 15.2724 19.3024
572 2 2.2208 10.6677 20.757 19.3777
573 1 -1.1104 12.2685 16.5956 15.0858
575 1 -1.1104 9.36366 13.8328 17.9356
576 1 -1.1104 9.30429 19.3757 17.9355
577 2 2.2208 7.90039 17.9125 19.3922
578 1 -1.1104 9.33614 13.8242 15.1305
580 1 -1.1104 9.51357 19.4088 15.0473
582 2 2.2208 7.99116 15.17 16.48
583 2 2.2208 7.92024 20.7755 16.5769
584 1 -1.1104 9.3422 16.5493 17.8657
585 1 -1.1104 9.45791 16.6383 15.1916
574 1 -1.1104 12.3773 16.9018 20.856
579 1 -1.1104 9.21453 13.8424 20.7645
567 1 -1.1104 12.1599 13.9547 20.5461
619 2 2.2208 13.6274 15.1925 16.5348
497 1 -1.1104 12.1591 19.5864 23.5692
581 1 -1.1104 9.2146 19.4718 20.6322
499 1 -1.1104 12.1369 19.4855 26.2877
498 1 -1.1104 12.0872 13.891 26.292
394 1 -1.1104 0.918421 -2.95283 20.7448
562 1 -1.1104 9.29454 19.5182 23.5888
590 1 -1.1104 9.39993 19.5297 26.3529
430 2 2.2208 13.6288 15.243 22.1777
406 1 -1.1104 0.989226 -0.312017 20.6703
413 1 -1.1104 3.61269 -2.9042 20.9252
400 1 -1.1104 6.62169 2.66089 20.6055
396 1 -1.1104 0.933644 2.57833 20.711
420 1 -1.1104 3.62213 -0.190058 20.5559
591 2 2.2208 5.02237 1.19105 21.921
592 1 -1.1104 0.912468 -3.01035 23.6357
593 1 -1.1104 1.02488 2.5652 23.4391
596 1 -1.1104 0.916568 -2.9226 26.3733
597 1 -1.1104 0.949376 2.60908 26.2741
600 1 -1.1104 0.850109 -0.176504 23.4589
602 2 2.2208 5.04789 -1.52352 24.7894
603 2 2.2208 5.03008 3.99644 24.8995
604 1 -1.1104 1.02043 -0.103375 26.3587
606 1 -1.1104 3.73439 -2.98334 23.5908
607 1 -1.1104 3.6789 2.57518 23.4806
608 2 2.2208 2.32658 1.19207 24.8809
609 1 -1.1104 3.62175 -3.0262 26.272
610 1 -1.1104 3.69853 2.62088 26.2964
611 2 2.2208 2.28135 -1.54236 22.1014
612 2 2.2208 2.3037 4.02737 22.0963
613 1 -1.1104 3.70244 -0.240028 23.3988
614 1 -1.1104 3.6998 -0.20434 26.3253
594 1 -1.1104 6.65479 -2.9185 23.4456
599 1 -1.1104 6.64571 2.63525 26.2497
601 1 -1.1104 6.53591 -0.185334 23.3363
605 1 -1.1104 6.41731 -0.12679 26.1696
617 1 -1.1104 9.36196 16.7213 23.5652
447 1 -1.1104 9.20039 -2.89282 20.6619
589 1 -1.1104 9.40623 13.9502 26.4048
598 1 -1.1104 6.41891 -2.94043 26.2745
454 1 -1.1104 9.31104 -0.134947 20.6229
449 1 -1.1104 9.39653 2.59068 20.6712
442 1 -1.1104 12.0449 -0.242026 20.6254
586 1 -1.1104 9.4556 16.5397 20.8067
595 1 -1.1104 6.42837 2.53185 23.452
627 2 2.2208 10.7908 1.26301 21.9721
628 1 -1.1104 12.1818 -2.90293 23.4562
629 1 -1.1104 11.995 2.42476 23.4
630 1 -1.1104 12.2375 -3.08815 26.297
631 1 -1.1104 12.1312 2.59846 26.2311
632 1 -1.1104 12.1762 -0.114084 23.3627
633 2 2.2208 10.7807 -1.71524 24.8639
634 2 2.2208 10.7392 3.96876 24.9295
635 1 -1.1104 11.9652 -0.268134 26.1753
636 1 -1.1104 9.25606 -3.12334 23.4619
637 1 -1.1104 9.24562 2.67392 23.488
638 2 2.2208 7.98504 1.17023 24.7987
639 1 -1.1104 9.32983 -3.00443 26.3375
640 1 -1.1104 9.40574 2.59072 26.2408
641 2 2.2208 7.9214 -1.61022 22.0462
643 1 -1.1104 9.24647 -0.36604 23.4484
644 1 -1.1104 9.1639 -0.251911 26.1816
642 2 2.2208 7.80058 4.05974 22.0272
524 1 -1.1104 11.9711 16.6778 23.5678
587 2 2.2208 7.85391 18.0455 24.9243
560 1 -1.1104 11.9701 16.6027 26.3929
712 1 -1.1104 6.41676 13.8977 26.4026
478 1 -1.1104 0.778427 5.39773 20.6351
496 1 -1.1104 3.81646 11.1118 20.5552
480 1 -1.1104 1.03138 10.8825 20.6641
471 1 -1.1104 6.63477 8.15511 20.6443
494 1 -1.1104 3.66568 5.49132 20.6871
656 2 2.2208 5.14514 6.84223 22.0799
657 2 2.2208 5.0872 12.3522 22.1061
658 1 -1.1104 0.929788 8.0726 23.4578
660 1 -1.1104 1.05972 8.24817 26.1302
662 1 -1.1104 0.919453 5.34225 23.5396
663 1 -1.1104 0.899858 11.0244 23.4995
666 2 2.2208 5.17746 9.56342 24.887
667 1 -1.1104 0.865413 5.35677 26.324
668 1 -1.1104 0.83627 10.9892 26.2842
671 1 -1.1104 3.73029 8.16835 23.3735
672 2 2.2208 2.439 6.74302 24.9001
673 2 2.2208 2.30836 12.272 24.9122
674 1 -1.1104 3.92801 8.08967 26.1429
675 2 2.2208 2.32769 9.58074 22.0632
676 1 -1.1104 3.84397 5.4177 23.563
677 1 -1.1104 3.69073 10.9547 23.4228
678 1 -1.1104 3.73106 5.34148 26.3947
679 1 -1.1104 3.69138 10.902 26.3007
665 1 -1.1104 6.45208 11.0049 23.5356
670 1 -1.1104 6.518 11.0922 26.1835
659 1 -1.1104 6.64759 8.21922 23.4261
661 1 -1.1104 6.61328 8.2437 26.3103
669 1 -1.1104 6.55704 5.29916 26.3005
525 2 2.2208 10.5696 15.2968 24.8426
710 2 2.2208 13.4772 6.77945 24.8699
708 2 2.2208 13.593 12.4014 24.8459
561 1 -1.1104 9.16411 13.7358 23.4934
504 1 -1.1104 12.2103 8.18533 20.7421
523 1 -1.1104 9.29984 11.0419 20.7692
516 1 -1.1104 9.42679 8.2602 20.6215
664 1 -1.1104 6.49407 5.38831 23.4225
687 1 -1.1104 9.31783 11.1377 26.2502
688 1 -1.1104 9.28747 5.30962 26.2647
689 1 -1.1104 9.36025 11.025 23.5184
690 1 -1.1104 9.38756 5.43372 23.5653
691 2 2.2208 7.9476 9.63038 22.0116
692 1 -1.1104 9.44505 8.21834 26.3697
693 2 2.2208 7.78913 12.5018 24.9116
694 2 2.2208 8.07009 6.89176 24.852
695 2 2.2208 10.7403 6.65705 21.9817
696 2 2.2208 10.6517 12.4953 22.1318
697 1 -1.1104 12.0063 8.07261 23.443
698 1 -1.1104 12.0359 8.26395 26.2674
699 1 -1.1104 12.1364 5.19451 23.4146
700 1 -1.1104 12.1323 10.8917 23.368
701 2 2.2208 10.7539 9.57985 24.8563
702 1 -1.1104 12.205 5.35599 26.3757
703 1 -1.1104 12.1565 11.1126 26.2885
704 1 -1.1104 9.29598 8.14008 23.4035
616 2 2.2208 7.93978 20.9292 22.0876
554 1 -1.1104 3.62523 19.4313 20.7684
535 1 -1.1104 0.830025 19.4487 20.8864
539 1 -1.1104 6.53314 19.3002 20.609
588 1 -1.1104 6.58722 19.4678 26.2525
552 1 -1.1104 3.73228 13.8599 20.6242
709 1 -1.1104 6.36731 13.7218 23.5795
547 1 -1.1104 6.48105 16.5141 20.716
718 1 -1.1104 6.39231 19.5921 23.485
647 2 2.2208 2.21345 15.2657 22.0205
649 2 2.2208 2.34847 20.8374 22.0545
652 1 -1.1104 3.69235 16.6347 23.3967
655 1 -1.1104 0.928206 16.6921 23.4603
681 1 -1.1104 3.55118 13.5901 26.2267
682 1 -1.1104 3.58991 16.4946 26.3017
683 2 2.2208 2.33336 18.1283 24.8181
686 1 -1.1104 3.75047 19.2892 26.4779
705 2 2.2208 5.05131 18.0416 22.0814
706 1 -1.1104 0.808981 13.6955 23.736
707 1 -1.1104 0.953676 19.4396 23.5878
711 1 -1.1104 3.64784 19.4546 23.5098
713 1 -1.1104 3.66564 13.8112 23.4854
715 1 -1.1104 0.936297 19.5701 26.3881
716 1 -1.1104 0.731946 16.5937 26.3279
717 1 -1.1104 0.945342 13.6948 26.3647
719 2 2.2208 5.18066 20.867 24.918
720 2 2.2208 4.99308 15.1575 24.8841
714 1 -1.1104 6.45097 16.7143 26.3091
462 2 2.2208 10.7524 18.1017 22.1605
615 2 2.2208 7.86649 15.2295 22.0404
463 1 -1.1104 12.0354 13.7985 23.4752
680 1 -1.1104 6.47271 16.7636 23.4912
620 1 -1.1104 9.004 16.7706 26.2986
379 2 2.2208 5.27832 6.7517 27.6936
360 2 2.2208 10.9553 20.7407 13.6402
384 2 2.2208 10.7133 6.84962 27.6493
380 2 2.2208 2.27038 9.50985 27.7066
372 2 2.2208 7.92574 4.01805 27.6451
353 2 2.2208 2.22214 12.2722 13.5722
347 2 2.2208 7.80212 15.2705 27.7809
359 2 2.2208 5.18124 15.2817 13.7156
344 2 2.2208 13.4975 15.2235 27.7137
386 2 2.2208 10.6251 12.4744 27.6753
370 2 2.2208 7.93823 -1.76964 27.7483
385 2 2.2208 7.97033 9.60836 27.7579
358 2 2.2208 5.22004 20.8257 13.6202
339 2 2.2208 2.28227 1.12621 13.5828
341 2 2.2208 5.01568 3.98834 13.612
336 2 2.2208 13.5886 6.83126 13.6042
721 2 2.2208 5.08952 23.5521 5.32298
722 2 2.2208 5.18006 29.164 5.31147
723 1 -1.1104 0.904522 25.145 1.20668
724 1 -1.1104 0.891811 24.8889 3.87181
725 1 -1.1104 0.842375 22.3328 1.14999
726 1 -1.1104 1.04748 27.8717 1.2075
727 2 2.2208 5.15974 26.3417 2.52358
728 1 -1.1104 0.972346 22.2208 3.88429
729 1 -1.1104 1.04949 27.5513 3.90331
730 1 -1.1104 3.71932 24.9614 1.02548
731 2 2.2208 2.31068 23.5497 2.50805
732 2 2.2208 2.43711 29.2682 2.59618
733 1 -1.1104 3.66221 25.0441 3.85561
734 2 2.2208 2.39648 26.4544 5.3213
735 1 -1.1104 3.59501 22.2104 0.997767
736 1 -1.1104 3.73633 27.8386 1.10388
737 1 -1.1104 3.72118 22.3004 3.81686
738 1 -1.1104 3.78993 27.8334 4.00299
743 1 -1.1104 6.51116 24.8851 3.91091
746 1 -1.1104 6.31218 22.1494 4.00812
742 1 -1.1104 6.53713 25.0914 1.06003
747 1 -1.1104 6.61665 27.759 3.80938
870 1 -1.1104 3.67399 27.9003 6.70559
1612 1 -1.1104 3.73943 47.469 12.3855
1042 2 2.2208 13.6243 46.169 8.15084
1635 1 -1.1104 12.1922 47.5058 9.54381
865 1 -1.1104 0.855206 27.8042 6.67985
744 1 -1.1104 6.35129 22.2959 1.16249
1443 1 -1.1104 12.2094 47.5962 3.95863
745 1 -1.1104 6.47873 27.8202 1.10028
748 2 2.2208 10.6356 23.6492 5.23541
749 2 2.2208 10.7709 29.1344 5.20348
750 1 -1.1104 12.1847 25.0426 0.918749
751 1 -1.1104 12.0157 24.9647 3.8649
752 1 -1.1104 12.1511 22.2341 1.04195
753 1 -1.1104 12.2371 27.914 0.890623
754 2 2.2208 10.8027 26.4489 2.25703
755 1 -1.1104 12.1844 22.3561 3.89293
756 1 -1.1104 12.1493 27.8816 3.65407
757 1 -1.1104 9.31217 25.0356 0.948496
758 2 2.2208 7.93718 23.616 2.40089
759 2 2.2208 8.13091 29.2259 2.4994
760 1 -1.1104 9.36468 25.0552 3.87218
761 2 2.2208 7.97665 26.3582 5.18698
762 1 -1.1104 9.15694 22.2138 1.01093
763 1 -1.1104 9.46159 27.8601 0.932139
764 1 -1.1104 9.25567 22.2682 3.85928
765 1 -1.1104 9.34962 27.7811 3.73205
866 1 -1.1104 6.36664 22.2106 6.87454
861 2 2.2208 13.54 46.1851 2.48394
814 2 2.2208 13.5936 34.8584 2.44266
840 2 2.2208 -0.456842 46.0637 5.26135
768 2 2.2208 13.5933 26.4723 5.30924
1041 2 2.2208 13.7299 40.1927 8.26804
769 2 2.2208 5.33296 34.7567 5.29442
770 1 -1.1104 1.15511 30.5548 0.945665
771 1 -1.1104 0.932774 36.3826 1.06864
773 1 -1.1104 0.985107 30.4925 3.83194
774 1 -1.1104 0.958518 36.2524 3.86056
776 1 -1.1104 1.03107 33.5101 0.913683
777 2 2.2208 5.22479 32.0282 2.49903
778 2 2.2208 5.15661 37.6014 2.46695
779 1 -1.1104 0.991484 33.3074 3.7263
781 1 -1.1104 3.92471 30.6578 0.944412
782 1 -1.1104 3.84358 36.2761 1.19221
783 2 2.2208 2.34064 34.7736 2.42454
784 1 -1.1104 3.7296 30.514 3.88581
785 1 -1.1104 3.73177 36.2145 3.7845
786 2 2.2208 2.4561 32.011 5.32092
787 2 2.2208 2.38364 37.719 5.22156
788 1 -1.1104 3.82027 33.4816 0.96617
789 1 -1.1104 3.7953 33.3922 3.8291
794 1 -1.1104 6.67943 30.71 3.80987
793 1 -1.1104 6.80349 30.5851 0.98691
780 1 -1.1104 6.53185 33.4224 3.79641
795 1 -1.1104 6.64773 33.3163 0.988064
775 1 -1.1104 6.6815 36.1511 3.83639
922 1 -1.1104 6.46967 36.383 6.53967
927 1 -1.1104 3.77773 33.402 6.67168
924 1 -1.1104 6.62047 33.4265 6.7251
1044 2 2.2208 2.47003 23.564 13.6422
1018 2 2.2208 10.8697 43.2794 8.17868
767 2 2.2208 13.6245 29.2502 2.40149
772 1 -1.1104 6.6954 36.125 0.96198
796 2 2.2208 10.7524 34.916 5.16094
797 1 -1.1104 12.384 30.6678 0.939045
798 1 -1.1104 12.1179 36.2753 0.942649
799 1 -1.1104 12.1722 30.6262 3.70355
800 1 -1.1104 12.3034 36.3015 3.69392
801 1 -1.1104 12.3688 33.4045 0.998402
802 2 2.2208 10.8293 31.9968 2.32893
803 2 2.2208 10.8521 37.711 2.32002
804 1 -1.1104 12.158 33.3615 3.83793
805 1 -1.1104 9.45484 30.585 0.882311
806 1 -1.1104 9.47095 36.163 0.905619
807 2 2.2208 7.98616 34.7589 2.39239
808 1 -1.1104 9.35611 30.5789 3.74496
809 1 -1.1104 9.56079 36.252 3.67083
810 2 2.2208 7.97184 32.0518 5.17267
811 2 2.2208 7.98566 37.6726 5.14497
812 1 -1.1104 9.40449 33.372 0.858783
813 1 -1.1104 9.38872 33.5674 3.74216
975 1 -1.1104 6.6196 44.6415 9.64397
954 1 -1.1104 11.9407 36.2963 6.42734
957 1 -1.1104 9.23282 36.2002 6.4944
860 2 2.2208 5.27485 34.8353 -0.40671
981 1 -1.1104 6.66402 44.7441 12.3559
1028 2 2.2208 10.9399 46.0385 11.0002
1440 1 -1.1104 12.1148 47.5645 0.936072