ITEM: TIMESTEP
20000
ITEM: NUMBER OF ATOMS
17700
ITEM: BOX BOUNDS pp pp pp
-3.5537640149617827e-01 2.7695376401496617e+01
-4.3024498151495001e+00 3.3238244981515356e+02
-3.5059786957531508e-01 2.7690597869575093e+01
ITEM: ATOMS id type q x y z
1 2 2.2208 5.3303 1.32915 5.30343
2 1 -1.1104 0.954693 -2.88972 1.01915
3 1 -1.1104 1.10566 2.57344 1.00165
6 1 -1.1104 1.0424 -2.94058 3.85483
7 1 -1.1104 1.04984 2.51466 3.87369
10 1 -1.1104 1.02617 -0.0959276 0.840759
12 2 2.2208 5.149 -1.60026 2.41254
13 2 2.2208 5.32628 4.06387 2.53313
14 1 -1.1104 1.13059 -0.0532233 3.94575
16 1 -1.1104 3.767 -3.00806 0.97573
17 1 -1.1104 3.87244 2.7016 1.28244
18 2 2.2208 2.44968 1.24093 2.51085
19 1 -1.1104 3.69825 -2.9736 3.79407
20 1 -1.1104 3.7433 2.70185 4.157
21 2 2.2208 2.48901 -1.47978 5.14378
23 1 -1.1104 3.69362 -0.178585 0.998694
24 1 -1.1104 3.96505 -0.021462 3.78064
22 2 2.2208 2.41682 4.12302 5.36255
26 2 2.2208 -0.339803 1.25973 5.36873
51 2 2.2208 -0.271833 12.5492 10.9489
384 2 2.2208 11.0084 6.90543 -0.240462
171 1 -1.1104 6.73243 -0.165274 6.77449
204 2 2.2208 13.7682 15.2887 5.24724
199 2 2.2208 -0.296562 4.06414 8.21308
173 1 -1.1104 3.75876 2.7182 6.84602
8846 2 2.2208 5.29741 -4.37345 10.9201
365 2 2.2208 2.44043 -1.56462 -0.447509
334 2 2.2208 -0.166789 -1.36054 13.8051
83 2 2.2208 -0.232802 12.3831 5.21311
11 1 -1.1104 6.5318 -0.0955116 1.10258
5 1 -1.1104 6.65318 2.64512 0.995525
8 1 -1.1104 6.51897 -2.8619 3.8281
9 1 -1.1104 6.73765 2.62962 4.0158
4 1 -1.1104 6.57212 -2.74483 1.07515
15 1 -1.1104 6.6703 -0.250366 3.92854
31 2 2.2208 10.9013 1.43002 5.27413
32 1 -1.1104 12.2781 -2.94062 1.09275
33 1 -1.1104 12.3914 2.51087 1.17455
34 1 -1.1104 12.1308 -3.1116 3.84976
35 1 -1.1104 12.3192 2.80467 4.00613
36 1 -1.1104 12.3197 -0.170868 1.02183
37 2 2.2208 10.8866 -1.49219 2.40573
39 1 -1.1104 12.2299 -0.105753 3.89976
40 1 -1.1104 9.49029 -2.82653 1.09595
41 1 -1.1104 9.50677 2.77014 1.03389
42 2 2.2208 8.03725 1.10464 2.49408
43 1 -1.1104 9.42512 -2.92392 3.92374
44 1 -1.1104 9.43215 2.7055 3.82948
45 2 2.2208 8.07999 -1.55538 5.29009
46 2 2.2208 8.08038 4.16387 5.3451
47 1 -1.1104 9.41771 -0.0739062 0.9874
48 1 -1.1104 9.55266 -0.0608418 3.78583
38 2 2.2208 10.8031 4.17138 2.55744
207 1 -1.1104 12.2939 -0.0867098 6.78335
209 1 -1.1104 9.53832 2.74007 6.71654
206 1 -1.1104 12.3501 2.6506 6.68775
169 1 -1.1104 6.55599 2.59076 6.74241
49 2 2.2208 13.8032 1.28226 2.56957
137 2 2.2208 -0.313753 17.9555 5.05455
210 1 -1.1104 9.44983 -0.124165 6.63238
368 2 2.2208 -0.314072 1.30488 -0.392068
27 2 2.2208 -0.394805 4.08311 2.53139
54 2 2.2208 5.2107 6.86781 5.40874
55 2 2.2208 5.26791 12.4135 5.30082
56 1 -1.1104 1.0389 8.33412 1.17525
58 1 -1.1104 0.881604 8.19776 4.00333
60 1 -1.1104 1.06415 5.45132 1.06275
61 1 -1.1104 1.15126 11.0369 1.14267
66 2 2.2208 5.29705 9.73508 2.6235
67 1 -1.1104 0.931553 5.44638 3.86389
68 1 -1.1104 1.00392 10.9019 3.96607
71 1 -1.1104 3.7624 8.40184 1.09534
72 2 2.2208 2.47428 6.82238 2.49492
73 2 2.2208 2.52973 12.4195 2.55149
74 1 -1.1104 3.75506 8.2467 3.84391
75 2 2.2208 2.37344 9.58945 5.35731
76 1 -1.1104 3.91798 5.40058 1.04649
77 1 -1.1104 3.94605 11.1068 1.08664
79 1 -1.1104 3.778 5.52262 3.91472
80 1 -1.1104 3.85698 10.988 4.10036
238 1 -1.1104 3.83722 8.16139 6.68832
78 1 -1.1104 3.83671 10.9572 6.84809
235 1 -1.1104 6.66717 8.29827 6.87551
156 1 -1.1104 9.49302 19.5345 6.57747
64 1 -1.1104 6.7384 10.9661 1.21385
237 1 -1.1104 6.6855 5.43851 6.90711
239 1 -1.1104 3.7972 5.46021 6.77966
316 2 2.2208 8.15401 20.7393 10.8769
8840 2 2.2208 5.32464 -4.33724 5.20469
318 1 -1.1104 9.49513 19.4327 9.40107
59 1 -1.1104 6.60171 8.34748 4.06803
69 1 -1.1104 6.67544 5.44632 4.04311
70 1 -1.1104 6.69606 11.0264 4.0149
63 1 -1.1104 6.66346 5.43994 1.1024
57 1 -1.1104 6.61861 8.27357 1.16654
84 2 2.2208 10.8386 6.80861 5.3019
85 2 2.2208 10.9661 12.546 5.28917
86 1 -1.1104 12.3243 8.24475 1.16971
87 1 -1.1104 12.179 8.35863 3.8729
88 1 -1.1104 12.3482 5.42912 1.16008
89 1 -1.1104 12.3763 11.0431 1.12159
91 2 2.2208 10.9122 9.6925 2.53079
92 1 -1.1104 12.2524 5.5121 3.90599
93 1 -1.1104 12.263 11.1482 3.88311
94 1 -1.1104 9.51098 8.30514 0.987333
95 2 2.2208 8.0615 6.87569 2.48851
96 2 2.2208 8.01832 12.4142 2.49963
97 1 -1.1104 9.30459 8.32885 3.88312
98 2 2.2208 8.1977 9.58892 5.50906
99 1 -1.1104 9.51292 5.69685 1.10427
100 1 -1.1104 9.58801 11.1788 1.03071
102 1 -1.1104 9.43003 5.51167 3.7632
103 1 -1.1104 9.48096 11.0571 3.85672
266 1 -1.1104 12.2689 5.47661 6.74862
90 1 -1.1104 12.456 11.0608 6.68803
65 1 -1.1104 6.86049 11.1511 6.67343
269 1 -1.1104 9.47244 5.45961 6.65981
106 2 2.2208 5.33977 17.9581 5.12921
107 1 -1.1104 1.18714 13.7809 1.0607
109 1 -1.1104 0.974158 19.2192 1.09613
113 1 -1.1104 1.17962 13.751 3.89651
114 1 -1.1104 1.07407 19.3957 3.84675
116 1 -1.1104 1.17681 16.5702 0.977575
119 2 2.2208 5.43956 15.2335 2.332
120 2 2.2208 5.30489 20.8028 2.44761
121 1 -1.1104 1.19697 16.6634 3.80377
123 1 -1.1104 3.9436 13.8092 1.23303
125 1 -1.1104 3.95063 19.5041 0.957773
127 2 2.2208 2.59794 17.9477 2.32632
128 1 -1.1104 3.84042 13.8603 3.94913
129 1 -1.1104 3.79442 19.3411 3.70634
130 2 2.2208 2.48599 15.1608 5.30332
131 2 2.2208 2.51275 20.7975 5.11545
132 1 -1.1104 4.06009 16.6958 1.13404
134 1 -1.1104 3.92686 16.6615 3.8397
138 1 -1.1104 6.7051 19.2698 0.877627
140 1 -1.1104 6.7939 16.5178 0.90974
122 1 -1.1104 6.70024 16.5974 3.74497
108 1 -1.1104 1.12191 13.8877 6.76608
110 1 -1.1104 6.80713 13.7951 1.0636
111 1 -1.1104 6.61799 13.956 6.4123
124 1 -1.1104 3.85221 13.7856 6.62398
133 1 -1.1104 3.95941 16.722 6.71707
81 2 2.2208 -0.421679 6.84829 5.3754
324 2 2.2208 11.0169 20.8763 8.06667
319 1 -1.1104 9.74497 13.804 9.42581
317 2 2.2208 8.18891 15.3856 10.891
139 1 -1.1104 6.73424 19.4463 3.86155
115 1 -1.1104 6.59551 13.8255 3.80635
141 2 2.2208 10.9656 18.0998 5.16308
142 1 -1.1104 12.2817 13.8725 0.978854
144 1 -1.1104 12.3714 19.3833 1.12488
146 1 -1.1104 12.2084 13.9622 3.95181
147 1 -1.1104 12.541 19.4888 3.79681
148 1 -1.1104 12.3849 16.6841 1.03568
150 2 2.2208 10.8343 15.2248 2.45679
151 2 2.2208 10.9788 20.8097 2.42009
152 1 -1.1104 12.319 16.641 3.82159
153 1 -1.1104 9.56528 13.801 0.968543
155 1 -1.1104 9.4151 19.5095 1.07285
157 2 2.2208 8.11142 18.0193 2.45881
158 1 -1.1104 9.46626 13.8247 3.79064
159 1 -1.1104 9.64778 19.482 3.86695
160 2 2.2208 8.06066 15.3259 5.16087
161 2 2.2208 8.09756 20.8974 5.29247
162 1 -1.1104 9.42704 16.6621 0.89938
164 1 -1.1104 9.59073 16.6605 3.74129
154 1 -1.1104 9.59289 13.9812 6.51385
163 1 -1.1104 9.53754 16.7033 6.50908
145 1 -1.1104 12.3265 19.2891 6.68789
297 1 -1.1104 6.66809 13.9371 12.2269
325 2 2.2208 10.9649 15.2586 8.01516
329 1 -1.1104 12.3117 19.5831 12.2611
360 2 2.2208 10.9747 20.9255 13.6773
379 2 2.2208 5.19729 6.92307 -0.191788
167 1 -1.1104 1.10382 2.47869 6.76796
335 2 2.2208 -0.281214 20.8365 13.6174
166 1 -1.1104 1.09138 -3.03804 6.6513
170 1 -1.1104 1.12278 -0.194105 6.68323
174 1 -1.1104 3.89579 -0.0935613 6.62513
172 1 -1.1104 3.90979 -2.99201 6.61047
175 2 2.2208 5.23551 1.25094 10.9069
176 1 -1.1104 0.985606 -2.88177 12.2546
177 1 -1.1104 1.04273 2.75123 12.4085
180 1 -1.1104 1.19868 -2.8079 9.57131
181 1 -1.1104 0.977824 2.67982 9.76232
184 1 -1.1104 1.06808 0.0272369 12.3689
186 2 2.2208 5.35291 -1.56217 8.10347
187 2 2.2208 5.22282 4.02067 8.17795
188 1 -1.1104 1.07343 -0.161381 9.45594
190 1 -1.1104 3.78916 -2.94422 12.3737
191 1 -1.1104 3.79673 2.7123 12.2611
192 2 2.2208 2.53288 1.16005 8.07496
193 1 -1.1104 3.94748 -2.90204 9.58471
194 1 -1.1104 3.82427 2.63381 9.57353
195 2 2.2208 2.444 -1.46104 10.9548
196 2 2.2208 2.47423 4.1102 11.0567
197 1 -1.1104 3.8553 -0.111689 12.4173
198 1 -1.1104 3.94775 -0.121362 9.57465
331 2 2.2208 10.8636 18.1863 10.7848
357 2 2.2208 2.47482 18.081 13.585
189 1 -1.1104 6.60974 -0.170056 9.66323
311 2 2.2208 -0.30457 20.9333 8.06969
372 2 2.2208 7.99794 4.16578 -0.38582
330 1 -1.1104 12.2709 13.9641 12.33
201 2 2.2208 -0.432782 1.33896 11.0047
82 2 2.2208 -0.328165 9.54066 2.59991
168 1 -1.1104 6.6407 -2.94999 6.57152
185 1 -1.1104 6.58858 -0.241894 12.3915
208 1 -1.1104 9.48815 -2.91005 6.90798
205 1 -1.1104 12.1676 -2.96487 6.7818
183 1 -1.1104 6.78851 2.74515 9.68955
179 1 -1.1104 6.72446 2.58845 12.4288
178 1 -1.1104 6.51391 -3.15489 12.3211
182 1 -1.1104 6.75458 -2.99066 9.42444
211 2 2.2208 10.9715 1.08549 11.0391
212 1 -1.1104 12.2278 -2.93831 12.2004
213 1 -1.1104 12.45 2.64944 12.2293
214 1 -1.1104 12.4189 -2.98562 9.4547
215 1 -1.1104 12.3321 2.63907 9.38992
216 1 -1.1104 12.6377 -0.161008 12.3153
217 2 2.2208 10.9093 -1.4587 8.16708
218 2 2.2208 10.9624 4.01375 8.09466
219 1 -1.1104 12.3425 -0.0453984 9.59085
220 1 -1.1104 9.29382 -2.87976 12.1702
221 1 -1.1104 9.67574 2.64279 12.3282
222 2 2.2208 8.07798 1.24578 8.15137
223 1 -1.1104 9.59709 -2.84481 9.62208
224 1 -1.1104 9.56286 2.64488 9.64843
225 2 2.2208 8.0288 -1.56025 10.9274
226 2 2.2208 8.18255 4.05347 11.0451
227 1 -1.1104 9.46673 -0.0677861 12.4375
228 1 -1.1104 9.51547 -0.120082 9.54148
136 2 2.2208 -0.305934 20.8139 2.35225
370 2 2.2208 8.11861 -1.51335 -0.569793
378 2 2.2208 13.7733 4.02786 -0.337949
62 1 -1.1104 1.08141 11.0715 6.69424
236 1 -1.1104 1.09841 5.44355 6.61486
29 2 2.2208 -0.346492 6.93851 11.0087
234 1 -1.1104 0.917677 8.28435 6.78318
240 2 2.2208 5.36807 6.79155 10.8679
241 2 2.2208 5.37486 12.5224 10.9538
242 1 -1.1104 1.03319 8.27711 12.3948
244 1 -1.1104 1.20688 8.29873 9.58115
246 1 -1.1104 1.21005 5.53779 12.362
247 1 -1.1104 0.92212 11.1666 12.4596
250 2 2.2208 5.32502 9.70936 8.09573
251 1 -1.1104 1.10335 5.5839 9.51903
252 1 -1.1104 1.08778 11.0993 9.60695
255 1 -1.1104 4.05038 8.31988 12.2981
256 2 2.2208 2.54087 6.89547 8.15927
257 2 2.2208 2.54911 12.562 8.14315
258 1 -1.1104 3.9513 8.33557 9.55152
259 2 2.2208 2.57738 9.72416 10.9915
260 1 -1.1104 3.99659 5.49996 12.4239
261 1 -1.1104 3.82189 11.0466 12.3571
262 1 -1.1104 3.98011 5.49303 9.59134
263 1 -1.1104 3.91821 11.1211 9.53597
321 1 -1.1104 9.48242 19.4416 12.2426
254 1 -1.1104 6.64176 11.3437 9.43072
233 2 2.2208 13.75 4.23031 5.40036
326 1 -1.1104 12.2787 16.8505 12.1775
265 1 -1.1104 12.3419 8.20598 6.72458
101 1 -1.1104 9.61331 11.0053 6.74058
314 1 -1.1104 9.5234 16.7243 9.34582
296 1 -1.1104 6.71258 19.632 12.2391
28 2 2.2208 13.7653 20.8911 10.7117
245 1 -1.1104 6.77216 8.31504 9.55771
253 1 -1.1104 6.80674 5.43161 9.64025
243 1 -1.1104 6.76786 8.3769 12.2615
267 1 -1.1104 9.53659 8.18309 6.66864
249 1 -1.1104 6.69979 11.0956 12.1703
248 1 -1.1104 6.65384 5.46737 12.3901
264 1 -1.1104 9.44851 10.9821 9.49951
268 1 -1.1104 9.59485 5.38425 9.55654
270 1 -1.1104 9.56889 11.0973 12.3166
271 1 -1.1104 9.52334 5.29131 12.2404
272 2 2.2208 8.13467 9.66947 10.8741
273 1 -1.1104 9.58099 8.20926 9.45264
274 2 2.2208 8.179 12.5566 8.11965
275 2 2.2208 8.13727 6.78882 8.22165
276 2 2.2208 10.9679 6.96861 10.9141
277 2 2.2208 11.068 12.5145 10.948
278 1 -1.1104 12.3166 8.37821 12.2522
279 1 -1.1104 12.427 8.26676 9.3822
280 1 -1.1104 12.4017 5.49432 12.1663
281 1 -1.1104 12.381 11.0686 12.409
282 2 2.2208 10.9645 9.62773 8.09574
283 1 -1.1104 12.4264 5.4256 9.40966
284 1 -1.1104 12.4143 11.1068 9.45404
285 1 -1.1104 9.46732 8.15423 12.2278
118 1 -1.1104 6.68921 16.7836 6.52055
149 1 -1.1104 12.4146 16.5802 6.5321
231 2 2.2208 13.8189 20.7514 5.22939
126 1 -1.1104 3.99062 19.4991 6.52562
117 1 -1.1104 1.16368 16.5502 6.61244
302 1 -1.1104 1.15788 19.429 6.55862
290 1 -1.1104 6.81398 13.9394 9.42831
306 1 -1.1104 6.65051 16.6284 12.1649
305 1 -1.1104 3.87691 13.9468 9.67506
300 2 2.2208 5.25728 18.0579 10.7827
299 1 -1.1104 1.13206 13.938 12.166
298 1 -1.1104 1.11774 19.5746 12.1933
292 1 -1.1104 1.13321 16.7595 9.43762
294 1 -1.1104 1.1679 13.9429 9.38203
287 1 -1.1104 3.90319 13.9042 12.4754
291 1 -1.1104 1.01585 19.6415 9.40947
303 2 2.2208 2.61278 17.9963 8.09399
304 1 -1.1104 3.89915 16.6273 9.46499
286 1 -1.1104 3.87484 19.4694 11.999
301 1 -1.1104 3.8485 19.4802 9.28889
310 2 2.2208 2.5617 15.4033 10.9136
293 2 2.2208 5.29748 20.9465 7.95007
309 2 2.2208 2.41706 20.9718 10.7552
308 1 -1.1104 3.85642 16.7154 12.15
307 1 -1.1104 1.07069 16.7354 12.3113
295 2 2.2208 5.37111 15.2949 7.98863
112 1 -1.1104 6.78508 19.463 6.6366
320 2 2.2208 8.13457 18.1194 7.99353
289 1 -1.1104 6.79432 16.7424 9.32302
323 1 -1.1104 12.3503 16.628 9.45833
315 1 -1.1104 9.61198 16.607 12.1382
143 1 -1.1104 12.5127 13.6996 6.732
322 1 -1.1104 9.47311 13.834 12.2682
328 1 -1.1104 12.5229 13.8562 9.59849
327 1 -1.1104 12.2931 19.5155 9.43549
288 1 -1.1104 6.71699 19.5887 9.50983
312 2 2.2208 -0.355861 18.1667 10.7732
105 2 2.2208 13.7006 6.89762 2.46197
369 2 2.2208 10.8762 1.28681 -0.326211
364 2 2.2208 5.18507 1.19847 -0.402282
361 2 2.2208 10.8999 15.3761 13.705
380 2 2.2208 2.50338 9.74107 -0.260476
359 2 2.2208 5.274 15.2506 13.6634
347 2 2.2208 8.16656 15.2932 -0.425231
346 2 2.2208 10.9097 -1.57181 13.8242
385 2 2.2208 8.1316 9.71151 -0.26939
388 2 2.2208 5.37801 1.2527 16.5821
389 1 -1.1104 1.0952 -2.92256 17.8584
390 1 -1.1104 1.20589 2.70279 17.8553
393 1 -1.1104 1.13997 -2.90312 15.0392
395 1 -1.1104 1.14649 2.83768 15.2
401 1 -1.1104 1.11787 -0.0445899 18.0046
403 2 2.2208 5.36971 -1.54358 19.3123
404 2 2.2208 5.34234 3.94455 19.4387
405 1 -1.1104 1.30217 -0.145568 15.1842
409 1 -1.1104 4.01839 -3.15001 18.0933
410 1 -1.1104 3.99823 2.62993 17.951
411 2 2.2208 2.60131 1.28425 19.2749
412 1 -1.1104 3.94665 -2.94035 15.252
414 1 -1.1104 3.98201 2.65643 14.9663
416 2 2.2208 2.59984 -1.42642 16.6081
417 2 2.2208 2.62954 4.11958 16.6051
418 1 -1.1104 4.03248 -0.26102 17.9132
419 1 -1.1104 3.98681 -0.0895489 15.0904
425 2 2.2208 -0.277213 -1.55585 19.2738
420 1 -1.1104 3.85413 -0.138518 20.628
648 2 2.2208 -0.382321 12.586 16.5462
621 2 2.2208 -0.272 6.86668 16.5627
345 2 2.2208 13.7893 21.0085 27.6774
354 2 2.2208 8.26754 6.83014 13.6978
402 1 -1.1104 6.75859 -0.106538 17.9183
392 1 -1.1104 6.7606 2.66282 17.9864
8973 2 2.2208 2.47782 -4.50736 19.3915
397 1 -1.1104 6.80886 -2.89678 14.9849
391 1 -1.1104 6.74358 -2.84419 17.9353
399 1 -1.1104 6.76219 2.71709 15.1561
407 1 -1.1104 6.62418 -0.212047 15.1505
431 2 2.2208 10.8839 1.19083 16.4532
432 1 -1.1104 12.3205 -2.97061 17.6249
433 1 -1.1104 12.3824 2.61784 17.8251
434 1 -1.1104 12.4261 -3.12153 14.9903
436 1 -1.1104 12.4186 2.84942 15.0689
438 1 -1.1104 12.4555 -0.169497 17.8398
439 2 2.2208 10.9622 -1.63069 19.1464
440 2 2.2208 10.9016 3.94735 19.2323
441 1 -1.1104 12.2023 -0.135251 15.0222
443 1 -1.1104 9.47097 -2.98839 17.6628
444 1 -1.1104 9.56723 2.61558 17.9577
445 2 2.2208 8.21917 1.25544 19.3725
446 1 -1.1104 9.57499 -2.96217 15.074
448 1 -1.1104 9.37999 2.50394 15.1888
450 2 2.2208 8.01534 -1.59051 16.5049
452 1 -1.1104 9.57944 -0.21086 17.931
453 1 -1.1104 9.43503 -0.0769698 15.1581
435 1 -1.1104 12.3124 -3.06336 20.479
451 2 2.2208 8.18146 4.06291 16.6721
437 1 -1.1104 12.2943 2.70961 20.5152
400 1 -1.1104 6.83051 2.75159 20.6873
710 2 2.2208 13.8159 6.79509 24.8994
457 2 2.2208 -0.233725 15.3032 19.2845
622 2 2.2208 -0.303807 9.83177 19.3256
464 2 2.2208 5.30784 7.04679 16.6579
465 2 2.2208 5.37183 12.4724 16.5524
466 1 -1.1104 1.06247 8.43709 17.9982
468 1 -1.1104 0.965398 8.43459 15.1971
472 1 -1.1104 1.08601 5.5222 17.9053
473 1 -1.1104 1.08996 11.3455 17.9469
476 2 2.2208 5.26181 9.64956 19.4131
477 1 -1.1104 1.20965 5.59915 15.184
479 1 -1.1104 1.00862 11.2242 15.2587
485 1 -1.1104 3.82225 8.20967 17.9953
486 2 2.2208 2.51532 6.96222 19.3382
487 2 2.2208 2.60673 12.5751 19.2496
488 1 -1.1104 3.9197 8.42894 15.2398
490 2 2.2208 2.46108 9.82534 16.5538
491 1 -1.1104 3.99679 5.44275 17.8935
492 1 -1.1104 4.03969 11.0695 17.9182
493 1 -1.1104 3.9931 5.42918 15.2189
495 1 -1.1104 3.9248 11.1356 15.1083
489 1 -1.1104 3.8737 8.29109 20.7814
474 1 -1.1104 6.66175 5.67163 18.0308
467 1 -1.1104 6.55117 8.44352 17.9951
475 1 -1.1104 6.90621 11.0292 18.0389
424 2 2.2208 -0.27977 1.26339 16.5491
469 1 -1.1104 1.16319 8.30574 20.7017
496 1 -1.1104 3.97724 11.1278 20.7634
350 2 2.2208 11.0801 4.05012 13.6071
8942 2 2.2208 -0.3806 -4.38954 22.1103
483 1 -1.1104 6.73723 11.06 15.1592
481 1 -1.1104 6.88971 5.52461 15.1177
470 1 -1.1104 6.65398 8.38047 15.1453
500 2 2.2208 11.0479 6.91761 16.4842
501 2 2.2208 10.9401 12.6104 16.4244
502 1 -1.1104 12.4454 8.24308 18.0378
503 1 -1.1104 12.3735 8.37299 15.0157
505 1 -1.1104 12.347 5.43618 17.713
506 1 -1.1104 12.5986 11.0323 17.8581
507 2 2.2208 10.9966 9.67736 19.3465
508 1 -1.1104 12.3085 5.69841 15.1524
510 1 -1.1104 12.3096 11.1785 15.1407
512 1 -1.1104 9.47638 8.23479 17.9019
513 2 2.2208 8.17104 6.87825 19.3384
514 2 2.2208 8.13414 12.4614 19.1926
515 1 -1.1104 9.64147 8.39448 15.2221
517 2 2.2208 8.23452 9.6815 16.3858
518 1 -1.1104 9.50319 5.472 17.9477
519 1 -1.1104 9.75311 11.1382 17.9084
520 1 -1.1104 9.75127 5.36237 14.897
522 1 -1.1104 9.6068 11.169 15.0192
509 1 -1.1104 12.4584 5.38676 20.6997
523 1 -1.1104 9.62505 11.0466 20.7455
516 1 -1.1104 9.57794 8.34871 20.6013
482 1 -1.1104 6.92421 5.51044 20.8739
511 1 -1.1104 12.3538 11.0675 20.5572
504 1 -1.1104 12.3518 8.2887 20.6614
685 2 2.2208 -0.302043 12.5768 22.2117
527 2 2.2208 5.29707 18.095 16.3857
528 1 -1.1104 1.21444 14.1131 17.7288
529 1 -1.1104 1.06435 19.4548 17.9799
532 1 -1.1104 1.03858 13.9226 14.9606
534 1 -1.1104 1.01517 19.5232 15.076
540 1 -1.1104 1.16636 16.7711 17.9421
542 2 2.2208 5.34738 15.298 19.2152
543 2 2.2208 5.19074 20.9848 19.072
544 1 -1.1104 1.11292 16.647 15.1606
548 1 -1.1104 3.90149 13.8267 17.8499
549 1 -1.1104 3.87011 19.5517 17.5936
550 2 2.2208 2.51872 17.9566 19.3574
551 1 -1.1104 3.98001 13.862 15.1882
553 1 -1.1104 3.95799 19.5252 14.8604
555 2 2.2208 2.62109 15.2877 16.4445
556 2 2.2208 2.42802 20.9336 16.3561
557 1 -1.1104 3.97402 16.7038 17.8389
558 1 -1.1104 3.90217 16.708 14.9625
541 1 -1.1104 6.75524 16.6958 17.6095
552 1 -1.1104 3.98121 13.9809 20.6653
421 2 2.2208 -0.282635 6.87639 22.0104
539 1 -1.1104 6.63912 19.5662 20.6358
8904 2 2.2208 8.1714 -4.39644 24.8861
538 1 -1.1104 6.81309 19.4382 15.0152
536 1 -1.1104 6.82343 13.8604 14.9353
531 1 -1.1104 6.54936 19.6754 17.8649
530 1 -1.1104 6.67573 13.7787 17.8376
546 1 -1.1104 6.67105 16.6147 15.0164
563 2 2.2208 10.9384 18.1798 16.4102
564 1 -1.1104 12.465 13.9855 17.7069
565 1 -1.1104 12.4038 19.6702 17.7194
566 1 -1.1104 12.3898 14.1274 15.1078
568 1 -1.1104 12.5049 19.5336 15.0405
570 1 -1.1104 12.2664 16.8327 17.9009
571 2 2.2208 11.0386 15.3316 19.2026
572 2 2.2208 10.8377 21.0614 19.1952
573 1 -1.1104 12.2607 16.8136 14.9578
575 1 -1.1104 9.44872 13.9608 17.6531
576 1 -1.1104 9.45002 19.6248 17.7559
577 2 2.2208 8.16135 18.2076 19.1218
578 1 -1.1104 9.5914 14.0177 15.0547
580 1 -1.1104 9.57732 19.5505 15.0086
582 2 2.2208 8.14704 15.3657 16.3862
583 2 2.2208 8.09614 21.0411 16.4251
584 1 -1.1104 9.55359 16.8385 17.7311
585 1 -1.1104 9.42278 16.7127 15.0302
579 1 -1.1104 9.54903 13.8459 20.4746
586 1 -1.1104 9.63714 16.7161 20.5884
623 2 2.2208 -0.282838 18.007 22.1166
377 2 2.2208 13.729 -1.46945 27.7874
394 1 -1.1104 0.979801 -2.99777 20.6376
371 2 2.2208 -0.405201 18.0243 27.6764
342 2 2.2208 -0.229109 15.3375 13.5713
650 2 2.2208 13.9203 12.5781 19.2221
356 2 2.2208 8.11755 12.5707 13.5856
396 1 -1.1104 1.11791 2.78644 20.6848
415 1 -1.1104 3.88154 2.66912 20.8907
413 1 -1.1104 3.80783 -2.99934 20.8006
406 1 -1.1104 1.15334 -0.0989745 20.8009
591 2 2.2208 5.38332 1.25698 22.1528
592 1 -1.1104 1.18957 -2.85413 23.629
593 1 -1.1104 1.14529 2.78585 23.5481
596 1 -1.1104 1.10476 -2.84181 26.2348
597 1 -1.1104 1.03188 2.69468 26.1781
600 1 -1.1104 1.16415 -0.108168 23.4966
602 2 2.2208 5.27298 -1.60173 24.8637
603 2 2.2208 5.24286 4.0303 24.9736
604 1 -1.1104 1.20083 -0.0423954 26.3127
606 1 -1.1104 3.9483 -2.88473 23.6261
607 1 -1.1104 3.99999 2.58001 23.7179
608 2 2.2208 2.53514 1.17071 24.9324
609 1 -1.1104 4.01477 -2.96425 26.3655
610 1 -1.1104 3.82257 2.55245 26.5258
611 2 2.2208 2.48479 -1.5973 22.1314
612 2 2.2208 2.49865 4.16318 22.1579
613 1 -1.1104 3.87878 -0.13238 23.4573
614 1 -1.1104 3.95712 -0.184683 26.1529
598 1 -1.1104 6.80484 -2.85807 26.1718
562 1 -1.1104 9.33602 19.5597 23.3565
626 2 2.2208 -0.439258 4.18632 24.9665
589 1 -1.1104 9.75164 13.9403 26.1586
449 1 -1.1104 9.45679 2.59546 20.7193
442 1 -1.1104 12.2955 -0.119465 20.6737
574 1 -1.1104 12.3065 16.7517 20.5232
590 1 -1.1104 9.57842 19.366 26.1769
408 1 -1.1104 6.6422 0.105674 20.4539
595 1 -1.1104 6.82629 2.60573 23.4074
601 1 -1.1104 6.76046 -0.0929627 23.4242
605 1 -1.1104 6.79296 -0.0666866 26.2245
447 1 -1.1104 9.63079 -2.8714 20.4824
398 1 -1.1104 6.73451 -2.74878 20.6955
594 1 -1.1104 6.69706 -2.94236 23.3646
454 1 -1.1104 9.58957 -0.247523 20.7318
599 1 -1.1104 6.69758 2.75507 26.1715
627 2 2.2208 10.9421 1.22855 22.0613
628 1 -1.1104 12.3763 -3.04093 23.4076
629 1 -1.1104 12.368 2.53683 23.412
630 1 -1.1104 12.2345 -2.93722 26.2283
631 1 -1.1104 12.3638 2.68301 26.3451
632 1 -1.1104 12.2409 -0.210279 23.4642
633 2 2.2208 10.9092 -1.50967 24.9536
634 2 2.2208 11.0455 4.14996 24.8735
635 1 -1.1104 12.2636 -0.148137 26.3031
636 1 -1.1104 9.50985 -2.8271 23.3692
637 1 -1.1104 9.69817 2.71632 23.4853
638 2 2.2208 8.22273 1.26311 24.7827
639 1 -1.1104 9.42281 -2.96942 26.287
640 1 -1.1104 9.62501 2.66701 26.2734
641 2 2.2208 8.12281 -1.4624 22.1113
642 2 2.2208 8.29525 4.09429 22.1809
643 1 -1.1104 9.40515 -0.0592108 23.4768
644 1 -1.1104 9.54635 -0.175803 26.2795
646 2 2.2208 -0.240868 15.261 24.9641
718 1 -1.1104 6.69604 19.3138 23.4185
480 1 -1.1104 1.06502 11.1021 20.6149
567 1 -1.1104 12.5593 14.0282 20.5104
684 2 2.2208 -0.293516 9.79315 25.0233
478 1 -1.1104 1.2085 5.56003 20.8151
494 1 -1.1104 3.99923 5.45666 20.7915
656 2 2.2208 5.26745 6.89469 22.1241
657 2 2.2208 5.47475 12.543 22.0975
658 1 -1.1104 1.19209 8.27797 23.541
660 1 -1.1104 1.24967 8.13587 26.5208
662 1 -1.1104 0.921675 5.49583 23.5502
663 1 -1.1104 1.15137 11.1272 23.5281
666 2 2.2208 5.45036 9.46226 24.9441
667 1 -1.1104 1.08951 5.34124 26.4345
668 1 -1.1104 1.11718 10.9502 26.4836
671 1 -1.1104 3.93731 8.30874 23.6281
672 2 2.2208 2.47071 6.91384 25.0399
673 2 2.2208 2.7756 12.4153 24.9753
674 1 -1.1104 4.02417 8.30029 26.4638
675 2 2.2208 2.56242 9.64243 22.2152
676 1 -1.1104 3.8028 5.53454 23.6036
677 1 -1.1104 3.90996 11.0834 23.4981
678 1 -1.1104 3.97466 5.45592 26.4427
679 1 -1.1104 3.96407 11.0751 26.3008
661 1 -1.1104 6.67008 8.20915 26.5014
560 1 -1.1104 12.3645 16.733 26.0793
616 2 2.2208 8.02559 20.9148 21.9837
615 2 2.2208 8.22505 15.2475 21.9724
521 1 -1.1104 9.69795 5.38829 20.686
712 1 -1.1104 6.86663 13.902 26.3025
471 1 -1.1104 6.63353 8.23346 20.8206
659 1 -1.1104 6.79429 8.20432 23.5249
669 1 -1.1104 6.62264 5.32955 26.358
670 1 -1.1104 6.62994 10.897 26.4526
484 1 -1.1104 6.78755 11.1075 20.7517
665 1 -1.1104 6.85589 11.0944 23.5963
664 1 -1.1104 6.74636 5.54051 23.59
687 1 -1.1104 9.42576 11.0981 26.145
688 1 -1.1104 9.55848 5.49652 26.4339
689 1 -1.1104 9.65051 11.0642 23.4626
690 1 -1.1104 9.56975 5.43695 23.6275
691 2 2.2208 8.15944 9.65126 22.1365
692 1 -1.1104 9.65021 8.3231 26.348
693 2 2.2208 8.29285 12.527 24.9557
694 2 2.2208 8.12685 6.88498 25.0573
695 2 2.2208 10.9085 6.82359 22.0888
696 2 2.2208 10.983 12.4145 21.9574
697 1 -1.1104 12.274 8.18718 23.5277
698 1 -1.1104 12.3581 8.32947 26.2849
699 1 -1.1104 12.4063 5.57618 23.4788
700 1 -1.1104 12.4146 11.0573 23.4536
701 2 2.2208 10.9676 9.67545 24.8211
702 1 -1.1104 12.4106 5.44528 26.2891
703 1 -1.1104 12.3121 11.058 26.2913
704 1 -1.1104 9.48178 8.23924 23.4029
620 1 -1.1104 9.53001 16.5443 26.0992
569 1 -1.1104 12.1921 19.6468 20.6466
617 1 -1.1104 9.54252 16.7085 23.4911
588 1 -1.1104 6.58412 19.4659 26.2226
463 1 -1.1104 12.2877 13.898 23.5781
355 2 2.2208 10.8966 9.75326 13.7349
714 1 -1.1104 6.70346 16.7247 26.1833
680 1 -1.1104 6.74995 16.5988 23.283
559 1 -1.1104 3.90116 16.6884 20.7669
533 1 -1.1104 1.17817 13.8077 20.5204
535 1 -1.1104 1.00767 19.3015 20.624
545 1 -1.1104 1.04043 16.4811 20.755
554 1 -1.1104 3.88024 19.3166 20.5414
647 2 2.2208 2.63027 15.049 22.1668
649 2 2.2208 2.47107 20.8159 22.0359
652 1 -1.1104 3.89739 16.5185 23.4344
655 1 -1.1104 1.17944 16.5234 23.5738
681 1 -1.1104 3.97639 13.8284 26.496
682 1 -1.1104 3.95434 16.5898 26.3059
683 2 2.2208 2.48209 17.9334 24.8345
686 1 -1.1104 3.7864 19.3678 26.1258
705 2 2.2208 5.31145 18.106 21.9898
706 1 -1.1104 1.18656 13.7786 23.5888
707 1 -1.1104 1.10384 19.4299 23.3249
711 1 -1.1104 3.84505 19.4292 23.371
713 1 -1.1104 4.0005 13.7491 23.5431
715 1 -1.1104 1.08007 19.3991 26.1217
716 1 -1.1104 1.08736 16.6981 26.3184
717 1 -1.1104 1.19614 13.8152 26.3667
719 2 2.2208 5.19856 20.7919 24.8555
720 2 2.2208 5.46247 15.1872 24.8663
709 1 -1.1104 6.84998 13.946 23.5148
462 2 2.2208 10.8342 18.0252 22.0287
561 1 -1.1104 9.66895 13.7756 23.3146
524 1 -1.1104 12.32 16.6762 23.4288
525 2 2.2208 10.9135 15.3087 24.7763
497 1 -1.1104 12.2935 19.5417 23.4605
547 1 -1.1104 6.87805 16.7086 20.4421
526 2 2.2208 10.893 20.8559 24.727
587 2 2.2208 8.01083 18.1815 24.863
499 1 -1.1104 12.4592 19.5557 26.3775
498 1 -1.1104 12.3086 13.8971 26.3468
537 1 -1.1104 6.78544 13.9876 20.6736
581 1 -1.1104 9.34238 19.5054 20.5993
619 2 2.2208 13.7258 15.4998 16.3769
427 2 2.2208 -0.218796 4.08457 19.2283
337 2 2.2208 -0.352823 4.16174 13.7503
339 2 2.2208 2.57691 1.40282 13.697
456 2 2.2208 -0.28422 18.0666 16.5492
341 2 2.2208 5.37203 4.05511 13.8256
374 2 2.2208 5.24619 18.0557 27.579
382 2 2.2208 -0.211369 12.4112 27.7816
373 2 2.2208 2.63451 15.2389 27.6909
340 2 2.2208 13.8404 1.39239 13.673
375 2 2.2208 2.46919 20.7847 27.7475
367 2 2.2208 -0.360599 9.73712 13.8593
349 2 2.2208 8.01611 20.8691 27.7445
351 2 2.2208 2.50891 6.98666 13.811
352 2 2.2208 5.39815 9.68093 13.7094
338 2 2.2208 5.24338 -1.5834 13.7349
460 2 2.2208 13.6661 20.9961 16.3525
426 2 2.2208 13.8591 9.65383 16.5477
381 2 2.2208 5.37342 12.4043 27.7865
353 2 2.2208 2.3762 12.5101 13.6316
8858 2 2.2208 5.32531 -4.40557 27.7267
362 2 2.2208 7.98951 18.1187 13.5805
348 2 2.2208 10.8915 18.0693 27.7023
366 2 2.2208 2.45915 4.05623 27.7818
358 2 2.2208 5.28475 21.0027 13.5678
343 2 2.2208 8.04083 1.16633 13.851
386 2 2.2208 11.0073 12.4923 27.6197
721 2 2.2208 5.23444 23.7251 5.31148
722 2 2.2208 5.26089 29.3413 5.19
723 1 -1.1104 0.955823 25.057 1.07153
724 1 -1.1104 1.06121 24.9419 3.88967
725 1 -1.1104 1.05609 22.1274 0.996787
726 1 -1.1104 1.16341 27.7811 1.01528
727 2 2.2208 5.23839 26.4458 2.35628
728 1 -1.1104 1.17887 22.1585 3.86696
729 1 -1.1104 1.06858 27.7987 3.75411
730 1 -1.1104 3.943 25.0804 0.90632
731 2 2.2208 2.57424 23.5773 2.44609
732 2 2.2208 2.42275 29.2683 2.30221
733 1 -1.1104 3.96024 25.078 3.71658
734 2 2.2208 2.49586 26.5148 5.18519
735 1 -1.1104 3.88456 22.3051 1.0251
736 1 -1.1104 3.81439 27.8512 0.873773
737 1 -1.1104 3.9025 22.1925 3.87412
738 1 -1.1104 3.89705 27.8749 3.70529
1032 2 2.2208 13.6064 43.1575 5.24167
870 1 -1.1104 3.89378 27.8444 6.67962
865 1 -1.1104 1.04137 27.8471 6.59504
742 1 -1.1104 6.81805 25.0137 1.05788
747 1 -1.1104 6.82039 27.7724 3.84506
745 1 -1.1104 6.72555 27.8559 0.975478
863 1 -1.1104 6.61062 24.9072 6.71278
1060 2 2.2208 5.21071 45.9465 -0.220193
862 1 -1.1104 1.11836 25.0083 6.61507
1041 2 2.2208 13.6538 40.2994 8.22678
740 2 2.2208 -0.440832 29.2138 5.16714
743 1 -1.1104 6.69572 25.0244 3.96039
746 1 -1.1104 6.70547 22.2193 3.91678
744 1 -1.1104 6.76364 22.1226 1.09189
748 2 2.2208 10.9117 23.6875 5.07129
749 2 2.2208 10.808 29.1929 5.28672
750 1 -1.1104 12.4634 24.9284 0.899043
751 1 -1.1104 12.2518 24.8662 3.77377
752 1 -1.1104 12.3232 22.2722 1.03467
753 1 -1.1104 12.2502 27.8965 0.986317
754 2 2.2208 10.9211 26.4235 2.40583
755 1 -1.1104 12.4306 22.1157 3.85391
756 1 -1.1104 12.3672 27.895 3.73008
757 1 -1.1104 9.57549 24.9898 0.942158
758 2 2.2208 8.16192 23.684 2.52727
759 2 2.2208 8.10465 29.2764 2.43337
760 1 -1.1104 9.58348 25.1958 3.70874
761 2 2.2208 8.08062 26.5533 5.25787
762 1 -1.1104 9.42399 22.2653 1.0647
763 1 -1.1104 9.3391 27.6964 1.23639
764 1 -1.1104 9.51956 22.221 3.74159
765 1 -1.1104 9.59395 27.8875 3.97415
866 1 -1.1104 6.59923 22.2389 6.60063
1600 1 -1.1104 6.54991 47.5719 12.3823
766 2 2.2208 13.7938 23.5445 2.42344
895 1 -1.1104 12.3332 24.7998 6.59155
899 1 -1.1104 9.4968 22.3019 6.55471
1598 1 -1.1104 0.837697 47.6993 12.2784
1594 1 -1.1104 1.12318 47.5249 6.69645
1612 1 -1.1104 3.69128 47.6601 12.4536
769 2 2.2208 5.27703 34.8215 5.37251
770 1 -1.1104 1.11572 30.6611 1.00244
771 1 -1.1104 1.03509 36.2444 1.16727
773 1 -1.1104 1.02017 30.7019 3.71321
774 1 -1.1104 1.18499 36.2625 3.87703
776 1 -1.1104 1.13392 33.4089 1.12695
777 2 2.2208 5.13332 31.8941 2.44114
778 2 2.2208 5.28724 37.647 2.51171
779 1 -1.1104 1.12347 33.4302 3.84347
781 1 -1.1104 3.89779 30.5147 0.878532
782 1 -1.1104 3.90038 36.2594 1.15977
783 2 2.2208 2.52694 34.8118 2.51818
784 1 -1.1104 3.80905 30.6507 3.7563
785 1 -1.1104 3.90823 36.1806 3.81673
786 2 2.2208 2.36567 31.9364 5.22363
787 2 2.2208 2.40099 37.6615 5.34973
788 1 -1.1104 3.82367 33.284 1.16275
789 1 -1.1104 3.74969 33.4956 3.99713
927 1 -1.1104 3.89806 33.5027 6.77244
925 1 -1.1104 3.93491 30.5226 6.66904
775 1 -1.1104 6.70276 36.1716 3.81722
919 1 -1.1104 1.04967 30.6227 6.47903
926 1 -1.1104 3.79479 36.3767 6.7269
780 1 -1.1104 6.39376 33.389 3.88177
772 1 -1.1104 6.64001 36.166 0.960206
922 1 -1.1104 6.61142 36.2071 6.67627
794 1 -1.1104 6.75258 30.6651 3.72849
921 1 -1.1104 6.65409 30.5903 6.6101
1030 2 2.2208 13.8174 37.5781 5.33432
1633 1 -1.1104 12.171 47.4922 12.305
795 1 -1.1104 6.56519 33.2504 0.949179
793 1 -1.1104 6.58659 30.5975 0.965832
796 2 2.2208 10.9642 34.946 5.39876
797 1 -1.1104 12.2695 30.6985 1.01978
798 1 -1.1104 12.1152 36.2728 1.22922
799 1 -1.1104 12.3896 30.5864 3.84167
800 1 -1.1104 12.437 36.2801 3.93168
801 1 -1.1104 12.2609 33.5151 1.04361
802 2 2.2208 10.9062 31.9714 2.47162
803 2 2.2208 10.8464 37.5777 2.62896
804 1 -1.1104 12.2237 33.4654 3.77952
805 1 -1.1104 9.45297 30.4414 0.956297
806 1 -1.1104 9.33563 36.1934 0.858951
807 2 2.2208 8.02833 34.7036 2.41696
808 1 -1.1104 9.54234 30.5665 3.89388
809 1 -1.1104 9.44503 36.2178 3.93417