ITEM: TIMESTEP
70000
ITEM: NUMBER OF ATOMS
17700
ITEM: BOX BOUNDS pp pp pp
-3.7054832715136093e-01 2.7710548327151525e+01
-4.3267054084061014e+00 3.3240670540840739e+02
-3.4787353380775876e-01 2.7687873533807370e+01
ITEM: ATOMS id type q x y z
1 2 2.2208 5.43067 1.41837 5.3304
2 1 -1.1104 1.36525 -3.06763 1.03141
3 1 -1.1104 1.08143 2.76251 0.953993
6 1 -1.1104 1.39826 -2.94855 3.86634
7 1 -1.1104 1.24631 2.63327 3.93731
10 1 -1.1104 1.17544 -0.164132 1.07014
12 2 2.2208 5.47237 -1.39514 2.50771
13 2 2.2208 5.46805 4.14378 2.42228
14 1 -1.1104 1.23419 -0.126893 4.08977
16 1 -1.1104 4.22775 -3.02874 1.0375
17 1 -1.1104 4.00781 2.5964 1.11856
18 2 2.2208 2.51577 1.33219 2.53592
19 1 -1.1104 4.22315 -2.73554 3.891
20 1 -1.1104 3.86007 2.78858 3.78763
21 2 2.2208 2.64819 -1.51724 5.2355
23 1 -1.1104 3.92333 -0.266558 1.03911
24 1 -1.1104 3.97622 0.17238 4.03149
22 2 2.2208 2.61087 4.2363 5.25312
26 2 2.2208 -0.107214 1.24439 5.40358
167 1 -1.1104 1.26606 2.72152 6.6495
27 2 2.2208 -0.272416 3.94716 2.52062
25 2 2.2208 -0.110672 -1.623 2.45234
365 2 2.2208 2.59862 -1.56776 -0.379147
357 2 2.2208 2.5671 18.1479 13.6323
8845 2 2.2208 2.79624 -4.34975 7.99958
8846 2 2.2208 5.36901 -4.26184 10.9923
368 2 2.2208 -0.215615 1.28574 -0.306838
379 2 2.2208 5.30214 7.03504 -0.310613
11 1 -1.1104 6.61555 -0.0127071 1.09306
15 1 -1.1104 6.90558 -0.0485578 3.85825
5 1 -1.1104 6.83125 2.76242 0.939393
8 1 -1.1104 6.97854 -2.86601 3.86683
9 1 -1.1104 6.8348 2.64393 3.83681
4 1 -1.1104 7.02723 -2.90621 0.982659
31 2 2.2208 11.0455 1.36015 5.28647
32 1 -1.1104 12.5651 -2.94753 1.26016
33 1 -1.1104 12.4132 2.75891 1.00517
34 1 -1.1104 12.5996 -2.80137 3.71105
35 1 -1.1104 12.4089 2.67864 3.76308
36 1 -1.1104 12.3976 -0.0917035 1.02444
37 2 2.2208 11.1338 -1.49842 2.49607
39 1 -1.1104 12.5272 -0.184753 3.74004
40 1 -1.1104 9.75024 -2.85027 1.25008
41 1 -1.1104 9.64537 2.71191 0.885112
42 2 2.2208 8.22075 1.31347 2.5007
43 1 -1.1104 9.82975 -2.76884 3.98054
44 1 -1.1104 9.58171 2.75537 3.86798
45 2 2.2208 8.43213 -1.47138 5.29127
46 2 2.2208 8.23747 4.16416 5.26084
47 1 -1.1104 9.54897 -0.0806994 1.1819
48 1 -1.1104 9.83442 -0.0516113 4.06621
38 2 2.2208 11.0275 4.1695 2.62106
169 1 -1.1104 6.84825 2.85285 6.67593
210 1 -1.1104 9.7529 -0.0225032 6.86609
206 1 -1.1104 12.3169 2.8194 6.64457
369 2 2.2208 11.1019 1.37906 -0.382076
168 1 -1.1104 6.94734 -2.79229 6.74914
8839 2 2.2208 2.77888 -4.38312 2.45802
8848 2 2.2208 8.27281 -4.28393 8.21835
54 2 2.2208 5.38757 6.93831 5.13107
55 2 2.2208 5.53419 12.5852 5.1497
56 1 -1.1104 1.14724 8.24292 0.915408
58 1 -1.1104 1.11574 8.37127 3.72632
60 1 -1.1104 1.2592 5.46273 1.20042
61 1 -1.1104 1.26407 11.0597 0.976748
66 2 2.2208 5.41161 9.81981 2.46364
67 1 -1.1104 1.31807 5.55547 3.91002
68 1 -1.1104 1.36459 11.1819 3.61784
71 1 -1.1104 3.9369 8.40721 1.05463
72 2 2.2208 2.57218 6.87037 2.38416
73 2 2.2208 2.74431 12.7136 2.29636
74 1 -1.1104 4.04769 8.42327 3.80519
75 2 2.2208 2.80153 9.80116 5.12988
76 1 -1.1104 4.1222 5.4244 1.02923
77 1 -1.1104 4.13842 11.3077 1.13222
79 1 -1.1104 4.05654 5.57358 3.75792
80 1 -1.1104 4.04319 11.2376 3.87198
83 2 2.2208 -0.123591 12.4821 5.30283
82 2 2.2208 -0.155858 9.77864 2.37954
78 1 -1.1104 4.08781 11.1791 6.64416
362 2 2.2208 8.2904 18.1387 13.5909
81 2 2.2208 -0.271738 7.00968 5.11529
236 1 -1.1104 1.34128 5.55092 6.75012
239 1 -1.1104 4.0119 5.50377 6.53597
234 1 -1.1104 1.1571 8.3084 6.62782
8849 2 2.2208 11.105 -4.30134 10.9829
8840 2 2.2208 5.549 -4.29301 5.42462
59 1 -1.1104 6.77277 8.4195 3.81038
70 1 -1.1104 6.94027 11.2088 3.92014
69 1 -1.1104 6.86505 5.5568 3.88819
63 1 -1.1104 6.92461 5.61601 1.04389
57 1 -1.1104 6.79054 8.3501 1.12573
64 1 -1.1104 6.93054 11.2271 1.10659
84 2 2.2208 11.0602 6.96443 5.33878
85 2 2.2208 11.0621 12.4836 5.06897
86 1 -1.1104 12.4891 8.39226 1.0529
87 1 -1.1104 12.5285 8.14943 3.95716
88 1 -1.1104 12.5723 5.57426 1.11129
89 1 -1.1104 12.4804 11.105 0.951232
91 2 2.2208 11.0977 9.64867 2.36901
92 1 -1.1104 12.4621 5.52047 3.92101
93 1 -1.1104 12.5634 11.0565 3.65443
94 1 -1.1104 9.78716 8.26404 1.14848
95 2 2.2208 8.19048 6.94305 2.51353
96 2 2.2208 8.3296 12.5241 2.44754
97 1 -1.1104 9.47602 8.45316 3.8211
98 2 2.2208 8.30886 9.71219 5.19315
99 1 -1.1104 9.53845 5.57205 1.09011
100 1 -1.1104 9.76104 11.2195 0.999619
102 1 -1.1104 9.67406 5.5747 4.00661
103 1 -1.1104 9.785 11.2427 3.78117
65 1 -1.1104 6.91956 11.0807 6.61284
267 1 -1.1104 9.75605 8.54952 6.68482
366 2 2.2208 2.63991 4.12149 -0.264521
328 1 -1.1104 12.5708 13.9914 9.33698
137 2 2.2208 -0.15709 18.0618 5.25252
136 2 2.2208 -0.304293 20.9853 2.38185
135 2 2.2208 -0.0749392 15.3354 2.57117
106 2 2.2208 5.41728 18.1147 5.25505
107 1 -1.1104 1.22439 13.8714 1.12903
109 1 -1.1104 1.33974 19.3959 0.831601
113 1 -1.1104 1.26397 13.8289 3.90781
114 1 -1.1104 1.10571 19.7231 3.76488
116 1 -1.1104 1.24772 16.7582 1.15517
119 2 2.2208 5.46951 15.4457 2.43354
120 2 2.2208 5.55926 20.8947 2.48059
121 1 -1.1104 1.30789 16.7369 3.9909
123 1 -1.1104 4.20345 14.0064 0.838021
125 1 -1.1104 4.11617 19.7228 1.11116
127 2 2.2208 2.67493 18.1745 2.3654
128 1 -1.1104 4.17255 14.0319 3.76748
129 1 -1.1104 4.141 19.4709 3.80299
130 2 2.2208 2.73741 15.293 5.23976
131 2 2.2208 2.57949 20.8194 5.23132
132 1 -1.1104 4.14598 16.9301 0.950472
134 1 -1.1104 4.05059 16.6844 3.79209
108 1 -1.1104 1.17565 13.9938 6.64804
126 1 -1.1104 3.97353 19.3341 6.71041
124 1 -1.1104 4.06742 13.9358 6.53119
117 1 -1.1104 1.33864 16.6838 6.77507
360 2 2.2208 11.1477 20.9385 13.6311
156 1 -1.1104 9.66953 19.6323 6.64103
110 1 -1.1104 6.93826 13.8389 0.958895
139 1 -1.1104 6.98033 19.3672 3.83823
122 1 -1.1104 6.7886 16.6385 3.8344
138 1 -1.1104 6.95989 19.6594 0.893676
115 1 -1.1104 6.97412 14.0259 3.68613
140 1 -1.1104 6.95751 16.7504 1.01921
141 2 2.2208 11.0986 18.1356 5.20506
142 1 -1.1104 12.5254 13.8795 1.01645
144 1 -1.1104 12.3471 19.7139 0.925201
146 1 -1.1104 12.5072 13.9725 3.59445
147 1 -1.1104 12.3608 19.6669 3.73988
148 1 -1.1104 12.6657 16.7956 0.98558
150 2 2.2208 11.2412 15.4643 2.31825
151 2 2.2208 11.0121 21.0638 2.40089
152 1 -1.1104 12.6374 16.9286 3.82454
153 1 -1.1104 9.66432 14.0019 1.04254
155 1 -1.1104 9.58587 19.6829 0.900042
157 2 2.2208 8.31475 18.1866 2.37874
158 1 -1.1104 9.6426 14.0047 3.83368
159 1 -1.1104 9.60309 19.6785 3.82038
160 2 2.2208 8.42511 15.3265 5.13333
161 2 2.2208 8.34016 21.0337 5.25448
162 1 -1.1104 9.76158 16.8129 0.976907
164 1 -1.1104 9.77281 16.8345 3.69407
143 1 -1.1104 12.5665 13.8836 6.37797
118 1 -1.1104 6.75939 16.8846 6.61778
145 1 -1.1104 12.5026 19.4427 6.52262
111 1 -1.1104 6.8518 13.9972 6.5351
163 1 -1.1104 9.69503 16.8176 6.65976
314 1 -1.1104 9.73588 16.5855 9.54902
166 1 -1.1104 1.31816 -3.03818 6.60536
173 1 -1.1104 4.03299 2.80962 6.80592
174 1 -1.1104 4.12525 0.00422663 6.64998
170 1 -1.1104 1.24062 -0.173658 6.7794
199 2 2.2208 -0.134887 4.2042 7.99337
172 1 -1.1104 4.10364 -2.82748 6.67645
175 2 2.2208 5.43908 1.36663 10.9602
176 1 -1.1104 1.25868 -2.88544 12.3026
177 1 -1.1104 1.18784 2.6834 12.2659
180 1 -1.1104 1.32517 -2.971 9.44584
181 1 -1.1104 1.18262 2.79109 9.52663
184 1 -1.1104 1.33353 -0.0731797 12.3878
186 2 2.2208 5.58864 -1.51749 8.06728
187 2 2.2208 5.42862 4.23471 7.94774
188 1 -1.1104 1.23616 -0.0341971 9.56444
190 1 -1.1104 3.86505 -2.93473 12.3825
191 1 -1.1104 4.014 2.7136 12.2864
192 2 2.2208 2.77404 1.32964 8.15975
193 1 -1.1104 4.09505 -2.96731 9.52501
194 1 -1.1104 4.1002 2.64897 9.54202
195 2 2.2208 2.75033 -1.45984 10.981
196 2 2.2208 2.63519 4.10589 10.9521
197 1 -1.1104 4.09653 -0.0135723 12.4342
198 1 -1.1104 4.18993 -0.156575 9.41349
201 2 2.2208 -0.161364 1.34894 10.9499
200 2 2.2208 -0.185925 -1.54262 8.12303
318 1 -1.1104 9.62316 19.3239 9.45749
317 2 2.2208 8.27792 15.2884 10.7378
209 1 -1.1104 9.54475 2.71494 6.67263
331 2 2.2208 11.0661 18.0135 10.8302
171 1 -1.1104 7.04446 0.0241114 6.65303
183 1 -1.1104 6.83997 2.6196 9.44844
185 1 -1.1104 6.86443 -0.144244 12.4338
179 1 -1.1104 6.73292 2.7161 12.3143
189 1 -1.1104 6.95872 -0.201858 9.43773
178 1 -1.1104 6.90121 -2.8271 12.3573
205 1 -1.1104 12.3762 -2.92253 6.61788
182 1 -1.1104 6.83133 -2.97851 9.5116
207 1 -1.1104 12.5509 -0.0670843 6.70552
208 1 -1.1104 9.74474 -2.78886 6.85584
211 2 2.2208 11.1224 1.28403 10.8253
212 1 -1.1104 12.5118 -2.87375 12.3734
213 1 -1.1104 12.4327 2.5718 12.1408
214 1 -1.1104 12.5124 -2.86567 9.58715
215 1 -1.1104 12.3992 2.73311 9.25834
216 1 -1.1104 12.5093 -0.00944836 12.2349
217 2 2.2208 11.2153 -1.45808 8.07215
219 1 -1.1104 12.4007 -0.000620666 9.49081
220 1 -1.1104 9.72568 -2.93179 12.3251
221 1 -1.1104 9.68543 2.67018 12.0775
222 2 2.2208 8.26416 1.22973 8.07576
223 1 -1.1104 9.79875 -2.8728 9.60017
224 1 -1.1104 9.55588 2.79059 9.54199
225 2 2.2208 8.31878 -1.43673 10.9124
227 1 -1.1104 9.68846 -0.0148672 12.4044
228 1 -1.1104 9.78223 -0.137906 9.61812
226 2 2.2208 8.20508 4.1046 10.8561
218 2 2.2208 11.0496 4.07314 8.04089
330 1 -1.1104 12.4905 13.7886 12.1507
322 1 -1.1104 9.8306 13.6604 12.3994
30 2 2.2208 -0.224918 9.72831 7.97865
238 1 -1.1104 4.03591 8.3487 6.56778
62 1 -1.1104 1.20576 11.0367 6.52842
51 2 2.2208 -0.242456 12.5948 10.7567
29 2 2.2208 -0.0933885 6.94679 10.9327
240 2 2.2208 5.44443 6.8973 10.8158
241 2 2.2208 5.57187 12.4841 10.8671
242 1 -1.1104 1.25519 8.42132 12.3003
244 1 -1.1104 1.11134 8.39244 9.36215
246 1 -1.1104 1.24534 5.48262 12.451
247 1 -1.1104 1.08074 11.2442 12.0297
250 2 2.2208 5.41204 9.73182 8.06706
251 1 -1.1104 1.18744 5.63216 9.65133
252 1 -1.1104 1.40063 11.0329 9.22086
255 1 -1.1104 3.99581 8.34175 12.2955
256 2 2.2208 2.49599 7.00861 8.06529
257 2 2.2208 2.6497 12.5061 8.00007
258 1 -1.1104 4.04174 8.30755 9.33803
259 2 2.2208 2.63489 9.66945 10.8579
260 1 -1.1104 4.13847 5.46914 12.3632
261 1 -1.1104 4.08567 11.0027 12.3208
262 1 -1.1104 3.97449 5.58383 9.49201
263 1 -1.1104 4.15473 11.3022 9.40866
112 1 -1.1104 6.99149 19.5763 6.60347
90 1 -1.1104 12.4206 11.1172 6.55287
269 1 -1.1104 9.76584 5.59288 6.5901
266 1 -1.1104 12.4821 5.52508 6.69229
235 1 -1.1104 6.8652 8.38857 6.5378
265 1 -1.1104 12.4555 8.37163 6.62373
101 1 -1.1104 9.77651 11.2608 6.62468
237 1 -1.1104 6.82745 5.60229 6.54402
248 1 -1.1104 6.87614 5.44687 12.2039
253 1 -1.1104 6.82846 5.52451 9.29201
249 1 -1.1104 6.91561 11.1801 12.209
245 1 -1.1104 6.8141 8.38753 9.43929
243 1 -1.1104 6.97755 8.36265 12.0382
254 1 -1.1104 6.85525 11.1547 9.39956
264 1 -1.1104 9.57385 11.0449 9.39117
268 1 -1.1104 9.51533 5.65945 9.34673
270 1 -1.1104 9.6421 10.9855 12.0761
271 1 -1.1104 9.63505 5.53199 12.1982
272 2 2.2208 8.30954 9.69569 10.6889
273 1 -1.1104 9.71007 8.38226 9.46408
274 2 2.2208 8.18901 12.5547 7.97574
275 2 2.2208 8.34502 6.98493 8.0305
276 2 2.2208 11.14 6.97642 10.8913
277 2 2.2208 10.9579 12.4065 10.7793
278 1 -1.1104 12.6978 8.21343 12.3157
279 1 -1.1104 12.4964 8.34655 9.46314
280 1 -1.1104 12.4453 5.31848 12.2987
281 1 -1.1104 12.4431 11.0284 12.0554
282 2 2.2208 11.1687 9.74308 8.0142
283 1 -1.1104 12.3895 5.43217 9.41314
284 1 -1.1104 12.4205 11.1192 9.35809
285 1 -1.1104 9.79275 8.32539 12.1919
133 1 -1.1104 3.96516 16.6465 6.67312
302 1 -1.1104 1.28593 19.4741 6.71882
313 2 2.2208 -0.275867 15.3752 8.01319
305 1 -1.1104 3.96661 13.9688 9.20334
300 2 2.2208 5.46428 18.1371 10.7142
299 1 -1.1104 1.30369 13.9582 12.1828
298 1 -1.1104 1.06448 19.4232 12.2506
292 1 -1.1104 1.26953 16.7305 9.58455
294 1 -1.1104 1.15167 14.0079 9.35457
287 1 -1.1104 4.13796 13.7481 12.1221
291 1 -1.1104 1.04546 19.3702 9.5688
303 2 2.2208 2.58849 18.0779 8.18126
304 1 -1.1104 4.02372 16.8226 9.63428
286 1 -1.1104 3.89181 19.6772 12.3313
301 1 -1.1104 4.1064 19.6038 9.41607
310 2 2.2208 2.55977 15.2805 10.8226
293 2 2.2208 5.41704 20.9322 7.85133
309 2 2.2208 2.64848 21.0089 10.8435
308 1 -1.1104 4.07664 16.8271 12.3293
307 1 -1.1104 1.30274 16.5438 12.3696
295 2 2.2208 5.32334 15.3566 8.071
311 2 2.2208 -0.217522 20.9108 8.09293
312 2 2.2208 -0.239658 18.0299 10.9494
315 1 -1.1104 9.69276 16.5955 12.2887
329 1 -1.1104 12.5071 19.4073 12.2009
325 2 2.2208 11.0868 15.2427 7.98225
316 2 2.2208 8.23721 20.8446 10.8816
324 2 2.2208 11.0384 20.8865 8.15482
321 1 -1.1104 9.58402 19.368 12.2062
326 1 -1.1104 12.5205 16.6909 12.2104
154 1 -1.1104 9.68809 14.1099 6.61684
323 1 -1.1104 12.3259 16.5465 9.25623
149 1 -1.1104 12.3548 16.5401 6.52635
327 1 -1.1104 12.573 19.4071 9.3409
290 1 -1.1104 6.84276 13.9385 9.39218
288 1 -1.1104 6.8632 19.5759 9.34815
306 1 -1.1104 6.80955 16.769 12.1645
296 1 -1.1104 6.89656 19.4803 12.1145
297 1 -1.1104 6.78313 14.0121 12.1682
289 1 -1.1104 6.82574 16.7421 9.30922
319 1 -1.1104 9.62762 13.7482 9.39052
320 2 2.2208 8.22587 18.16 7.95544
358 2 2.2208 5.44571 20.9698 13.5439
8858 2 2.2208 5.47688 -4.31821 -0.373206
359 2 2.2208 5.34287 15.3127 13.5212
8854 2 2.2208 11.1863 -4.19814 -0.279983
341 2 2.2208 5.64965 4.19384 13.7355
364 2 2.2208 5.34208 1.20592 -0.318777
8860 2 2.2208 -0.131731 -4.27687 -0.339384
354 2 2.2208 8.2968 6.88621 13.662
371 2 2.2208 -0.145365 18.0151 -0.388543
350 2 2.2208 11.0139 4.14202 13.6638
375 2 2.2208 2.63848 20.97 -0.426581
361 2 2.2208 11.0649 15.2499 13.6833
355 2 2.2208 11.1325 9.69676 13.5435
380 2 2.2208 2.65545 9.84136 -0.391264
353 2 2.2208 2.75481 12.4967 13.615
351 2 2.2208 2.63138 6.92928 13.707
384 2 2.2208 11.0895 6.91843 -0.359336
372 2 2.2208 8.19387 4.24861 -0.355275
388 2 2.2208 5.52183 1.27452 16.4758
389 1 -1.1104 1.1153 -2.92024 17.966
390 1 -1.1104 1.19857 2.75172 17.7737
393 1 -1.1104 1.2794 -2.86741 15.1281
395 1 -1.1104 1.42691 2.78111 14.9373
401 1 -1.1104 1.20213 -0.0153117 17.9391
403 2 2.2208 5.42559 -1.36244 19.3833
404 2 2.2208 5.4792 4.0591 19.3419
405 1 -1.1104 1.04403 -0.147283 15.2148
409 1 -1.1104 4.05405 -2.77377 17.9851
410 1 -1.1104 4.07548 2.88618 18.0264
411 2 2.2208 2.64754 1.31564 19.3586
412 1 -1.1104 4.08271 -2.79324 15.2164
414 1 -1.1104 4.29355 2.78895 15.2288
416 2 2.2208 2.63391 -1.55277 16.5871
417 2 2.2208 2.70777 4.21241 16.4594
418 1 -1.1104 4.07678 -0.160692 18.0535
419 1 -1.1104 3.92487 -0.0145829 15.3279
425 2 2.2208 -0.217039 -1.73249 19.3711
396 1 -1.1104 1.20481 2.63942 20.619
424 2 2.2208 -0.262639 1.15415 16.564
427 2 2.2208 -0.056597 4.1249 19.3084
374 2 2.2208 5.48053 18.2756 27.6818
8974 2 2.2208 5.40847 -4.17735 16.4844
8943 2 2.2208 8.3322 -4.24768 19.3167
402 1 -1.1104 7.00254 -0.074323 17.7881
382 2 2.2208 -0.245444 12.6118 27.803
397 1 -1.1104 6.84055 -2.83186 15.1421
399 1 -1.1104 6.89882 2.72247 15.1474
392 1 -1.1104 6.95727 2.64358 17.9249
407 1 -1.1104 6.79956 0.00243386 15.0068
391 1 -1.1104 6.85794 -2.74314 17.8378
400 1 -1.1104 6.87065 2.77238 20.8531
431 2 2.2208 11.0744 1.37012 16.4619
432 1 -1.1104 12.4901 -2.6857 18.0727
433 1 -1.1104 12.5771 2.74296 17.6597
434 1 -1.1104 12.5819 -2.75531 15.2149
436 1 -1.1104 12.6123 2.98242 15.0299
438 1 -1.1104 12.4213 0.0887683 18.0265
439 2 2.2208 11.1565 -1.41391 19.3124
440 2 2.2208 11.0341 4.19314 19.2359
441 1 -1.1104 12.439 0.0658051 15.0398
443 1 -1.1104 9.70574 -2.8437 17.9077
444 1 -1.1104 9.75239 2.86667 17.807
445 2 2.2208 8.26869 1.33944 19.3636
446 1 -1.1104 9.80995 -2.89323 15.1095
448 1 -1.1104 9.73062 2.7953 15.0711
450 2 2.2208 8.2971 -1.43793 16.453
452 1 -1.1104 9.6874 -0.159602 17.882
453 1 -1.1104 9.54061 0.0271691 15.1365
451 2 2.2208 8.28738 4.06378 16.478
435 1 -1.1104 12.5563 -2.93551 20.7436
346 2 2.2208 11.2032 -1.42568 13.7422
454 1 -1.1104 9.59938 -0.0445481 20.6481
348 2 2.2208 11.0192 18.1934 27.5869
8942 2 2.2208 -0.150343 -4.44436 22.2522
464 2 2.2208 5.57364 6.98214 16.4798
465 2 2.2208 5.34659 12.5064 16.4691
466 1 -1.1104 1.3152 8.19527 17.7843
468 1 -1.1104 1.21721 8.22529 15.016
472 1 -1.1104 1.25155 5.39053 17.9223
473 1 -1.1104 1.17695 11.0884 17.6395
476 2 2.2208 5.35031 9.7323 19.2848
477 1 -1.1104 1.3627 5.49727 15.2003
479 1 -1.1104 1.28265 11.0417 14.8938
485 1 -1.1104 4.00492 8.36616 17.9335
486 2 2.2208 2.72373 6.78304 19.2967
487 2 2.2208 2.6549 12.6309 19.1843
488 1 -1.1104 4.12721 8.25244 15.0438
490 2 2.2208 2.62295 9.61931 16.3801
491 1 -1.1104 4.14836 5.68526 17.9083
492 1 -1.1104 3.9364 11.1426 17.8335
493 1 -1.1104 4.17883 5.62822 15.0872
495 1 -1.1104 4.09309 11.1361 15.1281
621 2 2.2208 -0.154696 6.87812 16.4824
622 2 2.2208 -0.139629 9.68816 19.3193
648 2 2.2208 -0.229776 12.5598 16.4312
338 2 2.2208 5.50356 -1.57388 13.7991
373 2 2.2208 2.72211 15.3036 27.6481
467 1 -1.1104 6.78627 8.40832 17.9066
470 1 -1.1104 6.84821 8.27814 14.9529
481 1 -1.1104 6.93306 5.59181 15.0355
475 1 -1.1104 6.67899 11.1962 17.8597
474 1 -1.1104 6.93844 5.45438 17.9285
483 1 -1.1104 6.82046 11.1253 15.0219
500 2 2.2208 10.9241 6.9471 16.3738
501 2 2.2208 11.0142 12.4977 16.3613
502 1 -1.1104 12.6051 8.35354 17.9797
503 1 -1.1104 12.4736 8.39104 15.0364
505 1 -1.1104 12.5628 5.5182 17.7802
506 1 -1.1104 12.4068 11.0388 17.8146
507 2 2.2208 11.0554 9.72423 19.2639
508 1 -1.1104 12.4131 5.64608 15.1291
510 1 -1.1104 12.471 11.1337 14.9599
512 1 -1.1104 9.65192 8.39924 17.8183
513 2 2.2208 8.14384 6.95122 19.2797
514 2 2.2208 8.32366 12.5712 19.1519
515 1 -1.1104 9.66544 8.34789 14.9456
517 2 2.2208 8.29303 9.82015 16.3399
518 1 -1.1104 9.7691 5.54323 17.8372
519 1 -1.1104 9.48296 11.1769 17.7456
520 1 -1.1104 9.67573 5.67955 14.9906
522 1 -1.1104 9.65563 11.1434 14.8834
471 1 -1.1104 6.79677 8.3597 20.7442
462 2 2.2208 11.02 18.2848 21.9498
8862 2 2.2208 8.31699 -4.14545 13.7824
463 1 -1.1104 12.3588 14.0034 23.3947
456 2 2.2208 -0.254031 18.1231 16.3964
458 2 2.2208 -0.26517 20.9119 19.2319
527 2 2.2208 5.54107 18.1793 16.4645
528 1 -1.1104 1.21158 14.0691 17.8392
529 1 -1.1104 1.22667 19.4851 17.7912
532 1 -1.1104 1.21945 13.8614 15.1589
534 1 -1.1104 1.14988 19.4355 15.078
540 1 -1.1104 1.22446 16.7575 17.8358
542 2 2.2208 5.42985 15.4281 19.1553
543 2 2.2208 5.46344 20.9519 19.2809
544 1 -1.1104 1.12055 16.6965 15.058
548 1 -1.1104 4.04575 14.0299 17.9227
549 1 -1.1104 4.0472 19.5126 17.8096
550 2 2.2208 2.58535 18.076 19.2236
551 1 -1.1104 3.95473 14.0209 14.9937
553 1 -1.1104 4.13167 19.5764 15.1447
555 2 2.2208 2.60066 15.3793 16.345
556 2 2.2208 2.65464 20.8375 16.5317
557 1 -1.1104 4.03824 16.7775 17.7927
558 1 -1.1104 4.15047 16.715 14.9585
554 1 -1.1104 3.98879 19.6827 20.6009
457 2 2.2208 -0.091252 15.3474 19.3191
545 1 -1.1104 1.266 16.7836 20.7808
533 1 -1.1104 1.21729 13.9564 20.6335
552 1 -1.1104 4.12956 14.0343 20.4946
559 1 -1.1104 3.95757 16.8699 20.7406
8907 2 2.2208 2.6754 -4.38359 24.8902
334 2 2.2208 -0.0869647 -1.46833 13.7344
574 1 -1.1104 12.4767 16.9391 20.572
547 1 -1.1104 6.80359 16.7389 20.5649
567 1 -1.1104 12.3822 13.9608 20.5824
541 1 -1.1104 6.87783 16.7574 17.7494
530 1 -1.1104 6.83663 14.0179 17.9241
531 1 -1.1104 6.82925 19.6164 17.6847
536 1 -1.1104 6.64129 13.955 15.0055
546 1 -1.1104 6.92801 16.7605 15.0077
538 1 -1.1104 6.82787 19.5398 14.8651
563 2 2.2208 11.143 18.2292 16.3772
564 1 -1.1104 12.3739 13.9159 17.6404
565 1 -1.1104 12.3619 19.6197 17.9366
566 1 -1.1104 12.4272 13.9438 15.0408
568 1 -1.1104 12.5043 19.5755 14.9719
570 1 -1.1104 12.4207 16.7362 17.9619
571 2 2.2208 11.0008 15.4335 19.1834
572 2 2.2208 11.1491 21.0825 19.2934
573 1 -1.1104 12.413 16.806 15.0477
575 1 -1.1104 9.56866 13.8791 17.6966
576 1 -1.1104 9.64657 19.5682 17.8065
577 2 2.2208 8.29655 18.1827 19.1113
578 1 -1.1104 9.54739 13.9103 14.9759
580 1 -1.1104 9.65595 19.5559 14.9592
582 2 2.2208 8.12026 15.2708 16.426
583 2 2.2208 8.2852 20.9268 16.3253
584 1 -1.1104 9.67715 16.8873 17.792
585 1 -1.1104 9.63503 16.782 14.945
539 1 -1.1104 6.88244 19.5714 20.5769
581 1 -1.1104 9.68287 19.64 20.6218
537 1 -1.1104 7.02099 13.7848 20.6593
394 1 -1.1104 1.36955 -3.03138 20.6464
420 1 -1.1104 4.06992 0.0118148 20.8097
626 2 2.2208 -0.0959225 4.23369 24.9246
624 2 2.2208 -0.11765 -1.47199 24.871
625 2 2.2208 -0.0886228 1.3139 22.0721
415 1 -1.1104 3.98541 2.77739 20.8696
413 1 -1.1104 4.18585 -2.92214 20.8316
406 1 -1.1104 1.24539 -0.240377 20.665
591 2 2.2208 5.45967 1.28289 22.2039
592 1 -1.1104 1.19382 -2.97429 23.4958
593 1 -1.1104 1.23042 2.68459 23.4475
596 1 -1.1104 1.15186 -2.79895 26.3357
597 1 -1.1104 1.32892 2.78141 26.3115
600 1 -1.1104 1.36939 -0.0294226 23.3782
602 2 2.2208 5.42806 -1.5465 24.8959
603 2 2.2208 5.51138 4.09043 24.834
604 1 -1.1104 1.17367 -0.0315984 26.2439
606 1 -1.1104 4.01165 -3.0482 23.5409
607 1 -1.1104 4.15537 2.66774 23.5825
608 2 2.2208 2.63516 1.34252 24.9486
609 1 -1.1104 3.97313 -2.90488 26.3694
610 1 -1.1104 4.07362 2.77255 26.3532
611 2 2.2208 2.63241 -1.56865 22.0986
612 2 2.2208 2.61975 4.06648 22.2415
613 1 -1.1104 3.97242 -0.251259 23.5099
614 1 -1.1104 4.1097 -0.00161189 26.2368
339 2 2.2208 2.69088 1.21172 13.8845
449 1 -1.1104 9.58897 2.83873 20.5007
442 1 -1.1104 12.3492 -0.0843149 20.6514
408 1 -1.1104 6.88482 0.0470268 20.7017
398 1 -1.1104 6.93427 -2.7022 20.6496
605 1 -1.1104 6.84237 0.0220607 26.2308
601 1 -1.1104 6.89339 0.058851 23.4696
599 1 -1.1104 6.89942 2.90373 26.1192
594 1 -1.1104 6.89765 -2.94411 23.5494
598 1 -1.1104 6.82593 -2.88311 26.3133
595 1 -1.1104 7.05402 2.71493 23.4202
437 1 -1.1104 12.5382 2.7071 20.6125
447 1 -1.1104 9.66974 -2.77689 20.7632
627 2 2.2208 11.2056 1.39759 22.1097
628 1 -1.1104 12.5145 -2.98546 23.4938
629 1 -1.1104 12.5335 2.76184 23.3792
630 1 -1.1104 12.3604 -2.89451 26.2726
631 1 -1.1104 12.6294 2.71026 26.2366
632 1 -1.1104 12.6155 -0.0879537 23.3802
633 2 2.2208 11.1747 -1.46791 24.8436
634 2 2.2208 11.06 4.18909 24.9343
635 1 -1.1104 12.4183 0.0148802 26.2446
636 1 -1.1104 9.68918 -2.82891 23.4691
637 1 -1.1104 9.7848 2.80943 23.3352
638 2 2.2208 8.26468 1.42351 24.9777
639 1 -1.1104 9.69111 -3.04094 26.3318
640 1 -1.1104 9.83021 2.72714 26.0909
641 2 2.2208 8.36846 -1.36309 22.215
643 1 -1.1104 9.72755 0.0114694 23.5521
644 1 -1.1104 9.54211 -0.0421853 26.3253
642 2 2.2208 8.31873 4.1331 22.0896
489 1 -1.1104 4.05549 8.33276 20.6706
496 1 -1.1104 4.06928 11.2337 20.5788
421 2 2.2208 -0.233833 6.79411 22.0641
684 2 2.2208 -0.184324 9.699 24.9577
480 1 -1.1104 1.34945 11.1507 20.6398
685 2 2.2208 -0.173414 12.5227 22.0159
478 1 -1.1104 1.15734 5.4954 20.7729
469 1 -1.1104 1.1392 8.32058 20.7664
494 1 -1.1104 3.91043 5.53454 20.6689
656 2 2.2208 5.38623 7.00143 22.1168
657 2 2.2208 5.54761 12.6735 21.8556
658 1 -1.1104 1.1663 8.25752 23.4554
660 1 -1.1104 1.15657 8.42879 26.3371
662 1 -1.1104 1.21456 5.43489 23.5789
663 1 -1.1104 1.25547 11.1356 23.4116
666 2 2.2208 5.39582 9.93168 24.7224
667 1 -1.1104 1.19157 5.66065 26.332
668 1 -1.1104 1.15766 11.2703 26.2925
671 1 -1.1104 3.9093 8.40044 23.4472
672 2 2.2208 2.58726 7.01332 25.0128
673 2 2.2208 2.60147 12.6069 24.8836
674 1 -1.1104 4.03397 8.42301 26.3474
675 2 2.2208 2.51731 9.7535 22.1227
676 1 -1.1104 4.02216 5.54537 23.6911
677 1 -1.1104 3.97146 11.3656 23.4131
678 1 -1.1104 3.9904 5.64452 26.3586
679 1 -1.1104 4.04476 11.0525 26.3017
349 2 2.2208 8.19894 20.881 27.5707
562 1 -1.1104 9.63892 19.635 23.4374
504 1 -1.1104 12.35 8.30985 20.7405
511 1 -1.1104 12.5776 11.0665 20.7283
482 1 -1.1104 6.74453 5.50907 20.6407
669 1 -1.1104 6.78143 5.74956 26.3236
523 1 -1.1104 9.70847 11.133 20.5899
509 1 -1.1104 12.4766 5.6704 20.6946
484 1 -1.1104 6.83111 11.0505 20.7479
661 1 -1.1104 6.83616 8.44586 26.2778
670 1 -1.1104 6.87103 11.2143 26.1767
665 1 -1.1104 7.03525 11.155 23.499
664 1 -1.1104 6.97399 5.49988 23.5371
516 1 -1.1104 9.54531 8.3813 20.7206
521 1 -1.1104 9.62834 5.53037 20.5808
659 1 -1.1104 6.78615 8.42966 23.3895
687 1 -1.1104 9.68481 11.2095 26.2657
688 1 -1.1104 9.61899 5.56028 26.2866
689 1 -1.1104 9.66883 11.1888 23.4276
690 1 -1.1104 9.65363 5.63323 23.3369
691 2 2.2208 8.24726 9.78916 22.0744
692 1 -1.1104 9.59947 8.40302 26.3916
693 2 2.2208 8.38222 12.6557 24.8972
694 2 2.2208 8.13257 7.02494 24.8942
695 2 2.2208 11.0989 6.92826 22.1112
696 2 2.2208 11.0197 12.5957 21.9893
697 1 -1.1104 12.6179 8.27917 23.494
698 1 -1.1104 12.4882 8.27351 26.3433
699 1 -1.1104 12.5043 5.42866 23.5883
700 1 -1.1104 12.2261 11.16 23.429
701 2 2.2208 11.0168 9.68588 24.9249
702 1 -1.1104 12.3257 5.46543 26.35
703 1 -1.1104 12.4539 11.127 26.1038
704 1 -1.1104 9.5721 8.33821 23.5766
587 2 2.2208 8.26276 18.2177 24.6666
617 1 -1.1104 9.52742 16.7542 23.3385
645 2 2.2208 -0.277948 20.9489 24.855
623 2 2.2208 -0.192692 18.1821 22.0868
646 2 2.2208 -0.233615 15.4086 24.8587
535 1 -1.1104 1.1689 19.6963 20.5917
647 2 2.2208 2.55197 15.2932 22.0726
649 2 2.2208 2.60638 21.0443 21.9865
652 1 -1.1104 4.05974 17.0262 23.4961
655 1 -1.1104 1.18681 16.6877 23.5531
681 1 -1.1104 4.10496 13.9401 26.2163
682 1 -1.1104 3.89976 16.7913 26.2706
683 2 2.2208 2.66902 18.1577 24.7676
686 1 -1.1104 4.10237 19.5841 26.2624
705 2 2.2208 5.42919 18.1842 21.9558
706 1 -1.1104 1.17382 14.0414 23.5555
707 1 -1.1104 1.12097 19.702 23.4221
711 1 -1.1104 4.0324 19.6333 23.4704
713 1 -1.1104 4.01753 14.1165 23.3357
715 1 -1.1104 1.11821 19.551 26.1438
716 1 -1.1104 1.11772 16.7468 26.2943
717 1 -1.1104 1.35782 14.1641 26.3116
719 2 2.2208 5.42177 20.9925 24.8095
720 2 2.2208 5.51815 15.4324 24.7562
367 2 2.2208 -0.168869 9.80781 13.5564
620 1 -1.1104 9.64809 16.9163 26.2184
589 1 -1.1104 9.69213 14.1949 26.2961
525 2 2.2208 10.9058 15.4306 24.7927
615 2 2.2208 8.25223 15.4072 21.9159
498 1 -1.1104 12.4599 14.0344 26.1531
712 1 -1.1104 7.02959 14.0198 26.2021
709 1 -1.1104 6.81928 14.0443 23.4592
718 1 -1.1104 6.73437 19.6163 23.2552
588 1 -1.1104 6.77774 19.5452 25.9973
579 1 -1.1104 9.72938 13.9895 20.5325
586 1 -1.1104 9.62634 16.8296 20.468
569 1 -1.1104 12.5351 19.7211 20.6604
526 2 2.2208 11.1166 20.9245 24.8121
560 1 -1.1104 12.3823 16.8017 26.0226
561 1 -1.1104 9.60948 14.0104 23.314
524 1 -1.1104 12.2907 16.8591 23.3516
499 1 -1.1104 12.4791 19.5141 26.307
497 1 -1.1104 12.381 19.5506 23.4515
680 1 -1.1104 6.84648 16.8577 23.4168
616 2 2.2208 8.26665 21.0932 22.0844
714 1 -1.1104 6.80993 16.8104 26.1973
590 1 -1.1104 9.48989 19.5356 26.0489
386 2 2.2208 11.1068 12.587 27.631
381 2 2.2208 5.5654 12.532 27.5812
347 2 2.2208 8.23852 15.4836 27.6629
8905 2 2.2208 11.0448 -4.25508 22.1652
385 2 2.2208 8.14451 9.75281 27.7194
8944 2 2.2208 11.0309 -4.2293 16.5944
370 2 2.2208 8.18859 -1.46487 27.6337
352 2 2.2208 5.65317 9.64662 13.5139
335 2 2.2208 -0.186232 20.9089 13.6707
356 2 2.2208 8.18629 12.5076 13.5967
342 2 2.2208 -0.185531 15.2903 13.6774
383 2 2.2208 -0.238006 6.92528 27.7688
337 2 2.2208 -0.101139 3.94603 13.6522
343 2 2.2208 8.23691 1.45807 13.6602
721 2 2.2208 5.40605 23.709 4.97915
722 2 2.2208 5.36127 29.3608 5.11088
723 1 -1.1104 1.22654 25.1762 1.01467
724 1 -1.1104 1.18334 25.1416 3.91863
725 1 -1.1104 1.27823 22.2325 1.04038
726 1 -1.1104 1.23613 28.1883 0.971899
727 2 2.2208 5.38056 26.6197 2.26427
728 1 -1.1104 1.20818 22.4189 3.71691
729 1 -1.1104 1.17413 27.9374 3.74018
730 1 -1.1104 4.10186 25.1041 0.967521
731 2 2.2208 2.58902 23.8541 2.47669
732 2 2.2208 2.60953 29.4594 2.40816
733 1 -1.1104 3.99601 25.13 3.67672
734 2 2.2208 2.53387 26.6157 5.10032
735 1 -1.1104 4.04645 22.3668 0.968859
736 1 -1.1104 4.00445 28.0392 0.90339
737 1 -1.1104 4.05678 22.2925 3.642
738 1 -1.1104 3.90388 28.0526 3.66599
869 1 -1.1104 4.03904 22.1814 6.50439
864 1 -1.1104 1.23843 22.2006 6.76855
862 1 -1.1104 1.04451 25.1125 6.69105
740 2 2.2208 -0.183254 29.3936 5.18525
1039 2 2.2208 2.64316 32.2442 -0.391835
868 1 -1.1104 3.90433 25.1018 6.44251
865 1 -1.1104 1.15343 27.8214 6.55493
741 2 2.2208 -0.180355 23.7555 5.22019
1440 1 -1.1104 12.2538 47.588 0.936395
744 1 -1.1104 6.92068 22.426 0.995242
742 1 -1.1104 6.94588 25.246 1.02378
745 1 -1.1104 6.83305 28.0978 0.971453
747 1 -1.1104 6.73021 27.9102 3.83357
746 1 -1.1104 6.97451 22.1955 3.73355
743 1 -1.1104 6.68714 25.1203 3.72399
748 2 2.2208 11.0585 23.8199 5.16339
749 2 2.2208 11.0394 29.1883 5.22953
750 1 -1.1104 12.5385 25.2534 1.034
751 1 -1.1104 12.2911 25.2025 3.88013
752 1 -1.1104 12.5236 22.4518 0.912079
753 1 -1.1104 12.3596 28.0395 1.15441
754 2 2.2208 11.0002 26.5991 2.38403
755 1 -1.1104 12.4561 22.296 3.78387
756 1 -1.1104 12.4926 27.9366 3.87289
757 1 -1.1104 9.84823 25.2192 0.910318
758 2 2.2208 8.26348 23.8496 2.29174
759 2 2.2208 8.16336 29.3533 2.48794
760 1 -1.1104 9.50821 25.1257 3.72351
761 2 2.2208 8.24233 26.4672 5.07432
762 1 -1.1104 9.66429 22.4328 1.10822
763 1 -1.1104 9.60877 27.901 0.993377
764 1 -1.1104 9.6417 22.496 3.82068
765 1 -1.1104 9.52777 27.8956 3.71967
896 1 -1.1104 12.4585 22.3236 6.60845
866 1 -1.1104 6.91979 22.5456 6.51568
898 1 -1.1104 9.74169 24.9156 6.6232
899 1 -1.1104 9.71959 22.2694 6.61115
10178 2 2.2208 -0.283517 37.9431 13.6988
769 2 2.2208 5.30959 34.9963 5.24531
770 1 -1.1104 1.17723 30.9229 1.14465
771 1 -1.1104 1.07559 36.538 0.925962
773 1 -1.1104 1.26414 30.8611 3.79571
774 1 -1.1104 1.03367 36.3686 3.84015
776 1 -1.1104 1.15892 33.7492 1.0668
777 2 2.2208 5.4945 32.1834 2.47616
778 2 2.2208 5.23689 37.7721 2.39513
779 1 -1.1104 1.19037 33.6928 3.8103
781 1 -1.1104 4.03346 30.8056 0.97802
782 1 -1.1104 3.95572 36.5289 1.03387
783 2 2.2208 2.50528 34.9624 2.40257
784 1 -1.1104 4.00713 30.7669 3.80699
785 1 -1.1104 3.73911 36.4349 3.78748
786 2 2.2208 2.5715 32.1235 5.23265
787 2 2.2208 2.51418 37.8613 5.11629
788 1 -1.1104 3.99925 33.5815 1.02105
789 1 -1.1104 3.96112 33.5608 3.7719
791 2 2.2208 -0.260978 32.1386 2.51373
926 1 -1.1104 3.89155 36.4212 6.51727
795 1 -1.1104 6.83257 33.6827 1.00565
925 1 -1.1104 3.88846 30.7099 6.56127
794 1 -1.1104 6.85151 30.6467 3.73824
790 2 2.2208 -0.206378 34.9765 5.21501
927 1 -1.1104 4.01256 33.5831 6.62861
919 1 -1.1104 1.13466 30.6981 6.54571
920 1 -1.1104 1.21456 36.3764 6.64845
923 1 -1.1104 1.14395 33.5419 6.67603
792 2 2.2208 -0.22994 37.9358 2.45609
775 1 -1.1104 6.50305 36.2339 3.83835
922 1 -1.1104 6.73854 36.286 6.65294
780 1 -1.1104 6.86153 33.5688 3.78976
793 1 -1.1104 6.80378 30.8193 0.976606
924 1 -1.1104 6.77041 33.3512 6.63763
772 1 -1.1104 6.77685 36.2635 1.07796
796 2 2.2208 10.9857 34.956 5.34308
797 1 -1.1104 12.4409 30.9034 0.953803
798 1 -1.1104 12.4217 36.3728 1.05231
799 1 -1.1104 12.272 30.7995 3.7605
800 1 -1.1104 12.2739 36.4338 3.71125
801 1 -1.1104 12.4671 33.6956 1.09068