LAMMPS (29 Oct 2020)
OMP_NUM_THREADS environment is not set. Defaulting to 1 thread. (../comm.cpp:94)
  using 1 OpenMP thread(s) per MPI task
OMP_NUM_THREADS environment is not set. Defaulting to 1 thread. (../comm.cpp:94)
  using 1 OpenMP thread(s) per MPI task
Reading data file ...
  orthogonal box = (-0.33208758 -4.0836253 -0.32873168) to (27.672088 332.16363 27.668732)
  2 by 13 by 2 MPI processor grid
  reading atoms ...
  17760 atoms
  reading velocities ...
  17760 velocities
Finding 1-2 1-3 1-4 neighbors ...
  special bond factors lj:    0.0      0.0      0.0     
  special bond factors coul:  0.0      0.0      0.0     
     0 = max # of 1-2 neighbors
     0 = max # of 1-3 neighbors
     0 = max # of 1-4 neighbors
     1 = max # of special neighbors
  special bonds CPU = 0.004 seconds
  read_data CPU = 0.068 seconds
WARNING: 13 of 1000 force values in table Xe-Xe are inconsistent with -dE/dr.
  Should only be flagged at inflection points (../pair_table.cpp:461)
WARNING: 2 of 1000 force values in table Xe-O are inconsistent with -dE/dr.
  Should only be flagged at inflection points (../pair_table.cpp:461)
WARNING: 2 of 1000 force values in table Xe-Th are inconsistent with -dE/dr.
  Should only be flagged at inflection points (../pair_table.cpp:461)
Setting atom values ...
  11760 settings made for charge
Setting atom values ...
  5880 settings made for charge
Setting atom values ...
  120 settings made for charge
PPPM initialization ...
  using 12-bit tables for long-range coulomb (../kspace.cpp:328)
  G vector (1/distance) = 0.29890367
  grid = 40 240 40
  stencil order = 5
  estimated absolute RMS force accuracy = 0.0001549514
  estimated relative force accuracy = 1.0760779e-05
  using single precision MKL FFT
  3d grid and FFT values/proc = 18225 7600
Neighbor list info ...
  update every 1 steps, delay 0 steps, check yes
  max neighbors/atom: 2000, page size: 100000
  master list distance cutoff = 13
  ghost atom cutoff = 13
  binsize = 6.5, bins = 5 52 5
  3 neighbor lists, perpetual/occasional/extra = 3 0 0
  (1) pair coul/long, perpetual
      attributes: half, newton on
      pair build: half/bin/newton
      stencil: half/bin/3d/newton
      bin: standard
  (2) pair eam/alloy, perpetual, skip from (1)
      attributes: half, newton on
      pair build: skip
      stencil: none
      bin: none
  (3) pair table, perpetual, skip from (1)
      attributes: half, newton on
      pair build: skip
      stencil: none
      bin: none
Setting up Verlet run ...
  Unit style    : metal
  Current step  : 0
  Time step     : 0.001
Per MPI rank memory allocation (min/avg/max) = 9.251 | 9.943 | 10.05 Mbytes
Step Temp E_pair E_mol TotEng Press 
       0          300   -231140.73            0   -230452.07    181.39464 
  100000    298.62383   -231135.45            0   -230449.95   -149.15653 
Loop time of 696.71 on 52 procs for 100000 steps with 17760 atoms

Performance: 12.401 ns/day, 1.935 hours/ns, 143.532 timesteps/s
99.8% CPU use with 52 MPI tasks x 1 OpenMP threads

MPI task timing breakdown:
Section |  min time  |  avg time  |  max time  |%varavg| %total
---------------------------------------------------------------
Pair    | 478.94     | 496.8      | 517.97     |  40.2 | 71.31
Bond    | 0.0090737  | 0.015624   | 0.022801   |   2.9 |  0.00
Kspace  | 152.18     | 170.99     | 186.45     |  60.8 | 24.54
Neigh   | 0.48307    | 0.52998    | 0.57053    |   2.5 |  0.08
Comm    | 20.963     | 22.784     | 25.46      |  23.0 |  3.27
Output  | 8.2738e-05 | 8.8546e-05 | 0.0003081  |   0.0 |  0.00
Modify  | 2.3717     | 3.6599     | 6.3854     |  72.5 |  0.53
Other   |            | 1.924      |            |       |  0.28

Nlocal:        341.538 ave         368 max         325 min
Histogram: 3 5 9 15 8 6 2 0 3 1
Nghost:        5548.12 ave        5745 max        5353 min
Histogram: 14 6 0 0 5 3 4 0 13 7
Neighs:       108780.0 ave      118360 max       96425 min
Histogram: 1 3 2 0 10 13 12 6 2 3

Total # of neighbors = 5656549
Ave neighs/atom = 318.49938
Ave special neighs/atom = 0.0000000
Neighbor list builds = 173
Dangerous builds = 0
11760 atoms in group oxygen
PPPM initialization ...
  using 12-bit tables for long-range coulomb (../kspace.cpp:328)
  G vector (1/distance) = 0.29890367
  grid = 40 240 40
  stencil order = 5
  estimated absolute RMS force accuracy = 0.0001549514
  estimated relative force accuracy = 1.0760779e-05
  using single precision MKL FFT
  3d grid and FFT values/proc = 18225 7600
Neighbor list info ...
  update every 1 steps, delay 0 steps, check yes
  max neighbors/atom: 2000, page size: 100000
  master list distance cutoff = 13
  ghost atom cutoff = 13
  binsize = 6.5, bins = 5 52 5
  3 neighbor lists, perpetual/occasional/extra = 3 0 0
  (1) pair coul/long, perpetual
      attributes: half, newton on
      pair build: half/bin/newton
      stencil: half/bin/3d/newton
      bin: standard
  (2) pair eam/alloy, perpetual, skip from (1)
      attributes: half, newton on
      pair build: skip
      stencil: none
      bin: none
  (3) pair table, perpetual, skip from (1)
      attributes: half, newton on
      pair build: skip
      stencil: none
      bin: none
Setting up Verlet run ...
  Unit style    : metal
  Current step  : 0
  Time step     : 0.001
Per MPI rank memory allocation (min/avg/max) = 9.501 | 10.21 | 10.30 Mbytes
Step f_2 Temp v_Tdiff v_deltaT 
       0            0    298.62383            0            0 
  100000    354.80653    300.95461 0.0069887534    81.138777 
  200000    704.53353     302.8478 0.0079646132     92.46842 
  300000    1048.8859    299.22702 0.0083573475    97.028028 
  400000    1398.9472    299.57078 0.0081426207     94.53507 
  500000    1749.6126    300.04058  0.008085543    93.872403 
  600000    2099.5893    300.81003 0.0078723989     91.39782 
  700000    2448.1807    298.00874  0.008024346    93.161911 
  800000    2796.9773    300.36505 0.0077218985    89.650524 
  900000    3147.7206    297.82703 0.0080468766     93.42349 
 1000000    3498.1677     300.5548 0.0081160346    94.226408 
Loop time of 6944.76 on 52 procs for 1000000 steps with 17760 atoms

Performance: 12.441 ns/day, 1.929 hours/ns, 143.993 timesteps/s
99.8% CPU use with 52 MPI tasks x 1 OpenMP threads

MPI task timing breakdown:
Section |  min time  |  avg time  |  max time  |%varavg| %total
---------------------------------------------------------------
Pair    | 4706.5     | 4922.4     | 5178.7     | 142.8 | 70.88
Bond    | 0.093444   | 0.15524    | 0.22744    |   8.4 |  0.00
Kspace  | 1511.8     | 1746.2     | 1941.1     | 216.1 | 25.14
Neigh   | 4.0766     | 4.4466     | 4.7677     |   7.5 |  0.06
Comm    | 207.59     | 225.63     | 254.14     |  74.3 |  3.25
Output  | 0.00097111 | 0.0010531  | 0.002341   |   0.6 |  0.00
Modify  | 6.9446     | 8.9327     | 11.621     |  48.8 |  0.13
Other   |            | 36.95      |            |       |  0.53

Nlocal:        341.538 ave         363 max         321 min
Histogram: 2 4 7 3 11 12 5 3 1 4
Nghost:        5549.90 ave        5729 max        5370 min
Histogram: 18 2 0 0 6 2 0 4 6 14
Neighs:       108758.0 ave      117917 max       95937 min
Histogram: 2 2 2 4 5 8 13 10 2 4

Total # of neighbors = 5655392
Ave neighs/atom = 318.43423
Ave special neighs/atom = 0.0000000
Neighbor list builds = 1457
Dangerous builds = 0
Total wall time: 2:07:21
