LAMMPS (29 Oct 2020)
OMP_NUM_THREADS environment is not set. Defaulting to 1 thread. (../comm.cpp:94)
  using 1 OpenMP thread(s) per MPI task
OMP_NUM_THREADS environment is not set. Defaulting to 1 thread. (../comm.cpp:94)
  using 1 OpenMP thread(s) per MPI task
Reading data file ...
  orthogonal box = (-0.45665406 -5.5923395 -0.45736882) to (27.796654 333.67234 27.797369)
  2 by 13 by 2 MPI processor grid
  reading atoms ...
  17760 atoms
  reading velocities ...
  17760 velocities
Finding 1-2 1-3 1-4 neighbors ...
  special bond factors lj:    0.0      0.0      0.0     
  special bond factors coul:  0.0      0.0      0.0     
     0 = max # of 1-2 neighbors
     0 = max # of 1-3 neighbors
     0 = max # of 1-4 neighbors
     1 = max # of special neighbors
  special bonds CPU = 0.004 seconds
  read_data CPU = 0.061 seconds
WARNING: 13 of 1000 force values in table Xe-Xe are inconsistent with -dE/dr.
  Should only be flagged at inflection points (../pair_table.cpp:461)
WARNING: 2 of 1000 force values in table Xe-O are inconsistent with -dE/dr.
  Should only be flagged at inflection points (../pair_table.cpp:461)
WARNING: 2 of 1000 force values in table Xe-Th are inconsistent with -dE/dr.
  Should only be flagged at inflection points (../pair_table.cpp:461)
Setting atom values ...
  11760 settings made for charge
Setting atom values ...
  5880 settings made for charge
Setting atom values ...
  120 settings made for charge
PPPM initialization ...
  using 12-bit tables for long-range coulomb (../kspace.cpp:328)
  G vector (1/distance) = 0.29840522
  grid = 40 240 40
  stencil order = 5
  estimated absolute RMS force accuracy = 0.00015898267
  estimated relative force accuracy = 1.1040735e-05
  using single precision MKL FFT
  3d grid and FFT values/proc = 18225 7600
Neighbor list info ...
  update every 1 steps, delay 0 steps, check yes
  max neighbors/atom: 2000, page size: 100000
  master list distance cutoff = 13
  ghost atom cutoff = 13
  binsize = 6.5, bins = 5 53 5
  3 neighbor lists, perpetual/occasional/extra = 3 0 0
  (1) pair coul/long, perpetual
      attributes: half, newton on
      pair build: half/bin/newton
      stencil: half/bin/3d/newton
      bin: standard
  (2) pair eam/alloy, perpetual, skip from (1)
      attributes: half, newton on
      pair build: skip
      stencil: none
      bin: none
  (3) pair table, perpetual, skip from (1)
      attributes: half, newton on
      pair build: skip
      stencil: none
      bin: none
Setting up Verlet run ...
  Unit style    : metal
  Current step  : 0
  Time step     : 0.001
Per MPI rank memory allocation (min/avg/max) = 9.592 | 9.949 | 10.03 Mbytes
Step Temp E_pair E_mol TotEng Press 
       0         1200   -228811.29            0   -226056.65    924.83621 
   50000    1194.2232   -228800.75            0   -226059.37    315.32326 
Loop time of 349.972 on 52 procs for 50000 steps with 17760 atoms

Performance: 12.344 ns/day, 1.944 hours/ns, 142.869 timesteps/s
99.8% CPU use with 52 MPI tasks x 1 OpenMP threads

MPI task timing breakdown:
Section |  min time  |  avg time  |  max time  |%varavg| %total
---------------------------------------------------------------
Pair    | 256.12     | 260.9      | 270.67     |  21.2 | 74.55
Bond    | 0.0044265  | 0.0068121  | 0.0091273  |   1.3 |  0.00
Kspace  | 65.944     | 75.239     | 80.735     |  39.6 | 21.50
Neigh   | 3.4338     | 3.6089     | 3.8209     |   4.7 |  1.03
Comm    | 7.0205     | 7.6529     | 8.5529     |  14.3 |  2.19
Output  | 5.5511e-05 | 6.0448e-05 | 0.00027279 |   0.0 |  0.00
Modify  | 1.0267     | 1.8603     | 2.6058     |  41.3 |  0.53
Other   |            | 0.7036     |            |       |  0.20

Nlocal:        341.538 ave         368 max         327 min
Histogram: 7 7 4 18 4 5 2 3 1 1
Nghost:        5477.67 ave        5605 max        5367 min
Histogram: 5 5 6 7 7 5 4 7 3 3
Neighs:       104840.0 ave      113819 max       97936 min
Histogram: 4 3 7 11 7 8 6 2 2 2

Total # of neighbors = 5451687
Ave neighs/atom = 306.96436
Ave special neighs/atom = 0.0000000
Neighbor list builds = 1206
Dangerous builds = 0
11760 atoms in group oxygen
PPPM initialization ...
  using 12-bit tables for long-range coulomb (../kspace.cpp:328)
  G vector (1/distance) = 0.29840522
  grid = 40 240 40
  stencil order = 5
  estimated absolute RMS force accuracy = 0.00015898267
  estimated relative force accuracy = 1.1040735e-05
  using single precision MKL FFT
  3d grid and FFT values/proc = 18225 7600
Neighbor list info ...
  update every 1 steps, delay 0 steps, check yes
  max neighbors/atom: 2000, page size: 100000
  master list distance cutoff = 13
  ghost atom cutoff = 13
  binsize = 6.5, bins = 5 53 5
  3 neighbor lists, perpetual/occasional/extra = 3 0 0
  (1) pair coul/long, perpetual
      attributes: half, newton on
      pair build: half/bin/newton
      stencil: half/bin/3d/newton
      bin: standard
  (2) pair eam/alloy, perpetual, skip from (1)
      attributes: half, newton on
      pair build: skip
      stencil: none
      bin: none
  (3) pair table, perpetual, skip from (1)
      attributes: half, newton on
      pair build: skip
      stencil: none
      bin: none
Setting up Verlet run ...
  Unit style    : metal
  Current step  : 0
  Time step     : 0.001
Per MPI rank memory allocation (min/avg/max) = 9.461 | 10.21 | 10.28 Mbytes
Step f_2 Temp v_Tdiff v_deltaT 
       0            0    1194.2232            0            0 
  100000    1314.6783    1196.1892  0.050259281    583.50558 
  200000    2541.1518    1194.9053  0.058700177     681.5036 
  300000     3763.851    1201.5566  0.059362849    689.19716 
  400000    4987.8882    1188.6687  0.060567958    703.18836 
  500000    6203.5572    1193.9424  0.060453296    701.85715 
  600000    7424.0037    1202.4292   0.06127794    711.43119 
  700000     8648.092    1200.3486  0.059328783    688.80165 
  800000    9869.7616     1198.042  0.059722926    693.37763 
  900000    11087.499    1210.5256  0.059695773    693.06238 
 1000000    12318.409    1198.7855  0.060185702    698.75041 
Loop time of 7005.29 on 52 procs for 1000000 steps with 17760 atoms

Performance: 12.334 ns/day, 1.946 hours/ns, 142.749 timesteps/s
99.8% CPU use with 52 MPI tasks x 1 OpenMP threads

MPI task timing breakdown:
Section |  min time  |  avg time  |  max time  |%varavg| %total
---------------------------------------------------------------
Pair    | 5127.1     | 5225.9     | 5406.4     |  79.3 | 74.60
Bond    | 0.089519   | 0.13503    | 0.19362    |   6.5 |  0.00
Kspace  | 1332.7     | 1501       | 1587.5     | 138.1 | 21.43
Neigh   | 79.026     | 83.078     | 88.125     |  26.6 |  1.19
Comm    | 138.61     | 154.09     | 178.01     |  77.3 |  2.20
Output  | 0.0010522  | 0.0011087  | 0.0023913  |   0.5 |  0.00
Modify  | 5.8636     | 6.2366     | 6.914      |  11.4 |  0.09
Other   |            | 34.78      |            |       |  0.50

Nlocal:        341.538 ave         364 max         327 min
Histogram: 9 6 6 4 7 10 5 1 3 1
Nghost:        5489.12 ave        5612 max        5376 min
Histogram: 5 5 5 10 5 6 4 1 4 7
Neighs:       104843.0 ave      112292 max       96619 min
Histogram: 5 3 5 1 8 4 14 6 3 3

Total # of neighbors = 5451857
Ave neighs/atom = 306.97393
Ave special neighs/atom = 0.0000000
Neighbor list builds = 27682
Dangerous builds = 0
Total wall time: 2:02:35
