LAMMPS (29 Oct 2020)
OMP_NUM_THREADS environment is not set. Defaulting to 1 thread. (../comm.cpp:94)
  using 1 OpenMP thread(s) per MPI task
OMP_NUM_THREADS environment is not set. Defaulting to 1 thread. (../comm.cpp:94)
  using 1 OpenMP thread(s) per MPI task
Reading data file ...
  orthogonal box = (-0.27717828 -3.4472206 -0.27717828) to (27.617178 331.52722 27.617178)
  2 by 13 by 2 MPI processor grid
  reading atoms ...
  18000 atoms
  reading velocities ...
  18000 velocities
Finding 1-2 1-3 1-4 neighbors ...
  special bond factors lj:    0.0      0.0      0.0     
  special bond factors coul:  0.0      0.0      0.0     
     0 = max # of 1-2 neighbors
     0 = max # of 1-3 neighbors
     0 = max # of 1-4 neighbors
     1 = max # of special neighbors
  special bonds CPU = 0.004 seconds
  read_data CPU = 0.077 seconds
45 atoms in group sphere
8 atoms in group oxygen
1 atoms in group thorium
9 atoms in group 1
36 atoms in group cluster
6000 atoms in group Th
12000 atoms in group O
12 atoms in group Th_group
24 atoms in group O_group
WARNING: Ignoring 'compress yes' for molecular system (../delete_atoms.cpp:125)
Deleted 36 atoms, new total = 17964
45 atoms in group sphere
8 atoms in group oxygen
1 atoms in group thorium
9 atoms in group 1
36 atoms in group cluster
5988 atoms in group Th
11976 atoms in group O
12 atoms in group Th_group
24 atoms in group O_group
WARNING: Ignoring 'compress yes' for molecular system (../delete_atoms.cpp:125)
Deleted 36 atoms, new total = 17928
45 atoms in group sphere
8 atoms in group oxygen
1 atoms in group thorium
9 atoms in group 1
36 atoms in group cluster
5976 atoms in group Th
11952 atoms in group O
12 atoms in group Th_group
24 atoms in group O_group
WARNING: Ignoring 'compress yes' for molecular system (../delete_atoms.cpp:125)
Deleted 36 atoms, new total = 17892
45 atoms in group sphere
8 atoms in group oxygen
1 atoms in group thorium
9 atoms in group 1
36 atoms in group cluster
5964 atoms in group Th
11928 atoms in group O
12 atoms in group Th_group
24 atoms in group O_group
WARNING: Ignoring 'compress yes' for molecular system (../delete_atoms.cpp:125)
Deleted 36 atoms, new total = 17856
45 atoms in group sphere
8 atoms in group oxygen
1 atoms in group thorium
9 atoms in group 1
36 atoms in group cluster
5952 atoms in group Th
11904 atoms in group O
12 atoms in group Th_group
24 atoms in group O_group
WARNING: Ignoring 'compress yes' for molecular system (../delete_atoms.cpp:125)
Deleted 36 atoms, new total = 17820
45 atoms in group sphere
8 atoms in group oxygen
1 atoms in group thorium
9 atoms in group 1
36 atoms in group cluster
5940 atoms in group Th
11880 atoms in group O
12 atoms in group Th_group
24 atoms in group O_group
WARNING: Ignoring 'compress yes' for molecular system (../delete_atoms.cpp:125)
Deleted 36 atoms, new total = 17784
45 atoms in group sphere
8 atoms in group oxygen
1 atoms in group thorium
9 atoms in group 1
36 atoms in group cluster
5928 atoms in group Th
11856 atoms in group O
12 atoms in group Th_group
24 atoms in group O_group
WARNING: Ignoring 'compress yes' for molecular system (../delete_atoms.cpp:125)
Deleted 36 atoms, new total = 17748
45 atoms in group sphere
8 atoms in group oxygen
1 atoms in group thorium
9 atoms in group 1
36 atoms in group cluster
5916 atoms in group Th
11832 atoms in group O
12 atoms in group Th_group
24 atoms in group O_group
WARNING: Ignoring 'compress yes' for molecular system (../delete_atoms.cpp:125)
Deleted 36 atoms, new total = 17712
45 atoms in group sphere
8 atoms in group oxygen
1 atoms in group thorium
9 atoms in group 1
36 atoms in group cluster
5904 atoms in group Th
11808 atoms in group O
12 atoms in group Th_group
24 atoms in group O_group
WARNING: Ignoring 'compress yes' for molecular system (../delete_atoms.cpp:125)
Deleted 36 atoms, new total = 17676
45 atoms in group sphere
8 atoms in group oxygen
1 atoms in group thorium
9 atoms in group 1
36 atoms in group cluster
5892 atoms in group Th
11784 atoms in group O
12 atoms in group Th_group
24 atoms in group O_group
WARNING: Ignoring 'compress yes' for molecular system (../delete_atoms.cpp:125)
Deleted 36 atoms, new total = 17640
Setting atom values ...
  11760 settings made for charge
Setting atom values ...
  5880 settings made for charge
PPPM initialization ...
  using 12-bit tables for long-range coulomb (../kspace.cpp:328)
  G vector (1/distance) = 0.29912164
  grid = 40 240 40
  stencil order = 5
  estimated absolute RMS force accuracy = 0.00015376724
  estimated relative force accuracy = 1.0678544e-05
  using single precision MKL FFT
  3d grid and FFT values/proc = 18225 7600
Neighbor list info ...
  update every 1 steps, delay 0 steps, check yes
  max neighbors/atom: 2000, page size: 100000
  master list distance cutoff = 13
  ghost atom cutoff = 13
  binsize = 6.5, bins = 5 52 5
  2 neighbor lists, perpetual/occasional/extra = 2 0 0
  (1) pair coul/long, perpetual
      attributes: half, newton on
      pair build: half/bin/newton
      stencil: half/bin/3d/newton
      bin: standard
  (2) pair eam/alloy, perpetual, copy from (1)
      attributes: half, newton on
      pair build: copy
      stencil: none
      bin: none
Setting up cg style minimization ...
  Unit style    : metal
  Current step  : 0
WARNING: Energy due to 3 extra global DOFs will be included in minimizer energies
Per MPI rank memory allocation (min/avg/max) = 9.470 | 10.04 | 10.28 Mbytes
Step Temp E_pair E_mol TotEng Press Volume 
       0            0    -231413.6            0    -231413.6   -2358.4195    260641.98 
     130            0   -231675.54            0   -231675.54    20.121523    260912.85 
Loop time of 2.81586 on 52 procs for 130 steps with 17640 atoms

99.4% CPU use with 52 MPI tasks x 1 OpenMP threads

Minimization stats:
  Stopping criterion = linesearch alpha is zero
  Energy initial, next-to-last, final = 
      -231413.59692304  -231675.541986943  -231675.541986943
  Force two-norm initial, final = 739.12684 8.7078669
  Force max component initial, final = 618.31670 6.3890492
  Final line search alpha, max atom move = 1.4483508e-10 9.2535842e-10
  Iterations, force evaluations = 130 257

MPI task timing breakdown:
Section |  min time  |  avg time  |  max time  |%varavg| %total
---------------------------------------------------------------
Pair    | 1.5936     | 1.7087     | 1.84       |   4.3 | 60.68
Bond    | 1.9641e-05 | 3.4016e-05 | 9.7781e-05 |   0.0 |  0.00
Kspace  | 0.40226    | 0.53336    | 0.64864    |   7.7 | 18.94
Neigh   | 0          | 0          | 0          |   0.0 |  0.00
Comm    | 0.040618   | 0.042659   | 0.044535   |   0.5 |  1.51
Output  | 0          | 0          | 0          |   0.0 |  0.00
Modify  | 0          | 0          | 0          |   0.0 |  0.00
Other   |            | 0.5312     |            |       | 18.86

Nlocal:        339.231 ave         404 max         289 min
Histogram: 5 6 7 7 4 9 3 8 1 2
Nghost:        5549.65 ave        5770 max        5361 min
Histogram: 2 8 8 4 5 8 8 4 3 2
Neighs:       107346.0 ave      130396 max       89305 min
Histogram: 7 5 6 4 7 9 4 6 3 1

Total # of neighbors = 5581980
Ave neighs/atom = 316.43878
Ave special neighs/atom = 0.0000000
Neighbor list builds = 0
Dangerous builds = 0
Resetting atom IDs ...
PPPM initialization ...
  using 12-bit tables for long-range coulomb (../kspace.cpp:328)
  G vector (1/distance) = 0.29911001
  grid = 40 240 40
  stencil order = 5
  estimated absolute RMS force accuracy = 0.00015382421
  estimated relative force accuracy = 1.06825e-05
  using single precision MKL FFT
  3d grid and FFT values/proc = 18225 7600
Finding 1-2 1-3 1-4 neighbors ...
  special bond factors lj:    0.0      0.0      0.0     
  special bond factors coul:  0.0      0.0      0.0     
     0 = max # of 1-2 neighbors
     0 = max # of 1-3 neighbors
     0 = max # of 1-4 neighbors
     1 = max # of special neighbors
  special bonds CPU = 0.001 seconds
PPPM initialization ...
  using 12-bit tables for long-range coulomb (../kspace.cpp:328)
  G vector (1/distance) = 0.29911001
  grid = 40 240 40
  stencil order = 5
  estimated absolute RMS force accuracy = 0.00015382421
  estimated relative force accuracy = 1.06825e-05
  using single precision MKL FFT
  3d grid and FFT values/proc = 18225 7600
Setting up Verlet run ...
  Unit style    : metal
  Current step  : 130
  Time step     : 0.001
Per MPI rank memory allocation (min/avg/max) = 8.345 | 8.988 | 9.151 Mbytes
Step Dt Time Atoms Temp PotEng KinEng Press Volume 
     130        0.001            0    17640         1200   -231675.54    2736.0236    11220.751    260912.85 
   10000        0.001         9.87    17640    1207.6212   -228831.83    2753.4001    -636.7713    269967.84 
   20000        0.001        19.87    17640    1211.4413   -228847.32    2762.1099   -433.19903    269916.73 
   30000        0.001        29.87    17640    1213.1674   -228858.89    2766.0456    541.47716    269815.97 
   40000        0.001        39.87    17640    1205.2196   -228868.16    2747.9243    445.11175     269659.6 
   50000        0.001        49.87    17640    1187.5136   -228873.16    2707.5545    3.9609926    269770.16 
   60000        0.001        59.87    17640    1202.2001   -228869.24    2741.0398    272.38005    269687.13 
   70000        0.001        69.87    17640    1183.1284   -228869.65    2697.5561   -1532.2552    269935.65 
   80000        0.001        79.87    17640    1191.5433   -228865.81    2716.7422   -1415.0737    270010.01 
   90000        0.001        89.87    17640    1212.0455    -228869.7    2763.4875    412.81001    269737.82 
  100000        0.001        99.87    17640    1192.0554   -228859.29    2717.9098   -1092.1984    269902.64 
  100130        0.001          100    17640    1201.6019   -228899.66     2739.676    1335.9567    269466.69 
Loop time of 816.432 on 52 procs for 100000 steps with 17640 atoms

Performance: 10.583 ns/day, 2.268 hours/ns, 122.484 timesteps/s
99.8% CPU use with 52 MPI tasks x 1 OpenMP threads

MPI task timing breakdown:
Section |  min time  |  avg time  |  max time  |%varavg| %total
---------------------------------------------------------------
Pair    | 506.54     | 522.08     | 542.93     |  36.6 | 63.95
Bond    | 0.0092202  | 0.013888   | 0.021626   |   2.3 |  0.00
Kspace  | 144.92     | 166.56     | 182.6      |  66.9 | 20.40
Neigh   | 7.1672     | 7.6499     | 8.222      |   9.5 |  0.94
Comm    | 16.161     | 16.645     | 17.366     |   7.8 |  2.04
Output  | 0.052401   | 0.052444   | 0.054275   |   0.1 |  0.01
Modify  | 90.931     | 95.715     | 100.24     |  23.2 | 11.72
Other   |            | 7.712      |            |       |  0.94

Nlocal:        339.231 ave         363 max         318 min
Histogram: 2 3 7 8 9 9 6 3 2 3
Nghost:        5468.25 ave        5582 max        5378 min
Histogram: 11 6 8 3 0 3 6 2 7 6
Neighs:       104141.0 ave      113588 max       94413 min
Histogram: 2 1 7 11 6 7 9 2 2 5

Total # of neighbors = 5415314
Ave neighs/atom = 306.99059
Ave special neighs/atom = 0.0000000
Neighbor list builds = 2724
Dangerous builds = 0
System init for write_data ...
PPPM initialization ...
  using 12-bit tables for long-range coulomb (../kspace.cpp:328)
  G vector (1/distance) = 0.29852192
  grid = 40 240 40
  stencil order = 5
  estimated absolute RMS force accuracy = 0.00015853138
  estimated relative force accuracy = 1.1009395e-05
  using single precision MKL FFT
  3d grid and FFT values/proc = 18225 7600
Total wall time: 0:13:39
