LAMMPS (29 Oct 2020)
OMP_NUM_THREADS environment is not set. Defaulting to 1 thread. (../comm.cpp:94)
  using 1 OpenMP thread(s) per MPI task
OMP_NUM_THREADS environment is not set. Defaulting to 1 thread. (../comm.cpp:94)
  using 1 OpenMP thread(s) per MPI task
Reading data file ...
  orthogonal box = (-0.35342047 -4.2231946 -0.35541377) to (27.693420 332.30319 27.695414)
  2 by 13 by 2 MPI processor grid
  reading atoms ...
  17700 atoms
  reading velocities ...
  17700 velocities
Finding 1-2 1-3 1-4 neighbors ...
  special bond factors lj:    0.0      0.0      0.0     
  special bond factors coul:  0.0      0.0      0.0     
     0 = max # of 1-2 neighbors
     0 = max # of 1-3 neighbors
     0 = max # of 1-4 neighbors
     1 = max # of special neighbors
  special bonds CPU = 0.004 seconds
  read_data CPU = 0.074 seconds
WARNING: 13 of 1000 force values in table Xe-Xe are inconsistent with -dE/dr.
  Should only be flagged at inflection points (../pair_table.cpp:461)
WARNING: 2 of 1000 force values in table Xe-O are inconsistent with -dE/dr.
  Should only be flagged at inflection points (../pair_table.cpp:461)
WARNING: 2 of 1000 force values in table Xe-Th are inconsistent with -dE/dr.
  Should only be flagged at inflection points (../pair_table.cpp:461)
Setting atom values ...
  11760 settings made for charge
Setting atom values ...
  5880 settings made for charge
Setting atom values ...
  60 settings made for charge
PPPM initialization ...
  using 12-bit tables for long-range coulomb (../kspace.cpp:328)
  G vector (1/distance) = 0.29883713
  grid = 40 240 40
  stencil order = 5
  estimated absolute RMS force accuracy = 0.0001557301
  estimated relative force accuracy = 1.0814857e-05
  using single precision MKL FFT
  3d grid and FFT values/proc = 18225 7600
Neighbor list info ...
  update every 1 steps, delay 0 steps, check yes
  max neighbors/atom: 2000, page size: 100000
  master list distance cutoff = 13
  ghost atom cutoff = 13
  binsize = 6.5, bins = 5 52 5
  3 neighbor lists, perpetual/occasional/extra = 3 0 0
  (1) pair coul/long, perpetual
      attributes: half, newton on
      pair build: half/bin/newton
      stencil: half/bin/3d/newton
      bin: standard
  (2) pair eam/alloy, perpetual, skip from (1)
      attributes: half, newton on
      pair build: skip
      stencil: none
      bin: none
  (3) pair table, perpetual, skip from (1)
      attributes: half, newton on
      pair build: skip
      stencil: none
      bin: none
Setting up Verlet run ...
  Unit style    : metal
  Current step  : 0
  Time step     : 0.001
Per MPI rank memory allocation (min/avg/max) = 9.249 | 9.913 | 10.04 Mbytes
Step Temp E_pair E_mol TotEng Press 
       0          600   -230577.93            0   -229205.26    505.83511 
  100000    597.76916   -230584.57            0   -229217.01     607.5974 
Loop time of 746.197 on 52 procs for 100000 steps with 17700 atoms

Performance: 11.579 ns/day, 2.073 hours/ns, 134.013 timesteps/s
99.8% CPU use with 52 MPI tasks x 1 OpenMP threads

MPI task timing breakdown:
Section |  min time  |  avg time  |  max time  |%varavg| %total
---------------------------------------------------------------
Pair    | 516.24     | 546.23     | 562.61     |  43.1 | 73.20
Bond    | 0.0087238  | 0.013077   | 0.018604   |   1.6 |  0.00
Kspace  | 155.3      | 170.36     | 202.15     |  76.8 | 22.83
Neigh   | 1.9015     | 2.3248     | 2.5097     |   9.9 |  0.31
Comm    | 20.098     | 22.201     | 25.666     |  24.7 |  2.98
Output  | 5.8022e-05 | 6.3699e-05 | 0.00030129 |   0.0 |  0.00
Modify  | 2.1773     | 3.2526     | 5.4965     |  66.0 |  0.44
Other   |            | 1.811      |            |       |  0.24

Nlocal:        340.385 ave         368 max         304 min
Histogram: 3 2 3 4 5 15 5 3 5 7
Nghost:        5534.62 ave        5710 max        5301 min
Histogram: 4 1 7 2 2 6 18 0 3 9
Neighs:       107765.0 ave      118774 max       83241 min
Histogram: 2 2 1 0 3 2 10 16 8 8

Total # of neighbors = 5603757
Ave neighs/atom = 316.59644
Ave special neighs/atom = 0.0000000
Neighbor list builds = 740
Dangerous builds = 0
11760 atoms in group oxygen
PPPM initialization ...
  using 12-bit tables for long-range coulomb (../kspace.cpp:328)
  G vector (1/distance) = 0.29883713
  grid = 40 240 40
  stencil order = 5
  estimated absolute RMS force accuracy = 0.0001557301
  estimated relative force accuracy = 1.0814857e-05
  using single precision MKL FFT
  3d grid and FFT values/proc = 18225 7600
Neighbor list info ...
  update every 1 steps, delay 0 steps, check yes
  max neighbors/atom: 2000, page size: 100000
  master list distance cutoff = 13
  ghost atom cutoff = 13
  binsize = 6.5, bins = 5 52 5
  3 neighbor lists, perpetual/occasional/extra = 3 0 0
  (1) pair coul/long, perpetual
      attributes: half, newton on
      pair build: half/bin/newton
      stencil: half/bin/3d/newton
      bin: standard
  (2) pair eam/alloy, perpetual, skip from (1)
      attributes: half, newton on
      pair build: skip
      stencil: none
      bin: none
  (3) pair table, perpetual, skip from (1)
      attributes: half, newton on
      pair build: skip
      stencil: none
      bin: none
Setting up Verlet run ...
  Unit style    : metal
  Current step  : 0
  Time step     : 0.001
Per MPI rank memory allocation (min/avg/max) = 9.499 | 10.17 | 10.29 Mbytes
Step f_2 Temp v_Tdiff v_deltaT 
       0            0    597.76916            0            0 
  100000     700.3867     598.1952  0.018298711    212.44634 
  200000    1388.7913    595.66115  0.020266161    235.28825 
  300000     2075.551    596.00136  0.019458215    225.90807 
  400000    2757.7627    598.91798  0.020435581     237.2552 
  500000    3445.6109     597.7904  0.020171912    234.19402 
  600000    4132.9683    595.71872  0.020169823    234.16978 
  700000    4819.1271     597.2319  0.019873919    230.73435 
  800000    5505.9044    603.65258  0.019532958    226.77583 
  900000    6192.7208     594.5638  0.019746168    229.25118 
 1000000    6883.3091    604.35802  0.020295412    235.62785 
Loop time of 7410.33 on 52 procs for 1000000 steps with 17700 atoms

Performance: 11.659 ns/day, 2.058 hours/ns, 134.947 timesteps/s
99.9% CPU use with 52 MPI tasks x 1 OpenMP threads

MPI task timing breakdown:
Section |  min time  |  avg time  |  max time  |%varavg| %total
---------------------------------------------------------------
Pair    | 5086       | 5417.8     | 5620.8     | 138.8 | 73.11
Bond    | 0.084547   | 0.13446    | 0.20226    |   5.9 |  0.00
Kspace  | 1527.8     | 1710.1     | 2044.2     | 239.4 | 23.08
Neigh   | 20.255     | 24.969     | 26.784     |  31.9 |  0.34
Comm    | 198.32     | 218.91     | 258.03     |  88.0 |  2.95
Output  | 0.0010671  | 0.0011278  | 0.0022557  |   0.5 |  0.00
Modify  | 6.8808     | 7.51       | 8.6959     |  15.2 |  0.10
Other   |            | 30.9       |            |       |  0.42

Nlocal:        340.385 ave         371 max         307 min
Histogram: 5 1 2 1 14 13 2 6 6 2
Nghost:        5528.77 ave        5703 max        5271 min
Histogram: 4 0 5 7 0 1 19 4 0 12
Neighs:       107745.0 ave      119384 max       83439 min
Histogram: 2 2 0 2 2 1 14 15 8 6

Total # of neighbors = 5602733
Ave neighs/atom = 316.53859
Ave special neighs/atom = 0.0000000
Neighbor list builds = 8039
Dangerous builds = 0
Total wall time: 2:15:57
