ITEM: TIMESTEP
20000
ITEM: NUMBER OF ATOMS
17732
ITEM: BOX BOUNDS pp pp pp
-3.7060846042966705e-01 2.7710608460430031e+01
-4.3975558741277014e+00 3.3247755587412570e+02
-3.6937341328089590e-01 2.7709373413280897e+01
ITEM: ATOMS id type q x y z
1 2 2.2208 5.29074 1.17569 5.21869
2 1 -1.1104 1.21053 -3.16985 0.816156
3 1 -1.1104 1.07157 2.55939 1.0545
6 1 -1.1104 1.08492 -3.03193 3.73878
7 1 -1.1104 1.17193 2.5417 3.90797
10 1 -1.1104 1.0771 -0.391945 1.02331
12 2 2.2208 5.39742 -1.55544 2.3973
13 2 2.2208 5.27229 4.0521 2.45995
14 1 -1.1104 1.25885 -0.117995 3.84476
16 1 -1.1104 3.98251 -3.0912 1.1994
17 1 -1.1104 3.85531 2.57313 1.02179
18 2 2.2208 2.53356 1.22164 2.4967
19 1 -1.1104 3.92624 -3.1026 4.01921
20 1 -1.1104 3.90042 2.73546 3.88182
21 2 2.2208 2.55303 -1.6371 5.27191
22 2 2.2208 2.48631 4.02166 5.26069
23 1 -1.1104 3.79152 -0.175232 0.863905
24 1 -1.1104 4.00144 -0.261133 3.74522
29 2 2.2208 5.36359 -4.46326 5.29292
306 1 -1.1104 6.54828 16.5644 12.138
204 2 2.2208 -0.254662 -4.45141 10.8363
25 2 2.2208 -0.347632 -1.66687 2.43037
49 2 2.2208 13.7566 1.26208 2.3577
15 1 -1.1104 6.7093 -0.273998 3.926
172 1 -1.1104 3.86457 -3.06326 6.67752
167 1 -1.1104 0.913203 2.50168 6.67877
174 1 -1.1104 3.93226 -0.25392 6.68165
169 1 -1.1104 6.56394 2.66106 6.57463
27 2 2.2208 -0.272918 4.07102 2.32162
135 2 2.2208 -0.430764 15.1465 2.57132
28 2 2.2208 2.49815 -4.42581 2.48856
352 2 2.2208 5.24278 3.9318 13.5702
321 1 -1.1104 9.4866 19.3585 12.2125
11 1 -1.1104 6.70637 -0.15765 1.01849
8 1 -1.1104 6.77929 -2.94414 3.74729
5 1 -1.1104 6.63627 2.67905 1.06975
9 1 -1.1104 6.65823 2.39087 3.83334
4 1 -1.1104 6.69839 -2.89346 0.766403
31 2 2.2208 10.9205 1.2843 5.17519
32 1 -1.1104 12.2555 -3.00726 0.956988
33 1 -1.1104 12.2931 2.66719 1.00586
34 1 -1.1104 12.3141 -2.90966 3.84973
35 1 -1.1104 12.2286 2.59426 3.82523
36 1 -1.1104 12.2217 -0.203126 1.00838
37 2 2.2208 10.8894 -1.59466 2.55706
38 2 2.2208 10.9109 3.92142 2.39748
39 1 -1.1104 12.3228 0.0239236 3.80668
40 1 -1.1104 9.517 -2.91187 1.03609
41 1 -1.1104 9.59057 2.52544 0.871744
42 2 2.2208 8.05622 1.08595 2.31427
43 1 -1.1104 9.50614 -2.9271 3.86427
44 1 -1.1104 9.40224 2.55021 3.6649
45 2 2.2208 8.08181 -1.51128 5.30735
46 2 2.2208 8.07922 3.94936 5.20658
47 1 -1.1104 9.45976 -0.130099 0.814878
48 1 -1.1104 9.59547 -0.306588 3.86863
326 1 -1.1104 12.3247 16.7121 12.1609
317 2 2.2208 7.95613 15.1861 10.882
351 2 2.2208 -0.361115 15.1213 13.6151
26 2 2.2208 -0.295318 1.27838 5.2028
171 1 -1.1104 6.64819 -0.0251231 6.523
312 2 2.2208 -0.419146 18.0219 10.8889
81 2 2.2208 -0.342407 6.73133 5.29821
320 2 2.2208 7.94189 17.8909 7.97341
54 2 2.2208 5.20954 6.70676 5.30333
55 2 2.2208 5.1981 12.392 5.15252
56 1 -1.1104 1.043 8.2709 1.21023
58 1 -1.1104 0.916258 8.24434 3.92749
60 1 -1.1104 0.929862 5.4995 0.997558
61 1 -1.1104 1.03818 10.8202 1.06416
66 2 2.2208 5.34988 9.59827 2.43355
67 1 -1.1104 1.15711 5.38308 3.87732
68 1 -1.1104 0.930132 10.8026 3.89874
71 1 -1.1104 3.83644 8.2223 0.93905
72 2 2.2208 2.40453 6.95279 2.46016
73 2 2.2208 2.35563 12.3001 2.42599
74 1 -1.1104 3.78093 8.32335 3.80141
75 2 2.2208 2.44149 9.61637 5.10928
76 1 -1.1104 3.87426 5.33781 0.967388
77 1 -1.1104 3.87001 11.0753 1.08722
79 1 -1.1104 3.95507 5.4651 3.73605
80 1 -1.1104 3.81828 11.0738 3.75569
376 2 2.2208 8.0543 18.0852 13.6741
364 2 2.2208 10.7084 9.59782 13.6769
238 1 -1.1104 3.86335 8.0969 6.7332
290 1 -1.1104 6.54152 13.8378 9.46059
59 1 -1.1104 6.56601 8.10971 3.77878
63 1 -1.1104 6.79714 5.42234 0.992105
70 1 -1.1104 6.62734 10.9004 3.80214
57 1 -1.1104 6.63257 8.17519 0.960294
64 1 -1.1104 6.75639 10.8397 1.09219
69 1 -1.1104 6.85354 5.30733 3.80395
84 2 2.2208 10.8357 6.76194 5.16668
85 2 2.2208 10.8602 12.3417 5.20011
86 1 -1.1104 12.4836 8.06706 0.887338
87 1 -1.1104 12.2071 8.11697 3.84952
88 1 -1.1104 12.277 5.46513 0.994808
89 1 -1.1104 12.2896 11.0524 0.965793
91 2 2.2208 10.8986 9.56656 2.3753
92 1 -1.1104 12.3446 5.38313 3.77655
93 1 -1.1104 12.3854 10.8858 3.74787
94 1 -1.1104 9.55722 8.17483 1.03654
95 2 2.2208 8.02225 6.79737 2.51526
96 2 2.2208 8.05454 12.408 2.53725
97 1 -1.1104 9.43764 8.13718 3.82818
98 2 2.2208 8.01529 9.58971 5.23671
99 1 -1.1104 9.52742 5.3362 0.946405
100 1 -1.1104 9.57675 10.9924 1.01137
102 1 -1.1104 9.56523 5.35458 3.68418
103 1 -1.1104 9.46984 10.9879 3.69468
101 1 -1.1104 9.58236 10.8541 6.57453
355 2 2.2208 8.16353 1.22194 13.7074
339 2 2.2208 13.6148 6.73497 7.96062
165 2 2.2208 13.7075 17.9856 2.41864
315 1 -1.1104 9.47595 16.5752 12.2573
365 2 2.2208 7.99026 12.438 13.6754
106 2 2.2208 5.16013 17.9397 5.18453
107 1 -1.1104 0.851969 13.6485 1.10507
109 1 -1.1104 0.994269 19.2756 1.00067
113 1 -1.1104 1.08077 13.7301 3.80736
114 1 -1.1104 0.873722 19.3453 3.78367
116 1 -1.1104 0.911003 16.398 1.08228
119 2 2.2208 5.18494 15.1643 2.20516
120 2 2.2208 5.2471 20.5776 2.35787
121 1 -1.1104 0.955922 16.6871 3.70591
123 1 -1.1104 3.74167 13.8628 0.856629
125 1 -1.1104 3.85286 19.3308 1.03998
127 2 2.2208 2.34452 17.9876 2.44102
128 1 -1.1104 3.74405 13.8596 3.62989
129 1 -1.1104 3.73047 19.3463 3.76088
130 2 2.2208 2.39948 15.1548 5.20218
131 2 2.2208 2.29886 20.7586 5.18263
132 1 -1.1104 3.676 16.6822 1.11431
134 1 -1.1104 3.63258 16.5973 3.84695
341 2 2.2208 13.6877 9.65837 10.8874
342 2 2.2208 -0.402584 12.3948 10.9196
302 1 -1.1104 1.05133 19.3412 6.64797
117 1 -1.1104 1.00432 16.4291 6.6007
345 2 2.2208 13.677 20.7363 10.8458
327 1 -1.1104 12.1008 19.314 9.42671
232 2 2.2208 11.0202 -4.25553 10.7511
143 1 -1.1104 12.303 13.662 6.55033
145 1 -1.1104 12.2585 19.3569 6.69399
52 2 2.2208 10.8334 -4.38808 5.29704
122 1 -1.1104 6.68679 16.5867 3.70287
110 1 -1.1104 6.67856 13.6839 0.920604
138 1 -1.1104 6.6102 19.1867 1.03615
139 1 -1.1104 6.5853 19.2141 3.98664
140 1 -1.1104 6.66457 16.4542 1.00624
115 1 -1.1104 6.6341 13.7568 3.69681
141 2 2.2208 10.8032 17.9236 5.23699
142 1 -1.1104 12.3638 13.7077 1.18605
144 1 -1.1104 12.3102 19.3207 0.824852
146 1 -1.1104 12.2152 13.7108 3.93158
147 1 -1.1104 12.1018 19.4033 3.73717
148 1 -1.1104 12.4055 16.573 1.04029
150 2 2.2208 10.8301 15.0634 2.52982
151 2 2.2208 10.7626 20.7933 2.44693
152 1 -1.1104 12.2529 16.753 3.78277
153 1 -1.1104 9.38642 13.8165 1.14457
155 1 -1.1104 9.44346 19.4688 0.981308
157 2 2.2208 8.06933 17.8671 2.32134
158 1 -1.1104 9.38834 13.6385 4.01589
159 1 -1.1104 9.35041 19.1325 3.92716
160 2 2.2208 8.07736 15.1908 5.2827
161 2 2.2208 7.93254 20.7704 5.32936
162 1 -1.1104 9.53072 16.4922 0.994617
164 1 -1.1104 9.47932 16.2884 3.79037
323 1 -1.1104 12.1949 16.5813 9.48181
112 1 -1.1104 6.56609 19.2437 6.54663
166 1 -1.1104 1.11064 -2.97152 6.63899
170 1 -1.1104 1.05878 -0.0727279 6.65366
201 2 2.2208 -0.331105 1.09739 10.7922
233 2 2.2208 13.8616 -4.25577 7.98975
173 1 -1.1104 3.8637 2.55014 6.65378
175 2 2.2208 5.29634 1.08351 10.9253
176 1 -1.1104 1.26897 -3.1785 12.1512
177 1 -1.1104 1.07271 2.57998 12.2908
180 1 -1.1104 1.085 -3.07337 9.43233
181 1 -1.1104 1.01019 2.56012 9.42518
184 1 -1.1104 1.04398 -0.232441 12.1103
186 2 2.2208 5.32135 -1.58723 7.98507
187 2 2.2208 5.20849 3.87818 7.96212
188 1 -1.1104 1.1127 -0.19503 9.35952
190 1 -1.1104 3.88097 -2.89114 12.3167
191 1 -1.1104 3.8819 2.63036 12.1895
192 2 2.2208 2.4843 1.20225 8.01993
193 1 -1.1104 3.83359 -2.97924 9.41121
194 1 -1.1104 3.9636 2.48539 9.47681
195 2 2.2208 2.51437 -1.57477 10.6933
196 2 2.2208 2.39048 4.07957 10.8297
197 1 -1.1104 3.78481 -0.17085 12.0842
198 1 -1.1104 3.88874 -0.140144 9.3264
104 2 2.2208 13.6448 12.242 2.45288
183 1 -1.1104 6.75576 2.52505 9.40784
185 1 -1.1104 6.68509 -0.289968 12.3019
322 1 -1.1104 9.38046 13.8509 12.4327
163 1 -1.1104 9.44549 16.5497 6.70481
200 2 2.2208 -0.292661 -1.60996 7.99116
168 1 -1.1104 6.7195 -2.92614 6.72453
208 1 -1.1104 9.49732 -3.09293 6.70723
205 1 -1.1104 12.2936 -3.04196 6.58335
206 1 -1.1104 12.1079 2.6219 6.81883
207 1 -1.1104 12.3072 -0.238935 6.53842
179 1 -1.1104 6.73858 2.4187 12.2059
189 1 -1.1104 6.66416 -0.353598 9.50426
182 1 -1.1104 6.78318 -2.89185 9.3679
178 1 -1.1104 6.89989 -3.01137 12.223
210 1 -1.1104 9.51494 -0.143422 6.72116
209 1 -1.1104 9.38573 2.55762 6.53633
211 2 2.2208 10.9063 1.18213 10.8422
212 1 -1.1104 12.4592 -3.03901 12.2099
213 1 -1.1104 12.3176 2.65783 12.2624
214 1 -1.1104 12.4908 -2.83524 9.38784
215 1 -1.1104 12.1588 2.73442 9.5948
216 1 -1.1104 12.3289 -0.170539 12.3099
217 2 2.2208 10.9139 -1.51157 7.95999
218 2 2.2208 10.6367 4.12801 8.05313
219 1 -1.1104 12.1734 -0.00534766 9.43265
220 1 -1.1104 9.6877 -3.04182 12.2551
221 1 -1.1104 9.52359 2.60102 12.0272
222 2 2.2208 8.0502 1.15436 8.03776
223 1 -1.1104 9.66377 -2.85691 9.33131
224 1 -1.1104 9.42943 2.44772 9.24805
225 2 2.2208 8.06175 -1.60091 10.8496
226 2 2.2208 8.02507 3.86808 10.681
227 1 -1.1104 9.48393 -0.299515 12.3275
228 1 -1.1104 9.4263 -0.113758 9.54497
118 1 -1.1104 6.64084 16.4774 6.4878
111 1 -1.1104 6.55981 13.7261 6.59022
149 1 -1.1104 12.1181 16.4889 6.68643
236 1 -1.1104 0.969682 5.26549 6.63127
78 1 -1.1104 3.79523 10.9149 6.45119
318 1 -1.1104 9.31921 19.1952 9.43793
234 1 -1.1104 0.925656 8.21318 6.67454
239 1 -1.1104 3.72665 5.2544 6.59293
62 1 -1.1104 0.952634 11.0154 6.65806
240 2 2.2208 5.19609 6.80277 10.9001
241 2 2.2208 5.22675 12.37 10.8053
242 1 -1.1104 1.00784 8.10206 12.3286
244 1 -1.1104 1.01563 8.06384 9.4156
246 1 -1.1104 1.05706 5.40063 12.234
247 1 -1.1104 1.05556 10.9413 12.3041
250 2 2.2208 5.32569 9.59853 8.08523
251 1 -1.1104 0.911903 5.40708 9.43432
252 1 -1.1104 0.978029 11.0755 9.57569
255 1 -1.1104 3.88905 8.26695 12.2732
256 2 2.2208 2.40579 6.70235 7.99398
257 2 2.2208 2.41516 12.3942 7.92677
258 1 -1.1104 3.62673 8.20444 9.599
259 2 2.2208 2.35946 9.62888 10.9564
260 1 -1.1104 3.84037 5.44023 12.1128
261 1 -1.1104 3.83313 10.9593 12.1641
262 1 -1.1104 3.72889 5.40672 9.43515
263 1 -1.1104 3.83668 10.9504 9.33728
243 1 -1.1104 6.7482 8.21413 12.2594
254 1 -1.1104 6.63561 11.1028 9.45048
245 1 -1.1104 6.6552 8.25801 9.61857
90 1 -1.1104 12.3714 11.0568 6.61595
265 1 -1.1104 12.1425 8.04662 6.7003
269 1 -1.1104 9.37917 5.31691 6.69677
65 1 -1.1104 6.60032 10.8645 6.68505
237 1 -1.1104 6.52179 5.25739 6.52659
266 1 -1.1104 12.2229 5.322 6.50426
249 1 -1.1104 6.68298 11.0646 12.198
235 1 -1.1104 6.68141 8.11787 6.61377
267 1 -1.1104 9.24166 7.97091 6.63178
253 1 -1.1104 6.59737 5.47409 9.26847
248 1 -1.1104 6.64467 5.32019 12.1609
264 1 -1.1104 9.53691 10.9175 9.33092
268 1 -1.1104 9.32132 5.41981 9.60767
270 1 -1.1104 9.46591 11.1177 12.4228
271 1 -1.1104 9.36938 5.34762 12.342
272 2 2.2208 8.08865 9.64442 10.8958
273 1 -1.1104 9.34521 8.24198 9.39951
274 2 2.2208 8.0787 12.3538 8.08232
275 2 2.2208 7.95257 6.83813 8.05461
276 2 2.2208 10.8297 6.72587 10.8842
277 2 2.2208 10.9968 12.2828 10.8061
278 1 -1.1104 12.1454 8.19221 12.3062
279 1 -1.1104 12.4553 8.07579 9.51259
280 1 -1.1104 12.2558 5.37867 12.1167
281 1 -1.1104 12.2347 10.8684 12.2549
282 2 2.2208 10.878 9.566 8.07018
283 1 -1.1104 12.0221 5.49686 9.2187
284 1 -1.1104 12.2156 10.9267 9.46809
285 1 -1.1104 9.55839 8.24381 12.2457
154 1 -1.1104 9.33183 13.7131 6.61632
156 1 -1.1104 9.49181 19.334 6.73344
316 2 2.2208 8.03725 20.5941 10.8462
373 2 2.2208 10.7433 15.1279 13.6633
297 1 -1.1104 6.50972 13.8635 12.3801
126 1 -1.1104 3.84047 19.3345 6.57606
336 2 2.2208 13.5929 20.707 5.2611
124 1 -1.1104 3.88192 13.6725 6.52351
108 1 -1.1104 1.01376 13.6046 6.61528
133 1 -1.1104 3.73269 16.4995 6.59778
309 2 2.2208 2.46634 20.8787 10.8532
308 1 -1.1104 3.83489 16.6803 12.3006
307 1 -1.1104 1.06731 16.6442 12.3106
305 1 -1.1104 3.82493 13.7287 9.41767
304 1 -1.1104 3.84067 16.4422 9.42467
303 2 2.2208 2.30698 17.982 8.00771
301 1 -1.1104 3.68326 19.2427 9.4907
300 2 2.2208 5.13696 17.9475 10.827
299 1 -1.1104 0.9715 13.6852 12.3177
298 1 -1.1104 1.0474 19.4754 12.199
295 2 2.2208 5.08823 15.048 8.10032
294 1 -1.1104 1.04314 13.8182 9.42367
310 2 2.2208 2.43905 15.0752 10.8912
293 2 2.2208 5.1638 20.703 7.92698
292 1 -1.1104 1.14532 16.4117 9.32362
291 1 -1.1104 0.861387 19.3701 9.48075
287 1 -1.1104 3.83976 13.6326 12.3297
286 1 -1.1104 3.97519 19.2496 12.3166
331 2 2.2208 10.759 18.0136 10.7646
289 1 -1.1104 6.47451 16.6296 9.43625
314 1 -1.1104 9.30227 16.3555 9.44056
288 1 -1.1104 6.5465 19.339 9.30822
328 1 -1.1104 12.2147 13.7521 9.33389
329 1 -1.1104 12.3075 19.4424 12.0994
324 2 2.2208 10.9298 20.7936 8.01936
319 1 -1.1104 9.36148 13.6067 9.47975
325 2 2.2208 10.7207 15.0084 8.14749
330 1 -1.1104 12.078 13.7823 12.2575
296 1 -1.1104 6.66617 19.3478 12.2107
399 2 2.2208 8.07135 9.63044 -0.362253
371 2 2.2208 5.20189 15.1985 13.7161
349 2 2.2208 2.4834 1.23704 13.721
403 2 2.2208 2.17924 15.0704 -0.491452
395 2 2.2208 5.13395 12.2204 -0.5006
346 2 2.2208 -0.322714 -1.75146 13.5755
386 2 2.2208 -0.388986 1.15428 -0.266447
383 2 2.2208 2.4347 3.90607 -0.373302
369 2 2.2208 5.2854 20.7458 13.6636
380 2 2.2208 13.6617 18.0338 13.5277
389 2 2.2208 8.08716 3.95327 -0.383857
363 2 2.2208 8.1295 6.76292 13.6266
377 2 2.2208 8.07012 15.0768 -0.487121
390 2 2.2208 10.8539 -4.40895 -0.309712
406 2 2.2208 5.41605 1.11656 16.3718
407 1 -1.1104 1.15025 -3.1636 17.7582
408 1 -1.1104 1.28203 2.69888 17.9846
411 1 -1.1104 1.08451 -3.07421 14.9333
413 1 -1.1104 1.09308 2.57761 15.1797
419 1 -1.1104 1.07044 -0.195849 17.8485
421 2 2.2208 5.25759 -1.55776 19.2674
422 2 2.2208 5.32018 3.97801 19.1367
423 1 -1.1104 1.04598 -0.267788 14.9512
427 1 -1.1104 3.99 -2.93294 17.8067
428 1 -1.1104 4.00808 2.56435 17.7697
429 2 2.2208 2.52836 1.20664 19.2135
430 1 -1.1104 3.84414 -3.07819 15.1015
432 1 -1.1104 3.80365 2.52027 14.951
434 2 2.2208 2.45927 -1.56575 16.4915
435 2 2.2208 2.50872 4.01499 16.5936
436 1 -1.1104 3.83708 -0.162608 17.978
437 1 -1.1104 3.88949 -0.0734714 14.9929
431 1 -1.1104 3.82251 -3.01459 20.815
443 2 2.2208 -0.27326 -1.66388 19.1103
639 2 2.2208 5.37047 -4.43271 22.1522
475 2 2.2208 8.1086 -4.31326 19.2362
414 1 -1.1104 1.01878 2.51205 20.707
442 2 2.2208 -0.204391 1.21729 16.5194
670 1 -1.1104 6.55403 19.4612 26.2214
398 2 2.2208 10.7629 6.73404 27.7188
410 1 -1.1104 6.81306 2.77021 17.8497
409 1 -1.1104 6.75275 -2.76219 17.8878
420 1 -1.1104 6.73471 -0.0425316 17.8157
415 1 -1.1104 6.6735 -2.83034 15.1498
425 1 -1.1104 6.81731 -0.188097 15.0238
417 1 -1.1104 6.70243 2.73655 15.0249
449 2 2.2208 10.9058 1.26157 16.5496
450 1 -1.1104 12.3276 -2.90567 17.8394
451 1 -1.1104 12.26 2.721 17.8507
452 1 -1.1104 12.4287 -3.02962 15.1383
454 1 -1.1104 12.219 2.52982 15.1703
456 1 -1.1104 12.4138 -0.0695513 18.0003
457 2 2.2208 11.0797 -1.5117 19.282
458 2 2.2208 10.943 3.89484 19.3887
459 1 -1.1104 12.4047 -0.157721 15.1528
461 1 -1.1104 9.69285 -2.98285 17.8786
462 1 -1.1104 9.51559 2.34707 17.9304
463 2 2.2208 8.15843 1.13392 19.3431
464 1 -1.1104 9.57039 -3.02532 14.9731
466 1 -1.1104 9.41954 2.59699 15.0366
468 2 2.2208 8.29189 -1.5536 16.4258
469 2 2.2208 8.11024 4.0615 16.42
470 1 -1.1104 9.57454 -0.311363 17.9576
471 1 -1.1104 9.68719 -0.16266 15.1818
453 1 -1.1104 12.412 -3.01538 20.697
472 1 -1.1104 9.51384 -0.201929 20.7238
467 1 -1.1104 9.63469 2.62106 20.7278
445 2 2.2208 13.6442 9.63865 22.1183
441 2 2.2208 2.65469 -4.50302 19.2435
580 2 2.2208 13.5128 15.1648 22.2836
479 2 2.2208 13.6523 17.8283 19.3251
482 2 2.2208 5.25284 6.78267 16.4704
483 2 2.2208 5.24343 12.3851 16.4149
484 1 -1.1104 1.07516 8.22777 17.7689
486 1 -1.1104 0.953017 8.29407 15.0176
490 1 -1.1104 0.958868 5.31282 17.8786
491 1 -1.1104 1.13587 11.0206 17.8921
494 2 2.2208 5.11376 9.67107 19.3438
495 1 -1.1104 1.12835 5.37276 15.0588
497 1 -1.1104 0.916905 10.9563 15.0421
503 1 -1.1104 3.85011 8.13209 17.7844
504 2 2.2208 2.41198 6.67229 19.2195
505 2 2.2208 2.42072 12.4062 19.2855
506 1 -1.1104 3.87926 8.03957 14.8931
508 2 2.2208 2.48417 9.45754 16.3996
509 1 -1.1104 3.89411 5.37761 17.8289
510 1 -1.1104 3.82917 11.0335 17.7101
511 1 -1.1104 3.9734 5.21687 15.0624
513 1 -1.1104 3.79795 10.9079 14.9543
667 2 2.2208 7.83221 18.0011 24.8416
440 2 2.2208 5.40416 -4.26011 16.5113
499 1 -1.1104 6.78261 5.53365 14.8349
698 1 -1.1104 9.36863 19.1797 26.2733
636 1 -1.1104 12.0293 16.6458 23.5837
514 1 -1.1104 3.71239 10.9658 20.6467
498 1 -1.1104 1.0026 11.0202 20.6345
502 1 -1.1104 6.63772 10.9381 20.7763
517 2 2.2208 13.5888 12.508 19.2925
604 1 -1.1104 9.34919 16.6843 20.5586
492 1 -1.1104 6.75932 5.55213 17.6731
485 1 -1.1104 6.67511 8.23321 17.9272
501 1 -1.1104 6.53886 10.9902 15.1
493 1 -1.1104 6.5997 11.2314 17.9837
488 1 -1.1104 6.66552 8.19278 15.1885
518 2 2.2208 10.9999 6.81527 16.3607
519 2 2.2208 10.7814 12.3505 16.526
520 1 -1.1104 12.2434 8.40871 17.7508
521 1 -1.1104 12.271 8.13686 15.021
523 1 -1.1104 12.4905 5.61089 17.8175
524 1 -1.1104 12.0803 11.0888 17.8843
525 2 2.2208 10.9137 9.5485 19.1742
526 1 -1.1104 12.2951 5.41963 14.8038
528 1 -1.1104 12.0929 10.9745 15.088
530 1 -1.1104 9.5852 7.97907 17.8872
531 2 2.2208 8.06977 6.91823 19.1981
532 2 2.2208 7.93017 12.4667 19.4321
533 1 -1.1104 9.40766 8.3011 15.0936
535 2 2.2208 7.95868 9.66928 16.4333
536 1 -1.1104 9.60175 5.15518 17.8136
537 1 -1.1104 9.4167 10.9576 18.0091
538 1 -1.1104 9.65974 5.37487 15.0157
540 1 -1.1104 9.27155 11.0199 15.1135
522 1 -1.1104 12.3349 8.31072 20.6627
539 1 -1.1104 9.39738 5.53597 20.6711
534 1 -1.1104 9.56368 8.25103 20.7824
500 1 -1.1104 6.64661 5.2843 20.4706
701 1 -1.1104 9.30382 16.5252 23.5382
637 2 2.2208 -0.334379 -4.37399 22.0026
515 2 2.2208 -0.258463 9.49115 19.375
587 1 -1.1104 12.2076 19.2589 20.7117
545 2 2.2208 5.22773 17.9584 16.5064
546 1 -1.1104 1.09949 13.8091 17.8209
547 1 -1.1104 0.868421 19.3198 17.8141
550 1 -1.1104 0.971483 13.6351 15.0308
552 1 -1.1104 0.874404 19.2608 15.0139
558 1 -1.1104 1.03891 16.619 17.8482
560 2 2.2208 5.22457 15.1275 19.3479
561 2 2.2208 5.12226 20.8385 19.1505
562 1 -1.1104 1.01632 16.4673 14.9315
566 1 -1.1104 3.78661 13.8389 17.8884
567 1 -1.1104 3.6476 19.2412 17.874
568 2 2.2208 2.29659 17.8904 19.1597
569 1 -1.1104 3.78877 13.7908 15.0397
571 1 -1.1104 3.80043 19.3893 15.1114
573 2 2.2208 2.39758 15.1487 16.4463
574 2 2.2208 2.31241 20.6347 16.4135
575 1 -1.1104 3.84372 16.5195 17.9544
576 1 -1.1104 3.84436 16.6268 15.097
374 2 2.2208 13.6575 15.2417 27.5666
549 1 -1.1104 6.43692 19.4167 17.7874
577 1 -1.1104 3.67953 16.5181 20.7406
553 1 -1.1104 0.865391 19.382 20.7757
572 1 -1.1104 3.61491 19.3453 20.5595
643 2 2.2208 -0.357851 1.03398 21.9364
543 2 2.2208 13.6374 9.55372 16.4248
642 2 2.2208 -0.449448 -1.6296 24.9156
393 2 2.2208 5.22842 6.83499 27.7527
633 1 -1.1104 12.1772 19.3569 23.3574
564 1 -1.1104 6.76883 16.6294 15.1676
559 1 -1.1104 6.70494 16.6362 17.9076
556 1 -1.1104 6.59997 19.4571 15.0374
554 1 -1.1104 6.60977 13.8682 15.0917
548 1 -1.1104 6.64067 13.834 18.0086
581 2 2.2208 10.8946 17.9931 16.3667
582 1 -1.1104 12.3053 13.8518 17.7695
583 1 -1.1104 12.1214 19.4548 17.8191
584 1 -1.1104 12.0796 13.8312 15.0895
586 1 -1.1104 12.2564 19.3704 14.9548
588 1 -1.1104 12.312 16.7155 17.8054
589 2 2.2208 10.7898 15.1931 19.2279
590 2 2.2208 10.9535 20.8305 19.1985
591 1 -1.1104 12.2551 16.6469 15.0118
593 1 -1.1104 9.41176 13.677 17.8914
594 1 -1.1104 9.37946 19.3602 17.676
595 2 2.2208 8.05508 18.1377 19.298
596 1 -1.1104 9.34181 13.8332 15.2464
598 1 -1.1104 9.43809 19.4753 15.0173
600 2 2.2208 8.066 15.1584 16.6293
601 2 2.2208 8.06661 20.7791 16.4709
602 1 -1.1104 9.51473 16.5317 17.9197
603 1 -1.1104 9.45754 16.6728 15.1002
557 1 -1.1104 6.56208 19.5533 20.5523
565 1 -1.1104 6.68407 16.6956 20.6851
480 2 2.2208 13.6571 15.2489 16.4947
357 2 2.2208 10.8162 3.99127 13.515
361 2 2.2208 2.37266 12.3951 13.7116
516 2 2.2208 -0.406947 12.2848 16.509
424 1 -1.1104 1.04946 -0.248498 20.6064
412 1 -1.1104 1.18903 -2.98174 20.5576
438 1 -1.1104 3.91399 -0.11727 20.6061
433 1 -1.1104 3.8084 2.60156 20.6455
609 2 2.2208 5.30581 1.17014 21.9866
610 1 -1.1104 1.11091 -3.05021 23.4076
611 1 -1.1104 0.999081 2.52451 23.589
614 1 -1.1104 1.02918 -3.00563 26.3358
615 1 -1.1104 1.00138 2.55166 26.393
618 1 -1.1104 1.01056 -0.250299 23.4153
620 2 2.2208 5.18451 -1.59568 24.9745
621 2 2.2208 5.422 4.06649 24.974
622 1 -1.1104 1.04967 -0.238095 26.18
624 1 -1.1104 4.00849 -3.0193 23.5914
625 1 -1.1104 3.85829 2.71721 23.4375
626 2 2.2208 2.39787 1.24373 24.9861
627 1 -1.1104 3.85665 -2.89021 26.3438
628 1 -1.1104 3.89029 2.70541 26.2518
629 2 2.2208 2.38088 -1.62337 22.0352
630 2 2.2208 2.46416 3.99444 22.0291
631 1 -1.1104 3.77229 -0.248245 23.4589
632 1 -1.1104 3.93374 -0.183249 26.2179
400 2 2.2208 10.8991 12.4348 27.7149
426 1 -1.1104 6.64951 -0.155583 20.5703
416 1 -1.1104 6.67331 -3.05163 20.6093
544 2 2.2208 -0.301185 3.83491 19.242
418 1 -1.1104 6.69684 2.44887 20.6587
455 1 -1.1104 12.3885 2.60464 20.6368
460 1 -1.1104 12.3628 -0.25314 20.7531
612 1 -1.1104 6.95536 -3.13416 23.5244
465 1 -1.1104 9.45934 -2.95465 20.6805
616 1 -1.1104 6.82975 -3.02474 26.127
619 1 -1.1104 6.72658 -0.344965 23.5328
617 1 -1.1104 6.64614 2.62444 26.2409
613 1 -1.1104 6.72072 2.4897 23.4015
623 1 -1.1104 6.51866 -0.18831 26.2229
645 2 2.2208 10.9235 1.25527 22.049
646 1 -1.1104 12.4518 -3.09406 23.4876
647 1 -1.1104 12.2967 2.63952 23.5597
648 1 -1.1104 12.3682 -3.09846 26.3281
649 1 -1.1104 12.1972 2.70869 26.3053
650 1 -1.1104 12.414 -0.252047 23.6203
651 2 2.2208 10.8428 -1.61577 24.9413
652 2 2.2208 10.8801 4.04487 24.8552
653 1 -1.1104 12.0898 -0.337971 26.3162
654 1 -1.1104 9.71114 -3.01924 23.5077
655 1 -1.1104 9.58378 2.55522 23.4264
656 2 2.2208 8.10432 1.23904 24.7757
657 1 -1.1104 9.51196 -2.94821 26.2821
658 1 -1.1104 9.51804 2.60709 26.1854
659 2 2.2208 8.16896 -1.7268 22.1336
660 2 2.2208 8.118 4.03322 22.0011
661 1 -1.1104 9.52292 -0.173248 23.4834
662 1 -1.1104 9.42875 -0.11656 26.1842
404 2 2.2208 5.04968 17.9214 27.7102
388 2 2.2208 8.12741 -1.60529 27.5576
507 1 -1.1104 3.64986 8.1851 20.5845
496 1 -1.1104 1.14339 5.23719 20.6544
487 1 -1.1104 1.04405 8.10619 20.782
512 1 -1.1104 3.84958 5.43282 20.5767
394 2 2.2208 2.36486 9.59834 27.7497
674 2 2.2208 5.29849 6.82896 21.9897
675 2 2.2208 5.19844 12.2869 22.1768
676 1 -1.1104 1.07284 8.29298 23.5682
678 1 -1.1104 1.00134 8.1109 26.3185
680 1 -1.1104 1.1535 5.3325 23.5222
681 1 -1.1104 1.0027 10.9196 23.4988
684 2 2.2208 5.18593 9.51547 24.8897
685 1 -1.1104 1.03581 5.13847 26.3511
686 1 -1.1104 1.0879 10.9606 26.3849
689 1 -1.1104 3.8685 8.15904 23.4409
690 2 2.2208 2.46397 6.71622 24.8329
691 2 2.2208 2.45806 12.3073 24.8615
692 1 -1.1104 3.82851 8.13543 26.1491
693 2 2.2208 2.39462 9.50871 22.1547
694 1 -1.1104 3.94928 5.38283 23.3387
695 1 -1.1104 3.69343 10.8629 23.5219
696 1 -1.1104 3.84134 5.46179 26.1657
697 1 -1.1104 3.70995 10.7771 26.3697
405 2 2.2208 2.25873 20.674 27.6239
683 1 -1.1104 6.56029 10.9394 23.7064
677 1 -1.1104 6.60626 8.20292 23.4093
375 2 2.2208 13.6976 20.6935 27.6673
673 1 -1.1104 9.36346 13.6374 26.3831
606 2 2.2208 13.5868 20.71 22.0503
529 1 -1.1104 12.1649 11.0578 20.4988
541 1 -1.1104 9.30339 11.0917 20.7497
527 1 -1.1104 12.154 5.32985 20.7786
489 1 -1.1104 6.49069 8.20669 20.6491
687 1 -1.1104 6.77613 5.53118 26.4121
682 1 -1.1104 6.77827 5.41723 23.5562
688 1 -1.1104 6.49688 10.9941 26.3648
679 1 -1.1104 6.69473 8.35176 26.2504
705 1 -1.1104 9.51751 10.9922 26.2709
706 1 -1.1104 9.49961 5.38873 26.2366
707 1 -1.1104 9.44778 10.9446 23.5345
708 1 -1.1104 9.61063 5.44449 23.4468
709 2 2.2208 8.01063 9.56589 22.0277
710 1 -1.1104 9.47977 8.20797 26.3004
711 2 2.2208 8.02702 12.2748 25.0322
712 2 2.2208 8.00649 6.97572 25.0196
713 2 2.2208 10.9282 6.88333 22.1553
714 2 2.2208 10.792 12.3476 22.0874
715 1 -1.1104 12.2648 8.18716 23.3844
716 1 -1.1104 12.3321 8.34372 26.2219
717 1 -1.1104 12.3616 5.51308 23.5207
718 1 -1.1104 12.2656 10.937 23.4745
719 2 2.2208 10.8866 9.65317 24.8662
720 1 -1.1104 12.2644 5.529 26.2161
721 1 -1.1104 12.2887 10.9692 26.4325
722 1 -1.1104 9.38533 8.1516 23.5231
644 2 2.2208 -0.329941 3.94282 24.854
392 2 2.2208 13.5994 4.23032 27.6337
384 2 2.2208 -0.424137 -4.45508 27.7049
739 1 -1.1104 6.60385 13.6778 23.3759
563 1 -1.1104 0.993456 16.5881 20.6394
551 1 -1.1104 0.907325 13.757 20.6831
570 1 -1.1104 3.78855 13.717 20.6385
746 1 -1.1104 3.66471 13.7246 26.1885
745 1 -1.1104 3.59635 16.4668 26.3394
744 2 2.2208 2.32177 17.9332 24.9863
743 1 -1.1104 3.75529 19.2886 26.1867
750 2 2.2208 2.27579 20.8119 22.0031
749 1 -1.1104 3.75817 16.4354 23.532
748 1 -1.1104 0.883014 16.4363 23.4353
727 2 2.2208 2.35586 15.1179 21.9853
729 1 -1.1104 3.73223 19.3485 23.3768
731 1 -1.1104 3.81567 13.7222 23.382
733 1 -1.1104 0.855856 19.3841 26.2844
734 1 -1.1104 0.812367 16.6433 26.2289
735 1 -1.1104 0.975044 13.7501 26.1738
737 2 2.2208 5.08721 20.7581 24.7501
738 2 2.2208 5.17018 15.1109 24.9356
740 1 -1.1104 0.959216 19.3351 23.4948
741 1 -1.1104 1.02655 13.7836 23.4114
742 2 2.2208 5.21254 17.9168 22.0239
599 1 -1.1104 9.45577 19.55 20.6086
664 1 -1.1104 9.39272 13.7124 23.6807
607 2 2.2208 10.6663 17.9823 22.1194
704 1 -1.1104 9.26658 16.4963 26.2393
699 2 2.2208 7.97951 15.196 22.141
732 1 -1.1104 6.50405 16.4503 26.2681
555 1 -1.1104 6.58535 13.8347 20.724
736 1 -1.1104 6.52059 19.3917 23.2988
585 1 -1.1104 12.1272 13.8223 20.6762
592 1 -1.1104 12.1771 16.4946 20.6649
663 1 -1.1104 12.1222 16.5465 26.4506
641 2 2.2208 10.8561 20.6574 24.6363
700 2 2.2208 7.97515 20.8256 21.9743
730 1 -1.1104 6.56351 13.7199 26.2693
747 1 -1.1104 6.5102 16.6491 23.5471
635 1 -1.1104 12.3287 19.3205 26.2008
665 1 -1.1104 9.29707 19.3951 23.406
608 1 -1.1104 12.1787 13.6544 23.4366
638 2 2.2208 10.7084 15.1303 24.9068
634 1 -1.1104 12.1664 13.7673 26.3281
597 1 -1.1104 9.41091 13.9589 20.92
702 2 2.2208 -0.3762 9.63124 24.975
672 2 2.2208 13.6633 1.30553 25.0541
381 2 2.2208 5.2215 1.26163 27.5736
356 2 2.2208 11.0827 -1.59161 13.5912
387 2 2.2208 10.932 1.12788 27.6463
382 2 2.2208 2.51346 -1.66392 27.5893
378 2 2.2208 10.8151 17.9259 27.7518
359 2 2.2208 2.44302 6.72996 13.5935
348 2 2.2208 5.39395 -1.49591 13.6711
360 2 2.2208 5.20991 9.46596 13.6432
379 2 2.2208 7.98466 20.713 27.6225
372 2 2.2208 10.8853 20.8563 13.6183
362 2 2.2208 13.4865 12.4239 13.719
368 2 2.2208 2.49598 17.9477 13.6622
397 2 2.2208 -0.409311 6.68894 27.649
751 2 2.2208 5.22587 23.4517 5.28469
752 2 2.2208 5.28585 29.1267 5.16727
753 1 -1.1104 0.89277 24.9595 1.06948
754 1 -1.1104 1.02623 24.8251 3.70581
755 1 -1.1104 1.02088 21.9683 1.06909
756 1 -1.1104 1.036 27.741 0.98518
757 2 2.2208 5.23199 26.312 2.43899
758 1 -1.1104 0.937224 22.0143 3.98071
759 1 -1.1104 0.983522 27.7378 3.80998
760 1 -1.1104 3.68722 24.8069 1.04737
761 2 2.2208 2.37488 23.4471 2.44217
762 2 2.2208 2.36161 29.0551 2.43287
763 1 -1.1104 3.91177 24.7338 3.9158
764 2 2.2208 2.53973 26.2804 5.25902
765 1 -1.1104 3.75357 21.9953 0.985232
766 1 -1.1104 3.80961 27.574 1.04239
767 1 -1.1104 3.81286 22.0649 3.73608
768 1 -1.1104 3.98866 27.625 3.81252
1042 2 2.2208 -0.209525 40.3938 10.8078
900 1 -1.1104 3.80825 27.8141 6.61263
898 1 -1.1104 3.95846 25.0826 6.63592
890 2 2.2208 13.7697 45.9812 2.42967
772 1 -1.1104 6.47098 24.8983 0.794678
1079 2 2.2208 -0.293274 31.9303 7.98687
774 1 -1.1104 6.60419 22.1761 0.872594
775 1 -1.1104 6.76631 27.556 1.0659
776 1 -1.1104 6.61707 21.9599 3.72635
773 1 -1.1104 6.64163 24.9934 3.74293
777 1 -1.1104 6.81792 27.7054 3.95481
778 2 2.2208 10.8557 23.4226 5.15675
779 2 2.2208 10.9614 29.1308 5.22724
780 1 -1.1104 12.3717 24.9563 0.958298
781 1 -1.1104 12.3091 24.8866 3.69824
782 1 -1.1104 12.1272 22.1634 0.928848
783 1 -1.1104 12.2699 27.8201 1.07517
784 2 2.2208 10.9697 26.2036 2.40506
785 1 -1.1104 12.2807 22.1046 3.69631
786 1 -1.1104 12.2212 27.5823 3.84122
787 1 -1.1104 9.58319 24.8905 1.03704
788 2 2.2208 8.02198 23.5211 2.48997
789 2 2.2208 8.17722 29.0156 2.3906
790 1 -1.1104 9.44733 24.8166 3.78202
791 2 2.2208 8.14025 26.2643 5.14756
792 1 -1.1104 9.32516 22.1985 0.957976
793 1 -1.1104 9.3877 27.4847 0.91911
794 1 -1.1104 9.3843 21.9698 3.82467
795 1 -1.1104 9.56121 27.6235 3.83333
1480 1 -1.1104 6.69038 47.3363 1.05367
930 1 -1.1104 9.35773 27.609 6.69979
925 1 -1.1104 12.157 24.8095 6.56731
893 1 -1.1104 6.69187 24.8358 6.50468
926 1 -1.1104 12.237 22.0911 6.59623
929 1 -1.1104 9.3312 22.1655 6.60378
927 1 -1.1104 12.2048 27.6426 6.7644
799 2 2.2208 5.30089 34.6328 5.11531
800 1 -1.1104 1.06193 30.337 1.05722
801 1 -1.1104 1.09377 36.1296 0.860506
803 1 -1.1104 0.974479 30.4952 3.87989
804 1 -1.1104 1.12947 36.234 3.80209
806 1 -1.1104 0.872819 33.2736 0.85726
807 2 2.2208 5.21348 31.8003 2.34863
808 2 2.2208 5.29745 37.493 2.26778
809 1 -1.1104 1.14876 33.3096 3.64337
811 1 -1.1104 3.75156 30.5052 0.956004
812 1 -1.1104 3.91654 36.0152 0.891552
813 2 2.2208 2.59451 34.7228 2.38518
814 1 -1.1104 3.73341 30.4092 3.68598
815 1 -1.1104 3.99981 36.1714 3.6022
816 2 2.2208 2.38878 31.7764 5.05693
817 2 2.2208 2.51132 37.5666 5.10086
818 1 -1.1104 3.83414 33.411 1.00381
819 1 -1.1104 3.91198 33.2185 3.73141
823 1 -1.1104 6.69235 30.2549 0.863083
825 1 -1.1104 6.78028 33.1386 1.15064
802 1 -1.1104 6.74793 35.989 0.980854
824 1 -1.1104 6.60121 30.4995 3.67903
810 1 -1.1104 6.683 33.329 3.79243
1677 1 -1.1104 1.01605 47.167 12.0075
1111 2 2.2208 10.9463 43.1049 13.5498
1680 1 -1.1104 1.03675 47.3519 9.26485
1497 1 -1.1104 3.63743 47.336 0.923423
1482 1 -1.1104 1.01362 47.4479 3.76291
844 2 2.2208 13.6466 34.7101 2.49577
805 1 -1.1104 6.63169 36.1363 3.75884
826 2 2.2208 10.9013 34.574 5.17045
827 1 -1.1104 12.3124 30.5171 0.981192
828 1 -1.1104 12.35 36.0634 1.00271
829 1 -1.1104 12.2543 30.4697 3.81655
830 1 -1.1104 12.1334 35.9096 3.77762
831 1 -1.1104 12.4421 33.2541 1.12383
832 2 2.2208 10.8552 31.9042 2.34074
833 2 2.2208 10.8587 37.4943 2.37368
834 1 -1.1104 12.2229 33.2536 3.84979
835 1 -1.1104 9.57302 30.5091 1.07332
836 1 -1.1104 9.51395 36.1075 0.88284
837 2 2.2208 8.06127 34.6483 2.38814
838 1 -1.1104 9.51052 30.5974 3.69834
839 1 -1.1104 9.41313 36.1329 3.65693
840 2 2.2208 8.18633 31.9907 5.20621
841 2 2.2208 8.15816 37.4771 5.12512
842 1 -1.1104 9.4834 33.2251 1.00853
843 1 -1.1104 9.44894 33.2474 3.7462
954 1 -1.1104 6.61867 33.3343 6.62312
951 1 -1.1104 6.79031 30.5852 6.52589
1501 1 -1.1104 3.71837 47.4363 3.70513