ITEM: TIMESTEP
30000
ITEM: NUMBER OF ATOMS
17732
ITEM: BOX BOUNDS pp pp pp
-3.6261131463227153e-01 2.7702611314632481e+01
-4.3994470891121811e+00 3.3247944708911382e+02
-3.6672383691047911e-01 2.7706723836910513e+01
ITEM: ATOMS id type q x y z
1 2 2.2208 5.56303 1.24111 5.20948
2 1 -1.1104 1.1801 -2.97275 1.20816
3 1 -1.1104 1.13929 2.64366 1.06941
6 1 -1.1104 1.21502 -3.08982 3.92001
7 1 -1.1104 1.19063 2.48558 3.83539
10 1 -1.1104 1.30877 -0.141766 1.28047
12 2 2.2208 5.52768 -1.66493 2.45051
13 2 2.2208 5.39766 4.00316 2.49236
14 1 -1.1104 1.33214 -0.257272 3.94863
16 1 -1.1104 4.00711 -2.96641 1.09231
17 1 -1.1104 4.02808 2.66219 1.0282
18 2 2.2208 2.63496 1.2994 2.39457
19 1 -1.1104 4.10492 -3.07231 3.93019
20 1 -1.1104 4.11802 2.55091 3.8881
21 2 2.2208 2.72561 -1.58246 5.34132
22 2 2.2208 2.66517 3.93624 5.31773
23 1 -1.1104 4.0951 -0.0890322 0.985097
24 1 -1.1104 4.1953 -0.231616 3.78409
25 2 2.2208 -0.142954 -1.61866 2.52115
172 1 -1.1104 4.3456 -3.02719 6.66508
26 2 2.2208 -0.153454 1.18453 5.25649
381 2 2.2208 5.50765 1.13014 -0.360665
382 2 2.2208 2.76045 -1.56906 -0.226321
27 2 2.2208 -0.128168 4.1313 2.39214
398 2 2.2208 11.0611 6.99903 -0.281693
387 2 2.2208 11.0242 1.11516 -0.216164
51 2 2.2208 8.39045 -4.37506 2.58972
15 1 -1.1104 6.92345 -0.168022 3.90542
9 1 -1.1104 6.82627 2.59393 3.83804
11 1 -1.1104 6.99226 -0.253843 1.10964
8 1 -1.1104 6.94324 -2.86237 3.9128
5 1 -1.1104 6.76135 2.56046 1.0681
4 1 -1.1104 6.80001 -3.00263 0.98106
31 2 2.2208 11.133 1.25842 5.33914
32 1 -1.1104 12.5844 -3.05605 1.25797
33 1 -1.1104 12.5557 2.44123 1.16142
34 1 -1.1104 12.6365 -3.06973 3.94528
35 1 -1.1104 12.6127 2.56008 3.9789
36 1 -1.1104 12.6401 -0.297912 1.22061
37 2 2.2208 11.0291 -1.6835 2.45639
38 2 2.2208 11.2138 4.0023 2.53168
39 1 -1.1104 12.5973 -0.296388 3.97836
40 1 -1.1104 9.75226 -3.12404 1.08028
41 1 -1.1104 9.72547 2.60162 1.12493
42 2 2.2208 8.26843 1.30699 2.44079
43 1 -1.1104 9.69725 -2.99043 3.99584
44 1 -1.1104 9.53422 2.68171 3.89624
45 2 2.2208 8.38726 -1.63666 5.37808
46 2 2.2208 8.30614 4.13648 5.35679
47 1 -1.1104 9.76338 -0.270317 1.14898
48 1 -1.1104 9.8925 -0.135778 3.8462
206 1 -1.1104 12.4655 2.76993 6.63924
395 2 2.2208 5.46884 12.537 -0.313985
388 2 2.2208 8.15453 -1.65099 -0.321619
403 2 2.2208 2.73298 15.4186 -0.209515
328 1 -1.1104 12.5717 13.8742 9.58056
203 2 2.2208 5.6302 -4.35278 10.9339
394 2 2.2208 2.6395 9.65776 -0.285756
54 2 2.2208 5.4111 6.91947 5.28897
55 2 2.2208 5.42956 12.5755 5.33238
56 1 -1.1104 1.30436 8.3447 1.14832
58 1 -1.1104 1.25658 8.26165 3.80209
60 1 -1.1104 1.23628 5.51941 1.08713
61 1 -1.1104 1.29646 11.1856 1.22221
66 2 2.2208 5.44164 9.61342 2.51364
67 1 -1.1104 1.31928 5.35815 3.81558
68 1 -1.1104 1.19637 11.1587 4.02311
71 1 -1.1104 3.88301 8.15123 1.13336
72 2 2.2208 2.62574 6.83606 2.46851
73 2 2.2208 2.71166 12.5086 2.48509
74 1 -1.1104 3.99761 8.23141 3.89974
75 2 2.2208 2.63468 9.55369 5.3739
76 1 -1.1104 4.0617 5.52932 1.21919
77 1 -1.1104 4.15747 11.0262 0.972943
79 1 -1.1104 4.1289 5.42957 3.95421
80 1 -1.1104 4.0939 11.1046 3.87251
82 2 2.2208 0.000121776 9.71961 2.53726
83 2 2.2208 -0.132039 12.4644 5.28667
81 2 2.2208 -0.0556499 6.70446 5.17958
331 2 2.2208 10.9558 18.1579 10.948
396 2 2.2208 -0.183977 12.5191 -0.219801
372 2 2.2208 11.0625 20.9877 13.5909
78 1 -1.1104 4.11175 11.1219 6.57206
63 1 -1.1104 6.97684 5.27441 1.28058
59 1 -1.1104 6.71136 8.43997 3.97658
70 1 -1.1104 6.8708 11.0992 3.78904
57 1 -1.1104 6.8161 8.28171 1.24154
64 1 -1.1104 6.9164 11.084 1.06055
69 1 -1.1104 7.06129 5.62814 4.03719
84 2 2.2208 11.2044 7.01971 5.34969
85 2 2.2208 10.9346 12.4777 5.34358
86 1 -1.1104 12.5706 8.31015 1.16142
87 1 -1.1104 12.5956 8.31957 3.91006
88 1 -1.1104 12.5015 5.51434 0.9925
89 1 -1.1104 12.4811 11.1305 1.10877
91 2 2.2208 11.0571 9.73284 2.53068
92 1 -1.1104 12.5715 5.37536 3.82654
93 1 -1.1104 12.5223 11.2318 3.83725
94 1 -1.1104 9.69751 8.4335 1.0169
95 2 2.2208 8.36596 6.87228 2.65448
96 2 2.2208 8.23506 12.6802 2.44963
97 1 -1.1104 9.77028 8.3396 3.81112
98 2 2.2208 8.27881 9.67055 5.26787
99 1 -1.1104 9.64553 5.41777 1.22699
100 1 -1.1104 9.69473 11.2206 1.01229
102 1 -1.1104 9.9166 5.46298 4.02915
103 1 -1.1104 9.721 11.1256 3.87306
267 1 -1.1104 9.80678 8.40847 6.67512
330 1 -1.1104 12.5551 13.937 12.3024
327 1 -1.1104 12.3573 19.5805 9.46764
106 2 2.2208 5.37243 18.124 5.21048
107 1 -1.1104 1.21023 13.7758 1.20362
109 1 -1.1104 1.24733 19.4189 0.930047
113 1 -1.1104 1.30504 13.8325 3.89833
114 1 -1.1104 1.33292 19.6491 3.8217
116 1 -1.1104 1.33296 16.6999 1.2078
119 2 2.2208 5.42994 15.3814 2.46887
120 2 2.2208 5.5482 20.8337 2.54103
121 1 -1.1104 1.11721 16.7485 3.92818
123 1 -1.1104 3.98902 13.8412 1.0991
125 1 -1.1104 4.00551 19.435 1.1256
127 2 2.2208 2.61542 18.1447 2.50262
128 1 -1.1104 3.89155 14.0713 3.84867
129 1 -1.1104 3.93678 19.5269 4.04571
130 2 2.2208 2.61678 15.2843 5.32866
131 2 2.2208 2.62706 20.9473 5.38924
132 1 -1.1104 4.04431 16.6546 1.17175
134 1 -1.1104 4.04751 16.8392 3.95605
137 2 2.2208 -0.143338 17.9788 5.2429
135 2 2.2208 -0.130666 15.2656 2.57148
136 2 2.2208 -0.10202 20.7943 2.48476
397 2 2.2208 -0.184993 6.95913 -0.322246
204 2 2.2208 -0.129104 -4.3549 11.0174
386 2 2.2208 -0.146027 1.21927 -0.197506
329 1 -1.1104 12.4603 19.6463 12.2442
322 1 -1.1104 9.67656 13.8882 12.1445
319 1 -1.1104 9.66417 14.1098 9.33435
138 1 -1.1104 6.87811 19.4458 1.07165
110 1 -1.1104 6.77809 13.9424 1.14883
140 1 -1.1104 6.88111 16.6894 1.08051
115 1 -1.1104 6.82999 13.9425 3.8783
139 1 -1.1104 6.87677 19.4063 3.92174
122 1 -1.1104 6.9425 16.627 3.77015
141 2 2.2208 11.0947 18.0711 5.17401
142 1 -1.1104 12.5514 13.897 1.0654
144 1 -1.1104 12.4707 19.5775 1.16071
146 1 -1.1104 12.57 13.8634 3.85888
147 1 -1.1104 12.3592 19.5515 3.85212
148 1 -1.1104 12.4148 16.7425 1.07903
150 2 2.2208 11.1172 15.4506 2.38769
151 2 2.2208 11.0201 21.0343 2.49993
152 1 -1.1104 12.5426 16.7112 3.95133
153 1 -1.1104 9.61649 13.9548 1.04648
155 1 -1.1104 9.53093 19.5396 1.12956
157 2 2.2208 8.26162 18.1094 2.53908
158 1 -1.1104 9.66534 13.9995 3.97663
159 1 -1.1104 9.66655 19.6837 3.85799
160 2 2.2208 8.16598 15.3829 5.31191
161 2 2.2208 8.28407 20.9772 5.26694
162 1 -1.1104 9.83261 16.7507 1.11435
164 1 -1.1104 9.69544 16.7937 3.89707
149 1 -1.1104 12.4227 16.8328 6.76338
154 1 -1.1104 9.67632 13.9329 6.6957
163 1 -1.1104 9.45295 16.7463 6.643
174 1 -1.1104 4.05714 -0.258923 6.65626
166 1 -1.1104 1.33173 -3.09676 6.88733
167 1 -1.1104 1.22227 2.48975 6.60604
170 1 -1.1104 1.23455 -0.268079 6.88101
201 2 2.2208 -0.152972 1.28133 10.9261
200 2 2.2208 -0.014883 -1.70792 8.23786
173 1 -1.1104 4.2053 2.64483 6.70047
175 2 2.2208 5.55983 1.27816 10.9582
176 1 -1.1104 1.33682 -2.95967 12.5214
177 1 -1.1104 1.22114 2.64883 12.2358
180 1 -1.1104 1.39151 -2.97532 9.64029
181 1 -1.1104 1.2914 2.68386 9.47501
184 1 -1.1104 1.36162 -0.203554 12.3835
186 2 2.2208 5.52985 -1.62987 8.11479
187 2 2.2208 5.50638 4.06447 8.00024
188 1 -1.1104 1.25229 -0.139545 9.57268
190 1 -1.1104 4.11384 -3.16898 12.3099
191 1 -1.1104 3.95205 2.62231 12.3802
192 2 2.2208 2.70646 1.33922 8.07495
193 1 -1.1104 4.10311 -2.94478 9.52094
194 1 -1.1104 4.08363 2.68107 9.46043
195 2 2.2208 2.73413 -1.50277 10.9311
196 2 2.2208 2.4891 4.0272 10.8729
197 1 -1.1104 4.18745 -0.245206 12.2843
198 1 -1.1104 4.15412 -0.134055 9.38838
182 1 -1.1104 6.85663 -2.89325 9.56356
199 2 2.2208 -0.139949 4.04778 8.03869
378 2 2.2208 11.0217 18.1319 -0.296211
393 2 2.2208 5.5397 6.8218 -0.134986
171 1 -1.1104 7.06616 -0.21526 6.60338
205 1 -1.1104 12.5804 -2.97167 6.76947
168 1 -1.1104 7.11693 -3.05233 6.76586
210 1 -1.1104 9.86911 -0.185321 6.71517
209 1 -1.1104 9.69297 2.81008 6.80079
318 1 -1.1104 9.57449 19.5664 9.45755
183 1 -1.1104 7.04932 2.55621 9.48807
189 1 -1.1104 6.86243 -0.299985 9.64221
169 1 -1.1104 6.9056 2.5816 6.61899
208 1 -1.1104 9.85843 -3.00128 6.85588
178 1 -1.1104 7.04482 -3.02079 12.3299
179 1 -1.1104 6.85137 2.77344 12.3133
185 1 -1.1104 6.85721 -0.272884 12.3836
207 1 -1.1104 12.408 -0.0139171 6.81129
211 2 2.2208 11.1621 1.44732 10.8583
212 1 -1.1104 12.4854 -2.82577 12.2376
213 1 -1.1104 12.4808 2.89694 12.3567
214 1 -1.1104 12.5465 -2.97952 9.67571
215 1 -1.1104 12.6535 2.62538 9.5246
216 1 -1.1104 12.5229 -0.0852103 12.4189
217 2 2.2208 11.1659 -1.61974 8.21062
218 2 2.2208 11.2352 4.25207 8.05507
219 1 -1.1104 12.33 -0.220704 9.69905
220 1 -1.1104 9.76502 -2.71472 12.3947
221 1 -1.1104 9.75229 2.83213 12.2575
222 2 2.2208 8.43113 1.31231 8.127
223 1 -1.1104 9.7429 -2.94976 9.74879
224 1 -1.1104 9.85025 2.82193 9.41471
225 2 2.2208 8.27487 -1.41628 10.9556
226 2 2.2208 8.29798 4.07381 10.9166
227 1 -1.1104 9.61668 0.0317752 12.4089
228 1 -1.1104 9.57577 0.0203956 9.63488
404 2 2.2208 5.51015 18.25 -0.314515
288 1 -1.1104 6.66341 19.3348 9.49469
62 1 -1.1104 1.33091 10.8611 6.86001
343 2 2.2208 -0.174068 9.68163 8.22332
238 1 -1.1104 4.18565 8.35929 6.58412
239 1 -1.1104 4.10132 5.45359 6.66268
234 1 -1.1104 1.18057 8.09334 6.73563
236 1 -1.1104 1.33875 5.39816 6.70162
342 2 2.2208 -0.152101 12.4161 10.9941
344 2 2.2208 -0.21791 6.83396 10.9062
240 2 2.2208 5.28026 6.79977 11.0315
241 2 2.2208 5.43853 12.3665 10.7144
242 1 -1.1104 1.35048 8.2714 12.3556
244 1 -1.1104 1.21682 8.15249 9.57379
246 1 -1.1104 1.02487 5.42262 12.2538
247 1 -1.1104 1.21183 11.0133 12.3557
250 2 2.2208 5.40868 9.65249 8.07314
251 1 -1.1104 1.19903 5.36623 9.46689
252 1 -1.1104 1.33191 11.0971 9.65235
255 1 -1.1104 4.13204 8.48611 12.277
256 2 2.2208 2.6381 6.82936 8.23387
257 2 2.2208 2.66228 12.5799 8.04964
258 1 -1.1104 4.04033 8.29987 9.41305
259 2 2.2208 2.66643 9.67562 10.8677
260 1 -1.1104 3.84249 5.39574 12.5011
261 1 -1.1104 4.03969 11.1837 12.0821
262 1 -1.1104 3.87586 5.596 9.6592
263 1 -1.1104 4.08679 11.0982 9.37455
65 1 -1.1104 6.6978 11.2209 6.61736
101 1 -1.1104 9.55487 11.0637 6.66996
90 1 -1.1104 12.5134 11.1445 6.67699
235 1 -1.1104 6.99122 8.38564 6.75157
237 1 -1.1104 6.83208 5.54597 6.69082
266 1 -1.1104 12.5236 5.60861 6.63811
269 1 -1.1104 9.63828 5.70647 6.81435
254 1 -1.1104 6.9752 10.9319 9.31534
245 1 -1.1104 6.73437 8.07598 9.69887
243 1 -1.1104 6.82577 8.31267 12.3208
249 1 -1.1104 6.83795 11.1396 12.089
248 1 -1.1104 6.8471 5.47479 12.3272
253 1 -1.1104 6.79328 5.38734 9.60506
265 1 -1.1104 12.5699 8.42186 6.84674
264 1 -1.1104 9.70399 11.2398 9.48189
268 1 -1.1104 9.62962 5.49336 9.51427
270 1 -1.1104 9.66564 11.1886 12.2678
271 1 -1.1104 9.75198 5.54091 12.3019
272 2 2.2208 8.21622 9.60749 10.8444
273 1 -1.1104 9.63769 8.30157 9.53869
274 2 2.2208 8.16206 12.5467 7.97084
275 2 2.2208 8.21201 6.93424 8.23851
276 2 2.2208 11.0478 6.78532 10.9257
277 2 2.2208 11.0965 12.4956 10.8899
278 1 -1.1104 12.4775 8.43067 12.4179
279 1 -1.1104 12.3908 8.32272 9.58689
280 1 -1.1104 12.4615 5.61841 12.2626
281 1 -1.1104 12.3872 11.1667 12.2432
282 2 2.2208 11.0906 9.71521 8.14392
283 1 -1.1104 12.5531 5.49482 9.46244
284 1 -1.1104 12.4557 11.0347 9.47243
285 1 -1.1104 9.62062 8.28525 12.3309
312 2 2.2208 -0.183706 18.1208 10.8689
302 1 -1.1104 1.23705 19.4973 6.82294
311 2 2.2208 -0.149088 20.9676 8.17867
313 2 2.2208 -0.267781 15.1826 8.18919
126 1 -1.1104 3.92384 19.6288 6.75248
124 1 -1.1104 3.98902 14.1041 6.66479
108 1 -1.1104 1.30258 13.8358 6.64686
117 1 -1.1104 1.23266 16.5746 6.70496
133 1 -1.1104 4.11553 16.7499 6.60048
309 2 2.2208 2.56845 20.9423 10.9609
308 1 -1.1104 4.11931 16.5899 12.3218
307 1 -1.1104 1.38334 16.669 12.249
305 1 -1.1104 3.94114 13.8006 9.58909
304 1 -1.1104 3.91086 16.6692 9.39664
303 2 2.2208 2.51157 18.1087 8.07143
301 1 -1.1104 3.78913 19.541 9.47459
300 2 2.2208 5.33074 18.0687 10.9069
299 1 -1.1104 1.32352 13.8334 12.3856
298 1 -1.1104 1.08728 19.4373 12.2662
295 2 2.2208 5.44306 15.4715 8.11271
294 1 -1.1104 1.13174 13.7979 9.36258
310 2 2.2208 2.66021 15.224 10.8027
293 2 2.2208 5.33661 21.0962 8.05962
292 1 -1.1104 1.19711 16.7429 9.43337
291 1 -1.1104 1.01839 19.5735 9.51638
287 1 -1.1104 3.94402 13.9855 12.2994
286 1 -1.1104 3.90682 19.4594 12.2672
289 1 -1.1104 6.74308 16.5893 9.54567
290 1 -1.1104 6.93582 13.8741 9.35495
112 1 -1.1104 6.78317 19.6292 6.5898
143 1 -1.1104 12.4579 14.1125 6.72231
306 1 -1.1104 6.82759 16.787 12.3925
326 1 -1.1104 12.4968 16.7815 12.2755
321 1 -1.1104 9.65075 19.4754 12.285
315 1 -1.1104 9.5742 16.7528 12.2273
296 1 -1.1104 6.73873 19.615 12.2618
314 1 -1.1104 9.62584 16.9002 9.31724
156 1 -1.1104 9.59935 19.6558 6.58114
297 1 -1.1104 6.85027 13.9985 12.2117
323 1 -1.1104 12.4234 16.8064 9.6448
325 2 2.2208 11.0706 15.5003 8.04856
324 2 2.2208 10.9717 20.8014 8.06611
316 2 2.2208 8.15007 20.9567 10.8758
317 2 2.2208 8.22351 15.3551 10.8452
118 1 -1.1104 6.78327 16.8444 6.76421
111 1 -1.1104 6.64586 14.1166 6.59888
320 2 2.2208 8.13797 18.249 7.995
145 1 -1.1104 12.4946 19.4442 6.69964
379 2 2.2208 8.3172 20.9927 -0.25796
232 2 2.2208 11.1556 -4.21398 11.0313
405 2 2.2208 2.62428 20.8872 -0.289139
202 2 2.2208 2.76696 -4.39371 8.24761
377 2 2.2208 8.20696 15.3299 -0.363097
384 2 2.2208 -0.121376 -4.36813 -0.241915
365 2 2.2208 8.18122 12.6064 13.5889
389 2 2.2208 8.37823 3.93813 -0.257585
373 2 2.2208 11.0823 15.4175 13.5295
401 2 2.2208 -0.0432915 18.0596 -0.323859
360 2 2.2208 5.4816 9.80137 13.5679
369 2 2.2208 5.26255 20.8307 13.6518
400 2 2.2208 11.1437 12.5638 -0.174547
368 2 2.2208 2.5921 18.0828 13.6044
357 2 2.2208 11.0983 4.22742 13.6592
383 2 2.2208 2.67591 4.05387 -0.284905
406 2 2.2208 5.31809 1.3619 16.5373
407 1 -1.1104 1.15094 -2.934 18.1422
408 1 -1.1104 1.19357 2.74378 17.9426
411 1 -1.1104 1.32143 -3.08066 15.388
413 1 -1.1104 1.18163 2.65711 15.0888
419 1 -1.1104 1.16658 -0.122917 18.0042
421 2 2.2208 5.27398 -1.47552 19.3328
422 2 2.2208 5.37042 4.15415 19.2726
423 1 -1.1104 1.29464 -0.22961 15.188
427 1 -1.1104 3.96086 -2.89302 17.9357
428 1 -1.1104 3.91898 2.72399 17.8898
429 2 2.2208 2.543 1.35883 19.373
430 1 -1.1104 4.18655 -2.96535 15.133
432 1 -1.1104 3.94053 2.71706 15.0596
434 2 2.2208 2.58427 -1.61641 16.574
435 2 2.2208 2.58027 4.11314 16.5265
436 1 -1.1104 4.01419 -0.0265952 17.9608
437 1 -1.1104 4.05989 -0.105223 15.1758
412 1 -1.1104 1.43571 -2.90613 20.8237
443 2 2.2208 -0.175792 -1.47239 19.4078
351 2 2.2208 -0.108517 15.4723 13.7386
544 2 2.2208 -0.186124 4.14504 19.3073
442 2 2.2208 -0.197038 1.28169 16.6142
474 2 2.2208 11.1603 -4.36563 16.7505
639 2 2.2208 5.53366 -4.35304 22.2349
349 2 2.2208 2.75223 1.22668 13.7301
416 1 -1.1104 6.81509 -2.70853 20.7473
637 2 2.2208 -0.160107 -4.38958 22.1708
348 2 2.2208 5.51577 -1.62072 13.7996
352 2 2.2208 5.41766 4.14836 13.8705
367 2 2.2208 -0.149389 4.00752 13.7447
346 2 2.2208 -0.0361978 -1.55615 13.838
410 1 -1.1104 6.79934 2.68309 17.9858
420 1 -1.1104 6.69299 -0.169281 17.9119
425 1 -1.1104 6.85856 0.0017799 15.1165
415 1 -1.1104 6.90665 -2.8374 15.228
417 1 -1.1104 6.87865 2.78915 15.216
409 1 -1.1104 6.79111 -2.96471 17.9598
449 2 2.2208 11.015 1.38471 16.6386
450 1 -1.1104 12.5228 -2.98471 18.0337
451 1 -1.1104 12.5077 2.75494 17.9044
452 1 -1.1104 12.5402 -2.89273 15.1073
454 1 -1.1104 12.3485 2.76855 15.1662
456 1 -1.1104 12.3323 0.0304871 17.9904
457 2 2.2208 11.1299 -1.56147 19.4812
458 2 2.2208 11.1234 4.14232 19.3018
459 1 -1.1104 12.6001 -0.0427902 15.2623
461 1 -1.1104 9.6359 -2.85834 17.9533
462 1 -1.1104 9.64809 2.85568 17.9791
463 2 2.2208 8.32346 1.35728 19.4745
464 1 -1.1104 9.87082 -2.92101 15.2255
466 1 -1.1104 9.65003 2.83217 15.1297
468 2 2.2208 8.26932 -1.52644 16.537
469 2 2.2208 8.14188 4.13198 16.5634
470 1 -1.1104 9.58276 -0.0871928 17.9975
471 1 -1.1104 9.62519 -0.0803234 15.0555
606 2 2.2208 13.6357 21.0764 22.1806
355 2 2.2208 8.22601 1.2723 13.7981
455 1 -1.1104 12.4334 2.73374 20.7406
441 2 2.2208 2.65586 -4.26422 19.3621
356 2 2.2208 11.0302 -1.41413 13.7266
481 2 2.2208 -0.230152 6.89782 16.5292
482 2 2.2208 5.51184 6.98635 16.596
483 2 2.2208 5.40049 12.5484 16.5547
484 1 -1.1104 1.11455 8.23035 18.0123
486 1 -1.1104 1.07596 8.41457 15.1662
490 1 -1.1104 1.31726 5.50122 17.8454
491 1 -1.1104 1.32033 11.1544 17.8776
494 2 2.2208 5.54776 9.72412 19.3564
495 1 -1.1104 1.15698 5.52384 15.0421
497 1 -1.1104 1.33974 11.2507 15.0792
503 1 -1.1104 4.01642 8.42729 17.8277
504 2 2.2208 2.69121 6.96578 19.3058
505 2 2.2208 2.59605 12.3728 19.3499
506 1 -1.1104 3.9037 8.43541 15.0418
508 2 2.2208 2.56484 9.71295 16.4599
509 1 -1.1104 4.1356 5.57183 17.9722
510 1 -1.1104 4.0788 10.9787 17.9714
511 1 -1.1104 4.0318 5.61226 15.198
513 1 -1.1104 4.10415 11.1574 15.1401
516 2 2.2208 -0.169601 12.4754 16.5596
515 2 2.2208 -0.132121 9.65653 19.4266
514 1 -1.1104 4.08136 11.0048 20.8469
358 2 2.2208 -0.257989 9.74595 13.8107
475 2 2.2208 8.14861 -4.30046 19.435
597 1 -1.1104 9.64624 13.8953 20.6542
698 1 -1.1104 9.78513 19.5708 26.4262
499 1 -1.1104 6.74614 5.58818 15.1816
488 1 -1.1104 6.88443 8.33399 15.0846
485 1 -1.1104 6.84052 8.30365 18.0447
493 1 -1.1104 6.87028 11.2359 17.952
492 1 -1.1104 6.85342 5.53409 17.9971
501 1 -1.1104 6.86571 11.1309 14.9714
518 2 2.2208 11.06 6.98591 16.4892
519 2 2.2208 10.963 12.5187 16.3793
520 1 -1.1104 12.3078 8.22826 18.0041
521 1 -1.1104 12.4052 8.38219 15.1508
523 1 -1.1104 12.3528 5.61974 17.8721
524 1 -1.1104 12.5232 11.0782 17.764
525 2 2.2208 11.0764 9.78951 19.3562
526 1 -1.1104 12.4717 5.49423 15.0985
528 1 -1.1104 12.3367 11.2253 15.0908
530 1 -1.1104 9.59074 8.52717 17.9672
531 2 2.2208 8.33835 6.93776 19.2926
532 2 2.2208 8.30518 12.5156 19.2032
533 1 -1.1104 9.59754 8.28337 15.1869
535 2 2.2208 8.27011 9.88427 16.3654
536 1 -1.1104 9.65015 5.75793 17.9033
537 1 -1.1104 9.68215 11.0624 17.8551
538 1 -1.1104 9.68363 5.48394 14.9179
540 1 -1.1104 9.58476 11.203 15.0551
522 1 -1.1104 12.5935 8.49597 20.8196
539 1 -1.1104 9.57422 5.35072 20.6689
489 1 -1.1104 6.91129 8.25162 20.8776
541 1 -1.1104 9.50921 11.0716 20.6879
440 2 2.2208 5.50424 -4.2911 16.6501
663 1 -1.1104 12.3799 16.7492 26.3485
363 2 2.2208 8.16695 6.84327 13.7298
673 1 -1.1104 9.60131 14.0733 26.3832
545 2 2.2208 5.38175 18.0229 16.334
546 1 -1.1104 1.11908 13.9469 17.9287
547 1 -1.1104 1.10631 19.573 17.7977
550 1 -1.1104 1.11577 14.0766 15.0706
552 1 -1.1104 1.317 19.6123 14.997
558 1 -1.1104 1.18561 16.8121 17.7631
560 2 2.2208 5.41387 15.2997 19.3212
561 2 2.2208 5.37999 20.8215 19.2441
562 1 -1.1104 1.24158 16.7958 15.1242
566 1 -1.1104 3.96515 13.6756 17.9866
567 1 -1.1104 3.92706 19.3656 17.8594
568 2 2.2208 2.59223 18.0757 19.2402
569 1 -1.1104 3.85703 13.976 15.1443
571 1 -1.1104 4.05563 19.4709 15.0344
573 2 2.2208 2.56168 15.2932 16.6458
574 2 2.2208 2.54026 20.9159 16.4301
575 1 -1.1104 3.95702 16.5081 17.9515
576 1 -1.1104 4.01183 16.7223 15.0592
447 2 2.2208 -0.218222 18.0983 16.4856
476 2 2.2208 -0.301375 20.8178 19.3624
448 2 2.2208 -0.252187 15.3315 19.4175
700 2 2.2208 8.08928 20.8439 22.1631
732 1 -1.1104 6.80149 16.7347 26.4134
636 1 -1.1104 12.401 16.6584 23.5157
736 1 -1.1104 6.79613 19.5937 23.6839
559 1 -1.1104 6.88217 16.6389 17.781
549 1 -1.1104 6.84863 19.2834 17.7957
564 1 -1.1104 6.88391 16.8112 15.0976
556 1 -1.1104 6.77679 19.5752 15.0986
548 1 -1.1104 6.90765 13.8594 17.7748
554 1 -1.1104 6.66821 13.9381 15.0239
581 2 2.2208 11.0006 18.147 16.4403
582 1 -1.1104 12.3974 13.9618 17.9171
583 1 -1.1104 12.3387 19.5002 18.0171
584 1 -1.1104 12.3722 13.9778 15.1094
586 1 -1.1104 12.2534 19.6667 14.9334
588 1 -1.1104 12.4763 16.7145 17.8651
589 2 2.2208 11.0154 15.3877 19.2561
590 2 2.2208 10.8418 20.9415 19.4367
591 1 -1.1104 12.337 16.8107 14.9067
593 1 -1.1104 9.65164 14.0886 17.7892
594 1 -1.1104 9.51719 19.449 18.039
595 2 2.2208 8.21154 18.01 19.2184
596 1 -1.1104 9.61836 14.0853 15.0264
598 1 -1.1104 9.53079 19.7248 15.14
600 2 2.2208 8.33945 15.379 16.4177
601 2 2.2208 8.21226 20.9797 16.5511
602 1 -1.1104 9.65212 16.7261 17.923
603 1 -1.1104 9.565 16.861 15.0078
557 1 -1.1104 6.7236 19.4656 20.6643
670 1 -1.1104 6.91738 19.6361 26.4013
592 1 -1.1104 12.5538 16.7139 20.661
638 2 2.2208 10.933 15.3507 24.9727
424 1 -1.1104 1.24369 0.00934012 20.9991
431 1 -1.1104 3.94579 -2.89618 20.8336
414 1 -1.1104 1.1484 2.69474 20.8462
555 1 -1.1104 6.85454 13.8839 20.7652
433 1 -1.1104 4.0245 2.77479 20.7308
438 1 -1.1104 4.08475 -0.158132 20.8901
609 2 2.2208 5.31635 1.37771 22.2842
610 1 -1.1104 1.26937 -3.19662 23.5891
611 1 -1.1104 1.24245 2.79383 23.6006
614 1 -1.1104 1.29852 -2.87676 26.4258
615 1 -1.1104 1.39665 2.71054 26.3156
618 1 -1.1104 1.24817 -0.236282 23.6565
620 2 2.2208 5.4643 -1.72565 24.9074
621 2 2.2208 5.55977 4.08397 25.0152
622 1 -1.1104 1.26681 -0.086468 26.467
624 1 -1.1104 4.03576 -2.90812 23.6304
625 1 -1.1104 4.07903 2.74508 23.558
626 2 2.2208 2.65378 1.18647 25.0556
627 1 -1.1104 4.08539 -3.09247 26.4073
628 1 -1.1104 4.16644 2.48899 26.2329
629 2 2.2208 2.56816 -1.59916 22.2919
630 2 2.2208 2.64446 4.14238 22.1738
631 1 -1.1104 4.14671 0.00453322 23.8564
632 1 -1.1104 4.19431 -0.420955 26.5344
644 2 2.2208 -0.129157 4.05664 25.0257
613 1 -1.1104 6.86147 2.6762 23.6628
667 2 2.2208 8.2795 18.1654 24.9578
643 2 2.2208 -0.155571 1.34832 22.1624
642 2 2.2208 -0.17455 -1.53695 25.0987
607 2 2.2208 11.0332 18.161 22.1367
641 2 2.2208 10.9796 21.0566 24.8798
635 1 -1.1104 12.5386 19.5146 26.3353
460 1 -1.1104 12.5683 -0.147763 20.7739
472 1 -1.1104 9.77843 -0.0774141 20.9065
453 1 -1.1104 12.4867 -3.03088 20.9379
418 1 -1.1104 6.73603 2.83728 20.8296
623 1 -1.1104 7.00124 -0.158245 26.3791
619 1 -1.1104 6.98979 -0.182722 23.6519
730 1 -1.1104 6.91878 13.8749 26.4682
426 1 -1.1104 6.92297 -0.0290758 20.825
465 1 -1.1104 9.76603 -3.11936 20.8977
467 1 -1.1104 9.67485 2.63294 20.7816
616 1 -1.1104 6.80374 -3.10566 26.3458
612 1 -1.1104 6.92625 -3.07713 23.5481
617 1 -1.1104 6.8937 2.58118 26.4477
645 2 2.2208 11.0929 1.45715 22.2141
646 1 -1.1104 12.6225 -2.91311 23.811
647 1 -1.1104 12.5212 2.9089 23.557
648 1 -1.1104 12.4503 -3.08007 26.5589
649 1 -1.1104 12.5 2.6545 26.4169
650 1 -1.1104 12.579 0.0439301 23.6931
651 2 2.2208 11.0479 -1.66608 25.0824
652 2 2.2208 11.154 4.02222 25.0308
653 1 -1.1104 12.527 -0.339446 26.4097
654 1 -1.1104 9.60486 -2.92654 23.6927
655 1 -1.1104 9.67589 2.68884 23.5833
656 2 2.2208 8.22558 1.24542 25.1022
657 1 -1.1104 9.58451 -2.99966 26.4664
658 1 -1.1104 9.73361 2.61795 26.4442
659 2 2.2208 8.33678 -1.45714 22.3223
660 2 2.2208 8.19564 4.02258 22.1781
661 1 -1.1104 9.80039 -0.10692 23.774
662 1 -1.1104 9.7061 -0.197008 26.3925
487 1 -1.1104 1.22346 8.3458 20.7542
496 1 -1.1104 1.1759 5.61556 20.5602
512 1 -1.1104 3.94459 5.56825 20.8046
702 2 2.2208 -0.074966 9.97024 24.9525
507 1 -1.1104 4.18343 8.18819 20.719
498 1 -1.1104 1.35559 11.0856 20.7469
674 2 2.2208 5.58638 6.93603 22.3284
675 2 2.2208 5.42821 12.5083 22.0509
676 1 -1.1104 1.43797 8.48641 23.83
678 1 -1.1104 1.21064 8.29861 26.5218
680 1 -1.1104 1.35378 5.56062 23.527
681 1 -1.1104 1.33435 11.1516 23.6938
684 2 2.2208 5.49007 9.76982 24.9476
685 1 -1.1104 1.28772 5.46114 26.3799
686 1 -1.1104 1.36576 11.2227 26.4436
689 1 -1.1104 4.18453 8.29121 23.5683
690 2 2.2208 2.64208 6.98797 25.0558
691 2 2.2208 2.62561 12.6082 24.9366
692 1 -1.1104 4.1905 8.38425 26.433
693 2 2.2208 2.65767 9.64681 22.2118
694 1 -1.1104 4.21359 5.53317 23.7579
695 1 -1.1104 4.15017 11.263 23.522
696 1 -1.1104 4.09441 5.46845 26.417
697 1 -1.1104 4.09552 11.153 26.3837
703 2 2.2208 -0.191973 12.6273 22.2071
444 2 2.2208 -0.0887799 6.90471 22.0937
665 1 -1.1104 9.56397 19.6072 23.5161
534 1 -1.1104 9.71936 8.2238 20.8408
527 1 -1.1104 12.5551 5.55812 20.7004
500 1 -1.1104 6.82185 5.49341 20.7265
502 1 -1.1104 6.84174 11.1196 20.7685
688 1 -1.1104 6.96416 11.2571 26.463
679 1 -1.1104 6.97802 8.3643 26.4219
687 1 -1.1104 7.05363 5.475 26.5664
683 1 -1.1104 6.89023 11.1417 23.6735
677 1 -1.1104 6.98416 8.44151 23.6741
682 1 -1.1104 7.04496 5.51434 23.8
529 1 -1.1104 12.4048 11.1274 20.7186
705 1 -1.1104 9.79001 11.2572 26.1826
706 1 -1.1104 9.80596 5.48749 26.396
707 1 -1.1104 9.69763 11.0762 23.4323
708 1 -1.1104 9.76419 5.29546 23.593
709 2 2.2208 8.29666 9.64306 22.2663
710 1 -1.1104 9.81775 8.27968 26.27
711 2 2.2208 8.34307 12.5429 24.8567
712 2 2.2208 8.42844 6.92003 25.1119
713 2 2.2208 11.0982 6.87773 22.1329
714 2 2.2208 10.9286 12.555 22.0632
715 1 -1.1104 12.5599 8.57245 23.5929
716 1 -1.1104 12.5761 8.4709 26.4478
717 1 -1.1104 12.4308 5.66155 23.5367
718 1 -1.1104 12.6075 11.2622 23.5001
719 2 2.2208 11.1345 9.85914 24.9184
720 1 -1.1104 12.4171 5.6128 26.3217
721 1 -1.1104 12.5819 11.1997 26.3763
722 1 -1.1104 9.75316 8.32499 23.6886
664 1 -1.1104 9.65184 13.9157 23.5119
563 1 -1.1104 1.27827 16.6041 20.7153
553 1 -1.1104 1.26708 19.3687 20.5678
570 1 -1.1104 3.94545 13.9218 20.6294
725 2 2.2208 -0.0776032 15.2973 25.0332
572 1 -1.1104 4.00508 19.4078 20.6849
551 1 -1.1104 1.28428 13.8822 20.7435
723 2 2.2208 -0.208761 18.0217 22.1729
577 1 -1.1104 4.11437 16.7979 20.6281
746 1 -1.1104 4.09397 13.9858 26.3947
745 1 -1.1104 3.94414 16.8384 26.4391
744 2 2.2208 2.62653 18.0531 24.9394
743 1 -1.1104 4.12838 19.5562 26.3433
750 2 2.2208 2.67425 20.8861 22.1552
749 1 -1.1104 3.98789 16.7543 23.6441
748 1 -1.1104 1.22171 16.7008 23.5346
727 2 2.2208 2.59998 15.335 22.1131
729 1 -1.1104 3.99872 19.4795 23.5511
731 1 -1.1104 3.9618 14.0195 23.5016
733 1 -1.1104 1.39022 19.7501 26.2153
734 1 -1.1104 1.3774 16.8158 26.4923
735 1 -1.1104 1.33604 14.089 26.3872
737 2 2.2208 5.53177 20.9883 24.9417
738 2 2.2208 5.46378 15.2991 25.0137
740 1 -1.1104 1.12333 19.6009 23.4172
741 1 -1.1104 1.18537 13.9419 23.4962
742 2 2.2208 5.46475 18.0603 22.1397
724 2 2.2208 -0.0909683 20.9146 25.1195
599 1 -1.1104 9.67325 19.4823 20.9064
704 1 -1.1104 9.60413 16.8012 26.3453
565 1 -1.1104 6.98251 16.5783 20.725
634 1 -1.1104 12.4446 14.109 26.4112
701 1 -1.1104 9.59737 16.7272 23.6014
747 1 -1.1104 6.83549 16.7322 23.5121
699 2 2.2208 8.32846 15.3427 22.21
587 1 -1.1104 12.4186 19.5589 20.6801
604 1 -1.1104 9.68553 16.6838 20.7276
585 1 -1.1104 12.2451 13.9492 20.7634
739 1 -1.1104 6.80575 13.9436 23.5489
633 1 -1.1104 12.37 19.4807 23.523
608 1 -1.1104 12.5582 13.9383 23.6612
359 2 2.2208 2.58388 7.06503 13.7005
371 2 2.2208 5.42742 15.3187 13.7089
361 2 2.2208 2.53875 12.6097 13.7205
399 2 2.2208 8.37836 9.85797 27.5817
364 2 2.2208 11.0598 9.74095 13.7432
350 2 2.2208 -0.277067 20.8443 13.7035
376 2 2.2208 8.24011 18.2889 13.7447
751 2 2.2208 5.39879 23.8531 5.24013
752 2 2.2208 5.44152 29.3747 5.30735
753 1 -1.1104 1.1406 25.0277 1.11454
754 1 -1.1104 1.26678 25.3145 3.80221
755 1 -1.1104 1.20471 22.3265 1.32541
756 1 -1.1104 1.24493 27.9937 1.23074
757 2 2.2208 5.32309 26.617 2.59348
758 1 -1.1104 1.22397 22.5222 3.88799
759 1 -1.1104 1.0893 28.0145 3.97938
760 1 -1.1104 4.00471 25.1779 1.05876
761 2 2.2208 2.59407 23.7135 2.55337
762 2 2.2208 2.64333 29.3526 2.68919
763 1 -1.1104 3.98528 25.1764 3.88739
764 2 2.2208 2.47976 26.6416 5.28395
765 1 -1.1104 4.21578 22.5183 1.2767
766 1 -1.1104 3.87785 28.0301 1.26059
767 1 -1.1104 4.15099 22.3404 4.06896
768 1 -1.1104 4.01711 28.042 4.02246
894 1 -1.1104 1.14289 22.3783 6.76476
769 2 2.2208 -0.150695 29.3026 5.38726
770 2 2.2208 -0.245584 23.6727 5.29065
771 2 2.2208 -0.253427 26.6049 2.60394
1897 3 0 10.7876 47.0542 10.1979
821 2 2.2208 -0.182189 37.7293 2.49276
898 1 -1.1104 3.97325 25.3065 6.59564
1084 1 -1.1104 6.63758 47.3717 9.45293
1117 2 2.2208 13.6694 43.4469 -0.245337
772 1 -1.1104 6.79178 25.1544 1.03984
773 1 -1.1104 6.86262 25.2377 3.9358
774 1 -1.1104 6.91382 22.3128 1.25627
777 1 -1.1104 6.94733 27.9215 3.74567
776 1 -1.1104 6.9293 22.2582 4.0167
775 1 -1.1104 6.69853 27.9506 0.918438
778 2 2.2208 11.1425 23.8581 5.35892
779 2 2.2208 10.8661 29.3912 5.4042
780 1 -1.1104 12.3513 25.3268 0.994656
781 1 -1.1104 12.4163 25.1059 3.81357
782 1 -1.1104 12.4946 22.27 1.1319
783 1 -1.1104 12.3945 28.0491 1.07007
784 2 2.2208 11.0602 26.5929 2.44173
785 1 -1.1104 12.5104 22.2762 4.03631
786 1 -1.1104 12.4664 27.8798 3.83145
787 1 -1.1104 9.62758 25.1617 1.09434
788 2 2.2208 8.29427 23.8552 2.55602
789 2 2.2208 8.19464 29.4059 2.4854
790 1 -1.1104 9.52389 25.1871 3.90926
791 2 2.2208 8.26298 26.4906 5.36098
792 1 -1.1104 9.75682 22.4089 1.05019
793 1 -1.1104 9.65446 27.9711 1.10626
794 1 -1.1104 9.76669 22.5387 3.89855
795 1 -1.1104 9.8135 27.7659 3.97026
927 1 -1.1104 12.4636 28.0335 6.66676
930 1 -1.1104 9.58996 27.9522 6.7685
897 1 -1.1104 6.79761 28.1013 6.53965
928 1 -1.1104 9.61925 25.1172 6.78475
1137 2 2.2208 2.59309 43.3846 -0.326387
1121 2 2.2208 11.0582 40.5889 -0.329231
1130 2 2.2208 5.55052 34.9604 -0.217675
822 2 2.2208 -0.232748 32.249 2.56225
799 2 2.2208 5.35806 34.924 5.34806
800 1 -1.1104 1.24865 30.7882 1.25745
801 1 -1.1104 1.34349 36.4302 1.10958
803 1 -1.1104 1.28922 30.6356 4.09118
804 1 -1.1104 1.25907 36.3545 3.82028
806 1 -1.1104 1.34427 33.5459 1.02316
807 2 2.2208 5.4475 32.0721 2.51219
808 2 2.2208 5.39924 37.7382 2.43767
809 1 -1.1104 1.27852 33.4462 3.92462
811 1 -1.1104 3.9672 30.7375 1.10507
812 1 -1.1104 4.04476 36.4373 1.00049
813 2 2.2208 2.65335 34.9754 2.56015
814 1 -1.1104 4.01795 30.727 3.93591
815 1 -1.1104 3.96916 36.3145 3.83789
816 2 2.2208 2.61516 32.1765 5.31852
817 2 2.2208 2.45473 37.8173 5.30568
818 1 -1.1104 3.99185 33.713 0.947758
819 1 -1.1104 4.08457 33.6142 3.91089
820 2 2.2208 -0.341517 35.0075 5.31889
1125 2 2.2208 8.22479 26.5949 -0.273458
1116 2 2.2208 10.9459 46.3308 -0.358785
950 1 -1.1104 1.06343 36.4445 6.564
1048 1 -1.1104 9.69003 41.9912 9.66481
957 1 -1.1104 4.04256 33.6247 6.77266
1086 1 -1.1104 9.57459 47.3776 6.66048
810 1 -1.1104 6.82969 33.5397 3.87262
824 1 -1.1104 6.69247 30.7081 3.97809
823 1 -1.1104 6.80399 30.7385 1.0644
805 1 -1.1104 6.87204 36.369 3.8629
802 1 -1.1104 6.83057 36.3782 1.02689
825 1 -1.1104 6.7656 33.5758 1.18777
826 2 2.2208 10.9165 34.9412 5.42139
827 1 -1.1104 12.4402 30.7699 1.01813
828 1 -1.1104 12.3711 36.3705 1.02742
829 1 -1.1104 12.1936 30.622 3.84564
830 1 -1.1104 12.4408 36.3339 3.83239
831 1 -1.1104 12.4136 33.6106 1.01857
832 2 2.2208 10.9924 32.1376 2.56102
833 2 2.2208 11.0368 37.764 2.45516
834 1 -1.1104 12.3376 33.3527 3.98784
835 1 -1.1104 9.69835 30.6751 0.997005
836 1 -1.1104 9.66942 36.2898 1.13292