ITEM: TIMESTEP
90000
ITEM: NUMBER OF ATOMS
17732
ITEM: BOX BOUNDS pp pp pp
-3.6791617817734523e-01 2.7707916178178163e+01
-4.4202848800059380e+00 3.3250028488001129e+02
-3.6143053071257825e-01 2.7701430530713033e+01
ITEM: ATOMS id type q x y z
1 2 2.2208 5.2803 1.16981 5.18842
2 1 -1.1104 1.04798 -2.98332 0.984732
3 1 -1.1104 0.985863 2.55006 0.936985
6 1 -1.1104 0.995769 -3.16293 3.78996
7 1 -1.1104 1.04557 2.35924 3.86604
10 1 -1.1104 0.958021 -0.168517 0.994553
12 2 2.2208 5.25012 -1.51204 2.3181
13 2 2.2208 5.24752 3.97657 2.5433
14 1 -1.1104 1.13813 -0.439482 3.78423
16 1 -1.1104 3.87072 -3.02403 0.89786
17 1 -1.1104 3.7578 2.57968 1.16646
18 2 2.2208 2.51415 1.19644 2.49261
19 1 -1.1104 3.74349 -3.02563 3.73383
20 1 -1.1104 3.93812 2.4849 3.8293
21 2 2.2208 2.54164 -1.60879 5.12546
22 2 2.2208 2.30276 3.88987 5.11875
23 1 -1.1104 3.72453 -0.186248 1.03639
24 1 -1.1104 3.95632 -0.249251 3.77642
174 1 -1.1104 3.99017 -0.382903 6.48855
173 1 -1.1104 3.83454 2.54827 6.67026
4 1 -1.1104 6.54608 -2.90204 0.983315
5 1 -1.1104 6.67009 2.54014 1.05807
170 1 -1.1104 1.04847 -0.291374 6.63376
166 1 -1.1104 1.05125 -3.11163 6.52727
167 1 -1.1104 1.01253 2.4855 6.45818
168 1 -1.1104 6.80579 -3.0856 6.58853
169 1 -1.1104 6.69017 2.50691 6.48414
8 1 -1.1104 6.76128 -3.10429 3.70863
11 1 -1.1104 6.48916 -0.102718 0.892404
15 1 -1.1104 6.62038 -0.220352 3.77105
357 2 2.2208 10.7898 4.12923 13.579
49 2 2.2208 13.7846 1.22725 2.41336
172 1 -1.1104 3.81983 -2.94823 6.53141
9 1 -1.1104 6.76116 2.54046 3.7778
31 2 2.2208 10.7389 1.21281 5.01272
32 1 -1.1104 12.2147 -3.05586 0.83377
33 1 -1.1104 12.1772 2.53378 0.897376
34 1 -1.1104 11.976 -3.03176 3.71901
35 1 -1.1104 12.2968 2.53618 3.64821
36 1 -1.1104 12.2064 -0.236498 0.989073
37 2 2.2208 10.6721 -1.62967 2.23697
39 1 -1.1104 12.1339 -0.203335 3.69904
40 1 -1.1104 9.37906 -2.97295 0.814571
41 1 -1.1104 9.51724 2.63467 0.96347
42 2 2.2208 8.06968 1.11343 2.26034
43 1 -1.1104 9.45511 -2.99628 3.74073
44 1 -1.1104 9.51682 2.60998 3.72342
45 2 2.2208 8.09472 -1.63647 5.16261
46 2 2.2208 8.05929 3.8961 5.10915
47 1 -1.1104 9.40488 -0.233338 0.893809
48 1 -1.1104 9.40188 -0.173537 3.68298
38 2 2.2208 10.7172 3.98635 2.25796
206 1 -1.1104 12.1789 2.65608 6.4814
208 1 -1.1104 9.56014 -3.02704 6.64426
205 1 -1.1104 12.2348 -3.07782 6.52756
207 1 -1.1104 12.5018 -0.14154 6.61754
210 1 -1.1104 9.65855 -0.178826 6.60116
373 2 2.2208 10.7996 15.1318 13.5292
352 2 2.2208 5.35423 4.00162 13.5133
363 2 2.2208 8.00411 6.76584 13.5089
54 2 2.2208 5.08811 6.85145 5.26834
55 2 2.2208 5.08681 12.3097 5.2167
56 1 -1.1104 0.766625 8.01128 0.956154
58 1 -1.1104 0.836623 8.03901 3.71848
60 1 -1.1104 0.833699 5.34857 0.930852
61 1 -1.1104 0.974044 10.9242 1.00866
66 2 2.2208 5.14088 9.47541 2.21644
67 1 -1.1104 0.922333 5.46378 3.81953
68 1 -1.1104 0.887206 10.8419 3.63743
71 1 -1.1104 3.7252 8.01149 0.991109
72 2 2.2208 2.35335 6.8051 2.3805
73 2 2.2208 2.34792 12.4384 2.39327
74 1 -1.1104 3.687 8.25473 3.76439
75 2 2.2208 2.23819 9.50193 5.12698
76 1 -1.1104 3.81 5.24307 0.961423
77 1 -1.1104 3.63368 10.9369 1.03885
79 1 -1.1104 3.66853 5.2546 3.49166
80 1 -1.1104 3.89281 10.9576 3.80141
63 1 -1.1104 6.52798 5.26066 0.981616
234 1 -1.1104 0.8312 8.18228 6.48667
70 1 -1.1104 6.54536 11.0301 3.71068
57 1 -1.1104 6.49034 8.08014 1.01667
59 1 -1.1104 6.56114 8.21706 3.71581
238 1 -1.1104 3.66878 8.11503 6.52883
78 1 -1.1104 3.69686 10.8602 6.69149
239 1 -1.1104 3.696 5.30614 6.40652
236 1 -1.1104 0.98315 5.16352 6.55403
62 1 -1.1104 0.991098 10.9952 6.64048
235 1 -1.1104 6.57578 8.0834 6.57213
69 1 -1.1104 6.53233 5.50564 3.8423
64 1 -1.1104 6.47892 10.9137 0.901507
333 2 2.2208 13.6716 15.1987 10.8085
348 2 2.2208 5.19932 -1.64379 13.583
84 2 2.2208 10.7554 6.71785 5.2133
85 2 2.2208 10.6927 12.4238 4.96038
86 1 -1.1104 12.0655 8.29251 0.979474
87 1 -1.1104 12.1866 8.05145 3.77964
88 1 -1.1104 12.0485 5.45215 0.925339
89 1 -1.1104 12.1879 10.9485 1.01188
91 2 2.2208 10.796 9.46529 2.4875
92 1 -1.1104 12.1589 5.38654 3.69046
93 1 -1.1104 12.2475 10.9054 3.638
94 1 -1.1104 9.19848 8.17159 0.863847
95 2 2.2208 7.99692 6.68648 2.32605
96 2 2.2208 7.94157 12.3242 2.25774
97 1 -1.1104 9.33819 8.09483 3.7061
98 2 2.2208 7.81688 9.57501 5.2085
99 1 -1.1104 9.35249 5.35726 0.827873
100 1 -1.1104 9.29593 11.0418 0.893473
102 1 -1.1104 9.37294 5.41415 3.74995
103 1 -1.1104 9.33349 10.9759 3.61437
90 1 -1.1104 11.928 11.0738 6.36497
269 1 -1.1104 9.45398 5.35763 6.56308
65 1 -1.1104 6.49156 10.9809 6.55798
101 1 -1.1104 9.2735 10.8576 6.50024
265 1 -1.1104 12.1349 8.28095 6.57444
267 1 -1.1104 9.40542 8.08237 6.74361
237 1 -1.1104 6.608 5.27951 6.47614
345 2 2.2208 13.5078 20.7641 10.8974
266 1 -1.1104 12.1206 5.41678 6.58001
104 2 2.2208 13.5802 12.3894 2.21045
354 2 2.2208 13.6602 -4.45025 13.7029
106 2 2.2208 5.14253 17.9244 5.23623
107 1 -1.1104 0.965086 13.8043 1.00748
109 1 -1.1104 0.857932 19.3837 1.01555
113 1 -1.1104 0.937167 13.6989 3.88515
114 1 -1.1104 1.01217 19.204 3.80278
116 1 -1.1104 0.959692 16.5402 0.981765
119 2 2.2208 5.06201 15.1609 2.32338
120 2 2.2208 5.04843 20.684 2.4966
121 1 -1.1104 0.94838 16.523 3.83803
123 1 -1.1104 3.83549 13.5969 0.924887
125 1 -1.1104 3.69626 19.3204 1.01191
127 2 2.2208 2.2515 17.8503 2.49794
128 1 -1.1104 3.82307 13.7396 3.84434
129 1 -1.1104 3.73087 19.24 3.86598
130 2 2.2208 2.31719 15.0137 5.29673
131 2 2.2208 2.35645 20.721 5.26409
132 1 -1.1104 3.69355 16.6003 0.930346
134 1 -1.1104 3.71644 16.4635 3.76684
117 1 -1.1104 0.882968 16.5606 6.73536
126 1 -1.1104 3.77259 19.3716 6.68597
115 1 -1.1104 6.52896 13.7189 3.66104
122 1 -1.1104 6.52028 16.5885 3.7577
138 1 -1.1104 6.41234 19.4033 0.925049
118 1 -1.1104 6.58078 16.5064 6.64444
327 1 -1.1104 12.1 19.4252 9.53663
328 1 -1.1104 12.0652 13.7141 9.22967
124 1 -1.1104 3.77336 13.6905 6.71862
149 1 -1.1104 12.0152 16.5546 6.38717
110 1 -1.1104 6.47299 13.7642 0.944936
156 1 -1.1104 9.26216 19.2834 6.54438
163 1 -1.1104 9.34956 16.5495 6.54332
139 1 -1.1104 6.5276 19.4352 3.7546
140 1 -1.1104 6.50169 16.5828 0.992411
141 2 2.2208 10.686 17.9749 4.97151
142 1 -1.1104 12.0138 14.0221 0.749216
144 1 -1.1104 12.0978 19.4178 0.832373
146 1 -1.1104 12.2898 13.7663 3.58642
147 1 -1.1104 11.9414 19.5429 3.59366
148 1 -1.1104 12.2335 16.8035 0.796813
150 2 2.2208 10.6806 15.3002 2.20583
151 2 2.2208 10.6637 20.8524 2.19055
152 1 -1.1104 12.1505 16.5886 3.55676
153 1 -1.1104 9.27213 13.83 0.949437
155 1 -1.1104 9.27448 19.3647 0.910575
157 2 2.2208 7.82669 18.0603 2.31259
158 1 -1.1104 9.32312 13.7686 3.60232
159 1 -1.1104 9.35344 19.3432 3.61716
160 2 2.2208 7.94576 15.1341 5.08745
161 2 2.2208 7.9224 20.625 5.18858
162 1 -1.1104 9.39941 16.6439 0.996659
164 1 -1.1104 9.27529 16.5202 3.66112
143 1 -1.1104 12.1652 13.6852 6.49575
111 1 -1.1104 6.55335 13.7168 6.62917
145 1 -1.1104 12.1692 19.3626 6.7773
154 1 -1.1104 9.25566 13.6652 6.44741
289 1 -1.1104 6.54332 16.3984 9.54745
325 2 2.2208 10.6983 15.0974 7.88776
112 1 -1.1104 6.5736 19.1502 6.56693
105 2 2.2208 13.5548 6.8615 2.29599
171 1 -1.1104 6.65375 -0.217584 6.44171
370 2 2.2208 13.6159 1.22376 13.5044
365 2 2.2208 7.99029 12.3195 13.7039
175 2 2.2208 5.30157 1.29641 10.744
176 1 -1.1104 1.16442 -2.80173 12.1339
177 1 -1.1104 0.902173 2.47673 12.236
180 1 -1.1104 0.977612 -3.08518 9.31699
181 1 -1.1104 0.954734 2.53715 9.33607
184 1 -1.1104 1.00668 -0.109621 12.252
186 2 2.2208 5.28306 -1.63713 7.98375
187 2 2.2208 5.24208 3.90894 7.97319
188 1 -1.1104 0.998361 -0.20946 9.41617
190 1 -1.1104 3.95387 -3.01199 12.2283
191 1 -1.1104 3.62924 2.57481 12.1666
192 2 2.2208 2.43308 1.07981 7.9829
193 1 -1.1104 3.79585 -3.06146 9.34541
194 1 -1.1104 3.69808 2.59098 9.26127
195 2 2.2208 2.38373 -1.5746 10.6822
196 2 2.2208 2.3126 4.04784 10.795
197 1 -1.1104 3.88734 -0.185346 12.1694
198 1 -1.1104 3.73234 -0.230931 9.34891
183 1 -1.1104 6.65073 2.69296 9.33878
185 1 -1.1104 6.71267 -0.17571 12.153
52 2 2.2208 11.0267 -4.52471 5.21489
25 2 2.2208 -0.413343 -1.62654 2.43677
353 2 2.2208 8.00118 -4.49229 13.59
319 1 -1.1104 9.489 13.6853 9.23902
209 1 -1.1104 9.38052 2.41641 6.4091
30 2 2.2208 -0.28565 -4.50917 5.06386
189 1 -1.1104 6.6131 -0.236062 9.4151
182 1 -1.1104 6.60194 -2.98842 9.32944
178 1 -1.1104 6.61164 -3.07609 12.1582
362 2 2.2208 13.6327 12.2616 13.5309
179 1 -1.1104 6.72778 2.58264 12.1897
211 2 2.2208 10.8458 1.20094 10.8206
212 1 -1.1104 12.3796 -2.99846 12.2061
213 1 -1.1104 12.1227 2.50326 12.1698
214 1 -1.1104 12.2973 -3.01329 9.33444
215 1 -1.1104 12.2283 2.61112 9.31929
216 1 -1.1104 12.2968 -0.274725 12.1412
217 2 2.2208 10.8632 -1.63108 7.99443
218 2 2.2208 10.7707 3.86172 7.92654
219 1 -1.1104 12.1427 -0.278993 9.38134
220 1 -1.1104 9.45844 -3.05258 12.2983
221 1 -1.1104 9.47255 2.59416 12.0926
222 2 2.2208 8.05019 1.13634 7.94698
223 1 -1.1104 9.47017 -3.06133 9.54454
224 1 -1.1104 9.3247 2.39528 9.25016
225 2 2.2208 8.04722 -1.67353 10.7347
226 2 2.2208 8.18312 3.92952 10.6539
227 1 -1.1104 9.4555 -0.106239 12.0569
228 1 -1.1104 9.34268 -0.299508 9.28471
323 1 -1.1104 12.28 16.5098 9.31506
341 2 2.2208 13.5891 9.51119 10.6556
334 2 2.2208 13.5645 3.95813 5.1241
332 2 2.2208 13.4975 17.9598 8.08121
359 2 2.2208 2.37332 6.75116 13.6915
240 2 2.2208 5.17463 6.78591 10.747
241 2 2.2208 5.10009 12.2603 10.8442
242 1 -1.1104 1.03934 8.01157 11.9175
244 1 -1.1104 1.02811 8.02957 9.18638
246 1 -1.1104 1.04523 5.29589 12.2615
247 1 -1.1104 0.742047 11.0167 12.3813
250 2 2.2208 5.17118 9.44648 8.05827
251 1 -1.1104 0.982922 5.42624 9.37207
252 1 -1.1104 1.01361 10.7749 9.45153
255 1 -1.1104 3.88633 7.99997 12.2438
256 2 2.2208 2.30109 6.67497 7.89569
257 2 2.2208 2.50898 12.2122 8.12916
258 1 -1.1104 3.75858 8.11038 9.32012
259 2 2.2208 2.42848 9.46215 10.8072
260 1 -1.1104 3.80372 5.26269 12.0844
261 1 -1.1104 3.67409 10.8788 12.2538
262 1 -1.1104 3.92107 5.2203 9.36545
263 1 -1.1104 3.90669 10.7992 9.48663
331 2 2.2208 10.7832 17.8491 10.8051
360 2 2.2208 5.13251 9.57689 13.6226
369 2 2.2208 5.12763 20.6634 13.5697
253 1 -1.1104 6.70114 5.29046 9.33736
245 1 -1.1104 6.58442 8.08238 9.2659
243 1 -1.1104 6.55507 8.20133 12.1096
249 1 -1.1104 6.60911 10.9201 12.3917
254 1 -1.1104 6.60652 10.8055 9.47051
248 1 -1.1104 6.68617 5.43113 12.1054
264 1 -1.1104 9.44037 10.8567 9.46184
268 1 -1.1104 9.48604 5.16083 9.2469
270 1 -1.1104 9.30506 10.9727 12.2627
271 1 -1.1104 9.33563 5.49125 12.0442
272 2 2.2208 8.00207 9.68427 10.8485
273 1 -1.1104 9.44699 8.19358 9.50187
274 2 2.2208 7.85775 12.2527 7.95849
275 2 2.2208 8.0489 6.72206 8.01853
276 2 2.2208 10.8627 6.87445 10.8555
277 2 2.2208 10.6975 12.5295 10.7399
278 1 -1.1104 12.3212 8.28165 12.1763
279 1 -1.1104 12.2672 8.29362 9.31817
280 1 -1.1104 12.249 5.43981 12.2361
281 1 -1.1104 12.0645 10.9652 12.0249
282 2 2.2208 10.7087 9.62757 7.95157
283 1 -1.1104 12.1272 5.42777 9.52378
284 1 -1.1104 12.2184 11.0518 9.10061
285 1 -1.1104 9.4256 8.32685 12.1904
232 2 2.2208 10.9033 -4.53848 10.8708
336 2 2.2208 13.4681 20.6945 5.24083
337 2 2.2208 13.473 15.2 5.09367
302 1 -1.1104 1.00323 19.2556 6.63357
133 1 -1.1104 3.67694 16.5263 6.56019
296 1 -1.1104 6.47304 19.2342 12.1584
371 2 2.2208 5.17396 15.0722 13.6033
322 1 -1.1104 9.34817 13.9077 12.2309
288 1 -1.1104 6.60737 19.3185 9.31749
108 1 -1.1104 1.06071 13.7816 6.76884
309 2 2.2208 2.32656 20.697 10.8858
308 1 -1.1104 3.82634 16.3239 12.1267
307 1 -1.1104 0.882825 16.6239 12.2404
305 1 -1.1104 3.90649 13.6397 9.37196
304 1 -1.1104 3.70331 16.5597 9.47427
303 2 2.2208 2.37276 18.0381 8.02363
301 1 -1.1104 3.79321 19.407 9.53067
300 2 2.2208 5.30125 17.769 11.0209
299 1 -1.1104 0.958358 13.7509 12.3274
298 1 -1.1104 0.873703 19.4376 12.3766
295 2 2.2208 5.10284 15.2046 8.04854
294 1 -1.1104 0.996795 13.5404 9.46692
310 2 2.2208 2.38578 15.1613 10.781
293 2 2.2208 5.19612 20.7985 7.97879
292 1 -1.1104 0.890939 16.5466 9.51198
291 1 -1.1104 0.893287 19.3319 9.49769
287 1 -1.1104 3.57982 13.6782 12.2871
286 1 -1.1104 3.68225 18.9958 12.4031
290 1 -1.1104 6.55903 13.6196 9.43
297 1 -1.1104 6.43845 13.7346 12.0011
321 1 -1.1104 9.39292 19.379 12.1191
330 1 -1.1104 12.1637 13.7313 12.1546
318 1 -1.1104 9.34481 19.2119 9.19941
368 2 2.2208 2.21215 17.8881 13.6344
315 1 -1.1104 9.38783 16.5324 12.0811
306 1 -1.1104 6.62581 16.5159 12.248
320 2 2.2208 7.90427 17.8334 7.98663
316 2 2.2208 7.9123 20.7107 10.7411
329 1 -1.1104 12.229 19.3125 12.1891
317 2 2.2208 7.93049 15.1183 10.796
314 1 -1.1104 9.32589 16.4353 9.26972
81 2 2.2208 -0.631229 6.76286 5.13097
355 2 2.2208 7.95938 1.23294 13.589
326 1 -1.1104 12.1999 16.4929 12.1805
324 2 2.2208 10.6121 20.8028 8.01926
200 2 2.2208 -0.421671 -1.69106 7.96018
366 2 2.2208 13.6938 6.8385 13.6379
349 2 2.2208 2.43686 1.18685 13.6038
380 2 2.2208 13.6156 18.0596 13.6983
229 2 2.2208 13.6727 1.17428 8.06597
361 2 2.2208 2.24632 12.3111 13.8424
393 2 2.2208 5.17672 6.66447 -0.483992
385 2 2.2208 5.23122 -4.47777 -0.348861
376 2 2.2208 7.99876 17.8969 13.6296
382 2 2.2208 2.38846 -1.70445 -0.375211
395 2 2.2208 5.05609 12.342 -0.535083
350 2 2.2208 -0.57117 20.8775 13.593
388 2 2.2208 7.86973 -1.64809 -0.53519
346 2 2.2208 -0.433811 -1.71908 13.5987
403 2 2.2208 2.33116 15.1731 -0.544479
406 2 2.2208 5.21917 1.25749 16.5116
407 1 -1.1104 1.01325 -3.03997 17.8384
408 1 -1.1104 1.03776 2.53187 17.8932
411 1 -1.1104 0.960912 -3.12168 15.1421
413 1 -1.1104 1.24242 2.47035 15.0475
419 1 -1.1104 1.0731 -0.236905 17.6683
421 2 2.2208 5.15805 -1.61165 19.2258
422 2 2.2208 5.1621 3.88439 19.2539
423 1 -1.1104 1.00484 -0.274948 14.7355
427 1 -1.1104 3.67423 -3.09761 17.777
428 1 -1.1104 3.90345 2.51954 17.9128
429 2 2.2208 2.44094 1.22554 19.1714
430 1 -1.1104 3.80682 -2.95919 15.0312
432 1 -1.1104 3.93845 2.5905 15.182
434 2 2.2208 2.39571 -1.66376 16.3322
435 2 2.2208 2.37212 3.96787 16.3995
436 1 -1.1104 3.85804 -0.300013 17.6851
437 1 -1.1104 3.76885 -0.31126 15.0437
433 1 -1.1104 3.80993 2.63435 20.7157
418 1 -1.1104 6.65259 2.51791 20.6679
431 1 -1.1104 3.76484 -2.98305 20.937
438 1 -1.1104 4.0107 -0.233139 20.5867
426 1 -1.1104 6.59037 -0.241801 20.6467
417 1 -1.1104 6.56558 2.56437 15.058
415 1 -1.1104 6.75559 -3.05095 15.0998
409 1 -1.1104 6.36362 -2.98024 17.9456
425 1 -1.1104 6.59297 -0.306309 14.9666
416 1 -1.1104 6.7902 -3.13464 20.5958
404 2 2.2208 5.06799 17.965 27.687
439 2 2.2208 -0.448074 -4.46518 16.4265
640 2 2.2208 2.46582 -4.44707 24.8051
410 1 -1.1104 6.63453 2.56419 17.8486
375 2 2.2208 13.6601 20.8795 27.7139
420 1 -1.1104 6.68593 -0.197345 17.8379
449 2 2.2208 10.8314 1.14463 16.312
450 1 -1.1104 12.224 -3.06216 17.7519
451 1 -1.1104 12.1791 2.57598 17.9139
452 1 -1.1104 12.2447 -2.99597 14.9993
454 1 -1.1104 12.1552 2.53939 14.935
456 1 -1.1104 12.3296 -0.220641 17.8971
457 2 2.2208 10.861 -1.68215 19.1922
459 1 -1.1104 12.21 -0.248371 15.0074
461 1 -1.1104 9.37623 -3.10198 18.0128
462 1 -1.1104 9.4157 2.67382 17.7186
463 2 2.2208 8.049 1.17197 19.2931
464 1 -1.1104 9.3674 -3.13204 14.9732
466 1 -1.1104 9.3992 2.77879 14.9521
468 2 2.2208 8.06984 -1.56053 16.4148
469 2 2.2208 7.97577 3.98213 16.4261
470 1 -1.1104 9.56603 -0.287593 17.7987
471 1 -1.1104 9.42187 -0.139335 14.954
458 2 2.2208 10.7944 4.037 19.2695
467 1 -1.1104 9.5153 2.47423 20.5643
578 2 2.2208 13.5854 1.09632 19.1956
472 1 -1.1104 9.38582 -0.277857 20.6534
460 1 -1.1104 12.0702 -0.112237 20.597
394 2 2.2208 2.25271 9.50085 27.7679
482 2 2.2208 5.18097 6.8192 16.2767
483 2 2.2208 5.15371 12.2409 16.4174
484 1 -1.1104 1.07948 8.06197 17.7522
486 1 -1.1104 0.85834 8.18324 14.8426
490 1 -1.1104 0.922068 5.32465 17.8241
491 1 -1.1104 0.961756 10.9376 17.8077
494 2 2.2208 5.18379 9.52703 19.2123
495 1 -1.1104 0.960417 5.37523 14.9648
497 1 -1.1104 0.760032 11.0026 15.0911
503 1 -1.1104 3.76681 8.2103 17.7658
504 2 2.2208 2.30952 6.6441 19.2718
505 2 2.2208 2.32647 12.2756 19.3835
506 1 -1.1104 3.6056 8.11702 15.0188
508 2 2.2208 2.24065 9.50068 16.4212
509 1 -1.1104 3.71617 5.27814 17.7723
510 1 -1.1104 3.72351 10.9271 17.7471
511 1 -1.1104 3.90498 5.32139 14.9147
513 1 -1.1104 3.61781 10.8031 14.97
487 1 -1.1104 0.936159 8.07634 20.6505
496 1 -1.1104 0.928791 5.23886 20.6678
500 1 -1.1104 6.58835 5.57466 20.6793
492 1 -1.1104 6.40996 5.41056 17.8182
499 1 -1.1104 6.71315 5.41602 14.8879
502 1 -1.1104 6.57973 11.0952 20.6959
507 1 -1.1104 3.73567 8.07132 20.6364
514 1 -1.1104 3.72132 10.9226 20.62
475 2 2.2208 8.03167 -4.47327 19.3525
665 1 -1.1104 9.35443 19.2606 23.4512
405 2 2.2208 2.18643 20.6568 27.6864
474 2 2.2208 10.7307 -4.4188 16.4837
488 1 -1.1104 6.56217 8.16262 14.9797
501 1 -1.1104 6.52666 10.9449 14.9452
485 1 -1.1104 6.60006 8.27936 17.6759
493 1 -1.1104 6.50811 11.013 17.8415
518 2 2.2208 10.9078 6.7856 16.464
519 2 2.2208 10.7964 12.4398 16.3968
520 1 -1.1104 12.1792 8.26928 17.925
521 1 -1.1104 12.3003 8.18969 15.1565
523 1 -1.1104 12.3145 5.35737 17.8488
524 1 -1.1104 12.0695 11.109 17.7472
525 2 2.2208 10.7185 9.6189 19.283
526 1 -1.1104 12.2515 5.35758 15.074
528 1 -1.1104 12.2023 11.0196 14.8924
530 1 -1.1104 9.31662 8.18391 17.7319
531 2 2.2208 7.87534 6.85207 19.1844
532 2 2.2208 7.9916 12.3797 19.1806
533 1 -1.1104 9.3456 8.10406 14.9455
535 2 2.2208 7.98174 9.58611 16.3959
536 1 -1.1104 9.38036 5.38942 17.7958
537 1 -1.1104 9.26624 10.9628 17.8694
538 1 -1.1104 9.40122 5.40684 14.9773
540 1 -1.1104 9.35113 10.8646 15.0804
539 1 -1.1104 9.34167 5.42023 20.6011
522 1 -1.1104 11.9827 8.29634 20.693
489 1 -1.1104 6.62773 8.37614 20.5914
529 1 -1.1104 12.1242 11.0143 20.5516
541 1 -1.1104 9.32621 10.8869 20.733
673 1 -1.1104 9.21213 13.9022 26.1816
545 2 2.2208 5.05063 17.8876 16.3926
546 1 -1.1104 0.815152 13.6208 18.0654
547 1 -1.1104 0.760338 19.3372 17.7562
550 1 -1.1104 0.879151 13.7134 15.2241
552 1 -1.1104 0.917656 19.37 14.9636
558 1 -1.1104 0.983317 16.4251 17.9955
560 2 2.2208 5.13056 15.2339 19.1764
561 2 2.2208 5.15458 20.7382 19.2223
562 1 -1.1104 0.958549 16.4768 15.0906
566 1 -1.1104 3.78284 13.7257 17.8494
567 1 -1.1104 3.59625 19.1915 17.9247
568 2 2.2208 2.31645 17.9294 19.355
569 1 -1.1104 3.86556 13.5992 15.0484
571 1 -1.1104 3.66318 19.3844 15.0525
573 2 2.2208 2.39979 15.074 16.5257
574 2 2.2208 2.18579 20.8553 16.4244
575 1 -1.1104 3.64622 16.5789 17.8471
576 1 -1.1104 3.78309 16.4666 14.9343
570 1 -1.1104 3.73375 13.7091 20.6143
548 1 -1.1104 6.63933 13.8414 17.8747
549 1 -1.1104 6.47676 19.3356 17.7809
553 1 -1.1104 0.834712 19.4187 20.6245
559 1 -1.1104 6.52634 16.5568 17.7271
554 1 -1.1104 6.54165 13.781 15.0117
577 1 -1.1104 3.7778 16.5975 20.7554
572 1 -1.1104 3.58252 19.3643 20.6489
551 1 -1.1104 0.863529 13.7123 20.7291
698 1 -1.1104 9.37145 19.4567 26.2576
699 2 2.2208 7.99066 15.2096 21.9569
398 2 2.2208 10.7009 6.87033 27.5926
599 1 -1.1104 9.30371 19.4426 20.7176
641 2 2.2208 10.801 20.6987 24.7891
587 1 -1.1104 12.0819 19.4012 20.4626
604 1 -1.1104 9.22671 16.6265 20.4504
556 1 -1.1104 6.55796 19.1899 14.9256
564 1 -1.1104 6.39993 16.5043 15.0365
581 2 2.2208 10.6279 17.8886 16.2637
582 1 -1.1104 12.1726 13.8782 17.6682
583 1 -1.1104 12.1788 19.305 17.7733
584 1 -1.1104 12.1613 13.8015 15.0266
586 1 -1.1104 12.1733 19.4019 14.9995
588 1 -1.1104 12.0409 16.5533 17.7571
589 2 2.2208 10.6799 15.3395 19.2248
590 2 2.2208 10.6608 20.7454 19.1917
591 1 -1.1104 12.1369 16.6417 14.9057
593 1 -1.1104 9.44036 13.7955 17.7457
594 1 -1.1104 9.25572 19.384 17.7816
595 2 2.2208 7.92089 18.0137 19.1519
596 1 -1.1104 9.31678 13.6177 14.9758
598 1 -1.1104 9.27027 19.283 14.8972
600 2 2.2208 7.86926 15.0739 16.4835
601 2 2.2208 7.94393 20.6789 16.4043
602 1 -1.1104 9.25872 16.6183 17.7757
603 1 -1.1104 9.41891 16.4732 14.9426
592 1 -1.1104 12.1335 16.6571 20.5426
585 1 -1.1104 12.2428 13.8005 20.5689
555 1 -1.1104 6.50782 13.826 20.552
597 1 -1.1104 9.35922 13.7288 20.549
635 1 -1.1104 12.1496 19.2814 26.1036
478 2 2.2208 13.5469 20.8517 16.3984
663 1 -1.1104 12.0357 16.5973 26.0681
424 1 -1.1104 1.23556 -0.280135 20.3984
414 1 -1.1104 0.936931 2.55754 20.581
412 1 -1.1104 1.05798 -3.06993 20.6771
609 2 2.2208 5.23477 1.13815 22.1168
610 1 -1.1104 0.944636 -2.96898 23.3411
611 1 -1.1104 1.06277 2.53389 23.4115
614 1 -1.1104 1.03496 -2.89307 26.2665
615 1 -1.1104 0.839887 2.67836 26.1728
618 1 -1.1104 1.09212 -0.0345057 23.4762
620 2 2.2208 5.07438 -1.61687 24.9603
621 2 2.2208 5.14793 4.0086 24.8563
622 1 -1.1104 0.973101 -0.13631 26.2052
624 1 -1.1104 3.87887 -2.91676 23.6435
625 1 -1.1104 3.8046 2.51005 23.5453
626 2 2.2208 2.44116 1.27949 24.9296
627 1 -1.1104 3.60389 -3.09148 26.2993
628 1 -1.1104 3.88156 2.61897 26.3191
629 2 2.2208 2.53126 -1.66764 22.1491
630 2 2.2208 2.36238 3.94136 22.0051
631 1 -1.1104 3.75216 -0.331382 23.4512
632 1 -1.1104 3.7404 -0.296713 26.3309
612 1 -1.1104 6.68424 -3.01734 23.3418
619 1 -1.1104 6.62108 -0.333978 23.4976
613 1 -1.1104 6.75831 2.59328 23.3362
616 1 -1.1104 6.47673 -2.89068 26.1831
617 1 -1.1104 6.61526 2.83499 26.166
623 1 -1.1104 6.48408 0.0738946 26.2672
383 2 2.2208 2.39036 3.86469 27.6473
606 2 2.2208 13.6144 20.7936 21.9763
517 2 2.2208 13.535 12.5227 19.2166
453 1 -1.1104 12.5139 -2.91695 20.649
465 1 -1.1104 9.6743 -3.11305 20.5654
455 1 -1.1104 12.2757 2.59095 20.5287
672 2 2.2208 13.6087 1.20408 24.6996
389 2 2.2208 7.97845 4.0984 27.5332
480 2 2.2208 13.5396 15.1157 16.2728
392 2 2.2208 13.4835 4.0133 27.6298
645 2 2.2208 10.9342 1.19468 22.0259
646 1 -1.1104 12.4025 -3.03342 23.31
647 1 -1.1104 12.2412 2.50819 23.2584
648 1 -1.1104 12.2199 -3.02476 26.117
649 1 -1.1104 12.2304 2.55531 25.9926
650 1 -1.1104 12.2977 -0.279083 23.3704
651 2 2.2208 10.7667 -1.59745 24.7771
652 2 2.2208 10.9774 4.00612 24.7531
653 1 -1.1104 12.1976 -0.157731 26.2232
654 1 -1.1104 9.54043 -3.075 23.344
655 1 -1.1104 9.45059 2.44848 23.4258
656 2 2.2208 8.04226 1.26795 24.8482
657 1 -1.1104 9.41546 -3.10845 26.2509
658 1 -1.1104 9.4553 2.71791 26.2448
659 2 2.2208 8.05362 -1.62615 21.9671
661 1 -1.1104 9.45551 -0.26784 23.3945
662 1 -1.1104 9.40353 -0.25622 26.1193
660 2 2.2208 8.0032 4.07787 21.9916
479 2 2.2208 13.5194 17.9442 19.1625
441 2 2.2208 2.39882 -4.52236 19.286
664 1 -1.1104 9.43073 13.8696 23.3451
701 1 -1.1104 9.461 16.6118 23.0805
498 1 -1.1104 0.925723 10.8377 20.7718
512 1 -1.1104 3.76491 5.4063 20.6034
674 2 2.2208 5.09191 6.72541 21.9989
675 2 2.2208 5.13367 12.4294 22.0197
676 1 -1.1104 1.0634 8.03153 23.468
678 1 -1.1104 0.952776 8.0792 26.3086
680 1 -1.1104 0.933582 5.15539 23.4398
681 1 -1.1104 1.00599 10.6823 23.6365
684 2 2.2208 5.14308 9.6557 24.9163
685 1 -1.1104 1.01077 5.27892 26.0742
686 1 -1.1104 0.958607 10.8996 26.3241
689 1 -1.1104 3.78226 8.13564 23.3934
690 2 2.2208 2.33118 6.83299 24.7584
691 2 2.2208 2.18142 12.3228 24.8434
692 1 -1.1104 3.73784 8.15379 26.2798
693 2 2.2208 2.31791 9.4975 22.1142
694 1 -1.1104 3.5418 5.50226 23.418
695 1 -1.1104 3.6181 11.106 23.3892
696 1 -1.1104 3.74964 5.35877 26.1078
697 1 -1.1104 3.67619 10.9306 26.3202
679 1 -1.1104 6.60785 8.2886 26.2552
687 1 -1.1104 6.5853 5.42541 26.1971
683 1 -1.1104 6.35726 10.9568 23.5405
688 1 -1.1104 6.6174 11.0501 26.1596
677 1 -1.1104 6.60623 8.16994 23.2774
580 2 2.2208 13.5556 15.2018 21.9472
633 1 -1.1104 12.1859 19.3792 23.3961
682 1 -1.1104 6.53307 5.39632 23.3749
728 2 2.2208 13.5727 6.74382 24.7835
527 1 -1.1104 12.2188 5.45771 20.5577
534 1 -1.1104 9.35282 8.1514 20.5181
443 2 2.2208 -0.343696 -1.60367 19.189
705 1 -1.1104 9.43543 11.078 26.1592
706 1 -1.1104 9.43362 5.50047 26.0942
707 1 -1.1104 9.30334 11.1205 23.3991
708 1 -1.1104 9.32177 5.32501 23.4046
709 2 2.2208 7.89284 9.57784 22.115
710 1 -1.1104 9.34394 8.26934 26.0936
711 2 2.2208 7.89566 12.4786 24.8334
712 2 2.2208 7.93692 6.8426 24.7227
713 2 2.2208 10.7226 6.78072 21.9715
714 2 2.2208 10.7292 12.4725 22.0318
715 1 -1.1104 12.1664 8.13463 23.4473
716 1 -1.1104 12.2036 8.23867 26.2089
717 1 -1.1104 12.2322 5.29747 23.3359
718 1 -1.1104 12.0037 10.9888 23.3306
719 2 2.2208 10.8824 9.61629 24.8557
720 1 -1.1104 12.2692 5.33526 26.1133
721 1 -1.1104 12.3861 11.0696 26.1878
722 1 -1.1104 9.33418 8.23031 23.362
399 2 2.2208 7.88729 9.62585 27.6679
400 2 2.2208 10.7162 12.4449 27.4409
726 2 2.2208 13.5749 12.4493 24.6885
579 2 2.2208 13.5791 4.0371 16.457
700 2 2.2208 7.97141 20.9003 22.0994
542 2 2.2208 13.5752 6.90959 19.3295
747 1 -1.1104 6.46367 16.4801 23.3317
563 1 -1.1104 1.05715 16.6067 20.7808
736 1 -1.1104 6.48193 19.3954 23.4086
732 1 -1.1104 6.43795 16.4783 26.1765
557 1 -1.1104 6.45486 19.3503 20.6461
565 1 -1.1104 6.47249 16.806 20.5202
730 1 -1.1104 6.41297 13.8085 26.1603
746 1 -1.1104 3.59807 13.6789 26.1595
745 1 -1.1104 3.72269 16.4717 26.1548
744 2 2.2208 2.31269 17.9194 24.8678
743 1 -1.1104 3.58669 19.2194 26.2729
750 2 2.2208 2.33008 20.7973 21.9879
749 1 -1.1104 3.74931 16.6546 23.4294
748 1 -1.1104 0.814907 16.6793 23.5095
727 2 2.2208 2.36335 15.1426 22.0588
729 1 -1.1104 3.64932 19.4297 23.4989
731 1 -1.1104 3.68162 13.8341 23.5327
733 1 -1.1104 0.898708 19.2428 26.3239
734 1 -1.1104 0.929916 16.4272 26.2373
735 1 -1.1104 0.820328 13.5647 26.3095
737 2 2.2208 5.08381 20.7572 24.8505
738 2 2.2208 5.10961 15.1452 24.7553
740 1 -1.1104 0.955731 19.4694 23.4652
741 1 -1.1104 0.809646 13.8014 23.4453
742 2 2.2208 5.08295 18.0712 21.9398
670 1 -1.1104 6.44412 19.2534 26.3294
543 2 2.2208 13.4661 9.81252 16.4517
605 2 2.2208 13.5346 17.8843 24.798
704 1 -1.1104 9.2567 16.6518 26.0535
667 2 2.2208 7.78365 17.9137 24.6705
739 1 -1.1104 6.52425 13.7046 23.4365
636 1 -1.1104 12.0601 16.692 23.1674
638 2 2.2208 10.7226 15.1997 24.6425
608 1 -1.1104 12.1473 13.7305 23.5195
402 2 2.2208 13.5637 9.63672 27.6835
634 1 -1.1104 12.1014 13.8747 26.0948
607 2 2.2208 10.817 18.0376 21.9684
671 2 2.2208 13.8248 -1.67198 22.0038
387 2 2.2208 10.8729 1.21998 27.4959
378 2 2.2208 10.7732 17.9362 27.5576
381 2 2.2208 5.20833 1.26322 27.6811
356 2 2.2208 10.8222 -1.6064 13.4584
372 2 2.2208 10.786 20.8438 13.4604
364 2 2.2208 10.7757 9.63301 13.5581
391 2 2.2208 13.616 -1.57783 27.6006
377 2 2.2208 7.72923 15.1699 27.6381
379 2 2.2208 7.88284 20.7852 27.6051
751 2 2.2208 5.23578 23.6902 5.09722
752 2 2.2208 5.07951 29.3177 5.06791
753 1 -1.1104 0.938435 24.9089 1.07792
754 1 -1.1104 0.865626 24.8697 4.01588
755 1 -1.1104 0.940563 22.2404 0.855736
756 1 -1.1104 0.860448 27.7077 0.944002
757 2 2.2208 5.12736 26.4393 2.35144
758 1 -1.1104 0.878933 22.1487 3.91943
759 1 -1.1104 1.03502 27.8715 3.82402
760 1 -1.1104 3.77615 24.9727 0.976788
761 2 2.2208 2.34488 23.4495 2.40263
762 2 2.2208 2.29438 29.178 2.26545
763 1 -1.1104 3.61834 25.0331 3.6653
764 2 2.2208 2.25842 26.3891 5.2479
765 1 -1.1104 3.60133 22.118 1.03048
766 1 -1.1104 3.63412 27.8365 0.892416
767 1 -1.1104 3.81907 22.1559 3.85125
768 1 -1.1104 3.65822 27.8016 3.96946
776 1 -1.1104 6.57965 22.2763 3.97801
892 1 -1.1104 0.976768 24.9697 6.61068
772 1 -1.1104 6.53581 24.9629 1.08115
777 1 -1.1104 6.51304 27.8985 3.58781
775 1 -1.1104 6.40934 27.7891 0.872978
894 1 -1.1104 0.778306 22.0521 6.71228
900 1 -1.1104 3.7034 27.9148 6.63662
898 1 -1.1104 3.86366 25.0706 6.47726
1085 1 -1.1104 12.2562 47.3321 6.60042
1065 2 2.2208 10.7408 40.3538 10.6865
1076 2 2.2208 13.6171 34.7246 8.04067
1694 1 -1.1104 3.71398 47.5088 9.39653
773 1 -1.1104 6.5806 25.0497 3.73071
774 1 -1.1104 6.51413 22.0745 1.17903
778 2 2.2208 10.8535 23.5212 5.23033
779 2 2.2208 10.7454 29.2024 5.12531
780 1 -1.1104 12.2149 24.8729 0.990517
781 1 -1.1104 12.1709 25.0926 3.71644
782 1 -1.1104 12.1637 22.2144 0.962708
783 1 -1.1104 12.188 27.7717 1.05285
784 2 2.2208 10.7829 26.3261 2.43891
785 1 -1.1104 12.1092 22.3112 3.72336
786 1 -1.1104 12.2701 27.7741 3.86443
787 1 -1.1104 9.42788 24.8823 1.05387
788 2 2.2208 7.96823 23.5587 2.34571
789 2 2.2208 7.88901 29.1077 2.21244
790 1 -1.1104 9.46301 24.911 3.73451
791 2 2.2208 7.96583 26.3139 5.05539
792 1 -1.1104 9.42055 22.146 0.857316
793 1 -1.1104 9.42327 27.7472 0.979838
794 1 -1.1104 9.204 21.9855 3.61428
795 1 -1.1104 9.38208 27.6134 3.73579
929 1 -1.1104 9.24656 22.1447 6.61279
897 1 -1.1104 6.49065 27.7591 6.59822
926 1 -1.1104 12.0372 22.146 6.65141
893 1 -1.1104 6.7296 24.9462 6.54033
925 1 -1.1104 12.1949 24.8876 6.57302
896 1 -1.1104 6.6265 21.9962 6.54318
927 1 -1.1104 12.1521 27.8588 6.56432
797 2 2.2208 13.5815 29.225 2.34307
1680 1 -1.1104 1.03477 47.4025 9.40929
1086 1 -1.1104 9.25055 47.2538 6.57317
799 2 2.2208 5.1747 34.8295 5.08006
800 1 -1.1104 0.95829 30.6725 1.10835
801 1 -1.1104 0.923939 36.2831 0.789828
803 1 -1.1104 0.80819 30.6134 3.70056
804 1 -1.1104 0.835648 36.0435 3.70775
806 1 -1.1104 1.04062 33.4872 0.70678
807 2 2.2208 5.12266 31.9896 2.2487
808 2 2.2208 5.2518 37.6071 2.17586
809 1 -1.1104 0.975513 33.3853 3.68643
811 1 -1.1104 3.71729 30.5275 0.82868
812 1 -1.1104 3.82734 36.0895 0.804047
813 2 2.2208 2.3434 34.7698 2.22054
814 1 -1.1104 3.56035 30.5436 3.62647
815 1 -1.1104 3.69376 36.3104 3.6403
816 2 2.2208 2.25876 31.9932 5.07234
817 2 2.2208 2.32055 37.6008 5.07344
818 1 -1.1104 3.82854 33.2363 0.921766
819 1 -1.1104 3.81151 33.5465 3.65485
956 1 -1.1104 3.81334 36.2389 6.44406
955 1 -1.1104 3.67686 30.6049 6.4902
957 1 -1.1104 3.74689 33.3425 6.5122
825 1 -1.1104 6.64427 33.3515 0.901065
952 1 -1.1104 6.52913 36.1909 6.35013
954 1 -1.1104 6.57616 33.277 6.48201
1482 1 -1.1104 0.936995 47.3985 3.758
949 1 -1.1104 0.999722 30.5643 6.63669
953 1 -1.1104 0.900574 33.3464 6.45911
10305 2 2.2208 13.5411 43.2209 5.17084
810 1 -1.1104 6.65236 33.3578 3.57857
823 1 -1.1104 6.53437 30.6641 0.693534
824 1 -1.1104 6.31896 30.6281 3.70968
802 1 -1.1104 6.56019 36.0659 0.756321
805 1 -1.1104 6.56398 36.1097 3.50106
826 2 2.2208 10.7045 34.7245 5.08105
827 1 -1.1104 12.1385 30.5717 0.905944
828 1 -1.1104 12.1028 36.2997 0.997029
829 1 -1.1104 12.3545 30.4289 3.84998
830 1 -1.1104 12.1263 36.0883 3.73048
831 1 -1.1104 12.3594 33.5144 0.812652
832 2 2.2208 10.7608 31.957 2.28855
833 2 2.2208 10.7198 37.5317 2.32809
834 1 -1.1104 12.1435 33.3111 3.70887
835 1 -1.1104 9.34204 30.6238 1.0726
836 1 -1.1104 9.34448 36.267 0.838693
837 2 2.2208 7.96992 34.7246 2.2964
838 1 -1.1104 9.33817 30.3402 3.6847
839 1 -1.1104 9.38007 36.0917 3.62678
840 2 2.2208 7.89251 31.8313 5.1647
841 2 2.2208 8.06095 37.4406 5.07634