ITEM: TIMESTEP
60000
ITEM: NUMBER OF ATOMS
17732
ITEM: BOX BOUNDS pp pp pp
-3.6897380663630464e-01 2.7708973806636756e+01
-4.3813183078096092e+00 3.3246131830781314e+02
-3.7015952217461007e-01 2.7710159522174624e+01
ITEM: ATOMS id type q x y z
1 2 2.2208 5.3617 1.13651 5.26523
2 1 -1.1104 0.97126 -2.89411 1.06372
3 1 -1.1104 1.13304 2.48894 1.03167
6 1 -1.1104 1.0532 -3.05022 3.80227
7 1 -1.1104 0.967772 2.82281 3.85822
10 1 -1.1104 1.16711 -0.208483 0.996079
12 2 2.2208 5.31781 -1.54758 2.52597
13 2 2.2208 5.28322 4.0576 2.58536
14 1 -1.1104 1.03527 -0.339988 3.94264
16 1 -1.1104 3.80276 -3.03528 0.942596
17 1 -1.1104 3.93688 2.63739 1.02233
18 2 2.2208 2.48137 1.15843 2.36591
19 1 -1.1104 3.90346 -2.98447 3.79643
20 1 -1.1104 3.86245 2.44254 3.91491
21 2 2.2208 2.55962 -1.62191 5.23402
22 2 2.2208 2.6248 4.02758 5.20632
23 1 -1.1104 4.04302 -0.236482 0.999941
24 1 -1.1104 3.72923 -0.179872 3.81364
27 2 2.2208 -0.414769 4.11126 2.41669
202 2 2.2208 2.59428 -4.41133 8.07741
26 2 2.2208 -0.278357 1.18701 5.16645
388 2 2.2208 8.09342 -1.52462 -0.377744
231 2 2.2208 8.2474 -4.45864 8.07798
30 2 2.2208 -0.389989 -4.25794 5.28274
316 2 2.2208 8.20832 20.7689 10.8302
319 1 -1.1104 9.81476 13.8929 9.60035
172 1 -1.1104 4.11423 -3.0346 6.59987
173 1 -1.1104 3.97928 2.56733 6.77332
29 2 2.2208 5.34775 -4.33909 5.29159
15 1 -1.1104 6.67269 -0.134646 3.8835
9 1 -1.1104 6.64625 2.6247 3.95772
4 1 -1.1104 6.61326 -2.92019 1.16105
5 1 -1.1104 6.68195 2.54093 1.08789
8 1 -1.1104 6.75975 -3.00842 3.98567
11 1 -1.1104 6.82605 -0.142351 0.889128
31 2 2.2208 10.9262 1.26922 5.27838
32 1 -1.1104 12.45 -2.95558 1.10062
33 1 -1.1104 12.3728 2.90605 0.999414
34 1 -1.1104 12.3167 -2.95008 3.83792
35 1 -1.1104 12.2366 2.51859 3.93269
36 1 -1.1104 12.2635 -0.0507717 1.0678
37 2 2.2208 10.9441 -1.66671 2.46807
38 2 2.2208 10.8749 4.07734 2.49946
39 1 -1.1104 12.2532 -0.0884558 4.05578
40 1 -1.1104 9.42832 -3.0377 1.01126
41 1 -1.1104 9.59283 2.68206 1.10648
42 2 2.2208 8.10852 1.2631 2.47123
43 1 -1.1104 9.56615 -3.0337 3.87348
44 1 -1.1104 9.43807 2.61083 3.8387
45 2 2.2208 8.14005 -1.66721 5.33297
46 2 2.2208 8.13738 4.0322 5.3389
47 1 -1.1104 9.4842 -0.154158 1.04418
48 1 -1.1104 9.3372 -0.307091 3.92862
373 2 2.2208 11.0963 15.3278 13.7132
335 2 2.2208 13.7382 9.65102 5.26574
320 2 2.2208 8.28168 18.1916 7.96332
169 1 -1.1104 6.65651 2.62078 6.67505
209 1 -1.1104 9.40038 2.73651 6.6215
210 1 -1.1104 9.55064 -0.245687 6.58661
330 1 -1.1104 12.5682 13.9034 12.1893
136 2 2.2208 -0.208696 20.8167 2.40764
135 2 2.2208 -0.127387 15.1588 2.4754
49 2 2.2208 13.5291 1.28751 2.50932
83 2 2.2208 -0.167372 12.4149 5.30273
54 2 2.2208 5.39944 6.83117 5.22765
55 2 2.2208 5.50738 12.4732 5.21168
56 1 -1.1104 1.05523 8.25663 0.964067
58 1 -1.1104 1.26857 8.27717 3.82433
60 1 -1.1104 0.91403 5.42707 0.878637
61 1 -1.1104 1.34768 10.9246 1.0766
66 2 2.2208 5.24569 9.61273 2.45634
67 1 -1.1104 0.899462 5.53196 3.70352
68 1 -1.1104 1.31361 11.0888 3.95396
71 1 -1.1104 3.87372 8.35821 1.12711
72 2 2.2208 2.40876 6.97677 2.42957
73 2 2.2208 2.6185 12.4089 2.50636
74 1 -1.1104 3.91919 8.21538 3.9949
75 2 2.2208 2.6713 9.82487 5.28977
76 1 -1.1104 3.81347 5.42403 1.03331
77 1 -1.1104 4.10841 11.0277 1.05464
79 1 -1.1104 4.01677 5.58198 3.7302
80 1 -1.1104 4.14138 11.0235 3.88719
82 2 2.2208 -0.175218 9.57966 2.53628
344 2 2.2208 -0.275437 6.85819 10.7431
81 2 2.2208 -0.226022 6.97763 5.30557
63 1 -1.1104 6.59412 5.49255 1.04188
385 2 2.2208 5.29278 -4.19559 -0.271571
52 2 2.2208 10.9994 -4.33711 5.30035
57 1 -1.1104 6.75537 8.28869 0.921004
69 1 -1.1104 6.82287 5.33739 3.86086
59 1 -1.1104 6.61101 8.19218 3.81917
64 1 -1.1104 6.81937 11.14 1.02717
70 1 -1.1104 6.91417 11.0893 3.76394
84 2 2.2208 10.9828 6.90457 5.26234
85 2 2.2208 11.0297 12.4438 5.23813
86 1 -1.1104 12.4759 8.31071 1.1779
87 1 -1.1104 12.3962 8.35033 3.97698
88 1 -1.1104 12.2855 5.55767 1.10036
89 1 -1.1104 12.3771 11.1203 0.986637
91 2 2.2208 10.9355 9.82177 2.33832
92 1 -1.1104 12.1684 5.41275 3.9205
93 1 -1.1104 12.2787 11.0611 3.69326
94 1 -1.1104 9.47844 8.38845 0.960254
95 2 2.2208 8.14801 6.91521 2.38765
96 2 2.2208 8.12895 12.4883 2.33016
97 1 -1.1104 9.48175 8.4264 3.6252
98 2 2.2208 8.17459 9.65019 5.222
99 1 -1.1104 9.40588 5.64375 0.97234
100 1 -1.1104 9.60396 11.2463 0.908569
102 1 -1.1104 9.62647 5.52447 3.79256
103 1 -1.1104 9.60944 11.2165 3.80796
28 2 2.2208 2.45496 -4.52025 2.41471
312 2 2.2208 -0.184459 18.0114 10.8183
265 1 -1.1104 12.2939 8.30662 6.57917
65 1 -1.1104 6.78772 11.0738 6.65508
90 1 -1.1104 12.3885 11.1257 6.62319
101 1 -1.1104 9.62624 11.0488 6.66547
237 1 -1.1104 6.86306 5.53116 6.77209
313 2 2.2208 -0.190879 15.236 8.07799
358 2 2.2208 -0.120069 9.62821 13.5811
106 2 2.2208 5.57134 18.0664 5.2213
107 1 -1.1104 1.2358 13.6614 1.25214
109 1 -1.1104 1.14097 19.4368 1.06386
113 1 -1.1104 1.21462 13.792 3.85023
114 1 -1.1104 1.06879 19.4944 3.92487
116 1 -1.1104 1.30545 16.6332 1.10645
119 2 2.2208 5.5793 15.2547 2.44831
120 2 2.2208 5.40555 20.8852 2.43129
121 1 -1.1104 1.22589 16.6162 3.84736
123 1 -1.1104 4.06029 13.963 1.14044
125 1 -1.1104 4.03583 19.6178 0.908344
127 2 2.2208 2.67981 18.1177 2.5199
128 1 -1.1104 3.98771 13.732 3.904
129 1 -1.1104 4.12127 19.5984 3.81793
130 2 2.2208 2.67886 15.3024 5.23774
131 2 2.2208 2.72859 20.8941 5.26898
132 1 -1.1104 4.04341 16.9027 0.977265
134 1 -1.1104 4.05942 16.7927 3.82941
369 2 2.2208 5.2884 20.8541 13.6615
387 2 2.2208 10.9471 1.35108 -0.374285
108 1 -1.1104 1.23725 13.8808 6.65349
288 1 -1.1104 6.90967 19.4395 9.30609
328 1 -1.1104 12.5552 13.7019 9.53368
321 1 -1.1104 9.68846 19.4363 12.2989
139 1 -1.1104 6.96412 19.3948 3.73673
110 1 -1.1104 6.73206 13.9412 0.878371
115 1 -1.1104 6.86384 13.9278 3.77363
122 1 -1.1104 6.9052 16.6313 3.8921
140 1 -1.1104 6.92632 16.7997 0.98876
138 1 -1.1104 6.89217 19.6179 1.03354
141 2 2.2208 11.1325 18.1606 5.13783
142 1 -1.1104 12.5304 13.7346 1.03271
144 1 -1.1104 12.5175 19.3798 0.914326
146 1 -1.1104 12.3412 13.8116 3.82
147 1 -1.1104 12.4204 19.6237 3.71524
148 1 -1.1104 12.3804 16.6041 0.876159
150 2 2.2208 10.9285 15.2502 2.41638
151 2 2.2208 11.1315 20.9518 2.46352
152 1 -1.1104 12.4254 16.5796 3.82962
153 1 -1.1104 9.70807 13.9993 0.734468
155 1 -1.1104 9.71268 19.5023 0.955087
157 2 2.2208 8.28473 18.1327 2.44041
158 1 -1.1104 9.5013 13.965 3.78987
159 1 -1.1104 9.6353 19.5647 3.74931
160 2 2.2208 8.31816 15.359 5.24746
161 2 2.2208 8.17121 20.9223 5.17728
162 1 -1.1104 9.67883 16.7754 1.04051
164 1 -1.1104 9.69662 16.7918 3.75437
323 1 -1.1104 12.6571 16.5881 9.36019
111 1 -1.1104 7.03554 13.7643 6.70407
118 1 -1.1104 6.7838 16.4835 6.66574
167 1 -1.1104 1.19155 2.7872 6.62866
200 2 2.2208 -0.370744 -1.54905 8.12664
166 1 -1.1104 1.16152 -2.89341 6.72977
201 2 2.2208 -0.222439 1.26929 10.8232
174 1 -1.1104 3.87201 -0.27283 6.57918
199 2 2.2208 -0.144246 4.05211 8.00684
170 1 -1.1104 1.01136 -0.0367398 6.67039
175 2 2.2208 5.43011 1.32043 10.9584
176 1 -1.1104 1.32257 -2.87203 12.3386
177 1 -1.1104 1.21728 2.5831 12.1356
180 1 -1.1104 1.31659 -2.78107 9.53354
181 1 -1.1104 1.08283 2.72959 9.41526
184 1 -1.1104 1.34501 -0.206191 12.2687
186 2 2.2208 5.43672 -1.51777 8.132
187 2 2.2208 5.34412 4.08618 8.05608
188 1 -1.1104 1.07265 -0.087364 9.41296
190 1 -1.1104 4.08204 -2.97814 12.1498
191 1 -1.1104 4.02714 2.60627 12.2499
192 2 2.2208 2.50368 1.25596 7.96452
193 1 -1.1104 4.11992 -2.85389 9.48543
194 1 -1.1104 3.91627 2.57936 9.63425
195 2 2.2208 2.64875 -1.52378 10.7974
196 2 2.2208 2.50211 4.13846 10.7515
197 1 -1.1104 3.99461 -0.1237 12.3802
198 1 -1.1104 3.91468 -0.0891333 9.45317
171 1 -1.1104 6.78972 -0.252554 6.68507
290 1 -1.1104 6.73572 13.8087 9.46561
296 1 -1.1104 6.87443 19.402 12.224
206 1 -1.1104 12.3977 2.60744 6.53662
207 1 -1.1104 12.4493 -0.12728 6.85839
205 1 -1.1104 12.5044 -2.93069 6.63965
182 1 -1.1104 6.86342 -3.04713 9.5508
179 1 -1.1104 6.89932 2.57312 12.3563
189 1 -1.1104 6.72399 -0.137316 9.5562
183 1 -1.1104 6.7625 2.65807 9.46936
168 1 -1.1104 6.79567 -2.91129 6.73586
178 1 -1.1104 6.81124 -3.08295 12.3152
185 1 -1.1104 6.83982 -0.310961 12.2315
208 1 -1.1104 9.63209 -3.02141 6.82573
211 2 2.2208 11.062 1.25487 10.9382
212 1 -1.1104 12.3493 -3.04998 12.4691
213 1 -1.1104 12.3823 2.68102 12.2886
214 1 -1.1104 12.4792 -2.70632 9.44423
215 1 -1.1104 12.3795 2.67068 9.47942
216 1 -1.1104 12.4187 -0.216805 12.316
217 2 2.2208 10.9849 -1.57738 8.07139
218 2 2.2208 10.8869 4.02092 8.05818
219 1 -1.1104 12.3632 -0.124531 9.6124
220 1 -1.1104 9.61072 -3.16547 12.3941
221 1 -1.1104 9.67034 2.64636 12.1962
222 2 2.2208 8.14099 1.25696 8.12442
223 1 -1.1104 9.54636 -2.894 9.51624
224 1 -1.1104 9.63156 2.60696 9.42994
225 2 2.2208 8.19116 -1.69828 10.9473
226 2 2.2208 8.23146 4.12223 10.8184
227 1 -1.1104 9.6933 -0.206225 12.3034
228 1 -1.1104 9.49041 -0.150643 9.47395
318 1 -1.1104 9.76465 19.5201 9.47072
324 2 2.2208 11.1064 20.9419 8.09427
78 1 -1.1104 3.99661 11.1378 6.6507
236 1 -1.1104 1.23556 5.46018 6.58818
343 2 2.2208 -0.26477 9.74465 8.03315
234 1 -1.1104 1.16274 8.30366 6.73613
62 1 -1.1104 1.2395 11.087 6.66623
238 1 -1.1104 3.97175 8.17093 6.80355
342 2 2.2208 -0.182406 12.4598 10.9389
239 1 -1.1104 4.01393 5.343 6.41658
240 2 2.2208 5.38348 6.88481 10.8673
241 2 2.2208 5.3934 12.4153 10.823
242 1 -1.1104 1.36727 8.13793 12.0665
244 1 -1.1104 1.22481 8.25189 9.48722
246 1 -1.1104 1.0567 5.41956 12.1368
247 1 -1.1104 1.15854 11.1567 12.3672
250 2 2.2208 5.38871 9.62331 8.00405
251 1 -1.1104 1.20208 5.51551 9.38048
252 1 -1.1104 1.21462 11.0228 9.5577
255 1 -1.1104 4.09475 8.27395 12.3475
256 2 2.2208 2.64595 6.89974 8.09103
257 2 2.2208 2.75154 12.5151 8.00685
258 1 -1.1104 4.02834 8.33412 9.61434
259 2 2.2208 2.52163 9.68689 10.8385
260 1 -1.1104 3.9169 5.55498 12.1934
261 1 -1.1104 3.9039 11.0145 12.2032
262 1 -1.1104 4.00598 5.50357 9.36066
263 1 -1.1104 3.97011 11.0987 9.37015
204 2 2.2208 -0.22794 -4.08502 10.9509
149 1 -1.1104 12.3917 16.8378 6.61143
266 1 -1.1104 12.4716 5.60864 6.66387
253 1 -1.1104 6.83345 5.41307 9.53244
269 1 -1.1104 9.52511 5.48685 6.70067
235 1 -1.1104 6.83053 8.22942 6.58411
248 1 -1.1104 6.83799 5.46259 12.217
243 1 -1.1104 6.78868 8.29737 12.2735
249 1 -1.1104 6.72879 10.9626 12.1438
245 1 -1.1104 6.7258 8.2571 9.40442
254 1 -1.1104 6.97711 10.9801 9.38806
267 1 -1.1104 9.55006 8.33985 6.58852
264 1 -1.1104 9.6333 10.9583 9.5604
268 1 -1.1104 9.74261 5.46053 9.55337
270 1 -1.1104 9.62417 11.0697 12.3986
271 1 -1.1104 9.6445 5.43498 12.4638
272 2 2.2208 8.31335 9.63832 10.9295
273 1 -1.1104 9.76041 8.20515 9.49257
274 2 2.2208 8.32327 12.3657 8.09345
275 2 2.2208 8.22997 7.01119 8.13789
276 2 2.2208 11.0901 6.85118 10.8594
277 2 2.2208 11.1081 12.5188 11.0511
278 1 -1.1104 12.4451 8.21912 12.2975
279 1 -1.1104 12.5716 8.2617 9.39291
280 1 -1.1104 12.3387 5.36976 12.2447
281 1 -1.1104 12.5442 11.1993 12.2951
282 2 2.2208 11.1164 9.7183 8.00323
283 1 -1.1104 12.3547 5.45774 9.44788
284 1 -1.1104 12.3618 10.9783 9.43552
285 1 -1.1104 9.66103 8.34729 12.3075
326 1 -1.1104 12.5749 16.7146 12.3258
368 2 2.2208 2.55019 18.0225 13.689
311 2 2.2208 -0.0962703 20.7611 7.93301
137 2 2.2208 -0.239598 18.0563 5.25468
133 1 -1.1104 3.95288 16.6988 6.58272
302 1 -1.1104 1.46539 19.4142 6.56365
124 1 -1.1104 4.25028 13.9474 6.58729
126 1 -1.1104 4.2808 19.4478 6.5775
117 1 -1.1104 1.1742 16.705 6.64266
309 2 2.2208 2.61199 20.86 10.8637
308 1 -1.1104 4.02821 16.7292 12.3877
307 1 -1.1104 1.07587 16.6911 12.1704
305 1 -1.1104 3.90162 13.8134 9.40965
304 1 -1.1104 3.94088 16.6736 9.43446
303 2 2.2208 2.62675 18.1081 7.98178
301 1 -1.1104 3.90656 19.4594 9.48041
300 2 2.2208 5.38915 18.0177 10.7859
299 1 -1.1104 1.22725 14.0233 12.2324
298 1 -1.1104 1.26924 19.4355 12.1869
295 2 2.2208 5.42859 15.2199 8.08844
294 1 -1.1104 1.23087 13.6886 9.30522
310 2 2.2208 2.65595 15.3166 10.7583
293 2 2.2208 5.46373 20.9024 7.95416
292 1 -1.1104 1.26511 16.5802 9.45245
291 1 -1.1104 1.19197 19.3554 9.4521
287 1 -1.1104 4.10413 13.8922 12.2546
286 1 -1.1104 4.07684 19.408 12.1914
297 1 -1.1104 6.88696 13.9671 12.1895
163 1 -1.1104 9.63731 16.6553 6.66868
315 1 -1.1104 9.55974 16.6469 12.1948
145 1 -1.1104 12.5253 19.6293 6.65557
314 1 -1.1104 9.81826 16.7644 9.39524
322 1 -1.1104 9.75374 13.9629 12.3479
327 1 -1.1104 12.6238 19.3307 9.37732
317 2 2.2208 8.20785 15.2547 10.896
143 1 -1.1104 12.5121 13.8951 6.62736
329 1 -1.1104 12.6116 19.5303 12.2429
156 1 -1.1104 9.73663 19.5057 6.50005
325 2 2.2208 11.0667 15.2503 8.05364
306 1 -1.1104 6.69391 16.7228 12.1003
331 2 2.2208 11.1058 18.0461 10.7854
289 1 -1.1104 6.91215 16.5398 9.42338
154 1 -1.1104 9.74226 13.8607 6.62126
112 1 -1.1104 6.85884 19.4709 6.61623
390 2 2.2208 10.8741 -4.33585 -0.344452
372 2 2.2208 10.92 21.0082 13.5947
351 2 2.2208 -0.191725 15.2221 13.6084
350 2 2.2208 -0.260438 20.801 13.6668
396 2 2.2208 -0.292663 12.383 -0.284315
352 2 2.2208 5.39919 4.03417 13.5822
360 2 2.2208 5.47601 9.61506 13.6689
371 2 2.2208 5.39184 15.3348 13.7117
382 2 2.2208 2.39106 -1.57238 -0.341149
389 2 2.2208 8.0229 4.11613 -0.349542
398 2 2.2208 10.9184 6.90331 -0.293008
399 2 2.2208 8.07831 9.72871 -0.448959
359 2 2.2208 2.67977 6.88428 13.5847
348 2 2.2208 5.46124 -1.64767 13.5449
349 2 2.2208 2.5824 1.27575 13.6171
376 2 2.2208 8.2755 18.0415 13.5122
346 2 2.2208 -0.153875 -1.4937 13.6082
395 2 2.2208 5.36838 12.4758 -0.336432
406 2 2.2208 5.37326 1.20738 16.4527
407 1 -1.1104 1.1025 -2.91693 17.9676
408 1 -1.1104 1.12296 2.86059 17.8827
411 1 -1.1104 1.05815 -2.92364 15.0631
413 1 -1.1104 0.9619 2.66578 15.0587
419 1 -1.1104 1.10101 -0.0675211 17.8776
421 2 2.2208 5.2074 -1.6358 19.2509
422 2 2.2208 5.3207 4.04604 19.2507
423 1 -1.1104 1.20049 0.0296171 15.0989
427 1 -1.1104 3.82332 -3.13205 17.7594
428 1 -1.1104 3.84524 2.77137 18.013
429 2 2.2208 2.49896 1.34971 19.2172
430 1 -1.1104 3.93891 -2.88705 15.0166
432 1 -1.1104 3.86435 2.82326 15.0283
434 2 2.2208 2.48209 -1.50268 16.3717
435 2 2.2208 2.50523 4.03614 16.4765
436 1 -1.1104 3.89118 -0.150461 17.871
437 1 -1.1104 3.99427 -0.0490517 15.0756
443 2 2.2208 -0.296048 -1.50857 19.242
442 2 2.2208 -0.337551 1.35349 16.4701
544 2 2.2208 -0.2729 4.09609 19.2492
447 2 2.2208 -0.159453 18.0133 16.4286
730 1 -1.1104 6.75747 13.8731 26.1657
476 2 2.2208 -0.213771 20.9006 19.2878
669 2 2.2208 7.98904 -4.25814 24.8196
636 1 -1.1104 12.5448 16.5835 23.4119
473 2 2.2208 13.6973 -4.31557 19.4145
668 2 2.2208 10.8455 -4.24795 22.0471
666 2 2.2208 13.7303 -4.33483 24.8302
440 2 2.2208 5.37289 -4.30824 16.3774
417 1 -1.1104 6.62942 2.62205 15.1175
415 1 -1.1104 6.77578 -3.07721 14.966
425 1 -1.1104 6.80755 -0.298066 15.1037
410 1 -1.1104 6.74432 2.56692 17.9496
409 1 -1.1104 6.62925 -2.99047 17.9497
420 1 -1.1104 6.78143 -0.195305 17.8953
449 2 2.2208 10.978 1.2715 16.6291
450 1 -1.1104 12.2776 -2.93043 18.0026
451 1 -1.1104 12.2887 2.73672 18.0184
452 1 -1.1104 12.3508 -2.87565 15.2682
454 1 -1.1104 12.3724 2.61521 15.1463
456 1 -1.1104 12.5634 -0.173569 17.9917
457 2 2.2208 10.9851 -1.51041 19.2825
459 1 -1.1104 12.3534 -0.0904339 15.1818
461 1 -1.1104 9.52622 -2.7948 17.8025
462 1 -1.1104 9.5343 2.69025 18.0709
463 2 2.2208 8.00289 1.2066 19.355
464 1 -1.1104 9.42331 -2.95639 15.0971
466 1 -1.1104 9.48362 2.68093 15.0031
468 2 2.2208 8.11352 -1.59759 16.4488
469 2 2.2208 8.14249 4.01908 16.5811
470 1 -1.1104 9.5147 -0.0910109 17.925
471 1 -1.1104 9.57472 -0.0235562 15.2346
458 2 2.2208 10.9753 4.14203 19.385
732 1 -1.1104 6.70541 16.7682 26.2214
465 1 -1.1104 9.47509 -2.98087 20.606
455 1 -1.1104 12.4135 2.62975 20.8111
460 1 -1.1104 12.3729 -0.0562205 20.7636
418 1 -1.1104 6.67858 2.63801 20.7135
416 1 -1.1104 6.59567 -2.86389 20.7322
635 1 -1.1104 12.2908 19.5558 26.2943
516 2 2.2208 -0.273398 12.5633 16.5505
481 2 2.2208 -0.330688 6.91154 16.4582
482 2 2.2208 5.24858 6.95841 16.4682
483 2 2.2208 5.3303 12.507 16.4388
484 1 -1.1104 1.13259 8.48779 17.8334
486 1 -1.1104 1.1779 8.26991 14.764
490 1 -1.1104 1.09342 5.55388 18.0789
491 1 -1.1104 1.23223 11.1727 17.9208
494 2 2.2208 5.30654 9.73569 19.3172
495 1 -1.1104 1.12674 5.47504 15.0432
497 1 -1.1104 1.24534 11.1509 15.1283
503 1 -1.1104 3.92409 8.18374 17.7409
504 2 2.2208 2.57804 6.9091 19.3114
505 2 2.2208 2.34083 12.5132 19.3775
506 1 -1.1104 4.11649 8.28509 15.1814
508 2 2.2208 2.60566 9.76181 16.4557
509 1 -1.1104 3.91749 5.53498 17.8485
510 1 -1.1104 3.9344 11.0837 17.9209
511 1 -1.1104 3.837 5.39399 14.9773
513 1 -1.1104 4.06353 11.0195 15.0174
639 2 2.2208 5.35731 -4.46029 22.0705
448 2 2.2208 -0.273299 15.4306 19.3649
512 1 -1.1104 3.9539 5.58686 20.8105
663 1 -1.1104 12.4502 16.747 26.1408
367 2 2.2208 -0.238731 4.11198 13.658
698 1 -1.1104 9.4655 19.4475 26.2078
493 1 -1.1104 6.69598 11.1786 17.9043
499 1 -1.1104 6.81608 5.38437 14.9995
488 1 -1.1104 6.78747 8.27951 15.0203
485 1 -1.1104 6.75314 8.3295 17.8391
501 1 -1.1104 6.79351 11.097 14.9717
492 1 -1.1104 6.70144 5.37746 17.72
518 2 2.2208 10.9819 6.91496 16.4699
519 2 2.2208 11.1173 12.3751 16.5252
520 1 -1.1104 12.2356 8.2921 17.8373
521 1 -1.1104 12.4089 8.33115 15.1119
523 1 -1.1104 12.391 5.41627 18.0087
524 1 -1.1104 12.4091 10.9596 17.8549
525 2 2.2208 11.0905 9.67305 19.3483
526 1 -1.1104 12.4127 5.39362 15.097
528 1 -1.1104 12.3407 11.1071 15.1559
530 1 -1.1104 9.46713 8.30069 17.8042
531 2 2.2208 8.08151 6.72107 19.2523
532 2 2.2208 8.14386 12.3917 19.2366
533 1 -1.1104 9.64019 8.33302 15.0497
535 2 2.2208 8.04524 9.75537 16.4419
536 1 -1.1104 9.60774 5.46746 17.9353
537 1 -1.1104 9.55853 10.9491 17.8988
538 1 -1.1104 9.64203 5.52273 15.2439
540 1 -1.1104 9.64515 11.0656 15.1211
527 1 -1.1104 12.3835 5.46614 20.8733
489 1 -1.1104 6.74374 8.197 20.6472
502 1 -1.1104 6.73296 10.9309 20.8273
529 1 -1.1104 12.3649 10.9934 20.6803
700 2 2.2208 8.20514 20.916 21.9012
607 2 2.2208 11.044 18.0775 22.1082
587 1 -1.1104 12.5011 19.5013 20.9563
545 2 2.2208 5.44454 18.0756 16.4988
546 1 -1.1104 1.10515 13.9668 17.8381
547 1 -1.1104 1.17472 19.4516 17.9793
550 1 -1.1104 1.21702 13.7179 15.1401
552 1 -1.1104 1.18454 19.3567 15.0049
558 1 -1.1104 1.21592 16.7621 17.7827
560 2 2.2208 5.41945 15.3175 19.3048
561 2 2.2208 5.26443 20.8302 19.2265
562 1 -1.1104 1.23236 16.5062 15.0598
566 1 -1.1104 3.94979 13.629 17.8843
567 1 -1.1104 4.00796 19.3472 17.8146
568 2 2.2208 2.54577 18.0055 19.2902
569 1 -1.1104 4.01874 13.9885 15.1368
571 1 -1.1104 3.85154 19.3732 15.025
573 2 2.2208 2.56646 15.2067 16.5745
574 2 2.2208 2.56448 20.8024 16.4094
575 1 -1.1104 4.05627 16.654 17.8311
576 1 -1.1104 3.97464 16.7258 15.1994
599 1 -1.1104 9.65303 19.3909 20.6879
475 2 2.2208 8.10159 -4.31902 19.3768
592 1 -1.1104 12.3286 16.607 20.664
736 1 -1.1104 6.66205 19.5335 23.4976
551 1 -1.1104 1.10231 13.8597 20.8312
557 1 -1.1104 6.9234 19.5173 20.6824
640 2 2.2208 2.49879 -4.31717 24.7549
554 1 -1.1104 6.83898 13.8613 15.0272
556 1 -1.1104 6.73357 19.5743 15.054
564 1 -1.1104 6.79504 16.5947 15.1368
559 1 -1.1104 6.88652 16.6971 17.8838
549 1 -1.1104 6.96303 19.495 17.8602
548 1 -1.1104 6.81433 13.8661 17.7706
581 2 2.2208 10.9995 18.1981 16.5647
582 1 -1.1104 12.3925 13.882 17.827
583 1 -1.1104 12.4331 19.4199 18.1253
584 1 -1.1104 12.4899 13.9081 14.9633
586 1 -1.1104 12.4693 19.338 15.159
588 1 -1.1104 12.4267 16.7051 17.808
589 2 2.2208 10.9798 15.2065 19.2515
590 2 2.2208 11.0299 20.86 19.3872
591 1 -1.1104 12.3446 16.7025 15.0433
593 1 -1.1104 9.56218 13.8058 17.9197
594 1 -1.1104 9.75057 19.5486 17.8217
595 2 2.2208 8.24813 17.9754 19.3126
596 1 -1.1104 9.70985 13.8218 15.163
598 1 -1.1104 9.61767 19.8019 15.0724
600 2 2.2208 8.23576 15.1688 16.3928
601 2 2.2208 8.18624 21.0564 16.4458
602 1 -1.1104 9.64642 16.6905 17.7779
603 1 -1.1104 9.53636 16.6406 15.0251
699 2 2.2208 8.3079 15.3232 22.0464
604 1 -1.1104 9.60466 16.6597 20.7114
585 1 -1.1104 12.4669 13.8032 20.6538
597 1 -1.1104 9.52838 13.912 20.6789
555 1 -1.1104 6.76582 13.7292 20.5558
565 1 -1.1104 6.80632 16.8072 20.6785
638 2 2.2208 11.0363 15.3531 24.8643
747 1 -1.1104 6.84194 16.7483 23.6214
414 1 -1.1104 1.04444 2.63766 20.4969
424 1 -1.1104 1.24037 -0.154022 20.5827
412 1 -1.1104 1.10104 -3.10446 20.7005
642 2 2.2208 -0.286124 -1.73136 24.9803
643 2 2.2208 -0.284069 1.31985 22.1219
644 2 2.2208 -0.347774 4.07145 24.8836
431 1 -1.1104 4.04302 -3.01843 20.5849
433 1 -1.1104 3.81139 2.71096 20.6541
438 1 -1.1104 3.74189 -0.208853 20.582
609 2 2.2208 5.22199 1.21056 22.0417
610 1 -1.1104 1.04788 -3.09051 23.5103
611 1 -1.1104 1.0667 2.63644 23.3925
614 1 -1.1104 1.08561 -2.98741 26.2533
615 1 -1.1104 1.11588 2.57892 26.2972
618 1 -1.1104 1.13057 -0.35398 23.6119
620 2 2.2208 5.22298 -1.45047 24.8363
621 2 2.2208 5.28068 4.1017 24.8918
622 1 -1.1104 1.05051 -0.257619 26.2956
624 1 -1.1104 3.98139 -3.00313 23.45
625 1 -1.1104 3.82695 2.62804 23.4957
626 2 2.2208 2.47242 1.19277 24.8902
627 1 -1.1104 3.8067 -3.02358 26.2506
628 1 -1.1104 3.90614 2.49349 26.3451
629 2 2.2208 2.4404 -1.65178 21.9858
630 2 2.2208 2.51819 4.14261 22.0847
631 1 -1.1104 3.81046 -0.106214 23.3006
632 1 -1.1104 3.79243 -0.308201 26.2477
739 1 -1.1104 6.71341 13.936 23.3439
670 1 -1.1104 6.70313 19.5698 26.2718
667 2 2.2208 8.15057 18.1311 24.7016
467 1 -1.1104 9.41254 2.66139 20.8484
453 1 -1.1104 12.3247 -2.93272 20.7407
472 1 -1.1104 9.48532 -0.309836 20.7198
619 1 -1.1104 6.72727 -0.278009 23.4497
613 1 -1.1104 6.74327 2.46642 23.5619
616 1 -1.1104 6.65895 -2.80639 26.3157
426 1 -1.1104 6.56216 -0.196334 20.6633
612 1 -1.1104 6.65888 -2.96241 23.5315
617 1 -1.1104 6.74303 2.79523 26.3355
623 1 -1.1104 6.59166 0.00233735 26.2379
645 2 2.2208 10.9237 1.25108 22.2291
646 1 -1.1104 12.3074 -2.84386 23.4936
647 1 -1.1104 12.329 2.69318 23.5432
648 1 -1.1104 12.3532 -2.89233 26.3769
649 1 -1.1104 12.3775 2.71986 26.3984
650 1 -1.1104 12.3786 -0.10196 23.5803
651 2 2.2208 10.9771 -1.47061 24.849
652 2 2.2208 10.9165 4.2609 25.0638
653 1 -1.1104 12.2847 0.0034567 26.2799
654 1 -1.1104 9.44085 -2.82913 23.5724
655 1 -1.1104 9.55487 2.83188 23.6625
656 2 2.2208 8.17115 1.32339 24.8822
657 1 -1.1104 9.30186 -2.84882 26.3152
658 1 -1.1104 9.49089 2.69966 26.4025
659 2 2.2208 8.0649 -1.52369 22.1358
661 1 -1.1104 9.56076 -0.0713069 23.4818
662 1 -1.1104 9.52888 -0.0905374 26.3202
660 2 2.2208 8.08801 4.06849 22.128
487 1 -1.1104 1.06018 8.27065 20.5917
702 2 2.2208 -0.326571 9.61127 24.9099
498 1 -1.1104 0.995737 11.0178 20.7549
507 1 -1.1104 3.88483 8.43839 20.667
444 2 2.2208 -0.247161 6.92956 22.0194
496 1 -1.1104 1.19537 5.47974 20.7308
514 1 -1.1104 3.81455 11.185 20.6662
674 2 2.2208 5.39622 6.78891 22.0928
675 2 2.2208 5.3706 12.406 21.9561
676 1 -1.1104 1.24433 8.28869 23.5797
678 1 -1.1104 1.0674 8.26295 26.3195
680 1 -1.1104 1.19543 5.52599 23.5527
681 1 -1.1104 0.996585 11.0964 23.4389
684 2 2.2208 5.45028 9.76744 24.9124
685 1 -1.1104 1.08963 5.3759 26.223
686 1 -1.1104 1.21667 10.9516 26.3675
689 1 -1.1104 4.08897 8.32129 23.5037
690 2 2.2208 2.52902 6.83107 24.8782
691 2 2.2208 2.53055 12.4047 24.9593
692 1 -1.1104 3.93319 8.25712 26.2835
693 2 2.2208 2.50676 9.73257 22.1718
694 1 -1.1104 3.92543 5.39583 23.4608
695 1 -1.1104 4.11056 10.9012 23.4757
696 1 -1.1104 3.89364 5.46325 26.3645
697 1 -1.1104 3.95149 11.0578 26.3402
703 2 2.2208 -0.336247 12.5672 22.1368
534 1 -1.1104 9.57882 8.24045 20.7288
539 1 -1.1104 9.68503 5.55792 20.753
687 1 -1.1104 6.66007 5.45787 26.3898
500 1 -1.1104 6.83954 5.31864 20.6172
522 1 -1.1104 12.4431 8.26379 20.695
679 1 -1.1104 6.69283 8.18301 26.2524
677 1 -1.1104 6.82137 8.20213 23.4126
682 1 -1.1104 6.77365 5.30479 23.5425
688 1 -1.1104 6.8122 11.1781 26.3001
683 1 -1.1104 6.87456 11.0941 23.514
541 1 -1.1104 9.66427 10.9441 20.5277
705 1 -1.1104 9.51843 11.0286 26.1597
706 1 -1.1104 9.38242 5.50478 26.35
707 1 -1.1104 9.55344 11.2702 23.4565
708 1 -1.1104 9.59334 5.59646 23.3993
709 2 2.2208 8.07926 9.62608 22.0956
710 1 -1.1104 9.4534 8.28164 26.3103
711 2 2.2208 8.1536 12.4616 24.7751
712 2 2.2208 8.15956 6.93995 25.0264
713 2 2.2208 10.9485 6.9872 22.1292
714 2 2.2208 10.9845 12.4636 22.0493
715 1 -1.1104 12.4827 8.26933 23.4648
716 1 -1.1104 12.3834 8.32735 26.3224
717 1 -1.1104 12.3668 5.62944 23.7085
718 1 -1.1104 12.3396 11.0681 23.5097
719 2 2.2208 11.0032 9.65874 24.8953
720 1 -1.1104 12.312 5.51406 26.3368
721 1 -1.1104 12.4859 11.0805 26.3257
722 1 -1.1104 9.6087 8.37176 23.5952
633 1 -1.1104 12.4393 19.4459 23.6141
553 1 -1.1104 1.17579 19.4728 20.7374
723 2 2.2208 -0.181774 18.0731 22.192
563 1 -1.1104 1.0656 16.654 20.638
570 1 -1.1104 3.97798 13.8843 20.7562
572 1 -1.1104 4.05751 19.5374 20.5852
724 2 2.2208 -0.291735 20.9787 24.7976
577 1 -1.1104 3.88621 16.6231 20.6919
746 1 -1.1104 3.95594 13.8435 26.3505
745 1 -1.1104 3.94374 16.534 26.217
744 2 2.2208 2.56038 18.0265 24.8889
743 1 -1.1104 3.98297 19.5352 26.1915
750 2 2.2208 2.56627 20.8257 21.9899
749 1 -1.1104 4.03038 16.5994 23.3805
748 1 -1.1104 1.20683 16.6944 23.382
727 2 2.2208 2.52144 15.1385 22.158
729 1 -1.1104 3.7038 19.5032 23.4508
731 1 -1.1104 3.84436 13.7799 23.4966
733 1 -1.1104 1.20721 19.3506 26.3669
734 1 -1.1104 1.19478 16.5118 26.1961
735 1 -1.1104 1.14776 13.6726 26.6387
737 2 2.2208 5.22974 20.9004 24.8847
738 2 2.2208 5.32412 15.2625 24.9906
740 1 -1.1104 1.19629 19.4892 23.5673
741 1 -1.1104 1.1597 13.8227 23.7215
742 2 2.2208 5.40873 18.0969 22.153
474 2 2.2208 10.9348 -4.35296 16.5648
641 2 2.2208 11.0289 20.8593 24.7777
701 1 -1.1104 9.67732 16.5913 23.3329
673 1 -1.1104 9.58899 14.003 26.221
634 1 -1.1104 12.5367 13.9749 26.185
704 1 -1.1104 9.58533 16.7743 26.2968
664 1 -1.1104 9.54637 13.8173 23.4845
608 1 -1.1104 12.5501 13.9377 23.5289
665 1 -1.1104 9.57257 19.4547 23.5001
404 2 2.2208 5.50803 18.2304 27.7062
401 2 2.2208 -0.227653 18.0744 27.6488
383 2 2.2208 2.42328 4.00957 27.7647
393 2 2.2208 5.29073 6.77434 27.6276
403 2 2.2208 2.65182 15.2375 27.7166
400 2 2.2208 11.0437 12.5686 27.599
357 2 2.2208 10.9365 4.07406 13.7231
355 2 2.2208 8.22302 1.20453 13.6946
405 2 2.2208 2.4485 20.9532 27.6447
397 2 2.2208 -0.433416 6.85062 27.6072
347 2 2.2208 2.55705 -4.27563 13.6502
394 2 2.2208 2.62343 9.64441 27.7363
377 2 2.2208 8.20608 15.407 27.4955
363 2 2.2208 8.24121 6.83207 13.6623
386 2 2.2208 -0.399507 1.20739 27.6851
365 2 2.2208 8.27943 12.4796 13.7294
356 2 2.2208 10.9986 -1.57502 13.8179
378 2 2.2208 11.0656 18.095 27.5507
364 2 2.2208 11.176 9.67305 13.7146
361 2 2.2208 2.61365 12.5016 13.6275
381 2 2.2208 5.3505 1.17516 27.7193
379 2 2.2208 8.26373 20.9089 27.6795
751 2 2.2208 5.48061 23.694 5.21182
752 2 2.2208 5.32485 29.239 5.23994
753 1 -1.1104 1.08438 24.8999 0.962238
754 1 -1.1104 1.14636 24.9688 3.83621
755 1 -1.1104 1.13982 22.1644 1.10686
756 1 -1.1104 1.20138 27.6621 0.950331
757 2 2.2208 5.34966 26.4252 2.45008
758 1 -1.1104 1.30752 22.2733 3.86122
759 1 -1.1104 1.17778 27.804 3.81988
760 1 -1.1104 3.91435 24.9005 1.06952
761 2 2.2208 2.48134 23.6424 2.44181
762 2 2.2208 2.5079 29.2224 2.41148
763 1 -1.1104 3.99242 25.1494 3.86426
764 2 2.2208 2.57698 26.3563 5.17091
765 1 -1.1104 3.80793 22.244 1.01838
766 1 -1.1104 3.96946 27.7939 1.01659
767 1 -1.1104 3.94982 22.2689 3.75467
768 1 -1.1104 3.98506 27.7822 3.90723
771 2 2.2208 -0.178454 26.4407 2.5298
1028 1 -1.1104 6.72455 41.7855 9.57615
1075 2 2.2208 -0.134399 23.7232 10.8236
770 2 2.2208 -0.211834 23.5254 5.20334
1084 1 -1.1104 6.41522 47.2744 9.27235
1120 2 2.2208 -0.195092 29.312 -0.346647
769 2 2.2208 -0.221742 29.234 5.24717
776 1 -1.1104 6.83169 22.3873 3.61864
773 1 -1.1104 6.7799 25.1329 3.83595
772 1 -1.1104 6.73123 25.0585 1.04247
777 1 -1.1104 6.71656 27.9372 3.85325
775 1 -1.1104 6.8525 28.0122 1.13226
774 1 -1.1104 6.73197 22.3679 0.814781
778 2 2.2208 11.0244 23.667 5.12262
779 2 2.2208 10.8419 29.2841 5.23712
780 1 -1.1104 12.3829 25.0845 0.960801
781 1 -1.1104 12.4144 25.1648 3.73191
782 1 -1.1104 12.4877 22.2119 1.094
783 1 -1.1104 12.4532 28.0001 0.994265
784 2 2.2208 11.031 26.4817 2.391
785 1 -1.1104 12.4576 22.3412 3.84063
786 1 -1.1104 12.3705 27.8223 3.77368
787 1 -1.1104 9.50538 25.1295 0.915245
788 2 2.2208 8.10138 23.7166 2.2977
789 2 2.2208 8.18185 29.2315 2.4003
790 1 -1.1104 9.53011 25.0842 3.56329
791 2 2.2208 8.2513 26.4963 5.11637
792 1 -1.1104 9.63067 22.2375 1.00176
793 1 -1.1104 9.65106 27.9703 1.15317
794 1 -1.1104 9.62662 22.3081 3.75405
795 1 -1.1104 9.54265 27.8744 3.9147
927 1 -1.1104 12.5719 27.9482 6.68047
1087 1 -1.1104 6.63726 47.2864 12.3131
928 1 -1.1104 9.55432 24.9687 6.50421
799 2 2.2208 5.48294 34.8579 5.19563
800 1 -1.1104 1.12907 30.6237 1.20637
801 1 -1.1104 1.12871 36.1124 1.14587
803 1 -1.1104 1.11805 30.5649 3.9493
804 1 -1.1104 1.11692 36.2496 3.71019
806 1 -1.1104 1.18745 33.3569 1.10318
807 2 2.2208 5.37236 32.0449 2.30226
808 2 2.2208 5.31144 37.6673 2.42437
809 1 -1.1104 1.21405 33.5048 3.95492
811 1 -1.1104 3.92907 30.6017 0.938431
812 1 -1.1104 3.9781 36.1175 0.892082
813 2 2.2208 2.61826 34.7783 2.4349
814 1 -1.1104 3.90738 30.5778 3.74189
815 1 -1.1104 3.94564 36.0736 3.7466
816 2 2.2208 2.52725 32.029 5.36522
817 2 2.2208 2.53522 37.6653 5.28077
818 1 -1.1104 3.96269 33.3658 0.969667
819 1 -1.1104 3.99949 33.3346 3.68478
822 2 2.2208 -0.320865 32.1395 2.4098
1119 2 2.2208 5.32614 29.158 -0.251949
810 1 -1.1104 6.88562 33.4634 3.83449
825 1 -1.1104 6.73179 33.357 1.00986
870 2 2.2208 -0.316244 45.9228 5.22861
1079 2 2.2208 -0.33313 32.039 7.95552
951 1 -1.1104 6.88759 30.7921 6.61998
820 2 2.2208 -0.265221 34.9068 5.1803
1086 1 -1.1104 9.3311 47.2521 6.67191
1043 1 -1.1104 9.33515 44.4844 9.19551
1673 1 -1.1104 1.09049 47.3902 6.57179
805 1 -1.1104 6.82002 36.3799 3.84117
823 1 -1.1104 6.69697 30.5683 1.08518
802 1 -1.1104 6.72439 36.1711 1.11104
824 1 -1.1104 6.62441 30.7082 3.91001
826 2 2.2208 11.0906 34.8778 5.28985
827 1 -1.1104 12.3218 30.7873 1.12087
828 1 -1.1104 12.3752 36.2099 1.04217
829 1 -1.1104 12.3055 30.7144 3.82114
830 1 -1.1104 12.3838 36.3154 3.78484
831 1 -1.1104 12.1877 33.4923 1.07345
832 2 2.2208 11.0043 32.1706 2.55183
833 2 2.2208 10.8785 37.5716 2.37183
834 1 -1.1104 12.5014 33.5311 3.86879
835 1 -1.1104 9.49828 30.739 1.13774
836 1 -1.1104 9.56142 36.1888 0.947525