ITEM: TIMESTEP
40000
ITEM: NUMBER OF ATOMS
17732
ITEM: BOX BOUNDS pp pp pp
-3.6439548425796980e-01 2.7704395484258239e+01
-4.4729404832467345e+00 3.3255294048324788e+02
-3.6758049335045784e-01 2.7707580493350385e+01
ITEM: ATOMS id type q x y z
1 2 2.2208 4.97671 1.04856 5.13834
2 1 -1.1104 0.712893 -3.20187 0.892959
3 1 -1.1104 0.905626 2.4333 0.996287
6 1 -1.1104 0.792515 -3.14867 3.57637
7 1 -1.1104 0.896372 2.37066 3.79734
10 1 -1.1104 0.862852 -0.386342 0.984445
12 2 2.2208 5.02578 -1.75494 2.41988
13 2 2.2208 5.0514 3.97772 2.41825
14 1 -1.1104 0.857983 -0.312027 3.89409
16 1 -1.1104 3.75054 -3.13437 0.976772
17 1 -1.1104 3.6186 2.40483 0.878429
18 2 2.2208 2.24769 1.11016 2.3789
19 1 -1.1104 3.57743 -3.1824 3.86681
20 1 -1.1104 3.50117 2.5216 3.73748
21 2 2.2208 2.16572 -1.72629 5.18546
22 2 2.2208 2.28578 3.83114 5.19614
23 1 -1.1104 3.48532 -0.313455 1.10903
24 1 -1.1104 3.62261 -0.3345 3.89726
15 1 -1.1104 6.37111 -0.387851 3.7864
9 1 -1.1104 6.29643 2.36235 3.77907
11 1 -1.1104 6.50826 -0.149 0.981334
4 1 -1.1104 6.44492 -3.02129 0.993563
8 1 -1.1104 6.4229 -3.07082 3.75351
168 1 -1.1104 6.43332 -3.0873 6.55731
170 1 -1.1104 0.706111 -0.528722 6.56587
172 1 -1.1104 3.55713 -3.07699 6.59676
5 1 -1.1104 6.40804 2.67708 0.929681
348 2 2.2208 4.9084 -1.63328 13.5792
31 2 2.2208 10.5948 0.971627 5.29171
32 1 -1.1104 11.8359 -3.09338 0.81671
33 1 -1.1104 12.0313 2.43775 1.01583
34 1 -1.1104 12.1978 -3.00486 3.78464
35 1 -1.1104 12.0915 2.36413 3.87232
36 1 -1.1104 12.1536 -0.379567 0.973725
37 2 2.2208 10.6768 -1.70552 2.32876
38 2 2.2208 10.7296 3.90882 2.33769
39 1 -1.1104 11.9564 -0.402878 3.7848
40 1 -1.1104 9.07316 -3.10938 0.911568
41 1 -1.1104 9.1577 2.46972 1.1017
42 2 2.2208 7.80705 1.15016 2.51682
43 1 -1.1104 9.24373 -3.07505 3.76385
44 1 -1.1104 9.18947 2.52163 3.96206
45 2 2.2208 7.85672 -1.68024 5.10111
46 2 2.2208 7.8234 3.83372 5.25202
47 1 -1.1104 9.21905 -0.321101 0.954471
48 1 -1.1104 9.27476 -0.355347 3.81735
210 1 -1.1104 9.18304 -0.305919 6.58223
50 2 2.2208 13.5989 -1.73451 5.16321
49 2 2.2208 13.4719 0.95682 2.43355
209 1 -1.1104 9.25328 2.55938 6.59016
334 2 2.2208 13.4855 3.77571 5.14758
206 1 -1.1104 12.0758 2.47971 6.8312
208 1 -1.1104 9.26018 -3.11461 6.56292
317 2 2.2208 7.86207 15.0934 10.8356
314 1 -1.1104 9.41448 16.5592 9.50777
54 2 2.2208 4.98599 6.65083 5.30549
55 2 2.2208 5.0118 12.3172 5.40463
56 1 -1.1104 0.872314 7.98608 1.10189
58 1 -1.1104 0.899567 7.96051 4.00556
60 1 -1.1104 0.739742 5.26524 0.972884
61 1 -1.1104 0.835917 10.8685 0.993586
66 2 2.2208 5.11389 9.35912 2.51328
67 1 -1.1104 0.746385 5.14712 3.91634
68 1 -1.1104 0.883112 10.7412 3.68563
71 1 -1.1104 3.62171 8.03261 0.896785
72 2 2.2208 2.1183 6.56473 2.43684
73 2 2.2208 2.15783 12.2358 2.53978
74 1 -1.1104 3.61782 8.03595 3.91099
75 2 2.2208 2.22464 9.46752 5.24883
76 1 -1.1104 3.55372 5.15872 1.04527
77 1 -1.1104 3.6053 10.7786 0.912143
79 1 -1.1104 3.43279 5.23231 3.84792
80 1 -1.1104 3.55943 10.7818 3.80394
78 1 -1.1104 3.72867 10.9542 6.71511
57 1 -1.1104 6.46091 8.09169 1.15967
69 1 -1.1104 6.30803 5.22217 3.73993
64 1 -1.1104 6.4797 10.9402 1.15235
235 1 -1.1104 6.49643 8.15648 6.659
239 1 -1.1104 3.48158 5.26523 6.71022
237 1 -1.1104 6.33672 5.18385 6.70385
59 1 -1.1104 6.58759 8.02597 3.87375
70 1 -1.1104 6.27328 10.7492 3.96822
63 1 -1.1104 6.46235 5.38954 1.08376
234 1 -1.1104 0.835649 8.11637 6.66766
236 1 -1.1104 0.756918 5.20934 6.69504
65 1 -1.1104 6.40171 10.9409 6.8181
62 1 -1.1104 0.718873 10.7848 6.6334
238 1 -1.1104 3.70494 8.1785 6.63078
335 2 2.2208 13.3445 9.45276 5.09456
84 2 2.2208 10.664 6.61312 5.21687
85 2 2.2208 10.6973 12.2611 5.3362
86 1 -1.1104 12.0372 8.2147 0.80883
87 1 -1.1104 12.0342 7.90625 3.71279
88 1 -1.1104 12.0187 5.32553 0.971369
89 1 -1.1104 12.1094 10.7656 0.938239
91 2 2.2208 10.6683 9.44137 2.30314
92 1 -1.1104 12.2086 5.30124 3.61925
93 1 -1.1104 11.9595 10.8168 3.71733
94 1 -1.1104 9.14106 8.07666 0.973148
95 2 2.2208 7.98203 6.58749 2.45204
96 2 2.2208 7.95867 12.2911 2.62794
97 1 -1.1104 9.44891 8.05311 3.79389
98 2 2.2208 7.8238 9.37621 5.2567
99 1 -1.1104 9.38669 5.17938 0.934551
100 1 -1.1104 9.27488 10.8775 1.11702
102 1 -1.1104 9.20073 5.35713 3.75621
103 1 -1.1104 9.26881 10.8246 3.9155
104 2 2.2208 13.4272 12.1976 2.39159
90 1 -1.1104 11.9949 10.7332 6.50657
267 1 -1.1104 9.17194 8.05308 6.63596
269 1 -1.1104 9.29951 5.32409 6.61463
101 1 -1.1104 9.25373 10.7776 6.6848
105 2 2.2208 13.5414 6.75136 2.26726
266 1 -1.1104 12.0345 5.22217 6.44678
355 2 2.2208 7.90549 1.1036 13.5237
106 2 2.2208 5.09131 17.8444 5.30648
107 1 -1.1104 1.00998 13.6443 1.13768
109 1 -1.1104 0.868118 19.1987 1.02645
113 1 -1.1104 0.87331 13.5833 3.99546
114 1 -1.1104 0.849533 19.2675 3.7966
116 1 -1.1104 0.769584 16.3415 1.06853
119 2 2.2208 5.17229 15.0443 2.47204
120 2 2.2208 5.22792 20.6838 2.46317
121 1 -1.1104 0.845225 16.4575 3.76379
123 1 -1.1104 3.67776 13.4897 1.11439
125 1 -1.1104 3.59451 19.3145 1.05721
127 2 2.2208 2.22574 17.827 2.34621
128 1 -1.1104 3.59388 13.5476 4.04938
129 1 -1.1104 3.88081 19.2859 3.81829
130 2 2.2208 2.22619 15.1117 5.22432
131 2 2.2208 2.33759 20.7168 5.22671
132 1 -1.1104 3.53591 16.4743 1.14051
134 1 -1.1104 3.69394 16.4336 3.85204
122 1 -1.1104 6.53561 16.5103 4.01909
139 1 -1.1104 6.57383 19.234 4.06647
115 1 -1.1104 6.57092 13.8146 3.96067
110 1 -1.1104 6.60213 13.7108 1.15672
108 1 -1.1104 0.852876 13.6729 6.71473
140 1 -1.1104 6.46712 16.3691 1.17944
138 1 -1.1104 6.61377 19.2467 1.12856
302 1 -1.1104 0.938842 19.2489 6.61112
133 1 -1.1104 3.75302 16.4431 6.73892
124 1 -1.1104 3.61684 13.6273 6.83094
111 1 -1.1104 6.44002 13.7569 6.62678
112 1 -1.1104 6.50854 19.1926 6.70302
117 1 -1.1104 0.835285 16.4143 6.53051
126 1 -1.1104 3.68555 19.1987 6.58928
118 1 -1.1104 6.50018 16.4642 6.77276
337 2 2.2208 13.574 15.1142 5.22411
141 2 2.2208 10.8424 17.8509 5.20754
142 1 -1.1104 12.1047 13.5492 1.08027
144 1 -1.1104 12.0702 19.2299 1.10936
146 1 -1.1104 12.1506 13.6228 3.89056
147 1 -1.1104 12.0929 19.3421 3.85023
148 1 -1.1104 12.0016 16.3262 1.11606
150 2 2.2208 10.7407 15.0638 2.50473
151 2 2.2208 10.634 20.7418 2.45609
152 1 -1.1104 12.1569 16.5538 3.91082
153 1 -1.1104 9.42371 13.5801 1.0087
155 1 -1.1104 9.23155 19.4514 1.12183
157 2 2.2208 7.92836 17.7419 2.6173
158 1 -1.1104 9.49286 13.743 3.87743
159 1 -1.1104 9.42757 19.2772 3.80436
160 2 2.2208 8.01818 15.0264 5.33897
161 2 2.2208 8.02291 20.7491 5.22198
162 1 -1.1104 9.3494 16.6046 1.04951
164 1 -1.1104 9.23502 16.5017 3.86247
233 2 2.2208 13.4756 -4.34672 8.08273
165 2 2.2208 13.4373 17.9555 2.4778
154 1 -1.1104 9.40063 13.5559 6.72335
145 1 -1.1104 12.2778 19.195 6.6212
143 1 -1.1104 12.0815 13.5893 6.6444
163 1 -1.1104 9.37578 16.416 6.60017
149 1 -1.1104 12.1668 16.294 6.63014
156 1 -1.1104 9.43551 19.2422 6.66648
166 1 -1.1104 0.724249 -3.09246 6.60397
320 2 2.2208 7.96158 17.9175 8.02573
336 2 2.2208 13.4593 20.7588 5.20355
174 1 -1.1104 3.5408 -0.276034 6.56775
167 1 -1.1104 0.814893 2.39884 6.62985
171 1 -1.1104 6.52305 -0.344885 6.55886
173 1 -1.1104 3.62542 2.52484 6.58927
175 2 2.2208 4.86086 1.20574 10.7052
176 1 -1.1104 0.766286 -3.13456 12.1823
177 1 -1.1104 0.968546 2.51006 12.301
180 1 -1.1104 0.739907 -2.88203 9.47909
181 1 -1.1104 0.735117 2.59437 9.48556
184 1 -1.1104 0.728289 -0.29818 12.0935
186 2 2.2208 4.9448 -1.63884 7.97074
187 2 2.2208 4.9702 3.91274 8.02777
188 1 -1.1104 0.650593 -0.219504 9.33739
190 1 -1.1104 3.61142 -3.00177 12.1537
191 1 -1.1104 3.63424 2.48828 12.0364
192 2 2.2208 2.17332 1.06113 7.89801
193 1 -1.1104 3.47961 -3.09054 9.34943
194 1 -1.1104 3.48821 2.54279 9.29708
195 2 2.2208 2.14691 -1.66769 10.7465
196 2 2.2208 2.21826 4.0133 10.8606
197 1 -1.1104 3.54794 -0.281941 12.1715
198 1 -1.1104 3.63826 -0.200016 9.39439
183 1 -1.1104 6.47903 2.44406 9.22624
189 1 -1.1104 6.37745 -0.292523 9.39926
179 1 -1.1104 6.47647 2.47438 12.0226
178 1 -1.1104 6.44996 -3.08378 12.0892
185 1 -1.1104 6.33896 -0.147471 12.2065
182 1 -1.1104 6.23667 -3.112 9.2653
169 1 -1.1104 6.46147 2.44122 6.51076
366 2 2.2208 13.556 6.74717 13.5787
349 2 2.2208 2.27543 1.04904 13.5736
205 1 -1.1104 12.0861 -3.0295 6.5367
328 1 -1.1104 12.188 13.6534 9.51477
318 1 -1.1104 9.61027 19.3809 9.45745
207 1 -1.1104 11.9505 -0.41991 6.75222
230 2 2.2208 13.3603 -1.70728 10.6565
211 2 2.2208 10.6815 1.03083 10.6893
212 1 -1.1104 12.1274 -3.24431 12.1619
213 1 -1.1104 12.1902 2.52155 12.3992
214 1 -1.1104 12.0502 -3.16001 9.42204
215 1 -1.1104 11.9382 2.54026 9.52976
216 1 -1.1104 11.9165 -0.248707 12.273
217 2 2.2208 10.636 -1.78517 7.98175
218 2 2.2208 10.7183 3.94961 7.9688
219 1 -1.1104 11.9545 -0.33504 9.49795
220 1 -1.1104 9.27431 -3.16876 12.3189
221 1 -1.1104 9.39221 2.46288 12.2746
222 2 2.2208 7.81056 1.10227 8.03144
223 1 -1.1104 9.25995 -3.20979 9.40079
224 1 -1.1104 9.12043 2.5775 9.34429
225 2 2.2208 7.77676 -1.59473 10.6911
226 2 2.2208 8.08059 3.9327 10.7744
227 1 -1.1104 9.23209 -0.311704 12.1845
228 1 -1.1104 9.15765 -0.290967 9.3592
229 2 2.2208 13.4472 1.11136 8.01246
338 2 2.2208 13.4648 3.88215 10.9228
353 2 2.2208 7.83557 -4.46672 13.5656
325 2 2.2208 10.7671 15.0622 8.03754
322 1 -1.1104 9.30271 13.6204 12.2509
345 2 2.2208 13.5795 20.7631 10.7016
394 2 2.2208 2.31402 9.56576 -0.378938
240 2 2.2208 5.13263 6.6524 10.7537
241 2 2.2208 5.20689 12.3496 10.7982
242 1 -1.1104 0.838755 8.12386 12.3487
244 1 -1.1104 0.836211 8.06777 9.61868
246 1 -1.1104 0.91467 5.32358 12.3152
247 1 -1.1104 0.852894 10.7622 12.2006
250 2 2.2208 5.09766 9.4902 8.0348
251 1 -1.1104 0.758097 5.37943 9.61039
252 1 -1.1104 0.840932 10.9004 9.31989
255 1 -1.1104 3.82368 7.96791 12.3192
256 2 2.2208 2.22636 6.84062 8.07556
257 2 2.2208 2.25475 12.3763 8.17087
258 1 -1.1104 3.79991 8.02593 9.49726
259 2 2.2208 2.27794 9.41903 10.9015
260 1 -1.1104 3.75757 5.36581 12.218
261 1 -1.1104 3.67448 10.7218 12.3135
262 1 -1.1104 3.67924 5.33623 9.42089
263 1 -1.1104 3.65489 10.8216 9.5207
254 1 -1.1104 6.55964 10.7849 9.58096
243 1 -1.1104 6.58136 8.0345 12.2529
249 1 -1.1104 6.42782 10.8502 12.4063
253 1 -1.1104 6.63196 5.35713 9.39754
245 1 -1.1104 6.48797 8.06111 9.33922
248 1 -1.1104 6.59775 5.13574 12.2428
347 2 2.2208 2.27248 -4.46206 13.5349
333 2 2.2208 13.5224 15.0087 10.9114
332 2 2.2208 13.6473 17.9542 8.09308
203 2 2.2208 4.93085 -4.45389 10.7317
316 2 2.2208 7.90581 20.7126 10.7852
265 1 -1.1104 12.0648 7.95535 6.63097
341 2 2.2208 13.5159 9.49956 10.7768
264 1 -1.1104 9.23995 10.9028 9.4878
268 1 -1.1104 9.43671 5.2516 9.44356
270 1 -1.1104 9.24466 10.865 12.2043
271 1 -1.1104 9.36541 5.32745 12.3332
272 2 2.2208 7.91315 9.43423 10.8521
273 1 -1.1104 9.26467 8.09647 9.43621
274 2 2.2208 7.73827 12.257 8.04182
275 2 2.2208 7.96149 6.64248 8.01408
276 2 2.2208 10.6542 6.68915 10.7902
277 2 2.2208 10.5979 12.1822 10.844
278 1 -1.1104 12.1308 8.14669 12.2926
279 1 -1.1104 12.0195 8.00786 9.39756
280 1 -1.1104 12.1141 5.3089 12.114
281 1 -1.1104 12.0965 10.8199 12.3332
282 2 2.2208 10.7032 9.318 8.01211
283 1 -1.1104 12.1249 5.17645 9.28329
284 1 -1.1104 12.1322 10.848 9.42018
285 1 -1.1104 9.36243 8.05791 12.1975
340 2 2.2208 13.5153 12.2033 8.07384
339 2 2.2208 13.6287 6.58861 7.87663
356 2 2.2208 10.7548 -1.74122 13.6963
370 2 2.2208 13.4519 1.05755 13.6216
289 1 -1.1104 6.56079 16.4607 9.53526
296 1 -1.1104 6.63496 19.3444 12.1531
297 1 -1.1104 6.47955 13.622 12.3034
290 1 -1.1104 6.56717 13.7952 9.55171
309 2 2.2208 2.36842 20.6593 10.8823
308 1 -1.1104 3.69647 16.4535 12.2281
307 1 -1.1104 0.810502 16.3479 12.1193
305 1 -1.1104 3.70787 13.6798 9.52869
304 1 -1.1104 3.69326 16.3752 9.66171
303 2 2.2208 2.34074 17.7626 8.03833
301 1 -1.1104 3.87947 19.1733 9.45556
300 2 2.2208 5.17233 17.786 10.8693
299 1 -1.1104 1.05053 13.6851 12.3267
298 1 -1.1104 1.07101 19.1948 12.1403
295 2 2.2208 5.23952 15.0282 8.01723
294 1 -1.1104 0.812607 13.8528 9.63632
310 2 2.2208 2.35892 15.0772 10.8753
293 2 2.2208 5.17463 20.679 8.0434
292 1 -1.1104 0.981778 16.47 9.21995
291 1 -1.1104 1.08846 19.4429 9.32423
287 1 -1.1104 3.77432 13.5527 12.2793
286 1 -1.1104 3.7792 19.1937 12.0986
306 1 -1.1104 6.41568 16.5392 12.1221
288 1 -1.1104 6.68605 19.2291 9.29574
323 1 -1.1104 12.1317 16.5033 9.62153
53 2 2.2208 13.479 -4.4165 2.36256
377 2 2.2208 7.99246 15.1802 -0.338241
329 1 -1.1104 12.1673 19.3159 12.1968
319 1 -1.1104 9.23779 13.6789 9.47477
324 2 2.2208 10.8499 20.7409 8.00902
330 1 -1.1104 12.2179 13.648 12.4303
327 1 -1.1104 12.3383 19.2917 9.3384
326 1 -1.1104 12.1428 16.3509 12.3329
331 2 2.2208 10.7369 17.7859 10.9004
315 1 -1.1104 9.34873 16.3186 12.168
321 1 -1.1104 9.41089 19.1564 12.3028
375 2 2.2208 13.5603 20.8816 -0.342274
51 2 2.2208 7.72377 -4.46262 2.48355
374 2 2.2208 13.5151 15.1982 -0.259581
52 2 2.2208 10.747 -4.4055 5.07801
395 2 2.2208 5.08261 12.2873 -0.331009
378 2 2.2208 10.7161 18.0714 -0.323989
363 2 2.2208 7.86884 6.64137 13.598
383 2 2.2208 2.19346 3.92758 -0.365107
373 2 2.2208 10.68 14.9772 13.6797
403 2 2.2208 2.27004 15.0695 -0.257901
368 2 2.2208 2.36407 17.7946 13.5763
385 2 2.2208 5.10597 -4.40191 -0.368587
393 2 2.2208 5.02079 6.66807 -0.248927
379 2 2.2208 8.08193 20.771 -0.319136
400 2 2.2208 10.7065 12.2509 -0.248889
361 2 2.2208 2.33668 12.1901 13.6795
369 2 2.2208 5.22489 20.5909 13.5531
404 2 2.2208 5.1487 17.8577 -0.281214
376 2 2.2208 7.89104 17.8006 13.5338
364 2 2.2208 10.674 9.40419 13.6419
352 2 2.2208 5.05102 3.7833 13.5825
406 2 2.2208 4.92917 1.15618 16.3807
407 1 -1.1104 0.923314 -3.22213 17.8879
408 1 -1.1104 0.863895 2.4033 17.7614
411 1 -1.1104 1.00813 -2.94092 15.0216
413 1 -1.1104 0.858671 2.53534 15.0869
419 1 -1.1104 1.00185 -0.344343 17.7862
421 2 2.2208 5.06331 -1.66865 19.2507
422 2 2.2208 4.99885 3.91214 19.2313
423 1 -1.1104 0.75678 -0.275366 15.0183
427 1 -1.1104 3.67094 -3.0727 17.8225
428 1 -1.1104 3.75295 2.55869 17.7236
429 2 2.2208 2.21542 0.941741 19.2849
430 1 -1.1104 3.71746 -3.10064 14.9189
432 1 -1.1104 3.60608 2.5214 14.853
434 2 2.2208 2.31744 -1.66288 16.3799
435 2 2.2208 2.23428 3.866 16.4752
436 1 -1.1104 3.71629 -0.326319 17.9157
437 1 -1.1104 3.53482 -0.295651 15.0527
410 1 -1.1104 6.42157 2.60937 17.7865
415 1 -1.1104 6.54027 -3.15808 15.0513
412 1 -1.1104 0.929643 -3.20487 20.5293
409 1 -1.1104 6.53582 -3.19707 17.7374
425 1 -1.1104 6.46327 -0.444355 14.9911
420 1 -1.1104 6.48142 -0.211814 17.9062
417 1 -1.1104 6.45427 2.28037 15.0118
431 1 -1.1104 3.6753 -3.28326 20.6044
418 1 -1.1104 6.29156 2.57178 20.6069
433 1 -1.1104 3.66105 2.56727 20.6288
438 1 -1.1104 3.61007 -0.318025 20.7044
426 1 -1.1104 6.42368 -0.203909 20.7419
424 1 -1.1104 0.855471 -0.405142 20.57
416 1 -1.1104 6.47949 -2.98146 20.5642
702 2 2.2208 -0.359727 9.49268 24.9334
449 2 2.2208 10.5715 1.06803 16.3571
450 1 -1.1104 12.212 -3.18836 17.7893
451 1 -1.1104 11.9287 2.43814 17.8615
452 1 -1.1104 12.1166 -3.08095 15.105
454 1 -1.1104 12.0437 2.50701 15.2056
456 1 -1.1104 11.9337 -0.367081 17.7935
457 2 2.2208 10.6081 -1.59063 19.1939
458 2 2.2208 10.6211 3.91654 19.2044
459 1 -1.1104 12.0487 -0.343645 15.0781
461 1 -1.1104 9.31667 -3.09795 17.7779
462 1 -1.1104 9.31551 2.55337 17.8429
463 2 2.2208 7.75026 1.19624 19.1813
464 1 -1.1104 9.28942 -2.9738 15.0494
466 1 -1.1104 9.25153 2.4983 15.0654
468 2 2.2208 7.77635 -1.68431 16.3802
469 2 2.2208 7.86097 3.85488 16.4019
470 1 -1.1104 9.24089 -0.264816 17.735
471 1 -1.1104 9.16258 -0.203258 14.9714
472 1 -1.1104 9.27507 -0.169139 20.532
465 1 -1.1104 9.17311 -2.97794 20.6573
455 1 -1.1104 11.9399 2.54268 20.7784
460 1 -1.1104 12.0605 -0.232462 20.6747
467 1 -1.1104 9.29031 2.52406 20.7432
579 2 2.2208 13.3331 3.81159 16.3743
477 2 2.2208 13.5193 -1.76606 16.556
578 2 2.2208 13.4524 1.12849 19.3477
453 1 -1.1104 12.1228 -3.1811 20.5575
402 2 2.2208 13.3756 9.49805 27.5405
482 2 2.2208 5.09037 6.61448 16.4524
483 2 2.2208 5.12217 12.1956 16.5572
484 1 -1.1104 0.899247 8.05862 17.8575
486 1 -1.1104 0.82036 7.99502 15.0224
490 1 -1.1104 0.872754 5.32804 17.8754
491 1 -1.1104 0.947505 10.9541 17.8694
494 2 2.2208 5.06725 9.46364 19.3587
495 1 -1.1104 0.85253 5.34765 15.2238
497 1 -1.1104 0.952782 10.763 15.02
503 1 -1.1104 3.72372 8.08305 18.0189
504 2 2.2208 2.21248 6.73535 19.3363
505 2 2.2208 2.324 12.2067 19.2949
506 1 -1.1104 3.58788 8.07442 15.1555
508 2 2.2208 2.26096 9.42445 16.3953
509 1 -1.1104 3.56517 5.36345 17.9164
510 1 -1.1104 3.75358 10.8016 17.9253
511 1 -1.1104 3.75532 5.24808 15.0312
513 1 -1.1104 3.72033 10.9076 15.108
500 1 -1.1104 6.34742 5.2667 20.6366
488 1 -1.1104 6.44298 8.00686 15.1624
501 1 -1.1104 6.41647 10.8237 15.1108
514 1 -1.1104 3.68474 11.0446 20.6308
507 1 -1.1104 3.76959 8.20755 20.8314
499 1 -1.1104 6.44117 5.08091 14.9886
492 1 -1.1104 6.48481 5.39376 17.8265
498 1 -1.1104 0.823823 10.9318 20.706
487 1 -1.1104 0.866675 8.07135 20.7591
493 1 -1.1104 6.56163 10.9777 17.8992
485 1 -1.1104 6.61597 8.22006 17.9981
502 1 -1.1104 6.45634 10.8838 20.7353
489 1 -1.1104 6.62362 8.11542 20.9021
496 1 -1.1104 0.736965 5.24768 20.7409
542 2 2.2208 13.5863 6.58396 19.1635
518 2 2.2208 10.6319 6.63959 16.3762
519 2 2.2208 10.6643 12.1646 16.4832
520 1 -1.1104 11.984 7.97961 17.7689
521 1 -1.1104 12.1229 7.97963 14.9918
523 1 -1.1104 12.1307 5.17482 17.8142
524 1 -1.1104 11.9855 10.8205 17.8702
525 2 2.2208 10.6623 9.3921 19.2457
526 1 -1.1104 12.1129 5.27317 14.976
528 1 -1.1104 12.1031 10.9157 15.0847
530 1 -1.1104 9.30659 8.12683 17.8792
531 2 2.2208 7.84512 6.7856 19.2456
532 2 2.2208 7.85636 12.3676 19.3444
533 1 -1.1104 9.30604 7.91923 15.0908
535 2 2.2208 7.97869 9.42857 16.4245
536 1 -1.1104 9.28766 5.22827 17.7843
537 1 -1.1104 9.34106 10.796 17.706
538 1 -1.1104 9.22516 5.26184 15.1164
540 1 -1.1104 9.25181 10.7888 14.9806
522 1 -1.1104 12.209 8.08668 20.6364
539 1 -1.1104 9.26966 5.45924 20.4537
543 2 2.2208 13.4312 9.43284 16.4864
517 2 2.2208 13.3682 12.1916 19.2155
529 1 -1.1104 12.0443 10.681 20.5935
541 1 -1.1104 9.25997 11.0195 20.5811
527 1 -1.1104 12.1906 5.31264 20.63
534 1 -1.1104 9.31867 8.17097 20.6594
478 2 2.2208 13.4784 20.6595 16.5101
440 2 2.2208 5.06751 -4.53357 16.4149
545 2 2.2208 5.07525 17.8191 16.408
546 1 -1.1104 0.822151 13.7484 18.1217
547 1 -1.1104 0.946475 19.5693 17.8515
550 1 -1.1104 0.942236 13.5318 15.218
552 1 -1.1104 0.866651 19.1325 15.104
558 1 -1.1104 1.08697 16.6604 17.6445
560 2 2.2208 5.12832 15.1498 19.3988
561 2 2.2208 5.12119 20.7835 19.1493
562 1 -1.1104 0.958767 16.4307 14.9245
566 1 -1.1104 3.66934 13.6917 17.872
567 1 -1.1104 3.62248 19.3467 17.7387
568 2 2.2208 2.32088 17.9361 19.3312
569 1 -1.1104 3.73992 13.7239 15.1462
571 1 -1.1104 3.67951 19.4116 15.0496
573 2 2.2208 2.22242 15.1493 16.5308
574 2 2.2208 2.29403 20.8025 16.4596
575 1 -1.1104 3.8886 16.541 17.9731
576 1 -1.1104 3.65882 16.4631 15.0289
577 1 -1.1104 3.62825 16.6283 20.844
551 1 -1.1104 0.907413 13.7817 20.8929
549 1 -1.1104 6.44706 19.1441 17.8488
564 1 -1.1104 6.35417 16.5102 14.8101
554 1 -1.1104 6.54694 13.795 15.1827
563 1 -1.1104 0.84426 16.5037 20.5534
556 1 -1.1104 6.47173 19.187 15.0039
559 1 -1.1104 6.59782 16.2929 17.9289
565 1 -1.1104 6.55574 16.5884 20.7259
548 1 -1.1104 6.41404 13.5592 18.1124
572 1 -1.1104 3.8271 19.4189 20.7143
557 1 -1.1104 6.66862 19.2483 20.6901
633 1 -1.1104 11.9689 19.4513 23.5146
362 2 2.2208 13.5769 12.2287 13.6385
581 2 2.2208 10.6313 18.0189 16.5438
582 1 -1.1104 11.9984 13.6258 17.974
583 1 -1.1104 12.1057 19.3738 17.78
584 1 -1.1104 12.1451 13.6041 15.1138
586 1 -1.1104 12.177 19.2533 15.0424
588 1 -1.1104 12.0517 16.5272 17.9623
589 2 2.2208 10.6126 15.064 19.3526
590 2 2.2208 10.7319 20.6477 19.315
591 1 -1.1104 11.974 16.4012 15.2619
593 1 -1.1104 9.09035 13.7653 17.7878
594 1 -1.1104 9.19678 19.2547 17.8353
595 2 2.2208 7.80111 17.9461 19.2836
596 1 -1.1104 9.32993 13.5934 15.0654
598 1 -1.1104 9.25582 19.0009 15.1714
600 2 2.2208 8.01858 15.2027 16.38
601 2 2.2208 7.82454 20.5866 16.3412
602 1 -1.1104 9.34044 16.4767 17.8771
603 1 -1.1104 9.29238 16.4083 15.015
599 1 -1.1104 9.33373 19.37 20.7573
399 2 2.2208 7.88754 9.46703 27.7096
479 2 2.2208 13.4952 17.9965 19.4229
604 1 -1.1104 9.48273 16.5746 20.6601
592 1 -1.1104 12.1584 16.663 20.7728
597 1 -1.1104 9.18334 13.7684 20.6253
585 1 -1.1104 11.9856 13.6075 20.6785
587 1 -1.1104 12.1023 19.4235 20.7462
607 2 2.2208 10.7171 18.0109 22.1348
480 2 2.2208 13.3703 15.0688 16.633
414 1 -1.1104 0.811112 2.41268 20.6554
609 2 2.2208 4.8668 1.12246 22.1023
610 1 -1.1104 0.639439 -3.24506 23.3197
611 1 -1.1104 0.663224 2.40823 23.3272
614 1 -1.1104 0.848412 -3.10732 26.1207
615 1 -1.1104 0.743258 2.52061 26.1557
618 1 -1.1104 0.98458 -0.348745 23.4887
620 2 2.2208 4.93861 -1.70531 24.8673
621 2 2.2208 5.09464 3.85713 24.9435
622 1 -1.1104 0.763314 -0.3278 26.3301
624 1 -1.1104 3.50296 -3.00707 23.5202
625 1 -1.1104 3.42881 2.59354 23.6614
626 2 2.2208 2.14197 1.09464 24.8656
627 1 -1.1104 3.61308 -3.08186 26.205
628 1 -1.1104 3.56587 2.63709 26.1488
629 2 2.2208 2.28901 -1.90346 22.0669
630 2 2.2208 2.21713 3.9188 22.0589
631 1 -1.1104 3.66215 -0.211017 23.5209
632 1 -1.1104 3.54765 -0.374834 26.2574
613 1 -1.1104 6.41767 2.46635 23.3085
619 1 -1.1104 6.49533 -0.327539 23.5167
616 1 -1.1104 6.51512 -3.07013 26.3095
617 1 -1.1104 6.48704 2.58654 26.2157
623 1 -1.1104 6.38929 -0.284403 26.3485
612 1 -1.1104 6.29126 -3.24142 23.5184
360 2 2.2208 5.04055 9.43726 13.7173
673 1 -1.1104 9.34067 13.5376 26.297
475 2 2.2208 7.86364 -4.50758 19.2211
671 2 2.2208 13.368 -1.86706 22.1146
645 2 2.2208 10.5887 1.19744 22.0534
646 1 -1.1104 11.762 -3.22126 23.505
647 1 -1.1104 11.9328 2.4214 23.3596
648 1 -1.1104 12.1675 -2.97464 26.146
649 1 -1.1104 12.0295 2.51499 26.1715
650 1 -1.1104 12.0078 -0.308654 23.5874
651 2 2.2208 10.5654 -1.5682 24.8166
652 2 2.2208 10.6327 3.84755 24.9023
653 1 -1.1104 11.9641 -0.142622 26.285
654 1 -1.1104 9.15782 -3.23263 23.3626
655 1 -1.1104 9.16945 2.47121 23.5578
656 2 2.2208 7.80776 1.08926 24.8345
657 1 -1.1104 9.29525 -3.13831 26.2252
658 1 -1.1104 9.19161 2.47117 26.3376
659 2 2.2208 7.828 -1.68956 22.1506
661 1 -1.1104 9.31803 -0.210592 23.3927
662 1 -1.1104 9.01622 -0.218962 26.2558
660 2 2.2208 7.81232 3.91546 22.098
667 2 2.2208 7.92094 17.9587 24.8662
672 2 2.2208 13.3098 1.09886 24.7807
446 2 2.2208 13.4398 3.96997 22.0513
580 2 2.2208 13.5072 14.9823 22.128
605 2 2.2208 13.5208 17.8664 25.0509
635 1 -1.1104 12.1042 19.4601 26.3758
699 2 2.2208 7.92357 15.1361 22.0907
698 1 -1.1104 9.29241 19.355 26.3394
512 1 -1.1104 3.44209 5.42192 20.818
391 2 2.2208 13.476 -1.74041 27.5946
674 2 2.2208 5.05428 6.62375 22.1679
675 2 2.2208 5.08418 12.285 22.2011
676 1 -1.1104 0.996268 8.14911 23.4958
678 1 -1.1104 0.851516 8.04543 26.3601
680 1 -1.1104 0.971063 5.2283 23.4425
681 1 -1.1104 0.975717 10.7939 23.4296
684 2 2.2208 5.06517 9.36552 24.944
685 1 -1.1104 0.947576 5.38882 26.2633
686 1 -1.1104 1.08435 10.933 26.4636
689 1 -1.1104 3.72687 8.09587 23.6314
690 2 2.2208 2.25278 6.67593 24.9481
691 2 2.2208 2.33553 12.2731 24.8773
692 1 -1.1104 3.64298 8.06911 26.3786
693 2 2.2208 2.37259 9.52364 22.1441
694 1 -1.1104 3.77209 5.25355 23.567
695 1 -1.1104 3.67281 10.9184 23.4995
696 1 -1.1104 3.7968 5.22401 26.4166
697 1 -1.1104 3.8314 10.8714 26.2041
682 1 -1.1104 6.56214 5.26247 23.4481
688 1 -1.1104 6.53083 10.8513 26.271
679 1 -1.1104 6.44205 8.09309 26.4112
683 1 -1.1104 6.48649 10.9974 23.5586
677 1 -1.1104 6.71231 8.04968 23.6001
687 1 -1.1104 6.51577 5.32863 26.3643
704 1 -1.1104 9.39184 16.5528 26.2597
405 2 2.2208 2.35567 20.6457 27.7089
726 2 2.2208 13.344 12.2877 24.9345
728 2 2.2208 13.3727 6.64653 24.7304
705 1 -1.1104 9.32377 10.7965 26.3128
706 1 -1.1104 9.40921 5.4313 26.1875
707 1 -1.1104 9.18013 10.8805 23.3672
708 1 -1.1104 9.21147 5.23548 23.2932
709 2 2.2208 7.84707 9.55362 22.0578
710 1 -1.1104 9.34265 8.05542 26.2703
711 2 2.2208 7.84592 12.395 25.0456
712 2 2.2208 7.96565 6.80926 24.9486
713 2 2.2208 10.655 6.6579 21.9786
714 2 2.2208 10.6502 12.2799 22.1034
715 1 -1.1104 12.0751 8.13011 23.5259
716 1 -1.1104 12.0533 8.20469 26.1204
717 1 -1.1104 12.0833 5.27532 23.3305
718 1 -1.1104 12.0216 10.9195 23.4555
719 2 2.2208 10.5892 9.47359 24.9314
720 1 -1.1104 12.1151 5.31699 26.0834
721 1 -1.1104 12.0192 10.9597 26.2702
722 1 -1.1104 9.36913 8.02327 23.4481
445 2 2.2208 13.5623 9.38114 21.9191
638 2 2.2208 10.6643 15.1703 24.9229
382 2 2.2208 2.17044 -1.67946 27.6289
381 2 2.2208 5.09133 1.15196 27.7157
570 1 -1.1104 3.59244 13.7779 20.6514
553 1 -1.1104 0.901161 19.4261 20.6868
555 1 -1.1104 6.43692 13.8996 20.9417
747 1 -1.1104 6.44955 16.4994 23.3642
736 1 -1.1104 6.47585 19.2146 23.6417
732 1 -1.1104 6.70693 16.4909 26.3198
730 1 -1.1104 6.49474 13.9044 26.418
739 1 -1.1104 6.40261 13.6315 23.6388
746 1 -1.1104 3.5851 13.7412 26.4612
745 1 -1.1104 3.61855 16.3994 26.485
744 2 2.2208 2.29097 17.8317 25.0336
743 1 -1.1104 3.70519 19.2445 26.3116
750 2 2.2208 2.33958 20.7479 21.9709
749 1 -1.1104 3.67402 16.4678 23.6344
748 1 -1.1104 0.866304 16.4749 23.5687
727 2 2.2208 2.3614 15.1155 22.1513
729 1 -1.1104 3.70607 19.1872 23.4927
731 1 -1.1104 3.65025 13.7633 23.5737
733 1 -1.1104 0.971884 19.3136 26.3533
734 1 -1.1104 0.825903 16.522 26.4414
735 1 -1.1104 0.8594 13.5837 26.337
737 2 2.2208 5.22853 20.6405 25.0058
738 2 2.2208 5.15583 15.0694 25.039
740 1 -1.1104 0.866676 19.2443 23.574
741 1 -1.1104 0.684716 13.5715 23.6863
742 2 2.2208 5.04264 17.9338 22.2282
670 1 -1.1104 6.4969 19.2849 26.5028
665 1 -1.1104 9.18299 19.327 23.5591
392 2 2.2208 13.4566 3.79804 27.7292
700 2 2.2208 7.89396 20.7139 22.1593
608 1 -1.1104 11.9077 13.7458 23.5221
636 1 -1.1104 12.1386 16.5611 23.6835
641 2 2.2208 10.666 20.7864 24.816
701 1 -1.1104 9.19809 16.539 23.4506
664 1 -1.1104 9.20229 13.699 23.5408
663 1 -1.1104 12.253 16.7634 26.5184
634 1 -1.1104 12.0807 13.8793 26.2539
606 2 2.2208 13.5514 20.7793 22.2087
387 2 2.2208 10.5593 0.970222 27.599
388 2 2.2208 7.74505 -1.66624 27.6783
371 2 2.2208 5.08098 14.9341 13.7161
365 2 2.2208 7.86933 12.2597 13.7837
357 2 2.2208 10.6154 3.89949 13.6246
380 2 2.2208 13.476 17.9122 13.7504
372 2 2.2208 10.7361 20.6656 13.6702
359 2 2.2208 2.26385 6.68292 13.6805
398 2 2.2208 10.7333 6.68007 27.6308
389 2 2.2208 7.87103 3.92546 27.6606
751 2 2.2208 5.14253 23.5098 5.22872
752 2 2.2208 5.23664 29.0905 5.14776
753 1 -1.1104 0.872997 24.9522 0.965524
754 1 -1.1104 0.955195 24.8592 3.71624
755 1 -1.1104 0.969429 22.2034 1.13137
756 1 -1.1104 1.06706 27.7288 0.892175
757 2 2.2208 5.13756 26.3167 2.3657
758 1 -1.1104 0.907911 21.9887 3.82373
759 1 -1.1104 0.827911 27.5985 3.79574
760 1 -1.1104 3.70462 24.8243 0.928301
761 2 2.2208 2.27565 23.4405 2.40205
762 2 2.2208 2.35707 29.0803 2.36999
763 1 -1.1104 3.841 24.8505 3.76332
764 2 2.2208 2.31253 26.2788 5.17367
765 1 -1.1104 3.6596 22.027 1.13538
766 1 -1.1104 3.66854 27.5792 0.866158
767 1 -1.1104 3.71238 22.0873 3.87989
768 1 -1.1104 3.66626 27.6676 3.77962
773 1 -1.1104 6.60345 24.8907 3.72173
900 1 -1.1104 3.7438 27.6157 6.51967
776 1 -1.1104 6.5463 22.1813 3.83503
775 1 -1.1104 6.41333 27.8567 0.955997
895 1 -1.1104 0.911849 27.6718 6.6188
774 1 -1.1104 6.41436 22.1465 1.04711
777 1 -1.1104 6.48817 27.6016 3.74932
898 1 -1.1104 3.78165 24.8362 6.49585
894 1 -1.1104 0.861779 22.114 6.68055
892 1 -1.1104 1.11746 24.8495 6.59684
772 1 -1.1104 6.50466 24.9837 0.933081
897 1 -1.1104 6.57183 27.5908 6.5059
899 1 -1.1104 3.82261 22.1658 6.74632
893 1 -1.1104 6.50167 24.9063 6.59728
1675 1 -1.1104 3.89639 47.3538 6.83514
778 2 2.2208 10.6582 23.5556 5.21125
779 2 2.2208 10.7682 29.0528 5.33505
780 1 -1.1104 12.1172 24.9233 1.03429
781 1 -1.1104 12.2468 25.0985 3.86046
782 1 -1.1104 12.027 22.0336 0.977633
783 1 -1.1104 12.1917 27.6859 1.04798
784 2 2.2208 10.7226 26.2724 2.43178
785 1 -1.1104 12.0571 22.3264 3.73792
786 1 -1.1104 12.0663 27.6776 3.89003
787 1 -1.1104 9.25625 24.9376 0.986394
788 2 2.2208 7.85663 23.5783 2.27489
789 2 2.2208 7.97251 29.0721 2.4397
790 1 -1.1104 9.42055 24.9001 3.87257
791 2 2.2208 7.85609 26.2137 5.2582
792 1 -1.1104 9.23101 22.2885 0.994213
793 1 -1.1104 9.2644 27.6547 0.972985
794 1 -1.1104 9.25517 22.1038 3.7894
795 1 -1.1104 9.26133 27.7234 3.79421
798 2 2.2208 13.6112 26.411 5.40516
797 2 2.2208 13.565 29.1068 2.36733
796 2 2.2208 13.4914 23.4384 2.38615
929 1 -1.1104 9.41013 22.1514 6.58263
896 1 -1.1104 6.66143 22.1216 6.58631
928 1 -1.1104 9.23869 24.806 6.66434
891 2 2.2208 13.6991 40.4976 2.48358
799 2 2.2208 5.26917 34.7656 5.22239
800 1 -1.1104 0.955168 30.6463 1.11729
801 1 -1.1104 1.23954 36.1622 0.960873
803 1 -1.1104 0.841998 30.3969 3.74462
804 1 -1.1104 1.09531 35.9629 3.83251
806 1 -1.1104 1.16535 33.3789 1.12576
807 2 2.2208 5.2523 31.9086 2.38663
808 2 2.2208 5.2807 37.5285 2.53986
809 1 -1.1104 0.953909 33.1888 3.8465
811 1 -1.1104 3.84982 30.461 0.997353
812 1 -1.1104 3.98682 36.0214 1.02921
813 2 2.2208 2.69842 34.8121 2.40112
814 1 -1.1104 3.70569 30.4617 3.75991
815 1 -1.1104 3.95235 36.1812 3.87761
816 2 2.2208 2.34393 31.9329 5.15803
817 2 2.2208 2.42486 37.609 5.27682
818 1 -1.1104 3.99042 33.1491 0.937621
819 1 -1.1104 3.92029 33.3861 3.81264
953 1 -1.1104 1.02728 33.338 6.54267
950 1 -1.1104 1.1099 36.1573 6.58034
810 1 -1.1104 6.8041 33.2436 3.75667
825 1 -1.1104 6.75255 33.3512 1.0491
956 1 -1.1104 3.94046 36.0915 6.59694
802 1 -1.1104 6.7852 36.2166 1.09312
823 1 -1.1104 6.63644 30.549 1.00513
805 1 -1.1104 6.72639 36.1009 3.85
957 1 -1.1104 3.84072 33.3263 6.5671
951 1 -1.1104 6.51162 30.3836 6.47996
949 1 -1.1104 0.936411 30.4573 6.56597
1680 1 -1.1104 0.99195 47.4805 9.45437
824 1 -1.1104 6.45184 30.3853 3.67212
826 2 2.2208 11.0279 34.7916 5.27974
827 1 -1.1104 12.2189 30.5494 0.928985
828 1 -1.1104 12.2551 36.1129 1.15704
829 1 -1.1104 12.2226 30.4798 3.77396
830 1 -1.1104 12.2699 36.1362 3.92967
831 1 -1.1104 12.2252 33.3445 1.14931
832 2 2.2208 10.7944 31.974 2.56192
833 2 2.2208 10.9468 37.5125 2.56212
834 1 -1.1104 12.3156 33.2733 3.88349
835 1 -1.1104 9.38942 30.5263 0.967176
836 1 -1.1104 9.53294 36.0757 1.05757
837 2 2.2208 8.09396 34.7097 2.48444
838 1 -1.1104 9.41127 30.4981 3.93332
839 1 -1.1104 9.56994 36.2045 3.81041
840 2 2.2208 8.01425 31.8667 5.20351