ITEM: TIMESTEP
10000
ITEM: NUMBER OF ATOMS
17732
ITEM: BOX BOUNDS pp pp pp
-3.5788590857683544e-01 2.7697885908577089e+01
-4.4053585678616338e+00 3.3248535856786009e+02
-3.6399275722444946e-01 2.7703992757224661e+01
ITEM: ATOMS id type q x y z
1 2 2.2208 5.21525 1.1757 5.17137
2 1 -1.1104 0.788033 -2.99607 1.09525
3 1 -1.1104 1.04379 2.61918 0.991292
6 1 -1.1104 0.922849 -3.13799 3.80392
7 1 -1.1104 0.964263 2.57255 3.8981
10 1 -1.1104 0.871793 -0.194209 1.06216
12 2 2.2208 5.0157 -1.53874 2.58722
13 2 2.2208 5.26947 4.01523 2.60192
14 1 -1.1104 1.01101 -0.22777 3.94519
16 1 -1.1104 3.69256 -3.00207 0.990087
17 1 -1.1104 3.72957 2.67462 1.11947
18 2 2.2208 2.2504 1.239 2.54149
19 1 -1.1104 3.72359 -2.91978 3.9149
20 1 -1.1104 3.78755 2.66435 3.88751
21 2 2.2208 2.33709 -1.66 5.31355
22 2 2.2208 2.31329 4.0416 5.308
23 1 -1.1104 3.62132 -0.179954 1.12049
24 1 -1.1104 3.75464 -0.137246 3.86857
11 1 -1.1104 6.44596 -0.0877121 1.17299
9 1 -1.1104 6.56233 2.55079 3.84514
4 1 -1.1104 6.41858 -2.85039 1.1818
8 1 -1.1104 6.56651 -3.14977 4.13698
15 1 -1.1104 6.52018 -0.3987 4.00191
166 1 -1.1104 0.926237 -2.98028 6.79751
5 1 -1.1104 6.60175 2.66587 1.16529
333 2 2.2208 13.6561 15.2479 10.879
169 1 -1.1104 6.5707 2.60533 6.59127
28 2 2.2208 2.40087 -4.3771 2.45461
29 2 2.2208 5.08381 -4.54968 5.43236
344 2 2.2208 -0.39651 6.88662 10.9351
334 2 2.2208 13.5622 3.957 5.33722
31 2 2.2208 10.7186 1.32864 5.20431
32 1 -1.1104 12.0756 -2.89942 1.04014
33 1 -1.1104 12.1292 2.7331 1.02754
34 1 -1.1104 12.0338 -2.88167 3.91059
35 1 -1.1104 12.1837 2.72938 3.91012
36 1 -1.1104 12.2756 -0.083836 1.00836
37 2 2.2208 10.7046 -1.4926 2.48089
38 2 2.2208 10.7268 4.05445 2.46118
39 1 -1.1104 12.1989 0.0287861 3.77062
40 1 -1.1104 9.15105 -2.91706 1.02873
41 1 -1.1104 9.43428 2.63261 1.05341
42 2 2.2208 7.97801 1.21534 2.51314
43 1 -1.1104 9.30612 -2.82178 3.86068
44 1 -1.1104 9.39039 2.66418 3.78241
45 2 2.2208 7.84734 -1.62741 5.50355
46 2 2.2208 7.96785 4.11262 5.38294
47 1 -1.1104 9.44369 -0.098563 1.17253
48 1 -1.1104 9.24421 -0.14018 4.04246
206 1 -1.1104 12.1853 2.73751 6.72707
210 1 -1.1104 9.31618 -0.138988 6.74595
362 2 2.2208 13.677 12.4213 13.6503
205 1 -1.1104 12.1063 -2.94984 6.77303
50 2 2.2208 13.4031 -1.5878 5.28329
171 1 -1.1104 6.45801 -0.297929 6.77303
53 2 2.2208 13.3971 -4.36837 2.39002
361 2 2.2208 2.28666 12.4015 13.6973
342 2 2.2208 -0.386862 12.551 10.823
54 2 2.2208 5.09124 6.84504 5.21035
55 2 2.2208 5.15227 12.4835 5.14132
56 1 -1.1104 0.89428 8.44516 0.937428
58 1 -1.1104 0.950434 8.25029 3.78685
60 1 -1.1104 1.01203 5.53065 1.12382
61 1 -1.1104 0.895425 11.0858 1.0058
66 2 2.2208 5.17555 9.66235 2.40617
67 1 -1.1104 0.815438 5.33658 3.73598
68 1 -1.1104 1.00116 11.1838 3.82064
71 1 -1.1104 3.69498 8.22778 0.988099
72 2 2.2208 2.40661 6.89491 2.50143
73 2 2.2208 2.41378 12.5528 2.39107
74 1 -1.1104 3.78167 8.4005 3.70273
75 2 2.2208 2.23497 9.72553 5.15637
76 1 -1.1104 3.90865 5.42324 1.2152
77 1 -1.1104 3.75357 10.974 0.803084
79 1 -1.1104 3.61089 5.45659 3.91985
80 1 -1.1104 3.70723 11.278 3.79139
69 1 -1.1104 6.46123 5.43802 3.98801
59 1 -1.1104 6.58162 8.2436 3.81161
63 1 -1.1104 6.59149 5.41851 1.05011
70 1 -1.1104 6.57114 11.0728 3.7854
234 1 -1.1104 0.868751 8.23436 6.56305
78 1 -1.1104 3.72593 11.1468 6.60713
65 1 -1.1104 6.43966 10.9189 6.58401
235 1 -1.1104 6.50564 8.20612 6.72289
230 2 2.2208 13.6995 -1.61755 10.835
337 2 2.2208 13.6367 15.2165 5.19752
49 2 2.2208 13.6081 1.27899 2.4667
51 2 2.2208 7.8018 -4.39972 2.57424
165 2 2.2208 13.6734 18.1043 2.41073
57 1 -1.1104 6.60659 8.14945 1.12635
64 1 -1.1104 6.53355 11.1211 1.08301
84 2 2.2208 10.6999 6.85992 5.2374
85 2 2.2208 10.7859 12.5102 5.22707
86 1 -1.1104 12.066 8.30434 1.15685
87 1 -1.1104 11.9602 8.44761 3.86781
88 1 -1.1104 12.0775 5.52592 1.00459
89 1 -1.1104 11.8842 10.9138 0.872422
91 2 2.2208 10.5894 9.82344 2.51552
92 1 -1.1104 12.1748 5.53338 3.84926
93 1 -1.1104 12.0576 11.0972 3.76314
94 1 -1.1104 9.337 8.38414 1.04225
95 2 2.2208 7.97534 6.90214 2.52584
96 2 2.2208 7.84696 12.6409 2.27857
97 1 -1.1104 9.28125 8.38917 3.93433
98 2 2.2208 7.8774 9.70805 5.28917
99 1 -1.1104 9.42215 5.45298 1.22209
100 1 -1.1104 9.24099 11.1952 0.916311
102 1 -1.1104 9.18482 5.39136 3.95518
103 1 -1.1104 9.28881 11.1729 3.72621
27 2 2.2208 -0.50406 4.11588 2.25142
335 2 2.2208 13.4422 9.61548 5.18662
265 1 -1.1104 12.1495 8.14095 6.63327
369 2 2.2208 5.17971 20.9277 13.6233
373 2 2.2208 10.7822 15.1905 13.7223
106 2 2.2208 5.105 18.211 4.99547
107 1 -1.1104 1.1134 13.8664 0.93053
109 1 -1.1104 0.961895 19.3967 1.06343
113 1 -1.1104 0.9347 13.9344 3.80602
114 1 -1.1104 0.966511 19.3217 3.90094
116 1 -1.1104 0.858974 16.6091 1.08982
119 2 2.2208 5.11475 15.3622 2.16808
120 2 2.2208 5.17175 20.8914 2.3201
121 1 -1.1104 0.930832 16.677 3.7627
123 1 -1.1104 3.81107 13.7158 0.898509
125 1 -1.1104 3.72292 19.3999 0.872881
127 2 2.2208 2.33111 18.1185 2.29733
128 1 -1.1104 3.73811 14.0252 3.67556
129 1 -1.1104 3.7592 19.6447 3.75997
130 2 2.2208 2.37795 15.2362 5.11401
131 2 2.2208 2.30418 20.9293 5.1593
132 1 -1.1104 3.77522 16.6718 0.915438
134 1 -1.1104 3.66852 16.7974 3.66359
122 1 -1.1104 6.47365 16.7258 3.63616
110 1 -1.1104 6.51353 13.8148 0.862683
138 1 -1.1104 6.58612 19.6847 0.998672
139 1 -1.1104 6.55689 19.4465 3.58498
140 1 -1.1104 6.60157 16.6655 0.80986
117 1 -1.1104 0.970764 16.6185 6.52342
124 1 -1.1104 3.77352 13.8787 6.7005
111 1 -1.1104 6.56294 13.9827 6.3999
108 1 -1.1104 1.08046 13.9908 6.59988
163 1 -1.1104 9.51759 16.6129 6.4889
112 1 -1.1104 6.60203 19.403 6.39624
388 2 2.2208 7.90174 -1.53262 -0.268037
115 1 -1.1104 6.47209 13.7932 3.64836
141 2 2.2208 10.8457 18.0307 5.13246
142 1 -1.1104 12.0967 13.9392 1.00451
144 1 -1.1104 12.3197 19.5162 0.860267
146 1 -1.1104 12.0817 13.8127 3.78992
147 1 -1.1104 12.2814 19.31 3.84378
148 1 -1.1104 12.2138 16.8159 0.9046
150 2 2.2208 10.6906 15.447 2.2879
151 2 2.2208 10.7505 20.9278 2.28887
152 1 -1.1104 12.2872 16.6199 3.77962
153 1 -1.1104 9.26137 14.0387 0.994287
155 1 -1.1104 9.42444 19.4537 0.855447
157 2 2.2208 8.00709 18.1238 2.24874
158 1 -1.1104 9.43334 14.0153 3.77474
159 1 -1.1104 9.3958 19.4717 3.70579
160 2 2.2208 8.06045 15.3695 5.05025
161 2 2.2208 8.02024 20.8185 5.13105
162 1 -1.1104 9.40907 16.7848 0.870621
164 1 -1.1104 9.4156 16.6842 3.62808
324 2 2.2208 10.8844 20.883 7.98171
306 1 -1.1104 6.46848 16.7252 12.1309
156 1 -1.1104 9.50361 19.3391 6.76602
296 1 -1.1104 6.69849 19.5231 12.329
167 1 -1.1104 1.01488 2.68467 6.64997
174 1 -1.1104 3.55354 -0.264804 6.72737
170 1 -1.1104 0.923646 -0.169182 6.65836
172 1 -1.1104 3.73383 -3.03709 6.67887
173 1 -1.1104 3.8682 2.60466 6.66962
175 2 2.2208 5.19298 1.07227 10.9268
176 1 -1.1104 0.918753 -3.05041 12.3659
177 1 -1.1104 0.820242 2.66311 12.3675
180 1 -1.1104 0.945986 -3.14552 9.71077
181 1 -1.1104 1.09466 2.49962 9.47812
184 1 -1.1104 0.787563 -0.122066 12.1806
186 2 2.2208 5.09225 -1.59143 8.23282
187 2 2.2208 5.14748 4.13945 8.03724
188 1 -1.1104 1.03726 -0.314068 9.37052
190 1 -1.1104 3.68738 -3.03564 12.2489
191 1 -1.1104 3.66843 2.63273 12.1778
192 2 2.2208 2.50874 1.32485 8.01219
193 1 -1.1104 3.88769 -3.08971 9.45552
194 1 -1.1104 3.87684 2.62881 9.50516
195 2 2.2208 2.38578 -1.6938 10.8328
196 2 2.2208 2.37014 4.09293 10.8606
197 1 -1.1104 3.80273 -0.361383 12.3092
198 1 -1.1104 3.72723 -0.200972 9.51126
178 1 -1.1104 6.61507 -3.08692 12.3637
179 1 -1.1104 6.66655 2.60737 12.2827
185 1 -1.1104 6.67335 -0.284462 12.2992
189 1 -1.1104 6.55883 -0.18694 9.57381
168 1 -1.1104 6.5588 -3.09225 6.73632
182 1 -1.1104 6.63021 -2.98712 9.44689
327 1 -1.1104 12.2576 19.4641 9.54411
209 1 -1.1104 9.38027 2.70316 6.56592
318 1 -1.1104 9.33065 19.474 9.46573
143 1 -1.1104 12.194 14.0065 6.5785
229 2 2.2208 13.6346 1.24553 8.02984
183 1 -1.1104 6.58502 2.62565 9.41046
207 1 -1.1104 12.0002 -0.201599 6.69606
208 1 -1.1104 9.354 -3.0682 6.8569
211 2 2.2208 10.914 1.19927 10.8655
212 1 -1.1104 12.0911 -3.15537 12.3246
213 1 -1.1104 12.3311 2.74958 12.0892
214 1 -1.1104 12.1586 -2.98542 9.58395
215 1 -1.1104 12.1841 2.64339 9.40744
216 1 -1.1104 12.2841 -0.0846539 12.1609
217 2 2.2208 10.7141 -1.64875 8.15652
218 2 2.2208 10.6992 4.07939 8.11935
219 1 -1.1104 12.3018 -0.0963014 9.48351
220 1 -1.1104 9.39809 -3.12524 12.2629
221 1 -1.1104 9.32721 2.48719 12.3001
222 2 2.2208 8.00587 1.14591 8.15057
223 1 -1.1104 9.35005 -2.93709 9.55717
224 1 -1.1104 9.35585 2.68833 9.53553
225 2 2.2208 7.99599 -1.68366 10.8316
226 2 2.2208 8.01218 3.97887 10.8533
227 1 -1.1104 9.41352 -0.361626 12.2036
228 1 -1.1104 9.42462 -0.120109 9.48738
316 2 2.2208 7.99601 20.8261 10.8837
328 1 -1.1104 12.2145 13.7495 9.42214
319 1 -1.1104 9.32012 13.8241 9.58272
239 1 -1.1104 3.64097 5.4824 6.72054
238 1 -1.1104 3.72668 8.31907 6.49787
236 1 -1.1104 0.94559 5.56189 6.6167
237 1 -1.1104 6.34451 5.50518 6.69653
62 1 -1.1104 0.976994 11.1308 6.65224
240 2 2.2208 5.14311 6.7999 10.8898
241 2 2.2208 5.057 12.5382 10.8015
242 1 -1.1104 0.906375 8.44204 12.2532
244 1 -1.1104 0.982554 8.19934 9.38478
246 1 -1.1104 1.0185 5.53653 12.281
247 1 -1.1104 0.989566 11.0776 12.2661
250 2 2.2208 5.03739 9.69243 8.0772
251 1 -1.1104 0.878931 5.35976 9.48552
252 1 -1.1104 0.985382 11.1424 9.42904
255 1 -1.1104 3.84144 8.3806 12.2403
256 2 2.2208 2.30693 6.94216 7.96388
257 2 2.2208 2.33845 12.4932 8.00112
258 1 -1.1104 3.71983 8.22139 9.34512
259 2 2.2208 2.29385 9.75081 10.7257
260 1 -1.1104 3.71605 5.40634 12.3195
261 1 -1.1104 3.68698 11.1374 12.1422
262 1 -1.1104 3.63229 5.56913 9.54827
263 1 -1.1104 3.71799 11.089 9.3961
243 1 -1.1104 6.63968 8.29255 12.332
253 1 -1.1104 6.58361 5.4169 9.42021
254 1 -1.1104 6.49289 11.0517 9.21792
245 1 -1.1104 6.48521 8.22994 9.56986
248 1 -1.1104 6.55634 5.41784 12.1903
249 1 -1.1104 6.51011 11.0532 12.2117
331 2 2.2208 10.8131 18.0046 10.9016
338 2 2.2208 13.6695 4.02331 10.7753
267 1 -1.1104 9.33678 8.12869 6.70455
340 2 2.2208 13.5283 12.386 7.97963
339 2 2.2208 13.5206 6.7009 8.04755
90 1 -1.1104 12.2032 11.0941 6.54454
266 1 -1.1104 12.0788 5.40929 6.53474
269 1 -1.1104 9.24441 5.37474 6.75211
101 1 -1.1104 9.2688 11.1053 6.6277
264 1 -1.1104 9.31234 11.0269 9.49552
268 1 -1.1104 9.27226 5.43664 9.43911
270 1 -1.1104 9.34808 11.186 12.1834
271 1 -1.1104 9.43837 5.40656 12.1954
272 2 2.2208 7.92714 9.6816 10.778
273 1 -1.1104 9.38036 8.24535 9.43608
274 2 2.2208 7.9941 12.4344 8.05618
275 2 2.2208 7.85242 6.9068 8.19171
276 2 2.2208 10.756 6.75688 10.9081
277 2 2.2208 10.9595 12.4407 10.8682
278 1 -1.1104 12.1608 8.20013 12.1851
279 1 -1.1104 12.3007 8.07734 9.40338
280 1 -1.1104 12.2769 5.58947 12.2556
281 1 -1.1104 12.1256 11.0259 12.3312
282 2 2.2208 10.826 9.50747 8.01052
283 1 -1.1104 12.201 5.47258 9.5252
284 1 -1.1104 12.186 10.8957 9.51946
285 1 -1.1104 9.4569 8.2504 12.1701
133 1 -1.1104 3.80255 16.7092 6.66741
382 2 2.2208 2.07381 -1.60753 -0.251531
118 1 -1.1104 6.65212 16.6017 6.53874
288 1 -1.1104 6.64134 19.3363 9.30076
289 1 -1.1104 6.44369 16.5274 9.39063
126 1 -1.1104 3.6326 19.5053 6.47576
302 1 -1.1104 0.825403 19.2864 6.74883
309 2 2.2208 2.32903 20.8469 10.8551
308 1 -1.1104 3.72838 16.7313 12.3324
307 1 -1.1104 1.105 16.5493 12.2283
305 1 -1.1104 3.73729 13.8223 9.50795
304 1 -1.1104 3.62752 16.6379 9.43792
303 2 2.2208 2.30089 17.9309 7.97547
301 1 -1.1104 3.75284 19.4157 9.17645
300 2 2.2208 5.12581 18.0658 10.6819
299 1 -1.1104 0.923635 13.7235 12.2317
298 1 -1.1104 0.879536 19.3697 12.3754
295 2 2.2208 5.20106 15.2828 7.91672
294 1 -1.1104 1.0711 13.8257 9.48484
310 2 2.2208 2.53147 15.2251 10.8069
293 2 2.2208 5.1608 20.8062 7.91458
292 1 -1.1104 1.03006 16.5722 9.48795
291 1 -1.1104 0.972075 19.4598 9.62908
287 1 -1.1104 3.75449 13.9126 12.31
286 1 -1.1104 3.74153 19.603 12.0085
322 1 -1.1104 9.41726 13.8506 12.3561
321 1 -1.1104 9.32743 19.3502 12.2093
323 1 -1.1104 12.1416 16.6387 9.56734
315 1 -1.1104 9.43111 16.5932 12.208
145 1 -1.1104 12.2248 19.5608 6.63865
329 1 -1.1104 12.1951 19.3293 12.2381
290 1 -1.1104 6.50621 13.7327 9.45228
345 2 2.2208 13.5628 20.9458 10.8792
154 1 -1.1104 9.38516 13.7937 6.67345
149 1 -1.1104 12.1557 16.7502 6.7906
325 2 2.2208 10.645 15.2777 8.05311
317 2 2.2208 7.93418 15.226 10.8362
320 2 2.2208 7.93799 17.9621 8.04325
330 1 -1.1104 12.3694 13.7789 12.2784
326 1 -1.1104 12.1597 16.6602 12.2682
297 1 -1.1104 6.47346 13.808 12.3087
314 1 -1.1104 9.23191 16.6566 9.40776
104 2 2.2208 13.5287 12.3912 2.35183
332 2 2.2208 13.55 17.9388 7.98259
368 2 2.2208 2.39822 18.0896 13.592
105 2 2.2208 13.5371 6.89998 2.47248
336 2 2.2208 13.6408 20.9212 5.16109
403 2 2.2208 2.37662 15.2704 -0.50982
355 2 2.2208 8.08619 1.17623 13.7188
376 2 2.2208 7.93748 18.0879 13.5713
402 2 2.2208 13.4612 9.76887 -0.348376
385 2 2.2208 5.11226 -4.29606 -0.292725
392 2 2.2208 13.5309 4.10153 -0.300713
352 2 2.2208 5.14 4.01522 13.7461
364 2 2.2208 10.8051 9.57504 13.5655
398 2 2.2208 10.771 6.9532 -0.18601
389 2 2.2208 8.01174 4.12606 -0.342722
391 2 2.2208 13.537 -1.49181 -0.477903
366 2 2.2208 13.6627 6.89536 13.5344
349 2 2.2208 2.30676 1.2147 13.5134
370 2 2.2208 13.5781 1.27975 13.6336
406 2 2.2208 5.20566 1.15467 16.469
407 1 -1.1104 1.20028 -2.9683 17.9882
408 1 -1.1104 0.962383 2.64233 17.8907
411 1 -1.1104 0.882718 -3.07297 15.1875
413 1 -1.1104 0.833748 2.50724 15.0052
419 1 -1.1104 1.12063 -0.214314 17.8608
421 2 2.2208 5.17506 -1.66086 19.3457
422 2 2.2208 5.20781 3.95801 19.2753
423 1 -1.1104 0.879324 -0.245668 15.0297
427 1 -1.1104 3.90299 -3.01341 17.8514
428 1 -1.1104 3.81355 2.5556 17.8631
429 2 2.2208 2.40137 1.16523 19.226
430 1 -1.1104 3.80603 -3.03605 14.9277
432 1 -1.1104 3.8115 2.59064 15.0664
434 2 2.2208 2.46295 -1.53782 16.4643
435 2 2.2208 2.44345 4.05451 16.4639
436 1 -1.1104 3.83607 -0.277731 17.9349
437 1 -1.1104 3.63371 -0.257171 15.0579
409 1 -1.1104 6.6253 -3.07829 17.9287
433 1 -1.1104 3.75284 2.6043 20.7038
420 1 -1.1104 6.58933 -0.19016 17.951
415 1 -1.1104 6.58186 -3.01636 15.194
410 1 -1.1104 6.65245 2.63572 17.8727
425 1 -1.1104 6.41315 -0.364867 15.1415
374 2 2.2208 13.5259 15.2811 27.6638
579 2 2.2208 13.6157 4.12293 16.4509
399 2 2.2208 7.8761 9.79944 27.8598
414 1 -1.1104 0.922543 2.58336 20.6735
477 2 2.2208 13.6701 -1.55695 16.5403
426 1 -1.1104 6.5477 -0.106616 20.8821
728 2 2.2208 13.4665 6.90399 24.7974
417 1 -1.1104 6.47308 2.59219 15.1467
669 2 2.2208 7.89996 -4.36222 24.9404
449 2 2.2208 10.879 1.2658 16.4205
450 1 -1.1104 12.2466 -2.95888 17.9249
451 1 -1.1104 12.3083 2.63069 17.768
452 1 -1.1104 12.1864 -2.86933 15.0953
454 1 -1.1104 12.2697 2.72039 15.0297
456 1 -1.1104 12.1035 -0.284413 17.9987
457 2 2.2208 10.7981 -1.59499 19.2826
458 2 2.2208 10.8026 4.1474 19.1073
459 1 -1.1104 12.1569 -0.188793 15.0783
461 1 -1.1104 9.37766 -3.00112 17.8789
462 1 -1.1104 9.53498 2.61232 17.8034
463 2 2.2208 7.95482 1.19632 19.3394
464 1 -1.1104 9.35091 -3.09585 15.0175
466 1 -1.1104 9.48868 2.5763 15.098
468 2 2.2208 7.96619 -1.60567 16.4071
469 2 2.2208 8.06012 4.01597 16.5079
470 1 -1.1104 9.3734 -0.124077 17.8491
471 1 -1.1104 9.22476 -0.299793 15.0046
453 1 -1.1104 11.9929 -3.1425 20.6381
474 2 2.2208 10.7358 -4.26156 16.5613
393 2 2.2208 5.358 6.89005 27.7198
455 1 -1.1104 12.1994 2.52964 20.5694
472 1 -1.1104 9.36615 -0.172991 20.7595
517 2 2.2208 13.6813 12.3752 19.1602
379 2 2.2208 8.09051 20.9664 27.5685
578 2 2.2208 13.5754 1.17043 19.3513
482 2 2.2208 5.08285 6.86038 16.5411
483 2 2.2208 5.24845 12.4446 16.5068
484 1 -1.1104 0.962697 8.24208 17.9414
486 1 -1.1104 0.970079 8.16838 14.9645
490 1 -1.1104 1.12011 5.49289 17.918
491 1 -1.1104 1.08235 11.1585 17.7269
494 2 2.2208 5.16828 9.74396 19.1992
495 1 -1.1104 0.968178 5.28258 15.0694
497 1 -1.1104 0.894299 11.0163 15.0089
503 1 -1.1104 3.79403 8.22106 17.9227
504 2 2.2208 2.46753 6.84297 19.4427
505 2 2.2208 2.47991 12.479 19.2305
506 1 -1.1104 3.69218 8.19699 15.0049
508 2 2.2208 2.32448 9.64282 16.4555
509 1 -1.1104 3.84113 5.33128 17.8894
510 1 -1.1104 3.75839 11.0186 17.7923
511 1 -1.1104 3.83217 5.42745 15.0861
513 1 -1.1104 3.59687 10.9282 15.0305
485 1 -1.1104 6.56657 8.20071 17.749
496 1 -1.1104 0.829448 5.2273 20.7329
499 1 -1.1104 6.57678 5.36842 14.9438
492 1 -1.1104 6.54048 5.42767 17.9721
493 1 -1.1104 6.63685 11.0061 17.9422
507 1 -1.1104 3.73568 8.31751 20.6444
498 1 -1.1104 1.0666 11.0814 20.5268
592 1 -1.1104 12.3278 16.6063 20.6305
512 1 -1.1104 3.85134 5.39269 20.7185
445 2 2.2208 13.6087 9.5754 22.0454
726 2 2.2208 13.5485 12.4048 24.8384
501 1 -1.1104 6.44025 10.9856 15.1601
488 1 -1.1104 6.50827 8.17416 15.0957
518 2 2.2208 10.9459 6.88845 16.4634
519 2 2.2208 10.8761 12.5293 16.4207
520 1 -1.1104 12.2854 8.27788 17.8976
521 1 -1.1104 12.1649 8.28177 15.0422
523 1 -1.1104 12.2795 5.61726 17.8175
524 1 -1.1104 12.2627 11.0644 17.8368
525 2 2.2208 10.7998 9.74576 19.1998
526 1 -1.1104 12.2557 5.44332 14.9835
528 1 -1.1104 12.1136 11.0976 15.0374
530 1 -1.1104 9.49141 8.55564 17.7788
531 2 2.2208 7.99907 6.88833 19.2039
532 2 2.2208 7.96026 12.4971 19.2523
533 1 -1.1104 9.34954 8.19883 14.9545
535 2 2.2208 7.99296 9.59444 16.3865
536 1 -1.1104 9.40985 5.57866 17.7834
537 1 -1.1104 9.29787 11.302 17.8523
538 1 -1.1104 9.47429 5.22681 15.0827
540 1 -1.1104 9.28103 10.9675 14.9945
357 2 2.2208 11.0325 4.08294 13.5296
543 2 2.2208 13.6125 9.58126 16.4185
478 2 2.2208 13.6847 20.7685 16.5311
672 2 2.2208 13.4936 1.28485 25.009
545 2 2.2208 5.22472 17.9927 16.4933
546 1 -1.1104 1.02787 14.0405 17.8555
547 1 -1.1104 1.1716 19.5716 17.7412
550 1 -1.1104 0.974341 13.7411 14.9861
552 1 -1.1104 0.96088 19.3875 15.056
558 1 -1.1104 0.869747 16.8106 17.9358
560 2 2.2208 5.24627 15.2896 19.0951
561 2 2.2208 5.33089 20.841 19.1241
562 1 -1.1104 1.03047 16.675 14.8895
566 1 -1.1104 3.93162 13.7624 17.8246
567 1 -1.1104 3.95428 19.4218 17.8115
568 2 2.2208 2.34402 18.0504 19.3318
569 1 -1.1104 3.86784 13.7418 15.1026
571 1 -1.1104 3.6643 19.5586 14.9176
573 2 2.2208 2.41444 15.3962 16.479
574 2 2.2208 2.4103 20.9106 16.3795
575 1 -1.1104 3.76358 16.6723 18.0099
576 1 -1.1104 3.94502 16.5586 15.1215
551 1 -1.1104 0.933973 14.0288 20.7681
577 1 -1.1104 3.93703 16.4412 20.6208
559 1 -1.1104 6.59392 16.624 17.7463
564 1 -1.1104 6.72733 16.6579 14.9892
725 2 2.2208 -0.413927 15.2077 24.9162
563 1 -1.1104 1.01936 16.677 20.7221
557 1 -1.1104 6.75076 19.2464 20.5763
553 1 -1.1104 0.947194 19.4571 20.5923
572 1 -1.1104 3.83448 19.3248 20.5809
570 1 -1.1104 3.61816 13.8647 20.6404
641 2 2.2208 10.9258 20.9228 24.8649
698 1 -1.1104 9.56066 19.5905 26.0763
565 1 -1.1104 6.75997 16.5897 20.6055
700 2 2.2208 7.97232 20.8202 22.0012
607 2 2.2208 10.9968 18.0339 22.0195
556 1 -1.1104 6.64102 19.4961 15.0302
554 1 -1.1104 6.64662 13.7642 14.9726
548 1 -1.1104 6.58767 13.9791 17.7441
549 1 -1.1104 6.73687 19.413 17.7947
581 2 2.2208 10.9175 18.1083 16.4346
582 1 -1.1104 12.2225 13.9527 17.9172
583 1 -1.1104 12.2899 19.5 17.9329
584 1 -1.1104 12.3387 13.92 15.0428
586 1 -1.1104 12.2931 19.4788 15.1651
588 1 -1.1104 12.3093 16.6275 17.7885
589 2 2.2208 10.8802 15.288 19.2236
590 2 2.2208 10.8288 20.8125 19.2323
591 1 -1.1104 12.2081 16.5819 15.0425
593 1 -1.1104 9.51916 13.8733 17.8027
594 1 -1.1104 9.47793 19.4092 17.7236
595 2 2.2208 8.12973 18.1057 19.2196
596 1 -1.1104 9.47659 13.9152 15.094
598 1 -1.1104 9.4925 19.3936 14.9692
600 2 2.2208 7.99929 15.2107 16.3757
601 2 2.2208 8.1151 20.848 16.3747
602 1 -1.1104 9.42931 16.6353 17.8365
603 1 -1.1104 9.49463 16.5787 14.9362
599 1 -1.1104 9.51437 19.5039 20.594
383 2 2.2208 2.35492 4.12723 27.8209
446 2 2.2208 13.5055 4.14187 22.0219
412 1 -1.1104 0.961268 -2.80208 20.7906
431 1 -1.1104 3.66984 -3.02832 20.8443
424 1 -1.1104 0.920844 -0.151646 20.7784
418 1 -1.1104 6.44154 2.69386 20.6988
416 1 -1.1104 6.46596 -2.98436 20.6558
438 1 -1.1104 3.68497 -0.177102 20.7748
609 2 2.2208 5.068 1.32659 22.1451
610 1 -1.1104 0.798938 -2.98436 23.5836
611 1 -1.1104 0.842314 2.6765 23.4309
614 1 -1.1104 0.788882 -2.95575 26.2777
615 1 -1.1104 0.900441 2.64644 26.3029
618 1 -1.1104 0.881511 -0.100978 23.5394
620 2 2.2208 5.12078 -1.60992 24.9332
621 2 2.2208 5.12307 4.14943 24.9447
622 1 -1.1104 0.865698 -0.146973 26.327
624 1 -1.1104 3.64575 -3.15244 23.6427
625 1 -1.1104 3.74492 2.66884 23.4877
626 2 2.2208 2.42941 1.1101 24.9219
627 1 -1.1104 3.50078 -2.91719 26.3988
628 1 -1.1104 3.60193 2.72086 26.309
629 2 2.2208 2.45636 -1.6324 22.2466
630 2 2.2208 2.28277 4.00402 22.0337
631 1 -1.1104 3.78544 -0.201798 23.598
632 1 -1.1104 3.70596 0.0257179 26.4776
612 1 -1.1104 6.50371 -2.8474 23.4876
616 1 -1.1104 6.55903 -2.86668 26.2321
617 1 -1.1104 6.41233 2.80064 26.3942
613 1 -1.1104 6.55252 2.72179 23.5987
623 1 -1.1104 6.58777 -0.112893 26.4671
619 1 -1.1104 6.42984 -0.0225488 23.764
634 1 -1.1104 12.1147 13.8192 26.2904
460 1 -1.1104 12.0954 -0.179936 20.7703
747 1 -1.1104 6.59602 16.6763 23.3523
635 1 -1.1104 12.3203 19.6261 26.2491
467 1 -1.1104 9.29299 2.62916 20.6432
465 1 -1.1104 9.2444 -3.10766 20.7122
645 2 2.2208 10.7272 1.23767 22.1624
646 1 -1.1104 12.2316 -3.02066 23.5539
647 1 -1.1104 12.2099 2.60243 23.5027
648 1 -1.1104 12.0279 -3.03982 26.3339
649 1 -1.1104 12.0545 2.72977 26.2855
650 1 -1.1104 12.1119 -0.14155 23.4557
651 2 2.2208 10.7034 -1.51406 24.9115
652 2 2.2208 10.8338 4.15078 24.8029
653 1 -1.1104 12.1558 -0.0756302 26.3513
654 1 -1.1104 9.23727 -2.97023 23.4488
655 1 -1.1104 9.38734 2.57043 23.3853
656 2 2.2208 7.80992 1.33487 24.9375
657 1 -1.1104 9.43931 -2.8674 26.2761
658 1 -1.1104 9.31023 2.75342 26.1935
659 2 2.2208 7.95262 -1.59013 22.1356
660 2 2.2208 7.88847 4.12563 22.0256
661 1 -1.1104 9.18386 -0.19865 23.5417
662 1 -1.1104 9.34003 -0.119275 26.445
704 1 -1.1104 9.3754 16.7945 26.1113
514 1 -1.1104 3.73277 11.1805 20.6285
487 1 -1.1104 1.02718 8.19909 20.6975
674 2 2.2208 4.98866 6.84705 22.0221
675 2 2.2208 5.1214 12.5216 21.983
676 1 -1.1104 0.925104 8.27552 23.4264
678 1 -1.1104 0.92387 8.34267 26.2267
680 1 -1.1104 1.09767 5.59542 23.4799
681 1 -1.1104 0.993129 11.1198 23.3473
684 2 2.2208 5.09069 9.69438 24.7698
685 1 -1.1104 0.965105 5.63125 26.3197
686 1 -1.1104 0.946507 10.9453 26.3728
689 1 -1.1104 3.65983 8.35474 23.5471
690 2 2.2208 2.34272 6.89809 24.9276
691 2 2.2208 2.26271 12.4894 24.8542
692 1 -1.1104 3.84571 8.20296 26.2323
693 2 2.2208 2.36772 9.70433 22.0944
694 1 -1.1104 3.72436 5.42489 23.5549
695 1 -1.1104 3.78371 11.3284 23.3813
696 1 -1.1104 3.71405 5.58526 26.4085
697 1 -1.1104 3.85213 11.0933 26.2029
683 1 -1.1104 6.51082 11.1437 23.3902
687 1 -1.1104 6.65752 5.48169 26.2098
682 1 -1.1104 6.37006 5.44327 23.4461
677 1 -1.1104 6.47163 8.23047 23.3889
671 2 2.2208 13.4016 -1.62589 22.0653
527 1 -1.1104 12.12 5.42185 20.4594
381 2 2.2208 5.08814 1.34086 27.8151
405 2 2.2208 2.23704 20.7913 27.6743
633 1 -1.1104 12.4056 19.6068 23.5616
500 1 -1.1104 6.5043 5.49668 20.764
679 1 -1.1104 6.61978 8.45153 26.3641
522 1 -1.1104 12.144 8.23224 20.6125
539 1 -1.1104 9.41961 5.46172 20.441
529 1 -1.1104 12.2257 10.892 20.7631
502 1 -1.1104 6.63624 11.0124 20.6881
541 1 -1.1104 9.42391 11.0127 20.5491
489 1 -1.1104 6.47066 8.21827 20.489
688 1 -1.1104 6.68937 11.2629 26.2296
534 1 -1.1104 9.31109 8.2531 20.5194
705 1 -1.1104 9.27239 11.0389 26.2228
706 1 -1.1104 9.46614 5.59808 26.3602
707 1 -1.1104 9.44657 10.8247 23.2953
708 1 -1.1104 9.21729 5.51568 23.4077
709 2 2.2208 7.91176 9.57262 22.0779
710 1 -1.1104 9.30753 8.29884 26.3524
711 2 2.2208 7.80297 12.4721 24.6988
712 2 2.2208 8.00643 7.03065 24.8801
713 2 2.2208 10.7615 6.97135 21.9346
714 2 2.2208 10.8112 12.4538 22.05
715 1 -1.1104 12.1934 8.14589 23.4246
716 1 -1.1104 12.1764 8.27093 26.3873
717 1 -1.1104 11.9862 5.38621 23.2681
718 1 -1.1104 12.1045 10.9954 23.4272
719 2 2.2208 10.6989 9.78116 24.9028
720 1 -1.1104 12.2292 5.46472 26.2131
721 1 -1.1104 12.166 11.0628 26.2652
722 1 -1.1104 9.39139 8.21804 23.3972
400 2 2.2208 10.6137 12.5065 27.7214
555 1 -1.1104 6.54281 13.7953 20.4901
608 1 -1.1104 12.1257 14.0358 23.446
736 1 -1.1104 6.64625 19.5573 23.242
746 1 -1.1104 3.74857 13.8508 26.2307
745 1 -1.1104 3.78069 16.676 26.297
744 2 2.2208 2.35157 18.0484 24.8103
743 1 -1.1104 3.78436 19.4101 26.1624
750 2 2.2208 2.54215 20.8461 21.9132
749 1 -1.1104 3.70491 16.723 23.445
748 1 -1.1104 0.883613 16.5434 23.4159
727 2 2.2208 2.33016 15.269 22.0206
729 1 -1.1104 3.85294 19.4817 23.4748
731 1 -1.1104 3.69445 13.9631 23.3417
733 1 -1.1104 0.908975 19.4001 26.33
734 1 -1.1104 1.03591 16.5936 26.3769
735 1 -1.1104 0.844876 13.8331 26.2682
737 2 2.2208 5.26041 20.8481 24.8363
738 2 2.2208 5.13989 15.281 24.6836
740 1 -1.1104 0.929984 19.5563 23.4163
741 1 -1.1104 0.865103 13.7454 23.4667
742 2 2.2208 5.18515 17.9136 21.9524
730 1 -1.1104 6.56037 13.9389 26.1329
670 1 -1.1104 6.69077 19.4748 26.1765
732 1 -1.1104 6.58787 16.6523 26.2091
739 1 -1.1104 6.56346 13.8962 23.193
636 1 -1.1104 12.194 16.8027 23.5063
665 1 -1.1104 9.45579 19.3059 23.2998
699 2 2.2208 8.0968 15.2226 21.9442
673 1 -1.1104 9.33152 13.8754 26.26
587 1 -1.1104 12.2885 19.5231 20.6304
585 1 -1.1104 12.2424 13.7659 20.733
667 2 2.2208 8.01936 18.0463 24.718
701 1 -1.1104 9.38998 16.6078 23.3374
638 2 2.2208 10.8278 15.3266 24.7796
597 1 -1.1104 9.23507 13.8481 20.435
604 1 -1.1104 9.61735 16.8155 20.7759
664 1 -1.1104 9.41829 13.7965 23.3129
663 1 -1.1104 12.1228 16.6098 26.2135
348 2 2.2208 5.26921 -1.70435 13.6713
542 2 2.2208 13.6184 6.87908 19.1855
394 2 2.2208 2.39339 9.63004 27.7517
404 2 2.2208 5.27515 18.2391 27.5121
365 2 2.2208 8.02822 12.3828 13.6593
356 2 2.2208 10.8227 -1.68608 13.6883
395 2 2.2208 5.12584 12.4337 27.5235
359 2 2.2208 2.33889 7.01387 13.6397
387 2 2.2208 10.6786 1.37825 27.7185
372 2 2.2208 10.8195 20.8088 13.6822
360 2 2.2208 5.1321 9.73448 13.7018
378 2 2.2208 10.9688 18.1635 27.5575
363 2 2.2208 7.9292 6.82933 13.6018
371 2 2.2208 5.20947 15.1734 13.6156
377 2 2.2208 7.95485 15.289 27.4665
751 2 2.2208 5.14675 23.6337 5.23736
752 2 2.2208 5.08498 29.1643 5.27433
753 1 -1.1104 0.890501 24.988 1.04232
754 1 -1.1104 0.90023 25.1161 3.87128
755 1 -1.1104 0.854032 22.1961 0.96272
756 1 -1.1104 0.916731 27.7454 1.00001
757 2 2.2208 5.15723 26.3947 2.40623
758 1 -1.1104 0.872778 22.2192 3.64583
759 1 -1.1104 0.907499 27.8158 3.86894
760 1 -1.1104 3.5419 24.8111 0.882164
761 2 2.2208 2.19151 23.6102 2.35955
762 2 2.2208 2.31072 29.1672 2.30662
763 1 -1.1104 3.57488 25.1546 3.68107
764 2 2.2208 2.38774 26.4376 5.17571
765 1 -1.1104 3.84028 22.0612 1.01522
766 1 -1.1104 3.71361 27.8192 0.917306
767 1 -1.1104 3.81072 22.3472 3.64573
768 1 -1.1104 3.80303 27.8009 3.72245
892 1 -1.1104 0.947267 24.9748 6.70423
900 1 -1.1104 3.66638 27.6909 6.59251
774 1 -1.1104 6.71542 22.2799 0.928686
775 1 -1.1104 6.44616 27.9376 1.05435
773 1 -1.1104 6.50131 24.9612 3.79436
772 1 -1.1104 6.45447 25.1419 0.921972
776 1 -1.1104 6.65139 22.2142 3.69266
777 1 -1.1104 6.6246 27.7133 3.84915
899 1 -1.1104 3.92372 22.2375 6.54256
898 1 -1.1104 3.72866 24.9759 6.52504
896 1 -1.1104 6.53446 22.2909 6.63807
1084 1 -1.1104 6.60731 47.0935 9.16666
1086 1 -1.1104 9.20134 47.1468 6.4631
1897 3 0 13.0057 47.3178 11.0028
1674 1 -1.1104 6.57566 47.7785 6.62582
778 2 2.2208 10.9172 23.718 5.25677
779 2 2.2208 10.8134 29.1535 5.18911
780 1 -1.1104 12.1816 25.0106 1.0034
781 1 -1.1104 12.1864 24.9943 3.8324
782 1 -1.1104 12.2078 22.1739 0.887029
783 1 -1.1104 12.1205 27.8539 0.907636
784 2 2.2208 10.7201 26.4507 2.36292
785 1 -1.1104 12.2944 22.2059 3.88277
786 1 -1.1104 12.1226 27.8294 3.72942
787 1 -1.1104 9.33444 25.1186 1.10832
788 2 2.2208 8.04968 23.5994 2.44574
789 2 2.2208 7.9541 29.3157 2.27962
790 1 -1.1104 9.37851 25.0803 3.87176
791 2 2.2208 7.97871 26.4224 5.2502
792 1 -1.1104 9.40251 22.3081 0.959297
793 1 -1.1104 9.4971 28.0868 0.949628
794 1 -1.1104 9.45809 22.1829 3.80677
795 1 -1.1104 9.48778 27.7904 3.61312
930 1 -1.1104 9.22134 27.8796 6.65925
925 1 -1.1104 12.1738 25.0469 6.7197
1017 1 -1.1104 6.53253 44.5998 12.1195
1070 2 2.2208 13.5699 26.4981 10.915
928 1 -1.1104 9.48881 25.0109 6.68414
926 1 -1.1104 12.2491 22.2645 6.6016
10311 2 2.2208 13.6228 45.725 7.72747
890 2 2.2208 13.5917 46.0461 2.32165
799 2 2.2208 5.13125 34.7746 5.16932
800 1 -1.1104 0.933175 30.6149 0.941004
801 1 -1.1104 0.94254 36.0698 1.04865
803 1 -1.1104 0.997116 30.6528 3.69798
804 1 -1.1104 0.946713 36.2093 3.76232
806 1 -1.1104 0.769572 33.3103 0.830852
807 2 2.2208 5.18713 32.0313 2.4076
808 2 2.2208 5.2367 37.7364 2.49553
809 1 -1.1104 0.728546 33.2492 3.72208
811 1 -1.1104 3.75037 30.673 1.0578
812 1 -1.1104 3.7793 36.3979 0.937322
813 2 2.2208 2.32273 34.6807 2.44757
814 1 -1.1104 3.77767 30.5956 3.90369
815 1 -1.1104 3.81199 36.1152 3.78658
816 2 2.2208 2.33863 31.9381 5.25206
817 2 2.2208 2.33934 37.5521 5.22973
818 1 -1.1104 3.70986 33.4973 1.00919
819 1 -1.1104 3.62731 33.3835 3.77099
824 1 -1.1104 6.51034 30.5798 3.84189
957 1 -1.1104 3.74975 33.282 6.63274
810 1 -1.1104 6.49737 33.3797 3.86176
823 1 -1.1104 6.53905 30.7982 0.896484
1113 2 2.2208 13.7745 40.4917 13.6248
798 2 2.2208 13.4964 26.431 5.14819
949 1 -1.1104 0.977986 30.5629 6.4535
953 1 -1.1104 1.00078 33.5061 6.69199
952 1 -1.1104 6.65265 36.3208 6.71885
1093 2 2.2208 7.98641 23.6391 13.5549
1066 2 2.2208 13.6778 43.3515 10.7644
1051 1 -1.1104 9.54624 41.8611 12.151
1137 2 2.2208 2.29285 43.3417 -0.311326
825 1 -1.1104 6.5492 33.5617 0.948659
802 1 -1.1104 6.52984 36.2667 1.23861
805 1 -1.1104 6.58866 36.3064 3.91291
826 2 2.2208 10.893 34.7441 5.17183
827 1 -1.1104 12.1837 30.6591 0.892561
828 1 -1.1104 12.2997 36.3169 1.05114
829 1 -1.1104 12.1132 30.4847 3.72675
830 1 -1.1104 12.0235 36.0656 3.66961
831 1 -1.1104 12.2163 33.4806 1.08858
832 2 2.2208 10.7681 32.1487 2.34798
833 2 2.2208 10.8278 37.5803 2.43418
834 1 -1.1104 12.1718 33.2243 3.78355
835 1 -1.1104 9.3032 30.8982 1.05076
836 1 -1.1104 9.56322 36.2719 1.02594
837 2 2.2208 7.88234 34.8227 2.44706
838 1 -1.1104 9.33122 30.7558 3.90795
839 1 -1.1104 9.35514 36.1544 3.87606
840 2 2.2208 7.97435 31.9335 5.25085
841 2 2.2208 8.16853 37.7002 5.19418
842 1 -1.1104 9.40365 33.5762 1.00577
843 1 -1.1104 9.33453 33.4789 3.75392
983 1 -1.1104 12.1514 30.5291 6.4957