ITEM: TIMESTEP
70000
ITEM: NUMBER OF ATOMS
17732
ITEM: BOX BOUNDS pp pp pp
-3.5826363814974738e-01 2.7698263638150326e+01
-4.4629636658489638e+00 3.3254296366585680e+02
-3.6844317107070756e-01 2.7708443171070908e+01
ITEM: ATOMS id type q x y z
1 2 2.2208 5.50584 1.10911 5.24016
2 1 -1.1104 1.39103 -3.1544 1.25646
3 1 -1.1104 1.2081 2.41338 1.08511
6 1 -1.1104 1.31606 -2.90435 3.9631
7 1 -1.1104 1.26146 2.60484 3.90994
10 1 -1.1104 1.24521 -0.245186 1.34897
12 2 2.2208 5.3854 -1.67058 2.36417
13 2 2.2208 5.32981 3.95641 2.33306
14 1 -1.1104 1.44093 -0.150538 4.07316
16 1 -1.1104 4.14206 -3.00957 1.09867
17 1 -1.1104 4.10327 2.59913 1.02172
18 2 2.2208 2.67542 1.16321 2.57299
19 1 -1.1104 4.03707 -2.94696 3.78451
20 1 -1.1104 4.16106 2.48172 3.91597
21 2 2.2208 2.76807 -1.61883 5.29938
22 2 2.2208 2.57348 4.0651 5.22184
23 1 -1.1104 4.01125 -0.21432 1.1343
24 1 -1.1104 4.0691 -0.270929 3.94767
174 1 -1.1104 4.09021 -0.18305 6.73999
170 1 -1.1104 1.38658 -0.387694 6.8204
11 1 -1.1104 6.79194 -0.419963 1.02251
203 2 2.2208 5.49698 -4.6018 10.9258
334 2 2.2208 13.8138 3.95682 5.29136
25 2 2.2208 -0.150688 -1.64279 2.64044
166 1 -1.1104 1.2624 -3.13305 6.68536
377 2 2.2208 8.06747 15.0586 -0.384734
319 1 -1.1104 9.68083 13.7859 9.47069
201 2 2.2208 -0.198477 0.972062 10.9214
9 1 -1.1104 7.00455 2.70576 3.67887
8 1 -1.1104 6.83045 -3.00316 3.7437
4 1 -1.1104 6.89618 -3.05254 1.02072
5 1 -1.1104 6.78642 2.50363 0.878361
15 1 -1.1104 6.81298 -0.241379 3.8508
31 2 2.2208 11.0598 1.20754 5.3148
32 1 -1.1104 12.4667 -3.08246 1.0759
33 1 -1.1104 12.5099 2.55489 1.00727
34 1 -1.1104 12.5184 -3.08471 3.92417
35 1 -1.1104 12.4904 2.58809 3.82414
36 1 -1.1104 12.4719 -0.200959 1.05619
37 2 2.2208 11.1166 -1.58399 2.41092
39 1 -1.1104 12.4607 -0.203457 3.81909
40 1 -1.1104 9.77346 -3.058 1.06484
41 1 -1.1104 9.63665 2.35523 1.07541
42 2 2.2208 8.20841 1.14809 2.50741
43 1 -1.1104 9.685 -3.04877 3.91927
44 1 -1.1104 9.70181 2.53851 3.77911
45 2 2.2208 8.30958 -1.64438 5.26593
46 2 2.2208 8.18007 3.98497 5.16211
47 1 -1.1104 9.46361 -0.356615 1.11453
48 1 -1.1104 9.62463 -0.297493 4.02025
38 2 2.2208 11.1383 3.95673 2.31518
379 2 2.2208 8.14605 20.775 -0.334836
29 2 2.2208 5.50729 -4.53165 5.37622
342 2 2.2208 -0.129365 12.3579 10.8492
324 2 2.2208 11.0186 20.7057 8.2136
325 2 2.2208 11.0406 15.1983 8.04139
28 2 2.2208 2.63174 -4.48268 2.5882
401 2 2.2208 -0.177066 17.9646 -0.278954
54 2 2.2208 5.30721 6.68855 5.18495
55 2 2.2208 5.29385 12.3194 5.35839
56 1 -1.1104 1.34207 8.13236 0.986617
58 1 -1.1104 1.14424 8.05464 3.76506
60 1 -1.1104 1.2326 5.35919 1.04998
61 1 -1.1104 1.10942 10.8726 1.01258
66 2 2.2208 5.51197 9.64102 2.48039
67 1 -1.1104 1.19776 5.35703 3.72407
68 1 -1.1104 1.14754 10.8857 3.91945
71 1 -1.1104 4.06784 8.25621 1.02703
72 2 2.2208 2.51711 6.80862 2.30026
73 2 2.2208 2.71023 12.3469 2.483
74 1 -1.1104 4.0023 8.16396 3.97407
75 2 2.2208 2.56313 9.45701 5.27813
76 1 -1.1104 3.8696 5.5422 1.0155
77 1 -1.1104 3.99909 10.9687 1.14136
79 1 -1.1104 4.07378 5.28823 3.78169
80 1 -1.1104 3.97692 10.9431 3.9594
69 1 -1.1104 6.7485 5.3835 3.71738
82 2 2.2208 -0.274267 9.57721 2.40147
70 1 -1.1104 6.83907 10.9244 3.91443
396 2 2.2208 -0.116236 12.4132 -0.344755
83 2 2.2208 -0.143438 12.4248 5.29196
239 1 -1.1104 3.95869 5.40877 6.62434
238 1 -1.1104 4.00539 8.0786 6.78506
62 1 -1.1104 1.24244 11.1026 6.74003
381 2 2.2208 5.40361 1.06104 -0.313427
163 1 -1.1104 9.62358 16.4992 6.72449
57 1 -1.1104 6.86835 8.24905 1.27702
59 1 -1.1104 6.73304 8.02854 3.84857
63 1 -1.1104 6.6987 5.29143 0.872475
64 1 -1.1104 6.89114 10.9639 1.04075
84 2 2.2208 11.0883 6.68316 5.22282
85 2 2.2208 11.0149 12.2045 5.2461
86 1 -1.1104 12.4181 8.07392 1.02157
87 1 -1.1104 12.3596 8.09456 3.87417
88 1 -1.1104 12.4012 5.29735 0.992766
89 1 -1.1104 12.3917 10.8843 1.2693
91 2 2.2208 10.9541 9.38417 2.50684
92 1 -1.1104 12.4752 5.27689 3.97577
93 1 -1.1104 12.3193 10.8623 3.95936
94 1 -1.1104 9.48374 7.96807 0.862376
95 2 2.2208 8.25289 6.75141 2.38672
96 2 2.2208 8.18403 12.2279 2.40016
97 1 -1.1104 9.56111 8.0755 3.75559
98 2 2.2208 8.18967 9.47958 5.21081
99 1 -1.1104 9.60799 5.22095 0.987593
100 1 -1.1104 9.7391 10.9358 1.11026
102 1 -1.1104 9.61242 5.38463 3.77882
103 1 -1.1104 9.51529 10.8177 3.90284
321 1 -1.1104 9.49997 19.4285 12.4126
235 1 -1.1104 6.80825 8.16002 6.74743
330 1 -1.1104 12.4172 13.7452 12.3242
267 1 -1.1104 9.60591 8.11729 6.51445
26 2 2.2208 -0.15373 1.12451 5.37389
135 2 2.2208 -0.13997 15.1516 2.46432
106 2 2.2208 5.44157 17.866 5.35398
107 1 -1.1104 1.18248 13.9184 0.876725
109 1 -1.1104 1.2826 19.5172 1.00986
113 1 -1.1104 1.17585 13.6593 3.73274
114 1 -1.1104 1.12972 19.2557 3.83845
116 1 -1.1104 1.13332 16.5598 1.15311
119 2 2.2208 5.41102 15.2322 2.55565
120 2 2.2208 5.29332 20.7589 2.43976
121 1 -1.1104 1.24688 16.5326 3.96335
123 1 -1.1104 4.06311 13.8111 1.10073
125 1 -1.1104 4.0434 19.3496 0.948767
127 2 2.2208 2.61325 17.963 2.35645
128 1 -1.1104 4.12361 13.7721 4.0037
129 1 -1.1104 3.94244 19.3836 3.98134
130 2 2.2208 2.67932 15.3451 5.34109
131 2 2.2208 2.62211 20.7261 5.34372
132 1 -1.1104 4.00964 16.5983 0.963074
134 1 -1.1104 4.06379 16.5129 3.85058
331 2 2.2208 11.0195 17.9323 10.8365
136 2 2.2208 -0.152643 20.6643 2.5544
137 2 2.2208 -0.193583 17.9014 5.37207
111 1 -1.1104 6.73979 13.6822 6.83851
124 1 -1.1104 3.95636 13.8681 6.69827
81 2 2.2208 -0.118525 6.75372 5.24802
122 1 -1.1104 7.03515 16.454 3.77639
139 1 -1.1104 6.8243 19.3927 3.99715
140 1 -1.1104 6.73564 16.6068 1.13996
115 1 -1.1104 6.71145 13.7056 3.79316
138 1 -1.1104 6.83266 19.3172 1.09941
110 1 -1.1104 6.83502 13.6619 1.15015
141 2 2.2208 11.0556 17.827 5.28708
142 1 -1.1104 12.7455 13.6375 1.04563
144 1 -1.1104 12.3582 19.3606 1.27287
146 1 -1.1104 12.4849 13.673 3.9169
147 1 -1.1104 12.2921 19.3498 3.95599
148 1 -1.1104 12.3452 16.4153 1.15061
150 2 2.2208 11.0112 14.9358 2.38775
151 2 2.2208 10.95 20.6202 2.57249
152 1 -1.1104 12.4328 16.454 3.90181
153 1 -1.1104 9.66197 13.7197 0.938582
155 1 -1.1104 9.57137 19.3008 1.06702
157 2 2.2208 8.2798 17.9535 2.38867
158 1 -1.1104 9.52764 13.6141 3.72907
159 1 -1.1104 9.49538 19.2429 3.78045
160 2 2.2208 8.25991 14.9211 5.24059
161 2 2.2208 8.25528 20.7272 5.30113
162 1 -1.1104 9.53983 16.4399 1.04436
164 1 -1.1104 9.80061 16.2765 3.90127
112 1 -1.1104 6.80839 19.2985 6.70046
149 1 -1.1104 12.4886 16.5476 6.60801
27 2 2.2208 -0.187447 3.98808 2.3947
172 1 -1.1104 4.15936 -3.02867 6.69814
173 1 -1.1104 4.21304 2.66912 6.75437
167 1 -1.1104 1.2679 2.53821 6.67912
199 2 2.2208 -0.072667 3.90767 8.10355
386 2 2.2208 -0.190655 1.04575 -0.21905
169 1 -1.1104 6.94247 2.52169 6.66638
175 2 2.2208 5.44389 1.17038 10.8599
176 1 -1.1104 1.2375 -3.1066 12.4833
177 1 -1.1104 1.22448 2.71323 12.4409
180 1 -1.1104 1.40816 -3.03963 9.51343
181 1 -1.1104 1.18013 2.63045 9.70001
184 1 -1.1104 1.23186 -0.409457 12.2966
186 2 2.2208 5.35803 -1.62343 8.13467
187 2 2.2208 5.46785 4.15069 8.0229
188 1 -1.1104 1.30549 -0.185206 9.57578
190 1 -1.1104 4.06885 -3.13928 12.1816
191 1 -1.1104 4.00794 2.53995 12.271
192 2 2.2208 2.73173 1.31237 8.21479
193 1 -1.1104 4.07706 -3.0953 9.41533
194 1 -1.1104 3.98293 2.73236 9.49013
195 2 2.2208 2.78408 -1.7581 10.8949
196 2 2.2208 2.61926 4.01441 10.9436
197 1 -1.1104 4.08657 -0.193556 12.2394
198 1 -1.1104 4.13043 -0.30559 9.62041
297 1 -1.1104 6.89351 13.7322 12.2904
200 2 2.2208 -0.0506601 -1.74226 8.05647
171 1 -1.1104 6.75385 -0.173668 6.62461
168 1 -1.1104 6.93343 -3.07562 6.60521
210 1 -1.1104 9.59718 -0.25916 6.65912
205 1 -1.1104 12.4792 -3.18623 6.75993
209 1 -1.1104 9.65461 2.47423 6.71962
208 1 -1.1104 9.82377 -3.12263 6.62585
207 1 -1.1104 12.4815 -0.311248 6.62425
183 1 -1.1104 6.73994 2.5533 9.52622
206 1 -1.1104 12.5504 2.58293 6.56686
178 1 -1.1104 6.81329 -2.98843 12.3613
189 1 -1.1104 6.80197 -0.249809 9.50808
179 1 -1.1104 6.84851 2.58948 12.3814
182 1 -1.1104 6.88068 -3.32003 9.56953
185 1 -1.1104 6.89967 -0.0687482 12.2388
211 2 2.2208 11.0134 1.11276 10.8622
212 1 -1.1104 12.4557 -3.0581 12.3146
213 1 -1.1104 12.5176 2.55678 12.2489
214 1 -1.1104 12.4879 -3.06253 9.43821
215 1 -1.1104 12.4317 2.50547 9.61794
216 1 -1.1104 12.4918 -0.317045 12.3685
217 2 2.2208 11.0099 -1.68545 8.0536
218 2 2.2208 10.9643 3.85269 8.15146
219 1 -1.1104 12.4841 -0.296552 9.58201
220 1 -1.1104 9.62882 -3.20045 12.1951
221 1 -1.1104 9.72877 2.50124 12.2923
222 2 2.2208 8.10558 1.13916 8.1551
223 1 -1.1104 9.60894 -3.068 9.40785
224 1 -1.1104 9.56574 2.485 9.51566
225 2 2.2208 8.26352 -1.76276 10.8997
226 2 2.2208 8.12707 4.01535 10.9233
227 1 -1.1104 9.59195 -0.326347 12.4068
228 1 -1.1104 9.61184 -0.293546 9.49208
327 1 -1.1104 12.4584 19.2008 9.5896
234 1 -1.1104 1.3859 8.15483 6.52992
343 2 2.2208 -0.0723506 9.51954 8.09644
30 2 2.2208 -0.130927 -4.53882 5.46436
78 1 -1.1104 3.95086 11.0176 6.6574
236 1 -1.1104 1.21308 5.37166 6.6766
240 2 2.2208 5.46123 6.65331 10.9768
241 2 2.2208 5.52125 12.331 10.9712
242 1 -1.1104 1.28838 8.31077 12.2299
244 1 -1.1104 1.32611 8.29593 9.32296
246 1 -1.1104 1.26069 5.54584 12.4124
247 1 -1.1104 1.38772 11.0631 12.4118
250 2 2.2208 5.40969 9.47689 8.08793
251 1 -1.1104 1.16393 5.37933 9.33954
252 1 -1.1104 1.10043 11.028 9.49732
255 1 -1.1104 4.06445 8.13767 12.2459
256 2 2.2208 2.62658 6.73399 8.01638
257 2 2.2208 2.60192 12.362 8.12017
258 1 -1.1104 3.93146 8.13485 9.40057
259 2 2.2208 2.70875 9.59867 10.7703
260 1 -1.1104 4.06326 5.23928 12.2826
261 1 -1.1104 4.16016 10.9949 12.3256
262 1 -1.1104 3.99442 5.38521 9.52357
263 1 -1.1104 4.05706 10.9532 9.43712
254 1 -1.1104 6.87319 10.8053 9.49786
249 1 -1.1104 6.93657 10.9857 12.3029
344 2 2.2208 -0.137904 6.68639 10.9126
328 1 -1.1104 12.3769 13.7703 9.53103
65 1 -1.1104 6.82829 10.8719 6.762
269 1 -1.1104 9.5595 5.28688 6.54095
243 1 -1.1104 6.8764 8.17042 12.4125
245 1 -1.1104 6.86421 8.00038 9.64555
237 1 -1.1104 6.85665 5.47742 6.64958
101 1 -1.1104 9.65266 10.9682 6.63173
265 1 -1.1104 12.3207 8.02641 6.79211
90 1 -1.1104 12.3876 10.7927 6.76087
266 1 -1.1104 12.4308 5.17713 6.69055
248 1 -1.1104 7.03005 5.37697 12.2378
253 1 -1.1104 6.88096 5.33381 9.57387
264 1 -1.1104 9.64381 11.09 9.31368
268 1 -1.1104 9.59009 5.3524 9.53809
270 1 -1.1104 9.7867 10.9469 12.1818
271 1 -1.1104 9.60827 5.34758 12.3555
272 2 2.2208 8.21369 9.52066 10.9236
273 1 -1.1104 9.736 8.26378 9.31634
274 2 2.2208 8.18563 12.3243 8.10023
275 2 2.2208 8.16728 6.80536 8.04414
276 2 2.2208 11.0501 6.73584 10.8186
277 2 2.2208 10.9872 12.4006 10.9076
278 1 -1.1104 12.5385 8.10456 12.3068
279 1 -1.1104 12.3461 8.21923 9.52678
280 1 -1.1104 12.5344 5.42081 12.1968
281 1 -1.1104 12.4584 10.9065 12.3104
282 2 2.2208 11.0734 9.53045 8.05862
283 1 -1.1104 12.3301 5.40318 9.35253
284 1 -1.1104 12.3943 10.9815 9.59555
285 1 -1.1104 9.6635 8.17527 12.1777
145 1 -1.1104 12.5521 19.1669 6.69808
323 1 -1.1104 12.4344 16.4809 9.50289
313 2 2.2208 -0.150012 15.2609 8.09801
311 2 2.2208 -0.249228 20.7039 8.17057
302 1 -1.1104 1.14399 19.2472 6.7668
126 1 -1.1104 4.00177 19.3749 6.90288
117 1 -1.1104 1.12101 16.6422 6.73726
108 1 -1.1104 1.32152 13.8558 6.56038
133 1 -1.1104 4.07585 16.5284 6.69275
309 2 2.2208 2.56374 20.6963 11.0473
308 1 -1.1104 3.99406 16.5163 12.3444
307 1 -1.1104 1.23102 16.6212 12.3776
305 1 -1.1104 4.00694 13.7721 9.56665
304 1 -1.1104 4.08823 16.4514 9.49275
303 2 2.2208 2.64111 17.9599 8.10846
301 1 -1.1104 4.08354 19.2827 9.6046
300 2 2.2208 5.33831 17.8868 10.8637
299 1 -1.1104 1.2644 13.6943 12.3428
298 1 -1.1104 1.08012 19.3014 12.2577
295 2 2.2208 5.35824 15.1243 8.14992
294 1 -1.1104 1.21159 13.7972 9.49965
310 2 2.2208 2.55144 15.0875 10.9104
293 2 2.2208 5.42501 20.8171 8.11503
292 1 -1.1104 1.16349 16.5632 9.69007
291 1 -1.1104 1.27842 19.3368 9.46942
287 1 -1.1104 4.25378 13.6843 12.4238
286 1 -1.1104 4.0193 19.2268 12.466
312 2 2.2208 -0.228758 17.9628 10.976
156 1 -1.1104 9.74652 19.3455 6.70468
289 1 -1.1104 6.88453 16.6712 9.51485
316 2 2.2208 8.17359 20.6232 10.9749
322 1 -1.1104 9.68049 13.8125 12.334
288 1 -1.1104 6.76018 19.1908 9.54237
306 1 -1.1104 6.72159 16.623 12.2915
118 1 -1.1104 6.88016 16.3454 6.51391
154 1 -1.1104 9.5931 13.8302 6.6772
290 1 -1.1104 6.86119 13.7619 9.58389
326 1 -1.1104 12.3453 16.5636 12.5022
296 1 -1.1104 6.74788 19.4284 12.3007
315 1 -1.1104 9.5764 16.7569 12.2611
317 2 2.2208 8.29124 15.1638 10.8522
329 1 -1.1104 12.3984 19.356 12.3629
143 1 -1.1104 12.3212 13.6473 6.66355
318 1 -1.1104 9.58406 19.3402 9.52537
314 1 -1.1104 9.6899 16.5361 9.63664
320 2 2.2208 8.19563 17.9848 8.1674
357 2 2.2208 11.0878 4.04608 13.6274
355 2 2.2208 8.24814 1.11827 13.765
353 2 2.2208 8.34388 -4.49222 13.7618
378 2 2.2208 10.9976 17.8307 -0.461825
403 2 2.2208 2.60931 15.1609 -0.482207
388 2 2.2208 8.22626 -1.80236 -0.348932
382 2 2.2208 2.61967 -1.73497 -0.272106
394 2 2.2208 2.5118 9.5735 -0.445999
405 2 2.2208 2.51838 20.8018 -0.405329
406 2 2.2208 5.43497 1.06999 16.5109
407 1 -1.1104 1.43368 -3.03638 17.9721
408 1 -1.1104 1.15577 2.51318 18.033
411 1 -1.1104 1.30401 -3.18444 15.2463
413 1 -1.1104 1.25228 2.53761 15.2469
419 1 -1.1104 1.28795 -0.264 17.9941
421 2 2.2208 5.57974 -1.56549 19.3564
422 2 2.2208 5.44497 3.90012 19.2901
423 1 -1.1104 1.33097 -0.228252 15.1084
427 1 -1.1104 4.27678 -2.95313 17.9641
428 1 -1.1104 3.92643 2.5784 18.0257
429 2 2.2208 2.63685 1.21083 19.3548
430 1 -1.1104 4.05096 -3.10387 14.9837
432 1 -1.1104 3.92334 2.55614 15.1273
434 2 2.2208 2.65943 -1.58534 16.4872
435 2 2.2208 2.68137 3.91708 16.5729
436 1 -1.1104 4.0768 -0.248084 17.8837
437 1 -1.1104 4.03201 -0.223588 15.0263
431 1 -1.1104 3.95996 -3.10396 20.8734
414 1 -1.1104 1.28731 2.71216 20.6274
544 2 2.2208 -0.210729 4.03356 19.413
443 2 2.2208 -0.0644818 -1.758 19.4474
358 2 2.2208 -0.202059 9.59862 13.6376
476 2 2.2208 -0.341632 20.5935 19.4505
474 2 2.2208 11.1147 -4.49282 16.5692
424 1 -1.1104 1.31217 -0.154366 20.7522
372 2 2.2208 10.9748 20.7479 13.7319
636 1 -1.1104 12.4414 16.4061 23.6253
373 2 2.2208 10.9711 15.2203 13.6963
352 2 2.2208 5.41507 3.86811 13.7491
417 1 -1.1104 6.86982 2.46231 15.1418
426 1 -1.1104 6.9397 -0.12554 20.634
410 1 -1.1104 6.69786 2.61063 17.9204
418 1 -1.1104 6.85287 2.61888 20.7961
415 1 -1.1104 7.00223 -3.02064 15.0214
420 1 -1.1104 6.9221 -0.177194 17.9488
416 1 -1.1104 6.86272 -3.02298 20.8263
409 1 -1.1104 6.96466 -3.01953 17.9221
425 1 -1.1104 6.80689 -0.373357 15.1485
449 2 2.2208 11.1492 1.22276 16.516
450 1 -1.1104 12.4255 -3.02244 18.0106
451 1 -1.1104 12.5182 2.67174 17.9618
452 1 -1.1104 12.6064 -2.92288 15.1861
454 1 -1.1104 12.5066 2.65832 15.0132
456 1 -1.1104 12.6875 -0.0555176 17.8332
457 2 2.2208 11.0493 -1.57322 19.3217
459 1 -1.1104 12.5466 -0.15125 15.1725
461 1 -1.1104 9.67824 -2.98848 17.7983
462 1 -1.1104 9.53738 2.51253 17.9958
463 2 2.2208 8.25551 1.08062 19.2713
464 1 -1.1104 9.81327 -3.06589 15.0859
466 1 -1.1104 9.5601 2.45605 15.2269
468 2 2.2208 8.28798 -1.70075 16.3827
469 2 2.2208 8.23653 3.94149 16.5762
470 1 -1.1104 9.72645 -0.138531 18.0133
471 1 -1.1104 9.733 -0.292841 15.1274
458 2 2.2208 10.9062 3.93521 19.3699
465 1 -1.1104 9.73703 -3.04026 20.7398
442 2 2.2208 -0.229985 1.14924 16.4571
665 1 -1.1104 9.71563 19.2488 23.5572
356 2 2.2208 11.1159 -1.57823 13.791
639 2 2.2208 5.633 -4.53652 22.2752
641 2 2.2208 10.98 20.7283 25.0582
453 1 -1.1104 12.5025 -2.99569 20.736
467 1 -1.1104 9.76928 2.49293 20.7954
482 2 2.2208 5.48725 6.64438 16.5467
483 2 2.2208 5.45127 12.3585 16.5619
484 1 -1.1104 1.28637 8.09135 17.7751
486 1 -1.1104 1.25313 8.06901 15.0104
490 1 -1.1104 1.14268 5.38515 17.9181
491 1 -1.1104 1.20761 10.8859 17.9493
494 2 2.2208 5.40481 9.55459 19.2989
495 1 -1.1104 1.2635 5.19743 15.1509
497 1 -1.1104 1.18606 10.8526 15.183
503 1 -1.1104 4.01845 8.12417 17.8251
504 2 2.2208 2.57006 6.69097 19.316
505 2 2.2208 2.62974 12.3424 19.2723
506 1 -1.1104 4.04291 8.44538 14.9193
508 2 2.2208 2.67033 9.60678 16.5009
509 1 -1.1104 4.12579 5.33061 17.959
510 1 -1.1104 4.12891 10.9084 17.8246
511 1 -1.1104 4.06144 5.42416 15.14
513 1 -1.1104 4.02472 11.1195 15.0743
498 1 -1.1104 1.31029 10.9985 20.5948
512 1 -1.1104 3.96434 5.43603 20.7817
365 2 2.2208 8.35118 12.3138 13.6527
499 1 -1.1104 6.79367 5.14069 15.1307
489 1 -1.1104 6.79153 8.16346 20.775
444 2 2.2208 -0.14178 6.78717 22.2423
481 2 2.2208 -0.115871 6.75118 16.4101
347 2 2.2208 2.68564 -4.50011 13.784
514 1 -1.1104 4.02289 10.9699 20.7835
635 1 -1.1104 12.3348 19.3453 26.5431
447 2 2.2208 -0.29604 17.8806 16.5791
493 1 -1.1104 6.86925 10.9599 17.9185
485 1 -1.1104 6.63474 8.11403 17.9063
492 1 -1.1104 6.91049 5.35699 17.9725
488 1 -1.1104 6.81901 8.10793 15.1618
501 1 -1.1104 6.84602 10.855 15.062
518 2 2.2208 10.9987 6.72414 16.4192
519 2 2.2208 10.9919 12.2945 16.5791
520 1 -1.1104 12.4108 8.20555 17.7973
521 1 -1.1104 12.4898 8.01923 15.1116
523 1 -1.1104 12.3877 5.42081 17.8569
524 1 -1.1104 12.3281 10.9639 17.9938
525 2 2.2208 10.9016 9.58085 19.2992
526 1 -1.1104 12.3032 5.37278 15.0248
528 1 -1.1104 12.4479 10.9256 15.1287
530 1 -1.1104 9.54949 8.10635 17.8327
531 2 2.2208 8.35504 6.78861 19.2148
532 2 2.2208 8.18833 12.3656 19.3655
533 1 -1.1104 9.60306 8.14211 15.0144
535 2 2.2208 8.08409 9.49279 16.4732
536 1 -1.1104 9.67445 5.40254 17.8407
537 1 -1.1104 9.57879 10.9465 17.9683
538 1 -1.1104 9.5864 5.4067 15.0379
540 1 -1.1104 9.55628 10.8723 15.0137
539 1 -1.1104 9.59881 5.32726 20.6037
541 1 -1.1104 9.67356 10.9658 20.7503
587 1 -1.1104 12.5203 19.3629 20.8468
527 1 -1.1104 12.4006 5.36786 20.6636
534 1 -1.1104 9.57173 8.17946 20.7283
703 2 2.2208 -0.234966 12.4956 22.044
364 2 2.2208 10.9421 9.43655 13.7168
516 2 2.2208 -0.332772 12.2312 16.4798
545 2 2.2208 5.33287 17.9565 16.6348
546 1 -1.1104 1.18597 13.6508 17.7597
547 1 -1.1104 1.17959 19.2456 18.1155
550 1 -1.1104 1.14373 13.6517 15.1506
552 1 -1.1104 1.19038 19.2103 15.1575
558 1 -1.1104 1.21825 16.4913 17.9497
560 2 2.2208 5.41952 15.2726 19.4818
561 2 2.2208 5.26763 20.8346 19.3653
562 1 -1.1104 1.17583 16.3843 15.1947
566 1 -1.1104 4.10532 13.7216 18.1129
567 1 -1.1104 4.06926 19.4369 18.041
568 2 2.2208 2.572 17.9854 19.3847
569 1 -1.1104 4.02721 13.9267 15.333
571 1 -1.1104 3.98151 19.3127 15.2941
573 2 2.2208 2.57952 15.152 16.5667
574 2 2.2208 2.51186 20.7746 16.6682
575 1 -1.1104 4.05007 16.5132 18.0912
576 1 -1.1104 3.89673 16.5706 15.2304
348 2 2.2208 5.50709 -1.62304 13.6424
604 1 -1.1104 9.60605 16.6682 20.8326
572 1 -1.1104 3.86369 19.3692 20.7553
577 1 -1.1104 4.00811 16.6219 20.8024
553 1 -1.1104 1.14161 19.2734 20.9616
349 2 2.2208 2.57249 1.19213 13.6382
360 2 2.2208 5.46045 9.58311 13.6587
564 1 -1.1104 6.70748 16.4258 15.1448
549 1 -1.1104 6.85905 19.4166 17.9213
548 1 -1.1104 6.98184 13.7714 18.0277
559 1 -1.1104 6.80741 16.6395 17.9279
554 1 -1.1104 6.69723 13.6955 15.0918
556 1 -1.1104 6.76184 19.3979 15.0937
581 2 2.2208 11.0031 17.9568 16.6838
582 1 -1.1104 12.4673 13.6807 17.8671
583 1 -1.1104 12.6692 19.1364 18.0105
584 1 -1.1104 12.3546 13.717 15.0894
586 1 -1.1104 12.3167 19.3667 15.1339
588 1 -1.1104 12.2688 16.4824 17.9609
589 2 2.2208 11.0052 15.1742 19.4674
590 2 2.2208 10.9665 20.6104 19.3324
591 1 -1.1104 12.3523 16.5336 15.1888
593 1 -1.1104 9.73244 13.6149 17.9735
594 1 -1.1104 9.72006 19.3268 18.0737
595 2 2.2208 8.18879 17.9837 19.4774
596 1 -1.1104 9.52422 13.6812 15.2561
598 1 -1.1104 9.43415 19.1369 15.2984
600 2 2.2208 8.23348 15.1223 16.407
601 2 2.2208 8.30138 20.6052 16.5557
602 1 -1.1104 9.57132 16.5975 18.0969
603 1 -1.1104 9.55171 16.5273 15.1001
555 1 -1.1104 6.68283 13.5992 20.7156
369 2 2.2208 5.35924 20.8308 13.7702
383 2 2.2208 2.6035 3.95444 27.7611
438 1 -1.1104 4.132 -0.210243 20.8136
412 1 -1.1104 1.37002 -3.01873 20.8201
643 2 2.2208 -0.0361506 1.10756 22.0978
644 2 2.2208 -0.263304 3.82786 24.9893
642 2 2.2208 -0.124008 -1.58419 25.023
557 1 -1.1104 6.60431 19.4174 20.7296
433 1 -1.1104 3.93334 2.56831 20.6088
609 2 2.2208 5.53206 1.19035 22.1236
610 1 -1.1104 1.22985 -2.97265 23.7181
611 1 -1.1104 1.30155 2.32193 23.5655
614 1 -1.1104 1.23118 -2.98538 26.4735
615 1 -1.1104 1.33008 2.59105 26.3151
618 1 -1.1104 1.44568 -0.403777 23.5376
620 2 2.2208 5.49609 -1.79044 24.9519
621 2 2.2208 5.32734 3.89697 24.817
622 1 -1.1104 1.27404 -0.290328 26.5236
624 1 -1.1104 4.13631 -3.06688 23.6871
625 1 -1.1104 4.06082 2.4932 23.3101
626 2 2.2208 2.71676 1.06208 24.9111
627 1 -1.1104 4.11678 -3.19461 26.3274
628 1 -1.1104 3.93579 2.44844 26.1803
629 2 2.2208 2.91852 -1.67458 22.1944
630 2 2.2208 2.60051 3.88089 22.131
631 1 -1.1104 4.20836 -0.215863 23.64
632 1 -1.1104 4.06401 -0.503887 26.3998
472 1 -1.1104 9.7893 -0.323888 20.808
455 1 -1.1104 12.5786 2.49603 20.8431
363 2 2.2208 8.15994 6.69526 13.6966
613 1 -1.1104 6.89554 2.6446 23.5525
617 1 -1.1104 6.79461 2.47764 26.2466
612 1 -1.1104 6.98271 -3.09389 23.5681
623 1 -1.1104 6.90292 -0.339143 26.3886
460 1 -1.1104 12.5549 -0.326103 20.7089
616 1 -1.1104 6.92948 -3.08911 26.3008
619 1 -1.1104 6.9294 -0.179561 23.5149
645 2 2.2208 11.0789 1.14985 22.1301
646 1 -1.1104 12.444 -3.19236 23.6291
647 1 -1.1104 12.4732 2.46321 23.5898
648 1 -1.1104 12.4237 -3.18829 26.4015
649 1 -1.1104 12.3382 2.53294 26.2952
650 1 -1.1104 12.4361 -0.363784 23.4984
651 2 2.2208 11.0062 -1.59817 24.9858
652 2 2.2208 11.0251 3.92434 24.8341
653 1 -1.1104 12.4741 -0.311488 26.3546
654 1 -1.1104 9.73703 -3.01326 23.5954
655 1 -1.1104 9.80977 2.45335 23.516
656 2 2.2208 8.29397 1.20841 24.925
657 1 -1.1104 9.79129 -3.19206 26.4056
658 1 -1.1104 9.66742 2.34485 26.2916
659 2 2.2208 8.28259 -1.6359 22.2481
661 1 -1.1104 9.69317 -0.201017 23.5628
662 1 -1.1104 9.79169 -0.414296 26.3807
660 2 2.2208 8.24552 3.93234 22.0992
701 1 -1.1104 9.45912 16.5837 23.6803
592 1 -1.1104 12.4751 16.4796 20.8142
507 1 -1.1104 4.00996 8.10501 20.7122
496 1 -1.1104 1.16528 5.4683 20.8486
633 1 -1.1104 12.4782 19.3044 23.787
487 1 -1.1104 1.23896 8.23272 20.7941
674 2 2.2208 5.3326 6.76721 22.075
675 2 2.2208 5.35753 12.3781 22.1224
676 1 -1.1104 1.20821 8.08145 23.6591
678 1 -1.1104 1.22663 7.97834 26.3629
680 1 -1.1104 1.07108 5.26321 23.6353
681 1 -1.1104 1.05086 11.1028 23.6521
684 2 2.2208 5.35264 9.57682 24.826
685 1 -1.1104 1.12355 5.24257 26.3956
686 1 -1.1104 1.11557 10.9501 26.3237
689 1 -1.1104 3.79739 8.0588 23.5485
690 2 2.2208 2.617 6.68511 24.9386
691 2 2.2208 2.64032 12.2682 24.9111
692 1 -1.1104 3.95882 8.21092 26.2532
693 2 2.2208 2.51751 9.59518 22.166
694 1 -1.1104 3.93426 5.22788 23.4808
695 1 -1.1104 3.89848 10.8489 23.6223
696 1 -1.1104 3.9787 5.29366 26.2468
697 1 -1.1104 3.93279 11.1056 26.5331
502 1 -1.1104 6.79343 10.8451 20.6772
688 1 -1.1104 6.80735 10.8626 26.3014
346 2 2.2208 -0.0858049 -1.70126 13.6536
702 2 2.2208 -0.270051 9.54541 24.8559
565 1 -1.1104 6.80764 16.5482 20.7714
670 1 -1.1104 6.75157 19.3794 26.3087
500 1 -1.1104 6.90521 5.44733 20.7095
679 1 -1.1104 6.99294 8.15427 26.4284
522 1 -1.1104 12.4563 8.17195 20.8121
687 1 -1.1104 6.79383 5.50071 26.2755
682 1 -1.1104 6.86918 5.4025 23.5176
683 1 -1.1104 6.80824 10.9658 23.6293
677 1 -1.1104 6.75478 8.2209 23.5305
529 1 -1.1104 12.5505 10.9839 20.734
705 1 -1.1104 9.64238 10.8687 26.529
706 1 -1.1104 9.6153 5.31085 26.3003
707 1 -1.1104 9.5289 10.9469 23.5169
708 1 -1.1104 9.6789 5.28874 23.5038
709 2 2.2208 8.14633 9.45082 22.1706
710 1 -1.1104 9.57868 7.98734 26.1707
711 2 2.2208 8.20639 12.2518 24.9454
712 2 2.2208 8.20687 6.58731 24.8699
713 2 2.2208 11.0884 6.93141 22.1502
714 2 2.2208 11.1274 12.2522 22.1427
715 1 -1.1104 12.2952 8.22592 23.5231
716 1 -1.1104 12.4745 8.26782 26.3043
717 1 -1.1104 12.4138 5.31163 23.4831
718 1 -1.1104 12.4166 10.9366 23.7163
719 2 2.2208 10.9261 9.50686 25.0627
720 1 -1.1104 12.4281 5.43607 26.2988
721 1 -1.1104 12.4178 11.0626 26.4776
722 1 -1.1104 9.62696 8.08069 23.5453
376 2 2.2208 8.11961 17.9744 13.7171
723 2 2.2208 -0.244045 17.9376 22.3523
570 1 -1.1104 3.89383 13.721 20.7784
563 1 -1.1104 1.1015 16.5457 20.751
551 1 -1.1104 1.11609 13.8223 20.6022
724 2 2.2208 -0.199642 20.8631 25.175
746 1 -1.1104 4.02399 13.7438 26.3438
745 1 -1.1104 3.98507 16.5695 26.3901
744 2 2.2208 2.56836 17.926 24.9655
743 1 -1.1104 3.89645 19.497 26.3372
750 2 2.2208 2.44297 20.7773 22.2289
749 1 -1.1104 3.91447 16.7149 23.5574
748 1 -1.1104 1.23494 16.6302 23.6406
727 2 2.2208 2.67825 15.2622 22.1732
729 1 -1.1104 3.89277 19.3361 23.5028
731 1 -1.1104 3.95353 13.941 23.6633
733 1 -1.1104 1.18355 19.3864 26.3725
734 1 -1.1104 1.22533 16.6426 26.3519
735 1 -1.1104 1.24761 13.7672 26.1567
737 2 2.2208 5.35726 20.8565 24.9775
738 2 2.2208 5.37379 15.1991 24.9999
740 1 -1.1104 1.19527 19.3178 23.6688
741 1 -1.1104 1.29201 13.9012 23.3903
742 2 2.2208 5.32215 18.1012 22.2228
747 1 -1.1104 6.69814 16.7125 23.6785
732 1 -1.1104 6.75975 16.5532 26.3796
736 1 -1.1104 6.79376 19.4304 23.5274
704 1 -1.1104 9.59936 16.5074 26.3944
663 1 -1.1104 12.508 16.5257 26.4275
585 1 -1.1104 12.4316 13.8055 20.7564
698 1 -1.1104 9.58228 19.4286 26.4133
638 2 2.2208 11.0827 15.0599 25.0057
597 1 -1.1104 9.52118 13.7338 20.8159
599 1 -1.1104 9.61039 19.3422 20.8803
667 2 2.2208 8.12902 17.9445 25.0281
739 1 -1.1104 6.7994 13.7152 23.5901
664 1 -1.1104 9.68536 13.6912 23.5992
607 2 2.2208 11.0484 17.9329 22.0743
699 2 2.2208 8.22135 15.1516 22.2269
608 1 -1.1104 12.5435 13.5213 23.6009
634 1 -1.1104 12.2893 13.7049 26.4084
700 2 2.2208 8.13 20.8369 22.2367
673 1 -1.1104 9.55157 13.5905 26.237
730 1 -1.1104 6.73388 13.69 26.3468
389 2 2.2208 8.25759 3.91802 27.7392
395 2 2.2208 5.3741 12.3255 27.8338
399 2 2.2208 8.21922 9.4702 27.7574
361 2 2.2208 2.65911 12.3577 13.7015
359 2 2.2208 2.8004 6.77745 13.738
398 2 2.2208 10.9909 6.62303 27.6668
368 2 2.2208 2.53571 17.9557 13.7171
371 2 2.2208 5.36608 15.184 13.792
400 2 2.2208 11.0677 12.2592 27.8099
367 2 2.2208 -0.212466 4.01876 13.8551
387 2 2.2208 10.9991 1.12445 27.8119
397 2 2.2208 -0.349644 6.71804 27.5733
393 2 2.2208 5.48493 6.87956 27.7805
404 2 2.2208 5.38822 17.9676 27.7932
751 2 2.2208 5.47466 23.4339 5.25967
752 2 2.2208 5.35626 29.1167 5.27594
753 1 -1.1104 1.17061 24.9859 0.956053
754 1 -1.1104 1.21435 24.9176 3.74799
755 1 -1.1104 1.1174 22.2606 1.01946
756 1 -1.1104 1.24634 27.8739 1.08671
757 2 2.2208 5.41725 26.3415 2.41199
758 1 -1.1104 1.1485 22.084 3.93435
759 1 -1.1104 1.26829 27.6661 3.8059
760 1 -1.1104 3.95448 24.9082 1.05751
761 2 2.2208 2.54655 23.554 2.42219
762 2 2.2208 2.69561 29.1717 2.44419
763 1 -1.1104 4.01445 24.8598 3.77475
764 2 2.2208 2.72893 26.2781 5.2392
765 1 -1.1104 3.93582 22.0926 1.02577
766 1 -1.1104 4.14304 27.6978 1.20024
767 1 -1.1104 3.97506 22.1989 3.80806
768 1 -1.1104 4.05918 27.7627 3.90643
771 2 2.2208 -0.241625 26.3642 2.59043
1124 2 2.2208 11.0576 23.5511 -0.346714
769 2 2.2208 -0.129179 29.216 5.30464
777 1 -1.1104 6.79675 27.7878 3.98047
1123 2 2.2208 -0.228057 23.6072 -0.247946
770 2 2.2208 -0.205237 23.5314 5.2635
894 1 -1.1104 1.20084 21.9788 6.82215
892 1 -1.1104 1.05752 25.0231 6.45599
898 1 -1.1104 4.05113 24.943 6.64491
900 1 -1.1104 3.87472 27.6942 6.82305
1080 2 2.2208 -0.137964 34.7521 10.9493
1680 1 -1.1104 1.12283 47.5631 9.41348
1042 2 2.2208 -0.343446 40.4388 10.8772
773 1 -1.1104 6.89713 24.9261 3.83987
774 1 -1.1104 6.82333 22.1168 1.08549
775 1 -1.1104 6.94188 27.8092 1.16244
776 1 -1.1104 6.82075 22.1814 3.73561
772 1 -1.1104 6.77863 24.9941 1.01101
778 2 2.2208 10.9061 23.5701 5.23062
779 2 2.2208 11.0679 29.1267 5.1895
780 1 -1.1104 12.4166 24.9774 1.10666
781 1 -1.1104 12.4702 24.9728 4.0166
782 1 -1.1104 12.4241 22.2126 1.06678
783 1 -1.1104 12.1928 27.8091 1.07531
784 2 2.2208 10.9776 26.2861 2.63662
785 1 -1.1104 12.2151 22.1235 3.76829
786 1 -1.1104 12.378 27.7294 3.91317
787 1 -1.1104 9.61888 24.891 1.10643
788 2 2.2208 8.19121 23.5725 2.38789
789 2 2.2208 8.32091 29.2535 2.42734
790 1 -1.1104 9.68323 24.9457 3.92951
791 2 2.2208 8.20943 26.3557 5.2399
792 1 -1.1104 9.62651 22.1623 1.02566
793 1 -1.1104 9.61726 27.8102 1.0611
794 1 -1.1104 9.48538 22.1203 3.86734
795 1 -1.1104 9.67973 27.7746 3.93453
925 1 -1.1104 12.446 24.9568 6.70528
1125 2 2.2208 8.23642 26.4097 -0.330943
1677 1 -1.1104 1.11333 47.3831 12.2719
821 2 2.2208 -0.353012 37.5091 2.57608
799 2 2.2208 5.28883 34.7351 5.32815
800 1 -1.1104 1.21349 30.7982 1.14464
801 1 -1.1104 1.14809 36.4276 1.06488
803 1 -1.1104 1.2161 30.3976 3.93335
804 1 -1.1104 1.12623 36.069 3.98383
806 1 -1.1104 1.12719 33.5753 1.13736
807 2 2.2208 5.46343 31.9714 2.50563
808 2 2.2208 5.37794 37.7205 2.3974
809 1 -1.1104 1.16823 33.3595 3.9731
811 1 -1.1104 3.92262 30.517 1.06765
812 1 -1.1104 3.97714 36.2816 1.00949
813 2 2.2208 2.61721 34.8894 2.38697
814 1 -1.1104 4.06092 30.5783 3.83885
815 1 -1.1104 3.98074 36.1333 3.7718
816 2 2.2208 2.57239 31.9912 5.30901
817 2 2.2208 2.50167 37.6054 5.23834
818 1 -1.1104 4.02813 33.354 1.14249
819 1 -1.1104 3.898 33.3848 3.88065
810 1 -1.1104 6.80227 33.4114 3.87482
1130 2 2.2208 5.42121 34.8435 -0.286189
822 2 2.2208 -0.199043 32.1166 2.49995
1131 2 2.2208 -0.2955 34.9387 -0.232273
820 2 2.2208 -0.0463641 34.7736 5.49015
1129 2 2.2208 2.68687 31.9773 -0.35258
1674 1 -1.1104 6.55373 47.2704 6.60675
823 1 -1.1104 6.79279 30.4833 1.15818
10305 2 2.2208 13.841 43.1583 5.27451
805 1 -1.1104 6.58706 36.2818 3.81293
824 1 -1.1104 6.89076 30.5235 3.87728
825 1 -1.1104 6.74527 33.5176 1.1212
802 1 -1.1104 6.79125 36.3624 1.1312
826 2 2.2208 10.958 34.7417 5.24343
827 1 -1.1104 12.5081 30.7057 0.929446
828 1 -1.1104 12.2965 36.0973 1.0545
829 1 -1.1104 12.2935 30.5604 3.69223
830 1 -1.1104 12.4176 36.0999 3.91639
831 1 -1.1104 12.2117 33.5228 1.09638
832 2 2.2208 10.9479 31.9951 2.38077
833 2 2.2208 10.8952 37.6772 2.39038
834 1 -1.1104 12.2956 33.3134 3.88981
835 1 -1.1104 9.53392 30.6 0.907906
836 1 -1.1104 9.55237 36.2446 0.93135
837 2 2.2208 8.01459 34.9001 2.56122
838 1 -1.1104 9.62465 30.5694 3.8035
839 1 -1.1104 9.45018 36.3023 3.79231
840 2 2.2208 8.17333 31.9367 5.25245
841 2 2.2208 8.03332 37.545 5.2552
842 1 -1.1104 9.43589 33.2896 0.942407
843 1 -1.1104 9.59474 33.4111 3.82754
1480 1 -1.1104 6.61942 47.4474 0.823609
853 1 -1.1104 6.80567 39.1122 0.941318
1135 2 2.2208 10.9095 34.8458 -0.423996