ITEM: TIMESTEP
60000
ITEM: NUMBER OF ATOMS
17700
ITEM: BOX BOUNDS pp pp pp
-3.2049804006804294e-01 2.7660498040067552e+01
-3.8387973077688446e+00 3.3191879730776230e+02
-3.1977625519949665e-01 2.7659776255199258e+01
ITEM: ATOMS id type q x y z
1 2 2.2208 5.2901 1.74448 5.35327
2 1 -1.1104 1.1704 -2.34479 1.17899
3 1 -1.1104 1.113 3.08994 1.10927
6 1 -1.1104 1.14974 -2.51146 3.93114
7 1 -1.1104 1.15316 3.24095 3.91827
10 1 -1.1104 1.01945 0.427218 1.14399
12 2 2.2208 5.34518 -1.02575 2.50964
13 2 2.2208 5.34787 4.59235 2.48511
14 1 -1.1104 0.977498 0.351756 3.96036
16 1 -1.1104 3.91511 -2.39727 1.06043
17 1 -1.1104 3.87691 3.21797 1.09852
18 2 2.2208 2.44732 1.73197 2.49552
19 1 -1.1104 3.89798 -2.33422 3.73792
20 1 -1.1104 3.84973 3.18587 3.90388
21 2 2.2208 2.47451 -0.950964 5.21635
22 2 2.2208 2.52849 4.55608 5.34486
23 1 -1.1104 3.92405 0.378768 1.12989
24 1 -1.1104 3.8199 0.438337 3.93609
137 2 2.2208 -0.306964 18.466 5.2419
83 1 -1.1104 12.3307 14.3798 12.2613
166 1 -1.1104 1.02987 -2.41762 6.61979
29 2 2.2208 5.29056 -3.83346 5.12032
169 1 -1.1104 6.69513 3.04694 6.72884
9 1 -1.1104 6.70724 3.22879 4.01928
15 1 -1.1104 6.64576 0.381173 3.94843
5 1 -1.1104 6.70866 3.063 1.06873
4 1 -1.1104 6.7108 -2.3689 1.11447
171 1 -1.1104 6.64341 0.343293 6.74107
229 1 -1.1104 12.3672 14.4025 9.41222
11 1 -1.1104 6.71165 0.388242 1.06518
8 1 -1.1104 6.65879 -2.43525 3.85596
31 2 2.2208 10.9356 1.79476 5.29257
32 1 -1.1104 12.2299 -2.4511 1.05997
33 1 -1.1104 12.2968 3.2667 1.01052
34 1 -1.1104 12.184 -2.32464 3.83197
35 1 -1.1104 12.3646 3.16656 3.86708
36 1 -1.1104 12.3268 0.43695 1.09487
37 2 2.2208 10.7965 -0.99485 2.46038
38 2 2.2208 10.9662 4.57981 2.3854
39 1 -1.1104 12.1754 0.382347 3.87112
40 1 -1.1104 9.48376 -2.29177 1.06982
41 1 -1.1104 9.54946 3.34801 1.05572
42 2 2.2208 7.99441 1.77607 2.59962
43 1 -1.1104 9.41411 -2.51595 3.89747
44 1 -1.1104 9.44037 3.15037 3.88987
45 2 2.2208 8.0947 -0.970075 5.27145
46 2 2.2208 8.15353 4.7154 5.34496
47 1 -1.1104 9.41165 0.4334 1.03176
48 1 -1.1104 9.43525 0.334993 3.95594
209 1 -1.1104 9.4787 3.17772 6.63286
207 1 -1.1104 12.2294 0.50045 6.70544
168 1 -1.1104 6.69528 -2.4351 6.70226
52 2 2.2208 10.9069 -3.75347 5.25517
28 2 2.2208 2.45711 -3.80883 2.41903
9136 2 2.2208 13.7174 21.3015 10.9009
206 1 -1.1104 12.2708 3.33001 6.64959
319 1 -1.1104 9.48571 14.3026 9.41061
232 2 2.2208 10.8788 -3.72661 10.8055
54 2 2.2208 5.25473 7.39002 5.30182
55 2 2.2208 5.26329 12.965 5.35037
56 1 -1.1104 1.16647 8.69906 1.10765
58 1 -1.1104 1.07938 8.69506 3.90226
60 1 -1.1104 1.11756 5.94248 1.03648
61 1 -1.1104 1.02351 11.5755 1.16767
66 2 2.2208 5.38796 10.1823 2.51307
67 1 -1.1104 1.20173 5.98736 3.86127
68 1 -1.1104 1.13031 11.5622 3.92163
71 1 -1.1104 3.97376 8.76628 1.20648
72 2 2.2208 2.53689 7.37757 2.51177
73 2 2.2208 2.58656 12.9859 2.61393
74 1 -1.1104 3.90245 8.72976 3.93744
75 2 2.2208 2.4643 10.0312 5.34589
76 1 -1.1104 3.92727 5.93492 1.1264
77 1 -1.1104 3.90865 11.6284 1.17478
79 1 -1.1104 4.00204 6.05364 3.84618
80 1 -1.1104 3.98419 11.543 3.92024
379 2 2.2208 2.58475 21.3653 -0.265475
81 2 2.2208 -0.272894 7.33205 5.30575
78 1 -1.1104 3.77557 11.5822 6.73549
63 1 -1.1104 6.68862 5.98493 1.07431
296 1 -1.1104 6.69848 19.9048 12.3364
203 2 2.2208 5.20969 -3.86814 10.7372
369 2 2.2208 5.28622 13.046 -0.322272
288 1 -1.1104 6.62178 20.019 9.54746
135 2 2.2208 -0.38095 15.754 2.51302
69 1 -1.1104 6.77439 6.07145 3.88577
59 1 -1.1104 6.71587 8.86442 3.89295
70 1 -1.1104 6.76489 11.6253 3.88398
64 1 -1.1104 6.65786 11.6451 1.10099
57 1 -1.1104 6.72558 8.79055 1.0743
84 2 2.2208 10.8691 7.42718 5.21897
85 2 2.2208 10.9443 12.9182 5.25538
86 1 -1.1104 12.397 8.87878 1.02609
87 1 -1.1104 12.312 8.76053 3.87762
88 1 -1.1104 12.2796 6.09595 0.914576
89 1 -1.1104 12.2747 11.5204 0.955225
91 2 2.2208 10.9304 10.2081 2.45079
92 1 -1.1104 12.397 6.00513 3.73606
93 1 -1.1104 12.4367 11.5103 3.77899
94 1 -1.1104 9.50107 8.83142 0.895825
95 2 2.2208 8.14853 7.40171 2.46691
96 2 2.2208 8.14461 13.1044 2.47496
97 1 -1.1104 9.52607 8.79173 3.74273
98 2 2.2208 8.13071 10.2041 5.25064
99 1 -1.1104 9.50729 6.08519 1.12446
100 1 -1.1104 9.50545 11.6084 0.984867
102 1 -1.1104 9.59426 5.92058 3.93772
103 1 -1.1104 9.56177 11.5508 3.84429
237 1 -1.1104 6.70627 5.94565 6.62765
266 1 -1.1104 12.3909 6.13464 6.57761
265 1 -1.1104 12.2573 8.81679 6.7821
269 1 -1.1104 9.57299 6.06416 6.69451
373 2 2.2208 8.03015 10.1935 -0.279388
65 1 -1.1104 6.65348 11.6239 6.69039
101 1 -1.1104 9.51617 11.6134 6.59613
231 2 2.2208 7.99333 -3.78706 8.0302
82 2 2.2208 -0.309152 10.106 2.49951
106 2 2.2208 5.29244 18.4761 5.30392
107 1 -1.1104 1.18717 14.4443 1.23936
109 1 -1.1104 1.12761 19.8873 1.10723
113 1 -1.1104 1.03429 14.4002 4.00602
114 1 -1.1104 1.09751 20.0275 3.85935
116 1 -1.1104 0.959846 17.1538 1.04015
119 2 2.2208 5.33312 15.8126 2.41964
120 2 2.2208 5.23664 21.3774 2.47584
121 1 -1.1104 1.09792 17.2168 3.90067
123 1 -1.1104 3.92801 14.403 1.05284
125 1 -1.1104 3.88406 20.0197 1.06326
127 2 2.2208 2.53043 18.5959 2.56582
128 1 -1.1104 3.88352 14.5235 3.89415
129 1 -1.1104 3.93327 19.957 3.84192
130 2 2.2208 2.48023 15.7632 5.26059
131 2 2.2208 2.43822 21.397 5.32082
132 1 -1.1104 3.89461 17.3531 1.09445
134 1 -1.1104 3.92109 17.2209 3.90623
133 1 -1.1104 3.84399 17.1845 6.67935
126 1 -1.1104 3.82932 19.9929 6.70305
352 2 2.2208 10.8872 18.5907 -0.315682
230 2 2.2208 13.5914 -0.995466 10.8813
118 1 -1.1104 6.728 17.2333 6.5994
377 2 2.2208 2.41627 15.8893 -0.307064
124 1 -1.1104 3.81765 14.4072 6.617
378 2 2.2208 5.25602 18.6702 -0.297811
345 2 2.2208 13.6361 1.76083 13.6337
9171 2 2.2208 -0.330412 4.53075 8.17379
138 1 -1.1104 6.65005 20.0699 1.0459
139 1 -1.1104 6.64765 19.9812 3.93871
110 1 -1.1104 6.67072 14.3465 1.01986
115 1 -1.1104 6.69629 14.3501 3.77624
140 1 -1.1104 6.77272 17.1786 1.05518
122 1 -1.1104 6.65442 17.1618 3.82171
141 2 2.2208 10.8244 18.5679 5.26011
142 1 -1.1104 12.2705 14.3097 1.09234
144 1 -1.1104 12.2698 19.9073 1.16345
146 1 -1.1104 12.3382 14.4221 3.9887
147 1 -1.1104 12.2903 20.026 3.88236
148 1 -1.1104 12.3846 17.0795 1.06522
150 2 2.2208 11.0071 15.7334 2.48378
151 2 2.2208 10.909 21.3867 2.46851
152 1 -1.1104 12.2656 17.1382 3.86175
153 1 -1.1104 9.4803 14.4385 0.945174
155 1 -1.1104 9.51016 19.9653 1.11474
157 2 2.2208 7.95824 18.5717 2.49845
158 1 -1.1104 9.61379 14.2387 3.83973
159 1 -1.1104 9.40922 19.9166 3.86489
160 2 2.2208 8.1474 15.6761 5.16998
161 2 2.2208 8.03648 21.2866 5.28938
162 1 -1.1104 9.47913 17.1562 1.11374
164 1 -1.1104 9.54138 17.1141 3.86125
163 1 -1.1104 9.56108 17.0587 6.74753
143 1 -1.1104 12.1526 14.3396 6.62824
149 1 -1.1104 12.2478 17.1499 6.56342
156 1 -1.1104 9.49672 19.8855 6.63236
172 1 -1.1104 3.93633 -2.38067 6.56335
170 1 -1.1104 1.00797 0.345499 6.71382
167 1 -1.1104 1.06596 3.16427 6.71369
173 1 -1.1104 3.86625 3.19224 6.74759
174 1 -1.1104 3.81872 0.414354 6.69984
9174 2 2.2208 -0.423974 18.5542 10.902
202 2 2.2208 2.47264 -3.74996 7.93533
175 2 2.2208 5.30839 1.80374 10.867
176 1 -1.1104 1.01989 -2.46785 12.2492
177 1 -1.1104 1.14669 3.17092 12.4027
180 1 -1.1104 1.0927 -2.47454 9.45739
181 1 -1.1104 1.10883 3.14601 9.5365
184 1 -1.1104 1.17438 0.410177 12.4049
186 2 2.2208 5.28022 -1.08152 8.07317
187 2 2.2208 5.26233 4.58009 8.08555
188 1 -1.1104 1.01467 0.352932 9.53031
190 1 -1.1104 3.92254 -2.50728 12.2893
191 1 -1.1104 3.85991 3.16854 12.2512
192 2 2.2208 2.44936 1.83755 8.11331
193 1 -1.1104 3.82787 -2.37699 9.38028
194 1 -1.1104 3.87912 3.30293 9.46935
195 2 2.2208 2.48906 -0.966659 10.8554
196 2 2.2208 2.51901 4.55385 10.9212
197 1 -1.1104 3.87105 0.358824 12.2856
198 1 -1.1104 3.83746 0.418201 9.49266
368 2 2.2208 2.52136 10.2215 -0.298433
9167 2 2.2208 13.6252 -0.991801 5.26416
201 2 2.2208 -0.250489 1.73284 10.9701
185 1 -1.1104 6.64108 0.364887 12.2097
189 1 -1.1104 6.71266 0.273779 9.46715
208 1 -1.1104 9.53509 -2.4556 6.63363
210 1 -1.1104 9.50469 0.451558 6.65352
205 1 -1.1104 12.3738 -2.36355 6.62288
328 2 2.2208 13.7275 4.61409 10.8647
165 2 2.2208 13.6881 18.6919 2.43255
25 2 2.2208 -0.244681 -0.917467 2.54961
358 2 2.2208 5.28332 1.80376 -0.342927
183 1 -1.1104 6.68087 3.16427 9.48396
178 1 -1.1104 6.7342 -2.446 12.1907
179 1 -1.1104 6.57999 3.23687 12.2556
182 1 -1.1104 6.67651 -2.39989 9.42276
211 2 2.2208 10.8698 1.84638 10.916
212 1 -1.1104 12.2349 -2.431 12.2186
213 1 -1.1104 12.3893 3.18563 12.2503
214 1 -1.1104 12.1993 -2.37259 9.44002
215 1 -1.1104 12.3004 3.33986 9.46035
216 1 -1.1104 12.2659 0.309488 12.3411
217 2 2.2208 10.8638 -0.914586 8.03513
218 2 2.2208 10.8716 4.6251 8.05339
219 1 -1.1104 12.3163 0.456774 9.51533
220 1 -1.1104 9.48894 -2.32139 12.2088
221 1 -1.1104 9.50252 3.2481 12.252
222 2 2.2208 8.10864 1.74878 8.00635
223 1 -1.1104 9.49508 -2.44766 9.41545
224 1 -1.1104 9.49156 3.19735 9.42987
225 2 2.2208 8.09195 -1.08063 10.8261
226 2 2.2208 7.96544 4.62542 10.7907
227 1 -1.1104 9.47357 0.44988 12.2338
228 1 -1.1104 9.54739 0.433804 9.42909
321 1 -1.1104 9.43884 19.8567 12.1207
320 2 2.2208 8.12134 18.5292 8.04389
239 1 -1.1104 3.88336 5.95961 6.64546
234 1 -1.1104 1.09453 8.82747 6.77122
238 1 -1.1104 3.78385 8.76581 6.78784
62 1 -1.1104 1.11689 11.5196 6.73929
235 1 -1.1104 6.61441 8.80313 6.79087
236 1 -1.1104 1.10012 6.02406 6.71889
327 2 2.2208 13.7175 21.3249 5.34271
8972 2 2.2208 13.7316 15.7909 5.20545
9104 2 2.2208 -0.283489 7.31356 10.9509
240 2 2.2208 5.19284 7.39562 10.8737
241 2 2.2208 5.34696 13.0795 10.978
242 1 -1.1104 1.03553 8.69454 12.2377
244 1 -1.1104 1.00154 8.78404 9.52479
246 1 -1.1104 1.11181 5.93632 12.3384
247 1 -1.1104 1.18606 11.5908 12.3037
250 2 2.2208 5.17401 10.2436 8.1479
251 1 -1.1104 1.11629 5.98114 9.52744
252 1 -1.1104 1.10328 11.6186 9.57264
255 1 -1.1104 3.86826 8.74462 12.3341
256 2 2.2208 2.3878 7.4035 8.0959
257 2 2.2208 2.48278 12.9551 8.14206
258 1 -1.1104 3.79717 8.73743 9.55691
259 2 2.2208 2.50533 10.2672 10.9627
260 1 -1.1104 3.89664 6.0294 12.3075
261 1 -1.1104 4.02344 11.5427 12.3172
262 1 -1.1104 3.97844 5.93014 9.48889
263 1 -1.1104 3.9694 11.6776 9.5789
249 1 -1.1104 6.81199 11.6314 12.3238
267 1 -1.1104 9.4764 8.78718 6.67715
90 1 -1.1104 12.329 11.5767 6.6815
290 1 -1.1104 6.70562 14.3037 9.50425
297 1 -1.1104 6.77481 14.4217 12.2993
243 1 -1.1104 6.73612 8.89297 12.2936
254 1 -1.1104 6.75064 11.4424 9.4995
248 1 -1.1104 6.68865 5.90347 12.2504
253 1 -1.1104 6.68836 6.01044 9.47125
245 1 -1.1104 6.74123 8.75763 9.53391
264 1 -1.1104 9.5932 11.614 9.47396
268 1 -1.1104 9.39372 5.94832 9.47111
270 1 -1.1104 9.60931 11.5427 12.2016
271 1 -1.1104 9.48868 6.02774 12.2704
272 2 2.2208 8.16281 10.2139 10.8075
273 1 -1.1104 9.54819 8.80279 9.45735
274 2 2.2208 8.03436 12.9226 8.07451
275 2 2.2208 8.12498 7.35564 8.15001
276 2 2.2208 10.926 7.38923 10.9341
277 2 2.2208 10.8839 13.026 10.9479
278 1 -1.1104 12.3633 8.89331 12.3076
279 1 -1.1104 12.2749 8.86935 9.54908
280 1 -1.1104 12.4035 5.96652 12.2214
281 1 -1.1104 12.3506 11.6668 12.3966
282 2 2.2208 10.8956 10.219 8.06526
283 1 -1.1104 12.1916 6.01723 9.47508
284 1 -1.1104 12.3607 11.5874 9.49125
285 1 -1.1104 9.49756 8.78615 12.2435
9103 2 2.2208 -0.310036 10.2304 8.12084
322 1 -1.1104 9.50468 14.3349 12.3012
117 1 -1.1104 1.07749 17.1596 6.72712
108 1 -1.1104 0.957946 14.3287 6.72519
302 1 -1.1104 1.19373 19.9312 6.66684
111 1 -1.1104 6.67561 14.3844 6.63305
9170 2 2.2208 -0.324331 12.9584 5.29183
419 2 2.2208 2.57003 -3.78046 13.6266
9175 2 2.2208 -0.313044 15.7279 8.16915
298 1 -1.1104 1.1313 19.9154 12.2649
295 2 2.2208 5.34522 15.7203 8.03713
294 1 -1.1104 1.08773 14.3909 9.49164
293 2 2.2208 5.23082 21.3632 8.06975
292 1 -1.1104 1.07378 17.2027 9.55859
301 1 -1.1104 3.85564 19.918 9.4573
300 2 2.2208 5.22917 18.5383 10.8969
310 2 2.2208 2.5153 15.7822 10.9047
309 2 2.2208 2.50804 21.3881 10.8703
308 1 -1.1104 3.90852 17.2609 12.2974
307 1 -1.1104 1.11468 17.1789 12.3
291 1 -1.1104 1.02806 19.8684 9.56154
299 1 -1.1104 1.22506 14.3376 12.2746
305 1 -1.1104 3.85671 14.4271 9.60653
304 1 -1.1104 3.92481 17.1381 9.35648
303 2 2.2208 2.4608 18.5577 8.11384
286 1 -1.1104 3.8505 20.024 12.2906
287 1 -1.1104 3.99194 14.4492 12.3266
145 1 -1.1104 12.1855 19.9123 6.69454
154 1 -1.1104 9.44185 14.3369 6.63494
112 1 -1.1104 6.65397 19.8522 6.71243
313 2 2.2208 10.8995 15.7693 8.09975
316 2 2.2208 8.07478 21.3431 10.9126
199 1 -1.1104 12.2607 20.0221 12.3644
324 2 2.2208 10.8079 21.3473 8.14832
323 1 -1.1104 12.2365 17.0871 9.47803
289 1 -1.1104 6.69869 17.1309 9.49313
318 1 -1.1104 9.33485 19.9428 9.35367
315 1 -1.1104 9.51809 17.2063 12.3239
312 1 -1.1104 12.2346 17.1871 12.3077
50 2 2.2208 10.9143 18.556 10.8176
317 2 2.2208 8.15873 15.7552 10.9093
311 1 -1.1104 12.3495 19.9303 9.45949
314 1 -1.1104 9.50753 17.0647 9.5792
306 1 -1.1104 6.68865 17.0744 12.211
27 2 2.2208 -0.245045 4.54009 2.48491
360 2 2.2208 2.47305 4.54001 -0.330605
9096 2 2.2208 -0.311352 12.9335 10.888
9169 2 2.2208 13.6762 18.5669 8.01738
337 2 2.2208 10.9508 4.67563 13.6197
357 2 2.2208 8.12099 18.5455 13.6634
610 2 2.2208 -0.397972 -3.81341 -0.262951
365 2 2.2208 13.59 -1.05671 -0.242068
641 2 2.2208 10.8367 -3.83059 -0.333728
380 2 2.2208 5.2956 1.76532 16.4596
381 1 -1.1104 1.11035 -2.43347 17.8131
382 1 -1.1104 1.01523 3.21687 17.8433
385 1 -1.1104 1.0855 -2.46773 15.1075
387 1 -1.1104 1.11491 3.1671 15.2107
393 1 -1.1104 1.13065 0.372813 17.9544
395 2 2.2208 5.24558 -1.01778 19.2738
396 2 2.2208 5.29718 4.57748 19.2153
397 1 -1.1104 0.934888 0.319443 15.0608
401 1 -1.1104 3.88 -2.32969 17.849
402 1 -1.1104 3.85217 3.21697 17.8418
403 2 2.2208 2.4822 1.78573 19.1916
404 1 -1.1104 3.85945 -2.33569 15.0414
406 1 -1.1104 3.86677 3.13335 15.0636
408 2 2.2208 2.47668 -1.02564 16.4504
409 2 2.2208 2.49359 4.57535 16.5823
410 1 -1.1104 3.92592 0.40561 17.8056
411 1 -1.1104 3.85978 0.377866 15.0755
386 1 -1.1104 1.06519 -2.43894 20.7206
713 1 -1.1104 6.6241 14.2789 23.4558
580 1 -1.1104 12.3289 14.2933 26.1625
582 2 2.2208 13.6208 15.8054 22.103
407 1 -1.1104 3.84257 3.16284 20.6057
405 1 -1.1104 3.69961 -2.29082 20.6474
412 1 -1.1104 3.84512 0.322666 20.643
388 1 -1.1104 1.08038 3.13532 20.6316
389 1 -1.1104 6.64928 -2.46794 14.9328
383 1 -1.1104 6.6975 -2.40577 17.7529
390 1 -1.1104 6.65787 -2.45968 20.5905
415 2 2.2208 2.45594 -3.707 19.1768
340 2 2.2208 2.51803 12.96 13.7332
347 2 2.2208 2.45311 18.5995 13.6679
675 1 -1.1104 9.46258 17.2538 23.4588
449 2 2.2208 8.18676 -3.78626 19.1882
391 1 -1.1104 6.66813 3.1201 15.0915
399 1 -1.1104 6.64238 0.506033 15.0413
384 1 -1.1104 6.72392 3.17197 17.8201
394 1 -1.1104 6.70186 0.445489 17.9234
423 2 2.2208 10.8398 1.80644 16.448
424 1 -1.1104 12.3449 -2.30811 17.8328
425 1 -1.1104 12.2765 3.17244 17.8848
426 1 -1.1104 12.3017 -2.4203 15.0537
428 1 -1.1104 12.3452 3.22077 15.0873
430 1 -1.1104 12.3403 0.438997 17.7799
431 2 2.2208 10.9667 -0.931882 19.2892
432 2 2.2208 10.9241 4.57386 19.2433
433 1 -1.1104 12.2995 0.378499 15.0562
435 1 -1.1104 9.49546 -2.39054 17.9299
436 1 -1.1104 9.49099 3.11671 17.87
437 2 2.2208 8.08915 1.79854 19.2579
438 1 -1.1104 9.51403 -2.36117 15.1284
440 1 -1.1104 9.4355 3.25082 15.0311
442 2 2.2208 8.07201 -0.996818 16.4606
443 2 2.2208 8.12297 4.51572 16.4447
444 1 -1.1104 9.62974 0.31798 17.8203
445 1 -1.1104 9.44421 0.346003 14.9999
392 1 -1.1104 6.68529 3.192 20.5493
439 1 -1.1104 9.55416 -2.29456 20.6903
427 1 -1.1104 12.3945 -2.37543 20.6829
429 1 -1.1104 12.2554 3.11777 20.6121
448 2 2.2208 10.8756 -3.73106 16.4951
613 2 2.2208 5.28731 -3.78736 22.002
350 2 2.2208 5.24157 21.3248 13.7222
637 1 -1.1104 9.51284 14.3777 23.4107
456 2 2.2208 5.32217 7.36495 16.5533
457 2 2.2208 5.29592 12.9253 16.4911
458 1 -1.1104 1.06269 8.80213 17.9326
460 1 -1.1104 1.04819 8.78919 15.111
464 1 -1.1104 1.10838 6.00928 17.9497
465 1 -1.1104 1.09881 11.5536 17.9025
468 2 2.2208 5.23619 10.1266 19.3434
469 1 -1.1104 1.13889 5.96871 15.1597
471 1 -1.1104 1.10051 11.5741 15.1469
477 1 -1.1104 3.95092 8.71982 18.0231
478 2 2.2208 2.4305 7.40133 19.3179
479 2 2.2208 2.35706 12.9445 19.2765
480 1 -1.1104 3.91124 8.74765 15.1123
482 2 2.2208 2.54543 10.1631 16.518
483 1 -1.1104 3.88772 5.99422 17.9762
484 1 -1.1104 3.83845 11.5742 17.8462
485 1 -1.1104 3.86815 6.01109 15.1876
487 1 -1.1104 3.9454 11.473 15.0373
615 1 -1.1104 12.2773 17.1555 26.216
355 2 2.2208 10.8361 21.3578 13.6568
472 1 -1.1104 1.00754 11.5501 20.7212
474 1 -1.1104 6.75226 5.98647 20.6107
359 2 2.2208 2.43317 -0.907006 27.6496
642 2 2.2208 10.9404 -3.81026 21.9664
339 2 2.2208 5.33292 10.1328 13.7067
554 1 -1.1104 12.2661 14.3729 23.4134
467 1 -1.1104 6.68879 11.5784 17.9875
459 1 -1.1104 6.67884 8.78817 17.9164
473 1 -1.1104 6.72434 5.96825 15.0211
475 1 -1.1104 6.72511 11.6012 15.1574
462 1 -1.1104 6.59809 8.74059 15.0451
466 1 -1.1104 6.66832 5.96747 17.8506
492 2 2.2208 10.8983 7.41225 16.3751
493 2 2.2208 10.8965 12.9376 16.5117
494 1 -1.1104 12.2448 8.722 17.8431
495 1 -1.1104 12.3697 8.8293 15.0524
497 1 -1.1104 12.3179 5.91635 17.8812
498 1 -1.1104 12.3264 11.5904 17.8414
499 2 2.2208 10.9431 10.1181 19.2085
500 1 -1.1104 12.3325 6.10431 15.0311
502 1 -1.1104 12.322 11.5834 15.1933
504 1 -1.1104 9.47199 8.68431 17.8243
505 2 2.2208 8.15549 7.32601 19.2347
506 2 2.2208 8.07299 12.9072 19.2878
507 1 -1.1104 9.47791 8.80274 15.0407
509 2 2.2208 8.05475 10.1987 16.4182
510 1 -1.1104 9.4656 5.97461 17.7637
511 1 -1.1104 9.61899 11.4645 17.8221
512 1 -1.1104 9.48205 5.9928 14.9987
514 1 -1.1104 9.48463 11.6229 15.0442
476 1 -1.1104 6.68966 11.4673 20.74
503 1 -1.1104 12.2955 11.5565 20.5746
513 1 -1.1104 9.45675 5.98108 20.6318
508 1 -1.1104 9.56334 8.78737 20.5776
672 1 -1.1104 9.5664 19.9571 26.3527
334 2 2.2208 5.22117 4.64889 13.7483
519 2 2.2208 5.33096 18.49 16.5365
520 1 -1.1104 1.01269 14.2899 17.8704
521 1 -1.1104 1.131 19.909 17.9367
524 1 -1.1104 1.14446 14.3692 15.0704
526 1 -1.1104 1.08187 19.9105 15.1313
532 1 -1.1104 1.18377 17.1113 17.8373
534 2 2.2208 5.27265 15.7299 19.2973
535 2 2.2208 5.36188 21.3095 19.2492
536 1 -1.1104 1.16068 17.1598 15.1624
540 1 -1.1104 3.90464 14.2548 17.9211
541 1 -1.1104 4.01129 19.8631 17.7856
542 2 2.2208 2.53191 18.5511 19.3528
543 1 -1.1104 3.79778 14.3633 15.1538
545 1 -1.1104 3.94435 19.9907 15.1632
547 2 2.2208 2.49702 15.7367 16.5419
548 2 2.2208 2.49175 21.3434 16.4878
549 1 -1.1104 3.96762 17.0629 17.9733
550 1 -1.1104 3.91719 17.1964 15.1767
527 1 -1.1104 1.06027 19.9332 20.7194
336 2 2.2208 10.9016 -0.985621 13.7462
644 1 -1.1104 6.70455 20.0389 26.2886
354 2 2.2208 5.27743 15.7288 13.7551
9202 2 2.2208 -0.249811 21.3849 13.6929
525 1 -1.1104 1.06722 14.2781 20.7354
414 2 2.2208 5.30244 -3.84334 16.4222
528 1 -1.1104 6.5866 14.371 15.1375
533 1 -1.1104 6.7452 17.2473 17.8128
538 1 -1.1104 6.73886 17.0625 15.0332
523 1 -1.1104 6.7402 19.923 17.8891
530 1 -1.1104 6.67668 19.8787 15.076
522 1 -1.1104 6.73125 14.4243 17.9574
555 2 2.2208 10.9433 18.5634 16.4927
556 1 -1.1104 12.3157 14.4691 17.9572
557 1 -1.1104 12.3043 20.0462 17.9095
558 1 -1.1104 12.2802 14.3475 15.204
560 1 -1.1104 12.2139 20.0082 15.1165
562 1 -1.1104 12.302 17.1749 17.9286
563 2 2.2208 10.7947 15.7601 19.3933
564 2 2.2208 10.8555 21.3618 19.2093
565 1 -1.1104 12.3124 17.1228 15.1
567 1 -1.1104 9.46204 14.2531 17.8245
568 1 -1.1104 9.4987 19.9136 17.8461
569 2 2.2208 8.1125 18.56 19.2486
570 1 -1.1104 9.46036 14.444 15.0056
572 1 -1.1104 9.49937 19.8938 15.0017
574 2 2.2208 8.12703 15.7129 16.4571
575 2 2.2208 8.03676 21.3104 16.4226
576 1 -1.1104 9.49427 17.0547 17.9538
577 1 -1.1104 9.56298 17.178 15.1402
571 1 -1.1104 9.43567 14.3075 20.6165
559 1 -1.1104 12.3378 14.2712 20.7632
566 1 -1.1104 12.3231 17.251 20.6742
529 1 -1.1104 6.6806 14.2549 20.7085
398 1 -1.1104 1.06132 0.42595 20.6942
583 2 2.2208 5.28231 1.80848 21.9638
584 1 -1.1104 1.11289 -2.37977 23.5322
585 1 -1.1104 1.07236 3.14711 23.4162
588 1 -1.1104 1.10506 -2.31072 26.2587
589 1 -1.1104 1.06832 3.23413 26.1531
592 1 -1.1104 1.06931 0.362065 23.5023
594 2 2.2208 5.2348 -0.953846 24.7458
595 2 2.2208 5.31793 4.57159 24.8153
596 1 -1.1104 1.09416 0.450684 26.2974
598 1 -1.1104 3.91024 -2.38785 23.4017
599 1 -1.1104 3.9116 3.17061 23.4821
600 2 2.2208 2.49703 1.82469 24.8511
601 1 -1.1104 3.86801 -2.35081 26.1997
602 1 -1.1104 3.83679 3.12036 26.2553
603 2 2.2208 2.42581 -1.00324 22.102
604 2 2.2208 2.47922 4.58296 22.1149
605 1 -1.1104 3.86416 0.426188 23.4352
606 1 -1.1104 3.84757 0.419796 26.254
590 1 -1.1104 6.67267 -2.41015 26.213
586 1 -1.1104 6.74124 -2.38183 23.3699
597 1 -1.1104 6.62615 0.469171 26.2636
587 1 -1.1104 6.70084 3.21849 23.3338
697 2 2.2208 -0.322558 18.5962 22.1598
618 2 2.2208 -0.340257 4.55254 24.8411
617 2 2.2208 -0.293337 1.80758 22.0145
446 1 -1.1104 9.5465 0.440673 20.5167
441 1 -1.1104 9.44684 3.15382 20.7434
616 2 2.2208 -0.321873 -1.01174 24.9614
9430 2 2.2208 -0.257413 18.5383 16.4732
400 1 -1.1104 6.71543 0.403014 20.6413
434 1 -1.1104 12.3955 0.265846 20.6626
593 1 -1.1104 6.74696 0.379602 23.391
591 1 -1.1104 6.59437 3.20883 26.1738
619 2 2.2208 10.9499 1.69786 22.0737
620 1 -1.1104 12.3528 -2.36725 23.5377
621 1 -1.1104 12.3562 3.11304 23.4494
622 1 -1.1104 12.3068 -2.49038 26.2641
623 1 -1.1104 12.2522 3.19254 26.1741
624 1 -1.1104 12.3259 0.267873 23.4966
625 2 2.2208 10.8075 -1.06161 24.9103
626 2 2.2208 10.9892 4.60843 24.7383
627 1 -1.1104 12.1934 0.370763 26.2037
628 1 -1.1104 9.53653 -2.4887 23.3929
629 1 -1.1104 9.57652 3.20953 23.4977
630 2 2.2208 8.06508 1.89422 24.7984
631 1 -1.1104 9.52631 -2.42362 26.2349
632 1 -1.1104 9.49295 3.21717 26.2773
633 2 2.2208 8.22118 -0.922931 21.9635
634 2 2.2208 8.06522 4.64538 21.9888
635 1 -1.1104 9.56782 0.385018 23.3782
636 1 -1.1104 9.44387 0.410434 26.2138
9193 2 2.2208 -0.345139 10.2425 13.6402
647 1 -1.1104 9.54225 14.4446 26.1245
418 2 2.2208 -0.296883 7.43885 22.0459
638 1 -1.1104 9.55942 19.9681 23.5796
332 2 2.2208 5.28873 -1.05702 13.6299
486 1 -1.1104 3.99141 5.97932 20.6959
481 1 -1.1104 3.92241 8.77953 20.7807
488 1 -1.1104 3.78659 11.5033 20.6426
470 1 -1.1104 1.12223 5.94774 20.8118
461 1 -1.1104 1.09919 8.78556 20.7378
706 1 -1.1104 6.67684 17.268 26.2617
614 2 2.2208 2.47342 -3.81615 24.8439
648 2 2.2208 5.27264 7.37938 22.0646
649 2 2.2208 5.23992 12.9458 22.1468
650 1 -1.1104 1.0143 8.76381 23.5576
652 1 -1.1104 1.13425 8.81105 26.2496
654 1 -1.1104 1.06081 5.98872 23.4951
655 1 -1.1104 1.01731 11.539 23.4972
658 2 2.2208 5.33671 10.101 24.808
659 1 -1.1104 1.12833 5.98019 26.2905
660 1 -1.1104 1.09689 11.5219 26.3325
663 1 -1.1104 3.88095 8.7962 23.4553
664 2 2.2208 2.47562 7.34674 24.8388
665 2 2.2208 2.52688 12.8826 24.9622
666 1 -1.1104 3.8731 8.81623 26.273
667 2 2.2208 2.44878 10.1619 22.0691
668 1 -1.1104 3.7938 5.97747 23.4476
669 1 -1.1104 3.81565 11.5391 23.4949
670 1 -1.1104 3.92966 5.95588 26.2061
671 1 -1.1104 3.93679 11.5909 26.3577
463 1 -1.1104 6.68668 8.78599 20.7645
651 1 -1.1104 6.70951 8.75565 23.4773
657 1 -1.1104 6.63891 11.5119 23.4857
661 1 -1.1104 6.74329 5.93749 26.1979
496 1 -1.1104 12.3572 8.78693 20.6846
515 1 -1.1104 9.53612 11.568 20.547
346 2 2.2208 8.11994 12.9915 13.6875
501 1 -1.1104 12.2462 5.95355 20.581
656 1 -1.1104 6.57737 5.9596 23.44
662 1 -1.1104 6.7928 11.6332 26.1879
653 1 -1.1104 6.65733 8.66063 26.4016
679 1 -1.1104 9.45717 11.6319 26.1252
680 1 -1.1104 9.66882 5.92307 26.2691
681 1 -1.1104 9.5026 11.5165 23.4049
682 1 -1.1104 9.37464 5.9742 23.4467
683 2 2.2208 8.13088 10.1872 22.0809
684 1 -1.1104 9.52726 8.68758 26.2113
685 2 2.2208 8.14084 13.0332 24.8447
686 2 2.2208 8.12319 7.31164 24.896
687 2 2.2208 10.917 7.38848 22.0188
688 2 2.2208 10.8744 12.9169 22.0084
689 1 -1.1104 12.3011 8.83571 23.4008
690 1 -1.1104 12.2618 8.67939 26.2126
691 1 -1.1104 12.3763 6.02961 23.276
692 1 -1.1104 12.2808 11.5698 23.4242
693 2 2.2208 10.8238 10.1449 24.8238
694 1 -1.1104 12.3999 5.92914 26.1159
695 1 -1.1104 12.1615 11.6097 26.1913
696 1 -1.1104 9.50148 8.71943 23.4593
356 2 2.2208 10.8467 15.8736 13.7447
537 1 -1.1104 1.10965 17.1532 20.7184
551 1 -1.1104 3.88431 17.0565 20.8448
546 1 -1.1104 3.92144 19.8971 20.6819
544 1 -1.1104 3.84213 14.2797 20.74
343 2 2.2208 8.06167 7.45749 13.5708
9390 2 2.2208 13.617 21.5227 16.4894
335 2 2.2208 8.00943 1.86819 13.5696
701 2 2.2208 2.46723 15.6595 22.19
703 1 -1.1104 3.96206 19.8666 23.5548
705 1 -1.1104 3.95501 14.4066 23.5169
707 1 -1.1104 1.08382 20.0225 26.285
708 1 -1.1104 0.976163 17.1159 26.2567
709 1 -1.1104 0.992968 14.3134 26.2964
711 2 2.2208 5.28138 21.3269 24.8741
712 2 2.2208 5.34933 15.8018 24.9312
714 1 -1.1104 1.18599 19.9433 23.6076
715 1 -1.1104 1.07895 14.3608 23.4687
716 2 2.2208 5.22544 18.5354 22.1209
717 1 -1.1104 3.87073 19.9963 26.3207
718 2 2.2208 2.53667 18.5423 24.9927
719 1 -1.1104 3.89393 17.2418 26.2911
720 1 -1.1104 3.79446 14.4647 26.2445
722 1 -1.1104 1.02631 17.1686 23.4486
723 1 -1.1104 3.80782 17.0864 23.5333
724 2 2.2208 2.50719 21.3136 22.0762
581 1 -1.1104 12.4192 19.8927 26.3745
561 1 -1.1104 12.312 20.0889 20.7293
539 1 -1.1104 6.68582 17.1132 20.5987
579 1 -1.1104 12.3427 20.0473 23.5541
674 2 2.2208 8.05177 21.3151 22.0283
531 1 -1.1104 6.6261 19.9516 20.6332
721 1 -1.1104 6.68453 17.1288 23.4675
673 2 2.2208 8.02823 15.7769 21.9801
609 2 2.2208 10.9367 21.3728 24.8493
710 1 -1.1104 6.73728 20.0384 23.4308
607 1 -1.1104 12.3255 17.2402 23.4724
639 2 2.2208 8.15649 18.6292 24.896
573 1 -1.1104 9.40227 19.9157 20.6561
578 1 -1.1104 9.57148 17.1217 20.7492
553 2 2.2208 10.9498 18.5757 22.0324
608 2 2.2208 10.9221 15.8197 24.8195
678 1 -1.1104 9.42398 17.1603 26.2532
704 1 -1.1104 6.68598 14.469 26.2462
9201 2 2.2208 -0.21697 15.7192 13.6298
9177 2 2.2208 13.6437 18.6369 13.6672
700 2 2.2208 13.6464 13.0335 24.7913
455 2 2.2208 -0.280257 12.9999 16.4658
552 2 2.2208 13.6676 21.4038 22.1102
699 2 2.2208 -0.359786 15.7989 24.8377
353 2 2.2208 8.11169 21.4042 27.6469
364 2 2.2208 8.16328 4.61747 27.61
452 2 2.2208 13.6188 -3.79205 13.5794
374 2 2.2208 10.8387 12.9709 27.536
351 2 2.2208 8.11705 15.7542 27.6171
372 2 2.2208 10.9395 7.43492 27.6321
362 2 2.2208 10.8112 1.72359 27.5662
367 2 2.2208 5.27361 7.32657 27.7153
9188 2 2.2208 13.6845 13.01 13.7508
363 2 2.2208 8.01877 -0.959267 27.6196
338 2 2.2208 2.46012 7.38805 13.686
344 2 2.2208 10.9851 10.1861 13.6485
333 2 2.2208 2.50874 1.81792 13.7775
725 2 2.2208 5.32188 24.1443 5.38519
726 2 2.2208 5.33812 29.7137 5.33974
727 1 -1.1104 1.06172 25.5389 1.12826
728 1 -1.1104 1.21284 25.4294 3.94836
729 1 -1.1104 1.12515 22.6659 1.13214
730 1 -1.1104 1.15621 28.3437 1.17655
731 2 2.2208 5.23903 26.9244 2.60312
732 1 -1.1104 1.00987 22.7926 3.87753
733 1 -1.1104 1.1177 28.3217 4.00324
734 1 -1.1104 3.8298 25.6491 1.07062
735 2 2.2208 2.47446 24.1444 2.49938
736 2 2.2208 2.52982 29.8006 2.5272
737 1 -1.1104 3.93009 25.5755 3.98151
738 2 2.2208 2.48985 26.9487 5.30058
739 1 -1.1104 3.79304 22.9566 1.05237
740 1 -1.1104 3.81894 28.3679 1.10847
741 1 -1.1104 3.85213 22.8006 3.8946
742 1 -1.1104 3.9267 28.3925 3.99425
874 1 -1.1104 3.92874 28.3744 6.73604
744 2 2.2208 -0.330787 24.1457 5.27672
1068 2 2.2208 8.17327 43.7572 -0.319884
1082 2 2.2208 2.54871 38.1979 -0.352943
872 1 -1.1104 3.87182 25.6033 6.70961
1049 1 -1.1104 9.36669 47.8202 6.69511
873 1 -1.1104 3.88915 22.8583 6.75531
866 1 -1.1104 1.03795 25.5753 6.7233
1074 2 2.2208 10.9263 46.5038 -0.228194
1089 2 2.2208 8.08842 32.5783 -0.161572
747 1 -1.1104 6.70975 25.5591 4.00585
751 1 -1.1104 6.77607 28.3181 3.86108
748 1 -1.1104 6.63483 22.8366 1.07931
749 1 -1.1104 6.7211 28.3428 1.09854
750 1 -1.1104 6.63387 22.7705 3.9968
746 1 -1.1104 6.61355 25.5825 1.17406
752 2 2.2208 10.9142 24.1199 5.36675
753 2 2.2208 10.8612 29.7111 5.32677
754 1 -1.1104 12.2448 25.5392 1.23432
755 1 -1.1104 12.2184 25.6366 3.94975
756 1 -1.1104 12.3495 22.7458 1.07678
757 1 -1.1104 12.2291 28.4112 1.03641
758 2 2.2208 10.7947 26.9652 2.50083
759 1 -1.1104 12.3231 22.8654 3.97237
760 1 -1.1104 12.236 28.2954 3.85326
761 1 -1.1104 9.39618 25.5747 1.13149
762 2 2.2208 8.03292 24.2261 2.59791
763 2 2.2208 8.09325 29.6982 2.56768
764 1 -1.1104 9.49341 25.5503 3.90054
765 2 2.2208 8.14459 26.8995 5.34461
766 1 -1.1104 9.46139 22.7694 1.13621
767 1 -1.1104 9.5446 28.3936 1.09242
768 1 -1.1104 9.43997 22.6813 3.91086
769 1 -1.1104 9.51399 28.3457 3.90972
902 1 -1.1104 9.52729 25.441 6.67095
1025 1 -1.1104 9.69817 42.3426 12.3439
899 1 -1.1104 12.2376 25.4945 6.73784
1006 1 -1.1104 6.87118 42.3246 12.2666
1079 2 2.2208 8.13635 26.9587 -0.26319
794 2 2.2208 -0.244828 35.2952 5.27831
773 2 2.2208 5.21502 35.3428 5.39222
774 1 -1.1104 1.08487 31.084 1.17719
775 1 -1.1104 1.2704 36.6382 1.0546
777 1 -1.1104 1.13105 31.1215 3.95333
778 1 -1.1104 1.16974 36.7569 3.86789
780 1 -1.1104 1.16465 33.9049 1.11026
781 2 2.2208 5.33609 32.549 2.55187
782 2 2.2208 5.36561 38.1507 2.50544
783 1 -1.1104 1.09208 33.8643 3.86896
785 1 -1.1104 3.89213 31.1625 1.20052
786 1 -1.1104 4.06393 36.7345 1.10447
787 2 2.2208 2.62417 35.3149 2.49164
788 1 -1.1104 3.9161 31.1104 3.93143
789 1 -1.1104 3.90874 36.8166 4.02812
790 2 2.2208 2.49614 32.5528 5.40097
791 2 2.2208 2.45194 38.1262 5.30674
792 1 -1.1104 4.01879 33.9546 1.07814
793 1 -1.1104 3.8673 34.0581 3.98151
927 1 -1.1104 1.19578 33.9372 6.73491
1077 2 2.2208 -0.241542 24.1238 -0.238749
923 1 -1.1104 1.16913 31.133 6.62262
929 1 -1.1104 3.93769 31.1092 6.74666
931 1 -1.1104 3.84208 33.9515 6.69317
795 2 2.2208 -0.193132 38.036 2.52547
797 1 -1.1104 6.66767 31.0785 1.13174
799 1 -1.1104 6.79546 33.9427 1.21402
779 1 -1.1104 6.79057 36.708 3.88894
784 1 -1.1104 6.64641 33.9723 3.88352
776 1 -1.1104 6.76862 36.7817 1.08989
798 1 -1.1104 6.72174 31.1385 3.94287
800 2 2.2208 10.996 35.3615 5.4122
801 1 -1.1104 12.2959 31.1458 1.17363
802 1 -1.1104 12.2815 36.7943 1.15644
803 1 -1.1104 12.29 31.1892 3.99872
804 1 -1.1104 12.4402 36.7362 4.01512
805 1 -1.1104 12.2978 34.0954 1.28584
806 2 2.2208 10.9446 32.5813 2.65646
807 2 2.2208 10.9044 38.1845 2.58326
808 1 -1.1104 12.3165 33.9303 4.00066
809 1 -1.1104 9.46882 31.0712 1.19762
810 1 -1.1104 9.49653 36.6602 1.18569
811 2 2.2208 8.07451 35.3716 2.59977
812 1 -1.1104 9.59567 31.1062 4.03915
813 1 -1.1104 9.63801 36.722 3.99859