ITEM: TIMESTEP
40000
ITEM: NUMBER OF ATOMS
17700
ITEM: BOX BOUNDS pp pp pp
-3.1555837981464652e-01 2.7655558379814458e+01
-3.8602554771642894e+00 3.3194025547716006e+02
-3.2240376246668284e-01 2.7662403762466674e+01
ITEM: ATOMS id type q x y z
1 2 2.2208 5.30158 1.70372 5.25745
2 1 -1.1104 1.11155 -2.50546 1.09034
3 1 -1.1104 1.07056 3.21128 1.03042
6 1 -1.1104 1.06573 -2.36561 3.97294
7 1 -1.1104 1.19904 3.1631 3.81145
10 1 -1.1104 1.05795 0.393391 1.08944
12 2 2.2208 5.22586 -1.01022 2.52369
13 2 2.2208 5.22854 4.53102 2.4624
14 1 -1.1104 1.04883 0.355371 3.89339
16 1 -1.1104 3.92205 -2.42942 1.08497
17 1 -1.1104 3.92618 3.21965 1.03006
18 2 2.2208 2.4454 1.72878 2.43208
19 1 -1.1104 3.96311 -2.46082 3.8502
20 1 -1.1104 4.00931 3.1827 3.87457
21 2 2.2208 2.52354 -1.00582 5.29827
22 2 2.2208 2.50098 4.57181 5.25515
23 1 -1.1104 3.86642 0.393695 1.10897
24 1 -1.1104 3.88453 0.351254 3.83542
11 1 -1.1104 6.66497 0.300059 0.913069
4 1 -1.1104 6.58889 -2.45129 1.04977
8 1 -1.1104 6.61923 -2.46837 3.83629
5 1 -1.1104 6.7147 3.19095 0.921266
9 1 -1.1104 6.7026 3.09522 3.75342
15 1 -1.1104 6.66386 0.307151 3.87547
167 1 -1.1104 1.10463 3.21262 6.63165
170 1 -1.1104 1.08042 0.476971 6.76312
172 1 -1.1104 3.80067 -2.4394 6.71768
171 1 -1.1104 6.65993 0.222951 6.75448
166 1 -1.1104 1.11243 -2.41317 6.69731
174 1 -1.1104 3.86565 0.356199 6.50542
168 1 -1.1104 6.70967 -2.38472 6.59906
169 1 -1.1104 6.64629 3.07504 6.59965
105 2 2.2208 13.619 7.32107 2.45432
31 2 2.2208 10.8607 1.75599 5.33408
32 1 -1.1104 12.3803 -2.50722 1.10025
33 1 -1.1104 12.2317 3.15244 1.09103
34 1 -1.1104 12.2767 -2.45171 3.89015
35 1 -1.1104 12.2331 3.19072 3.81715
36 1 -1.1104 12.2116 0.364593 1.09192
37 2 2.2208 10.8595 -0.931091 2.48091
38 2 2.2208 10.8281 4.52846 2.42691
39 1 -1.1104 12.2967 0.548716 3.8307
40 1 -1.1104 9.45179 -2.40045 1.18195
41 1 -1.1104 9.46412 3.17324 0.998347
42 2 2.2208 8.01739 1.74861 2.43316
43 1 -1.1104 9.48594 -2.51703 3.92889
44 1 -1.1104 9.45946 3.13777 3.83183
45 2 2.2208 8.064 -1.00249 5.26777
46 2 2.2208 8.09079 4.53723 5.18549
47 1 -1.1104 9.45703 0.38008 1.00317
48 1 -1.1104 9.46133 0.345964 3.94
9174 2 2.2208 -0.285391 18.4465 10.7967
230 2 2.2208 13.62 -1.10464 10.8432
28 2 2.2208 2.59238 -3.81288 2.45795
209 1 -1.1104 9.39597 3.13684 6.57388
206 1 -1.1104 12.2547 3.10509 6.72708
210 1 -1.1104 9.52045 0.326619 6.52058
207 1 -1.1104 12.2934 0.351628 6.69854
205 1 -1.1104 12.2559 -2.44798 6.65546
208 1 -1.1104 9.54517 -2.45235 6.77148
54 2 2.2208 5.23729 7.35356 5.21346
55 2 2.2208 5.40326 12.9236 5.28667
56 1 -1.1104 1.1047 8.86136 0.989265
58 1 -1.1104 1.10024 8.80846 3.80226
60 1 -1.1104 0.999273 5.8952 0.956504
61 1 -1.1104 1.13083 11.6513 1.04413
66 2 2.2208 5.29549 10.2336 2.45826
67 1 -1.1104 1.06274 5.98355 3.68339
68 1 -1.1104 1.22737 11.6375 3.77674
71 1 -1.1104 3.9545 8.77017 0.929204
72 2 2.2208 2.49514 7.42467 2.4344
73 2 2.2208 2.62333 12.9909 2.41938
74 1 -1.1104 3.93104 8.85803 3.74195
75 2 2.2208 2.57071 10.2312 5.17035
76 1 -1.1104 3.84388 5.98175 1.16755
77 1 -1.1104 3.96564 11.5583 1.0129
79 1 -1.1104 3.82386 6.03995 3.91948
80 1 -1.1104 3.96783 11.6168 3.89949
63 1 -1.1104 6.57404 5.936 1.06966
59 1 -1.1104 6.72282 8.77494 3.8223
69 1 -1.1104 6.61612 5.9223 3.77703
64 1 -1.1104 6.81871 11.6041 0.958184
70 1 -1.1104 6.80279 11.6461 3.79752
57 1 -1.1104 6.71196 8.85246 1.00209
62 1 -1.1104 1.12255 11.4872 6.61588
234 1 -1.1104 1.19641 8.79163 6.54854
239 1 -1.1104 3.85299 5.98862 6.60901
238 1 -1.1104 3.9254 8.69317 6.53324
236 1 -1.1104 1.06718 5.97709 6.65974
237 1 -1.1104 6.57457 5.80759 6.64938
235 1 -1.1104 6.77563 8.70018 6.58345
78 1 -1.1104 3.95955 11.518 6.71976
52 2 2.2208 10.897 -3.85014 5.26827
49 2 2.2208 13.6558 1.78974 2.42148
84 2 2.2208 10.9174 7.34431 5.17339
85 2 2.2208 10.9532 12.8343 5.26284
86 1 -1.1104 12.365 8.68656 0.974289
87 1 -1.1104 12.3397 8.71165 3.84937
88 1 -1.1104 12.1812 5.91161 1.10231
89 1 -1.1104 12.4065 11.5278 0.972405
91 2 2.2208 10.9944 10.0734 2.37296
92 1 -1.1104 12.3128 5.97444 3.88519
93 1 -1.1104 12.2995 11.4659 3.78911
94 1 -1.1104 9.57295 8.78229 0.932936
95 2 2.2208 8.0542 7.29425 2.44532
96 2 2.2208 8.17077 12.9362 2.47849
97 1 -1.1104 9.4779 8.71587 3.76028
98 2 2.2208 8.14629 10.0969 5.15744
99 1 -1.1104 9.39865 6.03874 0.875899
100 1 -1.1104 9.60905 11.5629 0.958994
102 1 -1.1104 9.51464 5.92838 3.81525
103 1 -1.1104 9.5592 11.5321 3.81463
325 2 2.2208 13.6324 4.45889 5.25092
265 1 -1.1104 12.2182 8.75198 6.70687
266 1 -1.1104 12.2135 5.90394 6.6796
90 1 -1.1104 12.4264 11.5098 6.57858
82 2 2.2208 -0.280151 10.1649 2.35592
9103 2 2.2208 -0.232057 10.1615 8.00331
106 2 2.2208 5.29347 18.4406 5.20831
107 1 -1.1104 1.2074 14.4267 0.915111
109 1 -1.1104 1.17812 19.9363 0.979097
113 1 -1.1104 1.27346 14.3765 3.68495
114 1 -1.1104 1.09391 20.012 3.77345
116 1 -1.1104 1.12482 17.1685 1.0162
119 2 2.2208 5.45532 15.8075 2.44061
120 2 2.2208 5.40016 21.201 2.4872
121 1 -1.1104 1.12758 17.2075 3.90404
123 1 -1.1104 4.01608 14.4079 1.1072
125 1 -1.1104 3.92723 20.0337 1.041
127 2 2.2208 2.5354 18.5984 2.42369
128 1 -1.1104 4.10971 14.3213 3.89426
129 1 -1.1104 3.85294 19.8597 3.76711
130 2 2.2208 2.63442 15.6251 5.26537
131 2 2.2208 2.49888 21.2523 5.20445
132 1 -1.1104 4.01057 17.1409 0.969166
134 1 -1.1104 3.91251 17.0321 3.85441
138 1 -1.1104 6.79692 19.8305 1.08541
122 1 -1.1104 6.78369 17.1425 3.86436
139 1 -1.1104 6.79017 19.8358 3.88393
140 1 -1.1104 6.78651 17.1306 1.10442
110 1 -1.1104 6.85997 14.2869 0.989393
115 1 -1.1104 6.91722 14.4376 3.7663
126 1 -1.1104 3.98963 19.8934 6.51677
117 1 -1.1104 1.14868 16.9685 6.66677
112 1 -1.1104 6.68614 19.8212 6.64681
124 1 -1.1104 3.95918 14.3229 6.62747
118 1 -1.1104 6.81615 17.0057 6.62587
302 1 -1.1104 1.17624 19.8914 6.58039
108 1 -1.1104 1.18654 14.2271 6.54643
133 1 -1.1104 3.9436 17.1 6.72133
111 1 -1.1104 6.85477 14.2166 6.66029
9168 2 2.2208 13.6709 15.6909 10.8529
340 2 2.2208 2.43405 12.8844 13.659
141 2 2.2208 11.0278 18.5031 5.19995
142 1 -1.1104 12.4678 14.3224 0.990264
144 1 -1.1104 12.4088 19.9008 1.04377
146 1 -1.1104 12.321 14.2541 3.78811
147 1 -1.1104 12.2541 19.9486 3.75801
148 1 -1.1104 12.2851 17.0572 1.0369
150 2 2.2208 11.0615 15.6519 2.42391
151 2 2.2208 10.8916 21.287 2.45708
152 1 -1.1104 12.4643 17.0884 3.94201
153 1 -1.1104 9.59482 14.3861 1.07917
155 1 -1.1104 9.57292 19.8703 1.02123
157 2 2.2208 8.24383 18.4939 2.47848
158 1 -1.1104 9.66151 14.2848 3.93701
159 1 -1.1104 9.53879 19.9394 3.89158
160 2 2.2208 8.19781 15.6433 5.21686
161 2 2.2208 8.19737 21.2489 5.27657
162 1 -1.1104 9.56188 16.9809 1.03994
164 1 -1.1104 9.65455 17.0469 3.84975
346 2 2.2208 8.1494 12.9117 13.5554
143 1 -1.1104 12.3645 14.3668 6.71633
156 1 -1.1104 9.45073 19.8112 6.66181
145 1 -1.1104 12.2532 20.0276 6.53395
343 2 2.2208 8.07986 7.27904 13.6081
173 1 -1.1104 3.83096 3.13028 6.63108
136 2 2.2208 -0.313985 21.3713 2.40988
175 2 2.2208 5.31597 1.73699 10.8994
176 1 -1.1104 1.1518 -2.51732 12.2275
177 1 -1.1104 1.18696 2.99608 12.1901
180 1 -1.1104 1.13561 -2.51627 9.49397
181 1 -1.1104 1.05246 3.10771 9.47478
184 1 -1.1104 0.978428 0.207908 12.2578
186 2 2.2208 5.23969 -1.08426 8.14154
187 2 2.2208 5.24264 4.52182 8.02961
188 1 -1.1104 1.09332 0.27171 9.43565
190 1 -1.1104 3.94705 -2.43674 12.3006
191 1 -1.1104 3.86061 3.07076 12.1801
192 2 2.2208 2.4669 1.79044 8.02816
193 1 -1.1104 3.89458 -2.53099 9.53027
194 1 -1.1104 4.00015 3.13271 9.41059
195 2 2.2208 2.45714 -1.13097 10.883
196 2 2.2208 2.50941 4.54877 10.8434
197 1 -1.1104 3.85038 0.311448 12.284
198 1 -1.1104 3.78645 0.337436 9.39179
182 1 -1.1104 6.61203 -2.4889 9.47174
178 1 -1.1104 6.71587 -2.46038 12.2695
189 1 -1.1104 6.69371 0.358628 9.46115
185 1 -1.1104 6.65 0.293905 12.1924
179 1 -1.1104 6.64203 3.07982 12.308
183 1 -1.1104 6.77508 3.11903 9.46386
332 2 2.2208 5.28659 -1.07983 13.6481
9096 2 2.2208 -0.335557 12.9971 10.8649
333 2 2.2208 2.47067 1.62982 13.6037
30 2 2.2208 -0.301949 -3.79895 5.25785
9171 2 2.2208 -0.264533 4.54849 8.05109
211 2 2.2208 10.8398 1.70132 10.8516
212 1 -1.1104 12.2328 -2.45644 12.3343
213 1 -1.1104 12.2811 3.10404 12.3033
214 1 -1.1104 12.3308 -2.46578 9.42263
215 1 -1.1104 12.3262 3.15693 9.46561
216 1 -1.1104 12.2674 0.354868 12.1829
217 2 2.2208 10.821 -1.06258 8.02784
218 2 2.2208 10.8366 4.57003 8.02246
219 1 -1.1104 12.2901 0.282564 9.43934
220 1 -1.1104 9.44995 -2.52758 12.2414
221 1 -1.1104 9.48758 3.12742 12.2809
222 2 2.2208 7.99628 1.7494 8.04784
223 1 -1.1104 9.46725 -2.54826 9.47147
224 1 -1.1104 9.56203 3.16221 9.38585
225 2 2.2208 8.06215 -1.15601 10.9038
226 2 2.2208 8.14476 4.50631 10.793
227 1 -1.1104 9.56639 0.219275 12.2729
228 1 -1.1104 9.4203 0.325819 9.40151
356 2 2.2208 10.9464 15.6494 13.6645
9173 2 2.2208 -0.293912 21.2728 7.97956
324 2 2.2208 10.9098 21.2609 8.04554
354 2 2.2208 5.2979 15.7552 13.543
240 2 2.2208 5.29567 7.24079 10.8626
241 2 2.2208 5.30843 12.9404 10.8354
242 1 -1.1104 0.992214 8.74934 12.2027
244 1 -1.1104 1.07589 8.66371 9.36656
246 1 -1.1104 0.983347 5.84465 12.2784
247 1 -1.1104 1.07525 11.6124 12.0816
250 2 2.2208 5.31574 10.0506 7.96799
251 1 -1.1104 1.07183 5.98394 9.47881
252 1 -1.1104 1.18617 11.5441 9.37687
255 1 -1.1104 3.74046 8.69806 12.2405
256 2 2.2208 2.46436 7.40151 8.03149
257 2 2.2208 2.55715 12.8786 8.02778
258 1 -1.1104 3.82841 8.77397 9.37788
259 2 2.2208 2.49827 10.1245 10.7993
260 1 -1.1104 3.85321 5.82691 12.1329
261 1 -1.1104 3.88674 11.5019 12.3002
262 1 -1.1104 3.86956 5.93962 9.4088
263 1 -1.1104 3.94866 11.5199 9.49081
243 1 -1.1104 6.60445 8.66781 12.2606
248 1 -1.1104 6.60965 5.88163 12.1384
245 1 -1.1104 6.71978 8.64515 9.43893
253 1 -1.1104 6.73857 5.81064 9.4066
249 1 -1.1104 6.73491 11.4606 12.2359
254 1 -1.1104 6.69353 11.5481 9.46863
339 2 2.2208 5.26834 10.0696 13.6486
163 1 -1.1104 9.56836 17.048 6.59779
338 2 2.2208 2.40279 7.33285 13.609
65 1 -1.1104 6.72021 11.5057 6.64378
269 1 -1.1104 9.40403 5.84671 6.58324
267 1 -1.1104 9.5164 8.65891 6.58728
101 1 -1.1104 9.55272 11.506 6.65288
344 2 2.2208 10.9406 10.1648 13.5776
26 2 2.2208 -0.31234 1.76461 5.26316
9177 2 2.2208 13.6721 18.4838 13.5849
264 1 -1.1104 9.53767 11.4081 9.4382
268 1 -1.1104 9.48145 5.91965 9.36744
270 1 -1.1104 9.5379 11.5898 12.1693
271 1 -1.1104 9.51532 5.87397 12.2043
272 2 2.2208 8.03878 10.0616 10.8426
273 1 -1.1104 9.4139 8.6823 9.46457
274 2 2.2208 8.15342 12.8539 8.05036
275 2 2.2208 8.09164 7.24714 8.00671
276 2 2.2208 10.866 7.28948 10.8354
277 2 2.2208 10.9107 12.9861 10.7815
278 1 -1.1104 12.2416 8.60299 12.2224
279 1 -1.1104 12.2477 8.69762 9.41332
280 1 -1.1104 12.2401 5.81934 12.2149
281 1 -1.1104 12.3127 11.5067 12.2801
282 2 2.2208 10.9455 10.0911 8.0942
283 1 -1.1104 12.2751 5.893 9.41929
284 1 -1.1104 12.302 11.5784 9.4516
285 1 -1.1104 9.47921 8.7617 12.2592
314 1 -1.1104 9.51612 17.0672 9.46907
316 2 2.2208 8.07219 21.2429 10.8908
9136 2 2.2208 13.7388 21.246 10.8378
313 2 2.2208 11.0065 15.7794 8.01999
83 1 -1.1104 12.2704 14.2262 12.1485
290 1 -1.1104 6.74511 14.317 9.4472
288 1 -1.1104 6.70559 19.9075 9.43938
289 1 -1.1104 6.68336 17.0636 9.40074
298 1 -1.1104 1.08469 19.8499 12.1715
295 2 2.2208 5.31969 15.6344 8.00081
294 1 -1.1104 1.031 14.3322 9.33895
293 2 2.2208 5.37346 21.2917 8.04594
292 1 -1.1104 1.08258 17.1338 9.45939
301 1 -1.1104 3.88479 19.8864 9.26392
300 2 2.2208 5.31394 18.5381 10.7736
310 2 2.2208 2.48576 15.7824 10.893
309 2 2.2208 2.49311 21.3116 10.7087
308 1 -1.1104 3.83634 17.0358 12.2334
307 1 -1.1104 1.08226 17.0481 12.2622
291 1 -1.1104 1.04417 19.9053 9.39445
299 1 -1.1104 1.0829 14.3171 12.2573
305 1 -1.1104 3.91502 14.3574 9.34418
304 1 -1.1104 3.85323 17.1965 9.52072
303 2 2.2208 2.46175 18.4862 7.99913
286 1 -1.1104 3.92275 19.8988 12.2124
287 1 -1.1104 3.81992 14.3362 12.1059
296 1 -1.1104 6.68868 19.9137 12.2179
347 2 2.2208 2.45822 18.4743 13.5791
320 2 2.2208 8.15767 18.3886 8.00242
321 1 -1.1104 9.46473 19.8335 12.3178
319 1 -1.1104 9.53706 14.278 9.3825
315 1 -1.1104 9.48648 17.0477 12.2412
154 1 -1.1104 9.60684 14.2564 6.67037
323 1 -1.1104 12.2422 17.0974 9.49455
50 2 2.2208 10.9333 18.3775 10.8429
229 1 -1.1104 12.3891 14.3237 9.4205
312 1 -1.1104 12.3331 16.9991 12.1916
317 2 2.2208 8.13246 15.7442 10.8218
149 1 -1.1104 12.3764 17.2356 6.69325
199 1 -1.1104 12.2723 19.8497 12.2324
350 2 2.2208 5.33155 21.308 13.5597
297 1 -1.1104 6.6583 14.3337 12.2027
306 1 -1.1104 6.66533 17.1554 12.166
311 1 -1.1104 12.3376 19.9501 9.47994
322 1 -1.1104 9.54335 14.3154 12.1056
318 1 -1.1104 9.51862 19.8129 9.43659
81 2 2.2208 -0.29238 7.38398 5.15918
135 2 2.2208 -0.223284 15.7967 2.39445
9170 2 2.2208 -0.292311 12.9217 5.2178
357 2 2.2208 8.06301 18.4138 13.6028
329 2 2.2208 13.6394 7.21848 8.05748
137 2 2.2208 -0.339219 18.5316 5.24166
334 2 2.2208 5.22844 4.50542 13.6497
353 2 2.2208 8.06754 21.2873 -0.323574
419 2 2.2208 2.54544 -3.79151 13.7267
337 2 2.2208 10.8575 4.53349 13.7008
612 2 2.2208 5.33118 -3.8932 -0.31929
9202 2 2.2208 -0.244129 21.3137 13.5983
360 2 2.2208 2.48153 4.57264 -0.35109
377 2 2.2208 2.62763 15.7663 -0.368801
363 2 2.2208 8.12008 -1.07467 -0.320399
379 2 2.2208 2.52396 21.3056 -0.313634
380 2 2.2208 5.29207 1.73051 16.4468
381 1 -1.1104 1.12697 -2.43987 17.82
382 1 -1.1104 0.991677 3.00629 17.9906
385 1 -1.1104 1.11564 -2.48721 15.107
387 1 -1.1104 1.0475 3.09104 15.0676
393 1 -1.1104 1.05599 0.339801 17.7798
395 2 2.2208 5.20464 -1.05922 19.2699
396 2 2.2208 5.23556 4.49195 19.2084
397 1 -1.1104 0.952273 0.307087 15.0137
401 1 -1.1104 3.89101 -2.50859 17.8614
402 1 -1.1104 3.86707 3.11837 17.8238
403 2 2.2208 2.46269 1.65336 19.2389
404 1 -1.1104 3.86651 -2.51768 15.0402
406 1 -1.1104 3.90751 3.08492 14.9587
408 2 2.2208 2.48072 -1.09975 16.426
409 2 2.2208 2.41154 4.42442 16.4491
410 1 -1.1104 3.80036 0.245204 17.9305
411 1 -1.1104 3.84742 0.280212 15.0891
399 1 -1.1104 6.68483 0.256783 15.0821
391 1 -1.1104 6.7458 3.1252 15.1159
394 1 -1.1104 6.58454 0.252842 17.8778
389 1 -1.1104 6.70812 -2.48402 15.0977
384 1 -1.1104 6.64411 3.01346 17.9461
383 1 -1.1104 6.71842 -2.42729 17.9754
407 1 -1.1104 3.8922 3.0607 20.6151
388 1 -1.1104 1.16551 3.12608 20.6728
398 1 -1.1104 1.02464 0.379033 20.6627
390 1 -1.1104 6.67095 -2.44921 20.6928
405 1 -1.1104 3.92259 -2.51032 20.5745
392 1 -1.1104 6.67599 3.12836 20.6816
412 1 -1.1104 3.81534 0.202467 20.7178
400 1 -1.1104 6.68308 0.357846 20.6799
423 2 2.2208 10.8509 1.76873 16.4914
424 1 -1.1104 12.342 -2.5798 17.8226
425 1 -1.1104 12.2119 3.16036 17.8
426 1 -1.1104 12.3517 -2.39688 15.095
428 1 -1.1104 12.4034 3.11274 15.1994
430 1 -1.1104 12.2606 0.310493 17.8338
431 2 2.2208 10.8836 -1.07854 19.1639
432 2 2.2208 10.9592 4.48485 19.2434
433 1 -1.1104 12.3847 0.325595 14.9936
435 1 -1.1104 9.54653 -2.49139 17.7496
436 1 -1.1104 9.49922 3.16188 17.8788
437 2 2.2208 8.11377 1.68522 19.3153
438 1 -1.1104 9.56409 -2.55302 15.0033
440 1 -1.1104 9.48959 3.07319 15.0424
442 2 2.2208 8.07492 -1.07424 16.4921
443 2 2.2208 8.06227 4.57047 16.5722
444 1 -1.1104 9.44099 0.245623 17.7619
445 1 -1.1104 9.4602 0.297334 15.0707
375 2 2.2208 -0.249593 18.5987 27.5996
697 2 2.2208 -0.235769 18.6391 21.9341
413 2 2.2208 -0.263498 -3.82288 16.4572
446 1 -1.1104 9.59292 0.341491 20.616
441 1 -1.1104 9.54257 3.18305 20.6002
439 1 -1.1104 9.53851 -2.512 20.6326
434 1 -1.1104 12.3034 0.261071 20.6883
427 1 -1.1104 12.3073 -2.52124 20.5772
677 2 2.2208 -0.260102 13.0134 21.9968
699 2 2.2208 -0.257494 15.7564 24.8662
456 2 2.2208 5.14072 7.32746 16.4361
457 2 2.2208 5.26721 12.8141 16.349
458 1 -1.1104 1.14713 8.61548 17.8715
460 1 -1.1104 1.04714 8.75144 15.0827
464 1 -1.1104 1.06524 5.89694 17.9142
465 1 -1.1104 1.04938 11.4678 17.8697
468 2 2.2208 5.18824 10.106 19.2161
469 1 -1.1104 1.11917 5.92774 15.0584
471 1 -1.1104 0.949515 11.4787 15.0123
477 1 -1.1104 3.87831 8.63291 17.8872
478 2 2.2208 2.49593 7.17519 19.2748
479 2 2.2208 2.47701 13.0132 19.1749
480 1 -1.1104 3.85427 8.78032 15.0585
482 2 2.2208 2.39979 10.0963 16.4561
483 1 -1.1104 3.81913 5.77447 17.8013
484 1 -1.1104 3.82898 11.5028 17.8359
485 1 -1.1104 3.84707 5.89087 15.0209
487 1 -1.1104 3.77993 11.4656 15.0412
473 1 -1.1104 6.56368 5.86395 15.0889
459 1 -1.1104 6.67257 8.79846 17.8127
466 1 -1.1104 6.75358 5.84547 17.8141
475 1 -1.1104 6.70332 11.51 15.0366
467 1 -1.1104 6.58534 11.4961 17.8068
474 1 -1.1104 6.61542 5.87446 20.6143
462 1 -1.1104 6.74249 8.73939 15.0278
470 1 -1.1104 1.09251 5.87294 20.6615
461 1 -1.1104 1.05187 8.77758 20.6846
472 1 -1.1104 1.15499 11.5959 20.639
463 1 -1.1104 6.65959 8.66869 20.6192
486 1 -1.1104 3.86386 5.84602 20.6463
489 2 2.2208 13.6259 12.8831 19.2051
488 1 -1.1104 3.8507 11.4897 20.597
481 1 -1.1104 3.90984 8.73526 20.6604
476 1 -1.1104 6.72265 11.4958 20.6738
672 1 -1.1104 9.34081 19.8444 26.171
492 2 2.2208 10.8612 7.31723 16.3872
493 2 2.2208 10.8357 12.7597 16.3746
494 1 -1.1104 12.2952 8.63904 17.7119
495 1 -1.1104 12.2413 8.66944 14.9639
497 1 -1.1104 12.3016 5.97011 17.9063
498 1 -1.1104 12.18 11.4348 17.8068
499 2 2.2208 10.8755 9.94937 19.2999
500 1 -1.1104 12.3479 5.9276 15.0236
502 1 -1.1104 12.3395 11.4766 15.0434
504 1 -1.1104 9.44977 8.73656 17.8206
505 2 2.2208 8.07082 7.30204 19.2731
506 2 2.2208 8.02484 12.8705 19.2371
507 1 -1.1104 9.47868 8.76514 15.0141
509 2 2.2208 8.09875 10.1474 16.4539
510 1 -1.1104 9.63722 5.8951 17.7822
511 1 -1.1104 9.45322 11.5056 17.7397
512 1 -1.1104 9.43792 5.958 14.9659
514 1 -1.1104 9.51415 11.5113 14.949
9509 2 2.2208 13.6801 10.1209 22.0421
676 2 2.2208 -0.298343 10.1388 24.8194
496 1 -1.1104 12.3314 8.67799 20.6258
501 1 -1.1104 12.3351 5.93636 20.6153
513 1 -1.1104 9.53436 5.98363 20.6362
515 1 -1.1104 9.48448 11.5455 20.5914
638 1 -1.1104 9.45646 20.0003 23.3761
674 2 2.2208 8.06124 21.3742 22.0521
519 2 2.2208 5.35026 18.5196 16.3645
520 1 -1.1104 1.02391 14.3788 17.7481
521 1 -1.1104 1.16378 19.8672 17.7925
524 1 -1.1104 1.04261 14.2495 15.0865
526 1 -1.1104 1.20917 19.9377 14.9529
532 1 -1.1104 1.16932 17.1275 17.8345
534 2 2.2208 5.27507 15.7033 19.1509
535 2 2.2208 5.23503 21.3595 19.1617
536 1 -1.1104 1.08469 17.1247 15.0093
540 1 -1.1104 3.77954 14.269 17.7091
541 1 -1.1104 3.98212 19.9156 17.7353
542 2 2.2208 2.52605 18.5853 19.2128
543 1 -1.1104 4.04229 14.234 14.9905
545 1 -1.1104 3.988 19.8113 15.0239
547 2 2.2208 2.50618 15.7628 16.3761
548 2 2.2208 2.53899 21.3976 16.407
549 1 -1.1104 3.85043 17.1256 17.8461
550 1 -1.1104 3.92153 17.0799 14.9443
530 1 -1.1104 6.76047 19.9379 14.9664
528 1 -1.1104 6.7448 14.2157 14.9751
533 1 -1.1104 6.69752 17.1125 17.7445
538 1 -1.1104 6.71538 17.1109 15.0577
523 1 -1.1104 6.79319 19.9586 17.8486
525 1 -1.1104 1.16165 14.4128 20.5734
527 1 -1.1104 1.18276 20.0327 20.6095
546 1 -1.1104 3.8909 19.9617 20.5991
544 1 -1.1104 3.94834 14.3598 20.6493
537 1 -1.1104 1.0431 17.2293 20.6031
529 1 -1.1104 6.7072 14.3786 20.478
580 1 -1.1104 12.3724 14.3279 26.2239
522 1 -1.1104 6.72311 14.2808 17.7961
531 1 -1.1104 6.65049 19.9894 20.5802
559 1 -1.1104 12.2768 14.2921 20.608
369 2 2.2208 5.35391 13.0161 27.6098
675 1 -1.1104 9.5111 17.1843 23.458
555 2 2.2208 10.8833 18.5251 16.4461
556 1 -1.1104 12.2628 14.2584 17.7303
557 1 -1.1104 12.3173 19.9348 17.7839
558 1 -1.1104 12.3573 14.311 14.9179
560 1 -1.1104 12.2957 19.9026 15.0658
562 1 -1.1104 12.2046 17.1285 17.8575
563 2 2.2208 10.8698 15.6154 19.1479
564 2 2.2208 10.9435 21.3674 19.1506
565 1 -1.1104 12.279 17.0358 15.0769
567 1 -1.1104 9.54732 14.2532 17.7294
568 1 -1.1104 9.61577 19.9025 17.8074
569 2 2.2208 8.23241 18.4989 19.1972
570 1 -1.1104 9.58622 14.2624 14.9286
572 1 -1.1104 9.44722 19.8044 15.0829
574 2 2.2208 8.17162 15.7582 16.3979
575 2 2.2208 8.10143 21.2978 16.4707
576 1 -1.1104 9.44837 17.113 17.7994
577 1 -1.1104 9.52386 17.0178 15.0789
9317 2 2.2208 13.6475 10.0861 16.4493
573 1 -1.1104 9.49504 20.0181 20.6126
571 1 -1.1104 9.42791 14.3834 20.568
578 1 -1.1104 9.56289 17.1398 20.6201
561 1 -1.1104 12.3597 19.9812 20.6056
581 1 -1.1104 12.1993 19.9563 26.1913
386 1 -1.1104 1.13227 -2.49355 20.6799
366 2 2.2208 13.6401 4.48608 27.6446
583 2 2.2208 5.25726 1.66146 22.0193
584 1 -1.1104 1.164 -2.45713 23.4754
585 1 -1.1104 1.07346 3.22169 23.46
588 1 -1.1104 1.15109 -2.50696 26.2716
589 1 -1.1104 1.0168 3.03558 26.2457
592 1 -1.1104 0.927938 0.363772 23.3607
594 2 2.2208 5.3503 -1.03397 24.815
595 2 2.2208 5.32536 4.56821 24.7989
596 1 -1.1104 1.14403 0.283311 26.2021
598 1 -1.1104 3.87973 -2.50239 23.5141
599 1 -1.1104 3.90091 3.06608 23.3958
600 2 2.2208 2.38352 1.67185 24.8151
601 1 -1.1104 3.83688 -2.48206 26.3312
602 1 -1.1104 3.92387 3.08491 26.1699
603 2 2.2208 2.47545 -1.04695 22.1042
604 2 2.2208 2.44601 4.53303 22.0442
605 1 -1.1104 3.86882 0.357537 23.404
606 1 -1.1104 3.87665 0.246314 26.2263
590 1 -1.1104 6.7498 -2.50996 26.1978
593 1 -1.1104 6.70365 0.258858 23.4081
591 1 -1.1104 6.76326 3.12434 26.1342
597 1 -1.1104 6.75845 0.294888 26.1917
586 1 -1.1104 6.77588 -2.51315 23.4213
372 2 2.2208 10.8606 7.29119 27.5861
9430 2 2.2208 -0.288237 18.5069 16.3921
454 2 2.2208 -0.276642 10.1006 19.2251
429 1 -1.1104 12.2209 3.05688 20.5889
616 2 2.2208 -0.30282 -1.10794 24.8501
587 1 -1.1104 6.67485 3.06375 23.4326
417 2 2.2208 -0.277525 -1.01752 19.3005
9387 2 2.2208 13.5678 15.7095 16.4449
373 2 2.2208 8.18271 10.1678 27.5527
352 2 2.2208 10.8944 18.4988 27.5589
619 2 2.2208 10.8788 1.6858 22.0292
620 1 -1.1104 12.2454 -2.39564 23.4251
621 1 -1.1104 12.2706 3.02714 23.4088
622 1 -1.1104 12.2376 -2.51136 26.3417
623 1 -1.1104 12.2324 3.06274 26.1927
624 1 -1.1104 12.2548 0.329868 23.4551
625 2 2.2208 10.9085 -1.10167 24.8905
626 2 2.2208 10.8933 4.4823 24.7456
627 1 -1.1104 12.2448 0.320403 26.2174
628 1 -1.1104 9.47803 -2.64136 23.4838
629 1 -1.1104 9.3933 3.09281 23.3782
630 2 2.2208 8.03998 1.70256 24.7328
631 1 -1.1104 9.49809 -2.5859 26.2934
632 1 -1.1104 9.50074 3.12644 26.2151
633 2 2.2208 8.10091 -1.15174 22.051
634 2 2.2208 8.08763 4.50059 22.0342
635 1 -1.1104 9.43086 0.261433 23.3744
636 1 -1.1104 9.50807 0.201801 26.3349
609 2 2.2208 10.8348 21.3455 24.7884
637 1 -1.1104 9.51451 14.342 23.3582
374 2 2.2208 11.0158 12.9176 27.6004
554 1 -1.1104 12.2788 14.357 23.3773
453 2 2.2208 -0.272872 7.27669 16.5021
648 2 2.2208 5.30096 7.37749 21.9861
649 2 2.2208 5.30933 12.9859 22.0571
650 1 -1.1104 1.16099 8.67384 23.3724
652 1 -1.1104 1.14481 8.73085 26.2364
654 1 -1.1104 1.08036 6.00699 23.5108
655 1 -1.1104 1.0849 11.6024 23.4258
658 2 2.2208 5.31772 10.103 24.8441
659 1 -1.1104 1.12749 5.94255 26.1883
660 1 -1.1104 1.09894 11.3904 26.2161
663 1 -1.1104 3.92331 8.76929 23.3812
664 2 2.2208 2.53587 7.36229 24.775
665 2 2.2208 2.49751 13.0151 24.8039
666 1 -1.1104 3.87973 8.68703 26.1479
667 2 2.2208 2.50051 10.2108 22.0491
668 1 -1.1104 3.85597 6.00598 23.3442
669 1 -1.1104 3.92131 11.4663 23.498
670 1 -1.1104 3.94777 5.95287 26.2271
671 1 -1.1104 3.99293 11.6611 26.2333
657 1 -1.1104 6.75295 11.5805 23.4878
656 1 -1.1104 6.65762 5.81764 23.4722
661 1 -1.1104 6.77258 5.93084 26.1691
651 1 -1.1104 6.7966 8.75727 23.3289
653 1 -1.1104 6.75797 8.73556 26.073
662 1 -1.1104 6.82669 11.5682 26.2284
615 1 -1.1104 12.4238 17.1836 26.2313
368 2 2.2208 2.59521 10.1538 27.5751
491 2 2.2208 -0.296418 4.49279 19.2747
503 1 -1.1104 12.2464 11.4239 20.6621
508 1 -1.1104 9.52957 8.70076 20.708
704 1 -1.1104 6.77117 14.375 26.15
678 1 -1.1104 9.56443 17.1806 26.2332
679 1 -1.1104 9.63086 11.5816 26.2612
680 1 -1.1104 9.64884 5.93213 26.1295
681 1 -1.1104 9.50651 11.4922 23.468
682 1 -1.1104 9.43544 5.95128 23.4423
683 2 2.2208 8.10923 10.1419 22.0424
684 1 -1.1104 9.55468 8.70948 26.1548
685 2 2.2208 8.14928 12.9088 24.7854
686 2 2.2208 8.12277 7.36358 24.8138
687 2 2.2208 10.854 7.26423 22.1225
688 2 2.2208 10.911 12.9381 21.944
689 1 -1.1104 12.2351 8.59584 23.3959
690 1 -1.1104 12.2947 8.60837 26.1928
691 1 -1.1104 12.384 5.77688 23.5061
692 1 -1.1104 12.3807 11.5386 23.3547
693 2 2.2208 10.9347 10.1211 24.7836
694 1 -1.1104 12.3124 5.84883 26.239
695 1 -1.1104 12.2966 11.4877 26.1432
696 1 -1.1104 9.5146 8.7122 23.4346
673 2 2.2208 8.14653 15.7931 21.8823
451 2 2.2208 13.6609 -1.03329 16.3928
582 2 2.2208 13.6425 15.712 22.0496
551 1 -1.1104 3.88847 17.1778 20.6253
539 1 -1.1104 6.78215 17.2578 20.5134
607 1 -1.1104 12.2555 17.1288 23.3492
644 1 -1.1104 6.60975 19.9819 26.3061
713 1 -1.1104 6.6877 14.3472 23.3596
710 1 -1.1104 6.56561 19.89 23.4853
706 1 -1.1104 6.73786 17.1524 26.1371
701 2 2.2208 2.53706 15.7887 22.0142
703 1 -1.1104 3.87991 19.9521 23.4005
705 1 -1.1104 3.9421 14.2796 23.4779
707 1 -1.1104 1.06206 20.0195 26.1224
708 1 -1.1104 1.26834 17.1055 26.2835
709 1 -1.1104 1.06045 14.3009 26.1243
711 2 2.2208 5.26226 21.31 24.8592
712 2 2.2208 5.38632 15.7521 24.7892
714 1 -1.1104 1.11892 20.0447 23.3583
715 1 -1.1104 1.09244 14.3125 23.3621
716 2 2.2208 5.2718 18.6175 21.9022
717 1 -1.1104 3.86998 19.9724 26.2188
718 2 2.2208 2.57335 18.5451 24.7617
719 1 -1.1104 3.93567 17.128 26.1159
720 1 -1.1104 3.87061 14.3907 26.2768
722 1 -1.1104 1.11862 17.1137 23.4927
723 1 -1.1104 3.92869 17.0311 23.311
724 2 2.2208 2.42318 21.3367 22.0257
721 1 -1.1104 6.67967 17.1845 23.3833
378 2 2.2208 5.33356 18.491 27.574
608 2 2.2208 10.9039 15.8314 24.8469
566 1 -1.1104 12.2918 17.1485 20.6498
351 2 2.2208 8.20693 15.71 27.5712
579 1 -1.1104 12.2763 19.9411 23.4393
639 2 2.2208 8.1315 18.5487 24.7282
647 1 -1.1104 9.521 14.325 26.2252
553 2 2.2208 10.9799 18.5555 22.0472
422 2 2.2208 13.6778 18.443 19.2161
370 2 2.2208 -0.262966 12.9659 27.5972
367 2 2.2208 5.29319 7.32989 27.636
364 2 2.2208 8.13358 4.5376 27.4965
358 2 2.2208 5.33355 1.77493 27.5902
359 2 2.2208 2.55511 -1.05432 27.6516
362 2 2.2208 10.8998 1.72064 27.6541
336 2 2.2208 10.9087 -1.06076 13.7423
341 2 2.2208 13.6876 7.34029 13.6919
355 2 2.2208 10.8547 21.1537 13.6594
335 2 2.2208 8.09853 1.71872 13.68
371 2 2.2208 -0.297784 7.37239 27.6379
725 2 2.2208 5.33628 24.072 5.21149
726 2 2.2208 5.32613 29.6562 5.25335
727 1 -1.1104 0.915181 25.6728 0.982932
728 1 -1.1104 1.08647 25.5298 3.79703
729 1 -1.1104 0.955792 22.8053 0.975897
730 1 -1.1104 1.15197 28.3717 1.04501
731 2 2.2208 5.26073 26.8447 2.4007
732 1 -1.1104 1.00473 22.8535 3.82243
733 1 -1.1104 1.1304 28.3437 4.00316
734 1 -1.1104 3.7387 25.4655 1.06008
735 2 2.2208 2.4785 24.0802 2.34918
736 2 2.2208 2.46893 29.8088 2.47873
737 1 -1.1104 3.87965 25.4613 3.792
738 2 2.2208 2.51734 26.9834 5.24193
739 1 -1.1104 3.9588 22.7661 1.143
740 1 -1.1104 3.96754 28.2416 0.900343
741 1 -1.1104 3.90076 22.6758 3.8698
742 1 -1.1104 3.85941 28.3164 3.70936
750 1 -1.1104 6.68541 22.6651 3.70525
751 1 -1.1104 6.67755 28.2254 3.76278
746 1 -1.1104 6.64899 25.5029 1.05971
747 1 -1.1104 6.6898 25.4886 3.76531
749 1 -1.1104 6.73038 28.3289 1.07163
748 1 -1.1104 6.61044 22.5956 1.02251
872 1 -1.1104 3.93611 25.3928 6.59133
867 1 -1.1104 6.73555 25.4847 6.6606
871 1 -1.1104 6.76135 28.2669 6.59962
870 1 -1.1104 6.72299 22.645 6.59786
873 1 -1.1104 3.92526 22.6295 6.69119
869 1 -1.1104 1.09963 28.4346 6.78165
868 1 -1.1104 1.06685 22.71 6.55144
752 2 2.2208 10.7828 24.0834 5.2677
753 2 2.2208 10.8258 29.653 5.21446
754 1 -1.1104 12.2387 25.4903 1.13486
755 1 -1.1104 12.282 25.529 3.81523
756 1 -1.1104 12.1251 22.7274 1.11231
757 1 -1.1104 12.2309 28.308 1.06708
758 2 2.2208 10.8937 26.9099 2.5311
759 1 -1.1104 12.2109 22.7569 3.88149
760 1 -1.1104 12.286 28.2545 3.78752
761 1 -1.1104 9.46975 25.4944 1.02044
762 2 2.2208 8.04215 24.1088 2.43166
763 2 2.2208 8.13154 29.7016 2.44029
764 1 -1.1104 9.47867 25.4846 3.90484
765 2 2.2208 8.08307 26.8617 5.19845
766 1 -1.1104 9.41326 22.6962 1.19168
767 1 -1.1104 9.49887 28.2866 1.06382
768 1 -1.1104 9.48249 22.723 3.83725
769 1 -1.1104 9.43133 28.2751 3.91035
1044 2 2.2208 -0.265083 35.3327 10.8446
770 2 2.2208 13.6495 24.1234 2.45805
1070 2 2.2208 10.8796 43.719 13.5377
904 1 -1.1104 9.54925 28.1927 6.68888
903 1 -1.1104 9.52178 22.656 6.60045
902 1 -1.1104 9.39364 25.4047 6.7094
901 1 -1.1104 12.2166 28.3397 6.68469
900 1 -1.1104 12.2545 22.8099 6.5887
773 2 2.2208 5.38458 35.3666 5.25162
774 1 -1.1104 1.05936 31.2177 0.98931
775 1 -1.1104 1.10902 36.7882 1.07099
777 1 -1.1104 1.04176 31.0773 3.81802
778 1 -1.1104 1.10463 36.6672 3.85955
780 1 -1.1104 1.05487 34.1102 1.14156
781 2 2.2208 5.30287 32.5245 2.45638
782 2 2.2208 5.31446 38.1374 2.45525
783 1 -1.1104 1.11421 33.9 3.83739
785 1 -1.1104 3.84266 31.1767 1.08318
786 1 -1.1104 3.9226 36.6876 1.08599
787 2 2.2208 2.52087 35.3459 2.50209
788 1 -1.1104 3.86609 31.0983 3.90672
789 1 -1.1104 3.96961 36.638 3.91577
790 2 2.2208 2.53572 32.5202 5.2604
791 2 2.2208 2.52567 38.0916 5.31744
792 1 -1.1104 3.82474 33.98 1.13125
793 1 -1.1104 3.9456 33.8735 3.90563
784 1 -1.1104 6.699 33.8971 3.75116
779 1 -1.1104 6.77165 36.8271 3.83836
798 1 -1.1104 6.69961 31.0753 3.80832
776 1 -1.1104 6.61199 36.7771 0.991254
797 1 -1.1104 6.63386 31.1312 0.908015
799 1 -1.1104 6.71471 33.9269 1.13417
930 1 -1.1104 3.97953 36.6698 6.6514
928 1 -1.1104 6.77682 33.8919 6.52257
929 1 -1.1104 3.93187 31.1812 6.77846
926 1 -1.1104 6.75088 36.7382 6.69286
923 1 -1.1104 1.20569 31.1784 6.68964
924 1 -1.1104 1.12031 36.6863 6.7408
925 1 -1.1104 6.68891 31.0586 6.57475
1043 2 2.2208 -0.243255 32.4364 8.10873
9838 2 2.2208 -0.233564 46.5187 10.9388
1049 1 -1.1104 9.25605 47.7614 6.61299
800 2 2.2208 10.8562 35.3069 5.26012
801 1 -1.1104 12.3203 31.0691 1.06854
802 1 -1.1104 12.3069 36.7285 1.10399
803 1 -1.1104 12.1997 31.1212 3.79086
804 1 -1.1104 12.3056 36.8082 3.905
805 1 -1.1104 12.3333 33.9353 1.06533
806 2 2.2208 10.9057 32.5027 2.39671
807 2 2.2208 10.8584 38.1638 2.45826
808 1 -1.1104 12.3701 33.8546 3.80389
809 1 -1.1104 9.49637 30.9781 1.03054
810 1 -1.1104 9.53139 36.7122 1.06216
811 2 2.2208 8.04982 35.3513 2.45872
812 1 -1.1104 9.49885 31.1404 3.84235
813 1 -1.1104 9.49544 36.7202 3.88801
814 2 2.2208 8.1552 32.593 5.25327
815 2 2.2208 8.15806 38.1316 5.33446
816 1 -1.1104 9.44064 33.8564 1.07379
817 1 -1.1104 9.50196 33.8591 3.88873
1014 2 2.2208 -0.196808 43.7312 8.02398
961 1 -1.1104 9.55938 36.7556 6.65886
960 1 -1.1104 9.46295 31.0957 6.64205
962 1 -1.1104 9.48818 33.92 6.62988