ITEM: TIMESTEP
40000
ITEM: NUMBER OF ATOMS
17670
ITEM: BOX BOUNDS pp pp pp
-3.5757295871544281e-01 2.7697572958715210e+01
-4.2742148293053281e+00 3.3235421482929343e+02
-3.5604160154106057e-01 2.7696041601541275e+01
ITEM: ATOMS id type q x y z
1 2 2.2208 5.38386 1.37668 5.07757
2 1 -1.1104 1.09363 -2.7409 0.95915
3 1 -1.1104 1.05709 2.74162 0.788934
6 1 -1.1104 1.05023 -2.95061 3.74577
7 1 -1.1104 1.10134 2.59158 3.7836
10 1 -1.1104 1.11973 -0.0835941 0.83605
12 2 2.2208 5.24608 -1.51708 2.37131
13 2 2.2208 5.42722 4.08668 2.41134
14 1 -1.1104 1.0417 -0.218033 3.5717
16 1 -1.1104 3.90829 -2.8145 1.02588
17 1 -1.1104 3.9146 2.66217 0.951428
18 2 2.2208 2.41672 1.18113 2.32151
19 1 -1.1104 3.90525 -2.87972 3.746
20 1 -1.1104 3.87127 2.74425 3.70939
21 2 2.2208 2.4761 -1.4827 5.06222
22 2 2.2208 2.53161 4.20166 5.20138
23 1 -1.1104 3.85679 -0.185831 0.913026
24 1 -1.1104 3.8766 0.0925648 3.64601
174 1 -1.1104 3.95843 0.0130015 6.44364
4 1 -1.1104 6.76307 -2.85382 0.901431
11 1 -1.1104 6.82526 -0.0305727 0.837618
171 1 -1.1104 6.70692 -0.0430599 6.54466
172 1 -1.1104 3.80581 -2.81425 6.4747
166 1 -1.1104 0.947517 -3.08545 6.54444
168 1 -1.1104 6.60355 -2.77274 6.38033
173 1 -1.1104 4.03888 2.99802 6.52542
169 1 -1.1104 6.80931 2.71066 6.58556
9 1 -1.1104 6.77212 2.73206 3.80965
5 1 -1.1104 6.73013 2.74716 0.967176
15 1 -1.1104 6.77453 0.0176862 3.78996
8 1 -1.1104 6.7459 -2.75004 3.63697
28 2 2.2208 2.4445 -4.1686 2.32262
31 2 2.2208 10.8541 1.27319 5.12697
32 1 -1.1104 12.4006 -2.96422 0.844555
33 1 -1.1104 12.2062 2.64813 0.824
34 1 -1.1104 12.3303 -2.87084 3.78814
35 1 -1.1104 12.2547 2.87943 3.67866
36 1 -1.1104 12.1904 -0.181023 0.846246
37 2 2.2208 10.8759 -1.5176 2.24619
38 2 2.2208 10.8931 4.31367 2.23849
39 1 -1.1104 12.2804 0.000208413 3.76851
40 1 -1.1104 9.56658 -2.99896 0.85532
41 1 -1.1104 9.52079 2.78834 0.948309
42 2 2.2208 8.19522 1.29898 2.29133
43 1 -1.1104 9.43491 -2.93633 3.77491
44 1 -1.1104 9.52421 2.68991 3.81079
45 2 2.2208 8.14409 -1.4613 5.17053
46 2 2.2208 8.12168 4.10584 5.22619
47 1 -1.1104 9.49064 -0.0802106 0.924059
48 1 -1.1104 9.42116 -0.290472 3.73296
209 1 -1.1104 9.68152 2.59039 6.66161
210 1 -1.1104 9.49828 -0.117545 6.5143
206 1 -1.1104 12.3969 2.67134 6.60761
319 1 -1.1104 9.48197 13.9322 9.38291
208 1 -1.1104 9.64514 -2.82868 6.49755
359 2 2.2208 8.21686 6.89019 13.6845
207 1 -1.1104 12.3408 -0.139757 6.52803
54 2 2.2208 5.29099 7.03634 5.19687
55 2 2.2208 5.28544 12.5401 5.11072
56 1 -1.1104 1.124 8.42644 0.900902
58 1 -1.1104 1.21288 8.43082 3.82364
60 1 -1.1104 1.10059 5.66665 1.07607
61 1 -1.1104 1.03715 11.324 1.05937
66 2 2.2208 5.24577 9.84419 2.2894
67 1 -1.1104 1.21622 5.37144 3.83864
68 1 -1.1104 1.01988 11.295 3.74173
71 1 -1.1104 3.86021 8.46741 0.934574
72 2 2.2208 2.56161 6.93363 2.32473
73 2 2.2208 2.44936 12.5808 2.47611
74 1 -1.1104 3.94443 8.42223 3.66233
75 2 2.2208 2.56128 9.72851 5.16722
76 1 -1.1104 3.89369 5.67111 0.896091
77 1 -1.1104 4.05586 11.2517 0.992243
79 1 -1.1104 3.96823 5.55594 3.83179
80 1 -1.1104 3.89478 11.2607 3.80839
64 1 -1.1104 6.83752 11.156 0.9505
238 1 -1.1104 3.98869 8.46371 6.49976
62 1 -1.1104 0.982119 11.2944 6.64057
70 1 -1.1104 6.69211 11.0903 3.64355
239 1 -1.1104 4.04629 5.67388 6.66619
59 1 -1.1104 6.85084 8.2884 3.78871
78 1 -1.1104 3.68359 11.1966 6.58256
236 1 -1.1104 1.18984 5.64697 6.53776
234 1 -1.1104 1.2565 8.42697 6.45116
235 1 -1.1104 6.67222 8.37186 6.4745
65 1 -1.1104 6.63429 11.3032 6.4685
69 1 -1.1104 6.83533 5.44057 3.56097
63 1 -1.1104 6.87864 5.61936 0.940368
57 1 -1.1104 6.75492 8.46384 0.889441
237 1 -1.1104 6.83752 5.48653 6.50675
346 2 2.2208 -0.190363 -1.52306 13.5971
84 2 2.2208 10.9504 7.0675 5.15228
85 2 2.2208 10.8225 12.5219 5.29059
86 1 -1.1104 12.3055 8.40203 0.8667
87 1 -1.1104 12.3637 8.39285 3.67326
88 1 -1.1104 12.2882 5.56234 0.756069
89 1 -1.1104 12.2801 11.1632 0.965364
91 2 2.2208 10.997 9.86365 2.31067
92 1 -1.1104 12.311 5.65295 3.65266
93 1 -1.1104 12.4225 11.2317 3.74573
94 1 -1.1104 9.54409 8.44725 0.914557
95 2 2.2208 8.22128 7.09326 2.22566
96 2 2.2208 8.03851 12.5712 2.39274
97 1 -1.1104 9.6219 8.48033 3.80683
98 2 2.2208 8.1124 9.83784 5.1157
99 1 -1.1104 9.63749 5.52076 0.818134
100 1 -1.1104 9.54781 11.3307 0.997447
102 1 -1.1104 9.56795 5.72576 3.83852
103 1 -1.1104 9.45959 11.2336 3.77755
265 1 -1.1104 12.3958 8.31784 6.50627
266 1 -1.1104 12.3902 5.55254 6.48939
267 1 -1.1104 9.52789 8.42552 6.55049
90 1 -1.1104 12.2564 11.1554 6.57701
101 1 -1.1104 9.53131 11.1057 6.61709
269 1 -1.1104 9.54713 5.57291 6.5128
231 2 2.2208 8.07722 -4.25892 7.88694
349 2 2.2208 5.42903 4.13394 13.6267
106 2 2.2208 5.29549 18.2372 5.29094
107 1 -1.1104 1.11698 14.0832 0.999027
109 1 -1.1104 1.00114 19.6456 1.04639
113 1 -1.1104 1.05322 13.9676 3.86689
114 1 -1.1104 1.09036 19.539 3.81278
116 1 -1.1104 1.05571 16.8668 0.913533
119 2 2.2208 5.34079 15.4687 2.34685
120 2 2.2208 5.27612 21.1324 2.42325
121 1 -1.1104 1.13219 16.6932 3.62732
123 1 -1.1104 3.93389 13.9002 0.868717
125 1 -1.1104 3.90668 19.7133 1.04756
127 2 2.2208 2.46287 18.2385 2.4455
128 1 -1.1104 3.76038 14.034 3.75898
129 1 -1.1104 3.81677 19.5766 3.92761
130 2 2.2208 2.4934 15.3286 5.24526
131 2 2.2208 2.42552 21.1052 5.21543
132 1 -1.1104 3.77761 16.8411 1.02699
134 1 -1.1104 4.09809 16.8327 3.85936
126 1 -1.1104 3.91635 19.5628 6.66921
140 1 -1.1104 6.70171 16.7953 0.823198
115 1 -1.1104 6.60466 13.9579 3.80449
110 1 -1.1104 6.67401 14.0002 0.938029
139 1 -1.1104 6.70022 19.7583 3.71674
138 1 -1.1104 6.70253 19.5774 1.08561
108 1 -1.1104 0.978472 14.1423 6.65146
117 1 -1.1104 1.13741 16.823 6.49156
124 1 -1.1104 3.9506 13.9387 6.5146
111 1 -1.1104 6.75393 14.0562 6.60887
133 1 -1.1104 3.82186 16.791 6.61056
122 1 -1.1104 6.85556 16.6434 3.64948
118 1 -1.1104 6.58211 16.8195 6.5473
302 1 -1.1104 1.05071 19.8156 6.58745
330 1 -1.1104 12.1903 13.8739 12.3537
352 2 2.2208 8.18248 1.24788 13.554
112 1 -1.1104 6.71667 19.6783 6.49673
141 2 2.2208 10.8826 18.1942 5.25561
142 1 -1.1104 12.2977 14.0286 0.870635
144 1 -1.1104 12.2937 19.5743 1.10639
146 1 -1.1104 12.3858 14.007 3.72155
147 1 -1.1104 12.3006 19.6389 3.86369
148 1 -1.1104 12.2764 16.8493 1.08218
150 2 2.2208 10.8469 15.4401 2.29537
151 2 2.2208 10.8595 20.9883 2.50737
152 1 -1.1104 12.2126 16.6955 3.80637
153 1 -1.1104 9.65864 13.8633 0.974481
155 1 -1.1104 9.5119 19.4575 0.879082
157 2 2.2208 8.18656 18.1831 2.45173
158 1 -1.1104 9.42989 14.037 3.75508
159 1 -1.1104 9.36918 19.6596 3.69258
160 2 2.2208 8.09285 15.4819 5.19158
161 2 2.2208 8.16198 20.9637 5.24944
162 1 -1.1104 9.46813 16.7588 0.976284
164 1 -1.1104 9.48121 16.922 3.91955
143 1 -1.1104 12.1168 13.8488 6.6525
154 1 -1.1104 9.45238 13.9005 6.52496
149 1 -1.1104 12.3502 16.6263 6.7168
145 1 -1.1104 12.157 19.5171 6.66564
156 1 -1.1104 9.52498 19.5684 6.56839
348 2 2.2208 2.62692 1.43959 13.5378
163 1 -1.1104 9.49385 16.7527 6.78771
337 2 2.2208 13.5522 15.2837 5.1446
167 1 -1.1104 1.08956 2.89715 6.41466
170 1 -1.1104 1.19529 -0.244123 6.54272
336 2 2.2208 13.6234 20.9221 5.32447
175 2 2.2208 5.31875 1.35395 10.7421
176 1 -1.1104 1.08701 -2.99337 12.1567
177 1 -1.1104 1.16379 2.54912 12.0557
180 1 -1.1104 0.997853 -2.99197 9.36487
181 1 -1.1104 1.15332 2.71544 9.22543
184 1 -1.1104 1.20246 -0.22292 12.1094
186 2 2.2208 5.27196 -1.49922 7.92304
188 1 -1.1104 1.22568 -0.139797 9.19354
190 1 -1.1104 3.86571 -3.09589 11.9589
191 1 -1.1104 3.96155 2.66223 12.1046
192 2 2.2208 2.50643 1.38765 7.97381
193 1 -1.1104 3.86423 -2.84524 9.30632
194 1 -1.1104 3.97114 2.88512 9.24297
195 2 2.2208 2.54622 -1.49307 10.7805
196 2 2.2208 2.53279 4.2184 10.7272
197 1 -1.1104 4.00975 -0.090436 12.1834
198 1 -1.1104 4.01495 0.0305591 9.31944
187 2 2.2208 5.32557 4.32352 7.97628
179 1 -1.1104 6.77485 2.60323 12.0957
183 1 -1.1104 6.58801 2.81323 9.3367
182 1 -1.1104 6.78384 -2.94786 9.40436
347 2 2.2208 5.4877 -1.55036 13.6051
369 2 2.2208 10.8636 15.282 13.6755
205 1 -1.1104 12.4524 -2.88385 6.63607
185 1 -1.1104 6.8221 -0.14036 12.1868
178 1 -1.1104 6.83177 -2.8804 12.1949
317 2 2.2208 8.09644 15.4304 10.7924
189 1 -1.1104 6.80754 -0.24402 9.29669
326 1 -1.1104 12.265 16.7903 12.5559
27 2 2.2208 -0.212821 4.09588 2.37424
353 2 2.2208 11.0195 -1.5686 13.5871
200 2 2.2208 -0.256024 -1.62687 7.93162
211 2 2.2208 10.9358 1.25241 10.7644
212 1 -1.1104 12.2793 -3.01397 12.1171
213 1 -1.1104 12.3757 2.49879 12.135
214 1 -1.1104 12.3653 -3.02008 9.41055
215 1 -1.1104 12.3182 2.64248 9.51591
216 1 -1.1104 12.242 -0.266039 12.1662
217 2 2.2208 11.1044 -1.57834 7.93374
218 2 2.2208 10.9361 4.13675 7.94345
219 1 -1.1104 12.4758 -0.185571 9.38702
220 1 -1.1104 9.58736 -2.92885 12.0776
221 1 -1.1104 9.40217 2.72117 12.2496
222 2 2.2208 8.07126 1.18939 7.93479
223 1 -1.1104 9.57568 -2.96545 9.16831
224 1 -1.1104 9.41223 2.57823 9.40024
225 2 2.2208 8.23672 -1.49564 10.6734
227 1 -1.1104 9.65842 0.0733129 12.1971
228 1 -1.1104 9.58727 -0.159325 9.36621
226 2 2.2208 8.12034 4.00157 10.7287
354 2 2.2208 10.8786 3.99828 13.6814
324 2 2.2208 10.7354 21.022 8.05971
322 1 -1.1104 9.45146 13.9251 12.2152
357 2 2.2208 2.51626 12.5911 13.5443
356 2 2.2208 5.34423 9.67139 13.3989
240 2 2.2208 5.3473 6.95433 10.6862
241 2 2.2208 5.37975 12.5713 10.8576
242 1 -1.1104 1.10625 8.29841 12.2384
244 1 -1.1104 1.10872 8.30036 9.2146
246 1 -1.1104 1.04206 5.37786 12.1022
247 1 -1.1104 1.01583 11.1275 12.2035
250 2 2.2208 5.26002 9.85431 7.98766
251 1 -1.1104 0.959484 5.61449 9.20367
252 1 -1.1104 1.09202 11.0731 9.42488
255 1 -1.1104 3.86819 8.33 12.025
256 2 2.2208 2.52927 7.04379 7.91639
257 2 2.2208 2.42311 12.4483 8.04321
258 1 -1.1104 3.94301 8.31024 9.36465
259 2 2.2208 2.39659 9.78892 10.8859
260 1 -1.1104 3.87341 5.45807 12.2805
261 1 -1.1104 3.9208 11.2316 12.1762
262 1 -1.1104 3.87952 5.5432 9.45134
263 1 -1.1104 3.77487 11.1938 9.40132
245 1 -1.1104 6.59401 8.4875 9.35074
243 1 -1.1104 6.78343 8.24114 12.158
249 1 -1.1104 6.80941 11.0872 12.1502
355 2 2.2208 2.61677 6.83176 13.6474
248 1 -1.1104 6.80612 5.39635 12.14
321 1 -1.1104 9.59884 19.6511 12.3673
329 1 -1.1104 12.295 19.5924 12.2923
254 1 -1.1104 6.6544 11.2757 9.31548
253 1 -1.1104 6.71293 5.79137 9.33711
325 2 2.2208 10.9256 15.3214 8.14856
264 1 -1.1104 9.53117 11.1589 9.43935
268 1 -1.1104 9.3651 5.38685 9.30403
270 1 -1.1104 9.63425 11.195 12.2391
271 1 -1.1104 9.61953 5.47418 12.131
272 2 2.2208 8.24691 9.8165 10.8516
273 1 -1.1104 9.50882 8.3434 9.26219
274 2 2.2208 8.18196 12.594 8.01516
275 2 2.2208 8.1223 6.99404 7.85894
276 2 2.2208 10.8684 6.77704 10.6816
277 2 2.2208 10.927 12.5147 10.8283
278 1 -1.1104 12.2971 8.21453 12.2455
279 1 -1.1104 12.2958 8.31838 9.41055
280 1 -1.1104 12.4805 5.27446 12.0625
281 1 -1.1104 12.2387 11.1229 12.117
282 2 2.2208 10.9342 9.67483 7.97122
283 1 -1.1104 12.2829 5.62342 9.21842
284 1 -1.1104 12.295 11.131 9.44899
285 1 -1.1104 9.50672 8.41744 12.2789
340 2 2.2208 13.6532 12.4544 8.01844
135 2 2.2208 -0.354734 15.3652 2.42603
331 2 2.2208 10.8622 18.2601 10.9535
323 1 -1.1104 12.2857 16.7637 9.44656
365 2 2.2208 5.0912 15.4644 13.553
306 1 -1.1104 6.55518 16.9642 12.3369
288 1 -1.1104 6.61301 19.5706 9.54089
50 2 2.2208 13.6076 -1.48515 5.15695
291 1 -1.1104 1.02122 19.5509 9.30892
310 2 2.2208 2.43709 15.3155 10.8237
309 2 2.2208 2.60353 20.9854 10.767
308 1 -1.1104 3.7441 16.7583 12.1429
307 1 -1.1104 0.973399 16.8652 12.1712
305 1 -1.1104 3.88352 13.956 9.36181
292 1 -1.1104 1.13689 16.643 9.33904
287 1 -1.1104 3.81851 13.9437 12.1683
304 1 -1.1104 3.85685 16.6263 9.47978
303 2 2.2208 2.44351 18.1674 7.99007
286 1 -1.1104 3.87649 19.634 12.2021
301 1 -1.1104 3.81124 19.5739 9.46438
300 2 2.2208 5.23107 18.183 10.728
293 2 2.2208 5.24806 21.0097 8.05062
299 1 -1.1104 1.01371 14.0034 12.1428
298 1 -1.1104 1.03336 19.703 12.0792
295 2 2.2208 5.25889 15.2569 7.88874
294 1 -1.1104 1.04101 13.918 9.49304
297 1 -1.1104 6.62464 13.9946 12.2494
316 2 2.2208 8.09441 21.0444 10.899
296 1 -1.1104 6.7503 19.7512 12.2936
289 1 -1.1104 6.73656 16.7763 9.35098
290 1 -1.1104 6.69153 14.0788 9.42849
328 1 -1.1104 12.2746 13.8891 9.32934
318 1 -1.1104 9.37942 19.6406 9.43404
315 1 -1.1104 9.46651 16.8445 12.2709
327 1 -1.1104 12.2073 19.496 9.49299
314 1 -1.1104 9.56288 16.8714 9.44037
320 2 2.2208 8.11561 18.178 8.0241
364 2 2.2208 5.24579 20.8284 13.6096
342 2 2.2208 -0.415489 12.5564 10.8732
26 2 2.2208 -0.27208 1.1491 5.22815
201 2 2.2208 -0.314176 1.24849 10.672
312 2 2.2208 -0.373668 18.2274 10.9099
335 2 2.2208 13.656 9.81096 5.08724
360 2 2.2208 10.9907 9.77588 13.5781
199 2 2.2208 -0.269682 4.10335 7.91906
358 2 2.2208 -0.302061 9.60552 13.5501
51 2 2.2208 8.07204 -4.31803 2.34764
344 2 2.2208 -0.361038 6.8303 10.8576
367 2 2.2208 -0.317045 3.98779 13.5459
81 2 2.2208 -0.202751 6.9448 5.10478
49 2 2.2208 13.6032 1.32134 2.42955
333 2 2.2208 13.4638 15.3263 10.8504
136 2 2.2208 -0.297596 20.9355 2.464
363 2 2.2208 2.49294 18.2483 13.4889
631 2 2.2208 5.15609 -4.22555 -0.358799
386 2 2.2208 5.34328 7.03258 -0.36792
396 2 2.2208 5.33635 18.2983 -0.269911
399 2 2.2208 5.50605 1.30331 16.5285
400 1 -1.1104 1.14386 -2.83615 17.6375
401 1 -1.1104 1.10484 2.75602 17.7747
404 1 -1.1104 1.38031 -2.90192 14.8168
406 1 -1.1104 1.28632 2.67516 14.9046
412 1 -1.1104 1.10042 -0.0601319 17.9414
414 2 2.2208 5.32543 -1.44605 19.2027
415 2 2.2208 5.27208 4.09675 19.3066
416 1 -1.1104 1.27489 -0.0891488 15.0159
420 1 -1.1104 3.89505 -3.00429 17.8212
421 1 -1.1104 3.98059 2.67106 17.7806
422 2 2.2208 2.57367 1.2045 19.262
423 1 -1.1104 4.08498 -2.8467 14.8446
425 1 -1.1104 4.0886 2.8625 14.8077
427 2 2.2208 2.61194 -1.43159 16.281
429 1 -1.1104 4.04855 -0.0937554 17.8994
430 1 -1.1104 4.04856 -0.0813235 15.087
428 2 2.2208 2.62871 4.06507 16.4022
410 1 -1.1104 6.86397 2.60477 15.0979
402 1 -1.1104 6.75383 -2.99998 17.8612
411 1 -1.1104 6.7738 2.73998 20.68
431 1 -1.1104 3.87622 -0.284932 20.6072
418 1 -1.1104 6.88777 -0.288875 15.0527
426 1 -1.1104 4.06237 2.55652 20.6246
424 1 -1.1104 3.99078 -2.90691 20.4916
407 1 -1.1104 1.13876 2.61414 20.7614
403 1 -1.1104 6.74504 2.62532 17.9136
409 1 -1.1104 6.83971 -2.9741 20.7315
419 1 -1.1104 6.68636 -0.0921488 20.7688
391 2 2.2208 10.9053 6.99836 27.5897
395 2 2.2208 2.52884 20.9152 27.7192
600 2 2.2208 13.6729 17.9363 24.8283
408 1 -1.1104 6.85956 -2.86468 15.0083
413 1 -1.1104 6.86498 -0.0838984 17.8986
442 2 2.2208 10.9562 1.09043 16.3998
443 1 -1.1104 12.2734 -2.85586 17.6637
444 1 -1.1104 12.4691 2.60426 17.9244
445 1 -1.1104 12.3913 -2.83918 14.9385
447 1 -1.1104 12.4401 2.59113 15.0609
449 1 -1.1104 12.4605 -0.00830912 17.9238
450 2 2.2208 10.8348 -1.58646 19.1501
451 2 2.2208 10.9853 4.14381 19.188
452 1 -1.1104 12.4341 -0.211161 15.04
454 1 -1.1104 9.55362 -3.04118 17.7852
455 1 -1.1104 9.68832 2.48564 17.9079
456 2 2.2208 8.14868 1.38172 19.3536
457 1 -1.1104 9.68498 -2.91745 14.9153
459 1 -1.1104 9.51678 2.66236 15.1562
461 2 2.2208 8.31303 -1.55646 16.4014
462 2 2.2208 8.12933 4.03046 16.4232
463 1 -1.1104 9.64493 -0.131762 17.7995
464 1 -1.1104 9.54204 -0.170659 15.0251
465 1 -1.1104 9.42253 -0.124998 20.6881
458 1 -1.1104 9.44526 -2.83354 20.5186
448 1 -1.1104 12.3614 2.61804 20.7769
601 2 2.2208 13.6677 20.8701 22.0858
446 1 -1.1104 12.3367 -3.08327 20.5563
460 1 -1.1104 9.52557 2.69283 20.655
383 2 2.2208 8.09506 4.16859 27.618
475 2 2.2208 5.36382 6.86214 16.3824
476 2 2.2208 5.2479 12.5744 16.3822
477 1 -1.1104 1.07902 8.24907 17.8026
479 1 -1.1104 1.15489 8.18502 14.9409
483 1 -1.1104 0.967034 5.50042 17.8431
484 1 -1.1104 1.15599 11.2316 17.8068
487 2 2.2208 5.38813 9.7604 19.2607
488 1 -1.1104 1.13953 5.43855 15.0156
490 1 -1.1104 1.18103 10.9494 14.9268
496 1 -1.1104 4.03231 8.22858 17.6717
497 2 2.2208 2.46437 6.86691 19.167
498 2 2.2208 2.35006 12.5938 19.237
499 1 -1.1104 3.86832 8.41684 14.6931
501 2 2.2208 2.56947 9.5642 16.1933
502 1 -1.1104 3.92292 5.50132 17.8021
503 1 -1.1104 3.946 11.0333 17.6667
504 1 -1.1104 3.97279 5.52382 15.0804
506 1 -1.1104 3.93589 11.122 14.8658
489 1 -1.1104 1.01068 5.5116 20.693
493 1 -1.1104 6.7524 5.38229 20.4209
486 1 -1.1104 6.84814 11.1996 17.7612
491 1 -1.1104 0.998291 11.1403 20.5875
478 1 -1.1104 6.84591 8.3349 17.6355
492 1 -1.1104 6.70909 5.5138 15.0605
507 1 -1.1104 3.82845 11.0521 20.6081
482 1 -1.1104 6.81334 8.24658 20.5644
480 1 -1.1104 1.30173 8.26852 20.582
505 1 -1.1104 3.81457 5.57944 20.7356
494 1 -1.1104 6.55527 11.0852 15.0353
485 1 -1.1104 6.63804 5.41535 17.6952
500 1 -1.1104 4.08889 8.25693 20.4718
481 1 -1.1104 6.77688 8.25206 15.0498
691 1 -1.1104 9.50838 13.8809 23.4169
495 1 -1.1104 6.70285 11.1447 20.5486
662 2 2.2208 7.95327 -4.2266 24.7469
511 2 2.2208 10.9459 6.94152 16.4927
512 2 2.2208 10.818 12.5635 16.4213
513 1 -1.1104 12.3029 8.38652 17.7138
514 1 -1.1104 12.3255 8.28391 15.1858
516 1 -1.1104 12.3309 5.54248 17.7928
517 1 -1.1104 12.2368 11.222 17.7998
518 2 2.2208 10.9592 9.69204 19.2213
519 1 -1.1104 12.307 5.25486 14.9959
521 1 -1.1104 12.2285 11.0092 15.0133
523 1 -1.1104 9.6635 8.25339 17.908
524 2 2.2208 8.22202 6.83739 19.0217
525 2 2.2208 8.06829 12.5279 19.1258
526 1 -1.1104 9.54012 8.3541 14.9708
528 2 2.2208 8.1251 9.78297 16.3819
529 1 -1.1104 9.51197 5.32116 17.7418
530 1 -1.1104 9.55437 11.1375 17.945
531 1 -1.1104 9.62167 5.44935 14.9404
533 1 -1.1104 9.45872 11.2414 15.0859
520 1 -1.1104 12.2377 5.47061 20.5959
534 1 -1.1104 9.57782 11.294 20.5593
532 1 -1.1104 9.50246 5.46156 20.4068
527 1 -1.1104 9.508 8.31278 20.5518
434 2 2.2208 2.57995 -4.22422 19.1902
515 1 -1.1104 12.3846 8.2035 20.6842
632 2 2.2208 5.29944 -4.24332 21.9361
538 2 2.2208 5.1755 18.1233 16.4579
539 1 -1.1104 1.22751 14.1262 17.7605
540 1 -1.1104 1.03868 19.4302 17.7394
543 1 -1.1104 1.02843 13.7224 15.0842
545 1 -1.1104 1.02023 19.5777 14.8703
551 1 -1.1104 0.981759 16.7629 17.8825
553 2 2.2208 5.28432 15.4664 19.1601
554 2 2.2208 5.2342 21.1273 19.2656
555 1 -1.1104 0.945028 16.6532 15.0204
559 1 -1.1104 3.95557 14.1112 17.8169
560 1 -1.1104 3.83739 19.6085 17.9642
561 2 2.2208 2.40164 18.0627 19.3229
562 1 -1.1104 3.7795 14.0131 14.9946
564 1 -1.1104 3.77352 19.5121 15.157
566 2 2.2208 2.45194 15.3203 16.4662
567 2 2.2208 2.53977 20.988 16.4996
568 1 -1.1104 3.82161 16.7884 17.9904
569 1 -1.1104 3.60533 16.7016 14.8238
541 1 -1.1104 6.71079 13.9949 17.7681
542 1 -1.1104 6.54457 19.6805 17.8247
544 1 -1.1104 1.11779 13.9975 20.5486
548 1 -1.1104 6.60087 13.953 20.5743
563 1 -1.1104 3.85548 13.9386 20.6256
565 1 -1.1104 3.86762 19.5938 20.65
557 1 -1.1104 6.55724 16.6111 15.049
552 1 -1.1104 6.57263 16.6971 17.666
547 1 -1.1104 6.60329 13.9193 15.0137
558 1 -1.1104 6.81086 16.7225 20.5399
549 1 -1.1104 6.61092 19.6018 14.9491
574 2 2.2208 10.8569 18.1476 16.5789
575 1 -1.1104 12.2695 14.0312 17.8754
576 1 -1.1104 12.2957 19.5198 17.8358
577 1 -1.1104 12.2741 13.9184 15.0105
579 1 -1.1104 12.315 19.8229 15.0252
581 1 -1.1104 12.2097 16.8215 17.9792
582 2 2.2208 10.8025 15.3969 19.3194
583 2 2.2208 10.8339 20.8663 19.2818
584 1 -1.1104 12.2317 16.8389 15.2055
586 1 -1.1104 9.50008 14.0152 17.7623
587 1 -1.1104 9.46173 19.6795 17.7879
588 2 2.2208 8.12345 18.218 19.2877
589 1 -1.1104 9.432 14.0325 14.9322
591 1 -1.1104 9.48923 19.6174 15.0606
593 2 2.2208 8.08456 15.3299 16.4154
594 2 2.2208 7.9984 20.9687 16.3977
595 1 -1.1104 9.3321 16.8396 17.8631
596 1 -1.1104 9.36096 16.8382 15.1889
585 1 -1.1104 12.3518 16.455 20.6364
580 1 -1.1104 12.2325 19.5372 20.6865
592 1 -1.1104 9.52142 19.4624 20.7325
597 1 -1.1104 9.50735 16.8104 20.7249
590 1 -1.1104 9.47714 13.9994 20.5686
578 1 -1.1104 12.2887 13.7978 20.5882
376 2 2.2208 10.9822 18.1492 27.6736
393 2 2.2208 10.9874 12.5082 27.6593
417 1 -1.1104 1.06591 -0.0330513 20.6319
405 1 -1.1104 1.06799 -2.9413 20.5013
379 2 2.2208 2.5458 4.23164 27.6833
602 2 2.2208 5.34078 1.30454 22.1244
603 1 -1.1104 0.952639 -2.84413 23.4054
604 1 -1.1104 0.924705 2.78095 23.4746
607 1 -1.1104 1.12665 -3.14035 26.258
608 1 -1.1104 1.09799 2.87712 26.0825
611 1 -1.1104 1.01702 -0.0465226 23.4353
613 2 2.2208 5.23719 -1.44027 24.7685
614 2 2.2208 5.30209 4.27993 24.9154
615 1 -1.1104 1.04047 -0.117489 26.0658
617 1 -1.1104 3.77482 -2.91572 23.3515
618 1 -1.1104 3.81778 2.70223 23.3788
619 2 2.2208 2.44922 1.34338 24.7674
620 1 -1.1104 3.9514 -2.81953 26.2554
621 1 -1.1104 3.80372 2.71072 26.2161
622 2 2.2208 2.40528 -1.45206 22.1016
623 2 2.2208 2.41171 4.03547 22.1288
624 1 -1.1104 3.9655 -0.23051 23.314
625 1 -1.1104 3.73961 -0.143727 26.0273
606 1 -1.1104 6.62313 2.81459 23.5796
609 1 -1.1104 6.56717 -2.99677 26.164
378 2 2.2208 2.52008 -1.52073 27.6528
374 2 2.2208 5.26377 1.29155 27.51
605 1 -1.1104 6.63347 -2.7443 23.3318
610 1 -1.1104 6.60389 2.80432 26.281
435 2 2.2208 -0.27096 1.30845 16.4882
692 1 -1.1104 9.65434 19.3879 23.4074
453 1 -1.1104 12.2245 -0.373122 20.5861
441 2 2.2208 -0.301305 18.1392 16.2495
616 1 -1.1104 6.69255 0.0010973 26.1769
626 2 2.2208 10.9867 18.0745 22.1039
612 1 -1.1104 6.82204 -0.0589773 23.4954
381 2 2.2208 10.8983 1.3014 27.5772
638 2 2.2208 10.9514 1.226 21.9177
639 1 -1.1104 12.2805 -2.78429 23.2582
640 1 -1.1104 12.3314 2.69096 23.3814
641 1 -1.1104 12.3783 -2.96085 26.1395
642 1 -1.1104 12.2198 2.63536 26.1782
643 1 -1.1104 12.3571 -0.183557 23.439
644 2 2.2208 10.9139 -1.56426 24.7535
645 2 2.2208 10.92 4.17609 24.714
646 1 -1.1104 12.2423 -0.178158 26.2206
647 1 -1.1104 9.57684 -3.06283 23.4309
648 1 -1.1104 9.51852 2.60634 23.2885
649 2 2.2208 8.01579 1.30911 24.7156
650 1 -1.1104 9.48643 -2.95401 26.3356
651 1 -1.1104 9.40054 2.76683 26.1181
652 2 2.2208 8.17596 -1.53582 22.0522
653 2 2.2208 8.20761 4.17912 21.8021
654 1 -1.1104 9.6484 -0.260487 23.4278
655 1 -1.1104 9.53048 -0.138772 26.1775
382 2 2.2208 8.07635 -1.47582 27.518
398 2 2.2208 -0.237156 18.1782 27.5573
508 2 2.2208 13.6726 18.0502 19.375
634 1 -1.1104 12.2289 13.9938 26.1093
387 2 2.2208 2.46995 9.90937 27.5911
388 2 2.2208 5.25998 12.5626 27.563
667 2 2.2208 5.36601 6.83166 21.9717
668 2 2.2208 5.34225 12.4785 22.1265
669 1 -1.1104 1.04304 8.40969 23.4947
671 1 -1.1104 1.01301 8.54587 26.2246
673 1 -1.1104 0.939232 5.64672 23.5557
674 1 -1.1104 1.20088 11.1925 23.3871
677 2 2.2208 5.19216 9.62086 24.7177
678 1 -1.1104 1.00644 5.74264 26.3607
679 1 -1.1104 0.933201 11.2487 26.2596
682 1 -1.1104 3.81857 8.27246 23.3683
683 2 2.2208 2.38988 6.96409 24.8188
684 2 2.2208 2.44854 12.4816 24.8612
685 1 -1.1104 3.82507 8.30636 26.2502
686 2 2.2208 2.53732 9.65414 21.9483
687 1 -1.1104 3.78994 5.43337 23.3293
688 1 -1.1104 3.90692 11.0471 23.3729
689 1 -1.1104 3.85621 5.65884 26.0489
690 1 -1.1104 3.88067 11.022 26.1492
681 1 -1.1104 6.65705 11.227 26.2156
680 1 -1.1104 6.62511 5.58204 26.4145
670 1 -1.1104 6.6398 8.29192 23.372
675 1 -1.1104 6.67031 5.55514 23.366
676 1 -1.1104 6.79204 11.1501 23.3076
672 1 -1.1104 6.77606 8.38365 26.116
636 2 2.2208 -0.268358 1.35886 22.0224
522 1 -1.1104 12.3426 10.9986 20.5428
392 2 2.2208 8.2121 9.97989 27.5864
573 2 2.2208 -0.281582 3.97574 19.2494
627 1 -1.1104 12.2599 13.7815 23.345
698 1 -1.1104 9.54255 11.1783 26.2448
699 1 -1.1104 9.36803 5.61854 26.0623
700 1 -1.1104 9.50521 11.0632 23.3902
701 1 -1.1104 9.50384 5.41817 23.2333
702 2 2.2208 8.26025 9.78665 21.9539
703 1 -1.1104 9.62136 8.44069 26.1563
704 2 2.2208 8.06352 12.5325 24.8305
705 2 2.2208 8.11784 6.94963 24.7792
706 2 2.2208 10.9368 6.88909 22.0437
707 2 2.2208 10.9433 12.6162 21.997
708 1 -1.1104 12.353 8.37443 23.343
709 1 -1.1104 12.2532 8.33296 26.1449
710 1 -1.1104 12.3727 5.53904 23.4503
711 1 -1.1104 12.3026 11.1836 23.401
712 2 2.2208 10.8886 9.70965 24.7532
713 1 -1.1104 12.3106 5.55029 26.0805
714 1 -1.1104 12.3051 11.0556 26.2907
715 1 -1.1104 9.63933 8.22974 23.2507
510 2 2.2208 -0.289472 6.81064 16.4083
437 2 2.2208 -0.387314 6.8346 22.1152
628 1 -1.1104 12.4303 19.5283 23.6405
697 1 -1.1104 9.43844 13.9707 26.2354
570 1 -1.1104 3.97238 16.6939 20.743
550 1 -1.1104 6.79385 19.6998 20.6183
556 1 -1.1104 1.17557 16.7862 20.6664
666 1 -1.1104 12.1972 16.5352 26.2641
397 2 2.2208 2.56504 15.4852 27.5865
546 1 -1.1104 1.17176 19.6228 20.5963
723 1 -1.1104 6.66563 14.0078 26.1506
732 1 -1.1104 6.6588 13.8593 23.4727
744 2 2.2208 2.58785 15.3794 22.0847
722 1 -1.1104 3.97626 19.5249 23.4374
724 1 -1.1104 3.89062 13.9177 23.5156
726 1 -1.1104 1.13487 19.3824 26.286
727 1 -1.1104 1.31697 16.6164 26.1005
728 1 -1.1104 1.0268 13.8867 26.1816
730 2 2.2208 5.17478 21.041 24.9075
731 2 2.2208 5.25635 15.3483 24.7992
733 1 -1.1104 1.16474 19.4162 23.496
734 1 -1.1104 1.20823 13.8241 23.4593
735 2 2.2208 5.27904 18.35 22.0755
736 1 -1.1104 3.89725 19.6276 26.2386
737 2 2.2208 2.56302 18.1624 24.9124
738 1 -1.1104 4.03974 16.8903 26.3592
739 1 -1.1104 3.82017 13.9392 26.1254
741 1 -1.1104 1.08265 16.7843 23.4441
742 1 -1.1104 3.91913 16.8238 23.434
743 2 2.2208 2.54556 20.9504 22.0762
663 2 2.2208 10.9248 20.8509 24.8532
720 1 -1.1104 9.40307 16.5956 23.5353
718 2 2.2208 8.08474 20.9827 22.0329
658 2 2.2208 10.8579 15.2794 24.91
656 1 -1.1104 12.4011 19.5221 26.2906
716 1 -1.1104 9.50715 19.4648 26.1837
717 2 2.2208 8.01016 15.2087 21.9893
657 1 -1.1104 12.2893 16.6076 23.4811
745 1 -1.1104 9.53609 16.7521 26.2953
725 1 -1.1104 6.82326 16.6861 26.0703
694 1 -1.1104 6.74952 19.5689 26.1928
740 1 -1.1104 6.72935 16.8355 23.3527
729 1 -1.1104 6.83283 19.6849 23.3317
693 2 2.2208 8.13005 18.1157 24.844
390 2 2.2208 -0.274885 7.02037 27.7199
747 2 2.2208 -0.3922 20.8859 24.857
436 2 2.2208 -0.238628 -1.6134 19.1587
746 2 2.2208 -0.244117 18.1366 21.9896
696 2 2.2208 -0.335385 12.5219 22.0038
473 2 2.2208 -0.208447 21.0117 19.265
439 2 2.2208 13.6139 9.70855 21.9559
509 2 2.2208 13.6562 15.1802 16.4664
535 2 2.2208 -0.264951 9.67428 19.3102
536 2 2.2208 -0.272017 12.4612 16.4894
571 2 2.2208 13.73 6.83899 19.1961
370 2 2.2208 8.11741 18.1535 13.7603
380 2 2.2208 -0.283784 1.34992 27.5285
361 2 2.2208 8.09449 12.5591 13.7194
368 2 2.2208 10.9073 20.9716 13.699
377 2 2.2208 8.21175 20.9289 27.6192
375 2 2.2208 8.05991 15.3636 27.5897
385 2 2.2208 13.5459 3.99242 27.4917
749 2 2.2208 5.24012 23.7124 5.37109
750 2 2.2208 5.08458 29.4559 5.07856
751 1 -1.1104 0.929426 25.1892 0.928867
752 1 -1.1104 0.922458 25.2117 3.66091
753 1 -1.1104 1.15526 22.3295 1.03882
754 1 -1.1104 1.10504 27.9774 0.976688
755 2 2.2208 5.19986 26.5657 2.60168
756 1 -1.1104 1.093 22.3523 3.71254
757 1 -1.1104 0.825096 28.1123 3.80282
758 1 -1.1104 3.77609 25.1861 1.03295
759 2 2.2208 2.41635 23.8264 2.3765
760 2 2.2208 2.41828 29.4579 2.32115
761 1 -1.1104 3.93963 25.3097 4.016
762 2 2.2208 2.39114 26.6711 5.31498
763 1 -1.1104 3.85982 22.5534 0.951892
764 1 -1.1104 3.88545 28.0194 1.04615
765 1 -1.1104 3.92911 22.4709 3.74589
766 1 -1.1104 3.54866 27.999 3.90573
896 1 -1.1104 3.88101 25.291 6.72687
897 1 -1.1104 3.84171 22.3528 6.61546
772 1 -1.1104 6.64912 22.3427 0.969339
773 1 -1.1104 6.71828 27.9736 0.967135
771 1 -1.1104 6.75326 25.1702 3.84161
898 1 -1.1104 3.78718 28.0448 6.76086
895 1 -1.1104 6.56909 28.0694 6.52965
1639 1 -1.1104 3.82478 47.667 12.3533
1068 2 2.2208 2.60899 23.7123 13.6376
1067 2 2.2208 2.40495 29.3314 13.5969
775 1 -1.1104 6.4755 28.1359 3.77671
774 1 -1.1104 6.80389 22.5976 3.88859
770 1 -1.1104 6.66419 25.1158 1.11131
891 1 -1.1104 6.54282 25.1111 6.59834
894 1 -1.1104 6.7022 22.3594 6.66116
776 2 2.2208 10.8924 23.8127 5.2327
777 2 2.2208 10.7626 29.3031 5.22943
778 1 -1.1104 12.2357 25.2588 1.19959
779 1 -1.1104 12.3149 25.0999 3.94119
780 1 -1.1104 12.2108 22.3583 0.879163
781 1 -1.1104 12.2702 28.0734 1.16167
782 2 2.2208 10.845 26.6552 2.36955
783 1 -1.1104 12.3385 22.2872 3.67932
784 1 -1.1104 12.2241 27.9454 3.81271
785 1 -1.1104 9.4502 25.0928 0.945073
786 2 2.2208 8.06184 23.8793 2.40754
787 2 2.2208 7.96847 29.4463 2.32179
788 1 -1.1104 9.46686 25.1914 3.86275
789 2 2.2208 8.02221 26.476 5.23975
790 1 -1.1104 9.43073 22.3331 1.00685
791 1 -1.1104 9.5828 28.0768 0.97335
792 1 -1.1104 9.65565 22.4059 3.88053
793 1 -1.1104 9.22957 27.8498 3.75784
923 1 -1.1104 12.2576 25.1336 6.67682
927 1 -1.1104 9.43465 22.4412 6.63602
924 1 -1.1104 12.1852 22.3445 6.70627
926 1 -1.1104 9.4542 25.0775 6.6591
1065 2 2.2208 13.6669 40.8357 8.01021
1047 2 2.2208 8.07846 46.166 7.9842
797 2 2.2208 5.23255 35.0374 5.19677
798 1 -1.1104 0.967038 31.008 0.970405
799 1 -1.1104 1.11776 36.4667 1.02504
801 1 -1.1104 0.889561 30.8025 3.71963
802 1 -1.1104 1.03644 36.4399 3.78744
804 1 -1.1104 0.969085 33.7745 1.09147
805 2 2.2208 5.19456 32.2468 2.37099
806 2 2.2208 5.24554 37.8627 2.42655
807 1 -1.1104 1.00901 33.6827 3.78637
809 1 -1.1104 3.84491 30.7907 0.951074
810 1 -1.1104 3.9279 36.4261 0.948159
811 2 2.2208 2.47101 34.9332 2.27263
812 1 -1.1104 3.62673 30.8292 3.764
813 1 -1.1104 3.90367 36.4837 3.69752
814 2 2.2208 2.36883 32.1717 5.06269
815 2 2.2208 2.49344 37.8024 5.14462
816 1 -1.1104 3.77628 33.5542 0.935787
817 1 -1.1104 3.86897 33.5652 3.66016
823 1 -1.1104 6.62265 33.4111 1.00499
952 1 -1.1104 6.60826 33.5193 6.49268
803 1 -1.1104 6.84607 36.5933 3.60383
947 1 -1.1104 1.07663 30.8309 6.57266
955 1 -1.1104 3.73155 33.7011 6.52449
950 1 -1.1104 6.67951 36.4178 6.62102
1045 2 2.2208 8.15007 43.4962 10.805
1046 1 -1.1104 9.46838 42.1208 9.41705
821 1 -1.1104 6.5268 30.8152 0.992151
822 1 -1.1104 6.6033 30.9528 3.73377
949 1 -1.1104 6.4579 30.8418 6.41748
808 1 -1.1104 6.74839 33.8098 3.71163
800 1 -1.1104 6.79334 36.4154 0.84846
824 2 2.2208 10.9104 35.0147 5.14338
825 1 -1.1104 12.1645 30.8057 0.844849
826 1 -1.1104 12.2178 36.2621 1.07313
827 1 -1.1104 12.0902 30.7422 3.67499
828 1 -1.1104 12.3751 36.4284 3.75039
829 1 -1.1104 12.2943 33.543 0.919585
830 2 2.2208 10.8465 32.2329 2.3067
831 2 2.2208 10.9923 37.7733 2.35691
832 1 -1.1104 12.2746 33.4499 3.74176
833 1 -1.1104 9.44324 30.9236 0.944086
834 1 -1.1104 9.59932 36.414 0.915806
835 2 2.2208 8.15881 35.0485 2.31398
836 1 -1.1104 9.30507 30.7579 3.81804
837 1 -1.1104 9.58406 36.5065 3.81717
838 2 2.2208 8.02113 32.2022 5.15202
839 2 2.2208 8.15745 37.8751 5.22708
840 1 -1.1104 9.39896 33.7052 0.966628
841 1 -1.1104 9.45941 33.6204 3.79153
981 1 -1.1104 12.2554 30.6737 6.4776
985 1 -1.1104 9.38605 36.3955 6.62697
986 1 -1.1104 9.40357 33.5913 6.65509