LAMMPS (29 Oct 2020)
OMP_NUM_THREADS environment is not set. Defaulting to 1 thread. (../comm.cpp:94)
  using 1 OpenMP thread(s) per MPI task
OMP_NUM_THREADS environment is not set. Defaulting to 1 thread. (../comm.cpp:94)
  using 1 OpenMP thread(s) per MPI task
Reading data file ...
  orthogonal box = (-0.35826197 -4.1678499 -0.36360804) to (27.698262 332.24785 27.703608)
  2 by 13 by 2 MPI processor grid
  reading atoms ...
  17670 atoms
  reading velocities ...
  17670 velocities
Finding 1-2 1-3 1-4 neighbors ...
  special bond factors lj:    0.0      0.0      0.0     
  special bond factors coul:  0.0      0.0      0.0     
     0 = max # of 1-2 neighbors
     0 = max # of 1-3 neighbors
     0 = max # of 1-4 neighbors
     1 = max # of special neighbors
  special bonds CPU = 0.004 seconds
  read_data CPU = 0.056 seconds
WARNING: 13 of 1000 force values in table Xe-Xe are inconsistent with -dE/dr.
  Should only be flagged at inflection points (../pair_table.cpp:461)
WARNING: 2 of 1000 force values in table Xe-O are inconsistent with -dE/dr.
  Should only be flagged at inflection points (../pair_table.cpp:461)
WARNING: 2 of 1000 force values in table Xe-Th are inconsistent with -dE/dr.
  Should only be flagged at inflection points (../pair_table.cpp:461)
Setting atom values ...
  11760 settings made for charge
Setting atom values ...
  5880 settings made for charge
Setting atom values ...
  30 settings made for charge
PPPM initialization ...
  using 12-bit tables for long-range coulomb (../kspace.cpp:328)
  G vector (1/distance) = 0.29883481
  grid = 40 240 40
  stencil order = 5
  estimated absolute RMS force accuracy = 0.00015585757
  estimated relative force accuracy = 1.0823709e-05
  using single precision MKL FFT
  3d grid and FFT values/proc = 18225 7600
Neighbor list info ...
  update every 1 steps, delay 0 steps, check yes
  max neighbors/atom: 2000, page size: 100000
  master list distance cutoff = 13
  ghost atom cutoff = 13
  binsize = 6.5, bins = 5 52 5
  3 neighbor lists, perpetual/occasional/extra = 3 0 0
  (1) pair coul/long, perpetual
      attributes: half, newton on
      pair build: half/bin/newton
      stencil: half/bin/3d/newton
      bin: standard
  (2) pair eam/alloy, perpetual, skip from (1)
      attributes: half, newton on
      pair build: skip
      stencil: none
      bin: none
  (3) pair table, perpetual, skip from (1)
      attributes: half, newton on
      pair build: skip
      stencil: none
      bin: none
Setting up Verlet run ...
  Unit style    : metal
  Current step  : 0
  Time step     : 0.001
Per MPI rank memory allocation (min/avg/max) = 9.250 | 9.897 | 10.04 Mbytes
Step Temp E_pair E_mol TotEng Press 
       0          600    -230562.9            0   -229192.56   -583.01598 
  100000    600.48263   -230557.18            0   -229185.74   -567.20383 
Loop time of 716.008 on 52 procs for 100000 steps with 17670 atoms

Performance: 12.067 ns/day, 1.989 hours/ns, 139.663 timesteps/s
99.8% CPU use with 52 MPI tasks x 1 OpenMP threads

MPI task timing breakdown:
Section |  min time  |  avg time  |  max time  |%varavg| %total
---------------------------------------------------------------
Pair    | 509.57     | 541.88     | 557.16     |  47.4 | 75.68
Bond    | 0.0082401  | 0.012972   | 0.018131   |   2.1 |  0.00
Kspace  | 137.52     | 151.86     | 182.92     |  85.7 | 21.21
Neigh   | 1.9071     | 2.4043     | 2.6154     |  11.5 |  0.34
Comm    | 13.847     | 14.971     | 16.922     |  22.0 |  2.09
Output  | 5.4945e-05 | 6.022e-05  | 0.00025737 |   0.0 |  0.00
Modify  | 1.9029     | 3.5496     | 5.1744     |  64.4 |  0.50
Other   |            | 1.328      |            |       |  0.19

Nlocal:        339.808 ave         374 max         299 min
Histogram: 2 3 3 1 10 13 7 5 6 2
Nghost:        5528.90 ave        5708 max        5329 min
Histogram: 7 5 4 0 0 16 8 0 4 8
Neighs:       107427.0 ave      120022 max       80861 min
Histogram: 1 3 0 1 3 1 14 15 8 6

Total # of neighbors = 5586227
Ave neighs/atom = 316.14188
Ave special neighs/atom = 0.0000000
Neighbor list builds = 788
Dangerous builds = 0
11760 atoms in group oxygen
PPPM initialization ...
  using 12-bit tables for long-range coulomb (../kspace.cpp:328)
  G vector (1/distance) = 0.29883481
  grid = 40 240 40
  stencil order = 5
  estimated absolute RMS force accuracy = 0.00015585757
  estimated relative force accuracy = 1.0823709e-05
  using single precision MKL FFT
  3d grid and FFT values/proc = 18225 7600
Neighbor list info ...
  update every 1 steps, delay 0 steps, check yes
  max neighbors/atom: 2000, page size: 100000
  master list distance cutoff = 13
  ghost atom cutoff = 13
  binsize = 6.5, bins = 5 52 5
  3 neighbor lists, perpetual/occasional/extra = 3 0 0
  (1) pair coul/long, perpetual
      attributes: half, newton on
      pair build: half/bin/newton
      stencil: half/bin/3d/newton
      bin: standard
  (2) pair eam/alloy, perpetual, skip from (1)
      attributes: half, newton on
      pair build: skip
      stencil: none
      bin: none
  (3) pair table, perpetual, skip from (1)
      attributes: half, newton on
      pair build: skip
      stencil: none
      bin: none
Setting up Verlet run ...
  Unit style    : metal
  Current step  : 0
  Time step     : 0.001
Per MPI rank memory allocation (min/avg/max) = 9.500 | 10.15 | 10.29 Mbytes
Step f_2 Temp v_Tdiff v_deltaT 
       0            0    600.48263            0            0 
  100000    710.94152    610.50123  0.018163328    210.87456 
  200000    1403.1608    601.45908  0.020196083    234.47465 
  300000    2101.9767    602.11743  0.020448345    237.40338 
  400000    2798.2555    605.82654   0.02001722    232.39807 
  500000    3490.4389    601.44881  0.020473853    237.69954 
  600000    4181.9012    606.52976   0.02013249    233.73634 
  700000    4876.9799     602.1612  0.020268036    235.31002 
  800000    5565.5614    606.67239  0.021046468    244.34754 
  900000    6261.3324    603.19323  0.020109678     233.4715 
 1000000    6961.8575    606.19742  0.021033938    244.20207 
Loop time of 7070.15 on 52 procs for 1000000 steps with 17670 atoms

Performance: 12.220 ns/day, 1.964 hours/ns, 141.440 timesteps/s
99.9% CPU use with 52 MPI tasks x 1 OpenMP threads

MPI task timing breakdown:
Section |  min time  |  avg time  |  max time  |%varavg| %total
---------------------------------------------------------------
Pair    | 5033       | 5347.3     | 5513.3     | 145.1 | 75.63
Bond    | 0.083885   | 0.12611    | 0.20402    |   7.1 |  0.00
Kspace  | 1355.6     | 1511.9     | 1812.9     | 261.0 | 21.38
Neigh   | 19.954     | 25.079     | 27.17      |  36.3 |  0.35
Comm    | 136.75     | 147.17     | 163.69     |  61.2 |  2.08
Output  | 0.0010673  | 0.0011306  | 0.0022736  |   0.5 |  0.00
Modify  | 5.4999     | 6.0273     | 6.6274     |  10.2 |  0.09
Other   |            | 32.6       |            |       |  0.46

Nlocal:        339.808 ave         367 max         298 min
Histogram: 1 4 2 1 4 10 13 7 6 4
Nghost:        5519.77 ave        5698 max        5230 min
Histogram: 4 0 4 8 0 0 14 10 0 12
Neighs:       107417.0 ave      117486 max       80564 min
Histogram: 2 2 0 0 4 2 4 14 16 8

Total # of neighbors = 5585686
Ave neighs/atom = 316.11126
Ave special neighs/atom = 0.0000000
Neighbor list builds = 8214
Dangerous builds = 0
Total wall time: 2:09:46
