LAMMPS (29 Oct 2020)
OMP_NUM_THREADS environment is not set. Defaulting to 1 thread. (../comm.cpp:94)
  using 1 OpenMP thread(s) per MPI task
OMP_NUM_THREADS environment is not set. Defaulting to 1 thread. (../comm.cpp:94)
  using 1 OpenMP thread(s) per MPI task
Reading data file ...
  orthogonal box = (-0.35826197 -4.1678499 -0.36360804) to (27.698262 332.24785 27.703608)
  2 by 13 by 2 MPI processor grid
  reading atoms ...
  17670 atoms
  reading velocities ...
  17670 velocities
Finding 1-2 1-3 1-4 neighbors ...
  special bond factors lj:    0.0      0.0      0.0     
  special bond factors coul:  0.0      0.0      0.0     
     0 = max # of 1-2 neighbors
     0 = max # of 1-3 neighbors
     0 = max # of 1-4 neighbors
     1 = max # of special neighbors
  special bonds CPU = 0.004 seconds
  read_data CPU = 0.073 seconds
WARNING: 13 of 1000 force values in table Xe-Xe are inconsistent with -dE/dr.
  Should only be flagged at inflection points (../pair_table.cpp:461)
WARNING: 2 of 1000 force values in table Xe-O are inconsistent with -dE/dr.
  Should only be flagged at inflection points (../pair_table.cpp:461)
WARNING: 2 of 1000 force values in table Xe-Th are inconsistent with -dE/dr.
  Should only be flagged at inflection points (../pair_table.cpp:461)
Setting atom values ...
  11760 settings made for charge
Setting atom values ...
  5880 settings made for charge
Setting atom values ...
  30 settings made for charge
PPPM initialization ...
  using 12-bit tables for long-range coulomb (../kspace.cpp:328)
  G vector (1/distance) = 0.29883481
  grid = 40 240 40
  stencil order = 5
  estimated absolute RMS force accuracy = 0.00015585757
  estimated relative force accuracy = 1.0823709e-05
  using single precision MKL FFT
  3d grid and FFT values/proc = 18225 7600
Neighbor list info ...
  update every 1 steps, delay 0 steps, check yes
  max neighbors/atom: 2000, page size: 100000
  master list distance cutoff = 13
  ghost atom cutoff = 13
  binsize = 6.5, bins = 5 52 5
  3 neighbor lists, perpetual/occasional/extra = 3 0 0
  (1) pair coul/long, perpetual
      attributes: half, newton on
      pair build: half/bin/newton
      stencil: half/bin/3d/newton
      bin: standard
  (2) pair eam/alloy, perpetual, skip from (1)
      attributes: half, newton on
      pair build: skip
      stencil: none
      bin: none
  (3) pair table, perpetual, skip from (1)
      attributes: half, newton on
      pair build: skip
      stencil: none
      bin: none
Setting up Verlet run ...
  Unit style    : metal
  Current step  : 0
  Time step     : 0.001
Per MPI rank memory allocation (min/avg/max) = 9.250 | 9.897 | 10.04 Mbytes
Step Temp E_pair E_mol TotEng Press 
       0          600    -230562.9            0   -229192.56   -583.01598 
  100000    600.64812   -230581.04            0   -229209.22   -809.22868 
Loop time of 674.643 on 52 procs for 100000 steps with 17670 atoms

Performance: 12.807 ns/day, 1.874 hours/ns, 148.227 timesteps/s
99.8% CPU use with 52 MPI tasks x 1 OpenMP threads

MPI task timing breakdown:
Section |  min time  |  avg time  |  max time  |%varavg| %total
---------------------------------------------------------------
Pair    | 465.53     | 498.93     | 514.13     |  48.8 | 73.95
Bond    | 0.0097288  | 0.013542   | 0.02048    |   2.1 |  0.00
Kspace  | 136.64     | 152.8      | 184.98     |  84.5 | 22.65
Neigh   | 1.88       | 2.362      | 2.5485     |  11.0 |  0.35
Comm    | 14.306     | 15.406     | 17.808     |  24.4 |  2.28
Output  | 5.2902e-05 | 5.8243e-05 | 0.00026337 |   0.0 |  0.00
Modify  | 1.8908     | 3.6572     | 5.5877     |  67.7 |  0.54
Other   |            | 1.476      |            |       |  0.22

Nlocal:        339.808 ave         366 max         299 min
Histogram: 3 2 2 1 3 12 14 3 3 9
Nghost:        5528.56 ave        5701 max        5320 min
Histogram: 6 6 2 2 1 6 17 0 4 8
Neighs:       107426.0 ave      117842 max       81952 min
Histogram: 2 2 1 1 2 1 9 18 5 11

Total # of neighbors = 5586177
Ave neighs/atom = 316.13905
Ave special neighs/atom = 0.0000000
Neighbor list builds = 774
Dangerous builds = 0
11760 atoms in group oxygen
PPPM initialization ...
  using 12-bit tables for long-range coulomb (../kspace.cpp:328)
  G vector (1/distance) = 0.29883481
  grid = 40 240 40
  stencil order = 5
  estimated absolute RMS force accuracy = 0.00015585757
  estimated relative force accuracy = 1.0823709e-05
  using single precision MKL FFT
  3d grid and FFT values/proc = 18225 7600
Neighbor list info ...
  update every 1 steps, delay 0 steps, check yes
  max neighbors/atom: 2000, page size: 100000
  master list distance cutoff = 13
  ghost atom cutoff = 13
  binsize = 6.5, bins = 5 52 5
  3 neighbor lists, perpetual/occasional/extra = 3 0 0
  (1) pair coul/long, perpetual
      attributes: half, newton on
      pair build: half/bin/newton
      stencil: half/bin/3d/newton
      bin: standard
  (2) pair eam/alloy, perpetual, skip from (1)
      attributes: half, newton on
      pair build: skip
      stencil: none
      bin: none
  (3) pair table, perpetual, skip from (1)
      attributes: half, newton on
      pair build: skip
      stencil: none
      bin: none
Setting up Verlet run ...
  Unit style    : metal
  Current step  : 0
  Time step     : 0.001
Per MPI rank memory allocation (min/avg/max) = 9.500 | 10.15 | 10.29 Mbytes
Step f_2 Temp v_Tdiff v_deltaT 
       0            0    600.64812            0            0 
  100000    701.29185    595.54258  0.018266108    212.06782 
  200000    1392.3229    601.36619  0.020412686    236.98939 
  300000    2083.3081    602.87192  0.020320969    235.92456 
  400000    2769.4505    597.47945  0.019834839    230.28064 
  500000    3454.7203    599.24715  0.019978684    231.95067 
  600000    4145.0818    599.06338  0.020660158    239.86251 
  700000    4835.0587     599.6952  0.020322405    235.94124 
  800000    5521.4557    600.34547  0.020596871    239.12776 
  900000    6207.6385    601.05262  0.020048563    232.76196 
 1000000     6903.727     602.4932  0.020047953    232.75487 
Loop time of 6753 on 52 procs for 1000000 steps with 17670 atoms

Performance: 12.794 ns/day, 1.876 hours/ns, 148.082 timesteps/s
99.9% CPU use with 52 MPI tasks x 1 OpenMP threads

MPI task timing breakdown:
Section |  min time  |  avg time  |  max time  |%varavg| %total
---------------------------------------------------------------
Pair    | 4676.8     | 4999.1     | 5172.4     | 152.0 | 74.03
Bond    | 0.094052   | 0.13801    | 0.21172    |   6.3 |  0.00
Kspace  | 1372.6     | 1533.9     | 1843.3     | 260.7 | 22.72
Neigh   | 19.804     | 24.918     | 26.913     |  35.9 |  0.37
Comm    | 142.91     | 153.82     | 177.81     |  73.8 |  2.28
Output  | 0.0012227  | 0.0013158  | 0.0023632  |   0.4 |  0.00
Modify  | 5.9292     | 6.3904     | 7.0878     |  12.2 |  0.09
Other   |            | 34.74      |            |       |  0.51

Nlocal:        339.808 ave         367 max         297 min
Histogram: 2 2 3 1 2 9 15 8 6 4
Nghost:        5518.04 ave        5701 max        5262 min
Histogram: 4 4 8 0 0 1 20 3 0 12
Neighs:       107420.0 ave      118639 max       83675 min
Histogram: 4 0 2 1 1 2 7 18 11 6

Total # of neighbors = 5585840
Ave neighs/atom = 316.11998
Ave special neighs/atom = 0.0000000
Neighbor list builds = 8154
Dangerous builds = 0
Total wall time: 2:03:48
