LAMMPS (29 Oct 2020)
OMP_NUM_THREADS environment is not set. Defaulting to 1 thread. (../comm.cpp:94)
  using 1 OpenMP thread(s) per MPI task
OMP_NUM_THREADS environment is not set. Defaulting to 1 thread. (../comm.cpp:94)
  using 1 OpenMP thread(s) per MPI task
Reading data file ...
  orthogonal box = (-0.373611 -4.4171553 -0.37456429) to (27.713611 332.49716 27.714564)
  2 by 13 by 2 MPI processor grid
  reading atoms ...
  17700 atoms
  reading velocities ...
  17700 velocities
Finding 1-2 1-3 1-4 neighbors ...
  special bond factors lj:    0.0      0.0      0.0     
  special bond factors coul:  0.0      0.0      0.0     
     0 = max # of 1-2 neighbors
     0 = max # of 1-3 neighbors
     0 = max # of 1-4 neighbors
     1 = max # of special neighbors
  special bonds CPU = 0.003 seconds
  read_data CPU = 0.062 seconds
Setting atom values ...
  11760 settings made for charge
Setting atom values ...
  5880 settings made for charge
Setting atom values ...
  60 settings made for charge
WARNING: 13 of 1000 force values in table Xe-Xe are inconsistent with -dE/dr.
  Should only be flagged at inflection points (../pair_table.cpp:461)
WARNING: 2 of 1000 force values in table Xe-O are inconsistent with -dE/dr.
  Should only be flagged at inflection points (../pair_table.cpp:461)
WARNING: 2 of 1000 force values in table Xe-Th are inconsistent with -dE/dr.
  Should only be flagged at inflection points (../pair_table.cpp:461)
PPPM initialization ...
  using 12-bit tables for long-range coulomb (../kspace.cpp:328)
  G vector (1/distance) = 0.29876625
  grid = 40 240 40
  stencil order = 5
  estimated absolute RMS force accuracy = 0.00015629106
  estimated relative force accuracy = 1.0853813e-05
  using single precision MKL FFT
  3d grid and FFT values/proc = 18225 7600
Neighbor list info ...
  update every 1 steps, delay 0 steps, check yes
  max neighbors/atom: 2000, page size: 100000
  master list distance cutoff = 13
  ghost atom cutoff = 13
  binsize = 6.5, bins = 5 52 5
  3 neighbor lists, perpetual/occasional/extra = 3 0 0
  (1) pair coul/long, perpetual
      attributes: half, newton on
      pair build: half/bin/newton
      stencil: half/bin/3d/newton
      bin: standard
  (2) pair eam/alloy, perpetual, skip from (1)
      attributes: half, newton on
      pair build: skip
      stencil: none
      bin: none
  (3) pair table, perpetual, skip from (1)
      attributes: half, newton on
      pair build: skip
      stencil: none
      bin: none
Setting up Verlet run ...
  Unit style    : metal
  Current step  : 0
  Time step     : 0.001
Per MPI rank memory allocation (min/avg/max) = 9.641 | 10.01 | 10.03 Mbytes
Step Temp E_pair E_mol TotEng Press 
       0          600   -230078.69            0   -228706.03    1032.7238 
  100000    600.32981   -230066.72            0    -228693.3    1045.5559 
Loop time of 731.436 on 52 procs for 100000 steps with 17700 atoms

Performance: 11.812 ns/day, 2.032 hours/ns, 136.717 timesteps/s
99.8% CPU use with 52 MPI tasks x 1 OpenMP threads

MPI task timing breakdown:
Section |  min time  |  avg time  |  max time  |%varavg| %total
---------------------------------------------------------------
Pair    | 520.43     | 534.16     | 549.28     |  26.9 | 73.03
Bond    | 0.0082263  | 0.013795   | 0.022044   |   2.4 |  0.00
Kspace  | 154.03     | 168.16     | 179.19     |  43.7 | 22.99
Neigh   | 1.8057     | 1.8992     | 2.0186     |   3.9 |  0.26
Comm    | 20.243     | 22.175     | 25.621     |  26.0 |  3.03
Output  | 6.5502e-05 | 7.1144e-05 | 0.00027624 |   0.0 |  0.00
Modify  | 2.3106     | 3.214      | 5.3046     |  59.2 |  0.44
Other   |            | 1.811      |            |       |  0.25

Nlocal:        340.385 ave         366 max         322 min
Histogram: 6 4 8 7 8 6 6 4 1 2
Nghost:        5523.37 ave        5645 max        5389 min
Histogram: 2 7 8 2 5 2 6 11 5 4
Neighs:       106791.0 ave      115004 max       99242 min
Histogram: 2 5 4 11 6 10 4 6 0 4

Total # of neighbors = 5553146
Ave neighs/atom = 313.73706
Ave special neighs/atom = 0.0000000
Neighbor list builds = 607
Dangerous builds = 0
11760 atoms in group oxygen
PPPM initialization ...
  using 12-bit tables for long-range coulomb (../kspace.cpp:328)
  G vector (1/distance) = 0.29876625
  grid = 40 240 40
  stencil order = 5
  estimated absolute RMS force accuracy = 0.00015629106
  estimated relative force accuracy = 1.0853813e-05
  using single precision MKL FFT
  3d grid and FFT values/proc = 18225 7600
Neighbor list info ...
  update every 1 steps, delay 0 steps, check yes
  max neighbors/atom: 2000, page size: 100000
  master list distance cutoff = 13
  ghost atom cutoff = 13
  binsize = 6.5, bins = 5 52 5
  3 neighbor lists, perpetual/occasional/extra = 3 0 0
  (1) pair coul/long, perpetual
      attributes: half, newton on
      pair build: half/bin/newton
      stencil: half/bin/3d/newton
      bin: standard
  (2) pair eam/alloy, perpetual, skip from (1)
      attributes: half, newton on
      pair build: skip
      stencil: none
      bin: none
  (3) pair table, perpetual, skip from (1)
      attributes: half, newton on
      pair build: skip
      stencil: none
      bin: none
Setting up Verlet run ...
  Unit style    : metal
  Current step  : 0
  Time step     : 0.001
Per MPI rank memory allocation (min/avg/max) = 9.895 | 10.26 | 10.28 Mbytes
Step f_2 Temp v_Tdiff v_deltaT 
       0            0    600.32981            0            0 
  100000    662.99421    602.62704  0.022161242    257.28996 
  200000    1302.9235    601.47256  0.026191041    304.07556 
  300000    1944.4767    604.25322  0.025377537    294.63085 
  400000    2585.9073    601.93739  0.026025667    302.15558 
  500000    3228.5878    607.50509  0.025711163    298.50422 
  600000    3868.7608    607.20624  0.025816564    299.72791 
  700000    4511.6057    605.31943   0.02531608    293.91734 
  800000    5160.6796    608.81705  0.025861526    300.24991 
  900000    5819.1533    606.08592  0.024689728    286.64544 
 1000000    6463.5689    606.77064  0.025794209    299.46837 
Loop time of 7234.06 on 52 procs for 1000000 steps with 17700 atoms

Performance: 11.944 ns/day, 2.009 hours/ns, 138.235 timesteps/s
99.8% CPU use with 52 MPI tasks x 1 OpenMP threads

MPI task timing breakdown:
Section |  min time  |  avg time  |  max time  |%varavg| %total
---------------------------------------------------------------
Pair    | 5186.1     | 5292.7     | 5382.3     |  67.4 | 73.16
Bond    | 0.088933   | 0.13929    | 0.20706    |   6.6 |  0.00
Kspace  | 1558.8     | 1662.7     | 1748.4     | 114.5 | 22.98
Neigh   | 18.616     | 19.469     | 20.472     |  12.3 |  0.27
Comm    | 200.73     | 221.47     | 254.39     |  79.7 |  3.06
Output  | 0.0011072  | 0.001163   | 0.0024102  |   0.5 |  0.00
Modify  | 6.7435     | 7.4517     | 8.1141     |  12.5 |  0.10
Other   |            | 30.14      |            |       |  0.42

Nlocal:        340.385 ave         362 max         318 min
Histogram: 1 2 8 5 8 11 5 9 1 2
Nghost:        5519.98 ave        5645 max        5367 min
Histogram: 1 4 6 10 4 3 1 8 7 8
Neighs:       106806.0 ave      114002 max       98772 min
Histogram: 1 4 6 4 9 6 8 8 4 2

Total # of neighbors = 5553896
Ave neighs/atom = 313.77944
Ave special neighs/atom = 0.0000000
Neighbor list builds = 6248
Dangerous builds = 0
Total wall time: 2:12:46
