ITEM: TIMESTEP
10000
ITEM: NUMBER OF ATOMS
17700
ITEM: BOX BOUNDS pp pp pp
-3.2594971095473790e-01 2.7665949710955129e+01
-3.9237672259482657e+00 3.3200376722594893e+02
-3.1878565053554070e-01 2.7658785650535368e+01
ITEM: ATOMS id type q x y z
1 2 2.2208 5.28796 1.68301 5.22491
2 1 -1.1104 0.915806 -2.54978 1.10304
3 1 -1.1104 1.01858 3.06154 1.02548
6 1 -1.1104 1.05238 -2.4257 3.83858
7 1 -1.1104 1.01471 3.20514 3.85132
10 1 -1.1104 0.949026 0.14985 1.13691
12 2 2.2208 5.17799 -1.03334 2.46834
13 2 2.2208 5.26604 4.42563 2.42058
14 1 -1.1104 0.895885 0.3802 3.88046
16 1 -1.1104 3.77691 -2.45712 1.02017
17 1 -1.1104 3.84445 3.05985 0.988187
18 2 2.2208 2.27378 1.70863 2.43723
19 1 -1.1104 3.76474 -2.57125 3.85457
20 1 -1.1104 3.83787 2.96451 3.78005
21 2 2.2208 2.38814 -1.10326 5.23035
22 2 2.2208 2.42175 4.42296 5.25363
23 1 -1.1104 3.60959 0.295377 1.15618
24 1 -1.1104 3.85423 0.139133 3.89174
11 1 -1.1104 6.50213 0.231243 1.03451
5 1 -1.1104 6.56693 3.0405 1.02174
15 1 -1.1104 6.67958 0.247862 3.75875
4 1 -1.1104 6.64665 -2.49565 0.981098
8842 2 2.2208 8.02915 -3.8686 2.42489
8 1 -1.1104 6.57072 -2.47292 3.82952
333 2 2.2208 13.6489 15.6622 10.8631
174 1 -1.1104 3.90825 0.338081 6.5755
166 1 -1.1104 0.99802 -2.57485 6.65748
168 1 -1.1104 6.6225 -2.40861 6.56049
204 2 2.2208 13.6185 15.6818 5.21414
50 2 2.2208 13.6084 -1.13692 5.24711
374 2 2.2208 5.10648 18.4232 -0.286235
8840 2 2.2208 5.27502 -3.91076 5.17884
9 1 -1.1104 6.63304 3.10862 3.85236
31 2 2.2208 10.9208 1.74843 5.2684
32 1 -1.1104 12.3127 -2.39371 1.09439
33 1 -1.1104 12.172 3.12427 0.958036
34 1 -1.1104 12.2691 -2.54511 3.91986
35 1 -1.1104 12.2878 3.1034 3.83712
36 1 -1.1104 12.1858 0.345871 1.04832
37 2 2.2208 10.8088 -1.07369 2.38905
38 2 2.2208 10.7781 4.48486 2.37094
39 1 -1.1104 12.2712 0.298869 3.82479
40 1 -1.1104 9.52749 -2.54515 1.09502
41 1 -1.1104 9.40654 3.12312 1.04837
42 2 2.2208 8.02207 1.66955 2.40661
43 1 -1.1104 9.5265 -2.38415 3.82096
44 1 -1.1104 9.44132 3.11162 3.84811
45 2 2.2208 8.10835 -1.13089 5.15435
46 2 2.2208 8.06454 4.49171 5.22326
47 1 -1.1104 9.32971 0.196585 1.05551
48 1 -1.1104 9.5052 0.340151 3.87235
205 1 -1.1104 12.0812 -2.4069 6.66919
207 1 -1.1104 12.2205 0.398227 6.71048
8839 2 2.2208 2.38426 -3.87076 2.46951
229 2 2.2208 13.555 1.74788 8.1314
351 2 2.2208 2.38018 7.27836 13.5635
203 2 2.2208 13.6197 4.65543 10.7783
206 1 -1.1104 12.2094 3.08523 6.6663
208 1 -1.1104 9.38813 -2.59367 6.61241
8843 2 2.2208 10.7754 -3.87287 5.2235
54 2 2.2208 5.26342 7.25813 5.17085
55 2 2.2208 5.20573 12.8759 5.26216
56 1 -1.1104 0.993575 8.6217 0.913023
58 1 -1.1104 1.01019 8.76984 3.7174
60 1 -1.1104 0.975861 5.84376 1.0832
61 1 -1.1104 1.08205 11.4698 0.998297
66 2 2.2208 5.28557 10.0308 2.46995
67 1 -1.1104 0.983004 6.02895 3.79493
68 1 -1.1104 1.01727 11.4965 3.79773
71 1 -1.1104 3.80774 8.67649 1.01642
72 2 2.2208 2.43387 7.24377 2.30714
73 2 2.2208 2.45321 12.813 2.46751
74 1 -1.1104 3.83466 8.5642 3.85131
75 2 2.2208 2.42691 9.99555 5.18401
76 1 -1.1104 3.85011 5.89667 1.08249
77 1 -1.1104 3.9134 11.3755 0.979831
79 1 -1.1104 3.79085 5.73576 3.85427
80 1 -1.1104 3.7974 11.3666 3.87907
64 1 -1.1104 6.67677 11.4034 1.05515
78 1 -1.1104 3.8197 11.4382 6.69479
8848 2 2.2208 8.08294 -3.87378 8.03867
62 1 -1.1104 1.0113 11.4322 6.50741
327 1 -1.1104 12.1925 19.8071 9.39186
317 2 2.2208 8.02917 15.5807 10.9029
230 2 2.2208 13.6254 -1.05678 10.8662
345 2 2.2208 13.6248 21.2905 -0.353322
69 1 -1.1104 6.6902 5.78214 3.86757
57 1 -1.1104 6.77192 8.63411 0.98399
63 1 -1.1104 6.54632 5.84592 1.14346
59 1 -1.1104 6.60002 8.56343 3.80866
70 1 -1.1104 6.67165 11.4013 3.86856
65 1 -1.1104 6.6595 11.477 6.60981
237 1 -1.1104 6.62734 5.96573 6.63625
331 2 2.2208 10.7496 18.4395 10.8804
84 2 2.2208 10.8178 7.35568 5.10868
85 2 2.2208 10.8775 12.9503 5.24069
86 1 -1.1104 12.2143 8.71359 1.06737
87 1 -1.1104 12.2517 8.79854 3.8568
88 1 -1.1104 12.2523 5.84524 1.02328
89 1 -1.1104 12.247 11.5201 0.938131
91 2 2.2208 10.8517 10.0832 2.40327
92 1 -1.1104 12.1805 6.00343 3.80873
93 1 -1.1104 12.3562 11.6861 3.81504
94 1 -1.1104 9.47565 8.74434 1.10492
95 2 2.2208 8.01513 7.23322 2.45585
96 2 2.2208 8.01345 12.8588 2.47499
97 1 -1.1104 9.47727 8.73311 3.74923
98 2 2.2208 8.07992 10.0964 5.15125
99 1 -1.1104 9.34803 5.86942 1.03204
100 1 -1.1104 9.49044 11.5922 1.05805
102 1 -1.1104 9.48325 5.87081 3.85737
103 1 -1.1104 9.49901 11.5076 3.88534
354 2 2.2208 8.04387 7.22676 13.7402
265 1 -1.1104 12.2252 8.65022 6.62487
288 1 -1.1104 6.57709 19.7641 9.48521
353 2 2.2208 2.40777 12.8024 13.6036
106 2 2.2208 5.18329 18.4641 5.27131
107 1 -1.1104 0.992462 14.19 1.06137
109 1 -1.1104 1.03683 19.9659 1.05009
113 1 -1.1104 1.11732 14.269 3.91387
114 1 -1.1104 1.08993 19.8216 3.85538
116 1 -1.1104 1.02701 17.0775 1.04373
119 2 2.2208 5.20382 15.6466 2.43115
120 2 2.2208 5.23167 21.1725 2.47621
121 1 -1.1104 1.13479 17.0262 3.75696
123 1 -1.1104 3.7375 14.188 1.05435
125 1 -1.1104 3.76917 19.7342 1.09477
127 2 2.2208 2.49025 18.5095 2.48031
128 1 -1.1104 3.91933 14.2894 3.78919
129 1 -1.1104 3.84169 19.8912 3.86917
130 2 2.2208 2.45092 15.6665 5.25776
131 2 2.2208 2.35658 21.2949 5.24594
132 1 -1.1104 3.7927 17.0752 1.08513
134 1 -1.1104 3.87295 17.1363 3.86578
139 1 -1.1104 6.5846 19.8059 3.95931
112 1 -1.1104 6.62126 19.8226 6.71819
124 1 -1.1104 3.8576 14.3281 6.62622
140 1 -1.1104 6.62403 17.0527 0.948415
138 1 -1.1104 6.64767 19.8866 1.07203
319 1 -1.1104 9.35432 14.1727 9.34377
315 1 -1.1104 9.40861 17.0973 12.2713
115 1 -1.1104 6.60803 14.2114 3.89412
110 1 -1.1104 6.48176 14.251 1.11047
8849 2 2.2208 10.8861 -3.85947 10.806
122 1 -1.1104 6.70984 17 3.82644
141 2 2.2208 10.8708 18.4028 5.27671
142 1 -1.1104 12.2353 14.334 1.03065
144 1 -1.1104 12.1694 19.8682 1.04649
146 1 -1.1104 12.2633 14.2841 3.90338
147 1 -1.1104 12.1602 19.953 3.85789
148 1 -1.1104 12.126 17.1264 1.07886
150 2 2.2208 10.7947 15.6964 2.50497
151 2 2.2208 10.8043 21.3426 2.45929
152 1 -1.1104 12.0882 17.1155 3.87137
153 1 -1.1104 9.43637 14.4341 1.00295
155 1 -1.1104 9.35524 19.8712 1.03636
157 2 2.2208 8.05295 18.445 2.45376
158 1 -1.1104 9.43842 14.2259 3.85931
159 1 -1.1104 9.42841 19.7877 3.85534
160 2 2.2208 7.979 15.687 5.27051
161 2 2.2208 8.06266 21.1968 5.24553
162 1 -1.1104 9.32018 17.1793 0.977089
164 1 -1.1104 9.39833 17.0123 3.85719
156 1 -1.1104 9.43806 19.7359 6.6556
145 1 -1.1104 12.199 19.8871 6.71366
149 1 -1.1104 12.1604 17.0212 6.70789
8866 2 2.2208 2.47681 -3.93398 13.66
154 1 -1.1104 9.33006 14.2233 6.57513
163 1 -1.1104 9.40187 16.9548 6.59316
167 1 -1.1104 1.06575 3.13244 6.69564
170 1 -1.1104 1.00926 0.358523 6.6366
49 2 2.2208 13.6202 1.71704 2.39654
311 2 2.2208 -0.542094 21.2303 7.92789
328 1 -1.1104 12.1942 14.2902 9.4412
172 1 -1.1104 3.85937 -2.35181 6.62798
173 1 -1.1104 3.85239 3.14304 6.55017
175 2 2.2208 5.2772 1.6885 10.9161
176 1 -1.1104 1.00815 -2.48673 12.232
177 1 -1.1104 1.11853 3.16397 12.2585
180 1 -1.1104 1.08242 -2.4079 9.42018
181 1 -1.1104 1.0395 3.16888 9.39847
184 1 -1.1104 1.06518 0.437999 12.279
186 2 2.2208 5.2915 -1.05497 8.00616
187 2 2.2208 5.26493 4.50868 7.99128
188 1 -1.1104 1.00826 0.343735 9.4062
190 1 -1.1104 3.75637 -2.56256 12.2637
191 1 -1.1104 3.87761 3.08907 12.308
192 2 2.2208 2.53654 1.67001 8.0103
193 1 -1.1104 3.86892 -2.49562 9.35636
194 1 -1.1104 3.8017 3.0767 9.41605
195 2 2.2208 2.46021 -1.14168 10.8735
196 2 2.2208 2.44862 4.55268 10.852
197 1 -1.1104 3.92653 0.328648 12.2127
198 1 -1.1104 3.84893 0.244112 9.4724
179 1 -1.1104 6.68096 3.19953 12.3022
182 1 -1.1104 6.6901 -2.42281 9.33543
183 1 -1.1104 6.60733 3.0767 9.48789
189 1 -1.1104 6.70991 0.454759 9.50715
51 2 2.2208 -0.485024 12.8185 10.9297
325 2 2.2208 10.8395 15.6954 8.0825
53 2 2.2208 13.6157 12.8488 8.05622
209 1 -1.1104 9.51545 3.17023 6.65507
348 2 2.2208 10.8658 18.4992 -0.34925
171 1 -1.1104 6.63873 0.354619 6.61794
169 1 -1.1104 6.65653 3.17686 6.65959
185 1 -1.1104 6.78736 0.408936 12.2528
210 1 -1.1104 9.39929 0.271728 6.58743
143 1 -1.1104 12.3044 14.2586 6.63756
178 1 -1.1104 6.57584 -2.3428 12.1319
211 2 2.2208 11.0331 1.71699 10.9407
212 1 -1.1104 12.1993 -2.39753 12.2681
213 1 -1.1104 12.3542 3.11314 12.2348
214 1 -1.1104 12.2858 -2.52821 9.60363
215 1 -1.1104 12.1712 3.08417 9.53232
216 1 -1.1104 12.3073 0.340523 12.2652
217 2 2.2208 10.7973 -0.997026 8.01049
218 2 2.2208 10.8552 4.45067 8.06356
219 1 -1.1104 12.277 0.290239 9.44948
220 1 -1.1104 9.39558 -2.45708 12.09
221 1 -1.1104 9.49737 3.22273 12.2415
222 2 2.2208 8.03054 1.752 7.97001
223 1 -1.1104 9.58126 -2.36066 9.35755
224 1 -1.1104 9.49459 3.1899 9.45282
225 2 2.2208 8.12696 -0.978904 10.7918
226 2 2.2208 8.09835 4.48147 10.8169
227 1 -1.1104 9.57761 0.401877 12.1976
228 1 -1.1104 9.50925 0.416473 9.35854
306 1 -1.1104 6.63989 16.8679 12.2805
312 2 2.2208 -0.454253 18.4244 10.8085
234 1 -1.1104 1.10192 8.65965 6.60371
236 1 -1.1104 0.937274 5.85658 6.63104
326 1 -1.1104 12.1907 17.0866 12.3324
238 1 -1.1104 3.96508 8.69068 6.68086
239 1 -1.1104 3.76861 5.95688 6.59967
240 2 2.2208 5.30283 7.21733 10.8724
241 2 2.2208 5.25058 12.827 10.8706
242 1 -1.1104 1.02465 8.63067 12.1274
244 1 -1.1104 1.04469 8.65345 9.36382
246 1 -1.1104 0.913285 5.88924 12.1146
247 1 -1.1104 0.930565 11.4021 12.1737
250 2 2.2208 5.29146 10.1033 8.01983
251 1 -1.1104 1.08873 5.90515 9.47997
252 1 -1.1104 0.974807 11.4459 9.36466
255 1 -1.1104 3.75754 8.57565 12.1975
256 2 2.2208 2.45669 7.31263 8.03829
257 2 2.2208 2.48124 12.7832 8.16145
258 1 -1.1104 3.8169 8.62682 9.43785
259 2 2.2208 2.47139 10.0162 10.7781
260 1 -1.1104 3.87385 5.85858 12.3016
261 1 -1.1104 3.75068 11.4254 12.2602
262 1 -1.1104 3.79497 5.83287 9.4528
263 1 -1.1104 3.88356 11.3794 9.54909
243 1 -1.1104 6.54508 8.69141 12.2623
245 1 -1.1104 6.66314 8.69008 9.39109
235 1 -1.1104 6.7359 8.75951 6.54179
254 1 -1.1104 6.64743 11.4416 9.3931
90 1 -1.1104 12.2578 11.5335 6.61596
101 1 -1.1104 9.46823 11.522 6.56138
267 1 -1.1104 9.43647 8.67536 6.5044
269 1 -1.1104 9.42043 5.90845 6.62744
249 1 -1.1104 6.56568 11.4062 12.1977
248 1 -1.1104 6.76163 5.88301 12.2947
266 1 -1.1104 12.2559 5.77056 6.52972
25 2 2.2208 -0.534853 -1.11119 2.51149
341 2 2.2208 5.31619 4.50404 13.6465
253 1 -1.1104 6.69093 5.91886 9.41182
264 1 -1.1104 9.44405 11.4666 9.3541
268 1 -1.1104 9.37023 5.948 9.42846
270 1 -1.1104 9.42704 11.3855 12.1854
271 1 -1.1104 9.45755 5.89812 12.2518
272 2 2.2208 8.05697 10.0632 10.7777
273 1 -1.1104 9.45148 8.73202 9.44792
274 2 2.2208 8.00936 12.8794 8.00571
275 2 2.2208 8.14847 7.37611 7.93978
276 2 2.2208 10.7547 7.20809 10.8924
277 2 2.2208 10.9054 12.8416 10.825
278 1 -1.1104 12.1475 8.72364 12.2048
279 1 -1.1104 12.2001 8.60478 9.41456
280 1 -1.1104 12.1432 5.79704 12.3272
281 1 -1.1104 12.1526 11.4237 12.2123
282 2 2.2208 10.8831 10.1079 7.98507
283 1 -1.1104 12.191 5.89121 9.38874
284 1 -1.1104 12.2438 11.4464 9.45318
285 1 -1.1104 9.37141 8.64396 12.3727
332 2 2.2208 13.5976 18.4535 8.03562
323 1 -1.1104 12.2042 17.109 9.50611
330 1 -1.1104 12.2305 14.2989 12.2149
320 2 2.2208 8.01106 18.3681 8.02934
322 1 -1.1104 9.40689 14.1561 12.3157
126 1 -1.1104 3.70811 19.83 6.63618
133 1 -1.1104 3.75382 17.1025 6.64586
302 1 -1.1104 0.970375 19.8899 6.60629
297 1 -1.1104 6.66448 14.168 12.2965
290 1 -1.1104 6.5437 14.2048 9.48209
289 1 -1.1104 6.63716 16.9552 9.50343
117 1 -1.1104 0.935964 16.9851 6.56852
108 1 -1.1104 1.12136 14.2073 6.74295
304 1 -1.1104 3.78189 16.9317 9.46799
298 1 -1.1104 0.908291 19.8598 12.1389
301 1 -1.1104 3.76513 19.7514 9.41613
293 2 2.2208 5.17885 21.1534 8.0212
287 1 -1.1104 3.76924 14.2884 12.136
292 1 -1.1104 1.03107 16.9918 9.33793
300 2 2.2208 5.17864 18.3545 10.767
286 1 -1.1104 3.73491 19.8025 12.1924
291 1 -1.1104 0.879104 19.7601 9.29954
299 1 -1.1104 0.998974 14.1534 12.2617
303 2 2.2208 2.37869 18.3813 8.00118
295 2 2.2208 5.19772 15.6272 8.09885
305 1 -1.1104 3.82707 14.1673 9.47032
310 2 2.2208 2.28359 15.5245 10.864
309 2 2.2208 2.35862 21.2511 10.7043
308 1 -1.1104 3.77395 17.0237 12.2517
307 1 -1.1104 0.99961 16.9496 12.1745
294 1 -1.1104 1.00281 14.2218 9.4601
111 1 -1.1104 6.51853 14.2384 6.63803
324 2 2.2208 10.7513 21.192 8.03296
321 1 -1.1104 9.36374 19.8494 12.2286
339 2 2.2208 2.46131 1.76124 13.6074
118 1 -1.1104 6.53332 16.974 6.637
314 1 -1.1104 9.42689 17.0047 9.52911
329 1 -1.1104 12.1857 19.9642 12.2962
318 1 -1.1104 9.342 19.712 9.4971
202 2 2.2208 13.5749 7.32356 7.98014
316 2 2.2208 7.96038 21.1672 10.8378
296 1 -1.1104 6.4769 19.7583 12.3822
338 2 2.2208 5.27012 -1.01839 13.6372
355 2 2.2208 10.725 10.0433 13.6758
350 2 2.2208 10.8173 4.50696 13.6481
28 2 2.2208 13.5755 21.2158 10.7864
233 2 2.2208 13.6669 4.55848 5.20699
347 2 2.2208 7.98422 15.7233 -0.367446
165 2 2.2208 13.6054 18.5116 2.50169
232 2 2.2208 13.6657 10.1653 5.293
340 2 2.2208 13.6514 1.70639 13.635
27 2 2.2208 -0.497656 4.57447 2.48733
231 2 2.2208 13.6045 21.3133 5.21864
343 2 2.2208 8.11394 1.75774 13.6452
8854 2 2.2208 10.7771 -3.99908 -0.450808
359 2 2.2208 5.23751 15.6419 13.706
362 2 2.2208 7.9505 18.4284 13.692
364 2 2.2208 5.18886 1.71852 -0.396419
369 2 2.2208 10.7746 1.70638 -0.412992
336 2 2.2208 13.5375 7.36579 13.6845
373 2 2.2208 2.34295 15.6285 -0.400215
349 2 2.2208 7.96698 21.2301 -0.415358
375 2 2.2208 2.46901 21.332 -0.278826
388 2 2.2208 5.25826 1.68361 16.4658
389 1 -1.1104 1.13775 -2.4479 17.7891
390 1 -1.1104 1.0974 3.07659 17.8934
393 1 -1.1104 1.10514 -2.47018 15.0266
395 1 -1.1104 1.04134 3.10097 15.1282
401 1 -1.1104 0.999741 0.427163 17.7539
403 2 2.2208 5.20003 -1.12231 19.2636
404 2 2.2208 5.17963 4.46609 19.2797
405 1 -1.1104 1.07782 0.350813 15.0142
409 1 -1.1104 3.8816 -2.54899 17.82
410 1 -1.1104 3.88248 3.13954 17.8932
411 2 2.2208 2.39543 1.72077 19.2447
412 1 -1.1104 3.9007 -2.39666 15.054
414 1 -1.1104 3.90146 3.10037 15.0455
416 2 2.2208 2.39687 -1.06753 16.3892
417 2 2.2208 2.53457 4.514 16.4245
418 1 -1.1104 3.77049 0.304979 17.7943
419 1 -1.1104 3.81701 0.388889 15.0099
399 1 -1.1104 6.72019 3.05107 15.085
391 1 -1.1104 6.57629 -2.45168 17.8561
407 1 -1.1104 6.72607 0.323958 15.1113
8974 2 2.2208 5.28065 -3.85884 16.4431
8945 2 2.2208 13.6542 -3.89421 19.1919
382 2 2.2208 -0.433999 12.8623 27.4965
645 2 2.2208 -0.434907 21.2958 24.8234
650 2 2.2208 13.691 12.9288 19.2922
392 1 -1.1104 6.73203 3.11492 17.9043
402 1 -1.1104 6.62009 0.341919 17.9098
425 2 2.2208 -0.388097 -1.03733 19.228
397 1 -1.1104 6.57837 -2.50824 14.9249
431 2 2.2208 10.8115 1.66175 16.4451
432 1 -1.1104 12.2023 -2.55278 17.8646
433 1 -1.1104 12.2 3.06461 17.7965
434 1 -1.1104 12.2108 -2.53633 15.0849
436 1 -1.1104 12.3006 3.07342 15.0104
438 1 -1.1104 12.2827 0.181937 17.8412
439 2 2.2208 10.775 -1.09931 19.2478
440 2 2.2208 10.8473 4.43519 19.2253
441 1 -1.1104 12.1274 0.177268 14.9915
443 1 -1.1104 9.38711 -2.48696 17.792
444 1 -1.1104 9.5016 3.05582 17.8419
445 2 2.2208 7.96058 1.71172 19.3013
446 1 -1.1104 9.45009 -2.57854 14.9606
448 1 -1.1104 9.50304 3.07319 15.0888
450 2 2.2208 8.01897 -1.11925 16.4113
451 2 2.2208 8.10955 4.41469 16.5061
452 1 -1.1104 9.4127 0.259374 17.9064
453 1 -1.1104 9.42605 0.231218 15.0222
454 1 -1.1104 9.3609 0.294004 20.7637
449 1 -1.1104 9.36657 3.12915 20.649
447 1 -1.1104 9.37127 -2.46278 20.6217
435 1 -1.1104 12.3405 -2.58814 20.6333
8944 2 2.2208 10.8234 -3.91732 16.4113
379 2 2.2208 5.26035 7.29706 27.5875
426 2 2.2208 13.6246 10.2094 16.4427
8943 2 2.2208 8.02837 -3.8478 19.2405
464 2 2.2208 5.29236 7.27026 16.447
465 2 2.2208 5.25633 12.8466 16.4328
466 1 -1.1104 1.04169 8.69278 17.8172
468 1 -1.1104 0.929312 8.64925 15.0133
472 1 -1.1104 1.10868 5.94597 17.6649
473 1 -1.1104 1.06014 11.4112 17.9035
476 2 2.2208 5.29832 10.0427 19.1773
477 1 -1.1104 1.04368 5.88568 14.9303
479 1 -1.1104 0.999954 11.3645 15.0463
485 1 -1.1104 3.96341 8.60736 17.8115
486 2 2.2208 2.3906 7.34305 19.1487
487 2 2.2208 2.47763 12.8181 19.1989
488 1 -1.1104 3.76654 8.6614 14.9504
490 2 2.2208 2.4645 10.001 16.3708
491 1 -1.1104 3.87081 5.85058 17.8893
492 1 -1.1104 3.88504 11.3763 17.8013
493 1 -1.1104 3.94044 5.8237 15.0462
495 1 -1.1104 3.90659 11.4808 14.9654
467 1 -1.1104 6.67557 8.6385 17.8308
483 1 -1.1104 6.64972 11.4855 15.0813
470 1 -1.1104 6.55075 8.68434 15.0932
478 1 -1.1104 1.15954 5.8056 20.5645
484 1 -1.1104 6.72297 11.5105 20.6131
489 1 -1.1104 3.84678 8.72532 20.5649
496 1 -1.1104 3.79398 11.451 20.6252
480 1 -1.1104 1.05701 11.5063 20.6561
8907 2 2.2208 2.43296 -3.91101 24.8011
474 1 -1.1104 6.65461 5.88993 17.927
481 1 -1.1104 6.77674 5.80454 14.9891
475 1 -1.1104 6.64765 11.4782 17.8149
471 1 -1.1104 6.71138 8.7051 20.6164
500 2 2.2208 10.9475 7.2547 16.5116
501 2 2.2208 10.8019 12.8971 16.516
502 1 -1.1104 12.1667 8.67958 17.8405
503 1 -1.1104 12.2442 8.70388 15.0649
505 1 -1.1104 12.2707 5.78311 17.8737
506 1 -1.1104 12.1414 11.5476 17.874
507 2 2.2208 10.7852 10.1459 19.2823
508 1 -1.1104 12.3164 5.84715 15.0992
510 1 -1.1104 12.1165 11.525 15.0612
512 1 -1.1104 9.49172 8.73044 17.829
513 2 2.2208 8.06193 7.19153 19.2997
514 2 2.2208 8.05509 12.9213 19.2926
515 1 -1.1104 9.42142 8.70046 15.1557
517 2 2.2208 8.02341 10.0337 16.4305
518 1 -1.1104 9.50566 5.88696 17.797
519 1 -1.1104 9.37755 11.6082 17.9145
520 1 -1.1104 9.5132 5.97283 15.0632
522 1 -1.1104 9.40593 11.4972 15.0356
511 1 -1.1104 12.2911 11.488 20.6885
504 1 -1.1104 12.1835 8.70955 20.6001
421 2 2.2208 -0.373046 7.33473 21.9995
8904 2 2.2208 7.98839 -3.91127 24.8507
521 1 -1.1104 9.47547 5.90148 20.6059
516 1 -1.1104 9.44974 8.72067 20.6167
386 2 2.2208 10.8637 12.9792 27.6134
527 2 2.2208 5.14449 18.5235 16.5176
528 1 -1.1104 1.01403 14.2821 17.8572
529 1 -1.1104 1.02205 19.8946 17.7406
532 1 -1.1104 1.06855 14.1856 15.071
534 1 -1.1104 0.885316 19.7122 14.93
540 1 -1.1104 1.07159 17.0846 17.8889
542 2 2.2208 5.25058 15.6829 19.2249
543 2 2.2208 5.1612 21.2551 19.1051
544 1 -1.1104 1.00939 17.0348 14.999
548 1 -1.1104 3.8634 14.2585 17.8324
549 1 -1.1104 3.79146 19.9401 17.8384
550 2 2.2208 2.41403 18.487 19.2886
551 1 -1.1104 3.84789 14.1947 15.0283
553 1 -1.1104 3.72696 19.8641 15.0364
555 2 2.2208 2.43049 15.6241 16.4276
556 2 2.2208 2.3565 21.3044 16.3898
557 1 -1.1104 3.86807 17.1024 17.8626
558 1 -1.1104 3.8187 16.9999 15.0153
530 1 -1.1104 6.6743 14.3745 17.8703
541 1 -1.1104 6.73582 17.2275 17.7946
552 1 -1.1104 3.78884 14.1739 20.6774
554 1 -1.1104 3.76187 19.9041 20.6582
559 1 -1.1104 3.68819 17.0679 20.62
545 1 -1.1104 0.96772 17.1487 20.7304
537 1 -1.1104 6.60573 14.2704 20.6758
533 1 -1.1104 1.05317 14.3822 20.5853
370 2 2.2208 8.01327 -1.08526 27.5974
360 2 2.2208 10.6941 21.2641 13.6568
372 2 2.2208 8.02783 4.44366 27.5841
460 2 2.2208 13.6569 21.2346 16.3842
651 2 2.2208 13.6125 7.27591 19.2851
546 1 -1.1104 6.59136 17.0843 14.9986
536 1 -1.1104 6.68396 14.2274 15.0543
538 1 -1.1104 6.49493 19.8874 15.2141
531 1 -1.1104 6.59057 19.9729 17.9068
563 2 2.2208 10.7941 18.4929 16.4774
564 1 -1.1104 12.3087 14.308 17.8872
565 1 -1.1104 12.1983 19.8688 17.8764
566 1 -1.1104 12.2403 14.2203 15.0462
568 1 -1.1104 12.1224 19.9758 15.0871
570 1 -1.1104 12.2651 17.0977 17.8958
571 2 2.2208 10.8228 15.7707 19.2729
572 2 2.2208 10.8465 21.2836 19.223
573 1 -1.1104 12.2639 17.1152 15.1124
575 1 -1.1104 9.36224 14.3493 17.8764
576 1 -1.1104 9.37856 20.0309 17.8419
577 2 2.2208 8.04365 18.5326 19.2915
578 1 -1.1104 9.43463 14.365 15.0722
580 1 -1.1104 9.39611 19.9402 15.0079
582 2 2.2208 7.99087 15.7242 16.4449
583 2 2.2208 7.96257 21.3493 16.4624
584 1 -1.1104 9.49055 17.183 17.913
585 1 -1.1104 9.35407 17.1285 15.1368
579 1 -1.1104 9.49364 14.2857 20.6676
586 1 -1.1104 9.26464 17.0568 20.6678
429 2 2.2208 13.638 4.41014 16.3248
422 2 2.2208 13.6312 10.1428 22.0682
619 2 2.2208 13.6498 15.7636 16.4107
394 1 -1.1104 1.04263 -2.51284 20.5935
413 1 -1.1104 3.79405 -2.39836 20.6615
408 1 -1.1104 6.5759 0.326094 20.6764
380 2 2.2208 2.39036 10.0743 27.6203
616 2 2.2208 8.03624 21.2291 22.0269
526 2 2.2208 10.8353 21.3236 24.8149
428 2 2.2208 13.6628 1.57116 19.153
415 1 -1.1104 3.8003 3.03944 20.5473
406 1 -1.1104 0.986536 0.291723 20.7106
396 1 -1.1104 1.08252 3.01704 20.6309
398 1 -1.1104 6.64306 -2.47269 20.6718
420 1 -1.1104 3.83104 0.261348 20.6826
591 2 2.2208 5.19493 1.69277 22.0031
592 1 -1.1104 1.02608 -2.4335 23.465
593 1 -1.1104 1.06418 3.19529 23.4033
596 1 -1.1104 0.95565 -2.50542 26.2971
597 1 -1.1104 0.972183 3.04734 26.1631
600 1 -1.1104 0.891161 0.354551 23.5453
602 2 2.2208 5.164 -1.10322 24.8516
603 2 2.2208 5.1973 4.51968 24.7724
604 1 -1.1104 0.925898 0.273502 26.3102
606 1 -1.1104 3.78512 -2.41895 23.5159
607 1 -1.1104 3.87127 3.10829 23.4366
608 2 2.2208 2.36441 1.59022 24.9401
609 1 -1.1104 3.75753 -2.57399 26.2393
610 1 -1.1104 3.8294 3.05762 26.1019
611 2 2.2208 2.41855 -1.05576 22.1076
612 2 2.2208 2.5064 4.47513 22.0768
613 1 -1.1104 3.76989 0.351095 23.4761
614 1 -1.1104 3.77769 0.228094 26.3391
594 1 -1.1104 6.53181 -2.56421 23.3959
605 1 -1.1104 6.54607 0.282277 26.2573
599 1 -1.1104 6.59804 3.12179 26.2136
598 1 -1.1104 6.59482 -2.46672 26.2107
595 1 -1.1104 6.65407 3.01357 23.4919
618 2 2.2208 13.5451 18.4904 19.3079
400 1 -1.1104 6.64599 3.1672 20.7896
442 1 -1.1104 12.1963 0.24391 20.6085
710 2 2.2208 13.6722 7.27484 24.7902
455 2 2.2208 13.6102 18.4115 24.8779
385 2 2.2208 8.02227 10.1409 27.6008
653 2 2.2208 13.6967 -1.03405 22.0165
366 2 2.2208 2.37696 4.4219 27.6857
601 1 -1.1104 6.65071 0.249683 23.414
437 1 -1.1104 12.2154 3.08781 20.5585
627 2 2.2208 10.836 1.7498 22.0188
628 1 -1.1104 12.1785 -2.52381 23.3447
629 1 -1.1104 12.0876 3.09796 23.4767
630 1 -1.1104 12.1317 -2.42393 26.1476
631 1 -1.1104 12.1358 3.09221 26.191
632 1 -1.1104 12.2751 0.289541 23.3757
633 2 2.2208 10.8423 -1.09914 24.7927
634 2 2.2208 10.7938 4.54115 24.9035
635 1 -1.1104 12.1298 0.346514 26.263
636 1 -1.1104 9.36979 -2.49656 23.4838
637 1 -1.1104 9.39425 3.11473 23.5159
638 2 2.2208 8.00146 1.63411 24.83
639 1 -1.1104 9.34539 -2.47657 26.1632
640 1 -1.1104 9.42199 2.97801 26.3068
641 2 2.2208 7.97888 -1.10083 22.0599
642 2 2.2208 8.02384 4.43433 22.1495
643 1 -1.1104 9.40625 0.347932 23.5408
644 1 -1.1104 9.3348 0.298436 26.2723
430 2 2.2208 13.5801 15.7189 22.0667
560 1 -1.1104 12.1504 17.1425 26.2761
587 2 2.2208 7.946 18.4595 24.785
499 1 -1.1104 12.267 19.9104 26.2267
494 1 -1.1104 3.84577 6.00774 20.6145
469 1 -1.1104 0.9773 8.70221 20.556
656 2 2.2208 5.28365 7.29999 21.9802
657 2 2.2208 5.1754 12.8449 22.0599
658 1 -1.1104 1.00664 8.7277 23.4504
660 1 -1.1104 1.07908 8.70077 26.1791
662 1 -1.1104 1.03283 5.97141 23.4597
663 1 -1.1104 1.01952 11.5156 23.3503
666 2 2.2208 5.17456 10.1183 24.8694
667 1 -1.1104 1.13846 5.85039 26.2288
668 1 -1.1104 1.01182 11.5237 26.1924
671 1 -1.1104 3.78522 8.69944 23.4076
672 2 2.2208 2.52199 7.25602 24.8546
673 2 2.2208 2.46385 12.8229 24.8479
674 1 -1.1104 3.81412 8.73053 26.2001
675 2 2.2208 2.47363 10.0227 21.9595
676 1 -1.1104 3.83858 5.91929 23.373
677 1 -1.1104 3.81684 11.4806 23.4872
678 1 -1.1104 3.90046 5.84797 26.2619
679 1 -1.1104 3.75594 11.4912 26.2427
669 1 -1.1104 6.66271 5.86901 26.202
661 1 -1.1104 6.61034 8.63496 26.1843
670 1 -1.1104 6.66499 11.4475 26.1741
659 1 -1.1104 6.54636 8.70314 23.4296
365 2 2.2208 2.36934 -1.14693 27.7003
561 1 -1.1104 9.5099 14.2381 23.4838
462 2 2.2208 10.7796 18.465 22.0814
523 1 -1.1104 9.45657 11.6065 20.7267
708 2 2.2208 13.6698 12.9298 24.8521
482 1 -1.1104 6.70199 5.79736 20.6803
665 1 -1.1104 6.58629 11.4785 23.3903
664 1 -1.1104 6.57771 5.89645 23.3405
509 1 -1.1104 12.2452 5.85341 20.676
687 1 -1.1104 9.47992 11.5277 26.2809
688 1 -1.1104 9.42999 5.95856 26.3335
689 1 -1.1104 9.36404 11.5582 23.4457
690 1 -1.1104 9.40877 5.98501 23.514
691 2 2.2208 8.0602 10.1222 22.1099
692 1 -1.1104 9.42714 8.68572 26.2045
693 2 2.2208 8.06705 12.8611 24.8587
694 2 2.2208 8.01465 7.32682 24.8922
695 2 2.2208 10.8033 7.35576 22.0401
696 2 2.2208 10.8951 12.8949 22.1134
697 1 -1.1104 12.1908 8.77144 23.3165
698 1 -1.1104 12.242 8.72103 26.2749
699 1 -1.1104 12.1373 5.8867 23.5152
700 1 -1.1104 12.2296 11.5463 23.5874
701 2 2.2208 10.8643 10.1091 24.8841
702 1 -1.1104 12.3055 5.96575 26.1953
703 1 -1.1104 12.3045 11.556 26.3039
704 1 -1.1104 9.38888 8.73157 23.4388
712 1 -1.1104 6.63105 14.2673 26.2729
539 1 -1.1104 6.62192 19.8848 20.5882
709 1 -1.1104 6.61303 14.2172 23.4294
680 1 -1.1104 6.65061 17.0691 23.4016
714 1 -1.1104 6.60074 17.019 26.1667
535 1 -1.1104 0.99303 19.9838 20.6382
547 1 -1.1104 6.52131 17.021 20.5725
718 1 -1.1104 6.51998 19.8134 23.3944
647 2 2.2208 2.38556 15.6975 22.0489
649 2 2.2208 2.3696 21.2426 22.0335
652 1 -1.1104 3.79105 16.9867 23.4537
655 1 -1.1104 1.00803 17.0475 23.4527
681 1 -1.1104 3.85103 14.2702 26.3247
682 1 -1.1104 3.75939 17.1042 26.171
683 2 2.2208 2.36949 18.5744 24.757
686 1 -1.1104 3.72059 19.8933 26.2927
705 2 2.2208 5.15989 18.5058 21.9695
706 1 -1.1104 1.02395 14.2823 23.3789
707 1 -1.1104 0.977045 19.9017 23.5498
711 1 -1.1104 3.80877 19.7819 23.3998
713 1 -1.1104 3.81784 14.1995 23.5956
715 1 -1.1104 0.98618 19.8673 26.3263
716 1 -1.1104 1.00954 17.0815 26.2828
717 1 -1.1104 0.968859 14.2687 26.1801
719 2 2.2208 5.13069 21.2427 24.8402
720 2 2.2208 5.19243 15.6616 24.8125
463 1 -1.1104 12.2098 14.2606 23.4913
387 2 2.2208 13.6546 10.123 27.6054
461 2 2.2208 13.573 21.2765 22.0503
525 2 2.2208 10.7645 15.6698 24.9086
497 1 -1.1104 12.3242 19.8887 23.4612
581 1 -1.1104 9.39345 19.8724 20.7172
569 1 -1.1104 12.2054 19.9693 20.5808
617 1 -1.1104 9.47487 17.0468 23.3819
574 1 -1.1104 12.1375 17.0837 20.6531
498 1 -1.1104 12.1606 14.3182 26.2831
589 1 -1.1104 9.33085 14.2497 26.2986
620 1 -1.1104 9.33803 17.1264 26.191
524 1 -1.1104 12.221 17.0776 23.509
615 2 2.2208 7.97033 15.6274 22.0897
588 1 -1.1104 6.57915 19.8845 26.1284
567 1 -1.1104 12.2699 14.3127 20.6737
590 1 -1.1104 9.40988 19.9029 26.1545
562 1 -1.1104 9.45026 19.8346 23.424
361 2 2.2208 10.8792 15.7012 13.6865
381 2 2.2208 5.17137 12.8574 27.6389
363 2 2.2208 13.6113 18.3828 13.563
8862 2 2.2208 8.12452 -3.89646 13.6275
384 2 2.2208 10.819 7.35821 27.6118
357 2 2.2208 2.39789 18.4436 13.5589
358 2 2.2208 5.09882 21.2338 13.6586
356 2 2.2208 8.06656 12.8022 13.6397
346 2 2.2208 10.8858 -1.10659 13.557
352 2 2.2208 5.28476 10.0489 13.6093
721 2 2.2208 5.16505 24.089 5.25867
722 2 2.2208 5.1665 29.717 5.38286
723 1 -1.1104 0.962907 25.4885 1.16402
724 1 -1.1104 0.869935 25.481 3.9172
725 1 -1.1104 1.04166 22.746 1.11608
726 1 -1.1104 0.856481 28.1535 1.20796
727 2 2.2208 5.15033 26.8985 2.58876
728 1 -1.1104 1.03885 22.6233 3.8207
729 1 -1.1104 1.05724 28.2762 3.94367
730 1 -1.1104 3.75315 25.3436 1.09529
731 2 2.2208 2.3929 24.0083 2.50185
732 2 2.2208 2.21939 29.5887 2.57101
733 1 -1.1104 3.70571 25.4681 3.88488
734 2 2.2208 2.29745 26.7941 5.28661
735 1 -1.1104 3.81675 22.543 1.06107
736 1 -1.1104 3.67542 28.2487 1.14495
737 1 -1.1104 3.81097 22.5897 3.85614
738 1 -1.1104 3.77265 28.2389 3.94209
742 1 -1.1104 6.60035 25.428 1.15667
869 1 -1.1104 3.78283 22.6586 6.6294
743 1 -1.1104 6.51574 25.488 3.96718
747 1 -1.1104 6.53471 28.3156 4.03665
745 1 -1.1104 6.39498 28.2825 1.0836
866 1 -1.1104 6.47311 22.6617 6.78689
766 2 2.2208 13.5741 24.0981 2.46656
868 1 -1.1104 3.81351 25.4699 6.68996
864 1 -1.1104 0.959645 22.6608 6.59586
863 1 -1.1104 6.53264 25.4674 6.74756
768 2 2.2208 13.5625 26.8415 5.27922
746 1 -1.1104 6.64754 22.6532 3.87756
744 1 -1.1104 6.56496 22.6353 1.14059
748 2 2.2208 10.8033 24.0433 5.32325
749 2 2.2208 10.7618 29.6471 5.27966
750 1 -1.1104 12.1729 25.5498 1.14505
751 1 -1.1104 12.0913 25.4223 3.95572
752 1 -1.1104 12.2424 22.6707 1.04047
753 1 -1.1104 12.0496 28.3183 1.03275
754 2 2.2208 10.8179 26.8732 2.5048
755 1 -1.1104 12.2279 22.6864 3.80988
756 1 -1.1104 12.2856 28.2195 3.75692
757 1 -1.1104 9.35433 25.3994 1.0897
758 2 2.2208 7.98197 24.0705 2.44809
759 2 2.2208 7.9932 29.7257 2.53561
760 1 -1.1104 9.31801 25.4568 3.88304
761 2 2.2208 7.98657 26.8429 5.34527
762 1 -1.1104 9.41606 22.7122 1.11013
763 1 -1.1104 9.33006 28.2565 1.11386
764 1 -1.1104 9.38343 22.5665 3.97921
765 1 -1.1104 9.31384 28.2471 3.94199
900 1 -1.1104 9.42197 28.2739 6.74197
898 1 -1.1104 9.39597 25.3218 6.76557
895 1 -1.1104 12.1477 25.4654 6.72618
899 1 -1.1104 9.33906 22.5105 6.69111
897 1 -1.1104 12.1579 28.3256 6.59041
896 1 -1.1104 12.1048 22.6086 6.67052
1033 2 2.2208 13.5666 23.9774 8.00097
1071 2 2.2208 5.11379 29.6778 -0.255289
767 2 2.2208 13.5636 29.8028 2.39896
861 2 2.2208 13.5406 46.4481 2.58711
769 2 2.2208 5.21822 35.2609 5.35318
770 1 -1.1104 0.923187 30.95 1.06308
771 1 -1.1104 0.930118 36.6616 1.21844
773 1 -1.1104 0.924456 31.1045 3.99942
774 1 -1.1104 1.07671 36.6623 3.98269
776 1 -1.1104 1.05734 33.9252 1.11483
777 2 2.2208 5.18991 32.4536 2.68738
778 2 2.2208 5.23733 38.026 2.54174
779 1 -1.1104 0.91826 33.8634 3.95936
781 1 -1.1104 3.70184 31.0721 1.16788
782 1 -1.1104 3.84828 36.6066 1.11943
783 2 2.2208 2.44837 35.2968 2.5258
784 1 -1.1104 3.64839 31.0552 3.91608
785 1 -1.1104 3.86345 36.6433 3.98758
786 2 2.2208 2.38629 32.528 5.39202
787 2 2.2208 2.43262 38.0276 5.40184
788 1 -1.1104 3.79504 33.8512 1.37346
789 1 -1.1104 3.78491 33.8212 4.1185
795 1 -1.1104 6.69508 33.8996 1.12741
794 1 -1.1104 6.60622 31.0055 3.992
793 1 -1.1104 6.52145 31.0459 1.21139
924 1 -1.1104 6.64333 33.7588 6.7727
775 1 -1.1104 6.6783 36.7051 3.96444
780 1 -1.1104 6.57511 33.8725 3.93937
772 1 -1.1104 6.6268 36.7098 1.03367
1075 2 2.2208 13.567 26.9401 -0.322628
1049 2 2.2208 5.19773 32.472 13.6901
921 1 -1.1104 6.61335 30.9767 6.77688
925 1 -1.1104 3.77479 31.0909 6.7911
919 1 -1.1104 1.06429 31.0226 6.6893
10257 3 0 13.1686 32.2494 12.7223
839 2 2.2208 7.97436 38.0817 -0.273293
1026 1 -1.1104 12.3465 42.3641 9.51719
796 2 2.2208 10.8341 35.3056 5.50281
797 1 -1.1104 12.2569 31.1258 1.05903
798 1 -1.1104 12.2816 36.6828 1.13659
799 1 -1.1104 12.0748 31.0245 3.90208
800 1 -1.1104 12.21 36.6273 3.87004
801 1 -1.1104 12.1735 33.8477 1.2455
802 2 2.2208 10.7968 32.5255 2.55593
803 2 2.2208 10.8734 38.0696 2.64558
804 1 -1.1104 12.2235 33.7797 4.03942
805 1 -1.1104 9.32994 31.0711 1.11604
806 1 -1.1104 9.46919 36.6479 1.16412
807 2 2.2208 8.10731 35.36 2.56286