ITEM: TIMESTEP
80000
ITEM: NUMBER OF ATOMS
17700
ITEM: BOX BOUNDS pp pp pp
-3.2546818820550222e-01 2.7665468188206070e+01
-3.8531801372332461e+00 3.3193318013723530e+02
-3.2097543892115138e-01 2.7660975438919564e+01
ITEM: ATOMS id type q x y z
1 2 2.2208 5.41719 1.71955 5.3487
2 1 -1.1104 1.2224 -2.51227 1.05546
3 1 -1.1104 1.11658 3.04294 0.988118
6 1 -1.1104 1.22141 -2.46264 3.87389
7 1 -1.1104 1.21649 3.0719 3.82295
10 1 -1.1104 1.15001 0.288413 0.989811
12 2 2.2208 5.42111 -1.14624 2.58243
13 2 2.2208 5.27631 4.49036 2.49925
14 1 -1.1104 1.22349 0.28487 3.8954
16 1 -1.1104 3.94978 -2.5468 1.08866
17 1 -1.1104 3.96426 3.02579 1.07645
18 2 2.2208 2.5591 1.60958 2.50813
19 1 -1.1104 4.01682 -2.58299 3.89901
20 1 -1.1104 3.9777 3.11257 3.92751
21 2 2.2208 2.64917 -1.10011 5.3604
22 2 2.2208 2.48114 4.50059 5.3267
23 1 -1.1104 3.91742 0.211586 1.1089
24 1 -1.1104 3.98066 0.245772 3.82373
11 1 -1.1104 6.77995 0.277646 1.14775
4 1 -1.1104 6.74146 -2.53018 1.14091
15 1 -1.1104 6.73411 0.283089 3.88486
5 1 -1.1104 6.75082 3.05887 1.17761
9 1 -1.1104 6.73146 3.09522 3.93611
29 2 2.2208 -0.222609 7.35218 10.8591
170 1 -1.1104 1.13849 0.350718 6.70431
8843 2 2.2208 10.9987 -3.94085 5.32836
8854 2 2.2208 10.9679 -3.87699 -0.298928
165 2 2.2208 13.7825 18.5455 2.53802
313 2 2.2208 -0.270227 15.6799 8.09262
8 1 -1.1104 6.72946 -2.48207 4.08292
31 2 2.2208 10.9331 1.70061 5.33644
32 1 -1.1104 12.32 -2.46107 1.12211
33 1 -1.1104 12.3002 3.07759 1.13284
34 1 -1.1104 12.3183 -2.51713 3.93596
35 1 -1.1104 12.385 3.01706 3.92586
36 1 -1.1104 12.4297 0.321359 1.09479
37 2 2.2208 10.9423 -1.11647 2.44634
38 2 2.2208 11.0066 4.40972 2.51652
39 1 -1.1104 12.3445 0.249613 3.78926
40 1 -1.1104 9.52854 -2.54923 1.18383
41 1 -1.1104 9.57143 3.04156 1.16209
42 2 2.2208 8.13096 1.67562 2.48353
43 1 -1.1104 9.5914 -2.49382 3.96986
44 1 -1.1104 9.66129 3.06457 3.9462
45 2 2.2208 8.14489 -1.0118 5.40278
46 2 2.2208 8.14135 4.46418 5.33039
47 1 -1.1104 9.55859 0.211149 1.12386
48 1 -1.1104 9.45231 0.372217 3.92132
368 2 2.2208 -0.143171 1.68726 -0.430666
30 2 2.2208 -0.207968 10.0969 8.08678
135 2 2.2208 -0.269203 15.658 2.50847
379 2 2.2208 5.44973 7.31062 -0.246927
200 2 2.2208 -0.142958 -0.988796 8.12784
8840 2 2.2208 5.40028 -3.954 5.3597
372 2 2.2208 8.17467 4.5666 -0.273399
54 2 2.2208 5.29539 7.31233 5.37786
55 2 2.2208 5.45022 12.9727 5.33503
56 1 -1.1104 1.10607 8.54576 1.18314
58 1 -1.1104 1.10546 8.71436 3.98469
60 1 -1.1104 1.2356 5.87218 1.07425
61 1 -1.1104 1.1747 11.3462 1.09451
66 2 2.2208 5.33138 10.0908 2.54993
67 1 -1.1104 1.18305 5.94022 3.96278
68 1 -1.1104 1.12515 11.4806 3.85248
71 1 -1.1104 3.90649 8.67319 1.23466
72 2 2.2208 2.57061 7.29993 2.48005
73 2 2.2208 2.55789 12.907 2.45231
74 1 -1.1104 3.9459 8.77688 3.92991
75 2 2.2208 2.57892 10.1451 5.31426
76 1 -1.1104 3.91742 5.89513 1.12432
77 1 -1.1104 3.98961 11.4773 1.15309
79 1 -1.1104 3.8929 5.89908 3.93718
80 1 -1.1104 3.93409 11.5776 3.98624
70 1 -1.1104 6.76903 11.439 3.85028
78 1 -1.1104 3.89928 11.6489 6.72844
62 1 -1.1104 1.19746 11.4743 6.69373
59 1 -1.1104 6.80192 8.76585 3.95472
57 1 -1.1104 6.7523 8.6811 1.14419
64 1 -1.1104 6.79915 11.4606 1.14453
65 1 -1.1104 6.72944 11.4737 6.66664
63 1 -1.1104 6.81496 5.79015 1.19116
380 2 2.2208 2.59146 10.0501 -0.261736
82 2 2.2208 -0.328528 10.0584 2.51724
81 2 2.2208 -0.287577 7.30261 5.30749
366 2 2.2208 2.55718 4.5092 -0.316505
69 1 -1.1104 6.67593 5.97383 3.99272
84 2 2.2208 10.9779 7.33078 5.26932
85 2 2.2208 10.9289 12.914 5.35129
86 1 -1.1104 12.437 8.66917 1.13198
87 1 -1.1104 12.3978 8.6717 3.84217
88 1 -1.1104 12.4255 5.8478 1.14225
89 1 -1.1104 12.4033 11.4509 1.08067
91 2 2.2208 10.9527 10.0738 2.527
92 1 -1.1104 12.2946 5.87661 3.93064
93 1 -1.1104 12.3043 11.6068 3.90771
94 1 -1.1104 9.52843 8.608 1.06982
95 2 2.2208 8.10396 7.31913 2.59141
96 2 2.2208 8.23392 12.869 2.54253
97 1 -1.1104 9.5998 8.83213 3.84697
98 2 2.2208 8.08068 10.1007 5.38042
99 1 -1.1104 9.54815 5.82052 1.11444
100 1 -1.1104 9.63523 11.5239 1.18346
102 1 -1.1104 9.48393 5.96621 3.93247
103 1 -1.1104 9.57187 11.5484 4.05077
267 1 -1.1104 9.51481 8.75426 6.65893
8849 2 2.2208 11.0229 -3.88599 10.9897
27 2 2.2208 -0.299915 4.49332 2.42018
26 2 2.2208 -0.18248 1.68227 5.28275
266 1 -1.1104 12.3145 5.94633 6.61814
290 1 -1.1104 6.77448 14.3092 9.56375
323 1 -1.1104 12.3931 17.0868 9.4479
8860 2 2.2208 -0.169573 -3.92429 -0.4046
373 2 2.2208 2.63131 15.696 -0.317097
25 2 2.2208 -0.186792 -1.03278 2.44831
106 2 2.2208 5.30547 18.5185 5.30095
107 1 -1.1104 1.17378 14.1721 1.0194
109 1 -1.1104 1.20141 19.8764 1.02744
113 1 -1.1104 1.08022 14.2972 3.82646
114 1 -1.1104 1.10515 19.9099 3.8224
116 1 -1.1104 1.1709 17.0383 1.03946
119 2 2.2208 5.32184 15.7979 2.53846
120 2 2.2208 5.36424 21.2904 2.40663
121 1 -1.1104 1.06405 17.0281 3.91784
123 1 -1.1104 3.91907 14.306 1.18937
125 1 -1.1104 3.9844 19.8659 1.06213
127 2 2.2208 2.56564 18.4674 2.50304
128 1 -1.1104 3.89919 14.3699 3.81986
129 1 -1.1104 3.85785 19.8268 3.90217
130 2 2.2208 2.52062 15.5807 5.28853
131 2 2.2208 2.57042 21.2663 5.29233
132 1 -1.1104 3.97735 17.0949 1.1046
134 1 -1.1104 3.8708 17.1092 3.94479
115 1 -1.1104 6.79444 14.3545 3.96766
124 1 -1.1104 3.91376 14.3092 6.64816
140 1 -1.1104 6.7741 17.0459 1.18838
118 1 -1.1104 6.77509 17.1179 6.74699
49 2 2.2208 13.7648 1.72326 2.58314
138 1 -1.1104 6.83711 19.8344 1.01251
139 1 -1.1104 6.57927 19.8833 3.82259
110 1 -1.1104 6.78735 14.2707 1.18477
359 2 2.2208 5.35512 15.7488 13.7523
316 2 2.2208 8.19716 21.2764 10.9042
112 1 -1.1104 6.73629 19.9334 6.57996
122 1 -1.1104 6.64145 17.102 3.95191
320 2 2.2208 8.12472 18.4813 8.10453
141 2 2.2208 11.0106 18.4543 5.23845
142 1 -1.1104 12.3791 14.3255 0.977779
144 1 -1.1104 12.3629 19.8464 1.07864
146 1 -1.1104 12.2762 14.3822 3.73844
147 1 -1.1104 12.4085 19.901 3.94645
148 1 -1.1104 12.2451 17.1346 1.1481
150 2 2.2208 10.8757 15.7401 2.47076
151 2 2.2208 10.9303 21.2699 2.43335
152 1 -1.1104 12.3206 17.1205 3.81865
153 1 -1.1104 9.6799 14.2986 1.095
155 1 -1.1104 9.60821 19.8838 1.07325
157 2 2.2208 8.06795 18.4907 2.5296
158 1 -1.1104 9.45047 14.3088 3.94664
159 1 -1.1104 9.54796 19.9499 3.80097
160 2 2.2208 8.19784 15.7163 5.27832
161 2 2.2208 8.0915 21.2816 5.18593
162 1 -1.1104 9.54601 17.059 1.04092
164 1 -1.1104 9.57403 17.1637 3.91183
347 2 2.2208 8.16688 15.6051 -0.315742
145 1 -1.1104 12.296 19.8127 6.67316
156 1 -1.1104 9.49529 19.7517 6.57251
143 1 -1.1104 12.4116 14.2689 6.61915
289 1 -1.1104 6.67986 17.153 9.50108
154 1 -1.1104 9.59029 14.3147 6.65442
166 1 -1.1104 1.28903 -2.43641 6.69498
174 1 -1.1104 4.03071 0.326231 6.71063
167 1 -1.1104 1.09669 3.02003 6.66442
172 1 -1.1104 4.14544 -2.4351 6.68191
169 1 -1.1104 6.80948 2.92499 6.81601
168 1 -1.1104 6.7529 -2.55257 6.80887
173 1 -1.1104 3.93675 3.14023 6.70338
175 2 2.2208 5.4227 1.67443 10.9195
176 1 -1.1104 1.22702 -2.552 12.2806
177 1 -1.1104 1.18532 3.07706 12.3319
180 1 -1.1104 1.17395 -2.47336 9.51419
181 1 -1.1104 1.09463 3.0566 9.46119
184 1 -1.1104 1.07593 0.297844 12.3314
186 2 2.2208 5.46614 -1.09486 8.16949
187 2 2.2208 5.31838 4.49061 8.14278
188 1 -1.1104 1.24265 0.31745 9.57182
190 1 -1.1104 4.01253 -2.45293 12.3533
191 1 -1.1104 4.00676 3.08776 12.3197
192 2 2.2208 2.55316 1.7391 8.11934
193 1 -1.1104 4.02869 -2.53921 9.58187
194 1 -1.1104 3.89674 3.098 9.57577
195 2 2.2208 2.59191 -1.11604 10.9527
196 2 2.2208 2.56012 4.51451 10.9966
197 1 -1.1104 3.89113 0.311806 12.2396
198 1 -1.1104 4.08575 0.251469 9.40158
179 1 -1.1104 6.8183 3.07842 12.2803
178 1 -1.1104 6.8883 -2.48533 12.3464
182 1 -1.1104 6.7311 -2.45261 9.61367
136 2 2.2208 -0.324606 21.2607 2.49711
311 2 2.2208 -0.217211 21.2545 8.08702
199 2 2.2208 -0.267803 4.55113 8.17629
201 2 2.2208 -0.320323 1.69113 10.8779
137 2 2.2208 -0.174003 18.5523 5.24637
207 1 -1.1104 12.4442 0.375931 6.64118
205 1 -1.1104 12.31 -2.4123 6.78925
163 1 -1.1104 9.56454 17.1144 6.75077
171 1 -1.1104 6.83983 0.270565 6.72719
185 1 -1.1104 6.69228 0.280984 12.3991
189 1 -1.1104 6.87526 0.438252 9.57909
183 1 -1.1104 6.71305 3.21686 9.66502
209 1 -1.1104 9.61028 3.19801 6.72486
208 1 -1.1104 9.44101 -2.36449 6.83396
206 1 -1.1104 12.4323 3.12708 6.67775
330 1 -1.1104 12.3985 14.2798 12.3588
210 1 -1.1104 9.5598 0.403498 6.87224
211 2 2.2208 10.996 1.71071 10.9076
212 1 -1.1104 12.5733 -2.5284 12.484
213 1 -1.1104 12.3758 3.11464 12.3156
214 1 -1.1104 12.4139 -2.52331 9.5206
215 1 -1.1104 12.3787 3.18053 9.48823
216 1 -1.1104 12.293 0.316029 12.3302
217 2 2.2208 10.9584 -1.08638 8.24947
218 2 2.2208 10.9325 4.53284 8.09598
219 1 -1.1104 12.3227 0.298372 9.49542
220 1 -1.1104 9.6436 -2.44869 12.5094
221 1 -1.1104 9.67003 3.11812 12.2922
222 2 2.2208 8.27237 1.77339 8.27307
223 1 -1.1104 9.48755 -2.50664 9.7035
224 1 -1.1104 9.60843 3.17483 9.54726
225 2 2.2208 8.22512 -1.06825 11.0212
226 2 2.2208 8.2113 4.5646 10.9955
227 1 -1.1104 9.47765 0.308404 12.3904
228 1 -1.1104 9.62505 0.313016 9.67394
317 2 2.2208 8.12342 15.7327 10.9462
236 1 -1.1104 1.19305 5.84871 6.71238
239 1 -1.1104 3.97102 5.92109 6.79298
238 1 -1.1104 3.97384 8.78197 6.63625
234 1 -1.1104 1.14217 8.67736 6.67932
240 2 2.2208 5.28033 7.35877 10.9462
241 2 2.2208 5.37075 13.0137 11.0057
242 1 -1.1104 1.22528 8.75705 12.3885
244 1 -1.1104 1.16214 8.73048 9.56021
246 1 -1.1104 1.13791 5.99223 12.3392
247 1 -1.1104 1.29833 11.5071 12.393
250 2 2.2208 5.34319 10.1961 8.14028
251 1 -1.1104 1.26842 5.99024 9.54814
252 1 -1.1104 1.11407 11.4693 9.5498
255 1 -1.1104 3.94827 8.70225 12.2948
256 2 2.2208 2.6321 7.28891 8.1497
257 2 2.2208 2.52151 12.892 8.08675
258 1 -1.1104 3.91312 8.80297 9.50784
259 2 2.2208 2.5571 10.1667 10.9653
260 1 -1.1104 3.92704 5.82975 12.2912
261 1 -1.1104 4.0672 11.5758 12.2564
262 1 -1.1104 3.97859 5.94063 9.54953
263 1 -1.1104 3.98496 11.6092 9.49239
245 1 -1.1104 6.72697 8.73234 9.53673
235 1 -1.1104 6.63444 8.65729 6.75699
254 1 -1.1104 6.74035 11.5121 9.59827
83 2 2.2208 -0.260599 12.8647 5.19516
51 2 2.2208 -0.248243 12.9421 10.8279
237 1 -1.1104 6.70999 5.7952 6.74663
248 1 -1.1104 6.72268 5.9635 12.3111
253 1 -1.1104 6.75541 5.95639 9.5426
243 1 -1.1104 6.74736 8.68653 12.3647
101 1 -1.1104 9.43719 11.6011 6.7593
269 1 -1.1104 9.53076 5.85094 6.72145
265 1 -1.1104 12.362 8.74244 6.644
249 1 -1.1104 6.87258 11.509 12.2683
90 1 -1.1104 12.2893 11.4882 6.62953
306 1 -1.1104 6.76536 17.094 12.305
264 1 -1.1104 9.61107 11.4584 9.6084
268 1 -1.1104 9.49094 5.90715 9.54251
270 1 -1.1104 9.5333 11.4946 12.3383
271 1 -1.1104 9.48717 5.92703 12.3721
272 2 2.2208 8.10945 10.0894 10.8987
273 1 -1.1104 9.46903 8.74434 9.37618
274 2 2.2208 8.17251 12.8476 8.14131
275 2 2.2208 8.11648 7.24011 8.0744
276 2 2.2208 10.8995 7.3174 10.8814
277 2 2.2208 10.9326 12.8456 10.9121
278 1 -1.1104 12.3081 8.66956 12.2953
279 1 -1.1104 12.3046 8.67524 9.42868
280 1 -1.1104 12.3088 5.88937 12.3231
281 1 -1.1104 12.3037 11.4709 12.3439
282 2 2.2208 10.934 10.0783 8.02463
283 1 -1.1104 12.3028 5.8144 9.42335
284 1 -1.1104 12.4495 11.3981 9.47675
285 1 -1.1104 9.4618 8.66301 12.2317
318 1 -1.1104 9.49643 19.9064 9.39084
321 1 -1.1104 9.48312 19.939 12.2485
126 1 -1.1104 3.86506 19.921 6.64015
302 1 -1.1104 1.20134 19.8764 6.63479
133 1 -1.1104 3.96794 17.1624 6.73014
108 1 -1.1104 1.09572 14.2286 6.64649
296 1 -1.1104 6.72627 19.8313 12.2015
117 1 -1.1104 1.15871 17.0954 6.72999
304 1 -1.1104 3.89183 17.0673 9.49827
298 1 -1.1104 1.12666 19.8382 12.3225
301 1 -1.1104 3.98264 19.8695 9.46956
293 2 2.2208 5.39126 21.3194 8.07404
287 1 -1.1104 3.97763 14.3917 12.3829
292 1 -1.1104 1.16158 17.0786 9.51155
300 2 2.2208 5.32945 18.5046 10.8682
286 1 -1.1104 3.85645 19.963 12.2909
291 1 -1.1104 1.16074 19.8743 9.49382
299 1 -1.1104 1.16727 14.3059 12.2766
303 2 2.2208 2.59916 18.4737 8.04771
295 2 2.2208 5.41335 15.7196 8.12459
305 1 -1.1104 3.98861 14.4216 9.51739
310 2 2.2208 2.61781 15.6943 10.9124
309 2 2.2208 2.47765 21.3358 10.8949
308 1 -1.1104 3.96262 17.1585 12.2401
307 1 -1.1104 1.18204 17.1042 12.2895
294 1 -1.1104 1.1313 14.2055 9.50727
288 1 -1.1104 6.81066 19.8549 9.46068
312 2 2.2208 -0.257059 18.5193 10.9301
322 1 -1.1104 9.58231 14.2688 12.3063
315 1 -1.1104 9.53302 17.1069 12.3347
331 2 2.2208 10.9168 18.5 10.878
326 1 -1.1104 12.322 17.0609 12.2847
324 2 2.2208 10.9145 21.2131 7.92773
111 1 -1.1104 6.78656 14.3466 6.782
314 1 -1.1104 9.4678 17.0172 9.4962
329 1 -1.1104 12.2641 19.9245 12.2
297 1 -1.1104 6.75459 14.3221 12.2994
327 1 -1.1104 12.2862 19.7808 9.42533
319 1 -1.1104 9.62877 14.1924 9.50885
325 2 2.2208 11.0106 15.6802 8.1313
149 1 -1.1104 12.3804 17.0571 6.61713
328 1 -1.1104 12.3828 14.259 9.52612
335 2 2.2208 -0.232234 21.2808 13.7356
362 2 2.2208 8.15331 18.5286 13.6787
231 2 2.2208 13.7787 21.2867 5.12973
105 2 2.2208 13.8235 7.29577 2.48879
384 2 2.2208 11.0415 7.27653 -0.278404
346 2 2.2208 11.0529 -1.0889 13.8711
349 2 2.2208 8.18366 21.1923 -0.440637
8862 2 2.2208 8.19845 -3.8461 13.8111
350 2 2.2208 11.0089 4.4697 13.7555
382 2 2.2208 -0.218657 12.7755 -0.250406
386 2 2.2208 10.9936 12.9203 -0.325035
8858 2 2.2208 5.36834 -3.90791 -0.361008
360 2 2.2208 10.9698 21.3592 13.6594
364 2 2.2208 5.28501 1.65363 -0.303683
370 2 2.2208 8.19258 -1.10286 -0.328283
369 2 2.2208 10.9824 1.66513 -0.314236
388 2 2.2208 5.34265 1.70735 16.5575
389 1 -1.1104 1.22852 -2.33556 17.8672
390 1 -1.1104 1.15646 3.12832 17.8863
393 1 -1.1104 1.20522 -2.42457 15.0593
395 1 -1.1104 1.23427 3.22419 15.0876
401 1 -1.1104 1.18428 0.349216 17.823
403 2 2.2208 5.37171 -1.03425 19.3137
404 2 2.2208 5.27529 4.48347 19.3
405 1 -1.1104 1.17761 0.425143 15.0277
409 1 -1.1104 4.12506 -2.51342 17.8461
410 1 -1.1104 3.88287 3.0413 17.8954
411 2 2.2208 2.53277 1.60489 19.2678
412 1 -1.1104 3.95697 -2.46304 15.1258
414 1 -1.1104 3.96042 3.03714 15.1703
416 2 2.2208 2.65877 -1.05262 16.4264
417 2 2.2208 2.55914 4.5307 16.4578
418 1 -1.1104 3.98152 0.248756 17.8222
419 1 -1.1104 3.95558 0.348341 15.0787
399 1 -1.1104 6.76085 3.08689 15.1293
407 1 -1.1104 6.78074 0.292685 15.22
402 1 -1.1104 6.79024 0.37636 17.9935
8907 2 2.2208 2.63452 -3.90659 24.8611
8974 2 2.2208 5.4783 -3.90339 16.5352
338 2 2.2208 5.36078 -1.06523 13.748
392 1 -1.1104 6.80241 3.08532 17.8692
421 2 2.2208 -0.137963 7.35852 22.1169
8905 2 2.2208 11.0569 -3.90016 22.1547
394 1 -1.1104 1.25215 -2.39573 20.574
371 2 2.2208 -0.367628 18.4723 27.6736
337 2 2.2208 -0.16725 4.54044 13.6847
8944 2 2.2208 10.9837 -3.84538 16.6082
397 1 -1.1104 6.74407 -2.51283 15.1418
391 1 -1.1104 6.81143 -2.47098 17.9998
431 2 2.2208 10.9759 1.77715 16.5976
432 1 -1.1104 12.4698 -2.40577 17.984
433 1 -1.1104 12.3219 3.199 17.993
434 1 -1.1104 12.3864 -2.43148 15.2434
436 1 -1.1104 12.3056 3.17621 15.2133
438 1 -1.1104 12.5162 0.281094 17.849
439 2 2.2208 10.9921 -1.04614 19.4219
440 2 2.2208 10.9431 4.52628 19.3571
441 1 -1.1104 12.4241 0.440351 15.0897
443 1 -1.1104 9.64691 -2.477 18.0359
444 1 -1.1104 9.53758 3.13194 18.0558
445 2 2.2208 8.13991 1.75 19.4059
446 1 -1.1104 9.58472 -2.48044 15.2193
448 1 -1.1104 9.60695 3.1988 15.1708
450 2 2.2208 8.2182 -1.03765 16.5841
451 2 2.2208 8.13864 4.50619 16.5387
452 1 -1.1104 9.62892 0.3346 18.0282
453 1 -1.1104 9.6281 0.31404 15.2626
355 2 2.2208 10.8884 10.119 13.6529
8904 2 2.2208 8.11579 -3.85531 24.9424
427 2 2.2208 -0.255697 4.47819 19.267
367 2 2.2208 -0.164856 10.1722 13.7453
458 2 2.2208 -0.205687 21.3439 19.2453
343 2 2.2208 8.20777 1.65092 13.7185
626 2 2.2208 -0.206028 4.53114 24.8792
624 2 2.2208 -0.229394 -1.06572 24.8188
348 2 2.2208 10.9581 18.4265 27.6108
464 2 2.2208 5.3746 7.33566 16.4764
465 2 2.2208 5.345 12.9176 16.5228
466 1 -1.1104 1.27368 8.62354 17.9176
468 1 -1.1104 1.2509 8.77475 15.0938
472 1 -1.1104 1.11744 5.92786 17.9246
473 1 -1.1104 1.17475 11.4299 17.8698
476 2 2.2208 5.42876 10.1493 19.2566
477 1 -1.1104 1.1892 6.01901 15.1411
479 1 -1.1104 1.20956 11.5675 15.157
485 1 -1.1104 4.04815 8.65263 17.9648
486 2 2.2208 2.58916 7.31317 19.3471
487 2 2.2208 2.52057 12.9686 19.2665
488 1 -1.1104 4.06925 8.79945 15.1293
490 2 2.2208 2.62795 10.1225 16.5076
491 1 -1.1104 3.88259 5.91452 17.8783
492 1 -1.1104 3.91384 11.5264 17.9653
493 1 -1.1104 3.89304 5.93433 15.0195
495 1 -1.1104 3.98217 11.4742 15.0955
351 2 2.2208 2.60243 7.44591 13.716
470 1 -1.1104 6.79552 8.72415 15.1262
353 2 2.2208 2.65522 12.8997 13.6697
648 2 2.2208 -0.236246 12.87 16.3971
424 2 2.2208 -0.268974 1.71732 16.3751
621 2 2.2208 -0.187216 7.33117 16.4696
481 1 -1.1104 6.74565 5.97851 15.0405
474 1 -1.1104 6.67731 5.87163 17.8298
467 1 -1.1104 6.89028 8.6607 17.9685
475 1 -1.1104 6.741 11.6079 17.8313
483 1 -1.1104 6.74269 11.6241 15.1564
500 2 2.2208 10.9269 7.34005 16.5767
501 2 2.2208 10.9089 12.9943 16.4269
502 1 -1.1104 12.3857 8.6942 17.9322
503 1 -1.1104 12.3097 8.79989 15.0806
505 1 -1.1104 12.3595 5.97921 17.8679
506 1 -1.1104 12.35 11.6063 17.9489
507 2 2.2208 10.9956 10.1134 19.2971
508 1 -1.1104 12.3184 5.94878 15.0841
510 1 -1.1104 12.3069 11.5367 15.2676
512 1 -1.1104 9.62811 8.74995 17.9096
513 2 2.2208 8.17252 7.24173 19.2897
514 2 2.2208 8.19056 12.9402 19.272
515 1 -1.1104 9.48484 8.7942 15.1085
517 2 2.2208 8.17698 10.1399 16.4618
518 1 -1.1104 9.59537 5.88366 18.0525
519 1 -1.1104 9.46798 11.6305 17.8587
520 1 -1.1104 9.55025 5.9653 15.2374
522 1 -1.1104 9.56827 11.6498 15.1141
463 1 -1.1104 12.3867 14.2471 23.4751
356 2 2.2208 8.09039 13.0331 13.6728
354 2 2.2208 8.12173 7.357 13.7256
560 1 -1.1104 12.3744 17.1192 26.2759
484 1 -1.1104 6.82589 11.5028 20.5777
620 1 -1.1104 9.684 17.0338 26.2731
527 2 2.2208 5.35685 18.54 16.4876
528 1 -1.1104 1.03897 14.2042 17.9244
529 1 -1.1104 1.14902 19.814 17.8668
532 1 -1.1104 1.17793 14.3204 15.0623
534 1 -1.1104 1.1647 19.8864 15.168
540 1 -1.1104 1.05025 17.0154 17.9308
542 2 2.2208 5.37539 15.6913 19.2918
543 2 2.2208 5.34765 21.2081 19.2564
544 1 -1.1104 1.3302 17.2125 15.1016
548 1 -1.1104 3.96693 14.3629 17.9512
549 1 -1.1104 3.94606 19.9658 17.8875
550 2 2.2208 2.53054 18.482 19.2736
551 1 -1.1104 3.92491 14.2995 15.1385
553 1 -1.1104 3.89753 20.0519 15.1241
555 2 2.2208 2.5595 15.6831 16.5211
556 2 2.2208 2.61225 21.394 16.4401
557 1 -1.1104 3.85866 17.14 17.8196
558 1 -1.1104 3.98005 17.1252 15.0846
531 1 -1.1104 6.77415 19.9882 17.7119
545 1 -1.1104 1.20076 17.1458 20.7464
559 1 -1.1104 3.91984 17.1396 20.6874
538 1 -1.1104 6.74599 19.9816 14.9551
541 1 -1.1104 6.69035 17.1985 17.9311
539 1 -1.1104 6.80796 19.8144 20.6558
547 1 -1.1104 6.85428 17.1097 20.6435
536 1 -1.1104 6.75758 14.4532 15.1865
562 1 -1.1104 9.63218 19.9061 23.4213
525 2 2.2208 10.9205 15.5971 24.8839
457 2 2.2208 -0.328116 15.7642 19.2775
358 2 2.2208 5.37563 21.325 13.6024
334 2 2.2208 -0.254658 -1.10553 13.6314
530 1 -1.1104 6.6702 14.3043 17.9368
546 1 -1.1104 6.78954 17.1576 15.097
425 2 2.2208 -0.264724 -1.06095 19.1094
563 2 2.2208 11.0354 18.6129 16.5038
564 1 -1.1104 12.4601 14.485 17.8694
565 1 -1.1104 12.4575 19.9985 17.8405
566 1 -1.1104 12.2687 14.2978 15.0924
568 1 -1.1104 12.2616 20.0125 15.0345
570 1 -1.1104 12.2805 17.2358 17.8921
571 2 2.2208 10.9892 15.6768 19.3323
572 2 2.2208 10.9251 21.3663 19.2341
573 1 -1.1104 12.3176 17.1628 15.0502
575 1 -1.1104 9.50615 14.4027 17.9179
576 1 -1.1104 9.59487 19.9802 17.9028
577 2 2.2208 8.23723 18.5037 19.2557
578 1 -1.1104 9.39995 14.3954 15.0473
580 1 -1.1104 9.57392 20.0566 15.0419
582 2 2.2208 8.10427 15.74 16.4992
583 2 2.2208 8.10556 21.4194 16.4117
584 1 -1.1104 9.50139 17.1796 17.8043
585 1 -1.1104 9.57414 17.1275 15.1006
579 1 -1.1104 9.57074 14.3482 20.6964
569 1 -1.1104 12.3267 19.9959 20.6597
361 2 2.2208 10.9551 15.7082 13.759
622 2 2.2208 -0.163933 10.1231 19.3029
586 1 -1.1104 9.60474 17.2152 20.6545
406 1 -1.1104 1.15756 0.291772 20.6067
396 1 -1.1104 1.18865 3.10332 20.7266
365 2 2.2208 2.62452 -1.11183 27.7281
400 1 -1.1104 6.7022 3.23016 20.7421
413 1 -1.1104 4.01716 -2.439 20.6611
415 1 -1.1104 3.93809 3.11364 20.5806
420 1 -1.1104 3.84655 0.369221 20.6958
408 1 -1.1104 6.8011 0.442457 20.7961
591 2 2.2208 5.31768 1.74983 22.1034
592 1 -1.1104 1.16816 -2.50136 23.4691
593 1 -1.1104 1.1806 3.13133 23.4905
596 1 -1.1104 1.22698 -2.44796 26.3082
597 1 -1.1104 1.16458 3.17477 26.1032
600 1 -1.1104 1.1999 0.339899 23.4638
602 2 2.2208 5.30592 -1.15116 24.9264
603 2 2.2208 5.36576 4.44655 24.9924
604 1 -1.1104 1.18061 0.322799 26.274
606 1 -1.1104 3.94911 -2.53224 23.5229
607 1 -1.1104 3.90315 3.10164 23.4603
608 2 2.2208 2.5499 1.66226 24.8317
609 1 -1.1104 4.06193 -2.5173 26.207
610 1 -1.1104 3.90273 3.10184 26.219
611 2 2.2208 2.57738 -1.10911 22.039
612 2 2.2208 2.57892 4.53364 22.0829
613 1 -1.1104 3.88096 0.12835 23.4555
614 1 -1.1104 3.95046 0.278935 26.2601
601 1 -1.1104 6.75555 0.36996 23.501
595 1 -1.1104 6.78975 3.16048 23.5929
398 1 -1.1104 6.85753 -2.38958 20.6619
537 1 -1.1104 6.80976 14.3046 20.7221
625 2 2.2208 -0.24114 1.71601 22.0553
589 1 -1.1104 9.54651 14.2569 26.2896
581 1 -1.1104 9.54452 19.953 20.681
617 1 -1.1104 9.51507 17.114 23.4957
615 2 2.2208 8.14094 15.7248 22.1053
598 1 -1.1104 6.81777 -2.5131 26.2716
605 1 -1.1104 6.71933 0.288484 26.3325
594 1 -1.1104 6.79549 -2.33436 23.529
435 1 -1.1104 12.3604 -2.39738 20.7934
447 1 -1.1104 9.69187 -2.46354 20.8246
442 1 -1.1104 12.308 0.398764 20.6818
437 1 -1.1104 12.4359 3.12677 20.7002
454 1 -1.1104 9.49136 0.290949 20.7496
599 1 -1.1104 6.71592 3.14103 26.3985
449 1 -1.1104 9.49526 3.13433 20.7604
627 2 2.2208 10.9017 1.61504 22.0747
628 1 -1.1104 12.2713 -2.519 23.5877
629 1 -1.1104 12.3305 3.05112 23.5449
630 1 -1.1104 12.337 -2.51437 26.3328
631 1 -1.1104 12.322 3.07565 26.2375
632 1 -1.1104 12.3453 0.314276 23.4674
633 2 2.2208 10.9311 -1.13088 24.9015
634 2 2.2208 10.9465 4.47457 24.9563
635 1 -1.1104 12.3291 0.182913 26.2899
636 1 -1.1104 9.50433 -2.48202 23.6674
637 1 -1.1104 9.60433 3.06855 23.5125
638 2 2.2208 8.13021 1.62313 24.9257
639 1 -1.1104 9.57383 -2.49089 26.3633
640 1 -1.1104 9.47114 3.10294 26.3347
641 2 2.2208 8.22599 -1.11942 22.1319
642 2 2.2208 8.17844 4.54154 22.1174
643 1 -1.1104 9.59025 0.278983 23.4468
644 1 -1.1104 9.53291 0.249586 26.226
587 2 2.2208 8.13805 18.4128 24.82
478 1 -1.1104 1.15369 5.89334 20.6993
496 1 -1.1104 3.9985 11.6574 20.7286
469 1 -1.1104 1.25829 8.75074 20.7524
480 1 -1.1104 1.18186 11.5666 20.6662
456 2 2.2208 -0.208826 18.4898 16.5382
645 2 2.2208 -0.341877 21.258 24.814
489 1 -1.1104 4.02566 8.77456 20.6994
494 1 -1.1104 4.083 5.98332 20.7008
656 2 2.2208 5.46073 7.31166 22.1632
657 2 2.2208 5.48308 12.9443 22.0951
658 1 -1.1104 1.25878 8.60672 23.4569
660 1 -1.1104 1.18437 8.6336 26.2904
662 1 -1.1104 1.1584 5.85956 23.4411
663 1 -1.1104 1.28384 11.4997 23.5908
666 2 2.2208 5.39311 10.1692 24.9159
667 1 -1.1104 1.19223 5.94514 26.24
668 1 -1.1104 1.30876 11.4476 26.3633
671 1 -1.1104 4.00028 8.69484 23.5632
672 2 2.2208 2.66012 7.29123 24.9527
673 2 2.2208 2.66487 12.8824 24.8588
674 1 -1.1104 4.1009 8.85888 26.4211
675 2 2.2208 2.67907 10.1646 21.9836
676 1 -1.1104 4.11682 5.84439 23.5483
677 1 -1.1104 4.00995 11.5507 23.3981
678 1 -1.1104 3.98118 5.93353 26.3656
679 1 -1.1104 3.96257 11.6297 26.3427
661 1 -1.1104 6.83592 8.70981 26.3072
664 1 -1.1104 6.8578 5.88359 23.5821
659 1 -1.1104 6.79065 8.71721 23.4748
482 1 -1.1104 6.87952 6.0312 20.6814
670 1 -1.1104 6.71853 11.5553 26.2825
684 2 2.2208 -0.121746 10.1051 24.8717
665 1 -1.1104 6.73325 11.5124 23.4463
511 1 -1.1104 12.4357 11.5449 20.8042
521 1 -1.1104 9.54743 5.97726 20.877
504 1 -1.1104 12.4326 8.68142 20.8159
516 1 -1.1104 9.53187 8.70071 20.6805
509 1 -1.1104 12.3819 5.8639 20.7225
523 1 -1.1104 9.61818 11.5747 20.62
497 1 -1.1104 12.3237 19.9679 23.4952
471 1 -1.1104 6.83807 8.78426 20.708
669 1 -1.1104 6.84809 5.92832 26.3154
680 1 -1.1104 6.75533 17.1536 23.4293
687 1 -1.1104 9.57596 11.4796 26.277
688 1 -1.1104 9.59965 5.83021 26.2949
689 1 -1.1104 9.4815 11.4931 23.3783
690 1 -1.1104 9.59775 5.988 23.5432
691 2 2.2208 8.21849 10.0778 22.0562
692 1 -1.1104 9.67796 8.65288 26.2529
693 2 2.2208 8.14582 12.8689 24.9174
694 2 2.2208 8.25196 7.32539 24.9357
695 2 2.2208 10.94 7.34738 22.134
696 2 2.2208 11.0123 12.9386 22.0846
697 1 -1.1104 12.4002 8.59549 23.5215
698 1 -1.1104 12.4081 8.74795 26.2468
699 1 -1.1104 12.2776 5.8763 23.4729
700 1 -1.1104 12.3694 11.401 23.5177
701 2 2.2208 10.9778 10.0437 24.8638
702 1 -1.1104 12.4723 5.85622 26.2706
703 1 -1.1104 12.4191 11.4691 26.3463
704 1 -1.1104 9.60295 8.76979 23.422
646 2 2.2208 -0.245379 15.6696 24.9813
590 1 -1.1104 9.53375 19.8068 26.2362
533 1 -1.1104 1.29971 14.467 20.6397
554 1 -1.1104 4.03165 19.8227 20.6646
552 1 -1.1104 3.96587 14.3349 20.6689
535 1 -1.1104 1.24125 20.0485 20.6045
718 1 -1.1104 6.83755 19.846 23.3863
714 1 -1.1104 6.78506 16.9192 26.377
647 2 2.2208 2.58974 15.7107 22.0752
649 2 2.2208 2.61899 21.3529 21.9656
652 1 -1.1104 3.93401 17.1565 23.3742
655 1 -1.1104 1.09734 17.1196 23.5535
681 1 -1.1104 4.0507 14.3735 26.361
682 1 -1.1104 4.08075 17.1187 26.2252
683 2 2.2208 2.52718 18.5394 24.8611
686 1 -1.1104 3.9277 19.906 26.2296
705 2 2.2208 5.34854 18.4685 22.084
706 1 -1.1104 1.20747 14.2741 23.4669
707 1 -1.1104 1.22519 19.9027 23.398
711 1 -1.1104 3.90703 19.9789 23.3803
713 1 -1.1104 4.02201 14.3503 23.459
715 1 -1.1104 1.06387 19.8645 26.2246
716 1 -1.1104 1.16822 17.0788 26.3084
717 1 -1.1104 1.13596 14.2083 26.2545
719 2 2.2208 5.34006 21.277 24.771
720 2 2.2208 5.29584 15.7178 24.8544
588 1 -1.1104 6.73144 19.6973 26.1408
709 1 -1.1104 6.84591 14.3099 23.478
712 1 -1.1104 6.81719 14.2742 26.3032
567 1 -1.1104 12.3777 14.3005 20.6851
526 2 2.2208 10.9843 21.3536 24.7638
462 2 2.2208 10.9215 18.5322 22.0393
574 1 -1.1104 12.4244 17.1854 20.6643
616 2 2.2208 8.10426 21.2056 22.0564
524 1 -1.1104 12.3349 17.0828 23.5488
498 1 -1.1104 12.3774 14.2295 26.2448
499 1 -1.1104 12.3803 19.9477 26.1769
561 1 -1.1104 9.67026 14.2269 23.4668
383 2 2.2208 -0.232213 7.29904 27.7303
357 2 2.2208 2.53092 18.6077 13.755
385 2 2.2208 8.248 10.0638 27.714
375 2 2.2208 2.49379 21.2098 27.6441
352 2 2.2208 5.39645 10.111 13.7234
341 2 2.2208 5.35299 4.5369 13.7054
339 2 2.2208 2.60761 1.74429 13.693
374 2 2.2208 5.48138 18.4035 27.7236
381 2 2.2208 5.32942 12.9735 27.725
721 2 2.2208 5.38045 24.057 5.18478
722 2 2.2208 5.25495 29.6045 5.12563
723 1 -1.1104 1.12742 25.4806 0.999856
724 1 -1.1104 1.09157 25.4492 3.80084
725 1 -1.1104 1.10302 22.6585 0.964643
726 1 -1.1104 1.10712 28.3103 1.10971
727 2 2.2208 5.29359 26.9034 2.42193
728 1 -1.1104 1.04484 22.6764 3.76719
729 1 -1.1104 1.10531 28.2406 3.7683
730 1 -1.1104 3.97224 25.3448 1.00128
731 2 2.2208 2.4553 23.9942 2.45754
732 2 2.2208 2.47947 29.7352 2.44533
733 1 -1.1104 3.82754 25.3898 3.76786
734 2 2.2208 2.50172 26.8377 5.16315
735 1 -1.1104 3.83059 22.5997 0.935548
736 1 -1.1104 3.81914 28.2671 0.968564
737 1 -1.1104 3.89063 22.5644 3.82104
738 1 -1.1104 3.9406 28.2171 3.70649
744 1 -1.1104 6.75098 22.6342 0.938466
742 1 -1.1104 6.68766 25.5012 1.05228
745 1 -1.1104 6.64681 28.3713 1.00008
1014 2 2.2208 8.06506 40.9359 8.02654
10178 2 2.2208 -0.397887 38.1101 13.6163
747 1 -1.1104 6.69678 28.2953 3.74933
863 1 -1.1104 6.71312 25.419 6.61573
862 1 -1.1104 1.05635 25.445 6.65074
868 1 -1.1104 3.91582 25.3885 6.56569
870 1 -1.1104 3.83282 28.3912 6.58484
866 1 -1.1104 6.77921 22.5916 6.62013
1633 1 -1.1104 12.2665 47.7979 12.3852
1071 2 2.2208 5.25199 29.6776 -0.386895
746 1 -1.1104 6.74963 22.6842 3.76201
743 1 -1.1104 6.73595 25.4408 3.78953
748 2 2.2208 10.8477 24.1418 5.19214
749 2 2.2208 10.9446 29.7155 5.17136
750 1 -1.1104 12.2897 25.4166 1.08973
751 1 -1.1104 12.3262 25.5565 3.78379
752 1 -1.1104 12.4243 22.6655 0.964387
753 1 -1.1104 12.3557 28.276 1.01685
754 2 2.2208 10.8802 26.8503 2.4192
755 1 -1.1104 12.3262 22.7704 3.79406
756 1 -1.1104 12.2458 28.262 3.77769
757 1 -1.1104 9.49908 25.581 0.959647
758 2 2.2208 8.16445 24.0763 2.36537
759 2 2.2208 8.04237 29.752 2.45485
760 1 -1.1104 9.50576 25.5188 3.75227
761 2 2.2208 8.13157 26.9083 5.16171
762 1 -1.1104 9.58574 22.6601 0.959577
763 1 -1.1104 9.43051 28.3307 1.08298
764 1 -1.1104 9.49577 22.7263 3.82648
765 1 -1.1104 9.46768 28.3491 3.80647
10177 2 2.2208 -0.411759 40.7964 10.7886
1007 1 -1.1104 9.57793 45.1417 9.56591
896 1 -1.1104 12.3251 22.7462 6.59972
1026 1 -1.1104 12.4626 42.4917 9.49541
10184 2 2.2208 13.6955 46.3879 13.5511
769 2 2.2208 5.22411 35.2433 5.27595
770 1 -1.1104 1.09823 31.1336 0.91771
771 1 -1.1104 1.15416 36.651 1.08827
773 1 -1.1104 1.04113 31.0168 3.78147
774 1 -1.1104 1.04302 36.6961 3.81158
776 1 -1.1104 1.01534 33.8822 1.00776
777 2 2.2208 5.19026 32.4832 2.50739
778 2 2.2208 5.30328 38.1093 2.4495
779 1 -1.1104 1.06188 33.8985 3.85399
781 1 -1.1104 3.85571 31.0954 1.04985
782 1 -1.1104 3.79663 36.7654 1.11274
783 2 2.2208 2.4643 35.2911 2.46239
784 1 -1.1104 3.85049 30.9984 3.8241
785 1 -1.1104 3.79745 36.6492 3.98119
786 2 2.2208 2.47921 32.5036 5.22144
787 2 2.2208 2.42582 38.1005 5.22459
788 1 -1.1104 3.88684 33.8804 1.04143
789 1 -1.1104 3.7743 33.8729 3.81318
793 1 -1.1104 6.60798 31.1543 1.01535
926 1 -1.1104 3.83364 36.6484 6.67958
920 1 -1.1104 1.08691 36.6476 6.66534
1043 2 2.2208 2.43038 29.6979 13.6427
922 1 -1.1104 6.57382 36.6925 6.63095
1012 1 -1.1104 9.36306 42.4675 9.20281
1018 2 2.2208 10.9838 43.6409 8.17136
790 2 2.2208 -0.304079 35.3016 5.19338
792 2 2.2208 -0.345485 38.0755 2.43052
1035 2 2.2208 13.7522 27.0067 10.7823
795 1 -1.1104 6.70262 33.901 1.14404
794 1 -1.1104 6.60818 31.1196 3.80877
924 1 -1.1104 6.56558 33.8584 6.62741
775 1 -1.1104 6.64423 36.6532 3.84114
921 1 -1.1104 6.70822 30.9981 6.59174
1031 2 2.2208 13.702 32.6049 5.30396
772 1 -1.1104 6.68677 36.6306 1.09448
780 1 -1.1104 6.59616 33.8722 4.00279
796 2 2.2208 10.9603 35.3198 5.30234
797 1 -1.1104 12.2313 31.1184 0.944282
798 1 -1.1104 12.299 36.6919 1.03865
799 1 -1.1104 12.2949 31.055 3.69765
800 1 -1.1104 12.3089 36.6805 3.78229
801 1 -1.1104 12.366 33.9997 1.01602
802 2 2.2208 10.9234 32.5437 2.42205
803 2 2.2208 10.9192 38.0627 2.48454
804 1 -1.1104 12.3594 33.8845 3.91546
805 1 -1.1104 9.41883 31.211 1.04566
806 1 -1.1104 9.48288 36.7336 1.07969
807 2 2.2208 7.99689 35.2639 2.58473