ITEM: TIMESTEP
20000
ITEM: NUMBER OF ATOMS
17700
ITEM: BOX BOUNDS pp pp pp
-3.2245301703999624e-01 2.7662453017040402e+01
-3.9679530153046851e+00 3.3204795301530783e+02
-3.1817419125353802e-01 2.7658174191253298e+01
ITEM: ATOMS id type q x y z
1 2 2.2208 5.26384 1.60159 5.21218
2 1 -1.1104 1.20328 -2.62464 1.0618
3 1 -1.1104 1.13423 3.00372 1.0875
6 1 -1.1104 1.09274 -2.67601 3.90418
7 1 -1.1104 1.09748 3.0044 3.79798
10 1 -1.1104 1.18202 0.14314 1.11431
12 2 2.2208 5.27545 -1.20505 2.51113
13 2 2.2208 5.36567 4.37236 2.45526
14 1 -1.1104 1.09304 0.177192 3.87248
16 1 -1.1104 3.88888 -2.57476 1.04452
17 1 -1.1104 3.96603 3.04397 1.12055
18 2 2.2208 2.4916 1.49968 2.49955
19 1 -1.1104 3.85751 -2.60308 3.77756
20 1 -1.1104 3.92045 3.03054 3.88303
21 2 2.2208 2.52727 -1.21585 5.31214
22 2 2.2208 2.47782 4.36305 5.26672
23 1 -1.1104 3.97096 0.261864 1.06742
24 1 -1.1104 3.91407 0.237787 3.91854
8847 2 2.2208 -0.229106 -3.96377 10.94
167 1 -1.1104 1.11718 3.01065 6.67798
362 2 2.2208 8.09073 18.3938 13.675
15 1 -1.1104 6.69318 0.255116 3.79216
27 2 2.2208 -0.291628 4.41688 2.48076
173 1 -1.1104 3.9311 2.95392 6.63936
322 1 -1.1104 9.47423 14.1351 12.3216
8 1 -1.1104 6.70839 -2.54105 3.93512
11 1 -1.1104 6.76772 0.178623 0.911406
5 1 -1.1104 6.7217 3.01754 1.15352
4 1 -1.1104 6.66123 -2.57786 1.15657
9 1 -1.1104 6.67529 3.0265 3.89632
31 2 2.2208 10.7948 1.5283 5.26766
32 1 -1.1104 12.2939 -2.50773 1.02909
33 1 -1.1104 12.3673 2.95889 0.988807
34 1 -1.1104 12.3025 -2.66642 3.85951
35 1 -1.1104 12.3767 2.9974 3.80668
36 1 -1.1104 12.2701 0.113619 1.0276
37 2 2.2208 10.7988 -1.24013 2.47407
38 2 2.2208 10.8968 4.35138 2.49595
39 1 -1.1104 12.2161 0.197433 3.99089
40 1 -1.1104 9.53251 -2.75202 1.07804
41 1 -1.1104 9.50368 2.96091 0.963704
42 2 2.2208 8.03817 1.6141 2.4607
43 1 -1.1104 9.44963 -2.56039 3.82758
44 1 -1.1104 9.42774 2.98706 3.77755
45 2 2.2208 8.10903 -1.18212 5.27523
46 2 2.2208 8.0993 4.45521 5.27763
47 1 -1.1104 9.52128 0.157521 1.16347
48 1 -1.1104 9.38801 0.222107 3.85764
8843 2 2.2208 10.8045 -4.07084 5.20852
52 2 2.2208 13.6595 10.0548 10.8117
331 2 2.2208 10.9047 18.4019 10.7766
369 2 2.2208 10.9082 1.58065 -0.270072
54 2 2.2208 5.28446 7.19364 5.29134
55 2 2.2208 5.29001 12.8526 5.32288
56 1 -1.1104 1.15618 8.5737 1.07783
58 1 -1.1104 1.08961 8.5562 3.79827
60 1 -1.1104 1.2138 5.7698 1.10926
61 1 -1.1104 1.02357 11.4016 1.07005
66 2 2.2208 5.30199 10.131 2.50427
67 1 -1.1104 1.21066 5.71045 3.92992
68 1 -1.1104 1.11828 11.3469 3.85756
71 1 -1.1104 3.89005 8.71908 1.09667
72 2 2.2208 2.52559 7.12017 2.51773
73 2 2.2208 2.46149 12.8218 2.44828
74 1 -1.1104 3.86828 8.65744 3.89419
75 2 2.2208 2.51224 9.96042 5.23535
76 1 -1.1104 3.89967 5.85967 1.0619
77 1 -1.1104 3.86866 11.3882 1.23806
79 1 -1.1104 4.06224 5.80145 3.83474
80 1 -1.1104 3.96922 11.4464 4.03833
234 1 -1.1104 1.16701 8.61886 6.62954
62 1 -1.1104 1.11265 11.319 6.71672
236 1 -1.1104 1.14422 5.78105 6.68878
238 1 -1.1104 3.91936 8.59664 6.65263
78 1 -1.1104 3.85466 11.337 6.72403
364 2 2.2208 5.35117 1.67565 -0.311636
239 1 -1.1104 3.85341 5.80078 6.68834
237 1 -1.1104 6.71602 5.87187 6.78322
320 2 2.2208 8.04069 18.4281 8.11987
82 2 2.2208 -0.161036 9.98364 2.39183
70 1 -1.1104 6.71557 11.3492 3.92304
64 1 -1.1104 6.63975 11.534 1.19363
63 1 -1.1104 6.701 5.8739 1.07075
69 1 -1.1104 6.69587 5.87617 4.01058
57 1 -1.1104 6.68536 8.69686 1.0635
59 1 -1.1104 6.6155 8.55753 3.77327
84 2 2.2208 10.9001 7.20847 5.33741
85 2 2.2208 10.9456 12.7915 5.26603
86 1 -1.1104 12.277 8.61458 1.03558
87 1 -1.1104 12.3076 8.54814 3.78012
88 1 -1.1104 12.2561 5.79617 1.14236
89 1 -1.1104 12.2817 11.4666 0.983895
91 2 2.2208 10.8844 10.0243 2.42404
92 1 -1.1104 12.3299 5.72686 3.94661
93 1 -1.1104 12.3596 11.2999 3.81861
94 1 -1.1104 9.51386 8.68742 1.1593
95 2 2.2208 8.04917 7.19683 2.50787
96 2 2.2208 8.1113 12.8136 2.51418
97 1 -1.1104 9.49249 8.67784 3.94472
98 2 2.2208 8.04519 10.0012 5.29442
99 1 -1.1104 9.50879 5.76443 1.14051
100 1 -1.1104 9.47341 11.4311 1.19044
102 1 -1.1104 9.49132 5.86814 3.91161
103 1 -1.1104 9.4792 11.4206 3.89883
265 1 -1.1104 12.2683 8.59109 6.61259
366 2 2.2208 2.50733 4.37679 -0.262349
267 1 -1.1104 9.49937 8.64048 6.69772
83 2 2.2208 -0.236022 12.73 5.26652
385 2 2.2208 8.06393 10.0359 -0.218973
8848 2 2.2208 8.11237 -4.01579 8.09372
106 2 2.2208 5.20403 18.4402 5.29072
107 1 -1.1104 1.00977 14.0858 1.1216
109 1 -1.1104 0.996488 19.7619 1.0921
113 1 -1.1104 1.11582 14.1625 3.99951
114 1 -1.1104 1.00652 19.8396 3.88849
116 1 -1.1104 1.03324 16.9736 1.0415
119 2 2.2208 5.2991 15.5882 2.49011
120 2 2.2208 5.2904 21.1683 2.57139
121 1 -1.1104 1.14132 16.9657 3.83581
123 1 -1.1104 3.87797 14.2141 1.1169
125 1 -1.1104 3.80494 19.7395 1.11928
127 2 2.2208 2.49519 18.2883 2.50619
128 1 -1.1104 3.94403 14.2205 3.82257
129 1 -1.1104 3.79756 19.7155 3.90832
130 2 2.2208 2.50499 15.5198 5.25981
131 2 2.2208 2.41056 21.1384 5.31052
132 1 -1.1104 3.95885 16.9686 1.05519
134 1 -1.1104 3.89144 16.9274 3.93168
126 1 -1.1104 3.88649 19.7899 6.67769
108 1 -1.1104 1.06354 14.1919 6.68687
115 1 -1.1104 6.7567 14.1495 3.97349
110 1 -1.1104 6.68068 14.2805 1.10724
122 1 -1.1104 6.70935 16.9885 3.85842
139 1 -1.1104 6.60549 19.8541 3.97453
290 1 -1.1104 6.76211 14.1711 9.48471
329 1 -1.1104 12.3012 19.7616 12.2743
8846 2 2.2208 5.34547 -3.96438 10.8246
124 1 -1.1104 3.85343 14.1837 6.65167
117 1 -1.1104 1.07164 16.9789 6.63107
112 1 -1.1104 6.68504 19.7832 6.74097
140 1 -1.1104 6.75392 17.086 1.1105
138 1 -1.1104 6.74786 19.8467 1.21449
141 2 2.2208 10.8349 18.3998 5.33375
142 1 -1.1104 12.2108 14.2205 1.24945
144 1 -1.1104 12.1734 19.8401 1.02387
146 1 -1.1104 12.344 14.1541 3.94535
147 1 -1.1104 12.2819 19.7983 3.86569
148 1 -1.1104 12.3198 17.0694 1.09067
150 2 2.2208 10.9226 15.6112 2.52527
151 2 2.2208 10.847 21.2613 2.42527
152 1 -1.1104 12.2987 17.0668 3.93257
153 1 -1.1104 9.43728 14.1694 1.0885
155 1 -1.1104 9.48405 19.7561 1.00664
157 2 2.2208 8.10729 18.3726 2.50129
158 1 -1.1104 9.46289 14.3013 3.77987
159 1 -1.1104 9.39483 19.883 3.87583
160 2 2.2208 8.13398 15.6317 5.29772
161 2 2.2208 8.07095 21.2663 5.24923
162 1 -1.1104 9.48905 16.9478 1.07934
164 1 -1.1104 9.4773 17.0217 3.88878
154 1 -1.1104 9.54466 14.1341 6.60695
321 1 -1.1104 9.50537 19.6837 12.1927
156 1 -1.1104 9.44188 19.8642 6.71748
145 1 -1.1104 12.172 19.8346 6.611
360 2 2.2208 10.9267 21.1437 13.642
172 1 -1.1104 4.00873 -2.59521 6.58818
174 1 -1.1104 3.946 0.182161 6.72521
166 1 -1.1104 1.1563 -2.61575 6.65583
358 2 2.2208 5.35793 21.1968 13.7018
168 1 -1.1104 6.68293 -2.65365 6.78845
370 2 2.2208 8.14534 -1.29408 -0.288896
313 2 2.2208 -0.23574 15.6268 8.08463
381 2 2.2208 5.28772 12.8683 -0.272746
170 1 -1.1104 1.14344 0.218834 6.70913
175 2 2.2208 5.27987 1.54661 10.9207
176 1 -1.1104 1.08474 -2.54804 12.3402
177 1 -1.1104 1.04245 3.05807 12.2972
180 1 -1.1104 1.18316 -2.58711 9.39645
181 1 -1.1104 1.1704 3.01007 9.54771
184 1 -1.1104 1.08345 0.294639 12.2902
186 2 2.2208 5.33075 -1.26721 8.12022
187 2 2.2208 5.25783 4.33077 8.06599
188 1 -1.1104 1.12622 0.260562 9.47309
190 1 -1.1104 3.91371 -2.54275 12.2983
191 1 -1.1104 3.82156 2.96302 12.2666
192 2 2.2208 2.46186 1.60342 8.1184
193 1 -1.1104 3.97385 -2.48508 9.45562
194 1 -1.1104 3.88231 2.97409 9.4354
195 2 2.2208 2.46799 -1.13835 10.8423
196 2 2.2208 2.51548 4.42856 10.8506
197 1 -1.1104 3.90866 0.160784 12.2685
198 1 -1.1104 3.89844 0.28514 9.46866
203 2 2.2208 13.6495 4.42595 10.8495
328 1 -1.1104 12.232 14.2124 9.42508
183 1 -1.1104 6.69563 2.90728 9.44662
165 2 2.2208 13.5679 18.4302 2.58029
209 1 -1.1104 9.42924 2.91831 6.53586
206 1 -1.1104 12.2702 3.03357 6.65333
169 1 -1.1104 6.66265 2.96747 6.68064
207 1 -1.1104 12.2628 0.247968 6.71225
210 1 -1.1104 9.47049 0.181627 6.68852
205 1 -1.1104 12.2546 -2.64325 6.66816
325 2 2.2208 10.9322 15.6099 8.06964
178 1 -1.1104 6.65197 -2.68763 12.2488
179 1 -1.1104 6.75622 2.90219 12.2139
171 1 -1.1104 6.6554 0.214038 6.61389
182 1 -1.1104 6.75187 -2.59213 9.55848
208 1 -1.1104 9.55603 -2.53274 6.61841
185 1 -1.1104 6.70702 0.15498 12.383
189 1 -1.1104 6.60405 0.174268 9.56296
211 2 2.2208 10.891 1.64477 10.8949
212 1 -1.1104 12.2658 -2.5472 12.2895
213 1 -1.1104 12.1698 2.93463 12.2681
214 1 -1.1104 12.2886 -2.62882 9.40649
215 1 -1.1104 12.3082 2.99265 9.38136
216 1 -1.1104 12.3714 0.189811 12.3451
217 2 2.2208 10.8922 -1.25247 8.03603
218 2 2.2208 10.8953 4.37098 8.04524
219 1 -1.1104 12.2276 0.138801 9.49979
220 1 -1.1104 9.50718 -2.62802 12.2793
221 1 -1.1104 9.46775 3.01406 12.3685
222 2 2.2208 7.98806 1.59488 8.02417
223 1 -1.1104 9.48771 -2.60547 9.48459
224 1 -1.1104 9.45524 3.07157 9.45724
225 2 2.2208 8.08503 -1.17323 10.9066
226 2 2.2208 8.08435 4.30278 10.8467
227 1 -1.1104 9.43909 0.231713 12.2535
228 1 -1.1104 9.3995 0.260307 9.49669
200 2 2.2208 -0.252075 -1.16248 8.03232
240 2 2.2208 5.29662 7.23777 10.8961
241 2 2.2208 5.30073 12.8021 10.8018
242 1 -1.1104 1.19425 8.50282 12.2662
244 1 -1.1104 1.00564 8.55907 9.43256
246 1 -1.1104 1.01003 5.82628 12.2753
247 1 -1.1104 1.00029 11.4077 12.2627
250 2 2.2208 5.22436 10.0471 8.08082
251 1 -1.1104 1.12751 5.85571 9.52001
252 1 -1.1104 1.01799 11.3888 9.48038
255 1 -1.1104 3.9816 8.69247 12.3099
256 2 2.2208 2.52277 7.20034 8.02863
257 2 2.2208 2.47628 12.7974 8.00054
258 1 -1.1104 3.85271 8.6174 9.47857
259 2 2.2208 2.47519 10.018 10.8146
260 1 -1.1104 3.77193 5.74592 12.2452
261 1 -1.1104 4.00345 11.4907 12.3525
262 1 -1.1104 3.87146 5.80498 9.45398
263 1 -1.1104 3.89698 11.4165 9.58281
243 1 -1.1104 6.7166 8.64065 12.3009
249 1 -1.1104 6.78219 11.4489 12.3609
254 1 -1.1104 6.64831 11.273 9.55647
248 1 -1.1104 6.66748 5.79136 12.2507
324 2 2.2208 10.8597 21.2273 8.04924
316 2 2.2208 8.09333 21.1616 10.8085
90 1 -1.1104 12.4347 11.506 6.57419
269 1 -1.1104 9.49431 5.77771 6.63245
235 1 -1.1104 6.74037 8.67631 6.72251
266 1 -1.1104 12.3157 5.8063 6.70918
65 1 -1.1104 6.6138 11.4546 6.75546
101 1 -1.1104 9.54464 11.4257 6.62885
245 1 -1.1104 6.63723 8.57142 9.42417
253 1 -1.1104 6.62089 5.76849 9.56777
264 1 -1.1104 9.51318 11.3777 9.43174
268 1 -1.1104 9.45254 5.79428 9.44125
270 1 -1.1104 9.57242 11.3595 12.2804
271 1 -1.1104 9.49128 5.87937 12.2861
272 2 2.2208 8.13494 9.97278 10.9147
273 1 -1.1104 9.60867 8.6542 9.38861
274 2 2.2208 8.1534 12.7697 7.99916
275 2 2.2208 8.11874 7.24958 8.08671
276 2 2.2208 10.8651 7.19536 10.8865
277 2 2.2208 10.8719 12.8174 10.8425
278 1 -1.1104 12.2504 8.56306 12.2883
279 1 -1.1104 12.3778 8.58305 9.53933
280 1 -1.1104 12.2746 5.71105 12.2909
281 1 -1.1104 12.3286 11.3886 12.0553
282 2 2.2208 10.9567 10.0695 8.0136
283 1 -1.1104 12.2841 5.76978 9.50613
284 1 -1.1104 12.3499 11.4321 9.30907
285 1 -1.1104 9.43999 8.66654 12.2624
231 2 2.2208 13.6192 21.2636 5.31095
319 1 -1.1104 9.48865 14.1691 9.46748
118 1 -1.1104 6.70877 16.9143 6.66964
111 1 -1.1104 6.7462 14.2765 6.65392
306 1 -1.1104 6.65924 17.0216 12.2778
296 1 -1.1104 6.7184 19.8637 12.3583
288 1 -1.1104 6.67233 19.7291 9.48047
302 1 -1.1104 1.02843 19.8244 6.71974
289 1 -1.1104 6.7789 16.9409 9.37847
133 1 -1.1104 3.95387 17.0531 6.77876
304 1 -1.1104 3.98815 17.0308 9.51831
298 1 -1.1104 1.08593 19.9883 12.3353
301 1 -1.1104 3.94361 19.7928 9.46689
293 2 2.2208 5.30808 21.1817 8.0216
287 1 -1.1104 3.84323 14.1815 12.1246
292 1 -1.1104 1.11856 17.0196 9.48219
300 2 2.2208 5.3442 18.4399 10.8835
286 1 -1.1104 3.91927 19.7412 12.3282
291 1 -1.1104 1.15579 19.7946 9.48645
299 1 -1.1104 1.01535 14.2338 12.3086
303 2 2.2208 2.49839 18.3842 8.10238
295 2 2.2208 5.32682 15.6775 8.05261
305 1 -1.1104 3.92962 14.1723 9.34745
310 2 2.2208 2.54869 15.6248 10.8342
309 2 2.2208 2.43673 21.2223 10.9126
308 1 -1.1104 3.87767 16.9806 12.222
307 1 -1.1104 1.05231 17.1053 12.2
294 1 -1.1104 1.20946 14.1988 9.45199
297 1 -1.1104 6.62181 14.2896 12.2695
387 2 2.2208 13.6422 9.99798 -0.310305
323 1 -1.1104 12.2619 16.9075 9.48736
136 2 2.2208 -0.287609 21.2912 2.48743
143 1 -1.1104 12.4071 14.2316 6.59376
314 1 -1.1104 9.44236 17.1026 9.52126
330 1 -1.1104 12.3049 14.1678 12.281
327 1 -1.1104 12.3073 19.7945 9.45309
326 1 -1.1104 12.3077 17.0282 12.2564
163 1 -1.1104 9.50282 17.0668 6.73425
149 1 -1.1104 12.2341 17.0161 6.72863
318 1 -1.1104 9.51282 19.7923 9.40858
317 2 2.2208 8.07275 15.5658 10.879
51 2 2.2208 -0.340782 12.8005 10.84
315 1 -1.1104 9.46185 16.8511 12.2631
368 2 2.2208 -0.322324 1.56857 -0.336971
201 2 2.2208 -0.315709 1.62769 10.8771
345 2 2.2208 13.6316 21.2372 -0.20459
335 2 2.2208 -0.311203 21.2144 13.6135
312 2 2.2208 -0.233977 18.4879 10.9011
386 2 2.2208 10.8397 12.8975 -0.283908
30 2 2.2208 -0.348621 9.99762 8.04885
229 2 2.2208 13.6745 1.60497 8.04133
81 2 2.2208 -0.274317 7.22265 5.24921
29 2 2.2208 -0.283501 7.24362 10.8973
204 2 2.2208 13.7261 15.6001 5.2971
202 2 2.2208 13.6098 7.14767 8.06105
25 2 2.2208 -0.250811 -1.19339 2.51923
359 2 2.2208 5.22813 15.6285 13.7044
8860 2 2.2208 -0.352359 -3.99327 -0.394986
351 2 2.2208 2.55922 7.20772 13.6518
379 2 2.2208 5.30187 7.25718 -0.29189
349 2 2.2208 8.14395 21.1869 -0.34568
346 2 2.2208 10.7972 -1.16396 13.6872
384 2 2.2208 10.959 7.27403 -0.366142
334 2 2.2208 -0.319585 -1.06718 13.6795
336 2 2.2208 13.6981 7.31552 13.7149
348 2 2.2208 10.8485 18.3338 -0.32207
342 2 2.2208 -0.329497 15.6666 13.6088
376 2 2.2208 13.6557 12.7886 13.6427
374 2 2.2208 5.3552 18.4037 -0.254862
375 2 2.2208 2.47081 21.1882 -0.288277
367 2 2.2208 -0.258214 9.98352 13.6039
388 2 2.2208 5.18566 1.65081 16.5537
389 1 -1.1104 1.00627 -2.57259 17.8969
390 1 -1.1104 0.992571 3.09016 17.9416
393 1 -1.1104 1.09655 -2.54497 15.1097
395 1 -1.1104 1.14387 3.0746 15.2253
401 1 -1.1104 1.03682 0.259667 17.8645
403 2 2.2208 5.18641 -1.16898 19.3156
404 2 2.2208 5.21191 4.43207 19.2602
405 1 -1.1104 0.988274 0.17276 15.0755
409 1 -1.1104 3.78698 -2.70897 17.8697
410 1 -1.1104 3.77626 3.02599 17.8759
411 2 2.2208 2.36107 1.60613 19.2893
412 1 -1.1104 3.91437 -2.5716 15.1591
414 1 -1.1104 3.90386 3.08778 15.023
416 2 2.2208 2.44391 -1.22856 16.4785
417 2 2.2208 2.452 4.50366 16.5041
418 1 -1.1104 3.83064 0.18598 17.8041
419 1 -1.1104 3.7851 0.214053 15.0904
391 1 -1.1104 6.60972 -2.60684 17.8437
407 1 -1.1104 6.57699 0.27486 15.1477
396 1 -1.1104 1.01018 3.04668 20.7219
413 1 -1.1104 3.8598 -2.54471 20.7009
397 1 -1.1104 6.66614 -2.59875 15.0385
353 2 2.2208 2.51606 12.7426 13.6633
402 1 -1.1104 6.64771 0.185846 18.0005
415 1 -1.1104 3.79413 3.07479 20.6465
406 1 -1.1104 1.00588 0.297522 20.7186
400 1 -1.1104 6.63272 2.97863 20.6948
8943 2 2.2208 8.0417 -3.92348 19.2581
356 2 2.2208 8.03761 12.8334 13.7082
8974 2 2.2208 5.29641 -4.02594 16.4843
646 2 2.2208 -0.340499 15.6455 24.7697
399 1 -1.1104 6.66787 3.03811 15.0581
392 1 -1.1104 6.57529 2.99934 17.8525
431 2 2.2208 10.8371 1.69891 16.5116
432 1 -1.1104 12.1272 -2.54216 17.8798
433 1 -1.1104 12.3108 3.18227 17.8623
434 1 -1.1104 12.2884 -2.65016 15.0172
436 1 -1.1104 12.2296 3.04643 15.093
438 1 -1.1104 12.1174 0.249857 17.8766
439 2 2.2208 10.8117 -1.21175 19.2631
440 2 2.2208 10.7642 4.44818 19.2846
441 1 -1.1104 12.2853 0.171641 15.0691
443 1 -1.1104 9.38766 -2.72007 17.8728
444 1 -1.1104 9.39929 2.91936 17.8544
445 2 2.2208 7.9767 1.55442 19.3583
446 1 -1.1104 9.37427 -2.51256 15.0474
448 1 -1.1104 9.46435 3.05092 15.2201
450 2 2.2208 8.02903 -1.15337 16.4587
451 2 2.2208 8.01879 4.37595 16.5304
452 1 -1.1104 9.43904 0.0924043 17.8602
453 1 -1.1104 9.5212 0.217892 15.0391
449 1 -1.1104 9.46647 2.95706 20.6734
442 1 -1.1104 12.3037 0.181658 20.5471
454 1 -1.1104 9.46155 0.219562 20.5827
425 2 2.2208 -0.345186 -1.19219 19.3459
354 2 2.2208 8.11167 7.28707 13.7186
437 1 -1.1104 12.2687 3.01565 20.6698
338 2 2.2208 5.27931 -1.21409 13.7082
427 2 2.2208 -0.340787 4.48075 19.286
651 2 2.2208 13.6352 7.15699 19.2797
621 2 2.2208 -0.322836 7.25644 16.445
648 2 2.2208 -0.352127 12.7741 16.4455
622 2 2.2208 -0.400005 10.0939 19.1578
464 2 2.2208 5.31881 7.3256 16.5079
465 2 2.2208 5.28974 12.8125 16.5575
466 1 -1.1104 1.02702 8.67391 17.8925
468 1 -1.1104 1.09145 8.71762 15.0455
472 1 -1.1104 1.18009 5.84432 17.8434
473 1 -1.1104 1.05792 11.3553 17.7679
476 2 2.2208 5.26836 10.0358 19.3583
477 1 -1.1104 1.11863 5.8703 15.0746
479 1 -1.1104 1.10049 11.4921 15.0943
485 1 -1.1104 3.81777 8.65391 17.9254
486 2 2.2208 2.44993 7.19064 19.3361
487 2 2.2208 2.42696 12.8474 19.2195
488 1 -1.1104 3.83159 8.67227 15.0905
490 2 2.2208 2.48987 10.0188 16.5384
491 1 -1.1104 3.86176 5.85513 17.9497
492 1 -1.1104 3.8443 11.5388 17.9405
493 1 -1.1104 3.93842 5.89587 15.114
495 1 -1.1104 3.85746 11.4038 15.1829
474 1 -1.1104 6.6069 5.85492 17.8835
489 1 -1.1104 3.95184 8.71692 20.8132
480 1 -1.1104 0.985512 11.4076 20.684
475 1 -1.1104 6.6509 11.4097 17.9424
470 1 -1.1104 6.71332 8.65995 15.1076
494 1 -1.1104 3.95653 5.88316 20.6111
469 1 -1.1104 1.10557 8.67984 20.6565
589 1 -1.1104 9.44022 14.1664 26.2771
357 2 2.2208 2.50805 18.4623 13.7078
483 1 -1.1104 6.54595 11.4405 15.2048
481 1 -1.1104 6.62692 5.85582 15.0454
467 1 -1.1104 6.80469 8.60053 17.91
500 2 2.2208 10.8609 7.23456 16.4465
501 2 2.2208 10.8599 12.7839 16.4549
502 1 -1.1104 12.2827 8.54512 17.8277
503 1 -1.1104 12.3264 8.63039 15.0984
505 1 -1.1104 12.1287 5.78962 17.9064
506 1 -1.1104 12.3248 11.338 17.8747
507 2 2.2208 10.8701 9.9821 19.3018
508 1 -1.1104 12.2499 5.79996 15.1481
510 1 -1.1104 12.1836 11.3809 15.0615
512 1 -1.1104 9.48554 8.66006 17.8336
513 2 2.2208 8.13777 7.19601 19.2633
514 2 2.2208 8.02793 12.7114 19.3701
515 1 -1.1104 9.53301 8.7953 15.0772
517 2 2.2208 8.14761 10.0535 16.4121
518 1 -1.1104 9.37015 5.82851 17.9074
519 1 -1.1104 9.46775 11.4196 17.9573
520 1 -1.1104 9.43402 5.86721 15.084
522 1 -1.1104 9.43916 11.4957 15.0546
511 1 -1.1104 12.2148 11.2795 20.6016
521 1 -1.1104 9.42685 5.75517 20.7851
504 1 -1.1104 12.253 8.58275 20.704
523 1 -1.1104 9.46125 11.312 20.7244
423 2 2.2208 13.7921 4.40231 21.9382
525 2 2.2208 10.8637 15.5513 24.8805
680 1 -1.1104 6.745 16.9242 23.5458
429 2 2.2208 13.6368 4.44838 16.4801
590 1 -1.1104 9.5145 19.8433 26.2947
527 2 2.2208 5.35018 18.3904 16.5456
528 1 -1.1104 1.05296 14.2678 17.8779
529 1 -1.1104 1.03918 19.7507 17.9087
532 1 -1.1104 1.12794 14.2138 15.0619
534 1 -1.1104 1.06398 19.7996 15.0174
540 1 -1.1104 1.01753 17.0004 17.8178
542 2 2.2208 5.29006 15.5612 19.3501
543 2 2.2208 5.21196 21.1133 19.3767
544 1 -1.1104 1.12345 16.9873 15.0161
548 1 -1.1104 3.84846 14.3303 17.8884
549 1 -1.1104 3.80227 19.7835 17.9007
550 2 2.2208 2.40254 18.3142 19.2359
551 1 -1.1104 3.92903 14.1717 14.9345
553 1 -1.1104 3.92753 19.8062 15.0412
555 2 2.2208 2.51094 15.6351 16.4066
556 2 2.2208 2.4877 21.1472 16.3923
557 1 -1.1104 3.8336 16.9999 17.8127
558 1 -1.1104 3.9025 17.0935 15.106
561 1 -1.1104 9.46946 14.1211 23.4658
554 1 -1.1104 3.82159 19.6494 20.7647
536 1 -1.1104 6.73815 14.2223 15.0589
530 1 -1.1104 6.71751 14.1246 17.9012
541 1 -1.1104 6.67851 16.9346 17.9524
538 1 -1.1104 6.7656 19.8673 15.152
547 1 -1.1104 6.67378 17.0262 20.7207
552 1 -1.1104 3.80459 14.1762 20.696
616 2 2.2208 8.00827 21.2426 22.1124
579 1 -1.1104 9.50701 14.1463 20.6797
546 1 -1.1104 6.62054 16.9832 15.0659
531 1 -1.1104 6.64053 19.7685 17.9344
563 2 2.2208 10.8674 18.4457 16.4315
564 1 -1.1104 12.2704 14.1865 17.8876
565 1 -1.1104 12.2173 19.7998 17.8507
566 1 -1.1104 12.3837 14.1676 15.1172
568 1 -1.1104 12.2822 19.7771 15.004
570 1 -1.1104 12.2385 16.9574 17.8444
571 2 2.2208 10.885 15.5558 19.2327
572 2 2.2208 10.8361 21.1885 19.2338
573 1 -1.1104 12.3945 16.9645 15.1031
575 1 -1.1104 9.48288 14.2673 17.87
576 1 -1.1104 9.44698 19.8363 17.7679
577 2 2.2208 8.0756 18.3744 19.3272
578 1 -1.1104 9.59572 14.2993 15.1117
580 1 -1.1104 9.46997 19.8597 15.0804
582 2 2.2208 8.1174 15.747 16.5145
583 2 2.2208 8.053 21.2504 16.5362
584 1 -1.1104 9.43194 17.1326 18.03
585 1 -1.1104 9.43335 17.061 15.1412
537 1 -1.1104 6.6137 14.2149 20.6439
539 1 -1.1104 6.70132 19.7976 20.6648
497 1 -1.1104 12.3604 19.6946 23.5348
581 1 -1.1104 9.42282 19.8394 20.6223
569 1 -1.1104 12.1017 19.8319 20.7867
567 1 -1.1104 12.2448 14.1087 20.7557
337 2 2.2208 -0.267579 4.44276 13.7343
712 1 -1.1104 6.57851 14.0956 26.192
420 1 -1.1104 3.87315 0.236571 20.6357
394 1 -1.1104 1.12202 -2.50693 20.6231
461 2 2.2208 13.6244 21.167 22.115
398 1 -1.1104 6.63465 -2.538 20.6482
618 2 2.2208 13.6319 18.4421 19.2782
626 2 2.2208 -0.316064 4.39666 24.7958
355 2 2.2208 10.8356 10.0386 13.6397
591 2 2.2208 5.20972 1.63276 22.0591
592 1 -1.1104 1.01875 -2.56556 23.4743
593 1 -1.1104 0.995003 2.99149 23.4491
596 1 -1.1104 1.13248 -2.61764 26.1822
597 1 -1.1104 1.06611 2.98303 26.2454
600 1 -1.1104 0.923914 0.229347 23.5156
602 2 2.2208 5.35353 -1.17881 24.7702
603 2 2.2208 5.27696 4.4588 24.8962
604 1 -1.1104 1.06556 0.0878235 26.2779
606 1 -1.1104 3.92387 -2.4971 23.4359
607 1 -1.1104 3.90849 3.04134 23.5378
608 2 2.2208 2.48691 1.56095 24.8697
609 1 -1.1104 3.85605 -2.60119 26.2054
610 1 -1.1104 3.88466 2.96805 26.296
611 2 2.2208 2.45034 -1.16684 22.1179
612 2 2.2208 2.49602 4.38261 22.1393
613 1 -1.1104 3.84276 0.316961 23.4434
614 1 -1.1104 3.85356 0.138652 26.1836
428 2 2.2208 13.6092 1.58649 19.2483
601 1 -1.1104 6.64874 0.320935 23.4005
615 2 2.2208 8.04834 15.5587 22.1374
587 2 2.2208 8.02066 18.444 24.8966
458 2 2.2208 -0.275692 21.2041 19.2499
605 1 -1.1104 6.62594 0.0814351 26.2377
598 1 -1.1104 6.71606 -2.63739 26.3242
599 1 -1.1104 6.74271 2.99166 26.2493
447 1 -1.1104 9.45013 -2.57989 20.8431
408 1 -1.1104 6.73607 0.162452 20.7978
435 1 -1.1104 12.2858 -2.60185 20.6668
594 1 -1.1104 6.70154 -2.63094 23.496
595 1 -1.1104 6.75686 3.04257 23.4499
627 2 2.2208 10.8386 1.67256 22.0181
628 1 -1.1104 12.3762 -2.45942 23.4316
629 1 -1.1104 12.2739 3.10676 23.5287
630 1 -1.1104 12.285 -2.65345 26.2113
631 1 -1.1104 12.2238 3.02359 26.2648
632 1 -1.1104 12.1965 0.31386 23.4347
633 2 2.2208 10.9383 -1.22554 24.9199
634 2 2.2208 10.8571 4.39681 24.8656
635 1 -1.1104 12.3631 0.276583 26.1733
636 1 -1.1104 9.48349 -2.53912 23.645
637 1 -1.1104 9.39107 2.97983 23.4606
638 2 2.2208 8.12158 1.63125 24.8936
639 1 -1.1104 9.52529 -2.65069 26.333
640 1 -1.1104 9.51177 3.01645 26.2808
641 2 2.2208 8.05241 -1.24075 22.128
642 2 2.2208 8.05708 4.31996 22.1144
643 1 -1.1104 9.40166 0.211632 23.5379
644 1 -1.1104 9.49914 0.111048 26.2829
588 1 -1.1104 6.66813 19.7807 26.3384
650 2 2.2208 13.6372 12.7102 19.3101
617 1 -1.1104 9.49296 17.0452 23.4887
526 2 2.2208 10.9384 21.1361 24.8273
421 2 2.2208 -0.290471 7.28904 21.9471
478 1 -1.1104 1.10877 5.77997 20.6875
496 1 -1.1104 3.91183 11.3412 20.7529
685 2 2.2208 -0.347094 12.8259 21.9864
684 2 2.2208 -0.312556 10.0263 24.7714
656 2 2.2208 5.2435 7.23911 22.0608
657 2 2.2208 5.25607 12.8282 22.0543
658 1 -1.1104 1.05453 8.60049 23.2946
660 1 -1.1104 1.07312 8.71204 26.256
662 1 -1.1104 1.06378 5.88639 23.4122
663 1 -1.1104 1.0619 11.357 23.4561
666 2 2.2208 5.29436 9.9793 24.922
667 1 -1.1104 1.02764 5.74844 26.2176
668 1 -1.1104 1.07538 11.4069 26.2074
671 1 -1.1104 3.8363 8.63188 23.5456
672 2 2.2208 2.50787 7.2018 24.8035
673 2 2.2208 2.3751 12.8184 24.9154
674 1 -1.1104 3.86022 8.56128 26.2829
675 2 2.2208 2.49846 10.1107 22.0548
676 1 -1.1104 3.86627 5.76264 23.4276
677 1 -1.1104 3.9312 11.3905 23.577
678 1 -1.1104 3.79733 5.70613 26.2116
679 1 -1.1104 3.98175 11.3689 26.4076
659 1 -1.1104 6.76577 8.60018 23.5661
665 1 -1.1104 6.67522 11.431 23.4317
661 1 -1.1104 6.57794 8.56468 26.2602
380 2 2.2208 2.51299 10.0422 27.6422
8975 2 2.2208 -0.308111 -3.96385 16.4763
350 2 2.2208 10.8133 4.47534 13.743
484 1 -1.1104 6.67666 11.4152 20.7345
482 1 -1.1104 6.7025 5.78849 20.7404
664 1 -1.1104 6.6248 5.75868 23.5191
516 1 -1.1104 9.52238 8.5572 20.6074
509 1 -1.1104 12.1902 5.81573 20.7132
471 1 -1.1104 6.73131 8.54211 20.7934
669 1 -1.1104 6.67058 5.76105 26.3388
670 1 -1.1104 6.80022 11.2928 26.2181
687 1 -1.1104 9.42947 11.4422 26.2924
688 1 -1.1104 9.5203 5.82706 26.2612
689 1 -1.1104 9.43 11.4143 23.4989
690 1 -1.1104 9.41725 5.86898 23.6007
691 2 2.2208 8.04194 9.95845 22.1671
692 1 -1.1104 9.50141 8.67836 26.3321
693 2 2.2208 7.99111 12.7549 24.8159
694 2 2.2208 8.1294 7.25764 24.9645
695 2 2.2208 10.846 7.15342 22.1057
696 2 2.2208 10.8711 12.7594 22.1054
697 1 -1.1104 12.3159 8.55351 23.4889
698 1 -1.1104 12.328 8.65904 26.2146
699 1 -1.1104 12.3259 5.7859 23.4163
700 1 -1.1104 12.3847 11.3582 23.4474
701 2 2.2208 10.927 10.0888 24.8608
702 1 -1.1104 12.3068 5.79425 26.2745
703 1 -1.1104 12.3224 11.5028 26.2128
704 1 -1.1104 9.59509 8.74088 23.4841
709 1 -1.1104 6.68373 14.1363 23.4014
586 1 -1.1104 9.49252 16.8726 20.6821
535 1 -1.1104 1.14353 19.824 20.6829
559 1 -1.1104 3.83558 16.9336 20.6542
545 1 -1.1104 0.905024 16.9918 20.5994
533 1 -1.1104 0.974593 14.2677 20.6469
462 2 2.2208 10.9036 18.4102 22.1366
647 2 2.2208 2.43492 15.5778 22.0102
649 2 2.2208 2.40583 21.2808 22.0762
652 1 -1.1104 3.89892 16.9391 23.3813
655 1 -1.1104 0.994596 17.0021 23.42
681 1 -1.1104 3.81334 14.1499 26.3217
682 1 -1.1104 3.79902 16.9569 26.2295
683 2 2.2208 2.39531 18.3854 24.8785
686 1 -1.1104 3.953 19.7499 26.382
705 2 2.2208 5.26705 18.3711 22.0874
706 1 -1.1104 1.04345 14.2362 23.4264
707 1 -1.1104 1.02596 19.7865 23.5612
711 1 -1.1104 3.83069 19.7304 23.5543
713 1 -1.1104 3.85864 14.1877 23.3784
715 1 -1.1104 1.09874 19.8183 26.3148
716 1 -1.1104 1.06882 16.9061 26.1718
717 1 -1.1104 1.01419 14.2139 26.2383
719 2 2.2208 5.24561 21.1948 24.9149
720 2 2.2208 5.18472 15.5827 24.8564
718 1 -1.1104 6.62716 19.8114 23.5129
463 1 -1.1104 12.255 14.1652 23.4505
524 1 -1.1104 12.2722 16.958 23.5748
574 1 -1.1104 12.2996 16.9456 20.6732
653 2 2.2208 13.5728 -1.16312 22.0283
560 1 -1.1104 12.186 16.9462 26.286
499 1 -1.1104 12.282 19.7449 26.2878
498 1 -1.1104 12.3623 14.2224 26.4287
562 1 -1.1104 9.43619 19.7883 23.473
620 1 -1.1104 9.38479 16.9457 26.2323
714 1 -1.1104 6.59225 16.9801 26.2595
372 2 2.2208 8.05301 4.42073 27.6722
361 2 2.2208 10.9342 15.6074 13.6516
373 2 2.2208 2.43065 15.568 27.6778
365 2 2.2208 2.49117 -1.22078 27.6276
383 2 2.2208 -0.253944 7.18125 27.6403
339 2 2.2208 2.43515 1.64752 13.8154
352 2 2.2208 5.33352 10.0829 13.6654
341 2 2.2208 5.32419 4.44017 13.6955
347 2 2.2208 8.03677 15.5053 27.6354
343 2 2.2208 8.09727 1.6114 13.7587
340 2 2.2208 13.6374 1.65523 13.6959
721 2 2.2208 5.21119 24.0082 5.28003
722 2 2.2208 5.27138 29.6102 5.13457
723 1 -1.1104 1.17636 25.3624 1.17138
724 1 -1.1104 1.04256 25.4055 3.80618
725 1 -1.1104 1.04583 22.6039 1.10095
726 1 -1.1104 1.17568 28.2308 1.0677
727 2 2.2208 5.37445 26.7774 2.51046
728 1 -1.1104 1.03693 22.6469 3.90934
729 1 -1.1104 1.04969 28.2169 3.81532
730 1 -1.1104 3.99467 25.2632 1.08705
731 2 2.2208 2.57708 23.9377 2.45444
732 2 2.2208 2.5103 29.6695 2.4111
733 1 -1.1104 3.88888 25.4424 3.8539
734 2 2.2208 2.46289 26.8133 5.181
735 1 -1.1104 3.87672 22.5719 1.19008
736 1 -1.1104 3.97896 28.1378 1.00682
737 1 -1.1104 3.83627 22.564 3.9749
738 1 -1.1104 3.81184 28.2537 3.85076
870 1 -1.1104 3.86661 28.2079 6.59457
986 1 -1.1104 6.60494 42.1832 6.70552
743 1 -1.1104 6.53313 25.3757 3.8969
868 1 -1.1104 3.78458 25.457 6.55758
869 1 -1.1104 3.86877 22.6368 6.72377
745 1 -1.1104 6.69852 28.262 1.03899
747 1 -1.1104 6.72656 28.176 3.88649
746 1 -1.1104 6.62377 22.6565 3.91998
742 1 -1.1104 6.8128 25.4402 1.0855
867 1 -1.1104 6.62154 28.2674 6.64401
862 1 -1.1104 1.02318 25.3824 6.59808
866 1 -1.1104 6.64393 22.6494 6.68015
1403 1 -1.1104 0.96555 47.7653 3.80914
863 1 -1.1104 6.64745 25.4247 6.70689
744 1 -1.1104 6.668 22.6215 1.04489
748 2 2.2208 10.8987 23.9649 5.23861
749 2 2.2208 10.8861 29.6176 5.2551
750 1 -1.1104 12.238 25.3451 1.04423
751 1 -1.1104 12.304 25.3052 3.85445
752 1 -1.1104 12.3369 22.6442 1.19875
753 1 -1.1104 12.2376 28.1672 1.03701
754 2 2.2208 10.898 26.7538 2.45226
755 1 -1.1104 12.3386 22.6176 3.9116
756 1 -1.1104 12.2981 28.1446 3.79235
757 1 -1.1104 9.45636 25.3414 1.06799
758 2 2.2208 8.08356 24.0079 2.46329
759 2 2.2208 8.09097 29.5876 2.52498
760 1 -1.1104 9.38744 25.3543 3.82765
761 2 2.2208 8.11739 26.754 5.25198
762 1 -1.1104 9.3858 22.6431 1.01731
763 1 -1.1104 9.4918 28.1138 1.05425
764 1 -1.1104 9.48437 22.6169 3.79127
765 1 -1.1104 9.51358 28.0607 3.90965
1015 1 -1.1104 9.52929 42.1679 12.4812
895 1 -1.1104 12.1918 25.362 6.6499
900 1 -1.1104 9.4526 28.166 6.55061
1022 1 -1.1104 12.3457 45.0307 6.51789
1615 1 -1.1104 3.81899 47.8123 9.61648
1038 2 2.2208 -0.301668 29.5764 10.7744
1595 1 -1.1104 6.55392 47.8092 6.63963
740 2 2.2208 -0.264813 29.5802 5.25996
769 2 2.2208 5.22548 35.2096 5.26992
770 1 -1.1104 0.982468 30.9541 0.959742
771 1 -1.1104 1.01082 36.5195 0.905395
773 1 -1.1104 1.15554 30.9668 3.81807
774 1 -1.1104 0.955124 36.7173 3.72489
776 1 -1.1104 0.972511 33.7473 1.00999
777 2 2.2208 5.24668 32.5005 2.41114
778 2 2.2208 5.22266 37.958 2.47845
779 1 -1.1104 1.06029 33.8395 3.85919
781 1 -1.1104 3.81532 31.0319 1.02572
782 1 -1.1104 3.79557 36.5634 1.06725
783 2 2.2208 2.37653 35.2176 2.4564
784 1 -1.1104 3.84308 31.1226 3.7212
785 1 -1.1104 3.79477 36.5038 3.83576
786 2 2.2208 2.46588 32.4531 5.24278
787 2 2.2208 2.48534 38.0111 5.2132
788 1 -1.1104 3.74758 33.7918 0.995177
789 1 -1.1104 3.81208 33.7878 3.78817
925 1 -1.1104 3.82405 31.0245 6.58396
919 1 -1.1104 1.07417 31.0772 6.61582
920 1 -1.1104 1.11533 36.5036 6.52242
923 1 -1.1104 1.04518 33.7984 6.73006
927 1 -1.1104 3.80381 33.7993 6.60385
975 1 -1.1104 6.71067 45.0595 9.45678
1418 1 -1.1104 3.90694 47.7586 1.10807
793 1 -1.1104 6.66712 30.9589 1.04224
921 1 -1.1104 6.65189 30.9639 6.55649
772 1 -1.1104 6.64984 36.6109 1.05508
922 1 -1.1104 6.6905 36.4657 6.72109
1422 1 -1.1104 3.85954 47.7923 3.85558
1612 1 -1.1104 3.90667 47.7511 12.3264
840 2 2.2208 -0.302903 46.3502 5.22323
775 1 -1.1104 6.57433 36.5788 3.88704
795 1 -1.1104 6.59964 33.8836 1.08886
794 1 -1.1104 6.57984 31.024 3.80586
780 1 -1.1104 6.59171 33.82 3.82697
796 2 2.2208 10.9164 35.2395 5.38683
797 1 -1.1104 12.256 30.9543 1.09029
798 1 -1.1104 12.2731 36.5373 0.99719
799 1 -1.1104 12.2266 31.0329 3.904
800 1 -1.1104 12.1887 36.5457 3.7721
801 1 -1.1104 12.2558 33.7188 1.10924
802 2 2.2208 10.8616 32.4842 2.51945