ITEM: TIMESTEP
40000
ITEM: NUMBER OF ATOMS
17700
ITEM: BOX BOUNDS pp pp pp
-3.1923290651601982e-01 2.7659232906516287e+01
-3.9585175318603145e+00 3.3203851753186422e+02
-3.2107774229043540e-01 2.7661077742289674e+01
ITEM: ATOMS id type q x y z
1 2 2.2208 5.1987 1.73932 5.19514
2 1 -1.1104 0.994403 -2.41674 1.19591
3 1 -1.1104 1.08934 3.15644 1.06964
6 1 -1.1104 0.968945 -2.44231 3.95847
7 1 -1.1104 1.08998 3.09277 3.93238
10 1 -1.1104 1.06523 0.412659 1.03421
12 2 2.2208 5.28196 -1.05186 2.46627
13 2 2.2208 5.21344 4.56659 2.4833
14 1 -1.1104 1.11026 0.296861 3.77486
16 1 -1.1104 3.82116 -2.46288 1.06837
17 1 -1.1104 3.84798 3.14793 1.08839
18 2 2.2208 2.46722 1.65254 2.46376
19 1 -1.1104 3.82985 -2.42685 3.91187
20 1 -1.1104 3.75745 3.12936 3.76401
21 2 2.2208 2.38286 -1.12196 5.36339
22 2 2.2208 2.52037 4.53506 5.23068
23 1 -1.1104 3.92822 0.277901 1.07546
24 1 -1.1104 3.92082 0.321408 3.92055
11 1 -1.1104 6.68739 0.289627 1.13816
15 1 -1.1104 6.66917 0.321943 3.8377
9 1 -1.1104 6.61873 3.14269 3.91038
8 1 -1.1104 6.63349 -2.47037 3.91859
4 1 -1.1104 6.65479 -2.43953 1.08086
5 1 -1.1104 6.68115 3.13508 1.04841
169 1 -1.1104 6.67884 3.15293 6.67511
8844 2 2.2208 13.6384 -3.89111 2.53392
362 2 2.2208 7.99213 18.5089 13.6991
170 1 -1.1104 1.0539 0.310728 6.67496
375 2 2.2208 2.50695 21.3079 -0.296849
51 2 2.2208 -0.301631 12.981 10.934
31 2 2.2208 10.8383 1.68733 5.17917
32 1 -1.1104 12.2683 -2.55153 0.99765
33 1 -1.1104 12.3264 3.09502 1.03505
34 1 -1.1104 12.2721 -2.49068 3.79033
35 1 -1.1104 12.3192 3.04909 3.88984
36 1 -1.1104 12.3986 0.300165 0.93814
37 2 2.2208 10.8769 -1.05971 2.38985
38 2 2.2208 10.8652 4.53192 2.46334
39 1 -1.1104 12.2623 0.282203 3.73685
40 1 -1.1104 9.39527 -2.40279 1.1137
41 1 -1.1104 9.47365 3.1179 1.09228
42 2 2.2208 8.11572 1.71047 2.4467
43 1 -1.1104 9.50357 -2.41936 3.86112
44 1 -1.1104 9.50252 3.14129 3.92558
45 2 2.2208 8.08404 -1.06654 5.17553
46 2 2.2208 8.07809 4.57088 5.29393
47 1 -1.1104 9.56529 0.343956 0.928702
48 1 -1.1104 9.48568 0.430704 3.74838
49 2 2.2208 13.6476 1.71621 2.4761
209 1 -1.1104 9.46938 3.10452 6.60307
207 1 -1.1104 12.22 0.287725 6.66873
8840 2 2.2208 5.25201 -3.85905 5.26761
50 2 2.2208 13.611 -1.08081 5.30523
210 1 -1.1104 9.56174 0.26004 6.60245
208 1 -1.1104 9.36186 -2.47368 6.65855
8848 2 2.2208 8.09556 -3.83769 8.04196
8843 2 2.2208 10.8765 -3.87719 5.22273
374 2 2.2208 5.29233 18.6133 -0.284375
8847 2 2.2208 -0.256831 -3.89431 10.8842
54 2 2.2208 5.25516 7.31347 5.23247
55 2 2.2208 5.29028 12.9458 5.27116
56 1 -1.1104 1.12477 8.70594 1.10558
58 1 -1.1104 1.05181 8.75119 3.85971
60 1 -1.1104 1.06589 5.99186 1.05932
61 1 -1.1104 1.15096 11.4987 1.18024
66 2 2.2208 5.3281 10.07 2.56173
67 1 -1.1104 1.05085 5.91619 3.7691
68 1 -1.1104 1.15075 11.5752 3.96426
71 1 -1.1104 3.90735 8.68731 1.094
72 2 2.2208 2.43283 7.27843 2.36532
73 2 2.2208 2.54149 13.0263 2.50172
74 1 -1.1104 3.79709 8.75068 3.87111
75 2 2.2208 2.51687 10.1189 5.31751
76 1 -1.1104 3.94506 5.92896 0.937835
77 1 -1.1104 3.93911 11.4955 1.07579
79 1 -1.1104 3.78445 6.01937 3.76514
80 1 -1.1104 3.89379 11.5231 3.89384
57 1 -1.1104 6.71529 8.88361 1.13861
63 1 -1.1104 6.68446 5.98598 1.03853
64 1 -1.1104 6.60876 11.6585 1.10576
70 1 -1.1104 6.60829 11.5611 3.83936
239 1 -1.1104 3.91724 5.95188 6.62689
65 1 -1.1104 6.87596 11.5146 6.68451
363 2 2.2208 13.6085 18.5096 13.6254
364 2 2.2208 5.22622 1.75714 -0.291706
69 1 -1.1104 6.55722 5.87961 3.81895
59 1 -1.1104 6.7539 8.6747 3.8259
232 2 2.2208 13.6261 10.0758 5.23634
84 2 2.2208 10.8452 7.26999 5.22126
85 2 2.2208 10.9057 12.8598 5.26293
86 1 -1.1104 12.2161 8.73237 1.08005
87 1 -1.1104 12.1805 8.706 3.83553
88 1 -1.1104 12.3674 5.913 1.09808
89 1 -1.1104 12.3592 11.4863 1.07023
91 2 2.2208 10.8521 10.1473 2.38053
92 1 -1.1104 12.3182 5.94662 3.91526
93 1 -1.1104 12.1921 11.5553 3.79263
94 1 -1.1104 9.4222 8.73923 1.02432
95 2 2.2208 8.03583 7.3409 2.42432
96 2 2.2208 8.06062 12.9392 2.34495
97 1 -1.1104 9.35879 8.75787 3.9211
98 2 2.2208 8.09353 10.1139 5.28493
99 1 -1.1104 9.47347 5.93169 1.01142
100 1 -1.1104 9.46058 11.5115 1.00699
102 1 -1.1104 9.41399 5.92467 3.76495
103 1 -1.1104 9.48394 11.4794 3.85853
29 2 2.2208 -0.249621 7.27477 10.9481
104 2 2.2208 13.644 12.9201 2.45613
90 1 -1.1104 12.3146 11.4487 6.6735
266 1 -1.1104 12.239 5.79265 6.65625
265 1 -1.1104 12.2074 8.65567 6.66808
8839 2 2.2208 2.40439 -3.83436 2.46741
8845 2 2.2208 2.48563 -3.9393 8.11332
106 2 2.2208 5.31504 18.5222 5.21772
107 1 -1.1104 1.10094 14.2939 1.07685
109 1 -1.1104 1.04349 19.9298 1.1249
113 1 -1.1104 1.02275 14.3499 3.87229
114 1 -1.1104 1.18333 19.9988 3.90156
116 1 -1.1104 1.08728 17.2184 1.01772
119 2 2.2208 5.32108 15.7703 2.49373
120 2 2.2208 5.33554 21.3101 2.50797
121 1 -1.1104 1.169 17.1855 3.9238
123 1 -1.1104 3.8397 14.3036 1.20177
125 1 -1.1104 3.89466 19.9299 1.15462
127 2 2.2208 2.49806 18.5851 2.50854
128 1 -1.1104 3.93561 14.4065 3.90817
129 1 -1.1104 3.94708 19.9163 3.89098
130 2 2.2208 2.45279 15.6183 5.32438
131 2 2.2208 2.43579 21.3106 5.31798
132 1 -1.1104 3.87768 17.0844 1.0839
134 1 -1.1104 3.91948 17.1771 3.82452
115 1 -1.1104 6.72318 14.3417 3.86415
139 1 -1.1104 6.76672 19.9019 3.758
122 1 -1.1104 6.72706 17.0908 3.92113
108 1 -1.1104 1.02166 14.3467 6.74093
124 1 -1.1104 3.86684 14.1403 6.61158
138 1 -1.1104 6.77191 19.9632 1.04534
110 1 -1.1104 6.67843 14.4602 0.977018
231 2 2.2208 13.5952 21.3328 5.33214
140 1 -1.1104 6.70623 17.2176 1.09127
136 2 2.2208 -0.245189 21.241 2.45377
8842 2 2.2208 8.02512 -3.79333 2.45918
141 2 2.2208 10.9148 18.4317 5.31965
142 1 -1.1104 12.2883 14.3079 1.15468
144 1 -1.1104 12.411 19.7492 1.10732
146 1 -1.1104 12.2066 14.3167 3.94494
147 1 -1.1104 12.3649 19.9168 4.03177
148 1 -1.1104 12.3662 17.0719 1.10916
150 2 2.2208 10.8928 15.6416 2.54825
151 2 2.2208 10.9906 21.2025 2.51241
152 1 -1.1104 12.2222 17.1179 3.86647
153 1 -1.1104 9.54454 14.2497 1.18661
155 1 -1.1104 9.60119 19.7511 1.04449
157 2 2.2208 8.11801 18.5055 2.46862
158 1 -1.1104 9.40425 14.2884 3.91805
159 1 -1.1104 9.53537 19.9242 3.82051
160 2 2.2208 8.11981 15.6502 5.35616
161 2 2.2208 8.20393 21.1886 5.21088
162 1 -1.1104 9.56639 17.0134 1.16853
164 1 -1.1104 9.49333 17.0535 3.89819
8849 2 2.2208 10.8058 -3.82951 10.8309
143 1 -1.1104 12.2707 14.2458 6.74728
163 1 -1.1104 9.55734 16.9616 6.70391
154 1 -1.1104 9.6246 14.1894 6.76946
381 2 2.2208 5.17762 12.9831 -0.250288
348 2 2.2208 10.944 18.4387 -0.300961
230 2 2.2208 13.6027 -1.18079 10.8238
326 1 -1.1104 12.2352 17.0807 12.3158
322 1 -1.1104 9.52979 14.2391 12.3685
173 1 -1.1104 3.83864 3.21017 6.62131
174 1 -1.1104 3.91303 0.368969 6.59477
168 1 -1.1104 6.7131 -2.40173 6.66107
137 2 2.2208 -0.285864 18.4652 5.28854
171 1 -1.1104 6.70298 0.304854 6.60993
167 1 -1.1104 0.964146 3.08429 6.65324
166 1 -1.1104 1.08503 -2.54186 6.75257
172 1 -1.1104 3.86252 -2.5305 6.74092
175 2 2.2208 5.30331 1.67552 10.8211
176 1 -1.1104 1.01012 -2.46329 12.3272
177 1 -1.1104 1.04454 3.05707 12.2032
180 1 -1.1104 1.09484 -2.55177 9.47552
181 1 -1.1104 1.12393 3.08777 9.43737
184 1 -1.1104 1.05122 0.312886 12.3078
186 2 2.2208 5.25837 -1.11786 8.08102
187 2 2.2208 5.27515 4.50463 8.0408
188 1 -1.1104 1.14311 0.290169 9.50925
190 1 -1.1104 3.86474 -2.50487 12.3113
191 1 -1.1104 3.78468 3.02935 12.1881
192 2 2.2208 2.49996 1.73299 8.08018
193 1 -1.1104 3.8734 -2.44274 9.52028
194 1 -1.1104 3.91231 3.16239 9.35851
195 2 2.2208 2.56659 -1.09269 10.8523
196 2 2.2208 2.49398 4.42742 10.889
197 1 -1.1104 3.91605 0.321012 12.2271
198 1 -1.1104 3.93055 0.351382 9.40582
178 1 -1.1104 6.59649 -2.51797 12.2377
182 1 -1.1104 6.69528 -2.47877 9.51252
149 1 -1.1104 12.2526 17.0871 6.72419
189 1 -1.1104 6.70844 0.263614 9.37353
183 1 -1.1104 6.61705 2.93622 9.38068
185 1 -1.1104 6.55021 0.305351 12.284
179 1 -1.1104 6.6059 3.11408 12.2565
380 2 2.2208 2.53174 10.06 -0.287261
205 1 -1.1104 12.2259 -2.54514 6.56938
206 1 -1.1104 12.2635 3.08613 6.74208
8858 2 2.2208 5.30734 -3.84618 -0.260776
386 2 2.2208 10.9065 12.9031 -0.285366
211 2 2.2208 10.8449 1.69948 10.8609
212 1 -1.1104 12.3265 -2.52106 12.2136
213 1 -1.1104 12.3205 3.07478 12.2393
214 1 -1.1104 12.1953 -2.51185 9.39072
215 1 -1.1104 12.1619 3.14991 9.46443
216 1 -1.1104 12.1877 0.215412 12.2123
217 2 2.2208 10.8598 -1.12494 8.00011
218 2 2.2208 10.8269 4.46741 8.08297
219 1 -1.1104 12.3616 0.31832 9.46266
220 1 -1.1104 9.46703 -2.49089 12.2614
221 1 -1.1104 9.39224 3.04444 12.3142
222 2 2.2208 8.13889 1.67917 7.9549
223 1 -1.1104 9.53291 -2.45648 9.50897
224 1 -1.1104 9.32281 3.16123 9.51137
225 2 2.2208 8.0298 -1.06628 10.9918
226 2 2.2208 7.95636 4.48782 10.8113
227 1 -1.1104 9.35552 0.391141 12.2537
228 1 -1.1104 9.47244 0.448309 9.43165
325 2 2.2208 10.8988 15.56 8.12879
331 2 2.2208 10.8703 18.3561 10.9713
236 1 -1.1104 1.03238 5.91559 6.78189
238 1 -1.1104 3.81207 8.69249 6.70482
235 1 -1.1104 6.61873 8.71352 6.63992
237 1 -1.1104 6.72765 5.96115 6.61389
62 1 -1.1104 1.09571 11.4925 6.75533
234 1 -1.1104 1.03908 8.69883 6.60881
78 1 -1.1104 3.941 11.4063 6.69158
240 2 2.2208 5.24935 7.28014 10.8777
241 2 2.2208 5.31608 12.8921 10.8499
242 1 -1.1104 1.10251 8.7077 12.3843
244 1 -1.1104 1.10112 8.67549 9.54958
246 1 -1.1104 1.19747 5.9272 12.3432
247 1 -1.1104 1.00267 11.5666 12.3035
250 2 2.2208 5.34048 10.1374 8.01203
251 1 -1.1104 1.07367 5.90374 9.54118
252 1 -1.1104 1.02421 11.5632 9.39913
255 1 -1.1104 3.92003 8.62955 12.2281
256 2 2.2208 2.4972 7.26705 8.05226
257 2 2.2208 2.49551 12.901 8.04453
258 1 -1.1104 3.85861 8.65943 9.42328
259 2 2.2208 2.50195 10.1083 10.8611
260 1 -1.1104 3.80753 5.90223 12.3467
261 1 -1.1104 3.88868 11.465 12.3036
262 1 -1.1104 3.96831 5.86026 9.46041
263 1 -1.1104 3.84108 11.5425 9.45359
248 1 -1.1104 6.63753 5.79521 12.3042
254 1 -1.1104 6.60895 11.5083 9.49847
245 1 -1.1104 6.64818 8.66518 9.51546
249 1 -1.1104 6.74864 11.5066 12.2543
101 1 -1.1104 9.60848 11.5425 6.67181
267 1 -1.1104 9.44719 8.73939 6.69409
253 1 -1.1104 6.61114 5.83821 9.46891
243 1 -1.1104 6.70942 8.712 12.3302
269 1 -1.1104 9.53582 5.89422 6.58659
330 1 -1.1104 12.3188 14.2696 12.394
327 1 -1.1104 12.2865 19.7433 9.5619
264 1 -1.1104 9.42864 11.5138 9.47239
268 1 -1.1104 9.44615 5.95567 9.40467
270 1 -1.1104 9.46733 11.467 12.2294
271 1 -1.1104 9.51377 5.78732 12.1987
272 2 2.2208 8.11766 10.1075 10.8891
273 1 -1.1104 9.52503 8.72125 9.49963
274 2 2.2208 8.15585 12.8759 8.06066
275 2 2.2208 8.02866 7.36881 8.10219
276 2 2.2208 10.9546 7.27558 10.886
277 2 2.2208 10.8736 12.8664 10.9355
278 1 -1.1104 12.1765 8.69058 12.3211
279 1 -1.1104 12.3798 8.62195 9.52762
280 1 -1.1104 12.3394 5.86246 12.3501
281 1 -1.1104 12.2158 11.4326 12.2427
282 2 2.2208 10.892 10.0699 8.14257
283 1 -1.1104 12.261 5.84582 9.40449
284 1 -1.1104 12.3385 11.4063 9.48512
285 1 -1.1104 9.47561 8.57201 12.2128
324 2 2.2208 10.894 21.2707 8.12556
319 1 -1.1104 9.47848 14.2585 9.5928
320 2 2.2208 8.14525 18.3983 8.15816
126 1 -1.1104 4.02895 19.8117 6.61525
111 1 -1.1104 6.66363 14.2138 6.63591
302 1 -1.1104 1.0391 19.8059 6.69111
112 1 -1.1104 6.86192 19.7836 6.59805
118 1 -1.1104 6.69644 17.1154 6.69298
133 1 -1.1104 3.85607 17.0439 6.60352
117 1 -1.1104 1.08424 17.0545 6.71013
288 1 -1.1104 6.73327 19.8405 9.41627
306 1 -1.1104 6.69663 17.0811 12.2798
289 1 -1.1104 6.59749 17.0637 9.42736
304 1 -1.1104 3.85566 17.0233 9.45642
298 1 -1.1104 1.14549 19.8027 12.334
301 1 -1.1104 3.87743 19.8138 9.42858
293 2 2.2208 5.27521 21.2148 8.06009
287 1 -1.1104 3.8268 14.2722 12.1896
292 1 -1.1104 1.09629 17.1048 9.5213
300 2 2.2208 5.25635 18.42 10.8319
286 1 -1.1104 3.81485 19.8418 12.2499
291 1 -1.1104 1.05043 19.855 9.46185
299 1 -1.1104 0.987885 14.3828 12.2724
303 2 2.2208 2.44004 18.5207 8.03066
295 2 2.2208 5.28196 15.6586 8.03251
305 1 -1.1104 3.83609 14.2876 9.33276
310 2 2.2208 2.50713 15.5944 10.8708
309 2 2.2208 2.44462 21.186 10.8092
308 1 -1.1104 3.85632 17.0505 12.3633
307 1 -1.1104 1.03041 17.0696 12.295
294 1 -1.1104 1.103 14.2733 9.46445
296 1 -1.1104 6.67037 19.953 12.1737
290 1 -1.1104 6.77228 14.2092 9.55458
229 2 2.2208 13.6673 1.69949 8.01818
316 2 2.2208 8.09479 21.273 10.8257
156 1 -1.1104 9.52182 19.8292 6.58294
145 1 -1.1104 12.2142 19.869 6.67593
315 1 -1.1104 9.50064 17.0306 12.371
321 1 -1.1104 9.45785 19.8098 12.3435
317 2 2.2208 8.07007 15.6798 10.9242
314 1 -1.1104 9.38565 16.9546 9.48444
203 2 2.2208 13.5949 4.51447 10.8033
323 1 -1.1104 12.2428 16.9746 9.49777
297 1 -1.1104 6.5853 14.3057 12.39
329 1 -1.1104 12.2167 19.9093 12.3099
318 1 -1.1104 9.51378 19.7987 9.52441
328 1 -1.1104 12.2455 14.1915 9.61188
347 2 2.2208 8.14647 15.8184 -0.288913
202 2 2.2208 13.6605 7.28599 8.03753
8841 2 2.2208 -0.307079 -3.88487 5.3336
26 2 2.2208 -0.246674 1.77685 5.30204
8860 2 2.2208 -0.30748 -3.80644 -0.303546
343 2 2.2208 8.01302 1.77095 13.6141
382 2 2.2208 -0.265263 12.8773 -0.206709
83 2 2.2208 -0.242291 12.9512 5.38494
82 2 2.2208 -0.279156 10.0905 2.48928
368 2 2.2208 -0.289869 1.708 -0.291137
346 2 2.2208 10.8195 -1.15719 13.615
17388 2 2.2208 13.6096 -3.95696 13.6388
358 2 2.2208 5.23941 21.178 13.6221
365 2 2.2208 2.47634 -1.16821 -0.3579
350 2 2.2208 10.8539 4.41566 13.6595
373 2 2.2208 2.44488 15.7202 -0.267981
340 2 2.2208 13.5948 1.69511 13.6417
388 2 2.2208 5.23839 1.67618 16.4564
389 1 -1.1104 1.05075 -2.57691 17.9597
390 1 -1.1104 1.10019 3.08171 17.887
393 1 -1.1104 1.0515 -2.4449 15.0935
395 1 -1.1104 1.08141 3.09468 15.1714
401 1 -1.1104 1.07155 0.291889 17.8754
403 2 2.2208 5.27049 -1.12556 19.3537
404 2 2.2208 5.25185 4.48833 19.244
405 1 -1.1104 0.980453 0.2217 15.1309
409 1 -1.1104 3.88563 -2.50523 17.8343
410 1 -1.1104 3.85267 3.08004 17.8697
411 2 2.2208 2.41362 1.69033 19.3194
412 1 -1.1104 3.90046 -2.45276 15.0931
414 1 -1.1104 3.72591 3.15678 15.0281
416 2 2.2208 2.45968 -1.12429 16.5185
417 2 2.2208 2.4079 4.49143 16.4878
418 1 -1.1104 3.80464 0.313982 17.9171
419 1 -1.1104 3.77158 0.327646 14.9789
394 1 -1.1104 1.089 -2.45705 20.7182
392 1 -1.1104 6.6914 3.07575 17.8317
402 1 -1.1104 6.66041 0.218306 17.8673
407 1 -1.1104 6.57244 0.264522 15.0499
391 1 -1.1104 6.66334 -2.60249 17.8176
399 1 -1.1104 6.52471 3.12668 15.0469
400 1 -1.1104 6.62629 3.12672 20.6624
8905 2 2.2208 10.8214 -3.95183 22.0906
406 1 -1.1104 1.18151 0.302719 20.8007
398 1 -1.1104 6.59339 -2.50663 20.6578
339 2 2.2208 2.41142 1.64405 13.6842
8908 2 2.2208 5.2701 -3.91647 22.0648
341 2 2.2208 5.18689 4.56263 13.7403
397 1 -1.1104 6.68328 -2.50233 15.0162
342 2 2.2208 -0.345375 15.6194 13.6798
431 2 2.2208 10.7612 1.60094 16.4008
432 1 -1.1104 12.2264 -2.47136 17.794
433 1 -1.1104 12.2588 2.94981 17.7773
434 1 -1.1104 12.2095 -2.44209 14.956
436 1 -1.1104 12.1072 3.11613 14.9967
438 1 -1.1104 12.1506 0.272387 17.7969
439 2 2.2208 10.8953 -1.08777 19.2405
440 2 2.2208 10.8113 4.41836 19.2215
441 1 -1.1104 12.2083 0.313208 14.9837
443 1 -1.1104 9.50924 -2.47353 17.8367
444 1 -1.1104 9.49787 3.00648 17.8669
445 2 2.2208 8.01641 1.61896 19.2149
446 1 -1.1104 9.46171 -2.61361 15.1019
448 1 -1.1104 9.38002 2.96929 15.0414
450 2 2.2208 8.01842 -1.18369 16.4664
451 2 2.2208 8.01927 4.39172 16.443
452 1 -1.1104 9.36732 0.205302 17.825
453 1 -1.1104 9.33177 0.26525 14.9987
435 1 -1.1104 12.2534 -2.54063 20.6331
338 2 2.2208 5.27078 -1.08264 13.6671
8866 2 2.2208 2.56805 -3.88782 13.7317
437 1 -1.1104 12.1565 3.03582 20.5692
361 2 2.2208 10.8319 15.6692 13.7293
447 1 -1.1104 9.44077 -2.47239 20.5432
454 1 -1.1104 9.43685 0.241912 20.6108
562 1 -1.1104 9.47856 19.9031 23.4122
421 2 2.2208 -0.288537 7.27915 22.1682
464 2 2.2208 5.24176 7.23975 16.5619
465 2 2.2208 5.27858 12.9098 16.4989
466 1 -1.1104 1.1318 8.73126 17.8394
468 1 -1.1104 1.09237 8.6137 15.1348
472 1 -1.1104 0.968704 5.89904 17.9349
473 1 -1.1104 1.09726 11.4342 17.8537
476 2 2.2208 5.25311 10.1263 19.2088
477 1 -1.1104 1.09749 5.82532 15.0979
479 1 -1.1104 1.09829 11.4844 15.0175
485 1 -1.1104 3.94818 8.61403 17.883
486 2 2.2208 2.4986 7.32 19.3062
487 2 2.2208 2.44886 12.9018 19.2871
488 1 -1.1104 3.90294 8.80598 15.0723
490 2 2.2208 2.44263 10.092 16.4982
491 1 -1.1104 3.71235 5.85972 17.9947
492 1 -1.1104 3.85395 11.4715 17.9049
493 1 -1.1104 3.82153 5.9875 15.1403
495 1 -1.1104 3.86281 11.5685 15.1043
467 1 -1.1104 6.63222 8.80561 17.9057
475 1 -1.1104 6.66095 11.5025 17.7149
470 1 -1.1104 6.77031 8.58662 15.0742
474 1 -1.1104 6.69517 5.80406 17.9282
496 1 -1.1104 3.9261 11.5163 20.658
489 1 -1.1104 3.88601 8.70849 20.6864
483 1 -1.1104 6.65232 11.426 15.068
353 2 2.2208 2.52675 12.885 13.6854
428 2 2.2208 13.6081 1.5911 19.201
8862 2 2.2208 8.10385 -3.93477 13.7125
8854 2 2.2208 10.9178 -3.90179 27.6866
481 1 -1.1104 6.64821 5.85089 15.1311
370 2 2.2208 8.08966 -1.1407 27.625
500 2 2.2208 10.9127 7.28878 16.4202
501 2 2.2208 10.8799 12.8765 16.5432
502 1 -1.1104 12.2874 8.73598 17.9078
503 1 -1.1104 12.297 8.72555 15.0717
505 1 -1.1104 12.2026 5.8418 17.9261
506 1 -1.1104 12.2779 11.5359 17.8632
507 2 2.2208 10.9267 10.1335 19.2996
508 1 -1.1104 12.2641 5.88913 15.1259
510 1 -1.1104 12.2878 11.5318 15.0291
512 1 -1.1104 9.50666 8.64681 17.9419
513 2 2.2208 8.112 7.3605 19.2797
514 2 2.2208 8.07629 12.8727 19.2713
515 1 -1.1104 9.54416 8.59823 15.0574
517 2 2.2208 8.10521 10.0533 16.4832
518 1 -1.1104 9.37776 5.95286 17.8129
519 1 -1.1104 9.46557 11.4477 17.8986
520 1 -1.1104 9.484 5.80032 15.0798
522 1 -1.1104 9.40563 11.492 15.1723
685 2 2.2208 -0.247013 12.8732 22.0916
521 1 -1.1104 9.58442 5.85719 20.6409
511 1 -1.1104 12.2887 11.6155 20.7016
457 2 2.2208 -0.270046 15.6202 19.3779
8944 2 2.2208 10.8409 -3.88764 16.4227
8973 2 2.2208 2.51588 -3.88022 19.2829
527 2 2.2208 5.22059 18.4406 16.512
528 1 -1.1104 1.12344 14.1377 17.9551
529 1 -1.1104 1.08719 19.796 17.9553
532 1 -1.1104 1.05607 14.3152 15.1475
534 1 -1.1104 1.083 19.8895 15.0874
540 1 -1.1104 1.13032 16.9707 18.0156
542 2 2.2208 5.25628 15.6547 19.3158
543 2 2.2208 5.21367 21.267 19.3478
544 1 -1.1104 0.960287 17.1401 15.2536
548 1 -1.1104 3.83236 14.3173 17.9157
549 1 -1.1104 3.84929 19.868 17.9412
550 2 2.2208 2.56452 18.4832 19.3807
551 1 -1.1104 3.92143 14.3369 15.1371
553 1 -1.1104 3.82434 19.7484 15.0955
555 2 2.2208 2.35144 15.6942 16.5602
556 2 2.2208 2.53425 21.2428 16.4797
557 1 -1.1104 3.84955 17.114 17.8746
558 1 -1.1104 3.89617 17.0702 15.1673
546 1 -1.1104 6.64491 17.0459 14.9825
530 1 -1.1104 6.59648 14.2514 17.9602
531 1 -1.1104 6.70049 19.867 17.9596
536 1 -1.1104 6.7856 14.2187 15.1804
541 1 -1.1104 6.73531 17.1479 17.9403
537 1 -1.1104 6.72928 14.3857 20.7799
538 1 -1.1104 6.59284 19.7913 15.0594
547 1 -1.1104 6.71594 17.1374 20.7614
367 2 2.2208 -0.314875 10.095 13.685
8974 2 2.2208 5.26493 -3.94312 16.4842
498 1 -1.1104 12.2452 14.3387 26.351
539 1 -1.1104 6.68876 19.7502 20.686
710 2 2.2208 13.5871 7.20178 24.8828
623 2 2.2208 -0.269153 18.5474 22.1898
563 2 2.2208 10.8274 18.4353 16.5248
564 1 -1.1104 12.2521 14.3393 17.9217
565 1 -1.1104 12.2552 19.9641 17.9521
566 1 -1.1104 12.2915 14.2468 15.1391
568 1 -1.1104 12.1731 19.9346 15.1279
570 1 -1.1104 12.2298 17.2231 17.8752
571 2 2.2208 10.9091 15.7597 19.2814
572 2 2.2208 10.9452 21.3405 19.336
573 1 -1.1104 12.2037 17.1116 15.1768
575 1 -1.1104 9.42182 14.3471 17.8768
576 1 -1.1104 9.47254 19.8156 17.9343
577 2 2.2208 8.15945 18.4743 19.3455
578 1 -1.1104 9.5349 14.3411 15.1581
580 1 -1.1104 9.31225 19.8182 15.153
582 2 2.2208 8.02864 15.7083 16.5088
583 2 2.2208 8.03946 21.1799 16.5142
584 1 -1.1104 9.53336 17.0615 17.9355
585 1 -1.1104 9.43395 17.056 15.0991
8945 2 2.2208 13.6261 -3.91788 19.2499
569 1 -1.1104 12.2439 19.8999 20.6701
579 1 -1.1104 9.55973 14.2948 20.7203
574 1 -1.1104 12.2751 17.0822 20.641
8943 2 2.2208 8.11769 -3.91459 19.2869
396 1 -1.1104 1.06952 3.08042 20.6319
589 1 -1.1104 9.4905 14.3079 26.3287
712 1 -1.1104 6.59533 14.3142 26.2871
413 1 -1.1104 3.84829 -2.45014 20.7018
408 1 -1.1104 6.68055 0.331842 20.7232
415 1 -1.1104 3.85558 3.05824 20.6308
420 1 -1.1104 3.81626 0.255832 20.7132
591 2 2.2208 5.2062 1.74691 22.0558
592 1 -1.1104 1.16262 -2.45378 23.6045
593 1 -1.1104 1.20877 3.14622 23.4152
596 1 -1.1104 1.17335 -2.34318 26.2628
597 1 -1.1104 1.14809 3.08687 26.3644
600 1 -1.1104 1.13256 0.338083 23.419
602 2 2.2208 5.36085 -1.02843 24.906
603 2 2.2208 5.3368 4.51541 24.8351
604 1 -1.1104 1.10024 0.313878 26.2138
606 1 -1.1104 4.00889 -2.47534 23.5231
607 1 -1.1104 3.98751 3.13415 23.4772
608 2 2.2208 2.57283 1.72438 24.9304
609 1 -1.1104 3.91129 -2.41728 26.3464
610 1 -1.1104 3.87297 3.23131 26.2936
611 2 2.2208 2.48575 -1.07035 22.1425
612 2 2.2208 2.49038 4.56029 22.0815
613 1 -1.1104 3.93437 0.345478 23.4909
614 1 -1.1104 3.87457 0.331138 26.3296
598 1 -1.1104 6.72862 -2.49561 26.2121
594 1 -1.1104 6.65131 -2.49743 23.4098
605 1 -1.1104 6.64542 0.326807 26.2394
595 1 -1.1104 6.68707 3.10617 23.4746
384 2 2.2208 10.8561 7.39419 27.5782
449 1 -1.1104 9.37945 3.04048 20.6552
442 1 -1.1104 12.2336 0.274063 20.6235
653 2 2.2208 13.5717 -1.18586 22.0221
601 1 -1.1104 6.66194 0.376299 23.3676
599 1 -1.1104 6.69583 3.0958 26.2947
379 2 2.2208 5.27863 7.29646 27.5714
627 2 2.2208 10.8901 1.66467 21.9713
628 1 -1.1104 12.159 -2.55385 23.5267
629 1 -1.1104 12.288 2.98877 23.3951
630 1 -1.1104 12.2418 -2.50695 26.1821
631 1 -1.1104 12.3887 2.99743 26.2446
632 1 -1.1104 12.2589 0.213717 23.2808
633 2 2.2208 10.8306 -1.06482 24.8074
634 2 2.2208 10.835 4.48955 24.8249
635 1 -1.1104 12.3533 0.316298 26.1202
636 1 -1.1104 9.4531 -2.582 23.3599
637 1 -1.1104 9.54169 3.15714 23.3846
638 2 2.2208 8.0878 1.75019 24.7173
639 1 -1.1104 9.5594 -2.49086 26.2153
640 1 -1.1104 9.56099 3.14584 26.2328
641 2 2.2208 8.03265 -1.07308 22.0135
642 2 2.2208 8.15716 4.46957 22.0095
643 1 -1.1104 9.44233 0.393954 23.4784
644 1 -1.1104 9.36527 0.295176 26.1726
8904 2 2.2208 8.15469 -3.8833 24.824
621 2 2.2208 -0.297982 7.29758 16.5026
680 1 -1.1104 6.6336 17.1435 23.4459
718 1 -1.1104 6.74596 19.9215 23.4846
478 1 -1.1104 1.10173 5.93487 20.6981
494 1 -1.1104 3.89678 5.8504 20.6952
480 1 -1.1104 1.12647 11.5357 20.6628
471 1 -1.1104 6.75089 8.72983 20.6734
484 1 -1.1104 6.67703 11.5885 20.6721
469 1 -1.1104 1.15795 8.70206 20.7662
656 2 2.2208 5.27066 7.28994 22.0503
657 2 2.2208 5.28702 12.9512 22.2017
658 1 -1.1104 0.95249 8.82521 23.6019
660 1 -1.1104 1.12319 8.62328 26.379
662 1 -1.1104 1.10466 5.90292 23.5532
663 1 -1.1104 0.957624 11.5624 23.572
666 2 2.2208 5.17605 10.1385 24.8931
667 1 -1.1104 1.16667 5.78924 26.3067
668 1 -1.1104 1.14756 11.4265 26.4184
671 1 -1.1104 3.84691 8.7289 23.4698
672 2 2.2208 2.5427 7.318 24.8843
673 2 2.2208 2.49091 12.8602 25.0005
674 1 -1.1104 3.8659 8.79425 26.2073
675 2 2.2208 2.39194 10.2033 22.084
676 1 -1.1104 3.86071 5.88688 23.5111
677 1 -1.1104 3.71004 11.6186 23.5756
678 1 -1.1104 3.96465 6.0637 26.1362
679 1 -1.1104 3.86284 11.4863 26.2552
659 1 -1.1104 6.65484 8.71281 23.4781
669 1 -1.1104 6.79185 5.86466 26.1739
664 1 -1.1104 6.71412 5.9199 23.455
670 1 -1.1104 6.71959 11.4548 26.2728
665 1 -1.1104 6.54415 11.5311 23.5552
482 1 -1.1104 6.67794 5.92002 20.6476
661 1 -1.1104 6.64917 8.7282 26.2309
8907 2 2.2208 2.70074 -3.8571 24.8574
504 1 -1.1104 12.3599 8.63622 20.6207
523 1 -1.1104 9.42142 11.5603 20.7172
516 1 -1.1104 9.57966 8.78155 20.7949
509 1 -1.1104 12.4182 5.77169 20.5309
460 2 2.2208 13.6839 21.2893 16.4704
462 2 2.2208 10.9245 18.4568 22.0485
687 1 -1.1104 9.59078 11.5318 26.3061
688 1 -1.1104 9.52103 5.99438 26.2036
689 1 -1.1104 9.37258 11.5578 23.502
690 1 -1.1104 9.45976 5.91725 23.4188
691 2 2.2208 8.0483 10.1338 22.0884
692 1 -1.1104 9.4754 8.74882 26.1746
693 2 2.2208 8.08802 12.8913 24.9657
694 2 2.2208 8.15695 7.33016 24.8705
695 2 2.2208 10.8552 7.27882 22.0663
696 2 2.2208 10.821 12.9423 22.0846
697 1 -1.1104 12.2401 8.5805 23.4564
698 1 -1.1104 12.2479 8.70751 26.2367
699 1 -1.1104 12.231 5.79264 23.4658
700 1 -1.1104 12.3299 11.4485 23.4476
701 2 2.2208 10.9231 10.1315 24.7837
702 1 -1.1104 12.2556 5.78572 26.2183
703 1 -1.1104 12.3558 11.5886 26.1936
704 1 -1.1104 9.51648 8.76385 23.4555
622 2 2.2208 -0.288262 10.1036 19.276
590 1 -1.1104 9.46427 19.8295 26.2036
524 1 -1.1104 12.263 17.062 23.5275
581 1 -1.1104 9.5386 19.8797 20.6947
552 1 -1.1104 3.90605 14.298 20.6594
533 1 -1.1104 1.04952 14.3188 20.7051
535 1 -1.1104 1.11924 19.9196 20.8072
545 1 -1.1104 1.16342 17.0989 20.843
554 1 -1.1104 3.90804 19.8345 20.7115
559 1 -1.1104 3.91319 17.058 20.7748
709 1 -1.1104 6.66567 14.3861 23.5886
714 1 -1.1104 6.72103 17.1419 26.2515
588 1 -1.1104 6.68733 19.8829 26.2851
647 2 2.2208 2.57719 15.6738 22.1323
649 2 2.2208 2.54052 21.3482 22.0955
652 1 -1.1104 3.82541 17.1129 23.5281
655 1 -1.1104 1.05483 17.1335 23.4062
681 1 -1.1104 3.86422 14.3446 26.3265
682 1 -1.1104 3.82777 17.0971 26.3033
683 2 2.2208 2.51732 18.529 24.9125
686 1 -1.1104 3.96707 19.9024 26.3378
705 2 2.2208 5.27181 18.4069 22.068
706 1 -1.1104 1.13981 14.3018 23.4454
707 1 -1.1104 1.11766 19.9503 23.6036
711 1 -1.1104 3.85929 19.8965 23.5063
713 1 -1.1104 3.92043 14.4164 23.5497
715 1 -1.1104 1.08158 19.9467 26.4324
716 1 -1.1104 1.08238 17.0851 26.1476
717 1 -1.1104 0.974433 14.3429 26.3069
719 2 2.2208 5.34686 21.2963 24.8714
720 2 2.2208 5.22639 15.7224 24.9388
425 2 2.2208 -0.263388 -1.10104 19.3781
458 2 2.2208 -0.258962 21.2038 19.2437
616 2 2.2208 8.17634 21.2916 21.9923
497 1 -1.1104 12.3226 19.8942 23.5132
525 2 2.2208 10.8998 15.6973 24.8931
499 1 -1.1104 12.3757 19.8685 26.2782
567 1 -1.1104 12.2675 14.3491 20.6608
617 1 -1.1104 9.37773 17.1399 23.503
560 1 -1.1104 12.3139 17.0456 26.2892
561 1 -1.1104 9.4581 14.3648 23.4184
463 1 -1.1104 12.2656 14.353 23.577
615 2 2.2208 8.07066 15.7055 22.1878
620 1 -1.1104 9.51197 17.0971 26.3446
526 2 2.2208 10.9357 21.2976 24.8706
587 2 2.2208 8.08187 18.529 24.8652
586 1 -1.1104 9.48095 17.0651 20.6617
427 2 2.2208 -0.340096 4.54296 19.3424
337 2 2.2208 -0.299646 4.45763 13.6667
429 2 2.2208 13.6065 4.41762 16.438
423 2 2.2208 13.6117 4.40939 21.9914
626 2 2.2208 -0.258403 4.4527 24.8731
8942 2 2.2208 -0.282618 -3.87082 22.072
430 2 2.2208 13.5816 15.6604 21.9993
625 2 2.2208 -0.326692 1.70684 22.0873
360 2 2.2208 10.8023 21.243 13.7306
355 2 2.2208 10.8377 10.0856 13.6917
372 2 2.2208 8.09913 4.54662 27.6046
349 2 2.2208 8.1462 21.2311 27.6356
366 2 2.2208 2.43302 4.54382 27.6562
385 2 2.2208 8.06521 10.1225 27.6073
369 2 2.2208 10.9053 1.64838 27.6085
356 2 2.2208 8.06887 12.8725 13.7032
359 2 2.2208 5.24786 15.6229 13.6947
351 2 2.2208 2.4268 7.29196 13.7045
357 2 2.2208 2.40115 18.4097 13.7514
352 2 2.2208 5.25779 10.0692 13.7145
336 2 2.2208 13.6452 7.25726 13.7661
376 2 2.2208 13.6466 12.8075 13.7094
354 2 2.2208 8.05157 7.20547 13.7133
721 2 2.2208 5.28701 24.1261 5.19818
722 2 2.2208 5.29147 29.6671 5.2707
723 1 -1.1104 1.13735 25.4867 1.04508
724 1 -1.1104 1.07079 25.4757 3.94017
725 1 -1.1104 1.00675 22.6854 1.00582
726 1 -1.1104 1.0715 28.2652 1.0652
727 2 2.2208 5.36692 26.9478 2.38687
728 1 -1.1104 1.07343 22.65 3.82695
729 1 -1.1104 1.15612 28.2286 3.9306
730 1 -1.1104 3.98089 25.389 1.12375
731 2 2.2208 2.47307 24.035 2.46889
732 2 2.2208 2.41963 29.6454 2.5363
733 1 -1.1104 3.85609 25.5233 3.89643
734 2 2.2208 2.54075 26.8864 5.31529
735 1 -1.1104 3.82648 22.6815 1.18696
736 1 -1.1104 4.01289 28.1841 0.944774
737 1 -1.1104 3.9187 22.6717 3.92722
738 1 -1.1104 3.93854 28.2732 3.80807
744 1 -1.1104 6.67122 22.6936 1.20142
864 1 -1.1104 1.06363 22.7269 6.73476
742 1 -1.1104 6.71505 25.4661 1.11564
745 1 -1.1104 6.82796 28.2985 1.02786
747 1 -1.1104 6.72336 28.2496 3.81919
867 1 -1.1104 6.69136 28.2184 6.55993
1038 2 2.2208 -0.247614 29.6457 10.9174
870 1 -1.1104 3.92383 28.2235 6.70951
869 1 -1.1104 3.87741 22.7664 6.82401
746 1 -1.1104 6.7338 22.6463 3.91607
1063 2 2.2208 13.6779 24.1523 13.6499
865 1 -1.1104 1.06444 28.3247 6.743
863 1 -1.1104 6.7759 25.4453 6.70393
741 2 2.2208 -0.256665 24.0568 5.21925
743 1 -1.1104 6.53376 25.4989 3.86008
1072 2 2.2208 -0.314199 29.7313 -0.310795
748 2 2.2208 10.9131 24.0731 5.27147
749 2 2.2208 10.9822 29.5414 5.30896
750 1 -1.1104 12.281 25.3934 0.965499
751 1 -1.1104 12.3412 25.426 3.77753
752 1 -1.1104 12.2845 22.4367 1.06982
753 1 -1.1104 12.424 28.2817 1.05912
754 2 2.2208 10.9309 26.9413 2.43482
755 1 -1.1104 12.4305 22.7301 3.81546
756 1 -1.1104 12.2861 28.2249 3.94856
757 1 -1.1104 9.45262 25.4843 1.1407
758 2 2.2208 8.07972 24.0482 2.50901
759 2 2.2208 8.09172 29.6727 2.52355
760 1 -1.1104 9.52485 25.4634 3.86389
761 2 2.2208 8.10163 26.8043 5.23005
762 1 -1.1104 9.4512 22.6409 1.03985
763 1 -1.1104 9.62827 28.2789 1.10846
764 1 -1.1104 9.54099 22.6693 3.8252
765 1 -1.1104 9.54181 28.1688 3.90041
898 1 -1.1104 9.53671 25.4728 6.58685
860 2 2.2208 5.37884 35.3053 -0.287786
1013 2 2.2208 8.13988 46.4782 8.17404
900 1 -1.1104 9.54825 28.2555 6.6525
895 1 -1.1104 12.3284 25.381 6.63051
769 2 2.2208 5.29516 35.156 5.29478
770 1 -1.1104 1.08145 31.0673 1.08953
771 1 -1.1104 1.1812 36.7387 1.09256
773 1 -1.1104 1.13235 31.1348 3.85501
774 1 -1.1104 1.12225 36.6556 3.86213
776 1 -1.1104 1.15246 33.8553 1.06458
777 2 2.2208 5.28778 32.4242 2.51577
778 2 2.2208 5.3558 38.0908 2.52672
779 1 -1.1104 1.03046 33.854 3.83367
781 1 -1.1104 3.83595 30.9284 1.10249
782 1 -1.1104 3.94897 36.7255 1.11751
783 2 2.2208 2.55351 35.227 2.47832
784 1 -1.1104 3.86609 31.0348 3.81959
785 1 -1.1104 3.98121 36.5104 3.88453
786 2 2.2208 2.50301 32.3702 5.3585
787 2 2.2208 2.56829 37.9904 5.33367
788 1 -1.1104 3.91025 33.7888 1.14706
789 1 -1.1104 3.81217 33.8535 3.95976
794 1 -1.1104 6.7543 30.9933 3.94001
780 1 -1.1104 6.73152 33.816 3.93829
922 1 -1.1104 6.6476 36.7516 6.75792
772 1 -1.1104 6.78437 36.6513 1.07638
793 1 -1.1104 6.66458 31.121 1.04244
926 1 -1.1104 3.85215 36.5888 6.64217
919 1 -1.1104 1.15702 31.0403 6.77547
927 1 -1.1104 3.88164 33.7663 6.72642
925 1 -1.1104 3.81888 30.9787 6.61853
921 1 -1.1104 6.67371 30.9869 6.64457
840 2 2.2208 -0.284974 46.4873 5.2505
1041 2 2.2208 13.6021 40.6677 8.20062
792 2 2.2208 -0.216649 38.0844 2.50254
775 1 -1.1104 6.7362 36.6165 3.96298
795 1 -1.1104 6.60728 33.9005 1.18139
1008 1 -1.1104 9.19988 39.4023 9.5078
796 2 2.2208 10.9614 35.1995 5.34285
797 1 -1.1104 12.4401 31.0781 1.08216