LAMMPS data file via write_data, version 29 Oct 2020, timestep = 10320

17700 atoms
3 atom types

-0.2771782822933222 27.617178282293317 xlo xhi
-3.4472205766305355 331.52722057663055 ylo yhi
-0.2771782783022145 27.617178278302212 zlo zhi

Masses

1 15.9994
2 232.0381
3 131.293

Atoms # full

17700 0 3 0.0 12.928348505364816 273.9140752624311 13.215448290740788 0 0 0
17699 0 3 0.0 10.963897541984686 211.92647184415023 12.522389110176757 0 0 0
17698 0 3 0.0 14.404342937198136 119.89736722839072 10.31840067522298 0 0 0
17697 0 3 0.0 12.148868638469636 50.27829772629883 10.786125427306798 0 0 0
1 0 2 2.2208 5.253184885978594 2.0762619645628573 5.443018696986251 0 0 0
2 0 1 -1.1104 1.1812901099770932 -2.0623072883506985 1.265158819508558 0 0 0
3 0 1 -1.1104 1.1192473171876598 3.5169949068254502 1.1566214255841234 0 0 0
4 0 1 -1.1104 1.124166950080631 -2.243114751109927 3.973808698163455 0 0 0
5 0 1 -1.1104 0.8983579990127292 3.439533580034447 3.8297682239272692 0 0 0
6 0 1 -1.1104 1.1834356101463706 0.6647167174335876 1.1663126897074798 0 0 0
7 0 2 2.2208 5.355472971815289 -0.6348886437416619 2.7137488978671813 0 0 0
8 0 2 2.2208 5.32948305625528 4.89017474381961 2.5957330835543 0 0 0
9 0 1 -1.1104 1.1992063944001399 0.6336082619371316 3.95232380854243 0 0 0
10 0 1 -1.1104 3.85466496362018 -2.182469864072029 1.1428612738335309 0 0 0
11 0 1 -1.1104 3.9043172112893263 3.4317964306965068 1.1438675273426 0 0 0
12 0 2 2.2208 2.59805291968788 2.07387520272546 2.539434529512376 0 0 0
13 0 1 -1.1104 3.980251536977797 -2.057138604122403 3.947575878067198 0 0 0
14 0 1 -1.1104 3.816999924706737 3.507958261867176 3.8375983604613135 0 0 0
15 0 2 2.2208 2.547309038204454 -0.7373735803132325 5.323166751021647 0 0 0
16 0 2 2.2208 2.4172620196384007 4.939905516885041 5.370322847240205 0 0 0
17 0 1 -1.1104 4.035492793271268 0.6767557419361726 1.3940157409430456 0 0 0
18 0 1 -1.1104 3.9840042413676935 0.6749088624677758 4.129663491226395 0 0 0
210 0 2 2.2208 2.477044727148813 4.8122014281210435 -0.18711818464624683 0 0 0
338 0 2 2.2208 2.662937285717262 -0.6355202179013619 -0.09450235836564785 0 0 0
31 0 1 -1.1104 6.810337923346184 -2.046766123983944 3.9578383860383073 0 0 0
25 0 1 -1.1104 6.608607484828511 3.4685737837584973 3.904516045725636 0 0 0
203 0 2 2.2208 5.349258606051334 2.068706398156204 -0.19506522321095754 0 0 0
19 0 1 -1.1104 6.650658088389183 -2.0070353039485753 1.2621905032267076 0 0 0
20 0 1 -1.1104 6.716525301555149 0.7779599864310387 3.9459550442284312 0 0 0
24 0 1 -1.1104 6.642870265347344 0.7713154436406864 1.2072096900365492 0 0 0
23 0 1 -1.1104 6.670360007537013 3.6790190100691285 1.222256481327958 0 0 0
8521 0 2 2.2208 13.63834082753763 -3.43898716928976 2.6923870120541173 0 0 0
9044 0 2 2.2208 -0.2704582200288499 16.0845891584302 8.112279571846974 0 0 0
9127 0 2 2.2208 -0.24099404486176665 18.911459354324478 -0.22626391111021563 0 0 0
9205 0 2 2.2208 -0.261447875038325 13.470482884068982 -0.20107113451545647 0 0 0
178 0 1 -1.1104 9.530084171143953 20.04658612428449 12.39979999431835 0 0 0
8898 0 2 2.2208 -0.19760647165648848 2.1473567091617483 10.89618583738497 0 0 0
34 0 2 2.2208 10.858025585324432 2.077376183744099 5.41398240332591 0 0 0
35 0 1 -1.1104 12.293269492981516 -2.042244366793741 1.2719378969990736 0 0 0
36 0 1 -1.1104 12.2483305524901 3.393443634509021 1.1469531644645716 0 0 0
37 0 1 -1.1104 12.242290299940915 -2.2141353033764393 4.076605453439508 0 0 0
38 0 1 -1.1104 12.48848168539945 3.5602152358546406 3.811532609448675 0 0 0
39 0 1 -1.1104 12.229613727127512 0.5944954961909452 1.2886231367473167 0 0 0
40 0 2 2.2208 10.88634552528773 -0.6994832653048185 2.7484009079774014 0 0 0
41 0 1 -1.1104 12.221016174000527 0.647101700855228 4.032719203105549 0 0 0
42 0 1 -1.1104 9.462434680780635 -1.9529043792771072 1.1697791502170263 0 0 0
43 0 1 -1.1104 9.355572061017018 3.4575194738934587 1.2919420954837084 0 0 0
44 0 2 2.2208 8.134756758487159 2.0958446536573216 2.6361787105752956 0 0 0
45 0 1 -1.1104 9.603598088604837 -2.186113900411432 4.092691850488513 0 0 0
46 0 1 -1.1104 9.631056070452578 3.3964844821609415 3.916364536156128 0 0 0
47 0 2 2.2208 8.047837819325316 -0.6489962159947535 5.4216642652748135 0 0 0
48 0 2 2.2208 8.182399281893177 4.816301362938391 5.364899589428933 0 0 0
49 0 1 -1.1104 9.348139998028062 0.79725624226594 1.3872379545332727 0 0 0
50 0 1 -1.1104 9.40013582758989 0.7485951673775989 4.077368696554628 0 0 0
51 0 2 2.2208 10.927880691070307 4.845688755829206 2.536821109426868 0 0 0
337 0 2 2.2208 8.122909166087501 -0.6292216114005557 -0.11213670039309079 0 0 0
8514 0 2 2.2208 10.782083783635988 -3.4178276690862504 -0.07822331232574348 0 0 0
336 0 2 2.2208 8.128492542564485 4.903640068030503 -0.10407880153749231 0 0 0
54 0 1 -1.1104 12.175967481940722 -2.0674921668374964 6.8634261685333415 0 0 0
58 0 1 -1.1104 9.590054155646744 0.7354954953622168 6.905279972860339 0 0 0
326 0 1 -1.1104 12.135618842821598 14.714254660077023 9.679222535845485 0 0 0
170 0 1 -1.1104 12.164632606150722 17.540741893793186 6.766797468602218 0 0 0
324 0 1 -1.1104 12.431002285628495 14.759844952325386 6.818653209364864 0 0 0
204 0 1 -1.1104 12.372147219730572 20.400512251681636 9.625592097004985 0 0 0
8988 0 2 2.2208 -0.2436729500724367 18.869971894603964 5.4159406679119435 0 0 0
333 0 2 2.2208 10.867992635578183 2.0527851463183158 -0.09825018711040331 0 0 0
202 0 2 2.2208 2.537631957739603 10.646384700079057 -0.12992293812472153 0 0 0
205 0 2 2.2208 5.356328088164704 7.618379121549062 -0.18628112595959992 0 0 0
9199 0 2 2.2208 -0.22714932243358166 21.585213999655988 8.129645410081235 0 0 0
63 0 2 2.2208 5.299519031256241 7.594563992900919 5.39641654686459 0 0 0
64 0 2 2.2208 5.309509035768897 13.268604719150195 5.266346525566814 0 0 0
65 0 1 -1.1104 1.1842113847443523 9.138942272952004 1.2418772467015342 0 0 0
66 0 1 -1.1104 1.0565729028810893 9.054883387836743 4.002540046096907 0 0 0
67 0 1 -1.1104 0.852128404677565 6.347936077893373 1.2174215650475375 0 0 0
68 0 1 -1.1104 1.0684442442000108 11.957139769077969 1.18100567311271 0 0 0
69 0 2 2.2208 5.3654922677864585 10.520017884876792 2.6402233348791793 0 0 0
70 0 1 -1.1104 0.9607969570963899 6.300597031409574 4.006285120591777 0 0 0
71 0 1 -1.1104 1.1106972879947572 11.916348800641769 4.061960046151749 0 0 0
72 0 1 -1.1104 4.060242614937536 9.041185436505634 1.3540928576556532 0 0 0
73 0 2 2.2208 2.493414997009379 7.745455217096745 2.627331730434486 0 0 0
74 0 2 2.2208 2.497386199689383 13.233469181498217 2.5452904238476393 0 0 0
75 0 1 -1.1104 3.875995881650393 8.8476962981073 4.056756804191757 0 0 0
76 0 2 2.2208 2.4770608274193346 10.452741848948284 5.557025820036219 0 0 0
77 0 1 -1.1104 3.774143661754857 6.221648402398315 1.0213858928216832 0 0 0
78 0 1 -1.1104 3.8485513881300246 11.894780890312225 1.1509655345500065 0 0 0
79 0 1 -1.1104 3.9280553830070377 6.21334611076784 3.8946302386767817 0 0 0
80 0 1 -1.1104 3.945256100415326 11.869950292248168 4.02368509088788 0 0 0
84 0 1 -1.1104 6.702486634599988 11.889902857665549 3.894077479978182 0 0 0
81 0 1 -1.1104 6.669982830947709 6.364849552099818 1.3016844354258128 0 0 0
82 0 1 -1.1104 6.658563150308536 6.034951515699108 4.04717642001238 0 0 0
85 0 1 -1.1104 6.6694367681739015 12.09781090521691 1.3473949465475905 0 0 0
329 0 1 -1.1104 12.413450334433248 17.528339075503457 9.607244371327681 0 0 0
322 0 1 -1.1104 9.490957644601991 20.18725831025622 6.915718779695914 0 0 0
61 0 2 2.2208 10.949539101609975 16.091490266529288 8.279127324556411 0 0 0
8519 0 2 2.2208 2.4134095958232127 -3.432280798024067 8.170272668433917 0 0 0
325 0 1 -1.1104 9.466914390385421 17.381981305747573 6.816733221613123 0 0 0
233 0 2 2.2208 10.895526877450159 7.75364545353433 -0.16944363172380097 0 0 0
90 0 1 -1.1104 7.011638089447692 9.03320265527603 4.0982610896832306 0 0 0
83 0 1 -1.1104 6.690450317207408 9.193305730957325 1.1289639183308415 0 0 0
97 0 2 2.2208 10.889203358496067 7.580799093888817 5.373434947081089 0 0 0
98 0 2 2.2208 10.888140575550244 13.163050582234773 5.509739965781833 0 0 0
99 0 1 -1.1104 12.300642395600827 9.209292343578436 1.3308664033115556 0 0 0
100 0 1 -1.1104 12.290634198265113 9.000069380804012 4.018991006851297 0 0 0
101 0 1 -1.1104 12.29263969432388 6.406335384019637 1.2475795786419401 0 0 0
102 0 1 -1.1104 12.135296849845359 12.029675623469622 1.2568386532264821 0 0 0
103 0 2 2.2208 10.90569052572445 10.498994446260761 2.5828240828616353 0 0 0
104 0 1 -1.1104 12.266011870058353 6.213729008576914 3.9622782431824177 0 0 0
105 0 1 -1.1104 12.203053491220713 11.757242374182388 4.119500372283366 0 0 0
106 0 1 -1.1104 9.464260118020125 9.113948186688562 1.2620685407102612 0 0 0
107 0 2 2.2208 8.217910597216742 7.672516814272394 2.5678413043998445 0 0 0
108 0 2 2.2208 8.141588925535157 13.275874167319166 2.541448585231206 0 0 0
109 0 1 -1.1104 9.65028276438628 9.024011108396463 3.984414774353206 0 0 0
110 0 2 2.2208 8.298268062229479 10.43979775151666 5.386447656715156 0 0 0
111 0 1 -1.1104 9.378536446468427 6.307634915521285 1.2317827439228628 0 0 0
112 0 1 -1.1104 9.539563780020782 11.782987184702321 1.1718890233403967 0 0 0
113 0 1 -1.1104 9.602245342624327 6.256623972423047 3.858064312775768 0 0 0
114 0 1 -1.1104 9.382107039240273 11.804629572866721 4.009712624299699 0 0 0
236 0 1 -1.1104 6.727408445673154 9.145618764191223 6.791457318298665 0 0 0
147 0 1 -1.1104 9.63748746232215 20.39940341703724 9.73452549921201 0 0 0
55 0 1 -1.1104 9.420200580767819 14.671760557550929 12.318717727171922 0 0 0
119 0 2 2.2208 13.632475855917695 7.692836627913612 2.669756542138064 0 0 0
175 0 2 2.2208 2.5573425925808317 21.806871625576207 -0.2679643607486931 0 0 0
120 0 2 2.2208 5.500070455964254 18.76903284673954 5.3102566530612245 0 0 0
121 0 1 -1.1104 1.0716572843018468 14.847263649176334 1.197793966042053 0 0 0
122 0 1 -1.1104 1.1358251577822773 20.404784586556314 1.0597994618381117 0 0 0
123 0 1 -1.1104 1.1710276720430572 14.810241697486186 3.85582301408471 0 0 0
124 0 1 -1.1104 1.2336332605787654 20.188654842375215 3.9933103619035184 0 0 0
125 0 1 -1.1104 1.1333532625390845 17.513896056310955 1.1571116039112432 0 0 0
126 0 2 2.2208 5.372535899874363 16.047656902998508 2.5806780609222426 0 0 0
127 0 2 2.2208 5.278635304289513 21.769811289658236 2.507194499587375 0 0 0
128 0 1 -1.1104 1.0839068182315441 17.429200025931326 4.07296130015613 0 0 0
129 0 1 -1.1104 3.8629267552296622 14.6102756322671 1.1821309926245536 0 0 0
130 0 1 -1.1104 4.06741983879058 20.212654372323932 1.1624636175648537 0 0 0
131 0 2 2.2208 2.573008408527883 18.84238929772807 2.573730455137031 0 0 0
132 0 1 -1.1104 3.93163126412944 14.541066477748897 4.162111688055521 0 0 0
133 0 1 -1.1104 4.011796542147088 20.28321241392877 3.879179764821858 0 0 0
134 0 2 2.2208 2.5632607682387616 15.98927517796162 5.349773278344419 0 0 0
135 0 2 2.2208 2.575745743165442 21.54112270392481 5.307036991709702 0 0 0
136 0 1 -1.1104 3.9785703933105707 17.46042345899383 1.1103651056350687 0 0 0
137 0 1 -1.1104 3.951519057182921 17.431287509337725 3.9472974160453727 0 0 0
138 0 1 -1.1104 6.891285625485163 20.24914488430071 3.9967522448592625 0 0 0
289 0 2 2.2208 2.5827705317734693 16.16012816011446 -0.20038328804982652 0 0 0
260 0 2 2.2208 5.377784022342223 18.888577571891975 -0.14733904263195463 0 0 0
321 0 1 -1.1104 9.581128650969946 14.578232978861505 6.734341074961602 0 0 0
144 0 1 -1.1104 6.727672964546563 20.205329865530633 1.2880331794495183 0 0 0
145 0 1 -1.1104 6.782883055199661 17.421061760016542 4.103344628755124 0 0 0
150 0 1 -1.1104 6.800960630989339 17.487914789554267 1.322145752198277 0 0 0
151 0 1 -1.1104 6.727855674433011 14.718983302834161 4.080347249826661 0 0 0
139 0 1 -1.1104 6.642553009605733 14.833682216674607 1.1461847726245349 0 0 0
152 0 2 2.2208 10.768714400843992 18.88910198670721 5.435355878209862 0 0 0
153 0 1 -1.1104 12.328759977805298 14.571885050093682 1.1517081257519863 0 0 0
154 0 1 -1.1104 12.347685647688632 20.21809796120811 1.2615302061594587 0 0 0
155 0 1 -1.1104 12.208352233550457 14.650517878851268 4.075393232951589 0 0 0
156 0 1 -1.1104 12.279715804624646 20.22030644589219 4.112360514719159 0 0 0
157 0 1 -1.1104 12.30276502103808 17.52241083314099 1.188057454140615 0 0 0
158 0 2 2.2208 11.016361428016776 16.058282958831047 2.6467434334158177 0 0 0
159 0 2 2.2208 10.967448050892555 21.597239863439757 2.665107186761734 0 0 0
160 0 1 -1.1104 12.18093716672814 17.529630432268743 4.148876942782777 0 0 0
161 0 1 -1.1104 9.40072553428995 14.660098603710098 1.089534785497692 0 0 0
162 0 1 -1.1104 9.57751299027941 20.10546067646727 1.2241336410679056 0 0 0
163 0 2 2.2208 8.129513746463445 18.819712096552948 2.6591471833395275 0 0 0
164 0 1 -1.1104 9.62010725393135 14.592124120175255 4.0845259967946035 0 0 0
165 0 1 -1.1104 9.50361133971573 20.33996288424235 4.066650582165607 0 0 0
166 0 2 2.2208 8.154677689188121 15.971092004726728 5.390827575861533 0 0 0
167 0 2 2.2208 8.122729232953262 21.694251856470537 5.455962474485871 0 0 0
168 0 1 -1.1104 9.542878867679212 17.47964147782682 1.2261681023972235 0 0 0
169 0 1 -1.1104 9.582060351457304 17.53133417368066 4.038848144264012 0 0 0
176 0 2 2.2208 10.855164830324123 18.86493932310913 -0.15426182719692552 0 0 0
171 0 2 2.2208 8.092991807458956 21.657629670030968 -0.13785694815478047 0 0 0
237 0 2 2.2208 8.128285725049825 16.11573386653627 -0.19534078466478197 0 0 0
140 0 1 -1.1104 6.742504478208143 14.623121008387363 6.811979625658013 0 0 0
323 0 1 -1.1104 9.52997424626509 17.498164808775176 9.494197407570878 0 0 0
172 0 1 -1.1104 12.342602262916381 20.285725332611282 6.970501066138666 0 0 0
27 0 1 -1.1104 1.0417146809472022 3.5797553294585387 6.670846188021784 0 0 0
181 0 1 -1.1104 1.130300049739361 -2.0905144963231446 6.7311477074463255 0 0 0
180 0 1 -1.1104 1.23867299522672 0.763367255071864 6.6783137222897695 0 0 0
28 0 1 -1.1104 3.950353379411436 0.7146650484564872 6.763251362510819 0 0 0
26 0 1 -1.1104 3.812015676725023 3.4361766003979417 6.700972189039861 0 0 0
21 0 1 -1.1104 3.835116701893157 -2.0699544970031027 6.771595918979112 0 0 0
182 0 2 2.2208 5.190867297564718 2.1261116359634094 10.918345181532766 0 0 0
183 0 1 -1.1104 0.9341365751263703 -2.000740072214416 12.270766054779017 0 0 0
184 0 1 -1.1104 1.0788773851304836 3.5601668034583853 12.232582588042082 0 0 0
185 0 1 -1.1104 1.0896726543153896 -2.1102713678463356 9.504765882105184 0 0 0
186 0 1 -1.1104 1.1295597955252454 3.575798564620755 9.416673497017499 0 0 0
187 0 1 -1.1104 1.1315588783657593 0.7597732942184342 12.234729627154978 0 0 0
188 0 2 2.2208 5.374179106816491 -0.7768910307439031 8.110289584886619 0 0 0
189 0 2 2.2208 5.405847963334647 4.900543075223679 8.101261423705436 0 0 0
190 0 1 -1.1104 1.0814942101948402 0.6834861299859767 9.510115564127561 0 0 0
191 0 1 -1.1104 4.044766349982692 -2.155221220223218 12.309192444446799 0 0 0
192 0 1 -1.1104 3.8969481645729322 3.582790117706772 12.330905139047633 0 0 0
193 0 2 2.2208 2.5471361253973686 2.1206613393165306 8.100060322525833 0 0 0
194 0 1 -1.1104 3.9371115099578593 -2.168983794713991 9.556628366833678 0 0 0
195 0 1 -1.1104 3.9225243579437565 3.4544918677927123 9.449449756174525 0 0 0
196 0 2 2.2208 2.5819938666158233 -0.6295119688383737 10.940553261043108 0 0 0
197 0 2 2.2208 2.4009103483708683 4.962265723787606 10.96802733921015 0 0 0
198 0 1 -1.1104 3.7583002185432672 0.7558377100169223 12.324655364345771 0 0 0
199 0 1 -1.1104 3.798258718678873 0.6919324323531155 9.443585532408429 0 0 0
211 0 1 -1.1104 6.710189581269497 3.4262936333871035 12.307980787576646 0 0 0
207 0 1 -1.1104 6.857327867076943 3.3968232446155584 9.587037581302306 0 0 0
212 0 1 -1.1104 6.631204631409642 0.6055107523045848 9.530493131587356 0 0 0
29 0 1 -1.1104 6.73255664754544 3.471221631543157 6.754916223268668 0 0 0
57 0 1 -1.1104 6.75028200934728 0.6143131996671571 6.6970124424726345 0 0 0
200 0 1 -1.1104 6.731398911481468 -1.9572712208323186 12.417153659678176 0 0 0
209 0 1 -1.1104 6.528727167597419 0.6058622848145634 12.362406927451548 0 0 0
319 0 2 2.2208 8.081958843863225 16.078365846036988 10.977514052561006 0 0 0
313 0 1 -1.1104 6.6667071086601375 17.471635132858193 12.374158241714968 0 0 0
8901 0 2 2.2208 -0.24876020506581753 10.554774295060115 8.253184814820322 0 0 0
60 0 1 -1.1104 9.529046328154099 3.50180872626956 6.684197949981884 0 0 0
214 0 1 -1.1104 9.470338938861142 -2.0595007876015585 6.839979013885564 0 0 0
59 0 1 -1.1104 12.163055959075473 3.61313911920599 6.684260732307535 0 0 0
208 0 1 -1.1104 6.732724264634039 -2.1330588676641917 9.560718573168096 0 0 0
201 0 1 -1.1104 6.792110069731984 -2.139490474096325 6.755217133739556 0 0 0
213 0 1 -1.1104 12.316392073192148 0.6931993286538023 6.820131256395529 0 0 0
215 0 2 2.2208 10.759961742593187 2.0830592331374875 10.992081111787778 0 0 0
216 0 1 -1.1104 12.252188803056386 -2.022454277408117 12.292286462308176 0 0 0
217 0 1 -1.1104 12.341586631562073 3.5698839280715546 12.320328001354124 0 0 0
218 0 1 -1.1104 12.309785598895175 -2.0532605519227847 9.546831231776762 0 0 0
219 0 1 -1.1104 12.42714708900978 3.5967845928119515 9.578272393099171 0 0 0
220 0 1 -1.1104 12.318957257770217 0.8374844168770361 12.214731672956644 0 0 0
221 0 2 2.2208 10.842534572187196 -0.6466104285423653 8.245013623871904 0 0 0
223 0 1 -1.1104 12.246351926506597 0.694673171647981 9.575475191871938 0 0 0
224 0 1 -1.1104 9.378440632327518 -2.1894930069192537 12.370257217169165 0 0 0
225 0 1 -1.1104 9.444547346372334 3.6095077678388523 12.481373159498228 0 0 0
226 0 2 2.2208 8.129637757436567 2.054575312352429 8.107294580414218 0 0 0
227 0 1 -1.1104 9.527246077121509 -2.1731733569401497 9.642918409150889 0 0 0
228 0 1 -1.1104 9.599918605213427 3.4648763136351937 9.56672269511864 0 0 0
229 0 2 2.2208 8.02611360847473 -0.8016189742222958 10.997415108316138 0 0 0
230 0 2 2.2208 8.184815791212117 4.852689493369626 10.937335888891004 0 0 0
231 0 1 -1.1104 9.439927204172218 0.7242593295766966 12.284997317179762 0 0 0
232 0 1 -1.1104 9.487739268281981 0.6424960985852075 9.520450626940375 0 0 0
222 0 2 2.2208 10.875151595661837 4.939199116083668 8.228254235563298 0 0 0
288 0 1 -1.1104 6.627289749527555 20.129540195661267 6.783933293154665 0 0 0
290 0 1 -1.1104 6.803057046695619 17.423718329428095 6.70984710827729 0 0 0
8954 0 2 2.2208 -0.21966129690108716 -0.7015045685490654 2.613072095110969 0 0 0
86 0 1 -1.1104 1.1031981971561167 9.116830639126519 6.9723911326263615 0 0 0
88 0 1 -1.1104 1.0566263140595422 6.430793323333952 6.813306431150604 0 0 0
87 0 1 -1.1104 3.953707770123448 6.1762746591671265 6.772004014633413 0 0 0
91 0 1 -1.1104 1.176335737249283 11.89860346129334 6.785501489505664 0 0 0
89 0 1 -1.1104 4.016825207836075 9.092291748594674 6.738192652905363 0 0 0
238 0 1 -1.1104 3.9564954437091187 11.863593329393666 6.771626432153834 0 0 0
239 0 2 2.2208 5.326958598565244 7.617288418737751 11.024988820605051 0 0 0
240 0 2 2.2208 5.336756101452951 13.348559127538007 10.930959973934234 0 0 0
241 0 1 -1.1104 1.1326381773764085 9.167538553411022 12.30983094217528 0 0 0
242 0 1 -1.1104 1.1134323161056643 9.129187859876877 9.699666931887785 0 0 0
243 0 1 -1.1104 0.995536585099063 6.353261066134682 12.405329306169 0 0 0
244 0 1 -1.1104 1.1087339447587508 11.957013218446116 12.261507536479941 0 0 0
245 0 2 2.2208 5.364414702919651 10.5739587565983 8.165855720060613 0 0 0
246 0 1 -1.1104 1.096448715703285 6.280786113200923 9.613047909890236 0 0 0
247 0 1 -1.1104 1.2754959367568777 12.036053436650175 9.554325681421911 0 0 0
248 0 1 -1.1104 3.9842653431858386 9.067093465178704 12.391099277699588 0 0 0
249 0 2 2.2208 2.479735817880493 7.729022371522327 8.1644629602046 0 0 0
250 0 2 2.2208 2.4710269468681587 13.296931342558983 8.032398924344795 0 0 0
251 0 1 -1.1104 3.8524052217719227 9.180938090124798 9.596338478788027 0 0 0
252 0 2 2.2208 2.606869336987282 10.499032295825424 11.03563173386685 0 0 0
253 0 1 -1.1104 3.6943909904170598 6.368854007734054 12.33192431024928 0 0 0
254 0 1 -1.1104 3.9803969623641553 11.876153150578851 12.455457206012694 0 0 0
255 0 1 -1.1104 3.97615140208315 6.18720914034253 9.517080789719621 0 0 0
256 0 1 -1.1104 3.9973240948401583 11.861756033085868 9.60468212346383 0 0 0
258 0 1 -1.1104 6.679979699071281 12.00190527523862 12.32194512677648 0 0 0
266 0 1 -1.1104 6.663781648788984 9.100525330743707 9.645593468960216 0 0 0
262 0 1 -1.1104 6.7677717335010525 11.827508193745421 6.778619057744952 0 0 0
265 0 1 -1.1104 6.718892293369795 11.829324428791647 9.627111660687534 0 0 0
320 0 1 -1.1104 9.473902018061365 14.616753875875045 9.42833011481812 0 0 0
330 0 1 -1.1104 6.710720595149274 20.175694226478484 12.4410813619321 0 0 0
117 0 1 -1.1104 9.451419182072106 6.225442514360368 6.737662728055663 0 0 0
257 0 1 -1.1104 6.674792984849916 6.217272483942937 9.591990993773175 0 0 0
264 0 1 -1.1104 6.66844339141191 9.087347860289325 12.529482174848702 0 0 0
95 0 1 -1.1104 6.678867069151499 6.240996939926499 6.837164575460829 0 0 0
116 0 1 -1.1104 9.57586674594781 11.754764617624827 6.817017832090069 0 0 0
267 0 1 -1.1104 12.219937102697703 11.848854287793026 6.953378442087054 0 0 0
259 0 1 -1.1104 6.591306249617403 6.233944076822223 12.311443141595305 0 0 0
115 0 1 -1.1104 12.098399318393888 9.128077891333541 6.806027226113399 0 0 0
263 0 1 -1.1104 9.428486859659252 8.99759079934838 6.808669618788855 0 0 0
118 0 1 -1.1104 12.303142664601756 6.425076330843642 6.905570947187508 0 0 0
268 0 1 -1.1104 9.433203753355622 11.873956249639491 9.437119730556226 0 0 0
269 0 1 -1.1104 9.423906589204252 6.237759434952914 9.580351682865622 0 0 0
270 0 1 -1.1104 9.334623916094976 11.822240828742443 12.351954997237996 0 0 0
271 0 1 -1.1104 9.484416831692073 6.2671298799281026 12.3993778951203 0 0 0
272 0 2 2.2208 8.095475098286409 10.453015749467337 10.986860113303639 0 0 0
273 0 1 -1.1104 9.425812801354432 9.094422283597304 9.610740905381665 0 0 0
274 0 2 2.2208 8.164661537225252 13.249743466232207 8.095742236350864 0 0 0
275 0 2 2.2208 8.028184152871114 7.745139835249935 8.199539643390972 0 0 0
276 0 2 2.2208 10.949968894210818 7.700362924813156 10.989498052451589 0 0 0
277 0 2 2.2208 10.800922256503245 13.28927609026373 11.007934962459323 0 0 0
278 0 1 -1.1104 12.272081066197892 9.291404409375126 12.433425168695774 0 0 0
279 0 1 -1.1104 12.305413266317668 9.094241121401408 9.734839986304202 0 0 0
280 0 1 -1.1104 12.216308107620447 6.4089211172070994 12.461537544332662 0 0 0
281 0 1 -1.1104 12.066433753540984 12.007598306602453 12.370026570071397 0 0 0
282 0 2 2.2208 10.786302513188044 10.384611562650178 8.235809296225852 0 0 0
283 0 1 -1.1104 12.157330138783339 6.2980979026434625 9.67933943527562 0 0 0
284 0 1 -1.1104 12.123100706920434 11.902950410783445 9.610800823033252 0 0 0
285 0 1 -1.1104 9.52025478286024 9.2061231346395 12.275928900947067 0 0 0
317 0 2 2.2208 10.963028128135171 18.813125661343257 10.983183122179812 0 0 0
286 0 2 2.2208 13.65145064989284 7.757741633982189 8.13999742248709 0 0 0
92 0 1 -1.1104 12.217567076486995 20.283925977545085 12.480900409266615 0 0 0
314 0 1 -1.1104 6.740032560264359 20.271206808973975 9.549651634516419 0 0 0
293 0 1 -1.1104 6.763887599818206 14.670473693824656 9.553961196217406 0 0 0
312 0 1 -1.1104 6.610461046905014 17.33813079012627 9.59539620314712 0 0 0
148 0 1 -1.1104 1.2207907179329103 17.345285480286478 6.788782148719556 0 0 0
287 0 1 -1.1104 1.1522285638328964 14.680752852024188 6.610807801645396 0 0 0
291 0 1 -1.1104 4.083270698556493 20.157883505689796 6.684214716439384 0 0 0
141 0 1 -1.1104 4.0160830251901425 17.485178701993778 6.652778446593004 0 0 0
327 0 1 -1.1104 6.693191078378877 14.665672694498362 12.301675954113055 0 0 0
142 0 1 -1.1104 4.003903516179944 14.798319103605985 6.676469390503718 0 0 0
292 0 1 -1.1104 1.1623823320183073 20.345844997453504 6.816664500988586 0 0 0
294 0 1 -1.1104 1.1128253692096994 14.806729630313619 12.273185317052393 0 0 0
295 0 2 2.2208 5.303447597791787 18.885339183273384 10.934798833556977 0 0 0
296 0 1 -1.1104 3.9013536116242373 20.263595778066886 9.53936118254345 0 0 0
297 0 1 -1.1104 3.940140761401792 17.595532978994306 9.41530038568296 0 0 0
298 0 2 2.2208 2.623694395357717 18.957035438935442 8.128804251285842 0 0 0
299 0 1 -1.1104 3.843929624677296 14.64702994326607 9.377662662733123 0 0 0
300 0 1 -1.1104 1.2264655800864237 17.427591006459803 12.379624913023084 0 0 0
301 0 2 2.2208 2.5389126347652566 16.19914407705266 10.877037783194051 0 0 0
302 0 2 2.2208 2.564576310716596 21.845873701618313 10.905290577769355 0 0 0
303 0 1 -1.1104 3.8975588133353067 17.530999781593263 12.16662867326364 0 0 0
304 0 1 -1.1104 4.027376726477847 20.295343900132096 12.356593875877616 0 0 0
305 0 1 -1.1104 3.9382241909512423 14.68137458677854 12.21522277923848 0 0 0
306 0 1 -1.1104 1.0979118204460183 20.385418771643476 9.57578495874803 0 0 0
307 0 1 -1.1104 1.166924820425614 17.46644446504699 9.487034533424602 0 0 0
308 0 2 2.2208 5.355370511746957 21.60359355426316 8.151144776215467 0 0 0
309 0 1 -1.1104 1.0903672093551806 14.717961719628928 9.506763496817532 0 0 0
310 0 2 2.2208 5.3358963811861475 16.038117304348802 8.057677751672635 0 0 0
311 0 1 -1.1104 1.2977285468896922 20.182859861672142 12.321901877589744 0 0 0
318 0 2 2.2208 8.144215203785015 18.847122815820693 8.313331770081954 0 0 0
328 0 1 -1.1104 12.346846723239734 17.367785784068612 12.39363532600139 0 0 0
316 0 1 -1.1104 12.184131665180791 14.810687022247295 12.216460400015759 0 0 0
331 0 2 2.2208 10.947298356499829 21.679058724710945 8.254292580301547 0 0 0
146 0 2 2.2208 8.007313974388166 21.586992582815032 11.131911725552381 0 0 0
22 0 1 -1.1104 9.552707285046232 17.312928105654766 12.283020281245532 0 0 0
93 0 2 2.2208 13.666044689326073 13.33949333371143 8.279347418106788 0 0 0
173 0 2 2.2208 13.598143684796396 21.67542394312891 -0.10828186023111523 0 0 0
62 0 2 2.2208 13.594282233915845 10.569388602661538 11.05098048175266 0 0 0
334 0 2 2.2208 13.592205809226131 -0.7439447892636908 -0.17029611252031146 0 0 0
96 0 2 2.2208 13.642595959021012 10.527147003028254 5.44753308601899 0 0 0
9154 0 2 2.2208 -0.22173526041142821 13.34021007839141 10.87646298681821 0 0 0
206 0 2 2.2208 13.621480069609108 4.873739477758656 10.917683259660414 0 0 0
30 0 2 2.2208 13.63190972349639 2.068060010513555 8.217701538940206 0 0 0
9098 0 2 2.2208 -0.22526313802606523 -0.7368439313726025 8.140533102563644 0 0 0
174 0 2 2.2208 13.66479911834265 16.089462665039683 -0.19567627529867127 0 0 0
33 0 2 2.2208 13.57778028332492 16.148934517683372 5.455551356188971 0 0 0
332 0 2 2.2208 13.62847254006848 10.360277659923929 -0.23878145173602097 0 0 0
94 0 2 2.2208 13.629511527827297 13.267374670593032 2.6049902567812517 0 0 0
53 0 2 2.2208 13.658641418628003 18.822663508899723 2.6163837688578813 0 0 0
8925 0 2 2.2208 -0.17498430937939347 2.0682983930981744 5.323709949053829 0 0 0
56 0 2 2.2208 13.654077446884772 2.0680891170809197 2.6461003292738488 0 0 0
235 0 2 2.2208 13.66977197565777 21.6802614609035 11.055528974904853 0 0 0
32 0 2 2.2208 13.66379712398246 18.830702866221422 8.205394672647413 0 0 0
667 0 2 2.2208 2.4126239649881365 2.1459624998954663 13.636213828388003 0 0 0
234 0 2 2.2208 8.030518588615294 10.57281154485074 -0.11554534136344685 0 0 0
568 0 2 2.2208 2.5028628902983754 13.400272719930442 13.63789466594589 0 0 0
510 0 2 2.2208 8.011896588288428 13.296817399999075 13.644694821463586 0 0 0
261 0 2 2.2208 5.310543887796375 13.450239362606421 -0.08225343209519664 0 0 0
668 0 2 2.2208 5.292310519886981 16.100988398819947 13.622459785529996 0 0 0
17336 0 2 2.2208 -0.19107604846115883 -3.4125938242365805 -0.10328746380632836 0 0 0
339 0 2 2.2208 5.177789448746597 2.185038208250527 16.54608189301228 0 0 0
340 0 1 -1.1104 0.9349167021113877 -1.952509815758566 17.967772248879577 0 0 0
341 0 1 -1.1104 1.1176167486770168 3.4933304799041123 17.906110580067875 0 0 0
342 0 1 -1.1104 1.0673471859108168 -2.0746244614255582 15.08032133754404 0 0 0
343 0 1 -1.1104 1.0988234051394414 3.6733035303100805 14.993697525001332 0 0 0
344 0 1 -1.1104 1.0507528652232863 0.8080010666819364 17.917417648561496 0 0 0
345 0 2 2.2208 5.206860557556142 -0.4481316157818867 19.30011752354218 0 0 0
346 0 2 2.2208 5.290999432684055 5.02770796590644 19.29369123725473 0 0 0
347 0 1 -1.1104 0.9291841924371868 0.7168704271297398 15.003936609752996 0 0 0
348 0 1 -1.1104 3.6408177928541465 -1.8244318753972877 18.029983871591607 0 0 0
349 0 1 -1.1104 3.879038291263963 3.407108772855774 17.95586747784235 0 0 0
350 0 2 2.2208 2.442986026672395 2.180259585584822 19.350576856661025 0 0 0
351 0 1 -1.1104 3.7912269232226605 -2.150140400678474 15.217453474980658 0 0 0
352 0 1 -1.1104 3.7137175711317547 3.5683088678494794 15.001133130604417 0 0 0
353 0 2 2.2208 2.405212763078213 -0.5602220785327141 16.6024715749267 0 0 0
354 0 2 2.2208 2.5138820931080033 4.9536035837218675 16.488831850191744 0 0 0
355 0 1 -1.1104 3.8583987406837084 0.893989074493029 17.96249273854327 0 0 0
356 0 1 -1.1104 3.782695853623813 0.7759679349584208 15.20433774235456 0 0 0
367 0 1 -1.1104 6.535207891336415 3.5925919756368896 15.139831106016672 0 0 0
363 0 2 2.2208 5.231960986462534 5.068615194814678 13.783179602150538 0 0 0
8871 0 2 2.2208 10.85525046062716 -3.3535701774012523 16.471055663123384 0 0 0
675 0 2 2.2208 5.285677527266933 -0.6169907839524782 13.805797112722821 0 0 0
368 0 1 -1.1104 6.639103977476888 0.9704239028053248 17.81481142037238 0 0 0
358 0 1 -1.1104 6.603486152066026 0.7420359222574119 15.182083250342263 0 0 0
360 0 1 -1.1104 6.578536632770758 -2.1072245859530256 15.238867645972293 0 0 0
8865 0 2 2.2208 2.4125256421595873 -3.270067894938621 19.303963460131705 0 0 0
515 0 1 -1.1104 0.8915320668012742 0.585316292028675 20.710310562414012 0 0 0
359 0 1 -1.1104 1.0967589371855324 3.5717381038520344 20.67060287563275 0 0 0
365 0 1 -1.1104 3.9774444898328047 -2.1406558451781814 20.768460505164818 0 0 0
648 0 2 2.2208 13.665942543951596 18.835556001404587 25.07925297805624 0 0 0
9451 0 2 2.2208 -0.23382234102638066 16.039689211439796 24.870650011392197 0 0 0