ITEM: TIMESTEP
312
ITEM: NUMBER OF ATOMS
17684
ITEM: BOX BOUNDS pp pp pp
-2.7717828229332220e-01 2.7617178282293317e+01
-3.4472205766305355e+00 3.3152722057663055e+02
-2.7717827830221448e-01 2.7617178278302212e+01
ITEM: ATOMS id type q x y z
1 2 2.2208 5.29381 2.13155 5.309
2 1 -1.1104 1.10621 -2.0571 1.12454
3 1 -1.1104 1.11078 3.52556 1.12467
4 1 -1.1104 1.10623 -2.057 3.91451
5 1 -1.1104 1.11075 3.52567 3.91461
6 1 -1.1104 1.10852 0.734196 1.12512
7 2 2.2208 5.29158 -0.659859 2.51952
8 2 2.2208 5.29613 4.92274 2.51965
9 1 -1.1104 1.10843 0.734342 3.91409
10 1 -1.1104 3.89573 -2.05701 1.12503
11 1 -1.1104 3.90028 3.52556 1.12514
12 2 2.2208 2.50435 2.13143 2.51961
13 1 -1.1104 3.8957 -2.05697 3.91402
14 1 -1.1104 3.9002 3.52566 3.91409
15 2 2.2208 2.50205 -0.65981 5.30902
16 2 2.2208 2.50656 4.92288 5.30914
17 1 -1.1104 3.89797 0.734296 1.12458
18 1 -1.1104 3.89794 0.734315 3.91454
292 2 2.2208 -0.270133 21.6717 8.10011
24 1 -1.1104 3.89788 0.734442 6.70348
262 1 -1.1104 12.2821 20.276 9.49529
288 1 -1.1104 9.49027 17.4837 12.2835
179 1 -1.1104 3.90018 3.52575 6.70401
25 1 -1.1104 3.89571 -2.05689 6.70394
180 1 -1.1104 1.1084 0.734392 6.70403
55 1 -1.1104 6.68743 0.734447 6.70391
258 1 -1.1104 9.49243 20.2747 9.49443
34 1 -1.1104 6.68749 0.734258 1.12499
23 2 2.2208 -0.272301 18.8807 10.8892
315 1 -1.1104 9.48794 14.6917 9.49383
33 1 -1.1104 6.68975 3.52555 1.12457
31 1 -1.1104 6.68524 -2.05696 3.91443
32 1 -1.1104 6.68742 0.734357 3.91398
29 1 -1.1104 6.68519 -2.05699 1.12448
30 1 -1.1104 6.68974 3.52563 3.91451
35 2 2.2208 10.8728 2.13159 5.30885
36 1 -1.1104 12.2641 -2.05714 1.12427
37 1 -1.1104 12.2687 3.52561 1.12442
38 1 -1.1104 12.2642 -2.05704 3.91426
39 1 -1.1104 12.2687 3.52574 3.9144
40 1 -1.1104 12.2665 0.734223 1.12483
41 2 2.2208 10.8706 -0.659915 2.51933
42 1 -1.1104 12.2664 0.734369 3.91381
43 1 -1.1104 9.4747 -2.05713 1.12485
44 1 -1.1104 9.47929 3.52551 1.12499
45 2 2.2208 8.08335 2.13141 2.51947
46 1 -1.1104 9.47469 -2.05699 3.91387
47 1 -1.1104 9.47919 3.52563 3.91394
48 2 2.2208 8.08108 -0.659773 5.3089
49 2 2.2208 8.08558 4.92287 5.30902
50 1 -1.1104 9.47697 0.734205 1.1244
51 1 -1.1104 9.47696 0.7343 3.91435
52 2 2.2208 10.8751 4.92279 2.5195
145 2 2.2208 13.6599 -0.659537 10.8877
321 1 -1.1104 6.69854 14.6913 9.4944
210 1 -1.1104 12.2641 -2.05689 6.70329
211 1 -1.1104 9.47921 3.52584 6.70391
57 1 -1.1104 6.6852 -2.05686 6.70342
207 1 -1.1104 12.2664 0.734535 6.70379
204 2 2.2208 13.6689 10.5061 5.3094
317 1 -1.1104 6.70077 17.483 12.2841
59 2 2.2208 5.2983 7.71418 5.30926
60 2 2.2208 5.30258 13.2967 5.30984
61 1 -1.1104 1.11519 9.10824 1.12507
62 1 -1.1104 1.11518 9.10835 3.91494
63 1 -1.1104 1.11306 6.31689 1.12531
64 1 -1.1104 1.11735 11.8995 1.12575
65 2 2.2208 5.30051 10.5053 2.52006
66 1 -1.1104 1.11292 6.31703 3.91429
67 1 -1.1104 1.11719 11.8997 3.91481
68 1 -1.1104 3.90474 9.10812 1.12547
69 2 2.2208 2.50884 7.71408 2.51988
70 2 2.2208 2.51309 13.2966 2.52042
71 1 -1.1104 3.90461 9.10824 3.91447
72 2 2.2208 2.51093 10.5055 5.30957
73 1 -1.1104 3.90252 6.31688 1.12479
74 1 -1.1104 3.90678 11.8994 1.12529
75 1 -1.1104 3.90249 6.31694 3.91472
76 1 -1.1104 3.9068 11.8995 3.9152
85 1 -1.1104 1.11504 9.10852 6.70395
91 1 -1.1104 6.69641 11.8993 1.12565
80 1 -1.1104 3.90668 11.8997 6.70422
86 1 -1.1104 1.11726 11.8999 6.70467
118 1 -1.1104 6.69409 9.10844 6.7038
206 2 2.2208 13.6668 7.71436 2.51964
236 2 2.2208 13.6645 4.92315 5.30895
237 2 2.2208 13.6623 2.13153 2.51937
81 1 -1.1104 6.69206 6.31682 1.1252
82 1 -1.1104 6.69624 11.8995 3.91465
90 1 -1.1104 6.69423 9.10822 3.91484
88 1 -1.1104 6.69421 9.10812 1.12491
89 1 -1.1104 6.69195 6.31696 3.91416
92 2 2.2208 10.8773 7.71436 5.30915
93 2 2.2208 10.8816 13.2971 5.30978
94 1 -1.1104 12.2732 9.10836 1.12476
95 1 -1.1104 12.2732 9.10853 3.91476
96 1 -1.1104 12.271 6.31697 1.12508
97 1 -1.1104 12.2754 11.8997 1.12561
98 2 2.2208 10.8795 10.5055 2.51993
99 1 -1.1104 12.2709 6.31716 3.91404
100 1 -1.1104 12.2752 11.8999 3.91458
101 1 -1.1104 9.48377 9.10816 1.12533
102 2 2.2208 8.08786 7.71405 2.51974
103 2 2.2208 8.09216 13.2966 2.52031
104 1 -1.1104 9.48363 9.10831 3.91429
105 2 2.2208 8.08999 10.5055 5.30943
106 1 -1.1104 9.48151 6.31687 1.12463
107 1 -1.1104 9.48585 11.8995 1.12512
108 1 -1.1104 9.48152 6.31695 3.91461
109 1 -1.1104 9.48589 11.8996 3.91509
112 1 -1.1104 12.2731 9.10886 6.70369
113 1 -1.1104 6.69196 6.31709 6.70409
110 1 -1.1104 9.48575 11.8999 6.70404
116 1 -1.1104 9.48138 6.31722 6.70355
259 1 -1.1104 6.70058 17.4826 9.49418
318 1 -1.1104 12.2798 17.4847 12.2841
120 2 2.2208 5.30691 18.879 5.31046
121 1 -1.1104 1.11935 14.6908 1.12565
122 1 -1.1104 1.12359 20.273 1.12616
123 1 -1.1104 1.11937 14.6909 3.91551
124 1 -1.1104 1.12366 20.2732 3.91604
125 1 -1.1104 1.12151 17.4819 1.12628
126 2 2.2208 5.30473 16.0877 2.52069
127 2 2.2208 5.30916 21.6697 2.52129
128 1 -1.1104 1.1214 17.4821 3.91542
129 1 -1.1104 3.90896 14.6905 1.12602
130 1 -1.1104 3.91324 20.2725 1.12656
131 2 2.2208 2.51735 18.8789 2.521
132 1 -1.1104 3.90879 14.6907 3.91508
133 1 -1.1104 3.91311 20.2728 3.91564
134 2 2.2208 2.51516 16.0881 5.31019
135 2 2.2208 2.51955 21.6703 5.31071
136 1 -1.1104 3.91096 17.4816 1.12589
137 1 -1.1104 3.91107 17.4818 3.91583
152 1 -1.1104 6.70287 20.2728 3.91617
293 1 -1.1104 1.12146 17.4825 6.70523
177 1 -1.1104 6.69834 14.691 6.70448
290 1 -1.1104 3.9089 14.6909 6.70498
142 1 -1.1104 1.11922 14.6912 6.70459
261 2 2.2208 10.8884 21.6722 8.10032
147 1 -1.1104 6.70273 20.2725 1.12612
151 1 -1.1104 6.70052 17.4818 3.91533
153 1 -1.1104 6.69843 14.6905 1.12553
154 1 -1.1104 6.69847 14.6906 3.9155
150 1 -1.1104 6.70063 17.4815 1.12634
155 2 2.2208 10.886 18.8799 5.31059
156 1 -1.1104 12.2774 14.691 1.1255
157 1 -1.1104 12.2817 20.2735 1.12621
158 1 -1.1104 12.2775 14.6913 3.91558
159 1 -1.1104 12.282 20.274 3.91644
160 1 -1.1104 12.2796 17.4823 1.12644
161 2 2.2208 10.8838 16.0881 2.52071
162 2 2.2208 10.8882 21.6705 2.52146
163 1 -1.1104 12.2795 17.4827 3.91542
164 1 -1.1104 9.48804 14.6907 1.126
165 1 -1.1104 9.49239 20.2729 1.12673
166 2 2.2208 8.09647 18.8789 2.52104
167 1 -1.1104 9.48788 14.6909 3.91497
168 1 -1.1104 9.49227 20.2732 3.91568
169 2 2.2208 8.09428 16.0881 5.31016
170 2 2.2208 8.0988 21.6704 5.31084
171 1 -1.1104 9.49007 17.4818 1.12584
172 1 -1.1104 9.49023 17.4821 3.91592
173 1 -1.1104 9.49258 20.2739 6.70578
176 1 -1.1104 12.2798 17.4834 6.70552
291 2 2.2208 -0.274376 16.0889 8.0996
324 1 -1.1104 6.69852 14.6916 12.2832
320 2 2.2208 10.8838 16.0891 8.09962
9052 2 2.2208 -0.276421 13.2977 10.8887
314 1 -1.1104 9.48816 14.6921 12.2838
148 1 -1.1104 12.2818 20.2749 6.70525
319 1 -1.1104 12.2776 14.6924 9.49447
20 2 2.2208 13.6667 7.71488 8.09856
26 1 -1.1104 1.10614 -2.05694 6.70346
21 1 -1.1104 1.11062 3.52579 6.70357
182 2 2.2208 5.29374 2.13176 10.8878
183 1 -1.1104 1.10617 -2.05685 12.2823
184 1 -1.1104 1.11056 3.52599 12.2824
185 1 -1.1104 1.10618 -2.05689 9.49335
186 1 -1.1104 1.11061 3.52591 9.49345
187 1 -1.1104 1.10836 0.734571 12.2828
188 2 2.2208 5.29156 -0.659681 8.0984
189 2 2.2208 5.29604 4.923 8.0985
190 1 -1.1104 1.10831 0.734504 9.49295
191 1 -1.1104 3.89571 -2.05679 12.2828
192 1 -1.1104 3.9001 3.52594 12.2828
193 2 2.2208 2.50424 2.13164 8.09848
194 1 -1.1104 3.89569 -2.05682 9.49287
195 1 -1.1104 3.90009 3.5259 9.49293
196 2 2.2208 2.50202 -0.659676 10.8878
197 2 2.2208 2.50649 4.92312 10.888
198 1 -1.1104 3.89785 0.734567 12.2823
199 1 -1.1104 3.89786 0.734525 9.49338
212 1 -1.1104 6.68966 3.52592 9.49339
213 1 -1.1104 6.6874 0.734652 12.2827
216 1 -1.1104 6.6896 3.52603 12.2823
205 1 -1.1104 6.68523 -2.05678 9.49333
214 1 -1.1104 6.68738 0.734584 9.49285
235 2 2.2208 13.6599 -0.659759 5.30877
144 2 2.2208 13.6689 10.5067 10.8883
56 1 -1.1104 6.68966 3.52578 6.70346
53 1 -1.1104 9.47471 -2.05688 6.70383
54 1 -1.1104 12.2686 3.52599 6.70336
215 1 -1.1104 6.68522 -2.05673 12.2823
209 1 -1.1104 9.47688 0.734496 6.70333
217 2 2.2208 10.8728 2.13193 10.8878
218 1 -1.1104 12.2642 -2.05674 12.2822
219 1 -1.1104 12.2686 3.52628 12.2822
220 1 -1.1104 12.2642 -2.05679 9.49322
221 1 -1.1104 12.2686 3.52616 9.49332
222 1 -1.1104 12.2663 0.734769 12.2827
223 2 2.2208 10.8705 -0.659627 8.09829
224 2 2.2208 10.875 4.92321 8.09842
225 1 -1.1104 12.2663 0.734692 9.49277
226 1 -1.1104 9.47473 -2.05671 12.2827
227 1 -1.1104 9.47914 3.52616 12.2828
228 2 2.2208 8.0833 2.1317 8.09837
229 1 -1.1104 9.4747 -2.05676 9.49282
230 1 -1.1104 9.47911 3.52606 9.49285
231 2 2.2208 8.08107 -0.659552 10.8878
232 2 2.2208 8.08552 4.92323 10.8879
233 1 -1.1104 9.47689 0.734736 12.2822
234 1 -1.1104 9.47692 0.734643 9.49328
312 1 -1.1104 12.2819 20.2769 12.2838
238 1 -1.1104 12.2775 14.6928 12.2832
84 1 -1.1104 3.90237 6.3171 6.70367
79 1 -1.1104 1.11292 6.31715 6.70418
83 1 -1.1104 3.90465 9.10841 6.70436
240 2 2.2208 5.29827 7.71451 10.8881
241 2 2.2208 5.30265 13.2973 10.8887
242 1 -1.1104 1.11506 9.10887 12.2828
243 1 -1.1104 1.11515 9.10873 9.4938
244 1 -1.1104 1.11287 6.31742 12.283
245 1 -1.1104 1.11731 11.9003 12.2835
246 2 2.2208 5.30046 10.5057 8.09894
247 1 -1.1104 1.11284 6.31733 9.49313
248 1 -1.1104 1.11718 11.9001 9.49368
249 1 -1.1104 3.90465 9.1087 12.2832
250 2 2.2208 2.50875 7.71438 8.09873
251 2 2.2208 2.51304 13.2971 8.09931
252 1 -1.1104 3.90458 9.10863 9.49331
253 2 2.2208 2.51095 10.5059 10.8884
254 1 -1.1104 3.90234 6.31732 12.2825
255 1 -1.1104 3.90677 11.9001 12.283
256 1 -1.1104 3.90243 6.31725 9.49357
257 1 -1.1104 3.90681 11.9 9.49408
268 1 -1.1104 6.69626 11.9 9.49353
265 1 -1.1104 6.69193 6.31742 12.2829
266 1 -1.1104 6.69188 6.3173 9.49301
267 1 -1.1104 6.69413 9.10881 12.2826
264 1 -1.1104 6.6942 9.10866 9.49373
203 2 2.2208 13.6644 4.92352 10.8878
313 2 2.2208 8.09655 18.8798 8.0999
111 1 -1.1104 9.48371 9.10858 6.70424
181 2 2.2208 13.6622 2.13186 8.09828
263 1 -1.1104 6.69642 11.9002 12.2834
115 1 -1.1104 6.69636 11.8997 6.7046
139 2 2.2208 -0.269985 21.6706 2.52128
117 1 -1.1104 12.2709 6.31741 6.70403
114 1 -1.1104 12.2754 11.9003 6.70458
269 1 -1.1104 9.48593 11.9003 9.494
270 1 -1.1104 9.48145 6.31745 9.4935
271 1 -1.1104 9.48587 11.9006 12.2828
272 1 -1.1104 9.48139 6.31762 12.2824
273 2 2.2208 8.09002 10.5061 10.8883
274 1 -1.1104 9.48361 9.10887 9.49315
275 2 2.2208 8.09215 13.2972 8.09923
276 2 2.2208 8.08778 7.71445 8.09862
277 2 2.2208 10.8773 7.71486 10.888
278 2 2.2208 10.8817 13.2979 10.8886
279 1 -1.1104 12.2731 9.10942 12.2825
280 1 -1.1104 12.2732 9.1092 9.49366
281 1 -1.1104 12.2709 6.31783 12.2829
282 1 -1.1104 12.2754 11.9011 12.2834
283 2 2.2208 10.8795 10.5061 8.09883
284 1 -1.1104 12.2708 6.31767 9.49294
285 1 -1.1104 12.2752 11.9008 9.49346
286 1 -1.1104 9.48373 9.10908 12.2831
316 2 2.2208 8.09438 16.0889 10.889
178 1 -1.1104 9.49032 17.4832 9.49481
138 2 2.2208 -0.272221 18.8798 5.31046
9082 2 2.2208 -0.276462 13.2971 5.30988
310 1 -1.1104 1.11935 14.6918 12.2834
289 1 -1.1104 3.9109 17.4821 6.70485
174 1 -1.1104 6.70276 20.2732 6.70507
322 1 -1.1104 6.70298 20.2738 9.49502
141 1 -1.1104 1.12347 20.2738 6.70514
27 1 -1.1104 6.7029 20.2742 12.2837
311 2 2.2208 5.30697 18.8799 10.8892
140 1 -1.1104 3.91326 20.2732 6.70552
294 1 -1.1104 3.9131 20.2737 9.49445
295 1 -1.1104 3.91106 17.4825 9.49468
296 2 2.2208 2.5173 18.8797 8.09987
297 1 -1.1104 3.90881 14.6913 9.49397
298 1 -1.1104 1.12146 17.4832 12.284
299 2 2.2208 2.5152 16.0887 10.889
300 2 2.2208 2.51944 21.6713 10.8894
301 1 -1.1104 3.91103 17.4828 12.2836
302 1 -1.1104 3.91321 20.274 12.2842
303 1 -1.1104 3.909 14.6915 12.2838
304 1 -1.1104 1.12355 20.2742 9.49484
305 1 -1.1104 1.12132 17.4829 9.49428
306 2 2.2208 5.30921 21.6706 8.10012
307 1 -1.1104 1.11938 14.6915 9.49438
308 2 2.2208 5.30474 16.0883 8.0996
309 1 -1.1104 1.1234 20.2746 12.2838
239 2 2.2208 10.8861 18.8813 10.8893
260 1 -1.1104 6.70068 17.4821 6.70532
287 1 -1.1104 12.2796 17.4841 9.49423
323 1 -1.1104 9.49264 20.2753 12.2844
119 2 2.2208 -0.274305 16.0882 2.52072
146 1 -1.1104 12.2773 14.6918 6.70449
175 1 -1.1104 9.48806 14.6913 6.70499
149 1 -1.1104 9.49008 17.4826 6.70479
87 2 2.2208 8.09889 21.6718 10.8895
347 2 2.2208 -0.272154 18.8793 -0.268537
326 2 2.2208 8.09433 16.0877 -0.268833
327 2 2.2208 5.30268 13.2965 -0.269115
340 2 2.2208 10.886 18.8792 -0.268469
344 2 2.2208 10.8817 13.2968 -0.269203
338 2 2.2208 8.09865 21.6697 -0.268198
339 2 2.2208 5.30692 18.8786 -0.26852
341 2 2.2208 2.51523 16.0877 -0.268795
345 2 2.2208 8.09011 10.5053 -0.269477
348 2 2.2208 2.51952 21.6698 -0.268264
337 2 2.2208 8.08109 -0.659932 -0.270062
334 2 2.2208 5.29388 2.13139 -0.269907
333 2 2.2208 2.50669 4.9227 -0.269746
9181 2 2.2208 -0.276335 13.2968 -0.269071
330 2 2.2208 13.66 -0.659973 -0.270182
342 2 2.2208 5.29842 7.71399 -0.269633
328 2 2.2208 13.669 10.5057 -0.269565
331 2 2.2208 13.6646 4.92288 -0.269983
343 2 2.2208 2.51105 10.5053 -0.269328
346 2 2.2208 10.8774 7.71411 -0.269794
329 2 2.2208 2.50211 -0.659933 -0.269914
336 2 2.2208 8.08567 4.92269 -0.269879
335 2 2.2208 10.8729 2.13138 -0.27007
349 2 2.2208 5.29377 2.13178 16.4667
350 1 -1.1104 1.10622 -2.05688 17.861
351 1 -1.1104 1.11064 3.52593 17.8612
352 1 -1.1104 1.10624 -2.05684 15.0721
353 1 -1.1104 1.11061 3.52599 15.0722
354 1 -1.1104 1.10841 0.734524 17.8616
355 2 2.2208 5.29157 -0.659636 19.256
356 2 2.2208 5.29609 4.92303 19.2562
357 1 -1.1104 1.10839 0.734576 15.0717
358 1 -1.1104 3.89574 -2.05677 17.8615
359 1 -1.1104 3.90014 3.52593 17.8617
360 2 2.2208 2.50428 2.13167 19.2561
361 1 -1.1104 3.89572 -2.05679 15.0717
362 1 -1.1104 3.9001 3.52596 15.0717
363 2 2.2208 2.50206 -0.659628 16.4666
364 2 2.2208 2.50651 4.92313 16.4668
365 1 -1.1104 3.89791 0.734592 17.8611
366 1 -1.1104 3.8979 0.734587 15.0722
375 1 -1.1104 6.68743 0.734618 17.8616
658 2 2.2208 -0.272209 18.8796 22.0467
523 1 -1.1104 3.89571 -2.05685 20.6505
374 1 -1.1104 6.68742 0.734657 15.0717
371 1 -1.1104 6.68966 3.52598 17.8611
485 2 2.2208 -0.270393 21.6713 19.2574
546 2 2.2208 13.66 -0.659843 22.0453
580 2 2.2208 13.66 -0.659607 16.4666
581 2 2.2208 13.6623 2.13178 19.256
519 1 -1.1104 1.10623 -2.05691 20.6509
9416 2 2.2208 -0.276305 13.2976 16.4675
376 1 -1.1104 6.68964 3.52603 15.0722
667 1 -1.1104 12.2796 17.4823 26.2306
635 2 2.2208 -0.270104 21.6704 24.8365
373 1 -1.1104 6.68526 -2.05672 15.0721
377 1 -1.1104 6.68525 -2.05676 17.861
378 2 2.2208 10.8728 2.13192 16.4666
379 1 -1.1104 12.2642 -2.05687 17.861
380 1 -1.1104 12.2687 3.52614 17.8611
381 1 -1.1104 12.2642 -2.05678 15.0721
382 1 -1.1104 12.2686 3.52627 15.0722
383 1 -1.1104 12.2664 0.734642 17.8615
384 2 2.2208 10.8706 -0.659676 19.256
385 2 2.2208 10.8751 4.92321 19.2561
386 1 -1.1104 12.2664 0.734746 15.0716
387 1 -1.1104 9.47474 -2.05681 17.8615
388 1 -1.1104 9.47918 3.52606 17.8616
389 2 2.2208 8.08331 2.13174 19.2561
390 1 -1.1104 9.47475 -2.05672 15.0716
391 1 -1.1104 9.47914 3.52617 15.0717
392 2 2.2208 8.08109 -0.659543 16.4666
393 2 2.2208 8.08556 4.92326 16.4667
394 1 -1.1104 9.47694 0.734648 17.861
395 1 -1.1104 9.47691 0.734734 15.0721
582 2 2.2208 13.6645 4.92348 16.4666
578 2 2.2208 13.6668 7.71484 19.2562
551 1 -1.1104 12.2642 -2.05699 20.6508
547 2 2.2208 13.6646 4.92308 22.0455
405 2 2.2208 5.29831 7.7145 16.4669
406 2 2.2208 5.30275 13.2972 16.4674
407 1 -1.1104 1.11515 9.10871 17.8616
408 1 -1.1104 1.11513 9.10885 15.0726
409 1 -1.1104 1.11293 6.31733 17.8618
410 1 -1.1104 1.11737 11.9001 17.8623
411 2 2.2208 5.30061 10.5056 19.2566
412 1 -1.1104 1.11284 6.3174 15.0719
413 1 -1.1104 1.11731 11.9003 15.0724
414 1 -1.1104 3.90469 9.10857 17.862
415 2 2.2208 2.50885 7.71437 19.2564
416 2 2.2208 2.51324 13.297 19.2569
417 1 -1.1104 3.90462 9.10873 15.0721
418 2 2.2208 2.51101 10.5059 16.4672
419 1 -1.1104 3.90245 6.31723 17.8613
420 1 -1.1104 3.90688 11.8999 17.8618
421 1 -1.1104 3.90237 6.31734 15.0724
422 1 -1.1104 3.90688 11.9001 15.0729
429 1 -1.1104 1.11743 11.8998 20.6513
434 1 -1.1104 6.69199 6.31732 17.8618
437 1 -1.1104 6.69642 11.9002 15.0723
436 1 -1.1104 6.69189 6.31741 15.0718
428 1 -1.1104 6.69423 9.10865 17.8614
516 1 -1.1104 12.2798 17.4833 20.6514
545 2 2.2208 13.6623 2.13148 24.8348
630 1 -1.1104 12.2776 14.6913 23.4408
435 1 -1.1104 6.69646 11.9 17.8622
438 1 -1.1104 6.69422 9.10881 15.0725
439 2 2.2208 10.8773 7.71486 16.4668
440 2 2.2208 10.8818 13.2979 16.4673
441 1 -1.1104 12.2732 9.10918 17.8613
442 1 -1.1104 12.2732 9.10939 15.0725
443 1 -1.1104 12.2709 6.31765 17.8617
444 1 -1.1104 12.2755 11.9007 17.8621
445 2 2.2208 10.8796 10.5061 19.2565
446 1 -1.1104 12.2709 6.31781 15.0718
447 1 -1.1104 12.2754 11.901 15.0722
448 1 -1.1104 9.48377 9.10888 17.8619
449 2 2.2208 8.08791 7.71445 19.2563
450 2 2.2208 8.09232 13.2972 19.2568
451 1 -1.1104 9.48372 9.10908 15.072
452 2 2.2208 8.0901 10.506 16.4671
453 1 -1.1104 9.48151 6.31746 17.8612
454 1 -1.1104 9.486 11.9003 17.8616
455 1 -1.1104 9.48143 6.31763 15.0723
456 1 -1.1104 9.48601 11.9006 15.0728
464 1 -1.1104 9.48383 9.1086 20.6508
457 1 -1.1104 6.6965 11.8997 20.6511
458 1 -1.1104 12.2755 11.9003 20.651
459 1 -1.1104 9.48602 11.9 20.6516
460 1 -1.1104 9.48154 6.31722 20.6512
462 1 -1.1104 12.2733 9.10884 20.6513
461 1 -1.1104 12.271 6.31739 20.6506
433 1 -1.1104 9.49019 17.4818 26.2312
579 1 -1.1104 9.49243 20.2738 20.6517
9236 2 2.2208 -0.276243 13.297 22.0463
467 2 2.2208 5.30698 18.8798 16.4679
468 1 -1.1104 1.11954 14.6915 17.8621
469 1 -1.1104 1.12344 20.274 17.8625
470 1 -1.1104 1.11946 14.6917 15.0731
471 1 -1.1104 1.12336 20.2745 15.0734
472 1 -1.1104 1.12149 17.4828 17.8626
473 2 2.2208 5.30489 16.0882 19.2571
474 2 2.2208 5.30897 21.6704 19.2574
475 1 -1.1104 1.12148 17.4831 15.073
476 1 -1.1104 3.90908 14.6912 17.8625
477 1 -1.1104 3.91306 20.2735 17.8628
478 2 2.2208 2.51732 18.8795 19.2573
479 1 -1.1104 3.909 14.6914 15.0727
480 1 -1.1104 3.91313 20.2739 15.0731
481 2 2.2208 2.51532 16.0886 16.4677
482 2 2.2208 2.51926 21.6711 16.468
483 1 -1.1104 3.91113 17.4824 17.8623
484 1 -1.1104 3.91111 17.4827 15.0734
488 1 -1.1104 1.11951 14.6912 20.6519
495 1 -1.1104 6.70076 17.4829 15.0729
637 1 -1.1104 3.91312 20.273 20.6519
633 1 -1.1104 3.90905 14.6909 20.6515
491 1 -1.1104 6.69861 14.6916 15.0731
493 1 -1.1104 6.70072 17.4826 17.8627
490 1 -1.1104 9.48811 14.6909 23.4413
487 1 -1.1104 1.1234 20.2735 20.6522
639 1 -1.1104 3.9111 17.482 20.6522
634 1 -1.1104 6.70075 17.4821 20.6516
638 2 2.2208 -0.274219 16.0881 24.836
486 2 2.2208 -0.274184 16.0887 19.2571
496 1 -1.1104 6.69865 14.6913 17.862
466 2 2.2208 -0.272294 18.8805 16.4678
492 1 -1.1104 6.70287 20.2742 15.0736
494 1 -1.1104 6.70287 20.2737 17.8623
670 1 -1.1104 9.49024 17.4825 20.6521
497 2 2.2208 10.8861 18.8812 16.4678
498 1 -1.1104 12.2777 14.6924 17.8618
499 1 -1.1104 12.282 20.2759 17.8622
500 1 -1.1104 12.2776 14.6928 15.0731
501 1 -1.1104 12.282 20.2767 15.0736
502 1 -1.1104 12.2797 17.4841 17.8626
503 2 2.2208 10.8839 16.089 19.257
504 2 2.2208 10.8882 21.672 19.2573
505 1 -1.1104 12.2798 17.4846 15.0727
506 1 -1.1104 9.48818 14.6917 17.8624
507 1 -1.1104 9.4924 20.2746 17.8629
508 2 2.2208 8.09656 18.8797 19.2573
509 1 -1.1104 9.48814 14.6921 15.0725
510 1 -1.1104 9.49257 20.2753 15.0729
511 2 2.2208 8.09446 16.0889 16.4677
512 2 2.2208 8.09876 21.6716 16.468
513 1 -1.1104 9.49035 17.4832 17.8621
514 1 -1.1104 9.49035 17.4836 15.0734
632 1 -1.1104 12.2817 20.2747 20.6522
605 2 2.2208 8.09648 18.8789 24.8363
665 2 2.2208 8.09442 16.0881 22.0465
601 1 -1.1104 12.2776 14.6918 20.6518
550 2 2.2208 10.8881 21.6704 24.8365
524 1 -1.1104 1.11069 3.52582 20.6511
369 1 -1.1104 3.9002 3.52578 20.6506
399 1 -1.1104 6.68972 3.5258 20.6511
403 1 -1.1104 6.69855 14.6905 26.2309
666 2 2.2208 10.8839 16.0882 24.836
520 1 -1.1104 1.1084 0.734452 20.6505
370 1 -1.1104 3.89789 0.73447 20.651
526 2 2.2208 5.29383 2.13154 22.0455
527 1 -1.1104 1.10622 -2.05704 23.4399
528 1 -1.1104 1.11075 3.52565 23.4401
529 1 -1.1104 1.10627 -2.05709 26.2299
530 1 -1.1104 1.11084 3.52555 26.2301
531 1 -1.1104 1.10847 0.734305 23.4405
532 2 2.2208 5.29159 -0.659865 24.8349
533 1 -1.1104 1.10849 0.734223 26.2295
534 1 -1.1104 3.8957 -2.05695 23.4404
535 1 -1.1104 3.90024 3.52564 23.4406
536 2 2.2208 2.50438 2.13142 24.835
537 1 -1.1104 3.89572 -2.05702 26.2294
538 1 -1.1104 3.9003 3.52553 26.2295
539 2 2.2208 2.50208 -0.65977 22.0455
540 2 2.2208 2.50663 4.92287 22.0457
541 1 -1.1104 3.89796 0.734353 23.44
542 1 -1.1104 3.89796 0.734237 26.23
543 2 2.2208 5.29619 4.92273 24.8351
602 1 -1.1104 12.2818 20.2734 26.2315
553 1 -1.1104 6.68747 0.734261 26.2294
556 1 -1.1104 6.68523 -2.05705 26.2298
558 1 -1.1104 6.68981 3.52553 26.23
517 2 2.2208 8.09857 21.6702 22.0469
397 1 -1.1104 6.68743 0.73447 20.6505
398 1 -1.1104 12.2687 3.52592 20.651
549 1 -1.1104 12.2797 17.4826 23.4416
557 1 -1.1104 6.68519 -2.05699 23.4399
400 1 -1.1104 9.47926 3.52587 20.6505
552 1 -1.1104 9.47473 -2.05691 20.6504
396 1 -1.1104 6.68522 -2.05687 20.6509
402 1 -1.1104 9.47692 0.734491 20.6509
555 1 -1.1104 6.68745 0.734308 23.4404
401 1 -1.1104 12.2664 0.734467 20.6504
554 1 -1.1104 6.68976 3.52563 23.44
559 2 2.2208 10.8728 2.13159 22.0454
560 1 -1.1104 12.2642 -2.05712 23.4397
561 1 -1.1104 12.2687 3.52573 23.4399
562 1 -1.1104 12.2642 -2.05718 26.2296
563 1 -1.1104 12.2688 3.52563 26.2298
564 1 -1.1104 12.2664 0.734317 23.4403
565 2 2.2208 10.8706 -0.659937 24.8348
566 2 2.2208 10.8752 4.92282 24.835
567 1 -1.1104 12.2664 0.734225 26.2292
568 1 -1.1104 9.47469 -2.05706 23.4403
569 1 -1.1104 9.47926 3.52565 23.4404
570 2 2.2208 8.08337 2.13143 24.8349
571 1 -1.1104 9.47469 -2.05711 26.2293
572 1 -1.1104 9.4793 3.52556 26.2294
573 2 2.2208 8.08107 -0.659783 22.0454
574 2 2.2208 8.08566 4.9229 22.0456
575 1 -1.1104 9.47697 0.734323 23.4398
576 1 -1.1104 9.47697 0.734214 26.2298
664 1 -1.1104 6.70276 20.2725 26.2314
522 1 -1.1104 6.70065 17.4817 23.4416
432 1 -1.1104 3.90476 9.10838 20.651
425 1 -1.1104 1.11527 9.10852 20.6515
426 1 -1.1104 3.90252 6.31709 20.6512
668 2 2.2208 10.886 18.8798 22.0467
431 1 -1.1104 3.90696 11.8996 20.6517
430 1 -1.1104 1.11301 6.31716 20.6508
583 2 2.2208 5.29842 7.71416 22.0458
584 2 2.2208 5.30277 13.2967 22.0463
585 1 -1.1104 1.1153 9.10832 23.4405
586 1 -1.1104 1.1153 9.10823 26.2304
587 1 -1.1104 1.11308 6.317 23.4407
588 1 -1.1104 1.11746 11.8996 23.4412
589 2 2.2208 5.30064 10.5053 24.8355
590 1 -1.1104 1.11309 6.3169 26.2297
591 1 -1.1104 1.11737 11.8995 26.2302
592 1 -1.1104 3.90483 9.10821 23.4409
593 2 2.2208 2.50895 7.71407 24.8353
594 2 2.2208 2.51321 13.2966 24.8358
595 1 -1.1104 3.90476 9.10814 26.2299
596 2 2.2208 2.51113 10.5055 22.0461
597 1 -1.1104 3.90256 6.31693 23.4402
598 1 -1.1104 3.90695 11.8995 23.4407
599 1 -1.1104 3.90259 6.31683 26.2302
600 1 -1.1104 3.90692 11.8993 26.2306
608 1 -1.1104 6.69433 9.10823 23.4403
463 1 -1.1104 6.69204 6.31712 20.6507
610 1 -1.1104 6.69207 6.31686 26.2296
427 1 -1.1104 9.48804 14.6907 26.2303
404 2 2.2208 13.6691 10.506 22.0459
489 2 2.2208 13.6669 7.71436 24.8351
465 1 -1.1104 6.69429 9.10841 20.6514
609 1 -1.1104 6.69652 11.8995 23.4411
604 1 -1.1104 6.69641 11.8994 26.2301
607 1 -1.1104 6.69208 6.31692 23.4407
611 1 -1.1104 6.69432 9.1081 26.2303
612 1 -1.1104 9.48387 9.10837 23.4408
613 1 -1.1104 12.2754 11.8998 26.23
614 1 -1.1104 12.2711 6.31703 26.2295
615 2 2.2208 10.8796 10.5056 24.8354
616 1 -1.1104 12.2755 11.9 23.441
617 1 -1.1104 12.2711 6.31713 23.4405
618 1 -1.1104 12.2733 9.10839 26.2302
619 1 -1.1104 12.2733 9.10856 23.4402
620 1 -1.1104 9.48597 11.8995 26.2305
621 1 -1.1104 9.48159 6.31688 26.23
622 1 -1.1104 9.48601 11.8997 23.4405
623 1 -1.1104 9.48159 6.31703 23.4401
624 2 2.2208 8.09018 10.5056 22.046
625 1 -1.1104 9.48379 9.10822 26.2297
626 2 2.2208 8.09229 13.2966 24.8357
627 2 2.2208 8.08796 7.71408 24.8352
628 2 2.2208 10.8775 7.71439 22.0457
629 2 2.2208 10.8818 13.2972 22.0462
662 1 -1.1104 9.49022 17.4821 23.4411
631 1 -1.1104 9.49229 20.2728 26.2309
577 2 2.2208 13.669 10.5067 16.467
659 1 -1.1104 12.2818 20.2738 23.4412
661 1 -1.1104 6.69857 14.6907 23.4409
660 1 -1.1104 6.70271 20.2731 20.6523
671 1 -1.1104 6.69859 14.6909 20.6519
515 1 -1.1104 9.48814 14.6913 20.6513
636 1 -1.1104 1.12157 17.4824 20.6518
640 2 2.2208 2.51933 21.6701 22.0469
641 1 -1.1104 3.91108 17.4817 23.4412
642 1 -1.1104 1.12153 17.482 23.4416
643 1 -1.1104 3.90894 14.6905 26.2305
644 1 -1.1104 3.91107 17.4816 26.2312
645 2 2.2208 2.51735 18.8789 24.8363
646 1 -1.1104 3.91313 20.2725 26.2309
647 2 2.2208 5.30693 18.879 22.0468
648 1 -1.1104 1.1195 14.6909 23.441
649 1 -1.1104 1.12355 20.2731 23.4414
650 2 2.2208 5.30482 16.0877 24.8361
651 2 2.2208 5.30902 21.6696 24.8365
652 1 -1.1104 1.11946 14.6908 26.2309
653 1 -1.1104 1.12149 17.4819 26.2308
654 1 -1.1104 1.12362 20.273 26.2313
655 1 -1.1104 3.90903 14.6906 23.4414
656 1 -1.1104 3.91312 20.2727 23.4418
657 2 2.2208 2.51532 16.088 22.0466
606 1 -1.1104 6.70276 20.2727 23.4414
663 1 -1.1104 9.49229 20.2731 23.4418
603 1 -1.1104 12.2776 14.6911 26.2308
669 1 -1.1104 6.7006 17.4816 26.2307
692 2 2.2208 10.8796 10.5065 13.6776
697 2 2.2208 10.8839 16.0897 13.6783
693 2 2.2208 8.09226 13.2976 13.678
678 2 2.2208 13.6622 2.132 13.6772
674 2 2.2208 10.8884 21.6735 13.6787
675 2 2.2208 2.51315 13.2974 13.6781
694 2 2.2208 5.30486 16.0887 13.6783
695 2 2.2208 2.5173 18.8801 13.6785
682 2 2.2208 5.30915 21.6712 13.6787
676 2 2.2208 8.09663 18.8805 13.6785
696 2 2.2208 -0.270389 21.6723 13.6787
684 2 2.2208 -0.274291 16.0892 13.6783
691 2 2.2208 8.08782 7.71471 13.6775
681 2 2.2208 2.50423 2.13176 13.6773
677 2 2.2208 13.6667 7.71518 13.6774
689 2 2.2208 2.50875 7.71456 13.6775
690 2 2.2208 5.30053 10.506 13.6778
685 2 2.2208 8.08327 2.13189 13.6772
683 2 2.2208 5.29156 -0.659579 13.6772
680 2 2.2208 5.296 4.92317 13.6773
687 2 2.2208 10.875 4.92345 13.6773
688 2 2.2208 10.8706 -0.659503 13.6772
698 2 2.2208 5.31153 24.461 5.31105
699 2 2.2208 5.31678 30.0427 5.3117
700 1 -1.1104 1.1279 25.8548 1.12674
701 1 -1.1104 1.12812 25.8552 3.91659
702 1 -1.1104 1.12585 23.064 1.12677
703 1 -1.1104 1.13043 28.6457 1.12746
704 2 2.2208 5.31388 27.2514 2.52207
705 1 -1.1104 1.12573 23.0643 3.91595
706 1 -1.1104 1.1303 28.646 3.91652
707 1 -1.1104 3.91768 25.8542 1.12721
708 2 2.2208 2.52183 24.4609 2.52157
709 2 2.2208 2.52705 30.0426 2.52237
710 1 -1.1104 3.9176 25.8544 3.91622
711 2 2.2208 2.52426 27.2522 5.31129
712 1 -1.1104 3.91531 23.0634 1.12641
713 1 -1.1104 3.91988 28.6448 1.12717
714 1 -1.1104 3.91551 23.0637 3.91634
715 1 -1.1104 3.92023 28.6451 3.91707
729 1 -1.1104 6.70977 28.6449 3.91659
727 1 -1.1104 6.70716 25.854 1.12678
724 1 -1.1104 6.70753 25.8544 3.91687
869 2 2.2208 -0.268234 24.4636 10.8896
725 1 -1.1104 6.70501 23.0636 3.91591
1024 2 2.2208 8.07892 46.7417 8.04129
810 2 2.2208 -0.2305 43.9977 2.51856
871 1 -1.1104 1.12781 25.8559 6.70572
985 2 2.2208 -0.214534 43.9938 8.09317
728 1 -1.1104 6.70507 23.0633 1.12695
726 1 -1.1104 6.70975 28.6448 1.12786
730 2 2.2208 10.8907 24.4625 5.31136
731 2 2.2208 10.8956 30.0451 5.31235
732 1 -1.1104 12.2862 25.8554 1.12676
733 1 -1.1104 12.2868 25.8563 3.91726
734 1 -1.1104 12.2841 23.0645 1.12713
735 1 -1.1104 12.2888 28.6462 1.12779
736 2 2.2208 10.8928 27.2526 2.5223
737 1 -1.1104 12.2841 23.0651 3.9161
738 1 -1.1104 12.2888 28.6471 3.91691
739 1 -1.1104 9.49694 25.8546 1.12746
740 2 2.2208 8.10105 24.4608 2.52174
741 2 2.2208 8.10601 30.0427 2.5228
742 1 -1.1104 9.49695 25.8551 3.91636
743 2 2.2208 8.10364 27.2524 5.31157
744 1 -1.1104 9.4945 23.0638 1.12644
745 1 -1.1104 9.49904 28.6452 1.12721
746 1 -1.1104 9.49483 23.0643 3.91668
747 1 -1.1104 9.49973 28.6459 3.91758
779 1 -1.1104 9.41898 48.0635 6.71911
836 2 2.2208 -0.21472 46.7924 5.3027
986 2 2.2208 -0.229477 46.7904 10.8835
1006 2 2.2208 8.12543 44.0158 -0.260491
894 1 -1.1104 6.70743 25.855 6.70564
752 2 2.2208 5.32444 35.6251 5.3128
753 1 -1.1104 1.13295 31.4362 1.12723
754 1 -1.1104 1.14009 37.0178 1.12744
755 1 -1.1104 1.13325 31.4367 3.91721
756 1 -1.1104 1.14083 37.0182 3.91797
757 1 -1.1104 1.13635 34.2273 1.12828
758 2 2.2208 5.31984 32.8335 2.52333
759 2 2.2208 5.32933 38.4185 2.52517
760 1 -1.1104 1.13644 34.2272 3.9166
761 1 -1.1104 3.92278 31.4357 1.12825
762 1 -1.1104 3.92961 37.0184 1.12992
763 2 2.2208 2.53505 35.6247 2.52334
764 1 -1.1104 3.9228 31.4357 3.91684
765 1 -1.1104 3.93013 37.0172 3.91711
766 2 2.2208 2.53057 32.8338 5.31181
767 2 2.2208 2.5428 38.4158 5.31203
768 1 -1.1104 3.92559 34.2264 1.12806
769 1 -1.1104 3.92618 34.2265 3.91811
784 1 -1.1104 6.71204 31.4354 1.12779
781 1 -1.1104 6.71558 34.2259 3.91737
772 1 -1.1104 3.93026 37.0161 6.70806
780 1 -1.1104 6.71934 37.0148 6.70688
775 1 -1.1104 6.71838 37.018 1.12908
783 1 -1.1104 6.71912 37.0169 3.9192
806 1 -1.1104 6.71592 34.2255 6.7076
953 1 -1.1104 6.71262 31.4356 6.70617
979 2 2.2208 5.33355 41.2127 -0.261455
1010 1 -1.1104 9.51888 45.4012 12.4422
777 1 -1.1104 1.13269 31.4374 6.7061
949 2 2.2208 2.55348 44.0027 -0.262553
776 1 -1.1104 6.71273 31.4355 3.91775
782 1 -1.1104 6.71532 34.2266 1.12936
785 2 2.2208 10.9011 35.6285 5.31381
786 1 -1.1104 12.2909 31.4367 1.12747
787 1 -1.1104 12.2959 37.0179 1.12862
788 1 -1.1104 12.292 31.4378 3.91827
789 1 -1.1104 12.2981 37.0174 3.91844
790 1 -1.1104 12.2939 34.2272 1.12844
791 2 2.2208 10.8977 32.8349 2.52367
792 2 2.2208 10.9009 38.4198 2.52644
793 1 -1.1104 12.2943 34.2278 3.91801
794 1 -1.1104 9.50191 31.436 1.12849
795 1 -1.1104 9.50743 37.0189 1.13014
796 2 2.2208 8.11199 35.6263 2.52489
797 1 -1.1104 9.50206 31.4363 3.91719
798 1 -1.1104 9.50782 37.0178 3.91857
799 2 2.2208 8.10933 32.8346 5.31241
800 2 2.2208 8.11618 38.4196 5.31581
801 1 -1.1104 9.50412 34.2269 1.12863
802 1 -1.1104 9.50548 34.2272 3.91863
804 1 -1.1104 12.2981 37.0211 6.70929
1026 2 2.2208 10.8988 35.6251 -0.264353
951 2 2.2208 5.35171 46.8026 -0.258979
831 2 2.2208 8.11469 38.4194 -0.262696
749 2 2.2208 2.53897 38.4162 -0.263936
1027 2 2.2208 5.32274 35.6248 -0.26419
1032 2 2.2208 -0.255893 35.6238 -0.266675
812 2 2.2208 5.339 41.2114 5.31364
813 2 2.2208 5.34648 46.8089 5.30332
814 1 -1.1104 1.1507 42.6015 1.12636
815 1 -1.1104 1.15305 42.6029 3.91721
816 1 -1.1104 1.14516 39.8106 1.1295
817 1 -1.1104 1.15499 45.3974 1.12785
818 2 2.2208 5.34589 44.0105 2.52567