ITEM: TIMESTEP
310
ITEM: NUMBER OF ATOMS
17692
ITEM: BOX BOUNDS pp pp pp
-2.7717828229332220e-01 2.7617178282293317e+01
-3.4472205766305355e+00 3.3152722057663055e+02
-2.7717827830221448e-01 2.7617178278302212e+01
ITEM: ATOMS id type q x y z
1 2 2.2208 5.27447 2.13441 5.31381
2 1 -1.1104 1.08836 -2.05345 1.12863
3 1 -1.1104 1.0908 3.52828 1.12965
4 1 -1.1104 1.08841 -2.05348 3.91838
5 1 -1.1104 1.09098 3.52834 3.91937
6 1 -1.1104 1.08969 0.737403 1.12941
7 2 2.2208 5.27324 -0.656496 2.52384
8 2 2.2208 5.27571 4.92525 2.52483
9 1 -1.1104 1.08956 0.737399 3.91861
10 1 -1.1104 3.87796 -2.05341 1.12892
11 1 -1.1104 3.88039 3.52833 1.12998
12 2 2.2208 2.48498 2.13434 2.52428
13 1 -1.1104 3.87778 -2.05342 3.91814
14 1 -1.1104 3.88033 3.52831 3.91916
15 2 2.2208 2.48368 -0.656535 5.31324
16 2 2.2208 2.48627 4.92531 5.31423
17 1 -1.1104 3.87907 0.737442 1.1292
18 1 -1.1104 3.87916 0.737452 3.91893
29 1 -1.1104 6.66993 3.52838 3.91953
24 1 -1.1104 6.66976 3.52834 1.12977
338 2 2.2208 13.6526 21.6741 10.8954
202 2 2.2208 13.6441 4.9258 10.8931
165 2 2.2208 8.07389 21.6697 -0.26237
20 2 2.2208 2.48377 -0.656538 -0.265707
23 1 -1.1104 6.66738 -2.05339 3.91846
166 2 2.2208 13.6428 2.13465 8.10331
169 1 -1.1104 3.88045 3.52845 6.70887
25 1 -1.1104 6.66735 -2.05337 1.12871
19 1 -1.1104 6.66852 0.737476 3.91873
22 1 -1.1104 6.66867 0.737486 1.12955
30 2 2.2208 10.8534 2.13452 5.31392
31 1 -1.1104 12.2462 -2.05342 1.12886
32 1 -1.1104 12.2487 3.52854 1.12979
33 1 -1.1104 12.2463 -2.05347 3.91857
34 1 -1.1104 12.2488 3.52855 3.91954
35 1 -1.1104 12.2476 0.737586 1.12962
36 2 2.2208 10.8522 -0.656446 2.52396
37 1 -1.1104 12.2475 0.737552 3.91883
38 1 -1.1104 9.45693 -2.05336 1.12904
39 1 -1.1104 9.45932 3.52843 1.13008
40 2 2.2208 8.06397 2.13441 2.52441
41 1 -1.1104 9.45673 -2.05338 3.91826
42 1 -1.1104 9.45931 3.52845 3.91926
43 2 2.2208 8.06265 -0.656466 5.31338
44 2 2.2208 8.06527 4.92541 5.31431
45 1 -1.1104 9.45802 0.737532 1.12934
46 1 -1.1104 9.45813 0.737546 3.91909
47 2 2.2208 10.8547 4.92544 2.52486
208 1 -1.1104 12.2475 0.737587 6.70855
285 2 2.2208 13.6454 7.71684 8.10414
52 2 2.2208 13.6512 18.8806 2.52681
190 1 -1.1104 6.66715 -2.05337 6.70763
207 1 -1.1104 12.2461 -2.05343 6.70775
195 2 2.2208 13.6453 7.71656 2.52524
58 2 2.2208 5.277 7.71625 5.31467
59 2 2.2208 5.27962 13.298 5.31537
60 1 -1.1104 1.09322 9.11006 1.13059
61 1 -1.1104 1.09341 9.1102 3.9203
62 1 -1.1104 1.09212 6.3192 1.13042
63 1 -1.1104 1.09462 11.9009 1.13121
64 2 2.2208 5.27819 10.507 2.52555
65 1 -1.1104 1.0921 6.31927 3.91961
66 1 -1.1104 1.09454 11.9011 3.9204
67 1 -1.1104 3.88281 9.11002 1.13083
68 2 2.2208 2.48745 7.71616 2.52524
69 2 2.2208 2.49007 13.2979 2.52595
70 1 -1.1104 3.88278 9.11013 3.92
71 2 2.2208 2.48877 10.5072 5.31505
72 1 -1.1104 3.88148 6.31917 1.13018
73 1 -1.1104 3.88404 11.9008 1.13087
74 1 -1.1104 3.88168 6.31922 3.91989
75 1 -1.1104 3.88419 11.901 3.92062
77 1 -1.1104 6.67106 6.31919 1.13045
336 2 2.2208 10.8534 2.1345 -0.265026
57 2 2.2208 5.27686 7.71609 -0.264252
83 1 -1.1104 6.67239 9.11014 3.92025
78 1 -1.1104 6.67106 6.31925 3.91963
84 1 -1.1104 3.88296 9.11027 6.70969
80 1 -1.1104 6.67366 11.9008 1.13116
109 2 2.2208 13.648 13.2985 2.52603
51 2 2.2208 8.06511 4.92532 -0.264619
230 1 -1.1104 3.88162 6.31934 6.70903
232 1 -1.1104 1.09335 9.1104 6.70948
231 1 -1.1104 6.67377 11.9013 6.71005
56 2 2.2208 8.06274 -0.656456 -0.265576
76 1 -1.1104 6.67223 9.11 1.1305
79 1 -1.1104 6.67357 11.901 3.92029
90 2 2.2208 10.856 7.7165 5.31469
91 2 2.2208 10.8586 13.2985 5.31542
92 1 -1.1104 12.2512 9.1104 1.13053
93 1 -1.1104 12.2513 9.11052 3.92032
94 1 -1.1104 12.25 6.31949 1.13047
95 1 -1.1104 12.2526 11.9013 1.13123
96 2 2.2208 10.8572 10.5073 2.52559
97 1 -1.1104 12.25 6.31955 3.91965
98 1 -1.1104 12.2525 11.9015 3.92034
99 1 -1.1104 9.46178 9.11017 1.13081
100 2 2.2208 8.06641 7.71619 2.52522
101 2 2.2208 8.06909 13.2979 2.52592
102 1 -1.1104 9.46176 9.1103 3.91996
103 2 2.2208 8.06775 10.5073 5.315
104 1 -1.1104 9.46046 6.3193 1.13018
105 1 -1.1104 9.46303 11.901 1.13082
106 1 -1.1104 9.46065 6.3194 3.91994
107 1 -1.1104 9.4632 11.9012 3.92065
260 1 -1.1104 12.2513 9.11073 6.70945
261 1 -1.1104 9.46193 9.11051 6.7097
108 2 2.2208 10.8558 7.71628 -0.264257
162 2 2.2208 13.6529 21.6711 -0.262348
198 2 2.2208 13.6414 -0.656417 10.8922
88 2 2.2208 13.6466 10.5078 5.31509
113 2 2.2208 5.28254 18.8796 5.31613
114 1 -1.1104 1.09591 14.6917 1.13128
115 1 -1.1104 1.09892 20.2731 1.13201
116 1 -1.1104 1.09601 14.6919 3.921
117 1 -1.1104 1.09893 20.2735 3.9217
118 1 -1.1104 1.09752 17.4825 1.1319
119 2 2.2208 5.28108 16.0886 2.52631
120 2 2.2208 5.2842 21.6697 2.5271
121 1 -1.1104 1.09728 17.4828 3.92114
122 1 -1.1104 3.88558 14.6915 1.13153
123 1 -1.1104 3.88864 20.2727 1.13228
124 2 2.2208 2.49301 18.8793 2.5267
125 1 -1.1104 3.88543 14.6918 3.9207
126 1 -1.1104 3.88839 20.2731 3.92144
127 2 2.2208 2.49148 16.0889 5.31576
128 2 2.2208 2.4944 21.6703 5.3165
129 1 -1.1104 3.88697 17.4822 1.13162
130 1 -1.1104 3.88704 17.4825 3.9214
132 1 -1.1104 6.67673 17.4822 1.13196
141 1 -1.1104 6.67816 20.2728 1.13196
131 1 -1.1104 6.67513 14.6918 3.92102
136 1 -1.1104 6.67499 14.6916 1.13118
137 1 -1.1104 6.67653 17.4825 3.92106
324 1 -1.1104 6.67664 17.4829 6.71086
314 1 -1.1104 6.67804 20.2735 6.71086
138 1 -1.1104 1.09738 17.4831 6.71078
295 1 -1.1104 1.09863 20.2739 6.71093
294 1 -1.1104 3.88687 17.4828 6.7105
134 2 2.2208 2.49458 21.6696 -0.262422
321 1 -1.1104 12.254 14.6929 6.71015
168 2 2.2208 13.6495 16.09 5.31589
164 1 -1.1104 12.2557 17.4841 6.71105
140 1 -1.1104 6.67827 20.2731 3.92186
316 1 -1.1104 9.46768 20.2749 9.50027
329 1 -1.1104 9.4647 14.6925 6.7105
142 2 2.2208 10.8617 18.8804 5.31624
143 1 -1.1104 12.254 14.6922 1.13121
144 1 -1.1104 12.2573 20.2739 1.13198
145 1 -1.1104 12.2541 14.6925 3.92113
146 1 -1.1104 12.2575 20.2744 3.92207
147 1 -1.1104 12.2557 17.4831 1.13204
148 2 2.2208 10.8601 16.0891 2.52636
149 2 2.2208 10.8635 21.6707 2.52724
150 1 -1.1104 12.2555 17.4835 3.92112
151 1 -1.1104 9.46466 14.6918 1.1316
152 1 -1.1104 9.46796 20.2732 1.13246
153 2 2.2208 8.07223 18.8794 2.52675
154 1 -1.1104 9.4645 14.6921 3.92068
155 1 -1.1104 9.46773 20.2736 3.92149
156 2 2.2208 8.0706 16.0891 5.31579
157 2 2.2208 8.07385 21.6705 5.31661
158 1 -1.1104 9.46613 17.4826 1.13157
159 1 -1.1104 9.46626 17.4829 3.92153
323 1 -1.1104 9.46791 20.2742 6.71144
334 1 -1.1104 9.46605 17.4834 6.71049
163 1 -1.1104 12.2572 20.2752 6.71099
28 2 2.2208 5.27445 2.13438 -0.265113
26 1 -1.1104 3.8778 -2.05342 6.70787
337 2 2.2208 13.6529 21.6724 5.31679
167 1 -1.1104 3.87898 0.737493 6.70809
27 1 -1.1104 1.08821 -2.05343 6.7076
171 1 -1.1104 1.09084 3.52845 6.70852
170 1 -1.1104 1.08962 0.7375 6.70833
172 2 2.2208 5.27433 2.13455 10.8926
173 1 -1.1104 1.08804 -2.05339 12.2864
174 1 -1.1104 1.09073 3.52868 12.2873
175 1 -1.1104 1.08821 -2.05343 9.49732
176 1 -1.1104 1.09091 3.52857 9.49823
177 1 -1.1104 1.08948 0.737636 12.2872
178 2 2.2208 5.27307 -0.656453 8.10273
179 2 2.2208 5.27575 4.92544 8.10369
180 1 -1.1104 1.08942 0.737572 9.49748
181 1 -1.1104 3.87761 -2.05342 12.2867
182 1 -1.1104 3.88031 3.52862 12.2877
183 2 2.2208 2.48495 2.1345 8.10317
184 1 -1.1104 3.87757 -2.05339 9.49704
185 1 -1.1104 3.88027 3.52855 9.498
186 2 2.2208 2.4835 -0.65642 10.8921
187 2 2.2208 2.48625 4.92559 10.893
188 1 -1.1104 3.87882 0.737609 12.2869
189 1 -1.1104 3.87902 0.73757 9.49781
201 1 -1.1104 6.66838 0.737566 12.2873
21 2 2.2208 2.48616 4.92522 -0.264687
191 1 -1.1104 6.66969 3.52858 12.2874
54 2 2.2208 13.6416 -0.656487 -0.265518
333 1 -1.1104 9.46479 14.693 12.2892
326 1 -1.1104 9.46623 17.4839 9.50034
205 1 -1.1104 9.45796 0.737571 6.70823
197 1 -1.1104 6.66983 3.52846 6.70868
200 1 -1.1104 6.66987 3.52854 9.49836
55 2 2.2208 13.644 4.92549 -0.264614
203 1 -1.1104 6.66859 0.737533 6.70846
193 1 -1.1104 6.66839 0.737573 9.49758
199 1 -1.1104 6.66696 -2.05344 12.2865
192 1 -1.1104 6.66717 -2.05342 9.49737
206 1 -1.1104 9.45942 3.52854 6.70899
48 1 -1.1104 12.2487 3.52863 6.70869
204 1 -1.1104 9.45676 -2.05341 6.708
209 2 2.2208 10.8533 2.1346 10.8927
210 1 -1.1104 12.2459 -2.05344 12.2866
211 1 -1.1104 12.2486 3.52875 12.2875
212 1 -1.1104 12.2461 -2.05345 9.49744
213 1 -1.1104 12.2488 3.52872 9.49841
214 1 -1.1104 12.2474 0.737608 12.2873
215 2 2.2208 10.852 -0.656432 8.10285
216 2 2.2208 10.8547 4.9256 8.10374
217 1 -1.1104 12.2474 0.737637 9.49766
218 1 -1.1104 9.45655 -2.05348 12.2868
219 1 -1.1104 9.45925 3.52859 12.2878
220 2 2.2208 8.06391 2.13451 8.10329
221 1 -1.1104 9.45656 -2.05341 9.49714
222 1 -1.1104 9.45925 3.52861 9.49809
223 2 2.2208 8.06248 -0.65646 10.8922
224 2 2.2208 8.06521 4.92556 10.8931
225 1 -1.1104 9.45778 0.737568 12.287
226 1 -1.1104 9.45798 0.737587 9.49794
49 2 2.2208 13.6416 -0.656474 5.31343
229 1 -1.1104 1.09472 11.9014 6.71005
228 1 -1.1104 1.09225 6.31943 6.70928
81 1 -1.1104 3.88414 11.9012 6.70978
233 2 2.2208 5.27707 7.71654 10.8934
234 2 2.2208 5.27973 13.2984 10.8942
235 1 -1.1104 1.09345 9.11063 12.2882
236 1 -1.1104 1.09352 9.11059 9.49908
237 1 -1.1104 1.0922 6.31966 12.2881
238 1 -1.1104 1.0948 11.9016 12.2888
239 2 2.2208 5.27834 10.5074 8.10441
240 1 -1.1104 1.09212 6.31958 9.49842
241 1 -1.1104 1.09466 11.9016 9.49921
242 1 -1.1104 3.88304 9.11056 12.2885
243 2 2.2208 2.48757 7.71645 8.10407
244 2 2.2208 2.49014 13.2983 8.10479
245 1 -1.1104 3.88292 9.11048 9.4988
246 2 2.2208 2.48891 10.5075 10.8938
247 1 -1.1104 3.8816 6.31962 12.2878
248 1 -1.1104 3.88429 11.9015 12.2886
249 1 -1.1104 3.88173 6.31953 9.49869
250 1 -1.1104 3.88433 11.9014 9.49945
256 1 -1.1104 6.67249 9.11059 12.2882
252 1 -1.1104 6.67113 6.31952 9.49845
251 1 -1.1104 6.67375 11.9015 9.49913
266 1 -1.1104 6.67118 6.31958 12.2881
255 1 -1.1104 6.67392 11.9016 12.2888
194 2 2.2208 13.6441 4.92562 5.31432
53 2 2.2208 13.6428 2.13456 2.52443
258 2 2.2208 13.648 13.2992 8.1049
264 2 2.2208 13.6467 10.5082 10.8939
85 1 -1.1104 6.67234 9.11032 6.70937
263 1 -1.1104 12.2501 6.31968 6.7094
254 1 -1.1104 6.67252 9.11052 9.49907
111 1 -1.1104 6.67123 6.31939 6.70936
265 1 -1.1104 9.46312 11.9015 6.70972
262 1 -1.1104 12.2527 11.9019 6.71015
259 1 -1.1104 9.46061 6.31951 6.70907
267 1 -1.1104 9.46334 11.9018 9.49949
268 1 -1.1104 9.4607 6.31964 9.49877
269 1 -1.1104 9.46331 11.9019 12.2885
270 1 -1.1104 9.46054 6.31967 12.2878
271 2 2.2208 8.06791 10.5076 10.8938
272 1 -1.1104 9.46188 9.11071 9.49878
273 2 2.2208 8.06918 13.2985 8.10476
274 2 2.2208 8.06655 7.71649 8.10408
275 2 2.2208 10.856 7.71678 10.8935
276 2 2.2208 10.8587 13.2991 10.8942
277 1 -1.1104 12.2513 9.11105 12.2882
278 1 -1.1104 12.2514 9.11095 9.49915
279 1 -1.1104 12.25 6.31987 12.2882
280 1 -1.1104 12.2528 11.9023 12.2889
281 2 2.2208 10.8573 10.5077 8.10446
282 1 -1.1104 12.25 6.31981 9.49848
283 1 -1.1104 12.2526 11.9021 9.49916
284 1 -1.1104 9.462 9.11079 12.2885
257 2 2.2208 10.8601 16.0899 8.10521
253 1 -1.1104 12.2573 20.2761 9.50095
332 1 -1.1104 12.2572 20.2767 12.2896
292 1 -1.1104 3.8856 14.692 6.7104
317 1 -1.1104 12.2541 14.6936 12.2888
319 1 -1.1104 6.67522 14.6924 9.49982
287 1 -1.1104 6.67664 17.4834 12.2896
325 1 -1.1104 6.6765 17.4832 9.49986
293 1 -1.1104 3.88847 20.2734 6.71117
288 1 -1.1104 1.0959 14.6922 6.71018
296 1 -1.1104 1.09597 14.6926 12.289
297 2 2.2208 5.28248 18.8802 10.8949
298 1 -1.1104 3.88825 20.2738 9.50027
299 1 -1.1104 3.88696 17.4831 9.50018
300 2 2.2208 2.49282 18.88 8.10554
301 1 -1.1104 3.88552 14.6923 9.49952
302 1 -1.1104 1.09729 17.4835 12.2895
303 2 2.2208 2.49147 16.0894 10.8945
304 2 2.2208 2.49422 21.671 10.8952
305 1 -1.1104 3.88687 17.4832 12.2893
306 1 -1.1104 3.88835 20.274 12.2899
307 1 -1.1104 3.88566 14.6924 12.2892
308 1 -1.1104 1.09866 20.2743 9.50051
309 1 -1.1104 1.09721 17.4834 9.49997
310 2 2.2208 5.28406 21.6706 8.10593
311 1 -1.1104 1.09604 14.6925 9.4998
312 2 2.2208 5.28106 16.0891 8.10515
313 1 -1.1104 1.09852 20.2744 12.2897
289 1 -1.1104 6.67805 20.2742 12.2896
291 1 -1.1104 6.67518 14.6925 12.2888
133 1 -1.1104 6.67503 14.6921 6.71008
286 2 2.2208 10.8634 21.6722 8.10613
50 2 2.2208 13.6495 16.0909 10.8946
290 2 2.2208 13.651 18.8819 8.10572
320 1 -1.1104 12.2555 17.4847 9.49995
328 1 -1.1104 9.46461 14.6928 9.49947
196 2 2.2208 8.07377 21.6716 10.8953
86 1 -1.1104 12.2542 14.6934 9.49996
330 2 2.2208 8.07215 18.8803 8.1056
227 1 -1.1104 12.2557 17.4851 12.2897
318 1 -1.1104 6.67817 20.274 9.50069
315 2 2.2208 8.07066 16.0897 10.8945
331 1 -1.1104 9.46615 17.4841 12.2892
327 2 2.2208 10.8617 18.8815 10.895
322 1 -1.1104 9.46783 20.2753 12.2901
160 2 2.2208 8.07063 16.0885 -0.26317
87 2 2.2208 5.27957 13.2977 -0.263564
135 2 2.2208 5.28267 18.879 -0.262775
335 2 2.2208 13.6495 16.0893 -0.263147
89 2 2.2208 8.06767 10.507 -0.26393
82 2 2.2208 2.48867 10.5069 -0.263861
112 2 2.2208 13.6466 10.5074 -0.263881
110 2 2.2208 10.8586 13.298 -0.263557
139 2 2.2208 2.49153 16.0884 -0.263154
161 2 2.2208 10.8618 18.8797 -0.262754
351 2 2.2208 5.27422 2.13452 16.4714
352 1 -1.1104 1.08809 -2.05355 17.8652
353 1 -1.1104 1.09065 3.52847 17.8662
354 1 -1.1104 1.08811 -2.05342 15.0761
355 1 -1.1104 1.09076 3.5286 15.077
356 1 -1.1104 1.08943 0.737473 17.866
357 2 2.2208 5.27301 -0.656541 19.2604
358 2 2.2208 5.27555 4.92538 19.2613
359 1 -1.1104 1.08932 0.737586 15.0763
360 1 -1.1104 3.87765 -2.0535 17.8655
361 1 -1.1104 3.88019 3.52845 17.8665
362 2 2.2208 2.48479 2.13443 19.2608
363 1 -1.1104 3.87747 -2.05344 15.0758
364 1 -1.1104 3.88015 3.52857 15.0768
365 2 2.2208 2.48346 -0.656495 16.4709
366 2 2.2208 2.48613 4.9255 16.4718
367 1 -1.1104 3.87881 0.737471 17.8657
368 1 -1.1104 3.87886 0.737574 15.0766
372 1 -1.1104 6.66956 3.5285 17.8663
369 1 -1.1104 6.6697 3.52853 15.0771
370 2 2.2208 2.48478 2.1346 13.682
379 2 2.2208 5.284 21.6709 13.6846
555 2 2.2208 13.6427 2.13449 24.8398
381 1 -1.1104 6.667 -2.05352 17.8653
382 1 -1.1104 6.66704 -2.05348 15.0762
526 2 2.2208 13.6453 7.71697 13.6829
668 2 2.2208 8.07224 18.8792 24.8421
678 2 2.2208 5.27292 -0.656469 13.6815
374 1 -1.1104 3.87766 -2.05351 20.6547
371 1 -1.1104 6.66835 0.737536 17.8661
373 1 -1.1104 6.66823 0.737545 15.0764
384 2 2.2208 10.8531 2.13451 16.4715
385 1 -1.1104 12.2459 -2.05353 17.8653
386 1 -1.1104 12.2485 3.52859 17.8663
387 1 -1.1104 12.246 -2.05349 15.0762
388 1 -1.1104 12.2486 3.52866 15.0772
389 1 -1.1104 12.2472 0.737526 17.8661
390 2 2.2208 10.8519 -0.656554 19.2604
391 2 2.2208 10.8545 4.92548 19.2613
392 1 -1.1104 12.2471 0.737572 15.0764
393 1 -1.1104 9.45656 -2.05354 17.8656
394 1 -1.1104 9.45911 3.52847 17.8666
395 2 2.2208 8.0637 2.13446 19.2609
396 1 -1.1104 9.45642 -2.05353 15.0759
397 1 -1.1104 9.45907 3.52855 15.0769
398 2 2.2208 8.06239 -0.656541 16.471
399 2 2.2208 8.06505 4.92549 16.4719
400 1 -1.1104 9.4577 0.737473 17.8658
401 1 -1.1104 9.4578 0.737513 15.0767
582 2 2.2208 13.6439 4.92569 16.4719
404 2 2.2208 8.06373 2.13453 13.6821
407 2 2.2208 10.8519 -0.656505 13.6816
406 1 -1.1104 9.45787 0.737505 20.6555
560 1 -1.1104 9.45656 -2.05353 20.6547
402 2 2.2208 10.8546 4.92564 13.6825
529 2 2.2208 2.48758 7.71658 13.6828
408 2 2.2208 5.277 7.71643 16.4722
409 2 2.2208 5.27976 13.2983 16.4729
410 1 -1.1104 1.09339 9.11041 17.867
411 1 -1.1104 1.09349 9.11057 15.0778
412 1 -1.1104 1.09207 6.31944 17.8669
413 1 -1.1104 1.09473 11.9013 17.8676
414 2 2.2208 5.2783 10.5072 19.262
415 1 -1.1104 1.09207 6.31961 15.0772
416 1 -1.1104 1.09475 11.9015 15.078
417 1 -1.1104 3.88291 9.11028 17.8673
418 2 2.2208 2.48742 7.71629 19.2617
419 2 2.2208 2.49015 13.298 19.2624
420 1 -1.1104 3.88297 9.11048 15.0776
421 2 2.2208 2.48887 10.5074 16.4726
422 1 -1.1104 3.88149 6.3194 17.8666
423 1 -1.1104 3.88426 11.9012 17.8673
424 1 -1.1104 3.88162 6.31955 15.0775
425 1 -1.1104 3.88435 11.9014 15.0782
440 1 -1.1104 6.67383 11.9013 17.8676
438 1 -1.1104 6.67239 9.1104 17.867
439 1 -1.1104 6.67103 6.31952 15.0772
428 1 -1.1104 6.67103 6.31944 17.8669
426 1 -1.1104 6.67386 11.9015 15.0779
427 1 -1.1104 6.67252 9.11051 15.0779
435 1 -1.1104 3.88421 11.901 20.6571
584 1 -1.1104 1.09465 11.9011 20.6568
433 1 -1.1104 3.88147 6.31927 20.6564
462 2 2.2208 13.6453 7.71665 19.2617
441 2 2.2208 10.8559 7.71665 16.4722
442 2 2.2208 10.8588 13.2989 16.4729
443 1 -1.1104 12.2513 9.11077 17.8669
444 1 -1.1104 12.2514 9.11093 15.0779
445 1 -1.1104 12.2499 6.31964 17.867
446 1 -1.1104 12.2528 11.9019 17.8676
447 2 2.2208 10.8573 10.5075 19.262
448 1 -1.1104 12.2499 6.31975 15.0772
449 1 -1.1104 12.2528 11.9022 15.0779
450 1 -1.1104 9.4619 9.1105 17.8673
451 2 2.2208 8.06641 7.71638 19.2616
452 2 2.2208 8.06925 13.2982 19.2623
453 1 -1.1104 9.46194 9.11071 15.0775
454 2 2.2208 8.0679 10.5075 16.4726
455 1 -1.1104 9.46044 6.31951 17.8666
456 1 -1.1104 9.46333 11.9015 17.8672
457 1 -1.1104 9.46056 6.31961 15.0775
458 1 -1.1104 9.4634 11.9018 15.0782
682 2 2.2208 13.6481 13.2989 19.2623
616 1 -1.1104 12.2513 9.11051 20.6567
461 2 2.2208 13.6467 10.508 16.4726
615 1 -1.1104 9.46325 11.9012 20.657
432 2 2.2208 10.8574 10.5079 13.6832
488 2 2.2208 2.49279 18.8803 13.6842
687 2 2.2208 13.6527 21.6717 22.0527
468 2 2.2208 5.28256 18.8799 16.4736
469 1 -1.1104 1.09604 14.6922 17.8677
470 1 -1.1104 1.09869 20.2738 17.8684
471 1 -1.1104 1.09606 14.6925 15.0785
472 1 -1.1104 1.09855 20.2743 15.0792
473 1 -1.1104 1.09736 17.4831 17.8682
474 2 2.2208 5.28115 16.0888 19.2627
475 2 2.2208 5.28406 21.67 19.2634
476 1 -1.1104 1.09727 17.4834 15.0787
477 1 -1.1104 3.88565 14.692 17.8679
478 1 -1.1104 3.88837 20.2734 17.8686
479 2 2.2208 2.49293 18.8795 19.263
480 1 -1.1104 3.88562 14.6923 15.0783
481 1 -1.1104 3.88834 20.2738 15.0789
482 2 2.2208 2.49151 16.0892 16.4733
483 2 2.2208 2.49421 21.6706 16.4739
484 1 -1.1104 3.88701 17.4828 17.868
485 1 -1.1104 3.88696 17.4831 15.0789
489 1 -1.1104 6.67664 17.4833 15.0785
498 1 -1.1104 6.67527 14.6924 15.0786
490 1 -1.1104 6.67522 14.6921 17.8676
639 1 -1.1104 6.67819 20.273 20.6582
492 1 -1.1104 3.88558 14.6917 20.6571
491 1 -1.1104 1.09881 20.2734 20.658
486 1 -1.1104 3.8885 20.2729 20.6578
493 1 -1.1104 3.88705 17.4824 20.6577
431 1 -1.1104 12.2541 14.6923 23.4465
554 1 -1.1104 9.46786 20.2737 20.6576
499 1 -1.1104 6.6782 20.2735 17.8683
501 1 -1.1104 6.67812 20.274 15.0793
502 1 -1.1104 6.67669 17.4829 17.8683
685 2 2.2208 13.6526 21.6739 16.4738
503 2 2.2208 10.8617 18.8813 16.4736
504 1 -1.1104 12.2542 14.6931 17.8675
505 1 -1.1104 12.2574 20.2758 17.8681
506 1 -1.1104 12.2542 14.6935 15.0786
507 1 -1.1104 12.2573 20.2766 15.0794
508 1 -1.1104 12.2557 17.4844 17.8683
509 2 2.2208 10.8602 16.0896 19.2626
510 2 2.2208 10.8633 21.6716 19.2633
511 1 -1.1104 12.2557 17.4849 15.0785
512 1 -1.1104 9.46477 14.6925 17.868
513 1 -1.1104 9.4678 20.2744 17.8687
514 2 2.2208 8.07225 18.8798 19.263
515 1 -1.1104 9.46477 14.6929 15.0782
516 1 -1.1104 9.46781 20.2751 15.0788
517 2 2.2208 8.07073 16.0895 16.4732
518 2 2.2208 8.07378 21.6712 16.4739
519 1 -1.1104 9.4663 17.4835 17.8679
520 1 -1.1104 9.46627 17.484 15.079
559 1 -1.1104 12.2542 14.6926 20.6574
660 1 -1.1104 9.46626 17.4829 20.6578
683 2 2.2208 13.6496 16.0907 16.4733
676 1 -1.1104 12.2573 20.2747 20.6581
460 2 2.2208 8.06654 7.7166 13.6828
671 1 -1.1104 12.2541 14.6921 26.2364
527 1 -1.1104 3.87899 0.737458 20.6555
376 1 -1.1104 1.09074 3.52835 20.6559
377 1 -1.1104 3.88011 3.52837 20.6557
375 1 -1.1104 1.08831 -2.05354 20.6549
528 1 -1.1104 1.0894 0.737389 20.6551
556 1 -1.1104 6.66832 0.737461 20.6552
530 2 2.2208 5.27431 2.13442 22.0503
531 1 -1.1104 1.0883 -2.05352 23.444
532 1 -1.1104 1.09068 3.52827 23.4451
533 1 -1.1104 1.08847 -2.05349 26.2338
534 1 -1.1104 1.09084 3.5283 26.2348
535 1 -1.1104 1.0896 0.73741 23.4448
536 2 2.2208 5.27322 -0.656498 24.8392
537 1 -1.1104 1.08954 0.737394 26.234
538 1 -1.1104 3.8779 -2.05345 23.4443
539 1 -1.1104 3.88025 3.52835 23.4454
540 2 2.2208 2.48491 2.13434 24.8397
541 1 -1.1104 3.87784 -2.05342 26.2335
542 1 -1.1104 3.88019 3.5283 26.2346
543 2 2.2208 2.48364 -0.656563 22.0498
544 2 2.2208 2.48607 4.92526 22.0507
545 1 -1.1104 3.87896 0.737433 23.4446
546 1 -1.1104 3.87916 0.73745 26.2344
547 2 2.2208 5.27558 4.92525 24.8402
550 1 -1.1104 6.66965 3.52841 20.656
548 1 -1.1104 6.66747 -2.05337 26.2339
549 1 -1.1104 6.66854 0.737494 23.445
558 1 -1.1104 6.66962 3.52835 23.4452
525 2 2.2208 5.27843 10.5075 13.6832
522 2 2.2208 10.8633 21.6731 13.6846
557 2 2.2208 13.6439 4.92548 22.0508
669 1 -1.1104 12.2573 20.2739 23.4471
563 1 -1.1104 9.45903 3.52846 20.6557
383 2 2.2208 13.6426 2.13452 19.2609
561 1 -1.1104 12.2461 -2.05353 20.655
553 1 -1.1104 6.66724 -2.05345 23.4441
552 1 -1.1104 6.66978 3.52838 26.2349
405 1 -1.1104 12.2472 0.737497 20.6553
562 1 -1.1104 12.2486 3.5285 20.656
378 1 -1.1104 6.66723 -2.05348 20.655
551 1 -1.1104 6.66853 0.737498 26.2342
564 2 2.2208 10.8532 2.13446 22.0504
565 1 -1.1104 12.2461 -2.0535 23.4442
566 1 -1.1104 12.2485 3.52847 23.4452
567 1 -1.1104 12.2463 -2.05343 26.234
568 1 -1.1104 12.2487 3.5285 26.2349
569 1 -1.1104 12.2474 0.737533 23.445
570 2 2.2208 10.8521 -0.656476 24.8394
571 2 2.2208 10.8545 4.9254 24.8403
572 1 -1.1104 12.2474 0.737535 26.2342
573 1 -1.1104 9.45682 -2.05342 23.4444
574 1 -1.1104 9.45916 3.52842 23.4455
575 2 2.2208 8.06384 2.13444 24.8398
576 1 -1.1104 9.45679 -2.05339 26.2337
577 1 -1.1104 9.45916 3.52841 26.2347
578 2 2.2208 8.06256 -0.656512 22.0498
579 2 2.2208 8.06502 4.92535 22.0508
580 1 -1.1104 9.45785 0.737482 23.4447
581 1 -1.1104 9.45808 0.737552 26.2345
686 2 2.2208 13.6511 18.8814 19.263
679 2 2.2208 5.27568 4.92555 13.6825
661 1 -1.1104 12.2556 17.483 26.2364
583 2 2.2208 8.07068 16.0887 22.0521
434 1 -1.1104 3.88278 9.11014 20.6564
429 1 -1.1104 1.09333 9.11016 20.6568
586 1 -1.1104 1.09194 6.31929 20.6561
587 2 2.2208 5.27685 7.71617 22.0511
588 2 2.2208 5.27965 13.2978 22.0518
589 1 -1.1104 1.09322 9.11006 23.446
590 1 -1.1104 1.09329 9.11003 26.2357
591 1 -1.1104 1.092 6.31917 23.4458
592 1 -1.1104 1.09463 11.9009 23.4466
593 2 2.2208 5.27818 10.5069 24.8409
594 1 -1.1104 1.09193 6.31918 26.235
595 1 -1.1104 1.09453 11.9009 26.2358
596 1 -1.1104 3.88277 9.11 23.4462
597 2 2.2208 2.48732 7.7161 24.8406
598 2 2.2208 2.49008 13.2977 24.8413
599 1 -1.1104 3.88268 9.10998 26.2354
600 2 2.2208 2.48871 10.507 22.0515
601 1 -1.1104 3.8814 6.31921 23.4455
602 1 -1.1104 3.88409 11.9008 23.4462
603 1 -1.1104 3.88148 6.31918 26.2353
604 1 -1.1104 3.88413 11.9007 26.236
611 1 -1.1104 6.67224 9.11004 23.4459
436 1 -1.1104 6.67372 11.9011 20.6567
608 1 -1.1104 6.67096 6.31921 23.4458
430 1 -1.1104 6.67233 9.11019 20.6567
607 1 -1.1104 6.67226 9.10999 26.2357
605 1 -1.1104 6.67366 11.9008 23.4465
609 1 -1.1104 6.67091 6.3192 26.235
680 2 2.2208 13.6426 2.13468 13.6821
463 1 -1.1104 12.2527 11.9016 20.6567
612 2 2.2208 13.6453 7.71641 24.8406
380 2 2.2208 13.648 13.2984 24.8413
585 1 -1.1104 6.67091 6.31932 20.6561
606 1 -1.1104 6.67357 11.9008 26.2357
459 1 -1.1104 12.2498 6.3195 20.6561
464 1 -1.1104 9.46178 9.11035 20.6564
614 1 -1.1104 9.46044 6.31942 20.6564
617 1 -1.1104 9.46178 9.11017 23.4462
618 1 -1.1104 12.2525 11.9012 26.2357
619 1 -1.1104 12.2499 6.31942 26.235
620 2 2.2208 10.8572 10.5072 24.8409
621 1 -1.1104 12.2526 11.9013 23.4465
622 1 -1.1104 12.2499 6.31943 23.4458
623 1 -1.1104 12.2512 9.11034 26.2357
624 1 -1.1104 12.2512 9.11036 23.4459
625 1 -1.1104 9.46315 11.9009 26.236
626 1 -1.1104 9.46048 6.3193 26.2353
627 1 -1.1104 9.46314 11.901 23.4462
628 1 -1.1104 9.46041 6.31931 23.4455
629 2 2.2208 8.06774 10.5071 22.0514
630 1 -1.1104 9.46169 9.11009 26.2354
631 2 2.2208 8.06912 13.2977 24.8413
632 2 2.2208 8.06633 7.71615 24.8406
633 2 2.2208 10.8558 7.71637 22.0511
634 2 2.2208 10.8587 13.2982 22.0518
681 2 2.2208 13.6466 10.5075 22.0515
613 2 2.2208 10.8634 21.6703 24.8424
494 1 -1.1104 1.09744 17.4827 20.6575
666 1 -1.1104 6.67661 17.4821 26.2364
636 1 -1.1104 6.67669 17.4822 23.4473
466 1 -1.1104 6.67519 14.6918 20.6574
665 1 -1.1104 6.6782 20.2727 23.4473
637 1 -1.1104 1.09605 14.6919 20.6574
495 1 -1.1104 6.67669 17.4825 20.6574
635 1 -1.1104 6.67831 20.2726 26.2372
638 1 -1.1104 6.67509 14.6915 23.4465
658 2 2.2208 2.49154 16.0886 22.0522
641 2 2.2208 2.49446 21.6697 22.0529
642 1 -1.1104 3.88705 17.4821 23.4469
643 1 -1.1104 1.09751 17.4824 23.4472
644 1 -1.1104 3.88548 14.6915 26.2361
645 1 -1.1104 3.88711 17.4821 26.2368
646 2 2.2208 2.49307 18.879 24.842
647 1 -1.1104 3.88857 20.2726 26.2368
648 2 2.2208 5.28265 18.8791 22.0525
649 1 -1.1104 1.09599 14.6917 23.4466
650 1 -1.1104 1.09892 20.273 23.4473
651 2 2.2208 5.28112 16.0883 24.8417
652 2 2.2208 5.28421 21.6694 24.8425
653 1 -1.1104 1.09603 14.6916 26.2364
654 1 -1.1104 1.09744 17.4823 26.2365
655 1 -1.1104 1.09907 20.273 26.2371
656 1 -1.1104 3.88559 14.6915 23.4469
657 1 -1.1104 3.8886 20.2726 23.4476
675 2 2.2208 10.8601 16.0889 24.8417
667 1 -1.1104 9.46621 17.4825 23.4468
487 2 2.2208 13.6512 18.8803 24.842
670 1 -1.1104 9.46457 14.6917 26.236
610 1 -1.1104 12.2574 20.2737 26.2372
659 2 2.2208 10.8618 18.88 22.0525
521 1 -1.1104 9.46472 14.6921 20.657
663 1 -1.1104 9.46781 20.273 26.2368
497 1 -1.1104 12.2557 17.4837 20.6573
672 1 -1.1104 12.2557 17.4831 23.4473
674 1 -1.1104 9.46467 14.6918 23.4469
467 2 2.2208 13.6496 16.0896 22.0521
673 1 -1.1104 9.46785 20.2731 23.4477
662 2 2.2208 8.07381 21.6699 22.0529
664 1 -1.1104 9.46625 17.4824 26.2368
640 1 -1.1104 6.67514 14.6915 26.2364
465 2 2.2208 8.06932 13.2987 13.6835
523 2 2.2208 8.07217 18.8807 13.6843
684 2 2.2208 13.651 18.8826 13.6843
677 2 2.2208 13.6481 13.2995 13.6836
524 2 2.2208 10.8602 16.0903 13.6839
437 2 2.2208 2.49022 13.2984 13.6836
496 2 2.2208 5.28112 16.0893 13.6839
403 2 2.2208 13.6413 -0.656488 16.471
500 2 2.2208 13.6414 -0.656527 22.0499
701 2 2.2208 5.28574 24.4605 5.31692
702 2 2.2208 5.2891 30.0408 5.31738
703 1 -1.1104 1.10188 25.8544 1.13277
704 1 -1.1104 1.1019 25.8548 3.92233
705 1 -1.1104 1.10055 23.0638 1.13255
706 1 -1.1104 1.10349 28.6449 1.13319
707 2 2.2208 5.28741 27.2504 2.52789
708 1 -1.1104 1.10024 23.0642 3.92187
709 1 -1.1104 1.10319 28.6454 3.92252
710 1 -1.1104 3.89172 25.8535 1.13302
711 2 2.2208 2.49607 24.4605 2.52745
712 2 2.2208 2.49927 30.0414 2.52815
713 1 -1.1104 3.89147 25.8538 3.92219
714 2 2.2208 2.49748 27.2514 5.31713
715 1 -1.1104 3.89005 23.0632 1.13235
716 1 -1.1104 3.89302 28.6437 1.13312
717 1 -1.1104 3.89011 23.0635 3.92209
718 1 -1.1104 3.89315 28.6439 3.92268
730 1 -1.1104 6.67972 23.0635 3.92182
731 1 -1.1104 6.68133 25.8533 1.13274
729 1 -1.1104 6.68307 28.6434 1.13345
728 1 -1.1104 6.68299 28.6434 3.92241
721 2 2.2208 5.28578 24.4598 -0.261959
727 2 2.2208 5.28889 30.0402 -0.260953
892 1 -1.1104 6.67987 23.064 6.71172
722 2 2.2208 2.49762 27.2505 -0.261559
720 1 -1.1104 6.68154 25.8536 3.92262
719 1 -1.1104 6.67991 23.0632 1.13276
897 1 -1.1104 6.68132 25.8541 6.71159
898 1 -1.1104 6.68316 28.6439 6.71234
732 2 2.2208 10.8652 24.4622 5.31719
733 2 2.2208 10.8688 30.0435 5.31803
734 1 -1.1104 12.2607 25.8551 1.13266
735 1 -1.1104 12.2611 25.856 3.92304
736 1 -1.1104 12.2592 23.0646 1.13293
737 1 -1.1104 12.2627 28.6455 1.13365
738 2 2.2208 10.8669 27.2519 2.52807
739 1 -1.1104 12.259 23.0653 3.92197
740 1 -1.1104 12.2626 28.6464 3.92267
741 1 -1.1104 9.47128 25.854 1.13324
742 2 2.2208 8.07554 24.4604 2.52757
743 2 2.2208 8.07894 30.0408 2.5284
744 1 -1.1104 9.47118 25.8544 3.92222
745 2 2.2208 8.07729 27.2513 5.31735
746 1 -1.1104 9.46946 23.0637 1.13234
747 1 -1.1104 9.47273 28.644 1.13296
748 1 -1.1104 9.46967 23.0642 3.92243
749 1 -1.1104 9.47321 28.6445 3.92322
1038 2 2.2208 13.6564 27.2548 5.31767
904 1 -1.1104 12.2631 28.6483 6.71327
750 2 2.2208 8.07704 27.2502 -0.261486
755 2 2.2208 10.8683 30.0413 -0.261037
1030 2 2.2208 13.6581 30.0442 2.52858
899 1 -1.1104 12.2592 23.0663 6.71213
905 1 -1.1104 9.4715 25.8553 6.71244
895 2 2.2208 13.6562 27.2525 -0.261705
751 2 2.2208 10.8651 24.4609 -0.261966
757 2 2.2208 5.29345 35.6206 5.31782
758 1 -1.1104 1.10486 31.4354 1.13336
759 1 -1.1104 1.109 37.0169 1.13353
760 1 -1.1104 1.10481 31.4358 3.92275
761 1 -1.1104 1.10852 37.0168 3.92272
762 1 -1.1104 1.10688 34.2261 1.13369
763 2 2.2208 5.29102 32.8308 2.52867
764 2 2.2208 5.29602 38.4115 2.52867
765 1 -1.1104 1.10644 34.2262 3.92274
766 1 -1.1104 3.89478 31.4339 1.13364
767 1 -1.1104 3.89865 37.0146 1.13398
768 2 2.2208 2.50366 35.6224 2.52866
769 1 -1.1104 3.89459 31.4339 3.92267
770 1 -1.1104 3.89836 37.0133 3.92238
771 2 2.2208 2.50108 32.8319 5.31746
772 2 2.2208 2.50721 38.4123 5.31696
773 1 -1.1104 3.89643 34.2241 1.13363
774 1 -1.1104 3.89636 34.2237 3.923
779 2 2.2208 2.50691 38.4133 -0.259466
781 1 -1.1104 1.10863 37.0157 6.71164
833 2 2.2208 5.29304 35.6209 -0.259679
756 2 2.2208 2.50111 32.8314 -0.260614
785 1 -1.1104 6.68824 37.011 3.92305
776 1 -1.1104 6.68485 31.4331 3.9231
787 1 -1.1104 6.68659 34.2221 3.92267
784 1 -1.1104 6.68865 37.0131 1.13336
783 1 -1.1104 3.89845 37.0121 6.71228
806 2 2.2208 8.08038 32.8303 -0.260121
778 1 -1.1104 6.68453 31.4332 1.13337
777 1 -1.1104 6.68656 34.2232 1.13413
788 2 2.2208 10.8729 35.6244 5.31903
789 1 -1.1104 12.2642 31.4355 1.13322
790 1 -1.1104 12.2684 37.0148 1.13336
791 1 -1.1104 12.2651 31.4367 3.92405
792 1 -1.1104 12.2698 37.015 3.92398
793 1 -1.1104 12.2667 34.2254 1.13421
794 2 2.2208 10.8705 32.8325 2.52914
795 2 2.2208 10.8725 38.4132 2.53008
796 1 -1.1104 12.2668 34.2261 3.92339
797 1 -1.1104 9.47479 31.4339 1.13397
798 1 -1.1104 9.47846 37.0138 1.13423
799 2 2.2208 8.08277 35.6213 2.52943
800 1 -1.1104 9.47479 31.4341 3.92271
801 1 -1.1104 9.47867 37.0122 3.92286
802 2 2.2208 8.08107 32.8313 5.3178
803 2 2.2208 8.0847 38.4109 5.31981
804 1 -1.1104 9.47634 34.2236 1.13366
805 1 -1.1104 9.47716 34.2236 3.92376
9902 2 2.2208 13.6601 32.8375 5.31879
807 2 2.2208 8.08494 38.4123 -0.260244
9899 2 2.2208 13.6618 35.6253 2.5294
957 1 -1.1104 12.2695 37.0181 6.71428
9674 2 2.2208 13.6625 38.4106 -0.262211
9903 2 2.2208 13.6595 32.8331 -0.260828
9678 2 2.2208 13.6646 38.4191 5.31774
808 2 2.2208 10.8715 35.6215 -0.259586
1015 1 -1.1104 12.38 45.4477 9.45763
754 2 2.2208 2.51791 43.9981 -0.260845
814 2 2.2208 5.2995 41.199 5.31664
815 2 2.2208 5.294 46.7846 5.30116
816 1 -1.1104 1.11571 42.6009 1.13182