ITEM: TIMESTEP
307
ITEM: NUMBER OF ATOMS
17700
ITEM: BOX BOUNDS pp pp pp
-2.7717828229332220e-01 2.7617178282293317e+01
-3.4472205766305355e+00 3.3152722057663055e+02
-2.7717827830221448e-01 2.7617178278302212e+01
ITEM: ATOMS id type q x y z
1 2 2.2208 5.28177 2.13294 5.32182
2 1 -1.1104 1.09501 -2.05446 1.13619
3 1 -1.1104 1.09833 3.52699 1.13787
4 1 -1.1104 1.09513 -2.05453 3.92604
5 1 -1.1104 1.09851 3.52699 3.92767
6 1 -1.1104 1.09682 0.736266 1.13742
7 2 2.2208 5.28011 -0.657734 2.53153
8 2 2.2208 5.28346 4.92368 2.53318
9 1 -1.1104 1.09665 0.736224 3.92652
10 1 -1.1104 3.88465 -2.05442 1.13655
11 1 -1.1104 3.88795 3.52698 1.13825
12 2 2.2208 2.49231 2.13298 2.53237
13 1 -1.1104 3.88442 -2.0545 3.92566
14 1 -1.1104 3.88781 3.52695 3.92734
15 2 2.2208 2.4906 -0.657776 5.321
16 2 2.2208 2.49401 4.92372 5.32259
17 1 -1.1104 3.88612 0.736289 1.13706
18 1 -1.1104 3.88629 0.736207 3.92687
210 2 2.2208 2.49394 4.92374 -0.256262
338 2 2.2208 2.49067 -0.657696 -0.257917
25 1 -1.1104 6.67746 3.52693 3.9277
203 2 2.2208 5.28178 2.13299 -0.257075
19 1 -1.1104 6.67395 -2.05445 1.13619
24 1 -1.1104 6.67577 0.736223 1.1374
23 1 -1.1104 6.67725 3.52692 1.1379
27 1 -1.1104 1.09834 3.52696 6.71674
180 1 -1.1104 1.09679 0.736181 6.71634
8954 2 2.2208 -0.298817 -0.657788 2.53155
179 2 2.2208 10.8673 13.2958 -0.254241
173 2 2.2208 13.6618 21.6684 -0.252757
31 1 -1.1104 6.67407 -2.0545 3.92602
20 1 -1.1104 6.67557 0.736204 3.9265
8898 2 2.2208 -0.297199 2.13298 10.9007
34 2 2.2208 10.8607 2.13297 5.32179
35 1 -1.1104 12.2529 -2.0546 1.1362
36 1 -1.1104 12.2562 3.52688 1.13783
37 1 -1.1104 12.253 -2.05458 3.92603
38 1 -1.1104 12.2564 3.52695 3.92763
39 1 -1.1104 12.2547 0.736116 1.13735
40 2 2.2208 10.8591 -0.657814 2.53151
41 1 -1.1104 12.2545 0.736185 3.92647
42 1 -1.1104 9.46361 -2.05452 1.13653
43 1 -1.1104 9.46692 3.52688 1.13823
44 2 2.2208 8.07125 2.13295 2.53236
45 1 -1.1104 9.46337 -2.05452 3.92567
46 1 -1.1104 9.46675 3.52692 3.92733
47 2 2.2208 8.06955 -0.657784 5.32098
48 2 2.2208 8.07296 4.9237 5.32262
49 1 -1.1104 9.46509 0.736194 1.13703
50 1 -1.1104 9.46523 0.736185 3.92685
51 2 2.2208 10.8624 4.92367 2.53317
337 2 2.2208 8.06962 -0.657738 -0.257923
323 1 -1.1104 9.47535 17.4814 9.50962
336 2 2.2208 8.0729 4.92362 -0.256261
333 2 2.2208 10.8607 2.13289 -0.257118
60 1 -1.1104 9.46693 3.527 6.71712
59 1 -1.1104 12.2562 3.52706 6.71668
318 2 2.2208 8.08131 18.8778 8.11489
22 1 -1.1104 9.47529 17.4814 12.2985
146 2 2.2208 8.08307 21.6688 10.9046
202 2 2.2208 2.49721 10.5051 -0.254856
205 2 2.2208 5.28505 7.71437 -0.255494
63 2 2.2208 5.28516 7.71445 5.32335
64 2 2.2208 5.28842 13.2959 5.32453
65 1 -1.1104 1.1016 9.10846 1.13937
66 1 -1.1104 1.10181 9.10853 3.92911
67 1 -1.1104 1.10013 6.31774 1.13901
68 1 -1.1104 1.10334 11.8992 1.14027
69 2 2.2208 5.28675 10.5051 2.5346
70 1 -1.1104 1.10003 6.31774 3.92808
71 1 -1.1104 1.10326 11.8993 3.92939
72 1 -1.1104 3.89124 9.10838 1.13973
73 2 2.2208 2.49563 7.71445 2.53391
74 2 2.2208 2.49886 13.2959 2.5351
75 1 -1.1104 3.89115 9.10841 3.92882
76 2 2.2208 2.4973 10.5053 5.32395
77 1 -1.1104 3.88945 6.31766 1.13868
78 1 -1.1104 3.89271 11.8991 1.14001
79 1 -1.1104 3.88966 6.31769 3.92846
80 1 -1.1104 3.89289 11.8992 3.92974
81 1 -1.1104 6.67909 6.31763 1.13905
82 1 -1.1104 6.67898 6.31766 3.92813
85 1 -1.1104 6.68236 11.899 1.14038
83 1 -1.1104 6.68058 9.1083 1.13943
261 2 2.2208 5.28832 13.2957 -0.254294
84 1 -1.1104 6.68226 11.8991 3.92945
233 2 2.2208 10.864 7.71435 -0.255516
90 1 -1.1104 6.68081 9.1084 3.9292
97 2 2.2208 10.8641 7.71456 5.32335
98 2 2.2208 10.8674 13.2963 5.32462
99 1 -1.1104 12.2595 9.10842 1.13937
100 1 -1.1104 12.2597 9.10858 3.92918
101 1 -1.1104 12.258 6.31764 1.13899
102 1 -1.1104 12.2613 11.8992 1.14041
103 2 2.2208 10.8657 10.5052 2.53462
104 1 -1.1104 12.2579 6.31776 3.92805
105 1 -1.1104 12.2612 11.8994 3.92945
106 1 -1.1104 9.47021 9.10832 1.13978
107 2 2.2208 8.0746 7.7144 2.53395
108 2 2.2208 8.07789 13.2959 2.53519
109 1 -1.1104 9.47013 9.10844 3.92885
110 2 2.2208 8.0763 10.5053 5.32404
111 1 -1.1104 9.46841 6.3176 1.13868
112 1 -1.1104 9.47168 11.899 1.14004
113 1 -1.1104 9.46862 6.31767 3.92848
114 1 -1.1104 9.4719 11.8992 3.92985
9098 2 2.2208 -0.298865 -0.657822 8.11045
8925 2 2.2208 -0.297138 2.13296 5.3218
8929 2 2.2208 -0.295457 4.92377 8.112
149 2 2.2208 13.6619 21.6696 5.32622
234 2 2.2208 8.07618 10.505 -0.254795
140 1 -1.1104 6.68395 14.69 6.71932
321 1 -1.1104 9.47361 14.6903 6.71978
175 2 2.2208 2.50377 21.6676 -0.252822
120 2 2.2208 5.2917 18.8774 5.32548
121 1 -1.1104 1.10481 14.6899 1.14049
122 1 -1.1104 1.10805 20.2713 1.14147
123 1 -1.1104 1.10497 14.6901 3.9302
124 1 -1.1104 1.10819 20.2716 3.93111
125 1 -1.1104 1.1066 17.4806 1.14126
126 2 2.2208 5.29002 16.0865 2.53562
127 2 2.2208 5.29332 21.6677 2.53662
128 1 -1.1104 1.10645 17.4808 3.93037
129 1 -1.1104 3.89447 14.6897 1.14081
130 1 -1.1104 3.89779 20.2709 1.14178
131 2 2.2208 2.50213 18.8773 2.53606
132 1 -1.1104 3.89436 14.6898 3.92989
133 1 -1.1104 3.8976 20.2711 3.93086
134 2 2.2208 2.5005 16.0868 5.32497
135 2 2.2208 2.50373 21.6682 5.32592
136 1 -1.1104 3.89597 17.4803 1.14095
137 1 -1.1104 3.89614 17.4805 3.93069
289 2 2.2208 2.50047 16.0864 -0.253833
260 2 2.2208 5.29167 18.8768 -0.253345
139 1 -1.1104 6.68387 14.6896 1.1405
287 1 -1.1104 1.10489 14.6901 6.71926
291 1 -1.1104 3.89776 20.2713 6.72052
141 1 -1.1104 3.89602 17.4806 6.71972
142 1 -1.1104 3.89454 14.69 6.7196
138 1 -1.1104 6.68738 20.2711 3.93127
144 1 -1.1104 6.68718 20.2707 1.14146
145 1 -1.1104 6.68555 17.4805 3.93038
150 1 -1.1104 6.68567 17.4802 1.14133
151 1 -1.1104 6.68403 14.6898 3.9303
152 2 2.2208 10.8708 18.878 5.32562
153 1 -1.1104 12.2628 14.69 1.14055
154 1 -1.1104 12.2662 20.2715 1.14148
155 1 -1.1104 12.263 14.6903 3.93041
156 1 -1.1104 12.2665 20.272 3.93149
157 1 -1.1104 12.2647 17.4808 1.14147
158 2 2.2208 10.869 16.0868 2.53571
159 2 2.2208 10.8724 21.6683 2.53675
160 1 -1.1104 12.2645 17.4812 3.93048
161 1 -1.1104 9.47351 14.6898 1.14094
162 1 -1.1104 9.47694 20.271 1.14191
163 2 2.2208 8.08124 18.8772 2.53615
164 1 -1.1104 9.4734 14.69 3.92998
165 1 -1.1104 9.47676 20.2714 3.93091
166 2 2.2208 8.07959 16.0868 5.32506
167 2 2.2208 8.08295 21.6682 5.32606
168 1 -1.1104 9.47505 17.4804 1.14098
169 1 -1.1104 9.47526 17.4807 3.93087
176 2 2.2208 10.8707 18.8772 -0.253281
171 2 2.2208 8.08288 21.6674 -0.252777
237 2 2.2208 8.07952 16.0863 -0.253782
293 1 -1.1104 6.68414 14.6901 9.50908
314 1 -1.1104 6.68746 20.2716 9.50999
92 1 -1.1104 12.2664 20.2736 12.2989
317 2 2.2208 10.8708 18.8786 10.9043
330 1 -1.1104 6.68745 20.2715 12.2988
55 1 -1.1104 9.47365 14.6905 12.2985
181 1 -1.1104 1.09493 -2.05457 6.71511
28 1 -1.1104 3.88608 0.736197 6.71595
26 1 -1.1104 3.88798 3.52695 6.71714
21 1 -1.1104 3.88457 -2.05453 6.71548
182 2 2.2208 5.28174 2.133 10.9007
183 1 -1.1104 1.09493 -2.05457 12.294
184 1 -1.1104 1.09826 3.527 12.2956
185 1 -1.1104 1.09509 -2.05459 9.50493
186 1 -1.1104 1.09847 3.52698 9.50653
187 1 -1.1104 1.09677 0.736209 12.2952
188 2 2.2208 5.28006 -0.657788 8.11043
189 2 2.2208 5.28348 4.92374 8.11204
190 1 -1.1104 1.09659 0.736199 9.50539
191 1 -1.1104 3.8846 -2.05452 12.2944
192 1 -1.1104 3.8879 3.52699 12.296
193 2 2.2208 2.49228 2.13296 8.11127
194 1 -1.1104 3.88438 -2.05454 9.50455
195 1 -1.1104 3.88777 3.52699 9.5062
196 2 2.2208 2.49059 -0.657793 10.8999
197 2 2.2208 2.49394 4.92376 10.9015
198 1 -1.1104 3.88607 0.736233 12.2948
199 1 -1.1104 3.88624 0.736207 9.50575
212 1 -1.1104 6.67555 0.736229 9.50538
209 1 -1.1104 6.67573 0.736257 12.2952
320 1 -1.1104 9.47352 14.6904 9.50871
290 1 -1.1104 6.68574 17.4807 6.72016
54 1 -1.1104 12.2528 -2.05457 6.71513
58 1 -1.1104 9.46502 0.73622 6.71592
211 1 -1.1104 6.67723 3.52706 12.2956
207 1 -1.1104 6.67743 3.52701 9.50655
29 1 -1.1104 6.67727 3.52695 6.71677
57 1 -1.1104 6.67574 0.736185 6.71631
200 1 -1.1104 6.67391 -2.05453 12.294
214 1 -1.1104 9.46351 -2.05453 6.71548
208 1 -1.1104 6.67405 -2.05453 9.5049
201 1 -1.1104 6.67387 -2.05453 6.71511
213 1 -1.1104 12.2547 0.736229 6.71627
215 2 2.2208 10.8607 2.13307 10.9006
216 1 -1.1104 12.2528 -2.05459 12.294
217 1 -1.1104 12.2562 3.52716 12.2955
218 1 -1.1104 12.253 -2.05459 9.50492
219 1 -1.1104 12.2564 3.52713 9.50647
220 1 -1.1104 12.2547 0.73627 12.2951
221 2 2.2208 10.859 -0.657782 8.11043
223 1 -1.1104 12.2545 0.736273 9.50532
224 1 -1.1104 9.46355 -2.05452 12.2943
225 1 -1.1104 9.46687 3.52709 12.2959
226 2 2.2208 8.07124 2.13299 8.11125
227 1 -1.1104 9.46334 -2.05455 9.50455
228 1 -1.1104 9.46673 3.52707 9.50615
229 2 2.2208 8.06954 -0.657762 10.8998
230 2 2.2208 8.07292 4.92383 10.9014
231 1 -1.1104 9.46503 0.736277 12.2948
232 1 -1.1104 9.46521 0.736253 9.50572
222 2 2.2208 10.8624 4.92386 8.11201
147 1 -1.1104 9.47691 20.2723 9.5096
325 1 -1.1104 9.47514 17.4811 6.71981
319 2 2.2208 8.07969 16.0871 10.9038
86 1 -1.1104 1.10169 9.10854 6.71818
88 1 -1.1104 1.1002 6.31776 6.71784
87 1 -1.1104 3.88952 6.3177 6.71752
91 1 -1.1104 1.10343 11.8994 6.71908
89 1 -1.1104 3.89134 9.10849 6.71856
238 1 -1.1104 3.89281 11.8992 6.71879
239 2 2.2208 5.28514 7.71455 10.9022
240 2 2.2208 5.28851 13.2961 10.9033
241 1 -1.1104 1.10166 9.10854 12.297
242 1 -1.1104 1.10184 9.10856 9.50791
243 1 -1.1104 1.10009 6.31777 12.2967
244 1 -1.1104 1.10343 11.8993 12.2979
245 2 2.2208 5.28684 10.5053 8.11338
246 1 -1.1104 1.10002 6.31777 9.5069
247 1 -1.1104 1.10335 11.8993 9.50815
248 1 -1.1104 3.89128 9.10849 12.2974
249 2 2.2208 2.4957 7.71452 8.11272
250 2 2.2208 2.49895 13.2961 8.11387
251 1 -1.1104 3.8912 9.10851 9.50761
252 2 2.2208 2.49732 10.5053 10.9027
253 1 -1.1104 3.88943 6.31776 12.2963
254 1 -1.1104 3.89286 11.8992 12.2976
255 1 -1.1104 3.88966 6.31775 9.5073
256 1 -1.1104 3.89298 11.8993 9.50853
258 1 -1.1104 6.68248 11.8993 12.298
266 1 -1.1104 6.68085 9.10856 9.508
257 1 -1.1104 6.67898 6.31779 9.50695
264 1 -1.1104 6.68067 9.10858 12.297
95 1 -1.1104 6.67917 6.31771 6.71791
259 1 -1.1104 6.67908 6.3178 12.2967
172 1 -1.1104 12.2663 20.2726 6.7204
316 1 -1.1104 12.263 14.691 12.2981
236 1 -1.1104 6.68069 9.10848 6.71825
262 1 -1.1104 6.68247 11.8992 6.71921
265 1 -1.1104 6.68237 11.8993 9.50819
117 1 -1.1104 9.46847 6.31779 6.71752
116 1 -1.1104 9.47181 11.8994 6.71886
267 1 -1.1104 12.2614 11.8997 6.71925
115 1 -1.1104 12.2596 9.10878 6.71821
263 1 -1.1104 9.47033 9.10861 6.71863
118 1 -1.1104 12.2581 6.31789 6.71785
268 1 -1.1104 9.47199 11.8996 9.50864
269 1 -1.1104 9.46863 6.31787 9.50731
270 1 -1.1104 9.47186 11.8996 12.2976
271 1 -1.1104 9.46841 6.31792 12.2963
272 2 2.2208 8.07633 10.5054 10.9028
273 1 -1.1104 9.47017 9.10872 9.50763
274 2 2.2208 8.07798 13.2962 8.11396
275 2 2.2208 8.07467 7.71456 8.11277
276 2 2.2208 10.8641 7.71475 10.9021
277 2 2.2208 10.8675 13.2966 10.9034
278 1 -1.1104 12.2596 9.10896 12.297
279 1 -1.1104 12.2598 9.1089 9.50798
280 1 -1.1104 12.258 6.31802 12.2966
281 1 -1.1104 12.2614 11.8999 12.298
282 2 2.2208 10.8658 10.5056 8.11342
283 1 -1.1104 12.2579 6.31801 9.50687
284 1 -1.1104 12.2613 11.8999 9.50823
285 1 -1.1104 9.47027 9.10873 12.2974
61 2 2.2208 10.8691 16.0874 8.11449
331 2 2.2208 10.8725 21.6694 8.11549
322 1 -1.1104 9.47703 20.2719 6.7208
328 1 -1.1104 12.2648 17.4822 12.299
329 1 -1.1104 12.2646 17.482 9.50922
204 1 -1.1104 12.2665 20.2732 9.51024
313 1 -1.1104 6.68582 17.4809 12.2989
288 1 -1.1104 6.68726 20.2713 6.72024
312 1 -1.1104 6.68569 17.4808 9.50909
148 1 -1.1104 1.10658 17.4809 6.71999
327 1 -1.1104 6.68408 14.6901 12.298
292 1 -1.1104 1.10804 20.2717 6.72019
294 1 -1.1104 1.10497 14.69 12.298
295 2 2.2208 5.29179 18.8775 10.9041
296 1 -1.1104 3.89771 20.2713 9.5095
297 1 -1.1104 3.89618 17.4807 9.5094
298 2 2.2208 2.50214 18.8776 8.11475
299 1 -1.1104 3.89447 14.69 9.50863
300 1 -1.1104 1.1066 17.4808 12.2987
301 2 2.2208 2.50057 16.0868 10.9037
302 2 2.2208 2.50377 21.6682 10.9045
303 1 -1.1104 3.89616 17.4806 12.2984
304 1 -1.1104 3.89782 20.2712 12.2992
305 1 -1.1104 3.8946 14.6899 12.2984
306 1 -1.1104 1.10814 20.2717 9.50974
307 1 -1.1104 1.1065 17.4809 9.50906
308 2 2.2208 5.29338 21.6682 8.11527
309 1 -1.1104 1.10503 14.6901 9.50892
310 2 2.2208 5.2901 16.0868 8.11436
311 1 -1.1104 1.10813 20.2714 12.2988
324 1 -1.1104 12.2629 14.6906 6.71937
178 1 -1.1104 9.47709 20.2724 12.2994
326 1 -1.1104 12.2631 14.6909 9.50917
170 1 -1.1104 12.2648 17.4816 6.72035
9074 2 2.2208 -0.293894 7.71453 -0.255537
9129 2 2.2208 -0.293809 7.71459 10.9021
235 2 2.2208 13.6618 21.6707 10.9048
8961 2 2.2208 -0.29379 7.71457 5.32328
9100 2 2.2208 -0.297166 2.13301 -0.257076
9158 2 2.2208 -0.295475 4.92376 2.53315
94 2 2.2208 13.6568 13.2963 2.5352
32 2 2.2208 13.6602 18.879 8.11501
53 2 2.2208 13.6602 18.8781 2.53624
174 2 2.2208 13.6584 16.0869 -0.253727
96 2 2.2208 13.6552 10.5056 5.324
93 2 2.2208 13.6569 13.2968 8.11398
62 2 2.2208 13.6552 10.5059 10.9028
33 2 2.2208 13.6585 16.0875 5.32514
332 2 2.2208 13.655 10.5052 -0.254866
52 2 2.2208 13.6585 16.088 10.9038
339 2 2.2208 5.28171 2.13302 16.4795
340 1 -1.1104 1.09502 -2.05452 17.8728
341 1 -1.1104 1.09819 3.527 17.8745
342 1 -1.1104 1.09515 -2.05454 15.0838
343 1 -1.1104 1.09838 3.52699 15.0854
344 1 -1.1104 1.09678 0.736255 17.874
345 2 2.2208 5.28015 -0.657694 19.2681
346 2 2.2208 5.28331 4.92372 19.2698
347 1 -1.1104 1.09658 0.736229 15.0843
348 1 -1.1104 3.88469 -2.05448 17.8732
349 1 -1.1104 3.88785 3.52698 17.8748
350 2 2.2208 2.49223 2.13304 19.269
351 1 -1.1104 3.88445 -2.05451 15.0834
352 1 -1.1104 3.88769 3.52701 15.085
353 2 2.2208 2.49062 -0.657733 16.4787
354 2 2.2208 2.49385 4.92375 16.4803
355 1 -1.1104 3.88608 0.736275 17.8737
356 1 -1.1104 3.88625 0.736254 15.0846
367 1 -1.1104 6.67735 3.52701 15.0854
363 2 2.2208 5.28338 4.92378 13.6909
675 2 2.2208 5.28008 -0.65775 13.6893
368 1 -1.1104 6.67576 0.73625 17.8739
358 1 -1.1104 6.67557 0.73626 15.0842
360 1 -1.1104 6.67414 -2.05452 15.0837
390 2 2.2208 13.6618 21.6683 22.0623
357 1 -1.1104 6.67717 3.527 17.8744
501 2 2.2208 13.6618 21.6701 16.4832
369 1 -1.1104 6.674 -2.05449 17.8728
9270 2 2.2208 -0.297245 2.13301 16.4795
9418 2 2.2208 -0.295582 4.9238 24.8486
538 2 2.2208 8.07122 2.13304 13.6901
370 2 2.2208 10.8607 2.13305 16.4794
371 1 -1.1104 12.253 -2.0546 17.8728
372 1 -1.1104 12.2561 3.52707 17.8743
373 1 -1.1104 12.2531 -2.05459 15.0837
374 1 -1.1104 12.2563 3.52711 15.0852
375 1 -1.1104 12.2547 0.736226 17.8739
376 2 2.2208 10.8591 -0.657791 19.268
377 2 2.2208 10.8623 4.92376 19.2697
378 1 -1.1104 12.2545 0.736264 15.0841
379 1 -1.1104 9.46367 -2.05454 17.8731
380 1 -1.1104 9.46682 3.527 17.8747
381 2 2.2208 8.0712 2.133 19.2689
382 1 -1.1104 9.46344 -2.05456 15.0834
383 1 -1.1104 9.46667 3.52708 15.085
384 2 2.2208 8.06961 -0.657747 16.4786
385 2 2.2208 8.07282 4.92378 16.4803
386 1 -1.1104 9.46507 0.73624 17.8736
387 1 -1.1104 9.46523 0.736265 15.0845
674 2 2.2208 10.859 -0.657772 13.6892
650 2 2.2208 8.08289 21.667 22.0624
659 1 -1.1104 9.47522 17.4803 20.6672
9501 2 2.2208 -0.294016 7.71453 22.0599
502 1 -1.1104 9.47344 14.6897 20.6664
388 1 -1.1104 9.46524 0.736219 20.6633
547 1 -1.1104 12.2532 -2.05462 20.6625
389 1 -1.1104 9.46667 3.52695 20.6638
392 1 -1.1104 12.2545 0.736166 20.663
673 2 2.2208 10.8623 4.9239 13.6908
395 2 2.2208 5.28501 7.71446 16.481
396 2 2.2208 5.28845 13.2958 16.4821
397 1 -1.1104 1.1015 9.10844 17.8759
398 1 -1.1104 1.1017 9.10846 15.0868
399 1 -1.1104 1.09998 6.31773 17.8756
400 1 -1.1104 1.10329 11.8991 17.8767
401 2 2.2208 5.28665 10.5051 19.2711
402 1 -1.1104 1.09989 6.31774 15.0858
403 1 -1.1104 1.10329 11.8992 15.087
404 1 -1.1104 3.89112 9.10834 17.8762
405 2 2.2208 2.49546 7.71444 19.2705
406 2 2.2208 2.49884 13.2957 19.2716
407 1 -1.1104 3.8911 9.10844 15.0864
408 2 2.2208 2.49721 10.5052 16.4816
409 1 -1.1104 3.88931 6.31769 17.8752
410 1 -1.1104 3.89274 11.899 17.8764
411 1 -1.1104 3.88952 6.31773 15.0862
412 1 -1.1104 3.8929 11.8991 15.0873
537 2 2.2208 5.28679 10.5053 13.6922
416 1 -1.1104 6.68233 11.899 17.8768
426 1 -1.1104 6.67887 6.31778 15.0858
417 1 -1.1104 6.68052 9.10839 17.8759
510 2 2.2208 8.07801 13.2962 13.6927
361 2 2.2208 2.49559 7.7145 13.6916
668 2 2.2208 5.29018 16.0867 13.6931
415 1 -1.1104 6.6807 9.10849 15.0868
414 1 -1.1104 6.67897 6.3177 17.8756
427 1 -1.1104 6.68235 11.8992 15.087
9328 2 2.2208 -0.297218 2.13305 22.0584
428 2 2.2208 10.864 7.71466 16.481
429 2 2.2208 10.8674 13.2963 16.4821
430 1 -1.1104 12.2594 9.10872 17.8758
431 1 -1.1104 12.2596 9.10887 15.0868
432 1 -1.1104 12.2579 6.31787 17.8755
433 1 -1.1104 12.2612 11.8996 17.8768
434 2 2.2208 10.8656 10.5053 19.2711
435 1 -1.1104 12.2578 6.31801 15.0857
436 1 -1.1104 12.2612 11.8998 15.087
437 1 -1.1104 9.4701 9.10851 17.8763
438 2 2.2208 8.07446 7.71444 19.2705
439 2 2.2208 8.07789 13.2958 19.2716
440 1 -1.1104 9.47007 9.10869 15.0864
441 2 2.2208 8.07621 10.5053 16.4816
442 1 -1.1104 9.46829 6.31779 17.8752
443 1 -1.1104 9.47174 11.8993 17.8764
444 1 -1.1104 9.46849 6.31787 15.0861
445 1 -1.1104 9.4719 11.8995 15.0874
473 2 2.2208 8.07456 7.71462 13.6916
671 2 2.2208 10.8657 10.5056 13.6922
418 1 -1.1104 12.2646 17.4808 20.6667
595 2 2.2208 2.50221 18.8773 13.6935
649 2 2.2208 5.29348 21.6679 13.6939
452 2 2.2208 5.2918 18.877 16.4829
453 1 -1.1104 1.10491 14.6897 17.8769
454 1 -1.1104 1.1081 20.2707 17.8777
455 1 -1.1104 1.10501 14.6899 15.0877
456 1 -1.1104 1.10813 20.2711 15.0885
457 1 -1.1104 1.10659 17.4803 17.8775
458 2 2.2208 5.29009 16.0862 19.272
459 2 2.2208 5.29336 21.667 19.2729
460 1 -1.1104 1.10657 17.4805 15.0878
461 1 -1.1104 3.89453 14.6895 17.8772
462 1 -1.1104 3.89776 20.2704 17.878
463 2 2.2208 2.50216 18.8767 19.2724
464 1 -1.1104 3.89452 14.6898 15.0874
465 1 -1.1104 3.8978 20.2709 15.0882
466 2 2.2208 2.50058 16.0864 16.4825
467 2 2.2208 2.50374 21.6674 16.4833
468 1 -1.1104 3.89614 17.4801 17.8773
469 1 -1.1104 3.8962 17.4803 15.0881
480 1 -1.1104 6.68412 14.6899 15.0878
474 1 -1.1104 6.68575 17.4802 17.8777
656 1 -1.1104 6.68736 20.2702 20.6676
476 1 -1.1104 1.10493 14.6896 20.6667
477 1 -1.1104 1.10819 20.2705 20.6675
627 1 -1.1104 1.10651 17.4801 20.6668
568 2 2.2208 2.49896 13.2959 13.6926
479 2 2.2208 8.08139 18.8778 13.6935
471 1 -1.1104 6.68742 20.2707 17.8776
470 1 -1.1104 6.68578 17.4806 15.0878
472 1 -1.1104 6.68402 14.6897 17.8769
481 1 -1.1104 6.68748 20.2712 15.0887
482 2 2.2208 10.8708 18.8781 16.4829
483 1 -1.1104 12.263 14.6905 17.8769
484 1 -1.1104 12.2665 20.2724 17.8775
485 1 -1.1104 12.263 14.6908 15.0879
486 1 -1.1104 12.2664 20.2732 15.0887
487 1 -1.1104 12.2647 17.4814 17.8777
488 2 2.2208 10.8691 16.0868 19.272
489 2 2.2208 10.8725 21.6683 19.2727
490 1 -1.1104 12.2647 17.4819 15.0878
491 1 -1.1104 9.47356 14.69 17.8773
492 1 -1.1104 9.47697 20.2714 17.8781
493 2 2.2208 8.08131 18.877 19.2724
494 1 -1.1104 9.47358 14.6903 15.0874
495 1 -1.1104 9.47706 20.2721 15.0882
496 2 2.2208 8.0797 16.0867 16.4826
497 2 2.2208 8.08306 21.6681 16.4833
498 1 -1.1104 9.47528 17.4807 17.8772
499 1 -1.1104 9.47532 17.4812 15.0883
366 2 2.2208 10.8692 16.0875 13.6932
655 1 -1.1104 12.2629 14.6898 26.2458
425 2 2.2208 10.8726 21.6698 13.694
660 1 -1.1104 12.2663 20.2715 20.6675
647 1 -1.1104 6.68566 17.4799 20.6667
515 1 -1.1104 1.09661 0.736287 20.6631
359 1 -1.1104 1.09838 3.52703 20.6643
365 1 -1.1104 3.88453 -2.05442 20.6622
9414 2 2.2208 -0.293949 7.71455 16.481
9545 2 2.2208 -0.298872 -0.657812 13.6893
513 1 -1.1104 1.09525 -2.05448 20.6626
507 1 -1.1104 3.88768 3.52701 20.6639
514 1 -1.1104 3.88627 0.736294 20.6634
516 2 2.2208 5.28175 2.13302 22.0584
517 1 -1.1104 1.09507 -2.05446 23.4517
518 1 -1.1104 1.09823 3.52701 23.4534
519 1 -1.1104 1.09523 -2.05445 26.2415
520 1 -1.1104 1.09843 3.52704 26.2431
521 1 -1.1104 1.09682 0.736294 23.4529
522 2 2.2208 5.28015 -0.657681 24.847
523 1 -1.1104 1.09665 0.736294 26.242
524 1 -1.1104 3.88473 -2.05442 23.452
525 1 -1.1104 3.88788 3.52699 23.4537
526 2 2.2208 2.49228 2.13305 24.8478
527 1 -1.1104 3.88451 -2.05441 26.2411
528 1 -1.1104 3.88775 3.52697 26.2428
529 2 2.2208 2.49067 -0.657675 22.0576
530 2 2.2208 2.49385 4.92376 22.0592
531 1 -1.1104 3.88611 0.736294 23.4525
532 1 -1.1104 3.8863 0.736283 26.2423
533 2 2.2208 5.28337 4.92368 24.8487
509 1 -1.1104 6.67735 3.52695 20.6642
543 1 -1.1104 6.67742 3.52692 26.2431
511 1 -1.1104 6.67559 0.736256 20.663
546 1 -1.1104 6.67421 -2.05446 20.6625
9265 2 2.2208 -0.295642 4.92379 19.2698
654 1 -1.1104 9.47334 14.6896 26.2454
9423 2 2.2208 -0.295568 4.92379 13.6909
544 1 -1.1104 6.67721 3.52693 23.4533
536 1 -1.1104 6.67561 0.736245 26.242
534 1 -1.1104 6.67417 -2.05443 26.2414
545 1 -1.1104 6.67579 0.736237 23.4528
541 1 -1.1104 12.2563 3.52695 20.6641
391 1 -1.1104 9.46351 -2.05453 20.6622
535 1 -1.1104 6.67402 -2.05443 23.4516
548 2 2.2208 10.8607 2.13294 22.0583
549 1 -1.1104 12.253 -2.05462 23.4516
550 1 -1.1104 12.2561 3.52687 23.4533
551 1 -1.1104 12.2531 -2.05461 26.2414
552 1 -1.1104 12.2564 3.52684 26.2431
553 1 -1.1104 12.2547 0.736135 23.4528
554 2 2.2208 10.8591 -0.657816 24.8469
555 2 2.2208 10.8623 4.92361 24.8486
556 1 -1.1104 12.2546 0.736116 26.2419
557 1 -1.1104 9.46369 -2.05451 23.4519
558 1 -1.1104 9.46687 3.52689 23.4536
559 2 2.2208 8.07125 2.13295 24.8478
560 1 -1.1104 9.46349 -2.0545 26.2411
561 1 -1.1104 9.46673 3.52687 26.2428
562 2 2.2208 8.06964 -0.657731 22.0575
563 2 2.2208 8.07283 4.92367 22.0592
564 1 -1.1104 9.46508 0.736189 23.4525
565 1 -1.1104 9.46527 0.736177 26.2423
667 2 2.2208 2.49223 2.13299 13.6901
571 1 -1.1104 1.10158 9.10842 20.6657
421 1 -1.1104 1.10313 11.899 20.6659
413 1 -1.1104 1.09981 6.31774 20.6647
420 1 -1.1104 3.89095 9.10831 20.6654
569 1 -1.1104 3.88946 6.31768 20.6651
419 1 -1.1104 3.89275 11.8989 20.6662
573 2 2.2208 5.28496 7.71435 22.0599
574 2 2.2208 5.28832 13.2956 22.0611
575 1 -1.1104 1.10147 9.1084 23.4548
576 1 -1.1104 1.10167 9.10846 26.2446
577 1 -1.1104 1.1 6.31775 23.4545
578 1 -1.1104 1.10324 11.8991 23.4557
579 2 2.2208 5.28664 10.505 24.85
580 1 -1.1104 1.0999 6.31775 26.2436
581 1 -1.1104 1.10315 11.8991 26.2449
582 1 -1.1104 3.89109 9.1083 23.4552
583 2 2.2208 2.49551 7.71443 24.8494
584 2 2.2208 2.4988 13.2957 24.8506
585 1 -1.1104 3.89103 9.10832 26.2443
586 2 2.2208 2.49711 10.5051 22.0606
587 1 -1.1104 3.88933 6.31766 23.4542
588 1 -1.1104 3.89264 11.8989 23.4554
589 1 -1.1104 3.88954 6.31767 26.244
590 1 -1.1104 3.89278 11.899 26.2452
591 1 -1.1104 6.68047 9.10823 23.4549
602 1 -1.1104 6.68226 11.8988 23.4558
658 2 2.2208 8.08122 18.8767 24.8515
657 1 -1.1104 9.4751 17.4801 23.4563
449 1 -1.1104 12.2611 11.8993 20.6659
572 1 -1.1104 6.6788 6.31763 20.6647
593 1 -1.1104 6.67898 6.31759 23.4545
592 1 -1.1104 6.68217 11.8989 26.2449
600 1 -1.1104 6.67887 6.31759 26.2436
597 1 -1.1104 6.68219 11.8989 20.6659
594 1 -1.1104 6.68065 9.10825 26.2447
447 1 -1.1104 9.46844 6.31765 20.665
446 1 -1.1104 12.2577 6.31774 20.6646
598 1 -1.1104 12.2595 9.1085 20.6657
601 1 -1.1104 6.68058 9.10828 20.6657
596 1 -1.1104 9.46993 9.10837 20.6653
448 1 -1.1104 9.47175 11.899 20.6663
603 1 -1.1104 9.47007 9.10827 23.4552
604 1 -1.1104 12.2611 11.8991 26.2449
605 1 -1.1104 12.2578 6.3176 26.2435
606 2 2.2208 10.8656 10.5051 24.8501
607 1 -1.1104 12.2612 11.8991 23.4558
608 1 -1.1104 12.2579 6.31761 23.4544
609 1 -1.1104 12.2596 9.10835 26.2446
610 1 -1.1104 12.2594 9.10836 23.4548
611 1 -1.1104 9.47177 11.8989 26.2453
612 1 -1.1104 9.46853 6.31757 26.2439
613 1 -1.1104 9.47164 11.8989 23.4554
614 1 -1.1104 9.4683 6.31758 23.4541
615 2 2.2208 8.07611 10.505 22.0606
616 1 -1.1104 9.46998 9.10826 26.2443
617 2 2.2208 8.0778 13.2956 24.8506
618 2 2.2208 8.07449 7.71431 24.8494
619 2 2.2208 10.8639 7.7144 22.0599
620 2 2.2208 10.8673 13.2958 22.0611
542 1 -1.1104 9.47675 20.2706 26.2463
422 1 -1.1104 9.4769 20.2708 20.6671
570 1 -1.1104 12.2645 17.4805 26.2458
9323 2 2.2208 -0.298805 -0.657748 19.2681
9417 2 2.2208 -0.298778 -0.657723 24.847
475 1 -1.1104 6.68401 14.6894 20.6668
626 1 -1.1104 3.89769 20.2702 20.6672
478 1 -1.1104 3.89616 17.4799 20.6671
625 1 -1.1104 3.89439 14.6894 20.6663
629 2 2.2208 2.50049 16.0862 22.0615
630 2 2.2208 2.50373 21.667 22.0625
631 1 -1.1104 3.89602 17.4799 23.4563
632 1 -1.1104 1.10661 17.4802 23.4566
633 1 -1.1104 3.89431 14.6895 26.2454
634 1 -1.1104 3.89614 17.4801 26.2462
635 2 2.2208 2.50215 18.8768 24.8515
636 1 -1.1104 3.89762 20.2705 26.2463
637 2 2.2208 5.29172 18.8765 22.062
638 1 -1.1104 1.10481 14.6896 23.4559
639 1 -1.1104 1.10809 20.2706 23.4568
640 2 2.2208 5.29001 16.0861 24.8511
641 2 2.2208 5.29332 21.667 24.852
642 1 -1.1104 1.10493 14.6898 26.2457
643 1 -1.1104 1.10645 17.4804 26.2459
644 1 -1.1104 1.10828 20.2709 26.2466
645 1 -1.1104 3.89445 14.6894 23.4562
646 1 -1.1104 3.89779 20.2703 23.4571
621 1 -1.1104 6.68387 14.6894 23.4559
665 1 -1.1104 6.68568 17.4798 23.4567
512 1 -1.1104 12.2628 14.6898 23.4559
664 1 -1.1104 12.2664 20.2711 26.2468
624 1 -1.1104 6.68396 14.6895 26.2458
623 1 -1.1104 6.68736 20.2704 26.2467
651 1 -1.1104 12.2663 20.271 23.4566
508 1 -1.1104 9.47346 14.6895 23.4563
663 2 2.2208 10.8724 21.6675 24.852
661 1 -1.1104 9.4752 17.4801 26.2463
503 1 -1.1104 12.2629 14.69 20.6668
423 1 -1.1104 9.47689 20.2705 23.4571
652 2 2.2208 8.07957 16.0862 22.0615
599 2 2.2208 10.869 16.0864 24.8511
506 1 -1.1104 12.2646 17.4805 23.4567
653 2 2.2208 10.8707 18.8771 22.062
628 1 -1.1104 6.68552 17.48 26.2458
666 1 -1.1104 6.68723 20.2702 23.4568
539 2 2.2208 13.6551 10.5057 16.4816
662 2 2.2208 13.6584 16.0868 22.0616
504 2 2.2208 13.6585 16.0876 16.4826
364 2 2.2208 13.6602 18.8792 13.6936
648 2 2.2208 13.6601 18.8774 24.8515
424 2 2.2208 13.655 10.5053 22.0605
362 2 2.2208 13.6567 13.296 24.8506
669 2 2.2208 13.6568 13.2968 13.6927
505 2 2.2208 13.6601 18.8781 19.2724
451 2 2.2208 13.6567 13.2963 19.2716
676 2 2.2208 5.29496 24.4586 5.32649
677 2 2.2208 5.29821 30.0397 5.32747
678 1 -1.1104 1.11112 25.8527 1.14266
679 1 -1.1104 1.11129 25.8531 3.93211
680 1 -1.1104 1.10985 23.062 1.14224
681 1 -1.1104 1.11289 28.6434 1.14345
682 2 2.2208 5.29652 27.2487 2.53782
683 1 -1.1104 1.10959 23.0623 3.93139
684 1 -1.1104 1.11252 28.644 3.93255
685 1 -1.1104 3.90095 25.8518 1.14286
686 2 2.2208 2.50536 24.4587 2.53716
687 2 2.2208 2.50851 30.0402 2.53845
688 1 -1.1104 3.90072 25.8522 3.93195
689 2 2.2208 2.50691 27.2497 5.32694
690 1 -1.1104 3.89918 23.0613 1.14202
691 1 -1.1104 3.90213 28.6423 1.1433
692 1 -1.1104 3.89936 23.0617 3.93167
693 1 -1.1104 3.9024 28.6427 3.93271
699 1 -1.1104 6.68903 23.0612 1.14237
697 1 -1.1104 6.69218 28.6417 1.14356
1009 2 2.2208 2.50689 27.2487 -0.251471
702 1 -1.1104 1.1097 23.0625 6.72089
847 1 -1.1104 6.68908 23.0619 6.72118
962 2 2.2208 5.29491 24.4577 -0.252183
1355 2 2.2208 10.884 46.8002 -0.274818
766 2 2.2208 8.09234 38.4117 -0.2491
694 1 -1.1104 6.68882 23.0615 3.9314
696 1 -1.1104 6.69036 25.8515 1.14259
706 1 -1.1104 6.692 28.6421 3.9325
698 1 -1.1104 6.69066 25.8519 3.93233
707 2 2.2208 10.8742 24.4597 5.32676
708 2 2.2208 10.8775 30.0415 5.32814
709 1 -1.1104 12.2696 25.8526 1.14261
710 1 -1.1104 12.27 25.8536 3.93277
711 1 -1.1104 12.2682 23.0621 1.14254
712 1 -1.1104 12.2716 28.643 1.14383
713 2 2.2208 10.8758 27.2495 2.53806
714 1 -1.1104 12.268 23.0628 3.93154
715 1 -1.1104 12.2714 28.6441 3.93286
716 1 -1.1104 9.48033 25.8518 1.14307
717 2 2.2208 8.08457 24.4583 2.53727
718 2 2.2208 8.08774 30.0392 2.53865
719 1 -1.1104 9.48012 25.8524 3.93203
720 2 2.2208 8.08629 27.2494 5.32717
721 1 -1.1104 9.47841 23.0614 1.14199
722 1 -1.1104 9.48157 28.642 1.14323
723 1 -1.1104 9.4787 23.062 3.93197
724 1 -1.1104 9.48213 28.6428 3.93322
1007 2 2.2208 8.08603 27.248 -0.251461
990 2 2.2208 10.874 24.4582 -0.252185
819 2 2.2208 8.08896 32.8286 -0.249423
729 1 -1.1104 6.69235 28.6425 6.7222
763 2 2.2208 5.3015 35.6203 -0.24871
734 2 2.2208 5.30172 35.6213 5.32834
735 1 -1.1104 1.11398 31.4343 1.144
736 1 -1.1104 1.11721 37.0171 1.14514
737 1 -1.1104 1.11411 31.4349 3.93318
738 1 -1.1104 1.11683 37.0177 3.93379
739 1 -1.1104 1.11596 34.2254 1.14479
740 2 2.2208 5.29975 32.8301 2.53922
741 2 2.2208 5.30336 38.4127 2.53967
742 1 -1.1104 1.11534 34.2261 3.93354
743 1 -1.1104 3.90394 31.4329 1.14411
744 1 -1.1104 3.90699 37.0145 1.14497
745 2 2.2208 2.51219 35.6227 2.5397
746 1 -1.1104 3.90366 31.4332 3.93303
747 1 -1.1104 3.90634 37.0142 3.93337
748 2 2.2208 2.51028 32.8315 5.32782
749 2 2.2208 2.51475 38.4145 5.32786
750 1 -1.1104 3.90508 34.2235 1.14451
751 1 -1.1104 3.90518 34.2237 3.93356
755 1 -1.1104 6.6933 31.4319 1.14393
904 1 -1.1104 1.11739 37.0165 6.72236
1008 2 2.2208 5.29797 30.0385 -0.250606
903 1 -1.1104 1.11552 34.2259 6.72254
841 2 2.2208 10.8802 41.2068 -0.253383
842 2 2.2208 8.09743 44.002 -0.256961
817 2 2.2208 2.51022 32.8302 -0.249742
768 1 -1.1104 6.69653 37.0129 1.14449
753 1 -1.1104 6.69503 34.222 3.93337
767 1 -1.1104 6.69377 31.4322 3.93333
765 1 -1.1104 6.69624 37.0117 3.93371
754 1 -1.1104 6.69523 34.2224 1.14479
769 2 2.2208 10.8806 35.6235 5.32952
770 1 -1.1104 12.2728 31.4331 1.14399
771 1 -1.1104 12.276 37.0132 1.14501
772 1 -1.1104 12.2737 31.4346 3.93437
773 1 -1.1104 12.2775 37.0139 3.93479
774 1 -1.1104 12.275 34.2233 1.14511
775 2 2.2208 10.8788 32.8307 2.53975
776 2 2.2208 10.8794 38.4128 2.54114
777 1 -1.1104 12.275 34.2245 3.93432
778 1 -1.1104 9.48357 31.4322 1.1444
779 1 -1.1104 9.48638 37.013 1.14521
780 2 2.2208 8.09066 35.621 2.54024
781 1 -1.1104 9.48343 31.4328 3.93319
782 1 -1.1104 9.48633 37.0123 3.93402
783 2 2.2208 8.08955 32.8305 5.32812
784 2 2.2208 8.09171 38.4123 5.33043
785 1 -1.1104 9.4846 34.2223 1.14468
786 1 -1.1104 9.48555 34.2229 3.93427
790 2 2.2208 10.8794 35.6194 -0.248395
937 1 -1.1104 12.2731 31.4369 6.72325
764 2 2.2208 2.51507 38.4134 -0.247938
934 1 -1.1104 12.2774 37.0175 6.72513
939 1 -1.1104 9.48824 37.0098 6.72441
935 1 -1.1104 9.48407 31.4336 6.72337
818 2 2.2208 5.32053 46.7938 -0.258697
844 2 2.2208 -0.258912 44.0033 8.10954
793 2 2.2208 5.30548 41.2026 5.32717
794 2 2.2208 5.29587 46.789 5.30801
795 1 -1.1104 1.12128 42.6027 1.14359
796 1 -1.1104 1.1179 42.6029 3.9311
797 1 -1.1104 1.11959 39.809 1.14545
798 1 -1.1104 1.12353 45.3953 1.14065
799 2 2.2208 5.30775 43.9978 2.533
800 1 -1.1104 1.1181 39.81 3.93336