ITEM: TIMESTEP
338
ITEM: NUMBER OF ATOMS
17676
ITEM: BOX BOUNDS pp pp pp
-2.7717828229332220e-01 2.7617178282293317e+01
-3.4472205766305355e+00 3.3152722057663055e+02
-2.7717827830221448e-01 2.7617178278302212e+01
ITEM: ATOMS id type q x y z
1 2 2.2208 5.29131 2.13968 5.31645
2 1 -1.1104 1.1043 -2.04863 1.13187
3 1 -1.1104 1.10804 3.53423 1.13213
4 1 -1.1104 1.10434 -2.04861 3.92173
5 1 -1.1104 1.10806 3.53427 3.922
6 1 -1.1104 1.10616 0.742805 1.1324
7 2 2.2208 5.28944 -0.651809 2.52686
8 2 2.2208 5.29324 4.93101 2.52714
9 1 -1.1104 1.10612 0.742845 3.92148
10 1 -1.1104 3.89381 -2.04863 1.13226
11 1 -1.1104 3.89756 3.53417 1.13255
12 2 2.2208 2.50184 2.13965 2.52701
13 1 -1.1104 3.89378 -2.04861 3.92133
14 1 -1.1104 3.89751 3.53424 3.92159
15 2 2.2208 2.49998 -0.651758 5.31632
16 2 2.2208 2.50375 4.93114 5.31659
17 1 -1.1104 3.89559 0.742787 1.13201
18 1 -1.1104 3.89564 0.742822 3.92186
328 2 2.2208 2.50375 4.93099 -0.262342
331 2 2.2208 5.29912 13.3048 -0.261798
8874 2 2.2208 -0.287636 2.13973 5.31646
324 2 2.2208 5.29132 2.13956 -0.262466
141 2 2.2208 10.8802 16.0977 8.10692
8879 2 2.2208 -0.285744 4.93112 2.52711
8880 2 2.2208 -0.289485 -0.651801 2.52686
33 1 -1.1104 6.687 3.53415 1.13211
333 2 2.2208 2.49997 -0.651823 -0.262602
178 1 -1.1104 1.10801 3.53437 6.71105
27 1 -1.1104 1.10429 -2.04858 6.71078
24 1 -1.1104 1.10616 0.742902 6.71131
177 1 -1.1104 3.8956 0.742881 6.71092
236 2 2.2208 10.8823 18.89 10.8965
31 1 -1.1104 6.68324 -2.04866 1.13186
22 1 -1.1104 6.68704 3.53423 3.92201
32 1 -1.1104 6.68509 0.742808 3.92147
30 1 -1.1104 6.68512 0.742753 1.1324
330 2 2.2208 8.08272 4.93098 -0.262347
19 1 -1.1104 6.68328 -2.04862 3.92172
35 2 2.2208 10.8703 2.13974 5.31645
36 1 -1.1104 12.2621 -2.04869 1.1319
37 1 -1.1104 12.2659 3.53428 1.1321
38 1 -1.1104 12.2622 -2.04867 3.92173
39 1 -1.1104 12.2659 3.53437 3.922
40 1 -1.1104 12.264 0.742793 1.13241
41 2 2.2208 10.8684 -0.65182 2.52687
42 1 -1.1104 12.264 0.742856 3.92146
43 1 -1.1104 9.47272 -2.04866 1.13226
44 1 -1.1104 9.4765 3.53422 1.13254
45 2 2.2208 8.0808 2.13962 2.527
46 1 -1.1104 9.47269 -2.04863 3.92134
47 1 -1.1104 9.47645 3.5343 3.92157
48 2 2.2208 8.07892 -0.65177 5.31633
49 2 2.2208 8.08271 4.93115 5.31659
50 1 -1.1104 9.47456 0.742785 1.13201
51 1 -1.1104 9.4746 0.742851 3.92187
52 2 2.2208 10.8722 4.93113 2.52712
211 1 -1.1104 9.47274 -2.0486 6.71121
57 1 -1.1104 6.68513 0.742872 6.71132
207 1 -1.1104 12.2659 3.5345 6.71104
55 1 -1.1104 12.264 0.742915 6.7113
334 2 2.2208 2.50763 10.5136 -0.262001
9007 2 2.2208 -0.281887 10.5139 2.52749
61 2 2.2208 5.29517 7.72251 5.31676
62 2 2.2208 5.29913 13.3052 5.31719
63 1 -1.1104 1.11184 9.11697 1.13246
64 1 -1.1104 1.11191 9.11708 3.9223
65 1 -1.1104 1.10996 6.32561 1.13265
66 1 -1.1104 1.11388 11.9083 1.13302
67 2 2.2208 5.29713 10.5137 2.52749
68 1 -1.1104 1.1099 6.32569 3.92174
69 1 -1.1104 1.11376 11.9084 3.92214
70 1 -1.1104 3.90141 9.11683 1.13285
71 2 2.2208 2.50566 7.7224 2.52728
72 2 2.2208 2.50958 13.305 2.5277
73 1 -1.1104 3.90134 9.11697 3.92191
74 2 2.2208 2.50762 10.5139 5.31694
75 1 -1.1104 3.89943 6.32552 1.13225
76 1 -1.1104 3.90332 11.9081 1.13265
77 1 -1.1104 3.89947 6.32562 3.92213
78 1 -1.1104 3.9034 11.9083 3.92255
332 2 2.2208 5.29518 7.72228 -0.262185
9178 2 2.2208 -0.283822 7.72248 -0.262192
8912 2 2.2208 -0.279952 13.3056 5.31716
9028 2 2.2208 -0.283819 7.72268 5.31675
9172 2 2.2208 -0.279912 13.3052 -0.261808
234 1 -1.1104 1.11385 11.9087 6.71196
235 1 -1.1104 1.11182 9.11729 6.71136
79 1 -1.1104 6.68892 6.32563 3.92173
84 1 -1.1104 6.6929 11.9081 1.13307
82 1 -1.1104 6.68898 6.32552 1.13268
91 1 -1.1104 6.69087 9.11683 1.13243
83 1 -1.1104 6.69095 9.11699 3.92236
90 1 -1.1104 6.69284 11.9083 3.92212
92 2 2.2208 10.8741 7.72275 5.31677
93 2 2.2208 10.8781 13.3057 5.31722
94 1 -1.1104 12.2698 9.11719 1.13242
95 1 -1.1104 12.2699 9.11738 3.92239
96 1 -1.1104 12.2679 6.32575 1.1327
97 1 -1.1104 12.2719 11.9086 1.13311
98 2 2.2208 10.8761 10.514 2.52751
99 1 -1.1104 12.2679 6.32589 3.92173
100 1 -1.1104 12.2718 11.9088 3.92212
101 1 -1.1104 9.48043 9.11697 1.13286
102 2 2.2208 8.08468 7.72243 2.52731
103 2 2.2208 8.08864 13.3051 2.52773
104 1 -1.1104 9.48036 9.11713 3.9219
105 2 2.2208 8.08665 10.514 5.31697
106 1 -1.1104 9.47841 6.32561 1.13225
107 1 -1.1104 9.48234 11.9083 1.13261
108 1 -1.1104 9.47848 6.32572 3.92219
109 1 -1.1104 9.48245 11.9085 3.92262
327 2 2.2208 10.8741 7.72248 -0.262194
268 1 -1.1104 12.2698 9.11764 6.71135
269 1 -1.1104 9.48236 11.9088 6.71158
89 1 -1.1104 6.69086 9.11718 6.71134
111 1 -1.1104 9.48046 9.11738 6.71182
336 2 2.2208 10.8781 13.3052 -0.261807
337 2 2.2208 8.08664 10.5136 -0.262002
323 2 2.2208 5.30312 18.887 -0.261302
316 2 2.2208 -0.275979 18.8876 -0.261363
119 2 2.2208 5.30314 18.8876 5.31771
120 1 -1.1104 1.11574 14.6995 1.13288
121 1 -1.1104 1.11968 20.2817 1.13338
122 1 -1.1104 1.11583 14.6997 3.92273
123 1 -1.1104 1.11978 20.2821 3.92324
124 1 -1.1104 1.11779 17.4907 1.13347
125 2 2.2208 5.30113 16.0961 2.52796
126 2 2.2208 5.30524 21.6782 2.52852
127 1 -1.1104 1.11764 17.491 3.92266
128 1 -1.1104 3.90537 14.6993 1.13326
129 1 -1.1104 3.90939 20.2813 1.1338
130 2 2.2208 2.51356 18.8874 2.52822
131 1 -1.1104 3.90526 14.6995 3.92237
132 1 -1.1104 3.90924 20.2817 3.9229
133 2 2.2208 2.51154 16.0966 5.31741
134 2 2.2208 2.51555 21.6789 5.31796
135 1 -1.1104 3.90725 17.4904 1.13313
136 1 -1.1104 3.90737 17.4907 3.92303
86 2 2.2208 -0.276043 18.8883 5.31769
114 2 2.2208 -0.273962 21.679 2.52848
8948 2 2.2208 -0.277971 16.0966 2.52794
140 1 -1.1104 6.69495 14.6996 3.92283
139 1 -1.1104 3.90537 14.6998 6.71225
143 1 -1.1104 3.90721 17.4911 6.71207
297 1 -1.1104 1.11953 20.2827 6.71239
149 1 -1.1104 6.69694 17.4904 1.13356
137 1 -1.1104 6.69683 17.4907 3.92262
148 1 -1.1104 6.69908 20.2817 3.9234
147 1 -1.1104 6.6989 20.2813 1.13335
138 1 -1.1104 6.69484 14.6993 1.13287
150 2 2.2208 10.8823 18.8885 5.31782
151 1 -1.1104 12.2738 14.6999 1.13282
152 1 -1.1104 12.278 20.2824 1.13331
153 1 -1.1104 12.274 14.7003 3.92289
154 1 -1.1104 12.2782 20.2829 3.92358
155 1 -1.1104 12.276 17.4912 1.13362
156 2 2.2208 10.8802 16.0967 2.52798
157 2 2.2208 10.8844 21.6791 2.52862
158 1 -1.1104 12.2759 17.4916 3.92265
159 1 -1.1104 9.48445 14.6995 1.13332
160 1 -1.1104 9.4886 20.2817 1.13392
161 2 2.2208 8.09273 18.8874 2.52826
162 1 -1.1104 9.48435 14.6998 3.92233
163 1 -1.1104 9.4885 20.2822 3.92292
164 2 2.2208 8.0907 16.0967 5.31746
165 2 2.2208 8.09488 21.6791 5.31807
166 1 -1.1104 9.48638 17.4907 1.13307
167 1 -1.1104 9.48658 17.4911 3.92317
319 2 2.2208 10.8822 18.8877 -0.261334
320 2 2.2208 8.09064 16.0961 -0.261574
318 2 2.2208 8.09478 21.6781 -0.261031
25 1 -1.1104 3.89379 -2.04858 6.71116
8881 2 2.2208 -0.287641 2.13987 10.8953
9179 2 2.2208 -0.287605 2.13962 -0.262483
8911 2 2.2208 -0.289495 -0.651714 8.10576
26 1 -1.1104 3.89755 3.53433 6.71144
179 2 2.2208 5.29132 2.1398 10.8953
180 1 -1.1104 1.1043 -2.04857 12.2896
181 1 -1.1104 1.10802 3.53449 12.2899
182 1 -1.1104 1.10432 -2.04856 9.50059
183 1 -1.1104 1.10805 3.53447 9.50087
184 1 -1.1104 1.10618 0.742971 12.2901
185 2 2.2208 5.28943 -0.651723 8.10575
186 2 2.2208 5.29323 4.93122 8.10602
187 1 -1.1104 1.10614 0.742961 9.50033
188 1 -1.1104 3.89377 -2.04857 12.29
189 1 -1.1104 3.89754 3.53446 12.2903
190 2 2.2208 2.50183 2.13977 8.10589
191 1 -1.1104 3.89377 -2.04856 9.50021
192 1 -1.1104 3.8975 3.5344 9.50045
193 2 2.2208 2.49997 -0.651706 10.8952
194 2 2.2208 2.50374 4.93132 10.8954
195 1 -1.1104 3.89563 0.742953 12.2897
196 1 -1.1104 3.89565 0.742922 9.50074
8976 2 2.2208 -0.285728 4.93132 8.10602
174 2 2.2208 8.09491 21.6806 10.8967
203 1 -1.1104 9.48451 14.701 12.2911
200 1 -1.1104 6.68697 3.53432 6.71103
201 1 -1.1104 6.68326 -2.04856 9.50062
198 1 -1.1104 6.6851 0.74294 9.50032
202 1 -1.1104 6.68513 0.742949 12.2901
58 1 -1.1104 9.47651 3.53441 6.71145
21 1 -1.1104 6.68324 -2.04859 6.71078
210 1 -1.1104 6.68324 -2.04858 12.2897
209 1 -1.1104 6.687 3.53448 12.2898
197 1 -1.1104 6.68703 3.53445 9.50087
54 1 -1.1104 9.47457 0.742905 6.7109
56 1 -1.1104 12.2621 -2.04865 6.7108
212 2 2.2208 10.8702 2.13987 10.8953
213 1 -1.1104 12.2621 -2.04861 12.2896
214 1 -1.1104 12.2659 3.53466 12.2898
215 1 -1.1104 12.2622 -2.04863 9.50063
216 1 -1.1104 12.266 3.53459 9.50089
217 1 -1.1104 12.264 0.743011 12.2901
218 2 2.2208 10.8684 -0.651742 8.10576
219 2 2.2208 10.8722 4.93138 8.10603
220 1 -1.1104 12.264 0.742972 9.50031
221 1 -1.1104 9.47272 -2.0486 12.29
222 1 -1.1104 9.4765 3.53454 12.2903
223 2 2.2208 8.0808 2.13977 8.10587
224 1 -1.1104 9.4727 -2.0486 9.50024
225 1 -1.1104 9.47646 3.53449 9.50044
226 2 2.2208 8.07891 -0.65171 10.8952
227 2 2.2208 8.08272 4.93136 10.8954
228 1 -1.1104 9.47455 0.742965 12.2897
229 1 -1.1104 9.4746 0.742948 9.50072
325 2 2.2208 2.51155 16.0961 -0.261572
322 2 2.2208 2.51559 21.6781 -0.261057
238 1 -1.1104 1.10999 6.32584 6.71158
8913 2 2.2208 -0.280006 13.3061 10.8959
81 1 -1.1104 3.89942 6.32576 6.71119
8974 2 2.2208 -0.283823 7.72294 10.8956
85 1 -1.1104 3.90329 11.9085 6.71158
237 1 -1.1104 3.90142 9.11716 6.71177
239 2 2.2208 5.29517 7.7228 10.8956
240 2 2.2208 5.29912 13.3057 10.896
241 1 -1.1104 1.11183 9.11753 12.2901
242 1 -1.1104 1.1119 9.11747 9.50115
243 1 -1.1104 1.10995 6.32601 12.2904
244 1 -1.1104 1.11379 11.909 12.2907
245 2 2.2208 5.29714 10.5141 8.10638
246 1 -1.1104 1.10993 6.32597 9.50061
247 1 -1.1104 1.11373 11.9089 9.501
248 1 -1.1104 3.90141 9.11743 12.2906
249 2 2.2208 2.50567 7.7227 8.10618
250 2 2.2208 2.50956 13.3055 8.10659
251 1 -1.1104 3.90137 9.11735 9.50077
252 2 2.2208 2.5076 10.5143 10.8958
253 1 -1.1104 3.89943 6.32596 12.29
254 1 -1.1104 3.9033 11.9089 12.2903
255 1 -1.1104 3.89947 6.32589 9.50102
256 1 -1.1104 3.90338 11.9088 9.50139
8997 2 2.2208 -0.281912 10.5144 8.10636
257 1 -1.1104 6.69287 11.9089 9.50098
267 1 -1.1104 6.69296 11.9086 6.71203
266 1 -1.1104 6.69089 9.1175 12.2901
259 1 -1.1104 6.69095 9.11742 9.5012
265 1 -1.1104 6.68891 6.32592 9.50059
232 1 -1.1104 6.68898 6.32576 6.71161
113 1 -1.1104 12.2719 11.9092 6.7121
110 1 -1.1104 9.47837 6.3259 6.71117
260 1 -1.1104 6.68896 6.326 12.2904
258 1 -1.1104 6.69293 11.909 12.2908
112 1 -1.1104 12.2679 6.32606 6.71163
270 1 -1.1104 9.48249 11.9092 9.50145
271 1 -1.1104 9.47845 6.32604 9.50104
272 1 -1.1104 9.48241 11.9094 12.2903
273 1 -1.1104 9.4784 6.32613 12.29
274 2 2.2208 8.08666 10.5144 10.8958
275 1 -1.1104 9.48038 9.11759 9.50074
276 2 2.2208 8.08867 13.3057 8.10662
277 2 2.2208 8.08467 7.72276 8.10618
278 2 2.2208 10.8741 7.72308 10.8956
279 2 2.2208 10.8782 13.3064 10.896
280 1 -1.1104 12.2699 9.11802 12.2901
281 1 -1.1104 12.2699 9.11788 9.50124
282 1 -1.1104 12.2679 6.32632 12.2904
283 1 -1.1104 12.2719 11.9098 12.2908
284 2 2.2208 10.8761 10.5145 8.10641
285 1 -1.1104 12.2678 6.32624 9.50058
286 1 -1.1104 12.2718 11.9096 9.50097
287 1 -1.1104 9.48044 9.11773 12.2906
60 2 2.2208 -0.274207 21.6803 8.10735
144 1 -1.1104 1.11568 14.7001 6.71184
8918 2 2.2208 -0.278048 16.0974 8.10682
296 1 -1.1104 3.90937 20.2822 6.71276
298 1 -1.1104 1.11774 17.4914 6.71244
289 1 -1.1104 3.90917 20.2827 9.5017
299 1 -1.1104 3.90733 17.4915 9.50186
300 2 2.2208 2.51347 18.8883 8.10708
301 1 -1.1104 3.90525 14.7001 9.50122
302 1 -1.1104 1.11761 17.4921 12.2911
303 2 2.2208 2.51148 16.0972 10.8962
304 2 2.2208 2.51536 21.68 10.8966
305 1 -1.1104 3.90723 17.4917 12.2908
306 1 -1.1104 3.90924 20.283 12.2914
307 1 -1.1104 3.90532 14.7003 12.291
308 1 -1.1104 1.11957 20.2833 9.50204
309 1 -1.1104 1.11756 17.4919 9.5015
310 2 2.2208 5.30521 21.6793 8.10738
311 1 -1.1104 1.11576 14.7004 9.50158
312 2 2.2208 5.30112 16.0969 8.10685
313 1 -1.1104 1.11939 20.2835 12.291
314 1 -1.1104 1.11564 14.7006 12.2906
315 2 2.2208 5.30313 18.8885 10.8964
29 2 2.2208 -0.276216 18.8892 10.8964
294 1 -1.1104 6.6991 20.2829 9.50226
146 1 -1.1104 6.69484 14.6999 6.7118
176 1 -1.1104 12.2783 20.2851 9.50249
263 1 -1.1104 6.69489 14.7005 12.2905
261 1 -1.1104 12.274 14.7013 9.50178
290 1 -1.1104 9.48873 20.2844 12.2916
292 1 -1.1104 12.276 17.4937 12.2913
205 1 -1.1104 9.48876 20.283 6.71303
172 1 -1.1104 12.278 20.2839 6.71247
231 1 -1.1104 6.69497 14.7003 9.50166
293 1 -1.1104 6.69897 20.2833 12.2909
115 1 -1.1104 12.2739 14.7017 12.2905
199 1 -1.1104 9.48642 17.4916 6.7121
171 1 -1.1104 9.48453 14.7003 6.71234
291 1 -1.1104 9.48858 20.2839 9.50174
230 2 2.2208 8.09279 18.8885 8.10716
206 2 2.2208 8.09071 16.0975 10.8962
262 1 -1.1104 12.2759 17.4931 9.5015
295 1 -1.1104 6.69698 17.4919 12.2913
264 1 -1.1104 6.69687 17.4916 9.50144
142 1 -1.1104 12.2781 20.2861 12.2909
288 1 -1.1104 9.48663 17.4923 9.50206
175 1 -1.1104 9.4865 17.4927 12.2907
208 1 -1.1104 9.48441 14.7007 9.50118
204 2 2.2208 10.8844 21.681 8.10757
173 1 -1.1104 12.2761 17.4924 6.71273
169 1 -1.1104 6.69888 20.2823 6.71234
233 1 -1.1104 12.2738 14.7008 6.71185
145 1 -1.1104 6.69702 17.4912 6.71258
338 2 2.2208 10.8702 2.13962 -0.262474
335 2 2.2208 8.07892 -0.65185 -0.262607
17139 2 2.2208 -0.291331 -3.44324 10.8951
17302 2 2.2208 -0.291329 -3.44327 -0.262735
8491 2 2.2208 10.8665 -3.44331 -0.262697
8368 2 2.2208 5.28761 -3.44323 10.8951
16999 2 2.2208 -0.291317 -3.44324 5.3162
8300 2 2.2208 2.49813 -3.44323 2.52674
8182 2 2.2208 5.28762 -3.44321 5.31618
8394 2 2.2208 10.8665 -3.44331 10.8951
8361 2 2.2208 10.8665 -3.44329 5.31621
8360 2 2.2208 8.07707 -3.44326 2.52673
8489 2 2.2208 5.28759 -3.44326 -0.262736
8390 2 2.2208 2.49814 -3.44322 8.10562
8362 2 2.2208 8.07706 -3.44324 8.10564
339 2 2.2208 5.29131 2.13975 16.4741
340 1 -1.1104 1.10428 -2.04862 17.8684
341 1 -1.1104 1.10803 3.53441 17.8687
342 1 -1.1104 1.10431 -2.04858 15.0794
343 1 -1.1104 1.10804 3.53449 15.0797
344 1 -1.1104 1.10616 0.742907 17.8689
345 2 2.2208 5.28945 -0.651807 19.2634
346 2 2.2208 5.29323 4.93114 19.2636
347 1 -1.1104 1.10617 0.74296 15.0791
348 1 -1.1104 3.89377 -2.04862 17.8688
349 1 -1.1104 3.89752 3.53434 17.8691
350 2 2.2208 2.50185 2.1397 19.2635
351 1 -1.1104 3.89376 -2.04861 15.079
352 1 -1.1104 3.89751 3.53445 15.0793
353 2 2.2208 2.49996 -0.651749 16.474
354 2 2.2208 2.50373 4.93129 16.4742
355 1 -1.1104 3.89562 0.742867 17.8685
356 1 -1.1104 3.89563 0.742914 15.0795
668 2 2.2208 8.08867 13.306 13.6853
671 2 2.2208 5.28944 -0.651723 13.6846
670 2 2.2208 5.29323 4.93132 13.6848
9360 2 2.2208 -0.289489 -0.651765 19.2634
9211 2 2.2208 -0.285746 4.93128 19.2636
9227 2 2.2208 -0.287621 2.13984 16.4741
665 2 2.2208 2.50184 2.13982 13.6847
673 2 2.2208 10.8684 -0.651714 13.6846
359 1 -1.1104 1.10618 0.742847 20.658
505 1 -1.1104 3.89566 0.742807 20.6584
504 1 -1.1104 1.10432 -2.04863 20.6582
365 1 -1.1104 3.89378 -2.04865 20.6579
9509 2 2.2208 -0.289494 -0.651688 13.6846
9524 2 2.2208 -0.285751 4.93143 13.6848
358 1 -1.1104 6.68323 -2.04865 17.8684
362 1 -1.1104 6.68512 0.742848 17.8689
367 1 -1.1104 6.68325 -2.04861 15.0794
674 2 2.2208 10.8722 4.93149 13.6848
361 1 -1.1104 6.68699 3.53435 17.8686
360 1 -1.1104 6.68509 0.742916 15.0791
357 1 -1.1104 6.68701 3.53445 15.0797
368 2 2.2208 10.8702 2.13981 16.4741
369 1 -1.1104 12.2622 -2.04867 17.8684
370 1 -1.1104 12.2659 3.53451 17.8686
371 1 -1.1104 12.2622 -2.04861 15.0794
372 1 -1.1104 12.2659 3.53461 15.0797
373 1 -1.1104 12.264 0.742912 17.8689
374 2 2.2208 10.8684 -0.651794 19.2634
375 2 2.2208 10.8721 4.93129 19.2636
376 1 -1.1104 12.264 0.742981 15.0791
377 1 -1.1104 9.47274 -2.04866 17.8688
378 1 -1.1104 9.47648 3.53441 17.8691
379 2 2.2208 8.08078 2.1397 19.2635
380 1 -1.1104 9.47271 -2.04861 15.079
381 1 -1.1104 9.47648 3.5345 15.0792
382 2 2.2208 8.0789 -0.651766 16.474
383 2 2.2208 8.08271 4.9313 16.4742
384 1 -1.1104 9.47458 0.74288 17.8685
385 1 -1.1104 9.47458 0.742942 15.0795
672 2 2.2208 8.08079 2.13982 13.6847
501 1 -1.1104 6.69682 17.4904 23.4488
543 1 -1.1104 12.2622 -2.04869 20.6582
388 1 -1.1104 9.47645 3.53431 20.6581
534 1 -1.1104 12.2659 3.53443 20.6585
389 1 -1.1104 12.264 0.742871 20.6579
667 2 2.2208 2.50952 13.3058 13.6853
9306 2 2.2208 -0.280017 13.306 16.4746
666 2 2.2208 5.29712 10.5143 13.6851
395 2 2.2208 5.29517 7.72273 16.4743
396 2 2.2208 5.29907 13.3056 16.4747
397 1 -1.1104 1.11185 9.11736 17.8689
398 1 -1.1104 1.11184 9.11751 15.0799
399 1 -1.1104 1.10994 6.32591 17.8692
400 1 -1.1104 1.11375 11.9088 17.8694
401 2 2.2208 5.29711 10.514 19.2639
402 1 -1.1104 1.10991 6.32601 15.0794
403 1 -1.1104 1.11375 11.909 15.0797
404 1 -1.1104 3.90136 9.11725 17.8693
405 2 2.2208 2.50566 7.72261 19.2638
406 2 2.2208 2.50951 13.3054 19.2641
407 1 -1.1104 3.90136 9.11739 15.0795
408 2 2.2208 2.50757 10.5142 16.4745
409 1 -1.1104 3.89945 6.32581 17.8688
410 1 -1.1104 3.90331 11.9086 17.8691
411 1 -1.1104 3.89945 6.32594 15.0798
412 1 -1.1104 3.90331 11.9088 15.0801
655 2 2.2208 2.50565 7.72284 13.685
9275 2 2.2208 -0.281925 10.5142 19.2639
9254 2 2.2208 -0.28385 7.7229 16.4743
9515 2 2.2208 -0.281925 10.5145 13.6851
423 1 -1.1104 6.69287 11.9089 15.0796
566 1 -1.1104 1.11186 9.11717 20.6588
413 1 -1.1104 1.11378 11.9085 20.6585
422 1 -1.1104 6.6909 9.1173 17.8689
425 1 -1.1104 6.69091 9.11747 15.0799
424 1 -1.1104 6.69284 11.9087 17.8695
416 1 -1.1104 6.68895 6.32584 17.8692
415 1 -1.1104 6.68894 6.32597 15.0794
426 2 2.2208 10.8741 7.72303 16.4743
427 2 2.2208 10.8781 13.3063 16.4747
428 1 -1.1104 12.2698 9.1178 17.8689
429 1 -1.1104 12.2699 9.11797 15.08
430 1 -1.1104 12.2679 6.32613 17.8692
431 1 -1.1104 12.2718 11.9095 17.8695
432 2 2.2208 10.8761 10.5144 19.2639
433 1 -1.1104 12.2679 6.32628 15.0793
434 1 -1.1104 12.2718 11.9097 15.0796
435 1 -1.1104 9.48039 9.11751 17.8693
436 2 2.2208 8.08466 7.72267 19.2638
437 2 2.2208 8.08861 13.3055 19.2641
438 1 -1.1104 9.4804 9.11768 15.0795
439 2 2.2208 8.08663 10.5144 16.4745
440 1 -1.1104 9.47841 6.32597 17.8687
441 1 -1.1104 9.48239 11.909 17.869
442 1 -1.1104 9.47845 6.32608 15.0798
443 1 -1.1104 9.48241 11.9093 15.0801
669 2 2.2208 10.8761 10.5148 13.6851
663 2 2.2208 8.08467 7.72293 13.685
533 2 2.2208 10.8842 21.6788 24.8436
594 1 -1.1104 6.69287 11.9084 20.6585
477 1 -1.1104 6.69682 17.4903 26.2379
675 2 2.2208 5.3011 16.0972 13.6855
623 2 2.2208 -0.276285 18.889 16.475
450 2 2.2208 5.30309 18.8883 16.475
451 1 -1.1104 1.11569 14.7002 17.8692
452 1 -1.1104 1.11946 20.2828 17.8696
453 1 -1.1104 1.11566 14.7005 15.0802
454 1 -1.1104 1.11936 20.2834 15.0805
455 1 -1.1104 1.11753 17.4916 17.8697
456 2 2.2208 5.30106 16.0966 19.2643
457 2 2.2208 5.30505 21.6788 19.2646
458 1 -1.1104 1.11754 17.492 15.0801
459 1 -1.1104 3.90524 14.7 17.8696
460 1 -1.1104 3.90913 20.2824 17.87
461 2 2.2208 2.5134 18.8879 19.2644
462 1 -1.1104 3.90526 14.7002 15.0799
463 1 -1.1104 3.90918 20.2828 15.0803
464 2 2.2208 2.51146 16.0971 16.4748
465 2 2.2208 2.51526 21.6796 16.4752
466 1 -1.1104 3.90726 17.4912 17.8694
467 1 -1.1104 3.90723 17.4916 15.0805
657 2 2.2208 5.30513 21.6799 13.6859
587 2 2.2208 -0.27439 21.6797 19.2645
624 1 -1.1104 1.11945 20.2822 20.6593
9517 2 2.2208 -0.278135 16.0977 13.6855
9284 2 2.2208 -0.278105 16.0971 19.2642
654 2 2.2208 -0.274487 21.681 13.6858
629 1 -1.1104 1.11567 14.6998 20.659
473 1 -1.1104 3.90921 20.2817 20.659
660 2 2.2208 2.51339 18.8887 13.6857
478 1 -1.1104 6.69898 20.2826 17.8695
480 1 -1.1104 6.69694 17.4918 15.08
476 1 -1.1104 6.69488 14.7001 17.8692
659 2 2.2208 8.09277 18.8891 13.6857
656 2 2.2208 10.8844 21.6823 13.6859
475 1 -1.1104 6.69895 20.2831 15.0808
468 1 -1.1104 6.69687 17.4914 17.8699
470 1 -1.1104 6.6949 14.7004 15.0803
482 2 2.2208 10.8823 18.8898 16.475
483 1 -1.1104 12.2739 14.7012 17.8691
484 1 -1.1104 12.2781 20.285 17.8692
485 1 -1.1104 12.2739 14.7016 15.0804
486 1 -1.1104 12.2781 20.2859 15.0807
487 1 -1.1104 12.2759 17.493 17.8698
488 2 2.2208 10.8801 16.0975 19.2642
489 2 2.2208 10.8843 21.6806 19.2644
490 1 -1.1104 12.276 17.4936 15.0799
491 1 -1.1104 9.4844 14.7005 17.8697
492 1 -1.1104 9.48853 20.2835 17.87
493 2 2.2208 8.0927 18.8882 19.2644
494 1 -1.1104 9.48446 14.7009 15.0798
495 1 -1.1104 9.4887 20.2843 15.0801
496 2 2.2208 8.09069 16.0973 16.4749
497 2 2.2208 8.09482 21.6803 16.4752
498 1 -1.1104 9.48654 17.4921 17.8693
499 1 -1.1104 9.48654 17.4926 15.0806
662 2 2.2208 10.8802 16.0983 13.6855
500 1 -1.1104 6.69482 14.6997 20.6591
474 1 -1.1104 9.48442 14.7001 20.6586
481 1 -1.1104 9.48858 20.2826 20.6588
590 1 -1.1104 6.69487 14.6992 26.2381
364 1 -1.1104 1.10803 3.53431 20.6585
9226 2 2.2208 -0.289476 -0.651819 24.8423
503 1 -1.1104 3.89751 3.53425 20.6581
510 2 2.2208 5.29133 2.13961 22.053
511 1 -1.1104 1.1043 -2.04865 23.4473
512 1 -1.1104 1.10805 3.53422 23.4475
513 1 -1.1104 1.10433 -2.04865 26.2371
514 1 -1.1104 1.10808 3.53417 26.2374
515 1 -1.1104 1.10618 0.742804 23.4478
516 2 2.2208 5.28945 -0.651841 24.8423
517 1 -1.1104 1.10617 0.742775 26.2369
518 1 -1.1104 3.89379 -2.04865 23.4477
519 1 -1.1104 3.89752 3.53414 23.4479
520 2 2.2208 2.50187 2.13957 24.8424
521 1 -1.1104 3.89377 -2.04866 26.2368
522 1 -1.1104 3.89752 3.53413 26.237
523 2 2.2208 2.49998 -0.651814 22.0528
524 2 2.2208 2.50373 4.93105 22.0531
525 1 -1.1104 3.89564 0.742743 23.4474
526 1 -1.1104 3.89566 0.742744 26.2373
527 2 2.2208 5.29323 4.93095 24.8425
9223 2 2.2208 -0.287615 2.13968 22.053
9217 2 2.2208 -0.285731 4.93107 24.8425
535 1 -1.1104 9.48436 14.6994 26.2376
531 1 -1.1104 12.2738 14.7006 20.6591
596 2 2.2208 8.09471 21.6786 22.0541
529 1 -1.1104 6.68328 -2.04864 20.6583
386 1 -1.1104 9.47272 -2.04866 20.6579
542 1 -1.1104 9.47459 0.742839 20.6584
537 1 -1.1104 6.68508 0.742748 26.2369
538 1 -1.1104 6.68698 3.53417 23.4475
541 1 -1.1104 6.68515 0.742767 23.4478
530 1 -1.1104 6.68511 0.742814 20.658
506 1 -1.1104 6.68699 3.53426 20.6585
539 1 -1.1104 6.68702 3.53414 26.2374
540 1 -1.1104 6.68327 -2.04866 26.2372
528 1 -1.1104 6.68326 -2.04865 23.4473
544 2 2.2208 10.8702 2.13969 22.053
545 1 -1.1104 12.2622 -2.04869 23.4473
546 1 -1.1104 12.2659 3.53433 23.4475
547 1 -1.1104 12.2622 -2.0487 26.2372
548 1 -1.1104 12.2659 3.53428 26.2374
549 1 -1.1104 12.264 0.742824 23.4478
550 2 2.2208 10.8684 -0.651845 24.8423
551 2 2.2208 10.8722 4.93108 24.8425
552 1 -1.1104 12.264 0.742806 26.2369
553 1 -1.1104 9.47277 -2.04866 23.4477
554 1 -1.1104 9.47646 3.53422 23.448
555 2 2.2208 8.08079 2.13957 24.8424
556 1 -1.1104 9.47271 -2.04869 26.2368
557 1 -1.1104 9.47646 3.53418 26.237
558 2 2.2208 8.07894 -0.651822 22.0528
559 2 2.2208 8.08271 4.93107 22.0531
560 1 -1.1104 9.47459 0.742789 23.4474
561 1 -1.1104 9.47459 0.742738 26.2373
562 1 -1.1104 9.48438 14.6996 23.4486
449 1 -1.1104 9.48842 20.2818 23.449
9216 2 2.2208 -0.281877 10.5138 24.8429
563 1 -1.1104 3.89943 6.32566 20.6586
565 1 -1.1104 1.10993 6.32575 20.6582
417 1 -1.1104 3.90329 11.9084 20.6589
414 1 -1.1104 3.90139 9.11703 20.6584
567 2 2.2208 5.29517 7.72243 22.0532
568 2 2.2208 5.2991 13.305 22.0535
569 1 -1.1104 1.11187 9.11697 23.4478
570 1 -1.1104 1.11192 9.11692 26.2377
571 1 -1.1104 1.10993 6.32561 23.4481
572 1 -1.1104 1.11382 11.9083 23.4484
573 2 2.2208 5.29714 10.5136 24.8429
574 1 -1.1104 1.10993 6.32557 26.2372
575 1 -1.1104 1.11384 11.9082 26.2375
576 1 -1.1104 3.90138 9.11686 23.4482
577 2 2.2208 2.50566 7.72234 24.8427
578 2 2.2208 2.50959 13.3049 24.843
579 1 -1.1104 3.90138 9.11677 26.2373
580 2 2.2208 2.5076 10.5138 22.0534
581 1 -1.1104 3.89942 6.32552 23.4477
582 1 -1.1104 3.90336 11.9081 23.448
583 1 -1.1104 3.89946 6.32549 26.2375
584 1 -1.1104 3.90338 11.908 26.2379
9276 2 2.2208 -0.279975 13.3054 22.0535
9280 2 2.2208 -0.283836 7.72259 22.0532
479 1 -1.1104 6.69883 20.2818 20.6595
597 1 -1.1104 6.69089 9.11709 20.6588
592 1 -1.1104 9.47841 6.32577 20.6586
585 1 -1.1104 6.69288 11.9082 23.4484
445 1 -1.1104 6.68893 6.32569 20.6582
586 1 -1.1104 6.69287 11.908 26.2375
595 1 -1.1104 6.69091 9.11689 23.4478
446 1 -1.1104 9.48235 11.9087 20.6589
601 1 -1.1104 9.4804 9.11724 20.6583
600 1 -1.1104 12.2698 9.11749 20.6587
591 1 -1.1104 12.2718 11.909 20.6584
589 1 -1.1104 6.68894 6.32555 23.4481
598 1 -1.1104 6.68893 6.3255 26.2371
599 1 -1.1104 12.2679 6.32596 20.6581
588 1 -1.1104 6.69092 9.1168 26.2377
602 1 -1.1104 9.48041 9.11702 23.4482
603 1 -1.1104 12.2718 11.9085 26.2374
604 1 -1.1104 12.2679 6.32572 26.2371
605 2 2.2208 10.8761 10.5139 24.8428
606 1 -1.1104 12.2718 11.9087 23.4484
607 1 -1.1104 12.2679 6.3258 23.448
608 1 -1.1104 12.2699 9.11712 26.2377
609 1 -1.1104 12.2699 9.11724 23.4477
610 1 -1.1104 9.4824 11.9082 26.2379
611 1 -1.1104 9.47845 6.32558 26.2376
612 1 -1.1104 9.48239 11.9084 23.4479
613 1 -1.1104 9.47842 6.32563 23.4476
614 2 2.2208 8.08664 10.5139 22.0533
615 1 -1.1104 9.48038 9.11693 26.2372
616 2 2.2208 8.08863 13.305 24.843
617 2 2.2208 8.08468 7.72237 24.8427
618 2 2.2208 10.8741 7.72263 22.0532
619 2 2.2208 10.8781 13.3055 22.0535
391 2 2.2208 -0.274073 21.6786 24.8436
472 2 2.2208 -0.276122 18.8879 22.0538
627 1 -1.1104 3.90718 17.4907 20.6593
625 1 -1.1104 3.90528 14.6996 20.6587
626 1 -1.1104 1.11763 17.4911 20.6589
630 2 2.2208 2.51538 21.6784 22.0541
631 1 -1.1104 3.90726 17.4904 23.4484
632 1 -1.1104 1.11767 17.4907 23.4487
633 1 -1.1104 3.9053 14.6992 26.2377
634 1 -1.1104 3.90729 17.4903 26.2383
635 2 2.2208 2.51351 18.8871 24.8435
636 1 -1.1104 3.90926 20.2812 26.2382
637 2 2.2208 5.30306 18.8873 22.0539
638 1 -1.1104 1.11575 14.6995 23.4482
639 1 -1.1104 1.11962 20.2817 23.4486
640 2 2.2208 5.30108 16.096 24.8432
641 2 2.2208 5.30513 21.6779 24.8437
642 1 -1.1104 1.11581 14.6994 26.2381
643 1 -1.1104 1.1177 17.4905 26.2379
644 1 -1.1104 1.11973 20.2816 26.2385
645 1 -1.1104 3.90529 14.6993 23.4486
646 1 -1.1104 3.90922 20.2813 23.449
647 2 2.2208 2.51149 16.0963 22.0537
9251 2 2.2208 -0.277996 16.0964 24.8432
502 1 -1.1104 12.276 17.4921 20.6586
653 1 -1.1104 9.48845 20.2816 26.238
564 2 2.2208 8.09062 16.0964 22.0537
469 1 -1.1104 6.69487 14.6994 23.4481
621 2 2.2208 10.8821 18.8882 22.0538
620 1 -1.1104 12.2759 17.4911 26.2378
652 1 -1.1104 12.2739 14.7001 23.448
508 1 -1.1104 6.69688 17.4908 20.6588
628 1 -1.1104 6.69888 20.2814 23.4485
593 1 -1.1104 12.2758 17.4914 23.4487
532 1 -1.1104 12.278 20.2827 23.4482
650 2 2.2208 8.09264 18.8872 24.8434
649 1 -1.1104 9.48641 17.4906 26.2384
536 1 -1.1104 9.48639 17.4914 20.6593
444 1 -1.1104 12.2779 20.2836 20.6593
648 1 -1.1104 12.2738 14.6998 26.2381
507 1 -1.1104 9.4864 17.4908 23.4482
651 1 -1.1104 12.2779 20.2822 26.2385
509 2 2.2208 10.8801 16.0965 24.8432
622 1 -1.1104 6.69892 20.2812 26.2386
8532 2 2.2208 2.49812 -3.44326 24.8422
8643 2 2.2208 8.07707 -3.44327 24.8422
17383 2 2.2208 -0.291336 -3.4433 22.0527
8561 2 2.2208 5.2876 -3.44328 16.4739
8707 2 2.2208 10.8665 -3.44333 22.0527
8618 2 2.2208 8.07708 -3.4433 19.2633
8706 2 2.2208 10.8665 -3.44333 16.4739
8612 2 2.2208 2.49811 -3.44328 19.2633
17377 2 2.2208 -0.291345 -3.44328 16.4739
8708 2 2.2208 5.28761 -3.44326 22.0527
8835 2 2.2208 8.07708 -3.44327 13.6845
8841 2 2.2208 2.49812 -3.44326 13.6845
676 2 2.2208 5.3074 24.4696 5.3183
677 2 2.2208 5.3124 30.0511 5.31892
678 1 -1.1104 1.12381 25.8635 1.13396
679 1 -1.1104 1.12395 25.8641 3.92387
680 1 -1.1104 1.12184 23.0727 1.134
681 1 -1.1104 1.12631 28.6542 1.13466
682 2 2.2208 5.30977 27.2598 2.52924
683 1 -1.1104 1.12164 23.0732 3.92324
684 1 -1.1104 1.12599 28.6549 3.92384
685 1 -1.1104 3.91365 25.8629 1.1344
686 2 2.2208 2.51776 24.4693 2.5288
687 2 2.2208 2.52284 30.0509 2.52956
688 1 -1.1104 3.91343 25.8633 3.92349
689 2 2.2208 2.51999 27.2608 5.31857
690 1 -1.1104 3.91132 23.0722 1.13366
691 1 -1.1104 3.91577 28.6534 1.13435
692 1 -1.1104 3.91149 23.0726 3.92358
693 1 -1.1104 3.91602 28.6539 3.9243
1008 2 2.2208 5.30734 24.4687 -0.260697
701 1 -1.1104 1.12587 28.6558 6.71356
696 2 2.2208 -0.271983 24.4709 5.31829
1012 2 2.2208 -0.271871 24.4696 -0.260835
963 2 2.2208 -0.269549 27.261 2.52909
702 1 -1.1104 1.12348 25.865 6.71307
733 2 2.2208 -0.267228 30.053 5.31881
1002 2 2.2208 5.3121 30.0499 -0.259554
695 1 -1.1104 6.70114 23.0721 1.13415
709 1 -1.1104 6.70574 28.6533 1.135
708 1 -1.1104 6.70099 23.0725 3.92317
694 1 -1.1104 6.70315 25.8627 1.13395
1009 2 2.2208 10.8908 30.051 -0.259782
707 1 -1.1104 6.70344 25.8632 3.92408
706 1 -1.1104 6.7056 28.6536 3.92383
710 2 2.2208 10.8866 24.4712 5.31856
711 2 2.2208 10.8914 30.0536 5.31959
712 1 -1.1104 12.2823 25.8643 1.13387
713 1 -1.1104 12.2828 25.8653 3.92446
714 1 -1.1104 12.2803 23.0734 1.13425
715 1 -1.1104 12.2849 28.6549 1.13493
716 2 2.2208 10.8888 27.2611 2.52941
717 1 -1.1104 12.2801 23.0742 3.92329
718 1 -1.1104 12.2848 28.656 3.92413
719 1 -1.1104 9.49299 25.8633 1.13458
720 2 2.2208 8.09703 24.4693 2.5289
721 2 2.2208 8.10187 30.0509 2.52992
722 1 -1.1104 9.49287 25.8639 3.92355
723 2 2.2208 8.09945 27.261 5.31878
724 1 -1.1104 9.4906 23.0726 1.1336
725 1 -1.1104 9.49511 28.6538 1.13432
726 1 -1.1104 9.49088 23.0732 3.92389
727 1 -1.1104 9.49568 28.6546 3.92478
1007 2 2.2208 10.8864 24.4696 -0.260771
1005 2 2.2208 8.09916 27.2596 -0.260235
735 2 2.2208 5.31968 35.6332 5.31986
736 1 -1.1104 1.1287 31.4447 1.13451
737 1 -1.1104 1.13582 37.0259 1.1348
738 1 -1.1104 1.12886 31.4455 3.92453
739 1 -1.1104 1.13612 37.0267 3.92536
740 1 -1.1104 1.1321 34.2355 1.13557
741 2 2.2208 5.31556 32.8415 2.53038
742 2 2.2208 5.32497 38.4258 2.53183
743 1 -1.1104 1.13184 34.236 3.92404
744 1 -1.1104 3.91862 31.444 1.13541
745 1 -1.1104 3.92549 37.0259 1.13691
746 2 2.2208 2.53071 35.6327 2.53045
747 1 -1.1104 3.91843 31.4443 3.92409
748 1 -1.1104 3.92547 37.0252 3.92426
749 2 2.2208 2.52606 32.8422 5.31908
750 2 2.2208 2.53778 38.4242 5.31919
751 1 -1.1104 3.9214 34.2345 1.13517
752 1 -1.1104 3.92172 34.2348 3.92526
903 1 -1.1104 3.92523 37.0245 6.71511
1011 2 2.2208 2.52574 32.841 -0.25917
900 1 -1.1104 3.92113 34.2346 6.71362
1003 2 2.2208 -0.259833 35.6318 -0.259472
902 1 -1.1104 1.12799 31.4466 6.71355
899 2 2.2208 -0.252551 38.4231 2.52938
964 2 2.2208 -0.259192 35.6336 5.31864
957 2 2.2208 -0.263533 32.8423 2.52955
1014 2 2.2208 2.53522 38.4237 -0.2571
1006 2 2.2208 5.31876 35.6324 -0.2574
756 1 -1.1104 6.71122 34.2341 3.92454
753 1 -1.1104 6.70799 31.4436 1.13491
754 1 -1.1104 6.71125 34.2345 1.13637
763 1 -1.1104 6.70847 31.444 3.92495
960 1 -1.1104 6.7078 39.8119 12.2958
762 1 -1.1104 6.71447 37.0255 1.13591
761 1 -1.1104 6.71472 37.0245 3.92611