ITEM: TIMESTEP
10000
ITEM: NUMBER OF ATOMS
17700
ITEM: BOX BOUNDS pp pp pp
-2.7717828229332220e-01 2.7617178282293317e+01
-3.4472205766305355e+00 3.3152722057663055e+02
-2.7717827830221448e-01 2.7617178278302212e+01
ITEM: ATOMS id type q x y z
1 2 2.2208 5.23549 2.11901 5.25027
2 1 -1.1104 1.21067 -2.20213 1.16119
3 1 -1.1104 1.17127 3.45404 1.11894
4 1 -1.1104 1.12525 -2.09288 3.95708
5 1 -1.1104 1.20389 3.47846 3.88427
6 1 -1.1104 1.19638 0.561904 1.08437
7 2 2.2208 5.33864 -0.649844 2.50822
8 2 2.2208 5.3907 5.00783 2.40784
9 1 -1.1104 1.19847 0.776477 3.93408
10 1 -1.1104 3.94848 -2.04549 1.09404
11 1 -1.1104 3.95912 3.5008 1.09903
12 2 2.2208 2.58158 2.14952 2.46301
13 1 -1.1104 3.92939 -2.05832 3.91312
14 1 -1.1104 3.99132 3.62457 3.80963
15 2 2.2208 2.63743 -0.512662 5.36745
16 2 2.2208 2.54019 4.96636 5.28087
17 1 -1.1104 3.82152 0.827405 1.09975
18 1 -1.1104 3.95036 0.84407 3.85681
172 1 -1.1104 1.3428 -2.06927 6.82998
174 1 -1.1104 3.93435 3.48134 6.74719
9208 2 2.2208 -0.276751 4.93991 2.46961
8958 2 2.2208 -0.340819 21.723 2.64009
8281 2 2.2208 2.60509 -3.52592 2.48976
175 1 -1.1104 4.07458 -1.94963 6.71235
203 1 -1.1104 6.672 0.554899 6.70945
54 2 2.2208 8.17771 4.91128 -0.312222
8334 2 2.2208 8.10177 -3.53651 2.57203
9095 2 2.2208 -0.327138 18.8582 10.9824
9202 2 2.2208 -0.128614 2.08457 5.34202
9199 2 2.2208 -0.275154 -0.662779 2.55453
9201 2 2.2208 -0.198956 -0.669808 8.11586
9206 2 2.2208 -0.167126 7.64633 5.16215
23 1 -1.1104 6.69887 -1.99513 1.22499
21 1 -1.1104 6.68813 3.41386 3.8439
32 1 -1.1104 6.67937 0.663354 3.91922
31 1 -1.1104 6.73847 -2.02744 3.78597
166 1 -1.1104 6.91347 14.6687 9.52744
24 1 -1.1104 6.73313 0.748153 0.952626
25 1 -1.1104 6.89378 3.54634 1.2082
8923 2 2.2208 -0.150343 21.693 8.173
34 2 2.2208 10.8557 2.06746 5.3865
35 1 -1.1104 12.1957 -2.03759 1.15344
36 1 -1.1104 12.1852 3.50608 1.04496
37 1 -1.1104 12.3085 -2.03867 3.93607
38 1 -1.1104 12.2808 3.33915 3.94514
39 1 -1.1104 12.2512 0.661617 1.10314
40 2 2.2208 10.8897 -0.682894 2.58405
41 1 -1.1104 12.4002 0.617484 3.86452
42 1 -1.1104 9.55673 -2.19861 1.12218
43 1 -1.1104 9.60729 3.44296 1.03534
44 2 2.2208 8.19415 2.06966 2.53736
45 1 -1.1104 9.61814 -2.1846 3.88641
46 1 -1.1104 9.59348 3.49477 3.83307
47 2 2.2208 8.07841 -0.733139 5.34115
48 2 2.2208 8.07434 4.74669 5.3267
49 1 -1.1104 9.49291 0.542418 1.18669
50 1 -1.1104 9.49438 0.556463 3.87576
51 2 2.2208 10.9967 4.83807 2.55487
198 1 -1.1104 12.3024 -2.11525 6.69204
8981 2 2.2208 -0.307621 18.7657 5.38907
332 2 2.2208 13.6751 4.78452 5.31435
133 2 2.2208 2.65146 15.9049 -0.304815
289 2 2.2208 10.9311 16.0078 8.07383
327 2 2.2208 13.6436 18.8179 8.07651
63 2 2.2208 5.40078 7.70316 5.33968
64 2 2.2208 5.36288 13.3597 5.34441
65 1 -1.1104 1.22523 9.11257 1.07097
66 1 -1.1104 1.18113 9.00142 3.86784
67 1 -1.1104 1.07851 6.27013 1.0718
68 1 -1.1104 1.32603 11.719 1.22405
69 2 2.2208 5.38348 10.4912 2.50991
70 1 -1.1104 1.24655 6.21069 3.7225
71 1 -1.1104 1.17404 11.8022 3.95945
72 1 -1.1104 3.96522 8.98988 0.952607
73 2 2.2208 2.55517 7.73896 2.44816
74 2 2.2208 2.66226 13.2855 2.57568
75 1 -1.1104 4.02721 9.12984 3.82538
76 2 2.2208 2.52386 10.5976 5.24473
77 1 -1.1104 3.95794 6.21064 1.05627
78 1 -1.1104 4.0875 11.7458 1.14634
79 1 -1.1104 4.0213 6.39809 4.03739
80 1 -1.1104 3.95095 12.0953 3.94921
88 1 -1.1104 6.83553 8.96415 3.85112
9096 2 2.2208 -0.183424 10.4962 7.98645
232 1 -1.1104 4.07023 6.41928 6.76592
84 1 -1.1104 6.61941 9.11344 1.11141
86 1 -1.1104 6.64358 11.8309 3.97813
293 1 -1.1104 12.1912 17.4099 9.51178
235 1 -1.1104 3.85187 12.1324 6.72783
262 1 -1.1104 6.87458 8.90002 6.71829
295 1 -1.1104 6.6404 17.3508 12.2646
320 1 -1.1104 9.5664 20.2309 12.321
333 2 2.2208 13.6644 -0.734663 -0.3374
81 1 -1.1104 6.69363 6.34749 1.06018
83 1 -1.1104 6.87389 11.8792 1.23718
82 1 -1.1104 6.87672 6.20616 3.86071
89 2 2.2208 10.9999 7.67603 5.40699
90 2 2.2208 10.9156 13.3098 5.39905
91 1 -1.1104 12.2844 9.03955 1.10834
92 1 -1.1104 12.385 9.03274 3.85338
93 1 -1.1104 12.2682 6.21123 1.0935
94 1 -1.1104 12.3781 11.9259 1.09943
95 2 2.2208 11.0492 10.3809 2.568
96 1 -1.1104 12.4332 6.29318 3.94935
97 1 -1.1104 12.3687 11.7409 3.81129
98 1 -1.1104 9.65381 8.94641 1.36804
99 2 2.2208 8.17297 7.66058 2.55917
100 2 2.2208 8.20319 13.2204 2.51517
101 1 -1.1104 9.54718 9.16666 3.99554
102 2 2.2208 8.14265 10.4005 5.33997
103 1 -1.1104 9.49301 6.07347 1.16331
104 1 -1.1104 9.54132 11.8442 1.3543
105 1 -1.1104 9.59704 6.32457 4.09337
106 1 -1.1104 9.62425 11.8989 4.00892
171 1 -1.1104 9.5827 14.5537 12.3904
8928 2 2.2208 -0.199338 16.1 2.48378
60 2 2.2208 8.1026 21.5749 10.9299
115 2 2.2208 5.31068 18.8015 5.39695
116 1 -1.1104 1.29145 14.4106 1.13045
117 1 -1.1104 1.13853 20.3077 1.10956
118 1 -1.1104 1.13556 14.7014 3.93787
119 1 -1.1104 1.14876 20.325 3.94037
120 1 -1.1104 1.09545 17.443 0.941862
121 2 2.2208 5.36613 16.1994 2.55183
122 2 2.2208 5.39571 21.6078 2.645
123 1 -1.1104 1.0885 17.499 3.92919
124 1 -1.1104 4.15979 14.5824 1.2144
125 1 -1.1104 3.9282 20.2181 1.17752
126 2 2.2208 2.51131 18.9273 2.53071
127 1 -1.1104 3.99005 14.835 3.98459
128 1 -1.1104 3.78893 20.3553 3.92131
129 2 2.2208 2.62781 16.1261 5.28986
130 2 2.2208 2.55203 21.7313 5.38247
131 1 -1.1104 3.83749 17.3445 1.19808
132 1 -1.1104 3.93626 17.6873 3.83161
143 1 -1.1104 6.75198 17.6163 1.19033
138 1 -1.1104 3.98371 17.4505 6.72316
142 1 -1.1104 6.72359 17.2961 4.02785
135 1 -1.1104 6.88318 14.8329 1.18722
136 1 -1.1104 1.18318 14.6783 6.71918
300 1 -1.1104 1.18414 20.2236 6.69866
112 1 -1.1104 6.75615 14.5864 6.73688
296 1 -1.1104 6.84659 20.1985 6.7853
139 1 -1.1104 3.94482 14.7147 6.69123
9071 2 2.2208 -0.181175 19.0308 -0.29381
8982 2 2.2208 -0.102036 16.05 8.08056
322 1 -1.1104 12.3539 17.4972 6.60231
291 1 -1.1104 9.44839 20.1077 6.80963
144 1 -1.1104 6.73183 14.542 3.92685
140 1 -1.1104 6.78797 20.1896 3.92865
141 1 -1.1104 6.7674 20.2945 1.05998
145 2 2.2208 10.9911 18.9698 5.22892
146 1 -1.1104 12.277 14.7412 1.16163
147 1 -1.1104 12.2494 20.3034 1.16006
148 1 -1.1104 12.409 14.7015 3.97211
149 1 -1.1104 12.2843 20.4789 3.86514
150 1 -1.1104 12.3593 17.4959 1.11872
151 2 2.2208 10.8828 16.1283 2.51586
152 2 2.2208 10.8409 21.7232 2.50522
153 1 -1.1104 12.3818 17.4464 3.86535
154 1 -1.1104 9.56205 14.6265 1.11431
155 1 -1.1104 9.51586 20.3326 0.980504
156 2 2.2208 8.17528 18.9165 2.48575
157 1 -1.1104 9.57177 14.6892 3.91909
158 1 -1.1104 9.4969 20.1405 3.92938
159 2 2.2208 8.23839 16.088 5.27001
160 2 2.2208 8.17067 21.6141 5.40822
161 1 -1.1104 9.59752 17.507 1.16969
162 1 -1.1104 9.60516 17.5668 3.75228
260 1 -1.1104 12.1731 20.3665 6.83541
294 1 -1.1104 12.2777 20.318 9.58541
163 2 2.2208 10.9105 18.8527 -0.362406
168 1 -1.1104 12.3944 20.2246 12.3591
173 1 -1.1104 3.89561 0.774867 6.74824
26 1 -1.1104 1.38314 3.60741 6.78947
207 1 -1.1104 6.78768 -2.1796 6.65215
229 2 2.2208 8.11349 15.8537 10.8953
228 1 -1.1104 9.46212 17.3049 6.66579
27 1 -1.1104 1.21675 0.680766 6.8036
176 2 2.2208 5.39106 2.17727 10.8397
177 1 -1.1104 1.25746 -2.06587 12.2993
178 1 -1.1104 1.04678 3.51129 12.335
179 1 -1.1104 1.19525 -1.92552 9.50147
180 1 -1.1104 1.09596 3.52461 9.55569
181 1 -1.1104 1.23015 0.63509 12.255
182 2 2.2208 5.29997 -0.667376 8.15046
183 2 2.2208 5.30628 4.80754 8.00901
184 1 -1.1104 1.15208 0.781029 9.52218
185 1 -1.1104 4.0612 -1.97259 12.2095
186 1 -1.1104 3.95897 3.58321 12.3642
187 2 2.2208 2.58835 2.14304 8.19818
188 1 -1.1104 4 -2.09718 9.49787
189 1 -1.1104 3.96149 3.52829 9.53941
190 2 2.2208 2.66133 -0.581349 10.9002
191 2 2.2208 2.46804 4.99513 10.9482
192 1 -1.1104 4.21246 0.76976 12.2251
193 1 -1.1104 3.90008 0.834522 9.6114
201 1 -1.1104 6.81697 3.51113 9.42127
202 1 -1.1104 6.71974 3.40964 6.51559
9200 2 2.2208 -0.289264 2.21943 10.7751
445 2 2.2208 8.0857 7.67158 13.7039
9203 2 2.2208 -0.195788 5.01056 8.03263
58 2 2.2208 8.12923 18.7474 8.23258
290 2 2.2208 10.92 21.6629 8.21124
205 1 -1.1104 9.51265 -2.03804 6.60879
206 1 -1.1104 6.86818 -1.98114 9.4583
56 1 -1.1104 9.48297 3.39996 6.64357
57 1 -1.1104 12.3707 3.44297 6.73076
208 1 -1.1104 12.3223 0.659025 6.64969
194 1 -1.1104 6.6332 0.777782 9.46172
200 1 -1.1104 6.74161 3.52934 12.2532
204 1 -1.1104 6.97813 -2.11818 12.2403
195 1 -1.1104 6.92324 0.691399 12.1988
199 1 -1.1104 9.56771 0.590858 6.66554
209 2 2.2208 10.94 2.05524 10.8857
210 1 -1.1104 12.2421 -2.02507 12.1776
211 1 -1.1104 12.2892 3.52487 12.2775
212 1 -1.1104 12.3907 -1.97477 9.50151
213 1 -1.1104 12.3359 3.4897 9.56555
214 1 -1.1104 12.3529 0.755585 12.4278
215 2 2.2208 10.9421 -0.771799 8.1187
216 1 -1.1104 12.2095 0.733081 9.51189
217 1 -1.1104 9.54945 -2.13706 12.4738
218 1 -1.1104 9.55301 3.56021 12.1819
219 2 2.2208 8.21874 2.01354 8.06877
220 1 -1.1104 9.66473 -2.14185 9.55606
221 1 -1.1104 9.49652 3.5097 9.3136
222 2 2.2208 8.28096 -0.619659 10.9794
223 2 2.2208 8.08312 4.86053 10.8084
224 1 -1.1104 9.4878 0.798107 12.2531
225 1 -1.1104 9.5834 0.7363 9.51611
226 2 2.2208 11.0076 4.94987 8.19659
227 1 -1.1104 9.6019 20.1999 9.54816
261 1 -1.1104 12.3337 14.4426 12.3884
319 1 -1.1104 12.3163 14.7232 6.84362
169 2 2.2208 10.9321 18.7435 10.8304
258 1 -1.1104 6.86489 6.12266 6.6611
234 1 -1.1104 4.02038 9.30961 6.70539
233 1 -1.1104 1.19778 11.8978 6.73466
230 1 -1.1104 1.20774 9.15945 6.58093
231 1 -1.1104 1.17673 6.40391 6.73098
236 2 2.2208 5.50804 7.6111 10.871
237 2 2.2208 5.36811 13.1631 10.9389
238 1 -1.1104 1.15977 9.12552 12.2071
239 1 -1.1104 1.22705 9.21949 9.32568
240 1 -1.1104 1.06527 6.28615 12.3323
241 1 -1.1104 1.15844 11.8608 12.3273
242 2 2.2208 5.41277 10.5034 8.11865
243 1 -1.1104 1.16524 6.40626 9.3847
244 1 -1.1104 1.2083 11.9202 9.49026
245 1 -1.1104 4.0902 9.08836 12.2494
246 2 2.2208 2.73339 7.80843 8.15374
247 2 2.2208 2.54208 13.3283 8.02688
248 1 -1.1104 3.99936 9.16856 9.5514
249 2 2.2208 2.52879 10.5784 10.8448
250 1 -1.1104 3.9303 6.33178 12.2197
251 1 -1.1104 3.81834 11.8233 12.3008
252 1 -1.1104 3.97853 6.29826 9.53096
253 1 -1.1104 4.04243 11.9278 9.56083
264 1 -1.1104 6.7199 11.8847 9.50623
255 1 -1.1104 6.74248 9.02639 9.39505
257 1 -1.1104 7.01637 9.03041 12.2554
254 1 -1.1104 6.67613 11.895 12.2933
259 1 -1.1104 6.78674 6.29557 12.348
196 1 -1.1104 9.55256 14.6112 9.42377
292 1 -1.1104 12.3024 17.3739 12.3184
113 1 -1.1104 9.61186 14.5804 6.70174
197 1 -1.1104 6.77306 17.4402 6.7893
266 1 -1.1104 9.48717 11.8159 6.75565
269 1 -1.1104 9.62932 8.98895 6.7151
265 1 -1.1104 9.51479 6.2012 6.84178
267 1 -1.1104 12.4281 12.0567 6.65594
59 1 -1.1104 9.46662 17.2551 12.244
256 1 -1.1104 6.8703 6.375 9.52149
263 1 -1.1104 6.76024 11.6695 6.63759
270 1 -1.1104 12.3219 6.30851 6.65839
268 1 -1.1104 12.2085 9.11288 6.65611
271 1 -1.1104 9.40533 11.8377 9.36566
272 1 -1.1104 9.73292 6.23109 9.48236
273 1 -1.1104 9.49547 11.8683 12.2065
274 1 -1.1104 9.51208 6.19827 12.2855
275 2 2.2208 8.10822 10.4255 10.7313
276 1 -1.1104 9.65932 9.02234 9.53213
277 2 2.2208 8.04474 13.2403 8.05933
278 2 2.2208 8.22913 7.64578 8.07664
279 2 2.2208 11.026 7.68718 10.9089
280 2 2.2208 10.7864 13.186 10.9019
281 1 -1.1104 12.3196 9.1185 12.1401
282 1 -1.1104 12.4261 9.15755 9.39212
283 1 -1.1104 12.4997 6.41236 12.1268
284 1 -1.1104 12.3153 11.8291 12.3753
285 2 2.2208 10.9373 10.4343 8.03592
286 1 -1.1104 12.5048 6.28132 9.53612
287 1 -1.1104 12.1208 11.9388 9.3806
288 1 -1.1104 9.7233 9.12028 12.2576
321 1 -1.1104 12.3047 14.6385 9.601
297 1 -1.1104 6.73765 17.3933 9.60263
137 1 -1.1104 3.93578 20.1549 6.67528
298 1 -1.1104 1.26493 17.3814 6.75156
299 1 -1.1104 6.79191 14.6176 12.4527
170 1 -1.1104 6.63964 20.1016 12.2762
301 1 -1.1104 1.06707 14.6423 12.2473
302 2 2.2208 5.24584 18.7815 10.9521
303 1 -1.1104 3.77772 20.1263 9.50367
304 1 -1.1104 3.93207 17.3814 9.46919
305 2 2.2208 2.56417 18.8699 8.08425
306 1 -1.1104 4.05128 14.5825 9.46512
307 1 -1.1104 1.20241 17.4621 12.399
308 2 2.2208 2.54617 16.0874 10.9468
309 2 2.2208 2.53329 21.6633 10.9946
310 1 -1.1104 3.87457 17.4808 12.3071
311 1 -1.1104 3.93996 20.1494 12.3292
312 1 -1.1104 3.95823 14.627 12.2688
313 1 -1.1104 1.08947 20.1577 9.48898
314 1 -1.1104 1.07577 17.3958 9.62682
315 2 2.2208 5.33472 21.4948 8.09929
316 1 -1.1104 1.33885 14.6978 9.36932
317 2 2.2208 5.37632 15.9438 8.12819
318 1 -1.1104 1.17861 20.2092 12.3795
167 1 -1.1104 6.69313 20.2035 9.62346
53 1 -1.1104 9.55949 17.2405 9.58522
108 2 2.2208 13.6797 10.467 10.9209
8980 2 2.2208 -0.243434 13.2482 10.8631
9205 2 2.2208 -0.256794 7.64595 10.9241
8898 2 2.2208 -0.250259 13.2116 5.315
9262 2 2.2208 -0.225183 10.4681 13.7325
336 2 2.2208 13.6849 7.70068 8.07616
325 2 2.2208 13.7857 21.6055 10.8032
446 2 2.2208 10.8054 10.5074 13.7512
30 2 2.2208 13.6067 21.5407 -0.278584
61 2 2.2208 2.56122 10.4147 -0.256821
114 2 2.2208 2.60162 21.6714 -0.277551
9207 2 2.2208 -0.181683 2.1098 -0.333298
9542 2 2.2208 -0.0608698 -0.737763 13.5778
87 2 2.2208 10.9386 7.65176 -0.326483
358 2 2.2208 5.41378 5.04109 13.6973
165 2 2.2208 8.25503 16.0902 -0.194226
9263 2 2.2208 -0.174506 21.7663 13.7374
474 2 2.2208 2.54165 13.3746 13.6298
561 2 2.2208 2.59814 2.12146 13.5855
8604 2 2.2208 2.65026 -3.41584 13.664
111 2 2.2208 8.24222 10.4262 -0.166688
397 2 2.2208 11.0405 4.90603 13.6436
9204 2 2.2208 -0.220837 7.62961 -0.298291
339 2 2.2208 5.40581 2.01087 16.4519
340 1 -1.1104 1.32326 -2.13219 17.8758
341 1 -1.1104 1.16585 3.46186 17.9459
342 1 -1.1104 1.41011 -2.01864 15.0826
343 1 -1.1104 1.24074 3.56334 15.1645
344 1 -1.1104 1.22684 0.711416 17.841
345 2 2.2208 5.38661 -0.773768 19.2458
346 2 2.2208 5.49333 4.93829 19.2821
347 1 -1.1104 1.16867 0.837225 15.0296
348 1 -1.1104 4.02404 -2.07198 17.7968
349 1 -1.1104 3.94891 3.43512 17.8572
350 2 2.2208 2.65646 2.0742 19.1769
351 1 -1.1104 4.06986 -2.08846 14.9957
352 1 -1.1104 3.96816 3.47398 15.1968
353 2 2.2208 2.65257 -0.692162 16.4213
354 2 2.2208 2.66872 4.89639 16.4301
355 1 -1.1104 3.98804 0.601748 17.8223
356 1 -1.1104 4.04427 0.650264 15.0583
20 2 2.2208 2.49864 -0.646526 27.7096
9543 2 2.2208 -0.159644 4.99711 19.2877
9537 2 2.2208 -0.135907 2.07505 16.4536
8686 2 2.2208 2.57904 -3.52555 24.7934
366 1 -1.1104 6.86225 -2.14656 17.9664
8580 2 2.2208 5.41883 -3.44588 16.4057
509 1 -1.1104 4.06252 3.55863 20.6245
533 2 2.2208 13.664 18.9151 13.6852
499 1 -1.1104 12.3853 14.6114 26.2258
9545 2 2.2208 -0.120494 -0.767752 19.2762
529 1 -1.1104 6.73503 3.48793 20.653
9229 2 2.2208 -0.286326 21.6903 24.8716
361 1 -1.1104 6.80653 0.76812 15.0032
357 1 -1.1104 6.72602 3.53933 15.1244
360 1 -1.1104 6.78937 0.704654 17.7319
362 1 -1.1104 6.8323 -2.16826 15.1485
364 1 -1.1104 6.84227 3.59297 17.8981
660 2 2.2208 8.11383 16.0146 22.1309
359 2 2.2208 5.51347 -0.807742 13.7031
370 2 2.2208 10.9904 2.14411 16.4502
371 1 -1.1104 12.4545 -2.141 17.9076
372 1 -1.1104 12.3915 3.54736 17.9611
373 1 -1.1104 12.3675 -2.17027 15.0411
374 1 -1.1104 12.4133 3.50412 15.0299
375 1 -1.1104 12.3529 0.728986 17.9287
376 2 2.2208 11.0524 -0.805039 19.3382
377 2 2.2208 10.8696 4.82576 19.358
378 1 -1.1104 12.4334 0.735103 15.1401
379 1 -1.1104 9.59664 -2.0465 17.8966
380 1 -1.1104 9.6687 3.51134 17.7723
381 2 2.2208 8.17813 2.08328 19.2135
382 1 -1.1104 9.6123 -2.06419 15.2299
383 1 -1.1104 9.55319 3.39658 15.0689
384 2 2.2208 8.2714 -0.75978 16.5872
385 2 2.2208 8.25672 4.87146 16.4103
386 1 -1.1104 9.6075 0.739754 17.9153
387 1 -1.1104 9.60124 0.721464 15.1623
395 1 -1.1104 9.47418 3.4917 20.5904
393 1 -1.1104 9.69756 0.699503 20.5882
9544 2 2.2208 -0.225023 4.8351 13.5893
398 2 2.2208 5.32992 7.61563 16.4541
399 2 2.2208 5.38279 13.1873 16.6538
400 1 -1.1104 1.21511 9.03312 17.9304
401 1 -1.1104 1.20755 9.18072 15.1097
402 1 -1.1104 1.35475 6.29253 17.98
403 1 -1.1104 1.27393 11.98 17.7041
404 2 2.2208 5.43847 10.5968 19.2693
405 1 -1.1104 1.30346 6.33314 15.1383
406 1 -1.1104 1.13895 11.8045 15.0215
407 1 -1.1104 3.98366 9.12187 17.7543
408 2 2.2208 2.64359 7.72012 19.3766
409 2 2.2208 2.5557 13.1753 19.2918
410 1 -1.1104 4.0082 9.03744 14.9962
411 2 2.2208 2.63102 10.505 16.428
412 1 -1.1104 4.05019 6.2732 17.97
413 1 -1.1104 4.02025 11.9066 17.9556
414 1 -1.1104 4.13124 6.36028 15.0766
415 1 -1.1104 3.91938 11.8341 15.0686
418 1 -1.1104 6.83351 6.23218 15.1139
423 1 -1.1104 6.75495 9.09729 14.9724
417 1 -1.1104 6.81888 11.9325 17.9279
9265 2 2.2208 -0.132911 10.4033 19.2935
421 2 2.2208 2.6113 7.64973 13.6005
588 2 2.2208 8.02741 18.7277 24.7933
419 1 -1.1104 6.82703 9.22634 17.8704
425 1 -1.1104 6.83694 11.8505 15.1913
534 1 -1.1104 9.65148 14.6981 26.3346
424 1 -1.1104 6.96212 6.36129 17.8125
427 2 2.2208 10.8706 7.6737 16.4511
428 2 2.2208 10.9443 13.2557 16.5312
429 1 -1.1104 12.4566 9.02424 17.9354
430 1 -1.1104 12.3668 8.90468 15.015
431 1 -1.1104 12.2764 6.29795 17.8756
432 1 -1.1104 12.4126 11.7701 17.9438
433 2 2.2208 11.0926 10.4275 19.1719
434 1 -1.1104 12.4515 6.19274 15.0802
435 1 -1.1104 12.1359 11.6293 15.1935
436 1 -1.1104 9.61936 9.06709 17.8699
437 2 2.2208 8.16639 7.78292 19.2799
438 2 2.2208 8.17016 13.2587 19.1999
439 1 -1.1104 9.57466 9.06124 15.1606
440 2 2.2208 8.15351 10.4428 16.5483
441 1 -1.1104 9.53922 6.26981 17.8809
442 1 -1.1104 9.66079 11.7915 17.7984
443 1 -1.1104 9.60098 6.30081 15.0219
444 1 -1.1104 9.43157 11.9256 15.1507
591 1 -1.1104 6.88252 6.33705 20.5161
600 1 -1.1104 6.71142 9.16472 20.5648
602 1 -1.1104 9.69367 11.6627 20.6531
598 1 -1.1104 12.4296 6.32017 20.7905
9411 2 2.2208 -0.096866 10.4232 24.8516
9546 2 2.2208 -0.179027 -0.663793 24.7715
655 1 -1.1104 9.70043 14.6395 23.5665
450 2 2.2208 5.34061 18.8383 16.4051
451 1 -1.1104 1.15571 14.7915 17.9028
452 1 -1.1104 1.09153 20.4426 17.8214
453 1 -1.1104 1.24885 14.7219 15.1285
454 1 -1.1104 1.18501 20.3328 15.0393
455 1 -1.1104 1.30251 17.5321 17.9981
456 2 2.2208 5.25565 16.0557 19.3044
457 2 2.2208 5.34615 21.5751 19.2994
458 1 -1.1104 1.21117 17.5378 15.1591
459 1 -1.1104 3.93742 14.5531 17.9661
460 1 -1.1104 3.97287 20.3931 17.9179
461 2 2.2208 2.63223 18.8913 19.2783
462 1 -1.1104 3.94312 14.6322 15.1747
463 1 -1.1104 4.01948 20.1631 15.1745
464 2 2.2208 2.66405 16.0239 16.5918
465 2 2.2208 2.57305 21.7257 16.4964
466 1 -1.1104 3.91209 17.4429 17.8683
467 1 -1.1104 3.96925 17.462 15.1864
476 1 -1.1104 6.80159 20.2565 17.8573
477 1 -1.1104 6.67639 17.3953 15.1751
478 1 -1.1104 6.75004 14.6513 17.8993
473 1 -1.1104 1.23268 17.6086 20.6525
469 1 -1.1104 6.61579 17.458 17.8979
472 1 -1.1104 1.28005 20.4761 20.5495
449 2 2.2208 5.36281 21.5957 13.6515
9440 2 2.2208 -0.153511 13.3207 22.0668
468 1 -1.1104 6.57166 14.5776 15.2175
502 1 -1.1104 6.77396 17.4026 20.7272
479 1 -1.1104 6.64452 20.0979 14.925
392 1 -1.1104 9.55608 14.5485 20.6274
390 1 -1.1104 9.48429 17.296 20.7308
480 2 2.2208 10.8598 18.8248 16.4359
481 1 -1.1104 12.2285 14.5752 17.969
482 1 -1.1104 12.2256 20.0276 17.9606
483 1 -1.1104 12.482 14.3995 15.2657
484 1 -1.1104 12.2505 20.1437 15.1131
485 1 -1.1104 12.306 17.2735 17.9317
486 2 2.2208 10.9126 15.9072 19.3283
487 2 2.2208 10.9798 21.5248 19.269
488 1 -1.1104 12.3003 17.3488 15.1127
489 1 -1.1104 9.5294 14.6679 17.8332
490 1 -1.1104 9.53073 20.2587 17.8046
491 2 2.2208 8.18675 18.882 19.3688
492 1 -1.1104 9.5757 14.7319 15.0983
493 1 -1.1104 9.48501 20.1371 15.1292
494 2 2.2208 8.05457 16.0973 16.6037
495 2 2.2208 8.14673 21.5668 16.4843
496 1 -1.1104 9.6461 17.5899 17.8888
497 1 -1.1104 9.43601 17.3941 15.0591
622 1 -1.1104 9.54269 19.9729 20.6804
8545 2 2.2208 5.50043 -3.52392 22.0795
621 1 -1.1104 9.41583 20.163 26.1086
447 1 -1.1104 12.212 17.3523 20.6453
9266 2 2.2208 -0.170052 16.1617 24.7609
664 1 -1.1104 6.70929 17.3414 26.308
626 1 -1.1104 6.82812 14.6574 20.7314
503 1 -1.1104 1.31503 0.708076 20.6776
505 1 -1.1104 4.16274 -2.07989 20.5913
504 1 -1.1104 1.26588 3.55735 20.6235
9267 2 2.2208 -0.140765 13.3323 16.4148
508 1 -1.1104 1.27684 -2.04714 20.6135
9408 2 2.2208 -0.101384 18.9418 16.4491
510 1 -1.1104 4.09579 0.662172 20.5606
511 2 2.2208 5.4771 2.10869 22.0586
512 1 -1.1104 1.23754 -2.04948 23.3401
513 1 -1.1104 1.07424 3.59139 23.4274
514 1 -1.1104 1.22964 -2.05284 26.1234
515 1 -1.1104 1.09831 3.54903 26.3134
516 1 -1.1104 1.24479 0.723234 23.3686
517 2 2.2208 5.314 -0.753067 24.8164
518 1 -1.1104 1.19264 0.698747 26.2554
519 1 -1.1104 3.96655 -2.07599 23.3932
520 1 -1.1104 3.83406 3.38816 23.3423
521 2 2.2208 2.51101 2.16019 24.7954
522 1 -1.1104 4.0143 -2.17469 26.1329
523 1 -1.1104 4.05578 3.52747 26.0888
524 2 2.2208 2.71166 -0.716168 21.964
525 2 2.2208 2.61808 4.83126 22.0873
526 1 -1.1104 4.10052 0.679655 23.2165
527 1 -1.1104 3.85789 0.664456 26.2605
528 2 2.2208 5.38958 4.95473 24.7702
667 2 2.2208 13.7382 7.63012 19.342
538 1 -1.1104 6.75518 -2.06798 26.4595
9268 2 2.2208 -0.160278 16.1991 19.2733
662 1 -1.1104 12.5359 17.3496 23.4347
475 2 2.2208 8.00009 18.6979 13.6136
532 1 -1.1104 6.68092 -2.19806 20.7498
531 1 -1.1104 6.92201 0.757049 20.6506
501 1 -1.1104 12.3615 20.1347 20.8768
396 1 -1.1104 12.4459 0.595673 20.6618
540 1 -1.1104 12.2718 3.34846 20.6182
541 1 -1.1104 9.61374 -2.11511 20.6291
394 1 -1.1104 12.4614 -2.30526 20.7665
539 1 -1.1104 6.79399 0.71645 23.2604
530 1 -1.1104 6.78868 3.46466 26.1759
537 1 -1.1104 6.6391 0.708033 26.1347
536 1 -1.1104 6.73764 3.62971 23.4698
542 1 -1.1104 6.76132 -1.99901 23.558
543 2 2.2208 11.0155 2.0137 22.0642
544 1 -1.1104 12.3743 -2.17908 23.4923
545 1 -1.1104 12.4832 3.39817 23.5281
546 1 -1.1104 12.2391 -2.12912 26.1813
547 1 -1.1104 12.3741 3.43417 26.206
548 1 -1.1104 12.3576 0.643973 23.3187
549 2 2.2208 10.9273 -0.728357 24.769
550 2 2.2208 10.9678 4.83726 24.932
551 1 -1.1104 12.3345 0.75309 26.2965
552 1 -1.1104 9.60007 -2.21163 23.3036
553 1 -1.1104 9.54714 3.43369 23.3828
554 2 2.2208 8.10552 2.14913 24.6567
555 1 -1.1104 9.4837 -1.90954 26.1601
556 1 -1.1104 9.60806 3.52179 26.1468
557 2 2.2208 8.16563 -0.746931 21.9481
558 2 2.2208 8.20759 4.81998 22.0332
559 1 -1.1104 9.55409 0.700453 23.2957
560 1 -1.1104 9.50035 0.765265 26.0376
498 2 2.2208 10.9351 15.9946 13.7264
567 1 -1.1104 4.0908 11.8523 20.7385
564 1 -1.1104 1.13506 6.32756 20.7515
595 1 -1.1104 6.72317 11.7988 20.7584
670 2 2.2208 13.7103 4.95709 16.5134
9539 2 2.2208 -0.246644 7.71855 22.0666
500 2 2.2208 10.8191 21.5944 13.6897
562 1 -1.1104 1.14847 9.08973 20.6249
563 1 -1.1104 1.31617 11.7977 20.5909
565 1 -1.1104 3.96817 9.07398 20.5026
566 1 -1.1104 3.94248 6.25221 20.7596
568 2 2.2208 5.38143 7.67179 22.0668
569 2 2.2208 5.42438 13.2588 22.0821
570 1 -1.1104 1.20297 9.07569 23.3893
571 1 -1.1104 1.14594 8.97512 26.1881
572 1 -1.1104 1.14914 6.35437 23.3869
573 1 -1.1104 1.35704 11.9393 23.3835
574 2 2.2208 5.35307 10.4913 24.9027
575 1 -1.1104 1.23162 6.29798 26.1458
576 1 -1.1104 1.1966 11.782 26.2807
577 1 -1.1104 3.97188 9.09402 23.3631
578 2 2.2208 2.58484 7.63819 24.7934
579 2 2.2208 2.59336 13.325 24.8078
580 1 -1.1104 3.94491 9.11359 26.1485
581 2 2.2208 2.59771 10.4243 21.9955
582 1 -1.1104 4.05607 6.17477 23.5501
583 1 -1.1104 4.03228 11.8077 23.5213
584 1 -1.1104 4.0234 6.41804 26.293
585 1 -1.1104 3.90294 11.9016 26.2134
587 1 -1.1104 6.80884 11.9942 23.6198
593 1 -1.1104 6.76951 11.8574 26.5083
594 1 -1.1104 6.82209 6.30375 26.2052
596 1 -1.1104 6.9118 9.12419 26.1874
654 1 -1.1104 12.385 20.1878 23.5327
659 1 -1.1104 9.54698 20.0357 23.4362
590 1 -1.1104 12.3495 11.8848 20.5277
599 1 -1.1104 12.3384 9.08031 20.6331
663 2 2.2208 10.9777 18.6713 22.1496
586 1 -1.1104 6.70853 9.19037 23.4351
597 1 -1.1104 9.57227 6.26229 20.7549
601 1 -1.1104 9.59251 9.02664 20.5846
592 1 -1.1104 6.81701 6.35675 23.342
603 1 -1.1104 9.55933 9.10361 23.4117
604 1 -1.1104 12.3661 11.7258 26.2667
605 1 -1.1104 12.2343 6.32682 26.2319
606 2 2.2208 10.8692 10.5124 24.8804
607 1 -1.1104 12.4538 11.8975 23.4167
608 1 -1.1104 12.4347 6.29032 23.5135
609 1 -1.1104 12.3547 9.05296 26.3192
610 1 -1.1104 12.2094 9.07935 23.5875
611 1 -1.1104 9.70618 11.8563 26.2096
612 1 -1.1104 9.56515 6.26681 26.2527
613 1 -1.1104 9.63136 11.8893 23.3953
614 1 -1.1104 9.4668 6.18445 23.5322
615 2 2.2208 8.18707 10.4807 22.1371
616 1 -1.1104 9.60039 8.98115 26.2987
617 2 2.2208 8.2453 13.2901 24.8961
618 2 2.2208 8.13254 7.72102 24.7599
619 2 2.2208 10.9726 7.67252 22.0715
620 2 2.2208 10.9456 13.2141 22.0122
661 2 2.2208 11.0091 16.0567 24.8424
9538 2 2.2208 -0.271263 5.09968 24.8854
651 1 -1.1104 12.3897 20.2364 26.1226
470 1 -1.1104 6.67569 20.2158 20.6161
628 1 -1.1104 3.91975 17.4112 20.6177
627 1 -1.1104 3.96349 20.1543 20.6987
648 1 -1.1104 6.78658 14.7074 23.4629
471 1 -1.1104 1.29717 14.7516 20.6971
649 1 -1.1104 6.70898 17.4484 23.4532
629 1 -1.1104 4.04162 14.5976 20.7616
653 1 -1.1104 6.70529 20.0855 26.2226
630 2 2.2208 2.66129 16.0879 22.0981
631 2 2.2208 2.56261 21.6616 22.2396
632 1 -1.1104 3.96405 17.5021 23.6774
633 1 -1.1104 1.16044 17.4861 23.436
634 1 -1.1104 4.26338 14.663 26.3142
635 1 -1.1104 4.07605 17.4776 26.2604
636 2 2.2208 2.52113 18.8276 24.9604
637 1 -1.1104 3.92544 20.3056 26.2431
638 2 2.2208 5.38902 18.8763 22.0981
639 1 -1.1104 1.16966 14.7187 23.4453
640 1 -1.1104 1.12314 20.1833 23.5057
641 2 2.2208 5.42582 16.1548 24.9231
642 2 2.2208 5.3694 21.6942 24.8174
643 1 -1.1104 1.19614 14.6367 26.255
644 1 -1.1104 1.30288 17.3528 26.1858
645 1 -1.1104 1.21489 20.2744 26.3101
646 1 -1.1104 3.92417 14.6822 23.5619
647 1 -1.1104 3.98377 20.3134 23.5143
657 1 -1.1104 9.54223 17.4057 26.2546
623 1 -1.1104 12.3493 17.4456 26.2956
650 1 -1.1104 12.4972 14.6036 23.5802
389 2 2.2208 8.17207 21.5387 21.9938
652 1 -1.1104 7.03796 14.6209 26.3487
658 1 -1.1104 12.3946 14.6201 20.8524
656 2 2.2208 10.8694 21.7213 24.7137
665 1 -1.1104 6.81965 20.2174 23.372
589 1 -1.1104 9.48317 17.3476 23.4835
448 2 2.2208 2.58107 18.9109 13.784
416 2 2.2208 5.43787 10.5377 13.5517
422 2 2.2208 5.27164 16.0187 13.7553
85 2 2.2208 5.42198 13.2578 27.855
9541 2 2.2208 -0.115329 7.60006 16.5259
134 2 2.2208 5.23329 18.8396 27.6701
52 2 2.2208 8.13511 -0.570997 27.581
388 2 2.2208 11.0242 -0.712663 13.8081
8929 2 2.2208 -0.181641 13.2763 27.6575
369 2 2.2208 8.10518 2.1422 13.804
164 2 2.2208 8.07592 21.6901 27.5647
55 2 2.2208 10.8983 2.05308 27.5145
19 2 2.2208 2.60637 4.9938 27.6146
62 2 2.2208 5.42158 7.70891 27.541
22 2 2.2208 5.39362 2.17754 27.6247
29 2 2.2208 11.0298 13.2943 27.6485
420 2 2.2208 8.12032 13.1572 13.8135
676 2 2.2208 5.38651 24.499 5.31068
677 2 2.2208 5.20582 30.0067 5.35722
678 1 -1.1104 1.34513 25.8352 1.15429
679 1 -1.1104 1.086 25.7923 3.8028
680 1 -1.1104 1.16522 22.9311 1.06316
681 1 -1.1104 1.16707 28.7008 1.12583
682 2 2.2208 5.2841 27.316 2.55427
683 1 -1.1104 1.25409 23.1017 3.83495
684 1 -1.1104 1.13888 28.6479 3.96419
685 1 -1.1104 3.93851 25.7913 1.08655
686 2 2.2208 2.6409 24.458 2.43541
687 2 2.2208 2.53287 30.1357 2.40608
688 1 -1.1104 3.93309 25.8622 3.90131
689 2 2.2208 2.46696 27.1836 5.32767
690 1 -1.1104 4.02321 22.9664 1.19942
691 1 -1.1104 3.9878 28.6876 1.11184
692 1 -1.1104 4.05197 23.1662 3.94857
693 1 -1.1104 3.84168 28.626 3.8809
704 1 -1.1104 6.74408 28.7394 3.90344
695 1 -1.1104 6.73553 28.682 1.27528
702 1 -1.1104 6.69939 23.1473 3.94734
727 1 -1.1104 6.7327 28.6025 6.74457
703 1 -1.1104 6.69169 25.9326 1.18881
841 1 -1.1104 3.87802 25.7957 6.7509
840 1 -1.1104 3.90761 23.0651 6.86115
837 1 -1.1104 6.61602 25.9288 6.7471
1007 2 2.2208 13.6604 35.5846 2.56556
694 1 -1.1104 6.8025 23.0128 1.14855
705 1 -1.1104 6.68583 26.012 4.0861
1427 1 -1.1104 12.3847 48.0277 6.46235
706 2 2.2208 10.9089 24.4494 5.36834
707 2 2.2208 10.9715 30.0832 5.36321
708 1 -1.1104 12.149 25.8158 1.22153
709 1 -1.1104 12.231 25.8077 3.86518
710 1 -1.1104 12.4214 23.0504 1.00383
711 1 -1.1104 12.2048 28.7633 1.30767
712 2 2.2208 10.8642 27.3533 2.48548
713 1 -1.1104 12.2445 23.0107 4.01
714 1 -1.1104 12.3208 28.6342 3.93178
715 1 -1.1104 9.39026 25.8131 1.11178
716 2 2.2208 8.05975 24.5634 2.61467
717 2 2.2208 8.15576 30.0775 2.64504
718 1 -1.1104 9.4451 25.8845 3.92965
719 2 2.2208 8.10578 27.317 5.30681
720 1 -1.1104 9.54095 23.0366 1.06953
721 1 -1.1104 9.56767 28.6283 0.996491
722 1 -1.1104 9.42131 23.0182 3.98779
723 1 -1.1104 9.61727 28.7302 3.87534
861 1 -1.1104 9.44089 28.6156 6.61258
870 1 -1.1104 9.30165 25.8456 6.58036
868 1 -1.1104 12.2101 25.7593 6.70633
869 1 -1.1104 9.56299 22.8291 6.82939
871 1 -1.1104 12.2027 28.6374 6.63664
1358 2 2.2208 -0.200015 44.0713 13.5652
1422 1 -1.1104 12.2331 48.0994 3.68083
729 2 2.2208 5.29447 35.5186 5.40733
730 1 -1.1104 1.08362 31.6697 1.10045
731 1 -1.1104 1.0495 37.1419 1.01912
732 1 -1.1104 1.18963 31.4235 3.84142
733 1 -1.1104 1.13923 36.7834 3.98994
734 1 -1.1104 1.1336 34.4177 1.04521
735 2 2.2208 5.3069 32.8122 2.53715
736 2 2.2208 5.37013 38.4424 2.44434
737 1 -1.1104 1.05809 34.233 3.77884
738 1 -1.1104 3.7992 31.4742 1.0751
739 1 -1.1104 3.89815 37.1017 0.956956
740 2 2.2208 2.53977 35.6285 2.42524
741 1 -1.1104 3.84177 31.4219 3.92456
742 1 -1.1104 3.88843 36.9312 3.78724
743 2 2.2208 2.50897 32.9292 5.24931
744 2 2.2208 2.49131 38.209 5.14919
745 1 -1.1104 3.97892 34.2824 1.10063
746 1 -1.1104 3.95282 34.2499 4.01998
893 1 -1.1104 3.72434 34.2391 6.76247
757 1 -1.1104 6.68584 36.8485 3.95277
750 1 -1.1104 1.05951 34.3493 6.75983
754 1 -1.1104 6.75702 37.056 1.29926
758 1 -1.1104 6.69978 34.3835 1.13042
748 1 -1.1104 1.04888 37.0997 6.73484
895 1 -1.1104 3.95542 36.9452 6.5891
756 1 -1.1104 6.57524 31.4235 3.9874
894 1 -1.1104 1.21295 31.4073 6.55145
891 1 -1.1104 4.04398 31.4469 6.90248
981 1 -1.1104 12.3058 40.0125 12.4178
918 2 2.2208 13.5234 46.7055 2.33938
810 1 -1.1104 6.69857 48.2025 9.32568
747 1 -1.1104 6.67226 31.5717 1.10919
755 1 -1.1104 6.74924 34.1375 4.05058
759 2 2.2208 10.9403 35.606 5.50716
760 1 -1.1104 12.4177 31.4654 1.06257
761 1 -1.1104 12.2976 36.9965 1.24281
762 1 -1.1104 12.355 31.4642 3.81874
763 1 -1.1104 12.1548 37.054 3.97643
764 1 -1.1104 12.1685 34.276 1.18863
765 2 2.2208 10.8684 32.8493 2.64126
766 2 2.2208 10.8626 38.3464 2.5964
767 1 -1.1104 12.3795 34.218 4.07794
768 1 -1.1104 9.46435 31.465 1.25816
769 1 -1.1104 9.52076 37.0367 1.21774
770 2 2.2208 8.01173 35.605 2.53117
771 1 -1.1104 9.43834 31.4622 4.08519
772 1 -1.1104 9.46193 37.0104 4.0187
773 2 2.2208 8.04877 32.802 5.33589
774 2 2.2208 8.18536 38.288 5.31487