ITEM: TIMESTEP
385
ITEM: NUMBER OF ATOMS
17680
ITEM: BOX BOUNDS pp pp pp
-2.7717828229332220e-01 2.7617178282293317e+01
-3.4472205766305355e+00 3.3152722057663055e+02
-2.7717827830221448e-01 2.7617178278302212e+01
ITEM: ATOMS id type q x y z
1 2 2.2208 5.29328 2.13956 5.31543
2 1 -1.1104 1.10595 -2.04885 1.13084
3 1 -1.1104 1.11014 3.53397 1.13105
4 1 -1.1104 1.10599 -2.04875 3.92078
5 1 -1.1104 1.11012 3.53406 3.92095
6 1 -1.1104 1.10811 0.742548 1.13139
7 2 2.2208 5.29122 -0.651953 2.52588
8 2 2.2208 5.29538 4.93083 2.52609
9 1 -1.1104 1.10804 0.742658 3.92041
10 1 -1.1104 3.89547 -2.04882 1.1313
11 1 -1.1104 3.89963 3.53395 1.13152
12 2 2.2208 2.50384 2.13943 2.52596
13 1 -1.1104 3.89542 -2.04873 3.92032
14 1 -1.1104 3.89956 3.53407 3.92053
15 2 2.2208 2.50174 -0.651885 5.31533
16 2 2.2208 2.50584 4.93094 5.31551
17 1 -1.1104 3.89753 0.742572 1.13095
18 1 -1.1104 3.89753 0.742672 3.92088
9180 2 2.2208 -0.283572 4.93085 2.52605
9179 2 2.2208 -0.285675 2.13953 5.31542
28 1 -1.1104 1.11003 3.53418 6.70995
9181 2 2.2208 -0.287696 -0.651995 2.52587
306 2 2.2208 -0.273704 18.8888 10.8948
31 1 -1.1104 3.89748 0.74277 6.70988
172 1 -1.1104 3.89545 -2.04865 6.71023
29 1 -1.1104 1.10596 -2.0487 6.70978
317 1 -1.1104 6.70147 20.2829 12.2892
9532 2 2.2208 -0.28773 -0.651819 13.6836
33 1 -1.1104 6.68489 -2.0488 1.13087
34 1 -1.1104 6.68909 3.53408 3.921
38 1 -1.1104 6.68493 -2.04871 3.9208
35 1 -1.1104 6.68697 0.742687 3.92045
26 1 -1.1104 6.68907 3.53399 1.13108
36 1 -1.1104 6.68702 0.742587 1.13144
39 2 2.2208 10.8722 2.13961 5.31549
40 1 -1.1104 12.2638 -2.0488 1.13092
41 1 -1.1104 12.268 3.53413 1.1311
42 1 -1.1104 12.2638 -2.04874 3.92086
43 1 -1.1104 12.268 3.5342 3.92105
44 1 -1.1104 12.2659 0.742679 1.13147
45 2 2.2208 10.8701 -0.651914 2.52591
46 1 -1.1104 12.2659 0.742725 3.92049
47 1 -1.1104 9.47439 -2.04877 1.13135
48 1 -1.1104 9.47857 3.53404 1.13157
49 2 2.2208 8.08275 2.1395 2.526
50 1 -1.1104 9.47435 -2.04873 3.92039
51 1 -1.1104 9.4785 3.53414 3.92059
52 2 2.2208 8.08068 -0.651859 5.31537
53 2 2.2208 8.08482 4.93099 5.31557
54 1 -1.1104 9.47643 0.742642 1.131
55 1 -1.1104 9.47646 0.742708 3.92093
56 2 2.2208 10.8743 4.93096 2.52612
57 1 -1.1104 9.47439 -2.0487 6.71029
59 1 -1.1104 12.268 3.53431 6.71005
58 1 -1.1104 6.68699 0.742779 6.71035
198 1 -1.1104 6.68902 3.53419 6.71
203 1 -1.1104 6.6849 -2.04866 6.7098
9185 2 2.2208 -0.28159 7.72242 5.3156
63 2 2.2208 5.29738 7.72232 5.31562
64 2 2.2208 5.30154 13.3049 5.31582
65 1 -1.1104 1.11421 9.11666 1.13126
66 1 -1.1104 1.11419 9.11681 3.92113
67 1 -1.1104 1.11222 6.32533 1.1316
68 1 -1.1104 1.11629 11.9079 1.13172
69 2 2.2208 5.2995 10.5134 2.52625
70 1 -1.1104 1.11212 6.32546 3.92062
71 1 -1.1104 1.11618 11.9081 3.92081
72 1 -1.1104 3.90375 9.11657 1.13169
73 2 2.2208 2.50793 7.72217 2.52616
74 2 2.2208 2.51202 13.3047 2.52633
75 1 -1.1104 3.90364 9.11672 3.92072
76 2 2.2208 2.50994 10.5137 5.3157
77 1 -1.1104 3.90166 6.3253 1.13118
78 1 -1.1104 3.90576 11.9078 1.13135
79 1 -1.1104 3.90164 6.32541 3.92108
80 1 -1.1104 3.90578 11.908 3.92126
9182 2 2.2208 -0.279511 10.5136 2.52622
9184 2 2.2208 -0.277517 13.3052 5.31578
229 1 -1.1104 1.11212 6.3256 6.7105
233 1 -1.1104 3.90566 11.9083 6.71026
90 1 -1.1104 6.69119 6.32532 1.13165
93 1 -1.1104 6.69524 11.908 3.92082
234 1 -1.1104 3.90366 9.11692 6.7106
231 1 -1.1104 3.90156 6.32556 6.71006
87 1 -1.1104 1.11409 9.11701 6.71015
86 1 -1.1104 1.1162 11.9084 6.71066
196 2 2.2208 8.09734 21.6801 10.8949
91 1 -1.1104 6.69323 9.11661 1.13126
88 1 -1.1104 6.6911 6.32544 3.92065
92 1 -1.1104 6.69322 9.11676 3.9212
89 1 -1.1104 6.69534 11.9078 1.13179
94 2 2.2208 10.8764 7.72253 5.3157
95 2 2.2208 10.8806 13.3054 5.31589
96 1 -1.1104 12.2722 9.11693 1.13131
97 1 -1.1104 12.2722 9.1171 3.9213
98 1 -1.1104 12.2701 6.32555 1.13168
99 1 -1.1104 12.2743 11.9083 1.13186
100 2 2.2208 10.8785 10.5137 2.52631
101 1 -1.1104 12.27 6.32566 3.92069
102 1 -1.1104 12.2742 11.9085 3.92087
103 1 -1.1104 9.48276 9.11673 1.13175
104 2 2.2208 8.08693 7.72223 2.5262
105 2 2.2208 8.0911 13.3048 2.52637
106 1 -1.1104 9.48265 9.1169 3.92076
107 2 2.2208 8.08896 10.5137 5.31576
108 1 -1.1104 9.48063 6.32541 1.13119
109 1 -1.1104 9.48482 11.908 1.13133
110 1 -1.1104 9.48063 6.32553 3.92114
111 1 -1.1104 9.48483 11.9082 3.92134
114 1 -1.1104 9.4847 11.9086 6.71029
116 1 -1.1104 9.48269 9.11715 6.71069
113 1 -1.1104 12.2721 9.11736 6.71025
259 1 -1.1104 6.69111 6.32561 6.71053
260 1 -1.1104 12.2742 11.9089 6.71086
255 1 -1.1104 6.69527 11.9083 6.71077
261 1 -1.1104 9.48055 6.3257 6.71013
264 1 -1.1104 12.2701 6.32582 6.71062
115 1 -1.1104 6.69311 9.11699 6.71018
9187 2 2.2208 -0.27547 16.0962 2.52643
121 2 2.2208 5.30565 18.8872 5.31607
122 1 -1.1104 1.11823 14.6991 1.13144
123 1 -1.1104 1.12212 20.2812 1.13167
124 1 -1.1104 1.1183 14.6994 3.92131
125 1 -1.1104 1.12225 20.2817 3.92151
126 1 -1.1104 1.12027 17.4902 1.13191
127 2 2.2208 5.3036 16.0958 2.52645
128 2 2.2208 5.30762 21.6777 2.52676
129 1 -1.1104 1.12017 17.4906 3.92109
130 1 -1.1104 3.90783 14.6989 1.13185
131 1 -1.1104 3.91179 20.2809 1.13206
132 2 2.2208 2.51603 18.8869 2.52656
133 1 -1.1104 3.90775 14.6992 3.92093
134 1 -1.1104 3.91173 20.2812 3.9212
135 2 2.2208 2.51405 16.0962 5.31591
136 2 2.2208 2.51798 21.6784 5.31615
137 1 -1.1104 3.90975 17.4899 1.13154
138 1 -1.1104 3.90986 17.4902 3.92146
139 2 2.2208 -0.273532 18.8879 5.31604
140 2 2.2208 -0.271573 21.6785 2.52669
286 1 -1.1104 3.91185 20.2818 6.71102
145 1 -1.1104 1.12206 20.2823 6.71068
284 1 -1.1104 1.11816 14.6997 6.71039
503 2 2.2208 10.8868 21.6819 13.6842
414 2 2.2208 2.51195 13.3055 13.684
502 2 2.2208 8.09526 18.8888 13.6841
230 1 -1.1104 12.2763 14.7004 6.71043
149 1 -1.1104 6.70131 20.2808 1.13169
315 1 -1.1104 12.2805 20.2835 6.7108
319 1 -1.1104 9.48894 17.4912 6.71053
146 1 -1.1104 6.69942 17.49 1.13202
147 1 -1.1104 6.69934 17.4903 3.92107
148 1 -1.1104 6.70152 20.2813 3.92171
150 1 -1.1104 6.69735 14.6989 1.13141
142 1 -1.1104 6.6974 14.6992 3.92141
151 2 2.2208 10.8848 18.8881 5.3162
152 1 -1.1104 12.2763 14.6996 1.13143
153 1 -1.1104 12.2804 20.2819 1.1317
154 1 -1.1104 12.2764 14.6999 3.92152
155 1 -1.1104 12.2807 20.2825 3.92191
156 1 -1.1104 12.2785 17.4908 1.13209
157 2 2.2208 10.8827 16.0963 2.52652
158 2 2.2208 10.8867 21.6786 2.52689
159 1 -1.1104 12.2784 17.4912 3.92112
160 1 -1.1104 9.48694 14.6992 1.13194
161 1 -1.1104 9.491 20.2813 1.13225
162 2 2.2208 8.09519 18.887 2.52666
163 1 -1.1104 9.48684 14.6995 3.92094
164 1 -1.1104 9.49095 20.2817 3.92127
165 2 2.2208 8.09317 16.0963 5.31598
166 2 2.2208 8.09729 21.6786 5.31632
167 1 -1.1104 9.48891 17.4903 1.13155
168 1 -1.1104 9.48904 17.4907 3.92163
314 1 -1.1104 9.49125 20.2825 6.71135
232 1 -1.1104 6.70141 20.2818 6.71064
320 1 -1.1104 9.48695 14.6999 6.71095
253 1 -1.1104 12.2786 17.492 6.71118
308 1 -1.1104 6.6973 14.6996 6.71038
328 1 -1.1104 9.48913 17.492 9.5005
176 1 -1.1104 3.89956 3.53418 6.71041
30 1 -1.1104 1.10804 0.742733 6.71032
9193 2 2.2208 -0.287743 -0.65185 8.10479
177 2 2.2208 5.2933 2.13968 10.8943
178 1 -1.1104 1.10597 -2.04866 12.2886
179 1 -1.1104 1.11008 3.53431 12.2888
180 1 -1.1104 1.10597 -2.04865 9.49967
181 1 -1.1104 1.11007 3.53426 9.49981
182 1 -1.1104 1.10804 0.742827 12.2891
183 2 2.2208 5.29122 -0.651807 8.10478
184 2 2.2208 5.29532 4.93107 8.10494
185 1 -1.1104 1.10801 0.7428 9.49931
186 1 -1.1104 3.89548 -2.04864 12.2891
187 1 -1.1104 3.89959 3.53432 12.2892
188 2 2.2208 2.50378 2.13963 8.10486
189 1 -1.1104 3.89543 -2.04865 9.49921
190 1 -1.1104 3.89954 3.53427 9.49937
191 2 2.2208 2.50176 -0.651795 10.8942
192 2 2.2208 2.50582 4.93115 10.8943
193 1 -1.1104 3.89755 0.742838 12.2887
194 1 -1.1104 3.89752 0.742821 9.49973
9194 2 2.2208 -0.283659 4.93109 8.10495
9189 2 2.2208 -0.285682 2.13968 10.8943
371 2 2.2208 5.29537 4.93113 13.6837
375 2 2.2208 2.50383 2.13967 13.6837
9534 2 2.2208 -0.283616 4.93118 13.6837
199 1 -1.1104 6.68492 -2.04865 9.49968
370 2 2.2208 5.29128 -0.651838 13.6836
60 1 -1.1104 12.2659 0.742796 6.71041
9538 2 2.2208 -0.279594 10.5142 13.6839
207 1 -1.1104 9.47644 0.742766 6.70993
208 1 -1.1104 12.2638 -2.04873 6.70989
202 1 -1.1104 9.47855 3.53424 6.71049
206 1 -1.1104 6.68907 3.53429 9.49984
201 1 -1.1104 6.68706 0.742805 12.2892
200 1 -1.1104 6.687 0.742807 9.49932
204 1 -1.1104 6.68495 -2.04872 12.2887
205 1 -1.1104 6.68907 3.53428 12.2888
209 2 2.2208 10.8723 2.1397 10.8944
210 1 -1.1104 12.2638 -2.04882 12.2888
211 1 -1.1104 12.268 3.53442 12.2889
212 1 -1.1104 12.2638 -2.04878 9.49978
213 1 -1.1104 12.268 3.53438 9.49994
214 1 -1.1104 12.266 0.742808 12.2893
215 2 2.2208 10.8702 -0.651861 8.10484
216 2 2.2208 10.8743 4.93119 8.10503
217 1 -1.1104 12.2659 0.742786 9.49941
218 1 -1.1104 9.47443 -2.04877 12.2891
219 1 -1.1104 9.47858 3.53435 12.2893
220 2 2.2208 8.08277 2.13965 8.10491
221 1 -1.1104 9.47438 -2.04873 9.49929
222 1 -1.1104 9.47853 3.53433 9.49945
223 2 2.2208 8.08073 -0.651851 10.8942
224 2 2.2208 8.08483 4.93118 10.8944
225 1 -1.1104 9.47653 0.742764 12.2888
226 1 -1.1104 9.4765 0.742819 9.49982
408 2 2.2208 8.08283 2.13966 13.6837
386 2 2.2208 10.8743 4.93129 13.6838
376 2 2.2208 10.8702 -0.651893 13.6837
9195 2 2.2208 -0.27759 13.3058 10.8946
9197 2 2.2208 -0.279592 10.5141 8.1051
235 2 2.2208 5.29735 7.72259 10.8944
236 2 2.2208 5.30152 13.3055 10.8946
237 1 -1.1104 1.1141 9.11727 12.289
238 1 -1.1104 1.11411 9.11721 9.49998
239 1 -1.1104 1.11211 6.3258 12.2893
240 1 -1.1104 1.11614 11.9088 12.2894
241 2 2.2208 5.29942 10.5139 8.10515
242 1 -1.1104 1.11205 6.32574 9.49946
243 1 -1.1104 1.11611 11.9087 9.49966
244 1 -1.1104 3.90363 9.11721 12.2894
245 2 2.2208 2.50785 7.72248 8.10503
246 2 2.2208 2.51197 13.3053 8.10523
247 1 -1.1104 3.90357 9.1171 9.49956
248 2 2.2208 2.50989 10.514 10.8945
249 1 -1.1104 3.90159 6.32576 12.2889
250 1 -1.1104 3.90567 11.9086 12.289
251 1 -1.1104 3.90159 6.32569 9.4999
252 1 -1.1104 3.9057 11.9085 9.50012
9196 2 2.2208 -0.281641 7.7227 10.8944
435 2 2.2208 2.50789 7.72259 13.6838
416 2 2.2208 5.29946 10.514 13.6839
466 2 2.2208 8.08691 7.72271 13.6838
465 2 2.2208 10.8785 10.5146 13.6839
263 1 -1.1104 6.69526 11.9087 12.2895
257 1 -1.1104 6.69316 9.11718 9.50005
262 1 -1.1104 6.69111 6.3258 12.2893
258 1 -1.1104 6.69106 6.32574 9.49947
256 1 -1.1104 6.69315 9.11726 12.289
254 1 -1.1104 6.69519 11.9086 9.49968
265 1 -1.1104 9.48478 11.9089 9.50022
266 1 -1.1104 9.4806 6.32586 9.49998
267 1 -1.1104 9.48476 11.9091 12.289
268 1 -1.1104 9.48058 6.32589 12.2889
269 2 2.2208 8.08894 10.5142 10.8946
270 1 -1.1104 9.48261 9.11738 9.49961
271 2 2.2208 8.09106 13.3054 8.10529
272 2 2.2208 8.08686 7.72258 8.10507
273 2 2.2208 10.8763 7.72287 10.8945
274 2 2.2208 10.8805 13.3062 10.8947
275 1 -1.1104 12.2721 9.11781 12.289
276 1 -1.1104 12.2721 9.11763 9.50014
277 1 -1.1104 12.2701 6.3261 12.2894
278 1 -1.1104 12.2742 11.9096 12.2896
279 2 2.2208 10.8784 10.5143 8.10521
280 1 -1.1104 12.27 6.32598 9.49956
281 1 -1.1104 12.2741 11.9093 9.49973
282 1 -1.1104 9.48268 9.11751 12.2894
369 2 2.2208 8.09109 13.3058 13.684
470 2 2.2208 5.3036 16.0969 13.684
144 1 -1.1104 3.90977 17.4907 6.71051
143 1 -1.1104 3.90782 14.6995 6.71081
9198 2 2.2208 -0.275543 16.097 8.10531
283 2 2.2208 -0.271759 21.6798 8.10555
287 1 -1.1104 1.12027 17.491 6.71086
288 1 -1.1104 3.9117 20.2823 9.49998
289 1 -1.1104 3.90984 17.4911 9.5003
290 2 2.2208 2.516 18.8878 8.10543
291 1 -1.1104 3.90772 14.6998 9.49977
292 1 -1.1104 1.1201 17.4917 12.2895
293 2 2.2208 2.51398 16.0969 10.8947
294 2 2.2208 2.51782 21.6795 10.8948
295 1 -1.1104 3.90977 17.4913 12.2892
296 1 -1.1104 3.9117 20.2825 12.2896
297 1 -1.1104 3.90776 14.7 12.2896
298 1 -1.1104 1.12208 20.2828 9.5003
299 1 -1.1104 1.1201 17.4915 9.49991
300 2 2.2208 5.30764 21.6789 8.10557
301 1 -1.1104 1.11821 14.7001 9.50015
302 2 2.2208 5.30362 16.0965 8.10537
303 1 -1.1104 1.12189 20.2831 12.2893
304 1 -1.1104 1.11813 14.7002 12.2891
305 2 2.2208 5.30564 18.8881 10.8948
498 2 2.2208 2.51587 18.8882 13.684
495 2 2.2208 -0.27206 21.6804 13.6841
197 1 -1.1104 9.48695 14.7007 12.2897
330 1 -1.1104 9.48686 14.7004 9.49978
323 2 2.2208 8.0932 16.0972 10.8947
525 2 2.2208 10.8827 16.098 13.684
313 1 -1.1104 12.2785 17.4934 12.2898
311 1 -1.1104 12.2764 14.701 9.50037
23 2 2.2208 10.8827 16.0974 8.10545
316 1 -1.1104 6.6974 14.7 9.50028
307 1 -1.1104 6.70158 20.2825 9.50052
312 1 -1.1104 9.4912 20.2841 12.2899
310 1 -1.1104 6.69736 14.7002 12.2891
325 1 -1.1104 6.69948 17.4916 12.2897
322 2 2.2208 8.09528 18.8882 8.10554
327 1 -1.1104 12.2806 20.2857 12.2893
329 1 -1.1104 9.48904 17.4924 12.2892
324 1 -1.1104 12.2784 17.4928 9.49994
309 1 -1.1104 12.2807 20.2848 9.5008
285 2 2.2208 10.8869 21.6805 8.10583
195 1 -1.1104 6.69952 17.4908 6.71102
326 1 -1.1104 6.69942 17.4913 9.49986
321 1 -1.1104 9.49107 20.2835 9.50004
32 2 2.2208 10.8848 18.8897 10.8949
318 1 -1.1104 12.2763 14.7014 12.2891
9540 2 2.2208 -0.275636 16.0973 13.684
490 2 2.2208 5.30752 21.6794 13.6841
83 2 2.2208 10.8681 -3.44342 10.8942
82 2 2.2208 10.868 -3.44335 5.31529
9188 2 2.2208 -0.289798 -3.44334 5.31523
373 2 2.2208 8.07864 -3.4434 13.6836
84 2 2.2208 5.28914 -3.44329 5.31522
85 2 2.2208 2.49966 -3.44337 2.52575
62 2 2.2208 8.0786 -3.44334 2.52579
9192 2 2.2208 -0.289793 -3.44331 10.8941
141 2 2.2208 5.28917 -3.44328 10.8941
24 2 2.2208 2.49967 -3.44326 8.10468
372 2 2.2208 2.49968 -3.4433 13.6835
21 2 2.2208 8.07861 -3.44331 8.10471
351 2 2.2208 5.29336 2.13959 16.4731
352 1 -1.1104 1.10595 -2.04875 17.8674
353 1 -1.1104 1.11015 3.53414 17.8676
354 1 -1.1104 1.10597 -2.0487 15.0785
355 1 -1.1104 1.11011 3.53425 15.0786
356 1 -1.1104 1.10806 0.742696 17.868
357 2 2.2208 5.29127 -0.651942 19.2624
358 2 2.2208 5.29546 4.93093 19.2626
359 1 -1.1104 1.10804 0.742794 15.0781
360 1 -1.1104 3.89546 -2.04874 17.8679
361 1 -1.1104 3.89965 3.53414 17.868
362 2 2.2208 2.50389 2.13949 19.2625
363 1 -1.1104 3.89547 -2.0487 15.078
364 1 -1.1104 3.89963 3.53423 15.0782
365 2 2.2208 2.50177 -0.651873 16.473
366 2 2.2208 2.50592 4.93104 16.4732
367 1 -1.1104 3.89758 0.742699 17.8675
368 1 -1.1104 3.89756 0.742781 15.0785
9531 2 2.2208 -0.285641 2.1396 16.4731
9530 2 2.2208 -0.28353 4.93096 19.2626
532 1 -1.1104 3.89968 3.53399 20.657
378 1 -1.1104 3.89758 0.742596 20.6574
387 1 -1.1104 6.68915 3.53417 17.8676
9529 2 2.2208 -0.287725 -0.651963 19.2624
385 1 -1.1104 6.68497 -2.04873 15.0785
388 1 -1.1104 6.68707 0.742747 15.0781
384 1 -1.1104 6.68709 0.742716 17.868
389 1 -1.1104 6.68913 3.53425 15.0786
383 1 -1.1104 6.68497 -2.04877 17.8674
390 2 2.2208 10.8723 2.13968 16.4732
391 1 -1.1104 12.2639 -2.04886 17.8675
392 1 -1.1104 12.2681 3.53438 17.8677
393 1 -1.1104 12.2639 -2.04883 15.0786
394 1 -1.1104 12.268 3.53445 15.0787
395 1 -1.1104 12.266 0.742758 17.8681
396 2 2.2208 10.8702 -0.65194 19.2625
397 2 2.2208 10.8744 4.93115 19.2626
398 1 -1.1104 12.266 0.742794 15.0782
399 1 -1.1104 9.47445 -2.04881 17.8679
400 1 -1.1104 9.47861 3.53427 17.8681
401 2 2.2208 8.08285 2.13955 19.2625
402 1 -1.1104 9.47443 -2.04879 15.0781
403 1 -1.1104 9.4786 3.53432 15.0782
404 2 2.2208 8.08076 -0.651891 16.473
405 2 2.2208 8.0849 4.93113 16.4732
406 1 -1.1104 9.47655 0.742732 17.8676
407 1 -1.1104 9.47655 0.742779 15.0786
556 1 -1.1104 6.68492 -2.04884 20.6573
562 1 -1.1104 6.68706 0.742618 20.6569
412 1 -1.1104 12.268 3.53425 20.6575
563 1 -1.1104 6.68916 3.53405 20.6575
411 1 -1.1104 9.47862 3.53415 20.6571
413 1 -1.1104 12.266 0.742676 20.657
558 1 -1.1104 9.47653 0.742656 20.6574
529 1 -1.1104 6.69738 14.6989 26.2367
9535 2 2.2208 -0.277567 13.3056 16.4733
417 2 2.2208 5.29746 7.72249 16.4732
418 2 2.2208 5.30156 13.3053 16.4733
419 1 -1.1104 1.11425 9.11699 17.8677
420 1 -1.1104 1.11415 9.11721 15.0787
421 1 -1.1104 1.11219 6.32559 17.8681
422 1 -1.1104 1.1162 11.9084 17.8682
423 2 2.2208 5.29957 10.5136 19.2627
424 1 -1.1104 1.11216 6.32572 15.0783
425 1 -1.1104 1.11618 11.9087 15.0784
426 1 -1.1104 3.90374 9.11692 17.8682
427 2 2.2208 2.50801 7.7223 19.2627
428 2 2.2208 2.51202 13.305 19.2627
429 1 -1.1104 3.90368 9.1171 15.0783
430 2 2.2208 2.50998 10.5139 16.4733
431 1 -1.1104 3.90172 6.32555 17.8677
432 1 -1.1104 3.90581 11.9082 17.8678
433 1 -1.1104 3.90165 6.32569 15.0787
434 1 -1.1104 3.90571 11.9085 15.0788
9537 2 2.2208 -0.281539 7.72259 16.4732
9536 2 2.2208 -0.27947 10.5138 19.2627
440 1 -1.1104 1.11427 9.1168 20.6576
588 1 -1.1104 3.90176 6.32539 20.6576
553 1 -1.1104 9.48691 14.6992 26.2362
442 1 -1.1104 6.69329 9.117 17.8677
441 1 -1.1104 1.1163 11.9081 20.6572
589 1 -1.1104 1.11226 6.32541 20.6571
590 1 -1.1104 3.9058 11.908 20.6577
591 1 -1.1104 3.90382 9.11671 20.6572
668 1 -1.1104 9.48891 17.4902 26.2368
445 1 -1.1104 6.69121 6.32561 17.8681
444 1 -1.1104 6.69532 11.9084 17.8683
446 1 -1.1104 6.69117 6.32573 15.0782
439 1 -1.1104 6.69531 11.9086 15.0784
443 1 -1.1104 6.6932 9.11721 15.0788
447 2 2.2208 10.8764 7.72286 16.4732
448 2 2.2208 10.8806 13.3061 16.4733
449 1 -1.1104 12.2722 9.11762 17.8677
450 1 -1.1104 12.2722 9.11782 15.0788
451 1 -1.1104 12.2701 6.32601 17.8681
452 1 -1.1104 12.2743 11.9093 17.8682
453 2 2.2208 10.8786 10.5142 19.2627
454 1 -1.1104 12.2701 6.3261 15.0783
455 1 -1.1104 12.2743 11.9095 15.0783
456 1 -1.1104 9.48276 9.11728 17.8682
457 2 2.2208 8.08701 7.72245 19.2626
458 2 2.2208 8.09114 13.3052 19.2627
459 1 -1.1104 9.48271 9.11746 15.0783
460 2 2.2208 8.08904 10.5141 16.4733
461 1 -1.1104 9.4807 6.32578 17.8676
462 1 -1.1104 9.48491 11.9088 17.8677
463 1 -1.1104 9.48064 6.32591 15.0787
464 1 -1.1104 9.48482 11.909 15.0789
468 1 -1.1104 6.6954 11.9081 20.6572
622 1 -1.1104 12.2744 11.9089 20.6571
619 1 -1.1104 9.48488 11.9084 20.6577
614 1 -1.1104 9.48071 6.32561 20.6576
625 1 -1.1104 12.2701 6.3258 20.6571
621 1 -1.1104 12.2722 9.11734 20.6576
616 1 -1.1104 6.69126 6.32546 20.6571
620 1 -1.1104 9.48285 9.11704 20.6571
613 1 -1.1104 6.69332 9.11679 20.6576
471 2 2.2208 -0.273804 18.8885 16.4733
472 2 2.2208 5.30554 18.8879 16.4734
473 1 -1.1104 1.11821 14.6998 17.8678
474 1 -1.1104 1.12189 20.2823 17.8679
475 1 -1.1104 1.11812 14.7001 15.0788
476 1 -1.1104 1.12179 20.2829 15.0788
477 1 -1.1104 1.12001 17.4911 17.8682
478 2 2.2208 5.30358 16.0962 19.2628
479 2 2.2208 5.30736 21.6782 19.2628
480 1 -1.1104 1.12007 17.4915 15.0785
481 1 -1.1104 3.90773 14.6995 17.8682
482 1 -1.1104 3.91149 20.2818 17.8682
483 2 2.2208 2.51583 18.8874 19.2628
484 1 -1.1104 3.90778 14.6999 15.0784
485 1 -1.1104 3.91164 20.2823 15.0785
486 2 2.2208 2.51394 16.0966 16.4733
487 2 2.2208 2.51762 21.6791 16.4734
488 1 -1.1104 3.90977 17.4907 17.8679
489 1 -1.1104 3.90971 17.4912 15.0789
491 2 2.2208 -0.272041 21.6792 19.2627
9541 2 2.2208 -0.275601 16.0966 19.2627
492 1 -1.1104 1.12185 20.2817 20.6576
496 1 -1.1104 1.11818 14.6994 20.6576
170 2 2.2208 8.09315 16.0958 27.6313
585 1 -1.1104 9.48691 14.6993 23.4472
506 1 -1.1104 6.69737 14.7001 15.079
504 1 -1.1104 6.70138 20.2827 15.079
505 1 -1.1104 6.69934 17.4909 17.8683
499 1 -1.1104 6.70139 20.2821 17.8678
500 1 -1.1104 6.69946 17.4914 15.0785
501 1 -1.1104 6.69743 14.6997 17.8678
507 2 2.2208 10.8847 18.8895 16.4734
508 1 -1.1104 12.2765 14.701 17.8677
509 1 -1.1104 12.2806 20.2846 17.8676
510 1 -1.1104 12.2764 14.7014 15.0789
511 1 -1.1104 12.2805 20.2855 15.0791
512 1 -1.1104 12.2784 17.4927 17.8683
513 2 2.2208 10.8827 16.0972 19.2627
514 2 2.2208 10.8866 21.6801 19.2627
515 1 -1.1104 12.2785 17.4934 15.0784
516 1 -1.1104 9.48692 14.7002 17.8683
517 1 -1.1104 9.4909 20.2831 17.8684
518 2 2.2208 8.09513 18.8878 19.2628
519 1 -1.1104 9.48696 14.7007 15.0784
520 1 -1.1104 9.49116 20.2839 15.0784
521 2 2.2208 8.09319 16.097 16.4734
522 2 2.2208 8.09717 21.6798 16.4734
523 1 -1.1104 9.48906 17.4917 17.8677
524 1 -1.1104 9.48901 17.4923 15.079
527 1 -1.1104 9.48699 14.6997 20.6571
669 1 -1.1104 12.2785 17.4918 20.6571
555 2 2.2208 8.09701 21.6781 22.0523
9544 2 2.2208 -0.283472 4.93077 24.8415
379 1 -1.1104 1.10594 -2.04884 20.6573
377 1 -1.1104 1.10809 0.742589 20.6569
20 2 2.2208 5.30159 13.3045 27.6312
409 1 -1.1104 6.69931 17.49 23.4472
380 1 -1.1104 3.89543 -2.04882 20.6568
530 1 -1.1104 1.11021 3.53402 20.6575
9543 2 2.2208 -0.285563 2.1394 22.0519
533 2 2.2208 5.29337 2.13941 22.0519
534 1 -1.1104 1.10595 -2.04889 23.4463
535 1 -1.1104 1.11022 3.53392 23.4465
536 1 -1.1104 1.10598 -2.04891 26.2362
537 1 -1.1104 1.11022 3.5339 26.2364
538 1 -1.1104 1.10812 0.742518 23.4468
539 2 2.2208 5.29123 -0.65205 24.8413
540 1 -1.1104 1.10809 0.742498 26.2358
541 1 -1.1104 3.89542 -2.04888 23.4467
542 1 -1.1104 3.8997 3.53392 23.4469
543 2 2.2208 2.5039 2.13933 24.8414
544 1 -1.1104 3.89542 -2.04889 26.2357
545 1 -1.1104 3.89965 3.53389 26.236
546 2 2.2208 2.50177 -0.652027 22.0518
547 2 2.2208 2.50599 4.93079 22.052
548 1 -1.1104 3.89757 0.742531 23.4464
549 1 -1.1104 3.89757 0.742509 26.2363
550 2 2.2208 5.29547 4.93075 24.8415
9542 2 2.2208 -0.287693 -0.652086 24.8413
27 2 2.2208 2.50177 -0.652043 27.6307
9190 2 2.2208 -0.285564 2.13935 27.6309
19 2 2.2208 2.50596 4.93074 27.631
22 2 2.2208 5.29334 2.13938 27.6309
678 1 -1.1104 12.2784 17.4911 23.4472
467 2 2.2208 10.8866 21.6783 24.8419
410 1 -1.1104 12.2638 -2.04889 20.6574
557 1 -1.1104 9.47438 -2.04885 20.6569
559 1 -1.1104 6.68701 0.742555 26.2359
560 1 -1.1104 6.68917 3.53397 23.4465
561 1 -1.1104 6.68705 0.742542 23.4469
565 1 -1.1104 6.68493 -2.04885 26.2362
566 1 -1.1104 6.68489 -2.04887 23.4463
564 1 -1.1104 6.68915 3.53394 26.2364
567 2 2.2208 10.8723 2.13952 22.052
568 1 -1.1104 12.2638 -2.0489 23.4463
569 1 -1.1104 12.268 3.53414 23.4465
570 1 -1.1104 12.2638 -2.04885 26.2363
571 1 -1.1104 12.268 3.5341 26.2364
572 1 -1.1104 12.2659 0.742622 23.4469
573 2 2.2208 10.8701 -0.652007 24.8413
574 2 2.2208 10.8744 4.93093 24.8415
575 1 -1.1104 12.2659 0.742633 26.2359
576 1 -1.1104 9.47438 -2.04888 23.4468
577 1 -1.1104 9.47862 3.53406 23.447
578 2 2.2208 8.08282 2.13941 24.8414
579 1 -1.1104 9.47433 -2.04885 26.2358
580 1 -1.1104 9.47858 3.53402 26.236
581 2 2.2208 8.08072 -0.651999 22.0519
582 2 2.2208 8.08494 4.9309 22.052
583 1 -1.1104 9.47648 0.742603 23.4464
584 1 -1.1104 9.47649 0.742589 26.2363
175 2 2.2208 10.8722 2.13947 27.6309
37 2 2.2208 8.08489 4.93082 27.631
528 1 -1.1104 9.49099 20.2821 20.6572
174 2 2.2208 8.08069 -0.651993 27.6308
9547 2 2.2208 -0.281442 7.72225 22.0521
9546 2 2.2208 -0.277491 13.305 22.0521
592 2 2.2208 5.29756 7.72217 22.0521
593 2 2.2208 5.30161 13.3047 22.0522
594 1 -1.1104 1.11432 9.11665 23.4467
595 1 -1.1104 1.11428 9.11661 26.2366
596 1 -1.1104 1.11228 6.32531 23.447
597 1 -1.1104 1.11628 11.9079 23.4471
598 2 2.2208 5.2996 10.5133 24.8416
599 1 -1.1104 1.11225 6.32529 26.2361
600 1 -1.1104 1.11629 11.9079 26.2362
601 1 -1.1104 3.90383 9.11658 23.4471
602 2 2.2208 2.50804 7.72208 24.8416
603 2 2.2208 2.51206 13.3046 24.8417
604 1 -1.1104 3.90378 9.11653 26.2361
605 2 2.2208 2.51006 10.5135 22.0522
606 1 -1.1104 3.90177 6.32528 23.4466
607 1 -1.1104 3.90585 11.9078 23.4467
608 1 -1.1104 3.90175 6.32523 26.2365
609 1 -1.1104 3.90583 11.9077 26.2366
9545 2 2.2208 -0.279437 10.5135 24.8416
9183 2 2.2208 -0.281491 7.72217 27.631
81 2 2.2208 5.29749 7.72208 27.6311
617 1 -1.1104 6.69537 11.9078 26.2362
61 2 2.2208 2.51003 10.5134 27.6311
9186 2 2.2208 -0.277447 13.3048 27.6312
623 1 -1.1104 6.69126 6.32534 23.4471
618 1 -1.1104 6.69336 9.11664 23.4466
615 1 -1.1104 6.69539 11.9079 23.4471
624 1 -1.1104 6.69122 6.3253 26.2361
626 1 -1.1104 6.69331 9.11657 26.2366
627 1 -1.1104 9.48283 9.11683 23.4471
628 1 -1.1104 12.2744 11.9083 26.2362
629 1 -1.1104 12.2701 6.32553 26.2361
630 2 2.2208 10.8786 10.5137 24.8416
631 1 -1.1104 12.2743 11.9085 23.4471
632 1 -1.1104 12.2702 6.32563 23.447
633 1 -1.1104 12.2723 9.11694 26.2366
634 1 -1.1104 12.2723 9.11709 23.4466
635 1 -1.1104 9.4849 11.908 26.2367
636 1 -1.1104 9.4807 6.3254 26.2365
637 1 -1.1104 9.48493 11.9081 23.4466
638 1 -1.1104 9.48073 6.32548 23.4466
639 2 2.2208 8.08913 10.5136 22.0522
640 1 -1.1104 9.48282 9.11674 26.2361
641 2 2.2208 8.09115 13.3047 24.8417
642 2 2.2208 8.08704 7.72218 24.8416
643 2 2.2208 10.8765 7.72249 22.0521
644 2 2.2208 10.8807 13.3053 22.0522
117 2 2.2208 10.8806 13.3049 27.6312
118 2 2.2208 8.08908 10.5134 27.6311
112 2 2.2208 10.8765 7.7223 27.6311
648 1 -1.1104 3.90782 14.6992 20.6572
676 1 -1.1104 6.6994 17.4904 20.6572
645 2 2.2208 -0.271715 21.6781 24.8419
649 1 -1.1104 1.12013 17.4906 20.6573
497 1 -1.1104 3.91161 20.2812 20.6573
9548 2 2.2208 -0.275514 16.096 24.8417
647 1 -1.1104 3.90965 17.4902 20.6577
650 2 2.2208 2.51773 21.6778 22.0523
651 1 -1.1104 3.90975 17.4899 23.4468
652 1 -1.1104 1.12013 17.4902 23.4471
653 1 -1.1104 3.9078 14.6988 26.2363
654 1 -1.1104 3.90975 17.4898 26.2367
655 2 2.2208 2.51593 18.8867 24.8418
656 1 -1.1104 3.91167 20.2807 26.2365
657 2 2.2208 5.30549 18.8868 22.0523
658 1 -1.1104 1.11825 14.6991 23.4467
659 1 -1.1104 1.12203 20.2812 23.4469
660 2 2.2208 5.30357 16.0956 24.8417
661 2 2.2208 5.30744 21.6773 24.842
662 1 -1.1104 1.11827 14.699 26.2366
663 1 -1.1104 1.12018 17.4901 26.2364
664 1 -1.1104 1.12213 20.2811 26.2368
665 1 -1.1104 3.90778 14.6989 23.4472
666 1 -1.1104 3.91158 20.2808 23.4473
667 2 2.2208 2.51398 16.0959 22.0522
646 2 2.2208 -0.273683 18.8874 22.0522
120 2 2.2208 -0.273524 18.8871 27.6314
228 2 2.2208 2.51794 21.6776 27.6315
672 1 -1.1104 6.6974 14.699 23.4467
552 1 -1.1104 9.48895 17.4905 23.4467
586 1 -1.1104 9.4908 20.2814 23.4473
494 1 -1.1104 6.70131 20.2807 26.2369
671 2 2.2208 8.09315 16.0961 22.0522
531 2 2.2208 10.8827 16.0962 24.8417
674 1 -1.1104 12.2784 17.4908 26.2363
673 2 2.2208 10.8846 18.8879 22.0522
469 1 -1.1104 6.69932 17.4899 26.2363
611 1 -1.1104 9.48887 17.491 20.6577
526 1 -1.1104 6.69735 14.6993 20.6577
612 1 -1.1104 6.70119 20.2813 20.6578
679 1 -1.1104 12.2804 20.2823 23.4466
610 1 -1.1104 12.2803 20.2832 20.6576
670 1 -1.1104 9.49087 20.2811 26.2364
675 1 -1.1104 12.2764 14.6998 23.4466
680 2 2.2208 8.0951 18.8868 24.8418
587 1 -1.1104 12.2764 14.6996 26.2367
551 1 -1.1104 12.2804 20.2818 26.2369
554 1 -1.1104 12.2764 14.7003 20.6576
677 1 -1.1104 6.70127 20.2808 23.4468
227 2 2.2208 2.51403 16.0957 27.6313
169 2 2.2208 10.8847 18.8872 27.6314
119 2 2.2208 5.30556 18.8865 27.6314
171 2 2.2208 8.09713 21.6776 27.6316
173 2 2.2208 10.868 -3.44343 27.6307
438 2 2.2208 8.07857 -3.44346 24.8412
436 2 2.2208 10.868 -3.44353 22.0518
382 2 2.2208 10.8681 -3.4435 16.473
381 2 2.2208 2.49962 -3.4434 19.2623
437 2 2.2208 5.28915 -3.44336 16.4729
25 2 2.2208 5.28912 -3.44343 27.6306
415 2 2.2208 8.0786 -3.44345 19.2623
374 2 2.2208 5.2891 -3.44345 22.0518
493 2 2.2208 2.49962 -3.44348 24.8412
9533 2 2.2208 -0.289835 -3.44338 16.4729
9191 2 2.2208 -0.289853 -3.44349 27.6306
9539 2 2.2208 -0.289888 -3.44351 22.0517
701 2 2.2208 5.30965 24.4691 5.31638
702 2 2.2208 5.31419 30.0505 5.31698
703 1 -1.1104 1.1259 25.863 1.13205
704 1 -1.1104 1.12605 25.8636 3.92183
705 1 -1.1104 1.12414 23.0722 1.13211
706 1 -1.1104 1.12817 28.6537 1.13265
707 2 2.2208 5.31176 27.2592 2.5273
708 1 -1.1104 1.12397 23.0727 3.92137
709 1 -1.1104 1.12786 28.6543 3.92186
710 1 -1.1104 3.91573 25.8623 1.13245
711 2 2.2208 2.51997 24.4688 2.52689
712 2 2.2208 2.52459 30.0503 2.52759
713 1 -1.1104 3.91556 25.8628 3.92155
714 2 2.2208 2.522 27.2603 5.31656
715 1 -1.1104 3.91363 23.0716 1.13183
716 1 -1.1104 3.91763 28.6528 1.13243
717 1 -1.1104 3.9138 23.0721 3.92172
718 1 -1.1104 3.91788 28.6533 3.92229
723 2 2.2208 -0.267575 27.2605 2.52711
725 2 2.2208 -0.265408 30.0523 5.31682
871 1 -1.1104 1.12403 23.0734 6.71106
873 1 -1.1104 3.9136 23.0727 6.71076
721 2 2.2208 -0.269745 24.4703 5.31632
893 1 -1.1104 6.70776 28.6539 6.71196
926 2 2.2208 -0.246516 41.2128 -0.260498
986 1 -1.1104 6.73071 48.0513 9.38356
732 1 -1.1104 6.70556 25.8627 3.92213
729 1 -1.1104 6.70334 23.072 3.92136
728 1 -1.1104 6.7076 28.6527 1.13305
730 1 -1.1104 6.70525 25.8622 1.13208
727 1 -1.1104 6.70341 23.0716 1.13233
733 1 -1.1104 6.70747 28.6531 3.9219
734 2 2.2208 10.8889 24.4707 5.31673
735 2 2.2208 10.8932 30.053 5.31769
736 1 -1.1104 12.2844 25.8637 1.13206
737 1 -1.1104 12.2849 25.8647 3.92257
738 1 -1.1104 12.2825 23.0729 1.13247
739 1 -1.1104 12.2868 28.6543 1.1331
740 2 2.2208 10.8908 27.2605 2.52755
741 1 -1.1104 12.2825 23.0736 3.92155
742 1 -1.1104 12.2867 28.6554 3.92229
743 1 -1.1104 9.49509 25.8628 1.13272
744 2 2.2208 8.09925 24.4688 2.52706
745 2 2.2208 8.10363 30.0503 2.528
746 1 -1.1104 9.49502 25.8634 3.9217
747 2 2.2208 8.10147 27.2604 5.31685
748 1 -1.1104 9.4929 23.0721 1.13185
749 1 -1.1104 9.49697 28.6532 1.13248
750 1 -1.1104 9.49321 23.0727 3.92207
751 1 -1.1104 9.49756 28.6541 3.92285
902 1 -1.1104 12.2874 28.6579 6.71293
780 2 2.2208 2.53631 38.4231 -0.258667
867 2 2.2208 10.9 41.2243 -0.259184
778 2 2.2208 -0.257706 35.6329 5.31676
754 2 2.2208 5.32112 35.6326 5.31812
755 1 -1.1104 1.13032 31.4441 1.13261
756 1 -1.1104 1.13708 37.0253 1.13309
757 1 -1.1104 1.13051 31.4449 3.92255
758 1 -1.1104 1.13749 37.0261 3.92358
759 1 -1.1104 1.13354 34.235 1.13372
760 2 2.2208 5.31711 32.8409 2.52856
761 2 2.2208 5.3262 38.4253 2.53036
762 1 -1.1104 1.13332 34.2353 3.9222
763 1 -1.1104 3.92027 31.4434 1.13348
764 1 -1.1104 3.92677 37.0253 1.13527
765 2 2.2208 2.53208 35.6322 2.5287
766 1 -1.1104 3.92007 31.4437 3.9222
767 1 -1.1104 3.92679 37.0246 3.9226
768 2 2.2208 2.52765 32.8416 5.31719
769 2 2.2208 2.53917 38.4236 5.31748
770 1 -1.1104 3.92281 34.2339 1.13342
771 1 -1.1104 3.92319 34.2342 3.92345
930 1 -1.1104 1.13694 37.0259 6.7114
779 2 2.2208 -0.261987 32.8417 2.52764
772 1 -1.1104 3.92669 37.0239 6.7134
777 2 2.2208 -0.251265 38.4226 2.52757
929 1 -1.1104 3.91998 31.444 6.71208
787 1 -1.1104 6.7157 37.0248 1.13443
785 1 -1.1104 6.71016 31.4434 3.92301
776 1 -1.1104 1.12971 31.4459 6.71158
990 2 2.2208 -0.24379 41.2137 10.893
950 1 -1.1104 9.42236 48.0667 6.72305
959 1 -1.1104 6.71582 37.0224 6.71237
782 1 -1.1104 6.71267 34.2334 3.9228
784 1 -1.1104 6.71273 34.2339 1.13466
788 1 -1.1104 6.71608 37.0239 3.92452
783 1 -1.1104 6.70961 31.443 1.13307
789 2 2.2208 10.8978 35.6356 5.3192
790 1 -1.1104 12.2887 31.4447 1.13285
791 1 -1.1104 12.2937 37.0253 1.13408
792 1 -1.1104 12.2897 31.4459 3.92372