ITEM: TIMESTEP
283
ITEM: NUMBER OF ATOMS
17656
ITEM: BOX BOUNDS pp pp pp
-2.7717828229332220e-01 2.7617178282293317e+01
-3.4472205766305355e+00 3.3152722057663055e+02
-2.7717827830221448e-01 2.7617178278302212e+01
ITEM: ATOMS id type q x y z
1 2 2.2208 5.29471 2.13955 5.30885
2 1 -1.1104 1.10619 -2.04933 1.12457
3 1 -1.1104 1.11191 3.5337 1.12431
4 1 -1.1104 1.10627 -2.04926 3.91464
5 1 -1.1104 1.11191 3.53381 3.91442
6 1 -1.1104 1.10901 0.742226 1.12503
7 2 2.2208 5.2918 -0.652053 2.51951
8 2 2.2208 5.29754 4.93098 2.51936
9 1 -1.1104 1.10908 0.74227 3.9139
10 1 -1.1104 3.89558 -2.0493 1.12516
11 1 -1.1104 3.90137 3.5337 1.12498
12 2 2.2208 2.50519 2.13948 2.51943
13 1 -1.1104 3.89574 -2.04929 3.91404
14 1 -1.1104 3.90134 3.53377 3.91381
15 2 2.2208 2.50246 -0.652022 5.30901
16 2 2.2208 2.50808 4.93109 5.30885
17 1 -1.1104 3.89846 0.742204 1.12443
18 1 -1.1104 3.89852 0.74226 3.9145
20 1 -1.1104 1.11199 3.53388 6.70329
172 1 -1.1104 1.10919 0.742322 6.70397
21 1 -1.1104 6.68516 -2.04929 3.91452
318 2 2.2208 10.8927 21.6813 8.09943
19 1 -1.1104 3.89866 0.742308 6.70334
173 1 -1.1104 3.90144 3.53389 6.70385
25 1 -1.1104 1.10641 -2.04927 6.70351
30 1 -1.1104 6.68506 -2.04931 1.12447
29 1 -1.1104 6.68799 0.742271 3.91384
22 1 -1.1104 6.69082 3.53371 1.12427
59 1 -1.1104 6.68809 0.742311 6.7039
693 2 2.2208 8.09553 13.3065 13.6772
26 1 -1.1104 3.89583 -2.04927 6.70408
31 1 -1.1104 6.6879 0.742193 1.125
32 1 -1.1104 6.69083 3.5338 3.91437
33 2 2.2208 10.8736 2.13964 5.30874
34 1 -1.1104 12.264 -2.04928 1.1243
35 1 -1.1104 12.2697 3.53389 1.12424
36 1 -1.1104 12.2641 -2.04923 3.91435
37 1 -1.1104 12.2698 3.53396 3.91433
38 1 -1.1104 12.2668 0.742318 1.12488
39 2 2.2208 10.8707 -0.651968 2.51934
40 2 2.2208 10.8765 4.93115 2.5193
41 1 -1.1104 12.2669 0.742358 3.91371
42 1 -1.1104 9.47452 -2.04926 1.12499
43 1 -1.1104 9.48029 3.53385 1.12488
44 2 2.2208 8.08413 2.13953 2.51935
45 1 -1.1104 9.47461 -2.04924 3.91383
46 1 -1.1104 9.4803 3.53388 3.91372
47 2 2.2208 8.08135 -0.651983 5.30886
48 2 2.2208 8.08701 4.93115 5.30877
49 1 -1.1104 9.47737 0.742309 1.12431
50 1 -1.1104 9.47745 0.742324 3.91437
55 1 -1.1104 6.6853 -2.04928 6.70336
56 1 -1.1104 6.69089 3.5339 6.70318
51 1 -1.1104 12.2698 3.53399 6.70315
57 1 -1.1104 9.47754 0.74237 6.70318
58 1 -1.1104 12.2641 -2.04924 6.70321
52 1 -1.1104 12.267 0.742385 6.70376
200 1 -1.1104 9.48036 3.53397 6.70379
117 1 -1.1104 12.2861 20.2862 12.2828
325 1 -1.1104 6.70195 14.7003 9.49365
80 2 2.2208 -0.273227 13.3056 5.30917
62 2 2.2208 5.30036 7.72262 5.30884
63 2 2.2208 5.30577 13.3055 5.3091
64 1 -1.1104 1.1176 9.11656 1.12438
65 1 -1.1104 1.11756 9.11675 3.9145
66 1 -1.1104 1.1148 6.32515 1.12494
67 1 -1.1104 1.12034 11.9079 1.12505
68 2 2.2208 5.30318 10.5138 2.51946
69 1 -1.1104 1.11474 6.32531 3.91382
70 1 -1.1104 1.12019 11.9082 3.91405
71 1 -1.1104 3.90713 9.1165 1.12493
72 2 2.2208 2.51093 7.72244 2.5194
73 2 2.2208 2.51633 13.3051 2.51959
74 1 -1.1104 3.90699 9.11673 3.91384
75 2 2.2208 2.51362 10.5141 5.30899
76 1 -1.1104 3.90426 6.32516 1.1243
77 1 -1.1104 3.90979 11.9078 1.12442
78 1 -1.1104 3.90423 6.32527 3.91439
79 1 -1.1104 3.90976 11.9081 3.91454
231 1 -1.1104 1.12021 11.9085 6.70409
226 1 -1.1104 1.11477 6.32546 6.70388
86 1 -1.1104 3.90701 9.11694 6.70391
82 1 -1.1104 3.90961 11.9084 6.70347
87 1 -1.1104 1.11747 9.11698 6.7034
85 2 2.2208 -0.275794 10.5139 2.5195
116 1 -1.1104 12.281 14.7011 9.49371
113 1 -1.1104 6.69924 11.9085 6.70404
93 1 -1.1104 6.69658 9.11663 1.12433
91 1 -1.1104 6.69918 11.9081 3.91399
90 1 -1.1104 6.69376 6.32518 1.12493
83 1 -1.1104 6.69366 6.32528 3.91375
89 1 -1.1104 6.69935 11.9079 1.12508
92 1 -1.1104 6.69654 9.11673 3.91446
94 2 2.2208 10.8793 7.72279 5.30885
95 2 2.2208 10.8848 13.3059 5.30914
96 1 -1.1104 12.2755 9.11694 1.12437
97 1 -1.1104 12.2755 9.11704 3.91451
98 1 -1.1104 12.2726 6.32544 1.12491
99 1 -1.1104 12.2783 11.9083 1.12508
100 2 2.2208 10.8821 10.5141 2.51949
101 1 -1.1104 12.2726 6.3255 3.91376
102 1 -1.1104 12.2781 11.9085 3.91402
103 1 -1.1104 9.48606 9.11675 1.12499
104 2 2.2208 8.08986 7.72253 2.51937
105 2 2.2208 8.09536 13.3053 2.51961
106 1 -1.1104 9.48595 9.11688 3.91385
107 2 2.2208 8.0926 10.5142 5.30896
108 1 -1.1104 9.4832 6.32532 1.12425
109 1 -1.1104 9.48882 11.9082 1.12446
110 1 -1.1104 9.48318 6.3254 3.91437
111 1 -1.1104 9.48877 11.9083 3.91463
258 1 -1.1104 6.69644 9.11699 6.7033
254 1 -1.1104 12.2727 6.32565 6.70385
256 1 -1.1104 9.48601 9.11711 6.70392
114 1 -1.1104 12.2782 11.9089 6.70414
119 2 2.2208 -0.265688 21.679 2.52031
120 2 2.2208 5.31092 18.888 5.30954
121 1 -1.1104 1.12286 14.6991 1.12464
122 1 -1.1104 1.12778 20.2814 1.12512
123 1 -1.1104 1.12287 14.6995 3.91471
124 1 -1.1104 1.12784 20.2818 3.91517
125 1 -1.1104 1.12541 17.4903 1.12537
126 2 2.2208 5.30841 16.0964 2.51975
127 2 2.2208 5.31349 21.6784 2.52026
128 1 -1.1104 1.12518 17.4907 3.91446
129 1 -1.1104 3.91246 14.699 1.12517
130 1 -1.1104 3.91746 20.2811 1.12557
131 2 2.2208 2.52136 18.8875 2.52002
132 1 -1.1104 3.91226 14.6994 3.91416
133 1 -1.1104 3.91726 20.2815 3.91465
134 2 2.2208 2.51879 16.0968 5.30931
135 2 2.2208 2.52385 21.6791 5.30982
136 1 -1.1104 3.91487 17.4902 1.1248
137 1 -1.1104 3.9149 17.4905 3.91491
284 1 -1.1104 1.12268 14.6999 6.70372
146 1 -1.1104 6.70452 17.4902 1.12534
290 1 -1.1104 1.12531 17.4913 6.70444
291 1 -1.1104 1.12758 20.2826 6.70425
139 1 -1.1104 3.91236 14.6998 6.7042
138 1 -1.1104 3.91471 17.4911 6.70389
285 1 -1.1104 3.91747 20.2822 6.70472
149 1 -1.1104 6.70193 14.6992 1.12457
148 1 -1.1104 6.70435 17.4906 3.91435
169 1 -1.1104 6.7018 14.6999 6.70364
141 1 -1.1104 6.70709 20.2816 3.91519
140 1 -1.1104 6.70194 14.6994 3.91474
147 1 -1.1104 6.70695 20.2812 1.12496
150 2 2.2208 10.89 18.8887 5.30961
151 1 -1.1104 12.2809 14.6997 1.12457
152 1 -1.1104 12.286 20.2821 1.12494
153 1 -1.1104 12.2809 14.7 3.91479
154 1 -1.1104 12.2862 20.2826 3.91536
155 1 -1.1104 12.2836 17.491 1.12534
156 2 2.2208 10.8875 16.0969 2.51977
157 2 2.2208 10.8926 21.6792 2.52031
158 1 -1.1104 12.2834 17.4913 3.91437
159 1 -1.1104 9.49152 14.6994 1.1252
160 1 -1.1104 9.49662 20.2816 1.12559
161 2 2.2208 8.10053 18.8877 2.51997
162 1 -1.1104 9.49133 14.6997 3.91416
163 1 -1.1104 9.49649 20.282 3.9146
164 2 2.2208 8.09793 16.097 5.30931
165 2 2.2208 8.10316 21.6793 5.30986
166 1 -1.1104 9.49399 17.4906 1.12473
167 1 -1.1104 9.49407 17.4909 3.91501
322 1 -1.1104 9.49148 14.7001 6.70428
88 1 -1.1104 12.286 20.2836 6.70428
142 1 -1.1104 6.70691 20.2823 6.70413
144 1 -1.1104 6.70453 17.4912 6.70448
170 1 -1.1104 9.49391 17.4915 6.70389
320 1 -1.1104 9.49677 20.2829 6.70488
118 2 2.2208 -0.268268 18.8884 5.30961
316 1 -1.1104 12.2863 20.285 9.49438
143 2 2.2208 -0.270647 16.0966 2.51982
28 2 2.2208 10.868 -3.44355 5.30886
176 2 2.2208 5.29485 2.13961 10.8877
177 1 -1.1104 1.10636 -2.04926 12.2824
178 1 -1.1104 1.11206 3.534 12.2821
179 1 -1.1104 1.1064 -2.04926 9.49355
180 1 -1.1104 1.11207 3.53395 9.4933
181 1 -1.1104 1.1092 0.742341 12.2828
182 2 2.2208 5.29202 -0.652009 8.09837
183 2 2.2208 5.29762 4.93119 8.0982
184 1 -1.1104 1.10925 0.742333 9.49282
185 1 -1.1104 3.89582 -2.04928 12.2829
186 1 -1.1104 3.90153 3.53397 12.2826
187 2 2.2208 2.50537 2.13959 8.09833
188 1 -1.1104 3.8959 -2.04928 9.49291
189 1 -1.1104 3.90153 3.53393 9.49265
190 2 2.2208 2.50256 -0.651999 10.8879
191 2 2.2208 2.5082 4.93124 10.8877
192 1 -1.1104 3.8987 0.742361 12.2822
193 1 -1.1104 3.89871 0.742283 9.49338
681 2 2.2208 5.2977 4.93125 13.677
202 1 -1.1104 6.68531 -2.04926 9.49343
253 1 -1.1104 9.4916 14.7011 12.283
319 1 -1.1104 12.281 14.7016 12.2823
288 1 -1.1104 9.4966 20.284 9.49358
680 2 2.2208 2.50537 2.13963 13.6771
282 2 2.2208 10.8902 18.8905 10.8884
53 1 -1.1104 9.47468 -2.04924 6.70388
324 1 -1.1104 9.4942 17.4924 9.49394
227 2 2.2208 5.2891 -3.4436 5.30907
229 2 2.2208 2.49952 -3.44358 2.51968
199 1 -1.1104 6.68533 -2.04927 12.2823
204 1 -1.1104 6.69099 3.53395 9.4932
203 1 -1.1104 6.69102 3.53396 12.282
201 1 -1.1104 6.68819 0.74234 9.4927
194 1 -1.1104 6.68813 0.742336 12.2827
205 2 2.2208 10.8737 2.13966 10.8876
206 1 -1.1104 12.2642 -2.04935 12.2821
207 1 -1.1104 12.2699 3.53407 12.282
208 1 -1.1104 12.2641 -2.0493 9.4933
209 1 -1.1104 12.2699 3.53407 9.49322
210 1 -1.1104 12.267 0.742336 12.2826
211 2 2.2208 10.8708 -0.651972 8.09821
212 2 2.2208 10.8765 4.93131 8.0982
213 1 -1.1104 12.267 0.742378 9.49259
214 1 -1.1104 9.47474 -2.04933 12.2828
215 1 -1.1104 9.48045 3.53403 12.2826
216 2 2.2208 8.08427 2.13962 8.09821
217 1 -1.1104 9.47477 -2.04927 9.49272
218 1 -1.1104 9.48046 3.53398 9.49258
219 2 2.2208 8.08147 -0.652003 10.8877
220 2 2.2208 8.08716 4.93128 10.8876
221 1 -1.1104 9.47759 0.742351 12.282
222 1 -1.1104 9.47759 0.742342 9.49324
61 2 2.2208 5.2892 -3.4436 10.888
312 1 -1.1104 12.2837 17.4938 12.2832
171 1 -1.1104 6.70719 20.284 12.2828
81 1 -1.1104 3.90421 6.32543 6.70324
691 2 2.2208 5.30331 10.5146 13.6771
232 2 2.2208 5.30048 7.72287 10.8876
233 2 2.2208 5.30588 13.3061 10.8879
234 1 -1.1104 1.11761 9.11732 12.2822
235 1 -1.1104 1.11761 9.11719 9.49337
236 1 -1.1104 1.11488 6.32565 12.2826
237 1 -1.1104 1.12035 11.909 12.2829
238 2 2.2208 5.30311 10.5143 8.09838
239 1 -1.1104 1.11484 6.32557 9.4927
240 1 -1.1104 1.12014 11.9088 9.49296
241 1 -1.1104 3.90716 9.11723 12.2827
242 2 2.2208 2.51092 7.72277 8.09832
243 2 2.2208 2.51624 13.3059 8.09857
244 1 -1.1104 3.90705 9.11714 9.49273
245 2 2.2208 2.51369 10.5145 10.8878
246 1 -1.1104 3.90435 6.3256 12.282
247 1 -1.1104 3.90982 11.9089 12.2822
248 1 -1.1104 3.90435 6.32553 9.49323
249 1 -1.1104 3.90973 11.9087 9.49343
261 1 -1.1104 6.69941 11.909 12.2828
260 1 -1.1104 6.69387 6.3256 12.2826
259 1 -1.1104 6.6992 11.9088 9.49282
685 2 2.2208 2.51103 7.72291 13.677
686 2 2.2208 2.5165 13.3063 13.6772
228 2 2.2208 -0.273163 13.3063 10.888
230 2 2.2208 -0.275855 10.5144 8.09845
315 1 -1.1104 9.49418 17.493 12.2825
687 2 2.2208 -0.275712 10.5147 13.6772
287 1 -1.1104 9.49694 20.285 12.2835
112 1 -1.1104 9.48318 6.32551 6.70317
257 1 -1.1104 9.48865 11.9086 6.70345
255 1 -1.1104 12.2754 9.11727 6.70334
250 1 -1.1104 6.69658 9.11719 9.4933
694 2 2.2208 8.09002 7.72299 13.677
262 1 -1.1104 6.69663 9.11726 12.282
84 1 -1.1104 6.69373 6.32547 6.70378
263 1 -1.1104 6.69381 6.32554 9.49257
264 1 -1.1104 9.4888 11.909 9.49348
265 1 -1.1104 9.48331 6.32566 9.49319
266 1 -1.1104 9.48885 11.9092 12.2822
267 1 -1.1104 9.48334 6.32573 12.282
268 2 2.2208 8.0927 10.5146 10.8877
269 1 -1.1104 9.48601 9.11731 9.49268
270 2 2.2208 8.0953 13.306 8.09854
271 2 2.2208 8.08988 7.72284 8.09824
272 2 2.2208 10.8794 7.72309 10.8876
273 2 2.2208 10.8849 13.3067 10.8879
274 1 -1.1104 12.2755 9.11765 12.2821
275 1 -1.1104 12.2755 9.11754 9.49337
276 1 -1.1104 12.2728 6.32584 12.2826
277 1 -1.1104 12.2783 11.9096 12.2829
278 2 2.2208 10.8821 10.5146 8.0984
279 1 -1.1104 12.2727 6.32578 9.49263
280 1 -1.1104 12.2781 11.9093 9.49289
281 1 -1.1104 9.48615 9.11747 12.2827
690 2 2.2208 10.8822 10.5149 13.6771
289 2 2.2208 -0.265811 21.6806 8.09928
54 2 2.2208 -0.268188 18.8897 10.8884
311 1 -1.1104 6.70725 20.2833 9.4942
696 2 2.2208 -0.265846 21.6817 13.6778
695 2 2.2208 2.52155 18.8896 13.6776
292 1 -1.1104 3.91228 14.7002 9.49305
293 1 -1.1104 1.12549 17.4924 12.2831
294 2 2.2208 2.51893 16.0978 10.8881
295 2 2.2208 2.52386 21.6808 10.8886
296 1 -1.1104 3.91502 17.4921 12.2826
297 1 -1.1104 3.91758 20.2837 12.2834
298 1 -1.1104 3.91252 14.7005 12.2829
299 1 -1.1104 1.12784 20.2834 9.49407
300 1 -1.1104 1.1252 17.4919 9.49336
301 2 2.2208 5.31356 21.6799 8.09927
302 1 -1.1104 1.12286 14.7004 9.49363
303 2 2.2208 5.30839 16.0973 8.09874
304 1 -1.1104 1.12773 20.284 12.2829
305 1 -1.1104 1.12291 14.7007 12.2824
306 2 2.2208 5.31108 18.8893 10.8883
307 1 -1.1104 3.91732 20.283 9.49358
308 2 2.2208 2.52134 18.8887 8.09899
309 1 -1.1104 3.91499 17.4917 9.49383
286 2 2.2208 -0.270726 16.0976 8.09882
697 2 2.2208 5.30865 16.0979 13.6774
698 2 2.2208 -0.270475 16.0982 13.6774
699 2 2.2208 5.31366 21.6812 13.6778
252 1 -1.1104 6.70474 17.4923 12.2831
678 2 2.2208 8.1008 18.8901 13.6776
700 2 2.2208 10.8928 21.6832 13.6778
314 1 -1.1104 12.2835 17.493 9.49332
323 1 -1.1104 9.49136 14.7007 9.49303
168 1 -1.1104 12.2836 17.4921 6.70459
321 1 -1.1104 12.2808 14.7005 6.70366
689 2 2.2208 10.8877 16.0988 13.6774
313 2 2.2208 10.8875 16.0979 8.09878
145 1 -1.1104 6.70444 17.4918 9.49324
310 1 -1.1104 6.702 14.7006 12.2823
198 2 2.2208 8.10058 18.889 8.09901
283 2 2.2208 8.10329 21.6814 10.8886
317 2 2.2208 8.09806 16.098 10.8881
223 2 2.2208 13.663 2.13962 2.5193
60 2 2.2208 13.6602 -0.651937 5.30875
224 2 2.2208 13.6659 4.9313 5.30878
175 2 2.2208 13.6687 7.72277 2.51941
196 2 2.2208 13.666 4.93144 10.8876
174 2 2.2208 13.6631 2.13971 8.09818
225 2 2.2208 8.07842 -3.44357 2.5195
115 2 2.2208 13.6603 -0.652009 10.8876
27 2 2.2208 13.6688 7.7231 8.09831
677 2 2.2208 13.6689 7.72326 13.677
195 2 2.2208 10.868 -3.44366 10.8878
197 2 2.2208 2.49973 -3.44358 8.09857
23 2 2.2208 13.6574 -3.44362 8.09828
251 2 2.2208 8.07861 -3.44359 8.09841
679 2 2.2208 2.49967 -3.44359 13.6774
24 2 2.2208 13.6573 -3.44357 2.51937
330 2 2.2208 10.8736 2.13957 -0.270148
332 2 2.2208 8.08118 -0.65203 -0.270042
326 2 2.2208 13.6601 -0.652001 -0.270155
343 2 2.2208 10.8678 -3.4436 -0.27004
350 2 2.2208 5.29478 2.13961 16.4665
351 1 -1.1104 1.10623 -2.0493 17.8611
352 1 -1.1104 1.11203 3.53393 17.8608
353 1 -1.1104 1.10625 -2.04927 15.0723
354 1 -1.1104 1.11201 3.53398 15.072
355 1 -1.1104 1.10907 0.742302 17.8616
356 2 2.2208 5.29181 -0.652021 19.256
357 2 2.2208 5.29769 4.93118 19.2558
358 1 -1.1104 1.10914 0.742368 15.0716
359 1 -1.1104 3.89565 -2.0493 17.8617
360 1 -1.1104 3.90145 3.53393 17.8614
361 2 2.2208 2.50528 2.13958 19.2559
362 1 -1.1104 3.89578 -2.04926 15.0717
363 1 -1.1104 3.90153 3.53395 15.0714
364 2 2.2208 2.50243 -0.651999 16.4666
365 2 2.2208 2.50821 4.93124 16.4664
366 1 -1.1104 3.89858 0.74233 17.861
367 1 -1.1104 3.89859 0.742321 15.0722
668 1 -1.1104 6.70224 14.6995 23.4398
379 1 -1.1104 3.89849 0.742259 20.651
377 1 -1.1104 3.8956 -2.04932 20.6505
378 1 -1.1104 1.112 3.53383 20.6509
411 1 -1.1104 6.68504 -2.0493 20.6511
349 2 2.2208 10.8901 18.888 27.6247
371 2 2.2208 13.6573 -3.44367 24.8349
342 2 2.2208 -0.273056 13.3051 27.6244
375 1 -1.1104 3.90149 3.53383 20.6502
376 1 -1.1104 1.10909 0.742234 20.6503
370 1 -1.1104 1.10612 -2.04937 20.6511
465 1 -1.1104 12.281 14.6998 26.2299
666 1 -1.1104 9.49411 17.4907 26.2301
673 1 -1.1104 9.49668 20.2823 23.4406
372 1 -1.1104 6.69096 3.53395 15.072
387 1 -1.1104 6.69092 3.53395 17.8608
386 1 -1.1104 6.68516 -2.0493 17.8611
384 1 -1.1104 6.68808 0.742332 15.0715
385 1 -1.1104 6.68522 -2.04932 15.0723
383 1 -1.1104 6.68799 0.742302 17.8615
388 2 2.2208 10.8736 2.13966 16.4664
389 1 -1.1104 12.2641 -2.04936 17.861
390 1 -1.1104 12.2698 3.53406 17.8608
391 1 -1.1104 12.2641 -2.04936 15.0722
392 1 -1.1104 12.2698 3.5341 15.072
393 1 -1.1104 12.2669 0.742317 17.8615
394 2 2.2208 10.8707 -0.652057 19.256
395 2 2.2208 10.8765 4.93126 19.2558
396 1 -1.1104 12.2669 0.74238 15.0715
397 1 -1.1104 9.47459 -2.04933 17.8616
398 1 -1.1104 9.48032 3.53397 17.8614
399 2 2.2208 8.08417 2.13958 19.2559
400 1 -1.1104 9.47472 -2.04931 15.0716
401 1 -1.1104 9.48043 3.53403 15.0713
402 2 2.2208 8.08136 -0.652012 16.4666
403 2 2.2208 8.08713 4.93127 16.4664
404 1 -1.1104 9.47746 0.74234 17.8609
405 1 -1.1104 9.47747 0.74234 15.0721
410 1 -1.1104 9.47454 -2.04934 20.6505
406 1 -1.1104 12.264 -2.04941 20.651
407 1 -1.1104 12.2698 3.53391 20.6508
548 1 -1.1104 9.48037 3.53389 20.6502
413 1 -1.1104 9.47739 0.742242 20.6509
665 1 -1.1104 12.2836 17.4915 23.4404
380 1 -1.1104 6.6909 3.53387 20.6509
631 1 -1.1104 12.2861 20.2822 26.2302
549 1 -1.1104 12.2836 17.4911 26.2294
374 2 2.2208 -0.265551 21.6789 24.8354
415 2 2.2208 5.30058 7.72286 16.4663
416 2 2.2208 5.30614 13.3061 16.4665
417 1 -1.1104 1.11775 9.11717 17.8608
418 1 -1.1104 1.11768 9.1173 15.072
419 1 -1.1104 1.1149 6.32555 17.8614
420 1 -1.1104 1.12051 11.9088 17.8615
421 2 2.2208 5.30345 10.5143 19.2558
422 1 -1.1104 1.11489 6.32564 15.0714
423 1 -1.1104 1.12044 11.909 15.0716
424 1 -1.1104 3.90725 9.11712 17.8614
425 2 2.2208 2.51111 7.72273 19.2557
426 2 2.2208 2.51666 13.3058 19.2559
427 1 -1.1104 3.9072 9.11721 15.0714
428 2 2.2208 2.51388 10.5145 16.4664
429 1 -1.1104 3.90442 6.32553 17.8607
430 1 -1.1104 3.91008 11.9087 17.8608
431 1 -1.1104 3.90437 6.32557 15.072
432 1 -1.1104 3.91 11.9089 15.0721
579 1 -1.1104 1.11775 9.11688 20.6508
580 1 -1.1104 3.9044 6.32538 20.6508
581 1 -1.1104 1.12059 11.9084 20.6503
578 1 -1.1104 1.11496 6.32539 20.6502
434 1 -1.1104 3.91007 11.9084 20.6508
435 1 -1.1104 3.90733 9.11687 20.6501
433 2 2.2208 -0.272927 13.3063 16.4666
524 2 2.2208 -0.27559 10.5144 19.2559
658 1 -1.1104 6.70461 17.4904 26.2295
440 1 -1.1104 6.69677 9.11716 17.8607
436 1 -1.1104 6.69679 9.11698 20.6508
441 1 -1.1104 6.69672 9.1173 15.072
463 1 -1.1104 6.69963 11.9085 20.6502
442 1 -1.1104 6.69952 11.909 15.0715
439 1 -1.1104 6.69955 11.9088 17.8614
443 1 -1.1104 6.69389 6.32556 17.8614
438 1 -1.1104 6.69386 6.32561 15.0713
444 2 2.2208 10.8795 7.7231 16.4664
445 2 2.2208 10.8851 13.3067 16.4665
446 1 -1.1104 12.2757 9.11756 17.8608
447 1 -1.1104 12.2756 9.11769 15.0721
448 1 -1.1104 12.2727 6.32579 17.8614
449 1 -1.1104 12.2784 11.9094 17.8615
450 2 2.2208 10.8823 10.5146 19.2558
451 1 -1.1104 12.2727 6.32586 15.0714
452 1 -1.1104 12.2784 11.9096 15.0715
453 1 -1.1104 9.48621 9.11735 17.8614
454 2 2.2208 8.09008 7.72283 19.2558
455 2 2.2208 8.09569 13.3061 19.2559
456 1 -1.1104 9.48619 9.11746 15.0714
457 2 2.2208 8.09289 10.5146 16.4664
458 1 -1.1104 9.48335 6.32564 17.8607
459 1 -1.1104 9.48906 11.9091 17.8608
460 1 -1.1104 9.48331 6.32573 15.072
461 1 -1.1104 9.48899 11.9093 15.0721
603 1 -1.1104 9.48624 9.11712 20.6502
464 1 -1.1104 12.2785 11.909 20.6502
462 1 -1.1104 12.2756 9.11725 20.6508
604 1 -1.1104 12.2727 6.32558 20.6502
437 1 -1.1104 6.69391 6.32543 20.6502
466 1 -1.1104 9.48902 11.9087 20.6509
487 2 2.2208 -0.270281 16.0975 19.2561
468 2 2.2208 5.31127 18.8894 16.4668
469 1 -1.1104 1.12322 14.7004 17.861
470 1 -1.1104 1.12806 20.2835 17.8614
471 1 -1.1104 1.12308 14.7007 15.0722
472 1 -1.1104 1.12784 20.284 15.0725
473 1 -1.1104 1.12563 17.492 17.8617
474 2 2.2208 5.30882 16.0974 19.256
475 2 2.2208 5.31365 21.6801 19.2563
476 1 -1.1104 1.12559 17.4924 15.072
477 1 -1.1104 3.91271 14.7002 17.8616
478 1 -1.1104 3.91759 20.2832 17.8618
479 2 2.2208 2.52169 18.8888 19.2562
480 1 -1.1104 3.91265 14.7005 15.0717
481 1 -1.1104 3.91759 20.2837 15.072
482 2 2.2208 2.5192 16.0978 16.4667
483 2 2.2208 2.52392 21.6809 16.467
484 1 -1.1104 3.91531 17.4918 17.8611
485 1 -1.1104 3.91519 17.4922 15.0724
639 1 -1.1104 3.91279 14.6998 20.6504
638 1 -1.1104 3.91524 17.4912 20.6511
486 1 -1.1104 3.9177 20.2825 20.6507
634 1 -1.1104 1.12318 14.6998 20.651
409 2 2.2208 -0.267962 18.8897 16.4669
493 1 -1.1104 6.70483 17.492 17.8617
494 1 -1.1104 6.70227 14.6999 20.6509
488 1 -1.1104 1.12795 20.2827 20.6512
467 2 2.2208 -0.265663 21.6806 19.2563
490 1 -1.1104 6.70729 20.2841 15.0727
514 1 -1.1104 12.2862 20.2841 20.6509
492 1 -1.1104 6.70737 20.2835 17.8612
495 1 -1.1104 6.70482 17.4924 15.0718
515 1 -1.1104 6.70718 20.2826 20.6512
518 1 -1.1104 9.49694 20.2833 20.6504
491 1 -1.1104 6.70231 14.7004 17.8609
489 1 -1.1104 6.70221 14.7007 15.0723
496 2 2.2208 10.8903 18.8907 16.4667
497 1 -1.1104 12.2812 14.7013 17.8608
498 1 -1.1104 12.2864 20.2855 17.861
499 1 -1.1104 12.2811 14.7017 15.0722
500 1 -1.1104 12.2863 20.2864 15.0726
501 1 -1.1104 12.2838 17.4933 17.8616
502 2 2.2208 10.8878 16.0981 19.2559
503 2 2.2208 10.8928 21.6817 19.2561
504 1 -1.1104 12.2838 17.4939 15.0717
505 1 -1.1104 9.49173 14.7008 17.8615
506 1 -1.1104 9.49685 20.2844 17.8618
507 2 2.2208 8.10086 18.8892 19.2561
508 1 -1.1104 9.49171 14.7011 15.0716
509 1 -1.1104 9.49692 20.2851 15.0719
510 2 2.2208 8.0983 16.0981 16.4666
511 2 2.2208 8.10332 21.6816 16.467
512 1 -1.1104 9.49446 17.4926 17.861
513 1 -1.1104 9.49434 17.4931 15.0724
516 1 -1.1104 6.70492 17.4914 20.6504
382 1 -1.1104 9.49432 17.4918 20.651
519 1 -1.1104 9.49182 14.7003 20.6503
517 1 -1.1104 12.2811 14.7007 20.6509
574 1 -1.1104 12.2839 17.4924 20.6502
672 2 2.2208 10.8926 21.6795 24.8352
674 2 2.2208 8.10321 21.6797 22.0457
381 2 2.2208 8.10069 18.8879 24.8351
327 2 2.2208 2.5023 -0.652065 27.6244
525 2 2.2208 5.29471 2.13953 22.0453
526 1 -1.1104 1.10611 -2.04934 23.4399
527 1 -1.1104 1.11202 3.53373 23.4397
528 1 -1.1104 1.1061 -2.04933 26.2301
529 1 -1.1104 1.11195 3.53366 26.2298
530 1 -1.1104 1.10903 0.742214 23.4404
531 2 2.2208 5.29173 -0.652046 24.8349
532 1 -1.1104 1.10899 0.742164 26.2293
533 1 -1.1104 3.89552 -2.0493 23.4406
534 1 -1.1104 3.90144 3.53374 23.4404
535 2 2.2208 2.50522 2.13944 24.8348
536 1 -1.1104 3.89557 -2.04931 26.2294
537 1 -1.1104 3.90141 3.53369 26.2292
538 2 2.2208 2.50231 -0.652067 22.0455
539 2 2.2208 2.50822 4.93104 22.0453
540 1 -1.1104 3.8985 0.74224 23.4398
541 1 -1.1104 3.89842 0.74221 26.2299
542 2 2.2208 5.29765 4.93097 24.8348
520 2 2.2208 10.8903 18.889 22.0454
551 1 -1.1104 6.69085 3.53374 26.2298
546 1 -1.1104 6.68789 0.742263 23.4404
344 2 2.2208 5.29464 2.13946 27.6243
554 1 -1.1104 6.68501 -2.0493 23.4399
545 1 -1.1104 6.68789 0.742244 26.2293
345 2 2.2208 2.50812 4.93091 27.6243
661 2 2.2208 8.09831 16.0971 22.0454
373 1 -1.1104 6.68798 0.7423 20.6504
412 1 -1.1104 12.2669 0.742266 20.6503
553 1 -1.1104 6.68498 -2.0493 26.23
600 2 2.2208 10.868 -3.44369 16.4667
555 1 -1.1104 6.69092 3.53381 23.4397
556 2 2.2208 10.8736 2.13955 22.0453
557 1 -1.1104 12.2639 -2.04937 23.4398
558 1 -1.1104 12.2698 3.53384 23.4396
559 1 -1.1104 12.2639 -2.04934 26.2298
560 1 -1.1104 12.2697 3.53387 26.2297
561 1 -1.1104 12.2668 0.742234 23.4404
562 2 2.2208 10.8706 -0.652057 24.8348
563 2 2.2208 10.8765 4.93113 24.8347
564 1 -1.1104 12.2668 0.742277 26.2292
565 1 -1.1104 9.47444 -2.04937 23.4405
566 1 -1.1104 9.48033 3.53385 23.4403
567 2 2.2208 8.0841 2.13953 24.8348
568 1 -1.1104 9.47445 -2.0493 26.2293
569 1 -1.1104 9.48031 3.53383 26.2291
570 2 2.2208 8.08119 -0.652054 22.0454
571 2 2.2208 8.08712 4.93111 22.0453
572 1 -1.1104 9.47735 0.742258 23.4398
573 1 -1.1104 9.47733 0.74227 26.2299
660 2 2.2208 10.8877 16.097 24.8349
633 1 -1.1104 12.2812 14.7001 23.4397
667 1 -1.1104 9.49663 20.2818 26.2296
331 2 2.2208 8.08704 4.93103 27.6242
601 2 2.2208 -0.27561 10.5138 24.8348
659 1 -1.1104 6.70724 20.2819 23.4401
335 2 2.2208 2.5138 10.5137 27.6243
334 2 2.2208 5.3005 7.72238 27.6242
582 2 2.2208 5.30063 7.72257 22.0452
583 2 2.2208 5.30617 13.3055 22.0453
584 1 -1.1104 1.11782 9.11664 23.4396
585 1 -1.1104 1.11773 9.11644 26.2298
586 1 -1.1104 1.11492 6.32521 23.4403
587 1 -1.1104 1.12051 11.908 23.4403
588 2 2.2208 5.30339 10.5138 24.8347
589 1 -1.1104 1.11487 6.32511 26.2292
590 1 -1.1104 1.12043 11.9078 26.2293
591 1 -1.1104 3.90728 9.11664 23.4402
592 2 2.2208 2.5111 7.72237 24.8347
593 2 2.2208 2.51656 13.3051 24.8348
594 1 -1.1104 3.90722 9.11651 26.2291
595 2 2.2208 2.51395 10.514 22.0452
596 1 -1.1104 3.90443 6.32522 23.4396
597 1 -1.1104 3.91007 11.908 23.4397
598 1 -1.1104 3.90435 6.32512 26.2298
599 1 -1.1104 3.90994 11.9078 26.2298
610 1 -1.1104 6.69382 6.32523 26.2292
333 2 2.2208 5.30594 13.305 27.6244
607 1 -1.1104 6.69678 9.11675 23.4396
408 2 2.2208 -0.272879 13.3055 22.0454
346 2 2.2208 8.09277 10.5139 27.6243
611 1 -1.1104 9.48329 6.32551 20.6508
337 2 2.2208 10.8794 7.72263 27.6242
609 1 -1.1104 6.69944 11.908 26.2293
605 1 -1.1104 6.69669 9.11663 26.2298
606 1 -1.1104 6.69952 11.9081 23.4403
608 1 -1.1104 6.69384 6.32529 23.4403
612 1 -1.1104 9.48619 9.11692 23.4403
613 1 -1.1104 12.2783 11.9084 26.2292
614 1 -1.1104 12.2727 6.32542 26.2291
615 2 2.2208 10.8823 10.5142 24.8348
616 1 -1.1104 12.2784 11.9086 23.4404
617 1 -1.1104 12.2727 6.32546 23.4403
618 1 -1.1104 12.2755 9.11693 26.2298
619 1 -1.1104 12.2756 9.11706 23.4397
620 1 -1.1104 9.48891 11.9082 26.2299
621 1 -1.1104 9.48326 6.32533 26.2298
622 1 -1.1104 9.489 11.9084 23.4397
623 1 -1.1104 9.4833 6.32541 23.4396
624 2 2.2208 8.09292 10.5142 22.0453
625 1 -1.1104 9.48611 9.11681 26.2292
626 2 2.2208 8.09557 13.3054 24.8348
627 2 2.2208 8.09001 7.72255 24.8347
628 2 2.2208 10.8795 7.72277 22.0452
629 2 2.2208 10.8851 13.306 22.0453
338 2 2.2208 10.8849 13.3055 27.6244
662 2 2.2208 -0.270391 16.0965 24.8351
670 1 -1.1104 6.70707 20.2814 26.2303
635 1 -1.1104 1.12577 17.4913 20.6506
347 2 2.2208 5.31103 18.8873 27.6247
341 2 2.2208 2.51897 16.0962 27.6246
636 1 -1.1104 6.70471 17.4907 23.4405
640 2 2.2208 2.52399 21.6792 22.0458
641 1 -1.1104 3.91523 17.4906 23.44
642 1 -1.1104 1.12564 17.4906 23.4406
643 1 -1.1104 3.91252 14.6991 26.2294
644 1 -1.1104 3.91504 17.4902 26.2301
645 2 2.2208 2.5216 18.8875 24.8352
646 1 -1.1104 3.91751 20.2812 26.2298
647 2 2.2208 5.31124 18.8881 22.0456
648 1 -1.1104 1.12315 14.6994 23.4399
649 1 -1.1104 1.12808 20.2819 23.4403
650 2 2.2208 5.30864 16.0964 24.835
651 2 2.2208 5.31356 21.6786 24.8354
652 1 -1.1104 1.12302 14.6991 26.2299
653 1 -1.1104 1.12549 17.4903 26.2296
654 1 -1.1104 1.12794 20.2814 26.2303
655 1 -1.1104 3.91264 14.6993 23.4404
656 1 -1.1104 3.91756 20.2817 23.4407
657 2 2.2208 2.51922 16.0968 22.0455
348 2 2.2208 2.52395 21.6783 27.625
671 1 -1.1104 6.70204 14.6992 26.2299
340 2 2.2208 -0.26807 18.8876 27.6248
637 2 2.2208 -0.267848 18.8883 22.0457
339 2 2.2208 8.10307 21.6785 27.625
669 1 -1.1104 9.49168 14.6998 23.4404
663 1 -1.1104 9.49431 17.4912 23.4398
664 1 -1.1104 9.49158 14.6995 26.2293
328 2 2.2208 8.09806 16.0964 27.6245
632 1 -1.1104 12.2863 20.2829 23.4398
552 2 2.2208 13.666 4.93143 16.4664
523 2 2.2208 13.6602 -0.652022 16.4665
550 2 2.2208 13.6689 7.72306 19.2558
329 2 2.2208 13.6659 4.93117 27.6242
575 2 2.2208 13.663 2.13962 19.2558
547 2 2.2208 13.663 2.13957 24.8347
414 2 2.2208 13.6601 -0.652069 22.0454
369 2 2.2208 5.28903 -3.44363 16.4668
522 2 2.2208 13.6659 4.9312 22.0452
521 2 2.2208 13.6688 7.72275 24.8347
602 2 2.2208 8.07829 -3.44362 24.835
336 2 2.2208 5.28886 -3.4436 27.6245
544 2 2.2208 2.49938 -3.44361 24.8351
577 2 2.2208 5.28886 -3.44361 22.0456
630 2 2.2208 10.8678 -3.4437 22.0455
368 2 2.2208 13.6573 -3.44373 19.2561
543 2 2.2208 2.49948 -3.44365 19.2562
576 2 2.2208 8.07841 -3.44365 19.2562
692 2 2.2208 5.29198 -0.652001 13.6772
675 2 2.2208 13.6574 -3.44373 13.6772
684 2 2.2208 10.8766 4.93139 13.677
683 2 2.2208 10.8708 -0.652027 13.6771
682 2 2.2208 8.08428 2.13963 13.677
676 2 2.2208 13.6631 2.13969 13.677
688 2 2.2208 8.07861 -3.44365 13.6773
701 2 2.2208 5.3162 24.4699 5.3101
702 2 2.2208 5.32211 30.0514 5.31055
703 1 -1.1104 1.13284 25.8632 1.12548
704 1 -1.1104 1.13299 25.8637 3.91561
705 1 -1.1104 1.13039 23.0723 1.12577
706 1 -1.1104 1.13563 28.6539 1.12613
707 2 2.2208 5.31892 27.26 2.52086
708 1 -1.1104 1.13014 23.0728 3.91498
709 1 -1.1104 1.13556 28.6543 3.91529
710 1 -1.1104 3.92255 25.8627 1.12604
711 2 2.2208 2.52649 24.4694 2.52051
712 2 2.2208 2.53239 30.051 2.52099
713 1 -1.1104 3.92249 25.8631 3.91511
714 2 2.2208 2.52931 27.261 5.31025
715 1 -1.1104 3.91986 23.072 1.12527
716 1 -1.1104 3.92513 28.6533 1.12571
717 1 -1.1104 3.91999 23.0724 3.91545
718 1 -1.1104 3.92548 28.6536 3.91595
721 1 -1.1104 3.92516 28.6545 6.70491
729 1 -1.1104 6.71498 28.6534 3.91543
720 1 -1.1104 3.92272 25.864 6.70525
725 1 -1.1104 1.13264 25.8648 6.70476
727 1 -1.1104 1.13565 28.6555 6.70537
873 1 -1.1104 3.91981 23.0732 6.70447
726 1 -1.1104 1.13034 23.0737 6.70496
723 2 2.2208 -0.263185 24.4708 5.31009
719 2 2.2208 -0.260352 27.2609 2.5207
733 1 -1.1104 6.7149 28.6533 1.12648
731 1 -1.1104 6.70946 23.0724 3.91489
724 2 2.2208 -0.257386 30.0526 5.3104
1023 1 -1.1104 6.73823 42.6202 12.29
1014 1 -1.1104 6.73957 45.3997 12.3029
752 1 -1.1104 6.70983 23.0733 6.70512
732 1 -1.1104 6.70958 23.072 1.12587
722 1 -1.1104 6.71221 25.8641 6.70478
755 1 -1.1104 6.71541 28.6546 6.70584
728 1 -1.1104 6.71206 25.8627 1.12553
730 1 -1.1104 6.71244 25.863 3.91589
734 2 2.2208 10.8953 24.4713 5.31036
735 2 2.2208 10.9009 30.0537 5.31139
736 1 -1.1104 12.2911 25.8639 1.1255
737 1 -1.1104 12.2916 25.8647 3.9162
738 1 -1.1104 12.2887 23.0731 1.1259
739 1 -1.1104 12.294 28.6545 1.12656
740 2 2.2208 10.8979 27.2611 2.52114
741 1 -1.1104 12.2885 23.0737 3.91501
742 1 -1.1104 12.294 28.6553 3.91589
743 1 -1.1104 9.50179 25.8632 1.12628
744 2 2.2208 8.10572 24.4695 2.52062
745 2 2.2208 8.1113 30.0511 2.52153
746 1 -1.1104 9.50178 25.8637 3.91532
747 2 2.2208 8.10865 27.2613 5.31059
748 1 -1.1104 9.49906 23.0724 1.12521
749 1 -1.1104 9.50428 28.6536 1.12593
750 1 -1.1104 9.49932 23.073 3.91564
751 1 -1.1104 9.50494 28.6543 3.91657
902 1 -1.1104 12.289 23.0752 6.70544
756 1 -1.1104 9.50467 28.6558 6.70537
903 1 -1.1104 12.2948 28.6581 6.70677
753 1 -1.1104 12.2912 25.8667 6.70516
905 1 -1.1104 9.49914 23.074 6.70454
783 1 -1.1104 9.51925 39.8323 12.2849
1013 2 2.2208 8.13493 41.2337 8.10498
757 2 2.2208 5.33018 35.6333 5.31096
758 1 -1.1104 1.13855 31.4444 1.12567
759 1 -1.1104 1.1461 37.0255 1.12491
760 1 -1.1104 1.13881 31.4448 3.91603
761 1 -1.1104 1.14654 37.0254 3.91594
762 1 -1.1104 1.142 34.2352 1.12644
763 2 2.2208 5.32531 32.8418 2.52168
764 2 2.2208 5.33464 38.4258 2.52219
765 1 -1.1104 1.1422 34.235 3.91508
766 1 -1.1104 3.92819 31.444 1.12662
767 1 -1.1104 3.93516 37.026 1.12705
768 2 2.2208 2.54062 35.6327 2.52125
769 1 -1.1104 3.92831 31.4439 3.91544
770 1 -1.1104 3.93592 37.0244 3.91484
771 2 2.2208 2.5362 32.8423 5.31046
772 2 2.2208 2.54834 38.4234 5.3097
773 1 -1.1104 3.93138 34.2345 1.12598
774 1 -1.1104 3.93186 34.2344 3.91642
780 1 -1.1104 1.14217 34.236 6.70577
926 1 -1.1104 3.93179 34.2344 6.705
930 1 -1.1104 1.13828 31.446 6.70508
775 1 -1.1104 1.14672 37.0253 6.70415
779 1 -1.1104 3.92851 31.4447 6.70576
928 1 -1.1104 3.93652 37.0241 6.70629
781 2 2.2208 -0.242842 38.4222 2.51955
785 1 -1.1104 6.72087 34.2347 1.12739
776 2 2.2208 -0.24885 35.6328 5.30972
778 2 2.2208 -0.253666 32.842 2.52084
869 1 -1.1104 9.42051 48.0681 6.70956
784 1 -1.1104 6.71823 31.4438 3.91652
782 1 -1.1104 6.71808 31.4445 6.70517