ITEM: TIMESTEP
299
ITEM: NUMBER OF ATOMS
17672
ITEM: BOX BOUNDS pp pp pp
-2.7717828229332220e-01 2.7617178282293317e+01
-3.4472205766305355e+00 3.3152722057663055e+02
-2.7717827830221448e-01 2.7617178278302212e+01
ITEM: ATOMS id type q x y z
1 2 2.2208 5.29112 2.13528 5.30628
2 1 -1.1104 1.10409 -2.05366 1.12157
3 1 -1.1104 1.10784 3.52948 1.12202
4 1 -1.1104 1.1041 -2.05364 3.91144
5 1 -1.1104 1.10787 3.52954 3.91188
6 1 -1.1104 1.10602 0.737908 1.12218
7 2 2.2208 5.28927 -0.656327 2.5166
8 2 2.2208 5.29303 4.92679 2.51708
9 1 -1.1104 1.10594 0.737965 3.91124
10 1 -1.1104 3.89361 -2.05365 1.12198
11 1 -1.1104 3.89739 3.52945 1.12241
12 2 2.2208 2.50166 2.13524 2.51682
13 1 -1.1104 3.89354 -2.05362 3.91103
14 1 -1.1104 3.89728 3.52951 3.91148
15 2 2.2208 2.49975 -0.656305 5.30606
16 2 2.2208 2.50352 4.92689 5.30654
17 1 -1.1104 3.89545 0.737912 1.12177
18 1 -1.1104 3.89548 0.737945 3.91164
28 1 -1.1104 6.68307 -2.05362 3.91143
8883 2 2.2208 13.6713 18.8866 8.09807
27 1 -1.1104 6.683 -2.05361 6.70047
23 1 -1.1104 6.68684 3.52952 3.91188
668 2 2.2208 2.50539 7.71874 13.6751
26 1 -1.1104 1.10596 0.738014 6.70108
32 1 -1.1104 3.89356 -2.05362 6.70088
24 1 -1.1104 3.89733 3.52958 6.70133
31 1 -1.1104 1.10403 -2.05362 6.70048
673 2 2.2208 10.8841 21.679 13.6769
8945 2 2.2208 13.6713 18.8851 2.51909
21 1 -1.1104 6.68499 0.737915 1.12218
19 1 -1.1104 6.68305 -2.05365 1.12157
33 1 -1.1104 6.6849 0.737958 3.91123
22 1 -1.1104 6.68681 3.52948 1.122
8913 2 2.2208 13.6693 16.094 5.30814
34 2 2.2208 10.87 2.13538 5.30627
35 1 -1.1104 12.2619 -2.05367 1.12155
36 1 -1.1104 12.2657 3.52964 1.12196
37 1 -1.1104 12.262 -2.05363 3.91142
38 1 -1.1104 12.2657 3.52969 3.91186
39 1 -1.1104 12.2639 0.737989 1.12216
40 2 2.2208 10.8682 -0.656307 2.51658
41 1 -1.1104 12.2638 0.738035 3.91121
42 1 -1.1104 9.47256 -2.05366 1.12197
43 1 -1.1104 9.47634 3.52954 1.1224
44 2 2.2208 8.08062 2.13527 2.51682
45 1 -1.1104 9.4725 -2.05362 3.91103
46 1 -1.1104 9.47624 3.5296 3.91145
47 2 2.2208 8.07871 -0.656291 5.30606
48 2 2.2208 8.08248 4.92693 5.30655
49 1 -1.1104 9.47441 0.73795 1.12175
50 1 -1.1104 9.47443 0.737983 3.91163
51 2 2.2208 10.872 4.92695 2.51706
672 2 2.2208 5.30493 21.6767 13.6769
52 1 -1.1104 9.47433 0.738037 6.70068
56 1 -1.1104 12.2638 0.738083 6.70109
205 1 -1.1104 12.2619 -2.05361 6.70047
53 1 -1.1104 6.68493 0.738 6.70109
208 1 -1.1104 9.47628 3.52967 6.70133
206 2 2.2208 13.6594 2.13551 8.09571
9032 2 2.2208 13.6734 21.6775 5.3092
60 2 2.2208 5.29492 7.71844 5.30688
61 2 2.2208 5.29883 13.3015 5.30764
62 1 -1.1104 1.11161 9.11252 1.12262
63 1 -1.1104 1.11169 9.11266 3.91249
64 1 -1.1104 1.10979 6.32101 1.12268
65 1 -1.1104 1.11361 11.904 1.12336
66 2 2.2208 5.29685 10.5098 2.51777
67 1 -1.1104 1.10968 6.32112 3.91176
68 1 -1.1104 1.11349 11.9042 3.91247
69 1 -1.1104 3.90119 9.11245 1.12302
70 2 2.2208 2.50544 7.71833 2.51739
71 2 2.2208 2.5093 13.3013 2.51813
72 1 -1.1104 3.90107 9.11257 3.91211
73 2 2.2208 2.50735 10.51 5.30722
74 1 -1.1104 3.89919 6.32097 1.12229
75 1 -1.1104 3.90301 11.9039 1.123
76 1 -1.1104 3.89926 6.32106 3.91218
77 1 -1.1104 3.90313 11.904 3.91291
78 1 -1.1104 6.68865 6.32108 3.91177
658 2 2.2208 13.6594 2.13554 13.6745
87 1 -1.1104 3.89915 6.32117 6.70123
79 1 -1.1104 6.68876 6.321 1.1227
90 1 -1.1104 6.69068 9.1126 3.91255
92 1 -1.1104 6.69263 11.9039 1.12343
82 1 -1.1104 3.903 11.9043 6.70194
8877 2 2.2208 13.6734 21.6799 10.8878
231 2 2.2208 13.6652 10.5106 5.30723
211 2 2.2208 13.6613 4.92735 10.8854
114 1 -1.1104 6.69058 9.11277 6.70156
85 1 -1.1104 6.69251 11.9041 3.91248
84 1 -1.1104 6.69059 9.1125 1.12261
93 2 2.2208 10.8739 7.71868 5.30686
94 2 2.2208 10.8778 13.3019 5.30767
95 1 -1.1104 12.2695 9.11285 1.12256
96 1 -1.1104 12.2696 9.11299 3.91253
97 1 -1.1104 12.2677 6.32125 1.12268
98 1 -1.1104 12.2716 11.9044 1.12341
99 2 2.2208 10.8758 10.5101 2.51775
100 1 -1.1104 12.2675 6.32135 3.91172
101 1 -1.1104 12.2714 11.9046 3.91246
102 1 -1.1104 9.48016 9.11265 1.12304
103 2 2.2208 8.0844 7.7184 2.51739
104 2 2.2208 8.08832 13.3014 2.51818
105 1 -1.1104 9.48004 9.11276 3.91208
106 2 2.2208 8.08635 10.5101 5.30725
107 1 -1.1104 9.47815 6.32112 1.12225
108 1 -1.1104 9.48201 11.9041 1.12296
109 1 -1.1104 9.47821 6.32118 3.91217
110 1 -1.1104 9.48214 11.9043 3.91297
263 1 -1.1104 9.47812 6.32132 6.7012
265 1 -1.1104 9.48017 9.11295 6.70201
269 1 -1.1104 12.2677 6.32149 6.70163
112 1 -1.1104 12.2716 11.9049 6.70243
660 2 2.2208 8.09249 18.8858 13.6765
258 1 -1.1104 12.2735 14.6975 12.2811
8884 2 2.2208 13.6693 16.0951 10.8869
179 2 2.2208 13.6653 10.5111 10.886
176 2 2.2208 13.6633 7.71904 8.09628
117 2 2.2208 5.30287 18.8843 5.3085
118 1 -1.1104 1.11544 14.6954 1.1234
119 1 -1.1104 1.11936 20.278 1.12424
120 1 -1.1104 1.11558 14.6956 3.91326
121 1 -1.1104 1.11954 20.2783 3.91411
122 1 -1.1104 1.11751 17.4868 1.12418
123 2 2.2208 5.30081 16.0926 2.51858
124 2 2.2208 5.30492 21.675 2.51951
125 1 -1.1104 1.11738 17.487 3.91332
126 1 -1.1104 3.90507 14.6952 1.12381
127 1 -1.1104 3.90909 20.2777 1.12467
128 2 2.2208 2.51326 18.884 2.519
129 1 -1.1104 3.90496 14.6954 3.91289
130 1 -1.1104 3.90894 20.278 3.91376
131 2 2.2208 2.51127 16.093 5.30802
132 2 2.2208 2.51531 21.6756 5.30892
133 1 -1.1104 3.90692 17.4865 1.12382
134 1 -1.1104 3.9071 17.4868 3.91374
135 1 -1.1104 6.69651 17.4868 3.91333
140 1 -1.1104 6.69448 14.6953 1.12339
292 1 -1.1104 3.90514 14.6958 6.70276
148 1 -1.1104 6.69465 14.6955 3.91337
259 2 2.2208 10.8799 16.0941 8.09757
116 1 -1.1104 12.2777 20.2822 12.2819
142 1 -1.1104 3.90695 17.4871 6.70277
295 1 -1.1104 1.11543 14.696 6.70235
173 1 -1.1104 6.69675 17.4873 6.70328
143 1 -1.1104 6.69454 14.6958 6.70236
136 1 -1.1104 6.69852 20.2777 1.12424
137 1 -1.1104 6.69876 20.278 3.91429
144 1 -1.1104 6.69662 17.4866 1.12429
151 2 2.2208 10.8819 18.8851 5.30862
152 1 -1.1104 12.2735 14.6959 1.12335
153 1 -1.1104 12.2775 20.2787 1.12421
154 1 -1.1104 12.2736 14.6962 3.91342
155 1 -1.1104 12.2778 20.2792 3.91445
156 1 -1.1104 12.2756 17.4873 1.12432
157 2 2.2208 10.8798 16.0931 2.51862
158 2 2.2208 10.884 21.6759 2.51959
159 1 -1.1104 12.2755 17.4877 3.91337
160 1 -1.1104 9.48412 14.6955 1.12387
161 1 -1.1104 9.48824 20.2781 1.12478
162 2 2.2208 8.09239 18.8841 2.51906
163 1 -1.1104 9.48401 14.6958 3.9129
164 1 -1.1104 9.48811 20.2785 3.9138
165 2 2.2208 8.09038 16.0931 5.3081
166 2 2.2208 8.09457 21.6759 5.30905
167 1 -1.1104 9.48602 17.4869 1.1238
168 1 -1.1104 9.48624 17.4872 3.91389
9035 2 2.2208 13.6672 13.302 2.51815
145 1 -1.1104 6.69861 20.2786 6.70322
8885 2 2.2208 13.6673 13.3027 8.09709
172 1 -1.1104 9.48423 14.6962 6.7029
174 1 -1.1104 12.2776 20.2801 6.70338
170 1 -1.1104 12.2758 17.4884 6.70345
293 2 2.2208 8.09467 21.6773 10.8877
260 1 -1.1104 9.4862 17.4888 12.2815
175 1 -1.1104 12.278 20.2813 9.49338
30 1 -1.1104 3.89538 0.737994 6.70068
20 1 -1.1104 1.10777 3.52964 6.70093
180 2 2.2208 5.2911 2.13537 10.8851
181 1 -1.1104 1.10406 -2.05364 12.2793
182 1 -1.1104 1.10777 3.52974 12.2798
183 1 -1.1104 1.10407 -2.05362 9.49031
184 1 -1.1104 1.10784 3.52971 9.49075
185 1 -1.1104 1.10595 0.738048 12.2799
186 2 2.2208 5.28921 -0.656284 8.09549
187 2 2.2208 5.29299 4.92697 8.09599
188 1 -1.1104 1.1059 0.738044 9.49012
189 1 -1.1104 3.89356 -2.05363 12.2797
190 1 -1.1104 3.89731 3.5297 12.2802
191 2 2.2208 2.50161 2.13536 8.09572
192 1 -1.1104 3.89351 -2.05362 9.48991
193 1 -1.1104 3.89726 3.52967 9.49036
194 2 2.2208 2.49974 -0.65628 10.8849
195 2 2.2208 2.5035 4.92706 10.8854
196 1 -1.1104 3.89539 0.738025 12.2795
197 1 -1.1104 3.89543 0.738032 9.49051
198 1 -1.1104 6.68681 3.52968 9.49077
203 1 -1.1104 6.68486 0.738034 9.49011
232 1 -1.1104 9.4861 17.4877 6.70282
25 1 -1.1104 6.68674 3.52961 6.70092
199 1 -1.1104 6.68303 -2.05361 9.49031
209 1 -1.1104 6.68491 0.738036 12.2799
662 2 2.2208 2.50162 2.13538 13.6745
665 2 2.2208 5.29298 4.92705 13.6748
663 2 2.2208 5.28923 -0.656288 13.6743
288 2 2.2208 8.09042 16.0939 10.8869
55 1 -1.1104 12.2657 3.52979 6.7009
657 2 2.2208 8.08057 2.13541 13.6745
207 1 -1.1104 6.68674 3.52972 12.2798
200 1 -1.1104 6.683 -2.05364 12.2793
54 1 -1.1104 9.47251 -2.05363 6.70089
212 2 2.2208 10.87 2.13548 10.8851
213 1 -1.1104 12.2619 -2.05366 12.2793
214 1 -1.1104 12.2657 3.52991 12.2797
215 1 -1.1104 12.2619 -2.05362 9.49032
216 1 -1.1104 12.2657 3.52987 9.49076
217 1 -1.1104 12.2638 0.738119 12.2799
218 2 2.2208 10.8681 -0.656252 8.09549
219 2 2.2208 10.8719 4.92713 8.09598
220 1 -1.1104 12.2638 0.738118 9.49011
221 1 -1.1104 9.47249 -2.05364 12.2797
222 1 -1.1104 9.47627 3.52981 12.2802
223 2 2.2208 8.08057 2.13537 8.09572
224 1 -1.1104 9.47245 -2.05363 9.48991
225 1 -1.1104 9.47621 3.52976 9.49034
226 2 2.2208 8.07868 -0.656272 10.8849
227 2 2.2208 8.08246 4.9271 10.8854
228 1 -1.1104 9.47434 0.738076 12.2795
229 1 -1.1104 9.47438 0.738057 9.49052
666 2 2.2208 10.8681 -0.656287 13.6743
659 2 2.2208 10.8719 4.92723 13.6748
80 1 -1.1104 6.68874 6.3212 6.70166
169 1 -1.1104 12.2735 14.6966 6.70238
237 1 -1.1104 1.11362 11.9044 6.7023
236 1 -1.1104 1.11156 9.11284 6.70157
238 2 2.2208 10.882 18.8865 10.8873
83 1 -1.1104 3.90118 9.11274 6.70198
81 1 -1.1104 1.10976 6.32125 6.70161
239 2 2.2208 5.2949 7.7187 10.8857
240 2 2.2208 5.29884 13.302 10.8864
241 1 -1.1104 1.11155 9.11312 12.2804
242 1 -1.1104 1.11165 9.11302 9.49136
243 1 -1.1104 1.10971 6.32143 12.2804
244 1 -1.1104 1.11356 11.9048 12.2811
245 2 2.2208 5.29686 10.5102 8.09668
246 1 -1.1104 1.10965 6.32137 9.49065
247 1 -1.1104 1.11348 11.9047 9.49134
248 1 -1.1104 3.90115 9.11301 12.2808
249 2 2.2208 2.50541 7.7186 8.09631
250 2 2.2208 2.5093 13.3018 8.09704
251 1 -1.1104 3.90106 9.11291 9.49098
252 2 2.2208 2.50733 10.5104 10.886
253 1 -1.1104 3.89915 6.32137 12.28
254 1 -1.1104 3.90301 11.9046 12.2807
255 1 -1.1104 3.89924 6.3213 9.49106
256 1 -1.1104 3.90314 11.9045 9.49176
261 1 -1.1104 6.69256 11.9046 9.49135
257 1 -1.1104 6.69266 11.9047 12.2812
268 1 -1.1104 6.69069 9.11296 9.49142
262 1 -1.1104 6.68872 6.3214 12.2805
290 1 -1.1104 12.2737 14.6972 9.49231
202 1 -1.1104 12.2756 17.4892 9.49224
149 1 -1.1104 6.69457 14.6964 12.2811
314 1 -1.1104 6.6966 17.4877 9.49214
266 1 -1.1104 6.68865 6.32133 9.49065
267 1 -1.1104 6.6906 9.11307 12.2803
91 1 -1.1104 6.69267 11.9043 6.7024
115 1 -1.1104 12.2695 9.11321 6.70153
264 1 -1.1104 9.48203 11.9046 6.70194
270 1 -1.1104 9.48221 11.9049 9.49184
271 1 -1.1104 9.47822 6.32145 9.49106
272 1 -1.1104 9.48209 11.9051 12.2807
273 1 -1.1104 9.47813 6.32154 12.28
274 2 2.2208 8.08638 10.5105 10.8861
275 1 -1.1104 9.48008 9.11317 9.49095
276 2 2.2208 8.08838 13.3019 8.0971
277 2 2.2208 8.0844 7.71867 8.09631
278 2 2.2208 10.8739 7.71898 10.8857
279 2 2.2208 10.8779 13.3026 10.8865
280 1 -1.1104 12.2695 9.11357 12.2803
281 1 -1.1104 12.2696 9.11343 9.49141
282 1 -1.1104 12.2677 6.32172 12.2804
283 1 -1.1104 12.2716 11.9055 12.2812
284 2 2.2208 10.8758 10.5106 8.09668
285 1 -1.1104 12.2676 6.32165 9.4906
286 1 -1.1104 12.2715 11.9053 9.49133
287 1 -1.1104 9.48018 9.11328 12.2808
111 1 -1.1104 9.48635 17.4884 9.49278
674 2 2.2208 5.30082 16.0937 13.6762
234 1 -1.1104 9.48848 20.2807 12.2825
230 1 -1.1104 9.48826 20.2801 9.49262
147 1 -1.1104 12.2757 17.4897 12.2821
315 1 -1.1104 6.69872 20.2796 12.2818
294 1 -1.1104 6.69888 20.2792 9.49313
150 1 -1.1104 6.69674 17.488 12.282
139 1 -1.1104 3.90916 20.2785 6.70363
141 1 -1.1104 1.1193 20.2789 6.70324
138 1 -1.1104 1.11754 17.4875 6.70312
296 1 -1.1104 3.90713 17.4875 9.49257
297 2 2.2208 2.51326 18.8848 8.09786
298 1 -1.1104 3.90498 14.6961 9.49174
299 1 -1.1104 1.11741 17.4881 12.2818
300 2 2.2208 2.51126 16.0936 10.8868
301 2 2.2208 2.51521 21.6766 10.8876
302 1 -1.1104 3.90697 17.4878 12.2815
303 1 -1.1104 3.90907 20.2792 12.2823
304 1 -1.1104 3.90508 14.6963 12.2815
305 1 -1.1104 1.11943 20.2794 9.4929
306 1 -1.1104 1.11734 17.4879 9.49217
307 2 2.2208 5.30499 21.6761 8.09834
308 1 -1.1104 1.11556 14.6963 9.49211
309 2 2.2208 5.30086 16.0933 8.09748
310 1 -1.1104 1.11921 20.2797 12.2819
311 1 -1.1104 1.1154 14.6965 12.2811
312 2 2.2208 5.3029 18.8851 10.8872
313 1 -1.1104 3.90897 20.279 9.49257
289 1 -1.1104 6.69471 14.6962 9.49224
146 2 2.2208 8.0925 18.8851 8.09796
291 1 -1.1104 9.48409 14.6966 9.49177
171 1 -1.1104 9.48845 20.2792 6.70391
204 2 2.2208 10.8841 21.6777 8.09857
235 1 -1.1104 9.48422 14.6969 12.2816
671 2 2.2208 10.8758 10.5108 13.6754
670 2 2.2208 8.08836 13.3023 13.6758
667 2 2.2208 2.50926 13.3021 13.6758
669 2 2.2208 5.29684 10.5104 13.6754
9515 2 2.2208 13.6713 18.8877 13.6765
654 2 2.2208 13.6633 7.71922 13.6751
656 2 2.2208 8.0844 7.71883 13.6751
661 2 2.2208 10.8799 16.0947 13.6762
9509 2 2.2208 13.6672 13.3031 13.6758
675 2 2.2208 2.51316 18.8852 13.6765
57 2 2.2208 13.6576 -0.656257 5.30605
113 2 2.2208 13.6633 7.71871 2.51737
210 2 2.2208 13.6576 -0.656245 10.8849
233 2 2.2208 13.6613 4.92716 5.30653
89 2 2.2208 13.6595 2.13539 2.5168
8844 2 2.2208 13.6557 -3.44806 13.6742
8438 2 2.2208 5.28734 -3.44789 5.30587
8467 2 2.2208 13.6557 -3.44799 2.5164
8437 2 2.2208 13.6557 -3.44797 8.09532
8834 2 2.2208 8.07682 -3.44799 13.6741
8469 2 2.2208 2.49789 -3.44792 2.51643
8466 2 2.2208 8.07685 -3.44792 2.51641
8475 2 2.2208 10.8663 -3.44793 5.30586
8439 2 2.2208 8.07681 -3.44792 8.09531
8838 2 2.2208 2.49789 -3.44798 13.6741
8382 2 2.2208 5.28733 -3.44793 10.8847
8477 2 2.2208 2.49785 -3.44792 8.0953
8478 2 2.2208 10.8663 -3.44798 10.8847
339 2 2.2208 5.29113 2.13533 16.464
340 1 -1.1104 1.10413 -2.05371 17.8581
341 1 -1.1104 1.10784 3.52963 17.8586
342 1 -1.1104 1.10413 -2.05366 15.0691
343 1 -1.1104 1.10784 3.52971 15.0696
344 1 -1.1104 1.10603 0.737973 17.8587
345 2 2.2208 5.2893 -0.656382 19.2532
346 2 2.2208 5.29304 4.9269 19.2536
347 1 -1.1104 1.10595 0.738021 15.0689
348 1 -1.1104 3.89362 -2.0537 17.8585
349 1 -1.1104 3.89735 3.5296 17.859
350 2 2.2208 2.50169 2.13527 19.2534
351 1 -1.1104 3.89356 -2.05367 15.0687
352 1 -1.1104 3.89728 3.52966 15.0692
353 2 2.2208 2.4998 -0.656327 16.4637
354 2 2.2208 2.50351 4.92701 16.4642
355 1 -1.1104 3.89546 0.737944 17.8584
356 1 -1.1104 3.89546 0.738 15.0693
363 1 -1.1104 6.68681 3.5297 15.0696
359 1 -1.1104 6.68306 -2.05371 17.8581
516 1 -1.1104 1.10601 0.737898 20.6478
361 1 -1.1104 6.6849 0.738012 15.0689
370 1 -1.1104 6.68681 3.52962 17.8586
362 1 -1.1104 6.68497 0.737957 17.8587
9220 2 2.2208 13.6712 18.885 24.8341
367 1 -1.1104 1.10791 3.52954 20.6484
515 1 -1.1104 3.89361 -2.05373 20.6476
327 2 2.2208 8.09443 21.675 27.6243
357 1 -1.1104 6.68306 -2.05366 15.0691
371 2 2.2208 10.8701 2.13542 16.4639
372 1 -1.1104 12.262 -2.05375 17.8581
373 1 -1.1104 12.2657 3.5298 17.8585
374 1 -1.1104 12.262 -2.0537 15.0691
375 1 -1.1104 12.2657 3.52988 15.0695
376 1 -1.1104 12.2639 0.738025 17.8587
377 2 2.2208 10.8682 -0.656377 19.2531
378 2 2.2208 10.872 4.92708 19.2536
379 1 -1.1104 12.2638 0.738075 15.0689
380 1 -1.1104 9.47256 -2.05373 17.8585
381 1 -1.1104 9.47631 3.5297 17.859
382 2 2.2208 8.08064 2.13529 19.2534
383 1 -1.1104 9.47249 -2.05369 15.0687
384 1 -1.1104 9.47624 3.52977 15.0691
385 2 2.2208 8.07873 -0.656329 16.4637
386 2 2.2208 8.08248 4.92706 16.4642
387 1 -1.1104 9.47441 0.737979 17.8583
388 1 -1.1104 9.4744 0.73804 15.0693
390 1 -1.1104 9.47253 -2.05375 20.6476
319 2 2.2208 10.8818 18.8843 27.6238
391 1 -1.1104 9.47631 3.52959 20.6479
545 1 -1.1104 12.2639 0.737963 20.6477
9210 2 2.2208 13.6692 16.0939 22.0442
9211 2 2.2208 13.6732 21.6773 22.0447
395 2 2.2208 13.6614 4.9273 16.4642
389 2 2.2208 13.6652 10.511 16.4647
9248 2 2.2208 13.6672 13.3026 19.2544
398 2 2.2208 5.2949 7.71865 16.4645
399 2 2.2208 5.29879 13.3019 16.4651
400 1 -1.1104 1.11158 9.11292 17.8591
401 1 -1.1104 1.11159 9.11308 15.0701
402 1 -1.1104 1.10972 6.32129 17.8592
403 1 -1.1104 1.11349 11.9045 17.8598
404 2 2.2208 5.29683 10.5101 19.2542
405 1 -1.1104 1.10965 6.32139 15.0694
406 1 -1.1104 1.11346 11.9047 15.0701
407 1 -1.1104 3.90112 9.11284 17.8595
408 2 2.2208 2.50541 7.71852 19.2539
409 2 2.2208 2.50922 13.3017 19.2545
410 1 -1.1104 3.90107 9.11298 15.0697
411 2 2.2208 2.5073 10.5103 16.4648
412 1 -1.1104 3.89918 6.32123 17.8588
413 1 -1.1104 3.90301 11.9044 17.8595
414 1 -1.1104 3.8992 6.32133 15.0698
415 1 -1.1104 3.90306 11.9046 15.0705
426 1 -1.1104 1.11349 11.9043 20.6489
418 1 -1.1104 3.90111 9.11265 20.6485
430 1 -1.1104 6.68866 6.32138 15.0694
417 1 -1.1104 6.68872 6.32127 17.8592
420 1 -1.1104 3.90304 11.9042 20.6493
338 2 2.2208 8.0903 16.0926 27.6234
335 2 2.2208 2.51528 21.6749 27.6243
337 2 2.2208 5.3028 18.8837 27.6239
9245 2 2.2208 13.6692 16.0951 16.4654
431 1 -1.1104 6.69061 9.1129 17.8591
432 1 -1.1104 6.69256 11.9047 15.07
419 1 -1.1104 6.69258 11.9045 17.8599
423 1 -1.1104 6.69065 9.11305 15.0702
433 2 2.2208 10.8739 7.71895 16.4644
434 2 2.2208 10.8778 13.3026 16.4651
435 1 -1.1104 12.2695 9.11339 17.859
436 1 -1.1104 12.2696 9.11355 15.0701
437 1 -1.1104 12.2676 6.32158 17.8592
438 1 -1.1104 12.2715 11.9052 17.8598
439 2 2.2208 10.8758 10.5105 19.2541
440 1 -1.1104 12.2676 6.3217 15.0694
441 1 -1.1104 12.2715 11.9055 15.07
442 1 -1.1104 9.48013 9.11311 17.8595
443 2 2.2208 8.08441 7.71861 19.2538
444 2 2.2208 8.0883 13.3019 19.2545
445 1 -1.1104 9.48009 9.11327 15.0697
446 2 2.2208 8.08635 10.5105 16.4648
447 1 -1.1104 9.47816 6.32141 17.8588
448 1 -1.1104 9.48207 11.9048 17.8594
449 1 -1.1104 9.4782 6.32151 15.0698
450 1 -1.1104 9.48214 11.905 15.0705
649 1 -1.1104 12.2775 20.28 20.6502
424 1 -1.1104 6.68872 6.32114 20.6482
454 1 -1.1104 9.48208 11.9045 20.6493
9219 2 2.2208 13.6672 13.3019 24.8334
325 2 2.2208 5.29118 2.13521 27.6217
570 1 -1.1104 9.48809 20.2783 23.4399
456 2 2.2208 5.30279 18.8849 16.4659
457 1 -1.1104 1.11537 14.6961 17.8598
458 1 -1.1104 1.11917 20.279 17.8605
459 1 -1.1104 1.11541 14.6964 15.0708
460 1 -1.1104 1.11918 20.2795 15.0715
461 1 -1.1104 1.11725 17.4876 17.8605
462 2 2.2208 5.30074 16.0931 19.2549
463 2 2.2208 5.30476 21.6757 19.2556
464 1 -1.1104 1.11728 17.488 15.0708
465 1 -1.1104 3.90497 14.6959 17.8602
466 1 -1.1104 3.90886 20.2787 17.8609
467 2 2.2208 2.51309 18.8845 19.2552
468 1 -1.1104 3.90496 14.6962 15.0704
469 1 -1.1104 3.90894 20.2791 15.0711
470 2 2.2208 2.51115 16.0935 16.4655
471 2 2.2208 2.51504 21.6763 16.4662
472 1 -1.1104 3.90691 17.4874 17.8602
473 1 -1.1104 3.90696 17.4877 15.0712
482 1 -1.1104 6.69654 17.4876 17.8606
624 1 -1.1104 6.69451 14.6954 23.4387
481 1 -1.1104 6.69461 14.6964 15.0709
336 2 2.2208 2.51123 16.0925 27.6234
9176 2 2.2208 13.6692 16.0934 27.6234
477 1 -1.1104 3.90888 20.2781 20.65
514 1 -1.1104 9.48406 14.6961 20.6491
490 1 -1.1104 6.69872 20.2795 15.0717
476 1 -1.1104 6.69454 14.6961 17.8598
323 2 2.2208 2.50358 4.92675 27.622
483 1 -1.1104 6.69864 20.279 17.8604
485 1 -1.1104 6.6985 20.2783 20.6504
484 1 -1.1104 6.69661 17.488 15.0708
511 1 -1.1104 9.48819 20.279 20.6497
491 2 2.2208 10.8819 18.8864 16.4658
492 1 -1.1104 12.2735 14.6972 17.8597
493 1 -1.1104 12.2777 20.2813 17.8601
494 1 -1.1104 12.2736 14.6975 15.0709
495 1 -1.1104 12.2777 20.2821 15.0716
496 1 -1.1104 12.2755 17.4891 17.8605
497 2 2.2208 10.8798 16.094 19.2548
498 2 2.2208 10.8839 21.6775 19.2554
499 1 -1.1104 12.2756 17.4897 15.0707
500 1 -1.1104 9.48408 14.6965 17.8602
501 1 -1.1104 9.48819 20.2799 17.8609
502 2 2.2208 8.09234 18.8849 19.2552
503 1 -1.1104 9.4841 14.6969 15.0704
504 1 -1.1104 9.48836 20.2807 15.071
505 2 2.2208 8.09035 16.0938 16.4655
506 2 2.2208 8.09453 21.6771 16.4661
507 1 -1.1104 9.48615 17.4883 17.86
508 1 -1.1104 9.48621 17.4887 15.0713
486 1 -1.1104 6.69453 14.6957 20.6497
647 1 -1.1104 6.69651 17.4867 23.4395
489 1 -1.1104 12.2756 17.4883 20.6493
366 1 -1.1104 3.89736 3.5295 20.648
360 1 -1.1104 1.10417 -2.05374 20.648
358 1 -1.1104 3.89553 0.737887 20.6482
368 1 -1.1104 6.68688 3.52953 20.6484
651 1 -1.1104 9.48605 17.4871 23.439
316 2 2.2208 5.2988 13.3011 27.623
332 2 2.2208 5.29495 7.71827 27.6223
519 2 2.2208 5.2912 2.13521 22.0428
520 1 -1.1104 1.10412 -2.05373 23.437
521 1 -1.1104 1.10789 3.52947 23.4374
522 1 -1.1104 1.10415 -2.0537 26.2269
523 1 -1.1104 1.10793 3.52944 26.2273
524 1 -1.1104 1.10605 0.73787 23.4376
525 2 2.2208 5.2893 -0.656397 24.832
526 1 -1.1104 1.106 0.737879 26.2267
527 1 -1.1104 3.89364 -2.05372 23.4374
528 1 -1.1104 3.89741 3.52944 23.4378
529 2 2.2208 2.50171 2.13518 24.8323
530 1 -1.1104 3.89357 -2.05368 26.2265
531 1 -1.1104 3.89735 3.52944 26.2269
532 2 2.2208 2.49984 -0.656404 22.0426
533 2 2.2208 2.50358 4.9268 22.043
534 1 -1.1104 3.89549 0.737861 23.4372
535 1 -1.1104 3.89552 0.737881 26.2271
536 2 2.2208 5.29307 4.92675 24.8325
542 1 -1.1104 6.68307 -2.05373 23.437
364 1 -1.1104 6.68311 -2.05375 20.648
369 1 -1.1104 6.68497 0.737898 20.6478
324 2 2.2208 2.49981 -0.65636 27.6215
331 2 2.2208 2.50737 10.5097 27.6226
571 2 2.2208 10.8839 21.6757 24.8346
393 1 -1.1104 12.2658 3.5297 20.6483
488 1 -1.1104 9.484 14.6955 26.2282
512 1 -1.1104 9.48604 17.4876 20.65
538 1 -1.1104 6.68496 0.737895 26.2267
548 1 -1.1104 6.68685 3.52946 23.4374
546 1 -1.1104 6.6869 3.52945 26.2273
537 1 -1.1104 6.6831 -2.05369 26.2269
543 1 -1.1104 6.68501 0.73787 23.4376
392 1 -1.1104 9.47446 0.737918 20.6482
549 1 -1.1104 12.262 -2.05378 20.648
550 2 2.2208 10.8701 2.13529 22.0428
551 1 -1.1104 12.262 -2.05377 23.437
552 1 -1.1104 12.2658 3.52963 23.4374
553 1 -1.1104 12.262 -2.05372 26.2268
554 1 -1.1104 12.2658 3.5296 26.2273
555 1 -1.1104 12.2639 0.737936 23.4376
556 2 2.2208 10.8682 -0.656377 24.832
557 2 2.2208 10.872 4.92691 24.8325
558 1 -1.1104 12.2638 0.737951 26.2266
559 1 -1.1104 9.47257 -2.05376 23.4374
560 1 -1.1104 9.47636 3.52953 23.4378
561 2 2.2208 8.08065 2.13522 24.8322
562 1 -1.1104 9.47252 -2.05369 26.2265
563 1 -1.1104 9.4763 3.52953 26.2269
564 2 2.2208 8.07877 -0.656406 22.0426
565 2 2.2208 8.08254 4.92686 22.043
566 1 -1.1104 9.47443 0.737901 23.4372
567 1 -1.1104 9.47447 0.737918 26.227
322 2 2.2208 8.07876 -0.656353 27.6215
427 1 -1.1104 3.89925 6.32109 20.6487
333 2 2.2208 10.8778 13.3015 27.623
416 1 -1.1104 1.10974 6.32114 20.6483
421 1 -1.1104 1.11163 9.11274 20.6489
573 2 2.2208 5.29494 7.71837 22.0433
574 2 2.2208 5.29878 13.3014 22.044
575 1 -1.1104 1.11162 9.11256 23.438
576 1 -1.1104 1.11169 9.11251 26.2279
577 1 -1.1104 1.10979 6.32103 23.4381
578 1 -1.1104 1.11355 11.9041 23.4387
579 2 2.2208 5.29686 10.5098 24.8331
580 1 -1.1104 1.10974 6.32099 26.2272
581 1 -1.1104 1.11352 11.904 26.2278
582 1 -1.1104 3.90117 9.1125 23.4384
583 2 2.2208 2.50546 7.71828 24.8328
584 2 2.2208 2.50926 13.3012 24.8335
585 1 -1.1104 3.90112 9.11243 26.2275
586 2 2.2208 2.50733 10.5099 22.0436
587 1 -1.1104 3.89924 6.32099 23.4377
588 1 -1.1104 3.90302 11.9039 23.4383
589 1 -1.1104 3.89929 6.32095 26.2276
590 1 -1.1104 3.90311 11.9038 26.2282
591 1 -1.1104 6.6926 11.904 23.4388
596 1 -1.1104 6.69253 11.9039 26.2278
9244 2 2.2208 13.6712 18.8865 19.255
595 1 -1.1104 6.69069 9.11248 26.2279
593 1 -1.1104 6.68878 6.32103 23.4381
334 2 2.2208 8.08635 10.5098 27.6226
603 1 -1.1104 12.2715 11.9049 20.6487
453 1 -1.1104 9.47822 6.32125 20.6486
626 1 -1.1104 12.2755 17.4876 23.4394
422 1 -1.1104 6.69255 11.9042 20.6488
592 1 -1.1104 6.69062 9.11255 23.438
572 2 2.2208 8.09436 21.6755 22.0451
428 1 -1.1104 6.69065 9.1127 20.6489
597 1 -1.1104 6.68872 6.32099 26.2271
600 1 -1.1104 12.2676 6.32143 20.6482
452 1 -1.1104 12.2696 9.11315 20.6489
451 1 -1.1104 9.4801 9.11289 20.6485
604 1 -1.1104 9.48015 9.11271 23.4384
605 1 -1.1104 12.2715 11.9044 26.2277
606 1 -1.1104 12.2676 6.32124 26.2271
607 2 2.2208 10.8758 10.5101 24.8331
608 1 -1.1104 12.2715 11.9045 23.4387
609 1 -1.1104 12.2677 6.3213 23.438
610 1 -1.1104 12.2696 9.11283 26.2279
611 1 -1.1104 12.2696 9.11295 23.4379
612 1 -1.1104 9.48209 11.9041 26.2283
613 1 -1.1104 9.47825 6.32109 26.2275
614 1 -1.1104 9.48205 11.9042 23.4383
615 1 -1.1104 9.47821 6.32115 23.4376
616 2 2.2208 8.08634 10.51 22.0436
617 1 -1.1104 9.48009 9.11264 26.2274
618 2 2.2208 8.0883 13.3013 24.8335
619 2 2.2208 8.08445 7.71837 24.8328
620 2 2.2208 10.8739 7.71864 22.0433
621 2 2.2208 10.8778 13.3019 22.0439
650 1 -1.1104 12.2755 17.4873 26.2285
569 2 2.2208 10.8818 18.8849 22.0446
625 1 -1.1104 6.6986 20.2776 26.2295
9243 2 2.2208 13.6733 21.6799 16.466
474 1 -1.1104 1.11918 20.2785 20.6503
479 1 -1.1104 3.90495 14.6956 20.6492
480 1 -1.1104 1.1173 17.4872 20.6496
622 1 -1.1104 3.90689 17.4869 20.65
623 1 -1.1104 6.69852 20.2778 23.4394
478 1 -1.1104 1.11539 14.6958 20.6496
629 2 2.2208 2.5151 21.6752 22.0451
630 1 -1.1104 3.9069 17.4866 23.4391
631 1 -1.1104 1.11736 17.4868 23.4394
632 1 -1.1104 3.90495 14.6952 26.2282
633 1 -1.1104 3.90699 17.4864 26.2291
634 2 2.2208 2.51318 18.8838 24.8343
635 1 -1.1104 3.90891 20.2776 26.2291
636 2 2.2208 5.30272 18.884 22.0448
637 1 -1.1104 1.11542 14.6955 23.4387
638 1 -1.1104 1.11929 20.278 23.4395
639 2 2.2208 5.30075 16.0925 24.8339
640 2 2.2208 5.3048 21.6748 24.8347
641 1 -1.1104 1.11551 14.6954 26.2286
642 1 -1.1104 1.11736 17.4866 26.2286
643 1 -1.1104 1.11944 20.2779 26.2294
644 1 -1.1104 3.90499 14.6953 23.4391
645 1 -1.1104 3.90892 20.2777 23.4399
646 2 2.2208 2.51117 16.0928 22.0444
330 2 2.2208 10.8701 2.1353 27.6217
602 1 -1.1104 9.48608 17.4868 26.2291
601 2 2.2208 8.09231 18.884 24.8343
652 1 -1.1104 12.2776 20.2786 26.2294
594 1 -1.1104 12.2735 14.6961 23.4386
509 1 -1.1104 9.48808 20.278 26.2289
541 1 -1.1104 12.2735 14.6959 26.2286
628 1 -1.1104 6.69457 14.6953 26.2287
648 2 2.2208 8.09028 16.093 22.0444
653 1 -1.1104 9.48405 14.6957 23.4391
544 1 -1.1104 12.2776 20.2791 23.4391
513 1 -1.1104 12.2735 14.6966 20.6496
510 2 2.2208 10.8798 16.0931 24.8338
475 1 -1.1104 6.69652 17.4871 20.6495
627 1 -1.1104 6.69648 17.4865 26.2286
328 2 2.2208 8.08253 4.92681 27.622
320 2 2.2208 13.6652 10.5103 27.6226
9177 2 2.2208 13.6733 21.6762 27.6242
321 2 2.2208 10.8739 7.7185 27.6222
394 2 2.2208 13.6595 2.13542 19.2533
547 2 2.2208 13.6576 -0.656378 22.0426
599 2 2.2208 13.6652 10.5105 22.0435
429 2 2.2208 13.6633 7.71898 19.2538
455 2 2.2208 13.6576 -0.65633 16.4637
318 2 2.2208 13.6576 -0.656332 27.6215
568 2 2.2208 13.6595 2.13533 24.8322
365 2 2.2208 13.6614 4.92708 22.043
598 2 2.2208 13.6633 7.71868 24.8327
329 2 2.2208 13.6614 4.92701 27.6219
8791 2 2.2208 8.07686 -3.448 24.8319
8816 2 2.2208 2.49792 -3.44798 24.8319
8815 2 2.2208 13.6557 -3.44808 24.8318
8819 2 2.2208 13.6557 -3.44814 19.253
8736 2 2.2208 5.28738 -3.44801 16.4636
8737 2 2.2208 2.49793 -3.44803 19.253
8825 2 2.2208 8.07687 -3.44806 19.253
8500 2 2.2208 5.28739 -3.44793 27.6213
8820 2 2.2208 10.8663 -3.44807 16.4636
8494 2 2.2208 10.8663 -3.448 27.6213
8790 2 2.2208 10.8663 -3.44809 22.0424
8716 2 2.2208 5.28741 -3.44802 22.0424
676 2 2.2208 5.30714 24.4666 5.30949
677 2 2.2208 5.31217 30.0485 5.31068
678 1 -1.1104 1.1235 25.86 1.12522
679 1 -1.1104 1.12369 25.8606 3.91513
680 1 -1.1104 1.12157 23.0691 1.12507
681 1 -1.1104 1.12601 28.6509 1.12621
682 2 2.2208 5.30947 27.257 2.5207
683 1 -1.1104 1.12134 23.0695 3.91427
684 1 -1.1104 1.12569 28.6515 3.91533
685 1 -1.1104 3.91338 25.8596 1.12572
686 2 2.2208 2.51747 24.4662 2.52
687 2 2.2208 2.52249 30.048 2.52128
688 1 -1.1104 3.91315 25.86 3.91476
689 2 2.2208 2.51973 27.2578 5.30998
690 1 -1.1104 3.91099 23.0687 1.12472
691 1 -1.1104 3.91541 28.6503 1.12589
692 1 -1.1104 3.91122 23.0691 3.91467
693 1 -1.1104 3.91575 28.6507 3.91587
694 1 -1.1104 6.7028 25.8595 1.12526
695 1 -1.1104 6.70081 23.0687 1.12523
1338 2 2.2208 2.52064 30.0498 13.678
855 1 -1.1104 9.41297 48.0688 6.71856
1353 2 2.2208 8.10512 35.6361 13.6779
10187 2 2.2208 13.6791 30.0629 13.6777
703 1 -1.1104 3.91335 25.8605 6.70467
702 1 -1.1104 1.12569 28.6522 6.70511
699 1 -1.1104 1.12326 25.8613 6.70426
704 1 -1.1104 1.12149 23.0701 6.70403
826 2 2.2208 13.6601 41.2939 13.659
1349 2 2.2208 5.31327 32.8402 13.6783
697 1 -1.1104 6.70523 28.6506 3.91539
696 1 -1.1104 6.70316 25.86 3.9154
707 1 -1.1104 6.70066 23.0691 3.91424
708 1 -1.1104 6.70537 28.6503 1.12655
709 2 2.2208 10.8863 24.4681 5.30976
710 2 2.2208 10.891 30.0511 5.31134
711 1 -1.1104 12.2818 25.8609 1.12518
712 1 -1.1104 12.2824 25.8618 3.91573
713 1 -1.1104 12.2799 23.0699 1.12528
714 1 -1.1104 12.2844 28.6518 1.12646
715 2 2.2208 10.8884 27.2583 2.52088
716 1 -1.1104 12.2797 23.0705 3.91439
717 1 -1.1104 12.2842 28.6528 3.91572
718 1 -1.1104 9.49264 25.8601 1.12588
719 2 2.2208 8.09669 24.4664 2.52012
720 2 2.2208 8.1015 30.0484 2.52167
721 1 -1.1104 9.49248 25.8607 3.91487
722 2 2.2208 8.09914 27.2583 5.31024
723 1 -1.1104 9.4902 23.0691 1.12468
724 1 -1.1104 9.49462 28.6509 1.1259
725 1 -1.1104 9.49054 23.0697 3.91493
726 1 -1.1104 9.49527 28.6516 3.91634
731 1 -1.1104 12.2819 25.8636 6.70465
733 1 -1.1104 12.285 28.6553 6.70642
9793 2 2.2208 13.6778 27.261 5.31057
1351 2 2.2208 10.8926 32.854 13.6778
1346 2 2.2208 8.1014 30.053 13.678
1341 2 2.2208 5.30911 27.2592 13.6777
904 2 2.2208 8.07353 46.7495 8.04232
737 2 2.2208 5.31961 35.6309 5.31239
738 1 -1.1104 1.12829 31.4415 1.1263
739 1 -1.1104 1.13515 37.0229 1.12721
740 1 -1.1104 1.12857 31.4421 3.91635
741 1 -1.1104 1.13584 37.0234 3.91784
742 1 -1.1104 1.13161 34.2325 1.12772
743 2 2.2208 5.31519 32.8391 2.5225
744 2 2.2208 5.32442 38.4238 2.52491
745 1 -1.1104 1.13149 34.2326 3.91612
746 1 -1.1104 3.91826 31.4412 1.12725
747 1 -1.1104 3.92483 37.0236 1.12953
748 2 2.2208 2.5302 35.6301 2.52293
749 1 -1.1104 3.91809 31.4413 3.91591
750 1 -1.1104 3.92513 37.0226 3.91681
751 2 2.2208 2.52579 32.8394 5.31114
752 2 2.2208 2.53766 38.4212 5.31202
753 1 -1.1104 3.92086 34.2318 1.12735
754 1 -1.1104 3.92144 34.232 3.91752
761 1 -1.1104 6.7075 31.441 1.12676
766 1 -1.1104 6.71072 34.2322 1.12863
764 1 -1.1104 6.71437 37.021 6.70664
759 1 -1.1104 6.71078 34.2316 3.91675
910 1 -1.1104 1.13127 34.2331 6.70642
827 1 -1.1104 12.2834 39.9444 12.2848
9785 2 2.2208 13.6871 38.4268 5.31216
967 1 -1.1104 6.72835 48.0546 9.38104
767 1 -1.1104 6.71433 37.0225 3.91888
758 1 -1.1104 6.7136 37.0235 1.12855
757 1 -1.1104 6.70818 31.4412 3.91684
9784 2 2.2208 13.6839 35.6324 2.52317
768 2 2.2208 10.8962 35.6348 5.31353
769 1 -1.1104 12.2863 31.4425 1.12651
770 1 -1.1104 12.2911 37.0238 1.1282
771 1 -1.1104 12.2874 31.4436 3.9174
772 1 -1.1104 12.2933 37.0234 3.91825