ITEM: TIMESTEP
349
ITEM: NUMBER OF ATOMS
17660
ITEM: BOX BOUNDS pp pp pp
-2.7717828229332220e-01 2.7617178282293317e+01
-3.4472205766305355e+00 3.3152722057663055e+02
-2.7717827830221448e-01 2.7617178278302212e+01
ITEM: ATOMS id type q x y z
1 2 2.2208 5.29941 2.13813 5.3072
2 1 -1.1104 1.11169 -2.05073 1.12267
3 1 -1.1104 1.11641 3.53263 1.12275
4 1 -1.1104 1.1117 -2.05072 3.91265
5 1 -1.1104 1.11638 3.53268 3.91272
6 1 -1.1104 1.11406 0.740948 1.12321
7 2 2.2208 5.29707 -0.653583 2.51766
8 2 2.2208 5.3018 4.92979 2.51782
9 1 -1.1104 1.11403 0.741001 3.91219
10 1 -1.1104 3.90115 -2.05073 1.12315
11 1 -1.1104 3.90589 3.53262 1.12329
12 2 2.2208 2.50996 2.13811 2.51772
13 1 -1.1104 3.90115 -2.05073 3.9121
14 1 -1.1104 3.90583 3.53264 3.91225
15 2 2.2208 2.50759 -0.65356 5.30713
16 2 2.2208 2.51227 4.92986 5.30723
17 1 -1.1104 3.90352 0.740964 1.1227
18 1 -1.1104 3.90351 0.740959 3.91267
24 1 -1.1104 3.90584 3.53273 6.70219
31 1 -1.1104 3.90115 -2.05072 6.70207
287 2 2.2208 10.8736 -3.44534 10.886
9064 2 2.2208 -0.27715 4.92984 2.51777
19 1 -1.1104 1.11632 3.53278 6.70167
23 1 -1.1104 3.90347 0.740999 6.70162
25 1 -1.1104 1.11168 -2.05069 6.70158
254 2 2.2208 13.663 -3.44536 2.51761
52 1 -1.1104 6.69059 -2.05074 6.70154
324 1 -1.1104 6.70734 17.4915 9.4914
26 1 -1.1104 6.69061 -2.05074 1.12264
28 1 -1.1104 6.69536 3.53263 1.12283
27 1 -1.1104 6.69296 0.740955 3.9122
33 1 -1.1104 6.69534 3.53265 3.91281
32 1 -1.1104 6.69301 0.740958 1.12326
21 1 -1.1104 6.69062 -2.05075 3.9126
34 2 2.2208 10.8783 2.13819 5.30724
35 1 -1.1104 12.2695 -2.0508 1.12266
36 1 -1.1104 12.2743 3.53269 1.12281
37 1 -1.1104 12.2695 -2.05076 3.91265
38 1 -1.1104 12.2743 3.53274 3.91281
39 1 -1.1104 12.2719 0.74094 1.12325
40 2 2.2208 10.876 -0.653596 2.51769
41 2 2.2208 10.8807 4.92986 2.51784
42 1 -1.1104 12.2719 0.741007 3.91219
43 1 -1.1104 9.48009 -2.05078 1.12317
44 1 -1.1104 9.48485 3.53265 1.12335
45 2 2.2208 8.0889 2.13813 2.51778
46 1 -1.1104 9.48005 -2.05073 3.91212
47 1 -1.1104 9.48478 3.53271 3.9123
48 2 2.2208 8.08652 -0.653584 5.30713
49 2 2.2208 8.09122 4.92988 5.30731
50 1 -1.1104 9.48244 0.740956 1.12276
51 1 -1.1104 9.48245 0.740989 3.91274
54 1 -1.1104 12.2742 3.53285 6.70175
174 2 2.2208 -0.267754 16.0963 2.51793
259 2 2.2208 13.6631 -3.44536 8.09654
56 1 -1.1104 12.2695 -2.05075 6.7016
53 1 -1.1104 6.69529 3.53272 6.70173
57 1 -1.1104 12.2719 0.74103 6.70216
201 1 -1.1104 9.48009 -2.05074 6.70208
55 1 -1.1104 9.48241 0.740997 6.70169
9114 2 2.2208 -0.274851 7.72165 5.30729
62 2 2.2208 5.30411 7.72155 5.30733
63 2 2.2208 5.30893 13.3047 5.30743
64 1 -1.1104 1.12111 9.11592 1.12288
65 1 -1.1104 1.12108 9.116 3.91284
66 1 -1.1104 1.1188 6.32429 1.12331
67 1 -1.1104 1.12348 11.9075 1.12337
68 2 2.2208 5.30653 10.513 2.5179
69 1 -1.1104 1.11871 6.32437 3.9123
70 1 -1.1104 1.1234 11.9076 3.91243
71 1 -1.1104 3.91062 9.11583 1.12337
72 2 2.2208 2.51468 7.72144 2.51784
73 2 2.2208 2.5194 13.3046 2.51792
74 1 -1.1104 3.91053 9.11594 3.91238
75 2 2.2208 2.51699 10.5132 5.30737
76 1 -1.1104 3.90825 6.32425 1.12284
77 1 -1.1104 3.91296 11.9073 1.12291
78 1 -1.1104 3.90823 6.32431 3.91281
79 1 -1.1104 3.91296 11.9075 3.91291
84 1 -1.1104 1.121 9.11621 6.70181
87 1 -1.1104 6.70253 11.9078 6.70243
61 2 2.2208 -0.270124 13.305 5.30741
85 2 2.2208 -0.272449 10.5132 2.51788
231 1 -1.1104 3.90812 6.32445 6.70173
81 1 -1.1104 1.11868 6.32449 6.70224
82 1 -1.1104 3.91057 9.11614 6.70234
198 1 -1.1104 9.49937 20.2839 9.49151
88 1 -1.1104 6.70011 9.11583 1.12288
91 1 -1.1104 6.69768 6.32434 3.91235
92 1 -1.1104 6.7025 11.9073 1.12341
90 1 -1.1104 6.69775 6.32426 1.12339
89 1 -1.1104 6.70244 11.9075 3.91241
93 1 -1.1104 6.70006 9.11596 3.9129
94 2 2.2208 10.8831 7.72169 5.30737
95 2 2.2208 10.8879 13.3051 5.3075
96 1 -1.1104 12.279 9.11607 1.12289
97 1 -1.1104 12.279 9.11619 3.91295
98 1 -1.1104 12.2767 6.32438 1.12338
99 1 -1.1104 12.2814 11.9077 1.12345
100 2 2.2208 10.8855 10.5132 2.51794
101 1 -1.1104 12.2766 6.32448 3.91232
102 1 -1.1104 12.2814 11.9079 3.91244
103 1 -1.1104 9.48961 9.11592 1.12344
104 2 2.2208 8.09364 7.72147 2.51789
105 2 2.2208 8.09844 13.3046 2.51796
106 1 -1.1104 9.48951 9.11606 3.91241
107 2 2.2208 8.09602 10.5133 5.30742
108 1 -1.1104 9.48719 6.32431 1.12288
109 1 -1.1104 9.49197 11.9075 1.12292
110 1 -1.1104 9.48719 6.3244 3.91289
111 1 -1.1104 9.492 11.9077 3.91301
113 1 -1.1104 12.2766 6.32464 6.70231
115 1 -1.1104 12.2815 11.9083 6.7025
116 2 2.2208 -0.263019 21.679 2.51794
172 2 2.2208 -0.265394 18.8882 5.30749
117 2 2.2208 5.31375 18.8876 5.3075
118 1 -1.1104 1.1258 14.6989 1.12293
119 1 -1.1104 1.13048 20.2816 1.12293
120 1 -1.1104 1.12583 14.6991 3.91292
121 1 -1.1104 1.13054 20.2819 3.91297
122 1 -1.1104 1.12814 17.4903 1.12338
123 2 2.2208 5.31131 16.0959 2.51794
124 2 2.2208 5.31613 21.6783 2.51798
125 1 -1.1104 1.12811 17.4906 3.91252
126 1 -1.1104 3.91534 14.6988 1.1234
127 1 -1.1104 3.92007 20.2812 1.12337
128 2 2.2208 2.52412 18.8873 2.51795
129 1 -1.1104 3.9153 14.699 3.91244
130 1 -1.1104 3.92003 20.2815 3.91249
131 2 2.2208 2.52178 16.0963 5.30746
132 2 2.2208 2.52654 21.679 5.30752
133 1 -1.1104 3.91766 17.4901 1.1229
134 1 -1.1104 3.91775 17.4903 3.91297
137 1 -1.1104 1.12821 17.4911 6.70246
135 1 -1.1104 1.12576 14.6995 6.70194
139 1 -1.1104 3.91542 14.6993 6.70243
138 1 -1.1104 1.13039 20.2825 6.70212
146 1 -1.1104 6.70491 14.699 3.91298
168 1 -1.1104 6.70971 20.2821 6.70205
140 1 -1.1104 3.91768 17.4908 6.702
173 1 -1.1104 12.2891 20.285 9.49234
143 1 -1.1104 6.70726 17.4903 3.91246
136 1 -1.1104 6.70725 17.4901 1.12342
145 1 -1.1104 6.70978 20.2815 3.91307
144 1 -1.1104 6.7049 14.6994 6.70193
142 1 -1.1104 6.70486 14.6988 1.12289
147 1 -1.1104 6.70965 20.2812 1.12287
169 1 -1.1104 6.70743 17.4909 6.70256
148 2 2.2208 10.8929 18.8884 5.30766
149 1 -1.1104 12.2838 14.6993 1.12292
150 1 -1.1104 12.2887 20.282 1.12289
151 1 -1.1104 12.2839 14.6996 3.91309
152 1 -1.1104 12.2889 20.2826 3.91329
153 1 -1.1104 12.2863 17.4907 1.12355
154 2 2.2208 10.8903 16.0964 2.51801
155 2 2.2208 10.8953 21.6791 2.51811
156 1 -1.1104 12.2863 17.4911 3.91256
157 1 -1.1104 9.49441 14.699 1.12348
158 1 -1.1104 9.49924 20.2815 1.12351
159 2 2.2208 8.10328 18.8873 2.51799
160 1 -1.1104 9.49436 14.6992 3.91249
161 1 -1.1104 9.49925 20.2819 3.91254
162 2 2.2208 8.1009 16.0964 5.30751
163 2 2.2208 8.10584 21.6791 5.30764
164 1 -1.1104 9.49676 17.4903 1.1229
165 1 -1.1104 9.49692 17.4906 3.91314
166 1 -1.1104 9.49453 14.6997 6.70259
170 1 -1.1104 9.49684 17.4912 6.70206
320 1 -1.1104 12.2865 17.4919 6.70275
171 1 -1.1104 9.49955 20.2827 6.70281
167 1 -1.1104 12.2888 20.2836 6.70222
20 1 -1.1104 1.11401 0.741043 6.70213
204 2 2.2208 2.50523 -3.44527 2.51762
176 2 2.2208 5.29937 2.13828 10.8861
177 1 -1.1104 1.11161 -2.0507 12.2804
178 1 -1.1104 1.1163 3.53293 12.2805
179 1 -1.1104 1.11166 -2.0507 9.49152
180 1 -1.1104 1.11632 3.53287 9.49159
181 1 -1.1104 1.11399 0.741098 12.281
182 2 2.2208 5.29704 -0.653553 8.09657
183 2 2.2208 5.30172 4.92996 8.0967
184 1 -1.1104 1.11399 0.741081 9.49107
185 1 -1.1104 3.90109 -2.0507 12.2809
186 1 -1.1104 3.90579 3.53291 12.281
187 2 2.2208 2.50991 2.13822 8.09661
188 1 -1.1104 3.90112 -2.0507 9.49101
189 1 -1.1104 3.90577 3.53283 9.49111
190 2 2.2208 2.50755 -0.653514 10.886
191 2 2.2208 2.51223 4.93008 10.8861
192 1 -1.1104 3.90344 0.741101 12.2805
193 1 -1.1104 3.90348 0.741065 9.49155
175 2 2.2208 10.8736 -3.44533 5.30707
292 2 2.2208 13.6654 -0.653496 10.886
9088 2 2.2208 -0.27723 4.93003 8.09667
313 2 2.2208 13.6677 2.1383 8.09666
312 2 2.2208 8.08417 -3.44532 2.5176
322 2 2.2208 13.6654 -0.653554 5.30713
329 2 2.2208 13.6678 2.13818 2.51774
229 1 -1.1104 12.2865 17.4936 12.2814
265 2 2.2208 2.50522 -3.44528 8.09652
197 1 -1.1104 12.2839 14.7013 12.2807
29 1 -1.1104 6.69297 0.740985 6.70216
209 1 -1.1104 6.69293 0.741113 12.281
205 1 -1.1104 6.69053 -2.0507 12.2804
195 1 -1.1104 6.69061 -2.05073 9.4915
208 1 -1.1104 6.69292 0.741059 9.49109
58 1 -1.1104 9.48478 3.53276 6.70228
206 1 -1.1104 6.69528 3.53284 9.49167
207 1 -1.1104 6.69525 3.53293 12.2806
210 2 2.2208 10.8783 2.13831 10.8861
211 1 -1.1104 12.2694 -2.05072 12.2805
212 1 -1.1104 12.2742 3.53305 12.2806
213 1 -1.1104 12.2695 -2.05075 9.49156
214 1 -1.1104 12.2742 3.53295 9.49169
215 1 -1.1104 12.2718 0.741159 12.281
216 2 2.2208 10.876 -0.653549 8.09661
217 2 2.2208 10.8806 4.93008 8.09675
218 1 -1.1104 12.2718 0.741095 9.4911
219 1 -1.1104 9.48001 -2.05071 12.281
220 1 -1.1104 9.48474 3.53296 12.2811
221 2 2.2208 8.08885 2.13821 8.09668
222 1 -1.1104 9.48005 -2.05073 9.49102
223 1 -1.1104 9.48471 3.53289 9.49119
224 2 2.2208 8.08648 -0.65353 10.886
225 2 2.2208 8.09119 4.9301 10.8861
226 1 -1.1104 9.48237 0.741112 12.2806
227 1 -1.1104 9.48241 0.741062 9.49164
228 2 2.2208 5.29466 -3.4453 10.8859
202 1 -1.1104 9.49707 17.4921 9.4921
80 1 -1.1104 1.12344 11.9079 6.70237
257 2 2.2208 -0.272517 10.5136 8.09679
255 2 2.2208 8.08414 -3.44532 8.09649
9062 2 2.2208 -0.274879 7.72199 10.8861
256 2 2.2208 -0.270156 13.3057 10.8862
83 1 -1.1104 3.9129 11.9078 6.70188
233 2 2.2208 5.30409 7.72187 10.8861
234 2 2.2208 5.30894 13.3054 10.8862
235 1 -1.1104 1.12103 9.11662 12.2806
236 1 -1.1104 1.12103 9.11645 9.49171
237 1 -1.1104 1.11866 6.32478 12.2811
238 1 -1.1104 1.12342 11.9085 12.2811
239 2 2.2208 5.3065 10.5134 8.09682
240 1 -1.1104 1.11863 6.32465 9.49118
241 1 -1.1104 1.12336 11.9082 9.49128
242 1 -1.1104 3.91057 9.11652 12.2811
243 2 2.2208 2.51459 7.72173 8.09672
244 2 2.2208 2.51938 13.3052 8.09685
245 1 -1.1104 3.91049 9.11637 9.49121
246 2 2.2208 2.51698 10.5137 10.8862
247 1 -1.1104 3.90812 6.32471 12.2805
248 1 -1.1104 3.91293 11.9083 12.2806
249 1 -1.1104 3.90816 6.32461 9.49166
250 1 -1.1104 3.91299 11.9081 9.4918
203 2 2.2208 5.29469 -3.44529 5.30706
319 1 -1.1104 9.49446 14.7002 9.49137
260 1 -1.1104 9.49957 20.2848 12.2815
261 1 -1.1104 9.48708 6.32453 6.70181
267 1 -1.1104 6.69766 6.32447 6.70231
263 1 -1.1104 12.279 9.11647 6.70186
268 1 -1.1104 6.69761 6.32461 9.49119
112 1 -1.1104 6.70002 9.11616 6.70184
251 1 -1.1104 6.70252 11.9084 12.2812
266 1 -1.1104 6.70005 9.11658 12.2806
262 1 -1.1104 9.49195 11.908 6.70193
114 1 -1.1104 9.48958 9.11627 6.70242
253 1 -1.1104 6.70248 11.9081 9.49129
252 1 -1.1104 6.69764 6.32476 12.2811
264 1 -1.1104 6.70007 9.1164 9.49179
269 1 -1.1104 9.49207 11.9084 9.49192
270 1 -1.1104 9.48714 6.32471 9.49176
271 1 -1.1104 9.492 11.9087 12.2807
272 1 -1.1104 9.48708 6.32484 12.2806
273 2 2.2208 8.09603 10.5138 10.8862
274 1 -1.1104 9.48951 9.11654 9.49128
275 2 2.2208 8.09849 13.3053 8.09692
276 2 2.2208 8.09359 7.72176 8.0968
277 2 2.2208 10.883 7.72208 10.8862
278 2 2.2208 10.888 13.306 10.8863
279 1 -1.1104 12.279 9.11701 12.2806
280 1 -1.1104 12.279 9.11675 9.49183
281 1 -1.1104 12.2766 6.325 12.2812
282 1 -1.1104 12.2815 11.9091 12.2812
283 2 2.2208 10.8855 10.5137 8.09687
284 1 -1.1104 12.2765 6.32485 9.49121
285 1 -1.1104 12.2814 11.9087 9.49131
286 1 -1.1104 9.48958 9.11675 12.2812
200 2 2.2208 10.8929 18.8901 10.8864
196 1 -1.1104 9.49454 14.7007 12.2813
141 1 -1.1104 3.92019 20.2821 6.70252
311 2 2.2208 -0.267764 16.0971 8.09691
290 1 -1.1104 6.70995 20.283 9.4921
59 1 -1.1104 12.2889 20.2863 12.2807
289 2 2.2208 -0.265523 18.8894 10.8863
288 2 2.2208 -0.263156 21.6805 8.097
293 1 -1.1104 3.91531 14.6998 9.49133
294 1 -1.1104 1.12811 17.4921 12.2812
295 2 2.2208 2.52177 16.0972 10.8863
296 2 2.2208 2.52642 21.6805 10.8863
297 1 -1.1104 3.9177 17.4918 12.2807
298 1 -1.1104 3.92012 20.2835 12.2813
299 1 -1.1104 3.91537 14.7001 12.2812
300 1 -1.1104 1.13047 20.2833 9.49192
301 1 -1.1104 1.12808 17.4917 9.49146
302 2 2.2208 5.31623 21.6796 8.09704
303 1 -1.1104 1.12582 14.7 9.4918
304 2 2.2208 5.31138 16.0967 8.09692
305 1 -1.1104 1.13029 20.2839 12.2808
306 1 -1.1104 1.12572 14.7003 12.2807
307 2 2.2208 5.31378 18.8889 10.8863
308 1 -1.1104 3.92003 20.2829 9.49147
309 2 2.2208 2.52414 18.8883 8.09697
310 1 -1.1104 3.91783 17.4914 9.49191
22 2 2.2208 10.8954 21.6811 8.09726
60 1 -1.1104 6.70501 14.6998 9.49191
328 2 2.2208 8.10096 16.0975 10.8863
230 1 -1.1104 6.70981 20.2838 12.2807
318 1 -1.1104 12.2864 17.4928 9.49148
321 1 -1.1104 12.2839 14.7001 6.70199
315 1 -1.1104 6.70743 17.492 12.2813
323 2 2.2208 10.8905 16.0974 8.09703
327 2 2.2208 8.10593 21.6811 10.8864
258 1 -1.1104 9.49697 17.4927 12.2807
325 1 -1.1104 6.70493 14.7002 12.2807
326 2 2.2208 8.1034 18.8886 8.09704
86 1 -1.1104 12.284 14.7007 9.49202
342 2 2.2208 5.31365 18.8871 -0.271641
337 2 2.2208 5.3042 7.72137 -0.271632
194 2 2.2208 13.6654 -0.653622 -0.271809
30 2 2.2208 10.8736 -3.44536 -0.271856
334 2 2.2208 2.51235 4.92976 -0.271681
332 2 2.2208 2.50762 -0.653586 -0.271797
199 2 2.2208 8.08654 -0.6536 -0.271772
232 2 2.2208 10.8784 2.13811 -0.271696
335 2 2.2208 8.0913 4.92977 -0.27164
344 2 2.2208 5.2947 -3.44529 -0.271858
331 2 2.2208 -0.270086 13.3047 -0.271629
9167 2 2.2208 -0.274759 7.72148 -0.271647
338 2 2.2208 5.30891 13.3044 -0.271611
333 2 2.2208 5.29946 2.1381 -0.271708
336 2 2.2208 2.51706 10.513 -0.27162
340 2 2.2208 10.8831 7.7215 -0.271602
341 2 2.2208 10.8879 13.3047 -0.271597
339 2 2.2208 8.09606 10.513 -0.271597
346 2 2.2208 -0.265399 18.8876 -0.271668
345 2 2.2208 2.5265 21.6784 -0.271662
343 2 2.2208 2.52173 16.0959 -0.271625
347 2 2.2208 8.10564 21.6784 -0.271617
348 2 2.2208 8.10081 16.0959 -0.27162
330 2 2.2208 10.8927 18.8876 -0.271617
350 2 2.2208 5.29935 2.13833 16.4649
351 1 -1.1104 1.11161 -2.05073 17.8592
352 1 -1.1104 1.11635 3.5329 17.8593
353 1 -1.1104 1.11161 -2.05071 15.0703
354 1 -1.1104 1.11632 3.53295 15.0704
355 1 -1.1104 1.11397 0.741089 17.8598
356 2 2.2208 5.29699 -0.65349 19.2542
357 2 2.2208 5.30177 4.93002 19.2543
358 1 -1.1104 1.11396 0.741116 15.0699
359 1 -1.1104 3.90108 -2.05065 17.8597
360 1 -1.1104 3.9058 3.53291 17.8598
361 2 2.2208 2.50991 2.13825 19.2542
362 1 -1.1104 3.90106 -2.05067 15.0698
363 1 -1.1104 3.90579 3.53294 15.0699
364 2 2.2208 2.50753 -0.653486 16.4648
365 2 2.2208 2.51226 4.93012 16.4649
366 1 -1.1104 3.90344 0.741126 17.8592
367 1 -1.1104 3.90344 0.741142 15.0704
643 2 2.2208 -0.267773 16.0963 24.8332
567 2 2.2208 10.8735 -3.44535 16.4648
9503 2 2.2208 -0.27717 4.93008 19.2543
376 1 -1.1104 3.90585 3.53276 20.6487
371 1 -1.1104 1.11637 3.53277 20.6492
369 1 -1.1104 3.90344 0.741038 20.6492
378 1 -1.1104 1.11162 -2.05075 20.6492
370 1 -1.1104 3.90107 -2.05071 20.6486
377 1 -1.1104 1.11398 0.741006 20.6487
619 2 2.2208 10.8736 -3.44537 22.0436
385 1 -1.1104 6.69289 0.741135 15.0699
386 1 -1.1104 6.69052 -2.05066 15.0703
384 1 -1.1104 6.69051 -2.05066 17.8592
383 1 -1.1104 6.69528 3.53291 17.8593
382 1 -1.1104 6.69527 3.53297 15.0705
387 1 -1.1104 6.6929 0.741141 17.8598
388 2 2.2208 10.8783 2.13838 16.4649
389 1 -1.1104 12.2694 -2.05076 17.8593
390 1 -1.1104 12.2742 3.53302 17.8594
391 1 -1.1104 12.2694 -2.05072 15.0704
392 1 -1.1104 12.2742 3.5331 15.0705
393 1 -1.1104 12.2718 0.74113 17.8598
394 2 2.2208 10.8759 -0.653543 19.2543
395 2 2.2208 10.8807 4.93014 19.2543
396 1 -1.1104 12.2718 0.741196 15.0699
397 1 -1.1104 9.47997 -2.05071 17.8598
398 1 -1.1104 9.48473 3.53296 17.8599
399 2 2.2208 8.08884 2.13828 19.2543
400 1 -1.1104 9.47997 -2.05068 15.0699
401 1 -1.1104 9.48472 3.53303 15.07
402 2 2.2208 8.08643 -0.653469 16.4648
403 2 2.2208 8.0912 4.93018 16.4649
404 1 -1.1104 9.48236 0.74112 17.8594
405 1 -1.1104 9.48236 0.74117 15.0705
407 1 -1.1104 12.2694 -2.05078 20.6492
565 1 -1.1104 12.2718 0.741055 20.6487
406 1 -1.1104 9.47999 -2.05076 20.6487
372 1 -1.1104 6.69055 -2.05069 20.6492
617 2 2.2208 13.663 -3.44539 19.2542
412 1 -1.1104 6.69531 3.5328 20.6493
441 2 2.2208 -0.272478 10.5137 19.2543
416 2 2.2208 5.30412 7.72194 16.4649
417 2 2.2208 5.30891 13.3055 16.4649
418 1 -1.1104 1.12108 9.11649 17.8593
419 1 -1.1104 1.12106 9.11664 15.0704
420 1 -1.1104 1.1187 6.32472 17.8598
421 1 -1.1104 1.12338 11.9083 17.8598
422 2 2.2208 5.30654 10.5135 19.2543
423 1 -1.1104 1.11871 6.32478 15.0699
424 1 -1.1104 1.12339 11.9085 15.07
425 1 -1.1104 3.91055 9.11643 17.8599
426 2 2.2208 2.51467 7.72177 19.2543
427 2 2.2208 2.51935 13.3052 19.2543
428 1 -1.1104 3.91056 9.11656 15.07
429 2 2.2208 2.51699 10.5137 16.4649
430 1 -1.1104 3.9082 6.32466 17.8593
431 1 -1.1104 3.91297 11.9082 17.8593
432 1 -1.1104 3.90818 6.32476 15.0704
433 1 -1.1104 3.91292 11.9084 15.0705
434 1 -1.1104 1.12108 9.11626 20.6492
439 1 -1.1104 3.91062 9.11618 20.6488
440 2 2.2208 -0.270177 13.3058 16.4649
9486 2 2.2208 -0.274835 7.72202 16.4649
445 1 -1.1104 6.70006 9.11664 15.0705
536 2 2.2208 8.10317 18.8875 24.8331
447 1 -1.1104 6.7025 11.9084 15.07
450 1 -1.1104 6.69767 6.3248 15.07
443 1 -1.1104 6.70011 9.11647 17.8594
449 1 -1.1104 6.69768 6.3247 17.8599
448 1 -1.1104 6.70246 11.9082 17.8599
451 2 2.2208 10.8831 7.72216 16.4649
452 2 2.2208 10.8879 13.3061 16.4649
453 1 -1.1104 12.279 9.11688 17.8593
454 1 -1.1104 12.279 9.11705 15.0705
455 1 -1.1104 12.2766 6.32494 17.8599
456 1 -1.1104 12.2814 11.9089 17.8598
457 2 2.2208 10.8855 10.5138 19.2543
458 1 -1.1104 12.2766 6.32505 15.07
459 1 -1.1104 12.2815 11.9091 15.0699
460 1 -1.1104 9.48956 9.11665 17.8599
461 2 2.2208 8.09364 7.72184 19.2543
462 2 2.2208 8.09844 13.3054 19.2543
463 1 -1.1104 9.48956 9.1168 15.07
464 2 2.2208 8.09604 10.5138 16.4649
465 1 -1.1104 9.48718 6.3248 17.8594
466 1 -1.1104 9.49206 11.9085 17.8593
467 1 -1.1104 9.48715 6.3249 15.0705
468 1 -1.1104 9.492 11.9087 15.0706
469 1 -1.1104 9.48962 9.11636 20.6488
473 1 -1.1104 6.69774 6.32453 20.6488
446 1 -1.1104 6.70252 11.9079 20.6487
471 1 -1.1104 12.279 9.1166 20.6493
470 1 -1.1104 12.2815 11.9084 20.6487
472 1 -1.1104 12.2767 6.32477 20.6487
413 1 -1.1104 12.2886 20.2821 26.2281
498 2 2.2208 -0.265606 18.8896 16.4648
475 2 2.2208 -0.267841 16.0972 19.2542
502 2 2.2208 -0.263353 21.6807 19.254
476 2 2.2208 5.3137 18.889 16.4648
477 1 -1.1104 1.12577 14.7001 17.8593
478 1 -1.1104 1.13034 20.2836 17.8593
479 1 -1.1104 1.12572 14.7004 15.0705
480 1 -1.1104 1.13024 20.284 15.0704
481 1 -1.1104 1.12797 17.4919 17.8597
482 2 2.2208 5.31129 16.0968 19.2542
483 2 2.2208 5.316 21.68 19.2541
484 1 -1.1104 1.12804 17.4922 15.0701
485 1 -1.1104 3.91525 14.6999 17.8598
486 1 -1.1104 3.91991 20.2832 17.8597
487 2 2.2208 2.52403 18.8886 19.2542
488 1 -1.1104 3.91534 14.7001 15.07
489 1 -1.1104 3.92004 20.2836 15.07
490 2 2.2208 2.52171 16.0973 16.4649
491 2 2.2208 2.52628 21.6808 16.4648
492 1 -1.1104 3.91771 17.4916 17.8593
493 1 -1.1104 3.91767 17.4919 15.0705
496 1 -1.1104 3.92006 20.2825 20.6486
497 1 -1.1104 1.12569 14.6997 20.6492
501 1 -1.1104 1.13024 20.2829 20.649
495 1 -1.1104 3.91759 17.491 20.6491
645 1 -1.1104 1.12814 17.4913 20.6487
442 1 -1.1104 6.70724 17.4901 26.2276
509 1 -1.1104 6.70494 14.7 17.8593
499 1 -1.1104 6.70724 17.4917 17.8598
503 1 -1.1104 6.70977 20.2839 15.0705
505 1 -1.1104 6.70979 20.2834 17.8591
510 1 -1.1104 6.7049 14.7003 15.0705
506 1 -1.1104 6.70738 17.4921 15.0699
511 2 2.2208 10.8928 18.8903 16.4648
512 1 -1.1104 12.284 14.701 17.8592
513 1 -1.1104 12.2889 20.2855 17.8589
514 1 -1.1104 12.2839 14.7013 15.0705
515 1 -1.1104 12.2888 20.2863 15.0705
516 1 -1.1104 12.2862 17.4931 17.8597
517 2 2.2208 10.8903 16.0976 19.2542
518 2 2.2208 10.8952 21.6815 19.2539
519 1 -1.1104 12.2864 17.4937 15.0699
520 1 -1.1104 9.49441 14.7004 17.8598
521 1 -1.1104 9.49924 20.2842 17.8597
522 2 2.2208 8.10327 18.8888 19.2541
523 1 -1.1104 9.4945 14.7007 15.0699
524 1 -1.1104 9.49948 20.285 15.0698
525 2 2.2208 8.10089 16.0976 16.4649
526 2 2.2208 8.10577 21.6814 16.4648
527 1 -1.1104 9.49695 17.4923 17.8591
528 1 -1.1104 9.49694 17.4928 15.0706
504 1 -1.1104 12.2885 20.2841 20.6489
530 1 -1.1104 9.49672 17.4915 20.6491
531 1 -1.1104 9.49445 14.6999 20.6486
532 1 -1.1104 12.2838 14.7003 20.6492
529 1 -1.1104 6.70732 17.4911 20.6486
507 1 -1.1104 6.70954 20.2825 20.6491
500 1 -1.1104 6.7048 14.6995 20.6492
533 1 -1.1104 12.2863 17.4922 20.6484
508 1 -1.1104 9.49934 20.2832 20.6483
680 2 2.2208 13.6678 2.13819 24.8332
647 2 2.2208 8.08415 -3.44532 24.833
675 2 2.2208 13.6654 -0.653561 22.0437
374 2 2.2208 13.663 -3.44538 24.833
646 2 2.2208 2.50522 -3.4453 24.8331
538 2 2.2208 5.2994 2.13816 22.0437
539 1 -1.1104 1.11164 -2.05075 23.4381
540 1 -1.1104 1.11644 3.53267 23.4381
541 1 -1.1104 1.11171 -2.05074 26.2281
542 1 -1.1104 1.11643 3.53265 26.2281
543 1 -1.1104 1.11403 0.740978 23.4387
544 2 2.2208 5.29706 -0.65359 24.8331
545 1 -1.1104 1.11407 0.740959 26.2276
546 1 -1.1104 3.90112 -2.05074 23.4386
547 1 -1.1104 3.90589 3.53264 23.4387
548 2 2.2208 2.50998 2.13812 24.8332
549 1 -1.1104 3.90116 -2.05073 26.2275
550 1 -1.1104 3.9059 3.53261 26.2277
551 2 2.2208 2.50755 -0.65358 22.0436
552 2 2.2208 2.51234 4.92988 22.0437
553 1 -1.1104 3.90348 0.740949 23.4381
554 1 -1.1104 3.90354 0.740953 26.2281
555 2 2.2208 5.30182 4.92977 24.8332
9488 2 2.2208 -0.277109 4.92985 24.8332
678 2 2.2208 13.6653 -0.653468 16.4648
558 1 -1.1104 6.69295 0.740987 23.4387
380 1 -1.1104 9.49672 17.4904 26.2282
414 1 -1.1104 12.2862 17.4908 26.2276
409 1 -1.1104 9.48479 3.53281 20.6488
408 1 -1.1104 12.2742 3.5329 20.6493
410 1 -1.1104 9.48237 0.741024 20.6493
564 1 -1.1104 6.69292 0.741042 20.6487
568 1 -1.1104 6.69536 3.53266 23.4382
566 1 -1.1104 6.69063 -2.05075 26.228
557 1 -1.1104 6.69537 3.5326 26.2282
561 1 -1.1104 6.693 0.740928 26.2276
560 1 -1.1104 6.69058 -2.05074 23.4381
569 2 2.2208 10.8783 2.13821 22.0438
570 1 -1.1104 12.2695 -2.05079 23.4381
571 1 -1.1104 12.2743 3.53276 23.4382
572 1 -1.1104 12.2695 -2.05079 26.2281
573 1 -1.1104 12.2743 3.5327 26.2282
574 1 -1.1104 12.2719 0.740993 23.4387
575 2 2.2208 10.876 -0.653608 24.8331
576 2 2.2208 10.8808 4.92986 24.8332
577 1 -1.1104 12.2719 0.740955 26.2276
578 1 -1.1104 9.48005 -2.05076 23.4386
579 1 -1.1104 9.48481 3.53271 23.4388
580 2 2.2208 8.0889 2.13811 24.8332
581 1 -1.1104 9.48007 -2.05078 26.2276
582 1 -1.1104 9.48484 3.53264 26.2277
583 2 2.2208 8.08648 -0.65356 22.0437
584 2 2.2208 8.09126 4.92991 22.0438
585 1 -1.1104 9.48241 0.740973 23.4382
586 1 -1.1104 9.48247 0.740936 26.2282
681 2 2.2208 13.6677 2.13838 19.2543
671 2 2.2208 5.29461 -3.44527 16.4648
614 2 2.2208 2.50517 -3.44529 19.2542
436 1 -1.1104 1.12345 11.908 20.6488
437 1 -1.1104 1.11876 6.32452 20.6487
591 2 2.2208 -0.27241 10.5132 24.8332
438 1 -1.1104 3.9129 11.9078 20.6492
616 2 2.2208 -0.270141 13.3051 22.0437
594 2 2.2208 8.08407 -3.4453 19.2542
9490 2 2.2208 -0.274776 7.72168 22.0437
435 1 -1.1104 3.90822 6.3245 20.6492
595 2 2.2208 5.30418 7.72157 22.0438
596 2 2.2208 5.30889 13.3048 22.0437
597 1 -1.1104 1.12116 9.11602 23.4382
598 1 -1.1104 1.12116 9.11591 26.2282
599 1 -1.1104 1.11879 6.32437 23.4387
600 1 -1.1104 1.12343 11.9076 23.4387
601 2 2.2208 5.30655 10.513 24.8332
602 1 -1.1104 1.11879 6.32429 26.2277
603 1 -1.1104 1.12348 11.9075 26.2277
604 1 -1.1104 3.9106 9.11594 23.4387
605 2 2.2208 2.51472 7.72143 24.8332
606 2 2.2208 2.51938 13.3046 24.8332
607 1 -1.1104 3.91065 9.11581 26.2277
608 2 2.2208 2.51703 10.5132 22.0437
609 1 -1.1104 3.90828 6.32429 23.4382
610 1 -1.1104 3.91298 11.9075 23.4382
611 1 -1.1104 3.90828 6.32424 26.2282
612 1 -1.1104 3.91296 11.9073 26.2282
642 2 2.2208 5.29465 -3.44529 22.0436
411 1 -1.1104 12.2861 17.4913 23.4386
381 1 -1.1104 9.49908 20.2822 23.4385
444 1 -1.1104 6.70007 9.11624 20.6493
474 1 -1.1104 9.49194 11.9081 20.6493
618 1 -1.1104 9.48717 6.3246 20.6493
535 2 2.2208 8.1056 21.6795 22.0435
622 1 -1.1104 6.70244 11.9076 23.4387
620 1 -1.1104 6.7025 11.9074 26.2277
623 1 -1.1104 6.69773 6.32435 23.4388
613 1 -1.1104 6.69777 6.32424 26.2277
621 1 -1.1104 6.70014 9.11584 26.2283
615 1 -1.1104 6.70013 9.11597 23.4382
624 1 -1.1104 9.48957 9.11611 23.4388
625 1 -1.1104 12.2815 11.9078 26.2277
626 1 -1.1104 12.2767 6.32442 26.2277
627 2 2.2208 10.8855 10.5133 24.8332
628 1 -1.1104 12.2814 11.908 23.4387
629 1 -1.1104 12.2767 6.32452 23.4388
630 1 -1.1104 12.2791 9.1161 26.2283
631 1 -1.1104 12.2791 9.11628 23.4382
632 1 -1.1104 9.49197 11.9075 26.2283
633 1 -1.1104 9.48723 6.32431 26.2283
634 1 -1.1104 9.49202 11.9078 23.4382
635 1 -1.1104 9.48723 6.32443 23.4382
636 2 2.2208 8.09605 10.5133 22.0438
637 1 -1.1104 9.48964 9.11594 26.2277
638 2 2.2208 8.0984 13.3046 24.8332
639 2 2.2208 8.09368 7.72148 24.8333
640 2 2.2208 10.8831 7.72176 22.0438
641 2 2.2208 10.8879 13.3052 22.0437
534 2 2.2208 10.8951 21.6792 24.833
674 1 -1.1104 9.49435 14.699 26.2277
670 2 2.2208 -0.26549 18.8883 22.0436
494 1 -1.1104 3.91534 14.6995 20.6487
415 2 2.2208 -0.263085 21.6792 24.833
649 2 2.2208 2.52638 21.6793 22.0435
650 1 -1.1104 3.91768 17.4905 23.4381
651 1 -1.1104 1.12804 17.4907 23.4386
652 1 -1.1104 3.91531 14.6988 26.2277
653 1 -1.1104 3.91763 17.4901 26.2282
654 2 2.2208 2.52408 18.8874 24.8331
655 1 -1.1104 3.92004 20.2813 26.2276
656 2 2.2208 5.31363 18.8878 22.0436
657 1 -1.1104 1.12581 14.6992 23.4382
658 1 -1.1104 1.13051 20.2821 23.4381
659 2 2.2208 5.31126 16.096 24.8332
660 2 2.2208 5.31602 21.6785 24.8331
661 1 -1.1104 1.12575 14.699 26.2282
662 1 -1.1104 1.12816 17.4904 26.2277
663 1 -1.1104 1.13044 20.2817 26.2281
664 1 -1.1104 3.91525 14.699 23.4387
665 1 -1.1104 3.91994 20.2818 23.4385
666 2 2.2208 2.5217 16.0964 22.0437
592 1 -1.1104 6.70967 20.2818 23.438
668 1 -1.1104 6.7048 14.6988 26.2282
563 2 2.2208 8.1008 16.0966 22.0436
368 1 -1.1104 6.70486 14.6991 23.4381
676 1 -1.1104 12.2887 20.2829 23.4378
672 1 -1.1104 9.49428 14.6993 23.4387
587 2 2.2208 10.8903 16.0964 24.8331
589 1 -1.1104 9.49917 20.2816 26.2275
644 1 -1.1104 6.70956 20.2813 26.2282
673 1 -1.1104 9.49679 17.4908 23.438
648 1 -1.1104 6.70714 17.4905 23.4386
588 1 -1.1104 12.2838 14.6997 23.4381
379 1 -1.1104 12.2838 14.6993 26.2282
556 2 2.2208 10.8927 18.8886 22.0435
696 2 2.2208 -0.26785 16.0978 13.6756
373 2 2.2208 8.08408 -3.44529 13.6754
590 2 2.2208 13.663 -3.44538 13.6754
683 2 2.2208 5.30172 4.93015 13.6755
593 2 2.2208 5.297 -0.65348 13.6754
9522 2 2.2208 -0.277222 4.9302 13.6755
375 2 2.2208 13.6677 2.13846 13.6755
684 2 2.2208 2.50988 2.13832 13.6754
537 2 2.2208 8.08882 2.13833 13.6755
559 2 2.2208 10.8759 -0.653485 13.6755
686 2 2.2208 2.51462 7.72198 13.6755
687 2 2.2208 2.51936 13.3056 13.6756
688 2 2.2208 2.50516 -3.4453 13.6754
685 2 2.2208 5.30651 10.5138 13.6756
690 2 2.2208 8.0936 7.72204 13.6756
689 2 2.2208 -0.272493 10.514 13.6755
562 2 2.2208 10.8806 4.93027 13.6756
691 2 2.2208 10.8855 10.5142 13.6756
682 2 2.2208 8.09848 13.3058 13.6756
694 2 2.2208 2.52406 18.8892 13.6756
695 2 2.2208 5.31135 16.0974 13.6756
697 2 2.2208 5.31615 21.6809 13.6756
692 2 2.2208 -0.263405 21.6817 13.6755
700 2 2.2208 10.8904 16.0983 13.6756
699 2 2.2208 10.8954 21.683 13.6756
698 2 2.2208 8.10341 18.8897 13.6756
701 2 2.2208 5.31872 24.4698 5.30762
702 2 2.2208 5.32433 30.0513 5.30773
703 1 -1.1104 1.13534 25.8637 1.12287
704 1 -1.1104 1.13542 25.864 3.91296
705 1 -1.1104 1.13289 23.0727 1.12329
706 1 -1.1104 1.138 28.6545 1.1233
707 2 2.2208 5.3213 27.2601 2.51816
708 1 -1.1104 1.1328 23.073 3.91255
709 1 -1.1104 1.13787 28.6548 3.91259
710 1 -1.1104 3.92499 25.8631 1.12341
711 2 2.2208 2.52901 24.4695 2.51797
712 2 2.2208 2.53466 30.0512 2.51809
713 1 -1.1104 3.92494 25.8633 3.91257
714 2 2.2208 2.53163 27.261 5.30759
715 1 -1.1104 3.92244 23.0722 1.1229
716 1 -1.1104 3.92757 28.6537 1.12296
717 1 -1.1104 3.92257 23.0725 3.91302
718 1 -1.1104 3.92774 28.6539 3.91315
721 1 -1.1104 3.92512 25.864 6.70267
722 1 -1.1104 1.13507 25.865 6.70224
724 1 -1.1104 3.92245 23.0732 6.70213
723 1 -1.1104 1.13783 28.6558 6.70262
727 2 2.2208 -0.257934 27.2612 2.51795
726 2 2.2208 -0.260623 24.4709 5.30756
719 1 -1.1104 3.92746 28.6546 6.70223
730 2 2.2208 -0.255199 30.053 5.30756
1017 2 2.2208 -0.213327 44.0035 8.08983
792 1 -1.1104 9.43227 48.0654 6.70612
738 1 -1.1104 6.71485 25.8632 3.91326
729 1 -1.1104 6.71213 23.0724 3.91255
728 1 -1.1104 6.7173 28.6535 1.12373
737 1 -1.1104 6.7146 25.8629 1.12296
720 1 -1.1104 6.71737 28.6535 3.91271
734 1 -1.1104 6.71212 23.0722 1.12348
733 1 -1.1104 6.71243 23.0733 6.70277
739 2 2.2208 10.8979 24.4712 5.30795
740 2 2.2208 10.9034 30.0536 5.30861
741 1 -1.1104 12.2937 25.8641 1.12299
742 1 -1.1104 12.2942 25.865 3.91375
743 1 -1.1104 12.2913 23.0732 1.12361
744 1 -1.1104 12.2965 28.6547 1.12391
745 2 2.2208 10.9004 27.2611 2.51849
746 1 -1.1104 12.2912 23.0738 3.91274
747 1 -1.1104 12.2965 28.6556 3.91325
748 1 -1.1104 9.50432 25.8634 1.12369
749 2 2.2208 8.10827 24.4695 2.51814
750 2 2.2208 8.11368 30.0511 2.51862
751 1 -1.1104 9.50434 25.8638 3.91276
752 2 2.2208 8.11107 27.2612 5.30791
753 1 -1.1104 9.50168 23.0725 1.12288
754 1 -1.1104 9.50684 28.6539 1.12316
755 1 -1.1104 9.50195 23.073 3.91331
756 1 -1.1104 9.50737 28.6545 3.9138
760 1 -1.1104 12.2938 25.8669 6.7027
758 1 -1.1104 9.50714 28.6558 6.70263
757 1 -1.1104 12.2917 23.0754 6.7032
759 1 -1.1104 12.2973 28.6584 6.7042
761 1 -1.1104 9.50184 23.074 6.7022
908 1 -1.1104 9.50482 25.8652 6.70329
764 2 2.2208 5.33203 35.6329 5.30793
765 1 -1.1104 1.14088 31.445 1.12272
766 1 -1.1104 1.14838 37.026 1.12201
767 1 -1.1104 1.14096 31.4453 3.91306
768 1 -1.1104 1.14864 37.0259 3.91308
769 1 -1.1104 1.14422 34.2358 1.12338
770 2 2.2208 5.32755 32.8418 2.51864
771 2 2.2208 5.33692 38.4256 2.51904
772 1 -1.1104 1.14437 34.2355 3.91219
773 1 -1.1104 3.93048 31.4444 1.12365
774 1 -1.1104 3.9375 37.0262 1.12412
775 2 2.2208 2.5428 35.6329 2.51817
776 1 -1.1104 3.93058 31.4441 3.91259
777 1 -1.1104 3.93807 37.0245 3.91199
778 2 2.2208 2.53827 32.8423 5.30755
779 2 2.2208 2.55017 38.4236 5.30678
780 1 -1.1104 3.93372 34.2348 1.12302
781 1 -1.1104 3.93398 34.2345 3.91343
786 1 -1.1104 3.93058 31.4447 6.70289
783 1 -1.1104 3.93372 34.2344 6.70217
784 1 -1.1104 1.14033 31.4464 6.70226
798 1 -1.1104 6.72357 34.2336 3.91283
790 2 2.2208 -0.246686 35.6333 5.30684
800 1 -1.1104 6.72677 37.0254 1.1235
785 1 -1.1104 1.14844 37.0258 6.70149
788 2 2.2208 -0.240405 38.4229 2.51648
791 2 2.2208 -0.251403 32.8425 2.51774
795 1 -1.1104 6.72391 34.2338 6.70345
794 1 -1.1104 6.72031 31.4444 6.70234
796 1 -1.1104 6.72 31.4439 1.12329
793 1 -1.1104 6.7205 31.4438 3.91357
797 1 -1.1104 6.72704 37.0238 3.91395