LAMMPS (29 Oct 2020)
OMP_NUM_THREADS environment is not set. Defaulting to 1 thread. (../comm.cpp:94)
  using 1 OpenMP thread(s) per MPI task
OMP_NUM_THREADS environment is not set. Defaulting to 1 thread. (../comm.cpp:94)
  using 1 OpenMP thread(s) per MPI task
Reading data file ...
  orthogonal box = (-0.33208758 -4.0836253 -0.32873168) to (27.672088 332.16363 27.668732)
  2 by 13 by 2 MPI processor grid
  reading atoms ...
  17760 atoms
  reading velocities ...
  17760 velocities
Finding 1-2 1-3 1-4 neighbors ...
  special bond factors lj:    0.0      0.0      0.0     
  special bond factors coul:  0.0      0.0      0.0     
     0 = max # of 1-2 neighbors
     0 = max # of 1-3 neighbors
     0 = max # of 1-4 neighbors
     1 = max # of special neighbors
  special bonds CPU = 0.004 seconds
  read_data CPU = 0.106 seconds
WARNING: 13 of 1000 force values in table Xe-Xe are inconsistent with -dE/dr.
  Should only be flagged at inflection points (../pair_table.cpp:461)
WARNING: 2 of 1000 force values in table Xe-O are inconsistent with -dE/dr.
  Should only be flagged at inflection points (../pair_table.cpp:461)
WARNING: 2 of 1000 force values in table Xe-Th are inconsistent with -dE/dr.
  Should only be flagged at inflection points (../pair_table.cpp:461)
Setting atom values ...
  11760 settings made for charge
Setting atom values ...
  5880 settings made for charge
Setting atom values ...
  120 settings made for charge
PPPM initialization ...
  using 12-bit tables for long-range coulomb (../kspace.cpp:328)
  G vector (1/distance) = 0.29890367
  grid = 40 240 40
  stencil order = 5
  estimated absolute RMS force accuracy = 0.0001549514
  estimated relative force accuracy = 1.0760779e-05
  using single precision MKL FFT
  3d grid and FFT values/proc = 18225 7600
Neighbor list info ...
  update every 1 steps, delay 0 steps, check yes
  max neighbors/atom: 2000, page size: 100000
  master list distance cutoff = 13
  ghost atom cutoff = 13
  binsize = 6.5, bins = 5 52 5
  3 neighbor lists, perpetual/occasional/extra = 3 0 0
  (1) pair coul/long, perpetual
      attributes: half, newton on
      pair build: half/bin/newton
      stencil: half/bin/3d/newton
      bin: standard
  (2) pair eam/alloy, perpetual, skip from (1)
      attributes: half, newton on
      pair build: skip
      stencil: none
      bin: none
  (3) pair table, perpetual, skip from (1)
      attributes: half, newton on
      pair build: skip
      stencil: none
      bin: none
Setting up Verlet run ...
  Unit style    : metal
  Current step  : 0
  Time step     : 0.001
Per MPI rank memory allocation (min/avg/max) = 9.251 | 9.943 | 10.05 Mbytes
Step Temp E_pair E_mol TotEng Press 
       0          300   -231140.73            0   -230452.07    181.39464 
  100000    299.68789   -231140.31            0   -230452.37   -178.05627 
Loop time of 699.414 on 52 procs for 100000 steps with 17760 atoms

Performance: 12.353 ns/day, 1.943 hours/ns, 142.977 timesteps/s
99.8% CPU use with 52 MPI tasks x 1 OpenMP threads

MPI task timing breakdown:
Section |  min time  |  avg time  |  max time  |%varavg| %total
---------------------------------------------------------------
Pair    | 480.13     | 498.7      | 520.17     |  41.5 | 71.30
Bond    | 0.0083017  | 0.015243   | 0.026203   |   3.1 |  0.00
Kspace  | 152.94     | 171.76     | 188.12     |  63.3 | 24.56
Neigh   | 0.46093    | 0.50394    | 0.54132    |   2.5 |  0.07
Comm    | 20.579     | 22.855     | 25.751     |  24.0 |  3.27
Output  | 6.718e-05  | 8.4222e-05 | 0.00028094 |   0.0 |  0.00
Modify  | 2.3421     | 3.6335     | 6.0964     |  68.3 |  0.52
Other   |            | 1.946      |            |       |  0.28

Nlocal:        341.538 ave         371 max         320 min
Histogram: 2 4 8 10 13 8 1 4 1 1
Nghost:        5550.75 ave        5736 max        5383 min
Histogram: 20 0 0 2 6 0 4 0 10 10
Neighs:       108755.0 ave      119500 max       94440 min
Histogram: 1 0 4 3 7 14 12 6 3 2

Total # of neighbors = 5655273
Ave neighs/atom = 318.42753
Ave special neighs/atom = 0.0000000
Neighbor list builds = 164
Dangerous builds = 0
11760 atoms in group oxygen
PPPM initialization ...
  using 12-bit tables for long-range coulomb (../kspace.cpp:328)
  G vector (1/distance) = 0.29890367
  grid = 40 240 40
  stencil order = 5
  estimated absolute RMS force accuracy = 0.0001549514
  estimated relative force accuracy = 1.0760779e-05
  using single precision MKL FFT
  3d grid and FFT values/proc = 18225 7600
Neighbor list info ...
  update every 1 steps, delay 0 steps, check yes
  max neighbors/atom: 2000, page size: 100000
  master list distance cutoff = 13
  ghost atom cutoff = 13
  binsize = 6.5, bins = 5 52 5
  3 neighbor lists, perpetual/occasional/extra = 3 0 0
  (1) pair coul/long, perpetual
      attributes: half, newton on
      pair build: half/bin/newton
      stencil: half/bin/3d/newton
      bin: standard
  (2) pair eam/alloy, perpetual, skip from (1)
      attributes: half, newton on
      pair build: skip
      stencil: none
      bin: none
  (3) pair table, perpetual, skip from (1)
      attributes: half, newton on
      pair build: skip
      stencil: none
      bin: none
Setting up Verlet run ...
  Unit style    : metal
  Current step  : 0
  Time step     : 0.001
Per MPI rank memory allocation (min/avg/max) = 9.507 | 10.22 | 10.30 Mbytes
Step f_2 Temp v_Tdiff v_deltaT 
       0            0    299.68789            0            0 
  100000    353.82022    302.24451  0.007329304    85.092539 
  200000    703.36319    300.21795 0.0079371724    92.149834 
  300000    1051.4273    299.63487 0.0077950748    90.500095 
  400000    1401.5832    297.66101 0.0079176028    91.922634 
  500000    1750.0815    297.40357 0.0078622605    91.280114 
  600000    2098.0647    297.97878 0.0078972719    91.686593 
  700000    2448.2831    299.63543 0.0078791598    91.476313 
  800000    2798.1228    299.58649 0.0079617201    92.434831 
  900000    3145.7531    298.04978 0.0082538631    95.826584 
 1000000    3495.1397    299.98668 0.0085983675    99.826248 
Loop time of 6932.36 on 52 procs for 1000000 steps with 17760 atoms

Performance: 12.463 ns/day, 1.926 hours/ns, 144.251 timesteps/s
99.8% CPU use with 52 MPI tasks x 1 OpenMP threads

MPI task timing breakdown:
Section |  min time  |  avg time  |  max time  |%varavg| %total
---------------------------------------------------------------
Pair    | 4718.2     | 4933.7     | 5149.1     | 135.4 | 71.17
Bond    | 0.095196   | 0.15645    | 0.32023    |   8.9 |  0.00
Kspace  | 1532.8     | 1721.6     | 1912.2     | 206.3 | 24.83
Neigh   | 4.3364     | 4.7382     | 5.0754     |   7.7 |  0.07
Comm    | 208.4      | 227.33     | 255.96     |  71.7 |  3.28
Output  | 0.0010427  | 0.0011101  | 0.0021807  |   0.5 |  0.00
Modify  | 7.2441     | 8.9823     | 11.549     |  49.0 |  0.13
Other   |            | 35.84      |            |       |  0.52

Nlocal:        341.538 ave         369 max         322 min
Histogram: 1 7 9 6 17 2 4 3 2 1
Nghost:        5549.62 ave        5722 max        5369 min
Histogram: 19 1 0 0 5 3 0 4 2 18
Neighs:       108758.0 ave      119594 max       95862 min
Histogram: 3 1 2 4 5 16 13 3 3 2

Total # of neighbors = 5655418
Ave neighs/atom = 318.43570
Ave special neighs/atom = 0.0000000
Neighbor list builds = 1549
Dangerous builds = 0
Total wall time: 2:07:12
