ITEM: TIMESTEP
20000
ITEM: NUMBER OF ATOMS
17700
ITEM: BOX BOUNDS pp pp pp
-3.6545258154869420e-01 2.7705452581548695e+01
-4.3616297516149469e+00 3.3244162975162055e+02
-3.5822483109858050e-01 2.7698224831098624e+01
ITEM: ATOMS id type q x y z
1 2 2.2208 5.22722 1.29417 5.2369
2 1 -1.1104 0.930082 -2.90646 0.982268
3 1 -1.1104 0.915563 2.71843 1.00983
6 1 -1.1104 1.06678 -3.12656 3.87212
7 1 -1.1104 1.03777 2.67772 3.7875
10 1 -1.1104 0.930095 -0.246889 1.12464
12 2 2.2208 5.21452 -1.68615 2.36379
13 2 2.2208 5.28283 4.07248 2.50458
14 1 -1.1104 1.09478 -0.214129 3.79114
16 1 -1.1104 3.70279 -3.03105 0.916922
17 1 -1.1104 3.89848 2.77658 0.922971
18 2 2.2208 2.38518 1.22929 2.45679
19 1 -1.1104 3.90991 -3.02652 3.94838
20 1 -1.1104 3.87542 2.62621 3.81556
21 2 2.2208 2.45938 -1.5014 5.31251
22 2 2.2208 2.37538 4.04875 5.15059
23 1 -1.1104 3.82646 -0.0823485 1.14865
24 1 -1.1104 3.86507 -0.23711 3.84075
4 1 -1.1104 6.57783 -3.09409 1.0848
173 1 -1.1104 3.6075 2.71063 6.66637
172 1 -1.1104 3.82788 -2.88137 6.64367
174 1 -1.1104 3.71908 -0.194029 6.57671
167 1 -1.1104 0.81959 2.62197 6.49627
170 1 -1.1104 0.877909 -0.091946 6.47134
169 1 -1.1104 6.52424 2.77148 6.56841
8052 2 2.2208 5.31935 -4.31581 10.8341
7957 2 2.2208 -0.35015 -4.36233 10.9186
9318 2 2.2208 -0.382238 4.00001 13.58
413 2 2.2208 2.53308 12.3652 13.5698
11 1 -1.1104 6.65123 -0.166704 1.23018
8 1 -1.1104 6.65634 -2.93503 3.84533
7956 2 2.2208 13.7518 -4.33539 7.97847
9 1 -1.1104 6.63011 2.64296 3.86693
5 1 -1.1104 6.60137 2.6081 1.09875
15 1 -1.1104 6.67394 -0.0155709 4.04859
31 2 2.2208 10.7053 1.22579 5.12706
32 1 -1.1104 12.086 -2.89106 0.946667
33 1 -1.1104 12.2605 2.70407 0.96224
34 1 -1.1104 12.2223 -2.92303 3.76918
35 1 -1.1104 12.2456 2.65144 3.80961
36 1 -1.1104 12.2265 -0.205676 1.14898
37 2 2.2208 10.8612 -1.67818 2.30051
38 2 2.2208 10.8425 4.076 2.48637
39 1 -1.1104 12.2304 -0.28883 3.81057
40 1 -1.1104 9.34718 -2.94551 0.99098
41 1 -1.1104 9.4765 2.72189 1.00087
42 2 2.2208 7.98132 1.30649 2.48563
43 1 -1.1104 9.34596 -2.92956 3.87973
44 1 -1.1104 9.32958 2.5809 3.80404
45 2 2.2208 7.98691 -1.52322 5.1549
46 2 2.2208 7.95399 4.12351 5.29172
47 1 -1.1104 9.4745 0.0201371 0.927348
48 1 -1.1104 9.42417 -0.154493 3.63917
206 1 -1.1104 12.2002 2.671 6.61172
210 1 -1.1104 9.20184 -0.139392 6.61802
205 1 -1.1104 12.3192 -2.91354 6.57652
208 1 -1.1104 9.38709 -2.92499 6.67878
207 1 -1.1104 12.0512 -0.130171 6.53804
209 1 -1.1104 9.31759 2.56365 6.63443
53 1 -1.1104 6.59688 16.6096 12.1834
288 1 -1.1104 6.51772 19.3771 9.18293
290 1 -1.1104 6.7647 13.7703 9.29898
54 2 2.2208 5.29904 6.91815 5.28785
55 2 2.2208 5.20395 12.5335 5.11349
56 1 -1.1104 0.865299 8.21425 1.15892
58 1 -1.1104 1.04641 8.28663 3.95695
60 1 -1.1104 1.29476 5.43382 1.13521
61 1 -1.1104 1.10486 11.1022 0.915818
66 2 2.2208 5.35443 9.70832 2.3476
67 1 -1.1104 1.07463 5.36236 3.83594
68 1 -1.1104 1.11543 11.1125 3.80943
71 1 -1.1104 3.83401 8.48321 1.10512
72 2 2.2208 2.56942 6.80629 2.61389
73 2 2.2208 2.51798 12.4355 2.33151
74 1 -1.1104 3.88887 8.22413 3.92321
75 2 2.2208 2.52932 9.75511 5.22924
76 1 -1.1104 4.01538 5.57004 1.16856
77 1 -1.1104 3.91183 11.1585 0.954782
79 1 -1.1104 3.91432 5.41815 3.92569
80 1 -1.1104 3.83122 11.1353 3.7195
78 1 -1.1104 3.85344 11.196 6.50243
57 1 -1.1104 6.59623 8.29585 1.11992
236 1 -1.1104 0.927659 5.49908 6.61113
238 1 -1.1104 3.87932 8.32896 6.59084
65 1 -1.1104 6.7632 10.8386 6.64385
70 1 -1.1104 6.80288 11.0524 3.78588
234 1 -1.1104 1.12667 8.41651 6.56222
25 2 2.2208 -0.289485 -1.69463 2.5753
501 2 2.2208 10.8886 20.7278 13.6672
64 1 -1.1104 6.65741 11.0065 0.970123
69 1 -1.1104 6.65385 5.57714 3.87023
63 1 -1.1104 6.73302 5.51116 1.08383
59 1 -1.1104 6.55641 8.37004 3.88392
84 2 2.2208 10.9473 6.95289 5.18999
85 2 2.2208 10.875 12.3914 5.15325
86 1 -1.1104 12.0699 8.313 1.04067
87 1 -1.1104 12.2201 8.41954 3.77594
88 1 -1.1104 12.3309 5.45286 1.00649
89 1 -1.1104 12.1635 10.974 0.949669
91 2 2.2208 10.8641 9.70548 2.33307
92 1 -1.1104 12.198 5.5235 3.80201
93 1 -1.1104 12.3497 11.0246 3.80891
94 1 -1.1104 9.37359 8.14776 0.900882
95 2 2.2208 8.05237 6.81829 2.49678
96 2 2.2208 8.008 12.4821 2.27707
97 1 -1.1104 9.37795 8.22787 3.68809
98 2 2.2208 8.05332 9.59058 5.13976
99 1 -1.1104 9.52501 5.50665 1.03092
100 1 -1.1104 9.29747 10.9916 0.961046
102 1 -1.1104 9.31665 5.40051 4.02383
103 1 -1.1104 9.5302 11.1037 3.65127
237 1 -1.1104 6.62034 5.35799 6.55909
266 1 -1.1104 12.2341 5.5576 6.6967
267 1 -1.1104 9.60611 8.27856 6.56418
90 1 -1.1104 12.3929 11.2565 6.58684
101 1 -1.1104 9.66492 10.965 6.60637
265 1 -1.1104 12.3621 8.36155 6.667
269 1 -1.1104 9.52714 5.4772 6.56754
203 2 2.2208 8.13146 15.2295 10.7314
30 2 2.2208 10.8792 21.0148 8.03144
106 2 2.2208 5.19552 18.1752 5.17287
107 1 -1.1104 1.05084 13.9791 1.02328
109 1 -1.1104 0.993164 19.39 1.11668
113 1 -1.1104 1.16315 13.8192 3.8351
114 1 -1.1104 1.11653 19.6174 3.87344
116 1 -1.1104 1.05221 16.5676 1.05128
119 2 2.2208 5.2641 15.2704 2.4347
120 2 2.2208 5.26334 20.9708 2.31476
121 1 -1.1104 1.06682 16.699 3.87223
123 1 -1.1104 4.04309 13.9209 1.04154
125 1 -1.1104 3.85795 19.4302 0.911543
127 2 2.2208 2.55472 18.0196 2.42056
128 1 -1.1104 3.83531 13.9086 3.8322
129 1 -1.1104 3.81852 19.5537 3.76204
130 2 2.2208 2.45428 15.2798 5.18237
131 2 2.2208 2.41873 20.932 5.14995
132 1 -1.1104 3.92755 16.6933 1.00204
134 1 -1.1104 3.84519 16.6221 3.77861
110 1 -1.1104 6.72006 13.9724 0.948774
124 1 -1.1104 3.83647 13.9814 6.75136
133 1 -1.1104 3.83222 16.9263 6.43239
165 1 -1.1104 1.00152 19.5727 6.59789
108 1 -1.1104 0.986001 14.0353 6.50603
126 1 -1.1104 3.86634 19.7131 6.62338
117 1 -1.1104 1.17093 16.7623 6.65986
342 2 2.2208 5.2035 -1.43154 13.6643
9176 2 2.2208 -0.205843 15.2516 13.5777
112 1 -1.1104 6.80166 19.542 6.59843
138 1 -1.1104 6.76213 19.4851 1.0393
122 1 -1.1104 6.6674 16.7848 3.85049
115 1 -1.1104 6.77339 14.0437 3.73013
118 1 -1.1104 6.66399 16.6986 6.62344
111 1 -1.1104 6.55316 13.8302 6.45483
140 1 -1.1104 6.72125 16.7274 0.996218
139 1 -1.1104 6.60765 19.5697 3.81655
141 2 2.2208 10.9923 18.1124 5.35281
142 1 -1.1104 12.1554 13.7915 1.06458
144 1 -1.1104 12.2685 19.3457 1.04623
146 1 -1.1104 12.2193 13.8045 3.877
147 1 -1.1104 12.3141 19.569 3.85136
148 1 -1.1104 12.3362 16.5791 1.21603
150 2 2.2208 10.8919 15.2612 2.44363
151 2 2.2208 11.0312 20.856 2.38344
152 1 -1.1104 12.3806 16.812 4.04517
153 1 -1.1104 9.46843 13.7644 0.987327
155 1 -1.1104 9.54127 19.3822 0.936971
157 2 2.2208 8.13107 18.1803 2.4121
158 1 -1.1104 9.47111 13.7943 3.77583
159 1 -1.1104 9.46829 19.4829 3.8155
160 2 2.2208 8.15127 15.2254 5.16169
161 2 2.2208 8.07937 20.8369 5.10837
162 1 -1.1104 9.54107 16.7199 0.994073
164 1 -1.1104 9.60424 16.7251 3.71346
149 1 -1.1104 12.2979 16.811 6.72679
154 1 -1.1104 9.39432 13.9725 6.54897
156 1 -1.1104 9.5651 19.4512 6.77863
143 1 -1.1104 12.2151 13.8865 6.70735
82 2 2.2208 8.02188 20.7964 10.6702
8053 2 2.2208 10.8064 -4.38856 5.2527
8108 2 2.2208 10.8185 -4.33543 10.8285
343 2 2.2208 2.47717 1.31291 13.5153
8015 2 2.2208 7.96775 -4.32 2.33905
166 1 -1.1104 1.04217 -2.85838 6.56021
175 2 2.2208 5.1535 1.42483 10.8228
176 1 -1.1104 1.06605 -2.8475 12.0792
177 1 -1.1104 0.958365 2.61377 12.1371
180 1 -1.1104 0.97266 -3.00344 9.33967
181 1 -1.1104 1.01318 2.61106 9.47446
184 1 -1.1104 1.07201 -0.171548 12.1492
186 2 2.2208 5.39345 -1.59596 8.19536
187 2 2.2208 5.15555 4.01657 8.01407
188 1 -1.1104 1.13626 -0.179321 9.30748
190 1 -1.1104 3.78905 -2.89293 12.1036
191 1 -1.1104 3.85613 2.72043 12.2435
192 2 2.2208 2.32621 1.12823 7.99315
193 1 -1.1104 3.85986 -2.9892 9.35894
194 1 -1.1104 3.7948 2.70399 9.43575
195 2 2.2208 2.40614 -1.57635 10.6898
196 2 2.2208 2.38234 3.94904 10.8618
197 1 -1.1104 3.81326 -0.150422 12.0802
198 1 -1.1104 3.96488 -0.13777 9.42257
8079 2 2.2208 8.05653 -4.32589 8.01989
50 2 2.2208 13.6781 -1.55271 5.21218
8945 2 2.2208 13.7847 9.6483 5.28706
375 2 2.2208 7.99987 1.26708 13.7005
440 2 2.2208 8.14626 12.5056 13.652
377 2 2.2208 10.8605 4.00888 13.7353
171 1 -1.1104 6.46133 -0.106199 6.73734
8128 2 2.2208 2.55871 -4.3713 8.02583
168 1 -1.1104 6.68141 -2.90815 6.64483
8653 2 2.2208 -0.300273 18.0584 10.7621
185 1 -1.1104 6.6195 -0.0646298 12.2365
182 1 -1.1104 6.61878 -2.98747 9.55664
179 1 -1.1104 6.53144 2.63918 12.3082
183 1 -1.1104 6.59732 2.7176 9.316
178 1 -1.1104 6.59581 -2.96398 12.2621
189 1 -1.1104 6.7103 0.013494 9.6006
211 2 2.2208 10.8607 1.26055 10.7826
212 1 -1.1104 12.3261 -2.85761 12.308
213 1 -1.1104 12.2332 2.78454 12.315
214 1 -1.1104 12.2114 -3.15326 9.59449
215 1 -1.1104 12.2514 2.74697 9.40154
216 1 -1.1104 12.2472 -0.0737901 12.0934
217 2 2.2208 10.888 -1.52587 8.00704
218 2 2.2208 10.8979 4.0177 8.02993
219 1 -1.1104 12.4222 -0.228078 9.25881
220 1 -1.1104 9.49528 -2.85023 12.1777
221 1 -1.1104 9.43533 2.74767 12.2316
222 2 2.2208 8.00161 1.28494 8.04909
223 1 -1.1104 9.39791 -2.93567 9.56156
224 1 -1.1104 9.35952 2.69152 9.45571
225 2 2.2208 7.989 -1.42597 10.9372
226 2 2.2208 7.9943 3.94421 10.8825
227 1 -1.1104 9.4401 -0.0418016 12.1685
228 1 -1.1104 9.58066 -0.151759 9.36039
27 1 -1.1104 12.2887 19.5377 9.4971
297 1 -1.1104 6.67937 13.8737 12.1986
376 2 2.2208 10.8148 -1.48009 13.6852
29 2 2.2208 10.9195 15.3238 8.04101
51 1 -1.1104 12.2878 16.6544 9.48194
239 1 -1.1104 3.76393 5.55145 6.6909
8960 2 2.2208 -0.39221 18.1258 5.15704
232 1 -1.1104 12.4303 19.7637 12.2646
62 1 -1.1104 1.04132 11.2213 6.72414
240 2 2.2208 5.21215 6.75527 10.797
241 2 2.2208 5.31486 12.4883 10.8072
242 1 -1.1104 1.06033 8.23572 12.3005
244 1 -1.1104 0.883559 8.30437 9.44834
246 1 -1.1104 1.00988 5.40558 12.2608
247 1 -1.1104 1.02339 10.9852 12.2141
250 2 2.2208 5.26897 9.69969 8.08928
251 1 -1.1104 1.07506 5.28146 9.43496
252 1 -1.1104 1.26434 11.049 9.46586
255 1 -1.1104 3.82425 8.10842 12.0396
256 2 2.2208 2.337 6.85559 7.96116
257 2 2.2208 2.53253 12.4423 8.02024
258 1 -1.1104 3.81734 8.30121 9.30295
259 2 2.2208 2.58302 9.65655 10.693
260 1 -1.1104 3.77668 5.3623 12.3565
261 1 -1.1104 3.86129 10.9251 12.146
262 1 -1.1104 3.80009 5.54064 9.44705
263 1 -1.1104 3.89194 11.0721 9.44255
254 1 -1.1104 6.71226 11.0714 9.49216
81 1 -1.1104 9.40018 13.8517 12.2787
8652 2 2.2208 13.7882 15.2026 10.9497
8948 2 2.2208 -0.402569 15.164 7.95647
8951 2 2.2208 -0.320083 9.77046 2.3395
235 1 -1.1104 6.72878 8.15737 6.60548
289 1 -1.1104 6.74385 16.6543 9.4677
243 1 -1.1104 6.61792 8.16008 12.245
249 1 -1.1104 6.82142 10.9458 12.2715
248 1 -1.1104 6.62472 5.39689 12.1424
253 1 -1.1104 6.5219 5.41003 9.40945
245 1 -1.1104 6.64185 8.19702 9.46434
264 1 -1.1104 9.49837 10.9479 9.27986
268 1 -1.1104 9.43996 5.34817 9.45669
270 1 -1.1104 9.52454 11.1471 12.0859
271 1 -1.1104 9.43355 5.48978 12.279
272 2 2.2208 8.19296 9.56424 10.8127
273 1 -1.1104 9.49469 8.14285 9.46856
274 2 2.2208 8.13915 12.3609 7.91632
275 2 2.2208 8.06194 6.92486 7.91873
276 2 2.2208 10.827 6.77398 10.8609
277 2 2.2208 10.8762 12.3967 10.8983
278 1 -1.1104 12.404 8.1785 12.2398
279 1 -1.1104 12.3562 8.24184 9.51498
280 1 -1.1104 12.0995 5.45916 12.2085
281 1 -1.1104 12.2775 10.8998 12.3268
282 2 2.2208 10.9654 9.73931 8.04821
283 1 -1.1104 12.2092 5.52331 9.44729
284 1 -1.1104 12.2604 10.8811 9.47318
285 1 -1.1104 9.54379 8.314 12.3136
8873 2 2.2208 -0.353174 12.3771 10.7866
8953 2 2.2208 -0.296469 20.7592 7.9784
202 1 -1.1104 9.41326 19.3433 9.50898
8940 2 2.2208 13.6232 4.09933 11.0021
299 1 -1.1104 1.02857 13.7621 11.9854
296 1 -1.1104 6.76095 19.4598 12.1158
301 1 -1.1104 3.91918 19.5448 9.41057
300 2 2.2208 5.33526 18.0947 10.7184
52 1 -1.1104 1.06108 16.5456 12.2221
83 2 2.2208 2.39583 15.3362 10.6485
104 2 2.2208 2.47864 20.8879 10.7405
135 1 -1.1104 3.87007 13.9097 9.42007
136 1 -1.1104 3.84027 16.5324 9.22785
137 2 2.2208 2.44892 18.2299 7.96561
229 1 -1.1104 3.81152 16.6726 12.0678
286 1 -1.1104 4.01062 19.5152 12.2111
287 1 -1.1104 3.86809 13.7636 12.2832
291 1 -1.1104 1.21589 19.4348 9.38997
292 1 -1.1104 0.962374 16.6352 9.43726
293 2 2.2208 5.27077 20.8832 7.90443
294 1 -1.1104 0.940321 13.9176 9.39703
295 2 2.2208 5.3462 15.3255 7.86172
298 1 -1.1104 1.25893 19.3553 12.1896
201 1 -1.1104 9.68878 13.7231 9.31299
233 1 -1.1104 12.3968 14.0331 9.50489
26 1 -1.1104 9.43333 16.6008 9.42229
105 1 -1.1104 9.58802 19.398 12.3183
8958 2 2.2208 -0.347003 15.2882 2.43626
204 2 2.2208 10.9259 17.9894 10.8097
199 2 2.2208 8.13071 18.0713 8.03157
231 1 -1.1104 12.281 13.6913 12.2509
28 1 -1.1104 12.287 16.7646 12.3966
145 1 -1.1104 12.3622 19.5574 6.70781
163 1 -1.1104 9.59674 16.7289 6.58524
49 1 -1.1104 9.46902 16.7123 12.3036
8961 2 2.2208 13.6671 18.0424 2.53345
9107 2 2.2208 -0.264437 9.59734 13.571
200 2 2.2208 -0.360081 -1.57727 7.98833
8955 2 2.2208 13.6196 1.22012 7.95056
474 2 2.2208 2.64237 18.013 13.5462
438 2 2.2208 8.01022 6.89292 13.6998
411 2 2.2208 2.41224 6.82983 13.67
439 2 2.2208 10.911 9.62304 13.694
8284 2 2.2208 5.17583 -4.42227 -0.341195
475 2 2.2208 5.39965 20.7895 13.5947
344 2 2.2208 5.27268 4.14722 13.6168
503 2 2.2208 8.07304 18.0009 13.6613
536 2 2.2208 10.894 18.078 -0.317268
302 2 2.2208 5.19192 1.14999 16.3096
303 1 -1.1104 1.14404 -3.04324 17.8276
304 1 -1.1104 1.01905 2.75696 17.9033
307 1 -1.1104 1.08713 -3.02385 15.1079
309 1 -1.1104 1.14787 2.57079 14.9626
315 1 -1.1104 1.13254 -0.234325 17.8234
317 2 2.2208 5.19504 -1.71622 19.2443
318 2 2.2208 5.13615 3.8074 19.1636
319 1 -1.1104 1.08578 -0.0864218 15.009
323 1 -1.1104 3.70756 -2.90725 17.7769
324 1 -1.1104 3.81098 2.60939 17.7936
325 2 2.2208 2.43421 1.08627 19.241
326 1 -1.1104 3.8099 -2.82573 14.8208
328 1 -1.1104 3.9061 2.72621 15.0637
330 2 2.2208 2.35398 -1.61734 16.3768
331 2 2.2208 2.50765 4.07603 16.4667
332 1 -1.1104 3.88809 -0.284516 17.7204
333 1 -1.1104 3.74661 -0.0925273 14.9458
8539 2 2.2208 10.9217 -4.37154 16.3744
327 1 -1.1104 3.79553 -3.0426 20.6471
310 1 -1.1104 1.03693 2.65131 20.685
329 1 -1.1104 3.85466 2.56732 20.581
8566 2 2.2208 2.38748 -4.41699 19.2499
9320 2 2.2208 13.6339 1.11582 19.3017
8567 2 2.2208 5.13867 -4.32458 16.4361
334 1 -1.1104 3.88836 -0.28052 20.5624
529 2 2.2208 5.28441 1.30376 27.6555
9134 2 2.2208 13.6415 18.0712 19.4316
313 1 -1.1104 6.52762 2.60184 15.0267
305 1 -1.1104 6.61966 -2.90729 17.7873
311 1 -1.1104 6.61732 -2.9433 14.9406
306 1 -1.1104 6.76694 2.5717 17.8013
316 1 -1.1104 6.48167 -0.0285028 17.8056
314 1 -1.1104 6.73377 2.64664 20.6266
321 1 -1.1104 6.56183 -0.236826 15.0484
345 2 2.2208 10.7814 1.19556 16.4771
346 1 -1.1104 12.3277 -3.00778 17.8239
347 1 -1.1104 12.1807 2.43946 17.9059
348 1 -1.1104 12.1971 -2.85477 15.1197
350 1 -1.1104 12.1898 2.64819 15.1928
352 1 -1.1104 12.1893 -0.387068 17.6164
353 2 2.2208 10.7092 -1.57114 19.2282
354 2 2.2208 10.8013 4.05364 19.3593
355 1 -1.1104 12.1817 -0.00878451 14.9785
357 1 -1.1104 9.32988 -2.82916 17.7701
358 1 -1.1104 9.44278 2.75748 17.8076
359 2 2.2208 8.06318 1.22698 19.1351
360 1 -1.1104 9.38047 -2.89213 14.9843
362 1 -1.1104 9.34867 2.76324 15.1027
364 2 2.2208 8.02077 -1.52918 16.3225
365 2 2.2208 8.10897 4.08844 16.4339
366 1 -1.1104 9.38815 -0.106425 17.7106
367 1 -1.1104 9.51362 -0.108628 14.8632
356 1 -1.1104 12.1986 -0.255561 20.5379
351 1 -1.1104 12.2148 2.57395 20.6645
8627 2 2.2208 5.28044 -4.45264 22.0724
322 1 -1.1104 6.6733 -0.180664 20.7113
368 1 -1.1104 9.36704 -0.229889 20.419
363 1 -1.1104 9.35866 2.52613 20.6343
562 2 2.2208 8.12535 20.8141 27.6919
372 1 -1.1104 12.3162 14.0068 26.3076
9062 2 2.2208 13.8321 9.63531 16.4708
378 2 2.2208 5.23572 6.84618 16.4769
379 2 2.2208 5.16768 12.3581 16.4749
380 1 -1.1104 1.07698 8.0451 17.8786
382 1 -1.1104 1.04007 8.1738 15.2033
386 1 -1.1104 1.10862 5.35298 17.7262
387 1 -1.1104 1.20659 11.0228 17.8663
390 2 2.2208 5.29807 9.62179 19.2371
391 1 -1.1104 1.1008 5.38907 14.9703
393 1 -1.1104 1.09273 10.9791 15.1427
399 1 -1.1104 3.74282 8.19479 17.7968
400 2 2.2208 2.52246 6.7922 19.2544
401 2 2.2208 2.37677 12.4091 19.2634
402 1 -1.1104 3.83224 8.35276 14.9111
404 2 2.2208 2.53406 9.57613 16.4421
405 1 -1.1104 3.91653 5.38477 17.9765
406 1 -1.1104 3.88948 11.0563 17.7518
407 1 -1.1104 3.83975 5.4717 15.2134
409 1 -1.1104 3.74901 11.1944 15.0284
394 1 -1.1104 0.982272 11.1023 20.8639
403 1 -1.1104 3.89968 8.27348 20.6275
392 1 -1.1104 0.960529 5.46204 20.5488
410 1 -1.1104 3.82205 10.9468 20.5397
531 2 2.2208 2.40943 3.92254 27.6882
384 1 -1.1104 6.62014 8.41401 15.0748
408 1 -1.1104 3.76467 5.43796 20.7308
9069 2 2.2208 -0.307921 12.3998 16.3604
8628 2 2.2208 10.8968 -4.4826 22.0533
381 1 -1.1104 6.57246 8.26152 17.886
397 1 -1.1104 6.61455 11.1683 15.0257
396 1 -1.1104 6.7436 5.5265 20.7687
388 1 -1.1104 6.64966 5.42553 17.8171
395 1 -1.1104 6.74616 5.37963 15.0944
389 1 -1.1104 6.61754 10.8601 17.7764
414 2 2.2208 10.9153 6.84038 16.4105
415 2 2.2208 10.8454 12.2859 16.4331
416 1 -1.1104 12.1639 8.24384 17.7303
417 1 -1.1104 12.3466 8.11009 15.0222
419 1 -1.1104 12.3225 5.32217 17.9644
420 1 -1.1104 12.4969 11.0465 18.0347
421 2 2.2208 10.8936 9.59062 19.2115
422 1 -1.1104 12.3471 5.38734 15.0667
424 1 -1.1104 12.2194 10.9833 15.1925
426 1 -1.1104 9.32763 8.19961 17.7946
427 2 2.2208 8.04638 6.77868 19.2953
428 2 2.2208 8.00012 12.4836 19.1861
429 1 -1.1104 9.50582 8.25142 15.1549
431 2 2.2208 8.06003 9.5836 16.5137
432 1 -1.1104 9.52833 5.43697 17.9399
433 1 -1.1104 9.37996 10.9871 17.7894
434 1 -1.1104 9.41901 5.44555 15.0837
436 1 -1.1104 9.43226 11.0079 14.9118
430 1 -1.1104 9.51448 8.24935 20.6903
437 1 -1.1104 9.43017 11.1567 20.5136
385 1 -1.1104 6.7151 8.23535 20.4681
441 2 2.2208 5.32625 18.0772 16.4488
442 1 -1.1104 1.0867 13.8015 17.8708
443 1 -1.1104 1.06398 19.3523 17.6807
446 1 -1.1104 1.02144 13.8215 14.9876
448 1 -1.1104 1.23093 19.2177 14.9337
454 1 -1.1104 1.02963 16.5241 17.923
456 2 2.2208 5.28742 15.2532 19.2509
457 2 2.2208 5.33678 20.7185 19.1649
458 1 -1.1104 1.09462 16.6038 15.1251
462 1 -1.1104 3.84392 13.8037 17.7957
463 1 -1.1104 3.82195 19.5217 17.845
464 2 2.2208 2.48312 17.9026 19.2292
465 1 -1.1104 3.85795 13.8789 14.9185
467 1 -1.1104 3.97879 19.5187 15.1074
469 2 2.2208 2.42091 15.103 16.4484
470 2 2.2208 2.53548 20.8219 16.3445
471 1 -1.1104 3.88935 16.7308 17.7025
472 1 -1.1104 3.82819 16.5893 14.8571
445 1 -1.1104 6.71648 19.4431 17.8303
449 1 -1.1104 1.12649 19.3775 20.4877
455 1 -1.1104 6.79713 16.7068 17.7806
473 1 -1.1104 3.96285 16.5779 20.7288
468 1 -1.1104 4.00815 19.4191 20.5842
466 1 -1.1104 3.89019 13.7988 20.6281
447 1 -1.1104 1.12577 13.915 20.6396
451 1 -1.1104 6.63001 13.77 20.7116
450 1 -1.1104 6.62224 13.7708 14.9614
459 1 -1.1104 1.04859 16.6612 20.7485
335 1 -1.1104 12.2351 19.4427 26.3835
460 1 -1.1104 6.52363 16.7406 14.8441
452 1 -1.1104 6.72798 19.4527 14.9848
444 1 -1.1104 6.59725 13.8851 17.8254
477 2 2.2208 10.8743 17.9598 16.4962
478 1 -1.1104 12.268 13.7397 17.8053
479 1 -1.1104 12.346 19.533 17.9692
480 1 -1.1104 12.1973 13.686 15.1272
482 1 -1.1104 12.4003 19.2292 15.1725
484 1 -1.1104 12.2119 16.6665 18.0954
485 2 2.2208 10.8679 15.0896 19.1336
486 2 2.2208 10.8997 20.8955 19.2889
487 1 -1.1104 12.1676 16.3889 15.3809
489 1 -1.1104 9.24693 13.9648 17.9202
490 1 -1.1104 9.45583 19.5011 17.9348
491 2 2.2208 8.13601 18.1306 19.2007
492 1 -1.1104 9.53341 13.8431 15.156
494 1 -1.1104 9.68523 19.3693 15.1848
496 2 2.2208 8.03582 15.2044 16.4121
497 2 2.2208 8.08122 20.8267 16.3786
498 1 -1.1104 9.50631 16.7382 17.9452
499 1 -1.1104 9.43344 16.6408 15.0838
493 1 -1.1104 9.4185 13.7771 20.5717
481 1 -1.1104 12.2014 13.8451 20.6425
500 1 -1.1104 9.45913 16.6505 20.7181
488 1 -1.1104 12.2525 16.5621 20.7706
453 1 -1.1104 6.81385 19.4153 20.6649
370 1 -1.1104 9.39657 19.4831 23.5652
374 2 2.2208 2.5166 15.2828 27.7207
9332 2 2.2208 13.7408 6.71791 24.8618
341 1 -1.1104 12.4844 16.6307 26.2969
312 1 -1.1104 6.66818 -2.98228 20.5486
9064 2 2.2208 13.7597 12.4216 19.2171
9336 2 2.2208 -0.396756 12.5334 27.63
594 2 2.2208 5.32648 6.84269 27.7468
530 2 2.2208 2.37344 -1.54878 27.7598
308 1 -1.1104 0.974507 -3.04842 20.7457
320 1 -1.1104 0.964312 -0.185363 20.7137
505 2 2.2208 5.39982 1.18002 22.0674
506 1 -1.1104 1.0256 -2.85931 23.5125
507 1 -1.1104 0.972236 2.50561 23.398
510 1 -1.1104 1.09322 -2.90532 26.2569
511 1 -1.1104 1.02399 2.59362 26.2154
514 1 -1.1104 0.980049 -0.165166 23.5274
516 2 2.2208 5.1218 -1.40623 24.9273
517 2 2.2208 5.33445 3.97526 24.8654
518 1 -1.1104 1.07434 -0.0818357 26.3868
520 1 -1.1104 3.77791 -2.97238 23.4142
521 1 -1.1104 3.84016 2.64066 23.3246
522 2 2.2208 2.4324 1.34065 24.7776
523 1 -1.1104 3.84767 -2.8729 26.1928
524 1 -1.1104 3.8878 2.68102 26.0783
525 2 2.2208 2.44412 -1.60625 22.0151
526 2 2.2208 2.37753 4.0772 22.0455
527 1 -1.1104 3.84721 -0.0583405 23.4954
528 1 -1.1104 3.78484 -0.124428 26.2701
559 2 2.2208 10.8555 1.35007 27.7468
513 1 -1.1104 6.71127 2.58569 26.3451
519 1 -1.1104 6.78973 -0.231117 26.3384
508 1 -1.1104 6.78959 -3.04074 23.5606
515 1 -1.1104 6.70697 -0.315456 23.5283
537 2 2.2208 5.254 18.0223 27.6913
512 1 -1.1104 6.59118 -2.96767 26.4494
9175 2 2.2208 -0.338116 17.9694 16.5086
509 1 -1.1104 6.58325 2.51781 23.4953
349 1 -1.1104 12.2251 -2.97916 20.4253
361 1 -1.1104 9.35907 -3.14974 20.633
541 2 2.2208 10.7831 1.20295 21.9901
542 1 -1.1104 12.3066 -2.84567 23.3911
543 1 -1.1104 12.2621 2.61452 23.5075
544 1 -1.1104 12.4867 -3.10032 26.2879
545 1 -1.1104 12.4116 2.49812 26.3743
546 1 -1.1104 12.3455 -0.133098 23.3534
547 2 2.2208 10.9131 -1.47261 24.8083
548 2 2.2208 10.9426 3.87407 24.9325
549 1 -1.1104 12.2274 -0.225238 26.3134
550 1 -1.1104 9.62959 -3.00492 23.4051
551 1 -1.1104 9.50694 2.56265 23.5963
552 2 2.2208 8.14007 1.17753 24.834
553 1 -1.1104 9.6733 -2.97141 26.224
554 1 -1.1104 9.5915 2.60758 26.2757
555 2 2.2208 8.08009 -1.66062 22.0626
556 2 2.2208 8.02649 3.92185 21.9659
557 1 -1.1104 9.50236 -0.229499 23.3529
558 1 -1.1104 9.507 -0.0490899 26.1535
9327 2 2.2208 -0.287928 9.63252 24.8806
595 2 2.2208 2.47008 9.71185 27.6732
568 2 2.2208 2.33571 20.7824 27.6224
534 1 -1.1104 9.47867 13.8272 26.1731
9314 2 2.2208 -0.390619 6.93725 22.0607
338 2 2.2208 10.844 20.8776 24.979
383 1 -1.1104 1.11149 8.31538 20.654
570 2 2.2208 5.30651 6.80862 22.1379
571 2 2.2208 5.16024 12.3423 21.9603
572 1 -1.1104 1.08151 8.08544 23.5416
574 1 -1.1104 1.21063 8.24664 26.4425
576 1 -1.1104 1.1177 5.21981 23.4226
577 1 -1.1104 1.00385 10.8838 23.5153
580 2 2.2208 5.23951 9.55997 24.9051
581 1 -1.1104 0.935535 5.29972 26.1983
582 1 -1.1104 1.05956 11.112 26.3102
585 1 -1.1104 3.88123 8.11926 23.4908
586 2 2.2208 2.48315 6.77001 24.9106
587 2 2.2208 2.46745 12.4711 24.8612
588 1 -1.1104 3.89458 8.30338 26.4379
589 2 2.2208 2.45532 9.56735 21.9998
590 1 -1.1104 3.72547 5.41681 23.4569
591 1 -1.1104 3.77901 10.997 23.3723
592 1 -1.1104 3.83905 5.44178 26.3802
593 1 -1.1104 3.78248 11.1401 26.2336
575 1 -1.1104 6.7319 8.03073 26.4096
9174 2 2.2208 -0.426207 15.3062 19.2361
9328 2 2.2208 -0.298286 12.4128 22.1273
371 2 2.2208 8.09886 17.989 24.9355
504 1 -1.1104 6.65737 19.3437 26.3444
398 1 -1.1104 6.68507 11.0868 20.5495
418 1 -1.1104 12.2179 8.30453 20.639
425 1 -1.1104 12.2627 10.9658 20.6869
435 1 -1.1104 9.41724 5.39562 20.7023
578 1 -1.1104 6.679 5.35705 23.5297
583 1 -1.1104 6.68644 5.27142 26.3393
573 1 -1.1104 6.55148 8.13296 23.5226
584 1 -1.1104 6.63695 10.945 26.2642
579 1 -1.1104 6.65936 11.0142 23.4941
9331 2 2.2208 13.7848 12.5385 24.9974
423 1 -1.1104 12.285 5.42248 20.826
601 1 -1.1104 9.34935 11.0211 26.1936
602 1 -1.1104 9.48535 5.27922 26.1368
603 1 -1.1104 9.65998 10.9971 23.3119
604 1 -1.1104 9.43198 5.29394 23.2584
605 2 2.2208 8.15438 9.59783 21.9843
606 1 -1.1104 9.51616 8.09031 26.2528
607 2 2.2208 8.06973 12.3868 24.7641
608 2 2.2208 8.12362 6.67868 24.889
609 2 2.2208 10.9248 6.77983 22.1822
610 2 2.2208 10.9159 12.5002 21.9891
611 1 -1.1104 12.3408 8.09281 23.4397
612 1 -1.1104 12.0919 8.33683 26.2118
613 1 -1.1104 12.3679 5.36811 23.4792
614 1 -1.1104 12.3663 11.1273 23.4933
615 2 2.2208 10.9306 9.67 24.742
616 1 -1.1104 12.265 5.43587 26.4194
617 1 -1.1104 12.2768 11.0964 26.201
618 1 -1.1104 9.52643 8.10212 23.4711
9330 2 2.2208 -0.443604 17.9703 22.0718
598 1 -1.1104 9.45759 16.6448 23.4887
369 1 -1.1104 9.43746 13.7865 23.4202
628 1 -1.1104 6.7534 16.5955 26.2721
596 2 2.2208 5.37072 12.4595 27.6145
535 2 2.2208 8.07238 15.2352 27.6703
635 1 -1.1104 6.54645 13.7677 23.514
532 1 -1.1104 6.73275 16.6334 23.5217
461 1 -1.1104 6.64822 16.472 20.8135
626 1 -1.1104 6.71148 13.7794 26.2312
632 1 -1.1104 6.64485 19.3762 23.3941
533 1 -1.1104 4.00441 14.0054 26.3791
597 2 2.2208 2.47346 15.2337 22.1058
600 2 2.2208 2.46712 20.7812 21.948
622 1 -1.1104 3.93173 16.6417 26.2593
623 1 -1.1104 3.92719 16.5575 23.4249
624 1 -1.1104 0.958139 16.5725 23.5346
625 1 -1.1104 3.84654 19.2325 23.4975
627 1 -1.1104 3.71561 13.7978 23.5273
629 1 -1.1104 0.949141 19.4018 26.1542
630 1 -1.1104 1.10841 16.599 26.2175
631 1 -1.1104 0.970422 13.7987 26.1539
633 2 2.2208 5.20217 20.7568 24.7891
634 2 2.2208 5.38013 15.1917 24.852
636 1 -1.1104 0.927762 19.3216 23.3946
637 1 -1.1104 1.01614 13.8136 23.4271
638 2 2.2208 5.30788 17.9716 22.0986
639 1 -1.1104 3.81294 19.2963 26.1949
640 2 2.2208 2.38822 17.8447 24.8485
337 2 2.2208 10.9122 15.2841 24.8092
483 1 -1.1104 12.2756 19.4631 20.6271
564 1 -1.1104 12.2867 13.8858 23.5019
563 2 2.2208 10.8835 18.0126 22.0944
9334 2 2.2208 -0.46022 1.23232 27.7598
539 1 -1.1104 9.48203 19.4842 26.2779
599 1 -1.1104 9.56399 16.6661 26.2886
540 2 2.2208 8.15016 15.1813 22.0874
565 1 -1.1104 12.2304 19.5787 23.4406
495 1 -1.1104 9.46609 19.422 20.6553
336 1 -1.1104 12.2863 16.834 23.5325
569 2 2.2208 8.05393 20.7808 21.9987
9340 2 2.2208 13.785 15.231 27.7507
9339 2 2.2208 -0.489122 15.239 24.8583
339 2 2.2208 -0.323292 -1.5908 19.302
373 2 2.2208 13.6388 -1.63333 16.3836
619 2 2.2208 10.7928 6.80745 27.6997
621 2 2.2208 10.8832 12.4328 27.6276
8571 2 2.2208 10.8357 -4.39763 27.637
620 2 2.2208 8.06223 9.5584 27.6767
560 2 2.2208 8.04912 -1.63806 27.6264
561 2 2.2208 8.05622 3.97951 27.7734
502 2 2.2208 11.0128 15.1838 13.5991
412 2 2.2208 5.28261 9.67106 13.4512
9177 2 2.2208 -0.216642 20.6983 13.5638
476 2 2.2208 5.22773 15.2743 13.4897
641 2 2.2208 5.28065 23.788 5.17195
642 2 2.2208 5.38855 29.364 5.24906
643 1 -1.1104 1.00832 25.029 0.914214
644 1 -1.1104 0.95289 24.9405 3.61721
645 1 -1.1104 0.962927 22.2523 0.936308
646 1 -1.1104 1.13185 27.7957 0.995888
647 2 2.2208 5.26434 26.4532 2.34189
648 1 -1.1104 0.974744 22.2991 3.7988
649 1 -1.1104 1.15491 27.8358 3.75621
650 1 -1.1104 3.83593 24.9559 1.0283
651 2 2.2208 2.41045 23.6721 2.40755
652 2 2.2208 2.51761 29.2018 2.57985
653 1 -1.1104 3.79613 25.1454 3.70309
654 2 2.2208 2.48268 26.394 5.2076
655 1 -1.1104 3.7833 22.121 1.04087
656 1 -1.1104 3.93214 27.806 1.0566
657 1 -1.1104 3.92609 22.3844 3.76536
658 1 -1.1104 3.90007 27.9571 3.89138
782 1 -1.1104 1.04715 25.1098 6.54996
790 1 -1.1104 3.91719 27.8055 6.65729
784 1 -1.1104 0.985333 22.4131 6.64567
665 1 -1.1104 6.77127 27.9352 0.919339
663 1 -1.1104 6.71111 25.122 3.75429
664 1 -1.1104 6.66756 22.2272 1.01562
789 1 -1.1104 3.63288 22.5112 6.67687
786 1 -1.1104 6.54227 22.3981 6.56502
788 1 -1.1104 3.79603 25.0353 6.54425
1325 1 -1.1104 9.42141 47.4878 0.947974
1270 1 -1.1104 1.07466 47.4016 1.2005
9660 2 2.2208 13.6999 34.8694 2.39041
783 1 -1.1104 6.55712 25.1494 6.5813
662 1 -1.1104 6.59667 25.0203 0.918355
666 1 -1.1104 6.67145 22.4017 3.82197
667 1 -1.1104 6.67853 27.9601 3.81241
668 2 2.2208 10.8331 23.6937 5.15266
669 2 2.2208 10.8592 29.3306 5.23225
670 1 -1.1104 12.288 25.1384 1.05245
671 1 -1.1104 12.2572 25.0859 3.8079
672 1 -1.1104 12.4127 22.3536 0.920205
673 1 -1.1104 12.1519 27.877 1.13316
674 2 2.2208 10.7868 26.4799 2.51741
675 1 -1.1104 12.2428 22.2719 3.88401
676 1 -1.1104 12.4945 27.9543 4.21496
677 1 -1.1104 9.55274 25.0029 1.17992
678 2 2.2208 8.09438 23.6747 2.35837
679 2 2.2208 8.07189 29.3039 2.45318
680 1 -1.1104 9.45474 25.1761 3.79966
681 2 2.2208 8.11641 26.5675 5.16445
682 1 -1.1104 9.51988 22.1512 1.0187
683 1 -1.1104 9.49267 27.8372 0.884773
684 1 -1.1104 9.34003 22.2231 3.78545
685 1 -1.1104 9.65222 27.9901 3.71519
818 1 -1.1104 9.43731 25.1133 6.48928
820 1 -1.1104 9.50009 27.9083 6.57474
1179 2 2.2208 10.7024 29.1815 -0.529713
819 1 -1.1104 9.34305 22.3607 6.49062
689 2 2.2208 5.22925 35.0104 5.20025
690 1 -1.1104 1.10806 30.6653 1.06537
691 1 -1.1104 1.0705 36.3639 1.03298
693 1 -1.1104 1.15079 30.6136 3.94897
694 1 -1.1104 1.16955 36.2175 3.87842
696 1 -1.1104 1.02464 33.545 0.991584
697 2 2.2208 5.36776 32.0822 2.39497
698 2 2.2208 5.24847 37.6839 2.24543
699 1 -1.1104 1.09216 33.4755 3.84454
701 1 -1.1104 3.84058 30.5382 0.94535
702 1 -1.1104 3.82125 36.3071 0.904292
703 2 2.2208 2.48638 34.904 2.47371
704 1 -1.1104 3.85473 30.7914 3.84644
705 1 -1.1104 3.8937 36.2856 3.87334
706 2 2.2208 2.48974 32.0837 5.42107
707 2 2.2208 2.57237 37.7565 5.27504
708 1 -1.1104 4.03736 33.4228 1.10367
709 1 -1.1104 3.87666 33.591 3.89502
714 1 -1.1104 6.70265 30.6464 3.86655
836 1 -1.1104 1.21744 36.2229 6.60309
838 1 -1.1104 6.67847 36.2847 6.58804
695 1 -1.1104 6.69755 36.3844 3.76881
692 1 -1.1104 6.60082 36.1766 0.977938
9661 2 2.2208 -0.256402 40.4358 5.34612
840 1 -1.1104 6.7516 33.6444 6.62584
9637 2 2.2208 -0.402691 45.8879 5.31736
1498 1 -1.1104 12.0728 47.4446 6.65749
661 1 -1.1104 9.51232 44.6848 6.62134
700 1 -1.1104 6.61617 33.5417 3.85074
715 1 -1.1104 6.85107 33.3386 1.09124
713 1 -1.1104 6.78866 30.6088 1.01443
716 2 2.2208 10.9066 34.8782 5.30013
717 1 -1.1104 12.2853 30.6916 1.19469
718 1 -1.1104 12.2315 36.2834 1.06544
719 1 -1.1104 12.1416 30.7981 3.97826
720 1 -1.1104 12.2473 36.2143 3.98061
721 1 -1.1104 12.3071 33.6365 0.89453
722 2 2.2208 10.7803 32.1511 2.42975
723 2 2.2208 10.7765 37.6681 2.38627
724 1 -1.1104 12.1342 33.4575 3.66606
725 1 -1.1104 9.49461 30.6198 1.08533
726 1 -1.1104 9.39219 36.3151 1.17859
727 2 2.2208 8.11369 34.9236 2.53476
728 1 -1.1104 9.48712 30.7872 3.81993
729 1 -1.1104 9.42728 36.2623 4.0431
730 2 2.2208 8.14163 32.2618 5.29197
731 2 2.2208 8.18791 37.6032 5.29955
732 1 -1.1104 9.48834 33.4539 0.952713
733 1 -1.1104 9.42156 33.5209 3.85207
872 1 -1.1104 9.582 30.7684 6.63732