ITEM: TIMESTEP
100000
ITEM: NUMBER OF ATOMS
17700
ITEM: BOX BOUNDS pp pp pp
-3.6178596878187752e-01 2.7701785968782438e+01
-4.3254828454982386e+00 3.3240548284550232e+02
-3.5765380544577963e-01 2.7697653805445071e+01
ITEM: ATOMS id type q x y z
1 2 2.2208 5.21011 1.29132 5.22016
2 1 -1.1104 0.996535 -3.00208 1.02694
3 1 -1.1104 1.12017 2.56665 0.95559
6 1 -1.1104 1.10464 -2.83828 3.8804
7 1 -1.1104 1.03931 2.78359 3.88259
10 1 -1.1104 1.17019 -0.107671 1.01848
12 2 2.2208 5.15261 -1.60144 2.37779
14 1 -1.1104 1.02225 -0.0852529 3.77368
16 1 -1.1104 3.82815 -2.9005 1.11119
17 1 -1.1104 3.85303 2.71398 1.02025
18 2 2.2208 2.48742 1.20305 2.32377
19 1 -1.1104 3.81363 -2.99177 3.83738
20 1 -1.1104 3.84663 2.66387 3.87846
21 2 2.2208 2.5247 -1.41072 5.18009
22 2 2.2208 2.40388 4.11108 5.20345
23 1 -1.1104 3.85367 -0.101129 0.970158
24 1 -1.1104 3.85636 -0.14582 3.72836
13 2 2.2208 5.17371 4.05225 2.40495
166 1 -1.1104 1.0477 -2.80629 6.61316
8128 2 2.2208 2.40569 -4.39338 7.85652
9 1 -1.1104 6.61242 2.64339 3.84286
11 1 -1.1104 6.6045 -0.121632 1.10666
5 1 -1.1104 6.60029 2.74901 1.13124
502 2 2.2208 10.8598 15.2172 13.6858
172 1 -1.1104 3.86303 -2.94963 6.66078
15 1 -1.1104 6.58872 -0.229676 3.83655
167 1 -1.1104 1.05382 2.64183 6.6915
170 1 -1.1104 1.18156 -0.13255 6.61033
8052 2 2.2208 5.19327 -4.33047 10.6933
8941 2 2.2208 -0.318875 6.92843 5.07077
619 2 2.2208 10.9847 6.83783 -0.422619
620 2 2.2208 8.21887 9.6531 -0.517464
25 2 2.2208 -0.353806 -1.56112 2.44235
8 1 -1.1104 6.60008 -3.01116 3.7268
4 1 -1.1104 6.50552 -3.01168 0.968167
31 2 2.2208 10.8754 1.34271 5.11527
32 1 -1.1104 12.0675 -2.93301 0.955207
33 1 -1.1104 12.202 2.53868 1.00354
34 1 -1.1104 12.2976 -2.92323 3.72345
35 1 -1.1104 12.2842 2.71831 3.72469
36 1 -1.1104 12.2063 -0.154962 0.989434
37 2 2.2208 10.8369 -1.52343 2.44561
38 2 2.2208 10.9624 4.01703 2.35116
39 1 -1.1104 12.1793 -0.0779308 3.79908
40 1 -1.1104 9.18246 -2.93111 0.976556
41 1 -1.1104 9.35222 2.54915 0.931636
42 2 2.2208 8.00174 1.27738 2.49741
43 1 -1.1104 9.5267 -2.80108 3.86921
44 1 -1.1104 9.38016 2.7696 3.65992
45 2 2.2208 8.15001 -1.50124 5.22071
47 1 -1.1104 9.39304 -0.115604 0.957449
48 1 -1.1104 9.4798 -0.119305 3.75618
46 2 2.2208 8.13907 4.09293 5.3201
207 1 -1.1104 12.346 -0.173009 6.46264
209 1 -1.1104 9.62482 2.64088 6.47393
503 2 2.2208 8.04644 17.9285 13.582
411 2 2.2208 2.48576 6.99464 13.567
206 1 -1.1104 12.2638 2.71249 6.57775
210 1 -1.1104 9.68042 -0.126054 6.60601
171 1 -1.1104 6.81723 -0.0468979 6.65356
208 1 -1.1104 9.45699 -2.9668 6.60845
8944 2 2.2208 -0.349088 1.25949 10.9172
8016 2 2.2208 -0.374754 -4.22151 5.25427
54 2 2.2208 5.31262 6.81439 5.1723
55 2 2.2208 5.50603 12.6915 5.29065
56 1 -1.1104 1.09258 8.17011 0.78176
58 1 -1.1104 1.13699 8.3974 3.65367
60 1 -1.1104 1.01953 5.35682 0.899304
61 1 -1.1104 1.09925 11.1524 1.03956
66 2 2.2208 5.27504 9.81492 2.48738
67 1 -1.1104 1.15765 5.53251 3.62365
68 1 -1.1104 0.996493 11.0396 3.78765
71 1 -1.1104 3.92145 8.32858 0.996899
72 2 2.2208 2.52968 7.0014 2.27391
73 2 2.2208 2.49446 12.4897 2.5199
74 1 -1.1104 3.92644 8.31426 3.66582
75 2 2.2208 2.53794 9.75974 5.22188
76 1 -1.1104 3.88802 5.47883 0.984694
77 1 -1.1104 3.89112 11.1922 1.07295
79 1 -1.1104 3.96082 5.5689 3.76153
80 1 -1.1104 3.98293 11.3002 3.81633
65 1 -1.1104 6.82261 11.1189 6.63496
8949 2 2.2208 -0.424656 1.29307 5.20062
238 1 -1.1104 3.87809 8.42482 6.46325
62 1 -1.1104 1.13154 11.0227 6.62925
8108 2 2.2208 10.9571 -4.30053 10.7864
63 1 -1.1104 6.62499 5.48835 0.927146
69 1 -1.1104 6.69908 5.38008 3.90072
70 1 -1.1104 6.61117 11.1886 3.86048
59 1 -1.1104 6.70165 8.1425 3.87693
64 1 -1.1104 6.72087 11.0429 1.00927
57 1 -1.1104 6.80261 8.31755 1.04137
84 2 2.2208 10.8232 6.89956 5.15804
85 2 2.2208 10.8329 12.5212 5.21604
86 1 -1.1104 12.3674 8.26418 1.29463
87 1 -1.1104 12.3598 8.28225 3.98593
88 1 -1.1104 12.3599 5.43844 0.907819
89 1 -1.1104 12.3753 11.0886 1.14121
91 2 2.2208 10.9146 9.70472 2.37383
92 1 -1.1104 12.228 5.55838 3.74528
93 1 -1.1104 12.3681 10.9983 3.80465
94 1 -1.1104 9.56109 8.28843 0.886325
95 2 2.2208 8.0082 6.95844 2.45857
96 2 2.2208 8.10104 12.4775 2.45086
97 1 -1.1104 9.40719 8.2291 3.96865
98 2 2.2208 8.14276 9.6691 5.23302
99 1 -1.1104 9.48655 5.41598 0.98074
100 1 -1.1104 9.54073 11.0739 0.974434
102 1 -1.1104 9.49725 5.42543 3.89653
103 1 -1.1104 9.61929 10.9529 3.76015
266 1 -1.1104 12.2159 5.49466 6.50112
237 1 -1.1104 6.77413 5.5551 6.67243
269 1 -1.1104 9.54441 5.53224 6.67097
265 1 -1.1104 12.367 8.40023 6.77284
101 1 -1.1104 9.57789 10.9988 6.53433
8958 2 2.2208 -0.346137 15.3399 2.43841
344 2 2.2208 5.27866 4.17755 13.5356
106 2 2.2208 5.20664 18.2377 5.20647
107 1 -1.1104 1.10846 13.9364 1.14658
109 1 -1.1104 0.880909 19.6045 1.10586
113 1 -1.1104 1.12725 13.9152 3.92176
114 1 -1.1104 1.06828 19.7041 3.93009
116 1 -1.1104 0.989824 16.8596 0.963702
119 2 2.2208 5.27777 15.3603 2.37278
120 2 2.2208 5.19728 21.0909 2.4013
121 1 -1.1104 0.957196 16.7431 3.78841
123 1 -1.1104 3.97302 14.1414 0.990291
125 1 -1.1104 3.76119 19.6312 0.973053
127 2 2.2208 2.36055 18.175 2.402
128 1 -1.1104 3.90491 14.0442 3.72155
129 1 -1.1104 3.84718 19.6393 3.85494
130 2 2.2208 2.53381 15.2973 5.19838
131 2 2.2208 2.50161 20.9642 5.32111
132 1 -1.1104 3.78665 16.8814 0.916094
134 1 -1.1104 3.86591 16.757 3.73513
139 1 -1.1104 6.71775 19.6471 3.91186
108 1 -1.1104 1.08994 13.9769 6.65998
133 1 -1.1104 3.73397 16.7491 6.61566
138 1 -1.1104 6.60758 19.4904 1.08641
122 1 -1.1104 6.72752 16.8556 3.76461
112 1 -1.1104 6.73631 19.6204 6.70351
165 1 -1.1104 1.01459 19.5854 6.69222
124 1 -1.1104 4.00103 13.9795 6.6447
440 2 2.2208 8.08337 12.464 13.7767
117 1 -1.1104 1.02721 16.7352 6.62089
126 1 -1.1104 3.88095 19.5714 6.60892
143 1 -1.1104 12.0143 13.8771 6.63256
140 1 -1.1104 6.50533 16.6376 0.938627
118 1 -1.1104 6.55918 16.7604 6.74346
115 1 -1.1104 6.7197 14.1381 3.96069
149 1 -1.1104 12.239 16.722 6.62271
8079 2 2.2208 8.08647 -4.16922 7.97396
111 1 -1.1104 6.66117 13.9804 6.87195
163 1 -1.1104 9.47606 16.8794 6.65154
110 1 -1.1104 6.72973 13.9199 1.00989
141 2 2.2208 10.7619 18.1686 5.16593
142 1 -1.1104 12.2804 13.8744 0.981758
144 1 -1.1104 12.0959 19.587 0.924066
146 1 -1.1104 12.2987 13.924 3.84024
147 1 -1.1104 12.1992 19.5581 3.73824
148 1 -1.1104 12.2733 16.6852 0.999726
150 2 2.2208 10.8669 15.3278 2.33122
151 2 2.2208 10.8068 20.9602 2.45438
152 1 -1.1104 12.1059 16.7262 3.95121
153 1 -1.1104 9.50704 14.0397 0.893517
155 1 -1.1104 9.32798 19.6333 1.16331
157 2 2.2208 8.12347 18.1647 2.41027
158 1 -1.1104 9.58317 13.7856 3.69673
159 1 -1.1104 9.37695 19.4552 3.81025
160 2 2.2208 8.06498 15.5134 5.30421
161 2 2.2208 7.96176 20.9578 5.16653
162 1 -1.1104 9.50594 16.7871 0.903695
164 1 -1.1104 9.40388 16.6457 3.79142
145 1 -1.1104 12.3684 19.5614 6.61465
156 1 -1.1104 9.47487 19.5489 6.62154
233 1 -1.1104 12.3296 13.8289 9.36607
8938 2 2.2208 13.6699 12.4762 7.93713
289 1 -1.1104 6.47388 16.7777 9.52163
168 1 -1.1104 6.71189 -2.93839 6.64695
174 1 -1.1104 3.91158 0.0766335 6.66754
296 1 -1.1104 6.732 19.6593 12.211
173 1 -1.1104 3.77846 2.75779 6.57717
175 2 2.2208 5.3485 1.13952 10.7905
176 1 -1.1104 1.1281 -2.88948 12.1466
177 1 -1.1104 1.17793 2.60287 12.2159
180 1 -1.1104 1.00342 -2.88922 9.27179
181 1 -1.1104 1.01851 2.7734 9.42777
184 1 -1.1104 1.10134 -0.0597455 12.2846
186 2 2.2208 5.14884 -1.42502 7.99768
187 2 2.2208 5.29619 4.17046 8.00942
188 1 -1.1104 0.975004 -0.00533359 9.39851
190 1 -1.1104 3.9447 -2.81827 12.3443
191 1 -1.1104 3.94462 2.60995 12.1132
192 2 2.2208 2.43386 1.37281 8.1076
193 1 -1.1104 3.81778 -3.01699 9.41547
194 1 -1.1104 3.87554 2.82823 9.5573
195 2 2.2208 2.47001 -1.59518 10.7057
197 1 -1.1104 3.87735 -0.305191 12.2219
198 1 -1.1104 3.74312 -0.105652 9.46299
196 2 2.2208 2.56037 4.0684 10.79
182 1 -1.1104 6.69564 -2.78992 9.3926
154 1 -1.1104 9.39946 14.0226 6.62909
29 2 2.2208 10.8272 15.2306 8.0211
205 1 -1.1104 12.1606 -2.91203 6.63607
8954 2 2.2208 13.7823 12.4813 2.40275
82 2 2.2208 8.15 20.9156 10.845
178 1 -1.1104 6.81353 -2.82551 12.1459
189 1 -1.1104 6.71425 -0.137678 9.39488
169 1 -1.1104 6.75796 2.71639 6.72684
179 1 -1.1104 6.56118 2.8193 12.1787
185 1 -1.1104 6.76312 -0.115275 12.3131
183 1 -1.1104 6.67313 2.67475 9.35479
211 2 2.2208 11.0634 1.33912 10.7539
212 1 -1.1104 12.3285 -2.82628 12.1917
213 1 -1.1104 12.3265 2.77926 12.1206
214 1 -1.1104 12.3577 -3.01476 9.38942
215 1 -1.1104 12.4192 2.59408 9.40725
216 1 -1.1104 12.2698 -0.127279 12.1588
217 2 2.2208 10.9718 -1.48967 7.9405
218 2 2.2208 10.9016 4.05015 8.02879
219 1 -1.1104 12.4707 -0.0860603 9.41219
220 1 -1.1104 9.61994 -2.82046 12.302
221 1 -1.1104 9.53327 2.75366 12.2934
222 2 2.2208 8.11884 1.2589 8.04494
223 1 -1.1104 9.43981 -2.76992 9.45525
224 1 -1.1104 9.47493 2.77123 9.49954
225 2 2.2208 8.15436 -1.49927 10.8155
226 2 2.2208 7.98535 4.15806 10.8313
227 1 -1.1104 9.3562 0.0152247 12.0071
228 1 -1.1104 9.69625 0.0661822 9.30033
8881 2 2.2208 -0.271454 6.97384 10.7309
239 1 -1.1104 4.02364 5.45336 6.61146
235 1 -1.1104 6.68459 8.30603 6.50503
375 2 2.2208 8.23559 1.39831 13.5237
30 2 2.2208 10.8641 20.9201 7.87252
475 2 2.2208 5.24604 20.9509 13.5444
236 1 -1.1104 1.18513 5.55165 6.46423
234 1 -1.1104 1.04708 8.39341 6.50489
78 1 -1.1104 3.94311 11.2167 6.59283
240 2 2.2208 5.20928 6.93958 10.8736
241 2 2.2208 5.29793 12.4424 10.9464
242 1 -1.1104 1.07586 8.23939 12.1121
244 1 -1.1104 1.19203 8.58439 9.36187
246 1 -1.1104 1.1763 5.5376 12.1613
247 1 -1.1104 1.18637 11.1065 12.3619
250 2 2.2208 5.2765 9.77093 8.01839
251 1 -1.1104 1.21603 5.61123 9.20924
252 1 -1.1104 1.03701 11.139 9.54078
255 1 -1.1104 3.91385 8.43955 12.3003
256 2 2.2208 2.65861 6.90001 7.97213
257 2 2.2208 2.48732 12.489 8.06085
258 1 -1.1104 3.922 8.38334 9.40883
259 2 2.2208 2.64765 9.78933 10.8019
260 1 -1.1104 3.91272 5.59444 12.1851
261 1 -1.1104 3.92326 11.219 12.4214
262 1 -1.1104 3.88477 5.55305 9.42573
263 1 -1.1104 3.84573 11.1445 9.35993
253 1 -1.1104 6.67869 5.53296 9.42507
248 1 -1.1104 6.71505 5.61552 12.1926
249 1 -1.1104 6.61655 10.9898 12.1617
438 2 2.2208 8.1228 6.85922 13.6158
8873 2 2.2208 -0.228867 12.5017 10.8941
376 2 2.2208 10.886 -1.44934 13.5417
439 2 2.2208 10.9328 9.66992 13.7025
200 2 2.2208 -0.427157 -1.49155 7.90067
267 1 -1.1104 9.4353 8.32335 6.5576
243 1 -1.1104 6.67939 8.311 12.2181
245 1 -1.1104 6.65058 8.36764 9.42439
90 1 -1.1104 12.3289 11.104 6.68139
254 1 -1.1104 6.57211 11.2085 9.4133
264 1 -1.1104 9.42231 11.0801 9.54936
268 1 -1.1104 9.43229 5.52763 9.417
270 1 -1.1104 9.54548 10.955 12.4368
271 1 -1.1104 9.57545 5.43469 12.3542
272 2 2.2208 7.99761 9.7271 10.7772
273 1 -1.1104 9.50939 8.21112 9.39516
274 2 2.2208 8.11954 12.538 8.16466
275 2 2.2208 8.04959 6.89303 8.0143
276 2 2.2208 10.8312 6.82702 10.8533
277 2 2.2208 10.8868 12.4801 10.9854
278 1 -1.1104 12.1941 8.33642 12.1779
279 1 -1.1104 12.3979 8.1812 9.44807
280 1 -1.1104 12.3493 5.60778 12.252
281 1 -1.1104 12.3557 11.0016 12.2933
282 2 2.2208 10.9008 9.60913 8.02932
283 1 -1.1104 12.3126 5.29474 9.34674
284 1 -1.1104 12.2433 10.983 9.57288
285 1 -1.1104 9.43119 8.33018 12.2467
51 1 -1.1104 12.2193 16.696 9.52602
53 1 -1.1104 6.59113 16.7499 12.162
286 1 -1.1104 3.86475 19.467 12.282
229 1 -1.1104 3.79325 16.7167 12.3639
137 2 2.2208 2.43317 18.0677 8.01955
136 1 -1.1104 3.81106 16.588 9.51502
135 1 -1.1104 3.94351 13.7995 9.63114
298 1 -1.1104 1.03796 19.5166 12.2531
295 2 2.2208 5.307 15.3131 8.1277
294 1 -1.1104 1.21046 13.9875 9.35157
293 2 2.2208 5.18306 20.8708 8.00977
292 1 -1.1104 1.02509 16.8026 9.57025
291 1 -1.1104 1.04772 19.6087 9.5344
287 1 -1.1104 3.88336 13.9447 12.3156
299 1 -1.1104 1.1327 13.9318 12.3508
301 1 -1.1104 3.74798 19.4104 9.29307
300 2 2.2208 5.23402 18.1768 10.9856
52 1 -1.1104 1.00489 16.7686 12.3852
83 2 2.2208 2.44275 15.2906 10.8528
104 2 2.2208 2.42824 20.9493 10.7993
290 1 -1.1104 6.70269 13.8536 9.58501
343 2 2.2208 2.55992 1.31255 13.5649
81 1 -1.1104 9.44785 13.8422 12.2197
28 1 -1.1104 12.2484 16.749 12.2595
49 1 -1.1104 9.29045 16.6202 12.193
9176 2 2.2208 -0.344311 15.2815 13.738
594 2 2.2208 5.36409 6.90103 -0.379802
202 1 -1.1104 9.61422 19.481 9.38841
231 1 -1.1104 12.3087 13.8109 12.1195
297 1 -1.1104 6.68284 13.6637 12.3872
201 1 -1.1104 9.53842 13.9017 9.38552
204 2 2.2208 10.8981 18.1983 10.7818
232 1 -1.1104 12.2231 19.6213 12.2283
288 1 -1.1104 6.67649 19.6488 9.47598
27 1 -1.1104 12.422 19.6283 9.45432
26 1 -1.1104 9.45974 16.6228 9.36173
203 2 2.2208 8.08021 15.1961 10.8285
105 1 -1.1104 9.53606 19.5073 12.1426
199 2 2.2208 8.02944 18.2313 8.13815
412 2 2.2208 5.3796 9.64661 13.7343
562 2 2.2208 8.05274 20.9408 -0.422084
9107 2 2.2208 -0.265475 9.57132 13.7747
8940 2 2.2208 13.8091 3.96064 10.8332
8653 2 2.2208 -0.352278 18.1579 10.8812
8937 2 2.2208 -0.254678 9.72621 8.03079
8952 2 2.2208 -0.349296 12.529 5.25199
8953 2 2.2208 -0.344181 20.9239 7.94062
8951 2 2.2208 -0.31109 9.62456 2.40482
8961 2 2.2208 13.6226 18.2103 2.3679
474 2 2.2208 2.61131 18.1611 13.7005
8541 2 2.2208 2.64228 -4.29233 13.6727
342 2 2.2208 5.34893 -1.4487 13.6115
340 2 2.2208 -0.299959 -1.50113 13.6338
8943 2 2.2208 -0.222609 4.05643 7.9812
9177 2 2.2208 -0.24865 20.8691 13.7501
8913 2 2.2208 13.8516 20.9354 10.7691
9066 2 2.2208 13.815 12.4609 13.5938
535 2 2.2208 8.02802 15.3502 -0.294522
561 2 2.2208 8.09962 4.04004 -0.297623
621 2 2.2208 10.8479 12.5692 -0.309976
596 2 2.2208 5.23519 12.4694 -0.380911
302 2 2.2208 5.45694 1.25154 16.3938
303 1 -1.1104 1.10589 -2.99597 17.9071
304 1 -1.1104 1.05819 2.66245 17.9517
307 1 -1.1104 1.14308 -2.91926 15.0638
309 1 -1.1104 1.20259 2.67601 15.0488
315 1 -1.1104 1.00978 -0.249625 17.8253
317 2 2.2208 5.28671 -1.49292 19.2126
318 2 2.2208 5.4071 4.10447 19.1635
319 1 -1.1104 1.018 -0.256044 15.1408
323 1 -1.1104 3.90063 -2.89449 17.8302
324 1 -1.1104 3.86831 2.73733 17.8556
325 2 2.2208 2.49403 1.20903 19.2922
326 1 -1.1104 3.93104 -2.93338 15.1228
328 1 -1.1104 3.98497 2.74065 15.0673
330 2 2.2208 2.47321 -1.58491 16.4638
331 2 2.2208 2.43701 4.06268 16.3669
332 1 -1.1104 3.99613 -0.16157 17.8981
333 1 -1.1104 3.8891 -0.030642 14.9186
334 1 -1.1104 3.85417 -0.219536 20.6225
316 1 -1.1104 6.79938 -0.104495 17.8853
306 1 -1.1104 6.70793 2.63167 17.7117
322 1 -1.1104 6.53211 -0.0588985 20.5276
311 1 -1.1104 6.64266 -2.74852 15.0699
329 1 -1.1104 3.88803 2.54732 20.594
310 1 -1.1104 1.09074 2.60884 20.7402
8539 2 2.2208 10.9409 -4.36625 16.3832
8570 2 2.2208 -0.260969 -4.25135 16.5758
9341 2 2.2208 13.6555 20.9727 27.6412
530 2 2.2208 2.35169 -1.65141 27.57
321 1 -1.1104 6.86057 0.0588378 14.9379
305 1 -1.1104 6.749 -2.96756 18.0011
313 1 -1.1104 6.70614 2.87791 14.9485
345 2 2.2208 10.8942 1.15898 16.457
346 1 -1.1104 12.2573 -3.00393 17.6781
347 1 -1.1104 12.3214 2.6065 17.8494
348 1 -1.1104 12.4609 -2.83327 14.9171
350 1 -1.1104 12.2801 2.62968 15.0094
352 1 -1.1104 12.3459 -0.12367 17.8333
353 2 2.2208 10.8674 -1.59564 19.2485
354 2 2.2208 10.8464 4.02103 19.3222
355 1 -1.1104 12.3071 -0.0778969 14.8668
357 1 -1.1104 9.51597 -3.08149 17.8358
358 1 -1.1104 9.46019 2.71419 17.8341
359 2 2.2208 8.06859 1.25886 19.248
360 1 -1.1104 9.4609 -2.93532 15.1257
362 1 -1.1104 9.5221 2.77025 15.0555
364 2 2.2208 8.19076 -1.73948 16.3828
365 2 2.2208 8.1464 4.12696 16.5013
366 1 -1.1104 9.44294 -0.204668 17.8703
367 1 -1.1104 9.63845 -0.118766 14.9945
9175 2 2.2208 -0.21642 18.2639 16.4693
363 1 -1.1104 9.49952 2.68933 20.6863
9328 2 2.2208 -0.302091 12.5319 22.056
560 2 2.2208 7.86139 -1.52529 27.6365
9331 2 2.2208 13.6771 12.6592 24.7916
8566 2 2.2208 2.51797 -4.22384 19.2941
9333 2 2.2208 13.78 18.2448 24.8777
378 2 2.2208 5.24064 6.84442 16.2987
379 2 2.2208 5.16166 12.5598 16.3962
380 1 -1.1104 1.01212 8.24542 17.7752
382 1 -1.1104 1.13767 8.34737 14.8848
386 1 -1.1104 1.09315 5.35906 17.7372
387 1 -1.1104 0.987685 10.988 17.8794
390 2 2.2208 5.31048 9.46533 19.2329
391 1 -1.1104 1.11586 5.55224 15.02
393 1 -1.1104 0.975513 11.0677 15.228
399 1 -1.1104 3.75357 8.29344 17.8359
400 2 2.2208 2.49824 6.8403 19.1722
401 2 2.2208 2.49338 12.4915 19.3338
402 1 -1.1104 3.8932 8.25061 15.0383
404 2 2.2208 2.41214 9.78691 16.4301
405 1 -1.1104 3.90972 5.487 17.75
406 1 -1.1104 3.93985 11.2681 17.9849
407 1 -1.1104 3.7457 5.38296 14.8394
409 1 -1.1104 3.70488 11.1509 15.1306
394 1 -1.1104 1.02162 10.981 20.6092
381 1 -1.1104 6.65701 8.20681 17.7614
384 1 -1.1104 6.84726 8.18356 15.0437
396 1 -1.1104 6.65662 5.54237 20.636
395 1 -1.1104 6.6452 5.45518 15.0582
9103 2 2.2208 -0.313527 9.63746 19.3084
408 1 -1.1104 3.87752 5.45488 20.6331
403 1 -1.1104 3.92829 8.20218 20.7584
383 1 -1.1104 1.11637 8.25242 20.7691
8534 2 2.2208 8.1076 -4.35717 19.305
8571 2 2.2208 10.7218 -4.26467 27.6778
9327 2 2.2208 -0.314355 9.74594 24.8679
388 1 -1.1104 6.64713 5.40577 17.8629
389 1 -1.1104 6.58574 11.0287 17.8298
397 1 -1.1104 6.68485 10.9898 15.1073
414 2 2.2208 10.9525 6.85361 16.3874
415 2 2.2208 10.8368 12.5602 16.4612
416 1 -1.1104 12.2405 8.31181 17.7957
417 1 -1.1104 12.4599 8.28453 14.9723
419 1 -1.1104 12.2999 5.37488 17.9495
420 1 -1.1104 12.1467 11.1903 17.8918
421 2 2.2208 10.8956 9.73272 19.2896
422 1 -1.1104 12.3138 5.53062 15.0473
424 1 -1.1104 12.2628 10.9487 15.218
426 1 -1.1104 9.45972 8.40922 17.9766
427 2 2.2208 8.09713 7.03491 19.288
428 2 2.2208 7.95195 12.4833 19.1754
429 1 -1.1104 9.54686 8.17141 15.1366
431 2 2.2208 8.14705 9.69566 16.4551
432 1 -1.1104 9.53048 5.48983 17.9462
433 1 -1.1104 9.39612 11.1936 17.9509
434 1 -1.1104 9.51249 5.32431 15.1814
436 1 -1.1104 9.58515 11.0857 15.031
423 1 -1.1104 12.3599 5.49254 20.7114
430 1 -1.1104 9.33297 8.34009 20.8244
435 1 -1.1104 9.43457 5.5458 20.7637
425 1 -1.1104 12.349 10.9427 20.7262
437 1 -1.1104 9.5839 11.0651 20.7458
9314 2 2.2208 -0.3283 6.80017 21.9857
372 1 -1.1104 12.3165 13.8768 26.175
441 2 2.2208 5.30376 18.2643 16.467
442 1 -1.1104 1.05764 13.7753 17.9604
443 1 -1.1104 1.14964 19.5494 17.7932
446 1 -1.1104 1.0427 13.9269 15.1258
448 1 -1.1104 1.12192 19.5913 15.1656
454 1 -1.1104 1.20379 16.8144 17.8507
456 2 2.2208 5.29006 15.4 19.2712
457 2 2.2208 5.28081 20.8908 19.223
458 1 -1.1104 1.0338 16.7443 15.1925
462 1 -1.1104 3.81267 14.0423 17.8142
463 1 -1.1104 3.95914 19.5952 17.8706
464 2 2.2208 2.58226 18.0696 19.1999
465 1 -1.1104 3.70891 13.883 15.0324
467 1 -1.1104 3.88875 19.6159 15.0726
469 2 2.2208 2.3954 15.3658 16.4917
470 2 2.2208 2.50272 20.9026 16.4387
471 1 -1.1104 4.04728 16.7632 17.8928
472 1 -1.1104 3.90624 16.7219 14.9979
449 1 -1.1104 1.05602 19.3852 20.5837
473 1 -1.1104 3.98703 16.7832 20.5585
445 1 -1.1104 6.66612 19.6216 17.9007
444 1 -1.1104 6.64039 13.8709 17.8036
9069 2 2.2208 -0.299633 12.4877 16.6205
468 1 -1.1104 3.91039 19.4059 20.6652
447 1 -1.1104 1.09422 13.9299 20.7112
459 1 -1.1104 1.10841 16.6667 20.6595
595 2 2.2208 2.61377 9.69047 27.6592
500 1 -1.1104 9.43752 16.783 20.5678
453 1 -1.1104 6.68864 19.5832 20.8397
481 1 -1.1104 12.3305 13.842 20.5778
455 1 -1.1104 6.67146 16.8311 17.8143
452 1 -1.1104 6.68622 19.2639 14.9094
450 1 -1.1104 6.59223 13.7852 15.0689
460 1 -1.1104 6.67484 16.6736 14.9643
477 2 2.2208 10.8717 18.0531 16.4304
478 1 -1.1104 12.2301 14.0178 17.7934
479 1 -1.1104 12.1583 19.5487 17.7785
480 1 -1.1104 12.16 13.7122 14.8669
482 1 -1.1104 12.243 19.3278 15.0097
484 1 -1.1104 12.2722 16.7657 17.8008
485 2 2.2208 10.8753 15.3432 19.3706
486 2 2.2208 10.9386 20.8798 19.1825
487 1 -1.1104 12.4096 16.5874 15.0247
489 1 -1.1104 9.3235 13.9495 17.7158
490 1 -1.1104 9.50148 19.6091 17.6817
491 2 2.2208 8.13573 18.2469 19.326
492 1 -1.1104 9.50214 13.9327 14.9881
494 1 -1.1104 9.40214 19.5842 15.0169
496 2 2.2208 8.04354 15.3773 16.4097
497 2 2.2208 8.15604 20.9528 16.3196
498 1 -1.1104 9.42489 16.7046 17.8904
499 1 -1.1104 9.40233 16.6231 15.0128
488 1 -1.1104 12.3492 16.9243 20.6432
495 1 -1.1104 9.49169 19.6543 20.5308
483 1 -1.1104 12.3279 19.5179 20.6385
493 1 -1.1104 9.4866 13.9945 20.6186
461 1 -1.1104 6.70776 16.8006 20.6245
327 1 -1.1104 3.83026 -2.949 20.5408
532 1 -1.1104 6.64364 16.7509 23.5629
536 2 2.2208 10.8081 18.1555 27.6903
598 1 -1.1104 9.60107 16.7153 23.3553
320 1 -1.1104 1.05232 -0.0241304 20.6718
308 1 -1.1104 1.04064 -2.76252 20.6631
505 2 2.2208 5.35848 1.39878 21.928
506 1 -1.1104 1.22537 -2.91955 23.5014
507 1 -1.1104 1.02654 2.78684 23.4147
510 1 -1.1104 1.07665 -2.94301 26.3365
511 1 -1.1104 0.914049 2.62344 26.2441
514 1 -1.1104 0.895531 -0.135162 23.5934
516 2 2.2208 5.22269 -1.65792 24.8664
517 2 2.2208 5.29557 4.10289 24.7981
518 1 -1.1104 0.985423 -0.114213 26.2267
520 1 -1.1104 3.92894 -3.10206 23.4284
521 1 -1.1104 3.8821 2.78993 23.4144
522 2 2.2208 2.35749 1.25314 24.7269
523 1 -1.1104 3.75488 -3.02024 26.2326
524 1 -1.1104 3.78008 2.75698 26.3289
525 2 2.2208 2.4188 -1.39459 22.0703
526 2 2.2208 2.47481 4.1077 22.0145
527 1 -1.1104 3.72626 -0.212904 23.4853
528 1 -1.1104 3.84468 -0.234417 26.23
509 1 -1.1104 6.83879 2.72568 23.307
508 1 -1.1104 6.72721 -2.94564 23.5016
314 1 -1.1104 6.87333 2.78696 20.5069
312 1 -1.1104 6.61967 -2.94281 20.7236
512 1 -1.1104 6.56165 -3.12877 26.4053
515 1 -1.1104 6.55867 -0.0548827 23.4394
9316 2 2.2208 13.7013 4.02716 22.0595
351 1 -1.1104 12.1957 2.60308 20.5848
361 1 -1.1104 9.45992 -2.86218 20.6172
349 1 -1.1104 12.3109 -2.8809 20.6153
368 1 -1.1104 9.39829 -0.0801288 20.7127
635 1 -1.1104 6.73829 13.7853 23.3769
539 1 -1.1104 9.50928 19.684 26.2976
534 1 -1.1104 9.51383 13.7739 26.3039
9320 2 2.2208 13.6129 1.28168 19.1749
519 1 -1.1104 6.59968 -0.215842 26.2998
513 1 -1.1104 6.62173 2.55315 26.3407
356 1 -1.1104 12.1751 -0.23285 20.5837
541 2 2.2208 10.739 1.32284 22.0595
542 1 -1.1104 12.2792 -2.98009 23.3755
543 1 -1.1104 12.1613 2.62934 23.4039
544 1 -1.1104 11.9749 -2.83865 26.2461
545 1 -1.1104 12.3066 2.73421 26.2621
546 1 -1.1104 12.2454 -0.145787 23.4634
547 2 2.2208 10.8722 -1.66389 24.8723
548 2 2.2208 10.8157 4.01747 24.8661
549 1 -1.1104 12.1871 -0.0425492 26.1977
550 1 -1.1104 9.63708 -2.9405 23.2891
551 1 -1.1104 9.4107 2.48714 23.5298
552 2 2.2208 7.9038 1.21447 24.8776
553 1 -1.1104 9.35289 -3.06617 26.1277
554 1 -1.1104 9.39638 2.62658 26.2741
555 2 2.2208 8.14996 -1.54397 22.0816
556 2 2.2208 8.16505 4.07409 22.083
557 1 -1.1104 9.48448 -0.329432 23.5829
558 1 -1.1104 9.36253 -0.0784125 26.2934
9330 2 2.2208 -0.331 18.1317 22.0946
392 1 -1.1104 1.1608 5.39864 20.5459
337 2 2.2208 10.8844 15.365 24.8875
9337 2 2.2208 -0.323056 20.9543 24.9585
410 1 -1.1104 3.87445 11.0863 20.7062
570 2 2.2208 5.28985 6.79897 21.9907
571 2 2.2208 5.34796 12.4832 21.9604
572 1 -1.1104 1.04027 8.30599 23.4533
574 1 -1.1104 1.21587 8.44064 26.261
576 1 -1.1104 1.17363 5.55503 23.3649
577 1 -1.1104 1.27897 11.1625 23.4551
580 2 2.2208 5.33698 9.67408 24.8572
581 1 -1.1104 1.16145 5.40802 26.2382
582 1 -1.1104 1.14808 11.0942 26.336
585 1 -1.1104 3.87055 8.21501 23.575
586 2 2.2208 2.53899 6.87814 24.8372
587 2 2.2208 2.52173 12.5631 24.9013
588 1 -1.1104 4.0955 8.31047 26.2994
589 2 2.2208 2.54179 9.61793 22.1083
590 1 -1.1104 3.90465 5.49217 23.2971
591 1 -1.1104 3.88559 11.1058 23.3665
592 1 -1.1104 3.97442 5.52979 26.1326
593 1 -1.1104 3.96347 11.17 26.252
578 1 -1.1104 6.64423 5.5449 23.4396
584 1 -1.1104 6.66828 11.1193 26.2488
537 2 2.2208 5.16391 18.1037 27.6632
573 1 -1.1104 6.70867 8.36044 23.3946
569 2 2.2208 7.99591 20.9037 22.0359
599 1 -1.1104 9.51236 16.6472 26.1837
564 1 -1.1104 12.1647 13.9824 23.5267
398 1 -1.1104 6.71864 10.9599 20.6023
385 1 -1.1104 6.57521 8.08751 20.5913
9064 2 2.2208 13.6385 12.4152 19.3199
579 1 -1.1104 6.73533 11.0827 23.4386
575 1 -1.1104 6.85008 8.14079 26.313
418 1 -1.1104 12.16 8.15312 20.5373
583 1 -1.1104 6.8198 5.40903 26.1845
601 1 -1.1104 9.49273 11.083 26.4378
602 1 -1.1104 9.57788 5.49671 26.2936
603 1 -1.1104 9.44086 10.9978 23.7443
604 1 -1.1104 9.45189 5.33919 23.5279
605 2 2.2208 8.07837 9.74979 22.0729
606 1 -1.1104 9.62349 8.29645 26.2844
607 2 2.2208 8.17541 12.5464 24.9233
608 2 2.2208 8.07792 6.83262 24.9148
609 2 2.2208 10.8202 6.90602 22.106
610 2 2.2208 10.8968 12.4157 22.0885
611 1 -1.1104 12.229 8.21369 23.4834
612 1 -1.1104 12.4497 8.32436 26.4784
613 1 -1.1104 12.3271 5.39462 23.4665
614 1 -1.1104 12.2636 11.1065 23.5719
615 2 2.2208 10.9169 9.65436 24.9859
616 1 -1.1104 12.4477 5.5801 26.1555
617 1 -1.1104 12.3925 11.1676 26.3511
618 1 -1.1104 9.45054 8.06853 23.5535
8986 2 2.2208 13.7151 18.0919 13.5221
626 1 -1.1104 6.78539 13.9879 26.115
374 2 2.2208 2.42745 15.3634 27.6153
9317 2 2.2208 -0.254182 1.29918 16.4044
628 1 -1.1104 6.71938 16.8146 26.1635
563 2 2.2208 10.8455 18.2683 21.9952
466 1 -1.1104 3.8567 13.9129 20.7487
451 1 -1.1104 6.70553 13.9825 20.5769
636 1 -1.1104 0.932223 19.4972 23.4689
634 2 2.2208 5.29767 15.2548 24.8601
637 1 -1.1104 1.12955 13.9196 23.5031
639 1 -1.1104 3.89239 19.4924 26.1834
640 2 2.2208 2.4769 18.1743 24.7725
638 2 2.2208 5.17751 18.1277 21.9667
533 1 -1.1104 3.78632 13.9396 26.2728
597 2 2.2208 2.53788 15.3148 22.1108
600 2 2.2208 2.47414 21.0221 22.0527
622 1 -1.1104 3.75532 16.6629 26.1146
623 1 -1.1104 3.99868 16.8168 23.4096
624 1 -1.1104 1.15824 16.7366 23.4145
625 1 -1.1104 3.75583 19.7169 23.4262
627 1 -1.1104 3.84598 13.9144 23.5689
629 1 -1.1104 1.10857 19.4615 26.3469
630 1 -1.1104 0.887237 16.7544 26.0906
631 1 -1.1104 1.02948 14.0412 26.2876
633 2 2.2208 5.19622 20.943 24.7421
9339 2 2.2208 -0.403842 15.3624 24.8296
565 1 -1.1104 12.1732 19.7274 23.4042
568 2 2.2208 2.47983 20.9528 27.702
504 1 -1.1104 6.63096 19.4908 26.3329
335 1 -1.1104 12.3161 19.4679 26.1182
632 1 -1.1104 6.50135 19.582 23.5171
338 2 2.2208 10.8545 21.0451 24.8194
341 1 -1.1104 12.262 16.7673 26.3686
370 1 -1.1104 9.37865 19.6236 23.4332
369 1 -1.1104 9.50875 13.7239 23.4205
540 2 2.2208 8.1368 15.2058 22.1245
371 2 2.2208 7.98134 18.1731 24.8397
336 1 -1.1104 12.3462 16.7485 23.3858
8323 2 2.2208 -0.392073 -4.36008 22.0283
501 2 2.2208 10.8957 20.9983 13.5026
9174 2 2.2208 -0.449472 15.3057 19.4617
9322 2 2.2208 13.7183 15.3986 22.0205
9104 2 2.2208 -0.390828 6.77084 16.4755
9173 2 2.2208 -0.362059 20.9357 19.2143
9324 2 2.2208 -0.442038 1.36518 21.9625
9325 2 2.2208 -0.338996 4.06301 24.7432
9332 2 2.2208 13.7512 6.91852 24.9162
9132 2 2.2208 13.657 15.2761 16.4682
566 2 2.2208 13.5205 -1.4039 27.6568
9323 2 2.2208 13.6616 20.9644 21.9072
531 2 2.2208 2.43322 4.03453 27.6427
529 2 2.2208 5.16609 1.26265 27.6471
559 2 2.2208 10.731 1.3261 27.6259
413 2 2.2208 2.44722 12.626 13.645
377 2 2.2208 10.9173 4.04345 13.6306
476 2 2.2208 5.25453 15.3237 13.6602
9329 2 2.2208 -0.251145 6.8441 27.5602
641 2 2.2208 5.12124 23.8331 5.29232
642 2 2.2208 5.32191 29.3796 5.16426
643 1 -1.1104 1.06349 25.1656 0.882155
644 1 -1.1104 1.04954 25.2273 3.69436
645 1 -1.1104 1.10847 22.4368 1.10881
646 1 -1.1104 0.939708 27.9981 0.884614
647 2 2.2208 5.22897 26.5449 2.35049
648 1 -1.1104 1.07134 22.439 3.9985
649 1 -1.1104 1.11285 28.0587 3.76146
650 1 -1.1104 3.77247 25.2659 1.13096
651 2 2.2208 2.41274 23.8132 2.47805
652 2 2.2208 2.46411 29.367 2.33219
653 1 -1.1104 3.83415 25.2811 3.88985
654 2 2.2208 2.43873 26.6672 5.09389
655 1 -1.1104 3.85849 22.4456 1.07873
656 1 -1.1104 3.82879 28.0932 1.0342
657 1 -1.1104 3.83327 22.3851 3.87864
658 1 -1.1104 3.82333 27.9689 3.61923
782 1 -1.1104 0.873383 25.3103 6.52538
788 1 -1.1104 3.80627 25.2723 6.76566
667 1 -1.1104 6.65056 27.9678 3.77589
663 1 -1.1104 6.63482 25.1898 3.80205
995 2 2.2208 8.04735 23.7842 13.6295
785 1 -1.1104 1.08403 27.9851 6.57841
790 1 -1.1104 3.88988 27.9947 6.58958
786 1 -1.1104 6.63318 22.235 6.58808
665 1 -1.1104 6.64004 28.0447 0.975856
666 1 -1.1104 6.628 22.4036 3.90547
664 1 -1.1104 6.54324 22.3093 0.938815
662 1 -1.1104 6.64506 25.1541 0.808074
668 2 2.2208 10.876 23.7104 5.18195
669 2 2.2208 10.7704 29.3649 5.30401
670 1 -1.1104 12.127 25.1424 1.12397
671 1 -1.1104 12.251 25.331 3.86313
672 1 -1.1104 12.3581 22.3684 0.969029
673 1 -1.1104 12.2827 27.9807 1.08806
674 2 2.2208 11.0103 26.6498 2.4878
675 1 -1.1104 12.1646 22.3569 3.84921
676 1 -1.1104 12.2396 27.9698 4.13724
677 1 -1.1104 9.37707 25.2561 1.08978
678 2 2.2208 7.9332 23.8109 2.30918
679 2 2.2208 8.07872 29.3597 2.34734
680 1 -1.1104 9.43535 25.2074 3.87314
681 2 2.2208 8.07753 26.594 5.22698
682 1 -1.1104 9.37256 22.4126 0.898967
683 1 -1.1104 9.44656 27.9672 0.933005
684 1 -1.1104 9.35015 22.3205 3.78509
685 1 -1.1104 9.53844 28.0468 3.7979
787 1 -1.1104 6.77538 27.8869 6.55242
819 1 -1.1104 9.5036 22.3187 6.57733
818 1 -1.1104 9.57212 25.0714 6.65092
816 1 -1.1104 12.3554 22.3764 6.6518
820 1 -1.1104 9.49656 27.9764 6.57856
783 1 -1.1104 6.69087 25.1539 6.58868
815 1 -1.1104 12.2271 25.2529 6.60101
9800 2 2.2208 -0.406712 32.1859 13.6476
689 2 2.2208 5.3697 35.0276 5.30586
690 1 -1.1104 1.10514 30.7397 0.985448
691 1 -1.1104 1.19182 36.3826 1.01441
693 1 -1.1104 1.21358 30.9579 3.82302
694 1 -1.1104 1.01304 36.3022 3.68332
696 1 -1.1104 0.911297 33.4515 1.07509
697 2 2.2208 5.27705 32.1822 2.47278
698 2 2.2208 5.1968 37.8017 2.42883
699 1 -1.1104 1.10769 33.5289 3.76427
701 1 -1.1104 3.93852 30.8314 0.942242
702 1 -1.1104 3.93032 36.4367 0.919299
703 2 2.2208 2.43918 34.8491 2.36932
704 1 -1.1104 3.85845 30.8335 3.91066
705 1 -1.1104 3.8113 36.5167 3.76512
706 2 2.2208 2.55968 32.1213 5.28319
707 2 2.2208 2.42806 37.7286 5.33727
708 1 -1.1104 3.69114 33.6111 0.932351
709 1 -1.1104 3.97958 33.6276 3.75407
843 1 -1.1104 3.86079 33.5702 6.44059
695 1 -1.1104 6.60696 36.234 3.82778
714 1 -1.1104 6.66597 30.6846 3.7536
713 1 -1.1104 6.67921 30.637 0.960821
700 1 -1.1104 6.78963 33.4562 3.77332
840 1 -1.1104 6.56998 33.5842 6.61742
9637 2 2.2208 -0.434868 46.1116 5.24535
10015 2 2.2208 13.7791 43.2611 -0.360482
933 2 2.2208 8.00288 40.6826 8.05929
836 1 -1.1104 0.959704 36.4547 6.737
10009 2 2.2208 -0.384649 37.7309 13.7023
928 1 -1.1104 9.4216 44.7754 12.2972
692 1 -1.1104 6.74168 36.3567 1.04361
838 1 -1.1104 6.63596 36.4683 6.62151
715 1 -1.1104 6.50881 33.4427 0.862149
716 2 2.2208 10.7797 35.0845 5.2732
717 1 -1.1104 12.2883 30.7711 0.951634
718 1 -1.1104 12.3645 36.4184 1.1183
719 1 -1.1104 12.2833 30.831 3.95398
720 1 -1.1104 12.3728 36.3893 3.99326