ITEM: TIMESTEP
10000
ITEM: NUMBER OF ATOMS
17700
ITEM: BOX BOUNDS pp pp pp
-3.5256066741069125e-01 2.7692560667410699e+01
-4.3818233928727590e+00 3.3246182339287355e+02
-3.6730235527351240e-01 2.7707302355273587e+01
ITEM: ATOMS id type q x y z
1 2 2.2208 5.3436 1.31217 5.21307
2 1 -1.1104 1.06902 -2.95802 0.981776
3 1 -1.1104 1.00774 2.72871 1.08191
6 1 -1.1104 1.01457 -2.92194 3.75926
7 1 -1.1104 0.954133 2.68077 3.82083
10 1 -1.1104 1.10621 -0.263546 0.999869
12 2 2.2208 5.22846 -1.64385 2.38641
13 2 2.2208 5.31018 4.10746 2.49678
14 1 -1.1104 1.26372 -0.122232 3.92789
16 1 -1.1104 3.87453 -2.94975 0.978284
17 1 -1.1104 3.82047 2.72503 1.02817
18 2 2.2208 2.46604 1.38859 2.36396
19 1 -1.1104 3.84492 -2.97907 3.82213
20 1 -1.1104 3.84995 2.74473 3.75929
21 2 2.2208 2.5694 -1.6093 5.226
22 2 2.2208 2.42139 4.09218 5.14348
23 1 -1.1104 3.90075 -0.185257 0.998174
24 1 -1.1104 4.04903 -0.105648 3.84566
9 1 -1.1104 6.7089 2.66507 3.84758
8 1 -1.1104 6.64281 -2.92937 3.86254
50 2 2.2208 13.6386 -1.52568 5.26582
8959 2 2.2208 -0.231379 20.8 2.3638
8943 2 2.2208 -0.255917 3.95629 7.98556
8015 2 2.2208 7.98272 -4.33867 2.53822
376 2 2.2208 10.8855 -1.68317 13.6576
8016 2 2.2208 -0.331102 -4.37833 5.21201
8128 2 2.2208 2.55833 -4.36031 8.05734
8881 2 2.2208 -0.278581 6.78313 10.8298
11 1 -1.1104 6.79098 -0.23262 1.08425
5 1 -1.1104 6.69952 2.54427 1.05156
4 1 -1.1104 6.66034 -3.11434 0.996977
15 1 -1.1104 6.80625 -0.0480864 3.87913
31 2 2.2208 10.8919 1.27794 5.13789
32 1 -1.1104 12.3821 -3.07096 1.03745
33 1 -1.1104 12.1262 2.53242 1.28848
34 1 -1.1104 12.226 -2.88236 3.82342
35 1 -1.1104 12.2256 2.74477 3.80869
36 1 -1.1104 12.3536 -0.135445 0.970854
37 2 2.2208 10.9588 -1.54918 2.49273
38 2 2.2208 10.8372 3.98519 2.44164
39 1 -1.1104 12.3885 0.0681841 3.8123
40 1 -1.1104 9.45317 -3.04189 1.07858
41 1 -1.1104 9.48035 2.51708 1.0999
42 2 2.2208 8.15465 1.26333 2.46348
43 1 -1.1104 9.61115 -2.92729 3.87272
44 1 -1.1104 9.49177 2.60741 4.01522
45 2 2.2208 8.10538 -1.5029 5.31129
46 2 2.2208 8.18535 4.08438 5.25796
47 1 -1.1104 9.56935 -0.247828 0.860239
48 1 -1.1104 9.5346 -0.130952 3.73162
8108 2 2.2208 10.7837 -4.31298 10.8616
200 2 2.2208 -0.22002 -1.43023 8.13355
9061 2 2.2208 13.5658 6.8702 13.5935
209 1 -1.1104 9.45784 2.70187 6.80859
25 2 2.2208 -0.165161 -1.48096 2.37765
8955 2 2.2208 13.6735 1.40011 7.91593
8937 2 2.2208 -0.229234 9.6408 8.10804
54 2 2.2208 5.37374 7.04487 5.29021
55 2 2.2208 5.39275 12.6143 5.41799
56 1 -1.1104 1.08866 8.14857 0.970007
58 1 -1.1104 1.0516 8.21774 3.90659
60 1 -1.1104 0.926216 5.40172 0.89809
61 1 -1.1104 1.31857 11.0678 1.17436
66 2 2.2208 5.28185 9.71125 2.45534
67 1 -1.1104 1.0517 5.50605 3.68978
68 1 -1.1104 1.18249 11.0128 3.73245
71 1 -1.1104 3.98731 8.21505 0.860279
72 2 2.2208 2.46152 6.97065 2.37496
73 2 2.2208 2.47258 12.563 2.54098
74 1 -1.1104 3.92089 8.40559 3.84277
75 2 2.2208 2.65659 9.78656 5.19127
76 1 -1.1104 3.78701 5.62259 1.06185
77 1 -1.1104 4.0558 11.2035 1.05764
79 1 -1.1104 3.79558 5.58159 3.72025
80 1 -1.1104 3.90261 11.2283 3.94352
63 1 -1.1104 6.59277 5.37895 0.952468
70 1 -1.1104 6.66394 11.2816 3.82233
78 1 -1.1104 3.99157 11.2032 6.84166
8950 2 2.2208 13.704 1.31937 2.39594
561 2 2.2208 7.91899 4.01104 -0.369274
375 2 2.2208 8.05687 1.17326 13.6841
596 2 2.2208 5.3042 12.5243 -0.351037
64 1 -1.1104 6.75947 11.2406 1.04034
69 1 -1.1104 6.6077 5.70474 3.78873
57 1 -1.1104 6.77766 8.26619 1.06149
59 1 -1.1104 6.70616 8.53201 3.76261
84 2 2.2208 10.8899 7.07065 5.25939
85 2 2.2208 10.9304 12.5453 5.32029
86 1 -1.1104 12.1864 8.34037 0.970097
87 1 -1.1104 12.4722 8.2533 3.76648
88 1 -1.1104 12.1858 5.43102 1.04595
89 1 -1.1104 12.3191 11.1959 0.98131
91 2 2.2208 10.8499 9.74949 2.4391
92 1 -1.1104 12.3353 5.58283 3.81558
93 1 -1.1104 12.1768 11.1928 3.85384
94 1 -1.1104 9.5545 8.34882 1.17961
95 2 2.2208 8.12762 6.93594 2.36971
96 2 2.2208 8.12793 12.6642 2.44973
97 1 -1.1104 9.48898 8.28103 3.94806
98 2 2.2208 8.07538 9.85438 5.21314
99 1 -1.1104 9.39938 5.39077 0.947021
100 1 -1.1104 9.54543 11.2483 0.975249
102 1 -1.1104 9.35677 5.53243 3.77088
103 1 -1.1104 9.40032 11.1406 3.67397
267 1 -1.1104 9.52022 8.5241 6.52571
474 2 2.2208 2.39154 18.0018 13.7065
8949 2 2.2208 -0.23745 1.298 5.15745
106 2 2.2208 5.29936 17.9745 5.22622
107 1 -1.1104 1.16259 13.9622 1.04883
109 1 -1.1104 1.18757 19.6439 1.06048
113 1 -1.1104 1.0438 13.9149 4.15571
114 1 -1.1104 1.00692 19.3291 3.71039
116 1 -1.1104 0.99067 16.7385 0.872942
119 2 2.2208 5.3064 15.2059 2.3773
120 2 2.2208 5.20925 20.9495 2.43884
121 1 -1.1104 1.05671 16.5651 3.74762
123 1 -1.1104 3.86309 14.0011 1.05884
125 1 -1.1104 3.85441 19.5841 0.994947
127 2 2.2208 2.46466 18.04 2.29811
128 1 -1.1104 3.88668 13.8915 3.80333
129 1 -1.1104 3.91135 19.43 3.68148
130 2 2.2208 2.60795 15.3972 5.22172
131 2 2.2208 2.51157 20.9901 5.08228
132 1 -1.1104 3.86206 16.8192 1.00949
134 1 -1.1104 3.90602 16.6478 3.84486
115 1 -1.1104 6.77129 14.0253 3.83478
139 1 -1.1104 6.75124 19.4537 3.91536
110 1 -1.1104 6.61082 13.8961 1.08327
165 1 -1.1104 0.972042 19.694 6.49574
140 1 -1.1104 6.65481 16.6784 0.982508
199 2 2.2208 8.11978 18.141 8.1031
117 1 -1.1104 1.0492 16.6866 6.63753
124 1 -1.1104 4.01543 13.9227 6.78491
118 1 -1.1104 6.79858 16.764 6.61231
82 2 2.2208 8.03368 21.0104 10.7665
8952 2 2.2208 -0.302555 12.3245 5.39799
8948 2 2.2208 -0.24002 15.2989 7.95282
595 2 2.2208 2.62658 9.67891 -0.329385
111 1 -1.1104 6.9074 14.0415 6.69682
105 1 -1.1104 9.6389 19.5377 12.2287
27 1 -1.1104 12.4912 19.386 9.47018
122 1 -1.1104 6.79832 16.7126 3.85917
112 1 -1.1104 6.80527 19.588 6.70867
290 1 -1.1104 6.68887 13.9876 9.38894
138 1 -1.1104 6.6816 19.453 1.1447
141 2 2.2208 10.9571 18.1491 5.28638
142 1 -1.1104 12.2675 13.8926 0.959985
144 1 -1.1104 12.2192 19.4937 1.12592
146 1 -1.1104 12.4078 13.9824 3.80334
147 1 -1.1104 12.3164 19.4499 3.94337
148 1 -1.1104 12.149 16.6528 1.04308
150 2 2.2208 10.9596 15.3191 2.42979
151 2 2.2208 10.9223 20.875 2.42545
152 1 -1.1104 12.377 16.675 3.82659
153 1 -1.1104 9.45232 14.0026 1.16023
155 1 -1.1104 9.30621 19.4194 1.07286
157 2 2.2208 8.03614 18.0702 2.44635
158 1 -1.1104 9.68978 13.9198 3.97182
159 1 -1.1104 9.43801 19.4793 3.71683
160 2 2.2208 8.21845 15.2983 5.22893
161 2 2.2208 8.21154 20.7989 5.25282
162 1 -1.1104 9.44985 16.7757 1.06146
164 1 -1.1104 9.66092 16.6814 4.03147
8942 2 2.2208 13.6906 6.91072 2.36957
149 1 -1.1104 12.4794 16.7707 6.77381
156 1 -1.1104 9.61743 19.5239 6.73447
8873 2 2.2208 -0.252919 12.4293 10.8136
172 1 -1.1104 3.96643 -3.08452 6.60057
28 1 -1.1104 12.4126 16.7057 12.289
166 1 -1.1104 1.17 -2.76293 6.61369
170 1 -1.1104 0.995284 -0.0312681 6.76394
49 1 -1.1104 9.49492 16.8016 12.3166
174 1 -1.1104 3.74603 -0.0877759 6.74978
167 1 -1.1104 1.23432 2.7083 6.50671
173 1 -1.1104 3.94124 2.74808 6.73982
168 1 -1.1104 6.62095 -3.00027 6.59672
175 2 2.2208 5.28431 1.23696 10.8165
176 1 -1.1104 1.05622 -2.95534 12.2619
177 1 -1.1104 1.03059 2.59986 12.056
180 1 -1.1104 1.15418 -2.76253 9.39888
181 1 -1.1104 1.10387 2.7709 9.24955
184 1 -1.1104 1.1829 -0.233552 12.2642
186 2 2.2208 5.21115 -1.5628 8.14166
187 2 2.2208 5.40024 4.12114 7.95797
188 1 -1.1104 1.0499 0.0131797 9.60612
190 1 -1.1104 3.78286 -2.93065 12.3179
191 1 -1.1104 3.91272 2.72352 12.204
192 2 2.2208 2.44394 1.30135 8.08421
193 1 -1.1104 3.80097 -2.88716 9.43492
194 1 -1.1104 3.93146 2.68759 9.53261
195 2 2.2208 2.48712 -1.39445 10.9252
196 2 2.2208 2.52628 4.15825 10.7171
197 1 -1.1104 3.90227 -0.178741 12.3287
198 1 -1.1104 3.80175 -0.026432 9.57453
189 1 -1.1104 6.7277 -0.318756 9.49784
171 1 -1.1104 6.44377 -0.0537855 6.72629
185 1 -1.1104 6.68845 -0.297001 12.3626
178 1 -1.1104 6.70614 -3.15505 12.2484
183 1 -1.1104 6.71733 2.60466 9.51349
30 2 2.2208 11.0364 20.8687 8.04188
289 1 -1.1104 6.7284 16.8355 9.45342
202 1 -1.1104 9.57882 19.595 9.52871
29 2 2.2208 11.0199 15.3891 8.0067
205 1 -1.1104 12.2948 -2.87765 6.72006
210 1 -1.1104 9.34613 0.0182936 6.46517
169 1 -1.1104 6.70405 2.67756 6.5924
206 1 -1.1104 12.3379 2.73306 6.62157
207 1 -1.1104 12.2371 -0.0752143 6.59883
179 1 -1.1104 6.64251 2.52808 12.288
208 1 -1.1104 9.45615 -2.84901 6.67918
182 1 -1.1104 6.5767 -3.0445 9.38231
211 2 2.2208 10.8431 1.2617 10.7596
212 1 -1.1104 12.3601 -2.91428 12.2062
213 1 -1.1104 12.3514 2.67812 12.1742
214 1 -1.1104 12.2756 -2.83351 9.40919
215 1 -1.1104 12.3218 2.72781 9.30178
216 1 -1.1104 12.0483 -0.129803 12.2008
217 2 2.2208 10.7603 -1.52475 8.05308
218 2 2.2208 10.8915 4.02859 7.95631
219 1 -1.1104 12.2387 -0.161309 9.3539
220 1 -1.1104 9.54737 -3.01184 12.3772
221 1 -1.1104 9.57175 2.75796 12.2341
222 2 2.2208 8.02698 1.14284 8.06939
223 1 -1.1104 9.36183 -2.97819 9.56389
224 1 -1.1104 9.48956 2.40265 9.41019
225 2 2.2208 8.06701 -1.5857 10.8938
226 2 2.2208 8.23974 4.14956 10.8729
227 1 -1.1104 9.50772 -0.0974852 12.2398
228 1 -1.1104 9.29708 -0.23723 9.30268
8653 2 2.2208 -0.14886 18.0499 10.8455
8053 2 2.2208 10.8704 -4.34462 5.31851
296 1 -1.1104 6.78453 19.569 12.2171
51 1 -1.1104 12.4054 16.6567 9.58587
236 1 -1.1104 0.979486 5.56761 6.69327
234 1 -1.1104 1.12777 8.25501 6.82873
239 1 -1.1104 3.94165 5.47976 6.71018
238 1 -1.1104 4.02145 8.39685 6.62568
62 1 -1.1104 1.18033 11.1512 6.71961
240 2 2.2208 5.39805 6.88278 10.8635
241 2 2.2208 5.30115 12.4992 10.9012
242 1 -1.1104 1.19108 8.27997 12.3812
244 1 -1.1104 1.09625 8.46023 9.5664
246 1 -1.1104 1.14405 5.37244 12.3571
247 1 -1.1104 1.07174 11.0464 12.3291
250 2 2.2208 5.34743 9.76464 8.1665
251 1 -1.1104 1.16396 5.41122 9.50375
252 1 -1.1104 1.2001 11.1643 9.54168
255 1 -1.1104 4.04818 8.32739 12.2503
256 2 2.2208 2.5663 6.88333 8.08351
257 2 2.2208 2.54631 12.5244 8.13381
258 1 -1.1104 3.82474 8.14823 9.53801
259 2 2.2208 2.54895 9.67797 10.9893
260 1 -1.1104 3.88326 5.64587 12.3143
261 1 -1.1104 3.9691 11.1414 12.3391
262 1 -1.1104 3.97053 5.50707 9.46507
263 1 -1.1104 4.01449 11.0866 9.49446
243 1 -1.1104 6.87157 8.30726 12.3732
237 1 -1.1104 6.68001 5.47866 6.5784
235 1 -1.1104 6.79666 8.42464 6.65435
245 1 -1.1104 6.71428 8.3166 9.44751
288 1 -1.1104 6.76245 19.5929 9.45653
204 2 2.2208 11.0134 18.1164 10.9201
269 1 -1.1104 9.49303 5.4182 6.52284
265 1 -1.1104 12.3729 8.39843 6.53786
145 1 -1.1104 12.4139 19.5681 6.71168
254 1 -1.1104 6.78142 11.1142 9.66841
65 1 -1.1104 6.69646 11.2138 6.64205
101 1 -1.1104 9.48644 11.134 6.63502
253 1 -1.1104 6.86191 5.46258 9.31816
90 1 -1.1104 12.2823 11.2156 6.79796
266 1 -1.1104 12.2643 5.58541 6.53802
248 1 -1.1104 6.7869 5.35652 12.3017
249 1 -1.1104 6.72733 11.0726 12.5728
264 1 -1.1104 9.66117 11.2092 9.3894
268 1 -1.1104 9.61447 5.58191 9.39692
270 1 -1.1104 9.61012 11.2489 12.1719
271 1 -1.1104 9.63622 5.45951 12.1535
272 2 2.2208 8.28697 9.8049 10.8133
273 1 -1.1104 9.57031 8.41934 9.34324
274 2 2.2208 8.21445 12.5567 8.14216
275 2 2.2208 8.23458 6.92362 7.9429
276 2 2.2208 11.0055 6.828 10.7663
277 2 2.2208 11.0069 12.6085 10.7433
278 1 -1.1104 12.4953 8.21553 12.0858
279 1 -1.1104 12.451 8.29785 9.32736
280 1 -1.1104 12.2959 5.44692 12.1584
281 1 -1.1104 12.4495 11.107 12.0746
282 2 2.2208 11.0318 9.77117 8.04741
283 1 -1.1104 12.4183 5.53936 9.27739
284 1 -1.1104 12.5695 11.0659 9.47616
285 1 -1.1104 9.67229 8.33155 12.1137
26 1 -1.1104 9.62646 16.7435 9.52395
53 1 -1.1104 6.52888 16.6759 12.2757
133 1 -1.1104 3.81239 16.6885 6.56295
126 1 -1.1104 3.7612 19.4291 6.47764
108 1 -1.1104 1.21944 13.9463 6.6913
163 1 -1.1104 9.61378 16.7873 6.71046
301 1 -1.1104 3.97904 19.6545 9.32551
300 2 2.2208 5.24638 18.2549 10.7288
52 1 -1.1104 1.03836 16.5343 12.2444
83 2 2.2208 2.50199 15.2626 10.7585
104 2 2.2208 2.36137 20.9357 10.8283
135 1 -1.1104 4.01352 14.073 9.46146
136 1 -1.1104 3.91483 16.6772 9.2754
137 2 2.2208 2.47827 18.1361 7.98982
229 1 -1.1104 3.86104 16.7619 12.1297
286 1 -1.1104 3.86923 19.4409 12.166
287 1 -1.1104 3.8749 13.8602 12.2137
291 1 -1.1104 1.1235 19.437 9.43068
292 1 -1.1104 1.16092 16.6333 9.30558
293 2 2.2208 5.27943 20.8742 7.92492
294 1 -1.1104 1.08364 13.8319 9.43695
295 2 2.2208 5.37675 15.3921 8.01506
298 1 -1.1104 1.12519 19.4877 12.2912
299 1 -1.1104 1.21137 13.8463 12.27
297 1 -1.1104 6.81205 13.9476 12.2198
232 1 -1.1104 12.3716 19.6468 12.3199
233 1 -1.1104 12.4428 13.9147 9.37926
8951 2 2.2208 -0.243158 9.70384 2.45714
143 1 -1.1104 12.3868 13.9658 6.66129
201 1 -1.1104 9.57504 14.0546 9.57265
231 1 -1.1104 12.4934 13.9865 12.3362
154 1 -1.1104 9.6076 14.0038 6.69463
81 1 -1.1104 9.7703 13.966 12.2758
203 2 2.2208 8.11712 15.4175 10.7807
8355 2 2.2208 13.6432 -4.30185 13.5552
620 2 2.2208 8.00479 9.78777 -0.315321
439 2 2.2208 10.9465 9.67794 13.5343
9318 2 2.2208 -0.313333 4.01119 13.6051
475 2 2.2208 5.10071 20.8584 13.4639
537 2 2.2208 5.36571 18.1041 -0.331153
536 2 2.2208 10.8912 17.9726 -0.348879
503 2 2.2208 8.00951 18.0651 13.6261
9177 2 2.2208 -0.28871 20.925 13.5381
9176 2 2.2208 -0.0947468 15.189 13.569
9326 2 2.2208 13.577 3.96488 -0.318986
476 2 2.2208 5.33238 15.2662 13.5225
9334 2 2.2208 -0.269384 1.25768 -0.32886
411 2 2.2208 2.53475 6.87455 13.6602
9329 2 2.2208 -0.3383 6.87691 -0.348582
343 2 2.2208 2.64858 1.35526 13.6373
302 2 2.2208 5.37651 1.18188 16.475
303 1 -1.1104 1.08038 -3.07564 17.8352
304 1 -1.1104 1.02294 2.43059 17.8025
307 1 -1.1104 0.979905 -3.06168 15.0073
309 1 -1.1104 1.16817 2.51627 14.9759
315 1 -1.1104 1.27994 -0.450182 17.8838
317 2 2.2208 5.28676 -1.64354 19.382
318 2 2.2208 5.37293 4.1396 19.3743
319 1 -1.1104 1.20669 -0.225619 15.0802
323 1 -1.1104 3.81546 -3.08355 17.8348
324 1 -1.1104 3.97849 2.59293 17.8624
325 2 2.2208 2.50506 1.30218 19.3649
326 1 -1.1104 3.90664 -3.11616 15.1637
328 1 -1.1104 4.0357 2.55322 15.0955
330 2 2.2208 2.57836 -1.63203 16.4292
331 2 2.2208 2.48975 3.82467 16.3873
332 1 -1.1104 4.01852 -0.211768 17.955
333 1 -1.1104 3.97095 -0.224833 15.072
327 1 -1.1104 3.83822 -3.07337 20.7691
8570 2 2.2208 -0.293158 -4.31862 16.4968
305 1 -1.1104 6.57908 -3.00673 17.8776
9339 2 2.2208 -0.291601 15.2706 24.8683
8514 2 2.2208 13.5892 -4.3455 24.8849
9338 2 2.2208 13.6059 9.69254 27.6475
320 1 -1.1104 1.09002 -0.0578898 20.6261
413 2 2.2208 2.61804 12.5164 13.6541
567 2 2.2208 13.5959 -1.58153 22.0482
9175 2 2.2208 -0.293194 18.1008 16.5201
342 2 2.2208 5.30424 -1.71688 13.7787
311 1 -1.1104 6.65 -3.01883 15.056
306 1 -1.1104 6.79504 2.84391 18.0826
321 1 -1.1104 6.7146 -0.196254 15.1796
316 1 -1.1104 6.6813 -0.151696 17.9702
313 1 -1.1104 6.6777 2.64357 15.0204
345 2 2.2208 10.7627 1.08654 16.3437
346 1 -1.1104 12.3843 -2.90337 17.9129
347 1 -1.1104 12.2624 2.72388 17.9156
348 1 -1.1104 12.2652 -2.98881 15.1011
350 1 -1.1104 12.3042 2.47939 15.0365
352 1 -1.1104 12.2492 -0.010859 17.8573
353 2 2.2208 10.9205 -1.49843 19.2183
354 2 2.2208 10.8943 3.99513 19.2807
355 1 -1.1104 12.1896 -0.311248 14.9728
357 1 -1.1104 9.50575 -3.10882 17.9385
358 1 -1.1104 9.34782 2.57934 17.9253
359 2 2.2208 8.02112 1.21369 19.3335
360 1 -1.1104 9.51414 -3.01464 15.1805
362 1 -1.1104 9.49155 2.53352 15.0572
364 2 2.2208 8.06347 -1.6636 16.5623
365 2 2.2208 8.0218 4.062 16.4956
366 1 -1.1104 9.52806 -0.22332 17.9091
367 1 -1.1104 9.40729 -0.312766 15.1092
9328 2 2.2208 -0.240737 12.4893 22.0821
438 2 2.2208 8.34139 6.85948 13.6171
562 2 2.2208 8.06108 20.7948 27.7407
349 1 -1.1104 12.1742 -2.9653 20.7879
361 1 -1.1104 9.56084 -3.01183 20.6911
8628 2 2.2208 10.856 -4.3496 22.1843
9317 2 2.2208 -0.209762 1.09329 16.5189
8627 2 2.2208 5.20585 -4.37932 22.1337
9330 2 2.2208 -0.313505 18.0742 22.0039
378 2 2.2208 5.19829 6.81273 16.37
379 2 2.2208 5.29604 12.496 16.6011
380 1 -1.1104 1.12359 8.13971 17.9535
382 1 -1.1104 1.23654 8.15158 15.1419
386 1 -1.1104 1.14377 5.18769 17.8185
387 1 -1.1104 1.08961 10.9439 17.7842
390 2 2.2208 5.32209 9.64224 19.3331
391 1 -1.1104 0.868149 5.41802 15.0255
393 1 -1.1104 1.24288 11.0029 15.0201
399 1 -1.1104 3.89427 8.26674 17.852
400 2 2.2208 2.52718 6.83921 19.3331
401 2 2.2208 2.51698 12.4526 19.3425
402 1 -1.1104 3.88547 8.33828 15.0187
404 2 2.2208 2.6027 9.62832 16.5667
405 1 -1.1104 3.91536 5.36642 17.945
406 1 -1.1104 3.86049 11.0583 18.0956
407 1 -1.1104 3.8642 5.35307 15.0737
409 1 -1.1104 4.06652 11.1501 15.2941
381 1 -1.1104 6.80048 8.37492 17.9369
9314 2 2.2208 -0.320036 6.89032 22.0618
385 1 -1.1104 6.65345 8.19197 20.6504
9104 2 2.2208 -0.170886 6.83556 16.5032
341 1 -1.1104 12.358 16.5127 26.3455
501 2 2.2208 10.7757 20.901 13.7138
395 1 -1.1104 6.5868 5.47814 15.0626
389 1 -1.1104 6.54211 11.0354 17.99
397 1 -1.1104 6.85067 11.0955 15.2797
384 1 -1.1104 6.76253 8.26613 15.1103
388 1 -1.1104 6.75945 5.48142 17.8689
414 2 2.2208 10.9621 6.83893 16.6511
415 2 2.2208 10.8657 12.3653 16.325
416 1 -1.1104 12.295 8.17451 17.9834
417 1 -1.1104 12.3881 8.15024 15.0673
419 1 -1.1104 12.5161 5.56144 17.8907
420 1 -1.1104 12.3801 10.9878 17.5831
421 2 2.2208 10.8655 9.59038 19.242
422 1 -1.1104 12.1201 5.44202 15.0083
424 1 -1.1104 12.3706 10.9403 14.8623
426 1 -1.1104 9.53779 8.13764 17.8383
427 2 2.2208 8.04628 6.85462 19.2745
428 2 2.2208 8.07804 12.4588 19.1844
429 1 -1.1104 9.62956 8.06756 15.1297
431 2 2.2208 8.17387 9.46728 16.4084
432 1 -1.1104 9.68323 5.23973 17.8576
433 1 -1.1104 9.50739 10.8741 17.7748
434 1 -1.1104 9.3584 5.28708 15.1085
436 1 -1.1104 9.57619 10.8859 14.9307
437 1 -1.1104 9.42237 10.8771 20.7346
370 1 -1.1104 9.50128 19.5162 23.4819
441 2 2.2208 5.22818 18.0724 16.2784
442 1 -1.1104 1.16036 13.8235 18.0139
443 1 -1.1104 1.00579 19.4831 17.8649
446 1 -1.1104 1.21427 13.8083 15.176
448 1 -1.1104 1.13339 19.4849 15.0287
454 1 -1.1104 0.958452 16.5917 17.8424
456 2 2.2208 5.30933 15.3009 19.2829
457 2 2.2208 5.2879 20.7803 19.3076
458 1 -1.1104 1.10173 16.7266 15.0401
462 1 -1.1104 3.97371 13.8174 17.758
463 1 -1.1104 3.85801 19.4024 17.9438
464 2 2.2208 2.42694 18.0847 19.2789
465 1 -1.1104 4.04415 13.9389 15.0265
467 1 -1.1104 3.73359 19.4388 15.031
469 2 2.2208 2.51794 15.3505 16.5734
470 2 2.2208 2.45321 20.8291 16.4614
471 1 -1.1104 3.79794 16.6227 17.8621
472 1 -1.1104 3.77095 16.8152 15
373 2 2.2208 13.5527 -1.44837 16.5481
460 1 -1.1104 6.82464 16.688 15.0397
455 1 -1.1104 6.65979 16.7098 17.7893
461 1 -1.1104 6.71641 16.6705 20.6477
449 1 -1.1104 1.02142 19.5397 20.7577
466 1 -1.1104 3.90171 13.8349 20.6978
447 1 -1.1104 1.01177 13.8445 20.6411
9324 2 2.2208 -0.279091 1.25461 22.047
493 1 -1.1104 9.39929 13.7112 20.6647
444 1 -1.1104 6.85144 13.9769 17.8305
452 1 -1.1104 6.64286 19.5048 14.8814
450 1 -1.1104 6.83377 13.9459 15.1048
445 1 -1.1104 6.52449 19.4101 17.7438
477 2 2.2208 10.8743 18.0586 16.5439
478 1 -1.1104 12.1329 13.6673 17.9418
479 1 -1.1104 12.2441 19.399 17.935
480 1 -1.1104 12.3058 13.6996 15.1093
482 1 -1.1104 12.2045 19.6423 15.0453
484 1 -1.1104 12.2676 16.6107 17.8584
485 2 2.2208 10.8087 15.1962 19.3376
486 2 2.2208 10.9518 20.8743 19.3232
487 1 -1.1104 12.4909 16.7636 15.0799
489 1 -1.1104 9.45681 13.7247 17.7926
490 1 -1.1104 9.34124 19.3785 17.8364
491 2 2.2208 8.06901 17.9466 19.3081
492 1 -1.1104 9.61602 13.8013 15.1111
494 1 -1.1104 9.47566 19.4343 15.0924
496 2 2.2208 8.19348 15.3425 16.3743
497 2 2.2208 8.01789 20.828 16.5615
498 1 -1.1104 9.49671 16.5084 17.8451
499 1 -1.1104 9.66574 16.5593 15.1492
495 1 -1.1104 9.42704 19.5685 20.6346
598 1 -1.1104 9.46267 16.7318 23.3788
9103 2 2.2208 -0.157823 9.636 19.2187
329 1 -1.1104 3.99922 2.70174 20.7309
308 1 -1.1104 1.03773 -3.10668 20.7369
9325 2 2.2208 -0.311916 4.1064 24.9756
8540 2 2.2208 13.6256 -4.31135 19.242
312 1 -1.1104 6.73192 -3.05171 20.7686
310 1 -1.1104 1.12821 2.75456 20.7005
334 1 -1.1104 3.76609 -0.227404 20.6826
505 2 2.2208 5.12769 1.17682 22.1274
506 1 -1.1104 0.936528 -3.05886 23.5003
507 1 -1.1104 1.10622 2.68073 23.484
510 1 -1.1104 0.904212 -2.99928 26.226
511 1 -1.1104 0.960316 2.64385 26.3062
514 1 -1.1104 1.07779 -0.109012 23.3933
516 2 2.2208 5.1524 -1.58953 24.9633
517 2 2.2208 5.18699 3.91892 24.9617
518 1 -1.1104 1.02179 -0.222253 26.196
520 1 -1.1104 3.65189 -2.96748 23.5342
521 1 -1.1104 3.80446 2.45144 23.51
522 2 2.2208 2.43186 1.23271 24.9441
523 1 -1.1104 3.73001 -2.9571 26.2958
524 1 -1.1104 3.57706 2.62389 26.2598
525 2 2.2208 2.31074 -1.65299 22.086
526 2 2.2208 2.47886 3.98874 22.2129
527 1 -1.1104 3.79431 -0.244437 23.5789
528 1 -1.1104 3.74749 -0.0854084 26.2235
513 1 -1.1104 6.58884 2.58954 26.4349
508 1 -1.1104 6.63033 -3.0399 23.4944
509 1 -1.1104 6.5579 2.54285 23.4998
515 1 -1.1104 6.69354 -0.321157 23.7078
599 1 -1.1104 9.60438 16.5066 26.1951
351 1 -1.1104 12.3366 2.63928 20.7063
540 2 2.2208 8.01464 15.2569 22.0204
322 1 -1.1104 6.67201 -0.298905 20.8331
314 1 -1.1104 6.59392 2.44064 20.7532
512 1 -1.1104 6.67911 -3.0177 26.3102
519 1 -1.1104 6.36504 -0.291138 26.3841
9327 2 2.2208 -0.238894 9.79439 24.9248
356 1 -1.1104 12.0966 -0.0258356 20.5967
368 1 -1.1104 9.44447 -0.124548 20.7397
363 1 -1.1104 9.42773 2.67143 20.7619
541 2 2.2208 10.7663 1.29398 22.1753
542 1 -1.1104 12.3265 -2.93046 23.4872
543 1 -1.1104 12.2357 2.71435 23.5962
544 1 -1.1104 12.3043 -3.07496 26.3382
545 1 -1.1104 12.32 2.54633 26.3982
546 1 -1.1104 12.2615 -0.238978 23.4093
547 2 2.2208 10.7915 -1.60232 24.9647
548 2 2.2208 10.727 4.04105 24.9257
549 1 -1.1104 12.2399 -0.22752 26.2923
550 1 -1.1104 9.45195 -3.17621 23.5857
551 1 -1.1104 9.49067 2.66147 23.5775
552 2 2.2208 7.93893 1.21236 24.9706
553 1 -1.1104 9.5467 -2.98078 26.3665
554 1 -1.1104 9.28685 2.71224 26.3791
555 2 2.2208 8.04312 -1.67637 22.0598
556 2 2.2208 8.18218 4.07178 22.0801
557 1 -1.1104 9.28935 -0.186535 23.4837
558 1 -1.1104 9.34542 -0.0856241 26.2153
632 1 -1.1104 6.48772 19.5347 23.3057
394 1 -1.1104 1.15952 11.1311 20.7685
403 1 -1.1104 3.75324 8.27367 20.6309
635 1 -1.1104 6.84812 13.8364 23.3504
383 1 -1.1104 1.13208 8.28533 20.6217
410 1 -1.1104 3.92824 11.0604 20.7267
398 1 -1.1104 6.68697 11.0804 20.6899
392 1 -1.1104 1.11025 5.55892 20.5785
408 1 -1.1104 3.85327 5.36695 20.8189
570 2 2.2208 5.27029 6.74647 22.1923
571 2 2.2208 5.26997 12.4222 22.0159
572 1 -1.1104 1.11864 8.3172 23.5649
574 1 -1.1104 1.21258 8.52523 26.3339
576 1 -1.1104 1.09918 5.44102 23.4154
577 1 -1.1104 1.27187 11.0346 23.5681
580 2 2.2208 5.36292 9.67607 24.8998
581 1 -1.1104 1.04423 5.6618 26.2774
582 1 -1.1104 0.991702 11.1534 26.2585
585 1 -1.1104 3.93022 8.18897 23.4458
586 2 2.2208 2.44214 6.83988 24.92
587 2 2.2208 2.54367 12.5037 24.926
588 1 -1.1104 3.89351 8.21418 26.1886
589 2 2.2208 2.459 9.6027 22.1124
590 1 -1.1104 3.87607 5.29288 23.6757
591 1 -1.1104 3.9908 11.1727 23.5828
592 1 -1.1104 3.78722 5.3903 26.4116
593 1 -1.1104 3.92805 11.0231 26.3146
579 1 -1.1104 6.78048 10.9997 23.5025
575 1 -1.1104 6.77526 8.24622 26.2776
573 1 -1.1104 6.63855 8.17525 23.5974
9174 2 2.2208 -0.298981 15.2388 19.1899
423 1 -1.1104 12.1986 5.54526 20.5496
418 1 -1.1104 12.2319 8.2538 20.6662
396 1 -1.1104 6.49889 5.38732 20.8014
583 1 -1.1104 6.5295 5.31012 26.315
578 1 -1.1104 6.73831 5.41516 23.5014
584 1 -1.1104 6.78464 11.041 26.3191
425 1 -1.1104 12.2528 11.024 20.5088
430 1 -1.1104 9.4218 8.26734 20.7099
435 1 -1.1104 9.40169 5.53909 20.6584
601 1 -1.1104 9.57145 10.9757 26.3366
602 1 -1.1104 9.35475 5.50642 26.4226
603 1 -1.1104 9.68195 11.006 23.5789
604 1 -1.1104 9.58752 5.40669 23.4747
605 2 2.2208 8.00142 9.58409 22.1151
606 1 -1.1104 9.57193 8.22395 26.2796
607 2 2.2208 8.16184 12.4117 24.7914
608 2 2.2208 8.15253 6.84641 24.8996
609 2 2.2208 10.9173 6.94624 22.1433
610 2 2.2208 10.9089 12.3693 21.9162
611 1 -1.1104 12.3035 8.10818 23.6208
612 1 -1.1104 12.2536 8.17001 26.398
613 1 -1.1104 12.3043 5.3675 23.5687
614 1 -1.1104 12.4443 11.0866 23.4734
615 2 2.2208 10.9571 9.65174 24.9012
616 1 -1.1104 12.2284 5.32618 26.2927
617 1 -1.1104 12.3847 11.0521 26.2392
618 1 -1.1104 9.43854 8.32785 23.5291
504 1 -1.1104 6.78853 19.5157 26.2357
500 1 -1.1104 9.42283 16.6049 20.7027
369 1 -1.1104 9.60446 13.7007 23.3258
473 1 -1.1104 3.7702 16.673 20.7551
468 1 -1.1104 3.85095 19.4803 20.7543
453 1 -1.1104 6.64131 19.4163 20.6663
451 1 -1.1104 6.69831 13.7766 20.5255
338 2 2.2208 10.9903 20.9276 24.9247
459 1 -1.1104 1.07327 16.8573 20.5331
626 1 -1.1104 6.79212 13.817 26.2093
533 1 -1.1104 3.92001 13.7735 26.302
597 2 2.2208 2.46174 15.31 22.0842
600 2 2.2208 2.42023 20.8949 22.2713
622 1 -1.1104 4.03691 16.7538 26.4225
623 1 -1.1104 3.99467 16.6424 23.5867
624 1 -1.1104 1.23961 16.7294 23.5325
625 1 -1.1104 3.74415 19.4228 23.5357
627 1 -1.1104 3.9321 13.9469 23.6162
629 1 -1.1104 1.02647 19.4609 26.402
630 1 -1.1104 1.12113 16.6535 26.3314
631 1 -1.1104 1.10563 13.9044 26.1242
633 2 2.2208 5.2921 20.8325 24.948
634 2 2.2208 5.43273 15.1707 24.8361
636 1 -1.1104 0.964408 19.508 23.5329
637 1 -1.1104 1.15334 13.8506 23.5018
638 2 2.2208 5.19405 18.1333 22.1295
639 1 -1.1104 3.97722 19.4961 26.4562
640 2 2.2208 2.51155 18.0141 25.0042
628 1 -1.1104 6.90225 16.7201 26.3549
621 2 2.2208 10.9506 12.4085 27.6353
372 1 -1.1104 12.3843 13.8271 26.1602
336 1 -1.1104 12.2568 16.5164 23.3445
371 2 2.2208 8.25284 18.0163 25.0324
532 1 -1.1104 6.71867 16.6455 23.5426
563 2 2.2208 10.8976 18.0093 22.0074
488 1 -1.1104 12.4756 16.4195 20.58
569 2 2.2208 8.05021 20.916 22.0647
335 1 -1.1104 12.3754 19.3984 26.36
565 1 -1.1104 12.3567 19.3346 23.5198
481 1 -1.1104 12.2282 13.7401 20.7126
483 1 -1.1104 12.3292 19.4004 20.7668
534 1 -1.1104 9.50183 13.7285 26.1254
337 2 2.2208 10.9631 15.0937 24.6535
539 1 -1.1104 9.53998 19.5145 26.3374
564 1 -1.1104 12.4019 13.778 23.4365
9107 2 2.2208 -0.214907 9.613 13.7134
339 2 2.2208 -0.256485 -1.71299 19.2488
619 2 2.2208 10.8046 6.79151 27.7115
9069 2 2.2208 -0.229917 12.4625 16.4375
559 2 2.2208 10.8782 1.18793 27.6437
374 2 2.2208 2.46931 15.3132 27.7009
8325 2 2.2208 -0.324229 -4.37553 27.6199
560 2 2.2208 8.052 -1.55462 27.6601
594 2 2.2208 5.27178 6.79058 27.7085
8284 2 2.2208 5.19366 -4.35798 27.6702
344 2 2.2208 5.44086 3.92554 13.6711
535 2 2.2208 8.1443 15.223 27.6952
529 2 2.2208 5.19114 1.22151 27.6768
568 2 2.2208 2.53476 20.8416 27.703
377 2 2.2208 10.9074 4.02116 13.7488
440 2 2.2208 8.18187 12.5075 13.7461
502 2 2.2208 11.0108 15.2706 13.7756
412 2 2.2208 5.43851 9.68753 13.8123
530 2 2.2208 2.31261 -1.61687 27.5764
531 2 2.2208 2.39424 4.05737 27.731
9321 2 2.2208 13.5931 1.18235 13.6727
641 2 2.2208 5.36767 23.7326 5.16363
642 2 2.2208 5.25929 29.2639 5.18545
643 1 -1.1104 1.0982 25.0192 1.18843
644 1 -1.1104 1.22864 25.104 3.99357
645 1 -1.1104 1.20475 22.2629 0.959472
646 1 -1.1104 1.21687 27.8226 0.963495
647 2 2.2208 5.4298 26.6055 2.32602
648 1 -1.1104 0.925729 22.2591 3.77832
649 1 -1.1104 1.08149 27.9973 3.75299
650 1 -1.1104 3.96825 25.0384 1.01669
651 2 2.2208 2.64091 23.6537 2.36246
652 2 2.2208 2.53653 29.1975 2.34371
653 1 -1.1104 4.07055 25.1023 3.67206
654 2 2.2208 2.39167 26.525 5.23619
655 1 -1.1104 4.02484 22.2122 0.967108
656 1 -1.1104 3.99358 27.9663 0.82161
657 1 -1.1104 4.06433 22.3116 3.866
658 1 -1.1104 3.87593 27.7652 3.83742
789 1 -1.1104 3.96253 22.2638 6.56237
788 1 -1.1104 3.96494 25.0461 6.36459
790 1 -1.1104 4.01079 27.924 6.63222
9649 2 2.2208 -0.296977 26.7037 8.1542
785 1 -1.1104 1.09207 27.9748 6.60624
9647 2 2.2208 -0.276828 26.4821 2.51446
1468 1 -1.1104 3.96269 47.5919 6.81129
9663 2 2.2208 13.6425 40.5589 2.46423
10011 2 2.2208 -0.264438 43.4044 13.6624
783 1 -1.1104 6.74083 25.0168 6.57989
786 1 -1.1104 6.71111 22.3444 6.46398
787 1 -1.1104 6.7866 27.9792 6.52178
662 1 -1.1104 6.73612 25.1844 0.801152
666 1 -1.1104 6.90043 22.3302 3.65798
663 1 -1.1104 6.83574 25.2352 3.61452
667 1 -1.1104 6.71857 28.0331 3.76174
664 1 -1.1104 6.91833 22.3424 0.89655
665 1 -1.1104 6.66138 28.0449 0.918985
668 2 2.2208 10.9501 23.7416 5.20577
669 2 2.2208 10.9184 29.3921 5.29912
670 1 -1.1104 12.2986 25.073 1.00396
671 1 -1.1104 12.5637 25.3371 3.74618
672 1 -1.1104 12.4795 22.3883 1.14984
673 1 -1.1104 12.2746 27.9221 1.21677
674 2 2.2208 10.9852 26.4945 2.41855
675 1 -1.1104 12.3623 22.3177 3.99109
676 1 -1.1104 12.346 28.1167 4.22991
677 1 -1.1104 9.53015 25.3402 1.01616
678 2 2.2208 8.26619 23.7359 2.29248
679 2 2.2208 8.08905 29.2771 2.32794
680 1 -1.1104 9.69538 25.1858 3.73248
681 2 2.2208 8.17227 26.5332 5.19439
682 1 -1.1104 9.60711 22.252 1.0216
683 1 -1.1104 9.50587 27.9437 0.876283
684 1 -1.1104 9.56334 22.428 3.75982
685 1 -1.1104 9.51669 27.9303 3.56192
819 1 -1.1104 9.60327 22.2988 6.59034
820 1 -1.1104 9.63114 27.9142 6.54979
930 2 2.2208 8.06511 43.3844 10.9231
9659 2 2.2208 -0.325081 37.793 2.32044
689 2 2.2208 5.33701 34.8776 5.15572
690 1 -1.1104 1.0425 30.7707 0.884053
691 1 -1.1104 1.28116 36.2677 1.07632
693 1 -1.1104 1.03738 30.7274 3.77364
694 1 -1.1104 1.08625 36.5136 3.90494
696 1 -1.1104 1.03121 33.579 0.903911
697 2 2.2208 5.30388 32.1065 2.35786
698 2 2.2208 5.27063 37.811 2.41521
699 1 -1.1104 1.16947 33.5829 3.68211
701 1 -1.1104 3.96355 30.6972 0.891089
702 1 -1.1104 3.98195 36.5062 1.11805
703 2 2.2208 2.55944 34.8371 2.35262
704 1 -1.1104 3.72248 30.6118 3.75524
705 1 -1.1104 3.87833 36.2878 3.85119
706 2 2.2208 2.52294 32.015 5.22879
707 2 2.2208 2.53443 37.7723 5.28796
708 1 -1.1104 3.93682 33.4676 0.926626
709 1 -1.1104 3.91656 33.3354 3.86045
700 1 -1.1104 6.77463 33.5325 3.76131
692 1 -1.1104 6.6554 36.3276 1.00554
839 1 -1.1104 1.08591 33.6694 6.51067
9664 2 2.2208 -0.358464 37.7851 8.14354
843 1 -1.1104 3.90413 33.3629 6.60058
841 1 -1.1104 3.98026 30.5927 6.62039
835 1 -1.1104 1.09327 30.8743 6.65873
842 1 -1.1104 3.99375 36.2697 6.65554
838 1 -1.1104 6.75932 36.3841 6.50053
714 1 -1.1104 6.58198 30.8415 3.72009
695 1 -1.1104 6.6352 36.3878 3.69966
715 1 -1.1104 6.7692 33.55 1.00418
713 1 -1.1104 6.62687 30.7212 1.00543
716 2 2.2208 10.8602 34.8965 5.15327
717 1 -1.1104 12.4201 30.707 1.02525
718 1 -1.1104 12.1938 36.4309 0.962782
719 1 -1.1104 12.2799 30.8443 4.05609
720 1 -1.1104 12.3467 36.4676 3.97548
721 1 -1.1104 12.3612 33.6831 0.940593
722 2 2.2208 11.0031 32.2452 2.36774
723 2 2.2208 10.9811 37.8041 2.45694
724 1 -1.1104 12.3021 33.6715 3.72735
725 1 -1.1104 9.82698 30.6415 1.16112
726 1 -1.1104 9.3758 36.2377 0.944111
727 2 2.2208 8.15346 34.9489 2.48728
728 1 -1.1104 9.39899 30.727 3.80177
729 1 -1.1104 9.47819 36.405 3.7631
730 2 2.2208 7.99409 32.1176 5.15201