ITEM: TIMESTEP
60000
ITEM: NUMBER OF ATOMS
17700
ITEM: BOX BOUNDS pp pp pp
-3.6136952301211095e-01 2.7701369523012161e+01
-4.3454738564945572e+00 3.3242547385650283e+02
-3.6472250145679685e-01 2.7704722501456708e+01
ITEM: ATOMS id type q x y z
1 2 2.2208 5.12723 1.21491 5.12832
2 1 -1.1104 1.15855 -2.88192 1.24387
3 1 -1.1104 0.99097 2.80573 1.02103
6 1 -1.1104 1.01806 -3.06095 3.86952
7 1 -1.1104 0.851756 2.64517 3.85819
10 1 -1.1104 1.01559 0.0120235 0.956265
12 2 2.2208 5.20274 -1.54454 2.44409
14 1 -1.1104 1.0307 -0.125958 3.92185
16 1 -1.1104 3.81446 -2.89377 1.01361
17 1 -1.1104 3.90039 2.7339 0.914238
18 2 2.2208 2.39601 1.29616 2.28453
19 1 -1.1104 3.78758 -2.84281 3.7962
20 1 -1.1104 3.60906 2.6408 3.68811
21 2 2.2208 2.46369 -1.5582 5.16633
22 2 2.2208 2.55594 4.01539 5.19262
23 1 -1.1104 3.92414 -0.133687 0.936556
24 1 -1.1104 3.74304 -0.164562 3.83123
13 2 2.2208 5.26757 4.18412 2.33256
166 1 -1.1104 1.19929 -2.93703 6.54433
167 1 -1.1104 1.03493 2.71291 6.59574
15 1 -1.1104 6.57596 -0.1752 3.78127
171 1 -1.1104 6.66414 -0.139441 6.54701
8873 2 2.2208 -0.261769 12.4503 10.7385
50 2 2.2208 13.6934 -1.3746 5.25091
5 1 -1.1104 6.65339 2.67473 0.892104
174 1 -1.1104 3.78767 -0.0349957 6.4888
8015 2 2.2208 8.0719 -4.33789 2.30222
4 1 -1.1104 6.59144 -2.89648 1.0535
11 1 -1.1104 6.54136 -0.0553513 0.951994
8128 2 2.2208 2.38958 -4.29964 8.04971
9 1 -1.1104 6.47014 2.83978 3.74824
8 1 -1.1104 6.51484 -2.9522 3.85094
31 2 2.2208 10.8147 1.3353 5.21655
32 1 -1.1104 12.2382 -2.80789 0.957922
33 1 -1.1104 12.3114 2.6794 1.05708
34 1 -1.1104 12.1863 -2.84661 3.91864
35 1 -1.1104 12.0369 2.72166 3.84602
36 1 -1.1104 12.2321 -0.045259 1.01778
37 2 2.2208 10.8158 -1.52309 2.3956
38 2 2.2208 10.662 4.05988 2.4695
39 1 -1.1104 12.3802 0.00810123 3.73612
40 1 -1.1104 9.44335 -2.82464 1.01528
41 1 -1.1104 9.35951 2.63402 0.958412
42 2 2.2208 7.88075 1.31399 2.51177
43 1 -1.1104 9.31034 -2.96286 3.75816
44 1 -1.1104 9.17859 2.7118 3.80921
45 2 2.2208 8.01315 -1.53653 5.21784
47 1 -1.1104 9.35358 -0.0325631 1.08089
48 1 -1.1104 9.42925 -0.13831 3.89461
46 2 2.2208 7.88913 4.12419 5.20574
209 1 -1.1104 9.41526 2.80852 6.5426
208 1 -1.1104 9.42532 -3.1747 6.62381
8944 2 2.2208 -0.304906 1.20574 10.7944
8052 2 2.2208 5.20071 -4.39827 10.7017
8943 2 2.2208 -0.33071 4.09108 7.96711
537 2 2.2208 5.27907 18.1762 -0.327561
412 2 2.2208 5.22879 9.70137 13.6027
8053 2 2.2208 10.8614 -4.4742 5.24497
340 2 2.2208 -0.318582 -1.595 13.7686
54 2 2.2208 5.19107 6.97468 5.25381
55 2 2.2208 5.20861 12.4819 5.26445
56 1 -1.1104 1.069 8.33837 1.02327
58 1 -1.1104 0.963488 8.30725 3.72129
60 1 -1.1104 1.0883 5.6433 0.961117
61 1 -1.1104 1.13806 11.1666 0.902275
66 2 2.2208 5.30571 9.73279 2.41793
67 1 -1.1104 1.06736 5.44951 3.75772
68 1 -1.1104 0.910703 11.1756 3.70848
71 1 -1.1104 3.87536 8.3128 1.04098
72 2 2.2208 2.55661 6.90133 2.35599
73 2 2.2208 2.48465 12.4656 2.34017
74 1 -1.1104 3.71433 8.33302 3.79771
75 2 2.2208 2.47269 9.71958 5.18107
76 1 -1.1104 3.80596 5.47564 0.842861
77 1 -1.1104 3.87044 11.1735 0.9398
79 1 -1.1104 3.77747 5.46128 3.70089
80 1 -1.1104 3.79842 11.0289 3.80341
239 1 -1.1104 3.83464 5.47473 6.62084
64 1 -1.1104 6.60082 11.1095 0.8991
59 1 -1.1104 6.60019 8.3795 3.70389
69 1 -1.1104 6.60259 5.63244 3.76094
63 1 -1.1104 6.67343 5.49397 1.05204
78 1 -1.1104 3.87495 11.1405 6.67415
438 2 2.2208 8.1778 6.88988 13.6507
8079 2 2.2208 7.96327 -4.39688 7.99051
70 1 -1.1104 6.52917 11.1102 3.72496
57 1 -1.1104 6.60602 8.37341 0.907594
84 2 2.2208 10.6869 6.83753 5.20036
85 2 2.2208 10.8486 12.3919 5.17858
86 1 -1.1104 12.1632 8.31262 0.964098
87 1 -1.1104 12.2918 8.24491 3.86561
88 1 -1.1104 12.2262 5.48879 1.03525
89 1 -1.1104 12.2085 10.9897 1.00873
91 2 2.2208 10.817 9.75357 2.35689
92 1 -1.1104 12.1341 5.49982 3.97815
93 1 -1.1104 12.2406 11.0933 3.83506
94 1 -1.1104 9.42676 8.30001 1.04397
95 2 2.2208 8.02694 6.96124 2.37799
96 2 2.2208 7.97603 12.5942 2.29057
97 1 -1.1104 9.44956 8.42007 3.86013
98 2 2.2208 8.0049 9.70261 5.19844
99 1 -1.1104 9.5394 5.55659 1.02391
100 1 -1.1104 9.39178 11.2351 1.08912
102 1 -1.1104 9.30874 5.48317 3.76641
103 1 -1.1104 9.32851 11.122 3.87644
267 1 -1.1104 9.33418 8.49639 6.66526
269 1 -1.1104 9.44779 5.46868 6.75701
8653 2 2.2208 -0.324335 17.9577 10.879
8913 2 2.2208 13.7334 20.9504 10.7541
265 1 -1.1104 12.2175 8.2613 6.81854
101 1 -1.1104 9.44537 11.0428 6.61279
8946 2 2.2208 13.5902 4.13735 5.18784
502 2 2.2208 11.0011 15.3533 13.599
8951 2 2.2208 -0.374829 9.68045 2.38298
199 2 2.2208 8.14829 18.1512 8.10227
106 2 2.2208 5.34786 18.1199 5.23562
107 1 -1.1104 1.17727 13.9773 1.10047
109 1 -1.1104 1.00899 19.5083 0.981808
113 1 -1.1104 1.02303 14.0473 3.89548
114 1 -1.1104 1.13381 19.6496 3.74376
116 1 -1.1104 1.08075 16.7413 0.887628
119 2 2.2208 5.26747 15.213 2.45897
120 2 2.2208 5.208 20.9343 2.5734
121 1 -1.1104 1.10761 16.9028 3.79857
123 1 -1.1104 3.91052 13.8738 1.08933
125 1 -1.1104 3.85826 19.5695 0.967179
127 2 2.2208 2.41034 18.0586 2.37376
128 1 -1.1104 3.76146 13.8022 3.93674
129 1 -1.1104 3.95343 19.4302 3.73668
130 2 2.2208 2.6039 15.3816 5.366
131 2 2.2208 2.46326 20.9528 5.24225
132 1 -1.1104 3.76846 16.7061 1.08321
134 1 -1.1104 3.84976 16.6705 3.83391
124 1 -1.1104 4.1313 14.0244 6.75338
8938 2 2.2208 13.6857 12.4685 8.0564
288 1 -1.1104 6.74849 19.5304 9.40275
133 1 -1.1104 4.085 16.7947 6.63905
108 1 -1.1104 1.20344 13.9572 6.73052
117 1 -1.1104 1.23548 16.7829 6.65499
122 1 -1.1104 6.78991 16.7157 3.7317
115 1 -1.1104 6.67632 13.8838 3.84277
138 1 -1.1104 6.72579 19.4604 1.16812
139 1 -1.1104 6.7912 19.5625 3.8868
140 1 -1.1104 6.65662 16.6885 1.05257
110 1 -1.1104 6.58227 14.0045 0.993554
141 2 2.2208 10.9087 18.1751 5.27876
142 1 -1.1104 12.405 13.8063 1.03584
144 1 -1.1104 12.3433 19.3914 0.934793
146 1 -1.1104 12.3408 13.8533 3.78191
147 1 -1.1104 12.3657 19.6336 3.81548
148 1 -1.1104 12.2298 16.6908 1.01425
150 2 2.2208 10.8561 15.4134 2.4853
151 2 2.2208 10.9275 21.0543 2.42536
152 1 -1.1104 12.1826 16.727 3.87941
153 1 -1.1104 9.46175 14.0546 1.01372
155 1 -1.1104 9.46654 19.6949 1.31013
157 2 2.2208 8.08757 18.1518 2.50247
158 1 -1.1104 9.45826 13.9183 3.79204
159 1 -1.1104 9.57668 19.6609 3.97067
160 2 2.2208 8.16287 15.2556 5.19488
161 2 2.2208 8.09104 20.9088 5.23517
162 1 -1.1104 9.49752 16.8934 0.808064
164 1 -1.1104 9.48384 16.6888 3.85987
145 1 -1.1104 12.2698 19.5732 6.5872
156 1 -1.1104 9.4272 19.5038 6.73034
154 1 -1.1104 9.53401 13.8714 6.59962
439 2 2.2208 10.9157 9.82682 13.7338
344 2 2.2208 5.40897 4.11143 13.6567
297 1 -1.1104 6.66123 13.8201 12.1918
169 1 -1.1104 6.59728 2.75174 6.68985
289 1 -1.1104 6.6544 16.712 9.47205
26 1 -1.1104 9.52228 16.714 9.54263
173 1 -1.1104 3.87003 2.72376 6.4892
172 1 -1.1104 3.90472 -3.05701 6.67242
170 1 -1.1104 1.00539 -0.101305 6.62067
175 2 2.2208 5.31302 1.21691 10.6714
176 1 -1.1104 1.01324 -3.01424 12.1602
177 1 -1.1104 1.03555 2.66021 12.2255
180 1 -1.1104 1.03067 -2.85335 9.32034
181 1 -1.1104 1.19262 2.78539 9.49768
184 1 -1.1104 1.18178 -0.192384 12.1932
186 2 2.2208 5.36122 -1.53168 7.98037
187 2 2.2208 5.40768 4.17736 8.09354
188 1 -1.1104 1.10512 -0.043382 9.4649
190 1 -1.1104 3.79838 -2.81176 12.1306
191 1 -1.1104 3.76045 2.58554 12.2096
192 2 2.2208 2.48979 1.39034 7.93
193 1 -1.1104 3.83801 -2.92634 9.40956
194 1 -1.1104 3.93405 2.60685 9.25398
195 2 2.2208 2.55134 -1.47415 10.6925
197 1 -1.1104 3.96624 -0.056469 12.1777
198 1 -1.1104 3.85802 -0.0631662 9.24984
196 2 2.2208 2.43463 4.15188 10.8375
189 1 -1.1104 6.57857 -0.0333161 9.31502
168 1 -1.1104 6.57697 -3.05625 6.6924
183 1 -1.1104 6.76122 2.80559 9.44659
179 1 -1.1104 6.64649 2.69535 12.095
82 2 2.2208 8.05174 20.9348 10.8223
8942 2 2.2208 13.5762 6.91936 2.46963
8881 2 2.2208 -0.302726 6.83603 10.7237
205 1 -1.1104 12.3651 -2.93369 6.6384
182 1 -1.1104 6.71234 -2.92046 9.34522
377 2 2.2208 10.9608 4.08583 13.6145
178 1 -1.1104 6.59516 -3.05092 12.2741
210 1 -1.1104 9.45044 -0.238542 6.63866
206 1 -1.1104 12.3688 2.6708 6.55101
207 1 -1.1104 12.263 -0.13667 6.67854
185 1 -1.1104 6.72715 -0.155925 12.1792
211 2 2.2208 10.9221 1.26573 10.6424
212 1 -1.1104 12.3341 -2.88993 12.1979
213 1 -1.1104 12.3804 2.73401 12.1703
214 1 -1.1104 12.3262 -2.87778 9.33205
215 1 -1.1104 12.3676 2.6675 9.30748
216 1 -1.1104 12.3197 -0.155636 12.1836
217 2 2.2208 10.8673 -1.63891 8.02613
218 2 2.2208 10.9383 4.1746 8.00353
219 1 -1.1104 12.2741 -0.312972 9.35219
220 1 -1.1104 9.58218 -2.78138 12.1999
221 1 -1.1104 9.45418 2.78763 12.105
222 2 2.2208 8.10607 1.30674 8.01244
223 1 -1.1104 9.45979 -3.03235 9.45369
224 1 -1.1104 9.58321 2.66399 9.26237
225 2 2.2208 8.16485 -1.49674 10.783
226 2 2.2208 8.10448 4.10134 10.8083
227 1 -1.1104 9.53938 -0.122337 12.1367
228 1 -1.1104 9.43538 -0.115808 9.26643
232 1 -1.1104 12.3473 19.6005 12.218
238 1 -1.1104 3.94831 8.26662 6.60139
236 1 -1.1104 1.08484 5.43057 6.52409
234 1 -1.1104 1.15988 8.18287 6.6392
237 1 -1.1104 6.60315 5.65924 6.46251
235 1 -1.1104 6.59507 8.41752 6.56207
62 1 -1.1104 1.12709 11.1116 6.53901
240 2 2.2208 5.31485 6.9249 10.7942
241 2 2.2208 5.23982 12.5483 10.754
242 1 -1.1104 1.1907 8.18434 12.0809
244 1 -1.1104 1.08762 8.32226 9.49003
246 1 -1.1104 1.03658 5.49008 12.3092
247 1 -1.1104 1.076 11.0764 12.1081
250 2 2.2208 5.3329 9.70431 8.1071
251 1 -1.1104 1.14655 5.52138 9.27692
252 1 -1.1104 1.09513 11.089 9.33156
255 1 -1.1104 3.8344 8.35083 12.1646
256 2 2.2208 2.51298 6.91046 7.9624
257 2 2.2208 2.46365 12.5597 8.01188
258 1 -1.1104 3.82451 8.49232 9.20025
259 2 2.2208 2.37569 9.71853 10.7031
260 1 -1.1104 3.95458 5.57873 12.1927
261 1 -1.1104 3.77611 11.1571 12.2839
262 1 -1.1104 3.97181 5.56302 9.38583
263 1 -1.1104 3.89483 11.1086 9.57966
249 1 -1.1104 6.50632 11.1 12.3261
243 1 -1.1104 6.67593 8.20455 12.2117
254 1 -1.1104 6.65231 11.002 9.38003
233 1 -1.1104 12.2599 13.8116 9.46219
8652 2 2.2208 13.7089 15.4191 10.8192
143 1 -1.1104 12.2901 13.8363 6.63091
266 1 -1.1104 12.19 5.57819 6.7276
65 1 -1.1104 6.73243 11.1502 6.60034
245 1 -1.1104 6.69478 8.35916 9.40856
253 1 -1.1104 6.77581 5.59592 9.34881
90 1 -1.1104 12.2809 11.0698 6.60917
248 1 -1.1104 6.74815 5.54624 12.1174
264 1 -1.1104 9.46818 11.0607 9.48615
268 1 -1.1104 9.57589 5.4971 9.56414
270 1 -1.1104 9.34768 11.224 12.308
271 1 -1.1104 9.48979 5.47538 12.2059
272 2 2.2208 7.99161 9.61897 10.8903
273 1 -1.1104 9.47771 8.28448 9.42433
274 2 2.2208 8.05917 12.4085 8.09165
275 2 2.2208 8.09624 7.03001 8.00757
276 2 2.2208 10.8934 6.90165 10.8491
277 2 2.2208 10.8969 12.5437 10.7055
278 1 -1.1104 12.3326 8.33087 12.3156
279 1 -1.1104 12.3007 8.26165 9.51078
280 1 -1.1104 12.2611 5.56142 12.2509
281 1 -1.1104 12.1655 11.1889 12.2412
282 2 2.2208 10.7548 9.64003 8.04253
283 1 -1.1104 12.2907 5.3942 9.42239
284 1 -1.1104 12.2394 11.0163 9.38955
285 1 -1.1104 9.47046 8.51707 12.2005
105 1 -1.1104 9.64055 19.4606 12.1903
163 1 -1.1104 9.62498 16.8186 6.84928
202 1 -1.1104 9.57074 19.5782 9.58394
49 1 -1.1104 9.54965 16.7095 12.2641
51 1 -1.1104 12.2315 16.6231 9.52257
290 1 -1.1104 6.66609 13.8276 9.46805
126 1 -1.1104 3.83205 19.5121 6.52288
118 1 -1.1104 6.81107 16.8494 6.7017
343 2 2.2208 2.42151 1.25166 13.5542
111 1 -1.1104 6.85621 14.0142 6.60211
286 1 -1.1104 3.85612 19.4017 12.3366
229 1 -1.1104 3.76577 16.7021 12.1371
137 2 2.2208 2.34944 18.227 8.19173
136 1 -1.1104 3.88923 16.8022 9.34598
135 1 -1.1104 3.91055 14.0032 9.3714
165 1 -1.1104 1.10305 19.5948 6.78092
53 1 -1.1104 6.61405 16.7672 12.2667
298 1 -1.1104 0.983208 19.3811 12.4974
295 2 2.2208 5.35245 15.4501 8.0255
294 1 -1.1104 1.15478 13.7545 9.46482
293 2 2.2208 5.31965 20.8816 8.03508
292 1 -1.1104 1.11734 16.7261 9.64224
291 1 -1.1104 1.08459 19.5057 9.70357
287 1 -1.1104 3.81383 13.9705 12.1698
299 1 -1.1104 1.16378 13.9807 12.3613
301 1 -1.1104 3.90297 19.5082 9.39458
300 2 2.2208 5.19644 18.1262 10.7991
52 1 -1.1104 1.08987 16.6262 12.3607
83 2 2.2208 2.59192 15.2869 10.8149
104 2 2.2208 2.45689 20.786 10.9569
8936 2 2.2208 -0.376299 4.09842 2.42617
203 2 2.2208 7.9823 15.349 10.9275
231 1 -1.1104 12.3078 13.9614 12.1433
27 1 -1.1104 12.3599 19.4284 9.44765
81 1 -1.1104 9.39615 14.0596 12.2094
29 2 2.2208 10.8615 15.2906 8.04696
201 1 -1.1104 9.4671 13.8098 9.49689
30 2 2.2208 10.8702 20.9803 8.16947
112 1 -1.1104 6.58819 19.5227 6.70262
149 1 -1.1104 12.2945 16.7758 6.75556
28 1 -1.1104 12.2577 16.7972 12.3558
296 1 -1.1104 6.7358 19.5456 12.3081
204 2 2.2208 10.7703 18.1362 10.8144
8950 2 2.2208 13.7336 1.18118 2.30773
8948 2 2.2208 -0.31023 15.197 7.92196
8941 2 2.2208 -0.352718 6.79366 5.20734
375 2 2.2208 8.03206 1.25973 13.5119
8953 2 2.2208 -0.479966 20.9077 8.08338
342 2 2.2208 5.13287 -1.49149 13.6032
230 2 2.2208 13.7816 -1.52604 10.7726
9107 2 2.2208 -0.332258 9.7622 13.4514
8949 2 2.2208 -0.395727 1.33405 5.26243
8945 2 2.2208 13.6393 9.71457 5.39079
9326 2 2.2208 13.7262 4.15581 -0.407342
536 2 2.2208 11.0299 18.1078 -0.493111
9318 2 2.2208 -0.318841 3.95821 13.7263
376 2 2.2208 10.8602 -1.52408 13.6329
411 2 2.2208 2.3949 6.93147 13.558
529 2 2.2208 5.19107 1.23123 -0.46799
619 2 2.2208 10.8307 6.83315 -0.474651
568 2 2.2208 2.51124 20.8779 -0.413949
302 2 2.2208 5.15801 1.29721 16.3892
303 1 -1.1104 1.11395 -2.81608 17.7977
304 1 -1.1104 1.12846 2.89647 17.9376
307 1 -1.1104 1.10432 -2.9695 15.0052
309 1 -1.1104 1.10846 2.76026 15.1494
315 1 -1.1104 0.975374 -0.0280275 17.6948
317 2 2.2208 5.21423 -1.46371 19.3086
318 2 2.2208 5.28956 4.25373 19.267
319 1 -1.1104 0.905046 -0.0248042 14.904
323 1 -1.1104 3.86524 -2.88742 17.8153
324 1 -1.1104 3.85578 2.8337 17.6812
325 2 2.2208 2.43899 1.43505 19.1991
326 1 -1.1104 3.80815 -2.79563 15.0147
328 1 -1.1104 3.88167 2.70091 14.9631
330 2 2.2208 2.40748 -1.45951 16.4606
331 2 2.2208 2.53075 4.17746 16.3634
332 1 -1.1104 3.7819 -0.0495482 17.7242
333 1 -1.1104 3.7086 -0.0387451 15.1366
308 1 -1.1104 1.11687 -2.75629 20.6818
334 1 -1.1104 3.77659 -0.0313296 20.5333
9317 2 2.2208 -0.307251 1.36113 16.3254
316 1 -1.1104 6.54459 -0.28289 17.8155
329 1 -1.1104 3.90817 2.7352 20.6181
311 1 -1.1104 6.52254 -2.99764 15.1113
313 1 -1.1104 6.66789 2.69445 14.9418
305 1 -1.1104 6.70427 -2.9917 17.9143
9339 2 2.2208 -0.376879 15.3725 24.883
327 1 -1.1104 3.86419 -2.84976 20.7073
320 1 -1.1104 1.05402 -0.0484419 20.512
310 1 -1.1104 1.1521 2.70609 20.714
8540 2 2.2208 13.6695 -4.2032 19.2125
9174 2 2.2208 -0.373389 15.2075 19.251
8627 2 2.2208 5.2137 -4.32903 22.0178
9336 2 2.2208 -0.254154 12.5296 27.6652
8539 2 2.2208 10.7978 -4.31251 16.4066
322 1 -1.1104 6.64121 -0.013406 20.6862
306 1 -1.1104 6.74203 2.50642 17.8211
321 1 -1.1104 6.59204 -0.226661 14.8052
345 2 2.2208 10.8295 1.2826 16.3893
346 1 -1.1104 12.1399 -2.78642 17.7241
347 1 -1.1104 12.3825 2.54309 17.822
348 1 -1.1104 12.0872 -3.05269 14.972
350 1 -1.1104 12.361 2.82358 14.9848
352 1 -1.1104 12.308 -0.0856485 17.6329
353 2 2.2208 10.8304 -1.50569 19.125
354 2 2.2208 10.9149 3.85912 19.2722
355 1 -1.1104 12.3347 -0.110726 14.9709
357 1 -1.1104 9.41282 -2.93628 17.6732
358 1 -1.1104 9.49723 2.7688 17.8243
359 2 2.2208 8.00321 1.30746 19.223
360 1 -1.1104 9.3131 -2.84694 14.9425
362 1 -1.1104 9.49395 2.89226 14.9571
364 2 2.2208 7.95123 -1.54014 16.3346
365 2 2.2208 8.22226 4.2058 16.3671
366 1 -1.1104 9.39114 -0.101366 17.6082
367 1 -1.1104 9.48466 0.00923032 14.9382
312 1 -1.1104 6.62939 -2.93379 20.6521
8629 2 2.2208 7.99813 -4.37764 24.9245
534 1 -1.1104 9.52999 13.9477 26.3233
361 1 -1.1104 9.50332 -2.73605 20.5396
363 1 -1.1104 9.48817 2.67403 20.6846
560 2 2.2208 7.97794 -1.40041 27.7055
8628 2 2.2208 10.8841 -4.40031 21.9671
562 2 2.2208 8.03489 20.9475 27.8271
9324 2 2.2208 -0.252343 1.40113 21.9729
539 1 -1.1104 9.54763 19.5096 26.3588
9314 2 2.2208 -0.298612 6.86086 21.9848
378 2 2.2208 5.37348 6.93312 16.2959
379 2 2.2208 5.3275 12.5814 16.4414
380 1 -1.1104 1.1407 8.42894 17.713
382 1 -1.1104 0.843809 8.4445 14.9981
386 1 -1.1104 0.969306 5.56244 17.9303
387 1 -1.1104 1.12356 11.1813 17.6854
390 2 2.2208 5.33331 9.64747 19.2934
391 1 -1.1104 1.04166 5.57595 15.0814
393 1 -1.1104 1.13454 11.1817 14.8611
399 1 -1.1104 3.83874 8.40662 17.7696
400 2 2.2208 2.49993 6.94587 19.1211
401 2 2.2208 2.53061 12.3902 19.3452
402 1 -1.1104 3.79825 8.40923 14.9979
404 2 2.2208 2.52474 9.81096 16.3616
405 1 -1.1104 3.83946 5.60254 17.7872
406 1 -1.1104 4.00734 10.9824 17.9175
407 1 -1.1104 3.88724 5.65521 14.9055
409 1 -1.1104 3.7881 11.2763 15.0971
381 1 -1.1104 6.75039 8.19952 17.6059
403 1 -1.1104 3.80937 8.37434 20.6177
388 1 -1.1104 6.77733 5.39036 17.7851
564 1 -1.1104 12.346 13.7658 23.4447
336 1 -1.1104 12.1723 16.6605 23.4026
383 1 -1.1104 1.22854 8.33493 20.5961
392 1 -1.1104 1.11147 5.57048 20.656
410 1 -1.1104 3.92793 11.092 20.5396
398 1 -1.1104 6.78303 11.1999 20.6327
385 1 -1.1104 6.66842 8.33372 20.5743
535 2 2.2208 8.12762 15.2605 27.6516
635 1 -1.1104 6.65474 13.8014 23.4495
389 1 -1.1104 6.68402 11.2453 17.7229
397 1 -1.1104 6.58305 11.095 14.9957
384 1 -1.1104 6.66403 8.38905 15.0362
395 1 -1.1104 6.75773 5.50898 14.936
414 2 2.2208 11.013 6.89392 16.4278
415 2 2.2208 10.8389 12.5702 16.4843
416 1 -1.1104 12.2066 8.36172 17.883
417 1 -1.1104 12.3401 8.45973 15.1268
419 1 -1.1104 12.4223 5.45518 17.7542
420 1 -1.1104 12.1386 11.181 17.8096
421 2 2.2208 10.7527 9.65798 19.2265
422 1 -1.1104 12.4367 5.59529 15.0121
424 1 -1.1104 12.2762 11.2755 15.0898
426 1 -1.1104 9.54826 8.35609 17.7249
427 2 2.2208 8.29743 6.83839 19.2075
428 2 2.2208 8.02954 12.5754 19.2594
429 1 -1.1104 9.54577 8.26119 14.979
431 2 2.2208 8.03107 9.76949 16.4092
432 1 -1.1104 9.50754 5.54347 17.7673
433 1 -1.1104 9.44022 11.1477 17.9423
434 1 -1.1104 9.59201 5.55321 14.9283
436 1 -1.1104 9.45863 11.184 15.1307
430 1 -1.1104 9.32868 8.37995 20.5768
596 2 2.2208 5.16731 12.5574 27.5781
396 1 -1.1104 6.74465 5.59201 20.6625
9104 2 2.2208 -0.329349 6.95837 16.3352
441 2 2.2208 5.25968 18.1507 16.5295
442 1 -1.1104 1.13298 14.0246 17.9831
443 1 -1.1104 1.07095 19.4801 17.8338
446 1 -1.1104 1.18798 14.0072 15.1255
448 1 -1.1104 0.985956 19.7046 15.1297
454 1 -1.1104 1.1664 16.778 17.8565
456 2 2.2208 5.36055 15.2342 19.271
457 2 2.2208 5.17593 20.9386 19.3312
458 1 -1.1104 1.17498 16.739 15.1507
462 1 -1.1104 3.82872 13.7769 17.937
463 1 -1.1104 3.92901 19.6105 17.9093
464 2 2.2208 2.46616 18.1094 19.2898
465 1 -1.1104 4.02894 14.0061 15.0782
467 1 -1.1104 3.80515 19.4883 15.1773
469 2 2.2208 2.53022 15.2988 16.5243
470 2 2.2208 2.38782 20.8744 16.4965
471 1 -1.1104 3.91594 16.712 17.888
472 1 -1.1104 4.04263 16.8067 14.9554
460 1 -1.1104 6.79293 16.6308 14.9971
445 1 -1.1104 6.75064 19.4186 17.8723
452 1 -1.1104 6.63381 19.6408 15.1502
449 1 -1.1104 1.12844 19.5888 20.847
466 1 -1.1104 3.8642 13.8056 20.6292
9175 2 2.2208 -0.395975 18.0554 16.4038
451 1 -1.1104 6.48107 14.001 20.6658
341 1 -1.1104 12.4846 16.5563 26.3635
9323 2 2.2208 13.8632 20.8631 21.8131
447 1 -1.1104 0.992865 13.8683 20.716
459 1 -1.1104 1.04119 16.7303 20.5812
473 1 -1.1104 4.0072 16.6824 20.7787
468 1 -1.1104 4.00586 19.4319 20.6546
626 1 -1.1104 6.5401 13.8275 26.3318
338 2 2.2208 11.0148 20.833 24.729
621 2 2.2208 10.8218 12.4802 27.6944
455 1 -1.1104 6.63128 16.6559 17.8007
450 1 -1.1104 6.89599 13.973 15.1153
444 1 -1.1104 6.68867 13.9235 17.8853
477 2 2.2208 10.9068 18.0675 16.4708
478 1 -1.1104 12.1975 13.8111 17.9143
479 1 -1.1104 12.2801 19.4694 17.9293
480 1 -1.1104 12.3193 13.8743 14.8501
482 1 -1.1104 12.3489 19.4184 15.0382
484 1 -1.1104 12.3115 16.492 17.7461
485 2 2.2208 10.944 15.251 19.3146
486 2 2.2208 10.8589 20.9345 19.0864
487 1 -1.1104 12.2066 16.6313 15.1118
489 1 -1.1104 9.44223 14.0295 17.913
490 1 -1.1104 9.57225 19.4916 17.8943
491 2 2.2208 7.99291 18.0585 19.2859
492 1 -1.1104 9.57842 13.8397 14.9866
494 1 -1.1104 9.46258 19.3609 15.1202
496 2 2.2208 8.13012 15.4789 16.3965
497 2 2.2208 8.13047 20.83 16.4151
498 1 -1.1104 9.41753 16.8694 17.9559
499 1 -1.1104 9.53362 16.6249 15.0054
500 1 -1.1104 9.60583 16.7148 20.7434
495 1 -1.1104 9.41039 19.3261 20.5209
493 1 -1.1104 9.36602 13.9286 20.6697
9334 2 2.2208 -0.442813 1.31053 27.6268
505 2 2.2208 5.24276 1.39721 22.0573
506 1 -1.1104 1.02358 -2.81019 23.4709
507 1 -1.1104 1.01545 2.81079 23.4607
510 1 -1.1104 1.06253 -2.91185 26.4467
511 1 -1.1104 1.02172 2.55476 26.1485
514 1 -1.1104 1.19784 -0.0925817 23.4099
516 2 2.2208 5.20138 -1.43032 24.9668
517 2 2.2208 5.23227 4.15479 24.765
518 1 -1.1104 1.13619 -0.0372204 26.2934
520 1 -1.1104 3.92077 -2.80088 23.5239
521 1 -1.1104 3.80918 2.90456 23.5424
522 2 2.2208 2.43272 1.32374 24.746
523 1 -1.1104 3.85758 -2.82096 26.3768
524 1 -1.1104 3.75337 2.63168 26.1041
525 2 2.2208 2.48498 -1.45459 21.9134
526 2 2.2208 2.50527 4.25983 21.9915
527 1 -1.1104 3.89399 -0.036567 23.4058
528 1 -1.1104 3.80352 -0.0736284 26.3375
512 1 -1.1104 6.5447 -2.84584 26.3084
519 1 -1.1104 6.63458 -0.0495766 26.1225
509 1 -1.1104 6.7235 2.74614 23.4239
565 1 -1.1104 12.2081 19.4567 23.4755
9134 2 2.2208 13.7505 17.991 19.1996
9316 2 2.2208 13.8093 3.95442 22.0849
504 1 -1.1104 6.67463 19.5321 26.3704
356 1 -1.1104 12.2489 -0.23303 20.5388
368 1 -1.1104 9.50684 -0.0768525 20.535
373 2 2.2208 13.7253 -1.49918 16.3119
9069 2 2.2208 -0.263381 12.4156 16.3968
9103 2 2.2208 -0.223351 9.7769 19.2553
513 1 -1.1104 6.66879 2.81348 26.1565
515 1 -1.1104 6.6767 0.135859 23.2667
349 1 -1.1104 12.4113 -2.80702 20.5202
314 1 -1.1104 6.7539 2.87421 20.5911
372 1 -1.1104 12.2993 13.9254 26.4294
351 1 -1.1104 12.2896 2.64391 20.6498
508 1 -1.1104 6.79445 -2.85892 23.5357
541 2 2.2208 10.952 1.05523 22.059
542 1 -1.1104 12.2702 -3.04552 23.409
543 1 -1.1104 12.2372 2.54682 23.4891
544 1 -1.1104 12.2347 -2.85116 26.2423
545 1 -1.1104 12.2203 2.6431 26.3375
546 1 -1.1104 12.3376 -0.283087 23.3532
547 2 2.2208 10.8939 -1.6123 24.9036
548 2 2.2208 10.9215 4.124 24.8753
549 1 -1.1104 12.2232 -0.133492 26.2446
550 1 -1.1104 9.49608 -3.04781 23.3458
551 1 -1.1104 9.52768 2.62575 23.3466
552 2 2.2208 8.28207 1.42778 24.8187
553 1 -1.1104 9.41858 -2.99714 26.2285
554 1 -1.1104 9.48801 2.73517 26.2496
555 2 2.2208 8.09023 -1.49135 21.9533
556 2 2.2208 8.10147 4.14863 22.0348
557 1 -1.1104 9.56892 -0.220468 23.4219
558 1 -1.1104 9.37354 -0.154195 26.387
369 1 -1.1104 9.6383 14.0651 23.4652
569 2 2.2208 8.06237 20.9318 22.0218
563 2 2.2208 10.8923 18.0309 22.0484
394 1 -1.1104 1.07715 11.1493 20.7452
408 1 -1.1104 4.00451 5.59756 20.7122
570 2 2.2208 5.33547 6.97031 21.9821
571 2 2.2208 5.30753 12.4673 22.0538
572 1 -1.1104 1.11747 8.39841 23.2564
574 1 -1.1104 1.07881 8.24727 26.2429
576 1 -1.1104 0.955312 5.50523 23.581
577 1 -1.1104 1.14973 11.2319 23.5088
580 2 2.2208 5.34135 9.61729 24.8582
581 1 -1.1104 1.09064 5.43282 26.1386
582 1 -1.1104 1.09871 11.0483 26.1752
585 1 -1.1104 4.05762 8.27762 23.4382
586 2 2.2208 2.44204 6.91939 24.7629
587 2 2.2208 2.50919 12.4497 24.8064
588 1 -1.1104 3.80182 8.25645 26.1833
589 2 2.2208 2.55045 9.77495 21.9999
590 1 -1.1104 3.80162 5.65476 23.4985
591 1 -1.1104 4.02815 10.9706 23.2868
592 1 -1.1104 3.95654 5.57824 26.142
593 1 -1.1104 3.87561 11.082 26.2124
583 1 -1.1104 6.7771 5.61753 26.237
9320 2 2.2208 13.7716 1.26337 19.1315
9329 2 2.2208 -0.335324 6.92669 27.6185
540 2 2.2208 8.06798 15.2935 22.1381
481 1 -1.1104 12.2402 13.9472 20.711
628 1 -1.1104 6.69471 16.7982 26.2581
435 1 -1.1104 9.54989 5.43435 20.5824
437 1 -1.1104 9.50294 11.1256 20.6675
425 1 -1.1104 12.378 11.2138 20.7454
575 1 -1.1104 6.74567 8.43771 26.143
423 1 -1.1104 12.38 5.35967 20.5455
418 1 -1.1104 12.3488 8.195 20.579
584 1 -1.1104 6.61764 11.0069 26.3204
578 1 -1.1104 6.65978 5.39877 23.3964
573 1 -1.1104 6.82385 8.17365 23.3636
579 1 -1.1104 6.68136 11.0243 23.4443
601 1 -1.1104 9.57297 11.0266 26.3262
602 1 -1.1104 9.49631 5.49717 26.1338
603 1 -1.1104 9.48172 11.2565 23.5305
604 1 -1.1104 9.53858 5.55953 23.4042
605 2 2.2208 8.10752 9.75236 22.051
606 1 -1.1104 9.4398 8.27323 26.2111
607 2 2.2208 7.99904 12.5481 24.9713
608 2 2.2208 8.15239 6.90626 24.7274
609 2 2.2208 10.9815 6.78019 22.0138
610 2 2.2208 10.8176 12.5736 22.0703
611 1 -1.1104 12.3057 8.16616 23.3736
612 1 -1.1104 12.3505 8.23242 26.2627
613 1 -1.1104 12.2175 5.37243 23.4743
614 1 -1.1104 12.2404 10.9628 23.4009
615 2 2.2208 10.9269 9.60779 24.8006
616 1 -1.1104 12.3856 5.45853 26.2997
617 1 -1.1104 12.3366 11.226 26.3532
618 1 -1.1104 9.57327 8.4958 23.4117
461 1 -1.1104 6.71815 16.7376 20.7652
371 2 2.2208 8.12062 18.0949 24.9515
335 1 -1.1104 12.3792 19.5672 26.2434
9337 2 2.2208 -0.245136 20.8872 24.8557
453 1 -1.1104 6.69183 19.623 20.753
632 1 -1.1104 6.59995 19.5332 23.5315
636 1 -1.1104 1.22291 19.49 23.6147
634 2 2.2208 5.25973 15.3439 24.9338
637 1 -1.1104 1.05297 13.901 23.4701
639 1 -1.1104 3.84675 19.4372 26.3297
640 2 2.2208 2.62831 18.2016 24.9172
638 2 2.2208 5.25724 18.0501 22.1058
533 1 -1.1104 3.75772 13.8088 26.1565
597 2 2.2208 2.39504 15.2448 22.0036
600 2 2.2208 2.46162 20.8911 22.1767
622 1 -1.1104 3.9038 16.6911 26.2307
623 1 -1.1104 3.87903 16.7055 23.5307
624 1 -1.1104 1.06207 16.6601 23.3271
625 1 -1.1104 3.87719 19.5877 23.4944
627 1 -1.1104 3.75867 13.8679 23.3454
629 1 -1.1104 0.990332 19.6013 26.4739
630 1 -1.1104 1.17811 16.6951 26.2617
631 1 -1.1104 1.04904 13.8368 26.2851
633 2 2.2208 5.34995 20.9489 24.9153
532 1 -1.1104 6.62983 16.6522 23.5086
370 1 -1.1104 9.31425 19.4126 23.4291
337 2 2.2208 10.8613 15.2461 24.9058
599 1 -1.1104 9.55207 16.6134 26.1975
483 1 -1.1104 12.3461 19.5032 20.7802
488 1 -1.1104 12.427 16.7616 20.5763
598 1 -1.1104 9.49343 16.6089 23.5871
620 2 2.2208 7.97936 9.68419 27.669
339 2 2.2208 -0.45146 -1.4696 19.2568
9135 2 2.2208 13.6604 20.9254 16.5277
567 2 2.2208 13.6837 -1.51359 22.0373
561 2 2.2208 8.11172 4.24972 27.6116
9333 2 2.2208 13.7631 17.9986 24.805
9325 2 2.2208 -0.42136 4.08558 24.8493
374 2 2.2208 2.49159 15.3869 27.6785
9177 2 2.2208 -0.548273 20.9216 13.6669
559 2 2.2208 10.8521 1.25202 27.6609
8514 2 2.2208 13.6542 -4.33928 24.7823
9338 2 2.2208 13.7738 9.70873 27.6809
9313 2 2.2208 13.9043 4.14495 16.4414
9328 2 2.2208 -0.41225 12.6347 21.9928
9176 2 2.2208 -0.315687 15.2319 13.5995
594 2 2.2208 5.26346 7.02229 27.6117
531 2 2.2208 2.44864 4.0964 27.5542
475 2 2.2208 5.24212 20.9011 13.7427
501 2 2.2208 10.9119 20.8604 13.551
474 2 2.2208 2.40804 18.1167 13.7346
440 2 2.2208 8.23373 12.5851 13.5919
413 2 2.2208 2.50599 12.5802 13.5821
503 2 2.2208 8.12984 18.0912 13.613
530 2 2.2208 2.36202 -1.51942 27.8442
595 2 2.2208 2.42564 9.63435 27.6247
476 2 2.2208 5.28959 15.3351 13.6087
9342 2 2.2208 -0.393295 18.0714 27.6653
9341 2 2.2208 13.6928 20.9035 27.5959
641 2 2.2208 5.25176 23.8418 5.48951
642 2 2.2208 5.37479 29.3629 5.3084
643 1 -1.1104 0.870964 25.2111 1.02648
644 1 -1.1104 1.03264 25.2029 3.90867
645 1 -1.1104 1.07605 22.3939 0.963336
646 1 -1.1104 1.08965 27.9832 0.958336
647 2 2.2208 5.28542 26.6337 2.52696
648 1 -1.1104 0.918266 22.4065 3.69779
649 1 -1.1104 1.18215 27.9358 3.73929
650 1 -1.1104 3.69417 25.1935 1.19725
651 2 2.2208 2.32567 23.7595 2.42554
652 2 2.2208 2.57941 29.3693 2.41167
653 1 -1.1104 3.90317 25.1633 3.94149
654 2 2.2208 2.41416 26.6227 5.32185
655 1 -1.1104 3.79036 22.3166 1.25186
656 1 -1.1104 4.00285 28.0372 1.12934
657 1 -1.1104 3.9493 22.2766 4.11694
658 1 -1.1104 3.87491 28.0009 4.09057
662 1 -1.1104 6.52731 24.9435 1.21264
789 1 -1.1104 3.73866 22.3008 6.97108
790 1 -1.1104 3.85608 28.0275 6.69805
1513 1 -1.1104 9.46183 47.5522 12.2375
788 1 -1.1104 3.84015 25.2655 6.76093
783 1 -1.1104 6.60364 25.1036 6.78011
782 1 -1.1104 0.922444 25.0955 6.65105
1499 1 -1.1104 9.55563 47.4984 6.79642
1315 1 -1.1104 12.2825 47.6769 3.88595
9602 2 2.2208 13.8485 46.1 8.15793
665 1 -1.1104 6.74746 27.8819 1.10978
666 1 -1.1104 6.76245 22.4767 4.06378
667 1 -1.1104 6.74183 27.9114 3.75426
663 1 -1.1104 6.69371 25.2183 3.91028
664 1 -1.1104 6.70714 22.224 1.21165
668 2 2.2208 10.7966 23.824 5.37176
669 2 2.2208 10.7495 29.4187 5.3264
670 1 -1.1104 12.3874 25.1058 1.23547
671 1 -1.1104 12.3007 25.2177 4.04211
672 1 -1.1104 12.4772 22.3015 1.05139
673 1 -1.1104 12.3386 27.93 1.21157
674 2 2.2208 10.9768 26.5134 2.65477
675 1 -1.1104 12.2891 22.4755 4.01356
676 1 -1.1104 12.1727 27.9491 4.08731
677 1 -1.1104 9.59994 25.1266 1.17355
678 2 2.2208 8.0692 23.7092 2.54417
679 2 2.2208 8.12963 29.3212 2.42359
680 1 -1.1104 9.38745 25.0465 4.00789
681 2 2.2208 7.98068 26.4986 5.38814
682 1 -1.1104 9.50923 22.4016 1.03365
683 1 -1.1104 9.63757 28.0464 1.08948
684 1 -1.1104 9.72858 22.2621 3.85967
685 1 -1.1104 9.4207 27.842 4.05628
819 1 -1.1104 9.37097 22.2566 6.75833
815 1 -1.1104 12.2696 25.1862 6.78705
816 1 -1.1104 12.3263 22.3735 6.67146
786 1 -1.1104 6.57596 22.2238 6.81363
820 1 -1.1104 9.39433 28.0126 6.76004
1329 1 -1.1104 9.27348 47.5724 3.92952
689 2 2.2208 5.19956 34.9848 5.19064
690 1 -1.1104 1.17507 30.6585 1.04076
691 1 -1.1104 1.2324 36.3585 1.21039
693 1 -1.1104 1.17624 30.7865 3.98815
694 1 -1.1104 0.886168 36.435 4.05164
696 1 -1.1104 1.0576 33.6365 1.08706
697 2 2.2208 5.32935 32.1367 2.52437
698 2 2.2208 5.29395 37.7864 2.52808
699 1 -1.1104 1.19769 33.7152 3.99197
701 1 -1.1104 4.04375 30.7917 0.984837
702 1 -1.1104 3.87098 36.3667 0.943915
703 2 2.2208 2.48405 34.9457 2.58233
704 1 -1.1104 4.02693 30.7244 3.83603
705 1 -1.1104 3.81137 36.2468 3.86684
706 2 2.2208 2.5347 32.1683 5.23614
707 2 2.2208 2.56269 37.7536 5.25707
708 1 -1.1104 3.78163 33.735 1.16607
709 1 -1.1104 3.87483 33.5259 3.8119
692 1 -1.1104 6.62446 36.4636 1.12093
9654 2 2.2208 -0.460052 23.7055 5.13101
9663 2 2.2208 13.6632 40.4118 2.46204
9482 2 2.2208 13.713 23.6487 8.20913
839 1 -1.1104 1.16612 33.4802 6.7549
835 1 -1.1104 1.04508 30.5993 6.74221
842 1 -1.1104 3.89135 36.3017 6.70535
836 1 -1.1104 1.18422 36.3406 6.73505
837 1 -1.1104 6.72622 30.6781 6.81507
996 2 2.2208 10.7985 40.5879 -0.544062
714 1 -1.1104 6.77441 30.8162 3.91164
715 1 -1.1104 6.64559 33.738 0.948028
713 1 -1.1104 6.74807 30.649 1.12234
700 1 -1.1104 6.63048 33.4805 3.92855
695 1 -1.1104 6.54432 36.3019 3.99857
716 2 2.2208 10.809 35.1128 5.05725
717 1 -1.1104 12.2948 30.74 1.23431
718 1 -1.1104 12.2558 36.2328 1.13737
719 1 -1.1104 12.4011 30.6733 3.9938