ITEM: TIMESTEP
20000
ITEM: NUMBER OF ATOMS
17760
ITEM: BOX BOUNDS pp pp pp
-4.4942933847675726e-01 2.7789429338477014e+01
-5.4937542047528698e+00 3.3357375420475654e+02
-4.5009395478002090e-01 2.7790093954780126e+01
ITEM: ATOMS id type q x y z
1 2 2.2208 4.92926 -0.151278 5.35237
2 1 -1.1104 0.994099 -4.07997 1.1054
6 1 -1.1104 1.01617 -4.25063 3.80678
10 1 -1.1104 1.11831 -1.26577 0.949694
12 2 2.2208 5.11311 -2.71081 2.4377
14 1 -1.1104 0.869279 -1.20297 3.94047
16 1 -1.1104 4.00505 -4.2413 0.779441
18 2 2.2208 2.29748 0.154221 2.35287
19 1 -1.1104 3.68004 -4.06838 3.81268
21 2 2.2208 2.27828 -2.74291 5.2077
23 1 -1.1104 3.9222 -1.36183 1.0514
24 1 -1.1104 3.5565 -1.35183 3.93517
51 2 2.2208 8.04674 -5.4952 2.25483
229 2 2.2208 13.4851 0.131663 8.06753
15 1 -1.1104 6.45285 -1.44101 3.99763
174 1 -1.1104 3.78664 -1.40721 6.79001
375 2 2.2208 13.4817 19.789 -0.287763
202 2 2.2208 2.54049 -5.46727 8.13512
315 1 -1.1104 9.38237 15.5961 12.4101
8 1 -1.1104 6.50386 -4.15442 3.90168
204 2 2.2208 -0.28327 -5.49163 10.9007
395 2 2.2208 4.90482 11.1995 -0.424695
4 1 -1.1104 6.62892 -4.0663 1.19909
11 1 -1.1104 6.43939 -1.36199 1.17077
31 2 2.2208 10.7236 0.0549315 5.1595
32 1 -1.1104 12.4075 -3.94799 1.15836
34 1 -1.1104 12.1301 -3.90455 3.94706
36 1 -1.1104 12.2912 -1.36828 0.853893
37 2 2.2208 10.8695 -2.70097 2.26061
39 1 -1.1104 12.1058 -1.10233 3.69856
40 1 -1.1104 9.34336 -3.94768 1.09625
42 2 2.2208 7.85189 0.249771 2.37669
43 1 -1.1104 9.51106 -4.22988 3.75173
45 2 2.2208 8.09925 -2.8447 5.21944
47 1 -1.1104 9.49286 -1.10288 0.891515
48 1 -1.1104 9.07388 -1.47962 3.58603
210 1 -1.1104 9.51813 -1.3106 6.57992
208 1 -1.1104 9.45133 -4.066 6.56507
381 2 2.2208 5.04842 0.232169 -0.320835
389 2 2.2208 7.66729 2.96115 -0.364863
334 2 2.2208 13.6388 2.8551 5.22824
3 1 -1.1104 0.884016 1.475 0.952798
7 1 -1.1104 0.701795 1.54379 3.50425
13 2 2.2208 5.06152 2.76927 2.54776
17 1 -1.1104 3.76835 1.48476 0.954466
20 1 -1.1104 3.55921 1.57801 3.85346
22 2 2.2208 2.22432 3.0096 5.23988
54 2 2.2208 5.09738 5.7576 5.30448
60 1 -1.1104 0.750576 4.18379 0.891915
67 1 -1.1104 0.825188 4.47172 4.0029
71 1 -1.1104 3.78008 7.17098 0.775881
72 2 2.2208 2.47373 5.64311 2.50563
74 1 -1.1104 3.75154 7.16946 3.68793
76 1 -1.1104 3.62939 4.32878 0.98633
79 1 -1.1104 3.68848 4.27893 3.94723
56 1 -1.1104 0.864809 6.80197 1.10681
58 1 -1.1104 1.03436 7.08659 3.83956
341 2 2.2208 13.4673 8.51907 10.7703
49 2 2.2208 13.5608 -0.0991524 2.23516
63 1 -1.1104 6.30848 4.28714 1.16038
234 1 -1.1104 0.938067 7.04345 6.67418
326 1 -1.1104 12.1006 15.649 12.187
112 1 -1.1104 6.62842 18.2841 6.38619
69 1 -1.1104 6.47188 4.60042 3.84013
5 1 -1.1104 6.38747 1.47337 1.03619
231 2 2.2208 8.16839 -5.32635 7.95746
59 1 -1.1104 6.52719 7.45436 3.93751
9 1 -1.1104 6.39876 1.71281 3.92226
57 1 -1.1104 6.52652 7.04134 0.989965
33 1 -1.1104 11.8259 1.43425 0.854817
35 1 -1.1104 12.5345 1.5214 3.59416
38 2 2.2208 10.5662 2.87312 2.4656
41 1 -1.1104 9.16114 1.5561 0.909302
44 1 -1.1104 9.23907 1.60989 3.76803
46 2 2.2208 7.79471 2.93279 5.20507
84 2 2.2208 10.5698 5.62872 5.33302
86 1 -1.1104 12.1792 6.95159 1.22011
87 1 -1.1104 12.1597 7.05216 3.83756
88 1 -1.1104 12.0033 4.32089 1.1449
92 1 -1.1104 12.012 4.21903 3.65823
94 1 -1.1104 9.33336 7.06074 0.923002
95 2 2.2208 7.9356 5.61053 2.39898
97 1 -1.1104 9.40115 7.08745 3.98507
99 1 -1.1104 9.12959 4.30233 0.973567
102 1 -1.1104 9.25234 4.24003 4.09932
340 2 2.2208 13.407 11.2853 8.11921
339 2 2.2208 13.5893 5.71402 8.01093
55 2 2.2208 5.03938 11.1406 5.16342
61 1 -1.1104 0.831215 9.70292 1.13266
66 2 2.2208 5.23057 8.62502 2.35072
68 1 -1.1104 0.609495 9.94252 4.10222
73 2 2.2208 2.09251 11.362 2.36684
75 2 2.2208 2.30506 8.47918 5.40165
77 1 -1.1104 3.9228 10.0164 1.18096
80 1 -1.1104 3.41907 9.85796 3.88312
107 1 -1.1104 0.670548 12.6852 1.15309
113 1 -1.1104 1.02298 12.6364 3.9353
123 1 -1.1104 3.63908 12.5844 0.932414
128 1 -1.1104 3.65327 12.526 3.86777
333 2 2.2208 13.5748 14.2902 10.9634
110 1 -1.1104 6.49169 12.7433 0.95104
366 2 2.2208 13.4646 5.7185 13.5614
288 1 -1.1104 6.45151 18.1778 9.41779
289 1 -1.1104 6.47803 15.258 9.59731
115 1 -1.1104 6.58822 12.6681 3.81859
382 2 2.2208 2.42562 -2.69897 -0.448807
400 2 2.2208 10.6446 11.1274 -0.151185
70 1 -1.1104 6.4537 9.99189 3.73426
64 1 -1.1104 6.71544 9.81807 0.986362
85 2 2.2208 10.744 11.33 5.25625
89 1 -1.1104 12.0474 9.65108 1.04163
91 2 2.2208 10.8268 8.33577 2.32237
93 1 -1.1104 12.0671 9.98745 3.60349
96 2 2.2208 8.07243 11.2415 2.47663
98 2 2.2208 8.01923 8.56504 5.24076
100 1 -1.1104 9.33118 9.73691 1.1497
103 1 -1.1104 9.27616 9.98397 3.86645
142 1 -1.1104 12.0288 12.5529 1.10954
146 1 -1.1104 12.4714 12.9495 3.89681
153 1 -1.1104 9.29764 12.654 1.08387
158 1 -1.1104 9.49676 12.612 3.78943
160 2 2.2208 7.91579 13.9739 5.36717
318 1 -1.1104 9.30999 18.3212 9.39451
118 1 -1.1104 6.5769 15.4776 6.64727
331 2 2.2208 10.6451 16.9005 10.9131
104 2 2.2208 13.6169 11.3758 2.53264
323 1 -1.1104 12.3434 15.3361 9.46828
390 2 2.2208 11.1127 -5.37908 -0.276714
130 2 2.2208 2.22228 13.9775 5.34063
119 2 2.2208 5.09402 14.065 2.56984
106 2 2.2208 5.03177 16.8286 5.21779
109 1 -1.1104 0.770125 18.4153 1.19978
114 1 -1.1104 0.772523 18.4169 4.07811
116 1 -1.1104 1.02672 15.6088 1.00084
120 2 2.2208 5.11997 19.7104 2.50005
121 1 -1.1104 0.811235 15.5966 4.02094
125 1 -1.1104 3.4999 18.3285 1.12472
127 2 2.2208 2.21934 16.9708 2.45073
129 1 -1.1104 3.84279 18.1979 3.91448
131 2 2.2208 2.30313 19.6829 5.42538
132 1 -1.1104 4.03181 15.3833 1.01007
134 1 -1.1104 3.72944 15.2925 4.04064
139 1 -1.1104 6.54938 18.363 3.54691
349 2 2.2208 2.42873 -0.0289553 13.5645
140 1 -1.1104 6.6197 15.4812 1.04585
122 1 -1.1104 6.47088 15.5886 3.86973
230 2 2.2208 13.6103 -2.69229 10.8934
374 2 2.2208 13.4871 14.0311 -0.309006
150 2 2.2208 10.7942 13.8885 2.40511
138 1 -1.1104 6.31108 18.3357 0.773204
141 2 2.2208 10.4927 16.7394 5.31692
144 1 -1.1104 12.1056 18.4755 0.975521
147 1 -1.1104 12.0251 18.3485 3.59364
148 1 -1.1104 12.0466 15.4609 1.0847
151 2 2.2208 10.5395 19.7792 2.5233
152 1 -1.1104 11.9735 15.7301 4.03135
155 1 -1.1104 9.21365 18.3292 1.24039
157 2 2.2208 7.81334 16.8176 2.51397
159 1 -1.1104 9.26059 18.3998 4.0307
161 2 2.2208 7.88301 19.7679 5.29901
162 1 -1.1104 9.43489 15.3108 1.18528
164 1 -1.1104 9.25808 15.423 3.79015
378 2 2.2208 10.796 16.8429 -0.333196
306 1 -1.1104 6.80891 15.5125 12.4166
337 2 2.2208 13.5752 14.4167 5.12565
388 2 2.2208 8.01701 -2.52828 -0.21597
345 2 2.2208 13.564 19.758 11.148
172 1 -1.1104 3.94799 -4.28573 6.45334
166 1 -1.1104 1.0638 -4.05161 6.56025
170 1 -1.1104 0.990923 -1.22583 6.76812
175 2 2.2208 5.14684 0.0789691 10.8654
176 1 -1.1104 1.1277 -3.96914 12.3416
180 1 -1.1104 0.944748 -4.17599 9.49726
184 1 -1.1104 1.01482 -1.46205 12.2205
186 2 2.2208 5.41024 -2.80985 8.18257
188 1 -1.1104 0.776849 -1.3197 9.48901
190 1 -1.1104 3.84074 -4.22267 12.0834
192 2 2.2208 2.27876 0.033648 8.01212
193 1 -1.1104 3.99652 -4.20334 9.33384
195 2 2.2208 2.3797 -2.75804 10.8481
197 1 -1.1104 3.79641 -1.29707 12.4541
198 1 -1.1104 3.74002 -1.19229 9.71839
185 1 -1.1104 6.59925 -1.25293 12.1008
168 1 -1.1104 6.85916 -4.03012 6.74574
182 1 -1.1104 6.66652 -3.98019 9.67005
189 1 -1.1104 6.56265 -1.27079 9.4831
171 1 -1.1104 6.60289 -1.3322 6.69052
178 1 -1.1104 6.74464 -4.23476 12.4373
25 2 2.2208 -0.434206 -2.53775 2.47427
205 1 -1.1104 12.1179 -4.26167 6.74022
207 1 -1.1104 12.2356 -1.36598 6.50107
211 2 2.2208 10.7014 0.153778 10.8757
212 1 -1.1104 12.3767 -4.01068 12.3255
214 1 -1.1104 12.3073 -4.12713 9.61191
216 1 -1.1104 12.4193 -1.25001 12.3724
217 2 2.2208 10.7895 -2.69265 8.04957
219 1 -1.1104 12.2618 -1.3548 9.45671
220 1 -1.1104 9.51854 -4.04434 12.3627
222 2 2.2208 7.91484 -0.054936 8.02031
223 1 -1.1104 9.65703 -3.92668 9.5351
225 2 2.2208 7.99044 -2.63277 11.0554
227 1 -1.1104 9.44301 -1.30577 12.4148
228 1 -1.1104 9.25317 -1.24408 9.56706
317 2 2.2208 8.04136 14.2026 11.0252
105 2 2.2208 13.5405 5.70696 2.51522
167 1 -1.1104 0.854356 1.52701 6.57643
173 1 -1.1104 3.7218 1.48077 6.61945
236 1 -1.1104 0.667711 4.14782 6.8871
238 1 -1.1104 3.67253 7.13918 6.88697
239 1 -1.1104 3.76198 4.37594 6.60113
177 1 -1.1104 0.77343 1.18448 12.2734
181 1 -1.1104 0.932501 1.58921 9.58914
187 2 2.2208 5.10107 2.72563 7.92645
191 1 -1.1104 3.63808 1.46853 12.2879
194 1 -1.1104 3.8419 1.44806 9.34292
196 2 2.2208 2.24405 2.74627 10.9846
240 2 2.2208 5.01529 5.57967 10.9231
244 1 -1.1104 0.78024 7.11523 9.7059
246 1 -1.1104 0.836432 4.04038 12.2577
251 1 -1.1104 0.817212 4.11795 9.56526
255 1 -1.1104 3.84591 7.25787 12.4034
256 2 2.2208 2.19312 5.62429 8.33691
260 1 -1.1104 3.69454 4.3119 12.3231
262 1 -1.1104 3.4402 4.22478 9.55707
242 1 -1.1104 1.00121 6.89824 12.4778
169 1 -1.1104 6.58164 1.27991 6.53681
183 1 -1.1104 6.71789 1.41625 9.50091
248 1 -1.1104 6.43734 4.2026 12.1317
258 1 -1.1104 3.77605 7.0198 9.39721
245 1 -1.1104 6.50386 6.91577 9.60777
357 2 2.2208 10.6823 2.9828 13.6148
253 1 -1.1104 6.28141 4.22531 9.51987
269 1 -1.1104 9.2688 4.27641 6.6672
265 1 -1.1104 12.1388 7.22497 6.5355
209 1 -1.1104 9.37066 1.40584 6.46584
237 1 -1.1104 6.44732 4.28381 6.53651
243 1 -1.1104 6.52392 6.87993 12.4255
267 1 -1.1104 9.38949 6.97109 6.64296
266 1 -1.1104 12.0897 4.25295 6.30077
179 1 -1.1104 6.45506 1.42584 12.2508
206 1 -1.1104 12.0384 1.33551 6.57797
213 1 -1.1104 12.1721 1.45352 12.3719
215 1 -1.1104 12.1695 1.46362 9.45361
218 2 2.2208 10.874 2.87487 8.03394
221 1 -1.1104 9.38451 1.39192 12.1903
224 1 -1.1104 9.39421 1.50086 9.24771
226 2 2.2208 7.82628 2.94415 10.8752
268 1 -1.1104 9.23642 4.18576 9.43117
271 1 -1.1104 9.20306 4.25398 12.301
273 1 -1.1104 9.11551 7.1398 9.33779
275 2 2.2208 7.74359 5.4905 8.0521
276 2 2.2208 10.5357 5.56468 10.8071
278 1 -1.1104 12.0422 7.14101 12.1641
279 1 -1.1104 11.9841 6.90594 9.49076
280 1 -1.1104 12.1114 4.21305 12.2164
283 1 -1.1104 12.2288 4.27645 9.25847
285 1 -1.1104 9.44784 7.1611 12.2205
235 1 -1.1104 6.72174 7.04104 6.84845
392 2 2.2208 13.5337 2.7899 -0.353168
62 1 -1.1104 0.89299 9.87605 6.57685
124 1 -1.1104 3.58539 12.6606 6.55604
78 1 -1.1104 3.57198 9.87066 6.71647
108 1 -1.1104 0.776941 12.5558 6.65723
305 1 -1.1104 3.69606 12.6293 9.36509
287 1 -1.1104 3.86988 12.6974 12.4212
299 1 -1.1104 1.07757 12.7708 12.4094
294 1 -1.1104 0.931056 12.6529 9.62311
241 2 2.2208 4.88933 11.2629 10.7811
247 1 -1.1104 0.905338 9.79523 12.2696
250 2 2.2208 5.18219 8.51253 8.06972
252 1 -1.1104 0.938118 9.95077 9.52183
257 2 2.2208 2.26261 11.3103 8.0029
259 2 2.2208 2.3551 8.5095 10.9352
261 1 -1.1104 3.61395 10.0825 12.4068
263 1 -1.1104 3.59193 9.71553 9.44969
65 1 -1.1104 6.53868 9.76398 6.58974
290 1 -1.1104 6.46315 12.3526 9.4547
254 1 -1.1104 6.55605 9.79246 9.58563
249 1 -1.1104 6.3746 9.89788 12.2653
399 2 2.2208 7.95859 8.27814 -0.406851
394 2 2.2208 2.18788 8.49006 -0.353699
296 1 -1.1104 6.39937 18.1784 12.3096
111 1 -1.1104 6.38024 12.651 6.69771
297 1 -1.1104 6.5313 12.8123 12.3132
90 1 -1.1104 12.1321 9.98584 6.81997
101 1 -1.1104 9.59709 9.60651 6.60907
143 1 -1.1104 11.9795 12.7024 6.68842
154 1 -1.1104 9.04042 12.4116 6.62992
330 1 -1.1104 11.9271 12.7301 12.4751
328 1 -1.1104 11.842 12.54 9.53238
322 1 -1.1104 9.24345 12.5359 12.3236
319 1 -1.1104 9.0363 12.592 9.41953
264 1 -1.1104 9.29952 9.91143 9.39542
270 1 -1.1104 9.1561 9.76377 12.478
272 2 2.2208 7.7435 8.40567 11.0299
274 2 2.2208 7.85451 11.0775 8.05864
277 2 2.2208 10.5787 11.2505 10.9362
281 1 -1.1104 12.1677 9.91458 12.3545
282 2 2.2208 10.6161 8.44915 8.19654
284 1 -1.1104 12.0671 9.75363 9.54214
325 2 2.2208 10.6439 14.1729 8.19001
310 2 2.2208 2.39459 14.0109 10.9062
126 1 -1.1104 3.73192 18.2994 6.49854
302 1 -1.1104 1.02585 18.1631 6.7378
117 1 -1.1104 0.848547 15.3846 6.77542
133 1 -1.1104 3.82729 15.6957 6.97773
295 2 2.2208 5.23811 13.9998 8.22928
309 2 2.2208 2.21675 19.5424 10.8515
308 1 -1.1104 3.87947 15.5605 12.5046
307 1 -1.1104 0.69652 15.3954 12.2615
304 1 -1.1104 3.74039 15.4491 9.6648
303 2 2.2208 2.19604 16.9521 8.21671
301 1 -1.1104 3.63895 18.2563 9.43871
300 2 2.2208 5.02271 16.9233 11.0133
298 1 -1.1104 0.838745 18.2473 12.3481
286 1 -1.1104 3.71811 18.5449 12.133
293 2 2.2208 4.88618 19.8001 8.25546
292 1 -1.1104 1.00434 15.4661 9.44201
291 1 -1.1104 0.760336 18.1543 9.46107
329 1 -1.1104 12.0389 18.2955 12.5265
327 1 -1.1104 12.1955 18.2051 9.50486
321 1 -1.1104 9.29492 18.3202 12.2091
149 1 -1.1104 12.0599 15.5169 6.77005
316 2 2.2208 7.88246 19.6885 10.9987
163 1 -1.1104 9.24923 15.382 6.65434
145 1 -1.1104 12.1999 18.425 6.67515
320 2 2.2208 7.91677 17.0418 8.00234
314 1 -1.1104 9.46711 15.4441 9.50948
324 2 2.2208 10.7625 19.6411 8.05356
156 1 -1.1104 9.34767 18.219 6.7447
332 2 2.2208 13.3889 16.9767 8.02964
393 2 2.2208 4.85886 5.68949 -0.391593
336 2 2.2208 13.6639 19.574 5.21349
335 2 2.2208 13.3569 8.63231 4.92889
165 2 2.2208 13.3939 17.0602 2.49113
343 2 2.2208 -0.386257 8.40815 8.11629
232 2 2.2208 10.9184 -5.4282 10.9002
402 2 2.2208 13.4828 8.47128 -0.174551
355 2 2.2208 7.93941 0.114927 13.6077
377 2 2.2208 7.93175 14.0835 -0.422223
406 2 2.2208 5.36177 0.134894 16.5296
407 1 -1.1104 1.0737 -4.34764 18.1905
411 1 -1.1104 1.09617 -4.07937 15.065
419 1 -1.1104 1.1658 -1.42605 17.9852
421 2 2.2208 5.41995 -2.6895 19.2053
423 1 -1.1104 1.06141 -1.2119 15.2376
427 1 -1.1104 3.7852 -3.92131 18.0476
429 2 2.2208 2.62466 0.0382497 19.4526
430 1 -1.1104 3.91306 -3.87476 15.0861
434 2 2.2208 2.51049 -2.73809 16.513
436 1 -1.1104 4.07964 -1.28824 17.7782
437 1 -1.1104 3.74052 -1.36612 14.9676
415 1 -1.1104 6.54668 -4.00994 15.2642
409 1 -1.1104 6.55518 -4.13871 17.8305
701 1 -1.1104 9.21677 15.6141 23.7934
640 2 2.2208 2.60699 -5.46019 24.8891
438 1 -1.1104 4.28489 -1.23986 20.6698
416 1 -1.1104 6.96577 -4.03747 20.6839
365 2 2.2208 7.85269 11.0725 13.7614
346 2 2.2208 -0.301144 -2.68991 13.7595
371 2 2.2208 5.25086 14.1186 13.8475
425 1 -1.1104 6.5977 -1.38565 15.1455
420 1 -1.1104 6.81594 -1.42388 18.2604
449 2 2.2208 10.7951 0.17544 16.478
450 1 -1.1104 12.1199 -3.92405 17.7218
452 1 -1.1104 12.2589 -4.08079 14.9677
456 1 -1.1104 12.2005 -1.03711 17.9521
457 2 2.2208 10.793 -2.3395 19.3099
459 1 -1.1104 12.2581 -1.39283 15.1881
461 1 -1.1104 9.31031 -4.08382 17.9175
463 2 2.2208 8.14434 0.190478 19.4365
464 1 -1.1104 9.48326 -4.13631 15.2579
468 2 2.2208 8.00836 -2.82062 16.6157
470 1 -1.1104 9.40437 -1.14149 17.9525
471 1 -1.1104 9.40475 -1.29135 15.4115
643 2 2.2208 -0.366351 -0.134702 22.0641
360 2 2.2208 4.94891 8.63522 13.6908
605 2 2.2208 13.4702 16.9438 25.322
387 2 2.2208 10.6924 0.0833778 27.7475
408 1 -1.1104 1.17914 1.45932 17.8952
413 1 -1.1104 1.11075 1.61436 15.0083
422 2 2.2208 5.21209 2.91665 19.3302
428 1 -1.1104 3.79436 1.81699 17.8694
432 1 -1.1104 3.8371 1.36062 15.1008
435 2 2.2208 2.39308 2.87417 16.5357
482 2 2.2208 5.1718 5.68751 16.4397
484 1 -1.1104 0.900374 7.01777 17.9608
490 1 -1.1104 0.855244 4.18513 17.968
495 1 -1.1104 0.871929 4.2008 15.0216
504 2 2.2208 2.30814 5.51277 19.387
506 1 -1.1104 3.73934 6.96468 15.1263
509 1 -1.1104 3.68299 4.44587 17.7983
511 1 -1.1104 3.66733 4.22874 15.0308
503 1 -1.1104 3.83315 7.30304 18.1038
492 1 -1.1104 6.56861 4.24459 17.9617
486 1 -1.1104 0.891066 7.08614 15.1736
669 2 2.2208 8.31519 -5.43148 24.764
488 1 -1.1104 6.50946 7.17074 15.1156
499 1 -1.1104 6.44503 4.33722 15.1019
417 1 -1.1104 6.62644 1.48618 15.1252
485 1 -1.1104 6.48573 7.1443 17.7531
410 1 -1.1104 6.54065 1.39642 17.9333
451 1 -1.1104 12.3172 1.6186 17.7587
454 1 -1.1104 11.951 1.65632 15.2524
458 2 2.2208 10.9199 2.92705 19.2144
462 1 -1.1104 9.32189 1.52933 17.8398
466 1 -1.1104 9.09466 1.76132 14.9111
469 2 2.2208 7.90519 2.88494 16.5127
518 2 2.2208 10.7551 5.64129 16.5844
523 1 -1.1104 12.3561 4.36644 17.9904
526 1 -1.1104 11.7923 4.29832 15.0913
530 1 -1.1104 9.30886 7.13248 17.9736
531 2 2.2208 8.11827 5.61845 19.3743
533 1 -1.1104 9.43784 7.53546 15.143
536 1 -1.1104 9.32606 4.20531 17.8511
538 1 -1.1104 9.18311 4.60496 15.1839
606 2 2.2208 13.5794 19.7316 22.2791
521 1 -1.1104 12.1744 6.98647 15.2132
520 1 -1.1104 12.1429 7.15831 18.0762
534 1 -1.1104 9.58313 7.29112 20.9188
517 2 2.2208 13.5697 11.3208 19.3344
578 2 2.2208 13.6238 0.124461 19.3245
672 2 2.2208 13.5587 0.00497272 24.9595
483 2 2.2208 5.13029 11.4113 16.6091
491 1 -1.1104 1.09589 9.91774 17.7702
494 2 2.2208 5.09175 8.5403 19.4597
497 1 -1.1104 0.92866 9.95923 15.1418
505 2 2.2208 2.32885 11.2464 19.1846
508 2 2.2208 2.32994 8.33883 16.4242
510 1 -1.1104 3.84953 10.1406 17.8905
513 1 -1.1104 3.65905 9.9671 15.2705
546 1 -1.1104 0.753825 12.8243 17.8379
550 1 -1.1104 0.922136 12.6328 15.2019
566 1 -1.1104 3.72642 12.8394 17.9845
569 1 -1.1104 3.73434 12.9144 15.3162
352 2 2.2208 4.92703 2.79478 13.7869
493 1 -1.1104 6.6565 10.0449 18.001
446 2 2.2208 13.4486 2.76073 22.1081
479 2 2.2208 13.5466 16.8109 19.4729
554 1 -1.1104 6.58255 12.8395 15.2443
363 2 2.2208 7.8459 5.67323 13.7086
501 1 -1.1104 6.49475 9.94547 15.0838
548 1 -1.1104 6.63584 12.7771 17.9283
519 2 2.2208 10.7437 11.1641 16.5168
524 1 -1.1104 12.3004 10.0545 17.7912
525 2 2.2208 10.7968 8.65138 19.4386
528 1 -1.1104 12.1774 9.87611 14.9216
532 2 2.2208 7.88122 11.27 19.3854
535 2 2.2208 7.87318 8.55816 16.4999
537 1 -1.1104 9.39878 9.89727 18.0932
540 1 -1.1104 9.29362 10.212 15.3199
582 1 -1.1104 12.1074 12.7453 17.857
584 1 -1.1104 12.3922 12.8351 15.2223
593 1 -1.1104 9.21677 12.6863 18.0331
596 1 -1.1104 9.60069 12.8896 15.4166
443 2 2.2208 -0.329191 -2.62646 19.0754
362 2 2.2208 13.3239 11.334 13.7126
361 2 2.2208 2.30115 11.3704 13.8293
373 2 2.2208 10.8053 14.1886 13.8196
560 2 2.2208 5.067 13.9369 19.3542
573 2 2.2208 2.23055 14.0616 16.6261
545 2 2.2208 5.07533 16.8963 16.6419
547 1 -1.1104 0.938166 18.3193 17.797
552 1 -1.1104 0.734134 18.3802 15.101
558 1 -1.1104 0.829776 15.5236 17.8472
561 2 2.2208 5.02599 19.6168 19.1589
562 1 -1.1104 0.992496 15.5453 15.2773
567 1 -1.1104 3.67795 18.266 17.8077
568 2 2.2208 2.16767 16.7799 19.2662
571 1 -1.1104 3.83979 18.2621 14.9845
574 2 2.2208 1.94089 19.8245 16.4335
575 1 -1.1104 3.67615 15.6163 17.9449
576 1 -1.1104 3.5783 15.5575 15.0381
368 2 2.2208 2.34104 16.8821 13.6893
556 1 -1.1104 6.5465 18.5103 15.0653
478 2 2.2208 13.452 19.7893 16.5681
369 2 2.2208 4.85953 19.8476 13.9032
564 1 -1.1104 6.46597 15.5966 15.1717
549 1 -1.1104 6.4076 18.234 17.9009
356 2 2.2208 10.8406 -2.67215 13.8132
559 1 -1.1104 6.50227 15.3543 17.7213
589 2 2.2208 10.5978 14.1445 19.4539
600 2 2.2208 7.93946 14.1252 16.5912
581 2 2.2208 10.8005 17.0572 16.6273
583 1 -1.1104 12.2489 18.1825 18.2059
586 1 -1.1104 12.0857 18.4022 15.4484
588 1 -1.1104 12.4307 15.5617 18.0651
590 2 2.2208 10.7503 19.6868 19.411
591 1 -1.1104 12.057 15.6826 15.1709
594 1 -1.1104 9.40727 18.3312 17.7476
595 2 2.2208 7.91082 16.9143 19.262
598 1 -1.1104 9.44635 18.2997 15.0643
601 2 2.2208 7.70908 19.5977 16.5261
602 1 -1.1104 9.40601 15.5323 18.0498
603 1 -1.1104 9.30958 15.722 15.2017
440 2 2.2208 5.28653 -5.41928 16.5766
642 2 2.2208 -0.268191 -2.88632 24.9461
592 1 -1.1104 12.053 15.532 20.7435
726 2 2.2208 13.6385 11.2034 25.1441
704 1 -1.1104 9.38656 15.5185 26.6648
376 2 2.2208 7.72493 16.9293 13.9133
412 1 -1.1104 1.20087 -4.08826 20.737
424 1 -1.1104 1.20765 -1.3207 20.8939
431 1 -1.1104 4.34596 -3.96819 20.8676
609 2 2.2208 5.3396 0.0979594 22.2222
610 1 -1.1104 1.25139 -4.14569 23.5639
614 1 -1.1104 1.20386 -4.1124 26.2462
618 1 -1.1104 1.09946 -1.31194 23.7268
620 2 2.2208 5.20761 -2.57024 25.1481
622 1 -1.1104 0.944588 -1.47491 26.5588
624 1 -1.1104 4.04381 -4.09181 23.7022
626 2 2.2208 2.27603 -0.0281274 25.0952
627 1 -1.1104 3.80137 -4.15487 26.3193
629 2 2.2208 2.71391 -2.92526 22.0528
631 1 -1.1104 3.70381 -1.38575 23.7005
632 1 -1.1104 3.85982 -1.05167 26.4648
426 1 -1.1104 7.05457 -1.12231 21.0251
359 2 2.2208 2.28875 5.57526 13.8307
579 2 2.2208 13.6082 2.9424 16.336
623 1 -1.1104 6.4953 -1.19185 26.5694
460 1 -1.1104 12.3461 -1.14581 20.6655
616 1 -1.1104 6.66933 -3.97762 26.8548
472 1 -1.1104 9.74401 -1.06789 20.9202
465 1 -1.1104 9.71361 -3.84622 20.771
453 1 -1.1104 12.3397 -4.3054 20.6437
612 1 -1.1104 6.56358 -4.08705 23.6095
619 1 -1.1104 6.6014 -1.14978 23.8408
645 2 2.2208 10.7008 0.207544 22.2846
646 1 -1.1104 12.3514 -4.07684 23.6647
648 1 -1.1104 12.4277 -4.24268 26.5086
650 1 -1.1104 12.1915 -1.27232 23.5208
651 2 2.2208 10.8353 -2.77577 24.8709
653 1 -1.1104 12.1241 -1.3131 26.2151
654 1 -1.1104 9.49484 -4.05486 23.5276
656 2 2.2208 7.8517 0.190497 25.2365
657 1 -1.1104 9.65091 -3.96836 26.3133
659 2 2.2208 8.05165 -2.56588 22.2341
661 1 -1.1104 9.45614 -1.1873 23.8675
662 1 -1.1104 9.34015 -1.33991 26.435
747 1 -1.1104 6.34962 15.2855 23.5678
364 2 2.2208 10.8872 8.4814 13.7082
543 2 2.2208 13.6556 8.46189 16.3802
442 2 2.2208 -0.288799 -0.0682404 16.5366
633 1 -1.1104 12.0118 18.3193 23.7649
487 1 -1.1104 0.726815 6.95635 20.5835
507 1 -1.1104 3.60083 7.03788 20.8144
496 1 -1.1104 0.901318 4.05562 20.4838
433 1 -1.1104 3.91664 1.50871 20.9332
414 1 -1.1104 1.21916 1.48895 20.7535
512 1 -1.1104 3.7125 4.13514 20.5065
611 1 -1.1104 0.761112 1.56082 23.4248
615 1 -1.1104 0.885293 1.61003 26.2573
621 2 2.2208 4.95487 2.89918 24.9434
625 1 -1.1104 3.48767 1.53538 23.7103
628 1 -1.1104 3.70154 1.4855 26.3857
630 2 2.2208 2.3787 2.77096 22.0587
674 2 2.2208 5.01711 5.82213 22.3057
678 1 -1.1104 0.808564 6.99431 26.2448
680 1 -1.1104 0.97882 4.2722 23.7642
685 1 -1.1104 0.690865 4.15825 26.2905
689 1 -1.1104 3.49427 7.18369 23.5709
690 2 2.2208 2.39836 5.73371 25.0558
692 1 -1.1104 3.57393 7.19745 26.3346
694 1 -1.1104 3.73364 4.2793 23.5319
696 1 -1.1104 3.59643 4.32563 26.4785
676 1 -1.1104 0.653191 6.98488 23.2861
418 1 -1.1104 6.67194 1.54425 20.7219
617 1 -1.1104 6.50336 1.66283 26.5765
677 1 -1.1104 6.12529 7.13966 23.639
489 1 -1.1104 6.50192 6.86729 20.6106
687 1 -1.1104 6.24978 4.33494 26.4524
679 1 -1.1104 6.53717 7.27243 26.5111
467 1 -1.1104 9.39374 1.75298 20.8041
522 1 -1.1104 12.3756 7.24951 20.8941
500 1 -1.1104 6.68801 4.35277 20.7153
613 1 -1.1104 6.30587 1.42327 23.6905
527 1 -1.1104 12.2502 4.45844 20.8473
539 1 -1.1104 9.56591 4.39054 20.7277
682 1 -1.1104 6.52574 4.44209 23.6367
455 1 -1.1104 12.0464 1.36613 20.9191
647 1 -1.1104 12.0646 1.57466 23.7859
649 1 -1.1104 12.022 1.54888 26.4326
652 2 2.2208 10.6572 3.01954 24.9935
655 1 -1.1104 9.16059 1.68995 23.6881
658 1 -1.1104 9.1495 1.4318 26.4823
660 2 2.2208 8.01014 2.97233 22.0757
706 1 -1.1104 9.17454 4.36895 26.3329
708 1 -1.1104 9.2128 4.45363 23.5966
712 2 2.2208 7.80397 5.85858 25.0197
713 2 2.2208 10.7393 5.70344 22.3048
715 1 -1.1104 12.214 7.16437 23.7725
716 1 -1.1104 12.0827 7.23868 26.3573
717 1 -1.1104 12.1346 4.3022 23.7362
720 1 -1.1104 12.1621 4.26753 26.5464
722 1 -1.1104 9.10526 7.32924 23.6723
710 1 -1.1104 9.55498 7.09151 26.5814
667 2 2.2208 7.8961 16.7624 25.1642
599 1 -1.1104 9.38606 18.2336 20.7474
638 2 2.2208 10.719 14.1678 25.1477
670 1 -1.1104 6.34365 18.2763 26.3593
736 1 -1.1104 6.46187 18.1242 23.6577
498 1 -1.1104 0.952048 9.83506 20.7122
514 1 -1.1104 3.52374 9.71271 20.5812
551 1 -1.1104 1.00186 12.7348 20.6762
570 1 -1.1104 3.78836 12.4306 20.6314
675 2 2.2208 4.87494 11.0619 22.1089
681 1 -1.1104 0.721529 10.0342 23.5158
684 2 2.2208 4.94974 8.58795 25.0288
686 1 -1.1104 0.779323 9.78392 26.3853
691 2 2.2208 2.12631 11.2848 24.9984
693 2 2.2208 2.20017 8.44308 22.0299
695 1 -1.1104 3.48803 9.75562 23.687
697 1 -1.1104 3.3202 9.85354 26.5946
731 1 -1.1104 3.57624 12.4354 23.4701
735 1 -1.1104 0.481557 12.652 26.4641
741 1 -1.1104 0.798592 12.6364 23.5225
746 1 -1.1104 3.39383 12.7469 26.3367
739 1 -1.1104 6.56745 12.3435 23.5709
502 1 -1.1104 6.41614 9.73169 21.0008
730 1 -1.1104 6.51305 12.6155 26.2166
665 1 -1.1104 9.20939 18.2651 23.6864
732 1 -1.1104 6.49849 15.468 26.3923
555 1 -1.1104 6.46794 12.7032 20.8626
688 1 -1.1104 6.19356 10.0684 26.4129
541 1 -1.1104 9.40051 10.0638 20.8452
683 1 -1.1104 6.42858 9.75586 23.7358
585 1 -1.1104 11.9851 12.698 20.7494
597 1 -1.1104 9.13908 12.6592 20.7746
529 1 -1.1104 12.1132 9.84012 20.6744
608 1 -1.1104 12.1104 12.532 23.7291
673 1 -1.1104 9.12939 12.6405 26.569
664 1 -1.1104 9.38626 12.8858 23.6204
705 1 -1.1104 9.14226 9.97488 26.5855
707 1 -1.1104 9.29743 10.0578 23.5691
709 2 2.2208 7.97812 8.40207 22.0384
711 2 2.2208 7.88186 11.2821 25.0174
714 2 2.2208 10.6869 11.4295 22.2879
718 1 -1.1104 12.004 9.91487 23.6143
719 2 2.2208 10.6616 8.60223 25.1087
721 1 -1.1104 12.324 9.90832 26.575
634 1 -1.1104 12.2438 12.6798 26.5192
699 2 2.2208 7.94866 14.0198 22.2525
565 1 -1.1104 6.35216 15.6859 20.7188
557 1 -1.1104 6.7479 18.2257 20.5643
577 1 -1.1104 3.56538 15.3793 20.8632
553 1 -1.1104 0.723442 18.3073 20.6205
572 1 -1.1104 3.70862 17.9962 20.7158
563 1 -1.1104 0.693218 15.6186 20.783
727 2 2.2208 2.15425 14.1474 22.1669
738 2 2.2208 5.06064 13.8981 25.0923
750 2 2.2208 2.26628 19.4282 22.1594
749 1 -1.1104 3.51034 15.1603 23.7106
748 1 -1.1104 0.736334 15.4684 23.6817
729 1 -1.1104 3.54856 18.0465 23.6358
733 1 -1.1104 0.872706 18.5465 26.3909
734 1 -1.1104 0.798534 15.578 26.4392
737 2 2.2208 5.02494 19.5337 24.9024
740 1 -1.1104 0.877452 18.0845 23.4338
742 2 2.2208 5.13828 16.8893 22.2733
743 1 -1.1104 3.49449 18.4099 26.2628
744 2 2.2208 2.20747 16.9709 25.0079
745 1 -1.1104 3.77894 15.4803 26.3793
587 1 -1.1104 12.2307 18.216 21.065
641 2 2.2208 10.7646 19.8114 25.0643
635 1 -1.1104 12.1748 18.3496 26.5932
604 1 -1.1104 9.29701 15.5066 20.9862
607 2 2.2208 10.736 16.9607 22.4197
698 1 -1.1104 9.34778 18.2437 26.3713
700 2 2.2208 7.95328 19.6291 22.1878
636 1 -1.1104 12.0995 15.6149 23.7691
663 1 -1.1104 12.0882 15.3929 26.5623
580 2 2.2208 13.4045 14.4029 22.3844
380 2 2.2208 13.5338 16.9052 14.0164
348 2 2.2208 5.30904 -2.68945 13.738
372 2 2.2208 10.7803 19.6602 13.8908
351 2 2.2208 -0.413792 14.0282 13.7667
474 2 2.2208 11.0274 -5.4406 16.496
404 2 2.2208 5.10432 16.6882 27.7767
379 2 2.2208 8.02125 19.7284 27.7726
398 2 2.2208 10.7198 5.52858 27.6865
367 2 2.2208 -0.416399 2.82313 13.7053
515 2 2.2208 -0.42335 8.39913 19.3126
439 2 2.2208 -0.248542 -5.44067 16.5022
403 2 2.2208 2.17808 14.0614 27.7832
353 2 2.2208 8.05373 -5.41578 13.7575
405 2 2.2208 2.17182 19.6423 27.7694
383 2 2.2208 2.21716 3.00136 27.7166
751 2 2.2208 5.11942 22.6466 5.31696
753 1 -1.1104 0.811956 23.9069 1.18067
754 1 -1.1104 0.610346 23.825 3.92075
755 1 -1.1104 0.950011 21.0813 1.10493
757 2 2.2208 5.1985 25.5267 2.52567
758 1 -1.1104 0.677491 21.0906 4.06277
760 1 -1.1104 3.74306 24.0927 1.45702
761 2 2.2208 2.34032 22.5587 2.41376
763 1 -1.1104 3.4807 23.8895 4.21176
764 2 2.2208 2.25724 25.3898 5.3652
765 1 -1.1104 3.77762 21.2077 0.791219
767 1 -1.1104 3.46483 21.049 3.78533
759 1 -1.1104 1.02757 26.6583 3.98923
1486 1 -1.1104 6.53037 46.5431 4.23307
1128 2 2.2208 10.8435 28.1216 0.055828
773 1 -1.1104 6.51866 24.1235 3.91609
766 1 -1.1104 4.03299 26.8556 0.924368
768 1 -1.1104 3.9181 26.8179 3.74095
756 1 -1.1104 0.756537 26.6504 1.0888
775 1 -1.1104 6.61979 26.6276 1.15948
898 1 -1.1104 3.57449 24.0657 6.90215
1084 1 -1.1104 6.30756 46.1123 12.7438
1087 1 -1.1104 8.91118 46.3507 6.68181
772 1 -1.1104 6.41506 23.9999 1.22427
1070 2 2.2208 13.5107 42.2259 5.40631
776 1 -1.1104 6.15258 20.9777 4.02292
774 1 -1.1104 6.48931 21.095 1.01581
778 2 2.2208 10.6594 22.3787 5.40813
780 1 -1.1104 12.0495 23.8813 1.11001
781 1 -1.1104 11.8832 24.0231 4.07844
782 1 -1.1104 12.0354 21.2852 1.19552
784 2 2.2208 10.585 25.18 2.58347
785 1 -1.1104 12.0867 21.1239 4.05252
787 1 -1.1104 9.14904 23.941 1.23466
788 2 2.2208 7.70985 22.6685 2.39866
790 1 -1.1104 9.13431 23.8349 4.01818
791 2 2.2208 7.92983 25.3507 5.37127
794 1 -1.1104 9.10522 21.096 3.83839
792 1 -1.1104 9.20368 21.123 0.821865
793 1 -1.1104 9.27186 26.6913 1.18755
797 2 2.2208 13.6526 28.0882 2.72345
783 1 -1.1104 12.4151 26.5978 1.0885
786 1 -1.1104 12.3246 26.6359 3.89831
795 1 -1.1104 9.44169 26.6802 4.03861
777 1 -1.1104 6.69589 26.7898 4.15083
1130 2 2.2208 2.23417 30.9371 -0.155053
1677 1 -1.1104 3.7302 46.5041 7.10996
752 2 2.2208 5.19086 28.2755 5.40461
762 2 2.2208 2.40625 28.2448 2.56897
800 1 -1.1104 0.751783 29.2771 1.17747
803 1 -1.1104 0.854698 29.5694 3.8077
806 1 -1.1104 0.897281 32.2122 1.3389
807 2 2.2208 5.14068 31.1462 2.64107
809 1 -1.1104 0.53952 32.313 4.21387
811 1 -1.1104 3.63175 29.6384 1.13242
814 1 -1.1104 3.79752 29.7074 4.01372
816 2 2.2208 2.24699 31.1157 5.50827
818 1 -1.1104 3.60764 32.5633 1.2212
819 1 -1.1104 3.60947 32.3806 4.1517
824 1 -1.1104 6.67877 29.4972 4.08188
810 1 -1.1104 6.53874 32.4233 4.04179
825 1 -1.1104 6.50663 32.3908 1.07228
1063 1 -1.1104 12.3286 40.8269 9.53181
823 1 -1.1104 6.39374 29.4716 1.16331
796 2 2.2208 13.4693 22.4795 2.50822
779 2 2.2208 10.6835 28.0682 5.53534
789 2 2.2208 7.91886 28.1248 2.57862
827 1 -1.1104 12.1881 29.6066 1.22344
829 1 -1.1104 12.103 29.3889 4.05357
831 1 -1.1104 12.2172 32.3427 1.25635
832 2 2.2208 10.8156 30.9665 2.63682
834 1 -1.1104 12.2446 32.4127 4.03289
835 1 -1.1104 9.16997 29.5731 1.26398
838 1 -1.1104 9.26531 29.2805 4.05625
840 2 2.2208 7.90911 30.8126 5.58481
842 1 -1.1104 9.34362 32.3569 1.09133
843 1 -1.1104 9.63326 32.268 4.03332
1693 1 -1.1104 3.66776 46.4794 12.5919
1135 2 2.2208 7.74544 30.9226 -0.408013
1119 2 2.2208 2.24719 25.3999 -0.135368
1125 2 2.2208 10.7334 22.5392 -0.336383
1127 2 2.2208 13.5081 25.2482 -0.333019
1129 2 2.2208 2.4672 36.6153 -0.262304
1139 2 2.2208 5.13255 39.3757 -0.149682
799 2 2.2208 5.23506 33.8274 5.39598
813 2 2.2208 2.36158 33.7496 2.56297
801 1 -1.1104 0.626891 34.9665 1.27638
804 1 -1.1104 0.860564 35.2661 4.03464
808 2 2.2208 5.18402 36.7914 2.53501
812 1 -1.1104 3.95901 35.3351 1.24174
815 1 -1.1104 3.78866 35.1223 4.14699
817 2 2.2208 2.44395 36.612 5.48157
845 2 2.2208 5.12638 39.4219 5.53137
851 1 -1.1104 1.09609 37.9082 1.25902
856 1 -1.1104 1.03603 38.0836 4.25614
861 2 2.2208 2.45606 39.4571 2.42931
865 1 -1.1104 3.76115 38.1002 0.968191
867 1 -1.1104 3.97513 38.1104 3.75066
858 1 -1.1104 6.55654 37.8951 4.1147
853 1 -1.1104 6.72043 37.9709 1.19904
802 1 -1.1104 6.6682 35.1334 1.20834
805 1 -1.1104 6.50506 35.1834 3.97608