ITEM: TIMESTEP
40000
ITEM: NUMBER OF ATOMS
17760
ITEM: BOX BOUNDS pp pp pp
-4.5863926906096686e-01 2.7798639269061180e+01
-5.4675498536831855e+00 3.3354754985368550e+02
-4.4300174327371022e-01 2.7783001743274085e+01
ITEM: ATOMS id type q x y z
1 2 2.2208 5.04831 0.0468528 5.13634
2 1 -1.1104 0.634158 -3.94988 0.56372
6 1 -1.1104 1.0247 -3.85598 3.56763
10 1 -1.1104 0.84998 -1.26639 1.01606
12 2 2.2208 5.00206 -2.55631 2.23647
14 1 -1.1104 0.894967 -1.16641 3.71791
16 1 -1.1104 3.50413 -4.02479 0.848115
18 2 2.2208 2.25786 0.152891 2.27576
19 1 -1.1104 3.89747 -3.96371 3.82391
21 2 2.2208 2.34261 -2.69216 5.02398
23 1 -1.1104 3.46567 -1.30656 1.04066
24 1 -1.1104 3.84376 -1.19572 3.75884
170 1 -1.1104 0.907656 -1.38963 6.72505
174 1 -1.1104 3.61646 -1.41866 6.44787
166 1 -1.1104 0.616665 -4.11339 6.44171
172 1 -1.1104 3.51778 -4.2984 6.47813
8 1 -1.1104 6.49037 -4.25266 3.54036
15 1 -1.1104 6.50588 -1.21802 3.53648
11 1 -1.1104 6.42797 -0.894336 0.77822
168 1 -1.1104 6.42215 -4.09479 6.26129
347 2 2.2208 2.26801 -5.44399 13.3619
361 2 2.2208 2.45476 11.2485 13.6129
372 2 2.2208 10.7317 19.9953 13.6005
4 1 -1.1104 6.14065 -3.86894 0.763232
31 2 2.2208 10.8013 0.345743 5.20898
32 1 -1.1104 11.9672 -4.06631 0.869216
34 1 -1.1104 12.0058 -3.97764 3.69688
36 1 -1.1104 12.0175 -1.11342 0.504941
37 2 2.2208 10.5894 -2.71004 2.41069
39 1 -1.1104 11.9166 -1.29781 3.59541
40 1 -1.1104 9.15011 -3.87164 0.900564
42 2 2.2208 8.00102 0.282328 2.32068
43 1 -1.1104 9.33311 -4.36321 3.58475
45 2 2.2208 7.94637 -2.96472 4.93233
47 1 -1.1104 9.45348 -1.3176 0.918689
48 1 -1.1104 9.37139 -1.38158 3.88282
205 1 -1.1104 12.0674 -4.21031 6.43534
207 1 -1.1104 12.1811 -1.19318 6.3315
208 1 -1.1104 9.41637 -4.09629 6.30939
360 2 2.2208 5.03444 8.42744 13.5347
362 2 2.2208 13.59 11.383 13.5858
3 1 -1.1104 0.76665 1.71305 0.848001
7 1 -1.1104 0.882689 1.57862 3.7996
13 2 2.2208 5.22828 2.93783 2.42789
17 1 -1.1104 3.69551 1.45478 0.824788
20 1 -1.1104 3.7246 1.47381 3.87065
22 2 2.2208 2.43903 2.78417 5.12591
54 2 2.2208 5.23466 5.82121 5.05495
60 1 -1.1104 1.01384 4.40215 0.895116
67 1 -1.1104 0.999829 4.19659 3.46393
71 1 -1.1104 3.91083 7.11617 1.05481
72 2 2.2208 2.42608 5.72113 2.23514
74 1 -1.1104 3.82913 7.19462 3.67898
76 1 -1.1104 3.79592 4.30569 0.93118
79 1 -1.1104 3.96542 4.28713 3.85671
56 1 -1.1104 0.843379 7.18383 0.816809
58 1 -1.1104 1.03082 6.92336 3.6547
239 1 -1.1104 4.00069 4.29607 6.67606
173 1 -1.1104 3.67464 1.37424 6.68965
238 1 -1.1104 3.89791 7.14722 6.59149
167 1 -1.1104 0.773298 1.43012 6.46629
59 1 -1.1104 6.51701 7.35695 3.53819
63 1 -1.1104 6.64137 4.35513 1.03638
57 1 -1.1104 6.82125 7.09595 0.713844
9 1 -1.1104 6.63455 1.74001 3.65268
5 1 -1.1104 6.69512 1.63528 0.826049
237 1 -1.1104 6.67401 4.40546 6.52237
236 1 -1.1104 1.1917 4.09193 6.56405
69 1 -1.1104 6.7478 4.37793 3.70397
33 1 -1.1104 12.1111 1.65567 0.749886
35 1 -1.1104 12.1257 1.73181 3.53783
38 2 2.2208 10.8005 3.02458 2.20909
41 1 -1.1104 9.28901 1.59893 0.949
44 1 -1.1104 9.41646 1.54295 3.7625
46 2 2.2208 8.10022 2.99712 5.08669
84 2 2.2208 10.8239 5.87212 5.06765
86 1 -1.1104 12.0988 7.32094 0.645991
87 1 -1.1104 12.1746 7.37711 3.42858
88 1 -1.1104 11.991 4.51202 0.444601
92 1 -1.1104 12.187 4.51698 3.54301
94 1 -1.1104 9.43625 7.49635 0.999928
95 2 2.2208 8.20372 5.89453 2.27242
97 1 -1.1104 9.41181 7.25043 3.68794
99 1 -1.1104 9.35484 4.34521 0.858063
102 1 -1.1104 9.49753 4.30148 3.74671
209 1 -1.1104 9.36214 1.52268 6.51806
235 1 -1.1104 6.66241 7.2194 6.22595
266 1 -1.1104 12.1685 4.39174 6.39111
269 1 -1.1104 9.533 4.25923 6.42555
206 1 -1.1104 12.3451 1.82293 6.3112
169 1 -1.1104 6.59426 1.58791 6.49721
267 1 -1.1104 9.27646 7.16783 6.35073
55 2 2.2208 5.02751 11.4512 5.06618
61 1 -1.1104 0.950521 9.84587 0.710596
66 2 2.2208 5.17121 8.64387 2.19508
68 1 -1.1104 1.12852 9.75292 3.64345
73 2 2.2208 2.18428 11.3289 2.11202
75 2 2.2208 2.25398 8.56179 5.11504
77 1 -1.1104 3.68697 9.90488 0.88128
80 1 -1.1104 3.71293 10.0933 3.64375
107 1 -1.1104 1.04545 12.7964 0.985387
113 1 -1.1104 0.938277 12.703 3.54902
123 1 -1.1104 3.81305 12.7673 0.82037
128 1 -1.1104 3.64491 12.8438 3.77186
78 1 -1.1104 3.50803 10.0033 6.34498
62 1 -1.1104 0.743801 10.1297 6.36447
124 1 -1.1104 3.72599 12.7573 6.55713
108 1 -1.1104 0.855704 13.0083 6.28395
64 1 -1.1104 6.60165 10.0109 0.811436
115 1 -1.1104 6.44985 12.9078 3.70055
313 2 2.2208 -0.459852 14.2937 7.72769
110 1 -1.1104 6.33396 12.7642 0.725976
65 1 -1.1104 6.2188 9.95715 6.62638
70 1 -1.1104 6.46788 10.1711 3.64898
85 2 2.2208 10.6466 11.4623 5.06555
89 1 -1.1104 12.4304 9.89719 0.96658
91 2 2.2208 10.8077 8.7251 2.1998
93 1 -1.1104 12.1862 10.2436 3.77117
96 2 2.2208 7.93859 11.5498 2.24466
98 2 2.2208 7.86768 8.72014 4.90266
100 1 -1.1104 9.47812 10.1296 0.624932
103 1 -1.1104 9.20477 9.95804 3.46712
142 1 -1.1104 12.0708 12.74 1.02354
146 1 -1.1104 12.0486 12.8047 3.85453
153 1 -1.1104 9.39962 12.9621 0.783963
158 1 -1.1104 9.23687 12.793 3.53503
90 1 -1.1104 12.2308 10.0766 6.36395
143 1 -1.1104 12.0126 12.8909 6.54394
111 1 -1.1104 6.42875 12.8133 6.4639
154 1 -1.1104 9.14462 12.9557 6.20892
101 1 -1.1104 9.15743 10.063 6.36919
104 2 2.2208 13.6646 11.4138 2.17582
105 2 2.2208 13.5418 5.96459 2.13275
136 2 2.2208 -0.443293 19.9571 2.34445
119 2 2.2208 5.13411 14.3439 2.3562
130 2 2.2208 2.38561 14.2553 5.22127
106 2 2.2208 5.13661 17.2989 5.20137
109 1 -1.1104 0.769581 18.547 0.794507
114 1 -1.1104 0.96999 18.5296 3.78279
116 1 -1.1104 0.936788 15.6378 0.837743
120 2 2.2208 5.05659 19.8135 2.18673
121 1 -1.1104 0.877902 15.5991 3.60798
125 1 -1.1104 3.62962 18.8487 0.853325
127 2 2.2208 2.08966 17.1677 2.41402
129 1 -1.1104 3.84338 18.4615 3.55994
131 2 2.2208 2.17805 20.0769 5.21729
132 1 -1.1104 3.81955 15.5977 0.955769
134 1 -1.1104 3.72001 15.6992 3.83934
302 1 -1.1104 0.620747 18.3723 6.5852
139 1 -1.1104 6.5186 18.4779 3.62574
122 1 -1.1104 6.50437 15.5788 3.82337
118 1 -1.1104 6.57267 15.7169 6.62358
373 2 2.2208 10.8734 14.4834 13.5338
355 2 2.2208 7.94095 -0.0970397 13.6113
331 2 2.2208 10.6666 17.1385 10.673
138 1 -1.1104 6.44826 18.5462 0.659328
140 1 -1.1104 6.60169 15.6656 0.893853
160 2 2.2208 7.80504 14.2152 5.0489
150 2 2.2208 10.7164 14.1602 2.32993
141 2 2.2208 10.9059 17.0255 5.17535
144 1 -1.1104 12.2846 18.6277 0.868626
147 1 -1.1104 12.2608 18.4871 3.71215
148 1 -1.1104 12.1875 15.796 0.941213
151 2 2.2208 10.8535 20.0041 2.31319
152 1 -1.1104 12.4051 15.5533 3.94066
155 1 -1.1104 9.38942 18.6764 0.703168
157 2 2.2208 8.09436 17.2902 2.24946
159 1 -1.1104 9.52321 18.468 3.53065
161 2 2.2208 7.89913 19.9214 5.27296
162 1 -1.1104 9.22262 15.7812 0.865192
164 1 -1.1104 9.63302 15.5997 3.75296
145 1 -1.1104 12.1344 18.5731 6.67295
163 1 -1.1104 9.23577 15.8157 6.36163
112 1 -1.1104 6.52028 18.3495 6.5904
156 1 -1.1104 9.42493 18.5502 6.45117
327 1 -1.1104 12.2322 18.2333 9.23078
363 2 2.2208 8.03502 5.83427 13.4846
171 1 -1.1104 6.58132 -1.25305 6.39835
28 2 2.2208 2.38853 -5.43727 2.28308
348 2 2.2208 5.03034 -2.48945 13.4721
175 2 2.2208 5.18181 0.0116616 10.7998
176 1 -1.1104 0.777061 -4.07141 12.1333
180 1 -1.1104 0.748109 -4.15512 9.31813
184 1 -1.1104 0.849386 -1.34096 12.2809
186 2 2.2208 4.84019 -2.71788 8.05095
188 1 -1.1104 0.70429 -1.35476 9.36086
190 1 -1.1104 3.72914 -4.2642 11.9112
192 2 2.2208 2.27114 -0.022135 8.05765
193 1 -1.1104 3.44169 -4.32441 9.15072
195 2 2.2208 2.19032 -2.81808 10.7185
197 1 -1.1104 3.58072 -1.20311 12.1326
198 1 -1.1104 3.58466 -1.44444 9.34128
165 2 2.2208 13.5564 16.9655 2.29351
185 1 -1.1104 6.49165 -1.56103 12.0053
178 1 -1.1104 6.48628 -4.08592 11.8659
182 1 -1.1104 6.34593 -4.13809 9.06944
229 2 2.2208 13.65 0.170894 7.80445
332 2 2.2208 13.6446 17.1524 7.88643
210 1 -1.1104 9.34647 -1.24088 6.49657
335 2 2.2208 13.5402 8.81325 5.13487
189 1 -1.1104 6.47364 -1.30607 9.25737
211 2 2.2208 10.8647 0.0607068 10.5891
212 1 -1.1104 12.2397 -4.03056 12.0534
214 1 -1.1104 12.1319 -3.98088 9.27056
216 1 -1.1104 12.3472 -1.34413 12.2307
217 2 2.2208 10.8307 -2.65121 7.76201
219 1 -1.1104 12.1162 -1.12348 9.17723
220 1 -1.1104 9.28687 -3.89944 12.03
222 2 2.2208 7.97615 0.039543 7.74657
223 1 -1.1104 9.15767 -4.2298 9.17636
225 2 2.2208 7.79139 -2.79037 10.5002
227 1 -1.1104 9.5244 -1.06275 12.1186
228 1 -1.1104 9.27392 -1.47534 9.35014
339 2 2.2208 13.5641 5.97334 7.66029
317 2 2.2208 8.26843 14.2639 10.7409
370 2 2.2208 13.5632 0.225008 13.495
356 2 2.2208 10.7389 -2.62233 13.3531
234 1 -1.1104 0.939062 7.02283 6.55833
177 1 -1.1104 0.941795 1.42981 11.9141
181 1 -1.1104 1.04267 1.6338 9.15527
187 2 2.2208 5.15713 2.67512 7.95729
191 1 -1.1104 3.76709 1.60218 12.3162
194 1 -1.1104 3.73305 1.35911 9.42458
196 2 2.2208 2.28277 2.92063 10.661
240 2 2.2208 5.32135 5.63261 10.4677
244 1 -1.1104 1.02573 7.09536 9.29167
246 1 -1.1104 0.827743 4.30481 12.0566
251 1 -1.1104 0.858418 4.43995 9.3652
255 1 -1.1104 3.99687 6.82605 12.2542
256 2 2.2208 2.44132 5.85374 7.75553
260 1 -1.1104 3.70329 4.12036 12.0538
262 1 -1.1104 3.67836 4.31672 9.37162
258 1 -1.1104 3.9899 6.9958 9.48448
242 1 -1.1104 0.984576 6.93641 12.2142
183 1 -1.1104 6.4924 1.30805 9.25074
253 1 -1.1104 6.53377 4.05235 9.30615
359 2 2.2208 2.39582 5.81996 13.6164
337 2 2.2208 13.5597 14.0687 5.11225
265 1 -1.1104 12.101 7.26752 6.28568
325 2 2.2208 10.6783 14.2493 7.72867
248 1 -1.1104 6.52494 4.23291 12.1331
245 1 -1.1104 6.78999 7.29795 9.13062
342 2 2.2208 -0.270937 11.501 10.6004
243 1 -1.1104 6.7688 6.93574 11.954
179 1 -1.1104 6.67956 1.206 12.1144
213 1 -1.1104 12.1925 1.79799 12.0501
215 1 -1.1104 12.5127 1.56412 9.19102
218 2 2.2208 10.793 3.04344 7.92406
221 1 -1.1104 9.39919 1.832 12.0088
224 1 -1.1104 9.42184 1.7769 9.2491
226 2 2.2208 7.90796 2.81817 10.6429
268 1 -1.1104 9.3663 4.71129 9.15205
271 1 -1.1104 9.23068 4.44373 12.0256
273 1 -1.1104 9.44271 7.25486 9.29048
275 2 2.2208 8.07965 6.03354 7.76653
276 2 2.2208 10.9486 5.9282 10.578
278 1 -1.1104 12.4174 7.09532 12.0179
279 1 -1.1104 12.1654 7.4851 9.0693
280 1 -1.1104 12.274 4.44294 12.0252
283 1 -1.1104 12.0755 4.57552 9.26603
285 1 -1.1104 9.66997 7.36677 12.0123
320 2 2.2208 7.95123 17.0532 8.05656
336 2 2.2208 13.6442 20.0335 5.05261
318 1 -1.1104 9.31823 18.57 9.29222
53 2 2.2208 13.5455 -5.33716 2.15533
305 1 -1.1104 3.92785 12.6263 9.31407
287 1 -1.1104 3.928 12.8275 12.3545
299 1 -1.1104 1.18238 12.7137 12.1051
294 1 -1.1104 1.08926 13.0656 9.22993
241 2 2.2208 5.28555 11.5516 10.8885
247 1 -1.1104 1.11463 9.84921 12.0386
250 2 2.2208 5.19812 8.63073 7.90334
252 1 -1.1104 1.03066 10.2161 9.26934
257 2 2.2208 2.35087 11.3019 7.91391
259 2 2.2208 2.22479 8.43298 10.8108
261 1 -1.1104 3.85262 9.78239 12.2314
263 1 -1.1104 3.80416 9.8875 9.17399
295 2 2.2208 5.24417 14.2212 8.03929
254 1 -1.1104 6.54133 10.1644 9.50438
290 1 -1.1104 6.68794 12.9474 9.5909
364 2 2.2208 10.8332 8.51542 13.4272
357 2 2.2208 10.7951 3.21009 13.4731
297 1 -1.1104 6.63947 12.773 12.2203
249 1 -1.1104 6.54731 9.79032 12.289
330 1 -1.1104 12.3945 12.9914 12.1928
328 1 -1.1104 12.2639 12.7185 9.31147
322 1 -1.1104 9.6186 12.8303 12.1249
319 1 -1.1104 9.42389 12.7859 9.00573
264 1 -1.1104 9.36201 10.0561 9.36421
270 1 -1.1104 9.40012 9.94724 12.1354
272 2 2.2208 7.97651 8.56389 10.7542
274 2 2.2208 7.81045 11.5448 7.81631
277 2 2.2208 10.7506 11.4227 10.6693
281 1 -1.1104 12.1732 10.0061 12.1724
282 2 2.2208 10.6907 8.69777 7.6967
284 1 -1.1104 12.1716 9.96005 9.19696
365 2 2.2208 8.07081 11.3438 13.5881
137 2 2.2208 -0.373574 16.9528 5.16451
333 2 2.2208 13.6544 14.0709 10.6082
296 1 -1.1104 6.45348 18.5236 12.0612
133 1 -1.1104 3.82772 15.7647 6.71344
117 1 -1.1104 0.972529 15.6924 6.50394
306 1 -1.1104 6.36129 15.7393 12.3422
50 2 2.2208 13.4771 -2.76063 5.19002
321 1 -1.1104 9.40478 18.5103 12.1771
310 2 2.2208 2.47821 14.1565 10.8241
349 2 2.2208 2.18761 0.156509 13.6448
126 1 -1.1104 3.62293 18.4895 6.53483
309 2 2.2208 2.28299 19.7762 10.9723
308 1 -1.1104 3.63483 15.6023 12.2153
307 1 -1.1104 0.882772 15.5134 12.2862
304 1 -1.1104 3.84321 15.4498 9.52218
303 2 2.2208 2.28971 17.0871 7.97517
301 1 -1.1104 3.69631 18.3263 9.4852
300 2 2.2208 5.15641 17.0256 10.7121
298 1 -1.1104 0.709493 18.4386 12.1631
286 1 -1.1104 3.73999 18.3853 12.3184
293 2 2.2208 4.99158 19.9461 8.02718
292 1 -1.1104 0.9715 15.8156 9.29923
291 1 -1.1104 0.937174 18.783 9.32248
368 2 2.2208 2.22021 17.038 13.4823
316 2 2.2208 7.86533 19.933 10.9073
149 1 -1.1104 12.2336 15.7342 6.62136
324 2 2.2208 10.8008 19.9778 8.05839
323 1 -1.1104 11.9465 15.3304 9.49354
326 1 -1.1104 12.0778 15.8517 12.1752
315 1 -1.1104 9.22086 15.6997 12.0534
314 1 -1.1104 9.19431 15.6508 9.23078
329 1 -1.1104 12.2892 18.5592 12.1911
288 1 -1.1104 6.45037 18.2919 9.44426
49 2 2.2208 13.4678 0.199416 2.20234
289 1 -1.1104 6.59229 15.6266 9.59638
376 2 2.2208 7.81291 17.0823 13.4414
232 2 2.2208 10.7429 -5.2766 10.7211
199 2 2.2208 -0.302066 3.08487 7.89815
203 2 2.2208 5.15194 -5.43402 10.667
352 2 2.2208 5.0643 3.13644 13.4986
82 2 2.2208 -0.397958 8.50256 2.12903
334 2 2.2208 13.6395 3.00412 4.97089
341 2 2.2208 13.608 8.6116 10.7561
312 2 2.2208 -0.373622 17.0484 10.785
388 2 2.2208 7.89794 -2.46959 -0.399178
369 2 2.2208 5.15992 19.862 13.5609
375 2 2.2208 13.6451 19.9293 -0.322384
406 2 2.2208 5.02088 0.175102 16.3277
407 1 -1.1104 0.903888 -4.38762 17.4686
411 1 -1.1104 0.886001 -4.07923 14.8231
419 1 -1.1104 0.593465 -1.43217 17.8427
421 2 2.2208 4.95467 -2.6917 19.286
423 1 -1.1104 0.920738 -1.14369 14.9705
427 1 -1.1104 3.68291 -4.25827 17.9731
429 2 2.2208 2.12387 0.0840936 19.0808
430 1 -1.1104 3.61432 -3.80693 14.9071
434 2 2.2208 2.16414 -2.59913 16.3257
436 1 -1.1104 3.46954 -1.48334 17.7308
437 1 -1.1104 3.8472 -1.07288 14.839
431 1 -1.1104 3.50651 -3.85253 20.6386
438 1 -1.1104 3.46952 -1.09942 20.5619
412 1 -1.1104 0.752819 -4.00548 20.6027
424 1 -1.1104 0.938312 -1.18671 20.7157
426 1 -1.1104 6.28916 -1.11497 20.5331
409 1 -1.1104 6.51171 -3.93942 17.7939
399 2 2.2208 7.99966 8.51244 27.6083
390 2 2.2208 10.716 -5.29067 27.6538
640 2 2.2208 2.29319 -5.33724 24.6666
415 1 -1.1104 6.1646 -4.23718 14.8296
425 1 -1.1104 6.60313 -1.36823 15.0033
420 1 -1.1104 6.22223 -1.25219 17.8825
449 2 2.2208 10.6429 0.0933204 16.3172
450 1 -1.1104 12.1106 -4.2085 17.8229
452 1 -1.1104 12.0257 -4.1544 14.9838
456 1 -1.1104 12.1733 -1.27484 17.6674
457 2 2.2208 10.7386 -2.74187 19.1232
459 1 -1.1104 12.0317 -1.09057 14.8776
461 1 -1.1104 9.37062 -4.2037 17.6114
463 2 2.2208 7.90379 0.144687 19.2343
464 1 -1.1104 9.27657 -4.28715 15.07
468 2 2.2208 7.86564 -2.83983 16.4774
470 1 -1.1104 9.30663 -1.46108 17.6023
471 1 -1.1104 9.26286 -1.44988 14.8518
453 1 -1.1104 12.1185 -4.07215 20.7364
472 1 -1.1104 9.07918 -1.46069 20.5679
379 2 2.2208 7.77102 20.0582 27.7346
387 2 2.2208 10.566 0.175906 27.5884
413 1 -1.1104 0.659156 1.57973 14.9817
408 1 -1.1104 0.831035 1.38673 17.8072
422 2 2.2208 5.12103 2.9806 19.1512
428 1 -1.1104 3.66039 1.58135 17.8946
432 1 -1.1104 3.39373 1.52639 15.2497
435 2 2.2208 2.16901 3.03841 16.4452
482 2 2.2208 5.13189 5.86904 16.3925
484 1 -1.1104 0.817334 7.03718 17.6031
490 1 -1.1104 0.869696 4.42673 17.6223
495 1 -1.1104 0.784759 4.41188 14.9606
504 2 2.2208 2.18016 5.70064 19.0787
506 1 -1.1104 3.62264 7.09265 15.1346
509 1 -1.1104 3.67993 4.42178 17.8521
511 1 -1.1104 3.73167 4.35507 15.0773
503 1 -1.1104 3.7392 7.16298 17.9118
486 1 -1.1104 0.965452 7.28603 14.8539
414 1 -1.1104 0.937352 1.42555 20.3958
507 1 -1.1104 3.64002 7.10538 20.8269
512 1 -1.1104 3.56495 4.34999 20.6014
496 1 -1.1104 0.847192 4.34228 20.2209
500 1 -1.1104 6.33661 4.55695 20.5295
418 1 -1.1104 6.60104 1.5482 20.4791
499 1 -1.1104 6.59689 4.42041 14.9393
488 1 -1.1104 6.47005 7.28246 15.0476
410 1 -1.1104 6.62046 1.72258 17.6982
492 1 -1.1104 6.3962 4.40122 17.7031
485 1 -1.1104 6.59978 7.31051 17.7599
417 1 -1.1104 6.34486 1.60411 14.8719
451 1 -1.1104 12.0627 1.56917 17.589
454 1 -1.1104 11.9159 1.52147 14.7512
458 2 2.2208 10.7265 2.90541 19.0896
462 1 -1.1104 9.25373 1.39341 17.7461
466 1 -1.1104 9.33823 1.57324 15.1687
469 2 2.2208 7.75403 2.92812 16.1515
518 2 2.2208 10.5224 5.88333 16.5166
523 1 -1.1104 12.0302 4.53743 17.7042
526 1 -1.1104 12.2192 4.4394 14.9091
531 2 2.2208 7.9 5.78386 19.1392
533 1 -1.1104 9.27186 7.41432 14.8306
536 1 -1.1104 9.04474 4.45773 17.5172
538 1 -1.1104 9.34776 4.40808 14.8051
521 1 -1.1104 12.1027 6.96628 14.8964
520 1 -1.1104 12.1374 7.21193 17.8725
530 1 -1.1104 9.40025 7.24839 17.87
455 1 -1.1104 12.1762 1.65406 20.4452
527 1 -1.1104 12.259 4.24513 20.3913
467 1 -1.1104 9.49736 1.55863 20.4474
534 1 -1.1104 9.45114 7.24623 20.766
383 2 2.2208 2.01012 2.78452 27.5478
378 2 2.2208 10.7773 17.1379 27.7315
400 2 2.2208 10.7546 11.7468 27.7165
483 2 2.2208 5.21324 11.3417 16.3039
491 1 -1.1104 0.774813 10.2022 17.6544
494 2 2.2208 5.01894 8.41754 19.262
497 1 -1.1104 0.936287 10.0137 15.0699
505 2 2.2208 2.09787 11.377 19.0907
508 2 2.2208 2.20074 8.5044 16.4015
510 1 -1.1104 3.48723 9.71949 17.7354
513 1 -1.1104 3.70384 9.90585 14.9584
546 1 -1.1104 0.890316 12.8262 17.7686
550 1 -1.1104 0.618014 12.7812 14.8768
566 1 -1.1104 4.09438 12.9634 17.5992
569 1 -1.1104 3.52201 12.569 14.9405
498 1 -1.1104 0.981555 9.8583 20.3376
570 1 -1.1104 3.40586 12.7849 20.4799
551 1 -1.1104 0.736284 12.6162 20.5325
493 1 -1.1104 6.49676 9.93674 17.8347
502 1 -1.1104 6.47567 10.317 20.6196
501 1 -1.1104 6.5613 10.0755 14.9013
578 2 2.2208 13.329 0.139294 19.0586
555 1 -1.1104 6.55519 12.9928 20.8268
554 1 -1.1104 6.48527 12.9265 14.9999
548 1 -1.1104 6.8308 12.6422 17.7046
519 2 2.2208 10.8772 11.3223 16.2785
524 1 -1.1104 12.2824 10.0314 17.6853
525 2 2.2208 10.8777 8.42108 19.3823
528 1 -1.1104 12.2434 9.94659 14.8345
532 2 2.2208 8.1281 11.3855 19.3214
535 2 2.2208 8.07623 8.69542 16.5647
537 1 -1.1104 9.53009 10.0611 17.7447
540 1 -1.1104 9.36706 10.0973 14.9263
582 1 -1.1104 12.3067 12.6953 17.9182
584 1 -1.1104 12.3263 12.9518 14.9257
593 1 -1.1104 9.68594 13.1488 17.7343
596 1 -1.1104 9.44911 12.9355 14.9237
597 1 -1.1104 9.27849 13.1533 20.5782
585 1 -1.1104 12.2987 12.7298 20.6055
541 1 -1.1104 9.38076 9.9069 20.5789
529 1 -1.1104 12.3751 9.92533 20.5868
600 2 2.2208 8.16404 14.3726 16.4053
404 2 2.2208 4.93616 17.2133 27.4518
573 2 2.2208 2.2531 13.9228 16.3349
560 2 2.2208 5.10846 14.1284 19.1946
545 2 2.2208 5.23431 17.1266 16.2325
547 1 -1.1104 1.02741 18.3071 17.5815
552 1 -1.1104 0.748371 18.4454 14.7341
558 1 -1.1104 0.880566 15.5049 17.7129
561 2 2.2208 5.2254 19.6688 19.1173
562 1 -1.1104 1.02136 15.55 15.0793
567 1 -1.1104 3.75897 18.5287 17.7852
568 2 2.2208 2.36269 16.9544 19.153
571 1 -1.1104 3.79497 18.4282 14.9104
574 2 2.2208 2.4371 19.9339 16.3826
575 1 -1.1104 3.64852 15.55 17.8723
576 1 -1.1104 3.68212 15.5649 14.9151
577 1 -1.1104 3.66303 15.6467 20.6199
572 1 -1.1104 3.65078 18.3936 20.5943
553 1 -1.1104 0.883474 18.5221 20.35
563 1 -1.1104 0.772655 15.6273 20.6705
559 1 -1.1104 6.61185 15.4712 17.9189
557 1 -1.1104 6.50706 18.3688 20.4785
542 2 2.2208 13.4269 5.67079 19.0278
667 2 2.2208 7.92704 17.2482 24.8081
589 2 2.2208 10.9792 14.2595 19.2187
564 1 -1.1104 6.52294 15.7548 14.991
556 1 -1.1104 6.56669 18.557 14.902
565 1 -1.1104 6.41356 15.7207 20.447
549 1 -1.1104 6.60147 18.3562 17.6861
581 2 2.2208 10.8656 17.2084 16.5141
583 1 -1.1104 12.2503 18.4885 17.9125
586 1 -1.1104 12.2118 18.566 14.9779
588 1 -1.1104 12.388 15.5718 17.6194
590 2 2.2208 10.7566 19.78 19.325
591 1 -1.1104 12.1264 15.994 14.9279
594 1 -1.1104 9.33058 18.4039 17.9183
595 2 2.2208 8.03854 16.9542 19.3667
598 1 -1.1104 9.33075 18.6966 15.067
601 2 2.2208 7.8876 19.8181 16.4645
602 1 -1.1104 9.66358 15.8452 17.7485
603 1 -1.1104 9.30427 15.7898 14.7811
599 1 -1.1104 9.43165 18.4199 20.6832
587 1 -1.1104 12.3844 18.207 20.875
604 1 -1.1104 9.41099 15.8958 20.7609
592 1 -1.1104 12.2978 15.4639 20.4998
381 2 2.2208 5.15044 0.27086 27.695
728 2 2.2208 13.5697 5.6535 24.6492
385 2 2.2208 5.06688 -5.43712 27.7243
398 2 2.2208 10.6253 5.81277 27.436
391 2 2.2208 13.576 -2.65054 27.614
669 2 2.2208 7.84301 -5.46971 24.7151
609 2 2.2208 5.0219 0.476379 21.9575
610 1 -1.1104 0.708262 -4.11161 23.4028
614 1 -1.1104 0.764155 -3.99862 26.1607
618 1 -1.1104 0.808436 -1.23028 23.4432
620 2 2.2208 5.17123 -2.65771 24.725
622 1 -1.1104 0.78018 -1.17225 26.2942
624 1 -1.1104 3.66336 -3.92425 23.3217
626 2 2.2208 2.383 0.194617 24.6994
627 1 -1.1104 3.55781 -3.89873 26.1327
629 2 2.2208 2.13118 -2.4928 21.9881
631 1 -1.1104 3.80682 -0.954183 23.6005
632 1 -1.1104 3.85412 -1.15649 26.3282
616 1 -1.1104 6.49832 -3.91088 26.0673
619 1 -1.1104 6.51382 -1.21194 23.3945
612 1 -1.1104 6.41725 -4.17442 23.4036
623 1 -1.1104 6.50039 -1.07282 26.2402
465 1 -1.1104 9.26907 -4.07763 20.4765
416 1 -1.1104 6.4177 -4.01136 20.6626
460 1 -1.1104 11.9921 -1.15202 20.3115
394 2 2.2208 2.46042 8.4289 27.6787
475 2 2.2208 7.9769 -5.46026 19.0524
698 1 -1.1104 9.48936 18.4294 26.1966
645 2 2.2208 10.5524 0.141062 21.8497
646 1 -1.1104 11.9046 -3.97924 23.3964
648 1 -1.1104 12.1183 -3.91015 26.2943
650 1 -1.1104 12.2857 -1.20808 23.0988
651 2 2.2208 10.7524 -2.59787 24.7801
653 1 -1.1104 12.0128 -1.21089 26.0407
654 1 -1.1104 9.21688 -4.05894 23.4174
656 2 2.2208 7.84957 0.108156 24.735
657 1 -1.1104 9.22992 -4.2446 26.3145
659 2 2.2208 7.90555 -2.72704 22.0157
661 1 -1.1104 9.46972 -1.22072 23.3562
662 1 -1.1104 9.26902 -1.30653 26.0243
374 2 2.2208 13.5879 14.243 27.4837
663 1 -1.1104 12.122 15.8375 26.1754
403 2 2.2208 2.38239 14.0974 27.7493
433 1 -1.1104 3.69562 1.76147 20.6324
487 1 -1.1104 0.7639 7.08629 20.6406
639 2 2.2208 5.01702 -5.31067 22.0154
393 2 2.2208 5.18067 5.60526 27.7424
611 1 -1.1104 0.939346 1.45355 23.2694
615 1 -1.1104 0.936899 1.493 26.1619
621 2 2.2208 5.01095 2.9635 24.8764
625 1 -1.1104 3.63078 1.70457 23.2871
628 1 -1.1104 3.7405 1.51282 26.1992
630 2 2.2208 2.10766 2.92841 21.9352
674 2 2.2208 4.9268 5.5364 22.0987
678 1 -1.1104 0.864631 7.16239 26.166
680 1 -1.1104 0.87178 4.13819 23.4184
685 1 -1.1104 0.695773 4.3063 26.3685
689 1 -1.1104 3.81674 6.93365 23.5647
690 2 2.2208 2.42364 5.73186 25.0613
694 1 -1.1104 3.46892 4.21048 23.5437
696 1 -1.1104 3.86946 4.42233 26.3172
676 1 -1.1104 0.772658 7.17046 23.3212
692 1 -1.1104 3.82815 7.1966 26.4666
682 1 -1.1104 6.33833 4.34502 23.5917
687 1 -1.1104 6.58162 4.40309 26.2352
617 1 -1.1104 6.64583 1.61611 26.1895
677 1 -1.1104 6.57744 7.1925 23.3276
747 1 -1.1104 6.63105 15.8017 23.4293
522 1 -1.1104 12.2864 7.00681 20.8284
489 1 -1.1104 6.55338 7.44504 20.6487
395 2 2.2208 5.02751 11.459 27.6448
679 1 -1.1104 6.6561 7.08961 25.9981
539 1 -1.1104 9.41825 4.42764 20.2653
726 2 2.2208 13.618 11.5163 24.9014
613 1 -1.1104 6.46093 1.67237 23.2059
647 1 -1.1104 12.1005 1.47056 23.2982
649 1 -1.1104 12.1179 1.56361 26.075
652 2 2.2208 10.6821 2.83013 24.6431
655 1 -1.1104 9.29294 1.55627 23.2952
658 1 -1.1104 9.4107 1.55682 26.2764
660 2 2.2208 7.94467 3.0176 21.8758
706 1 -1.1104 9.29932 4.41443 26.0135
708 1 -1.1104 9.13001 4.36686 23.0763
712 2 2.2208 8.04225 5.96644 24.6834
713 2 2.2208 10.749 5.8832 21.9339
715 1 -1.1104 12.3447 7.2603 23.4454
716 1 -1.1104 12.2042 7.22466 26.1387
717 1 -1.1104 12.0318 4.5185 23.2314
720 1 -1.1104 12.2113 4.53841 25.9904
722 1 -1.1104 9.44438 7.31622 23.4865
710 1 -1.1104 9.34396 7.0581 26.2189
480 2 2.2208 13.6367 14.2004 16.3568
514 1 -1.1104 3.60696 9.91264 20.5289
477 2 2.2208 13.4382 -2.67029 16.255
579 2 2.2208 13.4527 3.13539 16.3186
675 2 2.2208 4.88712 11.2348 21.9466
681 1 -1.1104 0.728724 9.86382 23.4907
684 2 2.2208 5.06045 8.62548 24.9165
686 1 -1.1104 0.857239 10.1883 26.2669
691 2 2.2208 2.26592 11.4476 24.9143
693 2 2.2208 2.29211 8.44067 22.0292
695 1 -1.1104 3.50085 9.96048 23.3182
697 1 -1.1104 3.62182 10.0159 26.0496
731 1 -1.1104 3.67818 12.953 23.312
735 1 -1.1104 0.980886 12.8703 26.2655
741 1 -1.1104 1.14273 12.7576 23.3215
746 1 -1.1104 3.77947 12.9032 26.2967
699 2 2.2208 7.99852 14.3751 22.1153
739 1 -1.1104 6.67068 12.9605 23.6075
738 2 2.2208 5.10411 14.2934 24.8463
670 1 -1.1104 6.54667 18.67 26.0994
671 2 2.2208 13.528 -2.51725 21.9087
377 2 2.2208 7.86997 14.2998 27.5734
683 1 -1.1104 6.30312 10.0635 23.5354
730 1 -1.1104 6.61886 12.9502 26.2789
688 1 -1.1104 6.27054 9.93259 26.2992
608 1 -1.1104 12.1691 12.7256 23.6535
673 1 -1.1104 9.21999 12.9104 26.4416
664 1 -1.1104 9.54119 12.8611 23.4916
705 1 -1.1104 9.08876 9.90149 25.8332
707 1 -1.1104 9.20343 10.1428 23.2008
709 2 2.2208 7.78672 8.73764 22.0008
711 2 2.2208 8.06173 11.5654 24.7709
714 2 2.2208 10.8356 11.4836 22.0123
718 1 -1.1104 12.2096 10.0159 23.4174
719 2 2.2208 10.8262 8.71308 24.7406
721 1 -1.1104 12.1545 10.2239 26.2752
634 1 -1.1104 12.0816 13.0432 26.3908
701 1 -1.1104 9.43682 15.5596 23.3504
543 2 2.2208 13.5633 8.57964 16.4045
724 2 2.2208 -0.383634 19.7664 24.7078
742 2 2.2208 5.22488 17.0529 22.049
740 1 -1.1104 1.13441 18.26 23.1326
727 2 2.2208 2.34017 14.2783 21.8858
745 1 -1.1104 3.60069 15.5791 26.3414
744 2 2.2208 2.38626 16.9368 24.8243
743 1 -1.1104 3.69787 18.5803 26.0365
750 2 2.2208 2.4707 19.769 21.8999
749 1 -1.1104 3.91876 15.7266 23.4857
748 1 -1.1104 0.981892 15.5362 23.397
729 1 -1.1104 3.84301 18.4693 23.3605
733 1 -1.1104 1.00827 18.4661 25.9765
734 1 -1.1104 0.875413 15.6833 26.0913
737 2 2.2208 5.38505 20.1051 24.6514
665 1 -1.1104 9.38476 18.3149 23.4798
635 1 -1.1104 12.0244 18.4508 26.426
638 2 2.2208 10.7786 14.4149 25.0233
636 1 -1.1104 12.4223 15.4901 23.3459
633 1 -1.1104 12.1811 18.3518 23.6344
736 1 -1.1104 6.52939 18.6169 23.3344
704 1 -1.1104 9.18959 15.6858 26.2068
700 2 2.2208 7.89228 19.8371 22.0428
607 2 2.2208 10.7573 17.1749 22.0765
641 2 2.2208 10.6901 19.8577 24.8121
732 1 -1.1104 6.29501 15.9232 26.14
605 2 2.2208 13.6593 17.1629 24.8418
382 2 2.2208 2.16167 -2.50791 27.7214
405 2 2.2208 2.20085 19.9877 27.5755
668 2 2.2208 10.602 -5.33701 21.9689
392 2 2.2208 13.3973 3.1286 27.4646
478 2 2.2208 13.5917 20.0017 16.3082
447 2 2.2208 -0.421463 16.9758 16.4042
446 2 2.2208 13.4144 2.95383 21.8678
396 2 2.2208 -0.422697 11.3876 27.5548
580 2 2.2208 13.5642 14.305 21.8674
371 2 2.2208 5.08962 14.2272 13.7471
389 2 2.2208 7.79183 3.01542 27.5768
751 2 2.2208 5.13208 22.6719 5.21772
753 1 -1.1104 0.883448 24.1714 0.828547
754 1 -1.1104 0.758585 24.1545 3.62118
755 1 -1.1104 1.00831 21.3844 0.80989
757 2 2.2208 5.05514 25.4674 2.01101
758 1 -1.1104 0.941667 21.2882 3.65058
760 1 -1.1104 3.72119 24.2021 0.553175
761 2 2.2208 2.32087 22.7297 2.20504
763 1 -1.1104 3.96808 23.9794 3.46893
764 2 2.2208 2.43925 25.3702 4.93008
765 1 -1.1104 3.77301 21.3934 0.887335
767 1 -1.1104 3.47213 21.1051 3.59479
894 1 -1.1104 0.784929 21.3649 6.37086
768 1 -1.1104 3.70655 26.5743 3.52661
756 1 -1.1104 0.954692 27.0401 0.864968
900 1 -1.1104 3.83739 26.6696 6.67934
775 1 -1.1104 6.44754 26.9807 1.19309
898 1 -1.1104 3.92865 23.8255 6.73204
892 1 -1.1104 1.11799 24.044 6.36804
899 1 -1.1104 3.68742 21.1885 6.59132
773 1 -1.1104 6.60656 23.9213 3.85452
893 1 -1.1104 6.63657 24.1975 6.75237
774 1 -1.1104 6.51411 21.3 0.964963
776 1 -1.1104 6.55608 21.1285 4.05156
772 1 -1.1104 6.35406 23.9854 0.821913
759 1 -1.1104 1.01308 27.0334 3.7435
766 1 -1.1104 3.65069 26.8339 0.679017
895 1 -1.1104 0.960717 26.8461 6.36984
897 1 -1.1104 6.44031 26.907 6.6049
778 2 2.2208 10.719 22.8504 5.04597
780 1 -1.1104 12.2582 24.2571 0.818459
781 1 -1.1104 12.2319 24.1959 3.56083
782 1 -1.1104 12.1621 21.3434 1.02416
784 2 2.2208 10.8717 25.5045 2.30119
785 1 -1.1104 12.2468 21.3603 3.67768
787 1 -1.1104 9.40264 24.181 1.03621
788 2 2.2208 8.03003 22.7724 2.45135
790 1 -1.1104 9.3497 24.1891 3.82979
791 2 2.2208 7.73117 25.4516 5.02461
794 1 -1.1104 9.38261 21.3347 3.75888
792 1 -1.1104 9.27873 21.4275 0.829768
786 1 -1.1104 12.0048 26.8757 3.67671
929 1 -1.1104 9.50043 21.4128 6.76891
928 1 -1.1104 9.38919 24.2852 6.58551
777 1 -1.1104 6.38846 26.7429 3.86466
783 1 -1.1104 12.3296 26.9128 0.796847
926 1 -1.1104 12.242 21.3266 6.77121
793 1 -1.1104 9.52054 26.8833 1.13084
795 1 -1.1104 9.25985 26.6579 4.04255
930 1 -1.1104 9.49262 26.9653 6.71699
927 1 -1.1104 12.1593 26.8304 6.40275
896 1 -1.1104 6.40227 21.3792 6.94358
752 2 2.2208 5.14386 28.3033 5.2214
762 2 2.2208 2.33938 28.1775 2.42994
800 1 -1.1104 0.771463 29.6146 0.898087
803 1 -1.1104 0.879107 29.6797 3.84402
806 1 -1.1104 0.821309 32.3702 0.616324
807 2 2.2208 5.24004 31.1538 2.27031
809 1 -1.1104 0.88902 32.5352 3.7273
811 1 -1.1104 3.60145 29.787 0.620127
814 1 -1.1104 3.74753 29.7611 3.80761
816 2 2.2208 2.28646 30.957 5.09982
818 1 -1.1104 3.6894 32.5634 0.895827
819 1 -1.1104 3.73125 32.6202 3.62254
957 1 -1.1104 3.66007 32.2255 6.58981
1110 2 2.2208 7.88911 45.1068 13.5936
949 1 -1.1104 0.721266 29.6827 6.65687
1069 2 2.2208 13.6555 31.036 5.11079
823 1 -1.1104 6.27289 29.7984 0.629178
824 1 -1.1104 6.63322 29.6333 3.64642
825 1 -1.1104 6.67239 32.4825 1.0102
810 1 -1.1104 6.39885 32.3321 3.78679
779 2 2.2208 10.8623 28.3891 5.19373
789 2 2.2208 8.01773 28.2319 2.49331
827 1 -1.1104 11.9551 29.6799 0.737133
829 1 -1.1104 12.3016 29.6274 3.75309
831 1 -1.1104 12.0506 32.6339 0.844189
832 2 2.2208 10.8385 31.1369 2.35652
834 1 -1.1104 12.3535 32.4753 3.76732
835 1 -1.1104 9.23606 29.6383 0.803386
838 1 -1.1104 9.53619 29.7388 3.66749
840 2 2.2208 7.93516 30.9149 5.073
842 1 -1.1104 9.29868 32.5902 0.829001
843 1 -1.1104 9.49945 32.793 3.4046
988 1 -1.1104 9.34165 32.3306 6.20417
983 1 -1.1104 12.1919 29.7017 6.39617
985 1 -1.1104 12.2984 32.3455 6.90462
1083 2 2.2208 13.6416 44.9646 7.55023
813 2 2.2208 2.26518 33.936 2.09047
799 2 2.2208 5.18647 33.8905 5.02216
801 1 -1.1104 0.860812 35.1867 0.503662
804 1 -1.1104 1.05161 35.5311 3.3861
808 2 2.2208 5.28165 36.7428 2.2461
812 1 -1.1104 3.57565 35.2431 0.578945
815 1 -1.1104 3.81287 35.4078 3.49919
817 2 2.2208 2.36785 36.8232 4.86519
845 2 2.2208 5.049 39.635 5.1834
851 1 -1.1104 1.16766 38.1304 0.605876
856 1 -1.1104 1.00157 38.2307 3.53177
861 2 2.2208 2.43087 39.5765 2.32261
865 1 -1.1104 4.01028 38.0837 0.792497
867 1 -1.1104 3.78719 38.2617 3.48403
1029 1 -1.1104 3.68447 38.205 6.2581
1023 1 -1.1104 1.15839 38.4465 6.06023
950 1 -1.1104 0.91269 35.4358 6.52007