ITEM: TIMESTEP
80000
ITEM: NUMBER OF ATOMS
17760
ITEM: BOX BOUNDS pp pp pp
-4.5034552566549263e-01 2.7790345525665554e+01
-5.4839131919449668e+00 3.3356391319194853e+02
-4.6319085209735072e-01 2.7803190852097327e+01
ITEM: ATOMS id type q x y z
1 2 2.2208 5.18995 0.362121 4.84114
2 1 -1.1104 1.01027 -4.16556 0.505099
6 1 -1.1104 1.17104 -3.90615 3.53624
10 1 -1.1104 0.927933 -1.26376 0.662849
12 2 2.2208 5.26958 -2.75345 2.06831
14 1 -1.1104 1.06765 -1.24265 3.54033
16 1 -1.1104 4.0087 -4.08134 0.540516
18 2 2.2208 2.41349 0.0767224 2.08801
19 1 -1.1104 3.97644 -4.27122 3.37876
21 2 2.2208 2.3881 -2.73897 4.82144
23 1 -1.1104 3.83907 -1.3068 0.753041
24 1 -1.1104 3.92662 -1.39675 3.51402
25 2 2.2208 -0.459006 -2.71893 2.16568
174 1 -1.1104 3.79049 -1.0573 6.45442
11 1 -1.1104 6.61421 -1.24875 0.52753
170 1 -1.1104 1.20894 -1.48505 6.53267
172 1 -1.1104 3.90507 -3.98856 6.4269
201 2 2.2208 -0.350141 0.107061 10.813
353 2 2.2208 8.31749 -5.38958 13.3655
8 1 -1.1104 6.6853 -3.93076 3.50474
171 1 -1.1104 6.6299 -1.35651 6.35438
15 1 -1.1104 6.59553 -1.04383 3.4009
232 2 2.2208 10.9815 -5.4291 10.7165
4 1 -1.1104 6.75873 -4.26268 0.742316
31 2 2.2208 10.8227 0.0229379 4.89423
32 1 -1.1104 12.2216 -4.01002 0.992497
34 1 -1.1104 12.4621 -4.02801 3.65224
36 1 -1.1104 12.3466 -1.06261 0.860255
37 2 2.2208 10.9558 -2.43425 2.13508
39 1 -1.1104 12.207 -1.36054 3.79323
40 1 -1.1104 9.52685 -3.79155 0.570986
42 2 2.2208 8.14866 0.253862 2.0131
43 1 -1.1104 9.45491 -3.99771 3.60085
45 2 2.2208 8.0029 -2.45551 4.80042
47 1 -1.1104 9.49792 -1.23156 0.702106
48 1 -1.1104 9.38763 -1.13726 3.37444
168 1 -1.1104 6.58965 -4.21598 6.22484
210 1 -1.1104 9.49044 -1.27324 6.24864
205 1 -1.1104 12.3203 -4.25878 6.52397
207 1 -1.1104 12.3246 -1.48855 6.6292
49 2 2.2208 13.6276 0.266709 2.20596
3 1 -1.1104 1.07925 1.5147 0.710017
7 1 -1.1104 1.04936 1.58644 3.6177
13 2 2.2208 5.27947 2.87013 2.11213
17 1 -1.1104 3.97335 1.68408 0.784997
20 1 -1.1104 3.90008 1.46817 3.31432
22 2 2.2208 2.45658 3.01808 5.03229
54 2 2.2208 5.29961 5.72079 4.96386
60 1 -1.1104 1.02353 4.49177 0.815961
67 1 -1.1104 1.12324 4.41439 3.60427
71 1 -1.1104 3.88971 7.32028 0.95207
72 2 2.2208 2.41762 5.80988 2.33036
76 1 -1.1104 3.65817 4.51157 0.718837
79 1 -1.1104 3.85559 4.34367 3.66636
56 1 -1.1104 1.03061 7.26517 0.805196
58 1 -1.1104 1.11491 7.27088 3.52156
74 1 -1.1104 3.78405 7.2182 3.72194
173 1 -1.1104 3.61442 1.76893 6.384
239 1 -1.1104 4.13536 4.34676 6.51925
324 2 2.2208 10.9413 19.8988 8.19733
136 2 2.2208 -0.476377 19.8203 2.13707
236 1 -1.1104 1.18677 4.29325 6.50719
167 1 -1.1104 0.93965 1.6146 6.28776
63 1 -1.1104 6.47747 4.24395 0.860898
57 1 -1.1104 6.51275 7.1071 0.857009
59 1 -1.1104 6.57241 7.22524 3.8077
69 1 -1.1104 6.67941 4.36716 3.59366
169 1 -1.1104 6.54855 1.59225 6.36146
9 1 -1.1104 6.72917 1.6139 3.67461
5 1 -1.1104 6.66745 1.53267 0.766945
33 1 -1.1104 12.1821 1.66515 0.64022
35 1 -1.1104 12.4024 1.54084 3.65013
38 2 2.2208 10.9302 2.94679 2.11809
41 1 -1.1104 9.46528 1.60302 0.674309
44 1 -1.1104 9.70809 1.52452 3.47588
46 2 2.2208 8.35509 2.8453 5.17023
84 2 2.2208 10.8397 5.8629 4.82365
86 1 -1.1104 12.3123 7.12831 1.05933
88 1 -1.1104 12.123 4.37551 0.720362
92 1 -1.1104 12.4686 4.57313 3.69077
94 1 -1.1104 9.36657 7.13272 0.753019
95 2 2.2208 7.91702 5.7777 2.4306
99 1 -1.1104 9.38846 4.36388 0.852267
102 1 -1.1104 9.6695 4.25588 3.62986
87 1 -1.1104 11.9965 7.19072 3.63051
267 1 -1.1104 9.17312 7.35132 6.28008
206 1 -1.1104 12.4441 1.38226 6.4782
350 2 2.2208 -0.396321 19.788 13.6374
269 1 -1.1104 9.58082 4.54519 6.40168
55 2 2.2208 5.23293 11.5592 5.10949
61 1 -1.1104 1.1374 10.0031 0.924468
66 2 2.2208 5.17497 8.6745 2.34393
68 1 -1.1104 0.9032 10.0102 3.52526
73 2 2.2208 2.37108 11.4297 2.24688
75 2 2.2208 2.31768 8.68559 4.99862
77 1 -1.1104 4.04186 9.97801 0.76419
80 1 -1.1104 3.72647 9.98939 3.77044
107 1 -1.1104 0.876902 12.9587 0.757352
113 1 -1.1104 0.782745 12.7312 3.44186
123 1 -1.1104 3.84302 12.872 0.738891
128 1 -1.1104 3.74513 12.5922 3.76693
78 1 -1.1104 3.80968 9.93566 6.55468
62 1 -1.1104 1.04158 10.0523 6.36502
65 1 -1.1104 6.55071 10.0244 6.38352
124 1 -1.1104 3.70963 12.6431 6.46921
64 1 -1.1104 6.83266 10.1074 0.58511
108 1 -1.1104 0.976118 12.9479 6.17149
348 2 2.2208 5.38386 -2.8737 13.491
349 2 2.2208 2.39624 0.0644434 13.4842
402 2 2.2208 13.5523 8.57129 -0.455104
97 1 -1.1104 9.25898 7.18611 3.52904
110 1 -1.1104 6.5391 12.7623 0.863794
115 1 -1.1104 6.64731 12.8856 3.70607
111 1 -1.1104 6.56159 12.9655 6.52046
70 1 -1.1104 6.4983 9.91405 3.51346
85 2 2.2208 10.744 11.2561 5.13382
89 1 -1.1104 12.2217 9.98333 0.775747
91 2 2.2208 10.7624 8.56704 2.30066
93 1 -1.1104 12.0265 10.0856 3.5345
96 2 2.2208 7.96952 11.3417 2.30406
98 2 2.2208 7.76658 8.72506 5.05113
100 1 -1.1104 9.49375 10.0828 1.00453
103 1 -1.1104 9.25336 9.85594 3.78964
142 1 -1.1104 12.2472 12.9418 1.01639
146 1 -1.1104 12.2539 12.9071 3.63961
153 1 -1.1104 9.55001 12.7074 0.843759
158 1 -1.1104 9.28987 12.6379 3.72104
101 1 -1.1104 9.19737 10.0354 6.40581
90 1 -1.1104 12.0091 9.84818 6.49297
154 1 -1.1104 9.56784 13.0356 6.58019
373 2 2.2208 10.6961 14.2022 13.66
130 2 2.2208 2.41372 14.2294 4.95493
119 2 2.2208 5.10347 14.0724 2.20028
106 2 2.2208 5.19129 17.0025 5.14725
109 1 -1.1104 0.7507 18.3843 0.741335
114 1 -1.1104 0.972821 18.4982 3.62579
116 1 -1.1104 0.72224 15.8306 0.960256
120 2 2.2208 5.26365 19.8579 2.25277
121 1 -1.1104 0.704038 15.5217 3.84366
125 1 -1.1104 3.81184 18.5723 0.818574
127 2 2.2208 2.446 17.3037 2.32884
129 1 -1.1104 3.82532 18.4887 3.61888
131 2 2.2208 2.3263 19.7117 5.19824
132 1 -1.1104 3.4409 15.7586 0.939651
134 1 -1.1104 3.67532 15.3146 3.56629
126 1 -1.1104 3.98227 18.3934 6.70851
140 1 -1.1104 6.35251 15.5369 0.937439
302 1 -1.1104 1.01141 18.3975 6.42928
117 1 -1.1104 0.95292 15.8595 6.61219
118 1 -1.1104 6.36805 15.7034 6.69837
357 2 2.2208 10.8473 2.96352 13.7121
333 2 2.2208 13.5909 14.2387 10.7353
163 1 -1.1104 9.53514 15.7509 6.29841
150 2 2.2208 10.6703 14.0548 2.22197
122 1 -1.1104 6.59377 15.494 3.73649
138 1 -1.1104 6.51949 18.3764 0.750539
139 1 -1.1104 6.33275 18.1586 3.55564
160 2 2.2208 8.07073 14.1789 5.03735
141 2 2.2208 10.952 17.0274 4.9233
144 1 -1.1104 12.1578 18.6526 0.570079
147 1 -1.1104 12.2243 18.7482 3.49019
148 1 -1.1104 12.2368 15.6829 0.782199
151 2 2.2208 10.7541 19.9048 2.26025
152 1 -1.1104 12.3846 15.814 3.47536
155 1 -1.1104 9.25933 18.3076 0.885968
157 2 2.2208 7.80029 16.9186 2.25446
159 1 -1.1104 9.33542 18.4981 3.81453
161 2 2.2208 8.07793 20.0115 5.15386
162 1 -1.1104 9.34497 15.6424 0.725096
164 1 -1.1104 9.40463 15.4595 3.51406
156 1 -1.1104 9.66413 18.4866 6.65658
112 1 -1.1104 6.79707 18.6814 6.54712
318 1 -1.1104 9.34743 18.3645 9.45362
145 1 -1.1104 12.2492 18.3278 6.27234
369 2 2.2208 5.14752 19.9408 13.5962
363 2 2.2208 7.8779 5.69057 13.5872
166 1 -1.1104 1.16767 -4.20431 6.57613
200 2 2.2208 -0.411788 -2.94001 8.00298
175 2 2.2208 5.23279 0.0518643 10.6694
176 1 -1.1104 1.09778 -4.16073 12.2209
180 1 -1.1104 0.967048 -4.02376 9.56553
184 1 -1.1104 1.12881 -1.1895 12.0513
186 2 2.2208 5.18326 -2.64503 7.70979
188 1 -1.1104 1.07362 -1.17338 9.40583
190 1 -1.1104 3.9841 -4.0809 12.0116
192 2 2.2208 2.21699 0.0664515 7.81087
193 1 -1.1104 3.82504 -3.91856 9.10612
195 2 2.2208 2.51994 -2.58944 10.7478
197 1 -1.1104 3.84066 -1.38618 12.2695
198 1 -1.1104 3.81402 -1.23638 9.42536
182 1 -1.1104 6.52503 -3.94953 9.04596
52 2 2.2208 10.8761 -5.42 4.96486
341 2 2.2208 13.6265 8.62058 10.6264
339 2 2.2208 13.6879 5.54588 7.88543
380 2 2.2208 13.4882 16.9362 13.5986
208 1 -1.1104 9.48 -3.89943 6.48012
355 2 2.2208 7.86682 0.0974017 13.3787
185 1 -1.1104 6.44983 -1.27708 11.8609
189 1 -1.1104 6.62983 -1.33622 9.24334
178 1 -1.1104 6.72038 -4.05548 11.9888
211 2 2.2208 10.8102 0.156839 10.7332
212 1 -1.1104 12.2653 -4.22571 12.2009
214 1 -1.1104 12.1272 -4.07013 9.27082
216 1 -1.1104 12.3203 -1.20774 12.07
217 2 2.2208 10.8267 -2.69955 7.89137
219 1 -1.1104 12.1793 -1.22843 9.3307
220 1 -1.1104 9.29149 -4.08211 12.0067
222 2 2.2208 8.23744 0.115373 7.6721
223 1 -1.1104 9.36259 -3.96838 9.47565
225 2 2.2208 8.034 -2.51668 10.5744
227 1 -1.1104 9.38442 -1.23081 12.1053
228 1 -1.1104 9.52042 -1.07247 9.29466
331 2 2.2208 10.7272 16.9444 10.7222
82 2 2.2208 -0.363971 8.59787 2.15138
372 2 2.2208 10.9475 19.8945 13.4489
356 2 2.2208 10.6141 -2.57074 13.5063
315 1 -1.1104 9.28792 15.781 12.2248
329 1 -1.1104 12.1879 18.5081 12.1985
234 1 -1.1104 0.859528 7.12703 6.33308
325 2 2.2208 11.0714 14.3067 7.92039
238 1 -1.1104 3.66964 7.03251 6.361
177 1 -1.1104 0.9982 1.54623 12.0592
181 1 -1.1104 0.675277 1.3513 9.12969
187 2 2.2208 5.27495 2.8789 7.91382
191 1 -1.1104 3.86907 1.65812 12.0397
194 1 -1.1104 3.59371 1.47793 9.37564
196 2 2.2208 2.3993 2.8692 10.6504
240 2 2.2208 5.21613 5.86923 10.6048
244 1 -1.1104 0.879535 7.36419 9.27567
246 1 -1.1104 0.799133 4.34433 12.0315
251 1 -1.1104 0.796044 4.28653 9.30921
255 1 -1.1104 3.76895 7.27109 12.1087
256 2 2.2208 2.39478 5.75523 7.88075
260 1 -1.1104 3.55454 4.44343 12.0375
262 1 -1.1104 3.63261 4.54966 9.45995
242 1 -1.1104 0.824984 7.13704 12.0672
258 1 -1.1104 3.60623 7.25174 9.24187
248 1 -1.1104 6.28109 4.50739 12.0735
243 1 -1.1104 6.56383 7.07224 11.8824
27 2 2.2208 -0.379857 3.00425 2.34128
149 1 -1.1104 12.4186 15.5544 6.35663
266 1 -1.1104 12.254 4.2441 6.54022
237 1 -1.1104 6.82629 4.42345 6.59459
235 1 -1.1104 6.61822 7.26515 6.49359
265 1 -1.1104 12.1192 7.07124 6.45833
352 2 2.2208 5.13034 2.92297 13.5266
183 1 -1.1104 6.6616 1.60207 9.3975
179 1 -1.1104 6.51966 1.52973 12.1112
209 1 -1.1104 9.63235 1.57473 6.48195
245 1 -1.1104 6.6137 7.14036 9.07427
253 1 -1.1104 6.46649 4.37175 9.41201
213 1 -1.1104 12.091 1.76559 12.4727
215 1 -1.1104 12.0244 1.55767 9.59254
218 2 2.2208 10.8728 2.93254 7.88788
221 1 -1.1104 9.31574 1.40753 11.9251
224 1 -1.1104 9.43795 1.69786 9.29643
226 2 2.2208 7.81548 3.04657 10.8696
268 1 -1.1104 9.6554 4.52391 9.36428
271 1 -1.1104 9.24138 4.28514 12.2988
273 1 -1.1104 9.31862 7.31245 8.98583
275 2 2.2208 8.07528 5.73222 7.84781
276 2 2.2208 10.8798 5.55874 10.9797
278 1 -1.1104 12.2132 7.07317 12.4273
279 1 -1.1104 12.1036 7.23228 9.65173
280 1 -1.1104 12.2389 4.34108 12.2907
283 1 -1.1104 12.2991 4.52507 9.49134
285 1 -1.1104 9.37278 7.11702 12.2681
26 2 2.2208 -0.308115 0.161475 4.89947
326 1 -1.1104 11.9591 15.4909 12.3163
361 2 2.2208 2.31716 11.4232 13.6029
359 2 2.2208 2.19592 5.74165 13.5495
305 1 -1.1104 3.83916 12.7995 9.35382
287 1 -1.1104 3.94871 12.7647 12.1637
299 1 -1.1104 1.10502 12.8696 12.0403
294 1 -1.1104 0.790993 12.8302 9.20689
241 2 2.2208 5.29686 11.3548 10.4513
247 1 -1.1104 0.677743 9.93755 12.0113
250 2 2.2208 5.00168 8.57193 7.69939
252 1 -1.1104 0.678325 9.97566 9.10594
257 2 2.2208 2.27954 11.3338 7.75539
259 2 2.2208 2.16756 8.61241 10.6576
261 1 -1.1104 3.542 10.0136 12.0264
263 1 -1.1104 3.48528 10.0145 9.24319
290 1 -1.1104 6.71875 12.7808 9.29236
297 1 -1.1104 6.61279 12.7696 12.0293
289 1 -1.1104 6.90644 15.6455 9.45575
249 1 -1.1104 6.76564 9.93343 12.1006
143 1 -1.1104 12.1772 12.7777 6.35715
254 1 -1.1104 6.54671 9.99501 9.07258
330 1 -1.1104 12.1177 12.7708 12.0509
328 1 -1.1104 12.4 13.0669 9.13395
322 1 -1.1104 9.32072 12.8506 12.2111
319 1 -1.1104 9.5734 13.0151 9.52672
264 1 -1.1104 9.38658 9.91081 9.24533
270 1 -1.1104 9.41557 9.86729 11.9199
272 2 2.2208 8.09673 8.44462 10.5927
274 2 2.2208 8.07715 11.4403 7.94647
277 2 2.2208 10.7597 11.2676 10.7511
281 1 -1.1104 12.4764 9.87438 12.1263
282 2 2.2208 10.7187 8.46082 7.75983
284 1 -1.1104 12.1493 10.0536 9.31515
365 2 2.2208 7.97083 11.4922 13.3971
314 1 -1.1104 9.56296 15.6326 9.06045
323 1 -1.1104 12.1743 15.7323 9.32393
317 2 2.2208 8.16202 14.2072 10.6774
321 1 -1.1104 9.33555 18.5918 12.3108
362 2 2.2208 13.538 11.4182 13.4894
133 1 -1.1104 3.64605 15.6097 6.44549
316 2 2.2208 7.92036 19.6211 10.7403
327 1 -1.1104 12.2342 18.4624 9.37309
310 2 2.2208 2.43246 14.1475 10.6082
296 1 -1.1104 6.37864 18.4094 12.1034
295 2 2.2208 5.25799 14.1532 7.96631
309 2 2.2208 2.21534 19.6294 10.7213
308 1 -1.1104 3.64785 15.5901 12.0626
307 1 -1.1104 0.716712 15.6633 12.2654
304 1 -1.1104 4.01391 15.6784 9.34595
303 2 2.2208 2.38357 16.9973 8.0177
301 1 -1.1104 3.67315 18.2671 9.52228
300 2 2.2208 5.15957 17.1011 10.8132
298 1 -1.1104 0.967133 18.3162 12.1937
286 1 -1.1104 3.6302 18.4076 12.154
293 2 2.2208 5.19337 19.9288 8.0396
292 1 -1.1104 0.965008 15.5195 9.38693
291 1 -1.1104 0.825345 18.2555 9.32645
288 1 -1.1104 6.5579 18.4067 9.39374
306 1 -1.1104 6.58313 15.8025 12.4046
371 2 2.2208 5.14801 14.3067 13.4101
364 2 2.2208 10.6731 8.45937 13.4221
368 2 2.2208 2.2059 17.0053 13.6126
320 2 2.2208 8.17435 16.9477 7.9456
199 2 2.2208 -0.406457 2.94635 7.75948
346 2 2.2208 -0.300282 -2.63829 13.3676
230 2 2.2208 13.7112 -2.57979 10.7662
338 2 2.2208 13.6225 2.89898 10.7269
30 2 2.2208 -0.200733 -5.4233 5.0609
337 2 2.2208 13.6442 14.2333 4.86824
370 2 2.2208 13.4441 0.00661696 13.5771
335 2 2.2208 13.5517 8.47017 5.07967
360 2 2.2208 5.14039 8.52872 13.3647
81 2 2.2208 -0.287168 5.782 4.96846
311 2 2.2208 -0.343741 19.8455 7.94476
393 2 2.2208 5.26601 5.85861 -0.425096
397 2 2.2208 -0.250203 5.74266 -0.465457
406 2 2.2208 5.19017 0.122621 16.36
407 1 -1.1104 1.10352 -4.09186 17.7421
411 1 -1.1104 1.20361 -3.92712 14.9885
419 1 -1.1104 0.812258 -1.19432 17.6991
421 2 2.2208 5.20374 -2.5547 19.0533
423 1 -1.1104 0.933218 -1.33078 14.7687
427 1 -1.1104 3.97979 -3.97717 17.6069
429 2 2.2208 2.24669 0.271157 19.1473
430 1 -1.1104 3.81459 -4.2125 14.8897
434 2 2.2208 2.39197 -2.69349 16.2204
436 1 -1.1104 3.92409 -1.11583 17.7481
437 1 -1.1104 3.78082 -1.45564 14.9345
480 2 2.2208 13.4975 14.1305 16.4011
431 1 -1.1104 3.86853 -3.86643 20.5243
416 1 -1.1104 6.9072 -4.0425 20.5097
439 2 2.2208 -0.307639 -5.41576 16.3935
412 1 -1.1104 0.908019 -3.98342 20.4364
438 1 -1.1104 3.67566 -1.17685 20.4137
728 2 2.2208 13.6121 5.91057 24.9287
474 2 2.2208 10.9643 -5.30312 16.2144
409 1 -1.1104 6.70823 -3.95788 17.7766
420 1 -1.1104 6.69276 -0.982694 17.6761
415 1 -1.1104 6.81983 -4.09411 14.7694
425 1 -1.1104 6.61188 -1.41822 14.9103
449 2 2.2208 10.8566 0.294479 16.401
450 1 -1.1104 12.4234 -4.06438 17.6768
452 1 -1.1104 12.3196 -4.07451 14.9709
456 1 -1.1104 12.2134 -1.14274 17.8171
457 2 2.2208 11.0239 -2.68545 19.1674
459 1 -1.1104 11.9811 -1.17891 14.9576
461 1 -1.1104 9.46341 -4.24901 17.5387
463 2 2.2208 8.15646 0.119365 19.191
464 1 -1.1104 9.61812 -4.01769 14.9608
468 2 2.2208 8.03084 -2.54181 16.507
470 1 -1.1104 9.53605 -1.19698 17.6755
471 1 -1.1104 9.23944 -1.28953 14.9541
472 1 -1.1104 9.60716 -1.31938 20.3758
426 1 -1.1104 6.64134 -1.31897 20.4217
389 2 2.2208 8.04993 2.88175 27.6915
460 1 -1.1104 12.3341 -1.36543 20.6228
413 1 -1.1104 0.83692 1.54548 14.7123
408 1 -1.1104 0.82021 1.77579 17.733
422 2 2.2208 5.16782 3.21136 19.1177
428 1 -1.1104 3.79192 1.57586 17.5926
432 1 -1.1104 3.63124 1.27171 14.8992
435 2 2.2208 2.36201 2.82437 16.3688
482 2 2.2208 5.01605 5.85576 16.4362
484 1 -1.1104 0.871352 7.36015 17.7688
490 1 -1.1104 0.563592 4.76292 18.1041
495 1 -1.1104 0.910386 4.25848 14.9919
504 2 2.2208 2.18451 5.9621 19.2991
506 1 -1.1104 3.7944 7.22087 15.0171
509 1 -1.1104 3.60471 4.40128 17.7521
511 1 -1.1104 3.655 4.29306 14.8365
503 1 -1.1104 3.77938 7.22541 17.8246
486 1 -1.1104 1.12427 7.20903 14.96
492 1 -1.1104 6.53573 4.59404 18.0124
496 1 -1.1104 0.91181 4.67025 20.6615
507 1 -1.1104 3.78 7.4128 20.5632
512 1 -1.1104 3.75638 4.56427 20.6715
747 1 -1.1104 6.55126 15.6332 23.4048
433 1 -1.1104 3.82965 1.75794 20.2419
414 1 -1.1104 1.08452 1.65458 20.3564
398 2 2.2208 10.7987 5.63883 27.6681
417 1 -1.1104 6.57368 1.50262 14.9279
485 1 -1.1104 6.50708 7.21853 17.9464
410 1 -1.1104 6.61595 1.66574 17.7069
488 1 -1.1104 6.41875 7.17037 15.0398
499 1 -1.1104 6.38633 4.31468 15.1175
451 1 -1.1104 12.2882 1.43943 17.7691
454 1 -1.1104 12.1223 1.66208 15.2064
458 2 2.2208 10.9015 2.94548 19.1188
462 1 -1.1104 9.28644 1.63027 17.8396
466 1 -1.1104 9.46742 1.66969 14.9663
469 2 2.2208 7.94224 2.79544 16.3647
518 2 2.2208 10.7794 5.86804 16.3533
523 1 -1.1104 12.3326 4.32822 17.9655
526 1 -1.1104 12.1017 4.43606 14.9473
531 2 2.2208 8.02724 5.74099 19.2499
533 1 -1.1104 9.18648 7.18197 14.8721
536 1 -1.1104 9.3615 4.46511 17.5951
538 1 -1.1104 9.19581 4.50698 14.8964
521 1 -1.1104 12.0264 7.10425 15.0804
520 1 -1.1104 11.9862 6.94294 18.1437
530 1 -1.1104 9.35895 7.10073 17.8199
534 1 -1.1104 9.4654 7.14594 20.5783
539 1 -1.1104 9.41475 4.36048 20.4854
500 1 -1.1104 6.6723 4.30146 20.6692
489 1 -1.1104 6.49872 7.04494 20.6881
522 1 -1.1104 12.192 7.12079 20.8429
527 1 -1.1104 12.2426 4.12451 20.7013
638 2 2.2208 10.9103 14.3049 24.9186
487 1 -1.1104 0.981605 7.43084 20.507
483 2 2.2208 5.03773 11.3975 16.3564
491 1 -1.1104 0.908032 9.86019 17.6031
494 2 2.2208 5.08508 8.51447 19.1211
497 1 -1.1104 0.721164 10.0668 14.9302
505 2 2.2208 2.10966 11.618 19.0608
508 2 2.2208 2.29486 8.72329 16.3201
510 1 -1.1104 3.72538 9.97373 17.7013
513 1 -1.1104 3.72289 9.98022 14.7297
546 1 -1.1104 0.678875 12.6909 17.7553
550 1 -1.1104 0.879275 12.7984 14.9644
566 1 -1.1104 3.55691 12.9337 17.7992
569 1 -1.1104 3.7087 12.8484 15.0235
554 1 -1.1104 6.70008 12.8197 14.9751
514 1 -1.1104 3.73663 10.1373 20.5965
570 1 -1.1104 3.68074 12.8767 20.6621
498 1 -1.1104 0.803422 10.1351 20.4309
479 2 2.2208 13.5906 16.8828 19.2098
543 2 2.2208 13.6286 8.44544 16.6119
378 2 2.2208 10.809 17.107 27.6072
493 1 -1.1104 6.54591 10.0635 17.8755
501 1 -1.1104 6.51721 10.0434 14.9958
548 1 -1.1104 6.41291 13.013 17.7924
519 2 2.2208 10.6213 11.5524 16.4436
524 1 -1.1104 12.342 9.85303 17.7825
525 2 2.2208 10.7097 8.42723 19.191
528 1 -1.1104 11.7166 10.1591 14.706
532 2 2.2208 7.94097 11.5723 19.2264
535 2 2.2208 7.86737 8.63222 16.1064
537 1 -1.1104 9.3136 9.8875 17.6777
540 1 -1.1104 9.16076 10.3355 15.0647
582 1 -1.1104 12.1635 12.6034 17.772
584 1 -1.1104 12.1749 12.8511 14.9819
593 1 -1.1104 9.1815 12.7726 17.8262
596 1 -1.1104 9.33698 13.2941 15.2367
502 1 -1.1104 6.60218 9.92863 20.8319
585 1 -1.1104 12.5034 12.7762 20.6901
541 1 -1.1104 9.24989 9.9314 20.648
597 1 -1.1104 9.45339 12.8337 20.5731
391 2 2.2208 13.6999 -2.58662 27.734
701 1 -1.1104 9.29341 15.5443 23.6947
560 2 2.2208 5.12516 14.2392 19.2847
573 2 2.2208 2.21612 14.3174 16.3404
545 2 2.2208 5.1944 17.1392 16.3728
547 1 -1.1104 0.919297 18.4284 17.7346
552 1 -1.1104 1.06152 18.6842 15.0525
558 1 -1.1104 0.666885 15.7531 17.8007
561 2 2.2208 5.2785 19.7757 19.2331
562 1 -1.1104 0.777694 15.7086 14.9941
567 1 -1.1104 3.78066 18.616 17.8617
568 2 2.2208 2.30808 17.3301 19.2322
571 1 -1.1104 3.96214 18.5485 14.9468
574 2 2.2208 2.42248 19.862 16.4233
575 1 -1.1104 3.45151 15.9261 17.6433
576 1 -1.1104 3.50489 15.7661 14.9111
564 1 -1.1104 6.44468 15.5363 15.1045
559 1 -1.1104 6.44592 15.7197 18.0449
563 1 -1.1104 0.755843 15.8975 20.6414
553 1 -1.1104 0.83188 18.752 20.482
556 1 -1.1104 6.58569 18.4894 14.9253
565 1 -1.1104 6.47134 15.7546 20.8831
549 1 -1.1104 6.75098 18.4987 17.779
600 2 2.2208 7.91783 14.2532 16.5459
589 2 2.2208 10.8997 14.1795 19.318
581 2 2.2208 10.7795 17.0206 16.2808
583 1 -1.1104 12.2128 18.2977 17.8064
586 1 -1.1104 12.1336 18.4848 15.0238
588 1 -1.1104 12.0132 15.4275 17.7533
590 2 2.2208 10.8418 19.7468 19.2574
591 1 -1.1104 11.9796 15.4411 15.0265
594 1 -1.1104 9.46875 18.4598 17.6351
595 2 2.2208 8.01421 16.9725 19.2588
598 1 -1.1104 9.60117 18.5942 15.022
601 2 2.2208 8.09106 19.816 16.4856
602 1 -1.1104 9.43794 15.436 18.0793
603 1 -1.1104 9.02931 15.9739 15.2245
604 1 -1.1104 9.42103 15.6903 20.8869
699 2 2.2208 8.04589 14.2421 22.2159
424 1 -1.1104 1.04711 -1.10495 20.5356
669 2 2.2208 8.06402 -5.38371 24.7832
668 2 2.2208 10.8847 -5.43177 22.1047
643 2 2.2208 -0.234486 0.206148 22.0203
388 2 2.2208 8.10082 -2.78373 27.4472
609 2 2.2208 5.31107 0.0101233 21.8877
610 1 -1.1104 1.07443 -4.09791 23.1865
614 1 -1.1104 0.742156 -4.17364 26.2095
618 1 -1.1104 1.22143 -1.42742 23.4213
620 2 2.2208 5.32355 -2.64816 24.856
622 1 -1.1104 1.09732 -1.36309 26.2205
624 1 -1.1104 3.98903 -4.03928 23.2156
626 2 2.2208 2.45531 0.164327 24.8306
627 1 -1.1104 3.61001 -3.93242 25.9141
629 2 2.2208 2.52018 -2.51068 21.9182
631 1 -1.1104 3.97625 -1.29472 23.1875
632 1 -1.1104 3.91069 -1.12351 26.2546
386 2 2.2208 -0.405034 0.221077 27.6001
441 2 2.2208 2.42025 -5.3908 19.3365
404 2 2.2208 5.05322 16.9444 27.7474
377 2 2.2208 7.97177 14.3196 27.5478
381 2 2.2208 5.24615 0.124371 27.4881
453 1 -1.1104 12.2616 -4.04061 20.7366
465 1 -1.1104 9.68691 -4.06068 20.5551
642 2 2.2208 -0.358576 -2.55751 25.0682
383 2 2.2208 2.37052 3.1406 27.555
633 1 -1.1104 12.153 18.3579 23.418
616 1 -1.1104 6.47724 -4.031 26.1437
623 1 -1.1104 6.81256 -1.2269 26.1551
612 1 -1.1104 6.67743 -4.15671 23.4022
619 1 -1.1104 6.53813 -1.45045 23.3916
645 2 2.2208 10.8541 0.15051 21.8023
646 1 -1.1104 12.3991 -3.8963 23.5572
648 1 -1.1104 12.1573 -3.91081 26.4619
650 1 -1.1104 12.1132 -1.16142 23.4681
651 2 2.2208 10.8121 -2.68261 24.9243
653 1 -1.1104 12.3814 -1.28586 26.2084
654 1 -1.1104 9.43659 -4.00773 23.476
656 2 2.2208 8.22546 0.20188 24.7864
657 1 -1.1104 9.26918 -4.06755 26.1913
659 2 2.2208 7.90478 -2.71811 21.9337
661 1 -1.1104 9.20882 -1.35785 23.1269
662 1 -1.1104 9.66425 -1.25727 26.1109
403 2 2.2208 2.28866 14.2778 27.7588
395 2 2.2208 5.30037 11.4245 27.7257
665 1 -1.1104 9.41628 18.389 23.4055
405 2 2.2208 2.31533 19.7669 27.7368
611 1 -1.1104 1.03082 1.33636 23.3056
615 1 -1.1104 0.927193 1.70832 26.0625
621 2 2.2208 5.20996 2.95317 24.6759
625 1 -1.1104 3.71998 1.70045 23.2412
628 1 -1.1104 3.63075 1.63019 26.1639
630 2 2.2208 2.36039 3.04746 21.8312
674 2 2.2208 5.29369 5.86096 22.0725
678 1 -1.1104 0.944372 7.30225 26.1132
680 1 -1.1104 0.883395 4.20212 23.378
685 1 -1.1104 1.00892 4.54273 26.2709
690 2 2.2208 2.43459 5.73707 24.6846
694 1 -1.1104 3.70919 4.38373 23.34
696 1 -1.1104 3.89347 4.34997 26.028
676 1 -1.1104 0.875568 7.22279 23.3043
692 1 -1.1104 3.84118 7.26473 26.2407
689 1 -1.1104 3.68781 7.21072 23.4554
682 1 -1.1104 6.66151 4.25284 23.5084
613 1 -1.1104 6.7066 1.39719 23.3731
640 2 2.2208 2.35706 -5.37201 24.7415
418 1 -1.1104 6.63613 1.71616 20.4238
455 1 -1.1104 12.2961 1.36984 20.5439
387 2 2.2208 10.8074 0.108944 27.4815
687 1 -1.1104 6.74635 4.36111 26.3737
679 1 -1.1104 6.63739 7.12108 26.59
677 1 -1.1104 6.49197 7.05825 23.5593
617 1 -1.1104 6.74679 1.60596 26.1139
467 1 -1.1104 9.36419 1.49658 20.6242
647 1 -1.1104 12.5313 1.50987 23.3971
649 1 -1.1104 12.3204 1.53008 26.2936
652 2 2.2208 11.0749 2.77101 24.6781
655 1 -1.1104 9.62923 1.37427 23.4471
658 1 -1.1104 9.37774 1.46114 26.2696
660 2 2.2208 7.95534 2.95524 21.963
706 1 -1.1104 9.64387 4.32192 26.0445
708 1 -1.1104 9.52105 4.18464 23.3412
712 2 2.2208 7.98966 5.71245 24.9115
713 2 2.2208 10.849 5.82406 22.106
716 1 -1.1104 12.1045 7.05447 26.4659
717 1 -1.1104 12.2174 4.23552 23.4977
720 1 -1.1104 12.2348 4.33448 26.2496
722 1 -1.1104 9.42651 7.1671 23.6515
710 1 -1.1104 9.27978 7.12061 26.2189
715 1 -1.1104 12.2544 7.3479 23.424
382 2 2.2208 2.42623 -2.63904 27.6488
551 1 -1.1104 0.802281 13.0286 20.5708
605 2 2.2208 13.6712 16.9475 24.8092
675 2 2.2208 5.11977 11.3484 21.9441
681 1 -1.1104 0.960658 10.0638 23.6228
684 2 2.2208 5.03213 8.68507 24.9468
686 1 -1.1104 0.901925 10.1027 26.4552
691 2 2.2208 2.38451 11.6372 24.9788
693 2 2.2208 2.38672 8.73017 22.0681
695 1 -1.1104 3.64254 10.1223 23.4556
697 1 -1.1104 3.60985 10.3172 26.4299
731 1 -1.1104 3.52798 12.8651 23.4116
735 1 -1.1104 0.94074 13.1297 26.1038
741 1 -1.1104 0.89158 12.7449 23.2905
746 1 -1.1104 3.72992 12.9706 26.1507
375 2 2.2208 13.6791 20.1411 27.7771
555 1 -1.1104 6.65144 12.9596 20.6461
637 2 2.2208 -0.357229 -5.34811 21.9827
683 1 -1.1104 6.55011 9.85875 23.4481
739 1 -1.1104 6.56077 12.8454 23.3692
730 1 -1.1104 6.7399 12.6707 26.0653
529 1 -1.1104 12.3308 9.87175 20.4898
688 1 -1.1104 6.52488 9.97635 26.3151
608 1 -1.1104 12.1725 12.7887 23.5873
673 1 -1.1104 9.66986 12.8469 26.308
664 1 -1.1104 9.4922 12.882 23.6847
705 1 -1.1104 9.42327 9.93468 26.3498
707 1 -1.1104 9.56384 10.0321 23.4878
709 2 2.2208 7.97527 8.5108 22.0459
711 2 2.2208 8.1235 11.2997 24.8712
714 2 2.2208 10.8224 11.5156 22.0177
718 1 -1.1104 12.3382 10.1346 23.4137
719 2 2.2208 10.916 8.45086 24.8963
721 1 -1.1104 12.2824 10.0731 26.3236
634 1 -1.1104 12.2101 12.5444 26.3863
399 2 2.2208 8.09023 8.49292 27.8133
396 2 2.2208 -0.307485 11.4192 27.6562
379 2 2.2208 7.97014 19.8109 27.7011
557 1 -1.1104 6.7437 18.4183 20.6821
577 1 -1.1104 3.76146 15.691 20.3085
572 1 -1.1104 3.66975 18.7192 20.6441
732 1 -1.1104 6.69393 15.5184 26.1984
738 2 2.2208 5.19307 14.2145 24.7169
742 2 2.2208 5.16241 17.0803 22.1711
740 1 -1.1104 1.09531 18.2937 23.4026
727 2 2.2208 2.12163 14.3754 21.9531
745 1 -1.1104 4.03475 15.3637 26.5752
744 2 2.2208 2.25082 17.0182 24.7837
743 1 -1.1104 3.59283 18.2676 26.1341
750 2 2.2208 2.38408 20.0567 22.0237
749 1 -1.1104 3.69594 15.6644 23.6263
748 1 -1.1104 0.706369 15.5627 23.2715
729 1 -1.1104 3.68947 18.4472 23.4755
733 1 -1.1104 0.526025 18.527 26.3138
734 1 -1.1104 1.02076 15.8996 26.4903
737 2 2.2208 5.12801 19.757 24.6652
702 2 2.2208 -0.430213 8.63779 24.8416
700 2 2.2208 7.98963 19.8289 22.0972
544 2 2.2208 -0.470571 2.94918 19.2069
667 2 2.2208 7.96461 17.0908 24.8563
736 1 -1.1104 6.64154 18.452 23.4911
599 1 -1.1104 9.36809 18.3885 20.4157
704 1 -1.1104 9.36941 15.8651 26.4491
635 1 -1.1104 12.3432 18.3686 25.9795
670 1 -1.1104 6.39102 18.3641 26.3215
663 1 -1.1104 12.2899 15.5051 26.1212
592 1 -1.1104 12.1304 15.6469 20.545
587 1 -1.1104 12.2682 18.4509 20.5798
698 1 -1.1104 9.4003 18.6075 26.274
636 1 -1.1104 12.0409 15.5099 23.1439
607 2 2.2208 10.8737 17.1236 22.1068
641 2 2.2208 10.8469 19.9738 24.8231
606 2 2.2208 13.6242 19.7743 21.9569
443 2 2.2208 -0.416398 -2.55072 19.1084
672 2 2.2208 13.5619 0.142028 24.9337
390 2 2.2208 11.0982 -5.42059 27.8215
726 2 2.2208 13.474 11.445 25.0773
725 2 2.2208 -0.410486 14.2841 24.758
666 2 2.2208 13.5382 -5.35861 24.9683
477 2 2.2208 13.6039 -2.74732 16.334
394 2 2.2208 2.27901 8.71628 27.6368
376 2 2.2208 7.854 17.2131 13.7649
400 2 2.2208 10.8067 11.2919 27.7815
751 2 2.2208 5.17848 22.6757 5.11329
753 1 -1.1104 0.908465 23.9376 0.853353
754 1 -1.1104 1.02538 24.0719 3.61509
755 1 -1.1104 0.911719 21.2016 0.734066
757 2 2.2208 5.08902 25.5427 2.28466
758 1 -1.1104 1.13175 20.9637 3.4688
760 1 -1.1104 3.75793 24.1634 1.02927
761 2 2.2208 2.30594 22.617 2.26536
763 1 -1.1104 3.90278 24.086 3.66598
764 2 2.2208 2.43036 25.4656 5.05337
765 1 -1.1104 3.82561 21.2149 0.972881
767 1 -1.1104 3.82233 21.2222 4.16411
759 1 -1.1104 0.929454 26.8157 3.90693
898 1 -1.1104 3.74586 23.9902 6.53146
892 1 -1.1104 0.908365 23.823 6.59891
768 1 -1.1104 3.7644 26.8318 3.93992
894 1 -1.1104 0.877964 21.2315 6.34029
775 1 -1.1104 6.7806 26.9485 0.890199
766 1 -1.1104 3.90195 27.032 0.995791
893 1 -1.1104 6.59263 24.1658 6.48592
897 1 -1.1104 6.47811 26.8913 6.63728
1717 3 0 10.0676 46.4469 10.2998
772 1 -1.1104 6.41233 24.2428 0.556644
776 1 -1.1104 6.61171 21.2499 3.66065
773 1 -1.1104 6.51753 24.0164 3.58231
774 1 -1.1104 6.64044 21.2564 1.03801
778 2 2.2208 10.9908 22.6442 5.08181
780 1 -1.1104 12.0061 24.0669 0.937031
781 1 -1.1104 12.1346 24.3647 3.71391
782 1 -1.1104 12.023 21.4565 0.985208
784 2 2.2208 10.9371 25.5949 2.1579
785 1 -1.1104 12.3524 21.4459 3.68527
787 1 -1.1104 9.26224 24.0467 0.976683
788 2 2.2208 7.99869 22.7511 2.4323
790 1 -1.1104 9.40313 24.0444 3.85113
791 2 2.2208 7.94499 25.6565 5.05088
794 1 -1.1104 9.45768 21.2779 3.62753
792 1 -1.1104 9.3235 21.1917 0.847264
786 1 -1.1104 12.3394 27.0797 3.42976
795 1 -1.1104 9.24099 26.8713 3.52855
926 1 -1.1104 12.64 21.1392 6.55185
777 1 -1.1104 6.5527 26.978 3.80746
793 1 -1.1104 9.53092 26.8506 0.564948
927 1 -1.1104 12.1934 26.883 6.36342
896 1 -1.1104 6.61252 21.4146 6.57167
928 1 -1.1104 9.24539 24.2165 6.72703
925 1 -1.1104 12.1809 24.2013 6.57712
1067 2 2.2208 13.6819 42.5213 10.6802
756 1 -1.1104 1.04464 26.807 0.88903
752 2 2.2208 5.1862 28.3914 5.24003
762 2 2.2208 2.43026 28.1195 2.46978
800 1 -1.1104 0.924326 29.7419 0.91542
803 1 -1.1104 1.19943 29.6255 3.67503
806 1 -1.1104 0.573669 32.5439 0.832542
807 2 2.2208 5.12639 31.1157 2.33405
809 1 -1.1104 0.83525 32.6134 3.75132
811 1 -1.1104 3.75439 29.6628 0.945305
814 1 -1.1104 4.02865 29.6776 3.74644
816 2 2.2208 2.31307 31.0965 5.17218
818 1 -1.1104 3.42921 32.5831 0.700361
819 1 -1.1104 3.60292 32.4125 3.64802
949 1 -1.1104 0.864921 29.8359 6.53086
810 1 -1.1104 6.52349 32.6761 3.76283
1677 1 -1.1104 3.67917 46.501 6.52926
895 1 -1.1104 1.05252 26.9276 6.58642
957 1 -1.1104 3.6618 32.5045 6.50699
955 1 -1.1104 3.62705 29.7295 6.41092
825 1 -1.1104 6.68425 32.8569 0.805045
783 1 -1.1104 12.1325 26.9161 0.841892
823 1 -1.1104 6.30563 29.769 0.781161
954 1 -1.1104 6.53596 32.4114 6.55825
824 1 -1.1104 6.6959 29.7075 3.54441
779 2 2.2208 10.802 28.371 4.9274
789 2 2.2208 7.93883 28.4257 2.13179
827 1 -1.1104 12.0855 30.0219 0.901416
829 1 -1.1104 12.1704 29.9138 3.70165
831 1 -1.1104 12.2785 32.7047 0.634064
832 2 2.2208 10.6809 31.2073 2.17174
834 1 -1.1104 12.2415 32.6954 3.4404
835 1 -1.1104 9.20873 29.8817 0.771934
838 1 -1.1104 9.39236 29.814 3.63385
840 2 2.2208 8.0855 31.1983 5.03563
842 1 -1.1104 9.34923 32.75 1.1648
843 1 -1.1104 9.55226 32.549 3.93083
985 1 -1.1104 12.0961 32.5969 6.50665
988 1 -1.1104 9.39108 32.5748 6.56502
986 1 -1.1104 9.36269 29.6762 6.45039
1679 1 -1.1104 1.22726 46.5464 12.3158
771 2 2.2208 -0.343233 25.3599 2.36958
813 2 2.2208 2.26039 33.9871 2.25051
799 2 2.2208 4.99785 33.9409 5.18435
801 1 -1.1104 1.01696 35.3582 0.758405
804 1 -1.1104 0.696623 35.3594 3.63065
808 2 2.2208 5.03035 36.842 2.41962
812 1 -1.1104 3.71785 35.3216 1.22552
815 1 -1.1104 3.45223 35.1521 3.80643
817 2 2.2208 2.20912 36.6252 5.37551
845 2 2.2208 5.1922 39.637 5.26846
851 1 -1.1104 1.16668 38.3693 0.708927
856 1 -1.1104 0.734091 38.0859 3.84475
861 2 2.2208 2.45999 39.6525 2.41681
865 1 -1.1104 3.80512 38.2061 1.12265