ITEM: TIMESTEP
100000
ITEM: NUMBER OF ATOMS
17760
ITEM: BOX BOUNDS pp pp pp
-4.5723057820943830e-01 2.7797230578209550e+01
-5.3987931678945591e+00 3.3347879316790022e+02
-4.5674339794775337e-01 2.7796743397947754e+01
ITEM: ATOMS id type q x y z
1 2 2.2208 5.17222 0.232589 5.19034
2 1 -1.1104 0.927946 -3.84104 1.09164
6 1 -1.1104 1.05362 -4.14243 3.91455
10 1 -1.1104 0.745058 -1.05896 1.16792
12 2 2.2208 5.15094 -2.50955 2.60353
14 1 -1.1104 0.754052 -1.07968 3.93603
16 1 -1.1104 3.94928 -3.95877 1.02023
18 2 2.2208 2.34882 0.460432 2.40916
19 1 -1.1104 3.70654 -3.95265 4.09953
21 2 2.2208 2.19916 -2.47285 5.21174
23 1 -1.1104 3.51319 -1.03441 1.00337
24 1 -1.1104 3.59991 -0.98549 3.71266
15 1 -1.1104 6.74957 -1.20592 3.96801
11 1 -1.1104 6.50708 -0.986971 1.28783
385 2 2.2208 5.09855 -5.28588 -0.217684
51 2 2.2208 7.92336 -5.25695 2.29851
202 2 2.2208 2.20741 -5.22383 8.13327
4 1 -1.1104 6.67364 -3.98471 0.76294
8 1 -1.1104 6.59854 -3.92661 3.68476
82 2 2.2208 -0.378879 8.61636 2.46632
31 2 2.2208 10.9058 0.302339 5.15714
32 1 -1.1104 12.1827 -3.93958 0.821499
34 1 -1.1104 12.2509 -4.01288 3.87171
36 1 -1.1104 12.218 -1.0932 0.889482
37 2 2.2208 10.6616 -2.61519 2.33859
39 1 -1.1104 12.2468 -1.14303 3.45724
40 1 -1.1104 9.4089 -3.91701 1.0002
42 2 2.2208 8.00019 0.356176 2.41561
43 1 -1.1104 9.48112 -4.00755 3.80625
45 2 2.2208 8.09152 -2.52344 5.20462
47 1 -1.1104 9.31361 -1.24728 0.846265
48 1 -1.1104 9.43829 -0.973839 3.69847
345 2 2.2208 13.4045 19.8745 11.0787
389 2 2.2208 8.13889 3.11851 -0.38552
207 1 -1.1104 12.2682 -1.25061 6.39778
404 2 2.2208 5.08423 16.9902 -0.311554
29 2 2.2208 5.12664 -5.29345 5.2846
321 1 -1.1104 9.03935 18.5777 12.1044
3 1 -1.1104 0.984914 1.72096 0.942282
7 1 -1.1104 1.02588 1.711 3.83984
13 2 2.2208 5.29375 3.18216 2.35035
17 1 -1.1104 3.61165 1.73341 1.03834
20 1 -1.1104 3.90238 1.55959 3.87545
22 2 2.2208 2.33441 3.07038 5.22444
54 2 2.2208 5.31196 5.83099 5.15811
60 1 -1.1104 1.0699 4.48339 0.868396
67 1 -1.1104 1.1017 4.46473 3.78825
72 2 2.2208 2.52268 5.81842 2.38661
76 1 -1.1104 3.78812 4.31039 1.04934
79 1 -1.1104 3.88391 4.43581 3.78246
56 1 -1.1104 1.01543 7.15478 0.990271
58 1 -1.1104 1.15443 7.31128 3.48709
74 1 -1.1104 3.85988 7.21105 3.70015
71 1 -1.1104 3.75278 7.28796 0.960491
5 1 -1.1104 6.5905 1.57985 0.743953
238 1 -1.1104 3.76878 7.19828 6.44673
9 1 -1.1104 6.78786 1.60496 3.63088
59 1 -1.1104 6.58354 7.09834 3.73752
57 1 -1.1104 6.97587 7.33982 1.05791
69 1 -1.1104 6.89264 4.34917 3.67762
316 2 2.2208 7.84266 20.1019 10.8413
173 1 -1.1104 3.69366 1.75841 6.54984
63 1 -1.1104 6.46871 4.45023 0.974218
33 1 -1.1104 12.4526 1.74787 1.06976
35 1 -1.1104 12.351 1.66619 4.08296
38 2 2.2208 11.088 3.09908 2.4459
41 1 -1.1104 9.47732 1.57108 1.35296
44 1 -1.1104 9.52627 1.71871 4.01618
46 2 2.2208 8.04125 2.97332 5.21938
84 2 2.2208 10.8344 5.91519 5.13933
86 1 -1.1104 12.3234 7.1145 0.866958
88 1 -1.1104 12.2969 4.51663 0.842838
92 1 -1.1104 12.2643 4.67564 3.80989
94 1 -1.1104 9.6658 7.22207 1.17965
95 2 2.2208 8.16796 5.91642 2.53224
99 1 -1.1104 9.56193 4.27725 0.956574
102 1 -1.1104 9.55803 4.52627 3.83914
97 1 -1.1104 9.33016 7.22427 4.14788
87 1 -1.1104 12.2843 7.40249 3.72404
269 1 -1.1104 9.13621 4.55492 6.72717
204 2 2.2208 -0.40062 -5.40942 10.9515
266 1 -1.1104 12.3234 4.56435 6.62761
324 2 2.2208 10.762 19.8523 8.1802
333 2 2.2208 13.6752 14.3143 10.8756
323 1 -1.1104 12.2359 15.6199 9.53228
55 2 2.2208 5.15833 11.3923 5.34901
61 1 -1.1104 0.950726 10.143 0.91248
66 2 2.2208 5.439 8.49698 2.33397
68 1 -1.1104 1.06323 10.0905 3.98478
73 2 2.2208 2.32244 11.3268 2.34674
75 2 2.2208 2.49321 8.62494 5.16054
77 1 -1.1104 3.68666 9.88218 1.07917
80 1 -1.1104 3.8243 10.1912 3.93001
107 1 -1.1104 0.916312 12.8206 1.12359
113 1 -1.1104 0.847789 12.9475 3.90887
123 1 -1.1104 3.73026 12.784 0.862768
128 1 -1.1104 3.7027 12.7941 3.65578
64 1 -1.1104 6.53647 10.1222 0.930621
70 1 -1.1104 6.33211 9.93813 3.97917
381 2 2.2208 5.20637 0.262435 -0.431153
124 1 -1.1104 3.86741 12.916 6.60296
229 2 2.2208 13.4947 0.241198 7.82487
230 2 2.2208 13.3896 -2.6217 10.9564
115 1 -1.1104 6.52362 12.9107 4.04329
110 1 -1.1104 6.45951 12.9874 1.25269
85 2 2.2208 10.702 11.5606 5.12663
89 1 -1.1104 12.2013 10.1174 1.10128
91 2 2.2208 10.7762 8.76336 2.48818
93 1 -1.1104 12.1592 10.1816 3.91214
96 2 2.2208 7.91468 11.5861 2.54258
98 2 2.2208 7.99977 8.75174 5.34031
100 1 -1.1104 9.15105 10.1042 1.18105
103 1 -1.1104 9.25182 10.2439 3.89132
142 1 -1.1104 12.2107 12.9867 0.965889
146 1 -1.1104 12.1282 13.0104 3.78891
153 1 -1.1104 9.42638 12.9013 0.913191
158 1 -1.1104 9.30761 13.1019 3.71627
373 2 2.2208 10.5812 14.2661 13.589
90 1 -1.1104 12.0828 10.3437 6.57713
337 2 2.2208 13.5605 14.4147 5.28431
379 2 2.2208 7.7522 19.9321 -0.250082
165 2 2.2208 13.5037 17.2272 2.44096
130 2 2.2208 2.4282 14.1922 5.39303
119 2 2.2208 5.12509 14.2765 2.53866
106 2 2.2208 5.2524 17.0658 5.2009
109 1 -1.1104 0.932824 18.581 1.08601
114 1 -1.1104 1.10413 18.3967 4.01159
116 1 -1.1104 1.01494 15.5954 1.33345
120 2 2.2208 4.92933 20.087 2.48737
121 1 -1.1104 0.821399 15.6668 3.93096
125 1 -1.1104 3.53383 18.6444 0.919482
127 2 2.2208 2.41199 17.0252 2.52804
129 1 -1.1104 3.98124 18.3952 3.81109
131 2 2.2208 2.29085 19.8555 5.49534
132 1 -1.1104 3.72539 15.5921 1.28622
134 1 -1.1104 4.04536 15.5704 4.13214
302 1 -1.1104 0.929012 18.2177 6.86779
133 1 -1.1104 3.75311 15.7346 6.62957
117 1 -1.1104 0.982628 15.476 6.56582
138 1 -1.1104 6.39726 18.3962 1.05974
122 1 -1.1104 6.59278 15.6818 3.89291
329 1 -1.1104 12.0223 18.6201 12.31
315 1 -1.1104 9.35068 15.7952 12.2683
320 2 2.2208 7.89908 16.953 8.21826
382 2 2.2208 2.36642 -2.61971 -0.291173
156 1 -1.1104 9.3801 18.2296 6.66464
139 1 -1.1104 6.69186 18.563 4.07561
118 1 -1.1104 6.62379 15.7586 6.82155
140 1 -1.1104 6.53059 15.6653 1.02953
150 2 2.2208 10.7162 14.6261 2.5541
160 2 2.2208 7.87804 14.1709 5.3734
141 2 2.2208 10.7297 17.0167 5.33722
144 1 -1.1104 12.0177 18.5548 0.918595
147 1 -1.1104 11.9858 18.4545 3.98852
148 1 -1.1104 12.2034 15.848 1.00004
151 2 2.2208 10.6258 20.0726 2.57585
152 1 -1.1104 12.1402 15.7038 3.87834
155 1 -1.1104 9.26315 18.5634 1.25168
157 2 2.2208 7.81484 17.2269 2.46282
159 1 -1.1104 9.34145 18.5636 3.94978
161 2 2.2208 7.9663 19.8825 5.37139
162 1 -1.1104 9.42921 15.7371 0.842314
164 1 -1.1104 9.26351 15.7968 3.87516
327 1 -1.1104 12.1692 18.5009 9.75904
145 1 -1.1104 12.2394 18.4445 6.94121
163 1 -1.1104 9.42497 15.5568 6.56333
396 2 2.2208 -0.412737 11.5834 -0.357067
340 2 2.2208 13.5245 11.5329 8.01019
166 1 -1.1104 0.773268 -4.05512 6.6078
172 1 -1.1104 3.59683 -3.95201 6.77993
170 1 -1.1104 0.923879 -1.26302 6.49376
174 1 -1.1104 3.79415 -1.12344 6.55397
168 1 -1.1104 6.41528 -3.68858 6.55893
171 1 -1.1104 6.78276 -1.12827 6.79442
175 2 2.2208 5.02971 0.461938 11.0121
176 1 -1.1104 1.0082 -3.98327 12.3524
180 1 -1.1104 0.992941 -3.81807 9.57251
184 1 -1.1104 0.606863 -1.09877 12.171
186 2 2.2208 5.0328 -2.56295 8.17714
188 1 -1.1104 0.842954 -1.08184 9.36469
190 1 -1.1104 3.75612 -3.96552 12.2704
192 2 2.2208 2.23528 0.210379 8.02466
193 1 -1.1104 3.79897 -3.92056 9.55868
195 2 2.2208 2.28092 -2.52596 10.7941
197 1 -1.1104 3.79604 -0.990841 12.5232
198 1 -1.1104 3.70856 -1.04898 9.35324
182 1 -1.1104 6.46738 -3.88407 9.28215
185 1 -1.1104 6.55025 -1.02998 12.383
178 1 -1.1104 6.64607 -3.76831 12.2517
189 1 -1.1104 6.36164 -1.10005 9.65148
341 2 2.2208 13.4346 8.54137 10.8533
149 1 -1.1104 12.4035 15.8899 6.69819
205 1 -1.1104 12.2953 -3.87615 6.66463
210 1 -1.1104 9.6678 -1.28075 6.41262
336 2 2.2208 13.6475 19.8965 5.42086
81 2 2.2208 -0.406783 5.85155 5.07054
208 1 -1.1104 9.23247 -4.0224 6.5024
211 2 2.2208 10.8788 0.391733 10.7702
212 1 -1.1104 12.2542 -4.06357 12.2787
214 1 -1.1104 12.2808 -4.09029 9.45272
216 1 -1.1104 12.1612 -1.00518 12.3311
217 2 2.2208 10.7708 -2.39113 8.00196
219 1 -1.1104 12.1025 -1.08544 9.21415
220 1 -1.1104 9.46001 -3.58375 12.1349
222 2 2.2208 7.88022 0.236209 8.10103
223 1 -1.1104 9.48773 -4.07393 9.22585
225 2 2.2208 7.87761 -2.30845 10.9586
227 1 -1.1104 9.38346 -1.02673 12.2203
228 1 -1.1104 9.28969 -1.13596 9.34664
377 2 2.2208 7.86449 14.2934 -0.349301
325 2 2.2208 10.8025 14.3351 8.12941
239 1 -1.1104 3.53407 4.47857 6.36478
169 1 -1.1104 6.52182 1.62569 6.72948
237 1 -1.1104 6.22969 4.45719 6.69221
234 1 -1.1104 1.05883 7.2263 6.5103
236 1 -1.1104 0.960524 4.18261 6.65074
167 1 -1.1104 0.705141 1.41974 6.79503
235 1 -1.1104 6.68546 7.26078 6.69713
177 1 -1.1104 0.804783 1.66812 12.5095
181 1 -1.1104 0.788062 1.75088 9.52325
187 2 2.2208 5.04535 3.17402 8.16174
191 1 -1.1104 3.59226 1.72858 12.2981
194 1 -1.1104 3.41407 1.95423 9.47456
196 2 2.2208 2.25626 3.12812 10.9677
240 2 2.2208 5.04557 5.84616 11.1813
244 1 -1.1104 1.08174 7.24624 9.22196
246 1 -1.1104 0.995568 4.43842 12.4191
251 1 -1.1104 0.796288 4.56628 9.6764
255 1 -1.1104 3.68325 7.37084 12.224
256 2 2.2208 2.22965 5.67186 7.80706
260 1 -1.1104 3.68585 4.43636 12.3142
262 1 -1.1104 3.6731 4.61172 9.35029
242 1 -1.1104 0.848682 7.28381 12.0936
258 1 -1.1104 3.78028 7.10863 9.08366
243 1 -1.1104 6.37171 7.36749 12.6238
179 1 -1.1104 6.73506 1.88103 12.3276
245 1 -1.1104 6.42454 7.38181 9.60705
183 1 -1.1104 6.5952 1.6705 9.43236
253 1 -1.1104 6.47689 4.26707 9.68152
248 1 -1.1104 6.44791 4.6249 12.4983
317 2 2.2208 8.04092 14.1557 10.9132
104 2 2.2208 13.6588 11.6186 2.29413
265 1 -1.1104 12.0853 7.43966 6.53124
209 1 -1.1104 9.34825 1.56097 6.89869
267 1 -1.1104 9.18386 7.48435 6.86241
206 1 -1.1104 12.17 1.70792 6.53724
335 2 2.2208 13.5719 8.7194 5.32708
213 1 -1.1104 12.138 1.71401 12.205
215 1 -1.1104 12.064 1.55337 9.3899
218 2 2.2208 10.6897 3.05724 8.18943
221 1 -1.1104 9.40003 1.75744 12.1836
224 1 -1.1104 9.24294 1.61267 9.60937
226 2 2.2208 8.08066 3.16667 10.8832
268 1 -1.1104 9.51482 4.41687 9.57279
271 1 -1.1104 9.53907 4.46233 12.3863
273 1 -1.1104 9.24242 7.25663 9.73508
275 2 2.2208 7.73019 5.97394 8.32223
276 2 2.2208 10.8965 5.79913 10.8486
278 1 -1.1104 12.2063 7.21818 12.1757
279 1 -1.1104 11.9862 7.2209 9.51577
280 1 -1.1104 12.2923 4.49592 11.9692
283 1 -1.1104 12.3875 4.29647 9.24054
285 1 -1.1104 9.46775 7.40739 12.148
203 2 2.2208 5.2044 -5.33342 10.9188
62 1 -1.1104 1.14894 10.1088 6.74738
78 1 -1.1104 3.61239 10.1347 6.67593
111 1 -1.1104 6.54994 12.9575 6.72975
108 1 -1.1104 0.993873 12.894 6.74778
305 1 -1.1104 3.79537 12.911 9.45072
287 1 -1.1104 3.66664 12.965 12.4665
299 1 -1.1104 0.801752 12.8444 12.2846
294 1 -1.1104 1.15591 13.016 9.50444
241 2 2.2208 4.96774 11.5176 10.9209
247 1 -1.1104 1.08978 9.87656 12.1533
250 2 2.2208 5.13168 8.56771 8.02285
252 1 -1.1104 1.01158 10.0814 9.53634
257 2 2.2208 2.30156 11.6033 8.17822
259 2 2.2208 2.28238 8.56489 10.8115
261 1 -1.1104 3.8647 10.2454 12.49
263 1 -1.1104 3.82435 9.98989 9.70906
297 1 -1.1104 6.35399 12.8872 12.1806
249 1 -1.1104 6.44861 10.1253 12.547
290 1 -1.1104 6.68114 13.1186 9.44845
254 1 -1.1104 6.6386 10.2632 9.68283
318 1 -1.1104 9.32307 18.4218 9.39681
372 2 2.2208 10.5155 19.9127 13.4817
65 1 -1.1104 6.39035 10.1819 6.90046
154 1 -1.1104 9.27569 12.8428 6.69011
101 1 -1.1104 9.30835 10.1973 6.88286
143 1 -1.1104 12.105 13.1455 6.55267
330 1 -1.1104 11.9896 12.747 12.3924
328 1 -1.1104 12.246 12.795 9.44625
322 1 -1.1104 8.98389 12.816 12.4254
319 1 -1.1104 9.66281 12.9718 9.50178
264 1 -1.1104 9.27315 10.0683 9.66246
270 1 -1.1104 9.37628 10.088 12.2422
272 2 2.2208 7.84167 8.70971 11.0394
274 2 2.2208 7.84746 11.5905 8.26039
277 2 2.2208 10.7392 11.4637 10.8137
281 1 -1.1104 12.2936 9.76861 12.5202
282 2 2.2208 10.6184 8.7071 8.06133
284 1 -1.1104 11.9829 10.0488 9.41223
344 2 2.2208 -0.399076 5.88352 10.9615
112 1 -1.1104 6.59347 18.5834 6.84631
126 1 -1.1104 3.56786 18.5029 6.7071
296 1 -1.1104 6.51687 18.6765 12.5523
295 2 2.2208 5.03915 14.3753 8.11465
310 2 2.2208 2.1568 14.547 10.9793
309 2 2.2208 2.27293 19.7826 10.8657
308 1 -1.1104 3.60802 15.7515 12.281
307 1 -1.1104 0.858572 15.8136 12.2446
304 1 -1.1104 3.73813 15.7538 9.44808
303 2 2.2208 2.50383 17.1356 8.10021
301 1 -1.1104 3.77054 18.5654 9.62203
300 2 2.2208 5.12467 17.097 11.0805
298 1 -1.1104 0.649355 18.4525 12.4736
286 1 -1.1104 3.44012 18.6983 12.4567
293 2 2.2208 4.98219 19.8333 8.09048
292 1 -1.1104 0.699331 15.8726 9.43214
291 1 -1.1104 0.848496 18.5828 9.65165
306 1 -1.1104 6.19824 15.794 12.4863
289 1 -1.1104 6.48062 15.8245 9.67009
288 1 -1.1104 6.51407 18.4809 9.39842
375 2 2.2208 13.2802 19.8497 -0.399367
311 2 2.2208 -0.478951 19.8216 8.06716
331 2 2.2208 10.8028 17.013 10.838
326 1 -1.1104 12.0924 15.7712 12.353
314 1 -1.1104 9.27387 15.638 9.50182
395 2 2.2208 5.09725 11.5499 -0.329665
405 2 2.2208 2.10851 20.0067 -0.406519
343 2 2.2208 -0.376257 8.74072 7.97422
339 2 2.2208 13.6659 5.78331 8.12091
400 2 2.2208 10.8899 11.5516 -0.358538
50 2 2.2208 13.6014 -2.69052 5.13392
383 2 2.2208 2.4173 3.01646 -0.447044
313 2 2.2208 -0.429026 14.517 8.011
355 2 2.2208 7.90669 0.348977 13.6213
403 2 2.2208 2.26584 14.2961 -0.213951
368 2 2.2208 2.31251 17.2207 13.6298
83 2 2.2208 -0.319306 11.4499 5.27565
398 2 2.2208 10.8577 5.85923 -0.416537
394 2 2.2208 2.38437 8.57548 -0.381373
393 2 2.2208 5.27814 5.92767 -0.422283
391 2 2.2208 13.4762 -2.47564 -0.416098
332 2 2.2208 13.6178 17.2868 8.25164
380 2 2.2208 13.511 17.1611 13.6321
358 2 2.2208 -0.408923 8.73653 13.6033
406 2 2.2208 4.97043 0.355139 16.5691
407 1 -1.1104 0.707515 -3.94005 17.9539
411 1 -1.1104 0.8293 -3.92307 15.1073
419 1 -1.1104 0.88041 -1.10806 17.7705
421 2 2.2208 5.0551 -2.47577 19.3783
423 1 -1.1104 0.933141 -1.14764 14.9753
427 1 -1.1104 3.65531 -3.73207 18.0675
429 2 2.2208 2.20603 0.520149 19.425
430 1 -1.1104 3.61434 -3.90324 15.1673
434 2 2.2208 2.06304 -2.55606 16.5847
436 1 -1.1104 3.67981 -0.968818 18.0701
437 1 -1.1104 3.6558 -1.16533 15.2074
415 1 -1.1104 6.29397 -3.88054 15.0668
425 1 -1.1104 6.45597 -1.23997 15.2731
409 1 -1.1104 6.64121 -3.82866 18.0937
426 1 -1.1104 6.52634 -1.21219 20.9121
416 1 -1.1104 6.46103 -3.95964 20.9145
420 1 -1.1104 6.52433 -1.1621 17.9899
397 2 2.2208 -0.345436 5.83522 27.7711
441 2 2.2208 2.43804 -5.29005 19.4757
480 2 2.2208 13.2626 14.3435 16.6327
449 2 2.2208 10.7406 0.44224 16.603
450 1 -1.1104 12.1966 -3.99017 17.988
452 1 -1.1104 11.9662 -3.9229 15.236
456 1 -1.1104 12.1043 -1.0258 17.85
457 2 2.2208 10.7816 -2.48955 19.2906
459 1 -1.1104 11.8937 -1.01136 15.2214
461 1 -1.1104 9.35085 -3.8727 17.9855
463 2 2.2208 7.82568 0.316874 19.2527
464 1 -1.1104 9.03697 -3.82898 15.0377
468 2 2.2208 7.97508 -2.43902 16.5667
470 1 -1.1104 9.41214 -1.1344 17.7725
471 1 -1.1104 9.18229 -0.975971 15.1861
728 2 2.2208 13.5956 5.75836 24.9782
473 2 2.2208 13.5877 -5.39377 19.3841
579 2 2.2208 13.6916 3.14262 16.4392
668 2 2.2208 11.0587 -5.1939 22.2819
453 1 -1.1104 12.1524 -3.52194 20.6744
460 1 -1.1104 12.2919 -0.883164 20.8399
465 1 -1.1104 9.39904 -3.59373 20.9335
478 2 2.2208 13.3652 19.7484 16.4434
347 2 2.2208 2.27161 -5.31015 13.7633
413 1 -1.1104 0.920745 1.46713 15.4573
408 1 -1.1104 0.699378 1.62408 18.131
422 2 2.2208 5.13958 3.14392 19.4579
428 1 -1.1104 3.70798 1.87327 18.0053
432 1 -1.1104 3.63942 1.53159 15.091
435 2 2.2208 2.11462 3.16327 16.6984
482 2 2.2208 5.06579 5.58625 16.5565
490 1 -1.1104 0.797216 4.47057 17.9301
495 1 -1.1104 0.650294 4.4816 15.0083
504 2 2.2208 2.10293 5.83862 19.3425
506 1 -1.1104 3.7243 6.98362 15.0546
509 1 -1.1104 3.8443 4.39947 17.907
511 1 -1.1104 3.60618 4.31338 15.065
503 1 -1.1104 3.62039 6.99882 17.7519
486 1 -1.1104 0.957 7.04709 15.1383
484 1 -1.1104 0.820626 7.34864 17.8263
507 1 -1.1104 3.90024 7.27961 20.6278
499 1 -1.1104 6.47513 4.4605 15.2168
488 1 -1.1104 6.45383 7.36883 15.2089
485 1 -1.1104 6.41232 7.1232 17.9821
410 1 -1.1104 6.46423 1.56967 17.9109
417 1 -1.1104 6.56542 1.88982 15.1687
604 1 -1.1104 9.14353 15.7857 20.9043
487 1 -1.1104 0.93086 7.22247 20.7261
512 1 -1.1104 3.79386 4.58521 20.7186
500 1 -1.1104 6.55297 4.60268 20.7165
638 2 2.2208 10.7242 14.2634 25.155
477 2 2.2208 13.498 -2.36251 16.5561
492 1 -1.1104 6.84994 4.35228 17.9361
451 1 -1.1104 12.2797 1.669 17.9772
454 1 -1.1104 12.0831 2.01902 15.1939
458 2 2.2208 10.668 3.22438 19.3396
462 1 -1.1104 9.49078 1.60577 18.0536
466 1 -1.1104 9.33664 1.66764 15.1145
469 2 2.2208 7.98644 3.04656 16.5838
518 2 2.2208 10.8271 5.98819 16.5038
523 1 -1.1104 12.005 4.58193 17.674
526 1 -1.1104 12.2071 4.59231 14.9765
531 2 2.2208 7.99813 5.91183 19.2301
533 1 -1.1104 9.21391 7.32925 14.9242
536 1 -1.1104 9.54389 4.42297 17.7379
538 1 -1.1104 9.3632 4.52717 15.1342
521 1 -1.1104 12.1194 7.34766 15.0752
520 1 -1.1104 12.1246 7.28585 18.053
530 1 -1.1104 9.4199 7.13357 17.8601
592 1 -1.1104 12.0972 15.7609 21.0655
467 1 -1.1104 9.42579 2.0098 20.7579
578 2 2.2208 13.5348 0.318458 19.3124
599 1 -1.1104 9.44244 18.5294 20.9491
483 2 2.2208 5.00062 11.3757 16.6005
491 1 -1.1104 0.93116 10.0633 18.0414
494 2 2.2208 5.20934 8.8058 19.3045
497 1 -1.1104 0.923398 9.98478 14.974
505 2 2.2208 2.36784 11.5602 19.5306
508 2 2.2208 2.26884 8.46404 16.5826
510 1 -1.1104 3.71582 9.81718 17.9752
513 1 -1.1104 3.54366 10.0396 15.2881
546 1 -1.1104 1.05594 12.8784 17.9304
550 1 -1.1104 0.96132 13.0435 14.9306
566 1 -1.1104 3.69183 12.8304 18.0114
569 1 -1.1104 3.62307 12.7787 15.3222
548 1 -1.1104 6.53726 13.1561 17.924
554 1 -1.1104 6.38147 12.6796 14.7742
501 1 -1.1104 6.57826 10.0282 15.2537
493 1 -1.1104 6.6242 10.4342 18.0404
519 2 2.2208 10.8612 11.4574 16.6891
524 1 -1.1104 12.2492 10.111 18.0146
525 2 2.2208 10.7513 8.54104 19.4521
528 1 -1.1104 12.1708 10.0452 15.2059
532 2 2.2208 7.88609 11.4911 19.4373
535 2 2.2208 7.98677 8.61747 16.6055
537 1 -1.1104 9.31428 9.78693 18.2485
540 1 -1.1104 9.28168 9.98273 15.2295
582 1 -1.1104 11.8102 12.8981 18.2207
584 1 -1.1104 12.3071 12.7106 15.446
593 1 -1.1104 9.26222 12.7407 17.972
596 1 -1.1104 9.45306 12.8658 15.1683
362 2 2.2208 13.6135 11.3767 13.8442
448 2 2.2208 -0.445438 14.4742 19.2766
361 2 2.2208 2.35493 11.4237 13.7431
543 2 2.2208 13.4904 8.75032 16.4071
698 1 -1.1104 9.1083 18.4468 26.6229
440 2 2.2208 4.90609 -5.26445 16.5183
560 2 2.2208 5.0739 14.2625 19.59
573 2 2.2208 2.41324 14.3638 16.5166
545 2 2.2208 5.09111 16.9724 16.5528
547 1 -1.1104 0.761181 18.3017 18.0888
552 1 -1.1104 0.821031 18.7942 15.2155
558 1 -1.1104 0.959179 15.5697 17.8811
561 2 2.2208 4.90314 19.8984 19.4421
562 1 -1.1104 0.829793 16.0263 14.8883
567 1 -1.1104 3.52376 18.3071 18.0202
568 2 2.2208 2.46229 17.1319 19.5113
571 1 -1.1104 3.76503 18.525 15.2012
574 2 2.2208 2.21171 19.9729 16.5316
575 1 -1.1104 3.67627 15.5842 18.1538
576 1 -1.1104 3.53582 15.8421 15.13
563 1 -1.1104 1.14368 15.6594 20.7536
549 1 -1.1104 6.23935 18.466 18.1028
556 1 -1.1104 6.69257 18.2126 15.2516
564 1 -1.1104 6.3467 15.515 15.0166
559 1 -1.1104 6.26637 15.8374 18.3982
553 1 -1.1104 0.97142 18.4598 20.9589
363 2 2.2208 7.79983 5.96987 13.7524
446 2 2.2208 13.6058 3.10258 22.0111
388 2 2.2208 7.97897 -2.33431 27.7191
600 2 2.2208 7.88805 14.0947 16.4111
589 2 2.2208 10.5341 14.3442 19.3862
581 2 2.2208 10.6675 16.863 16.4276
583 1 -1.1104 12.2173 18.2161 17.9417
586 1 -1.1104 12.2161 18.2354 15.0375
588 1 -1.1104 11.829 15.6405 17.979
590 2 2.2208 10.7806 19.8078 19.3564
591 1 -1.1104 11.9382 15.4475 15.1434
594 1 -1.1104 9.11361 18.2863 18.0319
595 2 2.2208 7.70936 16.9543 19.5988
598 1 -1.1104 9.4523 18.5356 15.0191
601 2 2.2208 7.85598 19.6338 16.5159
602 1 -1.1104 8.9028 15.5182 17.8612
603 1 -1.1104 9.06201 15.8071 15.2121
703 2 2.2208 -0.457194 11.4029 22.0425
357 2 2.2208 10.7688 3.12396 13.6913
444 2 2.2208 -0.44997 5.94359 22.1262
663 1 -1.1104 12.3609 15.7497 26.4517
699 2 2.2208 7.87905 14.2674 22.3679
365 2 2.2208 7.92592 11.3052 13.8202
438 1 -1.1104 3.58101 -0.981243 20.7695
412 1 -1.1104 1.14593 -3.84949 20.8468
431 1 -1.1104 3.74795 -3.81897 20.9035
424 1 -1.1104 0.803582 -0.983488 20.5204
609 2 2.2208 5.11967 0.214871 22.4543
610 1 -1.1104 0.729035 -3.73693 23.6336
614 1 -1.1104 1.09124 -3.9232 26.5237
618 1 -1.1104 0.94765 -1.12715 23.5793
620 2 2.2208 5.1537 -2.64123 25.1188
622 1 -1.1104 0.963066 -1.24706 26.638
624 1 -1.1104 3.59419 -3.92599 23.6526
626 2 2.2208 2.23954 0.0861188 25.0933
627 1 -1.1104 3.76511 -4.07486 26.5843
629 2 2.2208 2.35277 -2.54249 22.2234
631 1 -1.1104 3.84684 -1.19731 23.9056
632 1 -1.1104 3.66624 -1.36916 26.6153
623 1 -1.1104 6.58285 -1.06149 26.4848
612 1 -1.1104 6.49984 -3.88364 23.5
616 1 -1.1104 6.52677 -4.01981 26.4691
607 2 2.2208 10.5783 16.9052 22.3275
619 1 -1.1104 6.88911 -0.889499 23.7156
472 1 -1.1104 9.40863 -0.876791 20.8645
645 2 2.2208 10.8624 0.462741 22.2822
646 1 -1.1104 12.4655 -3.76669 23.4501
648 1 -1.1104 12.0978 -3.85247 26.3425
650 1 -1.1104 12.2285 -1.093 23.672
651 2 2.2208 10.9718 -2.43629 25.0253
653 1 -1.1104 12.2154 -0.848882 26.4341
654 1 -1.1104 9.5676 -4.12246 24.0022
656 2 2.2208 8.15343 0.372558 25.1407
657 1 -1.1104 9.28221 -3.81667 26.783
659 2 2.2208 8.11988 -2.33129 22.2596
661 1 -1.1104 9.42053 -0.948221 23.7038
662 1 -1.1104 9.44703 -1.17472 26.2975
371 2 2.2208 4.98741 14.2658 13.684
392 2 2.2208 13.6271 3.02924 27.8002
474 2 2.2208 10.7972 -5.25811 16.6162
606 2 2.2208 13.6136 19.6433 22.2287
356 2 2.2208 10.5864 -2.41732 13.7257
489 1 -1.1104 6.56242 7.49421 20.8659
433 1 -1.1104 3.77388 1.76679 21.0808
414 1 -1.1104 0.785308 1.8773 21.0239
496 1 -1.1104 0.639256 4.59322 20.7004
418 1 -1.1104 6.50837 1.60708 20.7054
611 1 -1.1104 0.871745 1.59335 23.4634
615 1 -1.1104 0.965287 1.66789 26.4392
621 2 2.2208 5.2273 3.13547 25.0063
625 1 -1.1104 3.54636 1.72974 23.8219
628 1 -1.1104 3.86067 1.57715 26.4769
630 2 2.2208 2.41404 2.94901 22.4759
674 2 2.2208 5.14696 5.98513 22.2488
678 1 -1.1104 1.00038 7.34162 26.4801
680 1 -1.1104 1.12384 4.45994 23.5041
685 1 -1.1104 1.17032 4.53099 26.3791
690 2 2.2208 2.30686 5.90118 25.0387
694 1 -1.1104 3.66137 4.47009 23.8414
696 1 -1.1104 4.04737 4.36237 26.5737
676 1 -1.1104 0.90909 7.24426 23.3943
692 1 -1.1104 3.74848 7.42732 26.4831
689 1 -1.1104 3.82267 7.29245 23.5083
613 1 -1.1104 6.42191 1.80127 23.5437
677 1 -1.1104 6.578 7.20757 23.6163
687 1 -1.1104 6.59834 4.77402 26.3666
682 1 -1.1104 6.5984 4.72579 23.5316
667 2 2.2208 7.8349 17.051 25.1597
633 1 -1.1104 12.2556 18.4046 23.8391
455 1 -1.1104 12.0063 1.98743 20.9054
679 1 -1.1104 6.69751 7.46949 26.5432
527 1 -1.1104 12.2658 4.57417 20.7102
534 1 -1.1104 9.21397 7.33442 20.6142
539 1 -1.1104 9.28465 4.65139 20.5702
522 1 -1.1104 12.1651 7.20071 20.7725
617 1 -1.1104 6.79701 1.79981 26.2282
647 1 -1.1104 12.3241 1.71067 23.765
649 1 -1.1104 12.2997 1.82745 26.5708
652 2 2.2208 10.779 3.21639 24.8813
655 1 -1.1104 9.39211 1.91329 23.5569
658 1 -1.1104 9.46924 1.7729 26.7117
660 2 2.2208 7.91918 3.15216 22.0552
706 1 -1.1104 9.05377 4.40834 26.2585
708 1 -1.1104 9.45458 4.65 23.4403
712 2 2.2208 8.06126 5.88305 25.0077
713 2 2.2208 10.7865 5.87966 22.052
716 1 -1.1104 12.3305 7.42711 26.3673
717 1 -1.1104 12.3278 4.38886 23.3512
720 1 -1.1104 12.0626 4.5548 26.1636
722 1 -1.1104 9.42111 7.39717 23.5217
710 1 -1.1104 9.51979 7.2999 26.5217
715 1 -1.1104 12.3368 7.15565 23.5405
636 1 -1.1104 12.2448 15.4405 23.7891
635 1 -1.1104 12.0626 18.5407 26.5248
701 1 -1.1104 9.09315 15.6259 23.7464
376 2 2.2208 7.78247 17.0033 13.7133
570 1 -1.1104 3.71313 12.7835 20.8848
498 1 -1.1104 0.791597 10.165 20.6291
551 1 -1.1104 0.911543 12.9363 20.762
514 1 -1.1104 3.53402 9.93531 20.6192
555 1 -1.1104 6.41019 12.7475 21.0145
502 1 -1.1104 6.55008 10.1268 20.7291
675 2 2.2208 5.10615 11.4751 22.2846
681 1 -1.1104 0.682093 10.0611 23.5187
684 2 2.2208 5.26761 8.61617 25.2335
686 1 -1.1104 0.838669 10.1162 26.4422
691 2 2.2208 2.11067 11.5007 25.0062
693 2 2.2208 2.27833 8.71955 21.983
695 1 -1.1104 3.66724 10.201 23.5102
697 1 -1.1104 3.59156 10.2415 26.5037
731 1 -1.1104 3.57908 12.7116 23.7431
735 1 -1.1104 0.814165 13.0009 26.4683
741 1 -1.1104 0.934272 13.1017 23.5846
746 1 -1.1104 3.61448 12.9177 26.4066
688 1 -1.1104 6.74444 10.1484 26.6557
683 1 -1.1104 6.53769 9.78362 23.8528
739 1 -1.1104 6.63452 13.0243 23.6742
730 1 -1.1104 6.42227 12.7688 26.4239
587 1 -1.1104 12.1923 18.4359 20.5917
585 1 -1.1104 11.896 12.7925 20.9122
597 1 -1.1104 9.00542 13.0335 20.7525
529 1 -1.1104 12.385 10.0551 20.8517
541 1 -1.1104 9.42925 10.1754 20.9922
349 2 2.2208 2.15478 0.382992 13.797
608 1 -1.1104 12.0902 12.5728 23.7792
673 1 -1.1104 9.51054 12.8269 26.1914
664 1 -1.1104 9.32158 12.7806 23.6903
705 1 -1.1104 9.48603 10.0185 26.5508
707 1 -1.1104 9.33245 10.1618 23.7567
709 2 2.2208 7.87503 8.75507 22.3098
711 2 2.2208 7.93946 11.4057 25.1747
714 2 2.2208 10.6806 11.481 22.411
718 1 -1.1104 12.1946 9.89407 23.7346
719 2 2.2208 10.7987 8.60328 25.0136
721 1 -1.1104 12.3588 10.2242 26.5133
634 1 -1.1104 12.3126 12.8803 26.561
665 1 -1.1104 9.36614 18.3918 23.8958
577 1 -1.1104 3.94135 15.6008 21.0579
572 1 -1.1104 3.73104 18.4681 20.8696
557 1 -1.1104 6.46289 18.3237 21.0741
565 1 -1.1104 6.54433 15.535 20.9112
736 1 -1.1104 6.51104 18.5874 23.8372
670 1 -1.1104 6.45148 18.5752 26.4831
747 1 -1.1104 6.3977 15.657 23.688
738 2 2.2208 5.04629 14.2447 25.1313
742 2 2.2208 5.07877 17.1367 22.4548
740 1 -1.1104 0.921754 18.6159 23.6983
727 2 2.2208 2.25899 14.3243 22.1449
745 1 -1.1104 3.74517 15.7846 26.6923
744 2 2.2208 2.16278 17.062 25.1053
743 1 -1.1104 3.33635 18.5455 26.3815
750 2 2.2208 2.33111 19.9361 22.2107
749 1 -1.1104 3.59605 15.5385 23.9493
748 1 -1.1104 0.801373 15.7519 23.7012
729 1 -1.1104 3.64398 18.2162 23.7402
733 1 -1.1104 0.598732 18.5513 26.5115
734 1 -1.1104 0.791573 15.5966 26.5663
737 2 2.2208 4.91745 19.8668 25.2711
732 1 -1.1104 6.62928 15.6671 26.6499
641 2 2.2208 10.5791 19.789 25.0609
364 2 2.2208 10.6972 8.66522 13.6843
700 2 2.2208 7.83575 19.9062 22.3146
704 1 -1.1104 9.55153 15.6405 26.346
348 2 2.2208 5.04405 -2.48274 13.7571
359 2 2.2208 2.31091 5.71709 13.7513
360 2 2.2208 4.93648 8.79136 13.8292
352 2 2.2208 5.16522 3.07934 13.7905
353 2 2.2208 7.8668 -5.36267 13.7776
542 2 2.2208 13.655 5.99152 19.286
369 2 2.2208 5.01874 19.9681 13.831
517 2 2.2208 13.4184 11.4083 19.4264
479 2 2.2208 13.7112 17.0754 19.4561
640 2 2.2208 2.33141 -5.31611 25.0777
475 2 2.2208 7.9205 -5.13753 19.391
639 2 2.2208 5.27776 -5.32698 22.2109
402 2 2.2208 13.6269 8.63741 27.798
637 2 2.2208 -0.356046 -5.18057 22.2654
724 2 2.2208 -0.301814 20.0021 25.0705
366 2 2.2208 13.594 5.87335 13.8191
390 2 2.2208 10.6284 -5.34538 27.7601
399 2 2.2208 8.10282 8.82156 27.7355
378 2 2.2208 10.7469 17.0934 27.7497
370 2 2.2208 13.4727 0.296842 13.7222
387 2 2.2208 10.8056 0.290173 27.7619
751 2 2.2208 4.99931 22.5646 5.38543
753 1 -1.1104 0.55783 24.3473 0.931093
754 1 -1.1104 0.643759 24.1086 3.93653
755 1 -1.1104 0.620083 21.6282 1.19612
757 2 2.2208 5.08924 25.5945 2.53451
758 1 -1.1104 0.589675 21.2027 3.90377
760 1 -1.1104 3.46913 23.9264 1.20071
761 2 2.2208 2.17357 22.8198 2.67714
763 1 -1.1104 3.61319 24.1549 3.84501
764 2 2.2208 2.09869 25.5568 5.39842
765 1 -1.1104 3.416 21.2144 1.17718
767 1 -1.1104 3.65452 21.216 3.94933
768 1 -1.1104 3.80306 26.879 3.86183
773 1 -1.1104 6.38755 24.0309 3.99296
894 1 -1.1104 0.923305 21.369 6.79712
898 1 -1.1104 3.5218 24.238 6.59164
777 1 -1.1104 6.52083 26.7682 3.86518
776 1 -1.1104 6.66192 21.3629 3.76617
897 1 -1.1104 6.58047 26.9323 6.61715
774 1 -1.1104 6.48825 21.3581 1.20262
895 1 -1.1104 0.978533 26.8121 6.85147
896 1 -1.1104 6.53834 21.285 6.65325
775 1 -1.1104 6.22283 26.7851 0.966418
756 1 -1.1104 0.962628 27.1769 1.05912
766 1 -1.1104 3.53274 26.7856 1.1212
772 1 -1.1104 6.46305 24.1561 1.17049
759 1 -1.1104 0.905077 26.9038 3.86312
900 1 -1.1104 3.70657 26.982 6.74327
1084 1 -1.1104 6.35215 46.486 12.6144
778 2 2.2208 10.8295 22.567 5.27281
780 1 -1.1104 12.1184 24.303 1.15528
781 1 -1.1104 11.9122 23.8876 3.92975
782 1 -1.1104 12.0318 21.4311 1.21592
784 2 2.2208 10.5116 25.5981 2.62232
785 1 -1.1104 12.4927 21.3615 4.00639
787 1 -1.1104 9.4887 24.2556 0.953124
788 2 2.2208 7.90301 22.777 2.46679
790 1 -1.1104 9.06686 24.0953 3.7932
791 2 2.2208 7.86764 25.3199 5.35798
794 1 -1.1104 9.37742 21.3263 3.96557
792 1 -1.1104 9.18116 21.5334 1.00164
793 1 -1.1104 9.26554 26.8948 1.02786
786 1 -1.1104 12.2673 26.8282 4.03374
930 1 -1.1104 9.48083 26.6841 6.77812
795 1 -1.1104 9.24498 26.9807 4.02337
783 1 -1.1104 11.9471 27.0196 1.40926
796 2 2.2208 13.5756 22.8315 2.58201
1125 2 2.2208 10.8669 22.901 -0.213998
1067 2 2.2208 13.3893 42.6854 10.9802
1122 2 2.2208 10.5287 39.5241 -0.242655
752 2 2.2208 5.03994 28.1968 5.43074
762 2 2.2208 2.24673 28.248 2.44882
800 1 -1.1104 0.875002 29.7996 1.15159
803 1 -1.1104 0.905656 29.7908 3.92775
806 1 -1.1104 0.750337 32.5871 1.00176
807 2 2.2208 5.08238 31.0385 2.64947
809 1 -1.1104 0.819382 32.5309 3.9058
811 1 -1.1104 3.94177 29.6892 0.997308
814 1 -1.1104 3.54501 29.8189 3.80491
816 2 2.2208 2.20922 31.2157 5.44846
818 1 -1.1104 3.62623 32.4991 1.22577
819 1 -1.1104 3.59013 32.4663 4.13781
957 1 -1.1104 3.45066 32.7306 6.8646
823 1 -1.1104 6.56083 29.6392 1.22377
955 1 -1.1104 3.62085 29.9988 6.795
824 1 -1.1104 6.56202 29.6756 3.9346
954 1 -1.1104 6.44856 32.8542 6.88938
810 1 -1.1104 6.23169 32.6997 3.92962
1063 1 -1.1104 12.0832 41.23 9.77953
1079 2 2.2208 13.5849 31.2048 11.0524
1068 2 2.2208 13.5205 36.8289 5.22544
825 1 -1.1104 6.40608 32.5088 1.12364
779 2 2.2208 10.7536 28.3298 5.59481
789 2 2.2208 7.9431 28.271 2.61156
827 1 -1.1104 12.1757 29.7864 1.37225
829 1 -1.1104 12.0361 29.6625 4.13735
831 1 -1.1104 11.938 32.7075 1.46423
832 2 2.2208 10.6453 31.0872 2.65422
834 1 -1.1104 12.002 32.4353 4.17537
835 1 -1.1104 9.36326 29.9879 1.27303
838 1 -1.1104 9.22877 30.017 4.14509
840 2 2.2208 7.75493 31.3321 5.26763
842 1 -1.1104 9.01525 32.6667 1.20798
843 1 -1.1104 9.01453 32.6997 4.10012
985 1 -1.1104 11.9529 32.5914 7.04082
1070 2 2.2208 13.4878 42.4916 5.3934
1127 2 2.2208 13.4417 25.6308 -0.0268204
890 2 2.2208 13.5042 45.3915 2.65276
1131 2 2.2208 5.27216 34.1099 -0.122649
813 2 2.2208 2.16797 33.9496 2.35189
799 2 2.2208 4.87255 34.0235 5.21683
801 1 -1.1104 0.560057 35.3584 1.35091
804 1 -1.1104 0.696318 35.3737 3.84766