ITEM: TIMESTEP
80000
ITEM: NUMBER OF ATOMS
17760
ITEM: BOX BOUNDS pp pp pp
-4.4290971822081476e-01 2.7782909718221525e+01
-5.3510229288393099e+00 3.3343102292884811e+02
-4.6123892926256932e-01 2.7801238929261761e+01
ITEM: ATOMS id type q x y z
1 2 2.2208 5.17063 0.318968 4.93696
2 1 -1.1104 0.778336 -3.95054 0.767862
6 1 -1.1104 0.821164 -3.72679 3.48965
10 1 -1.1104 0.792524 -1.20561 0.970029
12 2 2.2208 5.11956 -2.65367 2.23564
14 1 -1.1104 0.863231 -0.900912 3.7113
16 1 -1.1104 3.63494 -3.82601 0.924117
18 2 2.2208 2.44475 0.196504 2.22366
19 1 -1.1104 3.78379 -3.65916 3.89615
21 2 2.2208 2.19428 -2.44383 5.19408
23 1 -1.1104 3.83931 -1.03799 0.854258
24 1 -1.1104 3.58032 -0.980496 3.79828
15 1 -1.1104 6.29051 -1.2467 3.74442
4 1 -1.1104 6.55097 -3.94541 0.724692
11 1 -1.1104 6.63169 -1.13427 0.86742
8 1 -1.1104 6.67055 -4.04314 3.33538
204 2 2.2208 13.491 14.5039 5.07247
172 1 -1.1104 3.58778 -4.04235 6.52296
166 1 -1.1104 0.793337 -3.71409 6.31082
174 1 -1.1104 3.77089 -0.995373 6.45265
171 1 -1.1104 6.72384 -1.0416 6.31038
496 2 2.2208 7.75281 6.04586 13.4987
49 2 2.2208 13.4717 0.451623 2.36273
31 2 2.2208 10.8232 0.499661 4.88444
32 1 -1.1104 12.1308 -3.70599 0.874114
34 1 -1.1104 11.9864 -3.97045 3.44809
36 1 -1.1104 12.2851 -0.946488 0.755415
37 2 2.2208 10.7124 -2.3598 2.34284
39 1 -1.1104 12.1677 -0.981964 3.56143
40 1 -1.1104 9.31804 -4.044 0.928776
42 2 2.2208 7.93774 0.512143 2.21404
43 1 -1.1104 9.39002 -3.88343 3.75415
45 2 2.2208 7.92781 -2.25148 4.91577
47 1 -1.1104 9.6047 -0.892069 0.958397
48 1 -1.1104 9.22136 -1.15036 3.44424
207 1 -1.1104 12.0855 -1.01498 6.43053
205 1 -1.1104 12.1864 -3.87956 6.30086
50 2 2.2208 13.3988 -2.49589 4.93698
469 2 2.2208 2.25939 5.9282 13.4696
210 1 -1.1104 9.48292 -0.913219 6.24701
208 1 -1.1104 9.24832 -3.74981 6.46412
231 2 2.2208 13.5882 20.2413 5.05901
9043 2 2.2208 10.54 -5.23545 10.6051
3 1 -1.1104 0.643686 1.45496 0.894318
7 1 -1.1104 0.716097 1.88039 3.78261
13 2 2.2208 5.13118 3.34242 2.15485
17 1 -1.1104 3.58065 1.91383 0.966975
20 1 -1.1104 3.683 2.05183 3.67481
22 2 2.2208 2.45777 3.32833 5.05568
54 2 2.2208 5.11119 6.14185 5.18726
60 1 -1.1104 0.829333 4.50465 0.72492
67 1 -1.1104 1.06265 4.58065 3.66156
72 2 2.2208 2.25732 6.22711 2.14509
74 1 -1.1104 3.63686 7.52505 3.58748
76 1 -1.1104 3.59851 4.64114 0.943907
79 1 -1.1104 3.81635 4.79669 3.72522
58 1 -1.1104 0.841194 7.30336 3.54682
71 1 -1.1104 3.63241 7.63988 0.838829
236 1 -1.1104 0.830233 4.6006 6.68674
57 1 -1.1104 6.59836 7.33051 0.838897
56 1 -1.1104 0.871858 7.65922 0.668445
9 1 -1.1104 6.50894 1.79163 3.52372
235 1 -1.1104 6.62891 7.20366 6.72935
59 1 -1.1104 6.7001 7.42105 3.53236
238 1 -1.1104 3.70031 7.55085 6.5938
237 1 -1.1104 6.73082 4.65887 6.42465
69 1 -1.1104 6.63007 4.67579 3.60748
5 1 -1.1104 6.40329 1.79931 0.915402
234 1 -1.1104 0.761468 7.27179 6.21079
167 1 -1.1104 0.893878 1.82932 6.59686
173 1 -1.1104 3.85754 1.91628 6.47836
169 1 -1.1104 6.59773 2.02142 6.5592
230 2 2.2208 13.5276 -2.3847 10.6984
202 2 2.2208 13.5021 6.13051 7.89881
63 1 -1.1104 6.59658 4.73566 0.905104
33 1 -1.1104 12.1679 1.96008 0.765299
35 1 -1.1104 12.0775 2.1109 3.67742
38 2 2.2208 11.0071 3.41415 2.13832
41 1 -1.1104 9.51474 1.90727 0.619313
44 1 -1.1104 9.38165 1.90091 3.60932
46 2 2.2208 8.03392 3.19198 5.0054
84 2 2.2208 10.8285 6.03545 5.09673
88 1 -1.1104 12.2708 4.83849 1.04274
92 1 -1.1104 12.3529 4.89267 3.88211
94 1 -1.1104 9.31389 7.43002 0.875422
95 2 2.2208 7.98531 6.08348 2.23603
97 1 -1.1104 9.51769 7.3284 3.67927
99 1 -1.1104 9.43579 4.55162 0.701994
102 1 -1.1104 9.55047 4.55595 3.53662
86 1 -1.1104 12.4191 7.49646 0.98266
87 1 -1.1104 12.3711 7.78694 3.82552
206 1 -1.1104 12.2396 1.91954 6.46367
267 1 -1.1104 9.55608 7.36639 6.47048
105 2 2.2208 13.5957 6.1219 2.44877
9039 2 2.2208 2.24331 -5.09703 7.87899
266 1 -1.1104 12.2831 4.63708 6.44736
265 1 -1.1104 12.3489 7.55331 6.6533
269 1 -1.1104 9.32572 4.48451 6.43515
55 2 2.2208 5.03221 11.5021 4.91705
61 1 -1.1104 0.603004 10.3949 1.01503
66 2 2.2208 5.17278 8.81408 2.27112
68 1 -1.1104 0.843692 10.1258 3.73659
73 2 2.2208 2.14531 11.5352 2.27863
75 2 2.2208 2.25349 8.76754 5.00375
77 1 -1.1104 3.58202 10.2145 0.703089
80 1 -1.1104 3.68731 10.3632 3.60374
107 1 -1.1104 0.881997 13.0373 0.897147
113 1 -1.1104 0.787824 12.7491 3.57339
123 1 -1.1104 3.88731 12.9248 0.750602
128 1 -1.1104 3.39357 13.0123 3.59447
110 1 -1.1104 6.47408 13.054 0.806916
65 1 -1.1104 6.65969 10.2338 6.36573
64 1 -1.1104 6.47355 10.0566 0.639478
115 1 -1.1104 6.57439 12.8576 3.78441
111 1 -1.1104 6.69957 13.1514 6.48968
78 1 -1.1104 3.64718 10.13 6.48043
108 1 -1.1104 0.928911 12.9608 6.39171
124 1 -1.1104 3.90652 13.1722 6.20935
62 1 -1.1104 0.950539 10.0848 6.57009
70 1 -1.1104 6.57006 10.2059 3.5703
470 2 2.2208 4.82009 8.83825 13.5205
85 2 2.2208 10.8603 11.6958 4.99302
89 1 -1.1104 12.3875 10.205 0.736986
91 2 2.2208 10.8492 8.88183 2.29448
93 1 -1.1104 12.1625 10.4971 3.5873
96 2 2.2208 7.95979 11.4703 2.08799
98 2 2.2208 8.02794 8.68686 5.0229
100 1 -1.1104 9.16215 10.4503 0.705282
103 1 -1.1104 9.48832 9.99477 3.54128
142 1 -1.1104 12.4163 12.9506 0.959567
146 1 -1.1104 12.009 13.1156 3.68109
153 1 -1.1104 9.32671 13.231 0.860995
158 1 -1.1104 9.22629 12.852 3.53294
154 1 -1.1104 9.51433 12.8421 6.39549
90 1 -1.1104 12.2698 10.2781 6.4108
101 1 -1.1104 9.42646 10.1235 6.30591
119 2 2.2208 5.119 14.2492 2.30908
130 2 2.2208 2.33498 14.3881 5.05562
106 2 2.2208 4.97167 17.411 4.97793
109 1 -1.1104 0.92225 18.766 1.03416
114 1 -1.1104 0.823981 18.6317 3.74807
116 1 -1.1104 0.867759 15.8481 0.894812
120 2 2.2208 5.01232 19.9648 2.12491
121 1 -1.1104 0.811889 15.6994 3.55147
125 1 -1.1104 3.69559 18.5105 0.709867
127 2 2.2208 2.30802 17.0961 2.17425
129 1 -1.1104 3.65966 18.6333 3.34296
131 2 2.2208 2.19628 20.0207 4.99703
132 1 -1.1104 3.70348 15.5758 0.758348
134 1 -1.1104 3.75457 15.8059 3.61197
133 1 -1.1104 3.67737 15.8141 6.35213
139 1 -1.1104 6.25977 18.7299 3.58042
138 1 -1.1104 6.48304 18.5769 0.909909
112 1 -1.1104 6.5535 18.7601 6.2267
122 1 -1.1104 6.74527 15.8256 3.52831
118 1 -1.1104 6.70099 15.8831 6.22101
140 1 -1.1104 6.52906 15.9026 0.721348
302 1 -1.1104 0.924489 18.6021 6.36199
126 1 -1.1104 3.54719 18.652 6.41762
117 1 -1.1104 0.880451 15.9158 6.49316
9034 2 2.2208 5.29328 -5.33053 4.93849
150 2 2.2208 10.9318 14.4904 2.09593
160 2 2.2208 8.06645 14.3019 4.98313
145 1 -1.1104 12.241 18.6333 6.34277
141 2 2.2208 10.9786 17.1935 5.12506
144 1 -1.1104 12.0818 18.6794 1.07236
147 1 -1.1104 12.2119 18.83 3.79599
148 1 -1.1104 12.1864 15.9352 0.958275
151 2 2.2208 10.8826 20.1956 2.37033
152 1 -1.1104 12.3609 15.9631 4.01596
155 1 -1.1104 9.49434 18.7194 0.840791
157 2 2.2208 7.99767 17.3129 2.30975
159 1 -1.1104 9.20774 18.9229 3.62965
161 2 2.2208 7.81256 20.1183 4.91832
162 1 -1.1104 9.41941 16.0108 0.936589
164 1 -1.1104 9.48726 15.7631 3.66854
156 1 -1.1104 9.42753 18.7153 6.46202
402 2 2.2208 5.03194 2.97637 13.6365
433 2 2.2208 7.95997 0.412356 13.3037
149 1 -1.1104 12.1987 15.869 6.59781
163 1 -1.1104 9.59995 15.8447 6.44708
562 2 2.2208 13.5193 17.4536 13.5285
136 2 2.2208 -0.438045 20.1065 2.35663
321 1 -1.1104 9.51437 18.6103 11.9035
170 1 -1.1104 0.810689 -0.853185 6.61931
168 1 -1.1104 6.48129 -3.85357 6.20849
175 2 2.2208 5.07084 0.21959 10.6546
176 1 -1.1104 0.558596 -4.01605 12.169
180 1 -1.1104 1.06077 -3.77734 9.09715
184 1 -1.1104 0.647545 -1.12056 12.1421
186 2 2.2208 5.06936 -2.52658 7.73172
188 1 -1.1104 0.768821 -1.19367 9.56779
190 1 -1.1104 3.32081 -3.81115 12.212
192 2 2.2208 2.21357 0.457746 8.0329
193 1 -1.1104 3.7829 -3.76026 9.52827
195 2 2.2208 2.16434 -2.38449 10.7631
197 1 -1.1104 3.6741 -0.921405 11.9394
198 1 -1.1104 3.71315 -0.875745 9.08613
185 1 -1.1104 6.5898 -1.15032 11.9402
189 1 -1.1104 6.50304 -0.930697 9.08542
178 1 -1.1104 6.49521 -4.03408 11.8025
182 1 -1.1104 6.59451 -4.1375 9.03742
400 2 2.2208 4.95103 -2.55095 13.3634
200 2 2.2208 -0.477621 -2.25322 7.84123
435 2 2.2208 10.6422 3.32452 13.337
318 1 -1.1104 9.29535 18.6668 9.11909
434 2 2.2208 10.6522 -2.61618 13.4993
211 2 2.2208 10.6825 0.42541 10.625
212 1 -1.1104 12.0335 -3.98134 12.1797
214 1 -1.1104 11.943 -3.71932 9.36172
216 1 -1.1104 12.1252 -0.980709 12.1794
217 2 2.2208 10.7481 -2.511 7.88991
219 1 -1.1104 12.081 -0.927519 9.39359
220 1 -1.1104 9.29635 -4.00845 12.0444
222 2 2.2208 7.88345 0.530869 7.62035
223 1 -1.1104 9.12931 -3.61192 9.21709
225 2 2.2208 7.88423 -2.48178 10.5014
227 1 -1.1104 9.23888 -1.27662 12.0594
228 1 -1.1104 9.40309 -0.998161 9.10684
533 2 2.2208 5.2029 19.9597 13.5224
229 2 2.2208 13.5487 0.680894 7.86486
315 1 -1.1104 9.16184 15.9308 12.2493
320 2 2.2208 7.95767 17.2292 7.72862
331 2 2.2208 10.7636 17.2876 10.6514
239 1 -1.1104 3.70907 4.60946 6.56685
177 1 -1.1104 0.47154 1.76573 12.1614
181 1 -1.1104 0.727284 1.77046 9.36759
187 2 2.2208 5.09329 3.05629 7.96666
191 1 -1.1104 3.4995 1.61695 12.3084
194 1 -1.1104 3.66737 1.60168 9.52163
196 2 2.2208 2.27185 3.0013 10.7692
240 2 2.2208 4.80739 5.934 10.6637
246 1 -1.1104 0.757801 4.42303 12.085
251 1 -1.1104 0.779416 4.43009 9.56393
256 2 2.2208 2.06695 5.80944 8.03348
260 1 -1.1104 3.45807 4.46071 12.0821
262 1 -1.1104 3.55735 4.35643 9.36815
255 1 -1.1104 3.65394 7.34694 12.1504
244 1 -1.1104 0.746396 7.40976 9.17501
242 1 -1.1104 0.798 7.45207 12.0468
183 1 -1.1104 6.53649 1.76066 9.38771
245 1 -1.1104 6.34202 7.23075 9.33206
243 1 -1.1104 6.55324 7.39806 12.1001
253 1 -1.1104 6.27341 4.45895 9.54558
248 1 -1.1104 6.25028 4.791 12.2653
179 1 -1.1104 6.43854 1.93126 12.1342
203 2 2.2208 13.4817 3.09947 10.6152
232 2 2.2208 13.5951 9.0602 5.13969
209 1 -1.1104 9.40128 1.70035 6.27606
213 1 -1.1104 12.1953 1.70676 12.1351
215 1 -1.1104 12.1716 1.89464 9.32945
218 2 2.2208 10.7191 3.25162 7.80078
221 1 -1.1104 9.20362 1.76286 12.1245
224 1 -1.1104 9.24015 1.80484 9.34203
226 2 2.2208 7.79499 3.16941 10.8071
268 1 -1.1104 9.34282 4.55093 9.20596
271 1 -1.1104 9.11317 4.65702 12.0071
275 2 2.2208 7.90597 6.00625 7.9419
276 2 2.2208 10.7251 6.12363 10.6682
279 1 -1.1104 11.9352 7.65553 9.26267
280 1 -1.1104 11.9638 4.64558 12.1088
283 1 -1.1104 12.114 4.53382 9.30153
285 1 -1.1104 9.4109 7.41903 12.0651
273 1 -1.1104 9.22105 7.66491 9.18062
278 1 -1.1104 12.0856 7.65515 11.9949
401 2 2.2208 2.10724 0.38096 13.6283
471 2 2.2208 2.15675 11.5489 13.5415
9044 2 2.2208 13.4624 -5.0922 8.0467
258 1 -1.1104 3.49627 7.32414 9.2193
241 2 2.2208 5.07899 11.7788 10.5877
247 1 -1.1104 0.773729 10.2518 12.2142
250 2 2.2208 5.07614 8.82107 8.12004
252 1 -1.1104 0.921196 10.3825 9.28789
257 2 2.2208 2.35659 11.773 7.92649
259 2 2.2208 2.16152 8.78901 10.6446
261 1 -1.1104 3.47888 10.2269 12.2964
263 1 -1.1104 3.6778 10.3873 9.40769
287 1 -1.1104 3.67517 12.9993 12.028
294 1 -1.1104 0.866955 13.0817 9.34388
299 1 -1.1104 0.904107 13.2739 12.2341
305 1 -1.1104 3.87445 13.245 8.92906
249 1 -1.1104 6.2222 10.3926 12.1183
297 1 -1.1104 6.58087 13.0204 12.2842
290 1 -1.1104 6.67911 12.9578 9.51253
254 1 -1.1104 6.45707 10.2385 9.22586
9055 2 2.2208 13.4004 -5.21885 13.5669
618 2 2.2208 13.5515 0.14914 13.4037
498 2 2.2208 7.85204 11.5006 13.4765
143 1 -1.1104 12.5204 13.026 6.58737
561 2 2.2208 7.84227 17.3787 13.4776
333 2 2.2208 13.6247 14.5255 10.6423
330 1 -1.1104 12.1733 13.2558 12.2586
328 1 -1.1104 12.3595 13.0979 9.54871
322 1 -1.1104 9.47308 12.8491 12.2972
319 1 -1.1104 9.39894 13.2046 9.18085
264 1 -1.1104 9.26976 10.2646 9.30583
270 1 -1.1104 9.26669 10.0299 12.0098
272 2 2.2208 7.86318 8.76762 10.6576
274 2 2.2208 8.01986 11.5499 7.69301
277 2 2.2208 10.6243 11.6498 10.7687
281 1 -1.1104 12.3037 10.4093 12.0851
282 2 2.2208 10.7794 8.95178 7.80857
284 1 -1.1104 12.1389 10.221 9.20593
559 2 2.2208 10.6874 20.1177 13.3968
9037 2 2.2208 10.5619 -5.28537 4.9801
288 1 -1.1104 6.57598 18.6747 9.07293
295 2 2.2208 5.17599 14.7554 7.69123
310 2 2.2208 2.46795 14.4118 10.7074
303 2 2.2208 2.35451 17.2152 7.93798
301 1 -1.1104 3.70944 18.6201 9.25132
307 1 -1.1104 0.562968 15.8992 11.9209
304 1 -1.1104 3.91852 15.8058 9.17368
309 2 2.2208 2.19435 20.0645 10.7529
308 1 -1.1104 3.49993 16.0829 12.0992
286 1 -1.1104 3.5768 18.5487 12.0961
291 1 -1.1104 0.682195 18.8363 9.24408
292 1 -1.1104 1.08808 15.902 9.40713
293 2 2.2208 5.13841 19.8956 7.93457
298 1 -1.1104 0.849081 18.7872 12.1894
300 2 2.2208 5.10884 17.249 10.6718
296 1 -1.1104 6.46316 18.4916 12.1651
306 1 -1.1104 6.13979 15.6872 11.8154
289 1 -1.1104 6.51211 15.9408 9.13588
325 2 2.2208 10.8974 14.5146 7.99567
324 2 2.2208 10.7603 20.1485 7.89828
497 2 2.2208 10.6483 8.8756 13.3705
52 2 2.2208 13.4505 8.98777 10.6578
326 1 -1.1104 12.0988 15.8702 12.0665
560 2 2.2208 10.5417 14.3719 13.6099
588 2 2.2208 13.3907 6.01384 13.455
314 1 -1.1104 9.47044 15.7536 9.20078
317 2 2.2208 7.82292 14.5803 10.5839
323 1 -1.1104 12.1119 16.014 9.31172
327 1 -1.1104 12.0767 18.9091 9.35053
316 2 2.2208 7.91102 20.0253 10.4291
329 1 -1.1104 12.1881 18.6601 12.1639
621 2 2.2208 13.524 11.75 13.6043
9038 2 2.2208 13.4667 -5.22294 2.32542
348 2 2.2208 10.8453 17.2955 -0.421492
9060 2 2.2208 2.08511 -5.33216 13.5737
358 2 2.2208 5.17363 17.247 -0.446685
339 2 2.2208 8.13508 -2.63006 -0.427245
534 2 2.2208 5.14227 14.4017 13.5625
360 2 2.2208 5.06223 0.0749838 16.4333
361 1 -1.1104 0.633535 -3.89158 17.8472
365 1 -1.1104 0.863936 -3.94575 15.0855
373 1 -1.1104 0.742649 -1.02251 17.8388
375 2 2.2208 4.99341 -2.63743 19.2513
377 1 -1.1104 0.878681 -0.955194 15.0546
381 1 -1.1104 3.45801 -4.02705 17.8884
383 2 2.2208 2.23041 0.376872 19.1266
384 1 -1.1104 3.51776 -4.09627 14.8909
388 2 2.2208 2.21784 -2.43542 16.4656
390 1 -1.1104 3.54272 -1.03422 17.6865
391 1 -1.1104 3.65527 -1.24008 14.8353
363 1 -1.1104 6.12638 -3.97076 17.7859
374 1 -1.1104 6.45198 -1.31579 17.8037
369 1 -1.1104 6.3712 -4.00066 14.7717
379 1 -1.1104 6.43302 -1.2901 14.7421
587 2 2.2208 13.3661 8.7172 16.3268
350 2 2.2208 5.17805 11.5998 27.5891
622 2 2.2208 13.6144 11.6495 19.2147
385 1 -1.1104 3.531 -3.85962 20.7032
392 1 -1.1104 3.54751 -0.859341 20.4775
9429 2 2.2208 2.10982 -5.10663 19.2313
355 2 2.2208 10.5775 11.431 27.5422
403 2 2.2208 10.7258 0.232253 16.147
404 1 -1.1104 11.8032 -3.9376 17.7873
406 1 -1.1104 12.1142 -3.9946 15.0847
410 1 -1.1104 12.1525 -1.25565 17.655
411 2 2.2208 10.7138 -2.45073 19.3259
413 1 -1.1104 12.3028 -1.32642 14.7868
415 1 -1.1104 9.00994 -4.05707 17.6969
417 2 2.2208 7.8151 0.0785786 19.2045
418 1 -1.1104 9.22631 -3.99011 15.0106
422 2 2.2208 7.78133 -2.65083 16.3483
424 1 -1.1104 9.18111 -1.00975 17.7749
425 1 -1.1104 9.46268 -1.05885 14.8108
357 2 2.2208 2.32158 20.1462 27.7917
419 1 -1.1104 9.20454 -3.75173 20.5778
354 2 2.2208 7.90335 8.59516 27.5954
431 2 2.2208 13.5204 -2.65632 16.3512
394 2 2.2208 13.6883 8.9108 21.9999
426 1 -1.1104 9.22007 -1.03059 20.7756
407 1 -1.1104 12.1644 -4.0294 20.6078
652 2 2.2208 13.5675 20.206 22.0458
719 1 -1.1104 6.71905 18.5394 26.3189
346 2 2.2208 2.14198 9.00032 27.6033
362 1 -1.1104 0.887935 1.66964 17.8049
367 1 -1.1104 0.893674 1.98373 15.0013
376 2 2.2208 5.16391 3.01797 19.3014
382 1 -1.1104 3.78991 1.55983 18.0431
386 1 -1.1104 3.68539 1.51346 15.1486
389 2 2.2208 2.36138 3.0675 16.4097
436 2 2.2208 5.05025 5.94914 16.2928
444 1 -1.1104 0.867229 4.49122 18.104
449 1 -1.1104 0.77582 4.57019 15.1033
457 1 -1.1104 3.6041 7.52187 17.5562
458 2 2.2208 2.21012 5.93306 19.126
460 1 -1.1104 3.70542 7.08295 14.733
463 1 -1.1104 3.66363 4.5021 17.7037
465 1 -1.1104 3.60978 4.41331 14.8507
438 1 -1.1104 0.793054 7.30911 17.6058
440 1 -1.1104 0.780375 7.40141 14.921
442 1 -1.1104 6.452 7.51601 14.7848
371 1 -1.1104 6.55292 1.51602 14.9402
453 1 -1.1104 6.54927 4.61412 14.8259
446 1 -1.1104 6.47657 4.78948 17.7376
439 1 -1.1104 6.56843 7.65855 17.6983
450 1 -1.1104 0.908451 4.53441 20.6038
364 1 -1.1104 6.56336 1.73503 17.8562
466 1 -1.1104 3.73686 4.66326 20.6362
387 1 -1.1104 3.77936 1.87373 20.7993
441 1 -1.1104 0.812995 7.45852 20.5169
372 1 -1.1104 6.50936 1.56283 20.4995
443 1 -1.1104 6.3995 7.2295 20.4584
619 2 2.2208 13.5687 3.20352 16.3161
408 1 -1.1104 11.867 1.73424 14.8444
405 1 -1.1104 12.4497 1.76226 17.9038
412 2 2.2208 10.8737 3.19114 18.9524
416 1 -1.1104 9.65031 1.72876 17.6911
420 1 -1.1104 9.26381 1.77129 14.8886
423 2 2.2208 8.05072 3.13612 16.4514
472 2 2.2208 10.7072 5.98665 16.1174
477 1 -1.1104 12.1183 4.62926 17.6036
480 1 -1.1104 12.2389 4.50449 14.8377
485 2 2.2208 7.86863 6.03603 19.0922
490 1 -1.1104 9.27814 4.47923 17.7154
492 1 -1.1104 9.33415 4.51567 14.8953
487 1 -1.1104 9.1685 7.45814 14.7526
474 1 -1.1104 11.9991 7.51381 17.7771
493 1 -1.1104 9.44146 4.581 20.5162
475 1 -1.1104 12.0465 7.46433 14.8715
488 1 -1.1104 9.1899 7.58462 20.2725
409 1 -1.1104 12.0883 1.5784 20.6549
484 1 -1.1104 9.12891 7.28778 17.6368
421 1 -1.1104 9.17277 1.62363 20.4413
481 1 -1.1104 12.0769 4.37352 20.4872
710 1 -1.1104 9.27673 18.667 23.3931
437 2 2.2208 5.19064 11.757 16.2528
445 1 -1.1104 0.99917 10.3328 17.6873
448 2 2.2208 4.93487 8.84452 19.0537
451 1 -1.1104 0.642697 10.288 14.879
459 2 2.2208 2.22035 11.6211 19.0767
462 2 2.2208 2.21017 8.92655 16.2627
464 1 -1.1104 3.6747 10.3358 17.5932
467 1 -1.1104 3.58526 10.0796 14.8959
500 1 -1.1104 0.698524 12.9306 17.6997
504 1 -1.1104 0.809821 13.1761 14.7007
520 1 -1.1104 3.69339 13.0174 17.5423
523 1 -1.1104 3.7336 12.8122 14.6774
502 1 -1.1104 6.70815 13.0217 17.9358
447 1 -1.1104 6.45529 10.2309 17.5466
455 1 -1.1104 6.54681 10.2297 14.9319
508 1 -1.1104 6.54484 13.1098 15.0159
452 1 -1.1104 0.989964 10.2763 20.5489
524 1 -1.1104 3.64036 13.0575 20.5729
505 1 -1.1104 0.881079 12.9673 20.4541
509 1 -1.1104 6.44093 12.688 20.7492
353 2 2.2208 10.7975 6.00879 27.6199
473 2 2.2208 10.9026 11.5719 16.4764
478 1 -1.1104 12.2682 10.2939 17.8034
479 2 2.2208 10.7522 8.87687 19.0321
482 1 -1.1104 11.8567 10.1433 14.982
486 2 2.2208 7.83909 11.5792 19.1241
489 2 2.2208 7.82546 8.85531 16.1911
491 1 -1.1104 9.51564 9.8342 17.5473
494 1 -1.1104 9.13514 10.2309 14.7233
536 1 -1.1104 12.1244 13.0885 18.0974
538 1 -1.1104 11.9571 13.128 15.1374
547 1 -1.1104 9.41626 12.7862 17.7977
550 1 -1.1104 9.19666 13.0073 15.1756
495 1 -1.1104 9.46432 10.2587 20.6024
539 1 -1.1104 12.1532 13.0001 20.7249
9265 2 2.2208 2.15046 -5.20701 25.0801
551 1 -1.1104 9.45162 13.185 20.8676
483 1 -1.1104 12.2384 10.0561 20.876
511 1 -1.1104 6.59583 18.607 20.4659
527 2 2.2208 2.12296 14.452 16.3418
514 2 2.2208 5.04892 14.2779 19.0054
499 2 2.2208 5.39779 17.1353 16.322
501 1 -1.1104 1.02874 18.7239 17.7226
506 1 -1.1104 1.02225 18.6879 14.9227
512 1 -1.1104 0.77862 15.8502 17.7235
515 2 2.2208 5.12776 20.0083 19.2303
516 1 -1.1104 0.688994 15.8026 15.0759
521 1 -1.1104 3.89408 18.8832 17.747
522 2 2.2208 2.16667 17.2871 19.0496
525 1 -1.1104 3.71733 18.7084 15.077
528 2 2.2208 2.22997 20.0659 16.3186
529 1 -1.1104 3.57783 15.904 17.7229
530 1 -1.1104 3.73056 15.8008 14.956
513 1 -1.1104 6.39087 15.6316 17.6346
503 1 -1.1104 6.70298 18.4837 17.8152
510 1 -1.1104 6.36268 18.4938 14.7902
518 1 -1.1104 6.52088 15.8205 14.7312
531 1 -1.1104 3.86568 16.0794 20.6209
517 1 -1.1104 0.917668 15.6299 20.4067
519 1 -1.1104 6.47906 15.5283 20.6487
507 1 -1.1104 0.918446 18.4484 20.7066
711 2 2.2208 -0.460114 20.1031 24.9943
546 1 -1.1104 12.2324 15.8235 20.6587
554 2 2.2208 8.10163 14.4596 16.4124
543 2 2.2208 10.7212 14.367 19.3357
540 1 -1.1104 12.1204 18.9278 14.9213
535 2 2.2208 10.7854 17.4456 16.3499
537 1 -1.1104 12.1696 18.7347 17.6463
542 1 -1.1104 12.1885 15.968 17.6371
544 2 2.2208 10.6754 20.1426 19.1888
545 1 -1.1104 12.0184 15.9418 14.864
548 1 -1.1104 9.50798 18.5381 17.7583
549 2 2.2208 7.98377 17.1874 19.2492
552 1 -1.1104 9.18737 18.9104 14.7843
555 2 2.2208 7.87406 20.0407 16.1695
556 1 -1.1104 9.34466 15.834 18.027
557 1 -1.1104 9.02243 16.2675 15.2146
627 2 2.2208 13.607 17.3094 24.8981
9404 2 2.2208 7.76984 -5.27053 19.2445
553 1 -1.1104 9.3897 18.5156 20.3783
378 1 -1.1104 0.706481 -0.9714 20.7797
366 1 -1.1104 0.702419 -3.9528 20.7035
380 1 -1.1104 6.38882 -1.10837 20.6622
370 1 -1.1104 6.48318 -3.82211 20.5295
563 2 2.2208 5.02085 0.445798 22.0211
564 1 -1.1104 1.0257 -3.85838 23.6276
568 1 -1.1104 0.735008 -3.75917 26.3516
572 1 -1.1104 0.627893 -0.956091 23.5226
574 2 2.2208 5.08818 -2.38375 24.916
576 1 -1.1104 0.854396 -0.868153 26.5514
578 1 -1.1104 3.70829 -3.74335 23.5436
580 2 2.2208 2.09668 0.432231 25.2195
581 1 -1.1104 3.7835 -3.56359 26.3764
583 2 2.2208 2.31668 -2.29675 22.1191
585 1 -1.1104 3.77706 -1.01299 23.5257
586 1 -1.1104 3.55807 -0.958312 26.2823
573 1 -1.1104 6.48948 -0.903598 23.2975
566 1 -1.1104 6.28219 -3.64633 23.3825
570 1 -1.1104 6.79643 -3.92608 26.4912
716 2 2.2208 7.95683 14.3898 22.1918
590 2 2.2208 13.4256 17.4052 19.3075
393 2 2.2208 -0.391245 5.99901 21.9771
9422 2 2.2208 13.51 -5.31851 19.0831
617 2 2.2208 13.6156 0.263144 19.4162
677 1 -1.1104 12.3279 18.4652 26.3818
625 2 2.2208 13.5262 -2.65604 22.0776
706 1 -1.1104 11.973 15.7326 26.3356
577 1 -1.1104 6.41556 -1.06473 26.1631
414 1 -1.1104 12.0013 -1.04546 20.5893
599 2 2.2208 10.557 0.326416 22.0042
600 1 -1.1104 12.0082 -4.03204 23.479
602 1 -1.1104 12.2682 -3.93576 26.354
604 1 -1.1104 12.1 -1.21768 23.4854
605 2 2.2208 10.7454 -2.51699 24.8692
607 1 -1.1104 12.3277 -1.21889 26.3919
608 1 -1.1104 9.20387 -4.02522 23.4591
610 2 2.2208 7.8671 0.609089 24.9053
611 1 -1.1104 9.47239 -3.90652 26.4061
613 2 2.2208 7.84657 -2.42699 21.9873
615 1 -1.1104 9.45015 -1.30167 23.3859
616 1 -1.1104 9.46095 -0.985636 26.4251
626 2 2.2208 13.5375 0.258746 24.8537
9430 2 2.2208 4.83639 -5.28189 16.2515
715 2 2.2208 7.91319 20.1688 21.9038
461 1 -1.1104 3.65928 7.45407 20.5827
454 1 -1.1104 6.45279 4.47162 20.6319
368 1 -1.1104 0.760081 1.86443 20.8493
565 1 -1.1104 1.01957 1.82124 23.6777
569 1 -1.1104 0.734424 1.87626 26.4465
575 2 2.2208 5.17574 3.26217 24.8856
579 1 -1.1104 3.56552 1.92962 23.7013
582 1 -1.1104 3.82934 1.85167 26.4453
584 2 2.2208 2.29418 3.18324 22.2278
628 2 2.2208 5.08549 6.01306 22.0021
632 1 -1.1104 1.08262 7.55743 26.3782
634 1 -1.1104 0.906989 4.8047 23.5997
639 1 -1.1104 0.939261 4.72743 26.3332
644 2 2.2208 2.41191 5.81905 24.9912
648 1 -1.1104 3.68003 4.63464 23.5415
650 1 -1.1104 3.73934 4.62491 26.3184
646 1 -1.1104 3.69226 7.39031 26.2492
630 1 -1.1104 0.864067 7.4023 23.4283
567 1 -1.1104 6.44051 1.83792 23.4657
631 1 -1.1104 6.44225 7.5885 23.265
641 1 -1.1104 6.50612 4.59457 26.3317
571 1 -1.1104 6.60666 1.8162 26.3343
633 1 -1.1104 6.43191 7.32808 26.1764
636 1 -1.1104 6.52916 4.63504 23.4336
347 2 2.2208 7.90313 14.4524 27.6092
682 2 2.2208 13.605 6.09789 24.9258
476 1 -1.1104 12.0613 7.34068 20.7299
601 1 -1.1104 12.145 1.80144 23.6093
603 1 -1.1104 12.1619 1.82134 26.3286
606 2 2.2208 10.7627 3.23807 24.7394
609 1 -1.1104 9.28009 1.6607 23.5077
612 1 -1.1104 9.37303 1.8459 26.1807
614 2 2.2208 7.96959 3.02805 21.7439
660 1 -1.1104 9.28349 4.88081 26.142
662 1 -1.1104 9.43276 4.52146 23.5537
666 2 2.2208 7.85709 5.95321 24.7918
667 2 2.2208 10.708 5.81994 22.0636
671 1 -1.1104 12.2927 4.49598 23.3086
674 1 -1.1104 12.0999 4.70574 26.2877
670 1 -1.1104 12.2745 7.38573 26.5077
664 1 -1.1104 9.30942 7.52764 26.3509
676 1 -1.1104 9.09294 7.35606 23.0163
669 1 -1.1104 11.9957 7.39129 23.5045
395 2 2.2208 13.5355 3.15588 22.0754
344 2 2.2208 13.4924 14.2713 27.6668
399 2 2.2208 -0.417376 20.0101 13.7175
468 1 -1.1104 3.6592 10.2119 20.4914
643 1 -1.1104 3.54366 7.30572 23.5234
456 1 -1.1104 6.47139 10.1131 20.3658
629 2 2.2208 5.02918 11.6116 21.9887
635 1 -1.1104 0.823261 10.0443 23.3171
638 2 2.2208 5.08515 8.75266 24.7306
640 1 -1.1104 0.892936 10.2927 26.1283
645 2 2.2208 2.20227 11.7153 24.7343
647 2 2.2208 2.26125 8.76387 22.0143
649 1 -1.1104 3.63791 10.3539 23.346
651 1 -1.1104 3.52066 10.5141 26.21
685 1 -1.1104 3.83864 13.0032 23.3689
689 1 -1.1104 0.780296 13.1671 26.2931
695 1 -1.1104 0.764356 13.2216 23.3484
700 1 -1.1104 3.48072 13.0324 26.2736
693 1 -1.1104 6.67517 13.0317 23.4167
642 1 -1.1104 6.47866 9.95159 26.1879
684 1 -1.1104 6.3783 12.9307 26.2228
679 2 2.2208 10.7108 14.4437 24.8348
591 2 2.2208 13.3926 14.3989 16.4312
9048 2 2.2208 10.8354 -5.36596 27.757
637 1 -1.1104 6.45388 10.2493 23.249
718 1 -1.1104 9.33572 12.9568 26.1856
654 1 -1.1104 12.1056 13.2369 23.3456
707 1 -1.1104 9.40556 13.053 23.3778
659 1 -1.1104 9.45574 10.1797 26.1188
661 1 -1.1104 9.48268 10.0088 23.2326
663 2 2.2208 7.74059 8.90026 21.8335
665 2 2.2208 7.95037 11.4622 24.7052
668 2 2.2208 10.7996 11.5525 22.0652
672 1 -1.1104 12.322 10.3762 23.7108
673 2 2.2208 10.9234 8.96649 24.8789
675 1 -1.1104 12.1534 10.0557 26.4199
658 1 -1.1104 12.1875 12.8919 26.0443
714 1 -1.1104 9.60988 15.711 23.4009
690 1 -1.1104 6.41792 18.7763 23.3972
334 2 2.2208 5.01828 0.205282 27.6083
657 2 2.2208 -0.399213 11.6646 21.9875
526 1 -1.1104 3.86131 18.8379 20.675
349 2 2.2208 7.93317 20.0486 27.7263
686 1 -1.1104 6.69257 15.7222 26.0792
705 2 2.2208 2.31674 14.4658 22.0713
692 2 2.2208 5.14586 14.4808 24.8293
683 1 -1.1104 3.46811 18.5961 23.4806
687 1 -1.1104 0.818052 18.7227 26.4137
688 1 -1.1104 1.00134 15.8934 26.4456
691 2 2.2208 5.06427 20.0218 24.7116
694 1 -1.1104 0.860492 18.5802 23.6494
696 2 2.2208 5.07841 17.2822 22.0305
697 1 -1.1104 3.79698 18.8517 26.2263
698 2 2.2208 2.30115 17.1386 25.0187
699 1 -1.1104 3.85546 15.8452 26.3163
702 1 -1.1104 0.814816 15.8166 23.521
703 1 -1.1104 3.58974 15.8883 23.5297
704 2 2.2208 2.35684 20.1647 22.0889
701 1 -1.1104 6.68683 15.8607 23.1821
653 2 2.2208 10.8797 17.3808 22.0053
655 1 -1.1104 11.987 18.8948 23.5743
623 2 2.2208 13.3033 6.07266 19.2555
681 2 2.2208 10.5353 20.0215 24.8788
541 1 -1.1104 12.2136 18.8308 20.5418
558 1 -1.1104 9.26844 15.9184 20.66
720 2 2.2208 8.09842 17.1676 24.9104
624 2 2.2208 13.4431 14.402 22.0759
678 1 -1.1104 12.2988 16.106 23.4523
342 2 2.2208 13.5423 3.22879 27.6721
717 1 -1.1104 9.39982 18.6035 26.3076
713 1 -1.1104 9.44549 15.8318 26.4043
335 2 2.2208 2.21275 -2.45994 27.7342
9267 2 2.2208 5.08012 -5.33203 22.1908
343 2 2.2208 5.20838 6.04573 27.7509
340 2 2.2208 8.05517 3.37026 27.7108
708 2 2.2208 2.34702 14.4375 27.5551
338 2 2.2208 10.9396 0.462982 27.6587
532 2 2.2208 2.37328 17.2527 13.7135
345 2 2.2208 13.5242 20.0874 27.7231
336 2 2.2208 2.29348 3.1638 27.6066
721 2 2.2208 4.85475 22.7754 5.10207
723 1 -1.1104 0.737489 24.3392 1.00019
724 1 -1.1104 0.872789 24.2921 3.83203
725 1 -1.1104 0.937952 21.6196 0.983376
727 2 2.2208 5.18154 25.7519 2.23753
728 1 -1.1104 0.816636 21.5924 3.64118
730 1 -1.1104 3.63987 24.3707 1.01513
731 2 2.2208 2.27196 22.895 2.38168
733 1 -1.1104 3.64743 24.189 3.84886
734 2 2.2208 2.4272 25.5864 5.18789
735 1 -1.1104 3.54591 21.6675 0.911148
737 1 -1.1104 3.80895 21.2844 3.6111
726 1 -1.1104 0.945348 27.1028 1.09291
729 1 -1.1104 1.03862 27.2406 3.8759
742 1 -1.1104 6.43372 24.3408 0.74016
744 1 -1.1104 6.01685 21.3954 0.680912
746 1 -1.1104 6.73133 21.5079 3.45605
869 1 -1.1104 3.64948 21.4374 6.49397
747 1 -1.1104 6.65348 27.1406 3.42166
863 1 -1.1104 6.53809 24.3479 6.30464
864 1 -1.1104 0.762883 21.6242 6.33554
868 1 -1.1104 3.46178 24.2301 6.74249
862 1 -1.1104 0.781814 24.1108 6.54272
743 1 -1.1104 6.36035 24.1911 3.62307
748 2 2.2208 10.4002 22.8435 4.99223
750 1 -1.1104 12.014 24.3981 0.653948
751 1 -1.1104 12.2586 24.6945 3.35116
752 1 -1.1104 12.0624 21.5374 0.802036
754 2 2.2208 10.6232 25.8054 2.06088
755 1 -1.1104 12.0356 21.6518 3.669
757 1 -1.1104 9.04998 24.2452 0.733836
758 2 2.2208 7.76288 22.9304 2.12734
760 1 -1.1104 9.24771 24.4278 3.55634
761 2 2.2208 7.83151 25.6585 4.90393
762 1 -1.1104 9.20915 21.4542 0.687353
764 1 -1.1104 9.38127 21.6988 3.33313
898 1 -1.1104 9.18839 24.2165 6.44532
896 1 -1.1104 12.0174 21.6011 6.39629
895 1 -1.1104 12.1068 24.2901 6.12969
899 1 -1.1104 9.28506 21.4651 6.30529
900 1 -1.1104 9.24352 27.1155 6.22915
766 2 2.2208 13.5095 23.1012 1.99837
1030 2 2.2208 13.5026 42.4624 10.9654
736 1 -1.1104 3.677 27.2078 0.785706
738 1 -1.1104 3.7425 27.1245 3.8565
745 1 -1.1104 6.28608 27.2003 0.742167
867 1 -1.1104 6.57904 26.9861 6.39781
722 2 2.2208 5.12719 28.5588 5.04639
732 2 2.2208 2.32594 28.5582 2.3177
770 1 -1.1104 0.673929 30.2259 1.03799
773 1 -1.1104 0.962274 29.9128 3.65421
776 1 -1.1104 0.785126 33.008 0.87674
777 2 2.2208 4.86213 31.5022 2.17336
779 1 -1.1104 0.952336 32.8189 3.64535
781 1 -1.1104 3.52305 30.0515 0.676084
784 1 -1.1104 3.646 30.0747 3.72692
786 2 2.2208 2.2298 31.3425 5.09083
788 1 -1.1104 3.61474 32.9871 0.947286
789 1 -1.1104 3.5305 32.7752 3.65967
793 1 -1.1104 6.12537 30.0723 0.930775
923 1 -1.1104 3.64954 32.5902 6.56981
780 1 -1.1104 6.18205 32.849 3.51156
794 1 -1.1104 6.52595 29.9224 3.69425
795 1 -1.1104 6.43767 32.9447 0.883002
920 1 -1.1104 6.41006 32.5709 6.32868
917 1 -1.1104 6.5045 29.9238 6.61157
861 2 2.2208 13.5484 39.879 2.36188
921 1 -1.1104 3.64019 29.8655 6.53548
915 1 -1.1104 0.859961 29.8558 6.65091
756 1 -1.1104 12.3347 27.4519 4.10718
763 1 -1.1104 9.10367 27.2411 0.569022
765 1 -1.1104 9.3729 27.1855 3.37056
753 1 -1.1104 11.9002 27.1155 0.849336
749 2 2.2208 10.7795 28.8006 4.89256
759 2 2.2208 7.78592 28.624 1.94371
797 1 -1.1104 11.9597 29.9333 0.789149
799 1 -1.1104 12.2888 29.9505 3.70715
801 1 -1.1104 11.9809 32.6638 0.578726
802 2 2.2208 10.6282 31.4978 2.0203
804 1 -1.1104 12.1594 32.7463 3.4084
805 1 -1.1104 8.91355 29.9411 0.601039
808 1 -1.1104 9.28626 30.1177 3.37458
810 2 2.2208 7.70391 31.3744 4.98117
812 1 -1.1104 9.39407 32.8123 0.697209
813 1 -1.1104 9.12878 32.904 3.66252
954 1 -1.1104 9.22119 32.8802 6.38201
951 1 -1.1104 12.1681 32.6957 6.06998
949 1 -1.1104 12.2676 29.9211 6.81132
1045 2 2.2208 2.34339 28.5706 13.3897
952 1 -1.1104 9.16328 30.0728 6.21209
1421 2 2.2208 13.466 22.5242 13.4651
769 2 2.2208 4.99369 33.934 5.21595
771 1 -1.1104 1.00947 35.7138 0.969608
774 1 -1.1104 0.774057 35.5103 3.64507
778 2 2.2208 5.17495 36.9741 2.25576
782 1 -1.1104 3.83738 35.855 0.750365
783 2 2.2208 2.11495 34.2902 2.2299
785 1 -1.1104 3.72842 35.6973 3.51524
787 2 2.2208 2.44304 37.0341 5.11319
821 1 -1.1104 0.69423 38.5084 0.718549
826 1 -1.1104 0.883338 38.4795 3.64507
831 2 2.2208 2.20393 39.9868 2.27311