ITEM: TIMESTEP
20000
ITEM: NUMBER OF ATOMS
17760
ITEM: BOX BOUNDS pp pp pp
-4.5380238305854209e-01 2.7793802383058409e+01
-5.3775379040711622e+00 3.3345753790407474e+02
-4.5653036727058854e-01 2.7796530367270687e+01
ITEM: ATOMS id type q x y z
1 2 2.2208 5.18637 0.119005 5.30731
2 1 -1.1104 0.924248 -3.93785 1.33377
6 1 -1.1104 1.04758 -3.88413 4.03098
10 1 -1.1104 0.761031 -1.17339 0.956158
12 2 2.2208 5.22194 -2.5764 2.50703
14 1 -1.1104 0.949252 -1.23913 4.09528
16 1 -1.1104 3.85452 -3.89023 1.05114
18 2 2.2208 2.46634 0.26774 2.38315
19 1 -1.1104 3.81424 -4.05212 3.77592
21 2 2.2208 2.44251 -2.58215 5.3984
23 1 -1.1104 3.497 -1.22624 0.8054
24 1 -1.1104 3.83741 -1.12059 3.90754
52 2 2.2208 13.6098 8.61421 10.8089
231 2 2.2208 13.3862 19.9003 4.99381
9040 2 2.2208 5.37805 -5.38215 10.8657
342 2 2.2208 13.4841 2.83615 -0.196749
174 1 -1.1104 3.85871 -1.1583 6.77588
172 1 -1.1104 4.15903 -4.12374 6.68613
166 1 -1.1104 0.809502 -4.17073 6.95458
316 2 2.2208 7.9154 19.823 10.9182
30 2 2.2208 -0.40867 8.80772 8.1934
329 1 -1.1104 12.1408 18.6331 12.1631
4 1 -1.1104 6.4253 -3.99751 1.21991
327 1 -1.1104 12.083 18.2803 9.19434
15 1 -1.1104 6.40555 -1.03602 3.84951
8 1 -1.1104 6.74532 -3.83994 3.89297
11 1 -1.1104 6.42896 -1.1654 1.2051
31 2 2.2208 10.8181 0.182386 5.12424
32 1 -1.1104 12.2724 -4.05219 0.92493
34 1 -1.1104 12.5827 -4.39227 3.91609
36 1 -1.1104 12.2278 -1.3361 1.32593
37 2 2.2208 10.7543 -2.66423 2.62947
39 1 -1.1104 12.2692 -1.3283 4.09311
40 1 -1.1104 9.42444 -4.24919 1.2105
42 2 2.2208 7.93579 0.194643 2.50216
43 1 -1.1104 9.53727 -4.08475 4.02327
45 2 2.2208 8.11048 -2.64008 5.25372
47 1 -1.1104 9.14164 -1.23592 1.23837
48 1 -1.1104 9.35486 -1.36235 3.89311
28 2 2.2208 13.5532 19.7278 10.6174
207 1 -1.1104 12.2161 -1.24895 6.82363
9035 2 2.2208 -0.4103 -5.24394 5.5745
171 1 -1.1104 6.88934 -1.0874 6.90852
205 1 -1.1104 12.1292 -4.10336 6.56473
332 2 2.2208 13.5356 16.9277 7.9163
3 1 -1.1104 1.08721 1.49828 1.18593
7 1 -1.1104 1.06157 1.46407 3.89469
13 2 2.2208 5.15745 3.18584 2.4309
17 1 -1.1104 4.02398 1.81269 0.967687
20 1 -1.1104 3.62785 1.67488 3.92632
22 2 2.2208 2.34473 3.03474 5.36316
54 2 2.2208 5.08692 5.95363 5.12157
56 1 -1.1104 0.571029 7.08802 0.894761
58 1 -1.1104 0.732349 7.26266 3.74711
60 1 -1.1104 0.781076 4.48426 0.944984
67 1 -1.1104 0.694002 4.41159 3.90473
72 2 2.2208 2.19298 5.89691 2.35067
74 1 -1.1104 3.65896 7.17095 3.73279
76 1 -1.1104 3.51249 4.44415 0.998352
79 1 -1.1104 3.6785 4.5016 3.85762
71 1 -1.1104 3.35517 7.22805 0.983695
9 1 -1.1104 6.58211 1.77474 3.85466
335 2 2.2208 2.21621 -2.75461 -0.173773
57 1 -1.1104 6.47138 7.28449 1.04519
318 1 -1.1104 9.41218 18.6144 9.47997
167 1 -1.1104 0.877767 1.67171 6.78145
169 1 -1.1104 6.40285 1.51511 6.43379
289 1 -1.1104 6.30292 15.7556 9.38775
343 2 2.2208 5.10634 5.6501 -0.421763
59 1 -1.1104 6.59664 7.37209 3.74781
63 1 -1.1104 6.6733 4.42079 0.652
5 1 -1.1104 6.6916 1.54994 0.993883
69 1 -1.1104 6.45488 4.48031 3.76044
33 1 -1.1104 12.2772 1.42471 1.116
35 1 -1.1104 12.2047 1.5305 3.8793
38 2 2.2208 10.8545 2.97675 2.3627
41 1 -1.1104 9.53345 1.65011 1.03435
44 1 -1.1104 9.28441 1.57373 4.02753
46 2 2.2208 7.81274 3.17181 5.25642
84 2 2.2208 10.6825 5.74575 5.22138
87 1 -1.1104 12.2871 7.22813 3.61754
88 1 -1.1104 12.2594 4.23186 1.09401
92 1 -1.1104 12.0217 4.3366 3.94517
94 1 -1.1104 9.16174 7.17979 0.90951
95 2 2.2208 7.93938 5.86533 2.33248
97 1 -1.1104 9.24426 7.20115 3.78088
99 1 -1.1104 9.41584 4.34856 0.716039
102 1 -1.1104 9.21311 4.49213 3.58325
86 1 -1.1104 12.0893 7.09648 0.845893
209 1 -1.1104 9.33911 1.85958 6.68407
27 2 2.2208 -0.314032 2.98666 2.44197
269 1 -1.1104 9.0058 4.67621 6.28536
206 1 -1.1104 12.268 1.39454 6.79781
55 2 2.2208 5.17269 11.297 5.16994
61 1 -1.1104 0.955968 10.2272 1.01281
66 2 2.2208 5.04849 8.44242 2.30311
68 1 -1.1104 0.942667 10.0351 3.81162
73 2 2.2208 2.30559 11.5509 2.20032
75 2 2.2208 2.18249 8.57615 5.06048
77 1 -1.1104 3.81116 10.0202 0.844087
80 1 -1.1104 3.74599 10.0645 3.83199
107 1 -1.1104 0.980093 12.8708 0.902259
113 1 -1.1104 0.617766 12.818 3.65538
123 1 -1.1104 3.65212 13.0085 1.02978
128 1 -1.1104 3.57327 12.8646 3.78743
115 1 -1.1104 6.36037 12.9716 3.62378
323 1 -1.1104 12.0264 15.4983 9.28391
229 2 2.2208 13.5909 0.0619571 8.04771
202 2 2.2208 13.6824 5.7595 8.04834
70 1 -1.1104 6.52927 10.1192 3.78165
64 1 -1.1104 6.36566 10.0188 0.941882
53 2 2.2208 13.5669 11.4357 7.86512
49 2 2.2208 13.6467 0.138053 2.50099
110 1 -1.1104 6.67878 12.812 0.884196
85 2 2.2208 10.5238 11.4052 5.23853
89 1 -1.1104 12.3751 9.90343 0.906967
91 2 2.2208 10.8036 8.58194 2.36812
93 1 -1.1104 12.0249 9.9648 3.89467
96 2 2.2208 7.90057 11.4857 2.19945
98 2 2.2208 7.83734 8.69885 5.18499
100 1 -1.1104 9.46785 10.0555 1.03295
103 1 -1.1104 9.1431 9.9006 3.73525
142 1 -1.1104 12.1766 12.7246 0.816314
146 1 -1.1104 12.1184 12.8181 3.50938
153 1 -1.1104 9.35643 12.7713 0.425145
158 1 -1.1104 9.17599 12.7663 3.45899
321 1 -1.1104 9.31852 18.6085 12.3001
9036 2 2.2208 7.97866 -5.38353 2.37153
561 2 2.2208 7.9697 17.1654 13.5005
50 2 2.2208 13.675 -2.77862 5.36629
119 2 2.2208 5.1288 14.43 2.3447
130 2 2.2208 2.38125 14.2205 5.1061
106 2 2.2208 5.11453 17.1579 5.1359
109 1 -1.1104 0.749051 18.6359 0.947701
114 1 -1.1104 0.767121 18.5942 3.58472
116 1 -1.1104 0.870584 15.5986 0.916969
120 2 2.2208 5.03874 19.9198 2.13456
121 1 -1.1104 0.702186 15.8573 3.6037
125 1 -1.1104 3.44334 18.4941 0.838725
127 2 2.2208 2.18093 17.1609 2.38108
129 1 -1.1104 3.71373 18.2832 3.66547
131 2 2.2208 2.14592 19.8173 5.1196
132 1 -1.1104 3.63879 15.8651 0.921164
134 1 -1.1104 3.55037 15.549 3.84119
138 1 -1.1104 6.75841 18.4178 0.902987
122 1 -1.1104 6.37799 15.8031 3.71574
118 1 -1.1104 6.60358 15.5235 6.34981
133 1 -1.1104 3.70163 15.7761 6.49219
302 1 -1.1104 0.839315 18.5243 6.56448
296 1 -1.1104 6.37669 18.3245 12.2123
145 1 -1.1104 12.1977 18.4786 6.43652
435 2 2.2208 10.8401 2.9272 13.6624
204 2 2.2208 13.5863 14.1452 5.0985
326 1 -1.1104 11.9047 15.694 11.9991
315 1 -1.1104 9.1508 15.6929 12.0364
160 2 2.2208 7.9024 14.3294 4.87537
139 1 -1.1104 6.45973 18.6453 3.58736
140 1 -1.1104 6.47523 15.6739 0.847824
150 2 2.2208 10.6505 14.1955 2.19781
141 2 2.2208 10.8356 17.0056 5.19766
144 1 -1.1104 12.3078 18.3241 0.812605
147 1 -1.1104 12.2024 18.4065 3.49036
148 1 -1.1104 12.0259 15.6166 1.04767
151 2 2.2208 10.6132 19.9368 2.17625
152 1 -1.1104 12.1883 15.4876 3.75443
155 1 -1.1104 9.65342 18.4307 0.670933
157 2 2.2208 7.85875 17.1881 2.37126
159 1 -1.1104 9.18429 18.7143 3.54904
161 2 2.2208 7.83624 19.9448 4.87544
162 1 -1.1104 9.18776 15.6846 0.852492
164 1 -1.1104 9.29851 15.8474 3.58187
559 2 2.2208 10.8093 19.932 13.6426
350 2 2.2208 5.08324 11.5068 -0.414355
534 2 2.2208 5.21255 14.081 13.6763
320 2 2.2208 7.78018 17.1441 7.87009
170 1 -1.1104 1.14172 -1.38528 6.98189
175 2 2.2208 5.114 0.076148 10.984
176 1 -1.1104 1.00029 -4.03085 12.2895
180 1 -1.1104 0.979496 -4.07232 9.64584
184 1 -1.1104 0.978064 -1.21663 12.3969
186 2 2.2208 5.41397 -2.63544 8.06112
188 1 -1.1104 0.901273 -1.26652 9.63016
190 1 -1.1104 3.88427 -3.86588 12.1692
192 2 2.2208 2.27033 0.0792006 8.13474
193 1 -1.1104 4.03722 -4.25137 9.24641
195 2 2.2208 2.18214 -2.43924 10.9307
197 1 -1.1104 3.61177 -0.978681 12.422
198 1 -1.1104 3.61135 -1.31753 9.45761
178 1 -1.1104 6.77744 -3.79938 12.3178
185 1 -1.1104 6.85936 -1.1444 12.4159
325 2 2.2208 10.6407 14.2306 7.94403
168 1 -1.1104 6.81529 -3.82822 6.73506
208 1 -1.1104 9.43823 -3.9354 6.83148
182 1 -1.1104 6.90814 -4.13621 9.58278
189 1 -1.1104 6.36447 -1.45702 9.72849
210 1 -1.1104 9.66671 -1.06594 6.59432
211 2 2.2208 10.6924 0.20208 10.7657
212 1 -1.1104 12.6878 -4.36628 12.2925
214 1 -1.1104 12.4376 -3.94278 9.41275
216 1 -1.1104 12.2944 -1.46611 12.3235
217 2 2.2208 10.9608 -2.56783 8.08578
219 1 -1.1104 12.3201 -1.23805 9.5201
220 1 -1.1104 9.75941 -4.03176 12.3132
222 2 2.2208 8.00625 0.371559 8.06398
223 1 -1.1104 9.69314 -4.11158 9.62991
225 2 2.2208 8.31606 -2.67398 11.0221
227 1 -1.1104 9.66634 -1.27999 12.2287
228 1 -1.1104 9.28962 -1.05472 9.47072
156 1 -1.1104 9.28661 18.3618 6.43759
288 1 -1.1104 6.47762 18.6509 9.36431
354 2 2.2208 7.74825 8.70259 -0.390018
173 1 -1.1104 3.71055 1.59743 6.8292
235 1 -1.1104 6.16644 7.238 6.60084
331 2 2.2208 10.6664 17.0629 10.643
238 1 -1.1104 3.24403 7.17295 6.32829
236 1 -1.1104 0.662015 4.49666 6.59473
239 1 -1.1104 3.65031 4.47628 6.66725
177 1 -1.1104 0.891737 1.43731 12.418
181 1 -1.1104 0.987094 1.412 9.77408
187 2 2.2208 5.18316 2.89116 8.14092
191 1 -1.1104 3.77949 1.64597 12.4077
194 1 -1.1104 3.67611 1.44425 9.49538
196 2 2.2208 2.45777 2.89888 11.048
240 2 2.2208 5.09441 5.55582 10.7764
242 1 -1.1104 0.946789 7.23643 12.4557
246 1 -1.1104 0.930057 4.25169 12.4704
251 1 -1.1104 1.15603 4.25971 9.50473
255 1 -1.1104 3.80874 7.2009 12.2867
256 2 2.2208 2.13428 5.86102 7.87046
260 1 -1.1104 3.63315 4.43761 12.518
262 1 -1.1104 4.00562 4.02721 9.51303
244 1 -1.1104 0.961162 7.12305 9.58713
245 1 -1.1104 6.43512 7.14344 9.30826
234 1 -1.1104 0.759309 7.34549 6.69855
258 1 -1.1104 3.66922 6.90098 9.1957
253 1 -1.1104 6.55541 4.1212 9.42782
248 1 -1.1104 6.67333 4.49429 12.3419
266 1 -1.1104 12.1666 4.42807 6.68854
237 1 -1.1104 6.37235 4.27686 6.60765
267 1 -1.1104 9.25437 7.24311 6.72142
179 1 -1.1104 6.43766 1.69357 12.2414
243 1 -1.1104 6.46735 7.24623 12.0359
183 1 -1.1104 6.44796 1.3614 9.46204
265 1 -1.1104 12.1792 7.22655 6.58974
213 1 -1.1104 12.2628 1.46801 12.248
215 1 -1.1104 11.9664 1.49322 9.50885
218 2 2.2208 10.9597 2.9666 8.04762
221 1 -1.1104 9.34196 1.63438 12.4378
224 1 -1.1104 9.28531 1.54938 9.41875
226 2 2.2208 7.98669 2.82868 10.8811
268 1 -1.1104 9.54285 4.34758 9.21755
271 1 -1.1104 9.65121 4.28732 11.9707
275 2 2.2208 7.88124 5.86545 8.15107
276 2 2.2208 10.9829 5.76142 10.866
278 1 -1.1104 12.584 7.14578 12.2817
279 1 -1.1104 12.1892 7.07244 9.54039
280 1 -1.1104 12.2707 4.34555 12.2512
283 1 -1.1104 12.2812 4.49288 9.44136
285 1 -1.1104 9.58462 7.29548 12.1159
273 1 -1.1104 9.30271 7.10218 9.50269
324 2 2.2208 10.7389 19.7917 7.8631
346 2 2.2208 2.2687 8.71528 -0.405117
78 1 -1.1104 3.55323 9.79013 6.7225
62 1 -1.1104 0.693412 10.0447 6.63201
124 1 -1.1104 3.63804 12.8102 6.54647
108 1 -1.1104 0.913658 12.8223 6.52862
241 2 2.2208 5.33828 11.3137 10.8693
247 1 -1.1104 0.949816 9.99228 12.5118
250 2 2.2208 4.99319 8.5986 8.0526
252 1 -1.1104 1.01473 10.0024 9.5879
257 2 2.2208 2.2568 11.396 8.00973
259 2 2.2208 2.36189 8.50943 11.0518
261 1 -1.1104 3.74859 9.87536 12.2085
263 1 -1.1104 3.75918 9.89789 9.57738
287 1 -1.1104 3.79455 12.8076 12.1494
294 1 -1.1104 0.754208 12.7468 9.45416
299 1 -1.1104 0.813174 12.7739 12.1665
305 1 -1.1104 3.63393 12.7887 9.38288
65 1 -1.1104 6.35247 10.0708 6.65243
249 1 -1.1104 6.56479 9.89574 12.441
290 1 -1.1104 6.2726 12.7769 9.35345
306 1 -1.1104 6.44876 15.6105 12.1739
339 2 2.2208 8.09058 -2.62233 -0.247124
356 2 2.2208 13.4695 8.41827 -0.439522
143 1 -1.1104 11.7946 12.934 6.27481
154 1 -1.1104 9.13374 12.957 6.42831
90 1 -1.1104 11.9563 10.0942 6.7426
101 1 -1.1104 9.24096 10.0198 6.60997
111 1 -1.1104 6.48277 12.735 6.33922
254 1 -1.1104 6.70134 9.97076 9.42753
297 1 -1.1104 6.56125 12.8431 12.1879
330 1 -1.1104 12.2128 12.9289 12.1639
328 1 -1.1104 11.9812 12.7193 9.2885
322 1 -1.1104 9.45472 12.8156 12.101
319 1 -1.1104 9.07473 12.9923 9.32611
264 1 -1.1104 9.4516 10.1219 9.35408
270 1 -1.1104 9.30016 10.0204 12.1024
272 2 2.2208 7.9151 8.65324 10.8102
274 2 2.2208 7.83718 11.3567 7.84671
277 2 2.2208 10.6913 11.5692 10.8238
281 1 -1.1104 12.0846 10.0672 12.0672
282 2 2.2208 10.8279 8.56401 8.15785
284 1 -1.1104 12.4383 9.92964 9.39558
149 1 -1.1104 12.0437 15.6354 6.54667
117 1 -1.1104 0.884767 15.7359 6.37061
9033 2 2.2208 2.20503 -5.26155 2.62842
126 1 -1.1104 3.56214 18.5028 6.49357
310 2 2.2208 2.18175 14.114 10.6604
295 2 2.2208 5.12473 14.3018 7.9528
286 1 -1.1104 3.66238 18.4897 12.2841
291 1 -1.1104 0.630018 18.4751 9.19926
292 1 -1.1104 0.637191 15.6845 9.32027
293 2 2.2208 5.08165 19.7499 7.89416
298 1 -1.1104 0.902884 18.3393 12.0511
300 2 2.2208 4.87462 17.0526 10.7951
301 1 -1.1104 3.49392 18.2743 9.36759
303 2 2.2208 2.11962 17.0186 8.02948
304 1 -1.1104 3.45814 15.5104 9.3718
307 1 -1.1104 0.789728 15.6139 12.1448
308 1 -1.1104 3.41855 15.6623 12.016
309 2 2.2208 2.21909 19.892 10.8732
112 1 -1.1104 6.43954 18.3776 6.47084
163 1 -1.1104 9.34195 15.6011 6.59692
317 2 2.2208 7.818 14.2373 10.8131
314 1 -1.1104 9.07065 15.7531 9.593
533 2 2.2208 5.11013 19.801 13.615
560 2 2.2208 10.6204 14.2448 13.5008
26 2 2.2208 -0.395244 0.192623 5.45775
165 2 2.2208 13.4498 16.946 2.33607
496 2 2.2208 8.07742 5.80909 13.5566
333 2 2.2208 13.5243 14.2238 10.8187
199 2 2.2208 -0.421131 3.1571 8.17364
338 2 2.2208 10.9486 0.240345 -0.415142
532 2 2.2208 2.24627 16.9706 13.6046
497 2 2.2208 10.8402 8.65196 13.53
562 2 2.2208 13.4674 17.0735 13.5875
203 2 2.2208 13.5678 2.99506 10.8316
29 2 2.2208 -0.279522 5.61465 11.0285
233 2 2.2208 13.6273 2.88526 5.22633
470 2 2.2208 5.20316 8.38238 13.6198
433 2 2.2208 7.98911 0.10145 13.6548
336 2 2.2208 2.24601 2.98821 -0.38897
621 2 2.2208 13.5161 11.362 13.6372
360 2 2.2208 5.29023 0.184554 16.6408
361 1 -1.1104 0.94214 -4.17675 17.9524
365 1 -1.1104 1.29848 -4.16145 14.9792
373 1 -1.1104 1.02519 -1.44851 18.2164
375 2 2.2208 5.23241 -2.47636 19.497
377 1 -1.1104 1.12368 -1.22386 15.3584
381 1 -1.1104 3.79589 -4.0749 17.9797
383 2 2.2208 2.32631 0.209379 19.3008
384 1 -1.1104 4.15003 -3.99807 15.234
388 2 2.2208 2.53472 -2.75874 16.7108
390 1 -1.1104 3.90956 -1.20948 17.8171
391 1 -1.1104 3.82488 -1.29175 14.88
347 2 2.2208 8.03744 14.4299 27.7337
363 1 -1.1104 6.55183 -4.03714 18.382
369 1 -1.1104 6.84468 -4.27444 15.4279
9265 2 2.2208 2.4798 -5.34415 24.9507
432 2 2.2208 13.5998 20.0653 16.6284
385 1 -1.1104 3.8015 -4.04879 20.746
392 1 -1.1104 3.62005 -1.09647 20.6643
345 2 2.2208 13.4997 19.5809 27.6753
380 1 -1.1104 6.35366 -0.963985 20.8414
9267 2 2.2208 5.15564 -5.30578 22.153
379 1 -1.1104 6.7235 -1.40633 15.2093
374 1 -1.1104 6.62484 -1.17032 17.9238
403 2 2.2208 10.8319 0.0528517 16.4462
404 1 -1.1104 12.3109 -3.90736 17.8609
406 1 -1.1104 12.3173 -4.06886 15.1846
410 1 -1.1104 12.3376 -1.12478 18.1033
411 2 2.2208 10.845 -2.56364 19.352
413 1 -1.1104 12.195 -1.4987 15.2367
415 1 -1.1104 9.32467 -4.13282 18.1453
417 2 2.2208 7.82045 0.248716 19.4085
418 1 -1.1104 9.62559 -4.02859 15.079
422 2 2.2208 8.34074 -2.75452 16.5271
424 1 -1.1104 9.52491 -1.36525 17.9548
425 1 -1.1104 9.36365 -1.19782 14.9233
434 2 2.2208 11.0003 -2.70451 13.7606
394 2 2.2208 13.6816 8.66422 22.1574
370 1 -1.1104 6.82811 -4.08189 21.0933
426 1 -1.1104 9.28386 -0.996632 20.7581
414 1 -1.1104 12.2846 -1.40789 20.7706
362 1 -1.1104 0.906263 1.44623 17.9292
367 1 -1.1104 1.15715 1.44963 14.9995
376 2 2.2208 5.14601 3.00017 19.3638
382 1 -1.1104 3.6829 1.38081 17.8163
386 1 -1.1104 4.09124 1.59259 15.1355
389 2 2.2208 2.28644 2.85396 16.4622
436 2 2.2208 5.20519 5.5298 16.5517
440 1 -1.1104 0.999949 7.33451 15.1905
444 1 -1.1104 0.777372 4.27819 18.0533
449 1 -1.1104 0.683827 4.39141 15.2317
457 1 -1.1104 4.03585 7.15748 17.9226
458 2 2.2208 2.41636 5.73722 19.3868
460 1 -1.1104 3.7631 7.26192 15.2791
463 1 -1.1104 3.78465 3.96794 17.873
465 1 -1.1104 3.6131 4.55547 15.2931
438 1 -1.1104 1.05829 7.12123 17.8772
466 1 -1.1104 3.66598 4.44196 20.7482
398 2 2.2208 -0.167689 -2.71095 13.8147
364 1 -1.1104 6.53683 1.50121 18.1632
357 2 2.2208 2.19164 19.797 27.5933
9400 2 2.2208 -0.351823 -5.31479 22.2397
387 1 -1.1104 3.61943 1.68276 20.6483
372 1 -1.1104 6.56311 1.76221 21.0247
594 2 2.2208 -0.44255 8.48185 19.1603
442 1 -1.1104 6.53699 7.21841 14.9375
453 1 -1.1104 6.66339 4.35158 15.0545
439 1 -1.1104 6.65937 7.14627 17.9911
371 1 -1.1104 6.74466 1.50763 15.1336
446 1 -1.1104 6.71307 4.20415 17.7042
405 1 -1.1104 12.0788 1.34178 17.9344
408 1 -1.1104 12.3308 1.68449 15.0615
412 2 2.2208 10.7594 2.86079 19.3334
416 1 -1.1104 9.31103 1.32361 17.9139
420 1 -1.1104 9.73889 1.64853 15.1827
423 2 2.2208 8.10913 2.94483 16.3449
472 2 2.2208 10.8337 5.73274 16.4994
474 1 -1.1104 12.3642 7.15072 17.7704
475 1 -1.1104 12.2403 7.24896 15.1056
477 1 -1.1104 12.2701 4.37601 17.9162
480 1 -1.1104 12.2493 4.36927 15.2326
484 1 -1.1104 9.51296 7.19971 17.8625
485 2 2.2208 8.19367 5.74967 19.3192
490 1 -1.1104 9.5245 4.19317 17.8331
492 1 -1.1104 9.30136 4.50139 14.8498
487 1 -1.1104 9.54015 7.27268 14.9535
481 1 -1.1104 12.3041 4.17231 20.6232
620 2 2.2208 -0.447227 11.3903 16.6193
476 1 -1.1104 12.186 7.20067 20.6294
443 1 -1.1104 6.5399 7.25353 20.6924
421 1 -1.1104 9.29492 1.7464 20.9519
454 1 -1.1104 6.55569 4.46978 20.8212
587 2 2.2208 13.6592 8.5766 16.3905
9198 2 2.2208 7.89751 -5.35535 24.9429
437 2 2.2208 5.17547 11.3247 16.4383
445 1 -1.1104 1.14684 10.2114 17.9423
448 2 2.2208 5.18412 8.54595 19.2998
451 1 -1.1104 1.06635 10.0452 15.2509
459 2 2.2208 2.42695 11.3965 19.4862
462 2 2.2208 2.55237 8.63948 16.5706
464 1 -1.1104 3.78059 10.2593 17.9723
467 1 -1.1104 3.92829 9.90749 15.1194
500 1 -1.1104 0.963576 12.9556 17.8222
504 1 -1.1104 0.885101 12.9277 15.1958
520 1 -1.1104 3.73769 12.7337 17.699
523 1 -1.1104 3.81234 12.8323 15.0101
546 1 -1.1104 12.1609 15.7208 20.5528
505 1 -1.1104 1.07332 12.7296 20.6528
344 2 2.2208 13.5305 14.159 27.7971
397 2 2.2208 -0.25325 -2.75059 19.6051
447 1 -1.1104 6.44296 9.95299 17.8985
508 1 -1.1104 6.5339 12.6193 14.8579
455 1 -1.1104 6.71169 9.90506 15.1587
502 1 -1.1104 6.58597 12.8844 17.6553
473 2 2.2208 10.8811 11.4851 16.316
478 1 -1.1104 12.1495 9.82871 17.7447
479 2 2.2208 10.8731 8.67974 19.2507
482 1 -1.1104 12.2607 10.1095 15.1232
486 2 2.2208 7.86595 11.4159 19.1094
489 2 2.2208 8.0585 8.62291 16.3568
491 1 -1.1104 9.13969 10.1491 17.7536
494 1 -1.1104 9.4162 10.0515 15.0476
536 1 -1.1104 11.9194 12.7432 17.9553
538 1 -1.1104 11.944 12.8974 14.8418
547 1 -1.1104 9.37494 12.9511 17.7722
550 1 -1.1104 9.22245 12.8712 15.038
591 2 2.2208 13.3451 14.1414 16.5589
401 2 2.2208 2.28841 0.0672254 13.7304
495 1 -1.1104 9.49452 10.1191 20.6959
714 1 -1.1104 9.12562 15.5591 23.4792
355 2 2.2208 10.7078 11.1995 27.7755
514 2 2.2208 5.01103 14.147 19.253
499 2 2.2208 5.00985 16.9584 16.3025
501 1 -1.1104 0.667773 18.4029 17.7515
506 1 -1.1104 0.810254 18.3878 14.8941
512 1 -1.1104 0.706688 15.6468 17.8301
515 2 2.2208 4.87881 19.8366 19.139
516 1 -1.1104 0.719378 15.6532 15.023
521 1 -1.1104 3.63214 18.2861 17.8779
522 2 2.2208 2.09854 16.9483 19.2142
525 1 -1.1104 3.4653 18.4218 14.9487
527 2 2.2208 2.34279 14.2044 16.4545
528 2 2.2208 2.22573 19.7396 16.5225
529 1 -1.1104 3.76623 15.5487 17.7578
530 1 -1.1104 3.58434 15.5168 14.9884
679 2 2.2208 10.6666 14.1562 24.8563
518 1 -1.1104 6.40151 15.4631 15.002
541 1 -1.1104 12.1037 18.6452 20.6513
590 2 2.2208 13.5267 17.1398 19.2079
513 1 -1.1104 6.51605 15.7389 17.7498
553 1 -1.1104 9.4411 18.6146 20.5209
596 2 2.2208 -0.396623 -2.54539 25.3487
349 2 2.2208 8.04506 19.8437 27.6775
358 2 2.2208 5.15358 17.217 27.6635
543 2 2.2208 10.6622 14.3221 19.2492
503 1 -1.1104 6.21717 18.6309 17.7867
510 1 -1.1104 6.47057 18.3752 15.0032
540 1 -1.1104 12.1215 18.505 15.0384
535 2 2.2208 10.7463 17.095 16.381
537 1 -1.1104 12.2976 18.6327 17.9095
542 1 -1.1104 11.983 15.6722 17.7631
544 2 2.2208 10.6737 20.0151 19.3027
545 1 -1.1104 12.0848 15.5941 15.0093
548 1 -1.1104 9.29201 18.3496 17.7564
549 2 2.2208 7.8027 17.039 19.0663
552 1 -1.1104 9.37927 18.622 14.8976
554 2 2.2208 7.86671 14.2312 16.3653
555 2 2.2208 7.95348 19.9276 16.2012
556 1 -1.1104 9.15944 15.6868 17.7114
557 1 -1.1104 9.1947 15.7134 14.9068
469 2 2.2208 2.17416 5.70765 13.9049
366 1 -1.1104 1.33526 -4.13414 20.9656
378 1 -1.1104 1.0017 -1.09517 20.9892
563 2 2.2208 5.18233 0.269015 22.3193
564 1 -1.1104 0.89972 -4.03071 23.7144
568 1 -1.1104 1.07027 -4.18574 26.6924
572 1 -1.1104 0.911951 -1.21509 23.7696
574 2 2.2208 5.27164 -2.48328 25.1561
576 1 -1.1104 0.937729 -1.32641 26.5372
578 1 -1.1104 3.76744 -3.99824 23.537
580 2 2.2208 2.16681 0.339494 25.016
581 1 -1.1104 3.70183 -3.9261 26.3463
583 2 2.2208 2.19312 -2.56915 22.4217
585 1 -1.1104 3.82607 -1.12489 23.6414
586 1 -1.1104 3.92924 -1.23952 26.4482
570 1 -1.1104 6.69117 -4.05188 26.5663
577 1 -1.1104 6.7577 -1.18522 26.4957
680 2 2.2208 13.5692 11.2862 25.0217
706 1 -1.1104 12.1176 15.6489 26.0939
627 2 2.2208 13.36 17.0093 24.8777
334 2 2.2208 5.05097 0.157151 27.8314
419 1 -1.1104 9.6376 -3.93087 20.7596
407 1 -1.1104 12.2987 -4.1865 20.9036
573 1 -1.1104 6.5214 -1.16706 23.5999
566 1 -1.1104 6.53424 -4.04573 23.6833
599 2 2.2208 10.8812 0.0316512 22.415
600 1 -1.1104 12.2701 -4.04777 23.7993
602 1 -1.1104 12.2993 -4.09754 26.6154
604 1 -1.1104 12.5481 -1.18814 23.7063
605 2 2.2208 10.8904 -2.59037 25.2149
607 1 -1.1104 12.2282 -1.2257 26.6242
608 1 -1.1104 9.32348 -4.17587 23.4846
610 2 2.2208 8.05713 0.217594 25.0863
611 1 -1.1104 9.51945 -3.87157 26.613
613 2 2.2208 7.97544 -2.63732 22.2819
615 1 -1.1104 9.38098 -1.41341 23.5906
616 1 -1.1104 9.46452 -1.07602 26.6598
624 2 2.2208 13.4743 14.1357 22.1284
402 2 2.2208 5.00275 3.07236 13.679
686 1 -1.1104 6.52224 15.6178 26.2525
400 2 2.2208 5.272 -2.7526 13.7794
368 1 -1.1104 0.720829 1.54226 20.6998
461 1 -1.1104 3.61608 7.09585 20.8743
450 1 -1.1104 0.847598 4.41093 20.9594
441 1 -1.1104 0.673467 7.10336 20.5809
565 1 -1.1104 0.744531 1.72893 23.6094
569 1 -1.1104 0.779469 1.5156 26.4961
575 2 2.2208 5.13813 3.06453 25.0001
579 1 -1.1104 3.64844 1.76153 23.6792
582 1 -1.1104 3.44531 1.67982 26.5133
584 2 2.2208 2.25677 3.13034 22.1644
628 2 2.2208 5.13621 5.90558 22.1379
630 1 -1.1104 0.931299 7.1878 23.6581
632 1 -1.1104 1.10543 7.20404 26.4601
634 1 -1.1104 0.856029 4.55475 23.7448
639 1 -1.1104 0.858839 4.36136 26.4099
643 1 -1.1104 3.80507 7.28597 23.9359
644 2 2.2208 2.40593 5.6905 25.0361
648 1 -1.1104 3.79042 4.54848 23.6184
650 1 -1.1104 3.59497 4.17109 26.5348
633 1 -1.1104 6.61752 7.0777 26.5473
631 1 -1.1104 6.56995 7.31982 23.5553
641 1 -1.1104 6.4691 4.46427 26.2819
636 1 -1.1104 6.59321 4.65879 23.6393
488 1 -1.1104 9.39883 7.17088 20.65
493 1 -1.1104 9.43624 4.467 20.616
619 2 2.2208 13.552 2.90735 16.4822
713 1 -1.1104 9.30814 15.4777 26.3378
571 1 -1.1104 6.36999 1.63903 26.4081
409 1 -1.1104 11.9735 1.39175 20.8461
567 1 -1.1104 6.75766 1.65249 23.7473
601 1 -1.1104 12.3436 1.54101 23.78
603 1 -1.1104 12.2035 1.69824 26.5143
606 2 2.2208 10.8376 2.92958 25.0275
609 1 -1.1104 9.46999 1.34065 23.7198
612 1 -1.1104 9.32909 1.57798 26.453
614 2 2.2208 8.02752 3.06047 22.2332
660 1 -1.1104 9.2751 4.42807 26.2334
662 1 -1.1104 9.58023 4.14653 23.4455
664 1 -1.1104 9.3267 7.14132 26.3878
666 2 2.2208 7.92628 5.92799 25.0668
667 2 2.2208 11.0382 5.68452 22.1234
671 1 -1.1104 12.3633 4.43247 23.6524
674 1 -1.1104 12.2389 4.44682 26.6073
676 1 -1.1104 9.29641 6.99335 23.5444
670 1 -1.1104 12.1747 7.23407 26.4036
669 1 -1.1104 12.2552 7.13947 23.5261
678 1 -1.1104 11.9208 15.5277 23.5223
396 2 2.2208 -0.432511 0.0408592 16.7137
468 1 -1.1104 3.89395 10.1076 20.753
509 1 -1.1104 6.58272 12.9058 20.6029
646 1 -1.1104 4.02628 7.2296 26.7498
452 1 -1.1104 0.977933 9.89838 20.998
524 1 -1.1104 4.01199 12.8989 20.7309
629 2 2.2208 5.30301 11.3661 22.1306
635 1 -1.1104 0.748135 10.0118 23.7008
638 2 2.2208 5.13136 8.53279 25.0309
640 1 -1.1104 0.964309 9.95134 26.4868
645 2 2.2208 2.33541 11.396 25.0332
647 2 2.2208 2.18029 8.59002 22.3403
649 1 -1.1104 3.81185 9.86752 23.5889
651 1 -1.1104 3.7322 10.138 26.356
685 1 -1.1104 3.78339 12.7001 23.5327
689 1 -1.1104 0.885929 13.1167 26.2441
695 1 -1.1104 1.03878 12.8252 23.5757
700 1 -1.1104 3.63698 12.852 26.4656
456 1 -1.1104 6.60563 10.0173 20.5557
637 1 -1.1104 6.5281 9.91548 23.5292
693 1 -1.1104 6.62866 12.868 23.5743
539 1 -1.1104 12.228 12.9736 20.5528
551 1 -1.1104 9.50044 12.9333 20.6708
483 1 -1.1104 12.1816 9.85764 20.6499
642 1 -1.1104 6.58154 10.0812 26.3112
684 1 -1.1104 6.4999 12.9885 26.5194
718 1 -1.1104 9.26281 12.6209 26.1181
654 1 -1.1104 12.224 12.4605 23.3514
707 1 -1.1104 9.36976 12.945 23.4939
659 1 -1.1104 9.38296 9.94053 26.4074
661 1 -1.1104 9.26272 9.94683 23.5553
663 2 2.2208 8.1548 8.4624 22.0639
665 2 2.2208 7.68146 11.4541 24.984
668 2 2.2208 10.6969 11.4656 22.0722
672 1 -1.1104 12.2665 9.86806 23.4972
673 2 2.2208 10.6836 8.47355 25.0649
675 1 -1.1104 12.2396 9.8118 26.338
658 1 -1.1104 12.1742 12.7928 26.0947
720 2 2.2208 7.79841 17.0929 24.8013
531 1 -1.1104 3.40205 15.4009 20.2715
517 1 -1.1104 0.778347 15.5182 20.7886
526 1 -1.1104 3.84442 18.2536 20.6447
507 1 -1.1104 0.771463 18.2931 20.7605
705 2 2.2208 2.47178 14.1077 22.1325
683 1 -1.1104 3.50976 18.3878 23.3298
687 1 -1.1104 0.931614 18.6948 26.2377
688 1 -1.1104 0.930683 15.9625 26.3404
691 2 2.2208 5.03165 20.0239 24.6729
692 2 2.2208 5.31396 14.231 24.8691
694 1 -1.1104 0.722299 18.4902 23.4994
696 2 2.2208 5.01116 17.1019 22.1856
697 1 -1.1104 3.59998 18.6459 26.3464
698 2 2.2208 2.16846 17.0828 24.8866
699 1 -1.1104 3.83845 15.6949 26.2047
702 1 -1.1104 0.6 15.6553 23.7111
703 1 -1.1104 3.66092 15.6713 23.418
704 2 2.2208 2.15932 19.8338 22.0506
717 1 -1.1104 9.06857 18.3127 26.1519
716 2 2.2208 8.08254 14.3324 21.8832
511 1 -1.1104 6.63167 18.5111 20.6766
715 2 2.2208 7.79837 19.8631 22.002
681 2 2.2208 10.5009 19.9278 24.7698
655 1 -1.1104 12.1754 18.472 23.4933
558 1 -1.1104 9.3466 15.6814 20.6171
690 1 -1.1104 6.4854 18.5657 23.6231
519 1 -1.1104 6.18886 15.7527 20.6139
710 1 -1.1104 9.22789 18.4779 23.328
701 1 -1.1104 6.50486 15.6682 23.3014
719 1 -1.1104 6.37025 18.4174 26.2361
677 1 -1.1104 12.0259 18.2657 26.4002
653 2 2.2208 10.7754 17.0849 21.9065
348 2 2.2208 10.8332 16.9079 27.7017
623 2 2.2208 13.5685 5.63178 19.2547
652 2 2.2208 13.496 19.823 22.0965
395 2 2.2208 13.5819 2.93259 22.2731
622 2 2.2208 13.4122 11.2215 19.1955
656 2 2.2208 -0.386371 8.58485 25.0714
340 2 2.2208 7.94146 2.97191 27.7757
498 2 2.2208 7.94204 11.3622 13.7233
708 2 2.2208 2.17421 14.3984 27.7401
471 2 2.2208 2.64148 11.2131 13.7938
353 2 2.2208 10.8396 5.69314 27.7665
721 2 2.2208 4.98004 22.7678 4.99725
723 1 -1.1104 0.77418 24.0649 0.964158
724 1 -1.1104 0.813565 24.1471 3.72974
725 1 -1.1104 0.875244 21.4036 0.994251
727 2 2.2208 5.01576 25.3896 2.50591
728 1 -1.1104 0.707002 21.3747 3.80283
730 1 -1.1104 3.64962 24.3184 0.962526
731 2 2.2208 2.18356 22.662 2.38132
733 1 -1.1104 3.54021 24.1569 3.8587
734 2 2.2208 2.30651 25.5541 5.27756
735 1 -1.1104 3.56279 21.3865 0.924468
737 1 -1.1104 3.51354 21.3014 3.76892
738 1 -1.1104 3.64499 26.9731 3.74907
736 1 -1.1104 3.55341 27.2908 1.11435
866 1 -1.1104 6.54 21.0346 6.42375
1032 2 2.2208 13.5051 31.4761 5.19392
726 1 -1.1104 0.680312 27.2894 1.21424
1006 1 -1.1104 9.33466 43.7598 9.68487
1034 2 2.2208 13.3785 22.672 8.07202
862 1 -1.1104 0.878446 24.0835 6.69019
870 1 -1.1104 3.70954 26.9179 6.49887
1401 2 2.2208 10.6951 45.2621 -0.399653
767 2 2.2208 13.6018 28.3487 2.03871
743 1 -1.1104 6.42344 24.1388 3.53208
746 1 -1.1104 6.35445 21.373 3.29361
742 1 -1.1104 6.44514 23.8943 0.68786
744 1 -1.1104 6.41859 20.9755 0.470624
748 2 2.2208 10.6582 22.6715 5.23257
750 1 -1.1104 12.0825 24.1828 0.820895
751 1 -1.1104 12.1227 24.2404 3.52019
752 1 -1.1104 11.9027 21.2373 1.03508
754 2 2.2208 10.6971 25.576 2.14779
755 1 -1.1104 11.9819 21.4067 3.98949
757 1 -1.1104 9.30099 24.2101 0.793592
758 2 2.2208 7.93167 22.8367 2.208
760 1 -1.1104 9.2504 24.1314 3.51711
761 2 2.2208 7.84602 25.5492 5.01659
762 1 -1.1104 9.23257 21.3766 0.831309
764 1 -1.1104 9.28589 21.3602 3.74629
753 1 -1.1104 12.0361 26.9498 0.81787
747 1 -1.1104 6.37632 27.0013 3.82837
763 1 -1.1104 9.05373 27.0372 0.956492
756 1 -1.1104 11.9398 27.199 3.53597
765 1 -1.1104 9.1462 26.8469 3.89545
1039 2 2.2208 13.5927 34.227 8.19321
1046 2 2.2208 5.23338 31.0364 13.5631
860 2 2.2208 13.647 45.217 2.30164
10230 3 0 11.4998 25.2161 13.2548
839 2 2.2208 -0.402468 39.4858 5.01512
729 1 -1.1104 0.741964 27.0327 3.85936
722 2 2.2208 5.08237 28.4954 5.0771
732 2 2.2208 2.11581 28.5259 2.4486
770 1 -1.1104 0.799232 29.7695 0.875167
773 1 -1.1104 0.87158 29.7772 3.84011
776 1 -1.1104 0.802543 32.7053 1.03579
777 2 2.2208 5.04429 31.3059 2.36235
779 1 -1.1104 0.870313 32.6479 3.79098
781 1 -1.1104 3.58006 30.0063 0.882183
784 1 -1.1104 3.55187 29.6522 3.66114
786 2 2.2208 2.24017 31.149 5.32644
788 1 -1.1104 3.47444 32.6856 1.01374
789 1 -1.1104 3.67357 32.6274 3.71826
1640 1 -1.1104 3.68204 46.6515 9.51062
921 1 -1.1104 3.80056 29.8684 6.4726
780 1 -1.1104 6.50536 32.3966 3.71678
919 1 -1.1104 0.815392 32.764 6.58641
917 1 -1.1104 6.53192 29.7609 6.46538
1035 2 2.2208 13.448 28.4932 7.01981
1125 2 2.2208 7.86973 22.7445 13.401
1008 1 -1.1104 9.47386 43.5676 12.2246
745 1 -1.1104 6.30783 26.6922 0.862694
795 1 -1.1104 6.28181 32.5715 1.11697
793 1 -1.1104 6.46246 29.8298 1.07427
794 1 -1.1104 6.52446 29.6624 3.88731
749 2 2.2208 10.4142 28.2497 5.22008
759 2 2.2208 7.80348 28.4064 2.46501
797 1 -1.1104 12.1215 29.9048 1.30222
799 1 -1.1104 12.2433 29.4705 4.97408
801 1 -1.1104 11.9468 32.7382 1.13209
802 2 2.2208 10.5751 31.2367 2.47045
804 1 -1.1104 12.0119 32.4762 3.75679
805 1 -1.1104 9.26576 29.9183 1.02779
808 1 -1.1104 9.30254 29.7098 3.88467
810 2 2.2208 7.92347 31.263 5.20056
812 1 -1.1104 9.0107 32.6567 0.949982
813 1 -1.1104 9.1156 32.6737 3.60995
954 1 -1.1104 9.05282 32.7599 6.66085
792 2 2.2208 -0.31844 36.8364 2.28
951 1 -1.1104 11.8467 32.4139 6.25803
1061 2 2.2208 2.24026 31.349 -0.429193
769 2 2.2208 4.93636 34.0892 5.16621
771 1 -1.1104 1.10152 35.4458 0.969978
774 1 -1.1104 0.811862 35.2533 3.82272
778 2 2.2208 5.31507 36.7752 2.27556
782 1 -1.1104 3.79626 35.4462 1.31648
783 2 2.2208 2.32341 33.8579 2.39061
785 1 -1.1104 3.54638 35.3522 3.84302
787 2 2.2208 2.32805 36.6949 5.18738
815 2 2.2208 5.20092 39.5807 5.14846
821 1 -1.1104 0.849073 38.3508 1.11305
826 1 -1.1104 1.15695 38.2325 3.77089
831 2 2.2208 2.36321 39.5733 2.35973
835 1 -1.1104 3.74044 37.9508 0.979511
837 1 -1.1104 3.75727 38.1303 3.79938
823 1 -1.1104 6.56606 38.4136 0.92655
772 1 -1.1104 6.4702 35.5808 0.783247
766 2 2.2208 13.3857 22.7704 2.34249