ITEM: TIMESTEP
60000
ITEM: NUMBER OF ATOMS
17760
ITEM: BOX BOUNDS pp pp pp
-4.6002945851078947e-01 2.7800029458511172e+01
-5.3405714536829194e+00 3.3342057145368938e+02
-4.3750925950398983e-01 2.7777509259503567e+01
ITEM: ATOMS id type q x y z
1 2 2.2208 5.294 0.386402 5.19694
2 1 -1.1104 1.0254 -3.91288 1.15124
6 1 -1.1104 1.10904 -3.67316 4.03678
10 1 -1.1104 1.11758 -1.10991 0.963222
12 2 2.2208 5.473 -2.42071 2.4562
14 1 -1.1104 1.11654 -0.92187 3.87348
16 1 -1.1104 3.8177 -4.00294 1.18267
18 2 2.2208 2.50349 0.317632 2.51452
19 1 -1.1104 3.98871 -4.01381 4.06165
21 2 2.2208 2.55664 -2.23867 5.23216
23 1 -1.1104 3.96506 -1.12215 0.831493
24 1 -1.1104 3.8529 -1.17161 3.76896
9035 2 2.2208 -0.335822 -5.12451 5.30451
346 2 2.2208 2.40939 8.86387 -0.368006
9033 2 2.2208 2.4768 -5.33946 2.50283
311 2 2.2208 -0.368763 20.2194 8.22932
51 2 2.2208 -0.251563 11.5386 11.0124
170 1 -1.1104 1.03533 -1.16422 6.77872
172 1 -1.1104 3.92066 -3.69166 6.84673
708 2 2.2208 2.59561 14.5429 -0.192312
343 2 2.2208 4.94766 5.94751 -0.307595
15 1 -1.1104 6.69781 -1.11664 3.75542
11 1 -1.1104 6.82154 -1.00176 1.15764
4 1 -1.1104 6.73816 -3.89337 1.01159
8 1 -1.1104 6.79207 -3.69136 3.9178
31 2 2.2208 10.7113 0.46561 5.34573
32 1 -1.1104 12.1831 -3.88339 0.855016
34 1 -1.1104 12.3314 -3.78108 3.76508
36 1 -1.1104 12.3111 -0.948576 1.26132
37 2 2.2208 10.7943 -2.35699 2.41
39 1 -1.1104 12.1933 -1.02577 4.19415
40 1 -1.1104 9.5541 -3.72119 0.93031
42 2 2.2208 8.04142 0.462806 2.48338
43 1 -1.1104 9.61533 -3.97532 4.02412
45 2 2.2208 8.29464 -2.40439 5.22887
47 1 -1.1104 9.45922 -0.851779 0.941843
48 1 -1.1104 9.5388 -0.974775 3.77701
9043 2 2.2208 10.9223 -5.23271 10.8316
349 2 2.2208 8.11151 20.2776 -0.405712
347 2 2.2208 8.20762 14.432 -0.219554
352 2 2.2208 -0.373932 5.89165 -0.318467
27 2 2.2208 -0.363129 2.98457 2.5963
3 1 -1.1104 1.14406 1.63279 1.05776
7 1 -1.1104 1.04341 1.82692 3.90858
13 2 2.2208 5.2038 3.19359 2.486
17 1 -1.1104 3.93837 1.65912 0.961239
20 1 -1.1104 3.96769 1.75329 3.81682
22 2 2.2208 2.33611 3.17061 5.29628
54 2 2.2208 5.17528 6.21023 5.18339
56 1 -1.1104 1.01962 7.34625 1.22363
60 1 -1.1104 0.86319 4.38598 1.04253
67 1 -1.1104 0.870839 4.63909 3.90797
72 2 2.2208 2.22024 5.78227 2.42949
74 1 -1.1104 3.51491 7.18935 3.87299
76 1 -1.1104 3.59486 4.3758 1.04864
79 1 -1.1104 3.77213 4.47435 3.7492
71 1 -1.1104 3.67599 7.37489 0.930287
58 1 -1.1104 0.868164 7.47076 3.78705
234 1 -1.1104 0.974186 7.38409 6.77413
359 2 2.2208 -0.283429 17.5839 -0.126463
9036 2 2.2208 8.23621 -5.1436 2.47828
5 1 -1.1104 6.62725 1.86216 1.14371
239 1 -1.1104 3.62256 4.46292 6.81668
167 1 -1.1104 1.20333 1.71373 6.72804
173 1 -1.1104 3.86697 1.58504 6.91003
9034 2 2.2208 5.47078 -5.15913 5.36517
63 1 -1.1104 6.64524 4.47174 1.0807
69 1 -1.1104 6.50798 4.71374 3.69269
9 1 -1.1104 6.80858 1.74583 3.80617
57 1 -1.1104 6.21525 7.07506 1.28989
59 1 -1.1104 6.54797 7.45163 4.0198
33 1 -1.1104 12.3681 1.74739 1.17068
35 1 -1.1104 12.4686 1.89696 3.87386
38 2 2.2208 10.9358 3.28195 2.39048
41 1 -1.1104 9.25411 2.05984 1.14959
44 1 -1.1104 9.30547 1.75963 4.11691
46 2 2.2208 7.89101 3.40481 5.21878
84 2 2.2208 10.5496 6.06053 5.17795
87 1 -1.1104 12.2995 7.79058 3.75033
88 1 -1.1104 12.3261 4.41288 1.05204
92 1 -1.1104 12.0442 4.87953 3.84001
94 1 -1.1104 9.3521 7.38476 0.798195
95 2 2.2208 8.08326 5.98494 2.25088
97 1 -1.1104 9.34915 7.38618 3.60856
99 1 -1.1104 9.55295 4.55631 0.839442
102 1 -1.1104 9.28657 4.66472 3.72368
86 1 -1.1104 12.3381 7.30985 1.08019
265 1 -1.1104 12.1866 7.40071 6.43402
169 1 -1.1104 6.60686 1.8952 6.65501
237 1 -1.1104 6.35852 4.75909 6.44968
269 1 -1.1104 9.21949 4.76602 6.67868
497 2 2.2208 10.8793 8.88751 13.501
229 2 2.2208 13.6411 0.353971 8.18665
82 2 2.2208 -0.417554 8.78338 2.35791
401 2 2.2208 2.37837 0.399667 13.4744
55 2 2.2208 5.24097 11.7885 5.30943
61 1 -1.1104 0.969187 10.0825 1.10105
66 2 2.2208 5.17562 8.82144 2.54013
68 1 -1.1104 0.990556 10.2574 4.04115
73 2 2.2208 2.52578 11.4455 2.42081
75 2 2.2208 2.38574 8.78229 5.16481
77 1 -1.1104 3.87025 10.2851 0.94549
80 1 -1.1104 3.83381 9.94449 3.97129
107 1 -1.1104 0.915551 12.9607 1.11441
113 1 -1.1104 1.23423 13.0507 3.79413
123 1 -1.1104 3.94905 13.1245 1.08304
128 1 -1.1104 3.88901 12.8681 3.70323
350 2 2.2208 5.41341 11.7388 -0.330967
25 2 2.2208 -0.315279 -2.45089 2.49548
108 1 -1.1104 1.01967 12.9723 6.6889
115 1 -1.1104 6.55242 12.9856 3.83152
70 1 -1.1104 6.61938 10.3127 3.82094
64 1 -1.1104 6.44949 9.74405 0.753412
110 1 -1.1104 6.83789 13.1514 0.990249
85 2 2.2208 10.8967 11.6979 5.3
89 1 -1.1104 12.313 10.1483 1.07895
91 2 2.2208 10.8086 8.9069 2.35071
93 1 -1.1104 12.1127 10.3776 3.8658
96 2 2.2208 8.1124 11.896 2.59161
98 2 2.2208 7.99685 9.00757 5.16443
100 1 -1.1104 9.40994 10.1981 1.1682
103 1 -1.1104 9.42509 10.3377 3.81949
142 1 -1.1104 12.191 13.0879 1.28433
146 1 -1.1104 12.2099 13.1157 3.90253
153 1 -1.1104 9.45068 13.0925 1.08148
158 1 -1.1104 9.33395 13.1619 3.8915
143 1 -1.1104 12.4767 12.9996 6.57043
90 1 -1.1104 12.3583 9.97977 6.82895
324 2 2.2208 10.6793 20.1119 8.14157
137 2 2.2208 -0.251278 17.1392 5.13832
83 2 2.2208 -0.31029 11.6559 5.31875
130 2 2.2208 2.50591 14.3679 5.2341
119 2 2.2208 5.22626 14.5007 2.24839
106 2 2.2208 5.26108 17.3156 5.35514
109 1 -1.1104 1.16378 18.7727 1.27754
114 1 -1.1104 0.991694 18.8112 3.8585
116 1 -1.1104 0.953116 15.695 0.979707
120 2 2.2208 5.25645 20.2031 2.26763
121 1 -1.1104 1.11504 15.906 3.69625
125 1 -1.1104 3.8699 18.6084 1.02405
127 2 2.2208 2.54353 17.2139 2.2842
129 1 -1.1104 3.70866 18.5332 3.79626
131 2 2.2208 2.50721 19.9943 5.22752
132 1 -1.1104 3.94867 15.7635 1.02583
134 1 -1.1104 3.74348 15.7223 3.68281
117 1 -1.1104 0.900536 15.7877 6.53232
126 1 -1.1104 4.07135 18.9689 6.54819
355 2 2.2208 10.8752 11.6305 -0.28368
122 1 -1.1104 6.82101 15.9993 3.59552
302 1 -1.1104 1.19139 18.6303 6.66466
9048 2 2.2208 10.9337 -5.33082 -0.364226
149 1 -1.1104 12.3675 16.0038 6.72978
138 1 -1.1104 6.67422 18.777 0.999292
139 1 -1.1104 6.48483 18.8285 3.77548
140 1 -1.1104 6.73507 15.9568 1.03
150 2 2.2208 11.0134 14.6115 2.51677
160 2 2.2208 8.14458 14.6091 5.35491
141 2 2.2208 10.8807 17.5445 5.18931
144 1 -1.1104 12.3762 18.5882 0.835826
147 1 -1.1104 12.4465 18.6837 3.99364
148 1 -1.1104 12.3066 15.9856 0.93798
151 2 2.2208 10.8593 20.1568 2.34702
152 1 -1.1104 12.3768 16.0414 3.80584
155 1 -1.1104 9.54441 18.7332 1.3864
157 2 2.2208 8.14702 17.2526 2.29204
159 1 -1.1104 9.64337 19.0118 3.88172
161 2 2.2208 7.93288 20.1372 5.20641
162 1 -1.1104 9.7055 16.017 0.961331
164 1 -1.1104 9.53084 16.1022 3.74792
112 1 -1.1104 6.6775 18.3836 6.84816
118 1 -1.1104 6.50147 15.7933 6.64585
335 2 2.2208 2.57371 -2.47917 -0.376523
145 1 -1.1104 11.9797 18.7802 6.67178
163 1 -1.1104 9.53561 16.1385 6.60612
199 2 2.2208 -0.411122 2.99652 8.03476
136 2 2.2208 -0.369464 19.9951 2.7004
9040 2 2.2208 5.44139 -5.33504 10.9326
81 2 2.2208 -0.416438 5.93359 5.43237
166 1 -1.1104 0.903104 -3.88098 6.79925
9054 2 2.2208 -0.280357 -5.24436 -0.410787
174 1 -1.1104 3.93359 -0.965617 6.64403
175 2 2.2208 5.15477 0.368107 10.8033
176 1 -1.1104 0.972492 -3.93201 12.3005
180 1 -1.1104 0.982362 -3.92749 9.48528
184 1 -1.1104 0.928825 -1.03381 12.1947
186 2 2.2208 5.34155 -2.37515 8.1176
188 1 -1.1104 1.03994 -1.20007 9.56062
190 1 -1.1104 3.72305 -3.83871 12.4237
192 2 2.2208 2.30107 0.169146 8.06041
193 1 -1.1104 3.90677 -3.78864 9.63014
195 2 2.2208 2.44651 -2.53654 10.8493
197 1 -1.1104 3.82839 -1.07452 12.3219
198 1 -1.1104 3.82287 -1.23523 9.42982
171 1 -1.1104 6.75308 -0.913786 6.62911
329 1 -1.1104 12.4283 18.8823 12.3964
313 2 2.2208 -0.125817 14.3857 8.1832
315 1 -1.1104 9.53639 15.9916 12.4761
208 1 -1.1104 9.55413 -3.7076 6.82273
205 1 -1.1104 12.5076 -3.77534 6.64439
210 1 -1.1104 9.56302 -0.9101 6.74525
168 1 -1.1104 6.77559 -3.73883 6.72385
182 1 -1.1104 6.66166 -3.78062 9.61233
189 1 -1.1104 6.69727 -0.728302 9.64501
178 1 -1.1104 6.76989 -3.9935 12.3855
207 1 -1.1104 12.3908 -0.859274 6.94845
185 1 -1.1104 6.54305 -1.0634 12.4293
211 2 2.2208 10.8661 0.27625 10.9392
212 1 -1.1104 12.3856 -3.82176 12.1629
214 1 -1.1104 12.3502 -3.98912 9.3565
216 1 -1.1104 12.388 -1.1025 12.5128
217 2 2.2208 11.1776 -2.50726 8.18242
219 1 -1.1104 12.4455 -1.05723 9.67768
220 1 -1.1104 9.53921 -3.93604 12.4499
222 2 2.2208 7.90215 0.470236 8.03356
223 1 -1.1104 9.43805 -3.92371 9.4306
225 2 2.2208 8.03201 -2.45306 11.0796
227 1 -1.1104 9.38359 -1.14295 12.2496
228 1 -1.1104 9.59809 -1.06966 9.52912
316 2 2.2208 8.16539 20.2251 10.9892
236 1 -1.1104 0.951508 4.45662 6.76672
238 1 -1.1104 3.74578 7.46642 6.59724
402 2 2.2208 5.38359 3.16164 13.5405
177 1 -1.1104 1.09104 1.82582 12.2921
181 1 -1.1104 0.940738 1.73223 9.59069
187 2 2.2208 5.1434 3.1294 8.10591
191 1 -1.1104 3.75096 1.77703 12.1798
194 1 -1.1104 3.68614 1.72227 9.5421
196 2 2.2208 2.38562 3.19428 10.7699
240 2 2.2208 5.26369 6.05637 11.0294
242 1 -1.1104 1.00439 7.40741 12.4015
246 1 -1.1104 0.940601 4.64016 12.27
251 1 -1.1104 0.762315 4.5154 9.43558
256 2 2.2208 2.51965 5.94344 8.10046
260 1 -1.1104 4.06134 4.52888 12.414
262 1 -1.1104 3.86216 4.52068 9.62919
258 1 -1.1104 3.7596 7.1232 9.50606
255 1 -1.1104 3.76695 7.45824 12.4864
244 1 -1.1104 0.888518 7.36948 9.78021
9037 2 2.2208 11.0017 -5.2069 5.28501
179 1 -1.1104 6.69571 1.73535 12.0948
326 1 -1.1104 12.3398 16.0644 12.2833
183 1 -1.1104 6.59335 1.90592 9.3517
266 1 -1.1104 12.0567 4.40493 6.62569
209 1 -1.1104 9.53802 1.82041 6.94641
206 1 -1.1104 12.4135 1.74814 6.62402
267 1 -1.1104 9.42387 7.58678 6.48068
253 1 -1.1104 6.69637 4.74486 9.46592
235 1 -1.1104 6.39704 7.6137 6.63523
245 1 -1.1104 6.58895 7.48728 9.4943
248 1 -1.1104 6.68987 4.79006 12.1858
213 1 -1.1104 12.2819 1.92139 12.3963
215 1 -1.1104 12.0546 1.61316 9.44914
218 2 2.2208 10.7799 3.19991 8.07333
221 1 -1.1104 9.4862 1.54175 12.4662
224 1 -1.1104 9.25223 1.73242 9.69929
226 2 2.2208 7.90742 3.16892 10.7106
268 1 -1.1104 9.56017 4.59841 9.53199
271 1 -1.1104 9.45312 4.54825 12.2599
275 2 2.2208 7.82473 6.25105 7.95361
276 2 2.2208 10.8203 5.98285 10.6684
279 1 -1.1104 12.1637 7.39112 9.11444
280 1 -1.1104 12.4817 4.62389 12.142
283 1 -1.1104 12.3296 4.27305 9.31674
285 1 -1.1104 9.49665 7.50783 12.2289
273 1 -1.1104 9.29669 7.4597 9.57829
278 1 -1.1104 12.2101 7.46738 11.9915
243 1 -1.1104 6.56589 7.6515 12.3659
124 1 -1.1104 3.72003 13.0546 6.74992
30 2 2.2208 -0.247945 8.62596 8.10747
327 1 -1.1104 12.3854 18.6251 9.59014
78 1 -1.1104 3.91035 10.4126 6.66544
62 1 -1.1104 1.22654 10.0282 6.90151
241 2 2.2208 5.21117 11.5135 10.7734
247 1 -1.1104 1.05274 10.1105 12.3127
250 2 2.2208 5.02425 8.92441 7.9294
252 1 -1.1104 1.08579 10.137 9.72276
257 2 2.2208 2.35848 11.5885 8.24548
259 2 2.2208 2.37382 8.60572 10.9995
261 1 -1.1104 3.82391 10.1262 12.4264
263 1 -1.1104 3.93385 10.0909 9.34561
287 1 -1.1104 3.66124 12.9799 12.3849
294 1 -1.1104 1.29531 12.9384 9.51545
299 1 -1.1104 0.89039 13.1214 12.3444
305 1 -1.1104 4.02049 13.057 9.53759
296 1 -1.1104 6.64526 18.6181 12.3727
101 1 -1.1104 9.48219 10.3509 6.65788
111 1 -1.1104 6.54266 13.1281 6.71282
65 1 -1.1104 6.48087 10.3658 6.6362
154 1 -1.1104 9.39375 13.2243 6.83
290 1 -1.1104 6.71749 13.001 9.5593
249 1 -1.1104 6.78368 10.1716 12.3878
254 1 -1.1104 6.65092 10.2012 9.63618
297 1 -1.1104 6.59119 13.1672 12.4513
330 1 -1.1104 12.5426 13.0711 12.3505
328 1 -1.1104 12.2351 13.2805 9.49507
322 1 -1.1104 9.42864 13.2699 12.6441
319 1 -1.1104 9.67003 13.2753 9.68572
264 1 -1.1104 9.50701 10.3689 9.43722
270 1 -1.1104 9.79631 10.3821 12.228
272 2 2.2208 8.08541 8.86031 10.881
274 2 2.2208 8.16879 11.6953 8.27369
277 2 2.2208 11.1296 11.7678 10.9899
281 1 -1.1104 12.6234 10.1434 12.2732
282 2 2.2208 10.8614 8.8096 7.96791
284 1 -1.1104 12.4751 10.1151 9.53758
312 2 2.2208 -0.454962 17.3052 10.897
323 1 -1.1104 12.2163 15.865 9.69792
295 2 2.2208 5.1045 14.3915 8.01245
133 1 -1.1104 3.75576 15.97 6.70197
310 2 2.2208 2.45592 14.3415 10.9803
303 2 2.2208 2.43773 17.3791 8.13119
301 1 -1.1104 4.03086 18.4712 9.3365
307 1 -1.1104 0.975807 15.7835 12.1797
304 1 -1.1104 4.02667 16.021 9.34636
309 2 2.2208 2.39049 20.0538 10.9492
308 1 -1.1104 3.87534 15.7291 12.2028
286 1 -1.1104 3.79427 18.4824 12.2589
291 1 -1.1104 0.933117 18.7019 9.49666
292 1 -1.1104 1.2288 15.7238 9.26509
293 2 2.2208 5.26227 20.1241 8.19242
298 1 -1.1104 1.02797 18.5667 12.5282
300 2 2.2208 5.45649 17.3134 10.7956
588 2 2.2208 13.5224 6.04388 13.3619
325 2 2.2208 10.8416 14.8262 8.24837
9039 2 2.2208 2.44552 -5.19218 8.14784
314 1 -1.1104 9.33413 15.8155 9.58752
289 1 -1.1104 6.70243 15.8365 9.46375
321 1 -1.1104 9.56538 18.8693 12.4564
156 1 -1.1104 9.31452 18.8968 6.5574
331 2 2.2208 10.9749 17.2337 11.0523
306 1 -1.1104 6.67019 15.8492 12.3767
318 1 -1.1104 9.56795 18.3836 9.58547
288 1 -1.1104 6.877 18.8476 9.424
320 2 2.2208 8.12643 17.1874 8.10052
317 2 2.2208 8.07719 14.492 10.9915
9042 2 2.2208 8.13103 -5.19301 8.02414
336 2 2.2208 2.43957 2.99248 -0.370904
334 2 2.2208 5.30841 0.337102 -0.344156
351 2 2.2208 -0.174074 11.5228 -0.362001
357 2 2.2208 2.36356 20.1532 -0.137411
53 2 2.2208 13.6567 11.7957 8.10197
135 2 2.2208 -0.412249 14.5484 2.41876
104 2 2.2208 13.6507 11.7103 2.67812
230 2 2.2208 13.5987 -2.45399 10.9811
348 2 2.2208 10.9838 17.3522 -0.382427
338 2 2.2208 10.6754 0.575187 -0.382674
358 2 2.2208 5.24442 17.549 -0.362531
496 2 2.2208 8.14143 6.21912 13.6175
360 2 2.2208 5.03873 0.344889 16.5636
361 1 -1.1104 0.928263 -3.84314 18.083
365 1 -1.1104 1.14504 -3.59395 15.1518
373 1 -1.1104 1.09539 -0.940747 18.1454
375 2 2.2208 5.29549 -2.64977 19.3269
377 1 -1.1104 1.27127 -0.865486 15.2049
381 1 -1.1104 3.82164 -3.94438 17.835
383 2 2.2208 2.44336 0.56849 19.6154
384 1 -1.1104 4.04785 -3.95814 15.2262
388 2 2.2208 2.54732 -2.38705 16.7261
390 1 -1.1104 3.68545 -1.01741 18.0413
391 1 -1.1104 4.01622 -1.15859 15.324
498 2 2.2208 7.9764 11.7044 13.7314
337 2 2.2208 -0.430997 0.395102 27.5898
618 2 2.2208 13.6167 0.358335 13.7119
392 1 -1.1104 3.88304 -1.04032 20.9478
378 1 -1.1104 1.22094 -0.987926 20.939
366 1 -1.1104 1.14295 -3.92968 20.7519
682 2 2.2208 13.6191 5.91856 24.9531
429 2 2.2208 -0.387524 14.5754 19.428
369 1 -1.1104 6.60141 -3.94972 15.0691
374 1 -1.1104 6.35199 -1.03514 18.0274
363 1 -1.1104 6.72294 -3.87217 17.9448
379 1 -1.1104 6.57473 -1.14532 15.3116
403 2 2.2208 10.9147 0.382654 16.7176
404 1 -1.1104 12.4427 -3.81775 17.8156
406 1 -1.1104 12.3768 -3.92932 14.733
410 1 -1.1104 12.6057 -1.23245 18.15
411 2 2.2208 11.1666 -2.31726 19.54
413 1 -1.1104 12.3232 -0.972558 15.2851
415 1 -1.1104 9.64161 -3.69527 17.9137
417 2 2.2208 8.06471 0.337269 19.6325
418 1 -1.1104 9.56078 -3.82533 15.3328
422 2 2.2208 8.0496 -2.36759 16.5011
424 1 -1.1104 9.37661 -0.984677 17.9656
425 1 -1.1104 9.27147 -1.21289 15.1455
9400 2 2.2208 -0.325198 -5.29537 22.2326
430 2 2.2208 -0.264583 20.0598 19.4937
9060 2 2.2208 2.47143 -5.21569 13.7441
470 2 2.2208 5.302 8.90039 13.7999
362 1 -1.1104 1.07519 2.02657 18.1448
367 1 -1.1104 1.23909 1.96615 15.0378
376 2 2.2208 5.18519 3.12336 19.3583
382 1 -1.1104 3.85823 1.72662 17.9748
386 1 -1.1104 3.78044 1.8541 14.9046
389 2 2.2208 2.51417 3.32639 16.5721
436 2 2.2208 5.28382 5.84328 16.5456
444 1 -1.1104 0.968274 4.72336 17.8259
449 1 -1.1104 0.924086 4.64842 15.0847
457 1 -1.1104 3.87914 7.48954 18.1394
458 2 2.2208 2.50211 6.1311 19.4392
460 1 -1.1104 3.59816 7.626 15.1682
463 1 -1.1104 3.91942 4.55673 17.8351
465 1 -1.1104 3.8823 4.69023 15.1133
438 1 -1.1104 1.05487 7.40568 17.8994
440 1 -1.1104 0.803568 7.47951 15.017
559 2 2.2208 10.9193 20.2058 13.7555
446 1 -1.1104 6.72066 4.63374 17.9047
368 1 -1.1104 1.04246 1.95401 20.9381
466 1 -1.1104 3.85244 4.65079 20.7363
387 1 -1.1104 3.87927 1.82629 20.8057
399 2 2.2208 -0.144652 19.9138 13.875
9411 2 2.2208 11.0157 -5.20023 16.4807
371 1 -1.1104 6.72809 1.86017 14.9223
442 1 -1.1104 6.66669 7.27818 15.171
453 1 -1.1104 6.71244 4.47125 15.1762
439 1 -1.1104 6.49838 7.48811 18.006
364 1 -1.1104 6.54646 1.91194 17.9133
408 1 -1.1104 12.0518 1.64233 15.1608
405 1 -1.1104 12.5104 1.68726 17.9689
412 2 2.2208 10.7311 3.12111 19.3851
416 1 -1.1104 9.4362 1.74351 17.9385
420 1 -1.1104 9.45189 1.63096 15.2118
423 2 2.2208 7.95064 3.0942 16.5361
472 2 2.2208 10.958 5.94746 16.4476
475 1 -1.1104 12.2812 7.27916 14.8987
477 1 -1.1104 12.3381 4.53148 17.9462
480 1 -1.1104 12.241 4.21571 15.0598
484 1 -1.1104 9.37657 7.32702 17.738
485 2 2.2208 8.13705 6.00804 19.1655
490 1 -1.1104 9.45093 4.53522 17.9711
492 1 -1.1104 9.48753 4.61537 15.2208
487 1 -1.1104 9.63812 7.46721 14.9794
474 1 -1.1104 12.3565 7.38311 18.0692
9267 2 2.2208 5.42429 -5.2818 22.1135
443 1 -1.1104 6.90318 7.56642 20.8932
435 2 2.2208 10.7748 2.98588 13.7544
437 2 2.2208 5.3129 11.7788 16.6473
445 1 -1.1104 1.02323 10.326 18.037
448 2 2.2208 5.26975 8.95684 19.4372
451 1 -1.1104 0.907776 10.2461 15.1684
459 2 2.2208 2.37656 11.6595 19.3661
462 2 2.2208 2.21427 8.75245 16.4945
464 1 -1.1104 3.89179 10.3004 17.9865
467 1 -1.1104 3.77759 10.3448 15.1808
500 1 -1.1104 1.27617 13.2487 18.0776
504 1 -1.1104 0.921893 13.0798 15.3172
520 1 -1.1104 3.97936 13.1975 17.9953
523 1 -1.1104 4.07885 13.0325 15.1762
594 2 2.2208 -0.431432 8.89537 19.5016
471 2 2.2208 2.37466 11.3699 13.7937
9404 2 2.2208 8.17192 -5.23721 19.4116
593 2 2.2208 -0.440058 6.03482 16.509
9265 2 2.2208 2.45424 -5.26171 24.9263
447 1 -1.1104 6.7119 10.2889 17.8561
455 1 -1.1104 6.66488 10.1552 15.0662
502 1 -1.1104 6.75524 13.0995 18.0755
508 1 -1.1104 6.73602 13.1673 15.1969
473 2 2.2208 11.0131 11.5151 16.5113
478 1 -1.1104 12.3996 10.2008 18.0374
479 2 2.2208 11.0364 8.68234 19.287
482 1 -1.1104 12.4119 10.2669 15.1017
486 2 2.2208 8.14731 11.6747 19.3316
489 2 2.2208 8.07016 8.83205 16.534
491 1 -1.1104 9.70674 10.1568 17.7137
494 1 -1.1104 9.26328 10.4014 14.9803
536 1 -1.1104 12.4319 13.195 18.112
538 1 -1.1104 12.3567 13.0277 15.2199
547 1 -1.1104 9.61239 13.0027 18.0684
550 1 -1.1104 9.58683 13.0867 15.3934
483 1 -1.1104 12.3001 10.3175 20.871
539 1 -1.1104 12.1253 13.1826 21.1151
509 1 -1.1104 6.67909 13.0408 20.8403
495 1 -1.1104 9.37683 10.0307 20.4968
397 2 2.2208 -0.410331 -2.35234 19.5035
514 2 2.2208 5.35457 14.4178 19.3511
527 2 2.2208 2.42572 14.619 16.552
427 2 2.2208 -0.431438 14.4555 13.7747
499 2 2.2208 5.34259 17.349 16.5107
501 1 -1.1104 1.11116 18.7647 17.9686
506 1 -1.1104 1.07334 18.7257 15.2826
512 1 -1.1104 1.16452 16.0194 18.0053
515 2 2.2208 5.24785 20.137 19.4474
516 1 -1.1104 1.08805 15.9089 15.2228
521 1 -1.1104 3.8396 18.7473 17.8451
522 2 2.2208 2.65411 17.4344 19.4546
525 1 -1.1104 3.93125 18.7191 15.1453
528 2 2.2208 2.47259 20.2309 16.6252
529 1 -1.1104 3.9853 16.0449 17.9746
530 1 -1.1104 3.92137 15.8417 15.0118
428 2 2.2208 -0.0718464 17.2356 16.6571
517 1 -1.1104 1.20712 16.0104 20.8798
532 2 2.2208 2.46698 17.2489 13.8356
507 1 -1.1104 1.13633 18.6822 20.8587
526 1 -1.1104 3.8309 18.737 21.0921
434 2 2.2208 10.9088 -2.49149 13.8042
655 1 -1.1104 12.2545 18.6517 23.7726
398 2 2.2208 -0.234742 -2.40112 13.689
558 1 -1.1104 9.54495 15.767 20.874
554 2 2.2208 8.10792 14.2645 16.6037
503 1 -1.1104 6.78067 18.667 18.0363
513 1 -1.1104 6.73109 15.825 17.8196
510 1 -1.1104 6.62031 18.6326 15.0833
518 1 -1.1104 6.80218 15.8532 15.2776
543 2 2.2208 10.9255 14.5794 19.6056
540 1 -1.1104 12.468 19.1786 15.3516
535 2 2.2208 10.8327 17.3249 16.5305
537 1 -1.1104 12.4996 18.8047 18.1255
542 1 -1.1104 12.6096 16.2627 17.9273
544 2 2.2208 10.9353 20.0774 19.6109
545 1 -1.1104 12.385 15.9556 15.0076
548 1 -1.1104 9.75843 18.62 18.0098
549 2 2.2208 8.14612 17.2814 19.4527
552 1 -1.1104 9.38969 18.7688 15.3503
555 2 2.2208 8.14352 20.0801 16.6112
556 1 -1.1104 9.68396 15.8619 18.0182
557 1 -1.1104 9.60628 15.7159 15.2691
511 1 -1.1104 6.70463 18.6682 20.881
546 1 -1.1104 12.3647 15.9078 20.905
340 2 2.2208 8.00128 3.25672 27.6729
385 1 -1.1104 3.90838 -3.86009 20.8238
596 2 2.2208 -0.363594 -2.47731 24.9361
597 2 2.2208 -0.374647 0.342078 22.2567
563 2 2.2208 5.0996 0.334031 22.3129
564 1 -1.1104 1.01658 -3.88805 23.544
568 1 -1.1104 1.0321 -3.85387 26.5065
572 1 -1.1104 0.945099 -1.09495 23.717
574 2 2.2208 5.29706 -2.50028 25.1929
576 1 -1.1104 1.10917 -1.06549 26.4637
578 1 -1.1104 3.77535 -3.75624 23.7036
580 2 2.2208 2.63951 0.322045 25.0641
581 1 -1.1104 3.88642 -3.78556 26.4787
583 2 2.2208 2.4209 -2.53919 22.2421
585 1 -1.1104 3.76314 -1.07262 23.6663
586 1 -1.1104 3.89762 -1.2572 26.3816
9401 2 2.2208 8.10976 -5.21431 13.7259
710 1 -1.1104 9.47538 18.9594 23.788
419 1 -1.1104 9.6512 -3.87622 20.571
414 1 -1.1104 12.4613 -0.776997 20.7922
370 1 -1.1104 6.77973 -3.9493 20.765
426 1 -1.1104 9.61364 -1.21844 20.7084
380 1 -1.1104 6.71645 -1.01703 21.0797
407 1 -1.1104 12.2499 -3.62847 20.7908
577 1 -1.1104 6.55705 -1.11647 26.5598
570 1 -1.1104 6.92561 -3.89751 26.4387
566 1 -1.1104 6.73528 -3.85337 23.6369
573 1 -1.1104 6.66834 -0.974884 23.9729
599 2 2.2208 11.075 0.359615 22.2481
600 1 -1.1104 12.2808 -4.0315 23.6638
602 1 -1.1104 12.3619 -3.95974 26.4419
604 1 -1.1104 12.4431 -0.95568 23.7346
605 2 2.2208 11.0049 -2.40208 25.0936
607 1 -1.1104 12.3652 -0.854036 26.7711
608 1 -1.1104 9.74922 -3.71732 23.642
610 2 2.2208 8.2911 0.536438 24.8467
611 1 -1.1104 9.58 -4.01172 26.6115
613 2 2.2208 8.21248 -2.4439 22.1977
615 1 -1.1104 9.43069 -0.971672 23.539
616 1 -1.1104 9.41284 -1.08229 26.1904
441 1 -1.1104 1.30129 7.58898 20.9614
450 1 -1.1104 1.13367 4.67293 20.6768
598 2 2.2208 -0.279191 3.308 25.0709
461 1 -1.1104 4.01587 7.48994 20.8602
565 1 -1.1104 0.944482 1.64985 23.5518
569 1 -1.1104 1.0902 1.95808 26.2348
575 2 2.2208 5.20467 3.09394 25.0299
579 1 -1.1104 3.75739 1.89108 23.4946
582 1 -1.1104 4.01724 1.58253 26.3712
584 2 2.2208 2.46636 3.26492 22.0786
628 2 2.2208 5.41227 6.17837 22.1639
630 1 -1.1104 0.906091 7.21648 23.4247
632 1 -1.1104 0.794121 7.41708 26.4088
634 1 -1.1104 1.19231 4.41832 23.6407
639 1 -1.1104 0.883504 4.78267 26.3277
644 2 2.2208 2.38496 5.88571 25.062
648 1 -1.1104 4.05113 5.03979 23.6283
650 1 -1.1104 3.80277 4.39404 26.5423
646 1 -1.1104 3.49149 7.52737 26.4072
643 1 -1.1104 3.71049 7.65272 23.8279
393 2 2.2208 -0.231694 5.93688 22.082
633 1 -1.1104 6.36544 7.41408 26.5245
488 1 -1.1104 9.76179 7.18099 20.5429
421 1 -1.1104 9.68818 1.6717 20.8649
493 1 -1.1104 9.22608 4.2941 20.7297
476 1 -1.1104 12.4929 7.34459 20.6566
641 1 -1.1104 6.67766 4.60536 26.4093
372 1 -1.1104 6.68607 1.76571 20.8951
454 1 -1.1104 6.71849 4.77475 20.6764
409 1 -1.1104 12.3678 1.67304 20.6689
636 1 -1.1104 6.65541 4.52631 23.6705
567 1 -1.1104 6.69553 1.81837 23.6424
631 1 -1.1104 6.74517 7.51978 23.4915
571 1 -1.1104 6.61964 1.672 26.2289
481 1 -1.1104 12.4004 4.52487 20.9012
601 1 -1.1104 12.7633 1.69556 23.4651
603 1 -1.1104 12.2414 1.72643 26.4402
606 2 2.2208 11.0179 3.23018 24.9269
609 1 -1.1104 9.93666 1.75026 23.6991
612 1 -1.1104 9.46095 1.98673 26.4452
614 2 2.2208 7.83173 3.42406 22.142
660 1 -1.1104 9.57722 4.70195 26.041
662 1 -1.1104 9.35849 4.53683 23.4182
666 2 2.2208 7.95225 5.98855 24.838
667 2 2.2208 10.992 5.89503 22.0321
671 1 -1.1104 12.3097 4.60465 23.5735
674 1 -1.1104 12.2845 4.54196 26.4091
676 1 -1.1104 9.5035 7.25405 23.2888
670 1 -1.1104 12.0508 7.44924 26.5115
669 1 -1.1104 12.3235 7.28606 23.7362
664 1 -1.1104 9.14069 7.30383 26.1968
524 1 -1.1104 3.91997 13.0062 21.0383
468 1 -1.1104 3.90279 10.3211 20.8355
452 1 -1.1104 0.715824 10.3342 21.0226
589 2 2.2208 -0.349258 3.23412 13.7446
400 2 2.2208 5.15814 -2.45334 13.8192
505 1 -1.1104 0.984634 13.0073 20.7959
629 2 2.2208 5.28535 11.6019 22.0859
635 1 -1.1104 0.857993 10.1633 23.7207
638 2 2.2208 5.05575 8.94489 25.1849
640 1 -1.1104 0.849089 10.1253 26.3927
645 2 2.2208 2.37461 11.6779 24.9395
647 2 2.2208 2.24991 9.0373 22.2459
649 1 -1.1104 3.80349 10.3026 23.5089
651 1 -1.1104 3.65281 10.2343 26.4652
685 1 -1.1104 3.74384 13.2382 23.6473
689 1 -1.1104 1.38718 13.0059 26.3277
695 1 -1.1104 1.00956 13.1452 23.5611
700 1 -1.1104 4.08601 13.0475 26.4934
561 2 2.2208 8.06117 17.1271 13.9917
456 1 -1.1104 6.6389 10.3473 20.6355
684 1 -1.1104 6.88387 13.0483 26.4288
637 1 -1.1104 6.84466 10.4474 23.4068
693 1 -1.1104 6.5683 13.3529 23.657
551 1 -1.1104 9.45571 13.1203 20.7166
642 1 -1.1104 6.54636 10.343 26.273
718 1 -1.1104 9.50845 12.9997 26.506
654 1 -1.1104 12.1752 12.9994 24.0856
707 1 -1.1104 9.45524 12.8584 23.5531
659 1 -1.1104 9.33189 10.0266 26.4055
661 1 -1.1104 9.62077 10.0233 23.5653
663 2 2.2208 8.14208 8.8459 22.144
665 2 2.2208 7.97079 11.8065 24.8933
668 2 2.2208 10.9095 11.6434 22.2131
672 1 -1.1104 12.4649 10.2812 23.5614
673 2 2.2208 10.7144 8.72215 25.0062
675 1 -1.1104 12.2327 10.3059 26.4627
658 1 -1.1104 12.3322 13.0956 26.7804
719 1 -1.1104 6.65704 19.098 26.3358
653 2 2.2208 10.9193 17.2826 22.4055
690 1 -1.1104 6.61628 18.9547 23.5762
620 2 2.2208 -0.432724 11.7539 16.6199
531 1 -1.1104 4.16197 15.7655 20.9865
712 2 2.2208 -0.220881 17.3423 22.3844
692 2 2.2208 5.18651 14.6204 24.9947
709 2 2.2208 -0.286659 14.396 25.0783
705 2 2.2208 2.53299 14.4838 22.2043
683 1 -1.1104 3.81612 18.7909 23.7014
687 1 -1.1104 1.19488 18.9317 26.7955
688 1 -1.1104 0.9961 15.8598 26.679
691 2 2.2208 5.00198 20.1726 25.0222
694 1 -1.1104 1.17433 18.884 23.7984
696 2 2.2208 5.25086 17.3422 22.4747
697 1 -1.1104 3.7399 18.6148 26.4906
698 2 2.2208 2.36053 17.3119 25.2656
699 1 -1.1104 3.74235 15.9666 26.4685
702 1 -1.1104 1.07675 15.9316 23.8731
703 1 -1.1104 3.85646 16.0821 23.7188
704 2 2.2208 2.46732 20.1969 22.3219
686 1 -1.1104 6.7567 16.2014 26.394
677 1 -1.1104 12.2279 18.8642 26.356
553 1 -1.1104 9.51138 18.7241 20.8174
541 1 -1.1104 12.1993 18.7806 20.9608
720 2 2.2208 8.05135 17.5467 25.0325
715 2 2.2208 8.06626 20.163 22.2334
714 1 -1.1104 9.36867 16.0213 23.7267
717 1 -1.1104 9.39905 18.8381 26.5379
713 1 -1.1104 9.70271 15.9664 26.634
701 1 -1.1104 6.72778 16.042 23.8139
679 2 2.2208 10.9571 14.4823 25.2231
716 2 2.2208 8.04156 14.5305 22.1398
678 1 -1.1104 12.3211 15.8194 23.7991
706 1 -1.1104 12.4967 15.9708 26.4243
681 2 2.2208 10.7664 20.275 24.9419
519 1 -1.1104 6.86494 15.8652 20.8944
354 2 2.2208 7.78554 8.77882 27.6291
711 2 2.2208 -0.391195 20.192 25.1939
592 2 2.2208 -0.230593 8.88247 13.7292
591 2 2.2208 13.6494 14.5788 16.5832
560 2 2.2208 10.8696 14.5183 13.7051
396 2 2.2208 -0.360319 0.428178 16.7187
433 2 2.2208 8.06476 0.146992 13.7972
469 2 2.2208 2.32276 6.07589 13.925
353 2 2.2208 10.7416 6.04741 27.7165
534 2 2.2208 5.25239 14.5154 13.7466
339 2 2.2208 8.2336 -2.34878 27.7108
533 2 2.2208 5.24092 20.1213 13.7854
721 2 2.2208 5.30424 22.9884 5.32362
723 1 -1.1104 0.701633 24.4878 1.15869
724 1 -1.1104 0.954414 24.4872 3.88765
725 1 -1.1104 0.854806 21.7334 1.1459
727 2 2.2208 5.06405 25.701 2.45081
728 1 -1.1104 0.970928 21.5422 3.83243
730 1 -1.1104 3.63008 24.35 1.18061
731 2 2.2208 2.24416 23.026 2.4288
733 1 -1.1104 3.53384 24.464 3.90372
734 2 2.2208 2.1469 25.8176 5.4229
735 1 -1.1104 3.86956 21.6305 1.06843
737 1 -1.1104 3.75415 21.5407 3.9691
729 1 -1.1104 0.90923 27.3378 3.93681
736 1 -1.1104 3.67378 27.1743 1.17664
1392 2 2.2208 2.35735 42.6731 -0.257607
746 1 -1.1104 6.65346 21.7981 3.72902
742 1 -1.1104 6.48606 24.6629 1.01172
814 2 2.2208 13.5965 34.3537 2.52545
841 2 2.2208 -0.393862 42.7863 2.39586
864 1 -1.1104 0.839353 21.5155 6.68387
863 1 -1.1104 6.37701 24.3819 6.81587
744 1 -1.1104 6.58733 21.6125 0.806871
747 1 -1.1104 6.67471 27.3107 3.75848
743 1 -1.1104 6.37416 24.4117 3.8715
745 1 -1.1104 6.61323 27.4034 1.20369
748 2 2.2208 10.9353 23.117 5.26164
750 1 -1.1104 12.254 24.1279 1.18198
751 1 -1.1104 12.4097 24.4688 4.11414
752 1 -1.1104 12.1306 21.4842 0.904773
754 2 2.2208 10.8194 25.8166 2.50264
755 1 -1.1104 12.17 21.3623 3.79525
757 1 -1.1104 9.49661 24.5357 0.886329
758 2 2.2208 8.07553 23.007 2.51108
760 1 -1.1104 9.18343 24.6947 3.71282
761 2 2.2208 7.95474 26.0121 5.22858
762 1 -1.1104 9.43439 21.5303 1.12448
764 1 -1.1104 9.41801 21.8954 3.85291
763 1 -1.1104 9.5935 27.4608 1.15762
898 1 -1.1104 9.24201 24.5299 6.52731
740 2 2.2208 -0.379798 28.5173 5.42658
726 1 -1.1104 0.960981 27.4082 1.14259
738 1 -1.1104 3.61683 27.2427 4.05789
722 2 2.2208 5.14272 28.7096 5.32808
732 2 2.2208 2.2551 28.5942 2.66606
770 1 -1.1104 1.22571 30.1469 1.21609
773 1 -1.1104 0.941621 30.0334 3.72572
776 1 -1.1104 0.934393 33.2261 0.962959
777 2 2.2208 5.14452 31.74 2.57874
779 1 -1.1104 0.850737 32.7902 3.72869
781 1 -1.1104 3.90991 30.1548 1.37415
784 1 -1.1104 3.81963 30.4221 3.98188
786 2 2.2208 2.26526 31.5842 5.23866
788 1 -1.1104 3.77993 33.2333 1.10107
789 1 -1.1104 3.68023 33.3087 3.89771
780 1 -1.1104 6.71488 32.9866 3.92607
793 1 -1.1104 6.73044 30.3555 1.148
1005 2 2.2208 -0.343249 40.01 11.0842
919 1 -1.1104 0.998376 33.2075 6.66045
915 1 -1.1104 1.06068 30.1787 6.44942
792 2 2.2208 -0.305497 37.177 2.49395
765 1 -1.1104 9.25407 27.5979 4.14979
753 1 -1.1104 12.2948 27.3435 1.17494
756 1 -1.1104 12.2912 27.3169 3.99155
795 1 -1.1104 6.75828 33.0438 1.28489
794 1 -1.1104 6.73425 30.146 3.97764
749 2 2.2208 10.8747 28.7354 5.49672
759 2 2.2208 7.96354 28.7196 2.52041
797 1 -1.1104 12.3128 30.2592 1.09299
799 1 -1.1104 12.3056 30.1263 4.0976
801 1 -1.1104 12.2595 33.0034 0.972827
802 2 2.2208 10.8967 31.5614 2.53218
804 1 -1.1104 12.1998 33.0488 3.91116
805 1 -1.1104 9.45717 30.208 1.00031
808 1 -1.1104 9.65736 30.2008 4.16475
810 2 2.2208 8.07772 31.4932 5.32829
812 1 -1.1104 9.50626 33.0093 1.17516
813 1 -1.1104 9.52829 33.0153 3.8814
954 1 -1.1104 9.58118 33.0982 6.67999
951 1 -1.1104 12.3216 32.8479 6.62902
1065 2 2.2208 10.8675 34.5162 -0.231962
769 2 2.2208 5.13511 34.4853 5.20218
771 1 -1.1104 1.18485 35.8391 1.07829
774 1 -1.1104 1.13381 35.7978 3.92012
778 2 2.2208 5.17491 37.3866 2.661
782 1 -1.1104 4.02521 35.9115 1.07824
783 2 2.2208 2.47184 34.4828 2.4108
785 1 -1.1104 3.88706 35.8181 3.96966
787 2 2.2208 2.50148 37.2413 5.37654
821 1 -1.1104 1.15725 38.598 1.01655
826 1 -1.1104 0.942467 38.4724 3.84783
831 2 2.2208 2.45126 40.0596 2.59452
835 1 -1.1104 4.00733 38.7125 1.24901
837 1 -1.1104 4.00603 38.7542 3.99866
815 2 2.2208 5.32418 40.1768 5.36975
916 1 -1.1104 0.833427 35.9762 6.61249