ITEM: TIMESTEP
40000
ITEM: NUMBER OF ATOMS
17760
ITEM: BOX BOUNDS pp pp pp
-4.4423709137862522e-01 2.7784237091378792e+01
-5.5437930904658028e+00 3.3362379309047265e+02
-4.5329440523333003e-01 2.7793294405233119e+01
ITEM: ATOMS id type q x y z
1 2 2.2208 4.54459 0.0239384 5.18949
2 1 -1.1104 0.589582 -4.18707 0.794428
6 1 -1.1104 0.622479 -4.04095 3.91654
10 1 -1.1104 0.304762 -1.47789 0.69917
12 2 2.2208 4.83685 -2.8568 2.22107
14 1 -1.1104 0.748921 -1.46876 3.20003
16 1 -1.1104 3.4204 -4.14175 0.745144
18 2 2.2208 1.91832 0.277046 2.29463
19 1 -1.1104 3.49381 -4.45502 3.53286
21 2 2.2208 2.12493 -2.72644 5.09826
23 1 -1.1104 3.29991 -1.26716 0.737661
24 1 -1.1104 3.53477 -1.32303 3.58201
4 1 -1.1104 6.0382 -4.31534 1.10788
15 1 -1.1104 6.105 -1.38209 3.63623
172 1 -1.1104 3.44439 -4.39298 6.16372
166 1 -1.1104 0.559551 -3.89015 6.60379
171 1 -1.1104 6.23843 -1.47527 6.43763
11 1 -1.1104 6.2896 -1.61759 0.929363
8 1 -1.1104 6.40176 -4.22337 3.75078
170 1 -1.1104 0.770293 -1.14565 6.14188
174 1 -1.1104 3.38542 -1.52178 6.64338
168 1 -1.1104 6.14572 -4.18726 6.67109
28 2 2.2208 13.526 19.8393 10.6
31 2 2.2208 10.2527 0.104957 5.05616
32 1 -1.1104 11.8051 -4.07658 0.883056
34 1 -1.1104 11.8071 -4.2453 3.89684
36 1 -1.1104 11.8414 -1.3333 0.71297
37 2 2.2208 10.2748 -2.73797 2.25032
39 1 -1.1104 11.7292 -1.66591 3.5691
40 1 -1.1104 9.04996 -4.07503 0.87117
42 2 2.2208 7.38265 -0.0481505 2.29174
43 1 -1.1104 9.09851 -4.07368 3.62069
45 2 2.2208 7.60061 -2.81989 4.92986
47 1 -1.1104 9.06719 -1.43169 0.819482
48 1 -1.1104 8.88455 -1.28897 3.75312
210 1 -1.1104 9.0993 -1.29659 6.62005
207 1 -1.1104 11.7751 -1.34984 6.52306
208 1 -1.1104 8.90437 -4.35564 6.51595
49 2 2.2208 13.0908 -0.0798169 2.13394
315 1 -1.1104 8.9952 15.7852 11.9318
205 1 -1.1104 11.6801 -4.18999 6.61219
50 2 2.2208 13.1968 -2.62802 5.11455
3 1 -1.1104 0.471001 1.31825 0.860145
7 1 -1.1104 0.476695 1.56992 3.52624
13 2 2.2208 4.77234 2.97068 2.25575
17 1 -1.1104 3.33097 1.56098 0.912651
20 1 -1.1104 3.146 1.65125 3.72118
22 2 2.2208 2.10482 2.90809 5.10295
54 2 2.2208 4.88575 5.74629 4.99198
56 1 -1.1104 0.618466 7.09766 0.539883
58 1 -1.1104 0.668884 7.17991 3.43022
60 1 -1.1104 0.549635 4.29046 0.995012
67 1 -1.1104 0.5406 4.25158 3.86142
72 2 2.2208 1.99273 5.63749 2.11121
74 1 -1.1104 3.58264 7.19638 3.43362
76 1 -1.1104 3.39429 4.18973 0.722174
79 1 -1.1104 3.66157 4.45941 3.57201
71 1 -1.1104 3.32645 7.02326 0.633114
5 1 -1.1104 6.1452 1.37535 1.03695
9 1 -1.1104 6.02716 1.53152 3.99151
236 1 -1.1104 0.574217 4.17434 6.52765
63 1 -1.1104 6.21072 4.30619 0.853567
57 1 -1.1104 6.26514 6.97514 0.762624
59 1 -1.1104 6.51966 7.04421 3.46298
173 1 -1.1104 3.5013 1.45606 6.53313
239 1 -1.1104 3.4657 4.19936 6.37073
167 1 -1.1104 0.760103 1.32119 6.22384
238 1 -1.1104 3.62567 7.19173 6.30876
69 1 -1.1104 6.33151 4.2598 3.80953
105 2 2.2208 13.298 5.69666 2.3036
33 1 -1.1104 11.7846 1.82351 0.594093
35 1 -1.1104 11.7386 1.22853 3.58347
38 2 2.2208 10.3766 2.91474 2.30851
41 1 -1.1104 9.02668 1.35945 0.873418
44 1 -1.1104 9.0206 1.48178 3.77603
46 2 2.2208 7.56592 2.81505 5.17543
84 2 2.2208 10.5415 5.58762 5.10624
87 1 -1.1104 12.1216 7.0929 3.62218
88 1 -1.1104 12.1745 4.48722 0.738473
92 1 -1.1104 11.8066 4.25833 3.6197
94 1 -1.1104 9.1139 6.75943 0.686297
95 2 2.2208 7.60029 5.61345 2.28364
97 1 -1.1104 9.19542 7.17092 3.72199
99 1 -1.1104 9.17471 4.01435 0.852442
102 1 -1.1104 9.04108 4.33322 3.53949
86 1 -1.1104 11.982 7.19755 0.709119
209 1 -1.1104 8.97419 1.36506 6.52757
206 1 -1.1104 11.6642 1.29531 6.32463
233 2 2.2208 13.2321 2.92609 5.10912
55 2 2.2208 5.00846 11.5032 4.82773
61 1 -1.1104 0.876627 9.87278 0.796639
66 2 2.2208 4.92486 8.43287 1.88689
68 1 -1.1104 0.592982 9.96951 3.79263
73 2 2.2208 1.98607 11.2379 2.06302
75 2 2.2208 2.17843 8.5872 4.75841
77 1 -1.1104 3.62633 10.0942 0.548068
80 1 -1.1104 3.42614 10.034 3.51139
107 1 -1.1104 0.587533 12.654 0.705905
113 1 -1.1104 0.568222 12.7527 3.65074
123 1 -1.1104 3.49824 12.7759 0.589978
128 1 -1.1104 3.36742 12.8899 3.29188
124 1 -1.1104 3.099 12.8115 6.31368
64 1 -1.1104 6.33298 9.98241 0.569988
110 1 -1.1104 6.31685 12.7162 0.917736
115 1 -1.1104 6.39889 12.732 3.57715
70 1 -1.1104 6.39464 10.1739 3.56396
108 1 -1.1104 0.496916 12.7584 6.33577
62 1 -1.1104 0.64144 9.84739 6.56757
78 1 -1.1104 3.46549 9.91236 6.09115
532 2 2.2208 2.24267 17.0297 13.4245
85 2 2.2208 10.4982 11.1867 5.05802
89 1 -1.1104 11.9757 9.84609 0.855054
91 2 2.2208 10.4476 8.41512 2.22343
93 1 -1.1104 11.8647 9.91889 3.63663
96 2 2.2208 7.89689 11.3531 2.29215
98 2 2.2208 7.60479 8.47047 4.95432
100 1 -1.1104 9.16939 9.77615 0.619318
103 1 -1.1104 9.29353 9.92683 3.54495
142 1 -1.1104 11.903 12.6942 0.716993
146 1 -1.1104 11.8829 12.7637 3.61599
153 1 -1.1104 9.2799 12.6575 0.842865
158 1 -1.1104 9.11406 12.506 3.78822
90 1 -1.1104 11.9508 9.85394 6.55953
154 1 -1.1104 8.87336 12.8687 6.62991
143 1 -1.1104 11.8906 12.7263 6.5495
101 1 -1.1104 9.26627 9.82264 6.35854
104 2 2.2208 13.3606 11.3355 2.20854
232 2 2.2208 13.4521 8.76765 4.84288
130 2 2.2208 1.93961 14.1605 5.02629
119 2 2.2208 4.73073 14.2292 2.02941
106 2 2.2208 4.86719 16.9764 5.03341
109 1 -1.1104 0.492907 18.2862 0.876308
114 1 -1.1104 0.572222 18.4449 3.91451
116 1 -1.1104 0.55873 15.7164 0.686483
120 2 2.2208 4.97647 19.9429 2.28829
121 1 -1.1104 0.702523 15.4015 3.4817
125 1 -1.1104 3.29512 18.2498 0.678943
127 2 2.2208 1.89856 17.1538 2.26698
129 1 -1.1104 3.37694 18.3723 3.65953
131 2 2.2208 1.90069 19.8924 5.10275
132 1 -1.1104 3.35038 15.5553 0.633918
134 1 -1.1104 3.43816 15.4765 3.55309
126 1 -1.1104 3.37894 18.3804 6.47275
139 1 -1.1104 6.4368 18.4025 3.66601
122 1 -1.1104 6.07456 15.6087 3.32234
140 1 -1.1104 6.28248 15.9141 0.603996
302 1 -1.1104 0.407201 18.2256 6.59482
138 1 -1.1104 6.10491 18.6575 0.792377
133 1 -1.1104 3.2374 15.778 6.18875
117 1 -1.1104 0.586365 15.2901 6.46314
618 2 2.2208 13.1773 -0.0336953 13.5136
165 2 2.2208 13.1199 16.9835 2.29051
150 2 2.2208 10.4665 14.2151 2.19066
160 2 2.2208 7.62981 14.0072 4.98204
231 2 2.2208 13.1668 19.8035 5.04237
204 2 2.2208 13.1639 14.2494 5.05568
141 2 2.2208 10.5413 16.9562 5.03481
144 1 -1.1104 11.911 18.4197 0.919963
147 1 -1.1104 11.7671 18.3735 3.79146
148 1 -1.1104 11.7285 15.5242 0.61649
151 2 2.2208 10.4506 19.955 2.02422
152 1 -1.1104 11.8922 15.5566 3.69502
155 1 -1.1104 9.07893 18.4235 0.47989
157 2 2.2208 7.61678 16.9383 2.11614
159 1 -1.1104 9.02894 18.4187 3.51958
161 2 2.2208 7.70405 19.7767 5.04993
162 1 -1.1104 8.98366 15.5413 0.810941
164 1 -1.1104 9.07439 15.5107 3.49233
156 1 -1.1104 9.21011 18.1298 6.56493
149 1 -1.1104 11.8541 15.7221 6.37068
163 1 -1.1104 8.81085 15.4923 6.37335
145 1 -1.1104 11.8895 18.4226 6.47721
175 2 2.2208 4.68158 0.121209 10.6459
176 1 -1.1104 0.348166 -4.14694 12.1762
180 1 -1.1104 0.508312 -4.04413 9.38374
184 1 -1.1104 0.339659 -1.18265 12.1039
186 2 2.2208 4.54584 -2.98535 7.9368
188 1 -1.1104 0.464311 -1.21495 9.17844
190 1 -1.1104 3.03913 -4.22855 12.15
192 2 2.2208 1.91393 0.0553302 7.95629
193 1 -1.1104 3.08994 -4.04808 9.40376
195 2 2.2208 1.86459 -2.7607 10.6971
197 1 -1.1104 3.10647 -1.5109 12.0673
198 1 -1.1104 3.20659 -1.20203 9.43945
185 1 -1.1104 5.7727 -1.37437 11.8411
189 1 -1.1104 5.82611 -1.3658 9.00642
178 1 -1.1104 6.06899 -4.35572 12.4924
182 1 -1.1104 5.96829 -4.14533 9.51432
498 2 2.2208 7.53009 11.4351 13.2803
400 2 2.2208 4.64171 -2.77901 13.5663
230 2 2.2208 13.3071 -2.89714 10.6491
229 2 2.2208 13.2481 0.152626 7.87682
211 2 2.2208 10.3317 0.0275722 10.8356
212 1 -1.1104 11.7292 -4.30213 12.1525
214 1 -1.1104 11.6795 -4.3154 9.22244
216 1 -1.1104 11.433 -1.5792 12.2432
217 2 2.2208 10.3527 -2.74795 7.86898
219 1 -1.1104 11.7938 -1.43796 9.54678
220 1 -1.1104 9.06612 -4.23254 11.9068
222 2 2.2208 7.56962 -0.136861 7.90893
223 1 -1.1104 8.67538 -4.31085 9.3547
225 2 2.2208 7.51944 -2.90732 10.8509
227 1 -1.1104 8.47659 -1.54477 12.4464
228 1 -1.1104 8.86173 -1.86733 9.40705
471 2 2.2208 1.90382 11.6152 13.4545
329 1 -1.1104 11.9554 18.4687 12.0164
9038 2 2.2208 13.2547 -5.38231 2.50135
169 1 -1.1104 6.30392 1.49251 6.76707
234 1 -1.1104 0.772932 6.9651 6.1315
235 1 -1.1104 6.26291 6.98452 6.34638
177 1 -1.1104 0.563781 1.47021 11.7363
181 1 -1.1104 0.655856 1.67605 9.19004
187 2 2.2208 4.79173 2.96336 7.98165
191 1 -1.1104 3.29507 1.64469 12.1483
194 1 -1.1104 3.37475 1.51795 9.27189
196 2 2.2208 1.93689 2.99291 10.7359
240 2 2.2208 4.83414 5.78232 10.5252
242 1 -1.1104 0.504627 6.97847 11.9741
246 1 -1.1104 0.319239 4.21469 11.8325
251 1 -1.1104 0.53818 4.22591 9.07311
256 2 2.2208 2.00009 5.78814 7.68686
260 1 -1.1104 3.25773 4.36423 11.8808
262 1 -1.1104 3.31323 4.43358 9.0181
244 1 -1.1104 0.558591 7.25265 8.92783
258 1 -1.1104 3.28138 7.3765 9.25831
255 1 -1.1104 3.30332 7.21344 12.2416
245 1 -1.1104 6.15121 7.22852 9.02207
248 1 -1.1104 6.14519 4.28757 12.2466
183 1 -1.1104 5.98304 1.59609 9.62134
243 1 -1.1104 6.21521 6.98891 11.887
237 1 -1.1104 6.2314 4.23765 6.72886
179 1 -1.1104 6.1996 1.51574 12.1529
253 1 -1.1104 6.29129 4.36093 9.34147
401 2 2.2208 1.87527 0.0304541 13.4848
469 2 2.2208 1.83936 5.69139 13.4485
269 1 -1.1104 8.99562 4.11854 6.39734
265 1 -1.1104 12.0035 7.04871 6.34894
266 1 -1.1104 11.9692 4.38265 6.41213
202 2 2.2208 13.1877 5.88243 7.83075
203 2 2.2208 13.286 2.93287 10.5273
534 2 2.2208 4.68807 14.1595 13.4848
267 1 -1.1104 9.25196 6.95445 6.45752
213 1 -1.1104 11.8792 1.41335 11.9345
215 1 -1.1104 11.8353 1.31158 9.22683
218 2 2.2208 10.4334 2.75096 7.7922
221 1 -1.1104 9.12427 1.32925 12.078
224 1 -1.1104 8.99527 1.06281 9.21132
226 2 2.2208 7.75867 2.65765 10.6596
268 1 -1.1104 9.13686 3.96057 9.29706
271 1 -1.1104 8.8071 4.20483 12.0582
275 2 2.2208 7.76146 5.63969 7.83585
276 2 2.2208 10.4336 5.6336 10.7602
279 1 -1.1104 11.9138 7.06709 9.25913
280 1 -1.1104 11.6467 4.21463 11.9121
283 1 -1.1104 11.7535 4.02128 9.20183
285 1 -1.1104 8.78466 7.31885 11.9914
273 1 -1.1104 8.90027 6.95745 9.2312
278 1 -1.1104 11.7863 6.97055 12.2798
560 2 2.2208 10.4053 14.0551 13.1486
561 2 2.2208 7.81267 17.0068 13.4984
65 1 -1.1104 6.44989 9.82845 6.23989
111 1 -1.1104 6.09698 12.8585 6.35655
435 2 2.2208 10.3849 2.74924 13.5376
241 2 2.2208 4.73334 11.2819 10.5861
247 1 -1.1104 0.418671 9.9108 11.8466
250 2 2.2208 4.75323 8.54276 7.80741
252 1 -1.1104 0.640494 9.96471 9.24945
257 2 2.2208 1.83427 11.3325 7.83796
259 2 2.2208 1.86269 8.44788 10.6067
261 1 -1.1104 3.24476 10.0244 11.9606
263 1 -1.1104 3.40532 9.9053 9.27879
287 1 -1.1104 3.22054 12.7631 11.9275
294 1 -1.1104 0.308755 12.8396 9.23854
299 1 -1.1104 0.3859 13.0906 12.153
305 1 -1.1104 3.17466 12.8539 8.98367
290 1 -1.1104 6.03747 12.6362 9.06425
254 1 -1.1104 6.22593 10.0237 9.2742
297 1 -1.1104 6.13672 12.6766 11.91
249 1 -1.1104 6.07303 9.79313 12.1413
402 2 2.2208 4.85197 2.97286 13.3692
533 2 2.2208 5.10173 19.9114 13.572
53 2 2.2208 13.3713 11.3768 7.83736
52 2 2.2208 13.3576 8.52263 10.7105
330 1 -1.1104 11.693 12.491 11.9574
328 1 -1.1104 11.6232 13.0952 9.36484
322 1 -1.1104 8.85281 12.9272 12.0242
319 1 -1.1104 8.93034 12.8966 9.23342
264 1 -1.1104 8.98835 9.85114 9.21572
270 1 -1.1104 9.02373 10.1042 11.8987
272 2 2.2208 7.54053 8.50592 10.5752
274 2 2.2208 7.64219 11.3637 7.85708
277 2 2.2208 10.5434 11.279 10.5456
281 1 -1.1104 12.0189 9.84167 11.9691
282 2 2.2208 10.6795 8.47079 7.77108
284 1 -1.1104 11.9311 9.85287 9.21449
325 2 2.2208 10.2554 14.3809 7.98511
497 2 2.2208 10.485 8.44967 13.3162
296 1 -1.1104 6.40248 18.4051 11.9745
118 1 -1.1104 6.07542 15.4669 6.48066
332 2 2.2208 13.273 17.0506 7.90503
316 2 2.2208 7.66208 19.8843 10.6803
310 2 2.2208 1.97924 14.3079 10.541
295 2 2.2208 4.67585 14.1425 7.67887
324 2 2.2208 10.6656 19.9119 7.84624
303 2 2.2208 1.98584 17.0163 7.82843
301 1 -1.1104 3.61222 18.4524 9.32644
306 1 -1.1104 6.01473 15.7028 12.1684
288 1 -1.1104 6.42722 18.262 9.19565
307 1 -1.1104 0.493152 15.6764 12.0706
304 1 -1.1104 3.30898 15.4214 8.95616
309 2 2.2208 2.10254 19.9048 10.7189
308 1 -1.1104 3.26738 15.7394 11.9572
286 1 -1.1104 3.56596 18.3161 11.6964
291 1 -1.1104 0.712479 18.5783 9.30408
292 1 -1.1104 0.441719 15.6949 9.22656
293 2 2.2208 4.80387 19.5931 7.8738
298 1 -1.1104 0.647172 18.5647 11.9429
300 2 2.2208 4.94928 17.0147 10.4954
112 1 -1.1104 6.2182 18.418 6.34185
333 2 2.2208 13.2175 14.3489 10.5975
496 2 2.2208 7.55097 5.85523 13.5078
331 2 2.2208 10.453 17.1722 10.6878
323 1 -1.1104 11.7841 15.5986 9.41564
320 2 2.2208 7.68447 16.9581 7.79593
326 1 -1.1104 11.8058 15.4826 12.3312
588 2 2.2208 13.2161 5.48122 13.5185
559 2 2.2208 10.5334 19.6573 13.4496
289 1 -1.1104 6.17704 15.3293 9.19749
314 1 -1.1104 9.0712 15.933 9.26188
318 1 -1.1104 9.23493 18.5959 9.31529
321 1 -1.1104 9.17552 18.3885 11.9825
327 1 -1.1104 11.8754 18.4852 9.27819
317 2 2.2208 7.55444 14.1481 10.6329
470 2 2.2208 4.62679 8.57254 13.409
562 2 2.2208 13.3219 17.1289 13.4841
621 2 2.2208 13.4562 11.4499 13.2624
9033 2 2.2208 2.01969 -5.55939 2.23415
9043 2 2.2208 10.2875 -5.62836 10.6338
433 2 2.2208 7.53458 -0.060105 13.7205
9039 2 2.2208 1.85642 -5.46067 7.87778
340 2 2.2208 7.67488 2.67224 -0.382777
360 2 2.2208 4.75913 0.0287159 16.3686
361 1 -1.1104 0.87735 -4.45583 17.42
365 1 -1.1104 0.118957 -3.97329 14.7945
373 1 -1.1104 0.667156 -1.21914 17.7209
375 2 2.2208 4.73598 -2.71158 19.0461
377 1 -1.1104 0.516477 -1.21708 15.1076
381 1 -1.1104 3.41573 -4.16837 17.7046
383 2 2.2208 2.07473 0.0355868 19.0348
384 1 -1.1104 3.20271 -4.08248 15.048
388 2 2.2208 2.03757 -2.58947 16.3967
390 1 -1.1104 3.56998 -1.3642 17.6605
391 1 -1.1104 3.23754 -1.4337 14.8009
374 1 -1.1104 6.45173 -1.17056 17.6944
363 1 -1.1104 6.12671 -4.20388 17.8455
379 1 -1.1104 6.26008 -1.30782 14.9076
392 1 -1.1104 3.61674 -1.13867 20.3715
385 1 -1.1104 3.15306 -3.9477 20.5221
378 1 -1.1104 0.842454 -1.32934 20.4982
366 1 -1.1104 0.381975 -3.99317 20.4835
380 1 -1.1104 6.36983 -1.35334 20.5236
369 1 -1.1104 6.07465 -3.95805 15.0911
370 1 -1.1104 6.18594 -4.15938 20.7348
403 2 2.2208 10.2365 -0.0853765 16.4031
404 1 -1.1104 11.8711 -4.42539 17.8279
406 1 -1.1104 12.0166 -4.07611 15.0094
410 1 -1.1104 11.9913 -1.51871 17.948
411 2 2.2208 10.6051 -2.75405 19.2472
413 1 -1.1104 11.7712 -1.37933 15.1276
415 1 -1.1104 8.91651 -4.37046 18.0606
417 2 2.2208 7.68465 0.0568672 19.2053
418 1 -1.1104 8.97361 -4.25315 14.9937
422 2 2.2208 7.67623 -2.92083 16.3225
424 1 -1.1104 9.24187 -1.48047 18
425 1 -1.1104 9.1226 -1.4495 15.1325
419 1 -1.1104 9.21644 -4.31095 20.6374
426 1 -1.1104 9.09489 -1.40563 20.5009
414 1 -1.1104 11.8919 -1.51412 20.6941
617 2 2.2208 13.3057 0.010584 19.1407
407 1 -1.1104 12.0387 -4.46676 20.6806
431 2 2.2208 13.2909 -2.79128 16.3567
362 1 -1.1104 0.480784 1.32671 17.7234
367 1 -1.1104 0.438154 1.59647 14.6119
376 2 2.2208 4.85006 2.8528 19.1685
382 1 -1.1104 3.43978 1.41848 17.7302
386 1 -1.1104 3.40485 1.54173 14.9327
389 2 2.2208 2.09606 3.01378 16.2558
436 2 2.2208 4.82493 5.78488 16.2402
444 1 -1.1104 0.455383 4.17021 17.7132
449 1 -1.1104 0.458337 4.46528 14.9015
457 1 -1.1104 3.48639 6.96348 17.6285
458 2 2.2208 1.97627 5.54769 19.0802
460 1 -1.1104 3.0789 7.14608 15.0418
463 1 -1.1104 3.45144 4.07816 17.6841
465 1 -1.1104 3.55826 4.39298 14.71
438 1 -1.1104 0.570775 6.93253 17.6562
441 1 -1.1104 0.591892 7.30535 20.6405
446 1 -1.1104 6.18483 4.4673 17.757
364 1 -1.1104 6.14855 1.66121 17.7589
371 1 -1.1104 6.19135 1.72767 14.9051
450 1 -1.1104 0.64667 4.39645 20.5454
454 1 -1.1104 6.29322 4.23807 20.504
443 1 -1.1104 6.33977 7.06654 20.506
442 1 -1.1104 6.20033 7.24027 14.6803
439 1 -1.1104 6.11061 6.99126 17.629
461 1 -1.1104 3.38767 7.07038 20.4172
440 1 -1.1104 0.459891 7.22777 14.7575
387 1 -1.1104 3.51684 1.59521 20.5128
368 1 -1.1104 0.642019 1.5466 20.4741
372 1 -1.1104 6.35192 1.33429 20.6625
453 1 -1.1104 6.3167 4.42967 14.9228
466 1 -1.1104 3.3837 4.29003 20.4519
405 1 -1.1104 11.9585 1.4679 17.5905
408 1 -1.1104 11.6121 1.3978 14.7673
412 2 2.2208 10.5048 2.76558 19.0129
416 1 -1.1104 8.96938 1.50443 17.5826
420 1 -1.1104 9.01779 1.39332 14.7906
423 2 2.2208 7.6296 3.07294 16.0816
472 2 2.2208 10.3048 5.76327 16.2696
474 1 -1.1104 12.0603 7.07484 17.5838
475 1 -1.1104 11.7211 6.90272 15.0003
477 1 -1.1104 11.694 4.38474 17.4513
480 1 -1.1104 12.0898 4.11988 14.7035
484 1 -1.1104 8.91052 7.22781 17.6447
485 2 2.2208 7.55446 5.5687 19
490 1 -1.1104 9.0218 4.32189 17.7788
492 1 -1.1104 9.24355 4.27322 14.8674
481 1 -1.1104 11.6841 4.17486 20.4761
488 1 -1.1104 9.16098 7.29243 20.3722
487 1 -1.1104 8.96721 7.17905 14.7897
476 1 -1.1104 11.7984 6.98012 20.455
409 1 -1.1104 11.8408 1.35145 20.5432
623 2 2.2208 13.2437 5.74379 19.0646
619 2 2.2208 13.3249 2.78122 16.1732
437 2 2.2208 5.0354 11.198 16.4638
445 1 -1.1104 0.689679 9.92567 17.5947
448 2 2.2208 4.86598 8.31423 19.2164
451 1 -1.1104 0.532886 10.0787 14.6751
459 2 2.2208 2.21339 11.5333 19.1018
462 2 2.2208 1.91615 8.63494 16.085
464 1 -1.1104 3.57718 9.77786 17.8046
467 1 -1.1104 3.43136 9.95344 14.7908
500 1 -1.1104 0.744636 12.8089 17.6219
504 1 -1.1104 0.551227 12.6872 15.0293
520 1 -1.1104 3.46248 12.7903 17.5648
523 1 -1.1104 3.51336 12.8312 14.9984
502 1 -1.1104 6.42545 12.655 17.8508
447 1 -1.1104 6.50658 9.81683 17.8373
456 1 -1.1104 6.2052 9.94674 20.4407
455 1 -1.1104 6.25416 10.1046 15.0057
508 1 -1.1104 6.40961 12.9413 14.8286
514 2 2.2208 4.95104 14.2332 19.0301
468 1 -1.1104 3.28032 9.99312 20.5598
452 1 -1.1104 0.539654 9.9821 20.4496
524 1 -1.1104 3.70816 12.7779 20.6434
622 2 2.2208 13.2681 11.4617 19.1012
473 2 2.2208 10.6787 11.4046 16.101
478 1 -1.1104 11.7739 10.0278 17.4976
479 2 2.2208 10.578 8.44989 18.9421
482 1 -1.1104 11.8782 10.0063 14.6389
486 2 2.2208 7.81429 11.2707 19.2062
489 2 2.2208 7.84185 8.7288 16.0849
491 1 -1.1104 9.18594 9.81964 17.6443
494 1 -1.1104 9.06318 9.9521 14.4669
536 1 -1.1104 11.9551 12.9228 17.7046
538 1 -1.1104 12.1137 12.9677 14.6372
547 1 -1.1104 9.18812 12.6668 17.4954
550 1 -1.1104 9.30998 13.0162 14.8062
483 1 -1.1104 12.0654 9.5616 20.5189
539 1 -1.1104 12.1006 12.6154 20.6566
495 1 -1.1104 9.10979 9.87845 20.5745
344 2 2.2208 13.3091 14.2721 27.5645
355 2 2.2208 10.5325 11.0744 27.5007
527 2 2.2208 2.05604 14.1421 16.1471
499 2 2.2208 4.95863 17.0982 16.2773
501 1 -1.1104 0.651486 18.6136 17.587
506 1 -1.1104 0.929085 18.2414 14.7947
512 1 -1.1104 0.52174 15.7628 17.7178
515 2 2.2208 4.92977 19.8021 19.0753
516 1 -1.1104 0.578273 15.5557 14.7301
521 1 -1.1104 3.39972 18.737 17.9187
522 2 2.2208 2.19512 17.1041 19.2551
525 1 -1.1104 3.7385 18.4286 14.9263
528 2 2.2208 2.09365 19.9482 16.3373
529 1 -1.1104 3.29535 15.6792 17.5998
530 1 -1.1104 3.36536 15.7106 14.7864
526 1 -1.1104 3.57763 18.3697 20.6027
518 1 -1.1104 6.38119 15.5742 14.8544
510 1 -1.1104 6.60308 18.2058 14.9732
511 1 -1.1104 6.27997 18.4998 20.2832
517 1 -1.1104 0.792389 15.6046 20.6955
519 1 -1.1104 6.26641 15.4345 20.5129
513 1 -1.1104 6.22914 15.3299 17.8106
336 2 2.2208 1.77131 2.86772 27.7027
717 1 -1.1104 9.21211 18.2059 25.6555
590 2 2.2208 13.4358 17.0984 19.0999
554 2 2.2208 7.64885 14.2882 16.2606
503 1 -1.1104 6.33366 18.5095 17.5941
543 2 2.2208 10.5579 14.1767 19.1876
540 1 -1.1104 12.2662 18.7282 14.8563
535 2 2.2208 10.4881 16.7546 16.328
537 1 -1.1104 12.1361 18.7227 17.8056
542 1 -1.1104 11.8315 15.8088 17.8598
544 2 2.2208 10.7219 20.033 19.0284
545 1 -1.1104 12.1064 15.7424 14.9632
548 1 -1.1104 9.1154 18.1178 17.6166
549 2 2.2208 7.65744 16.8563 19.1797
552 1 -1.1104 9.2526 18.3833 14.8898
555 2 2.2208 7.86978 19.8671 16.2767
556 1 -1.1104 9.09281 15.4378 17.6045
557 1 -1.1104 9.32424 15.8217 14.7173
541 1 -1.1104 12.1417 18.3174 20.4858
558 1 -1.1104 8.99809 15.6507 20.4783
553 1 -1.1104 9.11008 18.4775 20.3524
546 1 -1.1104 12.0042 15.3851 20.4451
591 2 2.2208 13.3436 14.2243 16.2642
343 2 2.2208 4.79022 5.76537 27.5082
335 2 2.2208 1.89242 -2.74927 27.6525
563 2 2.2208 4.86969 0.0811236 22.0662
564 1 -1.1104 0.516896 -4.17022 23.4447
568 1 -1.1104 0.520773 -4.05602 26.3952
572 1 -1.1104 0.462926 -1.15275 23.3812
574 2 2.2208 4.77695 -2.95595 25.0198
576 1 -1.1104 0.460454 -1.30866 26.0932
578 1 -1.1104 3.15995 -4.1562 23.4258
580 2 2.2208 1.86907 0.112992 24.8712
581 1 -1.1104 3.34398 -4.12809 26.3101
583 2 2.2208 2.01092 -2.75073 22.0061
585 1 -1.1104 3.29708 -1.49788 23.4226
586 1 -1.1104 3.27358 -1.41698 26.1499
566 1 -1.1104 5.99867 -4.04144 23.3197
573 1 -1.1104 5.97218 -1.24507 23.4304
577 1 -1.1104 6.06115 -1.38065 26.4694
570 1 -1.1104 6.20308 -4.0453 26.5009
624 2 2.2208 13.4199 14.1906 22.0554
338 2 2.2208 10.4245 0.0515476 27.579
599 2 2.2208 10.4424 0.00135995 21.8029
600 1 -1.1104 11.7226 -4.43521 23.6052
602 1 -1.1104 11.836 -4.15301 26.2129
604 1 -1.1104 11.7315 -1.53824 23.4966
605 2 2.2208 10.3831 -2.93087 24.8731
607 1 -1.1104 11.7073 -1.41396 26.1549
608 1 -1.1104 8.92615 -4.40998 23.2502
610 2 2.2208 7.36596 -0.0183051 24.8069
611 1 -1.1104 8.89562 -4.30361 26.1763
613 2 2.2208 7.66745 -2.76537 21.8541
615 1 -1.1104 9.05427 -1.303 23.3303
616 1 -1.1104 8.8784 -1.49489 26.2019
341 2 2.2208 13.1341 -2.79361 27.7202
625 2 2.2208 13.1155 -3.01579 22.1827
626 2 2.2208 13.1901 -0.00160469 24.6636
339 2 2.2208 7.6125 -2.66902 27.6924
565 1 -1.1104 0.879951 1.59531 23.4162
569 1 -1.1104 0.405651 1.62126 26.4866
575 2 2.2208 4.84042 2.87863 24.8074
579 1 -1.1104 3.64359 1.37425 23.3928
582 1 -1.1104 3.20543 1.50071 26.2737
584 2 2.2208 1.94885 3.01772 21.8717
628 2 2.2208 4.83821 5.6672 21.9876
630 1 -1.1104 0.516903 7.04036 23.2854
632 1 -1.1104 0.650358 7.20202 25.884
634 1 -1.1104 0.471001 4.32104 23.4897
639 1 -1.1104 0.55692 4.34891 26.2835
644 2 2.2208 1.87945 5.63383 24.7356
648 1 -1.1104 3.33882 4.3579 23.2444
650 1 -1.1104 3.31696 4.31518 26.3023
646 1 -1.1104 3.36653 7.09867 26.1545
641 1 -1.1104 6.00543 4.46984 26.0968
631 1 -1.1104 6.44528 7.18436 23.1704
643 1 -1.1104 3.66544 7.31414 23.2729
633 1 -1.1104 6.27487 7.38113 26.2383
567 1 -1.1104 6.39162 1.69499 23.5389
571 1 -1.1104 5.96499 1.51246 26.5969
636 1 -1.1104 6.26034 4.36902 23.5073
587 2 2.2208 13.2565 8.45913 16.0101
9052 2 2.2208 4.98429 -5.48847 27.5913
9265 2 2.2208 1.84302 -5.51065 24.8594
493 1 -1.1104 8.81682 4.57426 20.6995
421 1 -1.1104 9.11954 1.3871 20.3246
342 2 2.2208 13.2406 2.86878 27.5803
682 2 2.2208 13.2518 5.62414 24.836
395 2 2.2208 13.2141 2.95131 21.7871
601 1 -1.1104 11.895 1.47948 23.2573
603 1 -1.1104 11.8692 1.31429 26.1765
606 2 2.2208 10.5058 2.72158 24.6408
609 1 -1.1104 9.25461 1.43791 23.0697
612 1 -1.1104 8.87033 1.32299 26.0827
614 2 2.2208 7.66188 2.9594 21.867
660 1 -1.1104 9.05987 4.19934 26.3114
662 1 -1.1104 9.06421 3.99955 23.3082
664 1 -1.1104 9.20022 6.99744 26.2407
666 2 2.2208 7.83415 5.40406 24.7411
667 2 2.2208 10.4448 5.77584 21.8221
671 1 -1.1104 11.8974 4.39661 23.2176
674 1 -1.1104 11.849 4.19534 26.167
676 1 -1.1104 9.05645 6.73903 23.3811
670 1 -1.1104 11.8894 7.033 26.1369
669 1 -1.1104 11.8486 7.17146 23.5748
348 2 2.2208 10.4319 16.9467 27.3536
505 1 -1.1104 0.909581 12.801 20.6401
509 1 -1.1104 6.55755 12.7132 20.6357
629 2 2.2208 4.89352 11.4007 22.1612
635 1 -1.1104 0.640202 9.8377 23.1782
638 2 2.2208 4.91527 8.59129 24.6425
640 1 -1.1104 0.680743 10.1441 25.925
645 2 2.2208 2.1062 11.5207 24.6537
647 2 2.2208 2.0631 8.60668 21.81
649 1 -1.1104 3.4522 10.0181 23.303
651 1 -1.1104 3.48889 9.88143 26.0672
685 1 -1.1104 3.5096 12.826 23.2941
689 1 -1.1104 0.582299 12.7942 25.9721
695 1 -1.1104 0.643381 12.9571 23.327
700 1 -1.1104 3.39682 12.6349 26.085
693 1 -1.1104 6.13583 12.8104 23.5482
637 1 -1.1104 6.49586 10.0581 23.1636
684 1 -1.1104 6.3248 12.6736 26.3234
642 1 -1.1104 6.13505 10.0086 25.7805
708 2 2.2208 1.94894 14.1065 27.5679
692 2 2.2208 4.92423 14.1549 24.6821
346 2 2.2208 2.19674 8.63435 27.3519
680 2 2.2208 13.2106 11.5179 24.8484
354 2 2.2208 7.63063 8.45135 27.45
347 2 2.2208 7.80719 14.1107 27.6895
551 1 -1.1104 9.24216 12.8339 20.6986
718 1 -1.1104 9.14851 12.5115 26.4175
654 1 -1.1104 11.7526 12.809 23.5568
707 1 -1.1104 8.86409 12.6289 23.4759
659 1 -1.1104 9.06734 9.73545 26.2208
661 1 -1.1104 9.38692 9.90621 23.5666
663 2 2.2208 7.77018 8.53763 21.8069
665 2 2.2208 7.84022 11.23 24.8553
668 2 2.2208 10.7359 11.2143 21.9357
672 1 -1.1104 12.0988 9.91286 23.3162
673 2 2.2208 10.4693 8.32314 24.8839
675 1 -1.1104 11.9211 9.8026 25.9908
658 1 -1.1104 12.0094 12.7665 26.1948
334 2 2.2208 4.52702 0.0526676 27.6255
716 2 2.2208 7.65736 14.1134 22.0349
394 2 2.2208 13.3463 8.56678 21.9858
356 2 2.2208 13.3714 8.48047 27.4551
358 2 2.2208 4.6222 17.0301 27.4218
507 1 -1.1104 0.745394 18.5551 20.4049
531 1 -1.1104 3.52315 15.4793 20.4578
701 1 -1.1104 6.12139 15.7322 23.1764
686 1 -1.1104 6.15345 15.6683 26.0058
719 1 -1.1104 6.26175 18.277 26.1044
705 2 2.2208 2.09664 14.1485 21.8454
683 1 -1.1104 3.65766 18.4153 23.3293
687 1 -1.1104 0.406867 18.5192 26.2632
688 1 -1.1104 0.626481 15.487 26.2732
691 2 2.2208 5.01597 19.6838 24.7076
694 1 -1.1104 0.748296 18.5023 23.4527
696 2 2.2208 4.93177 17.1486 21.7362
697 1 -1.1104 3.22342 18.2859 26.039
698 2 2.2208 1.98542 17.0169 24.6814
699 1 -1.1104 3.23798 15.3402 26.1943
702 1 -1.1104 0.660925 15.6738 23.4289
703 1 -1.1104 3.42141 15.6003 23.2445
704 2 2.2208 2.27897 19.8932 22.1527
690 1 -1.1104 6.37695 18.4762 23.2431
357 2 2.2208 1.84278 19.8106 27.7583
349 2 2.2208 7.65718 19.7222 27.6096
714 1 -1.1104 9.22722 15.6454 23.2478
652 2 2.2208 13.4048 19.9214 21.8242
655 1 -1.1104 11.9463 18.5122 23.3504
678 1 -1.1104 11.9734 15.5698 23.3809
653 2 2.2208 10.3931 17.2232 21.6019
715 2 2.2208 7.71589 19.8327 21.8448
679 2 2.2208 10.5363 14.0745 24.8232
710 1 -1.1104 9.07352 18.3857 22.9283
627 2 2.2208 13.2818 16.9755 24.6411
720 2 2.2208 7.75586 16.9231 24.6115
677 1 -1.1104 11.9186 18.5306 26.2835
681 2 2.2208 10.5624 19.8879 24.7749
9060 2 2.2208 1.84064 -5.54965 13.6688
353 2 2.2208 10.5582 5.52231 27.672
706 1 -1.1104 11.8221 15.6734 26.0052
713 1 -1.1104 9.07669 15.4471 26.0999
350 2 2.2208 4.83827 11.3738 27.4209
432 2 2.2208 13.4506 19.8837 16.4465
345 2 2.2208 13.2093 19.8362 27.5048
434 2 2.2208 10.3007 -2.77901 13.6613
9267 2 2.2208 4.61729 -5.50946 21.9369
9430 2 2.2208 4.79962 -5.48562 16.3789
9429 2 2.2208 1.84757 -5.51945 19.1024
721 2 2.2208 4.84086 22.4597 5.01786
723 1 -1.1104 0.658181 23.8295 1.01859
724 1 -1.1104 0.842064 23.9296 3.71062
725 1 -1.1104 0.66727 21.2214 0.864049
727 2 2.2208 4.7826 25.5408 2.09832
728 1 -1.1104 0.577338 21.2818 3.68847
730 1 -1.1104 3.29052 24.2938 1.08094
731 2 2.2208 2.12732 22.5347 2.25129
733 1 -1.1104 3.56149 23.9086 3.9605
734 2 2.2208 2.19406 25.4981 5.17175
735 1 -1.1104 3.54988 20.8428 0.796476
737 1 -1.1104 3.33826 21.3292 3.77517
738 1 -1.1104 3.43556 26.8586 3.64588
744 1 -1.1104 6.3477 21.1122 0.838355
726 1 -1.1104 0.694605 26.667 0.791709
743 1 -1.1104 6.1694 24.0512 3.46781
746 1 -1.1104 6.26843 21.3796 3.61221
729 1 -1.1104 0.688715 26.7947 3.78741
869 1 -1.1104 3.31956 21.0621 6.66212
862 1 -1.1104 0.797406 24.2637 6.4816
747 1 -1.1104 6.54672 26.8256 3.55428
736 1 -1.1104 3.365 26.9688 1.07774
745 1 -1.1104 6.14851 27.0207 0.751555
864 1 -1.1104 0.45674 21.1203 6.49768
870 1 -1.1104 3.86723 26.7904 6.52672
866 1 -1.1104 6.43049 21.273 6.27117
868 1 -1.1104 3.67884 23.6748 6.82633
867 1 -1.1104 6.35548 26.657 6.44391
863 1 -1.1104 6.3111 24.0043 6.59299
742 1 -1.1104 6.34973 23.9618 0.693364
748 2 2.2208 10.4788 22.5225 5.12982
750 1 -1.1104 11.8432 24.1398 0.618686
751 1 -1.1104 12.0911 24.1549 3.42753
752 1 -1.1104 11.8495 21.2902 0.796734
754 2 2.2208 10.455 25.2852 2.2057
755 1 -1.1104 12.0797 21.2511 3.74925
757 1 -1.1104 9.06501 23.9744 0.789856
758 2 2.2208 7.81818 22.5746 2.17742
760 1 -1.1104 9.20056 23.8072 3.6586
761 2 2.2208 7.51158 25.373 5.08261
762 1 -1.1104 9.04681 21.2402 0.82794
764 1 -1.1104 9.12272 21.0433 3.60551
898 1 -1.1104 9.00953 23.7585 6.3518
896 1 -1.1104 12.0349 21.2733 6.62986
899 1 -1.1104 9.24145 21.0271 6.33869
895 1 -1.1104 12.068 24.0897 6.27808
763 1 -1.1104 8.90422 26.5417 0.962981
765 1 -1.1104 9.24573 26.7011 3.85114
756 1 -1.1104 11.9708 26.9297 4.02565
753 1 -1.1104 11.8641 26.9397 0.985903
1033 2 2.2208 13.6934 42.4975 5.31117
900 1 -1.1104 9.35205 26.813 6.54316
766 2 2.2208 13.4163 22.5441 2.1848
865 1 -1.1104 0.817442 27.1792 6.64978
722 2 2.2208 5.12392 28.3191 4.67754
732 2 2.2208 2.03634 28.2231 2.44361
770 1 -1.1104 0.828643 29.7114 0.790964
773 1 -1.1104 0.860754 29.6059 3.81064
776 1 -1.1104 0.91955 32.4785 0.696386
777 2 2.2208 4.94916 31.236 2.23003
779 1 -1.1104 0.509476 32.7342 3.45446
781 1 -1.1104 3.85135 30.0513 0.755445
784 1 -1.1104 3.55701 29.6881 3.55936
786 2 2.2208 2.06499 31.2169 4.92389
788 1 -1.1104 3.54119 32.6662 0.968967
789 1 -1.1104 3.6916 32.7541 3.65423
921 1 -1.1104 3.45747 29.8824 6.26301
780 1 -1.1104 6.43139 32.6347 3.62348
915 1 -1.1104 0.496207 30.0036 6.44798
795 1 -1.1104 6.4489 32.6209 0.8481
793 1 -1.1104 6.64523 29.9551 0.864954
917 1 -1.1104 6.38884 29.7255 6.2192
919 1 -1.1104 1.16697 32.7506 6.18309
794 1 -1.1104 6.39972 29.7049 3.48923
749 2 2.2208 10.4255 28.2644 5.09919
759 2 2.2208 7.83137 28.3901 2.29063
797 1 -1.1104 12.2359 29.7529 0.835862
799 1 -1.1104 12.1984 29.8474 3.74703
801 1 -1.1104 11.9929 32.7048 0.920039
802 2 2.2208 10.7641 31.0773 2.15971
804 1 -1.1104 12.0156 32.5736 3.61012
805 1 -1.1104 9.43875 29.5389 0.970124
808 1 -1.1104 9.13749 29.5589 3.6128
810 2 2.2208 7.76062 31.1358 4.97943
812 1 -1.1104 9.34637 32.2085 0.959507
813 1 -1.1104 9.34764 32.5633 3.8873
954 1 -1.1104 9.08957 32.7215 6.43662
952 1 -1.1104 9.30005 29.8076 6.407
951 1 -1.1104 11.9292 32.8404 6.45076
1185 2 2.2208 10.8209 36.7196 13.518
767 2 2.2208 13.3398 28.1391 2.34592
769 2 2.2208 5.02388 34.2192 5.10146
771 1 -1.1104 0.500745 35.4399 0.682641
774 1 -1.1104 0.848481 35.4828 3.65136
778 2 2.2208 5.00086 36.818 2.31544
782 1 -1.1104 3.67395 35.565 0.987625
783 2 2.2208 2.13238 34.1321 2.16495
785 1 -1.1104 3.58969 35.4562 3.58449
787 2 2.2208 2.23326 36.8483 5.30036
815 2 2.2208 5.07724 39.83 5.20343
821 1 -1.1104 0.894182 38.0626 0.925916
826 1 -1.1104 0.954565 38.1421 3.65806
831 2 2.2208 2.44453 39.7062 2.43147
835 1 -1.1104 3.78678 38.317 0.94038