LAMMPS (29 Oct 2020)
OMP_NUM_THREADS environment is not set. Defaulting to 1 thread. (../comm.cpp:94)
  using 1 OpenMP thread(s) per MPI task
OMP_NUM_THREADS environment is not set. Defaulting to 1 thread. (../comm.cpp:94)
  using 1 OpenMP thread(s) per MPI task
Reading data file ...
  orthogonal box = (-0.43623692 -5.3736973 -0.43713075) to (27.776237 333.45370 27.777131)
  2 by 13 by 2 MPI processor grid
  reading atoms ...
  17700 atoms
  reading velocities ...
  17700 velocities
Finding 1-2 1-3 1-4 neighbors ...
  special bond factors lj:    0.0      0.0      0.0     
  special bond factors coul:  0.0      0.0      0.0     
     0 = max # of 1-2 neighbors
     0 = max # of 1-3 neighbors
     0 = max # of 1-4 neighbors
     1 = max # of special neighbors
  special bonds CPU = 0.003 seconds
  read_data CPU = 0.060 seconds
WARNING: 13 of 1000 force values in table Xe-Xe are inconsistent with -dE/dr.
  Should only be flagged at inflection points (../pair_table.cpp:461)
WARNING: 2 of 1000 force values in table Xe-O are inconsistent with -dE/dr.
  Should only be flagged at inflection points (../pair_table.cpp:461)
WARNING: 2 of 1000 force values in table Xe-Th are inconsistent with -dE/dr.
  Should only be flagged at inflection points (../pair_table.cpp:461)
Setting atom values ...
  11760 settings made for charge
Setting atom values ...
  5880 settings made for charge
Setting atom values ...
  60 settings made for charge
PPPM initialization ...
  using 12-bit tables for long-range coulomb (../kspace.cpp:328)
  G vector (1/distance) = 0.29848581
  grid = 40 240 40
  stencil order = 5
  estimated absolute RMS force accuracy = 0.00015861572
  estimated relative force accuracy = 1.1015252e-05
  using single precision MKL FFT
  3d grid and FFT values/proc = 18225 7600
Neighbor list info ...
  update every 1 steps, delay 0 steps, check yes
  max neighbors/atom: 2000, page size: 100000
  master list distance cutoff = 13
  ghost atom cutoff = 13
  binsize = 6.5, bins = 5 53 5
  3 neighbor lists, perpetual/occasional/extra = 3 0 0
  (1) pair coul/long, perpetual
      attributes: half, newton on
      pair build: half/bin/newton
      stencil: half/bin/3d/newton
      bin: standard
  (2) pair eam/alloy, perpetual, skip from (1)
      attributes: half, newton on
      pair build: skip
      stencil: none
      bin: none
  (3) pair table, perpetual, skip from (1)
      attributes: half, newton on
      pair build: skip
      stencil: none
      bin: none
Setting up Verlet run ...
  Unit style    : metal
  Current step  : 0
  Time step     : 0.001
Per MPI rank memory allocation (min/avg/max) = 9.210 | 9.883 | 10.03 Mbytes
Step Temp E_pair E_mol TotEng Press 
       0         1200   -229004.28            0   -226258.95    144.38545 
   50000    1199.3547   -229016.85            0   -226272.99    292.85716 
Loop time of 353.103 on 52 procs for 50000 steps with 17700 atoms

Performance: 12.234 ns/day, 1.962 hours/ns, 141.602 timesteps/s
99.8% CPU use with 52 MPI tasks x 1 OpenMP threads

MPI task timing breakdown:
Section |  min time  |  avg time  |  max time  |%varavg| %total
---------------------------------------------------------------
Pair    | 257.49     | 264.38     | 271.71     |  26.4 | 74.87
Bond    | 0.004086   | 0.0065676  | 0.0098696  |   1.4 |  0.00
Kspace  | 68.246     | 75.192     | 82.141     |  49.5 | 21.29
Neigh   | 3.2624     | 3.5068     | 3.7423     |   8.7 |  0.99
Comm    | 6.8974     | 7.6045     | 8.6745     |  15.2 |  2.15
Output  | 5.282e-05  | 5.746e-05  | 0.0002651  |   0.0 |  0.00
Modify  | 0.95336    | 1.7109     | 2.4065     |  40.7 |  0.48
Other   |            | 0.7005     |            |       |  0.20

Nlocal:        340.385 ave         368 max         318 min
Histogram: 2 8 7 4 7 7 9 5 1 2
Nghost:        5478.06 ave        5623 max        5317 min
Histogram: 4 4 3 7 6 4 7 6 7 4
Neighs:       104764.0 ave      115466 max       95114 min
Histogram: 8 5 3 4 5 3 13 8 1 2

Total # of neighbors = 5447721
Ave neighs/atom = 307.78085
Ave special neighs/atom = 0.0000000
Neighbor list builds = 1179
Dangerous builds = 0
11760 atoms in group oxygen
PPPM initialization ...
  using 12-bit tables for long-range coulomb (../kspace.cpp:328)
  G vector (1/distance) = 0.29848581
  grid = 40 240 40
  stencil order = 5
  estimated absolute RMS force accuracy = 0.00015861572
  estimated relative force accuracy = 1.1015252e-05
  using single precision MKL FFT
  3d grid and FFT values/proc = 18225 7600
Neighbor list info ...
  update every 1 steps, delay 0 steps, check yes
  max neighbors/atom: 2000, page size: 100000
  master list distance cutoff = 13
  ghost atom cutoff = 13
  binsize = 6.5, bins = 5 53 5
  3 neighbor lists, perpetual/occasional/extra = 3 0 0
  (1) pair coul/long, perpetual
      attributes: half, newton on
      pair build: half/bin/newton
      stencil: half/bin/3d/newton
      bin: standard
  (2) pair eam/alloy, perpetual, skip from (1)
      attributes: half, newton on
      pair build: skip
      stencil: none
      bin: none
  (3) pair table, perpetual, skip from (1)
      attributes: half, newton on
      pair build: skip
      stencil: none
      bin: none
Setting up Verlet run ...
  Unit style    : metal
  Current step  : 0
  Time step     : 0.001
Per MPI rank memory allocation (min/avg/max) = 9.450 | 10.11 | 10.28 Mbytes
Step f_2 Temp v_Tdiff v_deltaT 
       0            0    1199.3547            0            0 
  100000    1302.7891    1201.3338  0.048998535    568.86845 
  200000    2527.0257    1193.2464  0.057523335    667.84057 
  300000    3761.4454     1187.868  0.057430737    666.76553 
  400000    4996.3584    1196.4172  0.057646768    669.27363 
  500000    6215.2803    1187.7105  0.058138584    674.98356 
  600000    7447.2646    1190.7135  0.058336893    677.28591 
  700000    8662.3646    1192.9935   0.05912236    686.40511 
  800000    9891.5724    1200.8144  0.058160805    675.24154 
  900000    11108.049    1192.2993  0.059161559    686.86021 
 1000000    12330.393    1195.2153  0.059295435     688.4145 
Loop time of 7033.6 on 52 procs for 1000000 steps with 17700 atoms

Performance: 12.284 ns/day, 1.954 hours/ns, 142.175 timesteps/s
99.9% CPU use with 52 MPI tasks x 1 OpenMP threads

MPI task timing breakdown:
Section |  min time  |  avg time  |  max time  |%varavg| %total
---------------------------------------------------------------
Pair    | 5089.5     | 5250.5     | 5418.8     | 104.7 | 74.65
Bond    | 0.066102   | 0.13069    | 0.18786    |   6.8 |  0.00
Kspace  | 1348.8     | 1508.5     | 1659.5     | 190.8 | 21.45
Neigh   | 75.166     | 81.013     | 86.456     |  31.8 |  1.15
Comm    | 139.82     | 152.92     | 173.46     |  69.5 |  2.17
Output  | 0.0010401  | 0.0011102  | 0.0023611  |   0.5 |  0.00
Modify  | 5.7003     | 6.1934     | 6.8197     |  12.5 |  0.09
Other   |            | 34.33      |            |       |  0.49

Nlocal:        340.385 ave         369 max         317 min
Histogram: 3 5 5 5 11 12 6 2 2 1
Nghost:        5488.31 ave        5629 max        5349 min
Histogram: 4 0 12 10 2 0 5 13 2 4
Neighs:       104784.0 ave      115037 max       93252 min
Histogram: 3 4 3 4 3 9 14 7 4 1

Total # of neighbors = 5448788
Ave neighs/atom = 307.84113
Ave special neighs/atom = 0.0000000
Neighbor list builds = 27131
Dangerous builds = 0
Total wall time: 2:03:07
