LAMMPS (29 Oct 2020)
OMP_NUM_THREADS environment is not set. Defaulting to 1 thread. (../comm.cpp:94)
  using 1 OpenMP thread(s) per MPI task
OMP_NUM_THREADS environment is not set. Defaulting to 1 thread. (../comm.cpp:94)
  using 1 OpenMP thread(s) per MPI task
Reading data file ...
  orthogonal box = (-0.43009951 -5.4357557 -0.44315832) to (27.770100 333.51576 27.783158)
  2 by 13 by 2 MPI processor grid
  reading atoms ...
  17700 atoms
  reading velocities ...
  17700 velocities
Finding 1-2 1-3 1-4 neighbors ...
  special bond factors lj:    0.0      0.0      0.0     
  special bond factors coul:  0.0      0.0      0.0     
     0 = max # of 1-2 neighbors
     0 = max # of 1-3 neighbors
     0 = max # of 1-4 neighbors
     1 = max # of special neighbors
  special bonds CPU = 0.003 seconds
  read_data CPU = 0.062 seconds
WARNING: 13 of 1000 force values in table Xe-Xe are inconsistent with -dE/dr.
  Should only be flagged at inflection points (../pair_table.cpp:461)
WARNING: 2 of 1000 force values in table Xe-O are inconsistent with -dE/dr.
  Should only be flagged at inflection points (../pair_table.cpp:461)
WARNING: 2 of 1000 force values in table Xe-Th are inconsistent with -dE/dr.
  Should only be flagged at inflection points (../pair_table.cpp:461)
Setting atom values ...
  11760 settings made for charge
Setting atom values ...
  5880 settings made for charge
Setting atom values ...
  60 settings made for charge
PPPM initialization ...
  using 12-bit tables for long-range coulomb (../kspace.cpp:328)
  G vector (1/distance) = 0.29847591
  grid = 40 240 40
  stencil order = 5
  estimated absolute RMS force accuracy = 0.0001587121
  estimated relative force accuracy = 1.1021945e-05
  using single precision MKL FFT
  3d grid and FFT values/proc = 18225 7600
Neighbor list info ...
  update every 1 steps, delay 0 steps, check yes
  max neighbors/atom: 2000, page size: 100000
  master list distance cutoff = 13
  ghost atom cutoff = 13
  binsize = 6.5, bins = 5 53 5
  3 neighbor lists, perpetual/occasional/extra = 3 0 0
  (1) pair coul/long, perpetual
      attributes: half, newton on
      pair build: half/bin/newton
      stencil: half/bin/3d/newton
      bin: standard
  (2) pair eam/alloy, perpetual, skip from (1)
      attributes: half, newton on
      pair build: skip
      stencil: none
      bin: none
  (3) pair table, perpetual, skip from (1)
      attributes: half, newton on
      pair build: skip
      stencil: none
      bin: none
Setting up Verlet run ...
  Unit style    : metal
  Current step  : 0
  Time step     : 0.001
Per MPI rank memory allocation (min/avg/max) = 9.250 | 9.892 | 10.04 Mbytes
Step Temp E_pair E_mol TotEng Press 
       0         1200   -228954.22            0   -226208.89    855.95755 
   50000    1195.5489   -228956.02            0   -226220.87    416.52905 
Loop time of 350.36 on 52 procs for 50000 steps with 17700 atoms

Performance: 12.330 ns/day, 1.946 hours/ns, 142.710 timesteps/s
99.8% CPU use with 52 MPI tasks x 1 OpenMP threads

MPI task timing breakdown:
Section |  min time  |  avg time  |  max time  |%varavg| %total
---------------------------------------------------------------
Pair    | 252.73     | 261.02     | 271.17     |  24.8 | 74.50
Bond    | 0.0050927  | 0.006899   | 0.0099436  |   1.1 |  0.00
Kspace  | 65.963     | 75.629     | 83.436     |  44.2 | 21.59
Neigh   | 3.2953     | 3.5919     | 3.8602     |   6.3 |  1.03
Comm    | 7.0671     | 7.6231     | 8.6683     |  15.4 |  2.18
Output  | 6.2482e-05 | 6.7172e-05 | 0.00027537 |   0.0 |  0.00
Modify  | 0.98377    | 1.7946     | 2.7104     |  46.7 |  0.51
Other   |            | 0.6951     |            |       |  0.20

Nlocal:        340.385 ave         369 max         317 min
Histogram: 2 2 2 12 18 9 3 1 2 1
Nghost:        5475.69 ave        5657 max        5319 min
Histogram: 5 14 5 1 4 5 3 3 2 10
Neighs:       104774.0 ave      114865 max       90921 min
Histogram: 3 0 4 0 3 17 14 6 2 3

Total # of neighbors = 5448244
Ave neighs/atom = 307.81040
Ave special neighs/atom = 0.0000000
Neighbor list builds = 1208
Dangerous builds = 0
11760 atoms in group oxygen
PPPM initialization ...
  using 12-bit tables for long-range coulomb (../kspace.cpp:328)
  G vector (1/distance) = 0.29847591
  grid = 40 240 40
  stencil order = 5
  estimated absolute RMS force accuracy = 0.0001587121
  estimated relative force accuracy = 1.1021945e-05
  using single precision MKL FFT
  3d grid and FFT values/proc = 18225 7600
Neighbor list info ...
  update every 1 steps, delay 0 steps, check yes
  max neighbors/atom: 2000, page size: 100000
  master list distance cutoff = 13
  ghost atom cutoff = 13
  binsize = 6.5, bins = 5 53 5
  3 neighbor lists, perpetual/occasional/extra = 3 0 0
  (1) pair coul/long, perpetual
      attributes: half, newton on
      pair build: half/bin/newton
      stencil: half/bin/3d/newton
      bin: standard
  (2) pair eam/alloy, perpetual, skip from (1)
      attributes: half, newton on
      pair build: skip
      stencil: none
      bin: none
  (3) pair table, perpetual, skip from (1)
      attributes: half, newton on
      pair build: skip
      stencil: none
      bin: none
Setting up Verlet run ...
  Unit style    : metal
  Current step  : 0
  Time step     : 0.001
Per MPI rank memory allocation (min/avg/max) = 9.501 | 10.16 | 10.29 Mbytes
Step f_2 Temp v_Tdiff v_deltaT 
       0            0    1195.5489            0            0 
  100000    1293.4275    1191.1673  0.049436749    573.95606 
  200000    2525.0328    1189.7088  0.057219617    664.31444 
  300000     3759.317    1199.4673  0.058306401     676.9319 
  400000    4990.0056    1193.2633   0.06025187    699.51861 
  500000    6206.1337    1189.1153  0.058291673    676.76091 
  600000    7428.3042    1199.7635  0.058804654    682.71657 
  700000    8664.8737    1198.3266  0.057559446    668.25982 
  800000    9894.5322    1195.9564  0.059085214    685.97385 
  900000    11123.478    1194.8602  0.058892498    683.73643 
 1000000    12353.361     1206.285   0.05883076    683.01965 
Loop time of 7052.08 on 52 procs for 1000000 steps with 17700 atoms

Performance: 12.252 ns/day, 1.959 hours/ns, 141.802 timesteps/s
99.8% CPU use with 52 MPI tasks x 1 OpenMP threads

MPI task timing breakdown:
Section |  min time  |  avg time  |  max time  |%varavg| %total
---------------------------------------------------------------
Pair    | 5088.1     | 5271.8     | 5447.2     | 109.9 | 74.75
Bond    | 0.089944   | 0.13653    | 0.17773    |   5.0 |  0.00
Kspace  | 1338.8     | 1503.2     | 1675.1     | 192.0 | 21.32
Neigh   | 73.38      | 81.569     | 87.887     |  43.4 |  1.16
Comm    | 140.93     | 154.01     | 184.04     |  82.3 |  2.18
Output  | 0.0010653  | 0.001123   | 0.0024423  |   0.6 |  0.00
Modify  | 5.5985     | 6.164      | 6.7704     |  11.2 |  0.09
Other   |            | 35.18      |            |       |  0.50

Nlocal:        340.385 ave         365 max         310 min
Histogram: 1 1 5 8 5 7 13 5 4 3
Nghost:        5451.73 ave        5666 max        5290 min
Histogram: 5 12 7 2 4 6 7 1 0 8
Neighs:       104777.0 ave      113512 max       88337 min
Histogram: 1 2 3 1 6 3 10 9 11 6

Total # of neighbors = 5448428
Ave neighs/atom = 307.82079
Ave special neighs/atom = 0.0000000
Neighbor list builds = 27350
Dangerous builds = 0
Total wall time: 2:03:23
