ITEM: TIMESTEP
50000
ITEM: NUMBER OF ATOMS
17640
ITEM: BOX BOUNDS pp pp pp
-3.6626046958690495e-01 2.7706260469586741e+01
-4.2722486188529709e+00 3.3235224861884961e+02
-3.6584115960628177e-01 2.7705841159607449e+01
ITEM: ATOMS id type q x y z
1 2 2.2208 5.3439 1.26282 5.26434
2 1 -1.1104 1.26092 -2.90803 1.26403
3 1 -1.1104 1.02979 2.76306 1.12231
6 1 -1.1104 0.968806 -2.86821 4.02598
7 1 -1.1104 0.917909 2.4646 4.00579
10 1 -1.1104 1.12343 -0.141647 1.01269
12 2 2.2208 5.30245 -1.44203 2.40677
13 2 2.2208 5.29599 3.97244 2.50638
14 1 -1.1104 1.00381 -0.126627 3.8685
16 1 -1.1104 3.86263 -3.14134 1.07484
17 1 -1.1104 3.90706 2.67375 1.07128
18 2 2.2208 2.42617 1.25282 2.49486
19 1 -1.1104 3.90238 -2.88793 3.93196
20 1 -1.1104 3.82406 2.69404 3.86381
21 2 2.2208 2.52235 -1.44049 5.23734
22 2 2.2208 2.44982 4.03385 5.2311
23 1 -1.1104 3.81631 -0.213735 1.04087
24 1 -1.1104 3.8982 -0.0543284 3.82278
9 1 -1.1104 6.79974 2.53878 3.92024
8 1 -1.1104 6.69363 -2.92568 4.04967
544 2 2.2208 5.27173 1.23411 -0.320173
5 1 -1.1104 6.70025 2.57042 1.22153
4 1 -1.1104 6.7017 -3.05648 1.24673
11 1 -1.1104 6.70269 -0.284734 1.04675
8455 2 2.2208 7.9719 -4.20079 8.15717
664 2 2.2208 5.25697 18.0982 -0.233147
233 2 2.2208 7.92597 15.3889 10.9112
312 1 -1.1104 9.47625 13.8394 9.63953
454 2 2.2208 10.7693 9.70585 13.7335
201 1 -1.1104 9.57782 19.6725 12.3692
15 1 -1.1104 6.80399 -0.185502 4.00776
546 2 2.2208 2.49774 4.1606 -0.338493
31 2 2.2208 10.9181 1.4297 5.20832
32 1 -1.1104 12.2179 -3.00133 0.979373
33 1 -1.1104 12.2464 2.73572 1.14915
34 1 -1.1104 12.2436 -2.99695 3.96534
35 1 -1.1104 12.3101 2.83267 3.92135
36 1 -1.1104 12.4354 -0.0174044 1.11876
37 2 2.2208 10.7805 -1.59071 2.49191
38 2 2.2208 10.9113 4.09255 2.44158
39 1 -1.1104 12.3934 -0.011918 3.92133
40 1 -1.1104 9.4759 -2.90018 1.14266
41 1 -1.1104 9.34 2.74078 1.13961
42 2 2.2208 8.11924 1.23668 2.51096
43 1 -1.1104 9.50313 -2.96698 3.87734
44 1 -1.1104 9.5787 2.8337 4.01589
45 2 2.2208 8.09738 -1.56606 5.37438
46 2 2.2208 8.06449 4.1008 5.32083
47 1 -1.1104 9.44124 -0.079528 1.12945
48 1 -1.1104 9.61892 -0.0824206 3.88826
636 2 2.2208 10.8524 12.5478 -0.333674
25 2 2.2208 -0.26178 -1.50902 2.44702
9150 2 2.2208 -0.311029 6.89052 5.3107
202 2 2.2208 13.5248 15.222 5.32266
581 2 2.2208 13.6415 -1.47433 -0.314086
203 2 2.2208 13.6819 20.8578 5.21821
8453 2 2.2208 5.26134 -4.20397 11.0231
353 2 2.2208 13.6528 15.2996 -0.379002
145 1 -1.1104 12.3212 19.6065 6.76139
547 2 2.2208 8.04003 15.3221 -0.338591
54 2 2.2208 5.30033 6.81731 5.31555
55 2 2.2208 5.28676 12.512 5.40764
56 1 -1.1104 1.02663 8.32949 0.996702
58 1 -1.1104 0.981271 8.35822 3.78241
60 1 -1.1104 1.09145 5.66929 0.992607
61 1 -1.1104 1.01271 11.2078 1.15754
66 2 2.2208 5.26336 9.73407 2.45768
67 1 -1.1104 0.989772 5.34815 3.9263
68 1 -1.1104 1.0052 11.1907 4.02275
71 1 -1.1104 3.72444 8.33903 1.11375
72 2 2.2208 2.43826 6.97517 2.57804
73 2 2.2208 2.42175 12.627 2.64264
74 1 -1.1104 3.84121 8.51748 3.821
75 2 2.2208 2.50255 9.83168 5.38892
76 1 -1.1104 3.90534 5.46963 1.2263
77 1 -1.1104 3.89701 11.1557 1.34847
79 1 -1.1104 3.7398 5.48864 3.93716
80 1 -1.1104 3.78565 11.2866 4.30246
59 1 -1.1104 6.64275 8.3018 3.83014
63 1 -1.1104 6.75052 5.49755 1.03047
69 1 -1.1104 6.56556 5.4045 3.87942
62 1 -1.1104 1.05142 11.0736 6.73912
70 1 -1.1104 6.47611 11.0352 3.94883
64 1 -1.1104 6.70286 11.2125 1.07212
27 2 2.2208 13.5046 18.1108 8.25834
17273 2 2.2208 13.6041 -4.33452 2.64072
238 1 -1.1104 3.91596 8.46474 6.65491
315 1 -1.1104 9.29732 16.7661 12.3291
9052 2 2.2208 13.6965 6.9172 2.53243
610 2 2.2208 2.47214 9.78596 -0.182333
57 1 -1.1104 6.64372 8.38201 1.03924
84 2 2.2208 10.8204 6.95761 5.24859
85 2 2.2208 11.0114 12.4776 5.38388
86 1 -1.1104 12.1509 8.35927 1.00215
87 1 -1.1104 12.2615 8.32813 3.87701
88 1 -1.1104 12.4 5.50973 1.07536
89 1 -1.1104 12.2269 11.1161 1.13775
91 2 2.2208 10.7763 9.67933 2.50326
92 1 -1.1104 12.3553 5.56462 3.94561
93 1 -1.1104 12.2489 11.0604 3.89156
94 1 -1.1104 9.33099 8.32008 1.08907
95 2 2.2208 8.07112 6.91806 2.42367
96 2 2.2208 8.01711 12.5372 2.54746
97 1 -1.1104 9.43605 8.42301 3.95808
98 2 2.2208 8.04581 9.75588 5.30212
99 1 -1.1104 9.58232 5.57818 1.18644
100 1 -1.1104 9.49701 11.1276 1.07895
102 1 -1.1104 9.48053 5.59661 3.86337
103 1 -1.1104 9.32514 11.07 3.78853
316 2 2.2208 7.94282 20.9994 10.9122
9086 2 2.2208 -0.321648 9.79586 8.17654
311 2 2.2208 7.95242 18.0808 8.11528
200 1 -1.1104 9.52487 14.0333 12.4035
101 1 -1.1104 9.54438 11.045 6.6709
232 1 -1.1104 9.33489 19.4293 9.58141
106 2 2.2208 5.23806 18.1622 5.35147
107 1 -1.1104 1.17373 13.9796 1.07052
109 1 -1.1104 0.86524 19.5377 1.05698
113 1 -1.1104 1.02411 14.0468 3.86826
114 1 -1.1104 1.04325 19.5471 3.84431
116 1 -1.1104 1.05261 16.8879 1.28327
119 2 2.2208 5.29057 15.4097 2.63715
120 2 2.2208 5.26391 21.046 2.44487
121 1 -1.1104 1.01998 16.8051 4.07597
123 1 -1.1104 3.93224 14.1074 1.17679
125 1 -1.1104 3.79739 19.6665 1.16808
127 2 2.2208 2.44039 18.3054 2.576
128 1 -1.1104 3.85968 14.0442 3.93512
129 1 -1.1104 3.86002 19.5596 3.89121
130 2 2.2208 2.36465 15.4263 5.36098
131 2 2.2208 2.46244 21.0411 5.26077
132 1 -1.1104 3.84337 16.8395 1.0959
134 1 -1.1104 3.76502 16.8333 3.99887
126 1 -1.1104 3.81707 19.673 6.72509
8450 2 2.2208 7.95112 -4.30284 2.64206
50 1 -1.1104 12.2503 19.6716 12.346
115 1 -1.1104 6.74609 13.8544 3.87415
110 1 -1.1104 6.68616 13.9886 1.23795
665 2 2.2208 2.62605 15.404 -0.309905
138 1 -1.1104 6.65579 19.4996 1.21861
112 1 -1.1104 6.7753 19.6239 6.71041
140 1 -1.1104 6.66448 16.8533 1.12185
139 1 -1.1104 6.7545 19.5592 4.02625
122 1 -1.1104 6.64294 16.6804 4.00495
141 2 2.2208 10.9394 18.231 5.33659
142 1 -1.1104 12.2473 14.0673 1.06971
144 1 -1.1104 12.1314 19.5617 1.08525
146 1 -1.1104 12.1876 13.8242 3.7898
147 1 -1.1104 12.3595 19.6007 3.94861
148 1 -1.1104 12.2572 16.8236 1.27465
150 2 2.2208 10.8017 15.2371 2.42377
151 2 2.2208 10.8358 20.9065 2.52093
152 1 -1.1104 12.1819 16.6949 4.07547
153 1 -1.1104 9.50754 13.9172 1.0586
155 1 -1.1104 9.31507 19.6534 1.28306
157 2 2.2208 8.00153 18.1437 2.64076
158 1 -1.1104 9.54399 13.9127 3.95471
159 1 -1.1104 9.56276 19.6035 4.09728
160 2 2.2208 8.14968 15.2379 5.30726
161 2 2.2208 8.20397 20.9908 5.35275
162 1 -1.1104 9.42027 16.7385 1.00273
164 1 -1.1104 9.45953 16.6568 3.79882
163 1 -1.1104 9.4712 16.7298 6.67111
111 1 -1.1104 6.68165 13.9701 6.79574
118 1 -1.1104 6.62067 16.7154 6.79182
154 1 -1.1104 9.5193 13.7606 6.72108
49 1 -1.1104 12.322 14.0987 12.4662
289 1 -1.1104 6.60845 16.7599 9.60889
173 1 -1.1104 3.76756 2.65529 6.70897
167 1 -1.1104 1.06007 2.89036 6.67214
174 1 -1.1104 3.81176 -0.112844 6.57967
170 1 -1.1104 0.952563 -0.0192944 6.64592
166 1 -1.1104 1.05176 -2.76849 6.7904
169 1 -1.1104 6.60092 2.80309 6.61305
230 2 2.2208 13.4686 -1.48282 11.0572
172 1 -1.1104 3.9076 -2.9204 6.70554
168 1 -1.1104 6.72768 -2.76867 6.78672
175 2 2.2208 5.14641 1.38315 10.9109
176 1 -1.1104 0.930392 -2.80521 12.306
177 1 -1.1104 0.985678 2.64464 12.3303
180 1 -1.1104 1.06915 -2.84747 9.37907
181 1 -1.1104 0.967178 2.80298 9.52209
184 1 -1.1104 0.880814 -0.0409296 12.2301
186 2 2.2208 5.04319 -1.5625 8.20055
187 2 2.2208 5.11936 4.08091 8.0946
188 1 -1.1104 0.976998 0.0019103 9.37707
190 1 -1.1104 3.60308 -2.96127 12.4069
191 1 -1.1104 3.83191 2.74872 12.3119
192 2 2.2208 2.35793 1.33979 8.01428
193 1 -1.1104 3.76904 -2.96132 9.62535
194 1 -1.1104 3.65336 2.65645 9.6623
195 2 2.2208 2.34695 -1.52623 10.8461
196 2 2.2208 2.45089 4.19864 10.9564
197 1 -1.1104 3.74778 -0.117779 12.3214
198 1 -1.1104 3.77206 -0.171081 9.40383
182 1 -1.1104 6.5552 -2.75912 9.47268
185 1 -1.1104 6.61285 -0.0489695 12.35
183 1 -1.1104 6.49786 2.93982 9.5052
179 1 -1.1104 6.53059 2.74104 12.3478
171 1 -1.1104 6.44858 -0.257101 6.66888
189 1 -1.1104 6.68844 -0.0795589 9.58123
178 1 -1.1104 6.52729 -2.84221 12.4167
30 2 2.2208 10.8582 18.2651 11.0021
209 1 -1.1104 9.35195 2.72534 6.81426
205 1 -1.1104 12.1331 -2.83667 6.7723
210 1 -1.1104 9.34399 -0.143298 6.62169
137 2 2.2208 -0.454333 18.194 5.2809
611 2 2.2208 5.27375 12.5265 -0.222846
105 2 2.2208 10.8567 15.2939 8.22864
314 1 -1.1104 9.20026 16.6016 9.34472
208 1 -1.1104 9.48863 -2.95182 6.73998
206 1 -1.1104 12.1035 2.64295 6.7574
207 1 -1.1104 12.1653 -0.0273988 6.65346
211 2 2.2208 10.7706 1.41857 10.971
212 1 -1.1104 12.2308 -2.96367 12.3732
213 1 -1.1104 12.2247 2.72448 12.3894
214 1 -1.1104 12.2417 -2.84202 9.53639
215 1 -1.1104 12.2854 2.79957 9.56659
216 1 -1.1104 12.2779 0.0459832 12.3616
217 2 2.2208 10.7274 -1.47189 8.01058
218 2 2.2208 10.7999 4.16416 8.09814
219 1 -1.1104 12.2963 0.0386614 9.66648
220 1 -1.1104 9.44851 -2.84137 12.2844
221 1 -1.1104 9.38221 2.77301 12.2627
222 2 2.2208 8.03255 1.36425 8.15673
223 1 -1.1104 9.44164 -2.81774 9.49676
224 1 -1.1104 9.44122 2.60338 9.49617
225 2 2.2208 8.04511 -1.34962 10.9385
226 2 2.2208 8.06229 4.19811 10.9949
227 1 -1.1104 9.42329 -0.0103899 12.3092
228 1 -1.1104 9.41291 -0.100079 9.52644
136 2 2.2208 10.8471 21.016 8.17004
78 1 -1.1104 3.8074 11.1454 6.95791
237 1 -1.1104 6.56413 5.54355 6.63887
236 1 -1.1104 1.18088 5.55368 6.8051
234 1 -1.1104 1.11997 8.27039 6.67823
239 1 -1.1104 3.89648 5.43664 6.64961
240 2 2.2208 5.32071 7.04211 10.8554
241 2 2.2208 5.20458 12.464 10.9096
242 1 -1.1104 1.04688 8.42806 12.345
244 1 -1.1104 0.96349 8.36493 9.56596
246 1 -1.1104 1.0438 5.55225 12.2446
247 1 -1.1104 0.904619 11.1347 12.2715
250 2 2.2208 5.21695 9.67429 8.18552
251 1 -1.1104 1.08081 5.6305 9.7202
252 1 -1.1104 1.01747 11.0723 9.53398
255 1 -1.1104 3.82225 8.42767 12.4103
256 2 2.2208 2.42837 6.97099 8.19755
257 2 2.2208 2.3097 12.5655 8.06111
258 1 -1.1104 3.84419 8.25549 9.51901
259 2 2.2208 2.42216 9.73383 10.9527
260 1 -1.1104 3.83339 5.56485 12.3204
261 1 -1.1104 3.80015 11.1841 12.2757
262 1 -1.1104 3.85688 5.43263 9.49831
263 1 -1.1104 3.85499 11.0374 9.5246
243 1 -1.1104 6.53592 8.43401 12.345
245 1 -1.1104 6.58428 8.4699 9.54135
253 1 -1.1104 6.68996 5.77096 9.55901
149 1 -1.1104 12.1726 16.7214 6.71702
265 1 -1.1104 12.3468 8.2944 6.54148
90 1 -1.1104 12.2345 11.139 6.79301
267 1 -1.1104 9.43151 8.28268 6.67571
65 1 -1.1104 6.77076 11.315 6.71574
235 1 -1.1104 6.64061 8.41688 6.64816
248 1 -1.1104 6.70595 5.46794 12.5325
269 1 -1.1104 9.46132 5.55927 6.6891
249 1 -1.1104 6.66173 11.2074 12.2948
266 1 -1.1104 12.2324 5.42431 6.66488
254 1 -1.1104 6.76015 11.3046 9.60671
264 1 -1.1104 9.52291 11.084 9.56145
268 1 -1.1104 9.40618 5.47062 9.5455
270 1 -1.1104 9.45934 11.1467 12.2874
271 1 -1.1104 9.46043 5.70197 12.3838
272 2 2.2208 8.07757 9.70064 10.9609
273 1 -1.1104 9.61099 8.18568 9.45406
274 2 2.2208 8.11235 12.5267 8.24547
275 2 2.2208 8.18092 7.00953 8.09345
276 2 2.2208 10.9363 6.92775 10.9713
277 2 2.2208 10.9042 12.5636 10.981
278 1 -1.1104 12.1057 8.22185 12.4365
279 1 -1.1104 12.3615 8.34885 9.48621
280 1 -1.1104 12.2853 5.48216 12.3265
281 1 -1.1104 12.2234 11.2799 12.2286
282 2 2.2208 10.8743 9.81771 8.18189
283 1 -1.1104 12.1925 5.54798 9.48061
284 1 -1.1104 12.2878 11.1739 9.48734
285 1 -1.1104 9.33928 8.41844 12.3552
53 1 -1.1104 12.2696 13.9078 9.69404
156 1 -1.1104 9.48812 19.5879 6.7971
552 2 2.2208 7.93707 20.9911 -0.284909
133 1 -1.1104 3.87714 16.7589 6.6548
124 1 -1.1104 3.92926 13.9675 6.67297
302 1 -1.1104 1.05679 19.5594 6.67209
117 1 -1.1104 1.12168 16.689 6.80691
108 1 -1.1104 1.17104 14.0022 6.57936
288 1 -1.1104 6.53448 19.6007 9.56022
297 1 -1.1104 6.64657 13.8276 12.2458
286 1 -1.1104 3.79878 19.4661 12.5038
287 1 -1.1104 3.67098 14.0361 12.3966
291 1 -1.1104 1.04087 19.6346 9.50627
292 1 -1.1104 0.927705 16.745 9.58273
293 2 2.2208 5.23121 21.0065 8.1314
294 1 -1.1104 0.987447 13.9128 9.41809
295 2 2.2208 5.24215 15.385 8.17228
298 1 -1.1104 0.970993 19.5137 12.2037
299 1 -1.1104 1.06711 14.0776 12.3479
300 2 2.2208 5.07798 18.1918 10.7937
301 1 -1.1104 3.69906 19.4583 9.53659
303 2 2.2208 2.4708 18.1098 7.93173
304 1 -1.1104 3.90667 16.6687 9.49146
305 1 -1.1104 3.62781 13.8639 9.59517
307 1 -1.1104 0.970031 16.6696 12.3225
308 1 -1.1104 3.67198 16.7845 12.454
309 2 2.2208 2.30675 21.0052 10.9821
310 2 2.2208 2.48538 15.3641 11.0241
290 1 -1.1104 6.45134 13.984 9.44495
306 1 -1.1104 6.55907 16.6482 12.3552
296 1 -1.1104 6.62811 19.5338 12.2339
143 1 -1.1104 12.27 13.9013 6.68797
81 1 -1.1104 12.1296 19.611 9.50923
663 2 2.2208 2.36271 20.9184 -0.28522
199 1 -1.1104 12.0684 16.7924 9.60073
82 1 -1.1104 12.2681 16.9728 12.3936
358 2 2.2208 2.38198 1.36545 13.6066
612 2 2.2208 -0.214266 12.5067 -0.274855
355 2 2.2208 -0.41482 -1.47081 13.593
518 2 2.2208 7.93314 18.1402 13.6762
574 2 2.2208 10.9077 1.28003 -0.1616
490 2 2.2208 5.19759 20.9875 13.6769
576 2 2.2208 8.02863 4.06728 -0.166822
317 2 2.2208 5.16307 1.27063 16.5348
318 1 -1.1104 0.942968 -2.88542 17.814
319 1 -1.1104 0.948238 2.62119 17.8738
322 1 -1.1104 0.944953 -2.94799 14.946
324 1 -1.1104 1.12299 2.83226 15.0442
330 1 -1.1104 1.10265 -0.0646226 17.8334
332 2 2.2208 5.22265 -1.5533 19.4067
333 2 2.2208 5.2407 4.04634 19.4457
334 1 -1.1104 1.04359 -0.0703119 15.1014
338 1 -1.1104 3.84983 -2.889 17.9583
339 1 -1.1104 3.77298 2.75707 17.9734
340 2 2.2208 2.48616 1.29169 19.342
341 1 -1.1104 3.75809 -2.79052 15.1292
343 1 -1.1104 3.83791 2.68138 15.1479
345 2 2.2208 2.3885 -1.49659 16.5794
346 2 2.2208 2.52677 4.21898 16.5194
347 1 -1.1104 4.06022 -0.0611321 17.9739
348 1 -1.1104 3.86419 -0.0792199 15.152
321 1 -1.1104 6.57493 2.66581 17.968
336 1 -1.1104 6.72691 -0.0419165 15.2077
326 1 -1.1104 6.70567 -2.86117 15.1876
331 1 -1.1104 6.84611 -0.297696 18.0358
320 1 -1.1104 6.79927 -3.09271 17.8888
328 1 -1.1104 6.59058 2.70517 15.1564
455 2 2.2208 7.93771 12.5057 13.7725
352 2 2.2208 -0.354724 15.3215 19.3251
357 2 2.2208 5.13575 -1.48486 13.7083
8523 2 2.2208 8.02856 -4.21853 25.0515
360 2 2.2208 10.9196 1.45362 16.5276
361 1 -1.1104 12.2874 -2.89803 17.8474
362 1 -1.1104 12.2746 2.76316 17.9201
363 1 -1.1104 12.1391 -2.83068 15.1147
365 1 -1.1104 12.3313 2.89533 15.0183
367 1 -1.1104 12.3004 0.0226847 17.9748
368 2 2.2208 10.8737 -1.32715 19.2786
369 2 2.2208 10.8868 4.14877 19.4383
370 1 -1.1104 12.3999 0.145341 15.1534
372 1 -1.1104 9.59078 -2.84868 17.9243
373 1 -1.1104 9.48396 2.88812 17.9984
374 2 2.2208 8.03782 1.32056 19.4588
375 1 -1.1104 9.53942 -2.91009 15.1219
377 1 -1.1104 9.21715 2.86988 14.966
379 2 2.2208 8.05667 -1.54396 16.4997
380 2 2.2208 8.01917 4.15298 16.5671
381 1 -1.1104 9.54347 0.0343771 17.8016
382 1 -1.1104 9.41749 0.0547763 15.2466
8837 2 2.2208 2.42989 -4.28914 25.0197
549 2 2.2208 -0.240886 12.4732 16.5338
555 2 2.2208 -0.312024 4.13414 24.9502
391 2 2.2208 10.9259 -1.27856 13.7078
614 2 2.2208 -0.211413 12.5456 22.1188
390 2 2.2208 7.98529 1.32154 13.8127
9366 2 2.2208 -0.315162 18.1467 16.5592
392 2 2.2208 10.8472 4.20501 13.7571
669 1 -1.1104 12.0787 19.5534 23.5525
376 1 -1.1104 9.39131 -2.64428 20.6408
371 1 -1.1104 12.1473 -0.0789651 20.7491
674 1 -1.1104 9.35661 19.6151 26.3459
517 2 2.2208 10.9084 15.4022 13.7748
684 1 -1.1104 12.1734 19.5209 26.3293
8831 2 2.2208 10.8181 -4.17608 16.5996
393 2 2.2208 5.3148 7.008 16.5468
394 2 2.2208 5.12597 12.6588 16.503
395 1 -1.1104 1.0407 8.28711 17.9209
397 1 -1.1104 1.07669 8.37325 15.1265
401 1 -1.1104 0.982198 5.4474 18.0107
402 1 -1.1104 1.0874 11.0557 18.0023
405 2 2.2208 5.33576 9.80692 19.3131
406 1 -1.1104 1.16898 5.65623 15.2046
408 1 -1.1104 1.09038 11.1638 15.1307
414 1 -1.1104 3.99072 8.24857 17.9121
415 2 2.2208 2.51584 6.91876 19.2883
416 2 2.2208 2.58628 12.4978 19.3518
417 1 -1.1104 3.90719 8.45482 15.1956
419 2 2.2208 2.43431 9.71682 16.5862
420 1 -1.1104 3.90864 5.54526 17.9262
421 1 -1.1104 3.88556 11.0403 17.8814
422 1 -1.1104 3.92708 5.54326 15.1311
424 1 -1.1104 3.9554 11.2507 15.0282
412 1 -1.1104 6.71103 11.0571 15.0007
399 1 -1.1104 6.60088 8.36642 15.2824
404 1 -1.1104 6.63086 11.2465 17.8595
410 1 -1.1104 6.60086 5.46063 15.15
403 1 -1.1104 6.73901 5.50416 18.0685
398 1 -1.1104 1.02463 8.16053 20.5007
413 1 -1.1104 6.69057 11.3092 20.7381
8827 2 2.2208 5.17676 -4.25658 16.4527
426 2 2.2208 2.49871 6.97909 13.7455
9177 2 2.2208 -0.372711 18.1738 22.1071
396 1 -1.1104 6.80195 8.3059 17.9948
429 2 2.2208 10.8943 6.93646 16.477
430 2 2.2208 10.9643 12.5612 16.5661
431 1 -1.1104 12.2762 8.4212 17.9328
432 1 -1.1104 12.306 8.35059 15.168
434 1 -1.1104 12.3093 5.55363 17.8952
435 1 -1.1104 12.0969 11.2233 18.0344
436 2 2.2208 10.8603 9.67563 19.3635
437 1 -1.1104 12.2264 5.63608 15.1142
439 1 -1.1104 12.29 11.0684 15.1663
441 1 -1.1104 9.56855 8.38748 17.8657
442 2 2.2208 8.13917 6.95212 19.3491
443 2 2.2208 8.05885 12.5913 19.2844
444 1 -1.1104 9.42964 8.27929 15.2562
446 2 2.2208 8.21092 9.7954 16.5893
447 1 -1.1104 9.64577 5.59226 17.9148
448 1 -1.1104 9.43302 11.1928 17.8823
449 1 -1.1104 9.38582 5.53895 15.2634
451 1 -1.1104 9.37465 11.2403 15.091
452 1 -1.1104 9.63257 11.0941 20.6915
450 1 -1.1104 9.56798 5.64272 20.8037
359 2 2.2208 5.18797 4.14211 13.7223
400 1 -1.1104 6.71294 8.50777 20.6493
428 2 2.2208 2.32461 12.4654 13.6145
440 1 -1.1104 12.223 11.0953 20.7071
666 2 2.2208 -0.241503 15.3087 24.9197
350 2 2.2208 -0.361595 6.96922 22.0685
510 1 -1.1104 9.39236 19.6122 20.6937
8828 2 2.2208 2.28423 -4.16551 19.2414
427 2 2.2208 5.22535 9.84491 13.7449
456 2 2.2208 5.20724 18.0569 16.5028
457 1 -1.1104 1.17846 13.8931 17.946
458 1 -1.1104 1.11002 19.4767 18.0593
461 1 -1.1104 0.952863 13.8622 15.0722
463 1 -1.1104 0.892815 19.5518 15.0421
469 1 -1.1104 1.05764 16.7548 17.9408
471 2 2.2208 5.2752 15.3327 19.3096
472 2 2.2208 5.16533 21.0398 19.3868
473 1 -1.1104 1.08572 16.6973 15.1127
477 1 -1.1104 3.92212 13.9767 18.0117
478 1 -1.1104 3.72653 19.4655 17.8451
479 2 2.2208 2.5184 18.1004 19.4187
480 1 -1.1104 3.80336 14.0437 15.224
482 1 -1.1104 3.89664 19.6117 15.1549
484 2 2.2208 2.4337 15.3883 16.6549
485 2 2.2208 2.41941 21.0116 16.5968
486 1 -1.1104 3.75527 16.6203 18.1702
487 1 -1.1104 3.96567 16.7215 15.3046
465 1 -1.1104 6.57492 13.946 15.1421
475 1 -1.1104 6.66757 16.7753 15.2387
460 1 -1.1104 6.49809 19.4387 18.0128
459 1 -1.1104 6.59184 14.0198 17.8547
464 1 -1.1104 1.0107 19.6168 20.9024
483 1 -1.1104 3.82292 19.5119 20.7657
677 2 2.2208 8.07378 18.196 24.8912
671 1 -1.1104 9.47173 16.7813 23.3514
676 1 -1.1104 6.6482 19.5457 26.4086
650 1 -1.1104 6.69516 13.9482 23.4577
579 2 2.2208 13.6918 6.93377 13.7484
503 1 -1.1104 12.2544 16.8853 20.6963
683 1 -1.1104 12.2355 16.7506 23.5655
496 1 -1.1104 12.2217 14.0147 20.7708
467 1 -1.1104 6.61187 19.5051 15.192
470 1 -1.1104 6.68143 16.7483 17.8792
492 2 2.2208 10.7327 18.2048 16.459
493 1 -1.1104 12.3159 14.0139 18.0485
494 1 -1.1104 12.1854 19.4259 17.8947
495 1 -1.1104 12.3039 14.064 15.2983
497 1 -1.1104 12.1522 19.6972 15.1294
499 1 -1.1104 12.3123 16.7861 17.8033
500 2 2.2208 10.8572 15.3499 19.2298
501 2 2.2208 10.8298 20.9763 19.3522
502 1 -1.1104 12.219 16.8359 15.1941
504 1 -1.1104 9.42033 13.8679 17.9363
505 1 -1.1104 9.36802 19.5751 17.9056
506 2 2.2208 8.01742 18.0978 19.3511
507 1 -1.1104 9.25733 14.0308 15.0412
509 1 -1.1104 9.42659 19.5288 15.1427
511 2 2.2208 8.08096 15.3955 16.4946
512 2 2.2208 7.96328 20.8774 16.5045
513 1 -1.1104 9.34822 16.6987 17.9209
514 1 -1.1104 9.57785 16.6979 15.1265
516 2 2.2208 10.7904 21.0089 13.685
658 1 -1.1104 6.68559 16.8262 23.5131
466 1 -1.1104 6.63895 14.0137 20.7442
508 1 -1.1104 9.3984 13.8865 20.6948
515 1 -1.1104 9.55769 16.805 20.587
344 1 -1.1104 3.82781 2.78941 20.8569
323 1 -1.1104 1.22864 -2.79874 20.6964
325 1 -1.1104 0.908561 2.88801 20.917
329 1 -1.1104 6.71768 2.74915 20.8363
337 1 -1.1104 6.4904 0.0219265 20.7609
519 2 2.2208 13.6736 18.2599 13.9149
335 1 -1.1104 1.15216 0.098108 20.8382
349 1 -1.1104 3.91053 -0.0852843 20.6496
342 1 -1.1104 3.84826 -3.06339 20.8431
520 2 2.2208 5.22624 1.37958 22.3344
521 1 -1.1104 1.06847 -2.9363 23.6696
522 1 -1.1104 1.07897 2.80691 23.7053
525 1 -1.1104 1.11873 -2.87437 26.5266
526 1 -1.1104 1.1633 2.67153 26.4802
529 1 -1.1104 1.02926 0.0255754 23.6471
531 2 2.2208 5.30088 -1.52207 24.9778
532 2 2.2208 5.20544 4.10852 24.9752
533 1 -1.1104 1.13895 -0.187966 26.3508
535 1 -1.1104 3.85651 -2.93967 23.7364
536 1 -1.1104 3.89268 2.67108 23.7698
537 2 2.2208 2.41783 1.35102 25.0632
538 1 -1.1104 3.85453 -2.82102 26.4155
539 1 -1.1104 3.8567 2.61944 26.3661
540 2 2.2208 2.36855 -1.45764 22.2633
541 2 2.2208 2.48981 4.10466 22.1582
542 1 -1.1104 3.80075 -0.0931437 23.4672
543 1 -1.1104 3.9094 0.00529007 26.259
530 1 -1.1104 6.5815 -0.0274942 23.593
528 1 -1.1104 6.6322 2.87995 26.5231
527 1 -1.1104 6.65494 -2.76531 26.4415
9369 2 2.2208 13.6524 18.1446 25.1882
524 1 -1.1104 6.71919 2.79821 23.6208
476 1 -1.1104 6.68371 16.8531 20.7496
672 2 2.2208 7.97131 21.0392 22.2372
685 1 -1.1104 12.226 13.9043 26.3222
364 1 -1.1104 12.3216 -2.87759 20.6494
366 1 -1.1104 12.3092 2.67757 20.8486
378 1 -1.1104 9.51087 2.81589 20.7961
682 2 2.2208 10.7745 15.393 24.9864
327 1 -1.1104 6.66211 -2.87784 20.6953
534 1 -1.1104 6.76863 0.129433 26.3261
523 1 -1.1104 6.7122 -2.79885 23.4709
383 1 -1.1104 9.40079 0.133503 20.9104
556 2 2.2208 10.885 1.39227 22.1743
557 1 -1.1104 12.3705 -3.07582 23.5306
558 1 -1.1104 12.2832 2.63626 23.6963
559 1 -1.1104 12.2057 -2.82509 26.2552
560 1 -1.1104 12.4569 2.71275 26.4904
561 1 -1.1104 12.1882 -0.192089 23.5111
562 2 2.2208 10.9122 -1.50111 24.9262
563 2 2.2208 10.9029 4.08375 24.8991
564 1 -1.1104 12.3398 -0.0128581 26.3351
565 1 -1.1104 9.43731 -3.07649 23.5915
566 1 -1.1104 9.45418 2.7811 23.5449
567 2 2.2208 8.1973 1.33907 24.8371
568 1 -1.1104 9.42201 -2.86755 26.3353
569 1 -1.1104 9.45687 2.68575 26.283
570 2 2.2208 8.0585 -1.44962 22.1868
571 2 2.2208 8.13997 4.24379 22.1675
572 1 -1.1104 9.48969 -0.217673 23.6054
573 1 -1.1104 9.61591 0.0105997 26.4168
675 1 -1.1104 9.51489 13.9538 26.337
9184 2 2.2208 -0.304387 -1.59266 24.8744
407 1 -1.1104 1.30553 5.54312 20.5644
418 1 -1.1104 4.12456 8.60573 20.7022
423 1 -1.1104 3.97554 5.67935 20.7913
411 1 -1.1104 6.57257 5.68599 20.7361
425 1 -1.1104 3.88948 11.3959 20.6188
409 1 -1.1104 1.06972 11.0177 20.832
585 2 2.2208 5.30092 7.00169 22.171
586 2 2.2208 5.29084 12.5299 21.9592
587 1 -1.1104 1.17078 8.35817 23.4487
589 1 -1.1104 1.04074 8.36865 26.2204
591 1 -1.1104 1.10728 5.53878 23.3936
592 1 -1.1104 1.15068 11.1535 23.6483
595 2 2.2208 5.29885 9.80684 24.9464
596 1 -1.1104 1.14685 5.5969 26.364
597 1 -1.1104 1.11042 11.2077 26.2817
600 1 -1.1104 3.87534 8.43402 23.5009
601 2 2.2208 2.46039 6.94667 24.9684
602 2 2.2208 2.72136 12.5126 24.8615
603 1 -1.1104 3.83086 8.41818 26.4556
604 2 2.2208 2.59747 9.74946 22.1221
605 1 -1.1104 3.94807 5.45945 23.541
606 1 -1.1104 4.02301 11.0488 23.4882
607 1 -1.1104 3.88468 5.52333 26.4996
608 1 -1.1104 3.89206 11.2495 26.5016
593 1 -1.1104 6.6826 5.63091 23.5844
588 1 -1.1104 6.63615 8.42479 23.4413
598 1 -1.1104 6.58709 5.57545 26.4056
590 1 -1.1104 6.84943 8.31769 26.2701
594 1 -1.1104 6.73329 11.2257 23.4085
389 2 2.2208 -0.391148 9.5936 19.2564
445 1 -1.1104 9.49972 8.34421 20.7597
438 1 -1.1104 12.2908 5.49166 20.8124
433 1 -1.1104 12.3077 8.36426 20.8321
599 1 -1.1104 6.58476 11.1306 26.4533
616 1 -1.1104 9.44544 11.2618 26.351
617 1 -1.1104 9.48522 5.49776 26.4554
618 1 -1.1104 9.38552 11.2693 23.6021
619 1 -1.1104 9.67116 5.55921 23.4178
620 2 2.2208 8.12243 9.81108 22.0382
621 1 -1.1104 9.67677 8.34419 26.2878
622 2 2.2208 8.18301 12.634 24.8723
623 2 2.2208 8.10849 6.99085 24.8876
624 2 2.2208 11.0423 6.95382 22.1426
625 2 2.2208 10.9273 12.5786 22.1371
626 1 -1.1104 12.2343 8.24299 23.589
627 1 -1.1104 12.3534 8.49496 26.4332
628 1 -1.1104 12.3569 5.38238 23.6158
629 1 -1.1104 12.0894 10.9875 23.447
630 2 2.2208 10.9674 9.71301 24.9752
631 1 -1.1104 12.2636 5.52297 26.3037
632 1 -1.1104 12.393 11.217 26.2333
633 1 -1.1104 9.43611 8.44776 23.5588
9220 2 2.2208 13.4851 21.0251 22.1946
678 1 -1.1104 9.39572 19.5617 23.569
488 1 -1.1104 4.03132 16.7284 20.6734
474 1 -1.1104 1.07512 16.77 20.7046
481 1 -1.1104 3.84251 14.0134 20.7327
462 1 -1.1104 1.06244 13.9574 20.7184
646 1 -1.1104 1.19355 13.9178 26.3812
648 2 2.2208 5.18945 20.8787 25.0814
662 2 2.2208 2.35968 15.2899 22.0782
661 2 2.2208 2.52116 20.9477 22.2468
660 1 -1.1104 3.95301 16.743 23.4647
659 1 -1.1104 1.08289 16.6547 23.4451
657 1 -1.1104 4.14597 13.9135 26.3631
656 1 -1.1104 3.78772 16.5527 26.2211
655 2 2.2208 2.41878 18.0414 24.9304
654 1 -1.1104 3.78584 19.2693 26.4013
653 2 2.2208 5.35836 18.1966 22.0486
652 1 -1.1104 1.09771 13.9091 23.6225
651 1 -1.1104 1.12275 19.5453 23.7565
649 2 2.2208 5.27852 15.2626 24.9035
640 1 -1.1104 3.84911 19.5667 23.6764
642 1 -1.1104 4.02972 13.8133 23.3806
644 1 -1.1104 1.04265 19.6295 26.3343
645 1 -1.1104 1.12258 16.7645 26.4212
670 1 -1.1104 9.51329 16.8849 26.3574
637 1 -1.1104 12.1925 13.9409 23.5169
647 1 -1.1104 6.64467 19.5797 23.6724
673 2 2.2208 8.00445 15.3022 22.1912
679 1 -1.1104 9.42985 13.9736 23.5765
553 2 2.2208 10.7846 18.2279 22.0266
681 2 2.2208 10.6919 20.9812 24.8851
680 1 -1.1104 12.1965 16.6756 26.3523
641 1 -1.1104 6.79755 13.9925 26.2926
468 1 -1.1104 6.6377 19.6176 20.7233
498 1 -1.1104 12.1619 19.8034 20.7667
643 1 -1.1104 6.65223 16.7401 26.2397
387 2 2.2208 -0.347064 6.91843 16.6118
613 2 2.2208 -0.29602 9.80782 24.9052
386 2 2.2208 -0.389659 9.75927 13.8184
554 2 2.2208 -0.380633 1.29934 22.173
9178 2 2.2208 13.5536 12.6674 25.0441
609 2 2.2208 5.18143 6.96568 27.7591
9226 2 2.2208 -0.242552 4.15359 13.735
577 2 2.2208 13.6664 6.96183 19.3906
580 2 2.2208 -0.331625 3.9855 19.456
545 2 2.2208 2.45241 -1.51457 27.6483
550 2 2.2208 13.6563 12.6304 13.8113
634 2 2.2208 10.9262 6.91105 27.6365
548 2 2.2208 10.8136 18.235 27.7648
575 2 2.2208 8.09079 -1.43071 27.6489
635 2 2.2208 8.20625 9.72737 27.7472
615 2 2.2208 -0.365952 6.94424 27.637
491 2 2.2208 5.25865 15.3626 13.7418
453 2 2.2208 8.02006 6.94694 13.8284
489 2 2.2208 2.28673 18.1143 13.7242
689 2 2.2208 5.15488 23.856 5.20631
690 2 2.2208 5.22415 29.391 5.39061
691 1 -1.1104 0.935704 25.1607 1.12841
692 1 -1.1104 1.01301 25.1078 4.02821
693 1 -1.1104 0.912816 22.3119 1.18336
694 1 -1.1104 0.920117 27.9152 1.19828
695 2 2.2208 5.17043 26.5726 2.54386
696 1 -1.1104 0.968302 22.3662 3.7747
697 1 -1.1104 0.871204 27.9967 3.90329
698 1 -1.1104 3.79178 25.1212 1.05463
699 2 2.2208 2.32757 23.7956 2.50007
700 2 2.2208 2.51198 29.4044 2.47093
701 1 -1.1104 3.82029 25.2312 3.96027
702 2 2.2208 2.39192 26.6002 5.31499
703 1 -1.1104 3.66251 22.4782 1.03564
704 1 -1.1104 3.79401 27.8982 1.1859
705 1 -1.1104 3.65582 22.3664 3.71677
706 1 -1.1104 3.81746 28.0755 3.95477
833 1 -1.1104 0.91493 27.8921 6.57149
838 1 -1.1104 3.63881 28.0668 6.80646
711 1 -1.1104 6.68479 25.1603 3.87721
9759 2 2.2208 13.5148 40.6116 8.07238
710 1 -1.1104 6.62715 25.0991 1.22537
715 1 -1.1104 6.53848 27.8857 3.8722
714 1 -1.1104 6.49568 22.3844 3.95701
837 1 -1.1104 3.79221 22.4477 6.72626
836 1 -1.1104 3.9556 25.153 6.79912
830 1 -1.1104 0.948754 25.1284 6.71671
834 1 -1.1104 6.602 22.4158 6.75379
832 1 -1.1104 0.98338 22.362 6.65421
835 1 -1.1104 6.45929 27.9469 6.79427
1226 2 2.2208 7.99959 26.5573 -0.195296
984 2 2.2208 10.8962 43.4602 8.0789
831 1 -1.1104 6.64538 25.1625 6.69002
713 1 -1.1104 6.72042 27.8862 1.102
712 1 -1.1104 6.59339 22.295 1.15705
716 2 2.2208 10.8484 23.7132 5.35433
717 2 2.2208 10.7952 29.3178 5.40095
718 1 -1.1104 12.3012 25.0675 1.22678
719 1 -1.1104 12.3561 25.2618 3.90868
720 1 -1.1104 12.1404 22.2997 1.05749
721 1 -1.1104 12.2482 27.9597 1.21348
722 2 2.2208 10.925 26.6072 2.56826
723 1 -1.1104 12.3221 22.3474 3.7512
724 1 -1.1104 12.1732 27.9876 3.97957
725 1 -1.1104 9.47178 25.2092 1.05239
726 2 2.2208 8.11509 23.7771 2.50905
727 2 2.2208 8.16568 29.3654 2.57863
728 1 -1.1104 9.51084 25.1346 3.99066
729 2 2.2208 7.95194 26.5591 5.23828
730 1 -1.1104 9.35195 22.386 1.15207
731 1 -1.1104 9.5654 27.9771 1.15771
732 1 -1.1104 9.52354 22.3135 3.92451
733 1 -1.1104 9.35301 27.926 3.92345
976 1 -1.1104 9.37532 39.0947 12.3347
866 1 -1.1104 9.37911 25.2237 6.64201
864 1 -1.1104 12.2469 22.2651 6.57454
10172 2 2.2208 -0.299725 35.0144 -0.436432
737 2 2.2208 5.24987 35.0206 5.30019
738 1 -1.1104 0.993775 30.887 1.04175
739 1 -1.1104 0.994648 36.4871 1.24172
741 1 -1.1104 1.03967 30.9379 3.92867
742 1 -1.1104 0.94418 36.4281 3.95855
744 1 -1.1104 1.05124 33.6658 0.933816
745 2 2.2208 5.21204 32.1261 2.5019
746 2 2.2208 5.2103 37.7056 2.36773
747 1 -1.1104 0.9858 33.6596 3.8995
749 1 -1.1104 3.76642 30.8149 0.935989
750 1 -1.1104 3.89172 36.4061 0.950035
751 2 2.2208 2.3886 34.901 2.44849
752 1 -1.1104 3.86661 30.7213 3.72334
753 1 -1.1104 3.75846 36.2158 3.81412
754 2 2.2208 2.33851 32.1828 5.38503
755 2 2.2208 2.46581 37.672 5.23226
756 1 -1.1104 3.79197 33.6481 1.17697
757 1 -1.1104 3.87138 33.3713 3.94989
888 1 -1.1104 3.91864 30.8303 6.74571
762 1 -1.1104 6.66306 30.762 4.04802
886 1 -1.1104 1.02025 33.5114 6.81584
9557 2 2.2208 13.5666 37.9054 5.29675
889 1 -1.1104 3.88119 36.4205 6.68928
887 1 -1.1104 6.59204 33.519 6.68739
748 1 -1.1104 6.63205 33.6211 3.90826
761 1 -1.1104 6.52267 30.5809 0.973118
890 1 -1.1104 3.86329 33.5742 6.85004
982 1 -1.1104 12.1926 44.763 9.56139
915 2 2.2208 -0.322079 37.6906 8.07398
941 1 -1.1104 6.47071 44.8399 9.54907
942 1 -1.1104 6.74519 39.2254 9.37096
9813 2 2.2208 13.5701 46.226 2.45123
740 1 -1.1104 6.82563 36.324 1.07598
763 1 -1.1104 6.52609 33.4062 1.12737
743 1 -1.1104 6.62273 36.4361 3.81498
764 2 2.2208 10.7898 35.0467 5.18751
765 1 -1.1104 12.3105 30.8497 1.26039
766 1 -1.1104 12.2855 36.3308 0.961671
767 1 -1.1104 12.3149 30.6939 4.0992
768 1 -1.1104 12.2736 36.4873 3.82464
769 1 -1.1104 12.1019 33.5646 1.03429
770 2 2.2208 10.944 32.112 2.59448
771 2 2.2208 10.7721 37.655 2.4613
772 1 -1.1104 12.2375 33.7009 3.85451
773 1 -1.1104 9.49811 30.7656 1.0532
774 1 -1.1104 9.47114 36.212 0.935881
775 2 2.2208 8.03042 34.9481 2.40155
776 1 -1.1104 9.56138 30.6731 3.96267
777 1 -1.1104 9.44342 36.3036 3.75458
778 2 2.2208 8.03687 32.2195 5.30214
779 2 2.2208 8.01518 37.7769 5.21366
780 1 -1.1104 9.28254 33.5272 0.964619
781 1 -1.1104 9.42455 33.5885 3.82219
918 1 -1.1104 12.302 33.6227 6.67875
921 1 -1.1104 9.32032 33.5686 6.56094