ITEM: TIMESTEP
20000
ITEM: NUMBER OF ATOMS
17640
ITEM: BOX BOUNDS pp pp pp
-3.5539587656023708e-01 2.7695395876559953e+01
-4.3352668453054903e+00 3.3241526684530442e+02
-3.5530298286297290e-01 2.7695302982863527e+01
ITEM: ATOMS id type q x y z
1 2 2.2208 5.34739 1.29848 5.34918
2 1 -1.1104 0.968844 -2.80534 0.902688
3 1 -1.1104 1.22157 2.75307 1.1045
6 1 -1.1104 1.04638 -2.82943 3.84675
7 1 -1.1104 1.11927 2.73672 3.854
10 1 -1.1104 1.08306 -0.0460587 0.933186
12 2 2.2208 5.32237 -1.55752 2.481
13 2 2.2208 5.49037 4.05118 2.44759
14 1 -1.1104 1.05966 -0.0196935 3.81654
16 1 -1.1104 3.76255 -3.04191 1.06341
17 1 -1.1104 3.97363 2.57976 0.927729
18 2 2.2208 2.64414 1.33821 2.33454
19 1 -1.1104 3.93002 -2.99388 3.85971
20 1 -1.1104 3.99307 2.68232 3.86722
21 2 2.2208 2.39343 -1.4441 5.2136
22 2 2.2208 2.67113 4.18501 5.2647
23 1 -1.1104 3.80561 -0.310586 0.969159
24 1 -1.1104 3.90459 -0.110797 3.83202
173 1 -1.1104 4.01626 2.75316 6.63268
8456 2 2.2208 10.8823 -4.28158 10.9317
8448 2 2.2208 2.52433 -4.3208 2.45218
579 2 2.2208 13.7285 6.82659 13.7797
9150 2 2.2208 -0.347901 6.88957 5.36811
5 1 -1.1104 6.76051 2.68198 1.01775
174 1 -1.1104 3.91075 0.0325019 6.7522
390 2 2.2208 8.03706 1.31996 13.6385
135 2 2.2208 -0.193993 15.2836 2.35011
9367 2 2.2208 -0.32816 15.3489 13.5225
168 1 -1.1104 6.67404 -3.03885 6.69897
9 1 -1.1104 6.84924 2.66359 3.84148
4 1 -1.1104 6.71923 -2.89283 1.09214
11 1 -1.1104 6.51121 -0.00152649 1.20487
15 1 -1.1104 6.67651 -0.0477164 4.059
8 1 -1.1104 6.71388 -3.01574 3.87391
31 2 2.2208 10.8356 1.24242 5.14816
32 1 -1.1104 12.4083 -2.94007 1.00859
33 1 -1.1104 12.2305 2.73793 1.02558
34 1 -1.1104 12.2813 -2.87357 3.89824
35 1 -1.1104 12.2774 2.68524 3.78885
36 1 -1.1104 12.3475 -0.182297 0.991395
37 2 2.2208 11.026 -1.56783 2.4934
38 2 2.2208 10.9183 4.04259 2.38505
39 1 -1.1104 12.2653 -0.118782 3.84429
40 1 -1.1104 9.57776 -2.90457 1.18941
41 1 -1.1104 9.49177 2.62153 0.890882
42 2 2.2208 8.20948 1.15156 2.46669
43 1 -1.1104 9.48907 -2.93281 3.89882
44 1 -1.1104 9.5806 2.64338 3.80612
45 2 2.2208 8.03514 -1.58702 5.29825
46 2 2.2208 8.25034 4.13138 5.17259
47 1 -1.1104 9.60846 -0.258549 0.891838
48 1 -1.1104 9.54022 -0.24978 3.73026
208 1 -1.1104 9.52575 -2.86122 6.74031
209 1 -1.1104 9.47746 2.77935 6.49195
207 1 -1.1104 12.2508 -0.0588004 6.64865
17272 2 2.2208 -0.336793 -4.25031 5.14413
54 2 2.2208 5.39356 6.89073 5.31005
55 2 2.2208 5.25344 12.441 5.3347
56 1 -1.1104 0.980239 8.21584 1.18461
58 1 -1.1104 1.05127 8.38025 3.93998
60 1 -1.1104 1.15457 5.40669 1.01347
61 1 -1.1104 1.18737 11.0849 0.973501
66 2 2.2208 5.28796 9.69585 2.36225
67 1 -1.1104 1.03126 5.66245 3.8967
68 1 -1.1104 1.04892 11.0353 3.92369
71 1 -1.1104 3.73731 8.28421 1.15906
72 2 2.2208 2.50123 6.90297 2.48528
73 2 2.2208 2.45328 12.4121 2.39854
74 1 -1.1104 3.89482 8.28373 3.87066
75 2 2.2208 2.52226 9.66918 5.23937
76 1 -1.1104 3.86907 5.41742 1.18468
77 1 -1.1104 3.95766 11.0917 0.891138
79 1 -1.1104 3.85967 5.47944 3.87043
80 1 -1.1104 3.92548 11.2068 3.71634
238 1 -1.1104 3.91085 8.35617 6.67526
8455 2 2.2208 8.03526 -4.29165 8.10836
233 2 2.2208 8.09131 15.3296 10.9306
62 1 -1.1104 1.09312 11.1733 6.67864
234 1 -1.1104 1.09347 8.18635 6.62519
237 1 -1.1104 6.81404 5.59895 6.69051
63 1 -1.1104 6.87278 5.53075 1.13774
70 1 -1.1104 6.61833 11.1461 3.8933
64 1 -1.1104 6.6108 11.1987 0.903669
57 1 -1.1104 6.48592 8.34282 0.985083
59 1 -1.1104 6.65437 8.32428 3.89412
69 1 -1.1104 6.8706 5.55484 3.86811
84 2 2.2208 10.931 6.89231 5.27668
85 2 2.2208 10.8588 12.4971 5.38658
86 1 -1.1104 12.2451 8.35642 1.03772
87 1 -1.1104 12.2353 8.3197 3.93117
88 1 -1.1104 12.376 5.51154 0.880344
89 1 -1.1104 12.1203 11.1797 1.06786
91 2 2.2208 10.8537 9.75174 2.34699
92 1 -1.1104 12.3679 5.61006 3.8729
93 1 -1.1104 12.3096 11.0502 3.8285
94 1 -1.1104 9.47572 8.32955 1.05193
95 2 2.2208 8.16727 6.92503 2.57245
96 2 2.2208 8.00185 12.5369 2.39274
97 1 -1.1104 9.52242 8.24765 3.88253
98 2 2.2208 8.06303 9.77238 5.14864
99 1 -1.1104 9.60458 5.40663 1.07433
100 1 -1.1104 9.31696 11.1173 0.931155
102 1 -1.1104 9.54013 5.39913 3.82458
103 1 -1.1104 9.21382 11.0977 3.75642
265 1 -1.1104 12.3046 8.20165 6.71895
269 1 -1.1104 9.50634 5.53695 6.64588
9053 2 2.2208 -0.348746 9.70254 2.54051
105 2 2.2208 10.8882 15.3119 8.03555
8454 2 2.2208 -0.303747 -4.28601 10.8773
106 2 2.2208 5.30719 18.0042 5.32871
107 1 -1.1104 0.963256 13.8886 0.850997
109 1 -1.1104 1.23997 19.6715 1.09882
113 1 -1.1104 1.05389 13.8694 3.75038
114 1 -1.1104 1.22967 19.5057 3.73873
116 1 -1.1104 1.04368 16.8727 0.948506
119 2 2.2208 5.18998 15.2363 2.46276
120 2 2.2208 5.27369 20.8406 2.37251
121 1 -1.1104 1.028 16.7254 3.80623
123 1 -1.1104 3.76605 13.8689 1.05562
125 1 -1.1104 3.84524 19.374 1.10697
127 2 2.2208 2.53459 17.9793 2.4515
128 1 -1.1104 3.79251 13.8553 3.97511
129 1 -1.1104 3.92689 19.4529 3.72579
130 2 2.2208 2.4265 15.2425 5.24401
131 2 2.2208 2.43263 20.8352 5.15089
132 1 -1.1104 3.76592 16.5827 1.03117
134 1 -1.1104 3.872 16.6341 3.81076
126 1 -1.1104 3.73594 19.3541 6.61198
200 1 -1.1104 9.55771 13.8749 12.3368
8451 2 2.2208 10.8717 -4.31244 5.36147
8884 2 2.2208 -0.401519 1.46311 10.7824
454 2 2.2208 10.8428 9.75371 13.7387
112 1 -1.1104 6.6303 19.4392 6.74314
154 1 -1.1104 9.4601 13.9236 6.6449
9148 2 2.2208 -0.205144 1.43206 5.21007
122 1 -1.1104 6.72903 16.7321 3.96983
115 1 -1.1104 6.59336 14.061 3.7561
139 1 -1.1104 6.61083 19.5137 4.12113
138 1 -1.1104 6.57813 19.4882 1.18957
140 1 -1.1104 6.59799 16.7516 1.08823
110 1 -1.1104 6.44576 13.8956 1.05095
141 2 2.2208 10.8943 18.0333 5.30004
142 1 -1.1104 12.4328 13.8938 1.12288
144 1 -1.1104 12.3966 19.4976 1.06436
146 1 -1.1104 12.2959 13.8098 3.93963
147 1 -1.1104 12.2507 19.5258 3.79006
148 1 -1.1104 12.3405 16.7208 1.082
150 2 2.2208 10.9484 15.2672 2.45583
151 2 2.2208 10.9341 20.8532 2.45918
152 1 -1.1104 12.3336 16.5273 3.74148
153 1 -1.1104 9.38834 14.0117 1.07165
155 1 -1.1104 9.48326 19.4003 1.11921
157 2 2.2208 8.08172 18.0974 2.50093
158 1 -1.1104 9.46183 13.964 3.73931
159 1 -1.1104 9.52872 19.3299 3.94935
160 2 2.2208 8.14771 15.2115 5.31672
161 2 2.2208 8.00913 20.9075 5.30177
162 1 -1.1104 9.50382 16.7272 0.905078
164 1 -1.1104 9.39983 16.5759 3.77445
163 1 -1.1104 9.4816 16.5799 6.75832
143 1 -1.1104 12.2516 13.9409 6.70652
145 1 -1.1104 12.3415 19.4188 6.57865
8453 2 2.2208 5.17401 -4.30968 10.8367
610 2 2.2208 2.55092 9.64779 -0.37018
170 1 -1.1104 1.14919 0.0235395 6.52113
26 2 2.2208 13.7397 15.3602 10.7852
9052 2 2.2208 13.7344 6.8808 2.3856
172 1 -1.1104 3.89605 -2.96604 6.58605
166 1 -1.1104 1.01255 -2.88189 6.75575
426 2 2.2208 2.50343 6.92883 13.6864
167 1 -1.1104 1.12938 2.76545 6.54782
175 2 2.2208 5.34376 1.3241 10.9072
176 1 -1.1104 1.02649 -2.9104 12.3939
177 1 -1.1104 1.05994 2.78706 12.1798
180 1 -1.1104 1.09492 -2.76841 9.60131
181 1 -1.1104 1.08965 2.73033 9.37794
184 1 -1.1104 1.04615 0.0660752 12.2066
186 2 2.2208 5.29801 -1.55199 8.06703
187 2 2.2208 5.38254 4.26358 7.9987
188 1 -1.1104 1.21123 -0.139263 9.2347
190 1 -1.1104 3.78638 -3.00766 12.1978
191 1 -1.1104 3.91528 2.74375 12.3332
192 2 2.2208 2.50685 1.45905 7.98905
193 1 -1.1104 3.95375 -2.77725 9.44885
194 1 -1.1104 3.98294 2.79688 9.55343
195 2 2.2208 2.51341 -1.42741 10.7592
196 2 2.2208 2.5572 4.17095 10.9571
197 1 -1.1104 3.90896 -0.0952363 12.2369
198 1 -1.1104 3.86247 0.00811918 9.48565
137 2 2.2208 -0.409712 18.0813 5.21832
312 1 -1.1104 9.33603 14.0283 9.49902
179 1 -1.1104 6.7918 2.69233 12.2355
8452 2 2.2208 2.50938 -4.17566 8.01449
204 2 2.2208 13.7187 9.67759 5.1954
205 1 -1.1104 12.4081 -2.83905 6.75998
210 1 -1.1104 9.53739 -0.111989 6.72788
50 1 -1.1104 12.3121 19.8739 12.2319
183 1 -1.1104 6.86765 2.70226 9.371
206 1 -1.1104 12.1829 2.69961 6.46274
169 1 -1.1104 6.67013 2.73345 6.6771
171 1 -1.1104 6.70368 -0.11028 6.79347
189 1 -1.1104 6.79949 -0.0725162 9.39687
185 1 -1.1104 6.75915 -0.0765129 12.0569
178 1 -1.1104 6.66946 -2.93377 12.1605
182 1 -1.1104 6.68915 -2.77205 9.32874
211 2 2.2208 10.9207 1.35118 10.9449
212 1 -1.1104 12.2132 -2.84019 12.3638
213 1 -1.1104 12.2613 2.66118 12.2324
214 1 -1.1104 12.3377 -2.87844 9.5415
215 1 -1.1104 12.3606 2.69511 9.27757
216 1 -1.1104 12.3096 -0.0886781 12.3354
217 2 2.2208 10.9376 -1.45167 8.17481
218 2 2.2208 10.8975 4.13737 7.98977
219 1 -1.1104 12.5057 -0.0137369 9.49607
220 1 -1.1104 9.41783 -2.916 12.3179
221 1 -1.1104 9.40565 2.64834 11.9915
222 2 2.2208 8.19237 1.39099 8.09001
223 1 -1.1104 9.46612 -2.93874 9.37795
224 1 -1.1104 9.58446 2.7148 9.35334
225 2 2.2208 8.21854 -1.53727 10.8056
226 2 2.2208 8.07807 4.10361 10.8715
227 1 -1.1104 9.45726 -0.0792282 12.3905
228 1 -1.1104 9.61824 -0.00514427 9.65402
27 2 2.2208 13.7906 18.0395 8.02244
9086 2 2.2208 -0.350584 9.79049 8.1831
239 1 -1.1104 4.09366 5.49734 6.60998
236 1 -1.1104 1.07346 5.52338 6.81506
78 1 -1.1104 3.9348 11.0129 6.72873
240 2 2.2208 5.27251 6.93414 10.9599
241 2 2.2208 5.12472 12.51 10.8357
242 1 -1.1104 1.0797 8.30136 12.336
244 1 -1.1104 0.953575 8.39422 9.49033
246 1 -1.1104 1.06495 5.50945 12.3901
247 1 -1.1104 1.06585 11.0788 12.237
250 2 2.2208 5.23255 9.66691 8.05581
251 1 -1.1104 1.14669 5.60507 9.44769
252 1 -1.1104 1.19431 11.2219 9.47939
255 1 -1.1104 3.9903 8.19733 12.2123
256 2 2.2208 2.45172 6.94617 8.08241
257 2 2.2208 2.44869 12.4855 8.00568
258 1 -1.1104 3.77383 8.35932 9.45862
259 2 2.2208 2.52204 9.72781 10.8786
260 1 -1.1104 3.88398 5.48279 12.2937
261 1 -1.1104 3.84473 11.0889 12.3902
262 1 -1.1104 4.02182 5.56601 9.45289
263 1 -1.1104 3.87473 11.1707 9.3985
249 1 -1.1104 6.62435 11.1217 12.3282
245 1 -1.1104 6.54831 8.31844 9.38126
243 1 -1.1104 6.7656 8.30296 12.2861
9087 2 2.2208 -0.411489 6.84554 11.0149
635 2 2.2208 8.02927 9.65042 -0.38958
65 1 -1.1104 6.7234 11.0713 6.68177
90 1 -1.1104 12.293 11.1399 6.78477
101 1 -1.1104 9.43725 11.125 6.63364
53 1 -1.1104 12.1922 13.9626 9.45806
235 1 -1.1104 6.65018 8.36272 6.54876
267 1 -1.1104 9.58085 8.35546 6.61058
266 1 -1.1104 12.327 5.51534 6.56959
253 1 -1.1104 6.79741 5.54281 9.49028
254 1 -1.1104 6.75705 11.1672 9.56147
248 1 -1.1104 6.687 5.47977 12.4221
264 1 -1.1104 9.52114 11.1717 9.35671
268 1 -1.1104 9.58415 5.6194 9.43713
270 1 -1.1104 9.58545 11.1938 12.2854
271 1 -1.1104 9.46103 5.43642 12.224
272 2 2.2208 8.12387 9.71941 10.9747
273 1 -1.1104 9.38223 8.47281 9.48099
274 2 2.2208 8.0127 12.4764 8.13126
275 2 2.2208 8.13516 6.99658 8.09489
276 2 2.2208 11.0131 6.90807 10.8563
277 2 2.2208 10.8362 12.5141 10.8945
278 1 -1.1104 12.2576 8.20436 12.3499
279 1 -1.1104 12.2224 8.29519 9.47404
280 1 -1.1104 12.3625 5.43794 12.2879
281 1 -1.1104 12.3284 11.0379 12.2931
282 2 2.2208 10.8741 9.69007 8.08954
283 1 -1.1104 12.2881 5.4316 9.42229
284 1 -1.1104 12.1821 11.0941 9.55054
285 1 -1.1104 9.45706 8.2803 12.2581
8858 2 2.2208 -0.471665 18.1996 10.737
49 1 -1.1104 12.3867 13.9888 12.3076
199 1 -1.1104 12.4978 16.7939 9.5292
118 1 -1.1104 6.69573 16.5147 6.72155
124 1 -1.1104 3.81287 13.8252 6.5631
453 2 2.2208 8.11777 6.83682 13.6782
297 1 -1.1104 6.73372 13.9296 12.3767
117 1 -1.1104 1.12876 16.7489 6.63495
133 1 -1.1104 3.93594 16.5266 6.64145
302 1 -1.1104 1.0659 19.453 6.5977
108 1 -1.1104 1.12541 13.9945 6.56042
286 1 -1.1104 3.98043 19.5861 12.1917
287 1 -1.1104 3.83935 13.7637 12.3016
291 1 -1.1104 0.849315 19.5821 9.42053
292 1 -1.1104 1.09628 16.7805 9.44433
293 2 2.2208 5.14942 20.8738 8.07761
294 1 -1.1104 1.14658 13.939 9.50779
295 2 2.2208 5.28172 15.3411 8.02942
298 1 -1.1104 1.06421 19.5485 12.0014
299 1 -1.1104 0.900496 13.8555 12.3302
300 2 2.2208 5.20773 18.1202 10.8391
301 1 -1.1104 3.71957 19.5497 9.40037
303 2 2.2208 2.40971 18.13 7.98388
304 1 -1.1104 3.95665 16.6801 9.35254
305 1 -1.1104 3.78046 13.9374 9.35544
307 1 -1.1104 0.940092 16.7156 12.1519
308 1 -1.1104 3.79624 16.5191 12.2646
309 2 2.2208 2.45726 21.0036 10.7249
310 2 2.2208 2.35584 15.3568 10.8523
111 1 -1.1104 6.68962 13.8517 6.71106
315 1 -1.1104 9.60149 16.6769 12.1204
8885 2 2.2208 -0.321809 -1.47489 8.0289
136 2 2.2208 10.8083 20.8992 8.03111
81 1 -1.1104 12.2686 19.6837 9.43753
156 1 -1.1104 9.55584 19.3724 6.6928
149 1 -1.1104 12.399 16.6052 6.61914
311 2 2.2208 8.04005 18.0901 8.09108
314 1 -1.1104 9.57726 16.7988 9.44829
290 1 -1.1104 6.56042 14.0561 9.54763
296 1 -1.1104 6.71383 19.5993 12.204
288 1 -1.1104 6.49405 19.6085 9.40865
82 1 -1.1104 12.5091 16.8379 12.267
316 2 2.2208 7.96665 20.915 10.7101
232 1 -1.1104 9.40175 19.5772 9.45906
201 1 -1.1104 9.61138 19.5586 12.0169
306 1 -1.1104 6.5963 16.8058 12.3337
289 1 -1.1104 6.74409 16.9503 9.65438
30 2 2.2208 10.9809 18.0708 10.7557
611 2 2.2208 5.25733 12.4819 -0.458518
9149 2 2.2208 -0.264063 3.94684 2.45621
517 2 2.2208 10.9538 15.2464 13.7257
546 2 2.2208 2.4564 4.11866 -0.363954
516 2 2.2208 10.7794 21.0926 13.5162
576 2 2.2208 8.11928 4.07509 -0.27514
490 2 2.2208 5.24413 20.9312 13.6256
574 2 2.2208 11.0159 1.17189 -0.345358
609 2 2.2208 5.15222 6.84028 -0.283379
357 2 2.2208 5.23146 -1.45385 13.6304
667 2 2.2208 -0.290484 18.1032 -0.342922
663 2 2.2208 2.47843 20.9475 -0.284518
489 2 2.2208 2.31302 18.0455 13.6386
636 2 2.2208 10.7855 12.4756 -0.371151
9368 2 2.2208 -0.304923 20.9155 13.5683
317 2 2.2208 5.30969 1.1942 16.4751
318 1 -1.1104 1.07158 -2.78492 17.8069
319 1 -1.1104 1.06417 2.72979 17.9014
322 1 -1.1104 1.07194 -2.89111 15.0878
324 1 -1.1104 1.0748 2.64924 15.0811
330 1 -1.1104 1.11087 0.023545 17.9256
332 2 2.2208 5.28424 -1.59399 19.3301
333 2 2.2208 5.18915 3.98515 19.2467
334 1 -1.1104 1.02039 -0.177777 14.9337
338 1 -1.1104 3.8781 -2.9572 17.9018
339 1 -1.1104 3.95106 2.62757 17.7801
340 2 2.2208 2.49106 1.237 19.283
341 1 -1.1104 3.95339 -2.98009 15.1218
343 1 -1.1104 3.83203 2.59667 15.1136
345 2 2.2208 2.4917 -1.52521 16.3811
346 2 2.2208 2.53786 4.04646 16.4672
347 1 -1.1104 3.84989 -0.255982 17.7985
348 1 -1.1104 3.91057 -0.12187 15.0949
344 1 -1.1104 3.83847 2.5392 20.7242
331 1 -1.1104 6.72493 -0.107034 18.061
580 2 2.2208 -0.337587 4.15567 19.3702
9370 2 2.2208 13.6535 15.2682 22.1029
323 1 -1.1104 1.00776 -2.94273 20.7024
335 1 -1.1104 1.06494 -0.1626 20.765
325 1 -1.1104 1.10998 2.76745 20.647
548 2 2.2208 10.9402 18.0714 27.6853
8835 2 2.2208 5.22635 -4.41405 27.6804
8523 2 2.2208 8.04593 -4.33918 24.9667
550 2 2.2208 13.8128 12.4777 13.6127
8836 2 2.2208 5.2514 -4.35814 22.0619
358 2 2.2208 2.58013 1.26981 13.541
8524 2 2.2208 10.8891 -4.41374 22.1681
328 1 -1.1104 6.67076 2.65327 15.0303
679 1 -1.1104 9.4009 13.8962 23.5613
321 1 -1.1104 6.61853 2.73141 17.8765
320 1 -1.1104 6.56163 -2.92762 17.6922
326 1 -1.1104 6.80809 -2.96957 14.9214
336 1 -1.1104 6.64697 -0.205368 15.0127
360 2 2.2208 10.9688 1.20967 16.2931
361 1 -1.1104 12.2567 -2.98947 17.7868
362 1 -1.1104 12.3854 2.65285 17.8958
363 1 -1.1104 12.3281 -3.03777 14.9759
365 1 -1.1104 12.3039 2.73595 15.0483
367 1 -1.1104 12.1263 -0.176184 17.8828
368 2 2.2208 10.8034 -1.52738 19.4117
369 2 2.2208 10.748 4.08576 19.2059
370 1 -1.1104 12.2935 -0.23412 15.1543
372 1 -1.1104 9.49792 -2.96091 17.9036
373 1 -1.1104 9.58564 2.68931 17.6423
374 2 2.2208 8.08906 1.2978 19.3353
375 1 -1.1104 9.62298 -2.76693 15.1257
377 1 -1.1104 9.57378 2.62663 14.8436
379 2 2.2208 8.09181 -1.56719 16.4365
380 2 2.2208 7.97919 3.97764 16.477
381 1 -1.1104 9.32268 -0.196471 17.9185
382 1 -1.1104 9.45525 0.0599153 15.0315
371 1 -1.1104 12.2227 -0.289898 20.6854
364 1 -1.1104 12.2257 -3.16339 20.6504
327 1 -1.1104 6.64422 -2.90188 20.535
545 2 2.2208 2.47599 -1.60315 27.6444
664 2 2.2208 5.12309 17.935 27.7526
393 2 2.2208 5.23856 6.82251 16.5748
394 2 2.2208 5.29059 12.5147 16.4978
395 1 -1.1104 1.03868 8.20164 17.8008
397 1 -1.1104 1.17681 8.17398 14.9652
401 1 -1.1104 1.14015 5.3705 17.9197
402 1 -1.1104 0.894105 11.0222 17.9588
405 2 2.2208 5.23249 9.71029 19.3083
406 1 -1.1104 1.04322 5.38216 15.0056
408 1 -1.1104 1.04856 11.1745 15.1811
414 1 -1.1104 3.76323 8.16642 17.8711
415 2 2.2208 2.56582 6.87887 19.2921
416 2 2.2208 2.45034 12.4773 19.2072
417 1 -1.1104 3.87339 8.29164 14.9926
419 2 2.2208 2.4094 9.59882 16.4981
420 1 -1.1104 3.97592 5.52989 17.8532
421 1 -1.1104 3.86883 11.0287 17.9387
422 1 -1.1104 3.88006 5.52866 15.0294
424 1 -1.1104 3.85682 11.1231 15.2153
409 1 -1.1104 1.01667 10.9549 20.5675
412 1 -1.1104 6.74442 10.9263 15.0845
583 2 2.2208 13.7667 1.29612 24.8273
407 1 -1.1104 1.00789 5.67543 20.79
425 1 -1.1104 3.90257 11.0035 20.6923
423 1 -1.1104 3.78461 5.42312 20.7379
673 2 2.2208 8.06673 15.3887 21.9729
547 2 2.2208 8.09563 15.3872 27.6483
9220 2 2.2208 13.6289 21.0142 22.1606
396 1 -1.1104 6.50708 8.23724 17.9733
404 1 -1.1104 6.8098 11.0754 17.9284
410 1 -1.1104 6.61336 5.4258 15.1191
403 1 -1.1104 6.70849 5.38919 17.8051
399 1 -1.1104 6.56881 8.17109 15.174
429 2 2.2208 10.9116 6.74974 16.4478
430 2 2.2208 10.9714 12.3984 16.6043
431 1 -1.1104 12.2374 8.34524 17.8408
432 1 -1.1104 12.2761 8.30648 15.188
434 1 -1.1104 12.2837 5.42528 17.8159
435 1 -1.1104 12.2896 10.9964 18.1057
436 2 2.2208 10.8867 9.57982 19.4108
437 1 -1.1104 12.4311 5.50166 15.1022
439 1 -1.1104 12.3185 10.9605 15.1491
441 1 -1.1104 9.44418 8.25299 17.9279
442 2 2.2208 7.95873 6.85587 19.3443
443 2 2.2208 8.0936 12.2957 19.3519
444 1 -1.1104 9.48528 8.10087 15.0566
446 2 2.2208 8.1246 9.52647 16.5365
447 1 -1.1104 9.31092 5.41444 18.0082
448 1 -1.1104 9.55321 11.0085 17.9845
449 1 -1.1104 9.45862 5.30914 15.091
451 1 -1.1104 9.45192 11.054 15.1211
452 1 -1.1104 9.49422 10.9562 20.6953
450 1 -1.1104 9.33259 5.52272 20.7247
411 1 -1.1104 6.62772 5.27399 20.7276
438 1 -1.1104 12.2753 5.44921 20.6793
400 1 -1.1104 6.66791 8.18687 20.6678
350 2 2.2208 -0.422571 6.9522 22.1497
675 1 -1.1104 9.42777 13.8462 26.2646
456 2 2.2208 5.18248 18.1027 16.4327
457 1 -1.1104 1.20265 14.0123 17.7942
458 1 -1.1104 0.947117 19.564 17.8803
461 1 -1.1104 1.14493 13.8756 15.0212
463 1 -1.1104 1.02325 19.4806 14.9566
469 1 -1.1104 1.06231 16.7746 17.8554
471 2 2.2208 5.32085 15.2932 19.3236
472 2 2.2208 5.08508 20.7613 19.2795
473 1 -1.1104 0.976486 16.501 15.0883
477 1 -1.1104 4.09097 13.7694 17.9771
478 1 -1.1104 3.7123 19.3186 17.8488
479 2 2.2208 2.49818 17.9776 19.3403
480 1 -1.1104 4.08815 13.9711 15.1531
482 1 -1.1104 3.83864 19.6069 14.907
484 2 2.2208 2.48409 15.2268 16.4373
485 2 2.2208 2.47581 20.8995 16.3464
486 1 -1.1104 3.9145 16.4375 17.7488
487 1 -1.1104 3.79811 16.795 14.9216
483 1 -1.1104 3.83204 19.3883 20.723
470 1 -1.1104 6.70749 16.6506 17.8939
460 1 -1.1104 6.64259 19.4467 17.7216
462 1 -1.1104 1.07365 13.7955 20.4968
465 1 -1.1104 6.77636 13.8759 15.0219
685 1 -1.1104 12.186 13.8405 26.3451
389 2 2.2208 -0.288964 9.6383 19.3125
554 2 2.2208 -0.37545 1.36811 22.0527
674 1 -1.1104 9.64967 19.4022 26.2711
467 1 -1.1104 6.50221 19.4904 14.985
466 1 -1.1104 6.80841 13.8664 20.6743
459 1 -1.1104 6.73147 13.904 17.8835
475 1 -1.1104 6.73624 16.6074 15.0619
492 2 2.2208 10.7897 18.2122 16.4451
493 1 -1.1104 12.3417 13.7946 17.9137
494 1 -1.1104 12.2412 19.6073 17.7447
495 1 -1.1104 12.3463 13.8717 15.0589
497 1 -1.1104 12.3046 19.7175 15.0262
499 1 -1.1104 12.1713 16.6548 17.7266
500 2 2.2208 10.9313 15.1969 19.1717
501 2 2.2208 10.745 20.8556 19.1239
502 1 -1.1104 12.3386 16.8177 15.0046
504 1 -1.1104 9.52951 13.8097 17.8986
505 1 -1.1104 9.45713 19.4188 17.8801
506 2 2.2208 8.07829 18.1249 19.1479
507 1 -1.1104 9.60978 13.7164 15.0328
509 1 -1.1104 9.33684 19.5294 14.9723
511 2 2.2208 8.13383 15.2835 16.5113
512 2 2.2208 7.90518 20.9925 16.4525
513 1 -1.1104 9.4681 16.6967 17.7284
514 1 -1.1104 9.56425 16.6658 14.9495
503 1 -1.1104 12.3053 16.5898 20.5637
515 1 -1.1104 9.48108 16.6814 20.6059
9386 2 2.2208 13.7648 4.21908 22.0331
613 2 2.2208 -0.299132 9.6943 24.7822
498 1 -1.1104 12.2178 19.4263 20.4861
496 1 -1.1104 12.2412 13.8662 20.7859
388 2 2.2208 13.6923 -1.5587 16.524
672 2 2.2208 8.08754 20.8936 22.0168
669 1 -1.1104 12.1616 19.5812 23.4376
9184 2 2.2208 -0.263533 -1.45709 24.8795
349 1 -1.1104 3.9695 -0.129657 20.668
342 1 -1.1104 3.79501 -3.0138 20.5593
575 2 2.2208 8.11479 -1.53637 27.6925
520 2 2.2208 5.36696 1.21643 22.1273
521 1 -1.1104 1.13992 -2.8004 23.5468
522 1 -1.1104 0.997361 2.88979 23.3918
525 1 -1.1104 1.00099 -2.92378 26.2275
526 1 -1.1104 1.20361 2.69202 26.2355
529 1 -1.1104 1.11074 0.0671957 23.4692
531 2 2.2208 5.29527 -1.43922 24.8856
532 2 2.2208 5.38856 4.00594 24.953
533 1 -1.1104 1.1687 -0.0576222 26.236
535 1 -1.1104 3.9037 -2.93839 23.4719
536 1 -1.1104 3.93591 2.63595 23.5425
537 2 2.2208 2.45785 1.34287 24.846
538 1 -1.1104 3.84969 -2.88134 26.3476
539 1 -1.1104 3.91464 2.78922 26.2327
540 2 2.2208 2.44651 -1.47424 22.1448
541 2 2.2208 2.47569 4.1509 22.0905
542 1 -1.1104 3.78052 -0.0439177 23.3105
543 1 -1.1104 4.09629 -0.0834661 26.1402
9178 2 2.2208 13.694 12.332 24.9276
337 1 -1.1104 6.64996 -0.203512 20.7215
329 1 -1.1104 6.71353 2.57252 20.5971
524 1 -1.1104 6.87166 2.62394 23.4359
9366 2 2.2208 -0.342592 18.1298 16.4149
376 1 -1.1104 9.53164 -3.05582 20.6981
352 2 2.2208 -0.371825 15.373 19.1294
527 1 -1.1104 6.60609 -2.7606 26.343
523 1 -1.1104 6.74506 -2.89657 23.4778
366 1 -1.1104 12.254 2.75971 20.5483
378 1 -1.1104 9.56398 2.73476 20.6301
383 1 -1.1104 9.45673 -0.0543897 20.6737
530 1 -1.1104 6.52614 -0.0340863 23.6122
534 1 -1.1104 6.85347 0.000987563 26.4154
528 1 -1.1104 6.69251 2.7862 26.3556
556 2 2.2208 10.9284 1.30354 21.964
557 1 -1.1104 12.3296 -2.9364 23.6253
558 1 -1.1104 12.2903 2.59163 23.45
559 1 -1.1104 12.1444 -2.80892 26.5119
560 1 -1.1104 12.2999 2.71633 26.3947
561 1 -1.1104 12.3393 -0.147355 23.2649
562 2 2.2208 10.9181 -1.57717 24.9145
563 2 2.2208 10.8528 3.87536 24.9343
564 1 -1.1104 12.4184 -0.0951455 26
565 1 -1.1104 9.59967 -3.00065 23.6654
566 1 -1.1104 9.61922 2.65709 23.435
567 2 2.2208 8.25353 1.31372 24.9474
568 1 -1.1104 9.36071 -2.91801 26.4553
569 1 -1.1104 9.57815 2.77457 26.321
570 2 2.2208 8.19646 -1.56602 22.1137
571 2 2.2208 8.04053 4.01095 22.083
572 1 -1.1104 9.45452 -0.163468 23.5125
573 1 -1.1104 9.66215 -0.158018 26.2718
670 1 -1.1104 9.51858 16.6191 26.1916
641 1 -1.1104 6.56017 13.8606 26.2435
688 2 2.2208 13.6716 1.28072 19.1927
418 1 -1.1104 3.82586 8.188 20.8413
666 2 2.2208 -0.363233 15.3171 24.7482
398 1 -1.1104 1.12327 8.32998 20.6407
585 2 2.2208 5.24333 6.8482 22.1876
586 2 2.2208 5.31304 12.3455 22.0289
587 1 -1.1104 0.989594 8.33987 23.4509
589 1 -1.1104 0.942032 8.31965 26.3155
591 1 -1.1104 1.13471 5.57706 23.4658
592 1 -1.1104 0.981643 11.0729 23.3479
595 2 2.2208 5.28048 9.7281 24.8147
596 1 -1.1104 1.06171 5.51947 26.2293
597 1 -1.1104 1.0939 11.1302 26.2254
600 1 -1.1104 3.83903 8.22094 23.6316
601 2 2.2208 2.47808 6.85988 24.9183
602 2 2.2208 2.40292 12.5084 24.7297
603 1 -1.1104 3.82674 8.23313 26.3498
604 2 2.2208 2.44945 9.7297 22.0064
605 1 -1.1104 3.9844 5.4551 23.5327
606 1 -1.1104 3.70305 11.0825 23.4178
607 1 -1.1104 3.88677 5.48804 26.3558
608 1 -1.1104 3.89209 11.0041 26.1924
588 1 -1.1104 6.63266 8.19254 23.4006
593 1 -1.1104 6.6655 5.44592 23.4331
355 2 2.2208 -0.370166 -1.49768 13.5994
384 2 2.2208 13.5689 18.0898 19.2587
684 1 -1.1104 12.4048 19.4295 26.2192
413 1 -1.1104 6.68128 10.9642 20.7193
445 1 -1.1104 9.50959 8.17431 20.6693
599 1 -1.1104 6.74077 11.0371 26.2151
594 1 -1.1104 6.74504 11.0145 23.3628
590 1 -1.1104 6.7348 8.29966 26.1031
433 1 -1.1104 12.3584 8.23908 20.6778
440 1 -1.1104 12.2907 10.9215 20.9163
598 1 -1.1104 6.67323 5.491 26.3525
616 1 -1.1104 9.62417 10.9722 26.222
617 1 -1.1104 9.46496 5.57737 26.357
618 1 -1.1104 9.46682 11.1359 23.4702
619 1 -1.1104 9.56708 5.27203 23.64
620 2 2.2208 8.02915 9.54011 21.9366
621 1 -1.1104 9.4371 8.23466 26.4323
622 2 2.2208 7.98029 12.5537 24.7631
623 2 2.2208 8.05932 6.89322 24.8805
624 2 2.2208 10.9112 6.8018 22.2688
625 2 2.2208 10.7935 12.4297 22.1884
626 1 -1.1104 12.3165 8.16842 23.4298
627 1 -1.1104 12.1773 8.24995 26.1614
628 1 -1.1104 12.3184 5.40448 23.4924
629 1 -1.1104 12.2765 10.8885 23.5996
630 2 2.2208 10.7876 9.56989 24.845
631 1 -1.1104 12.2937 5.41982 26.1765
632 1 -1.1104 12.3079 11.0299 26.2718
633 1 -1.1104 9.35139 8.26409 23.4596
681 2 2.2208 10.8594 20.8674 24.8507
658 1 -1.1104 6.46037 16.527 23.3497
481 1 -1.1104 3.93597 13.858 20.6611
468 1 -1.1104 6.65773 19.5616 20.5403
9177 2 2.2208 -0.257987 18.0523 22.0246
643 1 -1.1104 6.7289 16.7092 26.1936
474 1 -1.1104 1.06654 16.7126 20.5216
488 1 -1.1104 3.84906 16.6211 20.5719
464 1 -1.1104 1.19966 19.5353 20.5738
648 2 2.2208 5.29271 20.8666 24.89
662 2 2.2208 2.35593 15.2691 21.9795
661 2 2.2208 2.39163 20.9158 22.0126
660 1 -1.1104 3.7031 16.579 23.38
659 1 -1.1104 1.07379 16.7292 23.2918
657 1 -1.1104 3.76502 13.7606 26.1991
656 1 -1.1104 3.77242 16.6497 26.3228
655 2 2.2208 2.40449 18.0693 24.9886
654 1 -1.1104 3.74363 19.462 26.3888
653 2 2.2208 5.23135 18.0956 22.0819
652 1 -1.1104 0.945577 13.8807 23.1772
651 1 -1.1104 1.1615 19.4766 23.5792
649 2 2.2208 5.08846 15.3054 24.759
640 1 -1.1104 3.86538 19.4927 23.4594
642 1 -1.1104 3.79042 13.875 23.3057
644 1 -1.1104 0.931406 19.5449 26.3664
645 1 -1.1104 1.03336 16.625 26.3025
646 1 -1.1104 1.15924 14.0053 26.0424
676 1 -1.1104 6.7464 19.2265 26.316
647 1 -1.1104 6.65644 19.4605 23.5062
508 1 -1.1104 9.36117 13.8039 20.613
683 1 -1.1104 12.1893 16.59 23.5139
510 1 -1.1104 9.36642 19.3473 20.629
677 2 2.2208 8.02052 17.9282 24.7638
553 2 2.2208 10.8266 17.9665 22.0387
680 1 -1.1104 12.2885 16.6177 26.3724
678 1 -1.1104 9.491 19.4628 23.4489
650 1 -1.1104 6.46018 13.8172 23.5062
637 1 -1.1104 12.2271 13.7622 23.5742
671 1 -1.1104 9.3749 16.5907 23.4241
476 1 -1.1104 6.67545 16.7298 20.595
682 2 2.2208 10.9923 15.1833 24.9457
668 2 2.2208 -0.334391 20.8577 24.9003
518 2 2.2208 8.04298 18.1517 13.6253
8829 2 2.2208 2.43081 -4.39451 13.7234
8833 2 2.2208 8.15277 -4.37522 13.6706
359 2 2.2208 5.21597 4.09405 13.7289
455 2 2.2208 8.0715 12.4411 13.7722
634 2 2.2208 10.834 6.77665 27.6725
9226 2 2.2208 -0.327125 4.02128 13.6177
391 2 2.2208 10.925 -1.46817 13.6582
491 2 2.2208 5.48069 15.3311 13.6494
392 2 2.2208 10.9815 4.03766 13.6594
386 2 2.2208 -0.46787 9.60185 13.6481
427 2 2.2208 5.26708 9.68861 13.7332
612 2 2.2208 -0.272618 12.4165 27.6145
9219 2 2.2208 -0.261571 1.37852 27.5645
544 2 2.2208 5.33507 1.36019 27.6281
552 2 2.2208 8.05234 20.6811 27.6659
428 2 2.2208 2.34408 12.4912 13.7095
665 2 2.2208 2.38202 15.2174 27.661
689 2 2.2208 5.30337 23.6473 5.24284
690 2 2.2208 5.17245 29.3527 5.24242
691 1 -1.1104 1.07622 25.1989 1.16999
692 1 -1.1104 0.934698 25.0934 3.8153
693 1 -1.1104 1.10789 22.4251 1.07792
694 1 -1.1104 1.05451 27.8651 1.03204
695 2 2.2208 5.18314 26.4328 2.40337
696 1 -1.1104 1.12568 22.3544 3.83135
697 1 -1.1104 0.884668 28.0343 3.74881
698 1 -1.1104 3.86777 25.0219 0.921944
699 2 2.2208 2.47471 23.7072 2.5675
700 2 2.2208 2.43847 29.1988 2.33396
701 1 -1.1104 3.89985 25.068 3.92203
702 2 2.2208 2.44007 26.4939 5.07876
703 1 -1.1104 3.78361 22.2327 1.19704
704 1 -1.1104 3.81088 27.8886 1.07189
705 1 -1.1104 3.84465 22.2895 3.89325
706 1 -1.1104 3.79706 27.7987 3.73387
836 1 -1.1104 3.91861 25.1193 6.59804
715 1 -1.1104 6.60885 27.8402 3.89223
714 1 -1.1104 6.74573 22.3023 3.71844
713 1 -1.1104 6.72919 27.8241 1.18582
710 1 -1.1104 6.64819 24.9287 1.12704
833 1 -1.1104 1.08318 28.0919 6.58824
830 1 -1.1104 1.16276 25.1626 6.55216
832 1 -1.1104 0.860559 22.4137 6.63853
831 1 -1.1104 6.6549 25.2077 6.69081
838 1 -1.1104 3.80278 27.7425 6.57447
837 1 -1.1104 3.62781 22.1209 6.65311
10164 2 2.2208 13.6044 40.4856 13.7275
834 1 -1.1104 6.53984 22.3354 6.49932
1335 1 -1.1104 6.48021 47.509 0.94408
711 1 -1.1104 6.70417 25.0774 3.92132
712 1 -1.1104 6.76493 22.1494 0.938087
716 2 2.2208 11.0022 23.716 5.23601
717 2 2.2208 10.7725 29.3254 5.25046
718 1 -1.1104 12.3353 25.2408 1.23053
719 1 -1.1104 12.3318 24.9807 3.93065
720 1 -1.1104 12.5442 22.2964 0.922456
721 1 -1.1104 12.0516 28.1706 1.30692
722 2 2.2208 10.8759 26.5248 2.5575
723 1 -1.1104 12.4152 22.1354 3.961
724 1 -1.1104 12.3392 27.9482 4.12693
725 1 -1.1104 9.58238 24.9664 1.10602
726 2 2.2208 8.04326 23.5999 2.42289
727 2 2.2208 8.12056 29.2477 2.55179
728 1 -1.1104 9.66557 25.0649 3.92108
729 2 2.2208 7.94874 26.5164 5.38895
730 1 -1.1104 9.62127 22.1799 1.07619
731 1 -1.1104 9.4985 27.8942 1.11642
732 1 -1.1104 9.62256 22.1827 3.84512
733 1 -1.1104 9.3609 27.845 3.91264
973 1 -1.1104 9.36615 44.8417 9.3898
980 2 2.2208 7.97804 40.7789 7.92651
866 1 -1.1104 9.43795 25.0103 6.66675
863 1 -1.1104 12.2871 25.1562 6.77274
868 1 -1.1104 9.4177 27.8695 6.67496
1337 1 -1.1104 1.04492 47.4937 3.83082
9813 2 2.2208 13.6274 46.1193 2.39079
1578 1 -1.1104 9.35468 47.5522 9.40341
737 2 2.2208 5.25911 34.9541 5.17771
738 1 -1.1104 1.03291 30.7076 0.891447
739 1 -1.1104 1.1019 36.3848 1.01962
741 1 -1.1104 0.970836 30.7023 3.75423
742 1 -1.1104 1.14061 36.3983 3.90164
744 1 -1.1104 1.1213 33.5514 0.901835
745 2 2.2208 5.34276 32.089 2.41748
746 2 2.2208 5.42526 37.7417 2.42051
747 1 -1.1104 0.962072 33.6351 3.74289
749 1 -1.1104 3.7558 30.6824 0.978261
750 1 -1.1104 3.91267 36.1552 1.15983
751 2 2.2208 2.48007 34.9532 2.40426
752 1 -1.1104 3.89489 30.7299 3.8092
753 1 -1.1104 4.07855 36.3707 3.83238
754 2 2.2208 2.41723 32.1288 4.98909
755 2 2.2208 2.494 37.5751 5.19496
756 1 -1.1104 3.8738 33.3507 0.933726
757 1 -1.1104 3.8059 33.6515 3.78067
883 1 -1.1104 1.11045 36.3242 6.60254
761 1 -1.1104 6.64333 30.5729 1.1909
9685 2 2.2208 -0.223694 26.6796 8.0402
888 1 -1.1104 3.84947 30.6331 6.54502
743 1 -1.1104 6.75908 36.4533 3.6397
748 1 -1.1104 6.85958 33.5483 3.94028
889 1 -1.1104 3.91372 36.176 6.57065
882 1 -1.1104 1.09116 30.8326 6.64196
887 1 -1.1104 6.65043 33.5662 6.72416
885 1 -1.1104 6.68365 36.3918 6.45718
979 2 2.2208 8.01238 46.1215 7.95065
986 2 2.2208 13.6024 43.4824 5.2483
763 1 -1.1104 6.61464 33.4878 1.08493
740 1 -1.1104 6.75126 36.2277 0.850112
762 1 -1.1104 6.74224 30.6685 3.84539
764 2 2.2208 10.904 34.9531 5.17294
765 1 -1.1104 12.3419 30.729 1.00014
766 1 -1.1104 12.3362 36.3663 1.08224
767 1 -1.1104 12.207 30.7825 4.07306
768 1 -1.1104 12.1886 36.2778 3.72221
769 1 -1.1104 12.2027 33.4777 1.19114
770 2 2.2208 10.8449 32.1192 2.43467
771 2 2.2208 10.937 37.8399 2.39344