ITEM: TIMESTEP
100000
ITEM: NUMBER OF ATOMS
17672
ITEM: BOX BOUNDS pp pp pp
-3.5734168036620573e-01 2.7697341680365611e+01
-4.3506926583696899e+00 3.3243069265838369e+02
-3.5048838224073847e-01 2.7690488382240250e+01
ITEM: ATOMS id type q x y z
1 2 2.2208 5.29155 1.22784 5.20129
2 1 -1.1104 1.21591 -2.95024 1.14981
3 1 -1.1104 1.06353 2.69155 1.15878
6 1 -1.1104 1.10681 -2.76369 3.95205
7 1 -1.1104 1.11932 2.74913 3.99542
10 1 -1.1104 1.12315 -0.0800139 0.909517
12 2 2.2208 5.30888 -1.50928 2.45783
13 2 2.2208 5.38999 4.03867 2.40796
14 1 -1.1104 1.2753 0.0231832 3.79793
16 1 -1.1104 4.03829 -2.95403 1.14419
17 1 -1.1104 3.95585 2.72963 1.07904
18 2 2.2208 2.5521 1.42489 2.40906
19 1 -1.1104 4.00741 -2.90619 3.93955
20 1 -1.1104 4.00036 2.64505 3.75849
21 2 2.2208 2.55281 -1.61366 5.33374
22 2 2.2208 2.51185 4.15828 5.21071
23 1 -1.1104 3.80645 -0.23772 1.00182
24 1 -1.1104 4.02445 -0.136015 3.79283
27 2 2.2208 -0.333523 4.15518 2.32518
26 2 2.2208 -0.330624 1.2382 5.17149
25 2 2.2208 -0.164597 -1.43838 2.45986
172 1 -1.1104 4.11508 -2.73398 6.65014
167 1 -1.1104 1.10268 2.76085 6.7057
173 1 -1.1104 3.87149 2.9029 6.66658
168 1 -1.1104 6.74499 -2.89349 6.71051
5 1 -1.1104 6.86746 2.59203 1.08893
11 1 -1.1104 6.58665 -0.311254 0.864413
8 1 -1.1104 6.92035 -3.03772 3.93873
9 1 -1.1104 6.76302 2.53416 3.77446
4 1 -1.1104 6.74955 -3.00478 1.15468
15 1 -1.1104 6.82015 -0.161364 3.86606
31 2 2.2208 11.1283 1.2493 5.26899
32 1 -1.1104 12.4155 -2.84381 1.00954
33 1 -1.1104 12.3608 2.60407 0.885145
34 1 -1.1104 12.4565 -2.94636 3.73819
35 1 -1.1104 12.4434 2.50478 3.86378
36 1 -1.1104 12.2096 -0.141309 1.07404
37 2 2.2208 10.9678 -1.551 2.45553
38 2 2.2208 10.9505 3.98527 2.42751
39 1 -1.1104 12.3663 -0.204264 4.05997
40 1 -1.1104 9.5554 -2.90158 0.905913
41 1 -1.1104 9.5673 2.67079 1.08444
42 2 2.2208 8.30371 1.22665 2.47677
43 1 -1.1104 9.5429 -2.97399 3.82268
44 1 -1.1104 9.65023 2.66173 3.82641
45 2 2.2208 8.12138 -1.52622 5.28497
46 2 2.2208 8.18374 4.06566 5.21698
47 1 -1.1104 9.48146 -0.0827256 1.15661
48 1 -1.1104 9.6683 -0.177817 3.90753
169 1 -1.1104 6.71517 2.64291 6.54937
209 1 -1.1104 9.69417 2.6495 6.54996
208 1 -1.1104 9.75288 -2.93333 6.59864
206 1 -1.1104 12.3085 2.71367 6.62407
205 1 -1.1104 12.4718 -3.02702 6.68997
210 1 -1.1104 9.67318 -0.138666 6.66254
171 1 -1.1104 6.83516 -0.0611709 6.73699
207 1 -1.1104 12.4063 -0.152452 6.74095
82 2 2.2208 -0.199034 9.72959 2.46797
81 2 2.2208 -0.340094 6.92414 5.29952
54 2 2.2208 5.31376 6.90055 5.15882
55 2 2.2208 5.32416 12.411 5.30241
56 1 -1.1104 1.31367 8.47109 1.16235
58 1 -1.1104 1.06123 8.44898 3.92428
60 1 -1.1104 1.13233 5.5452 0.990874
61 1 -1.1104 1.31679 11.1857 1.0061
66 2 2.2208 5.36018 9.70342 2.37757
67 1 -1.1104 1.05011 5.4937 3.70597
68 1 -1.1104 1.18152 11.0814 3.89242
71 1 -1.1104 4.01192 8.29981 0.921359
72 2 2.2208 2.47078 6.88068 2.43808
73 2 2.2208 2.60357 12.4608 2.36962
74 1 -1.1104 3.86446 8.27836 3.72485
75 2 2.2208 2.5972 9.72101 5.1966
76 1 -1.1104 4.07462 5.53234 0.889591
77 1 -1.1104 4.07208 10.9995 0.874301
79 1 -1.1104 3.89129 5.41858 3.82353
80 1 -1.1104 3.96504 11.0113 3.63304
83 2 2.2208 -0.207422 12.4531 5.29458
234 1 -1.1104 1.08122 8.29788 6.70218
78 1 -1.1104 4.03625 11.0675 6.64643
62 1 -1.1104 1.35111 11.1369 6.69342
239 1 -1.1104 3.72913 5.69014 6.49283
236 1 -1.1104 1.07652 5.49688 6.561
238 1 -1.1104 3.9263 8.40528 6.69783
59 1 -1.1104 6.62306 8.21858 3.84875
69 1 -1.1104 6.76806 5.40698 3.86874
57 1 -1.1104 6.78397 8.32294 1.14173
70 1 -1.1104 6.76163 11.0608 3.96778
64 1 -1.1104 6.8852 11.3161 1.07115
63 1 -1.1104 6.81393 5.47753 1.07755
84 2 2.2208 10.9681 6.81904 5.28465
85 2 2.2208 10.986 12.472 5.21834
86 1 -1.1104 12.3885 8.30682 1.06097
87 1 -1.1104 12.1627 8.1119 3.87097
88 1 -1.1104 12.3088 5.47923 1.1211
89 1 -1.1104 12.3405 11.1147 1.15724
91 2 2.2208 10.8042 9.68514 2.48294
92 1 -1.1104 12.3817 5.4272 3.92453
93 1 -1.1104 12.2863 10.9452 3.70751
94 1 -1.1104 9.55769 7.9891 1.14203
95 2 2.2208 8.18088 6.77598 2.53685
96 2 2.2208 8.1477 12.5222 2.53145
97 1 -1.1104 9.32393 8.19817 3.82669
98 2 2.2208 8.19377 9.61963 5.246
99 1 -1.1104 9.53622 5.42734 0.932448
100 1 -1.1104 9.36675 10.8572 1.12282
102 1 -1.1104 9.61006 5.43371 3.87048
103 1 -1.1104 9.62628 11.1388 4.00175
101 1 -1.1104 9.51156 11.298 6.56414
237 1 -1.1104 6.89229 5.5302 6.65967
269 1 -1.1104 9.62909 5.62982 6.67462
90 1 -1.1104 12.4045 11.1557 6.5809
267 1 -1.1104 9.60917 8.28947 6.67133
235 1 -1.1104 6.75108 8.27212 6.48874
65 1 -1.1104 6.85043 11.014 6.72682
136 2 2.2208 -0.301248 20.8194 2.35862
137 2 2.2208 -0.283631 18.1216 5.35019
106 2 2.2208 5.39243 18.1796 5.24362
107 1 -1.1104 1.10943 13.936 1.0281
109 1 -1.1104 1.14994 19.5539 1.03768
113 1 -1.1104 1.2267 13.93 3.68274
114 1 -1.1104 1.02198 19.4923 3.8887
116 1 -1.1104 1.18372 16.6854 0.999301
119 2 2.2208 5.44144 15.2821 2.55026
120 2 2.2208 5.42276 21.0417 2.40625
121 1 -1.1104 1.01465 16.7742 3.77889
123 1 -1.1104 4.00488 13.8819 1.08477
125 1 -1.1104 4.01554 19.4576 0.955392
127 2 2.2208 2.56638 18.1758 2.32209
128 1 -1.1104 3.95975 13.7951 3.87184
129 1 -1.1104 3.99633 19.4915 3.73111
130 2 2.2208 2.61151 15.2716 5.30561
131 2 2.2208 2.52126 20.834 5.25745
132 1 -1.1104 3.93897 16.5808 1.02697
134 1 -1.1104 3.95082 16.6615 3.8816
135 2 2.2208 -0.211982 15.3683 2.53074
117 1 -1.1104 1.23096 16.7496 6.76556
302 1 -1.1104 1.26481 19.4809 6.68949
126 1 -1.1104 4.03506 19.3656 6.73166
133 1 -1.1104 4.0572 16.6811 6.56631
108 1 -1.1104 1.19894 14.027 6.5697
156 1 -1.1104 9.68835 19.4915 6.71593
111 1 -1.1104 6.69861 13.7818 6.68525
140 1 -1.1104 6.80497 16.7847 1.2335
138 1 -1.1104 6.8035 19.4588 1.14868
139 1 -1.1104 6.9154 19.5887 4.07132
110 1 -1.1104 6.89162 14.0061 1.15806
115 1 -1.1104 6.75155 13.8467 4.00965
122 1 -1.1104 6.74086 16.7778 3.80227
141 2 2.2208 10.9774 18.0685 5.21448
142 1 -1.1104 12.5931 13.8399 1.07065
144 1 -1.1104 12.2838 19.5539 1.13552
146 1 -1.1104 12.256 13.6868 3.78858
147 1 -1.1104 12.4962 19.5477 3.89994
148 1 -1.1104 12.4031 16.7136 1.26438
150 2 2.2208 11.1171 15.2192 2.49633
151 2 2.2208 11.0293 20.9498 2.41407
152 1 -1.1104 12.3244 16.7913 3.96766
153 1 -1.1104 9.68578 13.7868 1.01273
155 1 -1.1104 9.41993 19.5272 1.07734
157 2 2.2208 8.16557 18.1272 2.52817
158 1 -1.1104 9.41812 13.8917 3.8038
159 1 -1.1104 9.6021 19.5643 3.96536
160 2 2.2208 8.12547 15.241 5.28218
161 2 2.2208 8.21462 21.0098 5.31489
162 1 -1.1104 9.64709 16.537 1.07169
164 1 -1.1104 9.55718 16.8133 3.90807
149 1 -1.1104 12.4842 16.8079 6.64475
112 1 -1.1104 6.9036 19.7187 6.78261
118 1 -1.1104 6.81898 16.8521 6.64008
145 1 -1.1104 12.4758 19.6153 6.7228
154 1 -1.1104 9.64841 14.0231 6.64861
200 2 2.2208 -0.23043 -1.58308 8.11134
174 1 -1.1104 3.83263 0.0818656 6.58568
170 1 -1.1104 1.05289 -0.1675 6.46087
166 1 -1.1104 1.26975 -3.08661 6.68912
379 2 2.2208 8.10284 20.9667 -0.33967
165 2 2.2208 13.6311 18.106 2.51055
201 2 2.2208 -0.141878 1.20336 10.8183
175 2 2.2208 5.49797 1.36526 10.9115
176 1 -1.1104 1.10426 -3.12067 12.4465
177 1 -1.1104 1.13395 2.55571 12.2924
180 1 -1.1104 1.17232 -3.07094 9.58888
181 1 -1.1104 1.1848 2.58146 9.43353
184 1 -1.1104 1.2822 -0.376075 12.3051
186 2 2.2208 5.40134 -1.49779 8.0418
188 1 -1.1104 1.24912 -0.196242 9.51396
190 1 -1.1104 4.06072 -2.92524 12.3437
191 1 -1.1104 3.98718 2.74693 12.3039
192 2 2.2208 2.53154 1.28736 8.13225
193 1 -1.1104 4.02686 -3.01359 9.59824
194 1 -1.1104 4.03372 2.6227 9.56159
195 2 2.2208 2.59295 -1.64397 10.9885
196 2 2.2208 2.576 4.13484 10.8189
197 1 -1.1104 4.09708 -0.140142 12.2847
198 1 -1.1104 4.05441 -0.17576 9.38199
187 2 2.2208 5.33373 4.2018 8.04012
202 2 2.2208 2.56461 -4.33391 8.095
399 2 2.2208 8.04033 9.61944 -0.228957
231 2 2.2208 8.18202 -4.23072 8.04974
52 2 2.2208 11.0586 -4.29827 5.16699
51 2 2.2208 8.19958 -4.17689 2.44754
185 1 -1.1104 6.81459 -0.114675 12.1822
178 1 -1.1104 6.85896 -3.04979 12.292
189 1 -1.1104 6.85136 -0.00164881 9.46233
182 1 -1.1104 6.76755 -2.82744 9.55361
183 1 -1.1104 6.85036 2.74367 9.3418
179 1 -1.1104 6.81743 2.65869 12.2801
211 2 2.2208 10.9934 1.29422 10.8177
212 1 -1.1104 12.3892 -2.68717 12.3174
213 1 -1.1104 12.4121 2.69502 12.3501
214 1 -1.1104 12.4682 -2.81168 9.49847
215 1 -1.1104 12.4627 2.77594 9.55032
216 1 -1.1104 12.4084 -0.0276852 12.3592
217 2 2.2208 11.0123 -1.53524 8.13907
218 2 2.2208 10.9823 4.05081 8.12938
219 1 -1.1104 12.4659 0.00521465 9.45389
220 1 -1.1104 9.61326 -3.07016 12.2599
221 1 -1.1104 9.54688 2.66466 12.3467
222 2 2.2208 8.25287 1.31831 7.95488
223 1 -1.1104 9.60875 -2.77064 9.39574
224 1 -1.1104 9.67861 2.65507 9.458
225 2 2.2208 8.19085 -1.43162 10.8283
226 2 2.2208 8.22167 4.07531 10.9317
227 1 -1.1104 9.53209 -0.112255 12.2103
228 1 -1.1104 9.53585 -0.0675105 9.49072
29 2 2.2208 5.46517 -4.29779 5.2976
367 2 2.2208 -0.129133 4.02737 13.6092
321 1 -1.1104 9.74649 19.5085 12.0929
320 2 2.2208 8.32266 18.1511 8.08716
143 1 -1.1104 12.4009 13.8853 6.59204
232 2 2.2208 10.9904 -4.18629 10.8767
343 2 2.2208 -0.256912 9.6236 8.13486
344 2 2.2208 -0.260507 6.86609 10.8981
342 2 2.2208 -0.23121 12.4697 10.8211
240 2 2.2208 5.39436 6.99643 10.885
241 2 2.2208 5.58611 12.3406 10.9027
242 1 -1.1104 1.14586 8.24113 12.2534
244 1 -1.1104 1.1816 8.22859 9.54887
246 1 -1.1104 1.22844 5.39368 12.2449
247 1 -1.1104 1.25116 11.1639 12.2073
250 2 2.2208 5.53362 9.62334 8.09737
251 1 -1.1104 1.15787 5.39493 9.42401
252 1 -1.1104 1.11766 10.8962 9.52776
255 1 -1.1104 3.91228 8.30225 12.3123
256 2 2.2208 2.48422 6.97492 8.11371
257 2 2.2208 2.64859 12.4004 8.2094
258 1 -1.1104 4.09318 8.31297 9.47531
259 2 2.2208 2.62652 9.65212 10.9273
260 1 -1.1104 3.97922 5.52265 12.2437
261 1 -1.1104 4.06482 11.03 12.1326
262 1 -1.1104 3.97651 5.5569 9.44779
263 1 -1.1104 4.04161 11.0453 9.36385
265 1 -1.1104 12.29 8.23592 6.54445
266 1 -1.1104 12.3429 5.34665 6.71873
248 1 -1.1104 6.72429 5.52055 12.3796
254 1 -1.1104 6.85807 11.0207 9.489
249 1 -1.1104 6.78472 11.0137 12.4666
243 1 -1.1104 6.87279 8.33686 12.1989
253 1 -1.1104 6.76435 5.53652 9.55918
245 1 -1.1104 6.84544 8.25593 9.39088
264 1 -1.1104 9.64603 11.1794 9.44797
268 1 -1.1104 9.73421 5.40199 9.52171
270 1 -1.1104 9.63951 11.1349 12.4059
271 1 -1.1104 9.51587 5.4653 12.2045
272 2 2.2208 8.18965 9.71315 10.9732
273 1 -1.1104 9.49242 8.35663 9.42225
274 2 2.2208 8.09728 12.5009 8.10095
275 2 2.2208 8.24472 6.89339 8.09902
276 2 2.2208 11.0237 6.94203 10.983
277 2 2.2208 10.9876 12.4253 10.9606
278 1 -1.1104 12.3313 8.47549 12.2013
279 1 -1.1104 12.4317 8.26086 9.51861
280 1 -1.1104 12.3231 5.54679 12.4264
281 1 -1.1104 12.4081 11.1555 12.3628
282 2 2.2208 10.8491 9.78013 8.03079
283 1 -1.1104 12.443 5.45596 9.56616
284 1 -1.1104 12.363 10.9848 9.36512
285 1 -1.1104 9.71164 8.30005 12.3749
317 2 2.2208 8.2352 15.2279 10.8423
315 1 -1.1104 9.64053 16.6201 12.2255
335 2 2.2208 13.5973 9.68197 5.30128
306 1 -1.1104 6.89363 16.5931 12.3385
124 1 -1.1104 3.98336 13.8496 6.62465
312 2 2.2208 -0.159454 17.9001 10.7993
313 2 2.2208 -0.134782 15.1645 8.07879
286 1 -1.1104 4.00279 19.392 12.2505
293 2 2.2208 5.39476 20.9738 8.09467
292 1 -1.1104 1.28289 16.5901 9.50293
291 1 -1.1104 1.09742 19.3257 9.5358
310 2 2.2208 2.71833 15.2777 10.9219
309 2 2.2208 2.53429 20.6579 10.9947
308 1 -1.1104 4.03657 16.6698 12.2455
307 1 -1.1104 1.29215 16.7153 12.2545
305 1 -1.1104 4.07648 13.833 9.48883
304 1 -1.1104 4.07485 16.63 9.40647
303 2 2.2208 2.58976 18.1396 8.0154
301 1 -1.1104 3.94809 19.4066 9.49433
300 2 2.2208 5.36653 17.9631 10.8086
299 1 -1.1104 1.24787 13.9029 12.3182
298 1 -1.1104 1.16634 19.3482 12.2984
295 2 2.2208 5.33598 15.2784 8.02659
294 1 -1.1104 1.26884 13.7386 9.35497
287 1 -1.1104 4.2297 13.8453 12.3092
311 2 2.2208 -0.311587 20.8563 8.07405
318 1 -1.1104 9.60032 19.418 9.45808
324 2 2.2208 11.0372 20.8703 8.07066
323 1 -1.1104 12.4528 16.811 9.40417
329 1 -1.1104 12.5208 19.555 12.2605
326 1 -1.1104 12.6247 16.7128 12.0954
297 1 -1.1104 6.89911 13.6473 12.3944
327 1 -1.1104 12.4102 19.5799 9.58509
322 1 -1.1104 9.66281 13.7728 12.3734
163 1 -1.1104 9.79465 16.7627 6.72552
395 2 2.2208 5.36836 12.5708 -0.18314
331 2 2.2208 11.0226 18.1835 10.8106
319 1 -1.1104 9.54136 13.9128 9.42096
316 2 2.2208 8.13758 20.8324 10.9455
330 1 -1.1104 12.4373 13.982 12.2551
314 1 -1.1104 9.58288 16.677 9.48903
325 2 2.2208 10.9426 15.4237 8.07271
296 1 -1.1104 6.82501 19.4483 12.4063
290 1 -1.1104 6.76353 13.8206 9.46566
328 1 -1.1104 12.3774 13.9379 9.32146
288 1 -1.1104 6.62073 19.5758 9.51003
289 1 -1.1104 6.79204 16.6353 9.45274
400 2 2.2208 11.0603 12.4778 -0.339465
352 2 2.2208 5.45301 4.08423 13.5884
356 2 2.2208 11.0615 -1.33464 13.6659
377 2 2.2208 8.14963 15.3204 -0.248921
378 2 2.2208 10.9145 18.072 -0.219582
389 2 2.2208 8.09399 4.18407 -0.326638
393 2 2.2208 5.45689 6.83056 -0.312987
349 2 2.2208 2.62934 1.2988 13.6168
372 2 2.2208 11.0503 20.8688 13.6
404 2 2.2208 5.38486 18.0563 -0.208917
368 2 2.2208 2.60721 18.018 13.6664
390 2 2.2208 11.0944 -4.25675 -0.341653
351 2 2.2208 -0.0957986 15.2853 13.6377
358 2 2.2208 -0.173612 9.61685 13.6666
385 2 2.2208 5.41615 -4.30073 -0.309655
401 2 2.2208 -0.269241 17.9198 -0.269121
357 2 2.2208 10.9925 4.04113 13.6658
348 2 2.2208 5.44519 -1.57126 13.6587
381 2 2.2208 5.26565 1.15814 -0.342839
406 2 2.2208 5.33063 1.24761 16.4578
407 1 -1.1104 1.1101 -2.83322 17.9744
408 1 -1.1104 1.15032 2.5644 17.9241
411 1 -1.1104 1.17627 -2.95569 15.1791
413 1 -1.1104 1.27199 2.59238 15.1033
419 1 -1.1104 1.1248 -0.102488 17.9786
421 2 2.2208 5.33601 -1.58527 19.2845
423 1 -1.1104 1.18885 -0.120444 15.2003
427 1 -1.1104 4.00077 -3.07417 17.9033
428 1 -1.1104 3.98906 2.53007 17.9128
429 2 2.2208 2.59931 1.21834 19.2988
430 1 -1.1104 4.01485 -2.98029 15.0503
432 1 -1.1104 4.0272 2.57776 15.1021
434 2 2.2208 2.54643 -1.55816 16.4561
435 2 2.2208 2.54645 3.86722 16.416
436 1 -1.1104 3.94901 -0.215957 17.978
437 1 -1.1104 4.00585 -0.126957 15.0701
422 2 2.2208 5.3217 4.07936 19.2204
442 2 2.2208 -0.0762717 1.19651 16.5287
443 2 2.2208 -0.25621 -1.53296 19.422
544 2 2.2208 -0.0849729 4.01505 19.3624
424 1 -1.1104 1.29566 -0.17638 20.7189
414 1 -1.1104 1.25915 2.59137 20.9752
431 1 -1.1104 3.8533 -3.01448 20.742
412 1 -1.1104 1.13866 -3.03794 20.7214
640 2 2.2208 2.59666 -4.29166 24.9163
433 1 -1.1104 4.01949 2.74183 20.7143
672 2 2.2208 13.6668 1.34854 24.9381
438 1 -1.1104 4.06533 -0.171767 20.6382
639 2 2.2208 5.35634 -4.33446 22.0517
410 1 -1.1104 6.83632 2.63254 17.8573
420 1 -1.1104 6.72723 -0.175339 17.8173
409 1 -1.1104 6.71993 -2.86594 17.9083
417 1 -1.1104 6.78711 2.58618 15.076
415 1 -1.1104 6.86501 -3.04312 15.0118
425 1 -1.1104 6.67255 -0.227089 15.0179
449 2 2.2208 10.9925 1.23372 16.4963
450 1 -1.1104 12.3281 -2.96837 17.8157
451 1 -1.1104 12.3153 2.76451 18.0028
452 1 -1.1104 12.4488 -2.94325 15.1368
454 1 -1.1104 12.5265 2.68012 15.2086
456 1 -1.1104 12.564 -0.193899 17.8503
457 2 2.2208 11.1312 -1.58555 19.2131
458 2 2.2208 10.8716 4.02254 19.3098
459 1 -1.1104 12.4319 -0.0275053 15.1441
461 1 -1.1104 9.59863 -2.93599 17.8233
462 1 -1.1104 9.56243 2.61665 17.9881
463 2 2.2208 8.22293 1.24311 19.3416
464 1 -1.1104 9.62315 -2.81994 14.9771
466 1 -1.1104 9.58092 2.81453 15.1829
468 2 2.2208 8.20853 -1.43495 16.5623
469 2 2.2208 8.25001 4.05881 16.5101
470 1 -1.1104 9.72318 -0.131729 17.9086
471 1 -1.1104 9.53424 -0.025819 15.1438
418 1 -1.1104 6.71457 2.70449 20.8371
426 1 -1.1104 6.83028 -0.155571 20.5779
467 1 -1.1104 9.74772 2.77221 20.6982
416 1 -1.1104 6.72007 -2.96266 20.7325
472 1 -1.1104 9.6443 -0.0428345 20.7716
460 1 -1.1104 12.5111 -0.14736 20.6313
465 1 -1.1104 9.46258 -2.81586 20.6685
453 1 -1.1104 12.5165 -2.92785 20.6513
698 1 -1.1104 9.55086 19.5503 26.3901
481 2 2.2208 -0.254434 6.73533 16.4552
482 2 2.2208 5.2622 6.81892 16.4382
483 2 2.2208 5.4057 12.4152 16.6005
484 1 -1.1104 1.18137 8.13986 17.7509
486 1 -1.1104 1.19204 7.97137 15.0186
490 1 -1.1104 1.31053 5.2646 17.8815
491 1 -1.1104 1.33734 11.0596 17.71
494 2 2.2208 5.46954 9.74773 19.4235
495 1 -1.1104 1.17621 5.21264 15.0116
497 1 -1.1104 1.39273 10.9092 14.9064
503 1 -1.1104 3.83734 8.21895 17.9565
504 2 2.2208 2.82793 6.71502 19.3881
505 2 2.2208 2.60986 12.4114 19.1442
506 1 -1.1104 3.89685 8.21759 15.0409
508 2 2.2208 2.51485 9.51031 16.3395
509 1 -1.1104 3.99471 5.37813 17.93
510 1 -1.1104 4.14064 10.9019 17.8322
511 1 -1.1104 4.04305 5.29395 15.0497
513 1 -1.1104 3.89739 11.1528 14.9028
515 2 2.2208 -0.100571 9.46391 19.2297
516 2 2.2208 -0.162381 12.4133 16.5145
487 1 -1.1104 1.32957 8.02422 20.6677
498 1 -1.1104 1.13855 10.8995 20.6619
496 1 -1.1104 1.46888 5.3226 20.7131
512 1 -1.1104 4.15997 5.36981 20.8043
507 1 -1.1104 4.00646 8.39897 20.7417
485 1 -1.1104 6.59078 8.3017 17.7677
488 1 -1.1104 6.4977 7.99335 15.0057
492 1 -1.1104 6.74295 5.49182 17.7226
493 1 -1.1104 6.9778 10.9874 18.1423
501 1 -1.1104 6.8821 11.0079 15.3446
499 1 -1.1104 6.90324 5.21408 15.0448
518 2 2.2208 10.998 6.84529 16.5168
519 2 2.2208 11.1816 12.5292 16.6478
520 1 -1.1104 12.4476 8.2754 17.8481
521 1 -1.1104 12.364 8.42792 15.1499
523 1 -1.1104 12.234 5.40256 18.0451
524 1 -1.1104 12.5511 10.953 17.9371
525 2 2.2208 11.0522 9.53404 19.2714
526 1 -1.1104 12.4775 5.49957 15.251
528 1 -1.1104 12.4471 11.0962 15.2367
530 1 -1.1104 9.62521 8.22288 17.8379
531 2 2.2208 8.19609 6.79312 19.1841
532 2 2.2208 8.23041 12.453 19.3475
533 1 -1.1104 9.47661 8.28289 15.0737
535 2 2.2208 8.29775 9.64984 16.6476
536 1 -1.1104 9.51469 5.5263 17.9162
537 1 -1.1104 9.6599 10.9887 17.9047
538 1 -1.1104 9.70094 5.44969 15.0012
540 1 -1.1104 9.63417 11.0708 15.2467
502 1 -1.1104 6.83601 11.003 20.789
529 1 -1.1104 12.4012 11.0685 20.6627
489 1 -1.1104 6.88289 8.25933 20.5898
541 1 -1.1104 9.64446 11.0551 20.7351
527 1 -1.1104 12.3797 5.55578 20.7604
664 1 -1.1104 9.60849 13.7844 23.4819
700 2 2.2208 8.0721 20.845 22.0922
448 2 2.2208 -0.283592 15.2171 19.2117
545 2 2.2208 5.52688 18.1166 16.4869
546 1 -1.1104 1.18019 13.931 17.9178
547 1 -1.1104 1.19324 19.5599 17.7807
550 1 -1.1104 1.32761 13.9463 15.1704
552 1 -1.1104 1.16341 19.4938 15.0334
558 1 -1.1104 1.20515 16.7096 18.004
560 2 2.2208 5.37164 15.3576 19.2978
561 2 2.2208 5.29455 20.864 19.3828
562 1 -1.1104 1.30689 16.5515 15.1692
566 1 -1.1104 3.97097 13.8448 18.1003
567 1 -1.1104 4.0074 19.3799 17.9097
568 2 2.2208 2.4691 18.1356 19.2745
569 1 -1.1104 4.14721 13.9087 15.3225
571 1 -1.1104 3.91194 19.5399 15.1017
573 2 2.2208 2.68668 15.3732 16.5234
574 2 2.2208 2.56967 20.7611 16.4854
575 1 -1.1104 3.92956 16.674 17.7523
576 1 -1.1104 4.0814 16.7576 15.0254
476 2 2.2208 -0.290137 20.8941 19.3782
447 2 2.2208 -0.278075 18.0585 16.4769
563 1 -1.1104 1.31442 16.6089 20.7097
577 1 -1.1104 4.00635 16.7479 20.6172
570 1 -1.1104 4.13151 13.9232 20.702
551 1 -1.1104 1.25772 13.7494 20.7131
553 1 -1.1104 1.05448 19.4737 20.6357
572 1 -1.1104 3.80504 19.5521 20.706
346 2 2.2208 -0.126804 -1.68747 13.7489
565 1 -1.1104 6.78335 16.5861 20.7409
564 1 -1.1104 6.80008 16.6042 14.9878
549 1 -1.1104 6.84344 19.5149 17.888
559 1 -1.1104 6.83445 16.7217 17.7725
548 1 -1.1104 6.8263 13.8934 17.9749
556 1 -1.1104 6.85885 19.5293 15.1181
554 1 -1.1104 6.94364 13.81 15.1924
581 2 2.2208 11.0904 18.1022 16.3236
582 1 -1.1104 12.4591 13.9026 17.9229
583 1 -1.1104 12.3879 19.5103 18.0669
584 1 -1.1104 12.6141 14.0022 15.0734
586 1 -1.1104 12.5035 19.4958 14.9669
588 1 -1.1104 12.3378 16.628 17.7891
589 2 2.2208 10.9826 15.3183 19.4927
590 2 2.2208 10.9498 20.8724 19.2492
591 1 -1.1104 12.574 16.8278 15.0688
593 1 -1.1104 9.66193 13.8288 17.9566
594 1 -1.1104 9.58388 19.5441 17.8513
595 2 2.2208 8.20969 18.1933 19.2493
596 1 -1.1104 9.84411 13.9004 15.1565
598 1 -1.1104 9.73658 19.4821 15.1268
600 2 2.2208 8.37286 15.2253 16.5255
601 2 2.2208 8.25759 21.0895 16.304
602 1 -1.1104 9.54363 16.6968 17.9336
603 1 -1.1104 9.83944 16.674 15.0641
555 1 -1.1104 6.82177 13.8315 20.6839
557 1 -1.1104 6.69058 19.495 20.7836
599 1 -1.1104 9.50712 19.4176 20.8139
587 1 -1.1104 12.3038 19.4361 20.7434
592 1 -1.1104 12.2963 16.7049 20.6661
585 1 -1.1104 12.5012 13.8333 20.7147
643 2 2.2208 -0.182843 1.23214 22.2321
642 2 2.2208 -0.249856 -1.56274 24.9305
609 2 2.2208 5.33295 1.29362 22.0884
610 1 -1.1104 1.11191 -3.10061 23.5145
611 1 -1.1104 1.14604 2.65789 23.6507
614 1 -1.1104 1.32241 -3.03084 26.2963
615 1 -1.1104 1.18778 2.66205 26.4434
618 1 -1.1104 1.01232 -0.149268 23.5386
620 2 2.2208 5.40407 -1.62634 24.7584
621 2 2.2208 5.4456 4.08531 24.9148
622 1 -1.1104 1.02733 -0.195015 26.2706
624 1 -1.1104 4.01862 -2.97845 23.521
625 1 -1.1104 3.93595 2.42489 23.5726
626 2 2.2208 2.52884 1.18795 24.908
627 1 -1.1104 4.20999 -3.00373 26.116
628 1 -1.1104 3.8527 2.68033 26.3668
629 2 2.2208 2.48945 -1.54879 22.1546
631 1 -1.1104 3.96405 -0.275976 23.5076
632 1 -1.1104 3.75428 -0.182606 26.1919
630 2 2.2208 2.61236 4.04953 22.1933
644 2 2.2208 -0.232421 4.15221 24.7894
475 2 2.2208 8.1164 -4.33904 19.3186
440 2 2.2208 5.47085 -4.31407 16.4864
635 1 -1.1104 12.3153 19.5564 26.3377
634 1 -1.1104 12.2913 13.8297 26.1136
667 2 2.2208 8.08124 18.168 25.04
455 1 -1.1104 12.3664 2.72473 20.7506
623 1 -1.1104 6.53248 -0.279525 26.1489
619 1 -1.1104 6.74294 -0.109717 23.3693
616 1 -1.1104 6.82915 -2.92641 26.2504
617 1 -1.1104 6.59936 2.54819 26.2897
612 1 -1.1104 6.86417 -2.92868 23.4363
613 1 -1.1104 6.78558 2.59597 23.5821
645 2 2.2208 10.9954 1.25812 22.0479
646 1 -1.1104 12.4093 -2.88691 23.4469
647 1 -1.1104 12.4143 2.69112 23.3786
648 1 -1.1104 12.4461 -2.8664 26.2601
649 1 -1.1104 12.2402 2.68174 26.1452
650 1 -1.1104 12.369 -0.127336 23.3764
651 2 2.2208 11.0571 -1.62886 24.8279
652 2 2.2208 10.9957 4.04663 24.7052
653 1 -1.1104 12.4859 -0.0727139 26.2841
654 1 -1.1104 9.55986 -2.97121 23.4151
655 1 -1.1104 9.58742 2.64621 23.5304
656 2 2.2208 8.12346 1.19403 24.9153
657 1 -1.1104 9.65129 -2.99834 26.1962
658 1 -1.1104 9.45354 2.71785 26.4971
659 2 2.2208 8.16754 -1.52373 21.9657
660 2 2.2208 8.19588 4.01888 22.0293
661 1 -1.1104 9.63989 -0.242286 23.4368
662 1 -1.1104 9.51048 -0.162413 26.2263
597 1 -1.1104 9.54426 13.8434 20.7225
739 1 -1.1104 6.75428 13.7884 23.4884
732 1 -1.1104 6.56028 16.5651 26.453
736 1 -1.1104 6.6625 19.4741 23.583
704 1 -1.1104 9.57499 16.6687 26.3792
608 1 -1.1104 12.4834 13.8458 23.5576
514 1 -1.1104 4.09068 11.1081 20.7052
703 2 2.2208 -0.217301 12.4107 22.1423
702 2 2.2208 -0.143756 9.73319 24.9156
674 2 2.2208 5.33606 6.90795 22.1043
675 2 2.2208 5.45318 12.5393 22.0176
676 1 -1.1104 1.15836 8.23445 23.3917
678 1 -1.1104 1.16104 8.2832 26.2774
680 1 -1.1104 1.15464 5.42435 23.4231
681 1 -1.1104 1.15552 10.9718 23.4371
684 2 2.2208 5.3217 9.59041 24.849
685 1 -1.1104 1.25205 5.45425 26.2051
686 1 -1.1104 1.10964 11.1579 26.2074
689 1 -1.1104 3.85218 8.12772 23.4278
690 2 2.2208 2.6412 6.78282 24.892
691 2 2.2208 2.61698 12.3919 24.8295
692 1 -1.1104 4.00826 8.14732 26.2323
693 2 2.2208 2.60479 9.68122 22.0375
694 1 -1.1104 4.03611 5.37596 23.5844
695 1 -1.1104 3.96096 11.0415 23.2913
696 1 -1.1104 4.15487 5.53086 26.2138
697 1 -1.1104 3.97051 11.0355 26.3181
444 2 2.2208 -0.180822 6.79936 22.0587
604 1 -1.1104 9.53262 16.6764 20.8334
701 1 -1.1104 9.45135 16.753 23.5235
474 2 2.2208 10.9486 -4.31702 16.4381
638 2 2.2208 10.9589 15.2954 24.7795
641 2 2.2208 11.0441 20.9894 24.9632
539 1 -1.1104 9.55524 5.45161 20.6687
534 1 -1.1104 9.67686 8.2287 20.7432
500 1 -1.1104 6.82217 5.46972 20.6048
522 1 -1.1104 12.4282 8.33143 20.817
677 1 -1.1104 6.7487 8.32509 23.3501
683 1 -1.1104 6.83174 11.0743 23.5574
679 1 -1.1104 6.70466 8.19704 26.2499
688 1 -1.1104 6.66642 11.0101 26.1855
687 1 -1.1104 6.91138 5.4084 26.3213
682 1 -1.1104 6.77067 5.50411 23.4239
705 1 -1.1104 9.44026 11.1538 26.4855
706 1 -1.1104 9.67241 5.41029 26.1833
707 1 -1.1104 9.64067 11.0277 23.6684
708 1 -1.1104 9.57188 5.41002 23.4828
709 2 2.2208 8.2734 9.74822 22.2253
710 1 -1.1104 9.54784 8.28452 26.3365
711 2 2.2208 8.14314 12.5426 24.997
712 2 2.2208 8.2088 6.90873 24.8753
713 2 2.2208 10.8377 6.91947 22.2416
714 2 2.2208 11.0943 12.5072 22.1978
715 1 -1.1104 12.2971 8.14521 23.5525
716 1 -1.1104 12.3243 8.3189 26.3571
717 1 -1.1104 12.4334 5.47407 23.3884
718 1 -1.1104 12.4077 11.014 23.4385
719 2 2.2208 10.9694 9.72871 25.0654
720 1 -1.1104 12.4011 5.45231 26.3195
721 1 -1.1104 12.3442 11.1694 26.3325
722 1 -1.1104 9.4425 8.35448 23.6094
730 1 -1.1104 6.75996 13.8886 26.5703
542 2 2.2208 13.6468 6.90452 19.3824
723 2 2.2208 -0.262629 17.9188 22.1598
725 2 2.2208 -0.298154 15.2159 24.9289
724 2 2.2208 -0.243708 20.6856 25.0009
743 1 -1.1104 4.01616 19.4913 26.1793
748 1 -1.1104 1.26429 16.6146 23.476
746 1 -1.1104 3.94019 13.8897 26.3389
745 1 -1.1104 3.86948 16.6775 26.2187
744 2 2.2208 2.64464 18.1208 24.8051
750 2 2.2208 2.43926 20.9078 22.2011
749 1 -1.1104 3.941 16.5444 23.3664
727 2 2.2208 2.57183 15.1353 22.142
729 1 -1.1104 3.98007 19.4486 23.4145
731 1 -1.1104 4.03224 13.7558 23.5049
733 1 -1.1104 1.32633 19.5674 26.3554
734 1 -1.1104 1.18591 16.7392 26.2177
735 1 -1.1104 1.02756 13.9298 26.2832
737 2 2.2208 5.39036 20.8954 24.9254
738 2 2.2208 5.37468 15.2322 24.9383
740 1 -1.1104 1.00116 19.3952 23.3712
741 1 -1.1104 1.19352 13.7649 23.4991
742 2 2.2208 5.25052 18.0243 21.955
673 1 -1.1104 9.58325 13.989 26.2244
636 1 -1.1104 12.274 16.7865 23.5332
373 2 2.2208 11.103 15.2296 13.6946
633 1 -1.1104 12.3532 19.4878 23.5155
670 1 -1.1104 6.71383 19.4871 26.4762
663 1 -1.1104 12.3318 16.7487 26.3537
699 2 2.2208 8.10307 15.3046 22.1775
665 1 -1.1104 9.49917 19.4856 23.6751
607 2 2.2208 10.9064 18.1323 22.1041
747 1 -1.1104 6.81464 16.6454 23.5579
669 2 2.2208 8.27011 -4.32037 24.8676
386 2 2.2208 -0.280003 1.20828 27.6712
668 2 2.2208 11.1164 -4.32019 21.9416
371 2 2.2208 5.43337 15.2623 13.7604
365 2 2.2208 8.29892 12.4487 13.8497
388 2 2.2208 8.10586 -1.56624 27.5212
369 2 2.2208 5.41988 20.7759 13.7457
383 2 2.2208 2.56203 4.05326 27.6784
361 2 2.2208 2.70121 12.5709 13.6918
387 2 2.2208 11.0352 1.25251 27.6721
376 2 2.2208 8.25591 17.9439 13.6737
403 2 2.2208 2.49554 15.295 27.6486
360 2 2.2208 5.24943 9.60272 13.6929
398 2 2.2208 11.0258 6.84035 27.6885
355 2 2.2208 8.15406 1.33188 13.8129
397 2 2.2208 -0.251623 6.91845 27.677
396 2 2.2208 -0.2895 12.5555 27.6555
394 2 2.2208 2.61605 9.77313 27.6332
350 2 2.2208 -0.316843 20.6778 13.6854
363 2 2.2208 8.04879 6.76479 13.7281
359 2 2.2208 2.51779 6.75975 13.7251
382 2 2.2208 2.63433 -1.63558 27.6503
364 2 2.2208 11.0008 9.73607 13.8546
405 2 2.2208 2.60516 20.9075 27.606
751 2 2.2208 5.41696 23.7176 5.19825
752 2 2.2208 5.38223 29.3164 5.2123
753 1 -1.1104 1.13763 25.1898 1.06667
754 1 -1.1104 1.18887 24.899 3.89648
755 1 -1.1104 1.09397 22.3916 1.03204
756 1 -1.1104 1.22678 27.8232 1.06366
757 2 2.2208 5.41854 26.5573 2.45104
758 1 -1.1104 1.26672 22.1526 3.74062
759 1 -1.1104 1.33243 27.8228 3.84267
760 1 -1.1104 4.01533 25.0774 1.11787
761 2 2.2208 2.61901 23.5947 2.44637
762 2 2.2208 2.66544 29.2449 2.39637
763 1 -1.1104 4.00272 25.0071 3.79837
764 2 2.2208 2.55949 26.5025 5.28411
765 1 -1.1104 3.98249 22.2488 0.91328
766 1 -1.1104 4.07647 27.8632 0.926206
767 1 -1.1104 4.01615 22.2513 3.85965
768 1 -1.1104 4.03965 27.911 3.67036
770 2 2.2208 -0.279439 23.5692 5.27699
892 1 -1.1104 1.21975 25.117 6.64403
771 2 2.2208 -0.106771 26.5247 2.48975
769 2 2.2208 -0.195403 29.3047 5.32473
899 1 -1.1104 4.02206 22.1386 6.63144
894 1 -1.1104 1.18881 22.1746 6.56228
898 1 -1.1104 4.14593 25.1166 6.5508
900 1 -1.1104 4.07454 27.8971 6.63656
895 1 -1.1104 1.24062 27.9028 6.64842
774 1 -1.1104 6.70095 22.3986 0.992697
773 1 -1.1104 6.79406 25.2007 3.72103
776 1 -1.1104 6.81603 22.4113 3.79058
775 1 -1.1104 6.81035 27.9312 1.15693
772 1 -1.1104 6.93525 25.1635 0.891998
777 1 -1.1104 6.86862 28.013 3.85716
778 2 2.2208 10.9892 23.7574 5.20323
779 2 2.2208 11.0068 29.2989 5.11798
780 1 -1.1104 12.5178 25.1531 1.12798
781 1 -1.1104 12.3684 25.2458 3.83862
782 1 -1.1104 12.2523 22.3936 1.10888
783 1 -1.1104 12.3922 27.8872 1.0892
784 2 2.2208 11.0176 26.5644 2.51084
785 1 -1.1104 12.4318 22.3817 3.82106
786 1 -1.1104 12.3975 28.0085 3.70394
787 1 -1.1104 9.65698 25.1992 1.06629
788 2 2.2208 8.19247 23.8797 2.37182
789 2 2.2208 8.17335 29.3808 2.46331
790 1 -1.1104 9.50665 25.0836 3.93926
791 2 2.2208 8.12944 26.4955 5.21239
792 1 -1.1104 9.56419 22.2968 0.85591
793 1 -1.1104 9.49585 27.9909 1.0543
794 1 -1.1104 9.65434 22.4111 3.79297
795 1 -1.1104 9.49497 27.8575 3.86884
925 1 -1.1104 12.2543 25.1568 6.55966
896 1 -1.1104 6.86157 22.5241 6.57949
893 1 -1.1104 6.79744 25.1559 6.66283
928 1 -1.1104 9.49379 25.107 6.70275
927 1 -1.1104 12.4577 28.0146 6.67747
929 1 -1.1104 9.61912 22.3205 6.66249
930 1 -1.1104 9.56773 28.0004 6.52111
926 1 -1.1104 12.4382 22.3169 6.61869
821 2 2.2208 -0.208764 32.1298 2.36866
820 2 2.2208 -0.102795 37.6564 2.39644
799 2 2.2208 5.34316 34.9532 5.20179
800 1 -1.1104 1.15037 30.7746 0.824915
801 1 -1.1104 1.1727 36.342 1.06793
803 1 -1.1104 1.19312 30.7826 3.76767
804 1 -1.1104 1.17022 36.2992 3.66169
806 1 -1.1104 1.23611 33.4374 0.859784
807 2 2.2208 5.29125 32.1595 2.43353
808 2 2.2208 5.34727 37.8114 2.43594
809 1 -1.1104 1.17987 33.5363 3.75624
811 1 -1.1104 4.02816 30.7099 1.04537
812 1 -1.1104 3.9351 36.4 1.11337
813 2 2.2208 2.57123 34.9245 2.44956
814 1 -1.1104 3.88938 30.8405 3.7917
815 1 -1.1104 4.04228 36.367 3.89362
816 2 2.2208 2.51683 32.2505 5.13085
817 2 2.2208 2.53466 37.8247 5.19393
818 1 -1.1104 3.85993 33.5118 1.05479
819 1 -1.1104 3.95855 33.5753 3.75608
822 2 2.2208 -0.102886 34.9058 5.05055
949 1 -1.1104 1.18649 30.6912 6.70928
957 1 -1.1104 3.89209 33.4669 6.59501
956 1 -1.1104 3.93704 36.5598 6.67123
805 1 -1.1104 6.97803 36.2444 3.93197
824 1 -1.1104 6.68389 30.7385 3.66804
823 1 -1.1104 6.92387 30.6807 0.861672
810 1 -1.1104 6.83914 33.5231 3.71555
802 1 -1.1104 6.73666 36.4152 1.03131
825 1 -1.1104 6.76562 33.5051 1.0677
826 2 2.2208 11.0188 34.9347 5.08605
827 1 -1.1104 12.4347 30.5857 1.05858
828 1 -1.1104 12.4446 36.3124 1.03614
829 1 -1.1104 12.3262 30.6343 3.84697
830 1 -1.1104 12.4797 36.1557 3.74716
831 1 -1.1104 12.3843 33.3776 1.01335
832 2 2.2208 10.9985 32.0378 2.34286