ITEM: TIMESTEP
30000
ITEM: NUMBER OF ATOMS
17672
ITEM: BOX BOUNDS pp pp pp
-3.5860780840777667e-01 2.7698607808407601e+01
-4.2754014402017857e+00 3.3235540144021104e+02
-3.5855519987909296e-01 2.7698555199878861e+01
ITEM: ATOMS id type q x y z
1 2 2.2208 5.4991 1.25936 5.37395
2 1 -1.1104 1.31421 -2.75901 1.141
3 1 -1.1104 1.41937 2.70432 1.12163
6 1 -1.1104 1.34791 -2.9006 3.98077
7 1 -1.1104 1.3572 2.70285 3.78271
10 1 -1.1104 1.43753 0.0854936 1.14164
12 2 2.2208 5.55229 -1.48621 2.40101
13 2 2.2208 5.47625 4.24324 2.57293
14 1 -1.1104 1.22252 -0.107926 3.8579
16 1 -1.1104 4.19997 -2.89799 1.12066
17 1 -1.1104 4.15468 2.77531 1.0877
18 2 2.2208 2.67756 1.3255 2.55262
19 1 -1.1104 4.06549 -2.84407 3.91761
20 1 -1.1104 4.11737 2.7619 3.91188
21 2 2.2208 2.68598 -1.44003 5.25348
22 2 2.2208 2.82746 4.0895 5.20346
23 1 -1.1104 4.17495 -0.153876 1.09104
24 1 -1.1104 4.15568 -0.0810748 3.86881
330 1 -1.1104 12.2824 14.1344 12.3391
25 2 2.2208 -0.0542106 -1.45633 2.50139
331 2 2.2208 11.0173 18.1802 10.8836
27 2 2.2208 -0.102512 4.01244 2.45539
26 2 2.2208 -0.0582381 1.23975 5.19717
231 2 2.2208 8.33011 -4.35116 8.04385
174 1 -1.1104 4.19772 -0.0537411 6.65636
170 1 -1.1104 1.31454 -0.0373188 6.6236
173 1 -1.1104 4.20348 2.76312 6.65648
52 2 2.2208 11.1596 -4.31203 5.2
395 2 2.2208 5.45321 12.5777 -0.380464
28 2 2.2208 2.65422 -4.24755 2.44763
378 2 2.2208 11.0191 18.075 -0.407709
4 1 -1.1104 7.07453 -2.72123 1.15291
9 1 -1.1104 6.98016 2.82443 3.89386
11 1 -1.1104 6.90324 -0.0213051 1.01964
8 1 -1.1104 6.81278 -2.70345 3.83773
5 1 -1.1104 6.82763 2.78462 0.940567
15 1 -1.1104 6.77858 -0.0573165 3.97767
31 2 2.2208 11.0679 1.33565 5.2825
32 1 -1.1104 12.5538 -2.94469 1.07921
33 1 -1.1104 12.3977 2.81994 0.916919
34 1 -1.1104 12.5031 -2.70349 3.81736
35 1 -1.1104 12.3826 2.64156 3.79496
36 1 -1.1104 12.5901 -0.0547062 1.09655
37 2 2.2208 11.0423 -1.42517 2.41138
38 2 2.2208 11.1263 4.12726 2.43841
39 1 -1.1104 12.4978 -0.086643 3.83451
40 1 -1.1104 9.83053 -2.85166 1.07019
41 1 -1.1104 9.64224 2.77885 0.944581
42 2 2.2208 8.21962 1.41477 2.45538
43 1 -1.1104 9.60406 -2.66369 3.75367
44 1 -1.1104 9.77871 2.88317 3.7933
45 2 2.2208 8.34795 -1.38648 5.3513
46 2 2.2208 8.32432 4.16206 5.21858
47 1 -1.1104 9.68054 0.0119219 1.0365
48 1 -1.1104 9.61646 0.089033 3.83927
207 1 -1.1104 12.6172 0.0315686 6.67891
205 1 -1.1104 12.6029 -2.90825 6.5376
210 1 -1.1104 9.84251 -0.0815224 6.69062
30 2 2.2208 -0.131481 -4.30282 5.30303
81 2 2.2208 -0.0278108 6.91166 5.16398
54 2 2.2208 5.48934 6.96487 5.3014
55 2 2.2208 5.44637 12.534 5.40869
56 1 -1.1104 1.27099 8.36938 1.11142
58 1 -1.1104 1.30433 8.20739 3.77793
60 1 -1.1104 1.18347 5.47252 1.12104
61 1 -1.1104 1.34927 11.0808 1.19771
66 2 2.2208 5.45544 9.7786 2.47268
67 1 -1.1104 1.35619 5.48224 3.86762
68 1 -1.1104 1.33404 11.0084 4.01668
71 1 -1.1104 3.99967 8.45299 1.07957
72 2 2.2208 2.71778 6.98129 2.48054
73 2 2.2208 2.73718 12.4862 2.58397
74 1 -1.1104 4.0781 8.36854 3.85117
75 2 2.2208 2.68678 9.68329 5.41344
76 1 -1.1104 4.03824 5.51545 1.06749
77 1 -1.1104 4.15935 11.213 1.11624
79 1 -1.1104 4.11753 5.64539 3.98964
80 1 -1.1104 4.00583 11.1593 3.94704
234 1 -1.1104 1.33016 8.34116 6.8453
82 2 2.2208 -0.0388628 9.66618 2.56699
239 1 -1.1104 4.17934 5.61033 6.70329
83 2 2.2208 -0.199206 12.5227 5.28692
51 2 2.2208 8.304 -4.19486 2.38788
78 1 -1.1104 4.06249 11.134 6.68376
236 1 -1.1104 1.5522 5.4801 6.68778
315 1 -1.1104 9.63299 16.7624 12.4267
327 1 -1.1104 12.576 19.6626 9.46107
57 1 -1.1104 6.99599 8.27193 1.03986
63 1 -1.1104 6.74264 5.43962 1.07748
64 1 -1.1104 6.88469 10.9928 1.08001
70 1 -1.1104 6.83142 11.1951 3.92449
65 1 -1.1104 6.76486 11.1088 6.80007
69 1 -1.1104 6.83798 5.6927 3.88519
59 1 -1.1104 6.83951 8.45346 3.90815
84 2 2.2208 11.0304 6.8258 5.32345
85 2 2.2208 11.1843 12.514 5.36697
86 1 -1.1104 12.5534 8.25986 1.08957
87 1 -1.1104 12.5003 8.27282 3.97358
88 1 -1.1104 12.3723 5.52775 1.10361
89 1 -1.1104 12.4216 11.182 1.26703
91 2 2.2208 11.1425 9.74979 2.74141
92 1 -1.1104 12.3595 5.48802 3.76747
93 1 -1.1104 12.681 11.2306 4.08681
94 1 -1.1104 9.70027 8.28034 1.09055
95 2 2.2208 8.35572 7.03006 2.44024
96 2 2.2208 8.24919 12.5492 2.51756
97 1 -1.1104 9.73177 8.28897 3.83361
98 2 2.2208 8.23498 9.73649 5.30495
99 1 -1.1104 9.59193 5.51643 1.16829
100 1 -1.1104 9.68872 11.0386 1.28418
102 1 -1.1104 9.80908 5.67553 3.92993
103 1 -1.1104 9.84176 11.1783 3.97469
267 1 -1.1104 9.5411 8.30283 6.67146
320 2 2.2208 8.21988 18.2338 8.10334
237 1 -1.1104 6.86987 5.37946 6.63947
101 1 -1.1104 9.61811 11.1447 6.69795
266 1 -1.1104 12.5614 5.56674 6.63655
316 2 2.2208 8.15479 20.9826 10.8789
135 2 2.2208 -0.124246 15.2049 2.54266
314 1 -1.1104 9.65367 16.7506 9.45526
328 1 -1.1104 12.4237 14.1102 9.44383
322 1 -1.1104 9.61917 13.9045 12.2549
137 2 2.2208 -0.253968 18.111 5.25818
106 2 2.2208 5.35196 18.0744 5.26349
107 1 -1.1104 1.28542 13.8308 1.19337
109 1 -1.1104 1.3314 19.4946 0.99036
113 1 -1.1104 1.30025 13.8182 3.90808
114 1 -1.1104 1.23371 19.628 3.86693
116 1 -1.1104 1.1916 16.5432 1.15196
119 2 2.2208 5.40261 15.2132 2.48389
120 2 2.2208 5.50642 20.9538 2.54903
121 1 -1.1104 1.19624 16.8269 3.80036
123 1 -1.1104 4.10341 13.7851 1.06534
125 1 -1.1104 3.95757 19.3465 1.09452
127 2 2.2208 2.54606 18.1168 2.48717
128 1 -1.1104 4.06522 13.7856 3.9145
129 1 -1.1104 4.06455 19.5081 3.94042
130 2 2.2208 2.60637 15.3764 5.30997
131 2 2.2208 2.73039 20.9135 5.14937
132 1 -1.1104 4.03164 16.6527 1.09426
134 1 -1.1104 4.06308 16.7307 4.01582
124 1 -1.1104 4.07772 13.9174 6.59727
136 2 2.2208 -0.240114 20.8138 2.46574
112 1 -1.1104 6.67221 19.4521 6.6858
111 1 -1.1104 6.91808 13.8695 6.74891
140 1 -1.1104 6.791 16.7981 1.09735
139 1 -1.1104 6.89873 19.4983 3.81627
138 1 -1.1104 6.8764 19.5734 1.05572
122 1 -1.1104 6.76483 16.7075 3.79032
115 1 -1.1104 6.84065 13.9271 4.0145
110 1 -1.1104 7.00964 13.9182 0.9505
141 2 2.2208 11.0054 18.0553 5.18526
142 1 -1.1104 12.5679 13.891 1.04535
144 1 -1.1104 12.4443 19.5144 0.993274
146 1 -1.1104 12.5519 13.9795 3.87638
147 1 -1.1104 12.5472 19.3809 3.87592
148 1 -1.1104 12.4212 16.589 1.052
150 2 2.2208 11.0905 15.2591 2.48553
151 2 2.2208 11.164 20.8558 2.43724
152 1 -1.1104 12.5134 16.6186 3.90488
153 1 -1.1104 9.7211 13.9673 1.07622
155 1 -1.1104 9.66715 19.5183 1.04338
157 2 2.2208 8.2862 18.0943 2.36279
158 1 -1.1104 9.75829 13.8766 3.8424
159 1 -1.1104 9.78062 19.4317 3.80795
160 2 2.2208 8.2774 15.2597 5.30713
161 2 2.2208 8.28229 20.8749 5.23515
162 1 -1.1104 9.73799 16.6696 1.10389
164 1 -1.1104 9.63864 16.7395 3.86804
143 1 -1.1104 12.5707 13.8618 6.74617
118 1 -1.1104 6.74106 16.6753 6.73645
149 1 -1.1104 12.2871 16.7323 6.49302
166 1 -1.1104 1.31669 -2.68005 6.71318
325 2 2.2208 11.0345 15.3026 8.07836
321 1 -1.1104 9.70125 19.5423 12.3179
167 1 -1.1104 1.49674 2.57265 6.59827
172 1 -1.1104 4.07692 -2.91119 6.79876
199 2 2.2208 -0.102463 3.97408 7.8788
175 2 2.2208 5.37964 1.28374 10.8759
176 1 -1.1104 1.4187 -2.82374 12.3467
177 1 -1.1104 1.25623 2.6345 12.1825
180 1 -1.1104 1.16674 -2.90299 9.53174
181 1 -1.1104 1.17418 2.67088 9.35
184 1 -1.1104 1.40621 -0.160073 12.2789
186 2 2.2208 5.51245 -1.46606 8.13088
188 1 -1.1104 1.41626 -0.159625 9.61196
190 1 -1.1104 4.20538 -2.99692 12.3177
191 1 -1.1104 3.9867 2.68464 12.3128
192 2 2.2208 2.68365 1.2579 8.05004
193 1 -1.1104 4.10441 -2.97084 9.4787
194 1 -1.1104 3.9506 2.6679 9.51348
195 2 2.2208 2.71734 -1.53856 10.919
196 2 2.2208 2.58922 4.05575 10.9005
197 1 -1.1104 4.11236 -0.116901 12.2354
198 1 -1.1104 3.98118 -0.194259 9.33941
187 2 2.2208 5.42197 4.22092 8.15545
200 2 2.2208 -0.0898691 -1.53765 8.05638
201 2 2.2208 -0.095268 1.31077 10.803
169 1 -1.1104 6.87509 2.7389 6.64071
329 1 -1.1104 12.3551 19.4412 12.3512
317 2 2.2208 8.17272 15.4621 10.9419
179 1 -1.1104 6.81118 2.76575 12.248
178 1 -1.1104 6.98027 -2.93868 12.3896
171 1 -1.1104 7.03772 0.0725185 6.72659
208 1 -1.1104 9.74922 -2.88139 6.54548
189 1 -1.1104 6.95586 -0.141236 9.4667
168 1 -1.1104 6.89685 -2.76216 6.80138
209 1 -1.1104 9.64044 2.65713 6.70044
183 1 -1.1104 6.89787 2.59937 9.54429
182 1 -1.1104 7.10769 -3.07879 9.54889
185 1 -1.1104 6.92307 -0.0905879 12.2923
206 1 -1.1104 12.3512 2.76906 6.51991
211 2 2.2208 11.0228 1.37499 10.8984
212 1 -1.1104 12.5054 -2.86229 12.1791
213 1 -1.1104 12.5363 2.84711 12.2015
214 1 -1.1104 12.5924 -2.68958 9.34668
215 1 -1.1104 12.4099 2.73138 9.39678
216 1 -1.1104 12.4308 0.0325246 12.2681
217 2 2.2208 11.2589 -1.44042 8.00556
218 2 2.2208 11 4.11027 8.02562
219 1 -1.1104 12.5703 0.0543432 9.4649
220 1 -1.1104 9.82339 -3.02242 12.2438
221 1 -1.1104 9.68271 2.57293 12.3445
222 2 2.2208 8.42844 1.34289 8.13191
223 1 -1.1104 9.84326 -2.79062 9.51396
224 1 -1.1104 9.56447 2.75382 9.61338
225 2 2.2208 8.39554 -1.47425 10.8609
226 2 2.2208 8.23628 4.06041 10.874
227 1 -1.1104 9.72873 -0.113354 12.3307
228 1 -1.1104 9.80965 0.020939 9.52202
323 1 -1.1104 12.3989 17.018 9.38915
343 2 2.2208 -0.158797 9.71584 8.05718
62 1 -1.1104 1.19285 11.1032 6.74941
344 2 2.2208 -0.166868 6.82011 10.8016
342 2 2.2208 -0.142428 12.5299 10.8989
238 1 -1.1104 4.12952 8.32793 6.66984
240 2 2.2208 5.35548 6.8664 10.8483
241 2 2.2208 5.40819 12.4469 10.8749
242 1 -1.1104 1.18423 8.32698 12.1327
244 1 -1.1104 1.12821 8.2189 9.4455
246 1 -1.1104 1.31721 5.53674 12.1862
247 1 -1.1104 1.10113 11.1962 12.2241
250 2 2.2208 5.34563 9.68723 8.14765
251 1 -1.1104 1.16784 5.40973 9.403
252 1 -1.1104 1.24113 11.0937 9.52091
255 1 -1.1104 3.96005 8.25628 12.2282
256 2 2.2208 2.62538 6.82237 8.1055
257 2 2.2208 2.61214 12.4982 8.31696
258 1 -1.1104 3.93047 8.15511 9.28533
259 2 2.2208 2.58279 9.64104 10.8342
260 1 -1.1104 4.02417 5.38942 12.3304
261 1 -1.1104 3.86767 11.0384 12.2647
262 1 -1.1104 4.04206 5.42488 9.53159
263 1 -1.1104 4.02259 11.0602 9.5064
235 1 -1.1104 6.95027 8.18171 6.67023
269 1 -1.1104 9.64881 5.51528 6.72689
254 1 -1.1104 6.84226 11.0949 9.52138
253 1 -1.1104 6.85939 5.47988 9.52629
245 1 -1.1104 6.60625 8.31194 9.53867
248 1 -1.1104 6.90789 5.56623 12.22
243 1 -1.1104 6.67724 8.28579 12.3076
249 1 -1.1104 6.81327 11.0278 12.2319
265 1 -1.1104 12.3698 8.29161 6.69975
90 1 -1.1104 12.4091 11.0497 6.68165
264 1 -1.1104 9.65779 11.1435 9.45607
268 1 -1.1104 9.57653 5.4571 9.41431
270 1 -1.1104 9.71025 11.008 12.3255
271 1 -1.1104 9.54968 5.38344 12.3767
272 2 2.2208 8.11218 9.59955 10.9404
273 1 -1.1104 9.53046 8.44867 9.53025
274 2 2.2208 8.22186 12.5197 8.15273
275 2 2.2208 8.16066 6.94273 8.02522
276 2 2.2208 10.9227 6.78951 10.907
277 2 2.2208 11.0389 12.4961 10.9206
278 1 -1.1104 12.3646 8.39862 12.3403
279 1 -1.1104 12.3074 8.39023 9.56458
280 1 -1.1104 12.3224 5.52757 12.3078
281 1 -1.1104 12.5567 11.2776 12.3554
282 2 2.2208 11.0796 9.82181 8.12406
283 1 -1.1104 12.3043 5.5448 9.40869
284 1 -1.1104 12.5646 11.2614 9.39079
285 1 -1.1104 9.56284 8.12145 12.3171
324 2 2.2208 11.039 20.8588 7.92237
313 2 2.2208 -0.260057 15.1815 8.08044
311 2 2.2208 -0.0371181 20.8164 8.01128
108 1 -1.1104 1.24577 13.9939 6.69066
117 1 -1.1104 0.969319 16.7234 6.71044
312 2 2.2208 -0.260829 18.0618 10.8881
302 1 -1.1104 1.20713 19.3974 6.56548
133 1 -1.1104 3.91938 16.7552 6.67821
126 1 -1.1104 3.91989 19.5897 6.69187
310 2 2.2208 2.60727 15.3619 10.9839
309 2 2.2208 2.61388 20.9827 11.0053
308 1 -1.1104 3.98608 16.7345 12.3729
307 1 -1.1104 1.23083 16.642 12.2125
305 1 -1.1104 3.99698 13.8489 9.5261
304 1 -1.1104 4.11976 16.5975 9.50491
303 2 2.2208 2.64063 18.0174 8.05907
301 1 -1.1104 3.88482 19.5202 9.52663
300 2 2.2208 5.37498 18.2288 10.9541
299 1 -1.1104 1.18413 13.7933 12.3365
298 1 -1.1104 1.1055 19.579 12.2142
295 2 2.2208 5.53412 15.293 8.12637
294 1 -1.1104 1.16626 13.9118 9.56768
287 1 -1.1104 4.02779 13.9288 12.3854
293 2 2.2208 5.29625 20.8721 8.09366
286 1 -1.1104 3.91072 19.5173 12.3444
291 1 -1.1104 1.24074 19.4321 9.47307
292 1 -1.1104 1.26378 16.6875 9.47015
297 1 -1.1104 6.86549 14.1251 12.3285
290 1 -1.1104 6.72977 13.9282 9.51406
318 1 -1.1104 9.68797 19.5292 9.52017
319 1 -1.1104 9.53047 13.9354 9.57104
326 1 -1.1104 12.2127 16.7395 12.4209
289 1 -1.1104 6.72929 16.8963 9.49916
296 1 -1.1104 6.80016 19.4496 12.373
306 1 -1.1104 6.84033 16.8586 12.3182
288 1 -1.1104 6.78368 19.5388 9.48334
145 1 -1.1104 12.4067 19.5784 6.63993
156 1 -1.1104 9.59905 19.4625 6.66912
154 1 -1.1104 9.66119 13.845 6.72859
163 1 -1.1104 9.68648 16.7041 6.62817
29 2 2.2208 5.51091 -4.14538 5.16628
401 2 2.2208 -0.179412 18.103 -0.296727
387 2 2.2208 10.9983 1.2908 -0.398485
403 2 2.2208 2.63824 15.3173 -0.276547
232 2 2.2208 11.2199 -4.29699 10.9084
394 2 2.2208 2.75433 9.67073 -0.300709
381 2 2.2208 5.37499 1.40933 -0.387231
367 2 2.2208 -0.0944379 4.12042 13.567
400 2 2.2208 11.0947 12.547 -0.22952
399 2 2.2208 8.35918 9.69847 -0.221916
404 2 2.2208 5.42833 17.9376 -0.398309
352 2 2.2208 5.36848 4.09342 13.7135
383 2 2.2208 2.72828 4.18974 -0.282706
372 2 2.2208 11.0675 20.8835 13.6917
397 2 2.2208 -0.142568 6.93715 -0.236771
396 2 2.2208 -0.13321 12.4658 -0.22986
386 2 2.2208 -0.109494 1.30552 -0.264969
346 2 2.2208 -0.0860499 -1.40999 13.704
405 2 2.2208 2.65696 20.9085 -0.202666
382 2 2.2208 2.68429 -1.47081 -0.178365
356 2 2.2208 11.1039 -1.49191 13.7355
393 2 2.2208 5.53982 6.91367 -0.37631
406 2 2.2208 5.39593 1.37964 16.4569
407 1 -1.1104 1.29581 -2.79733 17.8828
408 1 -1.1104 1.47396 2.65005 17.9598
411 1 -1.1104 1.29779 -2.776 15.046
413 1 -1.1104 1.30668 2.73014 15.076
419 1 -1.1104 1.34703 -0.0651452 18.1533
421 2 2.2208 5.39794 -1.49254 19.3882
422 2 2.2208 5.48022 4.09313 19.3941
423 1 -1.1104 1.47434 0.0109711 15.2043
427 1 -1.1104 4.21281 -2.90494 18.0553
428 1 -1.1104 4.18041 2.78346 17.9021
429 2 2.2208 2.73372 1.40994 19.558
430 1 -1.1104 4.03132 -3.02548 15.1658
432 1 -1.1104 3.95927 2.69858 15.0787
434 2 2.2208 2.64339 -1.47656 16.6518
435 2 2.2208 2.68102 4.20437 16.4788
436 1 -1.1104 4.25217 -0.0794835 17.9393
437 1 -1.1104 4.12855 -0.0374215 14.998
442 2 2.2208 -0.00295974 1.26074 16.5135
544 2 2.2208 -0.03376 4.20128 19.3333
443 2 2.2208 -0.155371 -1.51644 19.4148
412 1 -1.1104 1.32114 -2.86358 20.662
373 2 2.2208 11.0271 15.3004 13.713
368 2 2.2208 2.70921 18.1719 13.7463
438 1 -1.1104 4.05466 -0.0671384 20.7647
431 1 -1.1104 4.04706 -2.77444 20.6822
424 1 -1.1104 1.12736 0.06058 20.9178
414 1 -1.1104 1.3943 2.9314 20.8111
474 2 2.2208 11.0608 -4.16762 16.5474
670 1 -1.1104 6.69982 19.3565 26.3903
736 1 -1.1104 6.77816 19.4366 23.7013
420 1 -1.1104 6.87649 -0.00255135 18.0022
409 1 -1.1104 6.92138 -2.81002 17.8969
415 1 -1.1104 6.88475 -2.9011 15.0148
425 1 -1.1104 6.84238 -0.0577004 15.2084
417 1 -1.1104 6.82786 2.68511 14.988
410 1 -1.1104 6.94379 2.61928 17.7388
449 2 2.2208 11.08 1.35435 16.4498
450 1 -1.1104 12.6632 -2.84358 17.829
451 1 -1.1104 12.5894 2.73739 17.8687
452 1 -1.1104 12.5433 -3.00175 15.0682
454 1 -1.1104 12.453 2.69653 15.0128
456 1 -1.1104 12.4814 -0.093314 17.8628
457 2 2.2208 11.0791 -1.47169 19.2649
458 2 2.2208 11.1715 4.2438 19.2665
459 1 -1.1104 12.4485 -0.0156516 15.0913
461 1 -1.1104 9.62389 -2.97056 17.8688
462 1 -1.1104 9.91059 2.76345 18.0022
463 2 2.2208 8.15776 1.32385 19.3532
464 1 -1.1104 9.67289 -2.87034 15.0979
466 1 -1.1104 9.72226 2.71936 15.2211
468 2 2.2208 8.26713 -1.33946 16.5077
469 2 2.2208 8.2339 4.13561 16.5158
470 1 -1.1104 9.73073 -0.152019 17.9345
471 1 -1.1104 9.60223 -0.0703969 15.1902
557 1 -1.1104 6.8258 19.5957 20.7595
639 2 2.2208 5.40828 -4.28863 22.1823
418 1 -1.1104 6.89659 2.70291 20.6646
426 1 -1.1104 6.7527 -0.165301 20.7742
467 1 -1.1104 9.6391 2.74329 20.8007
460 1 -1.1104 12.5629 -0.054842 20.7108
416 1 -1.1104 6.95562 -2.88423 20.7291
453 1 -1.1104 12.5086 -2.96498 20.679
465 1 -1.1104 9.73859 -2.90171 20.7542
472 1 -1.1104 9.597 -0.127739 20.7164
515 2 2.2208 -0.232545 9.80536 19.3097
481 2 2.2208 -0.233684 6.96733 16.411
516 2 2.2208 -0.291743 12.4882 16.4818
482 2 2.2208 5.39998 6.8797 16.5769
483 2 2.2208 5.43413 12.5968 16.5297
484 1 -1.1104 1.17153 8.26433 17.8456
486 1 -1.1104 1.13962 8.29721 15.098
490 1 -1.1104 1.35733 5.5496 17.8725
491 1 -1.1104 1.21775 11.1221 18.0008
494 2 2.2208 5.40822 9.71659 19.4298
495 1 -1.1104 1.28181 5.60393 14.9661
497 1 -1.1104 1.20757 11.1808 15.101
503 1 -1.1104 3.95164 8.29566 17.9684
504 2 2.2208 2.64909 6.87609 19.3134
505 2 2.2208 2.5497 12.5798 19.3218
506 1 -1.1104 4.0464 8.51477 15.0702
508 2 2.2208 2.57349 9.7125 16.5494
509 1 -1.1104 4.12216 5.56572 17.9377
510 1 -1.1104 3.93097 11.0707 17.8999
511 1 -1.1104 3.93251 5.56168 15.0498
513 1 -1.1104 4.01129 11.1913 15.0364
498 1 -1.1104 1.06345 11.1398 20.8264
447 2 2.2208 -0.22189 18.084 16.6879
597 1 -1.1104 9.54247 14.0741 20.6932
663 1 -1.1104 12.557 16.8259 26.3947
699 2 2.2208 8.15567 15.2925 22.1394
485 1 -1.1104 6.85333 8.27629 17.9052
501 1 -1.1104 6.68593 11.1015 15.0323
499 1 -1.1104 6.7957 5.42745 15.143
488 1 -1.1104 6.82502 8.2473 15.1065
493 1 -1.1104 6.63045 11.3238 17.933
492 1 -1.1104 6.8879 5.41268 18.0344
518 2 2.2208 10.9417 6.96704 16.4569
519 2 2.2208 11.0467 12.4652 16.5688
520 1 -1.1104 12.4065 8.41705 17.8935
521 1 -1.1104 12.3166 8.3436 15.114
523 1 -1.1104 12.4802 5.5971 17.8951
524 1 -1.1104 12.3669 11.1069 18.0503
525 2 2.2208 10.9318 9.86273 19.4135
526 1 -1.1104 12.4507 5.543 15.088
528 1 -1.1104 12.5086 11.213 15.1843
530 1 -1.1104 9.56738 8.35137 17.973
531 2 2.2208 8.22567 7.00389 19.3869
532 2 2.2208 8.1574 12.4851 19.3237
533 1 -1.1104 9.53842 8.38799 15.2056
535 2 2.2208 8.12471 9.83945 16.6168
536 1 -1.1104 9.71045 5.46729 17.9684
537 1 -1.1104 9.49974 11.1749 17.8893
538 1 -1.1104 9.56766 5.44973 15.1047
540 1 -1.1104 9.57493 11.1116 15.1456
534 1 -1.1104 9.79934 8.49191 20.7895
635 1 -1.1104 12.471 19.6002 26.409
585 1 -1.1104 12.3781 14.0141 20.6893
704 1 -1.1104 9.70725 16.5569 26.3799
476 2 2.2208 -0.189017 20.8621 19.4041
599 1 -1.1104 9.64484 19.5933 20.8068
545 2 2.2208 5.43807 18.0673 16.6446
546 1 -1.1104 1.29394 13.8641 17.8286
547 1 -1.1104 1.11517 19.2941 18.1692
550 1 -1.1104 1.35171 13.9856 15.1876
552 1 -1.1104 1.24851 19.5854 15.1955
558 1 -1.1104 1.19964 16.6014 17.8599
560 2 2.2208 5.42703 15.2688 19.3615
561 2 2.2208 5.41396 20.9629 19.5446
562 1 -1.1104 1.23774 16.7691 15.1628
566 1 -1.1104 4.11124 14.0311 17.9453
567 1 -1.1104 4.01633 19.4603 18.0137
568 2 2.2208 2.73285 18.1473 19.4594
569 1 -1.1104 4.08674 13.9754 15.0859
571 1 -1.1104 3.99786 19.487 15.2889
573 2 2.2208 2.67976 15.2801 16.497
574 2 2.2208 2.66442 20.8808 16.5608
575 1 -1.1104 4.15987 16.8052 18.046
576 1 -1.1104 3.98825 16.6062 14.9871
363 2 2.2208 8.16918 6.82617 13.7045
551 1 -1.1104 1.03115 13.9767 20.7311
448 2 2.2208 -0.129837 15.3596 19.434
553 1 -1.1104 1.31117 19.5552 20.7498
563 1 -1.1104 1.25121 16.7188 20.8282
570 1 -1.1104 3.89019 13.851 20.8317
555 1 -1.1104 6.65661 13.8969 20.8954
641 2 2.2208 11.1 20.9843 25.0498
556 1 -1.1104 6.61636 19.4725 15.1261
554 1 -1.1104 6.86219 13.7284 15.1755
548 1 -1.1104 6.8962 14.0419 17.895
559 1 -1.1104 6.87596 16.7202 18.0103
564 1 -1.1104 6.82159 16.6472 15.2675
549 1 -1.1104 6.8713 19.5112 17.9419
581 2 2.2208 11.0366 18.1759 16.5878
582 1 -1.1104 12.4352 13.9756 17.8644
583 1 -1.1104 12.4909 19.5407 17.9593
584 1 -1.1104 12.4256 14.022 15.1331
586 1 -1.1104 12.2808 19.5303 15.1428
588 1 -1.1104 12.4317 16.8313 17.9251
589 2 2.2208 11.0337 15.3558 19.2714
590 2 2.2208 11.0516 21.0031 19.4038
591 1 -1.1104 12.3978 16.7483 15.183
593 1 -1.1104 9.67352 13.9495 17.9714
594 1 -1.1104 9.73515 19.5337 17.821
595 2 2.2208 8.25404 18.1405 19.3861
596 1 -1.1104 9.74867 13.8709 15.1361
598 1 -1.1104 9.62395 19.6334 15.0914
600 2 2.2208 8.25795 15.2871 16.5191
601 2 2.2208 8.20181 20.879 16.4793
602 1 -1.1104 9.67171 16.8316 17.9588
603 1 -1.1104 9.52469 16.8534 15.2728
664 1 -1.1104 9.55946 13.7737 23.547
634 1 -1.1104 12.5476 13.9415 26.35
565 1 -1.1104 6.82963 16.8162 20.7431
608 1 -1.1104 12.34 13.9966 23.5483
633 1 -1.1104 12.5162 19.4752 23.5749
642 2 2.2208 -0.0740961 -1.46448 25.0089
643 2 2.2208 -0.266285 1.31232 22.2213
433 1 -1.1104 4.27114 2.65823 20.7808
609 2 2.2208 5.50675 1.36119 22.1623
610 1 -1.1104 1.36249 -2.88938 23.6683
611 1 -1.1104 1.26986 2.85906 23.5936
614 1 -1.1104 1.39844 -2.92765 26.4762
615 1 -1.1104 1.09179 2.84476 26.4177
618 1 -1.1104 1.18284 0.0513743 23.6929
620 2 2.2208 5.42547 -1.42405 24.9218
621 2 2.2208 5.53778 4.1123 24.8398
622 1 -1.1104 1.15458 -0.0885415 26.6034
624 1 -1.1104 4.07304 -2.93363 23.6204
625 1 -1.1104 4.03776 2.80883 23.5925
626 2 2.2208 2.54443 1.41402 25.0264
627 1 -1.1104 4.30964 -2.78204 26.3952
628 1 -1.1104 3.97789 2.78617 26.3051
629 2 2.2208 2.79081 -1.41009 22.2185
630 2 2.2208 2.64841 4.18923 22.2757
631 1 -1.1104 4.05128 -0.0387523 23.5397
632 1 -1.1104 3.70648 0.0473929 26.4453
644 2 2.2208 -0.0871378 4.14479 24.8946
747 1 -1.1104 6.84597 16.556 23.6886
636 1 -1.1104 12.414 16.6907 23.6607
607 2 2.2208 10.9593 18.261 22.1854
732 1 -1.1104 6.90151 16.5817 26.4421
673 1 -1.1104 9.76081 13.7155 26.2883
665 1 -1.1104 9.6802 19.6767 23.6682
617 1 -1.1104 6.74579 2.79117 26.2178
616 1 -1.1104 7.01499 -2.88001 26.4184
612 1 -1.1104 6.86155 -2.89605 23.6882
455 1 -1.1104 12.5069 2.81878 20.6573
619 1 -1.1104 6.83673 -0.0671049 23.5857
623 1 -1.1104 6.69686 -0.0633513 26.2318
613 1 -1.1104 6.86848 2.77926 23.4826
645 2 2.2208 11.0931 1.36523 22.1211
646 1 -1.1104 12.5139 -2.90121 23.4833
647 1 -1.1104 12.5531 2.79428 23.4109
648 1 -1.1104 12.43 -2.92534 26.1843
649 1 -1.1104 12.5548 2.75674 26.2009
650 1 -1.1104 12.3792 0.046585 23.4723
651 2 2.2208 10.9931 -1.42675 24.7993
652 2 2.2208 11.0816 4.14466 24.9035
653 1 -1.1104 12.4344 -0.0363128 26.2901
654 1 -1.1104 9.68129 -3.02297 23.436
655 1 -1.1104 9.80245 2.73776 23.587
656 2 2.2208 8.22716 1.38329 24.8663
657 1 -1.1104 9.76111 -2.86487 26.1856
658 1 -1.1104 9.67764 2.78017 26.2574
659 2 2.2208 8.23804 -1.53386 22.1391
660 2 2.2208 8.39036 4.25022 22.1243
661 1 -1.1104 9.58184 -0.104462 23.345
662 1 -1.1104 9.63042 -0.0466014 26.2021
730 1 -1.1104 6.82273 13.8364 26.2584
698 1 -1.1104 9.6521 19.5066 26.4359
444 2 2.2208 -0.265049 7.00822 22.2177
514 1 -1.1104 4.02375 11.1715 20.5032
496 1 -1.1104 1.26527 5.61297 20.8104
702 2 2.2208 -0.13983 9.78434 25.0069
512 1 -1.1104 3.96228 5.59312 20.707
703 2 2.2208 -0.232289 12.5048 22.1469
487 1 -1.1104 1.2039 8.40974 20.7373
507 1 -1.1104 4.08111 8.35114 20.7761
674 2 2.2208 5.46556 6.96146 22.1457
675 2 2.2208 5.25692 12.4051 22.1018
676 1 -1.1104 0.981115 8.45673 23.5249
678 1 -1.1104 1.16889 8.33277 26.4104
680 1 -1.1104 1.25446 5.51871 23.5154
681 1 -1.1104 1.08605 11.1866 23.468
684 2 2.2208 5.4653 9.80894 25.011
685 1 -1.1104 1.40109 5.56663 26.3825
686 1 -1.1104 1.36268 10.9665 26.2553
689 1 -1.1104 3.77129 8.43211 23.5385
690 2 2.2208 2.64311 6.92077 25.0254
691 2 2.2208 2.48727 12.5465 24.8759
692 1 -1.1104 4.05759 8.34151 26.3876
693 2 2.2208 2.47383 9.71209 22.0932
694 1 -1.1104 4.10839 5.56415 23.6387
695 1 -1.1104 3.95178 11.1146 23.2596
696 1 -1.1104 4.1027 5.59516 26.4256
697 1 -1.1104 4.072 11.1219 26.3077
683 1 -1.1104 6.73307 11.0385 23.5566
739 1 -1.1104 6.68719 13.7288 23.5661
369 2 2.2208 5.47811 20.7939 13.8342
604 1 -1.1104 9.58514 16.8635 20.8646
539 1 -1.1104 9.70705 5.66519 20.6651
541 1 -1.1104 9.56716 11.2326 20.6196
502 1 -1.1104 6.8297 11.0325 20.6848
500 1 -1.1104 6.80423 5.62774 20.9428
687 1 -1.1104 7.02438 5.51237 26.3023
679 1 -1.1104 6.76518 8.25946 26.3178
677 1 -1.1104 6.71161 8.32555 23.5141
489 1 -1.1104 7.00398 8.42895 20.66
527 1 -1.1104 12.4808 5.61691 20.7102
688 1 -1.1104 6.96855 11.0093 26.3294
682 1 -1.1104 6.98022 5.65521 23.5685
529 1 -1.1104 12.3591 11.254 20.7397
522 1 -1.1104 12.5288 8.40022 20.7962
705 1 -1.1104 9.71967 11.0848 26.4249
706 1 -1.1104 9.81692 5.49231 26.4315
707 1 -1.1104 9.57822 11.1237 23.496
708 1 -1.1104 9.71045 5.66367 23.5851
709 2 2.2208 8.27996 9.76831 22.0894
710 1 -1.1104 9.69357 8.29324 26.2793
711 2 2.2208 8.3263 12.3857 24.8774
712 2 2.2208 8.26873 7.03658 24.9403
713 2 2.2208 11.2003 6.98301 22.1884
714 2 2.2208 10.9629 12.675 22.012
715 1 -1.1104 12.5567 8.46781 23.6709
716 1 -1.1104 12.3953 8.37279 26.4274
717 1 -1.1104 12.5178 5.64917 23.5058
718 1 -1.1104 12.5866 11.1605 23.5384
719 2 2.2208 11.0462 9.8264 24.9354
720 1 -1.1104 12.4763 5.34316 26.3395
721 1 -1.1104 12.4091 11.1996 26.4244
722 1 -1.1104 9.78475 8.41654 23.6329
723 2 2.2208 -0.137334 18.1592 22.3804
572 1 -1.1104 4.07044 19.4527 20.8376
724 2 2.2208 -0.137368 20.9329 25.054
577 1 -1.1104 4.05471 16.6232 20.758
748 1 -1.1104 1.36702 16.724 23.5516
746 1 -1.1104 3.94421 13.77 26.2951
745 1 -1.1104 3.96583 16.5425 26.4453
744 2 2.2208 2.80759 18.1038 24.9626
750 2 2.2208 2.62544 20.8198 22.1872
749 1 -1.1104 4.18805 16.6228 23.6616
727 2 2.2208 2.65849 15.3807 22.168
729 1 -1.1104 4.11269 19.4436 23.5045
731 1 -1.1104 3.98047 13.8386 23.6184
733 1 -1.1104 1.31768 19.4048 26.338
734 1 -1.1104 1.25694 16.7126 26.3121
735 1 -1.1104 1.15583 13.9965 26.3889
737 2 2.2208 5.39731 20.8415 25.0109
738 2 2.2208 5.43033 15.0945 25.053
740 1 -1.1104 1.39356 19.2988 23.4862
741 1 -1.1104 1.13746 13.9446 23.5865
742 2 2.2208 5.46999 17.9855 22.2027
743 1 -1.1104 4.05755 19.4509 26.3672
725 2 2.2208 -0.295362 15.4598 25.0238
592 1 -1.1104 12.3544 16.8465 20.8765
638 2 2.2208 11.173 15.296 25.0145
701 1 -1.1104 9.55551 16.7199 23.6414
587 1 -1.1104 12.3784 19.5769 20.7225
700 2 2.2208 8.17875 20.8806 22.1807
667 2 2.2208 8.18117 18.0156 25.1269
376 2 2.2208 8.35975 18.2315 13.7284
439 2 2.2208 -0.0242203 -4.23046 16.4398
358 2 2.2208 -0.247929 9.73731 13.5907
640 2 2.2208 2.69763 -4.23791 25.0823
351 2 2.2208 -0.180907 15.4043 13.7023
668 2 2.2208 11.0434 -4.425 22.1592
371 2 2.2208 5.51094 15.3994 13.6547
349 2 2.2208 2.7209 1.26292 13.684
350 2 2.2208 -0.245457 20.8846 13.7668
365 2 2.2208 8.18009 12.4987 13.6722
361 2 2.2208 2.74951 12.5316 13.6642
359 2 2.2208 2.53984 6.96104 13.5927
360 2 2.2208 5.39847 9.70313 13.6915
353 2 2.2208 8.28064 -4.2599 13.6501
364 2 2.2208 10.9953 9.66273 13.6494
355 2 2.2208 8.1928 1.35641 13.6441
348 2 2.2208 5.57699 -1.56555 13.7989
379 2 2.2208 8.2578 20.865 27.7091
384 2 2.2208 -0.0590542 -4.19225 27.7563
357 2 2.2208 11.0541 4.19402 13.6069
398 2 2.2208 11.0363 6.90352 27.7628
377 2 2.2208 8.30514 15.2948 27.7499
388 2 2.2208 8.30458 -1.55516 27.6701
389 2 2.2208 8.36438 4.08559 27.8011
751 2 2.2208 5.4942 23.7558 5.26644
752 2 2.2208 5.36616 29.2148 5.34798
753 1 -1.1104 1.09171 25.1018 1.14355
754 1 -1.1104 1.28494 25.1767 3.9573
755 1 -1.1104 1.23653 22.3307 1.10977
756 1 -1.1104 1.16845 27.7691 1.1107
757 2 2.2208 5.49306 26.4484 2.50085
758 1 -1.1104 1.19858 22.3215 3.77937
759 1 -1.1104 1.12361 27.9839 3.90756
760 1 -1.1104 3.93941 25.1507 1.20762
761 2 2.2208 2.55048 23.7647 2.53882
762 2 2.2208 2.66656 29.3196 2.51463
763 1 -1.1104 4.05899 25.0086 3.92789
764 2 2.2208 2.74451 26.505 5.40306
765 1 -1.1104 4.02954 22.2789 1.10557
766 1 -1.1104 3.96839 27.9765 1.15468
767 1 -1.1104 4.13712 22.3671 4.04844
768 1 -1.1104 3.94743 27.9037 4.05054
1081 2 2.2208 -0.217043 34.7388 11.0031
769 2 2.2208 -0.15799 29.2127 5.25049
1050 2 2.2208 8.16406 40.4012 8.03197
771 2 2.2208 -0.136045 26.5622 2.50518
1138 1 -1.1104 12.3601 47.5469 6.79868
871 2 2.2208 -0.267851 40.5017 5.20879
1120 2 2.2208 11.102 23.6904 -0.310064
1041 2 2.2208 -0.226196 46.1767 10.8645
894 1 -1.1104 1.41823 22.1194 6.64351
897 1 -1.1104 6.9142 27.7617 6.78958
773 1 -1.1104 7.04262 25.041 3.86184
776 1 -1.1104 6.82796 22.3597 3.81233
775 1 -1.1104 6.74458 27.9312 1.01922
777 1 -1.1104 6.80331 27.8143 3.9046
774 1 -1.1104 6.99105 22.3142 1.04181
772 1 -1.1104 6.79766 25.1566 0.953053
778 2 2.2208 11.1995 23.657 5.2581
779 2 2.2208 11.0175 29.391 5.29684
780 1 -1.1104 12.4004 25.0741 1.12584
781 1 -1.1104 12.4085 25.2097 3.84511
782 1 -1.1104 12.3854 22.3509 1.16743
783 1 -1.1104 12.4608 27.9678 0.999414
784 2 2.2208 10.9437 26.5982 2.47303
785 1 -1.1104 12.621 22.1952 3.9536
786 1 -1.1104 12.3925 27.998 3.88251
787 1 -1.1104 9.63863 25.2232 1.11967
788 2 2.2208 8.30821 23.672 2.36696
789 2 2.2208 8.19356 29.2127 2.52075
790 1 -1.1104 9.6998 24.9144 3.80408
791 2 2.2208 8.32898 26.4705 5.27647
792 1 -1.1104 9.83177 22.4502 1.03919
793 1 -1.1104 9.53146 27.9568 1.08242
794 1 -1.1104 9.71606 22.0068 3.77096
795 1 -1.1104 9.61435 27.8127 3.91623
896 1 -1.1104 6.99275 22.4749 6.67065
925 1 -1.1104 12.4516 25.0484 6.72245
928 1 -1.1104 9.71532 24.9844 6.70004
770 2 2.2208 -0.0161358 23.6675 5.36999
927 1 -1.1104 12.3563 27.9651 6.75756
926 1 -1.1104 12.3716 22.3784 6.7504
820 2 2.2208 -0.168601 37.841 2.29195
821 2 2.2208 -0.050918 32.2367 2.38846
799 2 2.2208 5.52804 34.9155 5.26375
800 1 -1.1104 1.15438 30.7677 0.954652
801 1 -1.1104 1.23282 36.3879 0.990557
803 1 -1.1104 1.15 30.7726 3.81202
804 1 -1.1104 1.3444 36.23 3.87667
806 1 -1.1104 1.30772 33.5302 1.06896
807 2 2.2208 5.49807 32.0321 2.45973
808 2 2.2208 5.3868 37.6299 2.48224
809 1 -1.1104 1.21784 33.4715 3.89519
811 1 -1.1104 4.07193 30.8968 0.981389
812 1 -1.1104 3.93869 36.3889 1.22191
813 2 2.2208 2.71158 34.8886 2.57171
814 1 -1.1104 3.9792 30.7175 3.92297
815 1 -1.1104 4.09879 36.2629 4.03495
816 2 2.2208 2.58186 32.0763 5.23099
817 2 2.2208 2.61619 37.6701 5.22368
818 1 -1.1104 4.12459 33.5533 1.16772
819 1 -1.1104 4.02189 33.3392 3.72045
1063 1 -1.1104 12.3244 41.8963 9.60932
1032 1 -1.1104 6.80199 41.8077 12.3788
1043 1 -1.1104 9.48973 44.4344 9.81723
822 2 2.2208 -0.341269 34.9404 5.31514
1137 1 -1.1104 6.88848 47.5922 9.49414
1499 1 -1.1104 3.91959 47.4779 3.95627
823 1 -1.1104 6.90926 30.6571 1.09528
805 1 -1.1104 6.83883 36.1305 3.89261
810 1 -1.1104 6.79192 33.3564 3.94264
824 1 -1.1104 6.66736 30.4754 3.89334
802 1 -1.1104 6.82902 36.1771 1.21783
825 1 -1.1104 6.92591 33.4125 1.24372
826 2 2.2208 11.0781 35.0099 5.27696
827 1 -1.1104 12.4776 30.9592 1.03661
828 1 -1.1104 12.4252 36.3901 0.898455
829 1 -1.1104 12.4318 30.9989 3.88224
830 1 -1.1104 12.2068 36.3029 3.81243
831 1 -1.1104 12.3077 33.6552 1.0761
832 2 2.2208 10.9044 32.1724 2.50445
833 2 2.2208 11.054 37.691 2.29387
834 1 -1.1104 12.383 33.6359 3.88957
835 1 -1.1104 9.71187 30.731 1.09182