ITEM: TIMESTEP
40000
ITEM: NUMBER OF ATOMS
17672
ITEM: BOX BOUNDS pp pp pp
-3.5741141902415224e-01 2.7697411419023627e+01
-4.2834506769478153e+00 3.3236345067695709e+02
-3.5554517759500093e-01 2.7695545177595083e+01
ITEM: ATOMS id type q x y z
1 2 2.2208 5.16562 1.40341 5.32955
2 1 -1.1104 1.01973 -2.96594 1.14849
3 1 -1.1104 1.02578 2.76474 1.08799
6 1 -1.1104 1.03223 -2.90169 3.89464
7 1 -1.1104 1.11837 2.73319 3.87268
10 1 -1.1104 1.10454 -0.0740108 1.04945
12 2 2.2208 5.21709 -1.60337 2.53647
13 2 2.2208 5.20125 4.10815 2.38324
14 1 -1.1104 1.01538 -0.0535045 3.88897
16 1 -1.1104 3.74757 -2.83452 1.09095
17 1 -1.1104 3.80716 2.74483 1.02148
18 2 2.2208 2.44639 1.35868 2.5352
19 1 -1.1104 3.89675 -2.90459 3.93919
20 1 -1.1104 3.82172 2.76086 3.87385
21 2 2.2208 2.42053 -1.46252 5.22846
22 2 2.2208 2.37824 4.08027 5.33311
23 1 -1.1104 3.75886 -0.0487581 1.10336
24 1 -1.1104 3.77463 -0.0385019 4.03113
4 1 -1.1104 6.5356 -2.99603 0.959676
8 1 -1.1104 6.71409 -2.83695 3.75745
15 1 -1.1104 6.6249 -0.0557256 3.84957
5 1 -1.1104 6.61212 2.81139 1.13191
11 1 -1.1104 6.65685 -0.244274 1.18187
173 1 -1.1104 3.84429 2.75303 6.8179
50 2 2.2208 13.6084 -1.72377 5.14707
166 1 -1.1104 0.967635 -2.89671 6.64643
81 2 2.2208 -0.446197 6.95214 5.12226
9 1 -1.1104 6.70738 2.65731 3.8116
31 2 2.2208 10.8342 1.2405 5.16501
32 1 -1.1104 12.062 -2.87605 1.07128
33 1 -1.1104 12.2583 2.72984 1.087
34 1 -1.1104 12.1334 -2.93252 3.80487
35 1 -1.1104 12.2784 2.58018 3.82222
36 1 -1.1104 12.1909 -0.072066 1.11435
37 2 2.2208 10.8308 -1.53774 2.40942
38 2 2.2208 10.8397 4.04562 2.36418
39 1 -1.1104 12.2514 -0.0803213 3.94743
40 1 -1.1104 9.23733 -3.03674 1.06194
41 1 -1.1104 9.36463 2.7537 0.932317
42 2 2.2208 8.08552 1.41523 2.42205
43 1 -1.1104 9.50617 -2.9432 3.77862
44 1 -1.1104 9.52836 2.65135 3.7311
45 2 2.2208 7.95253 -1.51152 5.20332
46 2 2.2208 8.09685 4.01762 5.23474
47 1 -1.1104 9.36768 -0.0506177 0.981219
48 1 -1.1104 9.48162 -0.0710479 3.68925
344 2 2.2208 -0.312659 7.02443 10.8818
205 1 -1.1104 12.176 -3.20052 6.55999
371 2 2.2208 5.31507 15.2736 13.7107
345 2 2.2208 13.5998 20.9815 10.7687
207 1 -1.1104 12.2495 -0.312919 6.5806
208 1 -1.1104 9.40146 -2.91575 6.65648
370 2 2.2208 13.5113 1.31961 13.6798
209 1 -1.1104 9.47118 2.65955 6.68873
206 1 -1.1104 12.1983 2.55468 6.6624
49 2 2.2208 13.6371 1.3344 2.42704
54 2 2.2208 5.33647 6.82383 5.38447
55 2 2.2208 5.13049 12.6334 5.29507
56 1 -1.1104 1.17707 8.35504 0.992726
58 1 -1.1104 1.13037 8.18557 3.89708
60 1 -1.1104 1.12522 5.44239 1.21594
61 1 -1.1104 0.868667 11.0432 0.93889
66 2 2.2208 5.26358 9.84103 2.33829
67 1 -1.1104 1.07816 5.57671 3.85329
68 1 -1.1104 1.03685 11.0427 3.72192
71 1 -1.1104 3.91939 8.35509 1.08709
72 2 2.2208 2.44354 6.89037 2.51778
73 2 2.2208 2.31441 12.4999 2.27102
74 1 -1.1104 3.91534 8.25085 3.85361
75 2 2.2208 2.56555 9.68812 5.10574
76 1 -1.1104 3.68468 5.41595 1.05328
77 1 -1.1104 3.75419 11.1053 0.944067
79 1 -1.1104 4.03926 5.51438 4.02003
80 1 -1.1104 3.71816 11.0788 3.59545
70 1 -1.1104 6.6538 11.234 3.90206
59 1 -1.1104 6.62328 8.31783 3.78491
57 1 -1.1104 6.67225 8.51257 0.978701
64 1 -1.1104 6.49247 11.2999 0.876517
63 1 -1.1104 6.45691 5.56436 1.01826
69 1 -1.1104 6.70523 5.50416 3.78161
237 1 -1.1104 6.77366 5.48044 6.75312
239 1 -1.1104 3.76134 5.47901 6.68342
62 1 -1.1104 0.984855 11.0888 6.6735
338 2 2.2208 13.6813 4.00523 10.8257
105 2 2.2208 13.6979 6.83 2.30716
84 2 2.2208 10.91 6.86825 5.17942
85 2 2.2208 10.8401 12.4366 5.11393
86 1 -1.1104 12.2872 8.39254 1.14267
87 1 -1.1104 12.2958 8.24172 3.81502
88 1 -1.1104 12.2554 5.46391 0.959187
89 1 -1.1104 12.0877 11.1978 1.11683
91 2 2.2208 10.8228 9.68439 2.42877
92 1 -1.1104 12.3236 5.37314 3.82408
93 1 -1.1104 12.3185 11.1185 3.94988
94 1 -1.1104 9.3961 8.36776 0.927786
95 2 2.2208 7.91425 6.93965 2.38318
96 2 2.2208 7.95986 12.586 2.30976
97 1 -1.1104 9.55149 8.19423 3.76998
98 2 2.2208 8.09549 9.7712 5.19195
99 1 -1.1104 9.45097 5.49687 1.05923
100 1 -1.1104 9.30544 11.0929 1.1543
102 1 -1.1104 9.46793 5.53116 3.87247
103 1 -1.1104 9.52143 11.0939 3.86332
266 1 -1.1104 12.4522 5.40004 6.5021
342 2 2.2208 -0.408273 12.5112 10.9491
104 2 2.2208 13.6041 12.5247 2.49505
90 1 -1.1104 12.1569 10.9377 6.60837
101 1 -1.1104 9.40265 11.0945 6.72463
318 1 -1.1104 9.40206 19.7063 9.46838
314 1 -1.1104 9.33981 16.8014 9.41166
328 1 -1.1104 12.2029 13.9784 9.4767
106 2 2.2208 5.32902 18.0182 5.18075
107 1 -1.1104 0.889597 14.0499 0.990299
109 1 -1.1104 0.960859 19.6586 0.961084
113 1 -1.1104 1.13491 13.7729 3.73464
114 1 -1.1104 1.12793 19.2995 3.90718
116 1 -1.1104 0.889956 16.8518 1.02038
119 2 2.2208 5.10694 15.3701 2.3981
120 2 2.2208 5.05464 20.9335 2.38708
121 1 -1.1104 0.94963 16.5706 3.82345
123 1 -1.1104 3.67409 13.9709 0.941967
125 1 -1.1104 3.85066 19.546 0.915604
127 2 2.2208 2.32188 17.9865 2.52044
128 1 -1.1104 3.88667 13.9252 3.82168
129 1 -1.1104 3.80901 19.6452 3.82071
130 2 2.2208 2.22242 15.2567 5.27804
131 2 2.2208 2.47149 20.8786 5.30687
132 1 -1.1104 3.73257 16.7873 0.971574
134 1 -1.1104 3.73838 16.5909 3.90455
122 1 -1.1104 6.54025 16.766 3.81569
138 1 -1.1104 6.5846 19.5803 0.962012
110 1 -1.1104 6.6257 14.0411 1.117
140 1 -1.1104 6.49617 16.7586 1.06485
139 1 -1.1104 6.61766 19.5453 3.7267
133 1 -1.1104 3.69656 16.7038 6.6308
118 1 -1.1104 6.59442 16.6445 6.53102
117 1 -1.1104 0.841742 16.6126 6.59761
302 1 -1.1104 0.984767 19.4647 6.78424
323 1 -1.1104 12.1074 16.779 9.48084
115 1 -1.1104 6.5968 13.932 3.72802
372 2 2.2208 10.6734 20.9273 13.7266
335 2 2.2208 13.6473 9.61374 5.28384
149 1 -1.1104 12.208 16.6984 6.69051
141 2 2.2208 10.7188 18.2369 5.24205
142 1 -1.1104 12.0888 13.8707 1.09122
144 1 -1.1104 12.1232 19.6733 0.880853
146 1 -1.1104 12.2025 13.9268 3.79035
147 1 -1.1104 12.1259 19.546 3.77243
148 1 -1.1104 12.1338 16.8639 0.950141
150 2 2.2208 10.7998 15.4447 2.47436
151 2 2.2208 10.7173 20.9671 2.4044
152 1 -1.1104 12.1978 16.6604 3.91196
153 1 -1.1104 9.34543 13.9865 0.979537
155 1 -1.1104 9.38493 19.4294 1.1013
157 2 2.2208 7.98787 18.168 2.41963
158 1 -1.1104 9.36844 13.954 3.70736
159 1 -1.1104 9.37349 19.7048 3.85065
160 2 2.2208 7.91852 15.2359 5.15314
161 2 2.2208 7.91897 20.868 5.13953
162 1 -1.1104 9.48049 16.7727 1.01955
164 1 -1.1104 9.29188 16.9292 3.8543
154 1 -1.1104 9.28654 13.9014 6.50567
387 2 2.2208 10.7902 1.26837 -0.483409
163 1 -1.1104 9.38896 16.7423 6.58342
156 1 -1.1104 9.32851 19.5539 6.56368
172 1 -1.1104 3.82206 -2.82613 6.61851
170 1 -1.1104 1.05728 -0.060822 6.79012
356 2 2.2208 10.8735 -1.43329 13.5563
168 1 -1.1104 6.68824 -2.97654 6.62353
169 1 -1.1104 6.71542 2.76731 6.58367
167 1 -1.1104 1.12027 2.74105 6.66086
171 1 -1.1104 6.48357 -0.129159 6.56776
174 1 -1.1104 3.80126 -0.135785 6.66122
175 2 2.2208 5.09386 1.27692 10.7961
176 1 -1.1104 1.01631 -3.00919 12.3234
177 1 -1.1104 0.872194 2.57001 12.4278
180 1 -1.1104 0.951621 -2.81724 9.60245
181 1 -1.1104 0.827715 2.67348 9.57666
184 1 -1.1104 0.983683 -0.226101 12.3478
186 2 2.2208 5.27657 -1.51856 8.22153
188 1 -1.1104 1.04454 -0.174647 9.46495
190 1 -1.1104 3.75084 -3.00436 12.3279
191 1 -1.1104 3.68222 2.51487 12.0838
192 2 2.2208 2.43479 1.24431 8.07403
193 1 -1.1104 3.88933 -2.94095 9.42228
194 1 -1.1104 3.75772 2.68479 9.37292
195 2 2.2208 2.39452 -1.60678 10.9282
196 2 2.2208 2.41832 4.06529 10.8924
197 1 -1.1104 3.76512 -0.316755 12.3132
198 1 -1.1104 3.7467 -0.20897 9.48991
187 2 2.2208 5.2891 4.21093 7.9342
178 1 -1.1104 6.64647 -3.01877 12.3311
185 1 -1.1104 6.39864 -0.00904811 12.1621
189 1 -1.1104 6.65463 -0.109529 9.53259
179 1 -1.1104 6.7064 2.85276 12.3043
183 1 -1.1104 6.58211 2.70297 9.51992
182 1 -1.1104 6.63071 -2.95632 9.50472
333 2 2.2208 13.5907 15.2709 10.8718
337 2 2.2208 13.5632 15.3519 5.39223
319 1 -1.1104 9.35549 13.8826 9.3232
230 2 2.2208 13.5663 -1.51027 10.8229
362 2 2.2208 13.7591 12.4982 13.6771
210 1 -1.1104 9.26905 -0.151464 6.67137
211 2 2.2208 10.697 1.32186 10.8228
212 1 -1.1104 12.2192 -2.82137 12.1849
213 1 -1.1104 12.2041 2.78356 12.4268
214 1 -1.1104 12.186 -2.99152 9.26829
215 1 -1.1104 12.2039 2.78523 9.57083
216 1 -1.1104 12.1568 0.0766596 12.2182
217 2 2.2208 10.813 -1.57241 7.97657
218 2 2.2208 10.9683 4.10181 7.98765
219 1 -1.1104 12.1178 -0.16644 9.40863
220 1 -1.1104 9.45952 -2.95437 12.2669
221 1 -1.1104 9.47662 2.76415 12.3513
222 2 2.2208 7.83861 1.31934 8.0463
223 1 -1.1104 9.46235 -2.96207 9.59913
224 1 -1.1104 9.24528 2.65514 9.3655
225 2 2.2208 8.09374 -1.57972 10.9471
226 2 2.2208 8.1314 4.09092 10.9397
227 1 -1.1104 9.45083 -0.0577208 12.2399
228 1 -1.1104 9.37703 -0.0821124 9.37237
143 1 -1.1104 12.1634 13.8405 6.61349
315 1 -1.1104 9.40177 16.5847 12.3538
357 2 2.2208 10.9174 4.1858 13.8139
332 2 2.2208 13.5715 18.1263 8.04088
317 2 2.2208 7.94992 15.235 10.8334
330 1 -1.1104 12.3427 13.849 12.3172
326 1 -1.1104 12.1601 16.7284 12.1231
327 1 -1.1104 12.2516 19.5719 9.50456
236 1 -1.1104 0.980883 5.54438 6.5433
65 1 -1.1104 6.67643 11.1349 6.72875
331 2 2.2208 10.6671 18.226 10.8328
234 1 -1.1104 0.953897 8.27378 6.71722
78 1 -1.1104 3.81548 11.0417 6.73043
238 1 -1.1104 3.80307 8.31221 6.64828
240 2 2.2208 5.09747 6.86953 10.9399
241 2 2.2208 5.296 12.6192 10.8709
242 1 -1.1104 1.07157 8.26795 12.45
244 1 -1.1104 0.986902 8.5095 9.57903
246 1 -1.1104 1.00813 5.58281 12.1791
247 1 -1.1104 1.09963 11.1508 12.2303
250 2 2.2208 5.2752 9.69954 8.11972
251 1 -1.1104 1.11005 5.53828 9.45981
252 1 -1.1104 1.09127 11.1503 9.4069
255 1 -1.1104 3.84953 8.13608 12.3604
256 2 2.2208 2.38599 6.9398 8.11188
257 2 2.2208 2.47564 12.5434 8.1092
258 1 -1.1104 3.81529 8.399 9.45947
259 2 2.2208 2.57934 9.87541 10.8871
260 1 -1.1104 3.75046 5.261 12.3761
261 1 -1.1104 3.75631 11.1196 12.2703
262 1 -1.1104 3.93555 5.5647 9.44991
263 1 -1.1104 4.04407 11.2629 9.37665
235 1 -1.1104 6.69796 8.29654 6.70343
253 1 -1.1104 6.67384 5.62165 9.4471
245 1 -1.1104 6.66882 8.30903 9.46997
248 1 -1.1104 6.59992 5.58186 12.2249
249 1 -1.1104 6.60147 11.0461 12.3345
254 1 -1.1104 6.67358 11.1183 9.62964
320 2 2.2208 8.00696 18.1367 7.95535
267 1 -1.1104 9.35802 8.40933 6.59561
265 1 -1.1104 12.1042 8.13762 6.80511
269 1 -1.1104 9.50592 5.59932 6.66197
243 1 -1.1104 6.65607 8.33087 12.1306
264 1 -1.1104 9.49433 11.1733 9.54036
268 1 -1.1104 9.48107 5.46396 9.60772
270 1 -1.1104 9.45964 11.1247 12.2462
271 1 -1.1104 9.435 5.43612 12.2459
272 2 2.2208 8.06883 9.62681 10.8265
273 1 -1.1104 9.40744 8.12993 9.42226
274 2 2.2208 7.95884 12.5186 8.03137
275 2 2.2208 8.11111 6.78279 8.10327
276 2 2.2208 10.817 6.94287 10.8944
277 2 2.2208 10.8544 12.5736 10.8628
278 1 -1.1104 12.1031 8.3391 12.3681
279 1 -1.1104 12.1881 8.37879 9.53743
280 1 -1.1104 12.2349 5.55336 12.1807
281 1 -1.1104 12.0931 11.1016 12.2084
282 2 2.2208 10.787 9.81789 8.1619
283 1 -1.1104 12.2009 5.54367 9.35904
284 1 -1.1104 12.2253 11.1682 9.44908
285 1 -1.1104 9.25283 8.28258 12.1926
382 2 2.2208 2.39334 -1.46015 -0.432073
340 2 2.2208 13.6411 12.4215 8.01083
365 2 2.2208 8.01048 12.4158 13.7658
321 1 -1.1104 9.39968 19.5571 12.3546
366 2 2.2208 13.5912 6.96781 13.6724
329 1 -1.1104 12.2219 19.5229 12.3655
126 1 -1.1104 3.84677 19.4168 6.59147
124 1 -1.1104 3.69628 13.9481 6.61428
108 1 -1.1104 0.874956 13.8662 6.67285
111 1 -1.1104 6.48663 14.0345 6.56918
112 1 -1.1104 6.52892 19.4767 6.61595
322 1 -1.1104 9.34499 13.8782 12.2187
288 1 -1.1104 6.75154 19.5693 9.28308
290 1 -1.1104 6.59681 13.9256 9.38589
292 1 -1.1104 0.940503 16.7117 9.45731
291 1 -1.1104 1.02817 19.4489 9.55053
297 1 -1.1104 6.66128 13.9184 12.3747
306 1 -1.1104 6.64314 16.7966 12.3473
289 1 -1.1104 6.55029 16.7332 9.40209
296 1 -1.1104 6.67545 19.4868 12.2029
310 2 2.2208 2.40256 15.3737 10.9307
309 2 2.2208 2.30754 20.9482 10.9378
308 1 -1.1104 3.86232 16.7212 12.2177
307 1 -1.1104 1.0629 17.0203 12.2585
305 1 -1.1104 3.76307 13.9947 9.58372
304 1 -1.1104 3.69877 16.6978 9.41911
303 2 2.2208 2.29088 18.0158 8.05017
301 1 -1.1104 3.92661 19.5412 9.47078
300 2 2.2208 5.24074 18.1189 10.8779
299 1 -1.1104 0.989482 14.1384 12.2398
298 1 -1.1104 1.01573 19.6263 12.448
295 2 2.2208 5.18102 15.3776 7.95579
294 1 -1.1104 1.0781 13.8408 9.47986
287 1 -1.1104 3.89126 13.9852 12.3101
293 2 2.2208 5.20986 20.9526 8.02215
286 1 -1.1104 3.84285 19.5825 12.3362
145 1 -1.1104 12.2188 19.5768 6.64144
324 2 2.2208 10.6772 20.9963 7.98316
316 2 2.2208 7.95755 21.1548 10.8107
325 2 2.2208 10.7809 15.3026 8.05886
165 2 2.2208 13.5591 18.2652 2.29787
336 2 2.2208 13.5526 20.9853 5.19709
367 2 2.2208 -0.415228 4.04294 13.7353
399 2 2.2208 7.99318 9.85505 -0.375737
379 2 2.2208 7.97594 21.0489 -0.345797
376 2 2.2208 8.08408 18.1529 13.6224
364 2 2.2208 10.7751 9.81903 13.6073
369 2 2.2208 5.20252 20.8817 13.6745
404 2 2.2208 5.11238 18.1744 -0.465492
406 2 2.2208 5.23407 1.19398 16.6065
407 1 -1.1104 1.08521 -2.95376 18.0661
408 1 -1.1104 0.949709 2.71774 17.9479
411 1 -1.1104 1.02002 -3.06262 15.2167
413 1 -1.1104 0.909176 2.55014 15.2014
419 1 -1.1104 1.06082 -0.0985992 17.9576
421 2 2.2208 5.19941 -1.54641 19.3022
422 2 2.2208 5.0893 4.01281 19.3193
423 1 -1.1104 1.12884 -0.306174 15.1426
427 1 -1.1104 4.06601 -2.96589 18.05
428 1 -1.1104 3.79075 2.74225 17.97
429 2 2.2208 2.27035 1.29282 19.4883
430 1 -1.1104 3.77497 -3.03823 15.2485
432 1 -1.1104 3.8782 2.56847 15.1418
434 2 2.2208 2.45277 -1.60783 16.6292
435 2 2.2208 2.49107 4.0341 16.5373
436 1 -1.1104 3.83319 -0.0189345 17.9882
437 1 -1.1104 3.82707 -0.306828 15.1829
420 1 -1.1104 6.59018 -0.152428 17.9874
409 1 -1.1104 6.725 -2.84277 17.8677
415 1 -1.1104 6.75253 -3.06768 15.1485
425 1 -1.1104 6.67774 -0.23249 14.9882
417 1 -1.1104 6.68326 2.56666 15.1581
418 1 -1.1104 6.57074 2.76524 20.7467
426 1 -1.1104 6.56523 -0.0787983 20.7291
438 1 -1.1104 3.75435 -0.0270276 20.7465
579 2 2.2208 13.7381 4.11839 16.5443
412 1 -1.1104 1.05619 -2.86351 20.8419
353 2 2.2208 8.09661 -4.28552 13.5393
410 1 -1.1104 6.47512 2.56142 18.0667
416 1 -1.1104 6.61448 -2.83412 20.5902
639 2 2.2208 5.28789 -4.37819 22.0718
449 2 2.2208 10.9905 1.35312 16.5182
450 1 -1.1104 12.1109 -2.99358 17.8789
451 1 -1.1104 12.4279 2.81362 17.8594
452 1 -1.1104 12.1929 -2.80059 15.0222
454 1 -1.1104 12.2584 2.8034 15.1889
456 1 -1.1104 12.2192 -0.189865 17.9127
457 2 2.2208 10.8195 -1.50394 19.337
458 2 2.2208 10.78 4.07844 19.3045
459 1 -1.1104 12.2981 -0.0439325 15.1423
461 1 -1.1104 9.5013 -2.9921 17.9717
462 1 -1.1104 9.53814 2.716 17.9699
463 2 2.2208 8.03338 1.2018 19.3747
464 1 -1.1104 9.42536 -2.84911 14.9187
466 1 -1.1104 9.44554 2.64355 15.2143
468 2 2.2208 8.05385 -1.59608 16.5012
469 2 2.2208 8.07212 4.03079 16.5512
470 1 -1.1104 9.43038 -0.0112386 17.7733
471 1 -1.1104 9.50409 -0.0213749 14.8516
475 2 2.2208 8.08909 -4.44424 19.383
578 2 2.2208 13.5785 1.29859 19.3517
467 1 -1.1104 9.2342 2.5011 20.8682
460 1 -1.1104 12.0636 -0.104312 20.6779
702 2 2.2208 -0.512432 9.77141 24.7845
453 1 -1.1104 12.3618 -2.91045 20.7067
482 2 2.2208 5.34027 6.85936 16.543
483 2 2.2208 5.25389 12.4649 16.5183
484 1 -1.1104 1.07561 8.30452 17.9511
486 1 -1.1104 1.09049 8.2262 15.1748
490 1 -1.1104 1.00827 5.48835 17.9757
491 1 -1.1104 1.03652 11.2084 18.0931
494 2 2.2208 5.29066 9.6853 19.3037
495 1 -1.1104 1.07565 5.30397 15.043
497 1 -1.1104 1.17613 11.1445 15.0669
503 1 -1.1104 3.99438 8.22304 18.0231
504 2 2.2208 2.47968 6.89357 19.306
505 2 2.2208 2.38084 12.6657 19.3194
506 1 -1.1104 4.05703 8.16111 15.1451
508 2 2.2208 2.58485 9.67279 16.5203
509 1 -1.1104 3.713 5.45789 18.0072
510 1 -1.1104 3.81493 11.1659 17.7369
511 1 -1.1104 3.95127 5.50377 15.2754
513 1 -1.1104 3.85377 11.0304 14.9976
485 1 -1.1104 6.74385 8.29036 17.9435
501 1 -1.1104 6.66997 11.0363 15.1845
492 1 -1.1104 6.69788 5.3911 17.9857
488 1 -1.1104 6.71868 8.08508 15.1079
499 1 -1.1104 6.77321 5.4106 15.1907
493 1 -1.1104 6.60855 10.9539 17.7818
514 1 -1.1104 3.81849 11.1055 20.773
502 1 -1.1104 6.57321 11.0866 20.6045
507 1 -1.1104 3.93779 8.28209 20.705
481 2 2.2208 -0.404138 6.9115 16.6524
398 2 2.2208 10.8955 6.95673 27.6961
518 2 2.2208 10.7802 6.94678 16.4235
519 2 2.2208 10.8598 12.4439 16.4262
520 1 -1.1104 12.2411 8.30651 17.7858
521 1 -1.1104 12.1645 8.38784 15.0181
523 1 -1.1104 12.2414 5.48599 17.9219
524 1 -1.1104 12.1105 11.1663 17.9244
525 2 2.2208 10.879 9.70885 19.3282
526 1 -1.1104 12.2723 5.61461 15.1508
528 1 -1.1104 12.4455 11.1589 14.9862
530 1 -1.1104 9.52153 8.33532 17.8031
531 2 2.2208 8.04296 6.877 19.2893
532 2 2.2208 8.0233 12.5051 19.2135
533 1 -1.1104 9.43862 8.25326 14.9829
535 2 2.2208 8.06561 9.54787 16.4127
536 1 -1.1104 9.33894 5.37686 17.9269
537 1 -1.1104 9.35828 11.0505 17.8675
538 1 -1.1104 9.54883 5.5351 15.1637
540 1 -1.1104 9.49402 11.1711 15.0428
642 2 2.2208 -0.541665 -1.43313 24.9542
522 1 -1.1104 12.1145 8.36072 20.593
671 2 2.2208 13.6078 -1.52351 22.0843
541 1 -1.1104 9.39329 11.1419 20.6921
539 1 -1.1104 9.47015 5.54697 20.7344
527 1 -1.1104 12.243 5.63826 20.7243
517 2 2.2208 13.6937 12.4015 19.2938
534 1 -1.1104 9.38355 8.27477 20.6496
545 2 2.2208 5.34863 18.1758 16.4598
546 1 -1.1104 1.06685 14.0507 17.9267
547 1 -1.1104 1.07097 19.5122 17.8285
550 1 -1.1104 1.12078 13.7655 14.9664
552 1 -1.1104 1.09317 19.7367 15.1149
558 1 -1.1104 1.03702 16.7599 17.8422
560 2 2.2208 5.19646 15.386 19.1202
561 2 2.2208 5.19435 20.9668 19.2605
562 1 -1.1104 1.0137 16.6343 14.9711
566 1 -1.1104 3.92693 13.9562 18.0255
567 1 -1.1104 3.75968 19.5847 17.9202
568 2 2.2208 2.39892 18.1917 19.2639
569 1 -1.1104 3.94215 13.8625 15.0748
571 1 -1.1104 3.99889 19.3519 14.939
573 2 2.2208 2.4086 15.3313 16.4838
574 2 2.2208 2.43729 20.9306 16.4937
575 1 -1.1104 3.73662 16.8065 17.8684
576 1 -1.1104 3.74912 16.711 15.0771
564 1 -1.1104 6.46174 16.7021 15.1424
556 1 -1.1104 6.7321 19.5156 15.1071
559 1 -1.1104 6.90784 16.6042 17.7055
548 1 -1.1104 6.61047 13.9123 17.829
549 1 -1.1104 6.47521 19.3618 17.9639
554 1 -1.1104 6.62798 13.9 15.1579
570 1 -1.1104 3.68219 14.0089 20.7207
553 1 -1.1104 1.11679 19.7543 20.568
577 1 -1.1104 3.88598 16.8569 20.6971
557 1 -1.1104 6.5413 19.5595 20.7663
565 1 -1.1104 6.72915 16.6906 20.5981
403 2 2.2208 2.31446 15.496 27.592
479 2 2.2208 13.6208 18.141 19.3536
581 2 2.2208 10.8184 18.1824 16.4899
582 1 -1.1104 12.3573 13.9858 17.9776
583 1 -1.1104 12.2114 19.6489 18.0435
584 1 -1.1104 12.2549 13.8679 15.1289
586 1 -1.1104 12.1396 19.5896 15.2884
588 1 -1.1104 12.2572 16.9193 17.9115
589 2 2.2208 10.8275 15.3334 19.0924
590 2 2.2208 10.8161 20.9362 19.3454
591 1 -1.1104 12.236 16.6894 15.2054
593 1 -1.1104 9.55874 13.8345 17.7856
594 1 -1.1104 9.3457 19.5794 17.7792
595 2 2.2208 8.14184 18.1108 19.2718
596 1 -1.1104 9.44343 13.9629 15.1031
598 1 -1.1104 9.44304 19.5154 15.1285
600 2 2.2208 8.04044 15.2087 16.4051
601 2 2.2208 7.90757 20.9989 16.5311
602 1 -1.1104 9.51942 16.5408 17.6535
603 1 -1.1104 9.38654 16.8229 15.0405
587 1 -1.1104 12.1531 19.5954 20.8547
477 2 2.2208 13.5784 -1.53048 16.5579
592 1 -1.1104 12.3676 16.7605 20.671
604 1 -1.1104 9.5674 16.6971 20.4967
597 1 -1.1104 9.32738 13.9194 20.5872
599 1 -1.1104 9.53617 19.4408 20.6154
704 1 -1.1104 9.36398 16.8602 26.2896
606 2 2.2208 13.6488 21.0245 22.0443
414 1 -1.1104 0.987605 2.67074 20.6753
431 1 -1.1104 3.86136 -2.88855 20.7675
633 1 -1.1104 12.121 19.6685 23.5389
542 2 2.2208 13.6601 6.94468 19.1847
478 2 2.2208 13.4814 21.0546 16.4388
424 1 -1.1104 0.893329 -0.161242 20.6335
433 1 -1.1104 3.69624 2.7306 20.9101
609 2 2.2208 5.2028 1.17956 22.1339
610 1 -1.1104 0.964237 -2.87257 23.58
611 1 -1.1104 0.911932 2.75714 23.5651
614 1 -1.1104 1.07161 -2.91767 26.3492
615 1 -1.1104 0.852748 2.60494 26.2263
618 1 -1.1104 1.18296 -0.0198678 23.4228
620 2 2.2208 5.25681 -1.52447 25.0628
621 2 2.2208 5.35563 4.17587 24.8491
622 1 -1.1104 0.932707 -0.099461 26.2198
624 1 -1.1104 3.801 -2.97995 23.5112
625 1 -1.1104 3.98661 2.60464 23.6601
626 2 2.2208 2.29795 1.31516 24.8653
627 1 -1.1104 3.87826 -2.90696 26.2558
628 1 -1.1104 3.72031 2.77379 26.2767
629 2 2.2208 2.47447 -1.55088 22.1333
630 2 2.2208 2.34149 4.15356 22.1944
631 1 -1.1104 3.88514 -0.181328 23.5724
632 1 -1.1104 3.75061 -0.0790689 26.3661
616 1 -1.1104 6.51564 -2.94855 26.2509
623 1 -1.1104 6.65681 -0.0271668 26.3492
613 1 -1.1104 6.60406 2.67521 23.7927
612 1 -1.1104 6.5436 -2.91733 23.2517
617 1 -1.1104 6.54533 2.85382 26.4854
619 1 -1.1104 6.65558 -0.112209 23.4766
700 2 2.2208 7.86877 21.0402 22.0535
665 1 -1.1104 9.35289 19.553 23.5414
608 1 -1.1104 12.1293 14.0729 23.5233
472 1 -1.1104 9.35983 -0.193133 20.7053
455 1 -1.1104 12.0957 2.82512 20.7369
636 1 -1.1104 12.1104 16.829 23.5095
698 1 -1.1104 9.30801 19.5564 26.2132
699 2 2.2208 7.91848 15.2933 22.0133
465 1 -1.1104 9.50199 -3.07421 20.6595
672 2 2.2208 13.6614 1.35157 24.7683
405 2 2.2208 2.30395 21.065 27.7663
645 2 2.2208 10.7589 1.34541 22.1164
646 1 -1.1104 12.2192 -2.85421 23.4879
647 1 -1.1104 12.4265 2.87703 23.4844
648 1 -1.1104 12.2651 -2.72895 26.3225
649 1 -1.1104 12.1121 2.75569 26.2375
650 1 -1.1104 12.2932 -0.137609 23.3441
651 2 2.2208 10.9506 -1.44018 24.8622
652 2 2.2208 10.8483 4.24906 24.9464
653 1 -1.1104 12.2181 0.0366566 26.1988
654 1 -1.1104 9.43984 -2.82135 23.4971
655 1 -1.1104 9.55328 3.0088 23.43
656 2 2.2208 7.99659 1.24911 24.8608
657 1 -1.1104 9.45363 -2.9372 26.3018
658 1 -1.1104 9.40878 2.59657 26.121
659 2 2.2208 8.05259 -1.67065 22.0902
660 2 2.2208 8.05233 4.23843 22.1327
661 1 -1.1104 9.45186 -0.0487065 23.4993
662 1 -1.1104 9.43564 -0.189052 26.2368
446 2 2.2208 13.72 4.17896 22.0908
515 2 2.2208 -0.444624 9.80725 19.225
634 1 -1.1104 12.1512 14.0436 26.3091
512 1 -1.1104 3.78324 5.51624 20.7886
498 1 -1.1104 0.939895 11.3395 20.811
500 1 -1.1104 6.55921 5.53584 20.8378
489 1 -1.1104 6.59229 8.41644 20.7372
496 1 -1.1104 0.954072 5.60571 20.7446
487 1 -1.1104 1.0782 8.45525 20.5882
674 2 2.2208 5.06487 6.94853 22.0917
675 2 2.2208 5.20931 12.6249 21.9687
676 1 -1.1104 1.03848 8.2503 23.5035
678 1 -1.1104 0.938424 8.26667 26.2304
680 1 -1.1104 0.867725 5.46883 23.472
681 1 -1.1104 0.879861 11.1689 23.4794
684 2 2.2208 5.05354 9.70531 24.7695
685 1 -1.1104 1.0178 5.42773 26.4354
686 1 -1.1104 0.933281 11.0477 26.2094
689 1 -1.1104 3.72661 8.32731 23.4118
690 2 2.2208 2.32937 6.90464 24.8629
691 2 2.2208 2.20386 12.6402 24.89
692 1 -1.1104 3.82059 8.37599 26.2011
693 2 2.2208 2.31719 9.74093 22.0644
694 1 -1.1104 3.79284 5.42428 23.5457
695 1 -1.1104 3.65645 11.1707 23.5992
696 1 -1.1104 3.97331 5.59102 26.235
697 1 -1.1104 3.68919 11.3236 26.3101
687 1 -1.1104 6.68954 5.58876 26.3197
677 1 -1.1104 6.66965 8.36685 23.4663
688 1 -1.1104 6.42187 11.2254 26.1885
682 1 -1.1104 6.45272 5.71954 23.5639
683 1 -1.1104 6.52776 11.2533 23.3816
679 1 -1.1104 6.57312 8.45759 26.2862
348 2 2.2208 5.19179 -1.56059 13.8176
529 1 -1.1104 12.3214 11.0968 20.7784
360 2 2.2208 5.30505 9.64982 13.6499
664 1 -1.1104 9.41423 13.9403 23.4328
445 2 2.2208 13.6001 9.72002 22.1199
705 1 -1.1104 9.36493 11.3083 26.1461
706 1 -1.1104 9.48641 5.61902 26.3651
707 1 -1.1104 9.3067 11.2696 23.4132
708 1 -1.1104 9.35708 5.80656 23.6209
709 2 2.2208 7.91872 9.74028 22.0643
710 1 -1.1104 9.60544 8.30501 26.3236
711 2 2.2208 7.96899 12.6161 24.8309
712 2 2.2208 8.1188 7.10558 24.9966
713 2 2.2208 10.8061 7.07762 22.146
714 2 2.2208 10.7814 12.6057 22.0092
715 1 -1.1104 12.0908 8.46509 23.3826
716 1 -1.1104 12.2293 8.40411 26.1845
717 1 -1.1104 12.1825 5.62793 23.5404
718 1 -1.1104 12.2821 11.2774 23.5892
719 2 2.2208 10.7759 9.8836 24.8733
720 1 -1.1104 12.3191 5.51923 26.2357
721 1 -1.1104 12.0953 11.286 26.4325
722 1 -1.1104 9.34815 8.55006 23.5907
641 2 2.2208 10.7547 21.1212 24.8567
635 1 -1.1104 12.0405 19.5919 26.1805
563 1 -1.1104 0.999714 16.9218 20.6055
551 1 -1.1104 0.86219 14.0408 20.6594
572 1 -1.1104 3.78461 19.5647 20.7116
555 1 -1.1104 6.62875 13.8844 20.584
732 1 -1.1104 6.48197 16.6564 26.3385
670 1 -1.1104 6.51384 19.5239 26.2842
747 1 -1.1104 6.51642 16.852 23.5559
730 1 -1.1104 6.55216 13.9285 26.2151
739 1 -1.1104 6.46592 14.0407 23.2991
736 1 -1.1104 6.3962 19.6765 23.4335
748 1 -1.1104 0.989181 16.9307 23.4472
746 1 -1.1104 3.63264 14.1569 26.1062
745 1 -1.1104 3.76739 16.9791 26.2243
744 2 2.2208 2.39993 18.3216 24.8048
750 2 2.2208 2.42173 20.9583 22.189
749 1 -1.1104 3.69321 16.7672 23.3383
727 2 2.2208 2.31491 15.5505 22.0689
729 1 -1.1104 3.81744 19.5423 23.6119
731 1 -1.1104 3.55029 13.9308 23.4319
733 1 -1.1104 0.884778 19.6683 26.2957
734 1 -1.1104 0.916516 16.7057 26.2958
735 1 -1.1104 0.884974 14.0566 26.3507
737 2 2.2208 5.26865 20.9527 24.9435
738 2 2.2208 5.05489 15.3633 24.8907
740 1 -1.1104 0.962223 19.7194 23.3719
741 1 -1.1104 0.984193 14.1592 23.5196
742 2 2.2208 5.15826 18.1402 22.0694
743 1 -1.1104 3.68962 19.5763 26.3007
667 2 2.2208 7.96716 18.197 24.9501
585 1 -1.1104 12.1862 13.9463 20.5598
663 1 -1.1104 12.2171 16.9062 26.2783
607 2 2.2208 10.7769 18.1981 22.1018
701 1 -1.1104 9.29636 16.6215 23.5321
673 1 -1.1104 9.16321 14.0674 26.2143
638 2 2.2208 10.799 15.5119 24.9063
726 2 2.2208 13.6112 12.6808 24.8162
380 2 2.2208 13.6718 18.1079 13.6719
388 2 2.2208 7.96067 -1.62354 27.7787
352 2 2.2208 5.23089 4.04999 13.7239
391 2 2.2208 13.6634 -1.36523 27.734
363 2 2.2208 7.93495 6.8226 13.5711
374 2 2.2208 13.6183 15.4042 27.7471
402 2 2.2208 13.6278 9.78194 27.6073
390 2 2.2208 10.8545 -4.29237 27.7053
368 2 2.2208 2.44446 18.1665 13.6447
359 2 2.2208 2.48797 6.88123 13.8233
378 2 2.2208 10.7202 18.1872 27.6995
381 2 2.2208 5.21089 1.29648 27.7427
349 2 2.2208 2.2623 1.1778 13.7999
355 2 2.2208 8.12814 1.42471 13.5596
400 2 2.2208 10.776 12.5972 27.7014
395 2 2.2208 5.20038 12.7243 27.5774
385 2 2.2208 5.20997 -4.42602 27.7581
393 2 2.2208 5.29934 6.99884 27.606
377 2 2.2208 7.92588 15.3922 27.7237
373 2 2.2208 10.8436 15.3388 13.6275
383 2 2.2208 2.43047 4.00868 27.8202
389 2 2.2208 7.95733 4.13974 27.6546
394 2 2.2208 2.49929 9.63977 27.5863
361 2 2.2208 2.51323 12.5079 13.6561
375 2 2.2208 13.5146 21.1221 27.5274
751 2 2.2208 5.21488 23.8348 5.20146
752 2 2.2208 5.30783 29.5459 5.26047
753 1 -1.1104 0.795216 25.259 1.0895
754 1 -1.1104 0.976447 25.1719 3.83667
755 1 -1.1104 1.03247 22.4876 1.05362
756 1 -1.1104 1.10355 28.0437 1.10699
757 2 2.2208 5.12839 26.6541 2.48471
758 1 -1.1104 0.938378 22.3799 3.86032
759 1 -1.1104 1.02705 27.9679 3.92994
760 1 -1.1104 3.73177 25.2756 1.00425
761 2 2.2208 2.33734 23.8474 2.47908
762 2 2.2208 2.31336 29.4974 2.57754
763 1 -1.1104 3.7953 25.1476 3.74718
764 2 2.2208 2.3708 26.5686 5.30239
765 1 -1.1104 3.87316 22.4069 1.05632
766 1 -1.1104 3.7475 28.1164 1.15105
767 1 -1.1104 3.70595 22.2632 3.87582
768 1 -1.1104 3.85236 28.0051 3.88951
773 1 -1.1104 6.63895 25.3269 3.98506
775 1 -1.1104 6.59417 27.9457 1.16951
776 1 -1.1104 6.42531 22.3114 3.87414
774 1 -1.1104 6.53293 22.4001 1.00901
772 1 -1.1104 6.61227 25.1112 1.01859
777 1 -1.1104 6.54549 28.0923 3.83248
900 1 -1.1104 3.89237 27.9247 6.6923
899 1 -1.1104 3.77303 22.2455 6.64138
893 1 -1.1104 6.53781 25.0829 6.723
1055 1 -1.1104 12.7449 44.9739 12.4425
896 1 -1.1104 6.51843 22.301 6.66225
778 2 2.2208 10.7574 23.796 5.18461
779 2 2.2208 10.9099 29.5126 5.37813
780 1 -1.1104 12.105 25.2934 1.05897
781 1 -1.1104 12.1436 25.4125 3.80216
782 1 -1.1104 12.1876 22.5526 1.00626
783 1 -1.1104 12.2076 28.0669 1.18286
784 2 2.2208 10.6906 26.7224 2.46521
785 1 -1.1104 12.0903 22.4321 3.83103
786 1 -1.1104 12.3792 28.2048 4.08982
787 1 -1.1104 9.30939 25.3331 1.1507
788 2 2.2208 7.90457 23.8847 2.56693
789 2 2.2208 8.03648 29.4493 2.56202
790 1 -1.1104 9.36501 25.2661 3.91462
791 2 2.2208 8.01851 26.6363 5.46904
792 1 -1.1104 9.42238 22.4216 1.09142
793 1 -1.1104 9.3139 28.0246 1.2387
794 1 -1.1104 9.27775 22.4217 3.84337
795 1 -1.1104 9.44134 28.022 4.07292
929 1 -1.1104 9.3303 22.4149 6.7174
796 2 2.2208 13.5403 23.8643 2.34897
928 1 -1.1104 9.28462 25.1494 6.64226
926 1 -1.1104 12.1139 22.2962 6.63081
798 2 2.2208 13.6233 26.5721 5.17417
797 2 2.2208 13.6473 29.466 2.58982
930 1 -1.1104 9.44589 28.0696 6.70412
927 1 -1.1104 12.1089 27.9955 6.71583
799 2 2.2208 5.11965 34.9979 5.35274
800 1 -1.1104 0.995613 30.7289 1.16752
801 1 -1.1104 0.960752 36.3719 0.976632
803 1 -1.1104 0.901516 30.8549 3.86735
804 1 -1.1104 1.06784 36.35 3.90357
806 1 -1.1104 1.11836 33.5687 1.11331
807 2 2.2208 5.14237 32.2478 2.53026
808 2 2.2208 5.29741 37.8081 2.63501
809 1 -1.1104 0.931679 33.537 4.01596
811 1 -1.1104 3.71643 30.8441 1.10739
812 1 -1.1104 3.86799 36.3361 1.19339
813 2 2.2208 2.48534 34.9882 2.45263
814 1 -1.1104 3.76984 30.8433 3.87981
815 1 -1.1104 3.79009 36.4518 3.9989
816 2 2.2208 2.37586 32.1478 5.20098
817 2 2.2208 2.43766 37.7863 5.25601
818 1 -1.1104 3.86817 33.6184 1.12818
819 1 -1.1104 3.70609 33.6482 3.8428
950 1 -1.1104 0.946377 36.4394 6.77986
823 1 -1.1104 6.48657 30.7336 1.24728
810 1 -1.1104 6.41095 33.6706 3.88176
825 1 -1.1104 6.59124 33.4696 0.993837
824 1 -1.1104 6.73747 30.8827 3.96393
802 1 -1.1104 6.68778 36.4502 1.21043
957 1 -1.1104 3.75925 33.7528 6.84091
955 1 -1.1104 3.83127 30.7689 6.58831
949 1 -1.1104 0.979263 30.8397 6.68469
951 1 -1.1104 6.62795 30.7787 6.57313
956 1 -1.1104 3.68485 36.3189 6.76138
953 1 -1.1104 0.932308 33.702 6.88419
1089 2 2.2208 7.9312 23.7674 13.7617
1054 2 2.2208 10.7884 43.4942 8.19749
805 1 -1.1104 6.50495 36.3425 4.03245
952 1 -1.1104 6.62836 36.3766 6.82327
826 2 2.2208 10.8195 35.0722 5.29073
827 1 -1.1104 12.3331 30.8909 1.28665
828 1 -1.1104 12.2521 36.3741 1.04358
829 1 -1.1104 12.2375 31.0583 4.04916
830 1 -1.1104 12.2107 36.6017 3.96041
831 1 -1.1104 12.112 33.7286 0.951521
832 2 2.2208 10.8999 32.2797 2.54223
833 2 2.2208 10.6906 37.867 2.29484
834 1 -1.1104 12.1335 33.7099 3.95832
835 1 -1.1104 9.58708 30.8667 1.04825
836 1 -1.1104 9.27027 36.3966 0.9274
837 2 2.2208 7.98952 35.0316 2.51854
838 1 -1.1104 9.52784 30.8555 3.90858
839 1 -1.1104 9.31555 36.5637 3.7862
840 2 2.2208 8.07501 32.282 5.21375
841 2 2.2208 8.10495 37.763 5.26559
842 1 -1.1104 9.44352 33.5939 1.13389
843 1 -1.1104 9.32156 33.6093 3.90377
1068 2 2.2208 13.6033 37.9445 5.18801
1069 2 2.2208 13.5361 32.2316 5.43639
984 1 -1.1104 12.2134 36.3957 6.74589
1056 1 -1.1104 12.3164 39.3311 12.4189
988 1 -1.1104 9.45141 33.759 6.80761