ITEM: TIMESTEP
70000
ITEM: NUMBER OF ATOMS
17672
ITEM: BOX BOUNDS pp pp pp
-3.6503655268477864e-01 2.7705036552684213e+01
-4.3121626487133558e+00 3.3239216264872846e+02
-3.5078021702957862e-01 2.7690780217029232e+01
ITEM: ATOMS id type q x y z
1 2 2.2208 5.50841 1.28178 5.28111
2 1 -1.1104 1.29934 -3.06727 1.13388
3 1 -1.1104 1.27831 2.73077 1.20275
6 1 -1.1104 1.25197 -3.01391 3.86323
7 1 -1.1104 1.41068 2.81025 3.81945
10 1 -1.1104 1.26367 -0.177841 0.970382
12 2 2.2208 5.43725 -1.57909 2.50793
13 2 2.2208 5.53471 4.15829 2.48973
14 1 -1.1104 1.28431 -0.0260547 3.87076
16 1 -1.1104 3.99776 -3.05314 1.07654
17 1 -1.1104 4.13124 2.98653 1.26081
18 2 2.2208 2.67587 1.39132 2.52253
19 1 -1.1104 3.89405 -2.84843 3.95963
20 1 -1.1104 4.21357 2.72766 4.00909
21 2 2.2208 2.73348 -1.57412 5.39478
22 2 2.2208 2.64374 4.06712 5.42214
23 1 -1.1104 4.19201 0.00627252 1.18271
24 1 -1.1104 4.15989 -0.256027 3.92786
166 1 -1.1104 1.40003 -2.86734 6.86185
311 2 2.2208 -0.0539965 20.8712 8.02197
27 2 2.2208 -0.249689 4.09818 2.52237
172 1 -1.1104 4.18123 -2.94661 6.55695
25 2 2.2208 -0.00430661 -1.52766 2.54846
26 2 2.2208 -0.0809707 1.28623 5.24931
232 2 2.2208 11.107 -4.43947 10.9757
381 2 2.2208 5.42918 1.344 -0.351283
344 2 2.2208 -0.0137904 7.01814 10.8621
382 2 2.2208 2.67939 -1.55615 -0.300159
4 1 -1.1104 6.80185 -2.91894 1.21894
8 1 -1.1104 6.7183 -2.89183 3.93985
5 1 -1.1104 6.96564 2.65702 1.104
15 1 -1.1104 6.97876 -0.102137 3.93301
296 1 -1.1104 6.87476 19.7907 12.4832
171 1 -1.1104 6.9945 -0.0864453 6.70355
168 1 -1.1104 7.05009 -2.93319 6.64332
9 1 -1.1104 6.90685 2.74447 3.82122
11 1 -1.1104 6.93759 -0.237041 1.08267
31 2 2.2208 11.1166 1.28456 5.22207
32 1 -1.1104 12.4141 -2.83681 1.01115
33 1 -1.1104 12.6388 2.66039 1.19786
34 1 -1.1104 12.3929 -3.14015 3.80761
35 1 -1.1104 12.5073 2.66562 3.93208
36 1 -1.1104 12.6559 -0.0724889 1.18997
37 2 2.2208 11.1969 -1.58318 2.49147
38 2 2.2208 11.1185 4.14137 2.60113
39 1 -1.1104 12.6326 -0.269707 3.86014
40 1 -1.1104 9.70563 -3.09128 0.918864
41 1 -1.1104 9.70624 2.55095 1.09852
42 2 2.2208 8.21231 1.25908 2.32759
43 1 -1.1104 9.70766 -2.88947 3.83703
44 1 -1.1104 9.84841 2.64444 3.97328
45 2 2.2208 8.22069 -1.54523 5.25889
46 2 2.2208 8.35866 4.06471 5.29748
47 1 -1.1104 9.92173 -0.150496 1.04901
48 1 -1.1104 9.81058 -0.198119 3.82876
208 1 -1.1104 9.67377 -2.96074 6.74177
206 1 -1.1104 12.4954 2.69063 6.67464
209 1 -1.1104 9.60487 2.5257 6.71545
290 1 -1.1104 6.83545 14.1441 9.51235
319 1 -1.1104 9.64171 13.9925 9.66846
54 2 2.2208 5.55171 6.87309 5.30749
55 2 2.2208 5.50668 12.5583 5.24682
56 1 -1.1104 1.29892 8.33217 1.19116
58 1 -1.1104 1.26966 8.35734 3.94815
60 1 -1.1104 1.08549 5.7079 1.08705
61 1 -1.1104 1.2895 11.1703 1.06229
66 2 2.2208 5.47547 9.64229 2.50068
67 1 -1.1104 1.19353 5.55168 3.96767
68 1 -1.1104 1.32677 11.3006 3.89962
71 1 -1.1104 4.12762 8.35336 1.1149
72 2 2.2208 2.58149 6.89804 2.65719
73 2 2.2208 2.74543 12.5931 2.55788
74 1 -1.1104 4.1274 8.33535 3.90128
75 2 2.2208 2.76954 9.8177 5.29337
76 1 -1.1104 4.29018 5.6744 1.10916
77 1 -1.1104 4.19653 11.2926 0.962716
79 1 -1.1104 3.90907 5.56446 3.89215
80 1 -1.1104 4.02922 10.9437 3.71476
64 1 -1.1104 6.90137 11.0324 1.17487
401 2 2.2208 -0.0939527 18.1938 -0.261265
317 2 2.2208 8.38239 15.4989 10.9182
82 2 2.2208 -0.0522372 9.73457 2.53237
30 2 2.2208 -0.0179377 -4.39143 5.27988
62 1 -1.1104 1.31842 11.123 6.61204
238 1 -1.1104 4.07695 8.25973 6.60019
236 1 -1.1104 1.35957 5.53666 6.7075
78 1 -1.1104 4.21354 11.0409 6.59306
239 1 -1.1104 4.12724 5.56965 6.75711
363 2 2.2208 8.27497 6.9238 13.6448
388 2 2.2208 8.36898 -1.54432 -0.342595
231 2 2.2208 8.31984 -4.2581 8.08826
70 1 -1.1104 6.79006 11.1765 3.9259
57 1 -1.1104 6.91354 8.22601 1.09664
59 1 -1.1104 6.92052 8.34824 3.93276
63 1 -1.1104 7.15623 5.41797 1.09816
69 1 -1.1104 6.90426 5.61193 3.86151
84 2 2.2208 11.1478 6.7681 5.24124
85 2 2.2208 11.0985 12.6414 5.43732
86 1 -1.1104 12.5763 8.25916 0.956018
87 1 -1.1104 12.5881 8.2425 3.86856
88 1 -1.1104 12.5574 5.51234 1.16214
89 1 -1.1104 12.5806 11.0432 1.04646
91 2 2.2208 11.1347 9.66028 2.5025
92 1 -1.1104 12.6102 5.51731 3.90666
93 1 -1.1104 12.4727 11.2213 3.92246
94 1 -1.1104 9.85572 8.39103 1.02425
95 2 2.2208 8.35755 6.88028 2.3847
96 2 2.2208 8.29986 12.5215 2.53573
97 1 -1.1104 9.7569 8.20773 3.78153
98 2 2.2208 8.40134 9.72923 5.43629
99 1 -1.1104 9.81214 5.44258 0.989365
100 1 -1.1104 9.70068 11.2791 1.11482
102 1 -1.1104 9.74317 5.53208 3.91604
103 1 -1.1104 9.68719 11.0616 3.9159
265 1 -1.1104 12.5939 8.07576 6.69959
90 1 -1.1104 12.6196 10.9774 6.72094
51 2 2.2208 8.34308 -4.34602 2.53858
235 1 -1.1104 6.94694 8.27253 6.83535
136 2 2.2208 -0.0996867 21.082 2.54702
106 2 2.2208 5.48135 18.2166 5.24542
107 1 -1.1104 1.10641 14.0385 1.16785
109 1 -1.1104 1.23734 19.6101 1.15838
113 1 -1.1104 1.29817 14.0402 3.8882
114 1 -1.1104 1.1426 19.7048 4.09055
116 1 -1.1104 1.25967 16.7341 1.10579
119 2 2.2208 5.59259 15.2964 2.63896
120 2 2.2208 5.36496 21.0709 2.53741
121 1 -1.1104 1.42527 16.872 3.8445
123 1 -1.1104 4.11727 14.0802 1.03644
125 1 -1.1104 4.01334 19.679 1.20284
127 2 2.2208 2.65476 18.1299 2.5015
128 1 -1.1104 4.16687 13.7813 3.85679
129 1 -1.1104 3.92407 19.6003 3.96323
130 2 2.2208 2.72697 15.4267 5.17926
131 2 2.2208 2.65277 21.003 5.29931
132 1 -1.1104 3.99181 16.7828 1.06988
134 1 -1.1104 4.11018 16.6851 3.81471
140 1 -1.1104 7.07614 16.7256 1.07793
403 2 2.2208 2.73024 15.3394 -0.27899
137 2 2.2208 -0.13906 18.194 5.27848
325 2 2.2208 11.1708 15.2992 8.21016
404 2 2.2208 5.34051 18.1475 -0.231
379 2 2.2208 8.21507 20.9649 -0.30896
122 1 -1.1104 6.9057 16.6748 3.97662
138 1 -1.1104 6.78527 19.6078 1.15445
139 1 -1.1104 6.91238 19.6851 3.86332
115 1 -1.1104 6.97026 13.8918 3.98239
110 1 -1.1104 6.89544 13.8775 1.32984
141 2 2.2208 11.1503 18.2379 5.37051
142 1 -1.1104 12.4981 13.9437 1.12601
144 1 -1.1104 12.6276 19.5431 1.01642
146 1 -1.1104 12.527 14.0405 3.85207
147 1 -1.1104 12.487 19.7055 3.85408
148 1 -1.1104 12.4938 16.734 0.991497
150 2 2.2208 11.0777 15.3956 2.53115
151 2 2.2208 11.1465 21.0056 2.36976
152 1 -1.1104 12.5557 16.9426 3.97961
153 1 -1.1104 9.86811 14.0663 0.962358
155 1 -1.1104 9.65387 19.4484 1.02516
157 2 2.2208 8.34819 18.1552 2.50905
158 1 -1.1104 9.67931 13.8061 4.12808
159 1 -1.1104 9.65301 19.6095 3.8264
160 2 2.2208 8.3227 15.2715 5.33229
161 2 2.2208 8.27892 21.0834 5.21258
162 1 -1.1104 9.82691 16.8088 1.06936
164 1 -1.1104 9.62765 16.6303 3.84379
154 1 -1.1104 9.81169 13.9302 6.8391
372 2 2.2208 11.0224 20.9368 13.7685
201 2 2.2208 0.0276635 1.38207 10.9488
173 1 -1.1104 3.9575 2.67837 6.78485
174 1 -1.1104 4.10442 -0.131353 6.62033
199 2 2.2208 -0.0812335 3.97243 8.19304
167 1 -1.1104 1.25355 2.62028 6.57005
170 1 -1.1104 1.29365 -0.357954 6.70178
175 2 2.2208 5.62334 1.2987 10.8756
176 1 -1.1104 1.3381 -3.06009 12.3387
177 1 -1.1104 1.40202 2.7692 12.2436
180 1 -1.1104 1.33124 -2.97375 9.67034
181 1 -1.1104 1.38744 2.67777 9.38987
184 1 -1.1104 1.28701 -0.0463949 12.4315
186 2 2.2208 5.62475 -1.46438 8.02439
188 1 -1.1104 1.33885 -0.0322666 9.67571
190 1 -1.1104 4.08311 -2.89448 12.3827
191 1 -1.1104 4.15021 2.71508 12.2517
192 2 2.2208 2.65798 1.21465 8.23042
193 1 -1.1104 4.12027 -2.76069 9.55178
194 1 -1.1104 4.07879 2.78066 9.53036
195 2 2.2208 2.60778 -1.60938 11.0355
196 2 2.2208 2.73285 4.11784 10.8737
197 1 -1.1104 4.23694 -0.0924679 12.2737
198 1 -1.1104 4.20615 -0.0595181 9.5083
187 2 2.2208 5.53726 4.00529 8.07859
189 1 -1.1104 6.84931 -0.10382 9.53375
320 2 2.2208 8.33761 18.2453 8.03778
200 2 2.2208 -0.100802 -1.56016 8.2518
329 1 -1.1104 12.5617 19.6414 12.385
207 1 -1.1104 12.4902 -0.100998 6.67598
326 1 -1.1104 12.5258 16.8207 12.3479
169 1 -1.1104 6.81813 2.6787 6.73882
178 1 -1.1104 7.00127 -2.91221 12.3496
185 1 -1.1104 7.04488 -0.00401743 12.3092
210 1 -1.1104 9.80284 -0.225498 6.59804
205 1 -1.1104 12.5305 -2.93004 6.81854
179 1 -1.1104 7.05987 2.76231 12.2895
182 1 -1.1104 7.00395 -2.90068 9.3993
183 1 -1.1104 7.02471 2.73848 9.39535
211 2 2.2208 11.2529 1.09849 10.8585
212 1 -1.1104 12.6276 -3.011 12.3488
213 1 -1.1104 12.7031 2.68558 12.2725
214 1 -1.1104 12.5628 -2.89478 9.41919
215 1 -1.1104 12.636 2.70239 9.42492
216 1 -1.1104 12.441 -0.33452 12.2545
217 2 2.2208 11.1558 -1.57948 8.11655
218 2 2.2208 11.2187 3.99323 8.13769
219 1 -1.1104 12.5653 -0.133508 9.46558
220 1 -1.1104 9.83126 -2.99858 12.4927
221 1 -1.1104 9.86868 2.6639 12.2449
222 2 2.2208 8.31686 1.24011 8.03036
223 1 -1.1104 9.72526 -2.90676 9.65153
224 1 -1.1104 9.84022 2.54362 9.52534
225 2 2.2208 8.30833 -1.45652 10.8247
226 2 2.2208 8.3939 4.00837 10.8062
227 1 -1.1104 9.73034 -0.111418 12.2737
228 1 -1.1104 9.727 -0.0984761 9.36816
353 2 2.2208 8.42376 -4.22598 13.8005
83 2 2.2208 -0.0936195 12.5808 5.31829
315 1 -1.1104 9.68113 16.8125 12.3968
342 2 2.2208 -0.22158 12.4596 10.8628
322 1 -1.1104 9.67017 14.0371 12.5116
234 1 -1.1104 1.29586 8.48845 6.76905
240 2 2.2208 5.47968 6.79853 10.8939
241 2 2.2208 5.41331 12.6701 10.947
242 1 -1.1104 1.24436 8.35265 12.3504
244 1 -1.1104 1.22214 8.36237 9.6331
246 1 -1.1104 1.29245 5.70922 12.3805
247 1 -1.1104 1.21198 11.1887 12.3044
250 2 2.2208 5.60669 9.70032 8.0451
251 1 -1.1104 1.16002 5.51556 9.66261
252 1 -1.1104 1.2718 11.1763 9.5122
255 1 -1.1104 3.87192 8.20773 12.1953
256 2 2.2208 2.68063 6.90252 8.11312
257 2 2.2208 2.69509 12.6343 7.97745
258 1 -1.1104 4.0109 8.42435 9.45225
259 2 2.2208 2.58597 9.77287 10.8162
260 1 -1.1104 4.1877 5.50268 12.2416
261 1 -1.1104 3.91597 11.1711 12.1868
262 1 -1.1104 3.94835 5.65056 9.50821
263 1 -1.1104 4.23644 11.246 9.33082
312 2 2.2208 0.0597324 18.2436 10.9369
149 1 -1.1104 12.4753 16.9295 6.91263
327 1 -1.1104 12.4403 19.6053 9.63951
65 1 -1.1104 6.99217 11.163 6.77917
237 1 -1.1104 6.94428 5.44984 6.63791
245 1 -1.1104 6.97062 8.35067 9.70012
254 1 -1.1104 6.85529 11.2742 9.67422
243 1 -1.1104 6.77707 8.3833 12.4228
267 1 -1.1104 9.59419 8.22065 6.55799
101 1 -1.1104 9.90381 11.0603 6.74976
253 1 -1.1104 7.06756 5.37195 9.38598
248 1 -1.1104 6.95214 5.59722 12.288
266 1 -1.1104 12.574 5.40618 6.69453
269 1 -1.1104 9.78209 5.34949 6.7272
249 1 -1.1104 6.87873 11.2907 12.5324
264 1 -1.1104 9.61814 11.1279 9.50918
268 1 -1.1104 9.79328 5.4093 9.48363
270 1 -1.1104 9.72127 11.3357 12.4346
271 1 -1.1104 9.7032 5.51573 12.2305
272 2 2.2208 8.14474 9.84594 11.0605
273 1 -1.1104 9.71753 8.21383 9.32621
274 2 2.2208 8.286 12.5771 8.19856
275 2 2.2208 8.36415 6.79771 8.06639
276 2 2.2208 11.0436 6.8327 10.9041
277 2 2.2208 11.0523 12.5267 10.9533
278 1 -1.1104 12.4326 8.32605 12.1713
279 1 -1.1104 12.6293 8.36283 9.48337
280 1 -1.1104 12.531 5.31249 12.3558
281 1 -1.1104 12.5801 11.1115 12.2889
282 2 2.2208 11.1109 9.66024 8.1556
283 1 -1.1104 12.7372 5.52679 9.54208
284 1 -1.1104 12.4579 11.2627 9.415
285 1 -1.1104 9.49995 8.44312 12.1341
313 2 2.2208 -0.152226 15.2426 8.09216
118 1 -1.1104 6.85783 16.8126 6.62371
126 1 -1.1104 4.26107 19.6903 6.61398
124 1 -1.1104 4.0137 14.0358 6.47558
52 2 2.2208 11.1332 -4.33174 5.29617
117 1 -1.1104 1.35816 16.6697 6.60629
108 1 -1.1104 1.21509 13.8985 6.61455
133 1 -1.1104 3.98727 16.9079 6.71966
302 1 -1.1104 1.32824 19.5582 6.79264
292 1 -1.1104 1.32203 16.6284 9.42166
291 1 -1.1104 1.3178 19.473 9.57319
310 2 2.2208 2.68247 15.3678 10.9156
309 2 2.2208 2.70384 21.0296 10.8625
308 1 -1.1104 3.93008 16.9814 12.1731
307 1 -1.1104 1.35944 16.8796 12.2934
305 1 -1.1104 4.18447 14.0233 9.23907
304 1 -1.1104 4.12574 16.8655 9.55725
303 2 2.2208 2.71269 18.0574 8.09988
301 1 -1.1104 3.99421 19.556 9.5243
300 2 2.2208 5.54431 18.2995 10.9101
299 1 -1.1104 1.25602 13.9783 12.2444
298 1 -1.1104 1.45241 19.6911 12.1936
295 2 2.2208 5.50508 15.4243 8.22547
294 1 -1.1104 1.343 13.8751 9.45814
287 1 -1.1104 4.08108 14.0263 12.1633
293 2 2.2208 5.45129 21.0089 8.12268
286 1 -1.1104 4.19498 19.7475 12.3446
297 1 -1.1104 6.87327 13.955 12.395
314 1 -1.1104 9.87648 16.7565 9.51299
323 1 -1.1104 12.6119 16.6403 9.56533
331 2 2.2208 11.2121 18.2294 10.9816
145 1 -1.1104 12.4181 19.7102 6.75132
163 1 -1.1104 9.7716 16.8071 6.71785
321 1 -1.1104 9.72266 19.5994 12.4428
316 2 2.2208 8.25467 20.9842 10.9747
324 2 2.2208 11.1316 21.0265 8.15153
318 1 -1.1104 9.73163 19.5249 9.61905
111 1 -1.1104 6.89234 13.8896 6.72502
143 1 -1.1104 12.5646 13.9314 6.74606
306 1 -1.1104 6.87646 16.9585 12.413
112 1 -1.1104 6.94062 19.6752 6.73485
289 1 -1.1104 6.93726 17.0067 9.48786
288 1 -1.1104 6.76807 19.6454 9.49009
156 1 -1.1104 9.60039 19.7212 6.85683
328 1 -1.1104 12.4633 13.8481 9.52036
330 1 -1.1104 12.4451 14.0337 12.2957
405 2 2.2208 2.60763 21.199 -0.254016
135 2 2.2208 -0.163474 15.3758 2.44059
343 2 2.2208 -0.0933121 9.8053 8.18367
81 2 2.2208 -0.114763 6.84449 5.24952
377 2 2.2208 8.3239 15.3571 -0.372854
386 2 2.2208 -0.0893646 1.31158 -0.183104
394 2 2.2208 2.64451 9.82502 -0.241868
355 2 2.2208 8.45991 1.32866 13.7062
397 2 2.2208 -0.114289 7.16809 -0.330124
378 2 2.2208 11.0778 18.2621 -0.322261
389 2 2.2208 8.29934 4.02039 -0.304971
349 2 2.2208 2.70702 1.28422 13.7984
369 2 2.2208 5.42969 21.1359 13.674
351 2 2.2208 -0.174245 15.3447 13.5841
361 2 2.2208 2.5615 12.5243 13.593
383 2 2.2208 2.63207 4.2074 -0.2441
364 2 2.2208 11.0713 9.77264 13.6599
387 2 2.2208 11.1181 1.3646 -0.236642
360 2 2.2208 5.46526 9.74735 13.7116
385 2 2.2208 5.39942 -4.28753 -0.313067
406 2 2.2208 5.51886 1.34978 16.4128
407 1 -1.1104 1.24678 -2.8806 17.8232
408 1 -1.1104 1.27096 2.77077 17.9281
411 1 -1.1104 1.41315 -2.79443 15.0691
413 1 -1.1104 1.40722 2.84518 15.1064
419 1 -1.1104 1.32465 -0.0123307 17.906
421 2 2.2208 5.4838 -1.44167 19.2343
423 1 -1.1104 1.269 0.0495349 15.1948
427 1 -1.1104 4.14155 -2.86643 17.9228
428 1 -1.1104 4.19982 2.72184 17.9464
429 2 2.2208 2.79779 1.36035 19.234
430 1 -1.1104 4.25378 -2.89899 15.0474
432 1 -1.1104 4.05093 2.83321 15.1606
434 2 2.2208 2.7717 -1.4335 16.594
435 2 2.2208 2.59647 4.23373 16.5602
436 1 -1.1104 3.9776 -0.0173072 17.8733
437 1 -1.1104 4.19407 -0.0546228 15.1367
422 2 2.2208 5.44677 4.11136 19.3124
723 2 2.2208 -0.218011 18.2455 22.129
414 1 -1.1104 1.17516 2.83743 20.7814
544 2 2.2208 -0.0808302 4.31651 19.3111
424 1 -1.1104 1.32256 0.124407 20.8032
431 1 -1.1104 4.08029 -2.83444 20.6803
412 1 -1.1104 1.35106 -2.88636 20.5566
442 2 2.2208 -0.0497921 1.37295 16.4701
443 2 2.2208 -0.0535786 -1.33139 19.2634
440 2 2.2208 5.56661 -4.26782 16.514
441 2 2.2208 2.66184 -4.35602 19.2028
702 2 2.2208 -0.0998786 9.85701 24.9296
417 1 -1.1104 6.80509 2.72703 15.0885
425 1 -1.1104 6.99121 0.0944155 15.096
368 2 2.2208 2.68238 18.1868 13.7305
409 1 -1.1104 6.85145 -2.93726 17.9802
415 1 -1.1104 7.05248 -2.77742 15.2321
420 1 -1.1104 6.76444 -0.100162 17.9136
410 1 -1.1104 6.99323 2.46495 17.8588
449 2 2.2208 11.0697 1.24893 16.5276
450 1 -1.1104 12.6008 -2.94514 18.0508
451 1 -1.1104 12.3732 2.68141 18.004
452 1 -1.1104 12.7639 -2.8785 15.15
454 1 -1.1104 12.4863 2.63938 15.0956
456 1 -1.1104 12.511 -0.182013 17.8589
457 2 2.2208 11.1841 -1.59107 19.39
458 2 2.2208 10.9997 4.12634 19.3332
459 1 -1.1104 12.4267 -0.0277595 15.0359
461 1 -1.1104 9.78298 -2.90067 17.9575
462 1 -1.1104 9.73987 2.6996 18.0368
463 2 2.2208 8.28795 1.17199 19.347
464 1 -1.1104 9.86917 -2.77683 15.2191
466 1 -1.1104 9.65283 2.7876 15.0915
468 2 2.2208 8.34459 -1.49988 16.7081
469 2 2.2208 8.29268 4.06637 16.6051
470 1 -1.1104 9.71871 -0.155682 17.9052
471 1 -1.1104 9.72542 -0.123162 15.0306
455 1 -1.1104 12.5097 2.79232 20.7925
453 1 -1.1104 12.5025 -2.99364 20.6834
347 2 2.2208 2.78867 -4.30197 13.6852
472 1 -1.1104 9.58594 -0.192175 20.5907
426 1 -1.1104 6.90567 -0.188425 20.678
460 1 -1.1104 12.2961 -0.0982281 20.7381
416 1 -1.1104 6.94838 -2.99146 20.6447
515 2 2.2208 -0.128996 9.92476 19.3141
482 2 2.2208 5.54576 6.82439 16.5486
483 2 2.2208 5.45274 12.6428 16.4232
484 1 -1.1104 1.38248 8.28706 17.9422
486 1 -1.1104 1.42339 8.42492 15.0974
490 1 -1.1104 1.41162 5.60404 17.9774
491 1 -1.1104 1.31226 11.096 17.9866
494 2 2.2208 5.57439 9.84579 19.3913
495 1 -1.1104 1.43052 5.64229 15.0932
497 1 -1.1104 1.22747 11.1877 15.2472
503 1 -1.1104 4.19563 8.2401 17.9715
504 2 2.2208 2.88162 6.88432 19.368
505 2 2.2208 2.81694 12.6209 19.3967
506 1 -1.1104 4.12953 8.39166 15.1383
508 2 2.2208 2.87786 9.71119 16.5261
509 1 -1.1104 4.11178 5.41282 17.9883
510 1 -1.1104 4.0879 11.1493 17.874
511 1 -1.1104 4.03523 5.56414 15.0518
513 1 -1.1104 3.89379 11.1584 14.9385
496 1 -1.1104 1.34942 5.56871 20.8075
512 1 -1.1104 4.2191 5.55515 20.7146
359 2 2.2208 2.61818 7.0224 13.7277
516 2 2.2208 0.055763 12.5976 16.5192
481 2 2.2208 0.0488584 7.18288 16.4891
501 1 -1.1104 6.71723 11.1449 15.1398
488 1 -1.1104 6.84656 8.30375 15.2049
493 1 -1.1104 6.89714 11.2347 17.8509
485 1 -1.1104 6.97561 8.31135 17.8513
492 1 -1.1104 6.86081 5.41023 17.8916
499 1 -1.1104 6.92346 5.42097 15.0989
518 2 2.2208 11.1561 6.90584 16.4469
519 2 2.2208 11.2428 12.5477 16.6023
520 1 -1.1104 12.538 8.40218 17.893
521 1 -1.1104 12.6674 8.24199 15.0356
523 1 -1.1104 12.5915 5.5663 17.9053
524 1 -1.1104 12.6635 11.2545 18.1495
525 2 2.2208 11.133 9.74797 19.2917
526 1 -1.1104 12.5092 5.50715 15.1518
528 1 -1.1104 12.5192 11.11 15.2254
530 1 -1.1104 9.70352 8.26464 17.8825
531 2 2.2208 8.35104 6.93385 19.2672
532 2 2.2208 8.34477 12.5269 19.2565
533 1 -1.1104 9.6617 8.34791 15.0574
535 2 2.2208 8.24825 9.77973 16.5398
536 1 -1.1104 9.71735 5.51581 17.9176
537 1 -1.1104 9.85139 11.2165 17.9052
538 1 -1.1104 9.71186 5.59006 15.1682
540 1 -1.1104 9.6075 11.1322 15.1606
541 1 -1.1104 9.76898 11.1286 20.6135
529 1 -1.1104 12.5697 11.0714 20.727
534 1 -1.1104 9.71097 8.34377 20.5834
639 2 2.2208 5.57802 -4.37429 22.0752
358 2 2.2208 -0.134211 9.8078 13.7561
670 1 -1.1104 6.75945 19.7138 26.3769
476 2 2.2208 -0.0599811 20.9849 19.3132
448 2 2.2208 -0.00966371 15.3326 19.3093
545 2 2.2208 5.49658 18.1735 16.5507
546 1 -1.1104 1.37146 13.9422 17.9409
547 1 -1.1104 1.23034 19.6373 17.9208
550 1 -1.1104 1.21259 14.0112 15.0635
552 1 -1.1104 1.31013 19.4936 15.1953
558 1 -1.1104 1.26525 16.7999 17.8423
560 2 2.2208 5.53349 15.5283 19.4128
561 2 2.2208 5.47173 20.8982 19.3492
562 1 -1.1104 1.21895 16.7569 14.9851
566 1 -1.1104 3.97952 13.8769 17.8447
567 1 -1.1104 4.1153 19.6683 17.8983
568 2 2.2208 2.70349 18.2631 19.2379
569 1 -1.1104 4.05691 13.951 15.0807
571 1 -1.1104 4.08477 19.5784 15.1944
573 2 2.2208 2.63538 15.3542 16.5305
574 2 2.2208 2.80711 21.0347 16.5232
575 1 -1.1104 3.91699 16.8017 17.8568
576 1 -1.1104 4.00216 16.7605 15.0391
549 1 -1.1104 6.92779 19.5493 17.9626
572 1 -1.1104 4.13974 19.4808 20.7557
570 1 -1.1104 4.10308 14.1146 20.66
447 2 2.2208 -0.107871 18.1196 16.4434
352 2 2.2208 5.45237 4.10563 13.7302
701 1 -1.1104 9.68791 16.7386 23.5087
577 1 -1.1104 4.07103 16.9094 20.6634
563 1 -1.1104 1.34717 16.7679 20.6
439 2 2.2208 -0.172978 -4.19212 16.6068
367 2 2.2208 0.0419569 4.34836 13.6549
597 1 -1.1104 9.78965 13.9058 20.8558
585 1 -1.1104 12.6651 14.044 20.7242
554 1 -1.1104 6.95549 14.0281 15.1749
548 1 -1.1104 6.85114 13.9702 17.9657
559 1 -1.1104 6.87162 16.7286 17.8976
557 1 -1.1104 6.87677 19.4833 20.7904
556 1 -1.1104 6.82942 19.582 15.2276
564 1 -1.1104 6.82951 16.7284 15.1976
581 2 2.2208 11.0672 18.1654 16.6053
582 1 -1.1104 12.4394 14.0411 17.96
583 1 -1.1104 12.6438 19.4686 17.8869
584 1 -1.1104 12.6532 13.8912 15.1694
586 1 -1.1104 12.347 19.5433 15.1401
588 1 -1.1104 12.495 16.8178 18.0426
589 2 2.2208 11.0778 15.4619 19.4245
590 2 2.2208 11.161 20.8436 19.329
591 1 -1.1104 12.5828 16.6276 15.1699
593 1 -1.1104 9.69575 14.0056 18.0706
594 1 -1.1104 9.88378 19.5772 18.1007
595 2 2.2208 8.32557 18.1827 19.3162
596 1 -1.1104 9.7598 13.8264 15.3151
598 1 -1.1104 9.51458 19.5354 15.2575
600 2 2.2208 8.32975 15.3805 16.5849
601 2 2.2208 8.15277 21.1145 16.562
602 1 -1.1104 9.61267 16.824 18.0471
603 1 -1.1104 9.73978 16.8851 15.2294
599 1 -1.1104 9.64701 19.5686 20.7034
604 1 -1.1104 9.68067 16.8458 20.7126
565 1 -1.1104 6.87047 16.8633 20.7463
663 1 -1.1104 12.3099 16.7566 26.317
399 2 2.2208 8.35053 9.63767 27.7764
348 2 2.2208 5.64022 -1.39165 13.6641
438 1 -1.1104 4.06704 -0.0573415 20.8054
433 1 -1.1104 3.99745 2.75452 20.6872
633 1 -1.1104 12.4531 19.5188 23.6121
644 2 2.2208 -0.147572 4.15475 24.8635
643 2 2.2208 -0.192363 1.46235 22.1366
642 2 2.2208 0.0108042 -1.56727 24.9809
609 2 2.2208 5.48147 1.24176 22.2566
610 1 -1.1104 1.29047 -2.93298 23.5824
611 1 -1.1104 1.25277 2.72511 23.6264
614 1 -1.1104 1.17424 -3.04379 26.4309
615 1 -1.1104 1.41685 2.69959 26.5046
618 1 -1.1104 1.33083 -0.289264 23.6441
620 2 2.2208 5.55051 -1.46297 24.928
621 2 2.2208 5.34496 4.18435 24.8761
622 1 -1.1104 1.1757 -0.037416 26.3926
624 1 -1.1104 4.18485 -2.90715 23.5646
625 1 -1.1104 4.05502 2.67939 23.6055
626 2 2.2208 2.61205 1.24171 24.9738
627 1 -1.1104 4.05007 -2.92635 26.4164
628 1 -1.1104 4.04412 2.66211 26.4134
629 2 2.2208 2.69783 -1.50844 22.1676
631 1 -1.1104 4.05924 -0.172208 23.6083
632 1 -1.1104 3.86371 -0.0846272 26.3539
630 2 2.2208 2.71585 4.15975 22.1522
371 2 2.2208 5.5832 15.3821 13.7174
587 1 -1.1104 12.4652 19.5402 20.691
698 1 -1.1104 9.62045 19.5849 26.249
418 1 -1.1104 6.87271 2.69233 20.7565
467 1 -1.1104 9.55158 2.5903 20.8007
619 1 -1.1104 6.94624 -0.123241 23.6563
612 1 -1.1104 6.87217 -2.8111 23.4375
616 1 -1.1104 6.88692 -2.76903 26.3696
465 1 -1.1104 9.6756 -3.0729 20.7558
613 1 -1.1104 6.87911 2.8409 23.5106
617 1 -1.1104 6.8789 2.7549 26.2282
623 1 -1.1104 6.87323 -0.0178688 26.2651
645 2 2.2208 11.044 1.29848 22.1469
646 1 -1.1104 12.4526 -2.92889 23.4923
647 1 -1.1104 12.5015 2.73204 23.6644
648 1 -1.1104 12.4312 -3.03654 26.3169
649 1 -1.1104 12.3646 2.81591 26.4566
650 1 -1.1104 12.6785 -0.20504 23.6324
651 2 2.2208 11.1126 -1.48922 24.9142
652 2 2.2208 11.1123 4.11398 24.9182
653 1 -1.1104 12.4636 -0.0301271 26.244
654 1 -1.1104 9.73573 -2.93718 23.4964
655 1 -1.1104 9.70322 2.76539 23.6367
656 2 2.2208 8.23343 1.39066 24.9713
657 1 -1.1104 9.53735 -2.86727 26.2403
658 1 -1.1104 9.60093 2.75123 26.3172
659 2 2.2208 8.40203 -1.4643 22.0945
660 2 2.2208 8.2445 4.22163 22.2694
661 1 -1.1104 9.77336 -0.164222 23.5936
662 1 -1.1104 9.71894 0.0111048 26.4373
724 2 2.2208 -0.269074 21.0428 24.9292
641 2 2.2208 11.1309 20.8768 24.9585
636 1 -1.1104 12.6302 16.7388 23.5069
498 1 -1.1104 1.47329 11.2462 20.717
700 2 2.2208 8.20119 20.937 22.2413
444 2 2.2208 -0.0684465 6.96036 22.1316
514 1 -1.1104 4.27245 11.3197 20.7157
507 1 -1.1104 4.04404 8.57866 20.8065
703 2 2.2208 -0.0567702 12.5834 22.0777
487 1 -1.1104 1.24187 8.44483 20.6758
674 2 2.2208 5.56022 6.92639 22.0865
675 2 2.2208 5.46126 12.64 22.2102
676 1 -1.1104 1.4325 8.33541 23.3784
678 1 -1.1104 1.33257 8.23178 26.4444
680 1 -1.1104 1.29154 5.52767 23.6464
681 1 -1.1104 1.34458 11.2853 23.646
684 2 2.2208 5.48901 9.79794 24.9282
685 1 -1.1104 1.2436 5.36229 26.3273
686 1 -1.1104 1.37415 11.1638 26.3439
689 1 -1.1104 4.032 8.36648 23.661
690 2 2.2208 2.74635 6.98894 25.0076
691 2 2.2208 2.67561 12.6335 24.9525
692 1 -1.1104 4.13922 8.3965 26.362
693 2 2.2208 2.64247 9.90523 22.1748
694 1 -1.1104 4.01365 5.58442 23.5355
695 1 -1.1104 4.17709 11.2204 23.4109
696 1 -1.1104 4.05868 5.53217 26.3385
697 1 -1.1104 4.10261 11.1761 26.3318
683 1 -1.1104 6.9512 11.0179 23.5771
682 1 -1.1104 6.84227 5.65914 23.4681
673 1 -1.1104 9.7566 13.9477 26.3742
502 1 -1.1104 7.02579 11.1646 20.6737
527 1 -1.1104 12.5327 5.43771 20.6555
489 1 -1.1104 7.02107 8.39495 20.5197
539 1 -1.1104 9.76404 5.5832 20.7036
500 1 -1.1104 6.97094 5.46253 20.8044
688 1 -1.1104 6.97554 11.1575 26.4325
687 1 -1.1104 6.79287 5.53818 26.3641
677 1 -1.1104 6.87508 8.36105 23.4964
522 1 -1.1104 12.5315 8.33859 20.6862
679 1 -1.1104 6.88048 8.2686 26.2862
705 1 -1.1104 9.77148 11.0854 26.3539
706 1 -1.1104 9.73265 5.62293 26.3197
707 1 -1.1104 9.77553 11.2055 23.4429
708 1 -1.1104 9.69112 5.68196 23.51
709 2 2.2208 8.37914 9.79326 22.0393
710 1 -1.1104 9.64605 8.39397 26.2643
711 2 2.2208 8.32485 12.3765 24.9257
712 2 2.2208 8.27536 6.9598 24.8973
713 2 2.2208 11.0514 6.97003 22.0345
714 2 2.2208 11.2213 12.5868 22.1243
715 1 -1.1104 12.4967 8.28764 23.3495
716 1 -1.1104 12.4475 8.32086 26.1599
717 1 -1.1104 12.4358 5.5229 23.4295
718 1 -1.1104 12.5968 11.1844 23.5567
719 2 2.2208 11.1698 9.76307 24.7671
720 1 -1.1104 12.5724 5.50174 26.1997
721 1 -1.1104 12.5977 11.1724 26.326
722 1 -1.1104 9.75192 8.49942 23.3987
634 1 -1.1104 12.4825 14.05 26.2733
551 1 -1.1104 1.32886 14.1487 20.7703
725 2 2.2208 -0.169934 15.465 24.8036
732 1 -1.1104 6.67257 16.8225 26.2706
553 1 -1.1104 1.31423 19.6484 20.7761
748 1 -1.1104 1.39686 16.8048 23.6183
746 1 -1.1104 4.24423 14.0389 26.4578
745 1 -1.1104 4.01019 16.8654 26.3683
744 2 2.2208 2.60552 18.3532 25.0446
750 2 2.2208 2.78828 20.9756 22.1907
749 1 -1.1104 4.15381 16.905 23.558
727 2 2.2208 2.7154 15.5944 22.1664
729 1 -1.1104 4.02068 19.5877 23.4694
731 1 -1.1104 4.05354 13.9388 23.6404
733 1 -1.1104 1.24394 19.7205 26.4095
734 1 -1.1104 1.17647 16.8337 26.2468
735 1 -1.1104 1.2481 14.0217 26.2549
737 2 2.2208 5.46676 20.9857 24.9279
738 2 2.2208 5.47597 15.4569 24.9528
740 1 -1.1104 1.36011 19.7274 23.4803
741 1 -1.1104 1.37085 14.1266 23.4949
742 2 2.2208 5.52543 18.2249 22.0872
743 1 -1.1104 4.01348 19.6979 26.3578
704 1 -1.1104 9.42531 16.8536 26.3438
730 1 -1.1104 7.07416 13.9496 26.1945
667 2 2.2208 8.15024 18.0584 24.8489
635 1 -1.1104 12.4392 19.6251 26.3668
699 2 2.2208 8.34743 15.2599 22.2259
592 1 -1.1104 12.5267 16.9355 20.8742
607 2 2.2208 11.1559 18.1515 22.1888
736 1 -1.1104 6.76427 19.5192 23.6521
555 1 -1.1104 7.04254 14.1021 20.7483
665 1 -1.1104 9.67396 19.6399 23.5287
638 2 2.2208 11.1114 15.3027 24.9302
608 1 -1.1104 12.4274 13.981 23.6058
747 1 -1.1104 6.9157 16.6726 23.39
739 1 -1.1104 6.74234 14.0117 23.4815
664 1 -1.1104 9.58265 14.0398 23.595
346 2 2.2208 -0.115031 -1.43179 13.7403
376 2 2.2208 8.23536 18.3027 13.8541
398 2 2.2208 11.2095 6.86722 27.7177
396 2 2.2208 -0.278039 12.6265 27.7256
393 2 2.2208 5.4488 6.95771 27.6251
400 2 2.2208 11.0958 12.4864 27.6743
365 2 2.2208 8.30292 12.5951 13.8676
395 2 2.2208 5.6415 12.58 27.7907
356 2 2.2208 11.2482 -1.61305 13.7679
357 2 2.2208 11.214 4.01612 13.8189
350 2 2.2208 -0.109996 20.9912 13.7676
373 2 2.2208 11.13 15.3485 13.7417
751 2 2.2208 5.45335 23.8234 5.25516
752 2 2.2208 5.27396 29.3639 5.19606
753 1 -1.1104 1.09382 25.137 1.25957
754 1 -1.1104 1.25601 25.2904 4.09222
755 1 -1.1104 1.20492 22.4677 1.04915
756 1 -1.1104 1.08701 27.8875 1.03181
757 2 2.2208 5.54923 26.4942 2.45067
758 1 -1.1104 1.23045 22.4136 3.93386
759 1 -1.1104 1.06589 28.1292 3.91917
760 1 -1.1104 4.15835 25.3538 1.12545
761 2 2.2208 2.62983 23.8735 2.61293
762 2 2.2208 2.56515 29.4724 2.55348
763 1 -1.1104 4.16443 25.1732 3.89733
764 2 2.2208 2.69854 26.6954 5.22278
765 1 -1.1104 3.95141 22.6277 1.21257
766 1 -1.1104 3.97645 28.1248 1.16862
767 1 -1.1104 3.96157 22.4628 3.91454
768 1 -1.1104 4.08365 28.0256 3.91489
777 1 -1.1104 6.87615 27.9742 3.88742
772 1 -1.1104 6.96768 25.1404 1.05056
774 1 -1.1104 6.81203 22.4086 1.02579
771 2 2.2208 -0.288386 26.5762 2.59541
769 2 2.2208 -0.198969 29.5341 5.36873
1049 2 2.2208 8.07013 46.263 7.87402
1121 2 2.2208 8.40749 26.5915 -0.421251
1044 1 -1.1104 9.60311 39.224 9.60127
773 1 -1.1104 6.87813 25.1803 3.78179
10393 2 2.2208 13.8075 46.1212 8.023
776 1 -1.1104 6.79759 22.409 3.93127
775 1 -1.1104 6.84642 27.8868 1.07869
778 2 2.2208 11.0519 23.8613 5.32829
779 2 2.2208 11.0325 29.3481 5.25475
780 1 -1.1104 12.4904 25.1396 1.25763
781 1 -1.1104 12.6192 25.1583 3.95303
782 1 -1.1104 12.6367 22.3153 1.15334
783 1 -1.1104 12.3869 28.0608 1.15735
784 2 2.2208 11.181 26.5885 2.52469
785 1 -1.1104 12.3104 22.3762 3.93678
786 1 -1.1104 12.4135 27.9745 3.84555
787 1 -1.1104 9.77292 25.1325 1.18486
788 2 2.2208 8.36537 23.8654 2.51766
789 2 2.2208 8.26546 29.2832 2.48699
790 1 -1.1104 9.57885 25.0853 3.9883
791 2 2.2208 8.22519 26.5556 5.35136
792 1 -1.1104 9.76049 22.2268 1.04068
793 1 -1.1104 9.64949 28.0577 0.925608
794 1 -1.1104 9.5703 22.4977 3.93142
795 1 -1.1104 9.74565 27.8456 3.86913
1120 2 2.2208 11.1562 23.7256 -0.355641
1042 2 2.2208 -0.263213 40.5692 10.8581
822 2 2.2208 -0.124273 35.0799 5.31037
821 2 2.2208 -0.345055 32.2636 2.55903
799 2 2.2208 5.42183 35.0306 5.26606
800 1 -1.1104 1.16643 30.8101 1.23697
801 1 -1.1104 1.09795 36.4147 1.03894
803 1 -1.1104 1.13153 30.8807 4.0085
804 1 -1.1104 1.1255 36.3848 3.86382
806 1 -1.1104 1.0612 33.668 1.13286
807 2 2.2208 5.5839 32.1703 2.53092
808 2 2.2208 5.3385 37.9051 2.4075
809 1 -1.1104 1.15167 33.4972 4.11518
811 1 -1.1104 3.95536 30.9137 1.14377
812 1 -1.1104 3.90477 36.3579 1.15542
813 2 2.2208 2.57717 35.0395 2.50303
814 1 -1.1104 4.14391 30.88 3.88159
815 1 -1.1104 3.91158 36.3933 4.02298
816 2 2.2208 2.5943 32.1914 5.34384
817 2 2.2208 2.55259 37.7662 5.32907
818 1 -1.1104 3.98543 33.6517 1.06985
819 1 -1.1104 4.06582 33.646 3.90596
949 1 -1.1104 1.23242 30.8814 6.75772
802 1 -1.1104 6.79395 36.5263 1.0665
805 1 -1.1104 6.59608 36.3802 3.8544
820 2 2.2208 -0.316101 37.8636 2.53085
1056 1 -1.1104 12.3885 39.3735 12.5283
870 2 2.2208 -0.193606 46.1934 5.29761
1100 2 2.2208 5.22695 43.4315 13.6146
871 2 2.2208 -0.137817 40.5609 5.31893
824 1 -1.1104 6.79524 30.6398 3.9576
810 1 -1.1104 6.95623 33.4183 3.76075
823 1 -1.1104 6.84101 30.6641 1.20526
825 1 -1.1104 6.78742 33.593 0.939188
826 2 2.2208 10.9622 34.9067 5.44997
827 1 -1.1104 12.3982 30.838 1.00774
828 1 -1.1104 12.3807 36.4621 1.25771
829 1 -1.1104 12.5456 30.7237 3.88733
830 1 -1.1104 12.3637 36.1085 4.05121
831 1 -1.1104 12.3005 33.7033 1.05932
832 2 2.2208 10.9455 32.1147 2.38281
833 2 2.2208 11.0052 37.8225 2.52616
834 1 -1.1104 12.3825 33.4501 3.89927
835 1 -1.1104 9.41121 30.8752 1.10349
836 1 -1.1104 9.53947 36.4994 1.09483
837 2 2.2208 8.1609 35.0175 2.38173
838 1 -1.1104 9.61757 30.6644 3.83236
839 1 -1.1104 9.49361 36.4406 3.91555
840 2 2.2208 8.26449 32.1544 5.34211
841 2 2.2208 8.10943 37.7742 5.3178
842 1 -1.1104 9.55482 33.6009 1.08447
843 1 -1.1104 9.64501 33.5684 3.97034
986 1 -1.1104 9.68175 30.8098 6.62273
1130 2 2.2208 8.16048 32.2154 -0.298936