ITEM: TIMESTEP
90000
ITEM: NUMBER OF ATOMS
17672
ITEM: BOX BOUNDS pp pp pp
-3.5034830707802228e-01 2.7690348307077667e+01
-4.3088817708474219e+00 3.3238888177086193e+02
-3.6016241652872416e-01 2.7700162416528435e+01
ITEM: ATOMS id type q x y z
1 2 2.2208 4.99882 1.37311 5.39585
2 1 -1.1104 0.821971 -2.94177 0.948583
3 1 -1.1104 0.993329 2.76221 1.18872
6 1 -1.1104 0.824084 -2.90855 3.95991
7 1 -1.1104 0.973551 2.59103 3.87932
10 1 -1.1104 0.717458 -0.0908869 1.18761
12 2 2.2208 4.91157 -1.39919 2.59356
13 2 2.2208 5.2271 4.0914 2.57643
14 1 -1.1104 0.844144 -0.159388 4.12195
16 1 -1.1104 3.6555 -3.06985 1.13008
17 1 -1.1104 3.84978 2.78534 1.08002
18 2 2.2208 2.35513 1.32497 2.44735
19 1 -1.1104 3.59629 -2.79184 3.9183
20 1 -1.1104 3.81846 2.7063 4.07399
21 2 2.2208 2.15114 -1.55702 5.34904
22 2 2.2208 2.32441 4.05599 5.45931
23 1 -1.1104 3.62763 -0.160491 1.01333
24 1 -1.1104 3.67724 0.175887 3.82542
5 1 -1.1104 6.56586 2.68354 1.33082
377 2 2.2208 7.81312 15.3335 -0.325923
172 1 -1.1104 3.78707 -2.95365 6.6795
4 1 -1.1104 6.41095 -3.02111 1.28481
11 1 -1.1104 6.54274 -0.172839 1.05238
8 1 -1.1104 6.53437 -2.95492 3.97502
9 1 -1.1104 6.62827 2.74653 4.03481
15 1 -1.1104 6.27053 -0.119019 4.07342
168 1 -1.1104 6.49845 -3.02221 6.78783
166 1 -1.1104 0.963554 -2.83605 6.77048
171 1 -1.1104 6.53316 -0.16904 6.8978
165 2 2.2208 13.4662 18.2902 2.50796
382 2 2.2208 2.31257 -1.53864 -0.323748
31 2 2.2208 10.6671 1.38518 5.21788
32 1 -1.1104 12.1016 -2.82949 0.905857
33 1 -1.1104 12.164 2.68694 1.15344
34 1 -1.1104 12.1001 -2.74041 4.00557
35 1 -1.1104 12.0648 2.70723 3.94862
36 1 -1.1104 12.024 -0.106798 1.11032
37 2 2.2208 10.5289 -1.41254 2.52706
38 2 2.2208 10.693 4.07527 2.60935
39 1 -1.1104 12.0775 -0.0145874 3.85778
40 1 -1.1104 9.28654 -2.8444 1.17942
41 1 -1.1104 9.33513 2.74028 1.07066
42 2 2.2208 7.9427 1.28101 2.57908
43 1 -1.1104 9.26018 -2.91012 3.9742
44 1 -1.1104 9.27473 2.78919 3.89248
45 2 2.2208 7.92231 -1.55898 5.45838
46 2 2.2208 7.85129 4.16198 5.39394
47 1 -1.1104 9.17197 -0.0859979 1.25748
48 1 -1.1104 9.16098 -0.0506597 4.06986
49 2 2.2208 13.5189 1.27331 2.43029
403 2 2.2208 2.24312 15.2633 -0.254686
400 2 2.2208 10.5823 12.6232 -0.318744
50 2 2.2208 13.5717 -1.43728 5.32944
208 1 -1.1104 9.32929 -2.93011 6.90461
205 1 -1.1104 12.139 -2.80275 6.70233
334 2 2.2208 13.4937 4.1102 5.29403
391 2 2.2208 13.4801 -1.5254 -0.30942
389 2 2.2208 7.83398 4.19525 -0.157948
54 2 2.2208 5.01285 6.86139 5.31422
55 2 2.2208 5.02482 12.43 5.34568
56 1 -1.1104 0.798055 8.39178 1.16129
58 1 -1.1104 0.758327 8.26657 3.99132
60 1 -1.1104 0.820431 5.4926 1.14932
61 1 -1.1104 0.7603 11.109 1.05321
66 2 2.2208 5.01197 9.63421 2.63279
67 1 -1.1104 0.893124 5.50437 4.14592
68 1 -1.1104 0.781926 11.1151 3.73977
71 1 -1.1104 3.64287 8.32449 1.0469
72 2 2.2208 2.10542 6.91819 2.59832
73 2 2.2208 2.25969 12.4509 2.51919
74 1 -1.1104 3.50757 8.37661 3.91949
75 2 2.2208 2.2623 9.74183 5.43466
76 1 -1.1104 3.69275 5.45379 1.23935
77 1 -1.1104 3.55715 11.1012 1.25437
79 1 -1.1104 3.52997 5.55695 3.95711
80 1 -1.1104 3.60653 11.0352 3.91522
78 1 -1.1104 3.85176 11.1356 6.89861
59 1 -1.1104 6.16571 8.29008 4.00311
69 1 -1.1104 6.49255 5.50433 3.9916
57 1 -1.1104 6.47043 8.05773 1.23516
70 1 -1.1104 6.41197 11.0088 3.97938
238 1 -1.1104 3.69594 8.44335 6.78577
64 1 -1.1104 6.41182 10.8945 1.11307
63 1 -1.1104 6.4947 5.39978 1.13639
239 1 -1.1104 3.71913 5.64638 6.73259
234 1 -1.1104 0.989204 8.31118 6.83813
235 1 -1.1104 6.6605 8.23984 6.68388
402 2 2.2208 13.4254 9.78236 -0.326606
104 2 2.2208 13.5643 12.5608 2.59892
398 2 2.2208 10.7392 6.85055 -0.188686
378 2 2.2208 10.5913 18.1785 -0.337835
84 2 2.2208 10.6192 6.92716 5.42902
85 2 2.2208 10.7649 12.5995 5.31127
86 1 -1.1104 12.0867 8.39686 1.02884
87 1 -1.1104 12.0745 8.55168 3.90995
88 1 -1.1104 11.8952 5.59143 1.1915
89 1 -1.1104 12.1696 11.2583 1.31619
91 2 2.2208 10.5826 9.74027 2.62396
92 1 -1.1104 12.0445 5.64687 3.839
93 1 -1.1104 12.1923 11.2361 4.09696
94 1 -1.1104 9.30907 8.34116 1.23282
95 2 2.2208 7.91422 6.8783 2.58666
96 2 2.2208 7.8598 12.4713 2.60266
97 1 -1.1104 9.13881 8.36266 4.16966
98 2 2.2208 7.95066 9.81454 5.46908
99 1 -1.1104 9.22987 5.55679 1.18078
100 1 -1.1104 9.34423 11.1189 1.17409
102 1 -1.1104 9.32085 5.48492 4.02735
103 1 -1.1104 9.17309 11.0493 4.01253
267 1 -1.1104 9.35283 8.49677 6.8216
266 1 -1.1104 12.2995 5.32009 6.81987
269 1 -1.1104 9.46225 5.60852 6.89512
335 2 2.2208 13.545 9.8105 5.38088
105 2 2.2208 13.4677 6.98253 2.54308
327 1 -1.1104 12.2211 19.5448 9.43132
330 1 -1.1104 12.2261 13.9246 12.4056
383 2 2.2208 2.17725 4.03642 -0.344963
316 2 2.2208 7.97333 20.7823 10.9093
106 2 2.2208 5.02687 18.0096 5.23349
107 1 -1.1104 0.903353 13.8975 0.98947
109 1 -1.1104 0.832079 19.3139 1.13245
113 1 -1.1104 0.840668 13.9346 3.86313
114 1 -1.1104 0.811898 19.5655 3.87066
116 1 -1.1104 0.821336 16.6228 1.08434
119 2 2.2208 5.138 15.4053 2.48641
120 2 2.2208 5.04515 20.864 2.37863
121 1 -1.1104 0.800101 16.7394 3.89486
123 1 -1.1104 3.48708 13.8824 1.04442
125 1 -1.1104 3.60598 19.3529 1.05511
127 2 2.2208 2.19612 18.1029 2.69243
128 1 -1.1104 3.65668 13.9374 3.92452
129 1 -1.1104 3.62095 19.492 3.93741
130 2 2.2208 2.24243 15.3494 5.27607
131 2 2.2208 2.36806 20.9063 5.27267
132 1 -1.1104 3.65552 16.6203 1.08806
134 1 -1.1104 3.63743 16.7191 3.93921
139 1 -1.1104 6.3163 19.5363 3.88726
140 1 -1.1104 6.41076 16.6824 0.978575
138 1 -1.1104 6.39101 19.5215 1.03812
110 1 -1.1104 6.31618 13.8133 1.17597
115 1 -1.1104 6.53982 13.9891 4.02543
112 1 -1.1104 6.50743 19.3908 6.77887
133 1 -1.1104 3.59657 16.7028 6.71407
108 1 -1.1104 0.830862 13.9305 6.64105
122 1 -1.1104 6.41784 16.7474 3.84835
141 2 2.2208 10.507 18.0994 5.15305
142 1 -1.1104 11.8847 13.897 1.09721
144 1 -1.1104 12.074 19.568 0.985584
146 1 -1.1104 12.0365 13.9584 3.78718
147 1 -1.1104 11.8734 19.5563 4.04586
148 1 -1.1104 12.142 16.7148 0.967266
150 2 2.2208 10.6818 15.4732 2.38592
151 2 2.2208 10.6791 21.003 2.50045
152 1 -1.1104 12.0714 16.7539 3.83927
153 1 -1.1104 9.07955 13.9 0.988131
155 1 -1.1104 9.23631 19.6411 1.05204
157 2 2.2208 7.66807 18.1329 2.41074
158 1 -1.1104 9.33333 13.8497 3.99565
159 1 -1.1104 9.16266 19.4202 3.81168
160 2 2.2208 7.82208 15.1689 5.24243
161 2 2.2208 7.80362 20.9849 5.16073
162 1 -1.1104 9.31422 16.8481 1.20716
164 1 -1.1104 9.14977 16.5161 3.86944
319 1 -1.1104 9.21141 13.9191 9.69401
336 2 2.2208 13.3944 20.9855 5.19862
163 1 -1.1104 9.30583 16.6721 6.68329
392 2 2.2208 13.457 4.10453 -0.112092
337 2 2.2208 13.4709 15.2796 5.39678
317 2 2.2208 7.90446 15.3073 10.9754
167 1 -1.1104 0.800609 2.69933 6.78721
170 1 -1.1104 0.745529 0.0645168 6.81529
173 1 -1.1104 3.59871 2.76269 6.83427
174 1 -1.1104 3.71757 -0.0994949 6.83807
175 2 2.2208 5.27169 1.32076 10.9758
176 1 -1.1104 0.836336 -2.97159 12.3926
177 1 -1.1104 0.900374 2.63435 12.4709
180 1 -1.1104 0.807421 -2.93014 9.55146
181 1 -1.1104 0.96704 2.74951 9.57293
184 1 -1.1104 1.03157 -0.166065 12.3125
186 2 2.2208 5.12618 -1.58121 8.25485
188 1 -1.1104 0.804277 -0.197877 9.54255
190 1 -1.1104 3.63999 -2.95433 12.3349
191 1 -1.1104 3.60495 2.76433 12.3843
192 2 2.2208 2.27032 1.3188 8.24178
193 1 -1.1104 3.61369 -2.92894 9.54305
194 1 -1.1104 3.84497 2.7067 9.5982
195 2 2.2208 2.18759 -1.64948 10.9666
196 2 2.2208 2.36163 3.98435 11.0003
197 1 -1.1104 3.82081 -0.150073 12.3785
198 1 -1.1104 3.75618 0.00327901 9.56105
187 2 2.2208 5.13999 4.07745 8.23467
179 1 -1.1104 6.54331 2.67158 12.4263
169 1 -1.1104 6.28165 2.67915 6.81232
185 1 -1.1104 6.47232 -0.16094 12.4307
189 1 -1.1104 6.49607 -0.207736 9.65632
178 1 -1.1104 6.49821 -2.98818 12.2842
182 1 -1.1104 6.54597 -2.95923 9.6041
183 1 -1.1104 6.72181 2.71231 9.54472
381 2 2.2208 5.09212 1.39244 -0.285329
207 1 -1.1104 12.09 -0.099209 6.62842
230 2 2.2208 13.4863 -1.53611 11.0691
229 2 2.2208 13.4939 1.40531 8.13469
388 2 2.2208 7.833 -1.54634 -0.249649
210 1 -1.1104 9.36628 -0.0483937 6.75365
209 1 -1.1104 9.20963 2.83351 6.72025
206 1 -1.1104 12.1052 2.73801 6.71795
211 2 2.2208 10.7212 1.37873 10.99
212 1 -1.1104 12.0276 -2.99865 12.3146
213 1 -1.1104 12.0471 2.76531 12.2966
214 1 -1.1104 12.1694 -2.90805 9.62588
215 1 -1.1104 12.1654 2.59292 9.57975
216 1 -1.1104 12.2088 0.0114319 12.3713
217 2 2.2208 10.7813 -1.49813 8.21502
218 2 2.2208 10.8297 4.06527 8.12869
219 1 -1.1104 12.1058 -0.201359 9.5309
220 1 -1.1104 9.3323 -2.9495 12.4701
221 1 -1.1104 9.3653 2.70723 12.4474
222 2 2.2208 7.90785 1.33725 8.13968
223 1 -1.1104 9.33824 -2.88349 9.58945
224 1 -1.1104 9.5155 2.92481 9.74146
225 2 2.2208 7.92368 -1.5596 11.028
226 2 2.2208 7.96698 4.13058 11.1108
227 1 -1.1104 9.39138 -0.0250372 12.4404
228 1 -1.1104 9.37405 0.0292052 9.44149
318 1 -1.1104 9.35296 19.4762 9.50258
338 2 2.2208 13.5212 4.17665 10.9176
315 1 -1.1104 9.21211 16.8786 12.1003
395 2 2.2208 4.97527 12.5808 -0.219537
324 2 2.2208 10.7709 20.8251 7.88507
236 1 -1.1104 0.807845 5.48385 6.88069
65 1 -1.1104 6.64491 11.1532 6.8213
323 1 -1.1104 12.0568 16.7428 9.45554
62 1 -1.1104 0.869171 11.0687 6.67851
240 2 2.2208 5.09854 6.93052 10.8707
241 2 2.2208 5.02703 12.4922 10.9124
242 1 -1.1104 0.912543 8.23397 12.3006
244 1 -1.1104 0.915837 8.3641 9.59289
246 1 -1.1104 0.784081 5.47368 12.5463
247 1 -1.1104 0.977651 11.0738 12.3082
250 2 2.2208 5.1703 9.67713 8.15156
251 1 -1.1104 0.898092 5.55467 9.71508
252 1 -1.1104 0.782523 10.9706 9.5217
255 1 -1.1104 3.77106 8.18532 12.3938
256 2 2.2208 2.28517 6.89503 8.2705
257 2 2.2208 2.31365 12.4162 8.10441
258 1 -1.1104 3.61928 8.29806 9.49819
259 2 2.2208 2.30919 9.76956 10.9574
260 1 -1.1104 3.67039 5.52118 12.3318
261 1 -1.1104 3.62739 11.0289 12.4367
262 1 -1.1104 3.69664 5.56195 9.53775
263 1 -1.1104 3.77502 11.0261 9.68038
253 1 -1.1104 6.61102 5.51511 9.56329
249 1 -1.1104 6.42488 11.1497 12.3545
248 1 -1.1104 6.40406 5.48232 12.326
243 1 -1.1104 6.47364 8.29082 12.3441
254 1 -1.1104 6.58237 11.1391 9.56153
326 1 -1.1104 12.1081 16.7908 12.1065
154 1 -1.1104 9.30978 13.8875 6.79652
90 1 -1.1104 12.2143 11.2267 6.86773
341 2 2.2208 13.4667 9.79364 11.0639
340 2 2.2208 13.5306 12.6171 8.08594
339 2 2.2208 13.4826 6.90689 8.19002
245 1 -1.1104 6.5785 8.36902 9.5822
265 1 -1.1104 12.0506 8.23818 6.82065
237 1 -1.1104 6.60529 5.5578 6.82749
101 1 -1.1104 9.38256 11.3122 6.78259
264 1 -1.1104 9.4862 11.1829 9.7046
268 1 -1.1104 9.26027 5.74804 9.76424
270 1 -1.1104 9.13281 11.0931 12.4825
271 1 -1.1104 9.34879 5.49091 12.5518
272 2 2.2208 7.84111 9.76507 10.9912
273 1 -1.1104 9.35067 8.40653 9.55441
274 2 2.2208 7.93512 12.574 8.1937
275 2 2.2208 8.04916 6.94989 8.23254
276 2 2.2208 10.7676 6.94369 11.0667
277 2 2.2208 10.8361 12.6573 11.009
278 1 -1.1104 12.1539 8.36654 12.3548
279 1 -1.1104 12.1378 8.3476 9.66027
280 1 -1.1104 12.1765 5.50434 12.4513
281 1 -1.1104 12.107 11.0778 12.4679
282 2 2.2208 10.7758 9.73279 8.17217
283 1 -1.1104 12.1386 5.38121 9.60139
284 1 -1.1104 12.2308 11.1526 9.59926
285 1 -1.1104 9.31559 8.3661 12.5041
296 1 -1.1104 6.53097 19.6413 12.3194
302 1 -1.1104 1.08096 19.5225 6.5876
290 1 -1.1104 6.33246 13.7894 9.498
111 1 -1.1104 6.3583 13.861 6.76803
118 1 -1.1104 6.30197 16.678 6.75876
289 1 -1.1104 6.53055 16.6694 9.58847
288 1 -1.1104 6.51184 19.5069 9.58717
126 1 -1.1104 3.78483 19.6033 6.88181
124 1 -1.1104 3.68558 13.882 6.69084
297 1 -1.1104 6.54055 13.8638 12.4105
117 1 -1.1104 0.934125 16.7232 6.73401
286 1 -1.1104 3.69592 19.5097 12.4919
293 2 2.2208 5.14546 20.8733 8.08039
292 1 -1.1104 0.847858 16.5713 9.62339
291 1 -1.1104 0.774614 19.4021 9.37085
310 2 2.2208 2.25822 15.2521 10.9291
309 2 2.2208 2.2588 20.9024 10.8949
308 1 -1.1104 3.808 16.6941 12.26
307 1 -1.1104 0.841737 16.7288 12.4489
305 1 -1.1104 3.55549 13.8211 9.62494
304 1 -1.1104 3.7275 16.7169 9.53806
303 2 2.2208 2.30091 17.9749 8.14791
301 1 -1.1104 3.61437 19.4756 9.64232
300 2 2.2208 5.03589 18.0784 10.9593
299 1 -1.1104 0.880438 13.9387 12.3172
298 1 -1.1104 0.843148 19.5919 12.0525
295 2 2.2208 5.05192 15.3155 8.04932
294 1 -1.1104 0.855209 13.7862 9.36489
287 1 -1.1104 3.71245 13.8493 12.3124
143 1 -1.1104 12.1389 13.9609 6.67657
332 2 2.2208 13.5116 18.122 8.07995
333 2 2.2208 13.5133 15.2562 10.9026
306 1 -1.1104 6.5134 16.7295 12.3152
345 2 2.2208 13.3204 21.0071 10.8293
329 1 -1.1104 11.9841 19.4971 12.417
331 2 2.2208 10.7085 18.0543 10.8936
321 1 -1.1104 9.29302 19.4976 12.3266
320 2 2.2208 8.00992 18.0745 8.1213
322 1 -1.1104 9.44602 14.0469 12.3471
314 1 -1.1104 9.33145 16.6251 9.37658
328 1 -1.1104 12.1747 13.9022 9.55068
325 2 2.2208 10.7869 15.1802 8.14801
149 1 -1.1104 12.1138 16.6889 6.68728
145 1 -1.1104 12.1018 19.4443 6.75519
156 1 -1.1104 9.24587 19.5981 6.66234
393 2 2.2208 5.08468 6.89348 -0.0906098
387 2 2.2208 10.7381 1.24241 -0.292231
390 2 2.2208 10.7421 -4.25387 -0.302483
374 2 2.2208 13.5028 15.316 -0.304905
380 2 2.2208 13.5039 18.1702 13.6363
29 2 2.2208 4.95421 -4.29849 5.45085
233 2 2.2208 13.517 -4.24632 8.1323
53 2 2.2208 13.5842 -4.21661 2.49299
404 2 2.2208 4.9694 18.1822 -0.341818
372 2 2.2208 10.6923 20.987 13.6123
232 2 2.2208 10.6544 -4.26822 10.9078
399 2 2.2208 7.81461 9.62462 -0.254118
52 2 2.2208 10.6538 -4.20993 5.39689
28 2 2.2208 2.27625 -4.26828 2.44618
369 2 2.2208 5.05216 20.9804 13.6315
359 2 2.2208 2.29515 6.86437 13.6124
375 2 2.2208 13.4333 20.9778 -0.300936
376 2 2.2208 7.83639 18.1367 13.5457
370 2 2.2208 13.4731 1.30463 13.6277
406 2 2.2208 5.08508 1.20212 16.4695
407 1 -1.1104 1.08269 -2.8542 18.0356
408 1 -1.1104 0.886967 2.64296 18.0851
411 1 -1.1104 0.92631 -2.85062 15.1993
413 1 -1.1104 0.956914 2.50303 15.2481
419 1 -1.1104 0.921756 -0.025315 17.8334
421 2 2.2208 5.21306 -1.49364 19.3548
423 1 -1.1104 0.971773 -0.205548 15.1038
427 1 -1.1104 3.73957 -2.91819 18.1257
428 1 -1.1104 3.762 2.69124 17.8429
429 2 2.2208 2.42793 1.37577 19.4115
430 1 -1.1104 3.78867 -2.98768 15.2177
432 1 -1.1104 3.86086 2.64044 15.0191
434 2 2.2208 2.24577 -1.49058 16.6928
435 2 2.2208 2.31287 4.10459 16.5163
436 1 -1.1104 3.81128 -0.0210098 18.0254
437 1 -1.1104 3.56863 -0.112521 15.1599
422 2 2.2208 5.11107 4.13023 19.2865
410 1 -1.1104 6.45959 2.77033 18.0424
420 1 -1.1104 6.59062 -0.119101 17.8296
418 1 -1.1104 6.4713 2.77687 20.8101
415 1 -1.1104 6.59625 -2.89531 15.0934
425 1 -1.1104 6.48347 -0.266465 15.1526
409 1 -1.1104 6.58598 -2.86211 17.9773
348 2 2.2208 5.06907 -1.54 13.7831
542 2 2.2208 13.5302 6.84211 19.3779
431 1 -1.1104 3.68091 -2.8752 20.8087
424 1 -1.1104 0.90224 -0.083214 20.7223
433 1 -1.1104 3.76005 2.84285 20.7486
405 2 2.2208 2.11132 20.8406 27.6496
349 2 2.2208 2.4504 1.20111 13.7299
363 2 2.2208 7.80683 7.01223 13.7401
417 1 -1.1104 6.61404 2.60157 15.2763
449 2 2.2208 10.8673 1.25055 16.3933
450 1 -1.1104 12.217 -2.94632 17.9762
451 1 -1.1104 12.1071 2.6142 17.8686
452 1 -1.1104 12.169 -2.74555 15.1556
454 1 -1.1104 12.1372 2.64756 15.1304
456 1 -1.1104 12.1021 -0.139021 17.9765
457 2 2.2208 10.6917 -1.51419 19.3353
458 2 2.2208 10.6386 4.14301 19.3585
459 1 -1.1104 12.3084 -0.103692 15.0217
461 1 -1.1104 9.24611 -2.89533 17.9988
462 1 -1.1104 9.33209 2.60438 17.9231
463 2 2.2208 7.8785 1.28222 19.3357
464 1 -1.1104 9.41093 -2.79079 15.2136
466 1 -1.1104 9.21396 2.73455 15.1124
468 2 2.2208 8.03656 -1.6168 16.5833
469 2 2.2208 7.97164 4.09333 16.64
470 1 -1.1104 9.36822 -0.130216 17.9511
471 1 -1.1104 9.42865 -0.18837 15.1918
455 1 -1.1104 12.182 2.59111 20.8315
467 1 -1.1104 9.37132 2.76868 20.8024
580 2 2.2208 13.4121 15.2494 22.1624
473 2 2.2208 13.4809 -4.29026 19.4044
578 2 2.2208 13.5376 1.15299 19.3644
732 1 -1.1104 6.58082 16.7002 26.3165
465 1 -1.1104 9.1771 -2.84729 20.6975
472 1 -1.1104 9.23771 -0.0984589 20.8332
477 2 2.2208 13.5993 -1.52496 16.5727
446 2 2.2208 13.6082 4.05178 22.1439
482 2 2.2208 5.16729 6.8703 16.523
483 2 2.2208 5.06023 12.6122 16.6618
484 1 -1.1104 0.762146 8.3765 17.97
486 1 -1.1104 0.928198 8.26645 15.0703
490 1 -1.1104 1.03007 5.42707 18.0096
491 1 -1.1104 0.817219 11.283 17.9452
494 2 2.2208 5.09875 9.68599 19.3165
495 1 -1.1104 0.825284 5.28521 15.2395
497 1 -1.1104 1.02033 11.1783 15.1557
503 1 -1.1104 3.67005 8.29089 17.87
504 2 2.2208 2.32642 6.89176 19.372
505 2 2.2208 2.13511 12.6017 19.3204
506 1 -1.1104 3.72631 8.27243 15.2156
508 2 2.2208 2.31523 9.8702 16.6105
509 1 -1.1104 3.84176 5.4871 18.0232
510 1 -1.1104 3.69366 11.0891 17.9414
511 1 -1.1104 3.73956 5.48599 15.0973
513 1 -1.1104 3.76334 11.1301 15.2786
514 1 -1.1104 3.61437 11.1683 20.732
485 1 -1.1104 6.34645 8.25646 17.921
496 1 -1.1104 0.744973 5.622 20.7647
507 1 -1.1104 3.61743 8.2958 20.6977
500 1 -1.1104 6.57528 5.48101 20.8161
493 1 -1.1104 6.53115 11.0479 18.046
492 1 -1.1104 6.55908 5.47212 17.9354
501 1 -1.1104 6.48555 11.0276 15.2067
488 1 -1.1104 6.51858 8.24307 15.1622
487 1 -1.1104 0.747968 8.39457 20.7387
517 2 2.2208 13.5366 12.6391 19.3495
499 1 -1.1104 6.62333 5.55265 15.1772
518 2 2.2208 10.684 6.96539 16.5376
519 2 2.2208 10.7592 12.5254 16.5306
520 1 -1.1104 12.0961 8.44095 17.9935
521 1 -1.1104 12.1837 8.10766 15.2253
523 1 -1.1104 12.0364 5.63614 18.093
524 1 -1.1104 12.1817 11.2468 18.0261
525 2 2.2208 10.7001 9.72158 19.4995
526 1 -1.1104 12.1239 5.37036 15.2571
528 1 -1.1104 12.1405 10.998 15.2737
530 1 -1.1104 9.16701 8.37026 18.0271
531 2 2.2208 7.78133 6.91898 19.3104
532 2 2.2208 7.90451 12.4914 19.4888
533 1 -1.1104 9.32973 8.46045 15.2738
535 2 2.2208 8.00127 9.77873 16.5133
536 1 -1.1104 9.27379 5.51507 17.9654
537 1 -1.1104 9.37248 11.1806 18.0772
538 1 -1.1104 9.3547 5.63727 15.0881
540 1 -1.1104 9.39245 11.2343 15.2023
539 1 -1.1104 9.43389 5.62251 20.7553
529 1 -1.1104 12.2506 11.1265 20.8091
522 1 -1.1104 12.1209 8.33173 20.8028
379 2 2.2208 7.97077 20.8672 27.6506
541 1 -1.1104 9.43477 11.041 21.0103
527 1 -1.1104 12.2581 5.49355 20.8816
362 2 2.2208 13.5517 12.4216 13.6904
354 2 2.2208 13.4911 -4.2826 13.7282
361 2 2.2208 2.27661 12.5146 13.6954
366 2 2.2208 13.6369 6.79249 13.7819
371 2 2.2208 5.04965 15.303 13.7708
545 2 2.2208 5.16723 18.1056 16.5824
546 1 -1.1104 0.819936 13.9863 17.7241
547 1 -1.1104 0.911216 19.6981 17.8592
550 1 -1.1104 0.95161 13.884 15.0276
552 1 -1.1104 0.895682 19.5899 14.9904
558 1 -1.1104 0.969983 16.8885 17.9861
560 2 2.2208 5.13371 15.4149 19.4525
561 2 2.2208 5.08246 21.0605 19.3106
562 1 -1.1104 1.00269 16.6945 15.2321
566 1 -1.1104 3.58745 14.0234 17.8784
567 1 -1.1104 3.71508 19.6728 17.8424
568 2 2.2208 2.31776 18.2307 19.3376
569 1 -1.1104 3.68933 13.9551 15.1501
571 1 -1.1104 3.6768 19.5155 15.1775
573 2 2.2208 2.33697 15.4302 16.4406
574 2 2.2208 2.2227 21.0673 16.5266
575 1 -1.1104 3.74845 16.869 17.9284
576 1 -1.1104 3.72146 16.7466 15.1488
564 1 -1.1104 6.43697 16.6469 15.1518
577 1 -1.1104 3.77749 16.7879 20.7676
554 1 -1.1104 6.57351 13.8262 15.214
549 1 -1.1104 6.44613 19.5989 18.0056
556 1 -1.1104 6.52792 19.3895 15.2395
699 2 2.2208 7.9992 15.3338 22.0393
563 1 -1.1104 0.936849 16.9824 20.8159
551 1 -1.1104 0.831953 14.1482 20.6424
667 2 2.2208 7.77561 18.0616 24.8626
478 2 2.2208 13.5796 20.9903 16.4821
479 2 2.2208 13.4834 18.2425 19.2381
548 1 -1.1104 6.32436 13.8607 18.2498
559 1 -1.1104 6.4794 16.7801 17.9656
581 2 2.2208 10.6459 18.2452 16.4851
582 1 -1.1104 12.1361 14.0708 17.9187
583 1 -1.1104 11.9829 19.6858 17.8477
584 1 -1.1104 12.1858 13.8001 15.1614
586 1 -1.1104 12.0445 19.552 15.1477
588 1 -1.1104 12.0149 16.7718 17.8853
589 2 2.2208 10.6845 15.4073 19.3149
590 2 2.2208 10.762 21.0665 19.3424
591 1 -1.1104 12.1044 16.6966 15.1067
593 1 -1.1104 9.16558 13.9588 18.0474
594 1 -1.1104 9.20454 19.6614 17.9877
595 2 2.2208 7.84331 18.2141 19.2741
596 1 -1.1104 9.21115 13.9077 15.0613
598 1 -1.1104 9.27411 19.5714 15.015
600 2 2.2208 7.8847 15.3563 16.4901
601 2 2.2208 7.85273 20.9233 16.5105
602 1 -1.1104 9.21929 16.8772 17.7871
603 1 -1.1104 9.29801 16.7529 14.932
604 1 -1.1104 9.31369 16.8103 20.5146
585 1 -1.1104 12.0243 13.9474 20.7795
597 1 -1.1104 9.30799 13.8809 20.8009
480 2 2.2208 13.493 15.2714 16.4373
414 1 -1.1104 0.953204 2.80428 20.9145
638 2 2.2208 10.7569 15.4094 25.0035
412 1 -1.1104 0.86798 -2.90759 20.766
416 1 -1.1104 6.47399 -2.9828 20.7683
438 1 -1.1104 3.81036 -0.0233083 20.8279
609 2 2.2208 5.07667 1.36547 22.1747
610 1 -1.1104 0.852625 -2.95602 23.6185
611 1 -1.1104 0.761243 2.73817 23.6353
614 1 -1.1104 0.876853 -2.93785 26.2731
615 1 -1.1104 0.862468 2.63584 26.3108
618 1 -1.1104 0.852449 -0.0246732 23.4862
620 2 2.2208 5.00464 -1.4335 24.9142
621 2 2.2208 4.94928 4.0807 24.9761
622 1 -1.1104 0.934783 -0.0365778 26.4202
624 1 -1.1104 3.61734 -2.84203 23.5963
625 1 -1.1104 3.52007 2.66602 23.4818
626 2 2.2208 2.27999 1.22398 24.8483
627 1 -1.1104 3.75355 -2.82397 26.4351
628 1 -1.1104 3.55268 2.62901 26.3159
629 2 2.2208 2.38528 -1.60455 22.1676
631 1 -1.1104 3.68525 -0.17537 23.4838
632 1 -1.1104 3.70326 -0.0303331 26.2252
630 2 2.2208 2.30153 4.09382 22.181
623 1 -1.1104 6.3741 0.0166763 26.4482
613 1 -1.1104 6.37745 2.58871 23.6741
619 1 -1.1104 6.48516 -0.255171 23.5882
426 1 -1.1104 6.56173 0.029939 20.7355
616 1 -1.1104 6.50759 -2.93512 26.3918
612 1 -1.1104 6.38087 -2.9351 23.5126
617 1 -1.1104 6.45121 2.7444 26.3275
606 2 2.2208 13.4041 20.9253 22.1157
543 2 2.2208 13.5317 9.67259 16.6902
355 2 2.2208 7.89404 1.14323 13.8343
641 2 2.2208 10.6738 20.876 24.7947
671 2 2.2208 13.3125 -1.37318 22.2191
672 2 2.2208 13.4459 1.38585 24.994
460 1 -1.1104 11.9947 -0.136977 20.8001
453 1 -1.1104 12.1151 -2.83496 20.8805
645 2 2.2208 10.7117 1.21667 22.2288
646 1 -1.1104 12.0873 -2.87504 23.6521
647 1 -1.1104 11.9045 2.66831 23.5863
648 1 -1.1104 11.9905 -2.94969 26.2946
649 1 -1.1104 12.1087 2.77715 26.3565
650 1 -1.1104 11.9566 -0.124391 23.5491
651 2 2.2208 10.4352 -1.57319 24.8764
652 2 2.2208 10.791 4.17064 24.8866
653 1 -1.1104 12.0651 -0.100305 26.4258
654 1 -1.1104 9.10303 -2.85565 23.3854
655 1 -1.1104 9.11303 2.62851 23.526
656 2 2.2208 7.88475 1.2663 24.9769
657 1 -1.1104 9.28376 -2.90537 26.3953
658 1 -1.1104 9.32188 2.69585 26.3205
659 2 2.2208 7.84228 -1.48299 22.0811
660 2 2.2208 7.86037 4.1125 22.2063
661 1 -1.1104 9.20148 -0.115721 23.5546
662 1 -1.1104 9.18023 -0.177537 26.3833
365 2 2.2208 7.78692 12.4879 13.8449
666 2 2.2208 13.4977 -4.29852 24.9304
669 2 2.2208 7.79444 -4.27293 24.9373
663 1 -1.1104 12.0396 16.6931 26.3849
502 1 -1.1104 6.54712 11.1015 20.7447
489 1 -1.1104 6.23746 8.21572 20.6868
498 1 -1.1104 0.805396 11.116 20.5523
512 1 -1.1104 3.6409 5.67081 20.7763
674 2 2.2208 5.11142 6.82269 22.1183
675 2 2.2208 5.02133 12.4897 22.1018
676 1 -1.1104 0.908881 8.25522 23.4801
678 1 -1.1104 0.890664 8.31843 26.316
680 1 -1.1104 0.864345 5.54305 23.5683
681 1 -1.1104 0.840631 11.1225 23.555
684 2 2.2208 4.94133 9.74698 25.0249
685 1 -1.1104 0.835414 5.49817 26.4421
686 1 -1.1104 0.68953 11.3163 26.2858
689 1 -1.1104 3.729 8.27909 23.4216
690 2 2.2208 2.3148 6.82618 24.8648
691 2 2.2208 2.27667 12.6041 24.8373
692 1 -1.1104 3.52789 8.34013 26.254
693 2 2.2208 2.21931 9.66694 22.1268
694 1 -1.1104 3.66205 5.47721 23.4985
695 1 -1.1104 3.56574 11.1101 23.623
696 1 -1.1104 3.59374 5.54323 26.4448
697 1 -1.1104 3.48155 11.0569 26.446
687 1 -1.1104 6.44757 5.53741 26.4791
677 1 -1.1104 6.48256 8.25646 23.5637
688 1 -1.1104 6.31747 10.9653 26.3629
683 1 -1.1104 6.46697 11.0496 23.4303
682 1 -1.1104 6.38296 5.37142 23.5885
679 1 -1.1104 6.29695 8.23259 26.3838
534 1 -1.1104 9.13751 8.34517 20.7375
728 2 2.2208 13.4089 6.95393 25.0171
701 1 -1.1104 9.25258 16.568 23.5186
705 1 -1.1104 9.19806 10.9884 26.3873
706 1 -1.1104 9.42628 5.5318 26.3816
707 1 -1.1104 9.33893 11.1157 23.6445
708 1 -1.1104 9.19942 5.59798 23.5719
709 2 2.2208 7.81276 9.69283 22.1867
710 1 -1.1104 9.12408 8.35489 26.4495
711 2 2.2208 7.77785 12.5119 25.0011
712 2 2.2208 7.78949 6.94019 25.0833
713 2 2.2208 10.7582 6.97828 22.1375
714 2 2.2208 10.7404 12.5806 22.2168
715 1 -1.1104 12.1285 8.28457 23.5414
716 1 -1.1104 11.9909 8.25623 26.3127
717 1 -1.1104 11.9718 5.52819 23.5601
718 1 -1.1104 12.1367 11.1682 23.5012
719 2 2.2208 10.6004 9.69731 24.9803
720 1 -1.1104 12.1347 5.54992 26.4351
721 1 -1.1104 12.0678 11.1506 26.4494
722 1 -1.1104 9.28262 8.35679 23.6469
445 2 2.2208 13.5433 9.66772 22.1865
726 2 2.2208 13.3774 12.5216 24.9834
357 2 2.2208 10.7511 4.16641 13.8439
736 1 -1.1104 6.29704 19.515 23.6462
553 1 -1.1104 0.848287 19.767 20.6865
565 1 -1.1104 6.66241 16.8123 20.6214
555 1 -1.1104 6.49077 13.8976 20.8984
747 1 -1.1104 6.43949 16.5565 23.4839
730 1 -1.1104 6.64381 13.8617 26.5422
570 1 -1.1104 3.6907 13.964 20.625
572 1 -1.1104 3.69509 19.6886 20.5718
743 1 -1.1104 3.43938 19.5701 26.259
748 1 -1.1104 0.878005 16.639 23.5757
746 1 -1.1104 3.75966 13.9528 26.3531
745 1 -1.1104 3.74841 16.8133 26.2313
744 2 2.2208 2.2007 18.0703 24.8614
750 2 2.2208 2.18592 20.9795 22.0913
749 1 -1.1104 3.60023 16.7923 23.5493
727 2 2.2208 2.26359 15.4674 22.1436
729 1 -1.1104 3.56414 19.4174 23.4118
731 1 -1.1104 3.76051 13.8181 23.494
733 1 -1.1104 0.72849 19.4379 26.2901
734 1 -1.1104 0.943044 16.8316 26.3368
735 1 -1.1104 0.995022 14.0742 26.19
737 2 2.2208 4.98503 20.9466 24.8501
738 2 2.2208 5.09544 15.2481 24.9674
740 1 -1.1104 0.91581 19.6509 23.4642
741 1 -1.1104 0.874185 13.9307 23.3754
742 2 2.2208 5.03934 18.1965 22.0389
670 1 -1.1104 6.20876 19.5192 26.3545
635 1 -1.1104 11.952 19.527 26.3601
673 1 -1.1104 9.30019 13.8654 26.3791
664 1 -1.1104 9.35549 13.8815 23.4175
698 1 -1.1104 9.11796 19.4006 26.3113
634 1 -1.1104 12.1308 13.9987 26.3457
665 1 -1.1104 9.21676 19.5089 23.6365
557 1 -1.1104 6.4719 19.5365 20.7037
587 1 -1.1104 12.0336 19.6336 20.6006
599 1 -1.1104 9.21463 19.7097 20.8446
592 1 -1.1104 11.9402 16.701 20.6931
636 1 -1.1104 11.9482 16.9046 23.5017
605 2 2.2208 13.4867 18.1222 24.8579
700 2 2.2208 7.78261 21.0459 22.0408
633 1 -1.1104 12.0229 19.6358 23.4665
739 1 -1.1104 6.42825 13.9184 23.644
608 1 -1.1104 12.0702 14.0162 23.4841
704 1 -1.1104 9.18119 16.7239 26.426
607 2 2.2208 10.6059 18.2613 22.0454
364 2 2.2208 10.696 9.71907 13.7767
360 2 2.2208 5.07229 9.66312 13.8657
356 2 2.2208 10.7576 -1.47644 13.7131
394 2 2.2208 2.20501 9.79738 27.7086
368 2 2.2208 2.34085 18.0583 13.781
373 2 2.2208 10.6716 15.2028 13.8338
352 2 2.2208 5.13202 4.10189 13.8315
751 2 2.2208 5.06157 23.6444 5.18336
752 2 2.2208 5.22196 29.2518 5.14763
753 1 -1.1104 1.01207 25.1212 0.96918
754 1 -1.1104 0.994907 25.0856 3.84225
755 1 -1.1104 0.813912 22.2029 0.929196
756 1 -1.1104 0.773217 27.9594 1.14863
757 2 2.2208 5.06666 26.5174 2.37399
758 1 -1.1104 0.83642 22.2015 3.84022
759 1 -1.1104 0.846789 27.9899 3.83417
760 1 -1.1104 3.73668 24.8315 0.820802
761 2 2.2208 2.38411 23.6839 2.42966
762 2 2.2208 2.28733 29.2627 2.39728
763 1 -1.1104 3.73712 25.1698 3.75528
764 2 2.2208 2.24287 26.4461 5.24527
765 1 -1.1104 3.62255 22.0921 1.0411
766 1 -1.1104 3.58888 27.6824 1.07452
767 1 -1.1104 3.65585 22.2739 3.81541
768 1 -1.1104 3.59005 27.8407 3.7902
774 1 -1.1104 6.47684 22.2004 0.95774
777 1 -1.1104 6.45661 27.8517 3.68579
776 1 -1.1104 6.33364 22.3405 3.67758
897 1 -1.1104 6.47648 27.8989 6.59261
900 1 -1.1104 3.70379 27.849 6.53601
773 1 -1.1104 6.55573 25.0093 3.78616
772 1 -1.1104 6.50333 25.1076 1.00346
775 1 -1.1104 6.49775 27.9702 0.84252
1079 2 2.2208 13.5152 32.2101 10.7936
1096 2 2.2208 10.6335 32.1574 13.5731
898 1 -1.1104 3.68172 25.0556 6.56505
899 1 -1.1104 3.6773 22.4025 6.66102
895 1 -1.1104 0.868125 27.9927 6.57937
1063 1 -1.1104 12.1775 42.1028 9.58727
1070 2 2.2208 13.6636 43.4026 5.23797
1078 2 2.2208 13.5257 37.8094 10.8464
778 2 2.2208 10.713 23.7711 5.10601
779 2 2.2208 10.7503 29.2788 5.06065
780 1 -1.1104 12.1472 25.1261 0.97294
781 1 -1.1104 12.2447 25.2425 3.62179
782 1 -1.1104 12.0365 22.3676 1.10187
783 1 -1.1104 12.1341 28.0194 0.900121
784 2 2.2208 10.7687 26.6115 2.25769
785 1 -1.1104 11.9977 22.394 3.76829
786 1 -1.1104 12.181 27.9098 3.71776
787 1 -1.1104 9.29885 25.224 0.865974
788 2 2.2208 7.89203 23.7472 2.36525
789 2 2.2208 7.99843 29.2273 2.29385
790 1 -1.1104 9.43967 25.0255 3.52971
791 2 2.2208 7.88868 26.4071 5.24485
792 1 -1.1104 9.29688 22.4866 1.03764
793 1 -1.1104 9.42262 27.9469 0.688409
794 1 -1.1104 9.22538 22.2041 3.82582
795 1 -1.1104 9.47597 27.8979 3.65358
926 1 -1.1104 11.9987 22.2693 6.51361
929 1 -1.1104 9.23118 22.3913 6.54879
925 1 -1.1104 12.1448 25.1531 6.57281
1082 2 2.2208 13.6553 40.5669 8.05526
796 2 2.2208 13.523 23.7893 2.3357
798 2 2.2208 13.518 26.5356 5.13724
10392 2 2.2208 13.5343 43.5265 10.6839
927 1 -1.1104 11.9541 27.9083 6.48986
928 1 -1.1104 9.31612 25.1379 6.57109
797 2 2.2208 13.5258 29.4732 2.32886
799 2 2.2208 5.06804 34.922 5.14881
800 1 -1.1104 0.992897 30.6684 1.10792
801 1 -1.1104 0.993386 36.4573 0.866385
803 1 -1.1104 1.04751 30.7894 3.79284
804 1 -1.1104 1.08223 36.23 3.76888
806 1 -1.1104 0.977188 33.4461 0.995198
807 2 2.2208 5.17601 32.074 2.33224
808 2 2.2208 5.21747 37.7817 2.51428
809 1 -1.1104 0.875536 33.587 3.78262
811 1 -1.1104 3.66065 30.622 0.937745
812 1 -1.1104 3.75031 36.2185 0.964681
813 2 2.2208 2.28763 34.9332 2.29791
814 1 -1.1104 3.80255 30.6674 3.75869
815 1 -1.1104 3.91342 36.4417 3.79584
816 2 2.2208 2.26263 32.1514 5.28796
817 2 2.2208 2.381 37.7145 5.18674
818 1 -1.1104 3.76308 33.3406 0.919824
819 1 -1.1104 3.59163 33.5438 3.7015
956 1 -1.1104 3.73632 36.2224 6.57904
810 1 -1.1104 6.52749 33.4619 3.86104
805 1 -1.1104 6.69647 36.3152 3.8691
824 1 -1.1104 6.49316 30.6899 3.80121
823 1 -1.1104 6.55965 30.6677 1.01443
802 1 -1.1104 6.59337 36.3879 1.12413
825 1 -1.1104 6.41068 33.4865 1.05155
951 1 -1.1104 6.45062 30.495 6.68938
955 1 -1.1104 3.54878 30.62 6.56448
1069 2 2.2208 13.4789 32.1896 5.18821
1057 1 -1.1104 12.1673 41.9122 6.65069
826 2 2.2208 10.5719 35.0788 5.23835
827 1 -1.1104 12.0892 30.9026 1.06985
828 1 -1.1104 12.187 36.2935 0.953332
829 1 -1.1104 12.1943 30.7145 3.87686
830 1 -1.1104 12.1582 36.2365 3.70642
831 1 -1.1104 12.1841 33.5333 1.00845
832 2 2.2208 10.704 32.2233 2.43553
833 2 2.2208 10.7768 37.8183 2.37762
834 1 -1.1104 12.2497 33.5042 3.72389
835 1 -1.1104 9.39149 30.6563 0.813411
836 1 -1.1104 9.43129 36.1425 1.09538
837 2 2.2208 7.94625 35.0381 2.39615
838 1 -1.1104 9.44885 30.6928 3.69323