ITEM: TIMESTEP
60000
ITEM: NUMBER OF ATOMS
17672
ITEM: BOX BOUNDS pp pp pp
-3.6108655778057486e-01 2.7701086557779796e+01
-4.2917479447683631e+00 3.3237174794477903e+02
-3.5270661154626498e-01 2.7692706611546008e+01
ITEM: ATOMS id type q x y z
1 2 2.2208 5.34652 1.42813 5.24009
2 1 -1.1104 1.19322 -2.84401 1.00136
3 1 -1.1104 1.28325 2.93658 1.21387
6 1 -1.1104 1.08041 -2.71966 3.84721
7 1 -1.1104 1.13446 2.77903 3.95434
10 1 -1.1104 1.1043 0.0338777 1.14367
12 2 2.2208 5.32824 -1.47739 2.54474
13 2 2.2208 5.3071 4.18071 2.44464
14 1 -1.1104 1.1284 -0.0131591 4.01573
16 1 -1.1104 3.83011 -2.76746 1.14873
17 1 -1.1104 3.97799 2.87726 1.03973
18 2 2.2208 2.57592 1.45219 2.51286
19 1 -1.1104 3.96468 -2.81194 3.9398
20 1 -1.1104 3.97889 2.78403 3.88966
21 2 2.2208 2.54072 -1.32778 5.33129
22 2 2.2208 2.61517 4.13362 5.29208
23 1 -1.1104 4.07714 0.0801967 1.15061
24 1 -1.1104 3.95016 0.0569776 4.01181
26 2 2.2208 -0.161404 1.41419 5.40529
25 2 2.2208 -0.255143 -1.40523 2.55416
167 1 -1.1104 1.10447 2.75739 6.85448
174 1 -1.1104 3.99747 0.0244045 6.87829
11 1 -1.1104 6.71033 -0.103934 1.15717
203 2 2.2208 5.19112 -4.10969 10.9151
170 1 -1.1104 1.18079 -0.0385771 6.79367
166 1 -1.1104 1.09284 -2.73756 6.50027
172 1 -1.1104 3.97589 -2.80748 6.65768
29 2 2.2208 5.3923 -4.29356 5.36496
15 1 -1.1104 6.75508 -0.0043044 3.81942
9 1 -1.1104 7.03526 2.91672 3.90206
5 1 -1.1104 6.79794 2.69655 1.07239
8 1 -1.1104 6.75973 -2.85227 3.76719
4 1 -1.1104 6.64336 -2.85448 1.18949
31 2 2.2208 10.8643 1.25768 5.32206
32 1 -1.1104 12.3437 -2.89448 1.20396
33 1 -1.1104 12.1809 2.86187 1.02703
34 1 -1.1104 12.2861 -2.7457 3.93151
35 1 -1.1104 12.4759 2.89893 3.73295
36 1 -1.1104 12.2823 -0.034853 1.11108
37 2 2.2208 10.8762 -1.46498 2.45659
38 2 2.2208 10.8476 4.19109 2.5155
39 1 -1.1104 12.352 0.0542725 3.87151
40 1 -1.1104 9.57994 -2.85623 0.947518
41 1 -1.1104 9.36681 2.72261 1.03566
42 2 2.2208 8.10026 1.35899 2.59728
43 1 -1.1104 9.39081 -2.79956 3.84055
44 1 -1.1104 9.7405 2.91991 3.93128
45 2 2.2208 8.06463 -1.43671 5.30919
46 2 2.2208 8.12852 4.27733 5.26167
47 1 -1.1104 9.42135 -0.149012 1.21649
48 1 -1.1104 9.53555 -0.0586471 4.0116
210 1 -1.1104 9.46684 -0.158254 6.76203
205 1 -1.1104 12.2502 -2.84178 6.6911
209 1 -1.1104 9.54588 2.65812 6.59281
171 1 -1.1104 6.72514 0.090227 6.55232
168 1 -1.1104 6.63962 -2.84254 6.73628
27 2 2.2208 -0.255676 4.20666 2.44084
320 2 2.2208 8.10832 18.1051 8.09125
81 2 2.2208 -0.365276 6.94835 5.32901
83 2 2.2208 -0.172027 12.6265 5.23391
54 2 2.2208 5.3774 7.0004 5.2988
55 2 2.2208 5.37185 12.4862 5.17354
56 1 -1.1104 1.25052 8.48416 1.06595
58 1 -1.1104 0.999865 8.29131 3.99928
60 1 -1.1104 1.25976 5.57706 1.08978
61 1 -1.1104 1.23009 11.2027 0.879882
66 2 2.2208 5.18869 9.7138 2.45759
67 1 -1.1104 1.01737 5.48427 3.90034
68 1 -1.1104 1.13489 11.137 3.80278
71 1 -1.1104 3.92988 8.27661 1.03957
72 2 2.2208 2.59102 6.91237 2.54689
73 2 2.2208 2.56569 12.5368 2.41373
74 1 -1.1104 3.94743 8.33671 3.91604
75 2 2.2208 2.57345 9.65079 5.25998
76 1 -1.1104 3.93069 5.5736 1.14523
77 1 -1.1104 3.91122 11.2029 1.0451
79 1 -1.1104 3.82536 5.63054 3.91563
80 1 -1.1104 3.81691 11.0943 3.88343
28 2 2.2208 2.6099 -4.16045 2.5635
234 1 -1.1104 1.20023 8.339 6.63662
239 1 -1.1104 4.07043 5.4708 6.65528
238 1 -1.1104 4.04048 8.3045 6.66401
236 1 -1.1104 1.22994 5.65292 6.67698
78 1 -1.1104 3.86674 11.0514 6.76258
59 1 -1.1104 6.64442 8.53178 3.95665
63 1 -1.1104 6.58838 5.46975 0.996685
57 1 -1.1104 6.67518 8.46537 1.0706
64 1 -1.1104 6.79454 11.0968 0.99334
69 1 -1.1104 6.72138 5.75789 4.0282
70 1 -1.1104 6.7034 11.1566 3.9091
84 2 2.2208 11.0307 6.97035 5.27437
85 2 2.2208 10.9591 12.4892 5.23849
86 1 -1.1104 12.2225 8.21316 1.06856
87 1 -1.1104 12.372 8.41387 3.8127
88 1 -1.1104 12.3547 5.5204 0.957221
89 1 -1.1104 12.2643 11.1129 1.07821
91 2 2.2208 10.8968 9.69476 2.42434
92 1 -1.1104 12.2137 5.54112 3.91042
93 1 -1.1104 12.3206 11.2498 3.87778
94 1 -1.1104 9.3961 8.49092 0.988185
95 2 2.2208 8.04893 7.07026 2.4621
96 2 2.2208 8.15938 12.6534 2.42662
97 1 -1.1104 9.53399 8.3081 3.78875
98 2 2.2208 8.15514 9.82766 5.2678
99 1 -1.1104 9.47828 5.59318 0.968514
100 1 -1.1104 9.59504 11.2051 1.11974
102 1 -1.1104 9.4263 5.61236 3.7455
103 1 -1.1104 9.47405 11.1928 3.78926
267 1 -1.1104 9.49205 8.3527 6.69703
265 1 -1.1104 12.2654 8.5685 6.56765
235 1 -1.1104 6.77835 8.40994 6.86624
269 1 -1.1104 9.61647 5.57636 6.57973
266 1 -1.1104 12.3701 5.66892 6.62982
237 1 -1.1104 6.81209 5.60245 6.73933
101 1 -1.1104 9.52331 11.1516 6.44787
65 1 -1.1104 6.67381 11.1186 6.62788
332 2 2.2208 13.6747 18.0478 8.14861
135 2 2.2208 -0.265062 15.4224 2.49912
106 2 2.2208 5.32176 18.2344 5.25582
107 1 -1.1104 1.214 14.0435 1.08737
109 1 -1.1104 1.11692 19.5606 1.09074
113 1 -1.1104 1.22797 13.8532 3.92583
114 1 -1.1104 1.20005 19.634 3.91241
116 1 -1.1104 1.11075 16.906 1.14963
119 2 2.2208 5.39654 15.3207 2.43934
120 2 2.2208 5.36026 20.9861 2.39805
121 1 -1.1104 1.24155 16.8045 3.84055
123 1 -1.1104 4.02845 13.9641 1.03369
125 1 -1.1104 3.86752 19.6416 1.00282
127 2 2.2208 2.56687 18.1087 2.55635
128 1 -1.1104 3.86392 13.9305 3.79721
129 1 -1.1104 4.03678 19.4901 3.74547
130 2 2.2208 2.6872 15.3407 5.23253
131 2 2.2208 2.60794 21.0067 5.21105
132 1 -1.1104 3.87259 16.8188 1.04259
134 1 -1.1104 4.04841 16.635 3.8335
136 2 2.2208 -0.183107 20.9976 2.49504
137 2 2.2208 -0.231539 18.1977 5.27728
126 1 -1.1104 4.16672 19.4659 6.679
302 1 -1.1104 1.35806 19.4407 6.52722
117 1 -1.1104 1.0908 16.7482 6.6167
108 1 -1.1104 1.31673 13.9729 6.70872
30 2 2.2208 -0.198222 -4.27095 5.36703
138 1 -1.1104 6.77776 19.3903 1.11018
140 1 -1.1104 6.79406 16.6853 1.05981
122 1 -1.1104 6.82885 16.9245 3.79255
139 1 -1.1104 6.85396 19.5657 3.93605
115 1 -1.1104 6.61459 13.8147 3.83825
110 1 -1.1104 6.98332 13.9402 1.09175
141 2 2.2208 10.9641 18.1221 5.29383
142 1 -1.1104 12.4826 13.8913 0.910188
144 1 -1.1104 12.3804 19.4885 1.11697
146 1 -1.1104 12.3151 14.0089 3.76768
147 1 -1.1104 12.2984 19.4824 3.83656
148 1 -1.1104 12.4251 16.7023 0.932154
150 2 2.2208 10.9948 15.2997 2.50057
151 2 2.2208 10.971 20.9489 2.49867
152 1 -1.1104 12.3818 16.8025 3.72713
153 1 -1.1104 9.85364 13.9211 1.16684
155 1 -1.1104 9.52209 19.4292 0.974597
157 2 2.2208 8.26671 18.1232 2.49511
158 1 -1.1104 9.40642 13.9823 3.96828
159 1 -1.1104 9.67562 19.5612 3.94797
160 2 2.2208 8.17734 15.3804 5.23779
161 2 2.2208 8.18396 20.9096 5.2546
162 1 -1.1104 9.66483 16.614 1.16666
164 1 -1.1104 9.68896 16.715 3.85423
156 1 -1.1104 9.43399 19.5046 6.73098
394 2 2.2208 2.62416 9.73609 -0.38757
111 1 -1.1104 6.88985 13.8997 6.76163
112 1 -1.1104 6.84564 19.4122 6.87083
143 1 -1.1104 12.3712 14.0494 6.54276
145 1 -1.1104 12.3247 19.4979 6.66563
202 2 2.2208 2.47831 -4.15127 8.1056
173 1 -1.1104 3.99105 2.77905 6.68035
231 2 2.2208 8.03234 -4.2009 8.11067
386 2 2.2208 -0.172516 1.45668 -0.318853
199 2 2.2208 -0.203096 4.04936 8.10537
175 2 2.2208 5.44183 1.3683 10.9577
176 1 -1.1104 1.0726 -2.90412 12.2255
177 1 -1.1104 1.33416 2.77441 12.3549
180 1 -1.1104 0.988333 -2.87591 9.47757
181 1 -1.1104 1.09425 2.54762 9.6394
184 1 -1.1104 1.18688 0.0109144 12.3846
186 2 2.2208 5.37392 -1.39563 8.05552
188 1 -1.1104 1.06739 -0.0823493 9.53011
190 1 -1.1104 3.98862 -2.64672 12.3036
191 1 -1.1104 4.19323 2.88749 12.1012
192 2 2.2208 2.56172 1.33693 8.24323
193 1 -1.1104 4.01377 -2.68628 9.45638
194 1 -1.1104 3.9853 2.70871 9.42496
195 2 2.2208 2.5526 -1.27539 10.8336
196 2 2.2208 2.58666 4.08072 10.9054
197 1 -1.1104 3.90249 0.0487436 12.3666
198 1 -1.1104 4.02604 -0.0564152 9.57637
187 2 2.2208 5.35281 4.14759 8.09418
200 2 2.2208 -0.424307 -1.40232 8.1964
201 2 2.2208 -0.254298 1.32193 10.996
325 2 2.2208 10.8647 15.3128 8.00555
384 2 2.2208 -0.210518 -4.15246 -0.212078
232 2 2.2208 10.8954 -4.19081 11.0062
330 1 -1.1104 12.262 14.0099 12.4097
233 2 2.2208 13.6507 -4.21517 8.10222
169 1 -1.1104 6.70443 2.84736 6.66903
208 1 -1.1104 9.43754 -2.87145 6.65595
51 2 2.2208 8.06533 -4.25229 2.46992
207 1 -1.1104 12.4549 -0.0939964 6.69084
206 1 -1.1104 12.3161 2.85377 6.57997
185 1 -1.1104 6.85601 -0.0350606 12.2802
179 1 -1.1104 6.87709 2.62028 12.1823
189 1 -1.1104 6.71255 -0.0702782 9.25557
183 1 -1.1104 6.84525 2.76987 9.52573
178 1 -1.1104 6.71286 -2.70815 12.1791
182 1 -1.1104 6.75216 -2.86789 9.47877
211 2 2.2208 10.9256 1.37338 10.8363
212 1 -1.1104 12.3886 -2.85785 12.3035
213 1 -1.1104 12.4661 2.6223 12.1022
214 1 -1.1104 12.2291 -2.80796 9.51637
215 1 -1.1104 12.4874 2.93983 9.24541
216 1 -1.1104 12.2959 -0.0235551 12.1874
217 2 2.2208 10.9733 -1.49746 8.13367
218 2 2.2208 11.0254 4.1755 8.08186
219 1 -1.1104 12.2833 0.0703941 9.37695
220 1 -1.1104 9.52986 -2.73775 12.2974
221 1 -1.1104 9.64379 2.75762 12.2908
222 2 2.2208 8.17711 1.41668 8.04028
223 1 -1.1104 9.5849 -2.84557 9.66853
224 1 -1.1104 9.68414 2.86064 9.60681
225 2 2.2208 8.10056 -1.45983 10.8768
226 2 2.2208 8.14507 4.14115 10.9383
227 1 -1.1104 9.63099 -0.0439687 12.2776
228 1 -1.1104 9.54069 -0.0332841 9.44363
383 2 2.2208 2.62757 4.22201 -0.352445
328 1 -1.1104 12.3984 14.0547 9.42732
62 1 -1.1104 1.05212 11.1512 6.69665
344 2 2.2208 -0.166646 6.94796 10.7808
343 2 2.2208 -0.236743 9.69805 7.9476
342 2 2.2208 -0.122335 12.4978 10.7604
240 2 2.2208 5.28935 6.97993 10.8896
241 2 2.2208 5.35772 12.6051 10.8307
242 1 -1.1104 1.15946 8.44259 12.2548
244 1 -1.1104 1.20248 8.29127 9.48236
246 1 -1.1104 1.11528 5.54749 12.2356
247 1 -1.1104 1.21752 11.189 12.3945
250 2 2.2208 5.33672 9.78021 8.08638
251 1 -1.1104 1.23527 5.4986 9.36941
252 1 -1.1104 1.14642 11.0287 9.42637
255 1 -1.1104 3.9783 8.45431 12.3573
256 2 2.2208 2.60209 6.94551 8.04679
257 2 2.2208 2.62015 12.4486 7.97438
258 1 -1.1104 4.01143 8.42907 9.4547
259 2 2.2208 2.58952 9.82633 10.924
260 1 -1.1104 3.94219 5.71033 12.4069
261 1 -1.1104 3.99196 11.2098 12.2083
262 1 -1.1104 4.03663 5.49882 9.63196
263 1 -1.1104 3.99689 11.0404 9.38185
324 2 2.2208 11.0346 20.8166 8.02306
118 1 -1.1104 6.69681 16.6884 6.65341
315 1 -1.1104 9.47421 16.7803 12.2174
90 1 -1.1104 12.3835 11.2929 6.70356
253 1 -1.1104 6.84187 5.55729 9.48312
243 1 -1.1104 6.7415 8.229 12.2171
245 1 -1.1104 6.75262 8.41023 9.63871
254 1 -1.1104 6.63534 11.187 9.41605
249 1 -1.1104 6.86285 11.107 12.2781
248 1 -1.1104 6.71788 5.43878 12.3233
264 1 -1.1104 9.48262 11.12 9.27929
268 1 -1.1104 9.56281 5.55731 9.49659
270 1 -1.1104 9.64775 11.2033 12.2043
271 1 -1.1104 9.60766 5.49219 12.4336
272 2 2.2208 8.21942 9.91782 10.7751
273 1 -1.1104 9.58165 8.40686 9.52302
274 2 2.2208 8.10302 12.4702 8.00878
275 2 2.2208 8.15649 6.92818 8.01693
276 2 2.2208 10.8756 7.02629 10.7796
277 2 2.2208 11.0411 12.6846 10.916
278 1 -1.1104 12.4936 8.19583 12.1396
279 1 -1.1104 12.7584 8.49524 9.25805
280 1 -1.1104 12.4883 5.43414 12.3425
281 1 -1.1104 12.4721 11.2214 12.2422
282 2 2.2208 11.129 9.81188 8.20426
283 1 -1.1104 12.2521 5.71659 9.46892
284 1 -1.1104 12.3051 11.3525 9.40148
285 1 -1.1104 9.6228 8.3665 12.2984
331 2 2.2208 10.9106 18.1809 10.8727
318 1 -1.1104 9.46681 19.4913 9.5525
321 1 -1.1104 9.50044 19.5162 12.3613
289 1 -1.1104 6.6448 16.6472 9.47259
124 1 -1.1104 4.12781 13.8528 6.56455
306 1 -1.1104 6.69774 16.7116 12.241
311 2 2.2208 -0.331842 20.9154 8.18309
312 2 2.2208 -0.202794 18.2376 10.7036
133 1 -1.1104 3.81187 16.7426 6.60102
313 2 2.2208 -0.222335 15.443 8.05207
292 1 -1.1104 1.16624 16.6755 9.4595
291 1 -1.1104 1.25226 19.5237 9.45399
310 2 2.2208 2.54829 15.3912 10.7864
309 2 2.2208 2.7369 20.9612 10.8987
308 1 -1.1104 3.87022 16.7716 12.273
307 1 -1.1104 1.09599 16.7361 12.1855
305 1 -1.1104 4.00487 13.955 9.39281
304 1 -1.1104 3.9462 16.7531 9.38158
303 2 2.2208 2.55224 18.0785 8.05244
301 1 -1.1104 4.00815 19.6182 9.63018
300 2 2.2208 5.40712 18.1259 11.0143
299 1 -1.1104 1.23081 13.9677 12.159
298 1 -1.1104 1.23664 19.545 12.3044
295 2 2.2208 5.2267 15.3787 8.01362
294 1 -1.1104 1.36774 13.886 9.40361
287 1 -1.1104 3.95068 13.9385 12.1518
293 2 2.2208 5.43805 20.8262 8.10705
286 1 -1.1104 3.99542 19.6218 12.3034
290 1 -1.1104 6.80784 13.904 9.5362
322 1 -1.1104 9.48585 13.9907 12.2352
288 1 -1.1104 6.72191 19.4137 9.55499
327 1 -1.1104 12.3323 19.4117 9.55062
296 1 -1.1104 6.795 19.5746 12.2451
297 1 -1.1104 6.77084 14.0348 12.2197
329 1 -1.1104 12.3036 19.4743 12.3581
314 1 -1.1104 9.5885 16.6584 9.41578
154 1 -1.1104 9.6349 13.7899 6.71843
163 1 -1.1104 9.48254 16.7496 6.61515
316 2 2.2208 8.06996 20.9757 10.9593
326 1 -1.1104 12.5205 16.7598 12.2922
319 1 -1.1104 9.56766 13.854 9.44333
323 1 -1.1104 12.3814 16.7744 9.60685
149 1 -1.1104 12.2734 16.7305 6.64929
317 2 2.2208 8.14237 15.3579 10.8478
403 2 2.2208 2.57296 15.3537 -0.338725
382 2 2.2208 2.49989 -1.4475 -0.283653
404 2 2.2208 5.45262 18.1092 -0.34898
395 2 2.2208 5.47401 12.4217 -0.388167
358 2 2.2208 -0.255856 9.82366 13.6848
398 2 2.2208 10.971 7.03742 -0.42535
82 2 2.2208 -0.202005 9.78068 2.48158
367 2 2.2208 -0.128793 4.23491 13.7906
381 2 2.2208 5.4019 1.24102 -0.395727
357 2 2.2208 11.0287 4.16288 13.6768
399 2 2.2208 8.13361 9.77719 -0.440723
346 2 2.2208 -0.308334 -1.49073 13.6762
360 2 2.2208 5.50222 9.77405 13.6322
387 2 2.2208 11.0315 1.40973 -0.287756
388 2 2.2208 8.07497 -1.5207 -0.285992
405 2 2.2208 2.46871 20.907 -0.380813
377 2 2.2208 8.35708 15.3258 -0.220455
361 2 2.2208 2.63352 12.6813 13.5809
401 2 2.2208 -0.240808 18.2611 -0.201367
351 2 2.2208 -0.347149 15.2382 13.4883
347 2 2.2208 2.57027 -4.26519 13.6248
371 2 2.2208 5.39522 15.2977 13.6821
376 2 2.2208 8.17341 18.1102 13.6527
406 2 2.2208 5.33945 1.31941 16.5539
407 1 -1.1104 1.09749 -2.77552 17.8394
408 1 -1.1104 1.32374 2.7638 18.0448
411 1 -1.1104 1.13833 -2.7369 15.04
413 1 -1.1104 1.29802 2.73066 15.1863
419 1 -1.1104 1.25413 -0.0117205 17.905
421 2 2.2208 5.41602 -1.58157 19.2176
423 1 -1.1104 1.11282 -6.75125e-05 15.039
427 1 -1.1104 3.77149 -2.94127 17.9174
428 1 -1.1104 3.90649 2.72932 17.9128
429 2 2.2208 2.55687 1.30833 19.3589
430 1 -1.1104 3.91476 -2.85762 15.1375
432 1 -1.1104 4.04367 2.65695 15.1607
434 2 2.2208 2.43076 -1.31592 16.5569
435 2 2.2208 2.6015 4.13292 16.6353
436 1 -1.1104 4.02653 -0.146392 17.8785
437 1 -1.1104 4.08278 0.032875 15.0477
422 2 2.2208 5.27132 4.26131 19.2202
443 2 2.2208 -0.313293 -1.53687 19.3044
442 2 2.2208 -0.283432 1.28718 16.4416
440 2 2.2208 5.33956 -4.28524 16.5118
414 1 -1.1104 1.31356 2.74061 20.8621
725 2 2.2208 -0.180346 15.3432 24.9759
438 1 -1.1104 3.88932 -0.0643209 20.6848
640 2 2.2208 2.54099 -4.29424 24.9265
410 1 -1.1104 6.59762 2.75318 17.9093
417 1 -1.1104 6.74467 2.83194 15.0227
409 1 -1.1104 6.64736 -2.92262 17.669
415 1 -1.1104 6.6818 -2.77646 14.9653
420 1 -1.1104 6.81454 -0.0796672 17.968
426 1 -1.1104 6.59668 -0.329133 20.7531
425 1 -1.1104 6.79717 0.0453535 15.0861
449 2 2.2208 11.0638 1.29657 16.4217
450 1 -1.1104 12.3953 -2.7431 18.0419
451 1 -1.1104 12.3531 2.73542 17.7921
452 1 -1.1104 12.4308 -2.88546 15.2176
454 1 -1.1104 12.4087 2.74685 14.926
456 1 -1.1104 12.4345 -0.13267 17.8797
457 2 2.2208 10.9969 -1.53578 19.3599
458 2 2.2208 10.9283 4.18597 19.1614
459 1 -1.1104 12.2846 -0.0420894 14.9849
461 1 -1.1104 9.45313 -2.99427 17.7646
462 1 -1.1104 9.53855 2.53267 17.8749
463 2 2.2208 8.11064 1.30763 19.3898
464 1 -1.1104 9.50829 -2.80374 14.9804
466 1 -1.1104 9.62477 2.79677 15.0298
468 2 2.2208 8.21671 -1.38405 16.4502
469 2 2.2208 8.14563 4.04242 16.4598
470 1 -1.1104 9.72869 -0.267386 17.7965
471 1 -1.1104 9.6431 -0.102514 15.1325
467 1 -1.1104 9.58585 2.70015 20.6695
418 1 -1.1104 6.76698 2.56173 20.7259
465 1 -1.1104 9.73538 -3.00321 20.5241
453 1 -1.1104 12.4014 -2.8155 20.7161
460 1 -1.1104 12.348 -0.103516 20.8065
608 1 -1.1104 12.3511 13.9 23.3405
455 1 -1.1104 12.3666 2.66647 20.5946
698 1 -1.1104 9.76982 19.5852 26.2024
349 2 2.2208 2.56269 1.45177 13.7871
482 2 2.2208 5.34546 7.0455 16.4861
483 2 2.2208 5.45182 12.5659 16.4247
484 1 -1.1104 1.22717 8.4012 17.8319
486 1 -1.1104 1.09962 8.36964 15.1216
490 1 -1.1104 1.08857 5.73297 17.8708
491 1 -1.1104 1.13141 11.0913 17.9041
494 2 2.2208 5.4115 9.85762 19.2181
495 1 -1.1104 1.3275 5.59324 15.2357
497 1 -1.1104 1.23582 11.0898 15.1736
503 1 -1.1104 4.00396 8.38133 17.8131
504 2 2.2208 2.62248 7.0351 19.2336
505 2 2.2208 2.61232 12.5796 19.2636
506 1 -1.1104 4.04471 8.46234 15.052
508 2 2.2208 2.5442 9.75637 16.4864
509 1 -1.1104 3.97096 5.62878 17.8024
510 1 -1.1104 3.99578 11.2367 17.7485
511 1 -1.1104 4.03219 5.6126 15.1464
513 1 -1.1104 4.16748 11.1997 14.9719
356 2 2.2208 11.0666 -1.37881 13.7315
516 2 2.2208 -0.182699 12.4344 16.3538
512 1 -1.1104 3.91453 5.56127 20.6123
487 1 -1.1104 1.20157 8.30381 20.6088
507 1 -1.1104 3.95858 8.30488 20.5929
498 1 -1.1104 1.16693 11.1494 20.6801
514 1 -1.1104 3.89652 11.1641 20.6617
444 2 2.2208 -0.235814 6.93434 22.0348
488 1 -1.1104 6.82445 8.28155 15.0721
485 1 -1.1104 6.83514 8.40958 17.9326
493 1 -1.1104 6.76199 11.1609 17.7905
492 1 -1.1104 6.70992 5.57369 17.7902
501 1 -1.1104 7.02153 11.1541 14.8737
499 1 -1.1104 6.65444 5.65442 14.9946
518 2 2.2208 11.0567 6.97394 16.3166
519 2 2.2208 11.0161 12.4946 16.5204
520 1 -1.1104 12.4944 8.23426 17.8434
521 1 -1.1104 12.4131 8.44996 15.0006
523 1 -1.1104 12.3216 5.43516 17.7037
524 1 -1.1104 12.3846 11.1062 17.7935
525 2 2.2208 11.0125 9.58283 19.1642
526 1 -1.1104 12.2889 5.65941 14.957
528 1 -1.1104 12.4895 11.1694 14.9748
530 1 -1.1104 9.69671 8.28913 17.7585
531 2 2.2208 8.21473 6.88567 19.2654
532 2 2.2208 8.11239 12.503 19.2635
533 1 -1.1104 9.64417 8.46367 15.0364
535 2 2.2208 8.34266 9.70669 16.3527
536 1 -1.1104 9.50496 5.45135 17.9303
537 1 -1.1104 9.63214 11.0465 17.8801
538 1 -1.1104 9.50778 5.61554 15.1304
540 1 -1.1104 9.76141 11.2356 14.98
527 1 -1.1104 12.503 5.57109 20.5953
502 1 -1.1104 6.84712 11.105 20.6326
539 1 -1.1104 9.58304 5.52317 20.6754
522 1 -1.1104 12.3993 8.25414 20.5634
489 1 -1.1104 6.83185 8.28274 20.6436
534 1 -1.1104 9.67268 8.35558 20.4992
500 1 -1.1104 6.82208 5.40894 20.7335
529 1 -1.1104 12.4151 11.0609 20.6837
644 2 2.2208 -0.152594 4.15548 24.8589
448 2 2.2208 -0.27165 15.3663 19.2522
545 2 2.2208 5.41781 18.1257 16.3969
546 1 -1.1104 1.23639 13.8496 17.9693
547 1 -1.1104 1.18118 19.5236 17.9027
550 1 -1.1104 1.17067 13.9327 15.1655
552 1 -1.1104 1.10517 19.3875 15.0372
558 1 -1.1104 1.12678 16.658 17.8284
560 2 2.2208 5.39804 15.2553 19.4249
561 2 2.2208 5.42525 20.7968 19.1609
562 1 -1.1104 1.1139 16.6328 14.9778
566 1 -1.1104 3.99771 13.9237 18.0387
567 1 -1.1104 4.00995 19.3378 17.879
568 2 2.2208 2.61696 18.0204 19.1711
569 1 -1.1104 3.95102 13.993 15.0914
571 1 -1.1104 3.85954 19.3851 15.1802
573 2 2.2208 2.47879 15.2624 16.4341
574 2 2.2208 2.5864 20.8772 16.5131
575 1 -1.1104 4.02386 16.6829 17.8921
576 1 -1.1104 3.84677 16.7651 15.0817
447 2 2.2208 -0.266619 18.1238 16.4208
476 2 2.2208 -0.234731 21.0179 19.2887
570 1 -1.1104 4.11409 14.0404 20.8837
572 1 -1.1104 4.00683 19.6837 20.5804
551 1 -1.1104 1.28812 13.9647 20.6903
553 1 -1.1104 1.35497 19.559 20.5529
577 1 -1.1104 3.91467 16.7438 20.671
515 2 2.2208 -0.269404 9.66017 19.198
559 1 -1.1104 6.90567 16.6486 17.902
556 1 -1.1104 6.80469 19.4499 14.9515
549 1 -1.1104 6.87987 19.5574 17.8005
554 1 -1.1104 6.82077 13.9591 14.9788
548 1 -1.1104 6.64934 13.9461 17.886
564 1 -1.1104 6.81989 16.7897 15.0389
581 2 2.2208 10.9555 18.1981 16.5578
582 1 -1.1104 12.3608 13.8443 17.8423
583 1 -1.1104 12.2424 19.5308 17.99
584 1 -1.1104 12.4261 13.9449 15.1021
586 1 -1.1104 12.3258 19.5236 15.0128
588 1 -1.1104 12.5352 16.6394 18.0917
589 2 2.2208 11.1326 15.2684 19.213
590 2 2.2208 11.0495 20.9567 19.3584
591 1 -1.1104 12.3207 16.5727 15.1635
593 1 -1.1104 9.50536 13.9593 17.8362
594 1 -1.1104 9.54175 19.4867 17.89
595 2 2.2208 8.1428 18.1114 19.2959
596 1 -1.1104 9.48434 13.9771 15.0722
598 1 -1.1104 9.61291 19.5284 15.1595
600 2 2.2208 8.19557 15.2803 16.4474
601 2 2.2208 8.35636 20.9235 16.5718
602 1 -1.1104 9.73301 16.8018 17.8773
603 1 -1.1104 9.67263 16.8242 15.1137
592 1 -1.1104 12.563 16.7009 20.7777
555 1 -1.1104 6.88187 13.8202 20.7743
599 1 -1.1104 9.59598 19.4651 20.7124
565 1 -1.1104 6.70848 16.7149 20.6891
604 1 -1.1104 9.62339 16.6812 20.6128
670 1 -1.1104 6.77051 19.5433 26.1642
641 2 2.2208 11.1293 20.9973 24.8343
700 2 2.2208 8.30141 20.8637 22.1351
597 1 -1.1104 9.6396 13.8544 20.6205
412 1 -1.1104 1.13434 -2.88856 20.6583
424 1 -1.1104 1.07598 -0.179062 20.6491
433 1 -1.1104 3.97598 2.74701 20.6112
431 1 -1.1104 3.85641 -2.83624 20.8455
636 1 -1.1104 12.5263 16.6162 23.531
390 2 2.2208 10.9094 -4.178 27.701
665 1 -1.1104 9.64415 19.5225 23.6307
609 2 2.2208 5.35077 1.29602 22.037
610 1 -1.1104 1.25294 -2.99251 23.5333
611 1 -1.1104 1.13587 2.86691 23.4771
614 1 -1.1104 1.17882 -2.89063 26.2691
615 1 -1.1104 1.13478 2.72942 26.3395
618 1 -1.1104 1.14385 -0.0568118 23.4254
620 2 2.2208 5.2627 -1.44177 24.8751
621 2 2.2208 5.41274 4.24814 24.9193
622 1 -1.1104 1.2138 -0.0710732 26.3248
624 1 -1.1104 3.97518 -2.74014 23.5947
625 1 -1.1104 4.08921 2.84152 23.5881
626 2 2.2208 2.59906 1.42082 24.9346
627 1 -1.1104 3.93021 -2.81463 26.3701
628 1 -1.1104 4.04756 2.68361 26.3563
629 2 2.2208 2.5243 -1.53595 22.1475
630 2 2.2208 2.63326 4.18588 22.0247
631 1 -1.1104 3.91248 0.0262819 23.4263
632 1 -1.1104 3.88681 -0.0824587 26.2108
623 1 -1.1104 6.73393 -0.0854986 26.4635
637 2 2.2208 -0.317052 -4.27725 22.1011
699 2 2.2208 8.25529 15.3023 21.9209
634 1 -1.1104 12.4793 13.8753 26.2327
633 1 -1.1104 12.496 19.4398 23.5209
747 1 -1.1104 6.86629 16.7244 23.3842
472 1 -1.1104 9.46106 -0.101653 20.648
416 1 -1.1104 6.78494 -2.87816 20.4217
617 1 -1.1104 6.8843 2.76606 26.2851
619 1 -1.1104 6.63439 0.0050255 23.5713
613 1 -1.1104 6.90696 2.57029 23.4598
616 1 -1.1104 6.67454 -2.95658 26.4262
612 1 -1.1104 6.81766 -2.85585 23.3393
645 2 2.2208 10.9818 1.40764 22.0684
646 1 -1.1104 12.3632 -2.81414 23.466
647 1 -1.1104 12.4211 2.78049 23.3258
648 1 -1.1104 12.3925 -2.75558 26.4051
649 1 -1.1104 12.4088 2.85869 26.2702
650 1 -1.1104 12.1773 -0.0925925 23.6037
651 2 2.2208 10.8473 -1.61492 24.75
652 2 2.2208 11.0741 4.08762 24.7433
653 1 -1.1104 12.5294 0.0998188 26.3962
654 1 -1.1104 9.54031 -2.93648 23.3404
655 1 -1.1104 9.63013 2.58702 23.4353
656 2 2.2208 8.17098 1.26873 24.9983
657 1 -1.1104 9.39748 -2.85669 26.1658
658 1 -1.1104 9.62443 2.85721 26.2452
659 2 2.2208 8.13634 -1.56184 22.1072
660 2 2.2208 8.17638 4.01631 22.0813
661 1 -1.1104 9.5003 -0.0847708 23.4848
662 1 -1.1104 9.70025 -0.289128 26.3383
544 2 2.2208 -0.199604 4.19406 19.3026
607 2 2.2208 11.1035 17.9858 22.1564
663 1 -1.1104 12.5936 16.7033 26.3139
701 1 -1.1104 9.61675 16.8664 23.4197
496 1 -1.1104 1.1734 5.5534 20.6589
664 1 -1.1104 9.55697 13.9757 23.6229
703 2 2.2208 -0.195494 12.5615 21.9753
441 2 2.2208 2.45735 -4.31331 19.2891
702 2 2.2208 -0.11267 9.7998 24.975
674 2 2.2208 5.48911 6.96258 22.0671
675 2 2.2208 5.39228 12.5145 22.0935
676 1 -1.1104 1.11067 8.35294 23.4606
678 1 -1.1104 1.28706 8.48484 26.2901
680 1 -1.1104 1.17742 5.56795 23.4334
681 1 -1.1104 1.34254 11.0336 23.4574
684 2 2.2208 5.40299 9.78844 24.8301
685 1 -1.1104 1.19589 5.50833 26.1546
686 1 -1.1104 1.3368 11.2989 26.2197
689 1 -1.1104 4.04976 8.39491 23.3425
690 2 2.2208 2.53996 7.00737 24.7035
691 2 2.2208 2.73562 12.5959 24.9827
692 1 -1.1104 4.04705 8.25578 26.2465
693 2 2.2208 2.50166 9.74544 21.9401
694 1 -1.1104 4.09901 5.60542 23.3788
695 1 -1.1104 3.99033 11.1196 23.4753
696 1 -1.1104 3.95762 5.53121 26.2091
697 1 -1.1104 4.06644 11.0708 26.3214
739 1 -1.1104 6.7748 13.9012 23.5813
683 1 -1.1104 6.87167 11.0861 23.4304
359 2 2.2208 2.54337 7.0066 13.6472
635 1 -1.1104 12.4415 19.6885 26.2774
541 1 -1.1104 9.61575 11.1677 20.4918
677 1 -1.1104 6.91489 8.37807 23.3614
679 1 -1.1104 6.80327 8.4326 26.3015
687 1 -1.1104 6.89275 5.70877 26.2724
682 1 -1.1104 6.97088 5.49067 23.4511
688 1 -1.1104 6.82609 11.169 26.1984
705 1 -1.1104 9.7504 11.0828 26.3571
706 1 -1.1104 9.63688 5.67182 26.2207
707 1 -1.1104 9.62758 11.1702 23.5462
708 1 -1.1104 9.71883 5.57752 23.4978
709 2 2.2208 8.36722 9.71004 21.9764
710 1 -1.1104 9.60799 8.49294 26.1518
711 2 2.2208 8.24728 12.5732 25.0145
712 2 2.2208 8.32671 7.02717 24.8758
713 2 2.2208 11.0584 6.94773 22.0048
714 2 2.2208 11.1232 12.4578 21.8884
715 1 -1.1104 12.5733 8.42725 23.4303
716 1 -1.1104 12.3264 8.54816 26.3387
717 1 -1.1104 12.5011 5.58272 23.3182
718 1 -1.1104 12.4114 11.08 23.4811
719 2 2.2208 11.0268 9.85492 24.8783
720 1 -1.1104 12.3082 5.52097 26.102
721 1 -1.1104 12.4422 11.0591 26.3593
722 1 -1.1104 9.78038 8.38844 23.3627
732 1 -1.1104 7.04826 16.7405 26.297
400 2 2.2208 11.1147 12.5193 27.6477
355 2 2.2208 8.24126 1.23141 13.5859
723 2 2.2208 -0.271207 18.1827 22.1288
563 1 -1.1104 1.0899 16.7469 20.6911
724 2 2.2208 -0.159593 20.9172 24.8316
397 2 2.2208 -0.166217 6.99416 27.748
748 1 -1.1104 1.13893 16.8068 23.6115
746 1 -1.1104 4.21348 13.8564 26.2943
745 1 -1.1104 4.06112 16.6709 26.2509
744 2 2.2208 2.57466 18.1155 25.0153
750 2 2.2208 2.69593 20.9458 22.0602
749 1 -1.1104 4.00681 16.6904 23.4295
727 2 2.2208 2.53441 15.3358 22.1486
729 1 -1.1104 3.93166 19.4561 23.4974
731 1 -1.1104 4.00412 13.8763 23.6164
733 1 -1.1104 1.31971 19.6244 26.1052
734 1 -1.1104 1.29968 16.8027 26.3996
735 1 -1.1104 1.22413 13.99 26.2013
737 2 2.2208 5.45774 20.9365 24.9133
738 2 2.2208 5.61023 15.4065 24.8249
740 1 -1.1104 1.05124 19.5983 23.2586
741 1 -1.1104 1.26518 13.9153 23.3819
742 2 2.2208 5.38632 18.2442 22.1505
743 1 -1.1104 3.99621 19.598 26.2768
638 2 2.2208 11.012 15.3005 24.9605
557 1 -1.1104 6.81164 19.4908 20.7167
736 1 -1.1104 6.69655 19.7667 23.4042
730 1 -1.1104 7.00256 13.8716 26.4571
667 2 2.2208 8.27135 18.1734 24.93
587 1 -1.1104 12.3668 19.6343 20.6881
585 1 -1.1104 12.4014 13.9437 20.5652
704 1 -1.1104 9.75286 16.659 26.2579
673 1 -1.1104 9.61082 13.9456 26.3098
393 2 2.2208 5.26521 6.9162 27.6864
369 2 2.2208 5.38227 20.8637 13.6368
643 2 2.2208 -0.165731 1.29201 22.0392
372 2 2.2208 11.0544 20.9709 13.6109
642 2 2.2208 -0.235043 -1.46764 24.9358
373 2 2.2208 10.9176 15.4638 13.6615
353 2 2.2208 8.05338 -4.12491 13.7026
389 2 2.2208 8.23822 4.19265 27.6444
364 2 2.2208 11.0378 9.82012 13.6687
368 2 2.2208 2.47793 18.0774 13.7814
352 2 2.2208 5.38401 4.16717 13.7895
348 2 2.2208 5.27346 -1.27683 13.8125
379 2 2.2208 8.24045 20.8821 27.6142
396 2 2.2208 -0.119817 12.6642 27.6612
350 2 2.2208 -0.22235 20.8715 13.8502
365 2 2.2208 8.22487 12.5527 13.6611
363 2 2.2208 8.0908 6.92481 13.6904
378 2 2.2208 11.0639 18.224 27.6652
751 2 2.2208 5.27913 23.6399 5.27884
752 2 2.2208 5.33744 29.2965 5.282
753 1 -1.1104 1.15938 25.1798 1.05456
754 1 -1.1104 1.37235 25.0793 3.79464
755 1 -1.1104 1.27198 22.4179 0.9852
756 1 -1.1104 1.10266 28.0022 1.09091
757 2 2.2208 5.50895 26.5342 2.36361
758 1 -1.1104 1.15846 22.348 3.90161
759 1 -1.1104 1.13951 27.9533 3.78671
760 1 -1.1104 3.98947 25.0141 0.873297
761 2 2.2208 2.73489 23.705 2.30505
762 2 2.2208 2.53882 29.3796 2.38504
763 1 -1.1104 4.17981 25.2123 3.84219
764 2 2.2208 2.71805 26.4986 5.28154
765 1 -1.1104 4.07989 22.3052 1.01145
766 1 -1.1104 4.06893 27.9664 0.934784
767 1 -1.1104 3.90233 22.3741 3.75985
768 1 -1.1104 3.89851 27.9974 3.87095
769 2 2.2208 -0.231513 29.3088 5.34754
770 2 2.2208 -0.147435 23.6886 5.3188
771 2 2.2208 -0.185747 26.4565 2.55194
900 1 -1.1104 4.01469 27.806 6.73063
894 1 -1.1104 1.32327 22.3661 6.59284
898 1 -1.1104 3.94063 24.9675 6.71538
892 1 -1.1104 1.2936 25.1092 6.81223
895 1 -1.1104 1.14687 27.7968 6.55826
899 1 -1.1104 4.01542 22.1274 6.65227
775 1 -1.1104 6.97325 27.8548 1.06428
777 1 -1.1104 6.77438 27.9687 3.8347
776 1 -1.1104 6.87436 22.5099 3.7544
772 1 -1.1104 6.70982 25.1125 1.07141
773 1 -1.1104 6.73463 25.2333 3.92419
774 1 -1.1104 6.90984 22.2371 1.01629
778 2 2.2208 11.0552 23.7487 5.39557
779 2 2.2208 11.0892 29.3585 5.21118
780 1 -1.1104 12.4637 25.0636 1.26265
781 1 -1.1104 12.4102 25.1267 3.96594
782 1 -1.1104 12.4227 22.2737 1.04958
783 1 -1.1104 12.5901 27.9542 1.12866
784 2 2.2208 11.0987 26.534 2.50979
785 1 -1.1104 12.3466 22.388 3.90119
786 1 -1.1104 12.5748 27.7797 3.71115
787 1 -1.1104 9.5877 25.0292 1.02602
788 2 2.2208 8.17013 23.816 2.49971
789 2 2.2208 8.28256 29.2654 2.48574
790 1 -1.1104 9.55846 25.2371 3.74377
791 2 2.2208 8.17868 26.5909 5.20678
792 1 -1.1104 9.7525 22.2117 0.895073
793 1 -1.1104 9.7195 27.744 1.07122
794 1 -1.1104 9.77334 22.426 3.88724
795 1 -1.1104 9.69926 27.8777 3.78419
897 1 -1.1104 6.82481 27.9466 6.63732
893 1 -1.1104 6.67663 24.957 6.6643
927 1 -1.1104 12.3472 27.9316 6.71769
1113 2 2.2208 5.45861 23.7037 -0.431405
1121 2 2.2208 8.36275 26.5341 -0.445213
820 2 2.2208 -0.277404 37.783 2.45409
799 2 2.2208 5.51957 34.9766 5.24752
800 1 -1.1104 1.19662 30.9093 1.12009
801 1 -1.1104 1.38263 36.3966 1.05182
803 1 -1.1104 1.13641 30.7525 4.04601
804 1 -1.1104 1.13366 36.6404 3.82086
806 1 -1.1104 1.26057 33.6652 1.18963
807 2 2.2208 5.4552 32.165 2.37259
808 2 2.2208 5.53427 37.7524 2.40039
809 1 -1.1104 1.36038 33.7582 3.96269
811 1 -1.1104 3.99948 30.7274 1.16712
812 1 -1.1104 4.16079 36.4519 1.0725
813 2 2.2208 2.70886 35.0505 2.51962
814 1 -1.1104 4.12124 30.8256 3.94065
815 1 -1.1104 3.97172 36.3468 3.84891
816 2 2.2208 2.63089 32.1782 5.40676
817 2 2.2208 2.66407 37.8483 5.15903
818 1 -1.1104 3.99961 33.6236 1.03465
819 1 -1.1104 4.0466 33.5114 3.88673
822 2 2.2208 -0.16358 35.1195 5.20729
821 2 2.2208 -0.104258 32.2396 2.57683
1099 2 2.2208 -0.167527 43.3561 13.7081
957 1 -1.1104 4.11328 33.5052 6.64718
953 1 -1.1104 1.1943 33.6428 6.71463
955 1 -1.1104 3.9108 30.7212 6.75786
1689 1 -1.1104 3.9338 47.6062 12.283
1058 1 -1.1104 12.4577 39.1794 6.47391
1047 2 2.2208 8.07771 43.3263 10.752
824 1 -1.1104 6.8391 30.6117 3.85148
810 1 -1.1104 6.82024 33.4073 3.82773
823 1 -1.1104 6.84751 30.6445 1.02117
805 1 -1.1104 6.7637 36.2701 3.82911
802 1 -1.1104 6.91071 36.2361 1.05938
825 1 -1.1104 6.82126 33.3599 1.04634
826 2 2.2208 11.115 35.0072 5.14651
827 1 -1.1104 12.4513 30.7045 1.12153
828 1 -1.1104 12.4844 36.4378 0.961243
829 1 -1.1104 12.4078 30.7971 3.95464
830 1 -1.1104 12.5139 36.4083 3.68502
831 1 -1.1104 12.5691 33.5237 1.05577
832 2 2.2208 11.033 32.1478 2.4242