ITEM: TIMESTEP
10000
ITEM: NUMBER OF ATOMS
17670
ITEM: BOX BOUNDS pp pp pp
-3.2235841259512449e-01 2.7662358412595083e+01
-3.8796381562188778e+00 3.3195963815621872e+02
-3.1061168686495966e-01 2.7650611686865172e+01
ITEM: ATOMS id type q x y z
1 2 2.2208 5.24657 1.71929 5.11476
2 1 -1.1104 1.05269 -2.48134 1.01074
3 1 -1.1104 1.15903 3.21515 0.848219
6 1 -1.1104 1.12857 -2.54934 3.69611
7 1 -1.1104 1.03209 3.15102 3.70028
10 1 -1.1104 1.00833 0.325264 1.00177
12 2 2.2208 5.35176 -1.13937 2.45559
13 2 2.2208 5.22064 4.49548 2.40527
14 1 -1.1104 1.01218 0.274312 3.68245
16 1 -1.1104 3.86724 -2.44802 1.0129
17 1 -1.1104 3.86375 3.15717 1.03097
18 2 2.2208 2.43191 1.78299 2.29632
19 1 -1.1104 4.05999 -2.43136 3.80558
20 1 -1.1104 3.87856 3.21924 3.83029
21 2 2.2208 2.4048 -1.02696 5.11844
22 2 2.2208 2.48662 4.54701 5.08284
23 1 -1.1104 3.81007 0.396208 0.914038
24 1 -1.1104 3.84762 0.451351 3.73302
11 1 -1.1104 6.56714 0.331665 1.00556
15 1 -1.1104 6.61028 0.277141 3.81929
170 1 -1.1104 1.05334 0.45426 6.51558
8 1 -1.1104 6.72241 -2.5802 3.7246
9 1 -1.1104 6.63363 3.09517 3.76765
171 1 -1.1104 6.59376 0.262038 6.61067
343 2 2.2208 8.06152 1.63943 13.5738
166 1 -1.1104 1.02954 -2.39762 6.4985
173 1 -1.1104 3.98911 3.09895 6.58489
172 1 -1.1104 3.85409 -2.44427 6.58015
167 1 -1.1104 1.12443 3.19293 6.501
174 1 -1.1104 3.78902 0.411688 6.46823
168 1 -1.1104 6.76095 -2.49281 6.6314
8999 2 2.2208 2.49251 -3.7964 7.9415
4 1 -1.1104 6.71227 -2.44445 1.0433
362 2 2.2208 8.1228 18.4934 13.6126
5 1 -1.1104 6.7287 3.12536 0.98952
31 2 2.2208 10.902 1.69238 5.15276
32 1 -1.1104 12.194 -2.47558 0.93496
33 1 -1.1104 12.2583 3.17083 0.94629
34 1 -1.1104 12.3284 -2.36948 3.8745
35 1 -1.1104 12.2764 3.24605 3.78882
36 1 -1.1104 12.245 0.471164 1.02358
37 2 2.2208 10.845 -1.00967 2.34784
38 2 2.2208 10.8214 4.56124 2.41732
39 1 -1.1104 12.179 0.388338 3.72159
40 1 -1.1104 9.47059 -2.4656 1.00896
41 1 -1.1104 9.44619 3.13056 1.0084
42 2 2.2208 7.97791 1.65518 2.36325
43 1 -1.1104 9.50555 -2.43136 3.75642
44 1 -1.1104 9.48479 3.08426 3.72102
45 2 2.2208 8.07218 -1.00645 5.23821
46 2 2.2208 8.11714 4.60764 5.0771
47 1 -1.1104 9.40967 0.219753 0.966992
48 1 -1.1104 9.43157 0.406247 3.7628
206 1 -1.1104 12.2397 3.17201 6.61128
169 1 -1.1104 6.79853 3.04313 6.42711
207 1 -1.1104 12.2561 0.331753 6.48919
208 1 -1.1104 9.47575 -2.37332 6.54009
209 1 -1.1104 9.5603 3.24988 6.4143
205 1 -1.1104 12.3018 -2.50809 6.63746
352 2 2.2208 5.30518 10.1922 13.58
210 1 -1.1104 9.45943 0.426585 6.57877
360 2 2.2208 10.9056 21.3082 13.59
54 2 2.2208 5.30233 7.3232 5.18482
55 2 2.2208 5.32413 12.9983 5.22745
56 1 -1.1104 1.07684 8.76981 0.981847
58 1 -1.1104 1.10137 8.73281 3.81933
60 1 -1.1104 1.06296 6.01443 0.982237
61 1 -1.1104 1.12742 11.6363 1.0856
66 2 2.2208 5.30129 10.1147 2.40617
67 1 -1.1104 1.09685 5.96213 3.7548
68 1 -1.1104 1.02574 11.5541 3.82442
71 1 -1.1104 3.78669 8.73659 1.03223
72 2 2.2208 2.51075 7.3118 2.37893
73 2 2.2208 2.48689 13.0292 2.46515
74 1 -1.1104 3.83966 8.75061 3.80601
75 2 2.2208 2.48762 10.1968 5.18979
76 1 -1.1104 3.85755 5.92545 0.964697
77 1 -1.1104 3.89104 11.5519 1.09989
79 1 -1.1104 3.87355 5.92513 3.78178
80 1 -1.1104 3.90545 11.4964 3.87265
236 1 -1.1104 1.21563 5.92395 6.54927
69 1 -1.1104 6.62422 5.88191 3.74924
62 1 -1.1104 1.16827 11.5007 6.55995
64 1 -1.1104 6.56643 11.5384 1.0033
59 1 -1.1104 6.61579 8.75383 3.82515
235 1 -1.1104 6.63557 8.69263 6.57835
239 1 -1.1104 3.86727 5.95194 6.5929
78 1 -1.1104 3.9045 11.6337 6.5777
65 1 -1.1104 6.6661 11.6308 6.64993
234 1 -1.1104 1.14681 8.69443 6.6123
238 1 -1.1104 3.92049 8.80542 6.54269
8997 2 2.2208 10.7769 -3.82031 5.18952
63 1 -1.1104 6.63952 5.87945 1.00246
57 1 -1.1104 6.65558 8.67963 1.01139
70 1 -1.1104 6.68851 11.5869 3.90821
84 2 2.2208 10.9158 7.35586 5.20098
85 2 2.2208 10.9143 12.9024 5.22072
86 1 -1.1104 12.1579 8.80246 0.873176
87 1 -1.1104 12.2674 8.78392 3.69447
88 1 -1.1104 12.2017 5.88595 1.01557
89 1 -1.1104 12.3124 11.5212 0.993284
91 2 2.2208 10.8151 9.97908 2.41481
92 1 -1.1104 12.2931 5.94676 3.83967
93 1 -1.1104 12.272 11.574 3.85908
94 1 -1.1104 9.38234 8.57624 1.1097
95 2 2.2208 8.00371 7.32265 2.40497
96 2 2.2208 8.09862 12.9609 2.41058
97 1 -1.1104 9.3925 8.71527 3.94503
98 2 2.2208 8.00614 10.1882 5.27391
99 1 -1.1104 9.40868 5.94104 0.866603
100 1 -1.1104 9.51114 11.429 1.0559
102 1 -1.1104 9.48562 6.03748 3.75302
103 1 -1.1104 9.35848 11.4644 3.79188
90 1 -1.1104 12.2628 11.4373 6.60317
101 1 -1.1104 9.5446 11.4975 6.65544
237 1 -1.1104 6.6671 5.95754 6.57932
266 1 -1.1104 12.2723 5.82577 6.63511
265 1 -1.1104 12.2758 8.69591 6.60549
269 1 -1.1104 9.46775 5.99825 6.58919
267 1 -1.1104 9.51154 8.64019 6.65497
328 1 -1.1104 12.3886 14.3712 9.39136
317 2 2.2208 8.13369 15.7351 10.8122
319 1 -1.1104 9.51225 14.3391 9.42692
106 2 2.2208 5.21063 18.5953 5.12013
107 1 -1.1104 1.05755 14.3499 0.960981
109 1 -1.1104 1.06947 19.8834 0.950697
113 1 -1.1104 1.06363 14.4138 3.85104
114 1 -1.1104 1.02133 19.933 3.77982
116 1 -1.1104 1.00266 17.1465 0.84837
119 2 2.2208 5.24549 15.7292 2.33429
120 2 2.2208 5.27258 21.294 2.3788
121 1 -1.1104 1.12276 17.102 3.71926
123 1 -1.1104 3.75829 14.275 0.947335
125 1 -1.1104 3.79351 19.8152 0.879224
127 2 2.2208 2.38828 18.5399 2.29495
128 1 -1.1104 3.98538 14.3801 3.77555
129 1 -1.1104 3.84164 19.8776 3.73302
130 2 2.2208 2.41567 15.8029 5.22445
131 2 2.2208 2.46902 21.3676 5.13087
132 1 -1.1104 3.80076 17.1211 0.8927
134 1 -1.1104 3.81278 17.1248 3.70177
110 1 -1.1104 6.67099 14.3974 1.00509
133 1 -1.1104 3.91999 17.2526 6.52581
126 1 -1.1104 3.87857 19.9954 6.50048
117 1 -1.1104 1.05152 17.2194 6.52618
108 1 -1.1104 1.12336 14.3821 6.65786
138 1 -1.1104 6.67174 19.9869 1.03364
140 1 -1.1104 6.65765 17.2037 0.985979
302 1 -1.1104 1.14011 19.9754 6.5938
115 1 -1.1104 6.71281 14.3585 3.77033
139 1 -1.1104 6.65858 19.9825 3.73253
112 1 -1.1104 6.76837 19.9206 6.65132
124 1 -1.1104 3.88886 14.3954 6.58583
122 1 -1.1104 6.62297 17.0982 3.74572
111 1 -1.1104 6.72697 14.4202 6.56413
154 1 -1.1104 9.55657 14.3023 6.55597
156 1 -1.1104 9.51919 19.8438 6.65553
141 2 2.2208 10.842 18.4993 5.23406
142 1 -1.1104 12.3682 14.3818 1.05792
144 1 -1.1104 12.3546 19.9925 1.07095
146 1 -1.1104 12.2666 14.2707 3.82179
147 1 -1.1104 12.2637 19.8796 3.72034
148 1 -1.1104 12.1864 17.2053 0.964297
150 2 2.2208 10.8751 15.7194 2.3525
151 2 2.2208 10.9071 21.2965 2.4662
152 1 -1.1104 12.1455 17.1058 3.70302
153 1 -1.1104 9.54881 14.3128 1.00714
155 1 -1.1104 9.44145 19.8286 0.923172
157 2 2.2208 8.01931 18.5399 2.42766
158 1 -1.1104 9.38477 14.4137 3.79826
159 1 -1.1104 9.398 19.8923 3.77011
160 2 2.2208 8.09682 15.8157 5.22325
161 2 2.2208 8.11302 21.3257 5.20665
162 1 -1.1104 9.42999 17.1177 1.01556
164 1 -1.1104 9.41555 17.1991 3.86321
118 1 -1.1104 6.70241 17.2138 6.57102
149 1 -1.1104 12.378 17.1612 6.51681
145 1 -1.1104 12.3108 19.9222 6.4573
143 1 -1.1104 12.2583 14.3391 6.59983
163 1 -1.1104 9.463 17.1069 6.59075
331 2 2.2208 10.8556 18.458 10.8773
359 2 2.2208 5.26994 15.6942 13.5755
357 2 2.2208 2.5742 18.3814 13.6262
50 2 2.2208 13.6311 -0.952098 5.20001
338 2 2.2208 5.28311 -1.01638 13.6379
341 2 2.2208 5.28662 4.4775 13.6302
175 2 2.2208 5.19924 1.70336 10.7341
176 1 -1.1104 1.16643 -2.41772 12.1602
177 1 -1.1104 1.03346 3.08252 12.0291
180 1 -1.1104 1.09776 -2.46183 9.31098
181 1 -1.1104 1.1653 3.12454 9.32872
184 1 -1.1104 1.05127 0.338466 12.1984
186 2 2.2208 5.3104 -1.05095 7.99178
187 2 2.2208 5.30155 4.50039 7.93322
188 1 -1.1104 1.11659 0.409719 9.45068
190 1 -1.1104 3.94978 -2.49849 12.305
191 1 -1.1104 3.84037 3.16731 12.1555
192 2 2.2208 2.43379 1.72842 7.93576
193 1 -1.1104 3.90965 -2.38477 9.44629
194 1 -1.1104 3.89354 3.17759 9.37374
195 2 2.2208 2.45698 -1.08896 10.7976
196 2 2.2208 2.57538 4.54563 10.6637
197 1 -1.1104 3.90841 0.212837 12.1814
198 1 -1.1104 3.81309 0.339266 9.36014
189 1 -1.1104 6.72078 0.318507 9.46869
320 2 2.2208 8.07537 18.5191 8.02817
306 1 -1.1104 6.7061 17.1323 12.1857
178 1 -1.1104 6.74787 -2.42479 12.3153
185 1 -1.1104 6.57519 0.257849 12.1696
346 2 2.2208 10.9186 -1.07218 13.5898
182 1 -1.1104 6.6393 -2.49314 9.47568
183 1 -1.1104 6.73616 3.11789 9.34258
179 1 -1.1104 6.70478 2.98476 12.2496
211 2 2.2208 10.8575 1.75277 10.7406
212 1 -1.1104 12.2915 -2.5388 12.1888
213 1 -1.1104 12.2538 3.09866 12.1675
214 1 -1.1104 12.1885 -2.46111 9.46354
215 1 -1.1104 12.2601 3.11597 9.37071
216 1 -1.1104 12.1786 0.249123 12.1559
217 2 2.2208 10.8972 -1.05298 8.04455
218 2 2.2208 10.8367 4.51745 7.99855
219 1 -1.1104 12.2561 0.341223 9.35314
220 1 -1.1104 9.47589 -2.51269 12.2484
221 1 -1.1104 9.53063 3.17774 12.2621
222 2 2.2208 8.04342 1.71777 8.05575
223 1 -1.1104 9.39459 -2.39534 9.45642
224 1 -1.1104 9.44862 3.125 9.48769
225 2 2.2208 8.03731 -1.04938 10.8607
226 2 2.2208 8.07935 4.51678 10.8781
227 1 -1.1104 9.45801 0.339222 12.1113
228 1 -1.1104 9.51449 0.320656 9.43705
350 2 2.2208 10.8477 4.50821 13.57
358 2 2.2208 5.26371 21.3216 13.533
314 1 -1.1104 9.5075 17.1182 9.45412
351 2 2.2208 2.5716 7.32155 13.5647
105 2 2.2208 13.6361 7.37372 2.35357
9020 2 2.2208 2.49098 -3.81387 13.5962
240 2 2.2208 5.29758 7.35042 10.774
241 2 2.2208 5.24245 12.894 10.7605
242 1 -1.1104 1.0418 8.74503 12.1552
244 1 -1.1104 1.14437 8.74871 9.46719
246 1 -1.1104 1.06052 5.96008 12.1839
247 1 -1.1104 1.05109 11.5448 12.1015
250 2 2.2208 5.25412 10.177 7.93051
251 1 -1.1104 1.16698 5.93055 9.33086
252 1 -1.1104 1.14287 11.5584 9.26791
255 1 -1.1104 3.87479 8.81971 12.2103
256 2 2.2208 2.56031 7.33638 7.94948
257 2 2.2208 2.53699 12.9383 7.99418
258 1 -1.1104 3.88507 8.78311 9.2999
259 2 2.2208 2.48515 10.1379 10.7943
260 1 -1.1104 3.89562 5.91863 12.1338
261 1 -1.1104 3.86177 11.596 12.1551
262 1 -1.1104 3.89426 6.01559 9.37455
263 1 -1.1104 3.91176 11.5583 9.28977
245 1 -1.1104 6.64555 8.5555 9.36103
248 1 -1.1104 6.6816 5.99024 12.2555
243 1 -1.1104 6.71846 8.83828 12.1793
253 1 -1.1104 6.73919 5.79553 9.34746
249 1 -1.1104 6.70249 11.5969 12.1525
254 1 -1.1104 6.76011 11.3808 9.36247
334 2 2.2208 -0.289126 -0.975781 13.5213
326 1 -1.1104 12.284 17.0334 12.2131
9000 2 2.2208 5.33074 -3.84485 10.8503
354 2 2.2208 8.03887 7.39883 13.6273
264 1 -1.1104 9.54075 11.5743 9.37563
268 1 -1.1104 9.47792 5.92183 9.46814
270 1 -1.1104 9.47995 11.5512 12.1998
271 1 -1.1104 9.55243 5.99826 12.1969
272 2 2.2208 8.12888 10.095 10.7764
273 1 -1.1104 9.58099 8.72837 9.53885
274 2 2.2208 8.05167 12.9432 7.9922
275 2 2.2208 8.05871 7.28322 8.02467
276 2 2.2208 10.9217 7.36867 10.8336
277 2 2.2208 10.9061 12.9071 10.744
278 1 -1.1104 12.2995 8.84359 12.148
279 1 -1.1104 12.2358 8.81724 9.44571
280 1 -1.1104 12.2709 5.97194 12.0437
281 1 -1.1104 12.3009 11.4994 12.149
282 2 2.2208 10.9358 10.1516 8.03841
283 1 -1.1104 12.3604 5.99817 9.28952
284 1 -1.1104 12.3552 11.6512 9.33359
285 1 -1.1104 9.44635 8.75058 12.2929
356 2 2.2208 8.05809 12.9288 13.5324
339 2 2.2208 2.44923 1.73456 13.4275
230 2 2.2208 13.6347 -1.06816 10.7429
27 2 2.2208 -0.304659 4.52088 2.39509
355 2 2.2208 10.8848 10.1104 13.6211
288 1 -1.1104 6.62368 19.9791 9.45471
297 1 -1.1104 6.60599 14.4789 12.1056
342 2 2.2208 -0.315236 15.7466 13.6501
289 1 -1.1104 6.7397 17.1523 9.41052
290 1 -1.1104 6.71315 14.296 9.35327
296 1 -1.1104 6.70242 19.8555 12.2254
298 1 -1.1104 1.18314 19.877 12.1852
308 1 -1.1104 3.88291 17.069 12.1926
303 2 2.2208 2.38279 18.5434 7.97768
307 1 -1.1104 1.06553 17.0875 12.1855
309 2 2.2208 2.55859 21.3526 10.7945
301 1 -1.1104 3.88789 19.9789 9.44806
300 2 2.2208 5.29076 18.5086 10.7392
310 2 2.2208 2.47945 15.6313 10.7987
299 1 -1.1104 1.1468 14.3882 12.2493
305 1 -1.1104 3.886 14.3951 9.32333
304 1 -1.1104 3.89251 17.1365 9.33932
286 1 -1.1104 4.00536 19.8545 12.1221
287 1 -1.1104 3.917 14.3018 12.1696
291 1 -1.1104 1.1496 19.7621 9.4189
292 1 -1.1104 1.10817 16.9864 9.44389
293 2 2.2208 5.28796 21.3304 7.92811
294 1 -1.1104 1.1044 14.2392 9.4797
295 2 2.2208 5.32129 15.7676 8.00762
376 2 2.2208 13.595 12.8724 13.5949
201 2 2.2208 -0.316119 1.71588 10.8012
325 2 2.2208 10.8846 15.7412 7.97013
165 2 2.2208 13.6376 18.5508 2.37477
361 2 2.2208 10.887 15.6642 13.6156
315 1 -1.1104 9.57983 17.1567 12.3081
330 1 -1.1104 12.3077 14.271 12.1736
318 1 -1.1104 9.51888 19.854 9.5171
327 1 -1.1104 12.2757 19.9688 9.38775
323 1 -1.1104 12.2342 17.1607 9.33767
329 1 -1.1104 12.1647 19.8387 12.2521
316 2 2.2208 8.09196 21.3412 10.8319
321 1 -1.1104 9.40635 20.0043 12.1766
322 1 -1.1104 9.48473 14.2804 12.1965
324 2 2.2208 10.883 21.3073 8.00342
332 2 2.2208 13.6227 18.4601 7.9603
353 2 2.2208 2.37136 12.9441 13.5441
104 2 2.2208 13.6523 12.8486 2.42098
199 2 2.2208 -0.224338 4.53076 7.9661
8996 2 2.2208 8.07268 -3.83048 2.42225
81 2 2.2208 -0.267204 7.43258 5.20945
335 2 2.2208 -0.286036 21.2676 13.6492
311 2 2.2208 -0.298098 21.2479 8.07368
333 2 2.2208 13.654 15.6887 10.7541
83 2 2.2208 -0.314919 12.9048 5.22304
51 2 2.2208 -0.29328 12.9354 10.7567
232 2 2.2208 13.6235 10.1607 5.14187
82 2 2.2208 -0.300749 10.1828 2.4665
9001 2 2.2208 -0.324594 -3.80669 10.7482
26 2 2.2208 -0.35143 1.77512 5.20288
30 2 2.2208 -0.231494 10.1403 8.06828
312 2 2.2208 -0.221885 18.4749 10.865
200 2 2.2208 -0.241861 -1.05138 7.9023
9004 2 2.2208 13.6658 -3.87988 7.90942
337 2 2.2208 -0.289597 4.51538 13.4463
388 2 2.2208 5.20401 1.72581 16.3119
389 1 -1.1104 1.04316 -2.48062 17.8153
390 1 -1.1104 1.04384 3.24077 17.8334
393 1 -1.1104 1.08128 -2.35479 15.0206
395 1 -1.1104 1.00721 3.20151 14.9176
401 1 -1.1104 1.02511 0.34098 17.7387
403 2 2.2208 5.23373 -1.01741 19.2209
404 2 2.2208 5.20477 4.59525 19.2096
405 1 -1.1104 0.989352 0.429298 14.9754
409 1 -1.1104 3.8791 -2.45606 17.8971
410 1 -1.1104 3.79598 3.1317 17.7554
411 2 2.2208 2.50839 1.8245 19.1938
412 1 -1.1104 3.81453 -2.34632 15.0877
414 1 -1.1104 3.83948 3.095 14.9111
416 2 2.2208 2.41956 -0.9913 16.4047
417 2 2.2208 2.36788 4.5516 16.3275
418 1 -1.1104 3.81622 0.393783 17.8359
419 1 -1.1104 3.78784 0.407905 14.9285
392 1 -1.1104 6.56522 3.16882 17.7845
400 1 -1.1104 6.5692 3.08257 20.4597
402 1 -1.1104 6.58802 0.427739 17.7208
399 1 -1.1104 6.69431 3.13766 14.9848
407 1 -1.1104 6.68005 0.393941 14.9655
415 1 -1.1104 3.82897 3.28935 20.6263
394 1 -1.1104 0.920403 -2.30972 20.5574
408 1 -1.1104 6.66944 0.335519 20.6466
391 1 -1.1104 6.63544 -2.42404 17.7615
397 1 -1.1104 6.65643 -2.34717 15.037
396 1 -1.1104 1.05696 3.20774 20.5938
413 1 -1.1104 3.79065 -2.47784 20.6513
406 1 -1.1104 1.06702 0.361792 20.6003
420 1 -1.1104 3.85777 0.396062 20.6178
398 1 -1.1104 6.60471 -2.41808 20.5143
525 2 2.2208 10.8809 15.7257 24.9412
431 2 2.2208 10.9083 1.72981 16.4004
432 1 -1.1104 12.1879 -2.4627 17.7805
433 1 -1.1104 12.3363 3.03198 17.782
434 1 -1.1104 12.3046 -2.49771 15.0085
436 1 -1.1104 12.2495 3.14172 14.9902
438 1 -1.1104 12.2012 0.248947 17.7798
439 2 2.2208 10.8256 -1.02236 19.2055
440 2 2.2208 10.8185 4.46027 19.2183
441 1 -1.1104 12.1836 0.416163 14.9473
443 1 -1.1104 9.37688 -2.37275 17.7645
444 1 -1.1104 9.58857 3.13124 17.8021
445 2 2.2208 7.96683 1.74121 19.179
446 1 -1.1104 9.56751 -2.43871 15.0923
448 1 -1.1104 9.39964 3.14249 14.9947
450 2 2.2208 8.05428 -1.03745 16.2941
451 2 2.2208 8.00992 4.44363 16.4433
452 1 -1.1104 9.42598 0.38849 17.8386
453 1 -1.1104 9.45097 0.353482 14.9128
454 1 -1.1104 9.44591 0.302863 20.6809
449 1 -1.1104 9.38303 3.1961 20.6688
435 1 -1.1104 12.2667 -2.50951 20.5816
442 1 -1.1104 12.2251 0.370213 20.5613
447 1 -1.1104 9.41704 -2.46839 20.6185
624 2 2.2208 -0.311621 -1.08194 24.7835
387 2 2.2208 13.6588 10.0798 27.5234
383 2 2.2208 -0.281355 7.34392 27.5691
9159 2 2.2208 5.21671 -3.83521 16.5142
464 2 2.2208 5.22063 7.33219 16.4512
465 2 2.2208 5.2968 12.9725 16.3717
466 1 -1.1104 0.95242 8.79308 17.6474
468 1 -1.1104 1.11608 8.76423 14.8588
472 1 -1.1104 1.03558 6.07242 17.7898
473 1 -1.1104 1.10785 11.5275 17.7037
476 2 2.2208 5.18898 10.2135 19.1942
477 1 -1.1104 1.05367 5.92583 14.8927
479 1 -1.1104 1.04984 11.4783 14.9364
485 1 -1.1104 3.77167 8.83843 17.7478
486 2 2.2208 2.36626 7.36598 19.1479
487 2 2.2208 2.47004 12.8721 19.1881
488 1 -1.1104 3.93273 8.68736 15.012
490 2 2.2208 2.44449 10.1366 16.2984
491 1 -1.1104 3.75662 6.00857 17.7626
492 1 -1.1104 3.918 11.4914 17.7477
493 1 -1.1104 3.9181 5.90011 14.9624
495 1 -1.1104 3.82875 11.5437 14.9663
483 1 -1.1104 6.63932 11.5313 15.0639
475 1 -1.1104 6.6727 11.5256 17.7759
496 1 -1.1104 3.84552 11.614 20.5546
481 1 -1.1104 6.65674 5.83449 15.0501
470 1 -1.1104 6.75868 8.70701 15.0706
482 1 -1.1104 6.52411 6.03212 20.5523
474 1 -1.1104 6.57727 5.88604 17.7712
467 1 -1.1104 6.67693 8.68647 17.7822
480 1 -1.1104 1.0199 11.548 20.6147
494 1 -1.1104 3.723 6.02708 20.592
478 1 -1.1104 1.06308 5.99841 20.6188
469 1 -1.1104 1.10926 8.86625 20.5889
471 1 -1.1104 6.67368 8.80133 20.5217
708 2 2.2208 13.5662 12.9444 24.9007
484 1 -1.1104 6.60774 11.5505 20.5828
500 2 2.2208 10.8777 7.25871 16.4005
501 2 2.2208 10.9286 12.8576 16.4342
502 1 -1.1104 12.2862 8.74223 17.7499
503 1 -1.1104 12.3089 8.72734 14.9455
505 1 -1.1104 12.3064 5.95101 17.8542
506 1 -1.1104 12.3154 11.5359 17.8391
507 2 2.2208 10.941 10.1382 19.166
508 1 -1.1104 12.2919 5.84059 14.8539
510 1 -1.1104 12.2719 11.4699 15.0711
512 1 -1.1104 9.49612 8.66968 17.8705
513 2 2.2208 7.98301 7.37362 19.187
514 2 2.2208 8.1085 12.9068 19.2135
515 1 -1.1104 9.44515 8.77491 15.0761
517 2 2.2208 8.12616 10.2042 16.4387
518 1 -1.1104 9.41994 5.89355 17.7771
519 1 -1.1104 9.58339 11.5708 17.7524
520 1 -1.1104 9.48422 6.01576 15.0343
522 1 -1.1104 9.52099 11.4971 15.0328
504 1 -1.1104 12.3279 8.71312 20.5591
523 1 -1.1104 9.55994 11.564 20.5133
511 1 -1.1104 12.3347 11.5872 20.7045
521 1 -1.1104 9.45966 5.97771 20.5938
349 2 2.2208 8.10151 21.2616 27.595
516 1 -1.1104 9.48741 8.74357 20.595
509 1 -1.1104 12.2503 5.80457 20.6057
527 2 2.2208 5.31709 18.5324 16.4395
528 1 -1.1104 1.04086 14.4072 17.6831
529 1 -1.1104 1.11487 19.8484 17.8662
532 1 -1.1104 1.06354 14.3629 14.9496
534 1 -1.1104 1.03497 19.8623 14.9572
540 1 -1.1104 0.974473 17.1352 17.806
542 2 2.2208 5.31778 15.7921 19.144
543 2 2.2208 5.24364 21.4037 19.1873
544 1 -1.1104 1.12573 17.044 15.0572
548 1 -1.1104 3.85983 14.3211 17.7299
549 1 -1.1104 3.93356 19.8985 17.692
550 2 2.2208 2.48457 18.5274 19.1383
551 1 -1.1104 3.83493 14.4042 14.9695
553 1 -1.1104 3.85045 19.8519 14.8953
555 2 2.2208 2.54497 15.71 16.3367
556 2 2.2208 2.42805 21.2686 16.3561
557 1 -1.1104 3.83939 17.1498 17.7839
558 1 -1.1104 3.92964 16.9877 15.008
541 1 -1.1104 6.67662 17.0864 17.7056
533 1 -1.1104 1.01118 14.3248 20.4934
538 1 -1.1104 6.71637 19.9345 15.043
546 1 -1.1104 6.6621 17.1628 14.9663
530 1 -1.1104 6.6948 14.3894 17.7498
545 1 -1.1104 1.02977 16.9959 20.5575
536 1 -1.1104 6.72881 14.3734 14.9297
539 1 -1.1104 6.64869 20.0659 20.5604
537 1 -1.1104 6.77722 14.3455 20.5917
552 1 -1.1104 3.9894 14.3477 20.4999
547 1 -1.1104 6.74292 17.1866 20.6139
554 1 -1.1104 3.87143 19.9234 20.4486
587 2 2.2208 8.07595 18.5588 24.7555
531 1 -1.1104 6.82039 19.8752 17.7675
563 2 2.2208 10.9151 18.4927 16.424
564 1 -1.1104 12.3027 14.2884 17.8961
565 1 -1.1104 12.241 19.9027 17.8355
566 1 -1.1104 12.2135 14.303 15.0301
568 1 -1.1104 12.1825 19.7449 15.0418
570 1 -1.1104 12.3743 17.0573 17.8199
571 2 2.2208 10.9171 15.773 19.2239
572 2 2.2208 10.8661 21.3168 19.1596
573 1 -1.1104 12.3364 17.118 14.9952
575 1 -1.1104 9.47853 14.3038 17.8618
576 1 -1.1104 9.4689 19.9629 17.7909
577 2 2.2208 8.03715 18.498 19.1159
578 1 -1.1104 9.4224 14.2018 14.9432
580 1 -1.1104 9.44714 19.8414 15.058
582 2 2.2208 8.11295 15.6575 16.361
583 2 2.2208 8.09472 21.2691 16.3509
584 1 -1.1104 9.46392 17.0771 17.7385
585 1 -1.1104 9.42632 17.0187 14.9881
579 1 -1.1104 9.48682 14.3438 20.5974
567 1 -1.1104 12.2214 14.4105 20.5871
569 1 -1.1104 12.2282 19.9446 20.6248
574 1 -1.1104 12.3213 17.1777 20.6714
586 1 -1.1104 9.48389 17.0925 20.5429
526 2 2.2208 10.8528 21.3855 24.8206
382 2 2.2208 -0.263707 12.8997 27.6207
370 2 2.2208 8.11545 -1.11447 27.559
364 2 2.2208 5.30004 1.67554 27.5567
365 2 2.2208 2.54694 -1.02156 27.5384
591 2 2.2208 5.26391 1.78172 21.9634
592 1 -1.1104 1.05927 -2.49966 23.4149
593 1 -1.1104 0.959042 3.19337 23.4134
596 1 -1.1104 1.07556 -2.49953 26.2305
597 1 -1.1104 1.09328 3.1239 26.0436
600 1 -1.1104 1.07205 0.361571 23.4054
602 2 2.2208 5.30469 -1.1223 24.7705
603 2 2.2208 5.30854 4.47654 24.7597
604 1 -1.1104 1.18743 0.295855 26.1293
606 1 -1.1104 3.87487 -2.49071 23.3908
607 1 -1.1104 3.79207 3.15409 23.2997
608 2 2.2208 2.46463 1.73342 24.7588
609 1 -1.1104 3.89499 -2.51239 26.2331
610 1 -1.1104 3.9112 3.07251 26.1134
611 2 2.2208 2.44889 -1.04368 21.9456
612 2 2.2208 2.46074 4.58003 22.0383
613 1 -1.1104 3.83222 0.388144 23.3478
614 1 -1.1104 3.89692 0.330467 26.151
594 1 -1.1104 6.57561 -2.50617 23.41
599 1 -1.1104 6.6514 3.00445 26.1398
595 1 -1.1104 6.622 3.05153 23.3159
601 1 -1.1104 6.67292 0.285771 23.3971
366 2 2.2208 2.47538 4.56636 27.5363
372 2 2.2208 8.07042 4.45832 27.5822
369 2 2.2208 10.8805 1.76643 27.5797
9090 2 2.2208 10.8538 -3.84629 21.981
685 2 2.2208 -0.325411 12.99 22.0486
625 2 2.2208 -0.291839 1.76958 21.9304
437 1 -1.1104 12.2401 3.02355 20.5468
598 1 -1.1104 6.78456 -2.54233 26.1619
605 1 -1.1104 6.68497 0.300539 26.1328
627 2 2.2208 10.8042 1.74748 22.0061
628 1 -1.1104 12.2034 -2.53765 23.3206
629 1 -1.1104 12.2978 3.08869 23.3112
630 1 -1.1104 12.2499 -2.53861 26.0852
631 1 -1.1104 12.2628 3.1326 26.1081
632 1 -1.1104 12.1577 0.343027 23.404
633 2 2.2208 10.8873 -1.06513 24.7886
634 2 2.2208 10.8558 4.55654 24.6221
635 1 -1.1104 12.317 0.268968 26.2226
636 1 -1.1104 9.4286 -2.49267 23.4235
637 1 -1.1104 9.41921 3.0661 23.3324
638 2 2.2208 8.08262 1.68893 24.7073
639 1 -1.1104 9.52565 -2.43098 26.2046
640 1 -1.1104 9.44761 2.99829 26.1363
641 2 2.2208 8.0405 -1.03755 22.0368
642 2 2.2208 8.01812 4.50988 21.9737
643 1 -1.1104 9.53661 0.392122 23.4015
644 1 -1.1104 9.51166 0.33815 26.0725
562 1 -1.1104 9.37166 19.8764 23.2745
463 1 -1.1104 12.2312 14.3759 23.4467
489 1 -1.1104 3.8168 8.88005 20.6048
381 2 2.2208 5.28081 12.8943 27.5673
656 2 2.2208 5.21787 7.45668 21.9174
657 2 2.2208 5.3188 13.0456 21.9659
658 1 -1.1104 1.15339 8.68888 23.4219
660 1 -1.1104 1.0842 8.78263 26.1145
662 1 -1.1104 1.05313 5.97243 23.3711
663 1 -1.1104 1.1751 11.6135 23.3553
666 2 2.2208 5.18829 10.1854 24.7476
667 1 -1.1104 1.09232 5.96851 26.2037
668 1 -1.1104 1.0679 11.4926 26.1961
671 1 -1.1104 3.84647 8.86522 23.4074
672 2 2.2208 2.49358 7.32346 24.8662
673 2 2.2208 2.54796 12.8888 24.8038
674 1 -1.1104 3.88554 8.77477 26.1935
675 2 2.2208 2.47146 10.2547 22.0117
676 1 -1.1104 3.9419 5.8911 23.5161
677 1 -1.1104 3.94637 11.6246 23.4163
678 1 -1.1104 3.89467 5.95301 26.1391
679 1 -1.1104 3.90075 11.5075 26.266
665 1 -1.1104 6.70138 11.6621 23.3622
669 1 -1.1104 6.67159 5.91766 26.0748
380 2 2.2208 2.41867 10.0895 27.5539
590 1 -1.1104 9.60332 19.9976 26.1018
377 2 2.2208 13.6345 -1.16155 27.6124
378 2 2.2208 13.667 4.49669 27.4898
379 2 2.2208 5.30286 7.33704 27.5337
384 2 2.2208 10.8721 7.27079 27.5972
385 2 2.2208 8.01687 10.2006 27.561
664 1 -1.1104 6.66553 5.90003 23.2774
659 1 -1.1104 6.53063 8.71933 23.3718
661 1 -1.1104 6.72509 8.74425 26.1457
670 1 -1.1104 6.72693 11.591 26.1951
687 1 -1.1104 9.4399 11.6151 26.2155
688 1 -1.1104 9.56738 5.88676 26.1679
689 1 -1.1104 9.46273 11.5441 23.4496
690 1 -1.1104 9.41028 5.89353 23.3094
691 2 2.2208 8.12995 10.1091 21.9479
692 1 -1.1104 9.4944 8.75626 26.2604
693 2 2.2208 8.09473 12.9848 24.7498
694 2 2.2208 7.99567 7.35144 24.7207
695 2 2.2208 10.8657 7.27656 21.9592
696 2 2.2208 10.8572 13.0244 22.0354
697 1 -1.1104 12.1641 8.77443 23.2741
698 1 -1.1104 12.2911 8.63203 26.1205
699 1 -1.1104 12.1927 5.94816 23.2803
700 1 -1.1104 12.3222 11.5636 23.4246
701 2 2.2208 10.816 10.0946 24.8109
702 1 -1.1104 12.2667 5.83351 26.0619
703 1 -1.1104 12.2851 11.3925 26.1671
704 1 -1.1104 9.43301 8.72166 23.4679
709 1 -1.1104 6.70638 14.4601 23.3326
581 1 -1.1104 9.49646 19.8998 20.5043
386 2 2.2208 10.8581 12.9009 27.6147
718 1 -1.1104 6.66576 19.9458 23.352
535 1 -1.1104 1.04527 19.9004 20.5831
714 1 -1.1104 6.66137 17.1814 26.0504
559 1 -1.1104 3.91474 17.0835 20.5592
460 2 2.2208 13.6208 21.3012 16.324
375 2 2.2208 2.5172 21.277 27.5294
374 2 2.2208 5.29715 18.5088 27.5406
680 1 -1.1104 6.64121 17.1921 23.3127
712 1 -1.1104 6.7461 14.3764 26.0999
647 2 2.2208 2.48958 15.651 21.9219
649 2 2.2208 2.5287 21.3951 21.9893
652 1 -1.1104 3.80873 17.1296 23.385
655 1 -1.1104 0.96557 17.119 23.2528
681 1 -1.1104 3.90134 14.2891 26.196
682 1 -1.1104 3.78629 17.1238 26.1452
683 2 2.2208 2.42639 18.5228 24.6186
686 1 -1.1104 3.85099 19.9718 26.0306
705 2 2.2208 5.38797 18.5257 21.8839
706 1 -1.1104 1.12643 14.3047 23.2754
707 1 -1.1104 1.13845 19.9587 23.2074
711 1 -1.1104 3.9044 19.866 23.2529
713 1 -1.1104 3.92777 14.377 23.354
715 1 -1.1104 1.04975 19.9051 26.0687
716 1 -1.1104 0.979717 17.0778 25.9765
717 1 -1.1104 1.13593 14.28 26.1661
719 2 2.2208 5.25928 21.2329 24.7433
720 2 2.2208 5.25504 15.7775 24.7426
588 1 -1.1104 6.67269 19.8792 26.1414
9160 2 2.2208 -0.309281 -3.7808 16.3572
348 2 2.2208 10.8855 18.6201 27.5612
620 1 -1.1104 9.58716 17.1647 26.2614
347 2 2.2208 8.10615 15.7709 27.5873
462 2 2.2208 10.9064 18.5378 22.0445
616 2 2.2208 8.07275 21.3256 21.9069
617 1 -1.1104 9.44675 17.0466 23.4407
499 1 -1.1104 12.2953 19.9209 26.2054
589 1 -1.1104 9.48396 14.3289 26.2351
560 1 -1.1104 12.4213 17.1319 26.1444
524 1 -1.1104 12.2844 17.1574 23.3658
615 2 2.2208 8.13344 15.7718 21.9445
9093 2 2.2208 5.22429 -3.82835 21.9821
561 1 -1.1104 9.45975 14.3436 23.4256
498 1 -1.1104 12.2531 14.2994 26.2911
497 1 -1.1104 12.2582 20.0271 23.4937
645 2 2.2208 -0.302662 21.3582 24.6726
650 2 2.2208 13.61 12.9477 19.2602
9128 2 2.2208 8.02854 -3.75681 19.1855
428 2 2.2208 13.6312 1.66544 19.1239
710 2 2.2208 13.6197 7.39144 24.6966
654 2 2.2208 13.6342 1.6501 24.8493
421 2 2.2208 -0.20545 7.42578 21.9504
458 2 2.2208 -0.295265 21.3538 19.113
456 2 2.2208 -0.311121 18.5011 16.3855
653 2 2.2208 13.5978 -1.03582 21.9853
9130 2 2.2208 13.6448 -3.78536 19.186
373 2 2.2208 2.4246 15.6886 27.4856
371 2 2.2208 -0.292483 18.5249 27.4365
721 2 2.2208 5.21817 24.1835 5.19385
722 2 2.2208 5.13148 29.8179 5.09593
723 1 -1.1104 0.93353 25.5747 1.02535
724 1 -1.1104 1.07605 25.4952 3.77157
725 1 -1.1104 1.07213 22.6803 1.05108
726 1 -1.1104 0.9843 28.3558 1.06176
727 2 2.2208 5.1614 26.9289 2.35413
728 1 -1.1104 1.02509 22.6964 3.86936
729 1 -1.1104 0.946487 28.3222 3.80813
730 1 -1.1104 3.78149 25.4735 0.999485
731 2 2.2208 2.3913 24.0886 2.30072
732 2 2.2208 2.35341 29.7274 2.43154
733 1 -1.1104 3.72731 25.5179 3.8097
734 2 2.2208 2.44117 26.9216 5.22522
735 1 -1.1104 3.87279 22.6054 0.97806
736 1 -1.1104 3.74491 28.2178 1.02513
737 1 -1.1104 3.89465 22.6644 3.71145
738 1 -1.1104 3.74108 28.4686 3.79687
869 1 -1.1104 3.78631 22.8126 6.57873
862 1 -1.1104 1.00936 25.53 6.59828
865 1 -1.1104 1.0648 28.3708 6.63929
864 1 -1.1104 1.03997 22.739 6.67616
744 1 -1.1104 6.61615 22.7669 0.964669
868 1 -1.1104 3.83623 25.5592 6.58441
870 1 -1.1104 3.84569 28.3084 6.54573
863 1 -1.1104 6.55134 25.5117 6.61421
867 1 -1.1104 6.59504 28.3796 6.6044
743 1 -1.1104 6.59853 25.5377 3.81608
746 1 -1.1104 6.69419 22.7084 3.75122
745 1 -1.1104 6.52377 28.3359 0.929475
866 1 -1.1104 6.68709 22.7228 6.553
1053 2 2.2208 -0.248608 32.4345 13.5794
1646 1 -1.1104 12.223 47.6001 12.1943
747 1 -1.1104 6.51346 28.3425 3.85028
742 1 -1.1104 6.64719 25.6142 1.12509
748 2 2.2208 10.9008 24.0906 5.17368
749 2 2.2208 10.7647 29.6668 5.1908
750 1 -1.1104 12.2343 25.3778 1.07524
751 1 -1.1104 12.29 25.5443 3.92672
752 1 -1.1104 12.2489 22.7546 1.08281
753 1 -1.1104 12.0639 28.2463 1.12496
754 2 2.2208 10.8154 26.8532 2.50247
755 1 -1.1104 12.2671 22.7182 3.8067
756 1 -1.1104 12.1724 28.2206 3.86459
757 1 -1.1104 9.39798 25.5358 1.00625
758 2 2.2208 8.08117 24.145 2.43207
759 2 2.2208 7.96817 29.7792 2.3273
760 1 -1.1104 9.42839 25.4433 3.84625
761 2 2.2208 8.01341 26.9182 5.24561
762 1 -1.1104 9.46997 22.6032 1.03142
763 1 -1.1104 9.36074 28.3209 0.974619
764 1 -1.1104 9.55818 22.768 3.74623
765 1 -1.1104 9.31281 28.2107 3.72141
900 1 -1.1104 9.42832 28.2477 6.54466
895 1 -1.1104 12.1445 25.4746 6.66889
897 1 -1.1104 12.1621 28.2406 6.55896
1028 2 2.2208 10.7694 46.5186 10.8349
1086 2 2.2208 10.8575 35.373 -0.262078
769 2 2.2208 5.14236 35.3437 5.23336
770 1 -1.1104 1.01023 31.1581 0.99166
771 1 -1.1104 1.01489 36.656 1.12194
773 1 -1.1104 1.01658 31.228 3.82232
774 1 -1.1104 1.15535 36.7726 3.92846
776 1 -1.1104 1.0114 33.9096 1.02888
777 2 2.2208 5.21768 32.6553 2.32686
778 2 2.2208 5.20089 38.1194 2.46381
779 1 -1.1104 0.886195 33.983 3.7425
781 1 -1.1104 3.73059 31.0843 1.02778
782 1 -1.1104 3.7472 36.7339 1.02374
783 2 2.2208 2.42894 35.2625 2.47459
784 1 -1.1104 3.7819 31.3154 3.76582
785 1 -1.1104 3.77566 36.7167 3.75947
786 2 2.2208 2.40703 32.541 5.1966
787 2 2.2208 2.39665 38.1823 5.29585
788 1 -1.1104 3.79986 33.9407 0.993282
789 1 -1.1104 3.78258 34.0125 3.8252
925 1 -1.1104 3.74298 31.1914 6.51326
923 1 -1.1104 1.01989 33.9282 6.68989
794 1 -1.1104 6.57311 31.0933 3.73869
926 1 -1.1104 3.86597 36.8008 6.58501
919 1 -1.1104 0.973793 31.1806 6.5839
920 1 -1.1104 1.19445 36.7024 6.65377
921 1 -1.1104 6.61807 31.1285 6.56392
922 1 -1.1104 6.53489 36.656 6.82851
924 1 -1.1104 6.59376 33.9438 6.57114
1014 2 2.2208 8.07711 40.788 8.16621
1083 2 2.2208 13.588 38.0884 -0.302535
772 1 -1.1104 6.64957 36.6876 1.05763
795 1 -1.1104 6.46892 33.942 0.95891
775 1 -1.1104 6.59117 36.7331 3.85579
780 1 -1.1104 6.61895 33.9151 3.7947
793 1 -1.1104 6.51625 31.2207 0.891921
796 2 2.2208 10.8131 35.2567 5.35122
797 1 -1.1104 12.1686 31.1018 1.06232
798 1 -1.1104 12.1631 36.7877 1.02603
799 1 -1.1104 12.1658 31.0521 3.85041
800 1 -1.1104 12.0789 36.6946 3.83864
801 1 -1.1104 12.1529 34.003 1.08105
802 2 2.2208 10.8984 32.5287 2.49606
803 2 2.2208 10.8367 38.1469 2.4525
804 1 -1.1104 12.2782 33.896 3.83118
805 1 -1.1104 9.41088 31.0855 1.0801
806 1 -1.1104 9.44757 36.7818 1.05445
807 2 2.2208 7.97543 35.3252 2.46864
808 1 -1.1104 9.37342 31.0422 3.8402