ITEM: TIMESTEP
70000
ITEM: NUMBER OF ATOMS
17670
ITEM: BOX BOUNDS pp pp pp
-3.2023075599739226e-01 2.7660230755996952e+01
-3.7845084461690597e+00 3.3186450844618730e+02
-3.1905465626727431e-01 2.7659054656266754e+01
ITEM: ATOMS id type q x y z
1 2 2.2208 5.32849 1.75503 5.35709
2 1 -1.1104 1.06019 -2.37237 1.23011
3 1 -1.1104 1.10231 3.09274 1.1496
6 1 -1.1104 1.24864 -2.25895 4.02315
7 1 -1.1104 1.13882 3.14491 3.98021
10 1 -1.1104 1.08197 0.362117 1.17854
12 2 2.2208 5.3525 -1.01984 2.5182
13 2 2.2208 5.32149 4.58838 2.64799
14 1 -1.1104 1.10005 0.364528 4.01941
16 1 -1.1104 3.90407 -2.2817 1.14794
17 1 -1.1104 3.92821 3.22261 1.30132
18 2 2.2208 2.53324 1.72545 2.55022
19 1 -1.1104 3.92964 -2.40987 3.9956
20 1 -1.1104 3.89676 3.17215 4.08269
21 2 2.2208 2.53186 -0.949911 5.49714
22 2 2.2208 2.51139 4.52797 5.38695
23 1 -1.1104 4.0035 0.416172 1.159
24 1 -1.1104 3.9579 0.427659 3.97117
313 2 2.2208 -0.373946 15.8581 8.18219
9004 2 2.2208 13.6065 -3.81169 8.20479
384 2 2.2208 10.8174 7.35374 -0.221716
4 1 -1.1104 6.70384 -2.30625 1.13004
5 1 -1.1104 6.81449 3.20772 1.16989
379 2 2.2208 5.28152 7.37679 -0.104663
28 2 2.2208 13.7082 21.4849 10.9864
364 2 2.2208 5.42435 1.80713 -0.228528
82 2 2.2208 -0.366305 10.1556 2.61533
321 1 -1.1104 9.56685 19.9768 12.472
366 2 2.2208 2.51109 4.48219 -0.217969
9 1 -1.1104 6.72134 3.14053 4.04672
8 1 -1.1104 6.71366 -2.36767 3.94556
15 1 -1.1104 6.74033 0.321372 3.9697
11 1 -1.1104 6.72344 0.410994 1.19454
31 2 2.2208 10.9352 1.84856 5.40676
32 1 -1.1104 12.3038 -2.34863 1.2218
33 1 -1.1104 12.3655 3.25388 1.19152
34 1 -1.1104 12.3656 -2.49504 4.04477
35 1 -1.1104 12.3232 3.17495 3.97637
36 1 -1.1104 12.2738 0.427013 1.22912
37 2 2.2208 10.948 -1.0301 2.59009
38 2 2.2208 10.9347 4.58169 2.54501
39 1 -1.1104 12.3564 0.226373 4.01653
40 1 -1.1104 9.51275 -2.346 1.15093
41 1 -1.1104 9.48126 3.22934 1.21671
42 2 2.2208 8.17712 1.80963 2.63155
43 1 -1.1104 9.46243 -2.39977 3.97261
44 1 -1.1104 9.52837 3.27194 4.01309
45 2 2.2208 8.1091 -1.05288 5.37435
46 2 2.2208 8.13079 4.59334 5.36298
47 1 -1.1104 9.52866 0.458116 1.23659
48 1 -1.1104 9.58796 0.421189 4.11018
369 2 2.2208 10.9421 1.90387 -0.175974
333 2 2.2208 13.642 15.926 11.0143
370 2 2.2208 8.09838 -0.963013 -0.195707
365 2 2.2208 2.48861 -1.02161 -0.214489
206 1 -1.1104 12.3007 3.25031 6.75952
372 2 2.2208 8.12338 4.65579 -0.192978
320 2 2.2208 7.99246 18.6082 8.18489
8995 2 2.2208 -0.258217 -3.78652 5.38828
331 2 2.2208 10.8176 18.5916 10.9879
111 1 -1.1104 6.58308 14.3575 6.74503
306 1 -1.1104 6.70239 17.2282 12.4326
54 2 2.2208 5.25836 7.35691 5.35326
55 2 2.2208 5.1976 12.9448 5.35693
56 1 -1.1104 1.07898 8.78611 1.23752
58 1 -1.1104 1.16493 8.64781 4.06397
60 1 -1.1104 1.08794 5.93787 1.24857
61 1 -1.1104 0.977561 11.5277 1.0588
66 2 2.2208 5.19716 10.2414 2.54496
67 1 -1.1104 1.09494 5.99634 4.1001
68 1 -1.1104 1.01696 11.5781 3.81561
71 1 -1.1104 3.82197 8.83649 1.22566
72 2 2.2208 2.48508 7.30794 2.64756
73 2 2.2208 2.3791 12.9357 2.57357
74 1 -1.1104 3.97458 8.7573 3.91857
75 2 2.2208 2.43144 10.085 5.5285
76 1 -1.1104 3.93359 5.9515 1.25027
77 1 -1.1104 3.74928 11.4967 1.27126
79 1 -1.1104 3.88173 5.90209 4.03576
80 1 -1.1104 3.80714 11.5581 4.01108
380 2 2.2208 2.46715 10.1349 -0.144443
382 2 2.2208 -0.345682 12.9707 -0.271118
381 2 2.2208 5.26171 13.0574 -0.273032
385 2 2.2208 8.00105 10.229 -0.270002
69 1 -1.1104 6.70656 5.97834 3.96618
63 1 -1.1104 6.71477 6.07079 1.20727
64 1 -1.1104 6.6052 11.6921 1.10439
59 1 -1.1104 6.67479 8.75197 4.06531
70 1 -1.1104 6.54714 11.6397 3.929
57 1 -1.1104 6.61876 8.98362 1.26488
84 2 2.2208 10.8962 7.43581 5.39372
85 2 2.2208 10.8547 12.9658 5.39152
86 1 -1.1104 12.2981 8.7362 1.15367
87 1 -1.1104 12.3162 8.87858 3.96569
88 1 -1.1104 12.383 5.99707 1.22235
89 1 -1.1104 12.2695 11.525 1.21783
91 2 2.2208 10.88 10.1621 2.46611
92 1 -1.1104 12.1748 5.98755 3.92184
93 1 -1.1104 12.2766 11.5343 4.02349
94 1 -1.1104 9.36061 8.77279 1.15565
95 2 2.2208 8.08066 7.43115 2.61581
96 2 2.2208 7.93956 13.0001 2.63289
97 1 -1.1104 9.50901 8.81889 4.00642
98 2 2.2208 8.04094 10.1583 5.35598
99 1 -1.1104 9.50469 5.97574 1.16997
100 1 -1.1104 9.38995 11.6253 1.12185
102 1 -1.1104 9.39117 6.07861 3.98664
103 1 -1.1104 9.44826 11.6533 3.89692
237 1 -1.1104 6.70508 6.12283 6.71384
316 2 2.2208 8.08948 21.4176 10.9601
135 2 2.2208 -0.354269 15.6617 2.54782
386 2 2.2208 10.8025 13.0451 -0.246023
374 2 2.2208 5.23188 18.5674 -0.198635
230 2 2.2208 13.6406 -1.0272 10.9477
106 2 2.2208 5.15453 18.604 5.46136
107 1 -1.1104 1.06369 14.3819 1.16811
109 1 -1.1104 0.951029 20.0955 1.08425
113 1 -1.1104 1.05945 14.3844 3.96532
114 1 -1.1104 1.04799 20.0584 3.90062
116 1 -1.1104 1.03165 17.1868 1.22187
119 2 2.2208 5.21686 15.776 2.49868
120 2 2.2208 5.23108 21.3085 2.61321
121 1 -1.1104 1.03255 17.14 4.05581
123 1 -1.1104 3.94698 14.3723 1.16585
125 1 -1.1104 3.78306 19.9694 1.20067
127 2 2.2208 2.45442 18.5583 2.55638
128 1 -1.1104 3.75892 14.3783 3.99844
129 1 -1.1104 3.74002 19.9523 4.03577
130 2 2.2208 2.42835 15.7492 5.34935
131 2 2.2208 2.41516 21.4575 5.37616
132 1 -1.1104 3.77776 17.1694 1.09852
134 1 -1.1104 3.79338 17.2155 3.93534
139 1 -1.1104 6.59583 19.986 4.15981
373 2 2.2208 2.42151 15.7664 -0.305895
375 2 2.2208 2.35905 21.405 -0.207575
140 1 -1.1104 6.68874 17.191 1.14036
110 1 -1.1104 6.66753 14.442 1.2001
133 1 -1.1104 3.81831 17.2336 6.70607
327 1 -1.1104 12.1594 20.0648 9.47127
138 1 -1.1104 6.6934 19.9594 1.21375
349 2 2.2208 8.08854 21.3417 -0.182166
115 1 -1.1104 6.57245 14.4587 4.035
122 1 -1.1104 6.60525 17.1902 3.90863
141 2 2.2208 10.7852 18.5848 5.31973
142 1 -1.1104 12.3087 14.3549 1.16246
144 1 -1.1104 12.2806 20.0903 1.20571
146 1 -1.1104 12.2488 14.4129 3.92093
147 1 -1.1104 12.2255 19.9525 4.0024
148 1 -1.1104 12.258 17.2277 1.29151
150 2 2.2208 10.8382 15.7732 2.56882
151 2 2.2208 10.8322 21.4146 2.54556
152 1 -1.1104 12.1765 17.1355 4.07338
153 1 -1.1104 9.50123 14.4615 1.23051
155 1 -1.1104 9.48862 19.9738 1.22717
157 2 2.2208 8.05293 18.5539 2.64571
158 1 -1.1104 9.3741 14.4006 3.98568
159 1 -1.1104 9.35302 19.9969 3.90461
160 2 2.2208 8.0436 15.8294 5.33442
161 2 2.2208 8.05893 21.454 5.4206
162 1 -1.1104 9.46357 17.1518 1.16809
164 1 -1.1104 9.45085 17.2457 3.99563
154 1 -1.1104 9.42676 14.5373 6.68753
347 2 2.2208 8.08751 15.8025 -0.157764
104 2 2.2208 13.6676 12.9528 2.54337
323 1 -1.1104 12.179 17.2501 9.57207
318 1 -1.1104 9.35936 19.9719 9.58255
317 2 2.2208 7.97991 15.827 10.9418
348 2 2.2208 10.8889 18.5872 -0.255419
231 2 2.2208 13.6268 21.4323 5.37579
166 1 -1.1104 1.11326 -2.48578 6.82026
81 2 2.2208 -0.354943 7.30989 5.44948
167 1 -1.1104 1.11947 3.13496 6.84649
173 1 -1.1104 3.98621 3.1792 6.8019
174 1 -1.1104 3.95846 0.504135 6.80235
172 1 -1.1104 3.90096 -2.37414 6.80223
170 1 -1.1104 1.13914 0.341827 6.79419
175 2 2.2208 5.17988 1.73124 11.0415
176 1 -1.1104 1.11005 -2.46248 12.3759
177 1 -1.1104 0.962906 3.15283 12.4182
180 1 -1.1104 1.17432 -2.47766 9.53243
181 1 -1.1104 1.12672 3.2602 9.61224
184 1 -1.1104 1.04581 0.290636 12.4387
186 2 2.2208 5.28971 -1.08387 8.15468
187 2 2.2208 5.28984 4.55166 8.18637
188 1 -1.1104 1.08654 0.403542 9.64834
190 1 -1.1104 3.94352 -2.41563 12.4785
191 1 -1.1104 3.80638 3.16624 12.3777
192 2 2.2208 2.54161 1.74572 8.26178
193 1 -1.1104 3.8751 -2.50001 9.59884
194 1 -1.1104 3.86318 3.14387 9.62042
195 2 2.2208 2.39789 -1.05 10.9639
196 2 2.2208 2.47345 4.64861 10.9975
197 1 -1.1104 3.79108 0.338056 12.4131
198 1 -1.1104 3.81019 0.311022 9.57106
25 2 2.2208 -0.29652 -0.97978 2.67681
204 2 2.2208 13.5777 15.8172 5.42373
168 1 -1.1104 6.64183 -2.43315 6.78962
185 1 -1.1104 6.72024 0.432029 12.3201
326 1 -1.1104 12.2944 17.2069 12.3504
201 2 2.2208 -0.398089 1.70735 11.0279
182 1 -1.1104 6.59815 -2.42753 9.59834
210 1 -1.1104 9.53145 0.372684 6.85172
208 1 -1.1104 9.42266 -2.3061 6.83376
169 1 -1.1104 6.83998 3.24346 6.79592
171 1 -1.1104 6.69649 0.300763 6.81008
189 1 -1.1104 6.70174 0.375859 9.58068
183 1 -1.1104 6.75804 3.27915 9.54206
207 1 -1.1104 12.3781 0.481706 6.84451
179 1 -1.1104 6.57088 3.20052 12.4021
178 1 -1.1104 6.67124 -2.3822 12.3998
209 1 -1.1104 9.63466 3.18852 6.84806
205 1 -1.1104 12.2794 -2.46351 6.85442
211 2 2.2208 10.8779 1.82861 10.9983
212 1 -1.1104 12.3373 -2.32438 12.4342
213 1 -1.1104 12.2207 3.1801 12.4548
214 1 -1.1104 12.2296 -2.29103 9.63846
215 1 -1.1104 12.3268 3.20075 9.52184
216 1 -1.1104 12.3037 0.433862 12.4789
217 2 2.2208 10.863 -0.934304 8.2587
218 2 2.2208 10.9543 4.60726 8.1921
219 1 -1.1104 12.2991 0.462102 9.65301
220 1 -1.1104 9.42683 -2.36954 12.443
221 1 -1.1104 9.43633 3.18537 12.3104
222 2 2.2208 8.10137 1.80832 8.13325
223 1 -1.1104 9.50755 -2.40102 9.60703
224 1 -1.1104 9.49002 3.25118 9.60417
225 2 2.2208 8.08538 -0.978879 10.9282
226 2 2.2208 8.10027 4.61876 10.9836
227 1 -1.1104 9.42481 0.390987 12.3612
228 1 -1.1104 9.49208 0.479944 9.57569
239 1 -1.1104 3.98211 5.87511 6.82518
78 1 -1.1104 3.79616 11.5009 6.76844
234 1 -1.1104 0.97501 8.8076 6.89559
62 1 -1.1104 1.0238 11.5845 6.79187
238 1 -1.1104 3.81293 8.70994 6.76977
236 1 -1.1104 1.11529 5.82989 6.79148
240 2 2.2208 5.30514 7.36862 10.9837
241 2 2.2208 5.25768 12.9686 11.0594
242 1 -1.1104 0.939972 8.87129 12.4142
244 1 -1.1104 0.965869 8.815 9.49492
246 1 -1.1104 0.999585 6.05643 12.421
247 1 -1.1104 1.10404 11.5892 12.3225
250 2 2.2208 5.26491 10.1844 8.2192
251 1 -1.1104 1.05538 5.98506 9.67232
252 1 -1.1104 0.947277 11.4615 9.60028
255 1 -1.1104 3.86588 8.6555 12.2777
256 2 2.2208 2.48357 7.36351 8.17896
257 2 2.2208 2.48327 12.9199 8.14243
258 1 -1.1104 3.82801 8.86719 9.56194
259 2 2.2208 2.44841 10.2034 11.0102
260 1 -1.1104 3.83171 5.92225 12.5877
261 1 -1.1104 3.90189 11.618 12.3345
262 1 -1.1104 3.92803 5.94581 9.65014
263 1 -1.1104 3.83451 11.6005 9.55933
254 1 -1.1104 6.62973 11.5629 9.60199
243 1 -1.1104 6.63447 8.77081 12.3796
30 2 2.2208 -0.477237 10.1458 8.23529
368 2 2.2208 -0.381114 1.8075 -0.194406
288 1 -1.1104 6.55897 20.1204 9.73283
143 1 -1.1104 12.1796 14.3256 6.8331
269 1 -1.1104 9.45516 6.01782 6.75187
101 1 -1.1104 9.42047 11.7162 6.75269
235 1 -1.1104 6.66672 8.82836 6.83355
90 1 -1.1104 12.3253 11.5204 6.74417
265 1 -1.1104 12.206 8.78555 6.80454
65 1 -1.1104 6.63429 11.5399 6.67007
248 1 -1.1104 6.5707 5.94452 12.4611
267 1 -1.1104 9.42711 8.90253 6.72156
249 1 -1.1104 6.6191 11.5753 12.3966
253 1 -1.1104 6.72816 6.08147 9.52034
266 1 -1.1104 12.2692 5.99942 6.8034
245 1 -1.1104 6.59005 8.74033 9.54664
264 1 -1.1104 9.5137 11.648 9.49221
268 1 -1.1104 9.51061 6.08792 9.56805
270 1 -1.1104 9.37851 11.5532 12.3746
271 1 -1.1104 9.52424 6.01542 12.4858
272 2 2.2208 7.99828 10.2449 10.9787
273 1 -1.1104 9.46269 8.87202 9.48623
274 2 2.2208 7.9816 12.9825 8.13032
275 2 2.2208 8.07271 7.39428 8.13002
276 2 2.2208 10.9136 7.40729 10.9878
277 2 2.2208 10.7939 13.0205 10.8826
278 1 -1.1104 12.2625 8.76789 12.4877
279 1 -1.1104 12.3423 8.78727 9.66421
280 1 -1.1104 12.3195 5.9266 12.2944
281 1 -1.1104 12.1799 11.6744 12.3006
282 2 2.2208 10.7889 10.2367 8.15017
283 1 -1.1104 12.2899 5.96593 9.56705
284 1 -1.1104 12.2014 11.6484 9.49747
285 1 -1.1104 9.42312 8.75702 12.2675
329 1 -1.1104 12.2967 19.9861 12.3041
126 1 -1.1104 3.81425 20.0452 6.84127
328 1 -1.1104 12.2431 14.4585 9.62254
302 1 -1.1104 1.02417 20.0201 6.70418
108 1 -1.1104 1.09526 14.4114 6.63698
117 1 -1.1104 1.01345 17.186 6.79696
124 1 -1.1104 3.90493 14.3113 6.77279
295 2 2.2208 5.23244 15.7497 8.10862
294 1 -1.1104 1.0493 14.3005 9.52476
298 1 -1.1104 1.0988 19.9771 12.2981
308 1 -1.1104 3.85779 17.184 12.3173
303 2 2.2208 2.41977 18.6331 8.15673
307 1 -1.1104 1.11097 17.2416 12.3049
309 2 2.2208 2.47981 21.3375 10.891
301 1 -1.1104 3.84142 20.0415 9.51516
300 2 2.2208 5.20133 18.6093 10.9788
310 2 2.2208 2.47098 15.7983 11.0194
299 1 -1.1104 1.07268 14.4496 12.3268
305 1 -1.1104 3.89406 14.3816 9.54539
304 1 -1.1104 3.9009 17.2152 9.63811
286 1 -1.1104 3.90202 20.0022 12.3815
287 1 -1.1104 3.83095 14.3911 12.3707
291 1 -1.1104 1.00841 20.0172 9.49119
292 1 -1.1104 1.05786 17.1755 9.51558
293 2 2.2208 5.33092 21.4026 8.23267
289 1 -1.1104 6.58137 17.2805 9.56235
296 1 -1.1104 6.65567 19.9536 12.4107
315 1 -1.1104 9.3969 17.1384 12.4734
324 2 2.2208 10.8463 21.4434 8.0854
156 1 -1.1104 9.44781 20.071 6.73371
325 2 2.2208 10.8289 15.7965 8.17653
145 1 -1.1104 12.292 19.964 6.67995
330 1 -1.1104 12.2991 14.3755 12.4264
297 1 -1.1104 6.61991 14.3267 12.4404
314 1 -1.1104 9.34776 17.2127 9.62216
149 1 -1.1104 12.2302 17.121 6.85873
112 1 -1.1104 6.59621 20.03 6.89125
322 1 -1.1104 9.47917 14.3818 12.2987
319 1 -1.1104 9.37236 14.4736 9.51997
118 1 -1.1104 6.65766 17.149 6.79717
163 1 -1.1104 9.43044 17.3138 6.77874
290 1 -1.1104 6.61745 14.4039 9.55738
8997 2 2.2208 10.8505 -3.77135 5.36453
165 2 2.2208 13.6495 18.6092 2.72
26 2 2.2208 -0.271106 1.82879 5.43181
332 2 2.2208 13.6011 18.613 8.20293
383 2 2.2208 -0.288448 7.43172 -0.222603
27 2 2.2208 -0.332359 4.59629 2.53989
52 2 2.2208 13.771 10.3203 10.9466
232 2 2.2208 13.7157 10.2247 5.3775
387 2 2.2208 13.7188 10.2544 -0.270431
53 2 2.2208 13.6537 13.0585 8.20333
8996 2 2.2208 8.13644 -3.73995 2.46969
8994 2 2.2208 5.29499 -3.82299 5.33813
9012 2 2.2208 5.29823 -3.73265 -0.181431
376 2 2.2208 13.5949 13.0412 13.7874
388 2 2.2208 5.30479 1.86367 16.5263
389 1 -1.1104 1.13196 -2.34391 17.9129
390 1 -1.1104 1.09962 3.12164 17.9212
393 1 -1.1104 1.25526 -2.31722 15.0785
395 1 -1.1104 1.09939 3.2363 15.2383
401 1 -1.1104 1.16968 0.406141 18.0035
403 2 2.2208 5.34647 -0.95007 19.3275
404 2 2.2208 5.31818 4.65323 19.367
405 1 -1.1104 1.13496 0.377992 15.2442
409 1 -1.1104 3.87643 -2.34338 18.0804
410 1 -1.1104 3.86742 3.24498 18.0267
411 2 2.2208 2.51796 1.79756 19.463
412 1 -1.1104 3.87187 -2.40176 15.2958
414 1 -1.1104 3.9165 3.22685 15.144
416 2 2.2208 2.55082 -0.99215 16.6124
417 2 2.2208 2.4886 4.54862 16.5814
418 1 -1.1104 3.9387 0.493148 17.8882
419 1 -1.1104 3.83375 0.504647 15.2211
339 2 2.2208 2.40514 1.84201 13.8617
341 2 2.2208 5.29774 4.54101 13.8154
391 1 -1.1104 6.70646 -2.30895 17.9198
340 2 2.2208 13.6316 1.77077 13.8534
406 1 -1.1104 1.20478 0.46608 20.8538
396 1 -1.1104 1.03055 3.19542 20.7649
400 1 -1.1104 6.57663 3.25005 20.7615
352 2 2.2208 5.30002 10.1859 13.794
456 2 2.2208 -0.393463 18.6812 16.5746
338 2 2.2208 5.2048 -0.9757 13.7849
350 2 2.2208 10.8529 4.57025 13.7827
397 1 -1.1104 6.60419 -2.35612 15.1355
392 1 -1.1104 6.72927 3.29357 17.9192
402 1 -1.1104 6.70476 0.546613 17.9861
399 1 -1.1104 6.71458 3.25799 15.1357
407 1 -1.1104 6.60103 0.459905 15.1782
431 2 2.2208 10.8852 1.84313 16.6257
432 1 -1.1104 12.3596 -2.38553 18.0542
433 1 -1.1104 12.3283 3.18514 18.0338
434 1 -1.1104 12.337 -2.4058 15.1883
436 1 -1.1104 12.2894 3.15041 15.2306
438 1 -1.1104 12.2651 0.430235 17.9243
439 2 2.2208 10.8513 -0.967985 19.4095
440 2 2.2208 10.9428 4.69123 19.2914
441 1 -1.1104 12.2661 0.345134 15.1689
443 1 -1.1104 9.5498 -2.37973 17.8784
444 1 -1.1104 9.50479 3.19804 18.0386
445 2 2.2208 8.02439 1.87223 19.4261
446 1 -1.1104 9.43055 -2.31691 15.2361
448 1 -1.1104 9.53951 3.28228 15.1993
450 2 2.2208 7.99986 -0.82554 16.5879
451 2 2.2208 8.11768 4.63472 16.5624
452 1 -1.1104 9.50092 0.376664 18.0627
453 1 -1.1104 9.43712 0.580519 15.2478
460 2 2.2208 13.6412 21.4941 16.5863
442 1 -1.1104 12.2883 0.419487 20.6929
408 1 -1.1104 6.72085 0.403907 20.7723
398 1 -1.1104 6.70306 -2.34315 20.6645
335 2 2.2208 -0.360062 21.3536 13.7562
346 2 2.2208 10.8658 -1.04703 13.8793
343 2 2.2208 8.10661 1.80617 13.7737
464 2 2.2208 5.20489 7.42364 16.5172
465 2 2.2208 5.30237 13.0525 16.4933
466 1 -1.1104 1.11182 8.76611 18.0188
468 1 -1.1104 0.9679 8.85258 15.1077
472 1 -1.1104 1.10878 5.91778 18.0013
473 1 -1.1104 1.11981 11.6399 17.9431
476 2 2.2208 5.29399 10.1409 19.3513
477 1 -1.1104 0.834109 5.9528 15.1715
479 1 -1.1104 1.0764 11.5855 15.1965
485 1 -1.1104 3.88111 8.78494 17.9214
486 2 2.2208 2.55561 7.3103 19.3229
487 2 2.2208 2.54256 12.9924 19.3175
488 1 -1.1104 3.79462 8.8546 15.1047
490 2 2.2208 2.4671 10.2078 16.5355
491 1 -1.1104 3.85935 6.00866 17.893
492 1 -1.1104 3.91777 11.5839 18.039
493 1 -1.1104 3.77791 6.0619 15.2679
495 1 -1.1104 3.9831 11.5332 15.2284
351 2 2.2208 2.39245 7.44082 13.8155
712 1 -1.1104 6.73876 14.3057 26.3873
475 1 -1.1104 6.57049 11.5734 17.943
470 1 -1.1104 6.59338 8.78855 15.1375
353 2 2.2208 2.55769 12.9554 13.7585
581 1 -1.1104 9.46889 20.0357 20.861
619 2 2.2208 13.6225 15.7947 16.5215
646 2 2.2208 -0.363742 15.7025 24.936
562 1 -1.1104 9.55984 20.0144 23.5732
356 2 2.2208 8.11368 13.0672 13.8043
355 2 2.2208 10.858 10.2205 13.6654
483 1 -1.1104 6.70708 11.6638 15.1858
354 2 2.2208 8.0105 7.36202 13.7541
474 1 -1.1104 6.61036 6.05413 17.973
481 1 -1.1104 6.64878 6.00669 15.1574
467 1 -1.1104 6.67079 8.81377 17.9677
500 2 2.2208 10.8306 7.40107 16.4351
501 2 2.2208 10.93 12.9937 16.5673
502 1 -1.1104 12.2345 8.74675 18.0017
503 1 -1.1104 12.284 8.79505 15.2252
505 1 -1.1104 12.2804 5.99928 17.8495
506 1 -1.1104 12.221 11.6839 18.0155
507 2 2.2208 10.8453 10.1431 19.3326
508 1 -1.1104 12.2352 5.95026 15.0552
510 1 -1.1104 12.2052 11.6969 15.1452
512 1 -1.1104 9.51955 8.83913 17.8769
513 2 2.2208 8.08231 7.43711 19.2905
514 2 2.2208 8.04798 12.9095 19.3529
515 1 -1.1104 9.49071 8.82448 15.0981
517 2 2.2208 8.02805 10.2586 16.5518
518 1 -1.1104 9.40787 6.06361 17.9185
519 1 -1.1104 9.39223 11.6075 17.9532
520 1 -1.1104 9.45073 6.03302 15.2012
522 1 -1.1104 9.44533 11.6508 15.1088
511 1 -1.1104 12.2544 11.6387 20.8597
482 1 -1.1104 6.7188 6.03698 20.7748
567 1 -1.1104 12.193 14.4209 20.7954
357 2 2.2208 2.4908 18.6412 13.8041
9089 2 2.2208 8.09414 -3.79123 25.027
358 2 2.2208 5.31577 21.3971 13.8641
421 2 2.2208 -0.298724 7.39698 22.1891
620 1 -1.1104 9.42282 17.1718 26.3106
527 2 2.2208 5.21569 18.6016 16.5626
528 1 -1.1104 1.04891 14.4379 17.9076
529 1 -1.1104 1.08945 20.1088 18.0513
532 1 -1.1104 1.13026 14.38 15.1563
534 1 -1.1104 1.08117 19.9915 15.2167
540 1 -1.1104 0.939542 17.2918 17.9339
542 2 2.2208 5.25049 15.8183 19.4161
543 2 2.2208 5.28068 21.4791 19.3334
544 1 -1.1104 1.10683 17.1861 15.1264
548 1 -1.1104 3.78033 14.3969 17.9304
549 1 -1.1104 3.89789 20.0367 17.9587
550 2 2.2208 2.44685 18.6154 19.3288
551 1 -1.1104 3.87247 14.3177 15.1426
553 1 -1.1104 3.91797 19.9602 15.198
555 2 2.2208 2.39527 15.8374 16.5671
556 2 2.2208 2.5545 21.4459 16.6188
557 1 -1.1104 3.87056 17.2598 17.8957
558 1 -1.1104 3.84015 17.0605 15.1863
359 2 2.2208 5.33784 15.8821 13.8037
546 1 -1.1104 6.72864 17.2966 15.195
536 1 -1.1104 6.77033 14.4298 15.2306
541 1 -1.1104 6.65331 17.1393 18.0132
524 1 -1.1104 12.2747 17.2138 23.6451
361 2 2.2208 10.9122 15.7499 13.7765
428 2 2.2208 13.7332 1.84467 19.349
531 1 -1.1104 6.7213 19.9955 17.9818
538 1 -1.1104 6.78831 20.137 15.2204
530 1 -1.1104 6.72611 14.3528 17.9787
563 2 2.2208 10.9282 18.6707 16.5627
564 1 -1.1104 12.207 14.3868 17.9921
565 1 -1.1104 12.2275 20.0536 17.8819
566 1 -1.1104 12.2795 14.3898 15.2518
568 1 -1.1104 12.3089 20.0758 15.1534
570 1 -1.1104 12.2691 17.238 17.9582
571 2 2.2208 10.8363 15.7959 19.2371
572 2 2.2208 10.8252 21.5514 19.3744
573 1 -1.1104 12.3266 17.2467 15.1012
575 1 -1.1104 9.5329 14.3337 17.8928
576 1 -1.1104 9.49217 20.212 18.0898
577 2 2.2208 8.03312 18.6186 19.3251
578 1 -1.1104 9.53508 14.4638 15.1737
580 1 -1.1104 9.53264 19.9278 15.3147
582 2 2.2208 8.09268 15.8085 16.5485
583 2 2.2208 8.08436 21.4582 16.5361
584 1 -1.1104 9.39271 17.3623 17.866
585 1 -1.1104 9.57256 17.0988 15.1403
362 2 2.2208 8.16867 18.6342 13.8544
560 1 -1.1104 12.3103 17.2733 26.3794
590 1 -1.1104 9.54067 20.0047 26.3129
461 2 2.2208 13.6827 21.4102 22.1929
525 2 2.2208 10.9177 15.832 24.9801
569 1 -1.1104 12.2695 20.0094 20.6032
415 1 -1.1104 3.87002 3.10683 20.8446
413 1 -1.1104 3.95753 -2.45022 20.8422
394 1 -1.1104 1.00396 -2.45463 20.7587
420 1 -1.1104 3.93233 0.340727 20.7401
591 2 2.2208 5.31406 1.75835 22.2271
592 1 -1.1104 1.1019 -2.37842 23.5015
593 1 -1.1104 1.20286 3.12697 23.5498
596 1 -1.1104 1.10643 -2.41347 26.368
597 1 -1.1104 1.04936 3.21698 26.3836
600 1 -1.1104 1.13065 0.392488 23.5659
602 2 2.2208 5.28242 -1.00477 25.0213
603 2 2.2208 5.29983 4.62678 24.9931
604 1 -1.1104 1.04601 0.430149 26.3977
606 1 -1.1104 4.0033 -2.44205 23.5847
607 1 -1.1104 4.00815 3.20032 23.5742
608 2 2.2208 2.47556 1.71729 24.9745
609 1 -1.1104 3.90381 -2.33272 26.3705
610 1 -1.1104 4.0264 3.12221 26.3477
611 2 2.2208 2.53367 -1.07219 22.1379
612 2 2.2208 2.4971 4.55548 22.1204
613 1 -1.1104 3.89031 0.387451 23.5126
614 1 -1.1104 3.97836 0.39278 26.3046
601 1 -1.1104 6.70632 0.432604 23.614
598 1 -1.1104 6.6837 -2.44424 26.3209
618 2 2.2208 13.6317 18.6891 19.3428
422 2 2.2208 13.6807 10.2312 22.1981
454 1 -1.1104 9.46212 0.411303 20.8563
599 1 -1.1104 6.78352 3.20907 26.3422
449 1 -1.1104 9.43763 3.21957 20.7713
605 1 -1.1104 6.86523 0.449694 26.4485
594 1 -1.1104 6.73603 -2.38453 23.485
435 1 -1.1104 12.2704 -2.39426 20.8284
447 1 -1.1104 9.52067 -2.3872 20.7518
595 1 -1.1104 6.68375 3.22691 23.6122
437 1 -1.1104 12.1767 3.37547 20.7559
627 2 2.2208 10.891 1.79439 22.1931
628 1 -1.1104 12.2599 -2.46284 23.5457
629 1 -1.1104 12.2659 3.24785 23.5082
630 1 -1.1104 12.3213 -2.36609 26.3485
631 1 -1.1104 12.3773 3.22214 26.3817
632 1 -1.1104 12.3685 0.542806 23.5492
633 2 2.2208 10.9952 -0.927038 24.9384
634 2 2.2208 10.9197 4.64089 24.9753
635 1 -1.1104 12.2336 0.41353 26.3635
636 1 -1.1104 9.42027 -2.39132 23.5927
637 1 -1.1104 9.46929 3.13976 23.6051
638 2 2.2208 8.20135 1.77442 25.0263
639 1 -1.1104 9.52741 -2.321 26.3623
640 1 -1.1104 9.57421 3.3367 26.4485
641 2 2.2208 8.11686 -0.982104 22.2091
642 2 2.2208 8.07063 4.59032 22.1212
643 1 -1.1104 9.57469 0.38759 23.5078
644 1 -1.1104 9.61206 0.565926 26.434
714 1 -1.1104 6.66152 17.1648 26.3086
499 1 -1.1104 12.252 20.0103 26.2753
478 1 -1.1104 1.08378 5.92972 20.8072
480 1 -1.1104 1.04595 11.6343 20.6854
497 1 -1.1104 12.2391 20.0324 23.4633
469 1 -1.1104 1.06234 8.79682 20.8696
489 1 -1.1104 3.82599 8.7549 20.718
588 1 -1.1104 6.62685 19.9764 26.488
494 1 -1.1104 3.84562 5.90345 20.6813
496 1 -1.1104 3.87041 11.6244 20.7477
656 2 2.2208 5.16825 7.33841 22.2008
657 2 2.2208 5.19685 12.9975 22.1404
658 1 -1.1104 1.09791 8.78055 23.6842
660 1 -1.1104 1.12765 8.70703 26.4022
662 1 -1.1104 1.04735 5.9989 23.6058
663 1 -1.1104 1.13722 11.6397 23.572
666 2 2.2208 5.22652 10.0875 24.9447
667 1 -1.1104 1.05907 5.97028 26.3461
668 1 -1.1104 1.03439 11.5895 26.2542
671 1 -1.1104 3.90835 8.74408 23.5982
672 2 2.2208 2.43977 7.38533 24.9784
673 2 2.2208 2.45506 12.9805 24.9175
674 1 -1.1104 3.90108 8.74309 26.4875
675 2 2.2208 2.45815 10.1919 22.1712
676 1 -1.1104 3.83868 5.95301 23.4764
677 1 -1.1104 3.88912 11.5308 23.5311
678 1 -1.1104 3.88437 5.88528 26.2957
679 1 -1.1104 3.86248 11.6439 26.4236
484 1 -1.1104 6.66608 11.6799 20.8161
661 1 -1.1104 6.61593 8.80166 26.3871
665 1 -1.1104 6.60553 11.5608 23.4753
336 2 2.2208 13.6878 7.3973 13.8054
664 1 -1.1104 6.70954 6.01731 23.6826
504 1 -1.1104 12.259 8.84389 20.7563
509 1 -1.1104 12.2621 6.07091 20.702
669 1 -1.1104 6.68393 6.05188 26.4401
471 1 -1.1104 6.64308 8.77616 20.8293
659 1 -1.1104 6.61816 8.76699 23.6783
516 1 -1.1104 9.39537 8.84284 20.6366
523 1 -1.1104 9.48735 11.537 20.8063
670 1 -1.1104 6.56044 11.6334 26.2783
521 1 -1.1104 9.48879 6.02864 20.6168
687 1 -1.1104 9.41304 11.6268 26.3493
688 1 -1.1104 9.45674 6.05704 26.337
689 1 -1.1104 9.41592 11.6429 23.5561
690 1 -1.1104 9.45642 5.93125 23.4149
691 2 2.2208 8.01822 10.1988 22.1526
692 1 -1.1104 9.43351 8.92564 26.3608
693 2 2.2208 8.00012 12.9954 24.8853
694 2 2.2208 8.10161 7.44603 24.9422
695 2 2.2208 10.883 7.45601 22.0524
696 2 2.2208 10.8252 12.9756 22.2091
697 1 -1.1104 12.2457 8.84048 23.5525
698 1 -1.1104 12.2197 8.79383 26.3355
699 1 -1.1104 12.3173 6.10439 23.5133
700 1 -1.1104 12.2752 11.658 23.6709
701 2 2.2208 10.8521 10.2446 24.9298
702 1 -1.1104 12.1627 5.98719 26.3592
703 1 -1.1104 12.2749 11.5382 26.3146
704 1 -1.1104 9.49054 8.81886 23.5401
718 1 -1.1104 6.69617 19.988 23.5298
537 1 -1.1104 6.64839 14.3666 20.7269
554 1 -1.1104 3.84286 19.9904 20.6804
615 2 2.2208 8.07399 15.8323 22.1027
709 1 -1.1104 6.59777 14.3827 23.5435
559 1 -1.1104 3.8802 17.2279 20.7574
545 1 -1.1104 1.01944 17.1941 20.7171
552 1 -1.1104 3.86608 14.4167 20.8352
533 1 -1.1104 1.04923 14.4458 20.5889
535 1 -1.1104 0.945175 20.0085 20.663
719 2 2.2208 5.19958 21.3387 24.9001
717 1 -1.1104 1.00567 14.2508 26.3351
720 2 2.2208 5.29201 15.8209 24.9502
647 2 2.2208 2.44787 15.7774 22.1852
649 2 2.2208 2.43093 21.3145 22.0616
652 1 -1.1104 4.04515 17.2621 23.5547
655 1 -1.1104 1.12728 17.0791 23.5684
681 1 -1.1104 3.92609 14.4085 26.2869
682 1 -1.1104 3.80334 17.1823 26.2499
683 2 2.2208 2.49158 18.5834 24.8959
686 1 -1.1104 3.90596 20.0066 26.3386
705 2 2.2208 5.35677 18.5762 22.1544
706 1 -1.1104 0.947918 14.3359 23.4701
707 1 -1.1104 1.11205 19.9349 23.5142
711 1 -1.1104 3.85593 19.9926 23.5109
713 1 -1.1104 3.77303 14.4024 23.5928
715 1 -1.1104 1.00177 19.9796 26.2406
716 1 -1.1104 1.03719 17.1156 26.3927
680 1 -1.1104 6.79386 17.1802 23.4865
561 1 -1.1104 9.37396 14.421 23.5465
616 2 2.2208 8.07134 21.3769 22.2458
579 1 -1.1104 9.4701 14.3152 20.6942
463 1 -1.1104 12.2201 14.4588 23.5563
574 1 -1.1104 12.2026 17.2317 20.8215
586 1 -1.1104 9.48708 17.1505 20.6719
539 1 -1.1104 6.74899 19.9845 20.7442
587 2 2.2208 8.11296 18.6406 25.0274
498 1 -1.1104 12.2984 14.3936 26.4858
617 1 -1.1104 9.50618 17.1314 23.464
462 2 2.2208 10.8141 18.703 22.1508
589 1 -1.1104 9.40686 14.4383 26.3418
526 2 2.2208 10.9132 21.4517 24.9227
547 1 -1.1104 6.62862 17.2418 20.7049
430 2 2.2208 13.6363 15.8313 22.1613
363 2 2.2208 13.6663 18.6892 13.763
685 2 2.2208 -0.381386 12.9716 22.0236
625 2 2.2208 -0.286228 1.80138 22.1845
337 2 2.2208 -0.373102 4.56435 13.7905
429 2 2.2208 13.6776 4.63373 16.5214
710 2 2.2208 13.6612 7.47614 24.9633
648 2 2.2208 -0.394823 13.0036 16.5244
9090 2 2.2208 10.8569 -3.89045 22.1846
9158 2 2.2208 2.57071 -3.91752 19.4279
360 2 2.2208 10.9465 21.3889 13.6823
9016 2 2.2208 8.07798 -3.74293 13.8224
721 2 2.2208 5.23165 24.0807 5.36832
722 2 2.2208 5.29982 29.8273 5.35953
723 1 -1.1104 1.03372 25.7125 1.07522
724 1 -1.1104 1.00964 25.6544 3.94333
725 1 -1.1104 1.12685 22.8751 1.14668
726 1 -1.1104 1.0428 28.38 1.15053
727 2 2.2208 5.2207 26.9881 2.59996
728 1 -1.1104 1.0222 22.8276 4.02842
729 1 -1.1104 1.08682 28.3618 3.98075
730 1 -1.1104 3.72443 25.5144 1.10105
731 2 2.2208 2.43423 24.1841 2.52633
732 2 2.2208 2.52272 29.7493 2.56296
733 1 -1.1104 3.84549 25.6033 3.91337
734 2 2.2208 2.42325 27.0267 5.37446
735 1 -1.1104 3.80748 22.6823 1.23845
736 1 -1.1104 3.95545 28.2743 1.18932
737 1 -1.1104 3.88029 22.74 4.00432
738 1 -1.1104 3.9018 28.3585 3.9478
747 1 -1.1104 6.69722 28.422 4.00742
744 1 -1.1104 6.58795 22.7785 1.11434
746 1 -1.1104 6.72489 22.645 3.86206
870 1 -1.1104 3.90292 28.4414 6.74383
1072 2 2.2208 5.30683 29.8423 -0.198813
1611 1 -1.1104 1.07116 47.9727 12.3572
1068 2 2.2208 5.27647 24.1036 -0.281863
1071 2 2.2208 2.41959 26.9726 -0.267176
1004 2 2.2208 -0.26642 43.9251 8.15274
1028 2 2.2208 10.7308 46.6284 10.9156
1008 1 -1.1104 9.24776 39.4443 9.20161
745 1 -1.1104 6.6454 28.5686 1.21137
742 1 -1.1104 6.67614 25.7383 1.14351
743 1 -1.1104 6.58996 25.5229 3.97365
748 2 2.2208 10.8803 24.2151 5.31968
749 2 2.2208 10.952 29.8457 5.45626
750 1 -1.1104 12.2562 25.6795 1.16076
751 1 -1.1104 12.2752 25.6098 3.9633
752 1 -1.1104 12.2839 22.7312 1.10014
753 1 -1.1104 12.1467 28.4926 1.34234
754 2 2.2208 10.8849 27.0425 2.50976
755 1 -1.1104 12.205 22.7623 3.89259
756 1 -1.1104 12.3616 28.3847 3.97302
757 1 -1.1104 9.53508 25.6678 1.06155
758 2 2.2208 8.08771 24.2456 2.51985
759 2 2.2208 8.15496 29.8623 2.51371
760 1 -1.1104 9.51442 25.5938 3.84617
761 2 2.2208 8.03413 26.9685 5.29957
762 1 -1.1104 9.48335 22.7874 1.17529
763 1 -1.1104 9.4297 28.3252 1.13638
764 1 -1.1104 9.47778 22.8125 3.89199
765 1 -1.1104 9.51786 28.4914 4.03622
1075 2 2.2208 8.01352 27.0331 -0.221995
1077 2 2.2208 10.8958 29.8091 -0.135965
1074 2 2.2208 10.929 24.1974 -0.245261
1019 1 -1.1104 12.3736 44.8361 12.4582
1023 1 -1.1104 9.38456 42.4483 6.7741
1022 1 -1.1104 12.3257 45.264 6.71029
769 2 2.2208 5.25624 35.4206 5.32082
770 1 -1.1104 1.04566 31.2268 1.13597
771 1 -1.1104 1.14567 36.7961 1.1115
773 1 -1.1104 1.19361 31.1566 3.90498
774 1 -1.1104 1.02445 36.7726 3.91564
776 1 -1.1104 1.04719 33.9645 1.09756
777 2 2.2208 5.21656 32.5949 2.58594
778 2 2.2208 5.30805 38.2498 2.62414
779 1 -1.1104 1.10593 34.0424 3.9568
781 1 -1.1104 3.84274 31.1352 1.15814
782 1 -1.1104 3.8759 36.8056 1.18874
783 2 2.2208 2.44389 35.4272 2.48997
784 1 -1.1104 3.91798 31.1792 3.94703
785 1 -1.1104 3.86801 36.8843 3.91935
786 2 2.2208 2.48068 32.7052 5.35341
787 2 2.2208 2.49532 38.2099 5.28849
788 1 -1.1104 3.94105 34.0084 1.02585
789 1 -1.1104 3.83564 34.0738 3.88171
793 1 -1.1104 6.65769 31.1689 1.14146
795 1 -1.1104 6.63738 34.0437 1.22182
780 1 -1.1104 6.63627 34.0495 4.0007
921 1 -1.1104 6.71165 31.1651 6.74289
1079 2 2.2208 2.55941 32.5745 -0.283083
1078 2 2.2208 2.43591 38.3231 -0.220478
775 1 -1.1104 6.68759 36.8497 3.90117
1081 2 2.2208 5.23445 35.4473 -0.243732
794 1 -1.1104 6.61335 31.1612 3.90726
772 1 -1.1104 6.60545 36.8524 1.18896
796 2 2.2208 10.9543 35.4517 5.40002
797 1 -1.1104 12.3294 31.2458 1.18701
798 1 -1.1104 12.3063 36.8693 1.03566
799 1 -1.1104 12.3904 31.2488 3.98346
800 1 -1.1104 12.2221 36.7577 3.80255
801 1 -1.1104 12.1894 34.0314 1.05174
802 2 2.2208 10.866 32.6421 2.57208
803 2 2.2208 10.9389 38.2366 2.56735
804 1 -1.1104 12.2621 33.9902 3.91321
805 1 -1.1104 9.47959 31.2285 1.13473
806 1 -1.1104 9.48459 36.9436 1.15451
807 2 2.2208 8.06214 35.5108 2.55843
808 1 -1.1104 9.53126 31.231 3.94643
809 1 -1.1104 9.4969 36.7621 3.9913
810 2 2.2208 8.08249 32.6495 5.38725
811 2 2.2208 8.12586 38.263 5.40292
812 1 -1.1104 9.41097 34.0989 1.14451
813 1 -1.1104 9.46166 34.0584 3.92569
1084 2 2.2208 8.04368 38.2575 -0.239248
1086 2 2.2208 10.8708 35.5049 -0.308005
954 1 -1.1104 12.2153 36.9069 6.73343
1085 2 2.2208 8.04788 32.6276 -0.203028