ITEM: TIMESTEP
90000
ITEM: NUMBER OF ATOMS
17670
ITEM: BOX BOUNDS pp pp pp
-3.2107429452736114e-01 2.7661074294527140e+01
-3.8124342204694552e+00 3.3189243422049208e+02
-3.1123589977497612e-01 2.7651235899774601e+01
ITEM: ATOMS id type q x y z
1 2 2.2208 5.22126 1.76675 5.17349
2 1 -1.1104 1.01036 -2.39025 0.826797
3 1 -1.1104 0.995708 3.18307 0.988113
6 1 -1.1104 1.0933 -2.30435 3.682
7 1 -1.1104 1.10471 3.21719 3.87001
10 1 -1.1104 1.00216 0.394123 1.01123
12 2 2.2208 5.19626 -1.01338 2.40695
13 2 2.2208 5.26197 4.56216 2.3839
14 1 -1.1104 1.04744 0.443959 3.77384
16 1 -1.1104 3.75317 -2.38271 0.941887
17 1 -1.1104 3.76161 3.16644 1.0012
18 2 2.2208 2.42182 1.8231 2.35171
19 1 -1.1104 3.85247 -2.5192 3.77106
20 1 -1.1104 3.96949 3.21186 3.80518
21 2 2.2208 2.47429 -1.05189 5.10122
22 2 2.2208 2.38611 4.60985 5.16563
23 1 -1.1104 3.90537 0.29353 0.90572
24 1 -1.1104 3.87329 0.395712 3.76988
167 1 -1.1104 1.03434 3.17321 6.64527
174 1 -1.1104 3.91314 0.301574 6.56232
166 1 -1.1104 1.14396 -2.51979 6.57436
172 1 -1.1104 3.92746 -2.44852 6.53508
173 1 -1.1104 3.90977 3.16303 6.67453
4 1 -1.1104 6.61404 -2.50694 1.00922
171 1 -1.1104 6.63501 0.329667 6.55703
169 1 -1.1104 6.72328 2.98987 6.57591
11 1 -1.1104 6.64976 0.309299 0.880178
168 1 -1.1104 6.59683 -2.41636 6.55508
5 1 -1.1104 6.57199 3.17145 0.883042
15 1 -1.1104 6.712 0.244467 3.75574
8 1 -1.1104 6.59362 -2.53151 3.84925
341 2 2.2208 5.21649 4.64937 13.4718
9001 2 2.2208 -0.340028 -3.78147 10.7387
9016 2 2.2208 8.05842 -3.77586 13.5864
332 2 2.2208 13.7025 18.5091 8.0845
363 2 2.2208 13.6388 18.5679 13.5956
9 1 -1.1104 6.74194 3.07334 3.73777
31 2 2.2208 10.8195 1.76714 5.20281
32 1 -1.1104 12.1917 -2.49148 1.06682
33 1 -1.1104 12.2961 3.20128 1.05089
34 1 -1.1104 12.3443 -2.39844 3.84613
35 1 -1.1104 12.2321 3.08396 3.75717
36 1 -1.1104 12.301 0.377643 0.987203
37 2 2.2208 10.8403 -0.998084 2.39457
38 2 2.2208 10.8157 4.55136 2.34191
39 1 -1.1104 12.2649 0.372831 3.71174
40 1 -1.1104 9.40512 -2.39558 0.972507
41 1 -1.1104 9.41826 3.17073 0.983465
42 2 2.2208 8.02363 1.71231 2.41577
43 1 -1.1104 9.54714 -2.41659 3.81536
44 1 -1.1104 9.40832 3.21854 3.80518
45 2 2.2208 8.0102 -1.03758 5.24894
46 2 2.2208 8.03714 4.44392 5.16777
47 1 -1.1104 9.55959 0.363291 0.990517
48 1 -1.1104 9.37611 0.331337 3.80995
210 1 -1.1104 9.48217 0.407357 6.62376
208 1 -1.1104 9.41294 -2.30292 6.66035
209 1 -1.1104 9.51335 3.17277 6.61266
8997 2 2.2208 10.9028 -3.74838 5.26369
233 2 2.2208 13.6531 4.58189 5.19104
9002 2 2.2208 7.98446 -3.8138 7.96542
207 1 -1.1104 12.2177 0.337486 6.6473
206 1 -1.1104 12.2873 3.09241 6.61363
50 2 2.2208 13.6343 -0.96157 5.26925
54 2 2.2208 5.24907 7.38781 5.16181
55 2 2.2208 5.18848 12.8923 5.24671
56 1 -1.1104 0.996264 8.79804 0.932424
58 1 -1.1104 0.994097 8.76071 3.76349
60 1 -1.1104 1.02221 5.94234 0.955475
61 1 -1.1104 1.04269 11.5799 1.11251
66 2 2.2208 5.28905 10.1804 2.50222
67 1 -1.1104 1.1459 6.00611 3.77438
68 1 -1.1104 1.08301 11.5437 3.73866
71 1 -1.1104 3.84942 8.80788 0.990694
72 2 2.2208 2.46493 7.3893 2.33226
73 2 2.2208 2.52936 12.9388 2.42247
74 1 -1.1104 3.85333 8.74288 3.71657
75 2 2.2208 2.41554 10.2063 5.09299
76 1 -1.1104 3.82264 5.99942 1.02668
77 1 -1.1104 3.91242 11.4988 1.02941
79 1 -1.1104 3.8544 6.02425 3.75005
80 1 -1.1104 3.88652 11.5432 3.74082
59 1 -1.1104 6.70834 8.80272 3.81898
234 1 -1.1104 1.06831 8.78082 6.58276
238 1 -1.1104 3.90854 8.88311 6.44852
62 1 -1.1104 0.987513 11.5673 6.55902
78 1 -1.1104 3.72793 11.6067 6.62735
63 1 -1.1104 6.6629 5.93812 0.952804
69 1 -1.1104 6.59035 5.8946 3.77595
70 1 -1.1104 6.66703 11.6933 3.75495
57 1 -1.1104 6.625 8.7047 1.06965
64 1 -1.1104 6.5587 11.5854 0.929771
235 1 -1.1104 6.58357 8.67831 6.68115
84 2 2.2208 10.8021 7.34625 5.14007
85 2 2.2208 10.8575 12.9444 5.22571
86 1 -1.1104 12.2764 8.76926 1.0997
87 1 -1.1104 12.2448 8.80304 3.8328
88 1 -1.1104 12.1914 5.99122 1.03834
89 1 -1.1104 12.2837 11.6108 1.14344
91 2 2.2208 10.8045 10.1726 2.41242
92 1 -1.1104 12.2983 5.9671 3.89727
93 1 -1.1104 12.2562 11.5284 3.94178
94 1 -1.1104 9.46757 8.76628 0.972249
95 2 2.2208 8.06136 7.32632 2.3872
96 2 2.2208 8.07088 12.9295 2.28852
97 1 -1.1104 9.46778 8.73723 3.79062
98 2 2.2208 8.07062 10.1078 5.25673
99 1 -1.1104 9.42491 5.97111 0.986058
100 1 -1.1104 9.43265 11.4961 0.981704
102 1 -1.1104 9.4494 5.97134 3.74191
103 1 -1.1104 9.40041 11.4591 3.71619
266 1 -1.1104 12.205 5.86497 6.74915
90 1 -1.1104 12.2743 11.3741 6.60599
232 2 2.2208 13.628 10.0579 5.24583
267 1 -1.1104 9.33377 8.74714 6.65947
9020 2 2.2208 2.48376 -3.87676 13.5436
104 2 2.2208 13.6313 12.9374 2.43436
8996 2 2.2208 8.00986 -3.80981 2.40956
333 2 2.2208 13.6079 15.6989 10.8545
106 2 2.2208 5.22329 18.5299 5.2026
107 1 -1.1104 1.05129 14.3996 1.06784
109 1 -1.1104 1.07163 19.9012 0.974055
113 1 -1.1104 1.10063 14.4241 3.89492
114 1 -1.1104 1.00531 19.9625 3.72044
116 1 -1.1104 0.967222 17.1363 1.1185
119 2 2.2208 5.28431 15.8018 2.37638
120 2 2.2208 5.27493 21.2081 2.3872
121 1 -1.1104 1.10668 17.2136 3.76457
123 1 -1.1104 3.83525 14.4113 0.871451
125 1 -1.1104 3.89076 19.8722 1.088
127 2 2.2208 2.41871 18.5814 2.42466
128 1 -1.1104 3.82208 14.4401 3.70838
129 1 -1.1104 3.79085 19.9054 3.85153
130 2 2.2208 2.45876 15.8681 5.22445
131 2 2.2208 2.45156 21.4125 5.26718
132 1 -1.1104 3.95634 17.2243 0.984655
134 1 -1.1104 3.87902 17.2296 3.85708
302 1 -1.1104 0.959721 19.9349 6.54517
133 1 -1.1104 3.91137 17.1728 6.60436
139 1 -1.1104 6.60323 19.962 3.89117
115 1 -1.1104 6.58841 14.4399 3.82404
138 1 -1.1104 6.67191 19.7965 0.988659
122 1 -1.1104 6.70462 17.1682 3.7675
108 1 -1.1104 0.986569 14.3968 6.59698
140 1 -1.1104 6.67983 17.1432 0.907706
112 1 -1.1104 6.5907 19.9316 6.66908
117 1 -1.1104 1.0953 17.1518 6.62224
8999 2 2.2208 2.46789 -3.81653 7.97379
110 1 -1.1104 6.64545 14.377 1.01581
367 2 2.2208 -0.362906 10.1362 13.5571
311 2 2.2208 -0.428648 21.3095 8.0683
149 1 -1.1104 12.2537 17.2945 6.68241
141 2 2.2208 10.8368 18.6443 5.2429
142 1 -1.1104 12.2938 14.367 0.987531
144 1 -1.1104 12.2514 19.9199 1.11744
146 1 -1.1104 12.1394 14.423 3.82873
147 1 -1.1104 12.3133 19.9971 3.82162
148 1 -1.1104 12.2174 17.1196 1.02363
150 2 2.2208 10.822 15.8151 2.34484
151 2 2.2208 10.8707 21.4235 2.54825
152 1 -1.1104 12.1894 17.1237 3.84753
153 1 -1.1104 9.44957 14.33 0.997401
155 1 -1.1104 9.48194 19.9794 1.04361
157 2 2.2208 8.07802 18.539 2.38792
158 1 -1.1104 9.4226 14.329 3.69694
159 1 -1.1104 9.38084 20.0888 3.88583
160 2 2.2208 8.0771 15.7582 5.15425
161 2 2.2208 8.00023 21.3686 5.24541
162 1 -1.1104 9.43134 17.1165 1.0255
164 1 -1.1104 9.45939 17.2001 3.84172
163 1 -1.1104 9.49348 17.1139 6.60589
145 1 -1.1104 12.1756 20.0203 6.63345
154 1 -1.1104 9.48241 14.2782 6.62691
170 1 -1.1104 1.09432 0.27171 6.5116
135 2 2.2208 -0.320833 15.7454 2.47607
338 2 2.2208 5.18658 -0.993702 13.5358
175 2 2.2208 5.30074 1.83087 10.714
176 1 -1.1104 1.08956 -2.37648 12.0635
177 1 -1.1104 1.02034 3.08213 12.2092
180 1 -1.1104 1.12808 -2.38108 9.3732
181 1 -1.1104 1.06485 3.16027 9.33644
184 1 -1.1104 1.07294 0.340934 12.0975
186 2 2.2208 5.29795 -0.953088 7.96359
187 2 2.2208 5.24998 4.58256 8.00407
188 1 -1.1104 1.10083 0.450379 9.42438
190 1 -1.1104 3.94367 -2.36898 12.1199
191 1 -1.1104 3.82734 3.24508 12.1372
192 2 2.2208 2.44961 1.67978 8.01177
193 1 -1.1104 3.90052 -2.47431 9.29112
194 1 -1.1104 3.87906 3.21522 9.39431
195 2 2.2208 2.48324 -1.01582 10.6872
196 2 2.2208 2.34726 4.4956 10.795
197 1 -1.1104 3.84001 0.424323 12.1203
198 1 -1.1104 3.85501 0.344372 9.34562
178 1 -1.1104 6.68155 -2.37265 12.2325
182 1 -1.1104 6.58607 -2.43445 9.39542
183 1 -1.1104 6.72113 3.18553 9.38111
165 2 2.2208 13.6527 18.5309 2.42766
339 2 2.2208 2.38852 1.71962 13.4651
329 1 -1.1104 12.1827 19.8338 12.276
343 2 2.2208 8.05634 1.80791 13.6118
205 1 -1.1104 12.1904 -2.44143 6.60841
179 1 -1.1104 6.62825 3.19074 12.1786
185 1 -1.1104 6.69255 0.400858 12.2418
189 1 -1.1104 6.66593 0.35988 9.33583
230 2 2.2208 13.6072 -0.972497 10.8053
105 2 2.2208 13.6309 7.35724 2.37126
229 2 2.2208 13.727 1.76224 8.04331
203 2 2.2208 13.6748 4.51801 10.8714
211 2 2.2208 10.9416 1.78149 10.7458
212 1 -1.1104 12.3373 -2.34216 12.1823
213 1 -1.1104 12.275 3.18531 12.2701
214 1 -1.1104 12.1388 -2.38943 9.34748
215 1 -1.1104 12.2354 3.20514 9.44704
216 1 -1.1104 12.3127 0.453618 12.2423
217 2 2.2208 10.812 -1.02545 8.07965
218 2 2.2208 10.8431 4.5843 8.02878
219 1 -1.1104 12.2407 0.39512 9.42668
220 1 -1.1104 9.58296 -2.43665 12.1952
221 1 -1.1104 9.38246 3.16989 12.1559
222 2 2.2208 8.17121 1.82146 7.99212
223 1 -1.1104 9.34702 -2.42413 9.42801
224 1 -1.1104 9.49177 3.18557 9.40548
225 2 2.2208 8.04702 -1.07601 10.8477
226 2 2.2208 8.03899 4.54403 10.8054
227 1 -1.1104 9.40544 0.303372 12.1759
228 1 -1.1104 9.48577 0.445625 9.45595
346 2 2.2208 10.8496 -0.953014 13.6382
231 2 2.2208 13.7234 21.3409 5.18131
356 2 2.2208 8.04847 12.9004 13.5865
350 2 2.2208 10.8569 4.5917 13.6621
236 1 -1.1104 1.09776 5.98 6.5073
239 1 -1.1104 3.94054 5.88162 6.54609
65 1 -1.1104 6.60533 11.4598 6.54909
237 1 -1.1104 6.71741 5.86988 6.58858
354 2 2.2208 7.9728 7.38165 13.5102
323 1 -1.1104 12.2521 17.0972 9.43921
240 2 2.2208 5.20202 7.3591 10.7379
241 2 2.2208 5.18126 12.9493 10.6677
242 1 -1.1104 1.03088 8.7377 12.2063
244 1 -1.1104 1.03103 8.77316 9.41005
246 1 -1.1104 1.01246 5.90371 12.2583
247 1 -1.1104 1.05808 11.4963 12.2001
250 2 2.2208 5.15647 10.2008 7.87894
251 1 -1.1104 1.07456 5.98602 9.43335
252 1 -1.1104 0.939402 11.5238 9.4389
255 1 -1.1104 3.79715 8.84045 12.195
256 2 2.2208 2.4722 7.40892 7.97158
257 2 2.2208 2.34718 13.0109 7.983
258 1 -1.1104 3.76041 8.80549 9.18089
259 2 2.2208 2.42302 10.091 10.6938
260 1 -1.1104 3.77518 5.9621 12.0658
261 1 -1.1104 3.9131 11.6207 12.1328
262 1 -1.1104 3.69667 6.08792 9.36355
263 1 -1.1104 3.69449 11.5681 9.31566
249 1 -1.1104 6.61691 11.6312 12.1004
245 1 -1.1104 6.68948 8.87876 9.39207
248 1 -1.1104 6.58634 5.97409 12.0714
243 1 -1.1104 6.63383 8.72049 12.1306
253 1 -1.1104 6.47928 6.01524 9.31102
331 2 2.2208 10.8673 18.5335 10.8746
322 1 -1.1104 9.40396 14.3821 12.2305
376 2 2.2208 13.5709 12.8765 13.6185
265 1 -1.1104 12.1972 8.6581 6.57865
101 1 -1.1104 9.49991 11.606 6.56482
269 1 -1.1104 9.45141 6.00578 6.62364
254 1 -1.1104 6.49782 11.4902 9.33806
202 2 2.2208 13.6883 7.33672 8.09726
264 1 -1.1104 9.38531 11.4029 9.32214
268 1 -1.1104 9.40563 6.0121 9.51301
270 1 -1.1104 9.37385 11.4375 12.1628
271 1 -1.1104 9.35326 5.96782 12.3214
272 2 2.2208 8.01953 10.1106 10.7446
273 1 -1.1104 9.51896 8.62065 9.40653
274 2 2.2208 8.06365 12.8906 7.99896
275 2 2.2208 8.00173 7.36007 7.95202
276 2 2.2208 10.8605 7.342 10.8498
277 2 2.2208 10.8615 12.8966 10.844
278 1 -1.1104 12.2757 8.72838 12.1924
279 1 -1.1104 12.2482 8.79221 9.44399
280 1 -1.1104 12.1819 5.92039 12.242
281 1 -1.1104 12.2556 11.5463 12.2955
282 2 2.2208 10.8514 10.0691 8.02519
283 1 -1.1104 12.302 6.03398 9.45466
284 1 -1.1104 12.0896 11.543 9.5031
285 1 -1.1104 9.43692 8.68714 12.2278
321 1 -1.1104 9.48562 19.9362 12.2404
324 2 2.2208 10.8121 21.3466 8.14634
53 2 2.2208 13.6475 12.8735 7.95442
319 1 -1.1104 9.43944 14.3418 9.44537
353 2 2.2208 2.49292 12.8934 13.6466
126 1 -1.1104 3.81828 19.9405 6.5424
118 1 -1.1104 6.75586 17.1396 6.62311
111 1 -1.1104 6.61608 14.248 6.65597
327 1 -1.1104 12.2503 19.8945 9.50906
124 1 -1.1104 3.84783 14.4568 6.4772
297 1 -1.1104 6.73698 14.3538 12.2033
295 2 2.2208 5.18878 15.7632 7.98285
294 1 -1.1104 0.998274 14.3471 9.37152
298 1 -1.1104 1.10245 19.9836 12.2354
308 1 -1.1104 3.84624 17.1102 12.1402
303 2 2.2208 2.44505 18.546 7.93918
307 1 -1.1104 1.04517 17.1423 12.2117
309 2 2.2208 2.45333 21.352 10.8175
301 1 -1.1104 3.74254 19.9431 9.37451
300 2 2.2208 5.2484 18.4802 10.8126
310 2 2.2208 2.42841 15.7216 10.8197
299 1 -1.1104 1.10534 14.2669 12.2174
305 1 -1.1104 3.80597 14.397 9.29798
304 1 -1.1104 3.79554 17.1418 9.41412
286 1 -1.1104 3.85091 19.8475 12.162
287 1 -1.1104 3.84376 14.3536 12.1299
291 1 -1.1104 1.01574 19.9702 9.36678
292 1 -1.1104 0.99418 17.1546 9.40879
293 2 2.2208 5.2645 21.3011 8.0842
289 1 -1.1104 6.6101 17.1647 9.45687
357 2 2.2208 2.41308 18.5994 13.5917
290 1 -1.1104 6.63345 14.3613 9.3686
306 1 -1.1104 6.63092 17.0459 12.2462
288 1 -1.1104 6.62523 19.9129 9.43174
296 1 -1.1104 6.66407 19.9232 12.2716
360 2 2.2208 10.7884 21.248 13.6497
315 1 -1.1104 9.4511 17.1842 12.2754
326 1 -1.1104 12.2144 17.0574 12.1978
328 1 -1.1104 12.3188 14.3051 9.43019
320 2 2.2208 8.0454 18.5131 7.98169
143 1 -1.1104 12.2331 14.337 6.6429
156 1 -1.1104 9.47651 19.9105 6.71382
317 2 2.2208 8.00895 15.7319 10.8654
318 1 -1.1104 9.47827 19.9056 9.49259
314 1 -1.1104 9.45596 17.1111 9.54436
330 1 -1.1104 12.224 14.2965 12.3089
316 2 2.2208 8.05417 21.3428 10.9074
325 2 2.2208 10.8709 15.7457 8.06386
26 2 2.2208 -0.336196 1.76988 5.24815
136 2 2.2208 -0.345095 21.3363 2.4551
340 2 2.2208 13.6837 1.75081 13.639
52 2 2.2208 13.6526 10.0984 10.845
362 2 2.2208 8.08939 18.5094 13.692
358 2 2.2208 5.17249 21.244 13.6161
359 2 2.2208 5.22899 15.6661 13.5757
351 2 2.2208 2.50335 7.42539 13.5836
352 2 2.2208 5.28806 10.2077 13.5367
375 2 2.2208 2.48408 21.2507 -0.367162
388 2 2.2208 5.15155 1.84029 16.3151
389 1 -1.1104 1.00496 -2.41612 17.7639
390 1 -1.1104 1.01055 3.14712 17.7045
393 1 -1.1104 1.06276 -2.43731 14.915
395 1 -1.1104 0.975808 3.17245 14.9118
401 1 -1.1104 0.946491 0.362932 17.6921
403 2 2.2208 5.19384 -1.00804 19.1553
404 2 2.2208 5.22138 4.63103 19.1662
405 1 -1.1104 1.04845 0.281885 14.927
409 1 -1.1104 3.78134 -2.45527 17.7879
410 1 -1.1104 3.70065 3.21932 17.7174
411 2 2.2208 2.36693 1.73128 19.1453
412 1 -1.1104 3.85582 -2.44794 14.9146
414 1 -1.1104 3.79756 3.22309 14.8784
416 2 2.2208 2.41457 -1.00045 16.3442
417 2 2.2208 2.38789 4.59142 16.3673
418 1 -1.1104 3.78308 0.408919 17.7673
419 1 -1.1104 3.82669 0.316958 14.952
413 1 -1.1104 3.7308 -2.46349 20.5716
406 1 -1.1104 1.02217 0.366219 20.5723
394 1 -1.1104 0.870287 -2.40034 20.5387
407 1 -1.1104 6.7928 0.48397 15.1408
391 1 -1.1104 6.55489 -2.38271 17.7943
399 1 -1.1104 6.52301 3.16748 15.0097
392 1 -1.1104 6.64393 3.29996 17.7954
402 1 -1.1104 6.53287 0.525867 17.854
420 1 -1.1104 3.85363 0.393491 20.5597
398 1 -1.1104 6.51632 -2.34633 20.6856
400 1 -1.1104 6.65175 3.24719 20.4869
428 2 2.2208 13.6985 1.8133 19.1942
9128 2 2.2208 7.98301 -3.89676 19.1414
408 1 -1.1104 6.59876 0.350342 20.6227
397 1 -1.1104 6.70417 -2.38845 14.9696
431 2 2.2208 10.8608 1.80879 16.4006
432 1 -1.1104 12.2131 -2.41627 17.8598
433 1 -1.1104 12.2609 3.08505 17.7649
434 1 -1.1104 12.1538 -2.32483 15.0426
436 1 -1.1104 12.2075 3.22586 14.9944
438 1 -1.1104 12.2509 0.35756 17.7057
439 2 2.2208 10.7873 -1.02722 19.1715
440 2 2.2208 10.808 4.56458 19.1337
441 1 -1.1104 12.2149 0.471105 15.0187
443 1 -1.1104 9.34572 -2.44176 17.8237
444 1 -1.1104 9.45908 3.26029 17.709
445 2 2.2208 8.0106 1.90117 19.0852
446 1 -1.1104 9.39254 -2.33644 15.0825
448 1 -1.1104 9.38838 3.18367 14.9429
450 2 2.2208 8.06508 -0.920718 16.4577
451 2 2.2208 7.93203 4.60651 16.298
452 1 -1.1104 9.5017 0.48845 17.8073
453 1 -1.1104 9.54581 0.423193 14.9937
454 1 -1.1104 9.3767 0.39808 20.4885
447 1 -1.1104 9.28314 -2.42577 20.6111
437 1 -1.1104 12.2869 3.1073 20.6274
459 2 2.2208 13.6184 -0.965238 16.4489
621 2 2.2208 -0.396419 7.38128 16.38
9130 2 2.2208 13.5541 -3.73165 19.257
526 2 2.2208 10.8068 21.3695 24.7915
455 2 2.2208 13.589 18.447 24.8716
464 2 2.2208 5.24954 7.41495 16.3183
465 2 2.2208 5.345 13.0268 16.3569
466 1 -1.1104 1.03565 8.80067 17.7402
468 1 -1.1104 1.1502 8.84101 15.0931
472 1 -1.1104 1.00083 5.92763 17.8207
473 1 -1.1104 0.944351 11.5532 17.7928
476 2 2.2208 5.31412 10.1751 19.1532
477 1 -1.1104 1.03399 6.00966 15.0274
479 1 -1.1104 1.01468 11.6015 14.99
485 1 -1.1104 3.93807 8.84473 17.7396
486 2 2.2208 2.41095 7.35054 19.1099
487 2 2.2208 2.43989 12.9695 19.141
488 1 -1.1104 3.93689 8.75203 14.8895
490 2 2.2208 2.4581 10.2906 16.3547
491 1 -1.1104 3.84809 5.99037 17.7352
492 1 -1.1104 3.95663 11.6815 17.7351
493 1 -1.1104 3.83883 6.05652 14.911
495 1 -1.1104 3.87227 11.5437 14.9456
469 1 -1.1104 0.972646 8.78484 20.5554
480 1 -1.1104 1.09684 11.5059 20.5403
489 1 -1.1104 3.88031 8.81036 20.5359
483 1 -1.1104 6.64565 11.511 14.8941
482 1 -1.1104 6.65307 6.06381 20.5194
496 1 -1.1104 3.91764 11.6825 20.4807
474 1 -1.1104 6.61775 6.01181 17.675
470 1 -1.1104 6.69652 8.80052 14.9218
467 1 -1.1104 6.56722 8.85591 17.6163
481 1 -1.1104 6.58907 5.99489 14.8849
471 1 -1.1104 6.653 8.75403 20.5994
494 1 -1.1104 3.86503 6.08386 20.5592
9091 2 2.2208 13.6361 -3.7945 24.8267
620 1 -1.1104 9.37081 17.067 26.1739
475 1 -1.1104 6.85127 11.5746 17.7771
500 2 2.2208 10.7006 7.30464 16.4276
501 2 2.2208 10.89 12.9903 16.4243
502 1 -1.1104 12.3313 8.78847 17.7559
503 1 -1.1104 12.2008 8.79491 14.9895
505 1 -1.1104 12.2246 5.88329 17.8333
506 1 -1.1104 12.3478 11.5831 17.8264
507 2 2.2208 11.02 10.1889 19.2056
508 1 -1.1104 12.218 6.00579 15.139
510 1 -1.1104 12.2412 11.5458 15.0696
512 1 -1.1104 9.41958 8.76985 17.734
513 2 2.2208 8.0419 7.41835 19.1439
514 2 2.2208 8.14357 13.007 19.1528
515 1 -1.1104 9.41754 8.72845 15.0824
517 2 2.2208 8.10213 10.1089 16.424
518 1 -1.1104 9.44461 6.00151 17.8361
519 1 -1.1104 9.53125 11.614 17.8906
520 1 -1.1104 9.32684 5.8995 15.0615
522 1 -1.1104 9.45378 11.4907 15.0754
504 1 -1.1104 12.345 8.70272 20.5857
509 1 -1.1104 12.2356 5.93227 20.5278
521 1 -1.1104 9.46831 6.07175 20.6175
589 1 -1.1104 9.46991 14.2224 26.1671
347 2 2.2208 8.02015 15.786 27.5356
511 1 -1.1104 12.2838 11.6624 20.6852
516 1 -1.1104 9.53753 8.85196 20.5155
9093 2 2.2208 5.21746 -3.81729 21.9598
9092 2 2.2208 2.36551 -3.91743 24.7317
527 2 2.2208 5.19487 18.4952 16.3238
528 1 -1.1104 1.05907 14.3888 17.8498
529 1 -1.1104 1.08117 19.8988 17.7743
532 1 -1.1104 1.13901 14.3879 14.9748
534 1 -1.1104 0.923407 20.0046 14.9732
540 1 -1.1104 1.08118 17.1325 17.8526
542 2 2.2208 5.29502 15.7422 19.1837
543 2 2.2208 5.20997 21.2616 19.1652
544 1 -1.1104 1.04149 17.1315 14.992
548 1 -1.1104 3.85929 14.3197 17.776
549 1 -1.1104 3.84091 19.8703 17.7884
550 2 2.2208 2.4504 18.4611 19.1475
551 1 -1.1104 3.90527 14.2588 14.9588
553 1 -1.1104 3.80584 19.9323 14.9594
555 2 2.2208 2.39558 15.6212 16.4457
556 2 2.2208 2.34216 21.2851 16.4076
557 1 -1.1104 3.82771 17.0026 17.7583
558 1 -1.1104 3.80852 17.0755 14.939
559 1 -1.1104 3.8076 17.1003 20.4887
547 1 -1.1104 6.64704 17.1611 20.5926
535 1 -1.1104 1.0667 19.8846 20.5802
533 1 -1.1104 1.10669 14.2719 20.6516
554 1 -1.1104 3.81952 19.8287 20.5837
545 1 -1.1104 0.943388 17.055 20.6411
552 1 -1.1104 3.8339 14.3914 20.6465
538 1 -1.1104 6.56842 19.8657 15.0435
541 1 -1.1104 6.65905 17.1649 17.7745
546 1 -1.1104 6.67647 17.1404 14.911
531 1 -1.1104 6.59147 19.964 17.8132
537 1 -1.1104 6.70761 14.3348 20.5224
348 2 2.2208 10.8674 18.5042 27.5592
536 1 -1.1104 6.67987 14.3013 15.004
530 1 -1.1104 6.73571 14.4049 17.6881
372 2 2.2208 8.01495 4.61592 27.5374
569 1 -1.1104 12.2837 19.9271 20.5604
563 2 2.2208 10.9013 18.5001 16.4565
564 1 -1.1104 12.2748 14.3756 17.8481
565 1 -1.1104 12.278 19.9756 17.7604
566 1 -1.1104 12.244 14.3693 15.0116
568 1 -1.1104 12.2239 19.9846 15.0105
570 1 -1.1104 12.2067 17.2358 17.9536
571 2 2.2208 10.8843 15.7431 19.1901
572 2 2.2208 10.9273 21.3471 19.2037
573 1 -1.1104 12.273 17.1083 15.044
575 1 -1.1104 9.54196 14.2866 17.8411
576 1 -1.1104 9.55471 19.8744 17.7852
577 2 2.2208 8.03597 18.5735 19.1323
578 1 -1.1104 9.50903 14.3566 15.0197
580 1 -1.1104 9.43213 19.9249 15.13
582 2 2.2208 8.07041 15.8264 16.4128
583 2 2.2208 8.11434 21.2501 16.4496
584 1 -1.1104 9.46465 17.0779 17.7507
585 1 -1.1104 9.44278 17.1874 15.0609
581 1 -1.1104 9.39529 19.9521 20.5451
460 2 2.2208 13.6786 21.3377 16.2804
579 1 -1.1104 9.50308 14.3615 20.6315
574 1 -1.1104 12.2459 17.1427 20.7051
586 1 -1.1104 9.34352 17.1748 20.5273
380 2 2.2208 2.41776 10.2474 27.6275
415 1 -1.1104 3.91698 3.244 20.6104
396 1 -1.1104 0.974843 3.11094 20.5027
365 2 2.2208 2.44923 -0.952687 27.47
591 2 2.2208 5.29659 1.83938 21.9191
592 1 -1.1104 0.997171 -2.37562 23.3106
593 1 -1.1104 1.07837 3.24863 23.2577
596 1 -1.1104 0.92995 -2.45111 26.1075
597 1 -1.1104 1.0397 3.20457 26.0721
600 1 -1.1104 0.987807 0.472338 23.3213
602 2 2.2208 5.12502 -1.0259 24.7496
603 2 2.2208 5.26879 4.55648 24.789
604 1 -1.1104 0.997775 0.367572 26.2013
606 1 -1.1104 3.7011 -2.42989 23.457
607 1 -1.1104 3.96092 3.17074 23.3749
608 2 2.2208 2.45107 1.85123 24.7567
609 1 -1.1104 3.79278 -2.39337 26.2337
610 1 -1.1104 3.82905 3.17914 26.2043
611 2 2.2208 2.40897 -1.088 21.9798
612 2 2.2208 2.50362 4.6232 21.9751
613 1 -1.1104 3.73854 0.339896 23.3346
614 1 -1.1104 3.72029 0.450751 26.1124
598 1 -1.1104 6.66646 -2.48182 26.2158
595 1 -1.1104 6.70868 3.24976 23.3784
599 1 -1.1104 6.6127 3.14922 26.1372
562 1 -1.1104 9.47633 20.0187 23.3906
605 1 -1.1104 6.60351 0.445401 26.2217
386 2 2.2208 10.8585 12.9606 27.5584
442 1 -1.1104 12.2286 0.333224 20.5024
435 1 -1.1104 12.1999 -2.47675 20.5953
449 1 -1.1104 9.46361 3.27167 20.6399
370 2 2.2208 8.08534 -1.024 27.5491
601 1 -1.1104 6.60324 0.457404 23.411
594 1 -1.1104 6.5325 -2.38307 23.447
653 2 2.2208 13.5598 -0.966795 21.9986
627 2 2.2208 10.82 1.74132 21.9433
628 1 -1.1104 12.1967 -2.47527 23.3593
629 1 -1.1104 12.2995 3.08747 23.286
630 1 -1.1104 12.2269 -2.38572 26.2253
631 1 -1.1104 12.202 3.20116 26.1239
632 1 -1.1104 12.2212 0.3849 23.3385
633 2 2.2208 10.8403 -1.0459 24.7924
634 2 2.2208 10.8297 4.48905 24.7536
635 1 -1.1104 12.1394 0.410532 26.1074
636 1 -1.1104 9.39746 -2.3835 23.3181
637 1 -1.1104 9.46769 3.07558 23.4561
638 2 2.2208 8.03779 1.71505 24.8219
639 1 -1.1104 9.43218 -2.33951 26.125
640 1 -1.1104 9.36783 3.18972 26.2284
641 2 2.2208 7.99156 -0.941562 21.9602
642 2 2.2208 8.07389 4.62265 22.0243
643 1 -1.1104 9.42797 0.350128 23.3178
644 1 -1.1104 9.4729 0.372465 26.1278
369 2 2.2208 10.8383 1.82286 27.5919
462 2 2.2208 10.7965 18.619 21.9258
654 2 2.2208 13.5324 1.77326 24.7646
615 2 2.2208 8.08424 15.6313 22.0111
374 2 2.2208 5.23869 18.5747 27.6088
378 2 2.2208 13.6667 4.60152 27.5828
478 1 -1.1104 1.06344 5.97104 20.5957
484 1 -1.1104 6.61043 11.5812 20.4831
656 2 2.2208 5.34213 7.44334 21.962
657 2 2.2208 5.28012 12.9271 21.9468
658 1 -1.1104 1.10213 8.73246 23.4155
660 1 -1.1104 1.0053 8.84333 26.1603
662 1 -1.1104 0.99608 5.92809 23.3654
663 1 -1.1104 0.948264 11.5852 23.3622
666 2 2.2208 5.21904 10.1774 24.6957
667 1 -1.1104 1.06002 6.11655 26.1165
668 1 -1.1104 1.09617 11.5035 26.0778
671 1 -1.1104 3.87745 8.77597 23.3333
672 2 2.2208 2.4761 7.37048 24.8033
673 2 2.2208 2.31074 12.9671 24.7477
674 1 -1.1104 3.8771 8.85356 26.1025
675 2 2.2208 2.47517 10.1656 21.9052
676 1 -1.1104 3.78819 5.95978 23.3878
677 1 -1.1104 3.77126 11.5628 23.2586
678 1 -1.1104 3.83572 5.90343 26.1868
679 1 -1.1104 3.85747 11.5664 26.1786
664 1 -1.1104 6.51227 6.05604 23.3387
665 1 -1.1104 6.57073 11.6172 23.3555
659 1 -1.1104 6.75577 8.94022 23.4368
498 1 -1.1104 12.2906 14.3432 26.1574
379 2 2.2208 5.15125 7.3788 27.5275
373 2 2.2208 2.44085 15.7771 27.6296
381 2 2.2208 5.21488 12.9834 27.5537
523 1 -1.1104 9.46196 11.5376 20.6473
670 1 -1.1104 6.7138 11.4843 26.1399
669 1 -1.1104 6.68299 5.95102 26.1111
661 1 -1.1104 6.5827 8.76417 26.2366
387 2 2.2208 13.69 10.1058 27.5619
349 2 2.2208 8.15299 21.2876 27.5861
687 1 -1.1104 9.4109 11.4443 26.2538
688 1 -1.1104 9.42484 6.00708 26.1119
689 1 -1.1104 9.38151 11.5091 23.456
690 1 -1.1104 9.50378 5.8906 23.3818
691 2 2.2208 8.10859 10.1854 21.94
692 1 -1.1104 9.33206 8.67959 26.1497
693 2 2.2208 8.04079 12.8748 24.8574
694 2 2.2208 8.02969 7.36347 24.7798
695 2 2.2208 10.9209 7.39121 21.9348
696 2 2.2208 10.8885 12.8895 22.0483
697 1 -1.1104 12.1386 8.71897 23.3677
698 1 -1.1104 12.188 8.68733 26.1969
699 1 -1.1104 12.2162 5.83861 23.2664
700 1 -1.1104 12.2251 11.5304 23.4842
701 2 2.2208 10.7861 10.1198 24.8601
702 1 -1.1104 12.2974 5.95836 26.1851
703 1 -1.1104 12.2128 11.502 26.2368
704 1 -1.1104 9.46018 8.70446 23.3959
9089 2 2.2208 7.95368 -3.77022 24.7318
384 2 2.2208 10.7711 7.32711 27.5318
712 1 -1.1104 6.61657 14.4005 26.1258
539 1 -1.1104 6.70568 19.8606 20.5824
524 1 -1.1104 12.2875 17.1215 23.4914
714 1 -1.1104 6.63377 17.2255 26.0399
719 2 2.2208 5.21666 21.3533 24.7845
717 1 -1.1104 1.09574 14.3605 26.1677
720 2 2.2208 5.17921 15.7246 24.7554
647 2 2.2208 2.42551 15.7013 21.9937
649 2 2.2208 2.42216 21.2964 22.0384
652 1 -1.1104 3.77461 17.1646 23.3617
655 1 -1.1104 0.998917 17.1341 23.4934
681 1 -1.1104 3.81344 14.3957 26.072
682 1 -1.1104 3.83649 17.0936 26.2457
683 2 2.2208 2.45235 18.5572 24.8432
686 1 -1.1104 3.78703 19.8973 26.249
705 2 2.2208 5.2562 18.4972 21.9127
706 1 -1.1104 1.00216 14.4052 23.3199
707 1 -1.1104 1.01934 20.0092 23.4307
711 1 -1.1104 3.88313 19.9609 23.4377
713 1 -1.1104 3.82076 14.3115 23.3299
715 1 -1.1104 1.05742 19.9534 26.2212
716 1 -1.1104 1.06966 17.1788 26.2778
680 1 -1.1104 6.63613 17.0667 23.3457
588 1 -1.1104 6.61076 20.0102 26.1448
709 1 -1.1104 6.71552 14.2432 23.2555
587 2 2.2208 8.04766 18.5778 24.7209
366 2 2.2208 2.50542 4.58844 27.5481
590 1 -1.1104 9.46973 19.853 26.2052
567 1 -1.1104 12.3716 14.351 20.5876
461 2 2.2208 13.6948 21.3372 21.9464
497 1 -1.1104 12.2559 20.0024 23.47
463 1 -1.1104 12.1731 14.2539 23.3971
617 1 -1.1104 9.46616 17.0584 23.434
561 1 -1.1104 9.40652 14.2676 23.4654
718 1 -1.1104 6.57318 19.8823 23.3896
525 2 2.2208 10.7587 15.6682 24.8071
616 2 2.2208 7.94338 21.3234 21.9858
499 1 -1.1104 12.1755 20.0365 26.2559
560 1 -1.1104 12.101 17.0506 26.2018
648 2 2.2208 -0.46091 12.9861 16.4977
368 2 2.2208 -0.422815 1.76328 27.6028
623 2 2.2208 -0.393468 18.5167 22.0445
457 2 2.2208 -0.301384 15.6759 19.2906
423 2 2.2208 13.7018 4.53475 22.0153
9012 2 2.2208 5.20409 -3.81866 27.5397
361 2 2.2208 10.8154 15.7039 13.6449
336 2 2.2208 13.5979 7.32173 13.6169
385 2 2.2208 8.02457 10.107 27.555
364 2 2.2208 5.21782 1.77416 27.5323
345 2 2.2208 13.5974 21.3627 27.6339
355 2 2.2208 10.8388 10.1772 13.6384
344 2 2.2208 13.713 15.6983 27.5642
721 2 2.2208 5.32971 24.1847 5.18678
722 2 2.2208 5.26498 29.7774 5.16969
723 1 -1.1104 1.14357 25.4505 1.00163
724 1 -1.1104 0.989357 25.5224 3.86131
725 1 -1.1104 1.14057 22.639 1.09243
726 1 -1.1104 1.05746 28.3418 1.15193
727 2 2.2208 5.27033 26.964 2.48139
728 1 -1.1104 0.963221 22.8031 3.87205
729 1 -1.1104 0.903535 28.3266 3.90098
730 1 -1.1104 3.90194 25.5343 0.982438
731 2 2.2208 2.48014 24.0852 2.48804
732 2 2.2208 2.50168 29.7638 2.38465
733 1 -1.1104 3.74144 25.511 3.83898
734 2 2.2208 2.34163 26.9162 5.30502
735 1 -1.1104 3.91086 22.6974 0.97693
736 1 -1.1104 3.77746 28.3244 0.9608
737 1 -1.1104 3.86219 22.6561 3.81371
738 1 -1.1104 3.82424 28.3302 3.70371
864 1 -1.1104 1.04736 22.7222 6.70991
862 1 -1.1104 0.951601 25.5416 6.675
746 1 -1.1104 6.61163 22.8545 3.80276
745 1 -1.1104 6.50236 28.3605 0.990477
742 1 -1.1104 6.65351 25.4807 1.0223
744 1 -1.1104 6.71581 22.5445 1.06498
865 1 -1.1104 1.00365 28.3145 6.65758
747 1 -1.1104 6.66379 28.3499 3.81359
870 1 -1.1104 3.76095 28.3539 6.49864
869 1 -1.1104 3.82005 22.8188 6.68686
1036 2 2.2208 13.5276 26.9694 10.817
790 2 2.2208 -0.407337 35.3483 5.27023
743 1 -1.1104 6.60783 25.6694 3.86433
867 1 -1.1104 6.56531 28.3794 6.67613
748 2 2.2208 10.8667 24.1719 5.28803
749 2 2.2208 10.7554 29.7598 5.24695
750 1 -1.1104 12.2915 25.5445 0.964047
751 1 -1.1104 12.26 25.5371 3.74225
752 1 -1.1104 12.2898 22.7543 1.13971
753 1 -1.1104 12.289 28.3437 1.04728
754 2 2.2208 10.9056 27.0228 2.4547
755 1 -1.1104 12.337 22.7949 3.96749
756 1 -1.1104 12.1838 28.4805 3.83374
757 1 -1.1104 9.50401 25.5815 1.08686
758 2 2.2208 8.10531 24.2104 2.42497
759 2 2.2208 8.09663 29.7404 2.50584
760 1 -1.1104 9.42221 25.5573 3.85686
761 2 2.2208 7.96866 26.9384 5.22835
762 1 -1.1104 9.48122 22.8059 0.987245
763 1 -1.1104 9.41243 28.2904 1.1039
764 1 -1.1104 9.44421 22.8569 3.9282
765 1 -1.1104 9.41693 28.3192 3.82903
897 1 -1.1104 12.295 28.2571 6.68155
895 1 -1.1104 12.3534 25.502 6.61749
898 1 -1.1104 9.35308 25.5261 6.6843
900 1 -1.1104 9.40993 28.3237 6.63473
766 2 2.2208 13.6337 24.1849 2.45464
768 2 2.2208 13.6204 27.0342 5.21273
1080 2 2.2208 10.7794 46.3961 -0.263772
1466 1 -1.1104 9.4182 47.8065 1.06298
1088 2 2.2208 5.19698 46.546 -0.213292
1414 1 -1.1104 6.57787 47.9316 1.1987
1053 2 2.2208 -0.387044 32.4884 13.7619
769 2 2.2208 5.30326 35.2474 5.35025
770 1 -1.1104 0.993722 31.1033 1.04089
771 1 -1.1104 1.13076 36.7459 1.0625
773 1 -1.1104 1.12777 31.144 3.87594
774 1 -1.1104 1.07289 36.6947 3.88602
776 1 -1.1104 1.05341 33.8412 1.05582
777 2 2.2208 5.25259 32.5722 2.4364
778 2 2.2208 5.25842 37.9708 2.52301
779 1 -1.1104 0.977609 34.0357 3.88344
781 1 -1.1104 3.82362 31.1196 1.01362
782 1 -1.1104 3.94313 36.7774 1.06527
783 2 2.2208 2.41097 35.2902 2.50249
784 1 -1.1104 3.86337 31.1447 3.84659
785 1 -1.1104 3.87873 36.6077 3.91535
786 2 2.2208 2.48009 32.5101 5.28154
787 2 2.2208 2.51132 38.0873 5.29006
788 1 -1.1104 3.80841 33.9369 1.00938
789 1 -1.1104 3.8686 33.9238 3.93812
775 1 -1.1104 6.6859 36.6557 3.87028
921 1 -1.1104 6.6113 31.1769 6.6061
794 1 -1.1104 6.60989 31.0937 3.74517
919 1 -1.1104 1.04695 31.0568 6.67242
780 1 -1.1104 6.6494 33.8907 3.72294
793 1 -1.1104 6.64379 31.0537 0.984503
926 1 -1.1104 3.8132 36.6362 6.7105
925 1 -1.1104 3.81582 31.0709 6.6368
920 1 -1.1104 1.15199 36.6752 6.63707
772 1 -1.1104 6.724 36.5939 1.21809
923 1 -1.1104 1.02413 33.8412 6.76725
952 2 2.2208 -0.229359 38.0929 8.09354
1004 2 2.2208 -0.348587 43.69 8.21199
1083 2 2.2208 13.6631 38.1648 -0.234625
1078 2 2.2208 2.43479 38.1546 -0.255091
795 1 -1.1104 6.67542 33.8755 0.992585
796 2 2.2208 10.8456 35.3251 5.32836
797 1 -1.1104 12.1952 31.1465 1.05837
798 1 -1.1104 12.1858 36.7369 1.12712
799 1 -1.1104 12.2199 31.2207 3.89702
800 1 -1.1104 12.2346 36.6901 3.87677
801 1 -1.1104 12.1461 33.9193 1.04441
802 2 2.2208 10.875 32.5581 2.51061
803 2 2.2208 10.8847 38.0928 2.57972
804 1 -1.1104 12.2355 33.8814 3.85577
805 1 -1.1104 9.41263 31.1205 1.06497
806 1 -1.1104 9.4622 36.6305 1.09272
807 2 2.2208 8.12914 35.2319 2.50851