ITEM: TIMESTEP
40000
ITEM: NUMBER OF ATOMS
17670
ITEM: BOX BOUNDS pp pp pp
-3.2444453085449604e-01 2.7664444530854144e+01
-3.8751550524577345e+00 3.3195515505246948e+02
-3.1536703457070508e-01 2.7655367034570688e+01
ITEM: ATOMS id type q x y z
1 2 2.2208 5.18476 1.69615 5.36759
2 1 -1.1104 0.978062 -2.44338 1.08889
3 1 -1.1104 1.04212 3.11577 1.08232
6 1 -1.1104 1.08555 -2.52528 3.95066
7 1 -1.1104 1.0721 3.09975 3.90525
10 1 -1.1104 1.01235 0.38871 1.1256
12 2 2.2208 5.16649 -1.03333 2.66386
13 2 2.2208 5.19784 4.51109 2.53247
14 1 -1.1104 0.987288 0.260516 3.8979
16 1 -1.1104 3.80044 -2.39356 1.14291
17 1 -1.1104 3.85749 3.10438 1.09797
18 2 2.2208 2.41704 1.70022 2.63272
19 1 -1.1104 3.76934 -2.54733 4.01743
20 1 -1.1104 3.79726 3.06293 3.91532
21 2 2.2208 2.43356 -1.12727 5.38209
22 2 2.2208 2.35841 4.48951 5.27334
23 1 -1.1104 3.84534 0.313398 1.13906
24 1 -1.1104 3.81528 0.276403 3.93815
5 1 -1.1104 6.62299 3.21016 1.1571
4 1 -1.1104 6.59455 -2.48419 1.22351
8 1 -1.1104 6.57667 -2.41134 4.0461
9 1 -1.1104 6.61092 3.05084 3.91087
11 1 -1.1104 6.52922 0.343501 1.1792
15 1 -1.1104 6.59534 0.37037 3.9007
167 1 -1.1104 1.11848 3.08921 6.69077
9000 2 2.2208 5.16419 -3.96465 11.0525
372 2 2.2208 8.07157 4.56783 -0.265449
51 2 2.2208 -0.316866 12.9444 10.8896
31 2 2.2208 10.8711 1.73571 5.31414
32 1 -1.1104 12.2635 -2.45374 1.2076
33 1 -1.1104 12.177 3.07979 1.18976
34 1 -1.1104 12.2837 -2.47933 3.91032
35 1 -1.1104 12.2288 3.15713 3.97308
36 1 -1.1104 12.3027 0.356744 1.24021
37 2 2.2208 10.8582 -0.997566 2.58087
38 2 2.2208 10.8612 4.54266 2.60983
39 1 -1.1104 12.2963 0.337043 4.06894
40 1 -1.1104 9.41638 -2.39191 1.21015
41 1 -1.1104 9.40044 3.12727 1.17814
42 2 2.2208 8.04859 1.78105 2.46956
43 1 -1.1104 9.37869 -2.37482 4.02524
44 1 -1.1104 9.3867 3.15677 3.92604
45 2 2.2208 7.97936 -1.02765 5.31933
46 2 2.2208 7.98497 4.46626 5.24135
47 1 -1.1104 9.44419 0.364263 1.08896
48 1 -1.1104 9.41383 0.41898 3.79436
207 1 -1.1104 12.1457 0.323901 6.85082
50 2 2.2208 13.6762 -1.04499 5.42121
333 2 2.2208 13.6974 15.7004 10.8732
233 2 2.2208 13.618 4.45878 5.36603
208 1 -1.1104 9.29377 -2.38677 6.77693
9003 2 2.2208 10.7869 -3.95748 11.0475
313 2 2.2208 -0.275171 15.8138 8.00935
49 2 2.2208 13.6683 1.77511 2.57929
8998 2 2.2208 13.6735 -3.92477 2.65259
54 2 2.2208 5.2099 7.31596 5.20131
55 2 2.2208 5.24206 12.8619 5.37705
56 1 -1.1104 1.02496 8.80113 1.05601
58 1 -1.1104 1.01899 8.64173 3.90671
60 1 -1.1104 0.962725 5.91176 1.08013
61 1 -1.1104 1.01153 11.6043 1.12836
66 2 2.2208 5.18176 10.1426 2.50744
67 1 -1.1104 0.949418 5.85552 3.87796
68 1 -1.1104 0.926923 11.4618 3.90185
71 1 -1.1104 3.87058 8.64538 0.983199
72 2 2.2208 2.39148 7.25266 2.42564
73 2 2.2208 2.53778 12.8924 2.46188
74 1 -1.1104 3.82474 8.72967 3.8052
75 2 2.2208 2.3725 10.0536 5.2452
76 1 -1.1104 3.75281 5.95236 1.05631
77 1 -1.1104 3.82846 11.4519 1.10057
79 1 -1.1104 3.78516 5.86509 3.90039
80 1 -1.1104 3.75701 11.4729 3.97349
59 1 -1.1104 6.59193 8.71254 3.84398
238 1 -1.1104 3.71935 8.84408 6.66958
234 1 -1.1104 0.979872 8.62448 6.69133
63 1 -1.1104 6.55466 5.9599 1.17382
69 1 -1.1104 6.61873 5.87794 3.90103
65 1 -1.1104 6.598 11.483 6.73101
312 2 2.2208 -0.273926 18.4736 10.8249
380 2 2.2208 2.40358 10.1181 -0.365067
136 2 2.2208 -0.318707 21.3412 2.50717
381 2 2.2208 5.24573 12.9341 -0.2418
57 1 -1.1104 6.66538 8.72718 1.06604
70 1 -1.1104 6.59399 11.5062 3.88957
64 1 -1.1104 6.57418 11.4878 1.15747
84 2 2.2208 10.8276 7.37077 5.31205
85 2 2.2208 10.8528 12.9592 5.33063
86 1 -1.1104 12.1839 8.77655 1.14114
87 1 -1.1104 12.245 8.75915 3.9467
88 1 -1.1104 12.2198 6.02208 1.13493
89 1 -1.1104 12.3161 11.6082 1.11254
91 2 2.2208 10.7153 10.1729 2.4928
92 1 -1.1104 12.2871 5.98424 3.92014
93 1 -1.1104 12.1531 11.6132 3.91265
94 1 -1.1104 9.39491 8.72379 1.14639
95 2 2.2208 8.01562 7.25303 2.47684
96 2 2.2208 8.03368 12.9689 2.46671
97 1 -1.1104 9.36068 8.6913 3.94755
98 2 2.2208 7.94928 10.1876 5.26216
99 1 -1.1104 9.38652 5.94654 1.08757
100 1 -1.1104 9.36749 11.5518 1.01423
102 1 -1.1104 9.43493 5.87816 3.95745
103 1 -1.1104 9.48739 11.5533 3.8627
232 2 2.2208 13.6007 10.16 5.31286
105 2 2.2208 13.6052 7.40478 2.50945
266 1 -1.1104 12.2751 5.83257 6.73059
8996 2 2.2208 8.07753 -3.82443 2.65755
200 2 2.2208 -0.407247 -1.05127 8.13323
137 2 2.2208 -0.269353 18.618 5.27324
230 2 2.2208 13.5321 -1.10301 10.9889
106 2 2.2208 5.31989 18.4531 5.41109
107 1 -1.1104 1.10829 14.3807 1.16862
109 1 -1.1104 1.13999 19.9405 1.07628
113 1 -1.1104 1.11786 14.3656 3.96215
114 1 -1.1104 1.11095 19.974 3.95347
116 1 -1.1104 1.05672 17.1234 1.18403
119 2 2.2208 5.30051 15.7187 2.57661
120 2 2.2208 5.33138 21.4124 2.57002
121 1 -1.1104 1.11825 17.2192 3.90942
123 1 -1.1104 3.8809 14.3589 1.14842
125 1 -1.1104 3.83967 19.8951 1.18839
127 2 2.2208 2.53707 18.5169 2.58189
128 1 -1.1104 3.79548 14.2272 3.92991
129 1 -1.1104 3.93662 19.7504 4.0109
130 2 2.2208 2.49814 15.6719 5.37769
131 2 2.2208 2.56036 21.2636 5.38065
132 1 -1.1104 3.91036 17.1373 1.16887
134 1 -1.1104 3.98107 16.9381 4.04803
112 1 -1.1104 6.62885 19.8887 6.77792
124 1 -1.1104 3.90371 14.3013 6.71247
133 1 -1.1104 3.84486 17.0668 6.82618
108 1 -1.1104 1.05956 14.3304 6.74592
139 1 -1.1104 6.65234 19.8651 4.06002
122 1 -1.1104 6.8353 17.0377 3.91819
138 1 -1.1104 6.70468 19.8491 1.23497
375 2 2.2208 2.52864 21.3786 -0.21987
140 1 -1.1104 6.77211 17.0825 1.11362
115 1 -1.1104 6.63767 14.43 3.96438
110 1 -1.1104 6.61165 14.3289 1.16101
143 1 -1.1104 12.2662 14.1491 6.69379
141 2 2.2208 10.9821 18.4994 5.42378
142 1 -1.1104 12.1906 14.3751 1.08864
144 1 -1.1104 12.2779 19.9522 1.14065
146 1 -1.1104 12.2422 14.439 3.85494
147 1 -1.1104 12.4089 20.0242 3.92884
148 1 -1.1104 12.2867 17.1201 1.29417
150 2 2.2208 10.8217 15.7353 2.54556
151 2 2.2208 10.9267 21.3785 2.53862
152 1 -1.1104 12.3333 17.1846 4.09671
153 1 -1.1104 9.38839 14.3283 1.13938
155 1 -1.1104 9.49456 19.9442 1.14071
157 2 2.2208 8.18011 18.4788 2.49118
158 1 -1.1104 9.46991 14.3776 3.96575
159 1 -1.1104 9.53937 19.887 3.84623
160 2 2.2208 8.127 15.746 5.30837
161 2 2.2208 8.10635 21.3673 5.30713
162 1 -1.1104 9.57213 17.2481 1.12933
164 1 -1.1104 9.60264 17.1653 3.8907
326 1 -1.1104 12.3867 17.0863 12.4721
154 1 -1.1104 9.46691 14.3932 6.74899
163 1 -1.1104 9.43638 17.182 6.74752
348 2 2.2208 10.9336 18.5935 -0.19123
314 1 -1.1104 9.60772 17.167 9.44274
52 2 2.2208 13.5814 10.0882 10.9277
169 1 -1.1104 6.70614 3.12906 6.70786
166 1 -1.1104 0.971264 -2.46943 6.67877
170 1 -1.1104 1.02117 0.271958 6.69057
171 1 -1.1104 6.56044 0.293341 6.63055
173 1 -1.1104 3.85374 3.08234 6.63462
311 2 2.2208 -0.301537 21.4051 8.1708
172 1 -1.1104 3.75293 -2.51633 6.68242
174 1 -1.1104 3.71189 0.317913 6.7637
168 1 -1.1104 6.53347 -2.53411 6.76984
175 2 2.2208 5.23788 1.66262 10.9406
176 1 -1.1104 0.961252 -2.41995 12.315
177 1 -1.1104 1.08758 3.16499 12.2768
180 1 -1.1104 0.983359 -2.51041 9.45993
181 1 -1.1104 0.990282 3.09087 9.52234
184 1 -1.1104 1.07973 0.382105 12.3064
186 2 2.2208 5.17866 -1.1066 8.14765
187 2 2.2208 5.20963 4.52761 8.17656
188 1 -1.1104 1.0272 0.271521 9.50118
190 1 -1.1104 3.83375 -2.49342 12.3662
191 1 -1.1104 3.83225 3.03998 12.2281
192 2 2.2208 2.45059 1.67861 8.11573
193 1 -1.1104 3.8366 -2.46887 9.48687
194 1 -1.1104 3.82667 3.1604 9.38741
195 2 2.2208 2.46772 -1.06136 10.9425
196 2 2.2208 2.38241 4.47716 10.9065
197 1 -1.1104 3.80075 0.27252 12.3548
198 1 -1.1104 3.8509 0.323585 9.58143
178 1 -1.1104 6.63238 -2.59531 12.4224
189 1 -1.1104 6.61433 0.386881 9.47318
185 1 -1.1104 6.6213 0.304855 12.3703
179 1 -1.1104 6.68132 3.07377 12.3206
182 1 -1.1104 6.54214 -2.37156 9.64765
183 1 -1.1104 6.6051 3.18242 9.5932
324 2 2.2208 11.0003 21.3269 8.17027
384 2 2.2208 10.8319 7.52149 -0.31002
349 2 2.2208 8.12772 21.3551 -0.238036
209 1 -1.1104 9.50067 3.05289 6.69665
206 1 -1.1104 12.2028 3.08221 6.72745
210 1 -1.1104 9.39954 0.326875 6.62828
203 2 2.2208 13.5646 4.47167 10.9909
205 1 -1.1104 12.1344 -2.44374 6.7697
321 1 -1.1104 9.52063 19.8567 12.4242
211 2 2.2208 10.7835 1.70669 10.921
212 1 -1.1104 12.0948 -2.44488 12.405
213 1 -1.1104 12.139 3.05398 12.2843
214 1 -1.1104 12.28 -2.54474 9.58952
215 1 -1.1104 12.1702 3.16655 9.52224
216 1 -1.1104 12.0928 0.317717 12.3329
217 2 2.2208 10.7633 -1.11253 8.19015
218 2 2.2208 10.804 4.59879 8.17232
219 1 -1.1104 12.135 0.225345 9.64792
220 1 -1.1104 9.37208 -2.49617 12.3217
221 1 -1.1104 9.53024 3.13661 12.2537
222 2 2.2208 8.06816 1.6936 8.02008
223 1 -1.1104 9.32102 -2.52654 9.62286
224 1 -1.1104 9.33454 3.07082 9.45488
225 2 2.2208 8.05383 -1.12452 10.9762
226 2 2.2208 7.99554 4.47738 10.9238
227 1 -1.1104 9.43931 0.251547 12.4051
228 1 -1.1104 9.42268 0.297016 9.53677
229 2 2.2208 13.5673 1.67935 8.19231
323 1 -1.1104 12.2856 17.1047 9.54438
78 1 -1.1104 3.86648 11.504 6.7915
236 1 -1.1104 0.98029 5.81167 6.75529
239 1 -1.1104 3.76557 5.86786 6.76788
62 1 -1.1104 1.08275 11.5315 6.69059
235 1 -1.1104 6.57871 8.75018 6.76124
330 1 -1.1104 12.4444 14.303 12.2714
240 2 2.2208 5.23667 7.33561 10.8627
241 2 2.2208 5.40074 12.9052 10.9544
242 1 -1.1104 1.10748 8.64787 12.2233
244 1 -1.1104 1.11787 8.6109 9.44308
246 1 -1.1104 1.05447 5.88219 12.3755
247 1 -1.1104 1.14938 11.4484 12.2982
250 2 2.2208 5.30176 10.0795 8.20955
251 1 -1.1104 1.07765 5.9365 9.5807
252 1 -1.1104 0.994625 11.515 9.46833
255 1 -1.1104 3.86331 8.66044 12.3024
256 2 2.2208 2.43938 7.29207 8.07966
257 2 2.2208 2.48919 12.8217 8.17362
258 1 -1.1104 3.84732 8.62047 9.4634
259 2 2.2208 2.40804 10.0432 10.8768
260 1 -1.1104 3.8484 5.88395 12.3518
261 1 -1.1104 3.8942 11.5862 12.3891
262 1 -1.1104 3.81837 5.90737 9.53802
263 1 -1.1104 3.94768 11.4984 9.55512
245 1 -1.1104 6.55883 8.65115 9.48839
253 1 -1.1104 6.63637 5.90216 9.43615
243 1 -1.1104 6.608 8.68519 12.306
248 1 -1.1104 6.63315 5.90868 12.2933
249 1 -1.1104 6.68427 11.5041 12.2064
320 2 2.2208 8.15026 18.65 8.13745
237 1 -1.1104 6.64849 6.02552 6.55421
269 1 -1.1104 9.4441 5.91678 6.72758
265 1 -1.1104 12.3202 8.68342 6.69042
90 1 -1.1104 12.2501 11.4719 6.69989
267 1 -1.1104 9.48547 8.77487 6.68197
101 1 -1.1104 9.35326 11.4977 6.58975
202 2 2.2208 13.5998 7.34348 8.18559
254 1 -1.1104 6.75084 11.4702 9.4398
264 1 -1.1104 9.52406 11.5812 9.46725
268 1 -1.1104 9.39168 5.90841 9.52481
270 1 -1.1104 9.52763 11.423 12.1853
271 1 -1.1104 9.44255 5.93159 12.3423
272 2 2.2208 8.09365 10.094 10.8496
273 1 -1.1104 9.33168 8.80666 9.39845
274 2 2.2208 8.03537 12.9187 8.10772
275 2 2.2208 7.98345 7.28641 8.06665
276 2 2.2208 10.7396 7.28278 10.9361
277 2 2.2208 10.962 12.9206 10.8524
278 1 -1.1104 12.2433 8.73743 12.3344
279 1 -1.1104 12.0793 8.68828 9.55512
280 1 -1.1104 12.1471 5.8603 12.4199
281 1 -1.1104 12.244 11.5485 12.3897
282 2 2.2208 10.8233 10.1409 8.07544
283 1 -1.1104 12.1847 5.93065 9.5865
284 1 -1.1104 12.3214 11.4364 9.46704
285 1 -1.1104 9.43938 8.70176 12.2353
325 2 2.2208 10.8376 15.7067 8.14593
289 1 -1.1104 6.68357 17.0378 9.48938
366 2 2.2208 2.38392 4.55398 -0.332446
117 1 -1.1104 1.15558 17.15 6.58801
126 1 -1.1104 3.84055 19.9081 6.73416
302 1 -1.1104 1.15827 19.9578 6.78411
118 1 -1.1104 6.69317 17.1801 6.77813
317 2 2.2208 8.21382 15.7875 10.8684
290 1 -1.1104 6.72415 14.31 9.58135
296 1 -1.1104 6.74538 19.8871 12.2902
306 1 -1.1104 6.80793 17.0535 12.3009
288 1 -1.1104 6.73172 19.9818 9.5369
295 2 2.2208 5.36175 15.6205 8.20816
294 1 -1.1104 1.07697 14.2727 9.51928
298 1 -1.1104 1.2729 19.9499 12.2931
308 1 -1.1104 3.91068 17.0932 12.3246
303 2 2.2208 2.50959 18.5327 8.10393
307 1 -1.1104 1.10295 17.1125 12.3219
309 2 2.2208 2.57316 21.3532 10.992
301 1 -1.1104 3.83575 19.8338 9.61783
300 2 2.2208 5.32361 18.5022 10.8752
310 2 2.2208 2.54447 15.6349 10.8904
299 1 -1.1104 1.1656 14.2589 12.3048
305 1 -1.1104 4.00783 14.1874 9.38392
304 1 -1.1104 3.90635 17.0614 9.56679
286 1 -1.1104 3.94666 19.8859 12.3747
287 1 -1.1104 3.96504 14.275 12.2713
291 1 -1.1104 1.12529 19.933 9.559
292 1 -1.1104 1.09949 17.1008 9.39416
293 2 2.2208 5.23925 21.2873 8.15
329 1 -1.1104 12.3946 19.9145 12.3889
327 1 -1.1104 12.292 19.9258 9.62447
328 1 -1.1104 12.2411 14.3007 9.43477
315 1 -1.1104 9.57069 17.1441 12.2965
111 1 -1.1104 6.7159 14.2066 6.71431
149 1 -1.1104 12.2827 16.986 6.81685
156 1 -1.1104 9.57557 19.891 6.6995
145 1 -1.1104 12.3639 19.872 6.81669
322 1 -1.1104 9.68399 14.3681 12.308
318 1 -1.1104 9.52087 19.9817 9.46584
297 1 -1.1104 6.8174 14.3607 12.3252
316 2 2.2208 8.17659 21.3494 10.973
331 2 2.2208 10.9743 18.5984 10.9958
319 1 -1.1104 9.47137 14.3666 9.55027
377 2 2.2208 13.7665 -1.04083 -0.243796
9015 2 2.2208 13.5313 -3.87638 13.8365
387 2 2.2208 13.6563 10.2071 -0.287824
351 2 2.2208 2.49067 7.35116 13.658
353 2 2.2208 2.47109 12.9018 13.6679
378 2 2.2208 13.6644 4.61212 -0.27756
347 2 2.2208 7.98526 15.8095 -0.324265
370 2 2.2208 7.98593 -0.974609 -0.222618
335 2 2.2208 -0.270356 21.2309 13.7771
360 2 2.2208 10.8991 21.3797 13.7965
369 2 2.2208 10.7751 1.76021 -0.226121
374 2 2.2208 5.26855 18.5277 -0.230217
373 2 2.2208 2.45526 15.7515 -0.189264
386 2 2.2208 10.7893 12.937 -0.292684
365 2 2.2208 2.48441 -0.970178 -0.233299
388 2 2.2208 5.21327 1.78482 16.5108
389 1 -1.1104 1.01399 -2.45292 17.9852
390 1 -1.1104 1.17897 3.16066 17.8781
393 1 -1.1104 1.0688 -2.44253 15.1811
395 1 -1.1104 1.11436 3.11865 15.1251
401 1 -1.1104 0.979644 0.346485 17.9981
403 2 2.2208 5.29901 -1.03261 19.3662
404 2 2.2208 5.21663 4.56532 19.3007
405 1 -1.1104 1.16882 0.286613 15.1627
409 1 -1.1104 3.86135 -2.43788 17.9041
410 1 -1.1104 3.82759 3.15117 17.8057
411 2 2.2208 2.46505 1.74655 19.3385
412 1 -1.1104 3.87383 -2.50358 15.0682
414 1 -1.1104 3.90124 3.08202 14.973
416 2 2.2208 2.46173 -1.06429 16.567
417 2 2.2208 2.49752 4.54549 16.5254
418 1 -1.1104 3.81486 0.417078 17.9771
419 1 -1.1104 3.82099 0.311918 15.1664
391 1 -1.1104 6.62384 -2.48272 17.8758
397 1 -1.1104 6.61093 -2.49062 15.1178
402 1 -1.1104 6.64696 0.364316 17.9203
415 1 -1.1104 3.98161 3.11145 20.7282
396 1 -1.1104 1.11219 3.09814 20.728
407 1 -1.1104 6.616 0.330976 15.1507
399 1 -1.1104 6.66087 3.17356 15.0898
392 1 -1.1104 6.56692 3.15097 17.8013
9159 2 2.2208 5.21707 -3.87311 16.5913
398 1 -1.1104 6.71923 -2.4581 20.6874
9130 2 2.2208 13.6957 -3.88208 19.3841
400 1 -1.1104 6.64832 3.09358 20.7011
413 1 -1.1104 3.78778 -2.30114 20.7488
650 2 2.2208 13.7639 12.9284 19.3469
431 2 2.2208 10.7997 1.69378 16.5688
432 1 -1.1104 12.1949 -2.47384 18.0892
433 1 -1.1104 12.2385 3.10205 17.9582
434 1 -1.1104 12.1752 -2.54035 15.259
436 1 -1.1104 12.1766 3.0713 15.0183
438 1 -1.1104 12.2155 0.250508 17.9111
439 2 2.2208 10.8218 -1.00975 19.3637
440 2 2.2208 10.8568 4.53165 19.3806
441 1 -1.1104 12.1336 0.239247 15.1168
443 1 -1.1104 9.43226 -2.47929 17.969
444 1 -1.1104 9.40095 3.17457 17.9745
445 2 2.2208 8.05229 1.8378 19.3588
446 1 -1.1104 9.38927 -2.43505 15.1239
448 1 -1.1104 9.47807 3.19639 15.1657
450 2 2.2208 8.00866 -1.06416 16.5057
451 2 2.2208 7.98719 4.58559 16.4992
452 1 -1.1104 9.40839 0.366637 17.9338
453 1 -1.1104 9.44767 0.358207 15.058
429 2 2.2208 13.6117 4.48721 16.6017
9091 2 2.2208 13.7101 -3.83532 24.9369
447 1 -1.1104 9.48046 -2.33733 20.7366
9089 2 2.2208 8.14474 -3.78765 24.9909
408 1 -1.1104 6.69152 0.363849 20.7952
9129 2 2.2208 10.8233 -3.85855 16.5922
623 2 2.2208 -0.351861 18.6112 22.1508
458 2 2.2208 -0.236377 21.354 19.3083
9090 2 2.2208 10.8319 -3.82337 22.095
708 2 2.2208 13.6734 12.917 25.0134
464 2 2.2208 5.21372 7.30227 16.4568
465 2 2.2208 5.26811 12.9252 16.4341
466 1 -1.1104 0.955901 8.79205 17.713
468 1 -1.1104 1.15093 8.74993 14.9818
472 1 -1.1104 1.01159 5.9318 17.792
473 1 -1.1104 1.01203 11.6325 17.9384
476 2 2.2208 5.22223 10.113 19.2881
477 1 -1.1104 1.04313 6.01823 15.0241
479 1 -1.1104 0.992183 11.6987 15.2088
485 1 -1.1104 3.80533 8.70843 17.8839
486 2 2.2208 2.43105 7.35157 19.3367
487 2 2.2208 2.47408 12.9086 19.2248
488 1 -1.1104 3.83518 8.66384 15.1231
490 2 2.2208 2.51342 10.1771 16.5294
491 1 -1.1104 3.82215 5.84717 17.9342
492 1 -1.1104 3.88224 11.5439 17.8964
493 1 -1.1104 3.93022 5.83477 15.1387
495 1 -1.1104 3.72464 11.5485 15.102
481 1 -1.1104 6.64909 5.9363 15.0671
470 1 -1.1104 6.60565 8.7182 15.1437
480 1 -1.1104 1.07952 11.409 20.6562
474 1 -1.1104 6.67377 5.92505 17.9021
467 1 -1.1104 6.6232 8.72414 17.8842
475 1 -1.1104 6.5777 11.4683 17.8344
483 1 -1.1104 6.62289 11.5308 14.9967
496 1 -1.1104 3.87477 11.5497 20.7358
590 1 -1.1104 9.57428 20.1184 26.3258
494 1 -1.1104 3.81282 5.91436 20.6633
526 2 2.2208 10.9622 21.325 24.9262
500 2 2.2208 10.8174 7.43626 16.4906
501 2 2.2208 10.8866 13.052 16.5294
502 1 -1.1104 12.2433 8.8779 17.9007
503 1 -1.1104 12.2138 8.74856 15.1055
505 1 -1.1104 12.2385 5.99459 18.1049
506 1 -1.1104 12.3274 11.6514 17.8231
507 2 2.2208 10.9038 10.183 19.3004
508 1 -1.1104 12.3223 5.92119 15.2083
510 1 -1.1104 12.259 11.5098 15.077
512 1 -1.1104 9.42456 8.80764 17.905
513 2 2.2208 8.06995 7.39752 19.227
514 2 2.2208 8.03325 12.9922 19.3096
515 1 -1.1104 9.43698 8.83806 15.0383
517 2 2.2208 8.10297 10.1736 16.4453
518 1 -1.1104 9.42114 5.94331 17.7816
519 1 -1.1104 9.50454 11.5493 17.8898
520 1 -1.1104 9.43704 6.01806 15.0321
522 1 -1.1104 9.47823 11.6246 15.1335
509 1 -1.1104 12.1992 5.99141 20.857
463 1 -1.1104 12.2673 14.3613 23.5608
426 2 2.2208 13.676 10.2216 16.5588
560 1 -1.1104 12.2612 17.2689 26.4131
343 2 2.2208 8.04166 1.68374 13.7614
363 2 2.2208 13.7134 18.4631 13.7828
422 2 2.2208 13.6997 10.0672 22.1323
340 2 2.2208 13.5487 1.62449 13.7304
712 1 -1.1104 6.57565 14.4012 26.4683
527 2 2.2208 5.30337 18.4884 16.4456
528 1 -1.1104 1.17734 14.4614 18.0105
529 1 -1.1104 1.12464 19.9866 17.9136
532 1 -1.1104 1.18358 14.3781 15.2676
534 1 -1.1104 1.13509 19.9184 15.0736
540 1 -1.1104 1.12067 17.2221 17.8956
542 2 2.2208 5.28648 15.74 19.343
543 2 2.2208 5.20443 21.2446 19.3276
544 1 -1.1104 1.19084 17.1915 15.1314
548 1 -1.1104 4.02901 14.4307 17.9065
549 1 -1.1104 3.88457 19.9551 17.9549
550 2 2.2208 2.51803 18.5838 19.3495
551 1 -1.1104 3.89292 14.2863 15.1032
553 1 -1.1104 3.8233 19.9441 15.135
555 2 2.2208 2.55626 15.8053 16.5871
556 2 2.2208 2.51066 21.3791 16.5714
557 1 -1.1104 3.94453 17.2172 17.9529
558 1 -1.1104 4.03235 17.1147 15.031
539 1 -1.1104 6.72816 19.8636 20.7356
559 1 -1.1104 3.85361 17.099 20.7286
552 1 -1.1104 3.80278 14.3639 20.6437
536 1 -1.1104 6.74429 14.3206 15.0728
546 1 -1.1104 6.76825 17.1986 15.0727
538 1 -1.1104 6.63671 19.9335 15.1424
530 1 -1.1104 6.73114 14.3243 17.959
531 1 -1.1104 6.68034 19.9381 17.9097
545 1 -1.1104 1.05529 17.1156 20.6365
547 1 -1.1104 6.71576 17.0208 20.5822
620 1 -1.1104 9.42381 17.1869 26.3798
616 2 2.2208 8.14489 21.2714 22.074
359 2 2.2208 5.27617 15.6839 13.6817
428 2 2.2208 13.6381 1.65491 19.3301
541 1 -1.1104 6.79422 17.252 17.7208
569 1 -1.1104 12.2678 19.9764 20.6334
567 1 -1.1104 12.2776 14.33 20.6927
563 2 2.2208 10.9721 18.5669 16.5778
564 1 -1.1104 12.3644 14.358 17.8948
565 1 -1.1104 12.31 19.9411 17.9755
566 1 -1.1104 12.3011 14.2684 15.1532
568 1 -1.1104 12.2384 19.8948 15.1856
570 1 -1.1104 12.2791 17.1211 18.0441
571 2 2.2208 10.8332 15.7672 19.3245
572 2 2.2208 10.8322 21.3167 19.3206
573 1 -1.1104 12.4009 17.0439 15.233
575 1 -1.1104 9.46249 14.4426 17.9718
576 1 -1.1104 9.49355 19.9876 17.9614
577 2 2.2208 8.054 18.588 19.2342
578 1 -1.1104 9.44907 14.3833 15.1504
580 1 -1.1104 9.54887 19.9969 15.1946
582 2 2.2208 8.10033 15.7821 16.4778
583 2 2.2208 8.13812 21.3986 16.5656
584 1 -1.1104 9.53305 17.1973 17.89
585 1 -1.1104 9.57777 17.1024 15.1363
586 1 -1.1104 9.39785 17.1094 20.678
579 1 -1.1104 9.49395 14.2907 20.8208
423 2 2.2208 13.5998 4.51093 22.174
352 2 2.2208 5.25729 10.0881 13.6364
589 1 -1.1104 9.36034 14.5129 26.2377
354 2 2.2208 8.03721 7.31512 13.7307
362 2 2.2208 8.20575 18.5575 13.7303
420 1 -1.1104 3.82889 0.371486 20.7172
394 1 -1.1104 1.02073 -2.49141 20.8043
406 1 -1.1104 1.0059 0.32466 20.7321
581 1 -1.1104 9.41596 19.8614 20.7601
588 1 -1.1104 6.74854 19.9261 26.3944
591 2 2.2208 5.23308 1.75033 22.1203
592 1 -1.1104 1.06322 -2.4813 23.6448
593 1 -1.1104 0.965412 3.20814 23.4326
596 1 -1.1104 1.09681 -2.47975 26.352
597 1 -1.1104 0.957706 3.05618 26.2425
600 1 -1.1104 1.024 0.353432 23.6313
602 2 2.2208 5.16778 -1.02374 24.9093
603 2 2.2208 5.17662 4.57158 24.917
604 1 -1.1104 1.01663 0.273891 26.3594
606 1 -1.1104 3.87803 -2.41171 23.5973
607 1 -1.1104 3.76937 3.13759 23.5226
608 2 2.2208 2.36609 1.75984 24.8988
609 1 -1.1104 3.95699 -2.42057 26.3232
610 1 -1.1104 3.82135 3.29422 26.3313
611 2 2.2208 2.38698 -1.02953 22.2026
612 2 2.2208 2.47627 4.60317 22.1502
613 1 -1.1104 3.79167 0.385921 23.4851
614 1 -1.1104 3.85385 0.451054 26.2781
598 1 -1.1104 6.72832 -2.34351 26.2819
601 1 -1.1104 6.66229 0.362151 23.5358
595 1 -1.1104 6.52529 3.14487 23.4986
594 1 -1.1104 6.66278 -2.4443 23.5137
599 1 -1.1104 6.5832 3.08014 26.3102
524 1 -1.1104 12.277 17.2151 23.5118
648 2 2.2208 -0.34329 13.0161 16.4962
449 1 -1.1104 9.41744 3.1942 20.7548
442 1 -1.1104 12.1273 0.390475 20.7178
435 1 -1.1104 12.1531 -2.37506 20.7823
437 1 -1.1104 12.2009 3.09774 20.7082
562 1 -1.1104 9.59082 19.8978 23.498
421 2 2.2208 -0.391654 7.29063 22.1337
653 2 2.2208 13.6209 -1.04429 22.1503
605 1 -1.1104 6.58895 0.408124 26.3838
454 1 -1.1104 9.44077 0.459476 20.7978
627 2 2.2208 10.8186 1.72116 22.172
628 1 -1.1104 12.2254 -2.4247 23.4823
629 1 -1.1104 12.2893 3.09789 23.5257
630 1 -1.1104 12.2603 -2.3555 26.3792
631 1 -1.1104 12.1416 3.18311 26.3379
632 1 -1.1104 12.3033 0.285696 23.541
633 2 2.2208 10.8359 -1.00648 24.958
634 2 2.2208 10.8957 4.55165 24.9895
635 1 -1.1104 12.1879 0.454049 26.3208
636 1 -1.1104 9.47953 -2.46254 23.61
637 1 -1.1104 9.40321 3.1846 23.5303
638 2 2.2208 7.97021 1.81665 24.971
639 1 -1.1104 9.5121 -2.37029 26.3053
640 1 -1.1104 9.34769 3.26082 26.3326
641 2 2.2208 8.03461 -1.04197 22.1182
642 2 2.2208 8.04498 4.56123 22.1306
643 1 -1.1104 9.40927 0.445933 23.5357
644 1 -1.1104 9.41656 0.408947 26.254
654 2 2.2208 13.6605 1.71118 25.0231
617 1 -1.1104 9.44399 17.0076 23.4855
489 1 -1.1104 3.88987 8.70692 20.664
484 1 -1.1104 6.60944 11.6088 20.6259
478 1 -1.1104 1.05303 5.89596 20.6309
482 1 -1.1104 6.55758 5.95616 20.7044
471 1 -1.1104 6.72225 8.78732 20.708
469 1 -1.1104 1.00801 8.657 20.6565
656 2 2.2208 5.29102 7.39075 22.0725
657 2 2.2208 5.23915 12.9829 22.0748
658 1 -1.1104 0.990225 8.83051 23.5016
660 1 -1.1104 1.07731 8.72869 26.2393
662 1 -1.1104 1.00036 5.98099 23.4415
663 1 -1.1104 1.02134 11.5799 23.428
666 2 2.2208 5.29568 10.1564 24.833
667 1 -1.1104 1.05917 5.91828 26.179
668 1 -1.1104 1.12991 11.5058 26.2432
671 1 -1.1104 3.88332 8.80916 23.3105
672 2 2.2208 2.41288 7.37094 24.7918
673 2 2.2208 2.41901 12.8819 24.8423
674 1 -1.1104 3.90558 8.74607 26.1246
675 2 2.2208 2.42287 10.1161 22.0445
676 1 -1.1104 3.78285 6.00373 23.4714
677 1 -1.1104 3.8152 11.6178 23.4971
678 1 -1.1104 3.86229 5.96849 26.2511
679 1 -1.1104 3.91381 11.5231 26.2475
665 1 -1.1104 6.62748 11.5829 23.4798
670 1 -1.1104 6.70514 11.6258 26.2112
561 1 -1.1104 9.51728 14.3233 23.5724
523 1 -1.1104 9.47901 11.5989 20.773
504 1 -1.1104 12.329 8.85328 20.6414
516 1 -1.1104 9.57206 8.82564 20.6635
511 1 -1.1104 12.3495 11.5419 20.7334
669 1 -1.1104 6.69583 5.96732 26.3081
664 1 -1.1104 6.58786 6.03878 23.5109
661 1 -1.1104 6.66435 8.79777 26.2587
587 2 2.2208 8.17417 18.6013 24.8874
521 1 -1.1104 9.33385 6.0154 20.636
659 1 -1.1104 6.70821 8.90772 23.4749
710 2 2.2208 13.7067 7.32278 24.8597
687 1 -1.1104 9.50618 11.5944 26.2723
688 1 -1.1104 9.54479 5.98 26.3307
689 1 -1.1104 9.50272 11.4268 23.4474
690 1 -1.1104 9.3607 5.96192 23.5208
691 2 2.2208 8.03344 10.1765 22.0787
692 1 -1.1104 9.42766 8.89014 26.3953
693 2 2.2208 8.15479 12.9709 24.893
694 2 2.2208 8.07741 7.42279 24.9943
695 2 2.2208 10.8256 7.32138 22.1695
696 2 2.2208 11 12.9212 22.1429
697 1 -1.1104 12.3075 8.61348 23.4657
698 1 -1.1104 12.199 8.8962 26.263
699 1 -1.1104 12.1838 5.9097 23.5752
700 1 -1.1104 12.2766 11.5434 23.4527
701 2 2.2208 10.8849 10.1917 24.8307
702 1 -1.1104 12.3355 6.06408 26.3534
703 1 -1.1104 12.2327 11.6165 26.2665
704 1 -1.1104 9.49267 8.79128 23.492
498 1 -1.1104 12.1917 14.4057 26.3639
615 2 2.2208 8.08455 15.6726 22.1773
535 1 -1.1104 1.09467 19.942 20.7078
554 1 -1.1104 3.97018 19.8363 20.8003
533 1 -1.1104 1.06504 14.1669 20.7084
537 1 -1.1104 6.6926 14.3327 20.7603
525 2 2.2208 10.891 15.7564 24.9572
709 1 -1.1104 6.6723 14.3527 23.6235
718 1 -1.1104 6.73301 19.9842 23.5269
358 2 2.2208 5.36151 21.3522 13.7209
714 1 -1.1104 6.76083 17.2067 26.1898
647 2 2.2208 2.40565 15.6586 22.0487
649 2 2.2208 2.55546 21.2075 22.2275
652 1 -1.1104 3.90317 17.0963 23.4624
655 1 -1.1104 1.06771 17.089 23.3685
681 1 -1.1104 3.82092 14.4126 26.3336
682 1 -1.1104 3.96311 17.1699 26.2689
683 2 2.2208 2.58549 18.4728 24.8576
686 1 -1.1104 3.94361 19.9338 26.3928
705 2 2.2208 5.31696 18.4506 22.1401
706 1 -1.1104 1.14486 14.333 23.511
707 1 -1.1104 1.03434 19.8464 23.5259
711 1 -1.1104 3.91695 19.8442 23.654
713 1 -1.1104 3.92009 14.4118 23.5119
715 1 -1.1104 1.1907 19.9748 26.2968
716 1 -1.1104 1.19348 17.1626 26.2413
717 1 -1.1104 1.02199 14.2951 26.3094
719 2 2.2208 5.37287 21.3522 24.9384
720 2 2.2208 5.32838 15.7771 24.9139
680 1 -1.1104 6.66034 17.1957 23.5022
685 2 2.2208 -0.338864 12.949 22.0834
462 2 2.2208 10.9405 18.4816 22.1512
497 1 -1.1104 12.3824 19.9071 23.6238
574 1 -1.1104 12.2354 17.1077 20.8427
499 1 -1.1104 12.3191 19.9215 26.3585
9127 2 2.2208 -0.50306 -3.87843 22.1519
619 2 2.2208 13.7533 15.7601 16.5973
456 2 2.2208 -0.302109 18.5477 16.5476
618 2 2.2208 13.7351 18.5615 19.2843
622 2 2.2208 -0.367868 10.1665 19.2414
355 2 2.2208 10.9496 10.1364 13.7281
646 2 2.2208 -0.318856 15.84 24.8943
367 2 2.2208 -0.312489 10.1306 13.6753
430 2 2.2208 13.6749 15.7414 22.1284
457 2 2.2208 -0.318127 15.7597 19.3037
9020 2 2.2208 2.37443 -3.84004 13.7365
361 2 2.2208 10.842 15.717 13.6877
357 2 2.2208 2.54416 18.486 13.6234
379 2 2.2208 5.17089 7.30307 27.659
341 2 2.2208 5.22177 4.50479 13.6842
350 2 2.2208 10.8362 4.52738 13.6894
336 2 2.2208 13.6396 7.33544 13.7396
364 2 2.2208 5.18229 1.80815 27.7717
385 2 2.2208 7.9762 10.1779 27.6664
339 2 2.2208 2.44361 1.67248 13.6495
346 2 2.2208 10.7611 -1.08997 13.7314
356 2 2.2208 8.18634 13.0055 13.6487
338 2 2.2208 5.17965 -1.11574 13.7647
721 2 2.2208 5.34326 24.1193 5.31957
722 2 2.2208 5.30795 29.7486 5.25471
723 1 -1.1104 1.08729 25.6782 1.205
724 1 -1.1104 1.18989 25.5691 4.05243
725 1 -1.1104 1.12178 22.8636 1.30988
726 1 -1.1104 1.12526 28.3504 1.08198
727 2 2.2208 5.26606 26.9673 2.56688
728 1 -1.1104 1.17458 22.7621 3.97958
729 1 -1.1104 1.22538 28.4318 3.8783
730 1 -1.1104 3.91485 25.4916 1.10645
731 2 2.2208 2.52071 24.1504 2.57068
732 2 2.2208 2.54755 29.7486 2.49382
733 1 -1.1104 3.97548 25.5735 3.95951
734 2 2.2208 2.61994 26.8364 5.31729
735 1 -1.1104 3.8803 22.7452 1.14525
736 1 -1.1104 3.95045 28.3806 1.05548
737 1 -1.1104 3.90727 22.7443 3.96595
738 1 -1.1104 3.88107 28.2842 3.95043
864 1 -1.1104 1.1955 22.7247 6.63565
868 1 -1.1104 4.0331 25.5629 6.65902
747 1 -1.1104 6.66103 28.3256 3.92466
746 1 -1.1104 6.65887 22.6554 3.93438
744 1 -1.1104 6.65352 22.7679 1.19399
745 1 -1.1104 6.6259 28.2832 0.973759
742 1 -1.1104 6.72428 25.5197 1.14833
866 1 -1.1104 6.74406 22.6908 6.79646
1082 2 2.2208 -0.152072 35.3676 -0.40015
792 2 2.2208 -0.230262 38.1284 2.555
743 1 -1.1104 6.71959 25.5425 3.93075
867 1 -1.1104 6.70777 28.2523 6.62633
748 2 2.2208 10.9811 24.138 5.33054
749 2 2.2208 10.9259 29.6945 5.25865
750 1 -1.1104 12.3098 25.4327 1.11095
751 1 -1.1104 12.3449 25.534 3.90258
752 1 -1.1104 12.2466 22.7747 1.29605
753 1 -1.1104 12.35 28.2433 1.07995
754 2 2.2208 10.9488 26.8259 2.47306
755 1 -1.1104 12.3284 22.711 4.02873
756 1 -1.1104 12.3693 28.3317 3.82576
757 1 -1.1104 9.47081 25.4687 1.15492
758 2 2.2208 8.0922 24.0734 2.57053
759 2 2.2208 8.12351 29.6656 2.41462
760 1 -1.1104 9.60849 25.4539 3.90093
761 2 2.2208 8.1221 26.927 5.27216
762 1 -1.1104 9.47591 22.6971 1.06772
763 1 -1.1104 9.57349 28.2877 1.03896
764 1 -1.1104 9.44748 22.7079 3.95978
765 1 -1.1104 9.49426 28.2857 3.81002
1625 1 -1.1104 3.84013 47.996 12.2346
1077 2 2.2208 10.9934 29.6545 -0.251055
1075 2 2.2208 8.06401 26.8062 -0.356207
1014 2 2.2208 8.11392 41.006 8.04949
1006 2 2.2208 -0.17961 40.9211 10.8163
1071 2 2.2208 2.51691 26.9878 -0.321029
769 2 2.2208 5.42576 35.3548 5.38047
770 1 -1.1104 1.16887 31.2208 1.14705
771 1 -1.1104 1.14743 36.7499 1.08729
773 1 -1.1104 1.22651 31.2933 3.93066
774 1 -1.1104 1.2104 36.7582 3.98087
776 1 -1.1104 1.17239 33.9593 1.06817
777 2 2.2208 5.27029 32.604 2.5559
778 2 2.2208 5.39273 38.0912 2.52219
779 1 -1.1104 1.22194 34.0102 3.88782
781 1 -1.1104 3.89755 31.1606 1.07333
782 1 -1.1104 3.99064 36.7346 1.22955
783 2 2.2208 2.56112 35.3861 2.6477
784 1 -1.1104 3.95238 31.0719 3.86074
785 1 -1.1104 3.95209 36.766 3.98216
786 2 2.2208 2.56057 32.5594 5.36317
787 2 2.2208 2.58156 38.1173 5.422
788 1 -1.1104 3.96521 33.9504 1.2365
789 1 -1.1104 3.95681 34.0113 4.06088
926 1 -1.1104 3.90781 36.6914 6.83543
925 1 -1.1104 4.0212 31.1996 6.67079
794 1 -1.1104 6.75408 31.085 3.88606
795 1 -1.1104 6.79096 33.9391 1.16317
922 1 -1.1104 6.65168 36.7957 6.61976
793 1 -1.1104 6.71176 31.1565 1.12366
920 1 -1.1104 1.1986 36.7649 6.78184
921 1 -1.1104 6.79451 31.0664 6.671
790 2 2.2208 -0.238844 35.3451 5.35562
923 1 -1.1104 1.21547 34.0935 6.77214
924 1 -1.1104 6.69761 33.883 6.76742
780 1 -1.1104 6.69381 33.9333 4.04396
772 1 -1.1104 6.77133 36.6141 1.15031
775 1 -1.1104 6.71748 36.7883 3.95066
796 2 2.2208 10.8894 35.3738 5.42384
797 1 -1.1104 12.3617 31.0861 1.10034
798 1 -1.1104 12.2605 36.6803 0.979631
799 1 -1.1104 12.2408 31.1338 3.85347
800 1 -1.1104 12.3439 36.686 3.87608
801 1 -1.1104 12.3482 33.8383 1.17145
802 2 2.2208 10.9286 32.4832 2.55637
803 2 2.2208 11.0769 38.1439 2.52583
804 1 -1.1104 12.3135 33.9364 3.9485
805 1 -1.1104 9.53652 31.0669 1.02753
806 1 -1.1104 9.56195 36.6989 1.13205
807 2 2.2208 8.15103 35.3619 2.53057
808 1 -1.1104 9.445 31.0928 3.88699
809 1 -1.1104 9.5558 36.7578 3.88633
810 2 2.2208 8.14036 32.4861 5.26336
811 2 2.2208 8.19895 38.1349 5.32761