LAMMPS (29 Oct 2020)
OMP_NUM_THREADS environment is not set. Defaulting to 1 thread. (../comm.cpp:94)
  using 1 OpenMP thread(s) per MPI task
#-------------------------
#
#This script is used to create different concentrations of vacancies in thorium dioxide
#By Ziqiang Wang on 07/03/2023
#
#-------------------------

clear
OMP_NUM_THREADS environment is not set. Defaulting to 1 thread. (../comm.cpp:94)
  using 1 OpenMP thread(s) per MPI task
units                        metal
dimension                        3
boundary                     p p p
atom_style                   full
atom_modify                  map array

read_data                   perfect_relaxed.dat
Reading data file ...
  orthogonal box = (-0.27717828 -3.4472206 -0.27717828) to (27.617178 331.52722 27.617178)
  2 by 13 by 2 MPI processor grid
  reading atoms ...
  18000 atoms
  reading velocities ...
  18000 velocities
Finding 1-2 1-3 1-4 neighbors ...
  special bond factors lj:    0.0      0.0      0.0     
  special bond factors coul:  0.0      0.0      0.0     
     0 = max # of 1-2 neighbors
     0 = max # of 1-3 neighbors
     0 = max # of 1-4 neighbors
     1 = max # of special neighbors
  special bonds CPU = 0.003 seconds
  read_data CPU = 0.055 seconds

# randomly create vacancies in the relaxed perfect crystal
variable         n               equal    20
variable         vac_ratio       equal    0.02
region           sphere    sphere     13.67 52.3819 13.67 7.5  units box
group            sphere     region  sphere
131 atoms in group sphere
group            oxygen     id 7711 7817 7759 7889 7715 7845 7787 7893
8 atoms in group oxygen
group            thorium    id 7885 7897 7887
3 atoms in group thorium
group            cluster          subtract sphere oxygen thorium
120 atoms in group cluster
#group            cluster          union    1 thorium
group            Th       type     2
6000 atoms in group Th
group            O        type     1
12000 atoms in group O
group            Th_group   intersect  cluster   Th
40 atoms in group Th_group
group            O_group    intersect  cluster   O
80 atoms in group O_group
set              group      Th_group   type/subset   3   $n   52565
set              group      Th_group   type/subset   3   20   52565
Setting atom values ...
  20 settings made for type/subset
group            Xe         type       3
20 atoms in group Xe
group            delete     subtract   cluster   Xe
100 atoms in group delete
delete_atoms     group      delete
WARNING: Ignoring 'compress yes' for molecular system (../delete_atoms.cpp:125)
Deleted 100 atoms, new total = 17900
group            Xe         delete
group            delete     delete

region           sphere     delete
group            sphere     delete
group            oxygen     delete
group            thorium    delete
#group            1          delete
group            cluster    delete
group            Th         delete
group            O          delete
group            Th_group   delete
group            O_group    delete

region           sphere    sphere     13.67 119.377 13.67 7.5  units box
group            sphere     region  sphere
131 atoms in group sphere
group            oxygen     id 8479 8537 8431 8609 8507 8565 8435 8613
8 atoms in group oxygen
group            thorium    id 8605 8607 8617
3 atoms in group thorium
group            cluster          subtract sphere thorium oxygen
120 atoms in group cluster
#group            cluster          union    1 oxygen
group            Th       type     2
5960 atoms in group Th
group            O        type     1
11920 atoms in group O
group            Th_group   intersect  cluster   Th
40 atoms in group Th_group
group            O_group    intersect  cluster   O
80 atoms in group O_group
set              group      Th_group   type/subset   3   $n   52565
set              group      Th_group   type/subset   3   20   52565
Setting atom values ...
  20 settings made for type/subset
group            Xe         type       3
40 atoms in group Xe
group            delete     subtract   cluster   Xe
100 atoms in group delete
delete_atoms     group      delete
WARNING: Ignoring 'compress yes' for molecular system (../delete_atoms.cpp:125)
Deleted 100 atoms, new total = 17800
group            Xe         delete
group            delete     delete

region           sphere     delete
group            sphere     delete
group            oxygen     delete
group            thorium    delete
#group            1          delete
group            cluster    delete
group            Th         delete
group            O          delete
group            Th_group   delete
group            O_group    delete

region           sphere    sphere     13.67 275.698 13.67 7.5  units box
group            sphere     region  sphere
131 atoms in group sphere
group            oxygen     id 10111 10217 10159 10289 10187 10115 10245 10293
8 atoms in group oxygen
group            thorium    id 10285 10297 10287
3 atoms in group thorium
group            cluster          subtract sphere thorium oxygen
120 atoms in group cluster
#group            cluster          union    1 oxygen
group            Th       type     2
5920 atoms in group Th
group            O        type     1
11840 atoms in group O
group            Th_group   intersect  cluster   Th
40 atoms in group Th_group
group            O_group    intersect  cluster   O
80 atoms in group O_group
set              group      Th_group   type/subset   3   $n   52565
set              group      Th_group   type/subset   3   20   52565
Setting atom values ...
  20 settings made for type/subset
group            Xe         type       3
60 atoms in group Xe
group            delete     subtract   cluster   Xe
100 atoms in group delete
delete_atoms     group      delete
WARNING: Ignoring 'compress yes' for molecular system (../delete_atoms.cpp:125)
Deleted 100 atoms, new total = 17700
group            Xe         delete
group            delete     delete

region           sphere     delete
group            sphere     delete
group            oxygen     delete
group            thorium    delete
#group            1          delete
group            cluster    delete
group            Th         delete
group            O          delete
group            Th_group   delete
group            O_group    delete


set                         type    1      charge   -1.1104
Setting atom values ...
  11760 settings made for charge
set                         type    2      charge    2.2208
Setting atom values ...
  5880 settings made for charge
set                         type    3      charge    0.0
Setting atom values ...
  60 settings made for charge
kspace_style                pppm     1.0e-05
pair_style                  hybrid/overlay  coul/long   11.0  eam/alloy  table  linear  1000  pppm
pair_coeff                  * * coul/long
pair_coeff                  * * eam/alloy CeThUNpPuAmCmO.eam.alloy O Th NULL
pair_coeff                  3 3 table CRG_gas_potentials.lmptab Xe-Xe 11
WARNING: 13 of 1000 force values in table Xe-Xe are inconsistent with -dE/dr.
  Should only be flagged at inflection points (../pair_table.cpp:461)
pair_coeff                  1 3 table CRG_gas_potentials.lmptab Xe-O 11
WARNING: 2 of 1000 force values in table Xe-O are inconsistent with -dE/dr.
  Should only be flagged at inflection points (../pair_table.cpp:461)
pair_coeff                  2 3 table CRG_gas_potentials.lmptab Xe-Th 11
WARNING: 2 of 1000 force values in table Xe-Th are inconsistent with -dE/dr.
  Should only be flagged at inflection points (../pair_table.cpp:461)
neighbor                    2.0  bin
neigh_modify                every  1  delay  0  check  yes

# fully relaxing the defect configuration at 0K
fix                box_relax  all  box/relax aniso 0.0 vmax 0.001
min_style          cg
minimize           1.0e-30 1.0e-30 10000 10000
PPPM initialization ...
  using 12-bit tables for long-range coulomb (../kspace.cpp:328)
  G vector (1/distance) = 0.29911702
  grid = 40 240 40
  stencil order = 5
  estimated absolute RMS force accuracy = 0.00015352568
  estimated relative force accuracy = 1.0661769e-05
  using single precision MKL FFT
  3d grid and FFT values/proc = 18225 7600
Neighbor list info ...
  update every 1 steps, delay 0 steps, check yes
  max neighbors/atom: 2000, page size: 100000
  master list distance cutoff = 13
  ghost atom cutoff = 13
  binsize = 6.5, bins = 5 52 5
  3 neighbor lists, perpetual/occasional/extra = 3 0 0
  (1) pair coul/long, perpetual
      attributes: half, newton on
      pair build: half/bin/newton
      stencil: half/bin/3d/newton
      bin: standard
  (2) pair eam/alloy, perpetual, skip from (1)
      attributes: half, newton on
      pair build: skip
      stencil: none
      bin: none
  (3) pair table, perpetual, skip from (1)
      attributes: half, newton on
      pair build: skip
      stencil: none
      bin: none
Per MPI rank memory allocation (min/avg/max) = 10.35 | 10.99 | 11.16 Mbytes
Step Temp E_pair E_mol TotEng Press Volume 
       0            0   -231518.54            0   -231518.54    658.00677    260641.98 
      89            0   -231798.27            0   -231798.27    170.68173    260951.95 
Loop time of 1.82263 on 52 procs for 89 steps with 17700 atoms

99.1% CPU use with 52 MPI tasks x 1 OpenMP threads

Minimization stats:
  Stopping criterion = linesearch alpha is zero
  Energy initial, next-to-last, final = 
     -231518.544164342  -231798.271065172  -231798.271065172
  Force two-norm initial, final = 348.23429 50.966670
  Force max component initial, final = 225.69312 38.305958
  Final line search alpha, max atom move = 2.4209114e-12 9.2735329e-11
  Iterations, force evaluations = 89 164

MPI task timing breakdown:
Section |  min time  |  avg time  |  max time  |%varavg| %total
---------------------------------------------------------------
Pair    | 0.99366    | 1.0564     | 1.1352     |   3.4 | 57.96
Bond    | 1.5331e-05 | 2.4815e-05 | 4.3452e-05 |   0.0 |  0.00
Kspace  | 0.32171    | 0.40142    | 0.46482    |   5.6 | 22.02
Neigh   | 0          | 0          | 0          |   0.0 |  0.00
Comm    | 0.033859   | 0.035789   | 0.037854   |   0.5 |  1.96
Output  | 0          | 0          | 0          |   0.0 |  0.00
Modify  | 0          | 0          | 0          |   0.0 |  0.00
Other   |            | 0.329      |            |       | 18.05

Nlocal:        340.385 ave         404 max         295 min
Histogram: 7 6 4 9 4 9 6 4 1 2
Nghost:        5563.42 ave        5833 max        5319 min
Histogram: 12 4 1 4 3 4 6 10 6 2
Neighs:       108233.0 ave      130396 max       86866 min
Histogram: 3 3 8 4 9 6 9 4 4 2

Total # of neighbors = 5628119
Ave neighs/atom = 317.97282
Ave special neighs/atom = 0.0000000
Neighbor list builds = 0
Dangerous builds = 0
unfix              box_relax

# apply the temperature into the system and relaxing at the temperature of interest
reset_atom_ids
Resetting atom IDs ...
PPPM initialization ...
  using 12-bit tables for long-range coulomb (../kspace.cpp:328)
  G vector (1/distance) = 0.29910207
  grid = 40 240 40
  stencil order = 5
  estimated absolute RMS force accuracy = 0.00015361189
  estimated relative force accuracy = 1.0667755e-05
  using single precision MKL FFT
  3d grid and FFT values/proc = 18225 7600
Neighbor list info ...
  update every 1 steps, delay 0 steps, check yes
  max neighbors/atom: 2000, page size: 100000
  master list distance cutoff = 13
  ghost atom cutoff = 13
  binsize = 6.5, bins = 5 52 5
  3 neighbor lists, perpetual/occasional/extra = 3 0 0
  (1) pair coul/long, perpetual
      attributes: half, newton on
      pair build: half/bin/newton
      stencil: half/bin/3d/newton
      bin: standard
  (2) pair eam/alloy, perpetual, skip from (1)
      attributes: half, newton on
      pair build: skip
      stencil: none
      bin: none
  (3) pair table, perpetual, skip from (1)
      attributes: half, newton on
      pair build: skip
      stencil: none
      bin: none
Finding 1-2 1-3 1-4 neighbors ...
  special bond factors lj:    0.0      0.0      0.0     
  special bond factors coul:  0.0      0.0      0.0     
     0 = max # of 1-2 neighbors
     0 = max # of 1-3 neighbors
     0 = max # of 1-4 neighbors
     1 = max # of special neighbors
  special bonds CPU = 0.001 seconds
variable                    temp      equal    300
velocity                    all  create   ${temp}  4542  dist  gaussian  rot  yes  mom  yes
velocity                    all  create   300  4542  dist  gaussian  rot  yes  mom  yes
fix                         npt  all  npt  temp  ${temp}  ${temp}  $(100*dt) aniso  0.0  0.0  $(1000*dt)
fix                         npt  all  npt  temp  300  ${temp}  $(100*dt) aniso  0.0  0.0  $(1000*dt)
fix                         npt  all  npt  temp  300  300  $(100*dt) aniso  0.0  0.0  $(1000*dt)
fix                         npt  all  npt  temp  300  300  0.10000000000000000555 aniso  0.0  0.0  $(1000*dt)
fix                         npt  all  npt  temp  300  300  0.10000000000000000555 aniso  0.0  0.0  1

thermo                      20000
thermo_style                custom   step dt time atoms temp pe ke press vol

shell                       mkdir vac_${vac_ratio}_${temp}K
shell                       mkdir vac_0.02_${temp}K
shell                       mkdir vac_0.02_300K
dump                        1  all  custom  20000  ./vac_${vac_ratio}_${temp}K/dump_relax.atom.* id type q x y z
dump                        1  all  custom  20000  ./vac_0.02_${temp}K/dump_relax.atom.* id type q x y z
dump                        1  all  custom  20000  ./vac_0.02_300K/dump_relax.atom.* id type q x y z
dump_modify                 1  element  O  Th  Xe

run                         100000
PPPM initialization ...
  using 12-bit tables for long-range coulomb (../kspace.cpp:328)
  G vector (1/distance) = 0.29910207
  grid = 40 240 40
  stencil order = 5
  estimated absolute RMS force accuracy = 0.00015361189
  estimated relative force accuracy = 1.0667755e-05
  using single precision MKL FFT
  3d grid and FFT values/proc = 18225 7600
Neighbor list info ...
  update every 1 steps, delay 0 steps, check yes
  max neighbors/atom: 2000, page size: 100000
  master list distance cutoff = 13
  ghost atom cutoff = 13
  binsize = 6.5, bins = 5 52 5
  3 neighbor lists, perpetual/occasional/extra = 3 0 0
  (1) pair coul/long, perpetual
      attributes: half, newton on
      pair build: half/bin/newton
      stencil: half/bin/3d/newton
      bin: standard
  (2) pair eam/alloy, perpetual, skip from (1)
      attributes: half, newton on
      pair build: skip
      stencil: none
      bin: none
  (3) pair table, perpetual, skip from (1)
      attributes: half, newton on
      pair build: skip
      stencil: none
      bin: none
Per MPI rank memory allocation (min/avg/max) = 9.221 | 9.871 | 10.04 Mbytes
Step Dt Time Atoms Temp PotEng KinEng Press Volume 
      89        0.001            0    17700          300   -231798.27    686.33259    2979.9158    260951.95 
   20000        0.001       19.911    17700    298.58232   -231209.32    683.08925    211.90299    262890.89 
   40000        0.001       39.911    17700    303.47975   -231219.45    694.29348    -132.3464    262853.33 
   60000        0.001       59.911    17700    299.07643   -231217.51    684.21966   -12.687506    262863.19 
   80000        0.001       79.911    17700    298.88083   -231216.98    683.77218    935.96989     262706.9 
  100000        0.001       99.911    17700    298.01153   -231212.78    681.78343   -44.166527    262896.41 
  100089        0.001          100    17700    296.87065   -231213.83    679.17333    354.85486    262842.18 
Loop time of 825.902 on 52 procs for 100000 steps with 17700 atoms

Performance: 10.461 ns/day, 2.294 hours/ns, 121.080 timesteps/s
99.8% CPU use with 52 MPI tasks x 1 OpenMP threads

MPI task timing breakdown:
Section |  min time  |  avg time  |  max time  |%varavg| %total
---------------------------------------------------------------
Pair    | 480.84     | 500.12     | 525.84     |  50.2 | 60.55
Bond    | 0.0095254  | 0.018768   | 0.029218   |   3.2 |  0.00
Kspace  | 174.96     | 201.38     | 221.6      |  80.4 | 24.38
Neigh   | 1.5121     | 1.6804     | 1.813      |   5.2 |  0.20
Comm    | 22.809     | 23.912     | 25.079     |  13.5 |  2.90
Output  | 0.031166   | 0.031196   | 0.032192   |   0.1 |  0.00
Modify  | 83.133     | 87.116     | 92.529     |  24.6 | 10.55
Other   |            | 11.64      |            |       |  1.41

Nlocal:        340.385 ave         370 max         322 min
Histogram: 3 3 11 13 10 6 2 2 1 1
Nghost:        5535.92 ave        5703 max        5339 min
Histogram: 16 1 3 1 3 4 0 3 1 20
Neighs:       108338.0 ave      120411 max       94608 min
Histogram: 1 3 3 3 7 15 14 2 3 1

Total # of neighbors = 5633562
Ave neighs/atom = 318.28034
Ave special neighs/atom = 0.0000000
Neighbor list builds = 542
Dangerous builds = 0
shell                       mkdir thermal_condu
write_data                  thermal_condu/vac_${vac_ratio}_relaxed.dat
write_data                  thermal_condu/vac_0.02_relaxed.dat
System init for write_data ...
PPPM initialization ...
  using 12-bit tables for long-range coulomb (../kspace.cpp:328)
  G vector (1/distance) = 0.29896928
  grid = 40 240 40
  stencil order = 5
  estimated absolute RMS force accuracy = 0.00015467593
  estimated relative force accuracy = 1.0741649e-05
  using single precision MKL FFT
  3d grid and FFT values/proc = 18225 7600
Neighbor list info ...
  update every 1 steps, delay 0 steps, check yes
  max neighbors/atom: 2000, page size: 100000
  master list distance cutoff = 13
  ghost atom cutoff = 13
  binsize = 6.5, bins = 5 52 5
  3 neighbor lists, perpetual/occasional/extra = 3 0 0
  (1) pair coul/long, perpetual
      attributes: half, newton on
      pair build: half/bin/newton
      stencil: half/bin/3d/newton
      bin: standard
  (2) pair eam/alloy, perpetual, skip from (1)
      attributes: half, newton on
      pair build: skip
      stencil: none
      bin: none
  (3) pair table, perpetual, skip from (1)
      attributes: half, newton on
      pair build: skip
      stencil: none
      bin: none
Total wall time: 0:13:48
