ITEM: TIMESTEP
60000
ITEM: NUMBER OF ATOMS
17700
ITEM: BOX BOUNDS pp pp pp
-4.3881445828015431e-01 2.7778814458280646e+01
-5.3928672576297298e+00 3.3347286725762302e+02
-4.3790000960264408e-01 2.7777900009603041e+01
ITEM: ATOMS id type q x y z
1 2 2.2208 5.20966 0.163599 5.44714
2 1 -1.1104 0.985521 -4.0857 1.0449
6 1 -1.1104 1.18645 -3.91655 3.77002
10 1 -1.1104 1.06618 -1.33746 1.0116
12 2 2.2208 5.41024 -2.54289 2.5452
14 1 -1.1104 1.0829 -1.23192 3.99604
16 1 -1.1104 3.71403 -3.93201 1.34591
18 2 2.2208 2.37663 0.156052 2.45742
19 1 -1.1104 3.78896 -4.11284 4.01534
21 2 2.2208 2.49954 -2.61186 5.45777
23 1 -1.1104 4.03596 -1.23678 0.935729
24 1 -1.1104 3.87066 -1.45044 3.95035
51 2 2.2208 -0.282527 11.7468 11.2805
26 2 2.2208 -0.353139 0.196501 5.39774
365 2 2.2208 2.43114 -2.69129 -0.0978591
368 2 2.2208 -0.489942 0.224197 -0.366949
8828 2 2.2208 10.9442 -5.33649 11.2358
15 1 -1.1104 6.72302 -1.0714 4.03733
11 1 -1.1104 6.84406 -1.12981 1.34847
8 1 -1.1104 6.60638 -3.83631 4.00295
4 1 -1.1104 6.54633 -3.86899 1.03547
31 2 2.2208 10.9665 0.281453 5.44328
32 1 -1.1104 12.5505 -3.85142 1.12407
34 1 -1.1104 12.1503 -3.94803 4.08959
36 1 -1.1104 12.3262 -1.12217 0.978388
37 2 2.2208 10.9391 -2.55145 2.67871
39 1 -1.1104 12.3361 -1.20794 4.13197
40 1 -1.1104 9.53374 -3.78317 1.28071
42 2 2.2208 8.13892 0.423182 2.74446
43 1 -1.1104 9.32789 -4.11396 4.06667
45 2 2.2208 8.16829 -2.54924 5.66901
47 1 -1.1104 9.49642 -1.11735 1.29735
48 1 -1.1104 9.43775 -1.34996 4.06985
370 2 2.2208 8.17457 -2.61779 -0.201632
369 2 2.2208 10.942 0.24007 -0.14148
379 2 2.2208 5.16052 5.77166 -0.318608
366 2 2.2208 2.48149 3.00318 -0.403363
3 1 -1.1104 1.06134 1.4484 1.06315
7 1 -1.1104 1.05364 1.57232 4.01269
13 2 2.2208 5.52833 2.82574 2.54078
17 1 -1.1104 4.14552 1.39977 1.256
20 1 -1.1104 3.751 1.35225 3.89898
22 2 2.2208 2.37794 2.94591 5.38782
54 2 2.2208 5.38713 5.96209 5.40833
60 1 -1.1104 0.877567 4.07534 1.15319
67 1 -1.1104 0.954979 4.55975 3.78512
72 2 2.2208 2.38684 5.80752 2.67199
76 1 -1.1104 3.87826 4.3585 1.09727
79 1 -1.1104 3.75582 4.39955 4.08641
74 1 -1.1104 3.87355 6.82976 3.95495
71 1 -1.1104 3.54115 7.03168 0.979428
56 1 -1.1104 0.726387 7.22179 1.20171
58 1 -1.1104 1.03217 7.53578 4.20797
27 2 2.2208 -0.357843 2.82464 2.58593
8825 2 2.2208 5.30463 -5.32844 11.2081
8839 2 2.2208 -0.261526 -5.31336 -0.326917
9 1 -1.1104 6.5605 1.39857 4.20415
59 1 -1.1104 6.79188 7.00184 4.04225
57 1 -1.1104 6.39261 7.25086 1.10082
69 1 -1.1104 6.59428 4.35845 3.86769
5 1 -1.1104 6.99726 1.67164 1.07798
63 1 -1.1104 6.7055 4.30785 0.885147
33 1 -1.1104 12.4483 1.59458 1.25556
35 1 -1.1104 12.5312 1.52084 4.02968
38 2 2.2208 10.9643 3.09723 2.62364
41 1 -1.1104 9.69717 1.66951 1.21648
44 1 -1.1104 9.5333 1.65205 4.14996
46 2 2.2208 8.04919 2.9604 5.53627
84 2 2.2208 10.7668 6.10264 5.50344
86 1 -1.1104 12.1497 7.36322 1.21149
88 1 -1.1104 12.1968 4.27341 1.20294
92 1 -1.1104 12.5236 4.42658 3.83734
95 2 2.2208 8.07131 5.7259 2.60553
99 1 -1.1104 9.61714 4.47912 1.06171
102 1 -1.1104 9.42276 4.41674 3.9008
94 1 -1.1104 9.33663 7.22912 1.4318
87 1 -1.1104 12.5206 7.48218 3.90233
97 1 -1.1104 9.60417 7.54807 4.22163
340 2 2.2208 11.0828 5.84623 -0.207198
372 2 2.2208 8.1874 3.10771 -0.458106
269 1 -1.1104 9.46857 4.54707 6.87685
355 2 2.2208 5.21149 11.5102 -0.266022
29 2 2.2208 -0.400146 5.99102 11.0683
55 2 2.2208 5.16235 11.5058 5.40562
61 1 -1.1104 1.00912 10.1783 1.50537
66 2 2.2208 5.31686 8.67461 2.56084
68 1 -1.1104 1.1174 10.0089 4.09703
73 2 2.2208 2.49618 11.4063 2.79518
75 2 2.2208 2.31093 8.70207 5.39644
77 1 -1.1104 3.786 10.0951 1.34692
80 1 -1.1104 4.05595 10.0752 4.02871
107 1 -1.1104 0.908933 13.0309 0.980068
113 1 -1.1104 1.3986 12.943 3.85482
123 1 -1.1104 3.71755 12.9135 1.12054
128 1 -1.1104 3.89007 13.0495 4.04592
82 2 2.2208 -0.311964 8.77815 2.49999
136 2 2.2208 -0.186568 20.0155 2.55727
376 2 2.2208 2.34476 8.66874 -0.203952
8824 2 2.2208 2.35194 -5.29823 8.30951
336 2 2.2208 8.13017 8.71062 -0.13169
110 1 -1.1104 6.71109 12.736 1.22472
115 1 -1.1104 6.62464 12.6183 4.06831
64 1 -1.1104 6.67037 10.2548 1.12259
70 1 -1.1104 6.66362 9.88715 3.90912
85 2 2.2208 10.8715 11.6704 5.39676
89 1 -1.1104 12.1915 10.2557 1.15251
91 2 2.2208 10.8812 8.84129 2.60782
93 1 -1.1104 12.4122 10.2845 4.03841
96 2 2.2208 8.08955 11.6173 2.67284
98 2 2.2208 8.07959 8.80633 5.48398
100 1 -1.1104 9.52602 10.23 1.24191
103 1 -1.1104 9.66831 10.3018 3.99654
142 1 -1.1104 12.5435 12.9748 0.964098
146 1 -1.1104 12.3593 13.0486 3.97528
153 1 -1.1104 9.52669 13.0961 1.05837
158 1 -1.1104 9.44594 12.9684 3.93377
334 2 2.2208 10.9092 11.5773 -0.143111
349 2 2.2208 8.15152 19.9845 -0.0884063
325 2 2.2208 10.8502 14.4115 8.30459
156 1 -1.1104 9.4098 18.7102 6.9895
135 2 2.2208 -0.279253 14.3428 2.62231
119 2 2.2208 5.35712 14.1522 2.59726
130 2 2.2208 2.54899 14.5093 5.24141
106 2 2.2208 5.30518 16.9801 5.37537
109 1 -1.1104 1.08644 18.4884 1.10835
114 1 -1.1104 1.10379 18.5345 4.11005
116 1 -1.1104 1.03651 15.7219 1.0576
120 2 2.2208 4.96292 20.0455 2.35993
121 1 -1.1104 1.1964 16.0126 3.89775
125 1 -1.1104 3.76376 18.7223 0.936504
127 2 2.2208 2.52521 17.2729 2.46678
129 1 -1.1104 3.95918 18.5227 3.93657
131 2 2.2208 2.42709 19.9119 5.48911
132 1 -1.1104 3.92715 15.8618 1.25821
134 1 -1.1104 4.13804 15.5496 3.95159
373 2 2.2208 2.47686 14.4489 -0.120471
316 2 2.2208 8.04462 20.0407 10.9109
347 2 2.2208 8.15782 14.3565 -0.280537
348 2 2.2208 10.9702 17.1815 -0.0312884
139 1 -1.1104 6.87469 18.5219 4.12594
138 1 -1.1104 6.45173 18.4935 1.31252
122 1 -1.1104 6.75441 15.6245 4.04105
140 1 -1.1104 6.932 15.4027 1.2814
160 2 2.2208 8.15454 14.3574 5.50522
150 2 2.2208 10.9366 14.4847 2.74437
141 2 2.2208 11.0941 17.2648 5.75505
144 1 -1.1104 12.2171 18.6346 1.09014
147 1 -1.1104 12.439 18.3895 4.06282
148 1 -1.1104 12.275 15.7032 1.54681
151 2 2.2208 11.034 20.1038 2.89083
152 1 -1.1104 12.3036 15.7291 4.16628
155 1 -1.1104 9.37357 18.6119 1.414
157 2 2.2208 8.28867 17.0233 2.83694
159 1 -1.1104 9.72849 18.5346 4.37545
161 2 2.2208 8.09043 19.8054 5.49309
162 1 -1.1104 9.66126 15.8675 1.25809
164 1 -1.1104 9.57606 15.8934 4.34742
374 2 2.2208 5.15205 17.2162 -0.00985962
172 1 -1.1104 3.87909 -3.98556 6.7684
174 1 -1.1104 3.77841 -1.19319 6.70825
170 1 -1.1104 1.02502 -1.18556 6.79176
166 1 -1.1104 0.89804 -4.00607 6.69352
175 2 2.2208 5.24355 0.152816 10.897
176 1 -1.1104 0.877098 -4.08459 12.4764
180 1 -1.1104 1.02484 -4.05891 9.60278
184 1 -1.1104 1.05006 -1.03848 12.051
186 2 2.2208 5.33319 -2.5808 8.32542
188 1 -1.1104 0.669367 -1.25139 9.51755
190 1 -1.1104 3.78439 -3.89219 12.476
192 2 2.2208 2.47773 0.0208319 8.13036
193 1 -1.1104 3.65184 -3.80975 9.79078
195 2 2.2208 2.25918 -2.56511 11.0964
197 1 -1.1104 3.90783 -1.19867 12.4253
198 1 -1.1104 3.86546 -1.35072 9.56102
350 2 2.2208 -0.21431 11.4579 -0.187316
8819 2 2.2208 5.0782 -5.42364 5.39702
205 1 -1.1104 12.3739 -4.14066 6.96841
207 1 -1.1104 12.53 -1.26848 7.03364
168 1 -1.1104 6.76401 -3.92245 6.79715
171 1 -1.1104 6.736 -1.02477 6.76928
208 1 -1.1104 9.40817 -3.9111 7.08151
210 1 -1.1104 9.81344 -0.994466 6.91958
189 1 -1.1104 6.66852 -1.20123 9.59181
178 1 -1.1104 6.58589 -3.85181 12.4391
185 1 -1.1104 6.73121 -1.06849 12.4066
182 1 -1.1104 6.45009 -3.93786 9.75444
211 2 2.2208 10.9809 0.531989 11.1826
212 1 -1.1104 12.055 -3.83484 12.5119
214 1 -1.1104 12.2671 -4.01059 9.8719
216 1 -1.1104 12.3224 -1.06585 12.4752
217 2 2.2208 11.0359 -2.57105 8.47569
219 1 -1.1104 12.2182 -1.0935 9.86648
220 1 -1.1104 9.51517 -3.80041 12.4613
222 2 2.2208 8.17277 0.271293 8.45087
223 1 -1.1104 9.6784 -4.06281 9.77099
225 2 2.2208 8.17685 -2.5234 11.1653
227 1 -1.1104 9.59488 -0.888682 12.3481
228 1 -1.1104 9.44518 -1.1157 9.6527
315 1 -1.1104 9.71017 15.5426 12.5452
167 1 -1.1104 1.27858 1.74249 6.96744
236 1 -1.1104 0.892684 4.43554 6.74156
173 1 -1.1104 4.08192 1.47336 6.80589
239 1 -1.1104 4.04847 4.4827 6.9704
234 1 -1.1104 0.934025 7.17362 6.84341
238 1 -1.1104 3.84084 7.54862 6.75095
177 1 -1.1104 1.08945 1.63397 12.3378
181 1 -1.1104 1.04688 1.50095 9.56672
187 2 2.2208 5.31974 3.16847 8.20797
191 1 -1.1104 3.93294 1.63505 12.1712
194 1 -1.1104 3.79143 1.61325 9.41231
196 2 2.2208 2.46143 3.08013 11.015
240 2 2.2208 5.24675 6.09853 10.8825
246 1 -1.1104 1.01351 4.66706 12.3404
251 1 -1.1104 1.07602 4.49872 9.61124
255 1 -1.1104 3.86315 7.38516 12.7051
256 2 2.2208 2.35183 5.82147 8.22513
260 1 -1.1104 3.67652 4.60563 12.4313
262 1 -1.1104 3.66531 4.46434 9.51131
242 1 -1.1104 0.999035 7.34445 12.3607
258 1 -1.1104 3.81059 7.40829 9.67072
244 1 -1.1104 0.945461 7.35434 9.59273
8818 2 2.2208 2.67321 -5.42451 2.72453
375 2 2.2208 2.32601 20.0711 -0.352744
209 1 -1.1104 9.66472 1.71373 7.03212
265 1 -1.1104 12.3088 7.28227 6.66069
235 1 -1.1104 6.70629 7.3651 6.84526
206 1 -1.1104 12.478 1.65862 6.85721
183 1 -1.1104 6.66636 1.5436 9.62
237 1 -1.1104 6.79869 4.68343 7.01183
169 1 -1.1104 6.83577 1.63738 6.95217
266 1 -1.1104 12.3261 4.65788 6.765
179 1 -1.1104 6.90802 2.10334 12.5357
248 1 -1.1104 6.71292 4.91838 12.3726
243 1 -1.1104 6.61216 7.40495 12.5513
267 1 -1.1104 9.53345 7.51138 6.91754
253 1 -1.1104 6.69499 4.51129 9.75821
245 1 -1.1104 6.58296 7.59469 9.69451
213 1 -1.1104 12.2935 1.81578 12.4591
215 1 -1.1104 12.2943 1.9039 9.74183
218 2 2.2208 10.9925 3.1846 8.22822
221 1 -1.1104 9.56415 1.97587 12.4855
224 1 -1.1104 9.47339 1.86508 9.62042
226 2 2.2208 8.22327 3.22485 11.0377
268 1 -1.1104 9.6497 4.71051 9.50928
271 1 -1.1104 9.41748 4.8422 12.3461
275 2 2.2208 8.05428 6.12713 8.3182
276 2 2.2208 11.1304 5.97485 11.012
278 1 -1.1104 12.36 7.42526 12.5225
280 1 -1.1104 12.2922 4.71348 12.5738
283 1 -1.1104 12.4451 4.56969 9.80886
285 1 -1.1104 9.63798 7.35423 12.3664
279 1 -1.1104 12.3872 7.26439 9.70914
273 1 -1.1104 9.54488 7.44979 9.61618
108 1 -1.1104 0.91498 13.0064 6.75269
199 2 2.2208 -0.247003 3.07906 8.38513
30 2 2.2208 -0.318484 8.78071 8.24701
78 1 -1.1104 3.90431 10.2246 6.78983
62 1 -1.1104 1.01735 10.4028 6.83257
124 1 -1.1104 4.0004 13.0253 6.88518
241 2 2.2208 5.0621 11.6866 11.0935
247 1 -1.1104 1.01319 10.0935 12.5933
250 2 2.2208 5.25644 8.88209 8.15055
252 1 -1.1104 1.08222 10.2814 9.69423
257 2 2.2208 2.50501 11.6121 8.21869
259 2 2.2208 2.29178 8.87024 11.0998
261 1 -1.1104 3.68847 10.2113 12.3737
263 1 -1.1104 3.76919 10.4099 9.55321
305 1 -1.1104 3.8736 13.2069 9.66059
299 1 -1.1104 1.22676 12.9355 12.6687
294 1 -1.1104 1.04063 13.0998 9.79033
287 1 -1.1104 3.9084 13.1746 12.5475
143 1 -1.1104 12.1782 13.2265 6.7102
65 1 -1.1104 6.56008 10.3382 6.70236
297 1 -1.1104 6.68083 12.8779 12.7451
154 1 -1.1104 9.46972 13.0147 6.967
101 1 -1.1104 9.62289 10.2717 6.74549
111 1 -1.1104 6.65001 12.9753 7.10284
290 1 -1.1104 6.77784 12.8596 9.81383
254 1 -1.1104 6.67727 10.287 9.55294
90 1 -1.1104 12.3122 10.2499 6.70551
249 1 -1.1104 6.54118 10.3151 12.3562
264 1 -1.1104 9.554 10.262 9.53926
270 1 -1.1104 9.41316 10.2075 12.3602
272 2 2.2208 8.01944 8.82925 11.0812
274 2 2.2208 8.17311 11.7419 8.3198
277 2 2.2208 10.9097 11.5562 11.0623
281 1 -1.1104 12.3661 10.2762 12.4368
282 2 2.2208 11.0188 8.80793 8.1391
284 1 -1.1104 12.1823 10.154 9.76682
330 1 -1.1104 12.4686 12.9051 12.7442
328 1 -1.1104 12.2211 13.1071 9.78808
322 1 -1.1104 9.51711 12.9205 12.5401
319 1 -1.1104 9.39321 13.1081 9.66567
311 2 2.2208 -0.31324 19.8897 8.47747
8827 2 2.2208 7.96223 -5.26851 8.4177
117 1 -1.1104 1.19057 15.7757 6.65774
133 1 -1.1104 3.84733 15.8503 6.83951
126 1 -1.1104 3.74114 18.4378 6.97276
302 1 -1.1104 1.00848 18.6256 6.83666
8837 2 2.2208 5.19958 -5.38243 -0.150372
310 2 2.2208 2.45023 14.5358 11.2255
286 1 -1.1104 3.78873 18.5525 12.503
304 1 -1.1104 3.97997 16.0218 9.52083
293 2 2.2208 5.23413 19.9316 8.31845
292 1 -1.1104 0.813995 15.7037 9.70043
291 1 -1.1104 1.18709 18.6148 9.71892
307 1 -1.1104 1.04528 15.7135 12.5053
303 2 2.2208 2.34392 17.0995 8.3026
301 1 -1.1104 3.86496 18.8274 9.66792
300 2 2.2208 5.33801 17.2943 11.0702
295 2 2.2208 5.31523 14.4817 8.15114
298 1 -1.1104 1.08165 18.6077 12.4103
309 2 2.2208 2.56252 19.9839 11.1157
308 1 -1.1104 3.9975 15.8614 12.4741
296 1 -1.1104 6.74484 18.6123 12.8089
320 2 2.2208 7.99547 17.0806 8.17617
323 1 -1.1104 12.2618 15.8034 9.7429
163 1 -1.1104 9.53633 15.7192 7.10705
324 2 2.2208 11.025 20.1179 8.43172
331 2 2.2208 10.8678 17.2587 11.1047
314 1 -1.1104 9.37284 15.8717 9.77251
326 1 -1.1104 12.6707 15.9093 12.387
112 1 -1.1104 6.4797 18.477 6.83717
327 1 -1.1104 12.3089 18.5123 9.64835
289 1 -1.1104 6.6748 15.7071 9.56116
288 1 -1.1104 6.73364 18.6213 9.66969
118 1 -1.1104 6.67004 15.8028 6.80518
306 1 -1.1104 6.70242 15.7407 12.4159
149 1 -1.1104 12.2158 15.8117 6.99466
145 1 -1.1104 12.3852 18.8112 6.9025
318 1 -1.1104 9.50813 18.562 9.68155
329 1 -1.1104 12.4487 18.6919 12.3073
321 1 -1.1104 9.26929 18.6682 12.5137
317 2 2.2208 8.15621 14.2123 11.111
137 2 2.2208 -0.24465 17.1892 5.37008
53 2 2.2208 13.6569 11.8814 8.33381
165 2 2.2208 13.6507 17.3002 2.63244
345 2 2.2208 13.623 20.0768 -0.218621
341 2 2.2208 5.28942 3.39417 13.6252
380 2 2.2208 5.48565 0.409158 16.5214
381 1 -1.1104 0.950517 -3.75606 17.8548
385 1 -1.1104 1.26965 -3.83788 15.1457
393 1 -1.1104 1.09542 -1.06492 17.9226
395 2 2.2208 5.38329 -2.39736 19.5919
397 1 -1.1104 1.27454 -1.02664 15.1529
401 1 -1.1104 3.91606 -4.09768 18.29
403 2 2.2208 2.56971 0.301506 19.4515
404 1 -1.1104 3.85986 -3.90071 15.2572
408 2 2.2208 2.6005 -2.50592 16.6335
410 1 -1.1104 4.07648 -1.08619 17.8233
411 1 -1.1104 4.14896 -1.02401 15.1304
357 2 2.2208 2.51203 17.0323 13.9676
9488 2 2.2208 -0.351871 -2.48779 13.8454
339 2 2.2208 2.65885 0.201482 13.6412
448 2 2.2208 -0.33072 17.1968 16.8468
338 2 2.2208 5.27525 -2.40922 13.8757
360 2 2.2208 10.6574 20.0293 13.9312
615 2 2.2208 -0.422734 17.2251 22.4874
399 1 -1.1104 6.79891 -0.930456 15.2735
383 1 -1.1104 6.74195 -3.65615 18.2279
715 2 2.2208 10.7921 -2.2304 13.9208
389 1 -1.1104 6.79634 -3.67873 15.3428
394 1 -1.1104 6.62445 -0.99387 18.2231
423 2 2.2208 10.907 0.520885 16.86
424 1 -1.1104 12.3059 -3.66985 17.9201
426 1 -1.1104 12.3736 -3.74567 15.3909
430 1 -1.1104 12.5684 -0.882247 18.1799
431 2 2.2208 11.0146 -2.46328 19.3909
433 1 -1.1104 12.3785 -0.71014 15.5264
435 1 -1.1104 9.45534 -3.79393 18.2035
437 2 2.2208 8.21656 0.331916 19.5727
438 1 -1.1104 9.44477 -3.77079 15.2749
442 2 2.2208 8.18734 -2.28462 16.7202
444 1 -1.1104 9.61307 -1.09921 18.148
445 1 -1.1104 9.41929 -1.04772 15.2552
343 2 2.2208 8.04758 0.406378 13.8303
618 2 2.2208 -0.226288 2.9226 25.0638
613 2 2.2208 -0.347858 5.80311 16.8704
382 1 -1.1104 1.07583 1.81792 17.9459
387 1 -1.1104 1.12779 1.82825 15.3573
396 2 2.2208 5.42108 3.05793 19.4152
402 1 -1.1104 4.13077 1.60963 18.0872
406 1 -1.1104 3.97362 1.80274 15.3039
409 2 2.2208 2.61522 3.09994 16.5926
456 2 2.2208 5.46724 5.76275 16.4511
458 1 -1.1104 1.11503 7.36577 18.3199
464 1 -1.1104 1.1349 4.7711 18.1428
469 1 -1.1104 1.0192 4.50278 15.2032
477 1 -1.1104 3.88724 7.29922 18.2008
478 2 2.2208 2.63658 5.88605 19.619
480 1 -1.1104 3.609 7.1978 15.4079
483 1 -1.1104 3.89363 4.41363 17.8642
485 1 -1.1104 3.92532 4.42215 15.0394
460 1 -1.1104 0.87627 7.29371 15.3203
361 2 2.2208 11.1903 14.3733 14.013
351 2 2.2208 2.34266 6.11949 13.8115
8908 2 2.2208 -0.236028 -5.16206 22.2307
337 2 2.2208 -0.238209 3.17178 13.9165
462 1 -1.1104 6.65258 7.46289 15.2968
466 1 -1.1104 6.73249 4.53871 17.9521
384 1 -1.1104 6.88062 1.83927 18.1225
391 1 -1.1104 6.78356 2.0576 15.308
473 1 -1.1104 6.82183 4.58359 15.0886
459 1 -1.1104 6.81152 7.32515 18.0073
425 1 -1.1104 12.3175 1.88522 18.1359
428 1 -1.1104 12.2295 2.05144 15.1877
432 2 2.2208 11.017 3.31288 19.5874
436 1 -1.1104 9.60833 1.79454 18.3408
440 1 -1.1104 9.5383 1.94689 15.2994
443 2 2.2208 8.34401 3.23625 16.6605
492 2 2.2208 10.7592 6.23266 16.5607
494 1 -1.1104 12.3796 7.40706 17.9192
497 1 -1.1104 12.2949 4.5947 18.2402
500 1 -1.1104 12.5025 4.67309 15.1933
504 1 -1.1104 9.33342 7.42843 18.1063
505 2 2.2208 8.13109 6.07455 19.5327
510 1 -1.1104 9.59671 4.55236 17.9796
512 1 -1.1104 9.6736 4.78808 15.2768
495 1 -1.1104 12.251 7.53308 15.2507
507 1 -1.1104 9.5714 7.58487 15.1109
354 2 2.2208 7.99036 6.06404 13.898
716 2 2.2208 10.7468 3.34902 13.7882
713 2 2.2208 13.6394 6.06942 13.8599
457 2 2.2208 5.32787 11.6104 16.7134
465 1 -1.1104 1.03779 10.2379 18.0305
468 2 2.2208 5.23569 8.65716 19.4041
471 1 -1.1104 1.02515 10.0542 15.3367
479 2 2.2208 2.49789 11.5533 19.3615
482 2 2.2208 2.3941 8.67207 16.823
484 1 -1.1104 3.76356 10.1228 17.9866
487 1 -1.1104 3.84602 10.1121 15.3018
520 1 -1.1104 1.19102 13.0909 18.1895
524 1 -1.1104 0.790802 12.9119 15.3344
540 1 -1.1104 3.81129 12.8859 17.9814
543 1 -1.1104 3.70392 12.8084 15.4184
640 2 2.2208 -0.383042 11.5375 16.6623
614 2 2.2208 -0.282432 8.82637 19.528
352 2 2.2208 5.31978 8.81966 13.882
472 1 -1.1104 0.97101 10.0386 21
353 2 2.2208 2.44822 11.5124 14.1028
522 1 -1.1104 6.72098 12.9374 18.3523
475 1 -1.1104 6.71897 10.2687 15.2656
467 1 -1.1104 6.4731 10.1541 18.0565
528 1 -1.1104 6.58425 13.1433 15.3439
493 2 2.2208 10.9014 11.7897 16.5358
498 1 -1.1104 12.1253 10.1834 17.9759
499 2 2.2208 11.0217 8.80094 19.4516
502 1 -1.1104 12.3645 10.3805 15.3143
506 2 2.2208 8.1647 11.6027 19.6498
509 2 2.2208 8.07018 8.99449 16.7096
511 1 -1.1104 9.30551 10.4426 17.9876
514 1 -1.1104 9.50203 10.3744 15.1608
556 1 -1.1104 12.2998 13.179 18.1907
558 1 -1.1104 12.5087 13.1192 15.6085
567 1 -1.1104 9.496 13.189 18.1393
570 1 -1.1104 9.73501 12.955 15.2494
356 2 2.2208 8.09093 11.7553 13.8522
529 1 -1.1104 6.57962 12.8781 21.1281
717 2 2.2208 10.937 8.91263 13.7794
8910 2 2.2208 11.0708 -5.34107 16.738
358 2 2.2208 5.35216 20.0383 13.9976
547 2 2.2208 2.47 14.2192 16.8297
534 2 2.2208 5.29477 14.1968 19.5299
359 2 2.2208 5.20702 14.3704 14.0157
419 2 2.2208 -0.238352 3.12362 19.4455
608 2 2.2208 8.10967 20.0505 22.4458
519 2 2.2208 5.28428 17.1269 16.778
521 1 -1.1104 1.07762 18.5622 18.1721
526 1 -1.1104 1.05195 18.433 15.4139
532 1 -1.1104 1.22375 15.713 18.3019
535 2 2.2208 5.08035 20.187 19.8217
536 1 -1.1104 1.17318 15.6654 15.4172
541 1 -1.1104 3.66589 18.7152 18.3125
542 2 2.2208 2.53834 17.1806 19.603
545 1 -1.1104 3.74893 18.6205 15.4729
548 2 2.2208 2.46198 19.9433 16.7603
549 1 -1.1104 4.02804 15.7145 18.3318
550 1 -1.1104 3.89566 15.6709 15.5789
362 2 2.2208 8.156 17.1155 13.931
449 2 2.2208 -0.307565 14.1746 19.7103
8874 2 2.2208 5.41145 -5.27322 22.4304
530 1 -1.1104 6.52068 18.5872 15.4769
539 1 -1.1104 6.81166 15.5941 21.2008
8841 2 2.2208 8.00969 -5.1124 13.9769
523 1 -1.1104 6.54114 18.5929 18.2723
533 1 -1.1104 6.63181 15.7904 18.3231
538 1 -1.1104 6.61625 15.8404 15.4355
574 2 2.2208 7.94456 14.4842 16.7917
563 2 2.2208 11.043 14.6105 19.676
555 2 2.2208 10.9018 17.3264 16.6988
557 1 -1.1104 12.2112 18.614 18.1673
560 1 -1.1104 12.0879 18.5426 15.0298
562 1 -1.1104 12.2957 15.9517 18.325
564 2 2.2208 10.9099 19.9646 19.5148
565 1 -1.1104 12.1203 15.9531 15.1232
568 1 -1.1104 9.38326 18.5596 18.197
569 2 2.2208 8.09039 17.2047 19.7211
572 1 -1.1104 9.4104 18.4784 15.4184
575 2 2.2208 7.92517 19.9429 16.8985
576 1 -1.1104 9.71842 16.0155 18.1463
577 1 -1.1104 9.56017 15.6476 15.4312
416 2 2.2208 -0.214876 0.275921 16.5564
579 2 2.2208 8.12782 17.2013 25.1618
412 1 -1.1104 3.8262 -1.15962 20.8882
398 1 -1.1104 0.861886 -0.9903 20.6531
518 2 2.2208 11.0004 20.0462 25.3304
617 2 2.2208 -0.326511 0.316711 22.1699
386 1 -1.1104 1.1507 -3.90739 20.7106
405 1 -1.1104 3.91143 -3.92005 20.9723
583 2 2.2208 5.36844 0.263057 22.3748
584 1 -1.1104 1.01313 -3.57703 23.5898
588 1 -1.1104 1.08149 -3.93276 26.3796
592 1 -1.1104 0.991373 -0.731885 23.8145
594 2 2.2208 5.43374 -2.48867 25.2076
596 1 -1.1104 0.88657 -1.05139 26.6229
598 1 -1.1104 3.81108 -3.75152 23.5649
600 2 2.2208 2.75275 0.310345 24.9911
601 1 -1.1104 3.90892 -3.7791 26.478
603 2 2.2208 2.50688 -2.6517 22.1135
605 1 -1.1104 3.99933 -1.00168 23.5618
606 1 -1.1104 4.07862 -1.03024 26.2701
586 1 -1.1104 6.4916 -3.93294 23.7677
590 1 -1.1104 6.92241 -3.87345 26.4621
597 1 -1.1104 6.64629 -1.25784 26.643
390 1 -1.1104 6.69545 -3.82267 21.0532
400 1 -1.1104 6.70059 -0.912021 20.7617
439 1 -1.1104 9.43957 -3.81356 20.7953
427 1 -1.1104 12.3581 -4.11755 20.9591
446 1 -1.1104 9.60705 -1.12394 20.9559
593 1 -1.1104 6.97424 -1.25563 23.7491
434 1 -1.1104 12.3146 -1.08847 20.9432
619 2 2.2208 10.9423 0.417902 22.3225
620 1 -1.1104 12.3063 -3.97445 23.6087
622 1 -1.1104 12.3313 -3.80011 26.5897
624 1 -1.1104 12.2289 -0.973689 23.7602
625 2 2.2208 11.0541 -2.41727 25.1348
627 1 -1.1104 12.5382 -1.36174 26.4487
628 1 -1.1104 9.52318 -3.94396 23.6657
630 2 2.2208 8.37488 0.381664 25.0826
631 1 -1.1104 9.67701 -3.96155 26.6212
633 2 2.2208 8.06095 -2.41499 22.2719
635 1 -1.1104 9.67136 -1.02507 23.8496
636 1 -1.1104 9.50974 -1.1011 26.683
672 1 -1.1104 6.62945 15.836 24.0143
486 1 -1.1104 3.85251 4.39213 20.7574
470 1 -1.1104 1.08528 4.4594 20.9665
417 2 2.2208 -0.329149 -2.59935 19.4635
461 1 -1.1104 1.07978 7.15218 20.8983
407 1 -1.1104 4.02292 1.62237 20.8254
388 1 -1.1104 1.17969 1.64591 20.8127
481 1 -1.1104 3.86077 7.30926 21.0097
585 1 -1.1104 1.3872 1.85156 23.6418
589 1 -1.1104 1.14603 1.54526 26.3974
595 2 2.2208 5.3414 3.17658 25.2605
599 1 -1.1104 4.30079 2.14449 23.7287
602 1 -1.1104 3.92685 1.5427 26.6086
604 2 2.2208 2.46468 3.14632 22.2239
648 2 2.2208 5.29504 5.938 22.2728
654 1 -1.1104 0.93748 4.50845 23.7192
659 1 -1.1104 1.1399 4.39221 26.4076
664 2 2.2208 2.44275 5.97461 25.0121
666 1 -1.1104 4.07578 7.35887 26.4841
668 1 -1.1104 3.86928 4.66887 23.6001
670 1 -1.1104 3.85103 4.5566 26.5724
652 1 -1.1104 1.02274 7.10098 26.4784
663 1 -1.1104 3.96138 7.23215 23.7756
650 1 -1.1104 1.23933 7.30227 23.7088
342 2 2.2208 -0.490699 14.504 14.0744
496 1 -1.1104 12.2565 7.40439 21.1544
474 1 -1.1104 6.59336 4.7539 20.8084
392 1 -1.1104 6.70212 1.85672 20.8725
441 1 -1.1104 9.35259 1.89567 20.9365
513 1 -1.1104 9.42617 4.74643 20.9082
429 1 -1.1104 12.4915 1.80139 20.8192
656 1 -1.1104 6.59618 4.69767 23.551
651 1 -1.1104 6.76829 7.25495 23.8275
591 1 -1.1104 6.52772 1.79076 26.6278
508 1 -1.1104 9.63613 7.33232 20.8298
501 1 -1.1104 12.4237 4.68583 21.0139
587 1 -1.1104 6.89738 1.5377 23.7591
653 1 -1.1104 6.94931 7.4287 26.5545
661 1 -1.1104 6.89382 4.43065 26.2892
621 1 -1.1104 12.0175 1.91303 23.4183
623 1 -1.1104 12.3417 1.73862 26.4777
626 2 2.2208 10.9116 3.23637 25.1039
629 1 -1.1104 9.43692 1.83704 23.7861
632 1 -1.1104 9.62284 1.59215 26.5409
634 2 2.2208 8.06779 3.2478 22.3599
680 1 -1.1104 9.84825 4.73582 26.5065
682 1 -1.1104 9.49008 4.70148 23.7877
686 2 2.2208 8.20573 5.98057 25.3172
687 2 2.2208 10.939 6.06952 22.3867
691 1 -1.1104 12.5036 4.63933 23.8402
694 1 -1.1104 12.5067 4.57834 26.7011
684 1 -1.1104 9.59416 7.2677 26.6877
689 1 -1.1104 12.1129 7.34843 24.0236
690 1 -1.1104 12.3686 7.32878 26.8159
463 1 -1.1104 6.6303 7.45015 20.739
676 2 2.2208 -0.488541 8.54526 25.21
677 2 2.2208 -0.404723 11.4479 22.4144
544 1 -1.1104 3.79886 12.9308 20.7237
525 1 -1.1104 1.02289 12.6449 21.0058
488 1 -1.1104 3.96843 10.0932 21.1187
649 2 2.2208 5.39871 11.5396 22.3726
655 1 -1.1104 1.11516 9.92905 23.9919
658 2 2.2208 5.42966 8.71946 25.2015
660 1 -1.1104 0.92635 9.91501 26.6468
665 2 2.2208 2.5069 11.3568 25.1327
667 2 2.2208 2.50599 8.76966 22.4654
669 1 -1.1104 3.92626 9.95157 24.0008
671 1 -1.1104 3.66035 10.2778 26.8668
673 1 -1.1104 3.93077 13.0609 26.4145
698 1 -1.1104 0.980066 12.7983 23.7853
705 1 -1.1104 3.73663 12.8145 23.7284
709 1 -1.1104 1.30002 13.0819 26.4775
639 2 2.2208 2.48576 14.2665 22.2933
515 1 -1.1104 9.56195 10.013 21.042
696 1 -1.1104 9.45982 7.41084 23.557
559 1 -1.1104 12.3414 12.9407 21.0276
503 1 -1.1104 12.353 10.1097 20.7876
701 1 -1.1104 6.57481 12.853 23.9652
657 1 -1.1104 6.87133 10.1126 23.5259
704 1 -1.1104 6.66064 13.1235 26.685
662 1 -1.1104 6.60314 10.1316 26.4876
476 1 -1.1104 6.5207 10.2904 20.6777
571 1 -1.1104 9.69208 12.9463 20.9895
455 1 -1.1104 12.3637 12.9448 23.9092
490 1 -1.1104 12.2394 12.9708 26.5587
679 1 -1.1104 9.49288 10.0917 26.6991
681 1 -1.1104 9.78239 10.1489 23.8833
683 2 2.2208 8.10254 8.64154 22.2133
685 2 2.2208 8.08369 11.4142 25.1808
688 2 2.2208 11.0353 11.4501 22.372
692 1 -1.1104 12.5494 10.2696 23.8518
693 2 2.2208 11.0948 8.72285 25.2518
695 1 -1.1104 12.2766 10.1212 26.5549
581 1 -1.1104 9.53422 13.1656 26.7584
553 1 -1.1104 9.57484 12.8528 23.9827
335 2 2.2208 -0.275073 19.8622 13.817
537 1 -1.1104 0.905973 15.6369 21.0914
527 1 -1.1104 1.01475 18.4953 21.18
546 1 -1.1104 4.12015 18.6434 21.0545
710 1 -1.1104 6.6444 18.7305 23.8587
616 2 2.2208 -0.340676 -2.45941 25.0197
706 1 -1.1104 6.58202 16.0096 26.7663
551 1 -1.1104 3.79626 15.7877 21.0608
712 2 2.2208 5.27955 14.5087 25.3832
641 2 2.2208 2.50706 19.7783 22.5669
644 1 -1.1104 3.76469 15.7586 23.7495
647 1 -1.1104 1.12595 15.7228 23.8884
674 1 -1.1104 3.7512 16.0042 26.7565
675 2 2.2208 2.31772 17.1828 25.3802
678 1 -1.1104 3.8595 18.7315 26.5847
697 2 2.2208 5.27894 16.9477 22.3365
699 1 -1.1104 1.03985 18.6495 23.9972
703 1 -1.1104 3.76685 18.3876 23.8783
707 1 -1.1104 0.806968 18.8087 26.6229
708 1 -1.1104 0.846988 15.9849 26.5402
711 2 2.2208 5.29825 19.9385 25.1385
573 1 -1.1104 9.72331 18.5407 20.902
561 1 -1.1104 12.3308 18.5712 21.1604
489 1 -1.1104 12.3758 18.7021 23.8646
491 1 -1.1104 12.4462 18.5214 26.6005
566 1 -1.1104 12.147 15.7879 21.2622
516 1 -1.1104 12.1644 15.9594 23.9963
552 1 -1.1104 12.2704 15.8847 26.8045
609 1 -1.1104 9.31828 15.7068 23.7449
517 2 2.2208 10.9507 14.4287 25.3495
578 1 -1.1104 9.44123 15.6168 21.0221
607 2 2.2208 8.03445 14.2369 22.4881
582 1 -1.1104 9.49479 18.5969 26.4584
612 1 -1.1104 9.47981 15.9742 26.5329
580 1 -1.1104 6.56298 18.7848 26.78
554 1 -1.1104 9.48203 18.641 23.6673
531 1 -1.1104 6.92762 18.4365 21.203
454 2 2.2208 10.9079 17.2886 22.5743
363 2 2.2208 13.7286 17.4265 13.859
638 2 2.2208 -0.311811 14.3195 25.1415
8873 2 2.2208 2.38812 -5.35486 25.0931
8871 2 2.2208 10.6676 -5.32575 22.4292
8940 2 2.2208 5.2774 -5.23743 16.8624
8909 2 2.2208 8.15973 -5.41791 19.6964
418 2 2.2208 13.6653 8.88072 16.7205
452 2 2.2208 13.6577 19.897 16.758
8845 2 2.2208 2.4379 -5.2341 13.8933
8870 2 2.2208 8.25483 -5.27624 25.1529
421 2 2.2208 13.6576 3.23911 16.7992
646 2 2.2208 13.8035 0.365859 25.404
450 2 2.2208 -0.218012 19.983 19.6673
422 2 2.2208 13.6923 14.1903 22.4026
610 2 2.2208 13.6393 17.1694 19.8163
645 2 2.2208 13.5228 -2.50399 22.3635
413 2 2.2208 -0.189185 5.92937 22.2617
367 2 2.2208 -0.257865 8.67144 14.0379
17697 2 2.2208 -0.376837 -5.27534 16.6983
364 2 2.2208 5.38819 0.15033 27.7442
719 2 2.2208 5.2392 22.5987 5.42473
721 1 -1.1104 0.872323 24.2373 1.03371
722 1 -1.1104 1.10595 24.3856 3.85982
723 1 -1.1104 0.945392 21.3512 1.20201
725 2 2.2208 5.3268 25.653 2.43677
726 1 -1.1104 1.04077 21.4011 3.92135
728 1 -1.1104 3.91806 24.3405 1.04982
729 2 2.2208 2.25943 22.8274 2.58023
731 1 -1.1104 3.83567 24.2607 4.14437
732 2 2.2208 2.47394 25.6584 5.34699
733 1 -1.1104 3.78555 21.5543 1.10918
735 1 -1.1104 3.78075 21.3484 3.93478
734 1 -1.1104 4.01269 27.1996 1.11437
736 1 -1.1104 3.7915 27.0538 3.89063
724 1 -1.1104 1.17111 27.1907 0.913032
837 2 2.2208 2.50962 31.3901 -0.291457
950 2 2.2208 11.0467 45.5831 -0.308255
1072 2 2.2208 8.32514 25.6827 -0.38766
858 2 2.2208 5.00874 39.865 -0.303718
1071 2 2.2208 10.821 22.9431 -0.125512
744 1 -1.1104 6.65279 21.0975 4.03359
741 1 -1.1104 6.77164 24.0455 4.09468
740 1 -1.1104 6.85701 24.2147 1.26624
739 2 2.2208 -0.361676 22.8359 5.24222
743 1 -1.1104 6.62784 27.2024 1.08647
742 1 -1.1104 6.6382 21.2668 1.19268
745 1 -1.1104 6.72347 27.042 3.83951
746 2 2.2208 10.8889 23.0256 5.6091
748 1 -1.1104 12.1527 24.3169 1.31446
749 1 -1.1104 12.1882 24.4395 4.23045
750 1 -1.1104 12.2785 21.5415 1.13585
752 2 2.2208 10.7592 25.66 2.61815
753 1 -1.1104 12.4794 21.4838 4.05519
755 1 -1.1104 9.44314 24.4338 1.03751
756 2 2.2208 7.9633 22.7076 2.66004
758 1 -1.1104 9.35993 24.3829 4.07152
759 2 2.2208 8.04828 25.7919 5.27774
760 1 -1.1104 9.47563 21.3969 1.40115
762 1 -1.1104 9.45556 21.4142 4.08511
751 1 -1.1104 12.2097 26.9517 1.05324
763 1 -1.1104 9.54483 27.1131 3.98339
754 1 -1.1104 12.2215 27.2108 4.08694
10145 2 2.2208 -0.35377 45.3837 11.0093
896 1 -1.1104 9.56783 24.4011 6.96981
727 1 -1.1104 1.07221 27.2413 3.95116
1039 2 2.2208 13.6807 39.7988 8.33726
720 2 2.2208 5.23521 28.5228 5.27838
730 2 2.2208 2.51699 28.6442 2.48943
768 1 -1.1104 1.03013 29.9933 1.12338
771 1 -1.1104 1.1538 30.0598 4.02192
774 1 -1.1104 1.0124 32.7474 1.08641
775 2 2.2208 5.18707 31.4305 2.5821
777 1 -1.1104 0.992155 32.8834 3.9131
779 1 -1.1104 3.93257 29.9635 1.10823
782 1 -1.1104 3.70434 30.0275 3.84735
784 2 2.2208 2.42847 31.5005 5.3185
786 1 -1.1104 3.6482 32.6865 1.14868
787 1 -1.1104 3.71145 33.1157 3.9111
10153 2 2.2208 -0.372212 36.9661 8.14566
921 1 -1.1104 0.698236 32.8713 6.7821
791 1 -1.1104 6.91929 29.7771 0.998059
922 1 -1.1104 6.72219 32.9322 6.78649
925 1 -1.1104 3.89238 32.7354 6.64424
1137 2 2.2208 13.7016 36.8445 -0.0492706
737 2 2.2208 -0.226588 25.9248 2.43299
1065 2 2.2208 10.9238 39.8116 -0.186139
761 1 -1.1104 9.49236 27.3271 1.26508
792 1 -1.1104 6.74172 30.0483 3.87555
778 1 -1.1104 6.5577 32.7876 3.99648
793 1 -1.1104 6.54079 32.6295 1.17498
747 2 2.2208 10.6974 28.4176 5.35396
757 2 2.2208 8.09827 28.4953 2.61144
795 1 -1.1104 12.5162 29.7501 1.15856
797 1 -1.1104 12.473 30.0188 3.96717
799 1 -1.1104 12.484 32.5857 1.21917
800 2 2.2208 10.7071 31.4602 2.37017
802 1 -1.1104 12.3581 32.8505 4.03848
803 1 -1.1104 9.67831 30.1478 0.945898
806 1 -1.1104 9.51527 30.0594 3.59954
808 2 2.2208 8.12014 31.4286 5.38428
810 1 -1.1104 9.45345 32.9753 1.06812
811 1 -1.1104 9.41968 32.823 4.07998
1037 2 2.2208 10.9348 28.3653 -0.249914
1020 1 -1.1104 12.4054 44.0891 6.80701
839 2 2.2208 -0.264916 42.6146 2.56243
767 2 2.2208 5.21977 34.1079 5.4527
769 1 -1.1104 0.955929 35.6064 1.14656
772 1 -1.1104 0.880166 35.774 3.87171
776 2 2.2208 5.33573 37.1307 2.57449
780 1 -1.1104 3.88878 35.5887 1.04337
781 2 2.2208 2.35346 34.3481 2.49782
783 1 -1.1104 3.81906 35.7431 3.79039
785 2 2.2208 2.32709 37.0539 5.23673