ITEM: TIMESTEP
10000
ITEM: NUMBER OF ATOMS
17700
ITEM: BOX BOUNDS pp pp pp
-4.4070639715697957e-01 2.7780706397157129e+01
-5.4429592931202224e+00 3.3352295929311805e+02
-4.3863258144544731e-01 2.7778632581445748e+01
ITEM: ATOMS id type q x y z
1 2 2.2208 5.07566 0.11955 4.88222
2 1 -1.1104 1.11671 -3.92661 1.02397
6 1 -1.1104 1.0118 -4.1755 3.62435
10 1 -1.1104 0.98072 -1.19544 0.732715
12 2 2.2208 5.13862 -2.67628 2.30671
14 1 -1.1104 1.14585 -1.30194 3.45001
16 1 -1.1104 3.83444 -4.15047 0.902
18 2 2.2208 2.50275 0.150565 2.21926
19 1 -1.1104 3.87464 -4.16601 3.55776
21 2 2.2208 2.24419 -2.67543 4.82386
23 1 -1.1104 3.7725 -1.35775 0.628641
24 1 -1.1104 3.92313 -1.07049 3.62539
166 1 -1.1104 0.851894 -3.66776 6.28245
171 1 -1.1104 6.48831 -1.01787 6.11432
8 1 -1.1104 6.53699 -3.99019 3.70136
11 1 -1.1104 6.65356 -1.1774 0.91183
4 1 -1.1104 6.33173 -3.96436 0.89345
15 1 -1.1104 6.58142 -1.32714 3.55235
172 1 -1.1104 3.61202 -4.01107 6.28212
8828 2 2.2208 10.8149 -5.08753 10.6785
8825 2 2.2208 5.25408 -5.40092 10.671
354 2 2.2208 7.80764 5.9122 13.5437
8822 2 2.2208 10.7481 -5.36829 5.0097
333 2 2.2208 13.5976 14.4116 10.9789
31 2 2.2208 10.6649 0.298798 5.02187
32 1 -1.1104 12.0825 -4.13494 0.916506
34 1 -1.1104 12.3237 -4.05367 3.8574
36 1 -1.1104 12.2784 -1.29949 0.603936
37 2 2.2208 10.724 -2.4667 2.08367
39 1 -1.1104 12.1938 -1.04302 3.33732
40 1 -1.1104 9.2869 -3.83701 0.778807
42 2 2.2208 7.91265 0.311957 2.22
43 1 -1.1104 9.27966 -4.20426 3.60986
45 2 2.2208 7.89328 -2.61535 4.91765
47 1 -1.1104 9.48299 -1.07612 0.749909
48 1 -1.1104 9.34807 -1.27436 3.75649
332 2 2.2208 13.5637 17.2855 8.28627
208 1 -1.1104 9.38016 -3.76521 6.32663
210 1 -1.1104 9.5195 -0.921399 6.53926
339 2 2.2208 2.28391 0.342912 13.487
205 1 -1.1104 12.0651 -3.93992 6.46865
334 2 2.2208 10.691 11.7014 -0.363382
105 2 2.2208 13.5503 5.82924 2.25767
136 2 2.2208 -0.457606 19.8106 2.39156
317 2 2.2208 7.72406 14.574 10.8514
3 1 -1.1104 0.877933 1.55765 0.77226
7 1 -1.1104 1.04052 1.51463 3.70069
13 2 2.2208 5.14361 3.20987 2.13857
17 1 -1.1104 3.63465 1.54978 0.81173
20 1 -1.1104 3.70177 1.73011 3.43946
22 2 2.2208 2.4095 3.03767 4.91918
54 2 2.2208 4.97267 6.03212 4.9132
56 1 -1.1104 0.81586 7.25104 0.900085
58 1 -1.1104 0.851404 7.26509 3.72852
60 1 -1.1104 1.10723 4.28246 0.894548
67 1 -1.1104 0.858991 4.37408 3.70878
71 1 -1.1104 3.86667 7.41097 0.974006
72 2 2.2208 2.25971 5.81664 2.25955
74 1 -1.1104 3.44837 7.50662 3.63126
76 1 -1.1104 3.6776 4.65187 0.830532
79 1 -1.1104 3.92325 4.52591 3.56535
9 1 -1.1104 6.49723 1.64347 3.52346
59 1 -1.1104 6.54019 7.17065 3.65545
63 1 -1.1104 6.60285 4.51033 0.821087
239 1 -1.1104 3.72055 4.50726 6.4542
173 1 -1.1104 3.88731 1.82449 6.32564
234 1 -1.1104 0.909158 7.41249 6.88395
236 1 -1.1104 0.987984 4.37642 6.42281
202 2 2.2208 13.5331 5.80459 8.14434
338 2 2.2208 5.29552 -2.58912 13.4854
69 1 -1.1104 6.49333 4.39403 3.7726
5 1 -1.1104 6.43812 1.82208 0.461926
717 2 2.2208 10.5181 8.71264 13.5995
57 1 -1.1104 6.59756 7.35875 0.944704
33 1 -1.1104 12.1029 1.57802 0.827247
35 1 -1.1104 12.1708 1.68722 3.89769
38 2 2.2208 10.6706 2.90516 2.15391
41 1 -1.1104 9.37169 1.73032 0.598506
44 1 -1.1104 9.49056 1.5799 3.54842
46 2 2.2208 7.78009 3.07358 4.97984
84 2 2.2208 10.7455 5.9698 5.04678
86 1 -1.1104 12.1951 7.39071 0.853069
87 1 -1.1104 12.2524 7.24664 3.50922
88 1 -1.1104 11.9913 4.45445 0.56891
92 1 -1.1104 12.0648 4.46809 3.58328
94 1 -1.1104 9.5486 7.45931 0.901904
95 2 2.2208 8.00365 5.89082 2.47872
97 1 -1.1104 9.29524 7.37753 3.70849
99 1 -1.1104 9.24761 4.36542 1.05456
102 1 -1.1104 9.26581 4.55065 3.72122
267 1 -1.1104 9.29768 7.48331 6.56242
8841 2 2.2208 8.01246 -5.27471 13.6275
9488 2 2.2208 -0.091615 -2.56096 13.4026
353 2 2.2208 2.24952 11.3845 13.3211
55 2 2.2208 4.99764 11.507 5.45841
61 1 -1.1104 0.735102 10.1978 1.03299
66 2 2.2208 5.05458 8.92515 2.32065
68 1 -1.1104 0.97368 10.1137 4.05544
73 2 2.2208 2.23742 11.4164 2.35925
75 2 2.2208 2.20418 8.72879 5.35122
77 1 -1.1104 3.37946 10.0639 0.796121
80 1 -1.1104 3.74543 10.1945 3.91694
107 1 -1.1104 0.875059 12.974 0.845342
113 1 -1.1104 0.809892 12.9456 3.98954
123 1 -1.1104 3.83737 12.6726 1.02186
128 1 -1.1104 3.5356 12.7966 3.65233
110 1 -1.1104 6.77824 12.9533 1.12438
64 1 -1.1104 6.4024 10.1489 0.849958
62 1 -1.1104 0.746177 10.1879 6.69228
115 1 -1.1104 6.27569 12.9275 3.72179
108 1 -1.1104 0.992003 13.1499 6.68639
70 1 -1.1104 6.65943 9.97762 3.9013
124 1 -1.1104 3.81589 13.0754 6.69842
316 2 2.2208 7.82366 19.9467 11.0525
85 2 2.2208 10.7409 11.4913 5.22235
89 1 -1.1104 12.2522 10.2044 1.07754
91 2 2.2208 10.8617 8.81984 2.29436
93 1 -1.1104 12.2326 10.1416 3.92352
96 2 2.2208 7.899 11.542 2.50846
98 2 2.2208 7.86776 8.61987 5.34676
100 1 -1.1104 9.28852 10.2893 0.910773
103 1 -1.1104 9.61602 10.1795 3.55027
142 1 -1.1104 12.002 12.7707 1.26821
146 1 -1.1104 12.2389 12.8381 4.06318
153 1 -1.1104 9.3854 13.2747 0.941975
158 1 -1.1104 9.36777 13.0121 3.72927
90 1 -1.1104 12.0247 10.0777 6.57118
65 1 -1.1104 6.29279 9.99877 6.44314
379 2 2.2208 5.20243 5.90541 -0.398461
143 1 -1.1104 12.2943 12.9808 6.5748
9494 2 2.2208 13.5985 -2.61222 10.5933
29 2 2.2208 -0.418029 5.93301 10.7786
233 2 2.2208 13.36 3.07657 5.09049
106 2 2.2208 5.05498 17.1498 5.27273
109 1 -1.1104 0.987783 18.4932 1.09378
114 1 -1.1104 0.778283 18.4996 3.82057
116 1 -1.1104 0.994567 15.8666 0.898552
119 2 2.2208 4.89071 14.3209 2.45162
120 2 2.2208 5.36118 19.9523 2.31575
121 1 -1.1104 1.14424 15.7022 3.74633
125 1 -1.1104 3.85525 18.4327 1.01733
127 2 2.2208 2.32451 17.3386 2.29408
129 1 -1.1104 3.56522 18.6008 4.00674
130 2 2.2208 2.28207 14.3433 5.39318
131 2 2.2208 2.28548 20.1027 5.14579
132 1 -1.1104 3.67658 15.6012 0.807528
134 1 -1.1104 3.70401 15.6294 3.90224
133 1 -1.1104 3.78224 15.7622 6.63967
302 1 -1.1104 0.822116 18.6071 6.66925
117 1 -1.1104 0.925773 15.9236 6.69962
138 1 -1.1104 6.5068 18.4559 0.859229
118 1 -1.1104 6.473 15.927 6.75057
140 1 -1.1104 6.38936 15.7506 0.839503
122 1 -1.1104 6.52175 15.7465 3.73202
126 1 -1.1104 4.0089 18.6649 6.76872
352 2 2.2208 5.10012 8.86483 13.5023
231 2 2.2208 13.6065 19.9724 5.08605
8824 2 2.2208 2.32271 -5.16619 7.76629
139 1 -1.1104 6.50717 18.704 3.97375
141 2 2.2208 10.8679 17.2869 5.19949
144 1 -1.1104 12.3113 18.7105 0.891279
147 1 -1.1104 12.152 18.47 3.94124
148 1 -1.1104 11.9251 15.6782 0.968821
150 2 2.2208 10.4944 14.4038 2.51289
151 2 2.2208 10.645 19.9424 2.62935
152 1 -1.1104 11.9568 15.7262 3.66879
155 1 -1.1104 9.49202 18.6792 1.09246
157 2 2.2208 7.84893 17.2027 2.36828
159 1 -1.1104 9.31265 18.4912 3.7149
160 2 2.2208 7.86601 14.3623 5.14608
161 2 2.2208 7.93 19.9619 5.41126
162 1 -1.1104 9.29957 16.0437 0.99516
164 1 -1.1104 9.14757 15.8036 3.87267
163 1 -1.1104 9.33735 15.7944 6.67497
714 2 2.2208 13.6358 0.153211 13.5336
112 1 -1.1104 6.66954 18.724 6.77032
145 1 -1.1104 12.1442 18.5409 6.68253
149 1 -1.1104 12.154 15.8442 6.78155
170 1 -1.1104 0.944035 -1.13078 6.29065
168 1 -1.1104 6.39057 -3.89463 6.29651
174 1 -1.1104 3.69692 -1.05751 6.30443
175 2 2.2208 5.23312 0.267043 10.5432
176 1 -1.1104 1.27528 -3.99615 11.8764
180 1 -1.1104 0.847862 -3.83957 9.05702
184 1 -1.1104 1.12353 -1.25658 12.0528
186 2 2.2208 4.99784 -2.54264 7.63235
188 1 -1.1104 0.836392 -1.30164 9.22624
190 1 -1.1104 3.88268 -3.83554 12.2351
192 2 2.2208 2.18163 0.126703 7.88889
193 1 -1.1104 3.72672 -4.05609 9.24356
195 2 2.2208 2.35091 -2.51569 10.6749
197 1 -1.1104 4.02856 -0.856085 12.1962
198 1 -1.1104 3.7409 -1.11676 9.17136
189 1 -1.1104 6.47654 -1.11905 9.24914
185 1 -1.1104 6.69888 -1.23823 12.0398
229 2 2.2208 13.4813 0.35684 7.7954
17700 2 2.2208 13.6806 -5.32281 13.6663
336 2 2.2208 7.94628 8.76821 -0.423154
207 1 -1.1104 12.1985 -1.05527 6.14258
8827 2 2.2208 7.9992 -5.30378 7.66956
178 1 -1.1104 6.59451 -3.9741 12.2466
182 1 -1.1104 6.4484 -3.86598 9.11015
211 2 2.2208 10.7608 0.338177 10.6413
212 1 -1.1104 12.3204 -3.89547 12.0194
214 1 -1.1104 12.1545 -3.74177 9.22279
216 1 -1.1104 12.2991 -1.32323 12.0768
217 2 2.2208 10.8236 -2.44524 7.69183
219 1 -1.1104 12.219 -1.03851 8.99429
220 1 -1.1104 9.50865 -3.9792 12.0503
222 2 2.2208 8.01996 0.250652 7.84033
223 1 -1.1104 9.20963 -3.88841 9.03382
225 2 2.2208 7.96492 -2.54254 10.5115
227 1 -1.1104 9.5801 -1.1964 12.1918
228 1 -1.1104 9.37832 -1.134 9.25264
289 1 -1.1104 6.32797 15.7525 9.47774
28 2 2.2208 13.6917 19.8816 10.9592
169 1 -1.1104 6.43262 1.74139 6.42471
238 1 -1.1104 3.84643 7.1718 6.60612
235 1 -1.1104 6.65069 7.20157 6.58968
237 1 -1.1104 6.338 4.51056 6.48646
167 1 -1.1104 0.972629 1.61617 6.37465
177 1 -1.1104 0.841915 1.79603 11.8276
181 1 -1.1104 0.919596 1.58924 9.12321
187 2 2.2208 5.0884 3.09083 7.89992
191 1 -1.1104 3.90762 1.67904 11.9982
194 1 -1.1104 3.62726 1.69081 9.25345
196 2 2.2208 2.31068 2.96741 10.5763
240 2 2.2208 5.07153 5.67258 10.7115
242 1 -1.1104 0.664998 7.26995 12.3684
246 1 -1.1104 0.773702 4.52245 11.9578
251 1 -1.1104 0.936897 4.46229 9.16377
255 1 -1.1104 3.70947 7.36679 12.3926
256 2 2.2208 2.35572 5.73281 7.96229
258 1 -1.1104 3.90209 7.08399 9.28616
260 1 -1.1104 3.51716 4.48346 12.1964
262 1 -1.1104 3.82288 4.28171 9.27882
244 1 -1.1104 0.933226 7.29107 9.50778
245 1 -1.1104 6.49084 7.47549 9.27387
243 1 -1.1104 6.62109 7.42316 12.1134
253 1 -1.1104 6.61201 4.46323 9.16393
179 1 -1.1104 6.59621 1.61703 12.0923
199 2 2.2208 -0.440757 3.0449 7.793
265 1 -1.1104 12.1701 7.44867 6.51047
266 1 -1.1104 12.2114 4.41861 6.62405
206 1 -1.1104 11.8993 1.62264 6.46178
8821 2 2.2208 7.72449 -5.31197 2.28207
248 1 -1.1104 6.41436 4.52748 12.1433
183 1 -1.1104 6.48694 1.70922 9.34874
269 1 -1.1104 9.27914 4.64815 6.3928
209 1 -1.1104 9.22887 1.92127 6.53708
213 1 -1.1104 12.0983 1.68889 12.0748
215 1 -1.1104 12.3058 1.86673 9.25206
218 2 2.2208 10.7015 3.1469 7.78739
221 1 -1.1104 9.44524 1.68088 12.208
224 1 -1.1104 9.25635 1.64036 9.32765
226 2 2.2208 7.90053 2.98799 10.7641
268 1 -1.1104 9.29296 4.48972 9.19948
271 1 -1.1104 9.27008 4.38712 12.1733
273 1 -1.1104 9.43377 7.15104 9.21565
275 2 2.2208 7.86419 5.90658 7.70416
276 2 2.2208 10.5243 5.90063 10.734
278 1 -1.1104 11.9577 7.36584 12.1224
279 1 -1.1104 12.3477 7.41362 9.43395
280 1 -1.1104 12.2648 4.49918 12.2189
283 1 -1.1104 11.9325 4.53157 9.43819
285 1 -1.1104 9.34332 7.29158 12.2777
716 2 2.2208 10.7109 2.86535 13.5546
327 1 -1.1104 12.1665 18.6426 9.63881
78 1 -1.1104 3.65943 10.0218 6.56502
111 1 -1.1104 6.62353 13.0841 6.66895
241 2 2.2208 5.10574 11.4676 10.6965
247 1 -1.1104 0.792656 10.2854 12.0159
250 2 2.2208 5.17903 8.61301 7.82243
252 1 -1.1104 0.782856 10.0835 9.37307
257 2 2.2208 2.31116 11.6549 8.13512
259 2 2.2208 2.35406 8.75213 10.5193
261 1 -1.1104 3.77451 10.0122 12.0167
263 1 -1.1104 3.69327 9.91947 9.23553
305 1 -1.1104 3.48155 12.9739 9.58861
299 1 -1.1104 0.905961 13.0125 12.2408
294 1 -1.1104 0.712613 13.0526 9.351
287 1 -1.1104 3.6135 12.8823 12.2659
297 1 -1.1104 6.75089 13.1065 12.2135
290 1 -1.1104 6.14966 13.0787 9.49018
323 1 -1.1104 12.2201 15.9317 9.41685
331 2 2.2208 10.7145 17.2804 11.0504
154 1 -1.1104 9.4043 13.0301 6.55236
325 2 2.2208 10.8118 14.3734 8.04821
315 1 -1.1104 9.45847 15.929 12.399
249 1 -1.1104 6.51495 10.4046 12.0536
254 1 -1.1104 6.4235 10.4004 9.29275
101 1 -1.1104 9.35203 10.2385 6.6273
264 1 -1.1104 9.34306 9.98406 9.50306
270 1 -1.1104 9.23387 10.0198 12.2888
272 2 2.2208 7.92523 8.68295 10.8147
274 2 2.2208 8.08717 11.6222 8.09337
277 2 2.2208 10.7408 11.4197 10.7754
281 1 -1.1104 12.0116 10.0991 12.0937
282 2 2.2208 10.985 8.69357 7.97709
284 1 -1.1104 12.1522 10.196 9.27109
330 1 -1.1104 12.0133 12.8324 12.3279
328 1 -1.1104 12.0942 12.97 9.592
322 1 -1.1104 9.36295 13.2911 12.1643
319 1 -1.1104 9.40036 12.8523 9.29177
344 2 2.2208 13.504 14.3048 -0.307385
326 1 -1.1104 12.2537 15.8607 12.4613
329 1 -1.1104 12.441 18.5168 12.2487
324 2 2.2208 10.8664 19.8721 8.09218
288 1 -1.1104 6.5595 18.4359 9.5868
156 1 -1.1104 9.3662 18.4348 6.66638
306 1 -1.1104 6.46501 15.9309 12.3555
296 1 -1.1104 6.62396 18.7655 12.608
310 2 2.2208 2.36723 14.2894 11.0307
303 2 2.2208 2.39395 17.3514 8.02678
301 1 -1.1104 3.75344 18.5421 9.34533
300 2 2.2208 5.14525 17.0926 10.9168
295 2 2.2208 4.9055 14.4715 8.12838
298 1 -1.1104 0.885822 18.683 12.2249
309 2 2.2208 2.37894 20.0257 10.7139
308 1 -1.1104 3.77704 15.4862 12.4382
307 1 -1.1104 1.08929 15.8021 12.2745
304 1 -1.1104 3.37257 15.8565 9.59247
286 1 -1.1104 3.80806 18.4296 12.2498
291 1 -1.1104 0.696213 18.628 9.63836
292 1 -1.1104 0.600441 15.9346 9.36054
293 2 2.2208 5.26868 19.9596 8.00882
318 1 -1.1104 9.27573 18.4836 9.69857
320 2 2.2208 7.99404 17.036 8.04825
314 1 -1.1104 9.35312 15.8085 9.48325
351 2 2.2208 2.26764 5.91812 13.476
321 1 -1.1104 9.63156 18.69 12.4488
49 2 2.2208 13.4685 0.305214 2.14725
356 2 2.2208 8.02449 11.6607 13.504
53 2 2.2208 13.4248 11.4603 8.03027
203 2 2.2208 13.6005 3.1351 10.9503
341 2 2.2208 5.34896 2.8221 13.573
52 2 2.2208 13.5922 8.87235 11.0277
104 2 2.2208 13.4596 11.7039 2.44503
165 2 2.2208 13.6264 17.1027 2.53115
26 2 2.2208 -0.296165 0.0891502 4.79346
17371 2 2.2208 -0.340016 -5.28733 10.5091
135 2 2.2208 -0.443504 14.4661 2.62133
357 2 2.2208 2.4502 17.1572 13.6154
713 2 2.2208 13.3508 5.9867 13.5904
371 2 2.2208 -0.284865 16.9979 -0.395494
380 2 2.2208 5.05621 0.13398 16.3475
381 1 -1.1104 0.946388 -4.01837 17.5198
385 1 -1.1104 1.26034 -3.78105 14.5928
393 1 -1.1104 1.08909 -1.33024 17.6803
395 2 2.2208 5.12265 -2.63823 19.4149
397 1 -1.1104 1.11011 -0.999832 14.8897
401 1 -1.1104 3.63388 -4.04492 17.8143
403 2 2.2208 2.32101 0.221415 19.1915
404 1 -1.1104 3.92153 -4.07723 14.942
408 2 2.2208 2.45706 -2.59246 16.2599
410 1 -1.1104 3.69055 -1.31371 17.7605
411 1 -1.1104 3.90082 -1.10339 14.9019
389 1 -1.1104 6.90251 -3.90547 15.2532
394 1 -1.1104 6.5048 -1.30427 17.8378
383 1 -1.1104 6.69874 -3.9091 18.1434
399 1 -1.1104 6.39558 -1.21017 14.9163
400 1 -1.1104 6.67091 -1.05937 20.7687
8873 2 2.2208 2.24262 -5.33962 24.8245
451 2 2.2208 13.629 -2.59732 16.2887
230 2 2.2208 13.58 8.82984 27.6845
423 2 2.2208 10.727 0.291029 16.3349
424 1 -1.1104 12.1508 -3.95452 17.6632
426 1 -1.1104 12.315 -4.01671 14.7241
430 1 -1.1104 12.0568 -1.2214 17.7814
431 2 2.2208 10.7344 -2.47438 19.1967
433 1 -1.1104 12.2907 -1.10906 14.9791
435 1 -1.1104 9.31754 -3.91491 17.8747
437 2 2.2208 7.69597 0.437875 19.2944
438 1 -1.1104 9.6198 -3.8983 15.0067
442 2 2.2208 8.19044 -2.48578 16.683
444 1 -1.1104 9.43396 -1.08153 17.9326
445 1 -1.1104 9.40057 -1.16954 14.9332
434 1 -1.1104 11.9242 -1.21062 20.686
340 2 2.2208 10.9362 5.99698 27.5553
349 2 2.2208 8.20164 19.883 27.7044
345 2 2.2208 13.3837 20.0841 27.7159
8940 2 2.2208 5.33253 -5.2736 16.4642
382 1 -1.1104 0.800393 1.60511 17.7694
387 1 -1.1104 0.841758 1.83495 14.9845
396 2 2.2208 5.09084 3.26291 19.2797
402 1 -1.1104 3.56714 1.46788 17.737
406 1 -1.1104 3.737 1.62235 14.8114
409 2 2.2208 2.21031 3.02926 16.3235
456 2 2.2208 5.03705 6.00014 16.3439
458 1 -1.1104 0.879603 7.24575 18.0751
460 1 -1.1104 1.1055 7.11503 15.0135
464 1 -1.1104 1.00981 4.47549 17.5444
469 1 -1.1104 0.78872 4.39058 14.8892
477 1 -1.1104 3.57436 7.17815 17.9571
478 2 2.2208 2.16569 5.75954 19.0977
480 1 -1.1104 3.74608 7.48957 15.1695
483 1 -1.1104 3.93469 4.50719 17.8274
485 1 -1.1104 3.54523 4.61854 15.1075
459 1 -1.1104 6.39537 7.32124 17.8286
461 1 -1.1104 0.875212 7.24012 20.7475
407 1 -1.1104 3.84288 1.71942 20.5655
391 1 -1.1104 6.55488 1.71745 15.2293
384 1 -1.1104 6.30141 1.65379 17.8943
392 1 -1.1104 6.60231 1.87228 20.7053
8909 2 2.2208 7.99834 -5.30732 19.2943
369 2 2.2208 10.7539 0.0984626 27.4548
462 1 -1.1104 6.59099 7.31371 14.8309
466 1 -1.1104 6.5446 4.4974 17.9579
473 1 -1.1104 6.45463 4.42938 15.066
425 1 -1.1104 12.0956 1.63529 17.7492
428 1 -1.1104 12.1276 1.73739 14.9109
432 2 2.2208 10.7625 3.05517 19.1129
436 1 -1.1104 9.34608 1.69173 17.8308
440 1 -1.1104 9.30011 1.54728 15.0332
443 2 2.2208 7.83623 3.09422 16.424
492 2 2.2208 10.6681 5.90757 16.3824
494 1 -1.1104 12.3467 7.04138 17.7806
495 1 -1.1104 12.1071 7.26758 15.0615
497 1 -1.1104 12.014 4.2795 17.5398
500 1 -1.1104 11.9509 4.58351 14.8229
504 1 -1.1104 9.28004 7.21469 17.9079
505 2 2.2208 7.76869 5.82149 19.3265
507 1 -1.1104 9.39795 7.29056 15.0466
510 1 -1.1104 9.27168 4.59631 17.9078
512 1 -1.1104 9.2515 4.35288 15.0673
513 1 -1.1104 9.34134 4.55431 20.6142
441 1 -1.1104 9.49177 1.7603 20.7441
370 2 2.2208 7.61107 -2.68036 27.4942
718 2 2.2208 13.5464 11.7392 13.7243
496 1 -1.1104 11.9422 7.19667 20.6506
375 2 2.2208 2.56225 19.9805 27.7275
457 2 2.2208 5.21271 11.562 16.4451
465 1 -1.1104 0.774525 9.99235 17.6199
468 2 2.2208 5.02589 8.61006 19.2291
471 1 -1.1104 0.773214 10.0147 14.7504
479 2 2.2208 2.33671 11.3026 19.2163
482 2 2.2208 2.24216 8.58485 16.5701
484 1 -1.1104 3.75749 9.99081 17.7796
487 1 -1.1104 3.71252 10.2072 14.971
520 1 -1.1104 1.08848 12.9684 18.0188
524 1 -1.1104 0.953709 12.8898 15.1096
540 1 -1.1104 3.82976 12.8916 17.9739
543 1 -1.1104 3.89814 12.6853 15.0071
528 1 -1.1104 6.67494 12.8753 15.1049
544 1 -1.1104 3.74949 12.9245 20.8526
715 2 2.2208 10.8517 -2.56766 13.6829
525 1 -1.1104 0.978822 12.6869 20.9324
8939 2 2.2208 2.32383 -5.39752 19.0177
522 1 -1.1104 6.70879 13.1303 17.8719
467 1 -1.1104 6.38169 10.1323 17.9514
476 1 -1.1104 6.48846 9.91379 20.6791
475 1 -1.1104 6.54609 10.0277 14.9599
493 2 2.2208 10.9681 11.459 16.5099
498 1 -1.1104 12.15 10.0669 17.7402
499 2 2.2208 10.6933 8.56189 19.3352
502 1 -1.1104 12.3449 10.2124 14.8785
506 2 2.2208 8.01676 11.3731 19.1611
509 2 2.2208 7.87289 8.56756 16.48
511 1 -1.1104 9.18308 9.80433 17.743
514 1 -1.1104 9.43101 10.1574 15.0105
556 1 -1.1104 12.1625 13.1517 18.1129
558 1 -1.1104 12.2516 12.9688 15.3191
567 1 -1.1104 9.34145 12.7051 17.7706
570 1 -1.1104 9.29003 13.1007 15.0627
559 1 -1.1104 12.3091 13.0967 20.5172
571 1 -1.1104 9.56285 13.0628 20.5823
365 2 2.2208 2.1096 -2.5814 27.5565
515 1 -1.1104 9.53457 10.1123 20.5405
529 1 -1.1104 6.62315 12.7125 20.7742
503 1 -1.1104 12.1796 10.1719 20.6028
450 2 2.2208 -0.402143 20.0893 19.3941
8833 2 2.2208 10.7686 -5.29861 27.7463
519 2 2.2208 5.17902 17.0716 16.6117
521 1 -1.1104 1.16597 18.453 17.8442
526 1 -1.1104 0.822563 18.4144 14.9841
532 1 -1.1104 1.00575 15.5762 17.8892
534 2 2.2208 5.27476 14.389 19.3665
535 2 2.2208 5.16869 19.8692 19.3168
536 1 -1.1104 0.856899 15.5489 15.1779
541 1 -1.1104 3.89985 18.373 17.9829
542 2 2.2208 2.39185 17.0035 19.3489
545 1 -1.1104 3.57053 18.3296 15.3172
547 2 2.2208 2.49335 14.1459 16.5504
548 2 2.2208 2.37957 20.0824 16.6021
549 1 -1.1104 3.70573 15.5708 18.0167
550 1 -1.1104 3.58824 15.6809 15.2519
533 1 -1.1104 6.47934 15.7258 18.0093
527 1 -1.1104 0.998629 18.3963 20.9773
537 1 -1.1104 0.977495 15.8123 20.756
539 1 -1.1104 6.554 15.7731 20.726
538 1 -1.1104 6.58888 15.6273 15.2906
523 1 -1.1104 6.70576 18.5021 17.7705
530 1 -1.1104 6.49438 18.4203 15.2587
609 1 -1.1104 9.44936 15.9808 23.3459
551 1 -1.1104 3.89807 15.7561 20.791
361 2 2.2208 10.8244 14.4077 13.7116
347 2 2.2208 7.85168 14.4892 27.6845
578 1 -1.1104 9.53415 15.8022 20.7293
561 1 -1.1104 12.2796 18.4709 20.8949
555 2 2.2208 10.8269 17.2397 16.6224
557 1 -1.1104 12.3951 18.763 17.9152
560 1 -1.1104 12.089 18.4474 15.1072
562 1 -1.1104 12.2519 15.896 18.0716
563 2 2.2208 10.9118 14.5594 19.514
564 2 2.2208 10.9528 19.8727 19.2328
565 1 -1.1104 12.1979 15.9571 15.4399
568 1 -1.1104 9.42015 18.666 18.0038
569 2 2.2208 7.98505 17.3438 19.2481
572 1 -1.1104 9.32163 18.8416 15.1054
574 2 2.2208 8.09262 14.328 16.5778
575 2 2.2208 7.86639 19.8979 16.4656
576 1 -1.1104 9.29816 15.8217 17.9981
577 1 -1.1104 9.49724 15.872 15.1613
573 1 -1.1104 9.688 18.5625 20.5533
531 1 -1.1104 6.6396 18.5566 20.5727
398 1 -1.1104 0.857097 -1.20829 20.4554
405 1 -1.1104 3.61007 -4.12002 20.6511
412 1 -1.1104 3.77259 -1.19868 20.6441
390 1 -1.1104 6.3857 -3.96154 20.8808
386 1 -1.1104 0.853654 -4.00628 20.5252
583 2 2.2208 5.1129 0.220836 22.1173
584 1 -1.1104 0.809299 -4.04744 23.4756
588 1 -1.1104 0.787712 -3.90238 26.1965
592 1 -1.1104 0.945424 -1.12368 23.2743
594 2 2.2208 5.02896 -2.68114 24.7491
596 1 -1.1104 0.746582 -1.16417 26.2226
598 1 -1.1104 3.55293 -3.97059 23.1844
600 2 2.2208 2.26213 0.180105 24.8636
601 1 -1.1104 3.67093 -4.02973 26.3842
603 2 2.2208 2.28012 -2.78983 22.0101
605 1 -1.1104 3.76194 -1.31934 23.2493
606 1 -1.1104 3.53916 -1.22598 26.3062
593 1 -1.1104 6.51233 -1.27061 23.3956
586 1 -1.1104 6.30986 -3.9647 23.5493
597 1 -1.1104 6.26385 -1.36618 26.2006
362 2 2.2208 7.96672 17.2598 13.7425
446 1 -1.1104 9.22502 -1.01214 20.7488
427 1 -1.1104 12.054 -3.81709 20.4786
590 1 -1.1104 6.4179 -4.1663 26.2248
645 2 2.2208 13.4238 -2.50214 21.974
439 1 -1.1104 9.10151 -3.74585 20.6733
619 2 2.2208 10.7351 0.304423 22.0228
620 1 -1.1104 12.125 -3.90634 23.2898
622 1 -1.1104 12.0517 -3.90194 26.3608
624 1 -1.1104 11.9984 -1.38289 23.5018
625 2 2.2208 10.5545 -2.54867 24.7376
627 1 -1.1104 12.021 -1.16475 26.3036
628 1 -1.1104 9.42452 -4.05502 23.3061
630 2 2.2208 7.85926 0.174538 24.7765
631 1 -1.1104 9.1842 -3.84846 26.1156
633 2 2.2208 7.8452 -2.52686 22.2001
635 1 -1.1104 9.2319 -1.39649 23.5551
636 1 -1.1104 9.13867 -1.02666 26.1225
364 2 2.2208 5.05561 0.144016 27.6028
646 2 2.2208 13.5089 0.0663776 24.7988
388 1 -1.1104 0.763128 1.59768 20.6434
474 1 -1.1104 6.17767 4.61243 20.764
481 1 -1.1104 3.49824 7.27718 20.6641
363 2 2.2208 13.6274 17.0978 13.7995
470 1 -1.1104 0.824215 4.4209 20.3991
585 1 -1.1104 0.705511 1.62538 23.4154
589 1 -1.1104 0.718915 1.65766 26.236
595 2 2.2208 5.17915 3.12826 24.7712
599 1 -1.1104 3.65268 1.56965 23.4562
602 1 -1.1104 3.80859 1.60496 26.3041
604 2 2.2208 2.20001 3.06292 22.1429
486 1 -1.1104 3.50684 4.3545 20.6304
648 2 2.2208 4.99738 6.00273 22.1563
650 1 -1.1104 0.899818 7.13106 23.4699
652 1 -1.1104 0.902656 7.17826 26.3697
654 1 -1.1104 0.912717 4.55352 23.4749
659 1 -1.1104 0.793467 4.3447 26.5223
663 1 -1.1104 3.74653 7.35016 23.4689
664 2 2.2208 2.13311 5.77808 24.853
666 1 -1.1104 3.77112 7.24981 26.3106
668 1 -1.1104 3.59792 4.24472 23.6521
670 1 -1.1104 3.66983 4.35546 26.1953
651 1 -1.1104 6.58199 7.34209 23.5622
656 1 -1.1104 6.66398 4.56982 23.4727
591 1 -1.1104 6.54051 1.61352 25.9754
587 1 -1.1104 6.36125 1.90744 23.3979
661 1 -1.1104 6.54997 4.38932 26.0789
653 1 -1.1104 6.51176 7.42328 26.2414
501 1 -1.1104 12.1643 4.39683 20.3091
429 1 -1.1104 12.2101 1.58374 20.5578
508 1 -1.1104 9.09243 7.33509 20.5434
554 1 -1.1104 9.54237 18.9249 23.2864
463 1 -1.1104 6.37985 7.16007 20.7539
621 1 -1.1104 11.9046 1.69884 23.1325
623 1 -1.1104 12.3075 1.7454 26.0983
626 2 2.2208 10.7045 2.90996 24.6938
629 1 -1.1104 8.9519 1.58572 23.4692
632 1 -1.1104 9.56987 1.67949 26.1071
634 2 2.2208 7.82424 3.18568 22.0486
680 1 -1.1104 9.46677 4.5931 26.4392
682 1 -1.1104 9.44249 4.38559 23.4604
684 1 -1.1104 9.42274 7.35431 26.3527
686 2 2.2208 8.14492 5.90567 24.848
687 2 2.2208 10.7257 5.92119 22.0769
689 1 -1.1104 12.2498 7.25231 23.5163
690 1 -1.1104 12.1394 7.44143 26.2261
691 1 -1.1104 12.1928 4.39393 23.1813
694 1 -1.1104 12.3649 4.48639 26.0633
696 1 -1.1104 9.43964 7.3371 23.3565
637 2 2.2208 -0.365155 19.8582 24.9201
8872 2 2.2208 13.4706 -5.33149 24.7016
472 1 -1.1104 0.936676 10.0628 20.4524
488 1 -1.1104 3.76487 10.0982 20.7699
649 2 2.2208 5.23218 11.5128 22.2215
655 1 -1.1104 0.946614 9.97837 23.2437
658 2 2.2208 5.067 8.63386 24.9504
660 1 -1.1104 0.935907 9.80715 26.2474
665 2 2.2208 2.13079 11.4346 24.9735
667 2 2.2208 2.43014 8.67697 22.0537
669 1 -1.1104 3.79045 10.1892 23.5957
671 1 -1.1104 3.7141 10.0824 26.2762
673 1 -1.1104 3.73563 12.8828 26.341
698 1 -1.1104 0.932582 12.875 23.5036
705 1 -1.1104 3.67225 12.8957 23.6632
709 1 -1.1104 0.727913 12.5595 26.3237
662 1 -1.1104 6.53298 10.1522 26.3464
704 1 -1.1104 6.65567 13.1106 26.3272
639 2 2.2208 2.34032 14.1648 22.1434
579 2 2.2208 8.01673 17.3157 24.8984
710 1 -1.1104 6.87356 18.5743 23.2657
552 1 -1.1104 12.3186 15.7056 26.5445
607 2 2.2208 8.07584 14.3219 22.0461
657 1 -1.1104 6.62697 10.1217 23.4904
455 1 -1.1104 12.2367 12.8979 23.5669
490 1 -1.1104 12.0909 12.949 26.4608
679 1 -1.1104 9.30208 10.0256 26.3577
681 1 -1.1104 9.45547 10.0244 23.3885
683 2 2.2208 7.84492 8.67681 21.9949
685 2 2.2208 8.00961 11.3237 24.8508
688 2 2.2208 10.9171 11.676 21.9878
692 1 -1.1104 12.1758 10.1256 23.1995
693 2 2.2208 10.7133 8.70582 24.8118
695 1 -1.1104 12.0432 10.2986 26.4143
701 1 -1.1104 6.51993 12.9095 23.6119
581 1 -1.1104 9.47923 12.9106 26.1013
553 1 -1.1104 9.4209 13.0039 23.3637
366 2 2.2208 2.27969 2.88959 27.5569
377 2 2.2208 13.6454 -2.56708 27.6971
489 1 -1.1104 12.2232 18.4195 23.6445
612 1 -1.1104 9.48136 15.7259 26.2807
360 2 2.2208 10.8886 20.023 13.8118
546 1 -1.1104 3.63168 18.6078 20.6711
8870 2 2.2208 7.87503 -5.35297 24.8298
706 1 -1.1104 6.67493 15.8502 26.3054
641 2 2.2208 2.47929 19.8448 22.1515
644 1 -1.1104 3.89799 15.8956 23.4573
647 1 -1.1104 0.925331 15.5875 23.792
674 1 -1.1104 3.68257 15.5736 26.2582
675 2 2.2208 2.4962 17.1389 24.9575
678 1 -1.1104 3.95804 18.581 26.2715
697 2 2.2208 5.25536 17.1027 22.1028
699 1 -1.1104 1.2137 18.5897 23.6372
703 1 -1.1104 4.11499 18.4964 23.6031
707 1 -1.1104 1.21992 18.4981 26.4613
708 1 -1.1104 0.728573 15.4864 26.3014
711 2 2.2208 5.20608 20.1454 24.8304
712 2 2.2208 5.25081 14.3515 24.9289
17696 2 2.2208 13.5315 -5.29493 19.1917
355 2 2.2208 5.09973 11.4179 27.743
672 1 -1.1104 6.93849 15.5025 23.6889
518 2 2.2208 10.7493 20.0921 24.9804
517 2 2.2208 10.869 14.3222 24.938
516 1 -1.1104 12.3448 15.5466 23.7189
566 1 -1.1104 12.3405 15.8822 20.7538
580 1 -1.1104 6.7074 18.6264 26.3483
582 1 -1.1104 9.45473 18.7268 26.2473
608 2 2.2208 8.1076 19.9711 22.069
454 2 2.2208 10.9469 17.1593 22.1215
491 1 -1.1104 12.2365 18.6801 26.3672
448 2 2.2208 -0.377571 17.2555 16.6666
414 2 2.2208 13.5444 8.60414 22.0573
358 2 2.2208 5.05693 20.0126 13.7569
8871 2 2.2208 10.6011 -5.20803 21.9385
418 2 2.2208 13.4561 8.67537 16.3302
372 2 2.2208 8.00563 3.15685 27.4381
421 2 2.2208 13.4805 3.05612 16.3613
359 2 2.2208 5.2212 14.4975 13.8716
378 2 2.2208 13.4369 3.01684 27.7239
17697 2 2.2208 -0.278951 -5.36837 16.2469
700 2 2.2208 13.4251 11.5915 24.9669
449 2 2.2208 -0.299936 14.1522 19.3128
348 2 2.2208 10.9216 17.2232 27.7286
611 2 2.2208 13.6212 14.4446 16.6654
415 2 2.2208 13.564 2.95985 21.9729
420 2 2.2208 13.4708 0.163135 19.1383
643 2 2.2208 13.481 5.79015 19.0953
640 2 2.2208 -0.33372 11.5588 16.4063
373 2 2.2208 2.2662 14.1801 27.5941
376 2 2.2208 2.22672 8.63909 27.618
343 2 2.2208 8.09404 0.192429 13.7113
374 2 2.2208 5.18934 17.0371 27.731
719 2 2.2208 5.37173 22.6605 5.09957
721 1 -1.1104 0.714359 24.3493 1.0218
722 1 -1.1104 1.09624 23.9188 3.84432
723 1 -1.1104 1.09668 21.4046 0.980399
725 2 2.2208 4.9882 25.7855 2.3438
726 1 -1.1104 1.03608 21.3419 3.64711
728 1 -1.1104 3.66202 24.2262 0.880565
729 2 2.2208 2.44289 22.7748 2.26865
731 1 -1.1104 3.85851 24.2376 3.92459
732 2 2.2208 2.3473 25.5042 5.12736
733 1 -1.1104 3.83316 21.3868 0.811495
735 1 -1.1104 3.95456 21.4747 3.54448
740 1 -1.1104 6.55145 24.0122 1.02302
727 1 -1.1104 1.03318 26.8704 3.82625
862 1 -1.1104 1.05238 21.352 6.54023
860 1 -1.1104 0.79212 24.2952 6.39522
866 1 -1.1104 3.78539 24.1467 6.70212
867 1 -1.1104 3.79991 21.323 6.2938
734 1 -1.1104 3.60604 27.0062 1.10097
741 1 -1.1104 6.85666 24.0552 3.89643
1042 2 2.2208 2.34716 22.6815 13.5152
863 1 -1.1104 0.807736 27.0177 6.84343
744 1 -1.1104 6.61248 21.2449 3.83965
742 1 -1.1104 6.68695 21.3439 0.844278
864 1 -1.1104 6.71819 21.3339 6.72209
743 1 -1.1104 6.51633 26.8251 0.94088
746 2 2.2208 10.7066 22.6998 5.19557
748 1 -1.1104 12.1119 24.1282 0.969005
749 1 -1.1104 12.1608 24.0358 3.95368
750 1 -1.1104 12.1047 21.2467 1.1059
752 2 2.2208 10.882 25.4297 2.33709
753 1 -1.1104 11.9922 21.1197 3.96312
755 1 -1.1104 9.34967 24.1281 1.11626
756 2 2.2208 8.06921 22.7175 2.38557
758 1 -1.1104 9.54532 24.1672 3.6396
759 2 2.2208 8.06916 25.5182 5.18622
760 1 -1.1104 9.52188 21.3272 0.987973
762 1 -1.1104 9.39212 21.4195 3.92131
761 1 -1.1104 9.3646 26.9081 0.926681
763 1 -1.1104 9.52905 27.017 3.87671
894 1 -1.1104 12.2929 21.3359 6.9136
898 1 -1.1104 9.51883 26.8209 6.68283
893 1 -1.1104 12.1463 24.4028 6.7568
751 1 -1.1104 12.2934 26.9863 1.20808
754 1 -1.1104 12.5955 26.8984 3.87352
865 1 -1.1104 6.49135 27.0133 6.63609
897 1 -1.1104 9.45398 21.247 6.44617
896 1 -1.1104 9.08848 23.8689 6.68999
895 1 -1.1104 12.2123 26.8635 6.85034
861 1 -1.1104 6.25275 24.3191 6.36742
1597 1 -1.1104 1.12069 46.7119 11.9836
724 1 -1.1104 1.00164 26.9546 0.970747
736 1 -1.1104 3.77695 27.0708 3.99448
1009 2 2.2208 7.97087 42.4251 10.8182
745 1 -1.1104 6.77576 26.8109 3.80513
720 2 2.2208 5.1812 28.4405 5.346
730 2 2.2208 2.44018 28.4013 2.45424
768 1 -1.1104 0.803822 29.949 0.987661
771 1 -1.1104 1.19628 29.9579 3.9368
774 1 -1.1104 0.792505 32.9354 1.15569
775 2 2.2208 5.26854 31.2595 2.44465
777 1 -1.1104 1.11333 32.5756 3.78529
779 1 -1.1104 3.49002 29.8972 0.845774
782 1 -1.1104 4.00905 29.8491 3.93786
784 2 2.2208 2.49894 31.4515 5.41093
786 1 -1.1104 3.83847 32.601 0.881546
787 1 -1.1104 3.87206 32.8563 3.70046
791 1 -1.1104 6.47368 29.7371 1.00972
1050 2 2.2208 5.23559 45.3638 -0.239138
921 1 -1.1104 1.21043 32.554 6.8052
923 1 -1.1104 3.95852 29.8886 6.67467
917 1 -1.1104 1.06797 29.7677 6.64154
925 1 -1.1104 3.89908 32.7221 6.39079
792 1 -1.1104 6.64925 29.7474 3.77291
793 1 -1.1104 6.60826 32.5789 0.933171
922 1 -1.1104 6.57711 32.782 6.76816
778 1 -1.1104 6.61055 32.6823 3.79306
747 2 2.2208 10.8336 28.2282 5.1227
757 2 2.2208 8.03472 28.4712 2.36141
795 1 -1.1104 12.1351 29.7386 0.963204
797 1 -1.1104 12.1653 29.7523 3.87282
799 1 -1.1104 12.5099 32.5147 1.08022
800 2 2.2208 11.1411 31.2198 2.5408
802 1 -1.1104 12.3187 32.7662 3.70845
803 1 -1.1104 9.38069 29.7016 1.06402
806 1 -1.1104 9.4297 29.8191 3.70036
808 2 2.2208 8.08436 31.1227 5.10509
810 1 -1.1104 9.62355 32.5425 0.974251
811 1 -1.1104 9.37476 32.8181 3.75248
951 1 -1.1104 12.453 29.5983 6.54136
953 1 -1.1104 12.1263 32.398 6.54553
919 1 -1.1104 6.64923 29.7658 6.62219
956 1 -1.1104 9.40473 32.5673 6.52904