ITEM: TIMESTEP
70000
ITEM: NUMBER OF ATOMS
17700
ITEM: BOX BOUNDS pp pp pp
-4.3940469400825383e-01 2.7779404694008637e+01
-5.3294220327425057e+00 3.3340942203274028e+02
-4.5037778852325555e-01 2.7790377788523536e+01
ITEM: ATOMS id type q x y z
1 2 2.2208 5.1172 0.335282 5.17176
2 1 -1.1104 0.826475 -3.83404 0.914532
6 1 -1.1104 0.96544 -4.04085 3.76033
10 1 -1.1104 0.903696 -1.13131 0.955044
12 2 2.2208 5.13256 -2.51095 2.371
14 1 -1.1104 0.792829 -1.10019 3.82019
16 1 -1.1104 3.6896 -3.88116 0.942183
18 2 2.2208 2.3565 0.246646 2.35606
19 1 -1.1104 3.8651 -3.87382 3.80769
21 2 2.2208 2.44087 -2.61636 5.336
23 1 -1.1104 3.74289 -1.12532 1.02808
24 1 -1.1104 3.49537 -0.861519 3.8895
11 1 -1.1104 6.6066 -1.16125 1.12624
170 1 -1.1104 1.10306 -1.20611 6.67263
15 1 -1.1104 6.26366 -1.26292 3.81668
166 1 -1.1104 0.854171 -3.90138 6.71075
8 1 -1.1104 6.74394 -3.8867 3.70422
171 1 -1.1104 6.67226 -1.08471 6.50655
174 1 -1.1104 3.92168 -1.04898 6.54587
8824 2 2.2208 2.43613 -5.16687 7.98025
313 2 2.2208 -0.408773 14.6341 8.02019
4 1 -1.1104 6.32705 -3.99209 0.966136
168 1 -1.1104 6.66327 -3.9586 6.69707
31 2 2.2208 10.8143 0.335605 5.26879
32 1 -1.1104 12.1005 -3.98527 1.20371
34 1 -1.1104 12.2338 -3.92459 3.72753
36 1 -1.1104 12.2855 -1.1363 0.636665
37 2 2.2208 10.8673 -2.4543 2.19702
39 1 -1.1104 12.212 -1.22237 3.74955
40 1 -1.1104 9.20027 -4.10657 0.875019
42 2 2.2208 8.0522 0.141683 2.1766
43 1 -1.1104 9.34739 -3.95368 3.7957
45 2 2.2208 7.90071 -2.55558 5.25917
47 1 -1.1104 9.27753 -1.21394 0.696196
48 1 -1.1104 9.34117 -0.896285 3.7345
205 1 -1.1104 12.0804 -3.71393 6.67206
208 1 -1.1104 9.4558 -3.92187 6.52134
210 1 -1.1104 9.62133 -1.15449 6.68728
207 1 -1.1104 12.339 -1.19657 6.74991
349 2 2.2208 8.11968 19.9348 -0.255357
714 2 2.2208 13.6022 0.231637 13.612
324 2 2.2208 10.9731 19.7868 8.05218
3 1 -1.1104 0.822301 1.69921 1.0774
7 1 -1.1104 0.818618 1.63547 3.74414
13 2 2.2208 5.11536 3.0724 2.34068
17 1 -1.1104 3.76416 1.56855 0.816724
20 1 -1.1104 3.75268 1.73925 3.74599
22 2 2.2208 2.2153 2.97187 5.10427
54 2 2.2208 5.08473 5.72891 5.30189
60 1 -1.1104 0.793236 4.62975 0.94814
67 1 -1.1104 0.82277 4.52712 3.49758
72 2 2.2208 2.16701 5.8175 2.21456
76 1 -1.1104 3.65774 4.31146 1.24106
79 1 -1.1104 3.83267 4.25142 4.05668
74 1 -1.1104 3.72583 7.0087 3.75709
71 1 -1.1104 3.58506 7.31618 0.977708
56 1 -1.1104 0.668989 7.30158 1.00881
58 1 -1.1104 0.766253 7.32924 3.88344
173 1 -1.1104 3.66491 1.55319 6.58427
236 1 -1.1104 1.03236 4.73236 6.60307
5 1 -1.1104 6.56022 1.64143 0.921034
57 1 -1.1104 6.44788 7.20318 0.984093
63 1 -1.1104 6.37091 4.48097 0.770453
69 1 -1.1104 6.76543 4.30704 3.54847
59 1 -1.1104 6.54237 7.3165 3.77466
8828 2 2.2208 10.9327 -5.25624 10.8165
237 1 -1.1104 6.62866 4.52781 6.37099
169 1 -1.1104 6.70519 1.64664 6.50022
9 1 -1.1104 6.62527 1.64602 3.52793
33 1 -1.1104 12.157 1.71903 0.78714
35 1 -1.1104 12.243 1.70054 3.7364
38 2 2.2208 10.8512 3.14297 2.23236
41 1 -1.1104 9.57747 1.63023 0.992276
44 1 -1.1104 9.50617 1.52272 3.70589
46 2 2.2208 8.09278 2.97571 4.97589
84 2 2.2208 10.7118 5.83287 5.1503
86 1 -1.1104 12.3263 7.17386 0.682915
88 1 -1.1104 12.1732 4.47584 0.54937
92 1 -1.1104 12.3681 4.47729 3.45411
95 2 2.2208 7.88379 5.83229 2.14233
99 1 -1.1104 9.34876 4.55234 0.881938
102 1 -1.1104 9.41154 4.24028 3.5476
94 1 -1.1104 9.30506 7.24584 0.965341
87 1 -1.1104 12.2398 7.06452 3.62616
269 1 -1.1104 9.20538 4.59342 6.51467
265 1 -1.1104 11.9623 7.22524 6.6107
266 1 -1.1104 12.1213 4.66124 6.44511
206 1 -1.1104 12.1861 1.58304 6.6411
97 1 -1.1104 9.43347 7.04882 3.69244
209 1 -1.1104 9.4848 1.82771 6.46824
360 2 2.2208 10.8998 19.992 13.5805
314 1 -1.1104 9.4762 15.7372 9.31537
55 2 2.2208 5.09826 11.4473 5.09077
61 1 -1.1104 0.746262 9.96163 0.928301
66 2 2.2208 5.08839 8.64987 2.3879
68 1 -1.1104 0.792768 10.1568 3.66371
73 2 2.2208 2.37349 11.5296 2.18998
75 2 2.2208 2.13002 8.73627 5.05881
77 1 -1.1104 3.62917 10.1516 0.908371
80 1 -1.1104 3.80521 10.1011 3.73641
107 1 -1.1104 0.943173 12.9142 0.988441
113 1 -1.1104 0.882761 13.1092 3.70356
123 1 -1.1104 3.83587 13.0895 0.922375
128 1 -1.1104 3.69543 12.9112 3.66741
108 1 -1.1104 0.843752 13.3001 6.49048
115 1 -1.1104 6.47239 13.0535 3.65394
78 1 -1.1104 3.86662 10.2147 6.56562
124 1 -1.1104 3.72715 12.8073 6.51145
111 1 -1.1104 6.46423 12.902 6.64133
64 1 -1.1104 6.38053 9.76985 0.986444
53 2 2.2208 13.563 11.4591 8.06052
347 2 2.2208 8.00715 14.2581 -0.295584
110 1 -1.1104 6.50109 12.6738 1.00047
70 1 -1.1104 6.57157 10.1364 3.78093
85 2 2.2208 11.0034 11.4774 5.28494
89 1 -1.1104 12.2443 9.96152 0.917461
91 2 2.2208 10.7891 8.60275 2.3754
93 1 -1.1104 11.9742 9.97149 3.75066
96 2 2.2208 8.06194 11.3863 2.47359
98 2 2.2208 7.98972 8.63031 5.09326
100 1 -1.1104 9.20125 10.1769 0.681599
103 1 -1.1104 9.44138 10.0655 3.74317
142 1 -1.1104 12.0897 12.9898 0.83662
146 1 -1.1104 12.1322 13.0964 3.79161
153 1 -1.1104 9.38487 12.7758 1.19979
158 1 -1.1104 9.3636 12.8571 3.8176
90 1 -1.1104 12.3316 10.006 6.57993
143 1 -1.1104 12.1112 12.9171 6.62456
154 1 -1.1104 9.3221 12.7071 6.54877
363 2 2.2208 13.6494 17.0969 13.6653
354 2 2.2208 8.15774 5.96367 13.5661
119 2 2.2208 5.15014 14.3036 2.30373
130 2 2.2208 2.27338 14.3695 4.96793
106 2 2.2208 5.15934 17.2068 5.15014
109 1 -1.1104 1.02057 18.6309 1.02574
114 1 -1.1104 1.00548 18.6273 3.72754
116 1 -1.1104 0.853106 15.6599 0.853444
120 2 2.2208 5.35268 20.0399 2.45067
121 1 -1.1104 0.949612 15.8598 3.73014
125 1 -1.1104 3.74665 18.4325 0.890465
127 2 2.2208 2.36711 17.2408 2.48216
129 1 -1.1104 3.88965 18.5905 3.82748
131 2 2.2208 2.48689 19.9215 5.19755
132 1 -1.1104 3.68979 15.6206 1.1006
134 1 -1.1104 3.71938 15.8887 3.78037
126 1 -1.1104 3.82587 18.4478 6.62494
122 1 -1.1104 6.63796 15.8282 3.84723
139 1 -1.1104 6.68214 18.6427 3.88558
302 1 -1.1104 0.95659 18.5059 6.67115
118 1 -1.1104 6.57674 15.7518 6.42947
138 1 -1.1104 6.68088 18.5778 1.14647
140 1 -1.1104 6.61199 15.6683 1.03118
374 2 2.2208 5.08428 17.0847 -0.362801
117 1 -1.1104 0.959637 15.8025 6.53175
112 1 -1.1104 6.48094 18.7488 6.64121
160 2 2.2208 7.94963 14.2502 5.11734
150 2 2.2208 10.6965 14.4132 2.23296
141 2 2.2208 10.831 17.269 5.18347
144 1 -1.1104 12.3769 18.5642 0.921378
147 1 -1.1104 12.3506 18.8299 3.88458
148 1 -1.1104 12.549 15.7894 1.10713
151 2 2.2208 10.9031 20.0225 2.4323
152 1 -1.1104 12.1242 15.8339 3.93605
155 1 -1.1104 9.49536 18.5486 1.07516
157 2 2.2208 7.85644 17.1867 2.45426
159 1 -1.1104 9.27769 18.464 3.83579
161 2 2.2208 8.06162 20.1204 5.34873
162 1 -1.1104 9.32114 15.7362 0.930301
164 1 -1.1104 9.55662 15.6371 3.58795
149 1 -1.1104 12.0327 15.7299 6.63676
163 1 -1.1104 9.3129 15.7765 6.6616
145 1 -1.1104 12.3298 18.5113 6.48026
8818 2 2.2208 2.36799 -5.32583 2.38756
333 2 2.2208 13.6231 14.3654 10.6075
716 2 2.2208 10.709 3.11762 13.5751
172 1 -1.1104 3.82356 -3.89784 6.67161
362 2 2.2208 7.89868 17.0814 13.5407
175 2 2.2208 5.23772 0.35368 10.8863
176 1 -1.1104 1.04762 -3.7464 12.0359
180 1 -1.1104 1.13299 -3.92664 9.44414
184 1 -1.1104 1.09206 -0.957287 12.2987
186 2 2.2208 5.23215 -2.41069 8.01067
188 1 -1.1104 1.07958 -0.96329 9.44401
190 1 -1.1104 4.02513 -3.98534 12.2816
192 2 2.2208 2.49592 0.330347 8.07763
193 1 -1.1104 4.10115 -3.49643 9.55358
195 2 2.2208 2.53107 -2.4304 10.8876
197 1 -1.1104 3.62586 -1.11445 12.4253
198 1 -1.1104 3.81962 -0.987607 9.3816
182 1 -1.1104 6.92241 -3.76955 9.4638
178 1 -1.1104 6.70078 -3.92374 12.1763
8845 2 2.2208 2.31196 -5.04054 13.589
189 1 -1.1104 6.74412 -0.952274 9.28768
185 1 -1.1104 6.48039 -1.06654 12.0969
211 2 2.2208 10.8169 0.310578 10.7594
212 1 -1.1104 12.2444 -3.88345 12.0848
214 1 -1.1104 12.3135 -4.03927 9.37659
216 1 -1.1104 12.1384 -1.03686 12.2353
217 2 2.2208 10.7466 -2.52866 7.95697
219 1 -1.1104 12.3716 -0.947912 9.58922
220 1 -1.1104 9.39389 -3.90947 12.3072
222 2 2.2208 8.2013 0.387425 8.08798
223 1 -1.1104 9.59538 -3.98631 9.35109
225 2 2.2208 8.07141 -2.32734 10.8653
227 1 -1.1104 9.29952 -0.945716 12.2815
228 1 -1.1104 9.5111 -1.22472 9.51512
50 2 2.2208 13.5704 -2.69152 4.98072
137 2 2.2208 -0.409482 17.1625 5.19726
52 2 2.2208 13.4518 8.74576 10.8046
28 2 2.2208 13.5867 19.7967 10.7645
17371 2 2.2208 -0.339557 -5.18655 10.8503
234 1 -1.1104 0.853716 7.71305 6.61451
239 1 -1.1104 3.71027 4.41792 6.79763
238 1 -1.1104 3.48891 7.29285 6.80713
167 1 -1.1104 0.932535 1.95458 6.66429
235 1 -1.1104 6.32619 7.3678 6.76779
177 1 -1.1104 0.913725 1.86772 12.4052
181 1 -1.1104 0.942177 1.78517 9.53725
187 2 2.2208 5.11584 3.05539 7.8877
191 1 -1.1104 3.77881 1.59548 12.1114
194 1 -1.1104 3.89899 1.5667 9.39469
196 2 2.2208 2.34753 3.20903 10.9317
240 2 2.2208 5.29893 5.92678 10.8972
246 1 -1.1104 1.05418 4.5919 12.3837
251 1 -1.1104 0.874708 4.7276 9.63436
255 1 -1.1104 3.97103 7.28019 12.4162
256 2 2.2208 2.33419 6.10089 8.12522
260 1 -1.1104 3.83643 4.55251 12.4078
262 1 -1.1104 3.66004 4.31776 9.58281
242 1 -1.1104 1.04465 7.37603 12.2519
258 1 -1.1104 3.79647 7.39432 9.45212
244 1 -1.1104 0.856493 7.48211 9.45763
245 1 -1.1104 6.64037 7.52804 9.46745
248 1 -1.1104 6.59212 4.60142 12.0454
253 1 -1.1104 6.32098 4.58075 9.25464
183 1 -1.1104 6.78058 2.03216 9.19953
179 1 -1.1104 6.55911 1.66819 12.1933
311 2 2.2208 -0.280021 19.8952 7.92281
267 1 -1.1104 9.30115 7.43038 6.52807
202 2 2.2208 13.4772 6.08682 7.95464
243 1 -1.1104 6.71888 7.21726 12.274
213 1 -1.1104 12.0362 1.62747 12.2587
215 1 -1.1104 12.3156 1.65797 9.39532
218 2 2.2208 10.9705 3.08604 7.95927
221 1 -1.1104 9.43581 1.68786 12.0933
224 1 -1.1104 9.41009 1.74933 9.4395
226 2 2.2208 7.9478 2.95531 10.8642
268 1 -1.1104 9.44124 4.69473 9.47571
271 1 -1.1104 9.43119 4.48902 12.1634
275 2 2.2208 7.90614 5.99215 7.91922
276 2 2.2208 10.8457 5.72121 10.8624
278 1 -1.1104 12.0234 7.18209 12.4838
280 1 -1.1104 11.962 4.48638 12.2876
283 1 -1.1104 12.2343 4.44283 9.55995
285 1 -1.1104 9.46863 7.34334 11.9311
279 1 -1.1104 12.3189 7.13889 9.56076
273 1 -1.1104 9.57184 7.27025 9.24705
8825 2 2.2208 5.19342 -5.1725 10.8553
200 2 2.2208 -0.366181 -2.42223 8.14139
62 1 -1.1104 0.893002 10.2663 6.42793
8841 2 2.2208 8.02903 -5.16701 13.6692
9494 2 2.2208 13.614 -2.58275 10.6678
241 2 2.2208 5.10475 11.5555 10.7575
247 1 -1.1104 0.87367 10.4092 12.2871
250 2 2.2208 5.1003 8.8504 7.97692
252 1 -1.1104 0.606855 10.1344 9.49082
257 2 2.2208 2.39812 11.6351 7.96127
259 2 2.2208 2.40607 8.75289 10.8374
261 1 -1.1104 3.59639 9.95304 12.2231
263 1 -1.1104 3.55413 10.0306 9.28313
305 1 -1.1104 3.98571 12.9867 9.50036
299 1 -1.1104 0.771466 13.1344 12.0088
294 1 -1.1104 1.09984 13.0181 9.49943
287 1 -1.1104 3.58843 12.845 12.2933
290 1 -1.1104 6.58159 12.856 9.48521
249 1 -1.1104 6.4843 10.0745 12.5085
254 1 -1.1104 6.65905 10.1538 9.54962
334 2 2.2208 10.6781 11.5464 -0.527921
65 1 -1.1104 6.68296 10.3193 6.34674
101 1 -1.1104 9.47891 9.94602 6.45604
297 1 -1.1104 6.44232 12.9738 12.1253
264 1 -1.1104 9.26314 10.2167 9.30223
270 1 -1.1104 9.38841 10.1419 12.2058
272 2 2.2208 7.96737 8.69916 10.9036
274 2 2.2208 7.96198 11.4641 7.87825
277 2 2.2208 10.8398 11.5931 10.959
281 1 -1.1104 12.0413 10.0327 12.3002
282 2 2.2208 10.7231 8.66165 8.05629
284 1 -1.1104 12.1262 9.86498 9.49273
330 1 -1.1104 12.3296 12.952 12.2334
328 1 -1.1104 12.1241 12.8725 9.2422
322 1 -1.1104 9.20929 13.1572 12.1295
319 1 -1.1104 9.31593 13.0348 9.2987
233 2 2.2208 13.5528 3.21816 5.12632
312 2 2.2208 -0.413176 17.3184 10.7421
133 1 -1.1104 3.83369 15.6445 6.44
353 2 2.2208 2.0933 11.6962 13.6691
295 2 2.2208 5.16528 14.261 7.92051
310 2 2.2208 2.40152 14.3202 10.9363
286 1 -1.1104 3.71952 18.4185 12.3474
304 1 -1.1104 3.71236 15.7054 9.16764
293 2 2.2208 5.25521 20.0438 8.19698
292 1 -1.1104 1.03917 15.6579 9.37871
291 1 -1.1104 1.00689 18.5041 9.38426
307 1 -1.1104 0.939391 15.9518 12.1785
303 2 2.2208 2.4861 17.1207 7.98519
301 1 -1.1104 3.74922 18.4258 9.59598
300 2 2.2208 5.08339 16.9748 10.815
298 1 -1.1104 1.01535 18.6553 12.4585
309 2 2.2208 2.43 20.1165 10.9406
308 1 -1.1104 3.80345 15.5652 12.1326
288 1 -1.1104 6.50609 18.5047 9.55612
296 1 -1.1104 6.59511 18.7897 12.2144
375 2 2.2208 2.41358 20.1404 -0.398319
320 2 2.2208 8.02208 17.2558 7.92002
232 2 2.2208 13.5344 8.60376 5.01264
315 1 -1.1104 9.56312 15.7473 12.1072
329 1 -1.1104 12.3642 18.4504 12.261
323 1 -1.1104 12.2 15.6951 9.28536
317 2 2.2208 7.86735 14.4899 10.6431
348 2 2.2208 10.9745 17.1025 -0.351639
156 1 -1.1104 9.41375 18.595 6.58368
49 2 2.2208 13.5437 0.438565 2.44538
325 2 2.2208 10.7113 14.4157 7.91205
331 2 2.2208 10.9585 17.0342 10.8735
318 1 -1.1104 9.38275 18.6176 9.21656
321 1 -1.1104 9.64531 18.6379 12.0435
327 1 -1.1104 12.2986 18.3969 9.35624
359 2 2.2208 5.26362 14.0964 13.5846
326 1 -1.1104 12.351 15.7718 12.1537
316 2 2.2208 7.89443 20.0168 10.8762
289 1 -1.1104 6.46463 15.7539 9.23517
306 1 -1.1104 6.55957 15.926 12.0877
201 2 2.2208 -0.324495 0.371727 10.8968
204 2 2.2208 13.5911 14.358 5.04651
26 2 2.2208 -0.370064 0.350918 5.20388
718 2 2.2208 13.5514 11.4709 13.6516
371 2 2.2208 -0.420661 17.2099 -0.365354
379 2 2.2208 5.02935 5.87117 -0.399073
364 2 2.2208 5.28927 0.110939 -0.389672
366 2 2.2208 2.17326 3.05852 -0.320645
373 2 2.2208 2.35008 14.4415 -0.410409
355 2 2.2208 5.19917 11.5366 -0.41768
380 2 2.2208 5.12233 0.309058 16.5408
381 1 -1.1104 0.866102 -4.04187 17.9742
385 1 -1.1104 0.993836 -3.50707 14.9323
393 1 -1.1104 0.812512 -1.26392 18.0485
395 2 2.2208 5.28515 -2.51819 19.2787
397 1 -1.1104 0.948789 -0.98636 15.2238
401 1 -1.1104 3.52502 -4.06325 17.9283
403 2 2.2208 2.24778 0.271899 19.3511
404 1 -1.1104 3.73021 -4.1015 14.9854
408 2 2.2208 2.41285 -2.48064 16.6374
410 1 -1.1104 3.7907 -1.30245 18.1813
411 1 -1.1104 3.80226 -0.930744 15.4107
412 1 -1.1104 3.43849 -0.945331 20.8467
405 1 -1.1104 3.8979 -3.78366 20.7431
394 1 -1.1104 6.63715 -1.14828 17.8974
386 1 -1.1104 0.853476 -3.9121 21.0016
383 1 -1.1104 6.53692 -3.91372 17.9181
389 1 -1.1104 6.52684 -3.9281 15.292
390 1 -1.1104 6.5665 -3.83667 20.5503
399 1 -1.1104 6.49324 -1.2545 15.0072
369 2 2.2208 10.9401 0.309942 27.7481
8870 2 2.2208 8.06054 -5.26297 24.9598
702 2 2.2208 13.5744 6.07729 24.8049
8874 2 2.2208 5.09359 -5.29427 22.2013
400 1 -1.1104 6.4402 -1.13669 20.5974
423 2 2.2208 10.6733 0.402225 16.5137
424 1 -1.1104 12.11 -4.11764 17.8849
426 1 -1.1104 12.2681 -4.05531 14.8387
430 1 -1.1104 12.3774 -1.15032 18.0198
431 2 2.2208 10.9974 -2.6369 19.3075
433 1 -1.1104 11.9912 -1.14078 15.2892
435 1 -1.1104 9.20397 -4.17853 17.8804
437 2 2.2208 8.00493 0.164527 19.264
438 1 -1.1104 9.43323 -3.79414 15.1088
442 2 2.2208 8.1174 -2.66282 16.5183
444 1 -1.1104 9.43993 -1.30159 17.9756
445 1 -1.1104 9.50544 -0.944807 15.1329
427 1 -1.1104 12.4376 -3.8528 20.8819
446 1 -1.1104 9.50546 -0.938353 20.5788
439 1 -1.1104 9.61048 -3.75251 20.6243
345 2 2.2208 13.5947 19.948 27.7624
352 2 2.2208 5.17377 8.84331 13.6692
8871 2 2.2208 11.1107 -5.25663 22.3619
382 1 -1.1104 0.905423 1.64831 17.9177
387 1 -1.1104 1.01993 1.62595 15.1543
396 2 2.2208 5.14114 3.11418 19.508
402 1 -1.1104 3.66892 1.46647 17.8271
406 1 -1.1104 3.6058 1.77769 15.0338
409 2 2.2208 2.20067 3.15363 16.6265
456 2 2.2208 5.24369 6.00359 16.3336
458 1 -1.1104 0.815507 7.23383 18.0606
464 1 -1.1104 0.663293 4.48461 18.0846
469 1 -1.1104 0.830549 4.72891 15.213
477 1 -1.1104 3.95758 7.27367 17.6964
478 2 2.2208 2.12501 5.87188 19.4709
480 1 -1.1104 3.6957 7.12106 14.9729
483 1 -1.1104 3.58396 4.25082 18.1445
485 1 -1.1104 3.72227 4.39536 15.2321
460 1 -1.1104 0.835408 7.47426 15.3277
481 1 -1.1104 3.77238 7.32828 20.5588
391 1 -1.1104 6.56041 1.88029 14.9116
392 1 -1.1104 6.63544 1.63842 20.7395
407 1 -1.1104 3.68653 1.85171 20.6104
461 1 -1.1104 0.934259 7.17504 20.832
463 1 -1.1104 6.36292 7.08636 20.5946
388 1 -1.1104 1.06476 1.52094 20.5604
470 1 -1.1104 0.812641 4.35356 20.6357
466 1 -1.1104 6.40787 4.35741 17.921
462 1 -1.1104 6.65371 7.43669 15.1157
459 1 -1.1104 6.72471 7.18531 17.8282
365 2 2.2208 2.18631 -2.60872 27.8304
384 1 -1.1104 6.50712 1.71896 17.6367
473 1 -1.1104 6.66268 4.80941 15.1631
474 1 -1.1104 6.62999 4.38117 20.6807
425 1 -1.1104 12.1335 1.62961 17.8546
428 1 -1.1104 12.2042 1.80095 15.2023
432 2 2.2208 10.7285 3.17915 19.3796
436 1 -1.1104 9.32013 1.73639 17.9438
440 1 -1.1104 9.21326 1.79136 15.0226
443 2 2.2208 7.88874 3.24162 16.4715
492 2 2.2208 10.8312 5.89913 16.3213
494 1 -1.1104 12.411 7.0959 17.8806
497 1 -1.1104 12.169 4.43752 17.9824
500 1 -1.1104 12.2049 4.49068 14.9393
504 1 -1.1104 9.56962 7.49728 17.6579
505 2 2.2208 7.91687 5.73052 19.1903
510 1 -1.1104 9.22876 4.48081 17.6266
512 1 -1.1104 9.31216 4.47949 14.9697
495 1 -1.1104 12.0608 7.39745 15.108
507 1 -1.1104 9.37526 7.32367 15.0647
441 1 -1.1104 9.46072 1.84859 20.6878
429 1 -1.1104 12.2688 1.7391 20.841
513 1 -1.1104 9.41179 4.52214 20.754
496 1 -1.1104 12.2996 7.31792 20.7618
508 1 -1.1104 9.31188 7.05253 20.5645
341 2 2.2208 5.10748 3.28256 13.7625
448 2 2.2208 -0.293135 17.1361 16.4607
453 2 2.2208 13.685 20.023 22.084
336 2 2.2208 7.85722 8.67379 27.6973
457 2 2.2208 5.2679 11.5949 16.5485
465 1 -1.1104 0.955814 10.2919 17.8824
468 2 2.2208 5.17761 8.61585 19.2815
471 1 -1.1104 0.892135 10.2656 15.0735
479 2 2.2208 2.42422 11.5514 19.263
482 2 2.2208 2.30915 8.79788 16.5063
484 1 -1.1104 3.7494 10.1972 17.8714
487 1 -1.1104 3.80178 10.2379 15.1745
520 1 -1.1104 0.955005 13.0448 17.7475
524 1 -1.1104 0.886534 13.0729 14.9569
540 1 -1.1104 3.9802 12.8907 17.7976
543 1 -1.1104 3.89097 12.902 14.9213
488 1 -1.1104 3.6773 10.1696 20.5309
467 1 -1.1104 6.52545 10.0258 18.055
544 1 -1.1104 3.98259 12.9228 20.6621
472 1 -1.1104 0.988953 10.0347 20.7085
475 1 -1.1104 6.65916 10.2989 15.1946
525 1 -1.1104 1.01166 12.7877 20.9258
476 1 -1.1104 6.46473 10.1464 20.7826
529 1 -1.1104 6.64131 13.0363 20.7263
528 1 -1.1104 6.61965 13.1971 15.1725
522 1 -1.1104 6.71131 12.9215 17.9145
493 2 2.2208 10.7515 11.476 16.6351
498 1 -1.1104 11.9921 9.95401 17.8355
499 2 2.2208 10.7564 8.45802 19.3313
502 1 -1.1104 12.367 10.224 15.313
506 2 2.2208 8.00438 11.5149 19.4168
509 2 2.2208 7.94974 8.68528 16.4529
511 1 -1.1104 9.12085 10.3742 17.9197
514 1 -1.1104 9.30461 9.97589 14.9928
556 1 -1.1104 12.3102 12.7438 18.0279
558 1 -1.1104 12.1174 13.0161 15.1196
567 1 -1.1104 9.2508 13.1642 17.9073
570 1 -1.1104 9.45768 12.8963 15.1347
571 1 -1.1104 9.4098 12.8103 20.6995
515 1 -1.1104 9.25757 9.83165 20.7722
559 1 -1.1104 12.2645 13.0842 20.514
503 1 -1.1104 11.9504 10.1848 20.5888
230 2 2.2208 13.489 8.68006 27.6219
672 1 -1.1104 6.54892 15.728 23.6811
547 2 2.2208 2.31754 14.3022 16.4697
534 2 2.2208 5.20116 14.2292 19.3043
519 2 2.2208 5.15398 17.0951 16.417
521 1 -1.1104 0.995016 18.4099 18.0357
526 1 -1.1104 0.835907 18.5783 15.04
532 1 -1.1104 1.11834 15.8253 17.9263
535 2 2.2208 5.22135 19.974 19.1256
536 1 -1.1104 0.919124 15.7691 14.9109
541 1 -1.1104 3.70087 18.6086 17.867
542 2 2.2208 2.39367 17.2019 19.4416
545 1 -1.1104 3.93836 18.4667 15.1166
548 2 2.2208 2.20386 19.7932 16.6093
549 1 -1.1104 3.91147 15.7982 17.8392
550 1 -1.1104 3.9148 15.6288 15.0371
523 1 -1.1104 6.28531 18.6728 17.8313
537 1 -1.1104 0.753391 15.9178 20.5454
533 1 -1.1104 6.55092 15.8998 18.1218
546 1 -1.1104 3.8385 18.8319 20.8952
551 1 -1.1104 3.56985 15.8184 20.8714
339 2 2.2208 2.30345 0.372773 13.8126
646 2 2.2208 13.5897 0.178871 24.7665
452 2 2.2208 13.5938 20.0016 16.473
706 1 -1.1104 6.5642 15.6113 26.5074
538 1 -1.1104 6.67907 15.6849 14.8891
539 1 -1.1104 6.12916 15.8594 20.8393
530 1 -1.1104 6.62159 18.5763 15.1518
531 1 -1.1104 6.73612 18.6926 20.4974
563 2 2.2208 10.7482 14.2966 19.3591
574 2 2.2208 8.00966 14.4453 16.4272
555 2 2.2208 10.7154 17.1121 16.4861
557 1 -1.1104 12.0874 18.5865 18.0287
560 1 -1.1104 12.1806 18.692 15.0193
562 1 -1.1104 12.2383 15.7365 18.0908
564 2 2.2208 10.8097 19.899 19.4268
565 1 -1.1104 12.2947 15.7567 15.2082
568 1 -1.1104 9.08699 18.7262 17.9946
569 2 2.2208 7.98923 17.1467 19.3901
572 1 -1.1104 9.36137 18.4588 15.0531
575 2 2.2208 7.93754 19.9327 16.4358
576 1 -1.1104 9.46552 16.104 17.9711
577 1 -1.1104 9.38631 15.7407 14.8745
561 1 -1.1104 12.2479 18.5433 20.946
578 1 -1.1104 9.48703 15.614 20.8037
566 1 -1.1104 12.308 15.6344 20.8639
377 2 2.2208 13.6803 -2.43676 27.6969
398 1 -1.1104 0.678555 -1.14914 20.8335
358 2 2.2208 4.98391 19.8867 13.7418
583 2 2.2208 5.25223 0.266802 22.0046
584 1 -1.1104 0.885016 -3.90427 23.6698
588 1 -1.1104 0.978579 -3.99707 26.4256
592 1 -1.1104 0.781262 -0.928195 23.6134
594 2 2.2208 5.19208 -2.47052 25.075
596 1 -1.1104 0.874147 -1.19802 26.3267
598 1 -1.1104 3.86289 -4.14102 23.567
600 2 2.2208 2.33426 0.26685 24.9834
601 1 -1.1104 3.7275 -3.87135 26.1903
603 2 2.2208 2.31278 -2.63442 22.1495
605 1 -1.1104 3.64565 -1.12105 23.4505
606 1 -1.1104 3.67762 -1.1223 26.4048
597 1 -1.1104 6.60694 -1.10875 26.4741
489 1 -1.1104 12.2922 18.5404 23.723
590 1 -1.1104 6.33706 -3.92791 26.4359
376 2 2.2208 2.15543 8.74399 27.7806
418 2 2.2208 13.4728 8.68412 16.461
338 2 2.2208 5.16311 -2.61316 13.7255
593 1 -1.1104 6.60022 -1.01942 23.6644
434 1 -1.1104 12.7871 -1.11875 20.6515
586 1 -1.1104 6.61701 -3.94207 23.4338
416 2 2.2208 -0.455575 0.19349 16.4855
619 2 2.2208 10.7856 0.424979 22.0463
620 1 -1.1104 12.3649 -4.01304 23.7389
622 1 -1.1104 12.197 -3.86526 26.2655
624 1 -1.1104 12.4533 -1.21641 23.2308
625 2 2.2208 10.8629 -2.42428 24.9266
627 1 -1.1104 12.1496 -1.26061 26.2293
628 1 -1.1104 9.41626 -3.9774 23.4795
630 2 2.2208 7.97086 0.262039 24.8477
631 1 -1.1104 9.38957 -3.88597 26.1956
633 2 2.2208 8.15901 -2.56908 21.9744
635 1 -1.1104 9.60246 -0.757748 23.5424
636 1 -1.1104 9.30899 -1.25258 26.2835
608 2 2.2208 7.92887 19.8758 22.3351
717 2 2.2208 10.7134 8.55808 13.7281
356 2 2.2208 7.92434 11.4213 13.6407
580 1 -1.1104 6.4476 18.5124 26.5236
486 1 -1.1104 3.56384 4.49562 21.0374
585 1 -1.1104 0.915924 1.7058 23.2894
589 1 -1.1104 0.822696 1.56926 26.509
595 2 2.2208 5.07197 2.91462 24.8597
599 1 -1.1104 3.90892 1.5359 23.4964
602 1 -1.1104 3.48284 1.98096 26.348
604 2 2.2208 2.35499 2.98472 22.0997
648 2 2.2208 5.07417 5.87813 22.1575
654 1 -1.1104 1.14668 4.3108 23.5429
659 1 -1.1104 0.75902 4.60053 26.3997
664 2 2.2208 2.27377 5.85123 25.05
666 1 -1.1104 3.54555 7.29649 26.3226
668 1 -1.1104 3.81665 4.35255 23.7466
670 1 -1.1104 3.58621 4.53396 26.6333
652 1 -1.1104 0.752358 7.48163 26.2657
663 1 -1.1104 3.58881 7.20206 23.3339
650 1 -1.1104 0.754137 6.81481 23.6065
653 1 -1.1104 6.42591 7.32791 26.3159
656 1 -1.1104 6.35381 4.35582 23.3687
591 1 -1.1104 6.41772 1.61314 26.2506
450 2 2.2208 -0.330087 19.8499 19.3398
451 2 2.2208 13.5935 -2.54634 16.5113
491 1 -1.1104 12.1875 18.6446 26.6335
640 2 2.2208 -0.387494 11.7035 16.5447
343 2 2.2208 7.89943 0.436126 13.6813
501 1 -1.1104 12.2142 4.55644 20.8524
372 2 2.2208 7.93293 3.09572 27.7654
651 1 -1.1104 6.58921 7.00475 23.5872
661 1 -1.1104 6.37532 4.60474 26.3942
587 1 -1.1104 6.60643 1.68297 23.4673
621 1 -1.1104 12.2268 1.69083 23.6034
623 1 -1.1104 12.2366 1.7392 26.1606
626 2 2.2208 10.759 3.19709 24.9067
629 1 -1.1104 9.25476 1.64575 23.4398
632 1 -1.1104 9.3613 1.65224 26.5631
634 2 2.2208 8.03039 3.06255 22.1426
680 1 -1.1104 9.31465 4.3617 26.3738
682 1 -1.1104 9.22441 4.33032 23.5498
686 2 2.2208 7.97053 5.64044 25.033
687 2 2.2208 10.6622 5.86471 22.0824
691 1 -1.1104 11.9023 4.44231 23.5105
694 1 -1.1104 12.1578 4.46858 26.0951
684 1 -1.1104 9.50898 7.18206 26.475
689 1 -1.1104 12.1702 7.26011 23.4611
690 1 -1.1104 12.2326 7.43714 26.1275
696 1 -1.1104 9.24956 7.22256 23.5283
618 2 2.2208 -0.398134 2.9546 24.9954
609 1 -1.1104 9.38253 15.7106 23.5871
649 2 2.2208 5.23107 11.4809 22.2714
655 1 -1.1104 0.812825 9.95951 23.4342
658 2 2.2208 5.0172 8.50881 24.9201
660 1 -1.1104 0.769402 10.1594 26.239
665 2 2.2208 2.18393 11.517 25.1054
667 2 2.2208 2.31684 8.6469 22.0216
669 1 -1.1104 3.85347 9.69281 23.3386
671 1 -1.1104 3.85101 10.3205 26.216
673 1 -1.1104 3.82264 12.8366 26.4267
698 1 -1.1104 0.847117 13.0046 23.6652
705 1 -1.1104 3.69381 12.7607 23.6474
709 1 -1.1104 0.816477 12.857 26.6039
701 1 -1.1104 6.52497 12.8014 23.4905
662 1 -1.1104 6.59613 10.0742 26.2874
704 1 -1.1104 6.64698 13.0696 26.329
657 1 -1.1104 6.85179 10.0779 23.618
639 2 2.2208 2.31297 14.2574 22.1921
579 2 2.2208 7.85411 17.0379 25.121
447 2 2.2208 13.706 17.0627 25.1926
554 1 -1.1104 9.19691 18.681 23.8511
455 1 -1.1104 12.2086 12.9067 23.325
490 1 -1.1104 12.6113 13.3539 26.1035
679 1 -1.1104 9.33707 9.87803 26.3318
681 1 -1.1104 9.46722 10.1463 23.4496
683 2 2.2208 8.00357 8.54618 22.0836
685 2 2.2208 7.9079 11.4124 24.962
688 2 2.2208 10.7992 11.5505 22.0665
692 1 -1.1104 12.1633 10.3138 23.5788
693 2 2.2208 10.6379 8.65357 24.9202
695 1 -1.1104 11.998 10.4187 26.41
581 1 -1.1104 9.61749 12.73 26.2311
553 1 -1.1104 9.28315 12.9666 23.5544
518 2 2.2208 10.7065 19.9295 25.1672
414 2 2.2208 13.5985 8.684 22.0761
516 1 -1.1104 12.1631 15.7538 23.8639
527 1 -1.1104 1.09511 18.641 20.7761
637 2 2.2208 -0.409071 20.1242 24.9103
712 2 2.2208 5.19327 14.2561 24.8855
641 2 2.2208 2.41504 20.0578 22.137
644 1 -1.1104 3.6142 15.5464 23.6255
647 1 -1.1104 0.952401 15.7895 23.1983
674 1 -1.1104 3.81044 15.887 26.3249
675 2 2.2208 2.39349 17.3252 25.0165
678 1 -1.1104 3.78957 18.7274 26.5299
697 2 2.2208 5.08296 17.1746 22.2219
699 1 -1.1104 0.900281 18.5886 23.5726
703 1 -1.1104 3.81671 18.7849 23.4884
707 1 -1.1104 1.03364 18.5299 26.3483
708 1 -1.1104 1.16747 15.7278 26.3106
711 2 2.2208 5.25355 20.0085 24.9722
612 1 -1.1104 9.37824 15.7181 26.5368
710 1 -1.1104 6.59341 18.3578 23.6828
607 2 2.2208 8.03713 14.2833 22.1466
582 1 -1.1104 9.34964 18.3842 26.5934
454 2 2.2208 10.9826 17.2007 22.389
715 2 2.2208 10.8532 -2.37087 13.6915
573 1 -1.1104 9.32663 18.4435 20.9935
552 1 -1.1104 12.4137 15.7782 26.7581
517 2 2.2208 10.8224 14.1771 24.6931
700 2 2.2208 13.4307 11.619 24.968
378 2 2.2208 13.4638 3.10631 27.5743
340 2 2.2208 10.8559 5.86825 27.6018
351 2 2.2208 2.41449 5.90199 13.7727
357 2 2.2208 2.20974 17.0976 13.7149
370 2 2.2208 7.82009 -2.72495 27.7596
361 2 2.2208 10.777 14.2647 13.6851
719 2 2.2208 5.19883 22.8458 5.34489
721 1 -1.1104 0.947362 24.0189 0.768033
722 1 -1.1104 1.04984 24.3572 3.74714
723 1 -1.1104 0.756526 21.3569 0.88387
725 2 2.2208 5.21525 25.5793 2.40643
726 1 -1.1104 0.887039 21.4473 3.7448
728 1 -1.1104 3.74811 24.0797 1.22339
729 2 2.2208 2.48995 22.8098 2.6885
731 1 -1.1104 3.94603 24.2442 3.94638
732 2 2.2208 2.46215 25.7822 5.32997
733 1 -1.1104 3.92729 21.3118 1.13389
735 1 -1.1104 3.77314 21.3969 3.98481
727 1 -1.1104 1.06269 27.2491 3.82094
862 1 -1.1104 1.07721 21.2001 6.61044
741 1 -1.1104 6.6649 24.245 3.98151
724 1 -1.1104 1.02517 26.9688 1.25779
860 1 -1.1104 1.00268 24.2316 6.83882
740 1 -1.1104 6.58634 24.178 0.955207
742 1 -1.1104 6.83595 21.3578 1.02979
866 1 -1.1104 3.86703 23.921 6.64337
868 1 -1.1104 3.91182 26.9396 6.85208
734 1 -1.1104 3.79525 27.1805 0.900008
743 1 -1.1104 6.60779 26.9704 1.01274
736 1 -1.1104 3.73413 27.1811 3.76998
863 1 -1.1104 1.0787 27.0305 6.59723
867 1 -1.1104 3.72403 21.3464 6.65737
1053 3 0 11.8118 32.6938 12.4241
1594 1 -1.1104 6.53975 46.6435 6.68587
744 1 -1.1104 6.58651 21.3985 3.92706
746 2 2.2208 11.037 23.1008 5.11777
748 1 -1.1104 12.4649 24.2366 0.882129
749 1 -1.1104 12.4905 24.4588 3.8385
750 1 -1.1104 12.3626 21.1813 0.974423
752 2 2.2208 10.9269 25.7527 2.21683
753 1 -1.1104 12.4111 21.6915 3.67362
755 1 -1.1104 9.775 24.204 1.19612
756 2 2.2208 8.17059 22.9775 2.46396
758 1 -1.1104 9.43852 24.4689 3.67585
759 2 2.2208 8.03652 25.6843 5.4126
760 1 -1.1104 9.66848 21.3997 0.943186
762 1 -1.1104 9.47791 21.4134 3.69783
898 1 -1.1104 9.58189 26.9474 6.64314
894 1 -1.1104 12.3437 21.267 6.39128
761 1 -1.1104 9.40113 26.8634 0.902568
751 1 -1.1104 12.3592 27.0225 0.94969
763 1 -1.1104 9.45686 27.185 3.89561
754 1 -1.1104 12.4335 27.0441 3.68799
1028 2 2.2208 13.6865 36.9154 5.48971
1029 2 2.2208 13.593 31.2139 5.12797
720 2 2.2208 5.23632 28.3629 5.23633
730 2 2.2208 2.48883 28.5867 2.51558
768 1 -1.1104 1.08235 29.8722 1.11192
771 1 -1.1104 1.02723 30.0424 3.97379
774 1 -1.1104 1.10309 32.921 0.9352
775 2 2.2208 5.41578 31.1292 2.31011
777 1 -1.1104 1.03364 32.7748 3.81396
779 1 -1.1104 3.72476 30.0128 1.1803
782 1 -1.1104 3.94556 29.9503 3.82649
784 2 2.2208 2.4261 31.4696 5.34411
786 1 -1.1104 3.97695 32.7825 0.971636
787 1 -1.1104 3.94779 32.7586 3.70919
793 1 -1.1104 6.81796 32.7927 0.880156
919 1 -1.1104 6.6338 29.8279 6.8973
923 1 -1.1104 3.80903 29.9027 6.66903
778 1 -1.1104 6.49074 32.5062 3.78734
922 1 -1.1104 6.87203 32.7447 6.71382
921 1 -1.1104 1.03661 33.0868 6.76111
791 1 -1.1104 6.6671 29.8054 0.765867
792 1 -1.1104 6.68151 29.6806 3.64928
925 1 -1.1104 4.07914 32.7713 6.64465
917 1 -1.1104 1.10393 30.1989 6.66909
1036 2 2.2208 -0.381294 28.492 10.9773
745 1 -1.1104 6.51881 26.932 3.9716
747 2 2.2208 10.9883 28.2363 5.02159
757 2 2.2208 8.08522 28.3374 2.30605
795 1 -1.1104 12.1568 29.8386 0.742505
797 1 -1.1104 12.42 29.8222 3.60616
799 1 -1.1104 12.5438 32.6569 0.877553
800 2 2.2208 10.9154 31.2124 2.30407
802 1 -1.1104 12.2733 32.6494 3.57526
803 1 -1.1104 9.50316 29.6883 0.683671
806 1 -1.1104 9.40811 30.0613 3.44806
808 2 2.2208 8.02609 31.2941 5.22352
810 1 -1.1104 9.82497 32.748 1.09583
811 1 -1.1104 9.45089 32.6871 3.67276
1035 2 2.2208 -0.454894 25.6727 8.09095
954 1 -1.1104 9.38816 29.705 6.33255
951 1 -1.1104 12.385 29.5031 6.31376
953 1 -1.1104 12.306 32.3635 6.6314
1003 2 2.2208 8.37396 37.0166 -0.392501
956 1 -1.1104 9.55788 32.2693 6.68518
767 2 2.2208 5.35558 34.1863 5.1814
769 1 -1.1104 1.19133 35.5417 1.05571
772 1 -1.1104 1.14643 35.5675 3.75384
776 2 2.2208 5.56013 36.984 2.41394
780 1 -1.1104 4.06652 35.4667 0.969122
781 2 2.2208 2.54982 34.2381 2.27363
783 1 -1.1104 3.76547 35.6713 3.88574
785 2 2.2208 2.59195 36.9804 5.02742
813 2 2.2208 5.56911 39.8506 5.00716
819 1 -1.1104 1.22577 38.4736 0.865707
824 1 -1.1104 1.08136 38.3946 3.83726
829 2 2.2208 2.59813 39.703 2.47052
833 1 -1.1104 4.02764 38.2568 1.20597
835 1 -1.1104 3.91773 38.4951 3.80201
826 1 -1.1104 6.86529 38.3585 3.65605
821 1 -1.1104 6.87633 38.3234 0.932901
991 1 -1.1104 4.01122 38.2823 6.42496