ITEM: TIMESTEP
20000
ITEM: NUMBER OF ATOMS
17700
ITEM: BOX BOUNDS pp pp pp
-4.3661687289610895e-01 2.7776616872896440e+01
-5.4338508035203645e+00 3.3351385080351679e+02
-4.4152617986548726e-01 2.7781526179865597e+01
ITEM: ATOMS id type q x y z
1 2 2.2208 5.2776 0.183597 5.25519
2 1 -1.1104 1.17096 -3.94553 0.803629
6 1 -1.1104 1.0314 -4.008 3.71864
10 1 -1.1104 1.12738 -1.21876 0.782618
12 2 2.2208 5.17809 -2.70405 2.31016
14 1 -1.1104 1.13618 -1.36327 3.67244
16 1 -1.1104 3.84407 -4.06925 1.05864
18 2 2.2208 2.4195 0.0925475 2.32381
19 1 -1.1104 3.66212 -3.98297 3.83503
21 2 2.2208 2.54021 -2.70576 5.15863
23 1 -1.1104 3.80645 -1.20595 0.886078
24 1 -1.1104 3.7558 -1.36698 3.76181
8821 2 2.2208 8.23811 -5.41269 2.31146
340 2 2.2208 10.9709 5.8175 -0.422242
8 1 -1.1104 6.59709 -3.94465 3.83675
359 2 2.2208 5.10289 14.3547 13.5579
17329 2 2.2208 -0.307453 -5.34165 5.38809
136 2 2.2208 -0.420871 19.9307 2.33521
717 2 2.2208 10.8552 8.57472 13.585
174 1 -1.1104 4.02017 -1.19141 6.57811
347 2 2.2208 7.91313 14.2816 -0.421413
334 2 2.2208 10.824 11.4254 -0.270632
104 2 2.2208 13.5531 11.0461 2.66191
329 1 -1.1104 12.0824 18.5081 12.4015
15 1 -1.1104 6.81407 -1.09569 3.95832
4 1 -1.1104 6.83719 -4.10228 1.08947
11 1 -1.1104 6.49544 -1.27528 1.24434
31 2 2.2208 10.8584 0.0348654 5.04772
32 1 -1.1104 12.4285 -3.91205 1.08007
34 1 -1.1104 12.3734 -4.15966 3.85105
36 1 -1.1104 12.322 -1.19985 0.786043
37 2 2.2208 10.8795 -2.81141 2.27806
39 1 -1.1104 12.0437 -1.34575 3.66902
40 1 -1.1104 9.61493 -3.90816 0.815893
42 2 2.2208 7.95453 0.228783 2.48477
43 1 -1.1104 9.48516 -3.88074 3.75326
45 2 2.2208 8.05856 -2.57838 5.34614
47 1 -1.1104 9.43371 -1.03928 0.967736
48 1 -1.1104 9.46218 -1.21716 3.79892
26 2 2.2208 -0.221085 0.0660418 5.04063
336 2 2.2208 7.95898 8.61892 -0.235012
318 1 -1.1104 9.50976 18.4544 9.41172
210 1 -1.1104 9.39476 -1.08678 6.53268
8827 2 2.2208 8.10645 -5.42347 7.91276
321 1 -1.1104 9.26756 18.139 12.1183
3 1 -1.1104 1.08791 1.63813 1.01626
7 1 -1.1104 1.16304 1.54898 3.75689
13 2 2.2208 5.14059 2.83484 2.42456
17 1 -1.1104 3.7928 1.5738 0.985829
20 1 -1.1104 3.86741 1.48531 3.8082
22 2 2.2208 2.57558 2.93145 5.22471
54 2 2.2208 5.37573 5.66597 5.40303
60 1 -1.1104 1.10089 4.57229 1.16323
67 1 -1.1104 1.15294 4.48388 3.91285
72 2 2.2208 2.59395 5.7289 2.54371
74 1 -1.1104 3.80347 7.39089 4.0486
76 1 -1.1104 3.96448 4.43003 1.12694
79 1 -1.1104 3.96643 4.3502 3.88349
58 1 -1.1104 1.02502 7.24145 3.80223
63 1 -1.1104 6.58165 4.30983 0.779988
57 1 -1.1104 6.45347 7.24357 0.886614
29 2 2.2208 -0.144111 5.65202 10.9677
165 2 2.2208 13.6072 16.9051 2.2713
8828 2 2.2208 10.9513 -5.3999 10.8404
59 1 -1.1104 6.62785 7.14176 3.68554
355 2 2.2208 5.13423 11.4187 -0.312566
366 2 2.2208 2.38895 3.00679 -0.265561
69 1 -1.1104 6.96039 4.5114 3.83386
9 1 -1.1104 6.50151 1.72949 4.0021
5 1 -1.1104 6.67434 1.52833 1.20063
33 1 -1.1104 12.3277 1.71638 1.07396
35 1 -1.1104 12.3095 1.3567 3.82321
38 2 2.2208 10.9878 3.02694 2.41879
41 1 -1.1104 9.54931 1.6915 1.15497
44 1 -1.1104 9.42527 1.42462 4.07923
46 2 2.2208 8.11882 2.95571 5.1769
84 2 2.2208 10.8017 5.84012 5.19377
86 1 -1.1104 12.2043 7.19367 0.936554
87 1 -1.1104 12.3576 7.18743 3.69007
88 1 -1.1104 12.2401 4.40253 1.20226
92 1 -1.1104 12.3476 4.46015 4.04276
95 2 2.2208 7.96526 5.72099 2.21569
97 1 -1.1104 9.31156 6.85885 3.7155
99 1 -1.1104 9.33074 4.53649 0.844164
102 1 -1.1104 9.42316 4.18399 3.55489
94 1 -1.1104 9.4022 7.14137 0.886164
314 1 -1.1104 9.36298 15.4398 9.41162
28 2 2.2208 13.5587 19.7295 11.0085
56 1 -1.1104 1.07452 7.39026 0.993657
71 1 -1.1104 3.88997 7.11733 1.14565
55 2 2.2208 5.1502 11.3361 5.26489
61 1 -1.1104 1.02581 10.2109 0.95475
66 2 2.2208 5.19184 8.52609 2.59
68 1 -1.1104 1.0215 10.212 3.82791
73 2 2.2208 2.52223 11.5686 2.4347
75 2 2.2208 2.48241 8.69378 5.20614
77 1 -1.1104 3.75614 10.1223 0.905607
80 1 -1.1104 3.80102 9.90319 3.63495
107 1 -1.1104 1.11707 12.9233 0.930214
113 1 -1.1104 1.10543 12.8064 3.64429
123 1 -1.1104 4.01199 12.7956 0.942821
128 1 -1.1104 3.86818 12.9003 3.87106
110 1 -1.1104 6.58726 12.7914 0.942921
64 1 -1.1104 6.46586 9.85663 1.07049
320 2 2.2208 8.12191 16.9862 7.84422
17700 2 2.2208 13.6584 -5.31328 13.6122
306 1 -1.1104 6.50878 15.578 12.284
115 1 -1.1104 6.64233 12.8485 3.84227
70 1 -1.1104 6.76606 9.97963 3.73885
85 2 2.2208 10.7893 11.4292 5.25942
89 1 -1.1104 12.0932 9.79177 1.12367
91 2 2.2208 10.6449 8.42586 2.38397
93 1 -1.1104 12.1021 9.96695 3.96364
96 2 2.2208 8.07865 11.3997 2.47308
98 2 2.2208 8.11094 8.61528 5.18286
100 1 -1.1104 9.34818 10.0367 0.895095
103 1 -1.1104 9.57398 10.0148 3.74758
142 1 -1.1104 12.2144 12.8324 1.04818
146 1 -1.1104 12.2904 12.5237 3.93802
153 1 -1.1104 9.48248 12.7887 0.978716
158 1 -1.1104 9.66922 12.6954 3.74986
25 2 2.2208 -0.377237 -2.82306 2.40875
362 2 2.2208 7.98414 16.9106 13.6275
112 1 -1.1104 6.67116 18.3457 6.70089
8825 2 2.2208 5.42233 -5.37527 10.7725
8818 2 2.2208 2.39245 -5.41322 2.33351
130 2 2.2208 2.32031 14.3938 5.1565
106 2 2.2208 5.22722 16.9525 5.20437
109 1 -1.1104 0.843938 18.3573 0.861906
114 1 -1.1104 1.01163 18.3585 3.7819
116 1 -1.1104 0.924967 15.704 1.09385
119 2 2.2208 5.3501 14.3162 2.47581
120 2 2.2208 5.04682 19.8765 2.242
121 1 -1.1104 1.00272 15.6158 3.96552
125 1 -1.1104 3.65094 18.3881 1.17999
127 2 2.2208 2.29814 17.0549 2.52557
129 1 -1.1104 3.74772 18.3442 3.63736
131 2 2.2208 2.28662 19.8826 5.10736
132 1 -1.1104 3.6889 15.5792 1.131
134 1 -1.1104 3.85414 15.5059 3.62783
201 2 2.2208 -0.410557 0.210277 11.0142
122 1 -1.1104 6.77584 15.5725 4.01813
149 1 -1.1104 12.1516 15.649 6.78131
126 1 -1.1104 3.69401 18.4803 6.5843
333 2 2.2208 13.5335 14.2938 10.8223
81 2 2.2208 -0.222808 5.83461 5.17471
145 1 -1.1104 12.2925 18.6599 6.94265
140 1 -1.1104 6.481 15.7219 1.11598
139 1 -1.1104 6.44995 18.404 3.89019
138 1 -1.1104 6.45751 18.4917 0.795978
141 2 2.2208 10.9069 17.0035 5.10931
144 1 -1.1104 12.0948 18.4012 0.942578
147 1 -1.1104 12.1138 18.571 3.93857
148 1 -1.1104 12.4561 15.4861 1.01811
150 2 2.2208 10.8682 14.269 2.35142
151 2 2.2208 10.8113 19.8861 2.50623
152 1 -1.1104 12.3423 15.6011 4.04533
155 1 -1.1104 9.27068 18.371 0.949558
157 2 2.2208 8.05008 17.1083 2.25259
159 1 -1.1104 9.26325 18.4482 3.79369
160 2 2.2208 8.215 14.1435 5.26133
161 2 2.2208 7.83076 19.8631 5.2222
162 1 -1.1104 9.49386 15.6278 0.833584
164 1 -1.1104 9.69031 15.6248 3.5897
367 2 2.2208 -0.312098 8.64887 13.5247
156 1 -1.1104 9.45972 18.509 6.63787
331 2 2.2208 10.915 17.0064 10.9328
315 1 -1.1104 9.54113 15.5361 12.4212
379 2 2.2208 5.25613 5.66785 -0.317723
357 2 2.2208 2.40789 17.1914 13.5868
316 2 2.2208 7.87508 19.6962 10.7092
163 1 -1.1104 9.4923 15.5537 6.34801
166 1 -1.1104 0.999245 -3.89053 6.66551
172 1 -1.1104 3.67143 -4.12132 6.71694
170 1 -1.1104 1.09831 -1.2286 6.62665
175 2 2.2208 5.32012 0.100446 10.8717
176 1 -1.1104 1.12725 -3.98098 12.4052
180 1 -1.1104 1.07995 -4.09902 9.3761
184 1 -1.1104 1.10398 -1.30778 12.3158
186 2 2.2208 5.26428 -2.72227 8.03815
188 1 -1.1104 1.00892 -1.2948 9.48818
190 1 -1.1104 3.85463 -4.15876 12.3521
192 2 2.2208 2.40005 0.239165 8.04382
193 1 -1.1104 3.98245 -3.8883 9.58427
195 2 2.2208 2.56056 -2.58926 10.8391
197 1 -1.1104 3.55329 -1.12256 12.2296
198 1 -1.1104 3.79653 -1.10546 9.43121
189 1 -1.1104 6.90055 -1.34538 9.37119
185 1 -1.1104 6.4963 -1.27079 12.1248
171 1 -1.1104 6.5792 -1.22631 6.70097
182 1 -1.1104 6.73764 -3.96992 9.49489
178 1 -1.1104 6.56457 -3.93895 12.3773
200 2 2.2208 -0.354411 -2.67031 8.05567
118 1 -1.1104 6.64959 15.4882 6.57352
323 1 -1.1104 12.1011 15.5025 9.49132
168 1 -1.1104 6.61451 -4.11981 6.63359
207 1 -1.1104 12.0441 -1.11081 6.55787
208 1 -1.1104 9.72349 -4.05792 6.60422
205 1 -1.1104 12.3608 -4.04119 6.46372
211 2 2.2208 10.9336 0.183723 10.6907
212 1 -1.1104 12.2246 -4.02805 12.1709
214 1 -1.1104 12.3278 -4.24495 9.35219
216 1 -1.1104 12.475 -1.03457 12.3382
217 2 2.2208 11.0346 -2.75481 7.96846
219 1 -1.1104 12.4272 -1.30689 9.42231
220 1 -1.1104 9.4911 -3.83869 12.1725
222 2 2.2208 8.10293 0.212378 7.97742
223 1 -1.1104 9.58132 -3.84042 9.49065
225 2 2.2208 8.04732 -2.5535 10.7792
227 1 -1.1104 9.63235 -0.846275 12.3246
228 1 -1.1104 9.47232 -1.19893 9.4361
204 2 2.2208 13.6428 14.0233 5.2677
167 1 -1.1104 1.07676 1.45511 6.50276
236 1 -1.1104 1.17556 4.29833 6.64704
234 1 -1.1104 0.974279 7.19806 6.72954
239 1 -1.1104 3.89426 4.54427 6.55222
173 1 -1.1104 3.87641 1.55377 6.71094
238 1 -1.1104 3.75624 7.28388 6.59702
177 1 -1.1104 1.005 1.4442 12.24
181 1 -1.1104 0.922434 1.66843 9.3793
187 2 2.2208 5.30333 2.59182 8.09827
191 1 -1.1104 3.87537 1.6193 12.4962
194 1 -1.1104 3.90836 1.51658 9.66758
196 2 2.2208 2.57291 2.82954 11.0962
240 2 2.2208 5.31198 5.5972 10.8835
246 1 -1.1104 1.22303 4.13174 12.4719
251 1 -1.1104 1.14878 4.45111 9.52067
255 1 -1.1104 3.96189 6.91608 12.5909
256 2 2.2208 2.42195 5.82018 8.06924
258 1 -1.1104 3.88907 7.07721 9.633
260 1 -1.1104 4.04016 4.22561 12.26
262 1 -1.1104 3.81221 4.23996 9.63394
244 1 -1.1104 1.12394 7.28276 9.41468
179 1 -1.1104 6.60653 1.38548 12.1946
242 1 -1.1104 1.16802 7.21529 12.1608
235 1 -1.1104 6.76443 7.25288 6.50755
237 1 -1.1104 6.51286 4.13624 6.59539
325 2 2.2208 10.8278 14.0988 8.14516
327 1 -1.1104 12.3965 18.2626 9.57243
324 2 2.2208 10.7078 19.9008 8.11538
169 1 -1.1104 6.75026 1.38301 6.63004
266 1 -1.1104 12.1769 4.26535 6.59554
269 1 -1.1104 9.33934 4.41808 6.50185
183 1 -1.1104 6.89525 1.38338 9.50178
267 1 -1.1104 9.53468 7.14755 6.47052
265 1 -1.1104 12.2483 7.32087 6.52064
206 1 -1.1104 12.4201 1.43647 6.6849
209 1 -1.1104 9.44452 1.72298 6.60967
253 1 -1.1104 6.41915 4.36436 9.42952
248 1 -1.1104 6.89027 4.24916 12.2576
245 1 -1.1104 6.66039 7.25748 9.4636
213 1 -1.1104 12.3381 1.70287 12.1693
215 1 -1.1104 12.4598 1.49571 9.33008
218 2 2.2208 10.9318 2.83519 8.05466
221 1 -1.1104 9.32784 1.66866 12.3571
224 1 -1.1104 9.52999 1.4312 9.47914
226 2 2.2208 8.12692 2.7727 10.7469
268 1 -1.1104 9.48049 4.26075 9.52538
271 1 -1.1104 9.83723 4.36036 12.3698
273 1 -1.1104 9.55951 6.90612 9.25648
275 2 2.2208 8.05545 5.57041 8.05035
276 2 2.2208 10.8875 5.661 10.8747
278 1 -1.1104 12.3224 7.07462 12.2284
279 1 -1.1104 12.3004 7.22561 9.43133
280 1 -1.1104 12.6088 4.39363 12.1424
283 1 -1.1104 12.3641 4.28933 9.18369
285 1 -1.1104 9.25171 7.02652 12.0748
243 1 -1.1104 6.75814 7.30836 12.3749
288 1 -1.1104 6.52765 18.2598 9.43046
326 1 -1.1104 12.2167 15.7159 12.4162
62 1 -1.1104 0.867164 9.86125 6.71362
108 1 -1.1104 0.914304 12.6311 6.72421
78 1 -1.1104 3.7864 10.0023 6.61439
124 1 -1.1104 3.74252 12.7492 6.65597
241 2 2.2208 5.3354 11.4974 10.9124
247 1 -1.1104 0.921601 9.96547 12.1816
250 2 2.2208 5.15055 8.53591 7.95417
252 1 -1.1104 1.15614 9.97499 9.58276
257 2 2.2208 2.38209 11.3631 8.11023
259 2 2.2208 2.46797 8.67314 10.807
261 1 -1.1104 3.91978 9.9574 12.1901
263 1 -1.1104 3.68732 10.0174 9.52749
305 1 -1.1104 3.86951 12.8252 9.32947
299 1 -1.1104 0.984994 12.8871 12.0954
294 1 -1.1104 0.813447 12.7986 9.44364
287 1 -1.1104 3.77715 12.729 12.3035
65 1 -1.1104 6.42992 9.81352 6.5393
317 2 2.2208 7.99558 14.1695 10.8531
143 1 -1.1104 12.2588 12.8975 6.82972
101 1 -1.1104 9.16396 9.93388 6.6311
154 1 -1.1104 9.46951 12.9118 6.57665
111 1 -1.1104 6.70503 12.736 6.59107
249 1 -1.1104 6.78815 10.196 12.3126
297 1 -1.1104 6.60329 13.0079 12.3067
290 1 -1.1104 6.56698 12.8198 9.4633
90 1 -1.1104 12.3424 9.9007 6.79541
254 1 -1.1104 6.57696 10.0067 9.35715
264 1 -1.1104 9.42394 9.86214 9.49369
270 1 -1.1104 9.60391 9.74889 12.2232
272 2 2.2208 8.04114 8.60024 10.7757
274 2 2.2208 7.91552 11.4606 8.14037
277 2 2.2208 11.0259 11.3188 10.8393
281 1 -1.1104 12.4665 9.6643 12.2655
282 2 2.2208 10.7838 8.5141 8.02922
284 1 -1.1104 12.2597 9.85262 9.62674
330 1 -1.1104 12.4096 12.7284 12.3256
328 1 -1.1104 12.0873 12.8754 9.67813
322 1 -1.1104 9.52284 12.7662 12.2848
319 1 -1.1104 9.28076 12.5734 9.64606
369 2 2.2208 11.0096 0.170681 -0.268945
373 2 2.2208 2.28109 14.1326 -0.398033
296 1 -1.1104 6.57718 18.2573 12.3317
117 1 -1.1104 0.877758 15.6378 6.47509
302 1 -1.1104 1.06145 18.3502 6.55565
133 1 -1.1104 3.64999 15.5648 6.44992
310 2 2.2208 2.4299 14.2172 10.6371
303 2 2.2208 2.36737 16.8809 7.98128
301 1 -1.1104 3.65322 18.2779 9.46877
300 2 2.2208 5.23359 16.9274 10.8485
295 2 2.2208 5.30967 14.2135 7.96896
298 1 -1.1104 0.767366 18.3376 12.2274
309 2 2.2208 2.3618 19.7248 10.8892
308 1 -1.1104 3.53469 15.5219 12.2576
307 1 -1.1104 0.799779 15.6147 12.2882
304 1 -1.1104 4.00739 15.5046 9.35669
286 1 -1.1104 3.96163 18.2939 12.234
291 1 -1.1104 1.0482 18.2682 9.4306
292 1 -1.1104 1.0867 15.3531 9.16734
293 2 2.2208 5.03749 19.6933 8.07033
289 1 -1.1104 6.78996 15.4334 9.35904
354 2 2.2208 8.14771 5.78065 13.6299
199 2 2.2208 -0.405916 3.08101 8.00456
372 2 2.2208 8.0205 2.99255 -0.40914
351 2 2.2208 2.43706 5.65185 13.6198
346 2 2.2208 -0.186786 5.82583 -0.415195
51 2 2.2208 -0.378169 11.4352 10.7674
27 2 2.2208 -0.427892 2.98421 2.41694
82 2 2.2208 -0.364475 8.6256 2.36065
53 2 2.2208 13.6179 11.4462 8.0814
338 2 2.2208 5.04657 -2.66895 13.6002
343 2 2.2208 8.12242 0.169532 13.6695
135 2 2.2208 -0.395616 14.1054 2.4858
364 2 2.2208 5.39901 0.0752081 -0.307036
353 2 2.2208 2.36861 11.248 13.6099
374 2 2.2208 5.06691 17.0479 -0.372402
137 2 2.2208 -0.355448 17.0119 5.28882
230 2 2.2208 13.4996 8.62591 -0.411637
368 2 2.2208 -0.221597 0.146857 -0.313305
349 2 2.2208 7.81836 20.0829 -0.31834
345 2 2.2208 13.3775 20.0057 -0.320305
715 2 2.2208 10.7846 -2.73057 13.6585
378 2 2.2208 13.6683 3.02665 -0.420414
341 2 2.2208 5.24446 2.87457 13.6181
376 2 2.2208 2.37094 8.73883 -0.406312
716 2 2.2208 10.9775 2.99173 13.6513
380 2 2.2208 5.21628 0.131753 16.488
381 1 -1.1104 0.98604 -3.71683 17.9575
385 1 -1.1104 0.991948 -4.22442 15.4171
393 1 -1.1104 0.998195 -1.15596 17.923
395 2 2.2208 5.23424 -2.62019 19.3608
397 1 -1.1104 0.858843 -1.28466 15.2449
401 1 -1.1104 3.61028 -3.85292 17.9147
403 2 2.2208 2.247 0.0795687 19.4562
404 1 -1.1104 3.9369 -3.87901 15.0519
408 2 2.2208 2.2479 -2.45621 16.4786
410 1 -1.1104 4.0139 -1.20579 18.0134
411 1 -1.1104 3.84622 -1.17582 15.2741
422 2 2.2208 13.538 14.1859 22.2292
383 1 -1.1104 6.8664 -4.00483 18.0609
375 2 2.2208 2.2376 19.7967 27.7099
643 2 2.2208 13.6548 5.81759 19.3663
399 1 -1.1104 6.52789 -1.37777 14.9155
394 1 -1.1104 6.84976 -0.978055 18.0223
676 2 2.2208 -0.223854 8.73508 24.8414
412 1 -1.1104 3.88872 -1.12007 20.6776
386 1 -1.1104 1.1627 -3.95266 20.5228
417 2 2.2208 -0.429186 -2.54783 19.326
389 1 -1.1104 6.70798 -4.06274 15.1019
8839 2 2.2208 -0.32582 -5.26278 27.4675
423 2 2.2208 10.9925 0.226229 16.5316
424 1 -1.1104 12.5953 -3.69764 17.9125
426 1 -1.1104 12.3376 -4.01497 15.0722
430 1 -1.1104 12.3418 -1.09098 17.9648
431 2 2.2208 11.1926 -2.47513 19.4934
433 1 -1.1104 12.1834 -1.2257 15.1518
435 1 -1.1104 9.74562 -4.08102 17.9559
437 2 2.2208 8.11494 0.290302 19.2597
438 1 -1.1104 9.58011 -4.11849 15.1867
442 2 2.2208 8.23975 -2.48184 16.6373
444 1 -1.1104 9.71228 -1.26897 17.9191
445 1 -1.1104 9.54072 -1.2506 15.0561
370 2 2.2208 8.21459 -2.67199 27.7167
352 2 2.2208 5.31981 8.47277 13.7371
8841 2 2.2208 8.01059 -5.19294 13.8018
439 1 -1.1104 9.69631 -4.13497 20.6377
452 2 2.2208 13.6075 19.9364 16.3085
447 2 2.2208 13.4277 17.2626 25.0942
382 1 -1.1104 1.1046 1.71963 18.1552
387 1 -1.1104 1.12255 1.57366 15.196
396 2 2.2208 5.194 3.06435 19.4044
402 1 -1.1104 3.8939 1.5502 18.1076
406 1 -1.1104 3.88834 1.56202 15.3321
409 2 2.2208 2.48728 3.05352 16.7466
456 2 2.2208 5.17294 5.8547 16.521
458 1 -1.1104 0.99778 7.26961 17.7454
460 1 -1.1104 1.15608 7.22434 14.7595
464 1 -1.1104 1.03651 4.55631 17.909
469 1 -1.1104 1.0226 4.41994 15.2574
477 1 -1.1104 3.70961 7.38755 18.0887
478 2 2.2208 2.3373 5.83113 19.3824
480 1 -1.1104 3.77772 6.97933 15.2784
483 1 -1.1104 3.74781 4.51508 18.1355
485 1 -1.1104 4.02508 4.16297 15.292
473 1 -1.1104 6.70477 4.40246 14.9664
459 1 -1.1104 6.45852 7.14846 17.7712
384 1 -1.1104 6.42643 1.71522 17.777
339 2 2.2208 2.37236 0.148441 13.8369
677 2 2.2208 -0.335504 11.6977 22.1135
462 1 -1.1104 6.72913 7.21218 15.1449
466 1 -1.1104 6.64868 4.55653 17.8639
391 1 -1.1104 6.67198 1.40853 14.9428
425 1 -1.1104 12.3943 1.41785 17.9276
428 1 -1.1104 12.36 1.63674 15.088
432 2 2.2208 10.856 3.12834 19.4782
436 1 -1.1104 9.5446 1.71035 18.0915
440 1 -1.1104 9.50402 1.79967 15.3356
443 2 2.2208 7.7333 2.97011 16.6067
492 2 2.2208 10.9223 5.56542 16.5482
494 1 -1.1104 12.2077 6.98989 17.9424
497 1 -1.1104 12.4027 4.0318 17.9232
500 1 -1.1104 12.3293 4.38648 15.1646
504 1 -1.1104 9.40385 7.28597 17.9405
505 2 2.2208 8.07049 5.69256 19.3034
507 1 -1.1104 9.45469 7.12551 15.1407
510 1 -1.1104 9.47843 4.41024 18.0645
512 1 -1.1104 9.49139 4.45971 15.1408
449 2 2.2208 -0.234156 14.23 19.3692
495 1 -1.1104 12.2683 7.2455 15.1033
613 2 2.2208 -0.275763 5.84347 16.503
513 1 -1.1104 9.30925 4.31634 20.8833
342 2 2.2208 -0.36004 14.3737 13.8089
418 2 2.2208 13.612 8.67133 16.6004
361 2 2.2208 10.7078 14.157 13.8195
457 2 2.2208 5.20163 11.4206 16.5743
465 1 -1.1104 0.929975 9.92698 18.1753
468 2 2.2208 5.26894 8.621 19.3369
471 1 -1.1104 0.865295 10.0724 15.0621
479 2 2.2208 2.34815 11.377 19.4586
482 2 2.2208 2.48219 8.59468 16.4492
484 1 -1.1104 3.87408 9.98167 17.5592
487 1 -1.1104 3.68967 9.87868 14.905
520 1 -1.1104 0.84657 12.8487 17.7759
524 1 -1.1104 1.1776 12.8235 15.2065
540 1 -1.1104 3.74008 12.7794 18.1188
543 1 -1.1104 4.06055 12.909 15.183
9488 2 2.2208 -0.367051 -2.74644 13.6764
522 1 -1.1104 6.48058 12.8834 17.8813
467 1 -1.1104 6.85751 9.94297 18.0761
475 1 -1.1104 6.56502 9.98889 15.2854
8908 2 2.2208 -0.407866 -5.30286 22.1396
525 1 -1.1104 1.08432 12.8487 20.6098
350 2 2.2208 -0.275509 11.4668 27.7264
640 2 2.2208 -0.399789 11.3211 16.414
528 1 -1.1104 6.89336 12.9511 14.965
493 2 2.2208 10.8056 11.3185 16.4722
498 1 -1.1104 12.2786 9.88514 18.1167
499 2 2.2208 10.7572 8.51168 19.4487
502 1 -1.1104 12.3162 10.2155 14.9848
506 2 2.2208 8.02365 11.4102 19.4409
509 2 2.2208 8.23578 8.53245 16.4695
511 1 -1.1104 9.49526 9.73929 17.9053
514 1 -1.1104 9.56544 9.97054 14.9899
556 1 -1.1104 12.2027 12.6655 18.0334
558 1 -1.1104 12.3239 12.9929 15.1368
567 1 -1.1104 9.27796 12.8273 18.0369
570 1 -1.1104 9.50613 12.6088 15.3862
646 2 2.2208 13.6228 0.168455 24.9832
559 1 -1.1104 12.2274 12.6704 20.6371
365 2 2.2208 2.43916 -2.63057 27.6325
618 2 2.2208 -0.249785 3.0214 24.922
554 1 -1.1104 9.14518 18.5471 23.7812
519 2 2.2208 5.07694 17.0693 16.462
521 1 -1.1104 0.757813 18.7004 17.7652
526 1 -1.1104 1.06633 18.5111 15.0264
532 1 -1.1104 1.16287 15.7227 17.9685
534 2 2.2208 5.03441 14.2828 19.3966
535 2 2.2208 5.04223 19.6661 19.3501
536 1 -1.1104 1.02875 15.6904 15.2033
541 1 -1.1104 3.60402 18.5765 18.0149
542 2 2.2208 2.28926 17.1506 19.3892
545 1 -1.1104 3.81406 18.3208 15.0107
547 2 2.2208 2.47514 14.0588 16.4394
548 2 2.2208 2.36921 19.8913 16.506
549 1 -1.1104 3.93026 15.6645 18.0994
550 1 -1.1104 3.54054 15.5248 15.0076
530 1 -1.1104 6.90944 18.3654 15.1291
538 1 -1.1104 6.31014 15.8554 15.0435
533 1 -1.1104 6.60629 15.5836 17.8411
517 2 2.2208 10.7485 14.2361 25.1695
527 1 -1.1104 1.1202 18.6332 20.7017
531 1 -1.1104 6.2995 18.3819 20.6167
450 2 2.2208 -0.344686 20.0902 19.2134
337 2 2.2208 -0.214644 2.86254 13.8406
516 1 -1.1104 12.1488 15.77 23.593
552 1 -1.1104 12.1678 15.5685 26.3181
356 2 2.2208 8.08123 11.4628 13.7399
574 2 2.2208 8.04543 14.2064 16.5577
523 1 -1.1104 6.48356 18.3399 17.913
555 2 2.2208 10.8238 17.0282 16.5265
557 1 -1.1104 12.1218 18.4829 17.9377
560 1 -1.1104 12.2685 18.4986 15.1761
562 1 -1.1104 12.3321 15.4016 18.1077
563 2 2.2208 10.773 14.1824 19.3358
564 2 2.2208 10.6293 19.9487 19.4443
565 1 -1.1104 12.1178 15.7795 15.2361
568 1 -1.1104 9.35596 18.4757 18.0669
569 2 2.2208 7.78229 17.0298 19.3229
572 1 -1.1104 9.59635 18.1461 14.9556
575 2 2.2208 7.97804 19.6279 16.6236
576 1 -1.1104 9.44742 15.6085 17.9974
577 1 -1.1104 9.13772 15.3548 15.0743
8940 2 2.2208 5.42771 -5.39798 16.614
573 1 -1.1104 9.40032 18.5531 20.8505
566 1 -1.1104 11.9744 15.496 20.8461
578 1 -1.1104 9.2123 15.5009 20.5245
360 2 2.2208 10.8341 19.7086 13.9541
453 2 2.2208 13.4624 19.881 22.1157
8873 2 2.2208 2.39046 -5.35331 24.871
405 1 -1.1104 4.03058 -3.83636 20.689
398 1 -1.1104 0.792592 -1.21338 20.8992
583 2 2.2208 5.17301 0.113782 22.1875
584 1 -1.1104 0.753902 -3.80781 23.4401
588 1 -1.1104 0.857703 -3.87594 26.2155
592 1 -1.1104 0.927308 -1.18342 23.726
594 2 2.2208 5.34479 -2.78278 24.93
596 1 -1.1104 0.903192 -1.18669 26.4376
598 1 -1.1104 3.55721 -4.16588 23.4981
600 2 2.2208 2.60851 0.160363 25.0427
601 1 -1.1104 4.04556 -4.06801 26.4311
603 2 2.2208 2.46668 -2.58636 21.9728
605 1 -1.1104 3.86356 -1.20714 23.4498
606 1 -1.1104 3.88157 -1.52592 26.309
586 1 -1.1104 6.62836 -4.20443 23.6678
390 1 -1.1104 6.7126 -3.97263 20.8513
593 1 -1.1104 6.50891 -1.37689 23.5476
642 2 2.2208 13.6541 11.4106 19.4034
617 2 2.2208 -0.404918 0.220206 22.0018
561 1 -1.1104 12.0222 18.379 20.7125
427 1 -1.1104 12.473 -3.93784 20.9377
400 1 -1.1104 6.74945 -1.26801 20.9219
597 1 -1.1104 6.81409 -1.3524 26.6
446 1 -1.1104 9.63197 -1.30746 20.7681
434 1 -1.1104 12.5929 -0.944303 20.5792
590 1 -1.1104 6.74859 -4.05361 26.3928
619 2 2.2208 11.0827 0.438773 22.2573
620 1 -1.1104 12.3039 -3.90403 23.726
622 1 -1.1104 12.5231 -3.96575 26.423
624 1 -1.1104 12.149 -1.24462 23.4217
625 2 2.2208 11.0332 -2.52903 24.9834
627 1 -1.1104 12.1906 -1.07646 26.3819
628 1 -1.1104 9.52284 -3.95763 23.7615
630 2 2.2208 7.99296 0.145413 25.1876
631 1 -1.1104 9.61917 -4.18597 26.4061
633 2 2.2208 8.14485 -2.71735 22.0516
635 1 -1.1104 9.40389 -1.18054 23.779
636 1 -1.1104 9.67917 -1.13748 26.4351
518 2 2.2208 10.5921 19.9314 24.9332
491 1 -1.1104 12.0687 18.5868 26.5497
481 1 -1.1104 4.04043 7.11722 20.9165
407 1 -1.1104 3.86868 1.63268 20.7117
486 1 -1.1104 3.83789 4.47251 20.5524
388 1 -1.1104 1.05302 1.69189 20.8244
461 1 -1.1104 0.930498 7.35217 20.6962
470 1 -1.1104 1.0352 4.66877 20.8768
585 1 -1.1104 1.1267 1.64075 23.5651
589 1 -1.1104 1.16129 1.57193 26.3279
595 2 2.2208 5.26581 2.93506 25.0312
599 1 -1.1104 3.81629 1.55365 23.6209
602 1 -1.1104 3.86481 1.3471 26.4459
604 2 2.2208 2.45373 2.95428 22.1568
648 2 2.2208 5.12453 5.81931 22.2641
650 1 -1.1104 0.998795 7.0837 23.6627
652 1 -1.1104 1.1148 7.25162 26.4961
654 1 -1.1104 1.39701 4.29418 23.7531
659 1 -1.1104 0.938434 4.53141 26.5449
664 2 2.2208 2.45958 5.79999 25.1145
666 1 -1.1104 3.97089 7.09321 26.5684
668 1 -1.1104 4.02976 4.184 23.6051
670 1 -1.1104 3.88175 4.32924 26.4285
653 1 -1.1104 6.72058 7.25944 26.2495
663 1 -1.1104 3.73623 7.1602 23.6267
392 1 -1.1104 6.72458 1.61766 20.5827
587 1 -1.1104 6.71717 1.35533 23.6823
661 1 -1.1104 6.66001 4.38971 26.4152
651 1 -1.1104 6.52511 7.40974 23.595
656 1 -1.1104 6.81532 4.43187 23.7605
429 1 -1.1104 12.4836 1.79282 20.8003
474 1 -1.1104 6.62877 4.39503 21.0061
441 1 -1.1104 9.62103 1.59033 21.0515
463 1 -1.1104 6.70958 7.27216 20.6475
496 1 -1.1104 12.5686 7.18102 20.7791
591 1 -1.1104 6.65179 1.75307 26.4309
508 1 -1.1104 9.46067 7.1472 20.6915
501 1 -1.1104 12.4575 4.63118 20.9316
621 1 -1.1104 12.4413 1.66078 23.7001
623 1 -1.1104 12.2805 1.74408 26.4633
626 2 2.2208 10.8978 3.0461 25.1119
629 1 -1.1104 9.72348 1.81985 23.6896
632 1 -1.1104 9.33177 1.40225 26.6324
634 2 2.2208 8.08875 3.03644 22.3001
680 1 -1.1104 9.59521 4.21346 26.2896
682 1 -1.1104 9.72372 4.36991 23.837
686 2 2.2208 8.14618 5.67949 25.118
687 2 2.2208 10.9073 5.67839 22.3695
689 1 -1.1104 12.3936 7.16389 23.3662
690 1 -1.1104 12.2289 7.25433 26.0574
691 1 -1.1104 12.416 4.44186 23.9926
694 1 -1.1104 12.2618 4.48601 26.6607
696 1 -1.1104 9.54507 7.13545 23.4701
684 1 -1.1104 9.58751 6.92523 26.51
608 2 2.2208 7.93849 19.9091 22.2161
454 2 2.2208 10.7237 16.8854 21.9634
710 1 -1.1104 6.3575 18.5886 23.3625
472 1 -1.1104 0.932195 10.1194 20.8731
488 1 -1.1104 3.65339 9.99316 20.5302
544 1 -1.1104 3.88887 12.7657 20.9076
649 2 2.2208 5.38699 11.4328 22.231
655 1 -1.1104 1.24427 10.1283 23.5938
658 2 2.2208 5.3547 8.51734 25.212
660 1 -1.1104 1.13661 9.98832 26.3703
665 2 2.2208 2.44252 11.4163 25.0564
667 2 2.2208 2.43735 8.61245 22.1445
669 1 -1.1104 3.85691 10.0708 23.5041
671 1 -1.1104 3.90098 10.071 26.168
673 1 -1.1104 3.63787 12.7587 26.3445
698 1 -1.1104 0.893996 12.8723 23.4809
705 1 -1.1104 3.70197 12.8661 23.5832
709 1 -1.1104 0.939909 12.7758 26.2055
704 1 -1.1104 6.31796 13.0011 26.4365
662 1 -1.1104 6.65954 10.0626 26.5158
657 1 -1.1104 6.54916 10.2071 23.6568
529 1 -1.1104 6.70957 12.6663 20.7112
476 1 -1.1104 6.52188 9.88139 20.8925
571 1 -1.1104 9.44272 12.6974 20.9542
515 1 -1.1104 9.35751 9.84619 20.8025
503 1 -1.1104 12.1431 9.79181 20.8649
701 1 -1.1104 6.74813 12.7819 23.49
455 1 -1.1104 12.1049 13.0356 23.5759
490 1 -1.1104 12.2072 12.8264 26.5442
679 1 -1.1104 9.34171 9.87782 26.506
681 1 -1.1104 9.51802 10.1215 23.6274
683 2 2.2208 7.92802 8.5508 22.1141
685 2 2.2208 7.99941 11.356 25.1755
688 2 2.2208 10.7805 11.3411 22.2554
692 1 -1.1104 12.3341 9.80731 23.5803
693 2 2.2208 10.7915 8.55336 24.958
695 1 -1.1104 12.0244 10.1124 26.4339
581 1 -1.1104 9.3217 12.7997 26.5374
553 1 -1.1104 9.58592 12.8428 23.8652
539 1 -1.1104 6.44625 15.6273 20.8539
672 1 -1.1104 6.34972 15.6465 23.704
580 1 -1.1104 6.71098 18.562 26.1762
537 1 -1.1104 0.999639 15.6088 20.872
551 1 -1.1104 3.6484 15.6856 20.9244
639 2 2.2208 2.3636 14.0923 22.3112
546 1 -1.1104 3.76306 18.5369 20.958
641 2 2.2208 2.3496 19.9694 22.1815
644 1 -1.1104 3.58451 15.7032 23.7748
647 1 -1.1104 0.763543 15.8341 23.83
674 1 -1.1104 3.66986 15.6087 26.4256
675 2 2.2208 2.1834 16.9707 25.0902
678 1 -1.1104 3.95208 18.5316 26.4803
697 2 2.2208 5.1586 16.9549 22.1171
699 1 -1.1104 0.95412 18.5167 23.6263
703 1 -1.1104 3.71797 18.7342 23.6826
707 1 -1.1104 1.02611 18.443 26.3091
708 1 -1.1104 0.802364 15.555 26.4362
711 2 2.2208 5.09825 20.0753 25.0483
712 2 2.2208 5.06498 14.196 25.2491
706 1 -1.1104 6.62912 15.7519 26.7376
416 2 2.2208 -0.405986 0.287484 16.64
582 1 -1.1104 9.45015 18.3762 26.3426
607 2 2.2208 7.85108 14.2203 22.146
609 1 -1.1104 9.11292 15.7138 23.2532
489 1 -1.1104 12.1637 18.5791 23.8528
612 1 -1.1104 9.37746 15.5947 26.5336
579 2 2.2208 7.84918 17.0548 24.9879
610 2 2.2208 13.5162 17.0178 19.4067
419 2 2.2208 -0.36263 3.09624 19.2599
358 2 2.2208 5.4027 19.6732 13.7155
8833 2 2.2208 11.2472 -5.39822 27.7443
348 2 2.2208 10.8364 17.0301 27.7738
719 2 2.2208 5.01888 22.5547 5.3654
721 1 -1.1104 0.946055 23.9713 1.02766
722 1 -1.1104 0.788517 24.2782 3.80564
723 1 -1.1104 0.818552 21.3971 1.16429
725 2 2.2208 4.9019 25.4417 2.54886
726 1 -1.1104 0.817642 21.2625 3.93034
728 1 -1.1104 3.78824 24.1869 0.990469
729 2 2.2208 2.13487 22.695 2.46515
731 1 -1.1104 3.50988 23.8931 3.83002
732 2 2.2208 2.18209 25.4846 5.25975
733 1 -1.1104 3.66272 21.0892 0.857382
735 1 -1.1104 3.66954 20.95 3.72674
727 1 -1.1104 0.800335 27.0613 3.59104
724 1 -1.1104 0.764122 26.7597 0.850825
742 1 -1.1104 6.46864 21.2344 1.37474
740 1 -1.1104 6.62724 23.8524 1.035
734 1 -1.1104 3.80118 26.9737 0.980142
1050 2 2.2208 5.04454 45.3634 -0.296896
1069 2 2.2208 5.27649 28.4292 -0.402206
868 1 -1.1104 3.60283 27.0054 6.56258
860 1 -1.1104 0.803438 24.1565 6.66992
866 1 -1.1104 3.55463 24.0354 6.72963
862 1 -1.1104 0.717672 21.3337 6.81906
10148 2 2.2208 13.4982 28.494 8.13516
10136 2 2.2208 13.5903 42.3109 10.8988
744 1 -1.1104 6.47738 21.2169 4.014
745 1 -1.1104 6.40165 27.0886 3.85926
741 1 -1.1104 6.30687 23.9568 3.93487
746 2 2.2208 10.7839 22.6506 5.4224
748 1 -1.1104 12.1424 24.081 1.27784
749 1 -1.1104 12.0437 24.0585 4.13119
750 1 -1.1104 11.9553 21.1576 1.15456
752 2 2.2208 10.7784 25.486 2.70676
753 1 -1.1104 12.1701 21.3834 4.00418
755 1 -1.1104 9.38357 23.9501 1.16553
756 2 2.2208 7.85223 22.6906 2.59238
758 1 -1.1104 9.09947 24.0659 3.83481
759 2 2.2208 7.85295 25.5916 5.27236
760 1 -1.1104 9.02061 21.1707 1.15894
762 1 -1.1104 9.43303 21.2284 4.0455
763 1 -1.1104 9.54899 27.0036 3.97732
761 1 -1.1104 9.49849 26.6824 1.17692
751 1 -1.1104 12.158 27.0304 1.09705
743 1 -1.1104 6.6639 26.8004 1.11932
1031 2 2.2208 13.583 22.8029 8.14866
1066 2 2.2208 7.94898 42.4648 -0.356253
865 1 -1.1104 6.47355 26.7571 6.50737
897 1 -1.1104 9.44736 21.4104 6.67987
736 1 -1.1104 3.51462 26.6421 3.81154
720 2 2.2208 4.90046 28.3024 5.12738
730 2 2.2208 2.42366 28.197 2.33588
768 1 -1.1104 0.736645 29.6333 1.16408
771 1 -1.1104 0.847619 29.9347 3.96772
774 1 -1.1104 0.945318 32.4339 0.871767
775 2 2.2208 5.15097 31.3268 2.39269
777 1 -1.1104 0.898791 32.6497 3.86007
779 1 -1.1104 3.6515 29.71 0.807091
782 1 -1.1104 3.59674 29.5024 3.83315
784 2 2.2208 2.40869 31.0938 5.29571
786 1 -1.1104 3.68879 32.6323 0.985363
787 1 -1.1104 3.60647 32.3778 3.82718
792 1 -1.1104 6.34139 29.6977 3.64838
791 1 -1.1104 6.6415 29.5764 0.995606
778 1 -1.1104 6.72845 32.546 3.8724
1452 1 -1.1104 9.66952 46.5905 1.02739
923 1 -1.1104 3.81101 29.7446 6.90435
919 1 -1.1104 6.73413 29.7588 6.85531
754 1 -1.1104 12.316 26.8094 3.92467
812 2 2.2208 13.4753 34.1223 2.52968
793 1 -1.1104 6.61387 32.6043 0.947851
747 2 2.2208 10.7353 28.4028 5.43042
757 2 2.2208 7.96795 28.2029 2.25471
795 1 -1.1104 12.1465 29.7986 1.04785
797 1 -1.1104 12.1592 29.5899 3.70891
799 1 -1.1104 12.0519 32.5597 1.16501
800 2 2.2208 10.8846 31.0346 2.52674
802 1 -1.1104 12.1308 32.5734 3.92029
803 1 -1.1104 9.34399 29.7005 0.87734
806 1 -1.1104 9.40631 29.7642 3.85703
808 2 2.2208 8.03343 31.2659 5.25803
810 1 -1.1104 9.27847 32.5435 0.889483
811 1 -1.1104 9.42657 32.6402 3.77627
994 1 -1.1104 6.52669 40.7195 12.058
1016 2 2.2208 10.7051 42.3587 8.18902
922 1 -1.1104 6.47476 32.5453 6.4709
1073 2 2.2208 13.4858 25.4831 -0.3015
1404 1 -1.1104 6.48601 46.708 3.81042
1004 2 2.2208 2.28974 42.6103 -0.376595
767 2 2.2208 5.19664 33.933 5.24901
769 1 -1.1104 0.942594 35.3453 1.06259
772 1 -1.1104 0.667862 35.4201 3.84831
776 2 2.2208 5.16751 36.7049 2.19115
780 1 -1.1104 3.91208 35.3168 0.74193
781 2 2.2208 2.25585 33.9712 2.32272
783 1 -1.1104 3.64698 35.325 3.61593
785 2 2.2208 2.15515 36.8807 5.24555
813 2 2.2208 5.01583 39.5528 5.2074