ITEM: TIMESTEP
40000
ITEM: NUMBER OF ATOMS
17700
ITEM: BOX BOUNDS pp pp pp
-4.4684747283292753e-01 2.7786847472833333e+01
-5.2578881521410343e+00 3.3333788815213398e+02
-4.3764740948802533e-01 2.7777647409488498e+01
ITEM: ATOMS id type q x y z
1 2 2.2208 5.15816 0.147607 4.85034
2 1 -1.1104 0.995466 -3.90551 0.720164
6 1 -1.1104 1.13176 -3.83184 3.56404
10 1 -1.1104 0.87559 -0.99479 0.844908
12 2 2.2208 5.18537 -2.48847 1.98389
14 1 -1.1104 1.01161 -0.973169 3.6131
16 1 -1.1104 3.68332 -4.04964 0.633259
18 2 2.2208 2.36274 0.212974 2.22247
19 1 -1.1104 3.82705 -3.94427 3.28704
21 2 2.2208 2.39977 -2.54037 5.00494
23 1 -1.1104 3.80569 -1.20228 0.819062
24 1 -1.1104 3.61528 -1.04288 3.64488
166 1 -1.1104 0.708805 -3.8456 6.23426
4 1 -1.1104 6.50506 -3.85952 0.566811
174 1 -1.1104 3.91559 -1.29966 6.27508
170 1 -1.1104 1.18991 -1.02447 6.37692
171 1 -1.1104 6.68332 -1.08638 6.31549
172 1 -1.1104 3.75739 -3.93143 6.18883
8 1 -1.1104 6.74583 -3.97954 3.35736
11 1 -1.1104 6.70242 -1.22174 0.784904
168 1 -1.1104 6.71366 -3.72736 6.26712
15 1 -1.1104 6.41681 -1.21551 3.4596
53 2 2.2208 13.5897 11.7949 7.73353
31 2 2.2208 10.8503 0.554187 4.838
32 1 -1.1104 11.97 -3.66584 0.624711
34 1 -1.1104 12.141 -3.71382 3.41165
36 1 -1.1104 12.2676 -0.75255 0.452896
37 2 2.2208 10.6361 -2.28495 1.99799
39 1 -1.1104 11.9918 -0.986664 3.65416
40 1 -1.1104 9.35277 -3.8069 0.584482
42 2 2.2208 7.93164 0.460299 2.08315
43 1 -1.1104 9.47007 -3.67339 3.48614
45 2 2.2208 8.12837 -2.41053 4.8405
47 1 -1.1104 9.41598 -0.88952 0.55079
48 1 -1.1104 9.35739 -0.983845 3.39211
205 1 -1.1104 12.1511 -3.75843 6.34572
207 1 -1.1104 12.3543 -0.856081 6.50091
210 1 -1.1104 9.62586 -1.04946 6.06087
356 2 2.2208 7.94152 11.7229 13.3359
200 2 2.2208 -0.393524 -2.52259 7.62722
208 1 -1.1104 9.35074 -3.90074 6.3534
50 2 2.2208 13.4966 -2.26113 5.12496
8825 2 2.2208 5.09602 -5.19304 10.6015
3 1 -1.1104 0.979778 1.71205 0.924235
7 1 -1.1104 0.841608 1.63935 3.51059
13 2 2.2208 5.03141 3.07001 2.26608
17 1 -1.1104 3.966 1.72803 0.737632
20 1 -1.1104 3.71736 1.66444 3.57636
22 2 2.2208 2.26942 3.13391 4.86674
54 2 2.2208 4.94158 5.89474 5.00513
60 1 -1.1104 1.04461 4.31074 0.650495
67 1 -1.1104 0.660949 4.45353 3.54795
72 2 2.2208 2.19908 5.74644 1.90604
76 1 -1.1104 3.74393 4.51612 0.684764
79 1 -1.1104 3.63202 4.52146 3.56978
58 1 -1.1104 0.905545 7.48823 3.36833
74 1 -1.1104 3.7323 7.4058 3.37425
71 1 -1.1104 3.61259 7.0486 0.633421
173 1 -1.1104 3.6931 1.69182 6.4624
236 1 -1.1104 0.902278 4.5915 6.33037
5 1 -1.1104 6.61294 1.76504 0.61346
69 1 -1.1104 6.52472 4.56957 3.55006
169 1 -1.1104 6.50917 1.9422 6.51546
235 1 -1.1104 6.52427 7.50563 6.25712
59 1 -1.1104 6.39476 7.35703 3.38841
238 1 -1.1104 3.64602 7.29049 6.27831
63 1 -1.1104 6.48344 4.67805 0.602398
56 1 -1.1104 0.936811 7.44565 0.618554
234 1 -1.1104 0.830435 7.44257 6.23406
167 1 -1.1104 0.587736 1.59259 6.38492
239 1 -1.1104 3.67262 4.36946 6.33595
57 1 -1.1104 6.42478 7.4834 0.714539
9 1 -1.1104 6.49307 1.76151 3.57912
237 1 -1.1104 6.31512 4.65803 6.22307
233 2 2.2208 13.4982 3.29986 4.88119
33 1 -1.1104 12.3258 2.02403 0.701639
35 1 -1.1104 12.2136 1.9401 3.58092
38 2 2.2208 10.7357 3.26034 1.9096
41 1 -1.1104 9.37498 1.88164 0.785943
44 1 -1.1104 9.34808 1.90629 3.68686
46 2 2.2208 7.82505 3.3676 4.88696
84 2 2.2208 10.7816 6.14005 4.89908
86 1 -1.1104 11.971 7.26579 0.827225
87 1 -1.1104 12.4315 7.43345 3.54939
88 1 -1.1104 12.3373 4.56173 0.679851
92 1 -1.1104 12.2009 4.65142 3.40903
95 2 2.2208 7.70626 6.07095 2.04925
97 1 -1.1104 9.16617 7.65334 3.36878
99 1 -1.1104 9.38236 4.73668 0.559578
102 1 -1.1104 9.08537 4.59474 3.37913
94 1 -1.1104 9.26758 7.37582 0.667227
265 1 -1.1104 12.118 7.61886 6.28731
209 1 -1.1104 9.44861 1.85665 6.24293
269 1 -1.1104 9.32781 4.55283 6.35039
206 1 -1.1104 12.3354 1.75283 6.15947
266 1 -1.1104 12.0745 4.67761 6.37684
267 1 -1.1104 9.2935 7.37959 6.20338
203 2 2.2208 13.6022 3.21393 10.5759
55 2 2.2208 5.11838 11.4853 4.89663
61 1 -1.1104 0.948182 10.1436 0.590168
66 2 2.2208 4.93369 8.68472 1.98677
68 1 -1.1104 0.840852 10.162 3.43951
73 2 2.2208 2.05781 11.6229 2.06846
75 2 2.2208 2.25258 8.70784 4.78738
77 1 -1.1104 3.71719 10.0603 0.665669
80 1 -1.1104 3.69891 10.1571 3.5708
107 1 -1.1104 0.77422 13.0362 0.73585
113 1 -1.1104 0.74979 12.9784 3.43938
123 1 -1.1104 3.54986 12.9563 0.744515
128 1 -1.1104 3.53277 13.0235 3.6274
115 1 -1.1104 6.38431 13.0615 3.56478
108 1 -1.1104 0.738344 13.0597 6.25068
65 1 -1.1104 6.46805 10.1283 6.13203
111 1 -1.1104 6.45002 13.1708 6.23416
78 1 -1.1104 3.5962 10.3991 6.28942
110 1 -1.1104 6.31024 13.0042 0.690599
64 1 -1.1104 6.39683 10.4361 0.678115
62 1 -1.1104 0.966914 10.3312 6.2414
124 1 -1.1104 3.57142 13.1332 6.48467
333 2 2.2208 13.415 14.516 10.6772
70 1 -1.1104 6.52215 10.1951 3.39186
85 2 2.2208 10.6387 11.6496 4.87565
89 1 -1.1104 12.1149 10.3368 0.433204
91 2 2.2208 10.6431 8.98477 1.94057
93 1 -1.1104 11.9936 10.2868 3.52106
96 2 2.2208 7.89633 11.6219 2.14978
98 2 2.2208 7.94417 8.83065 4.72752
100 1 -1.1104 9.11824 10.1871 0.505815
103 1 -1.1104 9.28293 10.3323 3.56517
142 1 -1.1104 12.1449 13.0915 0.670796
146 1 -1.1104 12.0755 13.1688 3.39821
153 1 -1.1104 9.37015 13.0269 0.726223
158 1 -1.1104 9.33334 13.0931 3.65655
90 1 -1.1104 12.3049 10.2987 6.59598
104 2 2.2208 13.4624 11.6018 2.00299
143 1 -1.1104 12.1529 12.9099 6.11446
101 1 -1.1104 9.15979 10.1548 6.11879
154 1 -1.1104 9.32521 13.1127 6.34877
119 2 2.2208 4.83679 14.3631 2.07829
130 2 2.2208 2.25341 14.4388 5.04083
106 2 2.2208 5.00654 17.1603 4.78915
109 1 -1.1104 0.952641 18.612 0.42325
114 1 -1.1104 0.814176 18.8057 3.46592
116 1 -1.1104 0.949478 15.6681 0.619764
120 2 2.2208 5.02187 20.1329 2.23214
121 1 -1.1104 0.720935 15.957 3.39912
125 1 -1.1104 3.98617 18.5837 0.421798
127 2 2.2208 2.2532 17.3317 2.03813
129 1 -1.1104 3.71847 18.7837 3.41888
131 2 2.2208 2.2151 20.1982 4.84759
132 1 -1.1104 3.5334 15.9511 0.611045
134 1 -1.1104 3.44288 16.0652 3.62409
140 1 -1.1104 6.32159 15.725 0.661399
302 1 -1.1104 0.742089 19.0193 6.24827
133 1 -1.1104 3.82249 15.7837 6.11557
122 1 -1.1104 6.35904 15.6094 3.59029
138 1 -1.1104 6.576 18.5282 0.687289
139 1 -1.1104 6.38401 18.55 3.49105
117 1 -1.1104 0.881269 16.0525 6.28802
118 1 -1.1104 6.43004 16.1082 6.18635
112 1 -1.1104 6.19289 18.8459 6.32193
28 2 2.2208 13.3917 20.2612 10.4568
160 2 2.2208 7.92485 14.4928 4.96139
150 2 2.2208 10.6044 14.4345 2.16401
141 2 2.2208 10.5575 17.3631 4.8957
144 1 -1.1104 12.02 18.6385 0.663576
147 1 -1.1104 11.9443 18.8167 3.37199
148 1 -1.1104 12.1916 15.934 0.70954
151 2 2.2208 10.7398 20.2213 1.83736
152 1 -1.1104 12.1611 15.8212 3.50052
155 1 -1.1104 9.31589 18.72 0.696192
157 2 2.2208 7.89045 17.2916 2.20008
159 1 -1.1104 9.43949 19.0082 3.62979
161 2 2.2208 7.81379 20.1826 4.98966
162 1 -1.1104 9.2253 15.8484 0.775565
164 1 -1.1104 9.17609 15.9508 3.76961
156 1 -1.1104 9.13562 18.8039 6.32565
149 1 -1.1104 12.062 15.8363 6.25063
163 1 -1.1104 9.32873 15.9253 6.41762
145 1 -1.1104 11.8301 18.7631 6.18767
718 2 2.2208 13.6568 11.6092 13.3087
338 2 2.2208 5.10222 -2.39462 13.1303
175 2 2.2208 5.07833 0.208898 10.8085
176 1 -1.1104 0.649328 -3.75902 11.723
180 1 -1.1104 1.06607 -3.85487 8.81862
184 1 -1.1104 0.849973 -0.956249 12.1208
186 2 2.2208 5.07537 -2.64233 7.60811
188 1 -1.1104 0.841593 -1.23607 9.37678
190 1 -1.1104 3.6561 -3.96306 11.9417
192 2 2.2208 2.13948 0.33836 7.84021
193 1 -1.1104 3.82092 -3.83198 9.20185
195 2 2.2208 2.26619 -2.49974 10.6075
197 1 -1.1104 3.60386 -0.932303 12.2183
198 1 -1.1104 3.78191 -1.28418 9.30143
185 1 -1.1104 6.53104 -1.08037 11.8078
178 1 -1.1104 6.48542 -3.77529 11.9304
189 1 -1.1104 6.62093 -1.0577 9.07072
182 1 -1.1104 6.42728 -3.83773 9.20123
339 2 2.2208 2.11753 0.474377 13.4774
8822 2 2.2208 10.7234 -5.22396 4.92197
343 2 2.2208 8.13665 0.12704 13.3521
715 2 2.2208 10.875 -2.48034 13.3684
211 2 2.2208 10.7976 0.496754 10.5292
212 1 -1.1104 12.3345 -3.82904 11.9769
214 1 -1.1104 12.0914 -3.69509 9.15818
216 1 -1.1104 12.1906 -1.06023 12.1034
217 2 2.2208 10.8182 -2.23156 7.6535
219 1 -1.1104 12.3843 -0.971906 9.31048
220 1 -1.1104 9.34298 -4.24603 11.7418
222 2 2.2208 7.97643 0.445125 7.73893
223 1 -1.1104 9.51873 -3.96511 9.15268
225 2 2.2208 8.03032 -2.50176 10.4324
227 1 -1.1104 9.43109 -1.30859 11.7764
228 1 -1.1104 9.54626 -0.851054 8.925
363 2 2.2208 13.5949 17.4442 13.2154
325 2 2.2208 10.7391 14.4702 7.71227
351 2 2.2208 2.3256 5.88159 13.5061
177 1 -1.1104 0.806086 1.67651 12.0928
181 1 -1.1104 0.999951 1.9721 8.99175
187 2 2.2208 5.04427 3.01756 7.77172
191 1 -1.1104 3.59631 1.65468 11.8621
194 1 -1.1104 3.4704 1.35153 9.22904
196 2 2.2208 2.3021 3.13786 10.5922
240 2 2.2208 5.09155 5.78367 10.7523
246 1 -1.1104 1.03901 4.5194 12.1814
251 1 -1.1104 0.911658 4.70636 9.359
255 1 -1.1104 3.61317 7.20257 12.044
256 2 2.2208 2.14293 5.90247 7.72736
258 1 -1.1104 3.64399 7.35895 9.15319
260 1 -1.1104 3.87331 4.4854 12.1155
262 1 -1.1104 3.50333 4.179 8.9896
244 1 -1.1104 0.924629 7.48479 9.16589
242 1 -1.1104 0.76364 7.26698 12.1155
243 1 -1.1104 6.5433 7.49927 11.9664
253 1 -1.1104 6.76659 4.73698 9.36016
245 1 -1.1104 6.4307 7.50388 8.999
183 1 -1.1104 6.40193 1.82015 9.25683
179 1 -1.1104 6.33801 1.66916 12.1361
248 1 -1.1104 6.3975 4.6732 12.093
341 2 2.2208 5.19947 3.29377 13.5183
716 2 2.2208 10.6708 3.42491 13.3536
354 2 2.2208 8.14564 6.06682 13.3026
202 2 2.2208 13.4447 6.15773 7.77519
213 1 -1.1104 12.2288 1.80047 12.0481
215 1 -1.1104 11.8604 1.85923 9.19399
218 2 2.2208 10.7398 3.27521 7.71031
221 1 -1.1104 9.25229 1.64903 12.0693
224 1 -1.1104 9.29818 1.73633 9.13091
226 2 2.2208 7.81616 3.02714 10.6147
268 1 -1.1104 9.50336 4.57744 9.3607
271 1 -1.1104 9.16367 4.40876 12.0768
275 2 2.2208 7.84781 6.04639 7.75575
276 2 2.2208 10.8111 5.98932 10.5777
278 1 -1.1104 12.1098 7.58686 11.8844
279 1 -1.1104 12.0176 7.41102 9.25561
280 1 -1.1104 12.0546 4.56004 11.8591
283 1 -1.1104 12.2413 4.60306 9.17168
285 1 -1.1104 9.42745 7.1956 11.8515
273 1 -1.1104 9.06637 7.45782 9.09906
713 2 2.2208 13.534 6.01704 13.3268
717 2 2.2208 10.6666 8.8909 13.2768
353 2 2.2208 2.10838 11.5246 13.3904
352 2 2.2208 4.97843 8.82914 13.4601
241 2 2.2208 5.20113 11.8373 10.8199
247 1 -1.1104 0.897033 10.112 11.854
250 2 2.2208 4.9901 8.8092 7.69477
252 1 -1.1104 0.677057 10.4106 8.89397
257 2 2.2208 2.2809 11.6862 7.84015
259 2 2.2208 2.17889 8.74909 10.6762
261 1 -1.1104 3.49849 10.0151 12.3181
263 1 -1.1104 3.52852 10.2225 9.26664
305 1 -1.1104 3.73769 13.0823 9.25947
299 1 -1.1104 0.762646 12.7285 11.7441
294 1 -1.1104 0.666197 13.1619 8.88387
287 1 -1.1104 3.64255 12.9892 11.9189
290 1 -1.1104 6.64577 13.0108 9.06635
254 1 -1.1104 6.53635 10.159 9.01758
310 2 2.2208 2.27814 14.4654 10.3817
331 2 2.2208 10.4813 17.3102 10.5175
165 2 2.2208 13.3865 17.1975 2.12854
306 1 -1.1104 6.48144 15.9197 11.9767
17372 2 2.2208 13.5312 -5.14445 7.78054
297 1 -1.1104 6.5951 13.1943 11.925
249 1 -1.1104 6.45137 10.2291 11.8434
52 2 2.2208 13.487 8.87544 10.5496
264 1 -1.1104 9.2672 10.196 9.16743
270 1 -1.1104 9.21756 10.3581 11.8851
272 2 2.2208 7.79497 8.86765 10.4517
274 2 2.2208 7.77336 11.5644 7.67264
277 2 2.2208 10.6529 11.5793 10.5876
281 1 -1.1104 12.2018 10.3775 12.206
282 2 2.2208 10.6599 8.82409 7.68265
284 1 -1.1104 12.1829 10.2252 9.23308
330 1 -1.1104 11.9735 13.1312 11.849
328 1 -1.1104 12.2072 13.0727 9.28391
322 1 -1.1104 9.26409 13.1607 11.9458
319 1 -1.1104 9.2632 12.9017 8.94616
126 1 -1.1104 3.35687 18.616 6.27804
357 2 2.2208 2.36139 17.3007 13.2604
286 1 -1.1104 3.46859 18.773 11.7522
304 1 -1.1104 3.54365 15.7773 9.03715
293 2 2.2208 4.91229 20.0961 7.71348
292 1 -1.1104 0.74673 15.9543 9.3527
291 1 -1.1104 0.758927 18.8207 9.04529
307 1 -1.1104 1.11544 15.7724 12.1403
303 2 2.2208 2.04298 17.3082 7.85651
301 1 -1.1104 3.52518 18.6638 9.09285
300 2 2.2208 5.00719 16.9413 10.4482
295 2 2.2208 5.01349 14.3205 7.68212
298 1 -1.1104 0.819346 18.7751 11.811
309 2 2.2208 2.18514 20.0428 10.5003
308 1 -1.1104 3.72916 15.8785 11.8096
296 1 -1.1104 6.32557 18.6571 11.7359
288 1 -1.1104 6.13214 18.6601 9.0999
289 1 -1.1104 6.37221 15.8882 9.02795
359 2 2.2208 5.1866 14.5506 13.3238
358 2 2.2208 4.88434 19.9625 13.2229
360 2 2.2208 10.5031 20.2292 13.3453
361 2 2.2208 10.7576 14.3791 13.2246
324 2 2.2208 10.6159 20.379 7.70913
105 2 2.2208 13.5346 5.94376 2.04659
317 2 2.2208 8.07708 14.483 10.5316
329 1 -1.1104 12.1494 18.743 11.609
327 1 -1.1104 11.6814 18.717 9.1229
318 1 -1.1104 8.90643 18.4765 9.22719
316 2 2.2208 7.77424 20.0518 10.4297
320 2 2.2208 7.68967 17.3131 7.73522
362 2 2.2208 7.99071 17.362 13.4601
315 1 -1.1104 9.37426 15.7685 12.0394
321 1 -1.1104 9.37761 18.7121 11.999
323 1 -1.1104 11.946 15.7587 9.41228
326 1 -1.1104 12.0929 16.1143 12.0005
314 1 -1.1104 9.2269 15.6329 9.1085
232 2 2.2208 13.5446 8.84932 4.85113
204 2 2.2208 13.3983 14.4891 5.01482
17700 2 2.2208 13.6025 -5.10239 13.3916
332 2 2.2208 13.3371 17.3428 7.72688
83 2 2.2208 -0.449132 11.5114 4.98771
231 2 2.2208 13.5457 20.2037 4.88885
8823 2 2.2208 13.501 -5.15912 2.2345
8824 2 2.2208 2.34786 -5.27716 7.79405
25 2 2.2208 -0.440941 -2.49133 2.09325
26 2 2.2208 -0.407813 0.195633 4.98009
229 2 2.2208 13.4725 0.549672 7.83275
137 2 2.2208 -0.370298 17.2888 4.8359
342 2 2.2208 -0.448039 14.3911 13.3586
714 2 2.2208 13.506 0.329161 13.468
8827 2 2.2208 8.15317 -5.11862 7.69663
8821 2 2.2208 7.96582 -5.23582 1.85695
8819 2 2.2208 5.13465 -5.25298 4.84934
380 2 2.2208 5.19167 0.327221 16.2875
381 1 -1.1104 0.890955 -3.72756 17.4743
385 1 -1.1104 1.10935 -3.85317 14.6521
393 1 -1.1104 0.718864 -0.930717 17.6419
395 2 2.2208 5.05863 -2.38507 19.1524
397 1 -1.1104 0.953061 -1.06707 14.8625
401 1 -1.1104 3.88713 -3.68437 17.4404
403 2 2.2208 2.40328 0.492909 19.0831
404 1 -1.1104 3.9214 -3.98452 14.5878
408 2 2.2208 2.43755 -2.49559 16.135
410 1 -1.1104 3.79588 -1.12504 17.8061
411 1 -1.1104 3.76999 -0.829193 14.904
386 1 -1.1104 1.02709 -3.86667 20.4137
399 1 -1.1104 6.42021 -1.18679 14.5948
394 1 -1.1104 6.52755 -1.14748 17.5182
389 1 -1.1104 6.72318 -3.79324 14.6919
400 1 -1.1104 6.56736 -1.24861 20.3385
412 1 -1.1104 3.59214 -1.0885 20.4671
390 1 -1.1104 6.67153 -3.93469 20.4011
398 1 -1.1104 0.890889 -1.08765 20.5376
383 1 -1.1104 6.54177 -4.00545 17.74
405 1 -1.1104 3.88056 -3.71091 20.6738
344 2 2.2208 13.3678 14.5479 27.4809
423 2 2.2208 10.5889 0.378554 16.3423
424 1 -1.1104 12.2953 -3.78276 17.706
426 1 -1.1104 12.2135 -3.8265 14.9694
430 1 -1.1104 12.1252 -0.944005 17.7234
431 2 2.2208 10.7501 -2.51905 18.8728
433 1 -1.1104 12.1758 -1.04143 15.0278
435 1 -1.1104 9.37089 -4.05667 17.5678
437 2 2.2208 8.03123 0.202591 18.9898
438 1 -1.1104 9.50392 -3.98833 14.7647
442 2 2.2208 7.85386 -2.74745 16.2192
444 1 -1.1104 9.43633 -1.141 17.4661
445 1 -1.1104 9.43217 -1.21448 14.8828
439 1 -1.1104 9.19455 -4.15205 20.3495
427 1 -1.1104 12.0711 -4.04863 20.438
434 1 -1.1104 11.9415 -1.0903 20.4814
451 2 2.2208 13.5785 -2.46429 16.1465
446 1 -1.1104 9.13645 -1.13632 20.4171
382 1 -1.1104 0.835971 1.79994 17.6237
387 1 -1.1104 0.798207 1.84631 14.7069
396 2 2.2208 5.33578 2.97581 18.9569
402 1 -1.1104 3.8193 1.75785 17.7093
406 1 -1.1104 3.80605 2.01114 14.8159
409 2 2.2208 2.05508 3.1618 16.1569
456 2 2.2208 5.17206 5.90555 16.1766
458 1 -1.1104 0.845189 7.37117 17.5262
464 1 -1.1104 1.06093 4.30927 17.7097
469 1 -1.1104 0.833825 4.49424 15.0122
477 1 -1.1104 3.79171 7.42896 17.7077
478 2 2.2208 2.32765 5.86721 18.8076
480 1 -1.1104 3.74664 7.44914 14.9537
483 1 -1.1104 3.91055 4.53043 17.6453
485 1 -1.1104 3.62558 4.56208 15.0002
460 1 -1.1104 0.917428 7.30399 14.7867
391 1 -1.1104 6.75282 1.49783 14.9071
384 1 -1.1104 6.54623 1.50433 17.6997
466 1 -1.1104 6.68778 4.4371 17.4265
388 1 -1.1104 1.07858 1.69007 20.4669
459 1 -1.1104 6.52924 7.42318 17.5404
407 1 -1.1104 3.90469 1.55365 20.352
481 1 -1.1104 3.65368 7.12806 20.4245
486 1 -1.1104 3.84767 4.25147 20.5379
474 1 -1.1104 6.52757 4.43358 20.1772
463 1 -1.1104 6.37907 7.44884 20.4817
473 1 -1.1104 6.68199 4.40896 14.761
392 1 -1.1104 6.75583 1.64521 20.5153
462 1 -1.1104 6.69356 7.1554 14.8777
461 1 -1.1104 0.899013 7.38292 20.3333
470 1 -1.1104 0.768349 4.56702 20.3136
643 2 2.2208 13.5926 6.15985 19.0009
425 1 -1.1104 12.2611 1.79296 17.5005
428 1 -1.1104 12.1342 1.73633 14.7267
432 2 2.2208 10.8154 3.147 18.8544
436 1 -1.1104 9.29726 1.7796 17.5238
440 1 -1.1104 9.45788 1.63402 14.7424
443 2 2.2208 8.02416 3.13643 16.0788
492 2 2.2208 10.7397 5.95372 16.2788
494 1 -1.1104 12.355 7.67675 17.7209
497 1 -1.1104 12.1348 4.79199 17.835
500 1 -1.1104 12.163 4.56502 14.8061
504 1 -1.1104 9.19405 7.38449 17.4725
505 2 2.2208 7.88396 6.06125 19.0346
510 1 -1.1104 9.3995 4.54597 17.598
512 1 -1.1104 9.34463 4.72072 14.9119
495 1 -1.1104 12.221 7.2881 14.7509
507 1 -1.1104 9.50831 7.43285 14.4727
441 1 -1.1104 9.40874 1.57424 20.2225
513 1 -1.1104 9.37035 4.52753 20.2742
496 1 -1.1104 12.303 7.48987 20.6319
501 1 -1.1104 12.1783 4.65098 20.4269
508 1 -1.1104 9.33589 7.35457 20.2855
8939 2 2.2208 2.18258 -5.28843 18.8524
457 2 2.2208 5.1482 11.6141 16.0375
465 1 -1.1104 0.863831 10.1196 17.5522
468 2 2.2208 5.17687 8.7737 18.9415
471 1 -1.1104 0.852683 10.2 14.7901
479 2 2.2208 2.19754 11.5724 18.9706
482 2 2.2208 2.28965 8.86434 16.3033
484 1 -1.1104 3.66462 10.4524 17.6605
487 1 -1.1104 3.55258 9.94641 14.798
520 1 -1.1104 0.836962 13.0232 17.7664
524 1 -1.1104 1.14511 12.9841 14.6671
540 1 -1.1104 3.75607 13.1672 17.4772
543 1 -1.1104 3.73485 12.8648 14.8621
522 1 -1.1104 6.37556 13.2036 17.4675
467 1 -1.1104 6.60215 10.4026 17.4018
488 1 -1.1104 3.54713 9.95854 20.3477
476 1 -1.1104 6.39294 10.1592 20.3801
475 1 -1.1104 6.52806 10.17 14.7691
544 1 -1.1104 3.50837 13.1364 20.3817
472 1 -1.1104 0.851685 10.1471 20.2892
529 1 -1.1104 6.26863 12.8401 20.5968
415 2 2.2208 13.6741 3.2267 21.7514
528 1 -1.1104 6.49788 12.983 14.6696
8873 2 2.2208 2.1149 -5.25174 24.5475
493 2 2.2208 10.7474 11.4988 16.2374
498 1 -1.1104 12.2163 10.2162 17.5287
499 2 2.2208 10.7725 8.7834 18.9985
502 1 -1.1104 12.0456 10.1559 14.9459
506 2 2.2208 7.79684 11.6411 19.0911
509 2 2.2208 7.95141 8.68209 16.0272
511 1 -1.1104 9.38009 10.1673 17.8032
514 1 -1.1104 9.30763 10.277 14.7853
556 1 -1.1104 12.1599 13.253 17.6396
558 1 -1.1104 12.3319 13.0588 14.7704
567 1 -1.1104 9.09957 12.8716 17.7326
570 1 -1.1104 9.30767 13.1191 14.6872
503 1 -1.1104 12.0817 10.3601 20.3837
559 1 -1.1104 11.975 13.2368 20.2208
515 1 -1.1104 9.12674 10.2435 20.4364
571 1 -1.1104 9.2805 13.3113 20.3507
547 2 2.2208 2.45688 14.699 16.1603
519 2 2.2208 5.17392 17.3597 16.1181
521 1 -1.1104 0.873839 18.6592 17.7795
526 1 -1.1104 1.03764 18.7982 14.6511
532 1 -1.1104 0.794839 15.9722 17.5929
534 2 2.2208 4.89123 14.4578 18.9033
535 2 2.2208 5.09414 19.9471 18.8699
536 1 -1.1104 0.609681 15.7863 14.925
541 1 -1.1104 3.74163 18.6926 17.4455
542 2 2.2208 2.18903 17.3109 19.0746
545 1 -1.1104 3.65636 18.7194 14.5981
548 2 2.2208 2.30725 20.1936 16.2738
549 1 -1.1104 3.5384 16.1086 17.5206
550 1 -1.1104 3.60895 15.7263 14.5583
533 1 -1.1104 6.39696 15.9995 17.6594
546 1 -1.1104 3.68816 18.65 20.3819
527 1 -1.1104 0.992042 18.547 20.7801
523 1 -1.1104 6.63957 18.6859 17.5589
551 1 -1.1104 3.63479 15.9231 20.5196
530 1 -1.1104 6.62265 18.8879 14.6276
538 1 -1.1104 6.24449 15.9885 14.7124
531 1 -1.1104 6.60894 18.661 20.2929
537 1 -1.1104 0.938822 15.7953 20.2302
539 1 -1.1104 6.41242 15.9252 20.3213
578 1 -1.1104 9.47814 15.9732 20.4282
574 2 2.2208 7.89017 14.452 16.2446
563 2 2.2208 10.7162 14.5694 19.0317
555 2 2.2208 10.8421 17.3578 16.0166
557 1 -1.1104 12.1793 18.7647 17.5792
560 1 -1.1104 11.9482 18.9412 14.5759
562 1 -1.1104 12.06 15.9026 17.573
564 2 2.2208 10.816 20.2287 19.0682
565 1 -1.1104 12.1685 16.0147 14.6757
568 1 -1.1104 9.39532 18.7511 17.4574
569 2 2.2208 7.92154 17.3891 19.0154
572 1 -1.1104 9.35684 18.667 14.8911
575 2 2.2208 7.75386 20.2996 16.3172
576 1 -1.1104 9.33859 15.9093 17.506
577 1 -1.1104 9.30882 15.939 14.8851
573 1 -1.1104 9.30136 18.8094 20.1512
561 1 -1.1104 12.1245 18.6753 20.2517
516 1 -1.1104 12.0784 16.0095 23.2994
566 1 -1.1104 12.2821 15.9342 20.4619
489 1 -1.1104 12.1528 18.8869 23.1175
364 2 2.2208 5.1293 0.27648 27.4867
611 2 2.2208 13.6093 14.5678 16.2619
583 2 2.2208 5.22309 0.17385 21.7963
584 1 -1.1104 0.934374 -3.98131 23.3307
588 1 -1.1104 0.781951 -3.77096 26.1777
592 1 -1.1104 0.98389 -0.918295 23.3535
594 2 2.2208 5.09451 -2.44334 24.766
596 1 -1.1104 1.07215 -1.25328 25.7874
598 1 -1.1104 3.65762 -3.65601 23.3137
600 2 2.2208 2.37999 0.319137 24.7185
601 1 -1.1104 3.58782 -3.97272 26.0134
603 2 2.2208 2.2318 -2.33185 21.8042
605 1 -1.1104 3.64793 -1.11746 23.2845
606 1 -1.1104 3.86358 -0.979722 26.2037
590 1 -1.1104 6.45058 -3.84823 26.0837
586 1 -1.1104 6.50318 -3.83289 23.224
597 1 -1.1104 6.42969 -1.16535 26.3165
593 1 -1.1104 6.5269 -1.04327 23.4102
365 2 2.2208 2.36122 -2.63988 27.6316
642 2 2.2208 13.5198 11.7442 18.9169
645 2 2.2208 13.4363 -2.50937 21.9292
646 2 2.2208 13.6139 0.386658 24.5366
619 2 2.2208 10.5579 0.36503 21.6927
620 1 -1.1104 12.169 -3.96456 23.1646
622 1 -1.1104 12.0047 -3.7078 26.149
624 1 -1.1104 12.0296 -1.19261 23.1734
625 2 2.2208 10.7595 -2.65467 24.4357
627 1 -1.1104 12.1837 -1.04419 25.8235
628 1 -1.1104 9.33877 -3.9418 23.0921
630 2 2.2208 7.97918 0.338456 24.8325
631 1 -1.1104 9.30868 -4.04522 26.0671
633 2 2.2208 7.91441 -2.62731 21.835
635 1 -1.1104 9.33 -0.901279 23.0328
636 1 -1.1104 9.36489 -1.22318 25.8349
369 2 2.2208 10.8702 0.481911 27.4715
370 2 2.2208 8.0134 -2.50918 27.4911
347 2 2.2208 8.02589 14.3855 27.6512
379 2 2.2208 5.13665 5.77776 27.2526
366 2 2.2208 2.44264 3.0807 27.5539
585 1 -1.1104 0.883834 1.88433 23.2764
589 1 -1.1104 0.818288 1.65263 26.1218
595 2 2.2208 5.2083 2.97007 24.5649
599 1 -1.1104 3.81988 1.50802 23.1684
602 1 -1.1104 3.52937 1.64047 26.0627
604 2 2.2208 2.52712 3.03852 21.8874
648 2 2.2208 5.01519 5.87973 21.9416
654 1 -1.1104 1.17853 4.6085 23.2881
659 1 -1.1104 1.02942 4.61281 26.2044
664 2 2.2208 2.34686 5.92626 24.819
666 1 -1.1104 3.79917 7.26768 26.1585
668 1 -1.1104 3.98189 4.30311 23.2456
670 1 -1.1104 3.74912 4.38162 26.0097
652 1 -1.1104 0.825583 7.27746 25.9942
663 1 -1.1104 3.59259 7.15766 23.259
650 1 -1.1104 0.849615 7.29308 23.455
591 1 -1.1104 6.44733 1.71152 26.0683
587 1 -1.1104 6.68425 1.69441 23.172
661 1 -1.1104 6.59318 4.4322 25.9622
653 1 -1.1104 6.33115 7.39462 26.1883
656 1 -1.1104 6.67914 4.54973 22.9272
651 1 -1.1104 6.46528 7.37661 23.4015
429 1 -1.1104 12.2046 1.96649 20.2196
345 2 2.2208 13.5487 20.0429 27.4717
372 2 2.2208 8.05523 3.22388 27.6388
377 2 2.2208 13.4906 -2.42893 27.3807
621 1 -1.1104 12.2055 1.68706 23.0262
623 1 -1.1104 12.1892 1.72709 25.969
626 2 2.2208 10.6828 2.98696 24.6248
629 1 -1.1104 9.25709 1.95353 23.1578
632 1 -1.1104 9.36436 1.56404 26.172
634 2 2.2208 8.18259 3.07766 21.6678
680 1 -1.1104 9.40357 4.46173 25.7722
682 1 -1.1104 9.54824 4.48473 23.0445
686 2 2.2208 8.03545 5.84919 24.5119
687 2 2.2208 10.8107 5.98194 21.7996
689 1 -1.1104 12.2535 7.53544 23.3392
690 1 -1.1104 12.0896 7.26055 26.0727
691 1 -1.1104 12.206 4.47316 23.3887
694 1 -1.1104 12.239 4.58593 26.0601
696 1 -1.1104 9.32498 7.37309 22.9944
684 1 -1.1104 9.18652 7.23859 26.0963
700 2 2.2208 13.5036 11.4119 24.6247
340 2 2.2208 10.6911 5.90678 27.4362
355 2 2.2208 4.86078 11.5995 27.5517
525 1 -1.1104 0.710577 12.9576 20.586
649 2 2.2208 4.94972 11.345 21.8434
655 1 -1.1104 0.869984 10.2526 23.2791
658 2 2.2208 4.95145 8.77448 24.5223
660 1 -1.1104 0.789465 10.0346 26.1149
665 2 2.2208 2.24412 11.4593 24.5364
667 2 2.2208 2.2162 8.67968 21.5626
669 1 -1.1104 3.69386 9.96398 23.1754
671 1 -1.1104 3.50415 9.97742 25.9399
673 1 -1.1104 3.52009 13.0001 26.0153
698 1 -1.1104 0.988032 12.902 23.257
705 1 -1.1104 3.61364 12.8672 23.2437
709 1 -1.1104 0.781736 12.7571 26.026
657 1 -1.1104 6.53087 10.1471 23.1447
662 1 -1.1104 6.15741 10.1835 26.1645
704 1 -1.1104 6.41537 12.8014 26.2464
376 2 2.2208 2.40845 8.73636 27.5473
701 1 -1.1104 6.44934 12.6882 23.3773
334 2 2.2208 10.6992 11.7689 27.4445
610 2 2.2208 13.557 17.2911 19.0578
452 2 2.2208 13.3771 20.065 16.1814
554 1 -1.1104 9.3727 18.5153 22.9629
455 1 -1.1104 11.9871 13.1061 23.0277
490 1 -1.1104 12.0566 13.0688 25.9603
679 1 -1.1104 9.43912 10.135 26.0717
681 1 -1.1104 9.21318 10.0142 23.2226
683 2 2.2208 7.81057 8.67491 21.9174
685 2 2.2208 7.73668 11.5577 24.7296
688 2 2.2208 10.6354 11.5857 21.7808
692 1 -1.1104 12.0548 10.3146 23.163
693 2 2.2208 10.7797 8.70114 24.6271
695 1 -1.1104 12.1234 10.1856 25.8537
581 1 -1.1104 9.3389 13.2712 26.1249
553 1 -1.1104 9.24987 12.7252 23.5098
336 2 2.2208 7.6896 8.69894 27.5443
375 2 2.2208 2.3749 19.929 27.3023
373 2 2.2208 2.02142 14.3198 27.5357
374 2 2.2208 5.21036 17.1931 27.4474
710 1 -1.1104 6.44922 18.5689 23.1815
639 2 2.2208 2.25927 14.3115 21.9763
641 2 2.2208 2.23147 20.1062 21.8241
644 1 -1.1104 3.49479 15.9142 23.2845
647 1 -1.1104 0.746479 15.8558 23.1704
674 1 -1.1104 3.73755 15.8002 26.0797
675 2 2.2208 2.16109 17.1637 24.6676
678 1 -1.1104 3.55924 18.5567 25.807
697 2 2.2208 4.90734 17.4573 21.8379
699 1 -1.1104 0.758789 18.8155 23.2675
703 1 -1.1104 3.52877 18.8505 23.0327
707 1 -1.1104 0.941277 18.776 25.8717
708 1 -1.1104 0.690373 15.7971 26.0353
711 2 2.2208 5.07913 19.9946 24.6183
712 2 2.2208 4.95164 14.301 24.7047
706 1 -1.1104 6.43993 15.7708 26.0659
447 2 2.2208 13.5718 17.2421 24.6167
454 2 2.2208 10.7442 17.3051 21.7584
348 2 2.2208 10.7649 17.1919 27.5112
422 2 2.2208 13.4259 14.341 21.69
672 1 -1.1104 6.27573 15.4603 23.1156
518 2 2.2208 10.6755 19.8445 24.6851
608 2 2.2208 8.00924 20.0903 21.7443
609 1 -1.1104 9.12923 15.6695 23.4833
607 2 2.2208 7.78833 14.4733 21.7316
579 2 2.2208 7.83671 17.1783 24.791
582 1 -1.1104 9.12273 18.588 26.2643
349 2 2.2208 7.84008 19.9054 27.7364
491 1 -1.1104 12.1464 18.5056 26.1061
552 1 -1.1104 12.175 15.766 26.188
580 1 -1.1104 6.34563 18.5521 26.0303
517 2 2.2208 10.7148 14.4802 24.698
612 1 -1.1104 9.44026 15.8842 26.0182
421 2 2.2208 13.6086 3.14713 16.1391
230 2 2.2208 13.4467 8.75383 27.3404
453 2 2.2208 13.5201 20.0579 21.8524
17696 2 2.2208 13.4719 -5.21267 19.0569
378 2 2.2208 13.5981 3.20376 27.4662
413 2 2.2208 -0.370537 6.0171 21.9451
448 2 2.2208 -0.48283 17.416 16.2417
17697 2 2.2208 -0.440557 -5.18825 16.0374
618 2 2.2208 -0.500812 3.20133 24.6909
449 2 2.2208 -0.413579 14.3768 18.9653
368 2 2.2208 -0.414332 0.223971 27.5804
702 2 2.2208 13.5611 5.99746 24.7409
677 2 2.2208 -0.426265 11.5891 21.7898
8940 2 2.2208 5.12594 -5.20467 16.0835
8833 2 2.2208 10.7613 -5.25332 27.5109
719 2 2.2208 5.01798 22.9323 5.11246
721 1 -1.1104 0.99436 24.2611 0.770542
722 1 -1.1104 0.611113 24.4921 3.85536
723 1 -1.1104 0.886437 21.5786 0.602925
725 2 2.2208 4.99466 25.6925 2.32932
726 1 -1.1104 0.668667 21.6438 3.27132
728 1 -1.1104 3.72778 24.2282 0.730247
729 2 2.2208 2.27692 22.9102 2.00905
731 1 -1.1104 3.56887 24.1883 3.76979
732 2 2.2208 2.11446 25.8126 5.06276
733 1 -1.1104 3.57355 21.3304 0.588736
735 1 -1.1104 3.51926 21.576 3.44422
727 1 -1.1104 0.867564 27.2089 3.48863
740 1 -1.1104 6.49976 24.341 0.563515
741 1 -1.1104 6.37877 24.1662 3.71854
742 1 -1.1104 6.41102 21.3957 0.75154
744 1 -1.1104 6.46216 21.4091 3.66319
743 1 -1.1104 6.59026 26.8975 0.910846
861 1 -1.1104 6.14292 24.2611 6.54296
736 1 -1.1104 3.68698 27.1347 3.70498
734 1 -1.1104 3.65288 27.0561 0.84385
745 1 -1.1104 6.44925 27.2415 3.60483
864 1 -1.1104 6.35676 21.4281 6.53046
724 1 -1.1104 0.652097 27.1146 0.626968
862 1 -1.1104 0.496465 21.5692 6.32851
860 1 -1.1104 0.736336 24.267 6.53196
868 1 -1.1104 3.43481 27.1065 6.6155
865 1 -1.1104 6.40337 27.218 6.38251
863 1 -1.1104 0.587612 27.1704 6.36616
866 1 -1.1104 3.53487 24.4688 6.64413
867 1 -1.1104 3.46541 21.4131 6.43947
746 2 2.2208 10.6767 23.0848 4.88348
748 1 -1.1104 12.0589 24.1527 1.13604
749 1 -1.1104 12.0793 24.5561 3.72595
750 1 -1.1104 12.172 21.681 0.658842
752 2 2.2208 10.6138 25.8543 2.21715
753 1 -1.1104 12.1128 21.8187 3.5052
755 1 -1.1104 9.25503 24.3117 0.803705
756 2 2.2208 7.97244 22.8117 2.01366
758 1 -1.1104 9.27981 24.3711 3.56464
759 2 2.2208 7.74445 25.6762 4.94438
760 1 -1.1104 9.26515 21.4941 0.584778
762 1 -1.1104 9.2703 21.532 3.30794
754 1 -1.1104 12.0615 27.3392 3.57804
763 1 -1.1104 9.22356 27 3.72695
895 1 -1.1104 12.1337 27.1102 6.40581
761 1 -1.1104 9.38186 27.2193 0.875585
751 1 -1.1104 12.098 27.1902 0.902513
10146 2 2.2208 -0.452513 42.7816 7.81607
764 2 2.2208 13.5342 22.9408 2.12065
894 1 -1.1104 12.0331 21.4888 6.27137
896 1 -1.1104 9.11335 24.4969 6.43496
897 1 -1.1104 9.28299 21.6726 6.36905
893 1 -1.1104 12.0489 24.3352 6.63691
898 1 -1.1104 9.215 27.2005 6.30777
720 2 2.2208 4.99227 28.5604 5.02166
730 2 2.2208 2.33278 28.5943 2.35627
768 1 -1.1104 0.991934 29.9056 0.58788
771 1 -1.1104 1.02745 29.989 3.43984
774 1 -1.1104 0.809651 32.9031 0.728772
775 2 2.2208 5.19274 31.2606 2.18029
777 1 -1.1104 0.983493 32.8094 3.58787
779 1 -1.1104 3.55565 30.0756 0.72491
782 1 -1.1104 3.62465 30.0758 3.74859
784 2 2.2208 2.17104 31.5245 5.22339
786 1 -1.1104 3.90703 32.8513 0.934362
787 1 -1.1104 3.80845 32.9658 3.76525
921 1 -1.1104 0.851913 32.8775 6.33919
925 1 -1.1104 3.75724 32.8118 6.64234
791 1 -1.1104 6.47346 29.7045 0.80732
919 1 -1.1104 6.51242 30.1555 6.61763
793 1 -1.1104 6.81699 32.5237 0.909876
792 1 -1.1104 6.46423 30.0526 3.79941
778 1 -1.1104 6.24772 32.7304 3.88672
917 1 -1.1104 0.829539 30.051 6.37336
922 1 -1.1104 6.68533 32.9849 6.36619
923 1 -1.1104 3.60909 30.095 6.38964
747 2 2.2208 10.7933 28.5705 5.06637
757 2 2.2208 7.9093 28.491 2.29912
795 1 -1.1104 12.1345 30.0068 0.974156
797 1 -1.1104 12.0735 30.1828 3.85138
799 1 -1.1104 12.0729 32.8258 0.807522
800 2 2.2208 10.6276 31.3499 2.38333
802 1 -1.1104 12.0464 32.9151 3.57801
803 1 -1.1104 9.33812 29.8712 0.815014
806 1 -1.1104 9.40417 29.9861 3.59918
808 2 2.2208 7.89296 31.4184 5.09391
810 1 -1.1104 9.30349 32.8818 0.791272
811 1 -1.1104 9.21249 32.8249 3.54062
954 1 -1.1104 9.34853 30.01 6.24788
953 1 -1.1104 12.0165 32.6846 6.59872
1029 2 2.2208 13.285 31.6225 5.11448
10183 3 0 12.6819 32.8914 10.4329