ITEM: TIMESTEP
90000
ITEM: NUMBER OF ATOMS
17700
ITEM: BOX BOUNDS pp pp pp
-4.2850918026519169e-01 2.7768509180265646e+01
-5.3974525213112221e+00 3.3347745252130528e+02
-4.3986709584773764e-01 2.7779867095848260e+01
ITEM: ATOMS id type q x y z
1 2 2.2208 5.05853 0.145414 5.21963
2 1 -1.1104 0.755326 -4.08237 1.02257
6 1 -1.1104 1.01253 -3.85286 4.00225
10 1 -1.1104 0.902033 -1.2236 1.03113
12 2 2.2208 5.08411 -2.68991 2.61805
14 1 -1.1104 0.879092 -1.07014 3.76867
16 1 -1.1104 3.58483 -3.86871 1.14612
18 2 2.2208 2.28111 0.346823 2.49844
19 1 -1.1104 3.76621 -3.89571 3.96697
21 2 2.2208 2.34716 -2.57166 5.2631
23 1 -1.1104 3.64163 -1.12101 1.08547
24 1 -1.1104 3.50138 -1.18622 4.07303
81 2 2.2208 -0.427177 5.87844 5.2781
4 1 -1.1104 6.4476 -4.02738 1.07662
365 2 2.2208 2.51078 -2.4595 -0.35985
8823 2 2.2208 13.5085 -5.42196 2.3721
379 2 2.2208 5.28374 5.92626 -0.3062
51 2 2.2208 -0.189002 11.6689 10.9078
11 1 -1.1104 6.66726 -1.02883 1.23859
82 2 2.2208 -0.398567 8.57353 2.55274
15 1 -1.1104 6.37708 -1.34248 4.18502
8 1 -1.1104 6.47234 -4.11078 3.82834
31 2 2.2208 10.7602 0.130142 5.23267
32 1 -1.1104 11.9613 -4.07175 0.943618
34 1 -1.1104 12.1765 -4.19681 3.78925
36 1 -1.1104 12.2962 -1.04449 1.05317
37 2 2.2208 10.6297 -2.72619 2.38399
39 1 -1.1104 12.2387 -1.51924 3.84396
40 1 -1.1104 9.26163 -4.23342 1.0711
42 2 2.2208 8.09295 0.310179 2.54464
43 1 -1.1104 9.21496 -3.986 3.81066
45 2 2.2208 7.9634 -2.77169 5.3091
47 1 -1.1104 9.37992 -1.33431 1.23741
48 1 -1.1104 9.18478 -1.35737 3.81621
202 2 2.2208 13.733 5.90456 7.95784
320 2 2.2208 7.90908 17.0578 7.84325
339 2 2.2208 2.29823 0.0665086 13.6311
168 1 -1.1104 6.54146 -4.1107 6.41065
210 1 -1.1104 9.62358 -1.27503 6.65786
7 1 -1.1104 0.804161 1.74669 3.72276
3 1 -1.1104 0.809136 1.51048 1.1536
13 2 2.2208 5.29137 3.04962 2.4852
17 1 -1.1104 3.70409 1.81687 1.33728
20 1 -1.1104 3.43006 1.49174 4.23469
22 2 2.2208 2.22721 3.04868 5.40587
54 2 2.2208 5.37014 5.78079 5.2121
60 1 -1.1104 1.07739 4.53083 1.14436
67 1 -1.1104 0.827766 4.4391 4.05475
72 2 2.2208 2.58269 5.92589 2.51606
76 1 -1.1104 4.02208 4.5188 1.00699
79 1 -1.1104 3.89986 4.41214 3.83642
74 1 -1.1104 3.81188 7.35254 3.70963
71 1 -1.1104 3.70464 7.38847 0.767292
56 1 -1.1104 0.724643 7.17515 1.36144
58 1 -1.1104 1.24396 6.98131 4.10839
343 2 2.2208 8.059 0.276301 13.6355
83 2 2.2208 -0.351199 11.4365 5.07012
57 1 -1.1104 6.75173 7.26275 1.22057
359 2 2.2208 5.21012 14.3521 13.521
375 2 2.2208 2.55447 19.9679 -0.452425
63 1 -1.1104 6.91538 4.65358 1.05186
59 1 -1.1104 6.52165 7.24 3.92168
5 1 -1.1104 6.65919 1.86742 1.15868
69 1 -1.1104 7.00675 4.50042 4.06898
9 1 -1.1104 6.5279 1.64239 3.86748
33 1 -1.1104 12.1423 1.71483 1.18213
35 1 -1.1104 12.2253 1.49168 4.21808
38 2 2.2208 10.8415 2.97829 2.53637
41 1 -1.1104 9.43416 1.64189 1.19273
44 1 -1.1104 9.45908 1.67591 3.95325
46 2 2.2208 8.04515 2.97783 5.46942
84 2 2.2208 10.8701 5.94408 5.27406
88 1 -1.1104 12.5892 4.45664 1.20435
92 1 -1.1104 12.2103 4.29335 3.9236
95 2 2.2208 8.19116 6.03415 2.657
99 1 -1.1104 9.68596 4.49331 1.2559
102 1 -1.1104 9.47135 4.544 4.15015
94 1 -1.1104 9.55372 7.379 1.09949
87 1 -1.1104 12.1871 7.21902 3.87983
97 1 -1.1104 9.38914 7.56554 3.89171
86 1 -1.1104 12.3572 7.24216 1.16993
349 2 2.2208 8.12727 19.9206 -0.480562
269 1 -1.1104 9.40224 4.54056 6.67757
209 1 -1.1104 9.24271 1.70516 6.77274
206 1 -1.1104 11.8343 1.76158 6.69402
265 1 -1.1104 12.0918 7.43372 6.57806
364 2 2.2208 5.34599 0.228836 -0.271265
358 2 2.2208 5.25655 19.8064 13.7126
55 2 2.2208 5.01394 11.3709 5.17244
61 1 -1.1104 0.912299 10.0143 1.10673
66 2 2.2208 5.29068 8.66674 2.53037
68 1 -1.1104 1.06513 9.89263 3.78745
73 2 2.2208 2.47202 11.4018 2.30826
75 2 2.2208 2.35377 8.63622 5.43694
77 1 -1.1104 3.84427 9.96778 1.26023
80 1 -1.1104 3.86066 10.1846 3.72607
107 1 -1.1104 1.07572 12.9085 1.06136
113 1 -1.1104 1.09771 12.8146 3.79826
123 1 -1.1104 3.70932 12.9414 1.09961
128 1 -1.1104 3.96623 13.0281 3.78202
373 2 2.2208 2.34131 14.3037 -0.381788
78 1 -1.1104 3.76052 10.0017 6.71116
49 2 2.2208 13.6926 0.0891878 2.44144
110 1 -1.1104 6.4802 12.8479 0.976405
115 1 -1.1104 6.88374 13.0603 3.48671
64 1 -1.1104 6.42149 9.89095 0.894335
70 1 -1.1104 6.65822 10.2917 3.81086
85 2 2.2208 11.0159 11.3303 5.16178
89 1 -1.1104 12.4517 9.90739 1.08317
91 2 2.2208 10.8756 8.5721 2.49542
93 1 -1.1104 12.4198 9.99914 4.0149
96 2 2.2208 8.06374 11.4624 2.34684
98 2 2.2208 8.18267 8.71237 5.19893
100 1 -1.1104 9.14293 10.0355 0.841204
103 1 -1.1104 9.59883 10.3637 3.73209
142 1 -1.1104 12.3524 12.8443 0.92388
146 1 -1.1104 12.4281 12.751 3.63201
153 1 -1.1104 9.42014 12.907 1.03245
158 1 -1.1104 9.7036 12.9947 3.85639
118 1 -1.1104 6.52725 15.7224 6.58676
313 2 2.2208 -0.199562 14.2071 7.94841
90 1 -1.1104 12.5594 10.0175 6.9281
101 1 -1.1104 9.52135 10.0517 6.65865
65 1 -1.1104 6.29128 10.11 6.61044
366 2 2.2208 2.3727 2.96076 -0.302625
163 1 -1.1104 9.14519 15.3858 6.51226
119 2 2.2208 5.23065 14.5069 2.17048
130 2 2.2208 2.56307 14.3318 5.12514
106 2 2.2208 5.31233 17.0378 5.22712
109 1 -1.1104 0.840091 18.5115 0.926781
114 1 -1.1104 1.10944 18.638 3.67046
116 1 -1.1104 0.94829 15.7 0.927359
120 2 2.2208 5.30185 20.1241 2.44099
121 1 -1.1104 0.734791 15.5624 3.92296
125 1 -1.1104 3.90892 18.6294 0.857233
127 2 2.2208 2.4604 17.233 2.35894
129 1 -1.1104 3.88912 18.6687 3.67555
131 2 2.2208 2.49454 20.0001 5.31042
132 1 -1.1104 3.64086 15.7421 1.08738
134 1 -1.1104 3.78209 15.7742 3.67314
139 1 -1.1104 6.74207 18.6583 3.87782
133 1 -1.1104 3.88185 15.5018 6.49371
370 2 2.2208 7.90855 -2.73071 -0.335089
346 2 2.2208 -0.378962 6.10186 -0.287804
122 1 -1.1104 6.66085 15.6812 3.78736
138 1 -1.1104 6.54802 18.6289 0.953201
140 1 -1.1104 6.56717 15.6274 0.794943
160 2 2.2208 8.05492 14.2327 5.01234
150 2 2.2208 10.7578 14.2526 2.34558
141 2 2.2208 10.7508 16.9255 5.08398
144 1 -1.1104 12.2508 18.3354 0.984865
147 1 -1.1104 12.1868 18.4026 3.64081
148 1 -1.1104 12.0281 15.5322 0.689201
151 2 2.2208 10.8431 19.9278 2.36617
152 1 -1.1104 12.3377 15.6069 3.45607
155 1 -1.1104 9.37861 18.63 1.02744
157 2 2.2208 8.07309 17.2096 2.27832
159 1 -1.1104 9.44642 18.4481 3.86126
161 2 2.2208 8.125 19.9338 5.26655
162 1 -1.1104 9.26497 15.7876 0.733596
164 1 -1.1104 9.27522 15.7429 3.69398
156 1 -1.1104 9.47075 18.2494 6.48627
8827 2 2.2208 7.99973 -5.3842 8.00181
145 1 -1.1104 12.3646 18.5222 6.39059
8821 2 2.2208 7.87179 -5.27442 2.58085
311 2 2.2208 -0.610158 20.1239 8.11324
8825 2 2.2208 5.08513 -5.29405 10.7214
50 2 2.2208 13.5661 -2.68324 5.28229
52 2 2.2208 13.7511 8.67287 10.9769
312 2 2.2208 -0.278368 17.1975 10.7116
166 1 -1.1104 0.943198 -3.86635 6.54663
174 1 -1.1104 3.82862 -1.01014 6.73272
172 1 -1.1104 3.56506 -3.82141 6.91343
170 1 -1.1104 1.05048 -1.06915 6.62464
175 2 2.2208 5.00794 0.270092 10.8468
176 1 -1.1104 0.770909 -3.84183 12.1151
180 1 -1.1104 0.830864 -4.05114 9.42396
184 1 -1.1104 0.759185 -1.18415 12.2194
186 2 2.2208 5.18213 -2.58638 7.97908
188 1 -1.1104 0.901051 -1.3341 9.36237
190 1 -1.1104 3.58818 -4.15537 12.318
192 2 2.2208 2.19317 0.179407 8.09467
193 1 -1.1104 3.69516 -3.99879 9.46628
195 2 2.2208 2.30384 -2.58182 10.9016
197 1 -1.1104 3.58907 -1.42081 12.3571
198 1 -1.1104 3.8107 -1.34856 9.55071
171 1 -1.1104 6.79613 -1.21411 6.74072
189 1 -1.1104 6.45108 -1.08642 9.23334
325 2 2.2208 10.7546 14.0269 7.73047
369 2 2.2208 10.7529 0.162961 -0.30465
323 1 -1.1104 12.3103 15.5943 9.09551
207 1 -1.1104 12.23 -1.28277 6.78623
208 1 -1.1104 9.45307 -4.2169 6.67845
178 1 -1.1104 6.50111 -4.12723 12.1364
185 1 -1.1104 6.5665 -1.22123 12.0559
205 1 -1.1104 12.261 -4.12234 6.73521
182 1 -1.1104 6.58876 -3.86376 9.23979
211 2 2.2208 10.7982 0.337837 10.8747
212 1 -1.1104 12.4061 -4.1065 12.2812
214 1 -1.1104 12.3111 -4.00695 9.48811
216 1 -1.1104 12.2118 -1.14724 12.1438
217 2 2.2208 10.9705 -2.57921 8.17702
219 1 -1.1104 12.1804 -1.15111 9.5507
220 1 -1.1104 9.46343 -3.94216 12.0224
222 2 2.2208 8.11701 0.141674 8.03724
223 1 -1.1104 9.52514 -4.1996 9.42639
225 2 2.2208 8.00431 -2.38125 10.7071
227 1 -1.1104 9.40826 -1.00289 12.1692
228 1 -1.1104 9.45353 -1.35477 9.26182
331 2 2.2208 10.8449 17.1191 10.7748
239 1 -1.1104 3.93647 4.61639 6.54948
167 1 -1.1104 0.998007 1.65488 6.57148
236 1 -1.1104 1.05932 4.63355 6.87582
173 1 -1.1104 3.6745 1.8121 6.78626
234 1 -1.1104 0.945727 7.25807 6.82811
177 1 -1.1104 0.708191 1.78113 12.1095
181 1 -1.1104 0.947434 1.55891 9.41518
187 2 2.2208 5.05877 3.01632 7.99047
191 1 -1.1104 3.43929 1.48781 12.1734
194 1 -1.1104 3.7016 1.4945 9.47281
196 2 2.2208 2.17538 2.93977 10.8791
240 2 2.2208 5.26182 5.80837 10.9896
246 1 -1.1104 0.737124 4.4255 12.1765
251 1 -1.1104 1.08428 4.56859 9.57091
256 2 2.2208 2.52065 5.82358 8.13888
260 1 -1.1104 3.6431 4.55496 12.2974
262 1 -1.1104 3.632 4.19397 9.56425
258 1 -1.1104 3.85339 7.0765 9.52431
244 1 -1.1104 1.00988 7.26713 9.69472
255 1 -1.1104 3.85477 7.25882 12.3502
242 1 -1.1104 0.919256 7.32411 12.3492
238 1 -1.1104 3.90598 7.19617 6.8569
245 1 -1.1104 6.89763 7.40411 9.51792
253 1 -1.1104 6.56655 4.4485 9.43825
267 1 -1.1104 9.34445 7.35828 6.70203
266 1 -1.1104 12.179 4.59781 6.81093
324 2 2.2208 11.0425 19.831 7.83606
248 1 -1.1104 6.27895 4.41834 12.2961
237 1 -1.1104 6.51004 4.3732 6.72523
243 1 -1.1104 6.80054 7.23121 12.3013
169 1 -1.1104 6.5724 1.414 6.79551
183 1 -1.1104 6.86359 1.74066 9.81646
179 1 -1.1104 6.48687 1.53271 12.585
235 1 -1.1104 6.78469 7.26284 6.63856
213 1 -1.1104 12.4741 1.57918 12.2833
215 1 -1.1104 12.3024 1.7418 9.40429
218 2 2.2208 10.9098 3.10267 8.28754
221 1 -1.1104 9.33762 1.73276 12.1934
224 1 -1.1104 9.56155 1.65746 9.39602
226 2 2.2208 7.85761 3.26833 11.0736
268 1 -1.1104 9.44071 4.59349 9.65465
271 1 -1.1104 9.35396 4.53055 12.46
275 2 2.2208 7.97667 5.77233 8.17426
276 2 2.2208 10.9389 5.76852 10.9749
278 1 -1.1104 12.4372 7.29097 12.3034
280 1 -1.1104 12.2418 4.55794 12.4022
283 1 -1.1104 12.2915 4.40768 9.50346
285 1 -1.1104 9.5966 7.31179 12.5442
279 1 -1.1104 12.8617 7.16427 9.44266
273 1 -1.1104 9.79218 7.26518 9.81449
108 1 -1.1104 0.966485 12.9365 6.58932
62 1 -1.1104 1.10954 9.99469 6.5963
124 1 -1.1104 3.73294 12.788 6.62439
241 2 2.2208 5.30438 11.5102 10.8206
247 1 -1.1104 1.10048 10.1548 12.2324
250 2 2.2208 5.27993 8.62259 8.01903
252 1 -1.1104 1.10697 10.1025 9.4192
257 2 2.2208 2.46911 11.4582 8.07988
259 2 2.2208 2.32169 8.52176 11.0503
261 1 -1.1104 3.91933 10.2735 12.4788
263 1 -1.1104 3.81281 10.1315 9.60921
305 1 -1.1104 3.89109 12.9868 9.27586
299 1 -1.1104 1.28123 13.0379 12.2653
294 1 -1.1104 1.22954 12.9035 9.38161
287 1 -1.1104 3.93162 13.1791 12.0762
290 1 -1.1104 6.78332 12.8755 9.21657
297 1 -1.1104 6.78118 12.8005 12.0506
318 1 -1.1104 9.54188 18.3777 9.03532
143 1 -1.1104 12.4147 12.8334 6.47686
154 1 -1.1104 9.42717 12.889 6.36693
111 1 -1.1104 6.51142 12.9544 6.40884
249 1 -1.1104 6.70882 10.0924 12.1755
254 1 -1.1104 6.68782 10.0729 9.48923
264 1 -1.1104 9.3439 9.872 9.39892
270 1 -1.1104 9.35798 10.338 12.277
272 2 2.2208 8.07937 8.73384 10.9393
274 2 2.2208 8.07054 11.4413 8.01702
277 2 2.2208 10.9131 11.6208 10.8522
281 1 -1.1104 12.4281 10.0848 12.3192
282 2 2.2208 11.0474 8.66411 8.2006
284 1 -1.1104 12.1695 10.0332 9.66296
330 1 -1.1104 12.5181 12.9871 12.2407
328 1 -1.1104 12.3583 12.8131 9.2755
322 1 -1.1104 9.54451 13.0691 12.0933
319 1 -1.1104 9.67321 12.7359 9.13134
315 1 -1.1104 9.5206 15.6979 11.9601
356 2 2.2208 8.03934 11.4488 13.6914
112 1 -1.1104 6.56737 18.594 6.60139
289 1 -1.1104 6.66984 15.8081 9.30078
302 1 -1.1104 1.07295 18.6487 6.46499
126 1 -1.1104 3.91478 18.1467 6.70771
117 1 -1.1104 1.04687 15.8905 6.53917
295 2 2.2208 5.13231 14.2642 7.78143
310 2 2.2208 2.46603 14.2364 10.7189
286 1 -1.1104 3.86486 18.5325 12.1706
304 1 -1.1104 3.89389 15.7074 9.29329
293 2 2.2208 5.25267 19.9836 8.10639
292 1 -1.1104 1.07912 15.598 9.4011
291 1 -1.1104 0.991106 18.8536 9.38022
307 1 -1.1104 1.08726 15.7667 12.34
303 2 2.2208 2.44202 16.9776 7.97483
301 1 -1.1104 3.83179 18.7103 9.54696
300 2 2.2208 5.31863 17.1076 10.7087
298 1 -1.1104 1.14001 18.5571 12.2698
309 2 2.2208 2.46187 20.0465 10.9116
308 1 -1.1104 3.93197 15.8069 12.2664
306 1 -1.1104 6.78742 15.6562 12.0952
296 1 -1.1104 6.70094 18.4431 12.1998
316 2 2.2208 8.2538 20.0121 10.7782
314 1 -1.1104 9.53314 15.6576 9.4063
327 1 -1.1104 12.361 18.4059 9.2867
326 1 -1.1104 12.4729 15.6243 12.1877
288 1 -1.1104 6.89208 18.781 9.27488
149 1 -1.1104 12.026 15.5902 6.42696
329 1 -1.1104 12.5357 18.3798 12.0641
317 2 2.2208 8.16937 14.2468 10.5675
321 1 -1.1104 9.78724 18.6108 12.166
233 2 2.2208 13.4046 2.92299 5.33052
105 2 2.2208 13.6225 5.93778 2.47051
165 2 2.2208 13.7156 16.9574 2.14218
336 2 2.2208 7.94649 8.55764 -0.270754
351 2 2.2208 2.44379 6.00399 13.6276
137 2 2.2208 -0.235197 17.2562 5.06591
229 2 2.2208 13.6031 0.0475474 8.09957
204 2 2.2208 13.6274 14.2871 4.95754
25 2 2.2208 -0.485059 -2.54443 2.59512
340 2 2.2208 10.9691 5.90459 -0.154651
335 2 2.2208 -0.350772 19.9436 13.6157
715 2 2.2208 10.6435 -2.57291 13.3974
338 2 2.2208 5.22182 -2.56633 13.4459
376 2 2.2208 2.46172 8.74578 -0.383347
8837 2 2.2208 5.16386 -5.43373 -0.301199
334 2 2.2208 11.0205 11.3949 -0.388365
380 2 2.2208 5.33828 0.13071 16.4814
381 1 -1.1104 0.814889 -3.7894 17.8157
385 1 -1.1104 1.06642 -3.99711 14.8801
393 1 -1.1104 0.757474 -0.858744 18.0934
395 2 2.2208 5.22089 -2.52888 19.3211
397 1 -1.1104 1.00202 -1.24925 14.969
401 1 -1.1104 3.56972 -4.20302 18.0173
403 2 2.2208 2.52095 0.351015 19.3238
404 1 -1.1104 3.7872 -3.96392 15.2183
408 2 2.2208 2.38817 -2.59762 16.5209
410 1 -1.1104 3.8535 -1.21631 17.8478
411 1 -1.1104 4.02548 -1.26497 14.9087
419 2 2.2208 -0.240106 3.14577 19.1743
417 2 2.2208 -0.33778 -2.59259 19.3951
717 2 2.2208 10.9337 8.58634 13.7034
643 2 2.2208 13.4937 5.79505 19.2367
716 2 2.2208 10.7543 2.90319 13.625
637 2 2.2208 -0.188176 20.0179 25.0479
394 1 -1.1104 6.68372 -1.29849 17.9802
383 1 -1.1104 6.47532 -4.09364 17.8731
389 1 -1.1104 6.54912 -3.97971 15.094
399 1 -1.1104 6.71934 -1.16679 14.8779
423 2 2.2208 10.8432 0.120279 16.5082
424 1 -1.1104 11.9212 -4.16009 17.9373
426 1 -1.1104 11.8676 -4.21879 15.122
430 1 -1.1104 12.121 -1.32008 17.9002
431 2 2.2208 10.7504 -2.88353 19.3828
433 1 -1.1104 12.3117 -1.15634 15.0597
435 1 -1.1104 9.17218 -4.06868 18.1056
437 2 2.2208 8.11828 0.128657 19.3208
438 1 -1.1104 9.34781 -4.13394 15.1119
442 2 2.2208 7.79856 -2.61982 16.4385
444 1 -1.1104 9.36978 -1.37116 17.8446
445 1 -1.1104 9.43807 -1.18192 15
413 2 2.2208 -0.324971 5.81251 22.2842
361 2 2.2208 11.0797 14.353 13.5956
416 2 2.2208 -0.500333 0.260384 16.4547
352 2 2.2208 5.18946 8.85201 13.7771
449 2 2.2208 -0.0881629 14.2136 19.4454
382 1 -1.1104 1.12906 1.75099 17.8509
387 1 -1.1104 0.746736 1.64147 15.0737
396 2 2.2208 5.31222 3.18064 19.2718
402 1 -1.1104 3.85756 1.67056 17.8905
406 1 -1.1104 3.66972 1.73746 15.0191
409 2 2.2208 2.39953 3.20218 16.4454
456 2 2.2208 5.10213 5.86289 16.6774
458 1 -1.1104 0.785087 7.1719 18.1673
464 1 -1.1104 1.04225 4.55063 17.8108
469 1 -1.1104 1.11242 4.55872 14.971
478 2 2.2208 2.41236 5.9085 19.4698
480 1 -1.1104 3.74293 7.4272 15.2492
483 1 -1.1104 3.82419 4.49913 18.0277
485 1 -1.1104 3.75811 4.60462 15.0238
460 1 -1.1104 0.901774 7.39687 15.2219
477 1 -1.1104 3.73872 7.3343 17.9938
342 2 2.2208 -0.242847 14.2344 13.661
459 1 -1.1104 6.4719 7.35609 18.1186
462 1 -1.1104 6.53906 7.28023 15.228
353 2 2.2208 2.51937 11.6419 13.7803
8870 2 2.2208 7.91982 -5.33093 24.8356
384 1 -1.1104 6.59699 1.53493 17.9715
8874 2 2.2208 5.17569 -5.47095 22.0821
473 1 -1.1104 6.7019 4.42624 15.393
391 1 -1.1104 6.59628 1.73784 15.2137
466 1 -1.1104 6.58962 4.6211 17.9691
425 1 -1.1104 12.5239 1.47884 17.7292
428 1 -1.1104 12.3506 1.55982 15.051
432 2 2.2208 10.7102 3.02572 19.4071
436 1 -1.1104 9.54133 1.58351 17.9775
440 1 -1.1104 9.48276 1.53463 14.9996
443 2 2.2208 8.11767 2.96013 16.4103
492 2 2.2208 10.9062 5.88709 16.3894
494 1 -1.1104 12.31 7.4159 17.7213
497 1 -1.1104 12.1777 4.43148 17.9573
500 1 -1.1104 12.3111 4.51877 15.2212
505 2 2.2208 8.06961 5.88328 19.2074
510 1 -1.1104 9.59434 4.50307 17.7604
512 1 -1.1104 9.46771 4.32057 14.9827
495 1 -1.1104 12.3918 7.33377 15.077
504 1 -1.1104 9.42926 7.33619 17.9522
507 1 -1.1104 9.39476 7.32962 15.1664
355 2 2.2208 5.41261 11.263 27.6509
508 1 -1.1104 9.61562 7.20294 20.7673
457 2 2.2208 5.43392 11.6758 16.5954
465 1 -1.1104 1.16023 9.95774 17.8406
468 2 2.2208 5.18898 8.8935 19.5277
471 1 -1.1104 1.16774 10.2139 15.0818
479 2 2.2208 2.5557 11.4179 19.2586
482 2 2.2208 2.54124 8.67853 16.4142
484 1 -1.1104 4.03079 9.96427 17.9801
487 1 -1.1104 4.00051 10.2737 15.1288
520 1 -1.1104 1.23154 12.7792 17.9808
524 1 -1.1104 1.02786 12.9091 15.1323
540 1 -1.1104 3.99519 12.7729 17.8965
543 1 -1.1104 4.08813 12.9291 14.9207
450 2 2.2208 -0.195081 19.854 19.4581
467 1 -1.1104 7.04977 10.4331 17.7623
475 1 -1.1104 6.87471 9.9518 15.1638
347 2 2.2208 7.85114 14.0277 27.7124
613 2 2.2208 -0.4167 5.84076 16.5069
414 2 2.2208 13.6915 8.5945 22.1197
522 1 -1.1104 6.75961 13.0552 17.9054
528 1 -1.1104 6.79807 12.9845 14.9215
493 2 2.2208 11.1105 11.5477 16.4542
498 1 -1.1104 12.6811 10.0965 17.819
499 2 2.2208 11.067 8.57768 19.2245
502 1 -1.1104 12.3099 10.1992 14.8463
506 2 2.2208 8.21123 11.66 19.2272
509 2 2.2208 8.05047 8.60906 16.4537
511 1 -1.1104 9.81453 9.87742 17.8744
514 1 -1.1104 9.57257 10.0877 15.1172
556 1 -1.1104 12.2876 12.8938 17.8657
558 1 -1.1104 12.3479 12.9829 15.1577
567 1 -1.1104 9.29443 12.9162 17.7385
570 1 -1.1104 9.66043 12.6967 14.9338
531 1 -1.1104 6.69352 18.4357 20.5903
571 1 -1.1104 9.72688 12.8083 20.5969
554 1 -1.1104 9.6302 18.688 23.5694
706 1 -1.1104 6.61685 15.5273 26.3147
451 2 2.2208 13.3881 -2.72101 16.5227
547 2 2.2208 2.37806 14.3641 16.6588
534 2 2.2208 5.41315 14.2881 19.3813
519 2 2.2208 5.30277 17.0775 16.4208
521 1 -1.1104 1.25623 18.6035 17.9711
526 1 -1.1104 0.876205 18.6301 14.9542
532 1 -1.1104 1.07444 15.6899 18.0912
535 2 2.2208 5.3797 19.9783 19.3757
536 1 -1.1104 1.01608 15.7138 15.2622
541 1 -1.1104 3.86846 18.3852 17.7489
542 2 2.2208 2.50467 17.1686 19.2734
545 1 -1.1104 3.69172 18.5074 15.0609
548 2 2.2208 2.54163 19.9217 16.5282
549 1 -1.1104 3.96675 15.5469 18.0134
550 1 -1.1104 3.74572 15.5456 15.2625
530 1 -1.1104 6.67566 18.3983 15.0738
454 2 2.2208 11.204 17.0247 22.1384
546 1 -1.1104 3.80712 18.4426 20.7444
374 2 2.2208 5.27236 17.0533 27.8206
415 2 2.2208 13.6737 2.95582 22.1028
341 2 2.2208 4.92829 2.89674 13.6577
611 2 2.2208 13.7121 14.4053 16.5811
533 1 -1.1104 6.88821 15.8286 17.7093
523 1 -1.1104 6.71218 18.5978 17.905
563 2 2.2208 11.0768 14.2701 19.358
574 2 2.2208 8.09853 14.3958 16.2706
538 1 -1.1104 6.6153 15.6672 14.7707
555 2 2.2208 10.9458 17.0039 16.4992
557 1 -1.1104 12.2754 18.5892 17.7544
560 1 -1.1104 12.4294 18.5642 15.0383
562 1 -1.1104 12.1936 15.6982 18.0671
564 2 2.2208 10.8945 20.0034 19.2946
565 1 -1.1104 12.1014 15.6969 15.3266
568 1 -1.1104 9.46383 18.4844 17.9221
569 2 2.2208 8.15971 17.146 19.2864
572 1 -1.1104 9.58552 18.4357 15.0723
575 2 2.2208 8.14979 19.8688 16.4624
576 1 -1.1104 9.54648 15.6751 18.0997
577 1 -1.1104 9.61067 15.6992 14.8953
615 2 2.2208 -0.279697 17.0947 22.2219
566 1 -1.1104 12.5854 15.5998 20.7515
573 1 -1.1104 9.60044 18.6858 20.5765
676 2 2.2208 -0.492678 8.62711 25.0396
580 1 -1.1104 6.74238 18.3587 26.245
612 1 -1.1104 9.42544 15.829 26.1989
398 1 -1.1104 1.20628 -1.21395 20.605
386 1 -1.1104 0.860539 -4.09251 20.6961
412 1 -1.1104 4.12324 -1.02168 20.6501
405 1 -1.1104 3.86838 -3.91626 20.9233
583 2 2.2208 5.31129 0.242848 22.1889
584 1 -1.1104 1.08392 -3.74737 23.8172
588 1 -1.1104 1.00753 -3.86173 26.4583
592 1 -1.1104 1.06176 -0.984405 23.1755
594 2 2.2208 5.10874 -2.47174 24.9677
596 1 -1.1104 1.22742 -1.15222 26.2123
598 1 -1.1104 3.65291 -4.14735 23.5656
600 2 2.2208 2.36492 0.331833 24.8739
601 1 -1.1104 3.79957 -3.95395 26.5237
603 2 2.2208 2.4951 -2.50407 22.001
605 1 -1.1104 3.73621 -1.26387 23.7387
606 1 -1.1104 3.93025 -1.08506 26.5602
597 1 -1.1104 6.79011 -1.25753 26.4993
516 1 -1.1104 12.4146 15.8024 23.3667
616 2 2.2208 -0.487191 -2.67617 24.9247
491 1 -1.1104 12.245 18.7705 26.383
390 1 -1.1104 6.49017 -4.04641 20.6533
446 1 -1.1104 9.43361 -1.4755 20.6103
590 1 -1.1104 6.56199 -4.05079 26.3539
593 1 -1.1104 6.5666 -1.23699 23.6717
427 1 -1.1104 12.0954 -4.3539 20.6773
434 1 -1.1104 12.2453 -1.18133 20.9266
400 1 -1.1104 6.75647 -1.12238 20.8311
439 1 -1.1104 9.26723 -3.96722 20.8753
586 1 -1.1104 6.45394 -3.95898 23.5346
619 2 2.2208 10.5792 0.0790717 22.1404
620 1 -1.1104 12.2483 -4.20375 23.4926
622 1 -1.1104 12.1682 -3.92337 26.3145
624 1 -1.1104 12.213 -1.32461 23.6626
625 2 2.2208 10.9313 -2.65879 24.8986
627 1 -1.1104 12.0933 -1.1422 26.4397
628 1 -1.1104 9.49953 -4.12492 23.6146
630 2 2.2208 8.16636 0.0572021 25.1655
631 1 -1.1104 9.27855 -4.0326 26.4105
633 2 2.2208 7.97218 -2.65872 22.141
635 1 -1.1104 9.255 -1.34205 23.4638
636 1 -1.1104 9.3913 -1.08295 26.7118
354 2 2.2208 8.06406 5.80725 13.8626
481 1 -1.1104 3.95063 7.44415 20.7839
407 1 -1.1104 3.80547 1.75381 20.7312
388 1 -1.1104 1.05174 1.62655 20.8
461 1 -1.1104 1.15954 7.38968 20.7963
470 1 -1.1104 1.11399 4.29556 20.7633
486 1 -1.1104 4.00763 4.49244 20.7683
585 1 -1.1104 0.841105 1.61526 23.771
589 1 -1.1104 0.876153 1.66093 26.5705
595 2 2.2208 5.19418 2.91783 24.9581
599 1 -1.1104 3.74612 1.53996 23.6241
602 1 -1.1104 4.06073 1.75461 26.6215
604 2 2.2208 2.27897 3.06164 22.1709
648 2 2.2208 5.23406 5.94619 22.061
654 1 -1.1104 0.915957 4.44183 23.8315
659 1 -1.1104 1.24891 4.35077 26.5031
664 2 2.2208 2.45254 5.69894 24.9386
666 1 -1.1104 3.75664 7.18719 26.2171
668 1 -1.1104 3.71561 4.2266 23.4207
670 1 -1.1104 4.09542 4.43123 26.3826
652 1 -1.1104 1.00164 7.33877 26.5881
663 1 -1.1104 3.49159 7.0421 23.5399
650 1 -1.1104 0.823555 7.36705 23.6267
474 1 -1.1104 6.57395 4.47891 20.7525
463 1 -1.1104 6.72562 7.32391 21.0145
653 1 -1.1104 6.64969 7.12654 26.7077
591 1 -1.1104 6.95098 1.59112 26.442
651 1 -1.1104 6.6726 7.23186 23.9184
587 1 -1.1104 6.47495 1.77182 23.5899
496 1 -1.1104 12.3374 7.39335 20.6234
392 1 -1.1104 6.5529 1.56845 20.7379
513 1 -1.1104 9.39651 4.35151 20.6604
661 1 -1.1104 6.66307 4.45495 26.4129
441 1 -1.1104 9.33661 1.55206 20.7833
501 1 -1.1104 12.1974 4.43329 20.7309
429 1 -1.1104 12.1286 1.78313 20.7967
656 1 -1.1104 6.55799 4.56937 23.4548
621 1 -1.1104 12.0554 1.62797 23.4953
623 1 -1.1104 12.2583 1.76092 26.6206
626 2 2.2208 10.867 3.13051 24.9981
629 1 -1.1104 9.25657 1.5113 23.8113
632 1 -1.1104 9.54839 1.58906 26.5727
634 2 2.2208 7.91976 2.9916 22.2248
680 1 -1.1104 9.53351 4.38987 26.5208
682 1 -1.1104 9.12524 4.15544 23.8923
686 2 2.2208 8.22714 5.82782 25.1265
687 2 2.2208 10.7869 5.71866 22.1687
691 1 -1.1104 12.1261 4.35807 23.5081
694 1 -1.1104 12.4783 4.30158 26.2803
684 1 -1.1104 9.65266 7.25594 26.6089
690 1 -1.1104 12.4614 7.04387 26.4702
696 1 -1.1104 9.61969 7.03498 23.8111
689 1 -1.1104 12.4082 7.02063 23.389
582 1 -1.1104 9.47487 18.7008 26.5145
472 1 -1.1104 0.667463 10.0744 20.7701
488 1 -1.1104 3.67551 10.1543 20.7346
544 1 -1.1104 3.992 13.0895 20.6949
525 1 -1.1104 1.20689 12.8154 20.8528
649 2 2.2208 5.37224 11.4608 22.3657
655 1 -1.1104 1.16958 10.1876 23.5856
658 2 2.2208 5.15259 8.5084 24.9818
660 1 -1.1104 1.20834 10.0742 26.5435
665 2 2.2208 2.45513 11.6931 24.9945
667 2 2.2208 2.35639 8.76197 22.1548
669 1 -1.1104 3.852 9.91161 23.5837
671 1 -1.1104 3.88116 10.0041 26.5281
673 1 -1.1104 4.04277 12.8844 26.247
698 1 -1.1104 1.0895 13.1119 23.6183
705 1 -1.1104 3.94393 12.8771 23.4375
709 1 -1.1104 0.929241 12.7852 26.5665
529 1 -1.1104 6.79887 12.8574 20.8737
701 1 -1.1104 6.90166 12.7799 23.6449
704 1 -1.1104 6.56711 12.6094 26.2495
476 1 -1.1104 6.68203 10.0951 20.7807
503 1 -1.1104 12.337 10.0925 20.8641
662 1 -1.1104 6.78824 9.82055 26.4095
515 1 -1.1104 9.50157 10.0152 20.7222
559 1 -1.1104 12.5166 12.9193 20.9534
657 1 -1.1104 6.84506 10.0368 23.4454
455 1 -1.1104 12.2696 12.7088 23.6608
490 1 -1.1104 12.2631 12.9025 26.4577
679 1 -1.1104 9.62914 9.99501 26.188
681 1 -1.1104 9.71492 9.73553 23.5449
683 2 2.2208 8.31469 8.59829 22.0713
685 2 2.2208 8.35177 11.3881 24.9084
688 2 2.2208 10.9736 11.4208 22.1675
692 1 -1.1104 12.5084 10.0074 23.6332
693 2 2.2208 11.0329 8.45063 24.9235
695 1 -1.1104 12.2996 9.87014 26.2907
581 1 -1.1104 9.48645 12.7282 26.32
553 1 -1.1104 9.53193 12.6525 23.3743
517 2 2.2208 10.8349 14.1542 24.792
561 1 -1.1104 12.4794 18.5593 20.815
420 2 2.2208 13.5005 0.121255 19.5032
551 1 -1.1104 4.07102 15.7717 20.7237
539 1 -1.1104 6.91809 15.6433 20.6259
710 1 -1.1104 6.86826 18.5895 23.5628
712 2 2.2208 5.31475 14.5211 24.7723
537 1 -1.1104 1.22021 15.7695 20.743
527 1 -1.1104 1.16603 18.7123 20.8717
711 2 2.2208 5.26424 19.9512 24.966
708 1 -1.1104 1.15521 15.6498 26.3447
707 1 -1.1104 1.09412 18.6096 26.456
639 2 2.2208 2.45813 14.407 22.1759
641 2 2.2208 2.56561 20.0759 22.2358
644 1 -1.1104 3.79121 15.8019 23.5444
647 1 -1.1104 0.879486 15.7884 23.671
674 1 -1.1104 3.87488 15.8336 26.1538
675 2 2.2208 2.41774 17.1731 24.9638
678 1 -1.1104 3.95783 18.5246 26.4557
697 2 2.2208 5.253 17.3294 22.0811
699 1 -1.1104 1.28617 18.5334 23.8103
703 1 -1.1104 4.05852 18.7207 23.5683
672 1 -1.1104 6.66006 16.0105 23.4093
609 1 -1.1104 9.55452 15.4932 23.5867
579 2 2.2208 8.10724 17.1333 24.9899
607 2 2.2208 8.17876 14.4416 22.0845
608 2 2.2208 8.17536 19.9632 22.0998
552 1 -1.1104 12.3744 15.6102 26.0045
489 1 -1.1104 12.4358 18.5426 23.7413
578 1 -1.1104 9.58572 15.7892 20.8407
518 2 2.2208 10.9754 19.9238 24.8761
677 2 2.2208 -0.479878 11.4126 22.0023
645 2 2.2208 13.6085 -2.70996 22.2456
377 2 2.2208 13.5751 -2.51446 27.7345
362 2 2.2208 8.2332 17.0971 13.7049
360 2 2.2208 11.134 19.9833 13.6086
372 2 2.2208 7.96004 3.17778 27.6996
357 2 2.2208 2.61488 17.0069 13.7639
348 2 2.2208 10.8077 17.2072 27.6355
719 2 2.2208 5.17782 22.7871 5.1101
721 1 -1.1104 0.868953 24.1321 0.864012
722 1 -1.1104 1.1715 24.4561 3.48361
723 1 -1.1104 1.05176 21.2431 1.23521
725 2 2.2208 5.30121 25.6397 2.4426
726 1 -1.1104 0.994173 21.5902 4.04108
728 1 -1.1104 3.55045 24.3928 0.823036
729 2 2.2208 2.40345 22.7909 2.45879
731 1 -1.1104 3.94297 24.4085 3.87932
732 2 2.2208 2.43797 25.5929 5.14169
733 1 -1.1104 3.99626 21.5373 1.1474
735 1 -1.1104 3.85681 21.4242 3.79449
727 1 -1.1104 0.921578 27.3368 3.70084
724 1 -1.1104 0.830739 26.8987 0.969842
734 1 -1.1104 3.63187 27.046 0.978107
736 1 -1.1104 3.7887 27.1257 3.76669
740 1 -1.1104 6.5921 24.0512 0.696875
743 1 -1.1104 6.47157 27.1407 1.05264
745 1 -1.1104 6.55203 26.9784 3.66622
1004 2 2.2208 2.45178 42.6704 -0.362017
867 1 -1.1104 3.74068 21.2591 6.52177
862 1 -1.1104 0.916482 21.3051 6.71009
866 1 -1.1104 3.79419 24.0508 6.68822
860 1 -1.1104 1.07475 24.3487 6.50196
861 1 -1.1104 6.53649 24.0411 6.58754
865 1 -1.1104 6.29016 27.021 6.43132
868 1 -1.1104 3.73894 26.9505 6.49586
742 1 -1.1104 6.88133 21.3329 0.925531
744 1 -1.1104 6.58654 21.5164 3.76283
1069 2 2.2208 5.12113 28.3811 -0.320747
1393 2 2.2208 10.876 34.1183 -0.427244
741 1 -1.1104 6.62267 24.1577 3.51762
746 2 2.2208 10.8947 22.551 5.05729
748 1 -1.1104 12.4239 24.121 0.781925
749 1 -1.1104 12.1667 24.0333 3.38878
750 1 -1.1104 12.4754 21.2156 0.814006
752 2 2.2208 10.7803 25.6777 2.3046
753 1 -1.1104 12.1137 21.1034 3.87385
755 1 -1.1104 9.54162 24.4556 0.797959
756 2 2.2208 8.04915 22.8885 2.19394
758 1 -1.1104 9.31299 24.3393 3.759
759 2 2.2208 7.76347 25.3365 5.2728
760 1 -1.1104 9.74148 21.6779 1.04331
762 1 -1.1104 9.24703 21.2791 3.76099
763 1 -1.1104 9.6255 27.1887 3.78558
761 1 -1.1104 9.34853 27.1155 0.829347
754 1 -1.1104 12.313 27.0591 3.77664
751 1 -1.1104 12.3657 26.8957 1.05413
896 1 -1.1104 9.45584 23.9143 6.65169
893 1 -1.1104 12.0266 23.977 6.44674
894 1 -1.1104 12.2117 21.4472 6.68552
720 2 2.2208 4.98658 28.5846 5.16597
730 2 2.2208 2.43855 28.4669 2.31159
768 1 -1.1104 0.802168 30.0879 1.01519
771 1 -1.1104 0.908634 30.1093 3.63283
774 1 -1.1104 1.02313 32.8023 0.948631
775 2 2.2208 5.10529 31.2377 2.21872
777 1 -1.1104 1.06527 32.9675 3.75303
779 1 -1.1104 3.64187 29.8105 0.750882
782 1 -1.1104 3.58999 29.7597 3.77639
784 2 2.2208 2.23869 31.2663 5.11885
786 1 -1.1104 3.80664 32.7011 0.854243
787 1 -1.1104 3.95137 32.706 3.55888
922 1 -1.1104 6.55921 32.8608 6.70826
792 1 -1.1104 6.46248 29.9847 3.93489
925 1 -1.1104 3.67567 32.6036 6.41341
917 1 -1.1104 1.03163 29.8329 6.52862
921 1 -1.1104 1.03136 32.8827 6.48156
919 1 -1.1104 6.42628 29.9398 6.55245
1003 2 2.2208 8.14036 36.959 -0.323092
790 2 2.2208 -0.427384 36.9728 2.37562
791 1 -1.1104 6.50971 29.879 1.15616
778 1 -1.1104 6.58981 32.72 3.64973
793 1 -1.1104 6.68319 32.7304 1.04548
747 2 2.2208 10.7977 28.5845 5.18132
757 2 2.2208 7.95196 28.5087 2.5865
795 1 -1.1104 12.1191 29.8253 0.984593
797 1 -1.1104 11.9917 30.0893 3.71472
799 1 -1.1104 12.1499 32.6882 0.828187
800 2 2.2208 10.6741 31.3946 2.3005
802 1 -1.1104 12.1771 32.7364 3.75756
803 1 -1.1104 9.23484 30.0047 1.04964
806 1 -1.1104 9.36571 29.9161 3.84863
808 2 2.2208 8.16878 31.3646 5.17142
810 1 -1.1104 9.35406 32.7307 0.762254
811 1 -1.1104 9.28568 32.7388 3.76309
951 1 -1.1104 12.1099 29.5673 6.71707
1068 2 2.2208 2.15258 25.615 -0.534322
953 1 -1.1104 12.4428 32.2469 7.0012
954 1 -1.1104 9.44504 29.9289 6.45598
10152 2 2.2208 -0.316314 39.8334 5.15323
1595 1 -1.1104 3.90419 46.8861 6.54907
1137 2 2.2208 13.4668 37.1231 -0.424063
767 2 2.2208 5.25017 34.1026 5.24759
769 1 -1.1104 1.08627 35.609 1.23828
772 1 -1.1104 0.908672 35.7641 3.92594
776 2 2.2208 5.25467 36.8408 2.42267
780 1 -1.1104 3.80516 35.4599 0.985063
781 2 2.2208 2.3974 34.3305 2.4979
783 1 -1.1104 3.8712 35.4251 3.8926
785 2 2.2208 2.39538 36.9451 5.44215
813 2 2.2208 5.37035 39.9027 5.44267
819 1 -1.1104 1.00741 38.4074 1.04508
824 1 -1.1104 0.983994 38.4656 3.65496
829 2 2.2208 2.43075 39.6868 2.49096
833 1 -1.1104 4.01523 38.263 1.2027
835 1 -1.1104 3.88597 38.195 4.03121
991 1 -1.1104 3.87373 38.4237 6.66451
987 1 -1.1104 6.61796 38.4018 6.96542
821 1 -1.1104 6.65544 38.005 1.1453
770 1 -1.1104 6.53658 35.532 0.639508
773 1 -1.1104 6.6114 35.4466 3.92602