ITEM: TIMESTEP
50000
ITEM: NUMBER OF ATOMS
17700
ITEM: BOX BOUNDS pp pp pp
-4.3426559343700066e-01 2.7774265593437480e+01
-5.3655177680755326e+00 3.3344551776806958e+02
-4.2221622386506125e-01 2.7762216223865277e+01
ITEM: ATOMS id type q x y z
1 2 2.2208 5.2771 0.201146 5.26432
2 1 -1.1104 0.795298 -3.86127 0.808028
6 1 -1.1104 0.747205 -4.42362 3.60696
10 1 -1.1104 1.25419 -1.30611 0.981341
12 2 2.2208 5.04852 -2.6558 2.60739
14 1 -1.1104 1.05503 -1.17386 3.70761
16 1 -1.1104 3.66896 -3.99762 1.00935
18 2 2.2208 2.36553 0.120072 2.36115
19 1 -1.1104 3.57619 -4.0656 3.9503
21 2 2.2208 2.31555 -2.5135 5.32261
23 1 -1.1104 3.99515 -1.17289 0.934107
24 1 -1.1104 3.87027 -1.13681 3.94841
170 1 -1.1104 0.749705 -1.31253 6.46692
4 1 -1.1104 6.32564 -4.37588 1.53838
8825 2 2.2208 5.13695 -5.30805 11.0445
27 2 2.2208 -0.371888 3.08419 2.26025
17372 2 2.2208 13.6307 -5.38105 8.0633
358 2 2.2208 5.39322 19.7925 13.5697
174 1 -1.1104 3.64523 -1.09849 6.76492
172 1 -1.1104 3.88444 -3.91033 6.97119
15 1 -1.1104 6.64499 -1.23237 3.79234
8 1 -1.1104 6.53731 -4.10228 4.10068
11 1 -1.1104 6.67469 -1.59333 1.22741
31 2 2.2208 10.6821 0.200606 5.29679
32 1 -1.1104 12.5168 -3.90855 0.938787
34 1 -1.1104 12.3847 -3.89759 3.92845
36 1 -1.1104 12.2663 -1.27742 1.05649
37 2 2.2208 10.9339 -2.63212 2.33393
39 1 -1.1104 12.2632 -1.04479 3.9384
40 1 -1.1104 9.44289 -4.16985 0.682952
42 2 2.2208 8.07194 0.0992186 2.45819
43 1 -1.1104 9.57844 -4.14777 3.48384
45 2 2.2208 7.92115 -2.56103 5.32162
47 1 -1.1104 9.46484 -1.40093 1.233
48 1 -1.1104 9.61266 -1.44089 4.03621
208 1 -1.1104 9.28037 -3.90096 6.55084
360 2 2.2208 10.8609 20.1287 13.4864
376 2 2.2208 2.40548 8.83217 -0.245344
334 2 2.2208 10.9378 11.4877 -0.39738
8828 2 2.2208 10.7382 -5.34555 10.8833
205 1 -1.1104 12.4346 -4.1198 6.48195
207 1 -1.1104 12.1985 -1.04472 6.65579
168 1 -1.1104 6.66797 -4.14521 6.83914
203 2 2.2208 13.6558 3.03664 10.8762
336 2 2.2208 8.06751 8.62217 -0.398244
3 1 -1.1104 0.905282 1.654 1.04432
7 1 -1.1104 0.887528 1.51654 3.76796
13 2 2.2208 5.1879 3.05884 2.52367
17 1 -1.1104 3.86381 1.63096 0.946419
20 1 -1.1104 3.88625 1.58742 3.85352
22 2 2.2208 2.15289 2.86139 5.2238
54 2 2.2208 5.07265 5.75345 5.13557
60 1 -1.1104 0.870058 4.28453 0.930078
67 1 -1.1104 0.94188 4.37194 3.54558
72 2 2.2208 2.31588 5.79927 2.44659
76 1 -1.1104 3.78326 4.33073 1.01649
79 1 -1.1104 3.89254 4.28196 3.93441
58 1 -1.1104 0.894443 7.17663 3.92984
74 1 -1.1104 3.81452 7.02636 3.76024
71 1 -1.1104 3.78192 7.30752 0.964899
56 1 -1.1104 0.879311 7.20321 1.13613
238 1 -1.1104 3.85549 7.2903 6.51679
173 1 -1.1104 3.81508 1.5472 6.44396
59 1 -1.1104 6.3312 7.22921 3.96999
57 1 -1.1104 6.87385 7.29916 1.26486
63 1 -1.1104 6.55295 4.11545 1.0062
237 1 -1.1104 6.41885 4.44429 6.71441
313 2 2.2208 -0.337761 14.2445 7.9086
340 2 2.2208 10.6387 5.89743 -0.276152
69 1 -1.1104 6.61299 4.26944 3.84032
5 1 -1.1104 6.6871 1.24699 1.02286
9 1 -1.1104 6.65267 1.39752 3.92658
33 1 -1.1104 12.2752 1.7978 0.984492
35 1 -1.1104 12.1633 1.79916 3.91206
38 2 2.2208 10.7577 3.00793 2.40906
41 1 -1.1104 9.40809 1.61302 0.981328
44 1 -1.1104 9.43879 1.49079 3.75012
46 2 2.2208 7.86329 3.00699 5.28089
84 2 2.2208 10.7669 5.84409 5.35267
86 1 -1.1104 12.4596 7.21559 0.968513
88 1 -1.1104 11.9587 4.39063 0.772326
92 1 -1.1104 11.9727 4.45369 3.97742
95 2 2.2208 7.96336 5.7371 2.5686
99 1 -1.1104 9.30091 4.50296 1.03565
102 1 -1.1104 9.26742 4.33289 4.01766
94 1 -1.1104 9.44298 7.24029 1.11794
87 1 -1.1104 12.222 7.27096 3.81561
209 1 -1.1104 9.05137 1.86931 6.83028
97 1 -1.1104 9.27881 7.29694 3.81405
713 2 2.2208 13.5039 5.6459 13.6422
235 1 -1.1104 6.67735 7.23842 6.7304
169 1 -1.1104 6.43069 1.61483 6.75429
265 1 -1.1104 12.3393 7.23256 6.61448
8824 2 2.2208 2.3507 -5.25324 8.07597
234 1 -1.1104 1.0624 7.46973 6.72011
55 2 2.2208 5.36837 11.4585 5.06858
61 1 -1.1104 1.01163 10.1864 0.95963
66 2 2.2208 5.33457 8.53453 2.43116
68 1 -1.1104 0.886114 9.95568 3.82466
73 2 2.2208 2.36481 11.4144 2.53328
75 2 2.2208 2.28532 8.68547 5.26999
77 1 -1.1104 3.86528 10.0057 1.14749
80 1 -1.1104 3.60668 10.2309 3.91631
107 1 -1.1104 0.87337 13.1549 1.08857
113 1 -1.1104 1.08188 12.9233 3.85203
123 1 -1.1104 3.81945 12.958 1.24202
128 1 -1.1104 3.91265 12.9292 3.76078
110 1 -1.1104 6.61748 12.8729 0.856544
124 1 -1.1104 3.93371 12.7835 6.692
64 1 -1.1104 6.63822 10.0954 1.12425
115 1 -1.1104 6.84906 12.9018 3.71108
70 1 -1.1104 6.71472 9.98455 3.69302
311 2 2.2208 -0.241383 20.0509 8.06879
30 2 2.2208 -0.362716 8.83348 8.05393
312 2 2.2208 -0.321971 17.1486 10.6172
363 2 2.2208 13.6993 17.1514 13.5089
28 2 2.2208 13.66 19.9732 10.6846
85 2 2.2208 10.9852 11.3904 5.39428
89 1 -1.1104 12.2362 10.0079 1.17311
91 2 2.2208 10.7454 8.81586 2.2661
93 1 -1.1104 12.1736 9.96493 4.21531
96 2 2.2208 8.1302 11.5648 2.32848
98 2 2.2208 8.06425 8.65318 5.2863
100 1 -1.1104 9.3689 10.1868 0.915264
103 1 -1.1104 9.36847 10.0841 3.84593
142 1 -1.1104 12.3659 12.6608 1.02021
146 1 -1.1104 12.4396 12.8599 3.81731
153 1 -1.1104 9.34314 12.8681 0.909408
158 1 -1.1104 9.71088 12.837 3.7748
65 1 -1.1104 6.64706 10.0014 6.66892
361 2 2.2208 10.8983 14.2709 13.577
143 1 -1.1104 12.2986 12.8024 6.56222
154 1 -1.1104 9.58034 12.8573 6.52482
101 1 -1.1104 9.31577 10.1376 6.79147
233 2 2.2208 13.5972 2.96993 5.11049
355 2 2.2208 5.05286 11.5282 -0.307873
356 2 2.2208 8.07718 11.4409 13.5724
362 2 2.2208 8.03255 16.9504 13.5872
130 2 2.2208 2.51435 14.2249 5.30427
119 2 2.2208 5.13562 14.3691 2.46645
106 2 2.2208 5.46166 17.0956 5.13972
109 1 -1.1104 1.16736 18.6516 0.793187
114 1 -1.1104 0.842444 18.5296 3.75379
116 1 -1.1104 1.12818 15.9118 0.790348
120 2 2.2208 5.46314 19.8391 2.14937
121 1 -1.1104 0.84647 15.6125 3.73198
125 1 -1.1104 4.03135 18.683 0.873615
127 2 2.2208 2.40933 17.1771 2.23283
129 1 -1.1104 3.85264 18.2657 3.47956
131 2 2.2208 2.30347 19.9138 5.04696
132 1 -1.1104 3.72565 15.7389 1.06747
134 1 -1.1104 3.92475 15.6367 4.06608
122 1 -1.1104 6.78573 15.702 3.8854
139 1 -1.1104 6.78269 18.4175 3.72758
9494 2 2.2208 13.2349 -2.54504 10.8898
126 1 -1.1104 3.7324 18.3287 6.32515
136 2 2.2208 -0.233535 19.9806 2.41862
372 2 2.2208 7.98747 2.85156 -0.305077
138 1 -1.1104 6.88689 18.4661 0.803157
140 1 -1.1104 6.63275 15.8236 1.07199
160 2 2.2208 8.07993 14.0967 5.33366
150 2 2.2208 11.06 14.2302 2.522
141 2 2.2208 11.0023 17.0667 5.26823
144 1 -1.1104 12.3477 18.6403 0.87665
147 1 -1.1104 12.4768 18.6751 3.81901
148 1 -1.1104 12.3245 15.5988 0.915105
151 2 2.2208 10.8735 19.8797 2.31192
152 1 -1.1104 12.3668 15.7668 3.61354
155 1 -1.1104 9.64682 18.7506 0.985677
157 2 2.2208 8.1909 17.0907 2.4636
159 1 -1.1104 9.62271 18.5866 3.68246
161 2 2.2208 8.10764 19.9212 5.21916
162 1 -1.1104 9.60283 15.681 0.838577
164 1 -1.1104 9.6694 15.6781 3.82467
163 1 -1.1104 9.69852 15.5259 6.62328
149 1 -1.1104 12.3779 15.6528 6.46901
320 2 2.2208 8.10597 17.1318 8.1299
315 1 -1.1104 9.49833 15.6892 12.2652
137 2 2.2208 -0.451686 16.9598 5.14473
166 1 -1.1104 0.995442 -3.9341 6.69488
175 2 2.2208 5.11179 0.315098 10.8841
176 1 -1.1104 0.729542 -3.94004 12.3657
180 1 -1.1104 0.803152 -3.70576 9.40055
184 1 -1.1104 0.942444 -1.21265 12.259
186 2 2.2208 5.14606 -2.63695 8.20781
188 1 -1.1104 0.775082 -1.07334 9.45047
190 1 -1.1104 3.60348 -4.03709 12.5375
192 2 2.2208 2.23349 0.288847 7.98908
193 1 -1.1104 3.74406 -4.11721 9.76543
195 2 2.2208 2.22853 -2.72193 10.8996
197 1 -1.1104 3.67783 -1.3145 12.4228
198 1 -1.1104 3.73888 -1.11401 9.42941
178 1 -1.1104 6.47534 -4.08919 12.6825
185 1 -1.1104 6.66049 -1.29761 12.5133
189 1 -1.1104 6.59396 -1.12745 9.56916
182 1 -1.1104 6.51224 -3.97198 9.8963
324 2 2.2208 10.9173 20.0842 7.98726
325 2 2.2208 11.0311 14.1026 8.2196
326 1 -1.1104 12.1563 15.7312 12.1607
296 1 -1.1104 6.76532 18.4729 12.0999
333 2 2.2208 13.6094 14.4511 11.0037
289 1 -1.1104 6.62583 15.7052 9.39736
171 1 -1.1104 6.4824 -1.1002 6.84303
210 1 -1.1104 9.28587 -1.16003 6.6422
211 2 2.2208 10.6857 0.289919 10.7864
212 1 -1.1104 12.1157 -4.02008 12.4652
214 1 -1.1104 12.3023 -4.18072 9.65935
216 1 -1.1104 12.194 -1.23961 12.2967
217 2 2.2208 10.7462 -2.48608 7.81098
219 1 -1.1104 12.133 -1.37187 9.36371
220 1 -1.1104 9.27085 -3.98684 12.3934
222 2 2.2208 7.92589 0.288858 8.14513
223 1 -1.1104 9.34058 -3.99589 9.51142
225 2 2.2208 7.99331 -2.59707 10.7948
227 1 -1.1104 9.34669 -1.07376 12.0852
228 1 -1.1104 9.4052 -1.20992 9.36793
53 2 2.2208 13.6123 11.5029 7.97161
306 1 -1.1104 6.66864 15.7235 12.18
236 1 -1.1104 0.646882 4.62906 6.44903
167 1 -1.1104 0.974008 1.53583 6.58595
239 1 -1.1104 3.40785 4.38562 6.55316
177 1 -1.1104 0.755839 1.55712 12.1602
181 1 -1.1104 1.00923 1.65081 9.23179
187 2 2.2208 5.02554 3.1179 8.00805
191 1 -1.1104 3.68002 1.75311 12.3569
194 1 -1.1104 3.77685 1.65486 9.47624
196 2 2.2208 2.43775 2.96868 10.8204
240 2 2.2208 5.0652 5.82919 10.7485
246 1 -1.1104 0.945019 4.48232 12.1653
251 1 -1.1104 0.883879 4.48621 9.3762
255 1 -1.1104 3.86022 7.07187 12.3365
256 2 2.2208 2.32418 5.93552 7.97805
258 1 -1.1104 3.66931 7.37236 9.27004
260 1 -1.1104 3.68434 4.37451 12.0921
262 1 -1.1104 3.79952 4.5566 9.39216
244 1 -1.1104 0.824309 7.24201 9.40689
242 1 -1.1104 0.934934 7.20975 12.3732
243 1 -1.1104 6.78341 7.0871 12.1442
179 1 -1.1104 6.43741 1.49584 12.6305
183 1 -1.1104 6.56927 1.64509 9.71935
248 1 -1.1104 6.42611 4.35431 12.7067
316 2 2.2208 7.99314 20.0157 10.7997
288 1 -1.1104 6.61971 18.6993 9.19
266 1 -1.1104 12.0915 4.5389 6.86997
245 1 -1.1104 6.39737 6.96039 9.41238
253 1 -1.1104 6.52329 4.34407 9.70128
206 1 -1.1104 11.8795 1.66762 6.48873
269 1 -1.1104 9.22425 4.37325 6.71424
213 1 -1.1104 12.2145 1.47339 12.2603
215 1 -1.1104 12.0885 1.59079 9.45228
218 2 2.2208 10.7081 3.02157 8.10147
221 1 -1.1104 9.38302 1.76643 12.1981
224 1 -1.1104 9.34082 1.5151 9.5369
226 2 2.2208 7.97256 3.13621 11.0705
268 1 -1.1104 9.40199 4.3727 9.62099
271 1 -1.1104 9.51176 4.76862 12.5374
275 2 2.2208 7.84542 5.64816 8.0163
276 2 2.2208 10.8721 5.9236 10.8864
278 1 -1.1104 12.5519 7.25213 12.4092
279 1 -1.1104 12.1491 7.14822 9.59274
280 1 -1.1104 12.1633 4.33555 12.1876
283 1 -1.1104 12.2243 4.47881 9.37669
285 1 -1.1104 9.52102 7.38707 12.3737
108 1 -1.1104 1.29718 12.9769 6.78832
62 1 -1.1104 1.12901 10.1687 6.66082
78 1 -1.1104 3.92525 10.0263 6.71356
241 2 2.2208 5.25893 11.491 11.0773
247 1 -1.1104 0.818054 10.124 12.1062
250 2 2.2208 5.41043 8.63235 7.97718
252 1 -1.1104 0.86509 10.0789 9.50406
257 2 2.2208 2.28278 11.4484 8.11089
259 2 2.2208 2.3445 8.67172 10.9498
261 1 -1.1104 3.62515 10.0183 12.3366
263 1 -1.1104 3.66615 10.1345 9.71709
305 1 -1.1104 3.78897 12.8382 9.49736
299 1 -1.1104 0.853198 12.9841 12.3342
294 1 -1.1104 0.737618 12.9633 9.49328
287 1 -1.1104 3.70095 12.8406 12.3235
297 1 -1.1104 6.62966 12.9207 12.3427
290 1 -1.1104 6.59 12.7448 9.40641
267 1 -1.1104 9.45973 7.29782 6.65864
111 1 -1.1104 6.67772 12.8339 6.66801
273 1 -1.1104 9.38204 7.13852 9.44813
254 1 -1.1104 6.60791 9.72574 9.50846
249 1 -1.1104 6.53842 10.2073 12.3663
90 1 -1.1104 12.2594 10.1647 6.74772
264 1 -1.1104 9.44002 9.8724 9.56976
270 1 -1.1104 9.56542 10.0279 12.2118
272 2 2.2208 8.20151 8.53226 10.8072
274 2 2.2208 8.07068 11.4534 7.99226
277 2 2.2208 10.9126 11.4462 10.7515
281 1 -1.1104 12.3478 10.156 12.3567
282 2 2.2208 10.8626 8.63785 8.21258
284 1 -1.1104 12.2378 10.0187 9.40632
330 1 -1.1104 12.3449 12.9586 12.4407
328 1 -1.1104 12.4314 12.7842 9.47321
322 1 -1.1104 9.71273 13.0384 12.0022
319 1 -1.1104 9.408 12.8992 9.3703
229 2 2.2208 13.6722 0.246291 7.96625
117 1 -1.1104 0.96892 15.7851 6.71496
133 1 -1.1104 3.76122 15.6412 6.67929
327 1 -1.1104 12.3105 18.6851 9.27683
317 2 2.2208 8.0241 14.3429 10.8618
302 1 -1.1104 0.921703 18.6427 6.64651
310 2 2.2208 2.34753 14.296 10.727
286 1 -1.1104 4.05164 18.4456 12.1795
304 1 -1.1104 3.77269 15.7224 9.33475
293 2 2.2208 5.42335 19.875 7.89355
292 1 -1.1104 1.16436 15.7564 9.33453
291 1 -1.1104 0.885586 18.6329 9.15216
307 1 -1.1104 1.06784 15.8407 12.002
303 2 2.2208 2.36702 17.242 8.01628
301 1 -1.1104 3.80382 18.4267 9.44017
300 2 2.2208 5.06135 17.099 10.722
295 2 2.2208 5.20445 14.2251 8.08993
298 1 -1.1104 1.21856 18.535 12.1476
309 2 2.2208 2.32164 19.997 10.73
308 1 -1.1104 3.87611 15.7022 12.3734
25 2 2.2208 -0.422243 -2.85138 2.36913
321 1 -1.1104 9.53452 18.696 12.173
318 1 -1.1104 9.25728 18.5183 9.45265
314 1 -1.1104 9.48782 15.8406 9.68573
145 1 -1.1104 12.4555 18.4927 6.49408
156 1 -1.1104 9.40356 18.4647 6.70525
118 1 -1.1104 6.75335 15.7682 6.69525
329 1 -1.1104 12.3771 18.5035 12.1195
323 1 -1.1104 12.3082 15.7052 9.3298
331 2 2.2208 10.8848 17.2079 10.7989
112 1 -1.1104 6.63834 18.5857 6.43553
369 2 2.2208 10.921 0.226762 -0.238998
374 2 2.2208 5.30354 17.1612 -0.379149
370 2 2.2208 8.13189 -2.56302 -0.393498
380 2 2.2208 5.2156 0.249554 16.5132
381 1 -1.1104 0.672411 -3.90392 18.0506
385 1 -1.1104 0.929323 -3.87913 15.1806
393 1 -1.1104 0.76243 -0.966019 18.0343
395 2 2.2208 5.12491 -2.57474 19.1609
397 1 -1.1104 0.84865 -1.13897 15.2097
401 1 -1.1104 3.60478 -3.8736 18.1125
403 2 2.2208 2.24193 0.391008 19.315
404 1 -1.1104 3.83861 -3.79902 15.3649
408 2 2.2208 2.26912 -2.54858 16.6723
410 1 -1.1104 3.51172 -1.11091 17.8819
411 1 -1.1104 3.63879 -1.17782 15.1309
389 1 -1.1104 6.60944 -4.09583 15.2228
375 2 2.2208 2.46397 19.9892 27.6227
412 1 -1.1104 3.88146 -1.21124 20.5232
717 2 2.2208 10.9265 8.75382 13.8677
398 1 -1.1104 0.940335 -0.970206 20.6807
386 1 -1.1104 1.20688 -3.85572 20.6812
715 2 2.2208 10.8858 -2.58375 13.6369
448 2 2.2208 -0.416847 17.1917 16.4534
348 2 2.2208 11.1626 17.1915 27.6008
349 2 2.2208 8.13099 19.9885 27.6437
399 1 -1.1104 6.7233 -1.31737 15.2709
394 1 -1.1104 6.51124 -1.0422 18.1493
413 2 2.2208 -0.329739 5.81083 22.2856
383 1 -1.1104 6.44418 -3.84202 17.9582
423 2 2.2208 10.8737 0.253845 16.6546
424 1 -1.1104 12.478 -3.9643 17.8545
426 1 -1.1104 12.3322 -3.89882 15.09
430 1 -1.1104 12.3292 -1.10503 17.9171
431 2 2.2208 10.9703 -2.51947 19.2607
433 1 -1.1104 12.3294 -1.15373 15.366
435 1 -1.1104 9.72731 -3.72264 17.7152
437 2 2.2208 8.08904 0.214528 19.4042
438 1 -1.1104 9.58627 -3.97259 15.0873
442 2 2.2208 8.16964 -2.52604 16.3884
444 1 -1.1104 9.45074 -1.18499 17.9546
445 1 -1.1104 9.42027 -1.31404 14.9792
400 1 -1.1104 6.67483 -1.2718 20.8115
8910 2 2.2208 10.9774 -5.17464 16.5179
449 2 2.2208 -0.401699 14.2347 19.2247
338 2 2.2208 5.25808 -2.59417 13.8711
439 1 -1.1104 9.36127 -4.13024 20.531
434 1 -1.1104 12.4488 -1.13275 20.8452
339 2 2.2208 2.30802 -0.0267003 13.6161
382 1 -1.1104 0.966217 1.76247 17.9885
387 1 -1.1104 0.954382 1.50925 15.0639
396 2 2.2208 5.11535 3.13753 19.4
402 1 -1.1104 3.73953 1.80618 17.9045
406 1 -1.1104 3.72524 1.57158 15.065
409 2 2.2208 2.31708 2.98345 16.5689
456 2 2.2208 5.18804 5.73901 16.3758
458 1 -1.1104 0.920137 7.58869 17.9432
464 1 -1.1104 0.90147 4.57894 17.9392
469 1 -1.1104 0.925745 4.35004 15.0828
477 1 -1.1104 3.83357 7.35573 17.9979
478 2 2.2208 2.33232 5.98102 19.1336
480 1 -1.1104 3.66036 7.18454 15.0616
483 1 -1.1104 3.80443 4.67072 17.8414
485 1 -1.1104 3.82433 4.40674 14.9714
460 1 -1.1104 0.906889 7.13586 14.9885
407 1 -1.1104 3.71436 1.65433 20.598
462 1 -1.1104 6.46344 7.25232 15.154
391 1 -1.1104 6.73065 1.53858 15.2862
461 1 -1.1104 1.08391 7.28125 20.7208
365 2 2.2208 2.30679 -2.69173 27.6337
473 1 -1.1104 6.58929 4.27344 15.2707
388 1 -1.1104 0.976145 1.79005 20.7466
486 1 -1.1104 3.78409 4.38387 20.8234
470 1 -1.1104 0.883687 4.69809 20.6559
384 1 -1.1104 6.45363 1.62645 17.9569
466 1 -1.1104 6.62504 4.60588 18.024
459 1 -1.1104 6.36056 7.68253 17.8007
425 1 -1.1104 12.1729 1.67097 17.8349
428 1 -1.1104 12.3536 1.64514 15.088
432 2 2.2208 10.7632 3.11499 19.2863
436 1 -1.1104 9.2861 1.66418 17.9549
440 1 -1.1104 9.41001 1.47667 15.1521
443 2 2.2208 7.98038 3.0751 16.6702
492 2 2.2208 10.7136 5.90208 16.4153
494 1 -1.1104 12.3059 7.19969 18.0002
497 1 -1.1104 12.2733 4.54682 17.8146
500 1 -1.1104 12.2314 4.46538 14.9566
504 1 -1.1104 9.44204 7.34393 18.0446
505 2 2.2208 8.0245 6.04859 19.2662
510 1 -1.1104 9.36277 4.4685 17.9729
512 1 -1.1104 9.38849 4.25816 15.2215
507 1 -1.1104 9.39558 7.24131 15.2489
495 1 -1.1104 12.0203 7.20948 15.1164
474 1 -1.1104 6.6367 4.61009 20.7833
531 1 -1.1104 6.68501 18.5447 20.6514
638 2 2.2208 -0.346881 14.3367 24.9897
676 2 2.2208 -0.409867 8.59611 24.9814
392 1 -1.1104 6.49742 1.8349 20.7341
8939 2 2.2208 2.43417 -5.30917 19.292
457 2 2.2208 5.15549 11.3537 16.4201
465 1 -1.1104 0.949325 10.4906 17.9435
468 2 2.2208 5.15632 8.81096 19.3293
471 1 -1.1104 1.02608 10.0728 15.1603
479 2 2.2208 2.43695 11.7574 19.4194
482 2 2.2208 2.27439 8.74129 16.5831
484 1 -1.1104 3.71714 10.2731 17.8405
487 1 -1.1104 3.59717 10.0884 15.0357
520 1 -1.1104 1.2154 13.1454 18.0617
524 1 -1.1104 1.10965 12.9886 15.2916
540 1 -1.1104 3.84103 13.1012 18.0918
543 1 -1.1104 3.8287 12.6993 15.126
522 1 -1.1104 6.59443 12.9705 17.7949
475 1 -1.1104 6.48256 10.1329 15.0735
616 2 2.2208 -0.270803 -2.51953 24.8413
450 2 2.2208 -0.355538 19.8156 19.2337
615 2 2.2208 -0.378861 17.1471 22.0998
422 2 2.2208 13.5142 14.5928 21.955
354 2 2.2208 8.0317 5.82729 13.721
467 1 -1.1104 6.573 10.1285 17.7852
528 1 -1.1104 6.5878 12.852 14.9457
493 2 2.2208 10.7264 11.5792 16.6625
498 1 -1.1104 12.1459 10.2647 17.9989
499 2 2.2208 10.9256 8.57702 19.4502
502 1 -1.1104 12.2517 10.1605 15.1816
506 2 2.2208 8.02862 11.5306 19.2813
509 2 2.2208 8.03574 8.64196 16.566
511 1 -1.1104 9.4081 10.2274 18.0079
514 1 -1.1104 9.49433 9.89038 15.2819
556 1 -1.1104 12.1629 12.9811 17.9914
558 1 -1.1104 12.1958 12.9965 15.3669
567 1 -1.1104 9.22432 12.9703 17.954
570 1 -1.1104 9.37277 12.7723 15.0541
559 1 -1.1104 12.1126 13.1819 20.8522
415 2 2.2208 13.5937 3.38133 22.1203
529 1 -1.1104 6.78964 12.959 20.5893
353 2 2.2208 2.41247 11.5282 13.7757
611 2 2.2208 13.5443 14.1654 16.564
547 2 2.2208 2.60955 14.208 16.6011
519 2 2.2208 5.31589 17.1988 16.4698
521 1 -1.1104 0.968132 18.5143 17.7873
526 1 -1.1104 1.17985 18.6312 14.8375
532 1 -1.1104 1.03683 15.6953 17.8834
534 2 2.2208 5.32012 14.3414 19.3769
535 2 2.2208 5.28694 20.1038 19.2464
536 1 -1.1104 0.961061 15.9243 14.8625
541 1 -1.1104 3.79132 18.6022 17.9964
542 2 2.2208 2.33593 17.0558 19.3307
545 1 -1.1104 4.0209 18.5792 15.1313
548 2 2.2208 2.51966 20.1346 16.4928
549 1 -1.1104 3.84951 15.8657 18.0881
550 1 -1.1104 3.94164 15.6359 15.2035
538 1 -1.1104 6.60265 15.6013 15.0835
551 1 -1.1104 3.64189 15.8677 20.8195
607 2 2.2208 8.09958 14.2947 22.175
537 1 -1.1104 0.861344 15.9003 20.6026
414 2 2.2208 13.713 8.66173 22.2782
8908 2 2.2208 -0.433244 -5.37401 22.1957
554 1 -1.1104 9.30586 18.66 23.5754
533 1 -1.1104 6.64337 15.6094 17.9416
530 1 -1.1104 6.83101 18.3459 14.8874
573 1 -1.1104 9.67109 18.6724 20.7624
523 1 -1.1104 6.51899 18.6051 17.6462
574 2 2.2208 8.06491 14.2192 16.3948
563 2 2.2208 10.6078 14.4825 19.1821
555 2 2.2208 10.8813 17.18 16.2123
557 1 -1.1104 12.1141 18.6212 17.3925
560 1 -1.1104 12.4511 18.7294 14.8248
562 1 -1.1104 12.1786 15.6919 17.4895
564 2 2.2208 10.7894 20.0062 18.9534
565 1 -1.1104 12.2697 15.708 14.7836
568 1 -1.1104 9.37172 18.5195 17.6417
569 2 2.2208 8.02451 17.2976 18.9328
572 1 -1.1104 9.49211 18.4665 14.9261
575 2 2.2208 8.11278 19.9491 16.1687
576 1 -1.1104 9.28118 15.7814 17.9689
577 1 -1.1104 9.42063 15.491 15.0382
578 1 -1.1104 9.1853 16.0962 20.8541
8940 2 2.2208 5.16743 -5.32017 16.5748
539 1 -1.1104 6.64312 15.785 20.5059
566 1 -1.1104 12.0244 15.7415 20.4215
561 1 -1.1104 12.1874 18.7054 20.5086
366 2 2.2208 2.44882 2.96709 27.724
608 2 2.2208 8.11536 19.8445 21.9437
642 2 2.2208 13.6069 11.5228 19.43
552 1 -1.1104 12.3772 15.7163 26.3682
517 2 2.2208 11.0338 14.3557 24.9498
405 1 -1.1104 3.95212 -4.15671 20.7759
583 2 2.2208 5.30551 0.270137 21.9858
584 1 -1.1104 1.0932 -3.96593 23.3892
588 1 -1.1104 1.00001 -3.83405 26.0655
592 1 -1.1104 1.0164 -0.910607 23.6793
594 2 2.2208 5.3242 -2.66308 24.9111
596 1 -1.1104 1.04217 -0.981177 26.3756
598 1 -1.1104 3.97078 -3.87576 23.6121
600 2 2.2208 2.44626 0.306491 25.0453
601 1 -1.1104 3.88503 -4.01057 26.3725
603 2 2.2208 2.58154 -2.58511 22.0326
605 1 -1.1104 3.81159 -1.25628 23.4887
606 1 -1.1104 3.71337 -1.18292 26.3868
390 1 -1.1104 6.60814 -4.16497 20.8843
612 1 -1.1104 9.65913 15.5711 26.2013
418 2 2.2208 13.607 8.84129 16.59
341 2 2.2208 5.18679 2.93551 13.7747
453 2 2.2208 13.5739 19.9086 21.9235
586 1 -1.1104 6.73898 -3.95872 23.7748
597 1 -1.1104 6.72329 -1.14923 26.3085
618 2 2.2208 -0.318552 3.09759 24.9148
590 1 -1.1104 6.70343 -3.97366 26.835
593 1 -1.1104 6.98747 -1.03523 23.3288
446 1 -1.1104 9.70786 -1.34936 20.7307
427 1 -1.1104 12.08 -3.92999 20.6052
619 2 2.2208 11.0351 0.22288 22.1659
620 1 -1.1104 12.2885 -4.07266 23.5996
622 1 -1.1104 12.2084 -4.13682 26.3398
624 1 -1.1104 12.4509 -1.1989 23.7419
625 2 2.2208 10.9758 -2.50935 24.9159
627 1 -1.1104 12.0038 -1.39422 26.4483
628 1 -1.1104 9.75587 -4.06916 23.283
630 2 2.2208 8.09502 0.267553 24.9852
631 1 -1.1104 9.33042 -3.90015 26.0771
633 2 2.2208 8.28662 -2.62154 22.0758
635 1 -1.1104 9.7176 -1.28285 23.4321
636 1 -1.1104 9.35776 -0.833461 26.539
357 2 2.2208 2.6823 17.135 13.7257
481 1 -1.1104 4.00748 7.13151 20.7998
585 1 -1.1104 1.13403 1.77077 23.4862
589 1 -1.1104 1.16945 1.69433 26.2961
595 2 2.2208 5.23842 3.07524 24.933
599 1 -1.1104 3.95803 1.72494 23.4879
602 1 -1.1104 3.87931 1.63555 26.4838
604 2 2.2208 2.37188 3.05152 22.1357
648 2 2.2208 5.31732 5.9854 22.0601
654 1 -1.1104 0.985734 4.36893 23.5478
659 1 -1.1104 1.22166 4.54384 26.3534
664 2 2.2208 2.36249 6.08905 24.8122
666 1 -1.1104 3.87609 7.54406 26.5742
668 1 -1.1104 3.97535 4.46533 23.485
670 1 -1.1104 3.78454 4.75979 26.2923
652 1 -1.1104 1.05252 7.41841 26.6144
663 1 -1.1104 3.69798 7.42247 23.5123
650 1 -1.1104 0.957359 7.41904 23.6891
653 1 -1.1104 6.56469 7.23861 26.302
463 1 -1.1104 6.76863 7.42119 20.5935
651 1 -1.1104 6.69726 7.2353 23.6159
656 1 -1.1104 6.85317 4.43501 23.858
591 1 -1.1104 6.60981 1.7351 26.3417
347 2 2.2208 8.42179 14.2029 27.6426
508 1 -1.1104 9.49648 7.15417 20.7449
441 1 -1.1104 9.28947 1.4861 20.6982
710 1 -1.1104 6.67307 18.7783 23.2973
580 1 -1.1104 6.70218 18.3706 26.3004
587 1 -1.1104 6.7183 1.67137 23.6345
661 1 -1.1104 6.76999 4.47286 26.4623
496 1 -1.1104 12.1643 7.08672 20.9074
501 1 -1.1104 12.1512 4.61491 20.6891
513 1 -1.1104 9.38849 4.46689 20.8365
429 1 -1.1104 12.0692 1.9161 20.8204
621 1 -1.1104 12.5066 1.56543 23.3272
623 1 -1.1104 12.4212 1.41282 26.281
626 2 2.2208 10.9852 3.01024 24.9494
629 1 -1.1104 9.60109 1.47259 23.5341
632 1 -1.1104 9.56719 1.73535 26.3987
634 2 2.2208 8.12844 3.06201 22.2654
680 1 -1.1104 9.40498 4.52037 26.5679
682 1 -1.1104 9.54135 4.13304 23.4759
686 2 2.2208 8.07882 5.85843 25.1027
687 2 2.2208 10.7877 5.73696 22.1843
691 1 -1.1104 12.311 4.60735 23.6898
694 1 -1.1104 12.3933 4.64313 26.2471
696 1 -1.1104 9.53949 7.1032 23.7065
684 1 -1.1104 9.58831 7.50249 26.4807
689 1 -1.1104 12.2402 7.32752 23.6271
472 1 -1.1104 1.04446 10.0867 20.6948
544 1 -1.1104 3.71525 12.9828 20.7802
525 1 -1.1104 0.830035 12.9407 20.8608
488 1 -1.1104 3.67098 10.1193 20.807
649 2 2.2208 5.23095 11.5732 22.0885
655 1 -1.1104 0.850418 10.1329 23.4214
658 2 2.2208 5.1111 8.70897 24.97
660 1 -1.1104 1.08299 10.3306 26.4083
665 2 2.2208 2.53411 11.543 24.9843
667 2 2.2208 2.31018 8.72636 22.0483
669 1 -1.1104 3.83015 10.0743 23.5483
671 1 -1.1104 3.74125 10.1922 26.2969
673 1 -1.1104 3.9366 12.9624 26.3916
698 1 -1.1104 1.06448 13.1005 23.5902
705 1 -1.1104 3.79035 13.0422 23.5534
709 1 -1.1104 1.06999 13.1417 26.4184
657 1 -1.1104 6.71162 10.0875 23.7705
704 1 -1.1104 6.75539 12.7326 26.0182
476 1 -1.1104 6.48017 10.222 20.7219
690 1 -1.1104 12.3269 7.36276 26.4483
701 1 -1.1104 6.52071 12.9773 23.3451
662 1 -1.1104 6.43415 10.0522 26.3824
571 1 -1.1104 9.55366 12.9317 20.8681
503 1 -1.1104 12.1934 10.0733 20.9472
515 1 -1.1104 9.35417 10.0326 20.7826
455 1 -1.1104 12.3632 12.9712 23.5454
490 1 -1.1104 12.4163 12.8623 26.4442
679 1 -1.1104 9.23545 10.0157 26.2991
681 1 -1.1104 9.83819 9.80899 23.4776
683 2 2.2208 8.11321 8.58283 22.1264
685 2 2.2208 8.12092 11.4578 24.9381
688 2 2.2208 10.8103 11.5518 22.1783
692 1 -1.1104 12.4999 10.1662 23.7
693 2 2.2208 11.0407 8.69503 25.0376
695 1 -1.1104 12.341 10.163 26.3804
581 1 -1.1104 9.67672 12.876 26.3579
553 1 -1.1104 9.2643 12.718 23.6037
454 2 2.2208 10.7841 17.2461 22.0262
491 1 -1.1104 12.2555 18.5935 26.2655
364 2 2.2208 5.22572 0.116945 27.7617
546 1 -1.1104 3.86707 18.6853 20.72
639 2 2.2208 2.387 14.3969 22.1085
527 1 -1.1104 0.895695 18.4125 20.7288
712 2 2.2208 5.36228 14.2767 24.7422
641 2 2.2208 2.59433 19.9819 22.1244
644 1 -1.1104 3.91284 15.9053 23.4304
647 1 -1.1104 1.13004 16.0013 23.4785
674 1 -1.1104 4.01506 15.5028 26.2244
675 2 2.2208 2.58383 17.0867 24.9978
678 1 -1.1104 3.95692 18.5319 26.5182
697 2 2.2208 5.47694 17.1178 22.0032
699 1 -1.1104 0.868751 18.7007 23.4191
703 1 -1.1104 3.79116 18.4369 23.6186
707 1 -1.1104 1.14963 18.4394 26.3471
708 1 -1.1104 1.02184 15.7951 26.4095
711 2 2.2208 5.20903 19.7977 24.9767
516 1 -1.1104 12.2241 15.9085 23.6365
706 1 -1.1104 6.99758 15.4527 26.0473
672 1 -1.1104 6.66143 15.7717 23.2673
489 1 -1.1104 12.1972 18.7023 23.5574
582 1 -1.1104 9.55707 18.5521 26.2212
579 2 2.2208 8.075 16.9855 24.9519
518 2 2.2208 10.8349 19.9378 24.8146
609 1 -1.1104 9.57229 15.4783 23.5245
335 2 2.2208 -0.272034 19.9673 13.6201
343 2 2.2208 8.01625 0.293661 13.7658
351 2 2.2208 2.37119 5.79426 13.597
677 2 2.2208 -0.351782 11.5312 22.1713
8845 2 2.2208 2.11052 -5.30611 13.7965
643 2 2.2208 13.538 5.82058 19.3113
373 2 2.2208 2.3562 14.4258 27.6823
350 2 2.2208 -0.191569 11.4595 27.7148
379 2 2.2208 5.15176 5.96825 27.6087
359 2 2.2208 5.03049 14.4017 13.7598
346 2 2.2208 -0.318433 5.93625 27.6822
352 2 2.2208 5.01732 8.63564 13.7662
716 2 2.2208 10.7366 2.9564 13.8071
371 2 2.2208 -0.399543 17.1904 27.6523
378 2 2.2208 13.5449 3.23889 27.789
342 2 2.2208 -0.367839 14.4668 13.7317
719 2 2.2208 5.08029 22.5457 4.91099
721 1 -1.1104 0.996449 24.0779 0.979768
722 1 -1.1104 0.86376 24.2042 3.67708
723 1 -1.1104 0.996656 21.2296 0.943667
725 2 2.2208 5.3869 25.5564 2.17143
726 1 -1.1104 0.990938 21.3736 3.63544
728 1 -1.1104 3.93826 24.1374 0.94221
729 2 2.2208 2.36676 22.7714 2.29869
731 1 -1.1104 3.76607 24.3629 3.64962
732 2 2.2208 2.43166 25.5283 5.29467
733 1 -1.1104 4.05125 21.3178 0.907933
735 1 -1.1104 3.84511 21.1579 3.65157
727 1 -1.1104 0.996065 26.9509 3.81846
740 1 -1.1104 6.77854 24.139 0.843774
736 1 -1.1104 3.85741 27.0413 3.61768
868 1 -1.1104 3.93636 26.7766 6.85325
1047 2 2.2208 5.22902 31.3914 13.6658
764 2 2.2208 13.5619 22.8149 2.31522
862 1 -1.1104 1.0327 21.4703 6.5613
867 1 -1.1104 3.73569 20.96 6.43867
864 1 -1.1104 6.75436 21.2809 6.5324
742 1 -1.1104 6.72458 21.3955 0.945899
744 1 -1.1104 6.56105 21.458 3.85888
741 1 -1.1104 6.57809 24.0474 3.66685
746 2 2.2208 10.7722 22.7509 5.12291
748 1 -1.1104 12.2324 24.0379 0.793587
749 1 -1.1104 12.3375 24.1294 3.58661
750 1 -1.1104 12.3987 21.4315 0.978024
752 2 2.2208 10.8402 25.3841 2.38202
753 1 -1.1104 12.1214 21.3007 3.74031
755 1 -1.1104 9.41935 24.1542 0.876848
756 2 2.2208 8.1044 22.6695 2.22812
758 1 -1.1104 9.54102 23.9349 3.59644
759 2 2.2208 7.94065 25.558 5.13959
760 1 -1.1104 9.29437 21.4641 0.722432
762 1 -1.1104 9.35536 21.0987 3.7957
893 1 -1.1104 12.2142 24.2748 6.61462
789 2 2.2208 -0.436473 31.4191 2.52534
837 2 2.2208 2.26514 31.3658 -0.328742
1067 2 2.2208 5.38116 22.608 -0.469158
734 1 -1.1104 3.7123 26.9563 1.03018
724 1 -1.1104 0.815125 27.0072 0.782778
745 1 -1.1104 6.60988 27.074 3.77621
720 2 2.2208 5.24953 28.2606 5.2384
730 2 2.2208 2.20604 28.3741 2.40713
768 1 -1.1104 0.815524 29.9679 0.962097
771 1 -1.1104 0.887842 29.9101 3.63328
774 1 -1.1104 0.832526 32.77 1.14948
775 2 2.2208 5.1211 31.2342 2.29007
777 1 -1.1104 1.04487 32.6574 3.97405
779 1 -1.1104 3.62634 29.7329 1.04896
782 1 -1.1104 3.93819 29.8807 3.87544
784 2 2.2208 2.51826 31.1608 5.2998
786 1 -1.1104 3.71394 32.4926 1.06699
787 1 -1.1104 3.92628 32.6575 3.76757
792 1 -1.1104 6.69789 29.8929 3.97467
923 1 -1.1104 3.88833 29.6348 6.6343
921 1 -1.1104 1.06344 32.5893 6.63614
778 1 -1.1104 6.69366 32.7036 3.72373
919 1 -1.1104 6.67697 29.6215 6.88455
791 1 -1.1104 6.58229 29.8623 0.987219
1035 2 2.2208 -0.222073 25.6026 7.90969
1036 2 2.2208 -0.224907 28.4997 10.7377
743 1 -1.1104 6.45254 26.9594 0.758586
10183 3 0 13.19 33.7883 9.34243
751 1 -1.1104 11.9975 26.7874 0.778209
766 2 2.2208 13.6736 25.4114 5.22721
895 1 -1.1104 12.3712 26.9807 6.6811
793 1 -1.1104 6.42016 32.6311 1.07982
763 1 -1.1104 9.189 26.7502 3.58129
761 1 -1.1104 9.53878 26.7268 0.91163
754 1 -1.1104 12.1365 26.8658 3.75215
747 2 2.2208 10.8482 28.0986 5.30278
757 2 2.2208 7.97798 28.4191 2.23093
795 1 -1.1104 12.3779 29.7607 0.855818
797 1 -1.1104 12.1522 29.7216 3.71314
799 1 -1.1104 12.2467 32.7183 0.895758
800 2 2.2208 10.7885 31.1826 2.35594
802 1 -1.1104 12.3831 32.8008 3.78537
803 1 -1.1104 9.35587 29.9081 1.03513
806 1 -1.1104 9.23396 29.7067 3.79684
808 2 2.2208 8.05476 31.1813 5.12674
810 1 -1.1104 9.34013 32.6988 1.16399
811 1 -1.1104 9.66812 32.395 4.04458
790 2 2.2208 -0.330893 36.9218 2.39309
954 1 -1.1104 9.50776 29.6844 6.6151
951 1 -1.1104 12.3835 29.6129 6.57808
788 2 2.2208 -0.201049 34.1163 5.3172
767 2 2.2208 5.43234 34.0172 5.12712
769 1 -1.1104 1.08408 35.6172 0.882354
772 1 -1.1104 1.13079 35.6713 4.01181
776 2 2.2208 5.14541 36.8956 2.47146
780 1 -1.1104 3.74708 35.3356 0.936084
781 2 2.2208 2.43246 34.198 2.48746
783 1 -1.1104 3.84397 35.4972 3.8096
785 2 2.2208 2.64127 37.1223 5.32879
813 2 2.2208 5.35956 39.9828 5.30548
819 1 -1.1104 1.02999 38.4543 1.0891
824 1 -1.1104 1.16403 38.5378 4.16798
829 2 2.2208 2.50612 39.7782 2.46109
833 1 -1.1104 3.7917 38.3486 1.01544
835 1 -1.1104 3.80983 38.2749 3.7775
770 1 -1.1104 6.48877 35.663 1.01965
918 1 -1.1104 1.12791 35.6906 6.82729
826 1 -1.1104 6.56043 38.5011 3.85624
1611 1 -1.1104 3.73189 46.747 12.1364
10153 2 2.2208 -0.333403 36.9662 8.02503
924 1 -1.1104 3.80997 35.5219 6.56723
991 1 -1.1104 3.86812 38.528 6.67978
985 1 -1.1104 1.1182 38.3043 6.85236