LAMMPS (29 Oct 2020)
OMP_NUM_THREADS environment is not set. Defaulting to 1 thread. (../comm.cpp:94)
  using 1 OpenMP thread(s) per MPI task
OMP_NUM_THREADS environment is not set. Defaulting to 1 thread. (../comm.cpp:94)
  using 1 OpenMP thread(s) per MPI task
Reading data file ...
  orthogonal box = (-0.35342047 -4.2231946 -0.35541377) to (27.693420 332.30319 27.695414)
  2 by 13 by 2 MPI processor grid
  reading atoms ...
  17700 atoms
  reading velocities ...
  17700 velocities
Finding 1-2 1-3 1-4 neighbors ...
  special bond factors lj:    0.0      0.0      0.0     
  special bond factors coul:  0.0      0.0      0.0     
     0 = max # of 1-2 neighbors
     0 = max # of 1-3 neighbors
     0 = max # of 1-4 neighbors
     1 = max # of special neighbors
  special bonds CPU = 0.003 seconds
  read_data CPU = 0.063 seconds
WARNING: 13 of 1000 force values in table Xe-Xe are inconsistent with -dE/dr.
  Should only be flagged at inflection points (../pair_table.cpp:461)
WARNING: 2 of 1000 force values in table Xe-O are inconsistent with -dE/dr.
  Should only be flagged at inflection points (../pair_table.cpp:461)
WARNING: 2 of 1000 force values in table Xe-Th are inconsistent with -dE/dr.
  Should only be flagged at inflection points (../pair_table.cpp:461)
Setting atom values ...
  11760 settings made for charge
Setting atom values ...
  5880 settings made for charge
Setting atom values ...
  60 settings made for charge
PPPM initialization ...
  using 12-bit tables for long-range coulomb (../kspace.cpp:328)
  G vector (1/distance) = 0.29883713
  grid = 40 240 40
  stencil order = 5
  estimated absolute RMS force accuracy = 0.0001557301
  estimated relative force accuracy = 1.0814857e-05
  using single precision MKL FFT
  3d grid and FFT values/proc = 18225 7600
Neighbor list info ...
  update every 1 steps, delay 0 steps, check yes
  max neighbors/atom: 2000, page size: 100000
  master list distance cutoff = 13
  ghost atom cutoff = 13
  binsize = 6.5, bins = 5 52 5
  3 neighbor lists, perpetual/occasional/extra = 3 0 0
  (1) pair coul/long, perpetual
      attributes: half, newton on
      pair build: half/bin/newton
      stencil: half/bin/3d/newton
      bin: standard
  (2) pair eam/alloy, perpetual, skip from (1)
      attributes: half, newton on
      pair build: skip
      stencil: none
      bin: none
  (3) pair table, perpetual, skip from (1)
      attributes: half, newton on
      pair build: skip
      stencil: none
      bin: none
Setting up Verlet run ...
  Unit style    : metal
  Current step  : 0
  Time step     : 0.001
Per MPI rank memory allocation (min/avg/max) = 9.249 | 9.913 | 10.04 Mbytes
Step Temp E_pair E_mol TotEng Press 
       0          600   -230577.93            0   -229205.26    505.83511 
  100000    596.42623   -230577.54            0   -229213.05    514.11638 
Loop time of 703.851 on 52 procs for 100000 steps with 17700 atoms

Performance: 12.275 ns/day, 1.955 hours/ns, 142.075 timesteps/s
99.8% CPU use with 52 MPI tasks x 1 OpenMP threads

MPI task timing breakdown:
Section |  min time  |  avg time  |  max time  |%varavg| %total
---------------------------------------------------------------
Pair    | 478.07     | 507.23     | 520.47     |  44.3 | 72.06
Bond    | 0.0087441  | 0.013531   | 0.026966   |   2.5 |  0.00
Kspace  | 159.75     | 172.1      | 200.08     |  72.9 | 24.45
Neigh   | 1.9156     | 2.3393     | 2.5319     |   9.8 |  0.33
Comm    | 14.891     | 15.762     | 17.439     |  18.1 |  2.24
Output  | 5.4222e-05 | 6.046e-05  | 0.00031799 |   0.0 |  0.00
Modify  | 3.0135     | 4.7892     | 6.5395     |  55.2 |  0.68
Other   |            | 1.616      |            |       |  0.23

Nlocal:        340.385 ave         366 max         304 min
Histogram: 2 3 3 0 7 15 8 2 0 12
Nghost:        5537.06 ave        5705 max        5352 min
Histogram: 5 7 2 2 0 16 8 1 3 8
Neighs:       107741.0 ave      117223 max       85398 min
Histogram: 3 1 1 2 1 1 12 17 2 12

Total # of neighbors = 5602509
Ave neighs/atom = 316.52593
Ave special neighs/atom = 0.0000000
Neighbor list builds = 760
Dangerous builds = 0
11760 atoms in group oxygen
PPPM initialization ...
  using 12-bit tables for long-range coulomb (../kspace.cpp:328)
  G vector (1/distance) = 0.29883713
  grid = 40 240 40
  stencil order = 5
  estimated absolute RMS force accuracy = 0.0001557301
  estimated relative force accuracy = 1.0814857e-05
  using single precision MKL FFT
  3d grid and FFT values/proc = 18225 7600
Neighbor list info ...
  update every 1 steps, delay 0 steps, check yes
  max neighbors/atom: 2000, page size: 100000
  master list distance cutoff = 13
  ghost atom cutoff = 13
  binsize = 6.5, bins = 5 52 5
  3 neighbor lists, perpetual/occasional/extra = 3 0 0
  (1) pair coul/long, perpetual
      attributes: half, newton on
      pair build: half/bin/newton
      stencil: half/bin/3d/newton
      bin: standard
  (2) pair eam/alloy, perpetual, skip from (1)
      attributes: half, newton on
      pair build: skip
      stencil: none
      bin: none
  (3) pair table, perpetual, skip from (1)
      attributes: half, newton on
      pair build: skip
      stencil: none
      bin: none
Setting up Verlet run ...
  Unit style    : metal
  Current step  : 0
  Time step     : 0.001
Per MPI rank memory allocation (min/avg/max) = 9.499 | 10.16 | 10.29 Mbytes
Step f_2 Temp v_Tdiff v_deltaT 
       0            0    596.42623            0            0 
  100000     697.7581    591.85831  0.018844805    218.78643 
  200000    1385.4095    591.64929  0.020336448    236.10428 
  300000    2070.4778    597.12995  0.019565192    227.15006 
  400000    2759.4269    589.93478  0.019532508     226.7706 
  500000    3441.3728    598.52927  0.020864975    242.24042 
  600000    4126.3424    597.41148  0.020388937    236.71367 
  700000    4816.6113    593.78808  0.019790272    229.76322 
  800000    5506.9172    593.70437  0.019653859    228.17948 
  900000    6193.2851    599.62275  0.020286358    235.52274 
 1000000    6881.8696    595.19084  0.019973227    231.88731 
Loop time of 7063.52 on 52 procs for 1000000 steps with 17700 atoms

Performance: 12.232 ns/day, 1.962 hours/ns, 141.572 timesteps/s
99.8% CPU use with 52 MPI tasks x 1 OpenMP threads

MPI task timing breakdown:
Section |  min time  |  avg time  |  max time  |%varavg| %total
---------------------------------------------------------------
Pair    | 4774.9     | 5078.8     | 5228.7     | 140.8 | 71.90
Bond    | 0.083631   | 0.13463    | 0.21844    |   7.9 |  0.00
Kspace  | 1608.4     | 1747.8     | 2041.1     | 229.3 | 24.74
Neigh   | 20.391     | 24.936     | 26.85      |  31.8 |  0.35
Comm    | 148.87     | 158.24     | 174.08     |  53.9 |  2.24
Output  | 0.0011513  | 0.0012186  | 0.0022842  |   0.4 |  0.00
Modify  | 6.3038     | 6.7453     | 7.3934     |  11.4 |  0.10
Other   |            | 46.91      |            |       |  0.66

Nlocal:        340.385 ave         365 max         302 min
Histogram: 2 3 1 3 3 7 14 9 5 5
Nghost:        5526.81 ave        5703 max        5228 min
Histogram: 4 0 0 10 2 0 16 8 0 12
Neighs:       107750.0 ave      117002 max       83598 min
Histogram: 3 1 0 0 3 3 5 13 16 8

Total # of neighbors = 5602986
Ave neighs/atom = 316.55288
Ave special neighs/atom = 0.0000000
Neighbor list builds = 8099
Dangerous builds = 0
Total wall time: 2:09:27
