LAMMPS (29 Oct 2020)
OMP_NUM_THREADS environment is not set. Defaulting to 1 thread. (../comm.cpp:94)
  using 1 OpenMP thread(s) per MPI task
OMP_NUM_THREADS environment is not set. Defaulting to 1 thread. (../comm.cpp:94)
  using 1 OpenMP thread(s) per MPI task
Reading data file ...
  orthogonal box = (-0.35342047 -4.2231946 -0.35541377) to (27.693420 332.30319 27.695414)
  2 by 13 by 2 MPI processor grid
  reading atoms ...
  17700 atoms
  reading velocities ...
  17700 velocities
Finding 1-2 1-3 1-4 neighbors ...
  special bond factors lj:    0.0      0.0      0.0     
  special bond factors coul:  0.0      0.0      0.0     
     0 = max # of 1-2 neighbors
     0 = max # of 1-3 neighbors
     0 = max # of 1-4 neighbors
     1 = max # of special neighbors
  special bonds CPU = 0.003 seconds
  read_data CPU = 0.057 seconds
WARNING: 13 of 1000 force values in table Xe-Xe are inconsistent with -dE/dr.
  Should only be flagged at inflection points (../pair_table.cpp:461)
WARNING: 2 of 1000 force values in table Xe-O are inconsistent with -dE/dr.
  Should only be flagged at inflection points (../pair_table.cpp:461)
WARNING: 2 of 1000 force values in table Xe-Th are inconsistent with -dE/dr.
  Should only be flagged at inflection points (../pair_table.cpp:461)
Setting atom values ...
  11760 settings made for charge
Setting atom values ...
  5880 settings made for charge
Setting atom values ...
  60 settings made for charge
PPPM initialization ...
  using 12-bit tables for long-range coulomb (../kspace.cpp:328)
  G vector (1/distance) = 0.29883713
  grid = 40 240 40
  stencil order = 5
  estimated absolute RMS force accuracy = 0.0001557301
  estimated relative force accuracy = 1.0814857e-05
  using single precision MKL FFT
  3d grid and FFT values/proc = 18225 7600
Neighbor list info ...
  update every 1 steps, delay 0 steps, check yes
  max neighbors/atom: 2000, page size: 100000
  master list distance cutoff = 13
  ghost atom cutoff = 13
  binsize = 6.5, bins = 5 52 5
  3 neighbor lists, perpetual/occasional/extra = 3 0 0
  (1) pair coul/long, perpetual
      attributes: half, newton on
      pair build: half/bin/newton
      stencil: half/bin/3d/newton
      bin: standard
  (2) pair eam/alloy, perpetual, skip from (1)
      attributes: half, newton on
      pair build: skip
      stencil: none
      bin: none
  (3) pair table, perpetual, skip from (1)
      attributes: half, newton on
      pair build: skip
      stencil: none
      bin: none
Setting up Verlet run ...
  Unit style    : metal
  Current step  : 0
  Time step     : 0.001
Per MPI rank memory allocation (min/avg/max) = 9.249 | 9.913 | 10.04 Mbytes
Step Temp E_pair E_mol TotEng Press 
       0          600   -230577.93            0   -229205.26    505.83511 
  100000    598.50147   -230576.77            0   -229207.53    1070.9401 
Loop time of 713.104 on 52 procs for 100000 steps with 17700 atoms

Performance: 12.116 ns/day, 1.981 hours/ns, 140.232 timesteps/s
99.8% CPU use with 52 MPI tasks x 1 OpenMP threads

MPI task timing breakdown:
Section |  min time  |  avg time  |  max time  |%varavg| %total
---------------------------------------------------------------
Pair    | 508.22     | 540.52     | 555.71     |  44.2 | 75.80
Bond    | 0.0073004  | 0.013564   | 0.018619   |   1.9 |  0.00
Kspace  | 136.04     | 150.32     | 181.23     |  79.8 | 21.08
Neigh   | 1.8855     | 2.2881     | 2.4742     |   9.8 |  0.32
Comm    | 13.753     | 14.971     | 16.967     |  22.7 |  2.10
Output  | 5.0861e-05 | 5.6885e-05 | 0.00028932 |   0.0 |  0.00
Modify  | 1.8577     | 3.635      | 5.383      |  67.4 |  0.51
Other   |            | 1.35       |            |       |  0.19

Nlocal:        340.385 ave         367 max         305 min
Histogram: 3 3 2 0 9 16 6 0 4 9
Nghost:        5538.19 ave        5704 max        5310 min
Histogram: 4 2 6 2 2 2 22 0 0 12
Neighs:       107762.0 ave      118471 max       83479 min
Histogram: 3 0 1 1 3 1 11 19 2 11

Total # of neighbors = 5603605
Ave neighs/atom = 316.58785
Ave special neighs/atom = 0.0000000
Neighbor list builds = 748
Dangerous builds = 0
11760 atoms in group oxygen
PPPM initialization ...
  using 12-bit tables for long-range coulomb (../kspace.cpp:328)
  G vector (1/distance) = 0.29883713
  grid = 40 240 40
  stencil order = 5
  estimated absolute RMS force accuracy = 0.0001557301
  estimated relative force accuracy = 1.0814857e-05
  using single precision MKL FFT
  3d grid and FFT values/proc = 18225 7600
Neighbor list info ...
  update every 1 steps, delay 0 steps, check yes
  max neighbors/atom: 2000, page size: 100000
  master list distance cutoff = 13
  ghost atom cutoff = 13
  binsize = 6.5, bins = 5 52 5
  3 neighbor lists, perpetual/occasional/extra = 3 0 0
  (1) pair coul/long, perpetual
      attributes: half, newton on
      pair build: half/bin/newton
      stencil: half/bin/3d/newton
      bin: standard
  (2) pair eam/alloy, perpetual, skip from (1)
      attributes: half, newton on
      pair build: skip
      stencil: none
      bin: none
  (3) pair table, perpetual, skip from (1)
      attributes: half, newton on
      pair build: skip
      stencil: none
      bin: none
Setting up Verlet run ...
  Unit style    : metal
  Current step  : 0
  Time step     : 0.001
Per MPI rank memory allocation (min/avg/max) = 9.499 | 10.16 | 10.29 Mbytes
Step f_2 Temp v_Tdiff v_deltaT 
       0            0    598.50147            0            0 
  100000    698.46764    591.10811  0.017760073     206.1928 
  200000    1379.2672    599.46293  0.020748184    240.88449 
  300000    2069.6656    596.47654  0.019935542    231.44979 
  400000    2755.4445    595.43153    0.0191851    222.73723 
  500000    3442.9593    602.23508  0.020502204    238.02868 
  600000    4127.3859    596.69354  0.020210426    234.64116 
  700000    4813.7446    599.69114    0.0202304    234.87307 
  800000    5500.6417    596.53704  0.020521086     238.2479 
  900000    6194.8439    602.30932  0.019815275     230.0535 
 1000000    6889.3593    602.32778    0.0196965    228.67454 
Loop time of 7067.93 on 52 procs for 1000000 steps with 17700 atoms

Performance: 12.224 ns/day, 1.963 hours/ns, 141.484 timesteps/s
99.9% CPU use with 52 MPI tasks x 1 OpenMP threads

MPI task timing breakdown:
Section |  min time  |  avg time  |  max time  |%varavg| %total
---------------------------------------------------------------
Pair    | 5037.8     | 5346.1     | 5523.6     | 133.4 | 75.64
Bond    | 0.085066   | 0.13399    | 0.17852    |   5.2 |  0.00
Kspace  | 1343.4     | 1510.1     | 1805       | 239.1 | 21.37
Neigh   | 20.328     | 24.76      | 26.663     |  32.2 |  0.35
Comm    | 137.72     | 148.28     | 165.88     |  63.2 |  2.10
Output  | 0.0010378  | 0.0010887  | 0.0023099  |   0.5 |  0.00
Modify  | 5.4719     | 6.0894     | 6.6538     |  11.6 |  0.09
Other   |            | 32.5       |            |       |  0.46

Nlocal:        340.385 ave         370 max         308 min
Histogram: 5 2 2 1 10 11 9 5 6 1
Nghost:        5529.17 ave        5702 max        5269 min
Histogram: 4 0 5 7 0 0 24 0 0 12
Neighs:       107765.0 ave      118446 max       84534 min
Histogram: 3 1 0 4 0 1 10 17 10 6

Total # of neighbors = 5603768
Ave neighs/atom = 316.59706
Ave special neighs/atom = 0.0000000
Neighbor list builds = 8095
Dangerous builds = 0
Total wall time: 2:09:41
