ITEM: TIMESTEP
70000
ITEM: NUMBER OF ATOMS
17704
ITEM: BOX BOUNDS pp pp pp
-4.3490935056345409e-01 2.7774909350563171e+01
-5.3759068268652861e+00 3.3345590682687060e+02
-4.4250349529422922e-01 2.7782503495294151e+01
ITEM: ATOMS id type q x y z
1 2 2.2208 5.17472 0.336001 5.00169
2 1 -1.1104 0.914609 -3.84451 0.806785
4 1 -1.1104 0.712925 -3.92035 3.86121
6 1 -1.1104 1.09758 -0.995539 1.19746
7 2 2.2208 4.96673 -2.70771 2.48851
9 1 -1.1104 0.693259 -1.2095 3.98161
10 1 -1.1104 3.59581 -4.06233 1.15913
12 2 2.2208 2.34198 0.248762 2.47318
13 1 -1.1104 3.48321 -3.84685 4.08605
15 2 2.2208 2.1608 -2.65937 5.30174
17 1 -1.1104 3.76899 -1.06535 0.827009
18 1 -1.1104 3.56997 -0.9564 3.8175
32 1 -1.1104 6.30814 -1.38305 3.78591
31 1 -1.1104 6.25412 -1.06379 1.08657
29 1 -1.1104 6.437 -4.01849 3.84302
24 1 -1.1104 3.85181 -0.941105 6.62512
22 1 -1.1104 3.5151 -3.78528 6.8044
27 1 -1.1104 6.3156 -3.89866 0.927261
9107 2 2.2208 13.3228 0.219174 13.6317
19 1 -1.1104 0.743546 -4.11105 6.71487
191 1 -1.1104 6.68413 -1.40268 6.70724
9225 2 2.2208 13.3079 14.4367 10.9563
8483 2 2.2208 2.08684 -5.28294 8.07551
33 2 2.2208 10.7563 -0.0144958 5.29274
34 1 -1.1104 12.0099 -4.07169 0.905901
36 1 -1.1104 11.9432 -3.96799 3.94107
38 1 -1.1104 11.864 -1.0667 0.764239
39 2 2.2208 10.6127 -2.63925 2.20979
41 1 -1.1104 11.8703 -1.27627 3.78912
42 1 -1.1104 9.09577 -4.03737 0.811117
44 2 2.2208 7.89871 0.158875 2.36857
45 1 -1.1104 9.19735 -3.95862 3.44266
47 2 2.2208 7.85074 -2.5956 5.27373
49 1 -1.1104 9.28478 -1.00818 1.03998
50 1 -1.1104 9.11855 -1.30226 3.81421
198 1 -1.1104 11.8316 -3.91937 6.52836
200 1 -1.1104 12.0277 -1.25955 6.80174
201 1 -1.1104 9.10467 -4.18648 6.49792
8903 2 2.2208 13.2679 -2.56421 5.31271
8902 2 2.2208 13.3176 0.230027 2.23056
203 1 -1.1104 9.41784 -1.18532 6.59412
278 2 2.2208 10.7835 8.77463 13.4842
3 1 -1.1104 0.859836 1.62748 1.13302
5 1 -1.1104 1.04542 1.52121 3.96819
8 2 2.2208 5.06033 3.01223 2.4408
11 1 -1.1104 3.51209 1.77775 0.694076
14 1 -1.1104 3.70534 1.74982 3.64641
16 2 2.2208 2.19049 3.13559 5.15077
57 2 2.2208 5.04074 5.95271 5.06335
61 1 -1.1104 0.810793 4.60915 0.969028
66 1 -1.1104 0.804469 4.52199 3.65612
69 2 2.2208 2.06527 6.05361 2.56123
73 1 -1.1104 3.73959 4.41304 0.972812
76 1 -1.1104 3.40122 4.4984 3.81301
59 1 -1.1104 0.878219 7.45488 0.883047
71 1 -1.1104 3.56492 7.20613 3.83631
68 1 -1.1104 3.72981 7.20505 0.956069
86 1 -1.1104 6.58674 7.28475 0.788815
79 1 -1.1104 0.965835 4.66323 6.39439
90 1 -1.1104 6.33234 4.50481 3.78702
28 1 -1.1104 6.50634 1.66371 1.09187
81 1 -1.1104 3.71373 4.4556 6.69395
80 1 -1.1104 3.29611 7.20092 6.68651
52 1 -1.1104 6.6066 1.73512 6.67322
30 1 -1.1104 6.54496 1.69565 3.86159
88 1 -1.1104 6.43535 4.61877 0.964417
60 1 -1.1104 0.772706 7.61057 3.67396
8968 2 2.2208 13.3769 5.80249 2.38957
35 1 -1.1104 12.1535 1.61301 0.838341
37 1 -1.1104 11.8834 1.67059 3.74814
40 2 2.2208 10.4639 3.0745 2.47282
43 1 -1.1104 9.29353 1.78982 0.937407
46 1 -1.1104 9.09511 1.40735 3.9379
48 2 2.2208 7.96768 3.26195 5.33164
92 2 2.2208 10.811 5.9365 5.05399
94 1 -1.1104 11.9415 7.15927 1.12355
95 1 -1.1104 12.1168 7.38773 3.89146
96 1 -1.1104 12.0224 4.3299 1.02201
99 1 -1.1104 12.0888 4.46091 3.59884
102 2 2.2208 7.81687 5.95129 2.41015
104 1 -1.1104 9.36109 7.31376 3.82676
106 1 -1.1104 9.30561 4.54528 1.24496
108 1 -1.1104 9.2946 4.50226 3.92533
101 1 -1.1104 9.45367 7.48412 1.17047
258 1 -1.1104 9.10332 7.48223 6.59587
199 1 -1.1104 12.0165 1.5694 6.52251
256 1 -1.1104 12.0269 7.2493 6.66836
260 1 -1.1104 9.3729 4.62649 6.62137
17155 2 2.2208 13.2711 -5.33586 2.18235
8901 2 2.2208 13.3142 2.99037 5.11267
280 2 2.2208 5.10878 14.5774 13.5265
87 1 -1.1104 6.67534 7.37005 3.75229
58 2 2.2208 5.14835 11.5867 5.13674
62 1 -1.1104 0.810907 10.151 0.796376
65 2 2.2208 4.98674 8.86917 2.28725
67 1 -1.1104 0.796774 10.2765 3.85811
70 2 2.2208 2.22894 11.4382 2.22186
72 2 2.2208 2.24008 8.7073 5.1642
74 1 -1.1104 3.56258 10.3719 0.732139
77 1 -1.1104 3.51747 9.96256 3.7389
115 1 -1.1104 0.630847 13.0213 0.834168
119 1 -1.1104 0.728328 12.9542 3.85779
129 1 -1.1104 3.54403 13.0412 1.07344
134 1 -1.1104 3.61465 12.7797 3.83417
91 1 -1.1104 6.2305 10.0668 3.75507
121 1 -1.1104 6.54999 12.9871 3.6647
64 1 -1.1104 6.41875 10.1708 0.819542
63 1 -1.1104 0.927219 10.1293 6.56448
117 1 -1.1104 6.4849 12.9282 0.836922
89 1 -1.1104 6.81801 10.2998 6.6086
145 1 -1.1104 6.3797 12.9005 6.51518
8315 2 2.2208 2.09641 -5.272 2.40384
93 2 2.2208 10.5856 11.4822 5.04657
97 1 -1.1104 12.1194 10.2028 0.978486
98 2 2.2208 10.8535 8.84324 2.45887
100 1 -1.1104 12.1307 10.2605 3.79844
103 2 2.2208 7.84371 11.4233 2.37559
105 2 2.2208 7.87325 8.80325 5.26268
107 1 -1.1104 9.28924 10.0195 0.895905
109 1 -1.1104 9.16042 10.1308 3.64855
149 1 -1.1104 12.0198 12.982 0.925855
152 1 -1.1104 11.9613 13.0012 3.77213
158 1 -1.1104 9.0587 12.8404 0.899031
162 1 -1.1104 9.19849 12.9915 3.87845
8967 2 2.2208 13.4641 11.6892 2.38649
309 1 -1.1104 9.24965 12.9349 6.56812
8963 2 2.2208 13.4856 8.70453 5.31408
307 1 -1.1104 12.174 13.2665 6.65294
8350 2 2.2208 7.8388 -5.3633 2.40428
136 2 2.2208 2.11913 14.2176 5.20921
125 2 2.2208 4.96794 14.3307 2.52712
114 2 2.2208 4.98283 17.0685 5.24422
116 1 -1.1104 0.838154 18.6246 1.1355
120 1 -1.1104 0.709842 18.3209 3.66063
122 1 -1.1104 0.983792 15.7268 0.863767
126 2 2.2208 4.97194 19.9948 2.33097
127 1 -1.1104 0.768172 15.7747 3.84775
131 1 -1.1104 3.55614 18.5831 0.760437
133 2 2.2208 2.22948 17.055 2.39549
135 1 -1.1104 3.59998 18.4046 3.65856
137 2 2.2208 2.20324 19.9571 5.28317
138 1 -1.1104 3.74454 15.7478 0.962429
140 1 -1.1104 3.72799 15.5841 3.82257
141 1 -1.1104 6.38223 18.7128 0.957844
128 1 -1.1104 6.43654 15.766 3.61151
142 1 -1.1104 6.26582 18.6118 3.88224
132 1 -1.1104 3.66138 18.5625 6.45376
139 1 -1.1104 3.64749 15.7814 6.58517
124 1 -1.1104 6.34385 15.4981 6.59947
143 1 -1.1104 6.69156 15.8565 0.855436
123 1 -1.1104 0.845039 15.7009 6.76491
8484 2 2.2208 5.03268 -5.35891 10.8834
9030 2 2.2208 13.5376 19.9242 4.99424
9029 2 2.2208 13.3366 14.4188 5.04625
155 2 2.2208 10.5685 14.3437 2.38143
164 2 2.2208 7.85855 14.4725 5.18515
148 2 2.2208 10.7604 17.2586 5.16943
150 1 -1.1104 12.0949 18.5687 0.984436
153 1 -1.1104 11.9131 18.7137 3.71985
154 1 -1.1104 12.2452 15.8305 1.06686
156 2 2.2208 10.6204 20.0542 2.12107
157 1 -1.1104 11.9348 15.8229 3.81542
159 1 -1.1104 9.39828 18.473 0.815134
161 2 2.2208 7.95631 17.2366 2.26534
163 1 -1.1104 9.19954 18.835 3.62621
165 2 2.2208 7.79939 20.0616 4.98255
166 1 -1.1104 9.44455 15.4667 0.777637
168 1 -1.1104 9.14959 15.8916 3.72149
9028 2 2.2208 13.5097 17.2148 2.29395
8316 2 2.2208 5.16189 -5.36805 5.49907
8495 2 2.2208 10.7227 -5.37058 10.7867
167 1 -1.1104 9.33818 15.7623 6.61894
308 1 -1.1104 11.8339 15.7419 6.6632
160 1 -1.1104 9.47513 18.5631 6.52482
21 1 -1.1104 0.846453 -1.14384 6.6915
329 2 2.2208 7.75825 -2.55461 -0.284951
51 1 -1.1104 6.42637 -4.06466 6.68916
169 2 2.2208 5.021 0.20454 10.8034
170 1 -1.1104 0.560061 -4.03885 12.3476
172 1 -1.1104 0.79766 -4.16294 9.5551
174 1 -1.1104 0.934758 -1.37912 12.2371
175 2 2.2208 5.16215 -2.50186 8.13002
177 1 -1.1104 0.859299 -1.08604 9.70909
178 1 -1.1104 3.46608 -4.16873 12.2334
180 2 2.2208 2.25166 0.356801 8.00629
181 1 -1.1104 3.73354 -4.18118 9.53096
183 2 2.2208 2.25687 -2.49533 10.8912
185 1 -1.1104 3.77708 -1.15523 11.9971
186 1 -1.1104 3.56875 -1.22793 9.25228
192 1 -1.1104 6.35368 -4.01167 12.2699
194 1 -1.1104 6.52422 -3.95995 9.46477
197 1 -1.1104 6.33085 -1.03283 9.47046
196 1 -1.1104 6.29466 -1.33798 12.465
9167 2 2.2208 13.4144 11.7239 8.20235
9168 2 2.2208 13.537 11.5664 13.6297
223 2 2.2208 10.5953 -2.56091 13.6858
151 1 -1.1104 12.1682 18.4596 6.39501
635 2 2.2208 2.14497 17.2811 13.4698
204 2 2.2208 10.4538 0.286439 10.7931
205 1 -1.1104 12.116 -3.84913 12.162
207 1 -1.1104 12.1547 -4.04135 9.32875
209 1 -1.1104 11.761 -1.13456 12.1791
210 2 2.2208 10.7242 -2.51162 8.18517
212 1 -1.1104 12.0017 -1.25128 9.43075
213 1 -1.1104 9.37874 -4.05638 12.3095
215 2 2.2208 7.95586 0.323077 8.13138
216 1 -1.1104 9.30534 -3.84667 9.40022
218 2 2.2208 7.88521 -2.43196 10.8091
220 1 -1.1104 9.01504 -1.09496 12.348
221 1 -1.1104 9.21792 -1.12273 9.51721
9104 2 2.2208 13.4174 -2.67016 10.7693
313 1 -1.1104 11.8783 18.7201 12.1404
9103 2 2.2208 13.5954 0.275845 7.99084
479 2 2.2208 7.92083 17.1624 13.5789
326 2 2.2208 7.95826 19.9992 10.7533
20 1 -1.1104 0.713213 1.67058 6.50585
23 1 -1.1104 3.77265 1.80349 6.64455
78 1 -1.1104 0.465936 7.29589 6.28441
248 1 -1.1104 6.37505 4.6024 6.66913
110 1 -1.1104 6.55832 7.24881 6.44658
171 1 -1.1104 0.92125 1.57687 12.3278
173 1 -1.1104 0.605461 1.63308 9.33529
176 2 2.2208 5.031 3.13122 8.03404
179 1 -1.1104 3.65584 1.73064 12.291
182 1 -1.1104 3.5418 1.44036 9.46041
184 2 2.2208 2.2308 2.85685 10.8164
227 2 2.2208 5.10382 5.8194 10.7829
229 1 -1.1104 1.22337 7.4015 12.233
230 1 -1.1104 0.671635 7.53596 9.4871
231 1 -1.1104 0.882425 4.42883 12.0263
234 1 -1.1104 0.952437 4.37985 9.20051
236 1 -1.1104 3.77581 7.53749 12.0016
237 2 2.2208 2.23054 5.87722 8.05556
241 1 -1.1104 3.6211 4.62619 12.1609
243 1 -1.1104 3.7443 4.43217 9.46044
239 1 -1.1104 3.57676 7.4462 9.31568
249 1 -1.1104 6.39002 7.19335 12.2241
195 1 -1.1104 6.38774 1.81755 9.4444
193 1 -1.1104 6.29965 1.55801 12.3343
253 1 -1.1104 6.40523 4.67615 9.49477
250 1 -1.1104 6.37058 7.53188 9.43799
251 1 -1.1104 6.52761 4.486 12.1464
257 1 -1.1104 12.1605 4.4136 6.56283
202 1 -1.1104 9.46004 1.65633 6.69312
317 2 2.2208 10.703 14.3483 8.11583
9172 2 2.2208 13.4177 5.86624 8.0678
206 1 -1.1104 12.1921 1.63443 12.1788
208 1 -1.1104 11.7164 1.37688 9.19062
211 2 2.2208 10.732 3.12208 8.01737
214 1 -1.1104 9.28846 1.63209 12.4505
217 1 -1.1104 8.97006 1.70423 9.63354
219 2 2.2208 7.77819 3.17244 10.99
259 1 -1.1104 9.28819 4.4834 9.42188
262 1 -1.1104 9.25859 4.60627 12.3788
264 1 -1.1104 9.30497 7.12789 9.54121
266 2 2.2208 7.77488 5.89284 7.97572
267 2 2.2208 10.6919 5.69025 10.7308
271 1 -1.1104 12.3157 4.11284 12.3345
274 1 -1.1104 12.0638 4.40771 9.51021
276 1 -1.1104 9.26165 7.50411 12.255
269 1 -1.1104 11.9834 7.33754 12.0274
270 1 -1.1104 11.989 7.01684 9.39796
9102 2 2.2208 13.6052 2.97732 10.943
82 2 2.2208 4.93532 5.73383 -0.460575
279 1 -1.1104 0.527236 12.8803 6.60617
130 1 -1.1104 3.54851 12.7228 6.51187
75 1 -1.1104 3.76737 10.0708 6.60182
228 2 2.2208 5.07462 11.773 10.835
232 1 -1.1104 0.824087 10.106 12.3074
233 2 2.2208 5.06911 8.83973 8.21966
235 1 -1.1104 0.741298 10.3106 9.4556
238 2 2.2208 2.27863 11.5512 8.21737
240 2 2.2208 2.24167 8.86075 10.8764
242 1 -1.1104 3.66091 10.462 12.0619
244 1 -1.1104 3.53262 10.2734 9.41105
283 1 -1.1104 3.55267 13.005 12.2028
289 1 -1.1104 0.901592 13.0339 9.54405
293 1 -1.1104 0.863616 12.8801 12.2168
299 1 -1.1104 3.66023 13.0081 9.42367
254 1 -1.1104 6.30485 10.4455 9.41361
252 1 -1.1104 6.59476 10.1552 12.0462
321 1 -1.1104 6.29417 13.0689 12.275
320 1 -1.1104 6.5345 13.0742 9.46683
246 1 -1.1104 12.0493 10.1618 6.66572
247 1 -1.1104 9.27906 10.2937 6.39132
311 2 2.2208 10.5904 17.1338 10.9001
327 2 2.2208 7.87892 14.4721 10.8153
428 2 2.2208 5.09604 19.887 13.5544
9166 2 2.2208 13.3699 8.5586 10.6818
255 1 -1.1104 9.16788 10.282 9.20211
261 1 -1.1104 9.43766 10.2491 12.0706
263 2 2.2208 7.88458 8.61095 10.8489
265 2 2.2208 7.80946 11.6063 8.01747
268 2 2.2208 10.691 11.6432 10.7643
272 1 -1.1104 12.1327 10.2201 12.1793
273 2 2.2208 10.6081 8.61303 7.9039
275 1 -1.1104 12.1967 9.93954 9.39269
281 1 -1.1104 9.39063 13.1178 9.32835
312 1 -1.1104 12.1158 13.1226 12.3084
314 1 -1.1104 12.1007 12.9819 9.50848
323 1 -1.1104 9.15405 12.9358 12.0057
296 1 -1.1104 0.897843 18.614 6.45644
118 1 -1.1104 6.53921 18.5146 6.59653
324 1 -1.1104 9.20371 15.8529 9.52549
305 1 -1.1104 9.10978 18.5259 12.2233
303 2 2.2208 2.17641 14.5144 10.8266
297 2 2.2208 2.23069 17.237 7.97909
295 1 -1.1104 3.65624 18.6625 9.42072
291 1 -1.1104 6.48048 18.4697 12.3371
298 1 -1.1104 3.53747 15.7093 9.40725
322 1 -1.1104 6.53422 15.8904 12.1698
300 1 -1.1104 0.787434 15.7262 12.2419
284 1 -1.1104 6.44627 18.4421 9.57424
285 1 -1.1104 6.25849 15.6647 9.23945
301 1 -1.1104 3.57739 15.7922 12.137
290 2 2.2208 4.92855 14.1643 7.94305
302 2 2.2208 2.31083 19.981 10.6151
282 1 -1.1104 3.60348 18.6092 12.2137
286 1 -1.1104 0.740129 18.5788 9.02781
287 1 -1.1104 0.70575 15.7827 9.38515
288 2 2.2208 5.33098 20.0279 7.78972
292 1 -1.1104 0.853512 18.6244 11.9209
294 2 2.2208 4.96142 17.1795 10.6542
310 1 -1.1104 9.25966 18.7112 9.34376
325 1 -1.1104 9.25015 15.6507 12.33
306 2 2.2208 7.97332 17.2264 8.04106
318 2 2.2208 10.7549 20.0828 7.8712
315 1 -1.1104 12.0926 18.3732 9.45594
319 1 -1.1104 11.8994 15.7752 9.53867
316 1 -1.1104 12.1242 15.7957 12.3345
9224 2 2.2208 13.4486 17.2151 7.88187
304 2 2.2208 13.4374 19.965 10.8074
25 2 2.2208 5.11558 0.419044 -0.323289
8820 2 2.2208 4.86926 -5.37127 -0.289224
8966 2 2.2208 13.5406 8.59732 -0.22207
188 2 2.2208 2.08252 0.0579708 13.6024
9025 2 2.2208 13.4868 20.0472 -0.434712
225 2 2.2208 2.31275 5.89257 13.5008
277 2 2.2208 7.87568 11.5461 13.3455
54 2 2.2208 7.77859 3.16695 -0.413988
224 2 2.2208 4.96205 8.82531 13.5843
8904 2 2.2208 13.3676 2.95854 -0.458234
112 2 2.2208 5.19755 17.2202 -0.294786
85 2 2.2208 10.5936 11.4833 -0.377076
187 2 2.2208 4.85308 -2.57097 13.613
245 2 2.2208 7.74808 5.94711 13.6292
26 2 2.2208 2.14799 3.15791 -0.378006
84 2 2.2208 10.6697 5.82246 -0.225274
9171 2 2.2208 13.3413 5.87183 13.4707
111 2 2.2208 2.31689 14.291 -0.291074
189 2 2.2208 5.0145 3.07085 13.5904
330 2 2.2208 4.88543 0.165422 16.5615
331 1 -1.1104 0.809572 -3.91854 17.8439
333 1 -1.1104 0.856644 -3.97001 14.9596
335 1 -1.1104 0.817605 -1.29676 17.8506
336 2 2.2208 4.96832 -2.59256 19.5263
338 1 -1.1104 0.649624 -1.23297 14.7257
339 1 -1.1104 3.66508 -3.70058 17.8159
341 2 2.2208 2.12983 0.184057 19.2456
342 1 -1.1104 3.51229 -3.81921 15.0158
344 2 2.2208 2.18551 -2.46042 16.2355
346 1 -1.1104 3.64112 -1.22288 17.897
347 1 -1.1104 3.45997 -0.917009 14.9618
506 1 -1.1104 6.42879 -3.84757 20.713
481 1 -1.1104 0.663586 -4.20086 20.7541
483 1 -1.1104 0.831861 -1.35609 20.6026
354 1 -1.1104 6.49121 -1.02766 20.8327
486 1 -1.1104 3.58291 -1.23421 20.5575
484 1 -1.1104 3.31511 -4.06452 20.7572
353 1 -1.1104 6.14865 -1.34894 15.3767
348 1 -1.1104 6.49774 -4.13089 17.8669
350 1 -1.1104 6.3983 -3.90986 14.99
352 1 -1.1104 6.51437 -1.30892 18.0533
9287 2 2.2208 13.3952 2.92682 16.518
355 2 2.2208 10.3398 0.242058 16.5688
356 1 -1.1104 12.0468 -3.80638 17.9696
358 1 -1.1104 11.8969 -3.77703 15.0646
362 1 -1.1104 11.9273 -1.10759 17.8217
363 2 2.2208 10.5824 -2.31005 19.3314
365 1 -1.1104 11.9226 -1.01914 14.9802
367 1 -1.1104 9.41941 -3.96452 18.1301
369 2 2.2208 7.60718 0.317318 19.3942
370 1 -1.1104 9.27958 -3.84498 15.3743
374 2 2.2208 7.72083 -2.65557 16.6265
376 1 -1.1104 9.18952 -1.22793 17.9326
377 1 -1.1104 9.07321 -1.27269 15.2863
371 1 -1.1104 9.12603 -3.77163 20.7545
366 1 -1.1104 11.9475 -1.10882 20.6478
9286 2 2.2208 13.2632 -2.42561 16.3527
359 1 -1.1104 11.9026 -3.93657 20.7106
378 1 -1.1104 9.1253 -1.04786 20.767
9288 2 2.2208 13.3149 0.228584 19.2422
332 1 -1.1104 0.701181 1.71722 17.9109
334 1 -1.1104 0.777538 1.59291 15.1252
337 2 2.2208 5.01121 3.28238 19.5762
340 1 -1.1104 3.57852 1.49596 17.849
343 1 -1.1104 3.45518 1.89281 14.9356
345 2 2.2208 2.2904 3.105 16.4445
379 2 2.2208 5.01919 5.70423 16.6478
381 1 -1.1104 0.74402 7.32593 17.9811
382 1 -1.1104 0.598954 7.44328 15.0838
383 1 -1.1104 0.775788 4.33011 17.9851
386 1 -1.1104 0.714038 4.56326 15.1148
389 2 2.2208 2.23953 5.94428 19.3577
391 1 -1.1104 3.33548 7.1575 15.0296
393 1 -1.1104 3.44515 4.46301 17.9899
395 1 -1.1104 3.68035 4.45607 15.0632
388 1 -1.1104 3.56442 7.3282 17.97
401 1 -1.1104 6.54139 4.36827 15.154
399 1 -1.1104 6.26568 4.44052 17.9641
536 1 -1.1104 3.62393 7.19794 20.8062
402 1 -1.1104 6.58205 4.64227 20.8445
485 1 -1.1104 3.58645 1.62487 20.602
482 1 -1.1104 0.670983 1.56532 20.8378
507 1 -1.1104 6.32762 1.91723 20.8278
398 1 -1.1104 6.29248 7.23219 15.1306
397 1 -1.1104 6.34785 6.99432 17.962
349 1 -1.1104 6.29662 1.5364 17.9947
351 1 -1.1104 6.23561 1.51318 15.2725
533 1 -1.1104 0.773496 7.25982 20.5662
454 2 2.2208 13.6459 19.7848 16.6647
621 2 2.2208 7.83399 19.931 22.1292
357 1 -1.1104 11.7544 1.51078 17.7787
360 1 -1.1104 12.0278 1.73332 15.0102
364 2 2.2208 10.6157 3.10302 19.2039
368 1 -1.1104 9.01254 1.59604 17.8718
372 1 -1.1104 8.93386 1.65971 14.9601
375 2 2.2208 7.77267 3.00491 16.4288
404 2 2.2208 10.5938 5.85928 16.47
409 1 -1.1104 12.0261 4.40227 17.9301
412 1 -1.1104 11.9425 4.53544 15.056
417 2 2.2208 7.85037 5.87877 19.3064
422 1 -1.1104 9.0655 4.44535 17.9042
424 1 -1.1104 9.22787 4.43179 15.2118
419 1 -1.1104 9.34797 7.13541 15.0338
407 1 -1.1104 12.0855 7.41415 14.8726
406 1 -1.1104 11.9865 7.0917 17.9185
416 1 -1.1104 9.33398 7.20226 17.7722
361 1 -1.1104 11.8542 1.7148 20.53
425 1 -1.1104 9.27343 4.5831 20.713
413 1 -1.1104 11.9836 4.51591 20.6062
8818 2 2.2208 2.2757 -5.3765 25.0508
9335 2 2.2208 13.4113 5.71135 19.2701
373 1 -1.1104 9.11745 1.88158 20.6251
627 1 -1.1104 9.40652 15.5217 23.3236
380 2 2.2208 4.99601 11.536 16.3376
384 1 -1.1104 0.64447 10.194 17.6361
385 2 2.2208 5.1375 8.74981 19.4079
387 1 -1.1104 0.833004 10.1809 14.9937
390 2 2.2208 2.28822 11.5421 19.252
392 2 2.2208 2.06932 8.60553 16.443
394 1 -1.1104 3.54581 10.1596 17.9366
396 1 -1.1104 3.52694 9.9237 15.0084
430 1 -1.1104 0.824548 13.1836 18.0603
433 1 -1.1104 1.01359 13.2546 15.0555
443 1 -1.1104 3.63228 13.1068 17.8327
446 1 -1.1104 3.93577 13.0458 15.0665
596 1 -1.1104 3.68818 12.917 20.7659
400 1 -1.1104 6.61291 9.87399 17.9587
456 1 -1.1104 6.53733 12.6367 18.0591
457 1 -1.1104 6.66272 12.9313 15.0632
592 1 -1.1104 6.56061 12.9484 20.8025
403 1 -1.1104 6.29892 10.0812 14.8096
564 1 -1.1104 6.63207 10.2175 20.6181
146 2 2.2208 10.5662 17.0202 27.6633
632 1 -1.1104 9.26398 15.5751 26.1767
434 1 -1.1104 0.754564 12.812 20.7228
405 2 2.2208 10.6867 11.4495 16.4957
410 1 -1.1104 12.1316 9.89822 17.8608
411 2 2.2208 10.8717 8.67262 19.3121
414 1 -1.1104 11.9221 10.1973 15.047
418 2 2.2208 8.02494 11.5139 19.2119
421 2 2.2208 7.73913 8.68934 16.2912
423 1 -1.1104 9.35667 10.082 17.7416
426 1 -1.1104 9.2361 9.91858 14.9513
460 1 -1.1104 12.1683 12.7968 17.8459
462 1 -1.1104 11.8344 12.9929 14.9801
469 1 -1.1104 9.38805 12.8988 17.7265
472 1 -1.1104 9.24841 12.5617 14.8833
9344 2 2.2208 13.4664 8.50719 16.3447
427 1 -1.1104 9.46312 9.99494 20.7011
9336 2 2.2208 13.5402 11.5537 19.2836
466 2 2.2208 10.828 14.2891 19.1433
453 2 2.2208 13.5117 14.2966 16.4521
415 1 -1.1104 12.3425 10.0179 20.661
8668 2 2.2208 10.9508 -5.25723 16.799
440 2 2.2208 5.14091 14.321 19.1584
429 2 2.2208 5.19922 17.1907 16.3704
431 1 -1.1104 0.886871 18.3912 17.8906
435 1 -1.1104 0.646353 18.6704 15.1212
438 1 -1.1104 1.11165 15.7598 17.8497
441 2 2.2208 5.13454 19.9284 19.1927
442 1 -1.1104 0.946132 15.8638 14.9707
444 1 -1.1104 3.78853 18.4876 17.726
445 2 2.2208 2.42243 17.1844 19.3374
447 1 -1.1104 3.73497 18.6059 14.8185
448 2 2.2208 2.45226 14.5675 16.4725
449 2 2.2208 2.47108 19.9818 16.3875
450 1 -1.1104 4.05584 15.7972 17.7414
451 1 -1.1104 3.80292 15.7583 14.9337
437 1 -1.1104 6.64707 18.4932 15.0719
458 1 -1.1104 6.64774 15.7037 15.0527
594 1 -1.1104 0.901676 15.8772 20.8348
432 1 -1.1104 6.52876 18.3476 17.9613
597 1 -1.1104 3.91959 18.4424 20.5093
598 1 -1.1104 3.74013 15.5861 20.7845
593 1 -1.1104 6.40751 18.4414 20.8743
439 1 -1.1104 6.61926 15.4597 17.7624
55 2 2.2208 5.27071 11.4882 27.6064
475 2 2.2208 7.96698 14.2131 16.5322
459 2 2.2208 10.6049 17.0259 16.4679
461 1 -1.1104 12.3103 18.5415 18.0111
464 1 -1.1104 12.4531 19.0736 14.9605
465 1 -1.1104 11.9862 15.6646 17.8024
467 2 2.2208 10.7561 19.803 19.2981
468 1 -1.1104 12.2301 15.8389 15.2997
470 1 -1.1104 9.51843 18.6325 17.8725
471 2 2.2208 7.82747 17.1112 19.2076
474 1 -1.1104 9.62549 18.4929 14.9966
476 2 2.2208 8.0076 20.0493 16.303
477 1 -1.1104 9.20694 15.7169 17.8723
478 1 -1.1104 9.49219 15.5211 15.3111
625 1 -1.1104 9.29652 18.4302 20.6797
113 2 2.2208 2.34451 19.9037 27.7008
636 2 2.2208 10.4712 14.2475 13.7879
8936 2 2.2208 -0.412576 0.154354 27.8294
8852 2 2.2208 7.77051 -5.36302 25.0111
487 2 2.2208 4.94173 0.210238 22.1062
488 1 -1.1104 0.631899 -4.22276 23.6551
490 1 -1.1104 1.05057 -3.90821 26.5253
492 1 -1.1104 0.868513 -1.53369 23.5568
493 2 2.2208 4.99047 -2.50314 24.8591
495 1 -1.1104 0.823621 -1.30223 26.4398
496 1 -1.1104 3.72644 -4.02335 23.5828
498 2 2.2208 2.26963 0.127605 24.8979
499 1 -1.1104 3.71517 -3.97282 26.5033
501 2 2.2208 2.0774 -2.78867 22.1273
503 1 -1.1104 3.66213 -1.17263 23.5347
504 1 -1.1104 3.62161 -1.30106 26.0525
512 1 -1.1104 6.48636 -0.943193 23.4518
508 1 -1.1104 6.40899 -3.8213 23.5334
510 1 -1.1104 6.59729 -4.02987 26.3571
513 1 -1.1104 6.57385 -1.11283 26.5295
620 1 -1.1104 11.8989 18.7511 26.4847
615 2 2.2208 7.82516 14.2547 21.9599
226 2 2.2208 2.18674 11.5992 13.6611
514 2 2.2208 10.5267 0.430749 22.1036
515 1 -1.1104 12.145 -3.99131 23.4815
517 1 -1.1104 11.9117 -4.05097 26.3683
519 1 -1.1104 12.0274 -1.06631 23.5095
520 2 2.2208 10.3527 -2.56892 24.8602
522 1 -1.1104 11.8347 -1.02897 26.2079
523 1 -1.1104 9.24571 -3.82344 23.5793
525 2 2.2208 7.84158 0.290821 25.0209
526 1 -1.1104 9.31972 -4.15241 26.2816
528 2 2.2208 7.83587 -2.36257 22.1252
530 1 -1.1104 9.03812 -1.03282 23.6314
531 1 -1.1104 9.25999 -1.1546 26.3728
9419 2 2.2208 13.3124 0.212624 24.8085
8853 2 2.2208 10.5857 -5.17634 22.1787
613 1 -1.1104 9.23579 18.5591 26.1681
629 2 2.2208 10.8513 20.0349 24.9092
9555 2 2.2208 13.6535 14.0467 22.1604
455 2 2.2208 13.5499 17.0593 19.3149
534 1 -1.1104 0.704082 4.35557 20.9442
537 1 -1.1104 3.70237 4.62187 21.0446
489 1 -1.1104 0.889198 1.41104 23.4765
491 1 -1.1104 0.929872 1.59026 26.304
494 2 2.2208 5.06809 2.92369 24.8264
497 1 -1.1104 3.48514 1.37188 23.3942
500 1 -1.1104 3.86633 1.47255 26.259
502 2 2.2208 2.11506 2.87355 22.1333
539 2 2.2208 5.08459 5.94191 22.1597
541 1 -1.1104 0.799383 7.18538 23.6163
544 1 -1.1104 0.812493 4.43652 23.7958
547 1 -1.1104 0.699796 4.41587 26.4912
551 2 2.2208 2.21353 5.8678 24.9941
553 1 -1.1104 3.69396 7.15421 26.095
555 1 -1.1104 3.62316 4.36403 23.6267
557 1 -1.1104 3.68056 4.33692 26.4733
550 1 -1.1104 3.72315 7.34158 23.419
543 1 -1.1104 0.822075 7.04985 26.5371
570 1 -1.1104 6.50424 7.28983 26.2594
542 1 -1.1104 6.54394 7.24805 23.4998
509 1 -1.1104 6.38486 1.753 23.5016
573 1 -1.1104 6.58229 4.59503 26.341
511 1 -1.1104 6.57385 1.66871 26.3244
571 1 -1.1104 6.37724 4.47034 23.594
600 1 -1.1104 6.38019 15.5975 26.1942
630 1 -1.1104 12.1356 15.8328 26.7022
563 1 -1.1104 6.53698 7.5836 20.8123
420 1 -1.1104 9.38693 7.38449 20.6117
408 1 -1.1104 12.1088 7.23725 20.5834
9448 2 2.2208 13.5025 3.05376 22.1205
9478 2 2.2208 13.7036 5.88065 25.0554
516 1 -1.1104 12.0305 1.73221 23.4131
518 1 -1.1104 12.0307 1.71942 26.3109
521 2 2.2208 10.6474 3.19485 25.1646
524 1 -1.1104 9.08123 1.71789 23.5777
527 1 -1.1104 9.20583 1.82341 26.583
529 2 2.2208 7.78627 3.24177 22.1399
561 1 -1.1104 12.1894 4.79462 23.6893
567 2 2.2208 10.8096 5.86043 22.1307
568 2 2.2208 7.8232 5.77821 24.955
576 1 -1.1104 12.1953 4.61385 26.3427
578 1 -1.1104 9.24913 4.37559 26.6467
580 1 -1.1104 9.26341 4.40835 23.8667
582 1 -1.1104 9.49916 7.18657 26.4023
565 1 -1.1104 12.1791 7.22596 23.5996
569 1 -1.1104 9.35262 7.31419 23.3743
562 1 -1.1104 12.4164 7.40877 26.5259
614 2 2.2208 10.7504 17.0499 22.0975
535 1 -1.1104 0.881046 10.1211 20.54
538 1 -1.1104 3.64211 10.1384 20.4234
540 2 2.2208 5.16217 11.4065 22.1162
545 1 -1.1104 0.542133 10.0575 23.3001
546 2 2.2208 5.22125 8.59379 24.9797
548 1 -1.1104 0.966639 9.89211 26.2155
552 2 2.2208 2.02785 11.4788 25.016
554 2 2.2208 2.11745 8.81249 22.1175
556 1 -1.1104 3.51535 10.1791 23.5752
558 1 -1.1104 3.6905 9.83427 26.3612
588 1 -1.1104 0.618133 12.6191 26.3144
601 1 -1.1104 3.58652 12.7529 23.6083
603 1 -1.1104 0.717428 12.7345 23.4925
609 1 -1.1104 3.69836 12.8621 26.4576
572 1 -1.1104 6.47742 9.90636 23.3391
584 1 -1.1104 6.45382 12.5644 23.5421
549 1 -1.1104 6.58567 9.99443 26.2532
633 1 -1.1104 6.67536 12.8073 26.2279
505 2 2.2208 7.94775 16.9698 24.8668
9422 2 2.2208 13.558 -2.54426 22.1995
463 1 -1.1104 12.2752 12.8883 20.6136
56 2 2.2208 2.31643 8.42688 27.7328
473 1 -1.1104 9.61055 12.7201 20.4868
559 2 2.2208 10.8703 8.69347 25.1042
560 1 -1.1104 12.3281 10.0223 23.7117
566 2 2.2208 10.9601 11.3872 21.9541
574 2 2.2208 7.95827 11.4057 24.7334
575 1 -1.1104 12.1823 10.2829 26.4845
577 1 -1.1104 9.31919 9.99594 26.3169
579 1 -1.1104 9.56746 10.1658 23.4485
581 2 2.2208 8.03735 8.66757 22.0554
532 1 -1.1104 9.42146 12.7411 26.2119
617 1 -1.1104 12.1211 12.7517 23.4843
619 1 -1.1104 12.2183 13.1473 26.3659
631 1 -1.1104 9.19515 12.9968 23.2746
9477 2 2.2208 13.6469 11.4903 24.9881
628 2 2.2208 10.6819 14.1924 24.7999
190 2 2.2208 10.6716 3.04017 13.7141
436 1 -1.1104 1.13284 18.5335 20.8339
623 1 -1.1104 11.9244 18.6194 20.9616
328 2 2.2208 2.46984 -2.61492 27.7474
606 1 -1.1104 6.34243 18.6666 26.534
587 1 -1.1104 6.38349 18.3539 23.6088
585 2 2.2208 5.10436 14.1753 25.0328
612 2 2.2208 2.1665 14.2257 22.041
583 1 -1.1104 0.824483 18.3263 23.6898
586 2 2.2208 4.86607 19.8016 25.0271
589 1 -1.1104 0.853778 15.6559 26.3645
590 1 -1.1104 3.98498 15.7245 23.7605
591 1 -1.1104 0.939818 15.5099 23.748
599 1 -1.1104 0.845426 18.5081 26.3646
602 1 -1.1104 3.61803 18.5271 23.4612
604 2 2.2208 2.35341 19.9561 22.0234
607 2 2.2208 5.09395 16.9522 22.1698
608 1 -1.1104 3.65584 18.432 26.37
610 1 -1.1104 3.5562 15.5045 26.4314
611 2 2.2208 2.25195 17.0363 25.0035
605 1 -1.1104 6.5842 15.5335 23.6206
147 2 2.2208 7.80204 14.275 27.5993
616 2 2.2208 13.4939 19.8686 22.1063
626 1 -1.1104 9.19277 15.7127 20.5491
624 1 -1.1104 12.1461 15.568 20.6067
595 1 -1.1104 6.39532 15.8102 20.6814
618 1 -1.1104 12.3361 18.3263 23.578
622 1 -1.1104 12.224 15.5099 23.6266
634 1 -1.1104 9.29545 18.4926 23.3554
8644 2 2.2208 5.18656 -5.29836 16.4946
8905 2 2.2208 13.2799 -2.64848 27.6732
144 2 2.2208 7.86608 20.0588 27.7049
9031 2 2.2208 13.5406 14.406 27.7457
83 2 2.2208 8.00042 8.60645 27.6515
222 2 2.2208 7.60429 -0.0238647 13.8401
452 2 2.2208 10.8026 20.0182 13.6715
480 2 2.2208 13.658 16.9428 13.8117
53 2 2.2208 10.5882 0.381682 27.5983
637 2 2.2208 5.21412 22.7553 5.04627
639 1 -1.1104 1.01767 24.4144 0.866196
640 1 -1.1104 0.804088 24.1807 3.64929
641 1 -1.1104 0.825832 21.4183 0.997601
643 2 2.2208 5.26025 25.6505 2.33819
644 1 -1.1104 0.890686 21.3577 3.91298
646 1 -1.1104 4.00599 24.3193 0.796957
647 2 2.2208 2.13549 22.7314 2.39894
649 1 -1.1104 3.72573 24.2507 3.51792
650 2 2.2208 2.34062 25.688 5.13618
651 1 -1.1104 3.56293 21.5629 0.750086
653 1 -1.1104 3.63432 21.2773 3.58579
642 1 -1.1104 1.24313 27.0523 1.0086
658 1 -1.1104 6.53979 21.3631 0.977171
661 1 -1.1104 6.63587 27.0692 3.6896
666 1 -1.1104 3.63276 24.1524 6.62437
656 1 -1.1104 6.74229 24.1383 0.753693
652 1 -1.1104 4.17572 27.0644 0.871299
691 1 -1.1104 6.69891 26.8635 6.60456
657 1 -1.1104 6.5546 24.2195 3.69601
667 1 -1.1104 3.71803 21.4593 6.32832
664 1 -1.1104 0.882597 21.691 6.65084
662 1 -1.1104 0.674309 24.3021 6.32501
660 1 -1.1104 6.32538 21.4095 3.62197
663 1 -1.1104 6.56227 24.265 6.50116
654 1 -1.1104 3.76405 26.917 3.84839
645 1 -1.1104 0.991285 27.0763 3.78695
665 1 -1.1104 6.39193 21.5264 6.42588
671 2 2.2208 10.7845 22.9107 5.13669
673 1 -1.1104 12.5828 24.4779 0.923643
674 1 -1.1104 12.1093 24.2164 3.74463
675 1 -1.1104 12.188 21.6606 0.661321
677 2 2.2208 10.9143 25.5062 2.20257
678 1 -1.1104 12.3239 21.327 3.68909
680 1 -1.1104 9.41877 24.0992 0.954949
681 2 2.2208 8.11407 22.8015 2.20087
683 1 -1.1104 9.15194 24.3303 3.55632
684 2 2.2208 7.83236 25.6352 5.12946
685 1 -1.1104 9.27724 21.3376 0.950874
687 1 -1.1104 9.45152 21.6564 3.68859
851 1 -1.1104 12.277 24.0959 6.56753
679 1 -1.1104 12.2189 26.9875 3.75765
694 1 -1.1104 9.23687 26.8649 6.35027
693 1 -1.1104 9.11873 21.343 6.29475
689 2 2.2208 13.4888 25.5163 5.12426
692 1 -1.1104 9.21397 23.8705 6.39776
818 2 2.2208 13.5874 45.5045 2.41816
686 1 -1.1104 9.66208 27.0169 0.646567
761 2 2.2208 8.10211 36.9673 -0.314261
659 1 -1.1104 6.864 27.0991 0.789512
676 1 -1.1104 12.2761 27.0674 0.662212
688 1 -1.1104 9.31705 26.9493 3.53516
976 2 2.2208 13.6202 39.6981 8.02134
638 2 2.2208 5.28378 28.487 5.07341
648 2 2.2208 2.66447 28.4467 2.32571
700 1 -1.1104 1.05282 29.8051 0.954751
703 1 -1.1104 1.24709 29.8634 3.64172
706 1 -1.1104 0.922432 32.6348 0.978927
707 2 2.2208 5.24541 31.209 2.2703
709 1 -1.1104 1.24796 32.5394 3.46556
711 1 -1.1104 4.10086 29.8489 0.782142
714 1 -1.1104 4.01433 29.7944 3.61429
716 2 2.2208 2.55727 31.2874 5.03251
718 1 -1.1104 3.84871 32.5763 1.02009
719 1 -1.1104 3.98911 32.7259 3.7565
710 1 -1.1104 6.49653 32.6956 3.55577
724 1 -1.1104 6.88551 32.6468 0.998871
723 1 -1.1104 6.68409 29.8042 3.5749
725 1 -1.1104 6.4554 29.7528 6.39258
722 1 -1.1104 6.81305 29.8583 0.761825
9644 2 2.2208 -0.396713 25.8501 2.39371
872 1 -1.1104 0.998069 30.0385 6.4289
728 1 -1.1104 3.71175 29.9268 6.38209
874 1 -1.1104 0.970292 32.8744 6.46757
787 2 2.2208 -0.457248 39.7532 5.04399
672 2 2.2208 10.5854 28.3232 5.06067
682 2 2.2208 7.99951 28.4211 2.22304
734 1 -1.1104 12.4397 29.7812 0.650149
736 1 -1.1104 12.3546 29.9099 3.38665
738 1 -1.1104 12.4485 32.483 0.964603
739 2 2.2208 10.8802 31.1072 2.24017
741 1 -1.1104 12.3741 32.7839 3.79476
742 1 -1.1104 9.4867 29.7744 1.02769
745 1 -1.1104 9.55299 29.8254 3.74886
747 2 2.2208 8.17981 31.2505 5.01154
749 1 -1.1104 9.78877 32.58 0.938205
750 1 -1.1104 9.31491 32.7475 3.90216
900 1 -1.1104 12.0665 29.8313 6.109
755 1 -1.1104 9.40993 32.5551 6.45507
1007 2 2.2208 2.21336 28.4849 13.543
690 2 2.2208 13.6469 28.4365 2.21623
981 2 2.2208 13.6353 33.9591 8.0998
699 2 2.2208 5.17434 34.1885 5.00271
701 1 -1.1104 0.855242 35.7553 1.0057
704 1 -1.1104 0.870064 35.2115 3.62721
708 2 2.2208 5.28994 36.9997 2.35766
712 1 -1.1104 3.81357 35.3677 0.693834
713 2 2.2208 2.38826 34.2657 2.25131
715 1 -1.1104 3.85099 35.5716 3.66299
717 2 2.2208 2.38857 36.9765 5.08626
764 2 2.2208 5.27457 39.7521 5.1687