ITEM: TIMESTEP
80000
ITEM: NUMBER OF ATOMS
17704
ITEM: BOX BOUNDS pp pp pp
-4.4719286958034649e-01 2.7787192869579812e+01
-5.3919539332141264e+00 3.3347195393321999e+02
-4.4948751829134598e-01 2.7789487518291288e+01
ITEM: ATOMS id type q x y z
1 2 2.2208 5.01971 0.193504 5.19606
2 1 -1.1104 0.64263 -4.12523 1.05014
4 1 -1.1104 1.14017 -4.18389 3.94014
6 1 -1.1104 0.95508 -1.19036 1.19647
7 2 2.2208 5.11402 -2.63943 2.43111
9 1 -1.1104 0.874273 -1.10293 3.84873
10 1 -1.1104 3.71369 -4.21483 1.00144
12 2 2.2208 2.3798 0.0867577 2.4045
13 1 -1.1104 3.73661 -4.03077 3.76141
15 2 2.2208 2.19133 -2.64136 5.32129
17 1 -1.1104 3.71767 -1.25507 0.981982
18 1 -1.1104 3.58001 -1.56266 3.84367
19 1 -1.1104 0.798569 -4.16483 6.63328
51 1 -1.1104 6.47269 -4.0507 6.686
27 1 -1.1104 6.46474 -3.935 0.937167
32 1 -1.1104 6.25386 -1.36212 3.93983
31 1 -1.1104 6.30989 -0.96233 1.46295
29 1 -1.1104 6.54934 -4.0461 3.68451
322 1 -1.1104 6.43857 15.7063 11.9893
191 1 -1.1104 6.46874 -1.33236 6.6164
24 1 -1.1104 3.62012 -1.18858 6.66264
33 2 2.2208 10.7111 0.135837 4.95131
34 1 -1.1104 12.1563 -3.68508 0.835425
36 1 -1.1104 12.1226 -3.92652 3.84865
38 1 -1.1104 11.962 -1.18667 0.995659
39 2 2.2208 10.7065 -2.64518 2.4686
41 1 -1.1104 12.1155 -1.29526 3.81543
42 1 -1.1104 9.31541 -4.0712 1.21252
44 2 2.2208 7.92181 0.156498 2.41542
45 1 -1.1104 9.36039 -4.15944 3.80221
47 2 2.2208 7.68801 -2.73819 5.39185
49 1 -1.1104 9.24541 -1.29727 0.873459
50 1 -1.1104 9.2407 -1.42892 3.75085
201 1 -1.1104 9.21552 -4.08833 6.60921
198 1 -1.1104 11.9838 -3.97656 6.44648
17155 2 2.2208 13.5389 -5.34534 2.47148
82 2 2.2208 5.2481 5.74406 -0.388556
3 1 -1.1104 0.873271 1.60425 0.841949
5 1 -1.1104 1.05459 1.78195 3.73404
8 2 2.2208 5.05931 2.99991 2.32422
11 1 -1.1104 3.588 1.63745 0.99439
14 1 -1.1104 3.68453 1.65838 3.94344
16 2 2.2208 2.41593 3.05509 5.2677
57 2 2.2208 5.0947 5.76242 5.369
61 1 -1.1104 1.05807 4.64191 0.763592
66 1 -1.1104 0.767004 4.56456 3.76119
69 2 2.2208 2.10463 5.97031 2.27764
73 1 -1.1104 3.67998 4.56208 0.985134
76 1 -1.1104 3.7922 4.37785 3.84955
59 1 -1.1104 0.764411 7.45447 0.865378
71 1 -1.1104 3.70884 7.21173 3.93779
68 1 -1.1104 3.68178 7.3371 0.99927
60 1 -1.1104 0.943169 7.51751 3.59815
80 1 -1.1104 3.43037 7.41184 6.73691
87 1 -1.1104 6.50345 7.18756 3.85228
28 1 -1.1104 6.3457 1.59045 0.958336
90 1 -1.1104 6.52061 4.34027 3.86871
30 1 -1.1104 6.43876 1.40301 3.82165
20 1 -1.1104 1.02542 1.65342 6.50694
52 1 -1.1104 6.55951 1.61773 6.78867
88 1 -1.1104 6.66347 4.41766 0.965628
248 1 -1.1104 6.34089 4.36688 6.68462
23 1 -1.1104 3.69985 1.72964 6.63617
81 1 -1.1104 3.55614 4.4907 6.71634
55 2 2.2208 5.08353 11.5591 -0.358464
86 1 -1.1104 6.58393 7.29616 1.00484
35 1 -1.1104 11.8527 1.33337 1.03359
37 1 -1.1104 12.2044 1.67483 3.71953
40 2 2.2208 10.8847 2.97978 2.32365
43 1 -1.1104 8.90509 1.40009 0.66512
46 1 -1.1104 9.55873 1.50846 3.6185
48 2 2.2208 7.69354 3.08814 5.30597
92 2 2.2208 10.7336 5.81784 5.20701
94 1 -1.1104 12.0967 7.05348 0.788542
96 1 -1.1104 12.1052 4.23789 0.890633
99 1 -1.1104 12.1961 4.43176 3.81014
102 2 2.2208 7.97761 5.69117 2.4557
104 1 -1.1104 9.33778 7.10791 3.79565
106 1 -1.1104 9.34748 4.35533 1.05916
108 1 -1.1104 9.2638 4.26343 3.8403
101 1 -1.1104 9.29975 7.30175 1.10156
95 1 -1.1104 12.325 7.17249 3.65473
256 1 -1.1104 12.2046 7.36209 6.52053
258 1 -1.1104 9.30401 7.38721 6.62642
9224 2 2.2208 13.6514 17.0502 7.76153
257 1 -1.1104 12.1628 4.62006 6.65279
202 1 -1.1104 9.31545 1.62684 6.39507
479 2 2.2208 8.03984 17.297 13.4779
58 2 2.2208 5.02763 11.4494 5.21567
62 1 -1.1104 0.61233 10.2832 0.796187
65 2 2.2208 5.01442 8.62767 2.35008
67 1 -1.1104 0.982737 10.2881 3.95106
70 2 2.2208 2.3255 11.5755 2.42899
72 2 2.2208 2.2136 8.8913 5.22756
74 1 -1.1104 3.3706 10.0897 1.11489
77 1 -1.1104 3.87442 10.0275 4.11504
115 1 -1.1104 0.790088 12.891 0.980104
119 1 -1.1104 0.984945 12.9731 3.85293
129 1 -1.1104 3.78606 13.0799 1.23097
134 1 -1.1104 3.72539 12.819 3.81565
64 1 -1.1104 6.43202 10.1184 0.88127
117 1 -1.1104 6.70952 12.9118 0.893326
91 1 -1.1104 6.64585 10.0355 3.64403
121 1 -1.1104 6.53745 13.0114 3.73109
8901 2 2.2208 13.5139 2.88989 5.08086
75 1 -1.1104 3.59992 10.1715 6.66011
63 1 -1.1104 0.861391 10.1804 6.53247
636 2 2.2208 10.5828 14.3491 13.5508
9166 2 2.2208 13.4642 8.80243 10.885
93 2 2.2208 10.651 11.5123 5.14943
97 1 -1.1104 11.8502 9.96648 0.847132
98 2 2.2208 10.7047 8.59581 2.46371
100 1 -1.1104 12.0072 10.049 3.72777
103 2 2.2208 7.78843 11.4747 2.36618
105 2 2.2208 7.92022 8.68965 5.24866
107 1 -1.1104 9.11421 9.88594 1.06336
109 1 -1.1104 9.2518 10.0269 3.751
149 1 -1.1104 11.8814 12.8601 0.957937
152 1 -1.1104 12.1294 12.6541 3.91363
158 1 -1.1104 9.2652 12.8847 0.853465
162 1 -1.1104 9.4065 13.0117 3.67885
9103 2 2.2208 13.614 0.454631 8.00889
83 2 2.2208 7.69412 8.58167 -0.383166
329 2 2.2208 7.86808 -2.70585 -0.364039
125 2 2.2208 5.23869 14.4428 2.39342
136 2 2.2208 2.4138 14.3736 4.95277
114 2 2.2208 5.10268 17.2822 4.95717
116 1 -1.1104 0.972584 18.561 1.01285
120 1 -1.1104 1.02269 18.488 3.85176
122 1 -1.1104 1.34376 15.6798 0.801297
126 2 2.2208 5.02309 20.0659 2.33599
127 1 -1.1104 0.693032 15.6292 3.52661
131 1 -1.1104 3.72674 18.7887 0.919706
133 2 2.2208 2.29657 17.2155 2.32815
135 1 -1.1104 3.69519 18.5988 3.75509
137 2 2.2208 2.40365 20.0048 5.09235
138 1 -1.1104 3.78229 16.1513 0.933079
140 1 -1.1104 3.61021 15.8363 3.66524
123 1 -1.1104 0.726021 15.7247 6.55608
296 1 -1.1104 0.995268 18.7473 6.63204
141 1 -1.1104 6.44603 18.6284 0.916465
142 1 -1.1104 6.61202 18.5514 3.46994
132 1 -1.1104 3.73052 18.6331 6.60573
143 1 -1.1104 6.75936 15.7953 0.622599
128 1 -1.1104 6.61571 15.9497 3.69242
428 2 2.2208 5.03548 20.1078 13.5821
139 1 -1.1104 3.6936 15.8654 6.53346
8903 2 2.2208 13.4618 -2.61231 5.21032
155 2 2.2208 10.6882 14.273 2.29846
164 2 2.2208 8.00687 14.473 5.07488
148 2 2.2208 10.9778 16.9708 5.07811
150 1 -1.1104 12.1963 18.6191 0.715434
153 1 -1.1104 12.4853 18.4334 3.72992
154 1 -1.1104 12.2582 15.7394 0.904009
156 2 2.2208 10.7715 20.0686 2.18685
157 1 -1.1104 12.2373 15.5946 3.79801
159 1 -1.1104 9.35333 18.6893 0.691485
161 2 2.2208 8.04736 17.232 2.02781
163 1 -1.1104 9.5437 18.6687 3.51185
165 2 2.2208 7.93785 19.878 4.90642
166 1 -1.1104 9.51323 15.7794 0.915007
168 1 -1.1104 9.27426 15.8655 3.5545
160 1 -1.1104 9.27126 18.5312 6.54522
9028 2 2.2208 13.5657 17.3029 2.17918
8484 2 2.2208 5.04474 -5.245 10.8923
9168 2 2.2208 13.4611 11.6214 13.3937
8483 2 2.2208 2.1641 -5.37496 8.16958
9172 2 2.2208 13.5781 6.12048 8.16266
21 1 -1.1104 0.915591 -1.11587 6.50428
22 1 -1.1104 3.80317 -3.84932 6.8878
8963 2 2.2208 13.5926 8.80183 5.36111
169 2 2.2208 5.10854 0.247633 10.9538
170 1 -1.1104 0.694406 -3.99114 12.5917
172 1 -1.1104 0.853545 -3.99596 9.58875
174 1 -1.1104 0.963096 -1.40858 12.5899
175 2 2.2208 5.17845 -2.51479 8.11969
177 1 -1.1104 1.00077 -1.32799 9.40106
178 1 -1.1104 3.7317 -4.03758 12.3847
180 2 2.2208 2.37397 0.296306 8.06497
181 1 -1.1104 3.49062 -4.19119 9.74312
183 2 2.2208 2.15553 -2.701 10.9805
185 1 -1.1104 3.67271 -1.35537 12.1474
186 1 -1.1104 3.91856 -0.918848 9.57318
192 1 -1.1104 6.43438 -3.84665 12.3222
280 2 2.2208 5.20415 14.3441 13.6185
194 1 -1.1104 6.28703 -4.03357 9.24206
313 1 -1.1104 12.1696 18.6602 12.2729
200 1 -1.1104 11.9236 -1.16083 6.59956
9225 2 2.2208 13.5201 14.383 10.7734
8933 2 2.2208 -0.453459 0.303719 5.28697
197 1 -1.1104 6.71163 -1.09965 9.48704
196 1 -1.1104 6.64836 -1.02946 12.3343
8934 2 2.2208 -0.374098 3.11796 2.48956
9128 2 2.2208 -0.443441 0.118209 10.7734
203 1 -1.1104 9.27396 -1.41833 6.61792
204 2 2.2208 10.7093 0.158171 10.9082
205 1 -1.1104 12.1901 -4.16958 12.101
207 1 -1.1104 12.0808 -4.03021 9.3211
209 1 -1.1104 12.1261 -1.17168 12.2629
210 2 2.2208 10.7295 -2.54997 8.00742
212 1 -1.1104 12.1838 -1.23774 9.39303
213 1 -1.1104 9.41034 -4.3109 12.0783
215 2 2.2208 8.00927 0.321007 8.01752
216 1 -1.1104 9.02892 -4.06365 9.5823
218 2 2.2208 7.9203 -2.66701 10.9737
220 1 -1.1104 9.39191 -1.23999 12.2942
221 1 -1.1104 9.53226 -1.26109 9.52689
79 1 -1.1104 0.830734 4.6336 6.67702
110 1 -1.1104 6.31336 7.32202 6.61862
316 1 -1.1104 12.3392 16.0129 12.1891
78 1 -1.1104 0.622358 7.46658 6.55656
171 1 -1.1104 0.715004 1.52316 12.1035
173 1 -1.1104 0.707438 1.56136 9.39156
176 2 2.2208 4.88897 3.08084 8.06521
179 1 -1.1104 3.54566 1.25023 12.257
182 1 -1.1104 3.55604 1.63558 9.46238
184 2 2.2208 2.06701 2.88636 10.6769
227 2 2.2208 5.07439 5.81397 10.9512
229 1 -1.1104 0.741747 7.44773 12.1401
230 1 -1.1104 0.845377 7.31407 9.46354
231 1 -1.1104 0.586026 4.60867 12.2722
234 1 -1.1104 0.786845 4.50162 9.52089
236 1 -1.1104 3.65792 7.30779 12.3565
237 2 2.2208 2.23174 5.97108 8.02859
241 1 -1.1104 3.46242 4.42745 12.187
243 1 -1.1104 3.49643 4.50998 9.35918
239 1 -1.1104 3.87115 7.26834 9.55144
251 1 -1.1104 6.40758 4.46184 12.2387
195 1 -1.1104 6.32439 1.79447 9.53035
250 1 -1.1104 6.50244 7.20948 9.44902
253 1 -1.1104 6.45593 4.50637 9.29909
193 1 -1.1104 6.65888 1.79115 12.4474
249 1 -1.1104 6.33236 7.26778 12.2864
9064 2 2.2208 -0.423925 17.0935 5.20192
85 2 2.2208 10.6561 11.3127 -0.418057
260 1 -1.1104 9.14876 4.59021 6.56364
190 2 2.2208 10.485 3.1349 13.5542
199 1 -1.1104 12.0522 1.70389 6.53266
206 1 -1.1104 12.3106 1.55437 12.1581
208 1 -1.1104 11.9555 1.71859 9.44887
211 2 2.2208 10.6708 3.2211 8.01497
214 1 -1.1104 9.38404 1.51504 12.112
217 1 -1.1104 9.25237 1.76757 9.29892
219 2 2.2208 7.82061 3.17743 10.8214
259 1 -1.1104 9.41757 4.70519 9.38746
262 1 -1.1104 9.06156 4.51046 12.2354
264 1 -1.1104 9.36394 7.34657 9.36993
266 2 2.2208 7.86247 6.04681 8.03868
267 2 2.2208 10.641 5.9277 10.8994
271 1 -1.1104 12.1416 4.40506 12.1596
274 1 -1.1104 11.9172 4.60125 9.43286
276 1 -1.1104 9.21113 7.25138 12.2433
269 1 -1.1104 11.9364 7.06044 12.2319
270 1 -1.1104 12.2248 7.39926 9.54518
324 1 -1.1104 9.16711 15.6456 9.20743
291 1 -1.1104 6.64816 18.5495 12.0592
279 1 -1.1104 0.93423 12.9599 6.47583
130 1 -1.1104 3.77624 13.1218 6.46512
145 1 -1.1104 6.49502 12.9196 6.72068
89 1 -1.1104 6.50063 10.2764 6.52917
228 2 2.2208 4.87594 11.5069 10.4743
232 1 -1.1104 0.805354 10.2665 12.0832
233 2 2.2208 5.04944 8.60202 8.03001
235 1 -1.1104 0.517077 10.3863 9.24141
238 2 2.2208 2.06997 11.5594 7.96889
240 2 2.2208 2.1844 8.61324 10.913
242 1 -1.1104 3.59087 9.96608 12.1837
244 1 -1.1104 3.44223 10.0483 9.43284
283 1 -1.1104 3.91745 12.8944 12.235
289 1 -1.1104 0.942257 12.804 9.32176
293 1 -1.1104 1.01907 12.8833 12.1992
299 1 -1.1104 3.76391 13.0823 9.43187
320 1 -1.1104 6.42009 12.9014 9.36079
254 1 -1.1104 6.59688 9.90451 9.40981
252 1 -1.1104 6.23834 9.9813 12.1617
321 1 -1.1104 6.60893 12.8954 12.2458
315 1 -1.1104 12.2841 18.2593 9.22833
326 2 2.2208 7.85432 19.9445 10.6842
304 2 2.2208 13.4548 19.8802 10.7551
246 1 -1.1104 12.2303 10.2926 6.61931
307 1 -1.1104 12.2599 13.0367 6.43814
9171 2 2.2208 13.459 5.83115 13.4438
305 1 -1.1104 9.41199 18.6494 12.0511
317 2 2.2208 10.7918 14.2289 7.91353
309 1 -1.1104 9.44099 12.8329 6.47143
247 1 -1.1104 9.22072 9.99921 6.62513
255 1 -1.1104 9.17159 10.2407 9.44018
261 1 -1.1104 9.1895 10.0216 12.2767
263 2 2.2208 7.82855 8.6305 10.8123
265 2 2.2208 7.89429 11.5131 7.97115
268 2 2.2208 10.5722 11.6617 10.9336
272 1 -1.1104 11.809 10.2236 12.466
273 2 2.2208 10.6774 8.87841 8.04577
275 1 -1.1104 11.8789 10.0804 9.62493
281 1 -1.1104 9.24495 12.9291 9.38245
312 1 -1.1104 12.1129 13.1024 12.1619
314 1 -1.1104 12.1712 12.7681 9.41544
323 1 -1.1104 9.22152 12.9817 12.1917
318 2 2.2208 10.6549 20.0239 7.74506
118 1 -1.1104 6.28737 18.6274 6.28599
288 2 2.2208 5.10899 20.0859 7.93425
287 1 -1.1104 0.966124 15.6559 9.41737
286 1 -1.1104 0.848059 18.6031 9.32779
294 2 2.2208 5.02057 17.1981 10.9029
292 1 -1.1104 0.591233 18.6826 12.0895
282 1 -1.1104 3.61244 18.5987 12.2963
124 1 -1.1104 6.7591 15.704 6.47161
284 1 -1.1104 6.4559 18.4615 9.28072
285 1 -1.1104 6.34784 15.766 9.37975
290 2 2.2208 5.16935 14.5055 7.86769
303 2 2.2208 2.37419 14.2525 10.7836
297 2 2.2208 2.22849 17.2513 7.98014
295 1 -1.1104 3.58507 18.6894 9.5549
298 1 -1.1104 3.78996 15.855 9.48613
300 1 -1.1104 0.836855 15.954 12.1264
301 1 -1.1104 3.70191 15.6594 12.3692
302 2 2.2208 2.24711 20.1643 10.6376
311 2 2.2208 10.7617 17.2983 10.7931
319 1 -1.1104 12.0946 15.5008 9.40656
9029 2 2.2208 13.6766 14.1215 5.08618
310 1 -1.1104 9.43575 18.5297 9.19021
327 2 2.2208 7.81537 14.2743 10.6593
151 1 -1.1104 12.0973 18.2963 6.47546
167 1 -1.1104 9.72673 15.6926 6.32081
308 1 -1.1104 12.3255 15.5399 6.82244
306 2 2.2208 7.96474 17.1822 7.9111
325 1 -1.1104 9.36336 15.8662 11.9313
480 2 2.2208 13.6164 17.2211 13.6183
9104 2 2.2208 13.4743 -2.65639 10.7691
8902 2 2.2208 13.4898 0.0584785 2.34531
8967 2 2.2208 13.5183 11.5003 2.35395
226 2 2.2208 2.36399 11.6164 13.6611
9167 2 2.2208 13.5169 11.522 7.94696
8523 2 2.2208 10.9618 -5.37979 -0.311741
9102 2 2.2208 13.499 3.07492 10.7404
328 2 2.2208 2.24367 -2.62091 -0.15374
225 2 2.2208 2.06339 6.04425 13.6092
113 2 2.2208 2.25673 20.0197 -0.364935
224 2 2.2208 5.01317 8.83 13.6696
53 2 2.2208 10.5263 0.146988 -0.348963
188 2 2.2208 2.06628 0.252865 13.6482
84 2 2.2208 10.7657 5.731 -0.423273
146 2 2.2208 10.8056 17.2065 -0.430008
144 2 2.2208 7.8818 19.9852 -0.439401
330 2 2.2208 4.93568 0.251453 16.3751
331 1 -1.1104 0.955083 -3.9361 18.2178
333 1 -1.1104 0.762534 -3.85714 15.1905
335 1 -1.1104 0.86412 -0.925933 17.8181
336 2 2.2208 5.11793 -2.58296 19.3126
338 1 -1.1104 0.540781 -0.618766 15.103
339 1 -1.1104 3.72104 -4.07808 17.7258
341 2 2.2208 2.47782 0.285642 19.2961
342 1 -1.1104 3.54029 -3.86339 15.0273
344 2 2.2208 2.19343 -2.65121 16.4904
346 1 -1.1104 3.65009 -1.28086 18.0158
347 1 -1.1104 3.54003 -1.09182 15.0195
350 1 -1.1104 6.34682 -3.71554 15.1255
483 1 -1.1104 1.15109 -1.26043 20.5401
348 1 -1.1104 6.79589 -3.95439 17.9619
352 1 -1.1104 6.52464 -1.20095 17.9379
353 1 -1.1104 6.33014 -1.03443 15.0903
8904 2 2.2208 13.5831 2.77422 27.6729
481 1 -1.1104 1.01963 -4.19224 20.7863
506 1 -1.1104 6.57259 -4.26418 20.6594
616 2 2.2208 13.4429 20.0464 22.2788
8642 2 2.2208 2.23185 -5.25748 13.6722
355 2 2.2208 10.6802 0.222859 16.5776
356 1 -1.1104 12.2512 -3.92168 17.9286
358 1 -1.1104 12.2144 -4.00101 15.005
362 1 -1.1104 12.2561 -1.30832 17.7725
363 2 2.2208 10.6172 -2.78328 19.0046
365 1 -1.1104 11.9411 -1.28148 15.1919
367 1 -1.1104 9.265 -4.21899 17.981
369 2 2.2208 7.86727 0.0327392 19.2681
370 1 -1.1104 9.26739 -4.10973 15.0448
374 2 2.2208 7.95773 -2.60482 16.576
376 1 -1.1104 9.57465 -1.3914 17.8008
377 1 -1.1104 9.13069 -1.2538 15.1139
187 2 2.2208 5.07569 -2.48605 13.6784
378 1 -1.1104 9.21715 -1.3266 20.7097
354 1 -1.1104 6.54442 -1.40513 20.8451
222 2 2.2208 8.01565 0.151921 13.7562
8515 2 2.2208 7.87562 -5.36022 13.6577
371 1 -1.1104 9.25359 -4.0292 20.5915
359 1 -1.1104 12.2049 -3.91605 20.6333
9448 2 2.2208 13.6479 3.24223 22.0574
9031 2 2.2208 13.4692 14.3234 27.6954
9571 2 2.2208 -0.32191 14.3379 24.817
26 2 2.2208 2.32651 3.03231 27.7265
332 1 -1.1104 1.02065 1.90435 17.9233
334 1 -1.1104 0.596697 2.12765 15.1081
337 2 2.2208 5.02624 3.15775 19.3019
340 1 -1.1104 3.7516 1.68027 17.8623
343 1 -1.1104 3.39038 1.75743 15.0124
345 2 2.2208 2.14452 3.20956 16.5587
379 2 2.2208 4.95224 6.07204 16.6427
382 1 -1.1104 0.771274 7.81023 15.1019
383 1 -1.1104 0.696459 4.69422 18.038
386 1 -1.1104 0.813781 4.82871 15.2197
389 2 2.2208 2.29753 6.05492 19.5006
391 1 -1.1104 3.67828 7.22485 14.9524
393 1 -1.1104 3.67539 4.44876 17.8052
395 1 -1.1104 3.5708 4.60533 15.1566
485 1 -1.1104 3.70586 1.66335 20.6888
537 1 -1.1104 3.87088 4.68822 20.609
398 1 -1.1104 6.46287 7.35668 15.315
401 1 -1.1104 6.46946 4.52089 15.178
349 1 -1.1104 6.35438 1.55836 17.8982
563 1 -1.1104 6.29916 7.19868 20.7072
399 1 -1.1104 6.53794 4.30487 18.1332
351 1 -1.1104 6.31274 1.70577 15.0181
381 1 -1.1104 0.892724 7.33507 17.7935
536 1 -1.1104 3.56045 7.49285 20.7078
534 1 -1.1104 0.965895 4.52572 20.6695
533 1 -1.1104 0.824837 7.36352 20.6316
397 1 -1.1104 6.47185 7.19793 17.8979
357 1 -1.1104 12.1273 1.51914 17.8806
360 1 -1.1104 12.1823 1.37558 15.0701
364 2 2.2208 10.7703 2.98593 19.3378
368 1 -1.1104 9.40352 1.59184 17.9441
372 1 -1.1104 9.278 1.7204 15.19
375 2 2.2208 7.6616 2.8929 16.5199
404 2 2.2208 10.5307 5.70872 16.4994
409 1 -1.1104 12.1135 4.5018 17.6878
412 1 -1.1104 11.9289 4.22301 14.9903
417 2 2.2208 7.89087 5.80435 19.268
422 1 -1.1104 9.0051 4.56551 17.91
424 1 -1.1104 9.14267 4.38151 15.0878
419 1 -1.1104 9.14595 7.40493 15.0987
406 1 -1.1104 12.1184 7.39691 17.584
416 1 -1.1104 9.39209 7.53188 18.2068
407 1 -1.1104 11.9953 7.12444 14.9314
9552 2 2.2208 13.5228 17.1682 24.8881
408 1 -1.1104 12.2246 7.07419 20.6902
373 1 -1.1104 9.4287 1.56103 20.6423
425 1 -1.1104 9.53649 4.47351 20.5386
9555 2 2.2208 13.6097 14.448 22.1801
8643 2 2.2208 2.44805 -5.34667 19.4455
625 1 -1.1104 9.02544 18.5523 20.5882
388 1 -1.1104 3.80783 7.50018 17.8092
380 2 2.2208 5.14042 11.7375 16.6563
384 1 -1.1104 1.06774 10.2536 17.6134
385 2 2.2208 5.18608 8.7181 19.3861
387 1 -1.1104 0.548289 10.5193 14.6621
390 2 2.2208 2.42283 11.7589 19.225
392 2 2.2208 2.29617 8.89683 16.4328
394 1 -1.1104 4.0106 10.1736 17.8887
396 1 -1.1104 3.44812 10.1924 15.0389
430 1 -1.1104 0.923423 13.0195 17.9225
433 1 -1.1104 1.07619 13.2807 15.2492
443 1 -1.1104 3.89043 13.2664 18.1543
446 1 -1.1104 3.58502 12.9859 15.3916
538 1 -1.1104 3.76741 10.2379 20.5252
535 1 -1.1104 0.970088 10.0946 20.3145
457 1 -1.1104 6.50427 12.9164 15.099
403 1 -1.1104 6.27566 10.2616 15.1889
592 1 -1.1104 6.56414 13.0767 20.7293
434 1 -1.1104 1.07207 12.9749 20.7399
400 1 -1.1104 6.6702 10.1288 18.3165
456 1 -1.1104 6.65251 12.9626 17.851
405 2 2.2208 10.5508 11.402 16.429
410 1 -1.1104 12.0828 10.2063 17.9848
411 2 2.2208 10.8182 8.63389 19.3906
414 1 -1.1104 11.7877 10.0524 15.3705
418 2 2.2208 7.86508 11.5532 19.3596
421 2 2.2208 7.80625 8.79779 16.5578
423 1 -1.1104 9.29346 10.1317 17.7975
426 1 -1.1104 8.91878 10.2037 15.065
460 1 -1.1104 12.2687 13.0434 17.8583
462 1 -1.1104 12.1458 12.9182 14.8544
469 1 -1.1104 9.26384 12.8883 17.8995
472 1 -1.1104 9.30021 12.765 15.2051
463 1 -1.1104 12.199 12.9755 20.6414
9335 2 2.2208 13.4257 5.98156 19.2019
564 1 -1.1104 6.52585 9.96347 20.7817
427 1 -1.1104 9.48348 10.1388 20.636
627 1 -1.1104 9.37553 15.8805 23.3896
17674 2 2.2208 13.6289 -5.35287 24.8401
440 2 2.2208 5.22507 14.4225 19.3523
429 2 2.2208 5.19758 17.1389 16.3101
431 1 -1.1104 1.00324 18.8627 18.1265
435 1 -1.1104 0.782853 18.705 15.3813
438 1 -1.1104 0.94702 15.9479 17.9715
441 2 2.2208 4.8939 20.3281 19.434
442 1 -1.1104 0.775665 16.0972 14.9996
444 1 -1.1104 3.69664 18.8279 17.8728
445 2 2.2208 2.59897 17.3427 19.2418
447 1 -1.1104 3.6823 18.6851 15.1628
448 2 2.2208 2.21444 14.6459 16.4663
449 2 2.2208 2.16359 20.0209 16.6048
450 1 -1.1104 3.61421 15.8847 17.9167
451 1 -1.1104 3.74649 15.8935 15.1975
439 1 -1.1104 6.31412 15.6377 17.9886
458 1 -1.1104 6.49115 15.8203 15.1302
437 1 -1.1104 6.38225 18.5972 14.8478
622 1 -1.1104 12.2692 15.7986 23.5348
8966 2 2.2208 13.4505 8.64832 27.7491
615 2 2.2208 8.01831 14.5425 22.03
432 1 -1.1104 6.37777 18.5898 17.4634
8644 2 2.2208 5.04642 -5.34186 16.4567
466 2 2.2208 10.783 14.494 19.3303
475 2 2.2208 8.10754 14.249 16.4639
459 2 2.2208 10.751 17.1543 16.4416
461 1 -1.1104 12.1237 18.7054 17.7598
464 1 -1.1104 11.9136 18.4567 14.9474
465 1 -1.1104 12.0812 15.7817 17.8315
467 2 2.2208 10.7611 20.0378 19.1526
468 1 -1.1104 12.2457 15.678 14.9885
470 1 -1.1104 9.31797 18.6285 17.7186
471 2 2.2208 7.80139 17.2754 19.0416
474 1 -1.1104 9.1473 18.5501 15.0442
476 2 2.2208 7.73887 20.1688 16.4164
477 1 -1.1104 9.21811 15.8426 17.8437
478 1 -1.1104 9.44457 15.6011 14.8594
9477 2 2.2208 13.3042 11.6129 24.9857
455 2 2.2208 13.4883 17.2986 19.1301
9456 2 2.2208 -0.419856 0.339317 22.1889
9422 2 2.2208 13.643 -2.58318 21.8861
484 1 -1.1104 3.817 -3.91071 20.6927
620 1 -1.1104 12.3174 18.681 26.263
9287 2 2.2208 13.4531 2.92878 16.5052
613 1 -1.1104 9.63127 18.6183 26.3818
629 2 2.2208 10.6177 20.119 24.9765
9344 2 2.2208 13.4637 8.84082 16.3356
630 1 -1.1104 12.2804 15.8183 26.3545
486 1 -1.1104 3.8616 -1.17221 20.7975
487 2 2.2208 5.2724 0.213163 22.1449
488 1 -1.1104 1.01852 -4.16701 23.6882
490 1 -1.1104 0.872708 -3.82373 26.5798
492 1 -1.1104 1.14597 -1.29943 23.4607
493 2 2.2208 5.02932 -2.57332 24.9983
495 1 -1.1104 0.780998 -0.988134 26.4843
496 1 -1.1104 3.80016 -4.00916 23.6372
498 2 2.2208 2.11735 0.223826 24.9801
499 1 -1.1104 3.65964 -4.11059 26.5646
501 2 2.2208 2.37246 -2.69799 22.2041
503 1 -1.1104 3.83381 -1.202 23.5026
504 1 -1.1104 3.47071 -1.32264 26.3991
512 1 -1.1104 6.63125 -1.2259 23.9496
9336 2 2.2208 13.4329 11.5903 19.2242
366 1 -1.1104 12.0407 -1.18228 20.5572
632 1 -1.1104 9.57911 15.9445 26.2471
147 2 2.2208 8.12955 14.4508 27.6653
618 1 -1.1104 12.1238 18.8119 23.499
508 1 -1.1104 6.67225 -4.02205 23.593
513 1 -1.1104 6.26726 -1.30335 26.7101
510 1 -1.1104 6.48639 -4.14511 26.6105
514 2 2.2208 10.8862 0.132411 22.0673
515 1 -1.1104 12.2694 -4.02065 23.2544
517 1 -1.1104 12.4473 -3.88774 25.9873
519 1 -1.1104 12.17 -1.29292 23.5713
520 2 2.2208 10.7823 -2.57263 24.8947
522 1 -1.1104 12.3904 -1.13319 26.7984
523 1 -1.1104 9.35866 -4.04866 23.5633
525 2 2.2208 7.98797 0.278423 24.9397
526 1 -1.1104 9.38757 -4.05559 26.7069
528 2 2.2208 7.98795 -2.71635 22.0551
530 1 -1.1104 9.45867 -1.08487 23.4764
531 1 -1.1104 9.46052 -1.05288 26.2974
9419 2 2.2208 13.4739 0.104306 24.9349
621 2 2.2208 7.71977 20.0035 22.0548
9457 2 2.2208 -0.293885 -2.66022 24.9743
402 1 -1.1104 6.68518 4.19859 20.7923
482 1 -1.1104 1.11099 1.56479 20.99
489 1 -1.1104 0.824829 1.74649 23.8263
491 1 -1.1104 0.659213 1.7968 26.5201
494 2 2.2208 5.01868 3.09487 24.9033
497 1 -1.1104 3.62141 1.57722 23.4622
500 1 -1.1104 3.57073 1.51286 26.378
502 2 2.2208 2.2197 3.11119 22.2697
539 2 2.2208 5.05124 5.9196 22.2504
541 1 -1.1104 0.808711 7.38073 23.5262
544 1 -1.1104 0.877157 4.33086 23.5038
547 1 -1.1104 1.19947 4.46788 26.2544
551 2 2.2208 2.27258 5.93784 24.8058
553 1 -1.1104 3.81364 7.35604 26.4137
555 1 -1.1104 3.59624 4.42268 23.5513
557 1 -1.1104 3.94131 4.43495 26.3944
550 1 -1.1104 3.50488 7.41089 23.5158
543 1 -1.1104 0.941235 7.36751 26.4175
511 1 -1.1104 6.29898 1.5011 26.301
573 1 -1.1104 6.57391 4.35558 26.6028
571 1 -1.1104 6.23359 4.54837 23.5523
9577 2 2.2208 -0.423486 17.0333 22.1219
277 2 2.2208 7.71003 11.369 13.7359
420 1 -1.1104 9.30405 6.98888 20.8407
413 1 -1.1104 12.3949 4.34474 20.3847
507 1 -1.1104 6.52136 1.48406 20.7021
9478 2 2.2208 13.4696 5.7492 24.9636
453 2 2.2208 13.4468 14.1986 16.2603
509 1 -1.1104 6.73796 1.76053 23.4555
570 1 -1.1104 6.40831 7.3186 26.4903
361 1 -1.1104 12.0506 1.54362 20.5999
542 1 -1.1104 6.3797 7.16259 23.742
516 1 -1.1104 12.1804 1.57011 23.3894
518 1 -1.1104 12.0347 1.62084 26.3175
521 2 2.2208 10.9086 2.83844 24.8701
524 1 -1.1104 9.56362 1.70776 23.2722
527 1 -1.1104 9.29591 1.63312 26.0044
529 2 2.2208 8.04144 2.8593 22.0817
561 1 -1.1104 12.3041 4.45264 23.3427
567 2 2.2208 10.7815 5.82155 21.9773
568 2 2.2208 7.84075 5.82699 24.9877
576 1 -1.1104 12.2162 4.13313 26.3765
578 1 -1.1104 9.44518 4.3577 26.2774
580 1 -1.1104 9.52481 4.49052 23.366
582 1 -1.1104 9.07393 7.17942 26.5424
565 1 -1.1104 12.283 7.26247 23.5985
569 1 -1.1104 9.34824 7.30285 23.665
562 1 -1.1104 12.0016 7.00333 26.3274
9499 2 2.2208 13.5144 8.48937 22.2238
596 1 -1.1104 3.67607 12.9785 20.9168
540 2 2.2208 5.06492 11.5521 22.1324
545 1 -1.1104 0.744244 10.2212 23.3033
546 2 2.2208 5.11265 8.65954 25.0473
548 1 -1.1104 0.963828 10.0248 26.205
552 2 2.2208 2.3648 11.5229 24.9266
554 2 2.2208 2.21587 8.87158 21.9904
556 1 -1.1104 3.73357 10.0486 23.3428
558 1 -1.1104 3.62714 10.2154 26.4232
588 1 -1.1104 0.885176 12.9259 26.2937
601 1 -1.1104 3.83736 13.0232 23.6719
603 1 -1.1104 0.950134 12.8564 23.5128
609 1 -1.1104 3.8131 12.8743 26.3873
572 1 -1.1104 6.48982 10.086 23.5743
584 1 -1.1104 6.8896 13.0447 23.468
549 1 -1.1104 6.31042 10.1525 26.2749
633 1 -1.1104 6.54404 13.3156 26.5292
585 2 2.2208 5.14509 14.4836 24.9126
56 2 2.2208 2.12383 8.79604 27.7129
9391 2 2.2208 -0.351947 20.227 19.4703
473 1 -1.1104 9.56028 12.9889 20.5913
415 1 -1.1104 12.0742 10.17 20.7556
559 2 2.2208 10.6428 8.53601 25.0037
560 1 -1.1104 12.2042 10.0373 23.6264
566 2 2.2208 10.6636 11.6355 22.0367
574 2 2.2208 7.94648 11.574 24.9378
575 1 -1.1104 12.0092 10.0959 26.4234
577 1 -1.1104 9.21077 10.1385 26.2003
579 1 -1.1104 9.31696 10.3972 23.5357
581 2 2.2208 8.01749 8.67002 22.0906
532 1 -1.1104 9.38955 12.8452 26.2715
617 1 -1.1104 12.1185 12.9779 23.4303
619 1 -1.1104 12.069 13.079 26.2949
631 1 -1.1104 9.43479 13.1304 23.2744
597 1 -1.1104 3.68751 18.7949 20.811
595 1 -1.1104 6.25382 15.9313 20.7037
606 1 -1.1104 6.55491 18.7432 26.3624
594 1 -1.1104 0.880885 15.7822 20.7383
436 1 -1.1104 0.976548 18.6894 20.8313
598 1 -1.1104 3.63849 15.7759 20.6486
612 2 2.2208 2.35314 14.336 22.0381
583 1 -1.1104 0.768094 18.6694 23.723
586 2 2.2208 5.06596 20.2289 25.0599
589 1 -1.1104 1.31391 15.6197 26.1472
590 1 -1.1104 3.74352 15.9439 23.4701
591 1 -1.1104 1.07895 15.696 23.4704
599 1 -1.1104 0.913076 18.6467 26.357
602 1 -1.1104 3.51825 18.7908 23.6405
604 2 2.2208 2.16088 20.2547 22.3343
607 2 2.2208 4.99143 17.4033 22.0862
608 1 -1.1104 3.82736 18.4967 26.1764
610 1 -1.1104 3.98886 15.7439 26.3481
611 2 2.2208 2.43847 17.271 24.8631
587 1 -1.1104 6.5213 18.4691 23.4483
600 1 -1.1104 6.75972 15.9387 26.404
605 1 -1.1104 6.70361 15.8018 23.7137
593 1 -1.1104 6.29558 18.8386 20.409
623 1 -1.1104 12.1846 18.6427 20.5977
628 2 2.2208 10.7331 14.4054 24.8797
505 2 2.2208 8.16566 17.2295 24.8501
624 1 -1.1104 12.2067 15.9214 20.9438
626 1 -1.1104 9.22698 16.0371 20.5174
614 2 2.2208 10.6564 17.3781 21.9869
634 1 -1.1104 9.27272 18.6323 23.3119
9288 2 2.2208 13.4881 0.206905 19.2184
9066 2 2.2208 -0.425631 17.1267 27.529
54 2 2.2208 8.08709 2.95035 27.6188
245 2 2.2208 7.84252 6.02817 13.6672
9532 2 2.2208 -0.384408 5.80319 21.944
9365 2 2.2208 -0.450421 8.78088 19.077
189 2 2.2208 4.96027 3.13109 13.9305
9415 2 2.2208 -0.415031 14.6012 19.1471
9455 2 2.2208 -0.370184 3.14949 25.0644
278 2 2.2208 10.5406 8.73056 13.6885
223 2 2.2208 10.7958 -2.70198 13.7218
9025 2 2.2208 13.6294 20.1452 27.6211
635 2 2.2208 2.06741 17.2609 13.7431
452 2 2.2208 10.6923 20.0182 13.7752
112 2 2.2208 5.19269 17.3704 27.716
111 2 2.2208 2.53633 14.3525 27.7113
25 2 2.2208 4.90086 0.223055 27.7701
637 2 2.2208 5.16107 22.9254 5.18852
639 1 -1.1104 0.801751 24.26 1.10509
640 1 -1.1104 0.753912 24.3988 3.87939
641 1 -1.1104 0.933873 21.4617 1.09864
643 2 2.2208 5.24938 25.7176 2.35872
644 1 -1.1104 0.932337 21.1509 3.75204
646 1 -1.1104 3.73829 24.4411 1.00002
647 2 2.2208 2.38595 22.9838 2.52403
649 1 -1.1104 3.68628 24.3889 3.77511
650 2 2.2208 2.26641 25.8625 5.23464
651 1 -1.1104 3.58677 21.5927 0.771586
653 1 -1.1104 3.66232 21.4097 3.77716
642 1 -1.1104 0.722834 27.0881 0.747289
645 1 -1.1104 0.521436 27.0841 3.66617
666 1 -1.1104 3.73836 24.4961 6.65261
664 1 -1.1104 1.00513 21.576 6.48451
658 1 -1.1104 6.37971 21.5777 1.18042
660 1 -1.1104 6.46808 21.5229 3.96359
652 1 -1.1104 3.64808 27.1321 1.05269
656 1 -1.1104 6.53069 24.311 0.912802
657 1 -1.1104 6.51874 24.3082 3.78142
665 1 -1.1104 6.6173 21.3215 6.29318
826 1 -1.1104 0.887022 27.1255 6.64108
661 1 -1.1104 6.29495 27.3434 3.64904
663 1 -1.1104 6.66528 24.4019 6.37924
1008 2 2.2208 2.23351 22.9701 13.5446
671 2 2.2208 10.8459 22.8324 5.04994
673 1 -1.1104 12.2136 24.3481 0.985165
674 1 -1.1104 12.2661 24.1233 3.62916
675 1 -1.1104 12.1228 21.4896 0.834314
677 2 2.2208 10.8401 25.5332 2.50685
678 1 -1.1104 12.2334 21.0991 3.48542
680 1 -1.1104 9.29081 24.3776 0.997454
681 2 2.2208 7.86985 22.8894 2.30399
683 1 -1.1104 9.31517 24.1459 3.74883
684 2 2.2208 7.84848 25.6494 5.07229
685 1 -1.1104 9.24767 21.5843 0.81139
687 1 -1.1104 9.07308 21.3497 3.59764
679 1 -1.1104 12.0052 27.0303 4.06111
686 1 -1.1104 9.24696 27.0476 0.961476
693 1 -1.1104 9.41075 21.4306 6.51258
694 1 -1.1104 9.40011 27.0092 6.64257
851 1 -1.1104 12.3393 23.8946 6.40888
944 2 2.2208 2.00799 39.7552 13.6548
688 1 -1.1104 9.09956 27.1809 3.73646
676 1 -1.1104 12.0952 27.2386 1.1876
1532 1 -1.1104 6.27054 46.803 12.4405
691 1 -1.1104 6.50459 27.1473 6.56747
692 1 -1.1104 9.47671 24.1666 6.59461
853 1 -1.1104 12.2656 26.6857 6.80364
689 2 2.2208 13.669 25.5207 5.29492
868 2 2.2208 13.5878 22.8869 8.10704
654 1 -1.1104 3.44034 27.0986 3.72496
668 1 -1.1104 3.83269 27.2525 6.56064
659 1 -1.1104 6.51782 26.9648 0.814618
869 2 2.2208 13.451 28.4881 7.73287
638 2 2.2208 5.22524 28.5937 5.38011
648 2 2.2208 2.23799 28.6026 2.45161
700 1 -1.1104 0.646281 29.9103 0.922984
703 1 -1.1104 0.799652 29.9145 3.776
706 1 -1.1104 0.929273 32.5461 1.19741
707 2 2.2208 5.17172 31.2763 2.42874
709 1 -1.1104 0.81161 32.7576 3.68077
711 1 -1.1104 3.57223 29.8304 0.892044
714 1 -1.1104 3.64183 30.1922 3.70551
716 2 2.2208 2.28772 31.5027 5.26878
718 1 -1.1104 3.65804 32.9267 0.947125
719 1 -1.1104 3.72797 32.9467 3.85628
722 1 -1.1104 6.36035 29.857 1.00547
725 1 -1.1104 6.46119 30.1399 6.61139
710 1 -1.1104 6.36802 32.8608 3.55349
874 1 -1.1104 0.768874 32.8863 6.46984
728 1 -1.1104 3.67391 30.1094 6.37153
1006 2 2.2208 4.86836 25.6072 13.3974
981 2 2.2208 13.3649 34.2359 8.10947
698 2 2.2208 10.591 22.8831 -0.387411
723 1 -1.1104 6.60409 30.0649 4.11406
900 1 -1.1104 11.8865 29.792 6.28745
724 1 -1.1104 6.63354 32.6781 0.640636
672 2 2.2208 10.5212 28.454 5.23034
682 2 2.2208 7.84633 28.6445 2.35014
734 1 -1.1104 12.1495 29.9956 0.898021
736 1 -1.1104 11.988 29.8672 3.56489
738 1 -1.1104 12.0315 32.9778 0.704521
739 2 2.2208 10.6726 31.483 2.50137
741 1 -1.1104 11.9134 32.7453 4.01338
742 1 -1.1104 9.32795 29.9648 1.02114
745 1 -1.1104 9.25305 30.0661 3.82087
747 2 2.2208 7.88259 31.4631 5.13531
749 1 -1.1104 9.12152 32.7941 0.846969
750 1 -1.1104 9.29523 32.9198 3.64526
1358 1 -1.1104 11.6445 46.7752 1.21238
753 1 -1.1104 9.31284 29.8267 6.61992
932 1 -1.1104 6.14102 41.2868 12.3427
1544 1 -1.1104 12.2372 46.8127 9.62615
699 2 2.2208 5.02499 34.3549 5.16069