ITEM: TIMESTEP
100000
ITEM: NUMBER OF ATOMS
17704
ITEM: BOX BOUNDS pp pp pp
-4.4636730650509693e-01 2.7786367306504726e+01
-5.3064665280487731e+00 3.3338646652806079e+02
-4.3861868122980380e-01 2.7778618681229847e+01
ITEM: ATOMS id type q x y z
1 2 2.2208 5.43949 0.197862 5.55193
2 1 -1.1104 0.969722 -3.9564 0.996837
4 1 -1.1104 1.11847 -3.82149 4.20027
6 1 -1.1104 1.2918 -1.02903 1.06749
7 2 2.2208 5.32079 -2.57949 2.57289
9 1 -1.1104 1.06081 -1.13203 3.94092
10 1 -1.1104 3.77408 -3.77002 1.08993
12 2 2.2208 2.49597 0.414941 2.64172
13 1 -1.1104 3.86014 -3.95439 3.95525
15 2 2.2208 2.60222 -2.45186 5.47453
17 1 -1.1104 3.89078 -0.944418 1.10296
18 1 -1.1104 3.81934 -1.04865 3.89952
29 1 -1.1104 6.67981 -3.8648 3.91847
8351 2 2.2208 10.9773 -5.27632 5.45176
305 1 -1.1104 9.78459 18.9788 12.2196
25 2 2.2208 5.34858 0.166836 -0.224035
8315 2 2.2208 2.42635 -5.29147 2.6627
9128 2 2.2208 -0.351792 0.290252 10.9414
31 1 -1.1104 6.82011 -0.8897 1.16011
27 1 -1.1104 6.75662 -3.74817 1.08121
32 1 -1.1104 6.80252 -1.03263 4.04811
33 2 2.2208 11.132 0.558712 5.27964
34 1 -1.1104 12.362 -4.02528 1.07712
36 1 -1.1104 12.4569 -3.92398 4.0657
38 1 -1.1104 12.3201 -1.1228 1.02973
39 2 2.2208 10.8984 -2.47732 2.52801
41 1 -1.1104 12.3066 -1.05342 3.81738
42 1 -1.1104 9.5198 -3.80522 1.36152
44 2 2.2208 8.06032 0.192632 2.51857
45 1 -1.1104 9.62613 -4.10406 4.06881
47 2 2.2208 8.24912 -2.73215 5.33266
49 1 -1.1104 9.52485 -0.994989 0.935465
50 1 -1.1104 9.52151 -1.4063 4.0068
203 1 -1.1104 9.57552 -1.29577 6.83771
201 1 -1.1104 9.45872 -4.06922 6.74508
54 2 2.2208 8.17401 3.0626 -0.114374
82 2 2.2208 5.2017 6.00566 -0.376813
3 1 -1.1104 1.14677 1.68616 1.17286
5 1 -1.1104 1.23218 1.74706 4.00496
8 2 2.2208 5.17747 3.13009 2.54831
11 1 -1.1104 3.8387 1.83214 1.15669
14 1 -1.1104 3.75652 1.73714 4.10007
16 2 2.2208 2.55449 3.24815 5.52996
57 2 2.2208 5.17114 6.0052 5.15844
61 1 -1.1104 1.14174 4.60399 1.03222
66 1 -1.1104 1.17289 4.44451 4.02046
69 2 2.2208 2.42688 5.7807 2.58844
73 1 -1.1104 3.88419 4.73178 1.19941
76 1 -1.1104 3.74946 4.46277 3.94646
71 1 -1.1104 3.88526 7.34579 3.75572
68 1 -1.1104 4.06136 7.55719 0.811058
60 1 -1.1104 1.1921 7.17235 3.95851
59 1 -1.1104 1.09685 7.1781 1.26145
23 1 -1.1104 3.96878 1.56867 6.9827
8998 2 2.2208 -0.333459 8.45809 2.66138
9196 2 2.2208 -0.2634 6.02661 10.8916
8934 2 2.2208 -0.286883 3.02048 2.39657
80 1 -1.1104 3.92265 7.52953 6.56994
81 1 -1.1104 3.7748 4.69418 6.71987
17155 2 2.2208 13.6342 -5.2833 2.71912
8495 2 2.2208 11.0184 -5.1835 10.9883
88 1 -1.1104 6.73479 4.66271 0.910308
28 1 -1.1104 6.77346 1.75431 1.27126
86 1 -1.1104 6.84983 7.84782 1.12239
30 1 -1.1104 6.67899 1.62 3.89146
90 1 -1.1104 6.70307 4.77383 3.84059
87 1 -1.1104 6.59587 7.33309 3.81114
35 1 -1.1104 12.5122 1.76695 1.14605
37 1 -1.1104 12.5349 1.76608 3.72465
40 2 2.2208 10.9779 3.09583 2.40003
43 1 -1.1104 9.67033 1.72873 1.16297
46 1 -1.1104 9.5063 1.42427 3.97716
48 2 2.2208 8.13574 2.76211 5.38197
92 2 2.2208 10.9886 5.72886 5.35548
94 1 -1.1104 12.3515 7.3148 0.93913
96 1 -1.1104 12.3863 4.60624 1.07719
99 1 -1.1104 12.4669 4.36137 3.94824
102 2 2.2208 7.93666 6.05774 2.20563
104 1 -1.1104 9.56516 7.21383 3.5959
106 1 -1.1104 9.66717 4.56047 1.07121
108 1 -1.1104 9.55414 4.08831 4.05627
101 1 -1.1104 9.45039 7.3652 0.783635
95 1 -1.1104 12.4228 7.15692 4.06322
257 1 -1.1104 12.4201 4.53786 6.89183
9066 2 2.2208 -0.144729 17.205 -0.327082
248 1 -1.1104 6.53224 4.18195 6.41914
258 1 -1.1104 9.67689 7.44364 6.57346
26 2 2.2208 2.48856 3.09997 -0.271067
291 1 -1.1104 6.82913 18.4329 12.3887
58 2 2.2208 5.23727 11.6337 5.09142
62 1 -1.1104 0.955045 9.94985 1.22318
65 2 2.2208 5.28069 9.01851 2.27354
67 1 -1.1104 1.13078 10.1257 4.01762
70 2 2.2208 2.45628 11.5228 2.48919
72 2 2.2208 2.5096 8.84349 5.23208
74 1 -1.1104 3.93247 10.172 0.909175
77 1 -1.1104 3.98852 10.2744 3.89358
115 1 -1.1104 1.12365 12.6631 1.09191
119 1 -1.1104 1.15454 13.1208 3.84575
129 1 -1.1104 4.0245 12.9737 1.01348
134 1 -1.1104 4.06064 12.9762 3.85348
121 1 -1.1104 6.91862 12.8112 3.74238
91 1 -1.1104 6.78011 10.0837 3.70068
117 1 -1.1104 6.95148 13.1244 1.03619
8932 2 2.2208 -0.259369 -2.42678 2.45581
279 1 -1.1104 1.05822 13.2425 6.47227
280 2 2.2208 5.29105 14.6399 13.5555
9104 2 2.2208 13.5372 -2.58481 11.1138
64 1 -1.1104 6.85818 10.6104 0.962327
93 2 2.2208 11.083 11.4461 5.05993
97 1 -1.1104 12.588 10.1542 0.839284
98 2 2.2208 11.2369 8.68408 2.43299
100 1 -1.1104 12.5499 9.95896 3.71683
103 2 2.2208 8.32913 11.754 2.32118
105 2 2.2208 8.00891 8.82529 5.23549
107 1 -1.1104 9.88899 10.2238 1.22654
109 1 -1.1104 9.40264 10.1371 3.91391
149 1 -1.1104 12.394 13.0674 0.876947
152 1 -1.1104 12.4942 13.0788 3.77599
158 1 -1.1104 9.88645 13.0659 0.917388
162 1 -1.1104 9.7239 13.0583 3.8861
164 2 2.2208 8.32242 14.2087 5.23252
53 2 2.2208 10.9114 0.262588 -0.219451
9064 2 2.2208 -0.353601 17.3262 5.38219
124 1 -1.1104 6.88477 15.943 6.57253
8904 2 2.2208 13.6508 3.0928 -0.209129
125 2 2.2208 5.40803 14.3929 2.26864
136 2 2.2208 2.50599 14.6513 5.12284
114 2 2.2208 5.50769 17.2294 5.16739
116 1 -1.1104 1.0327 18.6102 1.19731
120 1 -1.1104 1.11884 18.8337 3.98343
122 1 -1.1104 1.35127 15.5411 0.964641
126 2 2.2208 5.44437 19.9819 2.3478
127 1 -1.1104 1.28592 15.9271 3.51018
131 1 -1.1104 3.81758 18.6546 0.925414
133 2 2.2208 2.65366 17.2389 2.32414
135 1 -1.1104 4.15959 18.5775 3.92234
137 2 2.2208 2.55497 20.1392 5.11802
138 1 -1.1104 4.19913 15.8951 0.810685
140 1 -1.1104 4.14778 15.9185 3.86244
141 1 -1.1104 6.9935 18.6797 0.885605
296 1 -1.1104 1.00657 18.7404 6.66289
128 1 -1.1104 7.02805 15.7788 3.73656
142 1 -1.1104 6.83575 18.6672 3.83389
8936 2 2.2208 -0.140192 0.265875 -0.35591
328 2 2.2208 2.47258 -2.65775 -0.413328
132 1 -1.1104 3.68645 18.8473 6.81163
319 1 -1.1104 12.3005 15.6738 9.74769
9127 2 2.2208 -0.186855 -2.37098 8.18897
304 2 2.2208 13.6751 20.1691 10.7703
143 1 -1.1104 7.02916 15.7753 1.12216
155 2 2.2208 11.063 14.4319 2.51925
148 2 2.2208 11.0345 17.4632 5.43472
150 1 -1.1104 12.3353 18.4405 1.29529
153 1 -1.1104 12.5706 18.9277 4.05064
154 1 -1.1104 12.4298 15.79 0.932957
156 2 2.2208 10.833 20.1178 2.25874
157 1 -1.1104 12.3714 15.8632 4.09976
159 1 -1.1104 9.66892 18.6417 0.685991
161 2 2.2208 8.34823 17.2086 2.40988
163 1 -1.1104 9.66219 18.7484 3.78621
165 2 2.2208 8.24017 20.2611 5.11745
166 1 -1.1104 9.78297 15.9085 0.972009
168 1 -1.1104 9.70661 15.8566 3.96252
160 1 -1.1104 9.69188 18.8136 6.55619
9192 2 2.2208 -0.224505 11.7335 10.8253
167 1 -1.1104 9.6234 15.7733 6.8232
326 2 2.2208 8.3427 20.1195 10.9564
8999 2 2.2208 -0.315834 11.6137 5.18676
24 1 -1.1104 4.09837 -1.01949 6.85511
21 1 -1.1104 1.12347 -1.06309 6.78452
19 1 -1.1104 1.13151 -3.88217 6.98868
9126 2 2.2208 -0.430859 3.1882 8.28412
8933 2 2.2208 -0.327498 0.583235 5.34615
22 1 -1.1104 3.89509 -4.03751 6.59819
169 2 2.2208 5.43998 0.148326 11.0903
170 1 -1.1104 1.38263 -4.00441 12.4323
172 1 -1.1104 1.40828 -3.9644 9.74126
174 1 -1.1104 1.20207 -1.26317 12.3019
175 2 2.2208 5.34492 -2.60137 8.17099
177 1 -1.1104 1.33484 -1.1769 9.73278
178 1 -1.1104 4.20118 -4.03812 12.4657
180 2 2.2208 2.57405 0.137786 8.41431
181 1 -1.1104 4.15265 -4.08154 9.52961
183 2 2.2208 2.67709 -2.68203 11.1995
185 1 -1.1104 4.03351 -1.13117 12.4909
186 1 -1.1104 4.21306 -1.37548 9.70513
51 1 -1.1104 6.53966 -4.06787 6.96301
191 1 -1.1104 6.87334 -1.27236 6.80279
8997 2 2.2208 -0.353375 6.10231 5.24737
198 1 -1.1104 12.3036 -3.95298 6.87052
200 1 -1.1104 12.3712 -1.06793 6.76662
192 1 -1.1104 6.98964 -4.15421 12.2198
197 1 -1.1104 6.91515 -1.21348 9.61384
194 1 -1.1104 6.82387 -4.0069 9.73278
196 1 -1.1104 6.83354 -1.24586 12.4438
204 2 2.2208 10.9293 0.151717 11.0846
205 1 -1.1104 12.5151 -4.0432 12.4713
207 1 -1.1104 12.3039 -3.72759 9.65394
209 1 -1.1104 12.3496 -1.09552 12.4993
210 2 2.2208 10.925 -2.56344 8.15995
212 1 -1.1104 12.4541 -1.1433 9.50743
213 1 -1.1104 9.76138 -3.86285 12.3257
215 2 2.2208 8.23943 0.190591 8.17185
216 1 -1.1104 9.68619 -4.06148 9.59979
218 2 2.2208 8.1881 -2.50876 11.0171
220 1 -1.1104 9.80136 -1.01338 12.542
221 1 -1.1104 9.65697 -1.3141 9.78406
315 1 -1.1104 12.3248 18.5349 9.60071
20 1 -1.1104 0.881895 2.00472 6.66599
317 2 2.2208 10.9825 14.2478 8.09275
324 1 -1.1104 9.64655 15.7543 9.5126
9063 2 2.2208 -0.303301 19.9014 2.48632
110 1 -1.1104 6.78943 7.33054 6.73088
78 1 -1.1104 0.867106 7.53129 6.70343
79 1 -1.1104 1.08613 4.55198 6.59242
171 1 -1.1104 1.03526 1.59436 12.1935
173 1 -1.1104 1.21226 1.61595 9.50423
176 2 2.2208 5.38815 2.90786 8.12522
179 1 -1.1104 3.92684 1.49263 12.429
182 1 -1.1104 3.97243 1.77925 9.67189
184 2 2.2208 2.54528 2.90006 10.9956
227 2 2.2208 5.33839 5.80822 10.8768
229 1 -1.1104 1.21622 7.41919 12.3074
231 1 -1.1104 1.23367 4.61713 12.2413
234 1 -1.1104 0.976033 4.29815 9.5787
236 1 -1.1104 3.88999 7.2911 12.3069
237 2 2.2208 2.42989 5.74814 8.19255
241 1 -1.1104 3.88052 4.32867 12.3849
243 1 -1.1104 3.95636 4.55486 9.50174
239 1 -1.1104 3.99616 7.44031 9.25742
230 1 -1.1104 1.08107 7.07598 9.6004
284 1 -1.1104 6.63979 18.8715 9.52344
256 1 -1.1104 12.7169 7.24181 6.8264
52 1 -1.1104 6.91995 1.63189 6.89108
251 1 -1.1104 6.72308 4.37503 12.2732
253 1 -1.1104 6.81233 4.36893 9.40856
193 1 -1.1104 6.74575 1.68584 12.1262
195 1 -1.1104 6.68719 1.62127 9.48707
250 1 -1.1104 6.67004 7.28712 9.47591
249 1 -1.1104 6.76633 7.10187 12.4305
260 1 -1.1104 9.5794 4.37909 6.74264
199 1 -1.1104 12.5431 1.81074 6.85719
202 1 -1.1104 9.68228 1.48947 6.83261
206 1 -1.1104 12.5041 1.77826 12.6553
208 1 -1.1104 12.2951 1.40484 9.50437
211 2 2.2208 11.1078 2.84352 8.2137
214 1 -1.1104 9.60612 1.78985 12.4547
217 1 -1.1104 9.50902 1.55602 9.52935
219 2 2.2208 8.26406 3.07627 10.8443
259 1 -1.1104 9.68901 4.32656 9.40184
262 1 -1.1104 9.56492 4.47546 12.3294
264 1 -1.1104 9.76581 7.27816 9.45811
266 2 2.2208 8.1179 5.84401 7.84263
267 2 2.2208 11.0472 5.83104 10.8729
271 1 -1.1104 12.3161 4.45773 12.4073
274 1 -1.1104 12.497 4.39801 9.50086
276 1 -1.1104 9.56712 7.25976 12.2862
269 1 -1.1104 12.2769 7.2998 12.4188
270 1 -1.1104 12.4499 7.2013 9.55414
318 2 2.2208 10.9163 20.2079 8.08242
63 1 -1.1104 1.10709 10.0977 6.83784
145 1 -1.1104 6.83604 12.8511 6.49454
130 1 -1.1104 4.03378 13.1235 6.51064
75 1 -1.1104 3.85532 10.4489 6.58505
228 2 2.2208 5.27149 11.5606 10.9605
232 1 -1.1104 1.0498 10.4075 12.4804
233 2 2.2208 5.23789 8.74773 8.15138
235 1 -1.1104 1.09798 9.88521 9.76921
238 2 2.2208 2.6461 11.7454 7.91048
240 2 2.2208 2.4675 8.76482 10.9713
242 1 -1.1104 3.9039 9.98858 12.3049
244 1 -1.1104 3.80318 10.2792 9.54452
283 1 -1.1104 3.85672 13.1447 12.2599
289 1 -1.1104 1.06972 13.1793 9.48684
293 1 -1.1104 1.2257 12.911 12.5359
299 1 -1.1104 3.95624 12.9614 9.38773
252 1 -1.1104 6.79671 10.0897 12.3756
321 1 -1.1104 6.64072 13.0919 12.2133
84 2 2.2208 10.9497 5.9322 -0.271388
247 1 -1.1104 9.51499 10.0381 6.78851
327 2 2.2208 8.10908 14.32 10.7068
89 1 -1.1104 6.60886 10.1723 6.67882
254 1 -1.1104 6.75494 10.0216 9.60088
320 1 -1.1104 6.6398 12.8393 9.39933
246 1 -1.1104 12.615 10.0644 6.5713
309 1 -1.1104 9.67897 12.7965 6.71445
307 1 -1.1104 12.397 13.0068 6.61925
255 1 -1.1104 9.62598 9.9794 9.57529
261 1 -1.1104 9.45785 10.151 12.2505
263 2 2.2208 8.12126 8.58588 10.8987
265 2 2.2208 8.14205 11.535 7.99302
268 2 2.2208 10.8614 11.4919 10.8335
272 1 -1.1104 12.226 10.0925 12.2334
273 2 2.2208 11.1761 8.67479 8.07845
275 1 -1.1104 12.2358 10.3252 9.19656
281 1 -1.1104 9.5347 12.99 9.33507
312 1 -1.1104 12.3 12.8819 12.4578
314 1 -1.1104 12.6144 12.9998 9.39834
323 1 -1.1104 9.3966 12.9393 12.0193
118 1 -1.1104 6.71124 18.7337 6.84342
123 1 -1.1104 1.10065 16.0245 6.56497
285 1 -1.1104 6.93282 15.7443 9.23731
139 1 -1.1104 3.88527 16.0104 6.73174
322 1 -1.1104 6.9158 15.7698 12.1033
303 2 2.2208 2.59121 14.4038 10.8015
288 2 2.2208 5.35537 20.1807 7.98388
287 1 -1.1104 1.15202 15.8764 9.65166
286 1 -1.1104 1.09951 18.6768 9.3019
294 2 2.2208 5.61554 17.2102 10.7293
292 1 -1.1104 1.2416 18.7152 12.1726
282 1 -1.1104 4.10404 18.5456 12.3982
290 2 2.2208 5.51441 14.5731 7.90016
297 2 2.2208 2.50889 17.2769 8.08504
295 1 -1.1104 4.1258 18.5536 9.54503
298 1 -1.1104 4.00345 15.6616 9.4575
300 1 -1.1104 1.33053 15.7793 12.4762
301 1 -1.1104 4.10131 16.0285 12.2422
302 2 2.2208 2.69577 20.0968 10.7629
9249 2 2.2208 -0.361488 20.2878 8.16804
9250 2 2.2208 -0.190596 17.2799 10.9994
9247 2 2.2208 -0.25937 14.3268 7.95512
9069 2 2.2208 -0.223896 14.428 2.43198
306 2 2.2208 8.21852 17.2182 8.02776
313 1 -1.1104 12.6165 18.7501 12.3285
151 1 -1.1104 12.2972 18.7966 6.82805
329 2 2.2208 8.32677 -2.48957 -0.271162
308 1 -1.1104 12.5347 15.8341 6.93551
310 1 -1.1104 9.31884 18.6011 9.44125
311 2 2.2208 10.9582 17.377 10.9543
316 1 -1.1104 12.2319 16.0126 12.3715
325 1 -1.1104 9.63931 15.8588 12.3903
9197 2 2.2208 -0.436565 8.90078 8.07206
146 2 2.2208 11.065 17.1606 -0.255086
8996 2 2.2208 -0.232224 11.62 -0.370841
113 2 2.2208 2.52908 20.3389 -0.243608
636 2 2.2208 10.9728 14.5135 13.6561
9029 2 2.2208 13.6805 14.5304 5.41969
17185 2 2.2208 -0.238251 -5.28266 5.50749
9418 2 2.2208 -0.137795 19.9426 13.6146
85 2 2.2208 11.1454 11.5329 -0.343171
9000 2 2.2208 -0.190614 5.84024 -0.411708
56 2 2.2208 2.45706 8.56963 -0.400385
330 2 2.2208 5.5784 0.276281 16.4629
331 1 -1.1104 1.31652 -4.04824 18.1097
333 1 -1.1104 1.14408 -4.02157 15.1487
335 1 -1.1104 1.35605 -1.09522 18.0032
336 2 2.2208 5.53179 -2.61163 19.5
338 1 -1.1104 1.17535 -0.945766 15.3078
339 1 -1.1104 4.10095 -4.03757 18.0649
341 2 2.2208 2.53598 0.17652 19.457
342 1 -1.1104 3.82678 -3.84923 15.1241
344 2 2.2208 2.56527 -2.53208 16.6766
346 1 -1.1104 4.06362 -1.16255 18.0932
347 1 -1.1104 4.10669 -1.24585 15.3676
350 1 -1.1104 6.87792 -3.92492 15.3419
484 1 -1.1104 4.08013 -3.98598 20.7295
481 1 -1.1104 0.98039 -3.83905 20.7251
9455 2 2.2208 -0.339338 2.93627 24.8955
479 2 2.2208 8.28424 17.2536 13.7304
452 2 2.2208 11.0048 20.1485 13.8581
188 2 2.2208 2.47964 0.285934 13.7712
224 2 2.2208 5.33573 8.63333 13.8807
353 1 -1.1104 6.83787 -1.123 15.1307
348 1 -1.1104 6.90973 -3.87355 18.1834
352 1 -1.1104 6.83468 -1.18394 18.0361
355 2 2.2208 11.0914 0.367135 16.8157
356 1 -1.1104 12.6033 -3.81352 18.234
358 1 -1.1104 12.561 -3.9859 15.2796
362 1 -1.1104 12.4436 -1.06491 18.1671
363 2 2.2208 11.1558 -2.57473 19.3982
365 1 -1.1104 12.699 -1.20049 15.1896
367 1 -1.1104 9.7844 -3.8381 18.0807
369 2 2.2208 8.21945 0.287861 19.4439
370 1 -1.1104 9.68395 -3.95846 15.1745
374 2 2.2208 8.35148 -2.43055 16.6059
376 1 -1.1104 9.70283 -1.22547 17.8894
377 1 -1.1104 9.56973 -1.30913 15.1419
9251 2 2.2208 -0.245698 14.2982 13.7584
366 1 -1.1104 12.455 -1.05827 20.9869
332 1 -1.1104 1.10357 1.83095 18.1422
334 1 -1.1104 1.08328 1.76335 15.3258
337 2 2.2208 5.37241 3.15442 19.1833
340 1 -1.1104 3.8012 1.71124 18.2883
343 1 -1.1104 3.98521 1.5362 15.3486
345 2 2.2208 2.47372 3.12322 16.8225
379 2 2.2208 5.40904 6.10374 16.5171
382 1 -1.1104 0.998264 7.39095 15.1812
383 1 -1.1104 1.02365 4.56816 18.146
386 1 -1.1104 1.38 4.33449 15.1094
389 2 2.2208 2.49342 5.79513 19.3558
393 1 -1.1104 3.89252 4.40416 18.1582
395 1 -1.1104 4.25385 4.38012 15.4346
381 1 -1.1104 1.19215 7.30558 17.9524
388 1 -1.1104 4.04561 7.32784 17.857
391 1 -1.1104 3.83615 7.12311 15.1195
9308 2 2.2208 -0.255978 0.261353 16.5581
9504 2 2.2208 -0.278137 8.77094 25.0942
533 1 -1.1104 1.14438 7.24019 20.7313
485 1 -1.1104 3.69965 1.22673 21.2199
398 1 -1.1104 7.05343 7.15522 15.3782
351 1 -1.1104 6.74738 1.57391 14.8478
349 1 -1.1104 6.61173 1.83536 17.651
401 1 -1.1104 6.85494 4.4269 15.0707
397 1 -1.1104 6.80474 7.40901 18.1212
635 2 2.2208 2.60001 17.2194 13.7722
399 1 -1.1104 6.86536 4.68866 17.87
357 1 -1.1104 12.4234 1.6465 18.1809
360 1 -1.1104 12.4381 1.51194 15.4523
364 2 2.2208 11.0524 3.01076 19.6069
368 1 -1.1104 9.54802 1.92254 18.1997
372 1 -1.1104 9.70164 1.5516 15.1807
375 2 2.2208 8.26975 3.21609 16.5235
404 2 2.2208 11.0858 6.09593 16.858
409 1 -1.1104 12.4565 4.59625 18.1435
412 1 -1.1104 12.5239 4.54068 15.2504
417 2 2.2208 8.26705 5.84344 19.3942
422 1 -1.1104 9.57811 4.65787 17.8515
424 1 -1.1104 9.60912 4.74609 15.2201
419 1 -1.1104 9.67163 7.55509 15.1065
416 1 -1.1104 9.5442 7.65187 18.2837
407 1 -1.1104 12.2522 7.37582 15.388
425 1 -1.1104 9.54895 4.39601 20.6972
406 1 -1.1104 12.4935 7.34155 18.3058
402 1 -1.1104 6.84543 4.37082 20.8111
9365 2 2.2208 -0.244426 8.58222 19.468
9252 2 2.2208 -0.0677185 -2.67313 13.7484
380 2 2.2208 5.61749 11.624 16.5068
384 1 -1.1104 1.1592 10.0529 18.0372
385 2 2.2208 5.44715 8.62461 19.343
387 1 -1.1104 1.12226 10.2441 15.31
390 2 2.2208 2.65925 11.6165 19.2825
392 2 2.2208 2.65627 8.77243 16.4444
394 1 -1.1104 4.08896 10.1938 17.9833
396 1 -1.1104 3.99204 10.0727 14.9869
430 1 -1.1104 1.36493 12.8369 17.957
433 1 -1.1104 1.26469 13.0589 15.3364
443 1 -1.1104 4.12075 12.8929 18.0496
446 1 -1.1104 3.95439 12.847 15.1527
400 1 -1.1104 6.70207 10.1251 17.8606
457 1 -1.1104 6.81314 12.9022 15.0286
535 1 -1.1104 1.12115 10.3738 20.8379
538 1 -1.1104 3.9615 9.97705 20.7435
596 1 -1.1104 4.01892 12.7068 20.7549
190 2 2.2208 11.1162 3.19732 13.7953
9307 2 2.2208 -0.317039 3.01384 19.4906
9457 2 2.2208 -0.267303 -2.54117 25.0614
403 1 -1.1104 6.98783 9.85921 15.1915
592 1 -1.1104 6.94017 12.8593 20.8353
456 1 -1.1104 6.87349 12.9275 18.0474
405 2 2.2208 10.9927 11.685 16.6601
410 1 -1.1104 12.2453 10.2419 17.8966
411 2 2.2208 11.0236 8.90463 19.5142
414 1 -1.1104 12.548 10.0872 14.7923
418 2 2.2208 8.19056 11.4998 19.3428
421 2 2.2208 8.19061 8.73921 16.7589
423 1 -1.1104 9.5497 10.3902 17.8848
426 1 -1.1104 9.65517 10.299 15.3655
460 1 -1.1104 12.5216 12.9812 17.878
462 1 -1.1104 12.6673 13.0959 15.2078
469 1 -1.1104 9.57281 13.1866 17.957
472 1 -1.1104 9.73031 13.1496 15.0732
415 1 -1.1104 12.3895 10.2471 20.8817
473 1 -1.1104 9.77142 12.9676 20.8385
463 1 -1.1104 12.461 12.9841 20.535
277 2 2.2208 8.28711 11.5483 13.8259
9309 2 2.2208 -0.109755 -2.3204 19.1888
112 2 2.2208 5.58008 17.1218 27.5877
9391 2 2.2208 -0.165418 19.8999 19.6093
440 2 2.2208 5.28631 14.4498 19.472
429 2 2.2208 5.48713 17.1549 16.5114
431 1 -1.1104 1.25192 18.661 18.3992
435 1 -1.1104 1.30496 18.5236 15.1442
438 1 -1.1104 1.41291 15.8307 18.1763
441 2 2.2208 5.49841 20.0617 19.3864
442 1 -1.1104 1.54604 15.8149 15.388
444 1 -1.1104 4.05546 18.7323 18.1141
445 2 2.2208 2.67971 17.1979 19.5198
447 1 -1.1104 3.93392 18.6776 15.3872
448 2 2.2208 2.74882 14.2741 16.6556
449 2 2.2208 2.55876 20.0436 16.6976
450 1 -1.1104 3.99823 15.9186 18.0195
451 1 -1.1104 4.19771 15.7591 15.2925
245 2 2.2208 8.45546 6.04525 13.8718
598 1 -1.1104 3.93114 15.623 20.9383
436 1 -1.1104 1.11157 18.5412 20.8533
9456 2 2.2208 -0.275317 0.261292 22.2385
187 2 2.2208 5.5049 -2.60878 13.8532
189 2 2.2208 5.31444 3.07645 13.8631
458 1 -1.1104 6.97741 15.7776 15.0959
432 1 -1.1104 6.6754 18.5152 18.0078
439 1 -1.1104 6.68884 15.6527 17.9201
437 1 -1.1104 6.68631 18.7207 14.9762
475 2 2.2208 8.23742 14.5387 16.5717
466 2 2.2208 11.0019 14.4322 19.3694
459 2 2.2208 11.0691 17.2248 16.3564
461 1 -1.1104 12.5099 18.4232 17.9463
464 1 -1.1104 12.3053 18.7894 15.1377
465 1 -1.1104 12.532 15.8353 17.616
467 2 2.2208 11.011 19.9226 19.3981
468 1 -1.1104 12.5119 15.8134 15.041
470 1 -1.1104 9.64495 18.8779 17.9708
471 2 2.2208 8.2395 17.2671 19.5146
474 1 -1.1104 9.51279 18.5678 15.1356
476 2 2.2208 8.21204 20.08 16.5322
477 1 -1.1104 9.46442 15.9884 17.8935
478 1 -1.1104 9.67673 15.8481 15.143
626 1 -1.1104 9.57428 15.7018 20.919
354 1 -1.1104 6.89648 -1.21528 20.8676
483 1 -1.1104 1.21283 -1.09729 20.7737
9193 2 2.2208 -0.184319 8.90754 13.7327
9364 2 2.2208 -0.284386 11.4688 16.8674
9505 2 2.2208 -0.329661 11.6006 22.0317
486 1 -1.1104 4.12721 -1.3799 20.8304
487 2 2.2208 5.46441 0.0470398 22.1842
488 1 -1.1104 1.19716 -3.83926 23.6752
490 1 -1.1104 1.24039 -4.01874 26.4543
492 1 -1.1104 0.875229 -1.00745 23.7705
493 2 2.2208 5.41329 -2.56741 24.9944
495 1 -1.1104 1.22294 -1.26099 26.5475
496 1 -1.1104 3.97887 -4.01438 23.5181
498 2 2.2208 2.46673 0.373028 24.9574
499 1 -1.1104 4.08159 -3.97172 26.3487
501 2 2.2208 2.52796 -2.47524 22.2083
503 1 -1.1104 3.93098 -1.26172 23.7287
504 1 -1.1104 3.9036 -1.09962 26.4871
506 1 -1.1104 6.90521 -3.86557 21.0233
359 1 -1.1104 12.4291 -3.97075 20.9341
627 1 -1.1104 9.54709 15.8679 23.5668
9577 2 2.2208 -0.120537 17.1865 22.5204
510 1 -1.1104 6.68349 -3.75852 26.3887
508 1 -1.1104 6.67966 -4.04584 23.7917
512 1 -1.1104 6.83541 -1.23236 23.8005
513 1 -1.1104 6.93928 -1.13315 26.6734
371 1 -1.1104 9.61758 -3.948 20.8096
378 1 -1.1104 9.68537 -1.27357 20.6583
514 2 2.2208 11.153 0.304534 22.2464
515 1 -1.1104 12.3239 -4.15907 23.8007
517 1 -1.1104 12.3944 -3.92413 26.6707
519 1 -1.1104 12.2096 -1.34623 23.6334
520 2 2.2208 11.2058 -2.64554 25.1966
522 1 -1.1104 12.5319 -0.966387 26.402
523 1 -1.1104 9.41631 -3.97113 23.7327
525 2 2.2208 8.2751 0.107945 25.182
526 1 -1.1104 9.63042 -4.09724 26.7748
528 2 2.2208 8.34548 -2.59167 22.2241
530 1 -1.1104 9.63922 -1.14559 23.4588
531 1 -1.1104 9.93649 -1.20948 26.3346
147 2 2.2208 8.54146 14.4107 27.6829
536 1 -1.1104 4.0488 7.13973 20.6634
482 1 -1.1104 1.13804 1.58584 20.8854
537 1 -1.1104 4.06149 4.26099 20.7771
534 1 -1.1104 1.37567 4.29977 20.9021
491 1 -1.1104 1.15908 1.69482 26.6127
489 1 -1.1104 1.11595 1.81526 23.6156
494 2 2.2208 5.12693 3.09812 25.2072
497 1 -1.1104 4.07627 1.50411 23.7336
500 1 -1.1104 3.89012 1.48331 26.5368
502 2 2.2208 2.45613 3.09538 22.1394
539 2 2.2208 5.34034 5.7976 22.0212
541 1 -1.1104 1.19792 7.51116 23.5268
544 1 -1.1104 0.94206 4.44371 23.745
547 1 -1.1104 1.30112 4.58717 26.4514
551 2 2.2208 2.65389 5.84121 25.0104
553 1 -1.1104 3.72747 7.18587 26.4078
555 1 -1.1104 3.77491 4.42835 23.5751
557 1 -1.1104 3.88932 4.57245 26.5915
550 1 -1.1104 4.06462 7.30394 23.6807
543 1 -1.1104 1.16826 7.43805 26.327
634 1 -1.1104 9.76016 18.4594 23.5786
507 1 -1.1104 6.77752 1.60668 20.6257
563 1 -1.1104 6.79236 7.31247 20.7847
361 1 -1.1104 12.3974 1.79836 21.0353
420 1 -1.1104 9.54498 7.18164 20.8261
542 1 -1.1104 6.76077 7.23288 23.5837
509 1 -1.1104 6.85319 1.28882 23.6956
571 1 -1.1104 6.50243 4.01827 23.3763
511 1 -1.1104 6.63285 1.90771 26.6928
573 1 -1.1104 6.62644 4.7083 26.3112
570 1 -1.1104 6.64866 7.4232 26.4995
373 1 -1.1104 9.64418 1.41705 20.9609
408 1 -1.1104 12.3405 7.43918 20.9366
413 1 -1.1104 12.6033 4.69585 21.0229
516 1 -1.1104 12.483 1.59068 23.8129
518 1 -1.1104 11.965 2.06468 26.7001
521 2 2.2208 11.0143 3.13684 25.2449
524 1 -1.1104 9.66968 1.90832 23.7495
527 1 -1.1104 9.30424 1.42689 26.8489
529 2 2.2208 7.98305 2.83915 22.2028
561 1 -1.1104 12.5612 4.40896 23.8568
567 2 2.2208 11.0425 5.94139 22.2178
568 2 2.2208 8.3172 5.71602 24.8947
576 1 -1.1104 12.2524 4.77396 26.4247
578 1 -1.1104 9.5503 4.40834 26.7324
580 1 -1.1104 9.60047 4.48816 23.5705
582 1 -1.1104 9.49954 7.00971 26.3782
565 1 -1.1104 12.5251 7.07714 23.4694
569 1 -1.1104 9.59305 7.36871 23.5737
562 1 -1.1104 12.5435 7.45865 26.2273
278 2 2.2208 11.0714 8.71029 13.8267
434 1 -1.1104 1.16776 13.0937 20.6803
222 2 2.2208 8.21476 0.233017 13.704
540 2 2.2208 5.37719 11.3674 22.1665
545 1 -1.1104 0.999611 10.2673 23.5167
546 2 2.2208 5.35093 8.61421 24.9994
548 1 -1.1104 1.32953 10.0425 26.5419
552 2 2.2208 2.61075 11.4108 24.8961
554 2 2.2208 2.64284 8.68722 22.0444
556 1 -1.1104 3.85125 10.1372 23.4355
558 1 -1.1104 4.01372 10.1553 26.1476
588 1 -1.1104 0.887265 13.0432 26.6023
601 1 -1.1104 4.10763 12.9587 23.6759
603 1 -1.1104 1.22279 12.8406 23.6092
609 1 -1.1104 3.9068 13.0296 26.4881
584 1 -1.1104 6.78681 12.7544 23.4228
9576 2 2.2208 -0.162455 19.9537 24.9917
427 1 -1.1104 9.67969 10.1778 20.7233
633 1 -1.1104 6.87883 12.9628 26.3644
572 1 -1.1104 6.81122 10.0127 23.4978
549 1 -1.1104 6.8572 10.2585 26.2567
564 1 -1.1104 6.99563 10.0818 20.6915
559 2 2.2208 11.0662 8.71331 24.9983
560 1 -1.1104 12.5197 10.0819 23.3904
566 2 2.2208 10.9495 11.4905 22.1976
574 2 2.2208 8.31431 11.65 24.9678
575 1 -1.1104 12.4413 10.2169 26.2991
577 1 -1.1104 9.70489 10.2047 26.3288
579 1 -1.1104 9.68519 10.0576 23.5877
581 2 2.2208 8.17258 8.6219 22.1976
532 1 -1.1104 9.55556 12.8607 26.507
617 1 -1.1104 12.585 12.742 23.4351
619 1 -1.1104 12.4917 12.9924 26.2984
631 1 -1.1104 9.74516 13.0853 23.7124
428 2 2.2208 5.38424 20.1307 13.7954
597 1 -1.1104 3.91986 18.6215 20.8888
594 1 -1.1104 1.07935 15.8869 21.1091
225 2 2.2208 2.63434 5.87998 13.6694
612 2 2.2208 2.60196 14.2594 22.3154
585 2 2.2208 5.45288 14.2973 24.8959
583 1 -1.1104 1.38101 18.6033 23.7483
586 2 2.2208 5.42705 20.0847 25.1147
589 1 -1.1104 1.28063 15.9842 26.5626
590 1 -1.1104 3.94326 15.7885 23.6959
591 1 -1.1104 1.27374 15.8239 23.8548
599 1 -1.1104 1.12128 18.73 26.5288
602 1 -1.1104 4.03147 18.6987 23.8414
604 2 2.2208 2.6753 19.9595 22.2538
607 2 2.2208 5.23684 17.2311 22.2495
608 1 -1.1104 4.24503 18.6344 26.5799
610 1 -1.1104 4.08025 15.9662 26.3973
611 2 2.2208 2.78729 17.2648 25.1584
622 1 -1.1104 12.5074 15.8272 23.4512
505 2 2.2208 8.31352 17.2125 24.8895
595 1 -1.1104 6.76118 15.8626 20.6849
624 1 -1.1104 12.4169 15.9345 20.5967
625 1 -1.1104 9.58112 18.668 21.0204
628 2 2.2208 11.1055 14.5142 24.9693
614 2 2.2208 11.1016 17.1334 22.0293
623 1 -1.1104 12.3262 18.6447 20.8596
615 2 2.2208 8.19115 14.2329 22.2469
593 1 -1.1104 6.79335 18.7473 20.7056
618 1 -1.1104 12.5729 18.5132 23.4871
620 1 -1.1104 12.3853 18.3914 26.4638
605 1 -1.1104 6.5737 15.7584 23.6207
587 1 -1.1104 7.02014 18.6264 23.62
600 1 -1.1104 7.05057 15.8252 26.3738
606 1 -1.1104 6.66968 18.6088 26.2416
630 1 -1.1104 12.5766 15.8201 26.1858
621 2 2.2208 8.3613 20.0377 22.3146
632 1 -1.1104 9.91116 15.8895 26.1937
629 2 2.2208 10.9579 19.7969 24.9233
613 1 -1.1104 9.43021 18.5853 26.2537
9415 2 2.2208 -0.313087 14.5256 19.5234
83 2 2.2208 8.0815 8.76893 27.7147
9532 2 2.2208 -0.231319 5.95562 22.3935
9416 2 2.2208 0.0881774 17.0385 16.6298
111 2 2.2208 2.652 14.4245 27.6734
9363 2 2.2208 -0.264834 5.78939 16.5312
17615 2 2.2208 -0.290094 -5.15506 22.2243
226 2 2.2208 2.47084 11.5534 13.8592
223 2 2.2208 11.0909 -2.50375 13.894
144 2 2.2208 8.18874 20.2205 27.7221
8820 2 2.2208 5.24856 -5.24733 27.7778
55 2 2.2208 5.40199 11.6251 27.7715
637 2 2.2208 5.19889 23.0083 5.29651
639 1 -1.1104 0.98498 24.3459 0.949981
640 1 -1.1104 1.2787 24.5937 3.77616
641 1 -1.1104 0.989783 21.3115 1.00262
643 2 2.2208 5.42551 25.8007 2.41097
644 1 -1.1104 1.25945 21.587 3.91641
646 1 -1.1104 3.7235 24.06 1.15884
647 2 2.2208 2.52502 22.9503 2.59588
649 1 -1.1104 4.13453 24.4071 3.92564
650 2 2.2208 2.60149 25.8622 5.347
651 1 -1.1104 4.04192 21.4681 1.08877
653 1 -1.1104 3.90272 21.4124 3.89107
654 1 -1.1104 4.02126 27.2494 3.88571
658 1 -1.1104 6.82192 21.5083 1.12215
657 1 -1.1104 6.94289 24.4569 3.77121
645 1 -1.1104 1.28566 27.1705 3.97402
652 1 -1.1104 3.98429 27.1354 1.0352
823 2 2.2208 8.19286 42.6364 -0.26282
642 1 -1.1104 1.21126 27.1407 1.13092
9646 2 2.2208 -0.333828 22.8784 5.21046
789 2 2.2208 -0.323643 42.5887 2.51235
656 1 -1.1104 6.75421 24.579 0.878302
660 1 -1.1104 6.61231 21.6247 3.87644
661 1 -1.1104 6.90264 27.1793 3.68543
1006 2 2.2208 5.54798 25.7336 13.5511
671 2 2.2208 10.9759 22.7488 5.30021
673 1 -1.1104 12.4556 24.2287 1.08857
674 1 -1.1104 12.3236 24.3759 3.82298
675 1 -1.1104 12.5565 21.3656 0.897916
677 2 2.2208 11.1144 25.5925 2.39546
678 1 -1.1104 12.1956 21.5968 3.76335
680 1 -1.1104 9.81698 24.3862 1.01814
681 2 2.2208 8.01992 22.9574 2.31679
683 1 -1.1104 9.60583 24.4141 3.67403
684 2 2.2208 8.04581 25.8844 5.06836
685 1 -1.1104 9.63966 21.5959 0.754867
687 1 -1.1104 9.54992 21.3741 3.69909
676 1 -1.1104 12.525 27.002 1.00843
686 1 -1.1104 9.67099 26.8904 0.826102
852 1 -1.1104 12.4954 21.6783 6.69303
851 1 -1.1104 12.2048 24.2556 6.48857
692 1 -1.1104 9.24686 24.2994 6.46012
688 1 -1.1104 9.61982 27.0234 3.66001
665 1 -1.1104 6.76338 21.5585 6.6133
1544 1 -1.1104 12.3525 46.7115 9.4502
693 1 -1.1104 9.41229 21.3693 6.64056
982 2 2.2208 -0.296038 39.7676 10.9503
898 2 2.2208 -0.285604 36.9686 7.96491
638 2 2.2208 5.41715 28.7777 5.12132
648 2 2.2208 2.69604 28.5897 2.48392
700 1 -1.1104 1.2648 29.8646 1.04551
703 1 -1.1104 1.479 30.0263 3.96125
706 1 -1.1104 1.22009 32.4493 1.05056
707 2 2.2208 5.58005 31.4513 2.47553
709 1 -1.1104 1.19596 32.813 3.87267
711 1 -1.1104 3.887 29.7102 0.747488
714 1 -1.1104 4.12905 30.1979 3.74714
716 2 2.2208 2.63172 31.5512 5.30441
718 1 -1.1104 4.11562 32.5549 1.18704
719 1 -1.1104 3.98094 32.8302 3.8558
824 2 2.2208 11.052 39.6938 -0.353761
9645 2 2.2208 -0.12318 28.4342 5.27967
9705 2 2.2208 -0.0676743 31.2181 2.37191
730 1 -1.1104 4.07501 32.8244 6.68938
728 1 -1.1104 4.37585 30.0811 6.63384
9706 2 2.2208 -0.363428 45.6021 11.0884
659 1 -1.1104 6.90353 27.3524 0.786102
679 1 -1.1104 12.3989 27.0925 3.89487
689 2 2.2208 13.5618 25.658 5.32641
710 1 -1.1104 6.68583 33.0663 3.83008
723 1 -1.1104 7.04384 30.1216 3.83754
722 1 -1.1104 6.70799 29.9481 1.22359
724 1 -1.1104 6.92677 32.7369 1.2501
900 1 -1.1104 12.6342 29.7553 6.31748
672 2 2.2208 11.0411 28.659 5.17821
682 2 2.2208 8.22247 28.6158 2.33948
734 1 -1.1104 12.4714 29.7624 0.738182
736 1 -1.1104 12.6494 29.8681 3.61955
738 1 -1.1104 12.4769 32.7837 1.19408
739 2 2.2208 11.0567 31.264 2.37715
741 1 -1.1104 12.3097 32.561 3.82738
742 1 -1.1104 9.84693 29.8164 0.93767
745 1 -1.1104 9.70629 29.971 3.83844
747 2 2.2208 8.13646 31.2439 5.34358
749 1 -1.1104 9.71401 32.6831 1.13954
750 1 -1.1104 9.66051 32.8678 3.74381
932 1 -1.1104 6.9456 41.4266 12.4056
9852 2 2.2208 -0.36187 31.3529 8.23923
725 1 -1.1104 7.06345 29.7824 6.63993
755 1 -1.1104 9.50294 32.9081 6.60426
752 1 -1.1104 12.4097 32.6967 6.56649
974 2 2.2208 11.1417 45.4987 10.9651
699 2 2.2208 5.39395 34.1619 5.44817
701 1 -1.1104 1.24812 35.5236 1.08665
704 1 -1.1104 1.202 35.4941 3.84478
708 2 2.2208 5.37361 36.9223 2.45916
712 1 -1.1104 4.19567 35.4888 0.863858
713 2 2.2208 2.46149 34.0464 2.36549
715 1 -1.1104 3.96368 35.5179 3.80983
717 2 2.2208 2.56938 36.9665 5.3188
764 2 2.2208 5.23583 39.8343 5.28061
770 1 -1.1104 0.884356 38.3819 1.29341
775 1 -1.1104 1.07137 38.2522 3.89713
779 2 2.2208 2.45449 39.83 2.64524