ITEM: TIMESTEP
90000
ITEM: NUMBER OF ATOMS
17704
ITEM: BOX BOUNDS pp pp pp
-4.4575927926990172e-01 2.7785759279269495e+01
-5.3441262171003521e+00 3.3342412621711060e+02
-4.4569215898483217e-01 2.7785692158984709e+01
ITEM: ATOMS id type q x y z
1 2 2.2208 5.31546 0.226659 5.28515
2 1 -1.1104 1.07806 -3.66939 0.910806
4 1 -1.1104 1.10384 -4.15509 3.6553
6 1 -1.1104 1.13874 -1.04871 0.779444
7 2 2.2208 5.48027 -2.52862 2.22956
9 1 -1.1104 1.13642 -1.2242 3.64521
10 1 -1.1104 4.00343 -3.88869 1.23401
12 2 2.2208 2.51139 0.312043 2.31379
13 1 -1.1104 3.90363 -3.76909 3.94386
15 2 2.2208 2.56381 -2.31072 5.12365
17 1 -1.1104 4.04251 -1.07668 0.942352
18 1 -1.1104 3.84041 -1.04333 3.71461
8933 2 2.2208 -0.362205 0.377696 5.18439
8932 2 2.2208 -0.28688 -2.4309 2.18708
32 1 -1.1104 6.76009 -0.969563 3.55678
8997 2 2.2208 -0.447252 6.00266 5.11018
22 1 -1.1104 4.07331 -4.02601 6.66327
21 1 -1.1104 1.1309 -0.929952 6.71063
19 1 -1.1104 1.26676 -3.79916 6.60008
329 2 2.2208 8.13402 -2.53036 -0.44025
8484 2 2.2208 5.22488 -5.30338 10.8975
31 1 -1.1104 6.77726 -1.08361 0.766806
29 1 -1.1104 7.05518 -3.83753 3.74741
27 1 -1.1104 6.94623 -4.04454 0.932097
33 2 2.2208 10.936 0.370331 5.029
34 1 -1.1104 12.2878 -3.8866 0.896178
36 1 -1.1104 12.5978 -4.01468 3.73843
38 1 -1.1104 12.1484 -0.999993 0.84136
39 2 2.2208 10.9102 -2.3185 2.35083
41 1 -1.1104 12.1555 -1.0439 3.65797
42 1 -1.1104 9.74455 -3.97057 0.788061
44 2 2.2208 8.18473 0.459723 2.25458
45 1 -1.1104 9.79018 -3.77122 3.66334
47 2 2.2208 8.25998 -2.67754 5.17668
49 1 -1.1104 9.45664 -1.09892 0.884455
50 1 -1.1104 9.63225 -1.02513 3.77424
479 2 2.2208 8.225 17.2176 13.3464
51 1 -1.1104 6.91758 -3.9492 6.57842
198 1 -1.1104 12.7032 -3.99358 6.62012
191 1 -1.1104 6.82868 -1.20828 6.6586
225 2 2.2208 2.39806 5.83866 13.4876
3 1 -1.1104 1.0907 1.77869 0.832008
5 1 -1.1104 1.23067 1.75122 3.60877
8 2 2.2208 5.49673 3.20271 2.43449
11 1 -1.1104 4.00042 1.7999 1.03966
14 1 -1.1104 4.13687 1.77088 3.56692
16 2 2.2208 2.56153 3.1067 5.11738
57 2 2.2208 5.3672 5.987 5.33628
61 1 -1.1104 1.05189 4.57245 0.815359
66 1 -1.1104 1.11199 4.65465 3.57391
69 2 2.2208 2.43357 5.88935 2.28492
73 1 -1.1104 4.0158 4.48711 0.827304
76 1 -1.1104 3.98958 4.7376 3.90288
59 1 -1.1104 1.11157 7.36258 0.869907
71 1 -1.1104 4.04729 7.54743 3.83372
68 1 -1.1104 4.14212 7.48119 0.906612
60 1 -1.1104 0.872787 7.51191 3.71931
55 2 2.2208 5.32577 11.7407 -0.432947
222 2 2.2208 8.24864 0.278329 13.5158
90 1 -1.1104 6.83207 4.40113 3.6472
80 1 -1.1104 3.71692 7.20468 6.48716
79 1 -1.1104 0.95116 4.70783 6.62687
20 1 -1.1104 1.14902 1.84418 6.40028
78 1 -1.1104 0.884331 7.70232 6.39347
28 1 -1.1104 6.72063 2.00136 0.877908
88 1 -1.1104 6.96146 4.66539 0.830701
86 1 -1.1104 6.7663 7.42389 1.03335
87 1 -1.1104 6.86002 7.33053 3.87475
30 1 -1.1104 6.71184 1.77158 3.86903
35 1 -1.1104 12.2335 1.78618 0.717555
37 1 -1.1104 12.4137 1.69571 3.6396
40 2 2.2208 11.132 3.17424 2.15867
43 1 -1.1104 9.63982 1.89418 0.854789
46 1 -1.1104 9.66279 1.68398 3.68271
48 2 2.2208 8.14635 3.0997 5.10443
92 2 2.2208 10.952 5.92605 5.16215
94 1 -1.1104 12.3541 7.37612 0.979801
96 1 -1.1104 12.466 4.51281 0.542249
99 1 -1.1104 12.3292 4.63967 3.6436
102 2 2.2208 8.30917 5.83681 2.33243
104 1 -1.1104 9.63825 7.32407 3.7897
106 1 -1.1104 9.68425 4.59968 0.776238
108 1 -1.1104 9.60431 4.438 3.56195
101 1 -1.1104 9.44638 7.41798 1.00312
95 1 -1.1104 12.5049 7.4753 3.76512
9247 2 2.2208 -0.365525 14.4254 7.69859
110 1 -1.1104 6.65113 7.2842 6.77417
256 1 -1.1104 12.1907 7.52129 6.69089
202 1 -1.1104 9.75907 1.69037 6.52833
257 1 -1.1104 12.4665 4.468 6.588
9252 2 2.2208 -0.255531 -2.482 13.5778
188 2 2.2208 2.47362 0.272614 13.5249
58 2 2.2208 5.13828 11.4094 5.06778
62 1 -1.1104 1.01546 10.2266 0.608069
65 2 2.2208 5.41704 8.63898 2.38754
67 1 -1.1104 1.17253 10.4767 3.91579
70 2 2.2208 2.4304 11.5564 2.30959
72 2 2.2208 2.49501 8.70908 5.23765
74 1 -1.1104 3.62342 10.4448 0.710477
77 1 -1.1104 3.97581 10.1256 3.49149
115 1 -1.1104 1.07547 13.3075 1.02358
119 1 -1.1104 1.06898 13.1181 3.7888
129 1 -1.1104 3.77241 13.2691 1.05197
134 1 -1.1104 3.87015 12.826 3.6807
187 2 2.2208 5.15489 -2.33514 13.5129
125 2 2.2208 5.31493 14.581 2.35594
130 1 -1.1104 4.04235 12.8469 6.53199
279 1 -1.1104 1.10581 13.0357 6.53335
277 2 2.2208 8.27528 11.4406 13.4983
117 1 -1.1104 6.69729 13.0621 0.954981
64 1 -1.1104 6.65267 10.1048 0.685301
91 1 -1.1104 6.73212 9.92395 3.81055
121 1 -1.1104 6.52623 12.8955 3.91932
93 2 2.2208 11.2232 11.4714 5.10836
97 1 -1.1104 12.3889 10.2124 0.810929
98 2 2.2208 11.0598 8.71842 2.41841
100 1 -1.1104 12.4203 10.3413 3.49842
103 2 2.2208 8.35664 11.4643 2.42332
105 2 2.2208 8.18551 8.70244 5.13226
107 1 -1.1104 9.80707 10.1701 0.966166
109 1 -1.1104 9.77453 10.0654 3.87218
149 1 -1.1104 12.4159 13.2581 0.891867
152 1 -1.1104 12.4117 13.0408 3.60472
158 1 -1.1104 9.52239 12.6915 0.688338
162 1 -1.1104 9.595 13.0502 3.52562
89 1 -1.1104 6.53328 10.0807 6.90747
309 1 -1.1104 9.51302 12.8169 6.35446
8934 2 2.2208 -0.339676 3.36007 2.25893
9192 2 2.2208 -0.103927 11.7 10.821
9418 2 2.2208 -0.241431 20.0739 13.5457
224 2 2.2208 5.22449 8.76015 13.6338
118 1 -1.1104 6.82565 18.7015 6.23269
9064 2 2.2208 -0.277775 17.3515 5.07033
9069 2 2.2208 -0.230206 14.6021 2.18402
136 2 2.2208 2.49926 14.2204 5.19281
114 2 2.2208 5.3676 17.2225 4.88633
116 1 -1.1104 1.2117 18.7998 0.703513
120 1 -1.1104 1.13498 19.0135 3.41429
122 1 -1.1104 1.02504 16.0048 0.852254
126 2 2.2208 5.22045 20.1394 2.2239
127 1 -1.1104 1.0171 16.0101 3.75945
131 1 -1.1104 4.11265 18.8062 0.878224
133 2 2.2208 2.46453 17.3216 2.27736
135 1 -1.1104 3.76397 18.7612 3.66633
137 2 2.2208 2.54608 20.3255 4.89892
138 1 -1.1104 3.90512 16.0133 0.998307
140 1 -1.1104 3.99712 15.9612 3.69439
123 1 -1.1104 0.94386 15.9059 6.43813
9063 2 2.2208 -0.184609 20.2312 2.0255
128 1 -1.1104 6.82743 15.8753 3.65245
9251 2 2.2208 -0.236502 14.479 13.6044
8998 2 2.2208 -0.3149 9.00967 2.20978
142 1 -1.1104 6.64811 18.6872 3.53356
141 1 -1.1104 7.18597 18.534 0.452109
143 1 -1.1104 6.8153 15.8535 0.881905
155 2 2.2208 11.0869 14.5577 2.32457
164 2 2.2208 8.03841 14.4365 5.0076
148 2 2.2208 10.8369 17.2176 5.02295
150 1 -1.1104 12.7198 18.6523 0.772763
153 1 -1.1104 12.5831 18.7595 3.40855
154 1 -1.1104 12.4467 16.0679 1.01575
156 2 2.2208 11.0238 20.1099 2.08072
157 1 -1.1104 12.2923 16.1088 3.80333
159 1 -1.1104 9.76746 18.7194 0.709562
161 2 2.2208 8.17819 17.2059 2.2067
163 1 -1.1104 9.45089 18.708 3.51286
165 2 2.2208 8.19217 20.1292 4.87128
166 1 -1.1104 9.68426 15.7541 0.936353
168 1 -1.1104 9.57725 15.8291 3.57457
308 1 -1.1104 12.2483 15.788 6.43688
8999 2 2.2208 -0.306965 11.6012 5.14023
24 1 -1.1104 3.88012 -1.07672 6.54914
9127 2 2.2208 -0.295107 -2.6455 8.00856
169 2 2.2208 5.39301 0.537136 10.87
170 1 -1.1104 1.22752 -4.05067 12.2848
172 1 -1.1104 0.943075 -3.84719 9.51011
174 1 -1.1104 1.14493 -1.30717 12.1271
175 2 2.2208 5.39183 -2.52324 7.99657
177 1 -1.1104 1.12941 -1.2359 9.37409
178 1 -1.1104 3.86593 -3.89324 12.2956
180 2 2.2208 2.50837 0.362885 8.01767
181 1 -1.1104 4.03937 -3.73734 9.6587
183 2 2.2208 2.49453 -2.52939 10.8076
185 1 -1.1104 3.85665 -0.938868 12.1839
186 1 -1.1104 3.78973 -1.1098 9.20579
9128 2 2.2208 -0.271654 0.186634 10.6134
306 2 2.2208 8.00713 17.2785 7.7919
319 1 -1.1104 12.431 16.0093 9.30863
192 1 -1.1104 6.57146 -3.83507 12.3156
197 1 -1.1104 6.48104 -1.11537 9.47855
196 1 -1.1104 6.70995 -1.05214 12.1857
203 1 -1.1104 9.6159 -1.27432 6.71371
194 1 -1.1104 6.75129 -3.96466 9.57477
201 1 -1.1104 9.76988 -3.91549 6.47258
200 1 -1.1104 12.2048 -1.06865 6.49699
204 2 2.2208 10.9626 0.183806 10.9146
205 1 -1.1104 12.3485 -3.94662 12.3461
207 1 -1.1104 12.6071 -3.70401 9.41757
209 1 -1.1104 12.448 -1.18081 12.2899
210 2 2.2208 11.1984 -2.61254 7.977
212 1 -1.1104 12.5802 -0.937866 9.41184
213 1 -1.1104 9.49067 -3.86308 12.2297
215 2 2.2208 8.16898 -0.0256901 8.14655
216 1 -1.1104 9.62964 -4.01069 9.50875
218 2 2.2208 8.03925 -2.53883 11.0437
220 1 -1.1104 9.49645 -1.28103 12.3043
221 1 -1.1104 9.51628 -1.39813 9.6584
428 2 2.2208 5.11813 19.9665 13.4527
245 2 2.2208 8.12019 5.83352 13.6037
81 1 -1.1104 3.98422 4.30159 6.61436
23 1 -1.1104 4.15708 1.61745 6.56735
171 1 -1.1104 1.02577 1.77679 12.0087
173 1 -1.1104 1.07758 1.78299 9.13988
176 2 2.2208 5.65367 3.00535 7.98107
179 1 -1.1104 3.82366 1.86241 12.2773
182 1 -1.1104 3.80006 1.78816 9.37936
184 2 2.2208 2.31626 3.14248 10.6428
227 2 2.2208 5.24178 5.88795 10.714
229 1 -1.1104 1.05378 7.56476 12.295
230 1 -1.1104 1.07859 7.42001 9.45889
231 1 -1.1104 0.882371 4.63884 12.1716
234 1 -1.1104 0.794552 4.61537 9.30838
236 1 -1.1104 4.08898 7.49621 12.1896
237 2 2.2208 2.48207 5.81664 8.13281
241 1 -1.1104 3.90425 4.69116 12.0385
243 1 -1.1104 3.83438 4.53891 9.34214
239 1 -1.1104 3.82822 7.29067 9.3693
9103 2 2.2208 13.6692 0.480629 7.97732
17596 2 2.2208 -0.407729 -5.27996 -0.401595
326 2 2.2208 8.07328 20.0189 10.7942
248 1 -1.1104 6.89596 4.53569 6.36395
52 1 -1.1104 7.01111 1.69729 6.79079
249 1 -1.1104 6.83872 7.25997 12.4221
250 1 -1.1104 6.72661 7.34224 9.65484
260 1 -1.1104 9.74426 4.43762 6.567
258 1 -1.1104 9.46168 7.23601 6.59939
199 1 -1.1104 12.4078 1.94925 6.51315
253 1 -1.1104 6.74407 4.51532 9.2694
193 1 -1.1104 6.73323 1.78248 12.2455
251 1 -1.1104 6.82296 4.56822 12.1867
195 1 -1.1104 6.90045 1.62902 9.68151
206 1 -1.1104 12.4905 1.64124 12.0786
208 1 -1.1104 12.1896 1.99816 9.32065
211 2 2.2208 11.0061 3.19766 7.97227
214 1 -1.1104 9.78181 1.49702 12.2752
217 1 -1.1104 9.56668 1.69933 9.22844
219 2 2.2208 8.38365 3.14223 10.7505
259 1 -1.1104 9.62926 4.48122 9.32946
262 1 -1.1104 9.37853 4.55275 12.439
264 1 -1.1104 9.4176 7.35484 9.26682
266 2 2.2208 8.20802 5.88747 8.08496
267 2 2.2208 11.1979 5.86817 10.9311
271 1 -1.1104 12.3037 4.35706 12.3647
274 1 -1.1104 12.3966 4.74672 9.47964
276 1 -1.1104 9.51511 7.24155 12.1295
269 1 -1.1104 12.3534 7.24381 12.4426
270 1 -1.1104 12.2018 7.3691 9.35121
284 1 -1.1104 6.63893 18.6242 9.14363
63 1 -1.1104 1.19 10.2895 6.51439
316 1 -1.1104 12.5475 16.0865 12.1222
75 1 -1.1104 3.80297 10.0297 6.4695
228 2 2.2208 5.36302 11.5918 10.7367
232 1 -1.1104 0.942817 10.2094 12.1091
233 2 2.2208 5.1488 8.71593 8.10344
235 1 -1.1104 1.17292 10.3666 9.38968
238 2 2.2208 2.73617 11.5123 8.04118
240 2 2.2208 2.46915 8.85846 10.9617
242 1 -1.1104 3.75722 10.2826 12.0322
244 1 -1.1104 3.91252 10.1764 9.39016
283 1 -1.1104 4.00228 13.0704 12.2868
289 1 -1.1104 1.10213 13.0743 9.21473
293 1 -1.1104 1.13213 12.9894 12.3841
299 1 -1.1104 4.35496 13.0605 9.39065
9197 2 2.2208 -0.337002 8.94814 7.86713
9250 2 2.2208 -0.234494 17.326 10.6473
145 1 -1.1104 6.88623 12.955 6.45682
307 1 -1.1104 12.5038 12.9767 6.5643
254 1 -1.1104 6.71556 10.2702 9.40962
246 1 -1.1104 12.6043 10.1851 6.6453
320 1 -1.1104 7.14262 12.9671 9.23577
252 1 -1.1104 6.84486 10.1331 12.3152
321 1 -1.1104 6.8641 12.9822 12.0353
247 1 -1.1104 9.45373 9.98174 6.50148
255 1 -1.1104 9.72391 10.2306 9.30353
261 1 -1.1104 9.69275 10.134 12.0527
263 2 2.2208 8.21049 8.7355 10.9481
265 2 2.2208 8.00103 11.4927 7.86973
268 2 2.2208 10.8547 11.865 10.6853
272 1 -1.1104 12.7089 10.2696 12.0884
273 2 2.2208 10.9151 8.7834 8.12273
275 1 -1.1104 12.4608 10.1314 9.42562
281 1 -1.1104 9.78585 13.2143 9.28697
312 1 -1.1104 12.4333 13.1371 12.0011
314 1 -1.1104 12.3706 13.2162 9.20635
323 1 -1.1104 9.64861 12.9575 12.2731
635 2 2.2208 2.68994 17.1909 13.6528
280 2 2.2208 5.39712 14.3665 13.5864
296 1 -1.1104 1.40848 18.7255 6.32684
139 1 -1.1104 3.78053 15.711 6.50611
303 2 2.2208 2.46336 14.3788 10.7394
9249 2 2.2208 -0.302359 20.1648 7.80486
8351 2 2.2208 10.9834 -5.14469 5.0995
132 1 -1.1104 4.08248 18.6631 6.28481
288 2 2.2208 5.35334 20.151 7.55596
287 1 -1.1104 1.33332 15.8414 9.4438
286 1 -1.1104 1.00745 18.5284 9.28235
294 2 2.2208 5.38894 17.1196 10.6273
292 1 -1.1104 1.1671 18.818 12.0989
282 1 -1.1104 3.92571 18.7169 11.9678
290 2 2.2208 5.46165 14.4761 7.78715
297 2 2.2208 2.52194 17.2814 7.61161
295 1 -1.1104 3.75112 18.6018 9.19157
298 1 -1.1104 4.08909 15.6921 9.27907
300 1 -1.1104 1.36421 15.9346 12.2378
301 1 -1.1104 4.05698 15.9286 12.3331
302 2 2.2208 2.57366 19.9319 10.7765
226 2 2.2208 2.53723 11.5381 13.7042
151 1 -1.1104 12.5221 18.6422 6.54231
325 1 -1.1104 9.84202 15.8356 12.143
313 1 -1.1104 12.5943 18.9192 11.9735
310 1 -1.1104 9.3053 18.6604 9.32276
327 2 2.2208 8.42732 14.4915 10.7613
305 1 -1.1104 9.70866 18.5745 12.1804
317 2 2.2208 10.8979 14.4827 7.81617
311 2 2.2208 10.9234 17.4419 10.7476
322 1 -1.1104 6.79361 15.7791 12.0462
291 1 -1.1104 6.73302 18.3874 12.0873
167 1 -1.1104 9.30995 15.8101 6.30197
124 1 -1.1104 6.57146 15.857 6.37985
318 2 2.2208 11.0906 19.9715 7.85015
285 1 -1.1104 6.65767 15.8124 9.02753
315 1 -1.1104 12.0647 18.7121 9.30225
160 1 -1.1104 9.66464 18.5267 6.57745
324 1 -1.1104 9.48185 15.9244 9.21285
8495 2 2.2208 10.9359 -5.27779 10.8859
452 2 2.2208 11.1328 20.1694 13.6573
25 2 2.2208 5.43577 0.429758 -0.30616
636 2 2.2208 11.101 14.2989 13.5544
17185 2 2.2208 -0.103441 -5.29082 5.15555
8316 2 2.2208 5.24962 -5.30154 5.28586
9193 2 2.2208 -0.51881 8.85346 13.6065
8515 2 2.2208 8.1916 -5.26603 13.5524
9132 2 2.2208 -0.42896 3.07016 13.5989
146 2 2.2208 11.1772 17.3588 -0.326644
147 2 2.2208 8.33101 14.2692 -0.405421
330 2 2.2208 5.39813 0.296429 16.4644
331 1 -1.1104 1.35118 -3.8052 17.9583
333 1 -1.1104 0.824658 -3.87338 15.2224
335 1 -1.1104 1.26203 -0.958033 17.9013
336 2 2.2208 5.33893 -2.38556 19.297
338 1 -1.1104 1.26269 -1.11121 15.0815
339 1 -1.1104 3.9838 -4.04823 17.9854
341 2 2.2208 2.5989 0.259682 19.2401
342 1 -1.1104 3.75624 -3.91238 15.1632
344 2 2.2208 2.52252 -2.54507 16.3775
346 1 -1.1104 4.03798 -1.29101 17.9105
347 1 -1.1104 3.93783 -1.22961 14.9976
8819 2 2.2208 5.45198 -5.36362 22.2116
9415 2 2.2208 -0.21553 14.6294 19.1863
9308 2 2.2208 -0.334814 0.397498 16.4656
9066 2 2.2208 -0.340382 17.2811 27.6449
486 1 -1.1104 3.98746 -1.14811 20.7703
483 1 -1.1104 1.15889 -0.97319 20.6938
17615 2 2.2208 -0.129148 -5.22393 22.1085
353 1 -1.1104 6.83236 -0.974241 14.9303
348 1 -1.1104 6.84069 -3.85808 17.758
350 1 -1.1104 6.65753 -3.67739 15.0637
352 1 -1.1104 6.86944 -1.1218 17.7245
355 2 2.2208 10.9377 0.363943 16.5021
356 1 -1.1104 12.6197 -4.00737 17.828
358 1 -1.1104 12.3249 -3.73817 15.155
362 1 -1.1104 12.5158 -1.12359 17.8755
363 2 2.2208 11.0792 -2.3447 19.1256
365 1 -1.1104 12.6322 -0.945057 15.2107
367 1 -1.1104 9.62565 -3.75113 17.9624
369 2 2.2208 8.15103 0.331497 19.1173
370 1 -1.1104 9.41227 -4.19476 15.0548
374 2 2.2208 8.19974 -2.62 16.47
376 1 -1.1104 9.66336 -1.03727 17.7993
377 1 -1.1104 9.62948 -1.22444 15.1319
9504 2 2.2208 -0.127896 8.80287 24.9406
366 1 -1.1104 12.3645 -1.1493 20.7429
354 1 -1.1104 6.60676 -1.3477 20.8719
506 1 -1.1104 6.7129 -4.1797 20.7456
378 1 -1.1104 9.54661 -0.940115 20.4824
359 1 -1.1104 12.2183 -4.06315 20.8114
9416 2 2.2208 -0.226709 17.4559 16.5271
332 1 -1.1104 1.17839 1.91231 17.8468
334 1 -1.1104 1.10468 1.63856 14.8394
337 2 2.2208 5.34717 3.02541 19.1647
340 1 -1.1104 4.00914 1.63155 17.7521
343 1 -1.1104 3.72034 1.64964 14.897
345 2 2.2208 2.32812 3.15488 16.3062
379 2 2.2208 5.38367 5.93044 16.3547
382 1 -1.1104 0.739556 7.4449 15.0828
383 1 -1.1104 0.990573 4.54075 17.9204
386 1 -1.1104 0.954252 4.62117 14.993
389 2 2.2208 2.63234 5.79918 19.1193
393 1 -1.1104 3.7433 4.39869 17.6871
395 1 -1.1104 3.65978 4.39412 14.9766
381 1 -1.1104 1.43755 7.10976 17.5468
388 1 -1.1104 4.0472 7.53008 17.9488
391 1 -1.1104 3.66532 7.32015 14.9514
53 2 2.2208 10.9189 0.353767 27.6768
9307 2 2.2208 -0.223411 3.07447 19.3161
533 1 -1.1104 1.35124 7.29607 20.5715
537 1 -1.1104 3.85964 4.56064 20.6587
536 1 -1.1104 3.96966 7.53839 20.7425
534 1 -1.1104 1.08224 4.57039 20.5023
485 1 -1.1104 3.9457 1.66541 20.4909
26 2 2.2208 2.7287 3.19213 27.727
398 1 -1.1104 6.59276 7.49768 15.0907
401 1 -1.1104 6.65064 4.38009 14.8775
349 1 -1.1104 6.8637 1.68686 17.8018
399 1 -1.1104 6.55205 4.59966 17.6941
351 1 -1.1104 6.36121 1.70292 15.1828
397 1 -1.1104 6.88255 7.36907 17.78
357 1 -1.1104 12.4144 1.52655 17.7373
360 1 -1.1104 12.4994 1.80652 14.8996
364 2 2.2208 10.9918 2.92582 19.442
368 1 -1.1104 9.68682 1.85472 17.7606
372 1 -1.1104 9.45343 1.53885 15.0254
375 2 2.2208 8.1017 3.12123 16.5103
404 2 2.2208 10.9584 5.87442 16.5772
409 1 -1.1104 12.3233 4.28708 18.0462
412 1 -1.1104 12.4696 4.62155 15.2201
417 2 2.2208 8.0121 5.76378 19.2556
422 1 -1.1104 9.28619 4.66021 17.7567
424 1 -1.1104 9.49994 4.5106 15.2375
419 1 -1.1104 9.43671 7.20577 15.0091
416 1 -1.1104 9.80198 7.26856 17.827
407 1 -1.1104 12.3714 7.43674 15.3528
406 1 -1.1104 12.3511 7.05375 18.1299
563 1 -1.1104 6.72997 7.30965 20.4682
413 1 -1.1104 12.346 4.37363 20.7296
361 1 -1.1104 12.7686 1.67589 20.5377
420 1 -1.1104 9.65701 7.18517 20.7246
425 1 -1.1104 9.51266 4.289 20.3185
9364 2 2.2208 -0.202908 11.668 16.4083
9456 2 2.2208 -0.184079 0.374274 22.2194
328 2 2.2208 2.60148 -2.51837 27.7694
380 2 2.2208 5.40033 11.6595 16.3674
384 1 -1.1104 1.16004 10.3409 17.9374
385 2 2.2208 5.2513 8.89419 19.2556
387 1 -1.1104 1.20336 10.2877 14.9628
390 2 2.2208 2.6383 11.6695 19.3155
392 2 2.2208 2.45113 8.8314 16.4956
394 1 -1.1104 3.87279 10.199 17.8289
396 1 -1.1104 4.00872 10.1456 14.9647
430 1 -1.1104 1.07669 13.2609 17.7952
433 1 -1.1104 1.07295 13.0687 14.9618
443 1 -1.1104 3.9917 13.0565 17.8058
446 1 -1.1104 3.84397 12.8858 15.0542
112 2 2.2208 5.45467 17.1584 27.6375
535 1 -1.1104 1.33425 10.1954 20.5908
440 2 2.2208 5.71573 14.4655 19.0807
17522 2 2.2208 0.00903322 -5.26429 16.7307
8936 2 2.2208 -0.261745 0.471764 27.7092
400 1 -1.1104 6.49762 10.073 17.6838
456 1 -1.1104 7.01568 13.0068 17.7744
403 1 -1.1104 6.83797 10.2478 14.8896
457 1 -1.1104 6.93484 13.1 14.9514
405 2 2.2208 10.9539 11.2408 16.3758
410 1 -1.1104 12.2473 10.0435 17.9397
411 2 2.2208 11.1853 8.66628 19.3338
414 1 -1.1104 12.6096 10.1497 15.0539
418 2 2.2208 8.04681 11.3147 19.0705
421 2 2.2208 8.06507 8.71097 16.3218
423 1 -1.1104 9.447 10.0544 17.7222
426 1 -1.1104 9.79842 9.92502 14.9445
460 1 -1.1104 12.3418 12.9367 17.5865
462 1 -1.1104 12.586 12.8264 14.818
469 1 -1.1104 9.81149 12.8556 17.7858
472 1 -1.1104 9.77812 12.91 14.9792
427 1 -1.1104 9.55517 9.9833 20.471
564 1 -1.1104 6.76153 10.1845 20.6665
415 1 -1.1104 12.4023 10.1474 20.6846
463 1 -1.1104 12.4463 13.1098 20.4953
614 2 2.2208 11.117 17.2359 21.8458
8996 2 2.2208 -0.329502 11.5067 27.6453
84 2 2.2208 11.1164 5.92709 27.5905
429 2 2.2208 5.40325 17.3121 16.4095
431 1 -1.1104 1.19397 18.7 17.8016
435 1 -1.1104 1.23937 18.551 15.0083
438 1 -1.1104 1.02244 16.0183 17.9258
441 2 2.2208 5.41738 20.1129 19.3949
442 1 -1.1104 1.28255 15.7388 15.1236
444 1 -1.1104 4.1029 18.8739 17.8662
445 2 2.2208 2.68739 17.2626 19.1996
447 1 -1.1104 4.03838 18.5828 14.9661
448 2 2.2208 2.63932 14.437 16.4253
449 2 2.2208 2.51841 20.1432 16.4563
450 1 -1.1104 4.09396 15.7946 17.7542
451 1 -1.1104 4.1112 15.6608 15.0288
9391 2 2.2208 -0.155505 20.2718 19.2367
432 1 -1.1104 6.84302 18.7858 17.7583
600 1 -1.1104 6.94158 15.8883 26.3066
598 1 -1.1104 4.24327 15.8737 20.475
597 1 -1.1104 3.93599 18.438 20.7471
8643 2 2.2208 2.73922 -5.18991 19.3738
505 2 2.2208 8.37993 17.2349 24.7824
9000 2 2.2208 -0.342166 5.98778 27.8038
189 2 2.2208 5.29146 3.04979 13.6434
190 2 2.2208 10.9521 3.06702 13.6677
439 1 -1.1104 6.94771 15.9447 17.8057
458 1 -1.1104 6.97545 15.775 14.8003
437 1 -1.1104 6.65265 18.6293 14.9726
475 2 2.2208 8.27783 14.5573 16.4045
466 2 2.2208 11.0746 14.3226 19.129
459 2 2.2208 10.9978 17.2156 16.3261
461 1 -1.1104 12.3416 18.7544 17.7614
464 1 -1.1104 12.6262 18.5858 14.7598
465 1 -1.1104 12.4776 15.6993 17.4071
467 2 2.2208 11.0215 19.8413 19.149
468 1 -1.1104 12.4586 15.8862 14.8488
470 1 -1.1104 9.3591 18.3158 17.5218
471 2 2.2208 8.18745 17.401 19.2378
474 1 -1.1104 9.57035 18.6367 14.832
476 2 2.2208 8.13509 19.9743 16.1723
477 1 -1.1104 9.71879 15.802 17.8582
478 1 -1.1104 9.70659 15.7729 14.8546
624 1 -1.1104 12.5722 15.8835 20.3609
595 1 -1.1104 6.99851 15.7755 20.5566
9363 2 2.2208 -0.36501 5.90199 16.3515
83 2 2.2208 8.10483 8.63324 27.7455
481 1 -1.1104 1.30509 -3.92186 20.9019
484 1 -1.1104 3.93833 -3.87095 20.7845
9457 2 2.2208 -0.139926 -2.52217 25.0527
487 2 2.2208 5.39047 0.210542 22.2884
488 1 -1.1104 1.34605 -3.68858 23.7147
490 1 -1.1104 1.33973 -3.83171 26.5185
492 1 -1.1104 1.51698 -0.764671 23.4326
493 2 2.2208 5.37 -2.43309 25.188
495 1 -1.1104 1.20412 -1.20608 26.2498
496 1 -1.1104 3.98945 -3.8615 23.5894
498 2 2.2208 2.69302 0.31388 24.9932
499 1 -1.1104 4.1545 -4.15206 26.3962
501 2 2.2208 2.64178 -2.42687 22.1767
503 1 -1.1104 3.99889 -0.991089 23.6204
504 1 -1.1104 4.14099 -1.22789 26.3993
9309 2 2.2208 -0.113568 -2.24516 19.3688
371 1 -1.1104 9.43556 -3.8146 20.5308
513 1 -1.1104 6.85208 -1.09953 26.2724
512 1 -1.1104 6.77016 -1.33555 23.468
510 1 -1.1104 6.77851 -3.95434 26.3764
508 1 -1.1104 6.76317 -4.00327 23.6916
514 2 2.2208 10.9345 0.169562 22.2656
515 1 -1.1104 12.5227 -4.08261 23.4695
517 1 -1.1104 12.442 -3.70375 26.4396
519 1 -1.1104 12.3871 -1.28267 23.5583
520 2 2.2208 10.9792 -2.62242 24.9864
522 1 -1.1104 12.6069 -0.879109 26.2892
523 1 -1.1104 9.79667 -3.81173 23.397
525 2 2.2208 8.22471 0.200595 25.0538
526 1 -1.1104 9.67753 -4.1784 26.1195
528 2 2.2208 8.07503 -2.46772 22.12
530 1 -1.1104 9.58068 -1.10519 23.5507
531 1 -1.1104 9.68935 -1.17561 26.2888
9532 2 2.2208 -0.19706 6.05195 22.0291
54 2 2.2208 8.2003 3.27585 27.6417
9571 2 2.2208 -0.189536 14.4005 24.8899
111 2 2.2208 2.35974 14.3551 27.7489
56 2 2.2208 2.49058 8.70138 27.7954
82 2 2.2208 5.62785 6.09118 27.7843
482 1 -1.1104 1.11342 1.78587 20.805
9455 2 2.2208 -0.296216 3.31323 24.8446
489 1 -1.1104 1.03613 2.02785 23.3006
491 1 -1.1104 1.11793 1.96808 26.2854
494 2 2.2208 5.46778 3.15647 25.0168
497 1 -1.1104 4.01079 1.75052 23.5588
500 1 -1.1104 3.91808 1.69428 26.4664
502 2 2.2208 2.58462 3.12171 22.2058
539 2 2.2208 5.37084 5.87684 22.0136
541 1 -1.1104 1.19398 7.51939 23.604
544 1 -1.1104 1.18357 4.76357 23.5124
547 1 -1.1104 1.44331 4.6864 26.3385
551 2 2.2208 2.72167 6.04926 24.8226
553 1 -1.1104 4.05935 7.45967 26.4416
555 1 -1.1104 4.18809 4.37679 23.467
557 1 -1.1104 4.35476 4.57241 26.3319
550 1 -1.1104 4.0999 7.23378 23.4859
543 1 -1.1104 1.33389 7.32703 26.4476
542 1 -1.1104 6.74188 7.32296 23.3147
85 2 2.2208 10.9686 11.4438 27.7019
402 1 -1.1104 6.69722 4.24619 20.6396
507 1 -1.1104 6.68724 1.38097 20.7552
408 1 -1.1104 12.4126 7.12082 20.8167
509 1 -1.1104 6.75947 1.47974 23.7183
571 1 -1.1104 6.72424 4.41387 23.4111
373 1 -1.1104 9.59744 1.56346 20.7894
511 1 -1.1104 6.60741 1.77504 26.4648
570 1 -1.1104 6.76041 7.3245 26.2743
573 1 -1.1104 7.01343 4.60963 26.2119
516 1 -1.1104 12.4879 1.84387 23.234
518 1 -1.1104 12.5305 1.76382 26.1023
521 2 2.2208 11.113 3.16084 24.7145
524 1 -1.1104 9.63563 1.61029 23.7079
527 1 -1.1104 9.43159 1.66892 26.2748
529 2 2.2208 8.0564 2.8215 22.0196
561 1 -1.1104 12.4568 4.67196 23.3947
567 2 2.2208 10.8766 5.73638 22.0106
568 2 2.2208 8.26611 5.93807 24.8284
576 1 -1.1104 12.4452 4.58562 26.0273
578 1 -1.1104 9.55314 4.41967 25.9884
580 1 -1.1104 9.79185 4.18992 23.1546
582 1 -1.1104 9.82004 7.11039 26.2871
565 1 -1.1104 12.5197 7.45458 23.5678
569 1 -1.1104 9.51846 7.11764 23.495
562 1 -1.1104 12.5694 7.41705 26.3374
596 1 -1.1104 4.18748 13.1902 20.5688
9505 2 2.2208 -0.143099 11.6241 22.1461
538 1 -1.1104 4.12181 10.4768 20.6213
434 1 -1.1104 0.958341 12.845 20.6509
540 2 2.2208 5.51012 11.6416 22.0497
545 1 -1.1104 0.968879 10.3678 23.4946
546 2 2.2208 5.52462 8.78656 24.7341
548 1 -1.1104 1.39468 10.1249 26.091
552 2 2.2208 2.73712 11.6515 24.9072
554 2 2.2208 2.58038 8.83897 22.1342
556 1 -1.1104 3.97261 9.92946 23.4204
558 1 -1.1104 4.34231 10.2575 26.1
588 1 -1.1104 1.04194 12.9327 26.3198
601 1 -1.1104 4.13593 12.8612 23.4765
603 1 -1.1104 1.53114 12.972 23.4061
609 1 -1.1104 3.75347 13.4174 26.2834
584 1 -1.1104 6.73094 12.9284 23.5002
605 1 -1.1104 7.13167 15.9336 23.3164
592 1 -1.1104 6.99188 12.9106 20.4765
473 1 -1.1104 9.69424 12.8293 20.6179
572 1 -1.1104 6.81845 10.2405 23.3395
633 1 -1.1104 6.61632 13.1621 26.4332
549 1 -1.1104 7.1327 10.1843 26.2126
559 2 2.2208 11.1835 8.72597 25.0177
560 1 -1.1104 12.3015 10.4787 23.4657
566 2 2.2208 10.9442 11.6299 21.9789
574 2 2.2208 8.15557 11.5551 24.8921
575 1 -1.1104 12.6268 10.1787 26.2928
577 1 -1.1104 9.6943 9.8367 26.5029
579 1 -1.1104 9.39069 10.0527 23.6543
581 2 2.2208 8.00806 8.63271 21.9365
532 1 -1.1104 9.61542 12.8443 26.1879
617 1 -1.1104 12.5034 13.2212 23.5345
619 1 -1.1104 12.4655 13.0661 26.4014
631 1 -1.1104 9.48241 12.8956 23.1486
618 1 -1.1104 12.5845 18.7849 23.3658
594 1 -1.1104 1.15821 15.8734 20.6893
9576 2 2.2208 -0.320609 20.0087 24.8466
436 1 -1.1104 1.29985 18.5947 20.7961
9365 2 2.2208 -0.0461051 8.76534 19.0854
9577 2 2.2208 -0.142659 17.0888 21.981
612 2 2.2208 2.81072 14.5263 21.9851
585 2 2.2208 5.4277 14.5273 24.9723
583 1 -1.1104 1.12581 18.5402 23.422
586 2 2.2208 5.34327 19.9904 24.9405
589 1 -1.1104 1.01325 15.882 26.2053
590 1 -1.1104 4.22245 15.8077 23.4523
591 1 -1.1104 1.41765 15.7857 23.4266
599 1 -1.1104 1.12487 18.8801 26.2838
602 1 -1.1104 3.93956 18.7221 23.585
604 2 2.2208 2.56219 20.1245 22.1398
607 2 2.2208 5.48983 17.3056 22.085
608 1 -1.1104 3.9244 18.5813 26.3012
610 1 -1.1104 3.84981 15.9786 26.4606
611 2 2.2208 2.67628 17.2063 24.7689
606 1 -1.1104 6.70308 18.5436 25.9214
628 2 2.2208 11.0192 14.185 24.8488
632 1 -1.1104 9.53789 15.5972 26.3728
621 2 2.2208 8.13533 20.298 22.0012
613 1 -1.1104 9.57813 18.6769 25.9833
587 1 -1.1104 6.81808 18.6157 23.2771
629 2 2.2208 11.0241 20.2275 24.7691
623 1 -1.1104 12.5878 18.4901 20.3779
626 1 -1.1104 10.0578 15.6363 20.7358
625 1 -1.1104 9.78533 18.6259 20.5289
634 1 -1.1104 9.57847 18.6626 23.3411
627 1 -1.1104 9.77519 15.6923 23.3
630 1 -1.1104 12.509 15.7005 26.3556
593 1 -1.1104 6.94415 18.78 20.5888
615 2 2.2208 8.34113 14.3991 21.9407
620 1 -1.1104 12.4675 18.5308 26.3414
622 1 -1.1104 12.3621 15.9633 23.3621
113 2 2.2208 2.62319 20.1439 27.6279
278 2 2.2208 11.2116 8.77892 13.685
144 2 2.2208 8.19403 20.0409 27.532
223 2 2.2208 11.0059 -2.51409 13.726
637 2 2.2208 5.24454 22.9104 4.88023
639 1 -1.1104 0.98079 24.513 1.07178
640 1 -1.1104 1.03791 24.4871 3.90458
641 1 -1.1104 1.18405 21.5676 0.613047
643 2 2.2208 5.25113 25.7078 2.15367
644 1 -1.1104 1.16868 21.7751 3.35316
646 1 -1.1104 3.97315 24.2932 0.670508
647 2 2.2208 2.51953 23.094 2.12806
649 1 -1.1104 3.84582 24.358 3.50706
650 2 2.2208 2.54179 25.8558 5.1261
651 1 -1.1104 3.90021 21.6741 0.583132
653 1 -1.1104 3.81929 21.6681 3.51621
652 1 -1.1104 3.83242 27.279 0.821219
642 1 -1.1104 1.13134 27.3729 1.1658
947 2 2.2208 13.5901 42.6213 10.8538
654 1 -1.1104 3.85999 27.0788 3.59406
9806 2 2.2208 -0.394517 25.8272 8.05021
1054 2 2.2208 5.2572 31.2633 13.4703
666 1 -1.1104 3.95857 24.3819 6.27517
664 1 -1.1104 1.09163 21.6219 6.19346
794 2 2.2208 -0.226104 45.613 -0.45837
944 2 2.2208 2.48929 39.9917 13.6817
656 1 -1.1104 6.93674 24.3205 0.584157
659 1 -1.1104 6.79112 27.0634 0.920945
660 1 -1.1104 6.84501 21.4859 3.53937
658 1 -1.1104 6.68173 21.4352 0.855275
657 1 -1.1104 6.5872 24.1315 3.21977
671 2 2.2208 10.9909 22.9251 4.96468
673 1 -1.1104 12.5228 24.3928 0.933499
674 1 -1.1104 12.1334 24.5544 3.55587
675 1 -1.1104 12.4328 21.5182 0.611579
677 2 2.2208 10.9333 25.6764 2.08424
678 1 -1.1104 12.4527 21.5828 3.68628
680 1 -1.1104 9.58371 24.2261 0.548447
681 2 2.2208 8.00065 22.8152 2.05252
683 1 -1.1104 9.44947 24.1668 3.42411
684 2 2.2208 8.13842 25.535 4.92072
685 1 -1.1104 9.59119 21.5534 0.733367
687 1 -1.1104 9.79346 21.4446 3.43432
688 1 -1.1104 9.47977 27.0468 3.52962
686 1 -1.1104 9.52305 27.0057 0.789045
676 1 -1.1104 12.3888 27.1483 0.740851
661 1 -1.1104 6.80059 27.0308 3.86069
851 1 -1.1104 12.4436 24.3187 6.27544
694 1 -1.1104 9.70848 26.9387 6.41156
692 1 -1.1104 9.39913 24.2039 6.36169
853 1 -1.1104 12.4262 26.8483 6.92675
645 1 -1.1104 1.10153 27.4315 3.96948
9705 2 2.2208 -0.310575 31.7006 2.60619
1007 2 2.2208 2.36184 28.6099 13.4239
638 2 2.2208 5.44227 28.2325 5.17365
648 2 2.2208 2.73443 28.6868 2.4248
700 1 -1.1104 1.28518 30.1522 1.09003
703 1 -1.1104 1.00556 30.1767 3.7635
706 1 -1.1104 1.28433 32.8713 1.0565
707 2 2.2208 5.37664 31.2433 2.41543
709 1 -1.1104 1.02913 33.1534 3.89712
711 1 -1.1104 4.01465 30.2118 0.874093
714 1 -1.1104 3.67323 30.1714 3.88401
716 2 2.2208 2.5416 31.4385 5.3789
718 1 -1.1104 3.90378 33.0656 1.0566
719 1 -1.1104 4.03682 32.9367 4.12
797 2 2.2208 5.23158 45.527 -0.479673
728 1 -1.1104 3.81457 29.6405 6.60145
731 2 2.2208 2.43034 37.3512 -0.298689
679 1 -1.1104 12.1871 27.2328 3.66437
9808 2 2.2208 -0.285497 22.8364 10.812
724 1 -1.1104 6.61142 32.7777 0.940501
722 1 -1.1104 6.68421 29.909 0.724788
710 1 -1.1104 6.77661 32.4702 3.54187
723 1 -1.1104 6.37645 29.5141 3.43013
900 1 -1.1104 12.8472 29.7481 6.14661
672 2 2.2208 10.9614 28.5599 5.01103
682 2 2.2208 8.19251 28.4265 2.20318
734 1 -1.1104 12.3703 29.9503 0.913949
736 1 -1.1104 12.2662 30.0381 3.61129
738 1 -1.1104 12.3992 32.6893 0.811053
739 2 2.2208 11.036 31.4382 2.37422
741 1 -1.1104 12.3401 32.9417 3.5918
742 1 -1.1104 9.57511 29.7142 0.905073
745 1 -1.1104 9.48098 29.8494 3.85055
747 2 2.2208 8.19768 31.3295 5.1123
749 1 -1.1104 9.49579 32.6322 0.995825
750 1 -1.1104 9.52494 32.856 3.72955
727 1 -1.1104 6.85351 32.7046 6.52669
755 1 -1.1104 9.59321 32.7312 6.51343
753 1 -1.1104 9.94064 29.8716 6.77062
1224 2 2.2208 2.47676 31.5811 -0.410104
798 2 2.2208 11.1651 45.5834 -0.361213
9646 2 2.2208 -0.187719 23.0152 5.09104
699 2 2.2208 5.23145 34.4276 5.06331
701 1 -1.1104 1.07493 35.9746 0.859263
704 1 -1.1104 0.981953 35.8681 3.66671
708 2 2.2208 5.36628 36.9752 2.37125
712 1 -1.1104 3.73192 35.7619 1.28119
713 2 2.2208 2.52329 34.3332 2.48374
715 1 -1.1104 3.87339 35.8466 3.92693
717 2 2.2208 2.47838 37.2895 5.0554
764 2 2.2208 5.45427 39.9301 5.45364
770 1 -1.1104 1.21926 38.6011 1.05086
775 1 -1.1104 0.994626 38.6851 3.73657
779 2 2.2208 2.67432 39.9423 2.36738
783 1 -1.1104 4.17816 38.4002 1.10548