ITEM: TIMESTEP
50000
ITEM: NUMBER OF ATOMS
17704
ITEM: BOX BOUNDS pp pp pp
-4.4926009431217589e-01 2.7789260094312102e+01
-5.3506064840203758e+00 3.3343060648402246e+02
-4.4507690429923341e-01 2.7785076904299142e+01
ITEM: ATOMS id type q x y z
1 2 2.2208 5.2249 0.222186 5.17885
2 1 -1.1104 0.92867 -4.17047 0.876443
4 1 -1.1104 0.669126 -4.14173 3.71465
6 1 -1.1104 0.961662 -1.15132 0.939816
7 2 2.2208 5.02686 -2.57894 2.30432
9 1 -1.1104 0.784413 -1.16998 3.78049
10 1 -1.1104 3.80522 -4.24104 0.916663
12 2 2.2208 2.21467 0.124597 2.22449
13 1 -1.1104 3.40227 -3.77392 3.67898
15 2 2.2208 2.29173 -2.49212 5.20338
17 1 -1.1104 3.84916 -1.25312 0.84969
18 1 -1.1104 3.5622 -1.06337 3.81821
27 1 -1.1104 6.30848 -3.82635 0.629412
8963 2 2.2208 13.5011 8.84089 4.9968
8901 2 2.2208 13.3766 2.76763 4.96448
22 1 -1.1104 3.56109 -4.07516 6.53058
21 1 -1.1104 1.10834 -1.13069 6.68272
452 2 2.2208 10.7573 20.1564 13.6802
31 1 -1.1104 6.48331 -1.00015 1.08542
32 1 -1.1104 6.49548 -1.40927 3.91445
29 1 -1.1104 6.29859 -4.08861 3.65379
33 2 2.2208 10.6957 0.00120254 5.00537
34 1 -1.1104 12.1274 -4.00612 1.19924
36 1 -1.1104 12.3549 -3.86822 3.77107
38 1 -1.1104 11.9437 -1.25044 0.71817
39 2 2.2208 10.6276 -2.75198 2.23619
41 1 -1.1104 12.1144 -1.32192 3.54247
42 1 -1.1104 9.17977 -4.19991 0.977283
44 2 2.2208 7.803 0.272018 2.33081
45 1 -1.1104 9.36424 -4.09534 3.80989
47 2 2.2208 7.97752 -2.70759 5.22113
49 1 -1.1104 9.22778 -1.17786 0.966509
50 1 -1.1104 9.21075 -1.4687 3.74321
191 1 -1.1104 6.57622 -1.08075 6.58313
326 2 2.2208 7.81624 19.8355 10.6307
201 1 -1.1104 9.23972 -4.03839 6.55609
200 1 -1.1104 12.3777 -1.21292 6.50956
9166 2 2.2208 13.5743 8.72635 10.8064
479 2 2.2208 7.99375 17.1722 13.3745
316 1 -1.1104 12.0475 15.8114 12.1848
8483 2 2.2208 2.17785 -5.28905 7.97278
3 1 -1.1104 0.700082 1.62927 0.815222
5 1 -1.1104 0.784433 1.69753 3.77576
8 2 2.2208 4.9659 3.05297 2.40865
11 1 -1.1104 3.46627 1.58144 0.763996
14 1 -1.1104 3.55584 1.51912 3.59772
16 2 2.2208 2.24338 2.89421 5.02026
57 2 2.2208 5.12858 5.87804 5.0424
61 1 -1.1104 0.782523 4.60392 0.899234
66 1 -1.1104 0.720892 4.44442 3.69534
69 2 2.2208 2.12758 5.98558 2.29674
73 1 -1.1104 3.44021 4.31622 0.714237
76 1 -1.1104 3.35468 4.42207 3.6128
59 1 -1.1104 0.918717 7.4905 0.831779
60 1 -1.1104 0.842499 7.33537 3.56987
71 1 -1.1104 3.6478 7.15812 3.73332
68 1 -1.1104 3.69535 7.10657 0.71958
79 1 -1.1104 0.989267 4.57455 6.58712
248 1 -1.1104 6.71227 4.54194 6.68055
23 1 -1.1104 3.55943 1.44131 6.54628
78 1 -1.1104 0.948949 7.43252 6.77536
81 1 -1.1104 3.86429 4.21005 6.40153
222 2 2.2208 8.10294 0.286487 13.5753
88 1 -1.1104 6.44028 4.49117 1.27881
28 1 -1.1104 6.49935 1.67406 0.838925
90 1 -1.1104 6.37882 4.40693 3.85478
30 1 -1.1104 6.54435 1.53289 3.86167
86 1 -1.1104 6.42937 7.38356 0.804331
87 1 -1.1104 6.41981 7.17052 3.59183
35 1 -1.1104 11.9971 1.60779 0.694059
37 1 -1.1104 12.3114 1.22456 3.54265
40 2 2.2208 10.5162 2.78952 2.26825
43 1 -1.1104 9.31903 1.62481 0.849044
46 1 -1.1104 9.34346 1.37132 3.91244
48 2 2.2208 8.01332 3.08623 5.23636
92 2 2.2208 10.5281 5.77456 4.89293
94 1 -1.1104 11.8828 7.20076 0.912915
95 1 -1.1104 12.2604 7.09915 3.63309
96 1 -1.1104 12.4546 4.42215 0.5538
99 1 -1.1104 12.0277 4.03385 3.4783
102 2 2.2208 7.98879 5.98472 2.1465
104 1 -1.1104 9.5017 7.14509 3.57221
106 1 -1.1104 9.3421 4.39085 0.883433
108 1 -1.1104 9.26568 4.31433 3.52651
101 1 -1.1104 9.25427 7.31348 0.857108
258 1 -1.1104 9.41322 7.4171 6.4078
202 1 -1.1104 9.36412 1.67217 6.51515
260 1 -1.1104 9.49955 4.46681 6.55942
110 1 -1.1104 6.50933 7.19623 6.44611
256 1 -1.1104 12.1433 7.27301 6.40285
480 2 2.2208 13.5131 17.1212 13.3809
58 2 2.2208 5.03825 11.517 5.2052
62 1 -1.1104 1.13739 10.43 0.610028
65 2 2.2208 5.11413 8.56198 2.27042
67 1 -1.1104 0.93483 10.132 3.34287
70 2 2.2208 2.26108 11.5538 2.20331
72 2 2.2208 2.273 8.65135 5.03085
74 1 -1.1104 3.78742 10.0731 0.543413
77 1 -1.1104 3.78473 9.98288 3.70091
115 1 -1.1104 0.825104 12.9897 1.00294
119 1 -1.1104 0.811486 12.8417 3.66643
129 1 -1.1104 3.85764 13.0413 0.684251
134 1 -1.1104 3.67736 12.7052 3.77697
189 2 2.2208 5.31834 2.95559 13.5573
279 1 -1.1104 0.974982 12.7994 6.39628
63 1 -1.1104 0.754752 10.0898 6.16875
91 1 -1.1104 6.53729 10.074 3.69789
145 1 -1.1104 6.5172 13.1253 6.42773
117 1 -1.1104 6.58752 12.986 0.564483
64 1 -1.1104 6.44828 9.98219 1.04601
121 1 -1.1104 6.53902 12.8227 3.52858
93 2 2.2208 10.6628 11.8222 4.95047
97 1 -1.1104 12.1994 10.0567 0.954111
98 2 2.2208 10.8043 8.75182 2.33527
100 1 -1.1104 12.2216 10.5386 3.75558
103 2 2.2208 7.90667 11.6623 2.01753
105 2 2.2208 7.74461 8.685 4.99672
107 1 -1.1104 9.5667 10.3926 0.799582
109 1 -1.1104 9.33399 10.0069 3.7263
149 1 -1.1104 12.2816 13.0878 0.972931
152 1 -1.1104 12.1776 13.1146 3.58927
158 1 -1.1104 9.44169 13.0732 0.645225
162 1 -1.1104 9.3739 12.9248 3.26126
247 1 -1.1104 9.62914 10.2952 6.39284
246 1 -1.1104 12.1671 10.1566 6.43564
309 1 -1.1104 9.26608 12.8335 6.46531
89 1 -1.1104 6.66952 10.112 6.35137
307 1 -1.1104 12.1039 12.9857 6.45919
278 2 2.2208 10.8206 8.81618 13.5613
285 1 -1.1104 6.2712 15.7303 9.52124
136 2 2.2208 2.23293 14.1996 5.08038
125 2 2.2208 5.01283 14.3873 2.12781
114 2 2.2208 4.96444 17.2412 5.10194
116 1 -1.1104 0.850136 18.4177 0.864206
120 1 -1.1104 0.817398 18.6562 3.82872
122 1 -1.1104 1.17655 15.6187 1.11624
126 2 2.2208 5.1649 20.3297 2.14617
127 1 -1.1104 0.597819 15.6544 3.88509
131 1 -1.1104 3.851 18.7926 0.83039
133 2 2.2208 2.26488 17.1858 2.31278
135 1 -1.1104 3.66433 18.7572 3.54948
137 2 2.2208 2.19787 20.1055 5.18712
138 1 -1.1104 3.90213 15.8447 0.676525
140 1 -1.1104 3.75071 15.6609 3.56279
128 1 -1.1104 6.53759 15.8048 3.29311
142 1 -1.1104 6.52779 18.6494 3.76861
9224 2 2.2208 13.5764 17.1494 7.86515
132 1 -1.1104 3.57603 18.7748 6.27371
139 1 -1.1104 3.76822 15.8366 6.19004
311 2 2.2208 10.9011 17.1803 10.3963
296 1 -1.1104 0.734807 18.3264 6.63274
224 2 2.2208 5.19654 8.78291 13.4754
141 1 -1.1104 6.68787 18.7707 1.00442
143 1 -1.1104 6.4108 15.717 0.665921
164 2 2.2208 7.86799 14.3834 4.85114
148 2 2.2208 10.8576 17.0696 4.9772
150 1 -1.1104 12.2805 18.7589 0.863648
153 1 -1.1104 12.2871 18.4959 3.71357
154 1 -1.1104 12.1616 16.0066 0.917884
155 2 2.2208 10.745 14.414 2.06861
156 2 2.2208 10.7365 19.9561 2.23058
157 1 -1.1104 12.1356 15.6129 3.77943
159 1 -1.1104 9.37705 18.4192 0.896911
161 2 2.2208 7.69978 17.2183 2.16247
163 1 -1.1104 9.59444 18.6507 3.73393
165 2 2.2208 7.79975 20.0292 5.21049
166 1 -1.1104 9.39821 15.7709 0.73222
168 1 -1.1104 9.2974 15.7038 3.55858
167 1 -1.1104 9.16751 15.6803 6.24365
160 1 -1.1104 9.41175 18.4667 6.56057
308 1 -1.1104 11.7669 15.9635 6.60964
313 1 -1.1104 12.3058 18.6911 12.1278
636 2 2.2208 10.7017 14.5872 13.3748
19 1 -1.1104 0.72189 -4.1049 6.43762
188 2 2.2208 2.44471 0.183193 13.631
9030 2 2.2208 13.5896 19.9682 5.01949
24 1 -1.1104 3.90547 -1.1869 6.627
169 2 2.2208 5.14529 0.23178 10.7503
170 1 -1.1104 1.09499 -4.10861 12.2078
172 1 -1.1104 0.902878 -3.87655 9.4253
174 1 -1.1104 1.01292 -1.29156 12.1935
175 2 2.2208 5.2241 -2.518 8.01884
177 1 -1.1104 1.26985 -1.07085 9.48465
178 1 -1.1104 4.07657 -3.77816 12.368
180 2 2.2208 2.40866 0.27685 7.98271
181 1 -1.1104 3.56848 -4.01054 9.36667
183 2 2.2208 2.35926 -2.51108 10.7608
185 1 -1.1104 3.7999 -1.08892 12.0353
186 1 -1.1104 3.98092 -1.13268 9.19311
8350 2 2.2208 7.85469 -5.50048 2.38818
8902 2 2.2208 13.4787 0.0770559 2.2553
9127 2 2.2208 -0.338611 -2.53738 7.95389
245 2 2.2208 8.03671 5.85585 13.5422
198 1 -1.1104 12.1652 -4.00912 6.60823
280 2 2.2208 5.2553 14.2998 13.4544
51 1 -1.1104 6.53695 -4.01438 6.52005
203 1 -1.1104 9.56437 -1.2433 6.42268
197 1 -1.1104 6.7097 -1.41802 9.66298
192 1 -1.1104 6.81829 -4.02031 12.1414
194 1 -1.1104 6.60778 -3.93748 9.44325
196 1 -1.1104 6.61563 -1.26622 12.3413
204 2 2.2208 10.9123 0.196236 10.9531
205 1 -1.1104 12.4041 -3.95808 12.0586
207 1 -1.1104 12.0334 -3.91829 9.32444
209 1 -1.1104 12.1506 -1.29854 12.3159
210 2 2.2208 10.8313 -2.62517 7.91112
212 1 -1.1104 12.3843 -1.0488 9.42672
213 1 -1.1104 9.52769 -4.04507 12.0668
215 2 2.2208 8.10238 0.230508 7.92924
216 1 -1.1104 9.28049 -3.97332 9.15401
218 2 2.2208 8.11775 -2.59772 10.7043
220 1 -1.1104 9.41933 -1.1913 12.1856
221 1 -1.1104 9.63971 -1.19243 9.1808
319 1 -1.1104 12.088 15.6427 9.2191
8968 2 2.2208 13.5794 5.78373 2.255
329 2 2.2208 7.82732 -2.53443 -0.532094
9104 2 2.2208 13.6491 -2.61044 10.7884
20 1 -1.1104 0.738213 1.81677 6.57602
80 1 -1.1104 3.79138 7.33742 6.37052
171 1 -1.1104 1.08638 1.53256 12.2203
173 1 -1.1104 0.997073 1.65122 9.53374
176 2 2.2208 5.10661 3.18637 8.00624
179 1 -1.1104 3.89603 1.72261 12.0576
182 1 -1.1104 3.87874 1.65812 9.33477
184 2 2.2208 2.48516 3.0058 10.9488
227 2 2.2208 5.09937 5.94337 10.7501
229 1 -1.1104 1.19949 7.42828 12.206
230 1 -1.1104 0.839256 7.12767 9.45434
231 1 -1.1104 1.06998 4.50935 12.2111
234 1 -1.1104 1.04452 4.22595 9.34387
236 1 -1.1104 3.83199 7.22258 12.3191
237 2 2.2208 2.22936 5.83338 7.97683
241 1 -1.1104 3.67964 4.52531 12.2303
243 1 -1.1104 3.82817 4.73624 9.31924
239 1 -1.1104 3.66894 7.43926 9.24202
225 2 2.2208 2.31769 5.85986 13.5073
52 1 -1.1104 6.32455 1.80816 6.40132
251 1 -1.1104 6.65003 4.45882 12.3598
257 1 -1.1104 12.3575 4.34151 6.32162
306 2 2.2208 7.96148 17.09 7.8019
249 1 -1.1104 6.43282 7.4774 12.1668
193 1 -1.1104 6.6833 1.62746 12.288
199 1 -1.1104 12.1549 1.34346 6.23204
195 1 -1.1104 6.7941 1.32451 9.41145
253 1 -1.1104 6.63899 4.24824 9.40086
250 1 -1.1104 6.58278 7.10559 9.1023
206 1 -1.1104 12.1323 1.73412 12.3537
208 1 -1.1104 12.4273 1.94434 9.27958
211 2 2.2208 10.8396 2.87292 7.94319
214 1 -1.1104 9.4649 1.60816 11.9939
217 1 -1.1104 9.59481 1.50597 9.31536
219 2 2.2208 8.04673 2.84827 10.6886
259 1 -1.1104 9.13118 4.29131 9.38021
262 1 -1.1104 9.3389 4.46097 12.2824
264 1 -1.1104 9.40171 7.14515 9.18852
266 2 2.2208 8.04917 5.83438 7.80055
267 2 2.2208 10.759 5.83952 10.7162
271 1 -1.1104 12.1763 4.49512 12.1569
274 1 -1.1104 12.077 4.60606 9.29339
276 1 -1.1104 9.18638 7.24659 12.1325
270 1 -1.1104 12.2067 7.36138 9.29708
269 1 -1.1104 12.3715 7.26563 12.2008
9196 2 2.2208 -0.372126 6.13562 10.8364
9225 2 2.2208 13.4483 14.2744 10.6595
9029 2 2.2208 13.6682 14.2514 4.99339
75 1 -1.1104 3.57448 10.1861 6.53055
223 2 2.2208 10.7902 -2.58832 13.6037
130 1 -1.1104 3.90723 12.9787 6.5883
9132 2 2.2208 -0.460272 3.03761 13.5562
228 2 2.2208 5.20003 11.5043 10.7629
232 1 -1.1104 0.928103 10.1203 12.1515
233 2 2.2208 5.08467 8.60879 7.89555
235 1 -1.1104 0.863993 9.93005 9.33488
238 2 2.2208 2.46327 11.4837 7.99576
240 2 2.2208 2.38693 8.61823 10.7513
242 1 -1.1104 4.13213 9.84493 12.002
244 1 -1.1104 3.76914 10.2809 9.36685
283 1 -1.1104 3.67886 12.9323 12.0774
289 1 -1.1104 1.00216 13.018 9.18495
293 1 -1.1104 0.934294 13.0264 12.0617
299 1 -1.1104 3.73436 13.1726 9.26977
9167 2 2.2208 13.4537 11.4481 7.87816
9251 2 2.2208 -0.51313 14.3567 13.5114
252 1 -1.1104 6.87255 10.2384 12.1684
321 1 -1.1104 6.57483 12.9625 11.9573
320 1 -1.1104 6.60986 12.8168 9.07067
254 1 -1.1104 6.36317 9.99537 9.2351
255 1 -1.1104 9.25897 9.95465 9.219
261 1 -1.1104 9.5286 10.0574 12.148
263 2 2.2208 7.81372 8.51227 10.4729
265 2 2.2208 7.94066 11.4856 7.91048
268 2 2.2208 10.7065 11.4315 10.7701
272 1 -1.1104 12.3102 10.2206 12.1677
273 2 2.2208 10.7408 8.70136 7.65332
275 1 -1.1104 12.1581 10.0993 9.31453
281 1 -1.1104 9.32463 12.9311 9.45885
312 1 -1.1104 12.3376 13.1197 12.2377
314 1 -1.1104 12.1655 12.8561 9.16714
323 1 -1.1104 9.26633 12.8975 12.1599
428 2 2.2208 5.19671 19.9506 13.6292
324 1 -1.1104 9.34446 15.6827 9.29905
305 1 -1.1104 9.36216 18.5861 12.0252
284 1 -1.1104 6.47668 18.5633 9.28883
315 1 -1.1104 12.3772 18.6547 9.34769
123 1 -1.1104 1.04679 15.6146 6.56901
318 2 2.2208 10.8584 19.8304 8.02194
9102 2 2.2208 13.6623 3.26841 10.8284
302 2 2.2208 2.42985 20.1881 10.7682
303 2 2.2208 2.18038 14.2782 10.6945
282 1 -1.1104 3.74288 18.7434 12.1158
286 1 -1.1104 1.15547 18.5691 9.51773
287 1 -1.1104 0.881024 15.722 9.41633
288 2 2.2208 5.05066 19.9767 8.02018
290 2 2.2208 5.0245 14.6164 7.92197
292 1 -1.1104 0.693649 18.4574 12.2296
294 2 2.2208 4.96672 17.274 10.7711
295 1 -1.1104 3.70068 18.5765 9.19429
297 2 2.2208 2.17649 17.1819 7.89574
298 1 -1.1104 3.52254 15.6861 9.18305
300 1 -1.1104 0.804153 15.7095 12.1416
301 1 -1.1104 3.62878 15.6875 11.9819
317 2 2.2208 10.5023 14.1949 7.88485
8484 2 2.2208 5.32134 -5.3163 10.8027
310 1 -1.1104 9.35178 18.3524 9.28518
124 1 -1.1104 6.54161 15.8753 6.55625
322 1 -1.1104 6.44399 15.6625 12.0079
327 2 2.2208 7.88321 14.3904 10.6616
325 1 -1.1104 9.27408 15.8281 12.0076
151 1 -1.1104 12.2697 18.5046 6.55851
118 1 -1.1104 6.44461 18.6562 6.71896
291 1 -1.1104 6.50705 18.4887 12.1863
226 2 2.2208 2.36695 11.6079 13.6367
9250 2 2.2208 -0.436493 17.1478 10.819
9172 2 2.2208 13.593 5.82298 7.83874
635 2 2.2208 2.23642 17.236 13.4309
8515 2 2.2208 8.03849 -5.39268 13.3796
277 2 2.2208 8.04762 11.74 13.4509
9031 2 2.2208 13.507 14.6061 -0.362245
330 2 2.2208 5.18819 0.330386 16.4205
331 1 -1.1104 1.05813 -4.14054 17.8289
333 1 -1.1104 1.01505 -4.14614 15.0462
335 1 -1.1104 0.952957 -1.19005 17.7454
336 2 2.2208 5.34041 -2.58291 19.3604
338 1 -1.1104 1.06622 -1.18499 14.9283
339 1 -1.1104 4.09744 -3.94677 18.1018
341 2 2.2208 2.37117 0.284759 19.2489
342 1 -1.1104 3.64561 -3.96047 15.2003
344 2 2.2208 2.23119 -2.56596 16.3988
346 1 -1.1104 3.57776 -0.999633 17.6877
347 1 -1.1104 3.90668 -1.08326 14.9129
484 1 -1.1104 3.70045 -3.58878 20.7639
84 2 2.2208 10.7575 5.96814 27.5226
486 1 -1.1104 3.99494 -1.08688 20.6421
483 1 -1.1104 0.907574 -1.05184 20.6146
481 1 -1.1104 0.822043 -3.83263 20.5819
506 1 -1.1104 6.68545 -4.09308 20.6922
113 2 2.2208 2.53588 20.1904 27.7226
348 1 -1.1104 6.74209 -4.09805 17.9703
112 2 2.2208 5.3047 17.3317 27.5364
350 1 -1.1104 6.49041 -3.53879 15.1411
352 1 -1.1104 6.41934 -1.0148 18.049
353 1 -1.1104 6.6714 -0.983218 15.1797
355 2 2.2208 10.8253 0.317658 16.2499
356 1 -1.1104 12.1941 -3.92143 17.8729
358 1 -1.1104 12.3287 -3.96675 15.0968
362 1 -1.1104 12.3737 -1.03563 17.7761
363 2 2.2208 10.8473 -2.34598 19.2101
365 1 -1.1104 12.3027 -1.28676 15.042
367 1 -1.1104 9.50336 -3.85601 17.9381
369 2 2.2208 7.98273 0.256845 19.2891
370 1 -1.1104 9.43802 -3.9516 15.0322
374 2 2.2208 8.10824 -2.4466 16.4859
376 1 -1.1104 9.36969 -0.913947 17.9618
377 1 -1.1104 9.55185 -1.21181 15.2472
354 1 -1.1104 6.86077 -1.09559 20.8166
455 2 2.2208 13.5996 17.2284 19.3352
378 1 -1.1104 9.57808 -1.16793 20.6632
359 1 -1.1104 12.3364 -3.93224 20.7271
17615 2 2.2208 -0.321611 -5.4409 21.9238
17674 2 2.2208 13.69 -5.30253 25.0565
332 1 -1.1104 1.05984 1.53724 17.8052
334 1 -1.1104 0.738293 1.59718 14.9839
337 2 2.2208 5.10279 3.10151 19.3684
340 1 -1.1104 4.15646 1.82294 17.8353
343 1 -1.1104 3.72049 1.64699 15.0336
345 2 2.2208 2.39517 3.01335 16.4349
379 2 2.2208 5.17262 5.85945 16.3356
381 1 -1.1104 0.958384 7.45695 17.9125
382 1 -1.1104 0.790578 7.24301 14.895
383 1 -1.1104 1.05853 4.29278 18.0219
386 1 -1.1104 1.04766 4.50684 15.34
388 1 -1.1104 3.63215 7.24019 17.7898
389 2 2.2208 2.27324 5.85255 19.2522
391 1 -1.1104 3.62917 7.1068 15.177
393 1 -1.1104 3.89821 4.52195 17.8294
395 1 -1.1104 3.95844 4.39194 14.9256
398 1 -1.1104 6.59614 7.17211 14.9613
537 1 -1.1104 3.63422 4.52836 20.6195
534 1 -1.1104 0.709725 4.62508 20.6376
533 1 -1.1104 0.831575 7.35678 20.6993
536 1 -1.1104 3.50844 7.43133 20.6041
485 1 -1.1104 3.62769 1.73744 20.599
482 1 -1.1104 1.06402 1.73681 20.4293
9555 2 2.2208 13.6447 14.3586 22.2012
54 2 2.2208 7.87135 3.10651 27.6832
397 1 -1.1104 6.56132 7.28004 17.6643
399 1 -1.1104 6.69082 4.45263 18.0353
351 1 -1.1104 6.63515 1.54457 14.986
349 1 -1.1104 6.76981 1.65111 17.7985
401 1 -1.1104 6.56406 4.42652 15.2773
357 1 -1.1104 12.3956 1.78275 17.6901
360 1 -1.1104 12.2388 1.6611 15.0649
364 2 2.2208 10.7065 3.13732 19.1065
368 1 -1.1104 9.49237 1.65687 17.5928
372 1 -1.1104 9.3861 1.64937 14.7509
375 2 2.2208 8.06394 3.00755 16.4464
404 2 2.2208 10.8013 6.04395 16.3834
409 1 -1.1104 12.3139 4.77275 17.7507
412 1 -1.1104 12.0953 4.65746 15.0749
417 2 2.2208 7.84521 5.96758 19.0239
422 1 -1.1104 9.63167 4.44182 17.7384
424 1 -1.1104 9.27877 4.62328 14.9351
419 1 -1.1104 9.29271 7.53735 14.9955
407 1 -1.1104 12.003 7.50122 15.032
406 1 -1.1104 12.1736 7.61723 17.8382
507 1 -1.1104 6.51276 1.78324 20.5872
425 1 -1.1104 9.22778 4.60517 20.6104
373 1 -1.1104 9.3325 1.60481 20.5424
416 1 -1.1104 9.46936 7.38311 17.8929
408 1 -1.1104 12.0958 7.12513 20.6904
402 1 -1.1104 6.54346 4.59808 20.9024
361 1 -1.1104 12.1853 1.59415 20.6228
563 1 -1.1104 6.36088 7.19324 20.4243
413 1 -1.1104 12.128 4.36491 20.5109
420 1 -1.1104 9.24265 7.33787 20.6933
328 2 2.2208 2.47765 -2.59545 27.715
9364 2 2.2208 -0.50692 11.7874 16.4949
380 2 2.2208 5.21282 11.6065 16.368
384 1 -1.1104 1.02805 10.4504 17.7653
385 2 2.2208 4.98126 8.78106 19.2656
387 1 -1.1104 1.0403 9.95559 14.8451
390 2 2.2208 2.3852 11.5627 19.1416
392 2 2.2208 2.3127 8.68073 16.2889
394 1 -1.1104 3.78062 10.2246 17.6413
396 1 -1.1104 3.61807 10.0956 14.7856
430 1 -1.1104 0.766626 13.0682 17.9102
433 1 -1.1104 0.848527 12.9787 14.9284
443 1 -1.1104 3.7473 13.1082 17.5954
446 1 -1.1104 3.67782 12.8135 14.9081
538 1 -1.1104 3.66123 10.1192 20.4523
593 1 -1.1104 6.65875 18.7867 20.8635
456 1 -1.1104 6.87571 12.6411 17.509
630 1 -1.1104 12.1787 15.9954 26.2962
400 1 -1.1104 6.54333 9.89708 17.6486
457 1 -1.1104 6.6844 13.0088 14.8781
403 1 -1.1104 6.42263 10.1315 14.7755
405 2 2.2208 10.8819 11.7392 16.177
410 1 -1.1104 12.0115 10.4763 17.8362
411 2 2.2208 10.7836 8.78015 19.1984
414 1 -1.1104 12.3806 10.3116 14.8388
418 2 2.2208 8.10934 11.4534 19.1798
421 2 2.2208 8.06741 8.84553 16.1554
423 1 -1.1104 9.24181 10.1169 17.958
426 1 -1.1104 9.31859 10.2889 14.9989
460 1 -1.1104 12.347 13.1559 17.6814
462 1 -1.1104 12.255 13.3113 14.894
469 1 -1.1104 9.51912 13.0841 17.8957
472 1 -1.1104 9.56159 13.0758 14.9483
592 1 -1.1104 6.72016 12.9195 20.2946
564 1 -1.1104 6.54938 10.3575 20.5608
473 1 -1.1104 9.54113 12.9476 20.5653
463 1 -1.1104 12.333 12.8836 20.6278
415 1 -1.1104 12.2175 10.0888 20.5924
427 1 -1.1104 9.46144 10.1904 20.7456
146 2 2.2208 10.9373 17.4422 27.6211
440 2 2.2208 5.18064 14.4822 19.2749
429 2 2.2208 5.17729 17.2202 16.3634
431 1 -1.1104 0.962586 18.6774 17.8843
435 1 -1.1104 0.874777 18.9657 15.0418
438 1 -1.1104 0.987794 15.793 17.9058
441 2 2.2208 5.38671 20.1935 19.3107
442 1 -1.1104 1.1084 15.9363 14.9585
444 1 -1.1104 3.89613 18.8994 18.0359
445 2 2.2208 2.63672 17.1814 19.4401
447 1 -1.1104 3.63673 18.5365 15.188
448 2 2.2208 2.24844 14.4646 16.513
449 2 2.2208 2.39589 20.1425 16.4824
450 1 -1.1104 3.75808 15.8578 18.0594
451 1 -1.1104 3.9614 15.8165 14.7507
629 2 2.2208 10.9408 20.1619 24.9638
597 1 -1.1104 3.90953 18.5359 20.8654
458 1 -1.1104 6.61028 15.6334 14.9909
439 1 -1.1104 6.35923 15.7345 17.6423
432 1 -1.1104 6.67491 18.5952 17.9632
55 2 2.2208 5.10277 11.5184 27.3977
9287 2 2.2208 13.5944 3.2724 16.4941
466 2 2.2208 11.0001 14.2027 19.2601
626 1 -1.1104 9.53205 16.0208 20.4495
437 1 -1.1104 6.43973 18.5431 14.9486
475 2 2.2208 8.08371 14.3002 16.2392
459 2 2.2208 10.8831 17.261 16.4173
461 1 -1.1104 12.3711 18.5236 17.7151
464 1 -1.1104 12.301 19.0072 14.8924
465 1 -1.1104 12.2712 15.8742 17.9633
467 2 2.2208 10.6917 19.9516 19.1977
468 1 -1.1104 12.1251 15.9772 15.1449
470 1 -1.1104 9.47338 18.6513 17.6924
471 2 2.2208 7.93179 17.1667 19.0378
474 1 -1.1104 9.39002 18.6116 14.9661
476 2 2.2208 7.97341 20.082 16.3635
477 1 -1.1104 9.28005 15.8122 17.5895
478 1 -1.1104 9.17525 15.8585 14.7695
595 1 -1.1104 6.77744 15.7335 20.6116
623 1 -1.1104 12.1595 18.6402 20.9343
624 1 -1.1104 12.2597 15.7012 20.5601
625 1 -1.1104 9.42463 18.771 20.6193
8904 2 2.2208 13.4817 2.93492 27.629
614 2 2.2208 10.8799 17.3576 22.0406
9456 2 2.2208 -0.512623 0.14014 22.0851
8852 2 2.2208 8.21022 -5.3987 24.9525
9552 2 2.2208 13.7856 17.3073 24.9376
487 2 2.2208 5.19583 0.259511 22.1738
488 1 -1.1104 1.09621 -3.76853 23.4839
490 1 -1.1104 0.90822 -3.92974 26.3081
492 1 -1.1104 1.08302 -1.08855 23.3205
493 2 2.2208 5.33789 -2.70347 24.8518
495 1 -1.1104 0.932888 -1.02271 26.4301
496 1 -1.1104 4.15369 -3.93791 23.467
498 2 2.2208 2.27843 0.279748 24.9221
499 1 -1.1104 3.79734 -3.78958 26.3593
501 2 2.2208 2.33939 -2.24774 21.7815
503 1 -1.1104 3.62227 -1.02389 23.3409
504 1 -1.1104 3.70203 -1.18496 26.195
508 1 -1.1104 6.99783 -3.8655 23.4316
512 1 -1.1104 6.52118 -1.25976 23.4695
587 1 -1.1104 6.59558 18.7231 23.6907
187 2 2.2208 5.28425 -2.48651 13.6214
634 1 -1.1104 9.54236 18.7278 23.469
83 2 2.2208 7.90864 8.79451 27.8608
25 2 2.2208 5.08137 0.270017 27.7148
85 2 2.2208 10.8945 11.5948 27.5988
9448 2 2.2208 13.4877 3.18087 21.9372
513 1 -1.1104 6.5114 -1.09704 26.1175
510 1 -1.1104 6.75574 -4.16999 26.1266
366 1 -1.1104 12.2941 -1.03463 20.6735
371 1 -1.1104 9.36062 -3.90737 20.6319
514 2 2.2208 10.85 0.279777 22.1659
515 1 -1.1104 12.4455 -3.95301 23.6471
517 1 -1.1104 12.387 -4.03854 26.7783
519 1 -1.1104 11.9965 -1.23894 23.5894
520 2 2.2208 10.8898 -2.53259 25.1521
522 1 -1.1104 12.1481 -1.19209 26.2886
523 1 -1.1104 9.52556 -3.89962 23.5919
525 2 2.2208 7.89636 0.297611 24.7867
526 1 -1.1104 9.43963 -3.77843 26.3805
528 2 2.2208 8.22518 -2.46531 22.1313
530 1 -1.1104 9.40444 -1.11408 23.5504
531 1 -1.1104 9.08525 -1.05579 26.3844
8644 2 2.2208 5.22785 -5.15641 16.4166
613 1 -1.1104 9.20751 18.6158 26.4236
82 2 2.2208 5.02609 5.99381 27.513
632 1 -1.1104 9.55976 15.8104 26.1064
26 2 2.2208 2.05593 2.94316 27.6855
489 1 -1.1104 0.671517 1.69093 23.2456
491 1 -1.1104 0.737752 1.51328 26.0675
494 2 2.2208 4.85336 3.14331 24.8044
497 1 -1.1104 3.59479 1.69578 23.5441
500 1 -1.1104 3.62191 1.78265 26.2873
502 2 2.2208 1.98637 3.10784 22.0586
539 2 2.2208 5.10174 5.94007 22.0746
541 1 -1.1104 1.09194 7.49086 23.5511
544 1 -1.1104 0.799535 4.41127 23.6005
547 1 -1.1104 1.12138 4.52874 26.3917
551 2 2.2208 2.45272 5.9673 24.8186
553 1 -1.1104 3.99595 7.5296 26.1572
555 1 -1.1104 3.44989 4.46844 23.2473
557 1 -1.1104 3.74194 4.39841 26.2709
550 1 -1.1104 3.77557 7.57836 23.396
543 1 -1.1104 0.82216 7.38871 26.2789
511 1 -1.1104 6.58987 1.65434 26.3637
147 2 2.2208 7.9374 14.3879 27.4783
573 1 -1.1104 6.43964 4.4762 26.3729
509 1 -1.1104 6.35011 1.7488 23.552
570 1 -1.1104 6.76861 7.48325 26.2915
542 1 -1.1104 6.43805 7.43303 23.089
571 1 -1.1104 6.27427 4.71088 23.7115
516 1 -1.1104 12.0992 1.66091 23.5908
518 1 -1.1104 11.9539 1.63908 26.2283
521 2 2.2208 10.692 3.01769 24.7431
524 1 -1.1104 9.13438 1.39791 23.1529
527 1 -1.1104 9.24671 1.84635 26.1753
529 2 2.2208 7.84508 2.94901 21.9706
561 1 -1.1104 11.8107 4.74409 23.6231
565 1 -1.1104 12.1752 7.51945 23.4725
567 2 2.2208 10.6224 6.01025 22.1395
568 2 2.2208 7.84988 5.88082 24.8209
569 1 -1.1104 8.99475 7.26334 23.3817
576 1 -1.1104 11.9346 4.45445 26.2455
578 1 -1.1104 9.20494 4.38496 26.1757
580 1 -1.1104 9.12403 4.37519 23.4698
582 1 -1.1104 9.39811 7.08313 26.0747
562 1 -1.1104 12.0169 7.4801 26.3775
627 1 -1.1104 9.59655 15.6847 23.4156
605 1 -1.1104 6.7324 16.0104 23.4143
535 1 -1.1104 0.557714 10.1669 20.5444
434 1 -1.1104 1.17618 12.8845 20.8774
596 1 -1.1104 3.97409 13.0007 20.4045
622 1 -1.1104 12.3195 15.8284 23.5181
540 2 2.2208 5.40624 11.7211 21.9221
545 1 -1.1104 1.0399 10.2324 23.4894
546 2 2.2208 5.19161 8.86536 24.6263
548 1 -1.1104 0.963656 10.2418 26.2072
552 2 2.2208 2.41474 11.7412 24.7937
554 2 2.2208 2.18502 8.93647 21.9263
556 1 -1.1104 3.72203 10.373 23.2289
558 1 -1.1104 3.9127 10.3889 25.9369
588 1 -1.1104 0.92588 12.9687 26.4748
601 1 -1.1104 4.01134 13.1345 23.1478
603 1 -1.1104 0.899827 13.1458 23.4858
609 1 -1.1104 3.67712 13.0669 26.1472
549 1 -1.1104 6.56753 10.1362 26.3256
8905 2 2.2208 13.5322 -2.51245 27.8001
585 2 2.2208 5.33218 14.5933 24.7157
615 2 2.2208 8.25313 14.4863 22.0629
111 2 2.2208 2.45708 14.3738 27.661
9308 2 2.2208 -0.536469 0.391337 16.5187
505 2 2.2208 8.19378 17.2955 24.9023
8853 2 2.2208 10.8334 -5.21669 21.9743
633 1 -1.1104 6.53115 13.0506 26.0698
584 1 -1.1104 6.78769 13.2028 23.2334
572 1 -1.1104 6.45551 10.336 23.4811
559 2 2.2208 10.6418 8.77674 24.9966
560 1 -1.1104 11.9475 10.2058 23.4689
566 2 2.2208 10.7276 11.5926 21.9353
574 2 2.2208 8.06714 11.6506 24.8253
575 1 -1.1104 12.3036 10.087 26.2126
577 1 -1.1104 9.31903 10.104 26.1961
579 1 -1.1104 9.15295 9.87472 23.6098
581 2 2.2208 7.88583 8.71252 21.7923
532 1 -1.1104 9.47909 12.9996 26.1139
617 1 -1.1104 12.1893 13.256 23.2848
619 1 -1.1104 12.4321 13.0575 26.4586
631 1 -1.1104 9.33926 12.9186 23.1571
621 2 2.2208 8.07675 20.1207 22.1958
9577 2 2.2208 -0.405989 17.2552 22.2548
620 1 -1.1104 12.398 18.8416 26.3482
594 1 -1.1104 1.02623 15.6626 20.6644
598 1 -1.1104 3.97674 15.8335 20.7264
436 1 -1.1104 0.79943 18.6588 20.8152
628 2 2.2208 10.9132 14.4834 24.8153
618 1 -1.1104 12.3547 18.6778 23.78
606 1 -1.1104 6.6392 18.8352 26.3245
612 2 2.2208 2.42375 14.4873 21.9958
583 1 -1.1104 1.0357 18.6482 23.6768
586 2 2.2208 5.33982 20.2198 24.8403
589 1 -1.1104 0.944502 15.9837 26.4684
590 1 -1.1104 3.71517 15.9724 23.4195
591 1 -1.1104 0.971844 15.9085 23.5318
599 1 -1.1104 0.99741 18.8418 26.4282
602 1 -1.1104 3.71576 18.8893 23.584
604 2 2.2208 2.30814 20.0166 22.0894
607 2 2.2208 5.32201 17.3533 22.1736
608 1 -1.1104 3.98178 18.8785 26.2779
610 1 -1.1104 3.82024 15.6734 26.2192
611 2 2.2208 2.44397 17.3456 24.8875
600 1 -1.1104 6.63603 16.0091 26.362
9457 2 2.2208 -0.369741 -2.50045 24.8674
9419 2 2.2208 13.4305 0.247034 24.8298
9344 2 2.2208 13.527 8.84192 16.5658
9499 2 2.2208 13.5179 8.6831 22.044
9000 2 2.2208 -0.408213 5.93275 27.5198
8966 2 2.2208 13.5819 8.72559 27.7665
8643 2 2.2208 2.48817 -5.32602 19.1865
8668 2 2.2208 10.794 -5.20202 16.4844
9571 2 2.2208 -0.341529 14.4124 25.0825
9478 2 2.2208 13.3442 5.99978 24.9
9576 2 2.2208 -0.303054 20.1669 25.0735
190 2 2.2208 10.8746 3.20035 13.6006
53 2 2.2208 10.6581 0.314781 27.5126
56 2 2.2208 2.38789 8.89075 27.5061
9252 2 2.2208 -0.376543 -2.58966 13.733
9171 2 2.2208 13.5867 6.0321 13.6461
144 2 2.2208 8.00004 20.2056 27.5771
9504 2 2.2208 -0.317682 8.91039 24.9202
9391 2 2.2208 -0.299242 20.2888 19.4332
9416 2 2.2208 -0.290692 17.2986 16.4125
9107 2 2.2208 13.6508 0.276845 13.8088
637 2 2.2208 5.21443 23.0021 5.20097
639 1 -1.1104 1.00952 24.2832 0.750151
640 1 -1.1104 1.05527 24.4275 3.71234
641 1 -1.1104 0.889913 21.2527 1.0551
643 2 2.2208 5.25253 25.9548 2.43979
644 1 -1.1104 0.957854 21.4957 3.68049
646 1 -1.1104 3.76516 24.6774 1.21865
647 2 2.2208 2.38205 22.9156 2.47203
649 1 -1.1104 3.76399 24.2835 4.01151
650 2 2.2208 2.27266 25.6219 5.24211
651 1 -1.1104 3.72404 21.7072 0.830215
653 1 -1.1104 3.78332 21.423 3.76086
654 1 -1.1104 3.95039 27.1574 3.78351
645 1 -1.1104 1.11463 27.053 3.82723
664 1 -1.1104 1.01491 21.3351 6.55728
642 1 -1.1104 1.1971 27.1298 0.907347
662 1 -1.1104 0.925174 24.2516 6.65183
666 1 -1.1104 3.84806 24.4158 6.72644
668 1 -1.1104 3.70284 27.0071 6.43795
665 1 -1.1104 6.52317 21.3983 6.45845
826 1 -1.1104 0.828952 27.47 6.72737
759 2 2.2208 8.12021 31.3326 -0.418005
660 1 -1.1104 6.60688 21.5791 3.4673
656 1 -1.1104 6.80535 24.5787 1.11365
657 1 -1.1104 6.79696 24.4631 3.63482
658 1 -1.1104 6.72711 21.6532 0.837882
671 2 2.2208 10.7318 22.7817 5.07637
673 1 -1.1104 12.2846 24.2017 1.02086
674 1 -1.1104 12.2858 24.1066 3.56339
675 1 -1.1104 12.2662 21.2997 0.877128
677 2 2.2208 10.9453 25.792 2.42773
678 1 -1.1104 12.2162 21.364 3.81868
680 1 -1.1104 9.59172 24.5397 0.819033
681 2 2.2208 8.11259 23.0924 2.29472
683 1 -1.1104 9.55647 24.2938 3.6503
684 2 2.2208 8.14858 25.7064 5.1333
685 1 -1.1104 9.39286 21.4437 0.799099
687 1 -1.1104 9.42717 21.41 3.64357
852 1 -1.1104 12.2644 21.2933 6.68697
661 1 -1.1104 6.83628 27.3046 3.75132
676 1 -1.1104 12.2351 27.0024 1.06707
688 1 -1.1104 9.65233 27.3408 3.87134
692 1 -1.1104 9.41218 24.1007 6.38226
851 1 -1.1104 12.2535 24.0288 6.46599
663 1 -1.1104 6.7127 24.0294 6.44499
853 1 -1.1104 12.3936 26.8198 7.11149
691 1 -1.1104 6.44336 26.7218 6.4319
962 1 -1.1104 9.50286 41.3381 12.4152
652 1 -1.1104 4.04569 27.4165 1.07123
638 2 2.2208 5.0926 28.5831 5.20941
648 2 2.2208 2.45928 28.5209 2.34942
700 1 -1.1104 1.19039 30.1679 1.01589
703 1 -1.1104 1.25688 30.0812 3.55856
706 1 -1.1104 1.19827 32.8821 0.845939
707 2 2.2208 5.35451 31.45 2.38236
709 1 -1.1104 1.1083 32.9063 3.67278
711 1 -1.1104 3.90794 30.2076 1.07279
714 1 -1.1104 3.81302 30.1509 3.73557
716 2 2.2208 2.3954 31.4754 5.14398
718 1 -1.1104 4.05672 33.0985 0.953991
719 1 -1.1104 3.65074 32.9316 3.82236
730 1 -1.1104 3.68713 32.7573 6.453
725 1 -1.1104 6.51144 29.8239 6.63282
724 1 -1.1104 6.91678 32.7094 1.1461
727 1 -1.1104 6.69125 33.0759 6.5066
872 1 -1.1104 0.797984 30.1718 6.25138
1054 2 2.2208 5.22967 31.2253 13.6387
9645 2 2.2208 -0.400091 28.538 5.07871
659 1 -1.1104 6.61115 27.2978 0.818163
694 1 -1.1104 9.45834 26.8123 6.62334
722 1 -1.1104 6.84556 29.9179 1.1628
679 1 -1.1104 12.1685 27.017 4.04216
686 1 -1.1104 9.45237 27.1839 0.866252
710 1 -1.1104 6.69727 33.0311 3.79347
723 1 -1.1104 6.75695 30.0538 3.84114
672 2 2.2208 11.0137 28.6159 5.25829
682 2 2.2208 8.19851 28.6502 2.45885
734 1 -1.1104 12.3468 29.6988 0.849303
736 1 -1.1104 12.4095 29.7643 3.71565
738 1 -1.1104 12.3959 32.7615 0.917063
739 2 2.2208 10.857 31.4411 2.1603
741 1 -1.1104 12.3335 32.5878 3.77583
742 1 -1.1104 9.42434 30.1604 1.0387
745 1 -1.1104 9.67241 30.2526 3.63628
747 2 2.2208 8.03045 31.2975 5.20894
749 1 -1.1104 9.67189 32.9462 0.914146
750 1 -1.1104 9.66126 32.9612 3.52789
900 1 -1.1104 12.3503 29.8551 6.59549
869 2 2.2208 13.6627 28.5491 7.98944
752 1 -1.1104 12.2212 32.6912 6.60328
755 1 -1.1104 9.38031 32.701 6.62303
753 1 -1.1104 9.39032 29.8639 6.69018
956 1 -1.1104 9.56807 44.1944 12.3434
9705 2 2.2208 -0.210258 31.4202 2.34759
699 2 2.2208 5.32514 34.1622 5.05986
701 1 -1.1104 0.820803 35.5507 0.671169
704 1 -1.1104 0.960126 35.8 3.78803
708 2 2.2208 5.15106 37.0313 2.42435
712 1 -1.1104 3.89999 35.8638 0.796831
713 2 2.2208 2.38291 34.4247 2.21307
715 1 -1.1104 3.78029 35.6242 3.79241