ITEM: TIMESTEP
90000
ITEM: NUMBER OF ATOMS
17704
ITEM: BOX BOUNDS pp pp pp
-4.2906280073385478e-01 2.7769062800732979e+01
-5.3360031476713479e+00 3.3341600314765662e+02
-4.4778023119263349e-01 2.7787780231192365e+01
ITEM: ATOMS id type q x y z
1 2 2.2208 5.01565 0.111388 5.06964
2 1 -1.1104 1.09527 -3.95071 0.993098
6 1 -1.1104 0.967707 -3.96207 3.79071
10 1 -1.1104 0.947083 -1.34556 0.762946
12 2 2.2208 5.22051 -2.61198 2.61594
14 1 -1.1104 1.12478 -1.28704 3.77771
16 1 -1.1104 3.79765 -3.78787 1.00713
18 2 2.2208 2.37883 0.0922919 2.42135
19 1 -1.1104 3.86269 -4.14044 3.79154
21 2 2.2208 2.46034 -2.71371 5.26187
23 1 -1.1104 3.75797 -1.09987 0.821229
24 1 -1.1104 3.66794 -1.27132 3.7405
136 2 2.2208 -0.410919 19.9469 2.53558
25 2 2.2208 -0.43213 -2.53632 2.27108
15 1 -1.1104 6.53241 -1.15703 3.65119
9011 2 2.2208 11.0294 -5.32175 10.8389
9008 2 2.2208 5.15889 -5.28082 10.9189
26 2 2.2208 -0.343313 0.236646 5.2238
51 2 2.2208 -0.415784 11.3848 10.7973
690 2 2.2208 5.28412 17.5191 -0.304708
81 2 2.2208 -0.204134 5.90087 5.11261
8 1 -1.1104 6.72867 -4.07709 3.96907
11 1 -1.1104 6.70578 -1.28717 0.869119
4 1 -1.1104 6.62704 -3.87501 0.987453
31 2 2.2208 10.6531 0.46981 5.22758
32 1 -1.1104 12.3263 -3.7144 0.747581
34 1 -1.1104 12.2601 -4.02477 3.70781
36 1 -1.1104 12.2768 -1.11387 0.810584
37 2 2.2208 10.8566 -2.5405 2.3509
39 1 -1.1104 12.1022 -1.35007 3.84298
40 1 -1.1104 9.68327 -4.11823 1.26719
42 2 2.2208 8.00518 0.282732 2.32549
43 1 -1.1104 9.47732 -3.8897 4.09975
45 2 2.2208 8.02302 -2.51563 5.20615
47 1 -1.1104 9.49745 -1.26591 0.98372
48 1 -1.1104 9.42346 -0.954764 3.72614
205 1 -1.1104 12.3401 -3.84115 6.61483
9001 2 2.2208 2.22571 -5.3094 2.38624
207 1 -1.1104 12.2558 -0.939785 6.58544
210 1 -1.1104 9.32508 -1.09899 6.65932
3 1 -1.1104 0.939618 1.59678 0.967981
7 1 -1.1104 1.12076 1.54017 3.76717
13 2 2.2208 4.99939 3.01196 2.26028
17 1 -1.1104 3.5451 1.72656 0.723434
20 1 -1.1104 3.80008 1.55478 3.37295
22 2 2.2208 2.32846 3.01562 5.15361
54 2 2.2208 5.30185 5.77024 5.17149
58 1 -1.1104 1.14332 7.24168 3.71107
60 1 -1.1104 0.803365 4.50455 0.964062
67 1 -1.1104 1.06864 4.37003 3.93451
72 2 2.2208 2.39873 5.91438 2.3372
76 1 -1.1104 3.80858 4.59908 0.918898
79 1 -1.1104 3.90269 4.39032 3.73753
71 1 -1.1104 3.85108 7.3171 0.954912
74 1 -1.1104 3.84416 7.12521 3.78113
56 1 -1.1104 1.19286 6.98705 0.702079
30 2 2.2208 -0.24913 8.89498 7.93795
236 1 -1.1104 0.897824 4.51121 6.68943
543 2 2.2208 10.9408 14.5067 13.5895
167 1 -1.1104 0.849461 1.7565 6.54517
239 1 -1.1104 3.74558 4.53322 6.47929
173 1 -1.1104 3.76918 1.66211 6.64082
57 1 -1.1104 6.68868 7.27135 1.04124
5 1 -1.1104 6.26951 1.73769 0.908266
59 1 -1.1104 6.50703 7.26707 3.8434
63 1 -1.1104 6.55342 4.43086 0.790288
69 1 -1.1104 6.76867 4.38167 3.68494
9 1 -1.1104 6.56362 1.55553 3.80033
33 1 -1.1104 12.2744 1.62953 0.763418
35 1 -1.1104 12.1123 1.42444 3.6347
38 2 2.2208 11.0343 3.15984 2.29379
41 1 -1.1104 9.39043 1.60139 0.87902
44 1 -1.1104 9.28338 1.73797 3.68609
46 2 2.2208 8.22052 3.09659 5.1038
84 2 2.2208 11.0051 5.87699 5.23626
87 1 -1.1104 12.3409 7.24793 3.86335
88 1 -1.1104 12.4403 4.4828 1.07334
92 1 -1.1104 12.2019 4.51728 3.71406
94 1 -1.1104 9.52354 7.34749 1.03069
95 2 2.2208 7.91588 5.91399 2.32989
99 1 -1.1104 9.37995 4.54268 0.937543
102 1 -1.1104 9.59064 4.37343 3.66351
97 1 -1.1104 9.45183 7.33612 3.78369
86 1 -1.1104 12.2847 7.31428 1.27426
237 1 -1.1104 6.61611 4.34768 6.37913
601 2 2.2208 8.00923 -2.40333 -0.431591
235 1 -1.1104 6.83825 7.16455 6.48262
206 1 -1.1104 12.2111 1.92189 6.4072
135 2 2.2208 -0.417648 14.3929 2.51374
516 2 2.2208 -0.224157 3.04747 13.5853
55 2 2.2208 5.14338 11.5356 5.19424
61 1 -1.1104 0.601627 9.9529 0.780475
66 2 2.2208 5.04814 8.6261 2.34811
68 1 -1.1104 0.935382 10.1227 3.61834
73 2 2.2208 2.40865 11.547 2.39022
75 2 2.2208 2.45337 8.45453 5.18853
77 1 -1.1104 3.42997 9.8592 0.988456
80 1 -1.1104 3.59244 9.88266 3.8012
107 1 -1.1104 1.11034 12.8042 0.887375
113 1 -1.1104 0.953307 13.0308 3.61431
123 1 -1.1104 3.77621 12.8741 1.01041
128 1 -1.1104 3.95667 12.8958 3.67845
62 1 -1.1104 0.974644 10.0039 6.69004
9010 2 2.2208 8.04137 -5.27595 8.13421
664 2 2.2208 13.5294 8.82834 -0.315539
124 1 -1.1104 3.89639 12.9301 6.51116
78 1 -1.1104 3.84192 10.037 6.44101
384 2 2.2208 2.49833 0.317837 13.5202
110 1 -1.1104 6.83248 12.8574 0.929659
115 1 -1.1104 6.77312 12.8806 3.68918
70 1 -1.1104 6.6266 9.88386 3.88738
64 1 -1.1104 6.36828 10.1695 1.1977
85 2 2.2208 11.0675 11.4763 5.36435
89 1 -1.1104 12.2095 10.2125 1.15937
91 2 2.2208 10.8788 8.56742 2.3398
93 1 -1.1104 12.3722 10.0018 3.87215
96 2 2.2208 8.12163 11.4836 2.41812
98 2 2.2208 8.14594 8.67773 5.16479
100 1 -1.1104 9.41117 9.9292 0.771207
103 1 -1.1104 9.45314 10.1984 3.67541
142 1 -1.1104 12.2582 13.0281 0.832618
146 1 -1.1104 12.2924 12.8829 3.8739
153 1 -1.1104 9.65261 12.9961 1.15337
158 1 -1.1104 9.45323 12.8754 4.05825
150 2 2.2208 10.939 14.3686 2.53823
289 1 -1.1104 6.70758 15.614 9.56103
65 1 -1.1104 6.5678 10.2908 6.62339
101 1 -1.1104 9.55452 9.96056 6.54151
111 1 -1.1104 6.90121 12.909 6.62121
82 2 2.2208 -0.393827 8.65786 2.42571
49 2 2.2208 13.6868 0.184894 2.43969
9041 2 2.2208 7.96608 -5.29358 13.6868
331 2 2.2208 10.9817 17.122 10.6968
311 2 2.2208 -0.329204 20.0506 7.9892
575 2 2.2208 -0.408741 8.81956 13.6164
130 2 2.2208 2.44676 14.3985 5.30597
119 2 2.2208 5.1424 14.4063 2.31853
106 2 2.2208 5.30069 17.0886 5.10625
109 1 -1.1104 0.818852 18.6934 0.942042
114 1 -1.1104 1.04374 18.6737 3.91429
116 1 -1.1104 1.00263 15.7307 1.20599
120 2 2.2208 5.19699 20.1718 2.27451
121 1 -1.1104 1.05012 15.759 3.84649
125 1 -1.1104 3.76257 18.8968 1.01861
127 2 2.2208 2.39485 17.1977 2.40138
129 1 -1.1104 3.95776 18.7444 3.95186
131 2 2.2208 2.51809 19.9644 5.37206
132 1 -1.1104 3.88836 15.8914 0.861373
134 1 -1.1104 3.90155 15.7635 3.78365
126 1 -1.1104 4.08301 18.4245 6.71859
122 1 -1.1104 6.62175 15.7378 3.64058
140 1 -1.1104 6.52716 15.8161 1.06606
139 1 -1.1104 6.54054 18.3583 3.74848
160 2 2.2208 7.88612 14.3029 5.05872
138 1 -1.1104 6.72879 18.6643 1.14233
141 2 2.2208 11.0351 17.1492 5.31071
144 1 -1.1104 12.4316 18.7224 1.00816
147 1 -1.1104 12.4288 18.5959 3.9956
148 1 -1.1104 12.1644 16.0095 1.17516
151 2 2.2208 11.0323 20.1185 2.49946
152 1 -1.1104 12.4525 15.7815 3.81931
155 1 -1.1104 9.58341 18.8592 1.13422
157 2 2.2208 8.01317 17.1933 2.50246
159 1 -1.1104 9.54946 18.403 3.86205
161 2 2.2208 8.01799 19.8955 5.06354
162 1 -1.1104 9.20652 15.9481 0.781403
164 1 -1.1104 9.70209 15.6349 3.77736
163 1 -1.1104 9.59008 15.6996 6.73445
318 1 -1.1104 9.55364 18.4863 9.41889
112 1 -1.1104 6.94495 18.5442 6.55125
118 1 -1.1104 6.58308 15.6893 6.5062
156 1 -1.1104 9.78708 18.4737 6.66577
327 1 -1.1104 12.3837 18.3383 9.57663
9093 2 2.2208 10.7932 -5.24815 -0.307412
170 1 -1.1104 0.904102 -1.02115 6.78981
172 1 -1.1104 3.75316 -4.20427 6.74064
166 1 -1.1104 0.967687 -3.96866 6.74462
174 1 -1.1104 3.53409 -1.21617 6.42108
175 2 2.2208 5.12772 0.243254 10.7724
176 1 -1.1104 0.949491 -3.95674 12.1936
180 1 -1.1104 0.874187 -3.78716 9.48096
184 1 -1.1104 0.919309 -1.17724 12.2435
186 2 2.2208 5.05728 -2.5249 8.08703
188 1 -1.1104 1.2531 -1.10404 9.53749
190 1 -1.1104 3.82717 -3.91339 12.2668
192 2 2.2208 2.35348 0.342243 7.93468
193 1 -1.1104 3.82273 -3.86262 9.48869
195 2 2.2208 2.2318 -2.55055 10.9713
197 1 -1.1104 3.82314 -1.16597 12.2079
198 1 -1.1104 3.87912 -1.09857 9.39301
479 2 2.2208 7.97236 5.88339 13.5469
137 2 2.2208 -0.344449 17.2007 5.31599
189 1 -1.1104 6.67953 -1.20993 9.43979
168 1 -1.1104 6.47412 -3.98374 6.61128
208 1 -1.1104 9.41971 -3.96152 6.71548
171 1 -1.1104 6.55286 -0.964665 6.54843
185 1 -1.1104 6.82019 -1.00718 12.2309
178 1 -1.1104 6.69881 -3.78493 12.3188
182 1 -1.1104 6.49636 -3.9568 9.42656
211 2 2.2208 10.7557 0.232975 10.7807
212 1 -1.1104 12.3445 -3.95171 12.1669
214 1 -1.1104 12.2739 -3.72469 9.32374
216 1 -1.1104 12.2607 -1.09248 12.4156
217 2 2.2208 10.8572 -2.49988 8.01239
219 1 -1.1104 12.3164 -0.992047 9.67876
220 1 -1.1104 9.58971 -3.7982 12.2135
222 2 2.2208 7.97884 0.254009 8.03652
223 1 -1.1104 9.50724 -3.98546 9.52148
225 2 2.2208 8.14545 -2.5922 10.8979
227 1 -1.1104 9.6437 -0.993172 12.4358
228 1 -1.1104 9.37348 -1.08004 9.50987
340 2 2.2208 10.8716 17.2934 -0.243075
381 2 2.2208 13.5521 5.8915 13.6393
314 1 -1.1104 9.52866 15.6036 9.60651
238 1 -1.1104 3.90236 7.25509 6.70124
234 1 -1.1104 1.17082 7.31565 6.59876
288 1 -1.1104 6.72778 18.4066 9.48989
177 1 -1.1104 1.16035 1.4485 12.2719
181 1 -1.1104 0.70555 1.72609 9.34375
187 2 2.2208 5.36599 3.01593 7.84989
191 1 -1.1104 3.80911 1.75582 12.2821
194 1 -1.1104 3.64067 1.54218 9.52082
196 2 2.2208 2.31904 3.14904 10.8169
240 2 2.2208 5.09663 5.7521 10.7801
242 1 -1.1104 0.985361 7.16932 12.2557
244 1 -1.1104 1.0915 7.29288 9.36975
246 1 -1.1104 1.09884 4.58093 12.2421
251 1 -1.1104 1.01092 4.59534 9.40885
256 2 2.2208 2.39637 5.92717 8.02232
260 1 -1.1104 3.81364 4.43074 12.4653
262 1 -1.1104 3.92895 4.2639 9.4323
258 1 -1.1104 3.89295 7.28481 9.40112
255 1 -1.1104 3.77099 7.25232 12.3187
315 1 -1.1104 9.54651 15.8787 12.3351
145 1 -1.1104 12.4948 18.56 6.72504
202 2 2.2208 13.5667 5.85678 8.05156
209 1 -1.1104 9.44122 1.71064 6.75428
266 1 -1.1104 12.1967 4.6457 6.63269
245 1 -1.1104 6.69691 7.23498 9.59315
269 1 -1.1104 9.48516 4.52429 6.79175
267 1 -1.1104 9.51571 7.26744 6.56114
169 1 -1.1104 6.66478 1.73909 6.50894
265 1 -1.1104 12.254 7.39818 6.66746
243 1 -1.1104 6.67171 7.04853 12.3542
248 1 -1.1104 6.51399 4.37645 12.0813
183 1 -1.1104 6.56832 1.55009 9.26226
253 1 -1.1104 6.53906 4.41648 9.29168
179 1 -1.1104 6.52404 1.64439 12.2199
213 1 -1.1104 12.1943 1.67313 12.163
215 1 -1.1104 12.3494 1.56127 9.10038
218 2 2.2208 10.9766 3.17947 8.12665
221 1 -1.1104 9.33306 1.64662 12.3739
224 1 -1.1104 9.39069 1.54812 9.47517
226 2 2.2208 7.84195 2.9692 10.7279
268 1 -1.1104 9.29988 4.37057 9.66131
271 1 -1.1104 9.44391 4.42575 12.2023
273 1 -1.1104 9.46355 7.51088 9.28882
275 2 2.2208 8.01509 5.93266 7.99319
276 2 2.2208 10.8232 5.7515 10.9031
279 1 -1.1104 12.3381 7.20116 9.42019
280 1 -1.1104 12.2464 4.35547 12.169
283 1 -1.1104 12.4705 4.48074 9.53594
278 1 -1.1104 12.1992 7.31851 12.217
285 1 -1.1104 9.52035 7.21023 12.1632
324 2 2.2208 10.968 19.9995 7.94273
108 1 -1.1104 1.27009 12.8122 6.47981
241 2 2.2208 5.43907 11.5049 10.8429
247 1 -1.1104 1.25655 10.1543 12.152
250 2 2.2208 5.25683 8.6139 7.97922
252 1 -1.1104 1.12565 10.0872 9.3838
257 2 2.2208 2.42785 11.5277 8.11185
259 2 2.2208 2.43695 8.54061 10.9222
261 1 -1.1104 3.93978 10.0811 12.0988
263 1 -1.1104 3.92328 10.0808 9.2611
287 1 -1.1104 3.98411 13.001 12.3001
294 1 -1.1104 0.891787 12.8452 9.46015
299 1 -1.1104 1.16361 12.9439 12.2518
305 1 -1.1104 4.0389 13.0186 9.69204
339 2 2.2208 8.26536 20.059 -0.376252
320 2 2.2208 8.12424 17.0352 7.91369
323 1 -1.1104 12.3585 15.6665 9.41508
342 2 2.2208 13.5843 14.5609 -0.33416
143 1 -1.1104 12.3468 13.1447 6.68029
154 1 -1.1104 9.7542 12.8121 6.94397
90 1 -1.1104 12.5932 10.1798 6.83168
249 1 -1.1104 6.69506 9.82415 12.1471
254 1 -1.1104 6.76658 10.0406 9.23896
290 1 -1.1104 6.84944 12.7838 9.31372
297 1 -1.1104 6.82482 12.7847 12.1722
330 1 -1.1104 12.1909 13.054 12.4612
328 1 -1.1104 12.3661 12.8595 9.50354
322 1 -1.1104 9.66315 12.9309 12.3797
319 1 -1.1104 9.65112 12.915 9.63395
264 1 -1.1104 9.57339 10.313 9.37046
270 1 -1.1104 9.41725 9.98295 12.2892
272 2 2.2208 8.05287 8.72771 10.6806
274 2 2.2208 8.00372 11.4666 7.98069
277 2 2.2208 10.9511 11.5273 10.8907
281 1 -1.1104 12.2557 10.2506 12.3035
282 2 2.2208 11.0002 8.80901 7.95837
284 1 -1.1104 12.3902 9.87791 9.52025
317 2 2.2208 8.15495 14.3457 10.9515
383 2 2.2208 5.10553 -2.44036 13.6044
302 1 -1.1104 1.19219 18.4909 6.51427
133 1 -1.1104 3.81856 15.8358 6.60224
691 2 2.2208 2.49448 14.3497 -0.415963
83 2 2.2208 -0.232349 11.5043 5.19337
296 1 -1.1104 6.6487 18.662 12.2561
117 1 -1.1104 1.01668 15.6737 6.34292
295 2 2.2208 5.36395 14.3171 8.22
310 2 2.2208 2.35884 14.4038 11.0081
304 1 -1.1104 3.86161 15.8982 9.63839
303 2 2.2208 2.5931 17.149 8.05517
301 1 -1.1104 4.1547 18.6403 9.44856
307 1 -1.1104 0.709271 15.6285 12.37
309 2 2.2208 2.59781 19.9924 10.8809
308 1 -1.1104 3.72545 15.7609 12.2981
286 1 -1.1104 3.90105 18.5115 12.1363
291 1 -1.1104 1.09017 18.5627 9.48929
292 1 -1.1104 1.18232 15.8013 9.50561
293 2 2.2208 5.33832 20.0121 7.96553
298 1 -1.1104 0.924553 18.5123 12.2373
300 2 2.2208 5.24833 17.1794 10.9169
329 1 -1.1104 12.4921 18.6563 12.4457
326 1 -1.1104 12.4014 15.6347 12.1929
325 2 2.2208 10.9595 14.3586 8.04045
321 1 -1.1104 9.63612 18.6597 12.0935
306 1 -1.1104 6.54603 15.6619 12.2425
336 2 2.2208 10.9002 20.2374 13.5858
149 1 -1.1104 12.3028 15.8289 6.62528
316 2 2.2208 8.05478 19.9135 10.9089
481 2 2.2208 8.29207 11.2417 13.6405
312 2 2.2208 -0.193928 17.1643 10.8578
105 2 2.2208 13.6597 6.02825 2.34972
50 2 2.2208 13.6337 -2.54606 5.09856
416 2 2.2208 8.04427 0.295093 13.5992
515 2 2.2208 2.53344 17.0913 13.5668
337 2 2.2208 8.14203 17.0992 13.4944
201 2 2.2208 -0.318517 0.263097 10.8388
334 2 2.2208 -0.427702 -2.43418 13.6189
693 2 2.2208 -0.202014 16.976 -0.385972
335 2 2.2208 5.22367 19.91 13.6069
660 2 2.2208 10.7512 5.92031 -0.408806
637 2 2.2208 5.25904 11.4335 -0.291258
343 2 2.2208 5.22098 0.377071 16.3027
344 1 -1.1104 0.875225 -3.97804 17.8876
348 1 -1.1104 0.976745 -3.79721 15.116
356 1 -1.1104 0.959165 -1.10267 17.9079
358 2 2.2208 5.34645 -2.4541 19.0706
360 1 -1.1104 1.03284 -1.02511 15.0394
364 1 -1.1104 3.62233 -3.96036 17.8071
366 2 2.2208 2.57662 0.214743 19.013
367 1 -1.1104 3.66216 -3.88856 15.0039
371 2 2.2208 2.40872 -2.56224 16.4892
373 1 -1.1104 3.74037 -1.20765 17.7045
374 1 -1.1104 3.83793 -1.05453 15.0263
411 2 2.2208 -0.258979 17.1942 16.3774
692 2 2.2208 -0.17029 14.3153 24.9801
9091 2 2.2208 8.09774 -5.21665 25.0278
380 2 2.2208 -0.400643 -2.41661 19.1732
610 2 2.2208 13.6586 3.27033 27.7092
697 1 -1.1104 9.43084 15.9051 23.5338
603 2 2.2208 -0.380671 11.455 16.4079
357 1 -1.1104 6.66912 -0.991911 17.9348
362 1 -1.1104 6.31911 -1.21769 15.0504
346 1 -1.1104 6.34547 -3.99155 17.9092
352 1 -1.1104 6.40587 -3.96835 15.0894
386 2 2.2208 10.882 0.394165 16.6404
387 1 -1.1104 12.3759 -4.02058 17.7888
389 1 -1.1104 12.273 -3.97872 15.0648
393 1 -1.1104 12.362 -1.06336 18.0132
394 2 2.2208 11.0175 -2.58516 19.5106
396 1 -1.1104 12.2469 -1.12031 15.2697
398 1 -1.1104 9.11459 -4.03528 17.9789
400 2 2.2208 8.02589 0.34316 19.3303
401 1 -1.1104 9.38318 -3.87245 15.1591
405 2 2.2208 8.14997 -2.40902 16.5057
407 1 -1.1104 9.54776 -0.950015 18.0181
408 1 -1.1104 9.35184 -1.10774 15.2361
397 1 -1.1104 12.3847 -1.08754 20.7512
673 1 -1.1104 6.82467 18.6511 23.5523
409 1 -1.1104 9.79464 -1.11824 20.9605
390 1 -1.1104 12.3902 -3.97844 20.6216
706 1 -1.1104 12.2225 15.6734 26.324
579 2 2.2208 -0.434153 -2.4123 24.9011
345 1 -1.1104 1.09639 1.69235 17.7397
350 1 -1.1104 1.04726 1.69823 15.0249
359 2 2.2208 5.20233 3.15084 19.2894
365 1 -1.1104 3.91919 1.74497 17.5951
369 1 -1.1104 3.86859 1.90239 15.0446
372 2 2.2208 2.32804 3.16239 16.4287
419 2 2.2208 5.22461 5.92038 16.6027
421 1 -1.1104 1.0259 7.15939 17.921
423 1 -1.1104 0.925457 7.28072 15.1473
427 1 -1.1104 0.983544 4.44447 18.0152
432 1 -1.1104 0.946363 4.43853 15.1449
441 2 2.2208 2.19861 6.01723 19.3687
446 1 -1.1104 3.84616 4.56907 17.9491
448 1 -1.1104 3.87166 4.57155 15.2079
443 1 -1.1104 3.72396 7.37445 14.9745
662 2 2.2208 10.8932 11.6104 27.6754
440 1 -1.1104 3.95117 7.48994 17.5778
424 1 -1.1104 0.792483 7.26131 20.6829
370 1 -1.1104 3.87072 1.92659 20.6294
351 1 -1.1104 0.949456 1.84545 20.7085
429 1 -1.1104 6.75432 4.56353 17.8233
425 1 -1.1104 6.73789 7.28398 15.1793
354 1 -1.1104 6.64401 1.91525 15.2461
422 1 -1.1104 6.72357 7.30533 18.1581
436 1 -1.1104 6.77547 4.60073 14.9941
347 1 -1.1104 6.65539 1.83855 18.0867
388 1 -1.1104 12.3353 1.71014 18.1675
391 1 -1.1104 12.3222 1.61905 15.1037
395 2 2.2208 10.9427 3.16679 19.4141
399 1 -1.1104 9.2786 1.70463 17.8222
403 1 -1.1104 9.52031 1.83687 15.1199
406 2 2.2208 8.17876 3.10247 16.5395
455 2 2.2208 10.8136 5.82987 16.4382
460 1 -1.1104 12.2204 4.38234 17.9964
463 1 -1.1104 12.2938 4.45111 15.0137
468 2 2.2208 8.12723 5.95126 19.4094
470 1 -1.1104 9.54762 7.30863 15.0483
473 1 -1.1104 9.4871 4.61561 17.9248
475 1 -1.1104 9.47154 4.43241 15.1185
467 1 -1.1104 9.5841 7.35494 18.0919
457 1 -1.1104 12.3745 7.33284 17.979
458 1 -1.1104 12.3511 7.16604 15.1597
459 1 -1.1104 12.3529 7.28163 20.7524
392 1 -1.1104 12.4745 1.78842 20.9831
573 2 2.2208 13.6449 17.2247 19.5099
9130 2 2.2208 5.21997 -5.31429 27.7496
420 2 2.2208 5.31282 11.5383 16.1654
428 1 -1.1104 0.826827 9.97907 17.6577
431 2 2.2208 5.12771 8.86797 19.2175
434 1 -1.1104 0.914266 10.2547 15.0327
442 2 2.2208 2.3413 11.6569 19.2229
445 2 2.2208 2.32634 8.6662 16.3885
447 1 -1.1104 3.74542 10.1521 17.9487
450 1 -1.1104 3.83893 10.1272 15.08
483 1 -1.1104 0.957657 13.122 17.8967
487 1 -1.1104 0.920461 12.9623 15.0858
503 1 -1.1104 3.66898 12.9873 17.9492
506 1 -1.1104 3.69897 13.0305 15.0225
636 2 2.2208 2.31667 8.67755 27.6333
580 2 2.2208 -0.381384 0.311464 22.1058
491 1 -1.1104 6.64486 13.0068 15.0754
438 1 -1.1104 6.55656 10.1544 14.9443
430 1 -1.1104 6.61904 10.1791 17.7699
485 1 -1.1104 6.60042 12.9118 17.8521
456 2 2.2208 10.9322 11.4631 16.5638
461 1 -1.1104 12.2167 9.97063 17.7671
462 2 2.2208 10.9575 8.66944 19.3521
465 1 -1.1104 12.1207 10.0578 15.085
469 2 2.2208 8.10727 11.5601 19.3436
472 2 2.2208 7.94654 8.70361 16.5199
474 1 -1.1104 9.46619 10.1357 17.7341
477 1 -1.1104 9.3542 10.0694 15.1797
519 1 -1.1104 12.322 12.879 17.9724
521 1 -1.1104 12.1502 12.9405 15.2544
530 1 -1.1104 9.46066 12.9146 17.934
533 1 -1.1104 9.38973 13.1956 15.1238
466 1 -1.1104 12.4115 9.95208 21.0062
413 2 2.2208 -0.272037 19.9465 19.262
492 1 -1.1104 6.75608 13.0488 20.8744
534 1 -1.1104 9.52301 12.7108 20.6416
478 1 -1.1104 9.5101 9.93596 20.644
696 1 -1.1104 9.58352 15.7896 26.3958
9095 2 2.2208 2.53402 -5.19387 24.9067
497 2 2.2208 5.17645 14.1767 19.2533
510 2 2.2208 2.48386 14.6726 16.4467
482 2 2.2208 5.19346 17.1679 16.5077
484 1 -1.1104 1.12206 18.6717 17.8646
489 1 -1.1104 0.996074 18.5846 14.9898
495 1 -1.1104 1.0072 15.8557 17.8014
498 2 2.2208 5.20266 19.7948 19.3754
499 1 -1.1104 1.25517 15.7214 14.9597
504 1 -1.1104 3.92904 18.4777 17.9466
505 2 2.2208 2.41175 17.1922 19.5573
508 1 -1.1104 3.87804 18.3765 15.0294
511 2 2.2208 2.46019 20.0081 16.3194
512 1 -1.1104 3.65954 15.7192 18.0818
513 1 -1.1104 3.86867 15.6284 15.0905
514 1 -1.1104 3.86485 15.85 21.0264
490 1 -1.1104 1.06743 18.7596 20.7951
494 1 -1.1104 6.77994 18.5367 20.5991
669 1 -1.1104 6.84143 15.8274 26.428
500 1 -1.1104 0.9323 15.9482 20.6959
9129 2 2.2208 5.12794 -5.10856 22.1052
604 2 2.2208 13.6252 11.5916 13.7733
501 1 -1.1104 6.55828 15.7605 15.0326
486 1 -1.1104 6.6949 18.4365 17.8555
496 1 -1.1104 6.44447 15.687 17.8785
493 1 -1.1104 6.67554 18.5241 15.0959
526 2 2.2208 10.8842 14.2786 19.4083
537 2 2.2208 8.04785 14.2931 16.5678
518 2 2.2208 10.8129 17.1414 16.3961
520 1 -1.1104 12.258 18.4375 18.1532
525 1 -1.1104 12.3504 15.6198 18.0351
527 2 2.2208 10.9221 20.0235 19.1974
528 1 -1.1104 12.2857 15.8785 15.1237
531 1 -1.1104 9.66697 18.5888 17.9424
532 2 2.2208 8.0418 17.0494 19.2727
535 1 -1.1104 9.69704 18.4913 14.966
538 2 2.2208 8.02257 19.8309 16.6311
539 1 -1.1104 9.14477 15.5635 17.9758
540 1 -1.1104 9.37603 15.8827 15.1314
523 1 -1.1104 12.3206 18.8102 15.2683
529 1 -1.1104 12.4394 15.7686 20.8704
712 1 -1.1104 12.2197 18.8507 23.4286
541 1 -1.1104 9.42747 15.5805 20.7622
695 2 2.2208 -0.358987 17.1867 22.1297
452 2 2.2208 2.50155 5.87767 13.7588
600 2 2.2208 10.84 0.225746 27.6481
698 2 2.2208 8.16977 19.9607 21.9763
709 1 -1.1104 12.3249 15.6797 23.4063
361 1 -1.1104 0.957668 -0.977797 20.6999
368 1 -1.1104 3.98575 -3.69725 20.6684
349 1 -1.1104 0.944563 -4.02536 20.5701
375 1 -1.1104 3.94018 -0.890848 20.5559
635 2 2.2208 5.23049 5.95685 27.6834
546 2 2.2208 5.45764 0.314948 22.2386
547 1 -1.1104 1.04871 -4.01398 23.5786
551 1 -1.1104 0.863513 -3.98609 26.4219
555 1 -1.1104 1.10468 -1.04167 23.5075
557 2 2.2208 5.27983 -2.33554 24.917
559 1 -1.1104 0.954271 -1.12793 26.2424
561 1 -1.1104 3.83281 -3.78525 23.5729
563 2 2.2208 2.27534 0.37953 24.9993
564 1 -1.1104 4.06523 -4.01284 26.3138
566 2 2.2208 2.40251 -2.48062 22.0738
568 1 -1.1104 3.94185 -1.19766 23.4678
569 1 -1.1104 3.57413 -1.20423 26.2173
638 2 2.2208 -0.425208 11.4107 27.769
353 1 -1.1104 6.65651 -3.9975 20.8163
418 2 2.2208 10.9421 2.96675 13.7131
402 1 -1.1104 9.58303 -3.92476 20.5386
549 1 -1.1104 6.4845 -3.76511 23.5283
363 1 -1.1104 6.7352 -1.22439 20.7261
560 1 -1.1104 6.47924 -0.890565 26.1297
553 1 -1.1104 6.71685 -3.80614 26.3623
556 1 -1.1104 6.97035 -1.00473 23.351
582 2 2.2208 11.1764 0.462911 22.32
583 1 -1.1104 12.1965 -3.81195 23.3579
585 1 -1.1104 12.4389 -3.94783 26.4257
587 1 -1.1104 12.5066 -1.06496 23.7269
588 2 2.2208 11.1484 -2.51829 24.9514
590 1 -1.1104 12.3676 -1.0715 26.3318
591 1 -1.1104 9.38773 -3.66222 23.6175
593 2 2.2208 8.14208 0.245645 24.9617
594 1 -1.1104 9.6177 -3.86303 26.6659
596 2 2.2208 8.17484 -2.51001 22.0609
598 1 -1.1104 9.60252 -1.02927 23.6092
599 1 -1.1104 9.52999 -0.981166 26.2975
379 2 2.2208 -0.376016 0.286819 16.2919
708 2 2.2208 10.9175 14.4778 25.0234
433 1 -1.1104 0.877425 4.50067 20.7233
444 1 -1.1104 3.6415 7.40858 20.3522
700 1 -1.1104 9.88348 18.839 26.5404
449 1 -1.1104 3.62196 4.56965 20.6385
548 1 -1.1104 0.908055 1.68775 23.5896
552 1 -1.1104 0.986808 1.65814 26.4561
558 2 2.2208 5.43517 3.11175 24.7927
562 1 -1.1104 4.12348 1.52832 23.6943
565 1 -1.1104 3.69698 1.65083 26.2621
567 2 2.2208 2.37612 3.02894 22.131
611 2 2.2208 5.25984 5.93137 22.0033
617 1 -1.1104 1.02423 4.60074 23.4915
622 1 -1.1104 1.0121 4.78956 26.2496
626 1 -1.1104 3.66638 7.33447 23.4054
627 2 2.2208 2.43091 5.8505 24.7647
629 1 -1.1104 3.7933 7.23803 26.2425
631 1 -1.1104 3.84256 4.69398 23.4102
633 1 -1.1104 3.92303 4.38962 26.0849
615 1 -1.1104 0.894442 7.60076 26.2315
613 1 -1.1104 0.972273 7.17668 23.3572
385 2 2.2208 5.40495 3.2401 13.8716
550 1 -1.1104 6.99071 1.71782 23.5172
702 1 -1.1104 6.93119 18.7871 26.5734
571 2 2.2208 2.37858 -2.53767 27.7158
616 1 -1.1104 6.53314 7.18591 26.4553
614 1 -1.1104 6.44034 7.25834 23.5901
619 1 -1.1104 6.8737 4.47597 23.2375
464 1 -1.1104 12.3032 4.70537 20.6868
471 1 -1.1104 9.45759 7.17031 21.0936
426 1 -1.1104 6.56805 7.22877 20.8831
404 1 -1.1104 9.59523 1.63584 20.6564
476 1 -1.1104 9.61164 4.47468 20.7241
355 1 -1.1104 6.87383 1.6454 20.935
437 1 -1.1104 6.44196 4.57567 20.4162
624 1 -1.1104 6.80847 4.55591 26.125
554 1 -1.1104 6.65725 1.61577 26.3192
584 1 -1.1104 12.7331 1.65758 23.6121
586 1 -1.1104 12.1724 1.78088 26.3944
589 2 2.2208 10.9306 3.34322 25.0592
592 1 -1.1104 9.97492 1.98339 23.4913
595 1 -1.1104 9.47364 1.7693 26.322
597 2 2.2208 8.39124 3.04155 22.1882
643 1 -1.1104 9.44118 4.67598 26.2873
645 1 -1.1104 9.64464 4.94138 23.6809
647 1 -1.1104 9.4325 7.285 26.4452
649 2 2.2208 8.08239 5.93742 24.891
650 2 2.2208 11.0285 6.02819 22.2698
653 1 -1.1104 11.9544 7.50234 26.502
654 1 -1.1104 12.4846 4.62827 23.5874
657 1 -1.1104 12.3049 4.77442 26.4548
659 1 -1.1104 9.27799 7.55777 23.7019
652 1 -1.1104 12.0281 7.5003 23.5699
435 1 -1.1104 1.0303 10.0992 20.5217
451 1 -1.1104 3.98322 9.97137 20.7858
714 2 2.2208 11.0096 17.1602 22.2345
576 2 2.2208 -0.386844 5.84336 16.4907
570 2 2.2208 5.14497 0.288974 27.6491
507 1 -1.1104 3.89369 12.7502 20.6853
488 1 -1.1104 0.825619 13.0654 20.5743
683 1 -1.1104 4.11379 13.0034 26.6405
672 1 -1.1104 1.35345 12.9402 26.3313
612 2 2.2208 5.32206 11.6091 22.3844
618 1 -1.1104 1.017 10.0647 23.3214
621 2 2.2208 5.23883 8.69058 24.8933
623 1 -1.1104 1.00518 10.0732 26.2717
628 2 2.2208 2.45537 11.494 24.9086
630 2 2.2208 2.27374 8.67114 21.9535
632 1 -1.1104 4.04709 10.3121 23.7168
634 1 -1.1104 3.93708 9.95637 26.4605
668 1 -1.1104 3.6934 13.009 23.6353
678 1 -1.1104 0.772665 12.8154 23.4093
439 1 -1.1104 6.71393 9.95592 20.6479
522 1 -1.1104 12.2241 12.7967 20.912
620 1 -1.1104 6.70662 10.1396 23.672
676 1 -1.1104 6.86861 13.0139 23.5712
625 1 -1.1104 6.67079 9.8679 26.5867
667 1 -1.1104 6.7729 13.0424 26.3613
713 1 -1.1104 12.3837 12.9768 23.6901
711 1 -1.1104 12.2931 12.9194 26.4414
705 1 -1.1104 9.68059 13.0067 23.4451
701 1 -1.1104 9.43667 13.0427 26.2527
642 1 -1.1104 9.63753 10.2263 26.3098
644 1 -1.1104 9.3743 10.2202 23.3577
646 2 2.2208 8.15108 8.73247 22.0941
648 2 2.2208 8.37674 11.7204 24.7292
651 2 2.2208 10.914 11.3536 22.1704
655 1 -1.1104 12.3787 10.1319 23.7066
656 2 2.2208 10.8062 8.82785 24.9524
658 1 -1.1104 12.2875 10.282 26.4119
417 2 2.2208 10.7592 -2.5028 13.7616
572 2 2.2208 2.3042 3.20805 27.7161
684 1 -1.1104 6.80504 15.9029 23.7385
509 1 -1.1104 3.82891 18.6181 20.7995
688 2 2.2208 2.44776 14.3685 22.2943
675 2 2.2208 5.41488 14.4318 25.0292
687 2 2.2208 2.45456 19.9889 22.166
686 1 -1.1104 3.87611 15.7116 23.6062
685 1 -1.1104 1.05598 15.8153 23.4525
677 1 -1.1104 1.14081 18.783 23.7044
682 1 -1.1104 3.9415 15.9182 26.4509
674 2 2.2208 5.3756 19.9343 24.98
681 2 2.2208 2.60756 17.1731 25.1689
679 2 2.2208 5.46097 17.0806 22.3004
680 1 -1.1104 4.20747 18.7345 26.4938
671 1 -1.1104 1.23671 15.6386 26.3456
670 1 -1.1104 1.15319 18.223 26.6591
666 1 -1.1104 4.0215 18.4704 23.5543
703 2 2.2208 8.16142 17.2288 25.1836
661 2 2.2208 8.13517 8.47764 27.6545
710 1 -1.1104 12.3895 18.5469 26.2386
699 2 2.2208 8.14917 14.4223 22.0733
704 1 -1.1104 9.55988 18.5552 23.7575
502 1 -1.1104 6.60858 15.7885 20.8084
412 2 2.2208 -0.371601 14.3333 19.2238
707 2 2.2208 10.9918 20.0069 24.9844
524 1 -1.1104 12.3187 18.4986 20.8367
536 1 -1.1104 9.59859 18.4827 20.5142
720 2 2.2208 -0.358269 20.0765 13.7322
542 2 2.2208 -0.302584 3.08795 19.4085
641 2 2.2208 -0.293044 5.8865 27.713
574 2 2.2208 13.5847 14.3952 16.476
718 2 2.2208 13.5006 20.3034 21.9969
480 2 2.2208 10.7637 8.64658 13.7978
689 2 2.2208 2.35248 20.1755 27.7089
453 2 2.2208 5.18833 8.56549 13.7123
517 2 2.2208 5.23854 14.2759 13.6852
454 2 2.2208 2.44834 11.5933 13.7177
602 2 2.2208 8.02244 3.03056 27.7681
717 2 2.2208 8.08359 14.5538 27.6581
721 2 2.2208 5.41599 22.8518 5.33198
723 1 -1.1104 1.04399 24.2247 1.18069
724 1 -1.1104 1.02456 24.3796 4.13944
725 1 -1.1104 1.02745 21.5514 0.869949
727 2 2.2208 5.444 25.7452 2.45852
728 1 -1.1104 1.17779 21.4972 3.80565
730 1 -1.1104 3.79674 24.1484 0.957093
731 2 2.2208 2.40609 22.8366 2.51339
733 1 -1.1104 3.97061 24.1651 3.75207
734 2 2.2208 2.47828 25.8293 5.31496
735 1 -1.1104 3.5474 21.5833 1.00228
737 1 -1.1104 4.11508 21.4125 4.00009
736 1 -1.1104 3.91754 26.9877 1.05245
729 1 -1.1104 1.20826 27.113 3.84044
869 1 -1.1104 3.93469 21.3941 6.66646
870 1 -1.1104 3.8806 26.8364 6.86617
868 1 -1.1104 4.21043 24.191 6.56827
862 1 -1.1104 1.33806 24.2783 6.85677
741 2 2.2208 -0.221562 22.9341 5.43005
864 1 -1.1104 1.21577 21.2528 6.83903
1083 2 2.2208 10.8861 34.203 -0.14987
1044 2 2.2208 13.6724 45.6461 8.17065
743 1 -1.1104 6.73408 24.0761 3.66503
742 1 -1.1104 6.70131 24.2826 0.941207
746 1 -1.1104 6.74274 21.2866 3.70068
744 1 -1.1104 6.52846 21.4422 0.828053
748 2 2.2208 10.8813 22.937 5.24964
750 1 -1.1104 12.2379 24.3415 0.837643
751 1 -1.1104 12.3112 24.1577 3.78437
752 1 -1.1104 12.5554 21.6447 1.00828
754 2 2.2208 10.927 25.5554 2.42813
755 1 -1.1104 12.5858 21.3326 3.6745
757 1 -1.1104 9.46631 24.1626 0.813788
758 2 2.2208 8.11765 22.7769 2.2506
760 1 -1.1104 9.36878 23.9603 3.65879
761 2 2.2208 8.12699 25.5749 5.12716
762 1 -1.1104 9.73032 21.4035 0.77376
764 1 -1.1104 9.48403 21.2216 3.60329
763 1 -1.1104 9.64155 26.9756 1.05618
756 1 -1.1104 12.5257 27.0156 3.67801
898 1 -1.1104 9.69913 24.3753 6.51851
745 1 -1.1104 6.86951 27.1649 1.13309
897 1 -1.1104 12.501 27.108 6.3756
863 1 -1.1104 7.02113 24.1766 6.49409
866 1 -1.1104 6.76059 21.1897 6.57812
738 1 -1.1104 4.02043 27.1018 3.71825
726 1 -1.1104 1.03322 27.1354 1.05329
722 2 2.2208 5.40795 28.2658 5.24772
732 2 2.2208 2.44811 28.3497 2.40608
770 1 -1.1104 1.05016 29.7403 1.15801
773 1 -1.1104 1.04976 29.8383 3.93669
776 1 -1.1104 1.15469 32.7606 1.02467
777 2 2.2208 5.19719 31.1952 2.50911
779 1 -1.1104 0.925021 32.6767 3.76247
781 1 -1.1104 3.77824 29.7272 0.746401
784 1 -1.1104 3.92566 29.9527 3.94334
786 2 2.2208 2.50287 31.2727 5.28066
788 1 -1.1104 3.89367 32.719 1.18887
789 1 -1.1104 3.72418 32.7065 3.81165
915 1 -1.1104 1.08613 30.0182 6.82343
1037 2 2.2208 -0.42624 25.6802 8.29912
793 1 -1.1104 6.76095 29.8509 1.12419
795 1 -1.1104 6.64423 32.5341 0.95883
919 1 -1.1104 1.16407 32.8223 6.48114
921 1 -1.1104 3.74229 29.6201 6.61853
1042 2 2.2208 -0.390378 31.2006 8.06054
1271 2 2.2208 8.23382 45.3896 13.5067
791 2 2.2208 -0.310457 31.2847 2.31391
747 1 -1.1104 6.89355 26.9146 3.89444
765 1 -1.1104 9.71548 27.0649 3.84683
753 1 -1.1104 12.4538 27.4132 0.923388
780 1 -1.1104 6.51267 32.6964 3.78099
794 1 -1.1104 6.61651 29.7495 3.9948
749 2 2.2208 11.0413 28.4399 5.28138
759 2 2.2208 8.25974 28.6657 2.61558
797 1 -1.1104 12.1949 29.9494 1.20789
799 1 -1.1104 12.4168 29.9329 3.90233
801 1 -1.1104 12.1877 32.6662 1.1725
802 2 2.2208 11.0189 31.3969 2.56092
804 1 -1.1104 12.2676 32.6421 4.01091
805 1 -1.1104 9.51679 29.7647 1.05771
808 1 -1.1104 9.40692 30.1005 3.80156
810 2 2.2208 8.20176 31.4554 5.41792
812 1 -1.1104 9.47037 32.8578 1.22701
813 1 -1.1104 9.52986 32.7809 4.13783
951 1 -1.1104 12.4829 32.67 6.73378
920 1 -1.1104 6.66921 32.9426 6.62665
867 1 -1.1104 6.65762 26.799 6.48945
917 1 -1.1104 6.82708 29.8153 6.65815
952 1 -1.1104 9.7607 29.8952 6.61913
1084 2 2.2208 5.154 45.6588 -0.370041
954 1 -1.1104 9.54449 32.6149 7.06736
769 2 2.2208 5.20385 34.0971 5.4153
771 1 -1.1104 1.12289 35.6684 0.857438
774 1 -1.1104 0.896674 35.6248 3.60271
778 2 2.2208 5.28766 36.9475 2.48912
782 1 -1.1104 3.99056 35.5398 0.935145
783 2 2.2208 2.31277 34.2092 2.43262
785 1 -1.1104 3.74548 35.3389 3.88839
787 2 2.2208 2.41815 36.9259 5.19354
815 2 2.2208 5.37886 39.5931 5.22645
821 1 -1.1104 0.952364 38.3703 1.10673
826 1 -1.1104 1.0803 38.4607 3.95004
831 2 2.2208 2.41047 39.8088 2.35804