ITEM: TIMESTEP
10000
ITEM: NUMBER OF ATOMS
17704
ITEM: BOX BOUNDS pp pp pp
-4.4405089634680517e-01 2.7784050896346528e+01
-5.3330772584124997e+00 3.3341307725841239e+02
-4.4906258030162705e-01 2.7789062580301572e+01
ITEM: ATOMS id type q x y z
1 2 2.2208 4.86536 0.596047 5.12404
2 1 -1.1104 0.680231 -3.89558 1.17292
6 1 -1.1104 0.519229 -3.69411 4.10137
10 1 -1.1104 0.662779 -1.15176 1.15356
12 2 2.2208 5.12035 -2.26095 2.37371
14 1 -1.1104 0.916842 -0.8139 3.97
16 1 -1.1104 3.59561 -3.5711 1.33379
18 2 2.2208 2.24653 0.4032 2.2375
19 1 -1.1104 3.4953 -3.74413 4.0132
21 2 2.2208 2.29506 -2.36899 5.19886
23 1 -1.1104 3.55684 -0.919755 0.869346
24 1 -1.1104 3.73001 -0.876431 3.7261
15 1 -1.1104 6.41095 -1.05293 3.89112
8 1 -1.1104 6.15458 -3.67618 3.88299
11 1 -1.1104 6.53574 -0.98018 0.90698
326 1 -1.1104 12.1737 15.9771 12.3846
324 2 2.2208 10.5717 19.8438 7.84838
9002 2 2.2208 4.89335 -5.13717 5.24413
170 1 -1.1104 0.888642 -1.09905 6.66107
4 1 -1.1104 6.43227 -3.6472 0.992009
31 2 2.2208 10.7345 0.583858 5.29377
32 1 -1.1104 11.9859 -3.86236 0.765491
34 1 -1.1104 11.818 -4.00845 3.75042
36 1 -1.1104 12.1058 -0.962045 0.95963
37 2 2.2208 10.54 -2.47287 2.47402
39 1 -1.1104 11.8303 -0.953967 3.77056
40 1 -1.1104 9.21122 -3.93071 1.20815
42 2 2.2208 7.82593 0.277785 2.33774
43 1 -1.1104 8.9884 -3.59388 3.85355
45 2 2.2208 7.7317 -2.31435 5.27311
47 1 -1.1104 9.40966 -1.07269 1.19816
48 1 -1.1104 9.08429 -1.04992 3.81815
333 2 2.2208 13.2835 14.4741 10.7211
50 2 2.2208 13.363 -2.26793 5.29955
9005 2 2.2208 10.6029 -5.06357 5.27981
207 1 -1.1104 12.0957 -0.867463 6.66803
49 2 2.2208 13.326 0.525707 2.44527
9011 2 2.2208 10.5721 -5.14819 10.7787
9012 2 2.2208 13.43 -5.2035 7.90968
3 1 -1.1104 0.726757 1.80348 0.898565
7 1 -1.1104 0.875987 2.04917 3.85254
13 2 2.2208 4.91571 3.1841 2.33853
17 1 -1.1104 3.64199 1.88394 0.916239
20 1 -1.1104 3.66021 2.02826 3.74625
22 2 2.2208 2.25145 3.31761 5.1656
54 2 2.2208 5.06322 5.96439 5.0804
56 1 -1.1104 0.786348 7.30515 0.855336
58 1 -1.1104 0.700266 7.38717 3.63269
60 1 -1.1104 0.74501 4.60553 0.617753
67 1 -1.1104 0.920555 4.8011 3.76721
72 2 2.2208 2.20912 6.1442 2.3799
74 1 -1.1104 3.66362 7.57661 3.71863
76 1 -1.1104 3.38895 4.84438 0.901609
79 1 -1.1104 3.57769 4.75062 3.77616
57 1 -1.1104 6.56092 7.55613 0.91201
63 1 -1.1104 6.21952 4.52634 1.02711
9 1 -1.1104 6.31181 1.81078 3.83059
69 1 -1.1104 6.41679 4.59723 3.78417
5 1 -1.1104 6.36554 1.85795 1.03939
59 1 -1.1104 6.4976 7.30363 3.73145
323 1 -1.1104 11.8701 15.852 9.43402
167 1 -1.1104 0.840764 1.75134 6.4986
236 1 -1.1104 0.692951 4.51266 6.5269
239 1 -1.1104 3.78675 4.68563 6.48394
233 2 2.2208 13.574 3.18316 5.29087
33 1 -1.1104 11.9229 1.91831 0.853391
35 1 -1.1104 12.0506 1.80062 3.87536
38 2 2.2208 10.4806 3.19666 2.45968
41 1 -1.1104 9.02198 1.90323 0.961548
44 1 -1.1104 9.12944 1.80014 3.79612
46 2 2.2208 7.84445 3.16089 5.15756
84 2 2.2208 10.6632 5.90856 5.04967
86 1 -1.1104 12.1445 7.43756 1.1457
87 1 -1.1104 11.8852 7.50524 4.04548
88 1 -1.1104 11.9878 4.55251 0.983741
92 1 -1.1104 11.9852 4.6596 3.66277
94 1 -1.1104 9.46527 7.39863 0.992226
95 2 2.2208 7.94461 6.04816 2.43514
97 1 -1.1104 9.12634 7.52675 3.87648
99 1 -1.1104 9.26197 4.61811 0.967778
102 1 -1.1104 9.2138 4.67234 3.79325
105 2 2.2208 13.3815 6.07755 2.26964
53 2 2.2208 13.2964 11.5562 7.99478
9010 2 2.2208 7.73218 -5.24461 8.1141
329 1 -1.1104 11.7799 18.8224 12.1129
327 1 -1.1104 11.8609 18.6525 9.28413
71 1 -1.1104 3.75709 7.44109 0.81073
55 2 2.2208 4.80207 11.401 5.08491
61 1 -1.1104 0.547179 9.82011 0.799488
66 2 2.2208 5.03919 8.80476 2.20344
68 1 -1.1104 0.754693 9.97899 3.74385
73 2 2.2208 1.97082 11.6626 2.46926
75 2 2.2208 2.13353 8.7232 5.21141
77 1 -1.1104 3.55473 10.0308 0.678635
80 1 -1.1104 3.59956 10.1198 3.58687
107 1 -1.1104 0.314587 12.6805 1.19527
113 1 -1.1104 0.717716 13.0035 3.71661
123 1 -1.1104 3.24639 12.8016 0.975492
128 1 -1.1104 3.5046 12.7671 3.74493
64 1 -1.1104 6.35854 10.1641 0.759956
124 1 -1.1104 3.50141 13.021 6.53627
70 1 -1.1104 6.30949 10.1123 3.63693
62 1 -1.1104 0.508188 10.1177 6.61289
110 1 -1.1104 6.31882 12.9259 0.805525
115 1 -1.1104 6.50687 12.855 3.57931
78 1 -1.1104 3.35499 10.2702 6.48195
111 1 -1.1104 6.14998 12.986 6.24858
296 1 -1.1104 6.24696 18.5642 12.1583
232 2 2.2208 13.2342 8.8468 5.30853
104 2 2.2208 13.2899 11.5328 2.41284
85 2 2.2208 10.5745 11.8389 5.00312
89 1 -1.1104 11.9879 10.1876 0.956702
91 2 2.2208 10.5463 8.78088 2.38857
93 1 -1.1104 11.7909 10.4142 3.7874
96 2 2.2208 7.97892 11.6731 2.07494
98 2 2.2208 7.73245 8.77593 5.12594
100 1 -1.1104 9.22015 10.1387 0.885755
103 1 -1.1104 9.17005 10.3098 3.48419
142 1 -1.1104 12.0866 12.8865 0.967583
146 1 -1.1104 12.1457 13.079 3.67974
153 1 -1.1104 9.38861 13.1695 0.828038
158 1 -1.1104 9.38549 13.1376 3.44885
231 2 2.2208 13.4027 20.0523 5.32711
154 1 -1.1104 9.04167 13.1865 6.38794
90 1 -1.1104 12.0069 10.2191 6.47187
143 1 -1.1104 11.9279 12.9475 6.43562
9008 2 2.2208 5.07168 -5.2654 10.9898
480 2 2.2208 10.4328 8.85814 13.527
106 2 2.2208 4.82605 17.1701 5.24902
109 1 -1.1104 0.660853 18.765 0.93062
114 1 -1.1104 0.684843 18.5317 3.93155
116 1 -1.1104 0.714193 15.7342 1.03106
119 2 2.2208 4.95114 14.1566 2.30283
120 2 2.2208 4.85658 20.0661 2.34734
121 1 -1.1104 0.559021 15.7583 3.88011
125 1 -1.1104 3.71164 18.5133 1.12868
127 2 2.2208 2.20099 17.1102 2.3638
129 1 -1.1104 3.62812 18.4878 3.94302
130 2 2.2208 2.06079 14.4131 5.0739
131 2 2.2208 1.97097 19.9236 5.26455
132 1 -1.1104 3.59616 15.8522 0.707016
134 1 -1.1104 3.43934 15.575 3.60057
138 1 -1.1104 6.40479 18.7503 0.799361
117 1 -1.1104 0.634436 15.5151 6.74324
139 1 -1.1104 6.27248 18.4093 3.7843
122 1 -1.1104 6.10384 15.6333 3.70378
140 1 -1.1104 6.43783 15.8166 0.849747
126 1 -1.1104 3.41651 18.5618 6.58986
571 2 2.2208 2.06091 -2.46735 -0.221325
204 2 2.2208 13.3866 14.3751 5.10747
610 2 2.2208 13.3029 3.15637 -0.370285
145 1 -1.1104 11.9208 18.5274 6.35157
156 1 -1.1104 8.98598 18.4085 6.63752
141 2 2.2208 10.4299 17.114 5.16327
144 1 -1.1104 12.1178 18.8449 0.881368
147 1 -1.1104 12.0336 19.0039 3.60706
148 1 -1.1104 12.1827 16.0534 1.08081
150 2 2.2208 10.7147 14.6415 2.19343
151 2 2.2208 10.6362 20.1045 2.33842
152 1 -1.1104 11.9737 15.9782 3.83737
155 1 -1.1104 9.36105 18.7362 0.970453
157 2 2.2208 7.68329 17.1085 2.28603
159 1 -1.1104 8.95167 18.7236 3.79438
160 2 2.2208 7.53927 14.4122 5.1775
161 2 2.2208 7.62038 19.918 5.26655
162 1 -1.1104 9.31661 15.8793 0.979892
164 1 -1.1104 9.052 15.8282 3.80466
163 1 -1.1104 9.09428 15.6936 6.66551
149 1 -1.1104 11.7837 15.8691 6.74168
28 2 2.2208 13.1636 20.1543 10.7738
318 1 -1.1104 9.13996 18.5746 9.41622
165 2 2.2208 13.4896 17.4197 2.44084
321 1 -1.1104 8.93483 18.6241 12.2423
166 1 -1.1104 0.774442 -3.77095 6.74399
172 1 -1.1104 3.54521 -3.6885 6.75399
317 2 2.2208 7.76356 14.4047 10.6418
171 1 -1.1104 6.10942 -1.11606 6.67835
174 1 -1.1104 3.46152 -0.891774 6.69023
175 2 2.2208 4.97848 0.25586 10.706
176 1 -1.1104 0.501585 -4.26489 12.4659
180 1 -1.1104 0.695505 -3.79161 9.52779
184 1 -1.1104 0.843597 -1.19131 12.3422
186 2 2.2208 4.81725 -2.47118 8.17712
188 1 -1.1104 0.573987 -0.8523 9.44207
190 1 -1.1104 3.47753 -3.85696 12.5468
192 2 2.2208 2.08088 0.43127 8.1842
193 1 -1.1104 3.57755 -3.84513 9.68699
195 2 2.2208 2.12078 -2.61562 11.1494
197 1 -1.1104 3.61118 -1.28741 12.1598
198 1 -1.1104 3.46336 -1.08436 9.51267
189 1 -1.1104 6.51106 -1.04259 9.5353
168 1 -1.1104 6.28815 -3.85917 6.78497
178 1 -1.1104 6.30931 -3.71675 12.2399
182 1 -1.1104 6.26056 -3.76915 9.5106
185 1 -1.1104 6.26138 -0.908179 12.4433
9004 2 2.2208 7.80593 -5.28785 2.55098
325 2 2.2208 10.5482 14.3655 8.04852
229 2 2.2208 13.5631 0.436869 8.01658
9001 2 2.2208 2.36426 -5.03447 2.54077
208 1 -1.1104 9.0635 -3.73695 6.68517
210 1 -1.1104 9.2694 -0.96778 6.70435
205 1 -1.1104 11.9787 -3.67419 6.65825
211 2 2.2208 10.4602 0.338329 11.0163
212 1 -1.1104 12.154 -3.80593 12.5192
214 1 -1.1104 12.1473 -3.66566 9.47579
216 1 -1.1104 12.0267 -0.898728 12.4675
217 2 2.2208 10.5732 -2.41434 8.06421
219 1 -1.1104 12.1258 -1.16627 9.539
220 1 -1.1104 9.02484 -3.76336 12.2409
222 2 2.2208 7.79951 0.30141 8.08689
223 1 -1.1104 9.29537 -3.77781 9.36971
225 2 2.2208 7.75821 -2.41504 10.7331
227 1 -1.1104 9.19486 -1.08635 12.385
228 1 -1.1104 9.1781 -0.963667 9.5639
230 2 2.2208 13.4475 -2.36285 10.9729
173 1 -1.1104 3.64124 2.09242 6.48553
234 1 -1.1104 0.889465 7.30368 6.56346
238 1 -1.1104 3.54565 7.38911 6.57892
177 1 -1.1104 1.06145 1.76065 12.3056
181 1 -1.1104 0.747028 1.80841 9.48779
187 2 2.2208 5.17289 2.99247 7.98193
191 1 -1.1104 3.67155 1.67069 12.0951
194 1 -1.1104 3.59998 1.50626 9.24739
196 2 2.2208 2.254 3.09143 10.9251
240 2 2.2208 4.97783 5.80039 10.6618
242 1 -1.1104 0.796287 7.55349 12.4307
244 1 -1.1104 0.892966 7.45151 9.41521
246 1 -1.1104 0.932856 4.64279 12.4083
251 1 -1.1104 0.873145 4.56424 9.43671
255 1 -1.1104 3.69725 7.18442 12.088
256 2 2.2208 2.25734 5.8729 7.98574
258 1 -1.1104 3.65346 7.26773 9.34276
260 1 -1.1104 3.75322 4.46028 12.1457
262 1 -1.1104 3.79585 4.37409 9.42777
237 1 -1.1104 6.47713 4.49867 6.57213
235 1 -1.1104 6.29669 7.40879 6.52529
243 1 -1.1104 6.37701 7.24239 12.4622
169 1 -1.1104 6.71347 1.76987 6.70424
179 1 -1.1104 6.70447 1.70083 12.3608
183 1 -1.1104 6.42232 1.69555 9.57268
253 1 -1.1104 6.51467 4.47587 9.30412
206 1 -1.1104 12.266 1.79759 6.63888
202 2 2.2208 13.6019 6.00474 7.98942
269 1 -1.1104 9.23405 4.66426 6.65986
265 1 -1.1104 11.9993 7.53234 6.58313
248 1 -1.1104 6.45134 4.75684 12.1222
266 1 -1.1104 12.193 4.63871 6.66726
209 1 -1.1104 9.35301 1.81849 6.6584
267 1 -1.1104 9.13568 7.57457 6.585
213 1 -1.1104 11.971 1.842 12.2948
215 1 -1.1104 12.0262 1.55861 9.48478
218 2 2.2208 10.7916 3.18717 8.07278
221 1 -1.1104 9.39386 1.78818 12.1273
224 1 -1.1104 9.38084 1.84197 9.44239
226 2 2.2208 7.96952 3.09014 10.8795
245 1 -1.1104 6.36073 7.33347 9.3099
268 1 -1.1104 9.25401 4.59733 9.42068
271 1 -1.1104 9.35631 4.53879 12.2638
273 1 -1.1104 9.22758 7.2326 9.33299
275 2 2.2208 7.82638 6.0271 7.96841
276 2 2.2208 10.62 5.80057 10.8355
279 1 -1.1104 12.3198 7.51564 9.2364
280 1 -1.1104 12.102 4.68386 12.0201
283 1 -1.1104 12.106 4.69738 9.51441
285 1 -1.1104 9.10893 7.34162 12.3277
278 1 -1.1104 11.9207 7.43218 12.139
203 2 2.2208 13.5704 3.26485 10.8372
320 2 2.2208 7.79872 17.2928 8.18622
310 2 2.2208 2.12081 14.3911 10.7427
108 1 -1.1104 0.436365 12.9055 6.55012
241 2 2.2208 4.78092 11.501 10.8884
247 1 -1.1104 0.694814 10.3476 12.0355
250 2 2.2208 4.90874 8.74116 7.92128
252 1 -1.1104 0.616271 10.2846 9.44145
257 2 2.2208 1.92782 11.7497 8.04987
259 2 2.2208 2.06274 8.78641 10.8108
261 1 -1.1104 3.54783 10.2623 12.437
263 1 -1.1104 3.53132 10.2354 9.62177
287 1 -1.1104 3.49337 13.0667 12.1179
294 1 -1.1104 0.776121 13.1316 9.34944
299 1 -1.1104 0.690429 12.9326 12.2086
305 1 -1.1104 3.58759 12.9299 9.39012
254 1 -1.1104 6.47458 10.096 9.61084
297 1 -1.1104 6.15298 13.0025 12.0597
290 1 -1.1104 6.41553 12.9439 9.31684
52 2 2.2208 13.4144 8.7549 10.9636
316 2 2.2208 7.57863 19.9449 10.7568
65 1 -1.1104 6.1933 10.191 6.54807
101 1 -1.1104 9.12014 10.4188 6.44708
249 1 -1.1104 6.34288 10.0168 12.4208
330 1 -1.1104 12.0144 13.0572 12.0314
328 1 -1.1104 12.0729 12.8842 9.34274
322 1 -1.1104 9.20971 13.0883 12.0497
319 1 -1.1104 9.26428 12.8666 9.26984
264 1 -1.1104 9.01021 10.1721 9.27372
270 1 -1.1104 9.20967 9.94899 11.945
272 2 2.2208 7.7757 8.67032 10.9288
274 2 2.2208 7.62849 11.5566 7.98289
277 2 2.2208 10.5124 11.4542 10.6237
281 1 -1.1104 11.9373 10.2943 12.2671
282 2 2.2208 10.6062 8.74457 7.95979
284 1 -1.1104 11.8935 10.0506 9.53276
332 2 2.2208 13.313 17.1483 7.90108
331 2 2.2208 10.5241 17.1966 10.9239
133 1 -1.1104 3.59411 15.6629 6.51801
118 1 -1.1104 6.32023 15.7811 6.49089
307 1 -1.1104 0.950989 15.8397 12.2073
309 2 2.2208 2.04141 20.0696 10.7946
308 1 -1.1104 3.64901 16.018 12.2657
288 1 -1.1104 6.2703 18.5616 9.49521
306 1 -1.1104 6.49714 15.734 12.2469
289 1 -1.1104 6.33706 15.8836 9.42792
302 1 -1.1104 0.513169 18.4811 6.63076
112 1 -1.1104 6.13746 18.5732 6.80913
286 1 -1.1104 3.28566 18.6589 12.1635
291 1 -1.1104 0.869457 18.3851 9.51211
292 1 -1.1104 0.726309 15.6759 9.42838
293 2 2.2208 4.85751 19.8374 8.07842
295 2 2.2208 4.93381 14.3934 7.86456
298 1 -1.1104 0.764861 18.7065 12.2445
300 2 2.2208 4.97009 17.3021 10.7824
301 1 -1.1104 3.42978 18.7424 9.34125
303 2 2.2208 2.0904 17.0063 7.92688
304 1 -1.1104 3.67625 15.9218 9.31423
315 1 -1.1104 9.326 15.8721 12.0224
314 1 -1.1104 9.11841 15.7689 9.39898
9007 2 2.2208 2.13767 -5.18 8.19203
543 2 2.2208 10.5288 14.3607 13.5507
381 2 2.2208 13.4326 6.15254 13.5009
664 2 2.2208 13.3867 8.75716 -0.388628
689 2 2.2208 2.06336 20.0562 -0.275349
604 2 2.2208 13.3644 11.7502 13.5669
545 2 2.2208 13.4433 0.411049 13.5833
601 2 2.2208 7.94107 -2.60511 -0.363823
338 2 2.2208 13.442 17.3013 13.6211
662 2 2.2208 10.6953 11.6285 -0.328914
418 2 2.2208 10.6669 3.28424 13.619
452 2 2.2208 2.31973 5.95437 13.6359
602 2 2.2208 7.83674 3.30015 -0.366687
481 2 2.2208 7.57807 11.5026 13.4809
517 2 2.2208 4.74093 14.4091 13.4486
385 2 2.2208 5.0579 3.19315 13.5799
337 2 2.2208 7.87287 17.1385 13.4526
570 2 2.2208 5.05867 0.286193 -0.304294
660 2 2.2208 10.4864 5.9656 -0.330684
343 2 2.2208 5.05465 0.41253 16.5966
344 1 -1.1104 0.590449 -3.91067 18.1107
348 1 -1.1104 0.714033 -3.89484 15.0355
356 1 -1.1104 0.65042 -1.0004 17.9685
358 2 2.2208 4.93302 -2.57413 19.4629
360 1 -1.1104 0.667066 -1.26171 15.0952
364 1 -1.1104 3.39942 -4.02318 17.9393
366 2 2.2208 2.19346 0.258052 19.3295
367 1 -1.1104 3.53277 -3.7114 15.0065
371 2 2.2208 2.07052 -2.44915 16.5838
373 1 -1.1104 3.39851 -1.08491 17.9495
374 1 -1.1104 3.60774 -0.801028 14.9056
361 1 -1.1104 0.819007 -1.24926 20.925
346 1 -1.1104 6.2557 -3.60373 17.9419
362 1 -1.1104 6.29445 -1.15096 15.2369
661 2 2.2208 7.77545 8.74261 27.6652
357 1 -1.1104 6.21791 -0.835392 18.2455
352 1 -1.1104 6.37939 -3.83574 15.1361
386 2 2.2208 10.6583 0.497554 16.5016
387 1 -1.1104 11.9265 -4.22631 17.9722
389 1 -1.1104 11.9831 -3.9363 15.3045
393 1 -1.1104 12.2911 -1.22323 18.1559
394 2 2.2208 10.6439 -2.37552 19.4172
396 1 -1.1104 12.0301 -0.932658 15.2986
398 1 -1.1104 8.97637 -3.93528 17.8572
400 2 2.2208 7.86545 0.250189 19.4507
401 1 -1.1104 9.17878 -3.80241 15.1403
405 2 2.2208 7.64885 -2.45459 16.6541
407 1 -1.1104 9.16456 -1.18604 17.7611
408 1 -1.1104 9.16707 -0.824295 15.1396
9041 2 2.2208 7.73388 -5.03873 13.7182
690 2 2.2208 4.93256 17.2918 27.6401
414 2 2.2208 13.3838 -2.64504 16.5616
9094 2 2.2208 13.462 -5.27976 25.0548
704 1 -1.1104 9.06806 18.7619 23.5029
345 1 -1.1104 0.724247 1.63419 17.9057
350 1 -1.1104 0.856351 1.69938 15.1195
359 2 2.2208 5.01027 3.25767 19.4009
365 1 -1.1104 3.52341 1.77243 17.9762
369 1 -1.1104 3.60132 1.9302 15.1232
372 2 2.2208 2.27517 3.38473 16.4502
419 2 2.2208 5.06531 6.02919 16.6109
421 1 -1.1104 0.65966 7.55564 18.205
423 1 -1.1104 0.744454 7.34972 15.0556
427 1 -1.1104 0.698554 4.51719 17.9811
432 1 -1.1104 0.626416 4.49785 15.4092
441 2 2.2208 2.05136 6.15726 19.1815
443 1 -1.1104 3.53794 7.41631 15.087
446 1 -1.1104 3.46974 4.8271 17.8692
448 1 -1.1104 3.85202 4.72359 15.237
354 1 -1.1104 6.20237 1.74112 15.1501
440 1 -1.1104 3.49522 7.64005 17.8834
436 1 -1.1104 6.28045 4.56046 14.9756
347 1 -1.1104 6.57439 1.693 17.9068
449 1 -1.1104 3.42731 4.55237 20.4653
429 1 -1.1104 6.10786 4.52975 17.8311
425 1 -1.1104 6.56616 7.04562 15.0574
422 1 -1.1104 6.49937 7.51019 17.8155
637 2 2.2208 5.04622 11.4892 27.73
424 1 -1.1104 0.574522 7.28757 20.8469
433 1 -1.1104 0.673268 4.58991 20.7194
9040 2 2.2208 13.3226 -5.13687 13.8376
606 2 2.2208 13.2736 5.95256 19.2735
388 1 -1.1104 12.2991 1.69985 17.9547
391 1 -1.1104 11.8119 1.83464 15.0409
395 2 2.2208 10.7212 3.21632 19.3186
399 1 -1.1104 9.31121 1.78327 18.0814
403 1 -1.1104 9.03217 1.97872 14.9042
406 2 2.2208 7.80674 3.12421 16.5735
455 2 2.2208 10.6677 5.99838 16.5597
457 1 -1.1104 12.0183 7.35063 17.6998
458 1 -1.1104 11.9211 7.54969 14.8749
460 1 -1.1104 12.0205 4.64606 17.7583
463 1 -1.1104 12.1211 4.92588 15.0755
467 1 -1.1104 9.13997 7.50049 17.9125
468 2 2.2208 7.79562 6.01754 19.327
470 1 -1.1104 9.31582 7.59281 15.2486
473 1 -1.1104 9.11825 4.63486 17.7038
475 1 -1.1104 9.34018 4.69119 14.9504
9200 2 2.2208 1.95641 -5.28792 19.5693
715 2 2.2208 13.3863 3.22078 16.4305
9095 2 2.2208 2.2506 -5.21819 25.0377
355 1 -1.1104 6.49994 1.94177 20.6203
404 1 -1.1104 9.1888 1.87906 20.587
471 1 -1.1104 9.40464 7.27932 20.6189
464 1 -1.1104 11.9559 4.59318 20.6511
420 2 2.2208 4.93675 11.5828 16.5602
428 1 -1.1104 0.873993 10.4291 17.5703
431 2 2.2208 4.94302 8.82679 19.249
434 1 -1.1104 0.761925 10.2992 14.6827
442 2 2.2208 2.14195 11.5732 19.1421
445 2 2.2208 2.20141 9.04005 16.4071
447 1 -1.1104 3.52405 10.2782 17.9159
450 1 -1.1104 3.4827 10.3914 15.0957
483 1 -1.1104 0.844337 13.2595 18.0644
487 1 -1.1104 0.612171 12.9314 15.1119
503 1 -1.1104 3.60193 13.0969 17.8275
506 1 -1.1104 3.5708 13.3197 15.0426
716 2 2.2208 13.5567 14.5265 21.9615
430 1 -1.1104 6.35932 10.3918 17.992
491 1 -1.1104 6.48036 12.8034 15.0127
485 1 -1.1104 6.34222 13.1729 17.9582
492 1 -1.1104 6.25799 13.0961 20.871
636 2 2.2208 2.25905 8.66604 27.6794
515 2 2.2208 2.16757 17.3359 13.6944
438 1 -1.1104 6.08437 9.89824 15.3746
456 2 2.2208 10.5159 11.8267 16.3519
461 1 -1.1104 11.7672 10.1715 17.763
462 2 2.2208 10.4801 8.81388 19.238
465 1 -1.1104 11.7788 10.3809 14.8813
469 2 2.2208 7.78023 11.5802 19.3422
472 2 2.2208 7.85779 8.86973 16.4697
474 1 -1.1104 9.18415 10.2395 17.8901
477 1 -1.1104 8.95338 10.3605 14.8856
519 1 -1.1104 11.893 13.2345 17.7277
521 1 -1.1104 12.0518 13.2276 14.859
530 1 -1.1104 9.10428 13.0257 17.7944
533 1 -1.1104 9.25022 12.9943 14.9828
466 1 -1.1104 12.0178 10.232 20.7069
605 2 2.2208 13.232 11.6433 19.2496
708 2 2.2208 10.6268 14.4178 25.044
9091 2 2.2208 7.95425 -5.32308 24.8936
482 2 2.2208 5.07885 17.1079 16.523
484 1 -1.1104 0.546466 18.7508 17.8435
489 1 -1.1104 0.547327 18.747 14.955
495 1 -1.1104 0.338597 16.1542 17.8468
497 2 2.2208 4.73148 14.4114 19.3219
498 2 2.2208 4.85006 20.1006 19.4793
499 1 -1.1104 0.699112 15.9196 15.0764
504 1 -1.1104 3.4678 18.6548 17.9478
505 2 2.2208 1.9207 17.181 19.2653
508 1 -1.1104 3.4119 18.735 15.0263
510 2 2.2208 2.02571 14.5072 16.5274
511 2 2.2208 2.18548 20.0392 16.5087
512 1 -1.1104 3.52762 15.9038 17.8405
513 1 -1.1104 3.42905 16.0189 15.0731
486 1 -1.1104 6.31636 18.6223 17.804
496 1 -1.1104 6.32642 15.9236 18.1097
493 1 -1.1104 6.38122 18.3205 14.8732
501 1 -1.1104 6.36952 15.5498 15.102
494 1 -1.1104 6.301 18.6533 20.7432
665 2 2.2208 13.4396 5.88478 24.9729
509 1 -1.1104 3.51785 18.6132 20.6885
514 1 -1.1104 3.17463 15.9045 20.6146
502 1 -1.1104 6.41107 15.904 20.9005
415 2 2.2208 13.5013 20.2927 16.6464
573 2 2.2208 13.3703 17.3072 19.344
710 1 -1.1104 11.9622 18.5195 26.3196
518 2 2.2208 10.4855 17.0706 16.3294
520 1 -1.1104 11.811 18.7357 17.4787
523 1 -1.1104 12.1188 19.0751 14.8849
525 1 -1.1104 11.8957 15.772 17.8851
526 2 2.2208 10.5045 14.5483 19.1693
527 2 2.2208 10.5201 19.9102 19.3193
528 1 -1.1104 12.0745 16.0765 15.1301
531 1 -1.1104 9.19404 18.4965 17.8556
532 2 2.2208 7.83 17.1521 19.2632
535 1 -1.1104 9.1191 18.4891 15.1876
537 2 2.2208 7.67814 14.3168 16.3972
538 2 2.2208 7.80013 20.1142 16.5342
539 1 -1.1104 9.07672 15.6332 17.6419
540 1 -1.1104 9.26479 15.7163 14.7684
342 2 2.2208 13.544 14.4433 27.5581
524 1 -1.1104 11.9529 18.6199 20.723
707 2 2.2208 10.5317 19.9547 24.9906
574 2 2.2208 13.4903 14.5972 16.5086
529 1 -1.1104 12.0835 15.9643 20.6391
541 1 -1.1104 9.16406 15.9103 20.6916
536 1 -1.1104 9.10124 18.5975 20.6647
698 2 2.2208 7.63785 20.0258 22.1319
609 2 2.2208 13.6738 0.429517 25.0114
375 1 -1.1104 3.48731 -1.08476 20.7868
368 1 -1.1104 3.59318 -3.97787 20.9612
349 1 -1.1104 0.781753 -3.83109 21.0255
353 1 -1.1104 6.51508 -3.52735 20.8187
546 2 2.2208 4.9777 0.528527 22.1377
547 1 -1.1104 0.782231 -3.81976 23.8663
551 1 -1.1104 0.633528 -3.82955 26.5561
555 1 -1.1104 0.896729 -0.887229 23.7774
557 2 2.2208 4.81389 -2.36884 25.0056
559 1 -1.1104 0.845454 -1.16348 26.6339
561 1 -1.1104 3.44781 -3.81057 23.7933
563 2 2.2208 2.30943 0.387236 24.9234
564 1 -1.1104 3.53852 -3.79071 26.598
566 2 2.2208 2.14828 -2.41353 22.303
568 1 -1.1104 3.6666 -1.10529 23.6838
569 1 -1.1104 3.6516 -1 26.3968
556 1 -1.1104 6.34417 -1.05269 23.653
363 1 -1.1104 6.32245 -0.827451 20.9118
549 1 -1.1104 6.46421 -4.12408 23.5703
560 1 -1.1104 6.36682 -1.0122 26.2322
416 2 2.2208 7.76107 0.423958 13.8097
390 1 -1.1104 12.249 -3.72475 20.9788
409 1 -1.1104 9.26742 -0.951501 20.8685
397 1 -1.1104 11.9645 -0.876064 20.8835
608 2 2.2208 13.5877 -2.537 22.1817
553 1 -1.1104 6.62673 -3.79039 26.4343
402 1 -1.1104 9.32172 -3.84196 20.6796
582 2 2.2208 10.6331 0.429055 22.2182
583 1 -1.1104 12.1664 -3.62976 23.5794
585 1 -1.1104 12.0158 -3.85101 26.2766
587 1 -1.1104 12.188 -0.786694 23.579
588 2 2.2208 10.539 -2.27106 24.8962
590 1 -1.1104 12.0177 -1.10872 26.3252
591 1 -1.1104 9.35858 -3.67902 23.6069
593 2 2.2208 7.71829 0.358533 25.0195
594 1 -1.1104 9.3927 -3.81231 26.3241
596 2 2.2208 7.66686 -2.09995 22.3768
598 1 -1.1104 9.31807 -1.06805 23.5432
599 1 -1.1104 9.12806 -0.987884 26.4074
706 1 -1.1104 11.8883 15.7126 26.3345
709 1 -1.1104 12.116 16.0612 23.4701
700 1 -1.1104 8.97736 18.5024 26.3802
370 1 -1.1104 3.45145 1.57276 20.7536
444 1 -1.1104 3.53418 7.3431 20.6818
351 1 -1.1104 0.813158 1.68237 20.6442
437 1 -1.1104 6.2091 4.73751 20.6894
548 1 -1.1104 0.60943 1.68796 23.5178
552 1 -1.1104 0.805084 1.72382 26.2733
558 2 2.2208 4.99257 3.17518 24.9274
562 1 -1.1104 3.73051 1.74949 23.476
565 1 -1.1104 3.56953 1.75604 26.4271
567 2 2.2208 2.00464 3.01106 22.0379
611 2 2.2208 4.89218 6.1289 22.0907
613 1 -1.1104 0.6651 7.24812 23.3728
617 1 -1.1104 0.73632 4.50437 23.531
622 1 -1.1104 0.959978 4.27093 26.2266
626 1 -1.1104 3.36691 7.47894 23.4327
627 2 2.2208 2.15899 5.8541 24.6842
629 1 -1.1104 3.59007 7.33268 25.9852
631 1 -1.1104 3.44997 4.23107 23.5323
633 1 -1.1104 3.62907 4.73224 26.1799
616 1 -1.1104 6.4057 7.43128 26.1444
624 1 -1.1104 6.27729 4.74324 26.3123
615 1 -1.1104 0.946574 7.32316 25.8951
550 1 -1.1104 6.48725 1.57646 23.4574
554 1 -1.1104 6.35712 1.99758 26.2869
614 1 -1.1104 6.15756 7.5843 23.288
426 1 -1.1104 6.40738 7.58414 20.5771
619 1 -1.1104 6.36504 4.38372 23.3348
378 2 2.2208 13.3599 3.06693 22.2228
718 2 2.2208 13.4623 20.0619 22.1489
392 1 -1.1104 11.8303 1.86265 20.7047
459 1 -1.1104 11.9597 7.19523 20.4671
476 1 -1.1104 9.28018 4.77278 20.4197
584 1 -1.1104 11.9548 1.86916 23.6521
586 1 -1.1104 12.0887 1.74635 26.2116
589 2 2.2208 10.4592 3.23361 24.8378
592 1 -1.1104 9.10266 1.6995 23.5325
595 1 -1.1104 9.2084 1.90709 26.2028
597 2 2.2208 7.78566 2.9629 22.0834
643 1 -1.1104 9.18316 4.51074 26.4371
645 1 -1.1104 9.11897 4.51553 23.3028
647 1 -1.1104 9.11677 7.44168 26.3778
649 2 2.2208 7.54099 5.87019 24.8101
650 2 2.2208 10.6078 5.93496 22.1386
652 1 -1.1104 12.0006 7.44641 23.6906
653 1 -1.1104 12.2451 7.16612 26.7329
654 1 -1.1104 11.9872 4.60865 23.6083
657 1 -1.1104 11.9666 4.75798 26.3452
659 1 -1.1104 9.10878 7.48766 23.6388
691 2 2.2208 1.88612 14.4803 27.7178
488 1 -1.1104 0.725113 12.8903 20.7425
451 1 -1.1104 3.69361 10.1524 20.5523
435 1 -1.1104 0.884767 10.1172 20.4228
507 1 -1.1104 3.45066 13.1544 20.7636
683 1 -1.1104 3.36961 12.9371 26.4631
672 1 -1.1104 0.686323 13.0185 26.4384
612 2 2.2208 4.88722 11.6859 21.9534
618 1 -1.1104 0.84276 10.2818 23.4385
621 2 2.2208 4.88948 9.01671 24.8679
623 1 -1.1104 0.586203 10.0664 26.1346
628 2 2.2208 2.12561 11.6942 24.897
630 2 2.2208 2.20289 8.80603 21.9059
632 1 -1.1104 3.48611 10.284 23.3488
634 1 -1.1104 3.55807 10.2008 26.2041
668 1 -1.1104 3.49923 13.0861 23.4707
678 1 -1.1104 0.629878 13.0209 23.6432
667 1 -1.1104 6.10576 12.985 26.2605
620 1 -1.1104 6.4789 10.474 23.4674
439 1 -1.1104 6.36528 10.1271 20.6776
676 1 -1.1104 6.41851 13.1106 23.4682
625 1 -1.1104 6.36014 10.1529 26.236
663 2 2.2208 13.32 11.5641 24.9953
377 2 2.2208 13.1698 8.75084 21.9867
478 1 -1.1104 9.2523 10.1962 20.8537
522 1 -1.1104 12.143 13.0352 20.5221
534 1 -1.1104 9.16126 13.0485 20.8473
713 1 -1.1104 11.7983 13.2044 23.4065
711 1 -1.1104 12.2256 13.0141 26.355
705 1 -1.1104 9.18419 13.1844 23.8517
701 1 -1.1104 9.05159 12.9137 26.5661
642 1 -1.1104 9.223 10.1589 26.1648
644 1 -1.1104 9.59951 10.5234 23.456
646 2 2.2208 7.73896 8.85784 22.1309
648 2 2.2208 7.91901 11.7433 24.852
651 2 2.2208 10.9263 11.6649 22.015
655 1 -1.1104 12.171 10.3478 23.5436
656 2 2.2208 10.615 8.69462 25.0616
658 1 -1.1104 12.0111 10.041 26.3954
702 1 -1.1104 6.33881 18.6384 26.4211
500 1 -1.1104 0.513642 15.674 20.6223
572 2 2.2208 2.23141 3.14044 27.6516
382 2 2.2208 13.2376 8.82483 16.5088
673 1 -1.1104 6.36648 18.6727 23.4732
490 1 -1.1104 0.499021 18.388 20.5602
688 2 2.2208 1.93261 14.4466 22.1572
687 2 2.2208 2.15681 20.2256 22.3117
686 1 -1.1104 3.60615 15.755 23.6199
685 1 -1.1104 0.307156 15.9274 23.3759
677 1 -1.1104 0.748868 18.3645 23.4559
682 1 -1.1104 3.43891 15.7461 26.1762
675 2 2.2208 4.86665 14.3561 24.8569
674 2 2.2208 4.88326 19.9835 25.0212
681 2 2.2208 2.08435 17.1555 25.0253
679 2 2.2208 4.8713 17.2144 22.3706
680 1 -1.1104 3.61972 18.633 26.6017
671 1 -1.1104 0.393784 15.9112 26.2884
670 1 -1.1104 0.479049 18.6152 26.3065
666 1 -1.1104 3.43778 18.7151 23.7385
684 1 -1.1104 6.54448 15.8537 23.7003
699 2 2.2208 7.92686 14.4299 22.1648
719 2 2.2208 13.3039 17.42 24.839
712 1 -1.1104 11.9087 18.6362 23.4662
703 2 2.2208 7.62861 17.0892 25.1121
544 2 2.2208 13.4621 0.41746 19.4206
696 1 -1.1104 9.03208 15.7724 26.5317
697 1 -1.1104 9.50265 15.8499 23.6836
669 1 -1.1104 6.35157 15.9101 26.4868
714 2 2.2208 10.6357 17.2732 22.1857
9092 2 2.2208 10.7677 -5.146 22.2687
717 2 2.2208 7.68328 14.2835 27.7385
9162 2 2.2208 7.77301 -5.13935 19.4725
340 2 2.2208 10.4581 17.3591 27.6685
339 2 2.2208 7.74624 20.0841 27.6594
384 2 2.2208 2.13882 0.363464 13.7269
479 2 2.2208 7.82222 5.89595 13.7109
9130 2 2.2208 5.13445 -5.31862 27.7513
635 2 2.2208 4.94603 6.0862 27.607
417 2 2.2208 10.6245 -2.30817 13.7636
335 2 2.2208 4.97889 19.9578 13.7312
453 2 2.2208 4.98394 8.66497 13.7438
607 2 2.2208 13.4446 -2.52185 27.6896
336 2 2.2208 10.4388 19.9803 13.7666
9198 2 2.2208 13.6323 -5.32626 19.2505
341 2 2.2208 13.1485 20.1398 27.7096
600 2 2.2208 10.8688 0.308743 27.7369
454 2 2.2208 2.13658 11.7834 13.7708
383 2 2.2208 4.97727 -2.43618 13.7116
9093 2 2.2208 10.713 -5.2152 27.7655
721 2 2.2208 4.75967 22.6798 5.30489
723 1 -1.1104 0.588513 24.2668 1.19985
724 1 -1.1104 0.803344 24.6757 3.83888
725 1 -1.1104 0.724777 21.5554 1.08006
727 2 2.2208 4.67879 25.4736 2.31509
728 1 -1.1104 0.781563 21.7512 4.03294
730 1 -1.1104 3.24353 23.9977 0.817935
731 2 2.2208 2.18273 22.9663 2.39295
733 1 -1.1104 3.34969 24.1803 3.84788
734 2 2.2208 2.14673 25.9052 5.19534
735 1 -1.1104 3.52528 21.3262 1.06457
737 1 -1.1104 3.46466 21.4047 3.93166
744 1 -1.1104 6.14686 21.4623 0.761086
738 1 -1.1104 3.55035 27.1522 3.93445
742 1 -1.1104 6.02983 24.5535 0.808086
746 1 -1.1104 6.63106 21.17 3.6381
729 1 -1.1104 0.581539 27.3535 3.78406
726 1 -1.1104 0.513005 27.1227 0.992748
743 1 -1.1104 6.16336 24.0639 3.65282
865 1 -1.1104 0.597577 27.1704 6.59082
745 1 -1.1104 6.36904 27.056 1.20861
867 1 -1.1104 6.50957 26.9183 6.64711
870 1 -1.1104 3.55759 27.1503 6.61664
868 1 -1.1104 3.65321 24.1486 6.55706
863 1 -1.1104 6.33028 23.8807 6.44099
862 1 -1.1104 0.831594 24.1989 6.71008
861 2 2.2208 13.3389 39.6389 2.27141
1074 2 2.2208 7.86986 39.6932 13.6499
748 2 2.2208 10.542 22.7583 5.08798
750 1 -1.1104 12.0724 24.4124 1.04523
751 1 -1.1104 11.8959 24.4483 3.63558
752 1 -1.1104 11.8849 21.6122 0.943889
754 2 2.2208 10.524 25.8465 2.27925
755 1 -1.1104 11.952 21.5719 3.71927
757 1 -1.1104 9.14493 24.4305 0.918092
758 2 2.2208 7.71929 22.7971 2.56115
760 1 -1.1104 9.29343 24.3772 3.73225
761 2 2.2208 7.81686 25.6021 4.94005
762 1 -1.1104 9.05442 21.6594 0.8411
764 1 -1.1104 9.1828 21.5153 3.65463
765 1 -1.1104 9.12438 27.072 3.86048
898 1 -1.1104 8.95379 24.1088 6.32151
895 1 -1.1104 11.9669 24.0377 6.598
900 1 -1.1104 9.45421 26.9453 6.29122
766 2 2.2208 13.1896 22.8981 2.31463
768 2 2.2208 13.2499 25.6289 5.22086
1060 2 2.2208 5.03588 25.7792 13.5617
1023 1 -1.1104 9.08014 41.2322 6.45695
736 1 -1.1104 3.46993 27.1174 1.07686
747 1 -1.1104 6.18442 26.7931 3.75937
722 2 2.2208 4.76597 28.4384 5.32
732 2 2.2208 2.07495 28.5351 2.3436
770 1 -1.1104 0.601494 29.989 1.15671
773 1 -1.1104 0.829595 30.0293 3.93213
776 1 -1.1104 0.62511 32.6576 1.02668
777 2 2.2208 4.9238 31.3704 2.46187
779 1 -1.1104 0.656972 32.7283 3.8383
781 1 -1.1104 3.32252 29.9338 0.864892
784 1 -1.1104 3.53473 29.7373 3.81613
786 2 2.2208 2.07945 31.3358 5.23713
788 1 -1.1104 3.44449 32.7726 1.04874
789 1 -1.1104 3.58688 32.676 3.70012
793 1 -1.1104 6.30203 29.9363 1.06664
795 1 -1.1104 6.35731 32.5536 1.03976
917 1 -1.1104 6.26138 29.861 6.66347
780 1 -1.1104 6.46052 32.7059 3.76194
915 1 -1.1104 0.727867 30.1103 6.59187
794 1 -1.1104 6.48472 29.7763 3.95859
920 1 -1.1104 6.58589 32.7606 6.65594
919 1 -1.1104 0.971218 32.9275 6.42085
923 1 -1.1104 3.53014 32.6219 6.62778
763 1 -1.1104 9.24031 27.0712 0.997469
753 1 -1.1104 11.9789 27.1129 0.760898
756 1 -1.1104 12.1551 26.9138 3.8464
749 2 2.2208 10.5607 28.4579 5.26248
759 2 2.2208 7.66606 28.4872 2.48464
797 1 -1.1104 11.9756 29.8713 1.05658
799 1 -1.1104 12.0919 29.7635 3.95414
801 1 -1.1104 12.0837 32.6567 0.907439
802 2 2.2208 10.4915 31.3554 2.29392
804 1 -1.1104 11.9607 32.57 3.6137
805 1 -1.1104 9.29906 29.901 1.07316
808 1 -1.1104 9.22991 30.0345 3.7939
810 2 2.2208 7.79817 31.2151 5.33051
812 1 -1.1104 9.24178 32.6699 1.05715
813 1 -1.1104 9.0915 32.7768 3.95875
952 1 -1.1104 9.31032 29.7902 6.66331
954 1 -1.1104 9.01739 32.6566 6.57995
951 1 -1.1104 11.8713 32.7238 6.62703
1032 2 2.2208 13.467 31.2366 5.25085
767 2 2.2208 13.2584 28.5311 2.41618
769 2 2.2208 5.02254 33.9249 5.1819
771 1 -1.1104 0.720425 35.4013 0.918357
774 1 -1.1104 0.726144 35.5094 3.76671
778 2 2.2208 4.97743 37.0005 2.57807