ITEM: TIMESTEP
20000
ITEM: NUMBER OF ATOMS
17704
ITEM: BOX BOUNDS pp pp pp
-4.4540720783182719e-01 2.7785407207831764e+01
-5.2030803850019840e+00 3.3328308038500245e+02
-4.5374874244360097e-01 2.7793748742443508e+01
ITEM: ATOMS id type q x y z
1 2 2.2208 5.37325 0.377638 5.2179
2 1 -1.1104 0.971128 -3.67623 1.26733
6 1 -1.1104 1.10338 -3.75968 3.89023
10 1 -1.1104 1.09754 -1.05365 0.991799
12 2 2.2208 5.38059 -2.56534 2.528
14 1 -1.1104 0.951094 -0.9586 3.60203
16 1 -1.1104 3.84244 -3.55646 1.03235
18 2 2.2208 2.49636 0.276365 2.46808
19 1 -1.1104 3.94523 -3.75089 3.91959
21 2 2.2208 2.46881 -2.31465 5.19595
23 1 -1.1104 4.17971 -1.01535 1.03494
24 1 -1.1104 3.69045 -0.783521 4.13932
25 2 2.2208 -0.363491 -2.30281 2.32965
26 2 2.2208 -0.408732 0.489431 5.26743
170 1 -1.1104 0.970804 -1.05866 6.35661
600 2 2.2208 11.2029 0.601702 -0.379602
480 2 2.2208 10.9403 8.95386 13.5429
174 1 -1.1104 3.6396 -1.29606 6.97722
200 2 2.2208 -0.277725 -2.37199 8.00048
11 1 -1.1104 6.93551 -1.00013 1.12575
4 1 -1.1104 6.8996 -3.77403 0.941001
15 1 -1.1104 6.61587 -1.09401 3.81342
8 1 -1.1104 6.68206 -3.68149 3.62444
31 2 2.2208 10.9253 0.493529 5.10708
32 1 -1.1104 12.3848 -3.6069 0.971198
34 1 -1.1104 12.3985 -3.86272 3.68525
36 1 -1.1104 12.1808 -0.898184 0.880097
37 2 2.2208 10.9589 -2.32737 2.45155
39 1 -1.1104 12.4042 -1.05624 3.69617
40 1 -1.1104 9.65478 -3.90377 1.0011
42 2 2.2208 8.28926 0.555614 2.42077
43 1 -1.1104 9.37374 -3.66451 3.80414
45 2 2.2208 8.23636 -2.35102 5.23981
47 1 -1.1104 9.55481 -0.790625 0.980597
48 1 -1.1104 9.71991 -1.03908 3.78941
207 1 -1.1104 12.4471 -0.935007 6.3862
29 2 2.2208 -0.253015 5.96769 11.0054
168 1 -1.1104 6.77132 -3.95674 6.65294
9004 2 2.2208 8.28146 -5.06611 2.41
205 1 -1.1104 12.6604 -3.71063 6.66727
229 2 2.2208 13.6796 0.430747 7.96632
51 2 2.2208 -0.498177 11.584 10.6769
660 2 2.2208 10.9994 5.97261 -0.415568
3 1 -1.1104 1.18265 1.91105 1.26504
7 1 -1.1104 0.9982 1.80218 4.03445
13 2 2.2208 5.36689 3.1718 2.52785
17 1 -1.1104 3.94785 1.71905 1.19419
20 1 -1.1104 4.01776 1.99471 3.87345
22 2 2.2208 2.41659 3.10853 5.36874
54 2 2.2208 5.58234 5.91976 5.28922
58 1 -1.1104 1.09513 7.60869 3.65143
60 1 -1.1104 1.13625 4.56019 1.29928
67 1 -1.1104 1.26538 4.75033 4.19676
72 2 2.2208 2.4136 6.01822 2.57439
76 1 -1.1104 3.86945 4.49301 0.856388
79 1 -1.1104 4.11762 4.74811 3.80824
71 1 -1.1104 3.73008 7.41246 1.17145
74 1 -1.1104 4.10884 7.41708 3.93686
27 2 2.2208 -0.409301 2.96647 2.55406
173 1 -1.1104 3.9232 1.41351 6.56687
56 1 -1.1104 1.00438 7.5223 0.787197
325 2 2.2208 10.9819 14.3489 7.922
337 2 2.2208 8.05972 17.2238 13.5468
238 1 -1.1104 3.93908 7.27933 6.49229
63 1 -1.1104 6.75902 4.7657 1.07236
9 1 -1.1104 6.77941 1.91164 3.81892
5 1 -1.1104 6.81987 1.91467 1.05253
57 1 -1.1104 6.53758 7.41126 0.927376
69 1 -1.1104 6.91394 4.43467 3.68228
33 1 -1.1104 12.3597 1.75197 1.14907
35 1 -1.1104 12.2641 1.87404 3.80478
38 2 2.2208 10.9933 3.32156 2.42557
41 1 -1.1104 9.62514 1.96387 1.06242
44 1 -1.1104 9.47815 1.81081 3.66166
46 2 2.2208 8.28404 3.20889 5.17892
84 2 2.2208 10.9797 6.12119 5.29622
86 1 -1.1104 12.2968 7.49074 0.960709
87 1 -1.1104 12.3597 7.38882 3.77987
88 1 -1.1104 12.4655 4.56789 0.965622
92 1 -1.1104 12.43 4.73708 3.75082
94 1 -1.1104 9.35711 7.36927 0.952164
95 2 2.2208 8.07435 6.10751 2.43098
97 1 -1.1104 9.4268 7.4922 3.76136
99 1 -1.1104 9.50533 4.64343 1.08434
102 1 -1.1104 9.55894 4.68445 3.82744
59 1 -1.1104 6.82864 7.27547 3.94215
265 1 -1.1104 12.4275 7.63871 6.55302
235 1 -1.1104 6.61327 7.48563 6.60627
169 1 -1.1104 6.73244 1.75198 6.63401
209 1 -1.1104 9.61836 1.88005 6.38937
237 1 -1.1104 6.67339 4.50813 6.78377
315 1 -1.1104 9.42402 15.8982 12.0684
55 2 2.2208 5.31246 11.5699 4.95399
61 1 -1.1104 0.913398 10.4327 1.04136
66 2 2.2208 5.32365 8.6759 2.49133
68 1 -1.1104 0.970768 10.2189 3.8877
73 2 2.2208 2.36566 11.4678 2.2689
75 2 2.2208 2.69645 8.63931 5.17746
77 1 -1.1104 3.91692 10.1013 0.993825
80 1 -1.1104 3.70988 10.1775 3.80736
107 1 -1.1104 1.27257 13.1525 1.09246
113 1 -1.1104 0.942186 13.1501 3.93414
123 1 -1.1104 3.92246 12.9466 0.849859
128 1 -1.1104 3.67164 12.9341 3.74023
578 2 2.2208 -0.169249 0.546917 -0.403043
204 2 2.2208 13.6363 14.4367 5.05698
543 2 2.2208 10.9074 14.4861 13.4646
108 1 -1.1104 0.934744 13.2532 6.4802
78 1 -1.1104 3.90335 10.2205 6.49231
124 1 -1.1104 3.90822 13.046 6.46831
65 1 -1.1104 6.81278 10.331 6.49268
163 1 -1.1104 9.55665 15.8367 6.3992
64 1 -1.1104 6.76504 10.221 1.18273
110 1 -1.1104 6.69312 12.9317 0.579687
115 1 -1.1104 6.52879 13.0878 3.68122
70 1 -1.1104 6.69646 10.0679 3.7845
85 2 2.2208 10.9071 11.7187 4.96036
89 1 -1.1104 12.2063 10.1525 0.995192
91 2 2.2208 10.9078 8.77247 2.40325
93 1 -1.1104 12.4546 10.3858 3.73602
96 2 2.2208 8.10021 11.7372 2.26042
98 2 2.2208 8.09671 8.73259 5.26852
100 1 -1.1104 9.53056 10.4111 0.671387
103 1 -1.1104 9.54254 10.242 3.42599
142 1 -1.1104 12.2566 12.9963 0.689031
146 1 -1.1104 12.0948 13.0586 3.50585
153 1 -1.1104 9.49338 13.2034 0.955252
158 1 -1.1104 9.42146 13.1003 3.72258
111 1 -1.1104 6.79432 13.2258 6.48181
154 1 -1.1104 9.649 12.9634 6.46714
601 2 2.2208 8.27814 -2.45801 -0.383734
136 2 2.2208 -0.484027 19.9279 1.99806
119 2 2.2208 5.25171 14.4161 2.15445
106 2 2.2208 5.27441 17.1788 5.07493
109 1 -1.1104 1.07937 18.5499 0.806245
114 1 -1.1104 1.17011 18.7475 3.53684
116 1 -1.1104 0.904017 15.9611 0.879202
120 2 2.2208 5.2081 19.9914 2.56645
121 1 -1.1104 1.03848 16.0386 3.6232
125 1 -1.1104 4.11642 18.5222 0.920455
127 2 2.2208 2.5744 17.1837 2.14025
129 1 -1.1104 3.96601 18.335 3.5241
130 2 2.2208 2.5007 14.6435 5.09262
131 2 2.2208 2.17119 20.0855 5.0888
132 1 -1.1104 4.00333 15.7108 0.73137
134 1 -1.1104 4.00995 15.7491 3.68929
418 2 2.2208 11.0378 3.34709 13.6263
199 2 2.2208 -0.20319 3.28696 8.28636
117 1 -1.1104 1.16387 16.1448 6.20794
302 1 -1.1104 0.5805 18.8939 6.36472
9132 2 2.2208 -0.291109 -5.0813 -0.32121
336 2 2.2208 10.6824 20.107 13.432
138 1 -1.1104 6.8508 18.5528 0.617643
139 1 -1.1104 6.62824 18.5808 3.6457
122 1 -1.1104 6.73483 15.9868 3.7174
140 1 -1.1104 6.76035 15.7751 0.829682
141 2 2.2208 10.9239 17.3988 4.98234
144 1 -1.1104 12.3148 18.6219 0.961331
147 1 -1.1104 12.277 18.8069 3.68667
148 1 -1.1104 12.5145 15.8882 0.808479
150 2 2.2208 10.9451 14.3929 1.95131
151 2 2.2208 10.8086 20.0274 2.022
152 1 -1.1104 12.4741 15.9189 3.50957
155 1 -1.1104 9.63849 18.6481 0.662813
157 2 2.2208 8.0543 17.3261 2.17636
159 1 -1.1104 9.55321 18.6653 3.48545
160 2 2.2208 8.19141 14.5879 5.09868
161 2 2.2208 8.11032 19.9584 4.93759
162 1 -1.1104 9.5882 16.0473 0.621212
164 1 -1.1104 9.45762 15.8973 3.59179
156 1 -1.1104 9.48593 18.7214 6.43499
118 1 -1.1104 6.75389 15.998 6.60926
112 1 -1.1104 6.57442 18.7926 6.47236
9005 2 2.2208 10.9396 -5.23922 5.45064
149 1 -1.1104 12.4171 15.8584 6.27779
314 1 -1.1104 9.63382 16.0393 9.18577
570 2 2.2208 5.49897 0.440199 -0.400232
166 1 -1.1104 1.32475 -3.85087 6.77616
30 2 2.2208 -0.346593 8.842 8.02751
321 1 -1.1104 9.58856 18.4434 12.1252
172 1 -1.1104 4.09886 -3.76263 6.58974
175 2 2.2208 5.35864 0.493554 11.0244
176 1 -1.1104 1.21959 -3.78825 12.2568
180 1 -1.1104 0.997745 -3.7348 9.54379
184 1 -1.1104 1.19377 -0.968921 12.3842
186 2 2.2208 5.26368 -2.06301 8.11562
188 1 -1.1104 1.10152 -1.03829 9.398
190 1 -1.1104 3.86105 -3.88772 12.3773
192 2 2.2208 2.48938 0.400964 8.25938
193 1 -1.1104 3.80597 -3.68691 9.42504
195 2 2.2208 2.46025 -2.56087 10.9595
197 1 -1.1104 3.84072 -0.9723 12.2505
198 1 -1.1104 3.81825 -0.939848 9.54548
201 2 2.2208 -0.363639 0.298527 10.949
312 2 2.2208 -0.327679 17.3492 10.9659
208 1 -1.1104 9.71319 -3.70023 6.51273
329 1 -1.1104 12.3888 18.7311 12.1911
313 2 2.2208 -0.488883 14.2862 8.01803
210 1 -1.1104 9.44695 -0.850953 6.62776
171 1 -1.1104 6.57052 -0.96048 6.73483
189 1 -1.1104 6.6999 -0.598528 9.36372
182 1 -1.1104 6.66032 -3.51038 9.54066
185 1 -1.1104 6.7022 -0.991784 12.4122
178 1 -1.1104 6.73869 -3.69353 12.2122
211 2 2.2208 10.8198 0.512558 10.7479
212 1 -1.1104 12.5213 -3.89809 12.217
214 1 -1.1104 12.1957 -3.82661 9.52027
216 1 -1.1104 12.2247 -1.1723 12.1415
217 2 2.2208 11.0044 -2.43239 8.12908
219 1 -1.1104 12.3272 -1.01752 9.25131
220 1 -1.1104 9.55372 -3.49714 12.5226
222 2 2.2208 8.19218 0.586099 8.07277
223 1 -1.1104 9.46866 -3.62481 9.37472
225 2 2.2208 8.19422 -2.32766 10.9273
227 1 -1.1104 9.26306 -0.764529 12.102
228 1 -1.1104 9.45504 -0.78769 9.52686
239 1 -1.1104 3.55369 4.32283 6.86276
167 1 -1.1104 1.16783 1.78488 6.87364
236 1 -1.1104 0.859688 4.68563 6.78085
572 2 2.2208 2.56297 3.10314 -0.288707
9010 2 2.2208 8.0771 -5.16901 8.05165
234 1 -1.1104 1.24296 7.33807 6.74548
177 1 -1.1104 0.921166 1.72731 12.4839
181 1 -1.1104 1.26704 1.91638 9.59421
187 2 2.2208 5.2064 2.91947 7.97931
191 1 -1.1104 3.83986 1.82753 12.5666
194 1 -1.1104 4.05975 1.95439 9.64993
196 2 2.2208 2.49398 3.31715 11.0261
240 2 2.2208 5.23566 6.13352 10.8303
242 1 -1.1104 1.10367 7.57008 12.4237
244 1 -1.1104 1.12807 7.55207 9.52325
246 1 -1.1104 1.093 4.73224 12.277
251 1 -1.1104 1.31378 4.65412 9.43178
255 1 -1.1104 3.90419 7.64514 12.1226
256 2 2.2208 2.51688 5.91745 8.14537
258 1 -1.1104 3.80463 7.32353 9.50462
260 1 -1.1104 3.79209 4.78118 12.2063
262 1 -1.1104 4.11499 4.64579 9.59952
267 1 -1.1104 9.48877 7.3825 6.58092
266 1 -1.1104 12.3222 4.60889 6.40404
206 1 -1.1104 12.3816 1.84341 6.63483
183 1 -1.1104 6.73603 2.02858 9.34429
179 1 -1.1104 6.92538 1.80248 12.1356
253 1 -1.1104 6.93266 4.85879 9.644
269 1 -1.1104 9.52797 4.62593 6.68111
243 1 -1.1104 6.83618 7.42941 12.0821
245 1 -1.1104 6.5589 7.52556 9.32711
248 1 -1.1104 6.7643 4.56134 12.3275
213 1 -1.1104 12.5993 1.8903 12.0176
215 1 -1.1104 12.3636 1.7739 9.33938
218 2 2.2208 11.038 3.31717 8.00813
221 1 -1.1104 9.64351 2.11629 12.3038
224 1 -1.1104 9.534 2.02639 9.19876
226 2 2.2208 8.22372 3.33123 10.8407
268 1 -1.1104 9.77247 4.91721 9.45849
271 1 -1.1104 9.57843 4.86039 12.3158
273 1 -1.1104 9.64668 7.59689 9.50158
275 2 2.2208 8.21231 6.02009 8.17366
276 2 2.2208 11.0709 6.25084 10.8775
279 1 -1.1104 12.5104 7.78943 9.41085
280 1 -1.1104 12.482 4.69354 12.1113
283 1 -1.1104 12.5825 5.02191 9.46483
285 1 -1.1104 9.46908 7.68601 12.4461
278 1 -1.1104 12.5557 7.56003 12.1306
9008 2 2.2208 5.2914 -4.9758 10.8804
82 2 2.2208 -0.387811 8.81151 2.47389
137 2 2.2208 -0.320939 17.2388 5.019
62 1 -1.1104 1.05974 10.4144 6.75403
165 2 2.2208 13.8128 17.4248 2.36768
241 2 2.2208 5.17359 11.7876 10.8207
247 1 -1.1104 0.905075 10.5326 12.2553
250 2 2.2208 5.36198 9.00476 7.90099
252 1 -1.1104 1.24915 10.4031 9.57478
257 2 2.2208 2.61425 11.8149 7.87345
259 2 2.2208 2.57257 8.94045 10.7486
261 1 -1.1104 3.68529 10.3461 12.2194
263 1 -1.1104 3.94347 10.6625 9.18781
287 1 -1.1104 3.8524 13.1903 12.2703
294 1 -1.1104 0.960748 12.9205 9.20462
299 1 -1.1104 0.797321 13.1854 12.1384
305 1 -1.1104 3.65458 13.2718 9.36926
143 1 -1.1104 12.4 13.0779 6.58781
90 1 -1.1104 12.4923 10.5225 6.47717
101 1 -1.1104 9.59934 10.2596 6.32081
249 1 -1.1104 6.32585 10.2642 12.0794
290 1 -1.1104 6.54666 13.0655 9.40359
254 1 -1.1104 6.68026 10.3168 9.23501
297 1 -1.1104 6.50966 13.0597 12.2621
330 1 -1.1104 12.312 12.9507 12.2744
328 1 -1.1104 12.0476 13.174 9.44946
322 1 -1.1104 9.60006 13.0487 12.0845
319 1 -1.1104 9.20306 13.1798 9.14747
264 1 -1.1104 9.35718 10.3261 9.24959
270 1 -1.1104 9.52691 10.3101 12.2567
272 2 2.2208 8.03657 9.04089 10.8289
274 2 2.2208 8.08849 11.6583 7.79291
277 2 2.2208 10.8644 11.5609 10.7273
281 1 -1.1104 12.3533 10.1268 12.0611
282 2 2.2208 10.9197 9.00644 7.82822
284 1 -1.1104 12.3078 10.6775 9.38317
296 1 -1.1104 6.63201 18.6561 12.1104
317 2 2.2208 7.95233 14.2873 10.6967
133 1 -1.1104 3.82618 15.734 6.52132
571 2 2.2208 2.51121 -2.32837 -0.381231
452 2 2.2208 2.41478 6.14595 13.7166
135 2 2.2208 -0.30007 14.3935 2.43831
126 1 -1.1104 3.73296 18.4647 6.20778
310 2 2.2208 2.36779 14.622 10.713
307 1 -1.1104 0.949314 15.8633 12.2555
309 2 2.2208 2.58462 20.1612 11.0492
308 1 -1.1104 3.64208 16.0386 12.2773
286 1 -1.1104 3.85642 18.547 12.2354
291 1 -1.1104 1.05419 18.587 9.22412
292 1 -1.1104 1.11177 15.7419 9.0328
293 2 2.2208 5.17078 20.0631 7.75025
295 2 2.2208 5.28631 14.4227 7.99451
298 1 -1.1104 0.98693 18.7638 12.2053
300 2 2.2208 5.28584 17.169 10.8012
301 1 -1.1104 3.84459 18.9542 9.1981
303 2 2.2208 2.3384 17.4347 7.80768
304 1 -1.1104 3.86493 15.9409 9.53628
331 2 2.2208 10.9792 17.1545 10.6961
289 1 -1.1104 6.83085 15.8761 9.49102
320 2 2.2208 7.96138 17.2693 7.96786
316 2 2.2208 7.92077 20.0601 10.7812
323 1 -1.1104 12.3796 15.7422 9.44485
306 1 -1.1104 6.60299 15.7787 12.2974
327 1 -1.1104 12.1957 18.4081 9.20283
145 1 -1.1104 12.3192 18.7579 6.43624
288 1 -1.1104 6.61531 18.7697 9.40942
326 1 -1.1104 12.3446 15.8923 12.2075
324 2 2.2208 10.8389 20.0107 7.93615
318 1 -1.1104 9.34204 18.6109 9.33826
83 2 2.2208 -0.367662 11.5548 5.28333
81 2 2.2208 -0.377678 6.04339 5.41203
575 2 2.2208 -0.189171 9.03037 13.7168
479 2 2.2208 7.99619 6.06994 13.6411
661 2 2.2208 8.13675 8.69509 -0.290641
454 2 2.2208 2.36354 12.0582 13.5467
635 2 2.2208 5.25175 5.91029 -0.30614
104 2 2.2208 13.552 11.672 2.12535
105 2 2.2208 13.6762 6.04093 2.3861
607 2 2.2208 13.6618 -2.14841 -0.135326
689 2 2.2208 2.60418 20.0573 -0.295161
343 2 2.2208 5.21882 0.380271 16.6242
344 1 -1.1104 1.34605 -4.05313 18.0789
348 1 -1.1104 1.29567 -3.90077 15.2715
356 1 -1.1104 1.17558 -0.896557 18.0479
358 2 2.2208 5.47798 -2.42986 19.6046
360 1 -1.1104 1.22142 -1.11832 15.3005
364 1 -1.1104 4.04253 -3.94516 18.0999
366 2 2.2208 2.37651 0.506911 19.3744
367 1 -1.1104 3.89739 -3.69204 15.2467
371 2 2.2208 2.64735 -2.36674 16.7775
373 1 -1.1104 4.06723 -0.925858 18.1857
374 1 -1.1104 3.90382 -0.777488 15.146
662 2 2.2208 10.885 11.7564 27.4478
379 2 2.2208 -0.45715 0.399403 16.5998
673 1 -1.1104 6.51991 18.8874 23.3473
698 2 2.2208 8.13488 19.9902 22.0369
710 1 -1.1104 12.3106 18.8748 26.2507
639 2 2.2208 -0.311947 8.86319 24.7846
412 2 2.2208 -0.432556 14.3362 19.3645
346 1 -1.1104 6.85944 -3.75849 17.9547
362 1 -1.1104 6.60237 -0.724824 15.2834
357 1 -1.1104 6.92785 -0.970898 18.0233
352 1 -1.1104 6.78206 -3.68979 15.1507
386 2 2.2208 10.8694 0.518463 16.4376
387 1 -1.1104 12.3981 -3.57811 17.9498
389 1 -1.1104 12.7801 -3.76755 15.1411
393 1 -1.1104 12.4793 -0.704839 17.8248
394 2 2.2208 11.1245 -2.12962 19.2444
396 1 -1.1104 11.9584 -1.01192 15.2193
398 1 -1.1104 9.60346 -3.63699 17.8368
400 2 2.2208 8.16098 0.303019 19.3066
401 1 -1.1104 9.84846 -3.75614 15.1092
405 2 2.2208 8.10196 -2.26758 16.5623
407 1 -1.1104 9.63457 -0.909107 17.9371
408 1 -1.1104 9.26321 -0.902634 15.1012
397 1 -1.1104 12.5822 -0.814451 20.9455
385 2 2.2208 5.23945 3.35448 13.6391
353 1 -1.1104 7.03173 -3.63301 20.7642
700 1 -1.1104 9.50574 18.8092 26.0978
390 1 -1.1104 12.5559 -3.429 20.5094
363 1 -1.1104 6.80273 -0.977611 20.8343
706 1 -1.1104 12.4944 16.0943 26.1458
9162 2 2.2208 8.2368 -5.11541 19.385
345 1 -1.1104 1.10575 1.74949 18.0577
350 1 -1.1104 0.934129 1.65548 15.2757
359 2 2.2208 5.33538 3.13946 19.5214
365 1 -1.1104 3.69612 1.78722 18.1159
369 1 -1.1104 3.88084 1.99648 15.2035
372 2 2.2208 2.39376 3.13444 16.6165
419 2 2.2208 5.248 5.82427 16.6761
421 1 -1.1104 1.18056 7.45483 17.8983
423 1 -1.1104 1.22718 7.36951 15.1492
427 1 -1.1104 1.07768 4.73732 17.9081
432 1 -1.1104 1.08488 4.40594 14.9512
441 2 2.2208 2.53519 6.15441 19.3061
443 1 -1.1104 3.94183 7.29436 15.1917
446 1 -1.1104 3.95958 4.54516 18.0445
448 1 -1.1104 3.60947 4.67522 15.1899
440 1 -1.1104 4.04081 7.53048 17.832
9201 2 2.2208 5.61414 -5.22513 16.6601
351 1 -1.1104 0.993118 1.71426 20.6648
9202 2 2.2208 -0.26806 -5.17366 16.6504
581 2 2.2208 -0.244324 3.43812 25.1977
694 2 2.2208 -0.506004 19.968 24.9534
354 1 -1.1104 6.42803 1.95097 15.1635
429 1 -1.1104 6.74271 4.65729 17.9709
425 1 -1.1104 6.62067 7.59115 14.8939
422 1 -1.1104 6.94056 7.29189 17.9674
436 1 -1.1104 6.55752 4.77886 15.0305
347 1 -1.1104 6.52109 1.84001 18.0019
388 1 -1.1104 12.3872 1.93229 17.9108
391 1 -1.1104 12.0778 1.71057 14.7568
395 2 2.2208 10.8768 3.13118 19.562
399 1 -1.1104 9.45612 1.78168 18.0549
403 1 -1.1104 9.30174 1.63437 15.2754
406 2 2.2208 8.04634 3.21994 16.61
455 2 2.2208 10.8606 5.94971 16.4953
457 1 -1.1104 12.5766 7.40102 17.6035
458 1 -1.1104 12.4603 7.42621 14.7546
460 1 -1.1104 12.4153 4.65707 17.9541
463 1 -1.1104 12.5432 4.57704 14.9376
467 1 -1.1104 9.78429 7.37466 17.87
468 2 2.2208 8.05619 5.93527 19.2562
470 1 -1.1104 9.75584 7.31137 15.1453
473 1 -1.1104 9.61894 4.51041 17.9187
475 1 -1.1104 9.63797 4.40811 15.2771
464 1 -1.1104 12.2275 4.5891 20.8603
459 1 -1.1104 12.3832 7.65517 20.5667
437 1 -1.1104 6.69878 4.42603 20.8229
404 1 -1.1104 9.80771 1.88486 21.0509
392 1 -1.1104 12.2935 1.83551 20.804
9095 2 2.2208 2.67074 -5.05804 25.1543
420 2 2.2208 5.27729 11.5829 16.5182
428 1 -1.1104 1.18931 10.38 17.9434
431 2 2.2208 5.29018 8.77292 19.408
434 1 -1.1104 1.18039 10.3492 15.1443
442 2 2.2208 2.53042 11.6151 19.281
445 2 2.2208 2.47939 8.88817 16.4722
447 1 -1.1104 4.03019 10.278 18.0375
450 1 -1.1104 3.82155 10.3199 15.1181
483 1 -1.1104 1.18005 13.2193 17.8739
487 1 -1.1104 1.17037 13.0533 15.1941
503 1 -1.1104 3.77726 13.2537 17.6929
506 1 -1.1104 3.94066 13.1392 15.1312
580 2 2.2208 -0.231328 0.604649 22.4057
9163 2 2.2208 11.1084 -5.01928 16.5977
435 1 -1.1104 1.24151 10.3227 20.7851
451 1 -1.1104 3.86112 10.3421 20.6371
488 1 -1.1104 0.92453 13.0512 20.6735
342 2 2.2208 13.694 14.6397 27.4957
707 2 2.2208 10.958 20.3158 24.8602
491 1 -1.1104 6.90558 13.0448 15.0272
438 1 -1.1104 6.82881 10.2225 14.9231
485 1 -1.1104 6.55173 12.9315 17.8066
430 1 -1.1104 6.81294 10.1778 17.8816
456 2 2.2208 10.9765 11.668 16.3117
461 1 -1.1104 12.5393 10.3234 17.6544
462 2 2.2208 11.0039 8.71914 19.2523
465 1 -1.1104 12.3058 10.5828 14.8898
469 2 2.2208 7.99922 11.663 19.1783
472 2 2.2208 8.22329 8.75487 16.4795
474 1 -1.1104 9.70541 10.2926 17.8558
477 1 -1.1104 9.58614 10.0264 15.0227
519 1 -1.1104 12.2149 13.0581 18.0629
521 1 -1.1104 12.2401 13.4077 15.2245
530 1 -1.1104 9.41435 13.1721 17.7407
533 1 -1.1104 9.45382 13.0977 14.8737
478 1 -1.1104 9.34374 10.24 20.6791
492 1 -1.1104 6.64364 13.2186 20.6896
534 1 -1.1104 9.33369 13.0701 20.5932
439 1 -1.1104 6.57221 10.4106 20.77
466 1 -1.1104 12.1954 10.4052 20.6109
497 2 2.2208 5.14521 14.4809 19.0117
640 2 2.2208 -0.311509 11.6539 22.2089
510 2 2.2208 2.34739 14.7415 16.4048
482 2 2.2208 5.12487 17.3384 16.5074
484 1 -1.1104 1.04404 19.0045 18.0298
489 1 -1.1104 1.02705 18.599 15.0852
495 1 -1.1104 1.08722 15.9705 17.9503
498 2 2.2208 5.26712 20.0222 19.4171
499 1 -1.1104 0.989911 15.8284 15.059
504 1 -1.1104 3.8525 18.7844 17.8307
505 2 2.2208 2.40333 17.5006 19.2706
508 1 -1.1104 4.01091 18.7689 15.0747
511 2 2.2208 2.35287 20.1413 16.5243
512 1 -1.1104 3.69794 15.9794 17.7156
513 1 -1.1104 3.74423 15.8213 15.017
481 2 2.2208 8.0389 11.4109 13.7183
704 1 -1.1104 9.62965 18.9325 23.4204
602 2 2.2208 8.19484 3.15711 27.8058
413 2 2.2208 -0.424013 20.2361 19.3917
490 1 -1.1104 0.929459 18.6044 20.6729
576 2 2.2208 -0.178173 5.90523 16.4897
9092 2 2.2208 11.122 -5.01021 22.1553
693 2 2.2208 -0.465092 17.1756 27.7255
501 1 -1.1104 6.80181 16.061 15.0104
486 1 -1.1104 6.65944 18.7506 17.9863
496 1 -1.1104 6.4487 15.9756 17.7051
493 1 -1.1104 6.57794 18.853 15.1866
518 2 2.2208 10.8378 17.1539 16.6586
520 1 -1.1104 12.319 18.6232 17.521
523 1 -1.1104 12.5737 20.3001 14.8248
525 1 -1.1104 11.9992 15.7795 17.9387
526 2 2.2208 10.7085 14.3041 19.334
527 2 2.2208 10.9596 20.0923 19.2135
528 1 -1.1104 12.2964 16.2154 15.0566
531 1 -1.1104 9.59834 18.7059 17.8978
532 2 2.2208 7.88283 17.3043 19.2033
535 1 -1.1104 9.17885 18.5598 15.0812
537 2 2.2208 8.10538 14.6163 16.3912
538 2 2.2208 8.09654 20.3019 16.5019
539 1 -1.1104 9.34386 15.9062 17.8039
540 1 -1.1104 9.67048 15.8899 14.9623
541 1 -1.1104 9.29606 15.9695 20.7407
9129 2 2.2208 5.57833 -5.18105 22.2308
368 1 -1.1104 4.03157 -3.98012 20.9531
375 1 -1.1104 4.11996 -1.11208 20.8884
9131 2 2.2208 -0.336596 -4.90414 22.3694
349 1 -1.1104 1.22032 -3.92487 21.1201
361 1 -1.1104 1.32671 -1.13965 20.8713
546 2 2.2208 5.3937 0.31327 22.2454
547 1 -1.1104 1.21889 -3.65116 23.7106
551 1 -1.1104 0.958367 -3.50712 26.6018
555 1 -1.1104 0.941619 -0.933347 23.7704
557 2 2.2208 5.31694 -2.40905 25.1204
559 1 -1.1104 1.30981 -0.724614 26.4399
561 1 -1.1104 4.21178 -3.68533 23.4663
563 2 2.2208 2.48038 0.511484 24.9836
564 1 -1.1104 4.1088 -3.73757 26.5706
566 2 2.2208 2.65019 -2.35574 22.2456
568 1 -1.1104 4.01403 -1.07383 23.6787
569 1 -1.1104 3.95701 -1.07096 26.5717
453 2 2.2208 5.08114 8.95429 13.7357
560 1 -1.1104 6.82704 -0.988133 26.5155
697 1 -1.1104 9.42906 15.9659 23.3283
380 2 2.2208 -0.0365701 -2.31877 19.5215
402 1 -1.1104 9.80767 -3.70436 20.9466
409 1 -1.1104 9.65563 -0.832424 20.7718
712 1 -1.1104 12.184 18.8106 23.238
556 1 -1.1104 6.74357 -1.00115 23.7181
553 1 -1.1104 6.85807 -3.84771 26.3498
549 1 -1.1104 7.09193 -3.71549 23.7156
582 2 2.2208 11.1135 0.46268 22.223
583 1 -1.1104 12.7181 -3.89218 23.4115
585 1 -1.1104 12.5702 -3.72869 26.4758
587 1 -1.1104 12.4762 -0.965372 23.5412
588 2 2.2208 11.1556 -2.30627 25.1289
590 1 -1.1104 12.6559 -1.02235 26.3274
591 1 -1.1104 9.94552 -3.80396 23.754
593 2 2.2208 8.25235 0.199689 25.0917
594 1 -1.1104 9.89621 -3.83867 26.4569
596 2 2.2208 8.33946 -2.42657 22.2164
598 1 -1.1104 9.68824 -1.07953 23.3962
599 1 -1.1104 9.77365 -0.98652 26.3773
692 2 2.2208 -0.43325 14.3473 24.9896
449 1 -1.1104 3.8525 4.64885 20.8804
424 1 -1.1104 0.887029 7.46802 20.8052
444 1 -1.1104 3.9016 7.40831 20.784
699 2 2.2208 7.92304 14.701 22.1394
433 1 -1.1104 0.921332 4.66112 20.8327
370 1 -1.1104 3.9493 1.90876 20.9183
548 1 -1.1104 1.07417 1.99256 23.5419
552 1 -1.1104 1.19214 1.8552 26.4565
558 2 2.2208 5.48845 3.37921 24.9794
562 1 -1.1104 3.93323 1.81434 23.571
565 1 -1.1104 4.14306 1.67342 26.3491
567 2 2.2208 2.36856 3.12484 22.1244
611 2 2.2208 5.43856 5.87509 22.2486
613 1 -1.1104 1.02388 7.38852 23.7107
617 1 -1.1104 0.857853 4.74046 23.7605
622 1 -1.1104 1.10837 4.67151 26.5084
626 1 -1.1104 3.92892 7.61495 23.5493
627 2 2.2208 2.51868 6.01827 25.0047
629 1 -1.1104 3.91071 7.33569 26.5817
631 1 -1.1104 3.87842 4.9882 23.6263
633 1 -1.1104 3.89476 4.23533 26.4582
615 1 -1.1104 1.31296 7.47838 26.3785
384 2 2.2208 2.32978 0.455873 13.8029
619 1 -1.1104 6.79752 4.69238 23.6063
476 1 -1.1104 9.30802 4.56562 20.6163
717 2 2.2208 8.06092 14.3951 27.6116
554 1 -1.1104 6.90469 1.78114 26.4475
471 1 -1.1104 9.49356 7.3321 20.7804
426 1 -1.1104 6.56219 7.58764 20.8232
355 1 -1.1104 6.923 1.77833 20.9053
624 1 -1.1104 6.73043 4.64053 26.476
614 1 -1.1104 6.82605 7.46361 23.5733
616 1 -1.1104 6.45172 7.31286 26.3982
550 1 -1.1104 6.67402 1.97917 23.5632
584 1 -1.1104 12.3313 1.96411 23.6168
586 1 -1.1104 12.4167 2.06605 26.3621
589 2 2.2208 10.8404 3.26379 25.0599
592 1 -1.1104 9.52356 1.77466 23.7321
595 1 -1.1104 9.72082 1.74653 26.4333
597 2 2.2208 8.24382 3.29419 22.1993
643 1 -1.1104 9.67223 4.53721 26.5883
645 1 -1.1104 9.52193 4.58189 23.613
647 1 -1.1104 9.45975 7.31141 26.4867
649 2 2.2208 8.09425 5.96052 25.088
650 2 2.2208 10.9492 6.09938 22.1235
652 1 -1.1104 12.4517 7.32582 23.419
653 1 -1.1104 12.3722 7.46687 26.3708
654 1 -1.1104 12.3509 4.67752 23.4805
657 1 -1.1104 12.2496 4.82783 26.2568
659 1 -1.1104 9.41531 7.41452 23.6681
383 2 2.2208 5.18725 -2.20378 13.7783
507 1 -1.1104 3.90866 12.975 20.5189
340 2 2.2208 10.9088 17.4356 27.5744
683 1 -1.1104 3.80317 13.3034 26.1544
672 1 -1.1104 1.07778 13.0281 26.5433
612 2 2.2208 5.30495 11.7856 21.9399
618 1 -1.1104 1.17457 10.2602 23.5443
621 2 2.2208 5.30045 8.79164 24.9226
623 1 -1.1104 1.00215 10.2296 26.3908
628 2 2.2208 2.546 11.7576 24.8547
630 2 2.2208 2.65884 9.03627 22.1279
632 1 -1.1104 3.89377 10.4127 23.4663
634 1 -1.1104 4.03881 10.3389 26.2755
668 1 -1.1104 3.94399 13.2688 23.4019
678 1 -1.1104 1.07659 13.0977 23.6472
696 1 -1.1104 9.71769 15.8776 26.351
703 2 2.2208 8.18429 17.3358 24.8758
522 1 -1.1104 12.1313 13.2643 20.7922
667 1 -1.1104 6.84049 12.8143 26.1448
676 1 -1.1104 6.83267 13.2958 23.4585
620 1 -1.1104 6.62528 10.2311 23.3454
625 1 -1.1104 6.80778 9.94554 26.3294
713 1 -1.1104 12.2362 13.1865 23.4652
711 1 -1.1104 12.1752 13.3184 26.3099
705 1 -1.1104 9.48515 13.2404 23.3721
701 1 -1.1104 9.44492 13.0467 26.3042
642 1 -1.1104 9.55983 10.0178 26.1653
644 1 -1.1104 9.52815 10.3003 23.4829
646 2 2.2208 8.14808 8.87904 22.0019
648 2 2.2208 8.17057 11.5362 24.9009
651 2 2.2208 10.939 11.8122 22.0773
655 1 -1.1104 12.4636 10.1801 23.4424
656 2 2.2208 10.9706 8.62863 24.9909
658 1 -1.1104 12.4535 10.3699 26.3303
641 2 2.2208 -0.215591 6.10261 27.9259
536 1 -1.1104 9.31947 18.7414 20.4925
524 1 -1.1104 12.4388 18.6243 20.5222
500 1 -1.1104 0.9247 15.7442 20.8323
509 1 -1.1104 3.77321 18.505 20.7822
514 1 -1.1104 3.67996 15.7551 20.7811
688 2 2.2208 2.31589 14.5025 22.2174
687 2 2.2208 2.31837 19.8853 22.1768
686 1 -1.1104 3.60285 16.0966 23.4976
685 1 -1.1104 0.878432 15.8628 23.8959
677 1 -1.1104 0.872785 18.5528 23.4049
682 1 -1.1104 4.01484 16.121 26.1779
675 2 2.2208 5.20687 14.5497 24.8813
674 2 2.2208 5.2575 20.28 24.8667
681 2 2.2208 2.32462 17.2887 24.9248
679 2 2.2208 5.21438 17.2707 22.0972
680 1 -1.1104 3.80476 19.0944 26.3092
671 1 -1.1104 0.885698 15.7032 26.6057
670 1 -1.1104 0.944414 18.4687 26.352
666 1 -1.1104 3.73931 18.6989 23.6259
669 1 -1.1104 6.87618 15.6549 25.9706
702 1 -1.1104 6.56526 18.6133 26.2691
714 2 2.2208 10.8374 17.3175 21.9701
494 1 -1.1104 6.66876 18.5063 20.6313
502 1 -1.1104 6.42603 15.9838 20.6515
529 1 -1.1104 12.3156 15.9218 20.5971
684 1 -1.1104 6.8996 16.4202 23.3155
708 2 2.2208 10.9203 14.5855 24.8126
709 1 -1.1104 12.1939 15.9921 23.5654
516 2 2.2208 -0.369212 3.00952 13.9388
691 2 2.2208 2.55976 14.4778 27.8189
9041 2 2.2208 8.12937 -5.04281 13.7224
339 2 2.2208 8.19352 20.0554 27.7858
579 2 2.2208 -0.280972 -2.12453 25.1596
334 2 2.2208 -0.195694 -2.40831 13.7334
376 2 2.2208 -0.35926 5.99787 22.1285
577 2 2.2208 -0.322652 8.73109 19.4078
416 2 2.2208 7.91895 0.487864 13.7651
515 2 2.2208 2.28277 17.3381 13.7294
603 2 2.2208 -0.215739 11.5737 16.4622
718 2 2.2208 13.6167 20.1054 22.0884
9130 2 2.2208 5.40894 -5.22068 27.8429
638 2 2.2208 -0.305599 11.6782 27.7715
517 2 2.2208 5.18037 14.5988 13.6556
9042 2 2.2208 2.44573 -5.30999 13.9241
335 2 2.2208 5.40838 20.1245 13.7162
574 2 2.2208 13.627 14.574 16.446
663 2 2.2208 13.4792 11.8878 24.9544
695 2 2.2208 -0.370154 17.1111 22.1771
720 2 2.2208 -0.321524 20.2175 13.6373
690 2 2.2208 5.38513 17.2658 27.6258
636 2 2.2208 2.59725 8.78176 27.6902
417 2 2.2208 11.1401 -2.52067 13.7903
637 2 2.2208 5.37256 11.426 27.6844
721 2 2.2208 5.22732 22.8366 5.09509
723 1 -1.1104 0.98823 24.2213 0.909263
724 1 -1.1104 0.862746 24.2729 3.88108
725 1 -1.1104 1.14889 21.2916 0.99909
727 2 2.2208 5.00859 25.7292 2.44357
728 1 -1.1104 0.967024 21.6021 3.77865
730 1 -1.1104 3.65274 24.432 0.942925
731 2 2.2208 2.52426 22.8517 2.3233
733 1 -1.1104 3.68845 24.2792 3.63346
734 2 2.2208 2.14106 25.7118 5.17485
735 1 -1.1104 3.93092 21.4426 1.14886
737 1 -1.1104 3.80553 21.4041 3.67769
738 1 -1.1104 3.70766 27.0677 3.80378
736 1 -1.1104 3.70354 27.2832 0.989748
729 1 -1.1104 0.772445 26.8806 3.84886
862 1 -1.1104 0.897737 24.2683 6.65256
726 1 -1.1104 1.00035 27.0376 1.0608
792 2 2.2208 -0.444457 37.0408 2.13965
865 1 -1.1104 0.784714 27.0293 6.65702
1352 2 2.2208 13.6261 45.6022 13.7442
870 1 -1.1104 3.53012 27.1379 6.46085
980 1 -1.1104 6.58193 44.2277 12.045
745 1 -1.1104 6.69633 27.1482 0.918567
744 1 -1.1104 6.72539 21.4406 0.837711
742 1 -1.1104 6.62981 24.3917 0.990401
746 1 -1.1104 6.39654 21.5134 3.74199
743 1 -1.1104 6.28489 24.4861 3.73884
748 2 2.2208 10.7691 22.7656 5.21046
750 1 -1.1104 12.435 24.2723 0.890653
751 1 -1.1104 12.0008 24.1095 3.61781
752 1 -1.1104 12.3775 21.4665 0.805724
754 2 2.2208 10.8363 25.5727 2.15752
755 1 -1.1104 12.3783 21.6051 3.72627
757 1 -1.1104 9.32172 24.0187 0.927237
758 2 2.2208 8.03923 22.9636 2.51901
760 1 -1.1104 9.16385 24.3771 3.85717
761 2 2.2208 7.95789 25.7887 5.03253
762 1 -1.1104 9.34332 21.4492 0.827505
764 1 -1.1104 9.40865 21.3927 3.60402
756 1 -1.1104 12.2729 26.9179 3.75667
765 1 -1.1104 9.49152 27.2348 3.50025
763 1 -1.1104 9.5348 27.0336 0.938691
896 1 -1.1104 12.2109 21.5462 6.66556
863 1 -1.1104 6.63019 24.3302 6.62811
866 1 -1.1104 6.82249 21.5171 6.35051
898 1 -1.1104 9.39574 24.34 6.42545
899 1 -1.1104 9.39964 21.562 6.54817
1032 2 2.2208 13.7215 31.3799 5.16597
1047 2 2.2208 2.23086 34.3368 13.6088
1421 1 -1.1104 1.27409 46.8049 0.860125
722 2 2.2208 4.9988 28.4553 5.10812
732 2 2.2208 2.28408 28.4157 2.42327
770 1 -1.1104 0.961874 29.6942 0.994018
773 1 -1.1104 1.01353 29.8035 3.89114
776 1 -1.1104 0.854929 32.731 0.930991
777 2 2.2208 5.31498 31.424 2.22485
779 1 -1.1104 0.974595 32.5251 3.68283
781 1 -1.1104 3.7459 30.0641 1.10978
784 1 -1.1104 3.60324 29.6441 4.0339
786 2 2.2208 2.56522 31.4604 5.27921
788 1 -1.1104 3.74202 32.9347 0.83103
789 1 -1.1104 3.81674 32.6743 3.61867
791 2 2.2208 -0.281964 31.1881 2.3221
793 1 -1.1104 6.5573 29.8963 0.652816
1075 2 2.2208 5.23945 23.1404 -0.316144
923 1 -1.1104 3.8693 32.889 6.45444
921 1 -1.1104 3.80986 29.9321 6.58824
767 2 2.2208 13.5496 28.6146 2.31168
747 1 -1.1104 6.57853 27.2374 3.71364
753 1 -1.1104 12.2421 27.1179 0.900993
917 1 -1.1104 6.48078 29.7588 6.39094
780 1 -1.1104 6.60838 32.8086 3.48185
794 1 -1.1104 6.61596 29.895 3.55269
795 1 -1.1104 6.64305 32.7974 0.783173
749 2 2.2208 10.6736 28.6333 5.24065
759 2 2.2208 8.06274 28.5154 2.30411
797 1 -1.1104 12.234 29.9966 1.27321
799 1 -1.1104 12.023 29.8448 3.8415
801 1 -1.1104 12.2047 32.9033 0.941481
802 2 2.2208 10.7411 31.3934 2.42295
804 1 -1.1104 12.1923 33.0428 3.76258
805 1 -1.1104 9.30524 30.1359 0.961318
808 1 -1.1104 9.39323 30.0426 3.59488
810 2 2.2208 8.00043 31.4281 5.16515
812 1 -1.1104 9.3959 32.7827 0.995484
813 1 -1.1104 9.39616 32.7401 3.90007
1426 1 -1.1104 1.02544 46.9517 3.62753
952 1 -1.1104 9.12818 30.1901 6.65824
920 1 -1.1104 6.54595 32.7404 6.45836
1416 2 2.2208 8.20356 23.1887 13.6293