ITEM: TIMESTEP
60000
ITEM: NUMBER OF ATOMS
17704
ITEM: BOX BOUNDS pp pp pp
-4.4545209589035339e-01 2.7785452095889699e+01
-5.3115970504930576e+00 3.3339159705048718e+02
-4.4772553846257535e-01 2.7787725538462304e+01
ITEM: ATOMS id type q x y z
1 2 2.2208 5.5389 0.421173 5.23299
2 1 -1.1104 1.07332 -3.91757 0.977257
6 1 -1.1104 1.31098 -3.86165 3.66346
10 1 -1.1104 1.06848 -1.1334 0.791077
12 2 2.2208 5.30777 -2.52656 2.43298
14 1 -1.1104 1.13132 -1.09112 3.84604
16 1 -1.1104 3.94431 -3.89302 0.90044
18 2 2.2208 2.56969 0.197889 2.30459
19 1 -1.1104 4.05208 -3.99732 3.80883
21 2 2.2208 2.67083 -2.51767 5.44361
23 1 -1.1104 3.93534 -1.32889 0.828972
24 1 -1.1104 3.88891 -1.15909 3.69342
26 2 2.2208 -0.1039 0.502177 5.15035
25 2 2.2208 -0.212811 -2.30436 2.43321
51 2 2.2208 -0.142265 11.7056 10.7675
638 2 2.2208 -0.188049 11.504 -0.250038
81 2 2.2208 -0.170567 5.94826 5.34665
717 2 2.2208 8.35922 14.4142 -0.345035
112 1 -1.1104 6.691 18.6417 6.62586
82 2 2.2208 -0.42889 8.81319 2.42957
15 1 -1.1104 6.73599 -1.26991 3.66831
4 1 -1.1104 7.05195 -4.25943 0.858148
11 1 -1.1104 6.78632 -1.4446 0.920228
8 1 -1.1104 6.76481 -4.13373 3.61804
31 2 2.2208 11.1401 0.334155 5.27811
32 1 -1.1104 12.4709 -3.8045 0.85367
34 1 -1.1104 12.5147 -3.84267 3.70022
36 1 -1.1104 12.4121 -0.977621 0.892044
37 2 2.2208 10.9707 -2.73963 2.44061
39 1 -1.1104 12.6433 -1.17958 4.02146
40 1 -1.1104 9.72455 -3.93978 1.21717
42 2 2.2208 8.3148 0.120525 2.45758
43 1 -1.1104 9.65171 -3.94705 3.97015
45 2 2.2208 8.26638 -2.57505 5.07639
47 1 -1.1104 9.5403 -1.01656 0.965646
48 1 -1.1104 9.86936 -1.13632 3.83498
326 1 -1.1104 12.4785 15.9622 12.4133
135 2 2.2208 -0.119189 14.3962 2.57425
9003 2 2.2208 -0.191952 -5.31455 5.16573
323 1 -1.1104 12.5447 15.7485 9.40815
27 2 2.2208 -0.175946 3.12624 2.40924
3 1 -1.1104 1.26914 1.77714 1.05836
7 1 -1.1104 1.33655 1.70963 3.70028
13 2 2.2208 5.39381 2.98534 2.12803
17 1 -1.1104 4.05583 1.57707 0.961259
20 1 -1.1104 4.29597 1.67837 3.72738
22 2 2.2208 2.52307 3.06696 5.2385
54 2 2.2208 5.40018 5.83672 5.02135
58 1 -1.1104 1.04992 7.15595 3.69206
60 1 -1.1104 1.44013 4.3361 1.11147
67 1 -1.1104 1.0101 4.65872 3.80596
72 2 2.2208 2.56517 5.97665 2.44082
76 1 -1.1104 4.10542 4.57272 0.897443
79 1 -1.1104 3.7891 4.37066 3.79365
71 1 -1.1104 3.79407 7.27771 1.13583
56 1 -1.1104 1.13046 7.24022 0.893516
74 1 -1.1104 3.91137 7.32873 3.91956
690 2 2.2208 5.26739 17.137 -0.399039
59 1 -1.1104 6.81658 7.2208 3.79906
63 1 -1.1104 6.90315 4.26817 0.701357
57 1 -1.1104 6.84005 7.46441 1.07387
69 1 -1.1104 6.78606 4.37907 3.58235
9 1 -1.1104 7.09918 1.5333 3.9169
5 1 -1.1104 6.91613 1.38675 1.15494
33 1 -1.1104 12.6006 1.64397 1.22097
35 1 -1.1104 12.463 1.72791 3.85345
38 2 2.2208 10.9632 3.07252 2.40515
41 1 -1.1104 9.74845 1.71792 0.729286
44 1 -1.1104 9.68569 1.58628 3.83478
46 2 2.2208 8.20836 3.21253 5.18281
84 2 2.2208 10.8093 6.02251 5.13757
86 1 -1.1104 12.4435 7.38983 1.01078
87 1 -1.1104 12.2149 7.27754 3.86735
88 1 -1.1104 12.5918 4.61718 1.00981
92 1 -1.1104 12.5528 4.53074 3.80594
94 1 -1.1104 9.77449 7.2794 0.874931
95 2 2.2208 8.36156 5.98939 2.28103
99 1 -1.1104 9.75595 4.5641 0.983676
102 1 -1.1104 9.65557 4.52753 3.7408
97 1 -1.1104 9.47446 7.43907 3.64281
30 2 2.2208 -0.34886 8.85629 8.13436
311 2 2.2208 -0.34761 20.012 8.15742
267 1 -1.1104 9.59032 7.48298 6.74806
169 1 -1.1104 6.79658 1.79363 6.84914
55 2 2.2208 5.38655 11.6271 5.30384
61 1 -1.1104 1.25913 10.1776 1.1453
66 2 2.2208 5.46086 8.84976 2.46678
68 1 -1.1104 1.13081 10.1772 4.00186
73 2 2.2208 2.64522 11.5665 2.57779
75 2 2.2208 2.61836 8.63552 5.21734
77 1 -1.1104 3.96823 10.166 1.04907
80 1 -1.1104 4.06981 10.2973 3.84453
107 1 -1.1104 1.42299 12.8098 0.963024
113 1 -1.1104 1.21158 13.0198 3.89191
123 1 -1.1104 4.0834 12.9273 1.06111
128 1 -1.1104 3.77671 13.1397 4.15444
9008 2 2.2208 5.70939 -5.16753 10.8008
9007 2 2.2208 2.55851 -5.29994 7.97547
324 2 2.2208 11.0942 20.078 8.14304
130 2 2.2208 2.70317 14.6266 5.4312
340 2 2.2208 11.1881 17.1697 -0.261842
204 2 2.2208 13.6777 14.3395 5.27343
636 2 2.2208 2.47444 8.84955 -0.294627
70 1 -1.1104 6.904 10.2008 3.67856
64 1 -1.1104 6.73467 10.4038 0.872303
115 1 -1.1104 6.60355 13.0368 3.62898
110 1 -1.1104 6.88487 12.9594 0.794383
85 2 2.2208 10.7971 11.4669 5.38532
89 1 -1.1104 12.2924 10.1033 0.913255
91 2 2.2208 10.9244 8.84295 2.25923
93 1 -1.1104 12.3762 9.96189 3.81246
96 2 2.2208 7.97479 11.6655 2.38868
98 2 2.2208 8.10672 8.73968 5.13612
100 1 -1.1104 9.45989 9.95289 0.894996
103 1 -1.1104 9.62168 10.2612 3.71457
142 1 -1.1104 12.359 12.7381 1.33354
146 1 -1.1104 12.3915 12.7212 3.94655
153 1 -1.1104 9.53227 12.7665 1.14872
158 1 -1.1104 9.30731 13.1674 3.82248
150 2 2.2208 10.9519 14.2202 2.51392
90 1 -1.1104 12.3475 10.121 6.73315
65 1 -1.1104 6.74373 10.0955 6.59324
313 2 2.2208 -0.0877985 14.491 8.01428
383 2 2.2208 5.51466 -2.48789 13.524
410 2 2.2208 -0.313331 14.3055 13.6659
136 2 2.2208 -0.36324 20.0882 2.4995
119 2 2.2208 5.39755 14.5733 2.36766
106 2 2.2208 5.46165 17.148 5.36396
109 1 -1.1104 0.958823 18.6768 1.22094
114 1 -1.1104 1.02386 18.6689 4.02459
116 1 -1.1104 0.992425 15.7574 1.02499
120 2 2.2208 5.11705 19.9599 2.52056
121 1 -1.1104 1.15923 15.8629 3.86369
125 1 -1.1104 3.66776 18.5506 1.0886
127 2 2.2208 2.29096 17.1195 2.31643
129 1 -1.1104 3.7969 18.631 4.02093
131 2 2.2208 2.51493 20.1897 5.23822
132 1 -1.1104 3.93982 15.7513 0.9276
134 1 -1.1104 3.89769 15.7706 3.76101
9005 2 2.2208 11.076 -5.33838 5.31894
126 1 -1.1104 4.10983 18.9935 6.9678
302 1 -1.1104 1.21238 18.7146 6.66716
635 2 2.2208 5.40966 5.99771 -0.397299
137 2 2.2208 -0.13267 17.1727 5.39962
325 2 2.2208 11.0399 14.1895 8.06731
140 1 -1.1104 6.72505 15.7026 1.155
138 1 -1.1104 6.66884 18.535 1.13395
139 1 -1.1104 6.7256 18.5429 3.94451
122 1 -1.1104 6.68228 15.7051 3.85948
160 2 2.2208 8.07281 14.3451 5.31872
141 2 2.2208 10.8848 17.1817 5.49176
144 1 -1.1104 12.4983 18.5709 1.04406
147 1 -1.1104 12.3916 18.5173 4.17219
148 1 -1.1104 12.2499 15.8833 1.16768
151 2 2.2208 10.7898 19.949 2.45718
152 1 -1.1104 12.3047 15.6475 3.99708
155 1 -1.1104 9.56278 18.5309 0.935499
157 2 2.2208 8.09518 17.2119 2.42913
159 1 -1.1104 9.41117 18.3984 3.70824
161 2 2.2208 8.01038 20.1898 5.36628
162 1 -1.1104 9.65939 15.62 1.00945
164 1 -1.1104 9.40556 15.7635 3.95223
83 2 2.2208 -0.319817 11.4901 5.17832
163 1 -1.1104 9.59431 15.6056 6.77339
145 1 -1.1104 12.4004 18.7386 6.71503
172 1 -1.1104 3.98579 -3.75606 6.71587
575 2 2.2208 -0.211844 8.82826 13.6123
331 2 2.2208 11.0845 17.2368 10.8695
174 1 -1.1104 4.06345 -1.05565 6.36477
170 1 -1.1104 1.40048 -1.12131 6.71044
166 1 -1.1104 1.16258 -3.97838 6.58581
175 2 2.2208 5.41882 0.189585 10.7306
176 1 -1.1104 1.52126 -4.09651 12.0532
180 1 -1.1104 1.27 -3.89172 9.25014
184 1 -1.1104 1.18367 -1.0318 12.1141
186 2 2.2208 5.45018 -2.49709 7.86823
188 1 -1.1104 1.27393 -1.14575 9.56599
190 1 -1.1104 4.21417 -3.78309 12.2126
192 2 2.2208 2.50111 0.320877 8.05355
193 1 -1.1104 4.24541 -3.95829 9.4496
195 2 2.2208 2.80255 -2.52525 10.6088
197 1 -1.1104 3.89189 -0.887103 12.0094
198 1 -1.1104 3.92421 -1.24509 9.22947
200 2 2.2208 -0.213021 -2.4753 7.91562
201 2 2.2208 -0.309188 0.297491 10.7286
205 1 -1.1104 12.4615 -4.08238 6.58628
207 1 -1.1104 12.6178 -0.886917 6.78816
210 1 -1.1104 9.7843 -1.13752 6.85736
208 1 -1.1104 9.68553 -3.75133 6.76548
189 1 -1.1104 6.88783 -1.0121 9.38589
182 1 -1.1104 7.0538 -4.03913 9.37153
185 1 -1.1104 6.57984 -0.929363 12.2588
178 1 -1.1104 6.99345 -3.69425 12.2675
168 1 -1.1104 6.88444 -3.96227 6.6071
171 1 -1.1104 6.98607 -1.00376 6.51497
211 2 2.2208 11.1466 0.266405 10.9732
212 1 -1.1104 12.5915 -4.05659 12.3131
214 1 -1.1104 12.5439 -4.04601 9.29569
216 1 -1.1104 12.4876 -1.20019 12.2398
217 2 2.2208 11.2273 -2.47364 8.11818
219 1 -1.1104 12.5553 -0.841821 9.57902
220 1 -1.1104 9.55547 -3.88896 12.2687
222 2 2.2208 8.09492 0.435191 8.11425
223 1 -1.1104 9.83785 -3.95525 9.45923
225 2 2.2208 8.41195 -2.50796 10.738
227 1 -1.1104 9.5886 -0.93403 12.1482
228 1 -1.1104 9.69538 -0.949963 9.54263
239 1 -1.1104 3.95847 4.53046 6.57631
234 1 -1.1104 1.28145 7.30182 6.7754
29 2 2.2208 -0.245961 5.95206 10.8312
173 1 -1.1104 3.98518 1.77099 6.52566
236 1 -1.1104 1.14589 4.37696 6.63236
238 1 -1.1104 4.00351 7.37178 6.92965
199 2 2.2208 -0.186115 3.12025 8.04185
167 1 -1.1104 1.0991 1.67661 6.62106
177 1 -1.1104 1.28163 1.67021 12.0502
181 1 -1.1104 1.04177 1.71447 9.31685
187 2 2.2208 5.42384 3.4584 8.06833
191 1 -1.1104 3.99171 1.76758 12.3313
194 1 -1.1104 4.13791 1.49328 9.28545
196 2 2.2208 2.65738 3.05524 10.8078
240 2 2.2208 5.32308 5.97064 11.0088
242 1 -1.1104 1.21768 7.1975 12.297
244 1 -1.1104 1.13025 7.49975 9.42417
246 1 -1.1104 1.24576 4.45152 12.5137
251 1 -1.1104 1.21135 4.65189 9.5469
255 1 -1.1104 3.97717 7.35821 12.4338
256 2 2.2208 2.46485 5.9972 8.18712
258 1 -1.1104 4.01494 7.17169 9.54083
260 1 -1.1104 3.89633 4.71116 12.3012
262 1 -1.1104 3.8768 4.5166 9.37052
296 1 -1.1104 6.61066 18.7492 12.3301
183 1 -1.1104 6.79046 1.74242 9.66366
235 1 -1.1104 6.7016 7.40102 6.43651
266 1 -1.1104 12.2704 4.58647 6.42164
265 1 -1.1104 12.5046 7.31391 6.69677
237 1 -1.1104 6.76448 4.64138 6.46714
209 1 -1.1104 9.60193 1.83829 6.54196
269 1 -1.1104 9.36964 4.59803 6.74385
248 1 -1.1104 6.79812 4.47336 12.0436
245 1 -1.1104 6.79972 7.5471 9.52828
243 1 -1.1104 6.88533 7.31189 12.3922
179 1 -1.1104 6.98324 1.62621 12.5141
206 1 -1.1104 12.612 1.77559 6.66896
253 1 -1.1104 6.73023 4.58898 9.4368
213 1 -1.1104 12.2876 1.60437 12.433
215 1 -1.1104 12.513 1.76398 9.46931
218 2 2.2208 11.1549 3.04071 7.88444
221 1 -1.1104 9.83475 1.89108 12.4731
224 1 -1.1104 9.69022 1.93862 9.36437
226 2 2.2208 8.27501 3.03072 10.9356
268 1 -1.1104 9.7017 4.75153 9.5278
271 1 -1.1104 9.64722 4.50526 12.4826
273 1 -1.1104 9.69477 7.23758 9.48142
275 2 2.2208 8.16001 6.14356 8.09252
276 2 2.2208 11.1736 5.99025 10.7534
279 1 -1.1104 12.5346 7.34358 9.62262
280 1 -1.1104 12.4158 4.68047 12.0846
283 1 -1.1104 12.6052 4.46396 9.37632
278 1 -1.1104 12.5611 7.37824 12.4398
285 1 -1.1104 9.5294 7.53846 12.4621
316 2 2.2208 8.17987 20.1268 10.8738
516 2 2.2208 -0.276442 3.15694 13.6904
62 1 -1.1104 1.1349 10.2482 6.86825
124 1 -1.1104 4.0301 13.2552 6.88395
78 1 -1.1104 4.0616 10.326 6.65989
9009 2 2.2208 -0.0174766 -5.15747 10.8671
108 1 -1.1104 1.34106 13.0596 6.652
241 2 2.2208 5.2899 11.5593 11.0931
247 1 -1.1104 1.28846 9.99317 12.3628
250 2 2.2208 5.29121 8.56406 8.24143
252 1 -1.1104 1.14469 10.2714 9.7241
257 2 2.2208 2.71173 11.6258 8.00465
259 2 2.2208 2.6729 8.71827 10.9058
261 1 -1.1104 3.99146 10.1849 12.2741
263 1 -1.1104 3.82073 10.1729 9.34763
287 1 -1.1104 3.94835 13.1658 12.3514
294 1 -1.1104 1.11112 13.2706 9.50367
299 1 -1.1104 1.07411 12.9381 12.3435
305 1 -1.1104 3.98183 12.8776 9.52345
295 2 2.2208 5.44665 14.638 8.14619
317 2 2.2208 8.10613 14.343 10.823
154 1 -1.1104 9.45663 12.8157 6.64113
290 1 -1.1104 6.46547 12.9348 9.53497
111 1 -1.1104 6.8643 13.0303 6.59664
249 1 -1.1104 6.7739 10.1208 12.2518
254 1 -1.1104 6.80799 10.2847 9.48197
143 1 -1.1104 12.2557 13.0197 6.57546
101 1 -1.1104 9.48486 10.1133 6.8074
297 1 -1.1104 6.70504 12.9165 12.3421
330 1 -1.1104 12.2872 13.1007 12.1845
328 1 -1.1104 12.5373 13.1736 9.41391
322 1 -1.1104 9.66394 13.1652 12.3579
319 1 -1.1104 9.49474 12.9696 9.51171
264 1 -1.1104 9.77381 10.2281 9.47171
270 1 -1.1104 9.75361 10.2543 12.2407
272 2 2.2208 8.21614 8.7291 10.9306
274 2 2.2208 8.16294 11.4875 8.11507
277 2 2.2208 11.1118 11.4892 11.0236
281 1 -1.1104 12.3914 10.1182 12.4993
282 2 2.2208 11.0459 8.71383 8.13028
284 1 -1.1104 12.4363 10.2989 9.73575
117 1 -1.1104 1.39058 16.0354 6.8072
337 2 2.2208 8.10501 17.2592 13.5648
691 2 2.2208 2.58114 14.23 -0.361715
133 1 -1.1104 3.95927 16.2781 6.7196
310 2 2.2208 2.7239 14.3995 10.8755
304 1 -1.1104 4.01149 16.0917 9.52854
303 2 2.2208 2.56762 17.496 8.2199
301 1 -1.1104 3.79087 18.8445 9.76511
307 1 -1.1104 1.14386 15.8028 12.0397
309 2 2.2208 2.43306 20.1904 10.96
308 1 -1.1104 3.99938 15.9323 12.3478
286 1 -1.1104 3.86876 18.7242 12.4717
291 1 -1.1104 1.026 18.8668 9.45911
292 1 -1.1104 1.35568 15.8437 9.42389
293 2 2.2208 5.55794 20.1958 8.0898
298 1 -1.1104 1.07569 18.8426 12.4007
300 2 2.2208 5.38637 17.3138 10.9396
312 2 2.2208 -0.0978276 17.4077 11.1072
321 1 -1.1104 9.60941 18.771 12.1523
288 1 -1.1104 6.64799 18.7936 9.45936
329 1 -1.1104 12.4748 18.7632 12.2422
314 1 -1.1104 9.71623 15.6314 9.60949
315 1 -1.1104 9.45711 15.7901 12.3159
320 2 2.2208 8.12901 17.3929 8.15676
306 1 -1.1104 6.63778 15.8646 12.2469
289 1 -1.1104 6.76959 15.9052 9.35898
318 1 -1.1104 9.70625 18.5404 9.28222
118 1 -1.1104 6.80685 15.8994 6.60858
149 1 -1.1104 12.2452 15.757 6.62061
156 1 -1.1104 9.47442 18.462 6.51288
327 1 -1.1104 12.53 18.4517 9.60547
641 2 2.2208 -0.18163 5.81124 -0.346
339 2 2.2208 8.08078 19.9647 -0.375183
9042 2 2.2208 2.71398 -5.38915 13.5605
601 2 2.2208 8.00813 -2.63219 -0.34568
693 2 2.2208 -0.46672 17.2129 -0.450441
571 2 2.2208 2.43854 -2.52374 -0.438863
689 2 2.2208 2.50009 20.1936 -0.384522
417 2 2.2208 10.9672 -2.37569 13.5782
453 2 2.2208 5.34533 8.78113 13.6795
9132 2 2.2208 -0.447233 -5.30247 -0.380022
660 2 2.2208 11.1888 5.93102 -0.433796
662 2 2.2208 11.0813 11.5428 -0.377523
343 2 2.2208 5.31354 0.371679 16.4849
344 1 -1.1104 1.22799 -4.22054 17.6769
348 1 -1.1104 1.21355 -4.00363 14.7741
356 1 -1.1104 0.997239 -1.26739 17.7401
358 2 2.2208 5.39382 -2.62599 19.2222
360 1 -1.1104 1.15544 -0.944642 15.0217
364 1 -1.1104 3.95372 -4.04203 17.8837
366 2 2.2208 2.47514 0.197367 19.2176
367 1 -1.1104 4.05328 -4.04241 15.0147
371 2 2.2208 2.50274 -2.56017 16.2242
373 1 -1.1104 3.65645 -0.988083 17.5785
374 1 -1.1104 4.0513 -1.08538 14.8343
517 2 2.2208 5.41806 14.4294 13.7956
380 2 2.2208 -0.218328 -2.61452 19.1949
9163 2 2.2208 11.1303 -5.2464 16.4443
349 1 -1.1104 1.34239 -3.99469 20.6655
452 2 2.2208 2.53186 6.03578 13.7919
542 2 2.2208 -0.366275 3.27197 19.422
385 2 2.2208 5.43077 3.07095 13.7158
357 1 -1.1104 6.68096 -1.07007 17.8298
346 1 -1.1104 7.02616 -4.11028 17.9393
352 1 -1.1104 6.83899 -4.14218 15.0959
362 1 -1.1104 6.8181 -1.21096 14.9942
386 2 2.2208 11.0028 0.106823 16.3153
387 1 -1.1104 12.4763 -3.78751 17.8578
389 1 -1.1104 12.4899 -3.7552 15.032
393 1 -1.1104 12.3913 -0.772533 17.7956
394 2 2.2208 11.0416 -2.44649 19.3091
396 1 -1.1104 12.3194 -1.07671 14.9102
398 1 -1.1104 9.727 -3.73739 17.8914
400 2 2.2208 8.11568 0.167109 19.2056
401 1 -1.1104 9.70287 -3.84892 15.1188
405 2 2.2208 8.23594 -2.5772 16.3192
407 1 -1.1104 9.67136 -1.06733 17.703
408 1 -1.1104 9.61795 -1.0672 14.9849
543 2 2.2208 11.1546 14.4583 13.6946
697 1 -1.1104 9.82327 15.7915 23.506
481 2 2.2208 8.24274 11.6319 13.9497
712 1 -1.1104 12.2792 18.7345 23.9282
402 1 -1.1104 9.7087 -3.84503 20.7624
412 2 2.2208 -0.212676 14.4086 19.3379
454 2 2.2208 2.40535 11.5038 13.7845
384 2 2.2208 2.62162 0.439324 13.7742
576 2 2.2208 -0.27955 6.13702 16.43
345 1 -1.1104 1.188 1.61537 17.6584
350 1 -1.1104 0.939421 1.90238 15.1001
359 2 2.2208 5.36619 3.19292 19.3821
365 1 -1.1104 3.90929 1.77342 18.0972
369 1 -1.1104 3.66848 1.62205 15.2701
372 2 2.2208 2.55943 3.00702 16.5825
419 2 2.2208 5.53225 5.98339 16.5438
421 1 -1.1104 1.21038 7.55159 17.8754
423 1 -1.1104 1.09606 7.43546 15.0912
427 1 -1.1104 0.99271 4.56558 17.8364
432 1 -1.1104 1.1919 4.63205 15.0137
441 2 2.2208 2.56374 5.92201 19.3767
446 1 -1.1104 4.03292 4.72118 18.1013
448 1 -1.1104 4.05645 4.45864 15.1503
440 1 -1.1104 4.00122 7.5572 18.1235
443 1 -1.1104 4.14253 7.5257 15.348
436 1 -1.1104 6.90337 4.40574 15.1181
444 1 -1.1104 3.7497 7.49967 21.0637
429 1 -1.1104 6.77078 4.56078 18.0287
347 1 -1.1104 6.70528 1.71035 18.1222
354 1 -1.1104 6.59478 1.58742 15.2237
425 1 -1.1104 6.9003 7.2078 15.1044
422 1 -1.1104 7.01253 7.38003 18.0849
388 1 -1.1104 12.4531 1.75755 18.0174
391 1 -1.1104 12.3524 1.68294 15.1144
395 2 2.2208 10.9517 3.12614 19.3479
399 1 -1.1104 9.39932 1.73504 17.8753
403 1 -1.1104 9.52787 1.63726 15.1361
406 2 2.2208 8.25043 3.21415 16.6073
455 2 2.2208 11.0208 6.07829 16.5269
460 1 -1.1104 12.5061 4.59894 17.8609
463 1 -1.1104 12.4149 4.58393 15.1437
468 2 2.2208 8.2361 6.10306 19.521
470 1 -1.1104 9.53502 7.38581 15.0504
473 1 -1.1104 9.64994 4.60986 18.0087
475 1 -1.1104 9.7085 4.5952 15.3223
458 1 -1.1104 12.4158 7.52872 15.1073
467 1 -1.1104 9.62112 7.43103 17.8245
392 1 -1.1104 12.6944 1.48429 20.7194
457 1 -1.1104 12.5696 7.46005 17.7895
426 1 -1.1104 6.7799 7.37205 20.9741
355 1 -1.1104 6.8739 1.55887 20.7801
464 1 -1.1104 12.5301 4.4582 20.4288
413 2 2.2208 -0.251931 20.142 19.3438
577 2 2.2208 -0.363845 8.99083 19.3958
420 2 2.2208 5.25718 11.5393 16.4467
428 1 -1.1104 1.28756 10.3659 18.1269
431 2 2.2208 5.44733 8.83248 19.3592
434 1 -1.1104 1.06988 10.1192 15.2988
442 2 2.2208 2.67159 11.7646 19.4292
445 2 2.2208 2.57096 8.83494 16.6266
447 1 -1.1104 4.14078 10.3857 17.9624
450 1 -1.1104 3.83634 9.99723 14.9051
483 1 -1.1104 1.05446 13.0161 18.0815
487 1 -1.1104 1.12896 12.8304 15.1736
503 1 -1.1104 3.76903 13.0493 17.8806
506 1 -1.1104 3.86163 12.9008 15.0154
603 2 2.2208 -0.212158 11.5902 16.5619
515 2 2.2208 2.56023 17.2864 13.7733
435 1 -1.1104 1.25319 10.6229 20.9255
507 1 -1.1104 4.1499 12.7754 20.7594
9091 2 2.2208 8.0847 -5.34124 25.076
524 1 -1.1104 12.2639 18.6945 21.0005
491 1 -1.1104 6.6639 12.9194 15.1917
438 1 -1.1104 6.81461 10.2537 15.0239
485 1 -1.1104 6.56042 12.8543 17.9738
430 1 -1.1104 6.8423 10.1546 17.6608
456 2 2.2208 11.1523 11.6304 16.5338
461 1 -1.1104 12.3836 10.1652 17.944
462 2 2.2208 10.9827 8.69219 19.0843
465 1 -1.1104 12.4898 10.1771 15.1393
469 2 2.2208 8.23419 11.5042 19.3425
472 2 2.2208 8.20553 8.70823 16.3769
474 1 -1.1104 9.47168 10.0898 17.9167
477 1 -1.1104 9.74311 10.4197 15.2009
519 1 -1.1104 12.4158 13.1119 18.024
521 1 -1.1104 12.4718 13.0447 15.1168
530 1 -1.1104 9.47188 13.1695 18.1079
533 1 -1.1104 9.64697 13.3293 15.3163
640 2 2.2208 -0.266063 11.7082 22.2453
439 1 -1.1104 6.97207 10.2174 20.7061
492 1 -1.1104 7.12211 13.1691 20.6492
480 2 2.2208 11.0341 8.82716 13.78
9093 2 2.2208 11.0529 -5.23546 27.782
502 1 -1.1104 6.87781 15.993 20.9171
497 2 2.2208 5.48226 14.2508 19.6007
510 2 2.2208 2.43356 14.3058 16.4668
482 2 2.2208 5.42725 17.1844 16.7001
484 1 -1.1104 1.04127 18.5674 17.8826
489 1 -1.1104 1.14386 18.5743 15.0158
495 1 -1.1104 1.04393 15.8682 17.9778
498 2 2.2208 5.18492 20.1965 19.5161
499 1 -1.1104 1.20666 15.7486 15.1073
504 1 -1.1104 3.94552 18.62 18.0612
505 2 2.2208 2.57639 17.3257 19.3842
508 1 -1.1104 3.95283 18.5518 15.0873
511 2 2.2208 2.63988 20.149 16.4894
512 1 -1.1104 4.06569 15.7982 18.3142
513 1 -1.1104 4.15647 15.5428 15.2621
479 2 2.2208 8.28762 5.7756 13.7233
572 2 2.2208 2.57329 3.12255 27.782
529 1 -1.1104 12.5371 15.9918 21.0177
695 2 2.2208 -0.285568 17.3272 22.1989
335 2 2.2208 5.39626 20.0845 13.9258
493 1 -1.1104 6.70961 18.7366 15.2349
486 1 -1.1104 6.58609 18.5217 18.2084
501 1 -1.1104 6.86477 16.0012 15.1069
496 1 -1.1104 6.99149 15.7254 18.0939
537 2 2.2208 8.35507 14.6172 16.5914
526 2 2.2208 11.2638 14.4143 19.4489
518 2 2.2208 11.0374 17.2957 16.6293
520 1 -1.1104 12.527 18.7123 18.1793
525 1 -1.1104 12.6048 15.7515 18.1145
527 2 2.2208 11.0139 20.0594 19.4713
528 1 -1.1104 12.3123 16.0543 15.1725
531 1 -1.1104 9.43001 18.989 17.9437
532 2 2.2208 8.15501 17.3095 19.4855
535 1 -1.1104 9.85917 18.864 15.2239
538 2 2.2208 8.14071 20.1986 16.6542
539 1 -1.1104 9.55752 16.0529 18.068
540 1 -1.1104 9.6621 16.1405 15.1114
523 1 -1.1104 12.668 18.9999 15.1261
708 2 2.2208 11.0981 14.5292 24.978
602 2 2.2208 8.26075 3.08727 27.7282
416 2 2.2208 8.27129 0.365539 13.7214
361 1 -1.1104 1.14689 -1.23894 20.6405
375 1 -1.1104 3.94706 -1.29948 20.2975
368 1 -1.1104 4.02361 -4.01495 20.8401
546 2 2.2208 5.33801 0.415766 22.2118
547 1 -1.1104 1.41358 -3.96058 23.501
551 1 -1.1104 1.0504 -4.01264 26.4701
555 1 -1.1104 1.2953 -1.04653 23.3745
557 2 2.2208 5.50001 -2.4839 24.8255
559 1 -1.1104 1.22424 -1.18283 26.1132
561 1 -1.1104 4.00957 -4.01236 23.5929
563 2 2.2208 2.66288 0.24211 24.7567
564 1 -1.1104 3.68445 -3.83896 26.3775
566 2 2.2208 2.72224 -2.64379 22.025
568 1 -1.1104 3.96328 -1.07308 23.1626
569 1 -1.1104 4.04789 -1.05486 26.0836
579 2 2.2208 -0.118565 -2.54007 24.835
580 2 2.2208 -0.322103 0.290394 22.0794
707 2 2.2208 11.0554 20.0471 25.1765
390 1 -1.1104 12.2623 -4.06482 20.7095
363 1 -1.1104 6.74477 -1.36873 20.6612
353 1 -1.1104 6.84156 -4.09049 20.5439
549 1 -1.1104 6.75578 -3.87 23.4879
397 1 -1.1104 12.7177 -1.09406 20.7385
556 1 -1.1104 6.91977 -1.13823 23.593
560 1 -1.1104 6.90563 -1.16628 26.363
553 1 -1.1104 6.66825 -3.74298 26.3501
409 1 -1.1104 9.65392 -0.959878 20.4401
582 2 2.2208 11.1272 0.158003 21.9755
583 1 -1.1104 12.4813 -4.03022 23.6046
585 1 -1.1104 12.5185 -3.97477 26.3433
587 1 -1.1104 12.7147 -1.12376 23.358
588 2 2.2208 11.2249 -2.65436 24.8679
590 1 -1.1104 12.5356 -1.09131 26.1901
591 1 -1.1104 9.49473 -3.9864 23.7389
593 2 2.2208 8.43466 0.105018 24.9816
594 1 -1.1104 9.70464 -4.00346 26.4593
596 2 2.2208 8.33762 -2.60021 22.1534
598 1 -1.1104 9.80652 -1.17142 23.3707
599 1 -1.1104 9.55805 -1.32122 26.4406
433 1 -1.1104 1.27068 4.50747 20.7541
581 2 2.2208 -0.309516 3.18499 24.9384
376 2 2.2208 -0.33854 6.03443 22.3159
424 1 -1.1104 1.01546 7.54084 20.598
449 1 -1.1104 4.0504 4.70661 20.7304
351 1 -1.1104 1.20482 1.87257 20.6404
370 1 -1.1104 4.08838 1.79602 20.6447
548 1 -1.1104 1.03895 1.84132 23.44
552 1 -1.1104 1.12901 1.76326 26.242
558 2 2.2208 5.33222 3.16327 25.0908
562 1 -1.1104 3.91377 1.59189 23.4139
565 1 -1.1104 4.11695 1.72116 26.5477
567 2 2.2208 2.62476 3.07644 21.9459
611 2 2.2208 5.38228 5.98158 22.365
613 1 -1.1104 0.856341 7.54264 23.4554
617 1 -1.1104 1.21181 4.85161 23.4607
622 1 -1.1104 1.16043 4.62869 26.5086
626 1 -1.1104 4.12071 7.11329 23.8708
627 2 2.2208 2.76857 5.91861 25.1075
629 1 -1.1104 3.80707 7.39744 26.7282
631 1 -1.1104 3.90196 4.47602 23.6559
633 1 -1.1104 4.00548 4.54908 26.3911
615 1 -1.1104 1.07306 7.31611 26.2134
437 1 -1.1104 6.91141 4.44626 20.877
404 1 -1.1104 9.86305 1.85443 20.743
476 1 -1.1104 9.71171 4.57106 20.7005
459 1 -1.1104 12.5246 7.3049 20.4538
471 1 -1.1104 9.68164 7.48323 20.767
624 1 -1.1104 6.88757 4.67066 26.3679
550 1 -1.1104 6.87492 1.72909 23.5367
616 1 -1.1104 6.52999 7.67557 26.7217
554 1 -1.1104 7.00623 1.45083 26.3807
619 1 -1.1104 6.75045 4.60803 23.6928
584 1 -1.1104 12.4821 1.66748 23.5721
586 1 -1.1104 12.4767 1.67096 26.5442
589 2 2.2208 11.0739 3.20157 24.6162
592 1 -1.1104 9.7411 1.62363 23.8283
595 1 -1.1104 9.6962 1.77318 26.2595
597 2 2.2208 8.29848 3.03032 22.2198
643 1 -1.1104 9.71488 4.71658 26.464
645 1 -1.1104 9.62772 4.58786 23.4444
647 1 -1.1104 9.23403 7.50011 26.2121
649 2 2.2208 8.40971 5.95807 24.8689
650 2 2.2208 11.1008 5.95953 21.9781
652 1 -1.1104 12.5685 7.46254 23.5134
653 1 -1.1104 12.2441 7.40333 26.1805
654 1 -1.1104 12.6076 4.62141 23.2977
657 1 -1.1104 12.5096 4.23392 26.344
659 1 -1.1104 9.79829 7.23815 23.4334
614 1 -1.1104 6.95455 7.37804 23.8432
488 1 -1.1104 1.02789 13.2309 20.9359
451 1 -1.1104 3.90403 10.1875 20.7679
661 2 2.2208 8.16348 8.8178 27.7646
639 2 2.2208 -0.319037 8.81025 25.075
683 1 -1.1104 3.83258 12.9415 26.3301
672 1 -1.1104 0.957325 13.026 26.498
612 2 2.2208 5.292 11.3131 22.3127
618 1 -1.1104 1.12699 10.3647 23.7148
621 2 2.2208 5.25015 8.76828 25.2806
623 1 -1.1104 1.09922 10.0897 26.6421
628 2 2.2208 2.44906 11.3775 25.1941
630 2 2.2208 2.34775 8.80801 22.4047
632 1 -1.1104 3.82114 9.98885 23.6569
634 1 -1.1104 3.86175 10.1336 26.5975
668 1 -1.1104 3.87809 12.7354 23.7784
678 1 -1.1104 1.04845 13.0752 23.72
667 1 -1.1104 6.99182 13.0226 26.349
466 1 -1.1104 12.2014 10.1284 20.8147
522 1 -1.1104 12.7121 12.9385 20.7242
478 1 -1.1104 9.58114 10.3027 20.853
534 1 -1.1104 10.0478 13.0068 20.7332
625 1 -1.1104 6.47913 10.3581 26.3695
620 1 -1.1104 7.00778 10.0925 23.4459
676 1 -1.1104 6.59727 12.806 23.6084
713 1 -1.1104 12.2686 13.0063 23.6984
711 1 -1.1104 12.5434 13.1388 26.6553
705 1 -1.1104 9.61045 12.9689 23.6194
701 1 -1.1104 9.68602 13.0637 26.3421
642 1 -1.1104 9.68591 10.2471 26.2651
644 1 -1.1104 9.63846 10.0628 23.5449
646 2 2.2208 8.21814 8.82806 22.0863
648 2 2.2208 8.17909 11.5732 24.8562
651 2 2.2208 11.0221 11.5606 22.2842
655 1 -1.1104 12.3371 10.1956 23.5027
656 2 2.2208 10.9637 8.87312 24.9198
658 1 -1.1104 12.5753 10.2143 26.4133
692 2 2.2208 -0.391852 14.4226 25.1846
509 1 -1.1104 3.73023 18.7065 20.961
696 1 -1.1104 9.8509 16.0495 26.5821
514 1 -1.1104 4.02316 15.6721 21.0579
500 1 -1.1104 1.09996 16.0828 20.9209
694 2 2.2208 -0.37041 19.9989 25.0264
675 2 2.2208 5.41446 14.2734 25.0569
490 1 -1.1104 1.00017 18.8019 20.8479
688 2 2.2208 2.51915 14.4261 22.4422
687 2 2.2208 2.39261 20.0632 22.2634
686 1 -1.1104 4.18124 15.7994 23.7224
685 1 -1.1104 1.24129 15.9041 23.6521
677 1 -1.1104 0.989799 18.5801 23.6618
682 1 -1.1104 3.9971 15.5907 26.3066
674 2 2.2208 5.3823 20.1948 24.9372
681 2 2.2208 2.62956 17.1175 25.0653
679 2 2.2208 5.30803 17.2171 22.3085
680 1 -1.1104 4.11535 18.5508 26.4146
671 1 -1.1104 1.12802 15.817 26.3188
670 1 -1.1104 1.01523 18.7021 26.6878
666 1 -1.1104 4.05344 18.7157 23.6764
411 2 2.2208 -0.321733 17.2388 16.5641
702 1 -1.1104 6.8502 18.5577 26.415
673 1 -1.1104 6.85268 18.4812 23.7184
706 1 -1.1104 12.4048 15.8107 26.4913
703 2 2.2208 8.3879 17.0793 25.1632
710 1 -1.1104 12.7359 18.7054 26.576
669 1 -1.1104 7.04566 15.9007 26.6226
494 1 -1.1104 6.59417 18.8342 20.8888
536 1 -1.1104 9.57927 18.4729 20.729
684 1 -1.1104 7.12906 15.4868 23.6992
704 1 -1.1104 9.53631 18.6958 23.689
699 2 2.2208 8.44884 14.4225 22.1398
700 1 -1.1104 9.81106 18.6943 26.5781
698 2 2.2208 8.00765 20.1344 22.2918
541 1 -1.1104 9.60735 15.6929 20.7202
709 1 -1.1104 12.5465 15.9316 23.7074
714 2 2.2208 10.948 17.4095 22.4405
334 2 2.2208 -0.197015 -2.30539 13.7057
418 2 2.2208 11.0924 3.27035 13.846
637 2 2.2208 5.38049 11.674 27.7227
9041 2 2.2208 8.32183 -5.28127 13.6908
720 2 2.2208 -0.385176 20.2787 13.8633
600 2 2.2208 10.843 0.263685 27.6933
578 2 2.2208 -0.326724 0.163649 27.7001
570 2 2.2208 5.37783 -0.0850696 27.6645
336 2 2.2208 11.0011 20.3585 13.8899
721 2 2.2208 5.37338 22.9178 5.15681
723 1 -1.1104 1.18396 24.2966 1.10704
724 1 -1.1104 1.08475 24.502 3.99965
725 1 -1.1104 1.00539 21.5555 0.995859
727 2 2.2208 5.31579 25.7061 2.40366
728 1 -1.1104 1.00622 21.6978 3.75089
730 1 -1.1104 4.0024 24.4772 0.80993
731 2 2.2208 2.44768 22.9842 2.47467
733 1 -1.1104 3.87487 24.3822 3.44324
734 2 2.2208 2.52341 25.8261 5.30919
735 1 -1.1104 3.95545 21.4371 0.83788
737 1 -1.1104 3.69796 21.4735 3.72841
736 1 -1.1104 3.97384 27.3687 0.989078
862 1 -1.1104 0.95729 24.2636 6.62771
741 2 2.2208 -0.383421 22.8649 5.16249
726 1 -1.1104 0.998593 27.0706 0.970351
841 2 2.2208 -0.39777 42.697 2.38614
744 1 -1.1104 6.65356 21.5208 1.08071
738 1 -1.1104 4.01336 27.0681 3.91735
729 1 -1.1104 1.04085 27.1797 3.65496
869 1 -1.1104 3.86772 21.4816 6.54478
767 2 2.2208 13.629 28.6418 2.51251
1038 2 2.2208 -0.131513 28.6748 10.9381
1005 2 2.2208 -0.227633 39.7719 10.7801
745 1 -1.1104 6.56435 27.3122 1.01198
742 1 -1.1104 6.98375 24.3871 1.09536
747 1 -1.1104 6.82002 27.0974 3.68928
743 1 -1.1104 6.74363 24.1873 3.68774
746 1 -1.1104 6.4723 21.2883 3.96605
748 2 2.2208 10.834 22.9223 5.19491
750 1 -1.1104 12.5955 24.2944 1.04581
751 1 -1.1104 12.4242 24.188 3.65729
752 1 -1.1104 12.4518 21.3732 0.867418
754 2 2.2208 10.979 25.7265 2.51003
755 1 -1.1104 12.3225 21.4076 3.56796
757 1 -1.1104 9.74478 24.3639 1.29229
758 2 2.2208 8.16129 22.8996 2.36253
760 1 -1.1104 9.57886 24.4169 3.88687
761 2 2.2208 8.13666 25.7919 5.01329
762 1 -1.1104 9.60726 21.3218 1.27395
764 1 -1.1104 9.45637 21.3332 4.05435
753 1 -1.1104 12.3397 27.1734 1.2131
898 1 -1.1104 9.5042 24.2199 6.62225
756 1 -1.1104 12.4437 26.925 3.91671
895 1 -1.1104 12.3867 24.5006 6.47746
763 1 -1.1104 9.51625 27.214 0.704978
899 1 -1.1104 9.35537 21.2773 6.82068
1053 2 2.2208 -0.162881 34.3012 -0.434209
900 1 -1.1104 9.50201 26.9654 6.4411
840 2 2.2208 -0.404189 45.4856 5.07249
739 2 2.2208 -0.403981 25.7256 2.48104
722 2 2.2208 5.30279 28.5088 5.28444
732 2 2.2208 2.48388 28.5277 2.3832
770 1 -1.1104 0.820856 29.9554 0.918215
773 1 -1.1104 1.19503 29.9545 3.71364
776 1 -1.1104 1.03224 32.9098 0.912272
777 2 2.2208 5.38 31.4218 2.37248
779 1 -1.1104 0.914189 32.6572 3.99596
781 1 -1.1104 3.83548 30.0712 0.942353
784 1 -1.1104 4.07645 30.0292 3.71026
786 2 2.2208 2.64376 31.2872 5.23306
788 1 -1.1104 3.8933 32.9034 1.00036
789 1 -1.1104 3.85287 32.7525 3.80507
740 2 2.2208 -0.376509 28.6164 5.35447
791 2 2.2208 -0.349833 31.2774 2.59754
915 1 -1.1104 1.03497 29.9809 6.45212
923 1 -1.1104 3.95286 32.6761 6.70945
921 1 -1.1104 4.05399 29.8927 6.64882
1070 2 2.2208 2.65064 45.418 13.6459
1017 2 2.2208 10.9997 42.7423 8.07791
917 1 -1.1104 6.65647 30.0349 6.68243
795 1 -1.1104 6.77589 32.7058 1.07295
793 1 -1.1104 6.55845 29.9719 0.948007
794 1 -1.1104 6.75552 29.8687 3.7312
765 1 -1.1104 9.63521 27.2913 3.49048
780 1 -1.1104 6.81581 32.849 3.80888
749 2 2.2208 10.9086 28.5326 5.23399
759 2 2.2208 8.17985 28.6536 2.28732
797 1 -1.1104 12.2802 30.0389 1.03582
799 1 -1.1104 12.4494 30.0422 3.82619
801 1 -1.1104 12.2105 32.869 0.936872
802 2 2.2208 10.7713 31.4886 2.49923
804 1 -1.1104 12.0086 32.873 3.84426
805 1 -1.1104 9.52784 29.9989 0.898298
808 1 -1.1104 9.67733 29.8491 3.70011
810 2 2.2208 8.05404 31.3312 5.18923
812 1 -1.1104 9.41134 32.6967 1.19926
813 1 -1.1104 9.22313 32.5956 3.69727
954 1 -1.1104 9.54512 32.624 6.6168
949 1 -1.1104 12.3775 30.0191 6.41892
1032 2 2.2208 13.6223 31.5734 5.14065
1067 2 2.2208 -0.40415 42.6681 13.5382
769 2 2.2208 5.39242 34.1703 5.21328
771 1 -1.1104 1.06403 35.647 0.929176
774 1 -1.1104 0.895577 35.4617 3.67836
778 2 2.2208 5.30701 36.8225 2.37013
782 1 -1.1104 4.00652 35.5649 0.698967
783 2 2.2208 2.35919 34.2454 2.33352
785 1 -1.1104 3.93838 35.347 3.72303
787 2 2.2208 2.42627 36.9886 5.15935
815 2 2.2208 5.34087 39.9274 5.17889
821 1 -1.1104 1.13339 38.4514 0.747463
826 1 -1.1104 0.967746 38.342 3.73621