ITEM: TIMESTEP
80000
ITEM: NUMBER OF ATOMS
17704
ITEM: BOX BOUNDS pp pp pp
-4.4356483829978238e-01 2.7783564838298783e+01
-5.4497935999295244e+00 3.3352979359991707e+02
-4.3326393160782217e-01 2.7773263931607325e+01
ITEM: ATOMS id type q x y z
1 2 2.2208 5.10042 0.311955 5.19324
2 1 -1.1104 0.852275 -4.01911 1.15112
6 1 -1.1104 0.828846 -3.92189 3.99015
10 1 -1.1104 0.713288 -1.18246 1.00786
12 2 2.2208 4.87915 -2.49952 2.4667
14 1 -1.1104 0.851875 -1.1216 3.94926
16 1 -1.1104 3.43767 -3.88117 0.867836
18 2 2.2208 2.22783 0.357674 2.40215
19 1 -1.1104 3.77037 -4.03239 3.66064
21 2 2.2208 2.08354 -2.5469 5.28896
23 1 -1.1104 3.55049 -0.99987 0.813092
24 1 -1.1104 3.66153 -1.15025 3.75444
15 1 -1.1104 6.51213 -1.10723 3.72735
8 1 -1.1104 6.18809 -3.9141 3.67406
11 1 -1.1104 6.41579 -1.36372 0.97303
166 1 -1.1104 0.704753 -3.94298 6.65592
50 2 2.2208 13.2685 -2.72166 5.14126
168 1 -1.1104 6.29711 -3.87545 6.48881
170 1 -1.1104 0.80149 -1.16773 6.74669
172 1 -1.1104 3.48214 -4.06218 6.45395
4 1 -1.1104 6.45688 -4.13135 0.98293
53 2 2.2208 13.4542 11.4583 7.96554
31 2 2.2208 10.4914 0.25003 5.23154
32 1 -1.1104 11.9096 -4.15444 1.02516
34 1 -1.1104 11.8444 -4.12292 3.74737
36 1 -1.1104 11.9292 -1.32806 0.895564
37 2 2.2208 10.5175 -2.66522 2.49138
39 1 -1.1104 11.9191 -1.25348 3.70875
40 1 -1.1104 9.17024 -3.86429 1.09836
42 2 2.2208 7.83705 0.324729 2.63166
43 1 -1.1104 9.14968 -4.01188 3.71169
45 2 2.2208 7.72117 -2.77886 5.12862
47 1 -1.1104 9.11747 -1.1868 1.25563
48 1 -1.1104 9.38118 -1.19759 3.82203
28 2 2.2208 13.3912 19.7968 10.7592
9010 2 2.2208 7.60451 -5.38942 7.99536
210 1 -1.1104 9.12849 -1.10266 6.47213
49 2 2.2208 13.4759 0.114186 2.43335
207 1 -1.1104 12.0959 -1.27382 6.6183
208 1 -1.1104 9.06538 -4.07159 6.54167
340 2 2.2208 10.5451 17.291 -0.378024
3 1 -1.1104 0.827361 1.69873 1.20215
7 1 -1.1104 0.713394 1.81802 3.86548
13 2 2.2208 4.94256 3.18966 2.39898
17 1 -1.1104 3.53181 1.80516 1.02119
20 1 -1.1104 3.80447 1.56059 3.95115
22 2 2.2208 2.37579 3.00323 5.15623
54 2 2.2208 5.00083 5.92522 5.48069
58 1 -1.1104 0.656068 7.34981 3.75506
60 1 -1.1104 0.538989 4.38366 0.77008
67 1 -1.1104 0.906976 4.60192 3.46183
72 2 2.2208 2.19456 6.08959 2.37811
76 1 -1.1104 3.51729 4.55828 1.04402
79 1 -1.1104 3.65026 4.59002 3.85686
71 1 -1.1104 3.84984 7.44143 1.52027
56 1 -1.1104 0.89952 7.15126 0.804614
74 1 -1.1104 3.6709 7.36035 4.13849
5 1 -1.1104 6.37945 1.4984 1.14849
59 1 -1.1104 6.42332 7.24826 3.97819
63 1 -1.1104 6.39225 4.3033 0.951126
69 1 -1.1104 6.33485 4.47098 3.99962
9 1 -1.1104 6.6677 1.71077 4.12098
57 1 -1.1104 6.42 7.36341 1.15308
167 1 -1.1104 0.945945 1.5643 6.67519
239 1 -1.1104 3.41242 4.66418 6.68152
235 1 -1.1104 6.4718 7.26246 6.71122
237 1 -1.1104 6.36666 4.56939 6.87527
165 2 2.2208 13.4814 17.1182 2.43013
105 2 2.2208 13.4108 5.91902 2.32604
9008 2 2.2208 4.96775 -5.27381 10.8827
33 1 -1.1104 12.3035 1.63294 1.08522
35 1 -1.1104 12.1565 1.74931 3.8547
38 2 2.2208 10.7651 3.14442 2.49177
41 1 -1.1104 9.428 1.64967 1.13488
44 1 -1.1104 9.46804 1.7773 3.88271
46 2 2.2208 7.84897 3.16018 5.47948
84 2 2.2208 10.8106 6.0111 5.30435
87 1 -1.1104 12.2167 7.33071 3.87984
88 1 -1.1104 12.0154 4.33282 0.762652
92 1 -1.1104 12.1877 4.5017 3.66578
94 1 -1.1104 9.1922 7.42602 0.97168
95 2 2.2208 7.74607 5.87758 2.645
99 1 -1.1104 9.28035 4.68924 1.4741
102 1 -1.1104 9.06709 4.49247 4.07037
97 1 -1.1104 9.53359 7.53736 3.86094
86 1 -1.1104 12.1913 7.20203 0.848466
233 2 2.2208 13.6096 2.9172 5.28665
266 1 -1.1104 11.9664 4.47135 6.69931
55 2 2.2208 4.77441 11.4606 5.2233
61 1 -1.1104 0.974663 10.0168 1.09935
66 2 2.2208 5.16041 8.80492 2.63814
68 1 -1.1104 0.694898 10.3135 3.60401
73 2 2.2208 2.25467 11.6089 2.25485
75 2 2.2208 2.04084 8.57888 5.30772
77 1 -1.1104 3.75746 10.2382 0.835347
80 1 -1.1104 3.60694 10.21 3.68922
107 1 -1.1104 0.563037 13.0438 1.00502
113 1 -1.1104 0.523214 13.047 3.86633
123 1 -1.1104 3.5191 13.0283 1.19757
128 1 -1.1104 3.488 13.0521 4.00444
115 1 -1.1104 6.25912 13.0174 4.03395
70 1 -1.1104 6.46916 10.1678 3.81763
110 1 -1.1104 6.25995 12.9246 1.13721
64 1 -1.1104 6.55971 10.1654 0.986785
636 2 2.2208 2.41885 8.69731 -0.265847
78 1 -1.1104 3.28687 10.1637 6.61922
690 2 2.2208 4.97207 17.1658 -0.380016
232 2 2.2208 13.4105 8.55279 5.35531
85 2 2.2208 10.4868 11.5104 5.24184
89 1 -1.1104 12.1482 10.262 1.16834
91 2 2.2208 10.5079 8.8933 2.33109
93 1 -1.1104 11.8837 10.0081 3.7813
96 2 2.2208 7.72167 11.6669 2.4091
98 2 2.2208 7.85178 8.79035 5.35812
100 1 -1.1104 9.24956 10.2772 0.936357
103 1 -1.1104 9.05703 10.2589 3.72332
142 1 -1.1104 11.9559 13.1531 1.15763
146 1 -1.1104 11.9179 12.765 3.85654
153 1 -1.1104 9.21077 13.0198 1.02757
158 1 -1.1104 9.03239 13.0826 3.77006
104 2 2.2208 13.5351 11.5076 2.70215
572 2 2.2208 2.25729 3.17414 -0.381003
9001 2 2.2208 2.15607 -5.36505 2.40326
130 2 2.2208 1.87077 14.3875 5.23523
119 2 2.2208 4.91987 14.3953 2.49085
106 2 2.2208 4.91384 17.2432 5.16043
109 1 -1.1104 0.631541 18.5439 0.81646
114 1 -1.1104 0.545457 18.4843 3.7346
116 1 -1.1104 0.796647 15.8296 0.873399
120 2 2.2208 4.95808 19.9903 2.48156
121 1 -1.1104 0.513611 15.6846 3.80709
125 1 -1.1104 3.55674 18.6842 0.904544
127 2 2.2208 1.91785 17.1049 2.28975
129 1 -1.1104 3.51993 18.5319 3.83377
131 2 2.2208 2.07975 19.8896 5.05081
132 1 -1.1104 3.44371 15.7536 1.04379
134 1 -1.1104 3.58089 15.8296 3.93852
140 1 -1.1104 6.36696 15.7645 1.06412
139 1 -1.1104 6.27295 18.7381 3.81873
138 1 -1.1104 6.20754 18.405 1.08252
122 1 -1.1104 6.52705 15.8109 3.83305
133 1 -1.1104 3.62623 15.8705 6.54163
112 1 -1.1104 6.24132 18.4402 6.65801
9004 2 2.2208 7.79358 -5.50133 2.48408
637 2 2.2208 5.14527 11.7561 -0.402809
602 2 2.2208 7.92922 2.90765 -0.082491
231 2 2.2208 13.4823 19.8649 4.983
150 2 2.2208 10.6349 14.2651 2.64023
160 2 2.2208 7.66928 14.3552 5.38057
141 2 2.2208 10.825 17.1241 5.43246
144 1 -1.1104 12.0958 18.7592 1.13847
147 1 -1.1104 11.9426 18.436 3.88202
148 1 -1.1104 12.0119 15.8933 1.17777
151 2 2.2208 10.4991 19.8607 2.34294
152 1 -1.1104 11.9904 15.5398 4.22972
155 1 -1.1104 9.30117 18.4218 0.980582
157 2 2.2208 7.7868 17.1816 2.32696
159 1 -1.1104 9.22712 18.7908 3.9282
161 2 2.2208 7.67237 19.9194 5.23194
162 1 -1.1104 9.21082 15.7976 1.07691
164 1 -1.1104 9.37308 15.892 3.82553
149 1 -1.1104 11.9287 15.9221 6.96907
610 2 2.2208 13.4528 2.99994 -0.347682
156 1 -1.1104 9.2315 18.5442 6.77162
204 2 2.2208 13.3793 14.2223 5.23306
171 1 -1.1104 6.34363 -1.25246 6.68455
324 2 2.2208 10.681 19.8294 8.03141
174 1 -1.1104 3.35041 -1.10449 6.80019
175 2 2.2208 5.10767 0.313129 10.9886
176 1 -1.1104 0.711376 -3.89098 12.2235
180 1 -1.1104 0.744857 -3.94915 9.17224
184 1 -1.1104 1.03308 -1.13555 12.1399
186 2 2.2208 4.7635 -2.60873 7.93955
188 1 -1.1104 0.655047 -1.25564 9.57738
190 1 -1.1104 3.6077 -3.90173 12.2321
192 2 2.2208 2.25776 0.275525 8.11663
193 1 -1.1104 3.45096 -3.96857 9.494
195 2 2.2208 2.27155 -2.50201 10.7317
197 1 -1.1104 3.87925 -1.02064 12.3825
198 1 -1.1104 3.72819 -1.10362 9.38293
178 1 -1.1104 6.3646 -3.93523 12.1922
185 1 -1.1104 6.51102 -1.16983 12.1878
182 1 -1.1104 6.52521 -3.88354 9.16259
189 1 -1.1104 6.60008 -1.0081 9.60625
600 2 2.2208 10.8139 0.112695 -0.387336
315 1 -1.1104 9.05985 15.578 12.2352
9041 2 2.2208 7.65721 -5.43337 13.7228
205 1 -1.1104 11.9825 -4.05808 6.4512
229 2 2.2208 13.3487 0.0812046 8.05518
211 2 2.2208 10.7569 0.138317 10.8081
212 1 -1.1104 12.013 -4.32349 12.4305
214 1 -1.1104 12.1052 -4.14667 9.53975
216 1 -1.1104 12.096 -1.35801 12.2965
217 2 2.2208 10.7366 -2.56178 7.93769
219 1 -1.1104 12.2369 -1.43012 9.36212
220 1 -1.1104 9.21303 -4.01599 12.134
222 2 2.2208 7.79163 0.350399 8.11954
223 1 -1.1104 9.15025 -3.99304 9.32171
225 2 2.2208 7.88836 -2.50234 10.8066
227 1 -1.1104 9.52762 -1.25792 12.1234
228 1 -1.1104 9.34957 -1.28984 9.13207
230 2 2.2208 13.4451 -2.78352 11.0314
9012 2 2.2208 13.6083 -5.47961 8.12594
327 1 -1.1104 12.0975 18.4045 9.33455
163 1 -1.1104 9.10988 15.5944 6.77563
238 1 -1.1104 3.58966 7.37072 6.89133
169 1 -1.1104 6.44349 1.70535 6.77247
145 1 -1.1104 12.182 18.6689 6.56691
236 1 -1.1104 0.643679 4.33965 6.50622
173 1 -1.1104 3.64333 1.91878 6.70174
234 1 -1.1104 0.64976 7.13207 6.6692
177 1 -1.1104 0.732832 1.67721 12.2161
181 1 -1.1104 0.729719 1.60181 9.66974
187 2 2.2208 4.92415 3.37174 8.28729
191 1 -1.1104 3.62826 1.80447 12.3067
194 1 -1.1104 3.58317 1.76756 9.41882
196 2 2.2208 2.13302 3.10611 10.8877
240 2 2.2208 4.96371 5.93277 10.8893
242 1 -1.1104 0.630775 7.17139 12.3673
244 1 -1.1104 0.691593 7.24879 9.52606
246 1 -1.1104 0.844088 4.54914 12.2647
251 1 -1.1104 0.552743 4.47491 9.44002
256 2 2.2208 1.96285 5.90615 8.05589
260 1 -1.1104 3.61716 4.55444 12.286
262 1 -1.1104 3.45767 4.59587 9.4814
258 1 -1.1104 3.32245 7.22962 9.49467
245 1 -1.1104 6.19185 7.32782 9.4973
243 1 -1.1104 6.42491 7.2582 12.3756
179 1 -1.1104 6.65566 1.65084 12.4588
248 1 -1.1104 6.24999 4.37761 12.3077
183 1 -1.1104 6.39086 1.67787 9.58166
253 1 -1.1104 6.29937 4.62519 9.56637
203 2 2.2208 13.4493 2.95296 10.8508
321 1 -1.1104 9.11172 18.2497 12.4269
269 1 -1.1104 9.2308 4.64993 6.84094
206 1 -1.1104 11.8021 1.54638 6.70399
265 1 -1.1104 12.1805 7.33424 6.70823
202 2 2.2208 13.3986 5.86737 8.12586
331 2 2.2208 10.7253 17.1032 10.893
209 1 -1.1104 9.18468 1.90683 6.68331
267 1 -1.1104 9.35677 7.27088 6.70553
213 1 -1.1104 12.0671 1.60867 12.1373
215 1 -1.1104 12.0006 1.44325 9.43745
218 2 2.2208 10.5908 3.047 8.14247
221 1 -1.1104 9.24546 1.44075 12.2732
224 1 -1.1104 9.13197 1.51321 9.56087
226 2 2.2208 7.77106 2.97036 10.998
268 1 -1.1104 9.08974 4.45243 9.75846
271 1 -1.1104 8.88058 4.47705 12.4358
273 1 -1.1104 9.17134 7.24181 9.68202
275 2 2.2208 7.7836 5.84062 8.18852
276 2 2.2208 10.6709 5.98172 11.0198
279 1 -1.1104 11.7607 7.44764 9.60829
280 1 -1.1104 11.7496 4.56337 12.3518
283 1 -1.1104 11.9603 4.59093 9.46406
278 1 -1.1104 12.0236 7.41697 12.3789
285 1 -1.1104 9.22467 7.22207 12.4461
124 1 -1.1104 3.45865 12.9734 6.60752
255 1 -1.1104 3.31722 7.43627 12.2728
111 1 -1.1104 6.29301 12.8598 6.71995
62 1 -1.1104 0.565143 9.96024 6.79931
65 1 -1.1104 6.04592 10.0363 6.65596
108 1 -1.1104 0.543999 12.7789 6.71619
241 2 2.2208 4.90016 11.3801 10.8257
247 1 -1.1104 0.7449 9.97984 12.4069
250 2 2.2208 4.92743 8.6338 8.0458
252 1 -1.1104 0.722218 10.0014 9.54872
257 2 2.2208 2.02842 11.5534 7.97872
259 2 2.2208 2.15269 8.67028 10.9298
261 1 -1.1104 3.61411 10.0174 12.1802
263 1 -1.1104 3.50577 10.2389 9.34209
287 1 -1.1104 3.55623 12.9136 12.1625
294 1 -1.1104 0.646503 12.9473 9.42841
299 1 -1.1104 0.590879 12.7821 12.1635
305 1 -1.1104 3.67184 13.05 9.32009
297 1 -1.1104 6.23921 12.9738 12.3256
249 1 -1.1104 6.31178 10.2829 12.2652
254 1 -1.1104 6.26636 10.0639 9.50198
290 1 -1.1104 6.63925 12.8317 9.48403
318 1 -1.1104 9.07081 18.4112 9.46719
52 2 2.2208 13.4984 8.71873 10.913
154 1 -1.1104 9.10194 12.9711 6.66344
143 1 -1.1104 12.0145 13.1256 6.6547
90 1 -1.1104 12.0539 10.2139 6.66079
101 1 -1.1104 9.01214 10.262 6.74337
323 1 -1.1104 11.8789 15.3789 9.65459
330 1 -1.1104 11.8834 13.2447 12.5175
328 1 -1.1104 12.0137 12.9321 9.49177
322 1 -1.1104 9.08569 13.0522 12.4106
319 1 -1.1104 9.29367 12.69 9.40032
264 1 -1.1104 9.04635 9.79426 9.66087
270 1 -1.1104 9.17582 10.3175 12.4488
272 2 2.2208 7.72949 8.63996 11.0527
274 2 2.2208 7.65717 11.5337 8.10749
277 2 2.2208 10.6745 11.5991 10.9721
281 1 -1.1104 12.0504 10.269 12.3656
282 2 2.2208 10.5334 8.75005 8.22703
284 1 -1.1104 11.9565 10.2099 9.5347
314 1 -1.1104 9.12332 15.3589 9.40187
117 1 -1.1104 0.709801 15.5747 6.72752
118 1 -1.1104 6.35185 15.6161 6.59095
302 1 -1.1104 0.50259 18.6398 6.64757
126 1 -1.1104 3.41532 18.6827 6.57021
296 1 -1.1104 6.1725 18.498 12.1797
295 2 2.2208 4.92259 14.3135 8.01579
310 2 2.2208 2.1924 14.1632 10.8002
304 1 -1.1104 3.53717 15.7484 9.28735
303 2 2.2208 2.13515 17.2114 7.90798
301 1 -1.1104 3.33418 18.6747 9.40867
307 1 -1.1104 0.543666 15.6191 12.1555
309 2 2.2208 2.00789 19.9262 10.803
308 1 -1.1104 3.30747 15.5584 12.1859
286 1 -1.1104 3.45591 18.2036 12.054
291 1 -1.1104 0.521191 18.7576 9.52655
292 1 -1.1104 0.805993 16.0484 9.63893
293 2 2.2208 4.7566 19.8501 8.0745
298 1 -1.1104 0.490111 18.5778 12.3616
300 2 2.2208 4.9164 16.996 10.736
288 1 -1.1104 6.38691 18.3141 9.4504
306 1 -1.1104 6.16047 15.582 12.2249
289 1 -1.1104 6.35601 15.6028 9.26953
325 2 2.2208 10.6427 14.2725 8.14685
9002 2 2.2208 4.89978 -5.28625 5.23057
320 2 2.2208 7.89889 16.8122 7.98988
317 2 2.2208 7.82733 14.2539 10.8599
329 1 -1.1104 12.0819 18.7378 12.0704
316 2 2.2208 7.61459 19.7351 10.8115
326 1 -1.1104 11.9269 15.9235 12.3552
333 2 2.2208 13.5255 14.2446 10.9319
660 2 2.2208 10.6047 5.77788 -0.183803
717 2 2.2208 7.78341 14.3755 -0.462706
332 2 2.2208 13.4465 17.1002 8.06911
635 2 2.2208 5.13105 5.89571 -0.418273
383 2 2.2208 5.08595 -2.61525 13.687
9005 2 2.2208 10.6052 -5.35914 5.25277
661 2 2.2208 7.89091 8.85716 -0.249093
545 2 2.2208 13.4653 0.207923 13.5778
342 2 2.2208 13.5235 14.4334 -0.216955
515 2 2.2208 2.12866 16.9191 13.5539
479 2 2.2208 7.66145 5.8636 13.7355
341 2 2.2208 13.5359 19.9103 -0.20289
689 2 2.2208 2.32426 20.0248 -0.46141
9130 2 2.2208 5.01153 -5.44834 -0.29154
9093 2 2.2208 10.3779 -5.40069 -0.318092
339 2 2.2208 7.78057 19.8957 -0.361163
517 2 2.2208 4.9143 14.206 13.6707
416 2 2.2208 7.92601 0.161544 13.6416
336 2 2.2208 10.3824 19.8553 13.6416
418 2 2.2208 10.5359 2.97083 13.6218
601 2 2.2208 7.68647 -2.66152 -0.222689
662 2 2.2208 10.5803 11.6242 -0.374879
343 2 2.2208 4.87105 0.0705109 16.5128
344 1 -1.1104 0.600538 -4.0604 17.7692
348 1 -1.1104 0.631735 -4.02754 15.0334
356 1 -1.1104 0.908094 -1.31677 17.9953
358 2 2.2208 5.02393 -2.81745 19.268
360 1 -1.1104 0.771189 -1.35506 14.9315
364 1 -1.1104 3.71909 -4.1943 17.7097
366 2 2.2208 2.26419 0.114745 19.3077
367 1 -1.1104 3.69302 -4.17297 14.7988
371 2 2.2208 2.04076 -2.78547 16.4712
373 1 -1.1104 3.52952 -1.58104 17.8281
374 1 -1.1104 3.49489 -1.37934 15.1315
361 1 -1.1104 1.06325 -1.24923 20.7156
357 1 -1.1104 6.30578 -1.12832 17.8055
362 1 -1.1104 6.44446 -1.35117 15.0098
346 1 -1.1104 6.49287 -3.91378 17.9648
352 1 -1.1104 6.50428 -4.21468 15.2374
580 2 2.2208 -0.470656 0.113912 22.1376
454 2 2.2208 2.16688 11.443 13.7055
386 2 2.2208 10.7905 0.217523 16.4947
387 1 -1.1104 11.8593 -4.13923 18.1171
389 1 -1.1104 12.1452 -3.94797 15.1616
393 1 -1.1104 12.1334 -1.15797 18.0751
394 2 2.2208 10.6109 -2.56986 19.3389
396 1 -1.1104 12.0899 -1.36426 15.0089
398 1 -1.1104 8.96292 -4.12635 17.6895
400 2 2.2208 7.91198 0.304816 19.2329
401 1 -1.1104 9.36581 -4.2472 14.8759
405 2 2.2208 7.76692 -2.5604 16.497
407 1 -1.1104 9.37618 -0.967442 17.9085
408 1 -1.1104 9.25561 -1.42326 15.0608
544 2 2.2208 13.5338 0.186506 19.3353
335 2 2.2208 4.94187 19.8631 13.7218
402 1 -1.1104 9.08552 -3.87257 20.5923
691 2 2.2208 2.09539 14.3863 27.8045
414 2 2.2208 13.493 -2.8351 16.4757
345 1 -1.1104 0.963439 1.43464 17.9643
350 1 -1.1104 0.919726 1.37539 14.9822
359 2 2.2208 5.02424 3.21924 19.3318
365 1 -1.1104 3.73639 1.49067 17.9395
369 1 -1.1104 3.77138 1.79278 15.2344
372 2 2.2208 2.17368 3.01877 16.483
419 2 2.2208 5.17686 6.08233 16.3942
421 1 -1.1104 0.640245 6.93655 17.8801
423 1 -1.1104 0.535606 7.35398 15.1513
427 1 -1.1104 0.844466 4.31331 17.9136
432 1 -1.1104 0.757814 4.34026 15.1316
441 2 2.2208 2.12055 5.70885 19.1748
446 1 -1.1104 3.71002 4.34874 17.827
448 1 -1.1104 3.52395 4.56231 14.9305
440 1 -1.1104 3.58796 7.21773 18.2513
443 1 -1.1104 3.73872 7.31263 15.1692
354 1 -1.1104 6.39475 1.28427 15.0107
422 1 -1.1104 6.27343 7.24082 18.051
425 1 -1.1104 6.54896 7.2361 15.1527
436 1 -1.1104 6.30641 4.2788 15.149
351 1 -1.1104 0.863363 1.37947 20.7723
355 1 -1.1104 6.42969 1.97039 21.1182
437 1 -1.1104 6.37274 4.58288 20.8396
382 2 2.2208 13.286 8.66553 16.583
347 1 -1.1104 6.40664 1.58335 17.891
429 1 -1.1104 6.3563 4.58041 17.7414
388 1 -1.1104 12.0595 1.5536 17.8672
391 1 -1.1104 12.0693 1.73675 14.9441
395 2 2.2208 10.7067 2.97564 19.487
399 1 -1.1104 9.40692 1.88643 17.818
403 1 -1.1104 9.31117 1.5529 15.0395
406 2 2.2208 7.80765 3.00148 16.5144
455 2 2.2208 10.5229 5.59946 16.5956
460 1 -1.1104 12.0301 4.35569 17.9342
463 1 -1.1104 12.1356 4.63 15.054
468 2 2.2208 7.74308 5.82632 19.4449
470 1 -1.1104 9.30456 7.16252 15.2846
473 1 -1.1104 9.06748 4.40827 18.1022
475 1 -1.1104 9.2168 4.50394 15.0171
467 1 -1.1104 9.14932 7.21753 18.0862
457 1 -1.1104 12.0422 7.52051 18.2441
458 1 -1.1104 12.0641 7.38645 15.322
392 1 -1.1104 12.0321 1.65154 21.0637
464 1 -1.1104 11.9286 4.39031 20.654
606 2 2.2208 13.3987 6.01581 19.5128
715 2 2.2208 13.5077 3.09657 16.5558
404 1 -1.1104 9.10752 1.26372 20.675
377 2 2.2208 13.4994 8.58946 22.2898
420 2 2.2208 5.08332 11.6029 16.5563
428 1 -1.1104 0.86053 9.7089 18.1458
431 2 2.2208 4.95638 8.7173 19.3859
434 1 -1.1104 0.674104 10.128 15.2293
442 2 2.2208 2.05718 11.5218 19.3729
445 2 2.2208 2.21399 8.80516 16.5344
447 1 -1.1104 3.70202 9.9928 17.859
450 1 -1.1104 3.62245 10.1008 15.0488
483 1 -1.1104 0.784485 12.7403 17.8106
487 1 -1.1104 0.562982 12.9764 14.9326
503 1 -1.1104 3.53798 12.8096 17.9407
506 1 -1.1104 3.47936 12.7859 15.0508
438 1 -1.1104 6.34033 10.2879 15.0816
430 1 -1.1104 6.33813 10.132 17.8242
491 1 -1.1104 6.4466 13.0985 15.136
485 1 -1.1104 6.43357 13.0049 17.8865
451 1 -1.1104 3.76216 10.0926 20.9539
492 1 -1.1104 6.63541 12.8853 20.7221
439 1 -1.1104 6.50876 9.92669 20.5786
507 1 -1.1104 3.67704 12.9573 20.6889
663 2 2.2208 13.4432 11.7465 25.0729
456 2 2.2208 10.6171 11.4208 16.542
461 1 -1.1104 11.9934 10.2925 18.0217
462 2 2.2208 10.4818 8.63407 19.5034
465 1 -1.1104 12.0704 10.231 15.2708
469 2 2.2208 7.68383 11.3973 19.3339
472 2 2.2208 7.83071 8.66147 16.5636
474 1 -1.1104 9.12749 10.136 18.0007
477 1 -1.1104 9.2317 9.82303 15.2484
519 1 -1.1104 12.3752 12.9338 18.0275
521 1 -1.1104 11.9062 13.0054 15.0795
530 1 -1.1104 9.26931 12.8634 17.9297
533 1 -1.1104 9.18526 12.7854 15.1979
605 2 2.2208 13.522 11.4056 19.4948
534 1 -1.1104 9.38207 12.9402 20.7079
478 1 -1.1104 9.25939 10.1704 20.7049
466 1 -1.1104 12.3565 10.1172 21.1214
9129 2 2.2208 4.99734 -5.3851 22.0387
716 2 2.2208 13.6589 14.3398 21.9756
453 2 2.2208 4.94204 8.85297 13.6635
452 2 2.2208 2.09803 5.92411 13.5599
497 2 2.2208 4.92944 14.2726 19.2605
510 2 2.2208 2.01353 14.2021 16.4575
482 2 2.2208 4.93799 17.0592 16.421
484 1 -1.1104 1.01279 18.427 17.9239
489 1 -1.1104 0.5926 18.4277 15.1018
495 1 -1.1104 0.696705 15.6729 17.8312
498 2 2.2208 5.00119 19.9132 19.2983
499 1 -1.1104 0.749561 15.5258 15.0975
504 1 -1.1104 3.61831 18.5892 17.9801
505 2 2.2208 2.19826 17.0836 19.3507
508 1 -1.1104 3.55358 18.3923 14.9321
511 2 2.2208 2.242 19.9268 16.3547
512 1 -1.1104 3.52452 15.5961 17.8775
513 1 -1.1104 3.69275 15.7848 15.0593
486 1 -1.1104 6.35698 18.4756 18.1623
501 1 -1.1104 6.33179 15.7554 14.8678
496 1 -1.1104 6.1864 15.6098 17.6676
493 1 -1.1104 6.46081 18.5672 15.1255
509 1 -1.1104 3.63482 18.5502 20.6882
514 1 -1.1104 3.63804 15.7571 20.7794
502 1 -1.1104 6.54223 15.6897 20.7469
381 2 2.2208 13.3913 6.15845 13.745
494 1 -1.1104 6.49252 18.3386 20.8171
415 2 2.2208 13.3102 20.0189 16.4501
574 2 2.2208 13.4732 14.4193 16.6448
526 2 2.2208 10.6566 14.3714 19.4121
9162 2 2.2208 7.70948 -5.42379 19.1161
537 2 2.2208 7.85463 14.2342 16.5434
518 2 2.2208 10.5435 17.1051 16.571
520 1 -1.1104 11.7619 18.7747 17.8184
525 1 -1.1104 12.2054 15.6946 18.0541
527 2 2.2208 10.5485 20.1111 19.1394
528 1 -1.1104 12.032 15.9102 15.2943
531 1 -1.1104 9.22148 18.4761 17.7781
532 2 2.2208 7.88398 16.898 19.2737
535 1 -1.1104 8.98146 18.2196 15.0738
538 2 2.2208 7.75284 19.7483 16.6386
539 1 -1.1104 9.08509 15.6453 17.941
540 1 -1.1104 9.24913 15.4552 15.1489
523 1 -1.1104 11.8375 18.5722 14.9031
536 1 -1.1104 9.26287 18.5758 20.5133
573 2 2.2208 13.5692 17.3103 19.2372
541 1 -1.1104 9.24408 15.8155 20.8087
706 1 -1.1104 12.1556 15.8853 26.62
604 2 2.2208 13.3945 11.6079 13.7567
529 1 -1.1104 12.2509 15.8255 20.6252
718 2 2.2208 13.6032 20.1376 21.8188
349 1 -1.1104 0.451852 -4.18104 20.5506
368 1 -1.1104 3.72014 -4.27203 20.6683
363 1 -1.1104 6.44828 -1.13391 20.4836
708 2 2.2208 10.7499 14.4373 24.937
375 1 -1.1104 3.71539 -1.20913 20.644
353 1 -1.1104 6.4039 -3.93914 20.7311
546 2 2.2208 5.10516 0.319624 22.1339
547 1 -1.1104 0.806245 -3.91785 23.4287
551 1 -1.1104 0.651641 -3.94957 26.2097
555 1 -1.1104 0.948393 -1.14069 23.7285
557 2 2.2208 4.92131 -2.60696 25.0187
559 1 -1.1104 0.888993 -1.14385 26.5796
561 1 -1.1104 3.71138 -3.99111 23.4821
563 2 2.2208 2.19072 0.283073 24.9695
564 1 -1.1104 3.49349 -4.04292 26.4484
566 2 2.2208 2.36474 -2.55161 22.1893
568 1 -1.1104 3.49883 -1.15126 23.7978
569 1 -1.1104 3.5097 -1.05221 26.3836
560 1 -1.1104 6.37884 -1.15406 26.3662
553 1 -1.1104 6.25498 -4.20526 26.4147
556 1 -1.1104 6.36767 -1.03871 23.5781
549 1 -1.1104 6.41513 -3.88043 23.4883
696 1 -1.1104 9.20961 15.8709 26.2663
707 2 2.2208 10.7749 19.9056 24.8432
609 2 2.2208 13.5318 0.036556 24.9974
417 2 2.2208 10.739 -2.79243 13.7599
390 1 -1.1104 12.0166 -4.03028 20.7567
608 2 2.2208 13.3465 -2.60234 22.108
397 1 -1.1104 11.8432 -1.25801 20.8372
409 1 -1.1104 9.14081 -1.34491 20.7307
582 2 2.2208 10.6212 0.21083 22.2606
583 1 -1.1104 12.0185 -4.06362 23.5197
585 1 -1.1104 11.6979 -4.16752 26.5315
587 1 -1.1104 12.2491 -1.29594 23.5935
588 2 2.2208 10.4614 -2.78245 25.1444
590 1 -1.1104 12.1019 -1.26389 26.2454
591 1 -1.1104 9.354 -4.18578 23.4077
593 2 2.2208 7.79581 0.116519 25.1982
594 1 -1.1104 8.87382 -3.8809 26.4834
596 2 2.2208 7.79107 -2.58955 22.1538
598 1 -1.1104 9.25392 -1.4345 23.6175
599 1 -1.1104 9.27141 -1.15615 26.5006
704 1 -1.1104 9.29346 18.6697 23.525
426 1 -1.1104 6.42727 7.34303 20.8619
433 1 -1.1104 0.608145 4.40928 20.6834
444 1 -1.1104 3.61555 7.25063 20.8744
424 1 -1.1104 0.568637 7.35321 20.8269
370 1 -1.1104 3.51749 1.59872 20.6575
449 1 -1.1104 3.60191 4.58358 20.6889
548 1 -1.1104 0.827426 1.72322 23.5442
552 1 -1.1104 0.656809 1.64767 26.4509
558 2 2.2208 4.87403 3.04552 25.1697
562 1 -1.1104 3.65291 1.57545 23.507
565 1 -1.1104 3.46941 1.70573 26.2574
567 2 2.2208 2.17184 3.12208 22.2501
611 2 2.2208 5.11432 5.70878 22.2173
617 1 -1.1104 0.752893 4.58862 23.5861
622 1 -1.1104 0.885104 4.36113 26.2891
626 1 -1.1104 3.54722 7.27055 23.6838
627 2 2.2208 2.20398 5.94673 24.8685
629 1 -1.1104 3.7708 7.28451 26.6688
631 1 -1.1104 3.53118 4.36687 23.5826
633 1 -1.1104 3.6664 4.73678 26.3571
615 1 -1.1104 0.920619 7.25228 26.1705
624 1 -1.1104 6.51757 4.39067 26.5161
554 1 -1.1104 6.48745 1.77926 26.5465
619 1 -1.1104 6.09101 4.40199 23.7884
614 1 -1.1104 6.52783 7.27672 23.5957
616 1 -1.1104 6.52451 7.3644 26.449
613 1 -1.1104 0.583021 7.37103 23.483
550 1 -1.1104 6.45868 1.59286 23.909
543 2 2.2208 10.5554 14.4746 13.7468
338 2 2.2208 13.3432 17.154 13.7463
459 1 -1.1104 12.0191 7.03591 20.8547
476 1 -1.1104 9.14028 4.43596 20.746
378 2 2.2208 13.4476 3.02215 22.3173
665 2 2.2208 13.4184 5.8632 25.0314
471 1 -1.1104 9.25423 7.32146 20.9456
584 1 -1.1104 11.9946 1.34778 23.633
586 1 -1.1104 12.1392 1.28461 26.494
589 2 2.2208 10.6628 2.89099 25.1229
592 1 -1.1104 9.18331 1.44681 23.6956
595 1 -1.1104 9.39489 1.58683 26.5944
597 2 2.2208 7.78355 2.88058 22.4544
643 1 -1.1104 9.42094 4.21008 26.5081
645 1 -1.1104 9.02042 4.43061 23.754
647 1 -1.1104 9.15359 7.02756 26.5995
649 2 2.2208 7.73376 5.76304 25.0982
650 2 2.2208 10.6289 5.87486 22.2629
652 1 -1.1104 12.2218 7.19643 23.6684
653 1 -1.1104 12.004 7.32336 26.3524
654 1 -1.1104 11.9311 4.34115 23.537
657 1 -1.1104 12.0446 4.56015 26.3159
659 1 -1.1104 9.26881 7.2881 23.7078
698 2 2.2208 7.96256 19.9274 22.0633
435 1 -1.1104 0.805852 10.1172 20.8658
488 1 -1.1104 0.821393 12.9571 20.837
683 1 -1.1104 3.5277 13.1515 26.3904
672 1 -1.1104 0.987766 12.8854 26.1355
612 2 2.2208 5.01049 11.4775 22.2177
618 1 -1.1104 0.713453 10.1623 23.8057
621 2 2.2208 5.15319 8.67297 25.0123
623 1 -1.1104 1.17947 10.2102 26.6852
628 2 2.2208 2.24404 11.566 24.8453
630 2 2.2208 2.10406 8.80696 22.2294
632 1 -1.1104 3.56309 10.0189 23.4409
634 1 -1.1104 3.94658 10.3536 26.1138
668 1 -1.1104 3.71113 12.9145 23.7447
678 1 -1.1104 0.765932 13.0254 23.4825
676 1 -1.1104 6.3097 13.0941 23.4007
625 1 -1.1104 6.53033 10.1167 26.5807
667 1 -1.1104 6.5426 13.139 26.4773
620 1 -1.1104 6.49322 10.1401 23.7172
522 1 -1.1104 12.1197 12.7927 20.6369
713 1 -1.1104 11.9932 13.3388 23.2939
711 1 -1.1104 11.8876 13.1029 26.478
705 1 -1.1104 9.27649 12.9315 23.6313
701 1 -1.1104 9.37498 13.1041 26.4473
642 1 -1.1104 9.38894 10.1697 26.3967
644 1 -1.1104 9.18617 10.0536 23.5957
646 2 2.2208 7.91858 8.66872 22.1381
648 2 2.2208 8.04283 11.3635 25.074
651 2 2.2208 10.6638 11.6506 22.0623
655 1 -1.1104 11.8971 10.3591 23.7753
656 2 2.2208 10.6866 8.63171 24.9423
658 1 -1.1104 12.0769 10.3287 26.484
719 2 2.2208 13.5247 17.1984 24.9519
490 1 -1.1104 0.814568 18.4965 20.6034
684 1 -1.1104 6.33577 15.8578 23.4541
500 1 -1.1104 0.565481 15.6971 20.6529
688 2 2.2208 2.29704 14.2911 22.2483
675 2 2.2208 5.01326 14.4516 24.8688
687 2 2.2208 2.22583 19.8954 22.0495
686 1 -1.1104 3.63693 15.8903 23.486
685 1 -1.1104 0.985997 15.8891 23.377
677 1 -1.1104 0.842277 18.6683 23.3241
682 1 -1.1104 3.40502 15.7592 26.3456
674 2 2.2208 5.14152 20.1374 24.9417
681 2 2.2208 2.23078 17.2763 24.8589
679 2 2.2208 4.92265 17.2446 22.1754
680 1 -1.1104 3.68354 18.7069 26.2103
671 1 -1.1104 0.566382 15.7958 26.1702
670 1 -1.1104 0.687973 18.6863 26.2551
666 1 -1.1104 3.70489 18.7863 23.3991
669 1 -1.1104 6.38371 15.7107 26.2837
714 2 2.2208 10.7488 17.1406 22.1065
699 2 2.2208 7.77257 14.4659 22.0674
673 1 -1.1104 6.54574 18.7726 23.5269
712 1 -1.1104 12.2565 18.7547 23.4329
524 1 -1.1104 12.0987 18.7466 20.4975
702 1 -1.1104 6.38814 18.5841 26.4251
703 2 2.2208 7.68439 17.1327 24.7971
700 1 -1.1104 9.36325 18.6352 26.6591
709 1 -1.1104 11.9156 16.1037 23.7027
697 1 -1.1104 9.26504 15.8825 23.4166
710 1 -1.1104 12.1576 18.8342 26.2162
384 2 2.2208 2.34694 0.144517 13.6874
480 2 2.2208 10.631 8.6298 13.8238
9091 2 2.2208 7.76399 -5.32438 24.7641
337 2 2.2208 7.66137 16.9291 13.6828
9198 2 2.2208 13.3998 -5.36739 19.3311
664 2 2.2208 13.5604 8.78264 27.8207
385 2 2.2208 4.91785 3.03247 13.7854
607 2 2.2208 13.3047 -2.80212 27.7511
570 2 2.2208 4.82812 0.206005 27.7406
481 2 2.2208 7.86721 11.5634 13.6882
571 2 2.2208 2.12852 -2.68027 27.7092
721 2 2.2208 4.86734 22.7679 5.33236
723 1 -1.1104 0.778211 24.0615 0.952025
724 1 -1.1104 0.797451 24.2882 3.69619
725 1 -1.1104 0.839449 21.2404 0.952414
727 2 2.2208 4.93935 25.5637 2.46062
728 1 -1.1104 0.48003 21.318 3.69046
730 1 -1.1104 3.41348 24.2223 1.06561
731 2 2.2208 2.13683 22.7141 2.38017
733 1 -1.1104 3.59229 24.1782 4.01314
734 2 2.2208 2.08266 25.6401 5.18811
735 1 -1.1104 3.656 21.3125 1.01895
737 1 -1.1104 3.40081 21.3719 3.87598
743 1 -1.1104 6.1734 24.1683 4.03077
742 1 -1.1104 6.32508 23.9604 1.20964
744 1 -1.1104 6.3399 21.1582 0.983571
736 1 -1.1104 3.66755 27.1725 1.21211
866 1 -1.1104 6.41288 21.3028 6.60958
863 1 -1.1104 6.49896 23.9472 6.60505
738 1 -1.1104 3.42273 27.0086 3.95251
868 1 -1.1104 3.49725 24.3072 6.83417
862 1 -1.1104 0.544735 24.2057 6.83899
746 1 -1.1104 6.32976 21.399 3.69734
747 1 -1.1104 6.22956 27.0816 3.9594
726 1 -1.1104 0.920033 26.9581 1.02526
729 1 -1.1104 0.707963 27.2168 3.75932
864 1 -1.1104 0.660923 21.4194 6.71565
867 1 -1.1104 6.47819 26.7517 6.83349
748 2 2.2208 10.7279 22.7129 5.47752
750 1 -1.1104 12.1821 24.3149 1.03129
751 1 -1.1104 12.0822 24.0343 3.86319
752 1 -1.1104 12.1682 21.4083 0.975302
754 2 2.2208 10.6795 25.5965 2.42637
755 1 -1.1104 11.8931 21.3351 3.82335
757 1 -1.1104 9.31723 24.2612 0.926158
758 2 2.2208 7.96893 22.7645 2.59791
760 1 -1.1104 9.3593 24.2996 3.72646
761 2 2.2208 7.62907 25.5298 5.30978
762 1 -1.1104 9.20425 21.476 0.944987
764 1 -1.1104 9.19676 21.4623 3.92113
899 1 -1.1104 9.48989 21.435 6.66305
900 1 -1.1104 9.0526 26.9383 6.58492
898 1 -1.1104 9.16329 23.9657 6.59586
765 1 -1.1104 9.23702 27.0165 3.6907
896 1 -1.1104 12.4597 21.3443 6.59407
766 2 2.2208 13.3201 22.7722 2.31443
768 2 2.2208 13.3488 25.4246 5.2377
1051 2 2.2208 10.5015 28.3958 -0.395241
745 1 -1.1104 6.51215 26.8494 0.922964
722 2 2.2208 4.70198 28.7642 4.97879
732 2 2.2208 2.02183 28.54 2.32004
770 1 -1.1104 0.626625 29.9865 0.986857
773 1 -1.1104 0.686023 29.9602 3.87528
776 1 -1.1104 0.450802 32.65 1.1423
777 2 2.2208 4.97404 31.271 2.24429
779 1 -1.1104 0.576158 32.7135 3.92316
781 1 -1.1104 3.53674 29.9944 1.03797
784 1 -1.1104 3.26232 29.9415 3.80389
786 2 2.2208 2.06481 31.385 5.24793
788 1 -1.1104 3.57402 32.7796 0.969473
789 1 -1.1104 3.30115 32.6607 3.60799
793 1 -1.1104 6.26469 29.7387 0.909948
780 1 -1.1104 6.29713 32.6675 3.68178
795 1 -1.1104 6.29311 32.6684 0.824131
794 1 -1.1104 6.36556 30.0201 3.71457
1070 2 2.2208 1.99019 45.2058 13.6633
1046 2 2.2208 7.82572 31.1935 -0.285748
1033 2 2.2208 13.3288 42.8526 5.44749
756 1 -1.1104 12.0268 26.9609 3.81485
763 1 -1.1104 9.33827 26.91 0.934821
1048 2 2.2208 2.08078 25.6334 -0.271881
753 1 -1.1104 12.1696 27.3482 0.837906
767 2 2.2208 13.3292 28.5999 2.51642
749 2 2.2208 10.4776 28.3113 5.33825
759 2 2.2208 7.85535 28.2594 2.36836
797 1 -1.1104 11.589 30.0005 0.873689
799 1 -1.1104 11.8701 29.8265 3.75257
801 1 -1.1104 12.3044 32.6237 1.26794
802 2 2.2208 10.5023 31.3544 2.62385
804 1 -1.1104 12.0421 32.8113 3.91299
805 1 -1.1104 8.96351 29.7022 1.06401
808 1 -1.1104 9.23507 29.7471 3.73856
810 2 2.2208 7.59291 31.3774 5.11793
812 1 -1.1104 9.18361 32.6542 1.23094
813 1 -1.1104 9.28438 32.68 4.00757
949 1 -1.1104 12.0444 29.7377 6.47663
1032 2 2.2208 13.3464 31.5888 5.15909
1014 1 -1.1104 9.33392 41.0088 12.1489
952 1 -1.1104 9.47188 29.2969 7.15371
1010 2 2.2208 7.75994 42.6354 10.7642
1635 1 -1.1104 3.60855 46.912 12.1732
769 2 2.2208 4.93501 33.9967 5.16938
771 1 -1.1104 0.492668 35.4688 1.01027
774 1 -1.1104 0.557449 35.4612 3.86959
778 2 2.2208 4.84373 36.8576 2.48356
782 1 -1.1104 3.31505 35.5461 1.09579
783 2 2.2208 2.07093 34.1052 2.41108
785 1 -1.1104 3.42479 35.441 3.90831
787 2 2.2208 1.95297 36.9797 5.26496
815 2 2.2208 5.15158 39.7584 4.99549