ITEM: TIMESTEP
100000
ITEM: NUMBER OF ATOMS
17704
ITEM: BOX BOUNDS pp pp pp
-4.4423982081365748e-01 2.7784239820812843e+01
-5.4800906519542130e+00 3.3356009065193484e+02
-4.4984857753513796e-01 2.7789848577534730e+01
ITEM: ATOMS id type q x y z
1 2 2.2208 5.47949 0.239329 5.08611
2 1 -1.1104 1.16553 -4.01578 1.12301
6 1 -1.1104 1.08864 -3.93189 3.94474
10 1 -1.1104 1.22274 -1.14722 1.34233
12 2 2.2208 5.63961 -2.5281 2.4221
14 1 -1.1104 1.28752 -1.1695 3.96488
16 1 -1.1104 4.08805 -3.70746 1.03568
18 2 2.2208 2.573 0.356882 2.3274
19 1 -1.1104 4.02685 -3.8287 3.84601
21 2 2.2208 2.7042 -2.58652 5.29414
23 1 -1.1104 4.05652 -0.949205 0.941729
24 1 -1.1104 4.19347 -1.28157 3.98595
9002 2 2.2208 5.34971 -5.08344 5.24027
25 2 2.2208 -0.176108 -2.55937 2.61452
384 2 2.2208 2.66399 0.10744 13.6041
601 2 2.2208 8.43744 -2.70366 -0.247538
26 2 2.2208 -0.0314279 0.070882 5.31961
11 1 -1.1104 6.91952 -1.32381 1.03828
9008 2 2.2208 5.41395 -5.34557 10.8325
8 1 -1.1104 6.81755 -3.87713 3.91033
4 1 -1.1104 6.82678 -3.96438 1.17062
15 1 -1.1104 7.13302 -1.12828 3.70749
31 2 2.2208 11.338 0.250035 5.36857
32 1 -1.1104 12.4193 -4.08294 1.00418
34 1 -1.1104 12.587 -4.02638 3.99484
36 1 -1.1104 12.5142 -1.11946 1.10527
37 2 2.2208 11.1748 -2.61344 2.46041
39 1 -1.1104 12.6436 -1.29356 4.00151
40 1 -1.1104 9.57244 -3.97773 1.1792
42 2 2.2208 8.55978 0.318591 2.32752
43 1 -1.1104 9.54578 -4.07894 3.85601
45 2 2.2208 8.10543 -2.66407 5.3203
47 1 -1.1104 9.73529 -1.18814 1.0312
48 1 -1.1104 9.84516 -1.19996 3.71783
205 1 -1.1104 12.4121 -3.98282 6.7908
208 1 -1.1104 9.60197 -4.16516 6.89447
9132 2 2.2208 -0.19137 -5.25853 -0.397364
3 1 -1.1104 1.46892 1.78828 1.10108
7 1 -1.1104 1.06345 1.62491 4.1318
13 2 2.2208 5.49885 3.16342 2.60973
17 1 -1.1104 4.13911 1.59964 0.904087
20 1 -1.1104 4.07568 1.55007 3.86151
22 2 2.2208 2.71756 3.16751 5.47156
54 2 2.2208 5.62794 5.86345 5.2217
58 1 -1.1104 1.41317 7.00069 3.86311
60 1 -1.1104 1.46393 4.34635 1.02058
67 1 -1.1104 1.5885 4.40327 3.97371
72 2 2.2208 2.79768 5.82636 2.50185
76 1 -1.1104 4.16796 4.57289 1.17608
79 1 -1.1104 4.17515 4.47151 4.02378
71 1 -1.1104 4.2964 7.47339 0.918061
74 1 -1.1104 4.1274 7.24596 3.80513
56 1 -1.1104 1.37189 7.17717 0.968523
167 1 -1.1104 1.38879 1.62463 6.96094
27 2 2.2208 0.0810199 2.99387 2.64629
173 1 -1.1104 4.09631 1.76909 6.79515
239 1 -1.1104 4.39499 4.59914 6.79339
81 2 2.2208 -0.103733 5.92905 5.26004
9003 2 2.2208 -0.24082 -5.33649 5.3397
5 1 -1.1104 7.15896 1.54438 1.07227
59 1 -1.1104 7.07776 7.45459 3.76475
63 1 -1.1104 6.93405 4.53863 1.06688
57 1 -1.1104 6.99672 7.23915 0.887261
237 1 -1.1104 7.28594 4.47298 6.76962
9 1 -1.1104 6.85052 1.80378 3.8382
69 1 -1.1104 7.01977 4.54174 4.00766
33 1 -1.1104 12.7043 1.56843 1.35871
35 1 -1.1104 12.5098 1.6402 4.1491
38 2 2.2208 11.2555 3.1985 2.54593
41 1 -1.1104 10.0046 1.82626 1.06564
44 1 -1.1104 9.68025 1.73605 4.0175
46 2 2.2208 8.33928 3.10144 5.42271
84 2 2.2208 11.3897 5.87437 5.4096
87 1 -1.1104 12.6474 7.34878 4.02175
88 1 -1.1104 12.6098 4.45143 1.07021
92 1 -1.1104 12.673 4.38916 3.96271
94 1 -1.1104 9.87571 7.41057 1.01661
95 2 2.2208 8.56048 5.89388 2.45398
99 1 -1.1104 9.87923 4.47296 1.23422
102 1 -1.1104 9.72872 4.61546 4.07094
86 1 -1.1104 12.6902 7.28912 1.23177
97 1 -1.1104 9.78254 7.21312 3.90315
267 1 -1.1104 10.0189 7.12738 6.84749
209 1 -1.1104 9.86317 1.68635 6.68148
235 1 -1.1104 6.78124 7.22049 6.80703
269 1 -1.1104 9.99612 4.42668 6.73412
578 2 2.2208 -0.254618 0.346712 -0.260306
83 2 2.2208 0.000616344 11.4744 5.25855
55 2 2.2208 5.71348 11.4782 5.42462
61 1 -1.1104 1.38289 9.92692 0.884677
66 2 2.2208 5.68302 8.84647 2.35883
68 1 -1.1104 1.49799 10.113 3.82198
73 2 2.2208 2.72035 11.6161 2.41341
75 2 2.2208 2.7702 8.63718 5.41177
77 1 -1.1104 4.18473 10.0724 1.04095
80 1 -1.1104 4.25092 10.0711 3.936
107 1 -1.1104 1.26125 12.9174 1.03858
113 1 -1.1104 1.60624 12.9473 3.86057
123 1 -1.1104 4.05749 12.8898 1.06186
128 1 -1.1104 4.38332 12.8706 4.02801
108 1 -1.1104 1.43351 13.019 6.88239
82 2 2.2208 0.0933525 8.68791 2.43443
689 2 2.2208 2.62725 19.8467 -0.219215
137 2 2.2208 0.0699898 17.2924 5.26052
110 1 -1.1104 6.94597 13.0685 1.01205
70 1 -1.1104 7.06971 10.2782 3.91906
115 1 -1.1104 7.24354 13.0874 3.88869
64 1 -1.1104 7.11444 10.2065 0.975121
85 2 2.2208 11.0488 11.4007 5.34875
89 1 -1.1104 12.623 9.93142 0.87785
91 2 2.2208 11.3125 8.64458 2.54401
93 1 -1.1104 12.8919 10.2376 4.19584
96 2 2.2208 8.55427 11.5441 2.51676
98 2 2.2208 8.2328 8.51608 5.27816
100 1 -1.1104 9.92977 9.98386 1.16837
103 1 -1.1104 9.93294 10.0047 3.9297
142 1 -1.1104 12.5564 12.8747 1.1788
146 1 -1.1104 12.8044 13.2219 3.97137
153 1 -1.1104 9.74188 12.9447 0.986577
158 1 -1.1104 9.8765 13.0033 3.76978
101 1 -1.1104 9.78272 9.88948 6.78845
111 1 -1.1104 7.17691 13.005 6.75599
90 1 -1.1104 12.5518 10.0755 6.67949
136 2 2.2208 -0.0992611 19.9675 2.41896
130 2 2.2208 2.70085 14.2793 5.38529
119 2 2.2208 5.63521 14.096 2.45754
106 2 2.2208 5.55827 16.9678 5.51871
109 1 -1.1104 1.1884 18.4994 1.12956
114 1 -1.1104 1.22059 18.6222 3.79122
116 1 -1.1104 1.29449 15.8203 1.11221
120 2 2.2208 5.35421 19.7488 2.79592
121 1 -1.1104 1.1413 15.7744 3.92351
125 1 -1.1104 3.99739 18.3407 1.09985
127 2 2.2208 2.55278 17.1105 2.53387
129 1 -1.1104 3.8358 18.609 3.95204
131 2 2.2208 2.66835 20.1669 5.16582
132 1 -1.1104 4.13118 15.4694 1.07479
134 1 -1.1104 4.02803 15.7341 3.89442
133 1 -1.1104 4.07865 15.5575 6.76179
126 1 -1.1104 4.182 18.5864 6.70695
135 2 2.2208 0.0199949 14.3336 2.4461
602 2 2.2208 8.45957 3.0475 -0.236882
117 1 -1.1104 1.32422 15.9205 6.69323
313 2 2.2208 0.0159098 14.3373 8.11956
340 2 2.2208 11.0577 17.2914 -0.128052
139 1 -1.1104 6.75917 18.6723 4.42198
140 1 -1.1104 6.89914 15.699 1.30909
122 1 -1.1104 6.96025 15.671 3.90006
138 1 -1.1104 6.78623 18.7856 1.47671
150 2 2.2208 11.1759 14.2921 2.41698
160 2 2.2208 8.40946 14.4277 5.38555
141 2 2.2208 11.0466 17.0519 5.29831
144 1 -1.1104 12.3748 18.5208 1.14805
147 1 -1.1104 12.3639 18.6567 4.14032
148 1 -1.1104 12.5029 15.7249 1.21239
151 2 2.2208 11.0274 19.9298 2.71917
152 1 -1.1104 12.3508 15.9747 3.87898
155 1 -1.1104 9.67746 18.4322 1.40487
157 2 2.2208 8.26314 17.162 2.70261
159 1 -1.1104 9.58169 18.8667 4.06585
161 2 2.2208 8.33046 19.9346 5.56378
162 1 -1.1104 9.8035 15.8363 1.23756
164 1 -1.1104 9.75292 15.8447 3.96778
156 1 -1.1104 9.83467 18.3153 6.95666
118 1 -1.1104 6.85825 15.7131 6.75987
112 1 -1.1104 6.85547 18.5347 6.97471
163 1 -1.1104 10.0042 15.6904 6.81064
9005 2 2.2208 10.9885 -5.38419 5.2179
170 1 -1.1104 1.39997 -1.3827 6.64709
174 1 -1.1104 4.31746 -1.0245 6.6548
172 1 -1.1104 4.10544 -3.91687 6.77455
166 1 -1.1104 1.09148 -4.14893 6.59646
175 2 2.2208 5.62452 0.244249 10.8861
176 1 -1.1104 1.43269 -3.84826 12.3422
180 1 -1.1104 1.18773 -4.0269 9.57917
184 1 -1.1104 1.1927 -1.25567 12.1451
186 2 2.2208 5.54339 -2.48898 8.01274
188 1 -1.1104 1.37941 -1.19839 9.31661
190 1 -1.1104 4.09058 -4.08663 12.3838
192 2 2.2208 2.81514 0.226736 8.23385
193 1 -1.1104 3.97319 -3.8968 9.43729
195 2 2.2208 2.84929 -2.47511 10.8456
197 1 -1.1104 4.21236 -1.03039 12.3824
198 1 -1.1104 4.17839 -1.12923 9.33903
201 2 2.2208 -0.23578 0.284074 11.0294
200 2 2.2208 -0.220365 -2.74575 8.20973
171 1 -1.1104 6.90877 -1.12535 6.42857
210 1 -1.1104 9.65488 -1.21855 6.7707
320 2 2.2208 8.41356 17.0931 8.2229
661 2 2.2208 8.71477 8.58299 -0.389499
185 1 -1.1104 7.02694 -1.34369 12.2597
168 1 -1.1104 6.92352 -3.80243 6.81828
207 1 -1.1104 12.4123 -1.28767 6.68067
189 1 -1.1104 6.88602 -1.20508 9.21748
178 1 -1.1104 7.02322 -4.05606 12.4493
182 1 -1.1104 6.82917 -4.00712 9.57216
211 2 2.2208 11.1232 0.199272 10.9487
212 1 -1.1104 12.6505 -4.06064 12.4241
214 1 -1.1104 12.3766 -4.16329 9.55359
216 1 -1.1104 12.4113 -1.29898 12.5939
217 2 2.2208 10.9968 -2.7044 8.0537
219 1 -1.1104 12.4299 -1.14223 9.56766
220 1 -1.1104 9.89661 -4.15117 12.5114
222 2 2.2208 8.33932 0.232901 7.97281
223 1 -1.1104 9.59032 -4.0774 9.5984
225 2 2.2208 8.31205 -2.73843 10.9237
227 1 -1.1104 9.59748 -1.41532 12.2815
228 1 -1.1104 9.50518 -1.14806 9.51186
238 1 -1.1104 4.34255 7.56995 6.54571
236 1 -1.1104 1.33968 4.51497 6.81595
234 1 -1.1104 1.44342 7.11468 6.86558
177 1 -1.1104 1.37802 1.67046 12.589
181 1 -1.1104 1.5617 1.45134 9.77967
187 2 2.2208 5.65689 3.04164 8.20471
191 1 -1.1104 4.09886 1.60125 12.3222
194 1 -1.1104 4.24451 1.69191 9.49374
196 2 2.2208 2.74673 3.02832 10.8979
240 2 2.2208 5.78308 5.80321 10.8996
242 1 -1.1104 1.45762 7.26858 12.4184
244 1 -1.1104 1.45287 7.14122 9.79781
246 1 -1.1104 1.26741 4.2274 12.4961
251 1 -1.1104 1.28586 4.36619 9.65393
256 2 2.2208 2.80972 5.79121 8.16181
260 1 -1.1104 4.09048 4.57062 12.0903
262 1 -1.1104 4.07617 4.34419 9.49412
258 1 -1.1104 4.24343 7.04592 9.50627
255 1 -1.1104 4.32317 7.30298 12.5437
199 2 2.2208 -0.151591 2.89652 8.041
29 2 2.2208 0.0356245 5.84305 11.0093
316 2 2.2208 8.21847 19.7465 10.9673
329 1 -1.1104 12.3816 18.4459 12.3422
169 1 -1.1104 6.79378 1.64359 6.73653
266 1 -1.1104 12.8241 4.40779 6.99705
206 1 -1.1104 12.5155 1.51468 6.79778
265 1 -1.1104 12.8934 7.33974 6.83793
248 1 -1.1104 6.86393 4.50265 12.311
243 1 -1.1104 7.15072 7.43502 12.5256
245 1 -1.1104 7.13278 7.20347 9.79442
253 1 -1.1104 7.17468 4.56546 9.47191
183 1 -1.1104 7.02056 1.63799 9.51627
179 1 -1.1104 6.89745 1.60259 12.2491
213 1 -1.1104 12.3901 1.59165 12.4473
215 1 -1.1104 12.659 1.59264 9.63304
218 2 2.2208 11.2708 2.9997 8.28538
221 1 -1.1104 9.68798 1.64857 12.367
224 1 -1.1104 9.74451 1.6109 9.54388
226 2 2.2208 8.41801 3.06305 10.8742
268 1 -1.1104 9.98979 4.32576 9.50798
271 1 -1.1104 9.84277 4.43214 12.1957
273 1 -1.1104 9.73756 7.11416 9.47689
275 2 2.2208 8.44527 5.74159 8.11184
276 2 2.2208 11.162 5.82352 10.9112
279 1 -1.1104 12.6329 7.42275 9.57719
280 1 -1.1104 12.8129 4.21532 12.6609
283 1 -1.1104 12.6135 4.37487 9.85991
278 1 -1.1104 12.945 7.20167 12.2067
285 1 -1.1104 9.89413 7.13736 12.4207
690 2 2.2208 5.45374 17.1008 -0.107882
124 1 -1.1104 4.19197 12.9402 6.89304
62 1 -1.1104 1.3019 10.0287 6.71858
9130 2 2.2208 5.41489 -5.16588 -0.333316
317 2 2.2208 8.38962 14.2061 11.0402
51 2 2.2208 -0.13569 11.6666 10.7559
30 2 2.2208 0.000580596 8.63699 8.28593
289 1 -1.1104 6.98818 15.5539 9.64069
78 1 -1.1104 4.22322 10.2741 6.8981
241 2 2.2208 5.44558 11.6772 11.0404
247 1 -1.1104 1.42101 9.96926 12.1927
250 2 2.2208 5.4262 8.72721 8.21373
252 1 -1.1104 1.34915 10.1198 9.67774
257 2 2.2208 2.71996 11.545 8.14129
259 2 2.2208 2.90358 8.64609 10.8716
261 1 -1.1104 4.17943 10.1456 12.1641
263 1 -1.1104 4.09574 10.0103 9.51288
287 1 -1.1104 4.00385 12.7003 12.3939
294 1 -1.1104 1.35893 12.9713 9.57629
299 1 -1.1104 1.24934 12.8067 12.2895
305 1 -1.1104 4.17683 12.9742 9.57834
310 2 2.2208 2.55962 14.2036 10.8727
9093 2 2.2208 11.212 -5.46511 -0.355992
143 1 -1.1104 12.4946 12.8238 6.89678
290 1 -1.1104 6.79785 12.6899 9.63825
297 1 -1.1104 6.86218 12.9214 12.435
149 1 -1.1104 12.6437 15.7821 6.94533
65 1 -1.1104 7.07511 10.0682 6.64801
154 1 -1.1104 9.81444 13.0707 6.75404
254 1 -1.1104 6.94102 9.96017 9.44584
249 1 -1.1104 6.93708 10.2561 12.1692
330 1 -1.1104 12.5336 12.917 12.5622
328 1 -1.1104 12.8728 12.7981 9.60599
322 1 -1.1104 9.8312 12.7339 12.4674
319 1 -1.1104 9.85057 12.7137 9.55375
264 1 -1.1104 9.74634 9.96507 9.5754
270 1 -1.1104 9.67925 10.0783 12.533
272 2 2.2208 8.41014 8.72003 10.9253
274 2 2.2208 8.53092 11.4337 8.05066
277 2 2.2208 11.1769 11.3037 11.1346
281 1 -1.1104 12.4979 10.1433 12.6101
282 2 2.2208 11.1292 8.65407 8.15015
284 1 -1.1104 12.6186 10.1553 9.70995
145 1 -1.1104 12.6645 18.62 6.7317
311 2 2.2208 -0.215867 19.975 8.07467
296 1 -1.1104 6.81078 18.5073 12.4934
326 1 -1.1104 12.6436 15.5943 12.4256
312 2 2.2208 -0.130464 17.098 10.7136
570 2 2.2208 5.53282 0.129296 -0.401118
302 1 -1.1104 1.20166 18.8578 6.59819
295 2 2.2208 5.51326 14.3671 8.32847
304 1 -1.1104 4.07174 15.798 9.64429
303 2 2.2208 2.67833 17.2411 8.03031
301 1 -1.1104 4.32488 18.4313 9.48665
307 1 -1.1104 1.14078 15.6626 12.2216
309 2 2.2208 2.82192 19.8863 10.9079
308 1 -1.1104 3.87672 15.6824 12.3537
286 1 -1.1104 4.0072 18.6362 12.5291
291 1 -1.1104 1.15961 18.4871 9.27195
292 1 -1.1104 1.31224 15.7735 9.54255
293 2 2.2208 5.56695 19.9384 8.14756
298 1 -1.1104 1.26786 18.3561 12.217
300 2 2.2208 5.31412 17.0297 11.106
306 1 -1.1104 6.75831 15.6617 12.5445
288 1 -1.1104 7.08797 18.315 9.57811
9001 2 2.2208 2.73937 -5.17353 2.46
331 2 2.2208 11.0944 16.9894 11.0476
318 1 -1.1104 9.71675 18.4883 9.49351
321 1 -1.1104 9.65464 18.3866 12.4089
325 2 2.2208 11.2774 14.1883 8.18973
315 1 -1.1104 9.58827 15.7755 12.4619
327 1 -1.1104 12.4409 18.486 9.48907
323 1 -1.1104 12.522 15.5196 9.78874
314 1 -1.1104 9.71318 15.6075 9.75144
324 2 2.2208 11.0565 19.8176 8.25822
637 2 2.2208 5.5633 11.4765 -0.400611
693 2 2.2208 -0.171771 17.0599 -0.345742
9010 2 2.2208 8.20412 -5.44056 8.12194
600 2 2.2208 10.9969 0.118698 -0.253609
635 2 2.2208 5.69977 6.01316 -0.424296
660 2 2.2208 11.1728 6.06921 -0.260329
454 2 2.2208 2.66513 11.3766 13.6164
717 2 2.2208 8.40963 14.3899 -0.366541
339 2 2.2208 8.41608 20.0369 -0.168695
720 2 2.2208 -0.0116072 19.9539 13.6206
571 2 2.2208 2.60036 -2.3768 -0.168552
9009 2 2.2208 0.0174458 -5.41181 11.0437
385 2 2.2208 5.4994 3.0173 13.5826
691 2 2.2208 2.69879 14.3435 -0.336225
453 2 2.2208 5.54284 8.72238 13.6535
636 2 2.2208 2.79795 8.63792 -0.316858
343 2 2.2208 5.42165 0.359929 16.4576
344 1 -1.1104 1.37954 -4.17354 17.9898
348 1 -1.1104 1.41408 -3.95671 15.1449
356 1 -1.1104 1.28932 -1.23629 17.5927
358 2 2.2208 5.47594 -2.49416 19.3917
360 1 -1.1104 0.984247 -0.914283 15.0048
364 1 -1.1104 4.03591 -4.18097 17.7621
366 2 2.2208 2.79319 0.197004 19.3475
367 1 -1.1104 4.04859 -4.17136 15.0615
371 2 2.2208 2.73869 -2.67783 16.5462
373 1 -1.1104 4.3316 -1.31506 17.8357
374 1 -1.1104 3.89572 -1.46795 15.0448
375 1 -1.1104 4.02594 -1.15575 20.5863
368 1 -1.1104 4.24549 -4.02369 20.5876
379 2 2.2208 -0.206788 0.410445 16.5466
352 1 -1.1104 6.77117 -4.22452 15.1804
639 2 2.2208 -0.14067 8.88028 25.1099
603 2 2.2208 -0.219974 11.4431 16.4987
361 1 -1.1104 1.27072 -1.31112 20.6289
349 1 -1.1104 1.39114 -4.02483 20.7893
708 2 2.2208 11.3148 14.3749 25.0816
9202 2 2.2208 -0.1843 -5.35849 16.5513
9091 2 2.2208 8.24078 -5.3628 24.9872
380 2 2.2208 -0.258562 -2.90838 19.3559
9163 2 2.2208 11.1378 -5.27472 16.5524
662 2 2.2208 11.2785 11.4985 27.8098
362 1 -1.1104 6.81371 -1.30912 15.2733
346 1 -1.1104 6.97292 -3.87288 18.1511
357 1 -1.1104 6.99632 -1.15714 17.9593
386 2 2.2208 10.8651 0.255185 16.6205
387 1 -1.1104 12.4317 -3.92457 18.1446
389 1 -1.1104 12.6464 -4.09613 15.3901
393 1 -1.1104 12.4395 -1.0214 18.1391
394 2 2.2208 11.0092 -2.48981 19.3649
396 1 -1.1104 12.2592 -1.29453 15.3522
398 1 -1.1104 9.59486 -3.89558 18.1051
400 2 2.2208 8.32463 0.101576 19.4373
401 1 -1.1104 9.56646 -4.03885 15.2679
405 2 2.2208 8.06344 -2.69194 16.5894
407 1 -1.1104 9.74453 -1.10714 17.966
408 1 -1.1104 9.45905 -1.36648 14.987
397 1 -1.1104 12.3792 -1.27356 20.8533
402 1 -1.1104 9.55745 -4.14911 20.8678
416 2 2.2208 8.28651 -0.0375693 13.7859
575 2 2.2208 -0.162862 8.70899 13.6926
345 1 -1.1104 1.27918 1.52402 18.2685
350 1 -1.1104 1.25948 2.02221 15.4087
359 2 2.2208 5.46776 3.00437 19.4653
365 1 -1.1104 4.1842 1.61333 18.055
369 1 -1.1104 4.07353 1.56533 15.1782
372 2 2.2208 2.79401 3.13508 16.6623
419 2 2.2208 5.62093 5.81084 16.4363
427 1 -1.1104 1.32428 4.25155 18.0228
432 1 -1.1104 1.38561 4.57821 15.3565
441 2 2.2208 2.66882 5.95806 19.5289
446 1 -1.1104 4.17457 4.421 18.109
448 1 -1.1104 4.04925 4.18352 15.0374
443 1 -1.1104 4.13322 7.32524 15.1482
421 1 -1.1104 1.3221 7.41902 17.9656
440 1 -1.1104 3.97738 7.46894 17.9317
370 1 -1.1104 4.13014 1.59031 20.8602
433 1 -1.1104 1.56898 4.46722 20.708
423 1 -1.1104 1.36846 7.60962 15.2263
424 1 -1.1104 1.47387 7.26741 20.9456
444 1 -1.1104 4.21138 7.11429 20.7308
576 2 2.2208 -0.072386 5.93588 16.5284
542 2 2.2208 -0.0877692 2.97798 19.4622
517 2 2.2208 5.43509 14.3216 13.9846
422 1 -1.1104 7.02523 7.26904 17.9648
354 1 -1.1104 6.87129 1.73222 15.0953
429 1 -1.1104 6.90168 4.50275 18.1595
347 1 -1.1104 6.79451 1.48035 17.9864
436 1 -1.1104 6.88485 4.372 15.026
437 1 -1.1104 7.11671 4.455 21.0297
425 1 -1.1104 7.0229 7.14714 15.3331
388 1 -1.1104 12.354 1.77387 17.9944
391 1 -1.1104 12.3838 1.5059 15.1659
395 2 2.2208 11.2497 3.10942 19.541
399 1 -1.1104 9.36801 1.52635 18.0172
403 1 -1.1104 9.45141 1.38218 15.2415
406 2 2.2208 8.16714 2.95118 16.6433
455 2 2.2208 11.1907 6.09403 16.4144
460 1 -1.1104 12.5078 4.66324 18.0295
463 1 -1.1104 12.6217 4.62207 15.2185
468 2 2.2208 8.34084 5.86546 19.4577
470 1 -1.1104 10.0021 7.30985 14.9634
473 1 -1.1104 9.77021 4.43814 17.9563
475 1 -1.1104 9.74878 4.53752 15.0891
467 1 -1.1104 9.87582 7.27608 17.8723
457 1 -1.1104 12.8257 7.4362 18.008
458 1 -1.1104 12.774 7.30797 15.0121
404 1 -1.1104 9.53087 1.69651 20.8918
392 1 -1.1104 12.5206 1.6938 20.7484
355 1 -1.1104 6.95552 1.62168 20.78
516 2 2.2208 -0.00468323 2.96886 13.8074
420 2 2.2208 5.42595 11.5214 16.617
428 1 -1.1104 1.21489 10.1168 17.9059
431 2 2.2208 5.44096 8.72666 19.2883
434 1 -1.1104 1.09449 10.1875 15.0006
442 2 2.2208 2.67244 11.3702 19.2337
445 2 2.2208 2.7107 8.75458 16.4938
447 1 -1.1104 4.02094 10.0449 18.0657
450 1 -1.1104 4.14589 10.1184 15.2208
483 1 -1.1104 1.26567 12.8742 17.7148
487 1 -1.1104 1.16991 12.9642 15.163
503 1 -1.1104 4.20747 12.9234 18.0524
506 1 -1.1104 3.82419 13.0929 15.2607
435 1 -1.1104 1.01027 10.1633 20.5818
451 1 -1.1104 3.85004 10.0719 20.7629
577 2 2.2208 -0.0298277 8.60213 19.3137
507 1 -1.1104 4.02175 12.7927 20.9888
418 2 2.2208 11.1629 3.03526 13.8405
438 1 -1.1104 6.71308 10.268 15.1838
439 1 -1.1104 6.75165 10.1138 20.7504
492 1 -1.1104 6.78137 13.023 20.6105
491 1 -1.1104 6.66991 12.9868 15.3259
485 1 -1.1104 7.05103 12.8938 17.9067
430 1 -1.1104 7.11282 10.0073 17.9827
456 2 2.2208 11.3396 11.4812 16.6714
461 1 -1.1104 12.606 9.97609 18.0941
462 2 2.2208 11.2112 8.77222 19.4616
465 1 -1.1104 12.6759 10.0163 15.288
469 2 2.2208 8.29865 11.242 19.5099
472 2 2.2208 8.4085 8.7014 16.6173
474 1 -1.1104 9.88618 9.74345 18.0817
477 1 -1.1104 9.87355 10.1249 15.2786
519 1 -1.1104 12.6412 13.1301 18.3088
521 1 -1.1104 12.6396 12.8486 15.4636
530 1 -1.1104 9.84591 12.5401 18.3241
533 1 -1.1104 9.75562 12.9322 15.3046
411 2 2.2208 -0.242865 17.224 16.5535
497 2 2.2208 5.39929 14.3545 19.4896
510 2 2.2208 2.5824 14.2985 16.5932
482 2 2.2208 5.37639 17.1176 16.6161
484 1 -1.1104 1.1831 18.6301 17.8643
489 1 -1.1104 1.37469 18.4715 15.135
495 1 -1.1104 1.10476 15.6895 18.2275
498 2 2.2208 5.37692 19.9401 19.4905
499 1 -1.1104 0.981121 15.6874 15.1104
504 1 -1.1104 4.16648 18.5356 18.0973
505 2 2.2208 2.6557 17.1655 19.4114
508 1 -1.1104 4.20092 18.5155 15.3349
511 2 2.2208 2.74866 20.0446 16.6559
512 1 -1.1104 4.16059 15.6309 17.9826
513 1 -1.1104 3.75984 15.8757 15.1615
412 2 2.2208 -0.188087 14.2347 19.3358
509 1 -1.1104 3.99475 18.5788 21.0249
413 2 2.2208 -0.261881 19.8917 19.4264
493 1 -1.1104 6.93362 18.7894 15.3305
501 1 -1.1104 6.73822 15.7925 15.3318
486 1 -1.1104 6.84319 18.5154 18.2544
496 1 -1.1104 6.99701 15.6688 18.1442
526 2 2.2208 11.1256 14.2729 19.5115
537 2 2.2208 8.4096 14.2327 16.8293
518 2 2.2208 11.2419 17.0598 16.5749
520 1 -1.1104 12.2435 18.7758 17.9642
525 1 -1.1104 12.6415 15.7675 17.9625
527 2 2.2208 10.9639 19.776 19.476
528 1 -1.1104 12.5728 15.7026 15.2082
531 1 -1.1104 9.63625 18.4983 18.2575
532 2 2.2208 8.36755 16.9671 19.4898
535 1 -1.1104 9.61829 18.4655 15.3283
538 2 2.2208 8.27169 19.9562 16.7192
539 1 -1.1104 9.79521 15.5916 18.1754
540 1 -1.1104 9.77215 15.7113 15.3325
523 1 -1.1104 12.7277 18.6377 14.9294
524 1 -1.1104 12.5814 18.4658 20.7899
529 1 -1.1104 12.6261 15.8296 20.9795
494 1 -1.1104 6.79629 18.5741 21.0564
580 2 2.2208 -0.0905582 0.338603 22.1565
479 2 2.2208 8.41597 5.82416 13.7212
579 2 2.2208 -0.239449 -2.29922 24.8387
546 2 2.2208 5.5946 0.322028 22.2472
547 1 -1.1104 1.07759 -3.76122 23.7623
551 1 -1.1104 1.50241 -3.75199 26.333
555 1 -1.1104 1.22822 -0.927676 23.3391
557 2 2.2208 5.43778 -2.50592 25.0107
559 1 -1.1104 1.33968 -0.937053 26.4043
561 1 -1.1104 4.05454 -3.95541 23.4849
563 2 2.2208 2.66923 0.221886 25.0497
564 1 -1.1104 4.09735 -3.90506 26.3393
566 2 2.2208 2.7809 -2.57936 21.9829
568 1 -1.1104 4.23709 -1.17142 23.5389
569 1 -1.1104 3.92244 -1.12564 26.4105
336 2 2.2208 11.1087 19.8195 13.8107
363 1 -1.1104 7.00374 -1.21172 20.7448
409 1 -1.1104 9.7008 -1.13338 20.7647
353 1 -1.1104 6.91821 -3.95553 20.9845
700 1 -1.1104 9.67978 18.5135 26.7438
553 1 -1.1104 6.7705 -4.01568 26.2271
390 1 -1.1104 12.3507 -3.92565 20.9629
549 1 -1.1104 6.86549 -3.89855 23.4399
556 1 -1.1104 6.91838 -0.988675 23.702
560 1 -1.1104 6.91405 -0.902303 26.3231
582 2 2.2208 11.0982 0.185975 22.2746
583 1 -1.1104 12.4157 -3.92925 23.6325
585 1 -1.1104 12.564 -3.9742 26.4986
587 1 -1.1104 12.3784 -1.13228 23.9449
588 2 2.2208 11.1606 -2.68174 25.141
590 1 -1.1104 12.6001 -1.40003 26.526
591 1 -1.1104 9.64562 -4.1993 23.696
593 2 2.2208 8.37222 0.268599 25.0723
594 1 -1.1104 9.76152 -4.09374 26.5044
596 2 2.2208 8.2743 -2.58074 22.1463
598 1 -1.1104 9.73711 -1.3445 23.7715
599 1 -1.1104 9.67765 -1.32138 26.726
337 2 2.2208 8.32952 17.0781 13.8169
376 2 2.2208 -0.0539418 5.91339 22.2909
351 1 -1.1104 1.31764 1.75254 20.9905
449 1 -1.1104 4.29503 4.4447 21.0629
543 2 2.2208 11.0694 14.2066 13.961
548 1 -1.1104 1.28465 1.76922 23.7964
552 1 -1.1104 1.18996 1.88789 26.8072
558 2 2.2208 5.46175 3.01802 25.0098
562 1 -1.1104 3.9732 1.75256 23.5031
565 1 -1.1104 4.20406 1.43931 26.3358
567 2 2.2208 2.77464 3.13248 22.1502
611 2 2.2208 5.66765 5.91786 22.2731
617 1 -1.1104 1.6209 4.58759 23.4901
622 1 -1.1104 1.30459 4.45554 26.3177
626 1 -1.1104 4.28993 7.24401 23.6143
627 2 2.2208 2.73344 5.87678 24.9465
629 1 -1.1104 4.11487 7.44895 26.4371
631 1 -1.1104 4.3977 4.56079 23.7759
633 1 -1.1104 4.27403 4.43315 26.5175
615 1 -1.1104 1.18732 7.266 26.3574
613 1 -1.1104 1.19085 7.27721 23.6078
614 1 -1.1104 7.04602 7.3736 23.5571
581 2 2.2208 -0.168341 2.90112 25.0861
335 2 2.2208 5.6428 20.0075 13.8267
471 1 -1.1104 9.67534 7.21451 20.8143
459 1 -1.1104 12.5173 7.12064 20.7993
464 1 -1.1104 12.7272 4.53821 20.8452
426 1 -1.1104 7.05426 7.33618 20.5487
619 1 -1.1104 7.16366 4.75046 23.721
554 1 -1.1104 6.98699 1.84333 26.4795
624 1 -1.1104 6.96135 4.50391 26.5297
550 1 -1.1104 6.9459 1.89108 23.7057
616 1 -1.1104 7.04978 7.2508 26.4677
476 1 -1.1104 9.89376 4.44313 20.9662
584 1 -1.1104 12.7263 1.47485 23.5393
586 1 -1.1104 12.3927 1.7386 26.6957
589 2 2.2208 11.1024 2.86382 25.1039
592 1 -1.1104 9.93742 1.71482 23.6113
595 1 -1.1104 9.59073 1.29104 26.5022
597 2 2.2208 8.21945 3.0543 22.32
643 1 -1.1104 9.88738 4.26122 26.7092
645 1 -1.1104 10.1019 4.65738 23.883
649 2 2.2208 8.43231 5.92018 25.0971
650 2 2.2208 11.2614 5.85834 22.1255
653 1 -1.1104 12.5358 7.33281 26.6221
654 1 -1.1104 12.8392 4.32295 23.7494
657 1 -1.1104 12.4776 4.6521 26.5925
659 1 -1.1104 9.96869 7.45945 23.7839
652 1 -1.1104 12.6347 7.32652 23.6844
647 1 -1.1104 9.85142 7.09336 26.3175
452 2 2.2208 2.78053 5.72918 13.767
488 1 -1.1104 1.11306 12.7982 20.6967
683 1 -1.1104 4.11426 13.1484 26.4053
672 1 -1.1104 1.30053 12.8083 26.3863
612 2 2.2208 5.52397 11.412 22.1723
618 1 -1.1104 1.42314 10.0684 23.3751
621 2 2.2208 5.58368 8.64813 25.0738
623 1 -1.1104 1.37339 9.87825 26.3155
628 2 2.2208 2.79635 11.5097 24.9265
630 2 2.2208 2.85619 8.6947 22.174
632 1 -1.1104 4.21105 10.058 23.6671
634 1 -1.1104 4.18108 10.2261 26.538
668 1 -1.1104 4.17162 12.7511 23.7097
678 1 -1.1104 1.21846 12.7688 23.7109
640 2 2.2208 -0.163655 11.4377 22.1268
9201 2 2.2208 5.28286 -5.48646 16.4632
466 1 -1.1104 12.6485 10.1366 20.744
534 1 -1.1104 9.56064 13.0473 20.8892
478 1 -1.1104 9.65483 10.2945 20.9913
625 1 -1.1104 6.87535 10.1697 26.1257
522 1 -1.1104 12.3723 12.8487 20.8478
676 1 -1.1104 7.19759 13.1754 23.8538
620 1 -1.1104 7.02485 10.3534 23.3242
667 1 -1.1104 7.1313 12.8442 26.5132
713 1 -1.1104 12.7889 12.9913 23.4441
711 1 -1.1104 12.7916 12.8657 26.578
705 1 -1.1104 10.0109 12.8312 23.6032
701 1 -1.1104 9.80897 12.8862 26.3312
642 1 -1.1104 9.89763 10.0396 26.6384
644 1 -1.1104 9.85521 10.1478 23.9815
646 2 2.2208 8.60373 8.71906 22.3088
648 2 2.2208 8.53264 11.5997 25.0239
651 2 2.2208 11.2596 11.4699 22.3417
655 1 -1.1104 12.7327 10.0785 23.7376
656 2 2.2208 11.3951 8.57114 25.1362
658 1 -1.1104 12.6143 10.1164 26.4524
481 2 2.2208 8.26249 11.5193 13.8793
9092 2 2.2208 11.0118 -5.39308 22.2902
692 2 2.2208 -0.136754 14.367 25.049
9131 2 2.2208 -0.187688 -5.33377 22.4268
695 2 2.2208 -0.00537201 17.163 22.3003
500 1 -1.1104 1.39864 15.8603 21.0092
514 1 -1.1104 4.01689 15.6817 20.8537
490 1 -1.1104 1.04792 18.6329 20.9248
694 2 2.2208 -0.0957975 20.0652 25.0819
9095 2 2.2208 2.63168 -5.28219 25.0854
688 2 2.2208 2.55829 14.1821 22.3897
675 2 2.2208 5.53112 14.4409 25.1593
687 2 2.2208 2.81812 20.0179 22.3936
686 1 -1.1104 3.86194 15.4773 23.9355
685 1 -1.1104 1.24959 15.7169 23.7703
677 1 -1.1104 1.118 18.7016 23.8366
682 1 -1.1104 4.15264 15.7608 26.6645
674 2 2.2208 5.51405 19.9925 25.2168
681 2 2.2208 2.59915 16.9934 25.1646
679 2 2.2208 5.42356 17.1905 22.3106
680 1 -1.1104 3.97325 18.562 26.6733
671 1 -1.1104 1.2086 15.6073 26.5541
670 1 -1.1104 1.15521 18.3641 26.5175
666 1 -1.1104 4.18698 18.4159 23.746
702 1 -1.1104 6.7296 18.6523 26.8374
9162 2 2.2208 8.1513 -5.46109 19.3787
710 1 -1.1104 12.7798 18.7601 26.5796
712 1 -1.1104 12.7106 18.8108 23.6234
703 2 2.2208 8.4119 17.3406 25.2463
696 1 -1.1104 9.73249 15.8923 26.6831
536 1 -1.1104 9.54888 18.5866 21.1253
541 1 -1.1104 9.82107 15.821 20.8423
699 2 2.2208 8.30015 14.3877 22.1431
704 1 -1.1104 9.88652 18.5369 23.9602
697 1 -1.1104 10.0697 15.7611 23.806
714 2 2.2208 11.2697 17.261 22.4156
698 2 2.2208 8.23419 20.2355 22.2365
502 1 -1.1104 7.12581 15.6263 20.7015
706 1 -1.1104 12.5063 15.9207 26.5661
684 1 -1.1104 6.83778 15.8655 23.7189
669 1 -1.1104 6.97412 15.8133 26.7335
673 1 -1.1104 7.03144 18.6269 23.8714
709 1 -1.1104 12.7273 15.8278 23.7105
707 2 2.2208 11.171 20.0898 25.0667
417 2 2.2208 11.0702 -2.686 13.745
572 2 2.2208 2.67252 3.2385 27.7824
9200 2 2.2208 2.52961 -5.44283 19.5503
334 2 2.2208 -0.0716202 -2.5155 13.7001
638 2 2.2208 -0.0393164 11.6136 27.7298
515 2 2.2208 2.46631 17.1334 13.869
9042 2 2.2208 2.60379 -5.38779 13.8229
641 2 2.2208 -0.0188711 5.88897 27.7782
410 2 2.2208 -0.335038 14.3688 13.855
480 2 2.2208 11.2723 8.5098 13.7215
383 2 2.2208 5.47342 -2.63258 13.7867
721 2 2.2208 5.52284 22.6854 5.24184
723 1 -1.1104 1.42837 24.1237 0.886681
724 1 -1.1104 1.28799 24.249 3.6784
725 1 -1.1104 1.21642 21.4709 1.10465
727 2 2.2208 5.46431 25.4398 2.49023
728 1 -1.1104 1.14707 21.3932 3.95713
730 1 -1.1104 4.14009 24.2897 1.08964
731 2 2.2208 2.58674 22.7394 2.40798
733 1 -1.1104 4.04602 24.1147 3.88303
734 2 2.2208 2.62969 25.5537 5.16561
735 1 -1.1104 4.20535 21.1216 0.916122
737 1 -1.1104 4.04846 21.5121 3.8018
726 1 -1.1104 1.07849 26.8219 1.09868
738 1 -1.1104 4.08901 27.064 3.80152
736 1 -1.1104 4.10219 26.9293 0.913035
870 1 -1.1104 3.95915 27.0639 6.68759
865 1 -1.1104 1.16251 27.1589 6.89418
743 1 -1.1104 7.1015 24.3009 3.76324
744 1 -1.1104 6.92269 21.389 0.979441
729 1 -1.1104 1.31744 26.9993 4.08245
741 2 2.2208 -0.167698 22.8578 5.30126
739 2 2.2208 -0.252882 25.369 2.3816
864 1 -1.1104 1.41161 21.7111 6.61918
868 1 -1.1104 3.99566 24.2997 6.65335
869 1 -1.1104 4.31783 21.3195 6.63854
1038 2 2.2208 -0.0797717 28.525 10.8004
746 1 -1.1104 6.94 21.4321 3.85119
745 1 -1.1104 6.93847 26.7503 1.05684
742 1 -1.1104 6.88492 24.0194 1.08787
867 1 -1.1104 6.88405 27.0505 6.59957
747 1 -1.1104 6.94341 26.9975 3.77879
748 2 2.2208 11.1718 22.9052 5.45932
750 1 -1.1104 12.5671 24.05 0.783795
751 1 -1.1104 12.6519 24.0843 3.82084
752 1 -1.1104 12.554 21.1636 1.04705
754 2 2.2208 11.2494 25.4126 2.26118
755 1 -1.1104 12.5893 21.4729 3.93674
757 1 -1.1104 9.78205 23.9889 1.08949
758 2 2.2208 8.38336 22.7026 2.47274
760 1 -1.1104 9.89905 24.1598 3.82435
761 2 2.2208 8.35005 25.6181 5.15873
762 1 -1.1104 9.6963 21.2626 1.03859
764 1 -1.1104 9.6909 21.6512 3.95378
895 1 -1.1104 12.4329 24.4352 6.84954
765 1 -1.1104 9.61547 27.2086 3.66191
763 1 -1.1104 9.6545 26.8851 1.09464
897 1 -1.1104 12.8521 27.3136 5.96626
1650 1 -1.1104 12.5544 46.5761 6.46944
898 1 -1.1104 9.70227 24.2648 6.90174
899 1 -1.1104 9.89831 21.2916 6.87431
1004 2 2.2208 -0.248712 45.4111 10.8647
722 2 2.2208 5.33863 28.4253 5.22081
732 2 2.2208 2.5463 28.3004 2.35941
770 1 -1.1104 1.0599 29.9663 0.784169
773 1 -1.1104 1.23967 29.6583 3.66294
776 1 -1.1104 0.941411 32.674 0.981848
777 2 2.2208 5.2011 31.0547 2.18832
779 1 -1.1104 1.14875 32.3795 3.89619
781 1 -1.1104 3.89252 29.7213 0.887834
784 1 -1.1104 3.97772 29.8125 3.81883
786 2 2.2208 2.54552 31.2308 5.12715
788 1 -1.1104 3.95915 32.9102 0.658881
789 1 -1.1104 4.00001 32.5289 3.43385
923 1 -1.1104 3.94958 32.4151 6.42129
921 1 -1.1104 3.83353 29.759 6.66462
793 1 -1.1104 6.81502 29.6322 0.64137
791 2 2.2208 -0.266423 31.1558 2.30853
740 2 2.2208 -0.242765 28.423 5.23834
1658 1 -1.1104 12.1801 46.662 12.1677
756 1 -1.1104 12.2756 26.9911 3.51264
794 1 -1.1104 6.76392 29.7826 3.42403
795 1 -1.1104 6.79437 32.3862 0.800012
780 1 -1.1104 6.63893 32.3546 3.68713
753 1 -1.1104 12.4444 26.9775 0.891035
749 2 2.2208 10.9797 28.3899 5.11142
759 2 2.2208 8.16751 28.3927 2.26478
797 1 -1.1104 12.2719 29.7105 0.996349
799 1 -1.1104 12.7467 30.0131 3.54854
801 1 -1.1104 12.3201 32.4793 1.03541
802 2 2.2208 11.0649 31.0734 2.37203
804 1 -1.1104 12.2881 32.6669 3.83386
805 1 -1.1104 9.5207 29.7129 0.942376
808 1 -1.1104 9.75146 29.6853 3.67824
810 2 2.2208 8.25779 31.0439 5.01939
812 1 -1.1104 9.6359 32.4698 0.811196
813 1 -1.1104 9.71501 32.3351 3.7907
951 1 -1.1104 12.318 32.7981 6.4252
952 1 -1.1104 9.78994 29.799 6.57901
920 1 -1.1104 6.56878 32.6585 6.62743
769 2 2.2208 5.29657 33.9574 5.07914
771 1 -1.1104 1.09039 35.339 0.921307
774 1 -1.1104 1.1914 35.1824 3.79102
778 2 2.2208 5.33889 36.6897 2.36212
782 1 -1.1104 3.91763 35.5143 1.0752