LAMMPS (29 Oct 2020)
OMP_NUM_THREADS environment is not set. Defaulting to 1 thread. (../comm.cpp:94)
  using 1 OpenMP thread(s) per MPI task
OMP_NUM_THREADS environment is not set. Defaulting to 1 thread. (../comm.cpp:94)
  using 1 OpenMP thread(s) per MPI task
Reading data file ...
  orthogonal box = (-0.27717828 -3.4472206 -0.27717828) to (27.617178 331.52722 27.617178)
  2 by 13 by 2 MPI processor grid
  reading atoms ...
  18000 atoms
  reading velocities ...
  18000 velocities
Finding 1-2 1-3 1-4 neighbors ...
  special bond factors lj:    0.0      0.0      0.0     
  special bond factors coul:  0.0      0.0      0.0     
     0 = max # of 1-2 neighbors
     0 = max # of 1-3 neighbors
     0 = max # of 1-4 neighbors
     1 = max # of special neighbors
  special bonds CPU = 0.004 seconds
  read_data CPU = 0.075 seconds
45 atoms in group sphere
8 atoms in group oxygen
1 atoms in group thorium
9 atoms in group 1
36 atoms in group cluster
6000 atoms in group Th
12000 atoms in group O
12 atoms in group Th_group
24 atoms in group O_group
WARNING: Ignoring 'compress yes' for molecular system (../delete_atoms.cpp:125)
Deleted 36 atoms, new total = 17964
45 atoms in group sphere
8 atoms in group oxygen
1 atoms in group thorium
9 atoms in group 1
36 atoms in group cluster
5988 atoms in group Th
11976 atoms in group O
12 atoms in group Th_group
24 atoms in group O_group
WARNING: Ignoring 'compress yes' for molecular system (../delete_atoms.cpp:125)
Deleted 36 atoms, new total = 17928
45 atoms in group sphere
8 atoms in group oxygen
1 atoms in group thorium
9 atoms in group 1
36 atoms in group cluster
5976 atoms in group Th
11952 atoms in group O
12 atoms in group Th_group
24 atoms in group O_group
WARNING: Ignoring 'compress yes' for molecular system (../delete_atoms.cpp:125)
Deleted 36 atoms, new total = 17892
45 atoms in group sphere
8 atoms in group oxygen
1 atoms in group thorium
9 atoms in group 1
36 atoms in group cluster
5964 atoms in group Th
11928 atoms in group O
12 atoms in group Th_group
24 atoms in group O_group
WARNING: Ignoring 'compress yes' for molecular system (../delete_atoms.cpp:125)
Deleted 36 atoms, new total = 17856
45 atoms in group sphere
8 atoms in group oxygen
1 atoms in group thorium
9 atoms in group 1
36 atoms in group cluster
5952 atoms in group Th
11904 atoms in group O
12 atoms in group Th_group
24 atoms in group O_group
WARNING: Ignoring 'compress yes' for molecular system (../delete_atoms.cpp:125)
Deleted 36 atoms, new total = 17820
45 atoms in group sphere
8 atoms in group oxygen
1 atoms in group thorium
9 atoms in group 1
36 atoms in group cluster
5940 atoms in group Th
11880 atoms in group O
12 atoms in group Th_group
24 atoms in group O_group
WARNING: Ignoring 'compress yes' for molecular system (../delete_atoms.cpp:125)
Deleted 36 atoms, new total = 17784
45 atoms in group sphere
8 atoms in group oxygen
1 atoms in group thorium
9 atoms in group 1
36 atoms in group cluster
5928 atoms in group Th
11856 atoms in group O
12 atoms in group Th_group
24 atoms in group O_group
WARNING: Ignoring 'compress yes' for molecular system (../delete_atoms.cpp:125)
Deleted 36 atoms, new total = 17748
45 atoms in group sphere
8 atoms in group oxygen
1 atoms in group thorium
9 atoms in group 1
36 atoms in group cluster
5916 atoms in group Th
11832 atoms in group O
12 atoms in group Th_group
24 atoms in group O_group
WARNING: Ignoring 'compress yes' for molecular system (../delete_atoms.cpp:125)
Deleted 36 atoms, new total = 17712
45 atoms in group sphere
8 atoms in group oxygen
1 atoms in group thorium
9 atoms in group 1
36 atoms in group cluster
5904 atoms in group Th
11808 atoms in group O
12 atoms in group Th_group
24 atoms in group O_group
WARNING: Ignoring 'compress yes' for molecular system (../delete_atoms.cpp:125)
Deleted 36 atoms, new total = 17676
45 atoms in group sphere
8 atoms in group oxygen
1 atoms in group thorium
9 atoms in group 1
36 atoms in group cluster
5892 atoms in group Th
11784 atoms in group O
12 atoms in group Th_group
24 atoms in group O_group
WARNING: Ignoring 'compress yes' for molecular system (../delete_atoms.cpp:125)
Deleted 36 atoms, new total = 17640
Setting atom values ...
  11760 settings made for charge
Setting atom values ...
  5880 settings made for charge
PPPM initialization ...
  using 12-bit tables for long-range coulomb (../kspace.cpp:328)
  G vector (1/distance) = 0.29912164
  grid = 40 240 40
  stencil order = 5
  estimated absolute RMS force accuracy = 0.00015376724
  estimated relative force accuracy = 1.0678544e-05
  using single precision MKL FFT
  3d grid and FFT values/proc = 18225 7600
Neighbor list info ...
  update every 1 steps, delay 0 steps, check yes
  max neighbors/atom: 2000, page size: 100000
  master list distance cutoff = 13
  ghost atom cutoff = 13
  binsize = 6.5, bins = 5 52 5
  2 neighbor lists, perpetual/occasional/extra = 2 0 0
  (1) pair coul/long, perpetual
      attributes: half, newton on
      pair build: half/bin/newton
      stencil: half/bin/3d/newton
      bin: standard
  (2) pair eam/alloy, perpetual, copy from (1)
      attributes: half, newton on
      pair build: copy
      stencil: none
      bin: none
Setting up cg style minimization ...
  Unit style    : metal
  Current step  : 0
WARNING: Energy due to 3 extra global DOFs will be included in minimizer energies
Per MPI rank memory allocation (min/avg/max) = 9.470 | 10.04 | 10.28 Mbytes
Step Temp E_pair E_mol TotEng Press Volume 
       0            0    -231413.6            0    -231413.6   -2358.4195    260641.98 
     130            0   -231675.54            0   -231675.54    20.121523    260912.85 
Loop time of 2.93552 on 52 procs for 130 steps with 17640 atoms

99.3% CPU use with 52 MPI tasks x 1 OpenMP threads

Minimization stats:
  Stopping criterion = linesearch alpha is zero
  Energy initial, next-to-last, final = 
      -231413.59692304  -231675.541986943  -231675.541986943
  Force two-norm initial, final = 739.12684 8.7078669
  Force max component initial, final = 618.31670 6.3890492
  Final line search alpha, max atom move = 1.4483508e-10 9.2535842e-10
  Iterations, force evaluations = 130 257

MPI task timing breakdown:
Section |  min time  |  avg time  |  max time  |%varavg| %total
---------------------------------------------------------------
Pair    | 1.6087     | 1.7232     | 1.8567     |   4.5 | 58.70
Bond    | 2.0044e-05 | 3.1809e-05 | 5.0141e-05 |   0.0 |  0.00
Kspace  | 0.48662    | 0.62041    | 0.73677    |   7.5 | 21.13
Neigh   | 0          | 0          | 0          |   0.0 |  0.00
Comm    | 0.053946   | 0.056775   | 0.05868    |   0.4 |  1.93
Output  | 0          | 0          | 0          |   0.0 |  0.00
Modify  | 0          | 0          | 0          |   0.0 |  0.00
Other   |            | 0.5351     |            |       | 18.23

Nlocal:        339.231 ave         404 max         289 min
Histogram: 5 6 7 7 4 9 3 8 1 2
Nghost:        5549.65 ave        5770 max        5361 min
Histogram: 2 8 8 4 5 8 8 4 3 2
Neighs:       107346.0 ave      130396 max       89305 min
Histogram: 7 5 6 4 7 9 4 6 3 1

Total # of neighbors = 5581980
Ave neighs/atom = 316.43878
Ave special neighs/atom = 0.0000000
Neighbor list builds = 0
Dangerous builds = 0
Resetting atom IDs ...
PPPM initialization ...
  using 12-bit tables for long-range coulomb (../kspace.cpp:328)
  G vector (1/distance) = 0.29911001
  grid = 40 240 40
  stencil order = 5
  estimated absolute RMS force accuracy = 0.00015382421
  estimated relative force accuracy = 1.06825e-05
  using single precision MKL FFT
  3d grid and FFT values/proc = 18225 7600
Finding 1-2 1-3 1-4 neighbors ...
  special bond factors lj:    0.0      0.0      0.0     
  special bond factors coul:  0.0      0.0      0.0     
     0 = max # of 1-2 neighbors
     0 = max # of 1-3 neighbors
     0 = max # of 1-4 neighbors
     1 = max # of special neighbors
  special bonds CPU = 0.001 seconds
PPPM initialization ...
  using 12-bit tables for long-range coulomb (../kspace.cpp:328)
  G vector (1/distance) = 0.29911001
  grid = 40 240 40
  stencil order = 5
  estimated absolute RMS force accuracy = 0.00015382421
  estimated relative force accuracy = 1.06825e-05
  using single precision MKL FFT
  3d grid and FFT values/proc = 18225 7600
Setting up Verlet run ...
  Unit style    : metal
  Current step  : 130
  Time step     : 0.001
Per MPI rank memory allocation (min/avg/max) = 8.345 | 8.988 | 9.151 Mbytes
Step Dt Time Atoms Temp PotEng KinEng Press Volume 
     130        0.001            0    17640          600   -231675.54    1368.0118    5620.4234    260912.85 
   10000        0.001         9.87    17640    598.26302   -230300.79    1364.0515   -146.20096    265199.61 
   20000        0.001        19.87    17640    598.00722   -230303.28    1363.4683    1108.5208    264969.36 
   30000        0.001        29.87    17640     600.3823   -230325.78    1368.8835   -107.24627    265154.02 
   40000        0.001        39.87    17640    595.60769    -230341.2    1357.9973    371.49008    265037.39 
   50000        0.001        49.87    17640     603.9531   -230342.62     1377.025   -1428.1796    265274.54 
   60000        0.001        59.87    17640    599.25233   -230345.87    1366.3071   -964.27512     265164.9 
   70000        0.001        69.87    17640    593.37844   -230358.01    1352.9145    311.00686     264979.6 
   80000        0.001        79.87    17640    597.59867   -230368.39    1362.5367   -655.53586    265145.68 
   90000        0.001        89.87    17640    598.69257   -230361.28    1365.0309   -768.31863    265136.69 
  100000        0.001        99.87    17640     604.1187   -230348.71    1377.4025    191.03004    265000.61 
  100130        0.001          100    17640    601.64587   -230357.16    1371.7644   -1249.6392       265228 
Loop time of 877.991 on 52 procs for 100000 steps with 17640 atoms

Performance: 9.841 ns/day, 2.439 hours/ns, 113.896 timesteps/s
99.8% CPU use with 52 MPI tasks x 1 OpenMP threads

MPI task timing breakdown:
Section |  min time  |  avg time  |  max time  |%varavg| %total
---------------------------------------------------------------
Pair    | 526.5      | 544        | 566.27     |  38.7 | 61.96
Bond    | 0.010089   | 0.013795   | 0.019104   |   2.0 |  0.00
Kspace  | 176.75     | 199.7      | 217.61     |  65.0 | 22.75
Neigh   | 2.2985     | 2.4541     | 2.6759     |   6.2 |  0.28
Comm    | 23.452     | 24.803     | 26.124     |  16.6 |  2.82
Output  | 0.053836   | 0.053879   | 0.05578    |   0.1 |  0.01
Modify  | 91.419     | 97.72      | 102.39     |  25.8 | 11.13
Other   |            | 9.248      |            |       |  1.05

Nlocal:        339.231 ave         366 max         319 min
Histogram: 4 7 12 3 6 6 5 4 2 3
Nghost:        5519.92 ave        5632 max        5396 min
Histogram: 3 11 2 3 5 3 6 4 6 9
Neighs:       106650.0 ave      118165 max       96698 min
Histogram: 3 5 3 13 6 7 7 1 4 3

Total # of neighbors = 5545804
Ave neighs/atom = 314.38798
Ave special neighs/atom = 0.0000000
Neighbor list builds = 844
Dangerous builds = 0
System init for write_data ...
PPPM initialization ...
  using 12-bit tables for long-range coulomb (../kspace.cpp:328)
  G vector (1/distance) = 0.29880859
  grid = 40 240 40
  stencil order = 5
  estimated absolute RMS force accuracy = 0.00015624255
  estimated relative force accuracy = 1.0850445e-05
  using single precision MKL FFT
  3d grid and FFT values/proc = 18225 7600
Total wall time: 0:14:41
