LAMMPS (29 Oct 2020)
OMP_NUM_THREADS environment is not set. Defaulting to 1 thread. (../comm.cpp:94)
  using 1 OpenMP thread(s) per MPI task
OMP_NUM_THREADS environment is not set. Defaulting to 1 thread. (../comm.cpp:94)
  using 1 OpenMP thread(s) per MPI task
Reading data file ...
  orthogonal box = (-0.31574006 -3.8899405 -0.31683518) to (27.655740 331.96994 27.656835)
  2 by 13 by 2 MPI processor grid
  reading atoms ...
  17672 atoms
  reading velocities ...
  17672 velocities
Finding 1-2 1-3 1-4 neighbors ...
  special bond factors lj:    0.0      0.0      0.0     
  special bond factors coul:  0.0      0.0      0.0     
     0 = max # of 1-2 neighbors
     0 = max # of 1-3 neighbors
     0 = max # of 1-4 neighbors
     1 = max # of special neighbors
  special bonds CPU = 0.005 seconds
  read_data CPU = 0.076 seconds
WARNING: 13 of 1000 force values in table Xe-Xe are inconsistent with -dE/dr.
  Should only be flagged at inflection points (../pair_table.cpp:461)
WARNING: 2 of 1000 force values in table Xe-O are inconsistent with -dE/dr.
  Should only be flagged at inflection points (../pair_table.cpp:461)
WARNING: 2 of 1000 force values in table Xe-Th are inconsistent with -dE/dr.
  Should only be flagged at inflection points (../pair_table.cpp:461)
Setting atom values ...
  11760 settings made for charge
Setting atom values ...
  5880 settings made for charge
Setting atom values ...
  32 settings made for charge
PPPM initialization ...
  using 12-bit tables for long-range coulomb (../kspace.cpp:328)
  G vector (1/distance) = 0.29896965
  grid = 40 240 40
  stencil order = 5
  estimated absolute RMS force accuracy = 0.00015482663
  estimated relative force accuracy = 1.0752114e-05
  using single precision MKL FFT
  3d grid and FFT values/proc = 18225 7600
Neighbor list info ...
  update every 1 steps, delay 0 steps, check yes
  max neighbors/atom: 2000, page size: 100000
  master list distance cutoff = 13
  ghost atom cutoff = 13
  binsize = 6.5, bins = 5 52 5
  3 neighbor lists, perpetual/occasional/extra = 3 0 0
  (1) pair coul/long, perpetual
      attributes: half, newton on
      pair build: half/bin/newton
      stencil: half/bin/3d/newton
      bin: standard
  (2) pair eam/alloy, perpetual, skip from (1)
      attributes: half, newton on
      pair build: skip
      stencil: none
      bin: none
  (3) pair table, perpetual, skip from (1)
      attributes: half, newton on
      pair build: skip
      stencil: none
      bin: none
Setting up Verlet run ...
  Unit style    : metal
  Current step  : 0
  Time step     : 0.001
Per MPI rank memory allocation (min/avg/max) = 9.267 | 9.970 | 10.04 Mbytes
Step Temp E_pair E_mol TotEng Press 
       0          300   -231161.36            0   -230476.12   -514.32707 
  100000    297.81121   -231165.22            0   -230484.98   -598.59654 
Loop time of 699.128 on 52 procs for 100000 steps with 17672 atoms

Performance: 12.358 ns/day, 1.942 hours/ns, 143.035 timesteps/s
99.8% CPU use with 52 MPI tasks x 1 OpenMP threads

MPI task timing breakdown:
Section |  min time  |  avg time  |  max time  |%varavg| %total
---------------------------------------------------------------
Pair    | 484.25     | 499.06     | 522.85     |  43.6 | 71.38
Bond    | 0.0082348  | 0.01367    | 0.026251   |   2.9 |  0.00
Kspace  | 154.23     | 176.64     | 190.31     |  70.4 | 25.27
Neigh   | 1.1944     | 1.2942     | 1.422      |   4.2 |  0.19
Comm    | 14.742     | 15.635     | 17.636     |  20.1 |  2.24
Output  | 5.9951e-05 | 6.6283e-05 | 0.0003115  |   0.0 |  0.00
Modify  | 3.3833     | 4.9066     | 7.0776     |  55.6 |  0.70
Other   |            | 1.577      |            |       |  0.23

Nlocal:        339.846 ave         366 max         321 min
Histogram: 1 3 11 12 11 8 2 0 1 3
Nghost:        5527.58 ave        5703 max        5365 min
Histogram: 10 6 3 1 7 9 1 3 0 12
Neighs:       107963.0 ave      118566 max       95105 min
Histogram: 1 3 4 3 4 14 15 4 1 3

Total # of neighbors = 5614090
Ave neighs/atom = 317.68278
Ave special neighs/atom = 0.0000000
Neighbor list builds = 423
Dangerous builds = 0
11760 atoms in group oxygen
PPPM initialization ...
  using 12-bit tables for long-range coulomb (../kspace.cpp:328)
  G vector (1/distance) = 0.29896965
  grid = 40 240 40
  stencil order = 5
  estimated absolute RMS force accuracy = 0.00015482663
  estimated relative force accuracy = 1.0752114e-05
  using single precision MKL FFT
  3d grid and FFT values/proc = 18225 7600
Neighbor list info ...
  update every 1 steps, delay 0 steps, check yes
  max neighbors/atom: 2000, page size: 100000
  master list distance cutoff = 13
  ghost atom cutoff = 13
  binsize = 6.5, bins = 5 52 5
  3 neighbor lists, perpetual/occasional/extra = 3 0 0
  (1) pair coul/long, perpetual
      attributes: half, newton on
      pair build: half/bin/newton
      stencil: half/bin/3d/newton
      bin: standard
  (2) pair eam/alloy, perpetual, skip from (1)
      attributes: half, newton on
      pair build: skip
      stencil: none
      bin: none
  (3) pair table, perpetual, skip from (1)
      attributes: half, newton on
      pair build: skip
      stencil: none
      bin: none
Setting up Verlet run ...
  Unit style    : metal
  Current step  : 0
  Time step     : 0.001
Per MPI rank memory allocation (min/avg/max) = 9.517 | 10.21 | 10.29 Mbytes
Step f_2 Temp v_Tdiff v_deltaT 
       0            0    297.81121            0            0 
  100000      354.386    300.15403 0.0076435224    88.740585 
  200000    705.25468    297.27771 0.0082211544    95.446839 
  300000    1055.8147    299.25899 0.0082123388    95.344491 
  400000      1406.96    298.45177 0.0084066226    97.600108 
  500000    1759.1691    299.93183 0.0082270738    95.515563 
  600000    2108.8472    299.56503   0.00806114    93.589087 
  700000    2460.4417    296.81929 0.0079272607    92.034761 
  800000     2813.522    296.42926 0.0080454605    93.407049 
  900000    3163.5754    298.99598  0.008452644    98.134412 
 1000000    3518.8401    298.20075  0.008110346    94.160363 
Loop time of 6999.26 on 52 procs for 1000000 steps with 17672 atoms

Performance: 12.344 ns/day, 1.944 hours/ns, 142.872 timesteps/s
99.8% CPU use with 52 MPI tasks x 1 OpenMP threads

MPI task timing breakdown:
Section |  min time  |  avg time  |  max time  |%varavg| %total
---------------------------------------------------------------
Pair    | 4846.2     | 4989.1     | 5220.9     | 131.6 | 71.28
Bond    | 0.080554   | 0.14128    | 0.22588    |   8.5 |  0.00
Kspace  | 1569.3     | 1788.6     | 1919.8     | 210.5 | 25.55
Neigh   | 11.918     | 12.911     | 14.057     |  13.3 |  0.18
Comm    | 146.11     | 156.18     | 173.31     |  59.5 |  2.23
Output  | 0.0011734  | 0.0012625  | 0.0022873  |   0.4 |  0.00
Modify  | 6.1294     | 6.6382     | 7.4207     |  12.2 |  0.09
Other   |            | 45.68      |            |       |  0.65

Nlocal:        339.846 ave         366 max         316 min
Histogram: 1 3 3 4 20 13 3 1 0 4
Nghost:        5523.31 ave        5712 max        5371 min
Histogram: 11 9 0 0 11 5 3 1 0 12
Neighs:       107962.0 ave      119555 max       95116 min
Histogram: 3 1 4 3 10 10 12 5 3 1

Total # of neighbors = 5614014
Ave neighs/atom = 317.67847
Ave special neighs/atom = 0.0000000
Neighbor list builds = 4224
Dangerous builds = 0
Total wall time: 2:08:18
