ITEM: TIMESTEP
20000
ITEM: NUMBER OF ATOMS
17760
ITEM: BOX BOUNDS pp pp pp
-4.5227948835119214e-01 2.7792279488350999e+01
-5.5229489462370820e+00 3.3360294894623655e+02
-4.8033587934896976e-01 2.7820335879349287e+01
ITEM: ATOMS id type q x y z
1 2 2.2208 5.35609 -0.0273488 5.21143
2 1 -1.1104 0.867587 -3.98304 1.07354
6 1 -1.1104 1.10601 -3.79827 3.71249
10 1 -1.1104 0.817018 -1.20935 0.821721
12 2 2.2208 5.09483 -2.67466 2.48304
14 1 -1.1104 1.02547 -1.13897 3.71608
16 1 -1.1104 3.72325 -4.02687 0.715995
18 2 2.2208 2.28616 0.052871 2.24274
19 1 -1.1104 3.7823 -4.25843 3.7707
21 2 2.2208 2.33443 -2.70562 5.20669
23 1 -1.1104 3.68689 -1.4017 1.05939
24 1 -1.1104 3.95128 -1.53176 4.06506
11 1 -1.1104 6.63958 -1.46462 0.940255
15 1 -1.1104 6.66373 -1.2671 3.79144
202 2 2.2208 2.44107 -5.4485 8.0698
326 1 -1.1104 12.1818 15.4645 12.209
174 1 -1.1104 3.80963 -1.34198 6.61015
172 1 -1.1104 3.74996 -4.05201 6.85587
231 2 2.2208 7.95464 -5.334 7.78088
333 2 2.2208 13.6036 14.1286 10.6773
365 2 2.2208 8.09997 11.2723 13.4841
8 1 -1.1104 6.59926 -4.04256 3.7273
4 1 -1.1104 6.49616 -4.01601 1.05518
31 2 2.2208 10.83 0.0833399 4.96366
32 1 -1.1104 12.1226 -4.23462 0.618917
34 1 -1.1104 12.1911 -4.18954 3.39294
36 1 -1.1104 12.2167 -1.30456 0.850854
37 2 2.2208 10.7555 -2.49968 2.12555
39 1 -1.1104 12.446 -1.17932 3.66134
40 1 -1.1104 9.28178 -4.0189 0.893889
42 2 2.2208 7.83416 0.166942 2.28606
43 1 -1.1104 9.5362 -4.0166 3.7803
45 2 2.2208 8.10807 -2.59038 5.1431
47 1 -1.1104 9.37305 -1.32915 0.843584
48 1 -1.1104 9.43244 -1.32403 3.72829
208 1 -1.1104 9.17274 -3.90999 6.68308
205 1 -1.1104 12.1985 -4.0167 6.48423
168 1 -1.1104 6.61114 -3.92437 6.64719
210 1 -1.1104 9.38955 -0.990239 6.62384
332 2 2.2208 13.603 16.8012 8.01941
361 2 2.2208 2.43249 11.3693 13.6636
3 1 -1.1104 0.80589 1.35807 0.826589
7 1 -1.1104 0.849719 1.43974 3.73555
13 2 2.2208 5.08046 2.78601 2.1351
17 1 -1.1104 3.6985 1.55499 0.737304
20 1 -1.1104 3.62936 1.36285 3.54301
22 2 2.2208 2.36465 2.80322 5.13005
54 2 2.2208 5.02603 5.67779 4.75229
58 1 -1.1104 0.921815 7.30011 3.74329
60 1 -1.1104 0.825302 4.13895 0.848914
67 1 -1.1104 0.911055 4.36614 3.8399
71 1 -1.1104 3.59953 7.18625 0.717852
72 2 2.2208 2.20732 5.84529 2.36782
76 1 -1.1104 3.61008 4.35456 0.84077
79 1 -1.1104 3.55359 4.34471 3.61256
56 1 -1.1104 0.926453 6.95693 0.814367
74 1 -1.1104 3.69244 7.09952 3.63785
25 2 2.2208 -0.433606 -2.52222 2.30509
5 1 -1.1104 6.51693 1.35934 0.713503
57 1 -1.1104 6.59688 6.92549 0.891159
9 1 -1.1104 6.47825 1.55117 3.79858
337 2 2.2208 13.4371 13.8399 5.28333
239 1 -1.1104 3.57853 4.18263 6.48056
315 1 -1.1104 9.28349 15.5004 12.2924
399 2 2.2208 7.86326 8.49281 -0.473727
69 1 -1.1104 6.3088 4.10727 3.58323
59 1 -1.1104 6.32201 7.19081 3.62096
63 1 -1.1104 6.63991 4.11478 0.645095
33 1 -1.1104 12.3039 1.56029 0.591901
35 1 -1.1104 11.966 1.50611 3.47457
38 2 2.2208 10.9542 2.77683 2.01677
41 1 -1.1104 9.30136 1.41836 0.817359
44 1 -1.1104 9.32588 1.47427 3.68991
46 2 2.2208 8.10415 2.89371 5.04221
84 2 2.2208 10.8278 5.76569 5.27755
86 1 -1.1104 12.2993 6.94465 0.683416
88 1 -1.1104 12.4677 4.27405 0.972587
92 1 -1.1104 12.2144 4.50998 3.91085
94 1 -1.1104 9.36535 6.98651 0.969
95 2 2.2208 8.03166 5.77513 2.32637
97 1 -1.1104 9.10336 7.01622 3.8927
99 1 -1.1104 9.50602 4.19113 0.951269
102 1 -1.1104 9.31407 4.60634 3.87194
87 1 -1.1104 11.8975 7.16223 3.62521
206 1 -1.1104 12.1065 1.6021 6.42971
237 1 -1.1104 6.57622 4.49535 6.52885
265 1 -1.1104 12.1246 7.03784 6.68702
169 1 -1.1104 6.65406 1.70084 6.56961
354 2 2.2208 13.5237 -5.43442 13.5408
339 2 2.2208 13.5568 5.73857 8.13737
55 2 2.2208 5.19417 11.4203 5.25397
61 1 -1.1104 0.927838 9.62383 1.03693
66 2 2.2208 5.01299 8.43814 2.20661
68 1 -1.1104 0.77767 10.0147 3.68425
73 2 2.2208 2.41764 11.2612 2.49537
75 2 2.2208 2.20248 8.55997 5.21835
77 1 -1.1104 3.82655 9.87513 0.846009
80 1 -1.1104 3.67338 9.83463 3.81757
107 1 -1.1104 0.887342 12.7608 0.762458
113 1 -1.1104 1.14262 12.6739 3.61137
123 1 -1.1104 3.63292 12.6972 0.961242
128 1 -1.1104 3.87307 12.8192 3.74807
64 1 -1.1104 6.55817 9.85307 1.11532
70 1 -1.1104 6.5573 9.92166 3.9551
320 2 2.2208 7.96934 17.0004 7.96404
115 1 -1.1104 6.75437 12.7416 4.02735
110 1 -1.1104 6.40615 12.8608 1.08797
85 2 2.2208 10.7886 11.2199 5.14175
89 1 -1.1104 12.1318 9.99971 0.803766
91 2 2.2208 10.6948 8.43687 2.35464
93 1 -1.1104 12.22 9.73975 3.60401
96 2 2.2208 7.74652 11.2147 2.55733
98 2 2.2208 7.81755 8.33485 5.20194
100 1 -1.1104 9.23189 9.942 1.03469
103 1 -1.1104 9.17215 9.85875 3.88221
142 1 -1.1104 12.1945 12.64 0.979018
146 1 -1.1104 12.1972 12.4227 3.7768
153 1 -1.1104 9.31967 12.827 1.12729
158 1 -1.1104 9.46977 12.6143 3.94153
154 1 -1.1104 9.35099 12.808 6.60503
29 2 2.2208 5.21171 -5.42178 5.17929
200 2 2.2208 -0.447261 -2.70025 8.07143
360 2 2.2208 5.09467 8.51831 13.467
104 2 2.2208 13.5357 11.2451 2.31393
130 2 2.2208 2.45344 14.2711 5.04254
119 2 2.2208 5.03688 14.1275 2.44698
106 2 2.2208 5.06238 17.055 5.06933
109 1 -1.1104 0.868642 18.4175 1.24971
114 1 -1.1104 0.929057 18.4264 3.91175
116 1 -1.1104 0.696991 15.6892 0.853203
120 2 2.2208 4.96141 19.7805 2.2627
121 1 -1.1104 0.937494 15.3984 3.90134
125 1 -1.1104 3.7136 18.2793 0.868976
127 2 2.2208 2.25111 17.0635 2.47779
129 1 -1.1104 3.57257 18.4181 3.70535
131 2 2.2208 2.21308 19.7137 5.14222
132 1 -1.1104 3.53795 15.5262 1.22908
134 1 -1.1104 3.76858 15.589 3.87021
117 1 -1.1104 0.717556 15.6648 6.69208
126 1 -1.1104 3.6914 18.1492 6.64468
302 1 -1.1104 0.912622 18.2877 6.71955
402 2 2.2208 13.645 8.46714 -0.451003
30 2 2.2208 -0.306492 -5.45778 5.09755
139 1 -1.1104 6.35561 18.2472 3.6094
138 1 -1.1104 6.61014 18.512 0.973501
150 2 2.2208 10.7393 14.1741 2.46015
160 2 2.2208 8.05141 14.082 5.21721
122 1 -1.1104 6.6223 15.4517 3.7772
140 1 -1.1104 6.49233 15.5979 0.949363
141 2 2.2208 10.9119 16.8599 5.11918
144 1 -1.1104 12.2075 18.1803 1.12611
147 1 -1.1104 12.1985 18.3431 3.97322
148 1 -1.1104 12.2086 15.4208 0.908851
151 2 2.2208 10.87 19.7794 2.5152
152 1 -1.1104 12.2735 15.3415 3.87255
155 1 -1.1104 9.28766 18.3525 1.00465
157 2 2.2208 8.04102 16.9492 2.4988
159 1 -1.1104 9.28213 18.3058 3.84626
161 2 2.2208 7.91159 19.6157 5.04792
162 1 -1.1104 9.40548 15.4488 0.843067
164 1 -1.1104 9.69283 15.7354 3.67853
149 1 -1.1104 12.245 15.2521 6.56008
203 2 2.2208 5.16848 -5.48972 10.6516
380 2 2.2208 13.5122 16.8541 13.4749
367 2 2.2208 -0.421532 2.96629 13.663
334 2 2.2208 13.5892 2.92938 5.15554
403 2 2.2208 2.24521 14.1437 -0.385401
137 2 2.2208 -0.422207 16.8587 5.44471
378 2 2.2208 10.8613 16.9257 -0.414041
166 1 -1.1104 0.97603 -4.07016 6.56312
170 1 -1.1104 0.90733 -1.10765 6.75201
175 2 2.2208 5.24474 0.168356 10.7341
176 1 -1.1104 0.82794 -4.341 12.3894
180 1 -1.1104 0.825006 -4.10708 9.39268
184 1 -1.1104 1.01228 -1.41839 12.2546
186 2 2.2208 5.32613 -2.62516 7.92455
188 1 -1.1104 1.01284 -1.03843 9.4714
190 1 -1.1104 3.71497 -3.9857 12.2202
192 2 2.2208 2.33748 0.149448 7.96098
193 1 -1.1104 3.54524 -3.92796 9.54994
195 2 2.2208 2.35424 -2.4935 10.8048
197 1 -1.1104 3.68845 -1.34775 12.2659
198 1 -1.1104 3.87625 -1.24788 9.66227
189 1 -1.1104 6.6584 -1.14151 9.51027
178 1 -1.1104 6.59319 -4.14633 12.1731
182 1 -1.1104 6.46059 -4.10759 9.36024
229 2 2.2208 13.4345 0.123068 7.74441
207 1 -1.1104 12.0892 -1.26361 6.29576
171 1 -1.1104 6.69026 -1.16795 6.70807
185 1 -1.1104 6.45868 -1.353 12.3836
211 2 2.2208 10.9267 -0.026358 10.6137
212 1 -1.1104 12.2166 -4.09718 11.7997
214 1 -1.1104 12.1962 -4.14793 9.27807
216 1 -1.1104 12.3574 -1.35707 12.0484
217 2 2.2208 10.8928 -2.80257 7.97796
219 1 -1.1104 12.4856 -1.36997 9.04386
220 1 -1.1104 9.30829 -4.21849 12.1411
222 2 2.2208 8.10945 0.147529 8.09132
223 1 -1.1104 9.34989 -4.16814 9.43654
225 2 2.2208 7.96722 -2.79965 10.8521
227 1 -1.1104 9.43424 -1.34972 12.163
228 1 -1.1104 9.42628 -1.39209 9.36851
156 1 -1.1104 9.47936 18.2197 6.41681
173 1 -1.1104 4.02029 1.39533 6.57306
105 2 2.2208 13.5504 5.72026 2.24497
288 1 -1.1104 6.32506 18.4383 9.32638
234 1 -1.1104 0.889315 7.22858 6.55391
167 1 -1.1104 1.00051 1.59877 6.61369
238 1 -1.1104 3.56552 7.1141 6.45307
236 1 -1.1104 0.908485 4.32457 6.51546
177 1 -1.1104 0.763435 1.47253 12.4382
181 1 -1.1104 1.09777 1.71165 9.63152
187 2 2.2208 5.14912 3.10433 7.84924
191 1 -1.1104 3.80342 1.72796 12.3022
194 1 -1.1104 3.84578 1.59114 9.33106
196 2 2.2208 2.34426 3.11484 10.9157
240 2 2.2208 5.24764 5.85009 10.7274
242 1 -1.1104 0.807987 7.29166 12.1033
244 1 -1.1104 0.709003 7.3712 9.28882
246 1 -1.1104 0.834674 4.1767 12.1239
251 1 -1.1104 0.787623 4.68574 9.39078
255 1 -1.1104 3.81586 7.04885 11.9998
256 2 2.2208 2.36564 5.85349 7.86162
260 1 -1.1104 3.78828 4.39356 12.3037
262 1 -1.1104 3.50796 4.38484 9.45141
258 1 -1.1104 3.72524 7.14167 9.23007
356 2 2.2208 10.9114 -2.74554 13.5462
183 1 -1.1104 6.75463 1.59539 9.57052
248 1 -1.1104 6.56438 4.35397 12.0961
235 1 -1.1104 6.39897 7.27308 6.59306
209 1 -1.1104 9.39033 1.60571 6.62179
266 1 -1.1104 12.2213 4.54494 6.6807
179 1 -1.1104 6.54316 1.57396 12.3096
269 1 -1.1104 9.48003 4.27454 6.74704
267 1 -1.1104 9.33579 6.96805 6.67624
243 1 -1.1104 6.67578 7.07227 12.2238
253 1 -1.1104 6.32903 4.42288 9.30388
213 1 -1.1104 11.9658 1.36129 12.0209
215 1 -1.1104 12.1238 1.29721 9.34978
218 2 2.2208 10.7983 2.94247 8.15058
221 1 -1.1104 9.11228 1.39477 12.1836
224 1 -1.1104 9.55271 1.59242 9.43465
226 2 2.2208 7.78095 3.05597 10.8131
268 1 -1.1104 9.16492 4.39277 9.58576
271 1 -1.1104 9.30146 4.27755 12.268
273 1 -1.1104 9.47044 7.11391 9.19712
275 2 2.2208 8.07264 5.58594 7.9714
276 2 2.2208 10.8546 5.69487 10.8069
278 1 -1.1104 12.1418 7.10434 12.1872
279 1 -1.1104 12.2309 7.07725 9.44666
280 1 -1.1104 11.9289 4.06243 12.2448
283 1 -1.1104 12.2635 4.26931 9.45387
285 1 -1.1104 9.59436 7.1186 12.2736
245 1 -1.1104 6.90262 7.12588 9.16102
338 2 2.2208 13.4688 2.86778 10.6976
341 2 2.2208 13.603 8.5041 10.9585
335 2 2.2208 13.4431 8.36506 5.0959
111 1 -1.1104 6.65424 12.7632 6.6222
124 1 -1.1104 3.6807 12.6459 6.43298
108 1 -1.1104 0.960148 12.8087 6.49061
78 1 -1.1104 3.7642 9.92383 6.67938
62 1 -1.1104 0.996382 9.98865 6.62875
305 1 -1.1104 3.83292 12.6975 9.39921
299 1 -1.1104 1.18342 12.7315 12.3255
294 1 -1.1104 0.818592 13.0778 9.44971
287 1 -1.1104 3.94824 12.9084 12.0933
241 2 2.2208 5.0341 11.4526 10.8081
247 1 -1.1104 0.960076 10.1014 12.234
250 2 2.2208 4.99609 8.52715 7.93844
252 1 -1.1104 0.705922 10.1509 9.43905
257 2 2.2208 2.26306 11.346 7.94967
259 2 2.2208 2.09483 8.62799 10.7308
261 1 -1.1104 3.68577 9.87618 12.2478
263 1 -1.1104 3.53844 10.0777 9.44108
254 1 -1.1104 6.49072 9.98203 9.34347
249 1 -1.1104 6.46553 10.0571 12.3301
349 2 2.2208 2.36768 0.25866 13.6038
101 1 -1.1104 9.2467 9.9167 6.58697
143 1 -1.1104 12.0945 12.5748 6.58102
377 2 2.2208 7.85122 14.0177 -0.332224
65 1 -1.1104 6.38664 10.1326 6.74759
90 1 -1.1104 12.0976 9.78508 6.41158
297 1 -1.1104 6.60485 12.8154 12.3458
290 1 -1.1104 6.89733 12.8316 9.40387
330 1 -1.1104 12.2971 12.7784 12.3486
328 1 -1.1104 12.2926 12.7647 9.44249
322 1 -1.1104 9.41563 12.6684 12.0384
319 1 -1.1104 9.6306 12.8278 9.3908
264 1 -1.1104 9.6056 9.98748 9.34548
270 1 -1.1104 9.30079 9.75145 12.0671
272 2 2.2208 8.07638 8.50469 10.5278
274 2 2.2208 8.06045 11.3435 7.93598
277 2 2.2208 10.8711 11.2758 10.8715
281 1 -1.1104 12.2858 10.0895 12.4224
282 2 2.2208 10.8755 8.47421 7.82224
284 1 -1.1104 12.2311 9.84555 9.51063
133 1 -1.1104 3.6472 15.5088 6.55887
118 1 -1.1104 6.29219 15.622 6.43204
296 1 -1.1104 6.68126 18.1757 12.2077
400 2 2.2208 10.5922 11.3271 -0.450649
366 2 2.2208 13.576 5.73254 13.5711
310 2 2.2208 2.40904 14.3252 10.8584
286 1 -1.1104 3.81675 18.1779 12.3837
295 2 2.2208 5.06919 14.1907 7.84344
309 2 2.2208 2.4988 19.6018 10.9269
308 1 -1.1104 3.70442 15.6698 12.2242
307 1 -1.1104 0.770314 15.5833 12.3298
304 1 -1.1104 3.69511 15.4957 9.51208
303 2 2.2208 2.38814 16.9092 8.15611
301 1 -1.1104 3.69759 18.1043 9.71993
300 2 2.2208 5.21183 16.7832 10.9764
298 1 -1.1104 0.953518 18.2967 12.2187
293 2 2.2208 5.21224 19.7711 7.90911
292 1 -1.1104 0.885239 15.7155 9.5891
291 1 -1.1104 0.923458 18.577 9.67733
306 1 -1.1104 6.46336 15.5978 12.5125
112 1 -1.1104 6.59833 18.428 6.46707
317 2 2.2208 8.02603 14.1511 10.8067
50 2 2.2208 13.6167 -2.69157 5.04459
327 1 -1.1104 12.2548 18.1557 9.2587
321 1 -1.1104 9.25052 18.3197 12.2505
289 1 -1.1104 6.3534 15.5805 9.22068
316 2 2.2208 8.02042 19.817 10.7309
314 1 -1.1104 9.4607 15.6038 9.38358
163 1 -1.1104 9.29127 15.539 6.69638
325 2 2.2208 10.8166 14.1598 8.07222
331 2 2.2208 10.8426 16.9657 10.8415
323 1 -1.1104 12.2324 15.4334 9.40677
324 2 2.2208 10.8547 19.6844 7.7152
318 1 -1.1104 9.09817 18.3669 9.32102
329 1 -1.1104 12.1648 18.3633 12.1956
145 1 -1.1104 12.3208 18.11 6.61869
370 2 2.2208 13.4661 0.162379 13.5395
230 2 2.2208 13.6588 -2.54963 10.6173
372 2 2.2208 10.7648 19.6057 13.5425
379 2 2.2208 8.08721 19.6886 -0.458645
359 2 2.2208 2.11977 5.60472 13.5107
368 2 2.2208 2.18665 16.8379 13.6459
346 2 2.2208 -0.423776 -2.85089 13.6257
357 2 2.2208 10.5432 2.79867 13.6099
395 2 2.2208 5.0274 11.4857 -0.445724
406 2 2.2208 5.00209 -0.0709441 16.6849
407 1 -1.1104 0.865581 -3.87685 17.9599
411 1 -1.1104 1.02173 -4.20791 15.2276
419 1 -1.1104 0.749788 -1.15818 17.7177
421 2 2.2208 5.21115 -2.81477 19.2762
423 1 -1.1104 1.00346 -1.21561 14.9227
427 1 -1.1104 3.84394 -4.07546 17.932
429 2 2.2208 2.34657 0.0976575 19.2556
430 1 -1.1104 3.89744 -4.25724 15.19
434 2 2.2208 2.26106 -2.61347 16.3567
436 1 -1.1104 3.52151 -1.26412 17.7679
437 1 -1.1104 3.59974 -1.35289 14.93
394 2 2.2208 2.39449 8.3756 27.5799
668 2 2.2208 10.7867 -5.50788 22.1901
385 2 2.2208 5.19525 -5.44433 27.7575
473 2 2.2208 13.6151 -5.49884 19.1618
431 1 -1.1104 3.69602 -4.07288 20.8838
438 1 -1.1104 3.68371 -1.19234 20.5888
388 2 2.2208 7.79264 -2.75025 27.7323
663 1 -1.1104 12.1395 15.7501 26.2542
671 2 2.2208 13.4241 -2.71164 22.0586
736 1 -1.1104 6.50417 18.309 23.7736
415 1 -1.1104 6.80554 -4.33647 15.1192
425 1 -1.1104 6.42696 -1.70601 15.2238
420 1 -1.1104 6.80213 -1.63316 17.9572
409 1 -1.1104 6.71842 -4.19944 17.9735
449 2 2.2208 10.6926 0.242304 16.3361
450 1 -1.1104 12.1945 -4.12686 17.8121
452 1 -1.1104 12.204 -4.22844 14.7773
456 1 -1.1104 12.3783 -1.19758 17.7643
457 2 2.2208 10.8813 -2.66784 19.3133
459 1 -1.1104 12.1915 -1.27034 14.8425
461 1 -1.1104 9.56013 -4.11126 17.9426
463 2 2.2208 8.10056 0.0794659 19.3242
464 1 -1.1104 9.42262 -3.97815 15.0554
468 2 2.2208 8.14374 -2.70174 16.4081
470 1 -1.1104 9.48699 -1.25358 17.8367
471 1 -1.1104 9.29423 -1.21883 15.1076
397 2 2.2208 -0.392302 5.68778 27.6874
474 2 2.2208 10.9154 -5.43272 16.4263
453 1 -1.1104 12.3654 -4.1439 20.6994
599 1 -1.1104 9.37797 18.2089 20.8614
383 2 2.2208 2.193 2.88146 27.6238
408 1 -1.1104 0.897443 1.47167 17.8121
413 1 -1.1104 0.922399 1.73686 15.0324
422 2 2.2208 5.1896 2.84117 19.233
428 1 -1.1104 3.6545 1.43506 17.7755
432 1 -1.1104 3.72726 1.23127 15.0477
435 2 2.2208 2.47762 2.94203 16.4692
482 2 2.2208 5.04962 5.92545 16.3583
484 1 -1.1104 0.861411 6.92374 17.9664
486 1 -1.1104 0.8865 7.17461 14.9481
490 1 -1.1104 0.993111 4.22458 17.8187
495 1 -1.1104 0.863153 4.49988 14.9981
503 1 -1.1104 3.80186 7.19811 17.8353
504 2 2.2208 2.42694 5.72948 19.3085
509 1 -1.1104 3.72122 4.61243 17.6685
511 1 -1.1104 3.54272 4.15827 15.0581
506 1 -1.1104 3.68852 7.02098 14.7463
499 1 -1.1104 6.53984 4.11018 15.0833
433 1 -1.1104 3.78658 1.54722 20.6873
417 1 -1.1104 6.39331 1.21227 15.2337
488 1 -1.1104 6.65424 7.09375 15.0955
485 1 -1.1104 6.37065 7.07838 17.9132
441 2 2.2208 2.17712 -5.386 19.1574
704 1 -1.1104 9.2139 15.4816 26.4414
489 1 -1.1104 6.52143 6.9113 20.8768
500 1 -1.1104 6.48295 4.10372 20.8017
418 1 -1.1104 6.6361 1.3349 20.7177
492 1 -1.1104 6.47536 4.09243 17.8378
410 1 -1.1104 6.4632 1.2701 17.7657
451 1 -1.1104 12.3106 1.61879 17.856
454 1 -1.1104 11.933 1.44618 14.8178
458 2 2.2208 10.8616 2.95724 19.4385
462 1 -1.1104 9.35015 1.54047 17.8153
466 1 -1.1104 9.18205 1.63832 14.9641
469 2 2.2208 7.95636 2.73166 16.4896
518 2 2.2208 10.8463 5.68968 16.5463
521 1 -1.1104 12.4188 7.29614 15.0814
523 1 -1.1104 12.0797 4.53986 18.0297
526 1 -1.1104 12.1309 4.39743 14.8937
530 1 -1.1104 9.1443 7.27128 18.0613
531 2 2.2208 7.86193 5.52237 19.3717
536 1 -1.1104 9.27961 4.33004 17.894
538 1 -1.1104 9.57379 4.26653 15.0651
520 1 -1.1104 12.0369 7.09034 17.8143
533 1 -1.1104 9.41167 7.15251 14.9792
522 1 -1.1104 11.8217 7.1569 20.7295
635 1 -1.1104 12.2248 18.7119 26.3431
439 2 2.2208 -0.358604 -5.4109 16.5058
539 1 -1.1104 9.40106 4.18559 20.7513
364 2 2.2208 10.7783 8.55733 13.7492
480 2 2.2208 13.6032 14.1447 16.5229
389 2 2.2208 8.10271 2.82001 27.7165
737 2 2.2208 5.21054 19.7413 25.0874
483 2 2.2208 5.20443 10.9828 16.4098
491 1 -1.1104 0.817011 9.91881 17.9233
494 2 2.2208 5.11015 8.60428 19.2291
497 1 -1.1104 0.890596 9.97789 15.0636
505 2 2.2208 2.1921 11.1787 19.2958
508 2 2.2208 2.15011 8.61157 16.4085
510 1 -1.1104 3.68758 9.94278 17.8431
513 1 -1.1104 3.64629 9.92351 15.0024
546 1 -1.1104 0.787139 12.5168 17.8521
550 1 -1.1104 0.984608 12.4203 15.2641
566 1 -1.1104 3.4976 12.7212 18.058
569 1 -1.1104 3.96142 12.4988 15.1495
554 1 -1.1104 6.81559 12.5139 14.9631
501 1 -1.1104 6.49013 9.86548 14.9989
493 1 -1.1104 6.53911 9.89818 17.9097
393 2 2.2208 5.04206 5.61671 27.6472
502 1 -1.1104 6.30672 9.86146 20.8062
672 2 2.2208 13.3794 -0.108613 24.9282
728 2 2.2208 13.489 5.74345 24.9101
477 2 2.2208 13.6258 -2.68587 16.3362
548 1 -1.1104 6.35547 12.5968 17.8585
519 2 2.2208 11.0079 11.3543 16.3463
524 1 -1.1104 12.2423 9.86986 17.8291
525 2 2.2208 10.7658 8.66548 19.2313
528 1 -1.1104 12.2495 10.1492 15.1096
532 2 2.2208 7.80302 11.5394 19.3126
535 2 2.2208 8.00529 8.59417 16.3141
537 1 -1.1104 9.21883 10.0219 17.7819
540 1 -1.1104 9.48984 9.96927 15.042
582 1 -1.1104 12.118 12.865 18.0027
584 1 -1.1104 12.521 12.9533 14.8086
593 1 -1.1104 9.10725 12.8852 17.9641
596 1 -1.1104 9.59687 12.4375 14.8292
665 1 -1.1104 9.2633 18.2503 23.6444
573 2 2.2208 2.37657 13.8553 16.5085
560 2 2.2208 5.15125 14.0886 19.4308
545 2 2.2208 5.08904 16.7751 16.579
547 1 -1.1104 0.524045 18.4387 17.8343
552 1 -1.1104 0.819993 18.2833 15.0733
558 1 -1.1104 0.981344 15.4318 17.9651
561 2 2.2208 5.15548 19.6495 19.1019
562 1 -1.1104 1.10037 15.507 15.2809
567 1 -1.1104 3.64905 18.1137 17.9802
568 2 2.2208 2.36724 16.7034 19.3137
571 1 -1.1104 3.66753 18.1938 15.215
574 2 2.2208 2.18723 19.659 16.5344
575 1 -1.1104 4.00699 15.5394 18.0294
576 1 -1.1104 3.83478 15.3143 15.0562
553 1 -1.1104 1.00342 18.1708 20.641
700 2 2.2208 7.98412 19.7852 22.0928
565 1 -1.1104 6.43665 15.708 20.7979
556 1 -1.1104 6.50996 18.2239 15.1985
564 1 -1.1104 6.58995 15.3728 15.3001
559 1 -1.1104 6.54049 15.3902 17.9926
604 1 -1.1104 9.39544 15.5035 20.7784
572 1 -1.1104 3.74926 18.1554 20.6918
587 1 -1.1104 12.1756 18.4788 20.7384
475 2 2.2208 8.11457 -5.46004 19.2812
398 2 2.2208 10.7234 5.5773 27.7594
701 1 -1.1104 9.51444 15.5382 23.6221
549 1 -1.1104 6.76357 18.1186 18.0064
600 2 2.2208 8.01533 14.0116 16.3893
589 2 2.2208 10.7492 14.1382 19.4131
581 2 2.2208 10.8167 16.9304 16.4751
583 1 -1.1104 12.0683 18.2825 17.747
586 1 -1.1104 12.1283 18.3495 15.0942
588 1 -1.1104 12.2163 15.4382 17.9412
590 2 2.2208 10.968 19.7591 19.3255
591 1 -1.1104 12.2071 15.5615 15.0251
594 1 -1.1104 9.45598 18.3673 17.9336
595 2 2.2208 7.96592 16.8708 19.3269
598 1 -1.1104 9.32407 18.0665 15.0678
601 2 2.2208 8.17381 19.5983 16.4717
602 1 -1.1104 9.41882 15.5267 17.9171
603 1 -1.1104 9.31531 15.3499 14.9807
667 2 2.2208 7.97182 16.7256 25.0635
557 1 -1.1104 6.72297 18.3631 20.9479
579 2 2.2208 13.5951 3.00746 16.516
670 1 -1.1104 6.66247 18.151 26.4949
592 1 -1.1104 12.1588 15.3636 20.801
633 1 -1.1104 12.1074 18.255 23.6653
542 2 2.2208 13.4397 5.86707 19.2773
412 1 -1.1104 0.790022 -4.06667 20.5437
424 1 -1.1104 0.859565 -1.30794 20.6095
609 2 2.2208 5.15465 -0.000725925 22.2101
610 1 -1.1104 1.01853 -4.09934 23.2346
614 1 -1.1104 1.0417 -4.1878 26.2839
618 1 -1.1104 1.15253 -1.42676 23.5836
620 2 2.2208 5.0773 -2.85544 24.8686
622 1 -1.1104 0.909727 -1.2867 26.3628
624 1 -1.1104 3.81996 -4.34496 23.7356
626 2 2.2208 2.33925 0.005097 25.0099
627 1 -1.1104 3.82761 -4.15205 26.3335
629 2 2.2208 2.27686 -2.66701 22.0238
631 1 -1.1104 3.91859 -1.50042 23.5835
632 1 -1.1104 3.60901 -1.26039 26.5004
426 1 -1.1104 6.45562 -1.54523 20.6169
619 1 -1.1104 6.63314 -1.32789 23.5881
734 1 -1.1104 1.01225 15.3444 26.4021
616 1 -1.1104 6.71941 -4.26655 26.4039
460 1 -1.1104 12.1374 -1.29961 20.5397
416 1 -1.1104 6.73809 -4.33074 20.8186
472 1 -1.1104 9.25221 -1.43983 20.6292
612 1 -1.1104 6.51608 -3.98991 23.6311
623 1 -1.1104 6.22157 -1.54405 26.2734
465 1 -1.1104 9.5364 -4.1977 20.7441
645 2 2.2208 10.8208 -0.0191557 21.9653
646 1 -1.1104 12.2247 -4.36797 23.4059
648 1 -1.1104 12.0219 -4.0805 26.0444
650 1 -1.1104 12.1113 -1.40843 23.4596
651 2 2.2208 10.6353 -2.88735 24.8173
653 1 -1.1104 11.9258 -1.28176 26.2867
654 1 -1.1104 9.18747 -4.20923 23.4336
656 2 2.2208 8.05483 0.139577 24.615
657 1 -1.1104 9.36587 -4.07474 26.4247
659 2 2.2208 7.8616 -2.75188 22.1518
661 1 -1.1104 9.39584 -1.45381 23.2925
662 1 -1.1104 9.04833 -1.32168 26.2128
476 2 2.2208 -0.447254 19.6858 19.521
641 2 2.2208 10.6342 19.6655 24.943
507 1 -1.1104 3.82432 7.10579 20.4654
414 1 -1.1104 0.989714 1.37106 20.6192
512 1 -1.1104 3.67382 4.28141 20.5536
487 1 -1.1104 0.790616 7.0057 20.7543
496 1 -1.1104 0.897932 4.13607 20.7614
611 1 -1.1104 0.944551 1.41274 23.5242
615 1 -1.1104 0.754751 1.28615 26.4203
621 2 2.2208 5.32394 2.9121 24.9842
625 1 -1.1104 3.75286 1.46844 23.5393
628 1 -1.1104 3.64163 1.62155 26.1998
630 2 2.2208 2.32803 2.80814 21.9568
674 2 2.2208 5.00798 5.75588 22.0817
676 1 -1.1104 0.722426 7.02684 23.5757
678 1 -1.1104 0.852075 7.01459 26.2376
680 1 -1.1104 1.01098 4.22756 23.4682
685 1 -1.1104 0.809539 4.38925 26.2951
689 1 -1.1104 3.68389 7.12368 23.4337
690 2 2.2208 2.23671 5.62745 24.8674
692 1 -1.1104 3.71677 6.88748 26.2765
694 1 -1.1104 3.96714 4.30117 23.4744
696 1 -1.1104 3.7108 4.32896 26.3226
679 1 -1.1104 6.5915 7.02107 26.2212
687 1 -1.1104 6.72076 4.129 26.4206
617 1 -1.1104 6.5576 1.31589 26.2199
636 1 -1.1104 12.3869 15.6462 23.7086
534 1 -1.1104 9.05084 7.33249 20.6551
580 2 2.2208 13.45 14.0642 22.2125
455 1 -1.1104 12.1302 1.52791 20.3199
467 1 -1.1104 9.42699 1.32755 20.816
677 1 -1.1104 6.44042 7.21155 23.5871
613 1 -1.1104 6.70801 1.52294 23.4802
682 1 -1.1104 6.70518 4.38912 23.6203
527 1 -1.1104 12.3735 4.56344 20.9011
647 1 -1.1104 12.2566 1.26499 23.3511
649 1 -1.1104 12.289 1.76391 26.0848
652 2 2.2208 10.8204 2.89841 24.7569
655 1 -1.1104 9.37865 1.51396 23.4444
658 1 -1.1104 9.37242 1.58666 26.273
660 2 2.2208 7.93322 2.985 22.0964
706 1 -1.1104 9.31168 4.19002 26.2542
708 1 -1.1104 9.4598 4.31596 23.3853
710 1 -1.1104 9.28441 7.05946 26.3385
712 2 2.2208 7.95136 5.79327 24.8764
713 2 2.2208 10.6649 5.79902 22.138
715 1 -1.1104 12.276 7.09822 23.517
716 1 -1.1104 12.1141 7.30498 26.4967
717 1 -1.1104 12.4707 4.12879 23.5496
720 1 -1.1104 12.0571 4.46058 26.4493
722 1 -1.1104 9.55785 7.29213 23.585
445 2 2.2208 13.6491 8.50746 22.2527
698 1 -1.1104 9.33921 18.1609 26.3548
498 1 -1.1104 0.783504 9.67487 20.7894
514 1 -1.1104 3.51174 9.9067 20.851
570 1 -1.1104 3.6835 12.7002 20.6395
551 1 -1.1104 0.754089 12.5649 20.4988
741 1 -1.1104 1.05381 12.8121 23.2368
675 2 2.2208 5.15387 11.3326 22.1431
681 1 -1.1104 0.886921 9.9261 23.5088
684 2 2.2208 5.09703 8.56126 24.9688
686 1 -1.1104 0.838716 9.94805 26.2827
691 2 2.2208 2.17619 11.302 24.9563
693 2 2.2208 2.17546 8.41035 22.0691
695 1 -1.1104 3.54124 9.90925 23.6207
697 1 -1.1104 3.6545 9.71651 26.3533
746 1 -1.1104 3.50446 12.7136 26.4863
731 1 -1.1104 3.81041 12.9359 23.549
735 1 -1.1104 0.626158 12.6859 26.1496
683 1 -1.1104 6.46064 9.89222 23.5406
739 1 -1.1104 6.55246 12.7155 23.6778
607 2 2.2208 10.7172 16.9455 22.3028
555 1 -1.1104 6.40138 12.8842 20.8083
585 1 -1.1104 12.4154 12.4428 20.6058
541 1 -1.1104 9.25231 10.0066 20.8032
529 1 -1.1104 12.0971 9.92009 20.7776
730 1 -1.1104 6.33172 12.5514 26.5903
688 1 -1.1104 6.51944 9.90579 26.3999
597 1 -1.1104 9.45418 12.7502 20.7082
673 1 -1.1104 9.22676 12.5816 26.324
664 1 -1.1104 9.19689 12.941 23.4579
634 1 -1.1104 12.3247 12.866 26.3191
608 1 -1.1104 12.1322 12.6664 23.4588
705 1 -1.1104 9.33258 9.69448 26.6528
707 1 -1.1104 9.21661 10.0421 23.6381
709 2 2.2208 7.88635 8.55881 22.1266
711 2 2.2208 7.62811 11.2282 25.044
714 2 2.2208 10.7439 11.286 22.1716
718 1 -1.1104 12.2164 9.77418 23.5165
719 2 2.2208 10.7249 8.58696 25.0877
721 1 -1.1104 12.2432 10.1371 26.1055
638 2 2.2208 10.7772 14.1522 24.9218
699 2 2.2208 7.84461 14.2698 22.1608
732 1 -1.1104 6.45669 15.3611 26.4019
747 1 -1.1104 6.55663 15.5255 23.383
478 2 2.2208 13.502 19.6944 16.3531
577 1 -1.1104 3.70496 15.4968 20.8623
563 1 -1.1104 0.759282 15.4697 20.79
727 2 2.2208 2.427 14.0724 22.0929
738 2 2.2208 5.09266 14.1406 24.8886
744 2 2.2208 2.33076 16.8883 24.9004
743 1 -1.1104 3.7124 18.2616 26.1693
742 2 2.2208 5.16772 17.0281 22.1926
740 1 -1.1104 1.03203 18.3302 23.503
750 2 2.2208 2.47156 19.4854 21.9794
749 1 -1.1104 3.85307 15.5527 23.5587
748 1 -1.1104 0.868966 15.6223 23.5534
745 1 -1.1104 3.74008 15.6562 26.4866
729 1 -1.1104 3.9861 18.5771 23.5586
733 1 -1.1104 0.637685 18.3696 26.5471
642 2 2.2208 -0.162134 -2.74594 24.9658
726 2 2.2208 13.5956 11.2888 24.6959
348 2 2.2208 5.22487 -2.90153 13.6944
382 2 2.2208 2.34314 -2.7977 27.8198
479 2 2.2208 13.5654 16.8019 19.2581
391 2 2.2208 13.4521 -2.70723 27.5784
387 2 2.2208 10.5946 -0.0533595 27.8111
543 2 2.2208 13.5877 8.3746 16.4249
381 2 2.2208 5.02385 0.143528 27.6203
392 2 2.2208 13.5499 3.00924 27.5473
643 2 2.2208 -0.416544 0.078982 22.2685
363 2 2.2208 8.04784 5.65754 13.7105
442 2 2.2208 -0.336432 0.213875 16.2608
371 2 2.2208 5.17966 14.0619 13.8852
725 2 2.2208 -0.400334 14.2117 24.9898
376 2 2.2208 8.03669 16.7837 13.7074
369 2 2.2208 5.13604 19.4039 13.8417
350 2 2.2208 -0.314507 19.6906 13.6961
637 2 2.2208 -0.350274 -5.42886 22.0903
606 2 2.2208 13.4829 19.6887 22.288
440 2 2.2208 5.21203 -5.39689 16.5684
352 2 2.2208 5.13773 2.93166 13.7867
405 2 2.2208 2.09688 19.7039 27.6423
605 2 2.2208 13.6343 17.0702 24.9175
375 2 2.2208 13.5324 19.9615 27.8059
355 2 2.2208 7.84239 0.141976 13.703
373 2 2.2208 10.7669 14.0915 13.7046
404 2 2.2208 5.17744 16.8273 27.7812
751 2 2.2208 5.29117 22.4697 5.17959
753 1 -1.1104 0.929039 23.9322 0.870174
754 1 -1.1104 0.823351 23.9891 3.71019
755 1 -1.1104 0.845866 21.0515 1.02186
757 2 2.2208 5.01373 25.2642 2.36311
758 1 -1.1104 0.731095 21.2269 3.77159
760 1 -1.1104 3.85588 23.9512 1.02061
761 2 2.2208 2.21096 22.3522 2.21997
763 1 -1.1104 3.83855 23.8291 3.87597
764 2 2.2208 2.43574 25.1943 5.27196
765 1 -1.1104 3.45515 21.0941 0.74194
767 1 -1.1104 3.66092 21.0699 3.79341
766 1 -1.1104 3.71635 26.6786 1.12756
759 1 -1.1104 0.893038 26.7995 3.60063
892 1 -1.1104 1.21895 23.6557 6.44602
899 1 -1.1104 3.68879 20.8409 6.58016
774 1 -1.1104 6.2499 21.2873 1.13272
777 1 -1.1104 6.5758 26.6355 3.67861
772 1 -1.1104 6.55608 23.9456 1.03787
756 1 -1.1104 1.16823 26.7382 0.721509
768 1 -1.1104 3.84099 26.606 4.09849
1128 2 2.2208 10.7629 28.0302 -0.289888
773 1 -1.1104 6.53496 23.9312 3.9352
776 1 -1.1104 6.6364 21.0349 3.87808
778 2 2.2208 10.8042 22.5543 5.29003
780 1 -1.1104 12.01 23.8431 0.948972
781 1 -1.1104 12.075 23.7251 3.7334
782 1 -1.1104 12.1456 21.136 1.01412
784 2 2.2208 10.6469 25.1685 2.47752
785 1 -1.1104 12.3777 21.1901 3.83909
787 1 -1.1104 9.35409 23.6636 0.854947
788 2 2.2208 7.80009 22.6029 2.45819
790 1 -1.1104 9.30102 23.9896 3.7306
791 2 2.2208 7.95015 25.5176 5.23408
792 1 -1.1104 9.24445 21.204 0.998775
794 1 -1.1104 9.4463 21.2593 3.89598
793 1 -1.1104 9.25479 26.4652 0.910901
795 1 -1.1104 9.1719 26.99 4.03254
775 1 -1.1104 6.41682 26.8159 1.11301
786 1 -1.1104 11.9452 26.6151 3.87296
783 1 -1.1104 12.2656 26.3899 0.973113
930 1 -1.1104 9.32517 26.6212 6.74518
929 1 -1.1104 9.31076 21.0489 6.50325
1134 2 2.2208 8.09302 36.2668 -0.434823
752 2 2.2208 5.0893 28.0885 5.00218
762 2 2.2208 2.2999 28.0146 2.18181
800 1 -1.1104 0.917666 29.4768 0.884008
803 1 -1.1104 0.753118 29.4629 3.9975
806 1 -1.1104 0.899015 32.216 1.03812
807 2 2.2208 5.20864 30.9126 2.31562
809 1 -1.1104 1.13753 32.304 3.85079
811 1 -1.1104 3.78014 29.5488 0.856711
814 1 -1.1104 3.61178 29.4322 3.54122
816 2 2.2208 2.39434 30.8039 5.08738
818 1 -1.1104 3.91583 32.2524 1.05533
819 1 -1.1104 3.82133 32.5384 3.81271
955 1 -1.1104 3.94957 29.3984 6.38708
953 1 -1.1104 1.03677 32.1994 6.73319
957 1 -1.1104 3.75851 32.4047 6.86804
824 1 -1.1104 6.55756 29.4866 3.98678
1499 1 -1.1104 3.61878 46.4953 1.06035
1696 1 -1.1104 3.71807 46.4499 9.39846
1096 2 2.2208 5.11884 36.3843 13.6576
1074 2 2.2208 -0.441222 27.9785 10.8945
823 1 -1.1104 6.50122 29.5378 1.12654
1909 3 0 11.2234 46.027 13.1884
810 1 -1.1104 6.48023 32.2129 3.91255
825 1 -1.1104 6.69386 32.4038 1.07201
779 2 2.2208 10.7122 28.121 5.42435
789 2 2.2208 8.13527 28.0029 2.37908
827 1 -1.1104 12.0737 29.1881 1.26057
829 1 -1.1104 12.2263 29.4001 3.97056
831 1 -1.1104 12.3316 31.9518 1.03953
832 2 2.2208 11.0714 30.7276 2.42275
834 1 -1.1104 12.2051 32.2136 3.78782
835 1 -1.1104 9.31997 29.2103 0.824767
838 1 -1.1104 9.37762 29.7697 3.63996
840 2 2.2208 7.94738 30.9191 5.21724
842 1 -1.1104 9.35023 31.9269 1.07044
843 1 -1.1104 9.22044 32.3771 3.98072
951 1 -1.1104 6.71373 29.4493 6.86105
983 1 -1.1104 12.0946 29.4139 6.75644
1122 2 2.2208 10.8694 39.1839 -0.106667
1131 2 2.2208 4.97953 33.7803 -0.308961
1534 1 -1.1104 9.13035 46.5266 1.27963
799 2 2.2208 5.0252 33.919 5.19518
813 2 2.2208 2.26841 33.8249 2.51705
801 1 -1.1104 1.02644 35.1809 1.1829
804 1 -1.1104 0.984704 35.3359 4.05834
808 2 2.2208 5.25579 36.4213 2.44701
812 1 -1.1104 3.8099 35.1718 1.04536
815 1 -1.1104 3.60714 35.3048 3.94174
817 2 2.2208 2.2206 36.7408 5.31944
845 2 2.2208 5.11774 39.3745 5.25274
851 1 -1.1104 0.977352 38.0078 1.23518
856 1 -1.1104 0.963178 38.088 3.86591
861 2 2.2208 2.35436 39.4338 2.5806