LAMMPS (29 Oct 2020)
OMP_NUM_THREADS environment is not set. Defaulting to 1 thread. (../comm.cpp:94)
  using 1 OpenMP thread(s) per MPI task
OMP_NUM_THREADS environment is not set. Defaulting to 1 thread. (../comm.cpp:94)
  using 1 OpenMP thread(s) per MPI task
Reading data file ...
  orthogonal box = (-0.37341176 -4.5387100 -0.36646858) to (27.713412 332.61871 27.706469)
  2 by 13 by 2 MPI processor grid
  reading atoms ...
  17760 atoms
  reading velocities ...
  17760 velocities
Finding 1-2 1-3 1-4 neighbors ...
  special bond factors lj:    0.0      0.0      0.0     
  special bond factors coul:  0.0      0.0      0.0     
     0 = max # of 1-2 neighbors
     0 = max # of 1-3 neighbors
     0 = max # of 1-4 neighbors
     1 = max # of special neighbors
  special bonds CPU = 0.004 seconds
  read_data CPU = 0.064 seconds
WARNING: 13 of 1000 force values in table Xe-Xe are inconsistent with -dE/dr.
  Should only be flagged at inflection points (../pair_table.cpp:461)
WARNING: 2 of 1000 force values in table Xe-O are inconsistent with -dE/dr.
  Should only be flagged at inflection points (../pair_table.cpp:461)
WARNING: 2 of 1000 force values in table Xe-Th are inconsistent with -dE/dr.
  Should only be flagged at inflection points (../pair_table.cpp:461)
Setting atom values ...
  11760 settings made for charge
Setting atom values ...
  5880 settings made for charge
Setting atom values ...
  120 settings made for charge
PPPM initialization ...
  using 12-bit tables for long-range coulomb (../kspace.cpp:328)
  G vector (1/distance) = 0.29875101
  grid = 40 240 40
  stencil order = 5
  estimated absolute RMS force accuracy = 0.00015617415
  estimated relative force accuracy = 1.0845695e-05
  using single precision MKL FFT
  3d grid and FFT values/proc = 18225 7600
Neighbor list info ...
  update every 1 steps, delay 0 steps, check yes
  max neighbors/atom: 2000, page size: 100000
  master list distance cutoff = 13
  ghost atom cutoff = 13
  binsize = 6.5, bins = 5 52 5
  3 neighbor lists, perpetual/occasional/extra = 3 0 0
  (1) pair coul/long, perpetual
      attributes: half, newton on
      pair build: half/bin/newton
      stencil: half/bin/3d/newton
      bin: standard
  (2) pair eam/alloy, perpetual, skip from (1)
      attributes: half, newton on
      pair build: skip
      stencil: none
      bin: none
  (3) pair table, perpetual, skip from (1)
      attributes: half, newton on
      pair build: skip
      stencil: none
      bin: none
Setting up Verlet run ...
  Unit style    : metal
  Current step  : 0
  Time step     : 0.001
Per MPI rank memory allocation (min/avg/max) = 9.257 | 9.905 | 10.04 Mbytes
Step Temp E_pair E_mol TotEng Press 
       0          600   -230508.11            0   -229130.79   -800.00922 
  100000     593.9893   -230503.18            0   -229139.66   -789.41176 
Loop time of 700.632 on 52 procs for 100000 steps with 17760 atoms

Performance: 12.332 ns/day, 1.946 hours/ns, 142.728 timesteps/s
99.8% CPU use with 52 MPI tasks x 1 OpenMP threads

MPI task timing breakdown:
Section |  min time  |  avg time  |  max time  |%varavg| %total
---------------------------------------------------------------
Pair    | 476.83     | 507.16     | 522.94     |  42.7 | 72.39
Bond    | 0.0084927  | 0.015624   | 0.021977   |   2.3 |  0.00
Kspace  | 153.98     | 168.84     | 197.82     |  71.3 | 24.10
Neigh   | 1.5958     | 1.8822     | 2.0348     |   8.1 |  0.27
Comm    | 15.264     | 16.388     | 18.771     |  22.5 |  2.34
Output  | 5.9821e-05 | 6.5608e-05 | 0.00028931 |   0.0 |  0.00
Modify  | 3.0577     | 4.6773     | 6.3348     |  56.3 |  0.67
Other   |            | 1.667      |            |       |  0.24

Nlocal:        341.538 ave         370 max         307 min
Histogram: 3 0 5 1 8 14 9 6 4 2
Nghost:        5537.42 ave        5701 max        5289 min
Histogram: 4 0 4 7 1 0 24 0 0 12
Neighs:       107955.0 ave      118582 max       85645 min
Histogram: 2 2 2 1 1 1 12 17 10 4

Total # of neighbors = 5613673
Ave neighs/atom = 316.08519
Ave special neighs/atom = 0.0000000
Neighbor list builds = 609
Dangerous builds = 0
11760 atoms in group oxygen
PPPM initialization ...
  using 12-bit tables for long-range coulomb (../kspace.cpp:328)
  G vector (1/distance) = 0.29875101
  grid = 40 240 40
  stencil order = 5
  estimated absolute RMS force accuracy = 0.00015617415
  estimated relative force accuracy = 1.0845695e-05
  using single precision MKL FFT
  3d grid and FFT values/proc = 18225 7600
Neighbor list info ...
  update every 1 steps, delay 0 steps, check yes
  max neighbors/atom: 2000, page size: 100000
  master list distance cutoff = 13
  ghost atom cutoff = 13
  binsize = 6.5, bins = 5 52 5
  3 neighbor lists, perpetual/occasional/extra = 3 0 0
  (1) pair coul/long, perpetual
      attributes: half, newton on
      pair build: half/bin/newton
      stencil: half/bin/3d/newton
      bin: standard
  (2) pair eam/alloy, perpetual, skip from (1)
      attributes: half, newton on
      pair build: skip
      stencil: none
      bin: none
  (3) pair table, perpetual, skip from (1)
      attributes: half, newton on
      pair build: skip
      stencil: none
      bin: none
Setting up Verlet run ...
  Unit style    : metal
  Current step  : 0
  Time step     : 0.001
Per MPI rank memory allocation (min/avg/max) = 9.507 | 10.17 | 10.29 Mbytes
Step f_2 Temp v_Tdiff v_deltaT 
       0            0     593.9893            0            0 
  100000    700.43812    596.99354  0.019380424    225.00492 
  200000    1384.1744    595.13887  0.021370481    248.10929 
  300000    2065.4369    594.19775  0.021533222     249.9987 
  400000    2748.0007    597.75959  0.021150581    245.55628 
  500000    3428.8543    595.70671  0.020859659    242.17871 
  600000    4114.4446    596.61596  0.021626053    251.07647 
  700000    4793.0874    598.86608  0.021371147    248.11704 
  800000    5470.9258    600.42498  0.022004011    255.46452 
  900000    6157.7268    596.12107  0.021704969    251.99268 
 1000000    6834.4138    597.56073  0.021138671    245.41801 
Loop time of 7031.39 on 52 procs for 1000000 steps with 17760 atoms

Performance: 12.288 ns/day, 1.953 hours/ns, 142.219 timesteps/s
99.8% CPU use with 52 MPI tasks x 1 OpenMP threads

MPI task timing breakdown:
Section |  min time  |  avg time  |  max time  |%varavg| %total
---------------------------------------------------------------
Pair    | 4783.1     | 5091.8     | 5277.8     | 142.7 | 72.42
Bond    | 0.085799   | 0.15624    | 0.22301    |   7.9 |  0.00
Kspace  | 1528.8     | 1703.4     | 1997.4     | 232.0 | 24.23
Neigh   | 16.542     | 19.916     | 21.499     |  28.7 |  0.28
Comm    | 152.54     | 164.57     | 190.45     |  76.6 |  2.34
Output  | 0.0010907  | 0.0011813  | 0.0023364  |   0.5 |  0.00
Modify  | 6.3452     | 6.8575     | 7.5901     |  12.4 |  0.10
Other   |            | 44.71      |            |       |  0.64

Nlocal:        341.538 ave         367 max         306 min
Histogram: 2 3 3 0 4 13 9 10 5 3
Nghost:        5536.54 ave        5702 max        5264 min
Histogram: 4 0 1 7 4 0 23 1 0 12
Neighs:       107967.0 ave      118946 max       83829 min
Histogram: 2 2 0 2 2 1 10 16 14 3

Total # of neighbors = 5614266
Ave neighs/atom = 316.11858
Ave special neighs/atom = 0.0000000
Neighbor list builds = 6438
Dangerous builds = 0
Total wall time: 2:08:52
