ITEM: TIMESTEP
100000
ITEM: NUMBER OF ATOMS
17760
ITEM: BOX BOUNDS pp pp pp
-4.6371882568435668e-01 2.7803718825684047e+01
-5.4545923883950227e+00 3.3353459238840946e+02
-4.6045212388129353e-01 2.7800452123881140e+01
ITEM: ATOMS id type q x y z
1 2 2.2208 5.18791 0.33751 5.22836
2 1 -1.1104 0.995586 -4.08889 0.880218
6 1 -1.1104 0.934878 -3.97431 3.58493
10 1 -1.1104 0.964475 -1.21102 1.12998
12 2 2.2208 5.17413 -2.54367 2.41564
14 1 -1.1104 1.1293 -1.04124 3.9745
16 1 -1.1104 3.78064 -3.76992 1.13595
18 2 2.2208 2.53363 0.247559 2.53781
19 1 -1.1104 3.72561 -3.90355 3.8197
21 2 2.2208 2.25502 -2.6656 5.24786
23 1 -1.1104 3.95064 -1.07868 1.17672
24 1 -1.1104 3.82226 -1.10382 3.94501
8 1 -1.1104 6.62092 -4.11354 3.86369
4 1 -1.1104 6.54196 -3.85672 0.944479
11 1 -1.1104 6.70354 -0.857609 1.18154
15 1 -1.1104 6.51409 -1.35305 3.84934
170 1 -1.1104 0.968041 -1.32597 6.80444
174 1 -1.1104 3.7688 -1.26331 6.64128
8815 2 2.2208 13.548 19.9362 4.96985
166 1 -1.1104 0.792692 -4.05591 6.59062
9269 2 2.2208 -0.331096 19.9882 13.4117
31 2 2.2208 10.8711 0.328181 5.13409
32 1 -1.1104 12.3027 -3.82673 1.04978
34 1 -1.1104 12.2783 -4.22129 4.00237
36 1 -1.1104 12.2565 -1.19863 0.96165
37 2 2.2208 10.6237 -2.5309 2.30864
39 1 -1.1104 12.0788 -1.43922 3.84108
40 1 -1.1104 9.40577 -4.00238 1.12446
42 2 2.2208 8.05404 0.342606 2.45481
43 1 -1.1104 9.3987 -4.07685 4.15712
45 2 2.2208 7.96684 -2.58254 5.19586
47 1 -1.1104 9.33029 -1.1805 0.912861
48 1 -1.1104 9.20658 -1.14053 3.65164
9043 2 2.2208 13.5946 0.282157 2.26118
208 1 -1.1104 9.28174 -4.06752 6.92607
210 1 -1.1104 9.55127 -1.19646 6.49458
207 1 -1.1104 12.1164 -1.25926 6.66048
8767 2 2.2208 13.6409 8.53072 5.2576
27 1 -1.1104 12.452 18.6685 12.2841
3 1 -1.1104 0.93021 1.76499 0.848178
7 1 -1.1104 0.836701 1.73621 3.62776
13 2 2.2208 5.27947 3.11873 2.43801
17 1 -1.1104 3.75568 1.76165 1.10989
20 1 -1.1104 3.64515 1.63662 3.8978
22 2 2.2208 2.57024 3.04968 5.38674
54 2 2.2208 5.27254 5.75683 5.20756
60 1 -1.1104 0.935963 4.53169 1.02588
67 1 -1.1104 1.03388 4.51139 3.93949
72 2 2.2208 2.37908 5.70213 2.45235
76 1 -1.1104 3.82036 4.41198 0.916534
79 1 -1.1104 3.81454 4.38869 3.7795
56 1 -1.1104 0.788583 7.2858 0.883472
74 1 -1.1104 3.83336 7.2389 3.64482
58 1 -1.1104 0.899279 7.2359 3.68416
69 1 -1.1104 6.61747 4.40421 3.81715
63 1 -1.1104 6.71303 4.38995 0.895877
9 1 -1.1104 6.58302 1.81828 3.87001
5 1 -1.1104 6.61123 1.70719 1.0784
57 1 -1.1104 6.65835 7.24581 1.17374
59 1 -1.1104 6.39169 7.0981 3.94191
234 1 -1.1104 1.04063 7.28207 6.47769
173 1 -1.1104 3.72645 1.59212 6.82168
239 1 -1.1104 4.11911 4.36534 6.38688
169 1 -1.1104 6.40268 1.75023 6.65183
238 1 -1.1104 3.89922 7.03222 6.82534
236 1 -1.1104 1.09753 4.36922 6.80456
8345 2 2.2208 10.7081 -5.34717 10.9266
33 1 -1.1104 12.1021 1.61518 1.03563
35 1 -1.1104 12.2329 1.57517 3.56344
38 2 2.2208 10.7005 2.90965 2.35545
41 1 -1.1104 9.31426 1.5405 1.04311
44 1 -1.1104 9.43111 1.74354 3.7355
46 2 2.2208 7.98895 2.94763 5.35849
84 2 2.2208 11.0666 5.74216 5.18846
86 1 -1.1104 12.241 7.10755 0.721643
87 1 -1.1104 12.3877 7.08448 3.9125
88 1 -1.1104 12.0538 4.36227 0.912089
92 1 -1.1104 12.1532 4.49288 3.83002
95 2 2.2208 7.99589 5.7222 2.25209
99 1 -1.1104 9.62072 4.40917 0.801159
102 1 -1.1104 9.38811 4.37863 3.62952
97 1 -1.1104 9.29409 7.35031 3.90549
94 1 -1.1104 9.32649 7.24399 0.981839
471 2 2.2208 5.15455 20.0436 13.5953
408 2 2.2208 5.14444 8.62677 13.8304
269 1 -1.1104 9.35275 4.58143 6.53917
499 2 2.2208 7.99008 17.0741 13.4446
71 1 -1.1104 3.87571 7.20555 0.864069
55 2 2.2208 4.95779 11.4307 5.18612
61 1 -1.1104 0.869586 10.2313 0.765024
66 2 2.2208 5.21224 8.55594 2.38967
68 1 -1.1104 0.960582 9.93946 3.62841
73 2 2.2208 2.32706 11.3618 2.34427
75 2 2.2208 2.36696 8.48609 5.02829
77 1 -1.1104 3.63207 10.0119 0.928787
80 1 -1.1104 3.88476 9.89671 3.7365
107 1 -1.1104 0.846823 12.689 1.13386
113 1 -1.1104 0.798138 12.9013 3.75234
123 1 -1.1104 3.63399 12.7617 0.843073
128 1 -1.1104 3.55825 12.8962 3.68472
115 1 -1.1104 6.4184 12.8739 3.86182
110 1 -1.1104 6.61358 12.8007 0.823735
70 1 -1.1104 6.73113 9.87542 4.02092
64 1 -1.1104 6.42374 10.0514 1.09215
108 1 -1.1104 0.955136 12.9159 6.52343
555 2 2.2208 10.9178 0.268172 -0.438834
9051 2 2.2208 -0.505461 19.9692 2.4118
78 1 -1.1104 3.69924 9.8698 6.46937
8739 2 2.2208 -0.535021 19.8765 7.75529
85 2 2.2208 10.748 11.6026 5.17044
89 1 -1.1104 12.2875 10.0464 0.952635
91 2 2.2208 10.9178 8.61596 2.4424
93 1 -1.1104 12.286 9.78203 3.85405
96 2 2.2208 8.07813 11.4888 2.31245
98 2 2.2208 8.07168 8.42169 5.34736
100 1 -1.1104 9.2941 9.94718 0.796124
103 1 -1.1104 9.67328 10.3065 3.58851
142 1 -1.1104 12.3253 12.9957 1.07842
146 1 -1.1104 12.1518 12.8718 3.68481
153 1 -1.1104 9.36909 12.9558 1.00006
158 1 -1.1104 9.27472 13.118 3.70669
154 1 -1.1104 9.48839 12.9838 6.61967
111 1 -1.1104 6.46674 12.8953 6.61192
143 1 -1.1104 12.1885 13.0706 6.49195
101 1 -1.1104 9.4107 10.0165 6.48152
90 1 -1.1104 12.1263 10.2774 6.63912
130 2 2.2208 2.27474 14.445 5.08378
119 2 2.2208 5.10397 14.2631 2.3356
106 2 2.2208 5.14751 17.0807 4.93419
109 1 -1.1104 0.773839 18.3991 0.841294
114 1 -1.1104 1.05171 18.556 3.52967
116 1 -1.1104 0.899187 15.76 0.76446
120 2 2.2208 5.11089 20.0173 2.15889
121 1 -1.1104 0.952639 15.6846 3.58451
125 1 -1.1104 3.55172 18.6094 0.846164
127 2 2.2208 2.35184 17.1623 2.17838
129 1 -1.1104 3.59202 18.5295 3.48963
131 2 2.2208 2.39936 19.9294 5.08239
132 1 -1.1104 3.75821 15.8036 0.820787
134 1 -1.1104 3.72132 15.6859 3.6401
122 1 -1.1104 6.54074 15.7158 3.59756
140 1 -1.1104 6.68869 15.6559 1.00523
139 1 -1.1104 6.47706 18.4164 3.5218
138 1 -1.1104 6.66691 18.4951 0.822005
126 1 -1.1104 3.88226 18.5668 6.37744
118 1 -1.1104 6.70537 15.8718 6.46769
8344 2 2.2208 7.84618 -5.42496 8.14977
160 2 2.2208 7.96913 14.2434 5.13701
150 2 2.2208 10.8944 14.3276 2.36342
141 2 2.2208 10.7729 17.0989 4.95195
144 1 -1.1104 12.1008 18.5969 0.908827
147 1 -1.1104 12.2293 18.6291 3.56696
148 1 -1.1104 12.3888 15.4355 0.841235
151 2 2.2208 10.7927 19.9228 2.21286
152 1 -1.1104 12.2851 15.7924 3.73804
155 1 -1.1104 9.37407 18.5432 0.726326
157 2 2.2208 8.00019 17.024 2.21552
159 1 -1.1104 9.27906 18.666 3.43118
161 2 2.2208 7.67421 20.0165 4.95538
162 1 -1.1104 9.60881 15.8951 1.21336
164 1 -1.1104 9.38992 15.8302 3.77011
9084 2 2.2208 13.7188 0.0985064 13.6139
8740 2 2.2208 -0.43726 16.879 10.6728
149 1 -1.1104 12.4013 15.6693 6.51029
8340 2 2.2208 10.6813 -5.38212 5.33684
156 1 -1.1104 9.5425 18.4898 6.31448
9268 2 2.2208 -0.370992 14.2386 13.5824
172 1 -1.1104 3.67177 -4.12529 6.72161
168 1 -1.1104 6.48765 -3.77207 6.73412
171 1 -1.1104 6.63616 -0.775973 6.38882
175 2 2.2208 5.19142 0.247225 10.9449
176 1 -1.1104 0.8853 -4.01236 12.0131
180 1 -1.1104 1.22943 -4.02021 9.24195
184 1 -1.1104 1.05581 -1.22354 12.3304
186 2 2.2208 5.10126 -2.48531 7.99228
188 1 -1.1104 0.938404 -1.18406 9.55412
190 1 -1.1104 3.5322 -3.98621 12.1559
192 2 2.2208 2.48604 0.110955 8.01815
193 1 -1.1104 3.88808 -4.18407 9.43245
195 2 2.2208 2.38239 -2.62677 10.7521
197 1 -1.1104 3.75563 -1.05694 12.267
198 1 -1.1104 3.89427 -1.13328 9.51474
182 1 -1.1104 6.5224 -4.12245 9.52713
189 1 -1.1104 6.566 -1.26522 9.372
178 1 -1.1104 6.37009 -3.9772 12.336
185 1 -1.1104 6.48541 -1.15867 12.3275
8954 2 2.2208 13.6362 8.71195 10.8301
9050 2 2.2208 13.674 5.84799 2.17059
8337 2 2.2208 2.235 -5.37077 2.37192
409 2 2.2208 2.25099 11.3146 13.4821
9045 2 2.2208 -0.384346 14.2239 2.10671
525 2 2.2208 5.23736 0.376845 -0.349696
205 1 -1.1104 12.1383 -3.908 6.66725
8766 2 2.2208 13.6272 -2.76961 10.9741
211 2 2.2208 10.791 0.134711 10.8485
212 1 -1.1104 12.1641 -4.09104 12.373
214 1 -1.1104 12.1761 -4.05583 9.71761
216 1 -1.1104 12.0762 -1.18825 12.2611
217 2 2.2208 10.7118 -2.59224 8.12568
219 1 -1.1104 12.4241 -1.27347 9.36368
220 1 -1.1104 9.48785 -3.92593 12.4269
222 2 2.2208 8.03227 0.0195962 7.96915
223 1 -1.1104 9.25453 -3.96365 9.60738
225 2 2.2208 7.91274 -2.61846 11.0755
227 1 -1.1104 9.23006 -1.22009 12.2126
228 1 -1.1104 9.43025 -1.31378 9.53357
8338 2 2.2208 5.18864 -5.25466 5.28849
8949 2 2.2208 13.5906 5.81067 7.87616
497 2 2.2208 10.6739 19.939 13.5372
167 1 -1.1104 1.03645 1.377 6.64397
237 1 -1.1104 6.70204 4.53726 6.656
229 1 -1.1104 9.34268 15.6445 9.22807
235 1 -1.1104 6.69261 7.2912 6.65982
177 1 -1.1104 0.906919 1.81826 12.3709
181 1 -1.1104 0.7647 1.93399 9.65423
187 2 2.2208 5.07687 3.24361 8.07174
191 1 -1.1104 3.75526 1.69069 12.3125
194 1 -1.1104 3.72005 1.81038 9.44132
196 2 2.2208 2.29837 3.14285 10.8477
240 2 2.2208 5.20092 6.11093 10.8134
242 1 -1.1104 0.991144 7.5575 12.3996
246 1 -1.1104 0.82076 4.46513 12.3459
251 1 -1.1104 0.884979 4.69069 9.44877
256 2 2.2208 2.17797 5.9592 8.02498
260 1 -1.1104 3.76696 4.64851 12.1809
262 1 -1.1104 3.65149 4.69333 9.3085
258 1 -1.1104 3.58199 7.29838 9.46518
255 1 -1.1104 3.7729 7.36156 12.1327
248 1 -1.1104 6.72416 4.34439 12.1446
243 1 -1.1104 6.54833 7.23043 12.2757
179 1 -1.1104 6.28903 1.61885 12.3707
244 1 -1.1104 0.846766 7.43392 9.42288
253 1 -1.1104 6.56865 4.52364 9.45976
183 1 -1.1104 6.5636 1.38764 9.68406
245 1 -1.1104 6.51579 7.34325 9.27752
206 1 -1.1104 12.1315 1.71225 6.5994
265 1 -1.1104 12.2112 7.15779 6.59628
266 1 -1.1104 12.364 4.43242 6.60765
267 1 -1.1104 9.59544 7.07343 6.68307
209 1 -1.1104 9.30394 1.68023 6.68871
8950 2 2.2208 13.5418 11.5154 8.07489
472 2 2.2208 5.07892 14.2308 13.5895
213 1 -1.1104 12.1872 1.52465 12.1913
215 1 -1.1104 12.3513 1.6317 9.27351
218 2 2.2208 10.7616 2.94152 8.03373
221 1 -1.1104 9.28376 1.61629 12.2279
224 1 -1.1104 9.56401 1.36259 9.38369
226 2 2.2208 7.87642 3.05353 10.8928
268 1 -1.1104 9.28871 4.46651 9.44128
271 1 -1.1104 9.51003 4.42263 12.3657
275 2 2.2208 8.05672 5.83316 8.02421
276 2 2.2208 10.8522 5.9108 10.9373
278 1 -1.1104 12.3052 7.41574 12.255
280 1 -1.1104 12.2223 4.39551 12.1461
283 1 -1.1104 12.0075 4.29295 9.37496
285 1 -1.1104 9.2011 7.25205 12.3677
279 1 -1.1104 12.2633 7.11194 9.18989
273 1 -1.1104 9.40303 7.19606 9.5737
50 1 -1.1104 12.5713 15.7061 12.1559
65 1 -1.1104 6.5308 10.1628 6.54489
199 2 2.2208 7.83196 20.027 10.8108
124 1 -1.1104 3.66454 12.813 6.628
62 1 -1.1104 0.660563 10.2493 6.53697
241 2 2.2208 5.01042 11.3879 10.7478
247 1 -1.1104 0.873246 10.312 12.1368
250 2 2.2208 4.9489 8.64464 8.15083
252 1 -1.1104 0.810364 10.1614 9.41118
257 2 2.2208 2.10171 11.5613 7.87646
259 2 2.2208 2.11206 8.66595 10.8047
261 1 -1.1104 3.71161 9.96792 12.1444
263 1 -1.1104 3.46547 10.1323 9.18962
136 1 -1.1104 1.10439 12.9506 12.0084
202 1 -1.1104 3.67497 12.752 9.43785
287 1 -1.1104 3.69031 12.7351 12.146
294 1 -1.1104 0.684557 12.8425 9.37209
249 1 -1.1104 6.63264 10.1447 12.0976
297 1 -1.1104 6.36657 13.0275 11.9576
290 1 -1.1104 6.62114 13.0585 9.3301
254 1 -1.1104 6.4884 10.0782 9.41905
8836 2 2.2208 13.6327 14.2365 5.21515
470 2 2.2208 2.42834 16.8971 13.479
135 1 -1.1104 9.40179 12.9159 9.23683
264 1 -1.1104 9.39366 10.0438 9.50525
270 1 -1.1104 9.36018 10.0151 12.3262
272 2 2.2208 7.9399 8.70366 10.904
274 2 2.2208 7.82636 11.3595 7.91192
277 2 2.2208 10.6952 11.4152 10.733
281 1 -1.1104 12.401 10.0524 12.2293
282 2 2.2208 10.7824 8.54617 7.97664
284 1 -1.1104 12.1694 9.91169 9.38459
83 1 -1.1104 9.39013 12.7108 12.1355
26 1 -1.1104 12.1661 12.8384 12.2629
30 1 -1.1104 12.0356 12.9867 9.2833
9270 2 2.2208 13.6547 -2.67289 -0.320069
231 1 -1.1104 0.905492 18.5783 6.17346
133 1 -1.1104 3.69635 15.9925 6.46039
117 1 -1.1104 0.841505 15.7831 6.34829
112 1 -1.1104 6.56151 18.6712 6.69504
295 2 2.2208 5.12384 14.527 8.09291
230 2 2.2208 2.4418 14.1885 10.5132
296 1 -1.1104 6.46576 18.5132 12.2887
293 2 2.2208 5.11241 20.1238 8.04098
28 2 2.2208 2.35602 19.8141 10.5185
29 1 -1.1104 3.9949 15.5851 12.0381
51 1 -1.1104 1.27488 15.6112 11.9852
200 1 -1.1104 1.08807 18.549 12.1198
203 1 -1.1104 3.57913 15.9924 9.24913
204 2 2.2208 2.29104 17.1035 7.82914
232 1 -1.1104 3.60244 18.5512 9.2093
233 2 2.2208 5.19442 17.1753 10.7103
286 1 -1.1104 3.79416 18.4238 11.9804
291 1 -1.1104 0.806709 18.6577 9.19001
292 1 -1.1104 0.862503 15.6441 8.91931
52 1 -1.1104 6.62125 15.9089 12.1352
288 1 -1.1104 6.40064 18.731 9.40799
289 1 -1.1104 6.59376 15.7391 9.39393
8873 2 2.2208 13.5493 3.04751 10.7263
8569 2 2.2208 5.10997 -5.4817 -0.399687
165 2 2.2208 7.94461 14.2971 10.771
137 1 -1.1104 9.66285 18.4159 9.16829
25 2 2.2208 10.7296 17.0617 10.6125
145 1 -1.1104 12.2308 18.3513 6.5509
81 2 2.2208 10.8768 19.8692 7.74093
526 2 2.2208 2.43474 -2.48333 -0.159026
49 1 -1.1104 12.2905 18.6974 9.42595
105 2 2.2208 8.12464 17.1794 7.82175
104 1 -1.1104 9.33833 18.522 12.0465
163 1 -1.1104 9.53218 15.8174 6.5282
53 2 2.2208 10.8932 14.2828 7.76419
201 1 -1.1104 9.47963 15.7073 12.2428
82 1 -1.1104 12.289 15.6859 9.25135
9041 2 2.2208 -0.387066 3.15048 2.44193
527 2 2.2208 2.24689 3.01741 -0.51741
373 2 2.2208 10.9017 3.00772 13.552
339 2 2.2208 2.37077 0.418727 13.6582
407 2 2.2208 2.42975 6.13564 13.612
616 2 2.2208 8.0372 8.58598 -0.494339
9040 2 2.2208 -0.431957 0.333287 5.20974
9302 2 2.2208 13.6711 17.0299 13.527
9044 2 2.2208 13.5538 -2.62451 5.23966
9049 2 2.2208 13.5425 11.4352 2.36749
370 2 2.2208 7.89806 14.4406 -0.447934
9153 2 2.2208 13.5845 5.88984 13.4514
435 2 2.2208 10.7378 8.71555 13.6002
590 2 2.2208 5.29006 5.90447 -0.369819
9426 2 2.2208 13.7332 20.0606 -0.231579
617 2 2.2208 10.7239 11.5231 -0.322692
9079 2 2.2208 -0.426961 5.99773 -0.40887
9120 2 2.2208 13.5861 3.02487 -0.408152
298 2 2.2208 5.24178 0.193221 16.6166
299 1 -1.1104 1.17524 -3.84803 17.6931
303 1 -1.1104 0.8794 -3.9455 14.9559
311 1 -1.1104 0.901498 -1.03933 17.7528
313 2 2.2208 5.3085 -2.56378 19.575
315 1 -1.1104 0.815521 -1.18611 15.0162
319 1 -1.1104 3.7995 -4.0912 18.0755
321 2 2.2208 2.31363 0.428597 19.3136
322 1 -1.1104 3.84865 -3.84956 15.1332
326 2 2.2208 2.50343 -2.53538 16.5924
328 1 -1.1104 3.81679 -1.19161 18.153
329 1 -1.1104 3.66724 -1.08226 15.3606
301 1 -1.1104 6.57942 -4.08252 17.9534
317 1 -1.1104 6.24741 -1.09665 15.1378
312 1 -1.1104 6.68473 -1.22351 18.1779
307 1 -1.1104 6.84994 -4.02476 15.2613
316 1 -1.1104 0.960156 -1.00463 20.8487
304 1 -1.1104 0.963459 -3.8904 20.6332
318 1 -1.1104 6.55835 -1.01694 20.7599
500 2 2.2208 10.9078 17.1246 27.798
323 1 -1.1104 3.68011 -4.02074 20.7985
17411 2 2.2208 13.5988 -5.34214 19.2132
308 1 -1.1104 6.64621 -3.96994 20.7589
341 2 2.2208 10.7917 0.434656 16.5344
342 1 -1.1104 12.1368 -3.8939 17.9846
344 1 -1.1104 12.5204 -4.07452 15.1716
348 1 -1.1104 12.1582 -1.09167 17.8856
349 2 2.2208 10.8533 -2.60341 19.2294
351 1 -1.1104 12.1121 -1.04595 15.1619
353 1 -1.1104 9.41287 -4.00665 17.9317
355 2 2.2208 8.08535 0.166274 19.4289
356 1 -1.1104 9.48478 -3.85466 15.0778
360 2 2.2208 8.07319 -2.63053 16.5013
362 1 -1.1104 9.55691 -1.33673 17.8947
363 1 -1.1104 9.34268 -1.2545 14.9804
556 2 2.2208 7.91783 -2.4131 27.9001
8639 2 2.2208 7.99766 -5.37019 13.7711
357 1 -1.1104 9.43502 -3.85438 20.6445
434 2 2.2208 8.11299 5.69592 13.6769
17749 2 2.2208 13.6477 -5.28965 25.0887
300 1 -1.1104 0.779371 1.7876 17.9495
305 1 -1.1104 0.736853 1.73154 15.0012
314 2 2.2208 5.3619 3.03995 19.24
320 1 -1.1104 3.71611 1.47107 17.8534
324 1 -1.1104 3.57036 1.96852 15.2044
327 2 2.2208 2.09631 3.03857 16.5457
374 2 2.2208 5.15162 5.94384 16.4176
382 1 -1.1104 1.07432 4.62831 18.0237
387 1 -1.1104 0.886219 4.54914 15.1562
395 1 -1.1104 3.63495 7.383 17.9189
396 2 2.2208 2.4607 5.91956 19.2697
401 1 -1.1104 3.87127 4.40624 17.6218
403 1 -1.1104 3.78505 4.81459 15.0489
378 1 -1.1104 0.886694 7.22342 14.9598
376 1 -1.1104 1.04586 7.2708 17.922
398 1 -1.1104 3.70862 7.34514 15.0708
377 1 -1.1104 6.58378 7.41706 17.8896
384 1 -1.1104 6.62382 4.5242 18.0247
380 1 -1.1104 6.47088 7.29528 14.9114
302 1 -1.1104 6.71458 1.55158 17.9121
309 1 -1.1104 6.58699 1.60821 15.1502
325 1 -1.1104 3.8979 1.7149 20.6239
392 1 -1.1104 6.77248 4.20183 20.6509
306 1 -1.1104 1.13626 1.58658 20.5796
9227 2 2.2208 13.692 19.9214 16.4824
399 1 -1.1104 3.85555 7.29411 20.7627
391 1 -1.1104 6.53892 4.57379 15.1917
8501 2 2.2208 5.12803 -5.18405 22.3392
343 1 -1.1104 12.3855 1.66476 17.9311
346 1 -1.1104 12.191 1.89305 14.9277
350 2 2.2208 10.9125 3.09712 19.3415
354 1 -1.1104 9.33109 1.64751 18.1893
358 1 -1.1104 9.2932 1.49682 15.0812
361 2 2.2208 7.9376 3.03078 16.6678
410 2 2.2208 10.7838 5.80263 16.2926
415 1 -1.1104 12.2106 4.30645 17.9428
418 1 -1.1104 12.0454 4.79028 14.75
423 2 2.2208 8.04936 5.91867 19.4225
425 1 -1.1104 9.26195 7.21294 15.0123
428 1 -1.1104 9.57644 4.58687 17.896
430 1 -1.1104 9.31551 4.21484 15.2636
413 1 -1.1104 12.4416 7.21648 15.0549
422 1 -1.1104 9.40827 7.27924 17.7518
412 1 -1.1104 12.3123 7.22278 17.8902
419 1 -1.1104 12.4226 4.5734 20.5284
426 1 -1.1104 9.47414 7.42103 20.5015
347 1 -1.1104 12.4336 1.78058 20.7673
340 2 2.2208 5.1541 3.14478 13.8187
359 1 -1.1104 9.54229 1.60421 20.8383
337 2 2.2208 2.25811 14.2634 27.7484
9432 2 2.2208 13.5482 11.5701 19.3515
9299 2 2.2208 -0.269751 0.072958 27.7071
375 2 2.2208 5.18558 11.6024 16.657
383 1 -1.1104 0.831074 10.0057 17.7071
386 2 2.2208 5.10329 8.65741 19.2484
389 1 -1.1104 0.951961 10.0199 14.8534
397 2 2.2208 2.24466 11.4046 19.2569
400 2 2.2208 2.24303 8.69575 16.4691
402 1 -1.1104 3.6667 10.0757 17.9132
405 1 -1.1104 3.61494 10.041 14.9961
438 1 -1.1104 0.979567 12.9624 17.6187
442 1 -1.1104 0.890863 12.8426 14.8161
458 1 -1.1104 3.80364 12.8985 17.84
461 1 -1.1104 3.88234 13.0671 15.2308
446 1 -1.1104 6.54791 13.0179 14.8901
393 1 -1.1104 6.68509 10.1267 15.0671
385 1 -1.1104 6.52695 10.1112 17.909
440 1 -1.1104 6.76011 13.0164 17.8701
390 1 -1.1104 0.866589 10.0614 20.7376
447 1 -1.1104 6.39389 12.84 20.8272
411 2 2.2208 10.8059 11.5639 16.5181
416 1 -1.1104 12.4739 10.2665 17.9334
417 2 2.2208 10.8991 8.64508 19.2211
420 1 -1.1104 12.0654 10.2402 14.9564
424 2 2.2208 7.9134 11.3835 19.28
427 2 2.2208 8.11898 8.74339 16.4802
429 1 -1.1104 9.67194 10.1839 17.8683
432 1 -1.1104 9.44205 10.1439 15.1995
474 1 -1.1104 12.1902 12.7713 17.9767
476 1 -1.1104 12.3497 12.7767 15.1289
485 1 -1.1104 9.48637 12.9906 17.8386
488 1 -1.1104 9.41515 12.9507 14.7293
9417 2 2.2208 13.4989 14.394 22.0661
592 2 2.2208 5.13393 11.3485 27.7718
489 1 -1.1104 9.2596 12.8156 20.8969
421 1 -1.1104 12.1952 10.1434 20.831
557 2 2.2208 7.99895 3.02522 27.7596
8494 2 2.2208 10.6942 -5.32987 27.8398
591 2 2.2208 2.33856 8.59151 27.7715
465 2 2.2208 2.19175 14.4332 16.5276
452 2 2.2208 5.16352 14.3475 19.2382
437 2 2.2208 5.26665 17.0763 16.2571
439 1 -1.1104 1.10551 18.6944 17.7985
444 1 -1.1104 0.927339 18.5308 15.0244
450 1 -1.1104 0.863556 15.8415 17.9508
453 2 2.2208 5.19457 19.9572 19.3214
454 1 -1.1104 0.888274 15.739 15.1069
459 1 -1.1104 3.73346 18.412 17.7061
460 2 2.2208 2.24343 17.2198 19.3627
463 1 -1.1104 3.96789 18.3695 14.6813
466 2 2.2208 2.43722 19.753 16.3533
467 1 -1.1104 3.71368 15.738 17.8539
468 1 -1.1104 3.59893 15.6436 15.0383
441 1 -1.1104 6.6946 18.2895 17.5456
448 1 -1.1104 6.72962 18.6249 14.8142
451 1 -1.1104 6.65679 15.712 17.7366
456 1 -1.1104 6.50172 15.7619 14.8647
449 1 -1.1104 6.60467 18.4931 20.6467
469 1 -1.1104 3.56038 15.7717 20.6462
445 1 -1.1104 0.870294 18.4563 20.5908
457 1 -1.1104 6.65996 15.5523 20.486
9265 2 2.2208 -0.417924 20.1402 19.0822
8711 2 2.2208 2.32338 -5.29453 13.6078
492 2 2.2208 8.0715 14.3868 16.3359
481 2 2.2208 10.8263 14.1978 19.2715
473 2 2.2208 10.9092 17.2283 16.5071
475 1 -1.1104 12.3586 18.5871 17.7722
478 1 -1.1104 12.1977 18.857 14.9453
480 1 -1.1104 12.6445 15.7972 17.6566
482 2 2.2208 10.8826 19.9738 19.2368
483 1 -1.1104 12.1446 15.6948 14.9659
486 1 -1.1104 9.49243 18.4065 17.6872
487 2 2.2208 8.04079 16.9964 19.318
490 1 -1.1104 9.49106 18.3566 15.0255
493 2 2.2208 7.95706 19.9586 16.4535
494 1 -1.1104 9.66065 15.6901 17.8659
495 1 -1.1104 9.38834 15.8085 15.039
9271 2 2.2208 -0.395775 3.28066 25.0091
479 1 -1.1104 12.2326 18.404 20.3912
491 1 -1.1104 9.29305 18.4388 20.7221
564 1 -1.1104 12.251 15.7211 26.414
484 1 -1.1104 12.2186 15.6336 20.5463
330 1 -1.1104 3.69285 -1.36204 20.9236
436 2 2.2208 8.05135 11.5108 13.5472
561 1 -1.1104 9.64599 18.5018 26.4026
501 2 2.2208 4.97421 0.182841 22.0365
502 1 -1.1104 0.978028 -4.21383 23.3185
506 1 -1.1104 1.00176 -4.0721 26.2624
510 1 -1.1104 0.849242 -1.27111 23.7866
512 2 2.2208 5.15889 -2.59544 25.1354
514 1 -1.1104 1.06423 -1.33599 26.5577
516 1 -1.1104 3.72486 -3.85035 23.8581
518 2 2.2208 2.39963 0.197647 25.0258
519 1 -1.1104 3.66883 -4.07993 26.6373
521 2 2.2208 2.2029 -2.60931 22.3302
523 1 -1.1104 3.58707 -0.948511 23.71
524 1 -1.1104 3.79835 -1.14493 26.6436
515 1 -1.1104 6.68713 -1.34215 26.3683
504 1 -1.1104 6.48552 -4.0454 23.6428
345 1 -1.1104 12.3091 -3.96991 20.7366
9438 2 2.2208 13.5567 8.57141 27.6365
9416 2 2.2208 -0.473708 -2.51692 19.249
508 1 -1.1104 6.5779 -3.95046 26.4455
511 1 -1.1104 6.45004 -1.13354 23.4606
364 1 -1.1104 9.32117 -1.2746 20.8561
352 1 -1.1104 12.2554 -1.00418 20.5833
9078 2 2.2208 -0.482931 19.7742 24.6739
9122 2 2.2208 13.5627 -2.56569 22.2996
537 2 2.2208 11.0398 0.36296 22.2019
538 1 -1.1104 12.0403 -3.91558 23.7027
540 1 -1.1104 12.1336 -4.16047 26.5691
542 1 -1.1104 12.2196 -1.07996 23.4226
543 2 2.2208 10.755 -2.7292 25.0566
545 1 -1.1104 12.2113 -1.1633 26.4317
546 1 -1.1104 9.30556 -4.0934 23.6257
548 2 2.2208 8.12399 0.209208 25.0046
549 1 -1.1104 9.36895 -4.18709 26.3962
551 2 2.2208 7.98722 -2.49584 22.203
553 1 -1.1104 9.46234 -1.18897 23.6813
554 1 -1.1104 9.53325 -1.26764 26.4707
333 1 -1.1104 9.56542 15.6805 23.6577
310 1 -1.1104 6.56727 1.64781 20.7544
388 1 -1.1104 1.012 4.40573 20.8205
9423 2 2.2208 -0.620636 14.4535 19.1534
404 1 -1.1104 3.77077 4.46025 20.8707
379 1 -1.1104 1.02527 7.13689 20.6999
381 1 -1.1104 6.54172 7.3051 20.7255
503 1 -1.1104 0.966808 1.68216 23.4969
507 1 -1.1104 0.971797 1.47701 26.2658
513 2 2.2208 5.27912 2.83821 24.9416
517 1 -1.1104 3.8418 1.6053 23.5463
520 1 -1.1104 3.59128 1.4455 26.4931
522 2 2.2208 2.58693 3.01717 22.0867
566 2 2.2208 5.17845 5.79608 22.0971
568 1 -1.1104 0.840177 7.26587 23.3477
572 1 -1.1104 0.908658 4.44623 23.7123
577 1 -1.1104 0.951074 4.49533 26.4322
581 1 -1.1104 3.71504 7.19232 23.6606
582 2 2.2208 2.2626 5.86347 25.0369
586 1 -1.1104 3.78142 4.3752 23.6006
588 1 -1.1104 3.81496 4.40074 26.3153
570 1 -1.1104 0.970311 7.23836 26.306
584 1 -1.1104 3.76823 7.10683 26.4378
569 1 -1.1104 6.462 7.20563 23.5409
574 1 -1.1104 6.72829 4.44322 23.4962
571 1 -1.1104 6.72468 7.01187 26.4954
579 1 -1.1104 6.62113 4.3088 26.3237
505 1 -1.1104 6.70501 1.677 23.7747
509 1 -1.1104 6.3834 1.49096 26.6352
431 1 -1.1104 9.44384 4.47059 21.0115
17408 2 2.2208 -0.407606 -5.33506 16.338
414 1 -1.1104 12.2951 7.38674 20.6755
539 1 -1.1104 12.2008 1.78623 23.5903
541 1 -1.1104 12.1886 1.71554 26.3304
544 2 2.2208 10.9974 3.22154 24.8139
547 1 -1.1104 9.44389 1.6391 23.5863
550 1 -1.1104 9.54073 1.69227 26.3204
552 2 2.2208 7.96944 2.99608 22.1515
598 1 -1.1104 9.32303 4.48765 26.4248
600 1 -1.1104 9.63912 4.57879 23.7015
604 2 2.2208 7.99992 5.79772 24.9564
605 2 2.2208 10.8172 6.06033 22.2129
609 1 -1.1104 12.4848 4.54095 23.3993
612 1 -1.1104 12.2825 4.45708 26.1569
608 1 -1.1104 11.9937 7.35991 26.3076
602 1 -1.1104 9.47351 7.05306 26.1558
614 1 -1.1104 9.3381 7.24747 23.4608
607 1 -1.1104 12.1041 7.32841 23.5624
9425 2 2.2208 -0.312756 14.2379 24.8144
9429 2 2.2208 -0.531316 8.69085 19.0382
443 1 -1.1104 0.754857 12.9512 20.6365
406 1 -1.1104 3.76199 10.2849 20.7867
394 1 -1.1104 6.64381 9.95501 20.5767
462 1 -1.1104 3.58561 12.7617 20.6698
567 2 2.2208 5.23269 11.4687 22.2053
573 1 -1.1104 1.03653 10.2128 23.6083
576 2 2.2208 5.18604 8.53782 24.906
578 1 -1.1104 1.05481 10.0198 26.2075
583 2 2.2208 2.43956 11.4255 24.9331
585 2 2.2208 2.24195 8.72082 22.0733
587 1 -1.1104 3.93285 10.0705 23.4898
589 1 -1.1104 4.05927 10.1133 26.1226
532 1 -1.1104 3.8603 12.9772 26.4886
619 1 -1.1104 1.14769 12.7326 23.3683
623 1 -1.1104 3.73821 12.973 23.7733
627 1 -1.1104 1.14692 12.8144 26.3631
575 1 -1.1104 6.4724 9.90594 23.5039
622 1 -1.1104 6.6794 12.9255 26.4256
631 1 -1.1104 6.64665 12.8279 23.5432
580 1 -1.1104 6.60607 9.96618 26.421
563 2 2.2208 10.921 19.8889 25.048
477 1 -1.1104 12.1157 12.893 20.6615
433 1 -1.1104 9.30737 10.0941 20.8607
334 1 -1.1104 9.20186 15.8517 26.5488
9418 2 2.2208 13.6628 8.73363 22.0963
533 1 -1.1104 12.1094 13.1308 23.5094
597 1 -1.1104 9.30041 9.9926 26.5476
599 1 -1.1104 9.468 9.94235 23.6602
601 2 2.2208 8.03647 8.64715 22.1746
603 2 2.2208 8.00403 11.3896 25.1077
606 2 2.2208 10.7898 11.5709 22.3074
610 1 -1.1104 12.2721 10.0752 23.6097
611 2 2.2208 10.7022 8.84938 25.0552
613 1 -1.1104 12.2011 10.1472 26.5536
535 1 -1.1104 12.1046 12.7529 26.147
560 1 -1.1104 9.37924 13.066 26.6675
565 1 -1.1104 9.39677 12.8722 23.6999
371 2 2.2208 7.91305 0.15458 13.8337
365 2 2.2208 5.24422 17.3776 27.8282
464 1 -1.1104 3.73722 18.4388 20.5265
17536 2 2.2208 -0.515079 -5.33924 27.6823
335 1 -1.1104 6.73509 18.5269 26.155
531 1 -1.1104 6.60242 15.7505 23.4395
455 1 -1.1104 0.704966 15.8075 20.7776
628 1 -1.1104 6.7261 18.4568 23.2909
367 2 2.2208 2.32921 14.2563 22.066
621 1 -1.1104 3.80477 18.4282 23.5876
620 1 -1.1104 1.06491 18.519 23.322
618 2 2.2208 5.12575 17.2514 21.9787
594 2 2.2208 2.40446 17.224 24.8824
530 1 -1.1104 0.871678 15.6547 23.4683
369 1 -1.1104 3.62147 15.8426 23.5824
559 1 -1.1104 3.84182 15.7606 26.3759
368 2 2.2208 2.40521 19.8124 22.1842
625 1 -1.1104 0.823095 18.3736 26.2506
595 1 -1.1104 3.79792 18.6419 26.2673
630 2 2.2208 5.09626 14.3811 25.0948
629 2 2.2208 5.32149 19.7443 25.0171
626 1 -1.1104 0.927298 15.7012 26.4293
624 1 -1.1104 6.53308 15.798 26.319
366 2 2.2208 2.11844 19.9319 27.5867
9434 2 2.2208 13.5975 8.74924 16.3777
536 1 -1.1104 12.446 18.5318 26.231
9414 2 2.2208 13.5859 -2.45464 16.4493
558 1 -1.1104 12.3205 15.7068 23.3314
534 1 -1.1104 12.2416 18.6123 23.1243
562 2 2.2208 10.6984 14.3876 24.9394
596 2 2.2208 7.98578 17.0241 24.882
9374 2 2.2208 -0.364515 5.65265 21.9261
331 2 2.2208 7.91435 14.23 22.1383
332 2 2.2208 8.27556 19.8016 22.0368
496 1 -1.1104 9.37134 15.6936 20.9498
529 2 2.2208 10.8145 17.089 22.1357
593 1 -1.1104 9.52805 18.5366 23.5778
9121 2 2.2208 13.5534 0.530661 25.011
615 2 2.2208 10.7263 5.89001 27.8314
372 2 2.2208 10.8951 -2.60697 13.7769
498 2 2.2208 10.7821 14.2217 13.5854
9428 2 2.2208 13.7556 14.2385 16.4619
338 2 2.2208 5.10997 -2.52023 13.786
528 2 2.2208 7.98883 19.9722 27.626
632 2 2.2208 5.01379 22.8598 4.97169
634 1 -1.1104 0.829493 24.1336 1.10226
635 1 -1.1104 0.902581 24.2369 3.7987
636 1 -1.1104 0.973257 21.2357 0.804131
638 2 2.2208 5.08229 25.7488 2.21573
639 1 -1.1104 0.901569 21.5245 3.75411
641 1 -1.1104 3.53162 24.3302 0.941951
642 2 2.2208 2.41734 22.7728 2.12949
644 1 -1.1104 3.69059 24.1903 3.66817
645 2 2.2208 2.38981 25.5711 5.05012
646 1 -1.1104 3.6132 21.5024 0.703137
648 1 -1.1104 3.61357 21.3443 3.66945
657 1 -1.1104 6.50223 21.2503 3.44171
655 1 -1.1104 6.57464 21.5268 0.71337
653 1 -1.1104 6.29294 24.1734 1.10341
654 1 -1.1104 6.719 24.1666 3.92084
773 1 -1.1104 0.870873 24.0959 6.52272
774 1 -1.1104 6.5461 24.2515 6.57868
779 1 -1.1104 3.62654 24.2825 6.45049
656 1 -1.1104 6.44711 26.9478 0.903151
640 1 -1.1104 1.07624 27.1303 3.69111
780 1 -1.1104 3.74977 21.5081 6.68115
777 1 -1.1104 6.39304 21.6258 6.48274
658 1 -1.1104 6.35696 26.9333 3.83409
778 1 -1.1104 6.47677 26.7976 6.56126
659 2 2.2208 10.7314 22.71 5.08224
661 1 -1.1104 11.9395 24.1652 0.979538
662 1 -1.1104 12.1997 24.2411 3.76195
663 1 -1.1104 12.3377 21.3585 1.28936
665 2 2.2208 10.7186 25.6562 2.34257
666 1 -1.1104 12.1622 21.572 3.85349
668 1 -1.1104 9.2752 24.3039 1.00757
669 2 2.2208 8.00467 22.727 2.29659
671 1 -1.1104 9.46241 24.2606 3.766
672 2 2.2208 7.91302 25.8075 5.26883
673 1 -1.1104 9.43189 21.4986 0.858128
675 1 -1.1104 9.35269 21.2957 3.71044
664 1 -1.1104 12.1367 26.9364 0.980718
807 1 -1.1104 12.0051 21.4366 6.42491
676 1 -1.1104 9.16137 27.0496 3.74641
674 1 -1.1104 9.23071 26.9968 1.00359
667 1 -1.1104 12.2856 26.9276 3.64924
992 2 2.2208 7.92407 22.8665 13.6621
9758 2 2.2208 13.589 45.4753 2.29704
1121 2 2.2208 10.7708 42.4449 13.5758
647 1 -1.1104 3.74514 26.9285 0.790088
649 1 -1.1104 3.70129 27.1325 3.5495
637 1 -1.1104 0.699132 26.7839 0.983518
781 1 -1.1104 3.55714 26.9573 6.43452
633 2 2.2208 5.03487 28.3814 5.07474
643 2 2.2208 2.31885 28.3525 2.06751
681 1 -1.1104 1.12365 29.5963 0.675765
684 1 -1.1104 0.862654 30.0263 3.76656
687 1 -1.1104 0.753417 32.6676 0.969944
688 2 2.2208 5.02482 31.4601 2.39857
690 1 -1.1104 0.810063 32.8826 3.62832
692 1 -1.1104 3.911 29.6464 1.05501
695 1 -1.1104 3.76448 30.065 3.78134
697 2 2.2208 2.36093 31.2364 5.18515
699 1 -1.1104 3.58377 32.5645 0.792499
700 1 -1.1104 3.60495 32.797 3.75882
706 1 -1.1104 6.52366 32.6576 0.834643
705 1 -1.1104 6.50045 29.8198 3.81408
691 1 -1.1104 6.3977 32.6104 3.64313
828 1 -1.1104 6.53961 29.7373 6.42161
830 1 -1.1104 0.924143 32.5188 6.36066
826 1 -1.1104 1.02053 29.807 6.44954
834 1 -1.1104 3.55219 32.6477 6.51537
776 1 -1.1104 1.01588 27.0738 6.3955
832 1 -1.1104 3.9137 29.8303 6.44541
966 2 2.2208 2.34425 28.3861 13.4884
811 1 -1.1104 9.31949 27.1811 6.50177
704 1 -1.1104 6.52827 29.8348 0.969416
808 1 -1.1104 12.0612 26.9814 6.3505
9757 2 2.2208 13.5661 28.4637 2.37109
660 2 2.2208 10.6814 28.3646 5.08532
670 2 2.2208 7.73916 28.4402 2.38761
708 1 -1.1104 12.0744 29.9482 1.01517
710 1 -1.1104 12.3231 29.8262 3.8874
712 1 -1.1104 12.1809 32.8035 1.20845
713 2 2.2208 10.6787 31.2998 2.38075
715 1 -1.1104 12.1605 32.6172 3.62584
716 1 -1.1104 9.32088 30.019 1.05027
719 1 -1.1104 9.26513 29.7753 3.53868
721 2 2.2208 7.91881 31.1951 4.98036
723 1 -1.1104 9.37817 32.7066 0.940274
724 1 -1.1104 9.22105 32.6451 3.90518
862 1 -1.1104 12.356 32.5625 6.37634
9685 2 2.2208 13.5636 42.5821 5.07643
863 1 -1.1104 9.39754 30.014 6.47072
9745 2 2.2208 -0.478648 28.5085 5.04027
917 1 -1.1104 9.35586 44.2349 9.4823
694 2 2.2208 2.21957 34.2034 2.15584
680 2 2.2208 5.17353 34.131 5.04472
682 1 -1.1104 0.822288 35.766 0.987781
685 1 -1.1104 0.862875 35.6663 3.59026
689 2 2.2208 5.12676 36.8157 2.29571
693 1 -1.1104 3.61262 35.2861 0.951493
696 1 -1.1104 3.8572 35.5079 3.65335