ITEM: TIMESTEP
10000
ITEM: NUMBER OF ATOMS
17760
ITEM: BOX BOUNDS pp pp pp
-4.5771989716525274e-01 2.7797719897165209e+01
-5.6031665553941901e+00 3.3368316655540008e+02
-4.7071679095434910e-01 2.7810716790954334e+01
ITEM: ATOMS id type q x y z
1 2 2.2208 5.05081 -0.00988743 5.31235
2 1 -1.1104 0.799791 -4.35654 1.14943
6 1 -1.1104 0.666804 -4.16959 3.95678
10 1 -1.1104 0.552576 -1.51984 1.25989
12 2 2.2208 5.07486 -2.81209 2.61525
14 1 -1.1104 0.689707 -1.35542 3.92956
16 1 -1.1104 3.48277 -4.28266 1.50658
18 2 2.2208 2.22791 -0.127408 2.6165
19 1 -1.1104 3.38753 -4.02923 4.36819
21 2 2.2208 1.85337 -2.83443 5.43617
23 1 -1.1104 3.33493 -1.36664 0.991726
24 1 -1.1104 3.68378 -1.18624 3.81984
4 1 -1.1104 6.40401 -4.3145 1.08896
11 1 -1.1104 6.24742 -1.41549 1.10507
555 2 2.2208 10.5369 -0.135786 -0.182547
9039 2 2.2208 13.3046 16.9396 7.93986
8340 2 2.2208 10.5966 -5.54798 5.17952
174 1 -1.1104 3.68651 -1.69041 6.55659
172 1 -1.1104 3.4622 -4.03383 6.9155
8815 2 2.2208 13.486 19.7314 5.00329
8 1 -1.1104 6.32285 -4.25473 3.99824
15 1 -1.1104 6.42831 -1.27436 4.05131
31 2 2.2208 10.7931 0.0563255 5.28071
32 1 -1.1104 12.0694 -4.43597 1.09965
34 1 -1.1104 11.9751 -4.03897 3.94913
36 1 -1.1104 12.1562 -1.46524 1.12589
37 2 2.2208 10.8647 -2.70748 2.48997
39 1 -1.1104 12.1155 -1.38109 3.78132
40 1 -1.1104 9.09467 -4.03706 1.07275
42 2 2.2208 7.9655 -0.151456 2.57535
43 1 -1.1104 8.8472 -4.3491 3.9901
45 2 2.2208 7.74155 -2.88674 5.48797
47 1 -1.1104 9.30546 -1.45139 1.18054
48 1 -1.1104 9.34807 -1.53824 4.0483
210 1 -1.1104 9.2594 -1.22431 6.73147
137 1 -1.1104 9.25689 18.3765 9.55908
8873 2 2.2208 13.3668 2.75569 11.0178
53 2 2.2208 10.497 13.9958 8.22326
366 2 2.2208 2.22853 19.5699 -0.304766
9043 2 2.2208 13.4358 -0.128877 2.5423
337 2 2.2208 2.03113 14.1435 -0.389314
8954 2 2.2208 13.3208 8.46075 11.0722
3 1 -1.1104 0.567908 1.26845 1.311
7 1 -1.1104 0.850181 1.43053 4.06164
13 2 2.2208 5.11081 2.71787 2.80993
17 1 -1.1104 3.82662 1.54451 1.09707
20 1 -1.1104 3.59162 1.42885 4.15441
22 2 2.2208 2.02411 2.7275 5.44358
54 2 2.2208 5.07869 5.62567 5.33285
56 1 -1.1104 0.790671 6.89763 1.22039
58 1 -1.1104 0.642274 7.08375 4.07113
60 1 -1.1104 0.552123 4.10882 0.93189
67 1 -1.1104 0.77339 4.08627 3.86398
71 1 -1.1104 3.68301 6.88124 1.21075
72 2 2.2208 1.98433 5.65028 2.64118
74 1 -1.1104 3.82312 7.18375 4.02327
76 1 -1.1104 3.31013 4.32274 1.22435
79 1 -1.1104 3.56923 4.11328 4.08116
238 1 -1.1104 3.61369 7.05574 6.63663
234 1 -1.1104 0.867304 6.92105 6.77616
5 1 -1.1104 6.53994 1.28989 1.25342
9 1 -1.1104 6.45955 1.53183 4.14502
59 1 -1.1104 6.53301 7.04515 3.72742
57 1 -1.1104 6.63792 7.17352 0.865167
69 1 -1.1104 6.40638 4.35919 3.94174
235 1 -1.1104 6.36722 7.01367 6.64179
239 1 -1.1104 3.48442 4.17776 6.66797
82 1 -1.1104 12.2461 15.8088 9.73119
527 2 2.2208 2.0562 2.77914 -0.189969
33 1 -1.1104 11.7409 1.30289 1.11333
35 1 -1.1104 12.188 1.37855 3.75654
38 2 2.2208 10.5706 2.84383 2.48397
41 1 -1.1104 9.13817 1.43234 1.40375
44 1 -1.1104 9.14146 1.37494 4.27131
46 2 2.2208 7.77136 2.89208 5.38354
63 1 -1.1104 6.32668 4.11996 0.950616
84 2 2.2208 10.6013 5.63191 5.17645
86 1 -1.1104 12.0038 7.11764 1.20133
87 1 -1.1104 12.268 7.15162 4.03009
88 1 -1.1104 12.2839 4.37893 0.886372
92 1 -1.1104 12.1515 4.28937 3.66765
94 1 -1.1104 9.37776 7.08996 0.888418
95 2 2.2208 7.92703 5.85562 2.26526
97 1 -1.1104 9.44841 7.05717 3.63271
99 1 -1.1104 9.34301 4.19922 1.00577
102 1 -1.1104 9.17653 4.35417 3.67913
265 1 -1.1104 12.1518 7.18884 6.48655
269 1 -1.1104 9.11048 4.27998 6.6212
206 1 -1.1104 12.0088 1.66498 6.70711
266 1 -1.1104 12.0362 4.27298 6.84257
267 1 -1.1104 9.1898 6.86642 6.58129
209 1 -1.1104 9.30034 1.48118 6.63188
55 2 2.2208 4.9722 11.1314 5.37148
61 1 -1.1104 0.786956 9.63356 1.0211
66 2 2.2208 4.97314 8.42496 2.4484
68 1 -1.1104 0.884525 9.90008 3.95982
73 2 2.2208 2.08351 11.2087 2.56393
75 2 2.2208 2.25232 8.50974 5.35379
77 1 -1.1104 3.58005 9.96541 0.991753
80 1 -1.1104 3.56448 9.79087 3.76912
107 1 -1.1104 0.669438 12.7833 0.877684
113 1 -1.1104 0.708422 12.6975 3.85189
123 1 -1.1104 3.47312 12.6837 1.16094
128 1 -1.1104 3.7067 12.5087 3.83025
108 1 -1.1104 0.707683 12.7169 6.44451
62 1 -1.1104 0.629582 9.92785 6.75172
110 1 -1.1104 6.44952 12.6724 1.3443
64 1 -1.1104 6.42057 9.91406 1.13276
130 2 2.2208 2.27153 13.8467 5.16869
617 2 2.2208 10.8073 11.17 -0.411185
115 1 -1.1104 6.53782 12.5803 4.0309
70 1 -1.1104 6.16468 9.67509 3.94088
85 2 2.2208 10.674 11.1212 5.17065
89 1 -1.1104 12.2274 9.87734 0.999862
91 2 2.2208 10.7548 8.48916 2.38787
93 1 -1.1104 12.1057 9.97711 3.77165
96 2 2.2208 7.8275 11.2081 2.52705
98 2 2.2208 7.7649 8.40624 5.27168
100 1 -1.1104 9.14472 9.80657 0.961704
103 1 -1.1104 9.17347 9.67318 3.76648
142 1 -1.1104 12.1541 12.8031 1.01308
146 1 -1.1104 12.1944 12.6433 3.90474
153 1 -1.1104 9.36721 12.5623 1.11867
158 1 -1.1104 9.31457 12.6107 3.98411
143 1 -1.1104 12.1313 12.4451 6.63685
65 1 -1.1104 6.44808 9.7364 6.96423
365 2 2.2208 5.03926 16.8861 -0.360436
9049 2 2.2208 13.5138 11.2869 2.30396
8767 2 2.2208 13.5204 8.49158 5.34432
8934 2 2.2208 13.4114 16.8383 2.38004
119 2 2.2208 5.05786 13.9877 2.40702
106 2 2.2208 4.90565 16.8019 5.36601
109 1 -1.1104 0.508656 18.1688 1.07756
114 1 -1.1104 0.758879 18.337 3.71412
116 1 -1.1104 0.865742 15.7024 1.11329
120 2 2.2208 5.25278 19.5515 2.53002
121 1 -1.1104 0.593435 15.6775 3.62075
125 1 -1.1104 3.73466 18.2152 1.18704
127 2 2.2208 2.21902 16.7247 2.50657
129 1 -1.1104 3.64414 18.2433 4.08232
131 2 2.2208 2.11797 19.4724 5.20336
132 1 -1.1104 3.68846 15.5698 0.946348
134 1 -1.1104 3.48191 15.2081 3.7859
117 1 -1.1104 0.855689 15.2768 6.47112
231 1 -1.1104 0.566063 18.3003 6.65759
133 1 -1.1104 3.78973 15.5798 6.84548
138 1 -1.1104 6.55432 18.3568 1.1344
139 1 -1.1104 6.43384 18.2079 3.86151
140 1 -1.1104 6.43928 15.3965 1.2202
122 1 -1.1104 6.41986 15.5582 4.12834
118 1 -1.1104 6.50441 15.371 7.00288
81 2 2.2208 10.5686 19.7852 8.07614
9000 2 2.2208 13.4522 19.7094 10.6274
9038 2 2.2208 13.4674 14.1236 11.0645
17350 2 2.2208 13.1908 -5.52625 8.14016
229 1 -1.1104 9.23282 15.5757 9.78149
141 2 2.2208 10.623 16.9504 5.25837
144 1 -1.1104 12.2486 18.4333 1.01085
147 1 -1.1104 12.0037 18.4039 3.82367
148 1 -1.1104 12.1618 15.4203 1.02382
150 2 2.2208 10.729 14.0731 2.66782
151 2 2.2208 10.6983 19.8616 2.1175
152 1 -1.1104 11.9369 15.4645 4.05956
155 1 -1.1104 9.52747 18.1144 1.17257
157 2 2.2208 7.97963 16.7908 2.42276
159 1 -1.1104 9.1207 18.3489 3.80908
160 2 2.2208 7.69683 14.1439 5.3508
161 2 2.2208 7.89686 19.612 5.2806
162 1 -1.1104 9.32835 15.4121 1.13037
164 1 -1.1104 9.16274 15.4995 3.98046
9050 2 2.2208 13.6861 5.81523 2.60562
8836 2 2.2208 13.5236 14.0392 5.28111
166 1 -1.1104 0.534238 -4.35922 6.67935
170 1 -1.1104 0.779288 -1.6247 6.90749
175 2 2.2208 4.9614 0.160547 11.0826
176 1 -1.1104 0.655563 -4.38663 12.4268
180 1 -1.1104 0.772925 -4.29628 9.4925
184 1 -1.1104 0.662017 -1.686 12.5782
186 2 2.2208 4.93844 -2.90888 8.24879
188 1 -1.1104 0.827668 -1.52399 9.71514
190 1 -1.1104 3.44232 -4.00557 12.5904
192 2 2.2208 2.12524 -0.141612 8.26307
193 1 -1.1104 3.57647 -4.18594 9.77222
195 2 2.2208 2.18517 -2.89551 11.0297
197 1 -1.1104 3.56279 -1.058 12.2592
198 1 -1.1104 3.68708 -1.39629 9.52783
171 1 -1.1104 6.50959 -1.30975 6.61972
189 1 -1.1104 6.39371 -1.39605 9.5804
168 1 -1.1104 6.30468 -4.28959 6.74179
178 1 -1.1104 6.27745 -4.37657 12.561
185 1 -1.1104 6.34725 -1.51723 12.3151
9120 2 2.2208 13.5819 2.82297 -0.124013
205 1 -1.1104 11.7555 -4.15631 6.75434
208 1 -1.1104 9.19931 -3.99823 6.70681
207 1 -1.1104 12.2104 -1.41322 7.03388
49 1 -1.1104 12.0185 18.5133 9.47011
182 1 -1.1104 6.45647 -4.00314 9.6855
211 2 2.2208 10.4714 0.0682361 10.865
212 1 -1.1104 12.207 -4.36102 12.367
214 1 -1.1104 11.9521 -4.41556 9.54831
216 1 -1.1104 11.7926 -1.54585 12.2708
217 2 2.2208 10.4953 -2.71077 8.09544
219 1 -1.1104 12.0951 -1.6813 9.54864
220 1 -1.1104 9.3594 -4.24634 12.597
222 2 2.2208 7.71323 0.00824823 8.02762
223 1 -1.1104 9.26666 -4.21992 9.63693
225 2 2.2208 7.85672 -2.78434 11.1765
227 1 -1.1104 9.11138 -1.37595 12.5211
228 1 -1.1104 9.15811 -1.40144 9.69203
8898 2 2.2208 13.4888 0.00399817 8.34427
9270 2 2.2208 13.401 -2.94163 -0.359657
8766 2 2.2208 13.3804 -2.98853 10.908
173 1 -1.1104 3.65627 1.20591 7.15018
167 1 -1.1104 0.65137 1.33597 6.76977
236 1 -1.1104 0.673893 4.20846 7.05678
169 1 -1.1104 6.35815 1.4187 6.90854
25 2 2.2208 10.7433 16.9427 10.9785
177 1 -1.1104 0.734499 1.33645 12.281
181 1 -1.1104 0.869978 1.15977 9.67145
187 2 2.2208 5.07131 2.68383 8.29163
191 1 -1.1104 3.5471 1.58614 12.3881
194 1 -1.1104 3.51113 1.54173 9.72865
196 2 2.2208 2.16454 2.87978 10.9586
240 2 2.2208 4.88821 5.57806 10.9168
242 1 -1.1104 0.592166 6.96359 12.4532
244 1 -1.1104 0.667594 6.84934 9.51505
246 1 -1.1104 0.774509 4.13644 12.5703
251 1 -1.1104 0.688363 4.22061 9.85853
255 1 -1.1104 3.23306 7.02829 12.4773
256 2 2.2208 2.20112 5.56134 8.07976
258 1 -1.1104 3.60883 6.94316 9.5197
260 1 -1.1104 3.85748 4.33567 12.4643
262 1 -1.1104 3.3867 4.17339 9.48437
237 1 -1.1104 6.31448 4.25602 6.71775
179 1 -1.1104 6.45338 1.36408 12.392
183 1 -1.1104 6.62153 1.37356 9.51349
253 1 -1.1104 6.25021 4.23172 9.55802
245 1 -1.1104 6.42973 6.94972 9.63237
248 1 -1.1104 6.48851 4.22126 12.2539
9044 2 2.2208 13.5712 -2.87185 5.31407
8738 2 2.2208 13.4888 2.82938 5.3409
591 2 2.2208 2.21605 8.28897 -0.108194
556 2 2.2208 7.7223 -2.83776 -0.21943
213 1 -1.1104 11.9183 1.2613 12.3621
215 1 -1.1104 11.9853 1.29451 9.46372
218 2 2.2208 10.6197 2.97058 7.89578
221 1 -1.1104 9.25117 1.37615 12.3137
224 1 -1.1104 9.23261 1.54229 9.52434
226 2 2.2208 7.81308 2.86759 10.9434
268 1 -1.1104 9.10865 4.44885 9.59507
271 1 -1.1104 9.41789 4.18974 12.5873
273 1 -1.1104 9.17486 7.23009 9.24907
275 2 2.2208 7.85835 5.63198 8.14185
276 2 2.2208 10.6298 5.5162 10.8802
278 1 -1.1104 11.9077 6.94203 12.4382
279 1 -1.1104 11.9204 6.96358 9.63104
280 1 -1.1104 11.9504 4.00834 12.3693
283 1 -1.1104 12.0093 4.12841 9.65171
285 1 -1.1104 8.87354 6.96035 12.3809
8494 2 2.2208 10.6761 -5.60085 -0.315958
124 1 -1.1104 3.47284 12.7269 6.49614
78 1 -1.1104 3.63159 9.81048 6.66834
111 1 -1.1104 6.3273 12.7061 6.6913
201 1 -1.1104 9.17758 15.6408 12.3909
8949 2 2.2208 13.3212 5.80234 8.20413
243 1 -1.1104 6.14914 7.00189 12.3381
241 2 2.2208 4.72159 11.3518 11.1034
247 1 -1.1104 0.61002 9.85502 12.5112
250 2 2.2208 4.79617 8.32734 8.1944
252 1 -1.1104 0.526206 9.7212 9.55049
257 2 2.2208 2.16968 11.1081 8.13116
259 2 2.2208 1.91076 8.28729 10.9408
261 1 -1.1104 3.4756 9.77598 12.4847
263 1 -1.1104 3.36899 9.73539 9.64562
136 1 -1.1104 0.778183 12.6662 12.1572
202 1 -1.1104 3.4231 12.577 9.55554
287 1 -1.1104 3.4807 12.5849 12.4853
294 1 -1.1104 0.554624 12.492 9.27197
297 1 -1.1104 6.35959 12.7092 12.4382
249 1 -1.1104 6.24926 9.98335 12.4897
290 1 -1.1104 6.41757 12.7316 9.66706
295 2 2.2208 4.98457 13.9888 8.16396
105 2 2.2208 7.9271 16.984 8.36105
101 1 -1.1104 9.26426 9.66367 6.60023
90 1 -1.1104 12.0796 9.75005 6.81013
154 1 -1.1104 9.28587 12.3748 7.01909
27 1 -1.1104 12.252 18.3891 12.2227
165 2 2.2208 7.78741 14.1162 11.0983
135 1 -1.1104 9.13338 12.6419 9.54745
254 1 -1.1104 6.14354 9.77858 9.86505
264 1 -1.1104 8.91205 9.97006 9.76292
270 1 -1.1104 9.20455 9.68065 12.4119
272 2 2.2208 7.7432 8.37792 11.0545
274 2 2.2208 7.76994 11.1584 8.44532
277 2 2.2208 10.6541 11.1637 10.9605
281 1 -1.1104 12.0967 9.77714 12.622
282 2 2.2208 10.5857 8.47805 7.95821
284 1 -1.1104 11.7012 9.66078 9.66248
83 1 -1.1104 9.30689 12.6834 12.4939
26 1 -1.1104 11.9997 12.5884 12.4259
30 1 -1.1104 11.9167 12.7646 9.51244
126 1 -1.1104 3.31408 18.2517 6.65107
112 1 -1.1104 6.33232 18.172 6.86904
296 1 -1.1104 6.38802 18.2133 12.2468
289 1 -1.1104 6.04923 15.3728 9.67013
230 2 2.2208 2.00617 14.0248 10.9126
28 2 2.2208 1.97317 19.6055 10.8605
29 1 -1.1104 3.42785 15.4563 12.302
51 1 -1.1104 0.544383 15.4695 12.1937
200 1 -1.1104 0.786131 18.1069 12.2779
203 1 -1.1104 3.2273 15.3157 9.50444
204 2 2.2208 2.01664 16.7453 8.03748
232 1 -1.1104 3.44525 18.1684 9.54759
233 2 2.2208 4.89116 16.9018 10.9928
286 1 -1.1104 3.47052 18.402 12.3218
291 1 -1.1104 0.716685 18.2618 9.35086
292 1 -1.1104 0.717574 15.4288 9.40667
293 2 2.2208 5.02455 19.6332 8.15241
288 1 -1.1104 6.4275 18.399 9.59396
9084 2 2.2208 13.339 -0.130361 13.5075
199 2 2.2208 7.95312 19.912 11.0069
50 1 -1.1104 12.0994 15.3347 12.5673
145 1 -1.1104 12.1207 18.3277 6.76379
104 1 -1.1104 9.41638 18.3906 12.4966
52 1 -1.1104 6.3248 15.349 12.4214
8950 2 2.2208 13.4903 11.271 8.26079
156 1 -1.1104 9.30354 18.374 6.65339
149 1 -1.1104 12.2383 15.2181 6.87885
163 1 -1.1104 9.17887 15.7163 7.02767
590 2 2.2208 4.97789 5.59431 -0.134902
557 2 2.2208 7.85038 2.65844 -0.267442
526 2 2.2208 1.92691 -2.80645 -0.212054
615 2 2.2208 10.6659 5.58292 -0.413487
9438 2 2.2208 13.555 8.56988 -0.291553
17351 2 2.2208 13.5116 -5.58357 2.47929
525 2 2.2208 4.84758 0.038503 -0.18076
8342 2 2.2208 5.11715 -5.54827 11.1164
8344 2 2.2208 7.88563 -5.53552 8.26096
8339 2 2.2208 7.82868 -5.56828 2.36158
8341 2 2.2208 2.16918 -5.49934 8.21059
370 2 2.2208 7.85459 13.9733 -0.0704369
592 2 2.2208 5.03067 11.2704 -0.121578
500 2 2.2208 10.8968 16.8946 -0.301641
371 2 2.2208 7.82346 -0.0594549 13.6053
298 2 2.2208 4.95281 0.126247 16.5865
299 1 -1.1104 0.93349 -4.1339 18.4094
303 1 -1.1104 0.841489 -4.5087 15.3915
311 1 -1.1104 0.731788 -1.46471 17.9315
313 2 2.2208 4.7523 -2.913 19.4624
315 1 -1.1104 0.504117 -1.37332 15.2694
319 1 -1.1104 3.71587 -4.47254 17.9897
321 2 2.2208 1.94604 -0.142496 19.2473
322 1 -1.1104 3.60164 -4.31728 15.1935
326 2 2.2208 2.15234 -3.04012 16.5596
328 1 -1.1104 3.45951 -1.48348 17.9225
329 1 -1.1104 3.20789 -1.4532 15.1177
323 1 -1.1104 3.66118 -4.30527 21.123
330 1 -1.1104 3.32915 -1.72437 20.7694
316 1 -1.1104 0.567996 -1.30305 20.7798
301 1 -1.1104 6.28586 -4.35171 18.0279
312 1 -1.1104 6.50208 -1.54552 18.0299
317 1 -1.1104 6.33706 -1.17515 15.1333
596 2 2.2208 7.91046 16.7017 25.1357
9153 2 2.2208 13.3788 5.75101 14.0326
340 2 2.2208 4.7775 2.93207 13.8402
9434 2 2.2208 13.393 8.51103 16.7994
9302 2 2.2208 13.4811 17.0574 13.7752
307 1 -1.1104 6.46564 -3.96467 15.3589
341 2 2.2208 10.3507 0.0869328 16.633
342 1 -1.1104 12.0612 -4.02512 18.2064
344 1 -1.1104 12.1431 -4.34307 15.3322
348 1 -1.1104 11.9783 -1.39529 18.1778
349 2 2.2208 10.5099 -2.77717 19.4981
351 1 -1.1104 11.8032 -1.35041 15.297
353 1 -1.1104 9.15163 -4.35048 18.0576
355 2 2.2208 7.68941 0.0220779 19.5299
356 1 -1.1104 9.38027 -4.31429 15.4047
360 2 2.2208 7.83638 -2.81796 16.7562
362 1 -1.1104 9.21893 -1.2848 18.2448
363 1 -1.1104 9.10533 -1.2711 15.3321
364 1 -1.1104 8.91912 -1.19382 21.1061
345 1 -1.1104 11.8878 -4.06198 20.9758
434 2 2.2208 7.6824 5.48389 13.6962
529 2 2.2208 10.5905 17.0023 22.3703
352 1 -1.1104 11.8784 -1.44013 21.244
9414 2 2.2208 13.3419 -2.6662 16.6471
300 1 -1.1104 0.493856 1.20614 17.9838
305 1 -1.1104 0.718867 1.41146 15.1661
314 2 2.2208 5.10708 2.72378 19.6
320 1 -1.1104 3.47027 1.25149 18.145
324 1 -1.1104 3.50208 1.50992 15.2526
327 2 2.2208 2.08311 2.66674 16.5793
374 2 2.2208 4.87786 5.55571 16.8504
376 1 -1.1104 0.36787 7.18869 18.1335
378 1 -1.1104 0.658863 7.12125 15.416
382 1 -1.1104 0.546833 4.30217 18.2954
387 1 -1.1104 0.657641 4.09992 15.2774
395 1 -1.1104 3.28546 6.99307 18.0941
396 2 2.2208 1.89268 5.61545 19.5542
398 1 -1.1104 3.65633 7.03871 15.2259
401 1 -1.1104 3.485 4.23294 18.05
403 1 -1.1104 3.34277 4.27255 15.2776
388 1 -1.1104 0.62965 4.21896 21.0663
302 1 -1.1104 6.30659 1.32216 18.0969
309 1 -1.1104 6.2769 1.52774 15.2796
377 1 -1.1104 5.9135 7.12306 18.2519
384 1 -1.1104 6.23817 4.11737 18.2202
391 1 -1.1104 6.43684 4.28812 15.2825
310 1 -1.1104 6.24337 1.38635 21.0991
392 1 -1.1104 6.51443 4.20339 20.9807
380 1 -1.1104 6.36544 6.93679 15.2835
470 2 2.2208 2.07791 16.7755 13.7241
404 1 -1.1104 3.71721 4.09091 20.9645
379 1 -1.1104 0.619353 6.85933 21.0328
306 1 -1.1104 0.596719 1.48097 20.7878
381 1 -1.1104 6.44594 7.17586 21.061
9287 2 2.2208 13.4734 2.66974 22.4536
343 1 -1.1104 11.8926 1.25555 18.1184
346 1 -1.1104 11.9236 1.53394 15.1684
350 2 2.2208 10.5103 2.79749 19.6698
354 1 -1.1104 9.05782 1.44859 18.0019
358 1 -1.1104 9.16812 1.4676 15.0786
361 2 2.2208 7.67794 2.65563 16.5808
410 2 2.2208 10.5247 5.46957 16.6515
412 1 -1.1104 12.0219 7.00121 17.949
413 1 -1.1104 12.066 7.20589 15.3102
415 1 -1.1104 11.8451 4.2099 18.0105
418 1 -1.1104 11.9593 4.29901 15.0911
422 1 -1.1104 8.81074 7.07375 18.378
423 2 2.2208 7.67908 5.64131 19.7559
425 1 -1.1104 9.25933 7.13694 15.2721
428 1 -1.1104 9.12649 4.06807 18.1754
430 1 -1.1104 9.0265 4.31109 15.4157
359 1 -1.1104 8.94602 1.61386 20.684
347 1 -1.1104 11.9336 1.32872 20.9776
419 1 -1.1104 12.1747 4.24435 21.087
9420 2 2.2208 13.5946 16.8291 25.053
9080 2 2.2208 13.4155 2.65571 16.6634
414 1 -1.1104 11.972 7.07259 20.8468
435 2 2.2208 10.5803 8.35599 13.9498
375 2 2.2208 4.83822 11.1981 16.6232
383 1 -1.1104 0.808354 9.86891 18.1778
386 2 2.2208 4.74088 8.23458 19.7103
389 1 -1.1104 0.948615 9.63074 15.0838
397 2 2.2208 2.32284 11.299 19.3168
400 2 2.2208 2.17326 8.36862 16.6186
402 1 -1.1104 3.74647 9.72189 17.8605
405 1 -1.1104 3.49118 9.88559 15.1933
438 1 -1.1104 1.03797 12.7256 17.925
442 1 -1.1104 0.534235 12.3823 14.9701
458 1 -1.1104 3.71479 12.7826 18.1895
461 1 -1.1104 3.46351 12.6937 15.2097
446 1 -1.1104 6.29626 12.7051 15.2244
385 1 -1.1104 6.71402 9.97089 17.9364
393 1 -1.1104 6.50281 9.70773 15.0716
440 1 -1.1104 6.28854 12.6145 18.1731
462 1 -1.1104 3.74965 12.542 20.9091
447 1 -1.1104 6.4563 12.7016 21.0404
9428 2 2.2208 13.457 14.2788 16.7066
411 2 2.2208 10.5282 11.2072 16.7841
416 1 -1.1104 12.0772 9.83608 18.1759
417 2 2.2208 10.589 8.36231 19.5233
420 1 -1.1104 11.9657 10.2138 15.3776
424 2 2.2208 7.74391 11.1873 19.6669
427 2 2.2208 7.78718 8.4093 16.6674
429 1 -1.1104 9.46282 9.63988 18.0712
432 1 -1.1104 9.27142 10.064 15.308
474 1 -1.1104 11.8712 12.7511 18.1281
476 1 -1.1104 11.8928 12.925 15.1768
485 1 -1.1104 9.07194 12.5551 18.3892
488 1 -1.1104 9.24564 12.921 15.4673
489 1 -1.1104 9.18645 12.8639 21.0691
421 1 -1.1104 12.0593 9.75637 21.183
433 1 -1.1104 9.12286 9.88811 21.082
477 1 -1.1104 12.1216 12.4716 21.0427
9433 2 2.2208 13.3317 5.5702 19.4606
437 2 2.2208 5.04371 17.0118 16.5461
439 1 -1.1104 0.70323 18.1488 17.9576
444 1 -1.1104 0.885367 18.0841 15.1554
450 1 -1.1104 0.826245 15.4662 17.9259
452 2 2.2208 4.9258 14.1387 19.5532
453 2 2.2208 4.79356 19.5671 19.2923
454 1 -1.1104 0.804276 15.3111 15.0096
459 1 -1.1104 3.38819 18.1808 18.0327
460 2 2.2208 2.08975 16.8308 19.4371
463 1 -1.1104 3.93598 18.5287 15.2309
465 2 2.2208 2.36541 14.2447 16.5758
466 2 2.2208 2.13853 19.7159 16.4811
467 1 -1.1104 3.40427 15.5544 18.1034
468 1 -1.1104 3.54199 15.5798 15.1824
455 1 -1.1104 0.80307 15.4266 20.9151
464 1 -1.1104 3.6968 18.7223 20.9662
456 1 -1.1104 6.31236 15.3919 15.2425
563 2 2.2208 10.6736 19.6264 24.9023
469 1 -1.1104 3.48759 15.4957 20.848
445 1 -1.1104 0.865941 18.241 21.1035
593 1 -1.1104 8.88125 18.2729 23.4934
457 1 -1.1104 6.46517 15.5206 21.0436
8644 2 2.2208 7.71827 -5.64704 19.5042
9427 2 2.2208 13.4113 16.9406 19.5613
338 2 2.2208 4.9643 -2.81768 13.9116
448 1 -1.1104 6.78807 18.2973 15.1936
441 1 -1.1104 6.31384 18.504 17.954
451 1 -1.1104 6.23573 15.6059 18.0493
473 2 2.2208 10.7143 16.8949 16.7472
475 1 -1.1104 12.0309 18.4154 17.803
478 1 -1.1104 12.4406 18.7715 14.8237
480 1 -1.1104 11.9697 15.4996 18.1949
481 2 2.2208 10.4202 13.9514 19.5976
482 2 2.2208 10.6507 19.7916 19.3303
483 1 -1.1104 12.1827 15.7633 15.3701
486 1 -1.1104 9.11321 18.0518 17.9075
487 2 2.2208 7.72518 16.9916 19.3642
490 1 -1.1104 9.6323 18.206 15.3179
492 2 2.2208 7.66531 14.1678 16.8558
493 2 2.2208 7.87971 19.7023 16.7499
494 1 -1.1104 9.02444 15.563 18.2532
495 1 -1.1104 9.17996 15.5225 15.4371
484 1 -1.1104 12.1131 15.5873 20.8986
9432 2 2.2208 13.6311 11.2123 19.3966
339 2 2.2208 1.88685 -0.0803985 13.7283
372 2 2.2208 10.656 -3.00937 13.8623
318 1 -1.1104 6.1197 -1.39721 20.7263
308 1 -1.1104 6.37161 -4.10366 20.8967
304 1 -1.1104 0.777311 -4.11015 20.9952
501 2 2.2208 4.82307 -0.0463349 22.3854
502 1 -1.1104 0.500319 -4.37819 23.943
506 1 -1.1104 0.605375 -4.09349 26.8211
510 1 -1.1104 0.551712 -1.53229 23.5863
512 2 2.2208 4.99067 -2.97921 25.1011
514 1 -1.1104 0.562443 -1.46877 26.4536
516 1 -1.1104 3.26401 -4.39865 23.7829
518 2 2.2208 2.04089 -0.0421571 25.1957
519 1 -1.1104 3.68051 -4.2269 26.6862
521 2 2.2208 1.97882 -2.99062 22.4542
523 1 -1.1104 3.43118 -1.8473 23.7289
524 1 -1.1104 3.36789 -1.16304 26.6001
504 1 -1.1104 6.43055 -4.51564 23.8272
508 1 -1.1104 6.48277 -4.08136 26.5373
511 1 -1.1104 6.23311 -1.55379 23.6235
331 2 2.2208 7.68696 14.1263 22.3814
528 2 2.2208 7.81683 19.8067 27.7014
357 1 -1.1104 9.16929 -4.23394 20.7622
9421 2 2.2208 13.6005 14.0104 27.7374
498 2 2.2208 10.5611 14.13 13.9213
515 1 -1.1104 6.13109 -1.40977 26.5131
537 2 2.2208 10.5081 -0.109087 22.399
538 1 -1.1104 11.9612 -4.40167 23.6921
540 1 -1.1104 11.9587 -4.07305 26.6273
542 1 -1.1104 11.8883 -1.49893 23.8476
543 2 2.2208 10.6023 -2.7396 25.1857
545 1 -1.1104 11.945 -1.25637 26.4368
546 1 -1.1104 9.33529 -4.21126 23.7433
548 2 2.2208 7.72319 -0.0700246 25.2741
549 1 -1.1104 9.18966 -4.37263 26.5132
551 2 2.2208 7.8206 -2.78027 22.3326
553 1 -1.1104 8.98967 -1.62886 23.825
554 1 -1.1104 9.02358 -1.56278 26.6763
9121 2 2.2208 13.2826 -0.016265 25.1385
9122 2 2.2208 13.2818 -2.8346 22.2651
399 1 -1.1104 3.53017 6.88672 21.0643
325 1 -1.1104 3.48099 1.14162 20.9117
503 1 -1.1104 0.842991 1.28773 23.577
507 1 -1.1104 0.559121 1.37036 26.5866
513 2 2.2208 4.95389 2.72965 25.377
517 1 -1.1104 3.56521 1.34081 23.6855
520 1 -1.1104 3.31692 1.56372 26.5937
522 2 2.2208 2.16936 2.60938 22.3185
566 2 2.2208 4.93457 5.42153 22.4154
568 1 -1.1104 0.676677 6.94677 23.8873
570 1 -1.1104 0.906002 7.00939 26.685
572 1 -1.1104 0.396314 4.0589 23.6742
577 1 -1.1104 0.773355 4.27344 26.6097
581 1 -1.1104 3.48377 6.97709 23.9379
582 2 2.2208 2.09602 5.56257 25.0742
584 1 -1.1104 3.81981 7.24899 26.7636
586 1 -1.1104 3.44034 4.13243 23.7767
588 1 -1.1104 3.55567 4.36031 26.4677
509 1 -1.1104 6.3055 1.241 26.6728
505 1 -1.1104 6.39174 1.23926 23.9899
569 1 -1.1104 6.45041 6.83695 23.7152
571 1 -1.1104 6.50789 7.0061 26.5365
574 1 -1.1104 6.19284 4.07677 23.6811
579 1 -1.1104 6.49314 4.0453 26.7459
332 2 2.2208 7.64173 19.723 22.2043
407 2 2.2208 2.17721 5.69661 14.0312
426 1 -1.1104 9.2846 7.02539 20.9509
9158 2 2.2208 13.5046 5.58241 25.0475
431 1 -1.1104 9.16711 4.26682 20.9584
539 1 -1.1104 12.1286 1.36558 23.7749
541 1 -1.1104 12.0206 1.3638 26.7175
544 2 2.2208 10.7217 2.79046 25.1315
547 1 -1.1104 9.28828 1.17511 23.755
550 1 -1.1104 9.2058 1.21364 26.7367
552 2 2.2208 7.71398 2.63038 22.3595
598 1 -1.1104 9.27493 4.09636 26.3473
600 1 -1.1104 9.24153 3.98373 23.5612
602 1 -1.1104 9.28198 6.95848 26.3461
604 2 2.2208 7.69232 5.44009 25.2029
605 2 2.2208 10.6184 5.46055 22.3255
607 1 -1.1104 11.9233 7.12365 23.7144
608 1 -1.1104 11.8503 7.04526 26.5861
609 1 -1.1104 12.1422 4.14631 23.8585
612 1 -1.1104 12.1195 4.1889 26.6326
614 1 -1.1104 9.0815 6.72229 23.8126
9086 2 2.2208 13.4506 0.0298705 19.5365
9418 2 2.2208 13.471 8.4298 22.2671
390 1 -1.1104 0.445237 9.63828 21.0158
443 1 -1.1104 0.936114 12.4759 20.8573
394 1 -1.1104 6.1859 9.91422 21.0999
472 2 2.2208 5.06832 14.1355 13.9326
406 1 -1.1104 3.30114 9.81309 20.8653
567 2 2.2208 4.90249 11.2639 22.464
573 1 -1.1104 0.696164 9.6648 23.664
576 2 2.2208 5.03327 8.47908 25.0395
578 1 -1.1104 0.882108 9.89574 26.5851
583 2 2.2208 2.19739 11.2029 25.3191
585 2 2.2208 1.9608 8.27111 22.4182
587 1 -1.1104 3.36211 9.92413 23.677
589 1 -1.1104 3.75518 10.0664 26.6192
532 1 -1.1104 3.54706 12.8095 26.5667
619 1 -1.1104 0.561116 12.7071 23.6708
623 1 -1.1104 3.3526 12.6061 23.905
627 1 -1.1104 0.818926 12.7486 26.4875
580 1 -1.1104 6.53922 9.77328 26.4955
622 1 -1.1104 6.43397 12.5862 26.7847
631 1 -1.1104 6.28301 12.6288 23.9021
367 2 2.2208 2.37673 13.9542 22.227
630 2 2.2208 5.0271 14.0051 25.1778
9437 2 2.2208 13.4442 11.1605 25.031
9426 2 2.2208 13.487 19.8198 27.8086
533 1 -1.1104 12.0148 12.715 23.6532
575 1 -1.1104 6.53075 9.68155 23.7521
597 1 -1.1104 9.33292 9.84036 26.5441
599 1 -1.1104 9.21075 9.83159 23.782
601 2 2.2208 8.10388 8.39505 22.4082
603 2 2.2208 8.00392 11.2928 25.2083
606 2 2.2208 10.6093 11.4443 22.3897
610 1 -1.1104 12.0122 9.88351 23.9625
611 2 2.2208 10.7321 8.34575 25.1851
613 1 -1.1104 12.119 9.94452 26.7189
535 1 -1.1104 11.9903 12.608 26.4878
560 1 -1.1104 9.29094 12.7007 26.681
565 1 -1.1104 9.12715 12.7819 23.8208
408 2 2.2208 4.93357 8.4835 13.7541
436 2 2.2208 7.77968 11.2717 13.7977
335 1 -1.1104 6.4026 18.2443 26.4907
531 1 -1.1104 6.31793 15.5682 23.7253
628 1 -1.1104 6.19083 18.3353 23.6323
368 2 2.2208 1.99711 19.805 22.3328
369 1 -1.1104 3.85026 15.3464 23.5899
530 1 -1.1104 0.721598 15.5075 23.7441
559 1 -1.1104 3.66143 15.3297 26.4023
594 2 2.2208 2.2693 16.7521 25.0824
595 1 -1.1104 3.33353 18.1572 26.7781
618 2 2.2208 4.97731 16.974 22.2838
620 1 -1.1104 0.62709 18.1758 23.9208
621 1 -1.1104 3.52773 18.0499 23.7292
625 1 -1.1104 0.552951 18.3812 26.5121
626 1 -1.1104 0.810666 15.5433 26.6342
629 2 2.2208 4.91064 19.6089 25.0986
624 1 -1.1104 6.31718 15.3308 26.5772
536 1 -1.1104 12.0532 18.283 26.1765
558 1 -1.1104 11.975 15.4819 23.8397
491 1 -1.1104 9.31999 18.336 20.8053
479 1 -1.1104 12.1237 18.4304 20.6965
449 1 -1.1104 6.33326 18.2153 20.8079
496 1 -1.1104 9.04599 15.5139 20.9335
562 2 2.2208 10.4776 14.0173 25.2153
334 1 -1.1104 9.05086 15.5869 26.7509
333 1 -1.1104 9.21057 15.5461 23.854
534 1 -1.1104 11.952 18.3645 23.6255
561 1 -1.1104 9.42348 18.2452 26.4166
564 1 -1.1104 11.8876 15.3774 26.6011
409 2 2.2208 2.18939 11.1173 13.8414
373 2 2.2208 10.4991 2.94391 13.8739
9053 2 2.2208 13.4185 11.226 14.1011
497 2 2.2208 10.4973 19.8048 13.8107
9417 2 2.2208 13.3298 14.0089 22.2343
499 2 2.2208 7.96864 16.7326 13.8911
616 2 2.2208 7.90291 8.57596 27.755
471 2 2.2208 5.16374 19.7691 13.7138
632 2 2.2208 5.0582 22.3957 5.1205
634 1 -1.1104 0.935145 23.8799 1.09724
635 1 -1.1104 0.81544 23.7982 4.03442
636 1 -1.1104 0.900483 20.8463 1.29254
638 2 2.2208 5.15982 25.3168 2.39488
639 1 -1.1104 0.863805 20.9514 3.97136
641 1 -1.1104 3.71163 24.0698 1.15025
642 2 2.2208 2.26377 22.2336 2.48624
644 1 -1.1104 3.70939 23.9097 3.94949
645 2 2.2208 2.05926 25.3943 5.28191
646 1 -1.1104 3.59615 20.9062 0.873785
648 1 -1.1104 3.98815 21.0724 3.61566
640 1 -1.1104 0.620369 26.7071 3.92723
773 1 -1.1104 0.827112 24.0448 6.68282
653 1 -1.1104 6.44561 24.0326 0.985381
656 1 -1.1104 6.54123 26.7893 0.818282
637 1 -1.1104 0.85384 26.7204 0.964481
647 1 -1.1104 3.82017 26.7651 1.26858
649 1 -1.1104 3.55427 26.4879 3.79554
776 1 -1.1104 0.833567 26.9654 6.58759
655 1 -1.1104 6.53585 21.146 1.1046
658 1 -1.1104 6.4198 26.8293 3.71156
9761 2 2.2208 13.4174 31.1841 -0.403562
9645 2 2.2208 13.5244 36.7721 10.6978
654 1 -1.1104 6.55203 23.8564 3.71539
657 1 -1.1104 6.42634 21.1701 3.84614
659 2 2.2208 10.5847 22.4884 5.2097
661 1 -1.1104 12.1655 23.9579 0.922436
662 1 -1.1104 12.2758 24.1872 3.77304
663 1 -1.1104 12.2043 21.2675 0.596313
665 2 2.2208 10.7076 25.4493 2.2088
666 1 -1.1104 12.0721 21.1762 3.49995
668 1 -1.1104 9.27226 24.1505 0.87077
669 2 2.2208 7.98696 22.3974 2.48441
671 1 -1.1104 9.52341 23.9203 3.5746
672 2 2.2208 7.94299 25.3765 4.93631
673 1 -1.1104 9.29462 21.0938 0.992804
675 1 -1.1104 9.25065 21.0931 3.87643
809 1 -1.1104 9.15429 23.7643 6.58151
674 1 -1.1104 9.36024 26.9587 1.11706
676 1 -1.1104 9.24948 26.5997 3.73136
667 1 -1.1104 12.1542 26.8711 3.90908
806 1 -1.1104 11.8178 24.1221 6.41821
810 1 -1.1104 9.44346 21.1826 6.74522
807 1 -1.1104 12.1257 21.2177 6.23893
811 1 -1.1104 9.04866 26.8207 6.48845
664 1 -1.1104 11.9811 26.7353 0.975252
9495 2 2.2208 13.6937 36.5739 5.35735
925 2 2.2208 -0.472109 34.082 4.9784
1028 2 2.2208 5.2471 36.6741 13.4528
9748 2 2.2208 13.475 25.3784 5.14079
1089 2 2.2208 5.24077 42.269 13.4519
633 2 2.2208 5.20467 28.0766 5.3364
643 2 2.2208 2.11587 28.0179 2.43158
681 1 -1.1104 1.00609 29.7053 0.71364
684 1 -1.1104 1.09135 29.5854 3.64648
687 1 -1.1104 0.966899 32.4436 0.891279
688 2 2.2208 5.10455 31.0084 2.25869
690 1 -1.1104 0.691753 32.3008 3.62715
692 1 -1.1104 3.63426 29.3972 0.924861
695 1 -1.1104 3.73996 29.359 3.83991
697 2 2.2208 2.22244 30.7641 5.02193
699 1 -1.1104 3.76902 32.343 0.852607
700 1 -1.1104 3.61376 32.3629 3.63536
834 1 -1.1104 3.92833 32.4233 6.53521
705 1 -1.1104 6.35718 29.7916 3.81444
706 1 -1.1104 6.38278 32.3355 0.843867
704 1 -1.1104 6.3777 29.6155 0.893375
694 2 2.2208 2.37105 33.8468 2.21416
660 2 2.2208 10.5595 28.2494 4.99581
670 2 2.2208 7.9027 28.2463 2.26434
691 1 -1.1104 6.53786 32.5922 3.74769
708 1 -1.1104 11.7883 29.6764 1.02866
710 1 -1.1104 11.8644 29.6556 3.85114
712 1 -1.1104 12.171 32.6115 0.876594
713 2 2.2208 10.6092 31.1455 2.50895
715 1 -1.1104 12.1137 32.4824 3.92601
716 1 -1.1104 9.18328 29.7507 0.902521
719 1 -1.1104 9.17119 29.6884 3.55225
721 2 2.2208 7.76807 31.0381 5.08177
723 1 -1.1104 9.26136 32.6096 0.996213
724 1 -1.1104 9.21133 32.6407 3.5588
862 1 -1.1104 12.1823 32.5486 6.43896
863 1 -1.1104 9.50758 29.8452 6.12194
865 1 -1.1104 9.10726 32.4929 6.31768
1261 3 0 13.2966 27.2218 13.4082
1120 2 2.2208 8.00681 39.5942 13.4881
927 2 2.2208 -0.489815 39.6438 5.08937
680 2 2.2208 5.06379 33.8615 5.17448
682 1 -1.1104 1.00001 35.6378 0.963235
685 1 -1.1104 1.15242 35.1548 3.71058
689 2 2.2208 5.22419 36.6875 2.19914
693 1 -1.1104 3.52794 35.1435 0.552807
696 1 -1.1104 3.8887 35.1498 3.73085
698 2 2.2208 2.29821 36.639 5.23622
726 2 2.2208 5.37756 39.6355 4.92719
732 1 -1.1104 1.01821 38.1296 0.885519
737 1 -1.1104 1.17707 38.1456 3.74764
742 2 2.2208 2.41707 39.3955 2.37328
746 1 -1.1104 3.90974 37.8194 0.752842
748 1 -1.1104 3.87312 38.1843 3.61645
827 1 -1.1104 0.844095 35.1736 6.56748
734 1 -1.1104 6.64554 38.0299 0.805906
683 1 -1.1104 6.67356 35.2674 0.742401
903 1 -1.1104 3.69307 37.8638 6.48404
897 1 -1.1104 0.658077 38.1307 6.4849