ITEM: TIMESTEP
30000
ITEM: NUMBER OF ATOMS
17760
ITEM: BOX BOUNDS pp pp pp
-4.5933804933232275e-01 2.7799338049332086e+01
-5.4320882644815018e+00 3.3351208826449181e+02
-4.5885209389951753e-01 2.7798852093899267e+01
ITEM: ATOMS id type q x y z
1 2 2.2208 5.20275 0.309871 5.07959
2 1 -1.1104 0.984679 -4.15243 0.949369
6 1 -1.1104 1.04921 -4.01391 3.62551
10 1 -1.1104 0.903191 -1.16838 1.03755
12 2 2.2208 5.14768 -2.3509 2.19617
14 1 -1.1104 0.821335 -1.41752 3.88967
16 1 -1.1104 3.77442 -3.99614 1.00834
18 2 2.2208 2.40231 0.295123 2.38369
19 1 -1.1104 3.99368 -3.87651 4.0115
21 2 2.2208 2.50393 -2.44009 5.33692
23 1 -1.1104 3.56084 -0.976012 0.775034
24 1 -1.1104 3.63334 -0.959587 3.8737
4 1 -1.1104 6.53775 -3.79775 1.11565
11 1 -1.1104 6.4307 -1.06492 0.701638
8 1 -1.1104 6.48733 -3.64417 3.69283
15 1 -1.1104 6.37245 -0.923784 3.69731
172 1 -1.1104 3.73242 -3.98306 6.44232
170 1 -1.1104 0.930159 -0.989642 6.6358
168 1 -1.1104 6.65109 -3.87016 6.50053
9048 2 2.2208 -0.303605 11.4041 5.34891
27 1 -1.1104 12.3768 18.626 12.5458
31 2 2.2208 10.8389 0.329853 5.19621
32 1 -1.1104 12.1158 -3.84387 0.865692
34 1 -1.1104 11.9408 -4.25044 3.63595
36 1 -1.1104 12.266 -1.13759 0.992289
37 2 2.2208 10.9475 -2.54858 2.44453
39 1 -1.1104 12.3541 -1.38958 3.80466
40 1 -1.1104 9.46733 -3.99588 0.826399
42 2 2.2208 7.89443 0.161368 2.38275
43 1 -1.1104 9.33661 -3.91696 3.67712
45 2 2.2208 8.03117 -2.32353 5.05441
47 1 -1.1104 9.17352 -1.01658 0.887259
48 1 -1.1104 9.61806 -1.14469 3.88449
366 2 2.2208 2.57396 19.8067 -0.47515
9046 2 2.2208 -0.343922 5.77661 5.16086
207 1 -1.1104 12.1635 -1.11977 6.51825
8341 2 2.2208 2.42025 -5.22099 8.04948
208 1 -1.1104 9.30976 -3.93263 6.54672
8339 2 2.2208 8.0744 -5.18797 2.19536
53 2 2.2208 10.9348 14.0178 8.18633
3 1 -1.1104 1.14594 1.71608 0.790149
7 1 -1.1104 1.18185 1.4299 3.74688
13 2 2.2208 5.30283 3.05348 2.1429
17 1 -1.1104 3.98319 1.88423 0.763615
20 1 -1.1104 3.80525 1.84964 3.6527
22 2 2.2208 2.37608 2.90524 5.10357
54 2 2.2208 5.35438 5.73592 4.98825
60 1 -1.1104 0.911842 4.34614 0.986779
67 1 -1.1104 1.10498 4.34026 3.81498
72 2 2.2208 2.43784 5.86321 2.195
76 1 -1.1104 3.76441 4.59978 0.823527
79 1 -1.1104 4.09323 4.45759 3.70686
58 1 -1.1104 0.791384 7.10964 3.5769
63 1 -1.1104 6.72724 4.67791 0.519903
5 1 -1.1104 6.56132 1.58559 0.926787
9 1 -1.1104 6.57364 1.80462 3.76506
167 1 -1.1104 1.05299 1.47917 6.60494
57 1 -1.1104 6.50607 7.39559 0.8732
59 1 -1.1104 6.72993 7.26757 3.70459
69 1 -1.1104 6.65462 4.50067 3.35958
56 1 -1.1104 1.10053 7.16806 0.886523
239 1 -1.1104 3.92818 4.44981 6.50071
74 1 -1.1104 3.75937 7.17778 3.79524
71 1 -1.1104 3.79895 7.34653 0.755233
234 1 -1.1104 1.02601 7.15862 6.49866
173 1 -1.1104 3.88202 1.715 6.66481
238 1 -1.1104 3.85988 7.22401 6.60007
235 1 -1.1104 6.87667 7.05961 6.49204
237 1 -1.1104 6.81256 4.25771 6.50331
169 1 -1.1104 6.63129 1.57703 6.58956
33 1 -1.1104 12.2279 1.72676 1.13542
35 1 -1.1104 12.303 1.74247 3.85725
38 2 2.2208 10.8943 3.10106 2.22387
41 1 -1.1104 9.47935 1.85614 0.947392
44 1 -1.1104 9.49873 1.53351 3.70752
46 2 2.2208 8.06997 2.91347 5.13085
84 2 2.2208 10.8508 5.97482 5.32041
86 1 -1.1104 12.1823 7.13949 1.1475
87 1 -1.1104 12.2219 7.32775 3.91968
88 1 -1.1104 12.4385 4.50242 0.922515
92 1 -1.1104 12.3146 4.69565 3.7167
94 1 -1.1104 9.42681 7.39381 0.936743
95 2 2.2208 8.22109 5.97614 2.37285
97 1 -1.1104 9.54409 7.15389 3.83051
99 1 -1.1104 9.50906 4.44674 1.15437
102 1 -1.1104 9.2662 4.3487 3.74828
500 2 2.2208 10.7703 17.0425 -0.401324
9426 2 2.2208 13.6744 19.8861 -0.309756
206 1 -1.1104 12.2633 1.85191 6.6366
269 1 -1.1104 9.58165 4.4144 6.53244
267 1 -1.1104 9.51495 7.19566 6.68706
209 1 -1.1104 9.61265 1.75372 6.58525
55 2 2.2208 5.15557 11.4478 5.32243
61 1 -1.1104 0.946668 10.2724 0.824602
66 2 2.2208 5.29283 8.81189 2.30233
68 1 -1.1104 1.1256 9.9702 3.66021
73 2 2.2208 2.43199 11.6124 2.41846
75 2 2.2208 2.61924 8.52019 5.03928
77 1 -1.1104 3.63842 10.0349 1.01732
80 1 -1.1104 3.93169 10.1004 3.92771
107 1 -1.1104 1.31925 13.1377 0.923278
113 1 -1.1104 0.989736 12.697 3.8012
123 1 -1.1104 3.84804 13.1526 1.04537
128 1 -1.1104 3.66645 12.841 3.71478
115 1 -1.1104 6.58621 13.0068 3.48252
70 1 -1.1104 6.74491 9.7982 3.5856
64 1 -1.1104 6.59128 10.1341 0.817696
110 1 -1.1104 6.55854 13.1 0.727774
119 2 2.2208 5.21335 14.4357 2.24855
124 1 -1.1104 3.72569 12.9198 6.5902
111 1 -1.1104 6.5627 12.7657 6.58024
62 1 -1.1104 1.02799 10.1677 6.7598
9079 2 2.2208 -0.383241 5.79723 -0.45038
85 2 2.2208 10.6936 11.5147 5.22576
89 1 -1.1104 12.0737 9.9325 0.939853
91 2 2.2208 10.9168 8.63462 2.51668
93 1 -1.1104 12.4075 9.92206 3.75913
96 2 2.2208 8.00652 11.502 2.41822
98 2 2.2208 8.02673 8.45975 5.09119
100 1 -1.1104 9.26643 10.058 1.06437
103 1 -1.1104 9.43585 10.0872 3.84122
142 1 -1.1104 12.2047 12.6955 0.88398
146 1 -1.1104 12.2534 12.7954 3.76203
153 1 -1.1104 9.54194 12.7406 1.08968
158 1 -1.1104 9.25044 12.8789 3.78841
8815 2 2.2208 13.4603 19.8713 5.18921
407 2 2.2208 2.25074 5.74156 13.6767
143 1 -1.1104 12.0531 13.158 6.4194
160 2 2.2208 8.09588 14.207 5.0826
90 1 -1.1104 12.0698 10.2295 6.51916
154 1 -1.1104 9.31821 12.5909 6.61628
9044 2 2.2208 13.6588 -2.45427 5.29612
370 2 2.2208 8.2059 14.4106 -0.542948
130 2 2.2208 2.4482 14.3026 5.09471
106 2 2.2208 5.06958 16.9973 5.34886
109 1 -1.1104 0.883699 18.5182 1.04197
114 1 -1.1104 1.01996 18.5016 3.89633
116 1 -1.1104 0.909914 15.7655 0.778829
120 2 2.2208 5.22162 19.9299 2.6594
121 1 -1.1104 1.12064 15.752 3.66241
125 1 -1.1104 3.98715 18.8103 1.08877
127 2 2.2208 2.32371 17.1488 2.22188
129 1 -1.1104 3.67021 18.5107 3.81607
131 2 2.2208 2.40696 19.8373 5.22463
132 1 -1.1104 3.77882 16.0433 0.812825
134 1 -1.1104 3.8371 15.6577 3.76776
122 1 -1.1104 6.67083 15.4792 3.66612
138 1 -1.1104 6.68325 18.3232 1.06675
118 1 -1.1104 6.54253 15.308 6.40883
140 1 -1.1104 6.69088 15.6745 0.82068
8934 2 2.2208 13.6621 17.0296 2.38265
470 2 2.2208 2.3576 17.0049 13.6858
139 1 -1.1104 6.53724 18.3985 3.98279
615 2 2.2208 10.8743 5.96085 -0.416344
150 2 2.2208 10.9853 14.1745 2.39463
141 2 2.2208 10.9531 16.8968 5.28939
144 1 -1.1104 12.1524 18.319 0.905885
147 1 -1.1104 12.5703 18.2751 3.9415
148 1 -1.1104 12.4227 15.4101 1.03501
151 2 2.2208 10.845 19.8643 2.25789
152 1 -1.1104 12.2812 15.5873 3.81185
155 1 -1.1104 9.47001 18.5077 1.16733
157 2 2.2208 8.02214 16.9999 2.52197
159 1 -1.1104 9.52386 18.4794 3.95004
161 2 2.2208 8.13406 19.6243 5.39126
162 1 -1.1104 9.68778 15.6973 0.990147
164 1 -1.1104 9.39251 15.7468 3.81659
8344 2 2.2208 8.00246 -5.25069 8.03243
9000 2 2.2208 13.6251 19.6619 10.741
145 1 -1.1104 12.2323 18.5229 6.63546
149 1 -1.1104 12.407 15.8438 6.8156
156 1 -1.1104 9.55977 18.316 6.60413
163 1 -1.1104 9.43591 15.4812 6.70054
8338 2 2.2208 5.20107 -5.29616 5.14669
174 1 -1.1104 3.70718 -0.989905 6.67684
171 1 -1.1104 6.62328 -1.07258 6.11549
166 1 -1.1104 1.1559 -3.76908 6.6442
175 2 2.2208 5.51696 0.13535 10.6176
176 1 -1.1104 1.07342 -4.06022 12.2848
180 1 -1.1104 1.11915 -4.01822 9.32283
184 1 -1.1104 1.0826 -1.27632 12.2308
186 2 2.2208 5.26784 -2.65951 7.79143
188 1 -1.1104 1.08387 -1.32529 9.55931
190 1 -1.1104 3.99391 -4.26315 12.1099
192 2 2.2208 2.40118 0.295427 7.95039
193 1 -1.1104 3.85385 -3.83831 9.3699
195 2 2.2208 2.31687 -2.54134 10.8529
197 1 -1.1104 3.90914 -1.2946 12.4065
198 1 -1.1104 3.98294 -1.12947 9.7491
185 1 -1.1104 6.78257 -1.14483 11.9917
189 1 -1.1104 7.02825 -1.42812 8.94396
178 1 -1.1104 6.64757 -3.94718 12.2864
182 1 -1.1104 6.69884 -4.05562 9.42851
8738 2 2.2208 13.7255 3.20251 5.18086
210 1 -1.1104 9.40252 -0.889939 6.6669
205 1 -1.1104 12.4937 -3.94536 6.61599
9270 2 2.2208 13.6524 -2.52188 -0.289091
211 2 2.2208 10.9184 0.095388 10.9356
212 1 -1.1104 12.2347 -4.35096 12.1279
214 1 -1.1104 12.1307 -4.10179 9.30179
216 1 -1.1104 12.1964 -1.41885 12.4976
217 2 2.2208 10.8982 -2.56163 7.99377
219 1 -1.1104 12.1633 -1.25807 9.58603
220 1 -1.1104 9.52035 -4.10965 12.3992
222 2 2.2208 8.11921 0.403029 8.09177
223 1 -1.1104 9.4955 -3.94508 9.11744
225 2 2.2208 8.23708 -2.66992 10.8334
227 1 -1.1104 9.39588 -1.41026 12.3082
228 1 -1.1104 9.56875 -0.943214 9.52105
9438 2 2.2208 13.6313 8.74245 -0.392389
371 2 2.2208 8.1076 0.0484506 13.6733
236 1 -1.1104 0.977488 4.30101 6.6403
177 1 -1.1104 1.16954 1.60649 12.5022
181 1 -1.1104 1.27734 1.55583 9.46757
187 2 2.2208 5.37862 2.98807 7.84993
191 1 -1.1104 3.91092 1.37722 12.013
194 1 -1.1104 4.07273 1.56937 9.19168
196 2 2.2208 2.50281 2.80125 10.8422
240 2 2.2208 5.37385 5.79894 10.9485
242 1 -1.1104 1.13299 7.06907 12.3601
246 1 -1.1104 0.885493 4.3073 12.2178
251 1 -1.1104 0.932234 4.25421 9.50211
255 1 -1.1104 3.88539 7.31114 12.0165
256 2 2.2208 2.37514 5.68094 8.04404
260 1 -1.1104 3.60049 4.2687 12.1201
262 1 -1.1104 4.0017 4.5432 9.31752
258 1 -1.1104 3.76297 7.17866 9.43145
248 1 -1.1104 6.51289 4.27093 12.247
243 1 -1.1104 6.81382 7.10345 12.222
179 1 -1.1104 6.72926 1.63829 12.1452
183 1 -1.1104 6.82942 1.65414 9.40855
245 1 -1.1104 6.79497 7.03029 9.42991
253 1 -1.1104 6.86684 4.20629 9.33311
244 1 -1.1104 0.821376 7.09627 9.44616
338 2 2.2208 5.45734 -2.63687 13.6274
9047 2 2.2208 -0.372257 8.6318 2.44247
8739 2 2.2208 -0.358517 19.9848 7.87923
266 1 -1.1104 12.4647 4.45629 6.66469
49 1 -1.1104 12.281 18.3865 9.51064
265 1 -1.1104 12.3877 7.32914 6.63822
471 2 2.2208 5.32035 19.9551 13.6232
213 1 -1.1104 12.4593 1.43851 12.449
215 1 -1.1104 12.2631 1.50191 9.47995
218 2 2.2208 10.9377 3.08166 7.99618
221 1 -1.1104 9.67097 1.34541 12.6393
224 1 -1.1104 9.50424 1.62292 9.78845
226 2 2.2208 7.99892 3.08678 10.9243
268 1 -1.1104 9.53753 4.65284 9.49578
271 1 -1.1104 9.43069 4.45423 12.2876
273 1 -1.1104 9.55501 7.30789 9.44229
275 2 2.2208 8.25181 5.77103 7.89288
276 2 2.2208 10.9398 5.95949 10.8869
278 1 -1.1104 12.3026 7.30438 12.1004
279 1 -1.1104 12.3137 7.28146 9.45137
280 1 -1.1104 12.4243 4.25611 12.2441
283 1 -1.1104 12.2808 4.26037 9.58398
285 1 -1.1104 9.51502 7.01158 12.268
137 1 -1.1104 9.45837 18.5939 9.6179
78 1 -1.1104 3.8809 9.97726 6.64802
8933 2 2.2208 -0.369148 3.06371 8.0205
108 1 -1.1104 0.961835 12.7947 6.68402
65 1 -1.1104 6.614 9.97977 6.60194
241 2 2.2208 5.06615 11.351 11.0047
247 1 -1.1104 0.784656 10.087 12.4624
250 2 2.2208 5.27417 8.49601 8.03235
252 1 -1.1104 0.714731 9.85415 9.5142
257 2 2.2208 2.33949 11.2335 8.04093
259 2 2.2208 2.39432 8.58585 10.7074
261 1 -1.1104 3.74661 10.1688 12.397
263 1 -1.1104 3.65197 9.82142 9.40228
136 1 -1.1104 1.06532 12.9629 12.477
202 1 -1.1104 3.69041 12.7657 9.61096
287 1 -1.1104 3.64468 13.2064 12.4474
294 1 -1.1104 1.06026 12.6508 9.46477
290 1 -1.1104 6.70824 12.7946 9.33896
297 1 -1.1104 6.47181 12.7988 12.1595
249 1 -1.1104 6.65516 10.0368 12.1773
254 1 -1.1104 6.42934 9.91102 9.42828
617 2 2.2208 10.8241 11.4321 -0.473603
101 1 -1.1104 9.47825 9.76969 6.45747
25 2 2.2208 10.8064 16.8242 10.7584
9424 2 2.2208 -0.400882 17.2792 -0.473869
229 1 -1.1104 9.47865 15.6331 9.39922
135 1 -1.1104 9.55851 12.7928 9.5851
264 1 -1.1104 9.3534 9.95471 9.34576
270 1 -1.1104 9.55162 9.69759 12.2253
272 2 2.2208 8.06307 8.50034 10.9178
274 2 2.2208 7.94452 11.2827 8.07641
277 2 2.2208 10.9679 11.4505 10.8866
281 1 -1.1104 12.5695 10.2136 12.2464
282 2 2.2208 11.0138 8.6835 7.88867
284 1 -1.1104 12.2741 10.1764 9.2253
83 1 -1.1104 9.52375 12.6579 12.515
26 1 -1.1104 12.154 12.9147 12.5315
30 1 -1.1104 12.3791 12.8275 9.54754
8967 2 2.2208 -0.52162 8.49435 8.14013
555 2 2.2208 10.7924 0.19022 -0.324061
112 1 -1.1104 6.66128 18.3028 6.63331
295 2 2.2208 5.08834 14.036 8.12381
126 1 -1.1104 3.84906 18.5899 6.56039
133 1 -1.1104 3.47937 15.7146 6.5462
231 1 -1.1104 1.08637 18.5311 6.69713
117 1 -1.1104 0.752102 15.6903 6.54109
52 1 -1.1104 6.68991 15.7877 12.4148
296 1 -1.1104 6.70921 18.5926 12.0793
289 1 -1.1104 6.59924 15.4052 9.50829
230 2 2.2208 2.28314 14.1309 10.7431
28 2 2.2208 2.26487 19.8381 10.941
29 1 -1.1104 3.75715 15.7689 12.32
51 1 -1.1104 1.01146 15.7514 12.2842
200 1 -1.1104 0.783268 18.3764 12.3915
203 1 -1.1104 3.78034 15.613 9.31129
204 2 2.2208 2.07662 16.9977 8.03827
232 1 -1.1104 3.75328 18.3833 9.59075
233 2 2.2208 5.10762 16.9311 11.0677
286 1 -1.1104 3.79434 18.5708 12.2597
291 1 -1.1104 0.785802 18.3586 9.39026
292 1 -1.1104 0.917393 15.7242 9.43579
293 2 2.2208 5.02454 19.804 8.11197
8898 2 2.2208 13.5444 0.324784 8.32015
288 1 -1.1104 6.70189 18.1788 9.28427
50 1 -1.1104 12.2019 15.9258 12.2143
201 1 -1.1104 9.59097 15.5015 12.1597
104 1 -1.1104 9.53052 18.3227 12.6388
199 2 2.2208 7.97217 19.9144 10.9004
105 2 2.2208 8.00674 16.788 7.94654
8766 2 2.2208 13.5089 -2.70941 10.8814
165 2 2.2208 8.02427 13.9846 10.9675
81 2 2.2208 10.7632 19.6649 8.03592
82 1 -1.1104 12.251 15.4246 9.52216
9039 2 2.2208 13.7535 16.9544 8.15662
365 2 2.2208 5.25865 17.204 -0.395624
9041 2 2.2208 -0.46303 3.01136 2.25691
340 2 2.2208 5.28418 3.00319 13.6198
616 2 2.2208 8.08233 8.76837 -0.359665
528 2 2.2208 8.04896 19.959 -0.261945
9052 2 2.2208 -0.528199 -2.58038 7.89121
8968 2 2.2208 -0.294386 5.78077 10.9755
373 2 2.2208 10.9854 2.92384 13.6211
8765 2 2.2208 -0.391074 14.1128 8.14896
9037 2 2.2208 -0.377582 -2.55583 2.20578
8899 2 2.2208 -0.336546 0.123349 10.873
9127 2 2.2208 -0.391634 2.74693 13.6002
9199 2 2.2208 -0.356885 8.5438 13.7112
526 2 2.2208 2.23246 -2.75084 -0.33717
298 2 2.2208 5.32702 0.347898 16.6237
299 1 -1.1104 0.79571 -4.10686 17.8524
303 1 -1.1104 0.773064 -4.10744 15.1486
311 1 -1.1104 0.805309 -1.05555 17.7434
313 2 2.2208 5.18344 -2.55212 19.2449
315 1 -1.1104 1.10576 -1.09092 15.0738
319 1 -1.1104 3.61385 -3.96657 17.8586
321 2 2.2208 2.43443 0.195668 19.1034
322 1 -1.1104 3.78346 -4.16539 14.8173
326 2 2.2208 2.30306 -2.55776 16.5323
328 1 -1.1104 3.83652 -1.2989 17.8553
329 1 -1.1104 3.92552 -1.15293 15.0957
301 1 -1.1104 6.66994 -3.78108 17.9015
317 1 -1.1104 6.77262 -1.257 15.0716
307 1 -1.1104 6.75857 -3.88356 15.0503
312 1 -1.1104 6.52965 -1.28572 17.9129
323 1 -1.1104 3.81743 -3.88973 20.9248
308 1 -1.1104 6.69633 -3.85632 20.6202
591 2 2.2208 2.34724 8.67894 27.7825
341 2 2.2208 11.0098 0.1786 16.3802
342 1 -1.1104 12.1187 -4.0382 18.0969
344 1 -1.1104 12.1616 -4.05961 15.0581
348 1 -1.1104 12.3756 -1.22732 17.8704
349 2 2.2208 11.0857 -2.46142 19.2456
351 1 -1.1104 12.3941 -1.29323 15.0234
353 1 -1.1104 9.55734 -3.85528 18.0373
355 2 2.2208 8.12269 0.19765 19.4248
356 1 -1.1104 9.43433 -4.15472 15.1857
360 2 2.2208 8.09141 -2.50526 16.5979
362 1 -1.1104 9.56242 -0.945714 17.7066
363 1 -1.1104 9.52743 -1.03414 15.1731
364 1 -1.1104 9.50865 -1.1871 20.511
9297 2 2.2208 -0.270688 -2.45941 24.8791
357 1 -1.1104 9.5921 -3.70112 20.8326
497 2 2.2208 10.73 19.9127 13.9817
435 2 2.2208 10.9806 8.48383 13.7447
345 1 -1.1104 12.323 -3.89839 20.6595
9158 2 2.2208 13.7051 5.77389 25.1988
8427 2 2.2208 8.05435 -5.25716 24.8875
563 2 2.2208 10.7108 19.8446 25.0716
300 1 -1.1104 1.05101 1.70151 17.8591
305 1 -1.1104 1.15186 1.63082 14.9585
314 2 2.2208 5.21266 3.10414 19.1878
320 1 -1.1104 3.73534 1.64073 17.6522
324 1 -1.1104 3.77969 1.74574 15.0328
327 2 2.2208 2.33819 3.06551 16.3785
374 2 2.2208 5.26469 5.76432 16.2758
376 1 -1.1104 0.889214 7.12059 18.0109
382 1 -1.1104 0.812722 4.42922 18.0506
387 1 -1.1104 0.963524 4.48741 15.222
395 1 -1.1104 3.83905 7.05552 17.8036
396 2 2.2208 2.38232 5.8435 19.2068
398 1 -1.1104 4.16282 7.31747 15
401 1 -1.1104 3.74157 4.32643 17.5697
403 1 -1.1104 3.72624 4.48497 14.8817
391 1 -1.1104 6.77678 4.24047 14.9802
309 1 -1.1104 6.75501 1.61334 14.9668
302 1 -1.1104 6.66613 1.53494 17.8882
380 1 -1.1104 6.89182 7.12199 14.8958
378 1 -1.1104 1.3263 7.18818 15.1787
384 1 -1.1104 6.85308 4.28681 17.7799
377 1 -1.1104 6.69874 7.17919 17.7422
310 1 -1.1104 6.48241 1.67657 20.774
325 1 -1.1104 3.81954 1.8816 20.4083
399 1 -1.1104 3.78612 7.34174 20.5497
379 1 -1.1104 0.817218 7.52239 20.7179
404 1 -1.1104 4.01676 4.77142 20.5833
381 1 -1.1104 6.87946 7.19258 20.4571
388 1 -1.1104 0.978343 4.37037 20.6608
9425 2 2.2208 -0.313206 14.3636 25.1719
9268 2 2.2208 -0.292339 14.3978 13.7044
343 1 -1.1104 12.3031 1.52808 18.0508
346 1 -1.1104 12.5225 1.41116 15.3216
350 2 2.2208 10.8734 3.11186 19.2891
354 1 -1.1104 9.51759 1.92815 18.0019
358 1 -1.1104 9.55689 1.53787 15.1843
361 2 2.2208 8.17275 2.91102 16.4158
410 2 2.2208 11.0749 5.85412 16.5788
412 1 -1.1104 12.4077 7.52088 17.8961
415 1 -1.1104 12.4145 4.62647 17.8152
418 1 -1.1104 12.5219 4.12874 14.9149
422 1 -1.1104 9.61885 7.24692 18.0372
423 2 2.2208 8.04549 5.6651 19.163
425 1 -1.1104 9.55243 7.17116 15.0414
428 1 -1.1104 9.63342 4.63711 17.9021
430 1 -1.1104 9.73695 4.34986 15.3024
413 1 -1.1104 12.2363 7.08263 14.8888
431 1 -1.1104 9.31653 4.47737 20.6788
414 1 -1.1104 12.4945 7.17706 20.8265
347 1 -1.1104 12.3198 1.69168 20.5734
426 1 -1.1104 9.45935 7.37279 20.78
359 1 -1.1104 9.38374 1.56471 20.7257
419 1 -1.1104 12.209 4.56729 20.6718
556 2 2.2208 7.70398 -2.48115 27.7259
375 2 2.2208 5.02547 11.5452 16.5051
383 1 -1.1104 0.973774 9.93196 17.8793
386 2 2.2208 5.24435 8.62533 19.3181
389 1 -1.1104 1.05379 10.1856 15.2534
397 2 2.2208 2.2868 11.5589 19.4235
400 2 2.2208 2.40677 8.5717 16.5731
402 1 -1.1104 3.65928 10.1015 17.6694
405 1 -1.1104 3.82194 9.99876 15.0085
438 1 -1.1104 0.749798 12.6496 18.1171
442 1 -1.1104 1.12041 12.823 15.3628
458 1 -1.1104 3.505 12.8422 17.9069
461 1 -1.1104 4.00775 12.9186 15.1132
440 1 -1.1104 6.37261 13.0234 17.937
385 1 -1.1104 6.81672 9.82823 17.8867
393 1 -1.1104 6.70406 10.0363 15.0973
446 1 -1.1104 6.74314 12.8375 14.938
462 1 -1.1104 3.6469 12.7341 20.7856
390 1 -1.1104 0.97871 10.2974 20.9685
394 1 -1.1104 6.52113 9.98469 20.9222
411 2 2.2208 10.7781 11.6693 16.7346
416 1 -1.1104 12.2291 10.2648 17.9632
417 2 2.2208 10.9943 8.79132 19.3734
420 1 -1.1104 12.4084 9.94272 15.1196
424 2 2.2208 7.99598 11.5645 19.1495
427 2 2.2208 8.24944 8.49704 16.6816
429 1 -1.1104 9.5079 10.2183 18.1188
432 1 -1.1104 9.45562 9.89069 15.1937
474 1 -1.1104 12.3255 13.1343 17.9715
476 1 -1.1104 12.3039 12.9465 15.2806
485 1 -1.1104 9.49276 12.942 17.7771
488 1 -1.1104 9.756 12.87 15.2064
9422 2 2.2208 -0.459075 17.2148 22.1262
498 2 2.2208 10.7904 14.2846 13.7059
433 1 -1.1104 9.33214 10.2125 20.7863
489 1 -1.1104 9.69927 12.9793 20.6786
421 1 -1.1104 12.2458 10.0697 20.8687
452 2 2.2208 4.89284 14.2538 19.3215
465 2 2.2208 2.39402 14.3682 16.6083
437 2 2.2208 5.31624 17.1384 16.4379
439 1 -1.1104 0.806957 18.5698 17.8705
444 1 -1.1104 0.923417 18.386 15.0255
450 1 -1.1104 0.946017 15.6946 17.9549
453 2 2.2208 5.36148 20.1165 19.2726
454 1 -1.1104 1.26397 15.6364 15.1228
459 1 -1.1104 3.75619 18.5615 18.002
460 2 2.2208 2.35819 17.2166 19.4354
463 1 -1.1104 3.87226 18.626 15.0338
466 2 2.2208 2.38216 19.9969 16.691
467 1 -1.1104 3.72679 15.7449 17.9023
468 1 -1.1104 3.82608 16.0007 15.1293
441 1 -1.1104 6.76394 18.4879 17.6871
448 1 -1.1104 6.67075 18.6265 15.0713
456 1 -1.1104 6.66257 15.6882 15.1565
451 1 -1.1104 6.65605 15.5173 18.0032
445 1 -1.1104 0.982081 18.6305 20.6944
455 1 -1.1104 0.972473 15.8463 20.6962
449 1 -1.1104 6.75131 18.7363 20.4961
464 1 -1.1104 3.74918 18.7068 20.6894
9419 2 2.2208 -0.606668 17.0883 16.6115
8569 2 2.2208 5.15545 -5.34031 27.8507
590 2 2.2208 5.33914 6.07978 27.649
492 2 2.2208 8.11786 14.3512 16.5202
481 2 2.2208 10.9439 14.4203 19.2801
473 2 2.2208 10.8595 17.0326 16.4877
475 1 -1.1104 12.2644 18.6089 18.1173
478 1 -1.1104 12.3733 18.4719 15.3402
480 1 -1.1104 12.4254 15.7545 17.8525
482 2 2.2208 10.6497 20.0066 19.4874
483 1 -1.1104 12.1747 15.6518 14.9653
486 1 -1.1104 9.37305 18.5665 18.0861
487 2 2.2208 7.97682 16.9728 19.2903
490 1 -1.1104 9.56691 18.6593 15.3845
493 2 2.2208 8.09761 19.9391 16.4882
494 1 -1.1104 9.45426 15.8192 17.8971
495 1 -1.1104 9.36667 15.719 15.121
9053 2 2.2208 13.5417 11.506 13.8219
9085 2 2.2208 -0.430815 11.4365 27.7884
479 1 -1.1104 12.4809 18.5729 20.8677
496 1 -1.1104 9.54552 15.5725 20.6128
9420 2 2.2208 13.5431 17.1082 24.7638
304 1 -1.1104 0.94712 -4.01877 20.7298
330 1 -1.1104 3.88139 -1.00304 20.6733
8446 2 2.2208 11.1639 -5.20538 22.1847
436 2 2.2208 8.17389 11.3682 13.8978
318 1 -1.1104 6.62713 -1.03395 20.8315
316 1 -1.1104 1.04707 -1.11175 20.4937
501 2 2.2208 5.192 0.213328 22.0981
502 1 -1.1104 0.999093 -3.92893 23.5722
506 1 -1.1104 0.973257 -3.90008 26.2927
510 1 -1.1104 1.0923 -1.23883 23.3125
512 2 2.2208 5.19643 -2.71839 24.8898
514 1 -1.1104 0.919457 -1.03702 26.3655
516 1 -1.1104 3.89272 -4.17016 23.5508
518 2 2.2208 2.33742 0.440454 24.9255
519 1 -1.1104 3.47154 -4.00198 26.5491
521 2 2.2208 2.3411 -2.59345 22.0323
523 1 -1.1104 3.91022 -1.36625 23.5054
524 1 -1.1104 3.5152 -1.38208 26.2509
504 1 -1.1104 6.90911 -3.95368 23.3703
508 1 -1.1104 6.4851 -4.0379 26.0937
515 1 -1.1104 6.46882 -1.17697 26.191
472 2 2.2208 5.3774 14.2219 13.7506
334 1 -1.1104 9.50717 15.7675 26.3206
352 1 -1.1104 12.4253 -1.29805 20.787
8712 2 2.2208 2.45006 -5.42947 19.2171
525 2 2.2208 5.08793 0.518914 27.5634
511 1 -1.1104 6.67728 -1.13253 23.5676
9435 2 2.2208 -0.437575 8.43924 24.9604
537 2 2.2208 10.9354 0.297299 22.1611
538 1 -1.1104 12.2213 -3.82962 23.5037
540 1 -1.1104 12.3371 -3.98234 26.4294
542 1 -1.1104 12.2161 -1.15228 23.5436
543 2 2.2208 10.8029 -2.58743 25.0478
545 1 -1.1104 12.2199 -1.21627 26.3367
546 1 -1.1104 9.41978 -3.78283 23.6973
548 2 2.2208 8.12574 0.228808 25.0377
549 1 -1.1104 9.4804 -3.92172 26.3957
551 2 2.2208 8.09337 -2.45278 22.0837
553 1 -1.1104 9.53124 -0.832107 23.4604
554 1 -1.1104 9.53058 -1.10151 26.373
8644 2 2.2208 8.27843 -5.19445 19.4626
8713 2 2.2208 5.37747 -5.19612 16.2835
392 1 -1.1104 6.62945 4.45511 20.8642
9430 2 2.2208 13.696 19.8878 22.1438
306 1 -1.1104 0.799633 1.59307 20.6662
503 1 -1.1104 0.711741 1.53355 23.6067
507 1 -1.1104 0.896395 1.85421 26.4136
513 2 2.2208 5.17522 2.95996 24.8018
517 1 -1.1104 3.6055 1.5076 23.3318
520 1 -1.1104 3.77667 1.72611 26.221
522 2 2.2208 2.48342 3.15283 21.8644
566 2 2.2208 5.339 5.84281 22.0783
568 1 -1.1104 0.939767 7.0698 23.5454
570 1 -1.1104 1.04687 7.14086 26.3927
572 1 -1.1104 1.17772 4.27081 23.6009
577 1 -1.1104 0.945709 4.38231 26.3567
581 1 -1.1104 3.85947 7.16248 23.4338
582 2 2.2208 2.38482 5.83511 24.9581
584 1 -1.1104 3.88731 7.40377 26.2597
586 1 -1.1104 4.02337 4.29484 23.2505
588 1 -1.1104 3.90446 4.45894 26.2224
509 1 -1.1104 6.65834 1.71303 26.3514
569 1 -1.1104 6.72879 7.2632 23.4245
571 1 -1.1104 6.75734 7.21035 26.1156
579 1 -1.1104 6.72525 4.47925 26.2552
574 1 -1.1104 6.67936 4.59877 23.6023
505 1 -1.1104 6.56322 1.64108 23.4698
9436 2 2.2208 -0.381959 11.6002 22.236
337 2 2.2208 2.411 14.4134 27.6473
9437 2 2.2208 13.6665 11.424 24.9962
9227 2 2.2208 13.3387 20.0523 16.7794
539 1 -1.1104 12.2368 1.7827 23.3455
541 1 -1.1104 12.3008 1.78603 26.3623
544 2 2.2208 10.8677 3.16223 24.867
547 1 -1.1104 9.2647 1.99546 23.7381
550 1 -1.1104 9.39981 1.53248 26.5112
552 2 2.2208 7.81466 3.02186 22.0672
598 1 -1.1104 9.60187 4.63841 26.5603
600 1 -1.1104 9.66967 4.82523 23.6081
602 1 -1.1104 9.53556 7.36597 26.6873
604 2 2.2208 8.22108 5.91091 25.019
605 2 2.2208 10.936 5.9684 22.1195
607 1 -1.1104 12.3974 7.1283 23.6172
608 1 -1.1104 12.4976 7.18017 26.3298
609 1 -1.1104 12.4168 4.56059 23.7879
612 1 -1.1104 12.117 4.57501 26.6302
614 1 -1.1104 9.56568 7.5258 23.7287
596 2 2.2208 7.97986 17.0613 25.0438
564 1 -1.1104 12.4173 15.5278 26.2906
447 1 -1.1104 6.76802 13.013 20.6459
443 1 -1.1104 0.892308 13.1223 21.0736
406 1 -1.1104 3.84522 10.0558 20.2746
567 2 2.2208 5.41579 11.5348 22.0956
573 1 -1.1104 1.17688 9.93496 23.6021
576 2 2.2208 5.37899 8.63095 24.9418
578 1 -1.1104 0.867665 10.133 26.3855
583 2 2.2208 2.47364 11.4972 24.9516
585 2 2.2208 2.35388 8.59467 22.2638
587 1 -1.1104 3.94112 10.0164 23.4277
589 1 -1.1104 3.96598 10.0889 26.365
532 1 -1.1104 3.99756 12.978 26.4968
619 1 -1.1104 1.12245 12.7959 23.8366
623 1 -1.1104 3.74185 13.1563 23.6356
627 1 -1.1104 1.07981 12.7558 26.4266
631 1 -1.1104 6.60615 12.9642 23.422
575 1 -1.1104 6.76721 10.1387 23.4198
580 1 -1.1104 6.7318 10.0026 26.0337
622 1 -1.1104 6.81352 12.863 26.2369
558 1 -1.1104 12.3752 15.7776 23.2821
9272 2 2.2208 -0.526129 0.306679 21.9239
534 1 -1.1104 12.0792 18.5079 23.5419
331 2 2.2208 8.18691 14.3339 22.1963
477 1 -1.1104 12.5647 12.8649 20.8382
561 1 -1.1104 9.5206 18.5852 26.6552
593 1 -1.1104 9.1821 18.4491 23.5484
533 1 -1.1104 12.1665 12.8829 23.4254
597 1 -1.1104 9.39067 10.1114 26.4483
599 1 -1.1104 9.71119 10.2772 23.7286
601 2 2.2208 7.99897 8.53504 22.0345
603 2 2.2208 8.14775 11.3901 24.9161
606 2 2.2208 10.9251 11.5033 22.1106
610 1 -1.1104 12.3668 9.90835 23.5199
611 2 2.2208 11.0541 8.6834 24.9204
613 1 -1.1104 12.2105 9.88072 26.4665
535 1 -1.1104 12.4326 12.7975 26.4807
560 1 -1.1104 9.54379 12.9744 26.3765
565 1 -1.1104 9.46241 12.9411 23.3775
536 1 -1.1104 12.1425 18.2454 26.2589
457 1 -1.1104 6.69174 15.8717 20.8621
367 2 2.2208 2.33557 14.5182 22.3635
469 1 -1.1104 3.78902 15.7718 20.5984
335 1 -1.1104 6.69195 18.5026 26.1816
624 1 -1.1104 6.7115 15.59 26.374
630 2 2.2208 5.41505 14.3166 25.013
368 2 2.2208 2.30584 19.9127 22.2609
369 1 -1.1104 3.69173 15.7773 23.5569
530 1 -1.1104 0.946626 15.7769 23.6045
559 1 -1.1104 3.82205 15.9892 26.2157
594 2 2.2208 2.43371 17.3237 24.8609
595 1 -1.1104 4.04015 18.6077 26.5077
618 2 2.2208 5.28189 17.1472 22.0752
620 1 -1.1104 0.913018 18.5168 23.4547
621 1 -1.1104 3.77015 18.6891 23.6426
625 1 -1.1104 1.1601 18.6736 26.3569
626 1 -1.1104 1.08163 15.7897 26.3493
629 2 2.2208 5.14206 20.0073 24.9481
531 1 -1.1104 6.64397 15.8212 23.6059
628 1 -1.1104 6.30723 18.6493 23.3635
434 2 2.2208 8.19296 5.68431 13.7254
491 1 -1.1104 9.41243 18.3285 20.7614
484 1 -1.1104 12.4257 15.7208 20.5973
562 2 2.2208 10.8943 14.3172 24.9677
529 2 2.2208 10.8607 17.0612 22.0351
333 1 -1.1104 9.42011 15.3872 23.7557
332 2 2.2208 8.06982 20.0809 22.1162
9121 2 2.2208 13.7588 0.110082 25.1356
592 2 2.2208 5.36725 11.4679 27.538
557 2 2.2208 8.092 3.15813 27.6804
9123 2 2.2208 -0.559016 2.94025 19.3049
527 2 2.2208 2.40014 3.10146 27.7611
17602 2 2.2208 -0.61979 -5.45785 22.1549
372 2 2.2208 10.7914 -2.67001 13.7763
408 2 2.2208 5.25692 8.71481 13.737
9269 2 2.2208 -0.345709 19.7543 13.6934
9421 2 2.2208 13.6393 14.2324 27.8561
409 2 2.2208 2.3598 11.4524 13.8745
339 2 2.2208 2.70415 0.170897 13.6848
336 2 2.2208 -0.352004 -2.5933 13.6869
499 2 2.2208 8.08208 17.1576 13.9251
632 2 2.2208 5.35076 22.6378 5.29937
634 1 -1.1104 0.944455 24.3155 0.804497
635 1 -1.1104 0.846034 24.2382 3.45774
636 1 -1.1104 1.20533 21.4102 1.09807
638 2 2.2208 5.3119 25.475 2.52329
639 1 -1.1104 1.00228 21.4628 3.85244
641 1 -1.1104 3.79538 24.1094 0.934388
642 2 2.2208 2.50671 22.7763 2.52142
644 1 -1.1104 3.85728 24.1761 4.00292
645 2 2.2208 2.44552 25.5263 5.23905
646 1 -1.1104 3.97652 21.4935 1.07465
648 1 -1.1104 3.8528 21.5704 3.96925
653 1 -1.1104 6.52563 24.19 1.08671
655 1 -1.1104 6.79908 21.2774 0.935275
657 1 -1.1104 6.65316 21.2056 3.73724
649 1 -1.1104 3.8634 27.0187 3.98473
658 1 -1.1104 6.60625 26.9745 3.94368
637 1 -1.1104 1.02093 27.1953 0.960612
654 1 -1.1104 6.89173 23.9116 3.89954
647 1 -1.1104 3.92737 26.787 1.10438
656 1 -1.1104 6.78565 26.9686 1.15818
776 1 -1.1104 1.07024 26.8274 6.58943
781 1 -1.1104 3.86209 27.0069 6.57379
773 1 -1.1104 1.09194 24.0422 6.584
993 2 2.2208 10.7323 39.8772 -0.224254
659 2 2.2208 10.8405 22.519 5.27132
661 1 -1.1104 12.1959 24.0901 1.2081
662 1 -1.1104 12.2263 24.1258 3.96326
663 1 -1.1104 12.3395 21.1503 1.03384
665 2 2.2208 10.6157 25.5048 2.47003
666 1 -1.1104 12.2329 20.9611 3.64138
668 1 -1.1104 9.46693 24.0163 1.10412
669 2 2.2208 8.18997 22.6106 2.4003
671 1 -1.1104 9.49852 24.2632 4.25117
672 2 2.2208 8.03475 25.4258 5.27807
673 1 -1.1104 9.55713 21.3371 0.872131
675 1 -1.1104 9.6947 21.1456 3.83298
676 1 -1.1104 9.41381 26.9454 3.88075
806 1 -1.1104 12.4898 24.1106 6.75759
664 1 -1.1104 12.0826 26.8862 0.902435
9746 2 2.2208 -0.280641 22.7798 5.20525
674 1 -1.1104 9.28914 26.9972 0.845462
667 1 -1.1104 12.4329 27.0228 3.84661
810 1 -1.1104 9.42679 21.0615 6.74287
809 1 -1.1104 9.67794 23.8451 6.61956
811 1 -1.1104 9.57724 26.8016 6.69342
9747 2 2.2208 13.7316 22.7811 2.46713
9685 2 2.2208 13.8244 42.6142 5.43092
807 1 -1.1104 12.132 21.2104 6.52433
9750 2 2.2208 -0.510309 31.2149 2.39135
640 1 -1.1104 0.997326 26.8632 3.9503
633 2 2.2208 5.151 28.4346 5.20572
643 2 2.2208 2.44126 28.3554 2.3901
681 1 -1.1104 0.862244 29.9427 0.952904
684 1 -1.1104 1.01835 29.8273 3.73623
687 1 -1.1104 0.96938 32.7426 1.05231
688 2 2.2208 5.20958 31.3654 2.26365
690 1 -1.1104 0.877706 32.7654 3.77172
692 1 -1.1104 3.87596 29.9124 0.970502
695 1 -1.1104 3.81773 29.743 3.78653
697 2 2.2208 2.36671 31.1151 4.97679
699 1 -1.1104 3.89624 32.801 0.759623
700 1 -1.1104 3.74972 32.7243 3.63418
705 1 -1.1104 6.69717 29.826 3.751
704 1 -1.1104 6.62367 29.7511 0.90375
706 1 -1.1104 6.76507 32.5395 1.06576
830 1 -1.1104 1.01671 32.5048 6.51793
691 1 -1.1104 6.54329 32.5742 3.78588
834 1 -1.1104 3.82871 32.55 6.49914
9590 3 0 13.6826 26.6709 10.1538
1202 2 2.2208 5.34317 34.1845 -0.333614
660 2 2.2208 10.7873 28.2872 5.05813
670 2 2.2208 8.09354 28.2851 2.49455
708 1 -1.1104 12.1561 29.9541 0.861445
710 1 -1.1104 12.2992 29.8544 3.56462
712 1 -1.1104 12.1294 32.8732 1.00777
713 2 2.2208 10.6606 31.2037 2.338
715 1 -1.1104 12.3065 32.6866 3.83108
716 1 -1.1104 9.44342 29.7081 1.08276
719 1 -1.1104 9.53604 29.6932 3.70379
721 2 2.2208 7.9432 31.1985 5.10386
723 1 -1.1104 9.44249 32.5445 1.08021
724 1 -1.1104 9.40878 32.5971 3.76704
860 1 -1.1104 12.3229 29.8829 6.19841
1470 1 -1.1104 3.74695 46.6578 6.58774
862 1 -1.1104 12.0463 32.6945 6.51297
863 1 -1.1104 9.35537 29.7928 6.32422
926 2 2.2208 -0.430882 37.0684 2.34477
921 2 2.2208 7.87842 42.5985 10.9734
694 2 2.2208 2.33747 34.148 2.34038
680 2 2.2208 5.2997 33.9706 5.26866
682 1 -1.1104 0.726772 35.6744 0.741247
685 1 -1.1104 1.06258 35.5077 3.68221
689 2 2.2208 5.07214 36.776 2.59656
693 1 -1.1104 3.80328 35.4292 0.920535
696 1 -1.1104 3.77428 35.5081 3.76662
698 2 2.2208 2.31189 36.8123 5.17084
726 2 2.2208 5.28995 39.7304 5.55302
732 1 -1.1104 1.30207 38.4318 1.11964
737 1 -1.1104 1.00205 38.438 3.78221