ITEM: TIMESTEP
70000
ITEM: NUMBER OF ATOMS
17760
ITEM: BOX BOUNDS pp pp pp
-4.5858283653723692e-01 2.7798582836537260e+01
-5.4076715758315732e+00 3.3348767157584621e+02
-4.6163819947480667e-01 2.7801638199474247e+01
ITEM: ATOMS id type q x y z
1 2 2.2208 4.80324 0.260508 5.15028
2 1 -1.1104 0.685667 -3.89395 0.861364
6 1 -1.1104 0.422826 -4.14103 3.66295
10 1 -1.1104 0.87643 -1.27699 0.796924
12 2 2.2208 4.83811 -2.72243 2.35701
14 1 -1.1104 0.802757 -1.15757 3.57829
16 1 -1.1104 3.45293 -4.05563 1.01459
18 2 2.2208 2.10416 0.0812065 2.23785
19 1 -1.1104 3.29849 -3.9794 3.69246
21 2 2.2208 2.17701 -2.83275 5.33642
23 1 -1.1104 3.47402 -1.15133 0.796508
24 1 -1.1104 3.58405 -1.1758 3.67957
4 1 -1.1104 6.21514 -4.02596 0.928211
11 1 -1.1104 6.33692 -1.43755 0.961731
8 1 -1.1104 6.24433 -3.93064 3.88066
171 1 -1.1104 6.33967 -1.14571 6.55062
15 1 -1.1104 6.34086 -0.970074 3.96517
174 1 -1.1104 3.50884 -1.32301 6.65298
172 1 -1.1104 3.57549 -3.97947 6.71615
166 1 -1.1104 0.804246 -4.08614 6.65219
17350 2 2.2208 13.3525 -5.21515 7.90073
8337 2 2.2208 1.97074 -5.41777 2.31921
31 2 2.2208 10.4243 0.345608 5.43853
32 1 -1.1104 11.9118 -3.98945 0.959357
34 1 -1.1104 11.7208 -4.01349 3.67104
36 1 -1.1104 12.0764 -0.886809 0.995475
37 2 2.2208 10.7231 -2.37771 2.21968
39 1 -1.1104 11.9224 -1.08729 3.65124
40 1 -1.1104 9.06317 -3.68113 0.875624
42 2 2.2208 7.58645 0.243935 2.52305
43 1 -1.1104 8.92911 -4.09654 3.74661
45 2 2.2208 7.75718 -2.47744 5.24985
47 1 -1.1104 9.14646 -1.01876 0.8788
48 1 -1.1104 9.22572 -0.899245 3.74186
9044 2 2.2208 13.2437 -2.3963 5.12234
208 1 -1.1104 9.04189 -4.00911 6.49961
210 1 -1.1104 8.97823 -1.21555 6.74349
207 1 -1.1104 11.778 -0.967556 6.82899
9043 2 2.2208 13.4297 0.411207 2.44915
525 2 2.2208 4.85697 -0.0103193 -0.458264
205 1 -1.1104 11.7114 -3.93906 6.59268
9270 2 2.2208 13.4154 -2.42637 -0.332027
8639 2 2.2208 7.71251 -5.29826 13.6413
3 1 -1.1104 0.959655 1.52542 0.965336
7 1 -1.1104 0.512908 1.61361 3.86312
13 2 2.2208 4.80118 2.99813 2.39674
17 1 -1.1104 3.50196 1.5596 0.966314
20 1 -1.1104 3.44184 1.70234 3.89959
22 2 2.2208 2.04526 3.04019 5.23528
54 2 2.2208 4.71608 5.93958 5.27624
60 1 -1.1104 0.616702 4.34128 0.890303
67 1 -1.1104 0.495001 4.22553 3.7966
72 2 2.2208 2.01433 5.6938 2.27645
76 1 -1.1104 3.35456 4.46313 1.09705
79 1 -1.1104 3.39981 4.31953 3.99387
71 1 -1.1104 3.56415 7.22517 0.982344
5 1 -1.1104 6.23376 1.52278 0.794077
57 1 -1.1104 6.32586 7.1268 0.887341
9 1 -1.1104 6.09783 1.54246 3.86936
59 1 -1.1104 6.38571 7.24977 3.74602
63 1 -1.1104 6.03438 4.2421 0.911353
69 1 -1.1104 6.18601 4.35779 3.63921
169 1 -1.1104 6.2706 1.68397 6.51738
235 1 -1.1104 6.15637 7.25851 6.69205
167 1 -1.1104 0.621255 1.48301 6.47076
236 1 -1.1104 0.712916 4.4059 6.58662
173 1 -1.1104 3.46465 1.37001 6.64507
340 2 2.2208 4.88175 2.94319 13.7366
9000 2 2.2208 13.2436 19.8254 10.625
33 1 -1.1104 12.1302 1.94672 1.25269
35 1 -1.1104 12.1953 1.61449 3.95722
38 2 2.2208 10.5834 3.04644 2.38114
41 1 -1.1104 9.22975 1.77024 1.013
44 1 -1.1104 9.18504 1.54859 3.64301
46 2 2.2208 7.60039 3.07004 5.32118
84 2 2.2208 10.4574 5.98836 5.26893
86 1 -1.1104 11.8294 7.18109 0.86509
87 1 -1.1104 11.7604 7.17452 3.63128
88 1 -1.1104 11.6749 4.46703 0.880038
92 1 -1.1104 11.7636 4.397 3.78092
95 2 2.2208 7.70544 5.7213 2.38479
99 1 -1.1104 8.92352 4.48391 0.913289
102 1 -1.1104 9.05981 4.2534 3.90191
97 1 -1.1104 9.13191 6.92313 3.87252
266 1 -1.1104 11.883 4.3675 6.70143
8738 2 2.2208 13.325 3.06501 5.29081
265 1 -1.1104 11.9004 7.18503 6.66209
9050 2 2.2208 13.141 5.88271 2.34063
269 1 -1.1104 9.28916 4.73293 6.63504
94 1 -1.1104 9.13989 7.10804 1.03846
206 1 -1.1104 11.8118 1.73877 6.63948
373 2 2.2208 10.5555 3.05226 13.6487
56 1 -1.1104 0.764192 7.20557 0.833617
74 1 -1.1104 3.56124 7.0896 3.74027
58 1 -1.1104 0.733185 7.1888 3.64144
55 2 2.2208 4.981 11.5586 4.9591
61 1 -1.1104 0.652881 10.1064 0.960025
66 2 2.2208 4.96093 8.5411 2.27897
68 1 -1.1104 0.739179 9.9958 3.63418
73 2 2.2208 2.14731 11.462 2.26423
75 2 2.2208 2.1524 8.68994 5.0292
77 1 -1.1104 3.56487 9.9326 0.733439
80 1 -1.1104 3.75362 10.1684 3.42413
107 1 -1.1104 0.51328 12.9258 0.739855
113 1 -1.1104 0.583128 12.8738 3.6365
123 1 -1.1104 3.46515 12.7487 0.736838
128 1 -1.1104 3.49577 12.9734 3.66492
70 1 -1.1104 6.4652 10.0939 3.85961
115 1 -1.1104 6.3853 12.715 3.57369
110 1 -1.1104 6.20478 12.87 0.725488
111 1 -1.1104 6.2396 12.9218 6.32514
64 1 -1.1104 6.33019 10.0719 1.03212
497 2 2.2208 10.3443 19.753 13.6316
8767 2 2.2208 13.454 8.62532 4.96363
9049 2 2.2208 13.5029 11.6681 2.29462
85 2 2.2208 10.5211 11.2954 5.04903
89 1 -1.1104 12.0726 10.1989 0.859255
91 2 2.2208 10.52 8.59683 2.35095
93 1 -1.1104 11.9039 10.0876 3.5408
96 2 2.2208 7.68367 11.4817 2.35825
98 2 2.2208 7.65009 8.61023 5.18372
100 1 -1.1104 9.28131 10.0602 0.882764
103 1 -1.1104 9.04696 9.66413 3.63775
142 1 -1.1104 11.9886 12.9595 0.961324
146 1 -1.1104 11.8542 12.9616 3.86557
153 1 -1.1104 8.95175 12.9266 0.832779
158 1 -1.1104 9.2607 12.7065 3.53277
101 1 -1.1104 9.13908 10.0456 6.52699
435 2 2.2208 10.6417 8.70406 13.6108
119 2 2.2208 4.95671 14.2004 2.22158
130 2 2.2208 1.95174 14.3385 4.91754
106 2 2.2208 5.01104 17.1678 5.31218
109 1 -1.1104 0.707095 18.2868 0.734097
114 1 -1.1104 0.659547 18.4865 3.80756
116 1 -1.1104 0.407911 15.5527 0.780338
120 2 2.2208 4.83782 19.9248 2.47839
121 1 -1.1104 0.53489 15.6578 3.69917
125 1 -1.1104 3.54237 18.5852 1.24095
127 2 2.2208 1.95549 16.941 2.2503
129 1 -1.1104 3.32425 18.5363 3.75934
131 2 2.2208 2.06271 20.0103 5.23343
132 1 -1.1104 3.38932 15.6583 0.96876
134 1 -1.1104 3.43419 15.7901 3.78578
140 1 -1.1104 6.35445 15.6671 0.990766
122 1 -1.1104 6.28638 15.5942 3.80728
138 1 -1.1104 6.27807 18.6236 1.02183
139 1 -1.1104 6.33217 18.3231 3.73948
118 1 -1.1104 6.23097 15.5001 6.68008
126 1 -1.1104 3.50976 18.702 6.52288
8339 2 2.2208 7.67172 -5.44892 2.32696
117 1 -1.1104 0.603536 15.7743 6.66433
133 1 -1.1104 3.47712 15.8634 6.52344
8934 2 2.2208 13.5723 17.1578 2.29555
150 2 2.2208 10.6009 14.3502 2.16817
160 2 2.2208 7.88413 14.0898 5.10768
141 2 2.2208 10.6929 17.0825 4.98186
144 1 -1.1104 11.9921 18.4241 1.035
147 1 -1.1104 11.9664 18.5297 3.92186
148 1 -1.1104 11.8533 15.6198 0.708469
151 2 2.2208 10.5508 19.8638 2.49447
152 1 -1.1104 12.1439 15.8842 3.53614
155 1 -1.1104 9.13431 18.5099 1.12043
157 2 2.2208 7.64 17.0982 2.22069
159 1 -1.1104 9.13375 18.3845 3.83443
161 2 2.2208 7.97324 19.8645 5.19722
162 1 -1.1104 9.25684 15.7013 0.775175
164 1 -1.1104 9.14264 15.5315 3.4455
8836 2 2.2208 13.4813 14.3345 4.90111
145 1 -1.1104 12.0786 18.3027 6.54765
156 1 -1.1104 9.10742 18.2774 6.51512
149 1 -1.1104 12.1129 15.4642 6.44174
8815 2 2.2208 13.5156 19.9335 5.34506
199 2 2.2208 7.64213 19.6736 10.6538
168 1 -1.1104 6.3291 -4.25349 6.62907
170 1 -1.1104 0.69892 -1.36122 6.57606
163 1 -1.1104 8.9882 15.5759 6.46615
9053 2 2.2208 13.2697 11.4986 13.5533
175 2 2.2208 4.91234 0.137978 11.0449
176 1 -1.1104 0.876705 -3.97301 12.2727
180 1 -1.1104 0.521799 -4.14445 9.27888
184 1 -1.1104 0.441201 -1.29319 12.4464
186 2 2.2208 4.86498 -2.69723 8.04973
188 1 -1.1104 0.611101 -1.14327 9.62693
190 1 -1.1104 3.6021 -3.90128 12.47
192 2 2.2208 2.14131 0.188153 8.06077
193 1 -1.1104 3.54959 -4.14586 9.57724
195 2 2.2208 2.18811 -2.72195 10.8444
197 1 -1.1104 3.45658 -1.18532 12.2958
198 1 -1.1104 3.35432 -1.34231 9.41113
182 1 -1.1104 6.19128 -3.97281 9.48566
189 1 -1.1104 6.17676 -1.20046 9.62637
178 1 -1.1104 6.31666 -3.94778 12.0587
8345 2 2.2208 10.4835 -5.31561 10.8892
185 1 -1.1104 6.44858 -1.15547 12.5535
17351 2 2.2208 13.2311 -5.35704 2.17764
498 2 2.2208 10.6505 14.1225 13.7198
8898 2 2.2208 13.2413 0.328374 8.03483
211 2 2.2208 10.4718 0.0695717 10.839
212 1 -1.1104 12.0395 -3.95715 12.1972
214 1 -1.1104 11.7938 -4.02307 9.55654
216 1 -1.1104 12.1317 -1.33144 12.2931
217 2 2.2208 10.43 -2.73243 8.04142
219 1 -1.1104 11.8297 -1.13722 9.47403
220 1 -1.1104 9.17275 -3.94406 12.5588
222 2 2.2208 7.67221 0.205764 8.03139
223 1 -1.1104 8.99376 -4.06542 9.34612
225 2 2.2208 7.68705 -2.62126 10.7732
227 1 -1.1104 9.29578 -1.29055 12.4398
228 1 -1.1104 9.00956 -1.21626 9.41568
8766 2 2.2208 13.3621 -2.66521 10.8459
165 2 2.2208 7.71667 14.3042 10.7896
234 1 -1.1104 0.584617 7.17341 6.4784
8341 2 2.2208 2.1531 -5.38966 7.98975
239 1 -1.1104 3.42142 4.47243 6.78443
237 1 -1.1104 6.06752 4.54594 6.70098
177 1 -1.1104 0.456333 1.43169 12.4864
181 1 -1.1104 0.562116 1.63598 9.59615
187 2 2.2208 4.85461 3.10349 8.0877
191 1 -1.1104 3.46913 1.53458 12.3563
194 1 -1.1104 3.48487 1.70969 9.65187
196 2 2.2208 2.12258 2.99726 10.9949
240 2 2.2208 4.91913 5.80634 10.7908
242 1 -1.1104 0.550976 7.18545 12.2377
246 1 -1.1104 0.60602 4.43833 12.2576
251 1 -1.1104 0.656493 4.34868 9.60697
255 1 -1.1104 3.4118 7.18828 12.0867
256 2 2.2208 1.9834 5.85407 8.18276
260 1 -1.1104 3.49283 4.55609 12.3231
262 1 -1.1104 3.48185 4.39288 9.3883
258 1 -1.1104 3.34304 7.39497 9.30218
244 1 -1.1104 0.506158 7.32969 9.31264
179 1 -1.1104 6.20917 1.5953 12.3459
245 1 -1.1104 6.19299 7.33854 9.42686
253 1 -1.1104 6.24207 4.53984 9.54884
183 1 -1.1104 6.39552 1.66528 9.43432
243 1 -1.1104 6.0761 7.30417 12.4526
9039 2 2.2208 13.3402 17.1066 8.05692
248 1 -1.1104 6.33348 4.48512 12.4209
209 1 -1.1104 8.77743 1.69917 6.74352
267 1 -1.1104 8.93006 7.2288 6.68487
8338 2 2.2208 4.87011 -5.30349 5.20169
27 1 -1.1104 11.9868 18.4664 12.0234
8949 2 2.2208 13.3461 5.98312 8.03542
213 1 -1.1104 11.8929 1.59003 12.3047
215 1 -1.1104 11.7947 1.60976 9.4409
218 2 2.2208 10.482 3.08043 8.09524
221 1 -1.1104 9.06323 1.48818 12.4464
224 1 -1.1104 9.16109 1.61868 9.4477
226 2 2.2208 7.73359 3.10892 10.9362
268 1 -1.1104 9.11964 4.43269 9.42477
271 1 -1.1104 9.11313 4.32809 12.2441
275 2 2.2208 7.61613 5.96391 7.93068
276 2 2.2208 10.5165 5.95869 11.0428
278 1 -1.1104 12.049 7.32306 12.277
280 1 -1.1104 11.7534 4.23068 12.3371
283 1 -1.1104 11.8069 4.6304 9.73985
285 1 -1.1104 9.1671 7.39526 12.4128
279 1 -1.1104 12.0044 7.21891 9.49051
273 1 -1.1104 9.03443 7.27347 9.52083
50 1 -1.1104 11.835 15.5485 12.2621
526 2 2.2208 1.99112 -2.69913 -0.497826
238 1 -1.1104 3.25361 7.13557 6.39814
62 1 -1.1104 0.816904 10.0142 6.3163
65 1 -1.1104 6.43278 10.0618 6.66649
108 1 -1.1104 0.739332 12.7881 6.35427
78 1 -1.1104 3.63338 10.1357 6.55552
124 1 -1.1104 3.42703 13.1618 6.66489
241 2 2.2208 4.85168 11.4965 10.97
247 1 -1.1104 0.572175 10.1025 12.4131
250 2 2.2208 4.85115 8.8115 8.04866
252 1 -1.1104 0.415682 10.2241 9.43914
257 2 2.2208 1.97253 11.7213 8.00611
259 2 2.2208 1.9195 8.52674 10.8586
261 1 -1.1104 3.34951 10.0557 11.9904
263 1 -1.1104 3.44903 10.2005 9.32439
136 1 -1.1104 0.592618 12.939 12.1912
202 1 -1.1104 3.39464 13.0935 9.45503
287 1 -1.1104 3.33167 13.017 12.2693
294 1 -1.1104 0.757408 13.0794 9.29295
297 1 -1.1104 6.32504 12.7853 12.0029
249 1 -1.1104 6.33774 10.009 12.3276
254 1 -1.1104 6.28976 9.94406 9.27959
290 1 -1.1104 6.08759 12.6526 9.25171
154 1 -1.1104 9.18251 12.7122 6.41691
143 1 -1.1104 12.0282 12.5547 6.36505
8873 2 2.2208 13.2928 2.9287 10.9394
9426 2 2.2208 13.2975 20.0022 -0.470335
8950 2 2.2208 13.3511 11.4505 7.95676
90 1 -1.1104 11.9692 9.92294 6.53298
135 1 -1.1104 9.12302 12.8493 9.21551
264 1 -1.1104 8.99116 9.97655 9.38682
270 1 -1.1104 9.13345 10.0874 12.1661
272 2 2.2208 7.6909 8.66662 10.7333
274 2 2.2208 7.58016 11.5112 7.96979
277 2 2.2208 10.5602 11.3974 10.802
281 1 -1.1104 11.9251 10.1488 12.2329
282 2 2.2208 10.4042 8.67053 8.00213
284 1 -1.1104 11.7127 9.84259 9.48399
83 1 -1.1104 9.29854 12.8508 11.9937
26 1 -1.1104 11.9537 12.8809 12.1603
30 1 -1.1104 11.9055 12.8565 9.47429
8954 2 2.2208 13.2965 8.652 10.6481
8340 2 2.2208 10.3431 -5.36727 5.18367
231 1 -1.1104 0.662377 18.4249 6.55426
9038 2 2.2208 13.4362 14.2069 10.6719
289 1 -1.1104 6.50315 15.6752 9.46994
296 1 -1.1104 6.27778 18.3051 12.0207
293 2 2.2208 4.95725 20.1004 7.7896
295 2 2.2208 4.84727 14.3406 8.09745
230 2 2.2208 1.85495 14.3896 10.7059
28 2 2.2208 2.12086 19.8322 10.8837
29 1 -1.1104 3.26245 15.8215 12.0078
51 1 -1.1104 0.471622 15.6217 12.125
200 1 -1.1104 0.526354 18.5829 12.3489
203 1 -1.1104 3.58119 15.969 9.41549
204 2 2.2208 2.09077 17.0591 7.80017
232 1 -1.1104 3.62101 18.7247 9.28897
233 2 2.2208 4.76599 17.0855 10.7396
286 1 -1.1104 3.6233 18.4465 12.4427
291 1 -1.1104 0.706651 18.6009 9.38744
292 1 -1.1104 0.59833 15.8323 9.33871
288 1 -1.1104 6.24023 18.5054 9.32217
52 1 -1.1104 6.23458 15.4832 12.1242
409 2 2.2208 1.93889 11.4101 13.5527
53 2 2.2208 10.675 14.1133 7.88519
229 1 -1.1104 9.37272 15.5772 9.28399
112 1 -1.1104 6.36 18.6643 6.62455
81 2 2.2208 10.4789 19.8241 7.84462
82 1 -1.1104 11.9492 15.741 9.58196
49 1 -1.1104 12.0295 18.4983 9.18578
104 1 -1.1104 9.14478 18.2798 12.3017
137 1 -1.1104 9.02176 18.3959 9.26496
25 2 2.2208 10.5173 16.8656 10.7895
470 2 2.2208 2.02181 17.0432 13.49
105 2 2.2208 7.68375 17.1305 7.90092
201 1 -1.1104 9.11701 15.5681 12.4315
339 2 2.2208 1.86687 0.0558171 13.6021
472 2 2.2208 4.74796 14.4081 13.581
471 2 2.2208 4.95733 19.9388 13.6942
436 2 2.2208 7.74574 11.2127 13.6893
407 2 2.2208 1.91144 5.84299 13.573
371 2 2.2208 7.83154 0.0120984 13.6571
617 2 2.2208 10.7261 11.4057 -0.315525
616 2 2.2208 7.65463 8.58538 -0.226401
408 2 2.2208 4.77134 8.6888 13.5904
9120 2 2.2208 13.3809 2.97618 -0.392897
298 2 2.2208 4.82836 0.334017 16.4461
299 1 -1.1104 0.440012 -4.03911 18.0735
303 1 -1.1104 0.896854 -4.0105 15.3764
311 1 -1.1104 0.679628 -1.24096 17.9211
313 2 2.2208 4.7408 -2.53919 19.1894
315 1 -1.1104 0.63088 -1.16975 15.2684
319 1 -1.1104 3.49123 -4.06583 17.9486
321 2 2.2208 1.89468 0.261455 19.265
322 1 -1.1104 3.53064 -4.06869 15.1545
326 2 2.2208 2.26023 -2.54539 16.5397
328 1 -1.1104 3.52529 -1.15226 17.7493
329 1 -1.1104 3.6646 -1.19594 14.8967
323 1 -1.1104 3.51077 -4.03963 20.6952
312 1 -1.1104 6.23372 -1.21541 17.9165
307 1 -1.1104 6.37525 -3.96232 15.0553
317 1 -1.1104 6.35505 -0.976452 15.3526
301 1 -1.1104 6.40161 -4.05793 17.9526
318 1 -1.1104 6.25569 -1.05009 20.8994
308 1 -1.1104 6.31493 -3.88771 20.6698
528 2 2.2208 7.75528 20.0037 27.7658
370 2 2.2208 7.70885 14.1401 27.7079
9414 2 2.2208 13.4059 -2.70512 16.5457
341 2 2.2208 10.5878 0.258816 16.5545
342 1 -1.1104 12.1058 -4.09391 17.8274
344 1 -1.1104 12.1385 -3.93191 14.9806
348 1 -1.1104 11.937 -0.869698 18.2705
349 2 2.2208 10.5428 -2.58412 19.2176
351 1 -1.1104 12.101 -1.35599 15.3345
353 1 -1.1104 9.25295 -4.13147 17.9863
355 2 2.2208 7.65517 0.261011 19.34
356 1 -1.1104 9.24791 -4.08172 15.1623
360 2 2.2208 7.76485 -2.49894 16.5485
362 1 -1.1104 9.01697 -1.13846 17.7431
363 1 -1.1104 9.14416 -1.26861 15.2159
9086 2 2.2208 13.4426 0.43677 19.4612
364 1 -1.1104 8.99713 -1.15184 20.6881
8498 2 2.2208 2.10464 -5.36164 24.922
557 2 2.2208 7.64052 2.77445 27.847
8446 2 2.2208 10.7889 -5.35391 22.0958
8501 2 2.2208 4.83951 -5.37267 22.0376
8644 2 2.2208 7.75903 -5.46268 19.2704
332 2 2.2208 7.69925 19.9346 22.0147
8712 2 2.2208 2.06984 -5.32325 19.2284
300 1 -1.1104 0.492524 1.63407 18.1006
305 1 -1.1104 0.617661 1.37046 15.2639
314 2 2.2208 4.66858 3.02373 19.3032
320 1 -1.1104 3.37315 1.66433 17.9887
324 1 -1.1104 3.56307 1.58972 15.2195
327 2 2.2208 1.8311 2.94858 16.5057
374 2 2.2208 4.86372 5.67667 16.6415
382 1 -1.1104 0.587098 4.38841 18.0628
387 1 -1.1104 0.501204 4.12409 15.1886
395 1 -1.1104 3.57238 7.20668 18.1015
396 2 2.2208 1.80504 5.88544 19.256
398 1 -1.1104 3.16063 7.5189 14.8266
401 1 -1.1104 3.59578 4.36198 17.9401
403 1 -1.1104 3.31783 4.65137 14.8846
376 1 -1.1104 0.761491 7.38625 17.9963
309 1 -1.1104 6.18049 1.71089 15.1293
377 1 -1.1104 6.20435 7.32604 17.8514
384 1 -1.1104 6.43226 4.49979 17.9202
399 1 -1.1104 3.27877 7.1595 20.9454
302 1 -1.1104 6.37776 1.73401 17.9734
380 1 -1.1104 6.25353 7.14372 15.109
391 1 -1.1104 5.96847 4.49025 15.2427
306 1 -1.1104 0.609918 1.89211 21.0074
404 1 -1.1104 3.17247 4.38783 20.656
310 1 -1.1104 6.13442 1.55105 20.797
381 1 -1.1104 6.33614 7.23785 20.4876
378 1 -1.1104 0.582963 6.91679 15.1964
9080 2 2.2208 13.4295 2.89052 16.3416
343 1 -1.1104 12.1091 1.92904 18.1166
346 1 -1.1104 12.033 1.42883 15.1284
350 2 2.2208 10.6032 3.32444 19.312
354 1 -1.1104 9.24461 1.61962 17.9088
358 1 -1.1104 9.12154 1.76081 15.316
361 2 2.2208 7.62317 3.00748 16.4263
410 2 2.2208 10.4038 5.6807 16.3563
415 1 -1.1104 11.9715 4.56243 17.7069
418 1 -1.1104 11.8161 4.25115 15.1829
423 2 2.2208 7.53459 5.83178 19.2649
425 1 -1.1104 9.02462 7.19639 15.044
428 1 -1.1104 8.97105 4.41495 17.9554
430 1 -1.1104 8.9818 4.38894 14.9188
413 1 -1.1104 11.742 7.18912 15.0002
412 1 -1.1104 11.8173 7.45639 17.8312
422 1 -1.1104 9.04768 7.36534 17.8471
9433 2 2.2208 13.1208 5.7552 19.1883
419 1 -1.1104 11.9324 4.53335 20.8181
426 1 -1.1104 9.17444 7.45059 20.7147
9302 2 2.2208 13.272 17.1884 13.755
375 2 2.2208 4.80102 11.5706 16.3443
383 1 -1.1104 0.723532 9.96058 17.8514
386 2 2.2208 4.8332 8.69152 19.2605
389 1 -1.1104 0.565309 9.88819 15.2543
397 2 2.2208 2.048 11.4106 19.2769
400 2 2.2208 2.11827 8.66608 16.4648
402 1 -1.1104 3.66958 9.87267 17.9659
405 1 -1.1104 3.2477 10.2315 14.8388
438 1 -1.1104 0.531675 12.8314 18.0677
442 1 -1.1104 0.632313 12.8426 14.9702
458 1 -1.1104 3.26469 12.759 17.714
461 1 -1.1104 3.49607 13.1925 15.2024
393 1 -1.1104 6.04354 10.0342 14.8962
385 1 -1.1104 6.18264 10.0942 17.5177
446 1 -1.1104 6.40883 12.8209 14.9159
440 1 -1.1104 5.96392 13.1359 17.7056
462 1 -1.1104 3.31075 12.8598 20.6853
390 1 -1.1104 0.42383 10.3122 20.583
394 1 -1.1104 6.2495 10.1073 20.6125
406 1 -1.1104 3.20841 10.088 20.9926
9432 2 2.2208 13.1855 11.5198 19.2639
411 2 2.2208 10.3887 11.3226 16.2974
416 1 -1.1104 11.8815 10.3009 17.761
417 2 2.2208 10.2309 8.69372 19.2517
420 1 -1.1104 11.7756 9.92596 14.9113
424 2 2.2208 7.66026 11.5613 19.1917
427 2 2.2208 7.53409 8.70539 16.342
429 1 -1.1104 8.99827 9.97172 17.7771
432 1 -1.1104 8.92204 9.81573 14.9948
474 1 -1.1104 11.4288 13.1537 17.7235
476 1 -1.1104 12.0309 12.8122 15.034
485 1 -1.1104 9.07253 12.6845 17.6749
488 1 -1.1104 9.14281 12.7101 14.8604
9434 2 2.2208 13.1943 8.6424 16.463
421 1 -1.1104 11.876 10.2005 20.5493
489 1 -1.1104 9.20411 12.7877 20.452
433 1 -1.1104 9.03838 10.0936 20.6252
477 1 -1.1104 11.8774 12.8829 20.6023
465 2 2.2208 2.09287 14.3074 16.3545
452 2 2.2208 4.68561 14.4569 19.278
437 2 2.2208 4.74805 17.1644 16.3123
439 1 -1.1104 0.514951 18.7356 17.8356
444 1 -1.1104 0.80777 18.2466 14.9284
450 1 -1.1104 0.701599 15.9564 17.6811
453 2 2.2208 5.05995 19.9327 19.2998
454 1 -1.1104 0.570833 15.5842 14.8218
459 1 -1.1104 3.66757 18.3913 17.8534
460 2 2.2208 2.06766 17.2626 19.0584
463 1 -1.1104 3.55108 18.6798 15.2
466 2 2.2208 2.20516 20.1263 16.4629
467 1 -1.1104 3.50243 15.6331 17.6759
468 1 -1.1104 3.4802 15.9001 14.7473
456 1 -1.1104 6.20293 15.6688 14.9996
448 1 -1.1104 6.46255 18.6246 15.0433
451 1 -1.1104 6.25068 15.8356 17.8612
457 1 -1.1104 6.43486 15.5784 20.5029
441 1 -1.1104 6.3513 18.64 17.9402
449 1 -1.1104 6.46803 18.5141 20.8517
469 1 -1.1104 3.43197 15.8646 20.6777
455 1 -1.1104 0.708143 15.8287 20.6005
372 2 2.2208 10.6133 -2.62305 13.7181
9428 2 2.2208 13.2613 14.2228 16.5211
484 1 -1.1104 11.8062 15.6425 20.8484
492 2 2.2208 7.70782 14.3808 16.3312
9227 2 2.2208 13.3561 19.6551 16.7194
481 2 2.2208 10.3875 14.2827 19.3534
473 2 2.2208 10.3625 16.9503 16.6478
475 1 -1.1104 11.8586 18.3681 17.8797
478 1 -1.1104 12.075 18.7479 14.7529
480 1 -1.1104 11.8868 15.6655 17.9753
482 2 2.2208 10.4408 19.9119 19.2975
483 1 -1.1104 11.9428 15.8274 15.2552
486 1 -1.1104 9.11863 18.4725 17.984
487 2 2.2208 7.71782 17.0151 19.1995
490 1 -1.1104 9.19268 18.3187 15.22
493 2 2.2208 7.69739 19.9168 16.5371
494 1 -1.1104 9.13761 15.6193 17.9255
495 1 -1.1104 9.29737 15.644 15.1319
479 1 -1.1104 11.9473 18.4429 20.7568
9427 2 2.2208 13.3096 17.0186 19.3391
491 1 -1.1104 9.12018 18.3484 20.4954
330 1 -1.1104 3.31388 -1.04306 20.4335
9084 2 2.2208 13.3549 0.0647194 13.8995
316 1 -1.1104 0.329132 -0.957785 20.5122
366 2 2.2208 2.09917 19.734 27.6534
304 1 -1.1104 0.72869 -3.769 20.8279
501 2 2.2208 4.78746 0.0685236 22.1296
502 1 -1.1104 0.672506 -3.88538 23.4956
506 1 -1.1104 0.497653 -4.13991 26.3403
510 1 -1.1104 0.579656 -0.91902 23.5513
512 2 2.2208 4.80607 -2.72645 24.8589
514 1 -1.1104 0.578545 -1.36931 26.3651
516 1 -1.1104 3.54008 -4.04198 23.6506
518 2 2.2208 2.2552 0.237486 25.0963
519 1 -1.1104 3.41796 -4.02345 26.5487
521 2 2.2208 1.97394 -2.44871 22.1974
523 1 -1.1104 3.42775 -1.26796 23.5121
524 1 -1.1104 3.48292 -1.31308 26.4186
511 1 -1.1104 6.19923 -1.27642 23.6689
504 1 -1.1104 6.36572 -3.95107 23.3939
515 1 -1.1104 6.35612 -1.42036 26.3079
508 1 -1.1104 6.1328 -4.18461 26.1469
9438 2 2.2208 13.3712 8.54823 27.8257
338 2 2.2208 4.9081 -2.59067 13.7337
500 2 2.2208 10.551 17.3112 27.7253
345 1 -1.1104 12.2284 -4.17441 20.5006
357 1 -1.1104 9.06444 -3.85624 20.7677
9153 2 2.2208 13.0898 5.66771 13.7009
591 2 2.2208 2.14169 8.57655 27.7621
352 1 -1.1104 11.7193 -1.23779 20.9324
9122 2 2.2208 13.3462 -2.73186 22.0944
9121 2 2.2208 13.3368 0.061619 25.0625
563 2 2.2208 10.4713 20.0204 24.8375
537 2 2.2208 10.4096 0.280482 22.0174
538 1 -1.1104 12.2247 -4.34558 23.6084
540 1 -1.1104 11.7379 -3.74183 26.5209
542 1 -1.1104 12.1755 -1.55161 23.9068
543 2 2.2208 10.4874 -2.51739 25.072
545 1 -1.1104 11.8632 -1.26583 26.7144
546 1 -1.1104 9.52078 -3.87852 23.5947
548 2 2.2208 7.73673 0.157179 24.8917
549 1 -1.1104 8.92701 -4.1436 26.3576
551 2 2.2208 7.57702 -2.48204 22.2841
553 1 -1.1104 9.25922 -1.34069 23.5997
554 1 -1.1104 9.09516 -1.20117 26.4248
564 1 -1.1104 11.9993 15.7439 26.4024
365 2 2.2208 5.0115 17.0488 27.7345
388 1 -1.1104 0.440059 4.63342 20.9819
379 1 -1.1104 0.487244 7.29268 20.6692
325 1 -1.1104 3.22125 1.45345 21.0685
392 1 -1.1104 5.92447 4.3824 20.7158
503 1 -1.1104 0.719479 1.91368 23.6307
507 1 -1.1104 0.768017 1.54201 26.3243
513 2 2.2208 5.0265 2.98316 24.9335
517 1 -1.1104 3.7218 1.69277 23.7769
520 1 -1.1104 3.2789 1.67738 26.4204
522 2 2.2208 2.05112 3.17736 22.2185
566 2 2.2208 4.90218 5.89313 22.287
568 1 -1.1104 0.514827 7.44182 23.4715
572 1 -1.1104 0.738957 4.67294 23.6321
577 1 -1.1104 0.818716 4.26331 26.3501
581 1 -1.1104 3.42297 7.21749 23.636
582 2 2.2208 2.23648 5.73381 24.9919
586 1 -1.1104 3.62638 4.39878 23.6394
588 1 -1.1104 3.675 4.39782 26.4573
570 1 -1.1104 0.598356 7.23688 26.1326
584 1 -1.1104 3.51711 7.32706 26.2513
571 1 -1.1104 6.46638 7.19722 26.2525
509 1 -1.1104 6.21512 1.4977 26.4258
505 1 -1.1104 6.30205 1.62892 23.3531
569 1 -1.1104 6.33633 7.38926 23.3776
574 1 -1.1104 6.33881 4.55862 23.5053
579 1 -1.1104 6.36544 4.30294 26.3149
414 1 -1.1104 11.6926 7.40233 20.5248
347 1 -1.1104 12.0946 1.71599 20.7909
555 2 2.2208 10.4195 0.228358 27.9116
431 1 -1.1104 8.81158 4.7036 20.6322
359 1 -1.1104 9.11435 1.7809 20.7206
9287 2 2.2208 13.2491 2.96977 22.2889
539 1 -1.1104 11.7556 1.31501 23.6413
541 1 -1.1104 11.6804 1.48296 26.5131
544 2 2.2208 10.4213 2.93373 24.8366
547 1 -1.1104 8.83721 1.57582 23.5397
550 1 -1.1104 9.01193 1.48896 26.4537
552 2 2.2208 7.46348 3.05808 21.9964
598 1 -1.1104 9.2031 4.2311 26.173
600 1 -1.1104 9.09196 4.36333 23.4006
602 1 -1.1104 9.01324 7.23697 26.2923
604 2 2.2208 7.81896 5.8124 24.9893
605 2 2.2208 10.2465 5.9209 22.1036
607 1 -1.1104 11.9191 6.90564 23.2678
609 1 -1.1104 12.0379 4.14871 23.6553
612 1 -1.1104 12.028 4.39087 26.4187
608 1 -1.1104 11.8613 7.24926 26.4861
614 1 -1.1104 9.34454 7.27018 23.4402
9158 2 2.2208 13.3205 5.78899 24.9539
8494 2 2.2208 10.6263 -5.31624 27.7754
443 1 -1.1104 0.572551 12.9343 20.9219
447 1 -1.1104 6.06725 12.999 20.6039
567 2 2.2208 4.99866 11.4346 22.0681
573 1 -1.1104 0.66328 9.99702 23.7173
576 2 2.2208 4.96542 8.6272 24.9052
578 1 -1.1104 0.433613 9.79319 26.5868
583 2 2.2208 2.14851 11.4156 24.9357
585 2 2.2208 1.87936 8.72914 22.2256
587 1 -1.1104 3.52004 10.1699 23.6211
589 1 -1.1104 3.38846 9.96441 26.1949
532 1 -1.1104 3.41725 12.9721 26.2437
619 1 -1.1104 0.61689 12.6669 23.4649
623 1 -1.1104 3.40274 12.8387 23.681
627 1 -1.1104 0.76679 12.7581 26.2515
580 1 -1.1104 6.26192 9.93398 26.3113
631 1 -1.1104 6.25952 12.9649 23.4253
575 1 -1.1104 6.51888 10.1219 23.7036
622 1 -1.1104 6.32243 12.5879 26.2577
536 1 -1.1104 11.8084 18.7269 26.3684
593 1 -1.1104 8.94216 18.6308 23.3313
562 2 2.2208 10.5174 14.2719 25.0951
9418 2 2.2208 13.2018 8.47768 21.9126
533 1 -1.1104 11.8736 12.7765 23.4927
597 1 -1.1104 9.12797 10.2068 26.3406
599 1 -1.1104 9.19216 10.1301 23.4462
601 2 2.2208 7.75052 8.81998 22.2006
603 2 2.2208 7.84077 11.5501 24.9803
606 2 2.2208 10.6233 11.5171 22.1839
610 1 -1.1104 11.838 10.0475 23.4067
611 2 2.2208 10.6215 8.83308 25.1543
613 1 -1.1104 12.1074 10.0199 26.2673
535 1 -1.1104 12.0421 12.7086 26.3304
560 1 -1.1104 9.25175 12.8524 26.4164
565 1 -1.1104 9.11549 12.94 23.5516
9437 2 2.2208 13.3986 11.4293 24.7602
464 1 -1.1104 3.51773 18.4285 20.6809
590 2 2.2208 5.09871 5.7803 27.7035
445 1 -1.1104 0.543891 18.5498 20.6705
367 2 2.2208 2.04052 14.2498 22.033
335 1 -1.1104 6.3225 18.4013 26.4514
531 1 -1.1104 6.25921 15.6582 23.5463
629 2 2.2208 4.88876 19.9131 24.9868
626 1 -1.1104 0.613431 15.9656 26.3927
625 1 -1.1104 0.492223 18.6959 26.3991
630 2 2.2208 4.8677 14.1217 25.0696
368 2 2.2208 2.20596 19.9432 22.0471
369 1 -1.1104 3.40651 15.6559 23.4129
530 1 -1.1104 0.628022 15.4846 23.4717
559 1 -1.1104 3.29572 15.7342 26.3118
594 2 2.2208 1.85075 17.1596 24.8694
595 1 -1.1104 3.45721 18.5566 26.4565
618 2 2.2208 4.8662 17.1121 22.1091
620 1 -1.1104 0.508407 18.515 23.6365
621 1 -1.1104 3.49893 18.5573 23.5314
624 1 -1.1104 6.28 15.4071 26.4323
628 1 -1.1104 6.1154 18.5433 23.5607
529 2 2.2208 10.356 17.0495 22.0449
561 1 -1.1104 9.03438 18.5555 26.3258
596 2 2.2208 7.65875 17.1261 24.9858
9430 2 2.2208 13.4333 19.8443 21.9427
334 1 -1.1104 8.98126 15.7043 26.2236
333 1 -1.1104 9.17392 15.9239 23.6178
558 1 -1.1104 11.7976 15.4768 23.6566
9417 2 2.2208 13.2143 14.1916 21.9798
534 1 -1.1104 11.9515 18.3696 23.7056
9420 2 2.2208 13.3894 17.1056 24.9064
331 2 2.2208 7.61264 14.3844 22.0937
496 1 -1.1104 9.10499 15.5635 20.6626
9421 2 2.2208 13.2506 14.2148 27.6138
17749 2 2.2208 13.4949 -5.36284 25.1599
527 2 2.2208 2.21834 3.01832 27.7687
556 2 2.2208 7.69432 -2.74394 27.7305
17724 2 2.2208 13.4571 -5.28655 13.8025
499 2 2.2208 7.83671 17.0835 13.8137
615 2 2.2208 10.4614 5.61496 27.7784
434 2 2.2208 7.5703 5.97391 13.7828
337 2 2.2208 2.00085 14.3179 27.7065
592 2 2.2208 4.86464 11.3161 27.6611
632 2 2.2208 4.87694 22.7948 4.99554
634 1 -1.1104 0.678777 24.1278 0.789128
635 1 -1.1104 0.90766 24.2161 3.60918
636 1 -1.1104 0.943587 21.0258 0.914423
638 2 2.2208 5.06228 25.4646 2.40382
639 1 -1.1104 0.590693 21.4239 3.86869
641 1 -1.1104 3.50958 24.3519 0.937749
642 2 2.2208 2.06273 22.8552 2.29305
644 1 -1.1104 3.56507 24.1682 3.85316
645 2 2.2208 2.22645 25.6052 5.04391
646 1 -1.1104 3.58131 21.597 0.894198
648 1 -1.1104 3.54812 21.4764 3.8201
637 1 -1.1104 1.00263 26.726 1.05388
657 1 -1.1104 6.40708 21.2699 3.64654
654 1 -1.1104 6.55361 24.2074 3.8947
653 1 -1.1104 6.32215 24.2002 1.04103
655 1 -1.1104 6.31713 21.3224 0.772395
777 1 -1.1104 6.26733 21.6628 6.3409
649 1 -1.1104 3.71678 26.9376 3.72884
647 1 -1.1104 3.6792 27.023 1.0225
779 1 -1.1104 3.30872 24.1479 6.52468
9752 2 2.2208 13.5459 34.0693 2.45963
659 2 2.2208 10.739 22.6651 5.04019
661 1 -1.1104 12.0989 24.1757 0.86066
662 1 -1.1104 12.1974 23.9778 3.65096
663 1 -1.1104 12.0247 21.2704 1.05712
665 2 2.2208 10.5614 25.665 2.39562
666 1 -1.1104 12.1397 21.2148 3.74958
668 1 -1.1104 9.17816 24.288 1.16351
669 2 2.2208 7.72356 22.5044 2.35518
671 1 -1.1104 9.33079 24.0935 3.8976
672 2 2.2208 7.93891 25.4572 5.17502
673 1 -1.1104 9.1518 21.3163 0.948389
675 1 -1.1104 9.20139 21.3335 3.7601
676 1 -1.1104 9.44757 26.961 3.89752
9748 2 2.2208 13.6864 25.5059 5.00416
9747 2 2.2208 13.605 22.5798 2.44097
809 1 -1.1104 9.38263 24.0345 6.61136
807 1 -1.1104 11.989 21.0248 6.51193
811 1 -1.1104 9.28564 26.9748 6.95004
929 2 2.2208 -0.3903 36.8186 7.82819
776 1 -1.1104 0.753092 26.9674 6.4339
781 1 -1.1104 3.5466 27.1189 6.36307
640 1 -1.1104 0.693275 27.0577 3.67039
656 1 -1.1104 6.57403 26.8207 0.869268
658 1 -1.1104 6.37334 26.9991 3.65271
633 2 2.2208 5.02626 28.4389 5.07463
643 2 2.2208 2.32976 28.3851 2.437
681 1 -1.1104 0.711186 29.5594 1.05283
684 1 -1.1104 0.877983 29.7093 3.64291
687 1 -1.1104 0.848732 32.6147 1.00287
688 2 2.2208 5.09531 31.3316 2.23017
690 1 -1.1104 0.667002 32.5032 3.86244
692 1 -1.1104 3.54374 29.8778 0.924612
695 1 -1.1104 3.55186 29.7037 3.85111
697 2 2.2208 2.15454 31.1162 5.05615
699 1 -1.1104 3.66702 32.5969 1.02022
700 1 -1.1104 3.50757 32.4644 3.64867
706 1 -1.1104 6.48222 32.6529 0.816165
691 1 -1.1104 6.29987 32.5619 3.83797
705 1 -1.1104 6.28582 29.7193 3.67238
704 1 -1.1104 6.48863 29.7815 0.989588
831 1 -1.1104 6.27621 32.5937 6.37544
9701 2 2.2208 13.4227 45.3512 7.92407
667 1 -1.1104 12.2575 27.0214 3.49803
664 1 -1.1104 11.8335 27.0384 0.857602
808 1 -1.1104 12.1825 26.9086 6.15792
674 1 -1.1104 9.18515 27.2006 1.02978
660 2 2.2208 10.6111 28.3786 5.23746
670 2 2.2208 7.8516 28.4824 2.43374
708 1 -1.1104 12.1237 29.84 1.10872
710 1 -1.1104 12.1467 30.0694 3.97476
712 1 -1.1104 12.112 32.6141 0.944001
713 2 2.2208 10.6322 31.2448 2.45802
715 1 -1.1104 12.1217 32.7802 3.78899
716 1 -1.1104 9.16616 30.0186 0.966124
719 1 -1.1104 9.22362 29.7624 3.77254
721 2 2.2208 7.76239 31.1541 5.36334
723 1 -1.1104 9.40661 32.7667 0.975748
724 1 -1.1104 9.14067 32.653 3.90854
862 1 -1.1104 11.9738 32.4606 6.37552
9500 2 2.2208 13.4867 31.4443 5.23906
863 1 -1.1104 9.09791 29.6405 6.48097
9757 2 2.2208 13.5626 28.4498 2.34096
860 1 -1.1104 11.8619 29.7613 6.87323
919 1 -1.1104 9.28946 43.7282 12.0557
1141 2 2.2208 2.16441 25.6902 -0.411745
694 2 2.2208 2.2513 33.9767 2.36272
680 2 2.2208 4.93356 33.9885 5.03528
682 1 -1.1104 0.988747 35.5988 0.897828
685 1 -1.1104 0.807537 35.3946 3.71635
689 2 2.2208 5.17255 37.0018 2.45742
693 1 -1.1104 3.62584 35.6852 1.01387
696 1 -1.1104 3.65979 35.3473 3.7512
698 2 2.2208 2.24384 36.9466 5.05811
726 2 2.2208 5.12855 39.7041 5.1999