ITEM: TIMESTEP
60000
ITEM: NUMBER OF ATOMS
17760
ITEM: BOX BOUNDS pp pp pp
-4.6474940665380499e-01 2.7804749406653542e+01
-5.3544820800790491e+00 3.3343448208009448e+02
-4.5986926424672031e-01 2.7799869264246258e+01
ITEM: ATOMS id type q x y z
1 2 2.2208 5.5322 0.0982798 5.52051
2 1 -1.1104 1.42019 -4.13693 1.16969
6 1 -1.1104 1.23785 -4.11395 3.95703
10 1 -1.1104 1.13911 -1.36906 0.949416
12 2 2.2208 5.41318 -2.49937 2.57235
14 1 -1.1104 1.21781 -1.44706 3.92258
16 1 -1.1104 4.21057 -4.14386 0.999109
18 2 2.2208 2.53427 -0.0428287 2.56652
19 1 -1.1104 4.01906 -4.13972 3.90712
21 2 2.2208 2.54152 -2.70176 5.42121
23 1 -1.1104 3.97347 -1.11796 1.05041
24 1 -1.1104 3.95 -1.44982 3.86911
4 1 -1.1104 6.89231 -3.88509 1.00671
174 1 -1.1104 3.87033 -1.64874 6.93178
9085 2 2.2208 -0.193894 11.4892 -0.343898
9046 2 2.2208 -0.357719 6.00873 5.41161
525 2 2.2208 5.36815 0.221352 -0.256081
11 1 -1.1104 6.82329 -1.10918 1.17126
8 1 -1.1104 6.8553 -4.17792 3.70972
15 1 -1.1104 6.76371 -1.14556 4.04296
555 2 2.2208 11.1991 0.0806353 -0.340457
31 2 2.2208 10.9467 0.162046 5.29561
32 1 -1.1104 12.5957 -3.87701 1.23033
34 1 -1.1104 12.5116 -4.22019 3.75184
36 1 -1.1104 12.4429 -1.25609 1.1726
37 2 2.2208 10.9066 -2.67199 2.73557
39 1 -1.1104 12.1769 -1.25586 3.89236
40 1 -1.1104 9.72033 -4.09352 1.15625
42 2 2.2208 8.15746 0.110037 2.64527
43 1 -1.1104 9.54218 -3.97521 3.94398
45 2 2.2208 8.13703 -2.8169 5.4187
47 1 -1.1104 9.64557 -1.36723 1.36706
48 1 -1.1104 9.5866 -1.36291 4.3063
615 2 2.2208 11.1392 5.75474 -0.377427
168 1 -1.1104 6.93096 -4.12599 6.62846
3 1 -1.1104 0.999174 1.50533 1.25503
7 1 -1.1104 1.17244 1.40825 4.10626
13 2 2.2208 5.40367 3.0207 2.55391
17 1 -1.1104 3.6728 1.59873 1.24531
20 1 -1.1104 4.01142 1.21 4.08118
22 2 2.2208 2.54703 3.16665 5.44495
54 2 2.2208 5.5699 5.83323 5.31242
60 1 -1.1104 1.3244 4.25826 1.24009
67 1 -1.1104 1.26897 4.35188 4.10132
72 2 2.2208 2.50849 5.69482 2.40891
76 1 -1.1104 3.96571 4.4648 1.2147
79 1 -1.1104 4.12547 4.34592 4.01252
56 1 -1.1104 1.02445 7.22476 1.25183
74 1 -1.1104 3.87584 7.23752 3.88665
58 1 -1.1104 1.00222 7.04971 3.95489
71 1 -1.1104 4.13229 7.10717 1.12937
57 1 -1.1104 6.97597 7.20584 1.16085
590 2 2.2208 5.38804 5.7291 -0.150455
9042 2 2.2208 -0.177988 17.2251 5.06829
365 2 2.2208 5.41063 16.9596 -0.457183
173 1 -1.1104 4.1732 1.51103 6.85702
239 1 -1.1104 3.9705 4.4412 6.94509
527 2 2.2208 2.41061 2.87257 -0.236963
9 1 -1.1104 6.94603 1.47665 3.89891
5 1 -1.1104 6.67928 1.51858 1.20858
59 1 -1.1104 6.9933 7.4437 3.89323
63 1 -1.1104 6.91968 4.42675 1.08487
69 1 -1.1104 6.73628 4.56022 3.83671
33 1 -1.1104 12.4394 1.68083 1.12589
35 1 -1.1104 12.3435 1.54192 3.77519
38 2 2.2208 10.938 2.97127 2.59531
41 1 -1.1104 9.43862 1.61014 1.36343
44 1 -1.1104 9.58284 1.52332 3.94127
46 2 2.2208 8.13238 2.99306 5.34487
84 2 2.2208 11.1997 5.8041 5.27512
86 1 -1.1104 12.531 7.20968 1.19558
87 1 -1.1104 12.5682 7.2697 3.80756
88 1 -1.1104 12.3256 4.58273 1.02289
92 1 -1.1104 12.5379 4.34465 3.94212
95 2 2.2208 8.28975 5.88003 2.57581
99 1 -1.1104 9.68132 4.40561 1.3332
102 1 -1.1104 9.61006 4.43356 4.14387
97 1 -1.1104 9.87602 7.26846 4.03266
94 1 -1.1104 9.65079 7.22246 1.13342
265 1 -1.1104 12.7792 6.93729 6.61374
206 1 -1.1104 12.5899 1.61813 6.94282
267 1 -1.1104 9.67905 7.26868 6.84979
500 2 2.2208 10.9974 17.088 -0.116991
616 2 2.2208 8.30451 8.59104 -0.299174
55 2 2.2208 5.3714 11.4847 5.64567
61 1 -1.1104 0.94785 10.0874 1.2335
66 2 2.2208 5.64239 8.73631 2.63944
68 1 -1.1104 1.17931 9.95639 4.16505
73 2 2.2208 2.67188 11.3487 2.51825
75 2 2.2208 2.5392 8.57567 5.43948
77 1 -1.1104 3.87172 9.89862 1.27997
80 1 -1.1104 4.03271 9.97637 4.00529
107 1 -1.1104 1.26799 13.0169 0.833229
113 1 -1.1104 1.35896 12.8228 3.82087
123 1 -1.1104 4.10545 12.8526 1.13001
128 1 -1.1104 4.07053 12.8192 4.10164
617 2 2.2208 10.9186 11.4145 -0.434054
124 1 -1.1104 4.06124 13.0468 6.86485
9047 2 2.2208 -0.355636 8.62625 2.88159
497 2 2.2208 10.8145 20.0099 13.6414
8765 2 2.2208 -0.118537 14.2844 8.19404
9037 2 2.2208 -0.222287 -2.58585 2.5478
115 1 -1.1104 7.15182 12.9392 3.84838
64 1 -1.1104 6.56432 10.0349 1.04588
110 1 -1.1104 6.9501 12.662 1.08816
70 1 -1.1104 6.84912 10.117 3.82161
85 2 2.2208 11.0496 11.3649 5.20103
89 1 -1.1104 12.3094 10.0197 1.15839
91 2 2.2208 11.0519 8.70474 2.55997
93 1 -1.1104 12.4483 9.99168 3.97534
96 2 2.2208 8.32789 11.4314 2.51513
98 2 2.2208 8.23005 8.67662 5.44447
100 1 -1.1104 9.59757 9.93168 1.10757
103 1 -1.1104 9.53322 9.97971 3.9546
142 1 -1.1104 12.5305 12.7494 1.17129
146 1 -1.1104 12.5443 12.8763 3.94227
153 1 -1.1104 9.72636 12.9173 1.07278
158 1 -1.1104 9.91932 12.8069 3.94362
90 1 -1.1104 12.5981 10.1229 6.73217
150 2 2.2208 11.129 14.1344 2.49728
154 1 -1.1104 9.74965 13.0154 6.84524
8740 2 2.2208 -0.257309 17.2269 10.9675
557 2 2.2208 8.35755 2.80167 -0.159482
119 2 2.2208 5.2941 14.1692 2.53928
130 2 2.2208 2.70258 14.264 5.32182
106 2 2.2208 5.52224 17.1779 5.27954
109 1 -1.1104 1.14568 18.645 0.791609
114 1 -1.1104 1.21235 18.493 3.4486
116 1 -1.1104 1.19408 15.8557 0.980157
120 2 2.2208 5.41223 20.1296 2.19676
121 1 -1.1104 1.21409 15.6129 4.00312
125 1 -1.1104 3.95034 18.3883 0.931144
127 2 2.2208 2.62522 17.1233 2.3912
129 1 -1.1104 3.97633 18.4678 3.69185
131 2 2.2208 2.65561 20.0627 5.13249
132 1 -1.1104 3.99352 15.6572 0.935252
134 1 -1.1104 3.94963 15.6741 3.76089
528 2 2.2208 8.27859 19.8963 -0.328333
526 2 2.2208 2.62787 -2.86447 -0.320954
117 1 -1.1104 1.40844 15.3992 6.92113
9040 2 2.2208 -0.249905 0.264278 5.64869
591 2 2.2208 2.6794 8.44888 -0.121368
122 1 -1.1104 6.94676 15.7673 3.93856
138 1 -1.1104 6.81074 18.3805 0.954075
140 1 -1.1104 6.92553 15.4715 1.05289
139 1 -1.1104 6.78409 18.7075 3.72868
160 2 2.2208 8.32995 14.2871 5.22531
141 2 2.2208 11.072 17.2438 5.21621
144 1 -1.1104 12.3536 18.4422 1.1219
147 1 -1.1104 12.5458 18.3558 3.93155
148 1 -1.1104 12.4657 15.6852 1.29312
151 2 2.2208 10.8776 19.7949 2.62046
152 1 -1.1104 12.672 15.5069 3.90603
155 1 -1.1104 9.5124 18.5878 1.26765
157 2 2.2208 8.05382 16.8798 2.41234
159 1 -1.1104 9.50725 18.2664 3.91597
161 2 2.2208 8.28155 19.8499 5.25648
162 1 -1.1104 9.64828 15.5943 1.25232
164 1 -1.1104 9.9477 15.5908 4.00662
9299 2 2.2208 -0.381565 0.136624 -0.275819
118 1 -1.1104 6.92571 15.7059 6.64034
370 2 2.2208 8.19904 14.1101 -0.355957
170 1 -1.1104 1.21307 -1.13966 6.62152
166 1 -1.1104 1.17884 -4.12675 6.84562
172 1 -1.1104 4.03662 -4.18824 6.52996
8899 2 2.2208 -0.294214 0.255625 10.9315
175 2 2.2208 5.44644 0.404501 10.9879
176 1 -1.1104 1.2879 -3.96216 12.3684
180 1 -1.1104 0.933639 -4.08522 9.80902
184 1 -1.1104 1.08419 -1.04481 12.217
186 2 2.2208 5.41874 -2.6893 8.35502
188 1 -1.1104 0.941957 -0.970342 9.41039
190 1 -1.1104 4.0118 -3.99217 12.5795
192 2 2.2208 2.71742 0.230981 8.15013
193 1 -1.1104 4.08442 -3.94217 9.74424
195 2 2.2208 2.59303 -2.68193 11.0488
197 1 -1.1104 4.07155 -1.13448 12.5793
198 1 -1.1104 4.071 -1.25061 9.63316
171 1 -1.1104 6.9271 -1.218 6.84923
9052 2 2.2208 -0.34598 -2.72347 8.19202
208 1 -1.1104 9.55044 -4.00104 6.62744
189 1 -1.1104 6.88957 -1.15617 9.62035
178 1 -1.1104 6.73692 -3.79526 12.3969
182 1 -1.1104 6.67076 -4.11385 9.57891
185 1 -1.1104 6.7852 -0.887397 12.427
210 1 -1.1104 9.73245 -1.12401 6.90518
207 1 -1.1104 12.4067 -1.20499 6.62088
205 1 -1.1104 12.6641 -4.0923 6.60648
211 2 2.2208 11.1683 0.267113 10.9815
212 1 -1.1104 12.6525 -3.91803 12.6632
214 1 -1.1104 12.4751 -4.16019 9.64206
216 1 -1.1104 12.3894 -1.1484 12.3244
217 2 2.2208 11.0631 -2.75692 8.24352
219 1 -1.1104 12.4005 -1.18395 9.47029
220 1 -1.1104 9.44463 -3.91373 12.4
222 2 2.2208 8.26446 0.209717 8.22727
223 1 -1.1104 9.57244 -4.0972 9.58303
225 2 2.2208 8.128 -2.49686 11.0344
227 1 -1.1104 9.50561 -1.2365 12.6068
228 1 -1.1104 9.78639 -1.37274 9.85852
9041 2 2.2208 -0.242941 2.93793 2.60582
9045 2 2.2208 -0.258402 14.2626 2.37527
8968 2 2.2208 -0.0703644 5.9415 11.0354
236 1 -1.1104 1.19729 4.43338 6.98141
234 1 -1.1104 1.32645 7.0467 6.87298
167 1 -1.1104 1.37232 1.73724 6.83552
8933 2 2.2208 -0.0744978 3.01756 8.24264
238 1 -1.1104 4.16393 7.22663 6.56977
177 1 -1.1104 1.26347 1.78099 12.2971
181 1 -1.1104 1.21916 1.62261 9.73335
187 2 2.2208 5.40365 2.99219 8.16269
191 1 -1.1104 3.97395 1.64557 12.3446
194 1 -1.1104 3.99761 1.78423 9.6675
196 2 2.2208 2.68197 3.19943 11.1522
240 2 2.2208 5.58874 5.91582 10.9603
242 1 -1.1104 1.37841 7.46179 12.3754
246 1 -1.1104 1.14412 4.64021 12.4144
251 1 -1.1104 1.32028 4.4887 9.70772
255 1 -1.1104 4.03768 7.39905 12.3129
256 2 2.2208 2.78286 5.75974 8.1915
260 1 -1.1104 4.02068 4.64225 12.6689
262 1 -1.1104 4.22466 4.47811 9.78979
258 1 -1.1104 4.05155 7.36674 9.56034
244 1 -1.1104 1.17305 7.33414 9.58478
237 1 -1.1104 6.75633 4.48257 6.83576
235 1 -1.1104 6.9479 7.26548 6.80909
169 1 -1.1104 6.79841 1.67765 6.83628
179 1 -1.1104 6.77475 1.91184 12.2442
245 1 -1.1104 7.04997 7.24841 9.67074
248 1 -1.1104 6.76112 4.41852 12.4126
253 1 -1.1104 7.05527 4.5591 9.53665
269 1 -1.1104 9.77228 4.35561 6.86264
183 1 -1.1104 6.79684 1.51344 9.68929
243 1 -1.1104 6.67457 7.07778 12.5775
266 1 -1.1104 12.4269 4.35893 6.88003
209 1 -1.1104 9.74065 1.63122 6.8211
213 1 -1.1104 12.6089 1.51781 12.5229
215 1 -1.1104 12.5905 1.71791 9.68415
218 2 2.2208 11.1039 2.94358 8.22695
221 1 -1.1104 9.72001 1.82639 12.6153
224 1 -1.1104 9.65962 1.64343 9.71154
226 2 2.2208 8.46616 3.07611 11.1297
268 1 -1.1104 9.91401 4.36236 9.71624
271 1 -1.1104 9.66606 4.58907 12.4516
275 2 2.2208 8.52146 5.79463 8.31615
276 2 2.2208 11.1952 5.96822 11.1703
278 1 -1.1104 12.5651 7.36326 12.2761
280 1 -1.1104 12.5648 4.57169 12.5713
283 1 -1.1104 12.713 4.55002 9.63153
285 1 -1.1104 9.68866 7.19891 12.4058
279 1 -1.1104 12.6431 7.24984 9.46207
273 1 -1.1104 9.94127 7.2421 9.49412
62 1 -1.1104 1.21689 10.1198 7.07601
108 1 -1.1104 1.41787 12.8393 6.84408
9048 2 2.2208 -0.143652 11.759 5.56592
50 1 -1.1104 12.6889 15.65 12.8627
78 1 -1.1104 3.99014 10.11 6.86123
241 2 2.2208 5.59683 11.5436 11.0278
247 1 -1.1104 1.22053 10.2111 12.6333
250 2 2.2208 5.60818 8.7445 8.09016
252 1 -1.1104 1.21947 10.1278 9.68915
257 2 2.2208 2.58282 11.2691 8.41556
259 2 2.2208 2.7341 8.70921 11.0375
261 1 -1.1104 4.10614 10.2562 12.5007
263 1 -1.1104 4.40249 10.0955 9.59919
136 1 -1.1104 1.34802 13.0917 12.5319
202 1 -1.1104 4.18625 12.9987 9.49034
287 1 -1.1104 4.19331 12.8622 12.1127
294 1 -1.1104 1.10953 12.9443 9.79723
8960 2 2.2208 -0.161028 11.6675 11.1938
65 1 -1.1104 6.75088 10.0592 6.58252
101 1 -1.1104 9.63228 10.2748 6.78478
290 1 -1.1104 6.95555 12.9169 9.5126
297 1 -1.1104 7.0208 12.8813 12.3508
111 1 -1.1104 6.96856 12.8588 6.54635
249 1 -1.1104 6.9505 10.1181 12.3082
254 1 -1.1104 7.00575 10.1666 9.54545
143 1 -1.1104 12.5242 12.8576 6.61922
135 1 -1.1104 9.63074 12.7776 9.77952
264 1 -1.1104 9.87651 10.0061 9.51778
270 1 -1.1104 9.96275 9.90427 12.3286
272 2 2.2208 8.43313 8.69672 10.8153
274 2 2.2208 8.39502 11.489 8.13418
277 2 2.2208 11.1088 11.4599 10.8783
281 1 -1.1104 12.8488 10.277 12.3777
282 2 2.2208 11.2039 8.58367 8.14469
284 1 -1.1104 12.6164 9.95084 9.53811
83 1 -1.1104 9.81793 12.5628 12.5638
26 1 -1.1104 12.6816 13.0803 12.5414
30 1 -1.1104 12.6951 12.8475 9.73866
9079 2 2.2208 -0.251237 5.83193 -0.191868
52 1 -1.1104 6.89426 15.9255 12.3413
8739 2 2.2208 -0.268905 20.0485 7.85988
296 1 -1.1104 6.53881 18.7958 12.2375
9051 2 2.2208 -0.280931 19.7965 2.34026
293 2 2.2208 5.30819 19.926 8.08071
295 2 2.2208 5.5519 14.2901 8.07844
126 1 -1.1104 4.04801 18.5969 6.82107
231 1 -1.1104 0.993338 18.668 6.30482
133 1 -1.1104 4.10357 15.6389 6.64797
230 2 2.2208 2.56072 14.3977 11.008
28 2 2.2208 2.52894 19.906 10.855
29 1 -1.1104 3.94006 15.7819 12.529
51 1 -1.1104 1.12742 15.8238 12.4158
200 1 -1.1104 1.40322 18.6671 12.3804
203 1 -1.1104 4.02878 15.7854 9.59071
204 2 2.2208 2.63716 17.0821 8.0654
232 1 -1.1104 3.89133 18.3697 9.50952
233 2 2.2208 5.23219 17.2481 10.7548
286 1 -1.1104 3.95622 18.6975 12.2352
291 1 -1.1104 0.802445 18.475 9.19498
292 1 -1.1104 1.16498 15.794 9.48273
8967 2 2.2208 -0.186582 8.68008 8.35186
165 2 2.2208 8.19566 14.1935 11.0301
199 2 2.2208 8.16819 19.9241 10.681
81 2 2.2208 11.0032 19.9311 8.03285
49 1 -1.1104 12.4497 18.6257 9.57007
288 1 -1.1104 6.82302 18.6148 9.40306
82 1 -1.1104 12.616 15.7216 9.64535
229 1 -1.1104 9.79176 15.4994 9.59746
25 2 2.2208 11.1352 17.1636 10.9497
145 1 -1.1104 12.5132 18.3717 6.74671
163 1 -1.1104 10.0298 15.835 6.75612
149 1 -1.1104 12.9305 15.6259 6.85529
156 1 -1.1104 9.6765 18.6739 6.58371
112 1 -1.1104 6.78977 18.5773 6.50569
289 1 -1.1104 6.94705 15.7524 9.31415
104 1 -1.1104 9.34005 18.4386 12.1685
105 2 2.2208 8.35009 16.928 7.93386
53 2 2.2208 11.1961 14.3256 8.07678
201 1 -1.1104 9.65361 15.7345 12.4973
27 1 -1.1104 12.2775 18.8098 12.2634
137 1 -1.1104 9.70905 18.4742 9.31756
556 2 2.2208 8.30974 -2.59531 -0.234565
336 2 2.2208 -0.237225 -2.55531 13.6504
298 2 2.2208 5.59983 0.384938 16.8782
299 1 -1.1104 1.18755 -4.16224 18.3349
303 1 -1.1104 1.20292 -4.03652 15.3777
311 1 -1.1104 1.34498 -1.20433 17.9651
313 2 2.2208 5.57295 -2.67348 19.6225
315 1 -1.1104 1.15415 -1.36877 15.0369
319 1 -1.1104 3.94215 -3.74504 18.1291
321 2 2.2208 2.5517 0.166303 19.3816
322 1 -1.1104 3.96572 -4.09403 15.2655
326 2 2.2208 2.67921 -2.59356 16.6388
328 1 -1.1104 4.32035 -1.02809 18.1752
329 1 -1.1104 4.0528 -1.34823 15.5055
316 1 -1.1104 1.36989 -1.06538 20.8572
9265 2 2.2208 -0.363275 20.1336 19.3416
9268 2 2.2208 -0.139271 14.3377 13.8461
9271 2 2.2208 -0.177992 3.06497 25.3554
409 2 2.2208 2.83319 11.4733 13.789
9415 2 2.2208 -0.0799339 0.305178 16.6419
472 2 2.2208 5.32592 14.3074 13.8311
9196 2 2.2208 -0.228539 6.11487 16.6671
9429 2 2.2208 -0.206414 8.60327 19.5752
312 1 -1.1104 6.94119 -0.852228 18.3004
301 1 -1.1104 6.97543 -3.88777 18.0461
308 1 -1.1104 6.76626 -4.0036 21.1777
307 1 -1.1104 6.62838 -3.81664 15.5919
317 1 -1.1104 6.9945 -1.10901 15.2097
341 2 2.2208 11.2967 0.212691 16.8242
342 1 -1.1104 12.559 -4.05404 18.2191
344 1 -1.1104 12.4617 -3.81125 15.5357
348 1 -1.1104 12.4688 -1.0888 18.1273
349 2 2.2208 11.0657 -2.64296 19.4281
351 1 -1.1104 12.3836 -1.09709 15.2807
353 1 -1.1104 9.61823 -4.26946 18.1252
355 2 2.2208 8.34301 0.243724 19.7076
356 1 -1.1104 9.62594 -3.87763 15.1631
360 2 2.2208 8.23549 -2.33053 16.6516
362 1 -1.1104 9.68555 -1.36971 18.0563
363 1 -1.1104 9.75024 -1.06692 15.399
372 2 2.2208 11.0792 -2.51527 13.952
8713 2 2.2208 5.42445 -5.36029 16.8824
371 2 2.2208 8.02416 0.420505 13.8946
340 2 2.2208 5.50476 3.01169 14.0288
498 2 2.2208 11.0899 14.2913 13.96
300 1 -1.1104 1.12004 1.70049 18.0977
305 1 -1.1104 1.26837 1.61901 15.2151
314 2 2.2208 5.45458 3.21122 19.6727
320 1 -1.1104 3.87934 1.84044 18.2925
324 1 -1.1104 4.16382 1.42977 15.1744
327 2 2.2208 2.45741 3.09813 16.7611
374 2 2.2208 5.39477 6.01829 16.7415
382 1 -1.1104 1.23709 4.40944 18.1159
387 1 -1.1104 1.2002 4.30419 15.1865
395 1 -1.1104 3.95066 7.31708 18.1698
396 2 2.2208 2.61807 5.88617 19.5435
398 1 -1.1104 3.99451 7.28702 15.2807
401 1 -1.1104 4.06052 4.58992 18.1996
403 1 -1.1104 3.91283 4.28758 15.3962
378 1 -1.1104 1.21734 7.34874 15.2583
376 1 -1.1104 1.15779 7.14313 18.033
399 1 -1.1104 3.97849 7.33751 20.9766
9127 2 2.2208 -0.155517 3.00237 13.8933
9123 2 2.2208 -0.137069 3.01367 19.5481
388 1 -1.1104 1.18869 4.45943 20.76
373 2 2.2208 11.1228 3.0398 13.914
309 1 -1.1104 6.89985 1.80122 15.3853
302 1 -1.1104 6.76801 1.88826 18.093
380 1 -1.1104 6.83162 7.51207 15.3565
384 1 -1.1104 6.77661 4.63128 18.2237
377 1 -1.1104 6.72863 7.31628 18.229
391 1 -1.1104 7.00275 4.50037 15.3789
343 1 -1.1104 12.652 1.6202 18.0866
346 1 -1.1104 12.5018 1.50139 15.351
350 2 2.2208 10.9808 3.22415 19.7054
354 1 -1.1104 9.82511 1.6287 18.3265
358 1 -1.1104 9.59135 1.73193 15.4034
361 2 2.2208 8.14415 3.06012 16.8937
410 2 2.2208 11.1158 5.93193 16.8435
415 1 -1.1104 12.42 4.44857 18.1256
418 1 -1.1104 12.4142 4.45069 15.1678
422 1 -1.1104 9.7157 7.24089 18.3819
423 2 2.2208 8.20593 5.99534 19.4774
425 1 -1.1104 9.62215 7.23971 15.4303
428 1 -1.1104 9.56396 4.51883 18.1511
430 1 -1.1104 9.74124 4.54354 15.304
413 1 -1.1104 12.2056 7.29163 15.3529
412 1 -1.1104 12.4336 7.32512 18.2466
419 1 -1.1104 12.2696 4.65495 20.818
434 2 2.2208 8.29498 5.87052 13.9093
407 2 2.2208 2.63692 5.87227 13.9834
375 2 2.2208 5.4838 11.6034 16.4755
383 1 -1.1104 1.20913 10.1155 18.1636
386 2 2.2208 5.30263 8.7825 19.5492
389 1 -1.1104 1.15672 9.97103 15.3304
397 2 2.2208 2.5203 11.5057 19.4519
400 2 2.2208 2.72565 8.64536 16.6846
402 1 -1.1104 4.19055 10.1235 17.992
405 1 -1.1104 4.00388 10.1841 15.2648
438 1 -1.1104 0.971068 12.8578 18.3094
442 1 -1.1104 1.1483 12.8446 15.5359
458 1 -1.1104 4.03064 12.8268 18.1008
461 1 -1.1104 3.97803 12.9642 14.9824
406 1 -1.1104 3.82451 9.98024 21.0312
465 2 2.2208 2.6422 14.3939 16.6584
499 2 2.2208 8.15109 17.3711 13.8063
9425 2 2.2208 -0.371389 14.1145 25.1668
9078 2 2.2208 -0.209551 20.1057 24.9731
393 1 -1.1104 6.70276 10.2468 15.1281
394 1 -1.1104 6.8534 10.2315 20.6426
440 1 -1.1104 6.78093 12.8559 18.0067
385 1 -1.1104 6.72473 10.2025 17.7783
446 1 -1.1104 6.97269 13.0939 14.9823
411 2 2.2208 11.2812 11.4217 16.6626
416 1 -1.1104 12.6737 9.9185 18.0038
417 2 2.2208 11.1665 8.73254 19.7314
420 1 -1.1104 12.6171 10.136 15.2286
424 2 2.2208 8.4452 11.489 19.525
427 2 2.2208 8.34357 8.81671 16.7114
429 1 -1.1104 9.85986 10.1685 18.1369
432 1 -1.1104 9.59821 10.0393 15.3631
474 1 -1.1104 12.565 12.8755 17.9744
476 1 -1.1104 12.7262 13.1744 15.3868
485 1 -1.1104 9.66503 12.8569 18.1974
488 1 -1.1104 9.82051 12.9641 15.1755
421 1 -1.1104 12.4757 10.1032 20.9846
447 1 -1.1104 6.9688 13.0572 20.9097
436 2 2.2208 8.2847 11.4465 13.909
435 2 2.2208 11.2266 8.71131 13.9534
9419 2 2.2208 -0.292815 17.0622 16.6236
452 2 2.2208 5.47776 14.2785 19.5317
437 2 2.2208 5.49922 17.2472 16.5493
439 1 -1.1104 1.15066 18.7144 18.147
444 1 -1.1104 1.06802 18.4631 15.199
450 1 -1.1104 1.03963 15.777 18.0886
453 2 2.2208 5.22101 19.9558 19.3749
454 1 -1.1104 1.36854 15.8455 14.9885
459 1 -1.1104 4.05247 18.4851 17.7619
460 2 2.2208 2.50823 17.1282 19.3313
463 1 -1.1104 3.81445 18.4974 14.986
466 2 2.2208 2.61639 20.0097 16.6763
467 1 -1.1104 4.13365 15.7056 18.0878
468 1 -1.1104 4.34539 15.6229 15.3192
469 1 -1.1104 3.80583 15.8291 20.9679
455 1 -1.1104 1.14815 15.9491 20.9861
339 2 2.2208 2.55749 0.181719 13.6564
9416 2 2.2208 -0.273986 -2.47633 19.4317
9423 2 2.2208 -0.268775 14.4734 19.5494
9199 2 2.2208 -0.230626 8.6685 13.7724
456 1 -1.1104 6.98127 15.9217 15.1117
441 1 -1.1104 6.63548 18.5269 17.8882
448 1 -1.1104 6.60747 18.8849 15.3079
451 1 -1.1104 6.74088 15.6348 18.2122
481 2 2.2208 11.0988 14.3058 19.4852
492 2 2.2208 8.31551 14.3097 16.5837
473 2 2.2208 10.9146 17.2628 16.685
475 1 -1.1104 12.2017 18.4447 18.2305
478 1 -1.1104 12.1935 18.7849 15.165
480 1 -1.1104 12.4711 15.4164 18.2911
482 2 2.2208 11.0341 20.0643 19.5281
483 1 -1.1104 12.3743 15.9244 15.5783
486 1 -1.1104 9.55836 18.446 18.2556
487 2 2.2208 8.1201 17.31 19.518
490 1 -1.1104 9.44276 18.4794 15.3614
493 2 2.2208 8.21373 20.0409 16.505
494 1 -1.1104 9.78046 15.6225 18.1147
495 1 -1.1104 9.63136 15.7126 15.327
479 1 -1.1104 12.2249 18.2846 21.0997
408 2 2.2208 5.52135 8.67723 13.8657
323 1 -1.1104 3.94978 -4.06977 20.774
558 1 -1.1104 12.2659 15.744 23.7105
9272 2 2.2208 -0.0149498 0.100853 22.1506
330 1 -1.1104 4.16246 -1.23573 20.9296
9297 2 2.2208 -0.193841 -2.5213 25.1836
304 1 -1.1104 1.20389 -4.02202 21.0636
501 2 2.2208 5.3841 0.171377 22.3872
502 1 -1.1104 0.995052 -3.94668 23.692
506 1 -1.1104 1.03291 -4.04778 26.4903
510 1 -1.1104 1.44197 -1.00852 23.7352
512 2 2.2208 5.44481 -2.64864 25.233
514 1 -1.1104 1.1772 -1.36236 26.5975
516 1 -1.1104 3.6406 -3.93239 23.5307
518 2 2.2208 2.54456 0.287885 25.2464
519 1 -1.1104 3.97173 -3.94577 26.4786
521 2 2.2208 2.53776 -2.55035 22.2093
523 1 -1.1104 4.19562 -1.11536 23.973
524 1 -1.1104 3.92148 -1.33777 26.574
357 1 -1.1104 9.70916 -3.91675 20.8899
352 1 -1.1104 12.9171 -1.22293 20.9623
318 1 -1.1104 6.9266 -1.12694 21.0955
515 1 -1.1104 7.05677 -1.33099 26.5171
511 1 -1.1104 7.00889 -1.12005 23.8148
364 1 -1.1104 9.81898 -1.17262 20.8322
508 1 -1.1104 6.7946 -4.2656 26.5033
345 1 -1.1104 12.6726 -3.90193 20.942
504 1 -1.1104 6.82995 -4.03903 23.8626
537 2 2.2208 11.0071 0.268432 22.3979
538 1 -1.1104 12.6285 -4.0574 23.7956
540 1 -1.1104 12.6414 -4.12232 26.6747
542 1 -1.1104 12.5488 -1.152 23.7081
543 2 2.2208 11.2191 -2.57184 25.1846
545 1 -1.1104 12.5376 -1.18442 26.5585
546 1 -1.1104 9.71059 -4.02051 23.6639
548 2 2.2208 8.26418 0.294465 25.2314
549 1 -1.1104 9.81722 -3.78852 26.5662
551 2 2.2208 8.26028 -2.72222 22.3437
553 1 -1.1104 9.70856 -1.21298 23.6989
554 1 -1.1104 9.74435 -1.13832 26.6904
534 1 -1.1104 12.2374 18.3914 23.8666
404 1 -1.1104 4.09016 4.64971 21.0455
379 1 -1.1104 1.03541 7.24827 20.8996
325 1 -1.1104 3.96788 1.67507 21.1219
9374 2 2.2208 -0.253297 5.91548 22.348
306 1 -1.1104 1.21285 1.66337 20.9672
503 1 -1.1104 1.26584 1.67355 23.8522
507 1 -1.1104 1.23379 1.46994 26.6887
513 2 2.2208 5.34219 3.05753 25.1842
517 1 -1.1104 3.83086 1.73354 23.8617
520 1 -1.1104 3.97509 1.60435 26.6643
522 2 2.2208 2.44717 3.12726 22.3839
566 2 2.2208 5.52806 5.87994 22.457
568 1 -1.1104 1.33101 7.36081 23.9014
572 1 -1.1104 1.17438 4.58239 23.7021
577 1 -1.1104 1.00565 4.40614 26.8446
581 1 -1.1104 4.03091 7.30627 23.7965
582 2 2.2208 2.64982 5.90139 25.239
586 1 -1.1104 3.91125 4.47183 23.8629
588 1 -1.1104 3.99395 4.31953 26.5637
570 1 -1.1104 1.15735 7.08099 26.7791
584 1 -1.1104 3.97408 7.01208 26.7132
579 1 -1.1104 6.69239 4.30668 26.6626
569 1 -1.1104 6.66373 7.2475 23.7782
571 1 -1.1104 6.82255 7.33361 26.4445
381 1 -1.1104 6.78029 7.24298 20.9374
562 2 2.2208 11.0393 14.2934 25.3341
310 1 -1.1104 6.93108 1.67008 20.9702
509 1 -1.1104 6.85867 1.54103 26.4262
505 1 -1.1104 6.93807 1.85827 23.5895
347 1 -1.1104 12.396 1.79769 21.1521
426 1 -1.1104 9.70515 7.38986 21.0819
392 1 -1.1104 6.92872 4.46036 21.0596
574 1 -1.1104 6.88183 4.64055 23.695
359 1 -1.1104 9.67202 1.58519 21.0841
414 1 -1.1104 12.5893 7.20054 20.9655
431 1 -1.1104 9.60506 4.55828 20.953
539 1 -1.1104 12.4444 1.69473 23.7703
541 1 -1.1104 12.5363 1.54453 26.6177
544 2 2.2208 10.8974 2.86443 25.3512
547 1 -1.1104 9.73308 1.63055 23.809
550 1 -1.1104 9.74016 1.49866 26.6896
552 2 2.2208 8.17859 3.06346 22.4719
598 1 -1.1104 9.45577 4.18681 26.7997
600 1 -1.1104 9.74005 4.2647 24.1185
602 1 -1.1104 9.66116 7.24755 26.4972
604 2 2.2208 8.1219 5.81772 25.1279
605 2 2.2208 11.015 5.73354 22.4113
607 1 -1.1104 12.2373 7.19557 23.7881
609 1 -1.1104 12.5506 4.65826 23.7849
612 1 -1.1104 12.3131 4.14626 26.5239
608 1 -1.1104 12.4064 7.12935 26.6816
614 1 -1.1104 9.40906 7.07273 23.6707
8498 2 2.2208 2.34693 -5.26214 25.1407
9422 2 2.2208 -0.195155 17.411 22.4789
462 1 -1.1104 3.81204 13.021 20.806
9436 2 2.2208 -0.218531 11.3775 22.3294
443 1 -1.1104 1.16505 13.1162 21.033
390 1 -1.1104 1.20158 10.166 21.0271
567 2 2.2208 5.48363 11.6469 22.2669
573 1 -1.1104 1.20467 10.1625 23.7942
576 2 2.2208 5.43264 8.79375 25.1898
578 1 -1.1104 1.05426 10.1347 26.5703
583 2 2.2208 2.52848 11.5788 25.0655
585 2 2.2208 2.4801 8.52902 22.2769
587 1 -1.1104 4.1942 10.2652 23.9755
589 1 -1.1104 3.86008 9.98762 26.7973
532 1 -1.1104 4.09338 12.8513 26.5402
619 1 -1.1104 1.28551 12.8312 23.8272
623 1 -1.1104 4.14887 12.926 23.6929
627 1 -1.1104 1.17925 12.8104 26.3667
622 1 -1.1104 6.80093 12.7018 26.4275
489 1 -1.1104 9.52442 13.033 21.0712
433 1 -1.1104 9.64025 10.1173 21.0062
477 1 -1.1104 12.4605 12.8612 21.0491
580 1 -1.1104 6.98988 10.1175 26.326
631 1 -1.1104 6.84524 12.8511 23.5087
575 1 -1.1104 6.95112 10.0434 23.2973
533 1 -1.1104 12.3953 12.8916 23.9053
597 1 -1.1104 9.60451 10.0814 26.455
599 1 -1.1104 9.71 10.0163 23.789
601 2 2.2208 8.23765 8.62022 22.4111
603 2 2.2208 8.09163 11.3941 25.0497
606 2 2.2208 11.0075 11.5896 22.4667
610 1 -1.1104 12.4249 10.1923 23.8996
611 2 2.2208 10.9858 8.5911 25.1686
613 1 -1.1104 12.3819 10.0233 26.427
535 1 -1.1104 12.5457 12.6957 26.7205
560 1 -1.1104 9.61791 12.7435 26.5445
565 1 -1.1104 9.65847 12.8376 23.7589
9431 2 2.2208 -0.311307 11.5387 16.6546
449 1 -1.1104 6.48914 18.6326 20.8046
445 1 -1.1104 0.839226 18.5439 20.8855
564 1 -1.1104 12.1784 15.5039 26.7724
629 2 2.2208 5.26133 19.9581 25.0697
626 1 -1.1104 1.16123 15.4231 26.3825
625 1 -1.1104 1.1692 18.232 26.3052
464 1 -1.1104 3.63561 18.7121 20.5245
367 2 2.2208 2.5272 14.2693 22.4169
630 2 2.2208 5.49488 14.2533 25.1141
368 2 2.2208 2.58705 20.0905 22.0683
369 1 -1.1104 4.06443 15.5982 23.7593
530 1 -1.1104 1.02389 15.9443 23.7091
559 1 -1.1104 4.04406 15.6676 26.496
594 2 2.2208 2.49776 17.3115 24.9183
595 1 -1.1104 3.94186 18.3917 26.304
618 2 2.2208 5.31819 17.0957 22.248
620 1 -1.1104 1.15184 18.7867 23.6874
621 1 -1.1104 3.80436 18.5226 23.404
338 2 2.2208 5.32565 -2.49091 13.973
484 1 -1.1104 12.6173 15.57 20.9811
334 1 -1.1104 9.4674 15.671 26.6316
496 1 -1.1104 9.49879 15.9739 20.9061
593 1 -1.1104 9.42637 18.7989 23.6894
561 1 -1.1104 9.62228 18.5229 26.6876
332 2 2.2208 7.97178 19.9327 22.2317
531 1 -1.1104 6.84543 15.8024 23.8182
457 1 -1.1104 6.71264 15.7141 20.9643
624 1 -1.1104 6.95872 15.32 26.4416
628 1 -1.1104 6.57078 18.6196 23.5498
331 2 2.2208 8.18277 14.3435 22.2927
491 1 -1.1104 9.45239 18.7994 20.8744
536 1 -1.1104 12.3654 18.4061 26.5714
529 2 2.2208 10.8598 17.1151 22.3281
335 1 -1.1104 6.66924 18.5023 26.5149
596 2 2.2208 8.26156 17.1492 25.2251
563 2 2.2208 11.0519 19.866 25.2641
333 1 -1.1104 9.60994 15.7426 23.8744
470 2 2.2208 2.49235 17.2135 13.7584
471 2 2.2208 5.32645 20.1106 13.7534
8712 2 2.2208 2.56609 -5.38255 19.5753
8639 2 2.2208 8.26034 -5.07911 13.8989
9269 2 2.2208 -0.268808 19.9002 13.7087
592 2 2.2208 5.48455 11.4625 27.8298
9227 2 2.2208 13.6411 20.0099 16.7475
9435 2 2.2208 -0.188924 8.63241 25.1828
8446 2 2.2208 11.0311 -5.2914 22.2442
17408 2 2.2208 -0.160928 -5.31367 16.7927
366 2 2.2208 2.60719 19.771 27.6499
337 2 2.2208 2.68102 14.2506 27.7784
9424 2 2.2208 -0.249784 17.1903 27.7231
632 2 2.2208 5.20675 22.7017 5.20165
634 1 -1.1104 1.09904 24.3091 0.821037
635 1 -1.1104 1.10474 23.9833 3.58388
636 1 -1.1104 1.13281 21.2647 0.798806
638 2 2.2208 5.15888 25.54 2.46605
639 1 -1.1104 0.996321 21.2619 3.69159
641 1 -1.1104 3.66139 24.2137 1.01063
642 2 2.2208 2.33104 22.5796 2.25492
644 1 -1.1104 3.89284 24.2624 4.08822
645 2 2.2208 2.66808 25.6505 5.27661
646 1 -1.1104 3.8751 21.2848 0.867472
648 1 -1.1104 3.8876 21.4898 3.65507
647 1 -1.1104 3.71777 26.9697 1.09359
779 1 -1.1104 4.01141 24.1347 6.95263
637 1 -1.1104 1.06577 27.1539 0.961978
640 1 -1.1104 1.28649 26.9357 3.68381
778 1 -1.1104 7.04242 26.642 6.40999
773 1 -1.1104 1.26743 24.205 6.56875
9759 2 2.2208 -0.423486 39.5656 10.7715
1296 1 -1.1104 3.92466 46.4964 3.75774
775 1 -1.1104 1.27179 21.3185 6.51917
781 1 -1.1104 4.13237 27.2659 6.63154
776 1 -1.1104 1.19977 26.9935 6.39379
991 2 2.2208 7.91656 28.3532 13.5473
654 1 -1.1104 6.83271 24.0498 3.83621
655 1 -1.1104 6.80654 21.2238 0.920446
656 1 -1.1104 6.70705 27.1199 0.904134
657 1 -1.1104 6.70636 21.3038 3.77812
653 1 -1.1104 6.76247 24.2 1.22446
658 1 -1.1104 6.79129 26.8838 3.62567
659 2 2.2208 11.1892 22.6458 5.46768
661 1 -1.1104 12.6452 24.1632 1.05156
662 1 -1.1104 12.2855 23.8772 3.71305
663 1 -1.1104 12.3618 21.1789 1.14592
665 2 2.2208 11.1571 25.3082 2.35404
666 1 -1.1104 12.335 21.2103 4.03639
668 1 -1.1104 9.47392 23.9573 0.965155
669 2 2.2208 8.12183 22.5737 2.5135
671 1 -1.1104 9.64466 23.9834 3.71851
672 2 2.2208 8.3209 25.3078 4.99122
673 1 -1.1104 9.52911 21.1329 0.961788
675 1 -1.1104 9.5777 21.2471 3.92751
664 1 -1.1104 12.7125 26.9175 0.823093
676 1 -1.1104 9.64181 26.8399 3.58831
667 1 -1.1104 12.6506 26.5856 3.68089
810 1 -1.1104 9.65451 21.3532 6.67226
674 1 -1.1104 9.72469 26.8016 0.96192
809 1 -1.1104 9.88705 24.2932 6.60637
811 1 -1.1104 10.003 27.007 6.44621
774 1 -1.1104 6.80414 24.0592 6.31531
9750 2 2.2208 -0.399627 31.3311 2.28226
649 1 -1.1104 3.94162 27.085 3.83603
633 2 2.2208 5.62281 28.3669 5.20326
643 2 2.2208 2.61868 28.5166 2.42045
681 1 -1.1104 1.13862 29.9363 1.20403
684 1 -1.1104 1.12751 29.7419 3.91483
687 1 -1.1104 1.18303 32.712 0.936929
688 2 2.2208 5.48518 31.1473 2.42118
690 1 -1.1104 1.03913 32.609 3.62231
692 1 -1.1104 4.08159 29.7422 1.09154
695 1 -1.1104 4.05556 29.8016 3.90241
697 2 2.2208 2.55102 31.2662 5.19849
699 1 -1.1104 3.89075 32.6738 0.803928
700 1 -1.1104 4.03618 32.5794 3.91868
706 1 -1.1104 6.68043 32.6941 0.835767
691 1 -1.1104 6.93371 32.4906 3.89805
830 1 -1.1104 1.28297 32.5356 6.71162
826 1 -1.1104 1.25062 29.5235 6.70487
828 1 -1.1104 6.93531 29.6466 6.64292
9660 2 2.2208 -0.387703 33.9498 10.7578
1469 1 -1.1104 6.47589 46.8839 6.51598
704 1 -1.1104 6.75087 29.8572 1.12565
831 1 -1.1104 6.74914 32.6583 6.8777
705 1 -1.1104 6.87752 29.8474 3.8126
660 2 2.2208 11.2122 28.3224 5.11266
670 2 2.2208 8.1307 28.4313 2.41347
708 1 -1.1104 12.4441 29.9468 1.25676
710 1 -1.1104 12.6882 29.6724 3.82137
712 1 -1.1104 12.4257 32.8953 0.814803
713 2 2.2208 10.9389 31.0895 2.354
715 1 -1.1104 12.4074 32.6655 3.82611
716 1 -1.1104 9.6253 29.7896 0.848149
719 1 -1.1104 9.79828 29.5193 3.61929
721 2 2.2208 8.12117 31.201 5.52887
723 1 -1.1104 9.32275 32.5829 1.00304
724 1 -1.1104 9.55653 32.5374 3.656
860 1 -1.1104 12.5009 29.8585 6.52809
862 1 -1.1104 12.6182 32.5521 6.67862
9754 2 2.2208 -0.34198 45.3516 5.13113
9625 2 2.2208 -0.284848 25.562 7.97567
10122 2 2.2208 -0.135037 42.4655 13.6217
1477 1 -1.1104 6.66205 46.812 9.24445
694 2 2.2208 2.67237 34.0003 2.27628
680 2 2.2208 5.47574 34.1742 5.41487
682 1 -1.1104 1.28863 35.3245 0.826138
685 1 -1.1104 1.00438 35.6768 3.37737
689 2 2.2208 5.48685 36.8014 2.39326
693 1 -1.1104 4.01122 35.5133 0.934528
696 1 -1.1104 3.88396 35.3904 3.58949
698 2 2.2208 2.47366 36.8596 5.30671
726 2 2.2208 5.19097 39.675 4.99284
732 1 -1.1104 1.05168 38.2795 1.05167
737 1 -1.1104 1.02009 38.5319 3.92351
746 1 -1.1104 3.87897 38.2492 0.843863
748 1 -1.1104 3.80034 38.3895 3.95217
742 2 2.2208 2.5667 39.5844 2.29415
686 1 -1.1104 6.79064 35.4376 3.88862