ITEM: TIMESTEP
90000
ITEM: NUMBER OF ATOMS
17760
ITEM: BOX BOUNDS pp pp pp
-4.6476534119170387e-01 2.7804765341191477e+01
-5.3306919377993438e+00 3.3341069193781419e+02
-4.4812537781957190e-01 2.7788125377818837e+01
ITEM: ATOMS id type q x y z
1 2 2.2208 5.45288 0.39288 5.02874
2 1 -1.1104 1.29473 -3.99905 0.982085
6 1 -1.1104 1.3133 -4.20472 3.81508
10 1 -1.1104 1.33551 -1.04166 0.735799
12 2 2.2208 5.5002 -2.49262 2.10891
14 1 -1.1104 1.2572 -1.12118 3.53715
16 1 -1.1104 4.33189 -4.01774 0.766379
18 2 2.2208 2.6866 0.264755 2.17168
19 1 -1.1104 4.21553 -4.1478 3.49515
21 2 2.2208 2.74402 -2.59658 5.13052
23 1 -1.1104 4.20158 -1.09313 0.667012
24 1 -1.1104 4.24423 -1.27372 3.42879
9037 2 2.2208 -0.0827161 -2.47177 2.36411
9052 2 2.2208 -0.122645 -2.56024 7.87969
9040 2 2.2208 -0.19136 0.298165 5.0697
338 2 2.2208 5.48648 -2.60981 13.4823
174 1 -1.1104 3.9789 -1.00767 6.38095
170 1 -1.1104 1.41612 -1.21269 6.58506
436 2 2.2208 8.4193 11.6618 13.3089
9268 2 2.2208 -0.316786 14.5342 13.5023
8 1 -1.1104 7.13596 -4.03923 3.62106
4 1 -1.1104 7.08969 -3.94683 0.919673
11 1 -1.1104 6.91355 -1.10074 0.893756
15 1 -1.1104 7.0346 -1.10415 3.9874
31 2 2.2208 11.1243 0.276845 5.08516
32 1 -1.1104 12.6383 -4.02278 0.783697
34 1 -1.1104 12.5022 -4.07639 3.7232
36 1 -1.1104 12.6388 -1.41031 0.981421
37 2 2.2208 11.1875 -2.84893 2.1613
39 1 -1.1104 12.8433 -1.25492 3.95839
40 1 -1.1104 9.8186 -4.09044 0.736108
42 2 2.2208 8.38671 0.0757988 2.37404
43 1 -1.1104 9.72648 -4.0239 3.64524
45 2 2.2208 8.42872 -2.57688 5.15986
47 1 -1.1104 9.72069 -1.39585 0.849608
48 1 -1.1104 9.83608 -1.14931 3.66543
409 2 2.2208 2.53566 11.3464 13.4388
171 1 -1.1104 7.09317 -1.34152 6.56834
205 1 -1.1104 12.4452 -3.88648 6.44279
8899 2 2.2208 -0.165492 0.164509 10.8524
8341 2 2.2208 2.66529 -5.31168 7.87459
9127 2 2.2208 -0.145699 3.14193 13.3929
201 1 -1.1104 9.72387 15.9709 11.912
470 2 2.2208 2.69646 17.214 13.4336
3 1 -1.1104 1.15836 1.60569 0.947041
7 1 -1.1104 1.21482 1.57323 3.66663
13 2 2.2208 5.58406 2.99118 2.1401
17 1 -1.1104 4.03296 1.75805 0.691811
20 1 -1.1104 3.94659 1.74933 3.63051
22 2 2.2208 2.47574 3.02584 5.21212
54 2 2.2208 5.32896 5.96245 5.03153
60 1 -1.1104 1.15378 4.51285 0.82086
67 1 -1.1104 1.141 4.64548 3.96459
72 2 2.2208 2.78989 5.90714 2.18865
76 1 -1.1104 4.11699 4.62059 0.633795
79 1 -1.1104 4.03514 4.52477 3.52841
71 1 -1.1104 4.09397 7.32548 0.959287
56 1 -1.1104 1.55708 7.29148 0.817927
74 1 -1.1104 4.06679 7.362 3.6197
58 1 -1.1104 1.21382 7.47365 3.98218
9199 2 2.2208 0.0694829 8.87959 13.6574
63 1 -1.1104 7.15994 4.28349 0.8528
9041 2 2.2208 -0.015843 2.99983 2.49411
234 1 -1.1104 1.30193 7.26634 6.73951
238 1 -1.1104 4.063 7.15583 6.55128
27 1 -1.1104 12.4151 19.0837 12.0254
9 1 -1.1104 6.99128 1.76834 3.66567
5 1 -1.1104 6.80589 1.39841 0.914948
69 1 -1.1104 6.88313 4.52138 3.6809
57 1 -1.1104 6.93028 7.31156 0.976128
59 1 -1.1104 6.7972 7.39874 3.55069
33 1 -1.1104 12.4093 1.36366 1.16447
35 1 -1.1104 12.695 1.5929 3.80556
38 2 2.2208 11.2799 2.9892 2.19671
41 1 -1.1104 9.71867 1.64576 0.830136
44 1 -1.1104 9.74928 1.67812 3.56023
46 2 2.2208 8.18439 3.14162 5.13459
84 2 2.2208 10.9648 5.99734 5.19788
86 1 -1.1104 12.4224 7.32828 0.882562
87 1 -1.1104 12.448 7.04687 3.73162
88 1 -1.1104 12.6651 4.36653 0.866641
92 1 -1.1104 12.4961 4.48128 3.78823
95 2 2.2208 8.3836 5.90033 2.27079
99 1 -1.1104 10.0725 4.5308 0.937581
102 1 -1.1104 9.66419 4.5142 3.62201
97 1 -1.1104 9.69002 7.25612 3.472
94 1 -1.1104 9.79836 7.27726 0.663818
237 1 -1.1104 6.92311 4.59601 6.56565
266 1 -1.1104 12.4145 4.56305 6.55966
269 1 -1.1104 9.52203 4.62198 6.52188
267 1 -1.1104 9.48551 7.45681 6.28225
265 1 -1.1104 12.3585 7.28506 6.37587
555 2 2.2208 11.2199 0.16059 -0.390385
9047 2 2.2208 0.0584469 8.6936 2.35412
55 2 2.2208 5.54237 11.5208 4.97143
61 1 -1.1104 1.05784 10.1553 0.920239
66 2 2.2208 5.54232 8.88871 2.26262
68 1 -1.1104 1.47934 10.1819 3.58402
73 2 2.2208 2.60427 11.7116 2.3318
75 2 2.2208 2.95872 8.74991 5.07675
77 1 -1.1104 4.18702 10.1808 0.630565
80 1 -1.1104 4.24319 10.1013 3.51854
107 1 -1.1104 1.1112 12.9145 0.848192
113 1 -1.1104 1.27552 13.0603 3.79389
123 1 -1.1104 4.19466 13.008 0.752346
128 1 -1.1104 4.20208 12.9163 3.53704
145 1 -1.1104 12.5589 18.5677 6.47995
64 1 -1.1104 6.95728 10.3326 0.739437
130 2 2.2208 2.90559 14.5575 5.31158
9048 2 2.2208 -0.00356808 11.6265 5.00412
288 1 -1.1104 6.92503 18.5827 9.4242
163 1 -1.1104 9.55777 15.7962 6.40452
408 2 2.2208 5.5949 8.71428 13.571
70 1 -1.1104 6.92167 10.2224 3.57495
115 1 -1.1104 6.86549 12.8581 3.70308
110 1 -1.1104 6.7989 13.1061 0.777049
85 2 2.2208 11.1561 11.6586 4.98757
89 1 -1.1104 12.563 10.1059 0.800563
91 2 2.2208 11.0629 8.60937 2.2551
93 1 -1.1104 12.5301 9.98842 3.65531
96 2 2.2208 8.16055 11.6077 2.24855
98 2 2.2208 8.29869 8.80494 4.90601
100 1 -1.1104 9.84453 9.91202 0.758033
103 1 -1.1104 9.66747 10.1831 3.6525
142 1 -1.1104 12.546 12.8254 0.726014
146 1 -1.1104 12.6615 12.8712 3.59594
153 1 -1.1104 9.55449 12.8423 0.799645
158 1 -1.1104 9.66183 13.0463 3.51247
154 1 -1.1104 9.79348 12.9955 6.41646
9051 2 2.2208 -0.304824 20.0462 2.31924
119 2 2.2208 5.64664 14.5181 2.2704
106 2 2.2208 5.36084 17.3198 5.31422
109 1 -1.1104 1.24013 18.596 0.952655
114 1 -1.1104 1.32867 18.4948 3.56727
116 1 -1.1104 1.35102 15.9005 1.03953
120 2 2.2208 5.49429 20.2374 2.528
121 1 -1.1104 1.26808 15.6999 3.89223
125 1 -1.1104 4.01225 18.7222 0.91247
127 2 2.2208 2.79294 17.3099 2.40832
129 1 -1.1104 4.09911 18.7166 3.78344
131 2 2.2208 2.79603 20.2088 5.26036
132 1 -1.1104 4.26144 15.8724 0.657187
134 1 -1.1104 4.23146 15.8034 3.75025
9042 2 2.2208 -0.0290488 17.2501 4.89604
139 1 -1.1104 6.85864 18.902 3.66619
9045 2 2.2208 -0.0988943 14.2704 2.27534
126 1 -1.1104 4.09295 18.9508 6.6008
435 2 2.2208 11.295 8.90165 13.4872
336 2 2.2208 -0.0732084 -2.5683 13.5378
289 1 -1.1104 6.89924 15.8138 9.34991
122 1 -1.1104 6.99997 15.848 3.75449
138 1 -1.1104 6.88491 18.5805 0.88497
140 1 -1.1104 7.07026 15.8585 0.904001
160 2 2.2208 8.26114 14.3428 4.92075
150 2 2.2208 11.0975 14.3005 2.24868
141 2 2.2208 11.0659 17.1743 5.13173
144 1 -1.1104 12.5729 18.4127 0.795493
147 1 -1.1104 12.4805 18.597 3.86054
148 1 -1.1104 12.6917 15.6655 0.836464
151 2 2.2208 11.2564 19.9348 2.25514
152 1 -1.1104 12.5286 15.6875 3.58505
155 1 -1.1104 9.8953 18.5489 0.901566
157 2 2.2208 8.36475 17.3492 2.3931
159 1 -1.1104 9.60264 18.8659 3.77557
161 2 2.2208 8.16081 20.1335 5.30356
162 1 -1.1104 9.8716 15.7213 0.975745
164 1 -1.1104 9.75818 15.8134 3.69791
497 2 2.2208 11.0694 20.3385 13.5582
199 2 2.2208 8.28481 20.0972 10.794
471 2 2.2208 5.46337 19.9905 13.678
229 1 -1.1104 9.84511 15.9738 9.14132
166 1 -1.1104 1.27558 -4.00486 6.65019
172 1 -1.1104 4.07428 -4.08029 6.38397
175 2 2.2208 5.50663 0.263575 10.891
176 1 -1.1104 1.16935 -3.83746 12.076
180 1 -1.1104 1.50856 -3.87452 9.39574
184 1 -1.1104 1.27579 -1.17543 12.2359
186 2 2.2208 5.47776 -2.4581 7.81932
188 1 -1.1104 1.2136 -1.17256 9.33848
190 1 -1.1104 3.88954 -3.82517 12.0568
192 2 2.2208 2.67591 0.155098 8.01131
193 1 -1.1104 4.15195 -4.05795 9.18099
195 2 2.2208 2.70145 -2.46851 10.7861
197 1 -1.1104 4.09193 -1.13455 12.0789
198 1 -1.1104 4.0866 -1.08108 9.26762
372 2 2.2208 11.1352 -2.59325 13.527
105 2 2.2208 8.18073 17.224 7.90716
53 2 2.2208 11.1799 14.3307 7.93308
168 1 -1.1104 6.84743 -3.93506 6.51459
9046 2 2.2208 -0.103344 5.95305 5.17443
156 1 -1.1104 9.45937 18.7312 6.69913
208 1 -1.1104 9.90382 -4.16744 6.11519
185 1 -1.1104 6.81251 -0.948689 12.1634
182 1 -1.1104 6.92005 -3.73645 9.18177
207 1 -1.1104 12.6368 -1.13642 6.47398
189 1 -1.1104 6.84916 -1.11419 9.37566
178 1 -1.1104 6.83261 -3.97824 11.9832
210 1 -1.1104 9.78232 -1.01927 6.53155
211 2 2.2208 11.2312 0.411791 10.8794
212 1 -1.1104 12.5083 -4.11378 12.0077
214 1 -1.1104 12.4596 -4.11727 9.16381
216 1 -1.1104 12.5838 -1.19173 12.0108
217 2 2.2208 11.0912 -2.48333 7.81972
219 1 -1.1104 12.2956 -1.10757 9.27511
220 1 -1.1104 9.51351 -3.85003 12.2699
222 2 2.2208 8.34049 0.348464 8.02577
223 1 -1.1104 9.82168 -3.88053 9.16423
225 2 2.2208 8.34261 -2.42086 10.7137
227 1 -1.1104 9.63981 -0.845508 11.8747
228 1 -1.1104 9.59829 -1.07203 9.26146
118 1 -1.1104 6.92566 15.9343 6.42436
8968 2 2.2208 -0.00685011 6.01 10.7644
173 1 -1.1104 3.81506 1.62681 6.53032
167 1 -1.1104 1.21204 1.56908 6.39758
8933 2 2.2208 -0.120021 3.05925 8.02157
239 1 -1.1104 4.1664 4.48015 6.48079
236 1 -1.1104 1.39561 4.45319 6.73618
177 1 -1.1104 1.44083 1.75105 11.8957
181 1 -1.1104 1.28554 1.62738 9.19404
187 2 2.2208 5.41267 2.9934 8.02968
191 1 -1.1104 4.16821 1.7503 12.2563
194 1 -1.1104 4.14803 1.6777 9.56204
196 2 2.2208 2.77045 3.189 10.79
240 2 2.2208 5.73352 5.91814 10.6634
242 1 -1.1104 1.50293 7.47686 12.37
246 1 -1.1104 1.37897 4.57538 12.1909
251 1 -1.1104 1.22129 4.47315 9.51852
256 2 2.2208 2.62681 5.86532 8.00316
260 1 -1.1104 4.32059 4.68729 12.1037
262 1 -1.1104 3.95834 4.39997 9.27092
258 1 -1.1104 4.1676 7.33344 9.12173
244 1 -1.1104 1.52401 7.44162 9.37823
255 1 -1.1104 4.37613 7.39576 12.153
149 1 -1.1104 12.4664 15.9044 6.54355
209 1 -1.1104 9.68395 1.83021 6.52837
112 1 -1.1104 6.73992 18.8511 6.63726
206 1 -1.1104 12.539 1.63636 6.54301
235 1 -1.1104 6.54312 7.41685 6.28405
248 1 -1.1104 7.03068 4.64426 12.4789
179 1 -1.1104 6.9619 1.79505 12.3508
245 1 -1.1104 6.93745 7.37154 9.36593
253 1 -1.1104 6.9169 4.39593 9.42541
183 1 -1.1104 6.87762 1.66879 9.4982
169 1 -1.1104 6.66192 1.60775 6.40016
243 1 -1.1104 7.12916 7.26184 12.2058
213 1 -1.1104 12.8548 1.81694 11.9625
215 1 -1.1104 12.5795 1.63899 9.26846
218 2 2.2208 11.1125 3.1296 7.91285
221 1 -1.1104 9.803 1.84888 12.1757
224 1 -1.1104 9.86615 1.75389 9.35177
226 2 2.2208 8.39112 3.06623 10.9161
268 1 -1.1104 9.62982 4.4906 9.30783
271 1 -1.1104 9.6979 4.52049 12.1087
275 2 2.2208 8.19702 6.09921 8.05387
276 2 2.2208 11.2294 6.00292 10.6778
278 1 -1.1104 12.8853 7.41078 12.0816
280 1 -1.1104 12.3293 4.74713 12.2294
283 1 -1.1104 12.5451 4.41956 9.26126
285 1 -1.1104 9.8419 7.62145 12.2153
279 1 -1.1104 12.6293 7.37519 9.12728
273 1 -1.1104 9.89243 7.43206 9.22775
8960 2 2.2208 0.0620822 11.5485 10.7489
124 1 -1.1104 4.41175 13.0589 6.23879
62 1 -1.1104 1.19268 10.1224 6.46127
78 1 -1.1104 4.01282 10.1189 6.55001
108 1 -1.1104 1.25427 13.2499 6.66326
241 2 2.2208 5.3335 11.8363 10.7602
247 1 -1.1104 1.16277 10.2391 12.2302
250 2 2.2208 5.58912 8.81316 7.89675
252 1 -1.1104 1.37265 10.2052 9.39955
257 2 2.2208 2.62338 11.5222 7.85684
259 2 2.2208 2.77637 8.66975 10.7603
261 1 -1.1104 4.15379 10.1934 12.1513
263 1 -1.1104 4.24136 10.0846 9.42406
136 1 -1.1104 1.32942 12.9239 12.1268
202 1 -1.1104 3.80102 12.9311 9.36893
287 1 -1.1104 4.01657 13.213 12.0087
294 1 -1.1104 1.15607 12.8574 9.34669
65 1 -1.1104 7.01838 9.94565 6.48618
249 1 -1.1104 6.98359 10.2372 12.3605
8967 2 2.2208 -0.0474623 8.69714 7.90264
499 2 2.2208 8.18529 17.183 13.6296
111 1 -1.1104 7.00357 12.9746 6.63618
90 1 -1.1104 12.7918 10.4305 6.20303
297 1 -1.1104 6.68746 13.0044 12.1265
101 1 -1.1104 9.85487 10.1908 6.30846
143 1 -1.1104 12.7079 13.0654 6.55301
290 1 -1.1104 7.04264 12.8968 9.44803
254 1 -1.1104 7.01357 10.0391 9.33532
135 1 -1.1104 9.5506 13.2856 9.19713
264 1 -1.1104 9.72684 10.2151 9.21319
270 1 -1.1104 9.80888 10.2869 12.0856
272 2 2.2208 8.32063 8.79101 10.9581
274 2 2.2208 8.40828 11.5532 7.90897
277 2 2.2208 11.1574 11.5068 10.6692
281 1 -1.1104 12.8299 10.2893 12.078
282 2 2.2208 11.2072 8.72591 7.67333
284 1 -1.1104 12.7065 10.0954 9.00336
83 1 -1.1104 9.77982 13.0203 11.9261
26 1 -1.1104 12.6544 13.0917 12.1831
30 1 -1.1104 12.3847 13.0389 9.57256
8765 2 2.2208 -0.129605 14.3946 8.06243
8739 2 2.2208 -0.211042 19.9396 8.05043
231 1 -1.1104 1.69606 18.5715 6.29786
8740 2 2.2208 -0.308034 17.2713 10.8633
117 1 -1.1104 1.53155 15.9798 6.59305
133 1 -1.1104 4.1227 15.8438 6.88425
295 2 2.2208 5.71882 14.3245 8.01148
230 2 2.2208 2.45569 14.4888 10.7761
293 2 2.2208 5.41246 20.2003 8.06589
28 2 2.2208 2.68818 20.0874 10.8819
29 1 -1.1104 4.13265 15.8886 12.2725
51 1 -1.1104 1.2249 15.9117 12.0699
200 1 -1.1104 1.0981 18.7154 12.1545
203 1 -1.1104 4.09729 15.8077 9.46949
204 2 2.2208 2.60077 17.2963 8.04413
232 1 -1.1104 4.02767 18.5097 9.24407
233 2 2.2208 5.40373 17.3031 10.6818
286 1 -1.1104 3.87201 18.7292 11.95
291 1 -1.1104 1.20895 18.8765 9.36336
292 1 -1.1104 1.19835 15.6607 9.31937
296 1 -1.1104 6.70427 18.6193 12.0404
49 1 -1.1104 12.7079 18.674 9.19191
52 1 -1.1104 6.75712 15.674 12.3773
50 1 -1.1104 12.4281 15.9247 12.2009
165 2 2.2208 8.21808 14.4538 10.8126
82 1 -1.1104 12.7268 15.8398 9.37317
25 2 2.2208 11.3086 17.3342 10.6421
81 2 2.2208 11.1381 20.0824 7.97411
137 1 -1.1104 9.72292 18.5621 9.45631
104 1 -1.1104 9.49246 19.0096 12.4039
498 2 2.2208 11.3331 14.6003 13.4592
9424 2 2.2208 0.0126162 17.1782 -0.382316
339 2 2.2208 2.78496 0.396471 13.5613
373 2 2.2208 11.2562 3.09388 13.4277
370 2 2.2208 8.35296 14.4496 -0.385711
590 2 2.2208 5.70734 5.93588 -0.282946
9085 2 2.2208 -0.173875 11.6184 -0.420133
340 2 2.2208 5.55094 3.1781 13.6305
434 2 2.2208 8.53077 5.91168 13.6474
298 2 2.2208 5.3702 0.143104 16.4812
299 1 -1.1104 1.35351 -3.98756 17.9242
303 1 -1.1104 1.30119 -4.04645 14.9142
311 1 -1.1104 1.06458 -1.27454 17.9947
313 2 2.2208 5.7756 -2.71796 19.3196
315 1 -1.1104 1.44608 -1.16018 15.0988
319 1 -1.1104 4.28254 -4.0113 17.8609
321 2 2.2208 2.85959 0.234621 19.4326
322 1 -1.1104 3.99813 -3.97704 14.8901
326 2 2.2208 2.47884 -2.68893 16.4018
328 1 -1.1104 3.97075 -1.1832 17.9344
329 1 -1.1104 4.13329 -1.07452 14.9692
9416 2 2.2208 0.0389264 -2.35247 19.5377
9415 2 2.2208 -0.129217 0.291165 16.4687
331 2 2.2208 8.51199 14.2874 21.8777
316 1 -1.1104 1.57369 -0.994912 20.8599
323 1 -1.1104 4.20178 -3.83897 20.713
330 1 -1.1104 4.47799 -1.00538 20.6656
9271 2 2.2208 -0.108778 3.25418 24.8517
317 1 -1.1104 6.82592 -1.18305 14.9714
301 1 -1.1104 6.84085 -3.98145 17.8164
312 1 -1.1104 7.13526 -1.2281 17.9694
307 1 -1.1104 6.90055 -3.87527 14.7534
341 2 2.2208 11.3455 0.350309 16.3244
342 1 -1.1104 12.3881 -3.78154 17.5377
344 1 -1.1104 12.5469 -4.11181 14.8668
348 1 -1.1104 12.661 -1.03938 17.7855
349 2 2.2208 11.0988 -2.55811 19.1693
351 1 -1.1104 12.6994 -1.18038 14.9754
353 1 -1.1104 9.56161 -3.88628 17.8192
355 2 2.2208 8.50986 0.303848 19.1832
356 1 -1.1104 9.80883 -3.91819 14.9781
360 2 2.2208 8.41647 -2.53584 16.3101
362 1 -1.1104 9.8934 -1.12829 17.7615
363 1 -1.1104 9.92245 -1.17536 14.8959
318 1 -1.1104 7.45012 -1.15052 20.7243
500 2 2.2208 11.2157 17.085 27.6919
308 1 -1.1104 7.27978 -3.8943 20.8698
345 1 -1.1104 12.6086 -4.00712 20.5199
364 1 -1.1104 10.2254 -1.37022 20.9439
9196 2 2.2208 -0.114959 5.97096 16.4141
300 1 -1.1104 1.32809 1.5597 17.5768
305 1 -1.1104 1.21239 1.69917 14.8345
314 2 2.2208 5.47247 3.19463 19.2259
320 1 -1.1104 4.22398 1.77041 18.0529
324 1 -1.1104 4.07009 1.70951 15.1459
327 2 2.2208 2.61356 3.04125 16.3132
374 2 2.2208 5.46685 5.85786 16.3495
382 1 -1.1104 1.30209 4.65574 17.6185
387 1 -1.1104 1.29317 4.35326 14.7772
395 1 -1.1104 4.09637 7.28381 17.7577
396 2 2.2208 2.74985 6.08257 19.4768
401 1 -1.1104 3.97475 4.65296 18.0343
403 1 -1.1104 4.03735 4.50663 15.1752
378 1 -1.1104 1.38282 7.1376 15.0887
376 1 -1.1104 1.09742 7.23015 17.8533
9123 2 2.2208 0.103084 3.16592 19.1895
398 1 -1.1104 4.0937 7.38838 15.0414
484 1 -1.1104 12.7957 15.8303 20.8334
325 1 -1.1104 4.43092 1.81173 20.7082
592 2 2.2208 5.62354 11.5492 27.5013
337 2 2.2208 2.95452 14.5194 27.741
309 1 -1.1104 7.00593 1.54794 15.0998
377 1 -1.1104 7.0776 7.42338 17.6851
302 1 -1.1104 7.01136 1.55406 17.8759
384 1 -1.1104 6.92542 4.70188 17.999
380 1 -1.1104 6.85803 7.18509 14.9852
391 1 -1.1104 6.87083 4.48933 15.2581
343 1 -1.1104 12.7864 1.74659 17.6823
346 1 -1.1104 12.7712 1.57893 14.7216
350 2 2.2208 11.3493 3.21291 19.1973
354 1 -1.1104 9.95853 1.6008 17.8058
358 1 -1.1104 9.95613 1.63788 14.8413
361 2 2.2208 8.39584 3.00025 16.4854
410 2 2.2208 11.3197 5.76564 16.3509
415 1 -1.1104 12.7028 4.54655 17.6144
418 1 -1.1104 12.8146 4.33562 14.8237
423 2 2.2208 8.38477 5.77398 19.2585
425 1 -1.1104 9.74492 7.46643 14.8121
428 1 -1.1104 9.76903 4.38886 17.8854
430 1 -1.1104 10.0168 4.51133 14.8698
413 1 -1.1104 12.3604 7.2428 14.8162
422 1 -1.1104 9.91017 7.10564 17.7159
412 1 -1.1104 12.8548 7.07358 17.5808
392 1 -1.1104 7.01256 4.67255 20.759
359 1 -1.1104 10.0983 1.7666 20.3945
419 1 -1.1104 12.6121 4.53231 20.7867
531 1 -1.1104 6.99048 15.6559 23.3235
375 2 2.2208 5.57756 11.4188 16.3188
383 1 -1.1104 1.22105 10.0631 17.7225
386 2 2.2208 5.54792 8.79436 19.1307
389 1 -1.1104 1.51665 10.044 14.9355
397 2 2.2208 2.69285 11.4166 19.3434
400 2 2.2208 2.614 8.50152 16.4918
402 1 -1.1104 4.0715 10.0585 17.7702
405 1 -1.1104 4.23555 9.97271 15.0587
438 1 -1.1104 1.26695 12.901 17.8751
442 1 -1.1104 1.10414 12.8778 15.0407
458 1 -1.1104 3.90024 12.8385 17.6678
461 1 -1.1104 4.09894 12.7457 14.966
616 2 2.2208 8.2959 8.62615 27.5121
9431 2 2.2208 -0.112155 11.5331 16.4603
9429 2 2.2208 -0.161761 8.90608 19.2713
8713 2 2.2208 5.54667 -5.27648 16.4503
556 2 2.2208 8.56091 -2.41521 27.5952
9299 2 2.2208 -0.0186722 0.206753 27.7664
385 1 -1.1104 7.07257 10.227 17.7333
393 1 -1.1104 7.09358 10.2084 14.8788
446 1 -1.1104 6.98809 12.9028 15.004
440 1 -1.1104 6.89331 12.9371 17.7052
411 2 2.2208 11.3631 11.4465 16.3334
416 1 -1.1104 12.5254 9.93972 17.8073
417 2 2.2208 11.1274 8.58879 19.0058
420 1 -1.1104 12.8199 10.2074 14.6817
424 2 2.2208 8.50737 11.5179 19.0805
427 2 2.2208 8.26568 8.81831 16.2332
429 1 -1.1104 9.78459 9.96345 17.7262
432 1 -1.1104 9.9115 10.2163 15.0361
474 1 -1.1104 12.6887 12.7829 17.7615
476 1 -1.1104 12.8655 13.1104 14.8516
485 1 -1.1104 9.97316 12.7597 17.708
488 1 -1.1104 10.004 13.1729 14.9268
489 1 -1.1104 9.77015 13.1243 20.4124
8427 2 2.2208 8.58475 -5.33687 24.8676
9265 2 2.2208 0.0246103 19.894 19.4347
596 2 2.2208 8.55407 16.9387 24.9071
9423 2 2.2208 -0.0289671 14.2154 19.2077
465 2 2.2208 2.65329 14.2484 16.2994
452 2 2.2208 5.45966 14.4143 19.0795
437 2 2.2208 5.40876 17.18 16.3273
439 1 -1.1104 1.29604 18.7669 17.9007
444 1 -1.1104 1.49282 18.6689 14.9422
450 1 -1.1104 1.30854 15.9578 17.6266
453 2 2.2208 5.52434 20.0228 19.3284
454 1 -1.1104 1.21973 15.6816 14.8231
459 1 -1.1104 4.04572 18.6081 17.9246
460 2 2.2208 2.69505 17.1203 19.1723
463 1 -1.1104 4.22885 18.6497 14.994
466 2 2.2208 2.80016 20.0189 16.4376
467 1 -1.1104 4.21152 15.6799 17.7456
468 1 -1.1104 4.13869 15.8914 14.8845
9419 2 2.2208 -0.157254 17.2339 16.3235
617 2 2.2208 11.08 11.3119 27.6733
455 1 -1.1104 1.43711 15.6653 20.4945
464 1 -1.1104 4.15282 18.3379 20.5728
366 2 2.2208 2.73716 19.9964 27.7873
525 2 2.2208 5.45612 0.304113 27.4848
492 2 2.2208 8.35797 14.2503 16.3511
456 1 -1.1104 6.83994 15.632 14.9474
448 1 -1.1104 6.95434 18.7866 14.9314
451 1 -1.1104 7.12321 15.8632 17.6898
441 1 -1.1104 6.78248 18.6581 17.6889
481 2 2.2208 11.1059 14.4239 18.87
473 2 2.2208 11.1785 17.0315 16.3116
475 1 -1.1104 12.5163 18.371 17.7692
478 1 -1.1104 12.6748 18.9247 14.9415
480 1 -1.1104 12.602 15.8186 17.7411
482 2 2.2208 11.0845 19.8093 19.318
483 1 -1.1104 12.7259 15.9852 14.9082
486 1 -1.1104 9.69321 18.7398 17.8102
487 2 2.2208 8.32224 17.3311 19.1259
490 1 -1.1104 9.85216 18.3768 15.0536
493 2 2.2208 8.37615 20.0269 16.5392
494 1 -1.1104 9.76603 15.5885 17.5067
495 1 -1.1104 9.77101 15.8019 14.6976
491 1 -1.1104 9.88781 18.4912 20.8108
479 1 -1.1104 12.7482 18.5137 20.6411
591 2 2.2208 2.84961 8.76913 27.7949
9297 2 2.2208 0.0724277 -2.79869 24.9509
449 1 -1.1104 6.96479 18.3861 20.6175
9079 2 2.2208 -0.296024 5.9147 27.6568
9435 2 2.2208 -0.174228 8.78233 25.1119
9272 2 2.2208 0.0882602 0.37493 22.175
304 1 -1.1104 1.59618 -4.04514 20.9401
501 2 2.2208 5.83629 0.213584 21.9822
502 1 -1.1104 1.26457 -4.15492 23.6233
506 1 -1.1104 1.5135 -4.01122 26.3702
510 1 -1.1104 1.19549 -1.38306 23.4953
512 2 2.2208 5.41964 -2.61489 24.6846
514 1 -1.1104 1.46162 -1.24871 26.372
516 1 -1.1104 4.20239 -4.17353 23.5175
518 2 2.2208 2.63821 0.32313 24.7874
519 1 -1.1104 4.21612 -3.83191 26.3358
521 2 2.2208 2.82622 -2.66296 21.99
523 1 -1.1104 4.15996 -1.32929 23.3736
524 1 -1.1104 4.14889 -1.31995 26.1443
562 2 2.2208 11.23 14.3628 24.7676
352 1 -1.1104 12.8123 -1.10185 20.5969
357 1 -1.1104 9.87741 -4.02133 20.7814
508 1 -1.1104 7.04124 -3.83588 26.2736
504 1 -1.1104 6.91855 -3.95166 23.636
511 1 -1.1104 7.17299 -1.09483 23.5194
515 1 -1.1104 7.18866 -0.955842 26.3969
537 2 2.2208 11.3772 0.154047 22.086
538 1 -1.1104 12.7504 -3.97092 23.3199
540 1 -1.1104 12.8453 -4.25516 26.292
542 1 -1.1104 12.7771 -1.12126 23.6344
543 2 2.2208 11.4322 -2.6569 24.8747
545 1 -1.1104 12.685 -1.36032 26.4303
546 1 -1.1104 9.94517 -3.98394 23.5704
548 2 2.2208 8.56593 0.108985 24.8169
549 1 -1.1104 10.0273 -3.94573 26.2697
551 2 2.2208 8.56457 -2.60235 22.193
553 1 -1.1104 10.0577 -1.1845 23.6352
554 1 -1.1104 10.083 -1.08632 26.368
9374 2 2.2208 -0.0450556 6.11769 22.0728
379 1 -1.1104 1.31965 7.35978 20.8387
404 1 -1.1104 4.09481 4.52807 20.7066
399 1 -1.1104 4.11341 7.49896 20.5897
388 1 -1.1104 1.32417 4.53255 20.6762
306 1 -1.1104 1.46861 1.8 20.5181
503 1 -1.1104 1.45973 1.97151 23.4548
507 1 -1.1104 1.33343 1.54321 26.4162
513 2 2.2208 5.60817 3.00504 24.7588
517 1 -1.1104 4.05577 1.4966 23.1751
520 1 -1.1104 4.10905 1.58364 25.788
522 2 2.2208 2.86166 3.10257 22.0798
566 2 2.2208 5.62302 5.87217 22.0891
568 1 -1.1104 1.57172 7.5019 23.6692
572 1 -1.1104 1.26051 4.72045 23.6182
577 1 -1.1104 1.35009 4.46939 26.4578
581 1 -1.1104 4.13897 7.13289 23.5531
582 2 2.2208 2.77258 5.91006 25.1322
586 1 -1.1104 4.24408 4.55118 23.479
588 1 -1.1104 4.31535 4.2643 26.2128
570 1 -1.1104 1.043 7.46972 26.4706
584 1 -1.1104 4.19042 7.17735 26.3754
371 2 2.2208 8.34868 0.270692 13.8083
310 1 -1.1104 7.22357 1.91404 20.7642
431 1 -1.1104 10.0308 4.43281 20.7349
381 1 -1.1104 6.99724 7.36923 20.7284
569 1 -1.1104 6.93828 6.98404 23.3844
426 1 -1.1104 9.82931 7.31946 20.4014
414 1 -1.1104 12.637 7.33312 20.3527
509 1 -1.1104 6.93647 1.70512 26.3803
574 1 -1.1104 7.10432 4.3031 23.4387
579 1 -1.1104 7.08803 4.39161 26.2694
505 1 -1.1104 7.36461 1.57781 23.5657
347 1 -1.1104 12.6112 1.8163 20.9168
571 1 -1.1104 6.86105 7.15149 26.4512
539 1 -1.1104 12.7167 1.513 23.7427
541 1 -1.1104 12.6609 1.51793 26.4978
544 2 2.2208 11.3508 2.92051 24.8425
547 1 -1.1104 10.1747 1.69868 23.2074
550 1 -1.1104 9.76669 1.59988 26.1787
552 2 2.2208 8.49981 3.08402 22.1391
598 1 -1.1104 9.87954 4.48833 26.1647
600 1 -1.1104 9.79792 4.39627 23.5073
604 2 2.2208 8.39083 5.83813 24.9698
605 2 2.2208 11.2056 5.90568 22.2789
609 1 -1.1104 12.6228 4.45856 23.6343
612 1 -1.1104 12.7906 4.46277 26.314
608 1 -1.1104 12.5589 7.20712 26.3267
602 1 -1.1104 9.69115 7.4544 26.163
614 1 -1.1104 9.80829 7.25692 23.3246
607 1 -1.1104 12.67 7.22864 23.5729
557 2 2.2208 8.32156 2.93352 27.6096
406 1 -1.1104 4.21604 10.1018 20.6044
443 1 -1.1104 1.50612 12.8757 20.6791
9436 2 2.2208 0.0474572 11.5499 22.2261
462 1 -1.1104 4.35288 12.8157 20.814
390 1 -1.1104 1.32579 10.0512 20.6145
567 2 2.2208 5.69013 11.4068 22.0364
573 1 -1.1104 1.50776 10.3727 23.533
576 2 2.2208 5.46833 8.63988 24.8392
578 1 -1.1104 1.18801 10.3666 26.2854
583 2 2.2208 2.85623 11.4862 24.9437
585 2 2.2208 2.99129 8.79431 22.0724
587 1 -1.1104 4.36955 10.0449 23.5761
589 1 -1.1104 4.18038 10.0704 26.1806
532 1 -1.1104 4.08159 13.0581 26.0098
619 1 -1.1104 1.43977 12.9546 23.588
623 1 -1.1104 4.16755 12.6168 23.4868
627 1 -1.1104 1.43263 13.2691 26.4565
528 2 2.2208 8.37038 19.9442 27.7239
477 1 -1.1104 12.3654 12.9607 20.5929
433 1 -1.1104 9.82892 10.189 20.4721
394 1 -1.1104 7.13614 10.0773 20.4685
447 1 -1.1104 7.25285 12.7166 20.5855
421 1 -1.1104 12.8732 10.0977 20.8518
575 1 -1.1104 7.03185 10.1427 23.5957
622 1 -1.1104 6.65035 12.6548 25.9424
631 1 -1.1104 7.14775 13.0062 23.3879
580 1 -1.1104 6.93797 9.93683 26.3425
533 1 -1.1104 12.6916 12.7718 23.1794
597 1 -1.1104 9.53881 10.1868 26.3645
599 1 -1.1104 9.79632 10.0631 23.4094
601 2 2.2208 8.3184 8.71404 21.8578
603 2 2.2208 8.31581 11.5101 25.0031
606 2 2.2208 11.2784 11.4433 22.0099
610 1 -1.1104 12.7717 10.0301 23.5215
611 2 2.2208 11.1615 8.58175 24.6751
613 1 -1.1104 12.4999 9.92559 26.4012
535 1 -1.1104 12.145 12.6378 26.024
560 1 -1.1104 9.52472 13.0467 26.2254
565 1 -1.1104 9.94114 12.7644 23.3002
628 1 -1.1104 7.07949 18.3263 23.5728
445 1 -1.1104 1.42491 18.7028 20.5891
469 1 -1.1104 4.17838 15.643 20.4428
9078 2 2.2208 -0.118092 19.8603 25.0469
624 1 -1.1104 7.09809 15.6723 26.2804
9422 2 2.2208 0.0939058 17.1685 22.1029
9425 2 2.2208 0.1061 14.3666 24.9845
621 1 -1.1104 4.3685 18.4304 23.5261
620 1 -1.1104 1.35265 18.5312 23.5978
618 2 2.2208 5.5924 16.9564 21.8413
594 2 2.2208 2.78361 17.1596 24.8982
530 1 -1.1104 1.37803 15.758 23.6264
369 1 -1.1104 4.26307 15.6398 23.2523
559 1 -1.1104 4.44123 15.8631 26.0885
368 2 2.2208 2.77438 19.8803 22.2102
625 1 -1.1104 1.38609 18.5738 26.2733
595 1 -1.1104 4.21289 18.5446 26.2304
630 2 2.2208 5.68443 14.235 24.6549
367 2 2.2208 2.83856 14.1444 21.8633
629 2 2.2208 5.67321 19.7921 24.861
626 1 -1.1104 1.43821 15.8292 26.4764
561 1 -1.1104 9.93706 18.7183 26.3033
332 2 2.2208 8.55401 19.854 22.1973
563 2 2.2208 11.4014 20.1038 24.9184
457 1 -1.1104 7.17267 15.6252 20.4305
333 1 -1.1104 9.83532 15.7801 23.3192
536 1 -1.1104 12.7192 18.4506 26.1279
496 1 -1.1104 9.85978 15.886 20.4435
8639 2 2.2208 8.46156 -5.33135 13.6536
334 1 -1.1104 9.9114 15.7673 26.5081
534 1 -1.1104 12.6302 18.5641 23.5864
593 1 -1.1104 9.90872 18.6477 23.6252
564 1 -1.1104 12.6713 15.5708 26.2547
335 1 -1.1104 7.02777 18.4931 26.2829
529 2 2.2208 11.2749 17.224 22.1033
558 1 -1.1104 12.499 15.6728 23.5397
527 2 2.2208 2.72948 3.05546 27.6562
526 2 2.2208 2.96083 -2.60369 27.7338
365 2 2.2208 5.67333 17.2977 27.6683
472 2 2.2208 5.39425 14.4337 13.6575
615 2 2.2208 11.3477 5.8053 27.6861
407 2 2.2208 2.9745 5.80883 13.6615
9269 2 2.2208 0.0737106 20.0992 13.7351
632 2 2.2208 5.57731 22.9048 5.31027
634 1 -1.1104 1.19643 24.1203 0.983644
635 1 -1.1104 1.4392 24.2562 3.58443
636 1 -1.1104 1.27363 21.3232 0.95969
638 2 2.2208 5.32879 25.6274 2.39932
639 1 -1.1104 1.24738 21.3043 4.0246
641 1 -1.1104 4.04259 24.0883 1.21987
642 2 2.2208 2.59976 22.8164 2.32048
644 1 -1.1104 4.01874 24.126 4.02903
645 2 2.2208 2.69503 25.5488 5.15387
646 1 -1.1104 4.20965 21.3696 0.761645
648 1 -1.1104 4.07176 21.7303 3.84329
649 1 -1.1104 3.79253 26.9299 3.64922
647 1 -1.1104 4.00328 27.1442 0.972402
640 1 -1.1104 1.04576 26.9364 3.93974
637 1 -1.1104 0.91765 26.9658 0.98424
9746 2 2.2208 -0.306654 22.6309 4.9981
776 1 -1.1104 1.15269 27.0388 6.66247
9743 2 2.2208 -0.266964 25.5953 2.37728
1486 1 -1.1104 3.95856 46.5322 12.2857
779 1 -1.1104 4.10879 24.2026 6.82785
9588 2 2.2208 13.646 28.474 7.82697
657 1 -1.1104 7.18297 21.4659 3.67895
777 1 -1.1104 6.89916 21.5898 6.55307
655 1 -1.1104 6.98085 21.2473 0.982962
658 1 -1.1104 6.87603 27.077 3.77486
653 1 -1.1104 6.79003 23.953 0.897082
654 1 -1.1104 6.86188 24.338 3.65309
774 1 -1.1104 6.88178 24.3257 6.75061
659 2 2.2208 11.2851 22.8603 5.16154
661 1 -1.1104 12.4926 23.9874 0.781665
662 1 -1.1104 12.6086 24.157 3.43235
663 1 -1.1104 12.4927 21.4273 0.831756
665 2 2.2208 11.1179 25.5627 2.05328
666 1 -1.1104 12.6142 21.169 3.55614
668 1 -1.1104 9.53573 24.1841 0.951108
669 2 2.2208 8.51489 22.8584 2.27029
671 1 -1.1104 9.69672 24.2359 3.87139
672 2 2.2208 8.30755 25.6281 5.10192
673 1 -1.1104 9.78551 21.2543 1.00541
675 1 -1.1104 9.87014 21.631 4.01267
667 1 -1.1104 12.5128 26.952 3.51462
674 1 -1.1104 9.43248 27.181 0.985377
664 1 -1.1104 12.3656 27.1249 0.947719
656 1 -1.1104 6.48825 26.9741 1.16769
807 1 -1.1104 12.657 21.3516 6.44895
811 1 -1.1104 9.86964 27.1415 6.43329
806 1 -1.1104 12.661 24.4694 6.42212
1501 1 -1.1104 9.49643 46.6037 6.74744
1292 1 -1.1104 4.03111 46.8022 1.09858
633 2 2.2208 5.51397 28.4422 5.27958
643 2 2.2208 2.3525 28.312 2.24062
681 1 -1.1104 1.00211 29.8821 0.765582
684 1 -1.1104 1.15353 29.6417 3.61818
687 1 -1.1104 1.25078 32.652 0.81924
688 2 2.2208 5.32935 31.2218 2.403
690 1 -1.1104 1.2303 32.5473 3.75535
692 1 -1.1104 3.72454 29.8067 1.05625
695 1 -1.1104 4.07502 29.7594 3.79104
697 2 2.2208 2.44944 31.1816 5.00077
699 1 -1.1104 4.09015 32.6377 1.01747
700 1 -1.1104 3.9709 32.6533 3.84477
9750 2 2.2208 -0.22517 31.2169 2.35914
9745 2 2.2208 -0.177461 28.3683 5.25027
834 1 -1.1104 3.91788 32.6429 6.56885
1507 1 -1.1104 12.4336 46.7917 12.4065
808 1 -1.1104 12.5151 27.2664 6.38103
676 1 -1.1104 9.47326 27.0146 3.56808
705 1 -1.1104 7.01559 29.9876 3.73998
828 1 -1.1104 6.85049 29.8183 6.69158
704 1 -1.1104 6.65483 29.7137 1.05963
691 1 -1.1104 6.71552 32.9662 3.68426
706 1 -1.1104 6.78604 32.7568 0.870939
660 2 2.2208 11.1139 28.486 4.78994
670 2 2.2208 8.08416 28.4223 2.37151
708 1 -1.1104 12.5618 29.8947 0.907007
710 1 -1.1104 12.7539 30.0774 3.7218
712 1 -1.1104 12.5529 32.8451 1.08316
713 2 2.2208 11.1621 31.1947 2.26789
715 1 -1.1104 12.4143 32.815 3.60627
716 1 -1.1104 9.70357 29.9009 0.596713
719 1 -1.1104 9.83483 29.6982 3.19483
721 2 2.2208 8.20051 31.1962 5.19855
723 1 -1.1104 9.63757 32.8256 0.922059
724 1 -1.1104 9.54362 32.55 3.69462
1277 1 -1.1104 0.9966 46.8199 3.81187
778 1 -1.1104 6.79825 27.2061 6.62193
862 1 -1.1104 12.2128 32.6663 6.44852
865 1 -1.1104 9.39024 32.6976 6.40694
694 2 2.2208 2.37912 34.02 2.40814
680 2 2.2208 5.50871 34.1097 5.21433
682 1 -1.1104 1.1396 35.4929 1.15272
685 1 -1.1104 1.23155 35.3307 3.93486
689 2 2.2208 5.27269 36.8907 2.45863
693 1 -1.1104 3.92558 35.3324 1.07594
696 1 -1.1104 3.99014 35.5474 3.78114
698 2 2.2208 2.65227 36.7669 5.19543
726 2 2.2208 5.48546 39.6148 5.5121
732 1 -1.1104 1.23059 38.3083 1.00745
737 1 -1.1104 1.13449 38.1251 3.90655
746 1 -1.1104 4.01599 38.0956 1.21885
748 1 -1.1104 3.84099 38.158 3.94554
742 2 2.2208 2.50622 39.6548 2.78103
927 2 2.2208 -0.311995 39.4327 5.40393
926 2 2.2208 -0.330763 36.7336 2.59856
1470 1 -1.1104 4.04592 46.6111 6.73039
925 2 2.2208 -0.194094 33.886 5.25776
1230 2 2.2208 8.28626 31.2236 -0.496966
686 1 -1.1104 6.8809 35.5923 3.98429