ITEM: TIMESTEP
50000
ITEM: NUMBER OF ATOMS
17760
ITEM: BOX BOUNDS pp pp pp
-4.5701644171795486e-01 2.7797016441717908e+01
-5.4205578304384758e+00 3.3350055783045411e+02
-4.5945670097575286e-01 2.7799456700975487e+01
ITEM: ATOMS id type q x y z
1 2 2.2208 5.38222 0.219075 4.99545
2 1 -1.1104 1.31113 -3.95909 1.09663
6 1 -1.1104 1.37557 -4.13682 3.7668
10 1 -1.1104 1.11115 -1.19586 0.717832
12 2 2.2208 5.47202 -2.65214 2.24749
14 1 -1.1104 0.997573 -1.24989 3.75629
16 1 -1.1104 4.1632 -4.03844 0.809719
18 2 2.2208 2.53414 0.333937 2.4126
19 1 -1.1104 4.15877 -4.09725 3.63055
21 2 2.2208 2.59192 -2.70367 5.11636
23 1 -1.1104 4.00049 -1.0881 0.842873
24 1 -1.1104 3.92057 -1.21869 3.58952
9037 2 2.2208 -0.338716 -2.48606 2.06892
170 1 -1.1104 1.20646 -1.07914 6.41307
174 1 -1.1104 3.87897 -1.4158 6.7686
9040 2 2.2208 -0.391193 0.210982 5.0843
166 1 -1.1104 1.0942 -4.09576 6.60397
172 1 -1.1104 4.01656 -4.08299 6.46062
11 1 -1.1104 6.76642 -1.18472 0.878016
8 1 -1.1104 7.0536 -3.91065 4.12436
15 1 -1.1104 6.66889 -0.91484 3.5212
4 1 -1.1104 7.05069 -3.8249 0.743991
31 2 2.2208 10.8882 0.22782 5.15626
32 1 -1.1104 12.4579 -4.24605 1.06973
34 1 -1.1104 12.4547 -3.98534 3.94918
36 1 -1.1104 12.4353 -1.15678 0.991
37 2 2.2208 11.0165 -2.5226 2.35522
39 1 -1.1104 12.2685 -1.0218 3.78753
40 1 -1.1104 9.55637 -4.04367 1.18085
42 2 2.2208 7.95137 0.422719 2.16211
43 1 -1.1104 9.73004 -3.78513 3.91298
45 2 2.2208 8.25653 -2.477 5.25477
47 1 -1.1104 9.67349 -1.05775 0.50648
48 1 -1.1104 9.50707 -1.00924 3.54841
207 1 -1.1104 12.5654 -1.20966 6.67077
168 1 -1.1104 6.95094 -3.84943 6.87517
210 1 -1.1104 9.76196 -1.17725 6.52143
205 1 -1.1104 12.4846 -4.06764 6.75285
208 1 -1.1104 9.81536 -3.73229 6.49609
171 1 -1.1104 7.01124 -0.960111 6.5595
104 1 -1.1104 9.57117 18.6472 12.172
340 2 2.2208 5.4443 3.08382 13.5226
9046 2 2.2208 -0.44114 5.89422 5.0937
3 1 -1.1104 1.08095 1.86878 0.801692
7 1 -1.1104 1.08519 1.74733 3.9725
13 2 2.2208 5.27739 3.22415 2.42836
17 1 -1.1104 3.80015 1.56397 1.03048
20 1 -1.1104 4.0683 1.53481 3.75269
22 2 2.2208 2.40161 3.14267 5.20077
54 2 2.2208 5.39687 5.75266 5.20546
60 1 -1.1104 1.08863 4.49236 0.866126
67 1 -1.1104 1.07712 4.48203 3.80895
72 2 2.2208 2.42477 5.80836 2.32964
76 1 -1.1104 3.88739 4.57707 0.775565
79 1 -1.1104 3.83289 4.38952 3.73703
56 1 -1.1104 1.39675 7.36738 0.973326
74 1 -1.1104 4.07121 7.10462 3.83412
58 1 -1.1104 1.02994 7.18564 3.61308
71 1 -1.1104 4.21489 7.44426 0.992136
9041 2 2.2208 -0.36975 3.02623 2.39074
239 1 -1.1104 3.9988 4.37295 6.34381
173 1 -1.1104 3.95688 1.47378 6.49533
234 1 -1.1104 1.09983 7.41249 6.33845
236 1 -1.1104 1.04257 4.51986 6.47427
238 1 -1.1104 3.90918 7.32173 6.47984
167 1 -1.1104 1.23785 1.93482 6.75382
57 1 -1.1104 6.73797 7.55308 0.758812
69 1 -1.1104 6.80105 4.48549 3.68673
9 1 -1.1104 6.70639 1.81479 3.53173
59 1 -1.1104 6.9098 7.26105 3.74129
63 1 -1.1104 6.64378 4.57771 0.842134
5 1 -1.1104 6.48806 1.78484 0.718895
33 1 -1.1104 12.3518 1.79141 0.856334
35 1 -1.1104 12.4009 1.87491 3.61031
38 2 2.2208 11.1144 3.12881 2.18511
41 1 -1.1104 9.55133 1.71087 0.86217
44 1 -1.1104 9.45953 1.69177 3.76113
46 2 2.2208 8.21386 3.07316 5.04688
84 2 2.2208 10.9856 5.89656 5.24805
86 1 -1.1104 12.3977 7.36217 0.845892
87 1 -1.1104 12.4986 7.21395 3.81867
88 1 -1.1104 12.3275 4.56743 0.788919
92 1 -1.1104 12.5602 4.44249 3.6676
94 1 -1.1104 9.78007 7.18562 0.946695
95 2 2.2208 8.25844 5.95436 2.25195
99 1 -1.1104 9.45218 4.45984 0.742048
102 1 -1.1104 9.64898 4.55547 3.62294
97 1 -1.1104 9.55862 7.41668 3.74354
209 1 -1.1104 9.7014 1.67894 6.47384
266 1 -1.1104 12.7036 4.62876 6.43374
269 1 -1.1104 9.5358 4.37812 6.6027
267 1 -1.1104 9.68205 7.10317 6.71473
206 1 -1.1104 12.4938 1.67356 6.67341
237 1 -1.1104 6.80332 4.45737 6.57917
235 1 -1.1104 6.69844 7.09962 6.79472
265 1 -1.1104 12.3376 7.3725 6.63999
169 1 -1.1104 6.82646 1.65212 6.22008
9047 2 2.2208 -0.0731737 8.7835 2.29027
55 2 2.2208 5.35903 11.5795 4.99389
61 1 -1.1104 1.06042 10.1992 0.759945
66 2 2.2208 5.41447 8.76625 2.30054
68 1 -1.1104 1.21589 10.1828 3.5769
73 2 2.2208 2.61158 11.6354 2.30092
75 2 2.2208 2.61188 8.63621 4.99292
77 1 -1.1104 4.16919 10.1757 0.922173
80 1 -1.1104 3.98385 10.1609 3.5207
107 1 -1.1104 0.915686 12.9234 0.851571
113 1 -1.1104 1.09501 13.0213 3.83062
123 1 -1.1104 3.7298 13.0657 0.769427
128 1 -1.1104 3.95679 12.7727 3.68217
9048 2 2.2208 -0.291999 11.4883 5.12186
62 1 -1.1104 1.30334 10.179 6.49933
108 1 -1.1104 0.897734 13.0579 6.4706
78 1 -1.1104 4.06071 10.019 6.3639
124 1 -1.1104 3.79931 12.9786 6.46953
70 1 -1.1104 6.714 10.2378 3.6718
115 1 -1.1104 6.62651 13.0362 3.81872
64 1 -1.1104 7.00288 10.2168 0.662969
110 1 -1.1104 6.63043 13.0801 0.939196
85 2 2.2208 10.9003 11.4004 5.02383
89 1 -1.1104 12.4714 10.3354 0.999556
91 2 2.2208 10.933 8.72027 2.33206
93 1 -1.1104 12.2596 10.0576 3.66749
96 2 2.2208 8.15354 11.452 2.23576
98 2 2.2208 8.12163 8.59371 5.04457
100 1 -1.1104 9.66691 10.1861 0.821063
103 1 -1.1104 9.66221 10.0195 3.73421
142 1 -1.1104 12.3754 13.0422 0.695516
146 1 -1.1104 12.4177 13.1375 3.58573
153 1 -1.1104 9.6465 12.8867 0.809114
158 1 -1.1104 9.61765 12.8693 3.51458
65 1 -1.1104 6.763 9.89288 6.44319
154 1 -1.1104 9.35531 12.9554 6.33324
90 1 -1.1104 12.2348 10.2354 6.57176
111 1 -1.1104 6.72508 12.878 6.6632
101 1 -1.1104 9.56052 10.0017 6.44878
9045 2 2.2208 -0.225333 14.4686 2.43077
9042 2 2.2208 -0.444096 17.2774 4.96867
119 2 2.2208 5.13872 14.4517 2.26332
130 2 2.2208 2.3482 14.5458 5.19585
106 2 2.2208 5.24647 17.2026 4.99104
109 1 -1.1104 1.2757 18.6472 0.654041
114 1 -1.1104 1.04006 18.7234 3.81085
116 1 -1.1104 1.23546 15.6485 0.958899
120 2 2.2208 5.33656 20.0945 2.05154
121 1 -1.1104 0.955987 15.9461 3.68406
125 1 -1.1104 4.01141 18.7689 0.678687
127 2 2.2208 2.57919 17.3692 2.25668
129 1 -1.1104 3.7289 18.4027 3.58098
131 2 2.2208 2.50979 20.0987 4.95979
132 1 -1.1104 3.94381 16.0433 0.833566
134 1 -1.1104 3.69246 15.8517 3.76911
9051 2 2.2208 -0.348864 20.1114 2.19949
126 1 -1.1104 4.07073 18.642 6.48746
117 1 -1.1104 1.03329 15.9186 6.3848
231 1 -1.1104 1.1701 18.744 6.36727
133 1 -1.1104 3.85569 15.9717 6.43319
122 1 -1.1104 6.61503 15.7019 3.57909
138 1 -1.1104 6.66213 18.6719 0.939385
150 2 2.2208 10.9955 14.497 2.09083
140 1 -1.1104 6.86081 15.8391 0.654917
139 1 -1.1104 6.62153 18.4853 3.59189
160 2 2.2208 8.11046 14.4136 5.05763
141 2 2.2208 10.5332 17.3772 4.94944
144 1 -1.1104 12.2596 18.7112 0.63279
147 1 -1.1104 12.0848 18.9105 3.64116
148 1 -1.1104 12.5427 16.0394 0.565438
151 2 2.2208 10.9527 20.1414 2.19575
152 1 -1.1104 12.0932 15.9176 3.44732
155 1 -1.1104 9.45423 18.7882 0.728927
157 2 2.2208 8.21561 17.1743 2.08303
159 1 -1.1104 9.34434 18.5331 3.62715
161 2 2.2208 7.96772 19.9884 4.93815
162 1 -1.1104 9.45186 15.5557 0.78092
164 1 -1.1104 9.32003 15.8721 3.60866
118 1 -1.1104 6.67833 15.8361 6.37072
149 1 -1.1104 11.9095 15.9305 6.34207
112 1 -1.1104 6.79672 18.6022 6.35489
163 1 -1.1104 9.27564 15.6239 6.65194
145 1 -1.1104 12.3639 18.7598 6.53329
156 1 -1.1104 9.46845 18.6798 6.47535
8342 2 2.2208 5.45017 -5.33213 10.7232
8344 2 2.2208 8.33729 -5.39057 7.89605
9052 2 2.2208 -0.374004 -2.657 7.90952
175 2 2.2208 5.33968 0.267899 10.7651
176 1 -1.1104 1.15393 -3.91624 12.1933
180 1 -1.1104 0.916438 -4.1451 9.21037
184 1 -1.1104 1.31178 -0.856208 12.3917
186 2 2.2208 5.48692 -2.57806 8.06001
188 1 -1.1104 1.15373 -1.13329 9.23597
190 1 -1.1104 3.8748 -3.82281 12.0148
192 2 2.2208 2.5341 0.214608 7.89859
193 1 -1.1104 4.01627 -3.94599 9.36957
195 2 2.2208 2.43083 -2.51017 10.7345
197 1 -1.1104 3.99016 -0.97403 12.4665
198 1 -1.1104 3.93214 -1.19738 9.58361
8899 2 2.2208 -0.239803 0.306279 10.8115
8339 2 2.2208 8.28078 -5.30947 2.30321
9038 2 2.2208 13.5886 14.4243 10.6511
8711 2 2.2208 2.49822 -5.24842 13.449
434 2 2.2208 8.11584 6.0775 13.5741
9269 2 2.2208 -0.250002 19.976 13.4482
189 1 -1.1104 6.56282 -1.06631 9.16005
178 1 -1.1104 6.68661 -3.93968 12.2321
185 1 -1.1104 6.92044 -1.29146 11.9642
182 1 -1.1104 6.80731 -3.91393 9.55529
211 2 2.2208 11.043 0.500735 10.8409
212 1 -1.1104 12.3934 -3.98727 12.2552
214 1 -1.1104 12.3146 -3.75168 9.58823
216 1 -1.1104 12.426 -0.923453 12.2413
217 2 2.2208 11.1093 -2.42455 7.93751
219 1 -1.1104 12.5763 -0.844541 9.43324
220 1 -1.1104 9.46461 -3.98729 12.2082
222 2 2.2208 8.22626 0.211579 7.97814
223 1 -1.1104 9.74157 -3.78906 9.32235
225 2 2.2208 8.37104 -2.50602 10.8313
227 1 -1.1104 9.68222 -1.03447 12.0987
228 1 -1.1104 9.66618 -1.07956 9.28908
8341 2 2.2208 2.68205 -5.38943 8.00341
105 2 2.2208 7.94414 17.3422 7.76726
288 1 -1.1104 6.67193 19.0235 9.17997
201 1 -1.1104 9.22082 15.9721 11.9405
8345 2 2.2208 10.9503 -5.29704 10.7895
407 2 2.2208 2.37518 6.05875 13.5477
8968 2 2.2208 -0.180551 5.84371 10.7255
8933 2 2.2208 -0.177284 3.06976 8.11709
177 1 -1.1104 1.1582 1.75879 12.1296
181 1 -1.1104 1.14823 1.70047 9.43959
187 2 2.2208 5.35781 2.90734 7.65315
191 1 -1.1104 4.00797 1.8197 11.9422
194 1 -1.1104 4.01971 1.63545 9.25555
196 2 2.2208 2.68982 3.30425 10.7841
240 2 2.2208 5.53133 5.74344 10.6688
242 1 -1.1104 0.909945 7.31476 12.1666
246 1 -1.1104 1.06959 4.46065 12.1124
251 1 -1.1104 1.30417 4.72054 9.35928
255 1 -1.1104 3.78565 7.49702 12.1616
256 2 2.2208 2.56573 5.94689 7.82608
260 1 -1.1104 4.01396 4.86499 11.8372
262 1 -1.1104 3.97579 4.35403 9.08911
258 1 -1.1104 4.03349 7.06365 9.18302
244 1 -1.1104 1.28149 7.25946 9.22709
498 2 2.2208 10.9249 14.5796 13.3982
8338 2 2.2208 5.47256 -5.42026 5.15704
179 1 -1.1104 6.70694 1.62255 12.0123
245 1 -1.1104 6.81636 7.43222 9.43751
183 1 -1.1104 6.77376 1.6864 9.27702
248 1 -1.1104 6.92168 4.51857 12.2293
253 1 -1.1104 6.94637 4.40569 9.42497
243 1 -1.1104 6.84717 7.37482 12.1721
213 1 -1.1104 11.9854 1.98032 12.0804
215 1 -1.1104 12.2997 1.91268 9.36304
218 2 2.2208 11.1293 3.0169 7.83596
221 1 -1.1104 9.32692 1.40599 11.9306
224 1 -1.1104 9.61094 1.66683 9.23685
226 2 2.2208 8.34582 2.95426 10.7294
268 1 -1.1104 9.73168 4.3348 9.36098
271 1 -1.1104 9.68638 4.3646 12.2509
275 2 2.2208 8.33009 5.83211 8.19938
276 2 2.2208 11.0518 5.69431 10.8238
278 1 -1.1104 12.4884 7.5617 12.1345
280 1 -1.1104 12.6776 4.60455 12.2229
283 1 -1.1104 12.6113 4.6734 9.436
285 1 -1.1104 9.77447 7.14786 12.2782
279 1 -1.1104 12.2973 7.39018 9.38753
273 1 -1.1104 9.48147 7.37821 9.48737
53 2 2.2208 10.7984 14.3993 7.79857
471 2 2.2208 5.33837 20.202 13.6317
50 1 -1.1104 12.1597 16.0356 12.0809
499 2 2.2208 8.00099 17.2929 13.4442
8960 2 2.2208 -0.160237 11.4702 10.7571
8967 2 2.2208 -0.281195 8.72862 7.87968
241 2 2.2208 5.31526 11.4992 10.6927
247 1 -1.1104 0.981844 10.1798 12.1707
250 2 2.2208 5.51613 8.65118 8.12729
252 1 -1.1104 1.28917 10.2113 9.43083
257 2 2.2208 2.40628 11.5983 7.76951
259 2 2.2208 2.76124 8.6433 10.6843
261 1 -1.1104 3.9044 10.1669 12.2376
263 1 -1.1104 4.22801 9.96795 9.32453
136 1 -1.1104 1.14252 12.9622 12.1794
202 1 -1.1104 3.65905 12.9751 9.19203
287 1 -1.1104 4.04316 13.0368 11.9082
294 1 -1.1104 0.973375 13.037 9.54831
8950 2 2.2208 13.6306 11.7014 7.86939
82 1 -1.1104 12.2867 15.7604 9.23454
408 2 2.2208 5.42651 8.72464 13.5059
143 1 -1.1104 12.2243 13.0008 6.4363
290 1 -1.1104 6.56534 13.1056 9.33618
249 1 -1.1104 6.71236 10.1211 12.0234
297 1 -1.1104 6.82842 13.1212 12.1799
254 1 -1.1104 7.11736 10.0892 9.25536
135 1 -1.1104 9.55571 12.865 9.28574
264 1 -1.1104 9.61579 10.2112 9.11008
270 1 -1.1104 9.77816 10.2256 12.0483
272 2 2.2208 8.31368 8.73272 10.6311
274 2 2.2208 8.22637 11.6529 7.74195
277 2 2.2208 11.1259 11.7515 10.6999
281 1 -1.1104 12.5473 10.2482 12.0818
282 2 2.2208 11.0724 8.81135 8.04394
284 1 -1.1104 12.506 10.328 9.41704
83 1 -1.1104 9.62793 12.9887 12.1082
26 1 -1.1104 12.4292 13.0277 12.0821
30 1 -1.1104 12.3948 13.0271 9.29272
295 2 2.2208 5.21062 14.2646 7.79031
8765 2 2.2208 -0.407426 14.4204 7.96424
9268 2 2.2208 -0.296527 14.3723 13.5057
8739 2 2.2208 -0.356547 20.2598 7.92594
8740 2 2.2208 -0.252037 17.3961 10.5638
230 2 2.2208 2.5418 14.4755 10.6626
28 2 2.2208 2.59003 20.0192 10.6383
29 1 -1.1104 3.74356 15.7841 11.9762
51 1 -1.1104 0.986004 15.7604 12.0261
200 1 -1.1104 1.13776 18.6463 12.1836
203 1 -1.1104 3.81986 15.8135 9.23237
204 2 2.2208 2.5321 17.1909 7.90208
232 1 -1.1104 4.04621 18.5947 9.3805
233 2 2.2208 5.18883 17.0705 10.6244
286 1 -1.1104 3.87048 18.774 12.066
291 1 -1.1104 1.24368 18.6546 9.26081
292 1 -1.1104 1.27299 15.794 9.06704
293 2 2.2208 5.34774 20.1625 7.81316
8343 2 2.2208 -0.25117 -5.4121 10.8445
470 2 2.2208 2.59085 17.2242 13.6295
497 2 2.2208 10.8236 20.2325 13.4894
25 2 2.2208 10.6383 17.3868 10.7451
52 1 -1.1104 6.48668 15.9091 12.0716
436 2 2.2208 8.20309 11.6403 13.5643
289 1 -1.1104 6.53963 15.8588 9.25099
165 2 2.2208 7.98769 14.3631 10.5969
199 2 2.2208 8.03262 20.2265 10.6321
27 1 -1.1104 12.2694 19.1384 12.2458
296 1 -1.1104 6.71048 18.752 11.8517
137 1 -1.1104 9.51977 18.6029 9.24894
81 2 2.2208 10.8871 20.0332 7.82276
229 1 -1.1104 9.2977 15.7749 9.33436
49 1 -1.1104 12.2655 18.5529 9.38612
472 2 2.2208 5.23805 14.3695 13.3533
409 2 2.2208 2.54129 11.5158 13.5154
17353 2 2.2208 -0.381614 -5.37312 5.09874
435 2 2.2208 11.0091 8.95666 13.4955
336 2 2.2208 -0.169079 -2.47553 13.5262
338 2 2.2208 5.29134 -2.483 13.3092
8569 2 2.2208 5.49937 -5.20719 -0.522082
371 2 2.2208 8.19156 0.130438 13.3774
372 2 2.2208 10.9255 -2.48185 13.4267
8836 2 2.2208 13.5974 14.4831 5.10756
8934 2 2.2208 13.5757 17.4687 2.148
9127 2 2.2208 -0.259936 3.09093 13.5644
9199 2 2.2208 -0.407459 8.69582 13.5701
373 2 2.2208 11.045 3.23401 13.6197
298 2 2.2208 5.59795 0.176268 16.3138
299 1 -1.1104 1.09299 -3.94505 17.7561
303 1 -1.1104 1.41281 -3.7138 14.8382
311 1 -1.1104 1.09672 -1.0117 17.8785
313 2 2.2208 5.43629 -2.68931 19.3408
315 1 -1.1104 1.11623 -0.803182 15.172
319 1 -1.1104 3.86981 -3.89643 17.6783
321 2 2.2208 2.78846 0.243279 19.2597
322 1 -1.1104 3.90248 -4.09599 14.8938
326 2 2.2208 2.53806 -2.41279 16.4513
328 1 -1.1104 3.92295 -0.902626 17.6896
329 1 -1.1104 4.12204 -1.26931 15.1459
370 2 2.2208 8.09809 14.2046 27.6782
9415 2 2.2208 -0.263945 0.403282 16.4976
330 1 -1.1104 3.84477 -1.20809 20.5047
316 1 -1.1104 1.15735 -1.04546 20.5819
304 1 -1.1104 1.04639 -3.84228 20.5563
323 1 -1.1104 4.14253 -3.84101 20.7574
9424 2 2.2208 -0.189849 17.1637 27.5896
8446 2 2.2208 11.1504 -5.14163 22.105
592 2 2.2208 5.31984 11.5928 27.7379
500 2 2.2208 11.0345 17.2581 27.4938
307 1 -1.1104 6.62573 -3.93251 15.3088
312 1 -1.1104 7.05498 -1.18349 17.7534
301 1 -1.1104 6.6847 -3.83213 18.0702
317 1 -1.1104 6.77184 -1.12809 14.6639
341 2 2.2208 11.0559 0.358631 16.1947
342 1 -1.1104 12.3817 -3.94241 17.8403
344 1 -1.1104 12.4792 -4.00317 14.9394
348 1 -1.1104 12.5498 -1.08034 17.8941
349 2 2.2208 10.9459 -2.55913 19.2353
351 1 -1.1104 12.488 -1.09209 15.0864
353 1 -1.1104 9.62435 -3.98269 17.9807
355 2 2.2208 8.15733 0.47763 19.0096
356 1 -1.1104 9.69203 -3.79751 15.0621
360 2 2.2208 8.2377 -2.71556 16.5279
362 1 -1.1104 9.77182 -1.16179 17.5267
363 1 -1.1104 9.71763 -1.01939 14.8663
364 1 -1.1104 9.71222 -0.637857 20.4301
345 1 -1.1104 12.567 -3.82735 20.6374
352 1 -1.1104 12.3926 -1.1404 20.6683
318 1 -1.1104 6.74527 -0.918594 20.5771
357 1 -1.1104 9.65573 -3.74772 20.7823
308 1 -1.1104 6.8808 -3.84037 20.7376
365 2 2.2208 5.43394 17.2979 27.6452
300 1 -1.1104 1.49754 2.06643 17.7997
305 1 -1.1104 1.32631 1.72121 15.0005
314 2 2.2208 5.44893 3.12891 19.1779
320 1 -1.1104 4.24075 1.6565 17.7928
324 1 -1.1104 4.06724 1.49357 15.0509
327 2 2.2208 2.6416 3.24044 16.3221
374 2 2.2208 5.52988 5.91935 16.2968
382 1 -1.1104 1.2329 4.67955 17.7152
387 1 -1.1104 1.27913 4.71905 15.0714
395 1 -1.1104 3.73576 7.51794 17.7891
396 2 2.2208 2.63986 5.99021 18.9416
398 1 -1.1104 4.07819 7.30685 15.0506
401 1 -1.1104 4.17814 4.48627 17.6738
403 1 -1.1104 4.1649 4.51093 14.8423
378 1 -1.1104 1.12012 7.34817 15.0784
376 1 -1.1104 0.971979 7.56336 17.8115
9123 2 2.2208 -0.192364 3.15702 19.0938
9196 2 2.2208 -0.345429 6.07096 16.2876
325 1 -1.1104 4.09248 1.95418 20.8307
399 1 -1.1104 4.1035 7.49886 20.5607
388 1 -1.1104 1.11926 4.49941 20.418
306 1 -1.1104 1.23092 1.48962 20.61
404 1 -1.1104 3.91689 4.88326 20.4449
379 1 -1.1104 1.13574 7.57563 20.5983
310 1 -1.1104 6.83468 1.82369 20.5804
391 1 -1.1104 6.86768 4.59082 14.7761
309 1 -1.1104 6.91924 1.59612 14.9862
302 1 -1.1104 6.89074 1.91518 17.801
380 1 -1.1104 6.83364 7.46506 14.9867
384 1 -1.1104 6.96882 4.43972 17.799
377 1 -1.1104 6.67072 7.47695 17.7251
343 1 -1.1104 12.4749 1.70232 17.6834
346 1 -1.1104 12.5038 1.8523 14.8374
350 2 2.2208 10.9937 3.12775 19.0308
354 1 -1.1104 9.64995 1.95205 17.6765
358 1 -1.1104 9.76613 1.57708 14.6055
361 2 2.2208 8.21728 3.27326 16.3054
410 2 2.2208 11.0086 6.01925 16.372
415 1 -1.1104 12.3553 4.4778 17.839
418 1 -1.1104 12.5307 4.53188 14.9889
422 1 -1.1104 9.54925 7.59428 17.7424
423 2 2.2208 8.34747 5.99427 19.1296
425 1 -1.1104 9.44173 7.71433 14.7933
428 1 -1.1104 9.62537 4.74625 17.5435
430 1 -1.1104 9.67313 4.75357 14.9325
413 1 -1.1104 12.4211 7.35172 14.9095
412 1 -1.1104 12.4199 7.34417 17.7176
359 1 -1.1104 9.7211 1.83568 20.4772
414 1 -1.1104 12.4023 7.25466 20.5263
392 1 -1.1104 6.98305 4.51465 20.6134
381 1 -1.1104 6.87346 7.49913 20.5671
347 1 -1.1104 12.4247 1.54133 20.669
431 1 -1.1104 9.55649 4.55137 20.7009
419 1 -1.1104 12.5298 4.3963 20.5852
9431 2 2.2208 -0.149738 11.6213 16.6033
375 2 2.2208 5.29884 11.624 16.2794
383 1 -1.1104 1.29329 10.3553 17.8517
386 2 2.2208 5.41633 8.77245 19.2723
389 1 -1.1104 1.1031 10.0985 14.8984
397 2 2.2208 2.70243 11.634 19.2991
400 2 2.2208 2.53428 8.83432 16.3157
402 1 -1.1104 4.19501 10.1644 17.8417
405 1 -1.1104 3.89758 10.2225 14.9462
438 1 -1.1104 1.28139 12.9229 17.7069
442 1 -1.1104 1.10014 13.1397 15.0591
458 1 -1.1104 3.97989 12.8106 17.868
461 1 -1.1104 4.10965 12.9178 14.8774
406 1 -1.1104 3.9623 10.1828 20.7473
9429 2 2.2208 -0.306982 9.03999 19.2762
462 1 -1.1104 4.26751 13.1581 20.5967
443 1 -1.1104 1.14262 13.1309 20.5133
390 1 -1.1104 1.12051 10.2915 20.7455
426 1 -1.1104 9.59573 7.51061 20.4591
393 1 -1.1104 6.66519 10.4372 14.8333
440 1 -1.1104 6.80124 13.0556 17.9214
385 1 -1.1104 6.85996 10.3422 17.6737
446 1 -1.1104 6.83428 13.0512 14.9672
411 2 2.2208 10.9516 11.6762 16.4405
416 1 -1.1104 12.4315 10.0907 17.8582
417 2 2.2208 10.9993 8.90203 19.2894
420 1 -1.1104 12.3581 10.0904 14.9765
424 2 2.2208 8.1601 11.6355 19.1536
427 2 2.2208 8.22253 8.94188 16.2624
429 1 -1.1104 9.5564 10.4118 17.856
432 1 -1.1104 9.5031 10.3918 14.877
474 1 -1.1104 12.6804 12.8302 17.4448
476 1 -1.1104 12.6898 13.0205 14.8904
485 1 -1.1104 9.7698 13.0573 18.036
488 1 -1.1104 9.68392 13.0696 15.0882
433 1 -1.1104 9.58298 10.1831 20.8069
394 1 -1.1104 6.63146 10.0711 20.6728
421 1 -1.1104 12.5583 10.1088 20.6337
447 1 -1.1104 6.933 12.864 20.7245
477 1 -1.1104 12.344 12.9276 20.7879
452 2 2.2208 5.38219 14.5978 19.2903
465 2 2.2208 2.60748 14.3065 16.3782
9423 2 2.2208 -0.283166 14.3597 19.1623
437 2 2.2208 5.25113 17.2635 16.2032
439 1 -1.1104 0.941499 18.725 17.6134
444 1 -1.1104 0.896436 18.8305 15.0856
450 1 -1.1104 1.33432 15.6114 17.7136
453 2 2.2208 5.15531 20.1122 19.1308
454 1 -1.1104 1.18157 15.909 14.8512
459 1 -1.1104 3.9394 18.6824 17.7914
460 2 2.2208 2.5805 17.2994 19.0274
463 1 -1.1104 3.92171 18.7105 14.9486
466 2 2.2208 2.45026 20.004 16.3382
467 1 -1.1104 3.94628 15.8625 17.5811
468 1 -1.1104 3.92846 15.9243 14.7717
9265 2 2.2208 -0.337713 20.1956 19.0866
9419 2 2.2208 -0.347734 17.2159 16.3764
469 1 -1.1104 3.89136 15.8688 20.6241
445 1 -1.1104 1.17119 18.746 20.5153
464 1 -1.1104 4.00472 18.8116 20.5494
492 2 2.2208 8.10655 14.3862 16.4194
456 1 -1.1104 6.64419 15.9705 14.8358
448 1 -1.1104 6.72269 18.735 14.8921
441 1 -1.1104 6.74247 18.6214 17.6137
451 1 -1.1104 6.71737 15.8775 17.699
481 2 2.2208 11.0482 14.3468 19.4268
473 2 2.2208 11.0103 17.1696 16.2993
475 1 -1.1104 12.4002 18.5303 17.6901
478 1 -1.1104 12.5529 18.5889 14.993
480 1 -1.1104 12.4663 15.5726 17.9593
482 2 2.2208 10.9401 20.2952 18.9811
483 1 -1.1104 12.5919 15.857 14.8701
486 1 -1.1104 9.60881 18.8159 17.6843
487 2 2.2208 8.20526 17.5093 18.9195
490 1 -1.1104 9.45491 18.619 14.8446
493 2 2.2208 8.05067 20.1423 16.2552
494 1 -1.1104 9.59532 15.7933 17.6047
495 1 -1.1104 9.58683 15.8201 14.8033
457 1 -1.1104 6.74595 15.888 20.7825
496 1 -1.1104 9.55734 15.7562 20.5835
491 1 -1.1104 9.49674 18.7732 20.4709
449 1 -1.1104 6.73333 18.7849 20.4857
479 1 -1.1104 12.4381 18.7354 20.1665
9272 2 2.2208 -0.312599 0.354374 22.051
9297 2 2.2208 -0.245555 -2.51451 24.947
501 2 2.2208 5.49084 0.351529 21.9502
502 1 -1.1104 1.32889 -3.90176 23.2822
506 1 -1.1104 1.23773 -3.99665 26.3163
510 1 -1.1104 1.05456 -1.17661 23.4025
512 2 2.2208 5.34808 -2.48109 24.8491
514 1 -1.1104 0.999607 -1.08066 26.1914
516 1 -1.1104 4.11055 -3.88909 23.4267
518 2 2.2208 2.33679 0.367141 24.8442
519 1 -1.1104 4.02913 -3.74969 26.2516
521 2 2.2208 2.59907 -2.3882 22.0563
523 1 -1.1104 3.97551 -0.988613 23.2928
524 1 -1.1104 3.87144 -1.05197 26.2742
555 2 2.2208 10.9139 0.493589 27.6696
590 2 2.2208 5.39903 5.82597 27.6061
526 2 2.2208 2.63402 -2.3857 27.6964
562 2 2.2208 10.9113 14.4817 24.6805
17602 2 2.2208 -0.139011 -5.21328 21.9543
628 1 -1.1104 6.84362 18.5422 23.243
531 1 -1.1104 6.60855 15.7797 23.463
558 1 -1.1104 12.3756 15.6164 23.2889
8427 2 2.2208 8.15697 -5.33982 24.8654
515 1 -1.1104 6.58543 -1.17821 26.3936
508 1 -1.1104 6.53198 -3.75604 26.2503
504 1 -1.1104 6.90246 -3.84616 23.5058
511 1 -1.1104 6.71838 -1.0532 23.3848
537 2 2.2208 11.0666 0.440172 21.9406
538 1 -1.1104 12.7706 -4.15613 23.47
540 1 -1.1104 12.3033 -4.09505 26.4585
542 1 -1.1104 12.5684 -0.904907 23.322
543 2 2.2208 11.0971 -2.57298 25.0033
545 1 -1.1104 12.1501 -1.17059 26.3027
546 1 -1.1104 9.95199 -3.87794 23.4315
548 2 2.2208 8.28949 0.360757 24.6823
549 1 -1.1104 9.45062 -4.05136 26.4915
551 2 2.2208 8.32143 -2.45196 22.0727
553 1 -1.1104 9.48465 -1.08893 23.286
554 1 -1.1104 9.40525 -1.22978 25.9381
527 2 2.2208 2.57768 3.08053 27.7509
536 1 -1.1104 12.2572 18.5155 25.9535
534 1 -1.1104 12.3593 18.5089 23.1621
9374 2 2.2208 -0.228817 6.05773 21.7792
503 1 -1.1104 0.964171 1.82323 23.2407
507 1 -1.1104 1.03215 1.7133 26.2781
513 2 2.2208 5.34999 3.10936 24.7034
517 1 -1.1104 3.77765 1.85996 23.6491
520 1 -1.1104 3.98305 1.6597 26.4224
522 2 2.2208 2.64558 3.16891 22.0334
566 2 2.2208 5.51905 5.99719 21.9483
568 1 -1.1104 1.04013 7.18962 23.4822
572 1 -1.1104 1.20778 4.5 23.1703
577 1 -1.1104 1.12179 4.41081 26.1411
581 1 -1.1104 3.95577 7.37816 23.4628
582 2 2.2208 2.56837 5.8377 24.564
586 1 -1.1104 4.13151 4.70384 23.313
588 1 -1.1104 3.9904 4.50527 26.0774
570 1 -1.1104 1.25407 7.24226 26.3748
584 1 -1.1104 4.20359 7.30371 26.4199
9271 2 2.2208 -0.372473 3.11908 24.7647
528 2 2.2208 8.02619 20.1778 27.5782
9079 2 2.2208 -0.037248 5.86135 27.6575
333 1 -1.1104 9.53715 15.9454 23.4404
615 2 2.2208 11.0335 5.95437 27.5243
579 1 -1.1104 6.80589 4.34674 26.1657
509 1 -1.1104 6.93489 1.73178 26.1373
571 1 -1.1104 6.87627 7.44931 26.0947
574 1 -1.1104 6.79944 4.53635 23.3446
505 1 -1.1104 6.74072 1.80385 23.2762
569 1 -1.1104 6.78105 7.23306 23.2977
539 1 -1.1104 12.3048 1.94813 23.3667
541 1 -1.1104 12.3874 1.85975 26.2403
544 2 2.2208 11.0397 3.20225 24.7066
547 1 -1.1104 9.49872 1.72089 23.5016
550 1 -1.1104 9.57129 1.75358 26.124
552 2 2.2208 8.21632 3.12687 21.8431
598 1 -1.1104 9.46592 4.4202 26.2343
600 1 -1.1104 9.75973 4.6934 23.5569
602 1 -1.1104 9.59467 7.4021 26.3587
604 2 2.2208 8.06331 5.94046 24.7773
605 2 2.2208 11.0629 5.99254 21.8307
607 1 -1.1104 12.541 7.58503 23.4479
609 1 -1.1104 12.5282 4.71911 23.1371
612 1 -1.1104 12.4578 4.60407 26.1633
608 1 -1.1104 12.4941 7.55641 26.3144
614 1 -1.1104 9.62051 7.62607 23.2596
331 2 2.2208 8.13071 14.1952 21.9422
624 1 -1.1104 6.6687 15.7953 26.1217
9436 2 2.2208 -0.479949 11.6216 21.9254
567 2 2.2208 5.42267 11.4807 22.0701
573 1 -1.1104 1.03392 10.1538 23.3976
576 2 2.2208 5.31125 8.81495 24.7733
578 1 -1.1104 1.26783 10.0429 26.0636
583 2 2.2208 2.47441 11.6267 24.8894
585 2 2.2208 2.52261 8.78951 22.0721
587 1 -1.1104 3.92217 10.1657 23.5015
589 1 -1.1104 4.04088 10.2957 26.1992
532 1 -1.1104 3.94 12.8924 26.2004
619 1 -1.1104 1.1265 13.0722 23.3982
623 1 -1.1104 3.94817 12.7672 23.4444
627 1 -1.1104 0.967584 12.9349 26.3695
9435 2 2.2208 -0.291978 8.66159 24.9325
591 2 2.2208 2.61305 8.86356 27.7134
9085 2 2.2208 -0.338133 11.4273 27.6976
9425 2 2.2208 -0.426156 14.3287 24.78
489 1 -1.1104 9.74235 13.0403 20.581
617 2 2.2208 10.9543 11.5941 27.7182
580 1 -1.1104 6.94109 10.3208 26.1054
631 1 -1.1104 6.86497 13.0159 23.4602
622 1 -1.1104 6.67233 12.9329 26.2599
575 1 -1.1104 6.83353 10.204 23.287
533 1 -1.1104 12.3363 13.1083 23.514
597 1 -1.1104 9.68276 10.1367 25.9929
599 1 -1.1104 9.5011 10.4741 23.4107
601 2 2.2208 8.14797 8.89532 21.9707
603 2 2.2208 8.16583 11.6695 24.827
606 2 2.2208 10.9174 11.4899 22.0737
610 1 -1.1104 12.5091 10.2371 23.3487
611 2 2.2208 11.1063 8.65491 24.6608
613 1 -1.1104 12.5097 10.3101 26.4045
535 1 -1.1104 12.5633 13.0447 26.2942
560 1 -1.1104 9.55319 12.9096 26.1377
565 1 -1.1104 9.59302 13.1884 23.3293
616 2 2.2208 8.175 8.93655 27.5979
455 1 -1.1104 0.949084 15.9921 20.4172
9416 2 2.2208 -0.186603 -2.49435 19.1828
367 2 2.2208 2.43556 14.3262 21.9671
9078 2 2.2208 -0.230684 19.967 24.7781
9422 2 2.2208 -0.301411 17.4588 22.0907
630 2 2.2208 5.38401 14.2799 24.8233
368 2 2.2208 2.56341 20.1654 21.9491
369 1 -1.1104 3.85472 15.7483 23.4046
530 1 -1.1104 0.874164 15.8194 23.2223
559 1 -1.1104 3.76226 15.7531 26.2726
594 2 2.2208 2.44753 17.0982 24.8364
595 1 -1.1104 4.05072 18.7021 26.1134
618 2 2.2208 5.43946 17.2551 22.0478
620 1 -1.1104 1.14296 18.7655 23.3537
621 1 -1.1104 3.91858 18.7033 23.2875
625 1 -1.1104 1.0618 18.4392 26.0657
626 1 -1.1104 0.968173 15.828 26.0062
629 2 2.2208 5.347 20.0092 24.884
366 2 2.2208 2.62777 19.8585 27.3555
561 1 -1.1104 9.61989 18.3985 26.0497
8498 2 2.2208 2.61223 -5.15743 24.8562
529 2 2.2208 11.0065 17.0705 21.9259
564 1 -1.1104 12.4551 15.8164 26.0601
334 1 -1.1104 9.67698 15.7663 26.3174
484 1 -1.1104 12.3239 15.7844 20.5071
332 2 2.2208 8.16789 20.2115 21.9094
596 2 2.2208 8.23972 17.2434 24.7401
593 1 -1.1104 9.67685 18.6194 23.0675
563 2 2.2208 10.9075 19.7698 24.702
335 1 -1.1104 7.01162 18.5757 26.3173
556 2 2.2208 8.16528 -2.38258 27.6109
8501 2 2.2208 5.53438 -5.185 22.159
8644 2 2.2208 8.31508 -5.43985 19.2613
8639 2 2.2208 8.13178 -5.45806 13.6902
557 2 2.2208 8.14909 3.11084 27.691
525 2 2.2208 5.32898 0.276536 27.6701
9299 2 2.2208 -0.229165 0.310105 27.6996
8712 2 2.2208 2.63943 -5.28118 19.1081
337 2 2.2208 2.51172 14.4322 27.6561
339 2 2.2208 2.64587 0.302368 13.8199
632 2 2.2208 5.2061 22.8996 4.9393
634 1 -1.1104 1.27675 24.2938 0.641956
635 1 -1.1104 0.913662 24.1506 3.36272
636 1 -1.1104 0.930444 21.4557 0.864392
638 2 2.2208 5.17097 25.8324 2.1872
639 1 -1.1104 1.0165 21.4155 3.48989
641 1 -1.1104 4.19395 24.5421 0.640008
642 2 2.2208 2.49292 22.9712 2.03257
644 1 -1.1104 3.85614 24.3584 3.5399
645 2 2.2208 2.39402 25.807 5.04041
646 1 -1.1104 3.81303 21.3755 0.554625
648 1 -1.1104 4.17052 21.344 3.56653
637 1 -1.1104 1.01101 26.9737 0.683052
649 1 -1.1104 3.68153 27.1014 3.47523
9746 2 2.2208 -0.284683 22.9248 5.1674
780 1 -1.1104 3.8707 21.4202 6.37449
9743 2 2.2208 -0.243068 25.7767 2.2283
779 1 -1.1104 3.83629 24.3198 6.33324
773 1 -1.1104 1.01493 24.5195 6.56927
775 1 -1.1104 1.07235 21.5346 6.21702
781 1 -1.1104 3.94347 27.0011 6.3765
776 1 -1.1104 1.09999 27.3166 6.28849
655 1 -1.1104 6.75173 21.4878 0.63135
657 1 -1.1104 6.75932 21.4242 3.56737
653 1 -1.1104 7.00818 24.384 0.877118
654 1 -1.1104 6.56987 24.1934 3.52933
656 1 -1.1104 6.55155 27.0777 0.864774
659 2 2.2208 10.7705 22.8646 4.82319
661 1 -1.1104 12.5198 24.4798 0.580509
662 1 -1.1104 12.2198 24.3483 3.29507
663 1 -1.1104 12.495 21.5372 0.885157
665 2 2.2208 10.8178 25.6789 2.2534
666 1 -1.1104 12.2397 21.5138 3.74523
668 1 -1.1104 9.65175 24.2339 0.743331
669 2 2.2208 8.05722 22.8131 2.07009
671 1 -1.1104 9.49753 24.2824 3.68313
672 2 2.2208 7.98621 25.6787 5.05309
673 1 -1.1104 9.41593 21.4733 0.681272
675 1 -1.1104 9.46044 21.3665 3.40244
674 1 -1.1104 9.37931 27.0032 0.637654
664 1 -1.1104 12.1911 27.1 0.94892
676 1 -1.1104 9.45137 27.1169 3.25579
667 1 -1.1104 12.2482 27.2328 3.76364
809 1 -1.1104 9.41023 24.3108 6.38387
778 1 -1.1104 6.67015 27.2897 6.57854
806 1 -1.1104 12.0092 24.6233 6.00215
774 1 -1.1104 6.59221 24.302 6.32891
810 1 -1.1104 9.35279 21.6163 6.2283
777 1 -1.1104 6.73295 21.4951 6.19984
807 1 -1.1104 12.1893 21.7822 6.5456
647 1 -1.1104 3.78285 27.2598 0.846429
640 1 -1.1104 0.879135 27.1914 3.50647
633 2 2.2208 5.30829 28.473 5.10548
643 2 2.2208 2.36228 28.6537 2.33866
681 1 -1.1104 1.04855 29.9176 0.947575
684 1 -1.1104 1.02759 30.0167 3.75828
687 1 -1.1104 1.13577 32.7986 0.944291
688 2 2.2208 5.17246 31.4907 2.35048
690 1 -1.1104 1.18532 32.9029 3.61586
692 1 -1.1104 3.82686 30.0464 1.0276
695 1 -1.1104 3.73747 29.9348 3.64282
697 2 2.2208 2.60893 31.4917 4.97031
699 1 -1.1104 3.93018 32.7255 0.890387
700 1 -1.1104 3.98182 32.9509 3.66455
1229 2 2.2208 8.16396 37.0843 -0.410792
9750 2 2.2208 -0.38738 31.3318 2.3384
834 1 -1.1104 3.93606 32.784 6.68917
830 1 -1.1104 1.21761 32.8646 6.36518
826 1 -1.1104 1.00009 30.2288 6.54739
811 1 -1.1104 9.62899 26.9049 6.00425
658 1 -1.1104 6.48283 26.8509 3.66952
704 1 -1.1104 6.75666 29.772 0.822494
706 1 -1.1104 6.78892 32.9158 0.766492
705 1 -1.1104 6.47817 29.9223 3.66198
691 1 -1.1104 6.65988 32.7576 3.62219
660 2 2.2208 10.8207 28.5004 4.8659
670 2 2.2208 8.03578 28.4105 2.09357
708 1 -1.1104 12.3878 30.0749 0.49424
710 1 -1.1104 12.2615 30.1321 3.21854
712 1 -1.1104 12.4659 32.9464 0.855985
713 2 2.2208 10.8952 31.5852 2.1106
715 1 -1.1104 12.3607 32.8482 3.39966
716 1 -1.1104 9.54481 29.8302 0.672707
719 1 -1.1104 9.08766 29.873 3.52633
721 2 2.2208 8.05314 31.4068 4.98678
723 1 -1.1104 9.57216 32.7533 0.788383
724 1 -1.1104 9.61988 32.7168 3.83405
860 1 -1.1104 12.1691 30.1932 5.811
863 1 -1.1104 9.36138 29.7994 6.38937
862 1 -1.1104 12.5383 32.8099 6.42446