ITEM: TIMESTEP
20000
ITEM: NUMBER OF ATOMS
17760
ITEM: BOX BOUNDS pp pp pp
-3.7597154264345017e-01 2.7715971542643484e+01
-4.3610505421373640e+00 3.3244105054213952e+02
-3.7605693197216833e-01 2.7716056931971867e+01
ITEM: ATOMS id type q x y z
1 2 2.2208 5.51377 1.27223 5.07184
2 1 -1.1104 1.016 -3.04588 0.863575
3 1 -1.1104 1.14853 2.79436 0.911189
6 1 -1.1104 1.23494 -2.93197 3.81751
7 1 -1.1104 1.28003 2.53369 3.67528
10 1 -1.1104 1.10975 -0.0709052 0.8983
12 2 2.2208 5.52322 -1.61383 2.40281
13 2 2.2208 5.46701 4.0661 2.23127
14 1 -1.1104 1.38631 -0.29158 3.60961
16 1 -1.1104 3.87442 -2.94514 0.986318
17 1 -1.1104 4.04607 2.52558 0.973569
18 2 2.2208 2.6806 1.12331 2.39303
19 1 -1.1104 4.12631 -2.89089 3.73316
20 1 -1.1104 4.19045 2.64869 3.6037
21 2 2.2208 2.7162 -1.57624 5.01927
22 2 2.2208 2.63017 3.97737 4.99481
23 1 -1.1104 3.94203 -0.162244 0.949874
24 1 -1.1104 4.15271 -0.167771 3.77596
9040 2 2.2208 -0.158753 1.30377 5.05695
9037 2 2.2208 -0.142252 -1.60556 2.29026
9041 2 2.2208 -0.240728 3.90248 2.27728
409 2 2.2208 2.56846 12.2924 13.5221
338 2 2.2208 5.43849 -1.47833 13.5625
434 2 2.2208 8.25866 6.76989 13.5703
173 1 -1.1104 4.13491 2.70666 6.50626
166 1 -1.1104 1.22602 -2.98399 6.59898
167 1 -1.1104 1.21381 2.64859 6.35859
170 1 -1.1104 1.45226 -0.0317136 6.32639
174 1 -1.1104 4.15159 -0.0618152 6.55733
9 1 -1.1104 6.91777 2.53243 3.69047
4 1 -1.1104 6.75128 -3.01845 1.03671
11 1 -1.1104 6.80867 -0.225338 0.848199
5 1 -1.1104 7.07237 2.57946 0.92929
8 1 -1.1104 6.94326 -2.94995 3.88447
15 1 -1.1104 6.86422 -0.276734 3.8365
31 2 2.2208 10.9805 1.22041 5.13866
32 1 -1.1104 12.3117 -2.9293 1.06467
33 1 -1.1104 12.4519 2.66843 0.918412
34 1 -1.1104 12.4388 -2.95949 3.72785
35 1 -1.1104 12.4059 2.72082 3.65503
36 1 -1.1104 12.3919 -0.199386 0.881566
37 2 2.2208 11.0777 -1.58854 2.29144
38 2 2.2208 11.0774 4.16408 2.31423
39 1 -1.1104 12.4075 -0.120548 3.74788
40 1 -1.1104 9.61748 -2.98096 0.874267
41 1 -1.1104 9.76268 2.68603 0.797285
42 2 2.2208 8.30584 1.21678 2.35554
43 1 -1.1104 9.73791 -3.05443 3.68302
44 1 -1.1104 9.68869 2.58059 3.66543
45 2 2.2208 8.36143 -1.7211 5.20109
46 2 2.2208 8.18145 4.00022 5.09665
47 1 -1.1104 9.55339 -0.248197 0.722273
48 1 -1.1104 9.6995 -0.207614 3.62191
171 1 -1.1104 6.85684 -0.277762 6.51728
168 1 -1.1104 6.88988 -3.0803 6.64471
207 1 -1.1104 12.2651 -0.121579 6.51346
208 1 -1.1104 9.66268 -3.05322 6.52206
210 1 -1.1104 9.59088 -0.0467952 6.63043
209 1 -1.1104 9.69414 2.69141 6.4854
205 1 -1.1104 12.5172 -2.95847 6.44677
206 1 -1.1104 12.4035 2.55742 6.50748
9047 2 2.2208 -0.299456 9.455 2.28636
9046 2 2.2208 -0.302679 6.79453 5.10006
9048 2 2.2208 -0.285995 12.3439 5.07739
54 2 2.2208 5.39398 6.81445 5.01308
55 2 2.2208 5.42014 12.3076 5.06442
56 1 -1.1104 0.971708 8.15267 0.791029
58 1 -1.1104 1.08841 8.24453 3.61719
60 1 -1.1104 1.19801 5.44395 0.97219
61 1 -1.1104 1.21051 11.0044 1.00867
66 2 2.2208 5.4743 9.68736 2.19297
67 1 -1.1104 1.08231 5.32836 3.62213
68 1 -1.1104 1.23632 11.0052 3.66238
71 1 -1.1104 4.00486 8.24719 0.769002
72 2 2.2208 2.60226 6.81762 2.32376
73 2 2.2208 2.56656 12.3737 2.2946
74 1 -1.1104 4.05421 8.21165 3.59953
75 2 2.2208 2.59902 9.51791 5.07031
76 1 -1.1104 4.06409 5.30668 0.678018
77 1 -1.1104 3.97312 11.1691 0.868521
79 1 -1.1104 4.04579 5.33507 3.62573
80 1 -1.1104 3.91417 10.9278 3.60313
238 1 -1.1104 3.89868 8.19316 6.37828
239 1 -1.1104 3.98207 5.48724 6.33927
234 1 -1.1104 1.15712 8.18577 6.39598
236 1 -1.1104 1.18095 5.46956 6.31637
78 1 -1.1104 4.03144 10.9162 6.56856
9127 2 2.2208 -0.238277 3.8945 13.424
59 1 -1.1104 6.80328 8.20371 3.6671
64 1 -1.1104 6.93133 10.9775 0.756861
57 1 -1.1104 6.76945 8.25476 0.875868
70 1 -1.1104 6.77603 11.0321 3.59884
63 1 -1.1104 6.99526 5.44202 0.952423
69 1 -1.1104 6.85906 5.3738 3.6878
84 2 2.2208 10.983 6.97666 5.17262
85 2 2.2208 10.9348 12.4229 5.2239
86 1 -1.1104 12.3283 8.11591 0.947716
87 1 -1.1104 12.5079 8.31609 3.65421
88 1 -1.1104 12.622 5.4765 0.888211
89 1 -1.1104 12.439 10.9507 0.857634
91 2 2.2208 11.0153 9.54416 2.29684
92 1 -1.1104 12.3996 5.49956 3.64795
93 1 -1.1104 12.3893 11.0183 3.68826
94 1 -1.1104 9.53266 8.05437 0.94142
95 2 2.2208 8.23329 6.83264 2.26038
96 2 2.2208 8.17664 12.3755 2.23411
97 1 -1.1104 9.4885 8.28719 3.77125
98 2 2.2208 8.1823 9.57005 5.03685
99 1 -1.1104 9.78986 5.45347 0.932827
100 1 -1.1104 9.57867 10.9551 1.00727
102 1 -1.1104 9.55578 5.46609 3.71929
103 1 -1.1104 9.59183 11.1427 3.66699
267 1 -1.1104 9.52854 8.46796 6.58203
101 1 -1.1104 9.50838 11.1748 6.56381
266 1 -1.1104 12.5848 5.5026 6.55315
269 1 -1.1104 9.666 5.50775 6.42503
235 1 -1.1104 6.70736 8.22554 6.37112
237 1 -1.1104 6.74156 5.45046 6.41834
8344 2 2.2208 8.10569 -4.36195 8.07547
9045 2 2.2208 -0.186802 15.1867 2.35222
106 2 2.2208 5.30808 18.1652 5.21927
107 1 -1.1104 1.2718 13.7049 0.857138
109 1 -1.1104 1.18124 19.3709 1.04664
113 1 -1.1104 1.23423 13.8066 3.6226
114 1 -1.1104 1.09118 19.4361 3.85488
116 1 -1.1104 1.27244 16.6181 1.17264
119 2 2.2208 5.31203 15.2322 2.38847
120 2 2.2208 5.4442 20.9826 2.25366
121 1 -1.1104 1.35696 16.6505 3.81647
123 1 -1.1104 4.09156 13.9739 0.937589
125 1 -1.1104 4.0752 19.6116 1.0997
127 2 2.2208 2.6949 18.03 2.48844
128 1 -1.1104 3.96197 13.7694 3.70096
129 1 -1.1104 3.81113 19.5556 3.94929
130 2 2.2208 2.55165 15.2354 5.18574
131 2 2.2208 2.42013 20.8276 5.3118
132 1 -1.1104 3.99896 16.7702 1.03306
134 1 -1.1104 3.99133 16.6969 3.88186
9042 2 2.2208 -0.240298 17.9949 5.14046
9051 2 2.2208 -0.249782 20.8187 2.42519
231 1 -1.1104 1.10656 19.3736 6.58315
50 1 -1.1104 12.4247 16.8212 12.2446
135 1 -1.1104 9.46404 13.9478 9.31284
124 1 -1.1104 4.05893 13.8426 6.5506
83 1 -1.1104 9.64514 13.8357 12.0568
111 1 -1.1104 6.84667 13.852 6.58318
110 1 -1.1104 6.8934 13.8271 1.01379
138 1 -1.1104 6.98758 19.4408 0.971295
140 1 -1.1104 6.81572 16.6141 0.773972
115 1 -1.1104 6.6878 13.714 3.7537
139 1 -1.1104 6.65929 19.2444 3.76231
122 1 -1.1104 6.8819 16.3461 3.71646
141 2 2.2208 11.1071 17.889 5.11352
142 1 -1.1104 12.4539 13.7831 0.988402
144 1 -1.1104 12.345 19.4299 1.01007
146 1 -1.1104 12.3776 13.8735 3.86362
147 1 -1.1104 12.5346 19.4777 3.8017
148 1 -1.1104 12.478 16.6475 0.997517
150 2 2.2208 11.1406 15.2324 2.43096
151 2 2.2208 10.9674 20.7866 2.34414
152 1 -1.1104 12.482 16.6176 3.85096
153 1 -1.1104 9.70959 13.6756 1.00321
155 1 -1.1104 9.61561 19.4882 0.947076
157 2 2.2208 8.2684 18.024 2.32899
158 1 -1.1104 9.45844 13.9652 3.69994
159 1 -1.1104 9.56876 19.3896 3.75117
160 2 2.2208 8.1191 15.2106 5.16416
161 2 2.2208 8.16627 20.7999 5.20424
162 1 -1.1104 9.71856 16.5375 0.946557
164 1 -1.1104 9.80981 16.621 3.62029
163 1 -1.1104 9.47439 16.6744 6.40112
149 1 -1.1104 12.4978 16.5343 6.55063
156 1 -1.1104 9.71705 19.6013 6.53674
154 1 -1.1104 9.60779 13.8823 6.52033
297 1 -1.1104 6.94109 13.8915 12.1215
9199 2 2.2208 -0.19715 9.53211 13.3975
9268 2 2.2208 -0.205299 15.1444 13.5778
27 1 -1.1104 12.4387 19.6837 12.2059
172 1 -1.1104 4.00541 -2.88836 6.50091
8899 2 2.2208 -0.169151 1.14455 10.7682
8933 2 2.2208 -0.150825 4.06959 7.86473
9052 2 2.2208 -0.204133 -1.62301 7.83897
175 2 2.2208 5.43524 1.2055 10.7766
176 1 -1.1104 1.14673 -2.94108 12.1364
177 1 -1.1104 1.1052 2.52052 12.0252
180 1 -1.1104 0.968598 -3.05291 9.35024
181 1 -1.1104 1.14446 2.76858 9.2268
184 1 -1.1104 1.40037 -0.0616961 12.1227
186 2 2.2208 5.42959 -1.48461 7.97468
187 2 2.2208 5.46814 3.99029 7.84232
188 1 -1.1104 1.33224 -0.135903 9.10764
190 1 -1.1104 3.97818 -2.89186 12.3062
191 1 -1.1104 3.91433 2.60892 12.0393
192 2 2.2208 2.62805 1.29574 7.79031
193 1 -1.1104 3.86121 -2.91692 9.55073
194 1 -1.1104 3.9962 2.61483 9.23841
195 2 2.2208 2.55684 -1.46821 10.7049
196 2 2.2208 2.63085 3.98197 10.583
197 1 -1.1104 3.98132 -0.100509 12.1196
198 1 -1.1104 3.9983 -0.174692 9.38205
339 2 2.2208 2.56523 1.3225 13.5144
336 2 2.2208 -0.255488 -1.53764 13.5448
340 2 2.2208 5.42012 4.0543 13.394
26 1 -1.1104 12.4166 13.8249 12.2228
435 2 2.2208 11.1343 9.60688 13.634
373 2 2.2208 11.0231 4.0335 13.5609
497 2 2.2208 11.0324 20.9179 13.6559
8711 2 2.2208 2.5748 -4.23481 13.5368
407 2 2.2208 2.65768 6.7222 13.381
169 1 -1.1104 6.82023 2.54544 6.39252
182 1 -1.1104 6.71571 -2.85793 9.40018
183 1 -1.1104 6.84373 2.64132 9.22015
178 1 -1.1104 6.81554 -2.99365 12.1701
179 1 -1.1104 6.73159 2.60148 11.9713
189 1 -1.1104 6.83166 -0.148812 9.32983
185 1 -1.1104 6.89172 -0.0972541 11.994
211 2 2.2208 11.1148 1.26652 10.6937
212 1 -1.1104 12.3953 -2.8337 12.2776
213 1 -1.1104 12.4165 2.64709 12.3087
214 1 -1.1104 12.4673 -2.97359 9.3795
215 1 -1.1104 12.4329 2.7745 9.3898
216 1 -1.1104 12.3108 -0.129238 12.1774
217 2 2.2208 10.9847 -1.48343 7.91871
218 2 2.2208 10.9929 4.08863 7.9584
219 1 -1.1104 12.5415 -0.0132306 9.32627
220 1 -1.1104 9.54687 -2.96586 12.0441
221 1 -1.1104 9.48518 2.7051 12.1425
222 2 2.2208 8.23683 1.24611 7.93148
223 1 -1.1104 9.5266 -2.8997 9.21941
224 1 -1.1104 9.57653 2.62521 9.34452
225 2 2.2208 8.27145 -1.42237 10.6967
226 2 2.2208 8.25838 4.06918 10.6676
227 1 -1.1104 9.57594 -0.0892054 12.1322
228 1 -1.1104 9.88283 -0.0823814 9.36698
49 1 -1.1104 12.3666 19.5119 9.4378
289 1 -1.1104 6.85096 16.6309 9.30684
62 1 -1.1104 1.38365 11.0964 6.35153
8960 2 2.2208 -0.0550878 12.344 10.7365
8968 2 2.2208 -0.22694 6.76103 10.6979
240 2 2.2208 5.51718 6.70836 10.6427
241 2 2.2208 5.55571 12.2865 10.7212
242 1 -1.1104 1.3188 8.16516 11.977
244 1 -1.1104 1.21586 8.2123 9.23675
246 1 -1.1104 1.1354 5.27737 11.9151
247 1 -1.1104 1.30586 10.8882 12.0253
250 2 2.2208 5.47064 9.62576 7.86176
251 1 -1.1104 1.246 5.54397 9.1703
252 1 -1.1104 1.32871 11.0576 9.35361
255 1 -1.1104 4.15779 8.11916 11.9669
256 2 2.2208 2.59422 6.85282 7.74788
257 2 2.2208 2.65554 12.3587 7.76486
258 1 -1.1104 3.95253 8.24086 9.16238
259 2 2.2208 2.73831 9.62178 10.6061
260 1 -1.1104 4.10328 5.37912 12.1342
261 1 -1.1104 4.03381 10.8676 12.079
262 1 -1.1104 3.98769 5.3343 9.17121
263 1 -1.1104 4.1441 11.1254 9.30692
8967 2 2.2208 -0.0897313 9.57749 7.84215
470 2 2.2208 2.62005 18.0524 13.6932
143 1 -1.1104 12.3923 13.8367 6.77591
265 1 -1.1104 12.5118 8.39384 6.4516
90 1 -1.1104 12.5288 11.0862 6.53348
65 1 -1.1104 6.75743 10.936 6.58265
243 1 -1.1104 6.85179 8.11189 12.0188
249 1 -1.1104 6.88518 10.9791 12.1169
248 1 -1.1104 6.93671 5.3226 12.1521
253 1 -1.1104 6.80938 5.36614 9.3404
254 1 -1.1104 6.93394 10.9785 9.33221
245 1 -1.1104 6.89687 8.16561 9.18235
264 1 -1.1104 9.68894 11.0415 9.48109
268 1 -1.1104 9.5577 5.56512 9.12933
270 1 -1.1104 9.61671 11.0348 12.162
271 1 -1.1104 9.69352 5.46407 11.8813
272 2 2.2208 8.41159 9.48986 10.5798
273 1 -1.1104 9.83524 8.21199 9.35557
274 2 2.2208 8.12079 12.4963 7.9805
275 2 2.2208 8.18487 6.77931 7.98329
276 2 2.2208 11.1124 6.91324 10.7125
277 2 2.2208 10.9711 12.4684 10.6648
278 1 -1.1104 12.5595 8.27123 12.0621
279 1 -1.1104 12.5386 8.2008 9.29786
280 1 -1.1104 12.3593 5.50313 12.1903
281 1 -1.1104 12.377 11.015 11.9936
282 2 2.2208 11.0318 9.77569 7.82426
283 1 -1.1104 12.3188 5.37081 9.33987
284 1 -1.1104 12.4488 11.045 9.264
285 1 -1.1104 9.71923 8.13213 12.2522
371 2 2.2208 8.2633 1.21274 13.5059
290 1 -1.1104 6.9095 13.8985 9.2645
117 1 -1.1104 1.21975 16.5632 6.55625
108 1 -1.1104 1.16911 13.7397 6.54417
133 1 -1.1104 3.9874 16.5586 6.52922
8765 2 2.2208 -0.0297839 15.2021 8.05635
8739 2 2.2208 -0.137326 20.8038 8.07589
8740 2 2.2208 -0.0833094 17.8796 10.8611
126 1 -1.1104 3.99386 19.3271 6.80457
28 2 2.2208 2.66965 20.6689 10.7786
29 1 -1.1104 3.97295 16.4413 12.2271
51 1 -1.1104 1.28026 16.4707 12.2395
136 1 -1.1104 1.17416 13.7555 12.3263
200 1 -1.1104 1.18247 19.3195 12.3249
202 1 -1.1104 4.19093 13.6971 9.22225
203 1 -1.1104 4.03468 16.5247 9.42562
204 2 2.2208 2.51752 17.8599 7.99562
230 2 2.2208 2.80329 15.0064 10.81
232 1 -1.1104 3.93777 19.1842 9.48728
233 2 2.2208 5.51069 17.9161 10.7525
286 1 -1.1104 4.07335 19.3959 12.2324
287 1 -1.1104 4.06715 13.664 12.1211
291 1 -1.1104 1.24398 19.3933 9.40784
292 1 -1.1104 1.18138 16.5552 9.47856
293 2 2.2208 5.37692 20.8383 7.94058
294 1 -1.1104 1.39016 13.7459 9.33984
295 2 2.2208 5.42897 15.2495 7.8597
105 2 2.2208 8.10618 18.1034 7.91655
30 1 -1.1104 12.4303 14.0164 9.43331
25 2 2.2208 11.0711 18.1184 10.7232
137 1 -1.1104 9.40781 19.4929 9.23936
296 1 -1.1104 6.90844 19.3375 12.1994
82 1 -1.1104 12.4103 16.8102 9.39318
81 2 2.2208 10.9974 20.8251 7.87062
201 1 -1.1104 9.71949 16.7011 11.9602
104 1 -1.1104 9.69951 19.4742 12.2839
199 2 2.2208 8.16603 20.7892 10.7306
112 1 -1.1104 6.76944 19.4539 6.60343
118 1 -1.1104 6.71361 16.7541 6.56077
145 1 -1.1104 12.5277 19.3279 6.67662
229 1 -1.1104 9.67385 16.7191 9.15228
53 2 2.2208 11.0248 15.3393 7.95377
165 2 2.2208 8.19805 15.2666 10.7343
288 1 -1.1104 6.75226 19.4969 9.3112
52 1 -1.1104 6.84539 16.6598 12.127
8343 2 2.2208 -0.33417 -4.28002 10.6782
9269 2 2.2208 -0.158464 20.8738 13.573
436 2 2.2208 8.2234 12.425 13.573
408 2 2.2208 5.45139 9.57279 13.4755
472 2 2.2208 5.50218 15.0709 13.6247
372 2 2.2208 10.9682 -1.60689 13.5407
17353 2 2.2208 0.00598531 -4.34083 5.13436
471 2 2.2208 5.45444 20.8299 13.6096
337 2 2.2208 2.5476 15.2123 -0.361206
366 2 2.2208 2.553 20.7828 -0.401467
498 2 2.2208 11.0942 15.3771 13.5187
298 2 2.2208 5.32947 1.34188 16.371
299 1 -1.1104 1.08804 -2.85138 17.8003
300 1 -1.1104 1.29925 2.57502 17.6142
303 1 -1.1104 1.26497 -2.87383 14.9321
305 1 -1.1104 1.19627 2.87816 14.8875
311 1 -1.1104 1.12713 -0.113019 17.7552
313 2 2.2208 5.43734 -1.42469 19.108
314 2 2.2208 5.456 3.98643 19.2013
315 1 -1.1104 1.11119 -0.0828992 14.8989
319 1 -1.1104 3.99474 -2.92014 17.7811
320 1 -1.1104 4.09061 2.7176 17.7612
321 2 2.2208 2.65621 1.1418 19.1208
322 1 -1.1104 4.09732 -2.73879 14.9333
324 1 -1.1104 3.99271 2.71879 14.9227
326 2 2.2208 2.60345 -1.41522 16.3469
327 2 2.2208 2.72033 4.07262 16.218
328 1 -1.1104 3.91783 -0.188 17.6396
329 1 -1.1104 3.87875 0.0535484 14.9806
9416 2 2.2208 -0.288763 -1.44065 19.1989
9415 2 2.2208 -0.203566 1.34983 16.3878
9123 2 2.2208 -0.00650898 3.82606 19.2314
306 1 -1.1104 1.32633 2.39942 20.5564
9425 2 2.2208 -0.204648 15.2565 24.7981
304 1 -1.1104 1.20861 -2.88696 20.5445
330 1 -1.1104 3.97407 -0.222878 20.5996
325 1 -1.1104 4.01802 2.50981 20.6234
307 1 -1.1104 6.98542 -2.88989 14.951
312 1 -1.1104 6.75032 -0.127875 17.6727
302 1 -1.1104 6.89131 2.63902 17.8925
301 1 -1.1104 6.78636 -2.83402 17.6904
317 1 -1.1104 6.68789 0.0728886 14.8898
309 1 -1.1104 6.82889 2.73398 14.7886
341 2 2.2208 11.0611 1.23049 16.3157
342 1 -1.1104 12.3122 -2.97092 17.7512
343 1 -1.1104 12.5138 2.49094 17.742
344 1 -1.1104 12.5239 -2.99527 15.0381
346 1 -1.1104 12.4497 2.65956 15.1301
348 1 -1.1104 12.3136 -0.309539 17.7592
349 2 2.2208 10.9421 -1.62183 19.1839
350 2 2.2208 11.0078 3.88213 19.1584
351 1 -1.1104 12.3051 -0.212177 14.8988
353 1 -1.1104 9.48244 -2.95265 17.736
354 1 -1.1104 9.58661 2.56819 17.7568
355 2 2.2208 8.22524 1.1693 19.2075
356 1 -1.1104 9.62139 -2.97951 14.8746
358 1 -1.1104 9.63994 2.55747 15.0001
360 2 2.2208 8.22587 -1.46138 16.3892
361 2 2.2208 8.24424 4.03719 16.4006
362 1 -1.1104 9.62793 -0.107836 17.7743
363 1 -1.1104 9.45739 -0.266841 14.9571
352 1 -1.1104 12.4961 -0.211107 20.6058
359 1 -1.1104 9.51327 2.55103 20.6436
310 1 -1.1104 6.77476 2.6103 20.738
345 1 -1.1104 12.4434 -2.91389 20.7061
318 1 -1.1104 6.7457 -0.0889743 20.4712
357 1 -1.1104 9.59975 -3.05278 20.4848
347 1 -1.1104 12.3384 2.55551 20.569
308 1 -1.1104 6.74883 -2.9257 20.4959
364 1 -1.1104 9.49964 -0.279216 20.6176
9422 2 2.2208 -0.215486 18.1977 22.0867
9429 2 2.2208 -0.185877 9.57521 19.0749
374 2 2.2208 5.4574 6.64551 16.2816
375 2 2.2208 5.40516 12.2697 16.4293
376 1 -1.1104 1.18167 8.23892 17.6042
378 1 -1.1104 1.3431 8.07349 14.7409
382 1 -1.1104 1.24609 5.33343 17.6663
383 1 -1.1104 1.17643 11.0071 17.7272
386 2 2.2208 5.43606 9.46642 19.086
387 1 -1.1104 1.10296 5.53372 14.755
389 1 -1.1104 1.33637 10.8341 14.9936
395 1 -1.1104 4.07263 8.18916 17.7337
396 2 2.2208 2.63949 6.86332 19.0467
397 2 2.2208 2.64013 12.4036 19.2
398 1 -1.1104 4.02629 8.2378 14.9748
400 2 2.2208 2.64208 9.40535 16.2809
401 1 -1.1104 4.00084 5.42811 17.6412
402 1 -1.1104 3.95769 11.0242 17.8598
403 1 -1.1104 4.09092 5.47616 14.7197
405 1 -1.1104 3.9764 11.0227 14.9565
9196 2 2.2208 -0.193466 6.82683 16.2489
9431 2 2.2208 -0.119348 12.3987 16.3947
406 1 -1.1104 4.00044 10.9052 20.6379
404 1 -1.1104 3.89249 5.32651 20.4643
388 1 -1.1104 1.05537 5.31301 20.4425
379 1 -1.1104 1.19189 8.09534 20.4407
500 2 2.2208 11.0856 18.0124 27.734
8646 2 2.2208 10.9912 -4.39242 16.2481
393 1 -1.1104 6.80138 10.9238 15.0297
377 1 -1.1104 6.87263 8.19605 17.6597
391 1 -1.1104 6.84645 5.33724 14.9407
380 1 -1.1104 6.91178 8.25367 15.0269
384 1 -1.1104 6.85786 5.41883 17.6982
385 1 -1.1104 6.74917 10.9033 17.8644
410 2 2.2208 11.0279 6.75311 16.3827
411 2 2.2208 11.0722 12.3904 16.2757
412 1 -1.1104 12.4478 8.04749 17.7249
413 1 -1.1104 12.3112 8.17975 14.9592
415 1 -1.1104 12.3841 5.25103 17.76
416 1 -1.1104 12.4642 10.8578 17.7699
417 2 2.2208 11.0698 9.57468 19.0108
418 1 -1.1104 12.3772 5.4027 14.9004
420 1 -1.1104 12.4235 11.016 14.9731
422 1 -1.1104 9.63494 8.06099 17.9945
423 2 2.2208 8.21707 6.73608 19.2478
424 2 2.2208 8.26524 12.2438 19.1477
425 1 -1.1104 9.70893 8.20251 15.0425
427 2 2.2208 8.31679 9.52914 16.4043
428 1 -1.1104 9.63569 5.4037 17.8468
429 1 -1.1104 9.60419 10.8836 17.6974
430 1 -1.1104 9.5581 5.34208 15.0156
432 1 -1.1104 9.68833 11.0175 14.9867
433 1 -1.1104 9.87766 10.9986 20.5165
381 1 -1.1104 6.90974 8.10922 20.5209
394 1 -1.1104 6.91193 10.7461 20.4417
392 1 -1.1104 6.78192 5.34142 20.5518
426 1 -1.1104 9.66396 8.37536 20.6653
421 1 -1.1104 12.5141 11.0533 20.6151
431 1 -1.1104 9.57736 5.36727 20.4553
527 2 2.2208 2.5773 3.92788 27.4257
17408 2 2.2208 -0.276079 -4.29642 16.3315
365 2 2.2208 5.56036 18.0679 27.7702
9419 2 2.2208 -0.237589 18.0736 16.5415
437 2 2.2208 5.32613 18.0178 16.3808
438 1 -1.1104 1.211 13.8344 17.8545
439 1 -1.1104 1.28024 19.431 17.7608
442 1 -1.1104 1.35682 13.6601 15.0159
444 1 -1.1104 1.26354 19.4517 15.016
450 1 -1.1104 1.21914 16.7055 17.9703
452 2 2.2208 5.59411 15.003 19.1705
453 2 2.2208 5.43211 20.8424 19.2328
454 1 -1.1104 1.11879 16.4541 15.1946
458 1 -1.1104 4.0503 13.8444 17.7143
459 1 -1.1104 4.08712 19.413 17.8643
460 2 2.2208 2.68817 17.8456 19.4204
461 1 -1.1104 4.12761 13.6114 15.0277
463 1 -1.1104 3.96949 19.4619 14.96
465 2 2.2208 2.60813 15.1211 16.3422
466 2 2.2208 2.66384 20.7228 16.4614
467 1 -1.1104 4.00597 16.6936 17.8798
468 1 -1.1104 4.02098 16.4971 15.0085
9423 2 2.2208 -0.19897 15.123 19.2458
9265 2 2.2208 -0.116634 20.7196 19.1625
445 1 -1.1104 1.31414 19.1944 20.6252
443 1 -1.1104 1.3971 13.7353 20.6551
8712 2 2.2208 2.53004 -4.32488 19.2009
446 1 -1.1104 6.91284 13.7744 14.9125
451 1 -1.1104 6.86951 16.6127 17.7739
441 1 -1.1104 6.79936 19.2995 17.8516
440 1 -1.1104 6.81181 13.7491 17.7191
448 1 -1.1104 6.73072 19.2228 14.9139
456 1 -1.1104 7.01677 16.5529 14.9358
473 2 2.2208 11.0763 17.9649 16.4383
474 1 -1.1104 12.6937 13.5917 17.7094
475 1 -1.1104 12.6603 19.061 17.789
476 1 -1.1104 12.4683 14.0047 14.9913
478 1 -1.1104 12.49 19.6791 15.1742
480 1 -1.1104 12.5085 16.419 17.7434
481 2 2.2208 11.1335 15.0777 19.0503
482 2 2.2208 11.0692 20.7287 19.3943
483 1 -1.1104 12.5507 16.8577 15.0246
485 1 -1.1104 9.7357 13.6849 17.7168
486 1 -1.1104 9.70735 19.2914 17.7197
487 2 2.2208 8.26057 17.7952 19.255
488 1 -1.1104 9.79448 13.9029 14.977
490 1 -1.1104 9.60764 19.2941 14.9695
492 2 2.2208 8.28463 15.1235 16.3398
493 2 2.2208 8.06943 20.5324 16.3914
494 1 -1.1104 9.68139 16.4114 17.7901
495 1 -1.1104 9.74181 16.5668 14.8965
489 1 -1.1104 9.63184 13.6658 20.4596
457 1 -1.1104 6.84941 16.4291 20.553
496 1 -1.1104 9.68258 16.2744 20.7055
447 1 -1.1104 6.97197 13.4946 20.5067
8644 2 2.2208 8.14211 -4.40922 19.0283
9079 2 2.2208 -0.119367 6.7599 27.5771
9085 2 2.2208 -0.229999 12.3303 27.5914
331 2 2.2208 8.14562 15.0597 22.0438
323 1 -1.1104 3.9923 -2.87346 20.7446
9271 2 2.2208 -0.344065 3.93232 24.7839
316 1 -1.1104 1.13144 -0.158457 20.7401
501 2 2.2208 5.42517 1.24568 22.0554
502 1 -1.1104 1.19552 -3.02315 23.3995
503 1 -1.1104 1.28482 2.56448 23.3958
506 1 -1.1104 1.24855 -2.98366 26.2223
507 1 -1.1104 1.13648 2.56835 26.1853
510 1 -1.1104 1.28759 -0.256438 23.5563
512 2 2.2208 5.28974 -1.73088 24.9526
513 2 2.2208 5.47624 3.98624 24.7642
514 1 -1.1104 1.25843 -0.280871 26.3037
516 1 -1.1104 3.90712 -3.02826 23.5864
517 1 -1.1104 3.94193 2.62956 23.5168
518 2 2.2208 2.7162 1.11356 24.8275
519 1 -1.1104 4.10639 -3.01169 26.345
520 1 -1.1104 4.03015 2.47533 26.2612
521 2 2.2208 2.59537 -1.54502 22.0999
522 2 2.2208 2.64846 4.03926 21.9868
523 1 -1.1104 3.98113 -0.128458 23.405
524 1 -1.1104 4.0642 -0.278564 26.2231
9297 2 2.2208 -0.176805 -1.63816 24.9626
9272 2 2.2208 -0.0295491 1.10275 22.2447
9424 2 2.2208 -0.264437 18.027 27.7185
334 1 -1.1104 9.67737 16.583 26.1459
596 2 2.2208 8.37769 17.8551 24.8523
525 2 2.2208 5.47383 1.08751 27.6423
526 2 2.2208 2.49047 -1.64041 27.6463
556 2 2.2208 8.19742 -1.62253 27.553
536 1 -1.1104 12.4397 19.5344 26.217
555 2 2.2208 10.9961 1.15238 27.5661
504 1 -1.1104 6.81368 -2.9486 23.4164
505 1 -1.1104 6.92292 2.61185 23.5437
508 1 -1.1104 6.89401 -3.18165 26.2915
509 1 -1.1104 6.89748 2.74339 26.2238
511 1 -1.1104 6.72063 -0.152352 23.3545
515 1 -1.1104 6.86873 -0.315148 26.149
537 2 2.2208 10.9597 1.14473 22.0813
538 1 -1.1104 12.5312 -2.87069 23.4702
539 1 -1.1104 12.3574 2.60908 23.2911
540 1 -1.1104 12.6051 -2.92417 26.2018
541 1 -1.1104 12.5217 2.54987 26.1349
542 1 -1.1104 12.4071 -0.10991 23.4412
543 2 2.2208 11.0724 -1.55571 24.8998
544 2 2.2208 11.0002 3.85036 24.7333
545 1 -1.1104 12.4478 -0.206331 26.1832
546 1 -1.1104 9.63672 -2.75843 23.315
547 1 -1.1104 9.51843 2.52938 23.48
548 2 2.2208 8.16321 1.21424 24.847
549 1 -1.1104 9.70512 -3.00868 26.1067
550 1 -1.1104 9.77963 2.62457 26.2556
551 2 2.2208 8.23146 -1.53254 21.9847
552 2 2.2208 8.23168 4.05403 22.0043
553 1 -1.1104 9.64928 -0.168058 23.4508
554 1 -1.1104 9.67654 -0.247717 26.2334
591 2 2.2208 2.58164 9.68686 27.6371
557 2 2.2208 8.3931 4.09842 27.5222
17602 2 2.2208 -0.251616 -4.2924 22.0034
399 1 -1.1104 4.07443 8.04675 20.4966
390 1 -1.1104 1.08331 10.9363 20.5212
9374 2 2.2208 -0.312795 6.86366 21.9323
566 2 2.2208 5.44018 6.74902 21.8092
567 2 2.2208 5.49448 12.2185 21.9448
568 1 -1.1104 1.12625 8.34148 23.2842
570 1 -1.1104 1.41197 8.49448 26.119
572 1 -1.1104 1.19175 5.43165 23.3169
573 1 -1.1104 1.2947 10.9863 23.3346
576 2 2.2208 5.49284 9.56338 24.754
577 1 -1.1104 1.20457 5.43126 26.2369
578 1 -1.1104 1.19751 11.1065 26.3427
581 1 -1.1104 3.8206 8.109 23.2896
582 2 2.2208 2.60036 6.81189 24.7173
583 2 2.2208 2.78377 12.5313 24.8058
584 1 -1.1104 4.10403 8.06369 25.9666
585 2 2.2208 2.5392 9.56355 21.8983
586 1 -1.1104 4.14809 5.53655 23.2242
587 1 -1.1104 3.98285 11.0142 23.3494
588 1 -1.1104 4.11558 5.40957 25.8957
589 1 -1.1104 4.22145 10.9441 26.1123
9436 2 2.2208 -0.0914121 12.427 22.0076
9435 2 2.2208 -0.150686 9.7326 24.7561
590 2 2.2208 5.3599 6.7429 27.5224
616 2 2.2208 8.32058 9.47721 27.6017
617 2 2.2208 11.0864 12.4178 27.5966
479 1 -1.1104 12.6717 19.3477 20.5429
419 1 -1.1104 12.4812 5.41597 20.541
414 1 -1.1104 12.578 8.29881 20.4422
579 1 -1.1104 6.9253 5.43309 26.1993
569 1 -1.1104 6.9391 8.016 23.2475
580 1 -1.1104 6.87314 10.9681 25.9534
574 1 -1.1104 6.85322 5.30601 23.2771
571 1 -1.1104 6.92676 8.2238 26.2293
575 1 -1.1104 6.78151 10.8523 23.2331
597 1 -1.1104 9.70746 10.8563 26.2118
598 1 -1.1104 9.70728 5.27041 26.0615
599 1 -1.1104 9.67046 11.0752 23.2867
600 1 -1.1104 9.67271 5.30925 23.2005
601 2 2.2208 8.2581 9.68876 21.8085
602 1 -1.1104 9.82494 8.15881 26.2272
603 2 2.2208 8.32403 12.4078 24.7222
604 2 2.2208 8.30234 6.79629 24.7254
605 2 2.2208 11.0182 6.74542 21.8373
606 2 2.2208 11.1933 12.5128 21.9402
607 1 -1.1104 12.5091 8.16214 23.1797
608 1 -1.1104 12.4454 8.33921 26.0204
609 1 -1.1104 12.4334 5.41758 23.4541
610 1 -1.1104 12.591 11.0263 23.2815
611 2 2.2208 11.1661 9.50623 24.653
612 1 -1.1104 12.5297 5.37286 26.2014
613 1 -1.1104 12.4639 11.1492 26.1021
614 1 -1.1104 9.73668 8.07584 23.3386
535 1 -1.1104 12.5312 13.9477 26.183
462 1 -1.1104 4.22544 13.6857 20.5164
455 1 -1.1104 1.25727 16.4056 20.713
469 1 -1.1104 4.13306 16.5099 20.6577
464 1 -1.1104 4.14909 19.5147 20.6348
615 2 2.2208 11.018 6.72257 27.5711
367 2 2.2208 2.74881 15.1287 22.0163
368 2 2.2208 2.67806 20.7846 22.1371
369 1 -1.1104 4.11183 16.5686 23.4714
530 1 -1.1104 1.24637 16.7037 23.4663
532 1 -1.1104 4.0023 13.8608 26.3078
559 1 -1.1104 3.96965 16.5757 26.3029
594 2 2.2208 2.66671 17.9018 24.9807
595 1 -1.1104 4.02309 19.4583 26.2855
618 2 2.2208 5.58662 17.9614 22.0436
619 1 -1.1104 1.31909 13.9713 23.4078
620 1 -1.1104 1.22571 19.4708 23.5363
621 1 -1.1104 4.03581 19.3132 23.4978
623 1 -1.1104 4.03915 13.8759 23.4646
625 1 -1.1104 1.16198 19.3872 26.3745
626 1 -1.1104 1.29811 16.7107 26.3738
627 1 -1.1104 1.07286 13.9864 26.2415
629 2 2.2208 5.43485 20.6929 24.8178
630 2 2.2208 5.3634 15.1975 24.8727
9078 2 2.2208 -0.23267 20.7987 24.9663
534 1 -1.1104 12.4371 19.3442 23.4271
563 2 2.2208 11.0405 20.7781 24.8568
449 1 -1.1104 7.01273 19.2558 20.6793
491 1 -1.1104 9.89125 19.2306 20.6779
484 1 -1.1104 12.4684 16.6885 20.6162
477 1 -1.1104 12.4519 13.924 20.5746
561 1 -1.1104 9.75862 19.3369 26.3787
533 1 -1.1104 12.468 13.7286 23.4179
564 1 -1.1104 12.4605 16.6791 26.3046
558 1 -1.1104 12.5535 16.6447 23.4007
560 1 -1.1104 9.75508 13.7374 26.2548
531 1 -1.1104 6.85091 16.4487 23.3331
529 2 2.2208 11.1262 18.017 21.936
562 2 2.2208 11.1841 15.1966 24.7387
332 2 2.2208 8.30775 20.6279 22.0919
631 1 -1.1104 6.79961 13.6873 23.3781
624 1 -1.1104 6.82794 16.4194 26.1433
593 1 -1.1104 9.64521 19.4413 23.616
335 1 -1.1104 6.8662 19.2487 26.2026
628 1 -1.1104 6.96743 19.163 23.4109
565 1 -1.1104 9.58207 13.9198 23.3215
333 1 -1.1104 9.78762 16.6337 23.4314
622 1 -1.1104 7.05459 13.7947 26.2357
370 2 2.2208 8.39159 15.1384 27.6419
592 2 2.2208 5.48092 12.5291 27.6996
528 2 2.2208 8.32095 20.7903 27.6062
499 2 2.2208 8.24784 18.0606 13.5752
9299 2 2.2208 -0.221478 1.27068 27.5349
632 2 2.2208 5.23479 23.6333 5.13514
633 2 2.2208 5.32505 29.2371 5.20416
634 1 -1.1104 1.15175 25.0948 0.92406
635 1 -1.1104 0.979547 25.0285 3.89782
636 1 -1.1104 1.04579 22.1603 0.960188
637 1 -1.1104 1.15884 27.934 0.967619
638 2 2.2208 5.40969 26.4554 2.4525
639 1 -1.1104 1.19719 22.2817 3.79775
640 1 -1.1104 1.15955 27.7812 3.7517
641 1 -1.1104 3.93672 25.22 0.995949
642 2 2.2208 2.44158 23.7028 2.42639
643 2 2.2208 2.58116 29.1935 2.46349
644 1 -1.1104 3.98976 24.9863 3.80752
645 2 2.2208 2.49788 26.3733 5.24343
646 1 -1.1104 3.93081 22.411 0.984345
647 1 -1.1104 3.96045 27.8938 0.982011
648 1 -1.1104 3.99497 22.1712 3.70231
649 1 -1.1104 3.873 27.6632 3.77112
9746 2 2.2208 -0.330255 23.6976 5.19542
779 1 -1.1104 3.96313 24.9274 6.50714
775 1 -1.1104 1.03032 22.1736 6.58133
9745 2 2.2208 -0.207735 29.172 5.09847
9743 2 2.2208 -0.302499 26.46 2.34594
1027 2 2.2208 5.28106 31.9019 13.6462
1474 1 -1.1104 6.73499 47.3023 12.2852
1229 2 2.2208 8.2246 37.6137 -0.285085
9650 3 0 13.2033 31.424 10.5563
774 1 -1.1104 6.77912 24.9939 6.49082
658 1 -1.1104 6.7717 27.7897 3.81831
654 1 -1.1104 6.89089 24.946 3.72548
655 1 -1.1104 7.00904 22.2222 0.885235
656 1 -1.1104 6.70067 27.772 1.01831
653 1 -1.1104 6.82606 25.0722 0.917273
657 1 -1.1104 6.84306 22.1076 3.75855
659 2 2.2208 11.1273 23.6137 5.09632
660 2 2.2208 10.8391 29.1731 5.24048
661 1 -1.1104 12.3567 25.0244 0.89088
662 1 -1.1104 12.4371 24.9178 3.7273
663 1 -1.1104 12.5082 22.3319 0.945665
664 1 -1.1104 12.3993 27.7858 1.24595
665 2 2.2208 10.8367 26.3789 2.32474
666 1 -1.1104 12.4498 22.1584 3.87732
667 1 -1.1104 12.3571 27.847 3.99618
668 1 -1.1104 9.59413 25.0111 0.965658
669 2 2.2208 8.19339 23.6939 2.42357
670 2 2.2208 8.16447 29.3356 2.41167
671 1 -1.1104 9.70855 24.9616 3.79917
672 2 2.2208 8.2335 26.3265 5.03392
673 1 -1.1104 9.68616 22.2945 1.02316
674 1 -1.1104 9.5276 27.8684 0.986605
675 1 -1.1104 9.57563 22.1928 3.73648
676 1 -1.1104 9.49366 27.8482 3.78694
806 1 -1.1104 12.4274 25.0137 6.48145
810 1 -1.1104 9.53939 22.2432 6.59208
809 1 -1.1104 9.51912 25.0252 6.45821
777 1 -1.1104 6.60488 22.2786 6.52281
811 1 -1.1104 9.59841 27.7421 6.46664
1327 1 -1.1104 9.48206 47.4526 1.10395
9754 2 2.2208 -0.310956 46.0935 5.36189
926 2 2.2208 -0.211615 37.6783 2.52735
680 2 2.2208 5.23842 34.9199 5.30548
681 1 -1.1104 1.26949 30.7445 1.07627
682 1 -1.1104 1.18741 36.3321 1.14889
684 1 -1.1104 1.2107 30.613 3.95202
685 1 -1.1104 1.2284 36.4001 3.81939
687 1 -1.1104 1.08728 33.4936 1.15606
688 2 2.2208 5.34005 32.0221 2.4478
689 2 2.2208 5.41559 37.6233 2.49671
690 1 -1.1104 1.07319 33.4882 3.959
692 1 -1.1104 4.11768 30.5906 1.12331
693 1 -1.1104 3.94583 36.0665 1.04561
694 2 2.2208 2.56948 34.9746 2.45913
695 1 -1.1104 3.9727 30.5346 3.78733
696 1 -1.1104 3.94204 36.2678 4.08211
697 2 2.2208 2.57004 31.995 5.29454
698 2 2.2208 2.54493 37.7156 5.17694
699 1 -1.1104 3.86825 33.4753 1.00796
700 1 -1.1104 3.86848 33.4845 3.79882
925 2 2.2208 -0.229138 34.9215 5.42024
9750 2 2.2208 -0.26206 32.045 2.44922
833 1 -1.1104 3.87923 36.4442 6.72661
826 1 -1.1104 1.32564 30.492 6.63392
830 1 -1.1104 1.29749 33.2849 6.75266
922 1 -1.1104 9.61112 41.8928 9.5335
1486 1 -1.1104 3.76884 47.5238 12.3999
683 1 -1.1104 6.76152 36.1186 1.18732
691 1 -1.1104 6.78122 33.3768 3.67874
686 1 -1.1104 6.73638 36.1345 3.95459
706 1 -1.1104 6.65136 33.2412 0.79123
704 1 -1.1104 6.78305 30.6421 0.978943
705 1 -1.1104 6.76225 30.6663 3.681
707 2 2.2208 10.9406 34.7969 5.24355
708 1 -1.1104 12.3982 30.6276 1.21452
709 1 -1.1104 12.4286 36.3512 1.00871
710 1 -1.1104 12.3927 30.5725 3.99541
711 1 -1.1104 12.5125 36.1777 3.90781
712 1 -1.1104 12.4808 33.4007 1.03039
713 2 2.2208 10.9971 32.0767 2.48843
714 2 2.2208 11.0704 37.7431 2.51318
715 1 -1.1104 12.4806 33.4488 3.86475
716 1 -1.1104 9.50771 30.5785 0.905972
717 1 -1.1104 9.58463 36.204 1.13639
718 2 2.2208 8.10897 34.7812 2.40726
719 1 -1.1104 9.4969 30.6832 3.7372