ITEM: TIMESTEP
70000
ITEM: NUMBER OF ATOMS
17760
ITEM: BOX BOUNDS pp pp pp
-3.7183130696661709e-01 2.7711831306966605e+01
-4.4683190677509712e+00 3.3254831906775388e+02
-3.7051318940381611e-01 2.7710513189403621e+01
ITEM: ATOMS id type q x y z
1 2 2.2208 5.39994 1.04647 5.23209
2 1 -1.1104 1.32629 -3.18225 1.09499
3 1 -1.1104 1.20744 2.54826 1.04472
6 1 -1.1104 1.21574 -3.0955 3.81107
7 1 -1.1104 1.18311 2.48055 3.96817
10 1 -1.1104 1.33429 -0.452381 1.00541
12 2 2.2208 5.39896 -1.70971 2.44183
14 1 -1.1104 1.2954 -0.392528 3.85467
16 1 -1.1104 4.02868 -3.05787 1.13012
17 1 -1.1104 4.04326 2.45461 1.26115
18 2 2.2208 2.6587 0.909334 2.43578
19 1 -1.1104 4.14255 -3.13562 3.79756
20 1 -1.1104 3.87948 2.4087 3.80523
21 2 2.2208 2.5864 -1.74966 5.26756
22 2 2.2208 2.68105 3.87376 5.29569
23 1 -1.1104 4.05984 -0.305301 1.00534
24 1 -1.1104 4.09695 -0.459227 3.89843
13 2 2.2208 5.3691 3.90075 2.53146
4 1 -1.1104 6.73992 -3.23848 1.10754
5 1 -1.1104 6.72342 2.48899 0.988271
171 1 -1.1104 6.90767 -0.284529 6.67781
166 1 -1.1104 1.10575 -3.20789 6.70076
8765 2 2.2208 -0.33786 15.211 8.06141
590 2 2.2208 5.35331 6.83045 -0.363401
8960 2 2.2208 -0.189736 12.398 10.7951
9037 2 2.2208 -0.115882 -1.79792 2.49462
173 1 -1.1104 4.12425 2.34619 6.63045
167 1 -1.1104 1.271 2.27871 6.69291
8968 2 2.2208 -0.260409 6.77989 10.8054
9042 2 2.2208 -0.123838 18.0379 5.27203
9079 2 2.2208 -0.107349 6.61041 -0.305389
9 1 -1.1104 6.79034 2.2893 3.97257
8 1 -1.1104 6.95451 -3.02109 4.06852
11 1 -1.1104 6.92476 -0.419468 0.994857
168 1 -1.1104 6.91488 -3.0217 6.81666
15 1 -1.1104 6.96456 -0.252935 3.72997
9046 2 2.2208 -0.215486 6.76311 5.27831
31 2 2.2208 11.0585 0.907097 5.42231
32 1 -1.1104 12.4963 -3.14476 1.0462
33 1 -1.1104 12.3491 2.49097 1.24361
34 1 -1.1104 12.6051 -3.34095 3.88259
35 1 -1.1104 12.5444 2.40049 3.93109
36 1 -1.1104 12.5165 -0.357672 1.18148
37 2 2.2208 11.1273 -1.74244 2.51498
39 1 -1.1104 12.5799 -0.31012 4.05248
40 1 -1.1104 9.69977 -3.04523 1.18329
41 1 -1.1104 9.52115 2.48675 1.02886
42 2 2.2208 8.28625 1.04624 2.37023
43 1 -1.1104 9.71356 -3.20904 3.9215
44 1 -1.1104 9.61221 2.3689 3.99713
45 2 2.2208 8.38474 -1.7611 5.23513
46 2 2.2208 8.26416 3.74411 5.35951
47 1 -1.1104 9.77686 -0.306397 1.17074
48 1 -1.1104 9.8748 -0.410073 3.9298
38 2 2.2208 10.9377 3.77792 2.53785
210 1 -1.1104 9.64934 -0.221748 6.79359
205 1 -1.1104 12.5618 -3.10594 6.63037
207 1 -1.1104 12.6652 -0.389858 6.75058
209 1 -1.1104 9.75074 2.60378 6.63184
9051 2 2.2208 -0.251533 20.8319 2.42081
49 1 -1.1104 12.424 19.2895 9.5656
8933 2 2.2208 -0.200041 3.84698 8.06786
54 2 2.2208 5.41979 6.70037 5.37408
55 2 2.2208 5.34124 12.2264 5.2388
56 1 -1.1104 1.09655 7.9436 1.19808
58 1 -1.1104 1.12356 8.13868 3.9176
60 1 -1.1104 1.33143 5.18476 1.09928
61 1 -1.1104 1.18123 10.9096 1.12589
66 2 2.2208 5.44744 9.53233 2.37047
67 1 -1.1104 1.19678 5.32164 3.91123
68 1 -1.1104 1.18814 10.9322 3.87113
71 1 -1.1104 4.02205 8.15074 1.15721
72 2 2.2208 2.70605 6.63863 2.4605
73 2 2.2208 2.66856 12.3167 2.51556
74 1 -1.1104 3.99703 8.03625 3.92764
75 2 2.2208 2.55433 9.45406 5.13023
76 1 -1.1104 4.04724 5.30566 1.13872
77 1 -1.1104 3.91558 11.0455 0.933297
79 1 -1.1104 4.05634 5.34314 3.8829
80 1 -1.1104 4.05983 10.8319 3.63933
59 1 -1.1104 6.89693 8.07329 3.86633
64 1 -1.1104 6.73081 10.873 1.08173
234 1 -1.1104 1.12423 8.07927 6.58731
78 1 -1.1104 4.03262 10.8332 6.54905
237 1 -1.1104 6.94749 5.2087 6.65775
239 1 -1.1104 4.0894 5.34676 6.67823
238 1 -1.1104 3.96313 8.12084 6.62488
236 1 -1.1104 1.22596 5.12503 6.81137
62 1 -1.1104 1.13649 10.8515 6.58001
289 1 -1.1104 6.86485 16.5311 9.60279
9052 2 2.2208 -0.265766 -1.75472 7.9776
70 1 -1.1104 6.86525 10.8269 3.73006
63 1 -1.1104 6.8061 5.40632 0.999992
69 1 -1.1104 6.90024 5.13033 3.94288
57 1 -1.1104 6.77946 8.11787 0.952048
8899 2 2.2208 -0.263846 1.07485 10.7764
84 2 2.2208 10.994 6.65337 5.26046
85 2 2.2208 10.8859 12.3508 5.24415
86 1 -1.1104 12.4766 8.09211 0.876186
87 1 -1.1104 12.3619 8.08484 3.85698
88 1 -1.1104 12.2907 5.27104 1.15032
89 1 -1.1104 12.4288 10.7866 1.10802
91 2 2.2208 11.0518 9.45907 2.40992
92 1 -1.1104 12.3413 5.25704 3.91558
93 1 -1.1104 12.3827 10.8681 3.78329
94 1 -1.1104 9.67057 7.98069 1.19666
95 2 2.2208 8.25071 6.64288 2.46224
96 2 2.2208 8.20644 12.2751 2.42882
97 1 -1.1104 9.68077 8.07367 3.91785
98 2 2.2208 8.20802 9.54215 5.32118
99 1 -1.1104 9.61928 5.2235 1.0266
100 1 -1.1104 9.67605 10.9587 0.96741
102 1 -1.1104 9.61468 5.24935 3.84532
103 1 -1.1104 9.72615 10.9067 3.88143
269 1 -1.1104 9.52388 5.39022 6.75523
265 1 -1.1104 12.2735 8.05664 6.66232
101 1 -1.1104 9.50462 10.9597 6.66269
266 1 -1.1104 12.388 5.33006 6.73967
9048 2 2.2208 -0.254594 12.3568 5.22083
617 2 2.2208 11.0782 12.2974 -0.270349
8338 2 2.2208 5.44399 -4.48682 5.30058
106 2 2.2208 5.37237 17.9336 5.21178
107 1 -1.1104 1.32026 13.7908 1.04581
109 1 -1.1104 1.11982 19.4854 1.02894
113 1 -1.1104 1.26349 13.6053 3.9919
114 1 -1.1104 1.22736 19.3678 3.83298
116 1 -1.1104 1.06017 16.5748 1.10871
119 2 2.2208 5.35955 15.1632 2.62949
120 2 2.2208 5.38239 20.8886 2.36112
121 1 -1.1104 1.20402 16.5215 3.87602
123 1 -1.1104 3.96791 13.916 1.02335
125 1 -1.1104 3.89574 19.4208 0.995225
127 2 2.2208 2.58186 17.978 2.52115
128 1 -1.1104 3.94004 13.6328 3.91756
129 1 -1.1104 4.03024 19.4284 3.74843
130 2 2.2208 2.55472 15.055 5.28875
131 2 2.2208 2.59144 20.7653 5.18163
132 1 -1.1104 3.88161 16.7049 1.26401
134 1 -1.1104 3.87009 16.6253 4.04075
115 1 -1.1104 6.65223 13.5547 3.83205
140 1 -1.1104 6.68816 16.5217 1.20011
117 1 -1.1104 1.3096 16.7265 6.61436
126 1 -1.1104 4.12494 19.4128 6.56509
133 1 -1.1104 4.06139 16.5792 6.7412
231 1 -1.1104 1.22601 19.3343 6.59304
108 1 -1.1104 1.1327 13.7199 6.67982
111 1 -1.1104 6.7266 13.7294 6.6711
112 1 -1.1104 6.84626 19.2643 6.58625
8342 2 2.2208 5.53795 -4.50284 10.922
9041 2 2.2208 -0.249031 3.77033 2.51658
9045 2 2.2208 -0.268891 15.1814 2.42203
122 1 -1.1104 6.83932 16.4707 3.92402
139 1 -1.1104 6.85399 19.3511 3.75507
138 1 -1.1104 6.64671 19.5437 0.968494
110 1 -1.1104 6.84018 13.7518 1.11213
145 1 -1.1104 12.3891 19.379 6.66223
141 2 2.2208 10.9156 17.8277 5.26314
142 1 -1.1104 12.327 13.6742 1.25293
144 1 -1.1104 12.2018 19.3119 1.08629
146 1 -1.1104 12.2821 13.6725 3.91322
147 1 -1.1104 12.4281 19.1336 3.88173
148 1 -1.1104 12.4165 16.2775 0.964206
150 2 2.2208 11.0051 15.0536 2.45167
151 2 2.2208 10.9986 20.7638 2.51709
152 1 -1.1104 12.3445 16.3933 3.91543
153 1 -1.1104 9.61624 13.556 1.02852
155 1 -1.1104 9.42214 19.215 0.957477
157 2 2.2208 8.21006 17.8284 2.57324
158 1 -1.1104 9.45619 13.8734 3.95295
159 1 -1.1104 9.69959 19.2323 3.74659
160 2 2.2208 8.06138 15.1417 5.31454
161 2 2.2208 8.22617 20.7106 5.1798
162 1 -1.1104 9.66702 16.3719 1.08553
164 1 -1.1104 9.50533 16.5108 4.08525
143 1 -1.1104 12.3292 13.6253 6.73604
154 1 -1.1104 9.4644 13.8209 6.82318
149 1 -1.1104 12.3294 16.5643 6.69672
156 1 -1.1104 9.59192 19.3187 6.49376
174 1 -1.1104 4.13474 -0.350999 6.67319
172 1 -1.1104 4.05422 -3.08687 6.63973
370 2 2.2208 8.20135 15.0373 -0.314507
555 2 2.2208 11.0103 1.0926 -0.431373
170 1 -1.1104 1.17635 -0.494039 6.64067
175 2 2.2208 5.49909 1.09422 10.8483
176 1 -1.1104 1.25667 -3.22085 12.3803
177 1 -1.1104 1.33217 2.43055 12.3296
180 1 -1.1104 1.18571 -3.0076 9.3997
181 1 -1.1104 1.34097 2.4904 9.51474
184 1 -1.1104 1.11794 -0.354532 12.1746
186 2 2.2208 5.48345 -1.61027 8.0408
187 2 2.2208 5.48371 3.86918 8.05338
188 1 -1.1104 1.2723 -0.301499 9.36401
190 1 -1.1104 3.95255 -2.96377 12.3176
191 1 -1.1104 4.10247 2.4941 12.2957
192 2 2.2208 2.77007 1.02331 8.06387
193 1 -1.1104 3.95746 -3.17625 9.54576
194 1 -1.1104 4.15093 2.36647 9.43821
195 2 2.2208 2.63554 -1.59692 10.8009
197 1 -1.1104 4.03119 -0.245373 12.2474
198 1 -1.1104 4.03541 -0.331645 9.5056
185 1 -1.1104 6.82371 -0.272818 12.2525
189 1 -1.1104 6.99256 -0.213603 9.48361
196 2 2.2208 2.65691 3.77479 10.8189
178 1 -1.1104 6.89624 -2.90109 12.3598
297 1 -1.1104 6.73235 13.7365 12.3851
528 2 2.2208 8.21852 20.6324 -0.425387
169 1 -1.1104 6.92313 2.49053 6.84789
52 1 -1.1104 6.81995 16.615 12.3217
118 1 -1.1104 6.87237 16.4532 6.62927
182 1 -1.1104 6.84938 -3.04773 9.59492
179 1 -1.1104 6.89731 2.7277 12.3538
183 1 -1.1104 6.80392 2.70502 9.54879
206 1 -1.1104 12.4156 2.49838 6.6899
208 1 -1.1104 9.86278 -2.95808 6.50192
211 2 2.2208 11.1101 1.21929 10.9257
212 1 -1.1104 12.39 -3.15026 12.3547
213 1 -1.1104 12.2089 2.63741 12.3234
214 1 -1.1104 12.4534 -3.15121 9.54987
215 1 -1.1104 12.4046 2.48711 9.51562
216 1 -1.1104 12.4933 -0.199363 12.3469
217 2 2.2208 11.1233 -1.68074 8.13965
218 2 2.2208 11.1177 3.94034 8.03102
219 1 -1.1104 12.5801 -0.434721 9.60266
220 1 -1.1104 9.61585 -2.97978 12.0798
221 1 -1.1104 9.58097 2.53094 12.3436
222 2 2.2208 8.37097 1.20841 8.06788
223 1 -1.1104 9.57791 -2.95262 9.35776
224 1 -1.1104 9.78969 2.66721 9.46352
225 2 2.2208 8.2398 -1.6423 10.8675
226 2 2.2208 8.28983 3.94025 10.9551
227 1 -1.1104 9.56275 -0.0979313 12.1885
228 1 -1.1104 9.78588 -0.34901 9.49141
557 2 2.2208 8.1459 3.81552 -0.289932
526 2 2.2208 2.68103 -1.79594 -0.345647
105 2 2.2208 8.21535 17.8772 8.07897
235 1 -1.1104 6.6573 8.11869 6.73422
65 1 -1.1104 6.78646 10.8402 6.62106
8739 2 2.2208 -0.216436 20.8677 7.96482
337 2 2.2208 2.56167 15.196 -0.249995
8967 2 2.2208 -0.345153 9.62854 8.04636
240 2 2.2208 5.44026 6.76948 10.8442
241 2 2.2208 5.41294 12.4089 11.0229
242 1 -1.1104 1.21197 8.23517 12.2639
244 1 -1.1104 1.26171 8.15345 9.34745
246 1 -1.1104 1.19237 5.30203 12.2335
247 1 -1.1104 1.41775 10.9342 12.2184
250 2 2.2208 5.29596 9.53663 8.14523
251 1 -1.1104 0.922552 5.2196 9.55467
252 1 -1.1104 1.05184 10.9685 9.35985
255 1 -1.1104 3.91183 8.08571 12.2909
256 2 2.2208 2.5879 6.68465 8.05747
257 2 2.2208 2.58858 12.2326 8.10605
258 1 -1.1104 3.9761 8.00549 9.44059
259 2 2.2208 2.63636 9.36389 10.8603
260 1 -1.1104 3.97336 5.28819 12.3556
261 1 -1.1104 4.06403 10.9641 12.1124
262 1 -1.1104 3.93177 5.05915 9.39291
263 1 -1.1104 4.00412 10.9491 9.37651
249 1 -1.1104 6.82705 11.022 12.1964
243 1 -1.1104 6.60567 8.07788 12.4138
248 1 -1.1104 6.83235 5.35401 12.2773
254 1 -1.1104 6.73937 11.109 9.54974
104 1 -1.1104 9.68586 19.4113 12.2759
82 1 -1.1104 12.234 16.6192 9.62051
267 1 -1.1104 9.44586 8.13217 6.75438
245 1 -1.1104 6.56049 8.31474 9.66356
253 1 -1.1104 6.84752 5.54093 9.48477
90 1 -1.1104 12.306 10.8728 6.63152
199 2 2.2208 8.13806 20.7371 10.8439
527 2 2.2208 2.67342 3.82336 -0.345939
264 1 -1.1104 9.49102 11.0737 9.46202
268 1 -1.1104 9.63628 5.4196 9.62942
270 1 -1.1104 9.52267 10.8542 12.3463
271 1 -1.1104 9.59582 5.37759 12.2189
272 2 2.2208 8.1036 9.48128 11.0586
273 1 -1.1104 9.41874 8.23251 9.52423
274 2 2.2208 8.08727 12.3757 8.08332
275 2 2.2208 8.18281 6.72293 8.13056
276 2 2.2208 10.9909 6.75556 11.0019
277 2 2.2208 10.9951 12.2963 10.8829
278 1 -1.1104 12.2971 8.14651 12.2482
279 1 -1.1104 12.3236 8.28154 9.43001
280 1 -1.1104 12.3873 5.39836 12.4659
281 1 -1.1104 12.2354 11.0738 12.2596
282 2 2.2208 10.8497 9.52595 8.12991
283 1 -1.1104 12.5539 5.51297 9.58867
284 1 -1.1104 12.4563 10.9888 9.44411
285 1 -1.1104 9.40977 8.15394 12.3353
9040 2 2.2208 -0.0511218 1.05738 5.31081
83 1 -1.1104 9.63661 13.6247 12.348
53 2 2.2208 10.9692 15.2017 8.12404
124 1 -1.1104 3.96063 13.6137 6.77962
165 2 2.2208 8.21529 15.1804 10.9755
9047 2 2.2208 -0.261965 9.52632 2.41943
288 1 -1.1104 6.83825 19.4552 9.43886
290 1 -1.1104 6.7703 13.7749 9.47467
28 2 2.2208 2.61709 20.8064 10.7976
29 1 -1.1104 4.03339 16.7793 12.2355
51 1 -1.1104 1.23831 16.5001 12.3061
136 1 -1.1104 1.10139 13.7251 12.2446
200 1 -1.1104 1.12872 19.1682 12.337
202 1 -1.1104 3.86012 13.739 9.56649
203 1 -1.1104 3.96501 16.5991 9.49047
204 2 2.2208 2.6997 18.0061 8.0203
230 2 2.2208 2.62345 15.1337 10.8908
232 1 -1.1104 4.06996 19.3825 9.45786
233 2 2.2208 5.41202 18.0604 10.8751
286 1 -1.1104 3.98378 19.4481 12.198
287 1 -1.1104 3.99344 13.8277 12.2751
291 1 -1.1104 1.23162 19.3932 9.50075
292 1 -1.1104 1.1402 16.572 9.28402
293 2 2.2208 5.30083 20.6888 8.10706
294 1 -1.1104 1.12307 13.862 9.4844
295 2 2.2208 5.38478 15.1806 8.23089
615 2 2.2208 10.948 6.58582 -0.359746
8740 2 2.2208 -0.236419 17.8555 10.776
81 2 2.2208 11.0699 20.7348 8.06016
25 2 2.2208 10.9661 18.0326 10.9038
296 1 -1.1104 6.76729 19.4538 12.1487
201 1 -1.1104 9.50199 16.4588 12.3613
30 1 -1.1104 12.2574 13.7557 9.49676
135 1 -1.1104 9.55648 13.8849 9.59948
50 1 -1.1104 12.1913 16.7246 12.4741
137 1 -1.1104 9.58452 19.4449 9.46198
163 1 -1.1104 9.60731 16.6087 6.74192
26 1 -1.1104 12.3796 13.7122 12.2482
229 1 -1.1104 9.58211 16.6809 9.56365
27 1 -1.1104 12.431 19.6799 12.1769
9268 2 2.2208 -0.198905 15.2103 13.7312
338 2 2.2208 5.26726 -1.74736 13.7262
8344 2 2.2208 8.21333 -4.39573 8.11039
365 2 2.2208 5.27162 18.0539 -0.234984
9127 2 2.2208 -0.145317 4.01488 13.6097
8494 2 2.2208 11.1546 -4.47732 -0.272065
9199 2 2.2208 -0.20236 9.66912 13.5645
408 2 2.2208 5.2857 9.53509 13.6252
592 2 2.2208 5.39118 12.442 -0.285606
409 2 2.2208 2.68582 12.3567 13.5859
407 2 2.2208 2.47559 6.7259 13.6172
9269 2 2.2208 -0.164167 20.6803 13.5207
591 2 2.2208 2.53763 9.61536 -0.273302
9299 2 2.2208 -0.0561774 1.17385 -0.284196
298 2 2.2208 5.31807 1.07581 16.4858
299 1 -1.1104 1.10636 -3.16709 17.922
300 1 -1.1104 1.05875 2.48195 17.8539
303 1 -1.1104 1.19801 -3.20824 15.1517
305 1 -1.1104 1.20071 2.56453 15.0231
311 1 -1.1104 1.14615 -0.193957 17.8555
313 2 2.2208 5.30109 -1.62256 19.4036
314 2 2.2208 5.43208 3.8654 19.3478
315 1 -1.1104 1.21166 -0.282579 15.0169
319 1 -1.1104 3.7936 -3.00942 17.8508
320 1 -1.1104 3.95111 2.49852 17.9524
321 2 2.2208 2.51432 1.09917 19.3318
322 1 -1.1104 3.94375 -3.15804 14.9602
324 1 -1.1104 4.0768 2.48726 15.1981
326 2 2.2208 2.54269 -1.74312 16.5534
327 2 2.2208 2.59088 3.76831 16.4292
328 1 -1.1104 3.94959 -0.184036 17.8376
329 1 -1.1104 3.93482 -0.304991 15.0942
302 1 -1.1104 6.96508 2.56543 17.9562
309 1 -1.1104 6.76126 2.54967 15.0978
307 1 -1.1104 6.83638 -3.17939 15.0701
9123 2 2.2208 -0.122777 3.9411 19.259
9265 2 2.2208 -0.324599 20.7729 19.2823
308 1 -1.1104 6.74678 -3.11882 20.7057
9272 2 2.2208 -0.175635 1.18734 22.1448
9416 2 2.2208 -0.259319 -1.57553 19.3432
9419 2 2.2208 -0.172983 17.8789 16.4503
497 2 2.2208 11.0174 20.792 13.6359
9271 2 2.2208 -0.167342 3.91266 25.0343
317 1 -1.1104 6.66952 -0.429054 15.1209
312 1 -1.1104 6.8303 -0.188414 18.0195
301 1 -1.1104 6.68867 -2.92707 17.9801
17408 2 2.2208 -0.185128 -4.48414 16.4723
341 2 2.2208 11.1979 1.07722 16.6935
342 1 -1.1104 12.4214 -3.12528 18.0492
343 1 -1.1104 12.3948 2.43258 18.1326
344 1 -1.1104 12.4687 -2.99193 15.1252
346 1 -1.1104 12.442 2.64626 15.2245
348 1 -1.1104 12.5026 -0.383656 17.9102
349 2 2.2208 11.0956 -1.64606 19.3354
350 2 2.2208 11.0528 3.90181 19.422
351 1 -1.1104 12.5725 -0.396417 15.037
353 1 -1.1104 9.60288 -3.0789 17.7451
354 1 -1.1104 9.63775 2.60183 17.979
355 2 2.2208 8.24856 1.15764 19.3098
356 1 -1.1104 9.65549 -2.97754 14.9982
358 1 -1.1104 9.78477 2.454 15.1226
360 2 2.2208 8.10928 -1.70955 16.5576
361 2 2.2208 8.24191 3.94054 16.4887
362 1 -1.1104 9.5792 -0.269247 17.9351
363 1 -1.1104 9.70162 -0.214587 15.0778
8646 2 2.2208 11.0358 -4.55555 16.4415
347 1 -1.1104 12.4854 2.52031 20.8166
364 1 -1.1104 9.76122 -0.219126 20.7909
345 1 -1.1104 12.5168 -2.98155 20.73
565 1 -1.1104 9.69683 13.6658 23.3956
9374 2 2.2208 -0.0741222 6.70797 22.1751
533 1 -1.1104 12.4241 13.701 23.6298
8713 2 2.2208 5.40083 -4.33941 16.4625
374 2 2.2208 5.45267 6.72888 16.5425
375 2 2.2208 5.52317 12.442 16.4821
376 1 -1.1104 1.44928 8.28644 17.9297
378 1 -1.1104 0.985026 8.07221 15.0135
382 1 -1.1104 1.43145 5.26553 17.9373
383 1 -1.1104 1.2311 11.0049 17.8497
386 2 2.2208 5.66553 9.50407 19.277
387 1 -1.1104 1.32643 5.27551 15.1307
389 1 -1.1104 1.2347 11.0162 14.9271
395 1 -1.1104 4.30469 8.23306 17.7953
396 2 2.2208 2.72988 6.78565 19.2499
397 2 2.2208 2.64122 12.1988 19.3929
398 1 -1.1104 3.98485 8.1221 15.0973
400 2 2.2208 2.60879 9.55747 16.4889
401 1 -1.1104 4.10271 5.28466 17.8841
402 1 -1.1104 4.22731 11.0221 17.9417
403 1 -1.1104 4.01904 5.28746 15.1022
405 1 -1.1104 3.95072 10.9938 15.1724
384 1 -1.1104 6.82553 5.34575 17.8936
379 1 -1.1104 1.42855 7.93806 20.7553
388 1 -1.1104 1.27195 5.27444 20.7379
390 1 -1.1104 1.22155 10.8033 20.7543
399 1 -1.1104 4.1147 8.05596 20.6486
406 1 -1.1104 4.10966 10.8978 20.7166
9431 2 2.2208 -0.0804874 12.2465 16.407
404 1 -1.1104 4.09017 5.28507 20.6595
564 1 -1.1104 12.4756 16.533 26.3225
9429 2 2.2208 -0.149422 9.56601 19.3888
393 1 -1.1104 6.81649 11.0322 14.9767
391 1 -1.1104 6.86274 5.29419 15.1467
377 1 -1.1104 6.92288 8.19383 18.0224
385 1 -1.1104 6.87753 11.0638 17.7365
380 1 -1.1104 6.8057 8.39954 15.2339
410 2 2.2208 11.0669 6.64 16.6282
411 2 2.2208 11.0565 12.2255 16.5765
412 1 -1.1104 12.5609 8.1221 17.8884
413 1 -1.1104 12.5263 8.1423 15.0635
415 1 -1.1104 12.4809 5.33762 18.1133
416 1 -1.1104 12.4496 10.8446 18.021
417 2 2.2208 11.1287 9.45476 19.3088
418 1 -1.1104 12.4938 5.38269 15.2779
420 1 -1.1104 12.4244 10.8876 15.1347
422 1 -1.1104 9.80641 7.96752 18.0593
423 2 2.2208 8.24925 6.67587 19.3079
424 2 2.2208 8.21434 12.2897 19.3057
425 1 -1.1104 9.56075 8.08953 15.1541
427 2 2.2208 8.1895 9.53673 16.4382
428 1 -1.1104 9.70488 5.23921 17.8315
429 1 -1.1104 9.63755 10.9038 17.9464
430 1 -1.1104 9.68658 5.35466 14.8983
432 1 -1.1104 9.62888 10.7814 15.1155
419 1 -1.1104 12.5183 5.43182 20.818
536 1 -1.1104 12.3181 19.2911 26.487
421 1 -1.1104 12.5559 10.8733 20.8386
9078 2 2.2208 -0.218775 20.7046 24.8747
8712 2 2.2208 2.58638 -4.53788 19.2447
437 2 2.2208 5.33054 17.967 16.5817
438 1 -1.1104 1.18734 13.6443 18.0246
439 1 -1.1104 1.22812 19.3356 17.9121
442 1 -1.1104 1.34867 13.7625 15.2545
444 1 -1.1104 1.32711 19.3604 15.0817
450 1 -1.1104 1.29363 16.5389 17.8223
452 2 2.2208 5.30684 15.1825 19.4055
453 2 2.2208 5.34243 20.9164 19.2736
454 1 -1.1104 1.19172 16.6475 14.9853
458 1 -1.1104 4.00721 13.7429 17.9155
459 1 -1.1104 4.10616 19.5092 17.86
460 2 2.2208 2.58616 18.0855 19.2901
461 1 -1.1104 4.23219 13.7344 15.2045
463 1 -1.1104 3.88209 19.4377 15.0556
465 2 2.2208 2.71206 15.1239 16.5512
466 2 2.2208 2.40039 20.7923 16.534
467 1 -1.1104 3.96869 16.6264 18.072
468 1 -1.1104 4.06584 16.4679 15.1087
446 1 -1.1104 6.91214 13.792 15.1254
443 1 -1.1104 1.18614 13.6374 20.7201
469 1 -1.1104 3.94955 16.5524 20.8148
445 1 -1.1104 1.05112 19.3595 20.6387
455 1 -1.1104 1.13075 16.5335 20.6265
464 1 -1.1104 3.90209 19.339 20.7403
449 1 -1.1104 6.8973 19.4706 20.5234
9196 2 2.2208 -0.0905946 6.63476 16.4904
9423 2 2.2208 -0.082481 15.1085 19.3298
556 2 2.2208 8.17946 -1.87371 27.7284
9422 2 2.2208 -0.2657 18.0077 22.0026
441 1 -1.1104 6.81037 19.2846 17.8306
440 1 -1.1104 6.80393 13.781 17.9408
456 1 -1.1104 6.80679 16.6245 15.1527
457 1 -1.1104 6.69203 16.6444 20.6803
447 1 -1.1104 6.6779 13.7848 20.7989
448 1 -1.1104 6.72649 19.3273 15.0051
451 1 -1.1104 6.69007 16.551 17.8356
489 1 -1.1104 9.68207 13.6991 20.6193
473 2 2.2208 10.9663 17.957 16.5023
474 1 -1.1104 12.3982 13.7342 17.7503
475 1 -1.1104 12.3995 19.3368 18.0771
476 1 -1.1104 12.4562 13.7258 14.9962
478 1 -1.1104 12.4405 19.5121 15.1482
480 1 -1.1104 12.4445 16.4116 17.9146
481 2 2.2208 10.9789 15.1358 19.4357
482 2 2.2208 10.97 20.6574 19.407
483 1 -1.1104 12.4086 16.7461 15.1486
485 1 -1.1104 9.67939 13.732 18.0395
486 1 -1.1104 9.68446 19.1964 17.793
487 2 2.2208 8.17949 18.0473 19.1832
488 1 -1.1104 9.65425 13.6595 15.2474
490 1 -1.1104 9.56888 19.3275 15.0321
492 2 2.2208 8.17699 15.1578 16.5556
493 2 2.2208 8.1848 20.7206 16.4522
494 1 -1.1104 9.65342 16.5857 17.9096
495 1 -1.1104 9.62214 16.5803 15.0394
484 1 -1.1104 12.3422 16.5562 20.7386
479 1 -1.1104 12.4788 19.2745 20.9838
9435 2 2.2208 -0.142749 9.39808 24.8524
306 1 -1.1104 1.15102 2.59512 20.7606
318 1 -1.1104 6.80655 -0.391875 20.7105
9297 2 2.2208 -0.159244 -1.831 24.9183
316 1 -1.1104 1.11771 -0.312205 20.7469
304 1 -1.1104 1.22609 -3.12638 20.7193
325 1 -1.1104 3.83824 2.58455 20.7231
323 1 -1.1104 4.00668 -2.99083 20.7869
330 1 -1.1104 3.87429 -0.219441 20.6241
501 2 2.2208 5.46196 1.17382 22.0176
502 1 -1.1104 1.33039 -3.11169 23.4964
503 1 -1.1104 1.22103 2.44211 23.5049
506 1 -1.1104 1.20719 -3.19754 26.361
507 1 -1.1104 1.32589 2.4598 26.2305
510 1 -1.1104 1.00978 -0.198893 23.5688
512 2 2.2208 5.39912 -1.77735 24.8754
513 2 2.2208 5.40338 3.89617 24.7899
514 1 -1.1104 1.16246 -0.372757 26.4554
516 1 -1.1104 3.99106 -3.06066 23.5821
517 1 -1.1104 4.12487 2.43543 23.4316
518 2 2.2208 2.56715 1.11126 24.8173
519 1 -1.1104 4.04088 -3.11097 26.383
520 1 -1.1104 4.00108 2.55495 26.2461
521 2 2.2208 2.59918 -1.67437 22.131
522 2 2.2208 2.66645 3.89973 22.1643
523 1 -1.1104 3.99104 -0.277317 23.5451
524 1 -1.1104 3.90468 -0.337767 26.2576
509 1 -1.1104 6.80818 2.45202 26.1174
471 2 2.2208 5.3005 20.7564 13.6271
436 2 2.2208 8.2803 12.2966 13.6952
505 1 -1.1104 6.86047 2.52316 23.3178
515 1 -1.1104 6.87335 -0.523056 26.2491
504 1 -1.1104 6.84127 -3.1179 23.5993
511 1 -1.1104 6.77315 -0.2698 23.3969
508 1 -1.1104 6.69554 -3.17958 26.3979
310 1 -1.1104 6.74747 2.54301 20.6073
352 1 -1.1104 12.412 -0.201456 20.6903
357 1 -1.1104 9.65959 -3.21042 20.6812
359 1 -1.1104 9.67565 2.51593 20.6659
537 2 2.2208 11.1222 0.992685 22.1265
538 1 -1.1104 12.4625 -2.9208 23.4259
539 1 -1.1104 12.4634 2.54398 23.6918
540 1 -1.1104 12.5487 -2.98902 26.2183
541 1 -1.1104 12.5227 2.59439 26.4231
542 1 -1.1104 12.5411 -0.238646 23.5098
543 2 2.2208 11.0076 -1.70567 24.8881
544 2 2.2208 11.1372 3.90331 25.0075
545 1 -1.1104 12.3147 -0.267345 26.2842
546 1 -1.1104 9.54658 -3.21785 23.5041
547 1 -1.1104 9.72054 2.4006 23.4722
548 2 2.2208 8.15233 1.05097 24.9098
549 1 -1.1104 9.51479 -2.99698 26.2844
550 1 -1.1104 9.57579 2.47997 26.4551
551 2 2.2208 8.21103 -1.82599 22.0634
552 2 2.2208 8.3363 3.87955 22.0975
553 1 -1.1104 9.64646 -0.391379 23.4356
554 1 -1.1104 9.67948 -0.338444 26.4139
562 2 2.2208 10.9796 15.1246 24.9983
9085 2 2.2208 -0.164107 12.2039 27.7885
560 1 -1.1104 9.58196 13.632 26.4211
332 2 2.2208 8.13535 20.7324 22.199
566 2 2.2208 5.41649 6.65298 22.0676
567 2 2.2208 5.55741 12.2717 22.0822
568 1 -1.1104 1.35004 8.10865 23.5213
570 1 -1.1104 1.29988 8.0778 26.4574
572 1 -1.1104 1.2315 5.33827 23.5675
573 1 -1.1104 1.14109 10.8324 23.6361
576 2 2.2208 5.38937 9.56695 24.9951
577 1 -1.1104 1.21399 5.25658 26.4277
578 1 -1.1104 1.08535 10.9689 26.3945
581 1 -1.1104 4.15777 8.03656 23.5239
582 2 2.2208 2.67923 6.67026 24.9719
583 2 2.2208 2.57514 12.2603 25.0044
584 1 -1.1104 3.99272 8.12911 26.361
585 2 2.2208 2.7864 9.44663 22.17
586 1 -1.1104 3.95848 5.21489 23.5309
587 1 -1.1104 3.96573 10.8148 23.5105
588 1 -1.1104 4.00413 5.20799 26.4301
589 1 -1.1104 3.89064 10.8865 26.3519
574 1 -1.1104 6.6195 5.35589 23.5381
580 1 -1.1104 6.83348 10.9331 26.3826
9436 2 2.2208 -0.114602 12.2634 22.1837
499 2 2.2208 8.14397 17.8649 13.6657
9415 2 2.2208 -0.327381 1.08143 16.4033
563 2 2.2208 11.0745 20.6844 24.9125
534 1 -1.1104 12.4447 19.3077 23.6743
426 1 -1.1104 9.52438 8.0812 20.806
431 1 -1.1104 9.70238 5.42869 20.6324
433 1 -1.1104 9.74432 10.9832 20.6852
331 2 2.2208 8.18047 15.0652 22.1043
381 1 -1.1104 6.88891 8.17208 20.802
394 1 -1.1104 6.90917 11.0073 20.6978
392 1 -1.1104 6.92055 5.33202 20.7976
575 1 -1.1104 6.78502 10.9381 23.5964
569 1 -1.1104 6.84289 8.12324 23.4054
579 1 -1.1104 6.70391 5.40049 26.3308
571 1 -1.1104 6.78345 8.19998 26.3035
414 1 -1.1104 12.4241 8.20305 20.7696
597 1 -1.1104 9.71102 10.9192 26.1931
598 1 -1.1104 9.53161 5.21991 26.281
599 1 -1.1104 9.55697 10.9214 23.3273
600 1 -1.1104 9.55273 5.33504 23.6303
601 2 2.2208 8.28149 9.55843 22.0229
602 1 -1.1104 9.64882 8.06628 26.4764
603 2 2.2208 8.24435 12.3193 24.8869
604 2 2.2208 8.11707 6.65431 24.9516
605 2 2.2208 11.0538 6.80249 22.2186
606 2 2.2208 10.9394 12.3591 22.1318
607 1 -1.1104 12.5391 8.18204 23.5828
608 1 -1.1104 12.5059 8.1314 26.2549
609 1 -1.1104 12.4184 5.20753 23.5253
610 1 -1.1104 12.4343 11.0027 23.7734
611 2 2.2208 11.054 9.49944 25.0153
612 1 -1.1104 12.4919 5.3536 26.3191
613 1 -1.1104 12.4335 10.9697 26.5056
614 1 -1.1104 9.69758 8.10669 23.6917
9425 2 2.2208 -0.17003 15.1081 24.9033
624 1 -1.1104 6.62453 16.4656 26.3586
462 1 -1.1104 3.93709 13.794 20.7082
596 2 2.2208 8.06271 17.8808 24.9336
529 2 2.2208 10.9896 17.8428 22.2857
531 1 -1.1104 6.72512 16.5836 23.5262
561 1 -1.1104 9.56267 19.1931 26.2637
631 1 -1.1104 6.97594 13.6071 23.4098
367 2 2.2208 2.53255 15.0935 22.1526
368 2 2.2208 2.54811 20.7504 22.1437
369 1 -1.1104 3.94378 16.5045 23.6581
530 1 -1.1104 1.24285 16.5632 23.3848
532 1 -1.1104 3.92392 13.78 26.3131
559 1 -1.1104 3.76934 16.7616 26.6168
594 2 2.2208 2.54921 17.9964 25.0099
595 1 -1.1104 4.01746 19.5579 26.3341
618 2 2.2208 5.37371 17.9421 22.1148
619 1 -1.1104 1.10838 13.6198 23.6082
620 1 -1.1104 1.21271 19.299 23.4097
621 1 -1.1104 4.05116 19.2597 23.5623
623 1 -1.1104 4.14549 13.7203 23.5752
625 1 -1.1104 1.18151 19.5121 26.217
626 1 -1.1104 1.10139 16.5522 26.3848
627 1 -1.1104 1.10491 13.6868 26.3637
629 2 2.2208 5.40851 20.7672 24.957
630 2 2.2208 5.31983 15.14 24.9468
628 1 -1.1104 6.79049 19.3886 23.4806
334 1 -1.1104 9.58161 16.4401 26.311
593 1 -1.1104 9.57578 19.4409 23.5718
477 1 -1.1104 12.435 13.6483 20.7331
491 1 -1.1104 9.81031 19.3243 20.7771
496 1 -1.1104 9.6493 16.5013 20.7945
333 1 -1.1104 9.56364 16.5802 23.5403
558 1 -1.1104 12.307 16.5439 23.686
535 1 -1.1104 12.4057 13.7516 26.4172
335 1 -1.1104 6.74336 19.3169 26.3724
622 1 -1.1104 6.6789 13.795 26.4183
372 2 2.2208 11.0422 -1.59801 13.644
339 2 2.2208 2.61504 1.06266 13.6505
616 2 2.2208 8.26732 9.50869 27.7387
434 2 2.2208 8.12218 6.72274 13.7985
470 2 2.2208 2.58935 17.9114 13.6008
525 2 2.2208 5.31663 1.10388 27.7549
340 2 2.2208 5.46428 3.84727 13.6531
9302 2 2.2208 13.7108 18.1453 13.6413
336 2 2.2208 -0.145129 -1.7766 13.6509
500 2 2.2208 10.93 17.7953 27.8405
498 2 2.2208 10.9446 15.0546 13.6969
371 2 2.2208 8.22389 1.00181 13.756
472 2 2.2208 5.41529 15.2408 13.7739
435 2 2.2208 10.9826 9.60653 13.6733
9424 2 2.2208 -0.241025 18.1024 27.8585
373 2 2.2208 11.0154 4.03519 13.7803
366 2 2.2208 2.67773 20.9701 27.7578
632 2 2.2208 5.4024 23.5458 5.19862
633 2 2.2208 5.43797 29.2274 5.33923
634 1 -1.1104 1.08108 25.1521 0.977152
635 1 -1.1104 0.950834 25.0917 3.78067
636 1 -1.1104 1.2598 22.314 1.00535
637 1 -1.1104 1.09127 27.895 1.0555
638 2 2.2208 5.40166 26.3582 2.42971
639 1 -1.1104 1.08457 22.2512 3.97915
640 1 -1.1104 1.19929 27.6966 3.87064
641 1 -1.1104 3.84882 25.0913 0.96195
642 2 2.2208 2.49889 23.7114 2.47342
643 2 2.2208 2.5293 29.1944 2.46134
644 1 -1.1104 3.89658 24.9337 3.74984
645 2 2.2208 2.51228 26.4383 5.22867
646 1 -1.1104 4.07426 22.4371 1.02998
647 1 -1.1104 3.88579 27.8141 1.10657
648 1 -1.1104 3.97235 22.18 3.73888
649 1 -1.1104 4.00926 27.7296 3.89561
653 1 -1.1104 6.87552 24.9865 0.913307
657 1 -1.1104 6.72589 22.1791 3.83869
779 1 -1.1104 4.0569 24.9153 6.63441
775 1 -1.1104 1.11687 22.2455 6.68755
781 1 -1.1104 3.89712 27.8125 6.70905
777 1 -1.1104 6.68167 22.0279 6.61179
654 1 -1.1104 6.79947 24.7343 3.74333
780 1 -1.1104 3.92177 22.161 6.65163
774 1 -1.1104 6.71665 25.0286 6.63446
1228 2 2.2208 10.8463 45.9527 -0.39234
1277 1 -1.1104 1.08286 47.6023 3.84602
9626 2 2.2208 -0.243444 29.2801 10.7223
1501 1 -1.1104 9.23956 47.5283 6.65813
658 1 -1.1104 6.69616 27.7749 3.80511
655 1 -1.1104 6.7315 22.3676 0.956476
656 1 -1.1104 6.69961 27.7434 0.934039
659 2 2.2208 11.0202 23.5271 5.14948
660 2 2.2208 10.7994 29.239 5.18217
661 1 -1.1104 12.2556 24.9719 1.0294
662 1 -1.1104 12.4477 24.8529 3.79633
663 1 -1.1104 12.4784 22.0855 1.06891
664 1 -1.1104 12.3991 27.812 1.17049
665 2 2.2208 10.9234 26.3056 2.39424
666 1 -1.1104 12.2529 21.916 3.83659
667 1 -1.1104 12.1632 27.6804 4.17406
668 1 -1.1104 9.6076 24.963 1.06593
669 2 2.2208 8.13905 23.5106 2.29551
670 2 2.2208 8.10994 29.189 2.30487
671 1 -1.1104 9.66481 24.9464 3.6639
672 2 2.2208 8.08412 26.3431 5.14725
673 1 -1.1104 9.64595 21.9902 1.00815
674 1 -1.1104 9.52988 27.6732 0.914893
675 1 -1.1104 9.50503 22.1835 3.8569
676 1 -1.1104 9.52549 27.6902 3.77092
809 1 -1.1104 9.3846 24.821 6.46876
811 1 -1.1104 9.43329 27.6793 6.62718
810 1 -1.1104 9.55499 22.1659 6.50405
1028 2 2.2208 5.20072 37.5669 13.6945
807 1 -1.1104 12.3207 22.1943 6.79627
680 2 2.2208 5.37994 34.9377 5.2599
681 1 -1.1104 1.02943 30.5485 0.997638
682 1 -1.1104 1.03924 36.034 1.14309
684 1 -1.1104 1.04492 30.6447 3.74532
685 1 -1.1104 1.09725 36.1861 3.80733
687 1 -1.1104 0.99324 33.2694 0.807939
688 2 2.2208 5.36242 32.0488 2.3569
689 2 2.2208 5.26656 37.6437 2.50754
690 1 -1.1104 1.1133 33.4393 3.77474
692 1 -1.1104 3.94206 30.5846 0.946465
693 1 -1.1104 4.00035 36.1556 1.15339
694 2 2.2208 2.49954 34.7575 2.50244
695 1 -1.1104 3.69392 30.5861 3.87765
696 1 -1.1104 3.88233 36.2527 3.96512
697 2 2.2208 2.43509 32.0256 5.18937
698 2 2.2208 2.51499 37.6921 5.26056
699 1 -1.1104 3.89086 33.3552 1.01112
700 1 -1.1104 3.90473 33.5661 3.83313
705 1 -1.1104 6.63889 30.5226 3.65851
829 1 -1.1104 6.60019 36.3299 6.62691
833 1 -1.1104 3.84542 36.2061 6.80255
830 1 -1.1104 0.970738 33.4978 6.63254
706 1 -1.1104 6.78359 33.3946 1.08183
691 1 -1.1104 6.60062 33.3832 3.82873
831 1 -1.1104 6.56341 33.5232 6.57736
827 1 -1.1104 0.929271 36.3216 6.67076
834 1 -1.1104 3.71605 33.2529 6.66793
832 1 -1.1104 3.78167 30.549 6.52663
968 2 2.2208 5.3019 26.2872 13.7039
923 2 2.2208 8.07659 46.0362 8.13245
686 1 -1.1104 6.77392 36.289 3.77073
704 1 -1.1104 6.65425 30.528 1.06129
683 1 -1.1104 6.68357 36.3099 1.02524
707 2 2.2208 10.8749 34.8596 5.1934
708 1 -1.1104 12.2856 30.5249 0.99217
709 1 -1.1104 12.3057 36.0249 1.17569
710 1 -1.1104 12.2108 30.5467 3.83772
711 1 -1.1104 12.3242 36.2824 3.96997
712 1 -1.1104 12.3971 33.2828 0.993777
713 2 2.2208 10.8581 31.9746 2.34041
714 2 2.2208 10.8792 37.6972 2.49039
715 1 -1.1104 12.1097 33.3562 3.70733
716 1 -1.1104 9.50916 30.4989 0.940193
717 1 -1.1104 9.58293 36.2106 0.973406
718 2 2.2208 8.17232 34.8628 2.41491
719 1 -1.1104 9.42314 30.5039 3.89993
720 1 -1.1104 9.46374 36.3651 3.96349