ITEM: TIMESTEP
90000
ITEM: NUMBER OF ATOMS
17760
ITEM: BOX BOUNDS pp pp pp
-3.6922609175183291e-01 2.7709226091751464e+01
-4.5029076418752219e+00 3.3258290764187819e+02
-3.6540200128278516e-01 2.7705402001282369e+01
ITEM: ATOMS id type q x y z
1 2 2.2208 5.21901 1.20501 5.27764
2 1 -1.1104 1.09812 -3.01206 1.0732
3 1 -1.1104 0.963212 2.68637 1.01871
6 1 -1.1104 0.933261 -3.1371 3.93244
7 1 -1.1104 0.954167 2.53646 4.00227
10 1 -1.1104 0.998354 -0.120515 1.12199
12 2 2.2208 5.05139 -1.64414 2.59776
14 1 -1.1104 0.835648 -0.370225 3.87218
16 1 -1.1104 3.89422 -3.11274 1.12441
17 1 -1.1104 3.89426 2.43016 1.2264
18 2 2.2208 2.29433 1.20787 2.42208
19 1 -1.1104 3.71612 -2.96671 3.85303
20 1 -1.1104 3.721 2.46783 3.89741
21 2 2.2208 2.40923 -1.66967 5.37131
22 2 2.2208 2.39293 3.83942 5.36447
23 1 -1.1104 3.70358 -0.35875 0.963354
24 1 -1.1104 3.69835 -0.140687 3.80955
13 2 2.2208 5.22109 3.97295 2.64778
617 2 2.2208 10.6582 12.3913 -0.202384
167 1 -1.1104 0.94693 2.41447 6.7724
170 1 -1.1104 0.980349 -0.128295 6.55332
9 1 -1.1104 6.56954 2.6765 3.92683
8 1 -1.1104 6.43792 -2.96617 4.01035
11 1 -1.1104 6.58796 -0.288801 1.17941
15 1 -1.1104 6.41088 -0.163273 3.93707
5 1 -1.1104 6.61364 2.57996 1.11658
526 2 2.2208 2.35157 -1.72014 -0.385207
9049 2 2.2208 13.4612 12.5812 2.54076
615 2 2.2208 10.7157 6.71089 -0.216229
366 2 2.2208 2.33773 20.8406 -0.294074
4 1 -1.1104 6.67265 -3.1178 0.984716
31 2 2.2208 10.7895 1.11928 5.31704
32 1 -1.1104 12.3393 -3.14678 1.23537
33 1 -1.1104 12.168 2.55205 1.10311
34 1 -1.1104 12.2615 -3.03252 3.98148
35 1 -1.1104 12.2319 2.51704 3.95192
36 1 -1.1104 12.2106 -0.309014 1.03376
37 2 2.2208 10.8497 -1.67028 2.4504
39 1 -1.1104 12.1171 -0.251282 3.94873
40 1 -1.1104 9.60282 -3.0492 1.14531
41 1 -1.1104 9.3133 2.73559 1.20964
42 2 2.2208 7.94116 1.2713 2.47925
43 1 -1.1104 9.32351 -3.00073 3.83496
44 1 -1.1104 9.4676 2.50034 4.03964
45 2 2.2208 7.93708 -1.60902 5.27168
46 2 2.2208 7.96569 4.0338 5.39656
47 1 -1.1104 9.29299 -0.310335 1.13791
48 1 -1.1104 9.36589 -0.255258 3.85149
38 2 2.2208 10.7677 3.91126 2.60363
207 1 -1.1104 12.1155 -0.127737 6.83281
205 1 -1.1104 12.2864 -2.88237 6.85877
9039 2 2.2208 13.5278 18.0461 8.06896
557 2 2.2208 7.86561 3.90109 -0.212323
208 1 -1.1104 9.38498 -2.91357 6.73877
9044 2 2.2208 13.6474 -1.60884 5.37292
8836 2 2.2208 13.6179 15.2831 5.235
592 2 2.2208 4.99268 12.3584 -0.243035
54 2 2.2208 5.25514 6.81676 5.52939
55 2 2.2208 5.01436 12.4239 5.39934
56 1 -1.1104 0.95532 8.30545 1.32233
58 1 -1.1104 0.869514 8.0859 3.96916
60 1 -1.1104 0.802644 5.37154 1.21226
61 1 -1.1104 0.755091 11.1704 1.1122
66 2 2.2208 5.05108 9.59532 2.62139
67 1 -1.1104 1.04071 5.36214 4.20407
68 1 -1.1104 0.887789 10.9474 3.98607
71 1 -1.1104 3.69054 8.09566 1.13765
72 2 2.2208 2.2674 6.7327 2.6762
73 2 2.2208 2.31285 12.3453 2.45461
74 1 -1.1104 3.71077 8.12016 4.04371
75 2 2.2208 2.21513 9.49007 5.37359
76 1 -1.1104 3.61549 5.34827 1.07749
77 1 -1.1104 3.57903 10.8827 1.13632
79 1 -1.1104 3.66894 5.28058 3.90942
80 1 -1.1104 3.63756 11.0883 3.89756
8954 2 2.2208 13.5408 9.68678 10.846
236 1 -1.1104 0.793751 5.17709 6.83196
238 1 -1.1104 3.68855 8.01666 6.80999
62 1 -1.1104 0.890876 10.9012 6.84963
239 1 -1.1104 3.70885 5.23207 6.63978
57 1 -1.1104 6.39318 8.32006 1.23856
105 2 2.2208 7.87104 18.0438 8.03141
525 2 2.2208 5.10009 0.968784 -0.262988
70 1 -1.1104 6.48661 11.0086 4.06416
235 1 -1.1104 6.54513 8.27777 6.96152
78 1 -1.1104 3.61499 10.8617 6.8103
616 2 2.2208 7.82187 9.55492 -0.139853
590 2 2.2208 5.06776 6.80301 -0.0879762
59 1 -1.1104 6.37619 8.24256 4.03626
63 1 -1.1104 6.57953 5.34619 1.271
69 1 -1.1104 6.44081 5.5577 4.06961
64 1 -1.1104 6.39354 11.0288 1.1139
84 2 2.2208 10.7547 6.71585 5.29989
85 2 2.2208 10.7067 12.4378 5.25739
86 1 -1.1104 12.0244 8.27761 1.15904
87 1 -1.1104 12.094 8.21168 3.92196
88 1 -1.1104 12.1154 5.32446 1.20361
89 1 -1.1104 12.0994 11.263 1.19608
91 2 2.2208 10.7221 9.6138 2.69717
92 1 -1.1104 12.1917 5.40503 4.02887
93 1 -1.1104 12.2102 10.9681 4.08983
94 1 -1.1104 9.21649 8.10254 1.05993
95 2 2.2208 7.93656 6.67876 2.5915
96 2 2.2208 7.84802 12.3586 2.70408
97 1 -1.1104 9.2582 8.22916 3.87571
98 2 2.2208 7.8572 9.5885 5.37043
99 1 -1.1104 9.47182 5.33394 1.27207
100 1 -1.1104 9.2005 11.0212 1.36001
102 1 -1.1104 9.42319 5.23418 4.09897
103 1 -1.1104 9.27596 11.0583 4.01646
267 1 -1.1104 9.37563 8.28137 6.6399
269 1 -1.1104 9.4029 5.31168 6.73952
237 1 -1.1104 6.64218 5.54078 6.86073
101 1 -1.1104 9.20194 11.0247 6.76338
30 1 -1.1104 12.1226 13.9534 9.57987
527 2 2.2208 2.2629 3.92617 -0.392002
556 2 2.2208 7.79671 -1.64278 -0.351588
8344 2 2.2208 7.8922 -4.3866 7.9809
106 2 2.2208 5.01364 18.0397 5.33585
107 1 -1.1104 0.938852 13.8097 1.12482
109 1 -1.1104 0.743725 19.3171 1.19943
113 1 -1.1104 0.793855 13.804 3.8801
114 1 -1.1104 0.763692 19.4396 3.83871
116 1 -1.1104 0.862788 16.4749 1.02578
119 2 2.2208 5.07171 15.1405 2.5275
120 2 2.2208 5.05491 20.856 2.45845
121 1 -1.1104 0.90513 16.6616 3.93629
123 1 -1.1104 3.67299 13.7785 1.17066
125 1 -1.1104 3.67733 19.5061 1.07448
127 2 2.2208 2.28343 17.9883 2.31777
128 1 -1.1104 3.58166 13.8128 3.83616
129 1 -1.1104 3.70497 19.3989 3.83671
130 2 2.2208 2.13897 15.288 5.20289
131 2 2.2208 2.21589 20.7455 5.27279
132 1 -1.1104 3.68408 16.588 1.02088
134 1 -1.1104 3.64052 16.6836 3.88726
365 2 2.2208 5.05913 17.9499 -0.203754
117 1 -1.1104 0.84221 16.6764 6.68665
124 1 -1.1104 3.63122 13.864 6.66254
229 1 -1.1104 9.15879 16.7018 9.51078
26 1 -1.1104 12.2553 13.8944 12.3798
139 1 -1.1104 6.43743 19.5202 3.9271
108 1 -1.1104 0.803408 13.7838 6.72336
17350 2 2.2208 13.5537 -4.26092 8.21643
8337 2 2.2208 2.50516 -4.46371 2.57145
8342 2 2.2208 5.11564 -4.41735 10.9242
138 1 -1.1104 6.51492 19.4361 1.25566
163 1 -1.1104 9.27942 16.5591 6.72095
115 1 -1.1104 6.49925 13.765 3.91041
122 1 -1.1104 6.54844 16.5878 3.87857
110 1 -1.1104 6.50692 13.8283 1.31812
140 1 -1.1104 6.34758 16.5826 1.22117
141 2 2.2208 10.6838 18.1031 5.21765
142 1 -1.1104 12.0002 13.852 1.09169
144 1 -1.1104 12.1731 19.3562 1.09738
146 1 -1.1104 12.0087 13.8624 4.00307
147 1 -1.1104 12.1889 19.5117 3.89397
148 1 -1.1104 12.0929 16.5874 1.12025
150 2 2.2208 10.6726 15.2053 2.54039
151 2 2.2208 10.7735 20.8461 2.51047
152 1 -1.1104 12.1609 16.6841 3.82679
153 1 -1.1104 9.30058 13.8027 1.26046
155 1 -1.1104 9.30826 19.3972 1.10609
157 2 2.2208 7.99566 18.0151 2.58352
158 1 -1.1104 9.24852 13.709 3.92931
159 1 -1.1104 9.30742 19.4472 3.9791
160 2 2.2208 7.91391 15.1758 5.33771
161 2 2.2208 7.87284 20.8077 5.26118
162 1 -1.1104 9.25943 16.515 1.19811
164 1 -1.1104 9.28651 16.6175 3.93021
118 1 -1.1104 6.50948 16.656 6.68701
156 1 -1.1104 9.28015 19.3644 6.64232
112 1 -1.1104 6.42539 19.4778 6.76463
111 1 -1.1104 6.50616 13.7493 6.82217
290 1 -1.1104 6.62111 13.9463 9.54365
8339 2 2.2208 7.92592 -4.3856 2.51949
9043 2 2.2208 13.6225 1.11181 2.45344
166 1 -1.1104 0.860607 -2.92673 6.91402
172 1 -1.1104 3.7997 -3.07191 6.62162
173 1 -1.1104 3.79947 2.49136 6.78143
168 1 -1.1104 6.51336 -2.99591 6.71989
169 1 -1.1104 6.60751 2.69019 6.66292
25 2 2.2208 10.5889 18.0734 10.86
174 1 -1.1104 3.77196 -0.239222 6.55023
175 2 2.2208 5.01029 1.25072 11.0526
176 1 -1.1104 0.81639 -2.93031 12.3976
177 1 -1.1104 0.862447 2.53704 12.3792
180 1 -1.1104 0.891975 -3.15341 9.73258
181 1 -1.1104 0.864737 2.49006 9.49819
184 1 -1.1104 0.956203 -0.222086 12.3067
186 2 2.2208 5.1805 -1.57628 8.02203
187 2 2.2208 5.15807 4.01002 8.12817
188 1 -1.1104 1.07715 -0.319768 9.59311
190 1 -1.1104 3.63316 -3.04711 12.4263
191 1 -1.1104 3.6654 2.66555 12.4353
192 2 2.2208 2.29565 1.08345 8.05565
193 1 -1.1104 3.70914 -2.99314 9.47984
194 1 -1.1104 3.69226 2.58607 9.66753
195 2 2.2208 2.37608 -1.64338 11.0621
197 1 -1.1104 3.57046 -0.12553 12.3461
198 1 -1.1104 3.74825 -0.235577 9.48102
196 2 2.2208 2.33456 3.88802 10.8581
145 1 -1.1104 12.0949 19.5379 6.64132
182 1 -1.1104 6.54447 -2.93629 9.49062
189 1 -1.1104 6.61202 -0.140557 9.67208
8934 2 2.2208 13.5779 18.0553 2.49845
8738 2 2.2208 13.5149 3.91064 5.38511
8345 2 2.2208 10.6644 -4.3374 10.9417
555 2 2.2208 10.7198 1.12506 -0.294161
210 1 -1.1104 9.29492 -0.0968817 6.80054
206 1 -1.1104 12.1028 2.61449 6.81442
209 1 -1.1104 9.43925 2.63122 6.7738
143 1 -1.1104 12.1659 13.8497 6.73258
9270 2 2.2208 13.6921 -1.71858 -0.244921
9438 2 2.2208 13.3309 9.6443 -0.256575
171 1 -1.1104 6.50816 -0.0831663 6.79575
179 1 -1.1104 6.5148 2.61507 12.2884
183 1 -1.1104 6.6979 2.79571 9.33447
178 1 -1.1104 6.28118 -2.96744 12.4141
185 1 -1.1104 6.22787 -0.0842471 12.4521
211 2 2.2208 10.7388 1.05741 11.0762
212 1 -1.1104 12.1246 -2.93776 12.5449
213 1 -1.1104 12.0338 2.61736 12.3816
214 1 -1.1104 12.0861 -3.02436 9.67169
215 1 -1.1104 12.3979 2.66846 9.58176
216 1 -1.1104 12.1077 -0.234971 12.3716
217 2 2.2208 10.7502 -1.64775 8.23701
218 2 2.2208 10.7447 4.06447 8.15877
219 1 -1.1104 12.1952 -0.269179 9.55283
220 1 -1.1104 9.25561 -2.93197 12.3385
221 1 -1.1104 9.201 2.62732 12.3163
222 2 2.2208 7.9708 1.22244 8.18901
223 1 -1.1104 9.31117 -3.04374 9.54323
224 1 -1.1104 9.51601 2.55154 9.52257
225 2 2.2208 7.88997 -1.61972 11.0398
226 2 2.2208 7.92256 4.0345 10.9091
227 1 -1.1104 9.33983 -0.273006 12.4315
228 1 -1.1104 9.44396 -0.245744 9.66409
82 1 -1.1104 12.1395 16.8111 9.39011
8873 2 2.2208 13.616 3.95336 11.0385
27 1 -1.1104 12.1441 19.7005 12.2362
234 1 -1.1104 0.982825 8.00972 6.78258
591 2 2.2208 2.24095 9.56415 -0.313353
201 1 -1.1104 9.29844 16.7 12.2562
240 2 2.2208 5.03475 6.85515 11.0335
241 2 2.2208 5.08105 12.2963 11.0924
242 1 -1.1104 0.784232 8.15125 12.4529
244 1 -1.1104 1.12897 8.21671 9.49898
246 1 -1.1104 0.924534 5.28605 12.4259
247 1 -1.1104 0.841208 10.904 12.287
250 2 2.2208 4.97156 9.56443 8.17881
251 1 -1.1104 0.96535 5.2207 9.48041
252 1 -1.1104 0.963463 11.0299 9.64511
255 1 -1.1104 3.60701 8.08463 12.3727
256 2 2.2208 2.27413 6.62179 8.11965
257 2 2.2208 2.39524 12.2545 8.21161
258 1 -1.1104 3.6866 8.34439 9.58435
259 2 2.2208 2.27358 9.50609 11.0018
260 1 -1.1104 3.74582 5.37621 12.2547
261 1 -1.1104 3.65838 10.8479 12.4705
262 1 -1.1104 3.63174 5.40894 9.48299
263 1 -1.1104 3.75724 11.0882 9.66259
245 1 -1.1104 6.40516 8.36875 9.70084
243 1 -1.1104 6.56761 8.27449 12.4204
9050 2 2.2208 13.4885 6.78469 2.44885
8898 2 2.2208 13.5491 1.19043 8.21484
53 2 2.2208 10.7909 15.1244 8.09155
266 1 -1.1104 12.2055 5.47462 6.87806
49 1 -1.1104 12.2608 19.515 9.44346
65 1 -1.1104 6.28021 10.9948 6.79017
265 1 -1.1104 12.1978 8.29043 6.75777
90 1 -1.1104 12.1155 11.0371 6.78704
249 1 -1.1104 6.46698 11.0436 12.5001
254 1 -1.1104 6.54102 10.9996 9.53424
248 1 -1.1104 6.41493 5.44136 12.5708
253 1 -1.1104 6.54234 5.4472 9.68587
264 1 -1.1104 9.3565 11.1707 9.39759
268 1 -1.1104 9.31986 5.41574 9.46555
270 1 -1.1104 9.36262 11.1322 12.3135
271 1 -1.1104 9.1624 5.51978 12.3573
272 2 2.2208 7.84247 9.73718 10.9765
273 1 -1.1104 9.35669 8.17633 9.55541
274 2 2.2208 7.88115 12.462 8.20209
275 2 2.2208 8.01172 6.94639 8.12123
276 2 2.2208 10.8196 6.95532 10.9667
277 2 2.2208 10.8781 12.4998 11.0497
278 1 -1.1104 12.1516 8.14446 12.417
279 1 -1.1104 12.1398 8.35459 9.50084
280 1 -1.1104 12.0257 5.31726 12.2879
281 1 -1.1104 12.1717 11.0115 12.2604
282 2 2.2208 10.7774 9.67573 8.19248
283 1 -1.1104 12.1349 5.58731 9.6447
284 1 -1.1104 12.0407 11.1303 9.5163
285 1 -1.1104 9.33411 8.3672 12.3228
165 2 2.2208 7.93068 15.2534 10.943
8968 2 2.2208 -0.401217 6.72456 11.0407
289 1 -1.1104 6.35453 16.6481 9.51683
133 1 -1.1104 3.67141 16.5796 6.72697
126 1 -1.1104 3.60386 19.4575 6.51341
231 1 -1.1104 0.826651 19.5227 6.76744
104 1 -1.1104 9.30258 19.4494 12.2558
50 1 -1.1104 12.0082 16.8135 12.0913
28 2 2.2208 2.25361 20.8251 10.9771
29 1 -1.1104 3.73266 16.4993 12.4235
51 1 -1.1104 0.88714 16.504 12.3814
136 1 -1.1104 0.851906 13.6509 12.3501
200 1 -1.1104 0.841653 19.3852 12.279
202 1 -1.1104 3.85572 13.8019 9.56296
203 1 -1.1104 3.61529 16.6168 9.54503
204 2 2.2208 2.34821 17.9726 8.09043
230 2 2.2208 2.41968 15.1177 10.9409
232 1 -1.1104 3.60577 19.4816 9.41707
233 2 2.2208 5.1442 18.0917 10.9979
286 1 -1.1104 3.81905 19.4678 12.3462
287 1 -1.1104 3.64022 13.5804 12.3826
291 1 -1.1104 0.878035 19.4322 9.43149
292 1 -1.1104 0.905304 16.5426 9.6237
293 2 2.2208 5.07123 20.8914 8.17183
294 1 -1.1104 1.04592 13.8565 9.43785
295 2 2.2208 5.21827 15.165 8.02981
135 1 -1.1104 9.4148 13.9732 9.70765
137 1 -1.1104 9.35786 19.5163 9.43628
296 1 -1.1104 6.66883 19.4847 12.3865
297 1 -1.1104 6.59812 13.7873 12.3769
52 1 -1.1104 6.57622 16.5562 12.3926
149 1 -1.1104 12.1546 16.6443 6.51048
154 1 -1.1104 9.29831 13.7092 6.80207
288 1 -1.1104 6.36184 19.6007 9.6309
83 1 -1.1104 9.45171 13.9772 12.4091
199 2 2.2208 7.94275 20.9188 10.8251
81 2 2.2208 10.8558 20.878 7.97477
9038 2 2.2208 13.4898 15.3411 10.9159
8950 2 2.2208 13.5952 12.4411 8.09285
9000 2 2.2208 13.5469 20.7912 10.8067
8815 2 2.2208 13.6016 20.8753 5.17806
8338 2 2.2208 5.13011 -4.37627 5.2404
8767 2 2.2208 13.5672 9.6755 5.47231
8949 2 2.2208 13.5443 6.90167 8.25091
8766 2 2.2208 13.4501 -1.52889 11.1091
9120 2 2.2208 13.4844 3.90194 -0.292754
8340 2 2.2208 10.6652 -4.41131 5.23611
9426 2 2.2208 13.5076 20.7546 -0.454321
528 2 2.2208 7.78195 20.7561 -0.333855
471 2 2.2208 5.09714 20.7957 13.828
370 2 2.2208 7.91577 15.0517 -0.197151
298 2 2.2208 4.96047 1.19806 16.5653
299 1 -1.1104 0.814149 -3.06765 18.0735
300 1 -1.1104 0.772617 2.46551 17.932
303 1 -1.1104 0.996225 -3.04621 15.2241
305 1 -1.1104 0.791046 2.57136 15.1547
311 1 -1.1104 0.832968 -0.342568 18.1034
313 2 2.2208 5.16595 -1.58471 19.3909
314 2 2.2208 4.97415 4.0481 19.4601
315 1 -1.1104 0.855017 -0.162342 15.3141
319 1 -1.1104 3.6642 -3.08067 17.9597
320 1 -1.1104 3.59264 2.532 18.1842
321 2 2.2208 2.30303 1.11574 19.3678
322 1 -1.1104 3.68705 -3.0625 15.0187
324 1 -1.1104 3.61195 2.46894 15.2619
326 2 2.2208 2.20373 -1.7055 16.6975
327 2 2.2208 2.22173 4.01696 16.5619
328 1 -1.1104 3.67714 -0.324212 17.9748
329 1 -1.1104 3.61896 -0.293471 15.2604
306 1 -1.1104 0.834363 2.72247 20.7644
330 1 -1.1104 3.72332 -0.052214 20.8146
302 1 -1.1104 6.36075 2.6943 17.9682
17411 2 2.2208 13.5661 -4.49179 19.3468
309 1 -1.1104 6.36783 2.6562 15.2287
317 1 -1.1104 6.37621 -0.272354 15.1195
307 1 -1.1104 6.56359 -3.17468 15.1722
301 1 -1.1104 6.46814 -2.99407 17.9613
8712 2 2.2208 2.23767 -4.44215 19.3587
17724 2 2.2208 13.6578 -4.40371 13.7621
565 1 -1.1104 9.24533 13.6036 23.5573
338 2 2.2208 5.00972 -1.60935 13.8495
340 2 2.2208 5.04978 3.92275 13.8989
9084 2 2.2208 13.4944 1.21117 13.725
312 1 -1.1104 6.53495 -0.155675 17.8805
341 2 2.2208 10.693 1.26315 16.6273
342 1 -1.1104 12.0604 -3.1213 17.9158
343 1 -1.1104 12.1469 2.65911 17.9409
344 1 -1.1104 12.131 -3.09059 15.3148
346 1 -1.1104 11.9731 2.43381 15.3151
348 1 -1.1104 12.0122 -0.219499 17.9629
349 2 2.2208 10.7176 -1.63598 19.3615
351 1 -1.1104 12.0721 -0.315304 15.0522
353 1 -1.1104 9.29333 -3.01689 17.8379
354 1 -1.1104 9.29523 2.74946 18.0295
355 2 2.2208 7.87828 1.1548 19.2931
356 1 -1.1104 9.22936 -3.08721 15.169
358 1 -1.1104 9.32127 2.70285 15.2078
360 2 2.2208 7.92105 -1.72643 16.5708
361 2 2.2208 7.8049 4.12819 16.658
362 1 -1.1104 9.34679 -0.146498 18.0143
363 1 -1.1104 9.28024 -0.112247 15.3032
350 2 2.2208 10.7522 3.96368 19.406
345 1 -1.1104 12.1349 -3.004 20.7027
352 1 -1.1104 12.1041 -0.174101 20.6703
339 2 2.2208 2.13796 1.22183 13.8494
373 2 2.2208 10.4896 4.03372 13.7066
9427 2 2.2208 13.549 18.0207 19.3838
531 1 -1.1104 6.40692 16.5984 23.755
408 2 2.2208 5.0822 9.57867 13.8159
374 2 2.2208 5.17019 6.73673 16.6752
375 2 2.2208 5.10544 12.3284 16.6726
376 1 -1.1104 0.975984 8.17805 17.9017
378 1 -1.1104 0.817447 8.20147 15.1662
382 1 -1.1104 0.742502 5.47537 18.0822
383 1 -1.1104 0.859456 10.966 17.9479
386 2 2.2208 5.16367 9.63111 19.3803
387 1 -1.1104 0.943642 5.41446 15.2525
389 1 -1.1104 0.966566 10.9197 15.1942
395 1 -1.1104 3.81341 8.09851 18.1949
396 2 2.2208 2.2819 6.85888 19.2996
397 2 2.2208 2.30453 12.2839 19.4257
398 1 -1.1104 3.60427 8.06389 15.2773
400 2 2.2208 2.35407 9.57617 16.6197
401 1 -1.1104 3.69058 5.43011 17.8441
402 1 -1.1104 3.74303 11.0243 17.9423
403 1 -1.1104 3.62364 5.27675 15.11
405 1 -1.1104 3.74773 10.8478 15.3201
563 2 2.2208 10.5885 20.7988 24.9693
379 1 -1.1104 0.82419 8.24242 20.656
388 1 -1.1104 0.969352 5.50539 21.0017
406 1 -1.1104 3.66355 11.0945 20.7263
390 1 -1.1104 0.953029 10.9595 20.7201
472 2 2.2208 5.19446 15.115 13.9743
622 1 -1.1104 6.52791 13.6502 26.5434
9434 2 2.2208 13.5093 9.74093 16.6638
384 1 -1.1104 6.42337 5.33829 18.0401
9086 2 2.2208 13.505 1.24736 19.3938
377 1 -1.1104 6.65342 8.10652 18.0638
391 1 -1.1104 6.46028 5.41306 15.2766
385 1 -1.1104 6.46944 10.8729 17.9535
393 1 -1.1104 6.43004 10.8875 15.2529
380 1 -1.1104 6.35893 8.15805 15.2258
410 2 2.2208 10.6949 6.80655 16.534
411 2 2.2208 10.7575 12.3839 16.6956
412 1 -1.1104 12.1845 8.41597 18.1161
413 1 -1.1104 12.0267 8.08551 15.2577
415 1 -1.1104 12.1526 5.41724 17.9648
416 1 -1.1104 12.0106 11.0283 17.9896
417 2 2.2208 10.6858 9.66704 19.4493
418 1 -1.1104 12.1476 5.44592 15.1974
420 1 -1.1104 12.1376 10.9421 15.2256
422 1 -1.1104 9.46861 8.24554 17.9331
423 2 2.2208 7.87924 6.7128 19.4924
424 2 2.2208 7.9543 12.3985 19.3417
425 1 -1.1104 9.18973 8.2926 15.0108
427 2 2.2208 7.92395 9.53002 16.6037
428 1 -1.1104 9.34559 5.47309 18.0896
429 1 -1.1104 9.28343 11.087 18.1975
430 1 -1.1104 9.24469 5.43985 15.1478
432 1 -1.1104 9.4179 11.1136 15.27
414 1 -1.1104 12.123 8.14516 20.919
392 1 -1.1104 6.52173 5.3546 20.8739
371 2 2.2208 7.83887 1.18053 13.7993
394 1 -1.1104 6.59511 10.9849 20.7465
561 1 -1.1104 9.15385 19.3796 26.4133
409 2 2.2208 2.25923 12.3979 13.9767
437 2 2.2208 5.05237 17.9432 16.5788
438 1 -1.1104 1.02151 13.6547 18.0124
439 1 -1.1104 0.924633 19.3974 18.0478
442 1 -1.1104 0.721609 13.7987 15.1757
444 1 -1.1104 1.06342 19.3782 15.2627
450 1 -1.1104 0.843992 16.5003 18.0568
452 2 2.2208 5.09476 15.2619 19.4803
453 2 2.2208 5.09021 20.6952 19.4507
454 1 -1.1104 0.851758 16.5876 15.2521
458 1 -1.1104 3.68518 13.608 17.948
459 1 -1.1104 3.68581 19.3635 18.0896
460 2 2.2208 2.31333 17.9899 19.4709
461 1 -1.1104 3.89899 13.6469 15.1198
463 1 -1.1104 3.76361 19.3444 15.2161
465 2 2.2208 2.33993 15.1062 16.5645
466 2 2.2208 2.41035 20.7376 16.5619
467 1 -1.1104 3.64872 16.4374 18.0522
468 1 -1.1104 3.73203 16.6913 15.3215
8644 2 2.2208 7.91162 -4.45251 19.2836
441 1 -1.1104 6.5273 19.3723 18.0196
455 1 -1.1104 0.869383 16.636 20.7179
443 1 -1.1104 0.860733 13.7966 20.8543
8639 2 2.2208 7.84642 -4.54284 13.6936
440 1 -1.1104 6.5615 13.816 18.0428
456 1 -1.1104 6.55354 16.4877 15.2345
448 1 -1.1104 6.4655 19.2687 15.1905
451 1 -1.1104 6.435 16.6923 17.9063
446 1 -1.1104 6.66229 13.6184 15.2772
473 2 2.2208 10.6397 18.0238 16.5699
474 1 -1.1104 12.2014 13.7358 17.8329
475 1 -1.1104 12.0438 19.2902 17.8333
476 1 -1.1104 11.9973 13.9051 15.1749
478 1 -1.1104 12.1331 19.6078 15.016
480 1 -1.1104 12.0995 16.5132 17.8812
481 2 2.2208 10.7043 15.1621 19.4629
482 2 2.2208 10.6306 20.7798 19.3486
483 1 -1.1104 12.1515 16.6339 14.9876
485 1 -1.1104 9.38683 13.7479 18.1359
486 1 -1.1104 9.26517 19.5152 18.0425
487 2 2.2208 7.8396 18.0028 19.4462
488 1 -1.1104 9.20461 13.7646 15.3303
490 1 -1.1104 9.31571 19.5259 15.2455
492 2 2.2208 7.9332 15.2592 16.6186
493 2 2.2208 7.829 20.7721 16.5955
494 1 -1.1104 9.26858 16.6005 17.956
495 1 -1.1104 9.36666 16.6999 15.0981
457 1 -1.1104 6.56907 16.601 20.877
449 1 -1.1104 6.51789 19.2934 20.9299
484 1 -1.1104 12.0733 16.6338 20.6461
496 1 -1.1104 9.19166 16.5308 20.6146
447 1 -1.1104 6.58221 13.6992 20.8986
331 2 2.2208 7.87995 15.1175 22.3552
8711 2 2.2208 2.29295 -4.45711 13.7154
316 1 -1.1104 0.862154 -0.154099 20.8404
323 1 -1.1104 3.67206 -2.94397 20.5835
304 1 -1.1104 0.734521 -3.07971 20.7892
325 1 -1.1104 3.64232 2.58817 20.8442
310 1 -1.1104 6.51935 2.66476 20.6723
434 2 2.2208 7.82704 6.86246 13.6929
501 2 2.2208 5.09092 1.12232 22.3004
502 1 -1.1104 0.894428 -3.10563 23.5862
503 1 -1.1104 0.838718 2.48686 23.6702
506 1 -1.1104 0.830914 -3.09299 26.3248
507 1 -1.1104 0.698966 2.39388 26.5177
510 1 -1.1104 0.895922 -0.322959 23.6163
512 2 2.2208 5.12298 -1.71465 24.8523
513 2 2.2208 5.09086 3.82597 25.0332
514 1 -1.1104 0.979266 -0.378542 26.4004
516 1 -1.1104 3.64973 -3.03003 23.4348
517 1 -1.1104 3.531 2.4089 23.55
518 2 2.2208 2.38549 1.09258 24.9916
519 1 -1.1104 3.69421 -2.94512 26.3576
520 1 -1.1104 3.62658 2.54208 26.53
521 2 2.2208 2.2829 -1.64119 22.171
522 2 2.2208 2.25677 3.93814 22.3248
523 1 -1.1104 3.82655 -0.41214 23.62
524 1 -1.1104 3.8206 -0.324887 26.2156
318 1 -1.1104 6.52202 -0.146952 20.6578
515 1 -1.1104 6.50876 -0.222531 26.4206
509 1 -1.1104 6.32978 2.4284 26.3216
529 2 2.2208 10.6736 17.9596 22.0356
470 2 2.2208 2.25147 17.9572 13.7069
357 1 -1.1104 9.38123 -3.1472 20.6135
364 1 -1.1104 9.37359 -0.326166 20.8402
308 1 -1.1104 6.49523 -2.89814 20.7555
359 1 -1.1104 9.2618 2.58128 20.8846
347 1 -1.1104 12.2404 2.63272 20.8064
9080 2 2.2208 13.4093 4.1033 16.5078
9418 2 2.2208 13.5537 9.66512 22.176
508 1 -1.1104 6.49294 -3.01377 26.2146
504 1 -1.1104 6.52903 -3.05239 23.4715
511 1 -1.1104 6.59234 -0.261155 23.5109
505 1 -1.1104 6.49127 2.51557 23.4777
537 2 2.2208 10.7009 1.09369 22.1993
538 1 -1.1104 12.0436 -3.00822 23.6059
539 1 -1.1104 12.1785 2.62424 23.5809
540 1 -1.1104 12.1325 -3.05944 26.5048
541 1 -1.1104 12.0556 2.50008 26.521
542 1 -1.1104 12.1219 -0.230998 23.6191
543 2 2.2208 10.6499 -1.90176 25.0284
544 2 2.2208 10.723 4.00278 25.0655
545 1 -1.1104 12.1884 -0.256092 26.4465
546 1 -1.1104 9.27518 -3.19945 23.5275
547 1 -1.1104 9.36614 2.40665 23.649
548 2 2.2208 7.97755 1.09465 25.0188
549 1 -1.1104 9.25305 -3.14268 26.3851
550 1 -1.1104 9.14699 2.35239 26.4788
551 2 2.2208 7.91551 -1.57013 22.1434
552 2 2.2208 7.98472 3.9426 22.3339
553 1 -1.1104 9.35089 -0.371182 23.537
554 1 -1.1104 9.4116 -0.379068 26.4043
9122 2 2.2208 13.4437 -1.62226 22.3039
533 1 -1.1104 12.0089 13.7677 23.449
404 1 -1.1104 3.695 5.26971 20.881
399 1 -1.1104 3.64403 8.18036 20.8094
9414 2 2.2208 13.4527 -1.70016 16.5935
566 2 2.2208 5.18338 6.69018 22.2659
567 2 2.2208 5.16439 12.2778 22.0685
568 1 -1.1104 0.863152 8.22743 23.6498
570 1 -1.1104 0.886195 8.21162 26.4832
572 1 -1.1104 0.829916 5.28797 23.7543
573 1 -1.1104 0.939405 10.9705 23.478
576 2 2.2208 5.09878 9.56901 25.0028
577 1 -1.1104 0.820025 5.42102 26.5357
578 1 -1.1104 0.713897 11.0045 26.3513
581 1 -1.1104 3.69664 7.9902 23.669
582 2 2.2208 2.25231 6.78035 25.0727
583 2 2.2208 2.36243 12.4175 24.9011
584 1 -1.1104 3.63631 8.27583 26.4411
585 2 2.2208 2.32011 9.40694 22.0982
586 1 -1.1104 3.73237 5.18738 23.7279
587 1 -1.1104 3.71715 10.7958 23.5851
588 1 -1.1104 3.72874 5.38164 26.3287
589 1 -1.1104 3.67148 10.9056 26.3543
9153 2 2.2208 13.506 6.76113 13.8012
9437 2 2.2208 13.4926 12.4725 25.0126
579 1 -1.1104 6.51138 5.10596 26.501
574 1 -1.1104 6.50638 5.2627 23.7651
489 1 -1.1104 9.36082 13.703 20.8331
628 1 -1.1104 6.36008 19.5381 23.7061
421 1 -1.1104 12.0173 10.9505 20.8285
569 1 -1.1104 6.51274 8.06642 23.6819
433 1 -1.1104 9.30519 10.8455 20.9099
426 1 -1.1104 9.29667 8.01201 20.8546
419 1 -1.1104 12.0207 5.44433 20.7574
381 1 -1.1104 6.45735 8.21757 20.8343
431 1 -1.1104 9.26879 5.36587 21.0345
571 1 -1.1104 6.50664 8.24927 26.4939
575 1 -1.1104 6.50612 10.8916 23.7118
580 1 -1.1104 6.46041 10.9691 26.4947
597 1 -1.1104 9.31337 11.1361 26.5448
598 1 -1.1104 9.13884 5.32754 26.474
599 1 -1.1104 9.22483 11.0449 23.6433
600 1 -1.1104 9.13556 5.217 23.8679
601 2 2.2208 8.037 9.4829 22.2685
602 1 -1.1104 9.26465 8.21323 26.4652
603 2 2.2208 7.91827 12.3442 25.0239
604 2 2.2208 7.72457 6.72408 25.1034
605 2 2.2208 10.7198 6.73537 22.2854
606 2 2.2208 10.6041 12.3175 22.1847
607 1 -1.1104 12.1027 8.42081 23.7055
608 1 -1.1104 12.0225 8.09096 26.3952
609 1 -1.1104 11.9863 5.33545 23.6073
610 1 -1.1104 12.1688 11.1419 23.451
611 2 2.2208 10.6813 9.51084 25.0172
612 1 -1.1104 12.0831 5.38071 26.31
613 1 -1.1104 12.0248 11.0621 26.338
614 1 -1.1104 9.23746 8.00183 23.6547
535 1 -1.1104 12.056 13.8064 26.3448
469 1 -1.1104 3.6947 16.5211 20.8802
9121 2 2.2208 13.5271 1.15738 24.9896
9227 2 2.2208 13.6415 20.6385 16.5354
464 1 -1.1104 3.75234 19.3475 20.8808
335 1 -1.1104 6.35413 19.3101 26.4947
445 1 -1.1104 0.883229 19.4631 20.7137
462 1 -1.1104 3.78616 13.8922 20.7747
367 2 2.2208 2.26173 15.1772 22.2145
368 2 2.2208 2.27029 20.8256 22.1833
369 1 -1.1104 3.68375 16.5456 23.6781
530 1 -1.1104 0.865036 16.6471 23.3686
532 1 -1.1104 3.6935 13.8758 26.3263
559 1 -1.1104 3.6719 16.5782 26.3312
594 2 2.2208 2.35102 18.0202 24.898
595 1 -1.1104 3.70468 19.3751 26.4343
618 2 2.2208 5.12133 17.9468 22.3755
619 1 -1.1104 0.920063 13.9023 23.7487
620 1 -1.1104 0.842859 19.4873 23.508
621 1 -1.1104 3.68859 19.6296 23.5543
623 1 -1.1104 3.68455 13.7089 23.4601
625 1 -1.1104 0.982213 19.4894 26.4583
626 1 -1.1104 0.938064 16.9069 26.2762
627 1 -1.1104 0.923892 13.946 26.4444
629 2 2.2208 5.06424 20.9059 25.0746
630 2 2.2208 5.06161 15.1957 25.042
407 2 2.2208 2.28682 6.78261 13.8527
558 1 -1.1104 12.0607 16.6407 23.3632
333 1 -1.1104 9.20004 16.4673 23.6432
593 1 -1.1104 9.27767 19.2708 23.6718
479 1 -1.1104 11.9854 19.4145 20.7035
596 2 2.2208 7.8226 17.9559 25.0936
631 1 -1.1104 6.46457 13.723 23.6328
334 1 -1.1104 9.19214 16.5865 26.5035
560 1 -1.1104 9.2702 13.846 26.4183
332 2 2.2208 7.84068 20.8503 22.2795
562 2 2.2208 10.5994 15.1164 24.9159
477 1 -1.1104 12.0801 13.665 20.7349
534 1 -1.1104 12.1512 19.3314 23.5457
491 1 -1.1104 9.24363 19.4064 20.857
536 1 -1.1104 12.0916 19.3955 26.4519
564 1 -1.1104 12.0949 16.7121 26.1422
624 1 -1.1104 6.46442 16.5536 26.5196
9433 2 2.2208 13.4777 6.84006 19.3308
9430 2 2.2208 13.6007 20.7924 22.17
9417 2 2.2208 13.4697 15.2053 22.1781
9428 2 2.2208 13.4805 15.1862 16.526
9158 2 2.2208 13.4425 6.78362 25.0946
498 2 2.2208 10.772 15.2731 13.714
9287 2 2.2208 13.5928 4.05574 22.0807
9420 2 2.2208 13.4943 17.9819 24.9387
499 2 2.2208 7.98271 18.0762 13.7609
9432 2 2.2208 13.4328 12.3784 19.4184
9053 2 2.2208 13.565 12.4497 13.7282
9302 2 2.2208 13.4871 18.2277 13.7678
435 2 2.2208 10.7108 9.63482 13.7606
497 2 2.2208 10.6109 20.9648 13.7106
8501 2 2.2208 5.13555 -4.45424 22.1043
8713 2 2.2208 5.09161 -4.41623 16.5689
9421 2 2.2208 13.44 15.2626 27.7729
337 2 2.2208 2.31445 15.2011 27.7534
500 2 2.2208 10.7411 17.9786 27.7415
372 2 2.2208 10.6268 -1.60787 13.9032
436 2 2.2208 7.89795 12.4374 13.8906
632 2 2.2208 5.12467 23.5966 5.3808
633 2 2.2208 5.33771 29.3399 5.0467
634 1 -1.1104 0.843645 25.195 1.22897
635 1 -1.1104 0.948628 25.147 4.12062
636 1 -1.1104 0.948514 22.3149 1.22353
637 1 -1.1104 0.800977 27.9641 1.13314
638 2 2.2208 5.29233 26.525 2.3994
639 1 -1.1104 0.982488 22.377 3.9355
640 1 -1.1104 1.07059 27.959 3.84956
641 1 -1.1104 3.73629 25.115 1.01632
642 2 2.2208 2.40774 23.6549 2.53412
643 2 2.2208 2.41705 29.3035 2.43906
644 1 -1.1104 3.7022 25.1231 3.87873
645 2 2.2208 2.35514 26.5565 5.18759
646 1 -1.1104 3.70337 22.2832 1.22817
647 1 -1.1104 3.81926 27.9228 1.12899
648 1 -1.1104 3.76234 22.1779 4.10766
649 1 -1.1104 3.88734 27.9625 3.79998
1331 1 -1.1104 9.46898 47.5222 3.84191
9495 2 2.2208 13.8097 37.674 5.27187
779 1 -1.1104 3.78555 25.027 6.61213
655 1 -1.1104 6.42554 22.2915 1.22047
774 1 -1.1104 6.59203 25.1028 6.67432
906 1 -1.1104 6.4669 41.9479 12.2946
773 1 -1.1104 0.87786 25.1625 6.88182
775 1 -1.1104 0.846241 22.3972 6.81564
780 1 -1.1104 3.62619 22.3112 6.87078
9700 2 2.2208 13.6518 40.4885 8.09189
1201 2 2.2208 2.22921 32.2031 -0.283402
9754 2 2.2208 -0.304753 46.2467 5.14885
653 1 -1.1104 6.5732 25.0296 1.12223
656 1 -1.1104 6.50906 27.9512 1.07587
657 1 -1.1104 6.46107 22.2625 3.8891
654 1 -1.1104 6.70377 25.1041 3.91233
658 1 -1.1104 6.75339 27.8692 3.7683
659 2 2.2208 10.7515 23.5927 5.36214
660 2 2.2208 10.6073 29.523 5.26818
661 1 -1.1104 12.1731 25.0408 1.03131
662 1 -1.1104 12.4678 25.1593 3.85937
663 1 -1.1104 12.2009 22.1979 1.03352
664 1 -1.1104 12.295 27.8802 1.48722
665 2 2.2208 10.8279 26.3661 2.38828
666 1 -1.1104 12.0788 22.3724 3.82177
667 1 -1.1104 12.4723 28.1259 5.69138
668 1 -1.1104 9.36451 24.9761 1.15567
669 2 2.2208 7.89573 23.6448 2.61434
670 2 2.2208 8.17836 29.2444 2.35651
671 1 -1.1104 9.68142 25.1694 3.89628
672 2 2.2208 8.11098 26.4997 5.30742
673 1 -1.1104 9.28568 22.2514 1.14324
674 1 -1.1104 9.52261 27.8382 1.02546
675 1 -1.1104 9.28872 22.4401 4.12352
676 1 -1.1104 9.65778 28.0675 3.81076
806 1 -1.1104 12.2944 25.1183 6.76426
809 1 -1.1104 9.38904 25.0548 6.65181
777 1 -1.1104 6.6024 22.2877 6.66396
652 1 -1.1104 12.4062 42.2775 12.2057
9753 2 2.2208 -0.32028 46.1765 10.8871
1091 2 2.2208 2.45886 46.1464 13.5502
680 2 2.2208 5.28386 35.1447 5.09952
681 1 -1.1104 0.974983 30.6802 1.12197
682 1 -1.1104 0.904687 36.3742 0.944964
684 1 -1.1104 0.866033 30.7257 3.88388
685 1 -1.1104 0.954303 36.2941 3.76559
687 1 -1.1104 0.844309 33.51 0.910704
688 2 2.2208 5.07485 32.1591 2.44137
689 2 2.2208 5.19747 37.7867 2.26419
690 1 -1.1104 0.999313 33.6124 3.76596
692 1 -1.1104 3.83951 30.8376 0.99288
693 1 -1.1104 3.68924 36.4099 0.964286
694 2 2.2208 2.32152 35.1075 2.46773
695 1 -1.1104 3.68037 30.7842 3.77922
696 1 -1.1104 3.81884 36.4186 3.84677
697 2 2.2208 2.26163 32.2346 5.18809
698 2 2.2208 2.45575 37.6756 5.24605
699 1 -1.1104 3.61935 33.6445 1.22135
700 1 -1.1104 3.68981 33.5633 3.88439
828 1 -1.1104 6.53648 30.7468 6.6575
832 1 -1.1104 3.65811 30.9618 6.58613
683 1 -1.1104 6.63741 36.2705 0.84864
829 1 -1.1104 6.58762 36.5752 6.37882
704 1 -1.1104 6.70888 30.5794 1.07224
705 1 -1.1104 6.58892 30.9348 3.8186
691 1 -1.1104 6.44106 33.7023 3.77373
706 1 -1.1104 6.55679 33.4835 1.04127
885 1 -1.1104 6.60616 44.9065 9.34002
830 1 -1.1104 0.866027 33.5619 6.62156
922 1 -1.1104 9.51944 41.8727 9.44273
9500 2 2.2208 13.5711 32.2349 5.29559
928 2 2.2208 -0.350294 43.4203 2.26271
9760 2 2.2208 13.685 34.9245 8.16034
918 1 -1.1104 9.31703 39.2684 9.56955
686 1 -1.1104 6.69925 36.3605 3.64018
707 2 2.2208 10.907 35.0141 5.23963
708 1 -1.1104 12.2338 30.6996 1.04719
709 1 -1.1104 12.2104 36.3081 0.922588