ITEM: TIMESTEP
100000
ITEM: NUMBER OF ATOMS
17760
ITEM: BOX BOUNDS pp pp pp
-3.7404158199311205e-01 2.7714041581992685e+01
-4.4679843918716866e+00 3.3254798439187431e+02
-3.6779313169300676e-01 2.7707793131692497e+01
ITEM: ATOMS id type q x y z
1 2 2.2208 5.27864 1.01976 4.98885
2 1 -1.1104 1.17639 -3.03575 0.935802
3 1 -1.1104 1.10617 2.54143 0.779285
6 1 -1.1104 0.971862 -2.97782 3.79707
7 1 -1.1104 1.18519 2.57796 3.79843
10 1 -1.1104 1.24823 -0.346494 0.820779
12 2 2.2208 5.39451 -1.80634 2.29691
14 1 -1.1104 1.21735 -0.203072 3.67229
16 1 -1.1104 4.04327 -3.02684 0.924151
17 1 -1.1104 4.00413 2.55324 0.887921
18 2 2.2208 2.53999 1.00471 2.16444
19 1 -1.1104 3.77521 -3.18563 3.77111
20 1 -1.1104 3.86631 2.38517 3.64865
21 2 2.2208 2.64511 -1.66204 5.03921
22 2 2.2208 2.61041 3.85513 5.0923
23 1 -1.1104 4.00797 -0.398782 0.736011
24 1 -1.1104 3.94 -0.470631 3.51501
13 2 2.2208 5.39203 3.98831 2.2475
174 1 -1.1104 4.03178 -0.257098 6.36338
372 2 2.2208 10.9814 -1.71566 13.6771
9040 2 2.2208 -0.322025 1.09654 5.10049
9037 2 2.2208 -0.350023 -1.75208 2.20291
8338 2 2.2208 5.51993 -4.46915 4.99169
166 1 -1.1104 1.24542 -3.06254 6.5115
167 1 -1.1104 1.14497 2.37646 6.62296
436 2 2.2208 8.30033 12.2029 13.5871
154 1 -1.1104 9.73907 13.8055 6.47418
52 1 -1.1104 6.92445 16.4157 12.0658
9 1 -1.1104 6.74174 2.51851 3.60444
11 1 -1.1104 6.81769 -0.380964 0.920437
15 1 -1.1104 6.74233 -0.342983 3.66704
5 1 -1.1104 6.89417 2.48987 0.780623
4 1 -1.1104 6.805 -3.09192 0.927687
8 1 -1.1104 6.80661 -3.11294 3.76214
31 2 2.2208 11.0148 1.11089 5.20916
32 1 -1.1104 12.3848 -3.08408 0.91806
33 1 -1.1104 12.4131 2.48726 0.932341
34 1 -1.1104 12.347 -3.08494 3.63195
35 1 -1.1104 12.3226 2.72296 3.7787
36 1 -1.1104 12.6866 -0.24416 0.962874
37 2 2.2208 11.0808 -1.61924 2.3092
39 1 -1.1104 12.3513 -0.206689 3.82151
40 1 -1.1104 9.73081 -3.05954 0.776631
41 1 -1.1104 9.64287 2.2152 0.973359
42 2 2.2208 8.11555 1.00406 2.29818
43 1 -1.1104 9.60992 -3.01119 3.66769
44 1 -1.1104 9.4375 2.46899 3.60752
45 2 2.2208 8.19601 -1.57957 5.15014
46 2 2.2208 8.14413 3.81643 5.08262
47 1 -1.1104 9.736 -0.450617 1.0584
48 1 -1.1104 9.46424 -0.262356 3.84362
38 2 2.2208 10.8956 3.98072 2.31602
49 1 -1.1104 12.3328 19.2294 9.26649
206 1 -1.1104 12.5838 2.43614 6.49326
205 1 -1.1104 12.4059 -2.98983 6.48788
50 1 -1.1104 12.4868 16.5279 12.1606
54 2 2.2208 5.40946 6.58736 5.15578
55 2 2.2208 5.32905 12.2411 5.16068
56 1 -1.1104 1.08313 8.11736 0.816445
58 1 -1.1104 1.1239 8.15463 3.66052
60 1 -1.1104 1.26311 5.36441 0.865218
61 1 -1.1104 1.31401 10.9014 1.03168
66 2 2.2208 5.43215 9.46709 2.4073
67 1 -1.1104 1.21787 5.37198 3.74057
68 1 -1.1104 1.15618 10.9798 3.80525
71 1 -1.1104 3.95629 8.0925 0.967542
72 2 2.2208 2.62976 6.75251 2.30812
73 2 2.2208 2.71182 12.3846 2.37896
74 1 -1.1104 3.91112 8.07992 3.76888
75 2 2.2208 2.51855 9.45547 5.13239
76 1 -1.1104 4.05407 5.30384 0.938981
77 1 -1.1104 4.00636 10.9255 1.09832
79 1 -1.1104 3.98036 5.20612 3.68368
80 1 -1.1104 3.96308 10.9462 3.82423
9046 2 2.2208 -0.189941 6.73661 5.18099
9047 2 2.2208 -0.239563 9.6578 2.39307
9048 2 2.2208 -0.175508 12.2931 5.34327
238 1 -1.1104 4.10806 7.92342 6.51061
156 1 -1.1104 9.74053 19.3211 6.53054
409 2 2.2208 2.45222 12.2692 13.6779
336 2 2.2208 -0.149444 -1.71762 13.519
290 1 -1.1104 6.75876 13.6792 9.49842
59 1 -1.1104 6.86402 8.07691 3.82243
57 1 -1.1104 6.58854 8.12929 0.867427
70 1 -1.1104 6.84882 10.8314 3.76576
69 1 -1.1104 6.80602 5.35116 3.6887
64 1 -1.1104 6.73767 10.9868 0.987209
63 1 -1.1104 6.82964 5.4402 0.962461
84 2 2.2208 10.9527 6.75236 5.09427
85 2 2.2208 11.1453 12.3592 5.10449
86 1 -1.1104 12.3374 8.16837 0.956535
87 1 -1.1104 12.3937 8.16919 3.75968
88 1 -1.1104 12.3183 5.39175 0.821332
89 1 -1.1104 12.5891 11.1154 0.942769
91 2 2.2208 10.9466 9.47373 2.33509
92 1 -1.1104 12.3472 5.38516 3.70498
93 1 -1.1104 12.6417 10.9937 3.82581
94 1 -1.1104 9.50284 8.17568 0.983511
95 2 2.2208 8.17093 6.72562 2.27546
96 2 2.2208 8.35288 12.3283 2.45104
97 1 -1.1104 9.61578 8.2128 3.77519
98 2 2.2208 8.17641 9.41555 5.22686
99 1 -1.1104 9.54167 5.36909 0.927922
100 1 -1.1104 9.74956 10.9834 0.907304
102 1 -1.1104 9.40809 5.24593 3.69427
103 1 -1.1104 9.62084 10.8126 3.78173
237 1 -1.1104 6.86068 5.16642 6.52374
101 1 -1.1104 9.52526 10.9134 6.51545
265 1 -1.1104 12.3823 8.13992 6.53597
90 1 -1.1104 12.4251 10.8262 6.56884
65 1 -1.1104 6.63553 10.6789 6.52925
83 1 -1.1104 9.65467 13.6873 12.2776
9051 2 2.2208 -0.0777994 20.7038 2.39637
9045 2 2.2208 -0.200073 15.0298 2.46409
106 2 2.2208 5.52845 17.913 5.08631
107 1 -1.1104 1.17167 13.6801 0.995049
109 1 -1.1104 1.23182 19.282 0.85667
113 1 -1.1104 1.10834 13.6555 3.76979
114 1 -1.1104 1.3372 19.1653 3.82205
116 1 -1.1104 1.17347 16.4825 1.14469
119 2 2.2208 5.4777 15.1585 2.32438
120 2 2.2208 5.35169 20.553 2.3106
121 1 -1.1104 1.17948 16.5164 3.82639
123 1 -1.1104 4.08536 13.7539 1.02893
125 1 -1.1104 3.92036 19.389 1.03389
127 2 2.2208 2.58749 17.7326 2.40431
128 1 -1.1104 4.02268 13.8315 3.82123
129 1 -1.1104 4.11468 19.1675 3.84304
130 2 2.2208 2.70164 15.0243 5.31018
131 2 2.2208 2.60909 20.6335 5.20078
132 1 -1.1104 3.9016 16.5236 0.937174
134 1 -1.1104 4.06815 16.6178 3.97331
9042 2 2.2208 -0.2118 17.8137 5.17258
25 2 2.2208 11.0731 17.7363 10.7629
140 1 -1.1104 6.7836 16.5238 0.826244
122 1 -1.1104 6.84306 16.6418 3.61654
138 1 -1.1104 6.72171 19.2247 0.901018
115 1 -1.1104 6.83425 13.7053 3.78718
110 1 -1.1104 7.03921 13.7472 1.07632
139 1 -1.1104 6.95812 19.2676 3.65004
141 2 2.2208 11.0284 18.0396 5.19178
142 1 -1.1104 12.529 13.7789 1.05036
144 1 -1.1104 12.4203 19.3199 0.772606
146 1 -1.1104 12.4527 13.8772 3.80189
147 1 -1.1104 12.5289 19.4386 3.6881
148 1 -1.1104 12.4307 16.6311 0.929057
150 2 2.2208 11.1215 15.2939 2.40613
151 2 2.2208 11.1509 20.6411 2.25424
152 1 -1.1104 12.6408 16.6699 3.77873
153 1 -1.1104 9.69867 13.8668 1.08749
155 1 -1.1104 9.55134 19.2529 0.877473
157 2 2.2208 8.32886 17.8715 2.28279
158 1 -1.1104 9.69462 13.7767 3.68813
159 1 -1.1104 9.70918 19.3179 3.60843
160 2 2.2208 8.27439 15.0505 5.08642
161 2 2.2208 8.15566 20.6524 4.95654
162 1 -1.1104 9.71243 16.5672 0.923617
164 1 -1.1104 9.68592 16.6538 3.74008
149 1 -1.1104 12.5291 16.6175 6.63434
163 1 -1.1104 9.6739 16.4904 6.54804
118 1 -1.1104 6.75357 16.4259 6.36308
143 1 -1.1104 12.5154 13.6939 6.62823
8344 2 2.2208 8.22588 -4.50027 7.97327
27 1 -1.1104 12.4741 19.3536 12.1973
53 2 2.2208 11.074 15.1762 7.93101
229 1 -1.1104 9.60038 16.5131 9.47557
173 1 -1.1104 3.93741 2.42781 6.50111
170 1 -1.1104 1.12452 -0.418166 6.34315
172 1 -1.1104 4.12031 -3.06403 6.5868
499 2 2.2208 8.14171 17.8659 13.6423
8933 2 2.2208 -0.200636 3.91182 7.94362
175 2 2.2208 5.38042 1.08134 10.7509
176 1 -1.1104 1.23043 -3.1631 12.061
177 1 -1.1104 1.25485 2.41279 12.0237
180 1 -1.1104 0.994824 -2.94327 9.40005
181 1 -1.1104 1.22484 2.68185 9.24366
184 1 -1.1104 1.18869 -0.389837 12.0762
186 2 2.2208 5.44379 -1.72364 7.87437
187 2 2.2208 5.37491 3.73944 7.95409
188 1 -1.1104 1.12354 -0.261735 9.30709
190 1 -1.1104 4.15117 -3.23137 12.1842
191 1 -1.1104 3.93588 2.57864 12.1755
192 2 2.2208 2.5404 0.960785 7.84562
193 1 -1.1104 3.91468 -2.9675 9.29985
194 1 -1.1104 4.06514 2.25325 9.35239
195 2 2.2208 2.53776 -1.72732 10.6311
197 1 -1.1104 3.95729 -0.221556 11.9023
198 1 -1.1104 4.07158 -0.337434 9.23318
196 2 2.2208 2.5976 3.86656 10.6282
8899 2 2.2208 -0.322371 1.09778 10.6817
408 2 2.2208 5.55948 9.35262 13.5391
288 1 -1.1104 6.81551 19.2246 9.37994
81 2 2.2208 10.9683 20.7029 8.05823
209 1 -1.1104 9.55998 2.54463 6.55981
171 1 -1.1104 6.71511 -0.232307 6.56892
207 1 -1.1104 12.7042 -0.198462 6.55892
169 1 -1.1104 6.80241 2.45324 6.51716
210 1 -1.1104 9.69434 -0.386482 6.6742
208 1 -1.1104 9.57943 -3.06685 6.47837
189 1 -1.1104 6.90241 -0.372087 9.30878
183 1 -1.1104 6.75318 2.4688 9.3137
178 1 -1.1104 7.03564 -3.17537 11.8885
185 1 -1.1104 6.81503 -0.380547 12.138
182 1 -1.1104 6.71987 -3.11394 9.26826
179 1 -1.1104 6.74052 2.33633 12.1538
168 1 -1.1104 6.85318 -3.10732 6.4971
211 2 2.2208 11.1224 1.12695 10.67
212 1 -1.1104 12.5241 -3.10936 12.0763
213 1 -1.1104 12.4516 2.51305 12.0821
214 1 -1.1104 12.4983 -2.93297 9.21519
215 1 -1.1104 12.4837 2.54 9.30984
216 1 -1.1104 12.4385 -0.318806 12.1509
217 2 2.2208 11.1003 -1.72805 7.95434
218 2 2.2208 11.0508 3.84027 7.87876
219 1 -1.1104 12.425 -0.267011 9.34241
220 1 -1.1104 9.85186 -3.20634 12.4241
221 1 -1.1104 9.69189 2.4792 12.0547
222 2 2.2208 8.12545 1.13119 7.91967
223 1 -1.1104 9.56148 -3.08967 9.37941
224 1 -1.1104 9.58372 2.55479 9.20625
225 2 2.2208 8.18366 -1.59557 10.6446
226 2 2.2208 8.17399 3.76886 10.7072
227 1 -1.1104 9.61858 -0.28372 12.0611
228 1 -1.1104 9.63318 -0.335571 9.31805
78 1 -1.1104 3.89973 10.8737 6.65696
239 1 -1.1104 4.1423 5.20656 6.58094
234 1 -1.1104 1.29054 7.98072 6.48782
62 1 -1.1104 1.14243 10.8261 6.62823
236 1 -1.1104 1.40484 5.17409 6.57175
8960 2 2.2208 -0.136766 12.3376 10.7062
240 2 2.2208 5.41015 6.57737 10.7037
241 2 2.2208 5.41175 12.2 10.7746
242 1 -1.1104 1.19979 8.0752 12.1063
244 1 -1.1104 1.29897 8.19832 9.38349
246 1 -1.1104 1.17539 5.27319 12.1978
247 1 -1.1104 1.12669 10.9421 12.1551
250 2 2.2208 5.33824 9.36421 7.85241
251 1 -1.1104 1.14589 5.39928 9.27802
252 1 -1.1104 1.12285 10.9154 9.32286
255 1 -1.1104 4.14158 8.11624 12.0231
256 2 2.2208 2.61764 6.66398 7.88184
257 2 2.2208 2.53593 12.2656 8.00455
258 1 -1.1104 4.15603 7.88256 9.25959
259 2 2.2208 2.59239 9.492 10.8115
260 1 -1.1104 3.94564 5.3051 12.2058
261 1 -1.1104 3.93529 10.8328 12.3244
262 1 -1.1104 3.96112 5.15722 9.35793
263 1 -1.1104 3.91689 10.6617 9.41061
8968 2 2.2208 -0.201607 6.61878 10.7599
8967 2 2.2208 -0.251948 9.43927 8.10066
112 1 -1.1104 6.89534 19.3686 6.5018
267 1 -1.1104 9.64647 8.0992 6.54014
266 1 -1.1104 12.5503 5.34774 6.43936
254 1 -1.1104 6.87327 11.001 9.2619
269 1 -1.1104 9.6539 5.22403 6.48308
235 1 -1.1104 6.85179 7.9288 6.47917
245 1 -1.1104 7.00053 8.0038 9.29029
249 1 -1.1104 6.82012 10.7221 12.0639
248 1 -1.1104 6.67535 5.15178 12.106
253 1 -1.1104 6.79136 5.13617 9.31191
243 1 -1.1104 6.74027 8.05261 12.0558
264 1 -1.1104 9.65285 10.9619 9.25426
268 1 -1.1104 9.65861 5.36374 9.29854
270 1 -1.1104 9.68465 10.9048 12.1772
271 1 -1.1104 9.55051 5.22913 12.2046
272 2 2.2208 8.27258 9.47984 10.5939
273 1 -1.1104 9.70634 8.08306 9.28116
274 2 2.2208 8.26297 12.2518 7.99011
275 2 2.2208 8.25211 6.529 7.84104
276 2 2.2208 10.9723 6.74268 10.6583
277 2 2.2208 11.0305 12.3378 10.9073
278 1 -1.1104 12.3168 8.17719 12.2558
279 1 -1.1104 12.4124 8.23759 9.42843
280 1 -1.1104 12.3545 5.3716 12.0713
281 1 -1.1104 12.5668 10.8239 12.245
282 2 2.2208 10.9966 9.52938 7.86915
283 1 -1.1104 12.3207 5.35871 9.25645
284 1 -1.1104 12.3365 11.0984 9.36594
285 1 -1.1104 9.56658 8.08993 12.183
373 2 2.2208 10.9705 3.87958 13.5598
8739 2 2.2208 -0.194248 20.5767 8.07569
126 1 -1.1104 3.892 19.2521 6.63096
117 1 -1.1104 1.29741 16.4737 6.69034
108 1 -1.1104 1.29809 13.6879 6.65502
8740 2 2.2208 -0.131087 17.8509 10.8813
133 1 -1.1104 4.11177 16.442 6.83914
231 1 -1.1104 1.23756 19.2924 6.7314
8765 2 2.2208 -0.250249 15.1465 8.14218
124 1 -1.1104 3.95226 13.5997 6.62906
28 2 2.2208 2.58021 20.6991 10.9137
29 1 -1.1104 4.0628 16.2692 12.2288
51 1 -1.1104 1.26393 16.3977 12.1657
136 1 -1.1104 1.36309 13.7236 12.2759
200 1 -1.1104 1.23164 19.2584 12.2968
202 1 -1.1104 3.86856 13.4267 9.48721
203 1 -1.1104 3.8691 16.2526 9.40995
204 2 2.2208 2.60728 17.8625 8.02862
230 2 2.2208 2.65214 15.0484 10.8904
232 1 -1.1104 4.04772 19.173 9.3842
233 2 2.2208 5.27559 17.8033 10.729
286 1 -1.1104 3.89774 19.2754 12.2246
287 1 -1.1104 4.18262 13.4887 12.3034
291 1 -1.1104 1.2018 19.2375 9.47641
292 1 -1.1104 1.14502 16.4451 9.43907
293 2 2.2208 5.40947 20.7278 8.01683
294 1 -1.1104 1.20393 13.7109 9.41935
295 2 2.2208 5.41302 14.9384 7.98886
297 1 -1.1104 6.98338 13.5202 12.1259
145 1 -1.1104 12.4739 19.4929 6.59557
105 2 2.2208 8.25742 17.9405 7.92739
199 2 2.2208 8.17318 20.5684 10.8558
201 1 -1.1104 9.74521 16.503 12.2787
289 1 -1.1104 6.79317 16.4376 9.27473
135 1 -1.1104 9.65084 13.7913 9.38315
296 1 -1.1104 6.71004 19.2037 12.1033
104 1 -1.1104 9.61337 19.1014 12.1755
30 1 -1.1104 12.3273 13.8754 9.49869
26 1 -1.1104 12.3803 13.7218 12.1505
82 1 -1.1104 12.6048 16.501 9.3896
165 2 2.2208 8.22689 15.1093 10.6915
137 1 -1.1104 9.60542 19.271 9.35055
111 1 -1.1104 6.83456 13.6383 6.52868
9127 2 2.2208 -0.0882283 3.78378 13.5072
8343 2 2.2208 -0.20042 -4.38389 10.7073
339 2 2.2208 2.62345 1.00037 13.4472
371 2 2.2208 8.16182 0.901601 13.5265
9424 2 2.2208 -0.253647 17.914 -0.370556
340 2 2.2208 5.41154 3.94496 13.6206
338 2 2.2208 5.42263 -1.80413 13.5757
435 2 2.2208 11.1088 9.49119 13.6262
407 2 2.2208 2.69522 6.68382 13.5163
9041 2 2.2208 -0.232621 3.93276 2.32121
9199 2 2.2208 -0.247015 9.44163 13.56
8711 2 2.2208 2.64769 -4.50662 13.3913
470 2 2.2208 2.69604 17.8057 13.5615
434 2 2.2208 8.28126 6.63885 13.6078
471 2 2.2208 5.40063 20.8205 13.5648
8339 2 2.2208 8.34435 -4.45364 2.34082
17353 2 2.2208 -0.291007 -4.4869 5.13515
8341 2 2.2208 2.5878 -4.40847 7.85494
556 2 2.2208 8.2614 -1.75836 -0.406355
498 2 2.2208 11.0346 15.1028 13.5327
497 2 2.2208 11.033 20.5908 13.5726
9269 2 2.2208 -0.0937316 20.7027 13.5719
298 2 2.2208 5.4378 1.1588 16.2912
299 1 -1.1104 1.19962 -3.01897 17.6201
300 1 -1.1104 1.25657 2.56444 17.6625
303 1 -1.1104 1.20099 -3.19974 14.794
305 1 -1.1104 1.13483 2.47338 14.8979
311 1 -1.1104 1.31159 -0.171702 17.6765
313 2 2.2208 5.47192 -1.70514 19.2369
314 2 2.2208 5.4611 3.89539 19.0989
315 1 -1.1104 1.24684 -0.337757 14.8085
319 1 -1.1104 4.14198 -3.00166 17.9324
320 1 -1.1104 4.21139 2.54 17.8313
321 2 2.2208 2.70388 1.19293 19.1283
322 1 -1.1104 3.98772 -3.11553 15.1205
324 1 -1.1104 3.80815 2.33686 14.9923
326 2 2.2208 2.70853 -1.69539 16.4044
327 2 2.2208 2.59172 3.80188 16.3783
328 1 -1.1104 3.99861 -0.119746 17.6375
329 1 -1.1104 3.98703 -0.281611 14.7429
9415 2 2.2208 -0.156176 1.09859 16.3994
9416 2 2.2208 -0.118981 -1.69083 19.1451
9123 2 2.2208 -0.220292 3.89721 19.1656
592 2 2.2208 5.4161 12.3715 27.7124
9078 2 2.2208 -0.224099 20.8954 24.8704
525 2 2.2208 5.43148 1.10577 27.5222
9085 2 2.2208 -0.190799 12.2589 27.6943
330 1 -1.1104 4.05224 -0.269185 20.4997
304 1 -1.1104 1.34707 -3.13827 20.5384
306 1 -1.1104 1.26664 2.49522 20.4071
491 1 -1.1104 9.65507 19.4326 20.6953
301 1 -1.1104 7.08951 -3.07204 17.7565
307 1 -1.1104 6.75588 -3.09255 14.8854
309 1 -1.1104 6.83726 2.52859 14.938
317 1 -1.1104 6.8363 -0.400459 14.9729
312 1 -1.1104 6.97401 -0.31105 17.8063
302 1 -1.1104 6.95763 2.53147 17.798
341 2 2.2208 11.0873 1.04051 16.2702
342 1 -1.1104 12.4027 -2.96813 17.7363
343 1 -1.1104 12.5037 2.48521 17.8223
344 1 -1.1104 12.4903 -3.13577 14.9179
346 1 -1.1104 12.4064 2.42404 14.8906
348 1 -1.1104 12.5425 -0.217993 17.7383
349 2 2.2208 11.093 -1.68982 19.1587
351 1 -1.1104 12.1808 -0.3797 14.8828
353 1 -1.1104 9.82341 -3.12301 17.8753
354 1 -1.1104 9.77745 2.41528 17.783
355 2 2.2208 8.28329 1.12318 19.2967
356 1 -1.1104 9.63328 -3.07194 15.1552
358 1 -1.1104 9.54818 2.53887 14.8108
360 2 2.2208 8.37363 -1.72991 16.4032
361 2 2.2208 8.36258 3.72613 16.3269
362 1 -1.1104 9.75008 -0.442086 17.7896
363 1 -1.1104 9.60048 -0.205477 14.8604
350 2 2.2208 11.2146 3.76194 19.2134
318 1 -1.1104 6.79185 -0.130853 20.6086
345 1 -1.1104 12.4318 -2.99907 20.4964
352 1 -1.1104 12.4539 -0.276729 20.6302
364 1 -1.1104 9.66682 -0.302959 20.5639
590 2 2.2208 5.40099 6.71328 27.5507
617 2 2.2208 11.0409 12.4057 27.7169
526 2 2.2208 2.61299 -1.77523 27.4654
8427 2 2.2208 8.23218 -4.4026 24.8077
374 2 2.2208 5.44587 6.77531 16.449
375 2 2.2208 5.41122 12.2699 16.4278
376 1 -1.1104 1.24659 8.12243 17.6832
378 1 -1.1104 1.32223 8.13713 14.8651
382 1 -1.1104 1.22051 5.37547 17.7605
383 1 -1.1104 1.22324 10.757 17.8748
386 2 2.2208 5.4189 9.42356 19.2658
387 1 -1.1104 1.14788 5.16248 15.0102
389 1 -1.1104 1.21375 10.8117 14.9226
395 1 -1.1104 4.09738 8.04431 17.7514
396 2 2.2208 2.46082 6.67519 19.0713
397 2 2.2208 2.56518 12.0996 19.2755
398 1 -1.1104 4.19632 8.14451 15.0592
400 2 2.2208 2.66101 9.44269 16.3745
401 1 -1.1104 3.98419 5.20207 17.749
402 1 -1.1104 4.02265 10.7997 17.8258
403 1 -1.1104 4.13973 5.38263 15.0936
405 1 -1.1104 3.94599 10.9924 15.0312
9429 2 2.2208 -0.25538 9.39246 19.1745
9196 2 2.2208 -0.102986 6.66024 16.2527
9431 2 2.2208 -0.24375 12.3027 16.4077
379 1 -1.1104 1.16951 8.16255 20.5905
399 1 -1.1104 3.88172 8.112 20.7231
404 1 -1.1104 4.02676 5.4137 20.467
388 1 -1.1104 1.31968 5.41729 20.6738
457 1 -1.1104 6.82444 16.4285 20.7755
555 2 2.2208 11.0402 1.09355 27.5665
591 2 2.2208 2.65943 9.56687 27.5206
377 1 -1.1104 6.93777 8.12734 17.7454
393 1 -1.1104 6.704 10.7876 15.0507
384 1 -1.1104 6.87234 5.36009 17.7303
391 1 -1.1104 6.7976 5.22081 15.0029
385 1 -1.1104 6.77166 10.977 17.962
380 1 -1.1104 6.93677 7.96679 14.9573
410 2 2.2208 11.0823 6.5885 16.3557
411 2 2.2208 10.9132 12.1969 16.3904
412 1 -1.1104 12.5001 8.03574 17.7185
413 1 -1.1104 12.4515 7.9464 14.9296
415 1 -1.1104 12.5714 5.24817 17.7732
416 1 -1.1104 12.4746 10.8369 17.8563
417 2 2.2208 11.1147 9.42096 19.2289
418 1 -1.1104 12.3749 5.16875 14.9667
420 1 -1.1104 12.4416 10.7919 15.2342
422 1 -1.1104 9.70403 8.09601 17.7981
423 2 2.2208 8.27853 6.62483 19.057
424 2 2.2208 8.24213 12.1286 19.3765
425 1 -1.1104 9.73619 8.11442 15.0432
427 2 2.2208 8.26853 9.4173 16.4016
428 1 -1.1104 9.74442 5.21041 17.8641
429 1 -1.1104 9.64218 11.0088 17.7193
430 1 -1.1104 9.63027 5.22879 14.8907
432 1 -1.1104 9.58228 10.7539 15.0291
426 1 -1.1104 9.61006 7.98185 20.5526
414 1 -1.1104 12.4644 8.24815 20.6744
433 1 -1.1104 9.74604 10.7791 20.6176
381 1 -1.1104 6.87297 7.92978 20.5041
392 1 -1.1104 6.73631 5.19727 20.5934
394 1 -1.1104 6.78554 10.7877 20.6186
419 1 -1.1104 12.4133 5.32725 20.6767
9299 2 2.2208 -0.3372 1.21376 27.625
563 2 2.2208 11.0406 20.6881 24.8897
9419 2 2.2208 -0.299858 17.9356 16.476
9423 2 2.2208 -0.239187 15.0679 19.4016
9265 2 2.2208 -0.0758204 20.6514 19.1734
437 2 2.2208 5.41581 17.8813 16.4771
438 1 -1.1104 1.02266 13.6314 17.936
439 1 -1.1104 1.27875 19.2081 17.9497
442 1 -1.1104 1.09256 13.7345 14.9666
444 1 -1.1104 1.17109 19.3297 15.2643
450 1 -1.1104 1.15879 16.4953 17.8025
452 2 2.2208 5.2621 15.0532 19.3218
453 2 2.2208 5.41292 20.7845 19.284
454 1 -1.1104 1.06257 16.5912 14.9694
458 1 -1.1104 3.82059 13.5592 17.7453
459 1 -1.1104 3.93599 19.2928 17.8006
460 2 2.2208 2.61935 17.8425 19.2206
461 1 -1.1104 4.00254 13.7504 14.9963
463 1 -1.1104 4.07914 19.4369 14.992
465 2 2.2208 2.5857 15.1048 16.3921
466 2 2.2208 2.69455 20.706 16.4271
467 1 -1.1104 3.96157 16.4036 17.8865
468 1 -1.1104 4.00895 16.5237 14.9575
455 1 -1.1104 1.26717 16.4149 20.5374
535 1 -1.1104 12.4244 13.783 26.2973
8712 2 2.2208 2.54849 -4.45245 19.1698
332 2 2.2208 8.25091 20.7904 22.1253
448 1 -1.1104 6.85327 19.3493 14.9164
441 1 -1.1104 6.87227 19.4193 17.8834
440 1 -1.1104 6.54095 14.0255 17.7731
451 1 -1.1104 6.66668 16.7263 17.9317
446 1 -1.1104 6.81126 13.5815 14.995
456 1 -1.1104 6.70918 16.4986 15.0975
473 2 2.2208 11.0051 17.7433 16.4146
474 1 -1.1104 12.247 13.5592 17.6947
475 1 -1.1104 12.3984 19.29 18.0373
476 1 -1.1104 12.6023 13.7134 14.9274
478 1 -1.1104 12.5525 19.3207 15.0716
480 1 -1.1104 12.4845 16.472 17.7602
481 2 2.2208 10.9222 15.0539 19.1072
482 2 2.2208 11.119 20.7918 19.2524
483 1 -1.1104 12.3996 16.4855 15.0168
485 1 -1.1104 9.39567 13.6831 17.8
486 1 -1.1104 9.67476 19.2697 17.7707
487 2 2.2208 8.18864 17.9846 19.3723
488 1 -1.1104 9.55796 13.7371 15.0083
490 1 -1.1104 9.66835 19.2533 15.1253
492 2 2.2208 8.09761 15.1978 16.5527
493 2 2.2208 8.19503 20.6115 16.4752
494 1 -1.1104 9.57239 16.5567 17.8741
495 1 -1.1104 9.56706 16.4625 15.0324
484 1 -1.1104 12.4287 16.3857 20.5528
489 1 -1.1104 9.57751 13.6705 20.5043
477 1 -1.1104 12.4497 13.6203 20.5523
334 1 -1.1104 9.55423 16.6834 26.2508
8446 2 2.2208 11.0746 -4.5374 22.0542
316 1 -1.1104 1.27516 -0.36271 20.5929
562 2 2.2208 10.9985 15.251 24.628
325 1 -1.1104 4.09156 2.54264 20.7795
9271 2 2.2208 -0.18062 3.95798 24.945
323 1 -1.1104 4.07702 -2.96811 20.6007
501 2 2.2208 5.52389 1.19583 21.9999
502 1 -1.1104 1.2405 -3.15667 23.4214
503 1 -1.1104 1.19641 2.47912 23.3289
506 1 -1.1104 1.20828 -3.05359 26.1286
507 1 -1.1104 1.15252 2.62755 26.2377
510 1 -1.1104 1.22575 -0.310336 23.2401
512 2 2.2208 5.52312 -1.64865 24.6719
513 2 2.2208 5.4082 3.88099 24.9122
514 1 -1.1104 1.29305 -0.341064 25.9553
516 1 -1.1104 4.14866 -3.28853 23.3609
517 1 -1.1104 3.94479 2.49369 23.4211
518 2 2.2208 2.60372 1.01709 24.6216
519 1 -1.1104 4.101 -3.09255 26.1742
520 1 -1.1104 4.00469 2.44786 26.2689
521 2 2.2208 2.69272 -1.74141 21.9996
522 2 2.2208 2.60068 3.97652 22.0179
523 1 -1.1104 3.9933 -0.393283 23.4615
524 1 -1.1104 3.94768 -0.396109 26.1119
9297 2 2.2208 -0.171926 -1.74568 24.6806
9272 2 2.2208 -0.233355 1.10209 22.0448
515 1 -1.1104 6.85433 -0.234752 26.1065
557 2 2.2208 8.22687 3.86962 27.6072
366 2 2.2208 2.59543 20.8099 27.646
564 1 -1.1104 12.4369 16.6123 26.0807
357 1 -1.1104 9.62548 -3.07527 20.6698
347 1 -1.1104 12.4627 2.4261 20.7751
310 1 -1.1104 6.90693 2.47733 20.558
308 1 -1.1104 6.80897 -3.17835 20.5748
509 1 -1.1104 6.95333 2.45628 26.2264
504 1 -1.1104 7.06113 -2.99934 23.4779
505 1 -1.1104 6.73274 2.54462 23.5441
511 1 -1.1104 6.94314 -0.248091 23.3022
508 1 -1.1104 6.8814 -2.98789 26.2443
359 1 -1.1104 9.71234 2.5196 20.6127
537 2 2.2208 11.0329 1.09794 22.1365
538 1 -1.1104 12.5774 -3.16578 23.301
539 1 -1.1104 12.2848 2.5909 23.6333
540 1 -1.1104 12.5489 -2.93274 26.252
541 1 -1.1104 12.5073 2.47228 26.2678
542 1 -1.1104 12.5004 -0.272311 23.52
543 2 2.2208 11.0706 -1.76952 24.8661
544 2 2.2208 10.9778 3.90864 24.8249
545 1 -1.1104 12.4783 -0.224236 26.1824
546 1 -1.1104 9.84549 -3.11297 23.4657
547 1 -1.1104 9.56001 2.51737 23.4566
548 2 2.2208 8.26488 1.07019 24.8318
549 1 -1.1104 9.77801 -3.23154 26.1845
550 1 -1.1104 9.62316 2.49704 26.174
551 2 2.2208 8.3048 -1.69915 22.1054
552 2 2.2208 8.13584 3.88117 22.0271
553 1 -1.1104 9.65409 -0.438981 23.558
554 1 -1.1104 9.71619 -0.273531 26.2984
593 1 -1.1104 9.48104 19.4028 23.5305
9436 2 2.2208 -0.293406 12.2399 22.052
390 1 -1.1104 1.15932 10.7521 20.7754
406 1 -1.1104 3.97263 10.8082 20.6601
9435 2 2.2208 -0.324686 9.51281 24.885
9374 2 2.2208 -0.160222 6.81159 22.0034
566 2 2.2208 5.34696 6.74066 21.9157
567 2 2.2208 5.19525 12.3692 22.0863
568 1 -1.1104 1.13542 8.11027 23.4378
570 1 -1.1104 1.13938 8.19178 26.1635
572 1 -1.1104 1.34989 5.32591 23.4949
573 1 -1.1104 1.0872 10.9116 23.4908
576 2 2.2208 5.51782 9.51551 24.8279
577 1 -1.1104 1.15208 5.55171 26.1362
578 1 -1.1104 1.19553 11.0418 26.2662
581 1 -1.1104 4.07645 8.07251 23.6009
582 2 2.2208 2.68559 6.74429 24.8397
583 2 2.2208 2.77908 12.2327 24.9244
584 1 -1.1104 4.14114 8.2768 26.2225
585 2 2.2208 2.54318 9.45236 22.1111
586 1 -1.1104 4.02538 5.24982 23.4234
587 1 -1.1104 3.86558 10.9342 23.3962
588 1 -1.1104 3.98974 5.28089 26.2942
589 1 -1.1104 4.10026 10.9257 26.3463
449 1 -1.1104 6.7209 19.2285 20.5507
421 1 -1.1104 12.4498 10.9257 20.5914
431 1 -1.1104 9.55623 5.26551 20.5502
579 1 -1.1104 6.7564 5.24129 26.1492
569 1 -1.1104 6.72583 8.09952 23.3588
571 1 -1.1104 6.96008 8.24414 26.1588
575 1 -1.1104 6.75586 10.9357 23.5797
580 1 -1.1104 6.86699 11.0991 26.3367
574 1 -1.1104 6.85824 5.32718 23.4176
597 1 -1.1104 9.50908 10.9958 26.1515
598 1 -1.1104 9.55517 5.24715 26.2926
599 1 -1.1104 9.59233 10.7778 23.2928
600 1 -1.1104 9.81053 5.26487 23.4203
601 2 2.2208 8.26536 9.3134 21.928
602 1 -1.1104 9.47447 8.0117 26.1724
603 2 2.2208 8.2424 12.3941 24.9083
604 2 2.2208 8.2026 6.69903 24.7805
605 2 2.2208 11.0467 6.63251 22.0508
606 2 2.2208 11.047 12.2855 22.0057
607 1 -1.1104 12.2278 8.23329 23.3845
608 1 -1.1104 12.2636 8.20559 26.2969
609 1 -1.1104 12.5654 5.33472 23.4413
610 1 -1.1104 12.3467 11.0313 23.3788
611 2 2.2208 10.8976 9.56417 24.8508
612 1 -1.1104 12.3897 5.43265 26.201
613 1 -1.1104 12.4054 10.9 26.0545
614 1 -1.1104 9.53541 8.02679 23.4049
370 2 2.2208 8.34731 15.2697 27.5462
596 2 2.2208 8.01743 18.0604 24.7286
335 1 -1.1104 6.55416 19.4689 26.2297
9425 2 2.2208 -0.126543 15.0689 24.8715
9422 2 2.2208 -0.277073 17.9745 22.0543
445 1 -1.1104 1.24952 19.1855 20.8281
469 1 -1.1104 4.00204 16.5238 20.7942
464 1 -1.1104 3.88888 19.3535 20.6022
443 1 -1.1104 1.01576 13.5435 20.6727
462 1 -1.1104 3.82947 13.6311 20.6315
367 2 2.2208 2.48544 15.1428 22.177
368 2 2.2208 2.60227 20.6812 22.0349
369 1 -1.1104 3.93304 16.5342 23.5384
530 1 -1.1104 1.10363 16.4339 23.6157
532 1 -1.1104 3.9883 13.5745 26.349
559 1 -1.1104 4.01236 16.5479 26.277
594 2 2.2208 2.52739 17.9768 24.9268
595 1 -1.1104 3.99994 19.5081 26.3522
618 2 2.2208 5.32831 17.8606 22.0815
619 1 -1.1104 1.13748 13.6887 23.2671
620 1 -1.1104 1.03579 19.3035 23.5603
621 1 -1.1104 3.90138 19.4903 23.593
623 1 -1.1104 3.97893 13.8015 23.4763
625 1 -1.1104 1.17976 19.3865 26.2114
626 1 -1.1104 1.13809 16.5034 26.4403
627 1 -1.1104 1.22388 13.6723 26.2105
629 2 2.2208 5.37898 20.7601 24.868
630 2 2.2208 5.36364 15.2541 24.8697
560 1 -1.1104 9.49695 13.915 26.145
631 1 -1.1104 6.81826 13.7566 23.4426
534 1 -1.1104 12.4017 19.2939 23.423
331 2 2.2208 8.15621 15.0321 21.9698
533 1 -1.1104 12.4453 13.8208 23.4398
536 1 -1.1104 12.4193 19.3913 26.1824
529 2 2.2208 11.0089 17.9901 21.9651
622 1 -1.1104 6.62735 13.9107 26.3262
561 1 -1.1104 9.59089 19.4287 26.1524
624 1 -1.1104 6.67982 16.5512 26.1262
558 1 -1.1104 12.5055 16.6064 23.4526
496 1 -1.1104 9.64186 16.6883 20.6064
531 1 -1.1104 6.69188 16.5382 23.4238
565 1 -1.1104 9.70445 13.7047 23.2877
447 1 -1.1104 6.69055 13.6261 20.6268
479 1 -1.1104 12.5284 19.3162 20.7327
333 1 -1.1104 9.52024 16.6151 23.3086
628 1 -1.1104 6.7211 19.3691 23.4632
8498 2 2.2208 2.83087 -4.54816 24.8293
527 2 2.2208 2.48213 3.8582 27.6002
9079 2 2.2208 -0.247176 6.70485 27.6415
337 2 2.2208 2.51874 15.1327 27.6648
616 2 2.2208 8.19706 9.59746 27.5698
615 2 2.2208 10.9213 6.73049 27.564
528 2 2.2208 8.16556 20.7055 27.6985
365 2 2.2208 5.37204 17.9202 27.6809
9268 2 2.2208 -0.28188 15.1024 13.7253
472 2 2.2208 5.49909 14.9368 13.7081
500 2 2.2208 11.0688 18.0739 27.433
632 2 2.2208 5.42228 23.3948 5.15178
633 2 2.2208 5.28361 29.0874 5.27316
634 1 -1.1104 1.35035 24.9668 1.0699
635 1 -1.1104 1.09172 24.8027 3.81786
636 1 -1.1104 1.08967 22.1356 1.01892
637 1 -1.1104 1.25755 27.8792 1.20743
638 2 2.2208 5.34568 26.2868 2.34749
639 1 -1.1104 1.20617 22.0948 3.81473
640 1 -1.1104 1.3495 27.6174 3.77117
641 1 -1.1104 4.05622 24.9553 1.04442
642 2 2.2208 2.60996 23.5384 2.43007
643 2 2.2208 2.66109 29.1624 2.38795
644 1 -1.1104 3.92968 24.9229 3.96631
645 2 2.2208 2.6302 26.2125 5.27521
646 1 -1.1104 3.96166 22.1686 0.884326
647 1 -1.1104 3.92674 27.8592 0.960792
648 1 -1.1104 4.06894 22.0902 3.71833
649 1 -1.1104 4.0715 27.7513 3.76137
779 1 -1.1104 4.12631 24.6841 6.67334
9746 2 2.2208 -0.205831 23.5639 5.16785
9743 2 2.2208 -0.124959 26.3537 2.459
9745 2 2.2208 -0.190473 29.0861 5.17814
776 1 -1.1104 1.22524 27.6654 6.73318
773 1 -1.1104 1.1209 24.7618 6.62846
780 1 -1.1104 4.00986 22.0108 6.57108
1470 1 -1.1104 4.00691 47.4876 6.75839
1515 1 -1.1104 9.91832 47.4241 12.4307
1317 1 -1.1104 12.3471 47.5063 4.07088
1475 1 -1.1104 1.25125 47.4719 9.56172
655 1 -1.1104 6.63248 21.947 1.06003
654 1 -1.1104 6.82101 24.9009 3.64911
656 1 -1.1104 6.7548 27.6779 1.05718
653 1 -1.1104 6.83746 24.7089 0.910288
657 1 -1.1104 6.8133 22.0475 3.78836
658 1 -1.1104 6.85059 27.6833 3.86929
774 1 -1.1104 6.91525 24.7576 6.60098
659 2 2.2208 10.9692 23.3748 5.12601
660 2 2.2208 10.6977 29.2829 5.23212
661 1 -1.1104 12.5578 24.8642 0.957862
662 1 -1.1104 12.4946 24.9692 3.63994
663 1 -1.1104 12.6074 22.1768 0.920141
664 1 -1.1104 12.4657 27.7015 1.07643
665 2 2.2208 10.9293 26.1709 2.38945
666 1 -1.1104 12.3128 22.0487 3.66319
667 1 -1.1104 12.5123 27.9093 5.24131
668 1 -1.1104 9.64293 24.8139 0.973717
669 2 2.2208 8.27174 23.3293 2.2782
670 2 2.2208 8.16813 29.0195 2.41927
671 1 -1.1104 9.6443 24.8095 3.7498
672 2 2.2208 8.23313 26.1524 5.09169
673 1 -1.1104 9.61732 21.9212 0.879339
674 1 -1.1104 9.81959 27.5257 1.01897
675 1 -1.1104 9.67239 21.9649 3.74803
676 1 -1.1104 9.70102 27.6375 3.78326
809 1 -1.1104 9.6768 24.7935 6.55018
810 1 -1.1104 9.71723 21.9488 6.61743
777 1 -1.1104 6.88418 22.0377 6.47866
811 1 -1.1104 9.5419 27.6639 6.63632
778 1 -1.1104 6.74575 27.4974 6.6595
932 2 2.2208 11.0578 29.0825 -0.378363
926 2 2.2208 -0.233738 37.7554 2.52302
680 2 2.2208 5.26459 34.7369 5.21007
681 1 -1.1104 1.27669 30.6627 1.01279
682 1 -1.1104 1.16475 36.1989 1.0101
684 1 -1.1104 1.18078 30.4823 3.79347
685 1 -1.1104 1.13203 36.2953 3.82763
687 1 -1.1104 1.14641 33.5979 1.03594
688 2 2.2208 5.38271 31.9346 2.32737
689 2 2.2208 5.34384 37.5041 2.36355
690 1 -1.1104 1.11412 33.5076 3.83224
692 1 -1.1104 4.05648 30.6095 1.04593
693 1 -1.1104 4.03399 36.0963 0.932523
694 2 2.2208 2.60708 34.7499 2.41428
695 1 -1.1104 3.90695 30.6781 3.86702
696 1 -1.1104 3.83019 36.1895 3.83931
697 2 2.2208 2.56551 32.0226 5.27529
698 2 2.2208 2.50547 37.5682 5.29423
699 1 -1.1104 3.99979 33.2472 1.11753
700 1 -1.1104 3.95948 33.4516 3.95281
832 1 -1.1104 4.07434 30.4796 6.5954
833 1 -1.1104 3.89755 36.0653 6.64401
826 1 -1.1104 1.1866 30.6115 6.57396
1090 2 2.2208 2.49841 40.4315 13.7093
830 1 -1.1104 1.13353 33.4243 6.67215
834 1 -1.1104 3.95351 33.3249 6.73765
827 1 -1.1104 1.06477 36.3845 6.60504
9750 2 2.2208 -0.141988 32.0477 2.42867
686 1 -1.1104 6.76663 36.2453 3.78991
705 1 -1.1104 6.65869 30.3458 3.719
683 1 -1.1104 6.73181 36.1931 0.860559
704 1 -1.1104 6.94383 30.551 1.06271
706 1 -1.1104 6.83094 33.4202 1.11135
691 1 -1.1104 6.68519 33.2238 3.7447
829 1 -1.1104 6.74178 36.1505 6.51195
707 2 2.2208 10.8925 34.818 5.27116
708 1 -1.1104 12.5172 30.5825 1.02685
709 1 -1.1104 12.3774 36.1901 1.08177
710 1 -1.1104 12.2479 30.4483 3.77875
711 1 -1.1104 12.4031 36.1728 3.72342
712 1 -1.1104 12.5133 33.1659 0.971507
713 2 2.2208 10.9741 32.03 2.46318
714 2 2.2208 10.97 37.5257 2.48667
715 1 -1.1104 12.4643 33.2707 3.67467