ITEM: TIMESTEP
40000
ITEM: NUMBER OF ATOMS
17760
ITEM: BOX BOUNDS pp pp pp
-3.3586495051029902e-01 2.7675864950509990e+01
-4.1016995337585991e+00 3.3218169953376037e+02
-3.2597028342003842e-01 2.7665970283419899e+01
ITEM: ATOMS id type q x y z
1 2 2.2208 5.35106 1.5384 5.27785
2 1 -1.1104 1.17091 -2.64726 1.04171
3 1 -1.1104 1.03823 3.06291 0.995437
6 1 -1.1104 1.13885 -2.64532 3.83768
7 1 -1.1104 1.14133 2.85828 3.80335
10 1 -1.1104 1.09754 0.103644 1.084
12 2 2.2208 5.26337 -1.24956 2.40807
13 2 2.2208 5.3029 4.33958 2.52557
14 1 -1.1104 1.15518 0.0586021 3.77809
16 1 -1.1104 3.93669 -2.55217 1.07942
17 1 -1.1104 3.93587 3.00018 1.09713
18 2 2.2208 2.43662 1.51954 2.47475
19 1 -1.1104 3.83906 -2.64214 3.88043
20 1 -1.1104 3.96888 3.03759 3.88206
21 2 2.2208 2.56168 -1.2833 5.24907
22 2 2.2208 2.48777 4.35814 5.26972
23 1 -1.1104 3.92274 0.219774 1.0517
24 1 -1.1104 3.94178 0.227665 3.8567
4 1 -1.1104 6.81579 -2.65973 1.18486
172 1 -1.1104 3.94541 -2.63558 6.74006
8 1 -1.1104 6.68438 -2.57702 3.8636
174 1 -1.1104 3.97119 0.198726 6.71143
168 1 -1.1104 6.65033 -2.57256 6.68347
173 1 -1.1104 3.95861 2.94556 6.62767
170 1 -1.1104 1.2396 0.0764987 6.67894
9 1 -1.1104 6.797 2.96836 3.9507
171 1 -1.1104 6.80927 0.213946 6.75802
11 1 -1.1104 6.72096 0.178277 1.05985
166 1 -1.1104 1.19444 -2.65096 6.55766
9049 2 2.2208 2.43756 -4.13992 13.6797
15 1 -1.1104 6.78982 0.136007 3.8895
169 1 -1.1104 6.74509 2.99515 6.69491
5 1 -1.1104 6.79541 2.93541 1.14809
31 2 2.2208 10.8876 1.54437 5.17254
32 1 -1.1104 12.3272 -2.64429 1.07187
33 1 -1.1104 12.3555 2.99177 1.04895
34 1 -1.1104 12.3092 -2.50752 3.95489
35 1 -1.1104 12.3439 2.96492 3.89146
36 1 -1.1104 12.3449 0.202232 1.04389
37 2 2.2208 10.884 -1.22812 2.46802
38 2 2.2208 10.8699 4.37918 2.41368
39 1 -1.1104 12.3105 0.202571 3.75872
40 1 -1.1104 9.63196 -2.57304 1.08151
41 1 -1.1104 9.52342 2.98602 1.09202
42 2 2.2208 8.0778 1.59257 2.43593
43 1 -1.1104 9.5363 -2.74266 3.84772
44 1 -1.1104 9.56458 2.98808 3.87775
45 2 2.2208 8.09578 -1.2313 5.23969
46 2 2.2208 8.15879 4.35356 5.23086
47 1 -1.1104 9.46504 0.159367 1.0602
48 1 -1.1104 9.5187 0.102851 3.87692
205 1 -1.1104 12.2078 -2.68057 6.7633
207 1 -1.1104 12.2584 0.242261 6.57897
50 2 2.2208 13.6517 -1.18414 5.21667
324 2 2.2208 10.8487 21.0257 8.11594
206 1 -1.1104 12.4006 2.96731 6.64608
209 1 -1.1104 9.62412 2.93842 6.62737
9037 2 2.2208 11.0132 -4.12284 -0.386646
9028 2 2.2208 2.47673 -3.98754 8.17671
9026 2 2.2208 10.9457 -4.02672 5.20308
54 2 2.2208 5.28261 7.1408 5.22403
55 2 2.2208 5.29315 12.6425 5.26162
56 1 -1.1104 1.13089 8.57217 1.145
58 1 -1.1104 1.1163 8.51698 3.91593
60 1 -1.1104 1.00999 5.73954 1.04191
61 1 -1.1104 1.07816 11.3303 1.066
66 2 2.2208 5.29904 9.88071 2.4331
67 1 -1.1104 1.07839 5.64567 3.86815
68 1 -1.1104 1.13019 11.3065 3.94412
71 1 -1.1104 3.88071 8.46201 1.10847
72 2 2.2208 2.40895 7.11237 2.46538
73 2 2.2208 2.44992 12.6948 2.5152
74 1 -1.1104 3.97286 8.52531 3.84592
75 2 2.2208 2.49376 9.92231 5.29115
76 1 -1.1104 3.71982 5.65446 1.09569
77 1 -1.1104 3.92957 11.2881 1.07952
79 1 -1.1104 3.89245 5.87007 3.81986
80 1 -1.1104 3.83219 11.2613 3.89902
78 1 -1.1104 3.99542 11.3147 6.61854
234 1 -1.1104 1.02892 8.50888 6.59948
238 1 -1.1104 3.82654 8.47449 6.75109
59 1 -1.1104 6.74316 8.47027 3.8859
63 1 -1.1104 6.62509 5.70084 1.01611
235 1 -1.1104 6.69219 8.49454 6.74075
57 1 -1.1104 6.72331 8.45654 1.0725
70 1 -1.1104 6.67468 11.2093 3.85685
380 2 2.2208 2.53215 9.99886 -0.294108
239 1 -1.1104 3.93762 5.68894 6.5444
236 1 -1.1104 1.08031 5.76406 6.63566
64 1 -1.1104 6.69572 11.2971 1.08701
237 1 -1.1104 6.76433 5.71088 6.54285
69 1 -1.1104 6.75833 5.68044 3.78371
84 2 2.2208 10.9573 7.10142 5.26366
85 2 2.2208 10.9146 12.7336 5.30586
86 1 -1.1104 12.2993 8.52535 1.16034
87 1 -1.1104 12.3773 8.56261 3.83893
88 1 -1.1104 12.2147 5.72901 0.978382
89 1 -1.1104 12.2685 11.3772 1.03849
91 2 2.2208 10.9833 10.0102 2.57017
92 1 -1.1104 12.2892 5.79307 3.87486
93 1 -1.1104 12.3198 11.3092 3.87176
94 1 -1.1104 9.56839 8.53107 1.03317
95 2 2.2208 8.15582 7.24643 2.52448
96 2 2.2208 8.08981 12.6317 2.46382
97 1 -1.1104 9.5097 8.49934 3.84727
98 2 2.2208 8.08819 9.84331 5.33751
99 1 -1.1104 9.46821 5.76026 1.1359
100 1 -1.1104 9.43682 11.2203 1.0847
102 1 -1.1104 9.52648 5.80251 3.85054
103 1 -1.1104 9.43139 11.2534 3.87407
333 2 2.2208 13.7479 15.4969 10.8832
267 1 -1.1104 9.4804 8.40482 6.68003
266 1 -1.1104 12.3841 5.86264 6.6831
101 1 -1.1104 9.51245 11.2359 6.6732
331 2 2.2208 10.9271 18.2003 10.8459
106 2 2.2208 5.27059 18.2441 5.24439
107 1 -1.1104 1.08382 14.0504 1.02961
109 1 -1.1104 1.16446 19.7351 1.00672
113 1 -1.1104 1.10188 14.1233 3.96088
114 1 -1.1104 1.13319 19.7307 3.81573
116 1 -1.1104 1.07203 16.8936 1.15301
119 2 2.2208 5.31963 15.4357 2.42089
120 2 2.2208 5.40647 21.1198 2.47419
121 1 -1.1104 1.13414 16.9434 3.82957
123 1 -1.1104 3.88149 14.114 1.11305
125 1 -1.1104 3.8746 19.7133 1.15708
127 2 2.2208 2.48864 18.313 2.44152
128 1 -1.1104 3.86802 13.9579 3.96823
129 1 -1.1104 3.96884 19.7018 3.89623
130 2 2.2208 2.53636 15.4854 5.27216
131 2 2.2208 2.56189 21.1982 5.20969
132 1 -1.1104 3.9055 16.8876 1.07148
134 1 -1.1104 4.00179 16.7491 3.77858
115 1 -1.1104 6.65962 14.0689 3.8884
133 1 -1.1104 3.87905 16.8577 6.60617
110 1 -1.1104 6.65373 14.0456 1.1023
139 1 -1.1104 6.7768 19.6733 3.8694
126 1 -1.1104 3.97119 19.6804 6.66222
124 1 -1.1104 3.86409 14.0836 6.70603
118 1 -1.1104 6.6607 16.7805 6.6002
112 1 -1.1104 6.69656 19.5774 6.61678
140 1 -1.1104 6.67491 16.8527 0.995897
138 1 -1.1104 6.6899 19.7598 0.982759
314 1 -1.1104 9.36004 16.7622 9.38578
122 1 -1.1104 6.76614 16.9359 3.88727
141 2 2.2208 10.893 18.323 5.30305
142 1 -1.1104 12.1994 14.2083 1.11754
144 1 -1.1104 12.2134 19.7168 1.04356
146 1 -1.1104 12.3308 14.0724 3.85106
147 1 -1.1104 12.3303 19.7025 3.87733
148 1 -1.1104 12.285 16.9215 1.09965
150 2 2.2208 10.8758 15.4984 2.56278
151 2 2.2208 10.8763 21.1672 2.46893
152 1 -1.1104 12.3088 16.9152 3.95808
153 1 -1.1104 9.47232 14.0941 1.14853
155 1 -1.1104 9.41393 19.6127 1.03377
157 2 2.2208 8.08369 18.3075 2.40885
158 1 -1.1104 9.47605 14.0565 3.87251
159 1 -1.1104 9.53392 19.7069 3.83535
160 2 2.2208 8.06701 15.4813 5.32808
161 2 2.2208 8.05596 21.0626 5.31512
162 1 -1.1104 9.42596 16.82 1.18518
164 1 -1.1104 9.53397 16.912 3.8788
165 2 2.2208 13.6742 18.2804 2.45747
163 1 -1.1104 9.5401 16.8147 6.67913
9025 2 2.2208 8.12253 -4.06349 2.43369
344 2 2.2208 13.6777 15.5029 -0.330427
327 1 -1.1104 12.2188 19.6831 9.56692
167 1 -1.1104 1.07224 2.97764 6.68037
319 1 -1.1104 9.57795 14.0549 9.45953
9029 2 2.2208 5.25682 -4.05472 10.8435
175 2 2.2208 5.31356 1.58583 10.8566
176 1 -1.1104 1.10418 -2.6901 12.2613
177 1 -1.1104 1.13342 2.96745 12.2862
180 1 -1.1104 1.0634 -2.58869 9.46113
181 1 -1.1104 1.16062 2.94907 9.46761
184 1 -1.1104 1.06327 0.173131 12.2762
186 2 2.2208 5.31913 -1.27545 8.09815
187 2 2.2208 5.28181 4.32436 8.01248
188 1 -1.1104 1.14906 0.307522 9.36639
190 1 -1.1104 3.96028 -2.67699 12.3126
191 1 -1.1104 3.93501 2.91164 12.2963
192 2 2.2208 2.61198 1.55055 8.04681
193 1 -1.1104 3.89328 -2.60381 9.54938
194 1 -1.1104 3.88995 2.92298 9.35827
195 2 2.2208 2.44396 -1.24628 10.875
196 2 2.2208 2.56486 4.31758 10.9021
197 1 -1.1104 3.82624 0.220157 12.2393
198 1 -1.1104 3.92185 0.128892 9.48627
189 1 -1.1104 6.74547 0.182095 9.4504
182 1 -1.1104 6.69707 -2.59028 9.50756
9027 2 2.2208 13.7163 -4.03309 2.44076
9022 2 2.2208 2.48731 -4.04161 2.49507
339 2 2.2208 2.49193 1.56686 13.7008
334 2 2.2208 -0.3617 -1.22304 13.6241
208 1 -1.1104 9.34504 -2.70546 6.54004
210 1 -1.1104 9.52125 0.132757 6.65659
9032 2 2.2208 10.8331 -3.98338 10.8805
185 1 -1.1104 6.57397 0.148778 12.3271
179 1 -1.1104 6.62465 3.00583 12.3592
183 1 -1.1104 6.6805 2.88221 9.53341
178 1 -1.1104 6.73946 -2.65663 12.199
203 2 2.2208 13.7801 4.38982 10.805
343 2 2.2208 8.07256 1.57863 13.6467
346 2 2.2208 10.8654 -1.16242 13.6441
229 2 2.2208 13.7222 1.62984 8.00434
211 2 2.2208 10.9433 1.62625 10.9103
212 1 -1.1104 12.315 -2.66313 12.1767
213 1 -1.1104 12.3868 3.07785 12.2942
214 1 -1.1104 12.2381 -2.5471 9.34681
215 1 -1.1104 12.3117 2.90433 9.5321
216 1 -1.1104 12.2914 0.1613 12.1553
217 2 2.2208 10.8607 -1.15945 8.03649
218 2 2.2208 11.0106 4.30914 8.12464
219 1 -1.1104 12.3127 0.165329 9.38902
220 1 -1.1104 9.59164 -2.52369 12.2998
221 1 -1.1104 9.55606 2.94549 12.2016
222 2 2.2208 8.17648 1.64933 8.08013
223 1 -1.1104 9.51859 -2.67703 9.40123
224 1 -1.1104 9.55289 3.00611 9.42717
225 2 2.2208 8.12673 -1.16357 10.9076
226 2 2.2208 8.04672 4.44178 10.8773
227 1 -1.1104 9.45873 0.219243 12.2765
228 1 -1.1104 9.50792 0.218165 9.51473
9023 2 2.2208 5.32666 -3.99568 5.27453
9031 2 2.2208 8.07354 -4.05517 8.01969
62 1 -1.1104 1.16921 11.2966 6.70027
65 1 -1.1104 6.73409 11.2673 6.62546
240 2 2.2208 5.34008 7.14673 10.8856
241 2 2.2208 5.2984 12.7177 10.9329
242 1 -1.1104 1.10864 8.56473 12.2167
244 1 -1.1104 1.1186 8.5154 9.47538
246 1 -1.1104 1.20864 5.7237 12.2452
247 1 -1.1104 1.0922 11.3284 12.3423
250 2 2.2208 5.36744 9.90159 8.04258
251 1 -1.1104 1.1028 5.76503 9.49555
252 1 -1.1104 1.1919 11.3144 9.54222
255 1 -1.1104 3.90375 8.43388 12.3279
256 2 2.2208 2.47758 7.06749 8.04458
257 2 2.2208 2.47644 12.6936 8.10766
258 1 -1.1104 3.95759 8.54937 9.56631
259 2 2.2208 2.53169 9.84717 10.8133
260 1 -1.1104 3.90875 5.70935 12.2524
261 1 -1.1104 3.97185 11.3183 12.3369
262 1 -1.1104 3.9132 5.7176 9.36979
263 1 -1.1104 3.94345 11.2594 9.52049
248 1 -1.1104 6.67291 5.71109 12.333
245 1 -1.1104 6.78285 8.50504 9.51608
253 1 -1.1104 6.68987 5.78939 9.43969
249 1 -1.1104 6.69558 11.2794 12.3132
313 2 2.2208 -0.30721 15.4685 8.00273
269 1 -1.1104 9.55319 5.63715 6.66169
90 1 -1.1104 12.2966 11.4313 6.71461
265 1 -1.1104 12.2994 8.60229 6.53497
254 1 -1.1104 6.65716 11.2192 9.45711
243 1 -1.1104 6.72581 8.46159 12.375
325 2 2.2208 10.8989 15.4476 8.06107
316 2 2.2208 8.05899 21.0903 10.9093
264 1 -1.1104 9.39526 11.2469 9.50187
268 1 -1.1104 9.47537 5.7472 9.48338
270 1 -1.1104 9.4763 11.3823 12.2666
271 1 -1.1104 9.50209 5.90197 12.222
272 2 2.2208 8.13564 9.9209 10.8916
273 1 -1.1104 9.56807 8.46779 9.49148
274 2 2.2208 8.08924 12.7218 8.05717
275 2 2.2208 8.18309 7.07921 8.03213
276 2 2.2208 10.9048 7.18217 10.8468
277 2 2.2208 10.925 12.7646 10.8477
278 1 -1.1104 12.1942 8.66017 12.1845
279 1 -1.1104 12.4401 8.51348 9.40042
280 1 -1.1104 12.2649 5.90135 12.3133
281 1 -1.1104 12.299 11.4546 12.2989
282 2 2.2208 10.9498 9.93682 8.04479
283 1 -1.1104 12.293 5.76124 9.51062
284 1 -1.1104 12.2884 11.3715 9.43266
285 1 -1.1104 9.48062 8.59218 12.3033
320 2 2.2208 8.07169 18.1993 8.04001
311 2 2.2208 -0.292479 21.1004 8.14729
312 2 2.2208 -0.246927 18.2706 10.8299
302 1 -1.1104 1.15877 19.7734 6.65468
117 1 -1.1104 1.08916 16.9327 6.59637
108 1 -1.1104 1.06055 13.9995 6.74386
111 1 -1.1104 6.65993 14.1189 6.72828
305 1 -1.1104 3.94469 14.039 9.55432
300 2 2.2208 5.34094 18.3054 10.8454
301 1 -1.1104 3.98868 19.6765 9.41819
304 1 -1.1104 3.91043 16.8894 9.43194
303 2 2.2208 2.53962 18.3132 8.02346
298 1 -1.1104 1.04232 19.6749 12.3156
310 2 2.2208 2.54807 15.5612 10.8893
295 2 2.2208 5.19594 15.4767 8.11302
309 2 2.2208 2.46179 21.1413 10.8484
308 1 -1.1104 3.92388 17.0072 12.2607
307 1 -1.1104 1.10725 16.8506 12.1954
299 1 -1.1104 1.16408 14.1577 12.2146
286 1 -1.1104 3.95112 19.6924 12.2427
287 1 -1.1104 3.91827 14.1562 12.2761
291 1 -1.1104 1.20668 19.6918 9.51989
292 1 -1.1104 1.18913 16.8916 9.32122
293 2 2.2208 5.27733 21.0234 8.08013
294 1 -1.1104 1.12488 14.2048 9.4949
290 1 -1.1104 6.74421 14.0922 9.5308
288 1 -1.1104 6.69125 19.5788 9.50909
52 2 2.2208 13.7502 10.0018 10.8309
289 1 -1.1104 6.64276 16.8833 9.43719
297 1 -1.1104 6.66139 14.0763 12.337
306 1 -1.1104 6.6398 16.8803 12.2175
9030 2 2.2208 -0.437585 -3.9913 10.782
330 1 -1.1104 12.3537 14.1214 12.2216
323 1 -1.1104 12.231 16.843 9.50721
329 1 -1.1104 12.3128 19.6424 12.2843
156 1 -1.1104 9.44409 19.6707 6.71213
154 1 -1.1104 9.50573 14.1114 6.67045
143 1 -1.1104 12.285 14.0803 6.66643
332 2 2.2208 13.6987 18.3033 8.06374
317 2 2.2208 8.09046 15.5485 10.8472
326 1 -1.1104 12.2765 16.8623 12.2801
321 1 -1.1104 9.51326 19.7287 12.2644
315 1 -1.1104 9.4931 16.9335 12.3036
318 1 -1.1104 9.46304 19.5366 9.4893
322 1 -1.1104 9.51421 14.1015 12.2737
328 1 -1.1104 12.327 14.1731 9.52931
296 1 -1.1104 6.71951 19.7012 12.241
136 2 2.2208 -0.251638 21.179 2.48687
145 1 -1.1104 12.3028 19.7171 6.80796
149 1 -1.1104 12.2619 16.8902 6.64364
49 2 2.2208 13.7333 1.60224 2.44313
25 2 2.2208 -0.289972 -1.27571 2.48468
9024 2 2.2208 -0.3015 -4.00731 5.26102
83 2 2.2208 -0.257818 12.6194 5.23716
82 2 2.2208 -0.3356 9.92018 2.5257
231 2 2.2208 13.686 21.0384 5.27832
135 2 2.2208 -0.301464 15.5833 2.43702
137 2 2.2208 -0.264052 18.2953 5.23106
351 2 2.2208 2.48809 7.07112 13.6328
356 2 2.2208 8.102 12.7587 13.6789
354 2 2.2208 8.07126 7.16194 13.7022
357 2 2.2208 2.54152 18.3181 13.7142
363 2 2.2208 13.6586 18.3063 13.6998
360 2 2.2208 10.8985 21.1666 13.6583
365 2 2.2208 2.48691 -1.30186 -0.386666
342 2 2.2208 -0.318195 15.5308 13.616
364 2 2.2208 5.35136 1.5252 -0.369903
372 2 2.2208 8.02736 4.2916 -0.317276
369 2 2.2208 10.9131 1.5627 -0.382906
379 2 2.2208 5.2113 7.07287 -0.358209
386 2 2.2208 10.8558 12.6669 -0.318156
348 2 2.2208 10.8898 18.2577 -0.300923
347 2 2.2208 8.16101 15.4587 -0.343368
388 2 2.2208 5.27682 1.50782 16.4888
389 1 -1.1104 1.01156 -2.66673 17.8037
390 1 -1.1104 1.00312 2.8292 17.7989
393 1 -1.1104 1.01023 -2.58965 14.9992
395 1 -1.1104 1.06028 2.92785 15.0677
401 1 -1.1104 1.03846 0.109133 17.9544
403 2 2.2208 5.26436 -1.33647 19.3584
404 2 2.2208 5.38007 4.51537 19.2682
405 1 -1.1104 1.11884 0.164176 15.128
409 1 -1.1104 3.88026 -2.66323 17.8967
410 1 -1.1104 3.89882 2.9373 17.9513
411 2 2.2208 2.52894 1.52796 19.2746
412 1 -1.1104 3.79437 -2.64123 15.0092
414 1 -1.1104 3.90266 2.93387 15.1377
416 2 2.2208 2.48394 -1.23385 16.4387
417 2 2.2208 2.55989 4.39386 16.4315
418 1 -1.1104 3.84738 0.167885 17.8863
419 1 -1.1104 3.90984 0.136631 15.0723
391 1 -1.1104 6.62241 -2.65182 17.9156
406 1 -1.1104 1.14661 0.159947 20.723
392 1 -1.1104 6.68966 2.9248 17.8946
413 1 -1.1104 3.84318 -2.65535 20.6661
400 1 -1.1104 6.7217 2.98044 20.7591
399 1 -1.1104 6.73394 2.8906 15.1854
407 1 -1.1104 6.67115 0.145718 15.0879
398 1 -1.1104 6.64951 -2.6954 20.7592
397 1 -1.1104 6.59847 -2.56265 15.0469
9187 2 2.2208 2.51281 -4.07774 19.2754
421 2 2.2208 -0.338618 7.19202 22.0171
402 1 -1.1104 6.62322 0.0544327 17.8141
420 1 -1.1104 4.04666 0.0745743 20.6778
9159 2 2.2208 13.6598 -3.90728 19.2033
429 2 2.2208 13.7187 4.33738 16.4368
431 2 2.2208 10.8393 1.56389 16.3542
432 1 -1.1104 12.1713 -2.46438 17.7399
433 1 -1.1104 12.2739 2.94417 17.777
434 1 -1.1104 12.2324 -2.648 14.9776
436 1 -1.1104 12.3302 2.95824 14.9284
438 1 -1.1104 12.2815 0.175379 17.8692
439 2 2.2208 10.8982 -1.15163 19.2757
440 2 2.2208 10.916 4.40002 19.2228
441 1 -1.1104 12.1776 0.214528 15.0394
443 1 -1.1104 9.44284 -2.62117 17.7649
444 1 -1.1104 9.5444 3.11812 17.8048
445 2 2.2208 8.03738 1.52284 19.3135
446 1 -1.1104 9.52872 -2.61645 15.0458
448 1 -1.1104 9.51523 2.96592 14.9865
450 2 2.2208 8.06936 -1.24182 16.4356
451 2 2.2208 8.15206 4.31864 16.4977
452 1 -1.1104 9.42768 0.279813 17.9539
453 1 -1.1104 9.47019 0.132825 15.005
437 1 -1.1104 12.264 2.88758 20.5847
497 1 -1.1104 12.3538 19.6874 23.5011
428 2 2.2208 13.6416 1.55447 19.2623
435 1 -1.1104 12.2398 -2.68973 20.6289
449 1 -1.1104 9.5459 2.96308 20.5504
9158 2 2.2208 10.7736 -3.98058 16.3953
447 1 -1.1104 9.52228 -2.651 20.6751
442 1 -1.1104 12.3627 0.152427 20.6588
499 1 -1.1104 12.3442 19.6142 26.2259
464 2 2.2208 5.39921 7.21356 16.4821
465 2 2.2208 5.36667 12.7119 16.4061
466 1 -1.1104 1.25715 8.57654 17.9179
468 1 -1.1104 1.06113 8.5817 15.0968
472 1 -1.1104 1.14714 5.78056 17.8686
473 1 -1.1104 1.13311 11.3511 17.9699
476 2 2.2208 5.27723 9.93121 19.1995
477 1 -1.1104 1.23955 5.76854 15.0492
479 1 -1.1104 1.05206 11.4122 15.046
485 1 -1.1104 3.97399 8.5578 17.9422
486 2 2.2208 2.61102 7.11457 19.3125
487 2 2.2208 2.51462 12.7509 19.3475
488 1 -1.1104 3.90832 8.47748 15.0214
490 2 2.2208 2.50377 9.9122 16.4834
491 1 -1.1104 3.98959 5.82174 17.8609
492 1 -1.1104 3.92121 11.3675 17.758
493 1 -1.1104 3.98303 5.69459 15.0911
495 1 -1.1104 3.88721 11.3791 15.0654
489 1 -1.1104 3.86193 8.49871 20.6922
478 1 -1.1104 1.17017 5.86778 20.6969
467 1 -1.1104 6.68208 8.53391 17.8667
474 1 -1.1104 6.80781 5.83223 17.9231
481 1 -1.1104 6.62477 5.77246 15.1258
470 1 -1.1104 6.72731 8.4939 15.1733
469 1 -1.1104 1.07519 8.56965 20.6755
463 1 -1.1104 12.3004 14.1867 23.4761
353 2 2.2208 2.49651 12.7029 13.6503
9119 2 2.2208 10.8911 -4.07886 22.035
475 1 -1.1104 6.74545 11.3379 17.8364
483 1 -1.1104 6.75944 11.2448 15.0821
471 1 -1.1104 6.74279 8.49098 20.6789
500 2 2.2208 11.0083 7.12024 16.3578
501 2 2.2208 10.8995 12.7998 16.4115
502 1 -1.1104 12.4063 8.64939 17.8774
503 1 -1.1104 12.506 8.57485 15.0593
505 1 -1.1104 12.3231 5.74516 17.8545
506 1 -1.1104 12.4058 11.4076 17.8028
507 2 2.2208 11.0664 10.019 19.1529
508 1 -1.1104 12.4252 5.73205 15.0174
510 1 -1.1104 12.2783 11.3367 15.0492
512 1 -1.1104 9.63338 8.68107 17.8426
513 2 2.2208 8.15055 7.19625 19.2535
514 2 2.2208 8.06616 12.708 19.2177
515 1 -1.1104 9.47737 8.54608 15.0277
517 2 2.2208 8.12918 10.0022 16.5381
518 1 -1.1104 9.53861 5.89047 17.7966
519 1 -1.1104 9.58429 11.3868 17.8548
520 1 -1.1104 9.50119 5.81197 15.0137
522 1 -1.1104 9.48689 11.4262 15.0845
509 1 -1.1104 12.335 5.71599 20.5983
650 2 2.2208 13.7741 12.7621 19.175
523 1 -1.1104 9.63753 11.2992 20.6124
651 2 2.2208 13.69 7.14265 19.2788
504 1 -1.1104 12.304 8.47047 20.5934
511 1 -1.1104 12.3147 11.3469 20.6047
9121 2 2.2208 2.47741 -4.08347 24.8709
9122 2 2.2208 5.2974 -3.99347 22.0912
527 2 2.2208 5.26512 18.2789 16.4177
528 1 -1.1104 1.04629 14.1076 17.8314
529 1 -1.1104 1.26954 19.7558 17.8969
532 1 -1.1104 1.14851 14.1196 14.9334
534 1 -1.1104 1.07235 19.7735 15.0393
540 1 -1.1104 1.10659 16.9261 17.7661
542 2 2.2208 5.35574 15.4459 19.2812
543 2 2.2208 5.29929 21.0507 19.2113
544 1 -1.1104 1.03429 16.8816 14.9739
548 1 -1.1104 3.9605 14.1013 17.8575
549 1 -1.1104 3.94549 19.562 17.8052
550 2 2.2208 2.57808 18.2438 19.142
551 1 -1.1104 3.94838 14.0987 15.0208
553 1 -1.1104 3.91329 19.7565 15.0792
555 2 2.2208 2.47081 15.4744 16.3771
556 2 2.2208 2.55682 21.0813 16.4169
557 1 -1.1104 3.89465 16.8647 17.7739
558 1 -1.1104 3.86521 16.9159 15.0727
546 1 -1.1104 6.77933 16.8933 15.0569
538 1 -1.1104 6.66558 19.5805 15.067
541 1 -1.1104 6.73921 16.9021 17.89
536 1 -1.1104 6.65329 14.1563 15.0834
552 1 -1.1104 3.89772 14.0858 20.6916
531 1 -1.1104 6.77169 19.7526 17.8389
9041 2 2.2208 5.39049 -4.03711 27.6856
530 1 -1.1104 6.71024 14.0914 17.8681
537 1 -1.1104 6.70007 14.0507 20.6597
563 2 2.2208 10.9425 18.4405 16.4987
564 1 -1.1104 12.3204 14.256 17.834
565 1 -1.1104 12.4251 19.7108 17.8786
566 1 -1.1104 12.2991 14.3026 15.1186
568 1 -1.1104 12.4162 19.874 15.1081
570 1 -1.1104 12.3594 16.9965 17.8879
571 2 2.2208 11.05 15.6273 19.2798
572 2 2.2208 11.0599 21.1704 19.2521
573 1 -1.1104 12.2333 17.1395 15.0373
575 1 -1.1104 9.56814 14.2305 17.8843
576 1 -1.1104 9.55699 19.8358 17.937
577 2 2.2208 8.12846 18.382 19.2789
578 1 -1.1104 9.44229 14.1527 15.0783
580 1 -1.1104 9.5219 19.8386 15.0296
582 2 2.2208 8.15029 15.5815 16.5091
583 2 2.2208 8.13971 21.1849 16.4831
584 1 -1.1104 9.58272 17.132 17.9271
585 1 -1.1104 9.57764 17.0125 15.1608
619 2 2.2208 13.7637 15.6531 16.4581
525 2 2.2208 10.903 15.4125 24.9026
586 1 -1.1104 9.60419 16.8448 20.7017
567 1 -1.1104 12.3877 14.1336 20.6708
579 1 -1.1104 9.47825 14.0435 20.5571
618 2 2.2208 13.7667 18.3524 19.3236
547 1 -1.1104 6.81664 16.9344 20.661
581 1 -1.1104 9.54765 19.8014 20.6976
574 1 -1.1104 12.4127 16.9371 20.74
9157 2 2.2208 8.09046 -4.01463 19.2094
624 2 2.2208 -0.196103 -1.22703 24.8394
415 1 -1.1104 3.99726 2.95987 20.6753
396 1 -1.1104 1.16956 2.95752 20.6313
408 1 -1.1104 6.74351 0.19706 20.6777
394 1 -1.1104 1.02064 -2.69371 20.6444
591 2 2.2208 5.28072 1.5865 22.0914
592 1 -1.1104 1.05278 -2.62083 23.4644
593 1 -1.1104 1.08412 2.97559 23.43
596 1 -1.1104 1.13123 -2.66959 26.1879
597 1 -1.1104 1.08165 2.98701 26.2553
600 1 -1.1104 1.14323 0.214778 23.5239
602 2 2.2208 5.33143 -1.26674 24.8917
603 2 2.2208 5.16301 4.38416 24.8257
604 1 -1.1104 1.1963 0.155073 26.2464
606 1 -1.1104 3.89316 -2.59643 23.5468
607 1 -1.1104 3.78603 3.02757 23.4796
608 2 2.2208 2.57789 1.55049 24.9447
609 1 -1.1104 4.06145 -2.66538 26.2199
610 1 -1.1104 3.88353 2.99858 26.2455
611 2 2.2208 2.50834 -1.23316 22.0954
612 2 2.2208 2.49654 4.35038 22.0827
613 1 -1.1104 3.91695 0.238053 23.3879
614 1 -1.1104 3.9986 0.108456 26.2292
594 1 -1.1104 6.66054 -2.62789 23.4696
595 1 -1.1104 6.7196 2.95337 23.5095
605 1 -1.1104 6.71437 0.0895708 26.2967
601 1 -1.1104 6.71613 0.126557 23.4607
366 2 2.2208 2.36858 4.3786 27.7263
648 2 2.2208 -0.269389 12.6702 16.4365
621 2 2.2208 -0.224377 7.15117 16.4808
498 1 -1.1104 12.2863 14.0958 26.2735
454 1 -1.1104 9.51333 0.0977093 20.7405
616 2 2.2208 8.11268 21.1306 22.0265
598 1 -1.1104 6.81877 -2.64366 26.3196
599 1 -1.1104 6.61456 2.86627 26.2274
423 2 2.2208 13.7675 4.40556 21.9832
617 1 -1.1104 9.52834 16.7957 23.4003
627 2 2.2208 10.946 1.5453 22.0554
628 1 -1.1104 12.3408 -2.66117 23.4562
629 1 -1.1104 12.2869 3.05057 23.3929
630 1 -1.1104 12.3109 -2.698 26.249
631 1 -1.1104 12.1834 2.94737 26.161
632 1 -1.1104 12.3074 0.17712 23.5463
633 2 2.2208 10.9257 -1.22539 24.8757
634 2 2.2208 10.8785 4.3922 24.7977
635 1 -1.1104 12.3387 0.144274 26.2085
636 1 -1.1104 9.57521 -2.58982 23.4636
637 1 -1.1104 9.56035 2.85699 23.3079
638 2 2.2208 8.0768 1.56491 24.8291
639 1 -1.1104 9.55319 -2.70215 26.3065
640 1 -1.1104 9.3918 2.98343 26.1558
641 2 2.2208 8.10884 -1.18642 22.1059
642 2 2.2208 8.15528 4.25035 22.0646
643 1 -1.1104 9.57281 0.178952 23.4308
644 1 -1.1104 9.57424 0.143685 26.2797
653 2 2.2208 13.725 -1.26536 22.0838
426 2 2.2208 13.8273 9.90669 16.4562
9118 2 2.2208 8.15048 -4.02856 24.8885
646 2 2.2208 -0.355153 15.5963 24.7921
378 2 2.2208 13.6942 4.35004 27.6608
494 1 -1.1104 3.94783 5.71722 20.7223
496 1 -1.1104 3.90728 11.3088 20.568
480 1 -1.1104 1.17844 11.3557 20.8231
656 2 2.2208 5.30457 7.18585 22.0816
657 2 2.2208 5.31252 12.7243 22.0614
658 1 -1.1104 1.08904 8.47613 23.4828
660 1 -1.1104 1.10955 8.60941 26.2138
662 1 -1.1104 1.04173 5.68196 23.4759
663 1 -1.1104 1.08684 11.4089 23.5519
666 2 2.2208 5.31074 9.94177 24.8707
667 1 -1.1104 1.03638 5.78952 26.2323
668 1 -1.1104 1.19306 11.4319 26.3436
671 1 -1.1104 3.92008 8.55448 23.4543
672 2 2.2208 2.38232 7.13746 24.86
673 2 2.2208 2.54413 12.7994 24.8058
674 1 -1.1104 3.87206 8.5453 26.2715
675 2 2.2208 2.55529 9.96219 22.0261
676 1 -1.1104 3.90318 5.83635 23.5309
677 1 -1.1104 3.91123 11.372 23.4906
678 1 -1.1104 3.78834 5.75389 26.2368
679 1 -1.1104 3.92195 11.4203 26.371
665 1 -1.1104 6.6556 11.2667 23.3593
670 1 -1.1104 6.66656 11.2054 26.3329
669 1 -1.1104 6.59018 5.69922 26.2644
425 2 2.2208 -0.345137 -1.28939 19.3357
484 1 -1.1104 6.60067 11.3246 20.6097
482 1 -1.1104 6.72039 5.8869 20.6562
521 1 -1.1104 9.50054 5.64064 20.5598
516 1 -1.1104 9.5337 8.59508 20.5776
561 1 -1.1104 9.45206 14.0921 23.4989
664 1 -1.1104 6.70554 5.70071 23.4051
659 1 -1.1104 6.78867 8.532 23.4292
661 1 -1.1104 6.56825 8.43608 26.212
384 2 2.2208 10.8591 7.18583 27.5849
708 2 2.2208 13.652 12.7513 24.8067
710 2 2.2208 13.6805 7.17598 24.7556
620 1 -1.1104 9.45629 16.9477 26.2935
687 1 -1.1104 9.451 11.2196 26.3109
688 1 -1.1104 9.4117 5.69267 26.2829
689 1 -1.1104 9.47975 11.3067 23.4797
690 1 -1.1104 9.46436 5.67922 23.4666
691 2 2.2208 8.12246 9.80973 21.9869
692 1 -1.1104 9.41702 8.46773 26.19
693 2 2.2208 8.04299 12.6171 24.8964
694 2 2.2208 7.98223 7.07025 24.7978
695 2 2.2208 10.8434 7.1344 21.9676
696 2 2.2208 10.9292 12.7639 21.9252
697 1 -1.1104 12.2845 8.53018 23.2879
698 1 -1.1104 12.3955 8.56034 26.1996
699 1 -1.1104 12.2061 5.75874 23.418
700 1 -1.1104 12.3103 11.3813 23.4404
701 2 2.2208 10.9525 9.85994 24.7522
702 1 -1.1104 12.2682 5.82528 26.237
703 1 -1.1104 12.2772 11.3164 26.2024
704 1 -1.1104 9.45859 8.48969 23.3295
385 2 2.2208 8.08552 9.80025 27.6857
9189 2 2.2208 -0.299942 -3.99121 16.4379
533 1 -1.1104 1.09306 14.127 20.6672
535 1 -1.1104 1.11257 19.8253 20.684
554 1 -1.1104 3.92019 19.7381 20.6306
545 1 -1.1104 1.13975 16.9484 20.6152
559 1 -1.1104 3.99359 16.9355 20.6099
714 1 -1.1104 6.76229 16.7529 26.299
718 1 -1.1104 6.69338 19.6692 23.3582
680 1 -1.1104 6.7398 16.8361 23.4161
712 1 -1.1104 6.74195 14.018 26.2888
647 2 2.2208 2.51617 15.6375 22.0422
649 2 2.2208 2.53306 21.1106 22.0429
652 1 -1.1104 3.92397 16.9118 23.4598
655 1 -1.1104 1.01933 17.0273 23.4329
681 1 -1.1104 3.91438 14.0908 26.4025
682 1 -1.1104 3.87748 16.9246 26.3337
683 2 2.2208 2.54833 18.3697 24.9368
686 1 -1.1104 3.90676 19.715 26.2689
705 2 2.2208 5.33927 18.2731 21.9748
706 1 -1.1104 1.15667 14.2734 23.4486
707 1 -1.1104 1.06755 19.7842 23.4243
711 1 -1.1104 3.941 19.5432 23.3332
713 1 -1.1104 4.02129 14.1138 23.4991
715 1 -1.1104 1.11311 19.7137 26.3081
716 1 -1.1104 1.09875 16.9543 26.2712
717 1 -1.1104 1.02867 14.2266 26.1824
719 2 2.2208 5.3642 21.0558 24.8306
720 2 2.2208 5.32305 15.5199 24.9011
709 1 -1.1104 6.78428 14.0132 23.545
374 2 2.2208 5.37933 18.2962 27.7441
375 2 2.2208 2.50832 21.1777 27.6581
373 2 2.2208 2.50814 15.4845 27.7242
371 2 2.2208 -0.264904 18.3919 27.686
424 2 2.2208 -0.364053 1.5606 16.4477
340 2 2.2208 13.6881 1.57254 13.5933
539 1 -1.1104 6.67762 19.7437 20.5812
569 1 -1.1104 12.3415 19.7142 20.612
560 1 -1.1104 12.2772 16.9011 26.2603
462 2 2.2208 10.8747 18.3086 22.1418
587 2 2.2208 8.1018 18.2433 24.9099
526 2 2.2208 10.9918 21.0495 24.9039
562 1 -1.1104 9.54676 19.7155 23.4964
524 1 -1.1104 12.276 16.9961 23.4923
590 1 -1.1104 9.50654 19.6387 26.2064
589 1 -1.1104 9.58039 14.0075 26.2717
588 1 -1.1104 6.65122 19.6485 26.1833
615 2 2.2208 8.19681 15.443 21.9865
361 2 2.2208 10.8485 15.5187 13.6829
370 2 2.2208 8.21138 -1.26745 27.7042
381 2 2.2208 5.30542 12.7533 27.7031
349 2 2.2208 8.1721 21.0706 27.5392
338 2 2.2208 5.31726 -1.25556 13.6862
341 2 2.2208 5.34002 4.3832 13.6729
350 2 2.2208 10.8742 4.40031 13.6468
352 2 2.2208 5.26581 9.93138 13.689
355 2 2.2208 10.881 9.94671 13.6739
336 2 2.2208 13.7683 7.10715 13.6389
359 2 2.2208 5.29668 15.4569 13.6642
358 2 2.2208 5.31722 21.0904 13.6986
362 2 2.2208 8.10823 18.3329 13.6188
721 2 2.2208 5.33308 23.9539 5.28626
722 2 2.2208 5.38714 29.5173 5.21088
723 1 -1.1104 1.04429 25.3619 1.12137
724 1 -1.1104 1.15781 25.3421 3.79276
725 1 -1.1104 1.22445 22.6782 0.997526
726 1 -1.1104 1.16451 28.1604 1.20695
727 2 2.2208 5.3301 26.7421 2.38217
728 1 -1.1104 1.10266 22.4775 3.76943
729 1 -1.1104 1.19973 28.1453 3.82575
730 1 -1.1104 3.85997 25.3698 1.0324
731 2 2.2208 2.59477 23.9778 2.43539
732 2 2.2208 2.54475 29.6233 2.47125
733 1 -1.1104 4.03814 25.2595 3.83087
734 2 2.2208 2.53259 26.7868 5.12369
735 1 -1.1104 3.96638 22.528 1.13246
736 1 -1.1104 3.91614 28.122 1.0206
737 1 -1.1104 3.96442 22.4392 3.88323
738 1 -1.1104 3.98804 28.1789 3.7505
747 1 -1.1104 6.83453 28.0094 3.80212
869 1 -1.1104 3.94506 22.5808 6.73795
862 1 -1.1104 1.09874 25.2803 6.54541
867 1 -1.1104 6.72079 28.0404 6.49251
863 1 -1.1104 6.57473 25.2734 6.69176
744 1 -1.1104 6.76386 22.5379 0.965591
870 1 -1.1104 3.91851 28.1556 6.59604
1038 2 2.2208 -0.343364 23.851 10.8177
1039 2 2.2208 -0.360205 29.4325 10.7632
739 2 2.2208 -0.209284 29.5232 5.2765
741 2 2.2208 -0.322988 26.6834 2.49362
746 1 -1.1104 6.6422 22.5576 3.80985
742 1 -1.1104 6.74581 25.3752 1.1517
743 1 -1.1104 6.82881 25.3256 4.01749
745 1 -1.1104 6.79599 28.1468 1.11484
748 2 2.2208 10.8347 23.9263 5.33084
749 2 2.2208 10.9701 29.5444 5.21595
750 1 -1.1104 12.2514 25.2977 1.10165
751 1 -1.1104 12.3167 25.2324 3.91522
752 1 -1.1104 12.3009 22.4964 1.04982
753 1 -1.1104 12.3831 28.1303 1.12128
754 2 2.2208 10.9385 26.7569 2.40402
755 1 -1.1104 12.2318 22.4668 3.92402
756 1 -1.1104 12.2805 28.0971 3.86498
757 1 -1.1104 9.44204 25.3444 1.0872
758 2 2.2208 8.09139 23.9418 2.44155
759 2 2.2208 8.20204 29.5443 2.52848
760 1 -1.1104 9.54683 25.3472 3.89977
761 2 2.2208 8.16314 26.6635 5.21596
762 1 -1.1104 9.54298 22.4381 1.01048
763 1 -1.1104 9.57731 28.1381 1.11861
764 1 -1.1104 9.4038 22.5294 3.89589
765 1 -1.1104 9.63744 28.1803 3.89532
897 1 -1.1104 12.442 28.0139 6.58851
1013 1 -1.1104 9.39977 42.3123 9.51324
896 1 -1.1104 12.2578 22.4134 6.64469
1075 2 2.2208 8.11807 26.7571 -0.284386
1040 2 2.2208 -0.19619 26.7044 7.98819
791 2 2.2208 -0.227564 32.439 2.5306
769 2 2.2208 5.25939 35.1198 5.30924
770 1 -1.1104 1.0713 30.9831 1.04809
771 1 -1.1104 1.01869 36.6313 1.07249
773 1 -1.1104 1.22052 30.9714 3.84331
774 1 -1.1104 1.11624 36.4938 3.88477
776 1 -1.1104 1.09986 33.7914 1.09905
777 2 2.2208 5.37273 32.408 2.43495
778 2 2.2208 5.34896 38.01 2.54919
779 1 -1.1104 1.16688 33.7151 3.87271
781 1 -1.1104 3.97193 30.9754 1.0792
782 1 -1.1104 3.96503 36.4669 1.15511
783 2 2.2208 2.54567 35.1812 2.43777
784 1 -1.1104 3.97848 30.9799 3.89078
785 1 -1.1104 3.80158 36.5073 3.96545
786 2 2.2208 2.57954 32.3157 5.29526
787 2 2.2208 2.42835 37.9649 5.32164
788 1 -1.1104 3.89119 33.7495 1.09959
789 1 -1.1104 3.94697 33.6858 3.90714
780 1 -1.1104 6.7027 33.6655 3.86647
793 1 -1.1104 6.71412 30.9178 1.09066
794 1 -1.1104 6.78404 30.8634 3.81915
775 1 -1.1104 6.6311 36.4035 3.7583
925 1 -1.1104 3.89654 30.9074 6.69287
924 1 -1.1104 6.59869 33.7498 6.75722
1078 2 2.2208 2.40288 37.9909 -0.249581
926 1 -1.1104 3.76149 36.5037 6.64926
920 1 -1.1104 0.968046 36.515 6.74166
923 1 -1.1104 1.06385 33.7509 6.66757
792 2 2.2208 -0.333509 37.972 2.57877
790 2 2.2208 -0.258381 35.1281 5.20424
1080 2 2.2208 5.3047 35.0552 -0.254809
922 1 -1.1104 6.65311 36.5773 6.48574
772 1 -1.1104 6.75173 36.67 1.0159
921 1 -1.1104 6.73589 30.9114 6.51063
795 1 -1.1104 6.7526 33.8215 1.07077
796 2 2.2208 10.9005 35.1604 5.34202
797 1 -1.1104 12.3302 30.8705 0.998532
798 1 -1.1104 12.3893 36.545 1.07154